/*--------------------------------*- C++ -*----------------------------------*\
| =========                 |                                                 |
| \\      /  F ield         | OpenFOAM: The Open Source CFD Toolbox           |
|  \\    /   O peration     | Version:  2112                                  |
|   \\  /    A nd           | Website:  www.openfoam.com                      |
|    \\/     M anipulation  |                                                 |
\*---------------------------------------------------------------------------*/
FoamFile
{
    version     2.0;
    format      ascii;
    arch        "LSB;label=32;scalar=64";
    class       volScalarField;
    location    "0.071";
    object      s;
}
// * * * * * * * * * * * * * * * * * * * * * * * * * * * * * * * * * * * * * //

dimensions      [0 0 0 0 0 0 0];

internalField   nonuniform List<scalar> 
12225
(
1
1
1
1
1
1
1
1
1
1
1
1
1
1
1
1
1
1
1
1
1
1
1
1
1
1
1
1
1
1
1
1
1
1
1
1
1
1
1
1
1
1
1
1
1
1
1
1
1
1
1
1
1
1
1
1
1
1
1
1
1
1
1
1
1
1
1
1
1
1
1
1
1
1
1
1
1
1
1
1
1
1
1
1
1
1
1
1
1
1
1
1
1
1
1
1
1
1
1
1
1
1
1
1
1
1
1
1
1
1
1
1
1
1
1
1
1
1
1
1
1
1
1
1
1
1
1
1
1
1
1
1
1
1
1
1
1
1
1
1
1
1
1
1
1
1
1
1
1
1
1
1
1
1
1
1
1
1
1
1
1
1
1
1
1
1
1
1
1
1
1
1
1
1
1
1
1
1
1
1
1
1
1
1
1
1
1
1
1
1
1
1
1
1
1
1
1
1
1
1
1
1
1
1
1
1
1
1
1
1
1
1
1
1
1
1
1
1
1
1
1
1
1
1
1
1
1
1
1
1
1
1
1
1
1
1
1
1
1
1
1
1
1
1
1
1
1
1
1
1
1
1
1
1
1
1
1
1
1
1
1
1
1
1
1
1
1
1
1
1
1
1
1
1
1
1
1
1
1
1
1
1
1
1
1
1
1
1
1
1
1
1
1
1
1
1
1
1
1
1
1
1
1
1
1
1
1
1
1
1
1
1
1
1
1
1
1
1
1
1
1
1
1
1
1
1
1
1
1
1
1
1
1
1
1
1
1
1
1
1
1
1
1
1
1
1
1
1
1
1
1
1
1
1
1
1
1
1
1
1
1
1
1
1
1
1
1
1
1
1
1
1
1
1
1
1
1
1
1
1
1
1
1
1
1
1
1
1
1
1
1
1
1
1
1
1
1
1
1
1
1
1
1
1
1
1
1
1
1
1
1
1
1
1
1
1
1
1
1
1
1
1
1
1
1
1
1
1
1
1
1
1
1
1
1
1
1
1
1
1
1
1
1
1
1
1
1
1
1
1
1
1
1
1
1
1
1
1
1
1
1
1
1
1
1
1
1
1
1
1
1
1
1
1
1
1
1
1
1
1
1
1
1
1
1
1
1
1
1
1
1
1
1
1
1
1
1
1
1
1
1
1
1
1
1
1
1
1
1
1
1
1
1
1
1
1
1
1
1
1
1
1
1
1
1
1
1
1
1
1
1
1
1
1
1
1
1
1
1
1
0.756019
0.76715
0.76376
0.750915
0.734189
0.716327
0.707586
0.706652
0.708031
0.71117
0.716174
0.723452
0.730568
0.737161
0.743402
0.74856
0.7527
0.755928
0.757871
0.758775
0.75904
0.759026
0.758602
0.757732
0.756308
0.755089
0.75319
0.748883
0.735067
0.683227
0.672901
0.680617
0.688572
0.696139
0.704356
0.708241
0.708342
0.705889
0.695734
0.688273
0.687458
0.694102
0.757156
0.815373
0.811131
0.807284
0.806541
0.806055
0.805364
0.804481
0.803168
0.801359
0.798804
0.795714
0.792356
0.788914
0.78605
0.78343
0.781364
0.779789
0.778123
0.77695
0.776065
0.774837
0.77365
0.772308
0.770792
0.7694
0.767404
0.764443
0.759338
0.751756
0.747765
0.747284
0.747751
0.749677
0.753892
0.76112
0.770832
0.781715
0.791842
0.79953
0.804579
0.808296
0.812295
0.817096
0.821631
0.824735
0.82759
0.832328
0.835687
0.83652
0.836345
0.833021
0.82422
0.820622
0.820059
0.819863
0.820037
0.820828
0.818929
0.807274
0.804092
0.805422
0.809684
0.813932
0.816961
0.81967
0.822688
0.826087
0.829277
0.831458
0.832779
0.834163
0.836016
0.838191
0.840072
0.841975
0.843924
0.84603
0.848275
0.850621
0.852792
0.8551
0.856916
0.857927
0.858386
0.858166
0.856773
0.854019
0.850355
0.84707
0.844267
0.842203
0.840502
0.839506
0.839333
0.839758
0.84075
0.841463
0.84142
0.840138
0.835243
0.829181
0.826676
0.826531
0.828284
0.83571
0.84496
0.852403
0.857925
0.861529
0.863526
0.864383
0.864582
0.864507
0.863837
0.861223
0.857984
0.855944
0.855046
0.85492
0.855111
0.856414
0.861929
0.881612
0.912575
0.93431
0.944345
0.947673
0.951106
0.954409
0.955731
0.955381
0.95137
0.93436
0.881325
0.69788
0.456967
0.405786
0.74186
0.75276
0.754422
0.712717
0.655681
0.637496
0.633732
0.635755
0.639184
0.644028
0.65176
0.665786
0.681287
0.697291
0.716074
0.732127
0.743002
0.755791
0.766008
0.774103
0.782017
0.786239
0.786477
0.785557
0.782824
0.776517
0.770358
0.761023
0.75121
0.730599
0.703056
0.692017
0.693489
0.699727
0.714835
0.730703
0.758889
0.762813
0.739746
0.735702
0.788457
0.807901
0.812924
0.815975
0.81407
0.817547
0.823961
0.826628
0.827341
0.825692
0.818148
0.807959
0.798343
0.787303
0.779678
0.777386
0.776573
0.776204
0.775908
0.775286
0.774163
0.772618
0.770674
0.768314
0.765825
0.763468
0.762103
0.761826
0.762051
0.763766
0.768743
0.7765
0.784303
0.791425
0.800344
0.814897
0.834335
0.841699
0.842857
0.842606
0.840778
0.837179
0.833399
0.831962
0.83145
0.831027
0.829451
0.825596
0.823487
0.823269
0.823655
0.825208
0.82708
0.827444
0.827095
0.82571
0.823314
0.8204
0.816244
0.812535
0.806244
0.797395
0.795109
0.794824
0.796729
0.800273
0.802918
0.80448
0.80521
0.805424
0.805225
0.804313
0.803877
0.803679
0.803765
0.803705
0.805138
0.808897
0.81276
0.81792
0.82494
0.833101
0.842376
0.852849
0.864724
0.875891
0.885413
0.894983
0.903696
0.910658
0.915476
0.91698
0.914612
0.907458
0.896563
0.885301
0.87842
0.877493
0.880109
0.885338
0.885489
0.875303
0.860849
0.854365
0.846561
0.834486
0.823181
0.816101
0.813025
0.812254
0.812485
0.814916
0.823609
0.83434
0.842699
0.847249
0.848394
0.848374
0.847874
0.84714
0.847042
0.847363
0.848852
0.851513
0.854962
0.862299
0.884574
0.921524
0.944343
0.952435
0.955643
0.957102
0.958049
0.959428
0.959322
0.955509
0.943282
0.911489
0.798666
0.617274
0.715662
0.750771
0.720772
0.647186
0.622536
0.623584
0.629542
0.643143
0.65579
0.671012
0.690907
0.712853
0.739218
0.764386
0.787461
0.809353
0.830255
0.848851
0.861601
0.870399
0.877993
0.880477
0.879996
0.877771
0.872757
0.859625
0.846336
0.820821
0.791073
0.764159
0.743572
0.723165
0.714948
0.715886
0.720567
0.738681
0.786901
0.823526
0.816621
0.814712
0.818812
0.820384
0.826302
0.829569
0.839749
0.843949
0.845009
0.842357
0.835228
0.827403
0.813705
0.796699
0.782193
0.77233
0.768772
0.767154
0.766214
0.765071
0.763311
0.762296
0.762091
0.762077
0.762351
0.763462
0.765755
0.76963
0.77661
0.789255
0.808919
0.833443
0.847098
0.851422
0.853304
0.854441
0.856135
0.857138
0.857157
0.855475
0.850633
0.84255
0.831955
0.819647
0.814029
0.812943
0.81301
0.81415
0.816189
0.818924
0.822357
0.826756
0.830009
0.830627
0.830264
0.827638
0.820903
0.809921
0.803641
0.801864
0.79827
0.78579
0.773535
0.767935
0.764521
0.762549
0.761748
0.761085
0.759909
0.758306
0.75489
0.752139
0.750331
0.748906
0.748342
0.748179
0.748902
0.749568
0.751285
0.753208
0.755513
0.758875
0.763179
0.76831
0.774498
0.7814
0.791066
0.804815
0.824138
0.84758
0.876019
0.904985
0.923021
0.936186
0.946151
0.954271
0.960161
0.96116
0.959256
0.958311
0.959343
0.9606
0.958403
0.943082
0.896848
0.870614
0.863386
0.85888
0.849922
0.833557
0.822753
0.817028
0.813906
0.811853
0.810642
0.810006
0.809793
0.809941
0.811704
0.818141
0.824528
0.828602
0.8317
0.836371
0.847008
0.869959
0.885894
0.891244
0.899744
0.924038
0.945228
0.952656
0.953069
0.950978
0.950688
0.953831
0.95968
0.961091
0.959885
0.953328
0.928951
0.836173
0.726354
0.697215
0.628184
0.612917
0.617794
0.639464
0.688511
0.747942
0.798576
0.830359
0.851255
0.864099
0.872446
0.879075
0.883004
0.885254
0.888795
0.892667
0.896703
0.899578
0.901885
0.9032
0.90332
0.903041
0.902037
0.899093
0.893328
0.88227
0.865369
0.828601
0.782916
0.752179
0.736629
0.731636
0.738502
0.810335
0.840326
0.831369
0.828423
0.828329
0.836128
0.845866
0.856118
0.862657
0.866245
0.86712
0.867161
0.863921
0.854085
0.839728
0.822186
0.801244
0.779221
0.766929
0.763271
0.76206
0.761707
0.761636
0.761672
0.762069
0.763162
0.765229
0.768784
0.774254
0.782162
0.793405
0.808392
0.82638
0.846118
0.859739
0.864139
0.865956
0.867133
0.869305
0.871614
0.872058
0.871618
0.868393
0.860487
0.848205
0.833653
0.819144
0.810194
0.8073
0.80662
0.806747
0.808636
0.812735
0.818245
0.825019
0.83141
0.833058
0.832966
0.829423
0.818024
0.797696
0.776301
0.768931
0.766216
0.759415
0.749198
0.745787
0.744088
0.743282
0.74269
0.741405
0.740131
0.739362
0.738653
0.738422
0.738414
0.73905
0.73994
0.741305
0.742402
0.743407
0.744945
0.746367
0.748125
0.750254
0.753345
0.75721
0.762421
0.767405
0.771168
0.775629
0.781756
0.790655
0.804934
0.83148
0.874891
0.908868
0.934364
0.952015
0.964496
0.973184
0.977707
0.979465
0.979925
0.979324
0.974009
0.961391
0.932569
0.888737
0.867586
0.864832
0.869072
0.869903
0.867095
0.854759
0.844316
0.841346
0.841247
0.841636
0.842484
0.843518
0.84548
0.850007
0.856148
0.86256
0.873661
0.89839
0.928582
0.947765
0.952056
0.948738
0.937474
0.93687
0.945521
0.950829
0.950047
0.948314
0.948329
0.949897
0.955829
0.961797
0.963289
0.962408
0.956384
0.922026
0.649456
0.609373
0.601345
0.612683
0.665135
0.776492
0.862316
0.891869
0.902299
0.901512
0.898851
0.895039
0.891985
0.889559
0.8872
0.884746
0.883765
0.882006
0.882158
0.882923
0.884755
0.887267
0.890479
0.893505
0.897306
0.897407
0.896298
0.893272
0.886459
0.869524
0.829099
0.784649
0.74803
0.735947
0.80179
0.845814
0.841997
0.839373
0.843153
0.856439
0.868717
0.877794
0.885992
0.893081
0.899538
0.904689
0.906079
0.90606
0.901963
0.888834
0.867157
0.839138
0.808247
0.781188
0.770307
0.766918
0.765957
0.765799
0.765902
0.766476
0.767864
0.770384
0.774281
0.779951
0.787624
0.797184
0.808723
0.823251
0.841739
0.863063
0.873405
0.876565
0.877802
0.878291
0.878446
0.878473
0.878337
0.877607
0.875618
0.871407
0.863717
0.851416
0.833655
0.813244
0.804837
0.802309
0.801794
0.802196
0.804647
0.80991
0.817996
0.829642
0.835042
0.835565
0.831475
0.814662
0.784316
0.756291
0.744756
0.739772
0.736622
0.735278
0.73479
0.734631
0.734478
0.734286
0.73423
0.734494
0.735054
0.736217
0.737512
0.738831
0.740367
0.742447
0.744224
0.745104
0.745831
0.746394
0.747801
0.749316
0.751833
0.755118
0.760345
0.767181
0.771496
0.774808
0.778973
0.784806
0.792717
0.805621
0.834219
0.876818
0.91423
0.943501
0.962658
0.974541
0.981344
0.984298
0.98494
0.984265
0.976841
0.956946
0.936659
0.900333
0.872515
0.865347
0.868013
0.883629
0.892179
0.892093
0.884289
0.870692
0.8666
0.866775
0.870645
0.885378
0.904171
0.921608
0.938039
0.953275
0.966597
0.976837
0.983098
0.985423
0.985273
0.980846
0.961485
0.949334
0.949004
0.950149
0.949122
0.947878
0.947977
0.949304
0.954172
0.96083
0.964877
0.965444
0.964156
0.953247
0.595855
0.593127
0.607551
0.689041
0.852263
0.906379
0.919061
0.917031
0.91239
0.904504
0.895715
0.885419
0.874471
0.863654
0.851203
0.843366
0.832675
0.827185
0.825737
0.826899
0.829522
0.833027
0.839361
0.846267
0.860384
0.878903
0.889139
0.890489
0.887937
0.877956
0.83921
0.782499
0.742773
0.756295
0.844503
0.849753
0.84868
0.856304
0.872526
0.886079
0.894839
0.902756
0.910911
0.918469
0.926968
0.934818
0.938602
0.939784
0.939736
0.936907
0.928716
0.915041
0.896106
0.871356
0.843551
0.818301
0.799448
0.792168
0.790463
0.790438
0.79125
0.792879
0.795067
0.797677
0.800787
0.804842
0.811364
0.822181
0.838307
0.858663
0.873066
0.877193
0.878465
0.87894
0.879179
0.87937
0.879583
0.879705
0.879703
0.879401
0.878318
0.875673
0.870555
0.86141
0.844877
0.819326
0.804882
0.800507
0.799208
0.799092
0.800934
0.806455
0.817937
0.83437
0.83885
0.836275
0.81668
0.774879
0.74562
0.73539
0.73122
0.729977
0.729857
0.7301
0.730723
0.731588
0.732615
0.733763
0.73521
0.737294
0.74062
0.745096
0.750537
0.755863
0.758361
0.75922
0.756912
0.753537
0.752127
0.751732
0.752363
0.754942
0.759683
0.76821
0.778714
0.782437
0.783793
0.786532
0.792224
0.802081
0.820996
0.863098
0.905394
0.939795
0.964378
0.978957
0.985729
0.988138
0.988528
0.988026
0.982282
0.94722
0.922086
0.900527
0.873733
0.862647
0.863494
0.87747
0.900775
0.909218
0.909098
0.900954
0.887332
0.883559
0.884403
0.892521
0.919445
0.946498
0.965852
0.978576
0.986135
0.990113
0.991818
0.992205
0.991957
0.989475
0.976036
0.959542
0.953328
0.950812
0.94867
0.948063
0.94836
0.95014
0.955047
0.960441
0.965416
0.967689
0.967629
0.964166
0.597822
0.606634
0.673223
0.852352
0.917232
0.927126
0.923881
0.913434
0.895853
0.881404
0.865386
0.848823
0.828419
0.809692
0.786311
0.770451
0.758254
0.758189
0.760672
0.76688
0.77799
0.790589
0.801178
0.809768
0.819302
0.832609
0.858522
0.877295
0.883334
0.87602
0.832641
0.76521
0.744496
0.818948
0.85456
0.857662
0.86386
0.882501
0.8986
0.908122
0.914779
0.922415
0.930232
0.937849
0.945967
0.952628
0.957111
0.958864
0.959397
0.959356
0.958112
0.955002
0.950437
0.944678
0.937298
0.928182
0.917129
0.906116
0.897755
0.891348
0.885377
0.879912
0.876436
0.874946
0.873048
0.868128
0.862827
0.861229
0.860895
0.862486
0.869983
0.877299
0.879293
0.880258
0.881008
0.881828
0.882179
0.882179
0.882065
0.882075
0.882154
0.882157
0.882024
0.880843
0.877349
0.870841
0.85944
0.84139
0.818662
0.806558
0.801685
0.800011
0.800045
0.80605
0.823034
0.840554
0.842432
0.828479
0.784171
0.744702
0.733081
0.729288
0.727915
0.727654
0.727968
0.729134
0.731159
0.733387
0.736195
0.740578
0.749041
0.762261
0.775338
0.78097
0.782775
0.782267
0.775736
0.766862
0.75972
0.757703
0.75776
0.75863
0.76114
0.768517
0.784627
0.794657
0.797517
0.798004
0.799262
0.804016
0.81818
0.854602
0.901152
0.937611
0.9644
0.981618
0.990169
0.992814
0.993154
0.992647
0.987043
0.948054
0.895614
0.88502
0.86912
0.857022
0.855857
0.864404
0.893996
0.91443
0.920146
0.918991
0.909049
0.900346
0.899397
0.902575
0.920191
0.949801
0.97003
0.982043
0.988494
0.991637
0.992912
0.993193
0.993047
0.991698
0.98436
0.967968
0.957854
0.951973
0.949267
0.949074
0.94964
0.9522
0.958347
0.962254
0.965842
0.968865
0.969632
0.968608
0.60467
0.636041
0.781205
0.913121
0.933378
0.929402
0.913165
0.888647
0.876347
0.862934
0.844396
0.820388
0.782828
0.73972
0.697974
0.680281
0.679652
0.685278
0.700486
0.716568
0.731019
0.750229
0.771098
0.786729
0.797126
0.814414
0.848515
0.87356
0.880604
0.86944
0.803286
0.750451
0.768379
0.850221
0.864813
0.869569
0.885763
0.906488
0.918003
0.924657
0.930895
0.937679
0.944808
0.951884
0.958122
0.963119
0.966123
0.967406
0.967983
0.968177
0.968174
0.967871
0.967234
0.966513
0.965758
0.964809
0.963734
0.962732
0.961757
0.960782
0.959659
0.958167
0.956203
0.953637
0.950292
0.946008
0.940313
0.932654
0.922563
0.91109
0.901728
0.897853
0.896707
0.89673
0.897892
0.899076
0.899157
0.898236
0.895814
0.892697
0.8907
0.889718
0.889129
0.888753
0.888122
0.886996
0.884961
0.881318
0.875294
0.866745
0.851591
0.828669
0.810154
0.802534
0.800606
0.805614
0.829671
0.84403
0.841568
0.81406
0.765855
0.738239
0.729962
0.727628
0.727032
0.727095
0.728215
0.731499
0.736026
0.745595
0.76013
0.776168
0.786358
0.789863
0.790307
0.787902
0.781284
0.771212
0.761893
0.759579
0.760927
0.765211
0.769233
0.775794
0.789514
0.802314
0.808219
0.810645
0.812196
0.814657
0.822046
0.852085
0.900801
0.938134
0.965084
0.982622
0.991991
0.995593
0.996149
0.995381
0.98866
0.948983
0.876407
0.860241
0.85754
0.849449
0.847212
0.850721
0.875358
0.908291
0.923004
0.925548
0.922985
0.915484
0.913732
0.915191
0.925171
0.951108
0.9708
0.982566
0.988958
0.992117
0.993412
0.993709
0.993591
0.992637
0.988436
0.975254
0.962254
0.953947
0.95104
0.951046
0.951965
0.955461
0.961756
0.964932
0.966623
0.969063
0.970746
0.970635
0.614925
0.675824
0.879413
0.936529
0.936186
0.920539
0.893137
0.881742
0.870331
0.853651
0.82009
0.761767
0.68169
0.623512
0.60156
0.603443
0.618691
0.645954
0.686517
0.720478
0.738978
0.755986
0.773941
0.787345
0.798101
0.819239
0.855358
0.875784
0.87595
0.837574
0.762987
0.756448
0.826953
0.866546
0.876137
0.886235
0.908246
0.924497
0.932117
0.93759
0.94358
0.949607
0.955546
0.961289
0.965579
0.968586
0.970005
0.970627
0.970919
0.97106
0.971125
0.971145
0.971145
0.971144
0.97116
0.971168
0.971195
0.971263
0.971332
0.971385
0.97141
0.971348
0.971188
0.970874
0.970401
0.969687
0.968627
0.967025
0.964707
0.961472
0.957173
0.95203
0.948028
0.946544
0.945841
0.945353
0.944562
0.942897
0.939772
0.934821
0.928726
0.922972
0.919153
0.916404
0.912742
0.9079
0.902732
0.898298
0.895416
0.892376
0.888883
0.882323
0.873356
0.857071
0.826495
0.805083
0.799535
0.808816
0.832921
0.844833
0.840564
0.810366
0.767777
0.739938
0.730497
0.727649
0.727146
0.727708
0.731035
0.739663
0.752975
0.767599
0.779056
0.787499
0.78909
0.78616
0.779548
0.768349
0.761396
0.760409
0.762623
0.769443
0.77807
0.790634
0.807177
0.817385
0.819859
0.819496
0.819958
0.822888
0.830878
0.856612
0.908263
0.946071
0.970411
0.985619
0.993882
0.997048
0.997469
0.99648
0.988841
0.945304
0.86479
0.841284
0.841695
0.841297
0.838413
0.839245
0.851091
0.891504
0.919637
0.92962
0.930718
0.9292
0.928417
0.929408
0.935789
0.955993
0.973978
0.984934
0.991023
0.994039
0.995259
0.99553
0.995327
0.994022
0.990195
0.979814
0.966741
0.957456
0.954305
0.954382
0.955855
0.961074
0.964814
0.966503
0.967292
0.968774
0.970776
0.971531
0.62788
0.723576
0.912771
0.942248
0.935026
0.904488
0.888948
0.88076
0.866232
0.83263
0.765286
0.677489
0.609659
0.584028
0.579764
0.586052
0.615468
0.655641
0.707847
0.74358
0.764322
0.776704
0.785904
0.797016
0.815577
0.847105
0.868118
0.873146
0.848328
0.778516
0.759754
0.785658
0.860788
0.880379
0.888281
0.904221
0.926488
0.937615
0.943091
0.947718
0.95306
0.958313
0.96285
0.967044
0.969537
0.970878
0.971443
0.971641
0.9717
0.971713
0.971754
0.971839
0.971877
0.971928
0.971979
0.972041
0.972125
0.97222
0.972308
0.972398
0.972488
0.972579
0.972669
0.972752
0.972815
0.972842
0.972844
0.972706
0.972467
0.97205
0.971421
0.970608
0.969614
0.968557
0.967597
0.966829
0.966117
0.965366
0.964631
0.963653
0.962637
0.961396
0.960032
0.958701
0.957204
0.954985
0.951386
0.945718
0.93734
0.927686
0.917
0.905573
0.897628
0.891658
0.883205
0.870969
0.846485
0.811023
0.803503
0.814583
0.832515
0.843605
0.838406
0.816679
0.781424
0.748053
0.734894
0.729778
0.729644
0.730683
0.734215
0.740494
0.753227
0.765416
0.765026
0.762635
0.757877
0.756255
0.758055
0.761736
0.768949
0.783437
0.795714
0.810465
0.825702
0.833247
0.832176
0.829283
0.828568
0.829637
0.837694
0.870359
0.9218
0.956649
0.977512
0.989462
0.99565
0.99796
0.998183
0.997039
0.988812
0.944464
0.855692
0.827275
0.827487
0.830213
0.829588
0.829562
0.835517
0.868709
0.912553
0.9344
0.942577
0.945058
0.946271
0.948222
0.95326
0.96749
0.981419
0.990477
0.995422
0.997599
0.998223
0.998183
0.997442
0.995035
0.989354
0.980324
0.969133
0.960575
0.958101
0.958501
0.961748
0.965085
0.966037
0.966869
0.967479
0.968191
0.970063
0.971481
0.642615
0.77091
0.928399
0.943901
0.925207
0.90009
0.88887
0.882178
0.860531
0.812322
0.737118
0.64621
0.591546
0.577394
0.57636
0.582781
0.600303
0.632039
0.688746
0.752913
0.783299
0.800935
0.81604
0.830565
0.84784
0.859029
0.863804
0.842238
0.783861
0.762801
0.771761
0.844862
0.880829
0.892625
0.902043
0.921428
0.939346
0.947231
0.951363
0.955143
0.959795
0.964318
0.967573
0.97
0.971145
0.97169
0.971915
0.972008
0.972084
0.972286
0.972432
0.9725
0.972535
0.97255
0.972555
0.972577
0.972612
0.97265
0.972691
0.972742
0.972812
0.972907
0.973022
0.973152
0.973298
0.973467
0.973658
0.973813
0.973984
0.974059
0.97404
0.973738
0.973154
0.972498
0.971678
0.970795
0.969966
0.969146
0.968448
0.967833
0.967463
0.967296
0.967234
0.96724
0.967399
0.967729
0.968001
0.968156
0.967867
0.966629
0.963617
0.957344
0.94493
0.927644
0.908937
0.89462
0.886647
0.877675
0.858034
0.823936
0.815605
0.820959
0.831534
0.840441
0.837666
0.82435
0.802574
0.766566
0.747609
0.738007
0.735762
0.735882
0.736788
0.738112
0.740401
0.745595
0.750604
0.755201
0.763054
0.774162
0.790146
0.810226
0.8267
0.837574
0.841215
0.840274
0.836399
0.832786
0.832808
0.835553
0.847889
0.888515
0.936252
0.966538
0.983233
0.992202
0.996856
0.998677
0.998887
0.997952
0.99061
0.948617
0.853827
0.817026
0.815636
0.819596
0.820783
0.820914
0.824477
0.848316
0.903732
0.940219
0.95859
0.966522
0.969618
0.971359
0.974512
0.982555
0.991269
0.996407
0.998583
0.999244
0.999279
0.998964
0.997733
0.993758
0.986263
0.977895
0.968341
0.96279
0.962312
0.964248
0.966531
0.966499
0.966166
0.965729
0.965859
0.966341
0.967626
0.97049
0.658997
0.816564
0.938351
0.944087
0.917812
0.899792
0.894805
0.887268
0.858325
0.805541
0.727451
0.636801
0.589629
0.578349
0.57779
0.586253
0.607691
0.638259
0.684348
0.749715
0.791939
0.811525
0.828327
0.840095
0.846953
0.847396
0.820002
0.778021
0.763043
0.769235
0.818724
0.877447
0.895546
0.903568
0.915186
0.934284
0.94817
0.954246
0.957555
0.960487
0.964301
0.968039
0.970173
0.971313
0.971841
0.97209
0.972209
0.972319
0.972526
0.972702
0.972754
0.972763
0.972715
0.972634
0.972597
0.972592
0.972599
0.972614
0.972644
0.972697
0.972745
0.972793
0.972929
0.973086
0.97324
0.973445
0.973711
0.973964
0.974319
0.97472
0.975173
0.975585
0.975939
0.975713
0.974864
0.973353
0.971942
0.970823
0.969717
0.968789
0.968048
0.967693
0.967551
0.967533
0.967743
0.968257
0.968937
0.969782
0.97064
0.971417
0.971968
0.972299
0.971926
0.969753
0.963539
0.948078
0.923518
0.899818
0.886427
0.87493
0.860403
0.835456
0.826997
0.828332
0.832161
0.840168
0.839844
0.835744
0.823313
0.803848
0.781137
0.766395
0.757203
0.754905
0.756208
0.759866
0.767419
0.779534
0.796794
0.815312
0.832614
0.842739
0.846791
0.847532
0.846376
0.842905
0.837809
0.835526
0.836042
0.840867
0.860956
0.9149
0.956783
0.979193
0.990212
0.995478
0.998164
0.999359
0.999541
0.999039
0.993933
0.959761
0.857997
0.80934
0.805399
0.809217
0.811916
0.812631
0.815819
0.835264
0.893886
0.941009
0.967311
0.979807
0.984611
0.986216
0.988449
0.993108
0.996983
0.998919
0.999573
0.999661
0.999534
0.99884
0.996405
0.990194
0.981859
0.973844
0.968926
0.968366
0.969249
0.968948
0.967864
0.965092
0.963731
0.963764
0.963983
0.964744
0.96565
0.967794
0.676025
0.848465
0.944567
0.943492
0.916052
0.904741
0.902632
0.890787
0.863396
0.808128
0.736663
0.659124
0.60749
0.590128
0.586871
0.59356
0.614802
0.639527
0.669109
0.721481
0.778973
0.802269
0.815582
0.820877
0.810888
0.784871
0.764766
0.759204
0.767449
0.80147
0.870993
0.89718
0.907269
0.914158
0.92685
0.943572
0.954251
0.959099
0.961721
0.964011
0.967245
0.970127
0.971357
0.971923
0.972182
0.972311
0.972415
0.972577
0.972756
0.97281
0.972811
0.972753
0.972633
0.972446
0.972246
0.972021
0.971758
0.971464
0.971269
0.971169
0.971127
0.971239
0.971438
0.971877
0.972144
0.972382
0.972673
0.97295
0.973246
0.973663
0.974296
0.975265
0.976621
0.977948
0.979034
0.979866
0.97942
0.977679
0.975261
0.972798
0.970881
0.969468
0.968588
0.968204
0.968205
0.968609
0.969314
0.970258
0.971197
0.972023
0.97272
0.973533
0.974297
0.974741
0.974653
0.97383
0.971267
0.963141
0.939028
0.90783
0.886722
0.873316
0.861986
0.844664
0.83693
0.836914
0.837479
0.839776
0.842108
0.841746
0.840326
0.837481
0.831983
0.827788
0.826765
0.828487
0.832619
0.838768
0.844509
0.848738
0.851226
0.852292
0.851797
0.850381
0.847721
0.843082
0.839673
0.839812
0.842248
0.852681
0.888515
0.941555
0.974539
0.989864
0.995782
0.998187
0.999273
0.999737
0.999809
0.999515
0.995947
0.969234
0.868468
0.805834
0.796788
0.800028
0.803673
0.80492
0.808253
0.825335
0.883445
0.937398
0.968489
0.983912
0.990164
0.99286
0.995256
0.997597
0.999074
0.999679
0.999809
0.999767
0.999388
0.997524
0.990944
0.984205
0.980468
0.978385
0.977327
0.976053
0.973205
0.966683
0.962422
0.96234
0.962676
0.963558
0.964517
0.965424
0.965987
0.966876
0.693228
0.876973
0.948399
0.942768
0.91649
0.910475
0.907657
0.900852
0.877519
0.837889
0.789261
0.726545
0.65339
0.620309
0.608224
0.605935
0.61619
0.638485
0.651312
0.675912
0.716471
0.742754
0.751756
0.752983
0.7482
0.746882
0.7534
0.764791
0.795251
0.865468
0.897414
0.910088
0.916083
0.922892
0.935026
0.948702
0.957805
0.962262
0.964542
0.966424
0.969178
0.971254
0.971955
0.972228
0.972346
0.97241
0.972488
0.972649
0.972789
0.97281
0.972765
0.972575
0.972177
0.971564
0.970727
0.969656
0.96836
0.966957
0.965923
0.965414
0.965253
0.966189
0.96746
0.96872
0.970003
0.970853
0.971329
0.9718
0.972084
0.972391
0.972559
0.97273
0.973155
0.974668
0.977419
0.980643
0.982947
0.984585
0.985522
0.985171
0.983414
0.980913
0.978515
0.97674
0.97603
0.97618
0.976808
0.977686
0.978051
0.977683
0.976488
0.975588
0.975387
0.975773
0.976143
0.976163
0.975945
0.975302
0.973775
0.969897
0.957201
0.918852
0.887294
0.868653
0.858129
0.84917
0.843063
0.841999
0.842097
0.842495
0.843887
0.84677
0.849114
0.850324
0.851248
0.852048
0.852986
0.853694
0.854151
0.854324
0.854221
0.853822
0.852545
0.850661
0.847612
0.843496
0.843214
0.844616
0.851284
0.872511
0.926528
0.967954
0.987242
0.995028
0.998037
0.999197
0.999691
0.999892
0.999922
0.999748
0.997412
0.97822
0.886675
0.807199
0.789368
0.79064
0.795005
0.797582
0.802885
0.823313
0.883722
0.936334
0.967992
0.984535
0.992203
0.995743
0.997765
0.99903
0.999657
0.999851
0.999857
0.999691
0.998586
0.993011
0.980543
0.971921
0.968592
0.967738
0.967059
0.963883
0.959609
0.959461
0.960197
0.962355
0.965557
0.96891
0.970148
0.969907
0.968714
0.96805
0.711821
0.896699
0.951656
0.942556
0.918746
0.915492
0.915981
0.911303
0.89093
0.852335
0.816303
0.785025
0.73516
0.677987
0.651995
0.639211
0.635673
0.637966
0.649583
0.662883
0.68436
0.702526
0.714425
0.724499
0.734635
0.746684
0.763758
0.799134
0.8648
0.898012
0.912342
0.918812
0.922952
0.929462
0.940197
0.951942
0.960071
0.964313
0.966318
0.967779
0.969791
0.971581
0.972189
0.97238
0.972427
0.972447
0.972487
0.972639
0.972769
0.972771
0.972597
0.972063
0.970951
0.968983
0.965574
0.961248
0.957162
0.954133
0.952428
0.951831
0.952634
0.954636
0.95781
0.962229
0.96584
0.968548
0.970127
0.971
0.971571
0.971949
0.972234
0.972356
0.972299
0.972153
0.972221
0.973649
0.977806
0.982925
0.986363
0.988492
0.989769
0.990547
0.990732
0.9905
0.990288
0.990476
0.990973
0.991538
0.991712
0.991319
0.989275
0.985182
0.981521
0.979412
0.978268
0.977636
0.977268
0.976901
0.976191
0.974698
0.973277
0.971222
0.966274
0.948682
0.910923
0.882823
0.865141
0.854321
0.848255
0.845981
0.845704
0.845845
0.846462
0.848248
0.850287
0.851928
0.853349
0.854186
0.8544
0.854366
0.854085
0.853365
0.851959
0.850089
0.84701
0.846921
0.848174
0.85355
0.870091
0.914228
0.96285
0.985701
0.994547
0.997896
0.999168
0.999663
0.999871
0.999956
0.999968
0.999895
0.998729
0.986981
0.914194
0.816422
0.785592
0.782736
0.784339
0.788106
0.796538
0.824687
0.88832
0.938304
0.968936
0.98531
0.993221
0.996873
0.998622
0.999473
0.999814
0.999883
0.999831
0.999288
0.995859
0.98066
0.96353
0.957287
0.955578
0.954934
0.954995
0.955396
0.95645
0.958769
0.964215
0.969513
0.971822
0.973139
0.974365
0.974382
0.973913
0.971897
0.731062
0.913207
0.956591
0.94566
0.922052
0.918674
0.922233
0.923893
0.917399
0.895455
0.865593
0.840507
0.807315
0.760719
0.717607
0.682408
0.66362
0.659226
0.659919
0.66939
0.687434
0.702888
0.715757
0.729815
0.747469
0.773485
0.820872
0.874065
0.901888
0.915458
0.921982
0.925383
0.928711
0.934327
0.943134
0.952264
0.960055
0.964634
0.96673
0.968021
0.969699
0.971509
0.972185
0.97241
0.972465
0.972463
0.972464
0.972587
0.972707
0.972666
0.972228
0.970732
0.967746
0.962115
0.955698
0.950574
0.947052
0.944802
0.943637
0.943201
0.943995
0.94591
0.948888
0.954024
0.960431
0.965847
0.969002
0.970543
0.971244
0.971574
0.971837
0.972178
0.972382
0.972277
0.971894
0.971446
0.971434
0.972842
0.977921
0.984099
0.988373
0.990864
0.992349
0.993233
0.993799
0.994201
0.994523
0.994792
0.994989
0.995056
0.994884
0.993914
0.991291
0.987918
0.984679
0.982216
0.980439
0.978806
0.977341
0.975861
0.974292
0.973027
0.972083
0.970774
0.967892
0.960151
0.936557
0.903739
0.880255
0.865588
0.856896
0.852714
0.851277
0.850962
0.850971
0.851269
0.852365
0.853343
0.853689
0.853684
0.853436
0.852786
0.852172
0.850509
0.851018
0.853085
0.859106
0.874863
0.91376
0.963236
0.985252
0.994307
0.997841
0.999178
0.999682
0.999874
0.999952
0.999984
0.999988
0.999959
0.999487
0.993865
0.948339
0.838613
0.788712
0.778417
0.778395
0.781624
0.79378
0.834812
0.898291
0.944312
0.972253
0.987106
0.994249
0.997518
0.998999
0.999646
0.999863
0.999874
0.999674
0.997973
0.986458
0.965797
0.957312
0.954638
0.954069
0.95409
0.954503
0.956087
0.960512
0.967581
0.970895
0.972568
0.973327
0.973804
0.974818
0.975724
0.975758
0.97514
0.749877
0.926306
0.961183
0.951532
0.927043
0.922457
0.92576
0.930677
0.928345
0.915856
0.896642
0.880145
0.860973
0.832507
0.803919
0.774824
0.742179
0.72119
0.712481
0.710865
0.719471
0.734321
0.750959
0.778049
0.811913
0.854909
0.88609
0.908759
0.919583
0.925377
0.928398
0.930428
0.93285
0.937254
0.943842
0.951616
0.959253
0.964333
0.966597
0.967899
0.969362
0.971179
0.972064
0.97238
0.972465
0.972469
0.972431
0.972433
0.972519
0.972421
0.971443
0.968918
0.963697
0.956837
0.950722
0.946007
0.943151
0.941435
0.940592
0.940379
0.941159
0.942997
0.945645
0.950852
0.95823
0.964712
0.968587
0.970457
0.971263
0.971551
0.971715
0.971817
0.972022
0.972325
0.972403
0.972206
0.971389
0.970613
0.970468
0.97172
0.977273
0.984053
0.988796
0.991623
0.993124
0.993795
0.993993
0.993942
0.99393
0.994216
0.994799
0.995198
0.995259
0.995117
0.994176
0.991732
0.988628
0.984854
0.980756
0.977091
0.974546
0.973273
0.972585
0.971287
0.970249
0.969214
0.967228
0.962993
0.953018
0.927237
0.902009
0.883913
0.872265
0.866063
0.863297
0.862098
0.861169
0.860768
0.860392
0.859667
0.858812
0.858753
0.859141
0.860614
0.864449
0.872458
0.890544
0.930226
0.968457
0.98658
0.994543
0.99786
0.999184
0.999693
0.999884
0.999956
0.999983
0.999994
0.999996
0.999986
0.999808
0.997603
0.976487
0.881706
0.805788
0.782152
0.779424
0.782497
0.799
0.854712
0.914539
0.95472
0.978048
0.989981
0.995589
0.998127
0.999271
0.99975
0.999872
0.999833
0.999254
0.994671
0.975638
0.961233
0.9559
0.954346
0.954171
0.954628
0.956704
0.963169
0.968865
0.971474
0.972486
0.973079
0.973366
0.973586
0.974102
0.975298
0.976165
0.9762
0.767194
0.937375
0.965376
0.956494
0.930629
0.924161
0.926753
0.93673
0.940007
0.93713
0.926516
0.913552
0.905057
0.889369
0.870595
0.855987
0.83999
0.82617
0.818124
0.81425
0.814112
0.825186
0.84042
0.863444
0.883728
0.90248
0.915245
0.924046
0.928259
0.930925
0.932406
0.93364
0.935408
0.938542
0.943466
0.950064
0.957217
0.963349
0.966092
0.967541
0.968734
0.970394
0.971697
0.972239
0.972429
0.972463
0.972431
0.97234
0.972287
0.972107
0.971411
0.969167
0.96399
0.957075
0.950975
0.946197
0.943254
0.941459
0.940583
0.940525
0.940905
0.942261
0.944909
0.95039
0.958817
0.965957
0.969711
0.971284
0.971751
0.971853
0.971833
0.971831
0.971861
0.971922
0.972114
0.972281
0.972233
0.971842
0.97055
0.969332
0.968845
0.96996
0.975843
0.982427
0.986372
0.987779
0.987658
0.986652
0.985676
0.985848
0.987893
0.991149
0.994075