/*--------------------------------*- C++ -*----------------------------------*\
| =========                 |                                                 |
| \\      /  F ield         | OpenFOAM: The Open Source CFD Toolbox           |
|  \\    /   O peration     | Version:  2112                                  |
|   \\  /    A nd           | Website:  www.openfoam.com                      |
|    \\/     M anipulation  |                                                 |
\*---------------------------------------------------------------------------*/
FoamFile
{
    version     2.0;
    format      ascii;
    arch        "LSB;label=32;scalar=64";
    class       volScalarField;
    location    "0.32";
    object      p;
}
// * * * * * * * * * * * * * * * * * * * * * * * * * * * * * * * * * * * * * //

dimensions      [0 2 -2 0 0 0 0];

internalField   nonuniform List<scalar> 
12225
(
-1.03151
-1.98682
-2.3461
-2.47282
-2.62745
-2.79618
-2.92117
-3.0192
-3.1303
-3.24294
-3.33512
-3.39939
-3.43517
-3.46033
-3.48719
-3.49234
-3.48755
-3.1883
-1.42999
-2.01828
-2.3313
-2.45209
-2.58106
-2.72015
-2.82262
-2.89636
-2.96903
-3.03579
-3.08368
-3.1138
-3.14221
-3.17232
-3.20962
-3.25494
-3.35854
-3.60208
-1.55586
-1.96659
-2.29973
-2.45488
-2.58938
-2.73341
-2.85193
-2.94539
-3.03561
-3.12396
-3.20032
-3.26123
-3.30966
-3.34779
-3.38607
-3.43393
-3.53509
-3.74027
-1.68924
-2.0126
-2.32782
-2.48574
-2.6075
-2.73806
-2.85019
-2.93843
-3.01917
-3.09577
-3.16085
-3.21211
-3.25555
-3.29917
-3.3539
-3.43004
-3.5583
-3.75863
-1.81284
-2.05692
-2.33239
-2.4908
-2.6092
-2.73362
-2.84576
-2.93775
-3.02135
-3.1013
-3.17342
-3.23644
-3.29526
-3.35615
-3.42738
-3.51887
-3.65272
-3.84618
-1.92284
-2.10499
-2.34384
-2.5038
-2.62176
-2.74007
-2.84992
-2.94296
-3.0266
-3.10581
-3.1786
-3.24423
-3.30666
-3.37199
-3.44839
-3.54555
-3.67864
-3.85683
-2.02145
-2.1585
-2.36289
-2.51853
-2.63407
-2.74553
-2.8517
-2.94479
-3.02868
-3.10801
-3.18261
-3.25247
-3.32112
-3.39428
-3.47898
-3.58271
-3.71454
-3.87782
-2.11049
-2.21464
-2.38699
-2.53403
-2.64684
-2.75287
-2.85552
-2.94835
-3.03273
-3.11259
-3.18892
-3.26231
-3.33575
-3.41404
-3.50272
-3.60713
-3.73227
-3.87834
-2.19116
-2.27123
-2.41531
-2.55139
-2.6609
-2.7622
-2.86097
-2.95267
-3.03711
-3.11735
-3.19498
-3.27104
-3.34801
-3.42971
-3.52035
-3.62348
-3.74152
-3.87295
-2.2644
-2.32684
-2.44692
-2.57078
-2.67594
-2.77282
-2.86764
-2.95765
-3.04189
-3.12244
-3.20112
-3.27916
-3.35858
-3.44226
-3.53318
-3.63345
-3.74386
-3.86215
-2.33097
-2.38045
-2.4806
-2.59194
-2.69178
-2.78447
-2.87545
-2.96339
-3.04704
-3.12766
-3.20692
-3.28612
-3.36682
-3.45108
-3.54083
-3.63714
-3.73989
-3.84671
-2.38641
-2.42715
-2.51237
-2.61258
-2.70692
-2.7958
-2.88337
-2.96913
-3.05184
-3.13217
-3.21153
-3.29107
-3.37202
-3.45578
-3.54356
-3.63578
-3.73188
-3.82969
-2.43684
-2.47089
-2.54379
-2.63368
-2.72226
-2.80733
-2.89161
-2.97502
-3.05649
-3.13623
-3.21528
-3.2946
-3.37511
-3.45767
-3.54292
-3.63085
-3.72074
-3.81067
-2.48859
-2.51681
-2.57846
-2.65791
-2.73986
-2.82052
-2.90114
-2.98175
-3.06143
-3.14004
-3.2182
-3.2966
-3.3758
-3.45622
-3.53806
-3.62103
-3.70437
-3.78655
-2.53969
-2.56302
-2.61491
-2.68437
-2.75916
-2.83484
-2.91142
-2.98875
-3.06601
-3.1428
-3.21933
-3.29594
-3.37286
-3.4502
-3.52783
-3.60533
-3.68205
-3.75684
-2.58726
-2.60668
-2.6505
-2.71102
-2.77864
-2.849
-2.92124
-2.99487
-3.06909
-3.14329
-3.21733
-3.29122
-3.36494
-3.43833
-3.51112
-3.58289
-3.6531
-3.72096
-2.62706
-2.64352
-2.68113
-2.73428
-2.79541
-2.86053
-2.92833
-2.998
-3.06865
-3.13956
-3.21031
-3.28067
-3.3504
-3.41923
-3.48684
-3.55286
-3.61684
-3.67836
-2.65269
-2.66718
-2.70064
-2.7486
-2.80468
-2.86533
-2.92905
-2.99487
-3.06181
-3.12906
-3.19603
-3.26235
-3.32766
-3.39165
-3.45401
-3.51443
-3.57268
-3.62842
-2.65382
-2.66759
-2.6995
-2.7453
-2.79888
-2.85676
-2.91755
-2.98031
-3.04405
-3.10789
-3.17123
-3.23363
-3.29474
-3.35423
-3.41183
-3.46732
-3.52051
-3.57128
-2.62213
-2.6372
-2.67163
-2.71994
-2.7749
-2.83304
-2.89344
-2.95538
-3.01784
-3.07994
-3.14116
-3.20112
-3.2595
-3.31597
-3.37029
-3.42229
-3.47186
-3.51897
-2.57618
-2.5939
-2.63378
-2.68765
-2.7462
-2.80618
-2.86763
-2.93016
-2.99271
-3.05447
-3.11508
-3.17427
-3.23169
-3.28697
-3.33983
-3.3901
-3.43769
-3.4826
-2.51757
-2.54007
-2.58924
-2.65164
-2.71514
-2.77781
-2.8412
-2.90498
-2.9679
-3.02945
-3.08966
-3.14842
-3.20533
-3.25994
-3.3119
-3.36103
-3.40722
-3.45055
-2.44863
-2.47917
-2.54252
-2.61576
-2.68413
-2.74962
-2.81586
-2.88191
-2.94606
-3.00828
-3.06914
-3.12862
-3.18618
-3.24118
-3.29313
-3.34176
-3.38687
-3.42843
-2.37027
-2.41396
-2.49779
-2.5835
-2.65564
-2.72303
-2.79126
-2.85823
-2.92223
-2.98421
-3.04537
-3.10575
-3.16451
-3.22075
-3.27383
-3.32336
-3.36917
-3.41147
-2.28243
-2.34733
-2.45755
-2.55513
-2.6312
-2.70335
-2.77601
-2.84471
-2.90849
-2.97005
-3.03145
-3.09262
-3.15225
-3.20907
-3.26217
-3.31092
-3.35469
-3.39289
-2.1841
-2.285
-2.42648
-2.52694
-2.5996
-2.67435
-2.75088
-2.8209
-2.88444
-2.94627
-3.00956
-3.07408
-3.13787
-3.19923
-3.25706
-3.31073
-3.35998
-3.40562
-2.07123
-2.22969
-2.41866
-2.52526
-2.59537
-2.67159
-2.74865
-2.81607
-2.87521
-2.93274
-2.99304
-3.05564
-3.11774
-3.17686
-3.2313
-3.28002
-3.32179
-3.35609
-1.94589
-2.15511
-2.37107
-2.47865
-2.55728
-2.64512
-2.72939
-2.80054
-2.86264
-2.92462
-2.99177
-3.06312
-3.13541
-3.20606
-3.27331
-3.33582
-3.39336
-3.44872
-1.85426
-2.20711
-2.41532
-2.48315
-2.55162
-2.63798
-2.71589
-2.77619
-2.8253
-2.87605
-2.93507
-2.99885
-3.06214
-3.12177
-3.17558
-3.22181
-3.25947
-3.29197
-1.45799
-2.14627
-2.41073
-2.47496
-2.55346
-2.6544
-2.74446
-2.81314
-2.86674
-2.9243
-2.99776
-3.08216
-3.17007
-3.25705
-3.33988
-3.41484
-3.47987
-3.52695
-5.16469
-5.17616
-5.17759
-5.1783
-5.17957
-5.18106
-5.18267
-5.18443
-5.18638
-5.18852
-5.19089
-5.19349
-5.19635
-5.19947
-5.2029
-5.20665
-5.21076
-5.21528
-5.22027
-5.2258
-5.232
-5.2389
-5.24623
-5.25364
-5.26121
-5.26922
-5.27778
-5.28693
-5.29667
-5.30703
-5.31799
-5.32956
-5.34173
-5.35451
-5.36792
-5.38196
-5.39665
-5.41198
-5.42793
-5.4445
-5.46165
-5.47935
-5.49755
-5.51622
-5.53528
-5.55468
-5.57434
-5.59419
-5.61413
-5.63407
-5.6539
-5.67351
-5.6928
-5.71164
-5.72992
-5.74751
-5.76431
-5.78025
-5.79523
-5.80907
-5.82161
-5.8327
-5.84221
-5.85002
-5.85599
-5.86001
-5.86197
-5.86174
-5.85923
-5.85432
-5.84691
-5.83692
-5.82424
-5.80879
-5.79048
-5.76923
-5.74496
-5.71759
-5.68707
-5.65335
-5.61637
-5.57609
-5.53249
-5.48551
-5.43515
-5.38139
-5.32422
-5.26363
-5.19962
-5.13221
-5.06143
-4.98734
-4.90999
-4.82939
-4.7456
-4.65874
-4.56867
-4.47529
-4.37868
-4.27894
-4.17614
-4.07032
-3.96156
-3.84992
-3.73545
-3.6182
-3.49824
-3.37561
-3.25038
-3.12261
-2.99234
-2.85965
-2.72459
-2.58721
-2.44757
-2.30573
-2.16173
-2.01561
-1.86743
-1.7173
-1.56535
-1.41155
-1.25587
-1.09839
-0.939163
-0.778253
-0.615719
-0.451615
-0.285988
-0.118887
0.0496372
0.219533
0.390746
0.563226
0.736925
0.911797
1.08779
1.26487
1.44297
1.62207
1.80211
1.98307
2.16491
2.34759
2.53106
2.7153
2.90024
3.08587
3.27213
3.45898
3.64639
3.83431
4.02268
4.21148
4.40064
4.59011
4.77986
4.96981
5.15991
5.35009
5.54029
5.73046
5.92052
6.1104
6.30002
6.4893
6.67813
6.86638
7.0538
7.23998
7.4244
7.60618
7.77782
7.93427
8.09031
8.25527
8.42368
8.59423
8.78231
8.93648
-5.14668
-5.1631
-5.16362
-5.16352
-5.16434
-5.16554
-5.16692
-5.16847
-5.17019
-5.17206
-5.17407
-5.17623
-5.17856
-5.18106
-5.18376
-5.18668
-5.18983
-5.19322
-5.19686
-5.20073
-5.20481
-5.20902
-5.2135
-5.21857
-5.22438
-5.23082
-5.23781
-5.24533
-5.2534
-5.26204
-5.2713
-5.28122
-5.29183
-5.30317
-5.31526
-5.32809
-5.34166
-5.35597
-5.37101
-5.38676
-5.4032
-5.4203
-5.43802
-5.45633
-5.47516
-5.49447
-5.51417
-5.53419
-5.55444
-5.57482
-5.59523
-5.61556
-5.6357
-5.65553
-5.67494
-5.6938
-5.71199
-5.72936
-5.7457
-5.7608
-5.77454
-5.78683
-5.79754
-5.80658
-5.81381
-5.81913
-5.8224
-5.82353
-5.82239
-5.81888
-5.81289
-5.80432
-5.79307
-5.77904
-5.76216
-5.74235
-5.71953
-5.69363
-5.66458
-5.63232
-5.5968
-5.55797
-5.5158
-5.47026
-5.42133
-5.36901
-5.31328
-5.25415
-5.19163
-5.12572
-5.05643
-4.98372
-4.90758
-4.82807
-4.74518
-4.65892
-4.56947
-4.47689
-4.38116
-4.28232
-4.18042
-4.07549
-3.96758
-3.85677
-3.74309
-3.62663
-3.50744
-3.38558
-3.26112
-3.13411
-3.00461
-2.87268
-2.73837
-2.60173
-2.46283
-2.32174
-2.17851
-2.03324
-1.88599
-1.73687
-1.58585
-1.4328
-1.27773
-1.12079
-0.962069
-0.801621
-0.639506
-0.475786
-0.310526
-0.143787
0.0243771
0.193912
0.364763
0.536882
0.71022
0.884726
1.06034
1.23702
1.41471
1.59334
1.77286
1.95322
2.13437
2.31627
2.49886
2.68208
2.86588
3.05021
3.23503
3.42029
3.60596
3.79199
3.97834
4.16496
4.3518
4.53878
4.72584
4.91287
5.09978
5.28649
5.47291
5.65897
5.84456
6.02961
6.21403
6.39773
6.5806
6.76252
6.94332
7.12277
7.30064
7.47833
7.65989
7.84238
8.0176
8.18604
8.3548
8.51924
8.68785
8.82327
-5.14862
-5.16958
-5.17115
-5.17077
-5.17144
-5.17258
-5.17391
-5.17544
-5.17717
-5.17909
-5.1812
-5.18349
-5.18599
-5.18869
-5.19163
-5.19482
-5.19828
-5.20203
-5.20609
-5.21048
-5.2152
-5.22025
-5.22565
-5.23145
-5.23773
-5.2445
-5.2518
-5.25964
-5.26805
-5.27704
-5.28665
-5.2969
-5.30781
-5.3194
-5.33168
-5.34468
-5.35838
-5.37281
-5.38793
-5.40375
-5.42024
-5.43737
-5.45509
-5.47338
-5.49216
-5.51138
-5.53097
-5.55084
-5.5709
-5.59106
-5.61121
-5.63125
-5.65105
-5.67051
-5.68949
-5.70788
-5.72555
-5.74237
-5.75818
-5.77283
-5.78617
-5.79809
-5.80846
-5.81714
-5.82402
-5.82898
-5.8319
-5.83268
-5.83119
-5.82734
-5.82101
-5.81212
-5.80055
-5.78624
-5.76908
-5.74899
-5.72591
-5.69976
-5.67047
-5.63798
-5.60225
-5.56322
-5.52086
-5.47514
-5.42604
-5.37355
-5.31766
-5.25838
-5.19571
-5.12966
-5.06024
-4.98747
-4.91135
-4.8319
-4.74914
-4.66313
-4.57381
-4.48134
-4.38573
-4.28702
-4.18524
-4.08043
-3.97267
-3.862
-3.74848
-3.63217
-3.51314
-3.39145
-3.26716
-3.14032
-3.01099
-2.87924
-2.74511
-2.60866
-2.46996
-2.32905
-2.18601
-2.04089
-1.89376
-1.74468
-1.59367
-1.4407
-1.28579
-1.12905
-0.970537
-0.81031
-0.64843
-0.484956
-0.319947
-0.15346
0.0144512
0.183733
0.354333
0.5262
0.699283
0.873531
1.04889
1.22531
1.40273
1.5811
1.76038
1.94051
2.12144
2.30314
2.48554
2.66859
2.85224
3.03644
3.22115
3.40631
3.59189
3.77784
3.96413
4.15069
4.33747
4.5244
4.71142
4.89843
5.08535
5.27209
5.45857
5.64471
5.83044
6.01566
6.20032
6.38432
6.56761
6.75011
6.93179
7.11266
7.29291
7.47375
7.65753
7.8404
8.01521
8.18428
8.35268
8.51571
8.68339
8.81292
-5.1479
-5.16997
-5.17239
-5.17198
-5.17254
-5.17358
-5.17483
-5.17629
-5.17799
-5.17989
-5.18199
-5.18429
-5.18679
-5.18952
-5.19249
-5.19571
-5.1992
-5.20299
-5.20708
-5.21151
-5.21629
-5.22145
-5.22701
-5.23301
-5.23949
-5.24647
-5.254
-5.26208
-5.27076
-5.28005
-5.28997
-5.30055
-5.31181
-5.32377
-5.33643
-5.34982
-5.36392
-5.37874
-5.39427
-5.41049
-5.42737
-5.44489
-5.46299
-5.48163
-5.50076
-5.52029
-5.54016
-5.56028
-5.58056
-5.60091
-5.6212
-5.64135
-5.66122
-5.6807
-5.69966
-5.71799
-5.73555
-5.7522
-5.76782
-5.78225
-5.79537
-5.80705
-5.81716
-5.82559
-5.8322
-5.8369
-5.83955
-5.84005
-5.8383
-5.83418
-5.82761
-5.81847
-5.80668
-5.79214
-5.77479
-5.75452
-5.73128
-5.70498
-5.67556
-5.64296
-5.60713
-5.56803
-5.52561
-5.47985
-5.43073
-5.37824
-5.32238
-5.26314
-5.20053
-5.13456
-5.06525
-4.9926
-4.91661
-4.83732
-4.75477
-4.6689
-4.57983
-4.48759
-4.39221
-4.29371
-4.19215
-4.08757
-3.98004
-3.8696
-3.75631
-3.64025
-3.52147
-3.40002
-3.27598
-3.14939
-3.02032
-2.88882
-2.75494
-2.61875
-2.4803
-2.33965
-2.19685
-2.05196
-1.90503
-1.75613
-1.60526
-1.45245
-1.29773
-1.14119
-0.982867
-0.822837
-0.661154
-0.497876
-0.33306
-0.166762
0.000964207
0.170066
0.340492
0.512193
0.685117
0.859215
1.03443
1.21072
1.38802
1.56629
1.74548
1.92555
2.10644
2.28813
2.47056
2.65367
2.83744
3.0218
3.20673
3.39216
3.57807
3.7644
3.95112
4.13818
4.32553
4.5131
4.70084
4.88868
5.07653
5.26432
5.45198
5.63943
5.82658
6.01335
6.19964
6.38537
6.57043
6.75473
6.93819
7.12079
7.30261
7.48417
7.6662
7.84595
8.01968
8.18915
8.35743
8.51972
8.68831
8.81485
-5.14934
-5.17134
-5.17486
-5.17491
-5.17562
-5.17668
-5.17789
-5.17932
-5.18097
-5.18285
-5.18494
-5.18725
-5.18977
-5.19254
-5.19555
-5.19884
-5.20242
-5.20631
-5.21054
-5.21511
-5.22006
-5.22541
-5.23119
-5.23743
-5.24416
-5.25141
-5.25921
-5.26758
-5.27656
-5.28617
-5.29643
-5.30736
-5.31898
-5.33131
-5.34436
-5.35813
-5.37262
-5.38782
-5.40373
-5.42032
-5.43756
-5.45542
-5.47384
-5.49277
-5.51214
-5.5319
-5.55194
-5.5722
-5.59257
-5.61294
-5.63323
-5.6533
-5.67306
-5.69237
-5.71112
-5.72918
-5.74643
-5.76273
-5.77797
-5.79199
-5.80469
-5.81594
-5.82561
-5.83359
-5.83977
-5.84402
-5.84624
-5.84633
-5.84417
-5.83968
-5.83274
-5.82327
-5.81118
-5.79637
-5.77878
-5.75831
-5.7349
-5.70847
-5.67895
-5.64628
-5.61042
-5.57131
-5.52891
-5.4832
-5.43415
-5.38176
-5.32602
-5.26693
-5.2045
-5.13875
-5.06967
-4.99729
-4.92159
-4.8426
-4.76036
-4.67487
-4.58616
-4.49426
-4.39921
-4.30105
-4.19981
-4.09555
-3.98832
-3.8782
-3.76522
-3.64946
-3.53098
-3.40984
-3.28609
-3.1598
-3.03102
-2.8998
-2.76621
-2.63029
-2.49211
-2.35171
-2.20915
-2.06449
-1.91777
-1.76904
-1.61834
-1.4657
-1.31116
-1.15478
-0.996634
-0.836768
-0.675242
-0.512114
-0.347439
-0.181274
-0.013673
0.155311
0.325626
0.497222
0.670048
0.844054
1.01919
1.1954
1.37265
1.55088
1.73004
1.91011
2.09102
2.27273
2.45521
2.63842
2.8223
3.00682
3.19195
3.37764
3.56385
3.75054
3.93766
4.12516
4.313
4.50113
4.68948
4.87799
5.0666
5.25523
5.4438
5.63225
5.82047
6.00838
6.19587
6.38281
6.5691
6.75459
6.93919
7.12282
7.30547
7.48727
7.66833
7.84677
8.02046
8.19044
8.35887
8.52065
8.68989
8.8127
-5.15186
-5.17309
-5.17744
-5.17811
-5.17909
-5.18022
-5.18143
-5.18284
-5.18449
-5.18636
-5.18846
-5.19079
-5.19336
-5.19618
-5.19928
-5.20266
-5.20635
-5.21038
-5.21475
-5.21951
-5.22466
-5.23024
-5.23628
-5.24279
-5.24982
-5.25738
-5.26551
-5.27424
-5.28359
-5.29358
-5.30424
-5.31558
-5.32762
-5.34038
-5.35385
-5.36805
-5.38296
-5.39858
-5.41489
-5.43185
-5.44944
-5.46761
-5.48631
-5.50548
-5.52504
-5.54493
-5.56505
-5.58532
-5.60565
-5.62592
-5.64604
-5.66589
-5.68536
-5.70434
-5.7227
-5.74032
-5.75709
-5.77288
-5.78757
-5.80105
-5.81318
-5.82387
-5.83298
-5.84041
-5.84605
-5.8498
-5.85153
-5.85116
-5.84859
-5.8437
-5.83642
-5.82665
-5.8143
-5.79929
-5.78153
-5.76094
-5.73745
-5.71097
-5.68146
-5.64883
-5.61303
-5.57401
-5.53174
-5.48617
-5.4373
-5.38509
-5.32956
-5.27071
-5.20853
-5.14306
-5.07429
-5.00223
-4.92687
-4.84825
-4.76637
-4.68125
-4.59289
-4.50132
-4.40658
-4.30871
-4.20775
-4.10376
-3.99679
-3.88691
-3.77418
-3.65865
-3.5404
-3.41948
-3.29595
-3.16986
-3.04128
-2.91026
-2.77685
-2.64111
-2.50309
-2.36284
-2.22042
-2.07588
-1.92926
-1.78063
-1.63
-1.47744
-1.32299
-1.1667
-1.00863
-0.848837
-0.687384
-0.524323
-0.359711
-0.193601
-0.0260486
0.142893
0.313171
0.484733
0.657529
0.831506
1.00662
1.18281
1.36004
1.53827
1.71745
1.89754
2.07849
2.26026
2.44281
2.62609
2.81007
2.99472
3.17999
3.36585
3.55227
3.7392
3.9266
4.1144
4.30257
4.49106
4.6798
4.86875
5.05783
5.24697
5.43609
5.62513
5.81398
6.00255
6.19071
6.37834
6.56531
6.75148
6.93672
7.12095
7.30409
7.48609
7.66682
7.84486
8.01885
8.1893
8.35801
8.51955
8.68967
8.80876
-5.15554
-5.17578
-5.18073
-5.18207
-5.18339
-5.18463
-5.18587
-5.18728
-5.18892
-5.1908
-5.19293
-5.1953
-5.19792
-5.20081
-5.204
-5.20749
-5.2113
-5.21548
-5.22002
-5.22497
-5.23033
-5.23615
-5.24244
-5.24923
-5.25656
-5.26444
-5.27291
-5.28199
-5.2917
-5.30208
-5.31313
-5.32487
-5.33732
-5.35048
-5.36436
-5.37896
-5.39425
-5.41024
-5.42689
-5.44416
-5.46202
-5.48042
-5.4993
-5.5186
-5.53823
-5.55813
-5.5782
-5.59836
-5.6185
-5.63854
-5.65835
-5.67785
-5.69691
-5.71543
-5.73329
-5.75039
-5.7666
-5.78182
-5.79593
-5.80883
-5.82039
-5.83052
-5.8391
-5.84603
-5.8512
-5.85451
-5.85586
-5.85514
-5.85226
-5.84712
-5.83964
-5.82971
-5.81725
-5.80217
-5.78439
-5.76383
-5.7404
-5.71402
-5.68463
-5.65215
-5.61652
-5.57769
-5.53561
-5.49025
-5.44159
-5.38962
-5.33432
-5.27571
-5.21379
-5.14859
-5.0801
-5.00834
-4.93329
-4.85498
-4.7734
-4.68855
-4.60043
-4.50908
-4.41453
-4.31683
-4.21603
-4.11218
-4.00534
-3.89558
-3.78296
-3.66755
-3.5494
-3.42857
-3.30513
-3.17913
-3.05063
-2.91968
-2.78634
-2.65066
-2.51268
-2.37248
-2.23009
-2.08556
-1.93896
-1.79031
-1.63969
-1.48712
-1.33266
-1.17637
-1.01831
-0.85852
-0.69707
-0.534012
-0.369403
-0.203295
-0.0357443
0.133197
0.303476
0.475041
0.647841
0.821821
0.996933
1.17313
1.35037
1.52861
1.70781
1.88791
2.06889
2.2507
2.4333
2.61664
2.80069
2.98542
3.17078
3.35675
3.54329
3.73036
3.9179
4.10588
4.29423
4.48292
4.67189
4.86107
5.05042
5.23984
5.42926
5.61861
5.80779
5.9967
6.18521
6.37321
6.56055
6.74709
6.9327
7.11729
7.30074
7.48289
7.66345
7.84131
8.01555
8.18636
8.35534
8.51674
8.68793
8.80373
-5.16037
-5.17947
-5.18485
-5.18684
-5.18855
-5.18995
-5.19123
-5.19264
-5.1943
-5.1962
-5.19836
-5.20078
-5.20347
-5.20644
-5.20972
-5.21333
-5.21728
-5.22161
-5.22632
-5.23146
-5.23704
-5.24308
-5.24962
-5.25668
-5.26429
-5.27248
-5.28126
-5.29067
-5.30073
-5.31146
-5.32287
-5.33497
-5.34778
-5.3613
-5.37553
-5.39045
-5.40606
-5.42233
-5.43923
-5.45672
-5.47476
-5.49328
-5.51223
-5.53153
-5.55112
-5.57091
-5.59082
-5.61075
-5.63061
-5.65031
-5.66975
-5.68882
-5.70743
-5.72546
-5.74281
-5.75938
-5.77506
-5.78976
-5.80335
-5.81575
-5.82685
-5.83654
-5.84472
-5.85129
-5.85615
-5.85919
-5.86032
-5.85943
-5.85643
-5.85121
-5.84369
-5.83378
-5.82137
-5.80639
-5.78875
-5.76835
-5.74511
-5.71894
-5.68976
-5.65751
-5.62211
-5.5835
-5.54164
-5.49649
-5.44803
-5.39624
-5.34113
-5.28271
-5.22099
-5.156
-5.08772
-5.01617
-4.94134
-4.86322
-4.78181
-4.69709
-4.60908
-4.5178
-4.42331
-4.32564
-4.22485
-4.121
-4.01416
-3.90439
-3.79176
-3.67633
-3.55817
-3.43734
-3.31388
-3.18787
-3.05935
-2.92838
-2.79501
-2.65929
-2.52129
-2.38105
-2.23861
-2.09404
-1.94738
-1.79868
-1.648
-1.49537
-1.34087
-1.18453
-1.02643
-0.866605
-0.705122
-0.542034
-0.377397
-0.211265
-0.0436924
0.125269
0.295566
0.467147
0.639963
0.813957
0.98908
1.16529
1.34254
1.52079
1.69999
1.88011
2.0611
2.24293
2.42556
2.60893
2.79302
2.97778
3.1632
3.34922
3.53582
3.72296
3.91058
4.09864
4.28709
4.47587
4.66495
4.85425
5.04372
5.23328
5.42286
5.61236
5.8017
5.99077
6.17945
6.36762
6.55514
6.74188
6.9277
7.11249
7.29612
7.47833
7.65875
7.83648
8.0109
8.18191
8.35106
8.51227
8.68443
8.79727
-5.16634
-5.18424
-5.18988
-5.1925
-5.19461
-5.19618
-5.19753
-5.19896
-5.20063
-5.20256
-5.20476
-5.20723
-5.20998
-5.21304
-5.21641
-5.22013
-5.2242
-5.22866
-5.23354
-5.23884
-5.2446
-5.25085
-5.25761
-5.26491
-5.27277
-5.28121
-5.29027
-5.29997
-5.31032
-5.32134
-5.33305
-5.34545
-5.35855
-5.37235
-5.38684
-5.40201
-5.41784
-5.4343
-5.45136
-5.46896
-5.48706
-5.50561
-5.52453
-5.54375
-5.5632
-5.58281
-5.60247
-5.62212
-5.64166
-5.66099
-5.68004
-5.69869
-5.71686
-5.73445
-5.75135
-5.76748
-5.78273
-5.79702
-5.81023
-5.82229
-5.83308
-5.8425
-5.85047
-5.85687
-5.8616
-5.86456
-5.86566
-5.86478
-5.86183
-5.85671
-5.84932
-5.83957
-5.82738
-5.81263
-5.79524
-5.77512
-5.75216
-5.72628
-5.69739
-5.6654
-5.63024
-5.59185
-5.55018
-5.5052
-5.45687
-5.4052
-5.35019
-5.29187
-5.23026
-5.16538
-5.09722
-5.02579
-4.95106
-4.87302
-4.79164
-4.70691
-4.61886
-4.52751
-4.43293
-4.33515
-4.23425
-4.13028
-4.02333
-3.91344
-3.8007
-3.68518
-3.56692
-3.44598
-3.32244
-3.19633
-3.06773
-2.93667
-2.80322
-2.66742
-2.52933
-2.389
-2.24648
-2.10182
-1.95507
-1.80629
-1.65552
-1.50282
-1.34824
-1.19184
-1.03367
-0.873795
-0.712263
-0.54913
-0.384453
-0.218285
-0.0506811
0.118307
0.288628
0.460232
0.633068
0.80708
0.982215
1.15844
1.3357
1.51395
1.69316
1.87329
2.05429
2.23612
2.41876
2.60215
2.78625
2.97104
3.15648
3.34254
3.52916
3.71632
3.90398
4.09208
4.28058
4.46941
4.65854
4.84789
5.03741
5.22704
5.41669
5.60627
5.79568
5.98482
6.17357
6.36182
6.54942
6.73626
6.92219
7.10709
7.29079
7.473
7.65329
7.83092
8.00543
8.17652
8.34572
8.50664
8.67956
8.78965
-5.17343
-5.19012
-5.19591
-5.19908
-5.20158
-5.20335
-5.20477
-5.20623
-5.20791
-5.20986
-5.21208
-5.21458
-5.21738
-5.2205
-5.22394
-5.22773
-5.2319
-5.23647
-5.24146
-5.24689
-5.2528
-5.2592
-5.26613
-5.2736
-5.28165
-5.2903
-5.29957
-5.30948
-5.32004
-5.33129
-5.34321
-5.35583
-5.36913
-5.38312
-5.39779
-5.41311
-5.42906
-5.44562
-5.46274
-5.48036
-5.49845
-5.51694
-5.53575
-5.55483
-5.57409
-5.59346
-5.61285
-5.63219
-5.6514
-5.67039
-5.68908
-5.70737
-5.72518
-5.74242
-5.75898
-5.77479
-5.78975
-5.80378
-5.81678
-5.82866
-5.83933
-5.84867
-5.85661
-5.86302
-5.86781
-5.87087
-5.8721
-5.8714
-5.86865
-5.86376
-5.85663
-5.84718
-5.83529
-5.82089
-5.80385
-5.78408
-5.76147
-5.73593
-5.70735
-5.67565
-5.64074
-5.60255
-5.56104
-5.51615
-5.46789
-5.41624
-5.36124
-5.30291
-5.24131
-5.17646
-5.10834
-5.03694
-4.96221
-4.88411
-4.80262
-4.71774
-4.62951
-4.53797
-4.44317
-4.34517
-4.24404
-4.13985
-4.03269
-3.92261
-3.80969
-3.69399
-3.57557
-3.45449
-3.3308
-3.20456
-3.07583
-2.94464
-2.81107
-2.67515
-2.53694
-2.3965
-2.25387
-2.10911
-1.96226
-1.81337
-1.66251
-1.50971
-1.35505
-1.19858
-1.04035
-0.880407
-0.718819
-0.555637
-0.390916
-0.22471
-0.0570714
0.111946
0.282292
0.453916
0.626771
0.800801
0.975952
1.15219
1.32946
1.50772
1.68694
1.86707
2.04807
2.2299
2.41254
2.59593
2.78006
2.96486
3.15032
3.33639
3.52303
3.7102
3.89787
4.08599
4.27451
4.46337
4.65252
4.8419
5.03145
5.2211
5.41079
5.6004
5.78984
5.97901
6.1678
6.35608
6.54372
6.73061
6.9166
7.10155
7.28526
7.46741
7.64759
7.82512
7.99967
8.17076
8.33993
8.5005
8.67394
8.7815
-5.18163
-5.19715
-5.20297
-5.2066
-5.20948
-5.21144
-5.21293
-5.2144
-5.21607
-5.21801
-5.22023
-5.22273
-5.22554
-5.22866
-5.23213
-5.23595
-5.24016
-5.24477
-5.24982
-5.25532
-5.2613
-5.26779
-5.27482
-5.2824
-5.29056
-5.29933
-5.30873
-5.31877
-5.32947
-5.34085
-5.3529
-5.36563
-5.37905
-5.39314
-5.40788
-5.42326
-5.43926
-5.45582
-5.47292
-5.4905
-5.5085
-5.52687
-5.54553
-5.56441
-5.58345
-5.60257
-5.62168
-5.64073
-5.65964
-5.67833
-5.69673
-5.71474
-5.73229
-5.74928
-5.76563
-5.78125
-5.79607
-5.81
-5.82296
-5.83485
-5.84556
-5.85501
-5.86309
-5.86968
-5.87469
-5.878
-5.87951
-5.87911
-5.87668
-5.87212
-5.86534
-5.85625
-5.84475
-5.83074
-5.81411
-5.79473
-5.77251
-5.74734
-5.71909
-5.68769
-5.65303
-5.61503
-5.57364
-5.52882
-5.48055
-5.42884
-5.37374
-5.31531
-5.25363
-5.18874
-5.12059
-5.04911
-4.97425
-4.89596
-4.81424
-4.72909
-4.64054
-4.54868
-4.45355
-4.35522
-4.25378
-4.1493
-4.04187
-3.93154
-3.81839
-3.70248
-3.58387
-3.46261
-3.33875
-3.21235
-3.08346
-2.95213
-2.81841
-2.68236
-2.54403
-2.40347
-2.26072
-2.11585
-1.96889
-1.81991
-1.66895
-1.51607
-1.36133
-1.20479
-1.04649
-0.88649
-0.724849
-0.561621
-0.396859
-0.230617
-0.0629491
0.106094
0.27646
0.448099
0.620963
0.795004
0.970173
1.14642
1.3237
1.50197
1.6812
1.86133
2.04233
2.22417
2.40679
2.5902
2.77433
2.95915
3.14462
3.33069
3.51735
3.70453
3.89221
4.08034
4.26887
4.45775
4.64691
4.83631
5.02587
5.21554
5.40523
5.59486
5.78431
5.9735
6.16231
6.3506
6.53827
6.72518
6.9112
7.09615
7.27983
7.46192
7.64197
7.81942
7.99396
8.165
8.33408
8.49428
8.66801
8.7733
-5.19088
-5.20536
-5.21111
-5.21511
-5.21831
-5.22045
-5.22198
-5.22343
-5.22505
-5.22693
-5.22908
-5.23152
-5.23427
-5.23734
-5.24075
-5.24453
-5.2487
-5.25328
-5.2583
-5.26379
-5.26977
-5.27626
-5.2833
-5.2909
-5.29909
-5.3079
-5.31733
-5.32741
-5.33815
-5.34957
-5.36166
-5.37442
-5.38785
-5.40194
-5.41668
-5.43204
-5.44799
-5.46449
-5.48151
-5.49898
-5.51685
-5.53506
-5.55354
-5.57221
-5.591
-5.60986
-5.6287
-5.64748
-5.66612
-5.68458
-5.70276
-5.7206
-5.73801
-5.75488
-5.77114
-5.78671
-5.80153
-5.81552
-5.8286
-5.84066
-5.8516
-5.86132
-5.86969
-5.87662
-5.88198
-5.88567
-5.88756
-5.88755
-5.88549
-5.8813
-5.87489
-5.86619
-5.8551
-5.84149
-5.82526
-5.80628
-5.78443
-5.75961
-5.7317
-5.70059
-5.66618
-5.62838
-5.58712
-5.54235
-5.49405
-5.44223
-5.38695
-5.32832
-5.26652
-5.20152
-5.13323
-5.06154
-4.98641
-4.90781
-4.82573
-4.74017
-4.65119
-4.5589
-4.46336
-4.36463
-4.26282
-4.15801
-4.05027
-3.93968
-3.82629
-3.71016
-3.59135
-3.4699
-3.34587
-3.21931
-3.09027
-2.95879
-2.82495
-2.68877
-2.55032
-2.40965
-2.2668
-2.12183
-1.97478
-1.82572
-1.67469
-1.52175
-1.36695
-1.21034
-1.05199
-0.891943
-0.730264
-0.567003
-0.402213
-0.235948
-0.068261
0.100797
0.271174
0.44282
0.615684
0.789728
0.964905
1.14116
1.31845
1.49672
1.67595
1.85608
2.03708
2.21892
2.40155
2.58495
2.76909
2.95392
3.13939
3.32548
3.51214
3.69933
3.88702
4.07515
4.2637
4.45258
4.64175
4.83116
5.02074
5.21041
5.40011
5.58974
5.77921
5.96841
6.15722
6.34553
6.53321
6.72013
6.90614
7.09108
7.27471
7.45671
7.63665
7.814
7.9885
8.15944
8.3284
8.48822
8.66203
8.7654
-5.20117
-5.21477
-5.22041
-5.22468
-5.22813
-5.23038
-5.2319
-5.23326
-5.23476
-5.23649
-5.23848
-5.24077
-5.24335
-5.24627
-5.24953
-5.25316
-5.25719
-5.26165
-5.26655
-5.27193
-5.2778
-5.28421
-5.29116
-5.29869
-5.30682
-5.31556
-5.32494
-5.33497
-5.34567
-5.35703
-5.36906
-5.38176
-5.39513
-5.40914
-5.42379
-5.43905
-5.45489
-5.47128
-5.48816
-5.50548
-5.52319
-5.54122
-5.55949
-5.57794
-5.59649
-5.61508
-5.63365
-5.65218
-5.67061
-5.6889
-5.70698
-5.72476
-5.74214
-5.75902
-5.77531
-5.79094
-5.8059
-5.82012
-5.83349
-5.84589
-5.85722
-5.86734
-5.87615
-5.88352
-5.88934
-5.89347
-5.8958
-5.8962
-5.8945
-5.89058
-5.88443
-5.87606
-5.86531
-5.85204
-5.83612
-5.81744
-5.79588
-5.77133
-5.74369
-5.71284
-5.67871
-5.64117
-5.60014
-5.55555
-5.50735
-5.45549
-5.39997
-5.34104
-5.27901
-5.21376
-5.14512
-5.07304
-4.9975
-4.91848
-4.83594
-4.74985
-4.66035
-4.56757
-4.47157
-4.37242
-4.27023
-4.1651
-4.0571
-3.94627
-3.83267
-3.71636
-3.59738
-3.47578
-3.35161
-3.22492
-3.09577
-2.96419
-2.83024
-2.69398
-2.55544
-2.41469
-2.27177
-2.12674
-1.97964
-1.83053
-1.67946
-1.52649
-1.37166
-1.21503
-1.05665
-0.896591
-0.7349
-0.571631
-0.406837
-0.240571
-0.0728841
0.096171
0.266543
0.438183
0.611041
0.785076
0.960243
1.13649
1.31377
1.49204
1.67126
1.85139
2.03239
2.21422
2.39686
2.58026
2.7644
2.94922
3.1347
3.32079
3.50746
3.69466
3.88235
4.0705
4.25904
4.44794
4.63712
4.82653
5.01612
5.2058
5.39551
5.58515
5.77462
5.96382
6.15264
6.34095
6.52864
6.71556
6.90156
7.08647
7.27003
7.45192
7.63174
7.80899
7.98341
8.15422
8.32301
8.48245
8.65614
8.75797
-5.2125
-5.2255
-5.23099
-5.23542
-5.23903
-5.24131
-5.24271
-5.24387
-5.2451
-5.24655
-5.24825
-5.25024
-5.25254
-5.25516
-5.25815
-5.26151
-5.26529
-5.2695
-5.27418
-5.27934
-5.28502
-5.29123
-5.29801
-5.30537
-5.31334
-5.32193
-5.33117
-5.34106
-5.35162
-5.36285
-5.37475
-5.38732
-5.40054
-5.4144
-5.42889
-5.44399
-5.45967
-5.47589
-5.49261
-5.50976
-5.52729
-5.54513
-5.5632
-5.58142
-5.59971
-5.61801
-5.63631
-5.65459
-5.67285
-5.69107
-5.70915
-5.72701
-5.74451
-5.76151
-5.77785
-5.79354
-5.8087
-5.82329
-5.83712
-5.85004
-5.8619
-5.87257
-5.88193
-5.88984
-5.89616
-5.90075
-5.90349
-5.90422
-5.9027
-5.89869
-5.89241
-5.88409
-5.87344
-5.86024
-5.84435
-5.82568
-5.80414
-5.77962
-5.75206
-5.72139
-5.68755
-5.65046
-5.61001
-5.56609
-5.51856
-5.46716
-5.41158
-5.3522
-5.2896
-5.22384
-5.1547
-5.08214
-5.00612
-4.92662
-4.84354
-4.75677
-4.6666
-4.57333
-4.47691
-4.37739
-4.2749
-4.16955
-4.06138
-3.95042
-3.83673
-3.72032
-3.60126
-3.47959
-3.35537
-3.22863
-3.09943
-2.96782
-2.83384
-2.69755
-2.559
-2.41823
-2.2753
-2.13027
-1.98317
-1.83406
-1.68301
-1.53005
-1.37524
-1.21862
-1.06027
-0.900242
-0.738579
-0.575339
-0.410574
-0.244338
-0.0766819
0.0923431
0.262686
0.434298
0.60713
0.781139
0.956278
1.1325
1.30976
1.48801
1.66721
1.84732
2.02831
2.21014
2.39277
2.57617
2.7603
2.94512
3.1306
3.3167
3.50337
3.69057
3.87827
4.06642
4.25498
4.44387
4.63306
4.82249
5.01208
5.20177
5.39149
5.58113
5.77061
5.95982
6.14864
6.33696
6.52465
6.71157
6.89755
7.08241
7.2659
7.44768
7.62738
7.8045
7.97882
8.14946
8.31803
8.47707
8.65044
8.75116
-5.22501
-5.23779
-5.24314
-5.24763
-5.25125
-5.25338
-5.25447
-5.25522
-5.25599
-5.25695
-5.25817
-5.25967
-5.2615
-5.26368
-5.26623
-5.26919
-5.27258
-5.27643
-5.28077
-5.28562
-5.291
-5.29693
-5.30344
-5.31055
-5.31827
-5.32663
-5.33565
-5.34534
-5.3557
-5.36674
-5.37844
-5.3908
-5.40381
-5.41746
-5.43172
-5.44659
-5.46206
-5.47808
-5.4946
-5.51155
-5.52888
-5.54652
-5.56438
-5.58238
-5.60043
-5.6185
-5.63655
-5.65459
-5.67276
-5.69106
-5.70933
-5.72741
-5.74511
-5.76215
-5.77811
-5.79315
-5.80796
-5.82258
-5.83661
-5.84979
-5.86194
-5.87292
-5.88258
-5.89078
-5.89737
-5.9022
-5.90515
-5.90608
-5.90483
-5.90126
-5.89533
-5.88698
-5.87608
-5.86254
-5.84627
-5.8272
-5.80526
-5.78038
-5.75252
-5.72165
-5.68775
-5.65075
-5.61054
-5.56699
-5.51996
-5.46929
-5.41482
-5.35646
-5.29432
-5.22856
-5.15926
-5.08648
-5.01023
-4.93049
-4.84704
-4.75956
-4.66865
-4.57497
-4.47824
-4.37841
-4.27574
-4.17036
-4.06222
-3.95133
-3.8377
-3.72137
-3.60238
-3.48078
-3.35663
-3.22996
-3.10083
-2.96929
-2.83538
-2.69916
-2.56068
-2.41999
-2.27713
-2.13217
-1.98515
-1.83612
-1.68514
-1.53226
-1.37753
-1.221
-1.06273
-0.902774
-0.741188
-0.578023
-0.413331
-0.247164
-0.0795745
0.0893874
0.259671
0.431227
0.604008
0.777967
0.95306
1.12924
1.30646
1.48467
1.66384
1.84393
2.0249
2.20671
2.38932
2.57271
2.75683
2.94165
3.12713
3.31322
3.4999
3.68711
3.87481
4.06297
4.25153
4.44043
4.62963
4.81907
5.00867
5.19838
5.3881
5.57776
5.76725
5.95647
6.14531
6.33364
6.52133
6.70825
6.89421
7.07902
7.26243
7.44411
7.62367
7.80066
7.97484
8.14528
8.31358
8.47223
8.64506
8.74509
-5.23948
-5.25266
-5.25785
-5.26224
-5.26562
-5.26727
-5.2677
-5.26768
-5.26765
-5.26782
-5.26826
-5.26903
-5.27016
-5.27169
-5.27364
-5.27604
-5.27891
-5.28227
-5.28617
-5.2906
-5.2956
-5.30117
-5.30733
-5.31411
-5.3215
-5.32955
-5.33827
-5.34769
-5.35778
-5.36853
-5.37995
-5.39203
-5.40474
-5.41806
-5.43199
-5.44653
-5.46167
-5.47735
-5.49353
-5.51014
-5.52715
-5.54448
-5.56204
-5.57973
-5.59742
-5.6151
-5.63247
-5.6494
-5.66658
-5.68436
-5.70236
-5.72028
-5.73795
-5.75516
-5.77175
-5.78772
-5.80309
-5.81775
-5.83153
-5.84433
-5.85604
-5.86654
-5.87569
-5.88336
-5.88943
-5.89376
-5.89625
-5.89679
-5.89533
-5.89187
-5.88601
-5.87733
-5.86593
-5.85184
-5.83503
-5.81544
-5.79301
-5.76768
-5.7394
-5.70815
-5.67389
-5.63657
-5.59595
-5.55214
-5.50511
-5.45491
-5.40165
-5.34491
-5.28402
-5.21904
-5.15033
-5.07805
-5.00228