/*--------------------------------*- C++ -*----------------------------------*\
| =========                 |                                                 |
| \\      /  F ield         | OpenFOAM: The Open Source CFD Toolbox           |
|  \\    /   O peration     | Version:  2112                                  |
|   \\  /    A nd           | Website:  www.openfoam.com                      |
|    \\/     M anipulation  |                                                 |
\*---------------------------------------------------------------------------*/
FoamFile
{
    version     2.0;
    format      ascii;
    arch        "LSB;label=32;scalar=64";
    class       surfaceScalarField;
    location    "0.3";
    object      phi;
}
// * * * * * * * * * * * * * * * * * * * * * * * * * * * * * * * * * * * * * //

dimensions      [0 3 -1 0 0 0 0];

oriented        oriented;

internalField   nonuniform List<scalar> 
24170
(
3.10673e-06
8.16721e-08
3.01241e-06
9.43196e-08
2.92788e-06
8.45372e-08
2.84863e-06
7.92447e-08
2.77368e-06
7.49529e-08
2.70342e-06
7.02596e-08
2.63809e-06
6.53329e-08
2.5776e-06
6.04876e-08
2.52163e-06
5.59655e-08
2.47004e-06
5.15891e-08
2.42247e-06
4.75729e-08
2.37888e-06
4.35919e-08
2.33901e-06
3.98735e-08
2.30257e-06
3.64401e-08
2.27022e-06
3.23454e-08
2.23985e-06
3.03741e-08
2.21754e-06
2.23066e-08
2.36998e-08
2.19384e-06
3.43441e-06
6.45063e-08
3.44e-06
8.87352e-08
3.43912e-06
8.54168e-08
3.43451e-06
8.3851e-08
3.42639e-06
8.30791e-08
3.41559e-06
8.10524e-08
3.40295e-06
7.79793e-08
3.38904e-06
7.43981e-08
3.37422e-06
7.07809e-08
3.35885e-06
6.69632e-08
3.34313e-06
6.32938e-08
3.32739e-06
5.93272e-08
3.31165e-06
5.56108e-08
3.29643e-06
5.16684e-08
3.28128e-06
4.74941e-08
3.26782e-06
4.38302e-08
3.25277e-06
3.73542e-08
3.56461e-08
3.24083e-06
3.67379e-06
5.32368e-08
3.68276e-06
7.97575e-08
3.68737e-06
8.08155e-08
3.69051e-06
8.07062e-08
3.69265e-06
8.09382e-08
3.69385e-06
7.98528e-08
3.69429e-06
7.75386e-08
3.69409e-06
7.45965e-08
3.69339e-06
7.14857e-08
3.6922e-06
6.81556e-08
3.69069e-06
6.48032e-08
3.68879e-06
6.1219e-08
3.68676e-06
5.76446e-08
3.68451e-06
5.3916e-08
3.68213e-06
4.98771e-08
3.68004e-06
4.59159e-08
3.67653e-06
4.08689e-08
3.65972e-08
3.67558e-06
3.934e-06
4.46236e-08
3.94228e-06
7.14743e-08
3.94737e-06
7.57277e-08
3.95109e-06
7.69923e-08
3.95429e-06
7.77381e-08
3.95707e-06
7.7072e-08
3.95946e-06
7.5142e-08
3.96153e-06
7.25308e-08
3.96336e-06
6.96528e-08
3.96498e-06
6.65422e-08
3.96646e-06
6.33191e-08
3.96778e-06
5.9901e-08
3.96904e-06
5.63844e-08
3.97021e-06
5.274e-08
3.97131e-06
4.87824e-08
3.97243e-06
4.47942e-08
3.97317e-06
4.01257e-08
3.53275e-08
3.97444e-06
4.21429e-06
3.74586e-08
4.22185e-06
6.39153e-08
4.22699e-06
7.05896e-08
4.23089e-06
7.3092e-08
4.23437e-06
7.42582e-08
4.23756e-06
7.38807e-08
4.24046e-06
7.22399e-08
4.24312e-06
6.98774e-08
4.2456e-06
6.71691e-08
4.24794e-06
6.41993e-08
4.2502e-06
6.10638e-08
4.25236e-06
5.77392e-08
4.25447e-06
5.42756e-08
4.25654e-06
5.06712e-08
4.25851e-06
4.68073e-08
4.26049e-06
4.28214e-08
4.26222e-06
3.8389e-08
3.37917e-08
4.26376e-06
4.51534e-06
3.12032e-08
4.52226e-06
5.69965e-08
4.52736e-06
6.54905e-08
4.53144e-06
6.90154e-08
4.53512e-06
7.05711e-08
4.53855e-06
7.04533e-08
4.54172e-06
6.90705e-08
4.54467e-06
6.69284e-08
4.54746e-06
6.43753e-08
4.55014e-06
6.1527e-08
4.55272e-06
5.84764e-08
4.55523e-06
5.52324e-08
4.55767e-06
5.18325e-08
4.56006e-06
4.82825e-08
4.56235e-06
4.45195e-08
4.56456e-06
4.0607e-08
4.56653e-06
3.64236e-08
3.21203e-08
4.5682e-06
4.83825e-06
2.56708e-08
4.84461e-06
5.06339e-08
4.84969e-06
6.04113e-08
4.85396e-06
6.47519e-08
4.85785e-06
6.66756e-08
4.86149e-06
6.68147e-08
4.86488e-06
6.56778e-08
4.86807e-06
6.37457e-08
4.87109e-06
6.1348e-08
4.874e-06
5.86225e-08
4.87681e-06
5.56669e-08
4.87953e-06
5.25115e-08
4.88217e-06
4.91937e-08
4.88473e-06
4.57252e-08
4.88716e-06
4.20825e-08
4.88946e-06
3.83048e-08
4.89152e-06
3.43691e-08
3.03652e-08
4.89327e-06
5.18437e-06
2.08835e-08
5.19029e-06
4.47124e-08
5.1954e-06
5.5304e-08
5.19986e-06
6.02898e-08
5.20397e-06
6.25599e-08
5.20783e-06
6.29581e-08
5.21145e-06
6.20624e-08
5.21485e-06
6.03381e-08
5.2181e-06
5.81023e-08
5.22121e-06
5.55095e-08
5.22422e-06
5.26645e-08
5.22711e-06
4.96143e-08
5.22991e-06
4.64007e-08
5.23259e-06
4.30431e-08
5.23512e-06
3.9546e-08
5.23749e-06
3.59431e-08
5.2396e-06
3.22566e-08
2.85562e-08
5.24141e-06
5.55531e-06
1.69074e-08
5.56088e-06
3.91474e-08
5.56605e-06
5.01334e-08
5.57072e-06
5.56183e-08
5.57507e-06
5.82122e-08
5.57916e-06
5.88699e-08
5.58301e-06
5.82135e-08
5.58664e-06
5.66988e-08
5.59011e-06
5.46345e-08
5.59343e-06
5.21884e-08
5.59663e-06
4.94728e-08
5.59969e-06
4.65481e-08
5.60263e-06
4.34627e-08
5.60543e-06
4.02449e-08
5.60806e-06
3.6918e-08
5.61048e-06
3.35174e-08
5.61265e-06
3.00856e-08
2.66853e-08
5.61452e-06
5.95295e-06
1.37372e-08
5.95819e-06
3.39061e-08
5.96341e-06
4.49118e-08
5.96828e-06
5.07474e-08
5.97286e-06
5.36276e-08
5.9772e-06
5.45378e-08
5.98129e-06
5.4118e-08
5.98517e-06
5.28163e-08
5.98887e-06
5.09346e-08
5.99241e-06
4.86511e-08
5.9958e-06
4.60849e-08
5.99904e-06
4.3308e-08
6.00213e-06
4.03753e-08
6.00505e-06
3.73244e-08
6.00778e-06
3.41902e-08
6.01028e-06
3.10122e-08
6.01253e-06
2.78401e-08
2.47316e-08
6.01448e-06
6.37933e-06
1.12212e-08
6.38419e-06
2.90442e-08
6.38939e-06
3.97088e-08
6.39443e-06
4.57105e-08
6.39924e-06
4.88137e-08
6.40383e-06
4.99553e-08
6.40818e-06
4.97649e-08
6.41232e-06
4.8678e-08
6.41626e-06
4.69899e-08
6.42003e-06
4.48854e-08
6.42362e-06
4.24893e-08
6.42705e-06
3.98829e-08
6.4303e-06
3.71271e-08
6.43335e-06
3.42676e-08
6.4362e-06
3.13465e-08
6.4388e-06
2.84064e-08
6.44115e-06
2.54977e-08
2.26728e-08
6.4432e-06
5.7426e-06
9.45785e-09
5.74636e-06
2.52812e-08
5.75068e-06
3.53857e-08
5.75503e-06
4.13656e-08
5.75926e-06
4.45861e-08
5.76332e-06
4.58924e-08
5.7672e-06
4.58831e-08
5.7709e-06
4.49762e-08
5.77443e-06
4.34585e-08
5.7778e-06
4.15172e-08
5.78101e-06
3.92804e-08
5.78406e-06
3.68351e-08
5.78694e-06
3.42467e-08
5.78964e-06
3.1566e-08
5.79215e-06
2.88386e-08
5.79445e-06
2.6109e-08
5.79652e-06
2.34246e-08
2.08355e-08
5.79836e-06
6.99984e-06
7.77032e-09
7.00378e-06
2.13455e-08
7.00858e-06
3.05829e-08
7.01361e-06
3.6341e-08
7.0186e-06
3.95904e-08
7.02346e-06
4.10341e-08
7.02814e-06
4.1208e-08
7.03261e-06
4.04998e-08
7.03689e-06
3.91818e-08
7.04097e-06
3.7439e-08
7.04485e-06
3.54009e-08
7.04852e-06
3.31586e-08
7.05199e-06
3.0781e-08
7.05523e-06
2.83227e-08
7.05824e-06
2.58313e-08
7.061e-06
2.33514e-08
7.06349e-06
2.09268e-08
1.86024e-08
7.06573e-06
8.53244e-06
6.17765e-09
8.53646e-06
1.7328e-08
8.54167e-06
2.53699e-08
8.54737e-06
3.06428e-08
8.55319e-06
3.37694e-08
8.55894e-06
3.52789e-08
8.56454e-06
3.56128e-08
8.56993e-06
3.51098e-08
8.57509e-06
3.4017e-08
8.58002e-06
3.25101e-08
8.58471e-06
3.07153e-08
8.58914e-06
2.87247e-08
8.59332e-06
2.66085e-08
8.59722e-06
2.44227e-08
8.60083e-06
2.22152e-08
8.60415e-06
2.00287e-08
8.60718e-06
1.79023e-08
1.58741e-08
8.60991e-06
1.04007e-05
4.67741e-09
1.04047e-05
1.33045e-08
1.04103e-05
1.98369e-08
1.04166e-05
2.43206e-08
1.04233e-05
2.71076e-08
1.043e-05
2.8553e-08
1.04366e-05
2.89826e-08
1.04431e-05
2.8666e-08
1.04493e-05
2.78109e-08
1.04552e-05
2.65725e-08
1.04609e-05
2.50665e-08
1.04662e-05
2.338e-08
1.04712e-05
2.15808e-08
1.04759e-05
1.97229e-08
1.04803e-05
1.78515e-08
1.04843e-05
1.60055e-08
1.0488e-05
1.42188e-08
1.25222e-08
1.04913e-05
1.26782e-05
3.24299e-09
1.26822e-05
9.29929e-09
1.2688e-05
1.40551e-08
1.26949e-05
1.74413e-08
1.27024e-05
1.96279e-08
1.27101e-05
2.08222e-08
1.27179e-05
2.12322e-08
1.27255e-05
2.1045e-08
1.27329e-05
2.04145e-08
1.274e-05
1.94621e-08
1.27468e-05
1.82826e-08
1.27532e-05
1.695e-08
1.27593e-05
1.55232e-08
1.27649e-05
1.40497e-08
1.27702e-05
1.25687e-08
1.27751e-05
1.1113e-08
1.27796e-05
9.71013e-09
8.38419e-09
1.27837e-05
1.54546e-05
1.82058e-09
1.54587e-05
5.24851e-09
1.54647e-05
8.00462e-09
1.54721e-05
1.00125e-08
1.54804e-05
1.13331e-08
1.54892e-05
1.20601e-08
1.54981e-05
1.2297e-08
1.5507e-05
1.21457e-08
1.55157e-05
1.16963e-08
1.55242e-05
1.10245e-08
1.55323e-05
1.01929e-08
1.554e-05
9.25293e-09
1.55472e-05
8.24693e-09
1.55541e-05
7.21002e-09
1.55605e-05
6.17139e-09
1.55664e-05
5.15531e-09
1.5572e-05
4.18191e-09
3.2686e-09
1.55771e-05
1.88391e-05
3.16894e-10
1.88434e-05
9.42259e-10
1.885e-05
1.46177e-09
1.88582e-05
1.83957e-09
1.88674e-05
2.06213e-09
1.88774e-05
2.12835e-09
1.88876e-05
2.04808e-09
1.88979e-05
1.83844e-09
1.89081e-05
1.51971e-09
1.8918e-05
1.11322e-09
1.89276e-05
6.40219e-10
1.89367e-05
1.21081e-10
1.89454e-05
-4.25059e-10
1.89536e-05
-9.80883e-10
1.89613e-05
-1.5309e-09
1.89685e-05
-2.06158e-09
1.89752e-05
-2.56126e-09
-3.01971e-09
1.89815e-05
2.29651e-05
-1.45419e-09
2.29702e-05
-4.13379e-09
2.29779e-05
-6.22391e-09
2.29874e-05
-7.7276e-09
2.29983e-05
-8.76364e-09
2.30098e-05
-9.45273e-09
2.30218e-05
-9.89593e-09
2.30338e-05
-1.01745e-08
2.30457e-05
-1.03492e-08
2.30572e-05
-1.04614e-08
2.30684e-05
-1.05373e-08
2.30791e-05
-1.05922e-08
2.30893e-05
-1.06333e-08
2.3099e-05
-1.06632e-08
2.31082e-05
-1.06813e-08
2.31168e-05
-1.06852e-08
2.31249e-05
-1.06716e-08
-1.06366e-08
2.31325e-05
1.68122e-05
-2.98841e-09
1.68165e-05
-8.35124e-09
1.68226e-05
-1.23794e-08
1.683e-05
-1.51446e-08
1.68382e-05
-1.69349e-08
1.68468e-05
-1.80099e-08
1.68554e-05
-1.85764e-08
1.68641e-05
-1.87971e-08
1.68725e-05
-1.87926e-08
1.68807e-05
-1.86466e-08
1.68886e-05
-1.84141e-08
1.68961e-05
-1.81302e-08
1.69033e-05
-1.78167e-08
1.69101e-05
-1.74862e-08
1.69166e-05
-1.71455e-08
1.69227e-05
-1.67976e-08
1.69285e-05
-1.64433e-08
-1.60814e-08
1.69339e-05
1.46363e-05
-4.72112e-09
1.46408e-05
-1.28328e-08
1.46469e-05
-1.8536e-08
1.4654e-05
-2.22026e-08
1.46615e-05
-2.44263e-08
1.46691e-05
-2.56421e-08
1.46767e-05
-2.61625e-08
1.46841e-05
-2.62228e-08
1.46913e-05
-2.59904e-08
1.46983e-05
-2.55776e-08
1.47049e-05
-2.50568e-08
1.47112e-05
-2.44741e-08
1.47173e-05
-2.38585e-08
1.4723e-05
-2.32278e-08
1.47285e-05
-2.25927e-08
1.47336e-05
-2.19588e-08
1.47385e-05
-2.13289e-08
-2.07028e-08
1.47431e-05
1.27423e-05
-6.8463e-09
1.27472e-05
-1.77981e-08
1.27535e-05
-2.48017e-08
1.27602e-05
-2.89482e-08
1.27671e-05
-3.12921e-08
1.27739e-05
-3.24426e-08
1.27805e-05
-3.27901e-08
1.27869e-05
-3.26216e-08
1.27931e-05
-3.21359e-08
1.2799e-05
-3.1461e-08
1.28046e-05
-3.06759e-08
1.28099e-05
-2.98306e-08
1.2815e-05
-2.89564e-08
1.28199e-05
-2.80734e-08
1.28245e-05
-2.71932e-08
1.28288e-05
-2.63233e-08
1.2833e-05
-2.54667e-08
-2.46238e-08
1.28369e-05
1.10936e-05
-9.55887e-09
1.10992e-05
-2.33469e-08
1.11055e-05
-3.11369e-08
1.11119e-05
-3.53185e-08
1.11181e-05
-3.75246e-08
1.11242e-05
-3.847e-08
1.11299e-05
-3.85679e-08
1.11354e-05
-3.81354e-08
1.11407e-05
-3.73904e-08
1.11457e-05
-3.64672e-08
1.11505e-05
-3.54433e-08
1.1155e-05
-3.43677e-08
1.11593e-05
-3.32708e-08
1.11634e-05
-3.21731e-08
1.11673e-05
-3.10862e-08
1.1171e-05
-3.00185e-08
1.11745e-05
-2.89729e-08
-2.79492e-08
1.11778e-05
9.6587e-06
-1.30413e-08
9.66486e-06
-2.95073e-08
9.67117e-06
-3.74471e-08
9.67709e-06
-4.12406e-08
9.68269e-06
-4.31273e-08
9.68801e-06
-4.37899e-08
9.69304e-06
-4.35986e-08
9.69779e-06
-4.2886e-08
9.70229e-06
-4.18857e-08
9.70655e-06
-4.07313e-08
9.7106e-06
-3.94927e-08
9.71445e-06
-3.82143e-08
9.7181e-06
-3.69234e-08
9.72157e-06
-3.56406e-08
9.72486e-06
-3.43767e-08
9.72798e-06
-3.31404e-08
9.73094e-06
-3.19349e-08
-3.07588e-08
9.73375e-06
8.40979e-06
-1.74769e-08
8.41658e-06
-3.63011e-08
8.42278e-06
-4.36447e-08
8.4282e-06
-4.66651e-08
8.4332e-06
-4.81218e-08
8.43788e-06
-4.84695e-08
8.44225e-06
-4.79708e-08
8.44633e-06
-4.69702e-08
8.45017e-06
-4.57218e-08
8.45379e-06
-4.43523e-08
8.45722e-06
-4.292e-08
8.46046e-06
-4.14603e-08
8.46354e-06
-3.99977e-08
8.46645e-06
-3.85521e-08
8.46921e-06
-3.71333e-08
8.47182e-06
-3.57505e-08
8.47429e-06
-3.44063e-08
-3.31014e-08
8.47663e-06
7.32296e-06
-2.3157e-08
7.33042e-06
-4.37566e-08
7.33643e-06
-4.96563e-08
7.34133e-06
-5.15645e-08
7.34575e-06
-5.25369e-08
7.34984e-06
-5.25608e-08
7.35361e-06
-5.17422e-08
7.35708e-06
-5.04459e-08
7.36032e-06
-4.89539e-08
7.36334e-06
-4.73803e-08
7.36619e-06
-4.57677e-08
7.36887e-06
-4.41403e-08
7.37139e-06
-4.25195e-08
7.37377e-06
-4.09254e-08
7.376e-06
-3.93652e-08
7.3781e-06
-3.78527e-08
7.38008e-06
-3.63817e-08
-3.49638e-08
7.38194e-06
6.37741e-06
-3.05007e-08
6.3857e-06
-5.20427e-08
6.39142e-06
-5.5385e-08
6.3958e-06
-5.59365e-08
6.39966e-06
-5.63997e-08
6.40316e-06
-5.60596e-08
6.4063e-06
-5.48811e-08
6.40912e-06
-5.3267e-08
6.41168e-06
-5.15196e-08
6.41404e-06
-4.97333e-08
6.4162e-06
-4.79327e-08
6.4182e-06
-4.61336e-08
6.42003e-06
-4.43498e-08
6.42171e-06
-4.26077e-08
6.42325e-06
-4.09027e-08
6.42466e-06
-3.92685e-08
6.42596e-06
-3.76778e-08
-3.61506e-08
6.42714e-06
5.55544e-06
-4.04779e-08
5.5647e-06
-6.12979e-08
5.56987e-06
-6.0556e-08
5.57366e-06
-5.97245e-08
5.57678e-06
-5.95188e-08
5.57929e-06
-5.8575e-08
5.58128e-06
-5.68693e-08
5.58284e-06
-5.48311e-08
5.58406e-06
-5.27318e-08
5.58497e-06
-5.06447e-08
5.58561e-06
-4.85729e-08
5.58601e-06
-4.6538e-08
5.58619e-06
-4.4533e-08
5.58619e-06
-4.26016e-08
5.58599e-06
-4.07092e-08
5.58566e-06
-3.89299e-08
5.58516e-06
-3.71818e-08
-3.56182e-08
5.58463e-06
4.84336e-06
-5.62283e-08
4.85122e-06
-6.91601e-08
4.85368e-06
-6.30116e-08
4.85395e-06
-5.99959e-08
4.8522e-06
-5.77751e-08
4.84879e-06
-5.51634e-08
4.84415e-06
-5.22326e-08
4.83861e-06
-4.92817e-08
4.83234e-06
-4.64654e-08
4.82551e-06
-4.38108e-08
4.81823e-06
-4.12931e-08
4.81062e-06
-3.89279e-08
4.80276e-06
-3.66741e-08
4.79473e-06
-3.45771e-08
4.78659e-06
-3.25702e-08
4.7784e-06
-3.07385e-08
4.7702e-06
-2.89841e-08
-2.74416e-08
4.76203e-06
4.14645e-06
4.07729e-06
4.01428e-06
3.95428e-06
3.89651e-06
3.84134e-06
3.78911e-06
3.73983e-06
3.69336e-06
3.64955e-06
3.60826e-06
3.56933e-06
3.53266e-06
3.49808e-06
3.46551e-06
3.43477e-06
3.40579e-06
3.37834e-06
-1.04528e-08
1.04528e-08
-2.87009e-08
1.82482e-08
-4.77711e-08
1.90702e-08
-6.42411e-08
1.647e-08
-7.63505e-08
1.21094e-08
-8.29257e-08
6.57515e-09
-8.29076e-08
-1.80434e-11
-7.64101e-08
-6.49752e-09
-6.39327e-08
-1.24774e-08
-4.69123e-08
-1.70204e-08
-2.73501e-08
-1.95622e-08
-7.34485e-09
-2.00052e-08
1.11507e-08
-1.84955e-08
2.65044e-08
-1.53538e-08
3.75117e-08
-1.10073e-08
4.33432e-08
-5.83148e-09
4.35123e-08
-1.69056e-10
3.84679e-08
5.04435e-09
2.87146e-08
9.75337e-09
1.57362e-08
1.29784e-08
1.94597e-09
1.37902e-08
-1.05834e-08
1.25294e-08
-2.10562e-08
1.04728e-08
-2.90569e-08
8.00072e-09
-3.36116e-08
4.55463e-09
-3.31711e-08
-4.40486e-10
-2.6757e-08
-6.41407e-09
-1.37094e-08
-1.30476e-08
5.45665e-09
-1.9166e-08
2.84173e-08
-2.29607e-08
5.01768e-08
-2.17595e-08
6.77558e-08
-1.7579e-08
7.87508e-08
-1.09949e-08
8.19257e-08
-3.17496e-09
9.76851e-08
-1.57594e-08
1.21939e-07
-2.42535e-08
1.19145e-07
2.79362e-09
1.01699e-07
1.74462e-08
6.09216e-08
4.07773e-08
-4.20274e-08
1.02949e-07
-2.00397e-07
1.58369e-07
-3.64398e-07
1.64001e-07
-5.21811e-07
1.57413e-07
-6.6946e-07
1.4765e-07
-8.05511e-07
1.36051e-07
-9.29794e-07
1.24283e-07
-1.04271e-06
1.12916e-07
-1.14518e-06
1.02471e-07
-1.23816e-06
9.29815e-08
-1.32279e-06
8.46315e-08
-1.40025e-06
7.74545e-08
-1.47156e-06
7.13133e-08
-1.53767e-06
6.61081e-08
-1.59937e-06
6.17038e-08
-1.65735e-06
5.79806e-08
-1.71218e-06
5.48289e-08
-1.76433e-06
5.21502e-08
-1.8142e-06
4.98632e-08
-1.86209e-06
4.78957e-08
-1.9083e-06
4.62098e-08
-1.95309e-06
4.47893e-08
-1.99666e-06
4.35652e-08
-2.03913e-06
4.24788e-08
-2.08063e-06
4.14971e-08
-2.12121e-06
4.05807e-08
-2.16092e-06
3.97122e-08
-2.19979e-06
3.8867e-08
-2.23783e-06
3.80341e-08
-2.27502e-06
3.71986e-08
-2.31138e-06
3.63537e-08
-2.34687e-06
3.54912e-08
-2.38148e-06
3.46076e-08
-2.41518e-06
3.36988e-08
-2.44794e-06
3.27639e-08
-2.47974e-06
3.1802e-08
-2.51056e-06
3.08138e-08
-2.54036e-06
2.98002e-08
-2.56912e-06
2.87628e-08
-2.59682e-06
2.77032e-08
-2.62345e-06
2.66236e-08
-2.64897e-06
2.55256e-08
-2.67338e-06
2.4411e-08
-2.69666e-06
2.32813e-08
-2.7188e-06
2.21378e-08
-2.73978e-06
2.09814e-08
-2.7596e-06
1.9813e-08
-2.77823e-06
1.86333e-08
-2.79567e-06
1.74423e-08
-2.81191e-06
1.62403e-08
-2.82694e-06
1.50273e-08
-2.84074e-06
1.38027e-08
-2.85331e-06
1.25662e-08
-2.86462e-06
1.13169e-08
-2.87468e-06
1.00539e-08
-2.88345e-06
8.77582e-09
-2.89094e-06
7.4815e-09
-2.8971e-06
6.16895e-09
-2.90194e-06
4.83481e-09
-2.90542e-06
3.47715e-09
-2.90752e-06
2.09923e-09
-2.90817e-06
6.53371e-10
-2.90744e-06
-7.266e-10
-2.90543e-06
-2.01449e-09
-2.90209e-06
-3.33319e-09
-2.89743e-06
-4.66086e-09
-2.89144e-06
-5.99117e-09
-2.88412e-06
-7.32564e-09
-2.87545e-06
-8.66243e-09
-2.86545e-06
-1.00011e-08
-2.85411e-06
-1.13402e-08
-2.84144e-06
-1.26785e-08
-2.82742e-06
-1.40147e-08
-2.81207e-06
-1.53475e-08
-2.7954e-06
-1.66754e-08
-2.7774e-06
-1.79971e-08
-2.75809e-06
-1.93111e-08
-2.73747e-06
-2.06161e-08
-2.71556e-06
-2.19106e-08
-2.69237e-06
-2.31932e-08
-2.66791e-06
-2.44626e-08
-2.64219e-06
-2.57174e-08
-2.61523e-06
-2.69561e-08
-2.58706e-06
-2.81772e-08
-2.55768e-06
-2.93792e-08
-2.52712e-06
-3.05604e-08
-2.4954e-06
-3.17185e-08
-2.46255e-06
-3.28504e-08
-2.4286e-06
-3.39462e-08
-2.3936e-06
-3.50037e-08
-2.35759e-06
-3.60125e-08
-2.32065e-06
-3.69375e-08
-2.28277e-06
-3.78762e-08
-2.24386e-06
-3.89099e-08
-2.20396e-06
-3.98975e-08
-2.16316e-06
-4.08028e-08
-2.12148e-06
-4.1681e-08
-2.07896e-06
-4.25223e-08
-2.03563e-06
-4.33296e-08
-1.99153e-06
-4.40995e-08
-1.9467e-06
-4.4834e-08
-1.90116e-06
-4.55335e-08
-1.85496e-06
-4.61979e-08
-1.80814e-06
-4.68275e-08
-1.76071e-06
-4.74228e-08
-1.71273e-06
-4.79842e-08
-1.66422e-06
-4.85127e-08
-1.61521e-06
-4.90094e-08
-1.56573e-06
-4.94754e-08
-1.51582e-06
-4.99113e-08
-1.4655e-06
-5.03173e-08
-1.41481e-06
-5.06926e-08
-1.36377e-06
-5.10358e-08
-1.31243e-06
-5.13452e-08
-1.26081e-06
-5.16206e-08
-1.20894e-06
-5.1864e-08
-1.15687e-06
-5.20791e-08
-1.1046e-06
-5.22706e-08
-1.05215e-06
-5.24438e-08
-9.99547e-07
-5.2604e-08
-9.46791e-07
-5.27562e-08
-8.93887e-07
-5.29045e-08
-8.40835e-07
-5.30515e-08
-7.87638e-07
-5.31972e-08
-7.34298e-07
-5.33397e-08
-6.8082e-07
-5.34778e-08
-6.27208e-07
-5.36122e-08
-5.73463e-07
-5.37454e-08
-5.19582e-07
-5.3881e-08
-4.6556e-07
-5.40216e-08
-4.11394e-07
-5.41667e-08
-3.57084e-07
-5.431e-08
-3.02651e-07
-5.44325e-08
-2.48152e-07
-5.44986e-08
-1.9369e-07
-5.4462e-08
-1.39551e-07
-5.41399e-08
-8.58064e-08
-5.37441e-08
-3.42392e-08
-5.15672e-08
1.7136e-08
-5.13752e-08
5.93286e-08
-4.21926e-08
-2.6761e-08
8.60896e-08
-1.35708e-09
1.18098e-08
-7.65568e-09
2.45468e-08
-1.47581e-08
2.61725e-08
-1.88826e-08
2.05945e-08
-1.80419e-08
1.12687e-08
-1.10114e-08
-4.55409e-10
2.8094e-09
-1.38388e-08
2.30368e-08
-2.67249e-08
4.77147e-08
-3.71553e-08
7.44826e-08
-4.37882e-08
1.011e-07
-4.61792e-08
1.25655e-07
-4.45604e-08
1.46718e-07
-3.95584e-08
1.63331e-07
-3.19671e-08
1.74952e-07
-2.26282e-08
1.8144e-07
-1.23194e-08
1.83077e-07
-1.80629e-09
1.7992e-07
8.20078e-09
1.72565e-07
1.71091e-08
1.61244e-07
2.42992e-08
1.45906e-07
2.9128e-08
1.27324e-07
3.11115e-08
1.07843e-07
2.99534e-08
9.03656e-08
2.54785e-08
7.72432e-08
1.76771e-08
6.98608e-08
6.9419e-09
6.93545e-08
-5.90776e-09
7.56816e-08
-1.93748e-08
8.7057e-08
-3.05414e-08
1.00193e-07
-3.60967e-08
1.11845e-07
-3.34111e-08
1.22695e-07
-2.84292e-08
1.3229e-07
-2.05903e-08
1.21619e-07
7.49612e-09
6.81002e-08
3.77596e-08
-3.16615e-08
7.55082e-08
-1.78268e-07
1.494e-07
-3.70523e-07
2.09701e-07
-5.67208e-07
2.37462e-07
-7.22459e-07
2.582e-07
-8.36318e-07
2.72229e-07
-9.40314e-07
2.67996e-07
-1.03884e-06
2.55942e-07
-1.12991e-06
2.38717e-07
-1.2136e-06
2.19744e-07
-1.29015e-06
2.00835e-07
-1.36029e-06
1.83054e-07
-1.4248e-06
1.66975e-07
-1.48456e-06
1.52743e-07
-1.54031e-06
1.40379e-07
-1.59263e-06
1.29775e-07
-1.64206e-06
1.20744e-07
-1.68904e-06
1.1309e-07
-1.73395e-06
1.06612e-07
-1.7771e-06
1.01128e-07
-1.81875e-06
9.64796e-08
-1.85912e-06
9.25203e-08
-1.89838e-06
8.91285e-08
-1.93669e-06
8.62043e-08
-1.97415e-06
8.3671e-08
-2.01082e-06
8.14599e-08
-2.04675e-06
7.94919e-08
-2.08197e-06
7.77035e-08
-2.11652e-06
7.60452e-08
-2.15041e-06
7.44713e-08
-2.18365e-06
7.29487e-08
-2.21623e-06
7.14471e-08
-2.24814e-06
6.9945e-08
-2.27936e-06
6.84233e-08
-2.30988e-06
6.68691e-08
-2.33966e-06
6.52718e-08
-2.36868e-06
6.36248e-08
-2.3969e-06
6.19237e-08
-2.42431e-06
6.01668e-08
-2.45086e-06
5.8354e-08
-2.47653e-06
5.64867e-08
-2.5013e-06
5.45675e-08
-2.52513e-06
5.25996e-08
-2.54802e-06
5.05867e-08
-2.56993e-06
4.85325e-08
-2.59084e-06
4.64405e-08
-2.61075e-06
4.43141e-08
-2.62962e-06
4.21562e-08
-2.64745e-06
3.99692e-08
-2.66423e-06
3.77552e-08
-2.67993e-06
3.5516e-08
-2.69455e-06
3.32528e-08
-2.70807e-06
3.09664e-08
-2.72049e-06
2.86577e-08
-2.73179e-06
2.63269e-08
-2.74196e-06
2.3974e-08
-2.75099e-06
2.15989e-08
-2.75888e-06
1.92012e-08
-2.7656e-06
1.67804e-08
-2.77116e-06
1.43358e-08
-2.77555e-06
1.18672e-08
-2.77876e-06
9.37467e-09
-2.78078e-06
6.8593e-09
-2.78163e-06
4.32318e-09
-2.7813e-06
1.77671e-09
-2.77988e-06
-7.74514e-10
-2.77722e-06
-3.38567e-09
-2.77327e-06
-5.9638e-09
-2.76804e-06
-8.56343e-09
-2.76152e-06
-1.11819e-08
-2.75369e-06
-1.38138e-08
-2.74456e-06
-1.64559e-08
-2.73412e-06
-1.91049e-08
-2.72236e-06
-2.17581e-08
-2.70929e-06
-2.44128e-08
-2.6949e-06
-2.70664e-08
-2.6792e-06
-2.9716e-08
-2.66219e-06
-3.23589e-08
-2.64387e-06
-3.49925e-08
-2.62426e-06
-3.76138e-08
-2.60335e-06
-4.02199e-08
-2.58116e-06
-4.28081e-08
-2.55769e-06
-4.53754e-08
-2.53296e-06
-4.79191e-08
-2.50699e-06
-5.04362e-08
-2.47978e-06
-5.2924e-08
-2.45136e-06
-5.53794e-08
-2.42174e-06
-5.77993e-08
-2.39094e-06
-6.01805e-08
-2.35898e-06
-6.25197e-08
-2.32588e-06
-6.48133e-08
-2.29168e-06
-6.70571e-08
-2.25638e-06
-6.92457e-08
-2.22e-06
-7.13776e-08
-2.18257e-06
-7.34476e-08
-2.14406e-06
-7.54495e-08
-2.10451e-06
-7.7423e-08
-2.06403e-06
-7.93863e-08
-2.02265e-06
-8.12806e-08
-1.98036e-06
-8.30887e-08
-1.93721e-06
-8.48311e-08
-1.89323e-06
-8.65074e-08
-1.84844e-06
-8.81138e-08
-1.8029e-06
-8.96474e-08
-1.75662e-06
-9.11105e-08
-1.70965e-06
-9.25036e-08
-1.66202e-06
-9.38267e-08
-1.61377e-06
-9.508e-08
-1.56493e-06
-9.62644e-08
-1.51553e-06
-9.7381e-08
-1.46561e-06
-9.84315e-08
-1.4152e-06
-9.94179e-08
-1.36434e-06
-1.00342e-07
-1.31304e-06
-1.01207e-07
-1.26135e-06
-1.02013e-07
-1.20928e-06
-1.02759e-07
-1.15687e-06
-1.03442e-07
-1.10416e-06
-1.04059e-07
-1.05117e-06
-1.0461e-07
-9.97936e-07
-1.05097e-07
-9.44487e-07
-1.05528e-07
-8.90847e-07
-1.05911e-07
-8.37034e-07
-1.06257e-07
-7.83063e-07
-1.06575e-07
-7.28943e-07
-1.06876e-07
-6.74678e-07
-1.07169e-07
-6.20272e-07
-1.07458e-07
-5.65724e-07
-1.07745e-07
-5.11036e-07
-1.08027e-07
-4.56212e-07
-1.08302e-07
-4.01253e-07
-1.08571e-07
-3.4616e-07
-1.08838e-07
-2.90931e-07
-1.0911e-07
-2.35559e-07
-1.09393e-07
-1.80041e-07
-1.09685e-07
-1.24377e-07
-1.09974e-07
-6.85815e-08
-1.10228e-07
-1.2701e-08
-1.10379e-07
4.3182e-08
-1.10345e-07
9.88939e-08
-1.09852e-07
1.54145e-07
-1.08996e-07
2.0859e-07
-1.06012e-07
2.60749e-07
-1.03534e-07
3.10633e-07
-9.2077e-08
-6.96309e-08
3.53503e-07
4.36374e-09
7.44611e-09
1.04177e-08
1.84928e-08
1.69417e-08
1.96486e-08
2.71338e-08
1.04023e-08
4.50277e-08
-6.62509e-09
7.19921e-08
-2.74198e-08
1.05733e-07
-4.75793e-08
1.42529e-07
-6.3521e-08
1.78738e-07
-7.33652e-08
2.11649e-07
-7.66992e-08
2.39581e-07
-7.41112e-08
2.61721e-07
-6.67002e-08
2.77878e-07
-5.57148e-08
2.88251e-07
-4.23406e-08
2.93253e-07
-2.76296e-08
2.93407e-07
-1.24741e-08
2.89248e-07
2.35305e-09
2.81192e-07
1.62566e-08
2.69842e-07
2.84587e-08
2.5579e-07
3.83519e-08
2.39584e-07
4.53339e-08
2.21849e-07
4.88468e-08
2.03434e-07
4.83678e-08
1.85536e-07
4.33765e-08
1.69622e-07
3.35912e-08
1.57086e-07
1.94774e-08
1.48881e-07
2.29816e-09
1.44298e-07
-1.47918e-08
1.39758e-07
-2.60017e-08
1.3105e-07
-2.73886e-08
1.09877e-07
-1.22387e-08
5.76095e-08
2.38388e-08
-3.62922e-08
7.33113e-08
-1.72942e-07
1.44146e-07
-3.53228e-07
2.18046e-07
-5.45044e-07
2.67325e-07
-6.99268e-07
3.03623e-07
-8.1716e-07
3.27593e-07
-9.16719e-07
3.37022e-07
-9.98605e-07
3.40086e-07
-1.06144e-06
3.35068e-07
-1.11518e-06
3.21738e-07
-1.16376e-06
3.04515e-07
-1.20979e-06
2.84748e-07
-1.25448e-06
2.64435e-07
-1.29833e-06
2.4468e-07
-1.34149e-06
2.26219e-07
-1.38397e-06
2.09449e-07
-1.42572e-06
1.945e-07
-1.46671e-06
1.81372e-07
-1.5069e-06
1.69957e-07
-1.54625e-06
1.60099e-07
-1.58478e-06
1.51623e-07
-1.62253e-06
1.44355e-07
-1.65953e-06
1.38128e-07
-1.69583e-06
1.32786e-07
-1.7315e-06
1.28185e-07
-1.76657e-06
1.24199e-07
-1.80109e-06
1.20722e-07
-1.83508e-06
1.17661e-07
-1.86855e-06
1.14933e-07
-1.90152e-06
1.12458e-07
-1.93398e-06
1.10171e-07
-1.96595e-06
1.08011e-07
-1.99741e-06
1.05931e-07
-2.02835e-06
1.03888e-07
-2.05875e-06
1.01847e-07
-2.08859e-06
9.97825e-08
-2.11783e-06
9.76707e-08
-2.14646e-06
9.54952e-08
-2.17443e-06
9.32439e-08
-2.20172e-06
9.09087e-08
-2.22828e-06
8.84851e-08
-2.25408e-06
8.59718e-08
-2.2791e-06
8.33698e-08
-2.30329e-06
8.06821e-08
-2.32664e-06
7.79133e-08
-2.34911e-06
7.50686e-08
-2.37068e-06
7.2154e-08
-2.39132e-06
6.91754e-08
-2.41102e-06
6.61383e-08
-2.42975e-06
6.30477e-08
-2.4475e-06
5.99082e-08
-2.46426e-06
5.67234e-08
-2.48e-06
5.34965e-08
-2.49471e-06
5.02302e-08
-2.50839e-06
4.69265e-08
-2.52101e-06
4.3587e-08
-2.53256e-06
4.0213e-08
-2.54304e-06
3.68052e-08
-2.55243e-06
3.33639e-08
-2.56072e-06
2.98894e-08
-2.5679e-06
2.63812e-08
-2.57396e-06
2.2839e-08
-2.57888e-06
1.92624e-08
-2.58267e-06
1.56512e-08
-2.5853e-06
1.20058e-08
-2.58677e-06
8.32695e-09
-2.58706e-06
4.61733e-09
-2.58616e-06
8.76672e-10
-2.58405e-06
-2.88477e-09
-2.58075e-06
-6.68619e-09
-2.5762e-06
-1.05115e-08
-2.5704e-06
-1.43631e-08
-2.56335e-06
-1.82378e-08
-2.55503e-06
-2.21321e-08
-2.54544e-06
-2.60418e-08
-2.53459e-06
-2.99625e-08
-2.52245e-06
-3.38903e-08
-2.50905e-06
-3.7821e-08
-2.49436e-06
-4.17507e-08
-2.4784e-06
-4.56753e-08
-2.46117e-06
-4.95907e-08
-2.44267e-06
-5.34927e-08
-2.42291e-06
-5.73772e-08
-2.40189e-06
-6.12397e-08
-2.37962e-06
-6.5076e-08
-2.35611e-06
-6.88819e-08
-2.33138e-06
-7.26531e-08
-2.30543e-06
-7.63854e-08
-2.27828e-06
-8.00745e-08
-2.24994e-06
-8.3716e-08
-2.22044e-06
-8.73052e-08
-2.18978e-06
-9.08376e-08
-2.15799e-06
-9.43082e-08
-2.12509e-06
-9.77125e-08
-2.0911e-06
-1.01045e-07
-2.05605e-06
-1.04303e-07
-2.01994e-06
-1.07482e-07
-1.98281e-06
-1.10581e-07
-1.94466e-06
-1.13596e-07
-1.90554e-06
-1.16544e-07
-1.8655e-06
-1.19427e-07
-1.82456e-06
-1.22217e-07
-1.78275e-06
-1.24901e-07
-1.74009e-06
-1.27488e-07
-1.69662e-06
-1.29977e-07
-1.65237e-06
-1.32365e-07
-1.60737e-06
-1.34647e-07
-1.56166e-06
-1.36823e-07
-1.51527e-06
-1.38896e-07
-1.46823e-06
-1.40864e-07
-1.42058e-06
-1.42728e-07
-1.37236e-06
-1.4449e-07
-1.32359e-06
-1.4615e-07
-1.27431e-06
-1.47711e-07
-1.22455e-06
-1.49176e-07
-1.17435e-06
-1.50548e-07
-1.12372e-06
-1.51831e-07
-1.07271e-06
-1.53026e-07
-1.02133e-06
-1.54135e-07
-9.69622e-07
-1.55152e-07
-9.17608e-07
-1.56074e-07
-8.65321e-07
-1.56897e-07
-8.12791e-07
-1.57627e-07
-7.60047e-07
-1.58272e-07
-7.07111e-07
-1.58847e-07
-6.54003e-07
-1.59365e-07
-6.00737e-07
-1.59841e-07
-5.47324e-07
-1.6029e-07
-4.93769e-07
-1.60724e-07
-4.40074e-07
-1.61153e-07
-3.86239e-07
-1.6158e-07
-3.32267e-07
-1.62e-07
-2.78159e-07
-1.6241e-07
-2.23917e-07
-1.62813e-07
-1.69539e-07
-1.63216e-07
-1.15022e-07
-1.63627e-07
-6.0361e-08
-1.64054e-07
-5.54911e-09
-1.64497e-07
4.94153e-08
-1.64939e-07
1.04523e-07
-1.65336e-07
1.59742e-07
-1.65598e-07
2.15005e-07
-1.65608e-07
2.70213e-07
-1.65059e-07
3.251e-07
-1.63883e-07
3.79644e-07
-1.60556e-07
4.32621e-07
-1.56511e-07
4.85068e-07
-1.44524e-07
-1.20832e-07
5.36269e-07
-7.39533e-10
8.18564e-09
3.88878e-09
1.38645e-08
1.89869e-08
4.55053e-09
4.96854e-08
-2.02962e-08
9.43167e-08
-5.12564e-08
1.46059e-07
-7.91618e-08
1.97278e-07
-9.87986e-08
2.42442e-07
-1.08685e-07
2.78695e-07
-1.09619e-07
3.05368e-07
-1.03372e-07
3.23145e-07
-9.18883e-08
3.33346e-07
-7.69012e-08
3.37413e-07
-5.97814e-08
3.36617e-07
-4.15444e-08
3.31945e-07
-2.29581e-08
3.24129e-07
-4.6583e-09
3.13519e-07
1.29635e-08
3.00558e-07
2.92181e-08
2.85474e-07
4.3542e-08
2.68481e-07
5.53452e-08
2.49851e-07
6.39641e-08
2.3013e-07
6.85676e-08
2.09992e-07
6.85058e-08
1.90219e-07
6.31496e-08
1.71721e-07
5.20888e-08
1.55241e-07
3.59575e-08
1.39409e-07
1.81301e-08
1.16877e-07
7.74052e-09
7.59788e-08
1.48964e-08
3.62831e-09
4.49619e-08
-1.08512e-07
9.9902e-08
-2.60313e-07
1.75639e-07
-4.35851e-07
2.4885e-07
-5.97561e-07
3.05855e-07
-7.26627e-07
3.47112e-07
-8.31025e-07
3.71723e-07
-9.12801e-07
3.854e-07
-9.74517e-07
3.89309e-07
-1.02298e-06
3.85486e-07
-1.06066e-06
3.77761e-07
-1.09108e-06
3.65486e-07
-1.11876e-06
3.49419e-07
-1.14557e-06
3.31333e-07
-1.17305e-06
3.12225e-07
-1.20176e-06
2.93144e-07
-1.23183e-06
2.74752e-07
-1.26313e-06
2.57515e-07
-1.29538e-06
2.41698e-07
-1.3283e-06
2.2742e-07
-1.36162e-06
2.14692e-07
-1.39511e-06
2.03452e-07
-1.42861e-06
1.93598e-07
-1.46199e-06
1.85006e-07
-1.49518e-06
1.7754e-07
-1.52811e-06
1.71062e-07
-1.56076e-06
1.65434e-07
-1.59311e-06
1.60531e-07
-1.62514e-06
1.56235e-07
-1.65686e-06
1.52441e-07
-1.68825e-06
1.49054e-07
-1.71931e-06
1.45988e-07
-1.75001e-06
1.43164e-07
-1.78035e-06
1.40512e-07
-1.81031e-06
1.3797e-07
-1.83987e-06
1.35486e-07
-1.86899e-06
1.33013e-07
-1.89766e-06
1.30514e-07
-1.92583e-06
1.27957e-07
-1.95348e-06
1.25317e-07
-1.98056e-06
1.22577e-07
-2.00704e-06
1.19723e-07
-2.03288e-06
1.16747e-07
-2.05804e-06
1.13644e-07
-2.08248e-06
1.10415e-07
-2.10617e-06
1.07062e-07
-2.12908e-06
1.03591e-07
-2.15118e-06
1.00008e-07
-2.17243e-06
9.63221e-08
-2.19282e-06
9.25412e-08
-2.21232e-06
8.86736e-08
-2.2309e-06
8.47271e-08
-2.24857e-06
8.07084e-08
-2.26528e-06
7.66234e-08
-2.28103e-06
7.24773e-08
-2.29581e-06
6.8274e-08
-2.3096e-06
6.40172e-08
-2.32238e-06
5.97094e-08
-2.33415e-06
5.53531e-08
-2.34488e-06
5.09497e-08
-2.35458e-06
4.65007e-08
-2.36322e-06
4.20067e-08
-2.3708e-06
3.74679e-08
-2.3773e-06
3.28839e-08
-2.38272e-06
2.82542e-08
-2.38704e-06
2.35783e-08
-2.39024e-06
1.88555e-08
-2.39232e-06
1.4086e-08
-2.39326e-06
9.27066e-09
-2.39306e-06
4.41114e-09
-2.39169e-06
-4.91171e-10
-2.38914e-06
-5.43306e-09
-2.38541e-06
-1.04169e-08
-2.38048e-06
-1.5439e-08
-2.37435e-06
-2.0497e-08
-2.367e-06
-2.55857e-08
-2.35843e-06
-3.07003e-08
-2.34864e-06
-3.58356e-08
-2.33762e-06
-4.09863e-08