/*--------------------------------*- C++ -*----------------------------------*\
| =========                 |                                                 |
| \\      /  F ield         | OpenFOAM: The Open Source CFD Toolbox           |
|  \\    /   O peration     | Version:  2112                                  |
|   \\  /    A nd           | Website:  www.openfoam.com                      |
|    \\/     M anipulation  |                                                 |
\*---------------------------------------------------------------------------*/
FoamFile
{
    version     2.0;
    format      ascii;
    arch        "LSB;label=32;scalar=64";
    class       volScalarField;
    location    "0.39";
    object      pPrime2Mean;
}
// * * * * * * * * * * * * * * * * * * * * * * * * * * * * * * * * * * * * * //

dimensions      [0 4 -4 0 0 0 0];

internalField   nonuniform List<scalar> 
12225
(
1.33169e+06
1.31218e+06
1.29178e+06
1.27173e+06
1.25219e+06
1.2332e+06
1.21477e+06
1.19689e+06
1.17952e+06
1.16263e+06
1.14617e+06
1.13006e+06
1.11423e+06
1.09855e+06
1.08286e+06
1.0669e+06
1.05019e+06
1.03155e+06
1.33174e+06
1.31222e+06
1.29181e+06
1.27176e+06
1.25222e+06
1.23322e+06
1.21479e+06
1.19691e+06
1.17955e+06
1.16267e+06
1.14621e+06
1.13011e+06
1.11429e+06
1.09864e+06
1.08299e+06
1.06712e+06
1.05062e+06
1.03265e+06
1.33185e+06
1.3123e+06
1.29188e+06
1.27181e+06
1.25227e+06
1.23327e+06
1.21484e+06
1.19696e+06
1.17961e+06
1.16274e+06
1.1463e+06
1.13023e+06
1.11444e+06
1.09884e+06
1.08329e+06
1.06759e+06
1.05147e+06
1.03461e+06
1.33203e+06
1.31244e+06
1.29199e+06
1.27191e+06
1.25235e+06
1.23336e+06
1.21493e+06
1.19706e+06
1.17971e+06
1.16286e+06
1.14645e+06
1.13041e+06
1.11468e+06
1.09917e+06
1.08376e+06
1.06832e+06
1.05271e+06
1.03695e+06
1.33232e+06
1.31264e+06
1.29215e+06
1.27204e+06
1.25248e+06
1.23348e+06
1.21505e+06
1.19719e+06
1.17986e+06
1.16304e+06
1.14666e+06
1.13068e+06
1.11504e+06
1.09964e+06
1.08443e+06
1.0693e+06
1.05425e+06
1.03947e+06
1.33267e+06
1.31291e+06
1.29237e+06
1.27223e+06
1.25265e+06
1.23364e+06
1.21522e+06
1.19737e+06
1.18007e+06
1.16328e+06
1.14696e+06
1.13105e+06
1.11551e+06
1.10027e+06
1.08528e+06
1.07052e+06
1.05604e+06
1.04207e+06
1.33313e+06
1.31327e+06
1.29266e+06
1.27248e+06
1.25288e+06
1.23386e+06
1.21545e+06
1.19761e+06
1.18034e+06
1.1636e+06
1.14734e+06
1.13152e+06
1.11611e+06
1.10105e+06
1.08633e+06
1.07195e+06
1.058e+06
1.04472e+06
1.33371e+06
1.31372e+06
1.29303e+06
1.2728e+06
1.25317e+06
1.23414e+06
1.21573e+06
1.19792e+06
1.18069e+06
1.164e+06
1.14782e+06
1.13211e+06
1.11684e+06
1.10199e+06
1.08756e+06
1.07356e+06
1.06011e+06
1.04739e+06
1.3344e+06
1.31428e+06
1.29349e+06
1.2732e+06
1.25353e+06
1.23449e+06
1.21609e+06
1.1983e+06
1.18111e+06
1.16449e+06
1.1484e+06
1.13282e+06
1.11773e+06
1.1031e+06
1.08895e+06
1.07533e+06
1.06233e+06
1.05008e+06
1.33525e+06
1.31496e+06
1.29406e+06
1.27369e+06
1.25398e+06
1.23492e+06
1.21653e+06
1.19877e+06
1.18163e+06
1.16509e+06
1.14911e+06
1.13366e+06
1.11875e+06
1.10436e+06
1.0905e+06
1.07724e+06
1.06463e+06
1.05278e+06
1.33624e+06
1.31578e+06
1.29474e+06
1.27428e+06
1.25451e+06
1.23544e+06
1.21705e+06
1.19933e+06
1.18225e+06
1.16579e+06
1.14993e+06
1.13464e+06
1.11991e+06
1.10576e+06
1.09219e+06
1.07925e+06
1.06699e+06
1.05548e+06
1.33731e+06
1.31668e+06
1.29548e+06
1.27492e+06
1.2551e+06
1.236e+06
1.21762e+06
1.19993e+06
1.18291e+06
1.16654e+06
1.15079e+06
1.13565e+06
1.12111e+06
1.10717e+06
1.09385e+06
1.08119e+06
1.06921e+06
1.05796e+06
1.33856e+06
1.3177e+06
1.29633e+06
1.27565e+06
1.25576e+06
1.23663e+06
1.21826e+06
1.2006e+06
1.18365e+06
1.16737e+06
1.15174e+06
1.13675e+06
1.12239e+06
1.10866e+06
1.09558e+06
1.08316e+06
1.07144e+06
1.06042e+06
1.34032e+06
1.31907e+06
1.29744e+06
1.2766e+06
1.25662e+06
1.23746e+06
1.21909e+06
1.20148e+06
1.1846e+06
1.16843e+06
1.15295e+06
1.13813e+06
1.12397e+06
1.11047e+06
1.09764e+06
1.08548e+06
1.07401e+06
1.06322e+06
1.34276e+06
1.32087e+06
1.29888e+06
1.27783e+06
1.25773e+06
1.23852e+06
1.22016e+06
1.2026e+06
1.18582e+06
1.16978e+06
1.15445e+06
1.13983e+06
1.12589e+06
1.11263e+06
1.10005e+06
1.08815e+06
1.07693e+06
1.06637e+06
1.34573e+06
1.32314e+06
1.3007e+06
1.27938e+06
1.25913e+06
1.23987e+06
1.22151e+06
1.20402e+06
1.18734e+06
1.17144e+06
1.1563e+06
1.14188e+06
1.12817e+06
1.11517e+06
1.10284e+06
1.09119e+06
1.0802e+06
1.06985e+06
1.34926e+06
1.32584e+06
1.30287e+06
1.28125e+06
1.26084e+06
1.24151e+06
1.22317e+06
1.20575e+06
1.1892e+06
1.17346e+06
1.1585e+06
1.1443e+06
1.13083e+06
1.11806e+06
1.10598e+06
1.09456e+06
1.08379e+06
1.07363e+06
1.35318e+06
1.32876e+06
1.30524e+06
1.28333e+06
1.26277e+06
1.24341e+06
1.22511e+06
1.20778e+06
1.19136e+06
1.17579e+06
1.16103e+06
1.14704e+06
1.1338e+06
1.12126e+06
1.1094e+06
1.0982e+06
1.08762e+06
1.07764e+06
1.35626e+06
1.33111e+06
1.3073e+06
1.28527e+06
1.2647e+06
1.24538e+06
1.22718e+06
1.20998e+06
1.19372e+06
1.17834e+06
1.16378e+06
1.15e+06
1.13696e+06
1.12463e+06
1.11298e+06
1.10196e+06
1.09155e+06
1.08172e+06
1.35535e+06
1.33128e+06
1.30797e+06
1.28622e+06
1.26587e+06
1.24673e+06
1.22868e+06
1.21164e+06
1.19554e+06
1.18031e+06
1.16591e+06
1.15228e+06
1.1394e+06
1.12721e+06
1.11569e+06
1.1048e+06
1.09451e+06
1.08478e+06
1.35397e+06
1.33071e+06
1.30794e+06
1.28655e+06
1.26644e+06
1.24749e+06
1.2296e+06
1.21269e+06
1.19671e+06
1.1816e+06
1.1673e+06
1.15378e+06
1.14099e+06
1.1289e+06
1.11746e+06
1.10665e+06
1.09642e+06
1.08675e+06
1.35235e+06
1.3299e+06
1.30763e+06
1.28659e+06
1.26672e+06
1.24795e+06
1.2302e+06
1.21341e+06
1.19753e+06
1.18251e+06
1.16829e+06
1.15485e+06
1.14213e+06
1.1301e+06
1.11872e+06
1.10796e+06
1.09778e+06
1.08815e+06
1.35097e+06
1.32909e+06
1.30725e+06
1.2865e+06
1.26684e+06
1.24823e+06
1.23059e+06
1.2139e+06
1.1981e+06
1.18314e+06
1.16899e+06
1.1556e+06
1.14293e+06
1.13095e+06
1.11961e+06
1.10888e+06
1.09873e+06
1.08913e+06
1.34979e+06
1.32839e+06
1.30689e+06
1.28638e+06
1.26689e+06
1.24839e+06
1.23085e+06
1.21423e+06
1.19849e+06
1.18358e+06
1.16948e+06
1.15613e+06
1.14349e+06
1.13154e+06
1.12023e+06
1.10953e+06
1.0994e+06
1.08982e+06
1.34877e+06
1.32781e+06
1.30659e+06
1.28626e+06
1.2669e+06
1.24849e+06
1.23102e+06
1.21445e+06
1.19875e+06
1.18388e+06
1.16981e+06
1.15648e+06
1.14388e+06
1.13195e+06
1.12065e+06
1.10997e+06
1.09986e+06
1.09029e+06
1.348e+06
1.32738e+06
1.30636e+06
1.28616e+06
1.26689e+06
1.24855e+06
1.23112e+06
1.21459e+06
1.19892e+06
1.18408e+06
1.17003e+06
1.15672e+06
1.14413e+06
1.13222e+06
1.12094e+06
1.11027e+06
1.10016e+06
1.0906e+06
1.34745e+06
1.32707e+06
1.3062e+06
1.28609e+06
1.26688e+06
1.24858e+06
1.23119e+06
1.21468e+06
1.19904e+06
1.18421e+06
1.17017e+06
1.15688e+06
1.1443e+06
1.13239e+06
1.12112e+06
1.11046e+06
1.10036e+06
1.0908e+06
1.3471e+06
1.32687e+06
1.3061e+06
1.28605e+06
1.26687e+06
1.2486e+06
1.23123e+06
1.21474e+06
1.1991e+06
1.18429e+06
1.17026e+06
1.15697e+06
1.1444e+06
1.1325e+06
1.12123e+06
1.11057e+06
1.10048e+06
1.09093e+06
1.34686e+06
1.32676e+06
1.30604e+06
1.28602e+06
1.26687e+06
1.24861e+06
1.23125e+06
1.21477e+06
1.19914e+06
1.18433e+06
1.1703e+06
1.15702e+06
1.14445e+06
1.13255e+06
1.12129e+06
1.11063e+06
1.10054e+06
1.09099e+06
1.34676e+06
1.32671e+06
1.30601e+06
1.28601e+06
1.26687e+06
1.24862e+06
1.23126e+06
1.21478e+06
1.19915e+06
1.18435e+06
1.17032e+06
1.15704e+06
1.14447e+06
1.13258e+06
1.12132e+06
1.11066e+06
1.10057e+06
1.09102e+06
872238
872169
872028
871815
871530
871172
870740
870232
869646
868982
868237
867411
866504
865514
864440
863284
862043
860718
859309
857816
856239
854580
852838
851015
849111
847129
845068
842929
840713
838423
836057
833618
831106
828521
825865
823138
820343
817481
814553
811562
808509
805392
802214
798975
795676
792318
788901
785428
781897
778310
774667
770967
767214
763411
759561
755662
751712
747712
743665
739576
735444
731269
727052
722795
718492
714142
709745
705308
700834
696326
691785
687209
682597
677948
673259
668529
663757
658945
654098
649212
644289
639337
634357
629353
624324
619272
614195
609094
603969
598822
593654
588465
583257
578031
572787
567526
562247
556950
551634
546296
540934
535548
530141
524716
519275
513821
508359
502889
497411
491924
486428
480920
475393
469846
464277
458686
453073
447437
441781
436108
430423
424731
419036
413343
407653
401968
396287
390611
384939
379271
373603
367937
362270
356603
350937
345272
339611
333952
328297
322645
316998
311357
305724
300097
294475
288857
283244
277638
272044
266465
260904
255364
249846
244349
238871
233410
227966
222541
217138
211759
206408
201086
195798
190545
185327
180145
175001
169898
164836
159816
154838
149904
145016
140176
135390
130662
125999
121412
116914
112540
872553
872484
872343
872129
871843
871484
871049
870538
869950
869282
868533
867704
866792
865798
864721
863559
862314
860983
859568
858069
856486
854819
853070
851239
849328
847337
845268
843121
840898
838601
836230
833786
831269
828680
826020
823290
820491
817625
814694
811697
808637
805516
802333
799088
795783
792419
788997
785519
781983
778392
774747
771044
767288
763481
759624
755720
751766
747763
743715
739624
735492
731314
727091
722827
718520
714169
709775
705342
700872
696365
691825
687249
682636
677985
673294
668561
663787
658972
654121
649233
644310
639358
634378
629373
624343
619290
614213
609111
603986
598839
593671
588482
583275
578050
572807
567547
562268
556970
551653
546313
540950
535564
530158
524735
519298
513846
508386
502918
497442
491958
486463
480953
475425
469877
464306
458714
453098
447461
441803
436127
430440
424746
419049
413354
407663
401977
396296
390620
384948
379280
373613
367946
362279
356613
350947
345284
339623
333965
328310
322658
317012
311371
305738
300111
294488
288868
283254
277648
272053
266473
260911
255371
249853
244356
238878
233416
227972
222546
217142
211763
206412
201091
195803
190550
185331
180149
175004
169901
164839
159819
154841
149907
145018
140177
135390
130661
125997
121407
116903
112511
873186
873116
872975
872762
872474
872112
871673
871157
870561
869886
869131
868293
867374
866371
865284
864112
862855
861513
860085
858573
856976
855295
853531
851685
849758
847752
845667
843506
841269
838958
836573
834116
831587
828988
826318
823580
820774
817900
814961
811957
808890
805760
802568
799313
796000
792627
789196
785709
782166
778568
774914
771205
767441
763625
759760
755848
751888
747882
743832
739737
735595
731407
727175
722901
718588
714234
709841
705410
700942
696437
691896
687318
682702
678049
673355
668620
663842
659024
654169
649279
644355
639402
634420
629413
624381
619325
614246
609143
604018
598871
593703
588515
583308
578083
572841
567580
562301
557003
551684
546343
540980
535595
530192
524772
519338
513891
508434
502968
497494
492011
486516
481006
475477
469927
464356
458761
453143
447503
441841
436163
430471
424773
419073
413375
407681
401994
396312
390637
384965
379297
373630
367963
362297
356631
350967
345305
339646
333989
328334
322683
317037
311397
305764
300135
294510
288889
283273
277665
272068
266487
260925
255384
249866
244368
238888
233426
227981
222554
217150
211771
206420
201099
195812
190558
185338
180155
175011
169907
164845
159824
154846
149911
145021
140179
135391
130660
125993
121398
116884
112464
874142
874071
873929
873714
873423
873055
872609
872085
871480
870794
870027
869177
868243
867225
866122
864933
863659
862298
860851
859319
857701
855999
854214
852347
850399
848371
846266
844084
841826
839495
837091
834615
832068
829451
826765
824013
821193
818308
815357
812342
809263
806122
802918
799654
796329
792944
789502
786002
782448
778837
775170
771448
767673
763846
759971
756049
752081
748068
744012
739907
735753
731553
727310
723027
718707
714349
709954
705522
701053
696546
692002
687421
682801
678143
673446
668706
663924
659103
654245
649353
644428
639473
634489
629479
624444
619385
614302
609197
604070
598923
593754
588564
583357
578131
572889
567629
562350
557051
551732
546392
541029
535646
530245
524829
519399
513955
508502
503039
497568
492086
486592
481082
475552
470001
464427
458830
453208
447564
441898
436214
430517
424814
419108
413405
407709
402019
396337
390661
384989
379321
373654
367988
362323
356658
350996
345336
339678
334022
328368
322718
317074
311434
305800
300170
294543
288919
283300
277690
272091
266508
260945
255404
249884
244385
238905
233441
227995
222568
217163
211783
206432
201112
195825
190570
185350
180165
175020
169916
164853
159832
154853
149917
145026
140182
135392
130659
125989
121388
116860
112414
875427
875355
875210
874989
874692
874316
873861
873324
872707
872006
871223
870355
869402
868363
867237
866025
864725
863338
861864
860305
858659
856930
855116
853221
851246
849191
847059
844851
842568
840211
837782
835281
832710
830072
827366
824594
821756
818853
815886
812856
809762
806605
803388
800109
796770
793372
789915
786401
782829
779202
775518
771780
767989
764147
760259
756324
752344
748319
744250
740132
735964
731751
727498
723206
718878
714515
710116
705680
701206
696695
692146
687558
682932
678267
673565
668820
664034
659209
654349
649454
644527
639570
634584
629571
624532
619469
614383
609274
604144
598993
593821
588629
583419
578193
572950
567689
562411
557114
551797
546459
541098
535717
530318
524905
519478
514039
508589
503130
497661
492182
486688
481178
475647
470094
464517
458917
453291
447642
441971
436281
430577
424866
419154
413446
407745
402053
396369
390692
385020
379352
373685
368020
362356
356694
351034
345376
339719
334065
328413
322765
317121
311482
305847
300215
294585
288958
283336
277723
272122
266538
260973
255431
249910
244410
238929
233464
228016
222588
217182
211801
206450
201131
195843
190588
185366
180180
175035
169930
164866
159843
154863
149925
145032
140187
135394
130658
125985
121376
116835
112364
877049
876973
876822
876595
876288
875901
875432
874881
874246
873527
872722
871831
870852
869785
868630
867386
866054
864634
863126
861532
859851
858087
856239
854309
852299
850211
848046
845806
843492
841104
838644
836114
833515
830850
828118
825322
822461
819536
816548
813497
810384
807209
803973
800677
797320
793904
790429
786895
783303
779655
775951
772193
768382
764521
760613
756659
752661
748618
744532
740398
736217
731992
727729
723429
719094
714724
710319
705878
701399
696881
692325
687729
683095
678422
673710
668959
664168
659339
654476
649579
644650
639690
634702
629686
624643
619576
614485
609371
604236
599080
593903
588707
583494
578264
573020
567759
562482
557187
551874
546540
541182
535804
530408
524998
519573
514137
508690
503235
497769
492292
486800
481290
475758
470203
464623
459019
453390
447736
442059
436362
430650
424930
419210
413496
407790
402095
396409
390731
385058
379390
373724
368060
362398
356738
351080
345424
339769
334116
328467
322820
317178
311539
305903
300269
294636
289006
283381
277764
272161
266575
261010
255466
249945
244443
238960
233493
228044
222614
217206
211825
206474
201154
195866
190610
185387
180201
175054
169947
164881
159858
154875
149936
145040
140193
135397
130658
125981
121365
116811
112318
879016
878937
878779
878541
878222
877820
877333
876761
876103
875358
874525
873604
872592
871491
870299
869017
867645
866185
864636
863000
861278
859472
857582
855611
853560
851432
849228
846949
844597
842172
839677
837112
834479
831781
829018
826191
823302
820350
817336
814260
811122
807924
804666
801347
797968
794530
791031
787474
783858
780187
776459
772676
768841
764957
761025
757047
753026
748961
744854
740703
736508
732273
728000
723692
719349
714973
710562
706114
701629
697104
692539
687935
683291
678608
673887
669127
664329
659496
654629
649729
644798
639836
634845
629826
624780
619707
614611
609491
604349
599185
594001
588799
583580
578346
573099
567838
562561
557270
551961
546631
541279
535905
530513
525105
519682
514248
508805
503352
497890
492415
486925
481415
475882
470323
464739
459131
453499
447842
442159
436455
430734
425005
419276
413554
407843
402144
396455
390775
385103
379435
373770
368108
362448
356790
351134
345479
339826
334175
328528
322883
317242
311604
305967
300331
294695
289061
283432
277812
272207
266620
261054
255510
249987
244484
238998
233529
228078
222646
217237
211854
206503
201183
195895
190638
185414
180226
175077
169969
164901
159876
154891
149949
145052
140201
135403
130661
125978
121355
116788
112277
881344
881259
881091
880840
880504
880082
879572
878973
878286
877508
876639
875679
874627
873483
872247
870920
869502
867995
866398
864713
862942
861087
859148
857129
855030
852855
850605
848280
845883
843415
840877
838271
835599
832862
830061
827199
824275
821290
818245
815139
811974
808748
805463
802118
798712
795247
791722
788138
784496
780797
777041
773231
769367
765454
761493
757487
753439
749350
745220
741050
736840
732593
728309
723992
719642
715259
710841
706387
701894
697362
692788
688174
683519
678825
674093
669324
664519
659680
654808
649905
644971
640008
635014
629992
624942
619865
614762
609635
604484
599310
594117
588906
583680
578441
573190
567927
562652
557363
552059
546734
541389
536021
530632
525225
519803
514371
508929
503478
498018
492546
487056
481546
476010
470448
464861
459250
453615
447954
442267
436556
430827
425089
419351
413621
407903
402199
396508
390827
385154
379487
373823
368163
362504
356848
351192
345538
339887
334238
328593
322951
317311
311673
306036
300397
294759
289121
283489
277867
272260
266672
261105
255560
250036
244531
239043
233571
228117
222683
217272
211888
206537
201217
195927
190670
185444
180255
175105
169994
164925
159897
154911
149966
145066
140213
135411
130666
125977
121346
116768
112240
884045
883952
883772
883505
883148
882700
882161
881529
880805
879986
879074
878067
876967
875773
874485
873105
871633
870070
868417
866676
864848
862935
860940
858864
856710
854480
852175
849797
847349
844830
842243
839589
836870
834089
831245
828341
825378
822356
819275
816137
812939
809683
806368
802993
799558
796063
792507
788892
785219
781488
777701
773857
769961
766015
762021
757983
753905
749787
745633
741442
737215
732953
728657
724330
719971
715581
711155
706693
702193
697651
693067
688442
683775
679069
674326
669548
664736
659891
655015
650108
645172
640205
635209
630184
625130
620048
614938
609801
604640
599456
594252
589030
583795
578549
573293
568028
562753
557467
552167
546849
541509
536146
530760
525353
519931
514498
509056
503607
498148
492677
487188
481676
476138
470572
464981
459368
453731
448068
442378
436661
430925
425178
419432
413694
407970
402261
396567
390884
385211
379544
373882
368222
362565
356909
351253
345599
339949
334302
328659
323019
317381
311743
306105
300465
294824
289184
283549
277925
272317
266729
261161
255615
250090
244583
239092
233618
228161
222724
217311
211926
206574
201253
195963
190704
185478
180288
175135
170023
164951
159921
154933
149986
145084
140228
135423
130672
125978
121338
116750
112208
887134
887033
886839
886552
886169
885691
885116
884444
883675
882808
881844
880783
879626
878374
877027
875586
874051
872424
870705
868898
867003
865024
862962
860821
858602
856308
853941
851502
848994
846418
843776
841068
838298
835467
832575
829625
826618
823554
820434
817258
814025
810735
807386
803978
800509
796980
793389
789738
786028
782259
778434
774554
770621
766637
762607
758534
754422
750274
746092
741878
737630
733352
729043
724703
720334
715934
711500
707029
702519
697967
693372
688734
684054
679335
674582
669795
664976
660126
655246
650336
645396
640427
635427
630398
625339
620250
615132
609986
604815
599620
594404
589172
583927
578672
573410
568141
562866
557582
552285
546972
541637
536278
530893
525485
520061
514625
509182
503731
498272
492801
487312
481799
476258
470688
465094
459477
453840
448176
442483
436763
431021
425268
419515
413771
408042
402328
396631
390946
385272
379606
373944
368284
362626
356970
351314
345660
340010
334364
328722
323083
317446
311809
306171
300530
294888
289246
283610
277985
272376
266787
261219
255673
250147
244638
239144
233667
228207
222768
217353
211967
206613
201292
196000
190740
185513
180322
175168
170053
164980
159947
154956
150008
145103
140245
135436
130680
125980
121331
116732
112178
890637
890525
890314
890003
889590
889075
888458
887738
886916
885993
884969
883845
882624
881305
879890
878379
876772
875071
873278
871393
869421
867364
865225
863007
860714
858347
855910
853403
850829
848188
845483
842716
839888
837000
834054
831052
827995
824883
821718
818499
815225
811896
808509
805062
801555
797987
794357
790664
786912
783101
779233
775312
771338
767314
763245
759135
754988
750808
746596
742355
738086
733789
729463
725110
720728
716316
711871
707389
702868
698304
693695
689043
684349
679618
674854
670059
665235
660381
655497
650584
645640
640666
635662
630627
625561
620464
615337
610182
605001
599796
594571
589328
584072
578807
573537
568264
562987
557704
552411
547100
541769
536411
531024
525614
520185
514745
509297
503844
498383
492912
487422
481907
476363
470789
465191
459574
453936
448272
442578
436855
431110
425354
419596
413847
408114
402397
396697
391011
385336
379669
374006
368345
362686
357028
351370
345716
340066
334420
328778
323140
317505
311868
306229
300588
294945
289303
283667
278041
272433
266843
261275
255730
250203
244692
239196
233715
228253
222811
217395
212007
206652
201329
196036
190776
185548
180355
175200
170084
165008
159974
154980
150029
145122
140261
135448
130688
125980
121323
116714
112149
894584
894459
894228
893888
893439
892881
892213
891437
890554
889565
888471
887275
885978
884582
883087
881494
879804
878018
876138
874166
872106
869961
867735
865431
863054
860605
858087
855503
852853
850140
847365
844529
841634
838682
835674
832611
829497
826330
823112
819843
816522
813146
809713
806222
802671
799059
795384
791647
787849
783993
780082
776116
772100
768035
763927
759778
755595
751381
747139
742870
738577
734259
729916
725546
721149
716721
712261
707766
703230
698651
694028
689360
684652
679909
675135
670333
665504
660647
655760
650842
645892
640911
635900
630858
625785
620679
615543
610379
605190
599977
594742
589490
584224
578950
573671
568391
563112
557830
552538
547229
541897
536537
531147
525731
520297
514851
509398
503940
498476
493002
487511
481993
476447
470871
465271
459652
454013
448349
442655
436933
431187
425429
419669
413918
408182
402464
396762
391074
385397
379728
374064
368401
362740
357080
351420
345764
340113
334466
328824
323186
317551
311915
306277
300635
294993
289351
283715
278090
272482
266894
261326
255781
250254
244742
239243
233760
228295
222852
217434
212044
206687
201363
196070
190809
185580
180387
175231
170113
165036
159999
155003
150050
145140
140275
135458
130693
125978
121313
116694
112118
899016
898877
898621
898247
897755
897145
896418
895576
894620
893552
892376
891093
889706
888216
886626
884936
883148
881263
879285
877215
875057
872814
870491
868091
865618
863075
860466
857793
855058
852262
849407
846494
843523
840497
837417
834284
831102
827871
824591
821262
817883
814451
810964
807421
803820
800159
796437
792654
788810
784910
780954
776945
772887
768782
764634
760449
756230
751983
747710
743414
739096
734757
730393
726004
721587
717142
712664
708150
703596
699000
694359
689676
684954
680199
675416
670608
665774
660914
656023
651099
646142
641152
636131
631079
625996
620882
615739
610569
605374
600155
594913
589652
584377
579094
573807
568520
563237
557953
552660
547350
542015
536651
531255
525832
520391
514937
509477
504013
498545
493068
487574
482054
476505
470929
465328
459708
454068
448404
442712
436991
431247
425490
419731
413980
408243
402524
396820
391131
385452
379781
374114
368448
362785
357122
351460
345801
340148
334500
328857
323219
317583
311948
306309
300668
295026
289386
283752
278129
272522
266935
261369
255824
250296
244783
239283
233798
228332
222887
217467
212076
206718
201393
196099
190837
185608
180414
175257
170139
165060
160021
155023
150067
145154
140286
135465
130693
125972
121299
116671
112086
903986
903830
903544
903129
902584
901911
901113
900190
899146
897983
896706
895317
893820
892217
890512
888707
886803
884803
882710
880527
878258
875904
873471
870962
868381
865734
863023
860251
857421
854533
851587
848585
845528
842416
839252
836039
832778
829471
826118
822719
819271
815775
812226
808625
804968
801255
797484
793654
789766
785822
781825
777775
773677
769535
765352
761132
756881
752602
748301
743978
739636
735273
730886
726474
722036
717568
713068
708532
703958
699342
694683
689983
685247
680481
675688
670873
666033
661168
656272
651341
646375
641374
636341
631278
626187
621066
615919
610746
605548
600326
595079
589811
584527
579234
573938
568644
563355
558067
552770
547456
542116
536746
531344
525913
520463
515001
509533
504063
498589
493107
487608
482086
476536
470959
465359
459738
454098
448435
442745
437028
431288
425536
419780
414030
408294
402574
396870
391179
385497
379823
374152
368483
362816
357151
351487
345825
340169
334519
328875
323235
317599
311963
306325
300684
295043
289405
283773
278153
272549
266963
261399
255855
250327
244813
239312
233827
228360
222914
217494
212101
206742
201416
196122
190860
185631
180437
175279
170160
165080
160039
155039
150080
145164
140292
135466
130689
125961
121280
116643
112050
909562
909383
909059
908591
907980
907229
906340
905316
904163
902883
901482
899964
898335
896597
894755
892811
890769
888631
886402
884085
881684
879202
876643
874012
871313
868550
865726
862843
859904
856911
853862
850760
847605
844398
841142
837838
834490
831097
827662
824183
820660
817091
813476
809811
806096
802328
798507
794630
790698
786713
782676
778589
774456
770280
766065
761815
757534
753227
748899
744550
740182
735794
731382
726945
722482
717990
713465
708905
704307
699670
694992
690276
685526
680748
675945
671120
666272
661398
656494
651556
646581
641569
636525
631452
626353
621228
616079
610906
605709
600485
595235
589960
584667
579364
574060
568759
563462
558166
552862
547541
542195
536818
531408
525969
520510
515040
509564
504086
498605
493117
487613
482087
476535
470959
465359
459739
454100
448438
442752
437041
431308
425562
419812
414066
408332
402612
396907
391213
385529
379850
374175
368503
362833
357165
351498
345834
340176
334523
328877
323235
317597
311960
306322
300682
295043
289407
283779
278162
272561
266978
261415
255872
250344
244830
239330
233844
228377
222932
217511
212119
206759
201433
196138
190876
185647
180453
175296
170176
165094
160052
155050
150088
145169
140293
135462
130679
125943
121255
116611
112009
916020
915811
915436
914896
914194
913336
912326
911171
909876
908448
906892
905214
903419
901513
899500
897384
895168
892858
890459
887976
885415
882779
880072
877298
874461
871564
868609
865600
862538
859426
856263
853049
849785
846473
843115
839712
836267
832781
829255
825688
822081
818434
814744
811011
807233
803406
799531
795605
791629
787602
783526
779403
775236
771028
766784
762505
758197
753863
749506
745130
740735
736319
731880
727417
722926
718406
713855
709270
704648
699988
695290
690558
685795
681005
676190
671353
666493
661607
656692
651744
646759
641737
636683
631602
626497
621370
616221
611050
605854
600629
595375
590094
584794
579483
574169
568859
563553
558246
552933
547602
542247
536862
531445
525998
520531
515053
509570
504084
498595
493098
487588
482057
476503
470926
465328
459710
454073
448414
442733
437029
431306
425569
419827
414087
408356
402637
396930
391233
385545
379862
374183
368508
362834
357163
351495
345829
340168
334512
328863
323218
317577
311939
306301
300662
295025
289393
283768
278156
272559
266979
261418
255875
250348
244835
239336
233851
228385
222941
217521
212129
206770
201443
196149
190887
185658
180464
175306
170186
165103
160059
155055
150092
145170
140290
135453
130663
125921
121225
116573
111965
923177
922928
922483
921845
921021
920021
918853
917528
916054
914440
912692
910817
908821
906711
904492
902170
899750
897240
894645
891973
889231
886422
883552
880622
877636
874597
871506
868364
865174
861937
858654
855324
851949
848531
845069
841566
838024
834444
830826
827171
823478
819749
815983
812179
808334
804448
800518
796543
792521
788452
784338
780180
775981
771744
767472
763167
758832
754471
750087
745684
741261
736817
732350
727859
723340
718793
714215
709603
704957
700276
695561
690814
686038
681236
676410
671560
666687
661788
656860
651899
646903
641872
636809
631722
626614
621485
616336
611165
605968
600741
595483
590197
584892
579575
574254
568935
563618
558299
552973
547632
542267
536872
531447
525995
520522
515038
509548
504054
498556
493051
487534
481998
476441
470863
465266
459651
454017
448363
442689
436993
431279
425553
419820
414087
408360
402643
396935
391236
385544
379857
374175
368495
362819
357146
351475
345808
340145
334486
328833
323185
317541
311901
306263
300626
294991
289363
283743
278136
272543
266966
261407
255866
250340
244828
239330
233848
228383
222940
217522
212132
206773
201446
196152
190891
185662
180468
175310
170189
165106
160061
155055
150090
145165
140281
135439
130643
125894
121191
116531
111916
930403
930104
929571
928811
927836
926663
925306
923780
922100
920274
918310
916217
914002
911673
909237
906702
904075
901364
898575
895717
892798
889822
886792
883712
880583
877407
874184
870916
867604
864250
860854
857417
853940
850423
846867
843273
839642
835975
832273
828537
824767
820963
817125
813254
809347
805403
801420
797397
793331
789222
785072
780881
776651
772387
768089
763759
759399
755013
750604
746175
741726
737256
732763
728245
723701
719127
714524
709889
705222
700523
695792
691031
686244
681431
676594
671733
666848
661936
656995
652022
647015
641975
636906
631815
626703
621572
616421
611247
606046
600815
595553
590264
584955
579635
574310
568984
563657
558326
552987
547634
542258
536855
531424
525966
520490
515001
509506
504005
498499
492985
487460
481919
476360
470782
465186
459573
453943
448293
442625
436938
431234
425518
419795
414070
408347
402632
396924
391223
385528
379839
374153
368471
362793
357118
351446
345777
340111
334450
328793
323142
317495
311854
306216
300580
294949
289325
283710
278108
272519
266946
261389
255849
250325
244815
239319
233838
228375
222935
217518
212130
206772
201445
196152
190890
185662
180468
175310
170189
165105
160059
155052
150084
145157
140269
135423
130621
125864
121154
116488