/*--------------------------------*- C++ -*----------------------------------*\
| =========                 |                                                 |
| \\      /  F ield         | OpenFOAM: The Open Source CFD Toolbox           |
|  \\    /   O peration     | Version:  2112                                  |
|   \\  /    A nd           | Website:  www.openfoam.com                      |
|    \\/     M anipulation  |                                                 |
\*---------------------------------------------------------------------------*/
FoamFile
{
    version     2.0;
    format      ascii;
    arch        "LSB;label=32;scalar=64";
    class       volVectorField;
    location    "0.18";
    object      U_0;
}
// * * * * * * * * * * * * * * * * * * * * * * * * * * * * * * * * * * * * * //

dimensions      [0 1 -1 0 0 0 0];

internalField   nonuniform List<vector> 
12225
(
(9.76436 0.0673771 0)
(9.27347 0.108975 0)
(8.73458 0.118696 0)
(8.18524 0.120628 0)
(7.6615 0.116965 0)
(7.18097 0.108468 0)
(6.75503 0.0965967 0)
(6.3926 0.0827358 0)
(6.09786 0.0681505 0)
(5.86924 0.0540263 0)
(5.70044 0.0412957 0)
(5.58215 0.0305271 0)
(5.50371 0.0219645 0)
(5.45474 0.0157353 0)
(5.42461 0.0119371 0)
(5.40878 0.0111544 0)
(5.38097 0.0279419 0)
(5.35509 0.00593793 0)
(10.0957 0.0741084 0)
(10.284 0.108954 0)
(10.4001 0.116935 0)
(10.451 0.125096 0)
(10.4467 0.129984 0)
(10.3918 0.12947 0)
(10.2923 0.123813 0)
(10.1574 0.113685 0)
(9.99645 0.100101 0)
(9.81749 0.084505 0)
(9.6269 0.0684484 0)
(9.42962 0.0532305 0)
(9.22952 0.0397243 0)
(9.02974 0.0285282 0)
(8.83293 0.0195244 0)
(8.64223 0.0151736 0)
(8.46248 0.0140958 0)
(8.32126 0.0411428 0)
(10.0193 0.041567 0)
(10.0732 0.0684891 0)
(10.1286 0.084469 0)
(10.1826 0.101967 0)
(10.2397 0.116305 0)
(10.2955 0.125884 0)
(10.3436 0.13111 0)
(10.3807 0.132651 0)
(10.4049 0.131347 0)
(10.415 0.128393 0)
(10.4116 0.125059 0)
(10.3962 0.122345 0)
(10.3707 0.120834 0)
(10.3369 0.120698 0)
(10.2967 0.121762 0)
(10.2517 0.12378 0)
(10.2069 0.126102 0)
(10.1582 0.122661 0)
(10.0104 0.0334928 0)
(10.0434 0.0654758 0)
(10.0731 0.0821836 0)
(10.0984 0.0958354 0)
(10.1257 0.106073 0)
(10.1553 0.112156 0)
(10.1856 0.114725 0)
(10.2144 0.114361 0)
(10.2408 0.111668 0)
(10.264 0.107542 0)
(10.284 0.102963 0)
(10.3012 0.0987207 0)
(10.316 0.0953201 0)
(10.3294 0.092978 0)
(10.3421 0.0916168 0)
(10.3553 0.0909311 0)
(10.3703 0.0900592 0)
(10.3876 0.0827906 0)
(10.0063 0.0280784 0)
(10.0321 0.0594769 0)
(10.0569 0.0756574 0)
(10.078 0.088549 0)
(10.0996 0.0985384 0)
(10.1222 0.104712 0)
(10.1446 0.107526 0)
(10.1657 0.107673 0)
(10.1852 0.105867 0)
(10.2029 0.102935 0)
(10.2186 0.099651 0)
(10.2328 0.096619 0)
(10.2461 0.0942739 0)
(10.2594 0.0927854 0)
(10.2734 0.0919517 0)
(10.2889 0.0912287 0)
(10.3064 0.0894409 0)
(10.327 0.084284 0)
(10.0039 0.0230573 0)
(10.0244 0.0527244 0)
(10.0469 0.0695216 0)
(10.0669 0.0824379 0)
(10.087 0.0921588 0)
(10.1076 0.0981309 0)
(10.1277 0.100879 0)
(10.1466 0.101171 0)
(10.1641 0.0996233 0)
(10.1801 0.096921 0)
(10.1946 0.0937296 0)
(10.2079 0.0906264 0)
(10.2206 0.0879393 0)
(10.2333 0.0856972 0)
(10.2466 0.0836731 0)
(10.2611 0.0813882 0)
(10.2769 0.0779307 0)
(10.294 0.0715675 0)
(10.0026 0.0191828 0)
(10.0188 0.0464438 0)
(10.0388 0.0631543 0)
(10.0579 0.0758029 0)
(10.0771 0.0851888 0)
(10.0966 0.0910133 0)
(10.1156 0.0938295 0)
(10.1337 0.0943208 0)
(10.1504 0.0930612 0)
(10.1659 0.090683 0)
(10.1801 0.0878006 0)
(10.1933 0.0848605 0)
(10.206 0.0820961 0)
(10.2186 0.0795197 0)
(10.2316 0.0769398 0)
(10.2453 0.0739156 0)
(10.2598 0.0696769 0)
(10.2748 0.0630365 0)
(10.0018 0.0161196 0)
(10.0146 0.0408649 0)
(10.0322 0.0569554 0)
(10.0501 0.0690118 0)
(10.0683 0.0779912 0)
(10.0869 0.0836144 0)
(10.105 0.086402 0)
(10.1223 0.0870313 0)
(10.1386 0.0860336 0)
(10.1536 0.0839517 0)
(10.1676 0.0812906 0)
(10.1808 0.0784252 0)
(10.1935 0.0755628 0)
(10.2061 0.0726961 0)
(10.2188 0.0696066 0)
(10.2318 0.0659027 0)
(10.2452 0.0610235 0)
(10.2587 0.0543063 0)
(10.0013 0.0136129 0)
(10.0116 0.0358059 0)
(10.0269 0.0510061 0)
(10.0433 0.0623248 0)
(10.0605 0.0707689 0)
(10.0781 0.0761793 0)
(10.0954 0.078922 0)
(10.112 0.0796032 0)
(10.1276 0.0787537 0)
(10.1423 0.0768666 0)
(10.156 0.0743555 0)
(10.169 0.0715273 0)
(10.1816 0.0685445 0)
(10.1939 0.0653935 0)
(10.2062 0.0618992 0)
(10.2187 0.0577582 0)
(10.2311 0.0525672 0)
(10.2434 0.045938 0)
(10.001 0.0115143 0)
(10.0093 0.0311722 0)
(10.0227 0.0452726 0)
(10.0377 0.0557434 0)
(10.0536 0.0635107 0)
(10.0702 0.0685996 0)
(10.0867 0.0712767 0)
(10.1026 0.0720127 0)
(10.1176 0.0712959 0)
(10.1318 0.0695522 0)
(10.1452 0.0671428 0)
(10.1579 0.0643229 0)
(10.1702 0.0612375 0)
(10.1822 0.0578703 0)
(10.1941 0.0540854 0)
(10.2059 0.0496582 0)
(10.2174 0.0443125 0)
(10.2287 0.0378481 0)
(10.0008 0.00972919 0)
(10.0076 0.0269208 0)
(10.0193 0.0397511 0)
(10.0329 0.0492858 0)
(10.0476 0.0563098 0)
(10.063 0.0609347 0)
(10.0785 0.0634168 0)
(10.0937 0.0641637 0)
(10.1083 0.0635492 0)
(10.1221 0.0619242 0)
(10.1351 0.0596069 0)
(10.1476 0.0568245 0)
(10.1595 0.053672 0)
(10.1711 0.0501297 0)
(10.1825 0.0461304 0)
(10.1936 0.0415238 0)
(10.2044 0.0361367 0)
(10.2147 0.0298909 0)
(10.0006 0.00828962 0)
(10.0064 0.0233129 0)
(10.0168 0.0348639 0)
(10.0293 0.0434729 0)
(10.0429 0.0497734 0)
(10.0572 0.05392 0)
(10.0718 0.0561345 0)
(10.0862 0.0567664 0)
(10.1002 0.0561557 0)
(10.1136 0.0545999 0)
(10.1263 0.0523534 0)
(10.1385 0.0496036 0)
(10.1502 0.0464194 0)
(10.1615 0.0428113 0)
(10.1724 0.0387091 0)
(10.183 0.0340252 0)
(10.1931 0.0286798 0)
(10.2027 0.0226675 0)
(10.0005 0.00701673 0)
(10.0055 0.0199661 0)
(10.0147 0.0301661 0)
(10.0261 0.0378048 0)
(10.0387 0.0433563 0)
(10.0521 0.0469857 0)
(10.0658 0.0488873 0)
(10.0794 0.0493572 0)
(10.0927 0.0486871 0)
(10.1056 0.0471277 0)
(10.1179 0.0448903 0)
(10.1298 0.0421338 0)
(10.1412 0.0389423 0)
(10.1522 0.0353196 0)
(10.1628 0.0312029 0)
(10.1729 0.0265527 0)
(10.1825 0.0213202 0)
(10.1915 0.0155475 0)
(10.0005 0.005722 0)
(10.0047 0.016411 0)
(10.0127 0.0250152 0)
(10.023 0.0314857 0)
(10.0346 0.0361349 0)
(10.047 0.0391202 0)
(10.0597 0.0406051 0)
(10.0725 0.0408268 0)
(10.085 0.0400251 0)
(10.0973 0.0384065 0)
(10.109 0.0361409 0)
(10.1204 0.0333551 0)
(10.1314 0.0301213 0)
(10.1419 0.0264683 0)
(10.1521 0.0223892 0)
(10.1617 0.0178436 0)
(10.1708 0.0128074 0)
(10.1794 0.00735469 0)
(10.0004 0.00439577 0)
(10.004 0.0126641 0)
(10.011 0.0194289 0)
(10.0202 0.0245134 0)
(10.0307 0.0280867 0)
(10.042 0.0302802 0)
(10.0537 0.0312233 0)
(10.0656 0.0310935 0)
(10.0774 0.0300763 0)
(10.0888 0.0283334 0)
(10.1 0.0259966 0)
(10.1108 0.0231647 0)
(10.1211 0.0199011 0)
(10.1311 0.01624 0)
(10.1406 0.0121953 0)
(10.1497 0.00777678 0)
(10.1582 0.00299527 0)
(10.1662 -0.00208001 0)
(10.0003 0.00302766 0)
(10.0034 0.00873371 0)
(10.0094 0.0134233 0)
(10.0176 0.016889 0)
(10.0271 0.0191931 0)
(10.0374 0.0204258 0)
(10.0481 0.0206799 0)
(10.0591 0.0200772 0)
(10.07 0.018749 0)
(10.0807 0.0168126 0)
(10.0911 0.0143643 0)
(10.1012 0.0114786 0)
(10.1109 0.00820855 0)
(10.1202 0.00459017 0)
(10.129 0.000649152 0)
(10.1374 -0.0035906 0)
(10.1452 -0.00810348 0)
(10.1526 -0.0128152 0)
(10.0003 0.00160047 0)
(10.003 0.00459584 0)
(10.0082 0.00698408 0)
(10.0155 0.00859167 0)
(10.024 0.00941726 0)
(10.0333 0.00950467 0)
(10.0431 0.00890805 0)
(10.0532 0.00769928 0)
(10.0633 0.0059586 0)
(10.0732 0.00376028 0)
(10.0829 0.00116686 0)
(10.0923 -0.00177134 0)
(10.1013 -0.00501499 0)
(10.1098 -0.00853291 0)
(10.118 -0.0122981 0)
(10.1256 -0.0162831 0)
(10.1328 -0.0204597 0)
(10.1395 -0.0247633 0)
(10.0003 7.9754e-05 0)
(10.0026 0.000163525 0)
(10.0074 4.2629e-06 0)
(10.0139 -0.00050337 0)
(10.0217 -0.00138897 0)
(10.0302 -0.00265056 0)
(10.0393 -0.00427264 0)
(10.0486 -0.00622802 0)
(10.0579 -0.00848345 0)
(10.0672 -0.0110067 0)
(10.0762 -0.0137696 0)
(10.0849 -0.0167487 0)
(10.0932 -0.0199243 0)
(10.1011 -0.0232789 0)
(10.1085 -0.0267952 0)
(10.1155 -0.030454 0)
(10.1221 -0.0342358 0)
(10.1282 -0.0380921 0)
(10.0002 -0.0016122 0)
(10.0025 -0.00476625 0)
(10.007 -0.00777847 0)
(10.0132 -0.0106779 0)
(10.0206 -0.0135141 0)
(10.0287 -0.0163262 0)
(10.0373 -0.0191359 0)
(10.0461 -0.0219576 0)
(10.0549 -0.0248032 0)
(10.0637 -0.0276835 0)
(10.0721 -0.030608 0)
(10.0803 -0.0335859 0)
(10.0881 -0.0366254 0)
(10.0954 -0.0397327 0)
(10.1023 -0.0429109 0)
(10.1088 -0.0461589 0)
(10.1148 -0.0494733 0)
(10.1203 -0.0528276 0)
(10.0003 -0.00323133 0)
(10.0027 -0.00946821 0)
(10.0074 -0.0151543 0)
(10.0139 -0.0202595 0)
(10.0214 -0.0248785 0)
(10.0296 -0.029097 0)
(10.0383 -0.0329691 0)
(10.0472 -0.0365449 0)
(10.056 -0.0398767 0)
(10.0647 -0.0430134 0)
(10.0731 -0.0459997 0)
(10.0811 -0.0488774 0)
(10.0886 -0.0516857 0)
(10.0957 -0.054459 0)
(10.1023 -0.0572258 0)
(10.1084 -0.0600082 0)
(10.114 -0.0628225 0)
(10.1192 -0.0656646 0)
(10.0003 -0.00466254 0)
(10.003 -0.0135722 0)
(10.0083 -0.0214607 0)
(10.0154 -0.028306 0)
(10.0234 -0.0343095 0)
(10.0321 -0.039607 0)
(10.0412 -0.0442734 0)
(10.0504 -0.0483886 0)
(10.0596 -0.0520387 0)
(10.0685 -0.0553015 0)
(10.077 -0.0582484 0)
(10.0851 -0.0609493 0)
(10.0927 -0.063471 0)
(10.0998 -0.0658746 0)
(10.1063 -0.0682131 0)
(10.1122 -0.0705303 0)
(10.1177 -0.0728616 0)
(10.1226 -0.0752212 0)
(10.0004 -0.00614877 0)
(10.0037 -0.0177181 0)
(10.0099 -0.0276012 0)
(10.0179 -0.0359338 0)
(10.0266 -0.043119 0)
(10.036 -0.0493336 0)
(10.0457 -0.054658 0)
(10.0555 -0.0592017 0)
(10.0652 -0.0630799 0)
(10.0746 -0.0663911 0)
(10.0835 -0.0692281 0)
(10.092 -0.0716864 0)
(10.0998 -0.0738605 0)
(10.107 -0.0758387 0)
(10.1135 -0.0776999 0)
(10.1195 -0.0795121 0)
(10.1248 -0.081332 0)
(10.1296 -0.0831948 0)
(10.0005 -0.00780511 0)
(10.0048 -0.0221109 0)
(10.0124 -0.0337589 0)
(10.0214 -0.0433325 0)
(10.0311 -0.0515272 0)
(10.0413 -0.0585199 0)
(10.0519 -0.0643897 0)
(10.0625 -0.0692815 0)
(10.0729 -0.0733287 0)
(10.0829 -0.0766366 0)
(10.0924 -0.0793114 0)
(10.1013 -0.0814714 0)
(10.1095 -0.0832384 0)
(10.117 -0.0847286 0)
(10.1237 -0.0860489 0)
(10.1296 -0.0872931 0)
(10.1349 -0.0885399 0)
(10.1395 -0.0898413 0)
(10.0007 -0.00977292 0)
(10.0066 -0.0268949 0)
(10.0159 -0.0399732 0)
(10.0263 -0.0505547 0)
(10.0371 -0.0596449 0)
(10.0483 -0.0673084 0)
(10.0599 -0.0736214 0)
(10.0714 -0.0787853 0)
(10.0827 -0.0829466 0)
(10.0934 -0.0862049 0)
(10.1036 -0.0886732 0)
(10.113 -0.0904921 0)
(10.1216 -0.0918116 0)
(10.1294 -0.0927741 0)
(10.1362 -0.0935162 0)
(10.1422 -0.0941637 0)
(10.1474 -0.0948263 0)
(10.1519 -0.0955852 0)
(10.0011 -0.0122784 0)
(10.0094 -0.0323109 0)
(10.0211 -0.0463363 0)
(10.033 -0.0576616 0)
(10.0449 -0.0675982 0)
(10.0574 -0.0759322 0)
(10.07 -0.0826762 0)
(10.0824 -0.0880715 0)
(10.0945 -0.0922718 0)
(10.106 -0.0953723 0)
(10.1168 -0.0974956 0)
(10.1267 -0.0988157 0)
(10.1358 -0.0995273 0)
(10.1438 -0.0998061 0)
(10.1509 -0.0998158 0)
(10.157 -0.0997079 0)
(10.1622 -0.0996108 0)
(10.1665 -0.0995887 0)
(10.002 -0.0157159 0)
(10.0141 -0.0389831 0)
(10.0288 -0.0534664 0)
(10.0422 -0.0649514 0)
(10.0553 -0.0749991 0)
(10.0689 -0.0834162 0)
(10.0826 -0.0902891 0)
(10.0961 -0.0958426 0)
(10.1092 -0.100171 0)
(10.1218 -0.10333 0)
(10.1338 -0.105422 0)
(10.1449 -0.106611 0)
(10.1551 -0.107087 0)
(10.1641 -0.107064 0)
(10.1721 -0.106762 0)
(10.179 -0.106368 0)
(10.185 -0.106056 0)
(10.1901 -0.105891 0)
(10.0041 -0.0200848 0)
(10.0218 -0.0453712 0)
(10.0405 -0.0603631 0)
(10.0565 -0.0726634 0)
(10.0722 -0.0832412 0)
(10.0887 -0.091644 0)
(10.1054 -0.0982955 0)
(10.1222 -0.103515 0)
(10.1389 -0.107352 0)
(10.1555 -0.109844 0)
(10.1717 -0.111093 0)
(10.1871 -0.111314 0)
(10.2013 -0.110717 0)
(10.2142 -0.109465 0)
(10.2255 -0.107791 0)
(10.2354 -0.105965 0)
(10.2439 -0.104159 0)
(10.2506 -0.102474 0)
(10.0095 -0.0259612 0)
(10.039 -0.0474191 0)
(10.0699 -0.0602435 0)
(10.0991 -0.0743211 0)
(10.1315 -0.0876884 0)
(10.1661 -0.0989759 0)
(10.2014 -0.108455 0)
(10.2363 -0.116475 0)
(10.2698 -0.122966 0)
(10.3009 -0.127835 0)
(10.3285 -0.131113 0)
(10.3516 -0.132914 0)
(10.37 -0.13349 0)
(10.3835 -0.133184 0)
(10.392 -0.132352 0)
(10.3959 -0.131378 0)
(10.3954 -0.130511 0)
(10.3915 -0.130176 0)
(10.0515 -0.0520738 0)
(10.1748 -0.0841572 0)
(10.2757 -0.0938832 0)
(10.3508 -0.103765 0)
(10.4025 -0.112674 0)
(10.4316 -0.119325 0)
(10.4375 -0.123978 0)
(10.4213 -0.126762 0)
(10.3855 -0.127537 0)
(10.3325 -0.126236 0)
(10.265 -0.122934 0)
(10.1855 -0.117859 0)
(10.0964 -0.11135 0)
(10 -0.103795 0)
(9.8981 -0.0955821 0)
(9.79225 -0.0872033 0)
(9.68369 -0.0789492 0)
(9.57374 -0.071899 0)
(9.87224 -0.0504561 0)
(9.57843 -0.0895082 0)
(9.23345 -0.103992 0)
(8.86298 -0.112253 0)
(8.49018 -0.116457 0)
(8.12451 -0.117155 0)
(7.77107 -0.115247 0)
(7.43498 -0.111281 0)
(7.12073 -0.105577 0)
(6.8316 -0.0984463 0)
(6.56979 -0.0902319 0)
(6.33655 -0.0812975 0)
(6.13215 -0.0720035 0)
(5.95592 -0.062674 0)
(5.80633 -0.0535875 0)
(5.68145 -0.0450291 0)
(5.57777 -0.0373394 0)
(5.49506 -0.0300759 0)
(0.0164851 -0.0288805 -2.53569e-21)
(0.0320598 -0.031154 2.43429e-21)
(0.0599158 -0.0320865 0)
(0.0864941 -0.0327773 0)
(0.113713 -0.0334145 0)
(0.141592 -0.0350802 -2.35067e-21)
(0.170005 -0.0384809 0)
(0.199554 -0.0414807 0)
(0.230004 -0.0422148 0)
(0.260149 -0.0411987 0)
(0.289424 -0.0390862 2.30849e-21)
(0.31735 -0.0362627 0)
(0.343475 -0.0329177 0)
(0.367404 -0.0291388 0)
(0.388776 -0.0249679 0)
(0.407254 -0.0204257 2.24968e-21)
(0.422517 -0.0155154 0)
(0.434254 -0.0102149 0)
(0.442154 -0.00448676 0)
(0.44596 0.00161621 0)
(0.445269 0.00787924 0)
(0.440031 0.0140962 0)
(0.430302 0.0201794 0)
(0.416073 0.0259005 2.11503e-21)
(0.397713 0.0297367 -2.09445e-21)
(0.376352 0.0302858 2.0753e-21)
(0.352873 0.0294926 2.05834e-21)
(0.327496 0.0294373 0)
(0.300309 0.0298459 0)
(0.27142 0.0303994 -2.0108e-21)
(0.241067 0.0309117 -1.99563e-21)
(0.209539 0.0312842 0)
(0.177151 0.0314634 0)
(0.144239 0.0314196 -1.95296e-21)
(0.111155 0.0311372 0)
(0.0782622 0.0306086 0)
(0.0459226 0.0298274 1.91507e-21)
(0.0145107 0.028781 0)
(-0.0156026 0.0274349 1.89034e-21)
(-0.0440548 0.0257567 3.75143e-21)
(-0.0704741 0.0237196 0)
(-0.0945063 0.0212974 0)
(-0.115836 0.0185099 0)
(-0.134218 0.015475 0)
(-0.149542 0.0124245 0)
(-0.161891 0.00968871 3.5893e-21)
(-0.171596 0.00769894 3.56421e-21)
(-0.179277 0.00695796 3.54068e-21)
(-0.185646 0.00674856 0)
(-0.191078 0.00616067 -3.49968e-21)
(-0.195729 0.00549525 0)
(-0.199982 0.00515142 3.46025e-21)
(-0.204346 0.00524905 3.44051e-21)
(-0.20933 0.00573655 0)
(-0.215409 0.00653128 0)
(-0.22301 0.00756647 0)
(-0.232498 0.00878298 3.35656e-21)
(-0.244157 0.0101095 0)
(-0.258175 0.0114601 0)
(-0.274628 0.012749 0)
(-0.293501 0.0139181 0)
(-0.314745 0.0149762 0)
(-0.338398 0.0160147 0)
(-0.364695 0.017089 0)
(-0.393994 0.0179144 0)
(-0.426289 0.0177027 -3.10314e-21)
(-0.460547 0.015601 0)
(-0.494776 0.0116266 0)
(-0.527076 0.00703543 2.98856e-21)
(-0.556623 0.00337524 2.94681e-21)
(-0.58371 0.00142101 0)
(-0.609147 0.0010477 -2.86204e-21)
(-0.633734 0.0017013 2.82074e-21)
(-0.658031 0.00282396 0)
(-0.682357 0.00404076 -2.74278e-21)
(-0.706863 0.00518011 0)
(-0.731635 0.00621904 0)
(-0.75675 0.00720922 2.63839e-21)
(-0.78231 0.00821577 0)
(-0.80845 0.00928344 -2.57674e-21)
(-0.835325 0.0104297 0)
(-0.863109 0.0116551 2.52145e-21)
(-0.891994 0.0129589 2.49625e-21)
(-0.922195 0.0143529 2.47272e-21)
(-0.953956 0.0158649 4.90181e-21)
(-0.987553 0.0175351 -4.86175e-21)
(-1.02329 0.0194112 0)
(-1.06152 0.0215511 0)
(-1.10255 0.0240013 0)
(-1.14671 0.0267769 -4.74223e-21)
(-1.19426 0.0298483 -4.72398e-21)
(-1.24536 0.0331338 4.71079e-21)
(-1.30004 0.0365019 0)
(-1.35819 0.0397824 -4.69947e-21)
(-1.4195 0.042785 -4.70075e-21)
(-1.48349 0.0453229 -4.70594e-21)
(-1.54948 0.047234 0)
(-1.61668 0.048399 0)
(-1.68418 0.0487529 0)
(-1.75104 0.0482916 -4.74681e-21)
(-1.81634 0.0470753 0)
(-1.87927 0.045227 0)
(-1.93915 0.0429197 4.76263e-21)
(-1.99548 0.0403477 0)
(-2.04797 0.0376852 0)
(-2.0965 0.0350534 4.72569e-21)
(-2.14108 0.032519 0)
(-2.18182 0.0301199 0)
(-2.21896 0.0278909 -4.61496e-21)
(-2.25279 0.0258716 -4.56154e-21)
(-2.28369 0.0241022 0)
(-2.31209 0.0226167 4.43299e-21)
(-2.3385 0.0214393 0)
(-2.36343 0.0205819 -4.28027e-21)
(-2.3874 0.0200452 0)
(-2.41093 0.0198192 -4.109e-21)
(-2.4345 0.0198852 -4.01785e-21)
(-2.45855 0.0202159 0)
(-2.48346 0.0207772 0)
(-2.50955 0.0215282 0)
(-2.53702 0.0224227 0)
(-2.566 0.0234095 0)
(-2.59649 0.0244341 0)
(-2.62836 0.0254378 0)
(-2.66137 0.0263563 -3.15554e-21)
(-2.69511 0.0271154 3.01965e-21)
(-2.72903 0.0276225 0)
(-2.76242 0.0277513 0)
(-2.79435 0.0273295 0)
(-2.82376 0.026155 0)
(-2.84927 0.0239943 4.23837e-21)
(-2.86914 0.0207434 0)
(-2.88194 0.0171457 -3.21272e-21)
(-2.88591 0.0131314 2.61836e-21)
(-2.8795 0.00862378 0)
(-2.8623 0.00311617 0)
(-2.83362 -0.00328984 0)
(-2.79279 -0.0103767 4.10983e-22)
(-2.73918 -0.0177762 1.33434e-21)
(-2.67225 -0.0252493 0)
(-2.59167 -0.0325137 3.36281e-21)
(-2.49739 -0.0393274 4.45531e-21)
(-2.38957 -0.0457536 -5.58759e-21)
(-2.26831 -0.0521131 0)
(-2.13376 -0.0584924 0)
(-1.98617 -0.0648579 -9.10326e-21)
(-1.82586 -0.0712759 0)
(-1.65308 -0.0778588 0)
(-1.46811 -0.084763 0)
(-1.27111 -0.0921284 0)
(-1.0624 -0.0992974 1.45406e-20)
(-0.844045 -0.103212 1.54307e-20)
(-0.626583 -0.0972914 0)
(-0.415676 -0.0890803 1.69456e-20)
(-0.197576 -0.0908169 0)
(0.0319282 -0.0935748 0)
(0.264716 -0.091412 1.86518e-20)
(0.494908 -0.0957078 0)
(0.725661 -0.101728 1.93206e-20)
(0.966337 -0.102685 0)
(1.21189 -0.100462 0)
(1.45937 -0.0968275 1.98359e-20)
(1.70602 -0.0919529 0)
(1.94857 -0.0852103 1.98057e-20)
(2.18265 -0.0759084 0)
(2.40509 -0.0649813 0)
(2.61536 -0.0542608 0)
(2.81325 -0.0441489 -1.91071e-20)
(2.99763 -0.0342197 0)
(3.16591 -0.0245799 1.8478e-20)
(3.31498 -0.0154215 0)
(3.44246 -0.0070301 0)
(3.54644 0.000449039 0)
(3.62497 0.00685972 0)
(3.67717 0.0113407 0)
(3.70089 0.0139048 0)
(3.69643 0.0238287 0)
(3.65498 0.0350095 -3.21002e-20)
(3.60134 0.0537298 0)
(3.39039 0.068906 0)
(0.0180106 -0.0701155 7.55706e-21)
(0.0351465 -0.0761937 -7.25346e-21)
(0.0655083 -0.0799206 0)
(0.094714 -0.0824022 4.75742e-21)
(0.12475 -0.0836212 0)
(0.155336 -0.0838974 2.33059e-21)
(0.185597 -0.0838891 -4.63894e-21)
(0.214935 -0.0838153 -4.6067e-21)
(0.243264 -0.0829559 0)
(0.270651 -0.0808594 -4.54769e-21)
(0.297 -0.0774782 -2.25181e-21)
(0.322074 -0.0729156 0)
(0.34558 -0.0672969 0)
(0.367212 -0.0607378 0)
(0.386672 -0.0533413 0)
(0.403673 -0.0452005 -2.19206e-21)
(0.417955 -0.0364018 0)
(0.429292 -0.0270263 4.34922e-21)
(0.437506 -0.0171526 0)
(0.44246 -0.00686887 0)
(0.444239 0.00366814 -4.2701e-21)
(0.442666 0.0142089 0)
(0.437561 0.0245074 4.20917e-21)
(0.428963 0.0342888 -2.08694e-21)
(0.416811 0.0431767 2.07125e-21)
(0.400734 0.0509105 -2.05537e-21)
(0.380486 0.0576091 -2.0395e-21)
(0.356421 0.063396 0)
(0.329179 0.0682959 0)
(0.299251 0.0723072 1.99226e-21)
(0.267068 0.0754174 -1.9761e-21)
(0.233062 0.0776114 0)
(0.197671 0.0788745 0)
(0.161353 0.0791956 1.93464e-21)
(0.124583 0.0785718 0)
(0.0878534 0.0770112 0)
(0.0516647 0.0745325 -1.89803e-21)
(0.0165299 0.0711608 0)
(-0.0170604 0.0669324 1.87082e-21)
(-0.0486696 0.0619228 -3.72278e-21)
(-0.0778872 0.0562248 0)
(-0.104374 0.049968 0)
(-0.127897 0.04333 -7.28947e-21)
(-0.148336 0.0365524 -7.24297e-21)
(-0.165707 0.0299392 -7.19702e-21)
(-0.180173 0.0238276 3.57397e-21)
(-0.192011 0.0185378 -3.55473e-21)
(-0.201491 0.0143071 -1.05943e-20)
(-0.209008 0.0112076 7.01889e-21)
(-0.215257 0.00912496 3.48929e-21)
(-0.221072 0.0080029 0)
(-0.227132 0.00787691 -3.44665e-21)
(-0.234028 0.00877022 3.42384e-21)
(-0.242316 0.0106523 0)
(-0.252497 0.0134425 0)
(-0.264984 0.0170141 0)
(-0.280064 0.0211977 -3.33057e-21)
(-0.297887 0.0257888 0)
(-0.318465 0.0305648 6.5546e-21)
(-0.341684 0.0353202 0)
(-0.367326 0.0399293 6.44305e-21)
(-0.395095 0.0444315 0)
(-0.424629 0.0490629 -6.32494e-21)
(-0.455459 0.0540776 0)
(-0.486928 0.0592974 6.19567e-21)
(-0.518265 0.063769 -3.06603e-21)
(-0.548858 0.0661453 0)
(-0.578405 0.0656995 -5.96917e-21)
(-0.606809 0.0629364 -2.93261e-21)
(-0.634032 0.0591159 -2.88749e-21)
(-0.660091 0.0553855 0)
(-0.685142 0.0523486 -2.82456e-21)
(-0.709485 0.0501274 -2.75603e-21)
(-0.733493 0.0485963 0)
(-0.757523 0.0475709 2.67763e-21)
(-0.781863 0.0469032 -5.30562e-21)
(-0.806722 0.0465072 0)
(-0.832251 0.0463491 -2.57454e-21)
(-0.858571 0.0464272 0)
(-0.885801 0.0467565 7.55907e-21)
(-0.914079 0.04736 0)
(-0.943577 0.0482673 -7.39503e-21)
(-0.97451 0.0495131 -2.43671e-21)
(-1.00714 0.0511346 2.42294e-21)
(-1.04177 0.0531658 4.80098e-21)
(-1.07875 0.0556273 -4.75969e-21)
(-1.11844 0.0585174 0)
(-1.16122 0.0618098 0)
(-1.20743 0.0654454 0)
(-1.25737 0.069328 1.39083e-20)
(-1.31126 0.0733243 4.62218e-21)
(-1.36919 0.0772667 -4.61138e-21)
(-1.4311 0.0809611 0)
(-1.49676 0.084197 -4.57447e-21)
(-1.56576 0.0867631 4.60927e-21)
(-1.6375 0.0884658 4.61764e-21)
(-1.71119 0.0891481 0)
(-1.78595 0.0887087 0)
(-1.86078 0.0871163 0)
(-1.93471 0.0844179 4.67775e-21)
(-2.00678 0.080737 0)
(-2.07615 0.0762603 -9.37966e-21)
(-2.14213 0.0712063 -1.4122e-20)
(-2.20418 0.0657876 9.41704e-21)
(-2.26189 0.0601951 0)
(-2.31499 0.0546047 4.68723e-21)
(-2.36342 0.0491772 0)
(-2.4073 0.0440526 9.29593e-21)
(-2.44695 0.0393497 -4.59876e-21)
(-2.48284 0.0351654 -4.54798e-21)
(-2.51552 0.031572 0)
(-2.54561 0.0286156 -1.32933e-20)
(-2.57374 0.0263159 8.70685e-21)
(-2.60052 0.0246684 4.28259e-21)
(-2.62654 0.0236465 0)
(-2.65235 0.0232039 4.10813e-21)
(-2.67839 0.0232763 1.20215e-20)
(-2.70504 0.0237828 0)
(-2.73259 0.0246271 7.61329e-21)
(-2.76118 0.0256985 7.40784e-21)
(-2.79081 0.0268737 7.19594e-21)
(-2.82135 0.028019 0)
(-2.85249 0.0289924 0)
(-2.88374 0.0296462 0)
(-2.91445 0.0298301 -3.11645e-21)
(-2.94379 0.0293949 -2.99949e-21)
(-2.97078 0.0281985 0)
(-2.99433 0.0261079 -5.36658e-21)
(-3.01325 0.0230002 -5.01465e-21)
(-3.02641 0.0188149 0)
(-3.03269 0.0135127 -4.18978e-21)
(-3.03054 0.00648968 -7.44162e-21)
(-3.01992 -0.00246159 3.16653e-21)
(-3.00108 -0.0117026 2.63011e-21)
(-2.97269 -0.0211813 0)
(-2.93334 -0.0311936 0)
(-2.88231 -0.0417335 0)
(-2.81918 -0.0526609 -4.00275e-22)
(-2.74381 -0.0637662 1.12528e-21)
(-2.6562 -0.0749705 4.29456e-21)
(-2.55633 -0.0862567 -3.24882e-21)
(-2.44402 -0.0975643 4.03598e-21)
(-2.31874 -0.108678 5.38357e-21)
(-2.1802 -0.119385 0)
(-2.02885 -0.129574 0)
(-1.86537 -0.13912 -8.40701e-21)
(-1.69044 -0.147998 0)
(-1.50486 -0.156164 0)
(-1.30963 -0.163486 2.3683e-20)
(-1.10601 -0.16977 0)
(-0.895687 -0.174025 1.35961e-20)
(-0.680534 -0.174359 -1.49024e-20)
(-0.462143 -0.171703 0)
(-0.236204 -0.173937 1.61055e-20)
(-0.00217168 -0.180574 0)
(0.235528 -0.184333 0)
(0.477493 -0.182944 -1.79999e-20)
(0.7225 -0.179076 3.63072e-20)
(0.973413 -0.180399 -1.86166e-20)
(1.22884 -0.184372 0)
(1.48809 -0.187183 0)
(1.74994 -0.187669 1.86712e-20)
(2.01198 -0.185644 0)
(2.27126 -0.181255 1.86843e-20)
(2.52568 -0.175085 0)
(2.775 -0.167663 0)
(3.01805 -0.159171 0)
(3.2515 -0.149453 1.85815e-20)
(3.47099 -0.13803 0)
(3.67216 -0.124722 -1.80538e-20)
(3.85104 -0.109658 0)
(4.00409 -0.0931205 0)
(4.12799 -0.0752345 3.41978e-20)
(4.22016 -0.0563796 -3.36054e-20)
(4.27935 -0.0369934 0)
(4.30691 -0.0166327 0)
(4.3087 0.00323593 0)
(4.26839 0.0240533 9.49901e-20)
(4.22248 0.0568967 0)
(4.06585 0.0928088 -6.19661e-20)
(0.0181773 -0.128524 6.8675e-24)
(0.0343888 -0.139742 9.65097e-21)
(0.0647628 -0.146503 0)
(0.0931927 -0.150916 -9.4839e-21)
(0.12196 -0.153177 0)
(0.150963 -0.153609 0)
(0.179675 -0.15255 -5.28152e-24)
(0.207642 -0.150092 4.58973e-21)
(0.234585 -0.146125 4.56584e-21)
(0.260379 -0.140574 4.53263e-21)
(0.284922 -0.133444 0)
(0.308069 -0.124785 0)
(0.329629 -0.114663 -4.46767e-21)
(0.349382 -0.10316 -8.89155e-21)
(0.367089 -0.0903707 8.8485e-21)
(0.382514 -0.0764042 0)
(0.395428 -0.0613878 8.76212e-21)
(0.405629 -0.0454693 -4.34552e-21)
(0.412946 -0.0288234 0)
(0.417236 -0.0116559 8.62356e-21)
(0.418368 0.00581372 4.27017e-21)
(0.416283 0.0233519 -8.51138e-21)
(0.410962 0.0407053 -4.20874e-21)
(0.402356 0.0575082 0)
(0.390398 0.0732798 8.3194e-21)
(0.374961 0.087593 8.2519e-21)
(0.355974 0.100329 0)
(0.333575 0.111529 8.11432e-21)
(0.30804 0.121176 0)
(0.279682 0.129226 7.9777e-21)
(0.248861 0.135631 3.94564e-21)
(0.215979 0.140344 0)
(0.181472 0.143318 0)
(0.145812 0.144514 0)
(0.1095 0.14391 0)
(0.0730589 0.141503 0)
(0.0370254 0.137314 0)
(0.0019416 0.131405 7.52604e-21)
(-0.0317152 0.123909 -1.12081e-20)
(-0.0635098 0.114961 0)
(-0.0930219 0.104727 0)
(-0.119911 0.0934495 0)
(-0.143928 0.0814751 -3.42817e-25)
(-0.164938 0.0692695 7.23514e-21)
(-0.182946 0.0574104 1.43849e-20)
(-0.198112 0.0465281 -1.4301e-20)
(-0.210746 0.0372101 -7.10849e-21)
(-0.221278 0.0298839 7.0671e-21)
(-0.230261 0.0246773 8.27132e-25)
(-0.2384 0.0215355 6.98339e-21)
(-0.246473 0.0204445 0)
(-0.255198 0.0213907 6.89566e-21)
(-0.26519 0.0242777 3.99836e-24)
(-0.276947 0.0289066 0)
(-0.290846 0.0349869 0)
(-0.307142 0.0421577 -6.69908e-21)
(-0.325971 0.0500135 0)
(-0.347364 0.0581323 0)
(-0.371258 0.0661083 6.54103e-21)
(-0.397508 0.0735916 1.29538e-20)
(-0.42589 0.0803351 -6.41131e-21)
(-0.456078 0.0862232 0)
(-0.487564 0.0912166 6.28783e-21)
(-0.519583 0.0951652 0)
(-0.55115 0.0976027 6.16721e-21)
(-0.581359 0.0978124 6.07899e-21)
(-0.609812 0.0953338 -1.20187e-20)
(-0.636736 0.0905054 -5.9344e-21)
(-0.662652 0.0844642 0)
(-0.687992 0.0785879 1.15393e-20)
(-0.712987 0.0738819 0)
(-0.737761 0.0707384 1.68446e-20)
(-0.76244 0.0690578 1.10812e-20)
(-0.787182 0.0685011 1.09389e-20)
(-0.812171 0.068704 -1.08019e-20)
(-0.837592 0.0693919 1.60029e-20)
(-0.863612 0.0704089 0)
(-0.890378 0.0716988 0)
(-0.918028 0.0732691 -1.03051e-20)
(-0.9467 0.0751625 -1.52861e-20)
(-0.976553 0.0774399 0)
(-1.00778 0.0801751 4.98839e-21)
(-1.04061 0.0834519 0)
(-1.07533 0.08736 -1.47064e-20)
(-1.11226 0.0919858 1.75561e-23)
(-1.15177 0.0973989 -1.9734e-23)
(-1.19424 0.103634 9.59053e-21)
(-1.24004 0.110672 0)
(-1.28954 0.118424 -9.48372e-21)
(-1.34299 0.126725 3.42203e-23)
(-1.40058 0.13533 0)
(-1.46236 0.143914 0)
(-1.5282 0.152093 0)
(-1.5978 0.15944 9.32755e-21)
(-1.67065 0.165526 0)
(-1.74605 0.169957 0)
(-1.82314 0.172414 0)
(-1.90091 0.17269 0)
(-1.97825 0.17071 0)
(-2.05403 0.166531 9.55516e-21)
(-2.12713 0.160336 0)
(-2.19652 0.152409 9.52942e-21)
(-2.26128 0.143103 9.54496e-21)
(-2.32068 0.132808 -9.54592e-21)
(-2.37427 0.121937 0)
(-2.4219 0.110919 -9.49217e-21)
(-2.4638 0.10018 0)
(-2.50047 0.0901047 -9.35537e-21)
(-2.53259 0.0809929 9.25674e-21)
(-2.56089 0.0730515 2.75016e-20)
(-2.58613 0.0663969 0)
(-2.60898 0.0610703 2.66413e-20)
(-2.63008 0.0570538 8.75389e-21)
(-2.64997 0.0542836 0)
(-2.6691 0.0526594 1.67457e-20)
(-2.68785 0.05205 1.63698e-20)
(-2.7065 0.0522964 -2.39576e-20)
(-2.72526 0.0532135 0)
(-2.7442 0.0545914 -7.57408e-21)
(-2.76332 0.0561979 -7.36501e-21)
(-2.78248 0.0577822 -2.14824e-20)
(-2.80145 0.0590794 0)
(-2.81985 0.0598175 0)
(-2.83721 0.0597249 0)
(-2.85295 0.0585392 -6.25487e-21)
(-2.8664 0.0560162 0)
(-2.87682 0.0519413 0)
(-2.88345 0.0461391 5.29982e-21)
(-2.88548 0.038462 4.94754e-21)
(-2.88215 0.0288277 0)
(-2.8731 0.0175544 0)
(-2.8578 0.00493154 7.32279e-21)
(-2.83487 -0.010122 0)
(-2.80324 -0.0267116 -5.11732e-21)
(-2.76267 -0.0446569 -4.05057e-21)
(-2.7124 -0.0633988 0)
(-2.65174 -0.0826351 0)
(-2.58004 -0.102129 -4.35383e-22)
(-2.49672 -0.121708 -2.1347e-22)
(-2.40121 -0.141244 -2.14863e-22)
(-2.2929 -0.160708 0)
(-2.17128 -0.180146 -1.62631e-20)
(-2.03627 -0.199423 0)
(-1.88843 -0.218057 0)
(-1.72845 -0.235698 0)
(-1.55703 -0.252145 1.69926e-20)
(-1.37495 -0.267412 0)
(-1.18309 -0.281475 -4.23707e-20)
(-0.982509 -0.294121 -2.34747e-20)
(-0.77441 -0.305206 0)
(-0.560008 -0.313907 -2.74106e-20)
(-0.339751 -0.318528 0)
(-0.112599 -0.319745 0)
(0.122303 -0.322993 -9.67076e-20)
(0.361137 -0.329316 6.66338e-20)
(0.601515 -0.333796 0)
(0.846004 -0.334431 7.02723e-20)
(1.09558 -0.335054 -3.59494e-20)
(1.34922 -0.33821 0)
(1.60497 -0.341295 0)
(1.86322 -0.342135 0)
(2.12414 -0.340077 -1.11607e-19)
(2.3868 -0.33467 0)
(2.65004 -0.325934 -3.73211e-20)
(2.9137 -0.315222 0)
(3.17703 -0.303587 0)
(3.43646 -0.290158 0)
(3.68761 -0.273444 0)
(3.92553 -0.252212 0)
(4.14702 -0.226459 0)
(4.34896 -0.196778 -6.91596e-20)
(4.52838 -0.164023 0)
(4.68253 -0.128677 -3.3732e-20)
(4.80899 -0.0912134 9.91403e-20)
(4.90595 -0.0526329 0)
(4.96829 -0.0134832 0)
(4.99591 0.0218422 -6.34687e-20)
(4.97832 0.058588 -6.32237e-20)
(4.94079 0.110157 6.25775e-20)
(4.80658 0.163539 6.2149e-20)
(0.0192322 -0.177729 -1.51308e-20)
(0.0325643 -0.192568 -1.44761e-20)
(0.0608341 -0.200777 -9.56085e-21)
(0.0861262 -0.20547 -4.74423e-21)
(0.111181 -0.207194 0)
(0.136167 -0.206476 9.31353e-21)
(0.160811 -0.20375 -4.63555e-21)
(0.184916 -0.199258 0)
(0.208319 -0.193054 -4.55773e-21)
(0.230862 -0.185105 0)
(0.252375 -0.175366 9.04669e-21)
(0.272661 -0.163812 0)
(0.2915 -0.150455 4.46778e-21)
(0.308661 -0.13535 8.89444e-21)
(0.323909 -0.118593 -8.85365e-21)
(0.337018 -0.100317 0)
(0.347782 -0.080696 -8.77093e-21)
(0.35602 -0.0599329 0)
(0.361582 -0.0382633 0)
(0.364346 -0.0159509 -8.63686e-21)
(0.364223 0.00672809 0)
(0.361155 0.0295004 -3.26466e-23)
(0.355115 0.0520433 0)
(0.346099 0.0740099 0)
(0.334103 0.0950279 2.99352e-23)
(0.319099 0.114737 -8.25858e-21)
(0.301077 0.132854 -8.21444e-21)
(0.280111 0.149159 -8.11576e-21)
(0.256363 0.163459 0)
(0.230054 0.175594 -1.59683e-20)
(0.201464 0.185433 0)
(0.170921 0.192859 -7.85526e-21)
(0.1388 0.197774 0)
(0.105523 0.200094 0)
(0.0715465 0.199763 7.67027e-21)
(0.0373571 0.196762 0)
(0.00346236 0.191145 -7.56459e-21)
(-0.0296542 0.183043 3.68456e-24)
(-0.0615328 0.172649 1.49016e-20)
(-0.0917169 0.160186 -1.47989e-20)
(-0.119812 0.145942 0)
(-0.145502 0.130312 0)
(-0.16858 0.113822 -7.25903e-21)
(-0.188979 0.097142 0)
(-0.206801 0.081054 -7.18164e-21)
(-0.222317 0.0663774 7.14087e-21)
(-0.23595 0.053862 7.09982e-21)
(-0.248234 0.0440868 0)
(-0.259785 0.037386 -7.01486e-21)
(-0.271266 0.0338571 -6.97007e-21)
(-0.283313 0.0334264 1.3849e-20)
(-0.296437 0.0358808 -6.87478e-21)
(-0.311011 0.0408926 -6.8244e-21)
(-0.32729 0.0480521 0)
(-0.345434 0.0568984 0)
(-0.365536 0.0669421 6.66535e-21)
(-0.387632 0.0776827 0)
(-0.411707 0.0886248 0)