/*--------------------------------*- C++ -*----------------------------------*\
| =========                 |                                                 |
| \\      /  F ield         | OpenFOAM: The Open Source CFD Toolbox           |
|  \\    /   O peration     | Version:  2112                                  |
|   \\  /    A nd           | Website:  www.openfoam.com                      |
|    \\/     M anipulation  |                                                 |
\*---------------------------------------------------------------------------*/
FoamFile
{
    version     2.0;
    format      ascii;
    arch        "LSB;label=32;scalar=64";
    class       volVectorField;
    location    "0.02";
    object      U;
}
// * * * * * * * * * * * * * * * * * * * * * * * * * * * * * * * * * * * * * //

dimensions      [0 1 -1 0 0 0 0];

internalField   nonuniform List<vector> 
122250
(
(9.7997 0.0382953 0.0362573)
(9.51091 0.0533397 0.0407432)
(9.2126 0.0524305 0.0426364)
(8.91277 0.0522593 0.0432602)
(8.61549 0.052701 0.0434318)
(8.32536 0.0526144 0.043393)
(8.04427 0.0521773 0.0432548)
(7.77228 0.0517056 0.0430082)
(7.50707 0.051318 0.042603)
(7.24978 0.0509035 0.0419937)
(6.99703 0.0508114 0.0411561)
(6.75193 0.050751 0.0400439)
(6.50654 0.0518982 0.0386493)
(6.26837 0.052892 0.0368634)
(6.01783 0.0574928 0.0347191)
(5.77523 0.0593337 0.031975)
(5.49944 0.0748924 0.0288462)
(5.22542 0.0805459 0.0252256)
(9.97851 0.0537897 0.0378328)
(10.0442 0.0772605 0.0410098)
(10.084 0.0758722 0.0426633)
(10.102 0.077462 0.0433338)
(10.1015 0.0814272 0.0434976)
(10.0877 0.0849217 0.0434246)
(10.0643 0.087732 0.0432613)
(10.0325 0.0904582 0.0429999)
(9.9924 0.0932342 0.0425842)
(9.94494 0.0962657 0.0419694)
(9.88955 0.0994667 0.0411301)
(9.82786 0.103367 0.0400307)
(9.75789 0.107947 0.0386535)
(9.68211 0.114137 0.0369316)
(9.59552 0.12289 0.0348432)
(9.50217 0.13434 0.0323206)
(9.39372 0.15581 0.0294545)
(9.27643 0.184773 0.0269892)
(9.96574 0.0306123 0.0385485)
(9.99942 0.0502439 0.0410453)
(10.0279 0.0520532 0.0425669)
(10.0495 0.0551008 0.0433542)
(10.0627 0.0609614 0.0435735)
(10.0709 0.0668062 0.0435009)
(10.0773 0.0718895 0.0433368)
(10.0818 0.0766839 0.0430854)
(10.0839 0.0816069 0.0426861)
(10.083 0.0868123 0.0420924)
(10.0792 0.0925304 0.0412818)
(10.0717 0.0990107 0.0402254)
(10.0612 0.106815 0.0389111)
(10.0467 0.11651 0.0373011)
(10.0294 0.129606 0.035389)
(10.008 0.147173 0.0332105)
(9.98665 0.173785 0.0309338)
(9.96603 0.21099 0.0293247)
(9.96623 0.0257478 0.0393653)
(9.9919 0.0503643 0.0413899)
(10.0147 0.0577777 0.0426704)
(10.0333 0.0617972 0.0434769)
(10.0436 0.0676149 0.0437379)
(10.0486 0.0738663 0.043662)
(10.052 0.0794387 0.0434869)
(10.0542 0.0845539 0.0432393)
(10.0548 0.0897557 0.0428571)
(10.0535 0.0953665 0.0422917)
(10.0501 0.10168 0.0415201)
(10.0446 0.109003 0.0405237)
(10.0369 0.117902 0.0392971)
(10.0277 0.129056 0.0378295)
(10.0167 0.143626 0.0361393)
(10.0059 0.163083 0.03431)
(9.996 0.188996 0.0325415)
(9.99328 0.222479 0.0314356)
(9.9668 0.0201826 0.040127)
(9.98676 0.0422171 0.0417464)
(10.0058 0.0512822 0.0427483)
(10.0239 0.0556476 0.0435332)
(10.0345 0.0611714 0.043853)
(10.0394 0.0677844 0.0438008)
(10.0423 0.074197 0.0436263)
(10.044 0.080215 0.0433874)
(10.0442 0.0863059 0.0430297)
(10.0426 0.0928889 0.042503)
(10.0388 0.100289 0.0417839)
(10.0331 0.108866 0.0408619)
(10.0256 0.119117 0.0397412)
(10.0168 0.131715 0.0384315)
(10.007 0.147571 0.0369716)
(9.99789 0.16764 0.0354588)
(9.9902 0.192348 0.0340701)
(9.98785 0.22112 0.0332492)
(9.96765 0.0155569 0.0408248)
(9.9831 0.0347551 0.042141)
(9.99881 0.0461165 0.0428938)
(10.016 0.0526282 0.0436328)
(10.0269 0.0590811 0.0440033)
(10.032 0.0664978 0.043987)
(10.0349 0.0739474 0.0438207)
(10.0367 0.0810476 0.0435912)
(10.037 0.0881399 0.0432595)
(10.0357 0.0957063 0.042777)
(10.0324 0.104127 0.0421195)
(10.0274 0.113815 0.0412829)
(10.0209 0.125195 0.0402808)
(10.0135 0.138908 0.0391375)
(10.0056 0.155508 0.0379022)
(9.99852 0.175574 0.0366649)
(9.99293 0.19877 0.0355647)
(9.99129 0.224355 0.0349597)
(9.96875 0.0119627 0.0414747)
(9.98075 0.0281665 0.0425733)
(9.99344 0.0411854 0.0431087)
(10.0094 0.0496853 0.0437724)
(10.0203 0.056965 0.0441723)
(10.0257 0.0648094 0.0441948)
(10.0287 0.0728707 0.0440454)
(10.0305 0.0807589 0.0438298)
(10.031 0.088669 0.0435275)
(10.0301 0.097066 0.0430951)
(10.0275 0.106357 0.0425087)
(10.0234 0.116977 0.0417684)
(10.018 0.129293 0.040895)
(10.0122 0.143828 0.0399217)
(10.0061 0.160851 0.0388997)
(10.001 0.180668 0.0379033)
(9.99724 0.202663 0.0370378)
(9.99656 0.226366 0.0366164)
(9.97007 0.00920309 0.042087)
(9.97948 0.0222675 0.0430302)
(9.98953 0.0360389 0.0433822)
(10.004 0.0462343 0.0439535)
(10.0148 0.0544344 0.0443621)
(10.0204 0.0627466 0.0444243)
(10.0235 0.0713828 0.0443026)
(10.0254 0.0800534 0.0441094)
(10.0262 0.0888355 0.0438424)
(10.0258 0.0981226 0.0434671)
(10.0239 0.10831 0.0429611)
(10.0207 0.119821 0.0423269)
(10.0167 0.132967 0.0415898)
(10.0123 0.148131 0.0407865)
(10.008 0.165426 0.0399647)
(10.0047 0.184926 0.0391841)
(10.0025 0.20611 0.0385229)
(10.0027 0.228493 0.0382635)
(9.9716 0.00705847 0.0426689)
(9.97897 0.0170095 0.043501)
(9.98682 0.030857 0.0437054)
(9.99978 0.0424669 0.0441809)
(10.0102 0.0517124 0.0445817)
(10.016 0.0606288 0.0446812)
(10.0193 0.0698592 0.0445966)
(10.0214 0.0792795 0.0444356)
(10.0226 0.0889018 0.0442113)
(10.0227 0.0990434 0.0438997)
(10.0216 0.110069 0.0434816)
(10.0195 0.122374 0.0429608)
(10.0167 0.136201 0.0423637)
(10.0138 0.151824 0.0417275)
(10.0112 0.169224 0.0410943)
(10.0095 0.188392 0.0405113)
(10.0088 0.208862 0.0400339)
(10.01 0.230279 0.039927)
(9.97336 0.00534476 0.0432265)
(9.97914 0.012273 0.0439802)
(9.98521 0.0257923 0.0440713)
(9.99668 0.0385362 0.0444574)
(10.0065 0.0488379 0.0448388)
(10.0125 0.0584268 0.0449711)
(10.0161 0.0682413 0.0449301)
(10.0185 0.0783563 0.0448109)
(10.02 0.0887589 0.0446365)
(10.0207 0.0996694 0.0443945)
(10.0205 0.111392 0.0440704)
(10.0194 0.124303 0.0436681)
(10.0179 0.1386 0.0432132)
(10.0165 0.154505 0.0427405)
(10.0155 0.171893 0.0422862)
(10.0153 0.190741 0.0418866)
(10.0161 0.210592 0.0415806)
(10.0185 0.231294 0.0416262)
(9.97535 0.0040246 0.0437643)
(9.97984 0.00805684 0.0444641)
(9.98454 0.0209518 0.0444735)
(9.99464 0.0345359 0.0447828)
(10.0038 0.0458269 0.0451383)
(10.0098 0.0561091 0.045298)
(10.0138 0.0664481 0.0453048)
(10.0165 0.0771292 0.0452367)
(10.0185 0.0882038 0.0451208)
(10.0198 0.0998238 0.0449544)
(10.0205 0.112188 0.0447283)
(10.0206 0.125603 0.0444475)
(10.0204 0.140205 0.0441354)
(10.0204 0.156198 0.0438232)
(10.0209 0.173395 0.0435407)
(10.0223 0.191814 0.0433154)
(10.0245 0.211004 0.0431748)
(10.0282 0.231034 0.0433779)
(9.97738 0.00305914 0.044241)
(9.98093 0.00451389 0.0449084)
(9.9847 0.0166819 0.044868)
(9.99368 0.0307994 0.0451205)
(10.0022 0.042873 0.0454506)
(10.0081 0.0538049 0.0456302)
(10.0124 0.0646537 0.0456816)
(10.0155 0.0757994 0.0456664)
(10.018 0.0873434 0.0456114)
(10.02 0.099429 0.04552)
(10.0215 0.112217 0.045387)
(10.0226 0.125985 0.0452182)
(10.0236 0.140811 0.0450352)
(10.0249 0.156865 0.0448654)
(10.0267 0.173881 0.0447332)
(10.0295 0.191906 0.0446601)
(10.0331 0.210457 0.044667)
(10.0381 0.22979 0.045018)
(9.9796 0.00232023 0.0447097)
(9.98235 0.00140212 0.045357)
(9.98544 0.0127084 0.0452863)
(9.99343 0.0270845 0.0454954)
(10.0013 0.0397437 0.0458029)
(10.0072 0.0512227 0.0460012)
(10.0117 0.0625142 0.046098)
(10.0153 0.0740985 0.0461395)
(10.0182 0.0861126 0.04615)
(10.0209 0.0986342 0.0461369)
(10.0232 0.11173 0.0460988)
(10.0254 0.12564 0.0460421)
(10.0276 0.140408 0.0459865)
(10.0302 0.156239 0.0459554)
(10.0334 0.17283 0.0459685)
(10.0375 0.190312 0.0460424)
(10.0424 0.208147 0.0461936)
(10.0488 0.226764 0.0466938)
(9.98242 0.0017674 0.0452319)
(9.98441 -0.00190628 0.0458659)
(9.98692 0.0085685 0.0457844)
(9.99395 0.0231304 0.0459606)
(10.0011 0.0361599 0.0462488)
(10.0069 0.0481028 0.046469)
(10.0117 0.0597875 0.0466189)
(10.0158 0.0716729 0.0467302)
(10.0195 0.0839607 0.0468222)
(10.023 0.0967553 0.0469033)
(10.0262 0.110094 0.0469754)
(10.0294 0.124181 0.047046)
(10.0328 0.138985 0.0471326)
(10.0368 0.154653 0.0472545)
(10.0415 0.170774 0.0474269)
(10.0472 0.187477 0.0476623)
(10.0538 0.204173 0.0479743)
(10.0619 0.221424 0.0486439)
(9.9859 0.00137133 0.0458092)
(9.98741 -0.00510189 0.0464366)
(9.98951 0.00390754 0.0463641)
(9.99541 0.0181395 0.0465256)
(10.0019 0.0316299 0.0468035)
(10.0077 0.0440073 0.047052)
(10.0128 0.0560263 0.0472631)
(10.0174 0.068249 0.0474566)
(10.0218 0.0808704 0.0476458)
(10.0263 0.0938973 0.0478376)
(10.0307 0.107228 0.0480354)
(10.0354 0.121007 0.0482481)
(10.0403 0.1352 0.0484915)
(10.0458 0.150067 0.0487803)
(10.0519 0.165212 0.0491246)
(10.059 0.180891 0.0495332)
(10.067 0.196396 0.0500175)
(10.0766 0.212429 0.0508702)
(9.99048 0.00126087 0.0463965)
(9.99111 -0.00827385 0.0470604)
(9.99306 -0.000884939 0.0470285)
(9.99844 0.012814 0.0471954)
(10.0044 0.0264083 0.047479)
(10.0099 0.0390301 0.0477664)
(10.0153 0.0512018 0.0480491)
(10.0207 0.0633853 0.0483382)
(10.0261 0.0757844 0.0486404)
(10.0314 0.0885306 0.0489589)
(10.0368 0.101646 0.0492961)
(10.0424 0.115301 0.0496615)
(10.0486 0.129306 0.0500694)
(10.0558 0.143682 0.0505309)
(10.0638 0.157779 0.0510521)
(10.0731 0.171718 0.051639)
(10.0833 0.184764 0.052301)
(10.0951 0.197733 0.0533432)
(9.99605 0.00157577 0.0470123)
(9.99625 -0.0115055 0.0477259)
(9.99845 -0.00567654 0.0477607)
(10.0029 0.00751907 0.0479621)
(10.0082 0.0204843 0.048269)
(10.0138 0.0324974 0.0486143)
(10.0195 0.044226 0.0489846)
(10.0253 0.0562941 0.0493817)
(10.0316 0.0688404 0.0498078)
(10.0382 0.0815888 0.0502634)
(10.0452 0.0941137 0.0507508)
(10.0526 0.10638 0.0512791)
(10.0605 0.118311 0.051859)
(10.0689 0.130297 0.0524965)
(10.0779 0.142013 0.0531938)
(10.088 0.153905 0.0539538)
(10.0991 0.165154 0.0547835)
(10.1121 0.17661 0.0560003)
(10.0029 0.00221131 0.0476392)
(10.0027 -0.014296 0.0483976)
(10.0054 -0.0108938 0.0485369)
(10.0092 0.000809085 0.0488013)
(10.0139 0.0129979 0.049153)
(10.0195 0.024641 0.0495748)
(10.0259 0.0359119 0.0500497)
(10.0329 0.0469071 0.0505693)
(10.0401 0.057723 0.0511299)
(10.0472 0.0686443 0.0517283)
(10.0544 0.0799931 0.0523674)
(10.0622 0.0920419 0.0530545)
(10.0712 0.104287 0.0537959)
(10.0817 0.116218 0.0545932)
(10.0934 0.126519 0.0554476)
(10.1066 0.135058 0.0563618)
(10.1206 0.14103 0.057339)
(10.1356 0.145598 0.0587093)
(10.0111 0.00305651 0.0481484)
(10.0108 -0.0170175 0.0489812)
(10.0143 -0.0159484 0.0492703)
(10.0174 -0.00572871 0.0496346)
(10.0216 0.00447836 0.0500608)
(10.0279 0.0133154 0.0505853)
(10.0353 0.0221701 0.0511849)
(10.0428 0.0325771 0.0518361)
(10.0495 0.0445329 0.0525293)
(10.056 0.0565038 0.0532644)
(10.0635 0.0666033 0.0540496)
(10.0733 0.0740757 0.05489)
(10.0858 0.0792335 0.0557818)
(10.1005 0.0834038 0.0567191)
(10.116 0.0876121 0.0577021)
(10.1314 0.0926065 0.0587341)
(10.1454 0.0982135 0.0598155)
(10.1579 0.104274 0.0612872)
(10.0186 0.00346829 0.0483005)
(10.0182 -0.0188357 0.0492223)
(10.0225 -0.0198906 0.0496793)
(10.0258 -0.0123005 0.0501645)
(10.0306 -0.00506754 0.0506824)
(10.037 0.00172905 0.0513137)
(10.0434 0.0103663 0.0520235)
(10.0497 0.0213829 0.052779)
(10.0568 0.0326295 0.0535727)
(10.0659 0.0411328 0.0544089)
(10.0773 0.045368 0.0552968)
(10.0906 0.0464353 0.056236)
(10.1041 0.0468465 0.0572162)
(10.1165 0.0493383 0.0582295)
(10.1272 0.0551805 0.0592777)
(10.1365 0.0640476 0.0603644)
(10.1444 0.0745092 0.0614886)
(10.1521 0.0845811 0.0629964)
(10.024 0.00334471 0.0481913)
(10.0238 -0.0199701 0.0492009)
(10.0294 -0.0232212 0.0498144)
(10.0331 -0.018288 0.0504173)
(10.0377 -0.0125163 0.0510243)
(10.0436 -0.00578252 0.0517476)
(10.0496 0.00256565 0.0525446)
(10.0566 0.0112738 0.0533697)
(10.0655 0.0181747 0.0542244)
(10.0768 0.0220809 0.0551218)
(10.0895 0.0237399 0.056073)
(10.1019 0.0253693 0.0570728)
(10.1126 0.0287993 0.0581058)
(10.1213 0.0350704 0.0591621)
(10.1283 0.0436108 0.0602437)
(10.1349 0.0530159 0.0613537)
(10.1418 0.0615725 0.0624903)
(10.1499 0.0678611 0.064004)
(10.0283 0.00267814 0.0478894)
(10.0287 -0.0213758 0.0489985)
(10.0356 -0.0264924 0.0497778)
(10.0397 -0.0233285 0.0505134)
(10.0441 -0.0184133 0.0512168)
(10.0499 -0.0124087 0.0520191)
(10.0566 -0.00582152 0.0528779)
(10.0649 6.73546e-05 0.0537617)
(10.075 0.00418783 0.0546709)
(10.0862 0.00659786 0.0556186)
(10.0974 0.00840629 0.0566129)
(10.1076 0.0112049 0.0576474)
(10.1163 0.015995 0.058708)
(10.124 0.0229353 0.0597839)
(10.1315 0.0311677 0.0608785)
(10.1394 0.0393839 0.0619957)
(10.1483 0.0462446 0.0631329)
(10.1583 0.0506761 0.0646438)
(10.0316 0.00141793 0.0474355)
(10.0331 -0.0231935 0.0486628)
(10.0414 -0.0298039 0.0496306)
(10.0461 -0.0279228 0.0505171)
(10.0509 -0.0236863 0.0513196)
(10.0569 -0.0186019 0.0521866)
(10.064 -0.0137062 0.0530897)
(10.0727 -0.00996242 0.0540103)
(10.0829 -0.0076708 0.0549593)
(10.0938 -0.00611677 0.0559453)
(10.1045 -0.00414604 0.0569726)
(10.1141 -0.000738744 0.0580353)
(10.1226 0.00450838 0.0591225)
(10.1304 0.0112467 0.0602108)
(10.1384 0.0183398 0.0613155)
(10.1473 0.0246674 0.0624382)
(10.1572 0.029251 0.0635747)
(10.168 0.0313889 0.0650807)
(10.0342 -0.000482001 0.0468638)
(10.0371 -0.0255304 0.0482336)
(10.0473 -0.0331975 0.0494234)
(10.0529 -0.0321487 0.0504769)
(10.058 -0.0284731 0.0513696)
(10.0643 -0.0244221 0.0522828)
(10.0721 -0.0212095 0.0532198)
(10.0812 -0.0192346 0.0541723)
(10.0912 -0.0180499 0.0551468)
(10.1011 -0.0166051 0.0561513)
(10.1104 -0.0138883 0.0571942)
(10.1191 -0.0094433 0.0582708)
(10.1276 -0.00358394 0.0593594)
(10.1362 0.00305275 0.0604593)
(10.1456 0.0092907 0.0615677)
(10.1562 0.0142674 0.062692)
(10.1678 0.0174157 0.0638265)
(10.18 0.0182998 0.0653283)
(10.0362 -0.00316196 0.0461726)
(10.0411 -0.0285962 0.0477486)
(10.0534 -0.0364214 0.0491986)
(10.0603 -0.0356053 0.0504223)
(10.0659 -0.0326509 0.051385)
(10.0725 -0.0300327 0.0523254)
(10.0803 -0.0285381 0.0532867)
(10.0893 -0.0279647 0.0542705)
(10.099 -0.0274872 0.055278)
(10.1088 -0.0261579 0.0563117)
(10.1183 -0.0234418 0.0573761)
(10.1275 -0.0194521 0.0584627)
(10.1367 -0.0148007 0.0595537)
(10.1463 -0.0100942 0.060653)
(10.1567 -0.00603323 0.0617624)
(10.1682 -0.00309935 0.0628876)
(10.1807 -0.00155897 0.0640219)
(10.1934 -0.00168105 0.065516)
(10.0378 -0.0069499 0.0453773)
(10.0457 -0.0330375 0.0472536)
(10.0608 -0.0400615 0.0490158)
(10.0687 -0.0382531 0.0503862)
(10.0741 -0.0349304 0.0513711)
(10.0808 -0.0327243 0.052304)
(10.0889 -0.0319943 0.0532772)
(10.0982 -0.032085 0.0542896)
(10.1076 -0.0319181 0.0553245)
(10.1165 -0.0305952 0.0563738)
(10.125 -0.0278098 0.0574412)
(10.1338 -0.0239368 0.058523)
(10.1433 -0.0196919 0.0596104)
(10.154 -0.0156485 0.0607073)
(10.1662 -0.0123743 0.0618196)
(10.1799 -0.0101946 0.0629479)
(10.1945 -0.00932856 0.0640842)
(10.209 -0.00989284 0.0655869)
(10.0393 -0.0118331 0.0444516)
(10.0515 -0.0390813 0.0467734)
(10.0701 -0.0460193 0.048917)
(10.0792 -0.0449509 0.0504274)
(10.0845 -0.0433655 0.0514088)
(10.0911 -0.0429679 0.0523244)
(10.0993 -0.0433396 0.0533101)
(10.1085 -0.0436763 0.0543492)
(10.1176 -0.0432243 0.0554049)
(10.1261 -0.0416059 0.0564629)
(10.1345 -0.0390347 0.0575292)
(10.1437 -0.0361094 0.0586052)
(10.154 -0.0334941 0.0596873)
(10.1659 -0.0315457 0.0607807)
(10.1796 -0.0303793 0.061893)
(10.1947 -0.029957 0.0630245)
(10.2106 -0.0302523 0.0641645)
(10.2262 -0.0311951 0.065667)
(10.0406 -0.015925 0.0433762)
(10.0583 -0.0379355 0.0462658)
(10.0807 -0.0397177 0.0487664)
(10.091 -0.037716 0.050348)
(10.0971 -0.0371705 0.0513077)
(10.1052 -0.0377253 0.0522265)
(10.1156 -0.038661 0.0532436)
(10.1266 -0.0394732 0.0543159)
(10.1363 -0.0395616 0.0553932)
(10.1446 -0.0385942 0.0564599)
(10.1527 -0.0368272 0.0575249)
(10.1619 -0.0348857 0.0585939)
(10.1734 -0.0333868 0.0596685)
(10.1874 -0.0326625 0.0607568)
(10.2041 -0.0325065 0.0618686)
(10.2225 -0.0327998 0.0630035)
(10.242 -0.0333654 0.0641491)
(10.2606 -0.0342087 0.0656615)
(10.048 -0.0355708 0.0425476)
(10.0895 -0.0596119 0.046184)
(10.1247 -0.0580058 0.0489119)
(10.1399 -0.0555114 0.0504091)
(10.148 -0.0557713 0.0513011)
(10.1568 -0.0568792 0.0522201)
(10.1657 -0.0574921 0.0532579)
(10.1718 -0.0570211 0.0543451)
(10.1734 -0.0553733 0.055429)
(10.1715 -0.0530925 0.0564949)
(10.1684 -0.0510974 0.0575519)
(10.1667 -0.0502589 0.0586077)
(10.1675 -0.0508279 0.0596697)
(10.1713 -0.0526131 0.0607501)
(10.1769 -0.0548652 0.0618623)
(10.1838 -0.0570375 0.0630037)
(10.1899 -0.0586645 0.0641605)
(10.1951 -0.0595598 0.0656792)
(9.94919 -0.0258793 0.0404807)
(9.78884 -0.0427285 0.0458214)
(9.62593 -0.0423895 0.0489123)
(9.45385 -0.0414216 0.0503676)
(9.28535 -0.0418917 0.0512461)
(9.12454 -0.0426738 0.052198)
(8.97048 -0.0427191 0.0532755)
(8.82444 -0.0414449 0.0543973)
(8.68894 -0.0390272 0.0555099)
(8.5657 -0.0363926 0.0565972)
(8.45344 -0.0346563 0.0576665)
(8.34871 -0.0344987 0.0587284)
(8.24672 -0.0357756 0.0597966)
(8.14519 -0.0378268 0.0608889)
(8.04228 -0.039688 0.0620219)
(7.94055 -0.0407655 0.0631908)
(7.83918 -0.0407519 0.0643806)
(7.74361 -0.0397321 0.0658408)
(9.79721 0.0397207 0.00118155)
(9.50683 0.0532275 0.00084957)
(9.20912 0.0520451 0.00065893)
(8.90985 0.0518229 0.000562574)
(8.61184 0.0522392 0.000470206)
(8.32066 0.0521241 0.00036844)
(8.03708 0.0516895 0.000258109)
(7.76275 0.0512604 0.000132537)
(7.49199 0.0509954 -1.43174e-05)
(7.23038 0.0507742 -0.000190839)
(6.96567 0.0510503 -0.000400284)
(6.71392 0.0514407 -0.000658004)
(6.44269 0.0536969 -0.000962398)
(6.19639 0.0554808 -0.00133995)
(5.88863 0.0636658 -0.00177394)
(5.64049 0.0663371 -0.00230382)
(5.23901 0.093809 -0.00286372)
(4.96799 0.101781 -0.00353212)
(9.9769 0.0545718 0.0010792)
(10.041 0.0769193 0.000843059)
(10.0807 0.0758239 0.000661337)
(10.0992 0.0776976 0.000563389)
(10.0983 0.0818395 0.000471745)
(10.0838 0.0855836 0.000370695)
(10.0585 0.0885301 0.000261285)
(10.0251 0.0916941 0.000137157)
(9.98116 0.0946696 -7.79993e-06)
(9.93047 0.0986237 -0.000181171)
(9.86759 0.102135 -0.00038711)
(9.80032 0.108029 -0.000637736)
(9.71579 0.113267 -0.000935567)
(9.63071 0.12369 -0.00129761)
(9.51583 0.13492 -0.00172113)
(9.40577 0.154753 -0.00221849)
(9.24636 0.187313 -0.00277152)
(9.09479 0.235332 -0.00339452)
(9.96407 0.0326349 0.0010373)
(9.99649 0.0501256 0.00083946)
(10.0249 0.0517305 0.000662214)
(10.0468 0.0549495 0.000561783)
(10.0596 0.0609678 0.000471392)
(10.067 0.0670135 0.000371672)
(10.0718 0.0722614 0.000263707)
(10.0745 0.0774198 0.000141388)
(10.0738 0.082698 -9.10229e-07)
(10.0696 0.0887078 -0.000170568)
(10.0607 0.0952526 -0.000371409)
(10.0473 0.103408 -0.000613889)
(10.0283 0.113208 -0.00090145)
(10.0037 0.126532 -0.00124473)
(9.97262 0.144907 -0.00164326)
(9.93488 0.170874 -0.00210308)
(9.89386 0.212219 -0.00261153)
(9.85318 0.271538 -0.00319217)
(9.96471 0.0280195 0.000978691)
(9.98937 0.0502488 0.000823067)
(10.0119 0.0574482 0.000660779)
(10.0307 0.0617462 0.000560665)
(10.0406 0.0678144 0.000471732)
(10.0447 0.0743484 0.000373867)
(10.0466 0.0801659 0.000267615)
(10.047 0.0857162 0.000147742)
(10.0449 0.0913833 8.44874e-06)
(10.0401 0.0978737 -0.000156478)
(10.0321 0.105207 -0.000351367)
(10.0206 0.114338 -0.00058393)
(10.0053 0.125585 -0.000858641)
(9.98652 0.140652 -0.00118091)
(9.96398 0.160986 -0.00155306)
(9.9395 0.189295 -0.00197328)
(9.91494 0.228973 -0.0024371)
(9.89962 0.282313 -0.00294843)
(9.9654 0.022958 0.000928831)
(9.98453 0.042268 0.000805925)
(10.0033 0.0509045 0.000657634)
(10.0213 0.055541 0.00055878)
(10.0315 0.0613625 0.000471615)
(10.0355 0.0682869 0.000376075)
(10.037 0.0750097 0.000272084)
(10.0369 0.0814921 0.000155183)
(10.0345 0.0881543 1.96765e-05)
(10.0294 0.095665 -0.000139754)
(10.0212 0.104282 -0.000327366)
(10.0099 0.114759 -0.000548931)
(9.99514 0.127644 -0.00080862)
(9.97756 0.144345 -0.00110949)
(9.95716 0.166059 -0.00145245)
(9.93617 0.194909 -0.00183294)
(9.91587 0.231873 -0.00224362)
(9.90271 0.277277 -0.00267809)
(9.96635 0.0187152 0.000883509)
(9.98113 0.0349552 0.000785238)
(9.99646 0.0457377 0.000652189)
(10.0135 0.0525296 0.000556482)
(10.024 0.059331 0.000471554)
(10.0282 0.0671066 0.000378786)
(10.0298 0.0749334 0.000277569)
(10.0297 0.082546 0.000164198)
(10.0276 0.0903082 3.32604e-05)
(10.023 0.0988696 -0.000119846)
(10.0155 0.108654 -0.000298918)
(10.0051 0.120353 -0.000508299)
(9.99195 0.134566 -0.000751251)
(9.9765 0.152452 -0.0010292)
(9.95915 0.174885 -0.00134085)
(9.94174 0.203275 -0.00168034)
(9.92538 0.23732 -0.00203632)
(9.91416 0.276853 -0.00240304)
(9.96752 0.0154541 0.000841566)
(9.97899 0.0285464 0.000762437)
(9.99127 0.0408374 0.000644565)
(10.007 0.0496062 0.000553535)
(10.0175 0.057272 0.000471478)
(10.0221 0.0655177 0.000382)
(10.0237 0.0740122 0.000284139)
(10.0237 0.082468 0.000174909)
(10.0219 0.0911285 4.93628e-05)
(10.0179 0.100598 -9.64973e-05)
(10.0113 0.111373 -0.000265831)
(10.0022 0.124119 -0.000461783)
(9.99074 0.139379 -0.000686505)
(9.97759 0.158119 -0.000939932)
(9.96323 0.180835 -0.00121924)
(9.94911 0.208399 -0.00151668)
(9.9361 0.240068 -0.00182058)
(9.92695 0.275708 -0.00212528)
(9.96892 0.0129767 0.000802509)
(9.97789 0.0228185 0.000738613)
(9.98752 0.0357398 0.000634992)
(10.0018 0.0461856 0.00054988)
(10.0121 0.054803 0.000471445)
(10.0169 0.0635582 0.000385801)
(10.0187 0.0726811 0.000291909)
(10.0189 0.0819732 0.000187479)
(10.0175 0.0915783 6.81608e-05)
(10.0141 0.102016 -6.94984e-05)
(10.0085 0.11378 -0.000227949)
(10.0008 0.127502 -0.000409261)
(9.99114 0.143653 -0.000614461)
(9.98029 0.162976 -0.000842345)
(9.96868 0.185719 -0.00108871)
(9.95751 0.212377 -0.00134523)
(9.94737 0.242221 -0.0016003)
(9.94018 0.275025 -0.0018465)
(9.97052 0.0110922 0.000765917)
(9.97754 0.0177257 0.00071436)
(9.98498 0.0306233 0.000623853)
(9.99769 0.0424599 0.000545501)
(10.0076 0.0521493 0.000471472)
(10.0126 0.0615495 0.000390271)
(10.0148 0.0713144 0.000301002)
(10.0153 0.0814079 0.000202068)
(10.0143 0.0919192 8.98039e-05)
(10.0116 0.103279 -3.87134e-05)
(10.0071 0.115948 -0.000185245)
(10.0008 0.130516 -0.000350889)
(9.99304 0.147352 -0.000535623)
(9.98443 0.167017 -0.000737443)
(9.97539 0.189575 -0.000951282)
(9.96692 0.215336 -0.00116882)
(9.95936 0.243588 -0.00137824)
(9.95409 0.274216 -0.00157161)
(9.97233 0.00961413 0.000731242)
(9.97783 0.0131603 0.000689894)
(9.98351 0.0256419 0.000611412)
(9.99474 0.0385805 0.00054044)
(10.0041 0.0493503 0.000471579)
(10.0093 0.0594617 0.000395458)
(10.0118 0.0698514 0.000311472)
(10.0127 0.0806853 0.000218765)
(10.0122 0.0920302 0.000114377)
(10.0104 0.104213 -4.09771e-06)
(10.007 0.117627 -0.000137795)
(10.0022 0.132813 -0.000287004)
(9.99631 0.150074 -0.000450803)
(9.98986 0.169863 -0.000626554)
(9.98324 0.192092 -0.000808851)
(9.97726 0.216974 -0.000989564)
(9.97212 0.243829 -0.00115748)
(9.96888 0.272714 -0.00130561)
(9.97437 0.00848463 0.000698112)
(9.97866 0.009099 0.000665822)
(9.98298 0.0208965 0.000597988)
(9.99284 0.0346331 0.000534684)
(10.0016 0.0464178 0.000471773)
(10.0069 0.0572598 0.00040141)
(10.0097 0.068208 0.000323359)
(10.0111 0.0796475 0.000237599)
(10.0113 0.0917079 0.000141853)
(10.0103 0.104637 3.42235e-05)
(10.0081 0.11871 -8.58441e-05)
(10.0049 0.134378 -0.000218024)
(10.0008 0.151859 -0.000360811)
(9.99645 0.171539 -0.000511115)
(9.99215 0.193237 -0.000663469)
(9.98856 0.217159 -0.000810251)
(9.98575 0.242642 -0.000941412)
(9.98463 0.269953 -0.00105097)
(9.97646 0.00768418 0.000668652)
(9.97986 0.0057146 0.00064425)
(9.98325 0.0167439 0.000584773)
(9.99201 0.0309491 0.000528626)
(10.0002 0.0435363 0.000471965)
(10.0054 0.0550606 0.000407524)
(10.0086 0.0665434 0.000335523)
(10.0105 0.0784741 0.000256834)
(10.0113 0.0910334 0.000169671)
(10.0113 0.104452 7.25668e-05)
(10.0102 0.118952 -3.45196e-05)
(10.0083 0.134931 -0.000150822)
(10.0059 0.152524 -0.000274521)
(10.0034 0.172052 -0.000402373)
(10.0011 0.193239 -0.000529112)
(9.99959 0.216291 -0.000647833)
(9.99888 0.240515 -0.000749842)
(9.99981 0.266374 -0.000830095)
(9.97874 0.00712099 0.000639925)
(9.98141 0.00265763 0.000623436)
(9.9841 0.0128725 0.000571454)
(9.99187 0.0273593 0.000522058)
(9.99948 0.0405491 0.000472019)
(10.0047 0.0526033 0.000414022)
(10.0083 0.0645335 0.000348603)
(10.0106 0.0769203 0.000277476)
(10.0121 0.0899594 0.000199321)
(10.0129 0.10381 0.000113091)
(10.013 0.118594 1.91388e-05)
(10.0126 0.134651 -8.14657e-05)
(10.0118 0.152065 -0.00018675)
(10.0111 0.171161 -0.000293478)
(10.0107 0.191611 -0.000396732)
(10.0112 0.213679 -0.000490429)
(10.0125 0.23663 -0.00056731)
(10.0154 0.261083 -0.000623236)
(9.9816 0.00667583 0.000608808)
(9.98359 -0.000364654 0.000598308)
(9.9858 0.00855526 0.000554821)
(9.9926 0.0230477 0.000515178)
(9.99955 0.0368717 0.000473422)
(10.0047 0.0495433 0.000422426)
(10.0087 0.0619137 0.00036493)
(10.0118 0.0746217 0.000303012)
(10.0141 0.0879431 0.000235527)
(10.016 0.10206 0.00016203)
(10.0173 0.117051 8.32289e-05)
(10.0182 0.133191 3.11572e-07)
(10.0191 0.150471 -8.47942e-05)
(10.0204 0.169135 -0.000169018)
(10.0222 0.188744 -0.000247974)
(10.0249 0.209547 -0.000316612)
(10.0285 0.230774 -0.00036933)
(10.0337 0.253165 -0.000402923)
(9.98528 0.00649934 0.000566251)
(9.98643 -0.00352037 0.000568447)
(9.98841 0.00426821 0.00053863)
(9.99455 0.018743 0.000508087)
(10.0009 0.0327031 0.000475979)
(10.006 0.0456445 0.00043273)
(10.0103 0.0583253 0.000384613)
(10.014 0.0713411 0.00033384)
(10.0173 0.0849517 0.000278993)
(10.0204 0.0992444 0.000220169)
(10.0233 0.11415 0.000158402)
(10.0261 0.129861 9.48321e-05)
(10.029 0.146347 3.11509e-05)
(10.0323 0.163932 -2.99358e-05)
(10.0361 0.182194 -8.47545e-05)
(10.0409 0.201477 -0.000129405)
(10.0466 0.220919 -0.000159969)
(10.054 0.241369 -0.000173946)
(9.98973 0.00661911 0.000540272)
(9.99058 -0.00666267 0.000540989)
(9.99246 -0.000304899 0.000514792)
(9.99755 0.0138428 0.00049578)
(10.0032 0.0277269 0.000472535)
(10.0085 0.0407948 0.000443364)
(10.0134 0.0535971 0.000408674)
(10.018 0.0665524 0.000370595)
(10.0225 0.0799152 0.000329994)
(10.0268 0.0938804 0.000287616)
(10.031 0.108482 0.000244367)
(10.0352 0.123905 0.000201065)
(10.0399 0.139939 0.000159122)
(10.0455 0.156667 0.000120914)
(10.0518 0.173421 8.9344e-05)
(10.0593 0.190423 6.70575e-05)
(10.0679 0.206815 5.63399e-05)
(10.0779 0.223546 5.94529e-05)
(9.99538 0.00700267 0.000505232)
(9.99571 -0.00962582 0.000507286)
(9.9978 -0.00527661 0.000497594)
(10.0023 0.00806818 0.000486838)
(10.0076 0.0216131 0.000474618)
(10.0129 0.0342469 0.00045742)
(10.0182 0.0466492 0.00043604)
(10.0236 0.0594838 0.000412399)
(10.0292 0.0729262 0.000387662)
(10.0351 0.0867576 0.000363125)
(10.0412 0.100585 0.00033958)
(10.0477 0.114408 0.000317133)
(10.0544 0.128151 0.00029656)
(10.0617 0.142234 0.000279905)
(10.0696 0.156314 0.000269443)
(10.0786 0.170868 0.000266794)
(10.0887 0.184982 0.000273087)
(10.1006 0.19957 0.000290982)
(10.0023 0.00770814 0.000446591)
(10.0023 -0.0124192 0.000466493)
(10.0051 -0.0103078 0.00047251)
(10.009 0.00159592 0.000476284)
(10.0137 0.014272 0.000477344)
(10.0192 0.026411 0.00047378)
(10.0255 0.0382086 0.000467405)
(10.0322 0.0498597 0.000459548)
(10.039 0.0615574 0.000451632)
(10.0457 0.0736113 0.000445239)
(10.0524 0.0862548 0.000440639)
(10.0598 0.0996661 0.000437523)
(10.0682 0.113303 0.00043683)
(10.0781 0.126732 0.000440534)
(10.0892 0.138739 0.000450039)
(10.1016 0.149326 0.000465657)
(10.1148 0.157675 0.000487692)
(10.129 0.165004 0.000519531)
(10.0105 0.00848562 0.000385059)
(10.0105 -0.0150993 0.000420362)
(10.0142 -0.015356 0.000442629)
(10.0175 -0.00507374 0.000460331)
(10.022 0.00554967 0.000476698)
(10.0283 0.0149392 0.0004894)
(10.0357 0.024447 0.000499072)
(10.043 0.0355138 0.000507578)
(10.0497 0.0480721 0.000517667)
(10.0563 0.0606554 0.000530597)
(10.0639 0.0715156 0.000545144)
(10.0739 0.080043 0.000560378)
(10.0862 0.0866347 0.0005777)
(10.1004 0.0926277 0.000599206)
(10.1153 0.0989363 0.000625598)
(10.1299 0.106207 0.000656461)
(10.1432 0.114109 0.000691775)
(10.1551 0.122441 0.000736135)
(10.018 0.00872582 0.000325804)
(10.0181 -0.0169778 0.000374412)
(10.0227 -0.0193956 0.00041228)
(10.0263 -0.0118132 0.000444079)
(10.0313 -0.0041105 0.000473532)
(10.0378 0.00335068 0.000499489)
(10.0443 0.0125693 0.000521234)
(10.0508 0.0238832 0.000543124)
(10.0583 0.0352499 0.000567902)
(10.0678 0.0440488 0.000595162)
(10.0795 0.0490832 0.000622424)
(10.0926 0.0515488 0.000649558)
(10.1059 0.0538322 0.0006794)
(10.1181 0.0583978 0.000714132)
(10.1286 0.0662213 0.000753259)
(10.1378 0.0768424 0.000795741)
(10.146 0.0887572 0.000841577)
(10.1541 0.100104 0.000896421)
(10.0233 0.00837397 0.000275593)
(10.0238 -0.018249 0.000334936)
(10.0297 -0.0228448 0.000385171)
(10.0338 -0.0178572 0.000428225)
(10.0387 -0.011566 0.000468552)
(10.0447 -0.00429253 0.000502929)
(10.051 0.00433615 0.00053366)
(10.0584 0.0130982 0.000564504)
(10.0678 0.020096 0.000599278)
(10.0795 0.0245724 0.000635769)
(10.0924 0.0273459 0.000670839)
(10.1048 0.0303916 0.000706295)
(10.1155 0.0354624 0.000745349)
(10.1242 0.0433075 0.000789051)
(10.1316 0.0531531 0.000836293)
(10.1387 0.0636513 0.000886201)
(10.1464 0.073167 0.00093904)
(10.1552 0.080458 0.0010012)
(10.0275 0.00740543 0.000228309)
(10.0288 -0.0198241 0.00029652)
(10.036 -0.0262248 0.000358671)
(10.0405 -0.022992 0.000412134)
(10.0452 -0.0175634 0.000461426)
(10.0513 -0.0111031 0.000503714)
(10.0584 -0.00438373 0.000541815)
(10.0672 0.00142784 0.000580788)
(10.0778 0.0056393 0.000622848)
(10.0894 0.00863029 0.000664934)
(10.1008 0.0115705 0.000704299)
(10.1112 0.0158698 0.000745283)
(10.1203 0.0221631 0.000791021)
(10.1284 0.0304537 0.000841446)
(10.1363 0.0397463 0.000894132)
(10.1449 0.0487867 0.000949497)
(10.1547 0.056336 0.00100805)
(10.1655 0.0614941 0.00107627)
(10.0308 0.00582548 0.000177647)
(10.0332 -0.0218577 0.000257796)
(10.0419 -0.0296545 0.000332944)
(10.047 -0.0276468 0.000396953)
(10.0522 -0.0229467 0.00045429)
(10.0586 -0.0175573 0.000502609)
(10.0661 -0.0126537 0.000546276)
(10.0752 -0.00900963 0.00059175)
(10.086 -0.00652563 0.000639601)
(10.0974 -0.00434717 0.000685837)
(10.1084 -0.00129506 0.000729401)
(10.1183 0.00352583 0.000775023)
(10.1273 0.0100549 0.000821285)