/*--------------------------------*- C++ -*----------------------------------*\
| =========                 |                                                 |
| \\      /  F ield         | OpenFOAM: The Open Source CFD Toolbox           |
|  \\    /   O peration     | Version:  2112                                  |
|   \\  /    A nd           | Website:  www.openfoam.com                      |
|    \\/     M anipulation  |                                                 |
\*---------------------------------------------------------------------------*/
FoamFile
{
    version     2.0;
    format      ascii;
    arch        "LSB;label=32;scalar=64";
    class       volVectorField;
    location    "0.02";
    object      UMean;
}
// * * * * * * * * * * * * * * * * * * * * * * * * * * * * * * * * * * * * * //

dimensions      [0 1 -1 0 0 0 0];

internalField   nonuniform List<vector> 
122250
(
(9.7663 0.0164903 -0.786899)
(9.31927 0.0357518 -0.767391)
(8.84008 0.0279294 -0.75641)
(8.41507 0.0525704 -0.716812)
(8.00251 0.0530583 -0.695192)
(7.6395 0.0532736 -0.684765)
(7.31189 0.0510463 -0.677806)
(7.01941 0.0488681 -0.671391)
(6.75109 0.0458047 -0.664927)
(6.51884 0.0440574 -0.658438)
(6.30532 0.0407522 -0.65189)
(6.11501 0.0398765 -0.645212)
(5.97018 0.0312966 -0.638401)
(5.81166 0.0368536 -0.631109)
(5.76617 0.00761165 -0.62346)
(5.64599 0.0428787 -0.614189)
(5.73436 -0.0616509 -0.603921)
(5.75041 0.0472119 -0.582533)
(9.98263 0.0850154 -0.799399)
(10.0545 0.131899 -0.772546)
(10.0047 0.119296 -0.760627)
(9.96916 0.121356 -0.718233)
(9.92031 0.115861 -0.695992)
(9.88619 0.108861 -0.68621)
(9.85087 0.101178 -0.67934)
(9.81659 0.0939086 -0.672959)
(9.78275 0.0878913 -0.666555)
(9.75895 0.0793501 -0.660124)
(9.73368 0.0761738 -0.653645)
(9.72497 0.0631276 -0.647078)
(9.71598 0.0625634 -0.640338)
(9.72983 0.0395179 -0.633316)
(9.7482 0.0408087 -0.625693)
(9.80062 -0.00139097 -0.617526)
(9.8589 -0.0165231 -0.607585)
(9.97454 -0.11742 -0.595209)
(9.94284 0.0514311 -0.837262)
(10.0271 0.118399 -0.817312)
(10.0177 0.100045 -0.806202)
(10.0191 0.103391 -0.732182)
(10.0202 0.0909424 -0.700262)
(10.0438 0.0876061 -0.688155)
(10.0645 0.0832413 -0.681145)
(10.0847 0.0787184 -0.674756)
(10.1074 0.0724844 -0.668378)
(10.1336 0.0677591 -0.661979)
(10.1638 0.0596384 -0.655574)
(10.1981 0.0538188 -0.649067)
(10.2384 0.0392153 -0.642466)
(10.285 0.0311144 -0.635537)
(10.3409 0.00311297 -0.628315)
(10.4076 -0.0146636 -0.620457)
(10.485 -0.0755799 -0.612217)
(10.5692 -0.156992 -0.601237)
(9.91397 0.0375928 -0.860759)
(9.99782 0.0943996 -0.859283)
(9.99996 0.0922691 -0.849868)
(9.9866 0.101927 -0.748857)
(9.99668 0.0945112 -0.70636)
(10.0255 0.088776 -0.690246)
(10.0494 0.0827443 -0.682955)
(10.0719 0.0754464 -0.676562)
(10.0966 0.0683205 -0.670175)
(10.1245 0.0593633 -0.663791)
(10.1554 0.0513587 -0.657399)
(10.1902 0.0390753 -0.650969)
(10.2295 0.0270703 -0.644404)
(10.2747 0.00795532 -0.637678)
(10.3272 -0.0147918 -0.630634)
(10.3871 -0.0494822 -0.623364)
(10.4542 -0.104391 -0.615882)
(10.519 -0.181606 -0.605952)
(9.90504 0.0290348 -0.859355)
(9.98984 0.0780937 -0.864411)
(9.98761 0.074656 -0.85649)
(9.97898 0.093184 -0.753715)
(9.98542 0.078816 -0.708145)
(10.0094 0.0746805 -0.690931)
(10.0311 0.0687185 -0.683454)
(10.0518 0.0621465 -0.677077)
(10.0749 0.0541312 -0.670729)
(10.1011 0.0452983 -0.664385)
(10.1304 0.0346929 -0.658052)
(10.1631 0.0225249 -0.65168)
(10.2 0.00665473 -0.645239)
(10.242 -0.0133484 -0.638674)
(10.2897 -0.0404038 -0.631949)
(10.3423 -0.079086 -0.625132)
(10.3978 -0.13195 -0.618338)
(10.4471 -0.210669 -0.609312)
(9.90216 0.0279306 -0.851968)
(9.98245 0.078153 -0.858648)
(9.99009 0.0731822 -0.852467)
(9.97459 0.0938851 -0.747343)
(9.97271 0.0770023 -0.704754)
(10.0014 0.0704517 -0.690838)
(10.0223 0.0637645 -0.683612)
(10.0422 0.0559802 -0.677223)
(10.0646 0.0472127 -0.670915)
(10.0901 0.0369543 -0.664628)
(10.1186 0.0252622 -0.658355)
(10.15 0.0110288 -0.652085)
(10.1851 -0.00666264 -0.645784)
(10.224 -0.029264 -0.639428)
(10.267 -0.0593223 -0.63302)
(10.3122 -0.0994945 -0.626629)
(10.3574 -0.153397 -0.620411)
(10.3952 -0.224626 -0.612044)
(9.89923 0.0235373 -0.844795)
(9.97556 0.0680823 -0.853048)
(9.97841 0.0633709 -0.848265)
(9.96093 0.0834381 -0.742721)
(9.95811 0.0718401 -0.704425)
(9.98519 0.0629987 -0.69093)
(10.0069 0.0551292 -0.683773)
(10.0268 0.046283 -0.677406)
(10.049 0.036188 -0.671145)
(10.0741 0.0245912 -0.664921)
(10.1017 0.0111918 -0.658733)
(10.1316 -0.00491801 -0.652575)
(10.1644 -0.0245169 -0.64643)
(10.1998 -0.0494806 -0.640292)
(10.2376 -0.0810612 -0.634188)
(10.2759 -0.12225 -0.628189)
(10.3122 -0.173948 -0.622422)
(10.3411 -0.238002 -0.614608)
(9.89616 0.0180957 -0.837291)
(9.97072 0.0639823 -0.847643)
(9.967 0.0551412 -0.84382)
(9.9502 0.0792499 -0.7411)
(9.94373 0.0617877 -0.70476)
(9.9724 0.0543285 -0.690999)
(9.99343 0.0457321 -0.684013)
(10.0125 0.0360269 -0.677689)
(10.0338 0.0251152 -0.67147)
(10.0577 0.0126164 -0.66531)
(10.0838 -0.00194943 -0.65921)
(10.1117 -0.0193657 -0.653171)
(10.1417 -0.0404707 -0.64719)
(10.1732 -0.066681 -0.641272)
(10.2059 -0.099064 -0.635453)
(10.2377 -0.139565 -0.629798)
(10.2667 -0.188266 -0.624406)
(10.2888 -0.24596 -0.617058)
(9.89338 0.0148666 -0.830187)
(9.96604 0.0596166 -0.842851)
(9.95361 0.0455059 -0.839211)
(9.93321 0.0787458 -0.741969)
(9.92382 0.0573157 -0.704366)
(9.95379 0.0496766 -0.691074)
(9.97443 0.039216 -0.684268)
(9.9931 0.0278771 -0.678)
(10.0137 0.0155838 -0.671833)
(10.0366 0.00167925 -0.665747)
(10.0613 -0.0143965 -0.659747)
(10.0873 -0.0333796 -0.65384)
(10.1145 -0.0559295 -0.64803)
(10.1424 -0.0831907 -0.642329)
(10.1704 -0.115883 -0.636776)
(10.1967 -0.155184 -0.631426)
(10.2197 -0.200802 -0.626354)
(10.2365 -0.25275 -0.619399)
(9.88756 0.0156483 -0.824363)
(9.95814 0.0549926 -0.837529)
(9.9484 0.04402 -0.834701)
(9.92633 0.0629433 -0.74485)
(9.8947 0.0478938 -0.704131)
(9.93064 0.0377027 -0.691164)
(9.95169 0.026254 -0.684505)
(9.97071 0.0146759 -0.678329)
(9.99117 0.00207654 -0.672235)
(10.0133 -0.0123303 -0.666237)
(10.0367 -0.0290734 -0.660352)
(10.0607 -0.0487422 -0.654588)
(10.0852 -0.0718778 -0.648953)
(10.1096 -0.0992664 -0.643465)
(10.1332 -0.131284 -0.638158)
(10.1546 -0.168595 -0.633079)
(10.1725 -0.210577 -0.628286)
(10.1851 -0.257046 -0.621663)
(9.89232 0.00990103 -0.819614)
(9.95129 0.0494318 -0.833822)
(9.92225 0.0303308 -0.831122)
(9.90069 0.0490272 -0.742316)
(9.89155 0.0444028 -0.702814)
(9.92148 0.0314645 -0.691347)
(9.93974 0.019478 -0.684875)
(9.9566 0.00688097 -0.678787)
(9.97468 -0.00691419 -0.672792)
(9.99418 -0.0224748 -0.666906)
(10.0145 -0.0402643 -0.66116)
(10.0352 -0.0607601 -0.655568)
(10.0559 -0.0843796 -0.650138)
(10.076 -0.111665 -0.644884)
(10.0951 -0.142827 -0.639838)
(10.1119 -0.178117 -0.635037)
(10.1254 -0.216854 -0.630523)
(10.1346 -0.258705 -0.62422)
(9.90057 0.00997878 -0.822326)
(9.94638 0.0408232 -0.836607)
(9.91398 0.0283784 -0.834408)
(9.89056 0.0466004 -0.74562)
(9.87149 0.0369372 -0.704243)
(9.89986 0.0228412 -0.691821)
(9.91709 0.00960102 -0.685399)
(9.93243 -0.00368816 -0.679407)
(9.94908 -0.0179871 -0.673497)
(9.96705 -0.0340407 -0.667705)
(9.98574 -0.0522855 -0.66207)
(10.0045 -0.0730818 -0.65661)
(10.0232 -0.0966772 -0.651338)
(10.041 -0.123426 -0.646265)
(10.0578 -0.15345 -0.641417)
(10.0722 -0.186732 -0.636821)
(10.0841 -0.222697 -0.632509)
(10.0919 -0.260811 -0.62644)
(9.89703 0.0124702 -0.809804)
(9.93413 0.0332535 -0.826295)
(9.89295 0.0376562 -0.824614)
(9.86427 0.0479285 -0.74)
(9.8549 0.0313363 -0.702519)
(9.88258 0.0188541 -0.691714)
(9.89953 0.00461752 -0.685406)
(9.91489 -0.00954145 -0.679475)
(9.93104 -0.0244836 -0.673629)
(9.94822 -0.0410784 -0.667906)
(9.96599 -0.0598335 -0.662352)
(9.98369 -0.0810585 -0.656982)
(10.0012 -0.104913 -0.651802)
(10.0176 -0.131523 -0.646826)
(10.033 -0.160868 -0.642075)
(10.0459 -0.192751 -0.637571)
(10.0568 -0.226715 -0.633344)
(10.0638 -0.262034 -0.627374)
(9.87326 0.00956234 -0.798589)
(9.93835 0.0211625 -0.816473)
(9.90426 0.0224849 -0.816955)
(9.87412 0.0339404 -0.739678)
(9.83513 0.0217269 -0.703263)
(9.86911 0.00374248 -0.692039)
(9.88654 -0.00990321 -0.685873)
(9.90245 -0.0245542 -0.679965)
(9.91896 -0.040343 -0.674167)
(9.93598 -0.0578513 -0.668552)
(9.95312 -0.0772788 -0.663135)
(9.96982 -0.0987497 -0.657915)
(9.98594 -0.122318 -0.652897)
(10.0007 -0.148086 -0.648092)
(10.0142 -0.175883 -0.64352)
(10.0253 -0.205569 -0.639197)
(10.0345 -0.236557 -0.635144)
(10.0402 -0.268487 -0.629363)
(9.86228 0.0111278 -0.789044)
(9.95093 0.0216555 -0.809708)
(9.90014 0.0216636 -0.811746)
(9.86727 0.0146886 -0.735245)
(9.85549 0.0168957 -0.703264)
(9.88006 -0.00562718 -0.692748)
(9.89823 -0.0202671 -0.686732)
(9.91216 -0.0344087 -0.680757)
(9.92594 -0.0500857 -0.674971)
(9.93987 -0.067597 -0.669494)
(9.95381 -0.0868118 -0.664243)
(9.9672 -0.107753 -0.659195)
(9.97975 -0.130425 -0.654358)
(9.99084 -0.154842 -0.649743)
(10.0005 -0.180794 -0.645366)
(10.0079 -0.208103 -0.641235)
(10.0135 -0.23625 -0.637363)
(10.0163 -0.264979 -0.63178)
(9.84865 0.0114315 -0.782496)
(9.95485 0.0149455 -0.803673)
(9.89415 0.0113145 -0.808247)
(9.86327 0.00651645 -0.734069)
(9.85686 -0.00100503 -0.704475)
(9.8707 -0.0151679 -0.693893)
(9.88773 -0.0299799 -0.687326)
(9.89972 -0.0461374 -0.681592)
(9.91071 -0.063223 -0.676103)
(9.92188 -0.0812086 -0.670811)
(9.93286 -0.100309 -0.665731)
(9.94297 -0.120775 -0.660866)
(9.95202 -0.142613 -0.656222)
(9.95955 -0.165747 -0.651803)
(9.96571 -0.18991 -0.647621)
(9.96989 -0.214921 -0.643681)
(9.9727 -0.24033 -0.639985)
(9.97322 -0.265991 -0.634596)
(9.83728 0.00806461 -0.777984)
(9.95894 0.0102474 -0.80015)
(9.88478 0.00392777 -0.806886)
(9.85096 -0.0101574 -0.735039)
(9.83943 -0.0193453 -0.703202)
(9.85653 -0.0326689 -0.694479)
(9.86759 -0.0444495 -0.688776)
(9.87603 -0.0608882 -0.683027)
(9.88545 -0.0775992 -0.677499)
(9.89495 -0.0945826 -0.672346)
(9.90372 -0.112387 -0.667461)
(9.91126 -0.131348 -0.662803)
(9.9177 -0.151364 -0.658363)
(9.92272 -0.172276 -0.654145)
(9.92668 -0.19377 -0.650157)
(9.92891 -0.215767 -0.646401)
(9.93027 -0.237849 -0.642875)
(9.92968 -0.260105 -0.637673)
(9.82661 0.0085721 -0.775437)
(9.96114 -0.00213455 -0.798997)
(9.88413 -0.00504584 -0.807371)
(9.84149 -0.0366402 -0.736724)
(9.8322 -0.0218358 -0.705972)
(9.83902 -0.0391532 -0.696676)
(9.84852 -0.050745 -0.690263)
(9.85404 -0.0691725 -0.684493)
(9.86298 -0.0855896 -0.679065)
(9.87168 -0.101342 -0.674104)
(9.87881 -0.117764 -0.669445)
(9.88436 -0.135218 -0.66501)
(9.88897 -0.153484 -0.660776)
(9.89237 -0.172323 -0.656754)
(9.89498 -0.191454 -0.652957)
(9.89597 -0.210829 -0.649384)
(9.89646 -0.230157 -0.646032)
(9.89502 -0.249536 -0.64102)
(9.80432 0.00706837 -0.775542)
(9.96662 -0.0205417 -0.801523)
(9.84831 -0.0265633 -0.809741)
(9.81914 -0.0577048 -0.74546)
(9.86087 -0.0548408 -0.708178)
(9.84887 -0.0654038 -0.698479)
(9.84947 -0.0762479 -0.692354)
(9.84942 -0.0901269 -0.686709)
(9.86149 -0.103638 -0.681206)
(9.87012 -0.117307 -0.676364)
(9.87486 -0.131543 -0.671911)
(9.87764 -0.146388 -0.66769)
(9.87979 -0.161675 -0.663657)
(9.88105 -0.177315 -0.659826)
(9.88166 -0.193057 -0.656214)
(9.88073 -0.208927 -0.652822)
(9.87935 -0.224618 -0.649641)
(9.87622 -0.240404 -0.644827)
(9.84654 0.000698931 -0.778152)
(9.95881 -0.0211755 -0.80272)
(9.86257 -0.0362565 -0.808254)
(9.83321 -0.0266009 -0.744422)
(9.86482 -0.0535061 -0.708996)
(9.8536 -0.0652657 -0.699189)
(9.85452 -0.080029 -0.693426)
(9.85299 -0.0880205 -0.68803)
(9.86012 -0.0993357 -0.682786)
(9.86533 -0.112426 -0.678097)
(9.86763 -0.125717 -0.67377)
(9.86807 -0.138793 -0.669688)
(9.86773 -0.151682 -0.66581)
(9.86657 -0.164605 -0.662135)
(9.86495 -0.177561 -0.658668)
(9.86212 -0.190819 -0.655409)
(9.85892 -0.204104 -0.652354)
(9.85423 -0.217776 -0.647687)
(9.84474 -0.00667714 -0.783322)
(9.95214 -0.0197399 -0.80573)
(9.89303 -0.0413494 -0.8116)
(9.84181 -0.0367919 -0.740025)
(9.83722 -0.0700384 -0.709542)
(9.8359 -0.077136 -0.700097)
(9.84459 -0.0868158 -0.694266)
(9.84732 -0.0942749 -0.688987)
(9.85096 -0.104382 -0.683972)
(9.85445 -0.115816 -0.679378)
(9.85681 -0.12726 -0.675104)
(9.8577 -0.138376 -0.671083)
(9.85757 -0.149014 -0.667285)
(9.85617 -0.159354 -0.663704)
(9.85383 -0.1693 -0.660345)
(9.84988 -0.179123 -0.657194)
(9.84559 -0.188774 -0.65424)
(9.84001 -0.199217 -0.649686)
(9.85068 -0.00685759 -0.788273)
(9.95205 -0.0336316 -0.810108)
(9.89374 -0.0518891 -0.81463)
(9.85354 -0.0555798 -0.740442)
(9.85029 -0.0724401 -0.708561)
(9.85997 -0.0786791 -0.700265)
(9.8659 -0.0861029 -0.695099)
(9.86527 -0.0952382 -0.689863)
(9.86777 -0.104916 -0.684883)
(9.87075 -0.114663 -0.680352)
(9.87285 -0.124345 -0.676135)
(9.87366 -0.133659 -0.672168)
(9.87367 -0.142695 -0.668416)
(9.87273 -0.151454 -0.664875)
(9.87091 -0.16014 -0.66153)
(9.86756 -0.169799 -0.658385)
(9.86243 -0.179978 -0.655436)
(9.85511 -0.191528 -0.650907)
(9.85748 -0.00850649 -0.794569)
(9.95371 -0.0404121 -0.814898)
(9.91074 -0.051441 -0.818021)
(9.87121 -0.0697401 -0.741391)
(9.86527 -0.0775363 -0.709224)
(9.87715 -0.0813713 -0.700804)
(9.88287 -0.0921483 -0.695759)
(9.88154 -0.0998931 -0.690474)
(9.88334 -0.107674 -0.68553)
(9.88534 -0.116402 -0.681051)
(9.88713 -0.124579 -0.67689)
(9.88686 -0.133115 -0.672979)
(9.8869 -0.139519 -0.669312)
(9.88315 -0.146073 -0.66587)
(9.87998 -0.149269 -0.66265)
(9.87068 -0.151082 -0.659514)
(9.86324 -0.151968 -0.656556)
(9.85347 -0.164043 -0.652312)
(9.86869 -0.0111494 -0.801694)
(9.95614 -0.048439 -0.821405)
(9.92189 -0.0608591 -0.822497)
(9.88087 -0.0718951 -0.742152)
(9.87728 -0.0837763 -0.710592)
(9.88671 -0.0827945 -0.701341)
(9.89282 -0.092983 -0.696079)
(9.89434 -0.0993222 -0.690917)
(9.8944 -0.106055 -0.686045)
(9.89738 -0.112919 -0.681599)
(9.89634 -0.120633 -0.677435)
(9.90096 -0.126683 -0.673511)
(9.89713 -0.133057 -0.669723)
(9.90559 -0.135282 -0.666079)
(9.89566 -0.137101 -0.662253)
(9.90155 -0.149525 -0.658745)
(9.87687 -0.146303 -0.655703)
(9.85751 -0.167912 -0.65172)
(9.8727 -0.0146122 -0.810497)
(9.95845 -0.0633047 -0.82758)
(9.94638 -0.0637571 -0.827502)
(9.90448 -0.0909717 -0.744387)
(9.885 -0.0857968 -0.710542)
(9.90248 -0.087998 -0.701414)
(9.90796 -0.0967077 -0.696025)
(9.90933 -0.103633 -0.691051)
(9.9107 -0.109979 -0.686371)
(9.91118 -0.116589 -0.681984)
(9.91358 -0.123583 -0.677861)
(9.91356 -0.128936 -0.673961)
(9.91779 -0.134964 -0.670253)
(9.91754 -0.135825 -0.666572)
(9.91933 -0.132321 -0.663534)
(9.90876 -0.128609 -0.661321)
(9.88738 -0.13489 -0.659241)
(9.84488 -0.132254 -0.653669)
(9.87312 -0.014077 -0.820758)
(9.9692 -0.0642427 -0.835801)
(9.94599 -0.0698336 -0.832554)
(9.91663 -0.0895498 -0.75012)
(9.92815 -0.0826369 -0.712015)
(9.9318 -0.0877555 -0.701758)
(9.93276 -0.093833 -0.696057)
(9.9345 -0.0998278 -0.691143)
(9.93257 -0.105252 -0.686536)
(9.93565 -0.112098 -0.682201)
(9.93271 -0.118376 -0.67808)
(9.93963 -0.128077 -0.674162)
(9.93805 -0.135607 -0.670205)
(9.94717 -0.147363 -0.666595)
(9.94322 -0.16365 -0.663731)
(9.92885 -0.178006 -0.662002)
(9.90229 -0.184197 -0.660226)
(9.86529 -0.186621 -0.655429)
(9.87501 -0.0170831 -0.829971)
(9.97555 -0.0825314 -0.839519)
(9.96675 -0.0816526 -0.835372)
(9.91358 -0.100537 -0.746746)
(9.92685 -0.0970115 -0.71095)
(9.93774 -0.100179 -0.701541)
(9.94243 -0.104686 -0.696114)
(9.94426 -0.109832 -0.691208)
(9.94507 -0.11326 -0.686641)
(9.94526 -0.119741 -0.682357)
(9.94493 -0.122453 -0.678336)
(9.94503 -0.134725 -0.674524)
(9.94375 -0.137066 -0.670881)
(9.94487 -0.163312 -0.66725)
(9.9325 -0.169798 -0.663511)
(9.93006 -0.17699 -0.660099)
(9.9141 -0.186636 -0.657282)
(9.89015 -0.184666 -0.653273)
(9.90563 -0.0241002 -0.824376)
(10.0005 -0.0833713 -0.817348)
(9.96135 -0.0783257 -0.809508)
(9.91976 -0.0938489 -0.735465)
(9.93349 -0.0909398 -0.708494)
(9.93817 -0.093699 -0.700471)
(9.9396 -0.0970228 -0.695376)
(9.93844 -0.10113 -0.690521)
(9.93578 -0.106282 -0.685933)
(9.93061 -0.112351 -0.681636)
(9.92557 -0.119774 -0.677615)
(9.91787 -0.127324 -0.673842)
(9.91138 -0.137405 -0.670302)
(9.90044 -0.147236 -0.666963)
(9.88809 -0.159748 -0.663863)
(9.86775 -0.173743 -0.660744)
(9.84362 -0.181486 -0.657805)
(9.82097 -0.181797 -0.653641)
(9.95827 -0.068109 -0.801989)
(10.0374 -0.137658 -0.783661)
(9.99199 -0.124192 -0.773059)
(9.96085 -0.11621 -0.724462)
(9.93202 -0.118854 -0.706464)
(9.89303 -0.120381 -0.699042)
(9.85211 -0.118261 -0.694052)
(9.80848 -0.117446 -0.689334)
(9.76094 -0.117807 -0.684796)
(9.70902 -0.120217 -0.680527)
(9.65337 -0.122567 -0.676536)
(9.59345 -0.127123 -0.672807)
(9.52897 -0.131488 -0.66931)
(9.45948 -0.139157 -0.66605)
(9.38417 -0.146958 -0.662979)
(9.30266 -0.153451 -0.660103)
(9.21477 -0.159384 -0.657396)
(9.12402 -0.162864 -0.653091)
(9.83516 0.00331001 -0.788466)
(9.55864 -0.00751714 -0.770076)
(9.19957 -0.00961423 -0.759578)
(8.89682 -0.0494804 -0.721824)
(8.60012 -0.0496748 -0.706422)
(8.31067 -0.050454 -0.69848)
(8.04221 -0.0503915 -0.693336)
(7.78794 -0.0501614 -0.688643)
(7.54407 -0.0507409 -0.684111)
(7.30668 -0.0513568 -0.679839)
(7.07506 -0.0525059 -0.675848)
(6.84835 -0.0536761 -0.672128)
(6.62489 -0.0554453 -0.668655)
(6.40272 -0.0576679 -0.665418)
(6.18132 -0.0595594 -0.6624)
(5.96 -0.0613707 -0.659587)
(5.74065 -0.0616394 -0.656882)
(5.52675 -0.0601286 -0.652534)
(9.77865 0.151257 0.00119895)
(9.31716 0.21073 -0.00209993)
(8.87513 0.181324 0.000102694)
(8.44913 0.102994 -0.00168019)
(8.07568 0.077512 -0.00169685)
(7.73745 0.0665299 -0.00173892)
(7.42635 0.0585865 -0.00171964)
(7.14848 0.0536001 -0.00169665)
(6.89659 0.0489092 -0.00175778)
(6.67518 0.0471217 -0.00187268)
(6.47504 0.0415426 -0.00208383)
(6.29536 0.0431738 -0.00238906)
(6.14311 0.0324285 -0.00280603)
(5.99572 0.0443161 -0.00337169)
(5.88832 0.0152752 -0.004034)
(5.78314 0.0560776 -0.0049973)
(5.71584 -0.0302134 -0.00603598)
(5.72415 0.0642355 -0.00798138)
(10.0094 0.0853459 -0.000679891)
(9.96692 0.039951 -0.00467927)
(9.97244 0.066191 -0.0023648)
(9.96166 0.0778251 -0.00249288)
(9.9492 0.08665 -0.00188636)
(9.91853 0.0900803 -0.00177306)
(9.87651 0.0870181 -0.00173339)
(9.83718 0.0817364 -0.00171709)
(9.79913 0.0781773 -0.0017718)
(9.77077 0.0717595 -0.00189476)
(9.74038 0.0691711 -0.00209227)
(9.72435 0.0592597 -0.00239611)
(9.70218 0.0592817 -0.00277652)
(9.70221 0.0438226 -0.00332351)
(9.68935 0.0477966 -0.00393094)
(9.71739 0.0204582 -0.00481171)
(9.71833 0.0180685 -0.00580489)
(9.78909 -0.0526887 -0.00712783)
(10.0771 0.10752 0.00330993)
(10.037 0.159737 -0.0009101)
(10.0662 0.136174 0.00160639)
(10.093 0.105003 -0.00144214)
(10.1244 0.101812 -0.00151065)
(10.1408 0.101364 -0.00164933)
(10.1525 0.094525 -0.00167324)
(10.1676 0.0880485 -0.0016581)
(10.1874 0.081008 -0.00169814)
(10.211 0.0764905 -0.00180802)
(10.238 0.0681103 -0.00199213)
(10.2677 0.0639125 -0.00227299)
(10.3024 0.0513546 -0.00263704)
(10.3396 0.0484037 -0.00313021)
(10.3859 0.0276362 -0.00371054)
(10.4358 0.0206514 -0.0044583)
(10.5 -0.0195435 -0.00530207)
(10.5646 -0.0738636 -0.00625204)
(10.135 0.119744 0.00696089)
(10.1001 0.0944469 0.00414035)
(10.1299 0.0864526 0.00766761)
(10.1505 0.0809057 -0.000350036)
(10.1911 0.0789134 -0.000905422)
(10.2131 0.0814431 -0.0013719)
(10.2299 0.0769987 -0.00143849)
(10.2508 0.0707172 -0.00145118)
(10.2757 0.0647773 -0.0015136)
(10.3032 0.0570933 -0.00164156)
(10.3327 0.0498857 -0.00183069)
(10.3648 0.0399398 -0.00210054)
(10.3999 0.0309184 -0.00245194)
(10.4385 0.0177982 -0.00290223)
(10.4823 0.00319085 -0.00344321)
(10.5307 -0.0189488 -0.0040848)
(10.5855 -0.0548626 -0.00480367)
(10.6387 -0.106641 -0.00554113)
(10.1583 0.0807388 0.00753746)
(10.1489 0.143031 0.00626183)
(10.1684 0.116482 0.00927808)
(10.1947 0.0926852 0.000629384)
(10.2285 0.0872432 -0.00064625)
(10.2476 0.0929977 -0.00125788)
(10.2625 0.0817955 -0.00140965)
(10.2823 0.0738496 -0.00142457)
(10.3056 0.0659325 -0.00146781)
(10.3306 0.0575236 -0.00158188)
(10.3574 0.0475006 -0.00176111)
(10.3863 0.0372079 -0.00201428)
(10.4177 0.024416 -0.00233883)
(10.4518 0.00976855 -0.00274694)
(10.4895 -0.00944924 -0.00323057)
(10.53 -0.0362322 -0.00378279)
(10.5727 -0.0726582 -0.00437618)
(10.6105 -0.129096 -0.00495958)
(10.1571 0.0726299 0.00757381)
(10.1504 0.102758 0.00604266)
(10.1738 0.0968748 0.00929145)
(10.1959 0.0817008 -0.000933044)
(10.2464 0.0750754 -0.000757898)
(10.2652 0.0788698 -0.00114104)
(10.2763 0.0675013 -0.00131019)
(10.297 0.0592846 -0.0013313)
(10.3196 0.0510655 -0.00138101)
(10.3434 0.0415985 -0.00149931)
(10.3688 0.0311827 -0.00167771)
(10.3957 0.0191404 -0.00191487)
(10.4247 0.00498221 -0.00221542)
(10.4555 -0.0120606 -0.00258139)
(10.4887 -0.0338188 -0.00300597)
(10.5227 -0.0621894 -0.00347612)
(10.5561 -0.100268 -0.0039606)
(10.5837 -0.151232 -0.00442408)
(10.1539 0.0554701 0.00768123)
(10.1431 0.0966492 0.00621934)
(10.164 0.0946007 0.00970155)
(10.1925 0.087331 -0.000838159)
(10.245 0.0788155 -0.000623303)
(10.2638 0.0770455 -0.00104311)
(10.2744 0.0678878 -0.00125683)
(10.2948 0.0588436 -0.00128493)
(10.3163 0.0495122 -0.0013301)
(10.3388 0.0391705 -0.00143773)
(10.3624 0.0274282 -0.0016024)
(10.3873 0.0138686 -0.00182198)
(10.4135 -0.00192912 -0.00209522)
(10.441 -0.0211087 -0.00241903)
(10.4694 -0.0446213 -0.00278598)
(10.4974 -0.074617 -0.00318111)
(10.5232 -0.112028 -0.00357653)
(10.5431 -0.158278 -0.00394704)
(10.1508 0.0443603 0.00784476)
(10.1329 0.0775038 0.00650053)
(10.1527 0.0830876 0.0102043)
(10.1804 0.0722771 -0.000842298)
(10.238 0.0676464 -0.000383208)
(10.2565 0.0675555 -0.000953067)
(10.2638 0.059529 -0.00119009)
(10.2827 0.049553 -0.00121663)
(10.3029 0.0390708 -0.00125443)
(10.3239 0.0275642 -0.00135613)
(10.3458 0.0146241 -0.00151401)
(10.3686 -0.000208461 -0.00171789)
(10.3925 -0.017489 -0.00196482)
(10.4169 -0.0381328 -0.00224982)
(10.4416 -0.062956 -0.00256405)
(10.465 -0.0932654 -0.0028936)
(10.4856 -0.129285 -0.00321546)
(10.5006 -0.171539 -0.00351306)
(10.1506 0.0361415 0.00797497)
(10.12 0.060619 0.00675584)
(10.1404 0.070713 0.0106468)
(10.1618 0.062403 -0.000940424)
(10.226 0.0608361 -0.00023914)
(10.2448 0.0595758 -0.000871393)
(10.2506 0.0517537 -0.00111054)
(10.2688 0.0420061 -0.00114868)
(10.2885 0.0311548 -0.00118786)
(10.3086 0.0191778 -0.00128143)
(10.3294 0.00557561 -0.00142556)
(10.3509 -0.0101362 -0.0016121)
(10.3728 -0.028414 -0.00183478)
(10.3949 -0.0499428 -0.00208482)
(10.4165 -0.0752768 -0.00235243)
(10.4363 -0.105124 -0.002625)
(10.4529 -0.139353 -0.00288483)
(10.4645 -0.177757 -0.00312377)
(10.1562 0.0331913 0.00829132)
(10.1236 0.0468209 0.00689757)
(10.1346 0.0628379 0.0111284)
(10.1419 0.0629071 -0.00119646)
(10.2132 0.0567806 -0.000129149)
(10.2328 0.0534564 -0.000822767)
(10.2375 0.0447906 -0.00103913)
(10.2554 0.0344695 -0.00107971)
(10.2744 0.0227682 -0.00111687)
(10.2936 0.00979442 -0.00120114)
(10.3132 -0.00478919 -0.00133334)
(10.3329 -0.0214961 -0.00150455)
(10.3527 -0.0407263 -0.0017047)
(10.3721 -0.0629467 -0.00192304)
(10.3905 -0.0884561 -0.00215014)
(10.4067 -0.11757 -0.00237545)
(10.4197 -0.149956 -0.0025849)
(10.4282 -0.185073 -0.00277739)
(10.1619 0.0222452 0.00825838)
(10.126 0.0310128 0.00641284)
(10.1263 0.0509016 0.0113538)
(10.1319 0.0575427 -0.000548804)
(10.2002 0.0499587 -0.000260079)
(10.2197 0.0447707 -0.000730106)
(10.2232 0.0373071 -0.000971505)
(10.2403 0.0266561 -0.00102612)
(10.2584 0.0143654 -0.00105652)
(10.2763 0.000612012 -0.00112783)
(10.2942 -0.0147132 -0.00124377)
(10.3119 -0.0319927 -0.00139455)
(10.3292 -0.0516208 -0.00156938)
(10.3457 -0.073888 -0.00175845)
(10.3607 -0.0989488 -0.00195105)
(10.3736 -0.126814 -0.0021384)
(10.3834 -0.157129 -0.00230929)
(10.3895 -0.189237 -0.00246586)
(10.1532 0.0180251 0.00788444)
(10.09 0.0313661 0.00576875)
(10.1002 0.0434795 0.011161)
(10.1024 0.0438936 -0.000321445)
(10.1695 0.0411467 -0.000118362)
(10.1905 0.0364341 -0.000652466)
(10.1941 0.0283163 -0.00088346)
(10.2105 0.0177043 -0.000927003)
(10.2282 0.00524503 -0.000953933)
(10.2456 -0.00865398 -0.00102027)
(10.2628 -0.0242634 -0.00112912)
(10.2796 -0.0418458 -0.00127054)
(10.2957 -0.0616566 -0.00143154)
(10.3108 -0.0838425 -0.00160021)
(10.3244 -0.108464 -0.001768)
(10.3358 -0.1353 -0.00192872)
(10.3447 -0.164027 -0.00207363)
(10.3502 -0.193914 -0.00220719)
(10.1627 0.02054 0.0082786)
(10.1064 0.0450061 0.00647546)
(10.1051 0.0446974 0.0120188)
(10.1008 0.0325812 -0.000311974)
(10.168 0.0336814 1.64101e-05)
(10.1853 0.0287174 -0.000454426)
(10.1861 0.0175207 -0.000740903)
(10.2011 0.00574367 -0.000811683)
(10.2174 -0.00663714 -0.000840679)
(10.2336 -0.0203355 -0.000902753)
(10.2495 -0.0358953 -0.00100473)
(10.2648 -0.0534836 -0.00113584)
(10.2795 -0.0731306 -0.00128389)
(10.2931 -0.0948317 -0.00143698)
(10.3055 -0.11853 -0.00158684)
(10.3157 -0.143997 -0.0017286)
(10.324 -0.170846 -0.00185612)
(10.329 -0.19853 -0.00197551)
(10.1664 0.0106976 0.00930062)
(10.1272 0.0427136 0.00850615)
(10.1199 0.0377715 0.0134702)
(10.1072 0.0357602 -0.00127789)
(10.1828 0.0332553 0.00038922)
(10.1961 0.0211283 -0.000346602)
(10.1944 0.0177387 -0.000595319)
(10.209 0.00259168 -0.000657205)
(10.2247 -0.0109686 -0.000692139)
(10.2393 -0.0253419 -0.000761738)
(10.2533 -0.041541 -0.000865699)
(10.2664 -0.0596041 -0.000992619)
(10.279 -0.0794505 -0.00113103)
(10.2903 -0.100969 -0.00127067)
(10.3005 -0.124079 -0.00140507)
(10.3084 -0.14849 -0.00153088)
(10.3147 -0.173934 -0.00164378)
(10.318 -0.199835 -0.00175104)
(10.1605 0.0104738 0.00970872)
(10.1281 0.0273403 0.00980275)
(10.1126 0.0302577 0.014841)
(10.1077 0.0259171 -0.000850831)
(10.1804 0.0212426 0.000498378)
(10.1997 0.00769831 -0.000134574)
(10.1991 -0.00201712 -0.000492009)
(10.2054 -0.0139825 -0.000574461)
(10.222 -0.0271529 -0.000589742)
(10.2356 -0.0418057 -0.000641812)
(10.2476 -0.0580515 -0.000736969)
(10.2586 -0.07586 -0.000855276)
(10.2687 -0.0951312 -0.000980983)
(10.2776 -0.115755 -0.00110388)
(10.2851 -0.13756 -0.00121958)
(10.2907 -0.160323 -0.00132686)
(10.2947 -0.18372 -0.0014235)
(10.2963 -0.207438 -0.00151713)
(10.1604 0.00907678 0.0101286)
(10.1338 0.016751 0.0105075)
(10.1126 0.0186277 0.0162233)
(10.1138 0.0150239 -0.000107954)
(10.18 0.00869434 0.000495483)
(10.1849 -0.00178847 7.96173e-05)
(10.1844 -0.0130799 -0.000320585)
(10.1977 -0.0242961 -0.000393271)
(10.2103 -0.0367073 -0.000398243)
(10.2213 -0.0506823 -0.000449548)
(10.2311 -0.0662054 -0.000546054)
(10.2398 -0.0831671 -0.000660826)
(10.2476 -0.101418 -0.000777762)
(10.2541 -0.12077 -0.000888902)
(10.2594 -0.141053 -0.000992229)
(10.2629 -0.162033 -0.00108839)
(10.2651 -0.183496 -0.0011773)
(10.2652 -0.205125 -0.00126589)
(10.1614 0.0067197 0.0104735)
(10.1377 0.00642558 0.0110796)
(10.1081 0.00762557 0.0173978)
(10.0963 -0.00396894 -0.000670718)
(10.1674 -0.00609771 0.000223753)
(10.1835 -0.0212908 -2.3156e-06)
(10.1816 -0.027947 -0.00023849)
(10.1849 -0.0419412 -0.000217286)
(10.1983 -0.0545883 -0.000228642)
(10.2072 -0.0681334 -0.000299663)
(10.2141 -0.0831991 -0.000405444)
(10.22 -0.0995424 -0.000516786)
(10.2252 -0.11687 -0.000624814)
(10.2292 -0.134994 -0.000726963)
(10.232 -0.15375 -0.000823003)
(10.2333 -0.172984 -0.00091375)
(10.2334 -0.19249 -0.000999141)
(10.2319 -0.212104 -0.001087)
(10.1628 0.00617868 0.0108508)
(10.1406 0.00406223 0.0118519)
(10.1116 0.00503802 0.0187933)
(10.0987 -0.00128482 -0.000880203)
(10.1709 -0.0155135 0.00057234)
(10.1659 -0.0296398 0.000218865)
(10.1657 -0.0437107 -0.000154608)
(10.1706 -0.0555834 1.07227e-05)
(10.1823 -0.0670931 -2.01825e-05)
(10.1884 -0.0797414 -0.000124367)
(10.1924 -0.09358 -0.000239852)
(10.1959 -0.108342 -0.000343736)
(10.1989 -0.123799 -0.000442007)
(10.201 -0.139844 -0.00053805)
(10.2021 -0.15637 -0.000630672)
(10.2018 -0.173287 -0.000719004)
(10.2007 -0.190404 -0.000802663)
(10.1979 -0.207655 -0.000888911)
(10.1533 -0.00192214 0.0113564)
(10.158 -0.00573495 0.0130391)
(10.1234 -0.0232038 0.0204453)
(10.1342 -0.00809153 0.00686525)
(10.1621 -0.0319601 -4.41033e-05)
(10.1763 -0.0425743 5.7035e-05)
(10.1724 -0.0544354 -0.00019782)
(10.1778 -0.0660864 0.000265686)
(10.1886 -0.0780932 6.2401e-05)
(10.192 -0.0906701 -0.000111596)
(10.1932 -0.103805 -0.000215774)
(10.1941 -0.117496 -0.000292918)
(10.1947 -0.131691 -0.000373831)
(10.1943 -0.146334 -0.000463602)
(10.1929 -0.161344 -0.000554615)
(10.1903 -0.176624 -0.000641191)
(10.1869 -0.192071 -0.000722069)
(10.1823 -0.207592 -0.000806219)
(10.1487 0.0016524 0.0102989)
(10.1372 -0.0252501 0.0124195)
(10.1077 -0.0325626 0.0185183)
(10.1183 -0.0723283 0.00616633)
(10.144 -0.0650007 6.11688e-05)
(10.1579 -0.0734305 8.92439e-05)
(10.1538 -0.0799452 -0.000154312)
(10.1569 -0.0889006 0.00018774)
(10.1656 -0.0994948 7.03591e-05)
(10.1678 -0.11014 -6.63835e-05)
(10.1675 -0.120909 -0.000170855)
(10.1666 -0.132092 -0.00025494)
(10.1651 -0.143794 -0.000336176)
(10.1627 -0.156006 -0.000422684)
(10.1593 -0.168628 -0.00051309)
(10.1548 -0.18155 -0.000602614)
(10.1496 -0.19454 -0.000686723)
(10.1434 -0.207584 -0.000771818)
(10.1589 -0.00344904 0.0104024)
(10.1337 -0.0233768 0.0115554)
(10.1077 -0.0465974 0.0172141)
(10.0953 -0.0629476 -7.23586e-05)
(10.1595 -0.0659939 0.000399797)
(10.1575 -0.070436 0.00030038)
(10.155 -0.0782785 2.76832e-05)
(10.1533 -0.0870766 8.96387e-05)
(10.1605 -0.0962253 9.31047e-05)
(10.1624 -0.105442 1.25604e-05)
(10.1614 -0.114918 -0.000106379)
(10.1592 -0.124921 -0.000226226)
(10.1562 -0.135608 -0.000335739)
(10.1522 -0.14699 -0.000430435)
(10.1475 -0.159085 -0.000502601)
(10.142 -0.17163 -0.000554577)
(10.1363 -0.184275 -0.000598814)
(10.1298 -0.19619 -0.00065221)
(10.1558 -0.00684963 0.0104597)
(10.1299 -0.0335332 0.0113548)
(10.1054 -0.0583315 0.0166174)
(10.1 -0.0683971 0.000434934)
(10.1634 -0.0859168 0.000343449)
(10.1723 -0.0876649 0.000221054)
(10.164 -0.098013 -9.31058e-05)
(10.1642 -0.105107 8.60916e-05)
(10.1714 -0.11173 0.000112102)
(10.1724 -0.11892 2.80367e-05)
(10.1703 -0.12679 -0.000108951)
(10.1669 -0.135424 -0.00025494)
(10.1624 -0.145081 -0.000400019)
(10.1568 -0.155863 -0.000538512)
(10.1502 -0.168229 -0.000669603)
(10.1436 -0.180269 -0.000776214)
(10.1383 -0.192158 -0.000828441)
(10.1333 -0.203013 -0.000833377)
(10.1561 -0.0110457 0.010484)
(10.1305 -0.044434 0.0110411)
(10.1136 -0.068555 0.0158222)
(10.1118 -0.0801 0.000322575)
(10.1798 -0.0872454 0.000472399)