/*--------------------------------*- C++ -*----------------------------------*\
| =========                 |                                                 |
| \\      /  F ield         | OpenFOAM: The Open Source CFD Toolbox           |
|  \\    /   O peration     | Version:  2112                                  |
|   \\  /    A nd           | Website:  www.openfoam.com                      |
|    \\/     M anipulation  |                                                 |
\*---------------------------------------------------------------------------*/
FoamFile
{
    version     2.0;
    format      ascii;
    arch        "LSB;label=32;scalar=64";
    class       volScalarField;
    location    "0.18";
    object      k;
}
// * * * * * * * * * * * * * * * * * * * * * * * * * * * * * * * * * * * * * //

dimensions      [0 2 -2 0 0 0 0];

internalField   nonuniform List<scalar> 
12225
(
0.835217
1.33389
1.55349
1.61872
1.61143
1.57459
1.5288
1.48362
1.4436
1.41097
1.38706
1.37131
1.36104
1.35802
1.36347
1.3775
1.39887
1.40851
0.10297
0.14327
0.173208
0.192276
0.203114
0.208428
0.2104
0.210469
0.209431
0.207637
0.205118
0.202185
0.200616
0.199181
0.196804
0.192263
0.183581
0.168262
0.0717678
0.069087
0.0661584
0.0628918
0.0594346
0.0559281
0.0524927
0.0491922
0.0460239
0.042943
0.0399348
0.0375791
0.0357632
0.0343974
0.0334149
0.0327781
0.0324951
0.0326539
0.07112
0.0673157
0.0638361
0.0605862
0.057527
0.0546507
0.0519632
0.0494745
0.0472042
0.0451575
0.0433209
0.0416958
0.0402878
0.0391105
0.0381918
0.0375843
0.0373665
0.0376059
0.0711151
0.0673474
0.0640155
0.0610415
0.0583672
0.0559503
0.0537602
0.0517769
0.0499766
0.0483422
0.0468628
0.0455323
0.0443499
0.0433224
0.0424669
0.0418138
0.0414033
0.0412486
0.071115
0.0673525
0.06404
0.0611055
0.0584927
0.0561565
0.0540605
0.0521737
0.0504715
0.0489346
0.0475479
0.0463012
0.045189
0.0442123
0.0433793
0.0427055
0.0422117
0.0418913
0.0711145
0.0673505
0.0640369
0.0611036
0.0584948
0.0561654
0.0540781
0.052202
0.050512
0.0489878
0.0476135
0.0463774
0.0452719
0.0442946
0.0434479
0.0427379
0.0421733
0.041742
0.0711142
0.0673487
0.0640329
0.0610976
0.0584868
0.0561553
0.0540659
0.0521875
0.050495
0.0489678
0.0475896
0.0463478
0.0452335
0.0442418
0.043371
0.0426217
0.0419956
0.0414802
0.071114
0.0673473
0.0640296
0.0610921
0.058479
0.0561448
0.0540524
0.0521709
0.0504747
0.048943
0.0475591
0.0463096
0.0451845
0.0441767
0.0432818
0.0424967
0.0418191
0.0412376
0.0711139
0.0673464
0.0640269
0.0610874
0.0584719
0.0561352
0.0540397
0.0521546
0.0504543
0.0489175
0.0475272
0.0462693
0.0451327
0.044109
0.0431917
0.0423755
0.0416559
0.0410223
0.0711139
0.0673457
0.0640248
0.0610834
0.0584656
0.0561261
0.0540275
0.0521387
0.050434
0.0488919
0.047495
0.0462285
0.0450808
0.0440422
0.043105
0.0422622
0.0415084
0.0408337
0.0711139
0.0673453
0.0640232
0.0610801
0.0584602
0.0561182
0.0540165
0.052124
0.050415
0.0488677
0.0474642
0.0461895
0.0450313
0.043979
0.0430241
0.0421587
0.0413766
0.0406683
0.071114
0.0673449
0.0640219
0.0610771
0.0584552
0.0561106
0.0540059
0.0521098
0.0503963
0.0488438
0.047434
0.0461516
0.0449837
0.0439195
0.0429496
0.0420658
0.0412612
0.0405272
0.071114
0.0673447
0.0640206
0.0610742
0.0584499
0.0561024
0.0539941
0.0520938
0.0503754
0.0488169
0.0474
0.0461092
0.0449311
0.0438544
0.0428696
0.0419679
0.0411423
0.0403845
0.0711141
0.0673445
0.0640194
0.0610711
0.0584443
0.0560935
0.0539812
0.0520761
0.050352
0.048787
0.0473624
0.0460625
0.0448738
0.0437848
0.0427855
0.041867
0.0410221
0.0402432
0.0711143
0.0673444
0.0640183
0.061068
0.0584385
0.0560841
0.0539674
0.0520571
0.0503269
0.0487549
0.0473223
0.0460133
0.0448142
0.0437134
0.0427007
0.0417673
0.0409057
0.0401088
0.0711144
0.0673443
0.0640171
0.0610649
0.0584325
0.0560744
0.0539531
0.0520373
0.050301
0.0487219
0.0472815
0.0459638
0.0447551
0.0436437
0.0426195
0.0416737
0.0407986
0.0399876
0.0711145
0.0673442
0.064016
0.0610619
0.0584267
0.0560649
0.0539391
0.0520181
0.0502759
0.0486903
0.0472428
0.0459174
0.0447006
0.0435806
0.0425472
0.0415918
0.0407067
0.0398854
0.0711145
0.0673439
0.0640147
0.0610589
0.0584211
0.0560561
0.0539263
0.0520009
0.0502537
0.0486628
0.0472096
0.0458785
0.0446557
0.0435296
0.0424901
0.0415285
0.0406372
0.03981
0.0711145
0.0673436
0.0640139
0.0610571
0.0584178
0.0560509
0.0539188
0.0519908
0.0502408
0.0486469
0.0471907
0.0458565
0.0446306
0.0435015
0.0424592
0.0414948
0.0406008
0.0397711
0.0711144
0.0673434
0.0640135
0.0610562
0.0584164
0.0560486
0.0539156
0.0519864
0.0502351
0.04864
0.0471825
0.0458469
0.0446199
0.0434896
0.0424462
0.0414809
0.0405862
0.0397558
0.0711144
0.0673433
0.0640134
0.0610561
0.0584161
0.0560481
0.0539148
0.0519852
0.0502335
0.0486379
0.04718
0.0458441
0.0446166
0.0434861
0.0424424
0.041477
0.0405821
0.0397518
0.0711143
0.0673434
0.0640136
0.0610567
0.0584171
0.0560493
0.0539161
0.0519867
0.0502351
0.0486397
0.0471819
0.045846
0.0446188
0.0434884
0.0424451
0.0414799
0.0405853
0.0397553
0.0711143
0.0673436
0.0640144
0.0610582
0.0584192
0.056052
0.0539194
0.0519904
0.0502391
0.0486439
0.0471862
0.0458504
0.044623
0.0434925
0.0424489
0.0414835
0.0405886
0.0397582
0.0711144
0.067344
0.0640158
0.0610605
0.0584223
0.0560558
0.0539234
0.051994
0.0502416
0.0486443
0.0471836
0.0458438
0.0446115
0.0434752
0.0424251
0.0414525
0.0405501
0.0397121
0.0711145
0.067345
0.064018
0.0610626
0.0584216
0.0560481
0.0539033
0.0519553
0.0501774
0.0485477
0.0470484
0.0456644
0.0443836
0.0431955
0.0420917
0.0410648
0.0401086
0.0392182
0.071117
0.0673562
0.0640359
0.0610734
0.0584003
0.0559614
0.053714
0.0516269
0.0496783
0.0478529
0.0461405
0.0445334
0.0430258
0.0416129
0.0402901
0.0390533
0.0378983
0.0368217
0.071301
0.068053
0.0653304
0.0629255
0.0606963
0.0585421
0.0564234
0.0543439
0.052323
0.0503801
0.0485298
0.0467799
0.0451326
0.0435853
0.0421324
0.0407686
0.0394875
0.0382909
0.0828179
0.0997093
0.117439
0.134288
0.148822
0.160245
0.168548
0.174155
0.17761
0.179437
0.180085
0.179915
0.179202
0.178148
0.176899
0.175567
0.174285
0.173157
0.474125
0.826266
1.06409
1.22838
1.32446
1.36708
1.37172
1.35128
1.31552
1.27135
1.22345
1.17487
1.12755
1.08262
1.04075
1.00225
0.969828
0.942923
0.10167
0.13138
0.146035
0.154341
0.158085
0.1585
0.156837
0.155877
0.154471
0.152451
0.152244
0.15426
0.157297
0.161347
0.166542
0.173051
0.181061
0.190788
0.202492
0.216526
0.233373
0.253772
0.277251
0.301219
0.324992
0.347555
0.367357
0.38204
0.387982
0.379463
0.347737
0.284483
0.198388
0.12732
0.100433
0.107109
0.124146
0.140575
0.15453
0.166239
0.178158
0.194302
0.215386
0.228551
0.229491
0.223733
0.215785
0.205797
0.195781
0.192144
0.199358
0.207735
0.223534
0.260057
0.351274
0.535367
0.693371
0.802334
0.875511
0.918562
0.937073
0.936029
0.919696
0.89165
0.85486
0.811778
0.764427
0.714461
0.663228
0.611807
0.561011
0.513279
0.46896
0.427814
0.389675
0.354405
0.321875
0.291958
0.264529
0.239462
0.21663
0.195906
0.177161
0.160278
0.145175
0.130713
0.116788
0.103435
0.0907121
0.078703
0.0675391
0.0574294
0.0487454
0.0423013
0.04085
0.0464315
0.0540485
0.0628427
0.0726235
0.0832645
0.0946341
0.106588
0.118971
0.131622
0.144381
0.157176
0.17107
0.185986
0.201603
0.217614
0.233716
0.249627
0.265149
0.279152
0.290713
0.299508
0.305211
0.307502
0.30609
0.300755
0.291423
0.278286
0.261918
0.243349
0.223995
0.205416
0.188991
0.175708
0.166184
0.159643
0.155015
0.151491
0.148495
0.145652
0.142754
0.139722
0.136556
0.133308
0.130059
0.126917
0.124026
0.121574
0.11976
0.118621
0.118008
0.118122
0.119125
0.121198
0.124616
0.129914
0.137934
0.149181
0.162316
0.173285
0.177786
0.176141
0.172786
0.189215
0.264456
0.335274
0.371256
0.377942
0.363121
0.334557
0.298873
0.261173
0.227448
0.197835
0.171916
0.147136
0.124044
0.104129
0.0928457
0.10746
0.131009
0.159022
0.193549
0.236947
0.288489
0.345137
0.14281
0.110296
0.11318
0.112442
0.112591
0.121597
0.147317
0.16491
0.171128
0.169831
0.164486
0.156903
0.148236
0.139315
0.130695
0.122694
0.115457
0.109027
0.103393
0.0985403
0.0944642
0.0912179
0.0900994
0.0936176
0.102207
0.116275
0.13603
0.161501
0.192448
0.228145
0.266757
0.306394
0.347848
0.380784
0.375941
0.322351
0.246712
0.185026
0.152229
0.147636
0.169799
0.209854
0.254767
0.284629
0.283523
0.255835
0.221168
0.203725
0.224077
0.306264
0.46
0.617033
0.64128
0.599482
0.563773
0.53376
0.494092
0.446791
0.396235
0.345428
0.296531
0.251079
0.210152
0.174456
0.144368
0.119975
0.101131
0.0875167
0.0786757
0.0740297
0.0730171
0.0730256
0.0732428
0.0736254
0.0741377
0.0747498
0.0754339
0.076162
0.0769018
0.0776139
0.0782486
0.0787435
0.0790231
0.0790008
0.0785843
0.0776841
0.0762342
0.0741992
0.0715829
0.0684304
0.0648216
0.0608603
0.0566575
0.0522978
0.0478562
0.0443279
0.041226
0.0383872
0.0358225
0.0335309
0.0315037
0.0297287
0.0281917
0.026877
0.025768
0.0248495
0.0241193
0.0235721
0.0231993
0.0229907
0.0229361
0.0230258
0.023283
0.0245065
0.0270613
0.0305991
0.0348917
0.0397115
0.0448086
0.0498897
0.054615
0.0586307
0.0616376
0.0634675
0.0641364
0.0638386
0.0628843
0.0616214
0.060369
0.0593633
0.0587642
0.0586582
0.059057
0.0599087
0.0611189
0.062572
0.0641427
0.0656978
0.0670931
0.0681705
0.0687607
0.0686956
0.0678382
0.0661441
0.0637696
0.060724
0.0569247
0.0525249
0.0481918
0.0449749
0.0443192
0.0474584
0.0550257
0.0685975
0.0948901
0.142496
0.193917
0.206163
0.199145
0.184486
0.165745
0.147899
0.134358
0.127024
0.126357
0.131409
0.137418
0.143204
0.147643
0.14941
0.147203
0.14008
0.127625
0.114558
0.102474
0.0914976
0.0823205
0.0752935
0.0704099
0.0682771
0.151983
0.101504
0.0940418
0.0967649
0.12804
0.168297
0.185446
0.180325
0.164749
0.147133
0.131074
0.117516
0.106396
0.0973711
0.0900516
0.0840785
0.0791432
0.0749963
0.0714475
0.068362
0.0656515
0.0632634
0.0611899
0.0599558
0.0601485
0.0625908
0.0683452
0.0785289
0.0940623
0.115468
0.142832
0.176418
0.217739
0.265591
0.308523
0.326385
0.304207
0.252477
0.200341
0.168168
0.166815
0.199518
0.249911
0.297364
0.318076
0.304613
0.293308
0.341901
0.472281
0.603909
0.597558
0.533721
0.460765
0.395007
0.340241
0.291264
0.244563
0.201344
0.163224
0.131313
0.106046
0.08716
0.0738676
0.065102
0.0597567
0.0568501
0.0555994
0.0554201
0.0558931
0.056734
0.0577219
0.0586941
0.0596431
0.0605702
0.0614845
0.0623996
0.0633306
0.0642898
0.0652824
0.0663011
0.0673216
0.0682979
0.0691606
0.069817
0.0701572
0.0700658
0.0694389
0.0682031
0.0663312
0.0638495
0.0608322
0.0573859
0.0536242
0.0496195
0.0455476
0.0422188
0.0391414
0.0362766
0.0336331
0.0312066
0.028986
0.0269578
0.025107
0.0234187
0.0218784
0.0204724
0.0191882
0.0180142
0.0169399
0.0159558
0.0150536
0.0142253
0.0134646
0.0127694
0.0121585
0.0117122
0.0114596
0.0114342
0.0116719
0.0121983
0.013005
0.0140252
0.0151266
0.0161368
0.0168943
0.0173013
0.017347
0.0170985
0.0166693
0.0161852
0.0157588
0.0154754
0.0153867
0.0155126
0.0158471
0.0163651
0.0170284
0.0177888
0.0185878
0.0193552
0.0200093
0.0204642
0.0206462
0.0205048
0.0200173
0.019227
0.0184346
0.0180301
0.0182601
0.0197198
0.0235416
0.0310349
0.0440133
0.0679616
0.112622
0.168085
0.181003
0.15985
0.141106
0.126632
0.116844
0.111814
0.110945
0.113564
0.118694
0.125111
0.131828
0.138106
0.143013
0.145351
0.143775
0.137152
0.125125
0.112397
0.0997315
0.0878481
0.0774156
0.06874
0.0618718
0.0570001
0.0835772
0.0785542
0.0962331
0.174503
0.221587
0.219535
0.193931
0.16427
0.13866
0.118765
0.103886
0.0928665
0.0846832
0.0785363
0.0738144
0.0700581
0.0669359
0.0642236
0.0617841
0.0595449
0.0574765
0.0555722
0.0538357
0.0523545
0.0512736
0.0508264
0.0515058
0.054121
0.0597546
0.0695475
0.0843955
0.104964
0.132265
0.167024
0.206545
0.241575
0.258176
0.249678
0.226394
0.206927
0.207473
0.243478
0.304774
0.374746
0.422709
0.454449
0.497575
0.536912
0.536454
0.48843
0.413797
0.342685
0.282679
0.233284
0.191876
0.156081
0.125519
0.100937
0.0825765
0.0699279
0.0619429
0.057388
0.0551389
0.0543319
0.0543776
0.0548985
0.0556588
0.056513
0.0573754
0.0582003
0.0588728
0.0593558
0.0596578
0.0598027
0.0598313
0.0597989
0.0597696
0.059809
0.059975
0.0603091
0.0608272
0.0615122
0.0623081
0.0631182
0.0638092
0.0642237
0.0642019
0.0636089
0.0623605
0.0604417
0.0579075
0.054865
0.0514401
0.0477105
0.0441266
0.0410395
0.0381269
0.0354109
0.0329001
0.0305907
0.0284728
0.0265333
0.0247581
0.0231329
0.0216442
0.0202793
0.0190267
0.0178759
0.0168172
0.0158422
0.0149432
0.014113
0.0133456
0.0126353
0.0119774
0.0113696
0.0108123
0.010307
0.00985779
0.00947124
0.00915512
0.00891402
0.00874319
0.00862399
0.00852588
0.00841606
0.00827135
0.00808528
0.00786733
0.00763701
0.0074171
0.00722896
0.00708996
0.00701269
0.00700482
0.00706926
0.00720426
0.00740321
0.00765419
0.00793954
0.00823589
0.00851626
0.00875475
0.00893172
0.00904089
0.00911541
0.00928462
0.00983097
0.0112887
0.0145372
0.0208068
0.0317109
0.0503581
0.0839494
0.13357
0.164856
0.148827
0.127468
0.114621
0.107657
0.104467
0.103758
0.105378
0.109125
0.114289
0.120088
0.125895
0.131259
0.135533
0.137682
0.136307
0.129985
0.118968
0.107054
0.0946623
0.0829155
0.0725473
0.0639047
0.0570481
0.0520353
0.0631251
0.104235
0.258112
0.270753
0.231677
0.186755
0.150631
0.124794
0.107018
0.0948517
0.0864388
0.0804872
0.0761
0.0726535
0.0697247
0.0670452
0.0644675
0.0619361
0.0594605
0.0570877
0.0548776
0.0528822
0.0511355
0.049654
0.0484214
0.0474321
0.0468359
0.0469627
0.0484166
0.0521114
0.0591532
0.0706071
0.0874138
0.110308
0.139016
0.170481
0.19778
0.213966
0.219927
0.227799
0.255205
0.313143
0.403511
0.515962
0.605249
0.574229
0.504604
0.450917
0.390149
0.325463
0.26527
0.215112
0.174322
0.14112
0.114158
0.0928752
0.0771599
0.0666457
0.0604474
0.0574335
0.0565302
0.0568982
0.057967
0.0593812
0.0609276
0.062478
0.0639519
0.0652927
0.0664531
0.0673906
0.0679148
0.0679889
0.0675987
0.0667697
0.0655701
0.0641073
0.0625186
0.0609554
0.0595659
0.0584759
0.0577734
0.0574954
0.0576205
0.0580648
0.0586836
0.0592829
0.0596458
0.0595648
0.0588777
0.0575014
0.0554483
0.0528088
0.049708
0.0462865
0.0431813
0.0402686
0.0375073
0.0349244
0.0325295
0.0303208
0.0282896
0.026424
0.0247109
0.0231373
0.0216907
0.0203595
0.0191334
0.0180029
0.0169594
0.0159953
0.0151036
0.0142781
0.0135131
0.0128034
0.0121442
0.0115312
0.0109613
0.0104313
0.00993843
0.00948046
0.00905595
0.00866379
0.00830272
0.00797053
0.00766363
0.00737738
0.00710726
0.00685018
0.00660517
0.00637323
0.00615683
0.00595927
0.00578424
0.00563553
0.00551684
0.00543154
0.00538237
0.00537112
0.00539815
0.00546196
0.00555891
0.00568356
0.00583025
0.00599653
0.0061916
0.00646253
0.00695096
0.00797552
0.0101405
0.01448
0.0225462
0.0364916
0.0606638
0.0994278
0.140593
0.145771
0.124246
0.109709
0.103436
0.101143
0.10035
0.101045
0.103659
0.107749
0.112521
0.117254
0.121592
0.125488
0.128691
0.130389
0.129138
0.123223
0.113792
0.102609
0.0906482
0.0791232
0.0688291
0.0601538
0.0531769
0.0478764
0.0945625
0.290148
0.278733
0.218318
0.167786
0.134125
0.11311
0.100144
0.0920084
0.0866579
0.0828359
0.079777
0.0770075
0.0742407
0.0713197
0.0681914
0.0648839
0.0614871
0.0581312
0.0549609
0.0521067
0.049659
0.0476594
0.046107
0.0449769
0.0440983
0.0434731
0.0431861
0.0434794
0.04484
0.0480595
0.0541918
0.0643704
0.0795195
0.100041
0.125376
0.153361
0.180965
0.208959
0.248687
0.315339
0.4055
0.543415
0.675805
0.58647
0.465536
0.383448
0.320015
0.264337
0.21526
0.173794
0.140182
0.11345
0.0927585
0.0775197
0.0672096
0.0611346
0.0583726
0.057935
0.0589701
0.0608566
0.0631961
0.0657565
0.0684114
0.0710921
0.0737529
0.0763465
0.0788067
0.0810403
0.0828871
0.0839293
0.0840866
0.0833
0.0815813
0.0790229
0.0757976
0.0721451
0.0683463
0.0646893
0.0614322
0.0587724
0.0568252
0.0556158
0.055084
0.0550863
0.0554034
0.0557742
0.0559285
0.0556236
0.0546874
0.0530693
0.0508169
0.0480269
0.0450912
0.0423071
0.0395894
0.0369948
0.0345561
0.0322858
0.030184
0.0282435
0.0264536
0.0248026
0.0232785
0.0218704
0.0205682
0.0193629
0.0182463
0.0172113
0.0162513
0.0153603
0.0145329
0.013764
0.0130491
0.0123838
0.0117641
0.0111866
0.0106483
0.0101457
0.00967628
0.00923733
0.00882674
0.0084426
0.00808326
0.00774716
0.00743278
0.00713866
0.00686342
0.00660588
0.00636519
0.00614085
0.00593281
0.00574147
0.00556772
0.0054129
0.00527879
0.00516745
0.00508117
0.00502225
0.00499283
0.00499476
0.00502966
0.00509987
0.00521162
0.00538521
0.00568457
0.00628041
0.00755156
0.0102215
0.0155056
0.0252324
0.0421868
0.0706527
0.10939
0.136157
0.126617
0.108719
0.100737
0.0989007
0.0986193
0.098976
0.100956
0.10456
0.108874
0.112966
0.116151
0.118465
0.120372
0.122086
0.123033
0.121738
0.116614
0.108605
0.0983398
0.0870531
0.0759609
0.0659015
0.0573072
0.0502916
0.0448135
0.186024
0.296123
0.220232
0.161718
0.128613
0.110891
0.101351
0.0958656
0.0922829
0.0895436
0.0870728
0.0845117
0.081627
0.0783059
0.0745192
0.0703244
0.0658347
0.0612145
0.0566689
0.0524226
0.0486847
0.0455931
0.043194
0.0414635
0.040392
0.0397913
0.0394882
0.0394417
0.0397158
0.0405392
0.0423701
0.0459599
0.0523563
0.0627004
0.0778869
0.0985359
0.125275
0.159238
0.205695
0.279015
0.386192
0.523951
0.670071
0.597812
0.444474
0.342317
0.274564
0.223909
0.182372
0.147711
0.119533
0.0975345
0.0811667
0.0698516
0.0629255
0.0596107
0.0590559
0.0604433
0.0630992
0.0665422
0.0704628
0.0746761
0.0790754
0.0835967
0.0881901
0.0927968
0.0973312
0.10167
0.105652
0.108712
0.110475
0.110769
0.109481
0.106593
0.102205
0.0965542
0.0900074
0.083029
0.0761225
0.0697546
0.0642862
0.0599274
0.0567277
0.054624
0.0534603
0.0529846
0.0529026
0.052907
0.0526994
0.0520052
0.0507056
0.0487773
0.0463535
0.043885
0.0413491
0.0388429
0.0364329
0.0341559
0.0320271
0.0300483
0.0282134
0.0265125
0.0249347
0.0234694
0.0221068
0.0208383
0.0196565
0.0185548
0.0175276
0.0165698
0.0156767
0.0148441
0.0140679
0.013344
0.0126689
0.0120389
0.0114509
0.0109017
0.0103885
0.00990836
0.009459
0.00903821
0.0086441
0.00827502
0.00792948
0.00760613
0.00730366
0.00702077
0.00675622
0.00650884
0.00627766
0.00606202
0.00586158
0.00567643
0.00550707
0.0053544
0.00521974
0.00510483
0.00501175
0.00494296
0.00490132
0.00489028
0.00491493
0.0049855
0.00512976
0.0054267
0.00607754
0.00752416
0.0106112
0.0167476
0.0280437
0.0477844
0.0786434
0.113283
0.126841
0.112111
0.0995024
0.096454
0.0969704
0.0976549
0.0992977
0.102794
0.107443
0.111881
0.115017
0.116272
0.116169
0.115731
0.115681
0.115615
0.114078
0.109969
0.103051
0.0938143
0.0833723
0.0728889
0.0632212
0.0548421
0.0479068
0.0423857
0.389824
0.260556
0.172242
0.133289
0.11654
0.108555
0.103997
0.100953
0.0985915
0.0963777
0.0939435
0.0910736
0.0876453
0.083641
0.0790407
0.0739253
0.0683875
0.0625885
0.0567709
0.0512467
0.0463716
0.0423901
0.0393786
0.037287
0.0360329
0.0355685
0.035551
0.0358276
0.0363512
0.0372229
0.0387205
0.0413384
0.045878
0.0534786
0.0654124
0.0831387
0.109233
0.148955
0.213984
0.316211
0.440705
0.584171
0.601496
0.448083
0.324934
0.248935
0.19854
0.160993
0.130898
0.106706
0.0880713
0.0746746
0.0659919
0.0613667
0.0600652
0.0613531
0.0645705
0.0691824
0.0747859
0.0810824
0.0878461
0.0949053
0.10213
0.109417
0.116662
0.123742
0.130488
0.136683
0.142072
0.145924
0.148125
0.148415
0.146569
0.142446
0.136048
0.127568
0.117426
0.106262
0.0948819
0.0841221
0.074681
0.0669837
0.0610836
0.0568368
0.0540174
0.0522899
0.0513052
0.0507403
0.0502938
0.0495815
0.0484294
0.0467283
0.0447525
0.0425551
0.0402607
0.0379714
0.0357561
0.0336536
0.031681
0.0298406
0.0281269
0.0265304
0.0250407
0.0236478
0.0223431
0.0211189
0.0199694
0.0188895
0.0178751
0.0169227
0.0160292
0.0151916
0.0144071
0.0136729
0.0129861
0.0123438
0.0117433
0.0111816
0.0106561
0.0101641
0.00970339
0.00927184
0.0088676
0.00848898
0.00813445
0.00780257
0.00749193
0.00720115
0.00692885
0.00667376
0.00643473
0.00621087
0.00600156
0.00580654
0.00562592
0.00546023
0.00531044
0.00517795
0.00506464
0.0049729
0.00490577
0.00486724
0.00486342
0.00490662
0.00502951
0.00532248
0.00601171
0.00759295
0.0110195
0.0178951
0.0306246
0.0524284
0.0839705
0.11268
0.116964
0.10223
0.0941927
0.0944076
0.0960213
0.0975872
0.100771
0.105878
0.111571
0.116047
0.118006
0.117122
0.11449
0.111617
0.10971
0.108481
0.106776
0.103277
0.0973066
0.0891016
0.0795746
0.0697978
0.0606231
0.052556
0.0457944
0.0403337
0.464059
0.211068
0.147494
0.129071
0.120708
0.115505
0.11209
0.109491
0.107111
0.104628
0.10188
0.0987738
0.0952037
0.0911164
0.0862998
0.0808185
0.0746378
0.0678557
0.0607235
0.0536229
0.0471723
0.0418513
0.0378161
0.0350463
0.0333756
0.03266
0.0326333
0.0330325
0.0337201
0.0347035
0.0361685
0.0384756
0.0422399
0.0485166
0.058826
0.0753596
0.102534
0.150095
0.233505
0.348854
0.470125
0.559749
0.464607
0.328208
0.239187
0.184733
0.147894
0.120267
0.0987043
0.0823708
0.0709593
0.064044
0.0610383
0.0613004
0.0642168
0.0692512
0.0759485
0.0839049
0.0927409
0.102105
0.111701
0.121314
0.130807
0.140092
0.149086
0.157666
0.165645
0.172759
0.178688
0.183006
0.18572
0.186455
0.184833
0.18053
0.173343
0.163257
0.150517
0.135708
0.119794
0.104025
0.0896597
0.0777123
0.0684082
0.0614898
0.0566073
0.0532811
0.0510392
0.0495343
0.0485243
0.0475324
0.0463494
0.0448727
0.0431025
0.0411257
0.0390501
0.0369691
0.0349485
0.0330262
0.0312185
0.0295275
0.0279472
0.0264681
0.0250797
0.0237725
0.0225383
0.0213707
0.0202645
0.0192162
0.018223
0.0172828
0.016394
0.0155552
0.0147649
0.0140214
0.0133231
0.0126681
0.0120544
0.0114792
0.0109402
0.0104353
0.0099622
0.00951894
0.00910367
0.00871469
0.00835042
0.00800936
0.00769001
0.0073909
0.00711055
0.00684759
0.00660072
0.00636889
0.00615124
0.00594727
0.00575681
0.00558008
0.00541773
0.00527092
0.00514133
0.0050313
0.00494396
0.00488368
0.00485732
0.00487884
0.00498448
0.00527257
0.0059872
0.00766401
0.0113369
0.0187527
0.0325357
0.0557479
0.0866805
0.109537
0.108406
0.0956842
0.0912389
0.0932816
0.0954752
0.0980222
0.102809
0.109521
0.116259
0.120683
0.121159
0.118087
0.113128
0.10806
0.104358
0.10209
0.100031
0.096863
0.0916825
0.0844398
0.0758158
0.066766
0.0581214
0.0504133
0.0438798
0.0385452
0.424308
0.177796
0.152461
0.139839
0.132008
0.126776
0.122755
0.119371
0.116343
0.113503
0.110731
0.107901
0.10485
0.10136
0.0971711
0.0920235
0.0857526
0.078356
0.0700394
0.0611152
0.052445
0.0450752
0.0392438
0.035132
0.03264
0.0314572
0.0312234
0.0315486
0.032211
0.0331709
0.0345829
0.0367711
0.0402998
0.0462372
0.05634
0.073559
0.1045
0.162711
0.258898
0.367916
0.470362
0.465158
0.345574
0.243225
0.180525
0.141349
0.114171
0.0939447
0.0789785
0.0687621
0.0629196
0.060958
0.0623309
0.0665249
0.0730845
0.0815755
0.0915253
0.102406
0.113688
0.124925
0.135825
0.146255
0.156196
0.16568
0.174723
0.183279
0.191213
0.198286
0.204143
0.208834
0.212217
0.213828
0.213174
0.209795
0.203318
0.193514
0.18035
0.164084
0.145478
0.12591
0.106999
0.0906708
0.0777228
0.0678747
0.0606859
0.0555778
0.0518794
0.0492003
0.0473723
0.0459522
0.0445996
0.0431197
0.0414532
0.0396358
0.0377436
0.0358527
0.0340195
0.0322766
0.0306373
0.0291018
0.0276628
0.02631
0.0250328
0.0238218
0.022669
0.0215685
0.0205163
0.0195097
0.0185469
0.0176273
0.0167505
0.0159164
0.0151249
0.0143757
0.0136681
0.0130022
0.0123755
0.0117867
0.0112341
0.0107158
0.0102298
0.0097744
0.00934766
0.0089479
0.0085735
0.00822288
0.0078945
0.0075868
0.00729829
0.00702748
0.00677303
0.00653372
0.00630856
0.00609682
0.00589806
0.00571221
0.00553964
0.00538119
0.00523831
0.00511316
0.00500886
0.00492999
0.00488399
0.00488612
0.00497513
0.00525426
0.00597846
0.00770885
0.0115336
0.0193028
0.0337823
0.0577141
0.0872442
0.105356
0.101706
0.0915143
0.0895205
0.0923842
0.0949747
0.0984562
0.104761
0.113045
0.120882
0.125228
0.123566
0.118399
0.111602
0.104973
0.0998765
0.0965079
0.0939801
0.0909901
0.0864665
0.0800849
0.0722932
0.063926
0.0557895
0.0484385
0.0421474
0.0369686
0.32727
0.191412
0.171241
0.157045
0.147258
0.139928
0.134131
0.129463
0.125709
0.12272
0.120343
0.118371
0.116517
0.114395
0.111527
0.107409
0.101628
0.0940146
0.0847499
0.0743753
0.0636963
0.0536361
0.0450614
0.0385256
0.0341867
0.0320853
0.0313862
0.0315374
0.0319897
0.0327485
0.0340132
0.0361625
0.0398639
0.0463634
0.0577271
0.0778233
0.115528
0.18496
0.281537
0.37425
0.426347
0.361046
0.258242
0.185102
0.140556
0.111818
0.0916415
0.0771603
0.0674316
0.0620317
0.0605411
0.0625002
0.0674735
0.0750602
0.0848228
0.0961988
0.108491
0.120971
0.133029
0.144291
0.154632
0.164119
0.172915
0.181192
0.189069
0.196578
0.20365
0.210103
0.215643
0.220559
0.224537
0.227075
0.227612
0.225585
0.220521
0.212087
0.200098
0.184461
0.165482
0.144466
0.122833
0.10315
0.0872104
0.0747743
0.065363
0.0585183
0.053346
0.0495282
0.0467826
0.044753
0.043073
0.0414746
0.0398275
0.0381122
0.0363673
0.0346453
0.0329882
0.0314201
0.0299487
0.0285707
0.0272769
0.0260557
0.0248961
0.0237883
0.0227247
0.0216999
0.0207102
0.0197539
0.0188302
0.0179393
0.0170821
0.0162596
0.0154728
0.0147227
0.01401
0.0133358
0.0126984
0.0120973
0.0115317
0.0110003
0.0105016
0.0100338
0.00959545
0.0091847
0.00879995
0.00843957
0.00810198
0.00778558
0.00748883
0.00721022
0.00694834
0.00670189
0.00646977
0.00625108
0.00604518
0.00585175
0.0056709
0.00550317
0.00534973
0.00521249
0.00509444
0.00500017
0.00493744
0.00492223
0.00499456
0.00525953
0.00597588
0.00771518
0.0115918
0.0195138
0.034311
0.0583483
0.0862092
0.101027
0.0967545
0.0888988
0.0883672
0.091541
0.0945496
0.0988874
0.106139
0.115185
0.123016
0.126373
0.123964
0.117855
0.109931
0.102094
0.0958509
0.0915922
0.08866
0.085823
0.0818757
0.0762475
0.0691771
0.0613962
0.0536962
0.0466583
0.0405904
0.0355684
0.24896
0.219264
0.196215
0.177312
0.16341
0.152644
0.144183
0.137728
0.133071
0.130004
0.12829
0.127648
0.127708
0.127957
0.127695
0.126072
0.12225
0.115664
0.106272
0.0946268
0.0817425
0.0688516
0.0571627
0.0476268
0.0407405
0.0364486
0.0342205
0.0334954
0.0333781
0.0337226
0.0348445
0.0372541
0.0419008
0.050316
0.0649064
0.09045
0.136205
0.210317
0.294622
0.360276
0.354334
0.27614
0.19743
0.145326
0.112954
0.09151
0.0766487
0.0667476
0.0611981
0.0596034
0.0615733
0.0667407
0.0747602
0.0852129
0.0974805
0.11072
0.123998
0.136515
0.147772
0.157619
0.166184
0.17375
0.180634
0.187098
0.193309
0.199331
0.205123
0.21055
0.215536
0.2203
0.224528
0.227762
0.229395
0.22875
0.225219
0.218405
0.208165
0.194245
0.176362
0.155837
0.133757
0.112366
0.094816
0.0807898
0.069938
0.061521
0.0549695
0.0499955
0.046357
0.0437101
0.0416625
0.039894
0.0382174
0.0365651
0.0349396
0.0333684
0.0318765
0.0304769
0.0291702
0.0279488
0.0268006
0.0257128
0.0246737
0.0236732
0.0227038
0.0217604
0.0208398
0.0199407
0.0190631
0.0182081
0.0173774
0.016573
0.0157972
0.0150518
0.0143386
0.01366
0.0130151
0.0124042
0.0118274
0.011284
0.0107731
0.0102935
0.00984357
0.00942189
0.0090268
0.00865668
0.00830989
0.00798481
0.00767986
0.00739351
0.00712431
0.00687092
0.00663215
0.00640698
0.00619464
0.00599463
0.00580681
0.00563149
0.00546957
0.00532271
0.00519366
0.00508691
0.00501025
0.00497981
0.00503559
0.00528145
0.0059729
0.00767696
0.0115059
0.0193775
0.0341168
0.0577616
0.08404
0.09695
0.0931938
0.0872381
0.0874448
0.0906682
0.0940629
0.0989859
0.106561
0.115447
0.122557
0.125087
0.122298
0.115813
0.107363
0.0988913
0.091977
0.0871792
0.0840566
0.0814586
0.0780586
0.0730739
0.0665804
0.059247
0.051873
0.0450733
0.0391855
0.0343023
0.220195
0.254394
0.222519
0.196323
0.176779
0.161398
0.149547
0.140925
0.13518
0.131936
0.130849
0.131627
0.13397
0.13743
0.141233
0.144179
0.144778
0.141678
0.134209
0.122698
0.10832
0.0926966
0.0774969
0.0640872
0.0533505
0.0456506
0.0407967
0.0382708
0.037402
0.0374923
0.0389689
0.0426414
0.0496725
0.0614864
0.0803526
0.111179
0.161193
0.228879
0.293605
0.321536
0.283454
0.21354
0.155389
0.117662
0.0935792
0.0774727
0.0667854
0.0605505
0.0583126
0.0597217
0.0644704
0.0722845
0.0828201
0.0954898
0.10938
0.123378
0.136445
0.147885
0.157443
0.165258
0.171711
0.177261
0.182301
0.187086
0.191713
0.196171
0.200393
0.204337
0.208271
0.212217
0.216057
0.219479
0.221873
0.222439
0.220358
0.215041
0.206451
0.194483
0.178285
0.159069
0.138485
0.118139
0.0999497
0.0849381
0.073011
0.06352
0.0559538
0.0500929
0.0457512
0.0426021
0.0402394
0.0383121
0.0365971
0.0349927
0.0334724
0.0320407
0.0307056
0.0294683
0.0283217
0.0272531
0.0262482
0.0252925
0.0243736
0.0234814
0.0226085
0.0217499
0.0209028
0.020066
0.0192403
0.0184271
0.017629
0.0168489
0.0160897
0.0153544
0.0146467
0.013968
0.0133192
0.0127015
0.0121158
0.0115622
0.0110405
0.0105498
0.010089
0.00965673
0.00925154
0.00887182
0.00851595
0.0081823
0.00786925
0.00757527
0.00729886
0.00703867
0.00679344
0.00656208
0.00634373
0.00613774
0.00594381
0.00576203
0.00559309
0.00543839
0.00530046
0.00518357
0.00509532
0.00505153
0.00509097
0.00531351
0.00596486
0.00759332
0.0112818
0.0189117
0.0332458
0.0561103
0.0810537
0.0932063
0.0906179
0.086136
0.0866047
0.0897208
0.0933787
0.0985347
0.105846
0.113914
0.120001
0.121817
0.118778
0.112223
0.103725
0.0951571
0.0880776
0.0831662
0.0801654
0.0779658
0.0751085
0.0706407
0.0645445
0.0574841
0.0502985
0.0436448
0.0378837
0.0331137
0.271153
0.282881
0.243012
0.208982
0.182504
0.162233
0.14704
0.136503
0.129854
0.126356
0.125475
0.126962
0.130821
0.137107
0.145485
0.154775
0.162819
0.16696
0.165141
0.156842
0.143069
0.125766
0.10727
0.0896402
0.0742142
0.0618055
0.0529399
0.0476725
0.0462076
0.0466108
0.0492245
0.0547968
0.0642343
0.0787865
0.100886
0.134553
0.1822
0.236975
0.276983
0.2725
0.225272
0.168864
0.125988
0.0980461
0.0798179
0.0677756
0.0604004
0.0570655
0.0574127
0.0611723
0.0681412
0.0781013
0.0906157
0.104844
0.11958
0.133535
0.145705
0.155599
0.163258
0.169111
0.173762
0.17778
0.181538
0.185143
0.188501
0.191462
0.193979
0.196241
0.198605
0.201064
0.203757
0.206629
0.209147
0.210444
0.209522
0.20548
0.198149
0.187778
0.174117
0.157345
0.138391
0.119053
0.101296
0.0862802
0.0740346
0.0640266
0.0558803
0.049489
0.0447205
0.04126
0.0386964
0.0366687
0.0349404
0.0333914
0.0319759
0.03068
0.0294966
0.0284158
0.0274231
0.0265016
0.0256345
0.0248063
0.0240044
0.0232187
0.022442
0.0216694
0.0208981
0.0201274
0.0193579
0.0185917
0.0178316
0.0170811
0.016344
0.015624
0.0149264
0.0142516
0.0136026
0.0129816
0.01239
0.0118289
0.0112984
0.0107983
0.0103278
0.00988583
0.00947119
0.00908235
0.00871777
0.00837583
0.00805493
0.00775351
0.00747009
0.00720326
0.00695176
0.00671444
0.00649036
0.00627879
0.0060793