/*--------------------------------*- C++ -*----------------------------------*\
| =========                 |                                                 |
| \\      /  F ield         | OpenFOAM: The Open Source CFD Toolbox           |
|  \\    /   O peration     | Version:  2112                                  |
|   \\  /    A nd           | Website:  www.openfoam.com                      |
|    \\/     M anipulation  |                                                 |
\*---------------------------------------------------------------------------*/
FoamFile
{
    version     2.0;
    format      ascii;
    arch        "LSB;label=32;scalar=64";
    class       volScalarField;
    location    "0.12";
    object      ddt0(kU);
}
// * * * * * * * * * * * * * * * * * * * * * * * * * * * * * * * * * * * * * //

dimensions      [0 2 -3 0 0 0 0];

internalField   nonuniform List<scalar> 
12225
(
-5.47403e-05
0.000243461
-0.00056217
0.000806951
-0.000813125
-0.00497952
-0.00558259
0.0870681
-0.0865211
0.00505775
-0.0532989
0.073428
-0.0761434
-0.0331358
0.150086
-0.0455913
-0.219176
0.024312
0.00153364
-0.00366071
-0.00221115
0.0194039
-0.00781404
-0.248149
0.57523
-0.264229
-1.28425
1.77577
-1.66847
1.78326
-1.47988
-1.43683
9.54482
-5.97601
-1.53727
0.183415
0.000302626
9.66871e-05
-0.00381743
0.0106861
-0.0285588
0.0211866
0.0539683
-0.0945073
0.0921671
-0.0716701
-0.00529522
0.119031
-0.287454
0.227178
0.0718736
-0.0698687
0.292347
-0.659245
0.000105587
0.000118307
-0.00151775
0.00313214
-0.011042
0.0144497
-0.00208442
-0.0104076
0.0197419
-0.0238748
0.0303291
-0.022202
-0.0297798
0.0522669
-0.0148599
0.03105
-0.0322265
-0.131353
4.26874e-05
4.1309e-05
-0.000624637
0.000741225
-0.00398305
0.00548203
-0.00204955
-0.000988685
0.00318853
-0.00448215
0.00767344
-0.0106418
-0.00134218
0.00825226
-0.00547906
0.0288449
-0.0364042
-0.0407652
1.74915e-05
5.14766e-06
-0.000292745
6.54454e-05
-0.0015444
0.00207752
-0.000747828
-0.000152219
0.000493179
-0.00106381
0.00129922
-0.00372353
0.000411025
0.000982936
-0.00511128
0.017524
-0.00359628
-0.0357943
6.54525e-06
-8.56754e-06
-0.000155609
-0.000109057
-0.000650985
0.000794956
-0.000282528
-0.00014525
-6.12271e-05
-0.000530099
-0.000160803
-0.00147098
-7.78839e-05
-0.000559332
-0.0025052
0.00701452
-0.00364008
-0.014961
2.3742e-06
-1.22003e-05
-9.33988e-05
-0.000133454
-0.000309952
0.000273538
-0.000166279
-0.000196459
-0.000236625
-0.000460559
-0.000474855
-0.000835148
-0.000440997
-0.00088178
-0.00122847
0.00173587
-0.00407551
-0.00457642
1.17925e-06
-1.20791e-05
-6.24678e-05
-0.000118152
-0.000178842
4.4999e-05
-0.000158979
-0.000237087
-0.000314325
-0.000460572
-0.000543235
-0.000680742
-0.000633599
-0.000913947
-0.000926152
-0.000386311
-0.0024122
-0.00195746
1.66164e-06
-9.1067e-06
-4.44228e-05
-9.756e-05
-0.000128997
-6.08144e-05
-0.000177164
-0.000264494
-0.000352883
-0.000467941
-0.000561947
-0.000659564
-0.000728724
-0.000907587
-0.000948562
-0.00101578
-0.00163039
-0.00150884
3.46657e-06
-5.96904e-06
-3.35091e-05
-7.91975e-05
-0.000109024
-0.000110087
-0.000194166
-0.00027992
-0.000369888
-0.000471324
-0.000567757
-0.000665574
-0.000769913
-0.000908423
-0.00100887
-0.00116933
-0.00141552
-0.00149868
4.55182e-06
-2.49215e-06
-2.56683e-05
-6.54562e-05
-9.906e-05
-0.000128473
-0.000201279
-0.000283306
-0.00037133
-0.000466642
-0.000563539
-0.000665032
-0.000777363
-0.00090492
-0.00103037
-0.00118966
-0.00136356
-0.0015116
5.16626e-06
8.43821e-07
-1.88393e-05
-5.36847e-05
-9.04854e-05
-0.00013259
-0.000199398
-0.000277133
-0.00036187
-0.000452983
-0.00054893
-0.00065133
-0.000763722
-0.000886537
-0.00101738
-0.00116574
-0.00132146
-0.00148393
5.38786e-06
4.03571e-06
-1.17143e-05
-4.14858e-05
-7.87261e-05
-0.00012485
-0.000186435
-0.00025839
-0.00033774
-0.000423483
-0.00051535
-0.000614042
-0.000721017
-0.000836479
-0.000960589
-0.00109479
-0.00123669
-0.00138953
5.16521e-06
6.50873e-06
-4.57915e-06
-2.8307e-05
-6.18887e-05
-0.000105201
-0.000159617
-0.000222973
-0.000293438
-0.000370042
-0.000452559
-0.000541044
-0.000635829
-0.000736935
-0.000844321
-0.000957863
-0.00107746
-0.00120516
4.46024e-06
7.63984e-06
1.58621e-06
-1.46385e-05
-4.02111e-05
-7.45656e-05
-0.000117351
-0.000167415
-0.000223322
-0.000284295
-0.000349816
-0.000419516
-0.000493064
-0.000570128
-0.000650298
-0.000733142
-0.000818623
-0.000907172
3.25478e-06
6.97614e-06
5.51953e-06
-2.17433e-06
-1.61692e-05
-3.61343e-05
-6.15372e-05
-9.15419e-05
-0.000125291
-0.000161974
-0.000200898
-0.000241326
-0.000282818
-0.000324771
-0.00036656
-0.000407601
-0.000447509
-0.000485275
1.57747e-06
4.48911e-06
6.56418e-06
7.42413e-06
6.91247e-06
5.0887e-06
2.18047e-06
-1.43537e-06
-5.30231e-06
-8.90987e-06
-1.17794e-05
-1.34483e-05
-1.33271e-05
-1.08722e-05
-5.51728e-06
3.27913e-06
1.57416e-05
3.19116e-05
-4.2462e-07
8.8831e-07
5.77027e-06
1.48058e-05
2.80398e-05
4.53536e-05
6.65855e-05
9.15911e-05
0.000120276
0.000152616
0.000188659
0.000228519
0.000272384
0.000320472
0.000373011
0.000430195
0.00049226
0.000559572
-2.00853e-06
-1.30928e-06
6.7178e-06
2.26386e-05
4.60435e-05
7.63809e-05
0.000113069
0.000155602
0.000203563
0.000256618
0.000314526
0.000377132
0.000444332
0.000516067
0.0005923
0.000673025
0.000758299
0.000848526
-2.86252e-06
-1.33122e-06
9.9653e-06
3.05344e-05
5.92509e-05
9.52813e-05
0.000137905
0.000186551
0.000240859
0.000300404
0.000364845
0.000433995
0.000507612
0.000585508
0.000667482
0.000753328
0.000843036
0.000936978
-3.14642e-06
1.80165e-07
1.42625e-05
3.71203e-05
6.72023e-05
0.000103996
0.000146632
0.000194555
0.000247999
0.000306318
0.000368857
0.00043591
0.000506961
0.000581823
0.000660356
0.000741788
0.000826271
0.000914377
-2.89491e-06
2.30985e-06
1.77683e-05
4.04154e-05
6.85508e-05
0.00010303
0.000142235
0.000184814
0.000233634
0.000287087
0.000342254
0.000402857
0.000466562
0.000532929
0.000604215
0.000676277
0.000749951
0.00082796
-2.11664e-06
3.96045e-06
1.9119e-05
3.99174e-05
6.32705e-05
9.4469e-05
0.000129493
0.000161706
0.000204829
0.000255237
0.000295626
0.000350045
0.000406265
0.000455883
0.000523446
0.00058689
0.000642292
0.000707337
-6.76989e-07
4.16527e-06
1.77958e-05
3.6939e-05
5.13697e-05
8.05346e-05
0.000115917
0.000126079
0.000163515
0.00023026
0.000229097
0.000285906
0.000358224
0.000348334
0.000422567
0.000522641
0.00052936
0.000551647
-1.51373e-07
4.65742e-06
1.35947e-05
3.51419e-05
3.05243e-05
6.13558e-05
0.000117712
7.19053e-05
9.33232e-05
0.000269321
0.000118529
0.000176068
0.000451853
0.000225277
6.33562e-05
0.000704151
0.000583807
0.000281359
2.13747e-08
4.46324e-06
5.44273e-06
4.31665e-05
-7.59293e-06
3.10728e-05
0.000175327
-1.73637e-05
-9.06842e-05
0.00055903
-6.90528e-05
-0.000314566
0.000992211
0.00153579
-0.00355409
0.0017051
0.00322166
7.566e-05
-1.46462e-07
4.16891e-06
-1.17721e-05
7.26045e-05
-7.70574e-05
-1.85243e-05
0.000341946
-0.000201475
-0.000596233
0.00135966
-7.00412e-05
-0.00204642
-0.00255527
0.0193513
-0.0189115
-0.0346652
0.0497745
0.0111874
-2.72984e-06
2.15649e-06
-2.47796e-05
-2.88333e-05
1.12921e-05
-5.09807e-05
0.000174658
-0.00119635
-0.00023821
0.00085504
-0.00154506
-0.00216642
0.000137029
-0.669948
1.78064
-2.36424
1.00886
0.45511
-2.76119e-05
3.16008e-05
-2.69136e-05
7.40053e-05
5.73887e-05
0.000241586
0.000268136
0.000605302
0.000592418
0.00121631
0.0149467
-0.0316722
0.00200673
0.0232447
0.0133917
-0.0302574
0.0279732
0.0130454
-0.0131234
-0.0504782
-0.0507652
-0.0548511
-0.0682825
-0.122802
-0.194334
-0.286535
-0.393324
-0.3844
-0.455612
-0.561302
-0.651309
-0.723098
-0.804022
-0.83669
-0.924734
-0.948427
-0.980839
-0.995719
-1.02211
-1.05836
-1.10503
-1.16531
-1.24601
-1.3595
-1.51581
-1.5879
-0.351617
0.0259541
0.103685
-0.1536
-0.0318707
-0.0198194
-0.366896
-0.812308
-0.831251
-0.893357
-0.681599
-0.403524
1.37439
3.98277
2.0878
0.137347
-0.285068
-1.14073
-1.60466
-2.08106
-2.44826
-2.76944
-3.06105
-3.29312
-3.52109
-3.695
-3.86806
-4.00169
-4.13416
-4.24142
-4.34625
-4.4325
-4.51282
-4.58601
-4.65073
-4.71281
-4.7683
-4.82329
-4.87314
-4.92416
-4.97216
-5.02148
-5.07033
-5.12046
-5.17192
-5.2251
-5.28063
-5.33858
-5.39954
-5.46357
-5.53114
-5.60232
-5.67746
-5.75664
-5.84012
-5.92799
-6.02046
-6.11766
-6.21977
-6.32696
-6.43935
-6.55704
-6.68001
-6.80813
-6.94123
-7.0791
-7.22169
-7.36902
-7.52121
-7.6782
-7.83933
-8.00292
-8.16621
-8.32663
-8.48301
-8.63538
-8.78729
-8.94885
-9.11146
-9.26654
-9.42858
-9.57755
-9.72839
-9.87044
-10.0054
-10.1329
-10.249
-10.3549
-10.4472
-10.5263
-10.5897
-10.637
-10.6663
-10.6768
-10.6673
-10.6373
-10.5862
-10.5113
-10.4082
-10.2725
-10.1004
-9.85999
-9.63585
-9.37553
-9.0796
-8.76498
-8.42302
-8.04481
-7.6345
-7.21142
-6.73834
-6.25994
-5.79396
-5.26135
-4.73249
-4.18257
-3.61369
-3.03507
-2.46053
-1.89766
-1.34365
-0.805745
-1.22665
-4.23959
-8.00217
-8.17399
-8.05166
-7.94725
-7.83756
-7.74145
-7.67565
-7.62295
-7.4983
-7.2176
-7.38532
-6.81031
-6.89211
-7.1303
-7.32971
-7.49804
-7.6604
-7.77215
-7.92846
-8.02733
-8.18811
-8.31868
-8.47974
-8.63231
-8.73063
-8.83977
-9.01165
-9.86897
0.00148676
-0.0140588
-0.0167854
-0.0377499
-0.13276
-0.334216
-0.573419
-0.798364
-0.974844
-1.18837
-1.3581
-1.48745
-1.52833
-1.55509
-1.55546
-1.55229
-1.54562
-1.51526
-1.53052
-1.54034
-1.5664
-1.60846
-1.66706
-1.74363
-1.79564
-1.88371
-1.7851
-1.85257
-1.18636
-0.581383
-0.262888
0.0555962
0.594713
1.65923
0.0468756
-1.73736
-2.11849
-2.77166
-0.391315
1.81676
2.46511
1.4037
1.86546
0.334663
0.206988
-0.554546
-1.11446
-1.76837
-2.65762
-3.35772
-4.09113
-4.71959
-5.30787
-5.82345
-6.28208
-6.68594
-7.04255
-7.36357
-7.64923
-7.90311
-8.12194
-8.32539
-8.50154
-8.66529
-8.81141
-8.94787
-9.07327
-9.19237
-9.30529
-9.41489
-9.52215
-9.62874
-9.73589
-9.84471
-9.9563
-10.0715
-10.1913
-10.3163
-10.4472
-10.5846
-10.729
-10.8808
-11.0404
-11.2081
-11.3843
-11.5691
-11.7631
-11.9666
-12.18
-12.4036
-12.6376
-12.8823
-13.1376
-13.4036
-13.6804
-13.9682
-14.2676
-14.5791
-14.9027
-15.2372
-15.5799
-15.9291
-16.2776
-16.628
-17.0066
-17.3249
-17.6847
-18.0275
-18.3849
-18.7358
-19.0897
-19.4398
-19.7858
-20.1254
-20.4559
-20.7753
-21.081
-21.3711
-21.6437
-21.896
-22.1254
-22.329
-22.5047
-22.6513
-22.7689
-22.8576
-22.9177
-22.9478
-22.9382
-22.8868
-22.7641
-22.5848
-22.3475
-22.0613
-21.7171
-21.3062
-20.8522
-20.4182
-19.6719
-18.9659
-18.4923
-17.6184
-16.8316
-15.9795
-15.0601
-14.0782
-13.0586
-12.0307
-10.9844
-9.89672
-8.87901
-8.15121
-7.32256
-6.23659
-5.09701
-3.98268
-2.92575
-1.94657
-1.06174
-0.202673
0.701995
1.63172
2.4788
2.2766
2.52523
2.84271
3.21244
3.55176
3.85095
4.15894
4.4494
4.74019
4.95244
5.10255
5.16823
5.19282
5.16867
5.02899
5.01359
3.78453
0.00786943
-0.00383554
-0.0315219
-0.168298
-0.466115
-0.990035
-1.31692
-1.56545
-1.7641
-1.81776
-1.93243
-1.95653
-1.90255
-1.86458
-1.78771
-1.7605
-1.72178
-1.66453
-1.63953
-1.62852
-1.63473
-1.66745
-1.73096
-1.82777
-1.95867
-2.09408
-2.21359
-2.19932
-2.14866
-1.83859
-0.822646
-0.205861
0.321041
3.18945
0.475451
-2.47313
-2.35939
-1.46976
1.73529
3.73826
2.37406
3.07
2.20183
1.43677
0.2382
-1.05657
-2.46425
-3.76603
-4.8325
-5.83053
-6.73769
-7.55145
-8.28372
-8.93702
-9.51849
-10.0385
-10.504
-10.9239
-11.2969
-11.633
-11.9359
-12.2108
-12.4604
-12.6894
-12.9003
-13.0969
-13.2816
-13.4571
-13.6259
-13.79
-13.9515
-14.1122
-14.2736
-14.4373
-14.6045
-14.7763
-14.9537
-15.1377
-15.329
-15.5283
-15.736
-15.9527
-16.1786
-16.4139
-16.6588
-16.9134
-17.1777
-17.4519
-17.736
-18.03
-18.3338
-18.6474
-18.9704
-19.3026
-19.6436
-19.9933
-20.3513
-20.7173
-21.0908
-21.471
-21.8562
-22.2434
-22.6265
-23.0134
-23.4085
-23.8009
-24.1971
-24.5905
-24.9839
-25.3726
-25.7569
-26.1343
-26.5029
-26.8604
-27.2036
-27.5296
-27.8355
-28.1191
-28.3785
-28.6117
-28.8157
-28.9863
-29.1195
-29.2122
-29.2632
-29.2713
-29.2326
-29.1406
-28.9862
-28.7604
-28.4721
-28.1225
-27.7036
-27.2128
-26.64
-25.9582
-25.2224
-24.3415
-23.6623
-22.61
-21.59
-20.4554
-19.3
-18.0829
-16.7826
-15.3992
-13.953
-12.5048
-11.066
-9.5912
-8.11797
-6.70617
-5.22318
-3.67332
-2.04523
-0.441211
1.07969
2.49463
3.76172
4.86295
6.02214
7.2566
8.34344
9.09426
9.76728
10.3748
10.916
11.3398
11.5973
11.8299
12.0753
12.3443
12.549
12.7176
12.6897
12.7397
12.5153
12.4592
12.2133
11.6363
-0.00571596
-0.0321598
-0.211398
-0.587201
-1.27742
-1.72166
-1.99346
-2.1941
-2.22497
-2.19949
-1.98264
-1.85431
-1.67689
-1.59716
-1.47709
-1.41757
-1.38778
-1.37977
-1.38989
-1.41952
-1.46974
-1.54146
-1.63643
-1.75681
-1.89895
-2.06556
-2.23019
-2.2863
-2.27927
-2.01285
-1.72022
-0.63775
1.81103
5.91791
-1.61627
-4.72384
-2.86244
1.89169
4.11877
3.31873
3.28345
2.68537
1.37839
-0.0254997
-1.52758
-2.91347
-4.28038
-5.50889
-6.63801
-7.68313
-8.64472
-9.52677
-10.3356
-11.0746
-11.7491
-12.3648
-12.9238
-13.433
-13.8966
-14.3192
-14.705
-15.058
-15.3822
-15.6811
-15.9583
-16.2172
-16.461
-16.6925
-16.9146
-17.1299
-17.3407
-17.5492
-17.7573
-17.9669
-18.1794
-18.3964
-18.6189
-18.8481
-19.0849
-19.33
-19.5841
-19.8477
-20.1211
-20.4043
-20.6975
-21.0004
-21.3131
-21.6352
-21.9666
-22.307
-22.6561
-23.0135
-23.3788
-23.7515
-24.1309
-24.5166
-24.9079
-25.304
-25.704
-26.1073
-26.5133
-26.9211
-27.3254
-27.731
-28.1385
-28.5458
-28.9502
-29.3498
-29.7431
-30.1275
-30.5018
-30.8647
-31.2146
-31.5493
-31.8652
-32.1587
-32.4259
-32.6637
-32.8706
-33.0459
-33.1871
-33.2892
-33.3461
-33.3514
-33.3028
-33.2013
-33.0455
-32.8285
-32.5397
-32.1663
-31.7094
-31.1824
-30.5836
-29.9029
-29.1066
-28.2152
-27.0825
-26.1961
-25.0627
-23.8029
-22.4379
-20.9863
-19.4977
-17.9482
-16.3
-14.5426
-12.6899
-10.8626
-9.08207
-7.26189
-5.4156
-3.55851
-1.67576
0.187595
2.16259
4.14944
6.02644
7.77677
9.36247
10.6267
11.8753
13.3406
14.6403
15.6764
16.5168
17.2343
17.8455
18.3478
18.6011
18.5942
18.7029
18.8189
18.9317
19.0277
18.8659
18.738
18.3245
18.0345
17.6229
16.8961
-0.0129031
-0.141403
-0.572232
-1.48515
-2.07254
-2.43661
-2.47357
-2.30687
-2.10768
-1.95597
-1.70551
-1.57378
-1.3858
-1.24244
-1.14181
-1.08005
-1.05635
-1.06192
-1.09475
-1.15341
-1.23695
-1.34338
-1.4712
-1.61872
-1.78081
-1.9589
-2.13936
-2.25082
-2.25967
-2.08821
-1.78102
-0.457442
5.9881
1.93837
-3.33301
-2.86695
-0.983854
3.98836
3.61083
3.36481
2.61245
1.34218
-0.174904
-1.64493
-3.06483
-4.39286
-5.66056
-6.84072
-7.95132
-8.99624
-9.97762
-10.8982
-11.7621
-12.57
-13.3201
-14.0152
-14.6586
-15.2529
-15.8012
-16.3065
-16.7721
-17.2012
-17.5976
-17.9645
-18.3056
-18.6243
-18.9238
-19.2075
-19.4784
-19.7395
-19.9934
-20.2428
-20.4899
-20.737
-20.9858
-21.2381
-21.4953
-21.7587
-22.0294
-22.3084
-22.5965
-22.8943
-23.2022
-23.5202
-23.8485
-24.1866
-24.5343
-24.8912
-25.2568
-25.6308
-26.0125
-26.4015
-26.7971
-27.1986
-27.6054
-28.0166
-28.4315
-28.8491
-29.2682
-29.6876
-30.1072
-30.5278
-30.9453
-31.3594
-31.7716
-32.1806
-32.5839
-32.9792
-33.3638
-33.7349
-34.0907
-34.4305
-34.7536
-35.0584
-35.3415
-35.5983
-35.8235
-36.012
-36.1618
-36.2741
-36.3482
-36.3792
-36.3586
-36.2759
-36.1254
-35.9104
-35.6347
-35.2932
-34.8728
-34.3515
-33.7265
-33.0149
-32.2228
-31.3342
-30.2107
-29.0682
-27.8322
-26.5903
-25.1788
-23.6335
-21.918
-20.1221
-18.2875
-16.3936
-14.3841
-12.2044
-9.86465
-7.61971
-5.47858
-3.30263
-1.0623
1.20023
3.45559
5.62049
7.81164
10.1795
12.3745
14.4184
16.3087
17.8745
18.9308
20.7327
22.1654
23.3078
24.2137
24.9625
25.564
26.0449
26.4711
26.86
26.8192
26.6047
26.2722
26.02
25.6929
25.1805
24.4745
23.665
23.0471
21.7377
-0.108042
-0.482744
-1.5887
-2.51826
-2.79613
-2.62525
-2.41012
-2.22584
-1.92955
-1.73458
-1.44583
-1.22033
-1.0547
-0.97098
-0.886699
-0.817412
-0.782229
-0.787095
-0.82703
-0.901353
-1.00665
-1.13864
-1.29305
-1.46547
-1.65011
-1.84636
-2.04583
-2.19737
-2.2405
-2.08896
-1.62292
1.57281
6.36314
-0.0429061
-2.9398
-2.09857
2.13483
3.7896
3.28705
2.62474
1.4033
-0.080398
-1.55852
-2.94175
-4.25196
-5.49007
-6.67104
-7.79515
-8.8707
-9.9013
-10.8888
-11.8342
-12.7369
-13.5929
-14.4022
-15.1643
-15.8796
-16.5485
-17.1721
-17.752
-18.2904
-18.7898
-19.253
-19.6831
-20.0834
-20.457
-20.8076
-21.1382
-21.4524
-21.7532
-22.0438
-22.327
-22.6056
-22.8821
-23.1587
-23.4373
-23.7197
-24.0075
-24.3019
-24.6043
-24.9156
-25.2367
-25.5681
-25.9101
-26.2625
-26.625
-26.9971
-27.3784
-27.7682
-28.1659
-28.5708
-28.9822
-29.3993
-29.8215
-30.2478
-30.6774
-31.1095
-31.5428
-31.9762
-32.4082
-32.8375
-33.2647
-33.6879
-34.1057
-34.5183
-34.9249
-35.3233
-35.7114
-36.0856
-36.442
-36.7778
-37.0924
-37.3864
-37.6592
-37.9082
-38.1287
-38.3135
-38.4539
-38.5459
-38.5923
-38.5956
-38.5521
-38.4519
-38.2796
-38.0237
-37.687
-37.2794
-36.8001
-36.2341
-35.551
-34.7453
-33.83
-32.8187
-31.5894
-30.4368
-28.997
-27.4404
-25.8106
-24.0659
-22.1634
-20.0156
-17.8336
-15.6257
-13.3661
-10.9956
-8.33869
-5.40358
-2.61721
-0.0499814
2.46092
5.16937
7.85643
10.5163
13.0965
15.1881
18.1031
20.605
22.9072
25.0583
27.1629
29.2801
31.3042
32.6359
33.7221
34.5672
35.2293
35.7148
36.0385
36.1966
36.1238
35.7518
35.1863
34.3718
33.3777
32.1288
31.1986
30.2312
29.2219
28.2352
26.6076
-0.852732
-1.35179
-2.77346
-2.97332
-2.84172
-2.63272
-2.36096
-2.10297
-1.73527
-1.4389
-1.17998
-1.0004
-0.815011
-0.656742
-0.55735
-0.512916
-0.507119
-0.538105
-0.602879
-0.699948
-0.82586
-0.975
-1.14158
-1.33087
-1.55604
-1.77463
-1.98195
-2.13883
-2.19843
-2.13604
-0.830764
3.28686
4.90957
-0.487939
-2.42532
0.257227
3.19381
3.40482
2.68464
1.63414
0.238738
-1.23351
-2.61629
-3.89996
-5.11099
-6.26302
-7.3697
-8.43778
-9.47382
-10.4841
-11.4689
-12.4243
-13.3485
-14.2385
-15.0917
-15.9058
-16.6787
-17.409
-18.0962
-18.7403
-19.3423
-19.9035
-20.4262
-20.9126
-21.3656
-21.7883
-22.1838
-22.5555
-22.9068
-23.2409
-23.5612
-23.8711
-24.1735
-24.4713
-24.7672
-25.0633
-25.3619
-25.6645
-25.9728
-26.2884
-26.6125
-26.9463
-27.2905
-27.6456
-28.0114
-28.3877
-28.7738
-29.1691
-29.5728
-29.9843
-30.4027
-30.8273
-31.257
-31.6912
-32.1289
-32.5691
-33.011
-33.4535
-33.8951
-34.334
-34.7686
-35.198
-35.6213
-36.0372
-36.4454
-36.8451
-37.2348
-37.6125
-37.9744
-38.3149
-38.6295
-38.9169
-39.1789
-39.4165
-39.628
-39.8093
-39.9523
-40.0435
-40.0747
-40.0495
-39.9744
-39.8471
-39.6573
-39.387
-39.016
-38.545
-37.9875
-37.3465
-36.6058
-35.7297
-34.7163
-33.5741
-32.2182
-30.9004
-29.3429
-27.5616
-25.6891
-23.7143
-21.6097
-19.2868
-16.5893
-13.9407
-11.3185
-8.65724
-5.9381
-2.82722
0.629495
4.20137
7.32265
9.97959
13.4004
16.5564
19.6508
22.7897
26.2981
29.7589
32.4995
35.0521
37.4475
39.7044
41.5957
41.532
42.4633
43.3785
44.0752
44.5769
44.8984
45.021
44.8833
44.4839
43.8045
42.9356
41.9011
40.6877
39.8253
38.4791
37.107
35.1756
34.0236
31.6623
-0.982746
-1.97427
-2.99695
-3.02197
-2.89272
-2.6315
-2.35289
-1.92808
-1.54305
-1.21159
-0.963657
-0.737067
-0.575835
-0.463878
-0.396457
-0.368436
-0.376044
-0.4178
-0.493132
-0.599671
-0.734172
-0.885019
-1.06005
-1.26064
-1.49993
-1.75555
-1.9949
-2.19225
-2.29234
-1.4735
0.0632321
3.96692
3.56511
-0.465305
-0.795204
1.95581
3.35754
2.91842
1.94869
0.71077
-0.696999
-2.0889
-3.37557
-4.56751
-5.69163
-6.76672
-7.8066
-8.82014
-9.8176
-10.8025
-11.7719
-12.7246
-13.6576
-14.5672
-15.4493
-16.2999
-17.1156
-17.8934
-18.6311
-19.3275
-19.9821
-20.5954
-21.1686
-21.7033
-22.2018
-22.6665
-23.1003
-23.5065
-23.8882
-24.2488
-24.592
-24.9211
-25.2397
-25.551
-25.8579
-26.163
-26.4687
-26.7769
-27.0895
-27.4082
-27.7346
-28.0704
-28.4165
-28.7737
-29.142
-29.5208
-29.9096
-30.3076
-30.714
-31.1282
-31.5494
-31.9765
-32.4086
-32.8446
-33.2838
-33.725
-34.1675
-34.6103
-35.052
-35.4902
-35.9229
-36.3483
-36.7653
-37.1728
-37.5699
-37.9561
-38.3306
-38.6921
-39.037
-39.3582
-39.6485
-39.9051
-40.1307
-40.3275
-40.4946
-40.6292
-40.724
-40.7601
-40.724
-40.6193
-40.4551
-40.2297
-39.9323
-39.5456
-39.04
-38.419
-37.694
-36.867
-35.9141
-34.7984
-33.5258
-32.0548
-30.5758
-28.8915
-26.9765
-24.7046
-22.4765
-20.1446
-17.67
-14.9348
-11.7082
-8.39885
-5.27105
-2.10358
1.14594
4.58568
8.33751
12.601
16.5494
20.8709
25.3674
29.1768
32.8897
36.5818
39.9525
41.2447
43.8282
46.4417
48.8826
51.0731
52.7381
54.5764
55.8433
56.6751
57.1559
57.4049
57.4298
57.1905
56.5991
55.6991
54.517
53.2492
51.6293
50.0423
48.2862
46.3264
44.3114
41.8527
40.3818
37.3656
-1.05453
-2.69977
-3.26373
-3.32452
-3.09804
-2.7693
-2.27494
-1.8116
-1.41354
-1.08549
-0.811264
-0.61615
-0.48423
-0.400538
-0.357771
-0.345779
-0.36472
-0.415669
-0.495603
-0.604473
-0.745398
-0.906828
-1.0915
-1.29625
-1.52
-1.77239
-2.01281
-2.19099
-2.15535
-1.05547
1.50073
4.25421
2.55196
0.0556591
0.912348
2.78882
3.11109
2.34266
1.22976
-0.0497275
-1.39567
-2.69132
-3.88702
-4.99526
-6.04143
-7.04554
-8.02199
-8.98385
-9.94053
-10.8919
-11.8381
-12.7776
-13.7071
-14.6225
-15.5188
-16.3912
-17.2351
-18.0463
-18.8212
-19.557
-20.2525
-20.9071
-21.5211
-22.0952
-22.631
-23.1303
-23.5954
-24.0292
-24.4346
-24.8151
-25.1741
-25.5155
-25.8429
-26.1599
-26.4699
-26.7759
-27.0803
-27.3852
-27.6928
-28.0051
-28.3238
-28.651
-28.9882
-29.3365
-29.6958
-30.0656
-30.4452
-30.8338
-31.2307
-31.6354
-32.0472
-32.4649
-32.8875
-33.3138
-33.7428
-34.1735
-34.6053
-35.0374
-35.4685
-35.8963
-36.3178
-36.7307
-37.1335
-37.5248
-37.9034
-38.2682
-38.6189
-38.9551
-39.2745
-39.5695
-39.8299
-40.0507
-40.2345
-40.3838
-40.4976
-40.5735
-40.6071
-40.5742
-40.4609
-40.2679
-40.0055
-39.6684
-39.2419
-38.7097
-38.0292
-37.2399
-36.3351
-35.3098
-34.1206
-32.7253
-31.0365
-29.3784
-27.5864
-25.6116
-23.3369
-20.4331
-17.7948
-15.038
-12.112
-8.97011
-5.67045
-1.47162
2.45169
6.45451
10.7394
16.0639
20.5958
25.1864
29.9396
34.4071
36.8981
40.7843
44.782
48.6847
52.0849
56.0577
59.3835
62.2623
64.8379
67.0212
68.6562
70.1712
71.3196
71.9288
72.0959
72.0354
71.7133
71.0392
69.9081
68.3978
66.6214
64.83
62.6938
60.5175
58.0186
55.4104
52.6381
49.5787
47.5401
43.8411
-1.10519
-3.10536
-3.72737
-3.7099
-3.37918
-2.88441
-2.3238
-1.81696
-1.36988
-1.02418
-0.778219
-0.611379
-0.504754
-0.443668
-0.418191
-0.426887
-0.4645
-0.524479
-0.605898
-0.707239
-0.81362
-0.960243
-1.13785
-1.34102
-1.57057
-1.81473
-2.0409
-2.16944
-1.19001
-0.237784
2.83654
3.96993
1.96385
0.997647
2.1039
2.96702
2.66374
1.73404
0.58686
-0.648601
-1.89824
-3.09187
-4.19863
-5.2272
-6.20012
-7.13669
-8.05215
-8.96138
-9.87193
-10.7844
-11.6996
-12.6162
-13.5308
-14.4391
-15.336
-16.216
-17.074
-17.9051
-18.7043
-19.4663
-20.19
-20.8744
-21.5189
-22.1234
-22.6882
-23.2143
-23.7036
-24.1581
-24.5806
-24.9743
-25.3426
-25.6894
-26.0187
-26.3344
-26.6404
-26.9397
-27.2351
-27.5289
-27.8235
-28.1207
-28.4224
-28.7312
-29.0492
-29.3779
-29.7173
-30.0666
-30.425
-30.7918
-31.1665
-31.5488
-31.9382
-32.3338
-32.7344
-33.1384
-33.5446
-33.9519
-34.3602
-34.7689
-35.1773
-35.5831
-35.9826
-36.3732
-36.7528
-37.1197
-37.4718
-37.807
-38.1244
-38.4241
-38.7059
-38.9639
-39.1853
-39.3635
-39.5
-39.5967
-39.6489
-39.6522
-39.604
-39.4764
-39.2709
-38.9825
-38.6173
-38.1637
-37.596
-36.8879
-35.9587
-34.9771
-33.8807
-32.6568
-31.2376
-29.5486
-27.3691
-25.3938
-23.2549
-20.923
-18.2988
-14.9587
-11.7884
-8.31644
-4.64831
-0.736645
3.90454
9.04375
13.965
19.0068
24.1594
27.513
32.2216
37.2581
42.2716
46.9589
52.2576
57.0025
61.4488
65.6427
69.4557
73.2104
76.5406
79.3484
81.8398
83.8917
85.3206
86.5554
87.452
87.6935
87.3709
86.9317
86.1964
84.9703
83.155
80.8918
78.3938
76.0313
73.397
70.7967
67.5286
64.4959
60.787
57.5185
53.9878
50.1596
-1.21389
-3.6502
-4.28213
-4.21765
-3.78931
-3.14874
-2.45603
-1.85789
-1.40755
-1.087
-0.870199
-0.729895
-0.642574
-0.594552
-0.577077
-0.582605
-0.60363
-0.646105
-0.713555
-0.807302
-0.92806
-1.06592
-1.23383
-1.43404
-1.67134
-1.91105
-2.11686
-1.56264
-0.904445
1.00112
3.50468
3.41358
2.01812
1.94087
2.65319
2.75119
2.11972
1.13482
0.0254559
-1.12058
-2.2562
-3.34071
-4.35502
-5.29771
-6.1949
-7.06377
-7.91981
-8.77588
-9.63687
-10.5057
-11.3832
-12.2681
-13.1575
-14.047
-14.9316
-15.8057
-16.6638
-17.5007
-18.3143
-19.0889
-19.8278
-20.5301
-21.1946
-21.8205
-22.4058
-22.9512
-23.4572
-23.9254
-24.3583
-24.7588
-25.1301
-25.4761
-25.801
-26.1091
-26.4046
-26.6909
-26.9709
-27.2476
-27.5225
-27.7975
-28.0744
-28.3561
-28.646
-28.9458
-29.2553
-29.5735
-29.8993
-30.2322
-30.572
-30.9189
-31.273
-31.6336
-31.9993
-32.3685
-32.7394
-33.1109
-33.4826
-33.8546
-34.2269
-34.5976
-34.9629
-35.3198
-35.6663
-36.0001
-36.318
-36.6165
-36.8924
-37.1452
-37.3756
-37.5814
-37.7478
-37.8749
-37.9594
-38.0009
-37.9889
-37.9117
-37.7607
-37.4997
-37.1757
-36.7835
-36.3088
-35.7346
-35.0257
-34.1375
-32.878
-31.6723
-30.3387
-28.8783
-27.1715
-25.2202
-22.6205
-20.1037
-17.4858
-14.5185
-11.2806
-7.73323
-2.80274
1.73071
6.48108
11.4443
16.533
20.2811
25.4303
30.8479
36.3355
42.2991
47.8541
53.2874
58.5797
63.6858
68.8245
73.6629
78.1759
82.3987
86.25
89.7555
92.9171
95.44
97.6698
99.4751
100.431
101.262
101.727
101.309
100.1
99.1021
97.7035
95.5356
92.6162
89.2731
85.5204
81.7896
77.5086
73.7562
69.1216
65.7827
60.8261
58.4012
52.3613
50.5394
-1.36808
-4.14445
-4.89067
-4.85085
-4.31828
-3.54513
-2.77149
-2.04947
-1.59808
-1.31412
-1.11235
-0.974707
-0.884145
-0.830786
-0.791498
-0.781627
-0.796047
-0.827531
-0.885181
-0.97113
-1.09478
-1.23231
-1.39161
-1.57864
-1.77757
-1.94159
-1.56086
-1.12294
-0.127837
2.25544
3.55858
3.05768
2.43072
2.5433
2.69324
2.31862
1.53264
0.558574
-0.474773
-1.51366
-2.53478
-3.48801
-4.3929
-5.27672
-6.12421
-6.94425
-7.75144
-8.55749
-9.36782
-10.1868
-11.0165
-11.8565
-12.7051
-13.5586
-14.4126
-15.2614
-16.0983
-16.9132
-17.6862
-18.4543
-19.1957
-19.9037
-20.5764
-21.2171
-21.814
-22.3714
-22.8862
-23.3603
-23.7967
-24.1976
-24.5659
-24.9052
-25.22
-25.5151
-25.7953
-26.0645
-26.3257
-26.5804
-26.8306
-27.0778
-27.3237
-27.5718
-27.8265
-28.0898
-28.3612
-28.6388
-28.9217
-29.2098
-29.5032
-29.8026
-30.109
-30.4222
-30.741
-31.0636
-31.388
-31.7125
-32.0359
-32.3585
-32.6817
-33.0037
-33.3223
-33.6339
-33.9369
-34.2289
-34.5056
-34.762
-34.992
-35.1923
-35.362
-35.4985
-35.5817
-35.6459
-35.6734
-35.6567
-35.5793
-35.4226
-35.1632
-34.7489
-34.2587
-33.7439
-33.1302
-32.3941
-31.4858
-30.4234
-28.9066
-27.4154
-25.6509
-23.8119
-21.666
-19.1218
-16.4259
-13.2179
-8.97864
-5.00545
-0.791408
3.69994
7.41779
12.2663
17.4992
22.9011
28.3021
34.2681
40.0839
45.9028
51.7279
57.6758
63.4003
68.9066
74.2186
79.3907
84.3814
89.1323
93.5049
97.5565
101.198
104.291
107.146
109.158
110.854
112.197
112.298
112.234
112.016
110.264
107.654
104.27
100.169
95.6604
91.0343
86.5416
81.7733
77.015
71.6019
67.0105
61.6018
58.0329
52.6319
50.5525
44.4422
43.1412
-1.52477
-4.77497
-5.62478
-5.58796
-4.9317
-3.96676
-2.98752
-2.32868
-1.81835
-1.51544
-1.2968
-1.16088
-1.07529
-1.02323
-0.983828
-0.980274
-1.00492
-1.05217
-1.11008
-1.18304
-1.27093
-1.39145
-1.53728
-1.69045
-1.79262
-1.53737
-1.26656
-0.652915
0.993512
2.9658
3.39109
3.05106
2.78852
2.69283
2.38951
1.75783
0.918845
-0.00318692
-0.936144
-1.84589
-2.71241
-3.58269
-4.42226
-5.2167
-5.97855
-6.71929
-7.45168
-8.18486
-8.92546
-9.67818
-10.4455
-11.228
-12.0241
-12.8312
-13.6449
-14.4603
-15.2726
-16.0784
-16.8818
-17.6539
-18.3879
-19.0869
-19.745
-20.3464
-20.9377
-21.5042
-22.0203
-22.4922
-22.9235
-23.3174
-23.6762
-24.0031
-24.3026
-24.5798
-24.8402
-25.0878
-25.3252
-25.5538
-25.7754
-25.9914
-26.203
-26.4144
-26.6296
-26.8517
-27.0788
-27.3088
-27.5409
-27.7756
-28.0136
-28.2561
-28.5047
-28.7604
-29.0228
-29.2895
-29.5582
-29.8265
-30.0929
-30.3569
-30.6198
-30.8797
-31.14
-31.3962
-31.6462
-31.8871
-32.1147
-32.3235
-32.505
-32.6531
-32.7626
-32.8217
-32.7859
-32.7751
-32.7381
-32.6478
-32.4844
-32.2235
-31.8411
-31.2931
-30.6253
-29.9145
-29.0477
-28.0158
-26.7441
-25.4502
-23.8325
-22.0078
-19.5417
-16.7075
-13.4324
-10.2162
-6.61397
-2.69194
0.647411
4.95445
9.62705
14.5307
19.9575
25.4478
31.093
36.8531
42.6026
48.4917
54.4108
60.3085
66.1661
72.0207
77.715
83.2001
88.439
93.4987
98.2454
102.744
106.775
110.383
113.599
115.968
118.317
119.499
120.034
120.602
119.374
116.932
113.103
108.608
104.136
98.6579
92.7078
86.8401
81.2579
76.0154
70.789
65.8336
60.4456
55.8778
50.5421
46.9733
41.7234
39.747
34.1477
33.1758
-1.61964
-5.35154
-6.4121
-6.44829
-5.72188
-4.63945
-3.59971
-2.72916
-2.11348
-1.70304
-1.47764
-1.35848
-1.27206
-1.2151
-1.17153
-1.16686
-1.18886
-1.22939
-1.28258
-1.34863
-1.42763
-1.51762
-1.60155
-1.62082
-1.41865
-1.25816
-0.841917
0.341947
2.36811
3.15071
3.29923
3.10938
2.82089
2.42616
1.83835
1.08625
0.251005
-0.605595
-1.45245
-2.28403
-3.02402
-3.7499
-4.45746
-5.14072
-5.80716
-6.46238
-7.11492
-7.77172
-8.43872
-9.12024
-9.81887
-10.5354
-11.2688
-12.0167
-12.7763
-13.5438
-14.3131
-15.0786
-15.8343
-16.5646
-17.2777
-17.9645
-18.6228
-19.2614
-19.8513
-20.3847
-20.8814
-21.3339
-21.7474
-22.1248
-22.4669
-22.7756
-23.0551
-23.3109
-23.5486
-23.7722
-23.9835
-24.1835
-24.3742
-24.5583
-24.7367
-24.9141
-25.0894
-25.2673
-25.4461
-25.6238
-25.7999
-25.9756
-26.1523
-26.3322
-26.5173
-26.7096
-26.9089
-27.1129
-27.3193
-27.5259
-27.7304
-27.9313
-28.128
-28.3149
-28.5101
-28.7047
-28.8941
-29.0745
-29.2422
-29.3939
-29.5169
-29.6025
-29.6385
-29.611
-29.4585
-29.3479
-29.2007
-28.9722
-28.6463
-28.2042
-27.6316
-26.9149
-26.1863
-25.1828
-23.946
-22.5123
-20.7026
-18.4867
-16.0177
-13.7393
-10.5806
-8.06649
-4.64946
-0.956494
3.03216
7.32546
12.147
17.0482
22.128
27.3176
32.7695
38.4197
44.1865
50.0623
55.9247
61.7834
67.6293
73.4692
79.2593
84.9871
90.5399
95.8736
100.867
105.625
109.925
113.915
117.369
120.133
122.675
123.934
125.648
125.36
123.742
120.246
116.366
111.508
105.223
99.2666
93.5551
87.6954
81.5647
75.2981
69.0384
62.9292
56.9818
51.4892
46.0345
41.5046
36.7031
33.4346
29.1063
27.3934
23.0636
22.3786
-1.673
-5.93561
-7.26591
-7.43253
-6.717
-5.35524
-3.90529
-2.97128
-2.54216
-2.15574
-1.87084
-1.6557
-1.53163
-1.45782
-1.40604
-1.39327
-1.40391
-1.43104
-1.46914
-1.51428
-1.55715
-1.57978
-1.48184
-1.3761
-1.27711
-0.8538
0.0397006
1.55803
2.80976
3.1387
3.15358
2.86975
2.3945
1.77516
1.05043
0.27437
-0.511191
-1.2768
-2.01099
-2.71449
-3.36078
-3.97725
-4.5674
-5.13594
-5.69343
-6.24733
-6.80429
-7.36961
-7.94873
-8.54537
-9.16189
-9.79921
-10.4568
-11.133
-11.8246
-12.5274
-13.2357
-13.9423
-14.6481
-15.3411
-16.0177
-16.672
-17.2978
-17.8824
-18.4378
-18.9914
-19.4648
-19.876
-20.2555
-20.6061