/*--------------------------------*- C++ -*----------------------------------*\
| =========                 |                                                 |
| \\      /  F ield         | OpenFOAM: The Open Source CFD Toolbox           |
|  \\    /   O peration     | Version:  2112                                  |
|   \\  /    A nd           | Website:  www.openfoam.com                      |
|    \\/     M anipulation  |                                                 |
\*---------------------------------------------------------------------------*/
FoamFile
{
    version     2.0;
    format      ascii;
    arch        "LSB;label=32;scalar=64";
    class       surfaceScalarField;
    location    "0.33";
    object      phi;
}
// * * * * * * * * * * * * * * * * * * * * * * * * * * * * * * * * * * * * * //

dimensions      [0 3 -1 0 0 0 0];

oriented        oriented;

internalField   nonuniform List<scalar> 
24170
(
3.17322e-06
1.18394e-07
3.05044e-06
1.22784e-07
2.94243e-06
1.08002e-07
2.84932e-06
9.31167e-08
2.76539e-06
8.39242e-08
2.67033e-06
9.5066e-08
2.56073e-06
1.09601e-07
2.453e-06
1.0773e-07
2.36248e-06
9.05198e-08
2.29118e-06
7.12943e-08
2.23252e-06
5.86637e-08
2.17832e-06
5.41933e-08
2.12338e-06
5.49436e-08
2.06292e-06
6.04594e-08
1.99117e-06
7.17536e-08
1.90446e-06
8.67049e-08
1.7949e-06
1.09561e-07
1.33857e-07
1.66105e-06
3.4222e-06
1.56024e-07
3.44138e-06
1.03607e-07
3.47175e-06
7.76327e-08
3.48598e-06
7.88834e-08
3.49077e-06
7.91424e-08
3.49659e-06
8.92408e-08
3.50169e-06
1.04499e-07
3.49851e-06
1.10917e-07
3.48275e-06
1.06277e-07
3.45537e-06
9.86755e-08
3.4217e-06
9.23314e-08
3.38791e-06
8.79878e-08
3.35802e-06
8.48292e-08
3.33227e-06
8.62111e-08
3.30755e-06
9.64669e-08
3.27752e-06
1.1674e-07
3.23552e-06
1.51564e-07
1.8742e-07
3.18195e-06
3.64134e-06
1.6107e-07
3.64928e-06
9.56628e-08
3.67867e-06
4.82458e-08
3.71222e-06
4.53338e-08
3.73677e-06
5.45929e-08
3.75272e-06
7.32945e-08
3.76101e-06
9.62076e-08
3.75945e-06
1.12479e-07
3.7488e-06
1.16921e-07
3.73421e-06
1.13264e-07
3.72113e-06
1.05414e-07
3.71267e-06
9.64449e-08
3.70891e-06
8.85957e-08
3.70931e-06
8.58102e-08
3.71283e-06
9.29493e-08
3.71763e-06
1.11932e-07
3.72418e-06
1.45017e-07
1.87828e-07
3.72377e-06
4.02086e-06
7.92033e-08
4.01719e-06
9.93296e-08
3.98422e-06
8.12205e-08
3.95566e-06
7.38914e-08
3.94969e-06
6.05653e-08
3.9574e-06
6.55835e-08
3.96533e-06
8.82758e-08
3.96669e-06
1.11112e-07
3.96319e-06
1.2043e-07
3.96045e-06
1.15996e-07
3.96226e-06
1.0361e-07
3.96853e-06
9.01749e-08
3.97624e-06
8.08869e-08
3.98276e-06
7.92853e-08
3.98806e-06
8.76523e-08
3.99275e-06
1.07236e-07
4.00051e-06
1.37267e-07
1.77592e-07
4.01074e-06
4.27677e-06
8.93587e-08
4.30556e-06
7.05406e-08
4.27632e-06
1.10458e-07
4.22501e-06
1.25206e-07
4.19227e-06
9.33071e-08
4.18863e-06
6.92172e-08
4.20597e-06
7.0936e-08
4.23315e-06
8.39355e-08
4.26217e-06
9.14132e-08
4.28929e-06
8.88709e-08
4.31273e-06
8.01748e-08
4.32966e-06
7.32393e-08
4.33753e-06
7.30215e-08
4.33564e-06
8.11682e-08
4.32642e-06
9.68728e-08
4.31366e-06
1.20001e-07
4.30296e-06
1.47966e-07
1.81162e-07
4.29939e-06
4.53503e-06
-2.2183e-08
4.56364e-06
4.19317e-08
4.5105e-06
1.63596e-07
4.48805e-06
1.47651e-07
4.52873e-06
5.26332e-08
4.59683e-06
1.11756e-09
4.65219e-06
1.55777e-08
4.67981e-06
5.6306e-08
4.68524e-06
8.59925e-08
4.67807e-06
9.6035e-08
4.66382e-06
9.44272e-08
4.64694e-06
9.01195e-08
4.63136e-06
8.86e-08
4.61807e-06
9.44613e-08
4.60773e-06
1.07215e-07
4.6011e-06
1.26625e-07
4.59937e-06
1.49695e-07
1.75276e-07
4.60526e-06
4.83278e-06
7.4061e-08
4.81895e-06
5.57609e-08
4.83262e-06
1.4993e-07
4.89376e-06
8.65078e-08
4.96652e-06
-2.01237e-08
5.0104e-06
-4.27615e-08
5.01351e-06
1.24653e-08
4.98444e-06
8.53754e-08
4.93752e-06
1.32909e-07
4.889e-06
1.44555e-07
4.85456e-06
1.2887e-07
4.84134e-06
1.03334e-07
4.84604e-06
8.39022e-08
4.85983e-06
8.06761e-08
4.87368e-06
9.33571e-08
4.88389e-06
1.16421e-07
4.89324e-06
1.40341e-07
1.61389e-07
4.90713e-06
5.30883e-06
-1.20318e-08
5.28714e-06
7.7455e-08
5.29425e-06
1.42817e-07
5.31153e-06
6.92232e-08
5.32126e-06
-2.98477e-08
5.31382e-06
-3.53196e-08
5.28854e-06
3.77421e-08
5.25347e-06
1.20442e-07
5.22515e-06
1.61227e-07
5.21665e-06
1.53063e-07
5.22814e-06
1.17379e-07
5.24925e-06
8.2222e-08
5.26821e-06
6.49385e-08
5.2798e-06
6.90923e-08
5.28533e-06
8.78221e-08
5.28743e-06
1.14328e-07
5.28883e-06
1.38934e-07
1.55474e-07
5.29475e-06
5.65318e-06
7.50725e-08
5.64743e-06
8.32007e-08
5.67618e-06
1.14072e-07
5.67439e-06
7.10082e-08
5.64416e-06
3.82334e-10
5.62785e-06
-1.90054e-08
5.63401e-06
3.15775e-08
5.64591e-06
1.08546e-07
5.64739e-06
1.59751e-07
5.63605e-06
1.64396e-07
5.6179e-06
1.35529e-07
5.60047e-06
9.96542e-08
5.58805e-06
7.73581e-08
5.58202e-06
7.51222e-08
5.58288e-06
8.69668e-08
5.59189e-06
1.05314e-07
5.61154e-06
1.19282e-07
1.25118e-07
5.6419e-06
6.05442e-06
1.43161e-07
5.99294e-06
1.44677e-07
6.00097e-06
1.06042e-07
5.98955e-06
8.24294e-08
5.94714e-06
4.28003e-08
5.90776e-06
2.03727e-08
5.90105e-06
3.82827e-08
5.92561e-06
8.39851e-08
5.9632e-06
1.22161e-07
5.9952e-06
1.32402e-07
6.01074e-06
1.19981e-07
6.00858e-06
1.01822e-07
5.9955e-06
9.04316e-08
5.98159e-06
8.90366e-08
5.9758e-06
9.27564e-08
5.98446e-06
9.66566e-08
6.00948e-06
9.42629e-08
8.55276e-08
6.04907e-06
6.45285e-06
6.29253e-08
6.47677e-06
1.20763e-07
6.46815e-06
1.14656e-07
6.45195e-06
9.86378e-08
6.42842e-06
6.6327e-08
6.40421e-06
4.45791e-08
6.3971e-06
4.53952e-08
6.41868e-06
6.2402e-08
6.46094e-06
7.99023e-08
6.50415e-06
8.91971e-08
6.5315e-06
9.26296e-08
6.53767e-06
9.56468e-08
6.52741e-06
1.00695e-07
6.51014e-06
1.06305e-07
6.49473e-06
1.08172e-07
6.48714e-06
1.04247e-07
6.49024e-06
9.11572e-08
7.09177e-08
6.50485e-06
5.76951e-06
-2.29496e-09
5.78904e-06
1.01235e-07
5.77858e-06
1.25119e-07
5.76625e-06
1.10959e-07
5.76356e-06
6.90251e-08
5.78162e-06
2.65152e-08
5.82152e-06
5.49152e-09
5.87105e-06
1.28763e-08
5.9122e-06
3.87551e-08
5.93056e-06
7.08358e-08
5.92329e-06
9.99023e-08
5.89786e-06
1.21075e-07
5.86631e-06
1.32239e-07
5.84025e-06
1.32368e-07
5.8267e-06
1.21718e-07
5.82862e-06
1.02328e-07
5.84322e-06
7.65598e-08
4.84251e-08
5.86571e-06
7.0392e-06
-5.01169e-08
7.12952e-06
1.09207e-08
7.14263e-06
1.12003e-07
7.14626e-06
1.07338e-07
7.14742e-06
6.78652e-08
7.13892e-06
3.50104e-08
7.12632e-06
1.80873e-08
7.11828e-06
2.09237e-08
7.1176e-06
3.9432e-08
7.12087e-06
6.75705e-08
7.12184e-06
9.89287e-08
7.11832e-06
1.24597e-07
7.11496e-06
1.35592e-07
7.1191e-06
1.28228e-07
7.13546e-06
1.05362e-07
7.16285e-06
7.49375e-08
7.19648e-06
4.29332e-08
1.68524e-08
7.22805e-06
8.70042e-06
-6.69019e-08
8.62177e-06
8.95667e-08
8.58531e-06
1.48461e-07
8.59483e-06
9.7821e-08
8.60502e-06
5.76721e-08
8.58646e-06
5.35698e-08
8.54676e-06
5.77957e-08
8.51914e-06
4.85432e-08
8.52754e-06
3.10332e-08
8.57032e-06
2.47889e-08
8.62682e-06
4.24244e-08
8.67477e-06
7.66512e-08
8.70106e-06
1.09299e-07
8.70357e-06
1.2572e-07
8.6902e-06
1.18732e-07
8.67178e-06
9.33601e-08
8.65925e-06
5.54641e-08
1.63254e-08
8.65977e-06
1.03343e-05
1.43985e-08
1.03618e-05
6.21023e-08
1.04557e-05
5.45736e-08
1.05186e-05
3.49203e-08
1.05365e-05
3.97502e-08
1.05162e-05
7.38493e-08
1.04758e-05
9.81773e-08
1.04357e-05
8.87157e-08
1.04109e-05
5.58591e-08
1.04097e-05
2.59178e-08
1.04346e-05
1.75117e-08
1.0482e-05
2.93082e-08
1.05408e-05
5.04505e-08
1.05995e-05
6.70647e-08
1.06479e-05
7.02821e-08
1.06822e-05
5.90448e-08
1.07003e-05
3.73766e-08
1.10898e-08
1.07056e-05
1.2545e-05
-1.17856e-07
1.26239e-05
-1.67712e-08
1.2728e-05
-4.94854e-08
1.27887e-05
-2.58223e-08
1.27832e-05
4.52861e-08
1.27704e-05
8.66811e-08
1.27883e-05
8.02411e-08
1.2829e-05
4.80024e-08
1.2864e-05
2.08678e-08
1.28738e-05
1.61453e-08
1.28629e-05
2.83529e-08
1.28486e-05
4.36263e-08
1.28508e-05
4.8298e-08
1.28793e-05
3.85282e-08
1.29302e-05
1.93625e-08
1.29908e-05
-1.51924e-09
1.30452e-05
-1.7078e-08
-2.52213e-08
1.30815e-05
1.56797e-05
3.1771e-07
1.55774e-05
8.54421e-08
1.55958e-05
-6.78777e-08
1.56327e-05
-6.2667e-08
1.56569e-05
2.10399e-08
1.56623e-05
8.12764e-08
1.5649e-05
9.35597e-08
1.56258e-05
7.11658e-08
1.55924e-05
5.42681e-08
1.55517e-05
5.68406e-08
1.55132e-05
6.68828e-08
1.54897e-05
6.71077e-08
1.54877e-05
5.03457e-08
1.55047e-05
2.15052e-08
1.55335e-05
-9.44829e-09
1.55649e-05
-3.28971e-08
1.55916e-05
-4.37276e-08
-4.11182e-08
1.56074e-05
1.94138e-05
3.42882e-07
1.92732e-05
2.26071e-07
1.90982e-05
1.07063e-07
1.89421e-05
9.34578e-08
1.88415e-05
1.21683e-07
1.88023e-05
1.20404e-07
1.88136e-05
8.23335e-08
1.88519e-05
3.28224e-08
1.89079e-05
-1.68141e-09
1.89779e-05
-1.32361e-08
1.90552e-05
-1.04094e-08
1.91279e-05
-5.60223e-09
1.91836e-05
-5.30344e-09
1.92139e-05
-8.78921e-09
1.92165e-05
-1.20399e-08
1.91957e-05
-1.21205e-08
1.91588e-05
-6.86089e-09
3.92151e-09
1.91138e-05
2.30347e-05
1.48217e-07
2.30909e-05
1.69942e-07
2.30736e-05
1.24302e-07
2.3009e-05
1.58107e-07
2.29371e-05
1.93591e-07
2.2896e-05
1.61427e-07
2.2897e-05
8.13724e-08
2.29275e-05
2.30118e-09
2.2976e-05
-5.01491e-08
2.30384e-05
-7.56958e-08
2.31081e-05
-8.00983e-08
2.31728e-05
-7.02259e-08
2.32187e-05
-5.12864e-08
2.32379e-05
-2.79485e-08
2.32296e-05
-3.69343e-09
2.32004e-05
1.70052e-08
2.31585e-05
3.51075e-08
4.95893e-08
2.31128e-05
1.6768e-05
2.58999e-07
1.67953e-05
1.42692e-07
1.69321e-05
-1.25524e-08
1.70631e-05
2.7102e-08
1.71606e-05
9.61373e-08
1.71889e-05
1.33138e-07
1.71371e-05
1.33164e-07
1.70306e-05
1.08829e-07
1.69073e-05
7.31441e-08
1.67947e-05
3.69171e-08
1.67091e-05
5.49162e-09
1.66545e-05
-1.56701e-08
1.6631e-05
-2.77291e-08
1.66333e-05
-3.03013e-08
1.66544e-05
-2.47537e-08
1.66847e-05
-1.33424e-08
1.67194e-05
3.9406e-10
1.61364e-08
1.67529e-05
1.47032e-05
1.17874e-08
1.47283e-05
1.17638e-07
1.46315e-05
8.42521e-08
1.45951e-05
6.35309e-08
1.4627e-05
6.41811e-08
1.47018e-05
5.83926e-08
1.47832e-05
5.17171e-08
1.48478e-05
4.41948e-08
1.48853e-05
3.5672e-08
1.48969e-05
2.53256e-08
1.4888e-05
1.44031e-08
1.48656e-05
6.70512e-09
1.48358e-05
2.05968e-09
1.48063e-05
-7.33263e-10
1.47842e-05
-2.65236e-09
1.47746e-05
-3.78023e-09
1.47801e-05
-5.14068e-09
-6.13489e-09
1.48024e-05
1.26568e-05
-6.12069e-08
1.27229e-05
5.15336e-08
1.27459e-05
6.12769e-08
1.27776e-05
3.18365e-08
1.28397e-05
2.01822e-09
1.29119e-05
-1.37574e-08
1.29743e-05
-1.07418e-08
1.3018e-05
5.68136e-10
1.30437e-05
9.92241e-09
1.30571e-05
1.19292e-08
1.30625e-05
9.02813e-09
1.3062e-05
7.19289e-09
1.30544e-05
9.68222e-09
1.30379e-05
1.56882e-08
1.30148e-05
2.04499e-08
1.299e-05
2.10156e-08
1.29693e-05
1.55804e-08
5.35227e-09
1.29578e-05
1.10151e-05
1.39459e-07
1.10612e-05
5.43458e-09
1.10752e-05
4.73051e-08
1.10258e-05
8.12054e-08
1.09678e-05
6.00774e-08
1.09421e-05
1.19281e-08
1.09616e-05
-3.02408e-08
1.10098e-05
-4.7674e-08
1.10624e-05
-4.26919e-08
1.11027e-05
-2.8347e-08
1.11267e-05
-1.49879e-08
1.11404e-05
-6.53355e-09
1.11536e-05
-3.5071e-09
1.11738e-05
-4.47573e-09
1.12022e-05
-7.93344e-09
1.12354e-05
-1.21707e-08
1.12673e-05
-1.63716e-08
-1.96031e-08
1.12923e-05
9.59134e-06
2.26088e-07
9.57534e-06
2.14313e-08
9.58609e-06
3.65508e-08
9.6044e-06
6.28954e-08
9.63941e-06
2.50672e-08
9.6779e-06
-2.65616e-08
9.70166e-06
-5.40004e-08
9.70546e-06
-5.14737e-08
9.6984e-06
-3.56311e-08
9.69248e-06
-2.24304e-08
9.69473e-06
-1.72367e-08
9.70668e-06
-1.84819e-08
9.72635e-06
-2.31786e-08
9.75117e-06
-2.92887e-08
9.77863e-06
-3.53921e-08
9.8065e-06
-4.00454e-08
9.83279e-06
-4.26574e-08
-4.17928e-08
9.85498e-06
8.30603e-06
1.10515e-08
8.34821e-06
-2.0741e-08
8.34713e-06
3.76274e-08
8.34639e-06
6.36314e-08
8.35555e-06
1.59135e-08
8.37295e-06
-4.39683e-08
8.38502e-06
-6.60638e-08
8.38728e-06
-5.37351e-08
8.38456e-06
-3.2908e-08
8.38623e-06
-2.4106e-08
8.39861e-06
-2.96096e-08
8.42216e-06
-4.20406e-08
8.45284e-06
-5.38547e-08
8.48519e-06
-6.16384e-08
8.5145e-06
-6.46987e-08
8.53763e-06
-6.31749e-08
8.55334e-06
-5.83767e-08
-5.08292e-08
8.56238e-06
7.23831e-06
-9.09119e-08
7.27096e-06
-5.33899e-08
7.29189e-06
1.66939e-08
7.32937e-06
2.61491e-08
7.35786e-06
-1.25723e-08
7.36908e-06
-5.51879e-08
7.37923e-06
-7.62128e-08
7.39538e-06
-6.98848e-08
7.41223e-06
-4.97593e-08
7.42256e-06
-3.44386e-08
7.42571e-06
-3.27556e-08
7.42645e-06
-4.27805e-08
7.42905e-06
-5.64619e-08
7.43477e-06
-6.73589e-08
7.44276e-06
-7.26886e-08
7.45178e-06
-7.21922e-08
7.46033e-06
-6.69273e-08
-5.73867e-08
7.46689e-06
6.38891e-06
-5.36611e-08
6.38306e-06
-4.75346e-08
6.42884e-06
-2.90919e-08
6.47276e-06
-1.77675e-08
6.48215e-06
-2.19663e-08
6.46527e-06
-3.83059e-08
6.44626e-06
-5.72023e-08
6.443e-06
-6.66229e-08
6.45573e-06
-6.24869e-08
6.47364e-06
-5.23509e-08
6.48593e-06
-4.5046e-08
6.48662e-06
-4.34712e-08
6.47629e-06
-4.6129e-08
6.45962e-06
-5.06896e-08
6.44176e-06
-5.48341e-08
6.42609e-06
-5.65192e-08
6.41424e-06
-5.50756e-08
-4.92389e-08
6.40609e-06
5.6186e-06
9.06615e-08
5.58297e-06
-1.19057e-08
5.58628e-06
-3.23949e-08
5.58371e-06
-1.51999e-08
5.576e-06
-1.42568e-08
5.58119e-06
-4.34933e-08
5.60701e-06
-8.30281e-08
5.64612e-06
-1.05732e-07
5.68531e-06
-1.01677e-07
5.71128e-06
-7.83223e-08
5.71693e-06
-5.06962e-08
5.70478e-06
-3.13167e-08
5.68322e-06
-2.45709e-08
5.66147e-06
-2.89382e-08
5.64614e-06
-3.95059e-08
5.64039e-06
-5.07649e-08
5.6438e-06
-5.84886e-08
-5.86287e-08
5.65319e-06
4.81377e-06
-1.22877e-07
4.83767e-06
-3.58083e-08
4.86061e-06
-5.53309e-08
4.91547e-06
-7.00617e-08
4.97073e-06
-6.95169e-08
4.99112e-06
-6.38887e-08
4.96649e-06
-5.8394e-08
4.91543e-06
-5.46722e-08
4.866e-06
-5.22431e-08
4.83692e-06
-4.92489e-08
4.83062e-06
-4.43976e-08
4.83812e-06
-3.88117e-08
4.84854e-06
-3.49935e-08
4.85487e-06
-3.52626e-08
4.85515e-06
-3.97882e-08
4.85091e-06
-4.65238e-08
4.84536e-06
-5.29404e-08
-5.48621e-08
4.84159e-06
4.05466e-06
4.01885e-06
3.96352e-06
3.89346e-06
3.82394e-06
3.76005e-06
3.70166e-06
3.64699e-06
3.59474e-06
3.54549e-06
3.5011e-06
3.46228e-06
3.42729e-06
3.39203e-06
3.35224e-06
3.30572e-06
3.25278e-06
3.19791e-06
-6.27512e-07
6.27512e-07
-1.09365e-06
4.66138e-07
-1.36692e-06
2.73273e-07
-1.47159e-06
1.04665e-07
-1.32705e-06
-1.44542e-07
-9.20929e-07
-4.06117e-07
-2.91107e-07
-6.29822e-07
4.84304e-07
-7.7541e-07
1.3405e-06
-8.56194e-07
2.21876e-06
-8.78267e-07
3.07148e-06
-8.52715e-07
3.86611e-06
-7.94626e-07
4.58187e-06
-7.15764e-07
5.20685e-06
-6.24978e-07
5.73415e-06
-5.273e-07
6.16044e-06
-4.26297e-07
6.48177e-06
-3.21323e-07
6.69483e-06
-2.13061e-07
6.79208e-06
-9.72477e-08
6.76586e-06
2.62127e-08
6.59486e-06
1.71e-07
6.26856e-06
3.26308e-07
5.77375e-06
4.9481e-07
5.09435e-06
6.79394e-07
4.22694e-06
8.67408e-07
3.16148e-06
1.06546e-06
1.92747e-06
1.23401e-06
6.92448e-07
1.23502e-06
-2.00703e-08
7.12518e-07
-4.50256e-07
4.30186e-07
-9.06538e-07
4.56282e-07
-1.5082e-06
6.01659e-07
-2.14336e-06
6.35161e-07
-2.53335e-06
3.89987e-07
-2.48266e-06
-5.06855e-08
-1.92036e-06
-5.62301e-07
-8.00192e-07
-1.12017e-06
6.52006e-07
-1.4522e-06
1.62091e-06
-9.68909e-07
2.04228e-06
-4.21363e-07
2.56461e-06
-5.2233e-07
2.72737e-06
-1.62761e-07
2.77492e-06
-4.75512e-08
2.85083e-06
-7.5913e-08
2.76659e-06
8.42473e-08
2.3116e-06
4.54986e-07
1.38424e-06
9.27359e-07
-3.00436e-08
1.41428e-06
-1.77414e-06
1.7441e-06
-3.46114e-06
1.687e-06
-4.98214e-06
1.521e-06
-6.30455e-06
1.32242e-06
-7.42885e-06
1.12429e-06
-8.3813e-06
9.5245e-07
-9.18767e-06
8.0637e-07
-9.87631e-06
6.88642e-07
-1.04721e-05
5.95833e-07
-1.09963e-05
5.24195e-07
-1.14658e-05
4.6949e-07
-1.18928e-05
4.26937e-07
-1.22852e-05
3.9241e-07
-1.26474e-05
3.62273e-07
-1.29809e-05
3.33494e-07
-1.32846e-05
3.03655e-07
-1.35554e-05
2.70812e-07
-1.3789e-05
2.33548e-07
-1.398e-05
1.91066e-07
-1.41233e-05
1.43299e-07
-1.42142e-05
9.08315e-08
-1.42486e-05
3.44336e-08
-1.42256e-05
-2.29435e-08
-1.41456e-05
-8.0092e-08
-1.40086e-05
-1.36924e-07
-1.38163e-05
-1.92303e-07
-1.35714e-05
-2.4494e-07
-1.32775e-05
-2.9384e-07
-1.29394e-05
-3.38171e-07
-1.25622e-05
-3.77159e-07
-1.21517e-05
-4.10487e-07
-1.17137e-05
-4.38042e-07
-1.12537e-05
-4.59984e-07
-1.0777e-05
-4.76692e-07
-1.02883e-05
-4.88715e-07
-9.79156e-06
-4.96734e-07
-9.29003e-06
-5.01527e-07
-8.7861e-06
-5.03931e-07
-8.28128e-06
-5.04817e-07
-7.77625e-06
-5.05035e-07
-7.27089e-06
-5.0536e-07
-6.76443e-06
-5.06455e-07
-6.25559e-06
-5.08848e-07
-5.74272e-06
-5.12864e-07
-5.22418e-06
-5.18546e-07
-4.69856e-06
-5.25621e-07
-4.16504e-06
-5.33519e-07
-3.62361e-06
-5.41432e-07
-3.07527e-06
-5.48339e-07
-2.52212e-06
-5.53142e-07
-1.96718e-06
-5.54946e-07
-1.4142e-06
-5.5298e-07
-8.67869e-07
-5.4633e-07
-3.33058e-07
-5.3481e-07
1.8482e-07
-5.17878e-07
6.81041e-07
-4.96222e-07
1.15025e-06
-4.69204e-07
1.5879e-06
-4.37655e-07
1.99116e-06
-4.03264e-07
2.35793e-06
-3.66762e-07
2.68095e-06
-3.23023e-07
2.95073e-06
-2.69785e-07
3.17592e-06
-2.25191e-07
3.37656e-06
-2.00631e-07
3.55136e-06
-1.74807e-07
3.70592e-06
-1.54555e-07
3.85035e-06
-1.44436e-07
3.96622e-06
-1.15869e-07
4.07409e-06
-1.07864e-07
4.10381e-06
-2.97215e-08
3.93498e-06
1.68833e-07
3.78973e-06
1.45248e-07
3.60467e-06
1.8506e-07
2.87971e-06
7.2496e-07
1.9163e-06
9.6341e-07
1.29536e-06
6.20934e-07
1.01007e-06
2.85292e-07
8.04787e-07
2.05285e-07
5.80739e-07
2.24048e-07
4.67569e-07
1.1317e-07
6.83754e-07
-2.16186e-07
1.41563e-06
-7.31872e-07
2.50944e-06
-1.09382e-06
3.40756e-06
-8.98123e-07
3.74167e-06
-3.34104e-07
3.63415e-06
1.07514e-07
3.33905e-06
2.95108e-07
2.8512e-06
4.87846e-07
2.01016e-06
8.41041e-07
7.98688e-07
1.21147e-06
-5.64617e-07
1.3633e-06
-1.8433e-06
1.27868e-06
-2.94442e-06
1.10113e-06
-3.87788e-06
9.33456e-07
-4.67293e-06
7.95045e-07
-5.34853e-06
6.75604e-07
-5.90736e-06
5.58828e-07
-6.33957e-06
4.32216e-07
-6.62777e-06
2.88202e-07
-6.75212e-06
1.24345e-07
-6.70084e-06
-5.1283e-08
-6.47123e-06
-2.29607e-07
-6.06706e-06
-4.04171e-07
-5.50383e-06
-5.63225e-07
-4.80817e-06
-6.95666e-07
-4.01483e-06
-7.93342e-07
-3.16243e-06
-8.52398e-07
-2.28891e-06
-8.73522e-07
-1.42784e-06
-8.61066e-07
-6.0364e-07
-8.242e-07
1.69026e-07
-7.72666e-07
8.86948e-07
-7.17922e-07
1.55052e-06
-6.63573e-07
2.16581e-06
-6.15287e-07
2.74092e-06
-5.75108e-07
3.29606e-06
-5.55145e-07
3.84795e-06
-5.51887e-07
4.36905e-06
-5.21104e-07
4.84875e-06
-4.79701e-07
5.33454e-06
-4.85784e-07
5.71816e-06
-3.83622e-07
5.91413e-06
-1.95967e-07
6.19013e-06
-2.76006e-07
6.32676e-06
-1.36628e-07
5.8051e-06
5.21656e-07
5.4339e-06
3.71201e-07
5.6343e-06
-2.00394e-07
4.94939e-06
6.84911e-07
3.38079e-06
1.56859e-06
2.41978e-06
9.61016e-07
2.2356e-06
1.8418e-07
1.70565e-07
2.06503e-06
4.64647e-08
5.81048e-07
9.46936e-08
4.17909e-07
1.80659e-07
1.87307e-07
4.19682e-07
-1.34357e-07
8.9217e-07
-6.1703e-07
1.54602e-06
-1.05997e-06
2.29683e-06
-1.38063e-06
3.08358e-06
-1.56216e-06
3.84198e-06
-1.61459e-06
4.55308e-06
-1.58937e-06
5.20304e-06
-1.50267e-06
5.78428e-06
-1.37586e-06
6.2943e-06
-1.22579e-06
6.7329e-06
-1.06358e-06
7.10059e-06
-8.94987e-07
7.39718e-06
-7.22891e-07
7.62328e-06
-5.4742e-07
7.77808e-06
-3.67867e-07
7.86394e-06
-1.83105e-07
7.88836e-06
1.79571e-09
7.82204e-06
2.37321e-07
7.67008e-06
4.78261e-07
7.42584e-06
7.39056e-07
7.07749e-06
1.02774e-06
6.61064e-06
1.33426e-06
6.01429e-06
1.66181e-06
5.27163e-06
1.97667e-06
4.24795e-06
2.2587e-06
2.60225e-06
2.35822e-06
8.33691e-07
2.19875e-06
-4.84409e-07
1.77438e-06
-1.36155e-06
1.4788e-06
-1.93701e-06
1.21062e-06
-2.22934e-06
6.8232e-07
-2.19236e-06
-8.76682e-08
-1.75157e-06
-1.00309e-06
-9.09599e-07
-1.96214e-06
-5.75267e-09
-2.35604e-06
7.13049e-07
-1.68771e-06
1.1573e-06
-8.65616e-07
1.2463e-06
-6.11328e-07
1.1426e-06
-5.90573e-08
4.57178e-07
6.37866e-07
-6.5901e-07
1.04028e-06
-2.06753e-06
1.49276e-06
-3.55718e-06
1.94464e-06
-4.95922e-06
2.3294e-06
-6.14749e-06
2.60255e-06
-7.08033e-06
2.67694e-06
-7.91362e-06
2.52029e-06
-8.66592e-06
2.2733e-06
-9.32806e-06
1.98455e-06
-9.90999e-06
1.70622e-06
-1.04183e-05
1.46073e-06
-1.08679e-05
1.25603e-06
-1.12717e-05
1.0924e-06
-1.16405e-05
9.64632e-07
-1.19829e-05
8.66652e-07
-1.23045e-05
7.91062e-07
-1.26081e-05
7.30557e-07
-1.2895e-05
6.79315e-07
-1.3165e-05
6.32251e-07
-1.34164e-05
5.84857e-07
-1.36462e-05
5.33474e-07
-1.38507e-05
4.75263e-07
-1.40254e-05
4.0826e-07
-1.41658e-05
3.31489e-07
-1.42674e-05
2.44918e-07
-1.4326e-05
1.49409e-07
-1.4338e-05
4.64908e-08
-1.42988e-05
-6.21902e-08
-1.42046e-05
-1.74326e-07
-1.40541e-05
-2.87375e-07
-1.38484e-05
-3.98015e-07
-1.359e-05
-5.03358e-07
-1.32829e-05
-6.00957e-07
-1.29321e-05
-6.88947e-07
-1.25432e-05
-7.6602e-07
-1.21222e-05
-8.31473e-07
-1.16751e-05
-8.85191e-07
-1.12075e-05
-9.2757e-07
-1.07248e-05
-9.5943e-07
-1.02316e-05
-9.81927e-07
-9.73182e-06
-9.96475e-07
-9.22869e-06
-1.00466e-06
-8.72445e-06
-1.00817e-06
-8.2205e-06
-1.00877e-06
-7.71734e-06
-1.00819e-06
-7.21469e-06
-1.00801e-06
-6.71156e-06
-1.00958e-06
-6.20645e-06
-1.01396e-06
-5.69752e-06
-1.02179e-06
-5.18293e-06
-1.03314e-06
-4.66113e-06
-1.04742e-06
-4.13116e-06
-1.06349e-06
-3.59293e-06
-1.07967e-06
-3.04736e-06
-1.09391e-06
-2.49651e-06
-1.104e-06
-1.94339e-06
-1.10806e-06
-1.39193e-06
-1.10444e-06
-8.46181e-07
-1.09208e-06
-3.10519e-07
-1.07047e-06
2.1162e-07
-1.04002e-06
7.15586e-07
-1.00019e-06
1.19742e-06
-9.51038e-07
1.65305e-06
-8.93288e-07
2.0788e-06
-8.29012e-07
2.47176e-06
-7.5972e-07
2.82975e-06
-6.81018e-07
3.14735e-06
-5.87385e-07
3.41097e-06
-4.88804e-07
3.61412e-06
-4.03783e-07
3.76921e-06
-3.29897e-07
3.8928e-06
-2.78151e-07
4.01322e-06
-2.64848e-07
4.13518e-06
-2.37837e-07
4.24356e-06
-2.16246e-07
4.3911e-06
-1.77255e-07
4.52034e-06
3.95908e-08
4.46764e-06
1.97947e-07
4.374e-06
2.787e-07
4.41541e-06
6.83552e-07
4.34089e-06
1.03793e-06
3.84149e-06
1.12033e-06
3.07058e-06
1.0562e-06
2.38834e-06
8.87526e-07
1.92471e-06
6.8768e-07
1.64755e-06
3.90329e-07
1.60565e-06
-1.74286e-07
1.93397e-06
-1.06019e-06
2.61524e-06
-1.77509e-06
3.32485e-06
-1.60773e-06
3.71025e-06
-7.19504e-07
3.62481e-06
1.9295e-07
3.03721e-06
8.82707e-07
1.99023e-06
1.53483e-06
6.2158e-07
2.20969e-06
-7.91183e-07
2.62424e-06
-2.01648e-06
2.5886e-06
-3.01625e-06
2.27845e-06
-3.8437e-06
1.92857e-06
-4.54692e-06
1.63668e-06
-5.15722e-06
1.40534e-06
-5.68582e-06
1.2042e-06
-6.12788e-06
1.00089e-06
-6.46879e-06
7.73119e-07
-6.68955e-06
5.0897e-07
-6.7703e-06
2.05093e-07
-6.6922e-06
-1.29384e-07
-6.43993e-06
-4.81878e-07
-6.01362e-06
-8.30476e-07
-5.42887e-06
-1.14798e-06
-4.71329e-06
-1.41125e-06
-3.90258e-06
-1.60405e-06
-3.0358e-06
-1.71918e-06
-2.15091e-06
-1.75841e-06
-1.28046e-06
-1.73152e-06
-4.48061e-07
-1.65659e-06
3.34461e-07
-1.55519e-06
1.05816e-06
-1.44163e-06
1.72514e-06
-1.33055e-06
2.34821e-06
-1.23836e-06
2.94217e-06
-1.16907e-06
3.51073e-06
-1.1237e-06
4.06825e-06
-1.10941e-06
4.6356e-06
-1.08845e-06
5.16519e-06
-1.0093e-06
5.63312e-06
-9.53717e-07
6.14255e-06
-8.93045e-07
6.58627e-06
-6.39685e-07
6.76347e-06
-4.53208e-07
6.9767e-06
-3.49857e-07
7.27208e-06
2.26276e-07
7.02566e-06
6.1762e-07
6.40966e-06
4.15602e-07
6.27452e-06
8.20049e-07
6.32879e-06
1.51432e-06
5.42868e-06
1.86113e-06
3.78758e-06
1.82528e-06
1.26185e-06
2.69629e-06
1.92981e-07
3.88067e-07
3.89341e-07
2.21549e-07
9.06626e-07
-3.29978e-07
1.71284e-06
-9.40574e-07
2.57487e-06
-1.47906e-06
3.37357e-06
-1.85867e-06
4.06436e-06
-2.07142e-06
4.64345e-06
-2.14125e-06
5.13227e-06
-2.10341e-06
5.53746e-06
-1.99457e-06
5.8771e-06
-1.84231e-06
6.16709e-06
-1.66585e-06
6.41941e-06
-1.4781e-06
6.64212e-06
-1.28628e-06
6.83839e-06
-1.09127e-06
7.00887e-06
-8.93365e-07
7.15185e-06
-6.90407e-07
7.26252e-06
-4.78529e-07
7.33239e-06
-2.52977e-07
7.33594e-06
-1.75497e-09
7.32598e-06
2.4728e-07
7.27315e-06
5.31093e-07
7.17705e-06
8.3516e-07
7.0428e-06
1.16199e-06
6.86267e-06
1.51439e-06
6.62743e-06
1.89705e-06
6.30764e-06
2.29646e-06
5.86504e-06
2.7013e-06
5.18434e-06
3.03891e-06
4.16417e-06
3.21892e-06
2.83298e-06
3.10558e-06
1.55296e-06
2.75882e-06
5.64835e-07
2.19874e-06
-1.51616e-07
1.39877e-06
-6.81297e-07
4.42013e-07
-9.21004e-07
-7.6338e-07
-9.57595e-07
-1.92555e-06
-1.08711e-06
-2.22653e-06
-1.49213e-06
-1.2827e-06
-1.92715e-06
-4.30588e-07
-2.69601e-06
1.5753e-07
-3.4785e-06
7.23426e-07
-4.29913e-06
1.4585e-06
-5.24108e-06
1.98223e-06
-6.22477e-06
2.47645e-06
-7.10279e-06
2.82266e-06
-7.80967e-06
3.03629e-06
-8.30143e-06
3.09431e-06
-8.633e-06
3.0085e-06
-8.92477e-06
2.81206e-06
-9.21339e-06
2.56192e-06
-9.51441e-06
2.28557e-06
-9.82765e-06
2.01946e-06
-1.0148e-05
1.78105e-06
-1.047e-05
1.57803e-06
-1.07892e-05
1.41167e-06
-1.11046e-05
1.27998e-06
-1.1416e-05
1.17809e-06
-1.17236e-05
1.09864e-06
-1.20272e-05
1.03416e-06
-1.23257e-05
9.77813e-07
-1.26163e-05
9.22869e-07
-1.28949e-05
8.63414e-07
-1.31561e-05
7.94681e-07
-1.33938e-05
7.12946e-07
-1.36012e-05
6.15725e-07
-1.37717e-05
5.01945e-07
-1.38986e-05
3.71815e-07
-1.3976e-05
2.26813e-07
-1.39988e-05
6.9306e-08
-1.39641e-05
-9.69375e-08
-1.38694e-05
-2.69017e-07
-1.3715e-05
-4.41719e-07
-1.35031e-05
-6.09983e-07
-1.32369e-05
-7.69502e-07
-1.29214e-05
-9.16508e-07
-1.25622e-05
-1.04808e-06
-1.2166e-05
-1.16228e-06
-1.17393e-05
-1.25818e-06
-1.12887e-05
-1.33579e-06
-1.08203e-05
-1.39595e-06
-1.03396e-05
-1.44011e-06
-9.85133e-06
-1.4702e-06
-9.35931e-06
-1.4885e-06
-8.8665e-06
-1.49746e-06
-8.37499e-06
-1.49968e-06
-7.88594e-06
-1.49781e-06
-7.39961e-06
-1.49453e-06
-6.91535e-06
-1.49227e-06
-6.43182e-06
-1.49312e-06
-5.94702e-06
-1.49876e-06
-5.45861e-06
-1.5102e-06
-4.96421e-06
-1.52754e-06
-4.4618e-06
-1.54983e-06
-3.95014e-06
-1.57515e-06
-3.42898e-06
-1.60083e-06
-2.8994e-06
-1.62348e-06
-2.36404e-06
-1.63936e-06
-1.82673e-06
-1.64537e-06
-1.29253e-06
-1.63865e-06
-7.66805e-07
-1.6178e-06
-2.54278e-07
-1.583e-06
2.41233e-07
-1.53553e-06
7.17238e-07
-1.47619e-06
1.17096e-06
-1.40476e-06
1.59863e-06
-1.32096e-06
1.9965e-06
-1.22688e-06
2.36572e-06
-1.12894e-06
2.7134e-06
-1.0287e-06
3.04233e-06
-9.16318e-07
3.34108e-06
-7.87553e-07
3.59032e-06
-6.53023e-07
3.77499e-06
-5.1457e-07
3.88518e-06
-3.88341e-07
3.94173e-06
-3.21391e-07
3.99926e-06
-2.95366e-07
4.07543e-06
-2.92416e-07
4.18779e-06
-2.89618e-07
4.35378e-06
-1.26396e-07
4.45613e-06
9.55897e-08
4.46718e-06
2.67657e-07
4.55314e-06
5.9759e-07
4.67984e-06
9.11231e-07
4.76302e-06
1.03715e-06
4.68467e-06
1.13455e-06
4.39957e-06
1.17263e-06
4.02309e-06
1.06416e-06
3.60738e-06
8.06039e-07
3.21143e-06
2.21664e-07
2.99097e-06
-8.39728e-07
3.00185e-06
-1.78596e-06
3.11878e-06
-1.72467e-06
3.06363e-06
-6.64349e-07
2.64718e-06
6.09394e-07
1.80658e-06
1.72331e-06
6.57574e-07
2.68383e-06
-5.30212e-07
3.39748e-06
-1.53376e-06
3.62778e-06
-2.34491e-06
3.39976e-06
-3.04338e-06
2.97692e-06
-3.68056e-06
2.56576e-06
-4.27642e-06
2.23253e-06
-4.83596e-06
1.96488e-06
-5.35151e-06
1.71975e-06
-5.80386e-06
1.45324e-06
-6.16657e-06
1.13583e-06
-6.40976e-06
7.5216e-07
-6.50838e-06
3.03717e-07
-6.43672e-06
-2.01046e-07
-6.18115e-06
-7.37447e-07
-5.74532e-06
-1.26631e-06
-5.14553e-06
-1.74776e-06
-4.41259e-06
-2.14419e-06
-3.58717e-06
-2.42947e-06
-2.71328e-06
-2.59307e-06
-1.83246e-06
-2.63923e-06
-9.78352e-07
-2.58563e-06
-1.74702e-07
-2.46024e-06
5.76215e-07
-2.30611e-06
1.26357e-06
-2.12898e-06
1.89377e-06
-1.96075e-06
2.47635e-06
-1.82094e-06
3.02936e-06
-1.72209e-06
3.57055e-06
-1.66489e-06
4.0999e-06
-1.63876e-06
4.61871e-06
-1.60726e-06
5.13536e-06
-1.52595e-06
5.61151e-06
-1.42987e-06
6.02527e-06
-1.3068e-06
6.45103e-06
-1.06544e-06
6.86457e-06
-8.66748e-07
7.16179e-06
-6.47079e-07
7.42892e-06
-4.08555e-08
7.60114e-06
4.45402e-07
7.29356e-06
7.23176e-07
6.80621e-06
1.3074e-06
6.73991e-06
1.58062e-06
6.92958e-06
1.67146e-06
6.46823e-06
2.28664e-06
2.59222e-06
5.13786e-06
1.47202e-08
3.73347e-07
6.24741e-07
-3.88472e-07
1.62047e-06
-1.32571e-06
2.61152e-06
-1.93162e-06
3.40597e-06
-2.27351e-06
3.97919e-06
-2.4319e-06
4.3736e-06
-2.46582e-06
4.64797e-06
-2.41561e-06
4.85253e-06
-2.30797e-06
5.01996e-06
-2.162e-06
5.17245e-06
-1.9948e-06
5.32309e-06
-1.81649e-06
5.47646e-06
-1.63147e-06
5.63005e-06
-1.43988e-06
5.77882e-06
-1.24003e-06
5.91544e-06
-1.02999e-06
6.03306e-06
-8.08027e-07
6.1275e-06
-5.72966e-07
6.19696e-06
-3.22438e-07
6.2504e-06
-5.51995e-08
6.26601e-06
2.3167e-07
6.26046e-06
5.36646e-07
6.239e-06
8.56624e-07
6.20868e-06
1.19231e-06
6.17738e-06
1.54568e-06
6.15228e-06
1.92216e-06
6.12134e-06
2.32739e-06
6.07267e-06
2.74997e-06
5.94321e-06
3.16838e-06
5.64323e-06
3.5189e-06
5.05917e-06
3.68964e-06
4.23854e-06
3.57945e-06
3.3043e-06
3.13298e-06
2.30699e-06
2.39608e-06
1.36012e-06
1.38888e-06
3.81483e-07
2.15253e-07
-6.28272e-07
-9.15793e-07
-1.6426e-06
-1.21219e-06
-2.66758e-06
-2.57721e-07
-3.45616e-06
3.57996e-07
-4.28925e-06
9.90618e-07
-5.31958e-06
1.75375e-06
-6.17763e-06
2.31655e-06
-6.93446e-06
2.73906e-06
-7.51996e-06
3.06195e-06
-7.93943e-06
3.24212e-06
-8.23017e-06
3.32703e-06
-8.43612e-06
3.30026e-06
-8.61715e-06
3.18953e-06
-8.81329e-06
3.0082e-06
-9.02635e-06
2.77498e-06
-9.25352e-06
2.51275e-06
-9.48897e-06
2.25491e-06
-9.73278e-06
2.02486e-06
-9.9848e-06
1.83005e-06
-1.02466e-05
1.67343e-06
-1.05206e-05
1.55405e-06
-1.08081e-05
1.46555e-06
-1.11077e-05
1.39828e-06
-1.14167e-05
1.34317e-06
-1.17309e-05
1.29203e-06
-1.20449e-05
1.23685e-06
-1.23522e-05
1.1707e-06
-1.26455e-05
1.08797e-06
-1.29168e-05
9.84253e-07
-1.31576e-05
8.56541e-07
-1.33592e-05
7.03494e-07
-1.35129e-05
5.25537e-07
-1.36115e-05
3.25414e-07
-1.36509e-05
1.08758e-07
-1.36253e-05
-1.22591e-07
-1.35319e-05
-3.62378e-07
-1.33729e-05
-6.00795e-07
-1.3151e-05
-8.31892e-07
-1.28708e-05
-1.04966e-06
-1.25387e-05
-1.24865e-06
-1.2162e-05
-1.42474e-06
-1.17489e-05
-1.57542e-06
-1.13073e-05
-1.69973e-06
-1.0845e-05
-1.79812e-06
-1.03687e-05
-1.87219e-06
-9.88448e-06
-1.92436e-06
-9.39704e-06
-1.95764e-06
-8.91013e-06
-1.9754e-06
-8.42642e-06
-1.98117e-06
-7.94765e-06
-1.97846e-06
-7.47461e-06
-1.97085e-06
-7.00719e-06
-1.96195e-06
-6.54437e-06
-1.95509e-06
-6.08435e-06
-1.95314e-06
-5.62462e-06
-1.95849e-06
-5.16218e-06
-1.97264e-06
-4.69385e-06
-1.99586e-06
-4.21674e-06
-2.02694e-06
-3.72866e-06
-2.06323e-06
-3.22844e-06
-2.10105e-06
-2.71621e-06
-2.13571e-06
-2.19397e-06
-2.1616e-06
-1.66546e-06
-2.17388e-06
-1.13655e-06
-2.16755e-06
-6.14618e-07
-2.13973e-06
-1.08274e-07
-2.08934e-06
3.77265e-07
-2.02107e-06
8.36956e-07
-1.93588e-06
1.27183e-06
-1.83963e-06
1.68198e-06
-1.73111e-06
2.05985e-06
-1.60475e-06
2.39242e-06
-1.46151e-06
2.67934e-06
-1.31562e-06
2.9409e-06
-1.17788e-06
3.19614e-06
-1.0428e-06
3.44362e-06
-9.00497e-07
3.66749e-06
-7.38442e-07
3.83492e-06
-5.55772e-07
3.91763e-06
-4.04101e-07