/*--------------------------------*- C++ -*----------------------------------*\
| =========                 |                                                 |
| \\      /  F ield         | OpenFOAM: The Open Source CFD Toolbox           |
|  \\    /   O peration     | Version:  2112                                  |
|   \\  /    A nd           | Website:  www.openfoam.com                      |
|    \\/     M anipulation  |                                                 |
\*---------------------------------------------------------------------------*/
FoamFile
{
    version     2.0;
    format      ascii;
    arch        "LSB;label=32;scalar=64";
    class       volVectorField;
    location    "0.33";
    object      UMean;
}
// * * * * * * * * * * * * * * * * * * * * * * * * * * * * * * * * * * * * * //

dimensions      [0 1 -1 0 0 0 0];

internalField   nonuniform List<vector> 
12225
(
(9.84369 0.0437189 0)
(9.55202 0.0603745 0)
(9.25314 0.057998 0)
(8.94875 0.056598 0)
(8.64886 0.0560948 0)
(8.35899 0.0553921 0)
(8.07941 0.0542975 0)
(7.80991 0.0534737 0)
(7.54737 0.0524755 0)
(7.29311 0.0524165 0)
(7.04084 0.0517102 0)
(6.79687 0.0532898 0)
(6.54465 0.0528945 0)
(6.30442 0.0583059 0)
(6.03144 0.058226 0)
(5.78607 0.072483 0)
(5.4513 0.0725005 0)
(5.18812 0.107729 0)
(10.0149 0.051944 0)
(10.077 0.0763345 0)
(10.1161 0.0749981 0)
(10.1291 0.0761377 0)
(10.1249 0.0796371 0)
(10.1101 0.0828012 0)
(10.0866 0.0853928 0)
(10.0557 0.0877894 0)
(10.0163 0.0904875 0)
(9.97074 0.093418 0)
(9.91592 0.0972499 0)
(9.85658 0.101505 0)
(9.78497 0.10807 0)
(9.71037 0.115217 0)
(9.61601 0.128259 0)
(9.52018 0.141367 0)
(9.39154 0.168862 0)
(9.2624 0.192904 0)
(10.0015 0.0291206 0)
(10.0342 0.0527863 0)
(10.063 0.0553102 0)
(10.0796 0.0576887 0)
(10.0888 0.0625481 0)
(10.0957 0.0675923 0)
(10.1017 0.0718132 0)
(10.1063 0.076024 0)
(10.1088 0.0801389 0)
(10.1088 0.0852969 0)
(10.1062 0.0905815 0)
(10.1005 0.0981158 0)
(10.0922 0.106163 0)
(10.08 0.11871 0)
(10.0659 0.133194 0)
(10.0474 0.155785 0)
(10.0313 0.184144 0)
(10.013 0.220003 0)
(9.99598 0.0302126 0)
(10.0194 0.0586138 0)
(10.0421 0.0645427 0)
(10.0559 0.0665287 0)
(10.0627 0.0705754 0)
(10.0668 0.0753544 0)
(10.0702 0.0796816 0)
(10.0729 0.0836978 0)
(10.0744 0.088 0)
(10.0742 0.092926 0)
(10.0725 0.0989306 0)
(10.0692 0.106251 0)
(10.0645 0.115746 0)
(10.0585 0.127922 0)
(10.0524 0.144272 0)
(10.0475 0.165582 0)
(10.0463 0.192393 0)
(10.0525 0.222671 0)
(10.0045 0.0205663 0)
(10.0232 0.045924 0)
(10.0427 0.0542604 0)
(10.0558 0.0571976 0)
(10.0624 0.0614112 0)
(10.066 0.0668349 0)
(10.0685 0.072076 0)
(10.0705 0.0770543 0)
(10.0712 0.0821297 0)
(10.0704 0.0879659 0)
(10.0681 0.0947469 0)
(10.0644 0.103079 0)
(10.0595 0.113298 0)
(10.054 0.126282 0)
(10.0485 0.142671 0)
(10.0448 0.16297 0)
(10.0439 0.186647 0)
(10.0486 0.211192 0)
(10.009 0.0203546 0)
(10.0234 0.0453809 0)
(10.0396 0.0560752 0)
(10.0518 0.0602731 0)
(10.0589 0.0645235 0)
(10.0627 0.0699532 0)
(10.0654 0.0755363 0)
(10.0673 0.0808986 0)
(10.0682 0.0863749 0)
(10.0678 0.0925288 0)
(10.0661 0.0997519 0)
(10.0633 0.108495 0)
(10.0595 0.119112 0)
(10.0555 0.132215 0)
(10.0517 0.148075 0)
(10.0497 0.166943 0)
(10.0498 0.187711 0)
(10.0539 0.209092 0)
(10.0023 0.0143518 0)
(10.0148 0.037254 0)
(10.0291 0.0490638 0)
(10.041 0.0546723 0)
(10.0486 0.0594125 0)
(10.053 0.0650955 0)
(10.056 0.0711842 0)
(10.0582 0.0772119 0)
(10.0595 0.0833529 0)
(10.0599 0.0901193 0)
(10.0591 0.0979302 0)
(10.0574 0.107209 0)
(10.0551 0.118256 0)
(10.0527 0.131478 0)
(10.0508 0.146913 0)
(10.0504 0.164614 0)
(10.0518 0.183562 0)
(10.0562 0.20316 0)
(10.007 0.0140531 0)
(10.016 0.0353607 0)
(10.0271 0.047878 0)
(10.0371 0.054695 0)
(10.0442 0.0599658 0)
(10.0485 0.0657538 0)
(10.0514 0.0720528 0)
(10.0535 0.0784597 0)
(10.0551 0.0850301 0)
(10.0558 0.0921968 0)
(10.0556 0.100366 0)
(10.0548 0.109918 0)
(10.0536 0.121066 0)
(10.0525 0.134085 0)
(10.0518 0.148882 0)
(10.0526 0.165425 0)
(10.0548 0.182886 0)
(10.0594 0.200895 0)
(10.0015 0.0108666 0)
(10.0087 0.0296357 0)
(10.0182 0.0425213 0)
(10.0275 0.0504587 0)
(10.0348 0.0564143 0)
(10.0399 0.0624748 0)
(10.0434 0.0690362 0)
(10.0461 0.0758661 0)
(10.0481 0.0829227 0)
(10.0495 0.0905486 0)
(10.0502 0.0991107 0)
(10.0503 0.108957 0)
(10.0502 0.120211 0)
(10.0504 0.133055 0)
(10.051 0.147305 0)
(10.0529 0.162938 0)
(10.0558 0.179217 0)
(10.0607 0.196012 0)
(9.9926 0.0110567 0)
(9.9993 0.027959 0)
(10.007 0.040652 0)
(10.0148 0.0491809 0)
(10.0216 0.0556645 0)
(10.0267 0.0619362 0)
(10.0304 0.0686423 0)
(10.0334 0.0757254 0)
(10.0357 0.0831279 0)
(10.0377 0.0910691 0)
(10.0391 0.0998371 0)
(10.0402 0.109742 0)
(10.0412 0.120873 0)
(10.0425 0.133357 0)
(10.0443 0.146968 0)
(10.0472 0.161699 0)
(10.0509 0.176908 0)
(10.0563 0.192603 0)
(9.99704 0.00747851 0)
(10.0024 0.0236119 0)
(10.0087 0.0359388 0)
(10.0155 0.0449598 0)
(10.0218 0.0521092 0)
(10.0269 0.0588124 0)
(10.0308 0.065762 0)
(10.0339 0.0730974 0)
(10.0365 0.0808184 0)
(10.0388 0.0890868 0)
(10.0408 0.0980961 0)
(10.0426 0.108097 0)
(10.0444 0.119125 0)
(10.0465 0.131285 0)
(10.0493 0.144323 0)
(10.0529 0.158275 0)
(10.0574 0.172544 0)
(10.0631 0.187312 0)
(9.9989 0.00875976 0)
(10.0034 0.0230877 0)
(10.0086 0.0345008 0)
(10.0146 0.043477 0)
(10.0206 0.0509433 0)
(10.0259 0.057872 0)
(10.0301 0.064904 0)
(10.0336 0.0723074 0)
(10.0366 0.0801495 0)
(10.0395 0.0885329 0)
(10.0422 0.0975739 0)
(10.0448 0.107458 0)
(10.0476 0.118203 0)
(10.0507 0.129896 0)
(10.0544 0.142303 0)
(10.0589 0.155474 0)
(10.0642 0.168879 0)
(10.0705 0.182769 0)
(9.99976 0.00594196 0)
(10.0036 0.0198755 0)
(10.0082 0.0309453 0)
(10.0135 0.0400688 0)
(10.0192 0.0478902 0)
(10.0244 0.0551105 0)
(10.0288 0.0623166 0)
(10.0327 0.0698519 0)
(10.0362 0.0778103 0)
(10.0396 0.0862835 0)
(10.043 0.0953305 0)
(10.0464 0.105109 0)
(10.05 0.115604 0)
(10.054 0.126915 0)
(10.0584 0.138783 0)
(10.0636 0.151315 0)
(10.0693 0.163965 0)
(10.076 0.177108 0)
(10.0006 0.00695265 0)
(10.0025 0.0182617 0)
(10.0056 0.0286192 0)
(10.0103 0.0376693 0)
(10.0156 0.0455561 0)
(10.0207 0.0528195 0)
(10.0253 0.0600443 0)
(10.0296 0.0675859 0)
(10.0337 0.0755472 0)
(10.0377 0.0839888 0)
(10.0418 0.0929286 0)
(10.0459 0.102475 0)
(10.0504 0.112577 0)
(10.0551 0.123329 0)
(10.0604 0.13449 0)
(10.0663 0.146203 0)
(10.0727 0.157955 0)
(10.0799 0.170166 0)
(10.0047 0.00737637 0)
(10.0088 0.015989 0)
(10.0129 0.0254955 0)
(10.0173 0.0343322 0)
(10.0223 0.0421235 0)
(10.0275 0.0493377 0)
(10.0326 0.0564924 0)
(10.0374 0.0639089 0)
(10.0422 0.0717032 0)
(10.0469 0.079953 0)
(10.0518 0.0886443 0)
(10.0569 0.0978406 0)
(10.0623 0.107457 0)
(10.068 0.117583 0)
(10.0741 0.127979 0)
(10.0807 0.138827 0)
(10.0878 0.149625 0)
(10.0956 0.160864 0)
(10.0003 0.00335616 0)
(10.0049 0.0129795 0)
(10.0087 0.0219153 0)
(10.0126 0.030067 0)
(10.0172 0.0375668 0)
(10.0223 0.0447062 0)
(10.0277 0.051788 0)
(10.033 0.0590574 0)
(10.0383 0.0666212 0)
(10.0437 0.0745509 0)
(10.0493 0.0828225 0)
(10.0551 0.091495 0)
(10.0613 0.100474 0)
(10.0679 0.109847 0)
(10.0748 0.119375 0)
(10.0822 0.129253 0)
(10.0899 0.139001 0)
(10.0983 0.149132 0)
(10.0025 0.00261825 0)
(10.0061 0.0115031 0)
(10.0093 0.0190439 0)
(10.0129 0.0259486 0)
(10.0176 0.0326038 0)
(10.0229 0.0391935 0)
(10.0287 0.0458274 0)
(10.0346 0.0526307 0)
(10.0406 0.0596624 0)
(10.0468 0.0669798 0)
(10.0533 0.0745476 0)
(10.0601 0.0824145 0)
(10.0672 0.0904785 0)
(10.0747 0.0988341 0)
(10.0825 0.107253 0)
(10.0908 0.115954 0)
(10.0993 0.124466 0)
(10.1084 0.133322 0)
(9.99857 -0.000379082 0)
(10.0002 0.00697539 0)
(10.0025 0.0135147 0)
(10.006 0.0196794 0)
(10.0109 0.0256736 0)
(10.0168 0.0316165 0)
(10.0231 0.0375944 0)
(10.0297 0.0436923 0)
(10.0365 0.049953 0)
(10.0436 0.0564288 0)
(10.0509 0.0630891 0)
(10.0587 0.069974 0)
(10.0667 0.0769821 0)
(10.075 0.0841944 0)
(10.0836 0.0913968 0)
(10.0926 0.0987894 0)
(10.1018 0.105949 0)
(10.1114 0.113372 0)
(9.99851 0.00475424 0)
(10.0008 0.00684974 0)
(10.0033 0.00989883 0)
(10.007 0.0135186 0)
(10.0121 0.017449 0)
(10.0184 0.0216498 0)
(10.0253 0.0261369 0)
(10.0325 0.0309238 0)
(10.04 0.0359576 0)
(10.0478 0.04122 0)
(10.0559 0.0466365 0)
(10.0643 0.0522169 0)
(10.073 0.0578553 0)
(10.082 0.0636139 0)
(10.0912 0.0693081 0)
(10.1006 0.0751173 0)
(10.1103 0.0806875 0)
(10.1201 0.0864502 0)
(9.99915 -0.000399021 0)
(10.0035 0.0017282 0)
(10.008 0.00367356 0)
(10.0131 0.00595617 0)
(10.0192 0.0087555 0)
(10.0262 0.0120119 0)
(10.0337 0.0155752 0)
(10.0414 0.0193518 0)
(10.0495 0.0232953 0)
(10.0579 0.0274111 0)
(10.0666 0.0316613 0)
(10.0757 0.0360511 0)
(10.085 0.0404874 0)
(10.0945 0.0450053 0)
(10.1041 0.0494495 0)
(10.114 0.0539558 0)
(10.1239 0.0582443 0)
(10.134 0.0626595 0)
(9.99934 -0.00190397 0)
(10.0012 -0.00235249 0)
(10.0044 -0.00231769 0)
(10.0096 -0.0016263 0)
(10.0164 -0.000235531 0)
(10.0241 0.00175546 0)
(10.0322 0.00415394 0)
(10.0404 0.00683988 0)
(10.0489 0.00973845 0)
(10.0577 0.0128416 0)
(10.0668 0.0160981 0)
(10.0762 0.0195004 0)
(10.0858 0.0229592 0)
(10.0956 0.0264976 0)
(10.1055 0.0299821 0)
(10.1155 0.0335217 0)
(10.1257 0.0368799 0)
(10.1359 0.0403362 0)
(9.99687 0.00187652 0)
(10.0014 -0.00339749 0)
(10.0069 -0.00570667 0)
(10.0136 -0.00615978 0)
(10.0214 -0.00552094 0)
(10.0298 -0.0042281 0)
(10.0384 -0.00253508 0)
(10.0471 -0.000571083 0)
(10.056 0.001611 0)
(10.0651 0.00399834 0)
(10.0746 0.00653774 0)
(10.0842 0.00920224 0)
(10.094 0.0119057 0)
(10.1039 0.0146579 0)
(10.114 0.0173509 0)
(10.1241 0.0200752 0)
(10.1342 0.0226452 0)
(10.1444 0.025289 0)
(9.99521 -0.00509559 0)
(10.0017 -0.0107332 0)
(10.0088 -0.0145245 0)
(10.0165 -0.0160839 0)
(10.0249 -0.016029 0)
(10.0336 -0.0152172 0)
(10.0425 -0.0141457 0)
(10.0515 -0.0129036 0)
(10.0607 -0.0114397 0)
(10.0702 -0.00972516 0)
(10.0799 -0.00782566 0)
(10.0898 -0.00579863 0)
(10.0998 -0.00373205 0)
(10.1098 -0.00162296 0)
(10.12 0.000444564 0)
(10.1302 0.00254029 0)
(10.1404 0.0045148 0)
(10.1506 0.00654477 0)
(9.99644 -0.0046329 0)
(10.0026 -0.0113978 0)
(10.011 -0.0162262 0)
(10.0206 -0.0183019 0)
(10.0304 -0.0185035 0)
(10.0397 -0.0180638 0)
(10.0488 -0.0175275 0)
(10.0581 -0.016849 0)
(10.0676 -0.0158994 0)
(10.0774 -0.0146721 0)
(10.0874 -0.0132723 0)
(10.0975 -0.0117774 0)
(10.1076 -0.0102627 0)
(10.1178 -0.00871544 0)
(10.1281 -0.00719588 0)
(10.1384 -0.00564857 0)
(10.1486 -0.00419629 0)
(10.1589 -0.00270926 0)
(9.99549 -0.00879203 0)
(10.0031 -0.0212557 0)
(10.0132 -0.0275295 0)
(10.024 -0.029394 0)
(10.0343 -0.0296007 0)
(10.0437 -0.0296476 0)
(10.0528 -0.0297155 0)
(10.0621 -0.0295304 0)
(10.0719 -0.028975 0)
(10.0819 -0.0281286 0)
(10.092 -0.0271273 0)
(10.1021 -0.0260461 0)
(10.1123 -0.0249381 0)
(10.1225 -0.0237956 0)
(10.1328 -0.0226669 0)
(10.143 -0.0215217 0)
(10.1533 -0.0204482 0)
(10.1635 -0.019351 0)
(9.99949 -0.00799888 0)
(10.0106 -0.0216587 0)
(10.0244 -0.0269819 0)
(10.0373 -0.0279148 0)
(10.0479 -0.0281573 0)
(10.0572 -0.0288171 0)
(10.0664 -0.0294672 0)
(10.076 -0.0296801 0)
(10.0859 -0.029462 0)
(10.096 -0.0289994 0)
(10.1061 -0.0284376 0)
(10.1163 -0.0278193 0)
(10.1264 -0.0271637 0)
(10.1367 -0.0264618 0)
(10.1469 -0.0257569 0)
(10.1572 -0.0250292 0)
(10.1675 -0.0243543 0)
(10.1776 -0.0236621 0)
(10.0008 -0.0178038 0)
(10.0149 -0.0365423 0)
(10.031 -0.0415077 0)
(10.0443 -0.0414101 0)
(10.0547 -0.0415426 0)
(10.0638 -0.0424154 0)
(10.0731 -0.0431112 0)
(10.083 -0.0432654 0)
(10.0933 -0.0430505 0)
(10.1036 -0.0426954 0)
(10.1139 -0.0422981 0)
(10.1242 -0.041865 0)
(10.1346 -0.0413966 0)
(10.145 -0.0408963 0)
(10.1554 -0.0403983 0)
(10.1659 -0.0399016 0)
(10.1763 -0.0394522 0)
(10.1866 -0.0390076 0)
(9.99882 -0.0143098 0)
(10.0207 -0.0309991 0)
(10.0427 -0.0339605 0)
(10.0585 -0.0341048 0)
(10.0698 -0.0354765 0)
(10.0801 -0.03727 0)
(10.091 -0.0385023 0)
(10.1024 -0.0391353 0)
(10.1139 -0.0394578 0)
(10.1254 -0.0396703 0)
(10.1368 -0.0398131 0)
(10.148 -0.0399026 0)
(10.1593 -0.0399197 0)
(10.1704 -0.0399046 0)
(10.1815 -0.0398415 0)
(10.1925 -0.0397914 0)
(10.2034 -0.0397358 0)
(10.2139 -0.0397298 0)
(10.0092 -0.0367444 0)
(10.0507 -0.0548311 0)
(10.0845 -0.053057 0)
(10.106 -0.0519329 0)
(10.1197 -0.0530632 0)
(10.1299 -0.0542509 0)
(10.1382 -0.0548032 0)
(10.1446 -0.0549771 0)
(10.1492 -0.0550279 0)
(10.1522 -0.0550576 0)
(10.1537 -0.0550438 0)
(10.1541 -0.0550052 0)
(10.1534 -0.0549007 0)
(10.1522 -0.0547908 0)
(10.15 -0.0546178 0)
(10.1476 -0.0544854 0)
(10.1442 -0.0543281 0)
(10.1412 -0.0543011 0)
(9.91489 -0.0301064 0)
(9.75756 -0.0460595 0)
(9.59475 -0.0453375 0)
(9.42722 -0.0443822 0)
(9.26254 -0.0444378 0)
(9.10483 -0.0443192 0)
(8.95494 -0.043807 0)
(8.81245 -0.0431097 0)
(8.67671 -0.0423634 0)
(8.54742 -0.041613 0)
(8.42419 -0.0408553 0)
(8.30708 -0.0401107 0)
(8.19548 -0.039368 0)
(8.08975 -0.0386627 0)
(7.98867 -0.0379605 0)
(7.89343 -0.0373172 0)
(7.8015 -0.0366808 0)
(7.71602 -0.0361662 0)
(-0.184435 0.363701 -3.76764e-23)
(-0.401326 0.146536 5.86294e-23)
(-0.473493 -0.0308699 0)
(-0.399025 -0.193664 0)
(-0.191209 -0.31769 0)
(0.100662 -0.387467 -7.65124e-23)
(0.443267 -0.414591 0)
(0.797657 -0.398242 0)
(1.13584 -0.354483 0)
(1.43748 -0.301563 0)
(1.69576 -0.246444 2.1347e-22)
(1.90742 -0.191584 0)
(2.07543 -0.140301 0)
(2.20429 -0.0959013 0)
(2.29937 -0.0652007 0)
(2.36068 -0.041469 5.1716e-22)
(2.38191 -0.0259296 0)
(2.36561 -0.00702643 0)
(2.3119 0.0345592 0)
(2.21374 0.0851829 0)
(2.08068 0.116878 0)
(1.9243 0.13384 0)
(1.7333 0.154103 0)
(1.51334 0.174629 4.90516e-22)
(1.26794 0.194776 -4.72811e-22)
(1.00916 0.199638 4.609e-22)
(0.734474 0.193875 4.5792e-22)
(0.45274 0.170431 0)
(0.179606 0.126405 0)
(-0.0848467 0.10894 -5.10251e-22)
(-0.337264 0.117926 -5.44708e-22)
(-0.573918 0.12874 0)
(-0.806039 0.143126 0)
(-1.0283 0.143633 -7.02961e-22)
(-1.23778 0.138342 0)
(-1.43945 0.125002 0)
(-1.62659 0.0978962 9.03737e-22)
(-1.80165 0.0811335 0)
(-1.95884 0.0964708 1.02415e-21)
(-2.12504 0.109893 2.15584e-21)
(-2.27666 0.0936883 0)
(-2.42568 0.0841078 0)
(-2.58216 0.103099 0)
(-2.74461 0.0951147 0)
(-2.90355 0.0730691 0)
(-3.06605 0.0767842 2.79522e-21)
(-3.23284 0.0792287 2.86324e-21)
(-3.39197 0.0752785 2.91412e-21)
(-3.53936 0.0844977 0)
(-3.68385 0.0863088 -2.97511e-21)
(-3.8126 0.0689412 0)
(-3.92114 0.060886 3.00473e-21)
(-4.01956 0.0525911 3.00456e-21)
(-4.10175 0.0347565 0)
(-4.16818 0.0283598 0)
(-4.23464 0.0249722 0)
(-4.29354 0.0237171 2.86066e-21)
(-4.36157 0.0310591 0)
(-4.43851 0.0293148 0)
(-4.50447 0.0182317 0)
(-4.54696 0.00951594 0)
(-4.58143 0.0143683 0)
(-4.60879 -0.00747865 0)
(-4.62867 -0.0248106 0)
(-4.64984 -0.000445427 0)
(-4.67887 0.00131916 -2.54154e-21)
(-4.6968 -0.0147723 0)
(-4.69724 -0.0133485 0)
(-4.71768 -0.0169084 2.54669e-21)
(-4.72106 -0.0168542 2.5486e-21)
(-4.74046 -0.00374777 0)
(-4.77645 0.0117087 -2.53578e-21)
(-4.82987 0.0369228 2.51886e-21)
(-4.89395 0.0395808 0)
(-4.95012 0.0360448 -2.47471e-21)
(-5.00577 0.0304098 0)
(-5.04995 0.0204012 0)
(-5.08146 0.011398 2.33834e-21)
(-5.09722 0.00470371 0)
(-5.09864 -0.00551236 -2.18528e-21)
(-5.07307 -0.0201473 0)
(-5.03115 -0.031629 1.9959e-21)
(-4.98659 -0.030659 1.89292e-21)
(-4.94539 -0.0216587 1.78253e-21)
(-4.90799 -0.0147598 3.32966e-21)
(-4.86662 -0.0189171 -3.08688e-21)
(-4.81331 -0.0271972 0)
(-4.75173 -0.0356069 0)
(-4.67303 -0.0448229 0)
(-4.60019 -0.0472287 -2.06e-21)
(-4.52887 -0.029779 -1.79448e-21)
(-4.4728 -0.0227485 1.53675e-21)
(-4.40266 -0.0308459 0)
(-4.32112 -0.0354877 -1.07927e-21)
(-4.23188 -0.0393602 -8.71436e-22)
(-4.13181 -0.043223 -6.72482e-22)
(-4.02365 -0.0473256 0)
(-3.90658 -0.0515469 0)
(-3.78307 -0.053741 0)
(-3.65484 -0.0525748 1.88485e-22)
(-3.52809 -0.0545784 0)
(-3.3935 -0.0625541 0)
(-3.24729 -0.0741298 -9.52239e-22)
(-3.10826 -0.0582512 0)
(-3.00509 -0.0410714 0)
(-2.90352 -0.0363084 -1.67282e-21)
(-2.80527 -0.0324457 0)
(-2.71005 -0.0309678 0)
(-2.61848 -0.0306128 2.26929e-21)
(-2.52358 -0.0388437 2.44367e-21)
(-2.42876 -0.0305307 0)
(-2.35713 -0.0233242 -2.74484e-21)
(-2.27449 -0.0272334 0)
(-2.18475 -0.0304283 2.96903e-21)
(-2.08743 -0.0337756 0)
(-1.98133 -0.0371713 3.18864e-21)
(-1.86401 -0.0411858 3.31213e-21)
(-1.73584 -0.0447349 0)
(-1.59829 -0.0482883 0)
(-1.45136 -0.0517406 0)
(-1.29726 -0.0541236 0)
(-1.13812 -0.0564208 0)
(-0.970968 -0.0599423 0)
(-0.793379 -0.0630367 0)
(-0.6072 -0.0648574 4.64483e-21)
(-0.415103 -0.0660184 -4.78628e-21)
(-0.219203 -0.0666513 0)
(-0.0217809 -0.0662962 0)
(0.174737 -0.0646952 0)
(0.366439 -0.0614657 0)
(0.547281 -0.0561889 -1.04491e-20)
(0.711564 -0.0489727 0)
(0.854992 -0.0408908 1.04936e-20)
(0.974141 -0.0319501 -1.04524e-20)
(1.06441 -0.0225682 0)
(1.12918 -0.0149196 0)
(1.17808 -0.0112871 0)
(1.22267 -0.0112836 9.87351e-21)
(1.26914 -0.0127552 9.64168e-21)
(1.32251 -0.0155413 0)
(1.38798 -0.0189712 9.17539e-21)
(1.46384 -0.021456 8.98071e-21)
(1.54643 -0.0224328 -8.82361e-21)
(1.63131 -0.0218717 0)
(1.71423 -0.020058 0)
(1.79237 -0.0178884 -8.53242e-21)
(1.86575 -0.0159274 0)
(1.9339 -0.0140935 0)
(1.99639 -0.0122532 0)
(2.05436 -0.0111609 0)
(2.11453 -0.0119256 8.27475e-21)
(2.18178 -0.0136157 8.24433e-21)
(2.25407 -0.0146654 0)
(2.32822 -0.0147459 8.21761e-21)
(2.40039 -0.0138282 0)
(2.46712 -0.0120288 0)
(2.52508 -0.00970196 8.16748e-21)
(2.57117 -0.00719054 0)
(2.60343 -0.0034025 8.05039e-21)
(2.61493 0.00214026 0)
(2.60252 0.00738799 0)
(2.56878 0.0109156 7.70211e-21)
(2.51844 0.0120029 0)
(2.45937 0.010771 7.41883e-21)
(2.40206 0.00746927 0)
(2.35567 0.00392018 0)
(2.31902 0.0028331 0)
(2.28848 0.00259318 -6.89015e-21)
(2.2621 0.00177296 0)
(2.24114 0.00166173 6.75728e-21)
(2.22499 0.00245175 0)
(2.21313 0.00271834 0)
(2.20062 0.00393701 0)
(2.17748 0.00539382 0)
(2.14197 0.00943994 0)
(2.092 0.00791934 0)
(2.05407 0.0128419 0)
(1.98129 0.00733367 -1.29212e-20)
(1.95696 0.0313438 0)
(1.77994 0.0142281 0)
(0.0059099 0.768591 2.0369e-22)
(0.0763334 0.410835 -2.58412e-22)
(0.197266 -0.000743316 0)
(0.431942 -0.400285 3.26494e-22)
(0.725965 -0.744892 0)
(1.0578 -0.963914 7.32553e-23)
(1.38889 -1.05842 -4.5703e-22)
(1.69238 -1.05184 -5.24517e-22)
(1.96035 -0.972653 0)
(2.18725 -0.850405 -7.29504e-22)
(2.37095 -0.709517 -2.12181e-22)
(2.51248 -0.569712 0)
(2.61992 -0.449212 0)
(2.69282 -0.347517 0)
(2.72076 -0.245927 0)
(2.71226 -0.122339 -5.15032e-22)
(2.6567 0.00550324 0)
(2.56253 0.126164 1.41731e-21)
(2.44299 0.234596 0)
(2.29872 0.31955 0)
(2.13526 0.388443 -1.37253e-21)
(1.93713 0.467428 0)
(1.71547 0.558768 1.29641e-21)
(1.47821 0.622001 -4.85969e-22)
(1.22978 0.65961 4.68008e-22)
(0.967936 0.694186 -4.55947e-22)
(0.683753 0.720498 -4.52889e-22)
(0.380545 0.740774 0)
(0.0592077 0.746995 0)
(-0.280231 0.72473 5.05933e-22)
(-0.617137 0.666443 -8.47381e-22)
(-0.928427 0.605779 0)
(-1.2243 0.556009 0)
(-1.47758 0.510598 6.99403e-22)
(-1.72315 0.473776 0)
(-1.94858 0.450932 0)
(-2.16807 0.435406 -8.99775e-22)
(-2.37293 0.397006 0)
(-2.55375 0.363785 1.42705e-21)
(-2.72952 0.335089 -2.14721e-21)
(-2.89286 0.316331 0)
(-3.0775 0.337873 0)
(-3.25242 0.344529 -5.78734e-21)
(-3.4313 0.346994 -5.9927e-21)
(-3.62229 0.371964 -6.17309e-21)
(-3.80379 0.373759 3.53708e-21)
(-3.96473 0.358435 -2.85555e-21)
(-4.11048 0.332608 -9.43118e-21)
(-4.23963 0.296592 6.58267e-21)
(-4.34583 0.26473 2.96788e-21)
(-4.43827 0.231274 0)
(-4.51017 0.193491 -2.99774e-21)
(-4.56711 0.160067 3.63292e-21)
(-4.61834 0.132355 0)
(-4.66543 0.12099 0)
(-4.71762 0.113997 0)
(-4.76815 0.113648 -2.85513e-21)
(-4.82378 0.127857 0)
(-4.8802 0.124374 5.9761e-21)
(-4.93446 0.097944 0)
(-4.97956 0.061642 5.75742e-21)
(-5.02004 0.0369015 0)
(-5.05794 0.0468233 -5.6383e-21)
(-5.11112 0.0568157 0)
(-5.1268 0.0339401 5.5781e-21)
(-5.1373 0.0236006 -3.014e-21)
(-5.14556 0.0116206 0)
(-5.15307 0.0124828 -5.54159e-21)
(-5.18198 0.0235064 -2.54384e-21)
(-5.20109 0.020885 -2.54607e-21)
(-5.2357 0.0429339 0)
(-5.2804 0.0695136 -2.98021e-21)
(-5.3073 0.0773228 -2.51682e-21)
(-5.33271 0.0746525 0)
(-5.34921 0.0710004 2.47242e-21)
(-5.36767 0.0637532 -5.2797e-21)
(-5.37889 0.0477106 0)
(-5.38266 0.0237115 -2.33588e-21)
(-5.37627 -0.00517605 0)
(-5.36196 -0.0352843 6.87279e-21)
(-5.33275 -0.0672612 0)
(-5.30738 -0.0771709 -6.28949e-21)
(-5.27769 -0.0743622 -1.89174e-21)
(-5.23312 -0.0752264 2.07967e-21)
(-5.17669 -0.0823358 3.91168e-21)
(-5.11288 -0.0949198 -3.64799e-21)
(-5.04163 -0.106085 0)
(-4.96585 -0.120289 0)
(-4.88771 -0.121746 0)
(-4.82146 -0.109724 6.68505e-21)
(-4.73055 -0.110743 1.79453e-21)
(-4.63236 -0.120105 -1.53695e-21)
(-4.52255 -0.132307 0)
(-4.40614 -0.143328 -1.56194e-21)
(-4.28219 -0.156003 8.71851e-22)
(-4.15152 -0.166951 6.73067e-22)
(-4.01723 -0.175687 0)
(-3.88038 -0.182618 0)
(-3.74536 -0.187604 0)
(-3.60803 -0.190169 -1.86771e-22)
(-3.47494 -0.190119 0)
(-3.33709 -0.19855 1.03917e-21)
(-3.21363 -0.189498 2.50202e-21)
(-3.09793 -0.164816 -2.04593e-21)
(-2.9794 -0.152666 0)
(-2.8527 -0.148306 -1.28875e-21)
(-2.72917 -0.142646 0)
(-2.60902 -0.137716 -3.81022e-21)
(-2.49545 -0.135389 1.94549e-21)
(-2.39415 -0.127797 2.13129e-21)
(-2.29673 -0.115506 0)
(-2.19599 -0.115454 7.91244e-21)
(-2.08362 -0.12227 -5.40917e-21)
(-1.97016 -0.128682 -2.96779e-21)
(-1.84905 -0.137303 0)
(-1.72025 -0.147636 -3.18732e-21)
(-1.57998 -0.159003 -9.66661e-21)
(-1.43034 -0.169295 0)
(-1.27159 -0.178174 -6.97042e-21)
(-1.10591 -0.185206 -7.32225e-21)
(-0.934879 -0.19047 -7.69349e-21)
(-0.758932 -0.196123 0)
(-0.576148 -0.203916 0)
(-0.386283 -0.212438 0)
(-0.190737 -0.219052 4.46843e-21)
(0.00950475 -0.222306 4.7827e-21)
(0.211804 -0.222553 0)
(0.413919 -0.220289 9.89286e-21)
(0.613655 -0.214873 1.00796e-20)
(0.808111 -0.204801 0)
(0.99266 -0.188919 1.04407e-20)
(1.16294 -0.167611 2.07249e-20)
(1.31371 -0.141621 -1.04849e-20)
(1.43928 -0.112234 -1.0169e-20)
(1.53715 -0.0842144 0)
(1.61375 -0.0637535 0)
(1.67819 -0.0535719 0)
(1.74019 -0.0520084 -9.86413e-21)
(1.80555 -0.056248 9.26175e-21)
(1.87964 -0.0648232 1.8419e-20)
(1.96477 -0.0744748 -9.16614e-21)
(2.05788 -0.081784 8.63545e-21)
(2.15569 -0.085527 8.81431e-21)
(2.25556 -0.0855529 0)
(2.35522 -0.08278 0)
(2.45321 -0.0785551 -8.22532e-21)
(2.54876 -0.0733779 0)
(2.64024 -0.0675143 0)
(2.72727 -0.0627205 1.64205e-20)
(2.8131 -0.0617993 0)
(2.90346 -0.0653528 8.00034e-21)
(2.99878 -0.0696519 -8.23526e-21)
(3.09538 -0.0717976 0)
(3.19163 -0.0711559 7.9831e-21)
(3.28514 -0.067557 0)
(3.37426 -0.0610839 0)
(3.45574 -0.0518729 -8.15898e-21)
(3.52621 -0.0400826 1.60098e-20)
(3.58141 -0.0250285 -8.0417e-21)
(3.61663 -0.00638819 0)
(3.63123 0.0124423 0)
(3.62635 0.0282191 7.4474e-21)
(3.60137 0.0388635 0)
(3.55986 0.0425403 7.15996e-21)
(3.51218 0.0389595 0)
(3.46211 0.0318961 0)
(3.40885 0.0250995 0)
(3.35629 0.0202556 6.88296e-21)
(3.3042 0.016583 0)
(3.25488 0.0117005 -6.75021e-21)
(3.21333 0.00694339 0)
(3.18087 0.00450126 0)
(3.1535 0.00926305 1.31667e-20)
(3.11982 0.0164862 -1.3124e-20)
(3.08447 0.0262338 0)
(3.04456 0.0264148 0)
(3.00994 0.0350249 0)
(2.94542 0.0301013 3.83659e-20)
(2.91381 0.0667739 0)
(2.80158 0.0672712 -2.5401e-20)
(0.0977201 0.298003 1.75805e-23)
(0.327403 -0.157018 4.10736e-22)
(0.677742 -0.699053 0)
(1.0676 -1.1995 -7.47745e-22)
(1.43091 -1.53783 0)
(1.72876 -1.6914 0)
(1.95898 -1.68553 -3.83016e-22)
(2.1249 -1.56441 5.21928e-22)
(2.23881 -1.37223 1.10754e-21)
(2.31212 -1.14452 7.28202e-22)
(2.35755 -0.90957 0)
(2.38043 -0.700453 0)
(2.3723 -0.505212 -1.57178e-21)
(2.33015 -0.299475 -3.30347e-21)
(2.25209 -0.106843 3.43116e-21)
(2.1515 0.0777556 0)
(2.02847 0.244597 3.57052e-21)
(1.88913 0.392114 -1.41599e-21)
(1.737 0.529949 0)
(1.56605 0.65056 3.53215e-21)
(1.37397 0.778709 1.36968e-21)
(1.16571 0.890691 -3.40774e-21)
(0.963064 0.974982 -1.29205e-21)
(0.756019 1.0424 0)
(0.5387 1.10087 3.21589e-21)
(0.307535 1.16356 3.17934e-21)
(0.0624994 1.21814 0)
(-0.191145 1.26063 3.19114e-21)
(-0.449554 1.27687 0)
(-0.70803 1.25873 3.34628e-21)
(-0.977699 1.21611 1.37899e-21)
(-1.24244 1.14243 0)
(-1.51708 1.05143 0)
(-1.78575 0.984574 0)
(-2.05339 0.926059 0)
(-2.29299 0.853677 0)
(-2.51502 0.784261 0)
(-2.72021 0.715324 5.48996e-21)
(-2.92119 0.666409 -8.20719e-21)
(-3.11731 0.637717 0)
(-3.31354 0.63015 0)
(-3.51355 0.632056 0)
(-3.69753 0.644916 -9.60424e-22)
(-3.88921 0.650453 5.98654e-21)
(-4.04778 0.632943 1.3274e-20)
(-4.18479 0.599365 -1.35528e-20)
(-4.29715 0.545956 -7.3248e-21)
(-4.39283 0.488886 6.5218e-21)
(-4.47811 0.435031 8.43869e-22)
(-4.54156 0.372673 7.44247e-21)
(-4.58994 0.310779 0)
(-4.62316 0.255842 7.42158e-21)
(-4.65127 0.219563 7.44069e-22)
(-4.68428 0.199368 0)
(-4.72082 0.188779 0)
(-4.76688 0.184775 -7.0809e-21)
(-4.81749 0.188813 0)
(-4.8677 0.195257 0)
(-4.91574 0.184614 7.30481e-21)
(-4.96585 0.156561 1.30291e-20)
(-5.01412 0.125613 -5.75995e-21)
(-5.06825 0.113367 0)
(-5.11204 0.104777 5.64123e-21)
(-5.13431 0.0777192 0)
(-5.14288 0.04579 6.80069e-21)
(-5.15889 0.0259234 5.55612e-21)
(-5.17506 0.0151384 -1.22919e-20)
(-5.20406 0.035843 -6.72898e-21)
(-5.22987 0.0429803 0)
(-5.26289 0.0613804 1.22209e-20)
(-5.30399 0.0953567 0)
(-5.32471 0.105408 1.76666e-20)
(-5.3258 0.0970669 1.20732e-20)
(-5.3221 0.08605 1.1956e-20)
(-5.31111 0.0771827 -1.17904e-20)
(-5.29993 0.0655997 1.68585e-20)
(-5.28532 0.043916 0)
(-5.265 0.012117 0)
(-5.24283 -0.0185847 -1.06558e-20)
(-5.21751 -0.0512282 -1.49701e-20)
(-5.19334 -0.0816764 0)
(-5.16973 -0.0975831 4.29921e-21)
(-5.13149 -0.110586 0)
(-5.07696 -0.127588 -1.24174e-20)
(-5.01375 -0.144662 7.95739e-22)
(-4.94697 -0.16183 -7.66322e-22)
(-4.87256 -0.179999 6.95473e-21)
(-4.7975 -0.194144 0)
(-4.7225 -0.194899 -5.86887e-21)
(-4.63164 -0.202987 7.07016e-22)
(-4.52201 -0.218828 0)
(-4.40632 -0.236807 0)
(-4.28386 -0.255318 0)
(-4.15763 -0.272637 2.64775e-21)
(-4.02719 -0.288321 0)
(-3.89561 -0.298788 0)
(-3.76391 -0.3048 0)
(-3.63296 -0.307431 0)
(-3.50518 -0.307984 0)
(-3.37817 -0.306866 5.50949e-22)
(-3.25382 -0.305784 0)
(-3.12868 -0.307778 -1.03335e-21)
(-3.01636 -0.292881 -1.54615e-21)
(-2.89477 -0.272579 2.04116e-21)
(-2.75928 -0.265362 0)
(-2.62162 -0.258346 2.95621e-21)
(-2.4909 -0.247326 0)
(-2.36755 -0.234406 3.80704e-21)
(-2.25193 -0.222269 -4.21056e-21)
(-2.14454 -0.209848 -1.27863e-20)
(-2.0326 -0.202397 0)
(-1.91166 -0.207176 -1.45859e-20)
(-1.78892 -0.214834 -4.51781e-21)
(-1.66761 -0.223982 0)
(-1.54103 -0.237397 -1.08747e-20)
(-1.40766 -0.254324 -1.13743e-20)
(-1.26389 -0.272967 1.82768e-20)
(-1.11118 -0.290091 0)
(-0.949099 -0.304567 6.96642e-21)
(-0.779953 -0.315898 7.31789e-21)
(-0.604618 -0.325081 2.23991e-20)
(-0.422821 -0.334693 0)
(-0.234118 -0.346038 0)
(-0.0405419 -0.356683 0)
(0.155842 -0.363975 8.5634e-21)
(0.353254 -0.36703 0)
(0.549711 -0.365935 0)
(0.743307 -0.360886 -9.88737e-21)
(0.931887 -0.351175 -1.00738e-20)
(1.11306 -0.334919 0)
(1.28419 -0.310395 0)
(1.44225 -0.277038 -2.07132e-20)
(1.58198 -0.235241 0)
(1.69887 -0.188569 2.06e-20)
(1.7943 -0.145974 1.99245e-20)
(1.87551 -0.115778 0)
(1.94893 -0.100934 0)
(2.02106 -0.0993156 -1.87803e-20)
(2.09558 -0.106644 -5.7156e-22)
(2.17663 -0.119835 -5.58068e-22)
(2.26424 -0.133492 0)
(2.35635 -0.143456 -3.46762e-20)
(2.45141 -0.148439 0)
(2.5479 -0.148513 0)
(2.64474 -0.145073 0)
(2.74139 -0.139728 1.6738e-20)
(2.83742 -0.132826 0)
(2.93182 -0.124966 -3.21047e-20)
(3.02508 -0.119189 -1.64108e-20)
(3.12015 -0.118955 0)
(3.21913 -0.123491 -1.62566e-20)
(3.31945 -0.127487 0)
(3.41931 -0.128463 0)
(3.51841 -0.126124 -4.78326e-20)
(3.61506 -0.120074 3.16564e-20)
(3.70766 -0.110269 0)
(3.7937 -0.0965403 3.15291e-20)
(3.87024 -0.0783598 -1.59998e-20)
(3.93407 -0.0549063 0)
(3.98216 -0.0265632 0)
(4.01456 0.00230121 0)
(4.03352 0.0272425 -4.46875e-20)
(4.03887 0.0460477 0)
(4.03187 0.0562397 -1.45608e-20)
(4.0189 0.0578089 0)
(3.99749 0.0572333 0)
(3.96461 0.0566223 0)
(3.92068 0.0540967 0)
(3.86749 0.0498806 0)
(3.8109 0.0432432 0)
(3.75591 0.0353328 -2.58395e-20)
(3.70077 0.0289812 0)
(3.64403 0.0304377 -1.31583e-20)
(3.58204 0.0350845 3.87585e-20)
(3.52635 0.0422101 0)
(3.47603 0.0439457 0)
(3.43307 0.0572004 -2.50739e-20)
(3.36622 0.0616866 -2.54436e-20)
(3.31748 0.095052 2.48471e-20)
(3.21637 0.113186 2.53877e-20)
(0.0864911 -0.194268 -6.98661e-22)
(0.45643 -0.93242 -8.3633e-22)
(0.909935 -1.59384 -8.9746e-22)
(1.28558 -2.00268 -8.32467e-22)
(1.54689 -2.13895 0)
(1.6995 -2.0797 2.05004e-21)
(1.77185 -1.88663 -1.59123e-21)
(1.79367 -1.61791 0)
(1.78918 -1.32834 -1.10894e-21)
(1.76808 -1.05239 0)
(1.73786 -0.799292 3.63273e-21)
(1.69012 -0.549634 0)
(1.61861 -0.306518 1.57304e-21)
(1.53412 -0.0814859 3.30607e-21)
(1.42849 0.135434 -3.43373e-21)
(1.30781 0.34117 0)
(1.17348 0.525093 -3.57246e-21)
(1.02303 0.69695 0)
(0.86384 0.850413 0)
(0.683356 1.00463 -3.53286e-21)
(0.496088 1.13673 0)
(0.310776 1.23355 -8.74912e-22)
(0.126572 1.31603 0)
(-0.0626489 1.39438 0)
(-0.262804 1.47367 9.28021e-22)
(-0.468768 1.54435 -3.17309e-21)
(-0.679188 1.60307 -4.11418e-21)
(-0.889409 1.64084 -3.18258e-21)
(-1.09875 1.65075 0)
(-1.30613 1.63435 -7.59607e-21)
(-1.52564 1.59514 0)
(-1.74625 1.54156 -4.54961e-21)
(-1.98899 1.48747 0)
(-2.23187 1.425 0)
(-2.46519 1.33899 5.3461e-21)
(-2.68974 1.24706 0)
(-2.91212 1.16351 -5.9947e-21)
(-3.12267 1.0826 8.2896e-22)
(-3.33508 1.029 1.23746e-20)
(-3.53555 0.987224 -1.38237e-20)
(-3.72469 0.964548 0)
(-3.90142 0.957137 0)
(-4.05249 0.941268 -8.66198e-21)
(-4.18305 0.895364 0)
(-4.28495 0.830114 -7.10217e-21)
(-4.37064 0.75469 7.22958e-21)
(-4.43998 0.675933 7.3228e-21)
(-4.50268 0.604272 0)
(-4.55121 0.526698 -7.42441e-21)
(-4.58612 0.442583 -7.44418e-21)
(-4.60901 0.36125 1.65563e-20)
(-4.62325 0.294782 -7.42521e-21)
(-4.63728 0.256554 -7.3806e-21)
(-4.6563 0.239891 0)
(-4.68253 0.237547 0)
(-4.71959 0.245839 7.08537e-21)
(-4.76185 0.257323 0)
(-4.80496 0.262715 0)
(-4.8486 0.254766 -1.32912e-20)
(-4.8903 0.226523 -1.30375e-20)
(-4.93351 0.19707 0)
(-4.97692 0.17567 0)
(-5.00522 0.140983 0)
(-5.01088 0.0961558 0)
(-5.02775 0.0729583 -1.23944e-20)
(-5.04849 0.0611282 1.36674e-20)
(-5.08275 0.0686605 1.23038e-20)
(-5.11783 0.0873898 2.58763e-20)
(-5.14892 0.0999046 0)
(-5.17757 0.110763 1.24451e-21)
(-5.1959 0.116687 0)
(-5.19676 0.10465 -1.21609e-20)
(-5.18661 0.0867612 1.16095e-21)
(-5.17294 0.0727588 -1.19691e-20)
(-5.15197 0.0603876 1.18035e-20)
(-5.12573 0.0436224 1.08076e-21)
(-5.09355 0.0165287 0)