/*--------------------------------*- C++ -*----------------------------------*\
| =========                 |                                                 |
| \\      /  F ield         | OpenFOAM: The Open Source CFD Toolbox           |
|  \\    /   O peration     | Version:  2112                                  |
|   \\  /    A nd           | Website:  www.openfoam.com                      |
|    \\/     M anipulation  |                                                 |
\*---------------------------------------------------------------------------*/
FoamFile
{
    version     2.0;
    format      ascii;
    arch        "LSB;label=32;scalar=64";
    class       volScalarField;
    location    "0.22";
    object      ddt0(kU);
}
// * * * * * * * * * * * * * * * * * * * * * * * * * * * * * * * * * * * * * //

dimensions      [0 2 -3 0 0 0 0];

internalField   nonuniform List<scalar> 
12225
(
-0.000427329
-0.0113322
-0.054027
-0.151444
-0.496437
-1.02399
-1.7797
-2.82895
-4.25215
-6.13586
-8.56599
-11.6249
-15.3824
-19.8802
-25.0856
-30.8735
-36.9055
-42.631
0.00807627
0.0353274
0.0841904
0.159514
0.258552
0.388594
0.563846
0.804422
1.13302
1.5671
2.13202
2.8413
3.69613
4.67598
5.72569
6.73866
7.54188
7.86254
-0.000869522
0.00265697
0.010752
0.0232482
0.0242784
0.0358696
0.0687326
0.13809
0.263851
0.470454
0.7879
1.25204
1.90487
2.79241
3.95762
5.42665
7.17407
9.09896
-1.65306e-05
-0.000530931
7.5535e-05
0.00264976
0.00770178
0.0135356
0.018795
0.022183
0.00123649
-0.0244171
-0.0501067
-0.0623905
-0.0366768
0.0642099
0.290517
0.702862
1.36119
2.30661
0.000214598
-0.000985588
-0.00280509
-0.00446466
-0.00565387
-0.00624145
-0.00612536
-0.00533477
-0.00493879
-0.00596338
-0.0102857
-0.0198335
-0.0353892
-0.054914
-0.0704485
-0.0657589
-0.0108674
0.1294
0.000395038
-0.00038101
-0.0016901
-0.00295294
-0.00410633
-0.00503598
-0.00538616
-0.00475035
-0.00283093
0.000463826
0.00481029
0.00919952
0.0116851
0.00942862
-0.00067363
-0.019987
-0.0458525
-0.0670719
0.000552514
0.000162519
-0.00081515
-0.00191808
-0.00306276
-0.00412889
-0.00473307
-0.00432994
-0.00229033
0.00211982
0.00972524
0.0213064
0.0373022
0.0573668
0.0796579
0.100382
0.10275
0.0975595
0.000673307
0.000593294
-7.48544e-05
-0.00091353
-0.00176045
-0.00248539
-0.0027661
-0.00212935
-4.83792e-06
0.00432125
0.0117609
0.0234232
0.0405639
0.0645049
0.0964651
0.13723
0.156212
0.175542
0.000766428
0.000950787
0.000597548
5.75861e-05
-0.000468271
-0.000841701
-0.00078018
0.000148159
0.00247222
0.00683702
0.0140499
0.0251012
0.0411747
0.0636622
0.0942401
0.134728
0.157239
0.18323
0.000839188
0.00124262
0.00117979
0.000920519
0.00067897
0.000612094
0.000982259
0.00218817
0.00472172
0.00916957
0.0162476
0.0268235
0.0419283
0.062791
0.0908586
0.127829
0.150756
0.178393
0.000895253
0.00147148
0.00166063
0.00165924
0.00167806
0.00188963
0.00253857
0.00398554
0.00668083
0.0111572
0.0180521
0.0281273
0.042278
0.0615622
0.0871884
0.120576
0.152833
0.180535
0.000934537
0.00163533
0.00202168
0.00223467
0.00247048
0.00290837
0.00377879
0.00540888
0.00820953
0.0126645
0.0193436
0.0289181
0.0421703
0.0600021
0.0834366
0.113613
0.151521
0.171305
0.000961684
0.00175452
0.00230105
0.0027018
0.0031321
0.00377103
0.00483733
0.00662809
0.00951475
0.0139327
0.0203873
0.0294644
0.0418368
0.0582584
0.0795866
0.106638
0.140403
0.159639
0.000977918
0.0018416
0.00252795
0.00310714
0.00372866
0.00456439
0.00582011
0.00776158
0.0107162
0.0150655
0.0212459
0.029755
0.041153
0.056053
0.0751228
0.0989907
0.128319
0.162064
0.000975685
0.00188172
0.00267646
0.00341251
0.00421451
0.00524095
0.00668152
0.00877008
0.0117874
0.0160566
0.0219415
0.0298482
0.0402224
0.0535381
0.0702838
0.0908914
0.115908
0.144945
0.000942711
0.00185178
0.00271212
0.00357182
0.00453604
0.00574621
0.00737246
0.00961604
0.0127097
0.0169153
0.0225214
0.0298419
0.0392117
0.0509742
0.0654688
0.0829778
0.103836
0.127772
0.000862033
0.00172192
0.00259583
0.00353803
0.00464075
0.00602679
0.0078427
0.010255
0.0134477
0.0176206
0.0229869
0.0297715
0.0382063
0.04852
0.0609314
0.0756045
0.0927489
0.112154
0.000714782
0.00146345
0.00230018
0.00329304
0.0045259
0.0061025
0.00814265
0.0107745
0.0141294
0.0183404
0.0235431
0.029875
0.0374744
0.0464729
0.0569944
0.0691215
0.0829814
0.0984093
0.000484722
0.00105025
0.00179783
0.00281482
0.00417874
0.00597205
0.00828026
0.0111829
0.0147508
0.01905
0.0241455
0.0301006
0.0369761
0.0448265
0.0537009
0.0636214
0.0746465
0.0866513
0.000250857
0.000634949
0.00130362
0.00235917
0.00386559
0.00588027
0.00845401
0.0116197
0.015394
0.0197894
0.0248204
0.0305041
0.0368569
0.0438902
0.0516135
0.0600187
0.0691246
0.0788381
7.84909e-05
0.000345756
0.000998338
0.00214187
0.00381247
0.00603249
0.00882252
0.0121922
0.0161375
0.0206427
0.0256845
0.0312364
0.0372764
0.0437874
0.0507599
0.0581823
0.0660752
0.0743779
-5.09315e-05
0.00016291
0.000866005
0.0021398
0.00399817
0.00645616
0.0095158
0.0131502
0.0173164
0.0219699
0.0270677
0.0325694
0.0384406
0.0446552
0.0511969
0.0580448
0.0651886
0.072569
-0.000134817
8.43696e-05
0.000898018
0.00233922
0.0043816
0.00702279
0.0102519
0.0140297
0.0183027
0.023013
0.0280998
0.0335031
0.0391717
0.0450673
0.0511652
0.0574451
0.0639082
0.0705186
-0.000180114
9.96123e-05
0.00107198
0.00274962
0.00512498
0.00818464
0.0118531
0.0160229
0.0206078
0.0255487
0.0307938
0.0362903
0.0419873
0.0478409
0.0538189
0.059895
0.0660579
0.0722744
-0.000177991
0.000234692
0.00132695
0.00297735
0.00519242
0.00803251
0.01149
0.0154975
0.0199688
0.0248077
0.0299133
0.0351922
0.0405702
0.0459954
0.051438
0.0568791
0.0623192
0.0677354
-0.000135048
0.000585256
0.00225893
0.00472019
0.00785904
0.0115062
0.0154216
0.0194146
0.0233957
0.0273018
0.0310907
0.0346969
0.0380443
0.0410563
0.0436656
0.0458102
0.0474372
0.0487355
-9.7995e-05
0.000346599
0.00106422
0.00187907
0.00260519
0.00281334
0.00234089
0.00107385
-0.000700835
-0.00416116
-0.00726758
-0.00963885
-0.0109843
-0.0111082
-0.00991174
-0.00739075
-0.00330128
0.0173966
0.00052968
-8.65497e-05
-0.00279068
-0.00756775
-0.0136775
-0.0200222
-0.0125556
-0.00454094
0.00179665
0.00416414
0.000248202
-0.0122
-0.0352956
-0.0709199
-0.120627
-0.185547
-0.266528
-0.363845
-0.00393109
-0.0181181
-0.0430089
-0.076205
-0.114998
-0.160135
-0.213994
-0.278023
-0.353124
-0.440784
-0.543372
-0.663341
-0.802458
-0.961359
-1.13937
-1.33443
-1.54542
-1.76912
4.86066e-05
0.00411777
0.0238047
0.0728627
0.204815
0.393252
0.644184
0.963819
1.35643
1.82603
2.37799
3.01882
3.75449
4.58865
5.52139
6.54896
7.66378
8.85678
12.4817
-39.1478
-33.0198
-4.32061
7.38544
11.1478
12.4184
12.2544
11.9325
18.5788
28.0406
42.6449
67.8155
94.9771
103.471
72.8382
21.9269
-15.4959
-23.9667
7.93636
62.5631
28.6135
-35.7839
-171.872
-362.864
-289.468
-269.336
-230.26
-177.602
-118.977
-59.8713
-3.21617
49.5864
97.6126
116.566
129.99
138.233
142.665
145.103
146.43
146.428
131.234
117.406
105.462
95.174
86.4191
79.1191
73.189
68.5004
64.8814
62.129
60.0196
58.3318
56.8534
55.3974
53.7988
51.9164
49.6287
46.8196
43.3611
39.0924
33.792
27.1326
18.6081
7.47958
-7.5211
-30.6924
-66.4361
-86.2389
-100.647
-103.801
-101.809
-103.952
-105.705
-106.602
-106.669
-106.073
-105.028
-103.784
-102.628
-101.895
-101.914
-102.867
-104.724
-107.844
-103.295
-78.6084
-35.3032
30.7984
111.341
177.985
192.959
144.015
64.8358
3.77878
-18.6952
-12.2072
2.87343
10.796
7.55912
-5.45284
-25.6015
-49.0414
-71.8449
-90.9762
-98.8292
-81.6085
-38.0326
11.1288
34.1716
-142.221
-633.874
-1103.85
-767.093
-570.303
-355.52
-151.897
-64.9256
-7.53758
47.2664
47.9033
49.9678
51.5961
50.5936
46.3002
37.4349
22.3462
-5.30748
-47.6366
-185.831
-235.898
-239.99
-269.901
-301.003
-331.995
-363.75
-397.992
-437.171
-484.376
-543.865
-621.208
-722.545
-870.46
-1072.83
-1060.98
-1015.65
-765.348
-497.939
-482.857
13.8562
1556.49
2140.19
1652.38
987.573
515.091
244.662
100.094
-4.62753
-67.8615
-89.8721
-94.8991
-96.5204
-99.7685
-104.318
-111.461
-117.044
-117.484
-111.001
-101.708
-89.4637
-75.2821
-60.5318
-46.8317
-35.5831
-27.5558
-23.1307
-22.3845
-26.6207
-35.5353
-51.5131
-82.6539
-31.7385
7.86127
17.2779
18.7096
18.759
18.3595
17.5094
16.6192
11.5508
8.47323
10.3413
19.6786
35.2138
51.2099
58.4909
35.3847
-21.9169
-118.207
-281.319
-213.403
-96.743
-68.0463
-58.3766
-48.7812
-13.3757
22.2885
58.1486
90.5253
116.311
133.772
142.505
142.765
135.244
120.825
102.098
80.8486
58.8669
37.1384
15.9987
-4.82731
-6.66767
-8.25366
-9.77428
-11.2906
-12.8792
-14.5677
-16.3548
-18.2072
-20.0626
-21.8294
-23.7329
-25.5236
-27.1777
-28.7106
-30.0394
-31.0995
-31.8529
-32.2426
-32.2117
-31.7159
-30.7435
-29.3421
-27.6304
-25.7278
-23.9724
-22.9248
-22.6173
-22.9614
-23.5732
-24.4257
-24.8501
-25.5565
-26.6645
-27.7633
-28.8079
-29.7661
-30.6171
-31.3466
-31.9561
-32.4701
-32.9426
-33.448
-34.0839
-35.181
-38.6827
-62.1057
-87.5885
-98.2436
-86.6499
-58.7755
-31.3259
-17.375
-16.8305
-20.5099
-17.7407
0.839536
41.4542
103.236
171.248
214.91
210.154
161.605
101.845
49.4846
14.2012
-13.1824
-70.0661
-249.584
-575.64
-724.861
-339.969
-82.6166
78.1438
152.685
172.948
144.667
81.054
6.2855
-74.7708
-90.4707
-102.145
-109.853
-112.253
-108.293
-107.203
-106.087
-102.755
-97.4838
-97.1232
-93.8781
-90.0005
-88.6223
-85.8071
-82.4197
-79.089
-75.909
-72.8144
-69.872
-67.4383
-66.4634
-68.0881
-75.9195
-129.063
-530.235
-881.339
-1084.07
-1172.21
-1229.41
-1125.2
-787.103
-196.627
664.288
1204.85
1111.07
696.261
325.581
106.107
7.33127
-29.2826
-40.4874
-40.5446
-34.2058
-26.2021
-17.943
-10.8585
-6.10912
-2.98934
-0.538779
1.53286
3.36884
4.99645
6.58427
8.57075
11.562
16.2162
22.2475
27.335
30.8989
32.3851
-152.619
11.4592
32.2077
25.6591
18.4776
14.1158
11.5409
9.01542
10.2913
6.69941
2.37139
-0.744015
1.09091
9.74295
4.07994
-69.3987
-210.704
-267.358
-59.0738
-32.5427
-28.9558
-5.23771
10.7824
24.0291
38.7543
56.2475
71.2477
82.0421
86.8934
85.1836
77.67
66.1765
52.9446
40.0314
28.9123
20.379
14.5019
10.8402
8.693
6.96601
6.63103
5.82039
4.47237
2.59377
0.218205
-2.58938
-5.74174
-9.13488
-12.6542
-16.1796
-19.5887
-22.757
-25.5549
-27.8459
-30.4603
-32.8942
-35.1539
-37.2285
-39.074
-40.594
-41.6269
-41.9502
-41.2877
-39.7628
-36.4648
-31.7865
-26.8524
-23.0992
-20.9993
-19.9891
-19.9465
-20.712
-22.1
-23.7644
-25.572
-27.8144
-30.2165
-32.6759
-35.1409
-37.587
-40
-42.362
-44.6475
-46.811
-48.8046
-50.716
-52.4479
-53.7622
-56.0227
-56.0185
-49.6363
-36.902
-22.5362
-11.8493
-8.186
-11.9564
-19.3944
-22.468
-13.4232
9.82832
47.7811
103.854
160.798
158.769
86.1527
9.01596
-59.1736
-221.555
-544.586
-647.179
-168.89
107.515
174.506
184.161
146.435
82.3808
16.0164
-34.4426
-65.8965
-82.7056
-95.0077
-103.136
-106.656
-105.643
-99.3334
-95.4216
-90.584
-83.6664
-76.0944
-76.6137
-75.5794
-73.3509
-70.5288
-66.0825
-58.6979
-49.4202
-40.2853
-30.2448
-19.2378
-7.57277
4.09775
14.6007
22.1442
23.0988
6.89665
-126.898
-349.68
-576.811
-746.958
-859.579
-959.541
-1004.29
-789.479
-193.085
525.484
880.873
734.638
415.977
185.9
70.5595
18.2338
-6.30643
-12.8447
-4.68948
4.48782
11.674
13.2952
10.4032
7.49893
5.86918
5.71175
6.84883
9.09636
12.3462
16.6633
21.8814
27.3826
32.3133
35.8342
37.5425
-25.2669
50.3245
30.4001
15.8831
8.25818
4.78918
5.86351
2.19757
-1.13353
-4.39136
-6.72449
-10.7781
-28.8994
-97.3457
-174.84
-234.198
-144.646
-18.583
21.5306
22.0542
23.4846
29.7755
35.3357
40.9833
46.754
51.2433
52.3891
49.575
43.2613
34.9104
26.3409
19.0498
13.8501
10.8596
9.7013
9.75034
10.3277
10.8302
10.8122
10.8185
10.0319
8.50347
6.337
3.66928
0.645389
-2.58803
-5.89367
-9.15126
-12.2627
-15.1553
-17.7835
-20.1295
-22.2021
-24.0332
-25.6755
-27.2
-28.7018
-30.2992
-32.125
-34.2998
-36.8639
-39.6007
-41.3311
-44.6583
-45.926
-44.4212
-39.848
-34.2743
-29.2694
-25.1408
-22.0773
-20.172
-19.4163
-19.6848
-20.8239
-22.7328
-25.2716
-28.3212
-31.7682
-35.5398
-39.5617
-43.741
-47.9546
-52.0584
-55.9078
-59.3456
-62.2293
-64.4047
-65.6225
-65.3659
-62.9552
-57.689
-49.4305
-39.1806
-28.3625
-18.7393
-11.3621
-6.28769
-2.54242
0.958777
6.90565
23.4754
57.9759
92.8642
79.1439
-17.5611
-160.768
-445.344
-606.938
-180.183
167.508
209.6
190.503
146.141
84.6704
29.5059
-9.33811
-35.2506
-53.1026
-65.5111
-73.5634
-78.0235
-79.6093
-78.6484
-74.6582
-66.019
-57.5074
-47.6788
-37.3422
-35.0458
-38.0343
-39.8314
-42.333
-44.809
-46.3849
-46.1764
-43.4255
-37.6352
-28.6507
-16.6776
-2.23066
13.8454
30.4169
46.3144
58.9925
60.0896
1.10125
-124.664
-285.676
-444.754
-605.597
-776.481
-894.943
-822.341
-438.883
165.225
603.586
631.815
432.548
242.037
125.63
61.3943
25.3832
32.7037
44.4463
51.3946
52.2426
44.7924
35.525
27.6038
22.2887
19.5606
18.8804
19.6812
21.5114
23.9675
26.5712
28.744
29.8896
29.6137
102.027
51.34
12.5443
3.78452
-3.68362
-5.27138
10.8591
-19.5166
-18.4586
-23.1347
-38.5664
-69.6431
-121.767
-182.819
-191.226
-107.052
-4.96143
35.9306
37.4905
32.2284
30.0975
30.3514
31.1164
31.5656
30.5765
27.2892
21.7844
15.1642
8.84011
3.96802
1.114
0.232124
0.843251
2.26764
3.81741
4.91783
5.16469
4.33196
3.29907
1.26579
-1.23173
-3.95595
-6.68261
-9.20849
-11.37
-13.0585
-14.2286
-14.895
-15.1212
-15.0058
-14.6697
-14.2461
-13.8699
-13.6564
-13.6741
-13.9158
-14.288
-14.6245
-14.7744
-14.7581
-14.9436
-16.0201
-18.5908
-23.5466
-29.7265
-36.0656
-37.9652
-38.6594
-36.361
-32.8255
-29.5152
-26.2711
-23.5977
-21.7757
-20.9047
-21.0117
-22.201
-24.4098
-27.4601
-31.2817
-35.7807
-40.7914
-46.0699
-51.3156
-56.2141
-60.493
-63.9896
-66.6496
-68.4684
-69.487
-69.7936
-69.5823
-68.9951
-67.7743
-64.7208
-57.2908
-44.0022
-26.5533
-8.27714
5.88624
12.7445
15.7381
24.6472
37.3614
17.5047
-92.9062
-343.461
-543.746
-309.386
197.267
244.223
202.945
157.473
102.014
53.9635
20.2706
-4.36124
-23.0932
-36.708
-46.1852
-50.3858
-51.8767
-51.7793
-50.7195
-48.4981
-44.0351
-35.7887
-22.9377
-8.01572
1.12125
-1.68926
-5.00327
-11.0422
-19.0363
-27.8374
-36.0273
-42.112
-44.8206
-43.3825
-37.6635
-28.1006
-15.4809
-0.706079
15.4383
32.2532
48.6777
59.2225
34.1974
-39.2836
-154.555
-298.338
-460.946
-624.156
-738.211
-701.073
-410.781
63.4416
441.373
532.698
424.674
282.241
184.871
129.841
107.646
109.51
108.96
101.985
89.6767
74.5449
59.5916
47.5489
38.9859
33.3883
29.8905
27.7138
26.2922
25.2054
24.0475
22.4369
19.9107
139.655
20.9019
-1.60584
0.0404395
-9.92114
-10.8185
-11.7715
-17.7207
-32.4748
-53.7506
-84.7876
-123
-152.684
-142.862
-80.5476
-8.96031
28.7504
34.4933
29.2989
24.5873
22.1533
20.5373
18.2401
14.5131
9.35659
3.51432
-1.89546
-5.89762
-8.02802
-8.38828
-7.50817
-6.12491
-4.97614
-4.656
-5.53823
-7.75478
-11.2118
-14.7311
-19.1994
-23.6315
-27.7679
-31.3517
-34.1239
-35.8415
-36.3193
-35.4778
-33.3705
-30.1751
-26.1574
-21.6355
-16.9531
-12.4594
-8.50578
-5.43506
-3.553
-3.07682
-4.04454
-6.14608
-8.61581
-10.3042
-10.1146
-7.57511
-3.09541
1.28246
2.52076
0.666187
-5.39991
-13.1673
-20.1742
-25.0078
-27.3251
-27.6345
-26.7772
-25.4907
-24.2646
-23.4174
-23.2183
-23.9306
-25.7463
-28.7125
-32.7491
-37.6551
-43.1121
-48.7106
-54.0045
-58.5766
-62.1141
-64.4893
-65.8361
-66.5929
-67.437
-69.1181
-72.2218
-76.9606
-82.9416
-88.3783
-88.217
-75.5719
-52.2942
-23.7131
0.775303
13.3905
13.4716
-0.654827
-55.6595
-215.203
-465.605
-464.412
115.553
312.932
233.541
173.422
121.091
75.9522
44.9398
20.8112
0.78553
-14.8598
-25.7648
-32.9603
-35.1863
-35.525
-35.2417
-35.0933
-34.8519
-33.0327
-26.9699
-13.9913
4.31184
19.0999
19.9233
17.9788
12.6077
4.3904
-5.76334
-16.4831
-26.1237
-33.134
-36.4413
-35.6918
-31.2207
-23.7629
-14.0285
-2.29252
11.8423
28.9325
47.9071
61.9097
46.8461
-7.85702
-103.859
-232.693
-375.871
-506.967
-582.998
-527.195
-278.588
92.9406
394.748
500.044
450.999
358.762
295.569
237.281
206.036
182.721
159.968
136.367
112.819
90.9981
72.3262
57.4024
45.9987
37.4219
30.9108
25.8444
21.7417
18.181
14.6943
10.9138
161.415
-11.9764
-0.866623
-3.80171
-10.7402
-16.1179
-28.2079
-32.019
-52.5796
-78.2464
-102.999
-114.806
-100.562
-60.7028
-15.3373
14.0636
23.5443
21.951
18.0897
15.1183
12.5175
9.13799
4.64227
-0.439997
-5.18867
-8.75564
-10.6883
-11.0492
-10.3416
-9.31394
-8.73894
-9.22925
-11.1173
-14.4023
-18.7788
-23.728
-28.6232
-33.9233
-38.9369
-43.5627
-47.7015
-51.216
-53.906
-55.506
-55.7301
-54.3592
-51.3214
-46.7026
-40.6982
-33.5958
-25.8029
-17.8097
-10.1364
-3.31298
2.11671
5.57022
6.39327
4.13259
-1.08349
-8.20282
-15.3404
-20.0859
-19.5913
-12.0363
0.960284
13.5724
19.3997
18.5837
12.5955
4.18067
-4.15332
-10.9408
-15.777
-18.9139
-20.8348
-22.0154
-22.8764
-23.8234
-25.2648
-27.5737
-30.9714
-35.4066
-40.6001
-46.1252
-51.4669
-56.0814
-59.4849
-61.3905
-61.8715
-61.4747
-61.1692
-62.0865
-65.1849
-71.1043
-80.2708
-92.7494
-106.615
-113.48
-102.321
-76.1016
-40.6609
-9.49445
1.45106
-23.1461
-105.426
-313.864
-558.436
-256.809
416.004
322.208
202.852
141.612
95.2601
65.4034
42.1936
21.2699
3.51064
-10.1537
-19.3783
-25.2588
-26.696
-26.7929
-27.0241
-28.4571
-31.1209
-33.5304
-32.1943
-22.0103
-1.62185
18.7097
24.5345
24.19
19.6855
11.822
1.37981
-10.407
-21.8569
-31.2321
-37.263
-39.5357
-38.5128
-35.1661
-30.4122
-24.6143
-17.2154
-6.31694
10.837
35.3359
58.1504
52.2598
5.31364
-82.8218
-198.668
-316.481
-405.913
-430.631
-341.342
-114.808
183.894
425.346
528.939
517.551
460.947
394.124
324.642
266.805
219.661
180.025
145.74
116.043
90.9262
70.3899
54.1043
41.4409
31.6691
24.1213
18.2268
13.455
9.23306
5.01945
165.23
-22.3284
1.72219
-2.00163
-12.0013
-23.3252
-22.0094
-36.4936
-55.3275
-71.891
-78.4863
-69.6424
-47.189
-20.4593
0.425908
11.1148
13.5634
12.2142
10.0827
7.67164
4.55677
0.80898
-2.88597
-5.72094
-7.17694
-7.18864
-6.13149
-4.68257
-3.60825
-3.54759
-4.85288
-7.51362
-11.1775
-15.2862
-19.2494
-22.548
-26.3438
-29.6046
-32.4037
-34.77
-36.7538
-38.3966
-39.7068
-40.6401
-41.1206
-41.1096
-40.6487
-39.7248
-38.0196
-34.947
-30.1946
-23.9594
-16.7176
-8.99579
-1.29302
5.79755
11.1407
13.0457
9.95191
1.77323
-9.58401
-22.3304
-33.6166
-39.0373
-31.7964
-15.1362
5.07548
20.9888
28.342
27.4836
21.2851
12.8662
4.44987
-2.81767
-8.59585
-13.0037
-16.3769
-19.1476
-21.7899
-24.7624
-28.4178
-32.9008
-38.1079
-43.7111
-49.2054
-53.9708
-57.377
-58.9612
-58.6661
-57.031
-55.1571
-54.3527
-55.6448
-59.5821
-66.6617
-78.0872
-95.4878
-117.49
-128.895
-122.603
-96.2719
-56.4027
-25.272
-41.6967
-142.648
-393.771
-574.025
-1.61181
579.136
290.522
171.419
114.905
82.8554
61.7093
41.0871
22.0055
5.82513
-6.66223
-15.1203
-20.3971
-21.6534
-21.6422
-22.1555
-24.757
-29.9458
-36.6914
-41.5353
-37.3278
-17.891
7.71432
19.4939
21.2727
17.4765
9.7537
-0.774512
-12.7426
-24.3086
-33.568
-39.2287
-41.0896
-40.0114
-37.4112
-34.6222
-32.4508
-30.9979
-29.4939
-25.514
-14.6311
10.0564
37.1191
38.8673
-0.2118
-79.2365
-178.386
-265.128
-308.399
-283.158
-165.92
42.3802
285.378
475.998
564.227
561.354
507.682
424.433
340.642
270.868
215.385
170.767
134.09
103.738
78.9129
59.0453
43.5076
31.5917
22.5735
15.7572
10.4637
5.98099
1.60814
158.723
-19.2507
7.24006
4.53976
-1.57253
-4.06382
-13.0192
-25.9589
-39.5245
-48.226
-47.9893
-38.7481
-24.4434
-10.3417
-0.154358
5.09261
6.58482
6.1605
4.82454
2.82171
0.508476
-1.4343
-2.35333
-1.94231
-0.335266
1.96893
4.27752
5.91564
6.41574
5.62705
3.72591
1.13311
-1.64126
-4.1035
-5.79807
-6.65036
-7.88419
-8.61979
-8.82716
-8.49618
-7.62472
-6.2247
-4.29405
-1.81548
1.11173
3.91652
5.19277
3.16934
-2.62871
-10.0778
-16.26
-19.6578
-20.2641
-18.4948
-14.5636
-8.43325
-0.304524
8.51921
14.5251
12.5274
2.78384
-12.3301
-29.2808
-45.858
-57.0502
-55.1776
-37.5998
-11.4951
12.0436
26.3114
30.7939
28.262
21.934
14.2478
6.6889
-0.0189044
-5.68414
-10.4636
-14.7229
-18.9162
-23.4632
-28.6272
-34.429
-40.6201
-46.7137
-52.0521
-55.915
-57.7009
-57.1994
-54.8496
-51.7574
-49.2862
-48.3714
-49.1682
-51.7416
-57.6736
-70.928
-95.5653
-126.1
-143.558
-141.83
-112.697
-68.1462
-64.8852
-170.753
-444.821
-521.255
227.053
630.238
259.559
143.323
98.5129
79.2395
61.1089
42.1524
24.7204
9.68519
-2.21971
-10.6257
-15.9364
-17.6168
-17.559
-17.9385
-20.9885
-27.7467
-37.7806
-48.5327
-52.2918
-37.7004
-8.34429
10.1972
15.991
14.1267
7.40336
-2.32449
-13.3821
-23.7561
-31.4303
-35.1534
-34.9766
-32.14
-28.3886
-25.2211
-23.5368
-23.6836
-25.6689
-29.1023
-31.8741
-28.4489
-7.52251
14.3691
16.6146
-17.4209
-85.3088
-162.311
-213.018
-212.017
-148.656
-18.698
163.769
351.855
487.752
541.852
521.597
458.971
377.178
300.102
236.573
185.767
144.741
111.141
83.6598
61.5811
44.3038
31.1464
21.3398
14.066
8.59854
4.0882
-0.324366
146.993
-12.9533
20.4205
17.0021
12.9835
12.6037
2.79382
-10.1921
-23.1602
-31.6159
-32.9522
-27.8008
-19.1382
-10.3409
-3.69814
0.152536
1.81231
2.09552
1.51967
0.59274
0.0021106
0.373701
1.97485
4.61895
7.76913
10.7471
12.9599
14.0776
14.1137
13.3876
12.3799
11.5205
10.9799
10.5286
9.76039
8.84666
8.70415
8.8789
9.4972
10.6551
12.4092
14.8114
18.0157
22.4988
29.1985
38.9947
50.6757
58.7759
55.7329
40.6494
20.6768
3.4487
-8.94538
-16.6821
-20.1847
-19.9273
-16.238
-9.02002
0.716031
10.2084
12.6836
3.43407
-14.3691
-35.0189
-55.875
-72.0611
-73.6577
-55.9171
-26.8886
0.389644
18.3905
26.529
27.4145
23.9173
18.2042
11.7176
5.31562
-0.627724
-6.12561
-11.4496
-16.9729
-23.0064
-29.6566
-36.7432
-43.7965
-50.1235
-54.9216
-57.4552
-57.3313
-54.8081
-50.891
-46.9192
-43.6753
-40.8381
-38.0244
-37.2023
-43.8492
-64.9421
-103.633
-141.057
-166.521
-161.773
-119.184
-96.1602
-193.248
-464.959
-428.861
393.611
618.378
245.239
128.068
92.674
80.0329
62.974
45.6738
29.5518
15.2649
3.47724
-5.39555
-11.33
-13.7972
-13.7323
-13.5656
-16.3565
-23.7555
-35.6616
-50.677
-62.3896
-55.8142
-26.0762
-1.59116
10.0347
11.6687
6.90526
-1.51265
-11.4581
-20.6494
-26.8443
-28.7173
-26.5072
-21.8143
-16.6841
-12.6874
-10.5974
-10.655
-12.9193
-17.5654
-24.5215
-31.9687
-29.1697
-15.7975
-1.45538
-3.73912
-35.909
-91.4081
-142.408
-156.95
-121.169
-37.8282
85.3074
229.13
358.097
437.595
455.153
420.359
365.624
301.109
241.221
190.579
148.793
114.232
85.6964
62.5733
44.4053
30.5538
20.3164
12.9691
7.52534
3.02209
-1.48621
128.491
-2.64456
37.6864
46.0652
40.9857
31.6397
17.6402
0.407727
-16.0425
-27.0062
-30.2668
-26.9945
-20.357
-13.4364
-7.95625
-4.25161
-2.05715
-1.0799
-0.896003
-0.779965
0.0615081
2.08857
5.22372
8.93846
12.5152
15.3299
17.0513
17.7109
17.6328
17.26
16.9527
16.8562
16.9088
17.0861
17.5759
15.0882
14.3742
13.877
13.6987
13.9039
14.5008
15.3675
16.3249
17.5105
20.1675
27.777
45.2759
73.1386
96.8242
96.7976
72.399
43.3558
18.03
-0.583259
-11.7037
-15.8692
-14.1886
-10.1015
-4.92725
2.48787
11.501
14.9843
5.48135
-14.964
-39.3632
-63.6946
-82.0456
-83.7728
-65.1095
-35.7342
-8.61419
9.84984
19.5949
22.8744
21.8844
18.267
13.2237
7.57967
1.76589
-4.15545
-10.3736
-17.1484
-24.6184
-32.6548
-40.8028
-48.3256
-54.3252
-57.9242
-58.5351
-56.1876
-51.7036
-46.3324
-40.6858
-34.0008
-25.6625
-18.4339
-19.0868
-35.3866
-73.2211
-123.108
-170.653
-193.43
-166.54
-132.781
-212.671
-459.614
-326.023
491.258
585.803
236.77
119.239
98.7766
82.7756
66.5329
50.2376
34.641
20.5066
8.47246
-1.04459
-7.75736
-10.8544
-10.6358
-9.46243
-11.2226
-18.4785
-31.1438
-48.3356
-66.3478
-69.1516
-42.2517
-15.1003
2.96618
9.20278
7.05019
0.0618587
-9.03081
-17.4895
-22.6573
-23.006
-18.9406
-12.4828
-6.04263
-1.2766
1.20178
1.35247
-0.82038
-5.43929
-12.8907
-23.1983
-30.7009
-29.8509
-21.2144
-13.3893
-20.7386
-50.6376
-91.2586
-114.904
-99.1783
-43.5881
40.1665
139.948
239.323
316.575
355.538
354.603
324.054
281.375
233.163
187.809
148.216
114.46
86.0261
62.6373
44.0003
29.8541
19.5761
12.209
6.78323
2.28931
-2.3019
103.108
11.1265
57.0278
70.6665
63.0902
48.944
28.0862
4.33928
-16.604
-29.6942
-33.5799
-30.6304
-24.5945
-18.2671
-12.8107
-8.53229
-5.67437
-4.30169
-3.87603
-3.3574
-1.79014
1.17997
5.20344
9.49644
13.2412
15.9048
17.3829
17.9524
18.0761
18.1345
18.2738
18.3455
17.9781
16.8257
14.6776
12.8679
11.1611
9.55625
8.10484
6.8734
5.87347
4.88116
3.33113
0.554131
-3.79115
-8.14583
-6.13866
16.3149
63.2318
106.714
111.603
92.4631
60.8416
31.2863
9.27214
-3.52045
-5.97002
-0.176577
7.85905
13.8754
18.8506
23.6998
22.8656
9.60232
-14.4245
-42.4963
-68.9712
-85.9702
-84.3421
-64.4165
-37.1202
-13.0475
3.69833
13.5242
18.0376
18.6566
16.5123
12.5527
7.49295
1.72297
-4.68829
-11.8659
-19.9271
-28.776
-37.9714
-46.7223
-54.011
-58.8021
-60.3173
-58.3565
-53.5187
-46.9147
-38.9925
-28.6183
-15.175
-2.64257
0.917367
-11.6686
-45.7799
-99.424
-159.66
-204.746
-200.048
-167.747
-229.604
-438.064
-234.772
531.002
552.218
234.608
120.377
104.045
90.1274
70.2841
53.7622
37.7501
23.1875
10.7057
0.720513
-6.45097
-9.67903
-9.06166
-6.53352
-6.49492
-12.7706
-25.5291
-43.3284
-64.9394
-73.6566
-57.5129
-29.1283
-5.41598
5.84977
6.73271
1.24668
-7.22311
-15.3147
-19.7752
-18.7613
-12.8505
-4.5791
3.18941
8.69682
11.506
11.7807
9.5895
4.8115
-2.80656
-13.797
-25.7744
-32.9036
-32.6559
-26.8608
-23.9188
-34.2924
-58.8441
-81.9473
-80.6986
-45.6599
13.4958
83.2716
154.695
218.753
264.656
284.757
278.895
253.993
219.563
181.265
145.187
113.098
85.2731
61.7815
43.1232
29.0245
18.7667
11.4687
6.14035
1.71498
-2.91391
78.3131
24.4183
68.8841
86.376
83.2188
64.5175
36.3411
5.62943
-19.9367
-35.0848
-39.5149
-36.756
-30.9021
-24.3729
-18.0877
-12.7551
-9.25391
-7.90701
-7.92451
-7.81081
-6.28956
-2.94739
1.71068
6.67317
10.9551
13.9769
15.6831
16.4694
16.961
17.4152
18.0909
18.8033
18.5009
15.9256
10.4468
8.04567
5.84559
3.57499
1.2374
-1.01589
-3.00384
-4.86051
-7.41002
-11.7473
-18.5762
-28.1879
-40.8722
-46.2272
-24.9824
28.3409
85.2974
109.734
98.3514
71.4743
43.8987
20.359
5.35277
4.61008
16.2727
30.1272
38.7943
42.4049
41.8664
33.4971
13.752
-14.7517
-45.5655
-71.2173
-83.08
-76.4943
-56.51
-33.1686
-13.3757
0.832677
9.84649
14.5258
15.6787
14.1006
10.5474
5.58978
-0.48846
-7.65582
-15.9717
-25.3602
-35.4088
-45.2875
-53.8458
-59.8596
-62.3526
-60.9225
-55.961
-48.425
-38.6228
-25.1172
-7.39605
9.07372
14.9086
4.37226
-25.4436
-76.9629
-140.416
-198.251
-214.404
-193.425
-242.634
-409.095
-167.575
527.014
522.054
240.08
127.721
109.649
94.001
76.5066
55.0162
37.9028
22.7071
9.87646
-0.416851
-7.57257
-10.4863
-9.26211
-5.29864
-3.08222
-7.51186
-19.6837
-37.9065
-58.5843
-73.8783
-68.1132
-42.1027
-14.6504
1.3752
5.50506
1.64131
-6.29478
-14.2332
-18.1686
-15.8307
-7.97326
2.24795
11.4125
17.658
20.782
21.1425
18.8433
13.7437
5.7434
-5.546
-22.5052
-31.9029
-37.752
-37.1143
-32.9913
-32.9716
-42.9894
-58.4899
-63.6293
-44.4944
-3.2331
47.7184
100.229
151.624
197.308
228.966
239.823
229.592
204.322
172.962
140.522
110.105
83.0445
60.208
41.8313
27.8621
17.7612
10.6577
5.52043
1.23201
-3.37466
-117.403
28.8257
69.404
96.5756
100.185
80.5241
47.0359
9.82721
-21.1126
-39.7022
-46.0282
-44.2594
-38.6759
-31.5459
-23.8833
-17.0073
-12.5204
-11.104
-11.8963
-12.9904
-12.5644
-9.77611
-4.95062
0.827682
6.31614
10.6282
13.484
15.1642
16.0196
15.6251
15.1124
14.8907
13.5195
9.09044
4.89734
3.85042
2.14734
-0.212715
-2.95518
-5.71236
-8.0013
-9.59557
-11.2629
-14.845
-21.6234
-31.3131
-44.3191
-61.1867
-73.485
-60.2259
-9.06503
54.2222
88.1287
86.1259
68.2189
46.0825
22.7264
7.7188
11.9033
31.3096
51.1404
62.2673
64.1364
57.3621
40.6448
14.1304
-18.015
-48.5419
-69.0225
-73.5665
-63.2756
-45.1984
-26.4454
-10.7429
0.888262
8.49295
12.4044
13.1254
11.2836
7.47474
2.09616
-4.70423
-12.9315
-22.5337
-33.1557
-43.9715
-53.7136
-60.9383
-64.4369
-63.6274
-58.7607
-50.6856
-39.6304
-23.9195
-3.05763
16.0065
22.442
12.4644
-13.2669
-59.5751
-118.644
-179.326
-209.854
-204.876
-249.365
-378.61
-127.517
492.815
494.392
251.023
139.483
114.01
97.5046
77.1943
55.8172
35.6194
19.817
6.71404
-3.77827
-10.528
-12.8201
-10.8962
-5.66167
-1.32813
-3.60345
-13.9479
-30.6974
-51.9717
-71.5349
-73.9909
-52.8744
-23.9577
-3.99171
3.34808
1.22483
-6.16665
-14.0622
-17.5822
-13.9109
-3.96782
8.3596
18.9688
25.9032
29.3027
29.7382
27.2566
21.7033
13.1593
1.60193
-15.0293
-29.0305
-39.2854
-43.5921
-41.9898
-38.4301
-38.7939
-44.8036
-49.1574
-39.9513
-13.0455
24.3811
64.9778
107.727
151.454
188.803
209.887
209.961
192.396
165.161
135.28
106.506
80.4263
58.0142
39.9387
26.2866
16.5295
9.75959
4.9057
0.819107
-3.70196
-238.726
15.8134
63.0769
98.1831
111.289
97.5694
63.9571
22.3505
-14.8795
-39.3619
-50.1484
-51.2285
-46.9241
-39.6646
-30.6496
-21.7012
-15.1576
-12.1608
-13.1892
-15.3755
-16.7395
-15.7925
-12.2531
-6.83501
-0.771228
4.74151
8.98607
11.6798
12.812
13.0363
12.9537
12.2295
10.6569
7.69164
5.38618
3.64178
1.48147
-1.28627
-4.46798
-7.60176
-9.9716
-10.9745
-10.8929
-11.4547
-15.1157
-23.0674
-34.8939
-51.3926
-73.1858
-91.3156
-83.7299
-36.25
24.8166
57.9175
59.9372
49.4756
31.5344
9.43887
0.0110387
14.6981
42.9895
67.0862
78.6003
77.1451
63.8832
40.1119
9.01021
-23.2803
-48.7466
-61.0977
-59.4636
-48.2082
-33.1635
-18.4961
-6.24428
2.81176
8.47397
10.9033
10.5232
7.85137
3.3041
-2.91541
-10.7854
-20.2937
-31.1776
-42.6787
-53.4686
-61.8797
-66.4104
-66.2707
-61.649
-53.4178
-41.874
-25.2159
-2.67325
17.7724
23.6664
13.1
-8.66718
-46.7383
-97.5963
-153.456
-190.385
-201.199
-247.969
-349.357
-111.059
439.255
466.522
263.655
153.644
118.117
98.5099
75.8728
52.8548
31.36
14.5113
1.27414
-8.89222
-14.6382
-15.9184
-13.1692
-7.03839
-1.09401
-0.697741
-9.03125
-24.8162
-45.6028
-67.2429
-76.1921
-61.0068
-32.6253
-9.82798
0.455955
0.140865
-6.64747
-14.5564
-17.752
-12.7482
-0.593775
13.977
26.0224
33.5093
37.0879
37.597
34.8972
28.7507
19.5136
7.60938
-8.64468
-25.0945
-38.7382
-47.1844
-49.0934
-45.7415
-41.1099
-39.1094
-38.8476
-33.5871
-17.2585
8.98887
40.9682
78.1926
120.33
160.511
187.47
193.945
181.482
157.617
129.761
102.154
76.7886
54.9333
37.4115
24.3278
15.1088
8.80033
4.30748
0.475316
-3.90669
-267.02
-9.87632
46.9181
82.6887
109.49
111.556
87.6358
47.9423
6.74488
-22.7286
-45.7919
-52.6781
-52.293
-47.3307
-39.1598
-29.4289
-20.4446
-14.4732
-12.5844
-13.6501
-15.6343
-16.6338
-15.5643
-12.3345
-7.6417
-2.51099
2.18801
5.91512
8.51634
10.1407
10.9562
10.9803
10.2205
8.31603
7.21681
5.29114
2.49859
-0.995141
-4.85428
-8.42212
-10.692
-10.7795
-8.75589
-5.97445
-4.75785
-7.65392
-16.1709
-30.9123
-52.9308
-80.5082
-101.831
-94.195
-48.5816
2.79782
25.8931
26.9173
19.293
1.81117
-15.8297
-11.9719
16.6025
51.5701
76.2512
85.2384
79.2283
60.4949
32.5834
1.21473
-26.2286