/*--------------------------------*- C++ -*----------------------------------*\
| =========                 |                                                 |
| \\      /  F ield         | OpenFOAM: The Open Source CFD Toolbox           |
|  \\    /   O peration     | Version:  2112                                  |
|   \\  /    A nd           | Website:  www.openfoam.com                      |
|    \\/     M anipulation  |                                                 |
\*---------------------------------------------------------------------------*/
FoamFile
{
    version     2.0;
    format      ascii;
    arch        "LSB;label=32;scalar=64";
    class       volScalarField;
    location    "0.15";
    object      k;
}
// * * * * * * * * * * * * * * * * * * * * * * * * * * * * * * * * * * * * * //

dimensions      [0 2 -2 0 0 0 0];

internalField   nonuniform List<scalar> 
12225
(
0.535035
0.804695
0.988842
1.09681
1.15178
1.17076
1.16757
1.15726
1.13736
1.11286
1.08929
1.0631
1.04161
1.01627
0.9991
0.975024
0.963045
0.937657
0.378389
0.385973
0.391211
0.394512
0.39657
0.39825
0.399332
0.401722
0.404265
0.408833
0.413329
0.421106
0.427123
0.4389
0.44586
0.460626
0.469493
0.484075
0.375172
0.374422
0.372409
0.368419
0.363731
0.358069
0.352468
0.346609
0.341159
0.336069
0.331469
0.327588
0.324215
0.3217
0.319631
0.318504
0.317732
0.317945
0.375056
0.374581
0.373494
0.371395
0.368928
0.365772
0.36258
0.35888
0.355394
0.351538
0.34812
0.344358
0.341265
0.33776
0.335115
0.331991
0.329848
0.327163
0.375065
0.374811
0.374217
0.373071
0.371708
0.369977
0.368183
0.36609
0.364054
0.361767
0.359665
0.357305
0.355271
0.352921
0.35105
0.348759
0.347132
0.344912
0.37507
0.374926
0.374563
0.373863
0.373015
0.371965
0.370847
0.369568
0.368281
0.366864
0.3655
0.364014
0.362648
0.361141
0.359835
0.358327
0.357147
0.355629
0.375059
0.374974
0.374735
0.374271
0.373699
0.373007
0.372255
0.37141
0.370538
0.369598
0.368663
0.367673
0.366718
0.365709
0.364773
0.36376
0.362889
0.36185
0.375038
0.374985
0.37482
0.374496
0.37409
0.373606
0.373072
0.372481
0.371861
0.371201
0.370532
0.369835
0.369145
0.368435
0.367748
0.367035
0.36638
0.365644
0.375014
0.374975
0.374854
0.374621
0.374324
0.373972
0.37358
0.373149
0.372692
0.37221
0.371715
0.371205
0.370692
0.370171
0.369655
0.369132
0.36863
0.36809
0.374992
0.37495
0.374856
0.374684
0.374463
0.374201
0.373907
0.373584
0.37324
0.372878
0.372504
0.372119
0.371729
0.371334
0.370939
0.370542
0.370152
0.369743
0.374971
0.374916
0.374836
0.374706
0.37454
0.374343
0.374119
0.373874
0.373611
0.373334
0.373046
0.37275
0.372449
0.372143
0.371836
0.371527
0.371219
0.370901
0.374953
0.374881
0.374804
0.3747
0.37457
0.374416
0.374241
0.374049
0.373842
0.373622
0.373394
0.373158
0.372917
0.372672
0.372424
0.372173
0.371922
0.371664
0.374938
0.374846
0.374767
0.374677
0.374573
0.374452
0.374316
0.374165
0.374002
0.373829
0.373647
0.373459
0.373265
0.373067
0.372865
0.372661
0.372455
0.372243
0.374925
0.374809
0.374719
0.374637
0.374552
0.374458
0.374354
0.37424
0.374117
0.373984
0.373845
0.373698
0.373547
0.37339
0.37323
0.373066
0.3729
0.372729
0.374913
0.374774
0.374668
0.374582
0.374506
0.374431
0.374353
0.374269
0.374179
0.374081
0.373978
0.373868
0.373753
0.373632
0.373508
0.373379
0.373247
0.373111
0.374905
0.374744
0.374618
0.374521
0.374444
0.374377
0.374314
0.374251
0.374186
0.374116
0.374041
0.373961
0.373875
0.373785
0.373689
0.37359
0.373486
0.373379
0.374899
0.374721
0.374577
0.374465
0.374378
0.374308
0.37425
0.374197
0.374145
0.374092
0.374037
0.373977
0.373912
0.373843
0.37377
0.373692
0.37361
0.373524
0.374896
0.374708
0.374551
0.374425
0.374326
0.374247
0.374183
0.374129
0.374078
0.374029
0.37398
0.373927
0.373872
0.373812
0.373749
0.373681
0.373611
0.373537
0.374896
0.374705
0.374544
0.374412
0.374305
0.374216
0.374141
0.374075
0.374012
0.373952
0.373891
0.373828
0.373763
0.373695
0.373624
0.37355
0.373473
0.373394
0.374898
0.374715
0.374561
0.374433
0.374322
0.374224
0.374132
0.374044
0.373956
0.373867
0.373776
0.373682
0.373585
0.373486
0.373385
0.373282
0.373177
0.373071
0.374904
0.374735
0.374591
0.374463
0.374344
0.374228
0.37411
0.37399
0.373865
0.373737
0.373605
0.373469
0.37333
0.373189
0.373046
0.372902
0.372757
0.372612
0.374914
0.374763
0.374625
0.374489
0.374346
0.374195
0.374035
0.373866
0.373688
0.373504
0.373314
0.373119
0.372921
0.37272
0.372518
0.372315
0.372113
0.371912
0.374929
0.374796
0.374653
0.374488
0.3743
0.374092
0.373866
0.373624
0.373369
0.373103
0.37283
0.37255
0.372265
0.371978
0.37169
0.371402
0.371114
0.370832
0.37495
0.374827
0.374657
0.374437
0.374172
0.373873
0.373543
0.373189
0.372814
0.372423
0.37202
0.371608
0.371191
0.37077
0.370347
0.369926
0.369506
0.369096
0.374972
0.374844
0.374617
0.374299
0.3739
0.373447
0.372941
0.372399
0.37182
0.371219
0.370597
0.369964
0.36932
0.368674
0.368025
0.367383
0.366738
0.366118
0.374988
0.374833
0.3745
0.373995
0.373339
0.372598
0.371753
0.370858
0.369889
0.368896
0.367858
0.366816
0.365747
0.364694
0.363623
0.362589
0.361531
0.360544
0.37501
0.374774
0.374223
0.373313
0.372084
0.37073
0.369137
0.367497
0.365682
0.363883
0.361965
0.360109
0.358174
0.356337
0.354441
0.352681
0.350853
0.349215
0.375129
0.374769
0.373789
0.371936
0.3694
0.366701
0.363452
0.360273
0.356714
0.353395
0.349842
0.34661
0.343271
0.340264
0.337272
0.334536
0.331956
0.329516
0.376923
0.379841
0.381431
0.381363
0.380881
0.379893
0.378228
0.376651
0.374952
0.373621
0.37251
0.371778
0.371591
0.371832
0.372181
0.373312
0.374788
0.375929
0.459539
0.609324
0.730001
0.821268
0.887081
0.932665
0.962756
0.981456
0.991707
0.996111
0.99551
0.993239
0.988716
0.982503
0.975487
0.967985
0.960254
0.952446
0.000591819
0.00274733
0.0038387
0.004574
0.00510477
0.00559466
0.00640462
0.00749411
0.00892137
0.0105626
0.0124375
0.0143465
0.0159869
0.0173246
0.0182829
0.018584
0.0183805
0.0178971
0.017303
0.0164398
0.0151218
0.0131448
0.0102459
0.00616653
0.00236234
0.0019489
0.00270423
0.00343669
0.00378195
0.0045952
0.00652644
0.00851277
0.00856482
0.00779953
0.00597524
0.00429474
0.00296678
0.0026616
0.00873696
0.0291276
0.0476744
0.0611641
0.0735123
0.0841151
0.0939854
0.102972
0.111447
0.119443
0.127153
0.134646
0.142027
0.149376
0.156604
0.163727
0.170712
0.177677
0.184569
0.191465
0.198346
0.205245
0.212162
0.219111
0.226092
0.233114
0.240174
0.247276
0.254415
0.261593
0.268803
0.276043
0.283307
0.290591
0.29789
0.305196
0.312505
0.319811
0.327106
0.334385
0.341642
0.348869
0.356062
0.363214
0.370317
0.377367
0.384357
0.391279
0.398127
0.404895
0.411575
0.41816
0.424644
0.431019
0.437278
0.443414
0.449422
0.455297
0.461033
0.466632
0.472095
0.477436
0.482676
0.487858
0.492922
0.497859
0.502678
0.507372
0.511942
0.516389
0.520709
0.524907
0.528978
0.532927
0.536752
0.540455
0.544037
0.547499
0.550843
0.55407
0.557182
0.56018
0.563066
0.565842
0.56851
0.57107
0.573524
0.575875
0.578125
0.580274
0.582322
0.584271
0.586114
0.58784
0.589412
0.590745
0.591901
0.592877
0.593676
0.594286
0.5947
0.59491
0.594869
0.594649
0.594046
0.593204
0.59212
0.590717
0.588989
0.586923
0.584493
0.581664
0.578446
0.574874
0.570854
0.566406
0.561506
0.556149
0.550323
0.544019
0.537235
0.529965
0.522209
0.51397
0.50525
0.496054
0.486419
0.477183
0.471696
0.470763
0.469861
0.468615
0.46691
0.464766
0.461944
0.4589
0.454792
0.450211
0.445063
0.436092
0.42884
0.392585
0.00134346
0.00158852
0.00235811
0.00249774
0.00256445
0.00374887
0.00661902
0.011763
0.0177468
0.023481
0.0289122
0.0337665
0.0377769
0.0409236
0.0429491
0.0439786
0.0439162
0.0433151
0.0418231
0.0389916
0.0349732
0.0296338
0.023232
0.0156258
0.00892668
0.00499371
0.0032114
0.0025719
0.00298097
0.00611167
0.0144685
0.025088
0.0259888
0.0217824
0.0151102
0.00804994
0.0111561
0.0218269
0.03696
0.0579429
0.0776077
0.0961484
0.115653
0.135363
0.155604
0.176161
0.19605
0.21513
0.233408
0.250941
0.267777
0.28402
0.299757
0.315097
0.330095
0.344847
0.359417
0.373888
0.388293
0.402697
0.417123
0.431616
0.446191
0.460875
0.475678
0.490614
0.505687
0.5209
0.536252
0.55174
0.567358
0.583098
0.598952
0.614909
0.630957
0.647085
0.66328
0.679529
0.695821
0.712141
0.728477
0.744816
0.761144
0.77745
0.793718
0.809937
0.826092
0.84217
0.858156
0.874036
0.889794
0.905417
0.920887
0.93619
0.95131
0.966229
0.98093
0.995398
1.00961
1.02356
1.03723
1.05056
1.06376
1.07676
1.08957
1.10219
1.11461
1.12683
1.13885
1.15066
1.16226
1.17366
1.18485
1.19583
1.20661
1.21719
1.22756
1.23773
1.24771
1.2575
1.2671
1.27652
1.28575
1.29481
1.30369
1.31241
1.32097
1.32937
1.33762
1.34573
1.35371
1.3616
1.36942
1.37724
1.38488
1.39227
1.39944
1.40636
1.41301
1.41938
1.42544
1.43116
1.43651
1.44147
1.44601
1.45009
1.45367
1.45672
1.45918
1.46097
1.462
1.46245
1.46218
1.46106
1.45909
1.45624
1.45244
1.44768
1.4419
1.43507
1.42716
1.41814
1.40797
1.39662
1.38404
1.37031
1.35587
1.34066
1.32433
1.30688
1.28818
1.26849
1.24724
1.2255
1.20126
1.17759
1.15023
1.12163
1.09627
1.0284
0.000655109
0.000541898
0.000785761
0.000981327
0.00172749
0.00391303
0.00870771
0.0149578
0.0215714
0.028282
0.0346273
0.0402281
0.0448433
0.0483309
0.0507389
0.0521605
0.0527738
0.0526471
0.0521342
0.0509929
0.0489676
0.0458287
0.0410678
0.0348342
0.0264674
0.0177016
0.0097687
0.00596988
0.00489401
0.00674831
0.0193245
0.0356628
0.0359639
0.0266119
0.0235128
0.025348
0.041995
0.0673671
0.0925591
0.121986
0.153975
0.187722
0.22139
0.253964
0.284792
0.313528
0.340613
0.36649
0.391159
0.414794
0.437526
0.459507
0.480866
0.501715
0.522152
0.542297
0.56223
0.582027
0.60175
0.621457
0.641191
0.660993
0.680893
0.700917
0.721081
0.7414
0.761882
0.78253
0.803345
0.824322
0.845456
0.866738
0.888157
0.9097
0.931354
0.953103
0.974933
0.996826
1.01877
1.04074
1.06273
1.08471
1.10668
1.12861
1.15049
1.1723
1.19403
1.21566
1.23717
1.25854
1.27977
1.30083
1.3217
1.34238
1.36285
1.38309
1.40309
1.42284
1.44234
1.46158
1.48057
1.4993
1.51778
1.53599
1.55394
1.5716
1.58898
1.60608
1.62288
1.63939
1.65559
1.67149
1.68708
1.70237
1.71735
1.73202
1.74638
1.76044
1.7742
1.78765
1.80081
1.81368
1.82626
1.83856
1.85057
1.8623
1.87376
1.88494
1.89586
1.9065
1.91687
1.92697
1.93678
1.9463
1.95547
1.96428
1.9727
1.98071
1.98829
1.99542
2.00206
2.00819
2.01376
2.01874
2.0231
2.02679
2.02976
2.032
2.0333
2.03378
2.03339
2.03203
2.02965
2.02617
2.02156
2.01576
2.00872
2.00041
1.99076
1.97975
1.96733
1.95348
1.93815
1.92133
1.90299
1.88317
1.86201
1.83947
1.81545
1.78998
1.76299
1.73466
1.7047
1.67371
1.64064
1.60728
1.57125
1.53401
1.5019
1.43568
0.000180778
0.000195882
0.000502492
0.00179535
0.00520595
0.0124178
0.0213185
0.0302502
0.0388812
0.0467935
0.0535714
0.0589217
0.0627171
0.0650701
0.0662476
0.0663179
0.0659518
0.0649913
0.0634366
0.0614625
0.0590045
0.0559219
0.0518624
0.0465772
0.0398043
0.0318682
0.0236844
0.0161558
0.0120726
0.0186544
0.0481005
0.0595566
0.0465242
0.0411851
0.0476333
0.0715308
0.102333
0.133968
0.170002
0.208031
0.246684
0.284371
0.320806
0.355725
0.389097
0.421009
0.451639
0.481126
0.509564
0.537076
0.563784
0.589794
0.615209
0.640134
0.664673
0.688917
0.712944
0.736829
0.760638
0.784427
0.808247
0.832141
0.856145
0.880288
0.904595
0.929081
0.95376
0.978638
1.00372
1.02899
1.05446
1.08012
1.10594
1.13193
1.15805
1.1843
1.21066
1.2371
1.2636
1.29015
1.31673
1.34331
1.36988
1.39641
1.42288
1.44929
1.4756
1.50179
1.52786
1.55377
1.57951
1.60507
1.63042
1.65555
1.68044
1.70508
1.72945
1.75355
1.77736
1.80087
1.82409
1.84699
1.86956
1.8918
1.91369
1.93524
1.95641
1.97722
1.99766
2.01771
2.03737
2.05663
2.0755
2.09396
2.11201
2.12966
2.14689
2.16371
2.18013
2.19613
2.21173
2.22692
2.24171
2.2561
2.27009
2.28368
2.29687
2.30967
2.32206
2.33405
2.34563
2.35678
2.3675
2.37775
2.38752
2.39679
2.40553
2.41372
2.42133
2.42833
2.43469
2.44038
2.44536
2.44958
2.45301
2.4556
2.45728
2.45796
2.45771
2.45641
2.454
2.45043
2.44564
2.43955
2.43211
2.42327
2.41299
2.4012
2.38788
2.37297
2.35643
2.33823
2.31837
2.2968
2.27352
2.24856
2.22198
2.19374
2.16383
2.13229
2.0991
2.06439
2.02806
1.99046
1.95111
1.91111
1.86926
1.82665
1.78871
1.72694
0.000304302
0.000356131
0.00180006
0.005842
0.0148453
0.0266791
0.0384368
0.0493466
0.0585489
0.0655378
0.070431
0.0736576
0.0756628
0.0767442
0.0769907
0.0767198
0.0759231
0.0744936
0.0725787
0.0702163
0.0674093
0.0641098
0.060158
0.0553091
0.0493738
0.042478
0.035087
0.0281308
0.0257349
0.0460043
0.0753289
0.0764614
0.0692798
0.0721835
0.0983214
0.130519
0.165822
0.204095
0.244309
0.284484
0.323857
0.36204
0.399095
0.434995
0.4698
0.50359
0.536448
0.568449
0.599659
0.630147
0.659978
0.689221
0.71796
0.746272
0.774236
0.801924
0.829409
0.856759
0.884037
0.911302
0.938607
0.965997
0.993516
1.0212
1.04907
1.07715
1.10547
1.13402
1.16282
1.19186
1.22115
1.25066
1.28039
1.31033
1.34045
1.37073
1.40115
1.43169
1.46232
1.49302
1.52376
1.55452
1.58528
1.61601
1.64669
1.67729
1.7078
1.73818
1.76842
1.7985
1.8284
1.85808
1.88754
1.91675
1.94569
1.97435
2.00271
2.03075
2.05846
2.08582
2.11281
2.13943
2.16566
2.19148
2.21688
2.24186
2.2664
2.29049
2.31412
2.33729
2.35998
2.38219
2.4039
2.42512
2.44583
2.46603
2.48572
2.50489
2.52354
2.54168
2.5593
2.5764
2.59298
2.60905
2.6246
2.63963
2.65414
2.66813
2.68159
2.69452
2.70691
2.71874
2.72999
2.74066
2.75071
2.76012
2.76887
2.77692
2.78426
2.79084
2.79664
2.80161
2.80573
2.80894
2.81121
2.8124
2.8126
2.81168
2.80962
2.80634
2.80179
2.79589
2.78859
2.77981
2.76951
2.75761
2.74408
2.72887
2.71194
2.69324
2.67273
2.65039
2.6262
2.60015
2.57223
2.54246
2.51088
2.47749
2.44231
2.40538
2.36674
2.3265
2.28466
2.24149
2.19679
2.15137
2.10471
2.0577
2.01476
1.95511
0.000435254
0.00128899
0.00525274
0.0153764
0.0319577
0.0479467
0.0607066
0.0694399
0.0750189
0.0787141
0.0813367
0.0832401
0.0845254
0.0851942
0.0852017
0.0848004
0.0837921
0.0821755
0.0800544
0.0774607
0.0744145
0.0709058
0.0668506
0.0620625
0.056419
0.0498823
0.0432026
0.0375982
0.043069
0.0739696
0.092778
0.0949402
0.0964619
0.116648
0.149624
0.186013
0.224978
0.265578
0.306266
0.346093
0.384957
0.42291
0.460052
0.496442
0.532144
0.567213
0.601693
0.635619
0.669008
0.701881
0.734272
0.766223
0.797778
0.828989
0.85991
0.8906
0.921117
0.951524
0.98188
1.01224
1.04266
1.0732
1.10389
1.13477
1.16589
1.19726
1.22891
1.26085
1.2931
1.32565
1.35849
1.39163
1.42504
1.45871
1.49262
1.52673
1.56103
1.59549
1.63007
1.66475
1.6995
1.73428
1.76908
1.80386
1.83859
1.87325
1.90781
1.94225
1.97653
2.01064
2.04455
2.07823
2.11165
2.1448
2.17765
2.21018
2.24237
2.27419
2.30562
2.33665
2.36725
2.3974
2.4271
2.45632
2.48505
2.51328
2.54099
2.56818
2.59482
2.62091
2.64644
2.67139
2.69576
2.71954
2.74272
2.76528
2.78722
2.80855
2.82924
2.84931
2.86874
2.88754
2.90571
2.92325
2.94015
2.9564
2.97202
2.98699
3.00132
3.01498
3.02798
3.04029
3.0519
3.06278
3.07293
3.0823
3.09087
3.09862
3.10549
3.11148
3.11653
3.12062
3.12369
3.12569
3.12654
3.12627
3.12481
3.12209
3.11805
3.11262
3.10575
3.09736
3.08739
3.07576
3.06243
3.04733
3.03042
3.01165
2.991
2.96841
2.94385
2.9173
2.88875
2.85819
2.82562
2.79107
2.75458
2.71617
2.6759
2.63382
2.59001
2.54459
2.49761
2.44934
2.39975
2.34948
2.29842
2.24738
2.19985
2.14063
0.000715587
0.00416898
0.0142311
0.0359631
0.0557558
0.0682077
0.0754499
0.0801292
0.0836335
0.0864443
0.0886828
0.0903606
0.0914621
0.0919636
0.0918778
0.0913157
0.0901139
0.0883411
0.0860466
0.0832605
0.0800018
0.0762579
0.0719475
0.0669494
0.0612165
0.0548436
0.0482627
0.0462239
0.0602361
0.0913117
0.107463
0.114338
0.128944
0.158673
0.195312
0.234278
0.2746
0.31521
0.355125
0.394094
0.432273
0.469827
0.506881
0.543523
0.579814
0.615799
0.651498
0.686904
0.722008
0.756812
0.791319
0.825538
0.859488
0.893194
0.926691
0.960023
0.993235
1.02638
1.05952
1.0927
1.12598
1.15941
1.19304
1.22692
1.26108
1.29556
1.33038
1.36556
1.40111
1.43704
1.47333
1.50999
1.54699
1.58432
1.62194
1.65983
1.69795
1.73628
1.77477
1.81339
1.85211
1.89089
1.9297
1.9685
2.00726
2.04595
2.08454
2.12301
2.16131
2.19942
2.23731
2.27495
2.31231
2.34936
2.38608
2.42243
2.45839
2.49393
2.52903
2.56366
2.59779
2.63142
2.66451
2.69705
2.72902
2.76041
2.79121
2.82139
2.85094
2.87986
2.90812
2.93571
2.96262
2.98884
3.01436
3.03916
3.06324
3.08659
3.10919
3.13105
3.15216
3.17252
3.19212
3.21098
3.22907
3.24641
3.26297
3.27876
3.29378
3.30802
3.32146
3.33408
3.34588
3.35683
3.3669
3.37607
3.38429
3.39155
3.39779
3.40299
3.40711
3.41011
3.4119
3.41248
3.41179
3.40979
3.40644
3.40166
3.3954
3.38759
3.37815
3.36701
3.3541
3.33936
3.32272
3.30413
3.28356
3.26097
3.23633
3.2096
3.18074
3.14975
3.11662
3.08135
3.04396
3.00448
2.96296
2.91948
2.87408
2.82688
2.77796
2.72747
2.67553
2.62237
2.5681
2.5133
2.45803
2.40313
2.35119
2.29134
0.00726005
0.0131515
0.0341224
0.0578873
0.0708034
0.0783227
0.0834878
0.0874021
0.0905027
0.0929654
0.0948716
0.0962441
0.0970757
0.0973335
0.0970611
0.0962463
0.094856
0.0929218
0.0904491
0.087446
0.0839068
0.0797942
0.0750412
0.0694279
0.0630222
0.0562311
0.0518497
0.054767
0.0758939
0.104979
0.121507
0.135969
0.160946
0.195622
0.234083
0.273841
0.313963
0.353662
0.392498
0.430528
0.467984
0.505067
0.541918
0.578635
0.615286
0.651902
0.688476
0.724993
0.761434
0.797778
0.834007
0.870107
0.906076
0.94192
0.977657
1.01331
1.04893
1.08455
1.12022
1.156
1.19193
1.22808
1.2645
1.30123
1.33831
1.37579
1.41369
1.45203
1.49083
1.53009
1.56981
1.60998
1.65057
1.69156
1.73291
1.77459
1.81657
1.85879
1.90123
1.94383
1.98656
2.02938
2.07223
2.11509
2.15791
2.20067
2.24332
2.28584
2.32819
2.37034
2.41224
2.45386
2.49516
2.53612
2.5767
2.61687
2.6566
2.69585
2.7346
2.77281
2.81045
2.8475
2.88395
2.91976
2.95493
2.98942
3.02323
3.05634
3.08873
3.12038
3.15128
3.18141
3.21077
3.23933
3.26708
3.294
3.32009
3.34533
3.36971
3.39323
3.41588
3.43765
3.45855
3.47856
3.49769
3.51593
3.53327
3.5497
3.56524
3.57986
3.59355
3.60631
3.6181
3.6289
3.6387
3.64744
3.65511
3.66165
3.66704
3.67122
3.67416
3.67577
3.67605
3.67495
3.6724
3.66838
3.66282
3.65567
3.64686
3.63632
3.62396
3.60972
3.59352
3.57529
3.55496
3.5325
3.50787
3.48107
3.45205
3.42081
3.3873
3.35152
3.31348
3.27319
3.23069
3.18602
3.13926
3.0905
3.03985
2.98741
2.93333
2.87777
2.82091
2.76298
2.70414
2.64498
2.58562
2.52699
2.47079
2.40981
0.0178429
0.0258817
0.0523695
0.0698243
0.0796192
0.0858227
0.0901678
0.0934561
0.096102
0.0981649
0.0996957
0.100699
0.101161
0.101089
0.100512
0.0993881
0.0977285
0.0955249
0.0927324
0.089305
0.0852266
0.0805081
0.0750741
0.0690389
0.0623618
0.0565894
0.0552239
0.0649318
0.0908986
0.117368
0.136475
0.159064
0.190305
0.227048
0.26578
0.305029
0.344097
0.382521
0.420168
0.457205
0.49388
0.530402
0.566921
0.603544
0.640334
0.677306
0.714453
0.751759
0.789194
0.826725
0.864318
0.901947
0.939593
0.977248
1.01492
1.05262
1.09038
1.12823
1.16623
1.20442
1.24286
1.28159
1.32068
1.36017
1.40011
1.44055
1.4815
1.523
1.56506
1.60769
1.65088
1.6946
1.73884
1.78357
1.82873
1.87428
1.92019
1.9664
2.01286
2.05953
2.10635
2.15327
2.20024
2.24723
2.29418
2.34107
2.38784
2.43448
2.48092
2.52714
2.57309
2.61872
2.664
2.70889
2.75335
2.79735
2.84084
2.8838
2.92617
2.96794
3.00905
3.0495
3.08925
3.12828
3.16657
3.2041
3.24084
3.27679
3.31191
3.34619
3.37962
3.41218
3.44384
3.47461
3.50445
3.53335
3.5613
3.58828
3.61427
3.63928
3.66329
3.68629
3.70828
3.72926
3.74922
3.76815
3.78605
3.80291
3.81873
3.8335
3.84721
3.85984
3.87137
3.88177
3.89101
3.89906
3.90588
3.91142
3.91564
3.9185
3.9199
3.91984
3.91826
3.91511
3.91033
3.90389
3.89572
3.88578
3.874
3.8603
3.8446
3.82682
3.80688
3.78471
3.76024
3.73343
3.70428
3.67279
3.63894
3.60272
3.56411
3.52312
3.47976
3.43407
3.3861
3.33593
3.28363
3.22934
3.17321
3.11538
3.05601
2.99529
2.9335
2.87084
2.8075
2.74412
2.68076
2.61858
2.55823
2.4961
0.0241791
0.0363204
0.0638752
0.0785942
0.0866104
0.0916391
0.0952282
0.0979059
0.0999221
0.101415
0.102454
0.103028
0.103132
0.10277
0.101874
0.100387
0.0983252
0.0957019
0.0925552
0.0888712
0.0845832
0.0795979
0.0738432
0.0673258
0.0604869
0.0574827
0.0604384
0.0776774
0.104978
0.130086
0.153581
0.182089
0.216158
0.253092
0.29095
0.328867
0.36641
0.403351
0.439702
0.475653
0.511442
0.547271
0.583298
0.619632
0.656323
0.693388
0.730826
0.768616
0.806726
0.845116
0.883745
0.92258
0.961592
1.00076
1.04009
1.07959
1.11927
1.15916
1.19931
1.23977
1.2806
1.32183
1.36354
1.40577
1.44857
1.49197
1.53602
1.58074
1.62614
1.67222
1.71897
1.76638
1.81439
1.86298
1.91208
1.96163
2.0116
2.06191
2.11251
2.16335
2.21436
2.26548
2.31666
2.36786
2.41902
2.4701
2.52105
2.57185
2.62244
2.67277
2.7228
2.77248
2.82175
2.87058
2.91892
2.96673
3.01396
3.06059
3.10655
3.15181
3.19634
3.2401
3.28307
3.32522
3.36653
3.40698
3.44654
3.48519
3.52291
3.55967
3.59547
3.63028
3.66408
3.69686
3.7286
3.75928
3.78888
3.81739
3.84479
3.87106
3.8962
3.92019
3.94304
3.96473
3.98526
4.00461
4.02279
4.03979
4.0556
4.07023
4.08365
4.09584
4.10678
4.11645
4.1248
4.13181
4.13742
4.14159
4.14428
4.14541
4.14493
4.14279
4.13893
4.1333
4.12583
4.1165
4.10526
4.09205
4.07679
4.05943
4.03987
4.01804
3.99386
3.96725
3.9381
3.90641
3.87221
3.8355
3.79629
3.75457
3.71037
3.66367
3.61453
3.563
3.50916
3.45314
3.39499
3.33488
3.27302
3.20958
3.14475
3.07878
3.01184
2.94418
2.87612
2.80844
2.74101
2.67545
2.61095
2.54817
0.0273478
0.0463077
0.0724342
0.0851004
0.0917677
0.0958108
0.098412
0.100206
0.101587
0.102663
0.103364
0.103596
0.103336
0.102555
0.101255
0.0994693
0.0971761
0.0943544
0.0909911
0.0870381
0.0824201
0.0769942
0.0706864
0.0637433
0.0599081
0.0597513
0.0693558
0.0918339
0.118697
0.144665
0.172217
0.203766
0.238336
0.274242
0.310466
0.346546
0.382264
0.417543
0.452453
0.487174
0.521918
0.556879
0.592218
0.628037
0.664383
0.701284
0.738738
0.776727
0.815217
0.854169
0.893542
0.933298
0.973405
1.01384
1.0546
1.09568
1.1371
1.17889
1.22108
1.26373
1.30689
1.35061
1.39495
1.43995
1.48568
1.53215
1.57942
1.62748
1.67637
1.72607
1.77656
1.82782
1.8798
1.93242
1.98563
2.03936
2.09353
2.14809
2.20296
2.25808
2.31338
2.36881
2.42429
2.47976
2.53519
2.59052
2.6457
2.70069
2.75545
2.80991
2.86403
2.91774
2.97099
3.02373
3.0759
3.12746
3.17837
3.22858
3.27804
3.32669
3.3745
3.42144
3.46748
3.5126
3.55677
3.59997
3.64216
3.68332
3.72343
3.76247
3.80041
3.83723
3.87293
3.90748
3.94086
3.97304
4.00402
4.03377
4.06227
4.08952
4.11549
4.14017
4.16356
4.18564
4.20641
4.22585
4.24396
4.26075
4.2762
4.29031
4.30306
4.31443
4.32439
4.33292
4.33997
4.34551
4.34948
4.35184
4.35254
4.3515
4.34866
4.34396
4.33735
4.32873
4.31807
4.30533
4.29047
4.27343
4.25414
4.23254
4.20855
4.18208
4.15308
4.12147
4.08711
4.04999
4.01018
3.9677
3.92258
3.87481
3.82449
3.77157
3.71615
3.65831
3.59817
3.53577
3.47095
3.40419
3.33581
3.26604
3.19512
3.12334
3.051
2.9788
2.90678
2.83563
2.76485
2.69673
2.62872
2.56578
0.0285592
0.0534618
0.0791133
0.0904063
0.0956728
0.0983248
0.099733
0.100889
0.101716
0.102113
0.102173
0.101885
0.101213
0.100122
0.098587
0.0965554
0.0940273
0.0910052
0.0873709
0.0830319
0.077942
0.072102
0.0657426
0.0614991
0.0605957
0.0651381
0.0819501
0.106718
0.133586
0.161349
0.19125
0.223496
0.257119
0.291224
0.325333
0.35925
0.392912
0.426336
0.459618
0.492913
0.526403
0.560259
0.594671
0.629734
0.6655
0.701993
0.739215
0.77715
0.815769
0.855035
0.894911
0.935359
0.976352
1.01787
1.0599
1.10244
1.1455
1.18911
1.23331
1.27814
1.32366
1.36993
1.41701
1.46494
1.51376
1.5635
1.61419
1.66583
1.71844
1.77199
1.82647
1.88183
1.93799
1.99489
2.05242
2.11051
2.16908
2.22803
2.28731
2.34683
2.40653
2.46634
2.52618
2.586
2.64573
2.70532
2.76472
2.8239
2.8828
2.94135
2.9995
3.05717
3.1143
3.17085
3.22674
3.28193
3.33637
3.38999
3.44276
3.4946
3.5455
3.5954
3.64429
3.69214
3.73892
3.78461
3.82916
3.87255
3.91476
3.95576
3.99553
4.03405
4.07131
4.10728
4.14195
4.17528
4.20727
4.23789
4.26713
4.29496
4.32138
4.34637
4.36991
4.39199
4.41258
4.43169
4.44932
4.46547
4.48013
4.49329
4.50492
4.51501
4.52352
4.53043
4.53569
4.53926
4.54109
4.5411
4.53932
4.53553
4.52979
4.522
4.5121
4.49996
4.48553
4.46881
4.44975
4.42829
4.40436
4.37791
4.34885
4.31712
4.28267
4.24542
4.20528
4.16221
4.11624
4.06741
4.01575
3.9613
3.90375
3.84334
3.78035
3.7149
3.64716
3.57729
3.50602
3.43333
3.35923
3.28396
3.20781
3.13111
3.05419
2.97758
2.90116
2.82625
2.75171
2.68113
2.60908
2.54665
0.0288482
0.0598408
0.0849185
0.0947097
0.0983761
0.0992964
0.0994487
0.0992211
0.0989773
0.0987661
0.0984446
0.0978547
0.0968922
0.0955102
0.0937055
0.0914824
0.088828
0.0855897
0.0816696
0.0770707
0.0718567
0.0663184
0.062651
0.0616964
0.0641351
0.0758961
0.0972979
0.123045
0.150621
0.179567
0.209933
0.241309
0.273105
0.304927
0.336611
0.368135
0.399542
0.430908
0.462333
0.493976
0.526133
0.558976
0.592503
0.626779
0.661862
0.69779
0.734578
0.772224
0.810712
0.85002
0.890119
0.930984
0.972594
1.01494
1.05801
1.10185
1.1465
1.19198
1.23826
1.28538
1.33341
1.38242
1.43246
1.48356
1.53577
1.5891
1.64356
1.69913
1.75582
1.81359
1.87239
1.93216
1.99282
2.05427
2.11638
2.17906
2.2422
2.3057
2.36949
2.4335
2.49764
2.56186
2.62608
2.69021
2.75421
2.81801
2.88156
2.94482
3.00774
3.07024
3.13226
3.19371
3.25454
3.31467
3.37406
3.43264
3.49034
3.5471
3.60287
3.65759
3.71124
3.76377
3.81517
3.8654
3.91443
3.96222
4.00875
4.05399
4.09789
4.14044
4.18162
4.2214
4.25978
4.29673
4.33223
4.36625
4.39878
4.42979
4.45928
4.48722
4.5136
4.53841
4.56162
4.58323
4.60315
4.62144
4.63809
4.6531
4.66647
4.67816
4.68816
4.69644
4.70296
4.70771
4.71061
4.71166
4.71077
4.70788
4.70291
4.69583
4.68657
4.67505
4.66124
4.645
4.62625
4.60498
4.58112
4.55461
4.52536
4.49337
4.45853
4.42077
4.38005
4.33632
4.28937
4.23895
4.18538
4.1287
4.06899
4.00635
3.94132
3.87397
3.8041
3.73184
3.65737
3.58093
3.50276
3.423
3.34205
3.26025
3.17791
3.09546
3.01319
2.93175
2.85085
2.77234
2.69399
2.62139
2.54511
2.484
0.0282632
0.0655353
0.090045
0.0980378
0.0997582
0.0986463
0.0966712
0.0951819
0.0943155
0.0936961
0.0929966
0.0920417
0.0907571
0.0891229
0.0871424
0.0847953
0.0819221
0.078434
0.0743877
0.0699464
0.0655856
0.0631631
0.0626112
0.0644907
0.0730542
0.0917228
0.11544
0.141946
0.169922
0.198784
0.22816
0.257689
0.287116
0.316343
0.345393
0.374359
0.403362
0.432529
0.462011
0.492134
0.522812
0.554109
0.586223
0.619262
0.653297
0.688373
0.724515
0.761734
0.800024
0.839375
0.879768
0.921182
0.963601
1.00702
1.05143
1.09685
1.14326
1.19069
1.2392
1.28885
1.33969
1.39179
1.4452
1.49995
1.55604
1.61348
1.67225
1.73229
1.79357
1.85603
1.9196
1.98418
2.04966
2.11592
2.18285
2.25029
2.31814
2.38628
2.45461
2.52308
2.59163
2.66019
2.72868
2.79702
2.86513
2.93296
3.00045
3.06756
3.13423
3.20039
3.26595
3.33085
3.39501
3.45836
3.52084
3.58239
3.64294
3.70238
3.76068
3.81781
3.87374
3.92842
3.98182
4.03392
4.08469
4.13407
4.18205
4.22857
4.27362
4.31717
4.35919
4.39968
4.4386
4.47595
4.51169
4.54582
4.5783
4.60913
4.63827
4.66572
4.69146
4.71548
4.73777
4.7583
4.77702
4.79395
4.80909
4.82243
4.83394
4.84362
4.85139
4.85728
4.86119
4.86318
4.86308
4.86102
4.85667
4.85016
4.84138
4.83026
4.81674
4.80068
4.78215
4.76103
4.73721
4.71061
4.68115
4.64876
4.61323
4.57427
4.53211
4.48673
4.43807
4.38613
4.33112
4.27335
4.21243
4.14834
4.0812
4.01113
3.93825
3.86257
3.78437
3.70387
3.62132
3.53702
3.45123
3.36423
3.27638
3.18805
3.0996
3.01151
2.92399
2.83795
2.7527
2.67089
2.58879
2.51473
2.43428
2.37505
0.0270392
0.07116
0.0947551
0.100905
0.10017
0.096261
0.0925879
0.0902462
0.0887367
0.0875156
0.0862822
0.0848909
0.0832767
0.0814134
0.0792741
0.0767243
0.0737119
0.0703986
0.067118
0.0646943
0.0637216
0.0637058
0.0660896
0.0739437
0.0905014
0.112512
0.137443
0.164066
0.191421
0.218954
0.246327
0.273375
0.300066
0.326476
0.352742
0.379037
0.405537
0.432418
0.459834
0.487791
0.516532
0.54622
0.576953
0.608819
0.641885
0.676203
0.711808
0.748722
0.786951
0.826489
0.867332
0.909474
0.952913
0.997651
1.04369
1.09107
1.13979
1.18983
1.2412
1.29396
1.34823
1.40406
1.46153
1.52066
1.58141
1.64373
1.70756
1.77279
1.83933
1.90705
1.97584
2.04556
2.11609
2.18733
2.25915
2.33141
2.40397
2.47666
2.54937
2.62213
2.69487
2.76753
2.84003
2.91226
2.98415
3.05563
3.12665
3.19715
3.26709
3.33638
3.40494
3.4727
3.53957
3.6055
3.67043
3.73429
3.79701
3.85848
3.91868
3.97759
4.03515
4.09132
4.14607
4.19937
4.25118
4.30146
4.35017
4.39729
4.44277
4.48659
4.52874
4.56919
4.60794
4.64495
4.68022
4.71372
4.74542
4.77532
4.80338
4.8296
4.85394
4.87642
4.89702
4.91572
4.93253
4.94742
4.96035
4.9713
4.98024
4.98716
4.99195
4.9947
4.99519
4.99368
4.98983
4.98365
4.9751
4.96414
4.95067
4.93463
4.91593
4.89436
4.86969
4.84206
4.81141
4.77764
4.7407
4.70053
4.65728
4.61115
4.56174
4.50897
4.4528
4.39324
4.33037
4.26401
4.19436
4.12153
4.04564
3.96686
3.88532
3.80119
3.7147
3.62609
3.53567
3.44378
3.35072
3.25684
3.16249
3.06809
2.97398
2.88072
2.78841
2.69829
2.60905
2.52445
2.43892
2.36396
2.27972
2.22248
0.0255909
0.0762777
0.0989415
0.103461
0.0997982
0.0933787
0.0884114
0.085109
0.0827349
0.0807832
0.0789636
0.077116
0.0752226
0.0732535
0.0711383
0.0689096
0.0668827
0.0655715
0.0650301
0.065006
0.0662596
0.0702478
0.0792345
0.0954744
0.116609
0.139862
0.164673
0.190155
0.215669
0.240818
0.265428
0.289505
0.313163
0.336587
0.359995
0.383618
0.407685
0.432334
0.457466
0.483399
0.510358
0.538521
0.567978
0.598821
0.631125
0.664952
0.700352
0.737376
0.776037
0.816329
0.858248
0.901812
0.947037
0.993929
1.04247
1.0926
1.14431
1.19773
1.253
1.31015
1.36917
1.43008
1.49285
1.5575
1.624
1.69223
1.76207
1.83336
1.90591
1.9795
2.05389
2.12888
2.20446
2.28055
2.35702
2.43377
2.5107
2.58758
2.66434
2.74105
2.81764
2.89399
2.97
3.0456
3.12068
3.19518
3.26903
3.34219
3.41461
3.48621
3.55691
3.62663
3.69529
3.76284
3.82922
3.89439
3.95829
4.02088
4.0821
4.14187
4.20013
4.25683
4.31195
4.36545
4.41731
4.46748
4.51593
4.5626
4.6075
4.65057
4.69182
4.73123
4.76877
4.80445
4.83822
4.87008
4.9
4.92796
4.95394
4.97791
4.99985
5.01977
5.03766
5.05349
5.06724
5.07889
5.0884
5.09577
5.10089
5.10388
5.1044
5.10286
5.09876
5.092
5.08274
5.07093
5.0565
5.03938
5.01949
4.99675
4.97108
4.94264
4.9114
4.87708
4.83957
4.79879
4.7547
4.70724
4.65641
4.602
4.54409
4.48269
4.41781
4.34949
4.27779
4.20274
4.12446
4.04309
3.95875
3.87164
3.78195
3.68989
3.59571
3.4997
3.40217
3.30346
3.20395
3.10399
3.00395
2.90432
2.80539
2.70781
2.61153
2.51822
2.42577
2.33921
2.25099
2.17585
2.08876