/*--------------------------------*- C++ -*----------------------------------*\
| =========                 |                                                 |
| \\      /  F ield         | OpenFOAM: The Open Source CFD Toolbox           |
|  \\    /   O peration     | Version:  2112                                  |
|   \\  /    A nd           | Website:  www.openfoam.com                      |
|    \\/     M anipulation  |                                                 |
\*---------------------------------------------------------------------------*/
FoamFile
{
    version     2.0;
    format      ascii;
    arch        "LSB;label=32;scalar=64";
    class       volScalarField;
    location    "0.15";
    object      kU_0;
}
// * * * * * * * * * * * * * * * * * * * * * * * * * * * * * * * * * * * * * //

dimensions      [0 2 -2 0 0 0 0];

internalField   nonuniform List<scalar> 
12225
(
0.535035
0.804695
0.988842
1.09681
1.15178
1.17076
1.16757
1.15726
1.13735
1.11286
1.08928
1.0631
1.04161
1.01626
0.999109
0.975022
0.963026
0.937657
0.378389
0.385973
0.39121
0.394514
0.396574
0.398225
0.399314
0.4018
0.404073
0.409031
0.413264
0.421073
0.427484
0.4385
0.446047
0.460625
0.469414
0.484085
0.375173
0.374422
0.372409
0.368421
0.363728
0.358064
0.352479
0.346598
0.341162
0.336075
0.331453
0.327612
0.324199
0.321695
0.319648
0.318497
0.31776
0.317917
0.375056
0.374581
0.373494
0.371396
0.368927
0.365771
0.362583
0.358876
0.355398
0.351536
0.348119
0.344363
0.34126
0.337759
0.335117
0.331997
0.32985
0.327147
0.375065
0.374811
0.374217
0.373072
0.371708
0.369977
0.368184
0.366088
0.364056
0.361766
0.359665
0.357306
0.35527
0.352921
0.351049
0.348762
0.347132
0.344907
0.37507
0.374926
0.374563
0.373863
0.373015
0.371965
0.370848
0.369568
0.368282
0.366864
0.3655
0.364014
0.362648
0.361141
0.359835
0.358329
0.357149
0.355626
0.375059
0.374974
0.374735
0.374271
0.373699
0.373007
0.372255
0.37141
0.370538
0.369598
0.368663
0.367673
0.366718
0.365709
0.364773
0.363761
0.362889
0.361848
0.375038
0.374985
0.37482
0.374496
0.37409
0.373606
0.373072
0.372481
0.371861
0.371201
0.370531
0.369835
0.369145
0.368435
0.367747
0.367035
0.366379
0.365643
0.375014
0.374975
0.374854
0.374621
0.374324
0.373972
0.37358
0.373149
0.372692
0.37221
0.371715
0.371205
0.370692
0.37017
0.369655
0.369132
0.36863
0.36809
0.374992
0.37495
0.374856
0.374684
0.374463
0.374201
0.373907
0.373584
0.37324
0.372878
0.372504
0.372119
0.371729
0.371334
0.370939
0.370542
0.370152
0.369743
0.374971
0.374916
0.374836
0.374706
0.37454
0.374342
0.374119
0.373874
0.373611
0.373334
0.373046
0.37275
0.372449
0.372143
0.371836
0.371527
0.371219
0.370901
0.374953
0.374881
0.374804
0.3747
0.37457
0.374416
0.374241
0.374049
0.373841
0.373622
0.373394
0.373158
0.372917
0.372672
0.372423
0.372173
0.371922
0.371664
0.374938
0.374846
0.374767
0.374677
0.374573
0.374452
0.374316
0.374165
0.374002
0.373829
0.373647
0.373459
0.373265
0.373067
0.372865
0.372661
0.372455
0.372243
0.374925
0.374809
0.374719
0.374637
0.374552
0.374458
0.374354
0.37424
0.374117
0.373984
0.373845
0.373698
0.373547
0.37339
0.37323
0.373066
0.3729
0.372729
0.374913
0.374774
0.374668
0.374582
0.374506
0.374431
0.374353
0.374269
0.374179
0.374081
0.373978
0.373868
0.373753
0.373632
0.373508
0.373379
0.373247
0.373111
0.374905
0.374744
0.374618
0.374521
0.374444
0.374377
0.374314
0.374251
0.374186
0.374116
0.374041
0.373961
0.373875
0.373785
0.373689
0.37359
0.373486
0.373379
0.374899
0.374721
0.374577
0.374465
0.374378
0.374308
0.37425
0.374197
0.374145
0.374092
0.374037
0.373977
0.373912
0.373843
0.37377
0.373692
0.37361
0.373524
0.374896
0.374708
0.374551
0.374425
0.374326
0.374247
0.374183
0.374129
0.374078
0.374029
0.37398
0.373927
0.373872
0.373812
0.373749
0.373682
0.373611
0.373537
0.374896
0.374705
0.374544
0.374412
0.374305
0.374216
0.374141
0.374075
0.374013
0.373952
0.373891
0.373828
0.373763
0.373695
0.373624
0.37355
0.373473
0.373395
0.374898
0.374715
0.374561
0.374433
0.374322
0.374224
0.374132
0.374044
0.373956
0.373867
0.373776
0.373682
0.373585
0.373486
0.373385
0.373282
0.373177
0.373071
0.374904
0.374735
0.374591
0.374463
0.374344
0.374228
0.37411
0.37399
0.373865
0.373737
0.373605
0.373469
0.37333
0.373189
0.373046
0.372902
0.372757
0.372613
0.374914
0.374763
0.374625
0.374489
0.374346
0.374195
0.374035
0.373866
0.373688
0.373504
0.373314
0.373119
0.372921
0.37272
0.372518
0.372315
0.372113
0.371912
0.374929
0.374796
0.374653
0.374488
0.3743
0.374092
0.373866
0.373624
0.373369
0.373103
0.37283
0.37255
0.372265
0.371978
0.37169
0.371402
0.371114
0.370832
0.37495
0.374827
0.374657
0.374437
0.374172
0.373873
0.373543
0.373189
0.372814
0.372423
0.37202
0.371608
0.371191
0.37077
0.370347
0.369926
0.369506
0.369096
0.374972
0.374844
0.374617
0.374299
0.3739
0.373447
0.372941
0.372399
0.37182
0.371219
0.370597
0.369964
0.36932
0.368674
0.368025
0.367383
0.366738
0.366118
0.374988
0.374833
0.3745
0.373995
0.373339
0.372598
0.371753
0.370858
0.369889
0.368896
0.367858
0.366816
0.365747
0.364694
0.363623
0.362589
0.361531
0.360544
0.37501
0.374774
0.374223
0.373313
0.372084
0.37073
0.369137
0.367497
0.365682
0.363883
0.361965
0.360109
0.358174
0.356337
0.354441
0.352681
0.350853
0.349215
0.375129
0.374769
0.373789
0.371936
0.3694
0.366701
0.363452
0.360273
0.356714
0.353395
0.349842
0.346611
0.343271
0.340262
0.337276
0.33453
0.331959
0.329519
0.376923
0.379841
0.381431
0.381363
0.380881
0.379893
0.378228
0.376651
0.374952
0.373621
0.372509
0.371779
0.371591
0.371785
0.372294
0.373218
0.374766
0.375984
0.459539
0.609324
0.730001
0.821268
0.887081
0.932665
0.962756
0.981456
0.991707
0.996112
0.995501
0.993275
0.988696
0.982494
0.97549
0.967982
0.960255
0.952448
0.00059276
0.00275124
0.00384502
0.00458263
0.00511579
0.00560859
0.00642498
0.00752141
0.00895583
0.0106086
0.0124945
0.0144114
0.0160571
0.0174
0.0183615
0.0186662
0.018464
0.0179821
0.0173884
0.0165261
0.0152096
0.0132351
0.0103397
0.00626206
0.00239979
0.00195149
0.00269886
0.00344215
0.00379014
0.00459194
0.0065139
0.00851887
0.00859924
0.0078309
0.00600423
0.00431616
0.00298383
0.00266377
0.00867013
0.0290644
0.0477041
0.0612293
0.0736111
0.0842397
0.0941317
0.103139
0.11163
0.119643
0.127366
0.134874
0.142272
0.149638
0.156865
0.163998
0.170987
0.177955
0.184851
0.191749
0.198633
0.205533
0.212452
0.219402
0.226385
0.233407
0.240468
0.24757
0.25471
0.261887
0.269097
0.276337
0.283602
0.290886
0.298184
0.305491
0.3128
0.320105
0.327401
0.33468
0.341937
0.349165
0.356359
0.363511
0.370615
0.377666
0.384656
0.39158
0.39843
0.405199
0.411881
0.418468
0.424954
0.431332
0.437594
0.443734
0.449745
0.455623
0.461364
0.466967
0.472435
0.47778
0.483025
0.488211
0.493281
0.498225
0.50305
0.507751
0.512328
0.516783
0.521112
0.525319
0.5294
0.533359
0.537194
0.540909
0.544502
0.547977
0.551333
0.554574
0.557699
0.560712
0.563613
0.566404
0.569086
0.571662
0.574132
0.576499
0.578764
0.580928
0.582992
0.584956
0.586814
0.588554
0.590138
0.591483
0.59265
0.593634
0.594441
0.595057
0.595476
0.595688
0.595648
0.595425
0.594819
0.593972
0.592878
0.591465
0.589722
0.587639
0.585189
0.582337
0.579094
0.575496
0.571444
0.566962
0.562027
0.556631
0.550764
0.544417
0.537587
0.53027
0.522466
0.514177
0.505405
0.496159
0.486483
0.477331
0.47231
0.471429
0.470514
0.469243
0.467512
0.465338
0.462489
0.459416
0.455281
0.450662
0.445496
0.436478
0.429196
0.392899
0.00134423
0.00158915
0.00236056
0.00250109
0.00256987
0.00376528
0.00665443
0.0118287
0.0178338
0.023586
0.0290298
0.0338922
0.0379069
0.0410558
0.0430799
0.0441047
0.044041
0.0434391
0.0419466
0.0391182
0.0351034
0.0297719
0.0233691
0.0157678
0.00902538
0.00504638
0.00323305
0.00258595
0.00297261
0.0060644
0.0143531
0.0250587
0.0260802
0.0218776
0.0152408
0.00808964
0.0111269
0.0217897
0.0369305
0.0579335
0.0776682
0.0962414
0.115789
0.135541
0.155826
0.176428
0.196359
0.215476
0.233789
0.251353
0.268215
0.284481
0.300237
0.315595
0.330608
0.345373
0.359954
0.374434
0.388847
0.403258
0.417689
0.432186
0.446765
0.461452
0.476258
0.491197
0.506271
0.521485
0.536838
0.552327
0.567945
0.583686
0.59954
0.615497
0.631546
0.647674
0.66387
0.68012
0.696412
0.712733
0.72907
0.74541
0.76174
0.778047
0.794318
0.810539
0.826696
0.842777
0.858766
0.874649
0.890411
0.906038
0.921514
0.936822
0.951947
0.966873
0.981582
0.996057
1.01028
1.02424
1.03792
1.05126
1.06447
1.07748
1.0903
1.10294
1.11537
1.1276
1.13963
1.15146
1.16308
1.1745
1.18571
1.19672
1.20752
1.21812
1.22852
1.23872
1.24873
1.25854
1.26818
1.27762
1.28689
1.29598
1.30491
1.31366
1.32226
1.33069
1.33898
1.34713
1.35515
1.36307
1.37093
1.3788
1.38647
1.3939
1.4011
1.40805
1.41474
1.42113
1.42721
1.43296
1.43833
1.4433
1.44786
1.45194
1.45552
1.45856
1.46102
1.46279
1.4638
1.46423
1.46392
1.46276
1.46075
1.45784
1.45399
1.44916
1.44331
1.43641
1.42841
1.4193
1.40904
1.39758
1.38489
1.37108
1.35658
1.34127
1.32484
1.30729
1.28848
1.26868
1.24732
1.22548
1.20114
1.17737
1.14993
1.1212
1.09581
1.02785
0.000654326
0.00054156
0.000785115
0.000982912
0.0017383
0.0039428
0.00877214
0.015048
0.0216841
0.0284109
0.0347664
0.0403724
0.0449888
0.0484753
0.0508809
0.0523005
0.0529113
0.0527843
0.0522712
0.0511302
0.0491076
0.0459743
0.0412209
0.0349925
0.0266298
0.0178435
0.00986129
0.00601827
0.00490102
0.00669882
0.0191105
0.0356403
0.0361195
0.0267477
0.0236029
0.0253311
0.04191
0.0673304
0.092564
0.122026
0.154074
0.187888
0.221629
0.254273
0.285166
0.313959
0.341095
0.367018
0.391728
0.415398
0.438162
0.46017
0.481552
0.502422
0.522877
0.543038
0.562985
0.582792
0.602526
0.62224
0.641982
0.66179
0.681695
0.701723
0.721891
0.742213
0.762697
0.783347
0.804164
0.825143
0.846279
0.867562
0.888982
0.910527
0.932182
0.953932
0.975763
0.997658
1.0196
1.04158
1.06356
1.08555
1.10752
1.12946
1.15134
1.17316
1.19489
1.21652
1.23804
1.25942
1.28065
1.30172
1.3226
1.34329
1.36376
1.38401
1.40402
1.42378
1.44329
1.46254
1.48155
1.50029
1.51878
1.53701
1.55497
1.57265
1.59005
1.60716
1.62399
1.64051
1.65674
1.67266
1.68828
1.70359
1.7186
1.7333
1.7477
1.76179
1.77558
1.78907
1.80227
1.81518
1.8278
1.84013
1.85219
1.86396
1.87546
1.88669
1.89765
1.90834
1.91876
1.9289
1.93875
1.94831
1.95753
1.96637
1.97483
1.98287
1.99049
1.99764
2.00431
2.01046
2.01604
2.02104
2.02541
2.02909
2.03205
2.03428
2.03557
2.03603
2.03559
2.0342
2.03176
2.02823
2.02355
2.01768
2.01056
2.00216
1.99242
1.9813
1.96877
1.95479
1.93935
1.92239
1.90391
1.88397
1.86269
1.84001
1.81585
1.79023
1.7631
1.73462
1.70452
1.6734
1.64019
1.60671
1.57056
1.53318
1.50102
1.43471
0.00018155
0.000196588
0.000506651
0.00181169
0.00524778
0.0125056
0.0214363
0.0303915
0.0390394
0.0469604
0.0537398
0.059086
0.0628744
0.0652203
0.0663926
0.0664598
0.0660935
0.0651332
0.0635803
0.0616089
0.0591544
0.0560761
0.0520227
0.0467409
0.0399694
0.0320262
0.0238329
0.0162632
0.0120851
0.0184781
0.0477756
0.059744
0.0467919
0.0413544
0.0476052
0.0714402
0.102285
0.133963
0.170049
0.208148
0.246883
0.284651
0.321162
0.356152
0.389588
0.421558
0.452241
0.481776
0.510257
0.537809
0.564551
0.590592
0.616035
0.640984
0.665545
0.689807
0.713852
0.737751
0.761572
0.785372
0.809201
0.833104
0.857114
0.881264
0.905576
0.930067
0.954749
0.97963
1.00471
1.02999
1.05546
1.08112
1.10695
1.13293
1.15906
1.18531
1.21167
1.23811
1.26462
1.29118
1.31776
1.34434
1.37091
1.39745
1.42393
1.45034
1.47665
1.50285
1.52893
1.55485
1.5806
1.60616
1.63152
1.65666
1.68156
1.70621
1.73059
1.7547
1.77853
1.80205
1.82528
1.8482
1.87079
1.89304
1.91495
1.93651
1.95771
1.97854
1.999
2.01907
2.03876
2.05805
2.07694
2.09543
2.11352
2.1312
2.14846
2.16532
2.18177
2.19781
2.21345
2.22868
2.24352
2.25795
2.27198
2.28562
2.29886
2.3117
2.32414
2.33617
2.3478
2.359
2.36975
2.38005
2.38986
2.39917
2.40794
2.41616
2.4238
2.43083
2.43721
2.44292
2.44791
2.45214
2.45557
2.45815
2.45981
2.46048
2.46019
2.45885
2.4564
2.45278
2.44792
2.44176
2.43424
2.42531
2.41493
2.40304
2.3896
2.37456
2.35789
2.33955
2.31954
2.29781
2.27438
2.24926
2.22252
2.19412
2.16405
2.13233
2.09898
2.06411
2.02761
1.98986
1.95035
1.91021
1.86823
1.82547
1.78746
1.72555
0.000305567
0.000359525
0.00181487
0.00588435
0.0149428
0.0268169
0.0386024
0.0495248
0.058724
0.0657011
0.070581
0.073797
0.0757954
0.0768729
0.077118
0.0768475
0.0760525
0.0746267
0.0727169
0.0703604
0.0675595
0.064266
0.0603201
0.0554756
0.0495407
0.0426392
0.0352331
0.0282473
0.0256955
0.0455497
0.0753607
0.0767388
0.0695682
0.0722009
0.0981836
0.130478
0.165802
0.204146
0.244434
0.284695
0.324152
0.362413
0.399541
0.435508
0.470376
0.504223
0.537134
0.569184
0.600439
0.630969
0.660838
0.690116
0.718886
0.747227
0.775215
0.802927
0.830432
0.857799
0.885093
0.912372
0.939688
0.967089
0.994617
1.02231
1.05018
1.07827
1.10659
1.13515
1.16395
1.193
1.22229
1.25181
1.28154
1.31148
1.3416
1.37189
1.40231
1.43285
1.46349
1.49419
1.52494
1.5557
1.58647
1.6172
1.64788
1.67849
1.709
1.73939
1.76965
1.79973
1.82963
1.85933
1.8888
1.91802
1.94697
1.97564
2.00402
2.03207
2.05979
2.08716
2.11417
2.14081
2.16705
2.19289
2.21832
2.24331
2.26787
2.29199
2.31565
2.33884
2.36155
2.38379
2.40553
2.42678
2.44752
2.46776
2.48748
2.50669
2.52538
2.54356
2.56121
2.57836
2.59498
2.61109
2.62669
2.64176
2.65632
2.67036
2.68387
2.69684
2.70928
2.72115
2.73245
2.74315
2.75324
2.76269
2.77147
2.77955
2.78691
2.79352
2.79933
2.80432
2.80844
2.81165
2.81392
2.81509
2.81527
2.81432
2.81222
2.8089
2.80428
2.79832
2.79094
2.78208
2.77167
2.75967
2.74603
2.73069
2.71363
2.69478
2.67412
2.65162
2.62726
2.60103
2.57294
2.54299
2.51123
2.47765
2.44228
2.40516
2.36634
2.32592
2.2839
2.24055
2.19569
2.15012
2.10331
2.05615
2.01313
1.95335
0.000436858
0.00129886
0.00528898
0.0154824
0.0321194
0.0481359
0.0608876
0.0695993
0.0751593
0.0788415
0.0814558
0.0833537
0.0846354
0.0853024
0.0853103
0.0849106
0.0839062
0.0822955
0.0801819
0.0775968
0.0745595
0.0710593
0.067012
0.0622301
0.0565876
0.0500487
0.0433511
0.0376875
0.0428843
0.0736568
0.0928867
0.0951561
0.0965789
0.116565
0.149531
0.185993
0.225011
0.265694
0.306468
0.346381
0.385325
0.423351
0.460562
0.497016
0.532779
0.567904
0.602437
0.636412
0.669849
0.702766
0.735198
0.767186
0.798777
0.83002
0.86097
0.891686
0.922227
0.952655
0.983029
1.01341
1.04384
1.07439
1.10509
1.13599
1.16711
1.19849
1.23015
1.2621
1.29435
1.3269
1.35975
1.39289
1.42631
1.45998
1.49389
1.528
1.56231
1.59677
1.63135
1.66604
1.70079
1.73558
1.77038
1.80516
1.8399
1.87457
1.90914
1.94358
1.97788
2.01199
2.04591
2.0796
2.11303
2.14619
2.17905
2.2116
2.24379
2.27563
2.30708
2.33812
2.36874
2.39891
2.42862
2.45786
2.48661
2.51486
2.5426
2.56981
2.59648
2.62259
2.64815
2.67313
2.69753
2.72134
2.74455
2.76715
2.78913
2.81049
2.83122
2.85133
2.8708
2.88964
2.90786
2.92544
2.94238
2.95868
2.97435
2.98937
3.00373
3.01744
3.03048
3.04284
3.05449
3.06541
3.07559
3.085
3.0936
3.10137
3.10827
3.11427
3.11934
3.12343
3.1265
3.12849
3.12933
3.12904
3.12755
3.12478
3.12069
3.11521
3.10827
3.0998
3.08973
3.078
3.06455
3.04933
3.03228
3.01338
2.99257
2.96982
2.94509
2.91835
2.88961
2.85886
2.82609
2.79134
2.75464
2.71603
2.67555
2.63327
2.58926
2.54364
2.49647
2.44801
2.39825
2.34782
2.29661
2.24542
2.1978
2.13846
0.000721892
0.00420089
0.0143219
0.0361448
0.0559382
0.0683589
0.0755818
0.0802496
0.0837454
0.0865485
0.0887803
0.0904527
0.0915509
0.0920513
0.0919665
0.0914075
0.0902116
0.0884469
0.0861622
0.083387
0.0801398
0.0764069
0.0721071
0.0671176
0.0613893
0.0550157
0.0484041
0.0462423
0.0599682
0.0911011
0.107547
0.114484
0.128928
0.158573
0.19525
0.23429
0.274687
0.315385
0.355387
0.394438
0.432691
0.470314
0.507434
0.544137
0.580486
0.616527
0.652279
0.687736
0.722888
0.757738
0.792288
0.826548
0.860536
0.894278
0.927808
0.961169
0.994409
1.02758
1.06074
1.09394
1.12724
1.16068
1.19433
1.22822
1.26239
1.29688
1.3317
1.36689
1.40245
1.43838
1.47468
1.51134
1.54835
1.58568
1.6233
1.66119
1.69932
1.73765
1.77615
1.81477
1.8535
1.89228
1.93109
1.9699
2.00866
2.04736
2.08596
2.12443
2.16274
2.20086
2.23876
2.27641
2.31378
2.35084
2.38757
2.42393
2.45991
2.49546
2.53058
2.56522
2.59937
2.63301
2.66612
2.69868
2.73068
2.76209
2.79291
2.82312
2.8527
2.88164
2.90992
2.93755
2.96449
2.99074
3.01629
3.04113
3.06524
3.08862
3.11127
3.13316
3.15431
3.17472
3.19437
3.21326
3.2314
3.24878
3.26539
3.28123
3.29629
3.31057
3.32405
3.33672
3.34856
3.35954
3.36965
3.37884
3.38709
3.39437
3.40063
3.40584
3.40997
3.41296
3.41475
3.4153
3.41459
3.41256
3.40917
3.40434
3.39802
3.39014
3.38061
3.36937
3.35635
3.34149
3.32472
3.30599
3.28526
3.26251
3.2377
3.21078
3.18173
3.15054
3.1172
3.08171
3.04409
3.00438
2.96264
2.91893
2.87332
2.8259
2.77676
2.72607
2.67392
2.62057
2.56612
2.51115
2.45573
2.40069
2.34865
2.28871
0.00732803
0.0132418
0.0342991
0.0580492
0.0709424
0.0784491
0.0836026
0.0875052
0.0905949
0.0930483
0.0949474
0.0963153
0.0971452
0.0974032
0.097133
0.0963228
0.0949394
0.093015
0.0905543
0.0875647
0.0840397
0.0799416
0.0752022
0.0696006
0.0631989
0.0563958
0.0519452
0.0546682
0.0755806
0.104829
0.121578
0.135997
0.160862
0.195533
0.234054
0.273891
0.314097
0.353884
0.392803
0.430908
0.468435
0.505583
0.542496
0.579272
0.615979
0.652649
0.689277
0.725845
0.762335
0.798727
0.835002
0.871146
0.907156
0.943038
0.978811
1.0145
1.05015
1.0858
1.12149
1.15729
1.19325
1.22942
1.26585
1.30259
1.33968
1.37717
1.41508
1.45343
1.49224
1.53151
1.57123
1.6114
1.652
1.69299
1.73435
1.77603
1.81801
1.86024
1.90268
1.94529
1.98802
2.03083
2.07369
2.11655
2.15938
2.20215
2.24481
2.28734
2.32969
2.37184
2.41375
2.45538
2.4967
2.53767
2.57826
2.61844
2.65818
2.69745
2.73621
2.77443
2.81209
2.84916
2.88563
2.92146
2.95665
2.99116
3.025
3.05813
3.09054
3.12222
3.15315
3.18331
3.2127
3.24129
3.26907
3.29603
3.32215
3.34743
3.37185
3.39541
3.41809
3.43991
3.46084
3.4809
3.50007
3.51835
3.53573
3.55221
3.56779
3.58245
3.59619
3.60898
3.62081
3.63165
3.64147
3.65024
3.65793
3.66449
3.66988
3.67407
3.677
3.6786
3.67887
3.67773
3.67515
3.67108
3.66547
3.65826
3.64937
3.63874
3.62629
3.61193
3.59559
3.57721
3.55673
3.5341
3.50931
3.48232
3.45311
3.42166
3.38793
3.35193
3.31365
3.27312
3.23036
3.18545
3.13844
3.08944
3.03856
2.98589
2.93158
2.8758
2.81874
2.7606
2.70159
2.64226
2.58276
2.524
2.46769
2.40664
0.0179232
0.0259905
0.0525155
0.0699627
0.0797454
0.0859335
0.0902633
0.0935385
0.0961743
0.098228
0.0997527
0.100753
0.101213
0.101143
0.10057
0.0994522
0.0978014
0.0956091
0.0928304
0.0894196
0.0853593
0.0806586
0.0752402
0.0692149
0.0625405
0.0567134
0.0552574
0.0647338
0.0906102
0.117269
0.136474
0.159001
0.190203
0.226982
0.265785
0.305116
0.344268
0.382775
0.420499
0.457607
0.494348
0.530932
0.567509
0.604189
0.641033
0.678059
0.715259
0.752617
0.790102
0.827682
0.865322
0.902997
0.940686
0.978383
1.01609
1.05383
1.09162
1.12951
1.16754
1.20575
1.24421
1.28296
1.32207
1.36158
1.40153
1.44198
1.48294
1.52445
1.56652
1.60915
1.65235
1.69608
1.74032
1.78505
1.83021
1.87577
1.92168
1.96789
2.01436
2.06103
2.10785
2.15477
2.20175
2.24874
2.2957
2.34259
2.38937
2.43601
2.48246
2.52869
2.57464
2.62028
2.66558
2.71048
2.75495
2.79895
2.84246
2.88543
2.92782
2.9696
3.01073
3.05119
3.09096
3.13001
3.16832
3.20586
3.24263
3.2786
3.31375
3.34806
3.38151
3.4141
3.4458
3.47659
3.50646
3.5354
3.56338
3.59039
3.61643
3.64147
3.66552
3.68856
3.71059
3.73161
3.75161
3.77058
3.78852
3.80542
3.82128
3.83609
3.84984
3.8625
3.87406
3.88449
3.89376
3.90183
3.90866
3.91421
3.91844
3.92128
3.92267
3.92259
3.92098
3.91778
3.91295
3.90645
3.89822
3.8882
3.87633
3.86252
3.84669
3.82877
3.80868
3.78634
3.76167
3.73467
3.70533
3.67363
3.63957
3.60312
3.56427
3.52302
3.47941
3.43346
3.38521
3.33476
3.28219
3.22765
3.17127
3.11319
3.05359
2.99265
2.93066
2.86778
2.80427
2.74072
2.67723
2.61493
2.55449
2.49232
0.0242577
0.0364423
0.0640214
0.0787248
0.0867229
0.0917335
0.0953058
0.0979694
0.0999741
0.101459
0.102494
0.103065
0.10317
0.102811
0.101922
0.100443
0.0983921
0.095783
0.092653
0.0889871
0.0847175
0.0797504
0.0740122
0.0675088
0.0606402
0.0575677
0.060376
0.0774194
0.104743
0.129985
0.153504
0.181983
0.216066
0.253056
0.290989
0.328986
0.366608
0.403627
0.440049
0.476065
0.511915
0.547803
0.583885
0.620273
0.657017
0.694135
0.731625
0.769467
0.807627
0.846066
0.884745
0.923627
0.962685
1.0019
1.04127
1.0808
1.12052
1.16045
1.20063
1.24112
1.28197
1.32323
1.36496
1.4072
1.45001
1.49343
1.53749
1.58222
1.62763
1.67372
1.72048
1.76789
1.81591
1.86449
1.91359
1.96315
2.01312
2.06343
2.11404
2.16488
2.21588
2.26701
2.3182
2.3694
2.42056
2.47164
2.5226
2.5734
2.624
2.67434
2.72437
2.77406
2.82334
2.87218
2.92052
2.96834
3.01559
3.06222
3.1082
3.15348
3.19802
3.24179
3.28478
3.32695
3.36828
3.40875
3.44833
3.487
3.52474
3.56153
3.59735
3.63219
3.66602
3.69884
3.73061
3.76132
3.79095
3.81949
3.84692
3.87323
3.89841
3.92244
3.94532
3.96705
3.98761
4.00701
4.02522
4.04225
4.05811
4.07277
4.08622
4.09844
4.10941
4.1191
4.12747
4.13449
4.14011
4.14428
4.14695
4.14807
4.14756
4.14538
4.14147
4.13577
4.12824
4.11884
4.10751
4.09419
4.07883
4.06134
4.04164
4.01964
3.99528
3.96846
3.93909
3.90718
3.87275
3.83581
3.79636
3.75439
3.70991
3.66294
3.61352
3.5617
3.50757
3.45125
3.3928
3.33242
3.27029
3.2066
3.14153
3.07533
3.00815
2.94025
2.87202
2.80419
2.73663
2.67099
2.6064
2.54363
0.0274248
0.0464417
0.0725691
0.0852221
0.0918702
0.095893
0.0984743
0.100252
0.101623
0.102695
0.103393
0.103624
0.103365
0.10259
0.101297
0.0995219
0.0972419
0.094436
0.0910906
0.0871564
0.082557
0.0771494
0.0708561
0.0639159
0.0599958
0.0597766
0.0691843
0.0915699
0.118496
0.144531
0.172095
0.203655
0.23827
0.274241
0.310538
0.346693
0.382483
0.417831
0.452806
0.487588
0.522388
0.557404
0.592795
0.628665
0.665063
0.702014
0.73952
0.777559
0.816099
0.855102
0.894524
0.934328
0.974482
1.01496
1.05577
1.09689
1.13835
1.18017
1.2224
1.26508
1.30826
1.35201
1.39637
1.4414
1.48714
1.53363
1.5809
1.62898
1.67787
1.72758
1.77808
1.82935
1.88132
1.93395
1.98716
2.04089
2.09506
2.14962
2.20449
2.25961
2.31492
2.37034
2.42582
2.4813
2.53673
2.59206
2.64724
2.70224
2.757
2.81147
2.86559
2.91931
2.97256
3.02531
3.07749
3.12906
3.17998
3.2302
3.27967
3.32833
3.37616
3.42311
3.46917
3.51431
3.5585
3.60171
3.64392
3.6851
3.72523
3.76429
3.80225
3.83911
3.87483
3.90941
3.94281
3.97503
4.00604
4.03582
4.06435
4.09163
4.11764
4.14235
4.16578
4.18789
4.20869
4.22816
4.24631
4.26312
4.27861
4.29275
4.30552
4.31692
4.3269
4.33544
4.3425
4.34804
4.35201
4.35435
4.35503
4.35396
4.35107
4.34632
4.33964
4.33093
4.32018
4.30734
4.29237
4.27521
4.25579
4.23403
4.20987
4.18322
4.15401
4.12216
4.08753
4.05016
4.01009
3.96735
3.92195
3.8739
3.82328
3.77006
3.71433
3.65619
3.59573
3.53297
3.46778
3.40072
3.33205
3.26201
3.19083
3.11883
3.04629
2.974
2.90183
2.83055
2.75966
2.69148
2.62339
2.56049
0.0286352
0.0535998
0.0792549
0.090529
0.0957706
0.0983978
0.0997873
0.100927
0.101741
0.10213
0.102188
0.101901
0.101234
0.10015
0.0986251
0.0966064
0.0940941
0.0910897
0.087474
0.0831538
0.0780826
0.0722589
0.0659057
0.0616057
0.060658
0.0650736
0.0817157
0.106471
0.133389
0.161192
0.19112
0.223406
0.257086
0.291258
0.325436
0.359419
0.393146
0.426632
0.459972
0.493322
0.526862
0.560768
0.595229
0.63034
0.666155
0.702697
0.739969
0.777953
0.816622
0.855937
0.895862
0.93636
0.9774
1.01896
1.06104
1.10363
1.14673
1.19037
1.23461
1.27947
1.32502
1.37132
1.41842
1.46637
1.51521
1.56497
1.61567
1.66732
1.71994
1.7735
1.82799
1.88335
1.93952
1.99641
2.05395
2.11204
2.1706
2.22956
2.28883
2.34836
2.40806
2.46786
2.5277
2.58752
2.64725
2.70684
2.76625
2.82543
2.88432
2.94288
3.00103
3.05871
3.11585
3.1724
3.2283
3.28349
3.33794
3.39157
3.44435
3.49621
3.54711
3.59702
3.64593
3.69379
3.74059
3.78629
3.83086
3.87427
3.9165
3.95752
3.99731
4.03586
4.07314
4.10914
4.14383
4.17719
4.20921
4.23986
4.26912
4.29699
4.32343
4.34845
4.37202
4.39413
4.41475
4.43388
4.45153
4.46771
4.48239
4.49557
4.50722
4.51733
4.52585
4.53276
4.53801
4.54158
4.54339
4.54337
4.54155
4.53772
4.53191
4.52405
4.51406
4.50179
4.48725
4.47041
4.45121
4.4296
4.40551
4.37887
4.34961
4.31767
4.28297
4.24547
4.20503
4.16166
4.11539
4.06625
4.01428
3.95948
3.90152
3.84076
3.77741
3.71162
3.64353
3.57334
3.50185
3.42886
3.35447
3.27893
3.20252
3.1256
3.0485
2.97169
2.89511
2.82009
2.74546
2.67485
2.60274
2.54042
0.0289237
0.0599888
0.0850653
0.0948341
0.0984724
0.0993627
0.0994906
0.0992428
0.0989887
0.098774
0.0984533
0.0978675
0.096912
0.0955394
0.0937465
0.0915373
0.0888987
0.0856768
0.0817736
0.0771915
0.0719918
0.0664575
0.0627516
0.0617688
0.0641178
0.0757029
0.09705
0.122811
0.150425
0.179411
0.209822
0.241253
0.273112
0.304997
0.336743
0.368326
0.39979
0.431209
0.462685
0.494377
0.526582
0.559471
0.593044
0.627365
0.662494
0.698468
0.735303
0.772996
0.811532
0.850888
0.891035
0.931948
0.973605
1.01599
1.05912
1.10299
1.14768
1.1932
1.23952
1.28668
1.33474
1.38378
1.43384
1.48497
1.5372
1.59054
1.64501
1.7006
1.7573
1.81507
1.87388
1.93366
1.99432
2.05577
2.11788
2.18056
2.24369
2.3072
2.37098
2.43499
2.49913
2.56335
2.62756
2.6917
2.75569
2.81949
2.88304
2.9463
3.00922
3.07172
3.13374
3.1952
3.25603
3.31617
3.37556
3.43414
3.49185
3.54862
3.6044
3.65913
3.71279
3.76533
3.81674
3.86698
3.91602
3.96383
4.01037
4.05562
4.09954
4.14211
4.18331
4.22312
4.26152
4.29849
4.334
4.36805
4.4006
4.43165
4.46116
4.48913
4.51553
4.54036
4.5636
4.58522
4.60516
4.62347
4.64013
4.65517
4.66854
4.68025
4.69025
4.69854
4.70505
4.70979
4.71268
4.7137
4.71277
4.70984
4.70481
4.69766
4.68831
4.6767
4.66278
4.6464
4.62751
4.60608
4.58205
4.55535
4.52589
4.49368
4.45859
4.42057
4.37957
4.33554
4.28819
4.23742
4.18348
4.12643
4.06635
4.00333
3.93804
3.87032
3.80008
3.72744
3.65261
3.57583
3.49729
3.4172
3.33594
3.25386
3.17127
3.08861
3.00615
2.92454
2.84351
2.76493
2.6865
2.61392
2.5376
2.47665
0.0283378
0.0656966
0.0902015
0.0981678
0.0998581
0.0987081
0.096704
0.0951989
0.0943257
0.0937047
0.0930072
0.0920574
0.0907805
0.0891563
0.0871875
0.0848535
0.081994
0.0785198
0.0744868
0.0700549
0.0656914
0.0632351
0.0626588
0.0644843
0.0729235
0.0914894
0.115199
0.141728
0.169746
0.198658
0.22809
0.257679
0.287166
0.316451
0.345556
0.374573
0.403624
0.432838
0.462363
0.492529
0.523247
0.554583
0.586738
0.619817
0.653893
0.689011
0.725196
0.762459
0.800795
0.840191
0.880631
0.922091
0.964557
1.00802
1.05248
1.09794
1.1444
1.19186
1.24041
1.29009
1.34097
1.3931
1.44653
1.5013
1.55742
1.61488
1.67366
1.73372
1.79501
1.85748
1.92105
1.98563
2.05111
2.11737
2.1843
2.25174
2.31959
2.38772
2.45605
2.52451
2.59306
2.66162
2.73011
2.79844
2.86655
2.93438
3.00187
3.06897
3.13564
3.2018
3.26737
3.33227
3.39643
3.45978
3.52226
3.58382
3.64437
3.70382
3.76213
3.81927
3.8752
3.92989
3.9833
4.03541
4.08618
4.13558
4.18357
4.23011
4.27517
4.31873
4.36077
4.40127
4.44022
4.47758
4.51335
4.54749
4.58
4.61084
4.64001
4.66747
4.69323
4.71727
4.73958
4.76012
4.77885
4.79579
4.81094
4.82428
4.8358
4.84547
4.85323
4.85911
4.863
4.86496
4.86482
4.86272
4.85831
4.85173
4.84287
4.83165
4.81801
4.80183
4.78316
4.76188
4.73788
4.71108
4.6814
4.64878
4.61292
4.57367
4.53121
4.48549
4.43649
4.38419
4.3289
4.27076
4.20944
4.14495
4.07739
4.00693
3.93361
3.85751
3.7789
3.698
3.61506
3.5304
3.44425
3.35693
3.26877
3.18018
3.09149
3.0032
2.91552
2.82934
2.74398
2.66214
2.58
2.506
2.42552
2.36652
0.0271122
0.0713315
0.0949214
0.101051
0.100271
0.0963208
0.0926223
0.0902678
0.0887529
0.0875306
0.0862994
0.0849129
0.0833058
0.0814515
0.0793224
0.0767837
0.0737825
0.0704789
0.0672033
0.0647675
0.0637814
0.0637533
0.0660834
0.073836
0.0902782
0.112282
0.137225
0.163885
0.191292
0.218882
0.246315
0.27342
0.300166
0.326627
0.35294
0.379277
0.405817
0.432735
0.460187
0.488178
0.516953
0.546674
0.577441
0.609341
0.642443
0.676798
0.712442
0.749396
0.787666
0.827248
0.868135
0.910321
0.953805
0.998586
1.04467
1.09209
1.14085
1.19094
1.24234
1.29514
1.34944
1.4053
1.46279
1.52194
1.58272
1.64506
1.7089
1.77414
1.84069
1.90842
1.97722
2.04693
2.11747
2.18871
2.26053
2.33278
2.40533
2.47803
2.55074
2.62349
2.69623
2.76888
2.84138
2.91361
2.9855
3.05697
3.12799
3.19849
3.26842
3.33771
3.40627
3.47403
3.5409
3.60683
3.67176
3.73562
3.79834
3.85982
3.92003
3.97894
4.03651
4.09268
4.14744
4.20074
4.25256
4.30285
4.35158
4.3987
4.44419
4.48803
4.53019
4.57065
4.60941
4.64645
4.68173
4.71524
4.74696
4.77686
4.80494
4.83117
4.85553
4.87801
4.89862
4.91733
4.93414
4.94903
4.96195
4.9729
4.98182
4.98872
4.99348
4.9962
4.99664
4.99509
4.99116
4.98492
4.97628
4.96521
4.95163
4.93546
4.9166
4.89482
4.86995
4.8421
4.81121
4.77718
4.73996
4.6995
4.65601
4.60957
4.55981
4.50667
4.45011
4.39016
4.32685
4.26006
4.18998
4.1167
4.04037
3.96116
3.87917
3.7946
3.70768
3.61866
3.52786
3.4356
3.34221
3.24802
3.15338
3.05874
2.9644
2.87097
2.77852
2.6883
2.59897
2.5144
2.42886
2.354
2.26976
2.21279
0.0256664
0.0764588
0.0991191
0.103615
0.0999034
0.0934449
0.0884558
0.0851415
0.0827617
0.080809
0.0789912
0.0771466
0.0752581
0.073295
0.0711865
0.068964
0.0669415
0.0656297
0.0650861
0.0650584
0.0662854
0.0702268
0.0791321
0.0952685
0.116406
0.139675
0.164518
0.190047
0.215617
0.240823
0.265489
0.289619
0.313324
0.33679
0.360235
0.383891
0.407989
0.432669
0.457828
0.483786
0.51077
0.538958
0.568442
0.599312
0.631645
0.665503
0.700935
0.737992
0.776689
0.817019
0.858978
0.902583
0.947849
0.994782
1.04337
1.09354
1.14529
1.19875
1.25405
1.31123
1.37028
1.43121
1.49401
1.55868
1.6252
1.69345
1.7633
1.8346
1.90716
1.98076
2.05515
2.13014
2.20572
2.28181
2.35828
2.43503
2.51196
2.58884
2.66559
2.74231
2.81889
2.89523
2.97125
3.04684
3.12191
3.19641
3.27025
3.34341
3.41583
3.48743
3.55813
3.62784
3.69651
3.76405
3.83044
3.89561
3.95951
4.0221
4.08332
4.14309
4.20135
4.25806
4.31318
4.36669
4.41856
4.46874
4.51719
4.56387
4.60877
4.65186
4.69312
4.73253
4.77009
4.80577
4.83955
4.87142
4.90134
4.92931
4.95529
4.97927
5.0012
5.02112
5.03901
5.05482
5.06856
5.0802
5.08968
5.09701
5.1021
5.10504
5.10549
5.1039
5.0997
5.09285
5.08349
5.07156
5.05699
5.03972
5.01967
4.99674
4.97088
4.94227
4.91081
4.87623
4.83844
4.79737
4.75296
4.70517
4.65396
4.59918
4.54087
4.47906
4.41375
4.345
4.27285
4.19735
4.11861
4.03677
3.95197
3.86441
3.77427
3.68177
3.58717
3.49075
3.39285
3.29379
3.19396
3.09372
2.99342
2.89357
2.79445
2.69673