/*--------------------------------*- C++ -*----------------------------------*\
| =========                 |                                                 |
| \\      /  F ield         | OpenFOAM: The Open Source CFD Toolbox           |
|  \\    /   O peration     | Version:  2112                                  |
|   \\  /    A nd           | Website:  www.openfoam.com                      |
|    \\/     M anipulation  |                                                 |
\*---------------------------------------------------------------------------*/
FoamFile
{
    version     2.0;
    format      ascii;
    arch        "LSB;label=32;scalar=64";
    class       volScalarField;
    location    "0.048";
    object      s_0;
}
// * * * * * * * * * * * * * * * * * * * * * * * * * * * * * * * * * * * * * //

dimensions      [0 0 0 0 0 0 0];

internalField   nonuniform List<scalar> 
12225
(
1
1
1
1
1
1
1
1
1
1
1
1
1
1
1
1
1
1
1
1
1
1
1
1
1
1
1
1
1
1
1
1
1
1
1
1
1
1
1
1
1
1
1
1
1
1
1
1
1
1
1
1
1
1
1
1
1
1
1
1
1
1
1
1
1
1
1
1
1
1
1
1
1
1
1
1
1
1
1
1
1
1
1
1
1
1
1
1
1
1
1
1
1
1
1
1
1
1
1
1
1
1
1
1
1
1
1
1
1
1
1
1
1
1
1
1
1
1
1
1
1
1
1
1
1
1
1
1
1
1
1
1
1
1
1
1
1
1
1
1
1
1
1
1
1
1
1
1
1
1
1
1
1
1
1
1
1
1
1
1
1
1
1
1
1
1
1
1
1
1
1
1
1
1
1
1
1
1
1
1
1
1
1
1
1
1
1
1
1
1
1
1
1
1
1
1
1
1
1
1
1
1
1
1
1
1
1
1
1
1
1
1
1
1
1
1
1
1
1
1
1
1
1
1
1
1
1
1
1
1
1
1
1
1
1
1
1
1
1
1
1
1
1
1
1
1
1
1
1
1
1
1
1
1
1
1
1
1
1
1
1
1
1
1
1
1
1
1
1
1
1
1
1
1
1
1
1
1
1
1
1
1
1
1
1
1
1
1
1
1
1
1
1
1
1
1
1
1
1
1
1
1
1
1
1
1
1
1
1
1
1
1
1
1
1
1
1
1
1
1
1
1
1
1
1
1
1
1
1
1
1
1
1
1
1
1
1
1
1
1
1
1
1
1
1
1
1
1
1
1
1
1
1
1
1
1
1
1
1
1
1
1
1
1
1
1
1
1
1
1
1
1
1
1
1
1
1
1
1
1
1
1
1
1
1
1
1
1
1
1
1
1
1
1
1
1
1
1
1
1
1
1
1
1
1
1
1
1
1
1
1
1
1
1
1
1
1
1
1
1
1
1
1
1
1
1
1
1
1
1
1
1
1
1
1
1
1
1
1
1
1
1
1
1
1
1
1
1
1
1
1
1
1
1
1
1
1
1
1
1
1
1
1
1
1
1
1
1
1
1
1
1
1
1
1
1
1
1
1
1
1
1
1
1
1
1
1
1
1
1
1
1
1
1
1
1
1
1
1
1
1
1
1
1
1
1
1
1
1
1
1
1
1
1
1
1
1
1
1
1
1
1
1
1
1
1
1
1
1
1
1
1
1
1
1
1
1
1
1
1
0.667735
0.673384
0.658995
0.655176
0.654318
0.658434
0.674535
0.690334
0.702926
0.710356
0.717515
0.72249
0.726309
0.729062
0.73117
0.7329
0.73371
0.734119
0.733847
0.733065
0.73167
0.730028
0.728039
0.725576
0.723332
0.721321
0.719318
0.718524
0.718699
0.719315
0.720904
0.723548
0.727543
0.732102
0.73704
0.740814
0.74317
0.748501
0.751686
0.740535
0.634136
0.566586
0.574596
0.590581
0.59662
0.601832
0.608366
0.614724
0.622564
0.635358
0.657426
0.692803
0.719313
0.722607
0.715314
0.699811
0.666164
0.647832
0.65764
0.742446
0.838118
0.866897
0.873215
0.875178
0.876189
0.877241
0.877646
0.877805
0.87794
0.878188
0.878544
0.878899
0.879163
0.87934
0.879547
0.8799
0.880349
0.880712
0.880955
0.881219
0.881598
0.882049
0.88245
0.882778
0.883159
0.883566
0.883733
0.883828
0.883948
0.884024
0.884016
0.883915
0.883799
0.883709
0.883572
0.883333
0.883055
0.882812
0.882642
0.882524
0.88246
0.882461
0.88256
0.882625
0.88281
0.883297
0.883868
0.884521
0.885245
0.886321
0.887366
0.888556
0.889852
0.891296
0.892669
0.894041
0.895332
0.896528
0.897612
0.898637
0.8996
0.90051
0.901376
0.902219
0.903054
0.90389
0.90473
0.905569
0.906386
0.907136
0.907718
0.908091
0.908348
0.908854
0.909813
0.911546
0.914175
0.916972
0.918982
0.919781
0.919869
0.919645
0.918542
0.914939
0.907619
0.90015
0.893984
0.888932
0.883566
0.877088
0.870304
0.86474
0.861282
0.859654
0.858689
0.857019
0.852403
0.840712
0.830177
0.816094
0.787377
0.719135
0.593982
0.442805
0.294105
0.173476
0.0913552
0.0434485
0.018916
0.00761452
0.00283994
0.000978305
0.000330088
0.000176276
0.000103153
5.77703e-05
3.10605e-05
1.59173e-05
7.78991e-06
-0.00141801
0.656939
0.670782
0.65576
0.622707
0.623434
0.636529
0.667191
0.693235
0.710306
0.719989
0.725573
0.72655
0.727161
0.726423
0.724339
0.719289
0.710371
0.699266
0.685615
0.669644
0.653914
0.637205
0.620255
0.602604
0.58829
0.575817
0.56243
0.553273
0.55187
0.553436
0.55979
0.573859
0.590667
0.616264
0.635824
0.667182
0.692497
0.715482
0.738985
0.74087
0.727355
0.656817
0.58098
0.561669
0.557455
0.548479
0.535742
0.527945
0.537139
0.560232
0.587214
0.632352
0.717384
0.755146
0.755028
0.729528
0.667457
0.658285
0.731951
0.826015
0.855715
0.865064
0.867359
0.867698
0.867604
0.867253
0.866416
0.865373
0.864515
0.864168
0.864088
0.864193
0.864482
0.864513
0.864527
0.864678
0.864815
0.864819
0.864741
0.864588
0.864365
0.863949
0.863284
0.862569
0.86197
0.861197
0.859795
0.857811
0.85521
0.852282
0.849175
0.846007
0.84298
0.839948
0.836818
0.833575
0.830316
0.826879
0.823478
0.82048
0.818074
0.816007
0.813785
0.811815
0.81097
0.810647
0.810626
0.81159
0.813744
0.81627
0.819602
0.824133
0.829777
0.836364
0.843634
0.851048
0.858427
0.865301
0.871224
0.87611
0.880371
0.884066
0.887211
0.889983
0.892605
0.89528
0.898188
0.901417
0.904917
0.908487
0.911811
0.914459
0.915989
0.916029
0.913499
0.906651
0.901171
0.899328
0.899969
0.906516
0.920339
0.930017
0.937049
0.942915
0.94722
0.949047
0.949124
0.948347
0.945695
0.938496
0.920529
0.903093
0.891405
0.885185
0.882519
0.881575
0.880992
0.879914
0.877191
0.869557
0.861652
0.856167
0.849241
0.832279
0.808097
0.79015
0.764035
0.718982
0.663146
0.616579
0.589127
0.578866
0.575198
0.57192
0.563336
0.538552
0.45368
0.315774
0.222502
0.112801
0.588131
0.586324
0.577548
0.61009
0.686571
0.748859
0.765235
0.763641
0.75911
0.750945
0.739264
0.724558
0.706104
0.681269
0.657261
0.637578
0.620728
0.603004
0.586593
0.568762
0.550603
0.530781
0.510444
0.488888
0.467435
0.445616
0.425037
0.406624
0.391308
0.382209
0.38109
0.383873
0.393916
0.422741
0.47101
0.531124
0.575235
0.62361
0.684839
0.723418
0.727791
0.72073
0.681318
0.595319
0.564632
0.541609
0.509835
0.494525
0.500173
0.53171
0.571297
0.606234
0.67762
0.752807
0.760107
0.721399
0.667114
0.688133
0.801293
0.832524
0.84298
0.839552
0.836057
0.833748
0.832227
0.830423
0.828486
0.82781
0.827642
0.827485
0.827066
0.826693
0.826584
0.826607
0.826475
0.82602
0.825234
0.824058
0.822554
0.820732
0.818566
0.815985
0.813069
0.810047
0.806994
0.80385
0.800988
0.798823
0.797043
0.79527
0.79381
0.792522
0.791179
0.789658
0.787901
0.785633
0.782998
0.779778
0.776094
0.772352
0.768793
0.765393
0.761948
0.758092
0.754131
0.750956
0.748384
0.745684
0.743718
0.741956
0.740654
0.739815
0.739677
0.740698
0.743033
0.746755
0.752155
0.75928
0.767924
0.777586
0.78728
0.796367
0.804228
0.810877
0.817074
0.823617
0.831416
0.841299
0.853775
0.868816
0.885398
0.901634
0.915265
0.925682
0.932805
0.935863
0.935388
0.925462
0.899898
0.885957
0.883208
0.884779
0.895712
0.915643
0.929941
0.941
0.950215
0.95663
0.959529
0.960001
0.95963
0.957684
0.950137
0.929413
0.912289
0.903748
0.901436
0.901753
0.905346
0.909343
0.910099
0.909485
0.904924
0.891566
0.881818
0.87751
0.876376
0.876767
0.879718
0.885421
0.89106
0.898538
0.905332
0.909561
0.910019
0.909341
0.904946
0.893987
0.86524
0.760878
0.524584
0.585784
0.745776
0.796148
0.803837
0.798705
0.771954
0.733371
0.703819
0.690617
0.677358
0.661897
0.650123
0.6371
0.625573
0.61439
0.603907
0.591655
0.579269
0.563466
0.5465
0.525987
0.504058
0.479694
0.454574
0.428802
0.404682
0.382375
0.36242
0.345462
0.332381
0.326528
0.326627
0.331575
0.348761
0.406717
0.490812
0.529836
0.581874
0.659186
0.707135
0.717257
0.713481
0.693338
0.644538
0.593305
0.549135
0.529177
0.531597
0.547066
0.596708
0.627953
0.672098
0.748676
0.763505
0.72185
0.679681
0.757653
0.808487
0.817818
0.799579
0.790325
0.784326
0.780374
0.776505
0.774599
0.773851
0.77354
0.773164
0.771819
0.769806
0.768161
0.767476
0.767198
0.767099
0.767392
0.768005
0.769018
0.769777
0.770773
0.771879
0.773115
0.774359
0.775868
0.777727
0.779899
0.78225
0.785269
0.789
0.79327
0.79775
0.802393
0.807303
0.811914
0.815577
0.81814
0.819309
0.819535
0.81827
0.815406
0.811461
0.806214
0.800165
0.793434
0.786049
0.778607
0.771776
0.764809
0.757798
0.751211
0.745201
0.739978
0.735432
0.731472
0.72817
0.725607
0.723885
0.723093
0.723167
0.72425
0.726328
0.72914
0.732904
0.73757
0.742862
0.7487
0.755283
0.763164
0.773167
0.786585
0.804772
0.828392
0.856156
0.884435
0.909697
0.930411
0.944912
0.951281
0.95162
0.945086
0.915794
0.890138
0.880608
0.879705
0.883185
0.899421
0.920528
0.937103
0.94983
0.958793
0.963741
0.965211
0.965024
0.962378
0.949268
0.927214
0.915389
0.911993
0.912285
0.917125
0.929691
0.935885
0.936758
0.935119
0.924622
0.906492
0.89776
0.895653
0.895993
0.899418
0.912006
0.928348
0.942324
0.954753
0.964837
0.971859
0.974225
0.974253
0.972603
0.953974
0.783487
0.832944
0.836523
0.807989
0.772576
0.738073
0.719638
0.70663
0.694573
0.687806
0.681365
0.679091
0.679137
0.682829
0.689867
0.697843
0.702521
0.704336
0.698606
0.686727
0.666791
0.639073
0.606773
0.569975
0.52937
0.486289
0.444623
0.405946
0.372437
0.346532
0.327417
0.316278
0.311629
0.311563
0.316817
0.340117
0.41042
0.48778
0.526801
0.56675
0.638992
0.690199
0.707163
0.706653
0.700357
0.688565
0.662933
0.638418
0.639056
0.649068
0.661132
0.669832
0.705135
0.762221
0.763721
0.716513
0.731702
0.784194
0.800332
0.780834
0.769158
0.762609
0.758019
0.755554
0.7535
0.751535
0.748795
0.746064
0.744839
0.744352
0.744381
0.746659
0.749126
0.751103
0.754356
0.758334
0.762335
0.766398
0.770492
0.774882
0.780581
0.787631
0.796507
0.807476
0.820825
0.836325
0.854105
0.871176
0.88704
0.901502
0.913605
0.923239
0.930463
0.935778
0.939881
0.942889
0.945061
0.946451
0.947037
0.94716
0.946067
0.943981
0.940475
0.935309
0.928174
0.91866
0.906683
0.89269
0.876723
0.858959
0.840232
0.821686
0.804664
0.790235
0.777037
0.765102
0.754667
0.745761
0.73852
0.7332
0.730034
0.72895
0.72933
0.731859
0.736182
0.741371
0.747331
0.753968
0.761669
0.771442
0.784851
0.803024
0.8269
0.855182
0.883594
0.90769
0.927849
0.94616
0.958737
0.962599
0.961521
0.95235
0.920621
0.897
0.889721
0.889269
0.891524
0.903223
0.925766
0.943981
0.956884
0.964632
0.967706
0.967929
0.966066
0.954959
0.932146
0.919899
0.916664
0.917202
0.922915
0.937752
0.946648
0.948906
0.948165
0.941638
0.921208
0.907031
0.902212
0.901953
0.904355
0.916034
0.934931
0.949923
0.961608
0.971145
0.97909
0.985088
0.987775
0.986332
0.856272
0.812817
0.790035
0.776489
0.752189
0.741746
0.73777
0.740537
0.755539
0.781392
0.807414
0.83631
0.863001
0.881527
0.899307
0.908144
0.912758
0.914466
0.91283
0.90618
0.893955
0.874802
0.844985
0.801602
0.745854
0.677469
0.60171
0.532791
0.46292
0.404782
0.35645
0.329058
0.316653
0.31218
0.314505
0.33058
0.383713
0.448527
0.503617
0.539438
0.564536
0.617788
0.669132
0.69415
0.699193
0.699037
0.697101
0.690423
0.689072
0.688215
0.681398
0.682863
0.722457
0.767124
0.75429
0.730765
0.765921
0.780741
0.769401
0.751649
0.744393
0.739087
0.735437
0.733695
0.732948
0.732747
0.733069
0.732893
0.733692
0.735841
0.739393
0.743677
0.748096
0.752818
0.758866
0.766848
0.776705
0.788948
0.804773
0.825576
0.852028
0.873027
0.897295
0.917265
0.932628
0.946465
0.95386
0.959676
0.963694
0.96551
0.966338
0.967244
0.968009
0.96861
0.969546
0.970477
0.971346
0.973209
0.974088
0.976228
0.977541
0.979189
0.980536
0.981717
0.982507
0.982591
0.981823
0.979989
0.976665
0.971202
0.962996
0.951249
0.934996
0.913892
0.890411
0.866493
0.844611
0.826101
0.809415
0.794424
0.781611
0.771632
0.764986
0.761708
0.761065
0.762102
0.766912
0.772862
0.77761
0.78194
0.788838
0.801509
0.821354
0.848022
0.877614
0.904151
0.923643
0.938058
0.952013
0.964577
0.970598
0.971008
0.968697
0.958035
0.92812
0.910129
0.906331
0.907201
0.910779
0.922843
0.94279
0.957879
0.966695
0.970044
0.970219
0.967899
0.954786
0.93219
0.919988
0.916217
0.916484
0.921297
0.936822
0.948027
0.951672
0.951429
0.94657
0.927591
0.910759
0.903801
0.902627
0.904018
0.912842
0.933958
0.951266
0.964367
0.974472
0.981878
0.988248
0.990731
0.847147
0.808702
0.791347
0.779901
0.773676
0.791224
0.840571
0.866234
0.901289
0.918537
0.939361
0.952649
0.962108
0.970624
0.974693
0.977564
0.978853
0.979328
0.979163
0.977526
0.974664
0.969931
0.962273
0.95003
0.930235
0.897862
0.844216
0.756359
0.650567
0.546506
0.455822
0.389175
0.355397
0.338619
0.332562
0.341969
0.383221
0.444804
0.489267
0.519448
0.548149
0.567087
0.595838
0.642194
0.673455
0.688904
0.693401
0.693168
0.692385
0.688603
0.677529
0.690204
0.758047
0.768341
0.752471
0.755505
0.765348
0.761069
0.739149
0.730789
0.724012
0.719694
0.717074
0.715943
0.715628
0.716625
0.719741
0.723535
0.72848
0.734458
0.740158
0.746575
0.755709
0.768859
0.787223
0.812792
0.848679
0.875711
0.902872
0.925205
0.936248
0.949936
0.957088
0.962054
0.965252
0.966673
0.967124
0.967122
0.965911
0.963537
0.960536
0.957247
0.954261
0.952215
0.951255
0.950988
0.951584
0.95558
0.957505
0.963363
0.967547
0.97274
0.977198
0.981148
0.984369
0.986974
0.989013
0.990548
0.991644
0.992361
0.992453
0.991498
0.989048
0.984585
0.977259
0.965669
0.94879
0.927555
0.90559
0.884758
0.86631
0.850519
0.838035
0.829958
0.826287
0.825571
0.826073
0.82965
0.835434
0.83809
0.838647
0.839043
0.841382
0.853054
0.880288
0.907409
0.930179
0.944224
0.951635
0.959077
0.968806
0.976454
0.978844
0.978408
0.975682
0.968242
0.94979
0.93591
0.933029
0.933791
0.936847
0.946618
0.960987
0.969577
0.972419
0.972266
0.9684
0.950433
0.928565
0.917432
0.913678
0.913738
0.917738
0.934119
0.948125
0.952761
0.952645
0.947701
0.928064
0.910854
0.903687
0.902313
0.903493
0.911545
0.934063
0.953428
0.96761
0.977466
0.985459
0.99025
0.846919
0.814047
0.805683
0.811912
0.849731
0.899062
0.930457
0.945933
0.96277
0.971277
0.980549
0.98526
0.988337
0.99078
0.991914
0.992788
0.993165
0.993317
0.99337
0.993295
0.992969
0.992288
0.990989
0.988656
0.984409
0.976608
0.962431
0.936354
0.887371
0.794718
0.671595
0.542229
0.461034
0.409886
0.385276
0.375494
0.394353
0.438476
0.481176
0.51396
0.531318
0.546522
0.564968
0.579867
0.60965
0.646896
0.671764
0.683551
0.685982
0.680309
0.677399
0.7248
0.776236
0.765544
0.756114
0.757922
0.756597
0.737161
0.726473
0.719061
0.713426
0.709647
0.707996
0.707517
0.707592
0.709372
0.713418
0.71936
0.727118
0.735807
0.746224
0.761159
0.785029
0.823115
0.872854
0.908219
0.927986
0.942518
0.951306
0.955741
0.957642
0.958826
0.95934
0.959548
0.95725
0.951615
0.944291
0.934387
0.922895
0.910378
0.899245
0.889335
0.881284
0.875739
0.872609
0.871033
0.871165
0.879617
0.885167
0.898159
0.910717
0.924979
0.938607
0.951205
0.96223
0.971476
0.978966
0.984822
0.989207
0.992272
0.994305
0.995611
0.996376
0.996735
0.996507
0.995223
0.992204
0.98688
0.978431
0.966436
0.95059
0.932141
0.913865
0.899288
0.890936
0.887832
0.887503
0.888287
0.892417
0.897463
0.900053
0.901467
0.903462
0.908257
0.923833
0.94015
0.952499
0.963197
0.969576
0.971559
0.972534
0.974637
0.979837
0.984489
0.9857
0.98537
0.983759
0.98019
0.970298
0.958873
0.955031
0.955206
0.958022
0.967177
0.973407
0.974808
0.973909
0.966815
0.943192
0.923833
0.915161
0.91288
0.913442
0.919513
0.938961
0.952017
0.955657
0.955048
0.947933
0.925722
0.910137
0.904091
0.903151
0.904443
0.912754
0.936095
0.956893
0.971191
0.981535
0.988458
0.851048
0.835849
0.845801
0.883001
0.925689
0.952019
0.969105
0.977204
0.985153
0.988968
0.991688
0.993019
0.993698
0.994223
0.994466
0.994653
0.994735
0.994792
0.994835
0.994951
0.99515
0.995283
0.995374
0.995421
0.995423
0.994514
0.992398
0.987642
0.977336
0.956497
0.914899
0.837096
0.705786
0.574562
0.494651
0.443197
0.422665
0.434739
0.462194
0.495189
0.517536
0.531912
0.542565
0.552341
0.563692
0.587172
0.626127
0.656324
0.66621
0.663735
0.678162
0.763457
0.779963
0.765281
0.758598
0.756529
0.744854
0.731314
0.724226
0.715887
0.711113
0.707615
0.706357
0.706163
0.70673
0.708948
0.713459
0.72046
0.730473
0.74474
0.767118
0.805446
0.856597
0.90766
0.933767
0.9478
0.954289
0.956856
0.957392
0.956063
0.954471
0.950122
0.942813
0.931052
0.913094
0.88933
0.865494
0.841264
0.822333
0.803585
0.789042
0.775935
0.765481
0.75802
0.751965
0.746971
0.746068
0.753272
0.761861
0.777425
0.799747
0.826685
0.855667
0.881687
0.905854
0.926749
0.944378
0.958974
0.970847
0.980208
0.987222
0.992128
0.995265
0.997055
0.998021
0.998504
0.998685
0.998544
0.997738
0.995924
0.993141
0.988521
0.980678
0.96935
0.957227
0.948679
0.944881
0.944009
0.944145
0.945163
0.945897
0.947014
0.949814
0.959232
0.971305
0.979209
0.982804
0.984489
0.985439
0.985434
0.984938
0.983965
0.984081
0.984906
0.987568
0.990278
0.990975
0.990824
0.989631
0.984616
0.973408
0.9674
0.96645
0.967964
0.973729
0.976848
0.976932
0.974275
0.960025
0.935112
0.920187
0.914703
0.914263
0.916794
0.931037
0.950908
0.95982
0.961298
0.959383
0.946726
0.923856
0.911578
0.907587
0.907484
0.909919
0.921708
0.945348
0.963668
0.976798
0.985812
0.862466
0.863002
0.889993
0.932635
0.961765
0.976007
0.984768
0.988759
0.991363
0.992422
0.992887
0.993065
0.993119
0.99269
0.992028
0.991321
0.990682
0.99024
0.99008
0.990444
0.991115
0.992381
0.993602
0.994648
0.995881
0.996463
0.996862
0.996994
0.996185
0.993464
0.986585
0.971212
0.938555
0.87313
0.744102
0.601646
0.508685
0.465576
0.456167
0.469434
0.492413
0.514913
0.525766
0.532558
0.540332
0.554706
0.592219
0.637274
0.650246
0.654698
0.702374
0.786614
0.780585
0.766196
0.761021
0.756003
0.743194
0.73176
0.725006
0.716281
0.711794
0.708927
0.708189
0.708917
0.710694
0.714771
0.722461
0.734914
0.753018
0.780378
0.821979
0.87224
0.919785
0.944666
0.954575
0.957751
0.957219
0.956195
0.952863
0.944946
0.930924
0.907702
0.870629
0.837519
0.802701
0.777
0.750727
0.731137
0.709998
0.695605
0.680765
0.670267
0.661313
0.656327
0.655129
0.659906
0.669741
0.677637
0.686057
0.693658
0.703163
0.717453
0.739982
0.774449
0.815399
0.854188
0.886126
0.912935
0.93516
0.953441
0.968073
0.979256
0.987318
0.992731
0.996072
0.997938
0.998859
0.999286
0.999472
0.999523
0.999452
0.999134
0.998334
0.996379
0.993395
0.990515
0.98852
0.987467
0.986996
0.986761
0.986636
0.986623
0.986793
0.987658
0.990026
0.992316
0.993777
0.994122
0.994046
0.99375
0.993206
0.991955
0.989908
0.989155
0.989444
0.990939
0.993266
0.994138
0.994118
0.993145
0.987908
0.978256
0.973812
0.973236
0.974847
0.978452
0.97917
0.978038
0.970165
0.946097
0.927154
0.918681
0.917081
0.918667
0.929514
0.951957
0.965053
0.969356
0.969354
0.965557
0.948618
0.930747
0.923077
0.921363
0.921933
0.926526
0.942295
0.96024
0.973736
0.983546
0.875414
0.888834
0.922105
0.961063
0.978374
0.986342
0.990084
0.99155
0.99209
0.99223
0.991937
0.990763
0.988595
0.985484
0.982024
0.97848
0.97557
0.974114
0.973584
0.974069
0.975579
0.978535
0.981789
0.985376
0.989314
0.992317
0.995302
0.997211
0.998039
0.998325
0.998241
0.996688
0.992177
0.980785
0.953714
0.891726
0.750846
0.597119
0.511974
0.47495
0.470936
0.483156
0.50525
0.518454
0.525412
0.535114
0.562079
0.616947
0.637364
0.649364
0.728887
0.795153
0.781468
0.767943
0.763284
0.756885
0.744898
0.736015
0.728321
0.720147
0.717742
0.718045
0.721864
0.729932
0.740451
0.75096
0.764769
0.796426
0.824485
0.850568
0.881255
0.918127
0.947617
0.958513
0.961293
0.957899
0.954488
0.94691
0.929659
0.896476
0.849568
0.799488
0.770703
0.744963
0.726568
0.704777
0.68566
0.662507
0.63962
0.620978
0.606675
0.59942
0.596766
0.598004
0.608478
0.623925
0.639488
0.651584
0.664319
0.674291
0.68136
0.686717
0.692825
0.702266
0.719533
0.752716
0.800556
0.846685
0.883564
0.91409
0.938992
0.958527
0.973085
0.983381
0.990294
0.994677
0.997268
0.998671
0.999358
0.999661
0.999792
0.999841
0.999838
0.999752
0.999396
0.998787
0.99824
0.997818
0.997498
0.997256
0.997079
0.996958
0.996904
0.996914
0.997086
0.99761
0.997867
0.997867
0.997765
0.997437
0.997109
0.996677
0.995604
0.993855
0.993025
0.993092
0.993967
0.995399
0.9958
0.995622
0.993953
0.986835
0.979916
0.977733
0.977859
0.979859
0.980967
0.980395
0.975179
0.954424
0.933602
0.92429
0.922462
0.923669
0.932524
0.95453
0.969795
0.976921
0.978648
0.978258
0.9747
0.964579
0.957178
0.953646
0.952517
0.952564
0.954436
0.962312
0.974164
0.983189
0.88591
0.906431
0.945941
0.975362
0.985846
0.989903
0.991297
0.991605
0.991668
0.990585
0.987744
0.982229
0.97318
0.965318
0.957877
0.953263
0.949594
0.947967
0.947393
0.948106
0.950193
0.954085
0.959643
0.966324
0.972606
0.978254
0.984311
0.99125
0.995668
0.998061
0.998973
0.999256
0.999251
0.998286
0.995024
0.985427
0.958658
0.888863
0.729853
0.574538
0.499987
0.473112
0.476906
0.497378
0.513165
0.521283
0.538093
0.583634
0.6099
0.637444
0.733583
0.797003
0.783703
0.771826
0.766011
0.759851
0.751837
0.74757
0.733582
0.72583
0.725536
0.728136
0.735258
0.749805
0.77709
0.817251
0.855008
0.875481
0.891455
0.906653
0.922857
0.945185
0.960751
0.964561
0.961884
0.955618
0.944283
0.918576
0.85876
0.8088
0.773222
0.747915
0.732983
0.709178
0.69154
0.662542
0.634253
0.598012
0.564167
0.541444
0.527884
0.522996
0.525177
0.537117
0.556572
0.579609
0.603808
0.628152
0.650604
0.667194
0.678158
0.684394
0.687377
0.690391
0.694327
0.70174
0.717865
0.754432
0.808729
0.857108
0.897005
0.929102
0.953358
0.970535
0.982063
0.989493
0.994118
0.996882
0.998447
0.999273
0.999674
0.999849
0.999917
0.999938
0.999935
0.99989
0.999779
0.999668
0.999564
0.999476
0.999406
0.999346
0.999289
0.99925
0.999244
0.999282
0.999309
0.999296
0.999233
0.999011
0.998769
0.998586
0.998262
0.997372
0.996142
0.995663
0.995702
0.996229
0.99674
0.99674
0.996091
0.992237
0.984787
0.981321
0.980818
0.981639
0.982689
0.982393
0.978723
0.961896
0.943069
0.935155
0.933877
0.935132
0.942995
0.961428
0.975013
0.982865
0.986261
0.987034
0.986923
0.986256
0.984417
0.980982
0.978002
0.976372
0.975932
0.976223
0.978359
0.984398
0.89486
0.924531
0.961059
0.982577
0.988948
0.990898
0.991304
0.991217
0.989719
0.985415
0.975502
0.962797
0.952834
0.945849
0.940582
0.937633
0.936187
0.935663
0.935599
0.936546
0.937904
0.940183
0.943545
0.948938
0.956787
0.965216
0.970986
0.976733
0.985557
0.993474
0.997292
0.999015
0.999603
0.999755
0.99968
0.998956
0.996141
0.986286
0.954759
0.860672
0.679087
0.54309
0.482946
0.474813
0.48599
0.499992
0.523193
0.56354
0.584679
0.614508
0.72306
0.795032
0.789527
0.775264
0.771867
0.76923
0.767824
0.764318
0.743581
0.731816
0.729803
0.731465
0.737059
0.749993
0.778923
0.82755
0.890766
0.927038
0.93995
0.9436
0.950628
0.960867
0.968167
0.968084
0.961271
0.94925
0.92233
0.861735
0.8014
0.767515
0.739792
0.72244
0.699431
0.662228
0.617313
0.564383
0.517959
0.483815
0.468847
0.463545
0.463286
0.466364
0.470685
0.475089
0.481132
0.492852
0.517434
0.558783
0.60847
0.648107
0.673851
0.687373
0.693751
0.692637
0.693034
0.695185
0.698933
0.707154
0.728668
0.779177
0.837048
0.885718
0.924219
0.952179
0.970974
0.982889
0.99016
0.994494
0.997027
0.998469
0.999257
0.999665
0.999858
0.999938
0.999967
0.999975
0.999973
0.999958
0.999933
0.999911
0.999893
0.999875
0.999852
0.99983
0.999817
0.999809
0.999802
0.999789
0.999759
0.999664
0.999499
0.999392
0.999276
0.999021
0.998273
0.99758
0.997407
0.997461
0.997613
0.997602
0.997245
0.995082
0.988515
0.984275
0.983223
0.983519
0.984488
0.984414
0.982182
0.970407
0.956042
0.950724
0.950287
0.951835
0.959422
0.971492
0.980448
0.986479
0.99016
0.992245
0.993361
0.99382
0.993876
0.99374
0.992924
0.990428
0.988677
0.988176
0.988224
0.988767
0.903209
0.935458
0.969493
0.985863
0.990123
0.991102
0.991199
0.990329
0.98663
0.976266
0.9614
0.948947
0.941353
0.936078
0.933459
0.932204
0.931678
0.931533
0.931949
0.932524
0.933591
0.935337
0.937709
0.941387
0.948192
0.958904
0.966269
0.971408
0.975979
0.983174
0.992059
0.99682
0.998924
0.9997
0.999897
0.999937
0.99983
0.999161
0.995996
0.98297
0.936745
0.796272
0.606746
0.504656
0.469273
0.464312
0.480273
0.536443
0.56806
0.595671
0.694381
0.786542
0.794349
0.783209
0.777316
0.779443
0.786515
0.783621
0.768075
0.745203
0.737705
0.736163
0.738165
0.74317
0.762311
0.811962
0.887003
0.934384
0.958986
0.969207
0.969458
0.971583
0.973418
0.970052
0.95748
0.933607
0.871594
0.787105
0.744831
0.715954
0.689857
0.666191
0.623678
0.574505
0.52428
0.485276
0.464145
0.455959
0.454609
0.460733
0.474349
0.481321
0.482695
0.477338
0.471662
0.469036
0.47238
0.483658
0.51374
0.579539
0.646569
0.682901
0.700009
0.707199
0.702889
0.698781
0.698183
0.700458
0.705667
0.719732
0.762961
0.827858
0.883169
0.925469
0.95483
0.973635
0.984989
0.991596
0.995369
0.997505
0.998702
0.999359
0.999703
0.999873
0.999949
0.999978
0.999988
0.999991
0.999991
0.999987
0.999983
0.999979
0.999973
0.999967
0.999961
0.999956
0.999952
0.999946
0.999934
0.999905
0.999822
0.999749
0.999698
0.999612
0.999384
0.998857
0.99853
0.998442
0.998427
0.99838
0.9981
0.996639
0.991288
0.986719
0.985274
0.985327
0.986239
0.986434
0.985381
0.978581
0.969671
0.967016
0.967138
0.969125
0.974931
0.980585
0.985318
0.989218
0.992239
0.994452
0.996017
0.997034
0.997542
0.997648
0.997535
0.996727
0.995022
0.99416
0.994001
0.993855
0.908979
0.94553
0.97421
0.987911
0.990695
0.991139
0.990773
0.987902
0.980052
0.965494
0.951079
0.941111
0.935937
0.932504
0.931031
0.9303
0.929987
0.929957
0.930084
0.930432
0.931248
0.932954
0.935276
0.938052
0.942821
0.952592
0.963613
0.970226
0.973819
0.978576
0.986171
0.993129
0.997246
0.99908
0.999752
0.999943
0.999981
0.999975
0.99983
0.998837
0.993504
0.970981
0.88877
0.707917
0.563328
0.486839
0.462226
0.473126
0.526383
0.562218
0.634543
0.760131
0.792177
0.79179
0.786516
0.7863
0.792581
0.798091
0.792635
0.77784
0.761506
0.751716
0.745393
0.743742
0.746911
0.763393
0.832568
0.918861
0.956408
0.973696
0.981219
0.980794
0.978836
0.972824
0.957305
0.911601
0.820762
0.73543
0.691236
0.656443
0.632499
0.603851
0.564654
0.529216
0.498224
0.481442
0.473636
0.487665
0.527033
0.58801
0.632476
0.653446
0.646651
0.611452
0.55698
0.51105
0.481968
0.475457
0.483559
0.504566
0.569324
0.651812
0.693727
0.71193
0.718524
0.71419
0.706248
0.702663
0.703299
0.707409
0.718336
0.757351
0.829357
0.889003
0.93217
0.960504
0.977758
0.987725
0.993303
0.996382
0.998077
0.999008
0.999511
0.999773
0.999902
0.999961
0.999985
0.999994
0.999997
0.999998
0.999998
0.999997
0.999996
0.999995
0.999993
0.999992
0.99999
0.999988
0.999985
0.999977
0.999952
0.999907
0.999878
0.999846
0.999776
0.999558
0.999269
0.999135
0.999084
0.999002
0.998744
0.997633
0.993277
0.988771
0.987102
0.987015
0.987832
0.988433
0.9881
0.985088
0.98083
0.979938
0.980353
0.982901
0.986558
0.98855
0.98999
0.991703
0.99367
0.995531
0.997051
0.99813
0.998743
0.998961
0.998965
0.998767
0.997927
0.997192
0.997
0.996821
0.914637
0.950709
0.975755
0.987838
0.990684
0.991136
0.990604
0.987624
0.978957
0.963921
0.949838
0.93981
0.934348
0.931047
0.929334
0.928611
0.928694
0.929136
0.928876
0.928545
0.928881
0.930537
0.934032
0.93708
0.941225
0.95041
0.962321
0.970115
0.973663
0.977454
0.983918
0.991309
0.996152
0.998555
0.999529
0.999864
0.999967
0.999992
0.999995
0.999964
0.999662
0.997565
0.985972
0.938157
0.804291
0.642616
0.525805
0.481619
0.485222
0.507901
0.555494
0.689048
0.773357
0.790403
0.792681
0.79301
0.79526
0.801381
0.804134
0.800778
0.793487
0.786062
0.777115
0.764898
0.75285
0.755805
0.770058
0.825802
0.92378
0.965205
0.980698
0.985926
0.985026
0.978945
0.961255
0.91542
0.820608
0.732683
0.680524
0.632569
0.602549
0.575948
0.548268
0.524803
0.504023
0.505941
0.552311
0.663532
0.764423
0.818473
0.838793
0.846426
0.845209
0.832895
0.797193
0.707576
0.58849
0.51547
0.490204
0.494261
0.516158
0.589631
0.668234
0.707048
0.722519
0.726351
0.72313
0.713313
0.708
0.707486
0.710918
0.721007
0.760137
0.838397
0.900014
0.94172
0.967431
0.982279
0.990502
0.994948
0.997329
0.998606
0.999292
0.999656
0.999843
0.999933
0.999973
0.99999
0.999996
0.999998
0.999999
0.999999
0.999999
0.999999
0.999999
0.999999
0.999999
0.999998
0.999997
0.999995
0.99999
0.999972
0.999954
0.999941
0.999916
0.999847
0.999676
0.999567
0.999515
0.999434
0.999213
0.99835
0.994837
0.990605
0.988843
0.988644
0.989281
0.990424
0.990495
0.989745
0.988548
0.988471
0.988977
0.991068
0.993043
0.994014
0.994438
0.994689
0.995099
0.996125
0.99745
0.998476
0.999114
0.999405
0.999468
0.99943
0.999151
0.998718
0.998582
0.998464
0.920064
0.949919
0.974821
0.987037
0.99044
0.991086
0.99069
0.988267
0.980879
0.966398
0.952332
0.941724
0.935521
0.931789
0.929702
0.928643
0.928159
0.927823
0.927677
0.927749
0.92816
0.929493
0.933341
0.937564
0.942611
0.952549
0.964872
0.9736
0.976645
0.978263
0.98332
0.990783
0.995822
0.998394
0.999464
0.999841
0.999957
0.999989
0.999998
0.999999
0.999995
0.999927
0.999157
0.993204
0.963647
0.865464
0.698872
0.551885
0.498727
0.497846
0.509591
0.557309
0.700352
0.771772
0.789732
0.794395
0.796546
0.801122
0.805543
0.80793
0.807118
0.805265
0.802169
0.797201
0.786008
0.767492
0.767879
0.776138
0.817636
0.918502
0.967905
0.983919
0.987435
0.985327
0.971899
0.929857
0.833303
0.741756
0.685775
0.634028
0.600753
0.574214
0.549268
0.531163
0.531264
0.605653
0.736849
0.820482
0.860841
0.872534
0.874935
0.875737
0.875999
0.875974
0.872927
0.859605
0.801523
0.644922
0.542922
0.508844
0.512042
0.544533
0.634158
0.694586
0.721684
0.730777
0.731806
0.728598
0.719571
0.714508
0.713391
0.716346
0.727221
0.774169
0.855786
0.915226
0.952849
0.974659
0.986634
0.993023
0.996381
0.998135
0.99905
0.999529
0.999777
0.9999
0.999958
0.999983
0.999994
0.999998
0.999999
1
1
1
1
1
1
1
1
0.999999
0.999998
0.999994
0.999985
0.999978
0.999968
0.999944
0.999868
0.9998
0.999761
0.999696
0.999523
0.998863
0.996087
0.992253
0.990494
0.990193
0.990533
0.992016
0.992878
0.992969
0.99297
0.993144
0.994046
0.995596
0.996518
0.996895
0.996984
0.996994
0.997011
0.997143
0.997734
0.99866
0.999268
0.999583
0.999691
0.999697
0.999638
0.999453
0.999381
0.999317
0.925216
0.9471
0.972083
0.985096
0.989712
0.990902
0.990791
0.989591
0.985179
0.97275
0.9584
0.946819
0.93916
0.934361
0.931473
0.929775
0.92884
0.928361
0.928374
0.928647
0.929478
0.9315
0.936288
0.940449
0.948055
0.96178
0.972703
0.97684
0.978589
0.980771
0.985966
0.992505
0.996722
0.998776
0.999593
0.999877
0.999966
0.999991
0.999998
1
1
0.999999
0.999979
0.999658
0.995896
0.971404
0.891852
0.726258
0.568873
0.511233
0.507581
0.516841
0.564592
0.702252
0.769187
0.789873
0.795641
0.800014
0.804715
0.808033
0.810043
0.8108
0.810433
0.809095
0.805662
0.798038
0.779821
0.77654
0.782502
0.817744
0.918714
0.970129
0.985359
0.986997
0.981994
0.956979
0.866531
0.765889
0.701635
0.643528
0.605129
0.577474
0.555476
0.552008
0.603858
0.725105
0.816113
0.860037
0.875011
0.878681
0.878829
0.877783
0.877635
0.878967
0.880901
0.879291
0.865482