/*--------------------------------*- C++ -*----------------------------------*\
| =========                 |                                                 |
| \\      /  F ield         | OpenFOAM: The Open Source CFD Toolbox           |
|  \\    /   O peration     | Version:  2112                                  |
|   \\  /    A nd           | Website:  www.openfoam.com                      |
|    \\/     M anipulation  |                                                 |
\*---------------------------------------------------------------------------*/
FoamFile
{
    version     2.0;
    format      ascii;
    arch        "LSB;label=32;scalar=64";
    class       volScalarField;
    location    "0.06";
    object      epsilon;
}
// * * * * * * * * * * * * * * * * * * * * * * * * * * * * * * * * * * * * * //

dimensions      [0 2 -3 0 0 0 0];

internalField   nonuniform List<scalar> 
12225
(
3157.04
4900.81
5500.67
5497.32
5243.17
4905.32
4553.52
4214.99
3899.56
3609.76
3344.79
3102.35
2879.41
2672.55
2477.96
2291.47
2108.49
1918.67
209.462
383.018
460.482
477.879
466.838
444.617
420.024
396.931
376.698
359.639
345.7
334.733
326.604
321.252
318.721
319.212
323.496
333.128
37.9724
63.369
81.3559
92.1378
97.289
98.3788
96.8572
93.8498
90.1317
86.2104
82.4122
78.9475
75.9574
73.5492
71.8296
70.9366
71.1274
72.7787
19.4611
25.4337
30.6151
34.5961
37.409
39.1984
40.1654
40.5139
40.4188
40.02
39.4265
38.7222
37.9724
37.23
36.542
35.9553
35.5338
35.3447
15.7874
17.4608
19.2072
20.7625
22.0389
23.0181
23.7201
24.1835
24.4512
24.564
24.5584
24.4659
24.3136
24.1245
23.9191
23.7163
23.5353
23.3954
14.8438
15.1764
15.6764
16.2141
16.7184
17.153
17.5035
17.7693
17.9572
18.0768
18.139
18.1546
18.1342
18.0874
18.0229
17.9491
17.8732
17.7999
14.59
14.4623
14.452
14.5136
14.6102
14.7153
14.8121
14.8914
14.9491
14.9848
14.9995
14.9958
14.9767
14.9456
14.9059
14.8609
14.8133
14.7637
14.524
14.245
14.0322
13.8751
13.7603
13.6747
13.6075
13.5506
13.4985
13.4478
13.3965
13.3437
13.2893
13.2337
13.1776
13.1219
13.0672
13.0132
14.5078
14.1835
13.8982
13.6504
13.4362
13.2507
13.0886
12.9453
12.8167
12.6997
12.5919
12.4917
12.3977
12.3092
12.2258
12.1472
12.0731
12.0031
14.504
14.1675
13.8593
13.5786
13.3238
13.0928
12.8832
12.6927
12.5188
12.3594
12.2127
12.0772
11.9516
11.8349
11.7263
11.6251
11.5308
11.4431
14.5032
14.1636
13.849
13.5579
13.2887
13.04
12.8102
12.5978
12.4013
12.2192
12.0503
11.8933
11.7473
11.6113
11.4846
11.3665
11.2563
11.1542
14.503
14.1626
13.8465
13.5527
13.2795
13.0253
12.7887
12.5683
12.363
12.1715
11.9928
11.8259
11.6699
11.5241
11.3877
11.2601
11.1408
11.03
14.5029
14.1623
13.8458
13.5511
13.2766
13.0205
12.7815
12.5581
12.3492
12.1537
11.9706
11.799
11.6381
11.4872
11.3456
11.2128
11.0882
10.9723
14.5028
14.1622
13.8455
13.5506
13.2756
13.019
12.7792
12.5548
12.3447
12.1477
11.9629
11.7895
11.6265
11.4734
11.3295
11.1942
11.067
10.9486
14.5027
14.1621
13.8453
13.5503
13.2752
13.0184
12.7784
12.5538
12.3434
12.1461
11.9609
11.787
11.6235
11.4697
11.3251
11.189
11.061
10.9417
14.5027
14.162
13.8451
13.5501
13.275
13.0181
12.7781
12.5535
12.343
12.1457
11.9605
11.7865
11.623
11.4692
11.3245
11.1883
11.0602
10.9408
14.5027
14.1619
13.845
13.5499
13.2748
13.018
12.7779
12.5533
12.3429
12.1456
11.9605
11.7866
11.6232
11.4695
11.3249
11.1887
11.0606
10.9412
14.5026
14.1618
13.8449
13.5498
13.2747
13.0179
12.7779
12.5533
12.343
12.1458
11.9607
11.7869
11.6236
11.4699
11.3253
11.1892
11.061
10.9415
14.5026
14.1618
13.8449
13.5498
13.2747
13.0179
12.778
12.5535
12.3432
12.1461
11.9611
11.7874
11.624
11.4704
11.3258
11.1895
11.0612
10.9414
14.5026
14.1618
13.8449
13.5499
13.2749
13.0182
12.7784
12.554
12.3438
12.1468
11.9618
11.7881
11.6248
11.4711
11.3264
11.1901
11.0616
10.9416
14.5026
14.1619
13.8451
13.5502
13.2753
13.0188
12.7791
12.5549
12.345
12.1482
11.9635
11.79
11.6269
11.4735
11.329
11.1929
11.0646
10.9448
14.5027
14.162
13.8454
13.5509
13.2766
13.0208
12.7821
12.5591
12.3506
12.1554
11.9725
11.801
11.64
11.4887
11.3464
11.2125
11.0865
10.969
14.5029
14.1629
13.8479
13.5561
13.2858
13.0353
12.8032
12.5879
12.3879
12.2018
12.0286
11.8669
11.7159
11.5745
11.442
11.3177
11.2009
11.0923
14.5048
14.1714
13.869
13.5965
13.3517
13.1318
12.9337
12.7544
12.5911
12.4414
12.3034
12.1752
12.0557
11.9435
11.838
11.7383
11.6441
11.5559
14.5228
14.2392
14.0177
13.8494
13.7227
13.626
13.5493
13.4847
13.4267
13.3713
13.316
13.2596
13.2012
13.1408
13.0785
13.0147
12.9499
12.8858
14.6642
14.6812
14.8484
15.0966
15.3739
15.644
15.8847
16.0845
16.2398
16.3511
16.4217
16.4562
16.4597
16.4375
16.3944
16.335
16.2631
16.1835
15.6175
17.1397
18.8724
20.5424
22.0172
23.2316
24.1701
24.8493
25.3006
25.5605
25.665
25.6472
25.536
25.3559
25.1272
24.8666
24.5875
24.3032
22.024
31.7055
40.736
48.202
53.8332
57.613
59.766
60.6258
60.5226
59.7402
58.5072
57.0001
55.3503
53.6531
51.9768
50.3703
48.8684
47.5111
86.521
166.33
230.286
272.008
293.116
298.382
293.478
283.039
270.14
256.624
243.521
231.365
220.393
210.68
202.215
194.956
188.868
184.206
1385.09
2302.71
3001.36
3410.44
3576.59
3576.27
3475.45
3320.93
3142.85
2959.23
2780.14
2610.67
2452.98
2307.54
2173.9
2051.13
1938.2
1846.77
4.61998
3.58804
4.80225
5.81228
6.53109
6.92443
7.09802
7.50432
8.8843
13.2439
21.314
30.1554
38.5035
45.0268
49.2267
51.426
50.1818
47.4449
44.154
40.7839
38.7401
42.6079
67.4529
119.794
181.288
247.822
314.091
376.135
431.367
478.362
516.581
546.115
567.478
581.446
588.931
590.901
588.322
582.118
573.194
562.208
549.158
534.275
517.729
499.653
480.163
459.372
437.403
414.396
390.518
365.961
340.944
315.711
290.52
265.628
241.279
217.688
195.037
173.476
153.136
134.24
117.307
103.709
92.8251
81.4267
69.613
58.1771
47.994
39.672
33.2636
28.676
25.6484
23.8521
22.9888
22.8217
23.148
23.9083
25.1339
26.9198
29.4015
32.7392
36.9541
42.0305
47.9904
54.5345
61.4088
68.3147
74.7108
79.7824
83.615
87.7394
93.4418
101.051
111.788
134.206
195.192
331.745
469.052
588.785
683.765
753.035
798.672
823.971
832.51
827.714
812.677
790.157
762.581
732.177
699.77
665.892
630.903
595.015
558.32
520.828
482.516
443.393
403.566
363.309
323.119
283.813
246.945
216.945
207.634
207.614
208.336
209.536
211.372
213.994
217.482
221.832
226.959
232.702
238.839
245.085
251.13
256.741
260.692
261.506
258.4
250.904
239
223.198
204.488
184.175
163.64
144.097
126.423
111.096
98.2357
87.704
79.2143
72.4252
67.007
62.8397
59.9494
57.8456
56.2403
54.963
53.9139
53.0339
52.2873
51.6504
51.1054
50.6362
50.2268
49.8607
49.5208
49.1895
48.8488
48.4792
48.0593
47.5634
46.9601
46.2077
45.2562
44.0248
42.4614
40.3007
37.9362
33.1211
11.2844
2.50276
2.43601
2.82302
3.06039
3.08546
3.32638
4.20329
7.19409
16.1239
29.2016
40.3766
49.2149
56.2242
62.1941
77.0885
106.099
140.666
167.977
187.527
201.384
211.48
220.095
227.65
233.434
236.673
236.773
233.613
227.469
218.877
208.528
197.178
185.588
174.475
164.482
156.157
149.949
146.205
145.133
145.953
146.9
147.764
148.407
148.71
148.562
147.871
146.564
144.587
141.915
138.552
134.535
129.932
124.843
119.388
113.702
107.916
102.149
96.4941
91.0086
85.7051
80.529
75.2735
69.9946
64.6874
59.0867
53.2096
47.1788
41.2038
35.5634
30.5654
26.4897
23.5133
21.6505
20.7417
20.4062
20.3477
20.3692
20.3768
20.3866
20.5493
20.9315
21.495
22.2521
23.1595
24.0662
24.8407
25.7094
27.8265
33.5761
47.9947
82.6084
148.424
224.543
269.587
287.72
299.449
299.324
289.413
272.926
253.067
232.464
213.05
196.128
182.541
172.849
167.391
166.338
166.77
167.467
168.332
169.248
170.053
170.541
170.46
169.525
167.444
163.958
158.884
152.176
143.957
134.549
124.718
116.35
108.344
100.542
93.1285
86.2445
79.9699
74.3341
69.3258
64.9035
61.0041
57.5519
54.4653
51.6664
49.1058
47.5134
47.1129
47.2185
47.3044
46.9902
46.0554
44.4385
42.2149
39.5497
36.6415
33.6767
30.8004
28.1082
25.6523
23.4527
21.5095
19.812
18.3488
17.1065
16.0602
15.1821
14.4451
13.8245
13.2985
12.8489
12.4606
12.1217
11.8228
11.5565
11.317
11.1
10.9022
10.7219
10.5588
10.4142
10.2915
10.1963
10.1367
10.1236
10.1706
10.2959
10.5194
10.8661
11.4187
10.3565
2.58442
2.225
2.62512
2.67824
2.55855
2.64066
3.7458
9.49788
28.4917
57.2699
81.1827
102.429
126.797
149.843
165.086
176.207
184.907
189.074
189.046
186.202
181.879
176.981
171.705
165.875
159.319
152.068
144.399
136.74
129.555
123.25
118.115
114.308
111.864
110.718
110.733
111.727
113.491
115.859
118.469
121.164
123.831
126.349
128.594
130.444
131.779
132.485
132.462
131.627
129.926
127.342
123.907
119.705
114.873
109.589
104.057
98.486
93.0703
87.978
83.339
79.2387
75.7054
72.7312
70.3916
68.3161
66.2063
63.7868
60.8077
57.1124
52.7067
47.7915
42.7441
38.0379
34.123
31.3877
29.8415
28.9901
28.3431
27.5428
26.4394
25.1825
24.1383
23.7263
24.2788
25.8864
28.468
32.4886
40.7627
62.2295
111.25
188.494
242.14
241.599
227.713
213.258
198.386
181.465
164.087
148.17
134.957
124.888
117.87
113.549
111.497
111.294
112.55
114.946
117.872
121.212
124.896
128.818
132.828
136.718
140.218
142.999
144.694
144.937
143.419
139.946
134.474
127.036
118.439
110.025
101.45
92.9578
84.7837
77.0922
69.984
63.5075
57.6708
52.4527
47.8111
43.6906
40.0279
36.755
33.8111
31.1626
28.8559
26.869
25.1427
23.6151
22.2181
20.8827
19.5519
18.1932
16.8022
15.3975
14.0103
12.6734
11.4147
10.2538
9.20194
8.26308
7.43592
6.71525
6.09295
5.55922
5.10371
4.71622
4.3872
4.10805
3.87126
3.67036
3.49987
3.35513
3.23219
3.12768
3.03879
2.96321
2.89924
2.84585
2.80282
2.7709
2.75204
2.74986
2.76987
2.8217
2.91566
3.08109
3.31997
13.2016
12.5086
17.2598
17.1563
14.5389
11.18
8.73702
8.79465
19.1771
57.8086
116.914
157.839
179.237
183.019
179.17
173.874
168.576
163.257
157.485
151.399
145.346
139.577
134.152
128.981
123.971
119.132
114.569
110.429
106.839
103.884
101.614
100.054
99.21
99.0609
99.5595
100.632
102.184
104.108
106.397
108.98
111.769
114.676
117.606
120.458
123.124
125.484
127.404
128.74
129.338
129.051
127.76
125.395
121.963
117.551
112.332
106.537
100.429
94.2695
88.2955
82.7095
77.674
73.3108
69.7557
67.2083
65.4449
64.3548
63.8237
63.675
63.6484
63.4024
62.5551
60.7678
57.8527
53.862
49.1039
44.0672
39.4231
35.546
32.4239
29.8438
27.7159
26.2308
25.8081
27.055
30.6332
37.3201
49.4118
75.3021
126.806
199.365
239.215
222.45
195.603
174.516
157.417
141.972
127.949
116.259
107.322
101.01
96.9398
94.6617
93.7572
93.885
94.7971
96.3336
98.4143
100.955
103.952
107.382
111.189
115.269
119.457
123.517
127.129
129.907
131.436
131.325
129.286
125.16
118.956
111.981
104.481
96.6438
88.7607
81.0718
73.7505
66.9099
60.6148
54.8918
49.7389
45.1338
41.0391
37.4067
34.1819
31.307
28.7258
26.3939
24.2705
22.3159
20.4997
18.8017
17.2108
15.7206
14.3266
13.0244
11.8103
10.6811
9.63516
8.67186
7.79075
6.991
6.27088
5.62753
5.05701
4.55446
4.11432
3.73067
3.39752
3.109
2.85959
2.64421
2.45829
2.29777
2.15907
2.03912
1.93521
1.84504
1.76664
1.69836
1.63886
1.58714
1.54255
1.50485
1.47437
1.4521
1.44038
1.44253
1.46759
1.52022
27.5402
41.0098
39.5359
34.9819
29.2641
23.7396
19.5209
20.7112
47.6913
123.736
184.335
209.932
208.58
193.515
175.523
159.753
147.305
137.64
129.97
123.748
118.609
114.274
110.514
107.154
104.065
101.167
98.4149
95.8087
93.3934
91.2502
89.472
88.137
87.2932
86.9549
87.1089
87.7228
88.7507
90.136
91.9488
94.0959
96.5142
99.1526
101.969
104.927
107.983
111.077
114.113
116.947
119.378
121.157
122.019
121.727
120.121
117.167
112.97
107.762
101.848
95.5601
89.2028
83.0336
77.2538
72.007
67.6202
64.1274
61.3942
59.4062
58.1524
57.5997
57.6771
58.2564
59.1291
59.9872
60.4238
59.9758
58.2355
55.0163
50.4937
45.1999
39.912
35.3531
31.9413
29.9538
29.8872
32.6964
39.8958
54.186
82.4881
132.016
196.223
232.108
212.459
179.757
155.109
137.601
123.655
111.988
102.622
95.61
90.7202
87.566
85.7049
84.7281
84.3321
84.342
84.6936
85.3979
86.5059
88.0621
90.1038
92.6431
95.6625
99.1061
102.864
106.752
110.49
113.703
115.952
116.795
115.859
112.889
108.386
102.938
96.7401
90.0895
83.2659
76.4962
69.9494
63.7425
57.9507
52.6164
47.7574
43.3728
39.4469
35.9527
32.8533
30.1043
27.6555
25.451
23.4428
21.5887
19.8543
18.2156
16.6592
15.181
13.7836
12.4722
11.2521
10.1266
9.09661
8.16058
7.31523
6.55609
5.87795
5.27515
4.74181
4.27194
3.85957
3.49882
3.18404
2.90987
2.67132
2.46383
2.28328
2.126
1.98877
1.86875
1.7635
1.67091
1.58915
1.51667
1.45216
1.39453
1.34287
1.2965
1.25496
1.21807
1.18604
1.15961
1.1408
1.13226
116.585
74.8771
60.5768
51.8458
43.1659
35.3368
29.3675
35.9463
84.7695
155.489
204.815
219.524
207.748
184.678
161.564
143.039
129.547
119.995
113.172
108.157
104.304
101.152
98.3566
95.6611
92.8997
90.0098
87.029
84.0665
81.2616
78.7448
76.6156
74.9363
73.7384
73.0314
72.8113
73.0659
73.775
74.9133
76.3786
78.0364
79.8319
81.7429
83.7832
86.0038
88.483
91.3044
94.5198
98.1037
101.913
105.667
108.968
111.361
112.427
111.88
109.647
105.882
100.91
95.1353
88.9593
82.7172
76.6634
71.0402
66.2281
62.0496
58.4979
55.5877
53.3287
51.7177
50.7322
50.3229
50.4027
50.8327
51.4065
51.8378
51.7687
50.8268
48.7541
45.5786
41.7213
37.9125
35.0119
33.9236
35.615
41.653
55.4661
83.0221
128.832
186.503
223.45
209.129
173.798
145.944
127.332
113.986
103.536
95.3037
89.1016
84.7313
81.86
80.046
78.8498
77.9472
77.1762
76.5165
76.0372
75.8469
76.0558
76.733
77.9141
79.6112
81.8198
84.5169
87.6451
91.0845
94.6182
97.9055
100.522
101.993
101.879
100.118
97.0838
93.0017
88.1278
82.7387
77.0844
71.3677
65.7415
60.3145
55.162
50.3336
45.8608
41.7608
38.0392
34.6911
31.7016
29.0465
26.6915
24.5919
22.7036
20.982
19.3868
17.8853
16.4551
15.0846
13.7712
12.5189
11.3349
10.2267
9.20011
8.25873
7.4034
6.63267
5.94323
5.33047
4.78889
4.31251
3.89512
3.53057
3.21289
2.93645
2.69604
2.48691
2.30481
2.14598
2.00709
1.8853
1.7781
1.68337
1.59929
1.52429
1.45705
1.39644
1.34151
1.29145
1.24563
1.20356
1.1649
1.1296
1.09792
1.07072
212.663
98.8622
80.0869
69.4708
57.1466
46.1763
41.7677
59.5752
108.556
167.016
204.079
209.82
193.275
168.867
146.353
129.243
117.365
109.344
103.826
99.7853
96.5011
93.4724
90.3816
87.0819
83.5783
79.9829
76.4571
73.1608
70.2225
67.731
65.7396
64.2755
63.3466
62.9456
63.0496
63.6188
64.596
65.9295
67.3195
68.6513
69.8356
70.8183
71.6045
72.2814
73.0299
74.1128
75.8277
78.4234
81.996
86.4071
91.26
95.9467
99.7602
102.053
102.41
100.761
97.3609
92.6568
87.149
81.2723
75.3739
69.9648
65.0145
60.5246
56.5273
53.0516
50.1196
47.7424
45.915
44.6107
43.7759
43.3253
43.1368
43.0458
42.8427
42.2863
41.1588
39.3776
37.139
35.0109
33.9062
35.0517
40.2139
52.2052
75.5989
115.565
169.206
211.482
209.496
174.667
143.381
122.539
108.716
98.622
90.8285
84.8654
80.5462
77.6243
75.6951
74.2959
73.0541
71.7723
70.4289
69.1264
68.0218
67.2656
66.968
67.163
67.8453
68.9932
70.5889
72.6256
75.0929
77.9414
81.035
84.0874
86.727
88.4641
88.9245
88.1203
86.1685
83.231
79.5325
75.3121
70.7838
66.1188
61.4444
56.8516
52.4053
48.1528
44.1304
40.3658
36.8799
33.6867
30.7921
28.1934
25.8773
23.8193
21.989
20.3474
18.8539
17.4707
16.1671
14.9212
13.7213
12.5644
11.454
10.3971
9.40171
8.47482
7.62141
6.84394
6.14248
5.51499
4.95782
4.46617
4.03458
3.65721
3.32821
3.0419
2.79295
2.57644
2.38796
2.22356
2.07979
1.95367
1.84259
1.74434
1.65703
1.57902
1.50896
1.44565
1.38811
1.33549
1.28708
1.24228
1.20062
1.16177
1.12552
1.092
276.538
114.633
99.9247
91.2868
79.4705
66.0618
62.359
81.2724
123.484
168.871
194.196
193.342
175.545
153.077
133.512
119.17
109.466
102.961
98.314
94.5347
90.9757
87.2884
83.3727
79.3058
75.2571
71.4125
67.9281
64.9143
62.4399
60.543
59.2412
58.5353
58.4082
58.8194
59.7004
60.9545
62.463
64.124
65.7925
67.3112
68.4978
69.1698
69.1864
68.5064
67.256
65.7808
64.6371
64.474
65.8233
68.8957
73.4939
79.0388
84.67
89.3984
92.3551
93.0761
91.6029
88.3334
83.834
78.6424
73.4407
68.3967
63.6033
59.1344
55.0403
51.3589
48.1218
45.355
43.0734
41.2723
39.9207
38.9558
38.2827
37.7768
37.2874
36.6474
35.7036
34.3935
32.8784
31.697
31.8786
34.9991
43.4363
61.0639
93.2568
141.705
190.645
207.282
181.542
146.171
121.822
106.359
95.8717
88.0727
82.0488
77.5125
74.2973
72.0928
70.4624
68.9939
67.4259
65.6894
63.8768
62.1736
60.7822
59.8573
59.465
59.5666
60.0978
60.9864
62.1853
63.691
65.5317
67.7222
70.2231
72.8034
75.1815
76.8415
77.6072
77.3888
76.1899
74.1293
71.3924
68.1777
64.66
60.9743
57.2164
53.4529
49.7316
46.0905
42.5633
39.1816
35.9747
32.9687
30.1851
27.639
25.3362
23.2756
21.4445
19.8176
18.3619
17.0415
15.8217
14.6735
13.5756
12.5159
11.4906
10.5023
9.5575
8.66396
7.82904
7.05827
6.35486
5.71958
5.1511
4.64637
4.20114
3.8104
3.4688
3.17092
2.91151
2.68567
2.48892
2.31723
2.16704
2.03524
1.91915
1.81646
1.72519
1.64365
1.57041
1.50423
1.44409
1.38909
1.33847
1.29161
1.24796
1.20711
1.16869
1.13254
310.298
127.74
121.3
117.673
106.608
91.6657
85.915
100.569
133.284
166.209
181.651
176.532
159.365
139.9
123.653
111.991
104.101
98.5827
94.2032
90.131
85.945
81.5554
77.0815
72.7234
68.6696
65.0532
61.9482
59.3864
57.3799
55.9366
55.0638
54.761
55.0097
55.7666
56.9624
58.5035
60.2752
62.3557
64.6829
67.0778
69.2975
71.0374
71.9448
71.6641
69.947
66.8497
62.9369
59.279
57.0874
57.1847
59.7492
64.3801
70.2752
76.3065
81.2121
84.0264
84.4559
82.7229
79.382
75.2759
70.8064
66.2593
61.8168
57.5892
53.643
50.0223
46.7636
43.9018
41.4689
39.4856
37.9497
36.8257
36.0405
35.4857
35.025
34.5067
33.7873
32.7925
31.6483
30.8898
31.7061
36.1724
47.367
69.9672
108.566
158.197
193.451
189.042
155.431
125.126
106.579
94.8389
86.6356
80.39
75.5275
71.8777
69.2533
67.3131
65.6545
63.9563
62.0672
60.0159
57.9654
56.1387
54.7422
53.9177
53.674
53.8983
54.474
55.278
56.228
57.3161
58.6036
60.1451
61.9956
63.9756
65.7996
67.2337
68.0493
68.1003
67.3646
65.9285
63.9398
61.5565
58.9122
56.1024
53.1879
50.2068
47.186
44.1509
41.1294
38.1533
35.2562
32.4715
29.8305
27.3601
25.0806
23.0081
21.1474
19.4904
18.0179
16.7025
15.5121
14.4154
13.3851
12.4009
11.4511
10.5313
9.64351
8.7936
7.98885
7.23621
6.54102
5.90644
5.33333
4.82051
4.3652
3.96348
3.61073
3.30204
3.03245
2.79721
2.5919
2.4125
2.25539
2.11744
1.99586
1.8883
1.79269
1.70729
1.63061
1.56137
1.4985
1.44106
1.38827
1.33947
1.29408
1.25165
1.21173
1.17408
324.538
141.462
141.429
143.105
134.173
118.656
109.715
117.68
139.971
161.683
169.421
161.851
146.119
129.62
116.231
106.658
99.991
94.9356
90.4488
85.9467
81.2702
76.5319
71.9414
67.6794
63.8444
60.4565
57.494
54.936
52.7897
51.091
49.8834
49.1959
49.0356
49.3932
50.2542
51.598
53.3842
55.7865
58.7092
62.0103
65.4904
68.8812
71.8213
73.8001
74.123
72.0954
67.5605
61.4726
55.7626
52.2601
51.8146
54.273
58.9971
64.961
70.7562
74.9388
76.8693
76.5146
74.4758
71.3565
67.6365
63.6641
59.6701
55.7977
52.1329
48.729
45.6249
42.8578
40.4686
38.4975
36.9728
35.8959
35.2293
34.8913
34.7594
34.6797
34.4845
34.0404
33.3766
32.9622
34.131
39.4673
52.7869
79.0105
120.262
164.654
184.708
168.041
135.042
110.114
95.5507
86.3659
79.7337
74.5424
70.4406
67.311
64.955
63.0545
61.2801
59.4021
57.3473
55.1934
53.1255
51.3678
50.1066
49.4647
49.4105
49.7925
50.4608
51.2476
52.0354
52.8013
53.6374
54.612
55.7843
57.1003
58.4065
59.4856
60.1384
60.2345
59.7462
58.7379
57.3241
55.6235
53.7274
51.6896
49.5333
47.2652
44.8896
42.418
39.8725
37.285
34.6936
32.1381
29.6568
27.2843
25.0497
22.9777
21.0866
19.3833
17.8638
16.5126
15.306
14.2155
13.2123
12.2714
11.3742
10.5096
9.67366
8.86814
8.09818
7.37032
6.69065
6.06379
5.49228
4.97661
4.51543
4.10598
3.74452
3.42677
3.14821
2.90437
2.691
2.50414
2.34024
2.19611
2.06898
1.95643
1.85636
1.76697
1.68672
1.61431
1.5486
1.48865
1.43363
1.38286
1.33574
1.29179
1.25053
1.21168
322.936
149.751
155.709
163.794
158.972
144.51
132.53
133.096
145.081
157.068
158.958
150.054
135.876
121.843
110.625
102.503
96.5585
91.6543
86.9765
82.188
77.323
72.5798
68.1402
64.0795
60.3642
56.9084
53.6504
50.6042
47.855
45.5128
43.6606
42.3344
41.5383
41.276
41.5761
42.4989
44.1323
46.5877
49.7633
53.5412
57.7414
62.1488
66.5488
70.6587
73.8517
74.9329
72.6018
66.6697
59.0175
52.5137
49.0998
49.0279
51.8216
56.6593
62.293
66.9261
69.7039
70.4414
69.4363
67.1866
64.1749
60.778
57.2572
53.7809
50.4533
47.3386
44.4797
41.9135
39.6814
37.8326
36.4183
35.4777
35.0208
35.0144
35.3738
35.9595
36.5817
37.0294
37.1909
37.3922
38.9857
44.9652
59.7026
87.6723
127.733
163.542
171.262
149.241
119.664
99.311
87.5757
80.0556
74.4787
69.9963
66.3735
63.5161
61.2465
59.3088
57.4569
55.5297
53.4867
51.4067
49.4555
47.8407
46.7233
46.2162
46.2758
46.7424
47.4529
48.2079
48.8741
49.4098
49.8805
50.4013
51.0539
51.8237
52.6122
53.2709
53.6552
53.6705
53.2986
52.5915
51.636
50.5133
49.272
47.9228
46.4489
44.8238
43.0272
41.0559
38.9266
36.6739
34.3436
31.9849
29.6454
27.3671
25.1842
23.1244
21.2124
19.4649
17.8892
16.4821
15.2301
14.1115
13.1002
12.1702
11.2987
10.4692
9.67218
8.90431
8.16733
7.46578
6.80518
6.19049
5.62523
5.11107
4.64785
4.23388
3.86632
3.54156
3.25561
3.00435
2.78377
2.59006
2.41977
2.26975
2.13724
2.01979
1.9153
1.82194
1.73812
1.66252
1.59395
1.53145
1.47417
1.42139
1.37251
1.327
1.2844
1.24439
306.533
149.975
162.412
177.735
178.845
167.483
153.751
147.541
150.09
153.769
151.085
141.329
128.423
116.216
106.507
99.314
93.7667
88.899
84.1075
79.2403
74.4355
69.8907
65.6996
61.8026
58.0396
54.2667
50.4641
46.758
43.3459
40.3921
37.9687
36.0627
34.6316
33.6764
33.291
33.6606
35.0673
37.4347
40.6967
44.7486
49.3901
54.3334
59.3503
64.4065
69.3623
73.2077
74.0849
70.4243
63.0786
55.1659
49.6904
47.5261
48.3945
51.6437
56.1541
60.5256
63.6327
64.9832
64.6647
63.0683
60.6397
57.7525
54.6759
51.5895
48.6079
45.8038
43.2248
40.9078
38.8911
37.2236
35.9669
35.1881
34.9437
35.2622
36.125
37.4455
39.0486
40.6733
42.0715
43.3617
45.7434
52.3393
67.7083
95.3849
131.366
158.013
157.295
134.075
108.397
91.4347
81.5786
75.1716
70.3259
66.3421
63.031
60.3101
58.0448
56.059
54.1883
52.3214
50.4239
48.548
46.8121
45.3627
44.3435
43.8625
43.9055
44.3276
44.9633
45.6367
46.2022
46.5954
46.8579
47.0885
47.3631
47.6895
48.0171
48.2671
48.3621
48.2534
47.9422
47.4751
46.9159
46.3103
45.6654
44.9484
44.1021
43.0651
41.7902
40.2567
38.4751
36.4838
34.34
32.1089
29.8534
27.6305
25.4748
23.4173
21.4839
19.6946
18.0626
16.5928
15.2808
14.1127
13.0679
12.1221
11.2515
10.4362
9.66187
8.92071
8.21039
7.53257
6.89111
6.29038
5.73405
5.2244
4.76211
4.34633
3.97502
3.64522
3.35346
3.09604
2.86922
2.66942
2.4933
2.3378
2.2002
2.07808
1.96933
1.8721
1.78479
1.70604
1.63466
1.56964
1.5101
1.45532
1.40466
1.35758
1.31361
1.27241
279.302
142.208
160.729
183.273
192.153
186.272
173.022
161.788
156.337
152.915
146.349
135.739
123.612
112.585
103.825
97.1809
91.8472
87.0055
82.2069
77.4142
72.8103
68.5611
64.6641
60.9282
57.0804
52.9484
48.5925
44.2766
40.308
36.8821
34.0299
31.6625
29.6671
28.02
26.8923
26.7043
27.9671
30.2319
33.4382
37.5442
42.4224
47.7412
53.099
58.4183
63.9631
69.094
72.1463
70.9366
65.3037
57.8537
51.6008
48.0191
47.2966
49.0331
52.3607
56.0438
58.9363
60.409
60.4004
59.1952
57.1786
54.6942
51.9986
49.2667
46.6135
44.1141
41.8186
39.7642
37.9857
36.527
35.4492
34.8326
34.7676
35.3405
36.6124
38.5871
41.1632
44.0982
47.0656
49.9656
53.6631
60.9948
76.2462
101.877
132.168
150.614
144.787
122.439
100.191
85.5948
76.9565
71.2849
66.9514
63.3258
60.2255
57.5796
55.3045
53.2991
51.4643
49.7186
48.0167
46.3706
44.8466
43.5442
42.5758
42.0454
41.9811
42.2784
42.7936
43.364
43.8429
44.1512
44.302
44.3613
44.3799
44.3679
44.3158
44.214
44.0545
43.8379
43.5872
43.3475
43.1622
43.0442
42.9607
42.8385
42.5825
42.0977
41.3082
40.1715
38.6856
36.8889
34.851
32.6587
30.4006
28.159
25.9722
23.8757
21.8959
20.0522
18.358
16.8211
15.4417
14.2122
13.1174
12.1366
11.247
10.427
9.65959
8.9328
8.24053
7.58123
6.95645
6.36922
5.82267
5.31914
4.85971
4.44413
4.07093
3.73776
3.44163
3.17923
2.94715
2.74201
2.56066
2.40015
2.25782
2.1313
2.01849
1.91756
1.82689
1.7451
1.67098
1.60349
1.54176
1.48501
1.4326
1.38397
1.33862
1.29622
245.691
127.024
151.177
180.446
198.038
199.766
189.768
176.185
164.724
155.289
145.095
133.315
121.407
110.995
102.734
96.351
91.1064
86.2949
81.5599
76.9179
72.5661
68.6461
65.0922
61.6146
57.8356
53.5266
48.7813
43.9681
39.5054
35.6531
32.4533
29.8067
27.5934
25.712
24.1461
23.6
24.6772
26.8066
29.7898
33.6319
38.3168
43.6078
49.0756
54.4733
59.925
65.2996
69.299
69.7495
65.7787
59.2497
53.0562
48.9277
47.2995
47.9684
50.2605
53.1133
55.4729
56.7056
56.688
55.6298
53.8527
51.6551
49.2644
46.8383
44.4828
42.2689
40.2457
38.4494
36.912
35.6709
34.7807
34.3217
34.4016
35.1484
36.6963
39.1566
42.556
46.7577
51.4518
56.366
61.9077
70.211
84.8322
107.265
131.337
143.05
134.415
113.722
94.2014
81.2069
73.3257
68.1181
64.1378
60.7755
57.8341
55.2505
52.984
50.9921
49.2217
47.6081
46.0921
44.6501
43.3065
42.1239
41.1879
40.599
40.4147
40.5679
40.94
41.3874
41.775
42.0206
42.1136
42.0781
41.9257
41.6589
41.3071
40.9285
40.5804
40.3072
40.1506
40.1533
40.3386
40.6874
41.1304
41.5608
41.8554
41.894
41.5752
40.8289
39.6289
38.0003
36.0166
33.7864
31.4422
29.0871
26.779
24.5681
22.4855
20.5496
18.7706
17.1532
15.6974
14.3976
13.242
12.2129
11.2894
10.4499
9.67544
8.95129
8.26795
7.62073
7.00864
6.43288
5.89555
5.39855
4.94297
4.52884
4.15511
3.81986
3.52052
3.25417
3.01767
2.80792
2.62191
2.45686
2.31018
2.17956
2.06294
1.95849
1.86461
1.77991
1.70316
1.63331
1.56946
1.51081
1.4567
1.40656
1.35988
1.31629
206.742
105.857
135.847
170.874
196.555
206.734
202.27
189.568
174.951
161.042
147.568
134.323
122.102
111.773
103.587
97.1783
91.8738
87.0548
82.4062
77.9392
73.8283
70.1961
66.96
63.802
60.2945
56.1424
51.3833
46.3731
41.5714
37.3154
33.7328
30.7992
28.4482
26.6353
25.4075
25.1119
25.8317
27.4598
29.9528
33.3235
37.5614
42.4873
47.7281
53.0045
58.3441
63.6083
67.6637
68.5325
65.2989
59.5181
53.7651
49.6427
47.6405
47.6681
49.1681
51.2163
52.8984
53.6688
53.4197
52.3241
50.6482
48.6385
46.4833
44.3149
42.2234
40.2714
38.5033
36.9532
35.65
34.6253
33.9251
33.6217
33.8244
34.6834
36.3864
39.1433
43.1344
48.4073
54.7826
61.9165
69.725
79.3238
93.1482
111.89
129.91
136.277
126.19
107.26
89.8155
77.8876
70.4397
65.4905
61.738
58.5704
55.7632
53.2511
51.02
49.0652
47.3641
45.8643
44.499
43.222
42.0294
40.9561
40.0653
39.4474
39.1725
39.2019
39.4399
39.7638
40.0575
40.2463
40.302
40.2055
39.9248
39.4563
38.8723
38.2962
37.8393
37.5767
37.5607
37.8268
38.374
39.1483
40.0478
40.9457
41.7118
42.2226
42.3642
42.0387
41.179
39.7703
37.8644
35.5808
33.1077
30.5486
28.0174
25.5933
23.3236
21.2306
19.3212
17.594
16.0435
14.661
13.4342
12.3464
11.3778
10.5071
9.7143
8.98252
8.29954
7.65781
7.05374
6.48652
5.95687
5.4659
5.01436
4.6023
4.22886
3.89242
3.59077
3.32127
3.08109
2.86734
2.67721
2.50805
2.35738
2.22296
2.10278
1.99503
1.89813
1.81066
1.73142
1.65932
1.59344
1.53299
1.47727
1.42569
1.37773
1.333
159.481
81.669
118.631
158.591
188.767
205.489
207.927
199.478
185.403
169.649
154.007
139.319
126.333
115.56
107.024
100.31
94.7927
89.8998
85.3087
80.9798
77.0395
73.6002
70.6112
67.8027
64.7638
61.1398
56.8338
52.0619
47.2224
42.698
38.7345
35.4349
32.8195
30.8832
29.6307
29.2521
29.7365
31.0572
33.2146
36.2262
40.0642
44.5512
49.369
54.3016
59.3405
64.2073
67.6892
68.0032
64.6222
59.189
53.9129
50.0432
47.9843
47.6663
48.5669
49.8648
50.8109
51.0034
50.3979
49.1556
47.4942
45.6062
43.6368
41.6884
39.8325
38.1203
36.5902
35.2724
34.1932
33.3798
32.8695
32.7235
33.0422
33.9794
35.7511
38.6389
42.9642
48.9959
56.7957
66.1093
76.4832
87.8574
101.158
116.29
128.716
130.697
119.773
102.407
86.5342
75.3132
68.0701
63.2196
59.5915
56.566
53.8823
51.4591
49.2905
47.3908
45.7564
44.3476
43.1001
41.9587
40.9025
39.9457
39.1323
38.54
38.2347
38.1912
38.3298
38.5471
38.7505
38.8811
38.8983
38.742
38.3426
37.7033
36.9472
36.2547
35.772
35.5876
35.754
36.2893
37.1557
38.2563
39.4634
40.6543
41.7272
42.593
43.1556
43.3005
42.9067
41.8828
40.2129
38.0048
35.4316
32.6385
29.8055
27.0675
24.5088
22.1697
20.06
18.1728
16.4938
15.0065
13.6932
12.535
11.5108
10.5989
9.77816
9.02994
8.33968
7.69721
7.09647
6.53454
6.01052
5.52448
5.0766
4.66668
4.29389
3.95679
3.65339
3.38132
3.13798
2.92072
2.7269
2.554
2.39966
2.26172
2.13821
2.02737
1.92761
1.83754
1.75593
1.6817
1.61392
1.55176
1.49452
1.44159
1.39242
1.34662
108.352
59.0646
100.034
144.062
175.322
194.395
202.25
199.899
190.179
176.494
161.43
146.675
133.362
122.123
113.062
105.863
99.9872
94.9057
90.2681
85.9629
82.0518
78.632
75.7019
73.0849
70.4534
67.4549
63.879
59.7583
55.3371
50.9476
46.8886
43.3665
40.4964
38.3308
36.9
36.3678
36.6668
37.7792
39.6984
42.4123
45.8457
49.8012
54.0335
58.4385
62.9579
67.0322
69.224
68.0953
63.903
58.5266
53.6719
50.1363
48.1812
47.6636
48.0309
48.5659
48.7229
48.2787
47.2684
45.8443
44.1724
42.3884
40.592
38.854
37.2262
35.748
34.4508
33.3612
32.503
31.9005
31.5848
31.6059
32.0502
33.0611
34.8599
37.7655
42.2006
48.6354
57.4167
68.5127
81.3041
94.6682
107.978
120.34
128.344
126.982
115.446
99.1691
84.3418
73.5327
66.3297
61.4528
57.8503
54.9015
52.3114
49.9735
47.8736
46.0289
44.445
43.0944
41.9234
40.8806
39.9393
39.1005
38.3919
37.8742
37.5958
37.5315
37.6086
37.7398
37.8587
37.9251
37.8878
37.6488
37.1167
36.3244
35.4548
34.7292
34.3032
34.2615
34.6429
35.4256
36.509
37.7438
38.9939
40.1797
41.2759
42.2752
43.1424
43.7778
44.0121
43.6468
42.536
40.6926
38.1739
35.2181
32.0783
28.9691
26.0393
23.3691
20.9851
18.8807
17.0331
15.415
13.9994
12.7605
11.6734
10.714
9.85909
9.08842
8.38523
7.73704
7.13551
6.57573
6.05519
5.57278
5.12792
4.72003
4.34814
4.01086
3.70631
3.43232
3.1865
2.96637
2.76944
2.59335
2.43583
2.2948
2.16835
2.05474
1.95243
1.86002
1.77628
1.70014
1.63064
1.56694
1.50833
1.45418
1.40394
1.35718
107.554
53.8825
73.756
116.352
149.878
170.889
183.328
188.072
185.64
177.718
166.517
154.025
141.78
130.791
121.498
113.868
107.569
102.176
97.349
92.9192
88.8801
85.2993
82.2091
79.5255
77.033
74.4463
71.522
68.1605
64.4381
60.5626
56.791
53.3593
50.446
48.1717
46.6343
45.9332
45.9915
46.8151
48.3931
50.6834
53.5744
56.8831
60.4737
64.3076
68.1247
70.934
71.1764
68.1676
63.0861
57.7398
53.2086
49.9594
48.1204
47.4139
47.2571
47.0741
46.5307
45.5554
44.2306
42.6833
41.0278
39.3503
37.7129
36.1619
34.7335
33.4579
32.3613
31.4673
30.7985
30.3777
30.2325
30.405
30.9675
32.0464
33.8499
36.7013
41.0703
47.5632
56.7871
69.0264
83.7474
99.1909
113.214
123.93
128.742
124.838
112.713
97.0857
82.9116
72.3183
65.0582
60.079