/*--------------------------------*- C++ -*----------------------------------*\
| =========                 |                                                 |
| \\      /  F ield         | OpenFOAM: The Open Source CFD Toolbox           |
|  \\    /   O peration     | Version:  2112                                  |
|   \\  /    A nd           | Website:  www.openfoam.com                      |
|    \\/     M anipulation  |                                                 |
\*---------------------------------------------------------------------------*/
FoamFile
{
    version     2.0;
    format      ascii;
    arch        "LSB;label=32;scalar=64";
    class       volScalarField;
    location    "0.07";
    object      s_0;
}
// * * * * * * * * * * * * * * * * * * * * * * * * * * * * * * * * * * * * * //

dimensions      [0 0 0 0 0 0 0];

internalField   nonuniform List<scalar> 
122250
(
1
1
1
1
1
1
1
1
1
1
1
1
1
1
1
1
1
1
1
1
1
1
1
1
1
1
1
1
1
1
1
1
1
1
1
1
1
1
1
1
1
1
1
1
1
1
1
1
1
1
1
1
1
1
1
1
1
1
1
1
1
1
1
1
1
1
1
1
1
1
1
1
1
1
1
1
1
1
1
1
1
1
1
1
1
1
1
1
1
1
1
1
1
1
1
1
1
1
1
1
1
1
1
1
1
1
1
1
1
1
1
1
1
1
1
1
1
1
1
1
1
1
1
1
1
1
1
1
1
1
1
1
1
1
1
1
1
1
1
1
1
1
1
1
1
1
1
1
1
1
1
1
1
1
1
1
1
1
1
1
1
1
1
1
1
1
1
1
1
1
1
1
1
1
1
1
1
1
1
1
1
1
1
1
1
1
1
1
1
1
1
1
1
1
1
1
1
1
1
1
1
1
1
1
1
1
1
1
1
1
1
1
1
1
1
1
1
1
1
1
1
1
1
1
1
1
1
1
1
1
1
1
1
1
1
1
1
1
1
1
1
1
1
1
1
1
1
1
1
1
1
1
1
1
1
1
1
1
1
1
1
1
1
1
1
1
1
1
1
1
1
1
1
1
1
1
1
1
1
1
1
1
1
1
1
1
1
1
1
1
1
1
1
1
1
1
1
1
1
1
1
1
1
1
1
1
1
1
1
1
1
1
1
1
1
1
1
1
1
1
1
1
1
1
1
1
1
1
1
1
1
1
1
1
1
1
1
1
1
1
1
1
1
1
1
1
1
1
1
1
1
1
1
1
1
1
1
1
1
1
1
1
1
1
1
1
1
1
1
1
1
1
1
1
1
1
1
1
1
1
1
1
1
1
1
1
1
1
1
1
1
1
1
1
1
1
1
1
1
1
1
1
1
1
1
1
1
1
1
1
1
1
1
1
1
1
1
1
1
1
1
1
1
1
1
1
1
1
1
1
1
1
1
1
1
1
1
1
1
1
1
1
1
1
1
1
1
1
1
1
1
1
1
1
1
1
1
1
1
1
1
1
1
1
1
1
1
1
1
1
1
1
1
1
1
1
1
1
1
1
1
1
1
1
1
1
1
1
1
1
1
1
1
1
1
1
1
1
1
1
1
1
1
1
1
1
1
1
1
1
1
1
1
1
1
1
1
1
1
1
1
1
1
1
1
1
1
1
1
1
1
1
1
1
1
1
1
1
1
1
1
1
1
1
1
1
1
1
1
1
1
1
1
1
1
1
1
1
1
1
1
1
1
1
1
1
1
1
1
1
1
1
1
1
1
1
1
1
1
1
1
1
1
1
1
1
1
1
1
1
1
1
1
1
1
1
1
1
1
1
1
1
1
1
1
1
1
1
1
1
1
1
1
1
1
1
1
1
1
1
1
1
1
1
1
1
1
1
1
1
1
1
1
1
1
1
1
1
1
1
1
1
1
1
1
1
1
1
1
1
1
1
1
1
1
1
1
1
1
1
1
1
1
1
1
1
1
1
1
1
1
1
1
1
1
1
1
1
1
1
1
1
1
1
1
1
1
1
1
1
1
1
1
1
1
1
1
1
1
1
1
1
1
1
1
1
1
1
1
1
1
1
1
1
1
1
1
1
1
1
1
1
1
1
1
1
1
1
1
1
1
1
1
1
1
1
1
1
1
1
1
1
1
1
1
1
1
1
1
1
1
1
1
1
1
1
1
1
1
1
1
1
1
1
1
1
1
1
1
1
1
1
1
1
1
1
1
1
1
1
1
1
1
1
1
1
1
1
1
1
1
1
1
1
1
1
1
1
1
1
1
1
1
1
1
1
1
1
1
1
1
1
1
1
1
1
1
1
1
1
1
1
1
1
1
1
1
1
1
1
1
1
1
1
1
1
1
1
1
1
1
1
1
1
1
1
1
1
1
1
1
1
1
1
1
1
1
1
1
1
1
1
1
1
1
1
1
1
1
1
1
1
1
1
1
1
1
1
1
1
1
1
1
1
1
1
1
1
1
1
1
1
1
1
1
1
1
1
1
1
1
1
1
1
1
1
1
1
1
1
1
1
1
1
1
1
1
1
1
1
1
1
1
1
1
1
1
1
1
1
1
1
1
1
1
1
1
1
1
1
1
1
1
1
1
1
1
1
1
1
1
1
1
1
1
1
1
1
1
1
1
1
1
1
1
1
1
1
1
1
1
1
1
1
1
1
1
1
1
1
1
1
1
1
1
1
1
1
1
1
1
1
1
1
1
1
1
1
1
1
1
1
1
1
1
1
1
1
1
1
1
1
1
1
1
1
1
1
1
1
1
1
1
1
1
1
1
1
1
1
1
1
1
1
1
1
1
1
1
1
1
1
1
1
1
1
1
1
1
1
1
1
1
1
1
1
1
1
1
1
1
1
1
1
1
1
1
1
1
1
1
1
1
1
1
1
1
1
1
1
1
1
1
1
1
1
1
1
1
1
1
1
1
1
1
1
1
1
1
1
1
1
1
1
1
1
1
1
1
1
1
1
1
1
1
1
1
1
1
1
1
1
1
1
1
1
1
1
1
1
1
1
1
1
1
1
1
1
1
1
1
1
1
1
1
1
1
1
1
1
1
1
1
1
1
1
1
1
1
1
1
1
1
1
1
1
1
1
1
1
1
1
1
1
1
1
1
1
1
1
1
1
1
1
1
1
1
1
1
1
1
1
1
1
1
1
1
1
1
1
1
1
1
1
1
1
1
1
1
1
1
1
1
1
1
1
1
1
1
1
1
1
1
1
1
1
1
1
1
1
1
1
1
1
1
1
1
1
1
1
1
1
1
1
1
1
1
1
1
1
1
1
1
1
1
1
1
1
1
1
1
1
1
1
1
1
1
1
1
1
1
1
1
1
1
1
1
1
1
1
1
1
1
1
1
1
1
1
1
1
1
1
1
1
1
1
1
1
1
1
1
1
1
1
1
1
1
1
1
1
1
1
1
1
1
1
1
1
1
1
1
1
1
1
1
1
1
1
1
1
1
1
1
1
1
1
1
1
1
1
1
1
1
1
1
1
1
1
1
1
1
1
1
1
1
1
1
1
1
1
1
1
1
1
1
1
1
1
1
1
1
1
1
1
1
1
1
1
1
1
1
1
1
1
1
1
1
1
1
1
1
1
1
1
1
1
1
1
1
1
1
1
1
1
1
1
1
1
1
1
1
1
1
1
1
1
1
1
1
1
1
1
1
1
1
1
1
1
1
1
1
1
1
1
1
1
1
1
1
1
1
1
1
1
1
1
1
1
1
1
1
1
1
1
1
1
1
1
1
1
1
1
1
1
1
1
1
1
1
1
1
1
1
1
1
1
1
1
1
1
1
1
1
1
1
1
1
1
1
1
1
1
1
1
1
1
1
1
1
1
1
1
1
1
1
1
1
1
1
1
1
1
1
1
1
1
1
1
1
1
1
1
1
1
1
1
1
1
1
1
1
1
1
1
1
1
1
1
1
1
1
1
1
1
1
1
1
1
1
1
1
1
1
1
1
1
1
1
1
1
1
1
1
1
1
1
1
1
1
1
1
1
1
1
1
1
1
1
1
1
1
1
1
1
1
1
1
1
1
1
1
1
1
1
1
1
1
1
1
1
1
1
1
1
1
1
1
1
1
1
1
1
1
1
1
1
1
1
1
1
1
1
1
1
1
1
1
1
1
1
1
1
1
1
1
1
1
1
1
1
1
1
1
1
1
1
1
1
1
1
1
1
1
1
1
1
1
1
1
1
1
1
1
1
1
1
1
1
1
1
1
1
1
1
1
1
1
1
1
1
1
1
1
1
1
1
1
1
1
1
1
1
1
1
1
1
1
1
1
1
1
1
1
1
1
1
1
1
1
1
1
1
1
1
1
1
1
1
1
1
1
1
1
1
1
1
1
1
1
1
1
1
1
1
1
1
1
1
1
1
1
1
1
1
1
1
1
1
1
1
1
1
1
1
1
1
1
1
1
1
1
1
1
1
1
1
1
1
1
1
1
1
1
1
1
1
1
1
1
1
1
1
1
1
1
1
1
1
1
1
1
1
1
1
1
1
1
1
1
1
1
1
1
1
1
1
1
1
1
1
1
1
1
1
1
1
1
1
1
1
1
1
1
1
1
1
1
1
1
1
1
1
1
1
1
1
1
1
1
1
1
1
1
1
1
1
1
1
1
1
1
1
1
1
1
1
1
1
1
1
1
1
1
1
1
1
1
1
1
1
1
1
1
1
1
1
1
1
1
1
1
1
1
1
1
1
1
1
1
1
1
1
1
1
1
1
1
1
1
1
1
1
1
1
1
1
1
1
1
1
1
1
1
1
1
1
1
1
1
1
1
1
1
1
1
1
1
1
1
1
1
1
1
1
1
1
1
1
1
1
1
1
1
1
1
1
1
1
1
1
1
1
1
1
1
1
1
1
1
1
1
1
1
1
1
1
1
1
1
1
1
1
1
1
1
1
1
1
1
1
1
1
1
1
1
1
1
1
1
1
1
1
1
1
1
1
1
1
1
1
1
1
1
1
1
1
1
1
1
1
1
1
1
1
1
1
1
1
1
1
1
1
1
1
1
1
1
1
1
1
1
1
1
1
1
1
1
1
1
1
1
1
1
1
1
1
1
1
1
1
1
1
1
1
1
1
1
1
1
1
1
1
1
1
1
1
1
1
1
1
1
1
1
1
1
1
1
1
1
1
1
1
1
1
1
1
1
1
1
1
1
1
1
1
1
1
1
1
1
1
1
1
1
1
1
1
1
1
1
1
1
1
1
1
1
1
1
1
1
1
1
1
1
1
1
1
1
1
1
1
1
1
1
1
1
1
1
1
1
1
1
1
1
1
1
1
1
1
1
1
1
1
1
1
1
1
1
1
1
1
1
1
1
1
1
1
1
1
1
1
1
1
1
1
1
1
1
1
1
1
1
1
1
1
1
1
1
1
1
1
1
1
1
1
1
1
1
1
1
1
1
1
1
1
1
1
1
1
1
1
1
1
1
1
1
1
1
1
1
1
1
1
1
1
1
1
1
1
1
1
1
1
1
1
1
1
1
1
1
1
1
1
1
1
1
1
1
1
1
1
1
1
1
1
1
1
1
1
1
1
1
1
1
1
1
1
1
1
1
1
1
1
1
1
1
1
1
1
1
1
1
1
1
1
1
1
1
1
1
1
1
1
1
1
1
1
1
1
1
1
1
1
1
1
1
1
1
1
1
1
1
1
1
1
1
1
1
1
1
1
1
1
1
1
1
1
1
1
1
1
1
1
1
1
1
1
1
1
1
1
1
1
1
1
1
1
1
1
1
1
1
1
1
1
1
1
1
1
1
1
1
1
1
1
1
1
1
1
1
1
1
1
1
1
1
1
1
1
1
1
1
1
1
1
1
1
1
1
1
1
1
1
1
1
1
1
1
1
1
1
1
1
1
1
1
1
1
1
1
1
1
1
1
1
1
1
1
1
1
1
1
1
1
1
1
1
1
1
1
1
1
1
1
1
1
1
1
1
1
1
1
1
1
1
1
1
1
1
1
1
1
1
1
1
1
1
1
1
1
1
1
1
1
1
1
1
1
1
1
1
1
1
1
1
1
1
1
1
1
1
1
1
1
1
1
1
1
1
1
1
1
1
1
1
1
1
1
1
1
1
1
1
1
1
1
1
1
1
1
1
1
1
1
1
1
1
1
1
1
1
1
1
1
1
1
1
1
1
1
1
1
1
1
1
1
1
1
1
1
1
1
1
1
1
1
1
1
1
1
1
1
1
1
1
1
1
1
1
1
1
1
1
1
1
1
1
1
1
1
1
1
1
1
1
1
1
1
1
1
1
1
1
1
1
1
1
1
1
1
1
1
1
1
1
1
1
1
1
1
1
1
1
1
1
1
1
1
1
1
1
1
1
1
1
1
1
1
1
1
1
1
1
1
1
1
1
1
1
1
1
1
1
1
1
1
1
1
1
1
1
1
1
1
1
1
1
1
1
1
1
1
1
1
1
1
1
1
1
1
1
1
1
1
1
1
1
1
1
1
1
1
1
1
1
1
1
1
1
1
1
1
1
1
1
1
1
1
1
1
1
1
1
1
1
1
1
1
1
1
1
1
1
1
1
1
1
1
1
1
1
1
1
1
1
1
1
1
1
1
1
1
1
1
1
1
1
1
1
1
1
1
1
1
1
1
1
1
1
1
1
1
1
1
1
1
1
1
1
1
1
1
1
1
1
1
1
1
1
1
1
1
1
1
1
1
1
1
1
1
1
1
1
1
1
1
1
1
1
1
1
1
1
1
1
1
1
1
1
1
1
1
1
1
1
1
1
1
1
1
1
1
1
1
1
1
1
1
1
1
1
1
1
1
1
1
1
1
1
1
1
1
1
1
1
1
1
1
1
1
1
1
1
1
1
1
1
1
1
1
1
1
1
1
1
1
1
1
1
1
1
1
1
1
1
1
1
1
1
1
1
1
1
1
1
1
1
1
1
1
1
1
1
1
1
1
1
1
1
1
1
1
1
1
1
1
1
1
1
1
1
1
1
1
1
1
1
1
1
1
1
1
1
1
1
1
1
1
1
1
1
1
1
1
1
1
1
1
1
1
1
1
1
1
1
1
1
1
1
1
1
1
1
1
1
1
1
1
1
1
1
1
1
1
1
1
1
1
1
1
1
1
1
1
1
1
1
1
1
1
1
1
1
1
1
1
1
1
1
1
1
1
1
1
1
1
1
1
1
1
1
1
1
1
1
1
1
1
1
1
1
1
1
1
1
1
1
1
1
1
1
1
1
1
1
1
1
1
1
1
1
1
1
1
1
1
1
1
1
1
1
1
1
1
1
1
1
1
1
1
1
1
1
1
1
1
1
1
1
1
1
1
1
1
1
1
1
1
1
1
1
1
1
1
1
1
1
1
1
1
1
1
1
1
1
1
1
1
1
1
1
1
1
1
1
1
1
1
1
1
1
1
1
1
1
1
1
1
1
1
1
1
1
1
1
1
1
1
1
1
1
1
1
1
1
1
1
1
1
1
1
1
1
1
1
1
1
1
1
1
1
1
1
1
1
1
1
1
1
1
1
1
1
1
1
1
1
1
1
1
1
1
1
1
1
1
1
1
1
1
1
1
1
1
1
1
1
1
1
1
1
1
1
1
1
1
1
1
1
1
1
1
1
1
1
1
1
1
1
1
1
1
1
1
1
1
1
1
1
1
1
1
1
1
1
1
1
1
1
1
1
1
1
1
1
1
1
1
1
1
1
1
1
1
1
1
1
1
1
1
1
1
1
1
1
1
1
1
1
1
1
1
1
1
1
1
1
1
1
1
1
1
1
1
1
1
1
1
1
1
1
1
1
1
1
1
1
1
1
1
1
1
1
1
1
1
1
1
1
1
1
1
1
1
1
1
1
1
1
1
1
1
1
1
1
1
1
1
1
1
1
1
1
1
1
1
1
1
1
1
1
1
1
1
1
1
1
1
1
1
1
1
1
1
1
1
1
1
1
1
1
1
1
1
1
1
1
1
1
1
1
1
1
1
1
1
1
1
1
1
1
1
1
1
1
1
1
1
1
1
1
1
1
1
1
1
1
1
1
1
1
1
1
1
1
1
1
1
1
1
1
1
1
1
1
1
1
1
1
1
1
1
1
1
1
1
1
1
1
1
1
1
1
1
1
1
1
1
1
1
1
1
1
1
1
1
1
1
1
1
1
1
1
1
1
1
1
1
1
1
1
1
1
1
1
1
1
1
1
1
1
1
1
1
1
1
1
1
1
1
1
1
1
1
1
1
1
1
1
1
1
1
1
1
1
1
1
1
1
1
1
1
1
1
1
1
1
1
1
1
1
1
1
1
1
1
1
1
1
1
1
1
1
1
1
1
1
1
1
1
1
1
1
1
1
1
1
1
1
1
1
1
1
1
1
1
1
1
1
1
1
1
1
1
1
1
1
1
1
1
1
1
1
1
1
1
1
1
1
1
1
1
1
1
1
1
1
1
1
1
1
1
1
1
1
1
1
1
1
1
1
1
1
1
1
1
1
1
1
1
1
1
1
1
1
1
1
1
1
1
1
1
1
1
1
1
1
1
1
1
1
1
1
1
1
1
1
1
1
1
1
1
1
1
1
1
1
1
1
1
1
1
1
1
1
1
1
1
1
1
1
1
1
1
1
1
1
1
1
1
1
1
1
1
1
1
1
1
1
1
1
1
1
1
1
1
1
1
1
1
1
1
1
1
1
1
1
1
1
1
1
1
1
1
1
1
1
1
1
1
1
1
1
1
1
1
1
1
1
1
1
1
1
1
1
1
1
1
1
1
1
1
1
1
1
1
1
1
1
1
1
1
1
1
1
1
1
1
1
1
1
1
1
1
1
1
1
1
1
1
1
1
1
1
1
1
1
1
1
1
1
1
1
1
1
1
1
1
1
1
1
1
1
1
1
1
1
1
1
1
1
1
1
1
1
1
1
1
1
1
1
1
1
1
1
1
1
1
1
1
1
1
1
1
1
1
1
1
1
1
1
1
1
1
1
1
1
1
1
1
1
1
1
1
1
1
1
1
1
1
1
1
1
1
1
1
1
1
1
1
1
1
1
1
1
1
1
1
1
1
1
1
1
1
1
1
1
1
1
1
1
1
1
1
1
1
1
1
1
1
1
1
1
1
1
1
1
1
1
1
1
1
1
1
1
1
1
1
1
1
1
1
1
1
1
1
1
1
1
1
1
1
1
1
1
1
1
1
1
1
1
1
1
1
1
1
1
1
1
1
1
1
1
1
1
1
1
1
1
1
1
1
1
1
1
1
1
1
1
1
1
1
1
1
1
1
1
1
1
1
1
1
1
1
1
1
1
1
1
1
1
1
1
1
1
1
1
1
1
1
1
1
1
1
1
1
1
1
1
1
1
1
1
1
1
1
1
1
1
1
1
1
1
1
1
1
1
1
1
1
1
1
1
1
1
1
1
1
1
1
1
1
1
1
1
1
1
1
1
1
1
1
1
1
1
1
1
1
1
1
1
1
1
1
1
1
1
1
1
1
1
1
1
1
1
1
1
1
1
1
1
1
1
1
1
1
1
1
1
1
1
1
1
1
1
1
1
1
1
1
1
1
1
1
1
1
1
1
1
1
1
1
1
1
1
1
1
1
1
1
1
1
1
1
1
1
1
1
1
1
1
1
1
1
1
1
1
1
1
1
1
1
1
1
1
1
1
1
1
1
1
1
1
1
1
1
1
1
1
1
1
1
1
1
1
1
1
1
1
1
1
1
1
1
1
1
1
1
1
1
1
1
1
1
1
1
1
1
1
1
1
1
1
1
1
1
1
1
1
1
1
1
1
1
1
1
1
1
1
1
1
1
1
1
1
1
1
1
1
1
1
1
1
1
1
1
1
1
1
1
1
1
1
1
1
1
1
1
1
1
1
1
1
1
1
1
1
1
1
1
1
1
1
1
1
1
1
1
1
1
1
1
1
1
1
1
1
1
1
1
1
1
1
1
1
1
1
1
1
1
1
1
1
1
1
1
1
1
1
1
1
1
1
1
1
1
1
1
1
1
1
1
1
1
1
1
1
1
1
1
1
1
1
1
1
1
1
1
1
1
1
1
1
1
1
1
1
1
1
1
1
1
1
1
1
1
1
1
1
1
1
1
1
1
1
1
1
1
1
1
1
1
1
1
1
1
1
1
1
1
1
1
1
1
1
1
1
1
1
1
1
1
1
1
1
1
1
1
1
1
1
1
1
1
1
1
1
1
1
1
1
1
1
1
1
1
1
1
1
1
1
1
1
1
1
1
1
1
1
1
1
1
1
1
1
1
1
1
1
1
1
1
1
1
1
1
1
1
1
1
1
1
1
1
1
1
1
1
1
1
1
1
1
1
1
1
1
1
1
1
1
1
1
1
1
1
1
1
1
1
1
1
1
1
1
1
1
1
1
1
1
1
1
1
1
1
1
1
1
1
1
1
1
1
1
1
1
1
1
1
1
1
1
1
1
1
1
1
1
1
1
1
1
1
1
1
1
1
1
1
1
1
1
1
1
1
1
1
1
1
1
1
1
1
1
1
1
1
1
1
1
1
1
1
1
1
1
1
1
1
1
1
1
1
1
1
1
1
1
1
1
1
1
1
1
1
1
1
1
1
1
1
1
1
1
1
1
1
1
1
1
1
1
1
1
1
1
1
1
1
1
1
1
1
1
1
1
1
1
1
1
1
1
1
1
1
1
1
1
1
1
1
1
1
1
1
1
1
1
1
1
1
1
1
1
1
1
1
1
1
1
1
1
1
1
1
1
1
1
1
1
1
1
1
1
1
1
1
1
1
1
1
1
1
1
1
1
1
1
1
1
1
1
1
1
1
1
1
1
1
1
1
1
1
1
1
1
1
1
1
1
1
1
1
1
1
1
1
1
1
1
1
1
1
1
1
1
1
1
1
1
1
1
1
1
1
1
1
1
1
1
1
1
1
1
1
1
1
1
1
1
1
1
1
1
1
1
1
1
1
1
1
1
1
1
1
1
1
1
1
1
1
1
1
1
1
1
1
1
1
1
1
1
1
1
1
1
1
1
1
1
1
1
1
1
1
1
1
1
1
1
1
1
1
1
1
1
1
1
1
1
1
1
1
1
1
1
1
1
1
1
1
1
1
1
1
1
1
1
1
1
1
1
1
1
1
1
1
1
1
1
1
1
1
1
1
1
1
1
1
1
1
1
1
1
1
1
1
1
1
1
1
1
1
1
1
1
1
1
1
1
1
1
1
1
1
1
1
1
1
1
1
1
1
1
1
1
1
1
1
1
1
1
1
1
1
1
1
1
1
1
1
1
1
1
1
1
1
1
1
1
1
1
1
1
1
1
1
1
1
1
1
1
1
1
1
1
1
1
1
1
1
1
1
1
1
1
1
1
1
1
1
1
1
1
1
1
1
1
1
1
1
1
1
1
1
1
1
1
1
1
1
1
1
1
1
1
1
1
1
1
1
1
1
1
1
1
1
1
1
1
1
1
1
1
1
1
1
1
1
1
1
1
1
1
1
1
1
1
1
1
1
1
1
1
1
1
1
1
1
1
1
1
1
1
1
1
1
1
1
1
1
1
1
1
1
1
1
1
1
1
1
1
1
1
1
1
1
1
1
1
1
1
1
1
1
1
1
1
1
1
1
1
1
1
1
1
1
1
1
1
1
1
1
1
1
1
1
1
1
1
1
1
1
1
1
1
1
1
1
1
1
1
1
1
1
1
1
1
1
1
1
1
1
1
1
1
1
1
1
1
1
1
1
1
1
1
1
1
1
1
1
1
1
1
1
1
1
1
1
1
1
1
1
1
1
1
1
1
1
1
1
1
1
1
1
1
1
1
1
1
1
1
1
1
1
1
1
1
1
1
1
1
1
1
1
1
1
1
1
1
1
1
1
1
1
1
1
1
1
1
1
1
1
1
1
1
1
1
1
1
1
1
1
1
1
1
1
1
1
1
1
1
1
1
1
1
1
1
1
1
1
1
1
1
1
1
1
1
1
1
1
1
1
1
1
1
1
1
1
1
1
1
1
1
1
1
1
1
1
1
1
1
1
1
1
1
1
1
1
1
1
1
1
1
1
1
1
1
1
1
1
1
1
1
1
1
1
1
1
1
1
1
1
1
1
1
1
1
1
1
1
1
1
1
1
1
1
1
1
1
1
1
1
1
1
1
1
1
1
1
1
1
1
1
1
1
1
1
1
1
1
1
1
1
1
1
1
1
1
1
1
1
1
1
1
1
1
1
1
1
1
1
1
1
1
1
1
1
1
1
1
1
1
1
1
1
1
1
1
1
1
1
1
1
1
1
1
1
1
1
1
1
1
1
1
1
1
1
1
1
1
1
1
1
1
1
1
1
1
1
1
1
1
1
1
1
1
1
1
1
1
1
1
1
1
1
1
1
1
1
1
1
1
1
1
1
1
1
1
1
1
1
1
1
1
1
1
1
1
1
1
1
1
1
1
1
1
1
1
1
1
1
1
1
1
1
1
1
1
1
1
1
1
1
1
1
1
1
1
1
1
1
1
1
1
1
1
1
1
1
1
1
1
1
1
1
1
1
1
1
1
1
1
1
1
1
1
1
1
1
1
1
1
1
1
1
1
1
1
1
1
1
1
1
1
1
1
1
1
1
1
1
1
1
1
1
1
1
1
1
1
1
1
1
1
1
1
1
1
1
7.59668e-10
1.67153e-06
2.24269e-05
0.000101815
0.000197486
0.000253487
0.000315295
0.000369792
0.000483305
0.000595126
0.000834357
0.00126654
0.00184965
0.00311585
0.00586265
0.00999593
0.0170016
0.0271223
0.037605
0.0556402
0.0752564
0.0900307
0.113143
0.128721
0.128545
0.123632
0.110114
0.0870691
0.066768
0.0478964
0.0331057
0.0255799
0.0241547
0.0264522
0.0390582
0.0535545
0.0863664
0.122127
0.145345
0.217325
0.30802
0.305736
0.28397
0.291202
0.349517
0.510608
0.727948
0.766356
0.73789
0.719882
0.710652
0.701309
0.690163
0.675279
0.661137
0.658336
0.659017
0.664554
0.677085
0.702242
0.750177
0.797149
0.808496
0.809667
0.807245
0.796087
0.767893
0.737797
0.732889
0.739962
0.749086
0.747476
0.743618
0.749507
0.777225
0.800934
0.804573
0.80446
0.802644
0.801226
0.800723
0.800391
0.799536
0.797468
0.794055
0.792368
0.792142
0.792434
0.793747
0.796173
0.798517
0.799231
0.799353
0.799336
0.799193
0.798853
0.798318
0.79744
0.796079
0.794877
0.794192
0.793184
0.791839
0.790457
0.789039
0.787545
0.786369
0.785751
0.78525
0.783661
0.782656
0.78333
0.786237
0.791149
0.796302
0.800535
0.805244
0.811173
0.818607
0.827709
0.837044
0.842086
0.835548
0.803045
0.716837
0.615889
0.563937
0.546705
0.520467
0.462688
0.44662
0.455496
0.513983
0.618667
0.684257
0.717604
0.732587
0.734909
0.734168
0.73911
0.768378
0.793865
0.799297
0.792541
0.753316
0.732742
0.75129
0.831777
0.872149
0.878637
0.879114
0.880351
0.880698
0.878315
0.874716
0.869139
0.862263
0.851106
0.82819
0.794254
0.760165
0.743592
0.747356
0.755528
0.763418
0.778764
0.794974
0.792373
0.578038
0.102
0.0586456
0.0976313
0.0889832
0.0267609
0.00132664
3.76684e-05
1.18204e-06
9.83491e-08
1.19744e-08
-9.26711e-07
2.68917e-08
4.43704e-05
0.000372956
0.00143827
0.00217386
0.00253747
0.00295421
0.00335749
0.0040415
0.00504792
0.00735036
0.0115777
0.0181208
0.0340818
0.062186
0.100795
0.167226
0.239402
0.308578
0.375888
0.422261
0.450664
0.471018
0.476605
0.47477
0.468183
0.453247
0.429237
0.379906
0.268232
0.156239
0.087471
0.0597521
0.0571483
0.0647418
0.0860067
0.115309
0.131907
0.169627
0.278049
0.312547
0.305323
0.237221
0.166568
0.165212
0.283588
0.655106
0.764726
0.734138
0.727256
0.713975
0.709
0.699668
0.693993
0.667958
0.645454
0.642985
0.644593
0.650107
0.660928
0.698424
0.773445
0.802971
0.806152
0.799818
0.770899
0.729527
0.720461
0.720983
0.72477
0.727698
0.734726
0.756007
0.788433
0.813623
0.820658
0.821947
0.821896
0.820813
0.819076
0.817871
0.816795
0.815072
0.81299
0.811631
0.811188
0.811194
0.812191
0.814739
0.818328
0.821288
0.82219
0.822314
0.821962
0.82095
0.819576
0.818881
0.818797
0.819309
0.819729
0.819549
0.81851
0.817242
0.816352
0.816107
0.816358
0.817501
0.819646
0.823105
0.825639
0.82628
0.823157
0.821578
0.821829
0.824406
0.827069
0.827788
0.826601
0.822798
0.822263
0.829272
0.839082
0.838474
0.822852
0.763393
0.662209
0.592058
0.571979
0.54877
0.522579
0.51508
0.501841
0.449647
0.41913
0.420094
0.44089
0.533987
0.661709
0.739076
0.77142
0.780931
0.782338
0.783533
0.782606
0.757208
0.750533
0.781437
0.875361
0.867079
0.857341
0.876752
0.904579
0.913683
0.912492
0.90869
0.904138
0.898701
0.891861
0.878991
0.846183
0.776046
0.711875
0.689594
0.69273
0.702439
0.705763
0.715685
0.744343
0.707421
0.516286
0.434938
0.471154
0.559039
0.590571
0.539239
0.240079
0.0564672
0.0128091
0.00291484
0.000508252
2.04536e-06
0.000478284
0.00270933
0.00758658
0.00892597
0.00971133
0.0106591
0.0118304
0.0141448
0.0192995
0.0317978
0.0586432
0.0996983
0.199069
0.310621
0.439382
0.506253
0.536542
0.548616
0.551889
0.551102
0.549448
0.545837
0.542603
0.539394
0.536087
0.53405
0.531001
0.522083
0.496256
0.419971
0.274587
0.192044
0.175541
0.181501
0.219364
0.258239
0.273127
0.305827
0.337277
0.336509
0.284326
0.17954
0.16437
0.188237
0.350888
0.676218
0.767174
0.734384
0.735185
0.720771
0.708192
0.704016
0.71037
0.714638
0.683834
0.661505
0.66048
0.660662
0.660099
0.66702
0.705937
0.779045
0.801567
0.801918
0.784684
0.736015
0.707401
0.703848
0.705191
0.713627
0.735553
0.772887
0.814638
0.828387
0.83123
0.830915
0.826407
0.817569
0.807869
0.800188
0.79483
0.789034
0.780581
0.773218
0.770414
0.769548
0.770386
0.777344
0.788487
0.797976
0.810064
0.815729
0.817888
0.818491
0.818594
0.81895
0.822023
0.830177
0.839764
0.843562
0.844008
0.835796
0.827636
0.822046
0.820926
0.82147
0.824172
0.829748
0.83795
0.844876
0.847843
0.845336
0.838358
0.838304
0.842576
0.849005
0.858784
0.866821
0.851881
0.807964
0.814921
0.824375
0.811217
0.74597
0.658853
0.651864
0.704929
0.769671
0.775986
0.747206
0.65212
0.512315
0.434542
0.420469
0.429558
0.480296
0.557735
0.622155
0.676217
0.700992
0.702843
0.702581
0.709068
0.703795
0.720942
0.829983
0.870855
0.781997
0.82848
0.910132
0.929212
0.926584
0.919865
0.916379
0.913317
0.909993
0.905919
0.901539
0.893183
0.86365
0.766229
0.694219
0.682094
0.695592
0.70039
0.704004
0.725082
0.718108
0.675974
0.561399
0.49934
0.503934
0.560871
0.61003
0.596533
0.490666
0.251111
0.106115
0.0384434
4.75449e-05
0.00188402
0.00648896
0.0119593
0.0150447
0.0181239
0.0211507
0.0255461
0.0356699
0.0609872
0.122707
0.236001
0.405118
0.508973
0.554345
0.571335
0.572657
0.569794
0.561861
0.555988
0.550389
0.546379
0.539781
0.534191
0.532123
0.531003
0.531077
0.530733
0.528721
0.52394
0.504383
0.429661
0.395486
0.408316
0.428548
0.426969
0.404342
0.359004
0.342553
0.336148
0.322818
0.271818
0.264028
0.354931
0.446554
0.562591
0.703821
0.755445
0.74094
0.735325
0.719762
0.703976
0.680072
0.677948
0.717762
0.721611
0.682607
0.673611
0.675734
0.677826
0.676452
0.686856
0.731613
0.792087
0.807411
0.807303
0.791912
0.746627
0.716945
0.713574
0.719872
0.744769
0.794708
0.837781
0.847393
0.848225
0.844851
0.83498
0.821442
0.808941
0.797019
0.782322
0.765334
0.750799
0.74357
0.740673
0.740498
0.746998
0.763182
0.779458
0.786874
0.792097
0.799628
0.806093
0.809426
0.812742
0.818565
0.829467
0.845234
0.864801
0.885725
0.902197
0.909838
0.910313
0.897714
0.884329
0.86656
0.841513
0.823178
0.829559
0.843861
0.853499
0.859122
0.862639
0.866681
0.875814
0.882402
0.882311
0.898494
0.904279
0.891373
0.824517
0.781818
0.739747
0.687785
0.669863
0.695393
0.789511
0.834335
0.841779
0.83804
0.812539
0.675826
0.488942
0.441594
0.450533
0.499795
0.566796
0.593838
0.601765
0.613036
0.643212
0.683551
0.690536
0.678806
0.69835
0.817373
0.780531
0.829135
0.910199
0.932358
0.93501
0.925772
0.916257
0.913743
0.912701
0.910267
0.906661
0.902725
0.901121
0.893266
0.829365
0.740383
0.712749
0.697385
0.671967
0.660079
0.66754
0.686442
0.683519
0.671051
0.670761
0.675582
0.676906
0.677256
0.675392
0.662624
0.620532
0.459067
0.215777
0.000196364
0.00227371
0.00686398
0.0139525
0.0230669
0.033844
0.0443276
0.0585464
0.0974504
0.204854
0.390327
0.512491
0.562752
0.577694
0.580408
0.573363
0.562056
0.551069
0.546499
0.545469
0.545724
0.541587
0.532228
0.530396
0.531765
0.529119
0.527635
0.524277
0.521115
0.5178
0.498828
0.484222
0.48646
0.490753
0.487407
0.475246
0.458777
0.434346
0.365299
0.331708
0.334599
0.432293
0.625608
0.664237
0.657208
0.673836
0.726922
0.748363
0.73879
0.728363
0.694441
0.673264
0.680509
0.728194
0.740029
0.717421
0.678641
0.66967
0.667707
0.671446
0.687477
0.702072
0.723143
0.77229
0.80993
0.818467
0.818969
0.812687
0.78977
0.771199
0.771033
0.78963
0.826077
0.839449
0.841511
0.840915
0.835889
0.825483
0.813157
0.801368
0.787451
0.769156
0.747298
0.735122
0.730355
0.729017
0.730662
0.740092
0.756557
0.77596
0.793194
0.801092
0.804239
0.804625
0.80266
0.799433
0.798419
0.805625
0.821076
0.837273
0.86105
0.895369
0.920069
0.929913
0.934985
0.937798
0.93704
0.927897
0.903329
0.861573
0.827025
0.835899
0.856302
0.869852
0.880654
0.890951
0.901622
0.909774
0.914926
0.918894
0.915237
0.880328
0.774044
0.707459
0.688439
0.688934
0.705716
0.770538
0.825532
0.841694
0.841737
0.834226
0.78218
0.579759
0.483863
0.483732
0.519142
0.560861
0.581254
0.590678
0.609557
0.648845
0.686906
0.689679
0.680082
0.712603
0.833365
0.858493
0.882341
0.920032
0.938544
0.93549
0.920795
0.905504
0.898341
0.903661
0.907544
0.907127
0.903737
0.902056
0.900168
0.874766
0.763562
0.716281
0.67869
0.64456
0.638738
0.641304
0.651888
0.672102
0.68709
0.696428
0.699672
0.703062
0.713481
0.718286
0.716889
0.705886
0.645035
0.411431
0.000192996
0.00133512
0.00704158
0.0254528
0.0597998
0.107821
0.127188
0.154781
0.256849
0.376813
0.528588
0.5733
0.574793
0.559115
0.543976
0.543533
0.546767
0.547924
0.550868
0.551925
0.547945
0.53692
0.530377
0.528197
0.526971
0.524522
0.523249
0.521503
0.517637
0.51729
0.510451
0.507545
0.51158
0.504114
0.499676
0.484318
0.439684
0.441073
0.532361
0.614179
0.665374
0.707939
0.721434
0.721586
0.721391
0.730115
0.737811
0.739867
0.726277
0.700605
0.671557
0.667296
0.68526
0.742254
0.752438
0.733791
0.696659
0.683499
0.674362
0.671049
0.68256
0.703674
0.72429
0.758315
0.805751
0.822314
0.825391
0.825295
0.821318
0.809651
0.791978
0.786389
0.79354
0.806508
0.820337
0.824882
0.823275
0.813562
0.796705
0.773677
0.749856
0.740137
0.736714
0.736105
0.736919
0.740626
0.745258
0.749308
0.753981
0.76039
0.764542
0.765221
0.764514
0.759316
0.752297
0.749774
0.74898
0.758323
0.776662
0.793616
0.807593
0.846754
0.90637
0.923529
0.928779
0.932429
0.93622
0.936565
0.926172
0.900393
0.881485
0.871312
0.861996
0.865947
0.878132
0.889782
0.902178
0.916058
0.926732
0.929155
0.927917
0.921861
0.881242
0.779873
0.722177
0.716842
0.719771
0.728125
0.752667
0.805827
0.822266
0.821142
0.807529
0.689405
0.533967
0.511384
0.526781
0.547544
0.564736
0.581942
0.615898
0.657446
0.678318
0.672919
0.676654
0.747953
0.847055
0.881827
0.879207
0.924444
0.939636
0.936374
0.921973
0.905048
0.88907
0.884774
0.894127
0.901958
0.903069
0.902399
0.901366
0.895817
0.831093
0.698679
0.646616
0.631102
0.632569
0.634267
0.636419
0.64597
0.669382
0.682576
0.687331
0.693039
0.707466
0.719261
0.721435
0.716158
0.673155
0.473704
4.2234e-05
0.000888423
0.00855581
0.0358441
0.110003
0.227034
0.265863
0.310167
0.322843
0.377856
0.527667
0.556834
0.559803
0.553686
0.549026
0.548389
0.547986
0.546502
0.541371
0.537162
0.535692
0.531347
0.525014
0.518038
0.51565
0.514931
0.513893
0.511799
0.510996
0.512343
0.515336
0.510684
0.489285
0.472158
0.503671
0.567947
0.647431
0.689753
0.7187
0.728012
0.734621
0.738005
0.738704
0.737454
0.735345
0.731486
0.72579
0.70668
0.680858
0.667116
0.667176
0.669878
0.676181
0.720742
0.74922
0.745284
0.719792
0.709526
0.699046
0.68328
0.683607
0.697541
0.720203
0.753637
0.802205
0.820133
0.822559
0.820871
0.812686
0.795016
0.767155
0.734801
0.721144
0.719287
0.730567
0.758808
0.774461
0.775912
0.769608
0.75742
0.752418
0.75131
0.752703
0.754002
0.752539
0.745758
0.737164
0.729706
0.724837
0.722301
0.71518
0.707864
0.702761
0.700186
0.699728
0.700568
0.701017
0.710682
0.738761
0.761279
0.772414
0.791194
0.856623
0.90139
0.907606
0.902883
0.90099
0.916453
0.925323
0.915197
0.893293
0.88295
0.884168
0.892562
0.893265
0.891688
0.899284
0.911713
0.927058
0.937761
0.939807
0.93854
0.938379
0.93476
0.899022
0.842671
0.84141
0.854219
0.841632
0.788268
0.776605
0.786399
0.790402
0.764529
0.615262
0.539723
0.537267
0.548312
0.558306
0.57332
0.61096
0.643961
0.638167
0.643129
0.673723
0.779739
0.850468
0.87725
0.866455
0.92022
0.937986
0.934919
0.924884
0.910715
0.890052
0.873423
0.873694
0.886964
0.898234
0.900222
0.900131
0.898482
0.885275
0.818693
0.747374
0.714282
0.688661
0.673069
0.666781
0.665783
0.666855
0.672548
0.674787
0.677719
0.690151
0.707957
0.711635
0.706722
0.664248
0.468181
4.13498e-05
0.00141991
0.00749128
0.0265276
0.0952748
0.257401
0.370427
0.393644
0.386625
0.358827
0.358743
0.495902
0.559737
0.556607
0.548451
0.545629
0.540303
0.538328
0.541156
0.554136
0.565575
0.569109
0.568996
0.563997
0.550115
0.539595
0.53233
0.521357
0.506351
0.488598
0.476135
0.464156
0.468798
0.543178
0.675134
0.722182
0.738115
0.743663
0.744763
0.742401
0.742118
0.74208
0.741725
0.740055
0.734939
0.722949
0.696806
0.657006
0.637736
0.635681
0.659108
0.678419
0.67632
0.676101
0.693916
0.708565
0.708403
0.724665
0.734057
0.712124
0.694726
0.696531
0.709606
0.738429
0.792207
0.814778
0.817215
0.812035
0.789685
0.743465
0.712648
0.704919
0.70598
0.720463
0.734816
0.756258
0.770558
0.772768
0.772658
0.772671
0.774386
0.774993
0.770728
0.758969
0.743448
0.732008
0.726853
0.725678
0.728091
0.729981
0.730374
0.729235
0.724186
0.715335
0.707542
0.702288
0.696451
0.693862
0.698466
0.724109
0.742723
0.759838
0.791004
0.845847
0.866346
0.858115
0.843827
0.854685
0.904101
0.922084
0.903828
0.881045
0.881382
0.890978
0.897985
0.899157
0.901299
0.905634
0.915379
0.93528
0.944357
0.944056
0.943288
0.945067
0.945118
0.940764
0.932796
0.932057
0.929922
0.906186
0.817393
0.78269
0.780818
0.775429
0.705688
0.581761
0.558809
0.55982
0.559117
0.560427
0.580455
0.600526
0.622405
0.66695
0.740001
0.835846
0.863024
0.866982
0.858353
0.906773
0.930088
0.926045
0.919001
0.910567
0.892697
0.868914
0.861212
0.866946
0.889133
0.898505
0.899628
0.898293
0.889061
0.847931
0.775222
0.718449
0.677234
0.657465
0.6563
0.658417
0.659046
0.661264
0.665774
0.66627
0.670359
0.681273
0.682346
0.67537
0.630144
0.439985
0.000512733
0.00916245
0.0362397
0.0894221
0.165653
0.340751
0.44329
0.457343
0.447428
0.452659
0.481513
0.525819
0.565956
0.560049
0.53576
0.533404
0.533018
0.533925
0.537296
0.547208
0.564413
0.574144
0.57625
0.57401
0.550888
0.527351
0.513401
0.493415
0.467878
0.460177
0.459869
0.464918
0.506621
0.664501
0.734213
0.745294
0.747501
0.747435
0.743843
0.741938
0.741675
0.741718
0.741535
0.739944
0.73482
0.722393
0.699097
0.664657
0.643684
0.636054
0.635561
0.641352
0.655513
0.677604
0.680053
0.68101
0.699971
0.743615
0.753952
0.746755
0.724049
0.712279
0.712645
0.723436
0.751395
0.792036
0.801019
0.787678
0.737926
0.713326
0.71117
0.716804
0.732268
0.754219
0.762161
0.764215
0.76477
0.757114
0.74599
0.735716
0.729073
0.724591
0.719574
0.713781
0.711281
0.711025
0.715452
0.724379
0.730061
0.734743
0.736464
0.736595
0.740324
0.745465
0.748
0.741056
0.722036
0.690332
0.672664
0.678567
0.697351
0.716538
0.735552
0.753558
0.758816
0.751658
0.734841
0.735875
0.804233
0.90674
0.929913
0.906651
0.886789
0.893679
0.910372
0.920476
0.921251
0.914596
0.911601
0.920732
0.94134
0.946918
0.945814
0.946545
0.947876
0.946436
0.943084
0.943265
0.944268
0.941504
0.910128
0.828505
0.798684
0.786353
0.756566
0.667319
0.628601
0.599608
0.558763
0.544251
0.553863
0.589133
0.692532
0.811385
0.852592
0.865427
0.863534
0.861393
0.847227
0.86986
0.90107
0.902609
0.898835
0.893821
0.886461
0.864826
0.855077
0.859242
0.883689
0.897994
0.899948
0.898432
0.886012
0.827759
0.725554
0.658634
0.617464
0.6009
0.59968
0.603088
0.611618
0.63574
0.658351
0.659046
0.649224
0.645522
0.641697
0.62956
0.577599
0.386036
0.00466005
0.0510696
0.161085
0.2902
0.354195
0.425999
0.47277
0.470348
0.484175
0.517772
0.54817
0.561914
0.57423
0.58216
0.569705
0.552046
0.553175
0.560684
0.562934
0.5641
0.568598
0.575304
0.581719
0.586723
0.583013
0.575334
0.559099
0.523343
0.488958
0.480504
0.490092
0.502632
0.53373
0.677038
0.726683
0.735809
0.739773
0.740922
0.739007
0.738071
0.738188
0.738587
0.738261
0.735923
0.730342
0.718814
0.70132
0.683233
0.673723
0.667413
0.662881
0.652545
0.642208
0.650946
0.679051
0.691761
0.710619
0.75048
0.758872
0.758022
0.750553
0.742936
0.738008
0.735903
0.741469
0.754707
0.759937
0.750122
0.731518
0.726405
0.742319
0.753275
0.75875
0.761265
0.758875
0.74431
0.718602
0.695502
0.685138
0.682165
0.682347
0.68259
0.681251
0.683815
0.691236
0.702974
0.71706
0.732412
0.746238
0.756872
0.76063
0.743255
0.722362
0.715382
0.717858
0.722937
0.725125
0.701009
0.664629
0.665272
0.688855
0.710428
0.717413
0.715326
0.708943
0.697605
0.689336
0.683953
0.694454
0.782498
0.902963
0.938986
0.946344
0.953929
0.961122
0.964208
0.962893
0.946743
0.920021
0.918555
0.929334
0.945631
0.946571
0.946
0.94917
0.950036
0.949048
0.948581
0.947908
0.946287
0.940545
0.906293
0.844039
0.812841
0.762182
0.708529
0.677898
0.618851
0.556777
0.536993
0.547891
0.622074
0.815669
0.880432
0.883069
0.868945
0.859752
0.85949
0.849633
0.845902
0.84101
0.85303
0.871435
0.872971
0.867046
0.850965
0.849065
0.855597
0.881245
0.899078
0.901761
0.899763
0.882257
0.805265
0.69035
0.618319
0.586735
0.5751
0.572348
0.574516
0.58481
0.620866
0.652087
0.65454
0.636553
0.616068
0.609323
0.596061
0.534982
0.331747
0.0276861
0.228705
0.375935
0.347844
0.403031
0.466245
0.46737
0.485116
0.526064
0.547458
0.558297
0.571662
0.578238
0.585359
0.581989
0.578608
0.578999
0.583027
0.585233
0.577899
0.569666
0.572552
0.575302
0.576266
0.578434
0.581551
0.581458
0.571372
0.55005
0.525491
0.520165
0.540978
0.586153
0.670798
0.703818
0.698153
0.694297
0.706644
0.720621
0.723865
0.724682
0.724716
0.72072
0.711318
0.700704
0.687079
0.66993
0.655262
0.647764
0.645582
0.653102
0.65601
0.654499
0.650763
0.653667
0.676152
0.709016
0.745995
0.754529
0.754444
0.750703
0.750267
0.755311
0.761265
0.765569
0.767362
0.766616
0.761191
0.757237
0.759582
0.758469
0.755801
0.751791
0.740147
0.721938
0.697603
0.68561
0.680051
0.678158
0.680946
0.7006
0.718983
0.725984
0.729726
0.740297
0.756785
0.767659
0.773044
0.779321
0.79568
0.815645
0.826954
0.799083
0.745435
0.714571
0.70986
0.712467
0.707289
0.683593
0.673855
0.693161
0.737183
0.758215
0.753363
0.727074
0.711039
0.695536
0.680787
0.6775
0.690198
0.777212
0.890384
0.940704
0.959799
0.968207
0.971558
0.971799
0.96463
0.934238
0.916299
0.918376
0.932426
0.941692
0.940392
0.94273
0.949042
0.950461
0.94917
0.94361
0.941243
0.939288
0.929063
0.894129
0.824891
0.754659
0.706679
0.68036
0.624303
0.556144
0.53582
0.552661
0.689631
0.858217
0.905841
0.909954
0.900541
0.883026
0.873438
0.859913
0.84829
0.832796
0.833962
0.859519
0.861224
0.846896
0.840643
0.84552
0.85437
0.875579
0.898995
0.90543
0.903363
0.882879
0.801174
0.684479
0.598983
0.559645
0.550862
0.551442
0.555128
0.567922
0.610324
0.644729
0.647959
0.630219
0.606611
0.598356
0.578794
0.488422
0.274295
0.0698727
0.333202
0.397234
0.385595
0.443821
0.446088
0.458856
0.513388
0.538777
0.549381
0.556288
0.570624
0.571661
0.578155
0.582582
0.576213
0.577666
0.587049
0.590397
0.576232
0.567722
0.567032
0.568452
0.572579
0.57665
0.572941
0.557019
0.54839
0.547107
0.54482
0.547528
0.575838
0.636715
0.688217
0.707557
0.704009
0.681899
0.665598
0.665074
0.670354
0.671992
0.670728
0.664191
0.653255
0.645931
0.634015
0.613925
0.588433
0.57295
0.56931
0.586905
0.628417