/*--------------------------------*- C++ -*----------------------------------*\
| =========                 |                                                 |
| \\      /  F ield         | OpenFOAM: The Open Source CFD Toolbox           |
|  \\    /   O peration     | Version:  2112                                  |
|   \\  /    A nd           | Website:  www.openfoam.com                      |
|    \\/     M anipulation  |                                                 |
\*---------------------------------------------------------------------------*/
FoamFile
{
    version     2.0;
    format      ascii;
    arch        "LSB;label=32;scalar=64";
    class       volScalarField;
    location    "0.17";
    object      k;
}
// * * * * * * * * * * * * * * * * * * * * * * * * * * * * * * * * * * * * * //

dimensions      [0 2 -2 0 0 0 0];

internalField   nonuniform List<scalar> 
12225
(
1.45181
2.48676
3.50592
4.61228
5.88634
7.3788
9.11242
11.0827
13.2588
15.5878
18.0019
20.4305
22.8107
25.094
27.2437
29.2622
30.9864
32.2645
0.421168
0.504485
0.614019
0.752303
0.921011
1.12026
1.35045
1.61483
1.92189
2.28365
2.71624
3.23203
3.83478
4.51846
5.2686
6.08471
7.03173
8.02755
0.379182
0.386366
0.394347
0.403903
0.41659
0.433688
0.456356
0.486132
0.525259
0.576632
0.643998
0.731244
0.841712
0.977857
1.14074
1.33432
1.56717
1.84147
0.376051
0.376993
0.377821
0.378528
0.379204
0.379852
0.380456
0.381128
0.382236
0.38439
0.388419
0.395299
0.406058
0.421708
0.443136
0.47166
0.508568
0.554534
0.375463
0.375771
0.375909
0.375903
0.37578
0.375528
0.375099
0.374468
0.373661
0.372749
0.371841
0.371078
0.370621
0.370655
0.37141
0.373059
0.3758
0.379681
0.375265
0.37547
0.37557
0.375554
0.375461
0.375285
0.375001
0.3746
0.374089
0.373486
0.372823
0.372134
0.371452
0.370812
0.370246
0.369793
0.369501
0.369389
0.375161
0.375311
0.375422
0.375471
0.375471
0.375407
0.375269
0.375059
0.374783
0.374457
0.374102
0.373733
0.373366
0.373015
0.372693
0.372409
0.372185
0.372035
0.375086
0.375188
0.375293
0.375381
0.375445
0.375471
0.375446
0.375366
0.375237
0.375081
0.374913
0.374746
0.374588
0.374448
0.374334
0.374247
0.374199
0.374189
0.375025
0.37508
0.375162
0.375256
0.375353
0.375436
0.375488
0.375499
0.375477
0.375435
0.375386
0.375341
0.375309
0.375293
0.3753
0.375337
0.375406
0.3755
0.374965
0.374978
0.375031
0.375111
0.375209
0.375314
0.37541
0.375486
0.375539
0.375578
0.375611
0.375649
0.375701
0.37577
0.37586
0.375973
0.376108
0.376257
0.374912
0.374878
0.374903
0.37496
0.375043
0.375144
0.375251
0.375355
0.375453
0.375545
0.375635
0.37573
0.375834
0.375952
0.376087
0.376238
0.376405
0.376579
0.37487
0.374793
0.374786
0.374823
0.374887
0.374974
0.375074
0.375181
0.375291
0.375404
0.375521
0.375644
0.375775
0.375918
0.376072
0.376238
0.376414
0.376592
0.374836
0.374718
0.374676
0.37469
0.374736
0.374805
0.374892
0.374991
0.375099
0.375216
0.37534
0.375473
0.375614
0.375766
0.375926
0.376094
0.376268
0.37644
0.374805
0.374647
0.374564
0.374547
0.374574
0.374623
0.374693
0.374777
0.374874
0.374982
0.3751
0.375227
0.375364
0.37551
0.375663
0.37582
0.375981
0.376138
0.374778
0.374585
0.374462
0.374407
0.374405
0.374437
0.374487
0.374554
0.374635
0.374727
0.37483
0.374942
0.375063
0.375191
0.375325
0.375462
0.3756
0.375734
0.374758
0.374535
0.374376
0.374283
0.374248
0.374255
0.374289
0.374338
0.3744
0.374474
0.374558
0.374651
0.37475
0.374855
0.374963
0.375073
0.375184
0.37529
0.374743
0.374499
0.374312
0.374187
0.374119
0.374097
0.374111
0.374144
0.374189
0.374245
0.37431
0.374381
0.374457
0.374537
0.37462
0.374703
0.374785
0.374863
0.374736
0.374479
0.374275
0.374128
0.374034
0.373986
0.373976
0.373994
0.374025
0.374065
0.374111
0.374163
0.374218
0.374275
0.374333
0.374391
0.374448
0.374501
0.374737
0.37448
0.374272
0.374118
0.374013
0.373951
0.373926
0.373929
0.373949
0.373977
0.37401
0.374045
0.374083
0.37412
0.374158
0.374195
0.37423
0.374262
0.374748
0.374505
0.374311
0.374169
0.374075
0.374021
0.374001
0.374004
0.374022
0.374047
0.374073
0.374099
0.374124
0.374147
0.374167
0.374185
0.3742
0.374212
0.374766
0.374545
0.374375
0.374258
0.374186
0.374153
0.374147
0.374158
0.374179
0.3742
0.374218
0.374231
0.374237
0.374236
0.374229
0.374218
0.374203
0.374186
0.374793
0.374605
0.37447
0.374385
0.374343
0.374331
0.37434
0.374355
0.374368
0.374375
0.37437
0.374351
0.37432
0.374278
0.374229
0.374175
0.374117
0.374059
0.374833
0.374689
0.374595
0.374542
0.374519
0.374516
0.37452
0.374518
0.374505
0.374473
0.37442
0.374348
0.37426
0.374159
0.374048
0.373932
0.373813
0.373694
0.374888
0.374797
0.374737
0.374695
0.374665
0.374639
0.374606
0.374557
0.374484
0.374386
0.374262
0.374114
0.373944
0.373757
0.373559
0.373351
0.373139
0.372927
0.374962
0.37492
0.374873
0.374812
0.37474
0.374655
0.374548
0.374413
0.374245
0.374044
0.373809
0.37354
0.373243
0.37292
0.372577
0.372218
0.371849
0.371478
0.375062
0.375071
0.375039
0.374958
0.37483
0.374658
0.374437
0.374164
0.373836
0.373452
0.373011
0.372514
0.371966
0.37137
0.370735
0.37007
0.36939
0.368708
0.375266
0.375529
0.375723
0.375778
0.375712
0.375544
0.37528
0.374921
0.374467
0.373923
0.373298
0.372617
0.37192
0.37127
0.370732
0.370376
0.370289
0.37057
0.376319
0.378957
0.381584
0.383807
0.385817
0.387915
0.390456
0.393809
0.398291
0.404149
0.411589
0.420823
0.432114
0.445795
0.462268
0.481979
0.505506
0.533456
0.392972
0.42235
0.460756
0.509395
0.569084
0.640109
0.722602
0.816397
0.920934
1.03544
1.15928
1.29237
1.43548
1.59042
1.75961
1.94548
2.15182
2.37946
1.04512
1.68001
2.2623
2.83491
3.43763
4.09737
4.831
5.64886
6.55688
7.55722
8.64822
9.8244
11.0766
12.3925
13.7577
15.1564
16.5708
17.9785
0.118969
0.119538
0.120916
0.123361
0.127371
0.133651
0.143079
0.156588
0.174977
0.198722
0.227895
0.262223
0.301837
0.347359
0.398534
0.454343
0.513894
0.576496
0.641562
0.708574
0.7771
0.846801
0.917442
0.988884
1.06108
1.13406
1.20791
1.28276
1.35879
1.43615
1.51502
1.59556
1.67791
1.76217
1.84844
1.93675
2.02715
2.11961
2.21413
2.31064
2.4091
2.50941
2.6115
2.71525
2.82055
2.9273
3.03536
3.14461
3.25491
3.36614
3.47815
3.59081
3.70398
3.81753
3.93131
4.04518
4.15902
4.2727
4.38606
4.499
4.61138
4.72307
4.83396
4.94391
5.0528
5.16053
5.26697
5.372
5.47551
5.57739
5.67752
5.77579
5.8721
5.96633
6.05838
6.14816
6.23555
6.32047
6.40283
6.48254
6.55951
6.63368
6.70497
6.77331
6.83863
6.90088
6.96
7.01594
7.06865
7.11809
7.1642
7.20696
7.24631
7.28223
7.31467
7.34359
7.36897
7.39075
7.40889
7.42333
7.434
7.44079
7.44355
7.44209
7.43717
7.42901
7.41762
7.40301
7.38522
7.36427
7.34018
7.31301
7.28278
7.24955
7.21334
7.17421
7.1322
7.08736
7.03972
6.98933
6.93623
6.88045
6.82204
6.76101
6.69738
6.63119
6.56242
6.49109
6.41719
6.3407
6.26161
6.1799
6.09552
6.00844
5.91864
5.82607
5.7307
5.63249
5.53144
5.42753
5.32076
5.21116
5.09877
4.98363
4.86583
4.74546
4.62262
4.49742
4.37002
4.24061
4.10946
3.97704
3.84417
3.71233
3.58509
3.46918
3.36338
3.29711
3.28328
3.32518
3.41348
3.53053
3.64899
3.77543
3.90425
4.03433
4.16537
4.29718
4.42965
4.56269
4.69625
4.8303
4.9648
5.09973
5.23508
5.37075
5.50724
5.64445
5.7942
5.92993
0.121098
0.121324
0.122454
0.124658
0.128366
0.134211
0.142992
0.155567
0.172667
0.194728
0.221829
0.253775
0.290289
0.331096
0.375773
0.423704
0.474224
0.5267
0.580562
0.635309
0.690519
0.745857
0.801082
0.856043
0.910672
0.964973
1.01901
1.07287
1.1267
1.18062
1.23477
1.28925
1.34417
1.3996
1.45559
1.51215
1.56928
1.62697
1.68518
1.74386
1.80295
1.86239
1.92209
1.982
2.04204
2.10213
2.1622
2.22218
2.28201
2.34161
2.40092
2.45989
2.51845
2.57655
2.63415
2.69119
2.74762
2.80341
2.85851
2.91288
2.96649
3.01931
3.07129
3.12242
3.17264
3.22195
3.2703
3.31768
3.36405
3.40939
3.45367
3.49688
3.53899
3.57999
3.61986
3.65857
3.69614
3.73253
3.76775
3.80179
3.83465
3.86633
3.89683
3.92616
3.95431
3.9813
4.00713
4.03181
4.05535
4.07777
4.09907
4.11927
4.13838
4.15642
4.17339
4.18932
4.20423
4.21812
4.23101
4.24292
4.25388
4.26391
4.27311
4.28206
4.29055
4.29841
4.30564
4.31226
4.31831
4.3238
4.32876
4.33323
4.33722
4.34076
4.34388
4.3466
4.34893
4.35089
4.3525
4.35378
4.35471
4.35531
4.35558
4.35549
4.35504
4.3542
4.35294
4.3512
4.34894
4.34609
4.34255
4.33824
4.33305
4.32683
4.31944
4.31071
4.30044
4.28844
4.27445
4.25823
4.2395
4.21796
4.1933
4.16519
4.13329
4.09726
4.05675
4.01144
3.96104
3.90531
3.84414
3.77755
3.70591
3.63011
3.55233
3.47664
3.40916
3.36653
3.35851
3.3866
3.44361
3.5167
3.58881
3.65859
3.72393
3.78413
3.8391
3.88895
3.93388
3.97417
4.01015
4.04222
4.07086
4.09657
4.11993
4.14165
4.16281
4.18611
4.21807
4.28114
0.125761
0.125171
0.125884
0.127887
0.1315
0.137264
0.14588
0.158104
0.17457
0.195641
0.22135
0.25146
0.285576
0.323236
0.363923
0.407073
0.452102
0.498445
0.54558
0.59305
0.640468
0.687533
0.734026
0.779814
0.82484
0.869113
0.912692
0.955673
0.998172
1.04031
1.08221
1.12397
1.16568
1.20741
1.24919
1.29105
1.33298
1.37498
1.41701
1.45905
1.50106
1.54298
1.58478
1.62642
1.66785
1.70903
1.74993
1.79051
1.83075
1.87061
1.91008
1.94914
1.98777
2.02596
2.06369
2.10097
2.13777
2.1741
2.20996
2.24533
2.28023
2.31464
2.34856
2.382
2.41496
2.44742
2.4794
2.51089
2.54189
2.5724
2.60242
2.63195
2.661
2.68957
2.71765
2.74526
2.7724
2.79908
2.82531
2.85109
2.87643
2.90135
2.92586
2.94996
2.97366
2.99699
3.01994
3.04254
3.06479
3.08671
3.1083
3.12958
3.15057
3.17128
3.19171
3.2119
3.23186
3.25162
3.27119
3.29062
3.30996
3.32926
3.3488
3.36845
3.38806
3.40756
3.42696
3.44626
3.46546
3.48457
3.5036
3.52254
3.54141
3.56021
3.57894
3.59759
3.61618
3.6347
3.65314
3.67151
3.68978
3.70796
3.72602
3.74396
3.76174
3.77934
3.79674
3.81388
3.83072
3.8472
3.86326
3.87881
3.89376
3.90798
3.92137
3.93376
3.94498
3.95485
3.96314
3.96961
3.97399
3.97598
3.97526
3.97148
3.96427
3.95324
3.93802
3.91822
3.89349
3.86357
3.8283
3.78773
3.74224
3.69277
3.6411
3.59027
3.54544
3.51662
3.5106
3.52735
3.56188
3.60606
3.65053
3.69245
3.72981
3.76167
3.78777
3.80819
3.82315
3.83295
3.83799
3.83873
3.83568
3.82938
3.82047
3.80972
3.7983
3.78903
3.78641
3.80587
0.132818
0.130926
0.130962
0.13264
0.136141
0.141889
0.150472
0.162524
0.178571
0.198895
0.22348
0.252057
0.284195
0.319382
0.357072
0.396707
0.43774
0.479654
0.521978
0.564301
0.606284
0.647661
0.688249
0.727937
0.766686
0.804514
0.841485
0.877692
0.913249
0.948272
0.982873
1.01715
1.05119
1.08505
1.11877
1.15238
1.1859
1.21932
1.25263
1.28581
1.31885
1.35172
1.38441
1.41689
1.44916
1.4812
1.51301
1.54457
1.5759
1.60698
1.63783
1.66845
1.69885
1.72904
1.75905
1.78886
1.81851
1.84801
1.87736
1.90658
1.93568
1.96468
1.99357
2.02238
2.0511
2.07974
2.10831
2.13682
2.16525
2.19363
2.22194
2.25019
2.27838
2.30652
2.3346
2.36262
2.39059
2.41851
2.44638
2.47421
2.50198
2.52971
2.55739
2.58503
2.61263
2.64019
2.66771
2.69519
2.72263
2.75004
2.77741
2.80474
2.83204
2.85932
2.88657
2.91382
2.94106
2.96832
2.99561
3.02298
3.05047
3.07811
3.10587
3.13363
3.16133
3.18895
3.21647
3.24387
3.27115
3.29831
3.32532
3.35219
3.3789
3.40544
3.43181
3.45799
3.48398
3.50975
3.5353
3.56062
3.58569
3.61049
3.63501
3.65923
3.68314
3.7067
3.72989
3.75269
3.77506
3.79696
3.81834
3.83915
3.85932
3.87877
3.89741
3.91513
3.93181
3.94731
3.96146
3.97409
3.98499
3.99393
4.00066
4.00491
4.00637
4.00474
3.9997
3.99093
3.97816
3.96117
3.93985
3.91429
3.88488
3.85235
3.81783
3.78305
3.75179
3.73073
3.72392
3.73111
3.74891
3.77256
3.7973
3.8206
3.84034
3.85541
3.86544
3.87045
3.87061
3.86621
3.8576
3.84517
3.82937
3.81068
3.78967
3.76711
3.74413
3.72338
3.70803
3.70732
0.141916
0.138351
0.13757
0.138791
0.142085
0.147765
0.156296
0.168191
0.183872
0.203542
0.227149
0.254405
0.284869
0.318019
0.3533
0.390167
0.428097
0.46661
0.505278
0.543734
0.581681
0.618893
0.655218
0.690572
0.724932
0.758327
0.790826
0.822524
0.853531
0.88396
0.913919
0.943505
0.9728
1.00187
1.03076
1.05951
1.08813
1.11665
1.14507
1.17339
1.20161
1.22974
1.25777
1.28572
1.31359
1.34138
1.36913
1.39683
1.42452
1.45221
1.47993
1.50769
1.53553
1.56346
1.59151
1.61971
1.64806
1.6766
1.70533
1.73427
1.76343
1.79283
1.82247
1.85235
1.88247
1.91285
1.94347
1.97433
2.00543
2.03676
2.06832
2.10009
2.13207
2.16424
2.19661
2.22915
2.26186
2.29473
2.32774
2.36089
2.39416
2.42755
2.46104
2.49462
2.52828
2.56202
2.59582
2.62967
2.66358
2.69752
2.73149
2.76548
2.79949
2.83352
2.86757
2.90162
2.9357
2.96981
3.00396
3.03818
3.07246
3.10668
3.1408
3.17479
3.20862
3.24225
3.27566
3.30884
3.34177
3.37443
3.4068
3.43887
3.47061
3.50202
3.53306
3.56374
3.59402
3.62388
3.65332
3.68231
3.71082
3.73886
3.76638
3.79339
3.81984
3.84574
3.87105
3.89575
3.91982
3.94324
3.96597
3.98797
4.0092
4.02959
4.0491
4.06765
4.08516
4.10152
4.11663
4.13036
4.14256
4.15309
4.16175
4.16837
4.17272
4.17458
4.17374
4.16996
4.16305
4.1529
4.13947
4.12285
4.10341
4.08154
4.05774
4.03297
4.00957
3.9919
3.98269
3.98171
3.98676
3.99525
4.00503
4.01434
4.02127
4.02461
4.02387
4.01896
4.00999
3.99717
3.98076
3.96111
3.93855
3.91352
3.88651
3.85827
3.82988
3.80368
3.78186
3.76968
0.15274
0.147074
0.145392
0.146061
0.14904
0.154545
0.162931
0.174599
0.189872
0.20889
0.231564
0.257601
0.286561
0.317923
0.351143
0.385687
0.421057
0.456802
0.49253
0.527913
0.562694
0.59668
0.629751
0.661844
0.692955
0.723124
0.752425
0.780954
0.80882
0.836136
0.863007
0.889531
0.915791
0.941857
0.967785
0.99362
1.0194
1.04514
1.07088
1.09663
1.12241
1.14825
1.17416
1.20017
1.22631
1.25259
1.27907
1.30575
1.33268
1.35989
1.38741
1.41528
1.44351
1.47214
1.50119
1.53068
1.56063
1.59107
1.62199
1.6534
1.68532
1.71775
1.75067
1.7841
1.81801
1.85241
1.88728
1.9226
1.95836
1.99454
2.03112
2.06809
2.10542
2.14309
2.18109
2.21938
2.25796
2.29679
2.33585
2.37513
2.41459
2.45422
2.494
2.53391
2.57392
2.61403
2.65422
2.69447
2.73476
2.7751
2.81546
2.85583
2.8962
2.93657
2.97692
3.01726
3.05759
3.09789
3.13818
3.17847
3.21852
3.25836
3.29796
3.33731
3.37637
3.41511
3.4535
3.49153
3.52917
3.56638
3.60315
3.63946
3.67527
3.71058
3.74534
3.77955
3.81317
3.84619
3.87857
3.91029
3.94134
3.97168
4.00131
4.03018
4.05829
4.08562
4.11213
4.13783
4.16269
4.1867
4.20982
4.23204
4.25333
4.27364
4.29293
4.31116
4.32828
4.34421
4.35889
4.37222
4.38411
4.39445
4.40314
4.41003
4.41499
4.41787
4.41852
4.4168
4.41259
4.40586
4.39662
4.3849
4.37111
4.35537
4.3377
4.31829
4.29862
4.28156
4.26904
4.26097
4.25601
4.25288
4.2508
4.24875
4.24522
4.23907
4.22972
4.21698
4.20087
4.18152
4.15914
4.13398
4.10634
4.07659
4.04519
4.01283
3.98052
3.95023
3.92345
3.903
0.165411
0.157072
0.154293
0.154268
0.156796
0.161989
0.170099
0.181424
0.196201
0.214511
0.236238
0.261082
0.288609
0.318314
0.349665
0.382146
0.415282
0.448651
0.481892
0.514711
0.546885
0.578251
0.608716
0.638239
0.666831
0.694541
0.72145
0.747656
0.77327
0.798401
0.823158
0.847638
0.871929
0.896107
0.920235
0.944369
0.968557
0.992839
1.01725
1.04184
1.06662
1.09165
1.11696
1.14257
1.16855
1.19491
1.22171
1.24897
1.27675
1.30507
1.33397
1.36348
1.39363
1.42445
1.45595
1.48815
1.52106
1.55469
1.58905
1.62413
1.65993
1.69644
1.73366
1.77156
1.81013
1.84935
1.88921
1.92967
1.97071
2.0123
2.05442
2.09703
2.14012
2.18364
2.22757
2.27188
2.31653
2.3615
2.40675
2.45225
2.49796
2.54386
2.58991
2.63609
2.68238
2.72876
2.7752
2.82168
2.8682
2.91473
2.96126
3.00778
3.05427
3.10073
3.14713
3.19348
3.23977
3.28598
3.33212
3.37793
3.42338
3.4685
3.51328
3.55768
3.60166
3.64521
3.68829
3.73087
3.77291
3.81439
3.85527
3.89553
3.93514
3.97407
4.01229
4.04978
4.08649
4.12241
4.1575
4.19174
4.2251
4.25755
4.28906
4.31962
4.3492
4.37777
4.40532
4.43184
4.4573
4.48171
4.50504
4.52728
4.54841
4.56839
4.58721
4.60482
4.62119
4.63629
4.65006
4.66244
4.67337
4.68277
4.69058
4.69671
4.70107
4.70355
4.70408
4.70256
4.69893
4.69323
4.68551
4.67586
4.66445
4.65127
4.63606
4.61863
4.59982
4.58155
4.56519
4.55079
4.53763
4.52515
4.51327
4.50153
4.48887
4.47432
4.45729
4.43751
4.41494
4.38962
4.36173
4.33145
4.29905
4.26486
4.2293
4.19302
4.15692
4.12265
4.09107
4.06362
0.179793
0.168191
0.164101
0.163227
0.165157
0.169891
0.177578
0.188425
0.202592
0.220108
0.240831
0.26446
0.290569
0.318669
0.348248
0.378812
0.40991
0.441147
0.472193
0.502783
0.532721
0.561875
0.590172
0.617591
0.644155
0.669923
0.694981
0.71943
0.743381
0.766945
0.790231
0.813339
0.836362
0.85938
0.882467
0.905687
0.929098
0.952753
0.976703
1.001
1.02568
1.0508
1.07641
1.10255
1.12927
1.15661
1.18461
1.21333
1.24279
1.27304
1.30411
1.33603
1.36881
1.40249
1.43707
1.47256
1.50897
1.5463
1.58454
1.62369
1.66373
1.70465
1.74643
1.78904
1.83248
1.8767
1.92169
1.96741
2.01382
2.0609
2.10861
2.15691
2.20577
2.25516
2.30504
2.35536
2.40609
2.45719
2.50861
2.56032
2.61226
2.6644
2.7167
2.76912
2.82164
2.87423
2.92686
2.97952
3.03218
3.08484
3.13747
3.19007
3.2426
3.29507
3.34746
3.39974
3.45192
3.50398
3.55567
3.60687
3.65762
3.70794
3.7578
3.80716
3.85599
3.90425
3.95192
3.99894
4.04529
4.09092
4.13581
4.17991
4.22321
4.26565
4.30721
4.34786
4.38755
4.42625
4.46394
4.50058
4.53613
4.57057
4.60386
4.63599
4.66693
4.69663
4.7251
4.75231
4.77825
4.80292
4.82631
4.84842
4.86923
4.88869
4.90681
4.92355
4.9389
4.95283
4.96532
4.97631
4.98574
4.99359
4.9998
5.00434
5.00714
5.0081
5.00722
5.00446
4.99979
4.99328
4.98498
4.97498
4.96336
4.94998
4.93447
4.91652
4.89653
4.87575
4.85515
4.8349
4.81464
4.79426
4.77396
4.75365
4.73269
4.71034
4.68606
4.65956
4.63073
4.59959
4.56624
4.53086
4.49367
4.45497
4.41516
4.37483
4.33478
4.29633
4.25992
4.22613
0.195834
0.180287
0.174642
0.172756
0.173944
0.178069
0.185183
0.195408
0.208839
0.225458
0.245101
0.267463
0.292131
0.318633
0.346481
0.375205
0.404381
0.433641
0.462683
0.491269
0.51923
0.546457
0.572895
0.598539
0.623424
0.647616
0.671204
0.694294
0.716995
0.73942
0.76168
0.783878
0.806109
0.82846
0.85101
0.873834
0.896996
0.920561
0.944588
0.969134
0.994256
1.02001
1.04644
1.07362
1.10157
1.13036
1.16003
1.19062
1.22217
1.25471
1.28827
1.32289
1.35857
1.39533
1.43318
1.47213
1.51217
1.55329
1.59549
1.63874
1.68303
1.72835
1.77467
1.82197
1.87021
1.91938
1.96943
2.02033
2.07204
2.12453
2.17776
2.23169
2.28628
2.34149
2.39727
2.45359
2.51038
2.56761
2.62522
2.68316
2.74136
2.79978
2.85835
2.91705
2.97582
3.03465
3.0935
3.15234
3.21117
3.26996
3.3287
3.38737
3.44596
3.50445
3.56283
3.62108
3.67917
3.73687
3.79397
3.85051
3.90652
3.96198
4.01685
4.0711
4.12468
4.17757
4.2297
4.28105
4.33156
4.38121
4.42995
4.47774
4.52455
4.57033
4.61505
4.65866
4.70112
4.7424
4.78246
4.82127
4.85878
4.89496
4.9298
4.96325
4.9953
5.02588
5.05498
5.08261
5.10874
5.13338
5.15652
5.17818
5.19834
5.21694
5.23398
5.24945
5.26334
5.27564
5.28635
5.2954
5.30272
5.30833
5.31219
5.31429
5.31459
5.31304
5.30965
5.3044
5.2973
5.28841
5.2778
5.26555
5.25166
5.23597
5.21813
5.19776
5.17505
5.15073
5.12551
5.09959
5.07287
5.04542
5.01758
4.98948
4.96077
4.93098
4.89966
4.86655
4.83151
4.79454
4.7557
4.71514
4.67306
4.62973
4.58553
4.54101
4.49683
4.45409
4.41284
4.37322
0.21353
0.193237
0.185756
0.182688
0.18299
0.186363
0.192755
0.202216
0.214781
0.230391
0.248865
0.269895
0.293079
0.317966
0.344093
0.371017
0.398341
0.425727
0.452897
0.479641
0.505813
0.531322
0.556131
0.580247
0.603713
0.626601
0.649004
0.671026
0.692779
0.714377
0.73593
0.757542
0.779314
0.801335
0.82369
0.84646
0.869716
0.89353
0.917966
0.94309
0.968962
0.995642
1.02319
1.05165
1.08109
1.11154
1.14306
1.17569
1.20945
1.24439
1.28053
1.31789
1.3565
1.39635
1.43746
1.47983
1.52344
1.56829
1.61435
1.66161
1.71005
1.75965
1.81039
1.86224
1.91517
1.96915
2.02415
2.08012
2.13703
2.19485
2.25352
2.31302
2.37329
2.43429
2.49597
2.55828
2.62116
2.68455
2.7484
2.81263
2.87717
2.94194
3.00688
3.07192
3.13703
3.20216
3.26728
3.33237
3.3974
3.46235
3.52722
3.59199
3.65665
3.72118
3.78556
3.84978
3.91356
3.97664
4.03907
4.10086
4.162
4.22245
4.28217
4.34112
4.39926
4.45654
4.51291
4.56832
4.62274
4.67611
4.72839
4.77955
4.82954
4.87833
4.92585
4.97205
5.01689
5.06035
5.10237
5.14292
5.18196
5.21945
5.25537
5.2897
5.32243
5.35342
5.38269
5.41024
5.43607
5.46018
5.48257
5.50325
5.52228
5.53948
5.55488
5.56849
5.58032
5.59036
5.59859
5.60499
5.60951
5.61215
5.61291
5.61176
5.60869
5.6037
5.59677
5.58793
5.5772
5.56464
5.55032
5.5343
5.51658
5.497
5.47527
5.45105
5.42437
5.39566
5.36539
5.33377
5.30085
5.26678
5.23192
5.19651
5.16044
5.12344
5.08519
5.04549
5.00422
4.96135
4.91693
4.8711
4.82403
4.77598
4.72729
4.67846
4.63007
4.58299
4.53702
4.49203
0.232925
0.206937
0.197295
0.192867
0.192145
0.194627
0.200157
0.208714
0.220284
0.234775
0.251988
0.271616
0.293268
0.316514
0.340917
0.366064
0.391587
0.417173
0.442574
0.467603
0.492133
0.516092
0.539455
0.562239
0.584493
0.606293
0.627732
0.648916
0.669954
0.690961
0.712044
0.733312
0.754863
0.776793
0.799189
0.822135
0.845708
0.869983
0.895031
0.92092
0.947714
0.975477
1.00427
1.03414
1.06515
1.09734
1.13076
1.16545
1.20144
1.23876
1.27745
1.31752
1.35899
1.40186
1.44615
1.49185
1.53893
1.5874
1.63722
1.68837
1.74085
1.79461
1.84966
1.90595
1.96347
2.02217
2.08202
2.14299
2.20503
2.26811
2.33219
2.39723
2.46317
2.52997
2.59757
2.66591
2.73492
2.80453
2.87468
2.94529
3.01625
3.08747
3.15886
3.23035
3.30187
3.37337
3.44482
3.51619
3.58744
3.65857
3.72956
3.8004
3.87109
3.94163
4.01199
4.0818
4.15082
4.2191
4.28666
4.35346
4.41946
4.48459
4.54882
4.61211
4.67441
4.73566
4.79582
4.85485
4.91267
4.96927
5.02457
5.07856
5.1312
5.18246
5.23221
5.28041
5.32702
5.37203
5.41538
5.45703
5.49694
5.53508
5.57142
5.60595
5.63875
5.66948
5.69823
5.72502
5.74986
5.77275
5.79369
5.81268
5.82975
5.84483
5.85791
5.869
5.87809
5.88517
5.89024
5.89327
5.89425
5.89318
5.89004
5.88484
5.87757
5.86825
5.85688
5.8435
5.82813
5.81084
5.79169
5.77075
5.748
5.72334
5.69654
5.66733
5.63568
5.60181
5.56604
5.52855
5.48945
5.44892
5.40731
5.36489
5.32171
5.27765
5.23255
5.18626
5.1387
5.08986
5.03978
4.98859
4.93646
4.88362
4.83039
4.77721
4.72457
4.67319
4.62269
4.57279
0.254118
0.221309
0.209135
0.203157
0.201273
0.202733
0.207265
0.214784
0.225235
0.2385
0.254367
0.272527
0.292605
0.314189
0.336871
0.360265
0.384032
0.40789
0.431614
0.45504
0.47806
0.500615
0.522693
0.544315
0.565537
0.586434
0.607099
0.627635
0.648152
0.66876
0.689568
0.710681
0.732201
0.754222
0.776836
0.800126
0.824176
0.849062
0.874858
0.901634
0.929458
0.958395
0.988504
1.01985
1.05247
1.08643
1.12176
1.15852
1.19672
1.23641
1.27762
1.32035
1.36464
1.41049
1.45791
1.50688
1.5574
1.60943
1.66297
1.71798
1.77444
1.83235
1.89166
1.95237
2.01445
2.07785
2.14255
2.20849
2.27566
2.34401
2.4135
2.4841
2.55575
2.6284
2.70198
2.7764
2.85161
2.9275
3.00402
3.08105
3.1585
3.23624
3.31415
3.39213
3.47011
3.54802
3.62581
3.70344
3.78089
3.85813
3.93516
4.01199
4.0886
4.16502
4.24067
4.31546
4.3894
4.46249
4.53474
4.60612
4.67646
4.74572
4.81387
4.88088
4.94668
5.01124
5.0745
5.13641
5.19691
5.25597
5.31352
5.36954
5.42401
5.47701
5.5282
5.57755
5.62508
5.67078
5.71459
5.75646
5.79637
5.83427
5.87013
5.90394
5.93569
5.96526
5.99266
6.01789
6.04094
6.06182
6.08052
6.09705
6.11143
6.12362
6.13362
6.14141
6.14699
6.15036
6.15151
6.15043
6.1471
6.14154
6.13374
6.12371
6.11147
6.09704
6.08043
6.06168
6.04083
6.01795
5.9931
5.96634
5.93767
5.90704
5.87428
5.83921
5.80178
5.76209
5.72036
5.67673
5.63133
5.58435
5.53609
5.48683
5.4367
5.38572
5.33382
5.28095
5.22708
5.17223
5.11646
5.05987
5.00265
4.945
4.88723
4.82971
4.77287
4.71732
4.66255
4.60819
0.27727
0.236307
0.221178
0.213447
0.210257
0.210562
0.213965
0.220319
0.229536
0.241479
0.255926
0.27257
0.291046
0.310965
0.331943
0.353623
0.375697
0.397907
0.420055
0.441996
0.463639
0.484938
0.505888
0.526517
0.546878
0.567047
0.587117
0.607187
0.627364
0.647755
0.668467
0.689605
0.711268
0.733552
0.756549
0.780346
0.805026
0.830669
0.85735
0.885142
0.914116
0.944336
0.975867
1.00877
1.04309
1.0789
1.11622
1.15512
1.19561
1.23774
1.28154
1.32701
1.3742
1.4231
1.47372
1.52606
1.58009
1.63579
1.69314
1.75211
1.81267
1.87483
1.93854
2.00379
2.07055
2.13876
2.2084
2.27942
2.35179
2.4255
2.5005
2.57675
2.65419
2.73277
2.81241
2.893
2.97446
3.05668
3.13956
3.223
3.30689
3.39113
3.47555
3.55998
3.64436
3.72861
3.81267
3.89647
3.97997
4.06317
4.14604
4.2287
4.31082
4.39196
4.47215
4.55136
4.62957
4.70676
4.78294
4.85822
4.93207
5.00457
5.07572
5.1455
5.21384
5.28071
5.34606
5.40983
5.47197
5.53243
5.59117
5.64813
5.7033
5.75664
5.80804
5.85745
5.90483
5.95015
5.99335
6.0344
6.07325
6.10987
6.14423
6.17631
6.20609
6.23353
6.2586
6.2813
6.30163
6.31958
6.33515
6.34835
6.35919
6.36765
6.37372
6.3774
6.37866
6.37752
6.37397
6.368
6.35961
6.34882
6.33563
6.32006
6.30213
6.28188
6.25933
6.23453
6.20753
6.17837
6.14714
6.11388
6.07863
6.04136
6.00198
5.96039
5.91654
5.87049
5.82237
5.7723
5.72042
5.66691
5.61202
5.55601
5.49907
5.44128
5.3827
5.32334
5.26322
5.2024
5.14097
5.07904
5.01678
4.9544
4.89217
4.83044
4.76957
4.71007
4.65141
4.59308
0.302631
0.251927
0.233364
0.223657
0.219005
0.218016
0.220155
0.225221
0.233101
0.243644
0.256619
0.271723
0.2886
0.306879
0.326202
0.346239
0.366708
0.38738
0.408077
0.428675
0.449096
0.469305
0.489305
0.509125
0.528821
0.548462
0.568135
0.587939
0.607979
0.62836
0.649187
0.670561
0.692582
0.715345
0.738943
0.763465
0.788995
0.815616
0.843407
0.872443
0.902794
0.934529
0.967715
1.00241
1.03869
1.07658
1.11616
1.15747
1.20055
1.24544
1.29214
1.34068
1.39107
1.44334
1.49749
1.55351
1.61138
1.67106
1.73255
1.79581
1.86083
1.92759
1.99608
2.06626
2.13804
2.21136
2.2862
2.36255
2.44037
2.51964
2.60033
2.68239
2.76577
2.85037
2.93613
3.02293
3.11065
3.19916
3.28831
3.37794
3.46804
3.55863
3.64939
3.74003
3.83054
3.92086
4.01089
4.10056
4.18978
4.27863
4.36689
4.45409
4.5402
4.62519
4.70901
4.79163
4.873
4.95309
5.03188
5.10934
5.1853
5.25971
5.33255
5.40376
5.47332
5.54116
5.60725
5.67153
5.73396
5.79448
5.85306
5.90964
5.96418
6.01664
6.06697
6.11511
6.16103
6.20468
6.246
6.28495
6.32151
6.35563
6.38729
6.41647
6.44317
6.46735
6.48901
6.50813
6.5247
6.53872
6.5502
6.55912
6.56551
6.56935
6.57062
6.56933
6.56545
6.559
6.54996
6.53835
6.52418
6.50745
6.48819
6.46643
6.44219
6.41552
6.38645
6.35504
6.32132
6.28535
6.24722
6.20697
6.16465
6.12027
6.07381
6.02522
5.97447
5.92163
5.86677
5.81
5.75146
5.69132
5.62979
5.56712
5.50351
5.43912
5.37404
5.30837
5.24218
5.17558
5.10866
5.04156
4.97446
4.90756
4.84113
4.77546
4.71089
4.64786
4.58584
4.52415
0.330583
0.268229
0.245691
0.233754
0.227455
0.22501
0.225741
0.229402
0.235857
0.244948
0.256435
0.270014
0.285338
0.30205
0.319814
0.338325
0.357328
0.376617
0.396036
0.415478
0.434879
0.454214
0.47349
0.492741
0.512022
0.531403
0.550962
0.570783
0.590969
0.611635
0.632886
0.654822
0.67754
0.701137
0.725706
0.751338
0.778121
0.806143
0.835486
0.866231
0.898451
0.932214
0.967593
1.00467
1.0435
1.08412
1.12661
1.17102
1.21741
1.26583
1.31624
1.36862
1.42301
1.47939
1.53779
1.59818
1.66055
1.72488
1.79117
1.8594
1.92956
2.00163
2.0756
2.15152
2.22897
2.30789
2.38838
2.47046
2.55409
2.63926
2.7259
2.81396
2.90336
2.99403
3.08585
3.1787
3.27245
3.36691
3.46187
3.55707
3.65263
3.74847
3.84441
3.94028
4.03605
4.13164
4.22679
4.32161
4.41561
4.50834
4.59974
4.6898
4.7785
4.86581
4.95167
5.03604
5.11886
5.20012
5.27978
5.3578
5.43412
5.50867
5.58143
5.65234
5.72136
5.78846
5.85359
5.9167
5.97775
6.0367
6.0935
6.1481
6.20047
6.25055
6.2983
6.34369
6.38667
6.42719
6.4652
6.50067
6.53357
6.56387
6.59156
6.61663
6.63906
6.65884
6.67597
6.69043
6.70222
6.71132
6.71773
6.72145
6.72248
6.72081
6.71643
6.70932
6.69949
6.68693
6.67166
6.65368
6.63302
6.60969
6.58372
6.55515
6.52401
6.49035
6.45421
6.41563
6.37467
6.33139
6.28585
6.23812
6.18827
6.13634
6.08237
6.02635
5.9683
5.90828
5.84638
5.78268
5.71733
5.65048
5.58233
5.51309
5.44298
5.37217
5.30082
5.22908
5.15706
5.0849
5.01275
4.94074
4.86906
4.7979
4.72752
4.65819
4.5902
4.52391
4.45894
4.39444
0.362961
0.285956
0.25864
0.244077
0.235834
0.231678
0.230791
0.232885
0.237811
0.245394
0.255386
0.267472
0.281309
0.296551
0.31288
0.330018
0.347731
0.365839
0.384206
0.402742
0.421397
0.440157
0.459035
0.478071
0.497323
0.516862
0.53677
0.55713
0.578025
0.599545
0.621817
0.644965
0.669076
0.694246
0.720567
0.748135
0.777043
0.807387
0.839261
0.872762
0.907975
0.944931
0.983745
1.02456
1.06732
1.11196
1.15862
1.20741
1.25845
1.31191
1.36752
1.42518
1.48493
1.54677
1.61062
1.67648
1.74439
1.81438
1.88645
1.9606
2.0368
2.115
2.1951
2.27697
2.36035
2.44529
2.53185
2.62
2.70967
2.80082
2.89338
2.98726
3.08236
3.1786
3.27583
3.37393
3.47276
3.57214
3.67193
3.77201
3.87225
3.97253
4.07267
4.17258
4.2726
4.37208
4.47042
4.56711
4.66227
4.75588
4.84791
4.93832
5.02709
5.11417
5.19951
5.28308
5.36483
5.44476
5.52284
5.59904
5.67333
5.74567
5.81602
5.88435
5.95061
6.01477
6.07679
6.13662
6.19424
6.24958
6.30263
6.35332
6.40162
6.44748
6.49086
6.53173
6.57004
6.60574
6.6388
6.66919
6.6969
6.7219
6.7442
6.76378
6.78064
6.79476
6.80614
6.81477
6.82063
6.82371
6.824
6.82149
6.81617
6.80804
6.79706
6.78324
6.76659
6.7471
6.72479
6.6997
6.67184
6.64124
6.60793
6.57195
6.53334
6.49215
6.44841
6.40217
6.35348
6.30242
6.24906
6.19347
6.13575
6.07596
6.01417
5.95043
5.8848
5.81736
5.74818
5.67739
5.60512
5.53153
5.4568
5.38115
5.30477
5.22786
5.15059
5.07314
4.99569
4.91839
4.84141
4.76491
4.68906
4.61408
4.5402
4.46768
4.39675
4.32776
4.26039
4.19382
0.396854
0.303333
0.270982
0.253635
0.243277
0.237275
0.234704
0.23525
0.238745
0.244991
0.253714
0.264584
0.277249
0.291371
0.306647
0.322817
0.339678
0.357071
0.374885
0.393048
0.411529
0.430328
0.44947
0.468997
0.488973
0.50949
0.530643
0.552519
0.575203
0.598789
0.623417
0.64916
0.676038
0.704184
0.733702
0.764703
0.797295
0.831585
0.867687
0.905758
0.946027
0.988089
1.03215
1.07831
1.12658
1.177
1.22967
1.28468
1.34208
1.40193
1.46415
1.52866
1.59536
1.66409
1.73461
1.80697
1.88136
1.95779
2.03627
2.11676
2.19923
2.28362
2.36983
2.45777
2.54739
2.63862
2.73134
2.82546
2.92086
3.01746
3.11517
3.21387
3.31347
3.41385
3.51488
3.61641
3.7183
3.82042
3.92259
4.02461
4.12641
4.22814
4.3295
4.43023
4.52959
4.62722
4.72322
4.81756
4.91022
5.00119
5.09041
5.17783
5.2634
5.34706
5.42879
5.50857
5.58637
5.66221
5.73604
5.80787
5.87765
5.94536
6.01096
6.07442
6.1357
6.19477
6.25158
6.30611
6.3583
6.40814
6.45557
6.50056
6.54307
6.58305
6.62045
6.65523
6.68736
6.7168
6.74353
6.76753
6.78881
6.80735
6.82314
6.83618
6.84645
6.85395
6.85866
6.86056