/*--------------------------------*- C++ -*----------------------------------*\
| =========                 |                                                 |
| \\      /  F ield         | OpenFOAM: The Open Source CFD Toolbox           |
|  \\    /   O peration     | Version:  2112                                  |
|   \\  /    A nd           | Website:  www.openfoam.com                      |
|    \\/     M anipulation  |                                                 |
\*---------------------------------------------------------------------------*/
FoamFile
{
    version     2.0;
    format      ascii;
    arch        "LSB;label=32;scalar=64";
    class       volScalarField;
    location    "0.22";
    object      k;
}
// * * * * * * * * * * * * * * * * * * * * * * * * * * * * * * * * * * * * * //

dimensions      [0 2 -2 0 0 0 0];

internalField   nonuniform List<scalar> 
12225
(
0.388039
0.383075
0.384884
0.387294
0.387122
0.384145
0.37863
0.375804
0.374639
0.374226
0.373924
0.373395
0.372723
0.371743
0.370198
0.370499
0.373256
0.394403
0.375361
0.369039
0.362223
0.355136
0.343956
0.331835
0.323625
0.320203
0.318943
0.318126
0.316352
0.313103
0.30885
0.304919
0.29776
0.293372
0.283883
0.280283
0.374931
0.0324489
0.0285245
0.0298695
0.0242464
0.0184066
0.018086
0.0201245
0.0275183
0.0391415
0.0466846
0.0496501
0.0496286
0.0485095
0.0470221
0.0466362
0.0464113
0.0475916
0.375007
0.350189
0.302356
0.210476
0.0958008
0.0308909
0.0140437
0.0166661
0.0239298
0.0243477
0.0193953
0.0115767
0.00798632
0.00666778
0.00652811
0.00689427
0.00858496
0.0106865
0.375038
0.366477
0.34795
0.308027
0.197157
0.14806
0.145484
0.150308
0.168888
0.181856
0.186234
0.186477
0.185666
0.180715
0.163247
0.143542
0.130907
0.120492
0.375009
0.361918
0.330795
0.284318
0.207148
0.164349
0.133055
0.110578
0.10168
0.102543
0.120866
0.183407
0.231123
0.253198
0.260273
0.260669
0.256128
0.230214
0.375029
0.347056
0.263622
0.25227
0.248994
0.236734
0.176143
0.0963994
0.0704111
0.0753281
0.112183
0.198957
0.258346
0.288727
0.29927
0.300344
0.297464
0.283529
0.375092
0.299929
0.286503
0.301528
0.312838
0.308918
0.267923
0.162517
0.11319
0.111079
0.134618
0.205381
0.251313
0.269682
0.273088
0.271433
0.258662
0.220445
0.375204
0.290535
0.235101
0.274288
0.315438
0.316851
0.283993
0.189556
0.140683
0.134833
0.148409
0.18733
0.202684
0.203768
0.201052
0.190943
0.162282
0.13215
0.375068
0.307095
0.197148
0.205358
0.26421
0.275893
0.252449
0.200551
0.176265
0.166799
0.161541
0.153383
0.132625
0.114836
0.110632
0.111899
0.113349
0.111563
0.375145
0.332448
0.223145
0.202151
0.205356
0.213261
0.213811
0.202073
0.188297
0.180664
0.167084
0.145736
0.129818
0.124839
0.125269
0.127703
0.128631
0.126527
0.374976
0.332886
0.266914
0.25904
0.267521
0.273697
0.269673
0.239038
0.177515
0.137841
0.116319
0.108423
0.108465
0.116873
0.143776
0.164694
0.175332
0.177998
0.375201
0.351715
0.320503
0.31292
0.315826
0.32514
0.325845
0.317569
0.272765
0.18859
0.136099
0.113669
0.107948
0.107909
0.114418
0.138722
0.161332
0.17572
0.375282
0.353841
0.339854
0.335989
0.335852
0.33744
0.338343
0.336053
0.31901
0.2814
0.261761
0.240255
0.199149
0.155294
0.130892
0.124586
0.124654
0.129833
0.375179
0.336989
0.339012
0.343804
0.341048
0.33444
0.328171
0.324712
0.323997
0.325348
0.32898
0.329301
0.325056
0.300002
0.228324
0.183691
0.160417
0.145913
0.375407
0.335174
0.330743
0.334455
0.323321
0.29139
0.275534
0.278379
0.291369
0.31162
0.320498
0.321258
0.316872
0.295922
0.226991
0.166803
0.138494
0.129465
0.375141
0.342918
0.347844
0.341033
0.315817
0.305324
0.305036
0.307183
0.305259
0.296719
0.28558
0.272019
0.252262
0.226621
0.205317
0.194767
0.192422
0.192319
0.375163
0.354927
0.332319
0.31223
0.291041
0.288606
0.289511
0.280098
0.234892
0.200138
0.193384
0.198022
0.224901
0.25246
0.264994
0.269146
0.26961
0.267873
0.375114
0.362896
0.344306
0.336685
0.325322
0.306356
0.289728
0.285178
0.285929
0.286065
0.28257
0.274106
0.268496
0.268134
0.276199
0.295375
0.304767
0.306725
0.375007
0.36883
0.357277
0.334902
0.312983
0.294648
0.289769
0.293755
0.311184
0.322918
0.324885
0.321274
0.30056
0.276633
0.266905
0.266002
0.267035
0.266727
0.375005
0.361106
0.337519
0.338157
0.335787
0.32227
0.299972
0.288046
0.285183
0.288574
0.296287
0.295517
0.282582
0.267762
0.262472
0.260271
0.256899
0.245319
0.374993
0.358455
0.303321
0.272552
0.266275
0.260429
0.226522
0.204579
0.200724
0.20523
0.218306
0.218938
0.203699
0.188764
0.189058
0.196827
0.19843
0.191691
0.374973
0.3458
0.253917
0.204693
0.147525
0.130485
0.134312
0.149035
0.170934
0.175983
0.170444
0.13441
0.0887395
0.0763025
0.0798044
0.100237
0.113262
0.11915
0.375005
0.340361
0.264551
0.215206
0.158656
0.0875351
0.0594334
0.0618371
0.0854735
0.108239
0.113817
0.113952
0.114364
0.120093
0.132509
0.134001
0.127273
0.122178
0.375133
0.335485
0.267104
0.179301
0.101667
0.066212
0.0720075
0.114959
0.157447
0.175738
0.191119
0.211228
0.227921
0.236074
0.236844
0.229864
0.189297
0.132641
0.375031
0.362494
0.339566
0.267962
0.124877
0.0922447
0.126304
0.213558
0.241725
0.240757
0.236392
0.239361
0.242024
0.240553
0.22925
0.178209
0.119331
0.0905137
0.375028
0.368277
0.361128
0.336559
0.235255
0.189802
0.201728
0.208787
0.192059
0.121871
0.0717159
0.0613316
0.0636956
0.0650619
0.0609049
0.0406855
0.0211769
0.0115354
0.374941
0.10301
0.0284658
0.0122264
0.0100338
0.0110046
0.0149439
0.0240474
0.0296408
0.0309648
0.0306552
0.0284005
0.02574
0.0247927
0.0246722
0.0248725
0.0261698
0.0305467
0.37514
0.372169
0.366317
0.360423
0.354848
0.350395
0.347494
0.345551
0.343304
0.339691
0.334676
0.329232
0.324571
0.321306
0.319346
0.318173
0.317654
0.317206
0.382127
0.380495
0.377705
0.377604
0.378527
0.378937
0.378783
0.377896
0.377019
0.376241
0.37535
0.374496
0.37385
0.373471
0.373309
0.373274
0.373308
0.373549
0.383907
0.38408
0.344627
0.295246
0.278759
0.27407
0.253192
0.235077
0.217398
0.225463
0.228749
0.225829
0.218041
0.20657
0.198123
0.192899
0.189077
0.186518
0.184955
0.184048
0.184066
0.184436
0.18553
0.186927
0.188915
0.193591
0.198044
0.207476
0.215123
0.226607
0.252252
0.320836
0.516504
0.602906
0.531471
0.473678
0.427748
0.385936
0.365483
0.367365
0.365769
0.390175
0.392138
0.379616
0.385733
0.450695
0.466009
0.411239
0.410503
0.556722
0.698807
0.484694
0.293592
0.24338
0.228566
0.222962
0.217478
0.211553
0.204162
0.197251
0.187902
0.17971
0.169795
0.161054
0.15105
0.142008
0.133646
0.125305
0.119723
0.113139
0.10976
0.106509
0.104999
0.104328
0.104041
0.103807
0.103631
0.103521
0.103468
0.103461
0.103515
0.103567
0.103655
0.103815
0.103949
0.104052
0.104201
0.104363
0.104587
0.10482
0.10501
0.105211
0.105457
0.105745
0.106099
0.106484
0.106844
0.107322
0.107774
0.108301
0.10886
0.109435
0.110067
0.11066
0.111164
0.111619
0.111901
0.112174
0.112674
0.11345
0.114286
0.11485
0.114985
0.115013
0.11567
0.11791
0.124671
0.142912
0.156095
0.159694
0.162412
0.170897
0.205521
0.338448
0.507651
0.579116
0.589242
0.582034
0.5507
0.504246
0.473478
0.466096
0.467983
0.477281
0.505121
0.539471
0.652799
0.990868
1.01018
0.643113
0.357945
0.278528
0.25383
0.239863
0.226568
0.214618
0.204538
0.1991
0.196779
0.197451
0.197489
0.19827
0.199342
0.200609
0.202643
0.20541
0.208736
0.212481
0.216897
0.220992
0.225082
0.229497
0.234746
0.241313
0.248044
0.255422
0.266013
0.278739
0.284565
0.284955
0.281788
0.267104
0.214784
0.179083
0.174397
0.181592
0.183655
0.185772
0.19852
0.200266
0.375829
0.311271
0.283406
0.299953
0.315161
0.306368
0.282864
0.246706
0.20078
0.169948
0.152172
0.144463
0.139791
0.137878
0.137013
0.137018
0.13713
0.137282
0.137569
0.137706
0.13773
0.137627
0.137337
0.137401
0.137722
0.138654
0.13998
0.142922
0.14659
0.152109
0.161721
0.179839
0.236558
0.403511
0.509317
0.61944
0.609891
0.493228
0.449363
0.428911
0.365026
0.348862
0.356851
0.366695
0.363368
0.370648
0.382344
0.388104
0.426638
0.464092
0.382739
0.253591
0.190446
0.168115
0.152274
0.14142
0.131895
0.12265
0.116486
0.108386
0.103937
0.0973639
0.0941277
0.0893894
0.0871185
0.0844276
0.0828836
0.082152
0.0818926
0.0818983
0.0828292
0.0837076
0.0845308
0.0857102
0.0862861
0.0869027
0.0876472
0.088014
0.0884371
0.088777
0.0889451
0.0892117
0.0893356
0.0893959
0.0894591
0.0894735
0.0895048
0.0895216
0.0896016
0.0896244
0.0896181
0.0896096
0.0896117
0.0896811
0.089926
0.0901842
0.0904158
0.0906009
0.0907483
0.0908518
0.0909278
0.0910512
0.0911866
0.091388
0.0915482
0.0916751
0.0910735
0.0894762
0.0873715
0.0855805
0.0843127
0.0830391
0.0807018
0.0757804
0.0691289
0.0647294
0.064169
0.0658098
0.0709417
0.0727949
0.0738093
0.0772949
0.0870715
0.117882
0.188132
0.2319
0.246364
0.244916
0.225183
0.169641
0.138343
0.134962
0.146592
0.173793
0.195479
0.243182
0.36441
0.760513
0.879632
0.518976
0.306657
0.245348
0.221939
0.207109
0.196242
0.189742
0.186219
0.184646
0.184089
0.184028
0.186512
0.187675
0.188391
0.189015
0.189822
0.191492
0.194601
0.200011
0.208024
0.216804
0.223449
0.226489
0.228545
0.233178
0.235366
0.238507
0.246745
0.276201
0.31096
0.320632
0.319515
0.310354
0.274942
0.230318
0.195893
0.153728
0.124058
0.115664
0.116693
0.126432
0.386193
0.233113
0.239822
0.29882
0.29964
0.279346
0.226387
0.158053
0.130442
0.122474
0.123153
0.125513
0.130074
0.135084
0.140638
0.14772
0.153492
0.158284
0.162548
0.164637
0.165637
0.165309
0.164193
0.162181
0.158709
0.154821
0.150953
0.147568
0.146847
0.14706
0.148196
0.151364
0.160976
0.190696
0.262469
0.432089
0.535534
0.532646
0.522932
0.495176
0.406776
0.333938
0.337999
0.364227
0.378747
0.374787
0.374001
0.370971
0.333436
0.217398
0.16774
0.123333
0.102516
0.0852212
0.0738991
0.0633224
0.055221
0.0482246
0.0429096
0.0387815
0.03544
0.0336462
0.0328378
0.0325523
0.0327444
0.0344947
0.0376889
0.0412894
0.0457779
0.0518257
0.0586042
0.065599
0.0726956
0.079261
0.0842904
0.0882414
0.0912765
0.0931365
0.0946726
0.0956015
0.0962489
0.0965093
0.0966129
0.0966345
0.0965622
0.0963366
0.0960951
0.0959384
0.0958454
0.0958014
0.0957782
0.0957206
0.0956411
0.0954981
0.0952915
0.0951287
0.0950748
0.0951244
0.095411
0.0957481
0.0961592
0.0967676
0.0974338
0.097979
0.0984795
0.0986931
0.0985504
0.0979181
0.0965274
0.0945796
0.0923363
0.0897554
0.0863112
0.0795511
0.0662016
0.0522505
0.0473192
0.049137
0.0506845
0.0481637
0.0348745
0.0282078
0.0295198
0.0361986
0.0438488
0.0516466
0.0744294
0.0941221
0.0953471
0.0882277
0.0828245
0.0831348
0.104021
0.145863
0.177587
0.24285
0.477969
0.780919
0.585312
0.300162
0.213447
0.177814
0.154127
0.137919
0.126377
0.117592
0.111337
0.108955
0.118151
0.150752
0.174202
0.184001
0.187299
0.18806
0.187711
0.187573
0.187491
0.188377
0.191235
0.195816
0.200935
0.205762
0.208649
0.209524
0.211664
0.217491
0.231164
0.26777
0.323158
0.336841
0.330337
0.30405
0.272597
0.243152
0.190287
0.11342
0.0570678
0.0353923
0.0332306
0.0384975
0.44601
0.283026
0.361623
0.350077
0.296246
0.183485
0.125748
0.110555
0.111692
0.116714
0.127249
0.147319
0.167677
0.184537
0.198113
0.206274
0.210789
0.213825
0.215901
0.216426
0.217107
0.217435
0.218438
0.218313
0.217378
0.214909
0.209295
0.20167
0.188628
0.172873
0.161071
0.155354
0.155587
0.158991
0.171607
0.205865
0.285438
0.393711
0.413172
0.392655
0.311968
0.310985
0.342774
0.377957
0.375527
0.362243
0.336592
0.263334
0.157397
0.110896
0.088093
0.0699941
0.061531
0.0530842
0.0490453
0.045727
0.043321
0.0420139
0.0412752
0.0410851
0.0430703
0.0478007
0.0552759
0.0658661
0.0765883
0.0876125
0.0967255
0.104122
0.109782
0.114534
0.116994
0.118141
0.118491
0.118025
0.116509
0.115837
0.114585
0.11345
0.112282
0.111163
0.110107
0.109159
0.108219
0.107302
0.106469
0.105556
0.10461
0.103773
0.102876
0.102044
0.101268
0.100333
0.0994326
0.09842
0.0974671
0.0965436
0.0957233
0.0951391
0.0946968
0.0944661
0.0945398
0.0952556
0.0965257
0.0978544
0.099336
0.10084
0.102207
0.103287
0.103974
0.103679
0.101966
0.0996329
0.0978932
0.0959275
0.0923339
0.0877018
0.0845869
0.0840389
0.0851427
0.0859038
0.084716
0.0801521
0.0762672
0.0684
0.0586682
0.0533128
0.0501249
0.0496072
0.0500946
0.0541181
0.0770797
0.142843
0.179304
0.201242
0.240526
0.352201
0.601239
0.62599
0.321818
0.20264
0.167027
0.150913
0.142632
0.139373
0.139999
0.158951
0.17881
0.192986
0.200111
0.201991
0.201736
0.200916
0.199787
0.198319
0.195526
0.191028
0.187383
0.185568
0.184519
0.185354
0.186421
0.188238
0.190726
0.195444
0.201919
0.211852
0.230963
0.273703
0.342821
0.390774
0.395661
0.37887
0.318164
0.269356
0.196826
0.115609
0.0718524
0.0638583
0.0678805
0.0698097
0.447306
0.441996
0.3855
0.222458
0.121879
0.0957857
0.0969032
0.104954
0.125903
0.159665
0.192122
0.208275
0.216542
0.220836
0.222979
0.224048
0.224508
0.224773
0.224909
0.225061
0.225413
0.226498
0.22766
0.229151
0.233309
0.238367
0.238933
0.237994
0.234711
0.227386
0.212586
0.185509
0.167406
0.162167
0.163273
0.1693
0.187395
0.2338
0.272586
0.265837
0.268733
0.319927
0.371306
0.370488
0.34896
0.303972
0.208326
0.126282
0.0873516
0.0695204
0.0604162
0.0544838
0.0518779
0.0497541
0.0487657
0.0481679
0.0491934
0.052323
0.0569122
0.065859
0.0772366
0.0897628
0.102475
0.111128
0.116384
0.119315
0.121205
0.121957
0.122165
0.121898
0.120618
0.119463
0.118708
0.117777
0.116741
0.115628
0.114575
0.113436
0.112274
0.111027
0.10979
0.108745
0.107656
0.10658
0.105794
0.104954
0.104075
0.103417
0.102585
0.101707
0.100935
0.0999077
0.0989328
0.0977579
0.0965188
0.095164
0.0937434
0.0922904
0.0908752
0.0894854
0.0880722
0.0869157
0.0862871
0.0867676
0.0889044
0.0925413
0.0972617
0.101576
0.104923
0.107437
0.10891
0.108997
0.106055
0.102014
0.0981232
0.0926527
0.0872297
0.0844728
0.084341
0.085915
0.0871678
0.0873843
0.0877141
0.0874543
0.0847254
0.0766374
0.065959
0.0569229
0.0549988
0.0578335
0.0834667
0.151627
0.180347
0.207479
0.283584
0.451968
0.574597
0.368801
0.207674
0.163206
0.151821
0.148275
0.146675
0.157125
0.183578
0.198696
0.205014
0.207402
0.20774
0.205916
0.204293
0.202035
0.20091
0.200231
0.199353
0.197715
0.19251
0.185881
0.183075
0.181958
0.182008
0.182414
0.183666
0.186401
0.192259
0.204285
0.228813
0.27625
0.34725
0.406136
0.418671
0.410827
0.379969
0.304546
0.202833
0.123773
0.0915229
0.0854448
0.0876097
0.091338
0.423889
0.358259
0.163562
0.0861618
0.0805713
0.0878285
0.11052
0.158411
0.194717
0.212424
0.220429
0.223795
0.22515
0.2256
0.225765
0.225786
0.225893
0.226141
0.226374
0.226761
0.227862
0.229543
0.231944
0.237542
0.247888
0.25614
0.258782
0.25862
0.257184
0.253237
0.243911
0.23212
0.205421
0.178123
0.167811
0.168018
0.171294
0.190232
0.21504
0.223575
0.281389
0.352727
0.357453
0.326413
0.250989
0.163184
0.107652
0.076728
0.0636281
0.0579586
0.0553937
0.0538694
0.0531954
0.0538035
0.0572059
0.06082
0.0658668
0.0725225
0.0818231
0.0921792
0.103225
0.114037
0.119718
0.122152
0.123134
0.123426
0.123452
0.123064
0.122296
0.121703
0.121589
0.121732
0.12258
0.124058
0.124787
0.125173
0.125327
0.125079
0.12444
0.123112
0.121146
0.119468
0.117603
0.115534
0.113987
0.112486
0.111258
0.110829
0.109986
0.108709
0.107562
0.106151
0.104715
0.103135
0.101479
0.0997188
0.0978314
0.0958124
0.0936951
0.0914596
0.0890217
0.0864679
0.0839524
0.0818932
0.0802979
0.0793992
0.0801714
0.0846238
0.0925787
0.101343
0.107803
0.112058
0.114333
0.114547
0.111371
0.105492
0.099253
0.0938512
0.0906741
0.0894796
0.0884908
0.0874908
0.08719
0.0872003
0.0863252
0.082899
0.0775447
0.0672085
0.0629688
0.0650926
0.0902059
0.15417
0.180655
0.215144
0.316792
0.449571
0.410498
0.230682
0.162576
0.150628
0.149652
0.150862
0.161766
0.189967
0.20462
0.209639
0.211567
0.212851
0.213483
0.213402
0.208594
0.2037
0.20052
0.19927
0.199159
0.198953
0.197479
0.191307
0.183325
0.179887
0.17946
0.17942
0.179616
0.18075
0.184812
0.196732
0.224479
0.275595
0.348873
0.410469
0.43003
0.426174
0.404587
0.330501
0.215341
0.143659
0.109157
0.0974503
0.095918
0.0959939
0.221662
0.160354
0.0707486
0.0663032
0.0814596
0.12795
0.180078
0.205277
0.218412
0.224053
0.225498
0.22584
0.225707
0.225289
0.225387
0.225686
0.226417
0.228073
0.229219
0.230593
0.234239
0.237685
0.24188
0.252357
0.265763
0.273747
0.275834
0.275562
0.27399
0.270044
0.260357
0.251529
0.236186
0.208106
0.182042
0.170833
0.171145
0.177798
0.193977
0.234538
0.323223
0.339948
0.295502
0.213408
0.136987
0.0940136
0.0725516
0.0628765
0.0592788
0.0577657
0.0570548
0.0582911
0.0621893
0.0657524
0.0685191
0.0724647
0.0792145
0.0883014
0.0982306
0.107446
0.115966
0.120676
0.123134
0.124135
0.124644
0.125185
0.125732
0.126938
0.129068
0.13312
0.139051
0.14602
0.15297
0.158297
0.161624
0.163311
0.164189
0.164491
0.164025
0.162186
0.159373
0.156058
0.152062
0.146946
0.141727
0.136447
0.131999
0.128271
0.12391
0.120308
0.117221
0.114421
0.111907
0.109577
0.10734
0.105183
0.103
0.10076
0.0987938
0.0969492
0.0950641
0.0930833
0.0907977
0.087839
0.08414
0.0796463
0.0765032
0.0749855
0.0751815
0.0794007
0.0907621
0.103632
0.112762
0.117996
0.119986
0.118734
0.111713
0.105243
0.101495
0.0985265
0.0941077
0.0886895
0.0858346
0.0862853
0.086974
0.0861964
0.0826752
0.0730993
0.069127
0.0710478
0.0943743
0.153163
0.17973
0.221217
0.319238
0.374582
0.265209
0.172266
0.148656
0.147894
0.150852
0.160806
0.188337
0.207185
0.214113
0.216012
0.22019
0.226664
0.231987
0.233944
0.224207
0.212914
0.202807
0.197996
0.19613
0.197376
0.197867
0.195563
0.18663
0.179034
0.176511
0.176384
0.176878
0.177978
0.181452
0.192418
0.218135
0.267367
0.343628
0.409136
0.433544
0.432874
0.416009
0.345996
0.238122
0.16694
0.12988
0.113658
0.108328
0.105525
0.145855
0.116673
0.0498155
0.0695455
0.137081
0.18405
0.206951
0.219385
0.224792
0.226144
0.225491
0.223703
0.222272
0.223351
0.225152
0.227655
0.232463
0.239213
0.24346
0.249034
0.255808
0.260982
0.268174
0.279073
0.289747
0.295142
0.295608
0.294943
0.292422
0.281444
0.264632
0.252826
0.242297
0.221338
0.194533
0.17735
0.173043
0.178217
0.197679
0.282566
0.320567
0.284196
0.193095
0.125886
0.0885021
0.0715001
0.0644123
0.0616391
0.0605191
0.061517
0.0657263
0.0700005
0.072502
0.0751246
0.0779234
0.0833845
0.0917034
0.100533
0.108204
0.116388
0.12045
0.122576
0.124204
0.126188
0.128073
0.131092
0.136678
0.146343
0.161254
0.176229
0.183391
0.187123
0.188753
0.189207
0.188995
0.18718
0.184718
0.182483
0.180036
0.177673
0.175494
0.172913
0.169848
0.16551
0.159504
0.151492
0.142396
0.133558
0.126478
0.121668
0.117556
0.114101
0.111126
0.108543
0.106156
0.103935
0.101647
0.0989683
0.0967464
0.095185
0.0940051
0.0931147
0.0925193
0.0923752
0.0925377
0.0921995
0.0876313
0.0792735
0.0740067
0.0724039
0.0732831
0.0796463
0.0957482
0.111131
0.120551
0.124501
0.124469
0.118318
0.109608
0.105738
0.102729
0.095507
0.087003
0.0851748
0.0883995
0.0897886
0.0876325
0.078875
0.075245
0.0769438
0.0974862
0.150866
0.176976
0.22337
0.290194
0.282514
0.198165
0.152472
0.145105
0.148179
0.155724
0.17642
0.197399
0.213946
0.219784
0.226054
0.23986
0.259229
0.268775
0.272101
0.260508
0.237779
0.213578
0.200268
0.194977
0.193574
0.195844
0.195799
0.191346
0.179682
0.17427
0.17333
0.173824
0.175416
0.178149
0.188135
0.213772
0.255944
0.32712
0.398796
0.432319
0.434762
0.421094
0.356121
0.252777
0.185504
0.149574
0.129482
0.119644
0.113687
0.134406
0.107214
0.0421243
0.116216
0.178656
0.204139
0.217078
0.223627
0.225544
0.223662
0.219124
0.217663
0.220341
0.224179
0.231094
0.24053
0.254745
0.26944
0.284309
0.29429
0.298626
0.300424
0.304739
0.313164
0.318653
0.319138
0.318466
0.313321
0.296431
0.277327
0.261159
0.250324
0.240529
0.220358
0.193875
0.177529
0.174272
0.180673
0.231931
0.296849
0.291639
0.185037
0.127027
0.0881545
0.0722551
0.066395
0.064543
0.0638733
0.0669413
0.0739415
0.0785199
0.0813141
0.0827623
0.0841083
0.0878899
0.0950646
0.102359
0.108397
0.11511
0.120134
0.122639
0.124315
0.12693
0.131422
0.138489
0.151042
0.17263
0.188904
0.196665
0.201187
0.203
0.203561
0.203498
0.201229
0.198507
0.196064
0.19246
0.188404
0.184104
0.180221
0.176814
0.174262
0.171898
0.168585
0.164048
0.157413
0.147761
0.135586
0.124397
0.114235
0.10622
0.100622
0.0969527
0.0945395
0.0926832
0.0910798
0.089178
0.0856146
0.0815656
0.0786307
0.077144
0.0771846
0.0788684
0.0825466
0.0885224
0.0940036
0.0978065
0.0982986
0.0893018
0.0770928
0.072254
0.072058
0.0753434
0.0886351
0.108866
0.122507
0.128321
0.128817
0.123693
0.113349
0.108827
0.103551
0.0966817
0.0924512
0.0926777
0.0941829
0.0927604
0.0848271
0.0808071
0.0820193
0.0987367
0.14715
0.171456
0.217845
0.252321
0.230663
0.170006
0.146962
0.144953
0.150153
0.166787
0.186331
0.205152
0.221294
0.228382
0.243768
0.270966
0.285148
0.2908
0.292267
0.284996
0.268138
0.234828
0.209209
0.195105
0.191128
0.192039
0.194071
0.192141
0.181858
0.172728
0.170793
0.171524
0.174381
0.176845
0.182875
0.206588
0.248602
0.313674
0.385402
0.427154
0.433676
0.420622
0.354651
0.259398
0.200108
0.165263
0.144239
0.134353
0.124799
0.1312
0.104612
0.0403704
0.161363
0.197087
0.21236
0.220043
0.22371
0.220572
0.214757
0.213054
0.216462
0.222453
0.233195
0.24894
0.272841
0.298277
0.320514
0.333158
0.338008
0.336985
0.336222
0.339254
0.343225
0.343
0.340023
0.327708
0.307401
0.283901
0.263192
0.250048
0.24209
0.234154
0.215667
0.190418
0.176198
0.175568
0.194025
0.270942
0.286155
0.205087
0.126206
0.0919638
0.0748051
0.0687631
0.0669632
0.067362
0.0735457
0.0812896
0.0848467
0.0864949
0.0873291
0.0884269
0.0929185
0.100647
0.106953
0.110851
0.114589
0.118785
0.121916
0.124589
0.127734
0.133658
0.144718
0.165445
0.19079
0.20294
0.208955
0.211763
0.213598
0.215327
0.216813
0.217476
0.217648
0.216286
0.211935
0.207268
0.200131
0.192026
0.183711
0.176773
0.172007
0.168773
0.167487
0.164768
0.160121
0.152831
0.138803
0.123386
0.109027
0.0975021
0.0901755
0.0868736
0.0858321
0.0855489
0.0850971
0.0838622
0.0806085
0.0756156
0.0704404
0.0657592
0.0620066
0.0596927
0.0595124
0.0629983
0.0747072
0.0913226
0.102101
0.106109
0.101053
0.0832974
0.0742879
0.0729736
0.0754411
0.0859863
0.108402
0.124966
0.131953
0.132581
0.127787
0.115794
0.109135
0.105699
0.102822
0.100986
0.100766
0.0993241
0.0910407
0.0851673
0.0856137
0.0979454
0.141814
0.165188
0.203471
0.226048
0.204077
0.160027
0.14624
0.146049
0.157203
0.175748
0.192419
0.209957
0.225504
0.239988
0.259923
0.286166
0.29583
0.298579
0.298417
0.293297
0.280949
0.253273
0.221224
0.198563
0.190117
0.1891
0.190694
0.190907
0.183912
0.170764
0.167065
0.167765
0.173098
0.176621
0.180241
0.198463
0.237878
0.2975
0.368465
0.416403
0.427745
0.415438
0.347934
0.261839
0.207997
0.176604
0.160886
0.154977
0.144772
0.129801
0.105214
0.0591905
0.187168
0.204919
0.214553
0.218799
0.215788
0.210033
0.209292
0.212006
0.218211
0.23063
0.25175
0.280543
0.309266
0.330869
0.342469
0.348992
0.353423
0.355689
0.357296
0.359392
0.357197
0.347704
0.334489
0.310781
0.278338
0.253405
0.239806
0.234113
0.233288
0.22626
0.20497
0.181871
0.175555
0.181677
0.239701
0.270446
0.246304
0.13644
0.0951503
0.0783902
0.0716185
0.0695733
0.0700435
0.0765756
0.0835283
0.086998
0.0890023
0.0907721
0.0930297
0.0977875
0.104095
0.110365
0.114427
0.116689
0.119515
0.122576
0.125481
0.128875
0.135441
0.149005
0.171546
0.196367
0.209886
0.216254
0.220524
0.226806
0.232958
0.23926
0.244006
0.246626
0.247761
0.247909
0.245494
0.240912
0.233784
0.222819
0.206725
0.187535
0.174254
0.166629
0.162711
0.160979
0.160909
0.157648
0.151263
0.136102
0.116341
0.100651
0.0910673
0.087189
0.0865077
0.0872329
0.0883698
0.088447
0.0863491
0.0815613
0.0751179
0.0683477
0.0624049
0.0580112
0.0552738
0.054345
0.0552366
0.062344
0.0858297
0.106049
0.113251
0.110097
0.0901648
0.0779301
0.0757431
0.0780717
0.0881414
0.111394
0.129038
0.136108
0.136381
0.130657
0.116548
0.109828
0.108184
0.107393
0.10674
0.105432
0.0981936
0.0891545
0.0884231
0.0960276
0.1339
0.157177
0.191251
0.209553
0.194249
0.158411
0.146986
0.149584
0.165906
0.181844
0.195074
0.21162
0.231442
0.249061
0.272476
0.293972
0.300077
0.301212
0.299895
0.295779
0.286279
0.261815
0.229385
0.203677
0.189937
0.186999
0.187447
0.188115
0.184032
0.169578
0.16347
0.163662
0.170718
0.177962
0.179683
0.193927
0.229086
0.27998
0.346897
0.39777
0.413437
0.401271
0.3339
0.258606
0.212271
0.187545
0.170449
0.161139
0.15283
0.12939
0.116301
0.125112
0.195204
0.206278
0.210351
0.208982
0.205707
0.205426
0.207291
0.212338
0.223467
0.24265
0.267493
0.294458
0.31973
0.337028
0.345414
0.350706
0.35542
0.357511
0.357465
0.353147
0.342504
0.323553
0.290821
0.256578
0.237553
0.227852
0.224843
0.226425
0.223542
0.208778
0.18837
0.177608
0.17769
0.20938
0.251453
0.256517
0.16284
0.101727
0.0814007
0.0743331
0.0721938
0.0723205
0.0792428
0.0873089
0.0911965
0.0931672
0.0943523
0.0952093
0.0976311
0.103674
0.112659
0.118867
0.12178
0.123339
0.124641
0.125603
0.127656
0.133201
0.145395
0.168559
0.194378
0.213763
0.223768
0.230527
0.238617
0.246572
0.254154
0.258526
0.260801
0.261738
0.261895
0.260675
0.258931
0.256015
0.252248
0.247743
0.240497
0.226195
0.197975
0.174523
0.162452
0.15741
0.155806
0.157909
0.156357
0.153354
0.143904
0.123625
0.105022
0.0973576
0.096835
0.0999294
0.10574
0.109314
0.110369
0.108708
0.10292
0.0933764
0.0810913
0.0700999
0.0615764
0.0562043
0.0541309
0.0547534
0.0602014
0.0847924
0.111726
0.120562
0.11674
0.0954218
0.0826851
0.0805307
0.083009
0.0940659
0.11785
0.134869
0.140744
0.140196
0.13156
0.116128
0.110836
0.110234
0.110005
0.109488
0.105741
0.0940615
0.0907938
0.0945851
0.123626
0.15015
0.177548
0.193917
0.187107
0.159264
0.15091
0.157777
0.173468
0.185459
0.194974
0.210708
0.234293
0.255397
0.279255
0.296099
0.300861
0.3011
0.299938
0.296176
0.287822
0.265769
0.232866
0.20611
0.190233
0.185084
0.184654
0.184859
0.182312
0.168413
0.15981
0.159413
0.16623
0.181091
0.182506
0.192862
0.219086
0.257637
0.31762
0.369137
0.388142
0.376378
0.314506
0.253273
0.216623
0.192973
0.17199
0.158949
0.152359
0.129624
0.125617
0.162933
0.197497
0.202869
0.20274
0.202105
0.201782
0.202341
0.205898
0.213847
0.227126
0.246019
0.269191
0.29303
0.312139
0.322845
0.329538
0.333182
0.334417
0.334241
0.326274
0.306711
0.280727
0.251277
0.229462
0.21935
0.213985
0.212264
0.212844
0.211755
0.202857
0.189363
0.180409
0.177904
0.18889
0.234664
0.247249
0.210528
0.115868
0.085349
0.076839
0.074503
0.0740359
0.0782659
0.0874406
0.0919722
0.0945971
0.0965596
0.0987217
0.102203
0.107741
0.114474
0.120601
0.124137
0.125748
0.126643
0.127571
0.129455
0.133536
0.142981
0.1617
0.186336
0.210424
0.226197
0.234104
0.242792
0.251801
0.258676
0.263478
0.265842
0.266929
0.267278
0.2668
0.265617
0.263816
0.261211
0.257515
0.253481
0.249263
0.242671
0.229185
0.199154
0.172103
0.157438
0.1511
0.15062
0.154237
0.155165
0.153993
0.149672
0.136111
0.122461
0.118503
0.120051
0.124466
0.124276
0.124228
0.124643
0.125091
0.124761
0.120981
0.108374
0.0894504
0.0729879
0.0621424
0.0571806
0.0573953
0.0641443
0.0926683
0.120368
0.127828
0.121527
0.0992147
0.0885174
0.0870628
0.089925
0.102767
0.126644
0.141721
0.145479
0.143601
0.130349
0.115725
0.112164
0.111946
0.111794
0.110337
0.101027
0.0934283
0.094381
0.112648
0.142802
0.162541
0.181983
0.180339
0.1625
0.157226
0.163615
0.179826
0.188058
0.194484
0.207811
0.233216
0.255007
0.278762
0.295164
0.300351
0.300497
0.298983
0.295228
0.287938
0.266695
0.233782
0.206953
0.189957
0.183275
0.182059
0.181661
0.178807
0.165076
0.155462
0.154869
0.161014
0.180819
0.189059
0.196917
0.215151
0.240634
0.289155
0.3356
0.355528
0.346121
0.295327
0.249233
0.219762
0.193052
0.166561
0.150912
0.147077
0.130995
0.130715
0.178091
0.197258
0.199785
0.199843
0.199
0.19909
0.201059
0.204877
0.210542
0.217627
0.225542
0.234943
0.247039
0.260961
0.275108
0.285985
0.291692
0.293855
0.293737
0.283444
0.2648
0.246171
0.224239
0.212482
0.207234
0.20398
0.201997
0.198788
0.193078
0.186704
0.181434
0.179701
0.183174
0.218397
0.236213
0.231659
0.142631
0.0926848
0.0797969
0.0764993
0.0755793
0.0795739
0.0915051
0.0975828
0.0999634
0.100944
0.101831
0.103431
0.106687
0.11273
0.120459
0.127263
0.129952
0.130867
0.131107
0.131134
0.131958
0.136317
0.147315
0.168976
0.195369
0.218513
0.232489
0.24042
0.249529
0.258804
0.26451
0.267612
0.269286
0.270064
0.270341
0.269753
0.268326
0.266107
0.263609
0.260131
0.255642
0.251504
0.24686
0.238248
0.217573
0.188075
0.164094
0.151146
0.146067
0.145909
0.150396
0.153762
0.153744
0.151662
0.146589
0.142198
0.137916
0.132404
0.129106
0.127227
0.126628
0.127699
0.129905
0.132434
0.134337
0.131632
0.113756
0.0884086
0.0713372
0.063583
0.0636682
0.0741558
0.108794
0.130695
0.134017
0.123839
0.10289
0.0952806
0.0946648
0.098169
0.113464
0.136676
0.148743
0.150306
0.146309
0.128224
0.116261
0.113907
0.113569
0.112942
0.108167
0.0969285
0.0955207
0.103814
0.134181
0.150661
0.169002
0.173103
0.164292
0.160337
0.164861
0.181199
0.18912
0.193568
0.202945
0.228798
0.25253
0.276031
0.292161
0.298354
0.298635
0.297511
0.294368
0.286251
0.260914
0.229177
0.205199
0.188234
0.180802
0.179155
0.178137
0.174514
0.160554
0.151132
0.150591
0.157278
0.179021
0.193555
0.20134
0.211532
0.225439
0.262483
0.303218
0.321192
0.315231
0.279983
0.246796
0.216805
0.184223
0.160081
0.148003
0.144999
0.132387
0.137654
0.183013
0.195692
0.196872
0.196718
0.196556
0.196605
0.196589
0.196563
0.19639
0.196193
0.197054
0.199771
0.206137
0.215429
0.227193
0.237365
0.24801
0.253613
0.256059
0.256517
0.246702
0.233287
0.219573
0.208004
0.203295
0.198244
0.192108
0.185758
0.182851
0.181129
0.180529
0.182651
0.203955
0.226579
0.231258
0.186496
0.107497
0.0837435
0.0782397
0.0768887
0.0776557
0.0847917
0.097901
0.103759
0.106739
0.108596
0.110247
0.112215
0.115023
0.119738
0.12588
0.130239
0.132696
0.134097
0.134888
0.135749
0.137626
0.142375
0.15564
0.176197
0.200392
0.22135
0.235455
0.245159
0.253433
0.261195
0.266539
0.269401
0.271009
0.271614
0.271506
0.27093
0.269611
0.266957
0.264252
0.261055
0.256415
0.251958
0.247717
0.240504
0.224033
0.194269
0.168495
0.152508
0.145065
0.14268
0.143028
0.147853
0.15219
0.152843
0.151773
0.149903
0.145996
0.139451
0.133419
0.129094
0.126479
0.125674
0.127376
0.131414
0.136495
0.141621
0.144144
0.134309
0.103581
0.0817916
0.0732922
0.07466
0.0931435
0.126874
0.140004
0.139147
0.12351
0.107098
0.10237
0.102467
0.107257
0.12605
0.147102
0.155381
0.155268
0.147448
0.126392
0.117634
0.115782
0.115106
0.11284
0.102715
0.0972071
0.100108
0.122375
0.143134
0.156013
0.163117
0.162228
0.160439
0.164425