/*--------------------------------*- C++ -*----------------------------------*\
| =========                 |                                                 |
| \\      /  F ield         | OpenFOAM: The Open Source CFD Toolbox           |
|  \\    /   O peration     | Version:  2112                                  |
|   \\  /    A nd           | Website:  www.openfoam.com                      |
|    \\/     M anipulation  |                                                 |
\*---------------------------------------------------------------------------*/
FoamFile
{
    version     2.0;
    format      ascii;
    arch        "LSB;label=32;scalar=64";
    class       volScalarField;
    location    "0.22";
    object      pMean;
}
// * * * * * * * * * * * * * * * * * * * * * * * * * * * * * * * * * * * * * //

dimensions      [0 2 -2 0 0 0 0];

internalField   nonuniform List<scalar> 
12225
(
4.08564
3.42989
3.08058
2.9349
2.85552
2.78892
2.72767
2.67754
2.64386
2.62901
2.63343
2.65745
2.70068
2.7614
2.83251
2.89134
2.89765
2.70621
3.82997
3.39918
3.0792
2.92459
2.84361
2.77869
2.71817
2.66774
2.63301
2.61687
2.61887
2.64024
2.67759
2.73328
2.79114
2.84772
2.83041
2.69625
3.77404
3.39553
3.08757
2.92118
2.83489
2.77032
2.71025
2.6588
2.62229
2.60317
2.60157
2.61613
2.64574
2.68543
2.72739
2.749
2.71494
2.56056
3.62027
3.34338
3.07599
2.90862
2.81797
2.75417
2.69555
2.64399
2.60554
2.58343
2.57682
2.58474
2.6035
2.62912
2.64964
2.64779
2.59377
2.45663
3.54285
3.31035
3.07141
2.90504
2.80766
2.74129
2.68285
2.63054
2.58972
2.5635
2.55148
2.55143
2.55957
2.57017
2.57286
2.55265
2.4905
2.37305
3.45869
3.25509
3.04861
2.89143
2.79009
2.72099
2.66276
2.61044
2.56751
2.53715
2.51914
2.51095
2.50829
2.50511
2.49252
2.45908
2.39323
2.28751
3.37162
3.20302
3.02625
2.8793
2.77512
2.70189
2.64234
2.58926
2.54399
2.50907
2.48441
2.46747
2.45397
2.43814
2.4126
2.36902
2.29976
2.2003
3.29123
3.14661
2.994
2.85897
2.75478
2.67824
2.61685
2.56259
2.51477
2.47516
2.44375
2.41817
2.39434
2.36713
2.33052
2.27846
2.20573
2.10981
3.2081
3.0899
2.96017
2.83686
2.73401
2.65427
2.59004
2.53382
2.48314
2.43857
2.40018
2.36595
2.33217
2.29444
2.24797
2.18833
2.1119
2.0173
3.13465
3.02911
2.9175
2.80689
2.70751
2.62581
2.55856
2.49964
2.44576
2.39637
2.35113
2.30847
2.2654
2.21818
2.16293
2.0964
2.01612
1.92127
3.07551
2.97582
2.87557
2.77504
2.67959
2.59639
2.52577
2.46347
2.40576
2.35118
2.29914
2.24833
2.1963
2.14007
2.07663
2.00353
1.91904
1.82262
2.99905
2.91494
2.82994
2.73889
2.64715
2.56359
2.49053
2.42506
2.36369
2.3045
2.24655
2.18876
2.12928
2.06567
1.99549
1.91682
1.82842
1.72984
2.95641
2.87136
2.78946
2.704
2.61561
2.5318
2.45606
2.38686
2.32119
2.25701
2.1932
2.12872
2.06203
1.99128
1.9146
1.83056
1.73813
1.63706
2.86881
2.80203
2.73353
2.65559
2.57113
2.488
2.4101
2.33708
2.26684
2.19738
2.12736
2.05581
1.98168
1.90369
1.82045
1.73083
1.63403
1.52974
2.82798
2.74864
2.67726
2.60339
2.5224
2.43886
2.35742
2.27934
2.20329
2.12741
2.05037
1.97135
1.8895
1.80385
1.71346
1.61761
1.51584
1.40798
2.75319
2.67144
2.60227
2.53364
2.45712
2.37487
2.29139
2.20884
2.12687
2.04427
1.95998
1.87327
1.78354
1.6903
1.59298
1.49114
1.38437
1.27259
2.68286
2.60247
2.53506
2.46715
2.38949
2.30437
2.21635
2.12792
2.03931
1.9496
1.85782
1.7634
1.66601
1.56536
1.46119
1.35332
1.24156
1.12598
2.58462
2.5184
2.45648
2.38912
2.31047
2.22317
2.13167
2.03833
1.94346
1.84657
1.74717
1.64505
1.54015
1.43247
1.32195
1.20859
1.09232
0.973308
2.499
2.43536
2.3779
2.31249
2.23224
2.14083
2.04353
1.94349
1.84161
1.73768
1.63133
1.52246
1.41115
1.29759
1.18192
1.06429
0.944748
0.82345
2.53481
2.44631
2.36629
2.28467
2.19312
2.09306
1.98851
1.88205
1.77415
1.66435
1.55234
1.43817
1.32215
1.20456
1.08559
0.965403
0.844167
0.722148
2.47003
2.40707
2.33921
2.2564
2.15907
2.05393
1.94579
1.83629
1.72524
1.61211
1.4968
1.37965
1.26106
1.14136
1.02077
0.89944
0.777443
0.654877
2.52901
2.44678
2.3616
2.26592
2.15844
2.0455
1.93179
1.81806
1.70315
1.58624
1.46744
1.34733
1.22637
1.10484
0.982835
0.860497
0.738008
0.615714
2.57373
2.46856
2.36542
2.25856
2.14482
2.02837
1.91234
1.79641
1.67924
1.56019
1.43962
1.31817
1.19626
1.07408
0.951683
0.82918
0.706687
0.584329
2.63379
2.52414
2.40463
2.27938
2.15366
2.0323
1.91424
1.79602
1.67562
1.5533
1.43019
1.30696
1.18376
1.06054
0.937306
0.814219
0.691508
0.569491
2.67277
2.54978
2.41303
2.27426
2.14391
2.02318
1.90576
1.78631
1.66389
1.54002
1.41612
1.29256
1.16918
1.0458
0.922484
0.799466
0.676999
0.555252
2.77757
2.62669
2.45305
2.29199
2.15547
2.03441
1.91548
1.79275
1.66711
1.54106
1.41581
1.29133
1.16716
1.0431
0.919274
0.795922
0.673246
0.551453
2.82298
2.64199
2.44553
2.27942
2.14785
2.03081
1.91169
1.7871
1.66022
1.53388
1.40872
1.28426
1.16002
1.03594
0.912175
0.788997
0.666636
0.545333
2.99579
2.72404
2.46876
2.28926
2.1605
2.04354
1.92102
1.79326
1.6647
1.53758
1.41188
1.2869
1.1622
1.03778
0.913833
0.7906
0.6682
0.546631
3.02757
2.71803
2.45243
2.28338
2.16175
2.04471
1.92025
1.79155
1.66293
1.5359
1.41012
1.28498
1.1601
1.03559
0.911598
0.788574
0.666527
0.545827
3.27888
2.76181
2.45021
2.28922
2.17118
2.05179
1.92501
1.79532
1.66636
1.53911
1.41309
1.28772
1.16265
1.03801
0.913926
0.790985
0.669165
0.549464
-1.55576
-1.69381
-1.84231
-1.92912
-1.92289
-1.86624
-1.83114
-1.88985
-2.08667
-2.4232
-2.87238
-3.39236
-3.93425
-4.45544
-4.9257
-5.32497
-5.62744
-5.83134
-5.93467
-5.93952
-5.87476
-5.76988
-5.65768
-5.54012
-5.44226
-5.37281
-5.34241
-5.38037
-5.50304
-5.71489
-5.99821
-6.35465
-6.79955
-7.32272
-7.89186
-8.48593
-9.04695
-9.54329
-9.99129
-10.4509
-10.991
-11.6194
-12.2762
-12.8997
-13.4797
-13.998
-14.4461
-14.8197
-15.1205
-15.3843
-15.6342
-15.8543
-16.0386
-16.1775
-16.2417
-16.1973
-16.06
-15.8802
-15.7199
-15.6085
-15.4943
-15.3924
-15.3164
-15.2117
-15.0684
-14.9923
-15.0455
-15.1565
-15.3648
-15.5883
-15.7871
-15.9592
-16.09
-16.2443
-16.4178
-16.5644
-16.6533
-16.6533
-16.5683
-16.4322
-16.2118
-15.9014
-15.5112
-15.0248
-14.4588
-13.8544
-13.2194
-12.552
-11.8218
-11.0407
-10.1845
-9.32272
-8.52381
-7.75237
-6.96201
-6.12913
-5.23321
-4.25954
-3.20304
-2.06935
-0.889083
0.321329
1.52242
2.70732
3.78343
4.69545
5.49787
6.24238
6.94416
7.61127
8.27301
8.85616
9.33039
9.77213
10.2282
10.7198
11.2736
11.912
12.6408
13.4539
14.3411
15.285
16.2628
17.2498
18.2209
19.1513
20.0173
20.7978
21.4741
22.0295
22.4505
22.7336
22.8878
22.9269
22.8472
22.6387
22.3081
21.8851
21.4202
20.9607
20.5381
20.1697
19.8621
19.6133
19.4142
19.253
19.1251
19.0349
18.9887
18.9905
19.0399
19.1279
19.2379
19.3498
19.4455
19.5117
19.5394
19.5259
19.4741
19.3873
19.2675
19.1242
18.9772
18.8415
18.7213
18.6166
18.5092
18.391
18.2689
18.1478
18.0385
17.9581
17.9077
17.8678
17.7885
17.6818
17.6054
17.6132
17.7651
18.0918
-2.26234
-2.41867
-2.60777
-2.75451
-2.78767
-2.78145
-2.81375
-2.94483
-3.20014
-3.56824
-4.01772
-4.50545
-4.99796
-5.45992
-5.86261
-6.18181
-6.42321
-6.61079
-6.71641
-6.72997
-6.68438
-6.6028
-6.4996
-6.40478
-6.33254
-6.28581
-6.27887
-6.32879
-6.47229
-6.70052
-7.00625
-7.41257
-7.93297
-8.57493
-9.24857
-9.89328
-10.5079
-11.0764
-11.5613
-12.0428
-12.5793
-13.1806
-13.8014
-14.3852
-14.9164
-15.4132
-15.8474
-16.2096
-16.5101
-16.7661
-17.0214
-17.2503
-17.4417
-17.5763
-17.5929
-17.5035
-17.3411
-17.1062
-16.8677
-16.6831
-16.5105
-16.3491
-16.2507
-16.2117
-16.1414
-16.0821
-16.1443
-16.265
-16.4511
-16.6997
-16.9192
-17.1185
-17.2593
-17.3938
-17.515
-17.5919
-17.6078
-17.535
-17.378
-17.1722
-16.8969
-16.5537
-16.1726
-15.6981
-15.1287
-14.5072
-13.8421
-13.1332
-12.3734
-11.5976
-10.7676
-9.91964
-9.11354
-8.31556
-7.49649
-6.63319
-5.70803
-4.70453
-3.61683
-2.45246
-1.24827
-0.0250962
1.14024
2.24932
3.25961
4.14394
4.95977
5.73934
6.50297
7.1906
7.83381
8.39604
8.87007
9.32784
9.79898
10.3094
10.8853
11.5486
12.3025
13.141
14.053
15.021
16.0221
17.0321
18.0255
18.976
19.859
20.653
21.3398
21.9026
22.327
22.607
22.7499
22.7688
22.6646
22.4359
22.0959
21.6731
21.2149
20.7637
20.3479
19.9841
19.6783
19.4284
19.2265
19.0632
18.9358
18.849
18.8087
18.8179
18.8751
18.9707
19.0868
19.2021
19.2982
19.3618
19.384
19.3623
19.2995
19.2
19.0686
18.9197
18.7751
18.6461
18.5368
18.4446
18.3437
18.2283
18.111
17.9942
17.8878
17.8094
17.7585
17.7116
17.6246
17.5139
17.4444
17.4442
17.571
17.7234
-2.27712
-2.39383
-2.67163
-3.00265
-3.33848
-3.66877
-4.01819
-4.40581
-4.84071
-5.31134
-5.79578
-6.26929
-6.70671
-7.0921
-7.43535
-7.70698
-7.89402
-8.01462
-8.07299
-8.07248
-8.02
-7.94548
-7.86026
-7.7759
-7.71142
-7.66952
-7.66874
-7.72139
-7.84789
-8.06181
-8.38526
-8.83156
-9.39989
-10.0736
-10.8151
-11.5534
-12.2492
-12.9037
-13.5223
-14.1405
-14.7692
-15.4074
-16.0035
-16.5573
-17.0502
-17.477
-17.8527
-18.1696
-18.4566
-18.7057
-18.9241
-19.1068
-19.2322
-19.2923
-19.2622
-19.1551
-18.9868
-18.7503
-18.4812
-18.2432
-18.063
-17.9321
-17.8163
-17.7111
-17.6352
-17.5936
-17.6555
-17.8026
-17.9867
-18.1938
-18.4168
-18.644
-18.8277
-18.9571
-19.0166
-18.9997
-18.9189
-18.7682
-18.5501
-18.2911
-18.0076
-17.6691
-17.2677
-16.7828
-16.1981
-15.5342
-14.806
-14.0455
-13.2714
-12.477
-11.6611
-10.831
-10.0022
-9.16461
-8.30678
-7.40995
-6.45666
-5.43011
-4.32322
-3.14415
-1.92298
-0.708702
0.428576
1.45689
2.39156
3.2642
4.10891
4.93793
5.74087
6.45826
7.0848
7.62733
8.1195
8.60019
9.09282
9.62894
10.2365
10.9338
11.7219
12.5941
13.5381
14.5377
15.5724
16.6183
17.6474
18.6308
19.5424
20.3606
21.0675
21.6466
22.0807
22.3584
22.4808
22.4584
22.3035
22.035
21.6775
21.2595
20.8172
20.3831
19.9818
19.6273
19.3249
19.0727
18.8645
18.6955
18.5671
18.4852
18.4554
18.4796
18.5541
18.6664
18.7965
18.9222
19.0247
19.0906
19.1115
19.0848
19.0136
18.9043
18.7669
18.6194
18.4815
18.3619
18.2602
18.1715
18.0796
17.9745
17.8567
17.7351
17.6285
17.5485
17.4897
17.4265
17.3337
17.2324
17.174
17.1676
17.2652
17.3381
-2.53668
-2.67215
-3.03085
-3.52078
-4.0918
-4.69984
-5.30975
-5.9085
-6.4883
-7.03959
-7.55318
-8.0241
-8.45489
-8.82556
-9.13099
-9.36851
-9.53441
-9.63549
-9.67432
-9.6674
-9.62693
-9.56908
-9.51007
-9.45705
-9.41742
-9.39663
-9.40298
-9.4459
-9.542
-9.71124
-9.97911
-10.3716
-10.9094
-11.5645
-12.2987
-13.0752
-13.8575
-14.6278
-15.3971
-16.17
-16.9367
-17.6844
-18.3574
-18.9295
-19.4031
-19.7904
-20.1118
-20.3771
-20.5988
-20.7874
-20.9392
-21.05
-21.1147
-21.131
-21.0896
-20.9814
-20.8042
-20.5691
-20.3196
-20.0958
-19.9199
-19.7709
-19.6343
-19.5181
-19.4312
-19.3987
-19.4743
-19.605
-19.7615
-19.925
-20.1069
-20.3026
-20.4659
-20.5666
-20.585
-20.5168
-20.3842
-20.1998
-19.9619
-19.6821
-19.3728
-19.0299
-18.606
-18.0799
-17.4537
-16.7485
-15.9877
-15.2037
-14.4056
-13.5918
-12.7588
-11.9133
-11.061
-10.199
-9.31986
-8.4068
-7.44103
-6.4053
-5.29098
-4.10376
-2.87641
-1.67086
-0.557137
0.433405
1.34521
2.22389
3.09783
3.96409
4.78182
5.50171
6.1206
6.66775
7.17625
7.67134
8.18099
8.74022
9.37809
10.11
10.9357
11.8463
12.8284
13.8659
14.9401
16.0273
17.0987
18.1231
19.0712
19.9203
20.6534
21.2547
21.7048
21.9846
22.0852
22.0153
21.802
21.486
21.1045
20.6853
20.255
19.8367
19.4492
19.1035
18.8038
18.5477
18.3316
18.1564
18.0285
17.9551
17.9409
17.9863
18.0849
18.2215
18.3734
18.5165
18.6315
18.7053
18.73
18.7025
18.626
18.5093
18.3688
18.2272
18.1023
17.9997
17.9148
17.8385
17.7549
17.6501
17.5272
17.4038
17.2945
17.203
17.1241
17.0363
16.9353
16.8386
16.7813
16.761
16.8239
16.8512
-2.85792
-3.09976
-3.61102
-4.28339
-5.02849
-5.79412
-6.54549
-7.26491
-7.94094
-8.57027
-9.15658
-9.69355
-10.1729
-10.5837
-10.9174
-11.1726
-11.3532
-11.4678
-11.525
-11.5371
-11.5178
-11.4849
-11.453
-11.4313
-11.4273
-11.4437
-11.4814
-11.5451
-11.6424
-11.7938
-12.028
-12.3635
-12.8247
-13.4109
-14.0938
-14.8467
-15.6429
-16.4694
-17.3265
-18.2064
-19.0774
-19.9078
-20.6486
-21.2737
-21.7742
-22.1589
-22.448
-22.6574
-22.8069
-22.9144
-22.9917
-23.0402
-23.0577
-23.0403
-22.9782
-22.8512
-22.6582
-22.4301
-22.2036
-22.0069
-21.8404
-21.695
-21.5597
-21.4412
-21.3603
-21.354
-21.4141
-21.5066
-21.6062
-21.7145
-21.8486
-21.9945
-22.1098
-22.1701
-22.156
-22.0653
-21.9168
-21.7238
-21.4826
-21.2112
-20.9028
-20.5358
-20.082
-19.5202
-18.8593
-18.1236
-17.3443
-16.542
-15.721
-14.8771
-14.0134
-13.1408
-12.2662
-11.3891
-10.5024
-9.58899
-8.62852
-7.60095
-6.49343
-5.31159
-4.08991
-2.89508
-1.796
-0.815183
0.102493
1.00624
1.91487
2.80706
3.62742
4.3465
4.97215
5.53549
6.05879
6.56568
7.09013
7.67048
8.33803
9.10597
9.97161
10.9239
11.9479
13.0276
14.1446
15.2763
16.394
17.4644
18.4543
19.3389
20.102
20.7289
21.1986
21.4846
21.5657
21.4481
21.1737
20.8048
20.3921
19.9636
19.5372
19.1275
18.7488
18.4097
18.1128
17.8544
17.6329
17.4557
17.3335
17.2734
17.2789
17.3492
17.4759
17.641
17.8195
17.9851
18.1177
18.2044
18.2375
18.214
18.1366
18.0166
17.8773
17.7453
17.6355
17.5494
17.48
17.4167
17.3445
17.2494
17.1352
17.0187
16.9096
16.8065
16.7006
16.5817
16.4648
16.3635
16.298
16.2601
16.2845
16.2738
-3.32376
-3.71049
-4.39244
-5.18022
-6.02002
-6.87387
-7.71697
-8.53271
-9.31234
-10.0493
-10.7373
-11.3685
-11.9324
-12.4175
-12.8153
-13.1246
-13.3527
-13.5121
-13.6128
-13.6657
-13.6837
-13.6851
-13.687
-13.7025
-13.7399
-13.8002
-13.8817
-13.9848
-14.117
-14.293
-14.5371
-14.8683
-15.3079
-15.8624
-16.5104
-17.2346
-18.0208
-18.8641
-19.7533
-20.6784
-21.5961
-22.4614
-23.2223
-23.8531
-24.3477
-24.7147
-24.968
-25.1238
-25.2016
-25.2208
-25.2008
-25.1521
-25.078
-24.9844
-24.8588
-24.6864
-24.4808
-24.2751
-24.0866
-23.921
-23.7712
-23.6275
-23.4881
-23.3665
-23.2921
-23.2825
-23.3197
-23.3776
-23.4332
-23.489
-23.5552
-23.6343
-23.6951
-23.7158
-23.6841
-23.5972
-23.4614
-23.283
-23.0655
-22.8026
-22.4907
-22.1039
-21.6162
-21.0266
-20.3447
-19.5947
-18.8026
-17.9844
-17.1406
-16.2706
-15.3819
-14.486
-13.5929
-12.7061
-11.8198
-10.9169
-9.97521
-8.97124
-7.88727
-6.72774
-5.52935
-4.35527
-3.26214
-2.26802
-1.32301
-0.382685
0.560295
1.47233
2.29955
3.03133
3.68028
4.26821
4.80933
5.32926
5.86844
6.47
7.16614
7.96788
8.87072
9.86213
10.9272
12.048
13.2062
14.3809
15.5445
16.6617
17.696
18.6193
19.4145
20.0679
20.5579
20.8506
20.913
20.7488
20.4139
19.9926
19.5455
19.1004
18.6702
18.264
17.8913
17.5587
17.2659
17.0081
16.7859
16.6124
16.5005
16.4564
16.4825
16.5779
16.7337
16.93
17.1384
17.3302
17.4842
17.5875
17.6332
17.6182
17.5453
17.4277
17.2954
17.1772
17.0833
17.0125
16.9581
16.9088
16.8504
16.7717
16.677
16.5789
16.4805
16.3723
16.2436
16.0969
15.9632
15.8516
15.7699
15.7099
15.6986
15.6604
-4.19207
-4.61613
-5.29061
-6.05809
-6.89466
-7.77636
-8.67935
-9.58089
-10.464
-11.3144
-12.1177
-12.8604
-13.5291
-14.1123
-14.6026
-15.0004
-15.3148
-15.5558
-15.7328
-15.8556
-15.9359
-15.9931
-16.0502
-16.1249
-16.226
-16.3534
-16.5048
-16.6778
-16.8777
-17.1146
-17.4061
-17.7723
-18.2322
-18.7895
-19.4336
-20.1542
-20.946
-21.8044
-22.7158
-23.6521
-24.5659
-25.4129
-26.1517
-26.7574
-27.2236
-27.5559
-27.7646
-27.862
-27.8598
-27.7711
-27.6195
-27.4263
-27.2079
-26.9831
-26.7606
-26.5345
-26.3171
-26.1278
-25.9649
-25.815
-25.6671
-25.5134
-25.3589
-25.2294
-25.1499
-25.1061
-25.097
-25.1126
-25.1315
-25.1442
-25.1645
-25.196
-25.2188
-25.2131
-25.1718
-25.0908
-24.9722
-24.815
-24.6169
-24.3696
-24.0565
-23.6534
-23.1448
-22.5384
-21.8467
-21.0905
-20.2924
-19.4649
-18.6065
-17.7205
-16.817
-15.9075
-15.004
-14.1134
-13.2327
-12.3467
-11.4324
-10.4616
-9.41228
-8.28873
-7.12528
-5.97311
-4.87793
-3.85836
-2.8788
-1.90316
-0.93256
-0.00443031
0.839279
1.59963
2.28634
2.90827
3.47327
4.01042
4.56697
5.19158
5.91554
6.74781
7.68287
8.70952
9.81122
10.9679
12.1618
13.374
14.5782
15.7381
16.8139
17.7743
18.6001
19.278
19.785
20.0812
20.1237
19.9145
19.526
19.0592
18.58
18.1167
17.6793
17.2735
16.9065
16.5813
16.2948
16.0406
15.8211
15.6544
15.5549
15.5273
15.5737
15.6946
15.8806
16.1095
16.3495
16.5689
16.7453
16.8664
16.9265
16.9236
16.8601
16.751
16.6319
16.5306
16.4536
16.3981
16.3587
16.3243
16.2818
16.2231
16.152
16.0768
15.9955
15.8927
15.7556
15.5952
15.4522
15.3318
15.2335
15.1503
15.104
15.0383
-5.11374
-5.48109
-6.02744
-6.71337
-7.51692
-8.40487
-9.34627
-10.313
-11.2834
-12.2379
-13.1564
-14.0208
-14.8157
-15.5284
-16.1495
-16.6755
-17.1123
-17.4687
-17.7526
-17.9715
-18.1387
-18.2775
-18.4145
-18.5678
-18.7456
-18.9489
-19.1756
-19.4242
-19.6981
-20.0058
-20.3617
-20.7847
-21.291
-21.8862
-22.5659
-23.3284
-24.1671
-25.0663
-26.0082
-26.9574
-27.8681
-28.6974
-29.4066
-29.9734
-30.3919
-30.6669
-30.8082
-30.8254
-30.7247
-30.5127
-30.2131
-29.8592
-29.4826
-29.118
-28.7861
-28.4932
-28.2414
-28.0323
-27.8539
-27.6892
-27.523
-27.3495
-27.1795
-27.0262
-26.9059
-26.8186
-26.7654
-26.7357
-26.7134
-26.6916
-26.6651
-26.6348
-26.6187
-26.5963
-26.5544
-26.4865
-26.387
-26.2532
-26.0784
-25.8488
-25.546
-25.1442
-24.6325
-24.0236
-23.3321
-22.5759
-21.7726
-20.9364
-20.0724
-19.1836
-18.2774
-17.3654
-16.4603
-15.5711
-14.6986
-13.8311
-12.9457
-12.0105
-11.0008
-9.91906
-8.79179
-7.65763
-6.55455
-5.50414
-4.48935
-3.48452
-2.49404
-1.55221
-0.684936
0.113538
0.845342
1.50758
2.10258
2.66245
3.24012
3.88962
4.64042
5.49923
6.46218
7.51932
8.65102
9.83533
11.056
12.2966
13.5319
14.7248
15.8333
16.8229
17.6734
18.3699
18.8865
19.1794
19.2003
18.9521
18.5231
18.0236
17.5204
17.0413
16.5961
16.1914
15.8321
15.5162
15.2379
14.9887
14.7728
14.6137
14.5278
14.5174
14.5852
14.7318
14.9469
15.2068
15.477
15.7229
15.9207
16.0591
16.1347
16.1459
16.0956
16.0005
15.899
15.817
15.7574
15.7178
15.6943
15.6765
15.6525
15.6156
15.568
15.515
15.4518
15.3619
15.2309
15.0731
14.9333
14.8125
14.7031
14.6014
14.5266
14.4353
-5.7116
-6.00769
-6.47777
-7.11103
-7.88688
-8.77173
-9.73523
-10.7491
-11.7891
-12.8301
-13.8494
-14.8287
-15.7525
-16.607
-17.3794
-18.0609
-18.6502
-19.1518
-19.5721
-19.9192
-20.208
-20.462
-20.7044
-20.9506
-21.2085
-21.4841
-21.7803
-22.0977
-22.44
-22.8153
-23.2413
-23.7388
-24.3218
-24.9937
-25.7487
-26.5829
-27.4931
-28.4642
-29.4635
-30.4474
-31.3747
-32.2025
-32.8902
-33.4157
-33.7732
-33.9681
-34.0114
-33.9154
-33.683
-33.3218
-32.8621
-32.3495
-31.8284
-31.3385
-30.903
-30.5303
-30.2193
-29.96
-29.735
-29.5304
-29.3304
-29.1206
-28.9133
-28.7313
-28.5731
-28.4374
-28.3337
-28.2532
-28.1801
-28.105
-28.0297
-27.9663
-27.917
-27.8685
-27.8158
-27.7538
-27.674
-27.5668
-27.4212
-27.2198
-26.9429
-26.5629
-26.0693
-25.474
-24.79
-24.0337
-23.225
-22.3816
-21.5127
-20.6241
-19.721
-18.8129
-17.911
-17.0246
-16.1585
-15.3051
-14.4444
-13.5432
-12.5737
-11.5335
-10.4398
-9.31865
-8.20261
-7.11989
-6.07214
-5.04461
-4.04141
-3.08904
-2.19742
-1.36021
-0.583991
0.119594
0.748178
1.33504
1.93648
2.61072
3.38636
4.26802
5.25437
6.3364
7.49076
8.69371
9.93054
11.188
12.4421
13.6549
14.7833
15.7915
16.6574
17.3631
17.8799
18.1619
18.1616
17.8848
17.4312
16.9135
16.3962
15.9069
15.4581
15.0586
14.7097
14.4047
14.1352
13.8915
13.6794
13.5279
13.4562
13.4645
13.5541
13.7257
13.9679
14.2558
14.5531
14.8225
15.0392
15.1932
15.2834
15.3093
15.2746
15.197
15.1152
15.0529
15.0114
14.989
14.9831
14.9839
14.9804
14.9653
14.9392
14.9053
14.8587
14.7842
14.6673
14.5227
14.3964
14.2871
14.1807
14.0726
13.9794
13.8681
-5.96761
-6.21952
-6.64293
-7.24133
-7.99963
-8.88717
-9.87217
-10.9249
-12.0189
-13.1295
-14.235
-15.3196
-16.3677
-17.3642
-18.2949
-19.1469
-19.9134
-20.5938
-21.1907
-21.7084
-22.1577
-22.5564
-22.9241
-23.2766
-23.6214
-23.9655
-24.3196
-24.6943
-25.0976
-25.539
-26.0361
-26.6097
-27.2765
-28.0382
-28.8864
-29.8148
-30.8146
-31.8658
-32.9309
-33.9607
-34.9094
-35.7338
-36.3972
-36.8768
-37.1637
-37.2634
-37.1886
-36.9556
-36.5734
-36.0522
-35.4301
-34.7651
-34.1082
-33.5018
-32.9731
-32.5276
-32.1562
-31.8409
-31.5634
-31.304
-31.0485
-30.7926
-30.5461
-30.3245
-30.1228
-29.9402
-29.7901
-29.6645
-29.5477
-29.4294
-29.3123
-29.207
-29.1169
-29.0419
-28.9786
-28.9197
-28.8545
-28.7718
-28.6581
-28.4942
-28.2553
-27.9097
-27.4479
-26.8798
-26.2144
-25.4626
-24.6453
-23.7911
-22.9144
-22.0231
-21.1212
-20.2152
-19.3123
-18.4218
-17.5535
-16.7054
-15.8629
-14.9927
-14.0626
-13.0608
-11.9946
-10.8805
-9.74772
-8.63256
-7.55465
-6.50878
-5.49676
-4.5366
-3.6243
-2.7546
-1.94119
-1.20155
-0.540164
0.0750233
0.700999
1.39803
2.19529
3.09611
4.10001
5.19958
6.36854
7.58072
8.8228
10.0845
11.3437
12.562
13.6954
14.7094
15.579
16.2829
16.7896
17.0545
17.0358
16.7439
16.2817
15.7595
15.2387
14.7469
14.3002
13.9093
13.5719
13.278
13.017
12.7795
12.5724
12.4303
12.3745
12.403
12.5152
12.711
12.9777
13.2891
13.6078
13.8954
14.127
14.2938
14.3964
14.4365
14.4187
14.3608
14.2996
14.2577
14.2356
14.2326
14.2461
14.2666
14.2837
14.2889
14.2816
14.2643
14.2331
14.1743
14.0752
13.9484
13.8403
13.7503
13.6596
13.56
13.4635
13.342
-5.91643
-6.13915
-6.5417
-7.12704
-7.88065
-8.77466
-9.78016
-10.8682
-12.0122
-13.1883
-14.3759
-15.5595
-16.7241
-17.8555
-18.9399
-19.9635
-20.916
-21.7916
-22.5867
-23.2988
-23.9305
-24.4925
-24.998
-25.461
-25.8931
-26.3061
-26.7149
-27.1371
-27.5897
-28.0876
-28.6472
-29.2873
-30.0266
-30.868
-31.7995
-32.8087
-33.8815
-34.9942
-36.1071
-37.1679
-38.1274
-38.9399
-39.5742
-40.006
-40.2251
-40.236
-40.0536
-39.6978
-39.1837
-38.5267
-37.7711
-36.9853
-36.2214
-35.5234
-34.9193
-34.4084
-33.9771
-33.6045
-33.2718
-32.9596
-32.6507
-32.3425
-32.0492
-31.785
-31.5407
-31.316
-31.1259
-30.9646
-30.815
-30.6648
-30.516
-30.3793
-30.2613
-30.1644
-30.0859
-30.0202
-29.9593
-29.8927
-29.8064
-29.6797
-29.4836
-29.1828
-28.7636
-28.2319
-27.5934
-26.8533
-26.029
-25.158
-24.2646
-23.3611
-22.4504
-21.5352
-20.6198
-19.7151
-18.8369
-17.9886
-17.1563
-16.307
-15.4063
-14.4338
-13.3869
-12.2747
-11.1244
-9.97895
-8.87363
-7.81183
-6.79386
-5.82996
-4.90604
-4.01686
-3.18073
-2.41651
-1.72721
-1.0842
-0.433288
0.285605
1.10164
2.01754
3.03249
4.13998
5.314
6.52592
7.76272
9.01652
10.2669
11.4755
12.5991
13.6045
14.4656
15.1565
15.6444
15.8894
15.8584
15.5656
15.1095
14.5938
14.0779
13.5911
13.1512
12.7697
12.4431
12.1593
11.9074
11.6783
11.4807
11.3516
11.3143
11.3649
11.5003
11.7188
12.006
12.3346
12.6672
12.9657
13.2064
13.3819
13.4947
13.5485
13.5487
13.5123
13.4734
13.4536
13.4532
13.471
13.5045
13.544
13.5796
13.6024
13.6115
13.6092
13.5922
13.5495
13.4693
13.3616
13.2721
13.2037
13.1365
13.057
12.9725
12.8541
-5.62249
-5.83516
-6.23511
-6.82276
-7.58646
-8.50316
-9.54549
-10.6824
-11.8856
-13.1294
-14.3939
-15.6631
-16.9236
-18.163
-19.3701
-20.5324
-21.6391
-22.6821
-23.6531
-24.5443
-25.3534
-26.0806
-26.7323
-27.3168
-27.8453
-28.3339
-28.8042
-29.2784
-29.7767
-30.318
-30.9224
-31.6051
-32.3834
-33.265
-34.235
-35.2766
-36.3724
-37.4969
-38.6138
-39.6757
-40.6291
-41.4285
-42.0405
-42.4418
-42.6189
-42.5753
-42.326
-41.8927
-41.2973
-40.5628
-39.7395
-38.8973
-38.0839
-37.3388
-36.6893
-36.1297
-35.6474
-35.222
-34.8332
-34.4618
-34.0931
-33.7304
-33.3905
-33.0849
-32.8025
-32.5433
-32.3227
-32.1353
-31.9623
-31.7892
-31.6166
-31.4553
-31.3126
-31.195
-31.1049
-31.0409
-30.9952
-30.9524
-30.8933
-30.7958
-30.6322
-30.3712
-29.994
-29.5003
-28.8918
-28.1631
-27.3305
-26.4417
-25.5323
-24.6138
-23.6857
-22.7471
-21.8036
-20.8711
-19.9734
-19.1177
-18.287
-17.4451
-16.5558
-15.5975
-14.5591
-13.4431
-12.277
-11.1084
-9.98136
-8.90798
-7.88873
-6.92759
-6.00573
-5.1155
-4.27422
-3.4995
-2.79004
-2.12044
-1.44333
-0.702631
0.130139
1.05715
2.07664
3.18225
4.3505
5.55305
6.7755
8.01076
9.23932
10.4238
11.5231
12.5062
13.3466
14.0145
14.4772
14.703
14.6676
14.3857
13.9453
13.4426
12.9382
12.4634
12.0336
11.6612
11.3438
11.0692
10.828
10.6119
10.4303
10.3199
10.304
10.3779
10.5353
10.7726
11.0737
11.411
11.7487
12.0499
12.2933
12.4736
12.5952
12.6633
12.6837
12.6715
12.6571
12.661
12.6836
12.7222
12.774
12.8297
12.8803
12.9174
12.9402
12.951
12.9479
12.9217
12.8616
12.7739
12.7027
12.6551
12.6129
12.5592
12.4969
12.3949
-5.15338
-5.36829
-5.78185
-6.39394
-7.19382
-8.15816
-9.25664
-10.4545
-11.7188
-13.0218
-14.3437
-15.6691
-16.9864
-18.286
-19.56
-20.8011
-22.0026
-23.1581
-24.2573
-25.2878
-26.2428
-27.115
-27.9015
-28.6044
-29.2298
-29.7963
-30.3292
-30.8531
-31.3914
-31.9658
-32.5969
-33.2942
-34.0731
-34.9446
-35.8979
-36.9153
-37.9786
-39.0635
-40.1397
-41.1661
-42.0978
-42.8858
-43.4914
-43.8908
-44.0667
-44.0202
-43.7658
-43.3272
-42.7288
-41.9985
-41.1902
-40.3666
-39.5686
-38.831
-38.1786
-37.6024
-37.0927
-36.6288
-36.1902
-35.7612
-35.3352
-34.9218
-34.5403
-34.2007
-33.8895
-33.6054
-33.3611
-33.1512
-32.9587
-32.7679
-32.578
-32.3977
-32.235
-32.101
-32.0032
-31.9455
-31.9212
-31.9113
-31.8885
-31.8239
-31.6884
-31.4579
-31.1126
-30.6477
-30.0611
-29.341
-28.5066
-27.6095
-26.6916
-25.7609
-24.8109
-23.836
-22.8476
-21.8715
-20.9403
-20.0641
-19.2227
-18.3723
-17.4759
-16.5133
-15.4716
-14.3504
-13.1758
-11.9954
-10.8558
-9.77675
-8.7616
-7.81075
-6.9053
-6.03177
-5.20197
-4.42925
-3.70692
-3.01196
-2.30671
-1.5439
-0.69592
0.2386
1.25621
2.35047
3.5023
4.68607
5.88611
7.09333
8.28819
9.43532
10.4975
11.4462
12.2543
12.8901
13.3231
13.5304
13.4964
13.2332
12.8141
12.3294
11.8421
11.3829
10.9659
10.6022
10.2935
10.0289
9.80123
9.60398
9.44615
9.35977
9.36618
9.4614
9.63691
9.8863
10.1929
10.5297
10.8631
11.1597
11.401
11.5842
11.715
11.7995
11.8428
11.8571
11.8681
11.8954
11.9395
11.9966
12.0634
12.1315
12.1933
12.2413
12.2751
12.2974
12.3079
12.2994
12.2613
12.1956
12.1431
12.1147
12.0956
12.0674
12.0314
11.9545
-4.57184
-4.80017
-5.24304
-5.89892
-6.75529
-7.78254
-8.94249
-10.1952
-11.5051
-12.8433
-14.1891
-15.5285
-16.8535
-18.1607
-19.4475
-20.7105
-21.9452
-23.1451
-24.2989
-25.3943
-26.4246
-27.3838
-28.2645
-29.0622
-29.7776
-30.4251
-31.0257
-31.601
-32.1721
-32.7623
-33.3938
-34.0747
-34.8191
-35.6422
-36.54
-37.4966
-38.4936
-39.5082
-40.5143
-41.4807
-42.374
-43.1502
-43.7665
-44.1924
-44.4083
-44.4133
-44.2204
-43.8503
-43.3271
-42.6822
-41.9685
-41.2383
-40.5215
-39.8492
-39.2398
-38.6874
-38.1837
-37.7095
-37.2456
-36.7806
-36.3164
-35.8685
-35.4575
-35.0935
-34.7611
-34.4561
-34.1909
-33.9603
-33.75
-33.5496
-33.3544
-33.1679
-32.9979
-32.8573
-32.7577
-32.7089
-32.7064
-32.7288
-32.7448
-32.7172
-32.6113
-32.4053
-32.0806
-31.6269
-31.049
-30.3399
-29.5156
-28.627
-27.7098
-26.771
-25.7981
-24.7822
-23.7404
-22.7099
-21.7295
-20.815
-19.9432
-19.0665
-18.1463
-17.1662
-16.1154
-14.9918
-13.8183
-12.6373
-11.4936
-10.4144
-9.40712
-8.47291
-7.59417
-6.74991
-5.94306
-5.181
-4.45275
-3.73465
-3.00079
-2.21561
-1.35481
-0.416813
0.593119
1.66784
2.79338
3.94867
5.11726
6.28688
7.43712
8.53564
9.54977
10.4528
11.2172
11.8121
12.2111
12.4
12.3706
12.1306
11.7375
11.2745
10.8068
10.3654
9.96312
9.60928
9.30967
9.05753
8.84767
8.67588
8.54801
8.48819
8.51534
8.62666
8.81296
9.06607
9.36938
9.69725
10.019
10.3061
10.5438
10.731
10.8734
10.9765
11.044
11.0844
11.1188
11.166
11.2273
11.2986
11.376
11.4528
11.5227
11.5796
11.6235
11.6575
11.682
11.6921
11.6776
11.6358
11.6021
11.5912
11.5921
11.5864
11.5755
11.5261
-3.88944
-4.13652
-4.62018
-5.33099
-6.25089
-7.33989
-8.55412
-9.84883
-11.186
-12.5378
-13.8864
-15.2209
-16.5351
-17.8248
-19.0841
-20.3094
-21.499
-22.6512
-23.7618
-24.8265
-25.8441
-26.8115
-27.7233
-28.5707
-29.349
-30.0607
-30.7166
-31.3303
-31.9193
-32.5087
-33.1241
-33.7755
-34.4742
-35.237
-36.0669
-36.9527
-37.8792
-38.8245
-39.7647
-40.6757
-41.5306
-42.2906
-42.9155
-43.3767
-43.6573
-43.7547
-43.6767
-43.4369
-43.0543
-42.5606
-42.0045
-41.427
-40.8465
-40.2876
-39.7646
-39.273
-38.8076
-38.3538
-37.8946
-37.4248
-36.9537
-36.4987
-36.0793
-35.7043
-35.3601
-35.0419
-34.7616
-34.5187
-34.3006
-34.1027
-33.9172
-33.7418
-33.5812
-33.4481
-33.3547
-33.3143
-33.3256
-33.3682
-33.41
-33.4121
-33.3333
-33.1467
-32.834
-32.3861
-31.8127
-31.122
-30.3264
-29.4608
-28.5533
-27.6095
-26.6162
-25.5627
-24.4697
-23.3812
-22.3416
-21.3707
-20.4468
-19.5257
-18.5719
-17.5701
-16.5083
-15.384
-14.2164
-13.0416
-11.9016
-10.8279
-9.83164
-8.91768
-8.07017
-7.26162
-6.48346
-5.73469
-5.00354
-4.2664
-3.50555
-2.69864
-1.82804
-0.891624
0.104713
1.15348
2.24413
3.36112
4.48836
5.6102
6.70518
7.74466
8.70046
9.54697
10.2568
10.8025
11.1643
11.3344
11.3098
11.0943
10.7301
10.2915
9.84432
9.42166
9.03507
8.69335
8.40577
8.17021
7.98372
7.84242
7.747
7.71268
7.75564
7.87504
8.06295
8.31119
8.60408
8.91744
9.22416
9.50135
9.73745
9.93149
10.0877
10.2096
10.2991
10.3617
10.4142
10.4752
10.5477
10.6281
10.7125
10.7957
10.8724
10.9381
10.9931
11.0401
11.08
11.1094
11.1191
11.1025
11.0874
11.0922
11.1096
11.1225
11.1324
11.108
-3.05673
-3.33288
-3.86596
-4.63996
-5.62894
-6.78353
-8.05437
-9.39267
-10.7594
-12.1264
-13.4747
-14.7897
-16.0608
-17.281
-18.4445
-19.5511
-20.6088
-21.6285
-22.6157
-23.5713
-24.4969
-25.392
-26.2545
-27.0781
-27.8554
-28.5828
-29.2629
-29.9027
-30.5152
-31.1185
-31.7334
-32.3679
-33.0325
-33.746
-34.5161
-35.3393
-36.2064
-37.0995
-37.9922
-38.8625
-39.6866
-40.4329
-41.0702
-41.5765
-41.9396
-42.1557
-42.2268
-42.1585
-41.9639
-41.6705
-41.3173
-40.9347
-40.531
-40.1217
-39.7214
-39.3246
-38.927
-38.5216
-38.0992
-37.66
-37.2154
-36.7817
-36.375
-36.0054
-35.6643
-35.3493
-35.0677
-34.8228
-34.6109
-34.4285
-34.267
-34.1175
-33.9805
-33.8654
-33.7833
-33.7497
-33.7648
-33.8099
-33.8564
-33.866
-33.799
-33.6255
-33.3269
-32.8902
-32.3265
-31.6588
-30.9027
-30.0733
-29.1851
-28.2429
-27.2356
-26.1543
-25.0208
-23.8806
-22.7821
-21.746
-20.7566
-19.78
-18.7865
-17.7602
-16.6863
-15.5615
-14.4019
-13.239
-12.1109
-11.0479
-10.0649
-9.17047
-8.35034
-7.57426
-6.8218
-6.08338
-5.34785
-4.59552
-3.81141
-2.98532
-2.10866
-1.1798
-0.203753
0.812302
1.86021
2.92907
4.00379
5.0663
6.09472
7.06442
7.95094
8.7294
9.37403
9.86341
10.1852
10.335
10.3122
10.1192
9.78585
9.37511
8.94988
8.54633
8.17698
7.8518
7.58173
7.36801
7.20803
7.09726
7.03202
7.01906
7.07117
7.19042
7.37198
7.60907
7.88728
8.18442
8.47714
8.74709
8.98469
9.18772
9.35757
9.49512
9.60103
9.67933
9.74412
9.81369
9.89319
9.97955
10.0695
10.1584
10.2424
10.3179
10.3853
10.4469
10.5036
10.5531
10.5873
10.5964
10.6006
10.62
10.6514
10.6798
10.7062
10.7023
-2.11211
-2.43243
-3.03501
-3.88969
-4.96334
-6.20042
-7.54118
-8.92611
-10.3072
-11.6502
-12.9351
-14.1504
-15.29
-16.3578
-17.3608
-18.299
-19.1839
-20.0314
-20.854
-21.6556
-22.4391
-23.2076
-23.9646
-24.7086
-25.4367
-26.1453
-26.8313
-27.4959
-28.1448
-28.7869
-29.4288