/*--------------------------------*- C++ -*----------------------------------*\
| =========                 |                                                 |
| \\      /  F ield         | OpenFOAM: The Open Source CFD Toolbox           |
|  \\    /   O peration     | Version:  2112                                  |
|   \\  /    A nd           | Website:  www.openfoam.com                      |
|    \\/     M anipulation  |                                                 |
\*---------------------------------------------------------------------------*/
FoamFile
{
    version     2.0;
    format      ascii;
    arch        "LSB;label=32;scalar=64";
    class       surfaceScalarField;
    location    "0.17";
    object      ddtCorrDdt0(phi);
}
// * * * * * * * * * * * * * * * * * * * * * * * * * * * * * * * * * * * * * //

dimensions      [0 3 -2 0 0 0 0];

oriented        oriented;

internalField   nonuniform List<scalar> 
24170
(
-3.43402e-07
3.43427e-07
-1.05334e-06
7.0999e-07
-2.0003e-06
9.47013e-07
-3.01462e-06
1.01437e-06
-3.90402e-06
8.89449e-07
-4.49484e-06
5.90871e-07
-4.66147e-06
1.6668e-07
-4.2849e-06
-3.76516e-07
-3.71536e-06
-5.69493e-07
-3.29176e-06
-4.23548e-07
-3.50395e-06
2.12236e-07
-5.4022e-06
1.89831e-06
-9.82263e-06
4.42048e-06
-1.80877e-05
8.26511e-06
-3.18013e-05
1.37137e-05
-5.46582e-05
2.28569e-05
-9.59789e-05
4.13207e-05
8.61564e-05
-0.000182135
-1.23886e-08
3.55845e-07
-2.92975e-07
9.90628e-07
-8.85686e-07
1.53978e-06
-1.82216e-06
1.95089e-06
-3.09666e-06
2.164e-06
-4.68039e-06
2.17465e-06
-6.54509e-06
2.03143e-06
-8.54633e-06
1.62478e-06
-1.09518e-05
1.83598e-06
-1.38739e-05
2.49863e-06
-1.72876e-05
3.62597e-06
-2.15813e-05
6.19209e-06
-2.72389e-05
1.00781e-05
-3.48758e-05
1.59021e-05
-4.55977e-05
2.44357e-05
-6.10271e-05
3.82864e-05
-8.30044e-05
6.32981e-05
0.000110811
-0.000107659
-1.43328e-07
4.99205e-07
-5.17521e-07
1.36487e-06
-1.08737e-06
2.10968e-06
-1.873e-06
2.73658e-06
-2.93686e-06
3.22792e-06
-4.37347e-06
3.61131e-06
-6.32886e-06
3.98687e-06
-8.67663e-06
3.9726e-06
-1.18181e-05
4.97747e-06
-1.5662e-05
6.34264e-06
-2.02855e-05
8.24953e-06
-2.58543e-05
1.17609e-05
-3.24433e-05
1.66672e-05
-4.02711e-05
2.37299e-05
-4.98209e-05
3.39856e-05
-6.12582e-05
4.97237e-05
-7.31507e-05
7.51906e-05
0.000116414
-7.87542e-05
-1.80343e-07
6.79584e-07
-6.50102e-07
1.83469e-06
-1.37639e-06
2.83603e-06
-2.33842e-06
3.69865e-06
-3.55177e-06
4.44132e-06
-5.07507e-06
5.13467e-06
-7.06138e-06
5.97323e-06
-9.21312e-06
6.1244e-06
-1.22489e-05
8.01328e-06
-1.58261e-05
9.91989e-06
-2.02162e-05
1.26397e-05
-2.53379e-05
1.68827e-05
-3.14109e-05
2.27402e-05
-3.85677e-05
3.08868e-05
-4.69328e-05
4.23507e-05
-5.61521e-05
5.89431e-05
-6.41563e-05
8.31949e-05
0.000117623
-6.53645e-05
-1.87697e-07
8.67317e-07
-6.85343e-07
2.33239e-06
-1.46683e-06
3.61758e-06
-2.51459e-06
4.74646e-06
-3.83554e-06
5.76232e-06
-5.48126e-06
6.78044e-06
-7.70677e-06
8.1988e-06
-9.72864e-06
8.14631e-06
-1.29551e-05
1.12398e-05
-1.65404e-05
1.35052e-05
-2.08894e-05
1.69887e-05
-2.59249e-05
2.19182e-05
-3.17772e-05
2.85926e-05
-3.84762e-05
3.75859e-05
-4.58859e-05
4.97604e-05
-5.33098e-05
6.63671e-05
-5.86732e-05
8.85584e-05
0.000116755
-5.78055e-05
-1.96317e-07
1.06367e-06
-7.18105e-07
2.85423e-06
-1.53853e-06
4.43807e-06
-2.6404e-06
5.84839e-06
-4.02697e-06
7.14894e-06
-5.68568e-06
8.4392e-06
-7.63127e-06
1.01444e-05
-1.0562e-05
1.10771e-05
-1.34369e-05
1.41147e-05
-1.70485e-05
1.71168e-05
-2.12971e-05
2.12374e-05
-2.61787e-05
2.67998e-05
-3.17092e-05
3.41232e-05
-3.77966e-05
4.36733e-05
-4.41124e-05
5.60763e-05
-4.98066e-05
7.20613e-05
-5.31347e-05
9.18865e-05
0.000114973
-5.13527e-05
-2.04832e-07
1.26854e-06
-7.45754e-07
3.39521e-06
-1.60067e-06
5.29304e-06
-2.74529e-06
6.99307e-06
-4.18775e-06
8.59145e-06
-5.96451e-06
1.0216e-05
-7.95679e-06
1.21368e-05
-1.07878e-05
1.39082e-05
-1.37126e-05
1.70395e-05
-1.72762e-05
2.06805e-05
-2.13921e-05
2.53534e-05
-2.60192e-05
3.1427e-05
-3.1087e-05
3.9191e-05
-3.64069e-05
4.89932e-05
-4.15521e-05
6.12215e-05
-4.56841e-05
7.61934e-05
-4.74733e-05
9.36758e-05
0.000112769
-4.52691e-05
-2.12975e-07
1.48156e-06
-7.65945e-07
3.94824e-06
-1.64869e-06
6.17583e-06
-2.82799e-06
8.17243e-06
-4.30456e-06
1.00681e-05
-6.09616e-06
1.20077e-05
-8.17274e-06
1.42134e-05
-1.08652e-05
1.66008e-05
-1.38191e-05
1.99935e-05
-1.72495e-05
2.41109e-05
-2.11288e-05
2.92327e-05
-2.53743e-05
3.56725e-05
-2.98513e-05
4.3668e-05
-3.43039e-05
5.34459e-05
-3.82715e-05
6.51892e-05
-4.10128e-05
7.89347e-05
-4.15708e-05
9.42338e-05
0.000110217
-3.90186e-05
-2.21267e-07
1.70286e-06
-7.74756e-07
4.50178e-06
-1.67565e-06
7.07678e-06
-2.87261e-06
9.36944e-06
-4.35979e-06
1.15553e-05
-6.14963e-06
1.37976e-05
-8.24003e-06
1.63038e-05
-1.07876e-05
1.91484e-05
-1.36401e-05
2.2846e-05
-1.68584e-05
2.73294e-05
-2.04081e-05
3.27824e-05
-2.41683e-05
3.94327e-05
-2.79552e-05
4.7455e-05
-3.14751e-05
5.69659e-05
-3.428e-05
6.79941e-05
-3.5755e-05
8.04097e-05
-3.52328e-05
9.37116e-05
0.000107201
-3.2217e-05
-2.28478e-07
1.93138e-06
-7.64678e-07
5.03803e-06
-1.6784e-06
7.99056e-06
-2.87071e-06
1.05618e-05
-4.3406e-06
1.30253e-05
-6.09324e-06
1.55502e-05
-8.13533e-06
1.8346e-05
-1.05359e-05
2.1549e-05
-1.31793e-05
2.54894e-05
-1.60856e-05
3.02358e-05
-1.91989e-05
3.58957e-05
-2.23668e-05
4.26006e-05
-2.53694e-05
5.04577e-05
-2.79012e-05
5.94978e-05
-2.9554e-05
6.96469e-05
-2.98367e-05
8.06925e-05
-2.82871e-05
9.2162e-05
0.000103549
-2.46349e-05
-1.97764e-07
2.12919e-06
-8.01859e-07
5.64219e-06
-1.66055e-06
8.84931e-06
-2.81668e-06
1.1718e-05
-4.23661e-06
1.44452e-05
-5.90902e-06
1.72227e-05
-7.82932e-06
2.02663e-05
-1.00273e-05
2.3747e-05
-1.24062e-05
2.78684e-05
-1.49331e-05
3.27628e-05
-1.75061e-05
3.84686e-05
-1.99737e-05
4.50683e-05
-2.21076e-05
5.25917e-05
-2.36096e-05
6.09998e-05
-2.41197e-05
7.01571e-05
-2.32498e-05
7.98227e-05
-2.06724e-05
8.95846e-05
9.90982e-05
-1.62218e-05
-1.6207e-07
2.2913e-06
-6.41847e-07
6.12202e-06
-1.34707e-06
9.55458e-06
-2.27618e-06
1.26472e-05
-3.40458e-06
1.55737e-05
-4.71592e-06
1.85341e-05
-6.19465e-06
2.17451e-05
-7.83028e-06
2.53827e-05
-9.55842e-06
2.95965e-05
-1.13265e-05
3.45309e-05
-1.3033e-05
4.01751e-05
-1.45327e-05
4.65681e-05
-1.56279e-05
5.36869e-05
-1.60815e-05
6.14534e-05
-1.56286e-05
6.97042e-05
-1.40056e-05
7.81998e-05
-1.10049e-05
8.65839e-05
9.46175e-05
-6.52406e-06
-1.79002e-07
2.47034e-06
-6.85375e-07
6.62845e-06
-1.44042e-06
1.03097e-05
-2.42257e-06
1.36294e-05
-3.59886e-06
1.675e-05
-4.94099e-06
1.98763e-05
-6.41802e-06
2.32222e-05
-7.99645e-06
2.69612e-05
-9.6082e-06
3.12083e-05
-1.11372e-05
3.606e-05
-1.24773e-05
4.15152e-05
-1.3462e-05
4.75528e-05
-1.38725e-05
5.40975e-05
-1.34572e-05
6.10382e-05
-1.19545e-05
6.82016e-05
-9.12119e-06
7.53665e-05
-4.77558e-06
8.22383e-05
8.86631e-05
1.17884e-06
-1.85904e-07
2.65629e-06
-6.89851e-07
7.13244e-06
-1.44408e-06
1.1064e-05
-2.40904e-06
1.45944e-05
-3.53838e-06
1.78794e-05
-4.78786e-06
2.11258e-05
-6.10811e-06
2.45425e-05
-7.43662e-06
2.82897e-05
-8.69149e-06
3.24633e-05
-9.72338e-06
3.70919e-05
-1.03947e-05
4.21866e-05
-1.05134e-05
4.76716e-05
-9.85358e-06
5.34377e-05
-8.17214e-06
5.93568e-05
-5.22769e-06
6.52572e-05
-8.02726e-07
7.09416e-05
5.2593e-06
7.61764e-05
8.08703e-05
1.30522e-05
-1.71896e-07
2.82823e-06
-6.20616e-07
7.58121e-06
-1.28445e-06
1.17278e-05
-2.10877e-06
1.54187e-05
-3.03252e-06
1.88032e-05
-3.99182e-06
2.20851e-05
-4.91468e-06
2.54654e-05
-5.71016e-06
2.90852e-05
-6.26145e-06
3.30146e-05
-6.42657e-06
3.72571e-05
-6.02334e-06
4.17834e-05
-4.85519e-06
4.65035e-05
-2.70479e-06
5.12873e-05
6.53482e-07
5.59985e-05
5.43938e-06
6.04713e-05
1.18323e-05
6.45487e-05
1.99482e-05
6.80605e-05
7.09539e-05
2.98646e-05
-1.24476e-07
2.95275e-06
-4.30722e-07
7.88751e-06
-8.61797e-07
1.2159e-05
-1.35323e-06
1.59102e-05
-1.83035e-06
1.92804e-05
-2.21027e-06
2.24651e-05
-2.39823e-06
2.56534e-05
-2.28116e-06
2.89682e-05
-1.72304e-06
3.24565e-05
-5.67448e-07
3.61015e-05
1.37338e-06
3.98426e-05
4.2955e-06
4.35814e-05
8.3921e-06
4.71908e-05
1.38346e-05
5.05561e-05
2.07968e-05
5.35092e-05
2.94096e-05
5.59359e-05
3.97391e-05
5.77311e-05
5.88609e-05
5.18322e-05
-2.78621e-08
2.98066e-06
-6.14328e-08
7.92114e-06
-5.48385e-08
1.21524e-05
5.67301e-08
1.57987e-05
3.53906e-07
1.89833e-05
9.30996e-07
2.18881e-05
1.89709e-06
2.46874e-05
3.378e-06
2.74874e-05
5.51626e-06
3.03183e-05
8.4667e-06
3.31511e-05
1.23937e-05
3.59157e-05
1.74621e-05
3.85131e-05
2.38154e-05
4.08376e-05
3.15796e-05
4.27919e-05
4.08488e-05
4.42401e-05
5.16856e-05
4.50992e-05
6.40962e-05
4.53206e-05
4.48939e-05
7.80633e-05
1.33213e-07
2.84751e-06
5.39307e-07
7.5151e-06
1.23888e-06
1.14529e-05
2.28101e-06
1.47567e-05
3.73537e-06
1.7529e-05
5.69066e-06
1.99328e-05
8.25278e-06
2.21253e-05
1.15408e-05
2.41994e-05
1.5681e-05
2.61783e-05
2.07991e-05
2.80331e-05
2.70133e-05
2.97015e-05
3.44246e-05
3.11019e-05
4.31154e-05
3.21468e-05
5.31507e-05
3.27567e-05
6.45249e-05
3.28659e-05
7.71977e-05
3.24264e-05
9.11095e-05
3.14088e-05
2.98267e-05
0.000106177
3.79578e-07
2.468e-06
1.41009e-06
6.48466e-06
3.06582e-06
9.79727e-06
5.35384e-06
1.24687e-05
8.30666e-06
1.45762e-05
1.19819e-05
1.62577e-05
1.6457e-05
1.76502e-05
2.1819e-05
1.88375e-05
2.8152e-05
1.98454e-05
3.55268e-05
2.06583e-05
4.39924e-05
2.12359e-05
5.35694e-05
2.1525e-05
6.4245e-05
2.14713e-05
7.59735e-05
2.10282e-05
8.86776e-05
2.01619e-05
0.000102249
1.88546e-05
0.000116554
1.71038e-05
1.49326e-05
0.000131449
3.68751e-07
2.09931e-06
1.35629e-06
5.4972e-06
2.9116e-06
8.24204e-06
5.00685e-06
1.03735e-05
7.63299e-06
1.19502e-05
1.08019e-05
1.30889e-05
1.45417e-05
1.39104e-05
1.88866e-05
1.44927e-05
2.3865e-05
1.48671e-05
2.94908e-05
1.50326e-05
3.57573e-05
1.49694e-05
4.26342e-05
1.46482e-05
5.00666e-05
1.4039e-05
5.79775e-05
1.31174e-05
6.62705e-05
1.1869e-05
7.48339e-05
1.02914e-05
8.35449e-05
8.3928e-06
6.1937e-06
9.22838e-05
3.56164e-07
1.74322e-06
1.31191e-06
4.54152e-06
2.80248e-06
6.75155e-06
4.78384e-06
8.39226e-06
7.22939e-06
9.50469e-06
1.01338e-05
1.01846e-05
1.35089e-05
1.05353e-05
1.7373e-05
1.06288e-05
2.17383e-05
1.05018e-05
2.66027e-05
1.01683e-05
3.19432e-05
9.62902e-06
3.77136e-05
8.87785e-06
4.38454e-05
7.90731e-06
5.02502e-05
6.71256e-06
5.68253e-05
5.29396e-06
6.34588e-05
3.65791e-06
7.0035e-05
1.81666e-06
-2.1266e-07
7.64415e-05
3.24178e-07
1.4191e-06
1.19067e-06
3.6751e-06
2.52992e-06
5.41238e-06
4.29037e-06
6.63189e-06
6.43778e-06
7.35736e-06
8.9601e-06
7.66237e-06
1.1864e-05
7.63152e-06
1.51639e-05
7.32891e-06
1.887e-05
6.79584e-06
2.29783e-05
6.06008e-06
2.74649e-05
5.14253e-06
3.22827e-05
4.06015e-06
3.73623e-05
2.82777e-06
4.26155e-05
1.45937e-06
4.79411e-05
-3.14861e-08
5.32306e-05
-1.63159e-06
5.83754e-05
-3.32808e-06
-5.10746e-06
6.32703e-05
2.84897e-07
1.13426e-06
1.04192e-06
2.91815e-06
2.20172e-06
4.25265e-06
3.71019e-06
5.1235e-06
5.53022e-06
5.53741e-06
7.64799e-06
5.54468e-06
1.00704e-05
5.2092e-06
1.28147e-05
4.58468e-06
1.58963e-05
3.71428e-06
1.93183e-05
2.63818e-06
2.30639e-05
1.39696e-06
2.70932e-05
3.09467e-08
3.13427e-05
-1.42166e-06
3.57287e-05
-2.92652e-06
4.01533e-05
-4.45605e-06
4.45122e-05
-5.99037e-06
4.87013e-05
-7.5171e-06
-9.02655e-06
5.26204e-05
2.45888e-07
8.8843e-07
8.93763e-07
2.27034e-06
1.87605e-06
3.27043e-06
3.13872e-06
3.8609e-06
4.6445e-06
4.0317e-06
6.38008e-06
3.80917e-06
8.35471e-06
3.23464e-06
1.05911e-05
2.3484e-06
1.31128e-05
1.19262e-06
1.59333e-05
-1.82291e-07
1.9047e-05
-1.71666e-06
2.24239e-05
-3.34588e-06
2.60084e-05
-5.0061e-06
2.97216e-05
-6.63962e-06
3.34685e-05
-8.20289e-06
3.71459e-05
-9.66771e-06
4.0652e-05
-1.10232e-05
-1.22635e-05
4.3889e-05
2.10335e-07
6.78145e-07
7.60117e-07
1.72062e-06
1.58331e-06
2.4473e-06
2.62572e-06
2.81856e-06
3.85025e-06
2.80724e-06
5.24446e-06
2.41503e-06
6.81982e-06
1.65934e-06
8.60409e-06
5.64197e-07
1.0628e-05
-8.31254e-07
1.29144e-05
-2.46856e-06
1.54683e-05
-4.27053e-06
1.82718e-05
-6.14934e-06
2.12792e-05
-8.01339e-06
2.4419e-05
-9.77939e-06
2.76064e-05
-1.13902e-05
3.07484e-05
-1.28097e-05
3.37528e-05
-1.40275e-05
-1.50346e-05
3.6524e-05
1.78094e-07
5.00096e-07
6.40304e-07
1.25847e-06
1.32704e-06
1.76063e-06
2.18314e-06
1.96253e-06
3.16971e-06
1.82073e-06
4.27206e-06
1.31275e-06
5.50095e-06
4.30518e-07
6.88924e-06
-8.2404e-07
8.48034e-06
-2.42228e-06
1.03185e-05
-4.30669e-06
1.24376e-05
-6.38953e-06
1.48559e-05
-8.56757e-06
1.75653e-05
-1.07227e-05
2.05302e-05
-1.27442e-05
2.36975e-05
-1.45575e-05
2.69997e-05
-1.61118e-05
3.03604e-05
-1.73881e-05
-1.83798e-05
3.37057e-05
1.56711e-07
3.43427e-07
5.4696e-07
8.68278e-07
1.1163e-06
1.19136e-06
1.81058e-06
1.2683e-06
2.59394e-06
1.03742e-06
3.46201e-06
4.44738e-07
4.45041e-06
-5.57826e-07
5.63071e-06
-2.00429e-06
7.1152e-06
-3.90671e-06
9.02541e-06
-6.21684e-06
1.14673e-05
-8.83138e-06
1.45059e-05
-1.16061e-05
1.81577e-05
-1.43744e-05
2.23893e-05
-1.69758e-05
2.71047e-05
-1.92727e-05
3.21651e-05
-2.11722e-05
3.74064e-05
-2.26294e-05
-2.36442e-05
4.26709e-05
1.2288e-07
2.20598e-07
4.26444e-07
5.64779e-07
8.65474e-07
7.52392e-07
1.42174e-06
7.12108e-07
2.11323e-06
3.45997e-07
3.0001e-06
-4.42073e-07
4.18385e-06
-1.74151e-06
5.77937e-06
-3.59974e-06
7.86961e-06
-5.99688e-06
1.04803e-05
-8.82749e-06
1.35584e-05
-1.19094e-05
1.69663e-05
-1.5014e-05
2.04876e-05
-1.78957e-05
2.38558e-05
-2.03439e-05
2.68089e-05
-2.22258e-05
2.91238e-05
-2.3487e-05
3.06418e-05
-2.41473e-05
-2.42651e-05
3.12628e-05
3.25556e-08
1.88101e-07
2.51677e-07
3.4573e-07
6.65369e-07
3.38775e-07
1.25764e-06
1.19914e-07
1.96491e-06
-3.61197e-07
2.66848e-06
-1.14557e-06
3.18486e-06
-2.25782e-06
3.26776e-06
-3.68257e-06
2.62075e-06
-5.3498e-06
9.28021e-07
-7.13468e-06
-2.0995e-06
-8.88178e-06
-6.67786e-06
-1.04356e-05
-1.29154e-05
-1.16581e-05
-2.07977e-05
-1.24615e-05
-3.02026e-05
-1.28208e-05
-4.09236e-05
-1.2766e-05
-5.27092e-05
-1.23616e-05
-1.16916e-05
-6.52826e-05
1.88107e-07
5.33843e-07
8.72625e-07
9.92546e-07
6.31356e-07
-5.1421e-07
-2.77202e-06
-6.45458e-06
-1.18044e-05
-1.89391e-05
-2.78208e-05
-3.82564e-05
-4.99145e-05
-6.2376e-05
-7.51968e-05
-8.79628e-05
-0.000100324
-0.000112016
-7.17876e-05
7.17877e-05
-0.000133964
6.21764e-05
-0.000179555
4.55914e-05
-0.000205761
2.62058e-05
-0.000210384
4.62344e-06
-0.000179287
-3.10969e-05
-0.000120787
-5.85003e-05
-5.87461e-05
-6.20404e-05
-5.60593e-05
-2.6867e-06
-0.000149558
9.3499e-05
-0.00034223
0.000192672
-0.000611663
0.000269432
-0.00092272
0.000311058
-0.00124222
0.000319503
-0.00154425
0.000302024
-0.00181053
0.000266284
-0.00202899
0.00021846
-0.00219196
0.000162971
-0.00229474
0.000102776
-0.00233451
3.97713e-05
-0.00230965
-2.48568e-05
-0.00221916
-9.04908e-05
-0.00206199
-0.000157168
-0.00183693
-0.000225065
-0.00154011
-0.000296815
-0.00116776
-0.000372351
-0.000719035
-0.000448727
-0.000200021
-0.000519014
0.000512843
-0.000712863
0.00121207
-0.00069923
0.00191599
-0.000703914
0.00256567
-0.000649684
0.00310405
-0.000538384
0.00347061
-0.000366558
0.0036171
-0.000146484
0.00344762
0.000169473
0.00279231
0.000655315
0.00185894
0.000933369
0.00122519
0.000633747
0.000955413
0.00026978
0.000895237
6.01762e-05
0.00117506
-0.000279827
0.00159543
-0.00042037
0.00168728
-9.18477e-05
0.00127612
0.000411158
0.000415108
0.000861016
-0.000536545
0.000951653
-0.00172385
0.00118731
-0.00288404
0.00116018
-0.00416478
0.00128075
-0.00433901
0.000174225
-0.00330239
-0.00103662
-0.00126724
-0.00203515
0.00131694
-0.00258418
0.00239296
-0.00107602
0.00183724
0.000555725
0.000538046
0.00129919
-0.00056639
0.00110444
-0.00074338
0.00017699
-5.57884e-05
-0.000687591
0.00085292
-0.000908708
0.00174225
-0.00088933
0.00267091
-0.000928658
0.00346662
-0.000795713
0.00400477
-0.000538151
0.00428076
-0.000275988
0.00432238
-4.16242e-05
0.00417837
0.000144011
0.00390171
0.000276665
0.00353139
0.00037032
0.00310606
0.00042533
0.00265585
0.000450207
0.00220116
0.000454693
0.00175803
0.000443132
0.00133384
0.000424191
0.000931199
0.000402638
0.000572685
0.000358514
0.000207104
0.000365581
-4.56071e-05
0.000252711
-0.000278691
0.000233085
-0.00048985
0.000211159
-0.000684139
0.000194289
-0.000863698
0.00017956
-0.00102984
0.00016614
-0.00118313
0.000153292
-0.00132336
0.00014023
-0.00144954
0.000126177
-0.0015599
0.000110359
-0.00165134
9.14406e-05
-0.00171984
6.84987e-05
-0.00176122
4.1385e-05
-0.00177174
1.05178e-05
-0.00174845
-2.32913e-05
-0.00169002
-5.84265e-05
-0.00159756
-9.24607e-05
-0.00147599
-0.000121566
-0.00133552
-0.000140469
-0.00118803
-0.000147487
-0.001033
-0.000155032
-0.000872076
-0.000160925
-0.000711316
-0.000160759
-0.000556765
-0.00015455
-0.000412064
-0.0001447
-0.000278979
-0.000133084
-0.000159717
-0.000119262
-5.53093e-05
-0.000104406
3.43864e-05
-8.96948e-05
0.000109736
-7.53492e-05
0.000172336
-6.25986e-05
0.000225704
-5.33677e-05
0.000263408
-3.77029e-05
0.00028452
-2.11114e-05
0.000291357
-6.83641e-06
0.000288798
2.55948e-06
0.000281421
7.3768e-06
0.000272993
8.42829e-06
0.00026591
7.08349e-06
0.000260698
5.21256e-06
0.000255762
4.93579e-06
0.000250578
5.18459e-06
0.00024432
6.2583e-06
0.00023567
8.65061e-06
0.000222628
1.30424e-05
0.000203445
1.91834e-05
0.000178157
2.52883e-05
0.000149285
2.88728e-05
0.000120744
2.85407e-05
9.57437e-05
2.50006e-05
7.53422e-05
2.04016e-05
5.86836e-05
1.66585e-05
4.38108e-05
1.48727e-05
2.88114e-05
1.49992e-05
1.25581e-05
1.6253e-05
-5.53384e-06
1.80916e-05
-2.57656e-05
2.02313e-05
-4.69011e-05
2.11351e-05
-6.83804e-05
2.14788e-05
-8.74199e-05
1.90389e-05
-0.00010464
1.72192e-05
-0.000120359
1.57188e-05
-0.000134786
1.44263e-05
-0.000147914
1.31274e-05
-0.000159266
1.13518e-05
-0.000167857
8.59085e-06
-0.00017254
4.6825e-06
-0.000172868
3.27819e-07
-0.000169916
-2.95196e-06
-0.000166773
-3.14364e-06
-0.000166526
-2.47377e-07
-0.000168994
2.46801e-06
-0.000171057
2.06275e-06
-0.000169833
-1.22405e-06
-0.0001636
-6.23261e-06
-0.00015335
-1.02508e-05
-0.000144544
-8.8058e-06
-0.000149434
4.88958e-06
-0.00018439
3.49563e-05
-0.000259802
7.54111e-05
-0.000376019
0.000116217
-0.000524132
0.000148113
-0.000687459
0.000163327
-0.000712613
2.51537e-05
-0.000436377
-0.000276236
0.000220149
-0.000656527
0.00145829
-0.00123814
0.00306
-0.00160171
0.00377699
-0.000716992
0.00341851
0.000358482
0.00244929
0.000969216
0.00133146
0.00111783
0.000293963
0.0010375
-0.000489907
0.000783869
-0.00104434
0.00055443
-0.00145266
0.000408326
-0.00171684
0.000264173
-0.00183448
0.000117639
-0.00180293
-3.15442e-05
-0.00165784
-0.000145091
-0.00143093
-0.000226906
-0.000291258
-0.00113968
-0.00013885
0.000210638
-0.000261175
0.000184502
-0.00035752
0.000141936
-0.000438149
0.000106835
-0.000502967
6.94412e-05
-0.000563997
2.9934e-05
-0.000633289
1.07921e-05
-0.000777168
8.18387e-05
-0.00101086
0.000231002
-0.00132335
0.000405991
-0.00168214
0.000551466
-0.00205124
0.000638534
-0.0024046
0.000664414
-0.00272557
0.000640472
-0.00300484
0.0005813
-0.00323768
0.00049912
-0.00342159
0.00040237
-0.00355491
0.000296288
-0.0036362
0.000184071
-0.00366432
6.78894e-05
-0.00363872
-5.04518e-05
-0.00355994
-0.000169279
-0.0034301
-0.000287007
-0.00325267
-0.000402487
-0.00303488
-0.000514612
-0.00278301
-0.00062422
-0.00250041
-0.000731321
-0.00218189
-0.000837534
-0.00190104
-0.000993714
-0.00169503
-0.000905238
-0.00114794
-0.001251
-0.000500379
-0.00129725
0.00025439
-0.00129315
0.0010852
-0.00119736
0.00193008
-0.000991366
0.00275631
-0.000656755
0.00361751
-0.000205892
0.00435228
0.000198601
0.00447806
0.000507967
0.00392191
0.000825927
0.00306331
0.000918784
0.00229184
0.000491643
0.001842
2.94683e-05
0.00159994
0.000150214
0.00129198
0.000719113
0.000844968
0.00130803
-6.84134e-05
0.00186503
-0.00110897
0.00222786
-0.00248103
0.00253224
-0.00338355
0.00218326
-0.00360856
0.000399244
-0.00286817
-0.00177701
-0.00177632
-0.003127
-0.000808008
-0.0035525
0.000691495
-0.00257552
0.00154312
-0.000295899
0.00143175
0.00141056
0.00150813
0.00102805
0.00245986
-0.000774744
0.0037065
-0.00193422
0.0048346
-0.00203681
0.00555309
-0.00160782
0.00575085
-0.00112642
0.00556015
-0.000605018
0.00512087
-9.88673e-05
0.00452423
0.000320653
0.00385831
0.000624299
0.00319114
0.000811174
0.00256854
0.000899267
0.0020227
0.000916157
0.00156097
0.000887065
0.00117838
0.000832796
0.000867133
0.000765941
0.000611235
0.00069903
0.000398118
0.000637308
0.000220951
0.000579805
6.87485e-05
0.000510717
-7.09037e-05
0.000505234
-0.000278187
0.000459995
-0.000474443
0.00042934
-0.000662464
0.00039918
-0.000838796
0.000370621
-0.00100373
0.000344494
-0.00115796
0.000320369
-0.00130188
0.000297218
-0.00143541
0.000273757
-0.00155763
0.000248401
-0.00166563
0.000218351
-0.00175593
0.000181745
-0.00182427
0.000136842
-0.0018659
8.30105e-05
-0.00187662
2.12414e-05
-0.0018535
-4.64164e-05
-0.00179602
-0.000115899
-0.00170654
-0.000181943
-0.00158977
-0.000238341
-0.00145104
-0.000279196
-0.00129636
-0.00030216
-0.00113595
-0.000315448
-0.000977138
-0.000319733
-0.000823469
-0.000314427
-0.000677085
-0.000300933
-0.000541312
-0.000280471
-0.000418292
-0.000256103
-0.000306821
-0.000230731
-0.000205732
-0.000205495
-0.000114616
-0.000180809
-3.30964e-05
-0.000156868
3.77534e-05
-0.000133448
9.48219e-05
-0.000110436
0.000145436
-8.8316e-05
0.000191908
-6.75828e-05
0.000236459
-5.13877e-05
0.000271359
-3.23401e-05
0.000296114
-1.7377e-05
0.000310502
-5.95957e-06
0.000314293
3.29309e-06
0.00030886
1.06457e-05
0.000297592
1.62042e-05
0.000282194
2.05822e-05
0.000264336
2.4117e-05
0.000245586
2.74015e-05
0.000227579
3.10492e-05
0.000211629
3.51342e-05
0.000198151
3.87665e-05
0.000186526
4.04974e-05
0.000175618
3.94488e-05
0.000164498
3.61215e-05
0.000152703
3.21964e-05
0.000139652
2.97093e-05
0.000124565
2.99595e-05
0.000106145
3.3419e-05
8.29595e-05
3.94384e-05
5.5097e-05
4.59538e-05
2.50562e-05
5.02717e-05
-3.87206e-06
5.00628e-05
-3.423e-05
5.18361e-05
-6.03894e-05
4.51978e-05
-8.40292e-05
4.08583e-05
-0.000105006
3.66954e-05
-0.000123632
3.30509e-05
-0.000140476
2.99708e-05
-0.000156236
2.71115e-05
-0.00017164
2.39944e-05
-0.000187339
2.03815e-05
-0.000203706
1.66949e-05
-0.000220683
1.40248e-05
-0.000237162
1.33349e-05
-0.000251648
1.42387e-05
-0.000264335
1.51547e-05
-0.000274804
1.25316e-05
-0.000282529
6.50151e-06
-0.00028356
-5.20259e-06
-0.000270808
-2.30024e-05
-0.000236462
-4.31522e-05
-0.000180427
-5.11458e-05
-0.000118988
-2.64826e-05
-8.55629e-05
4.19856e-05
-0.00012062
0.000151274
-0.000230286
0.000257779
-0.000426545
0.000359585
-0.000469353
6.79624e-05
9.08144e-05
-0.000836404
0.00174614
-0.00231185
0.00402313
-0.00351514
0.00485011
-0.00242869
0.0038924
0.000240724
0.00239607
0.00185481
0.00116056
0.00220472
0.000335723
0.00194267
-0.000186116
0.00155934
-0.000688104
0.00128586
-0.00118926
0.00105559
-0.00156827
0.000787328
-0.00181309
0.000508995
-0.00191903
0.00022358
-0.00189187
-5.86996e-05
-0.00176578
-0.000271182
-0.00154548
-0.000447209
-0.000564477
-0.00127226
-0.000138567
0.000349205
-0.0002897
0.000335635
-0.000421232
0.000273468
-0.000550962
0.000236566
-0.000730463
0.000248942
-0.000944864
0.000244336
-0.00127725
0.000343179
-0.00171847
0.00052306
-0.00221265
0.000725177
-0.00269138
0.000884723
-0.00310905
0.000969137
-0.00344894
0.000978429
-0.00371568
0.000931153
-0.0039233
0.000848084
-0.00408567
0.000743674
-0.00421227
0.00062572
-0.00430752
0.000497616
-0.00437171
0.000360486
-0.00440235
0.000214708
-0.00439594
6.14764e-05
-0.0043497
-9.66884e-05
-0.00426179
-0.000257186
-0.00413277
-0.000416028
-0.00396581
-0.000569443
-0.00376586
-0.000714565
-0.00353952
-0.000850558
-0.00329383
-0.000977015
-0.00304198
-0.00108939
-0.00285169
-0.001184
-0.00249397
-0.00126296
-0.00233472
-0.00141026
-0.00211382
-0.00151815
-0.00179038
-0.00161659
-0.00131703
-0.00167071
-0.000657189
-0.00165121
0.000209335
-0.00152328
0.00127074
-0.0012673
0.00237524
-0.000905899
0.00333718
-0.00045397
0.00407731
8.58007e-05
0.00438376
0.000612336
0.00392794
0.000947462
0.00295549
0.00100191
0.00209273
0.00101298
0.0015553
0.00125654
0.00115604
0.00170729
0.000756765
0.00226431
0.000126462
0.00285817
-0.000730803
0.00338951
-0.00164955
0.00310201
-0.00198733
0.000737021
-0.00130391
-0.00246044
-0.000260918
-0.00416998
0.000347964
-0.00416138
0.000636357
-0.00286391
0.00103619
-0.000695729
0.00221006
0.000236686
0.00436492
-0.0011268
0.00609147
-0.0025013
0.00657248
-0.00241523
0.00633203
-0.00179636
0.00577763
-0.00105342
0.00498837
-0.000337157
0.00411209
0.000271259
0.00328664
0.000726584
0.00259219
0.0010151
0.00205983
0.00115667
0.00168025
0.00119075
0.00141875
0.00116077
0.00123349
0.00110142
0.00108617
0.00103439
0.000947805
0.000971158
0.000798054
0.000915693
0.00063025
0.000866833
0.000445934
0.000821625
0.000236656
0.000789083
8.66326e-05
0.000660741
-0.00011609
0.000707956
-0.000309738
0.000653644
-0.000486681
0.000606283
-0.000652156
0.000564655
-0.000808142
0.000526608
-0.000955857
0.000492209
-0.00109668
0.000461188
-0.00123201
0.000432555
-0.00136249
0.000404236
-0.00148718
0.000373088
-0.00160381
0.000334983
-0.00170819
0.00028612
-0.00179452
0.000223179
-0.00185584
0.000144332
-0.00188496
5.0358e-05
-0.00187665
-5.47234e-05
-0.00182876
-0.000163795
-0.00174265
-0.00026805
-0.00162331
-0.000357683
-0.00147772
-0.000424785
-0.00131794
-0.000461937
-0.00115259
-0.000480798
-0.000991087
-0.000481232
-0.000838591
-0.000466922
-0.000697255
-0.000442268
-0.000568164
-0.000409561
-0.000451821
-0.000372445
-0.00034691
-0.000335642
-0.000252493
-0.00029991
-0.000168194
-0.000265107
-9.3646e-05
-0.000231416
-2.81981e-05
-0.000198895
2.8817e-05
-0.00016745
7.801e-05
-0.000137508
0.0001204
-0.000109973
0.000154961
-8.59479e-05
0.000187123
-6.45013e-05
0.000213798
-4.40514e-05
0.000235639
-2.78002e-05
0.000251766
-1.28339e-05
0.000262094
3.18155e-07
0.000266273
1.20258e-05
0.000264608
2.22472e-05
0.000257883
3.08422e-05
0.000247383
3.79024e-05
0.000234777
4.3655e-05
0.000221736
4.81759e-05
0.000209355
5.11481e-05
0.000197825
5.20269e-05
0.000186643
5.06316e-05
0.000175132
4.76324e-05
0.000162866
4.44624e-05
0.000149832
4.27434e-05
0.000136004
4.37872e-05
0.000121239
4.81836e-05
0.000105298
5.53792e-05
8.79883e-05
6.32635e-05
6.93606e-05
6.8899e-05
5.0002e-05
6.94209e-05
2.45173e-05
7.73203e-05
4.13371e-06
6.55808e-05
-1.72683e-05
6.22598e-05
-3.78572e-05
5.72837e-05
-5.72454e-05
5.24386e-05
-7.54762e-05
4.82011e-05
-9.29376e-05
4.45725e-05
-0.000110279
4.13357e-05
-0.000128289
3.83911e-05
-0.000147625
3.60306e-05
-0.00016843
3.48299e-05
-0.000189998
3.49027e-05
-0.000210838
3.50783e-05
-0.000228682
3.29987e-05
-0.000242881
2.673e-05
-0.000253379
1.69998e-05
-0.000261483
2.90134e-06
-0.000267324
-1.71621e-05
-0.000263012
-4.7464e-05
-0.000230122
-8.40366e-05
-0.000151949
-0.000104655
-3.48574e-05
-7.51066e-05
7.96513e-05
3.67646e-05
9.80811e-05
0.000239349
-1.61053e-06
0.000459277
0.000110291
-4.39391e-05
0.00115879
-0.00188491
0.00350499
-0.00465804
0.00496066
-0.00497081
0.00403772
-0.00150576
0.00244474
0.00183371
0.00140677
0.00289277
0.000870894
0.0027406
0.00040266
0.00241091
-0.00016878
0.00213078
-0.000732338
0.00184941
-0.00121448
0.00153773
-0.00159268
0.00116553
-0.00184025
0.000756561
-0.00195176
0.000335096
-0.00194455
-6.59092e-05
-0.00180813
-0.000407606
-0.00159454
-0.000660801
-0.000832589
-0.00132642
-5.03404e-05
0.000399545
-0.000146676
0.000431971
-0.000351265
0.000478057
-0.000584607
0.000469908
-0.000945967
0.000610302
-0.00145077
0.000749139
-0.00203208
0.000924486
-0.00261144
0.00110242
-0.00309197
0.00120571
-0.00343268
0.00122544
-0.00365358
0.00119003
-0.00379731
0.00112216
-0.00390216
0.00103601
-0.00399282
0.000938742
-0.00408122
0.000832077
-0.00417036
0.000714864
-0.00425762
0.000584876
-0.00433661
0.000439474
-0.00439805
0.000276146
-0.00443152
9.49467e-05
-0.0044308
-9.74107e-05
-0.00438786
-0.000300124
-0.00429867
-0.000505219
-0.00416541
-0.000702701
-0.00399443
-0.000885539
-0.00379523
-0.00104976
-0.00357785
-0.0011944
-0.00334634
-0.00132089
-0.00309769
-0.00143264
-0.0028284
-0.00153226
-0.00261312
-0.00162554
-0.00242077
-0.0017105
-0.0022466
-0.00179076
-0.00205462
-0.00186269
-0.00178924
-0.00191659
-0.00138138
-0.00193114
-0.00077468
-0.001874
3.6072e-05
-0.00171665
0.00101355
-0.00143144
0.00208091
-0.000981563
0.00305102
-0.000357772
0.00363617
0.000362307
0.00362938
0.0010087
0.00315354
0.00148883
0.0025409
0.00186918
0.00198958
0.00225861
0.00160258
0.00265131
0.000971121
0.00348963
0.000569465
0.00379116
-9.42078e-06
0.0036809
-0.000152595
0.000880195
0.000514696
-0.00312773
0.00132378
-0.00497907
0.00149557
-0.00433317
0.0014985
-0.00286685
0.0026718
-0.00186903
0.0051175
-0.00220901
0.006848
-0.0028573
0.00686911
-0.00252241
0.00612205
-0.00166817
0.00509563
-0.000769936
0.00402022
2.19876e-05
0.00305628
0.000626792
0.0023046
0.00102293
0.00179701
0.00123418
0.00150142
0.00131069
0.00134967
0.00130841
0.00126824
0.00127218
0.00120032
0.00122869
0.00111345
0.00118829
0.000996135
0.0011517
0.000850943
0.00111635
0.000687339
0.0010793
0.000515013
0.00103916
0.000340284
0.000996355
0.000178427
0.00095094
-3.60265e-05
0.000875194
-0.000171651
0.000843581
-0.000311332
0.000793325
-0.000445995
0.000740947
-0.000572587
0.000691247
-0.000692039
0.000646061
-0.00080644
0.00060661
-0.000918507
0.000573255
-0.00103104
0.000545087
-0.00114625
0.000519446
-0.00126495
0.000491786
-0.0013862
0.000456231
-0.00150627
0.000406195
-0.00161875
0.000335656
-0.00171435
0.000239931
-0.00178173
0.000117738
-0.00181079
-2.56576e-05
-0.00179488
-0.000179708
-0.00173136
-0.000331569
-0.00162372
-0.000465319
-0.00147834
-0.000570166
-0.00131747
-0.000622804
-0.00114508
-0.000653191
-0.000975758
-0.000650552
-0.000818379
-0.0006243
-0.000677794
-0.000582851
-0.000552978
-0.000534376
-0.000441601
-0.000483821
-0.000342368
-0.000434874
-0.00025386
-0.000388417
-0.000174646
-0.00034432
-0.000103835
-0.000302226
-4.09812e-05
-0.000261748
1.43077e-05
-0.000222738
6.23671e-05
-0.000185567
0.000103147
-0.000150751
0.000136249
-0.00011905
0.000162193
-9.04451e-05
0.000183207
-6.50648e-05
0.00019952
-4.41127e-05
0.000211783
-2.50969e-05
0.000220593
-8.49193e-06
0.000226317
6.30275e-06
0.000229267
1.92967e-05
0.000229615
3.04949e-05
0.000227585
3.99333e-05
0.000223549
4.76914e-05
0.000217954
5.37712e-05
0.000211098
5.80045e-05
0.000202954
6.01708e-05
0.000193257
6.03285e-05