/*--------------------------------*- C++ -*----------------------------------*\
| =========                 |                                                 |
| \\      /  F ield         | OpenFOAM: The Open Source CFD Toolbox           |
|  \\    /   O peration     | Version:  2112                                  |
|   \\  /    A nd           | Website:  www.openfoam.com                      |
|    \\/     M anipulation  |                                                 |
\*---------------------------------------------------------------------------*/
FoamFile
{
    version     2.0;
    format      ascii;
    arch        "LSB;label=32;scalar=64";
    class       volVectorField;
    location    "0.51";
    object      U;
}
// * * * * * * * * * * * * * * * * * * * * * * * * * * * * * * * * * * * * * //

dimensions      [0 1 -1 0 0 0 0];

internalField   nonuniform List<vector> 
12225
(
(9.76231 0.0634496 0)
(9.26808 0.103826 0)
(8.72894 0.112777 0)
(8.17459 0.114849 0)
(7.63787 0.112699 0)
(7.13475 0.106528 0)
(6.67438 0.0972188 0)
(6.26498 0.0857203 0)
(5.91261 0.0729677 0)
(5.61928 0.0599029 0)
(5.38314 0.0473669 0)
(5.19929 0.0360426 0)
(5.06064 0.0264045 0)
(4.95872 0.0187782 0)
(4.88393 0.0134906 0)
(4.82787 0.0109892 0)
(4.77281 0.0184182 0)
(4.70787 0.0254672 0)
(10.0974 0.0736942 0)
(10.2942 0.111948 0)
(10.4223 0.120767 0)
(10.4834 0.129907 0)
(10.4914 0.137213 0)
(10.4518 0.140211 0)
(10.3701 0.138803 0)
(10.2545 0.133265 0)
(10.1141 0.124102 0)
(9.95696 0.112162 0)
(9.78951 0.0985429 0)
(9.61658 0.0844489 0)
(9.4414 0.0710168 0)
(9.2657 0.0593072 0)
(9.09018 0.0501425 0)
(8.91462 0.0454382 0)
(8.7406 0.0470778 0)
(8.57872 0.0701876 0)
(10.0167 0.0402522 0)
(10.0696 0.0670234 0)
(10.1256 0.0811279 0)
(10.1819 0.0980807 0)
(10.2423 0.113345 0)
(10.3041 0.124388 0)
(10.3615 0.131427 0)
(10.4101 0.134802 0)
(10.447 0.13477 0)
(10.4715 0.132013 0)
(10.4834 0.12756 0)
(10.4831 0.122582 0)
(10.4721 0.118202 0)
(10.4517 0.115445 0)
(10.4234 0.115275 0)
(10.3885 0.118777 0)
(10.351 0.127487 0)
(10.31 0.140745 0)
(10.0085 0.0323259 0)
(10.0404 0.0648606 0)
(10.0701 0.0810612 0)
(10.0948 0.0946115 0)
(10.1203 0.105576 0)
(10.1491 0.113019 0)
(10.1797 0.11721 0)
(10.2109 0.118593 0)
(10.2416 0.117582 0)
(10.27 0.114618 0)
(10.2953 0.110389 0)
(10.3168 0.105821 0)
(10.3346 0.101811 0)
(10.3489 0.0991613 0)
(10.3608 0.0987075 0)
(10.3718 0.101211 0)
(10.3832 0.107467 0)
(10.3994 0.114201 0)
(10.005 0.0272787 0)
(10.0297 0.0593373 0)
(10.0547 0.0749639 0)
(10.0753 0.0874118 0)
(10.0957 0.0980174 0)
(10.1175 0.105374 0)
(10.1394 0.109498 0)
(10.1607 0.110926 0)
(10.1811 0.110152 0)
(10.2001 0.10768 0)
(10.2172 0.10424 0)
(10.2324 0.100625 0)
(10.2458 0.0975796 0)
(10.2578 0.0958628 0)
(10.2689 0.0960539 0)
(10.2803 0.0985688 0)
(10.2929 0.103346 0)
(10.31 0.109578 0)
(10.0034 0.022581 0)
(10.0226 0.0524742 0)
(10.0449 0.0688083 0)
(10.0644 0.0814337 0)
(10.0838 0.0918886 0)
(10.104 0.0990064 0)
(10.1241 0.102958 0)
(10.1433 0.104352 0)
(10.1612 0.1037 0)
(10.1778 0.101533 0)
(10.1927 0.0984795 0)
(10.2061 0.0952315 0)
(10.2181 0.0924745 0)
(10.2291 0.0907864 0)
(10.2396 0.0905876 0)
(10.2506 0.0921563 0)
(10.263 0.0952553 0)
(10.2783 0.0992215 0)
(10.0024 0.0189289 0)
(10.0176 0.0463845 0)
(10.0371 0.0626743 0)
(10.0556 0.0749135 0)
(10.0739 0.0848601 0)
(10.0932 0.0918058 0)
(10.1126 0.0958206 0)
(10.1311 0.0974138 0)
(10.1484 0.0970496 0)
(10.1644 0.0952515 0)
(10.1788 0.0926039 0)
(10.1918 0.0897333 0)
(10.2037 0.0872306 0)
(10.2146 0.0855767 0)
(10.2254 0.0851226 0)
(10.2366 0.0859801 0)
(10.249 0.0878364 0)
(10.2635 0.0901253 0)
(10.0018 0.0160028 0)
(10.0139 0.0409783 0)
(10.031 0.0568656 0)
(10.0481 0.0685506 0)
(10.0654 0.0778468 0)
(10.0836 0.0843724 0)
(10.102 0.0882025 0)
(10.1198 0.0898262 0)
(10.1366 0.0897028 0)
(10.1523 0.0882695 0)
(10.1666 0.086029 0)
(10.1797 0.0835214 0)
(10.1917 0.0812539 0)
(10.203 0.0796324 0)
(10.2142 0.0788847 0)
(10.2258 0.0790286 0)
(10.2383 0.0797758 0)
(10.2523 0.0806788 0)
(10.0013 0.0135851 0)
(10.0111 0.0360201 0)
(10.026 0.0511992 0)
(10.0419 0.0622627 0)
(10.0581 0.0708914 0)
(10.0752 0.0769713 0)
(10.0925 0.0805823 0)
(10.1094 0.0821644 0)
(10.1256 0.0821514 0)
(10.1408 0.0809515 0)
(10.1549 0.0790097 0)
(10.168 0.0767821 0)
(10.1802 0.0746775 0)
(10.1919 0.072999 0)
(10.2034 0.0718961 0)
(10.2153 0.0713455 0)
(10.2279 0.0711035 0)
(10.2416 0.0708313 0)
(10.001 0.0115541 0)
(10.009 0.0314546 0)
(10.0221 0.0456613 0)
(10.0367 0.0560162 0)
(10.0519 0.0639482 0)
(10.0678 0.0695444 0)
(10.084 0.0728967 0)
(10.1 0.0743876 0)
(10.1155 0.0744237 0)
(10.1301 0.0733811 0)
(10.1439 0.0716447 0)
(10.1569 0.0695924 0)
(10.1692 0.0675484 0)
(10.181 0.0657388 0)
(10.1928 0.0642608 0)
(10.2049 0.0630703 0)
(10.2175 0.0619651 0)
(10.2309 0.0607244 0)
(10.0008 0.0098198 0)
(10.0074 0.0272581 0)
(10.0188 0.0402779 0)
(10.0322 0.0498216 0)
(10.0464 0.0570191 0)
(10.0613 0.0620854 0)
(10.0765 0.0651297 0)
(10.0917 0.0664777 0)
(10.1063 0.0664995 0)
(10.1204 0.065534 0)
(10.1338 0.0639096 0)
(10.1466 0.0619356 0)
(10.1588 0.0598667 0)
(10.1707 0.05787 0)
(10.1826 0.0560052 0)
(10.1946 0.0542206 0)
(10.207 0.0523517 0)
(10.2201 0.0502559 0)
(10.0007 0.00841317 0)
(10.0063 0.0236875 0)
(10.0164 0.0354777 0)
(10.0287 0.0441844 0)
(10.042 0.0506731 0)
(10.056 0.0552137 0)
(10.0704 0.0579298 0)
(10.0848 0.0590997 0)
(10.0988 0.059053 0)
(10.1124 0.0580918 0)
(10.1254 0.0564962 0)
(10.1379 0.0545201 0)
(10.15 0.0523654 0)
(10.1618 0.0501569 0)
(10.1736 0.0479307 0)
(10.1855 0.0456373 0)
(10.1976 0.043142 0)
(10.2102 0.0403479 0)
(10.0006 0.00717016 0)
(10.0054 0.0203799 0)
(10.0144 0.0308425 0)
(10.0257 0.0386399 0)
(10.0382 0.0443938 0)
(10.0513 0.0483777 0)
(10.0649 0.0507256 0)
(10.0786 0.0516748 0)
(10.092 0.0515118 0)
(10.1051 0.0505005 0)
(10.1177 0.0488771 0)
(10.1299 0.0468476 0)
(10.1418 0.0445694 0)
(10.1534 0.0421346 0)
(10.165 0.0395631 0)
(10.1767 0.0368106 0)
(10.1884 0.0337664 0)
(10.2005 0.030376 0)
(10.0005 0.00589653 0)
(10.0047 0.0168588 0)
(10.0125 0.025734 0)
(10.0228 0.0324063 0)
(10.0343 0.0372679 0)
(10.0466 0.0405652 0)
(10.0593 0.0424358 0)
(10.0722 0.0430743 0)
(10.085 0.0427163 0)
(10.0975 0.0415818 0)
(10.1096 0.0398614 0)
(10.1215 0.037714 0)
(10.1331 0.0352561 0)
(10.1444 0.0325515 0)
(10.1557 0.0296089 0)
(10.1669 0.0263914 0)
(10.1782 0.0228143 0)
(10.1896 0.018852 0)
(10.0004 0.00458123 0)
(10.004 0.0131339 0)
(10.0109 0.020165 0)
(10.0201 0.0254699 0)
(10.0306 0.0292538 0)
(10.042 0.0317112 0)
(10.0538 0.0329699 0)
(10.0659 0.0331817 0)
(10.0779 0.0325271 0)
(10.0898 0.0311774 0)
(10.1014 0.0292775 0)
(10.1128 0.0269426 0)
(10.124 0.0242529 0)
(10.1349 0.0212498 0)
(10.1457 0.0179349 0)
(10.1564 0.0142803 0)
(10.167 0.0102255 0)
(10.1775 0.00576912 0)
(10.0004 0.00321357 0)
(10.0034 0.00920491 0)
(10.0094 0.0141439 0)
(10.0177 0.0178211 0)
(10.0272 0.0203148 0)
(10.0376 0.0217541 0)
(10.0486 0.0222406 0)
(10.0598 0.0218838 0)
(10.0711 0.0208097 0)
(10.0823 0.0191392 0)
(10.0933 0.0169726 0)
(10.1041 0.0143859 0)
(10.1147 0.0114293 0)
(10.125 0.00812612 0)
(10.1352 0.00447505 0)
(10.1451 0.000457098 0)
(10.1549 -0.00396799 0)
(10.1645 -0.00878508 0)
(10.0003 0.0017749 0)
(10.003 0.00503704 0)
(10.0083 0.00764139 0)
(10.0156 0.00942501 0)
(10.0243 0.0103956 0)
(10.0338 0.0106182 0)
(10.0439 0.0101559 0)
(10.0543 0.00907594 0)
(10.0648 0.00745363 0)
(10.0753 0.00536098 0)
(10.0856 0.00285672 0)
(10.0958 -1.70972e-05 0)
(10.1056 -0.00323524 0)
(10.1152 -0.00678847 0)
(10.1246 -0.0106807 0)
(10.1336 -0.0149243 0)
(10.1424 -0.0195436 0)
(10.1508 -0.0245155 0)
(10.0003 0.000229729 0)
(10.0027 0.000538418 0)
(10.0075 0.000543666 0)
(10.0142 0.000153064 0)
(10.0221 -0.000655487 0)
(10.0309 -0.00187071 0)
(10.0403 -0.00347239 0)
(10.0499 -0.00543473 0)
(10.0597 -0.0077281 0)
(10.0695 -0.010325 0)
(10.0791 -0.0132047 0)
(10.0885 -0.0163554 0)
(10.0975 -0.0197736 0)
(10.1063 -0.0234629 0)
(10.1147 -0.0274327 0)
(10.1228 -0.0316933 0)
(10.1304 -0.0362599 0)
(10.1376 -0.0411105 0)
(10.0003 -0.00150388 0)
(10.0026 -0.00450437 0)
(10.0071 -0.00742541 0)
(10.0135 -0.0102837 0)
(10.021 -0.0131235 0)
(10.0294 -0.0159856 0)
(10.0382 -0.0188926 0)
(10.0474 -0.0218569 0)
(10.0566 -0.0248894 0)
(10.0658 -0.0280026 0)
(10.0748 -0.0312108 0)
(10.0835 -0.0345307 0)
(10.0918 -0.0379812 0)
(10.0998 -0.0415828 0)
(10.1073 -0.0453554 0)
(10.1143 -0.0493163 0)
(10.1208 -0.0534824 0)
(10.1269 -0.0578437 0)
(10.0003 -0.00316259 0)
(10.0027 -0.00931138 0)
(10.0075 -0.0149708 0)
(10.0141 -0.0200943 0)
(10.0218 -0.0247754 0)
(10.0302 -0.029117 0)
(10.0391 -0.0331782 0)
(10.0482 -0.0370002 0)
(10.0574 -0.0406264 0)
(10.0664 -0.044101 0)
(10.0752 -0.0474657 0)
(10.0836 -0.0507604 0)
(10.0915 -0.0540255 0)
(10.099 -0.0573 0)
(10.106 -0.0606205 0)
(10.1124 -0.0640187 0)
(10.1182 -0.0675229 0)
(10.1235 -0.0711405 0)
(10.0003 -0.00461756 0)
(10.0031 -0.0134798 0)
(10.0084 -0.0213823 0)
(10.0156 -0.0282688 0)
(10.0237 -0.0343544 0)
(10.0325 -0.0398176 0)
(10.0417 -0.044737 0)
(10.0511 -0.049171 0)
(10.0604 -0.0531892 0)
(10.0696 -0.0568593 0)
(10.0785 -0.0602408 0)
(10.0869 -0.0633907 0)
(10.0948 -0.0663669 0)
(10.1022 -0.0692263 0)
(10.1089 -0.0720228 0)
(10.115 -0.0748042 0)
(10.1205 -0.0776135 0)
(10.1253 -0.0804746 0)
(10.0004 -0.00611617 0)
(10.0037 -0.0176681 0)
(10.0099 -0.0275905 0)
(10.0179 -0.035947 0)
(10.0267 -0.0431978 0)
(10.0361 -0.0496021 0)
(10.0458 -0.0552333 0)
(10.0556 -0.0601605 0)
(10.0654 -0.0644765 0)
(10.075 -0.0682635 0)
(10.0841 -0.0715911 0)
(10.0928 -0.0745293 0)
(10.1009 -0.0771522 0)
(10.1084 -0.0795351 0)
(10.1152 -0.0817506 0)
(10.1212 -0.0838656 0)
(10.1266 -0.0859413 0)
(10.1312 -0.0880203 0)
(10.0005 -0.00776893 0)
(10.0048 -0.0220807 0)
(10.0123 -0.0337734 0)
(10.0213 -0.0433061 0)
(10.0309 -0.0515181 0)
(10.0409 -0.0587074 0)
(10.0512 -0.0649194 0)
(10.0617 -0.0702477 0)
(10.0721 -0.0748071 0)
(10.0822 -0.0786796 0)
(10.0919 -0.0819317 0)
(10.101 -0.0846391 0)
(10.1095 -0.0868886 0)
(10.1173 -0.0887721 0)
(10.1243 -0.0903794 0)
(10.1305 -0.091796 0)
(10.1358 -0.0931024 0)
(10.1404 -0.0943607 0)
(10.0007 -0.00971817 0)
(10.0064 -0.0268702 0)
(10.0157 -0.0399456 0)
(10.0259 -0.0503526 0)
(10.0363 -0.0593996 0)
(10.0471 -0.0672778 0)
(10.0582 -0.0739653 0)
(10.0694 -0.0796036 0)
(10.0805 -0.0843398 0)
(10.0913 -0.0882511 0)
(10.1017 -0.0913964 0)
(10.1114 -0.0938539 0)
(10.1205 -0.0957222 0)
(10.1287 -0.0971117 0)
(10.1361 -0.0981335 0)
(10.1426 -0.0988881 0)
(10.1481 -0.0994689 0)
(10.1528 -0.0999535 0)
(10.0011 -0.012171 0)
(10.009 -0.0322595 0)
(10.0205 -0.0461193 0)
(10.032 -0.0569997 0)
(10.0433 -0.0667708 0)
(10.055 -0.0753679 0)
(10.0671 -0.0826334 0)
(10.0793 -0.0887013 0)
(10.0912 -0.0937076 0)
(10.1027 -0.0977077 0)
(10.1139 -0.10075 0)
(10.1243 -0.102916 0)
(10.134 -0.104315 0)
(10.1428 -0.105076 0)
(10.1507 -0.10534 0)
(10.1575 -0.105261 0)
(10.1634 -0.104963 0)
(10.1682 -0.104515 0)
(10.0018 -0.0153536 0)
(10.0131 -0.0387396 0)
(10.0276 -0.0530657 0)
(10.0405 -0.064054 0)
(10.0527 -0.0739747 0)
(10.0655 -0.0825952 0)
(10.0787 -0.0899201 0)
(10.0919 -0.0961353 0)
(10.1049 -0.101314 0)
(10.1176 -0.105449 0)
(10.13 -0.108559 0)
(10.1418 -0.110705 0)
(10.1528 -0.111987 0)
(10.163 -0.112543 0)
(10.1722 -0.112512 0)
(10.1803 -0.112023 0)
(10.1875 -0.111239 0)
(10.1935 -0.110225 0)
(10.0033 -0.0194319 0)
(10.0198 -0.0450324 0)
(10.0383 -0.059915 0)
(10.0539 -0.0718723 0)
(10.0688 -0.082571 0)
(10.0846 -0.0915131 0)
(10.1011 -0.0987976 0)
(10.1178 -0.104838 0)
(10.1348 -0.109735 0)
(10.152 -0.113458 0)
(10.1691 -0.116026 0)
(10.186 -0.117515 0)
(10.2023 -0.118034 0)
(10.2178 -0.117708 0)
(10.2323 -0.11675 0)
(10.2455 -0.115357 0)
(10.2574 -0.113619 0)
(10.2673 -0.111585 0)
(10.008 -0.0248974 0)
(10.0365 -0.0461234 0)
(10.0676 -0.0574665 0)
(10.0972 -0.0705661 0)
(10.1293 -0.083783 0)
(10.1654 -0.0955012 0)
(10.2032 -0.105743 0)
(10.2413 -0.114684 0)
(10.279 -0.122334 0)
(10.3152 -0.128554 0)
(10.349 -0.133263 0)
(10.3793 -0.13647 0)
(10.4054 -0.138255 0)
(10.4269 -0.138783 0)
(10.4436 -0.138254 0)
(10.4556 -0.136982 0)
(10.4633 -0.1352 0)
(10.4671 -0.133471 0)
(10.0521 -0.0516741 0)
(10.1805 -0.0864738 0)
(10.2882 -0.0967147 0)
(10.3693 -0.106624 0)
(10.4275 -0.116349 0)
(10.4627 -0.124191 0)
(10.4756 -0.130345 0)
(10.4673 -0.13504 0)
(10.4397 -0.138184 0)
(10.3954 -0.139622 0)
(10.3367 -0.139288 0)
(10.2663 -0.137227 0)
(10.1863 -0.133577 0)
(10.0993 -0.128553 0)
(10.007 -0.122435 0)
(9.91126 -0.115628 0)
(9.81322 -0.108374 0)
(9.71461 -0.101569 0)
(9.87147 -0.0476564 0)
(9.57459 -0.0859069 0)
(9.22932 -0.0997002 0)
(8.8574 -0.107579 0)
(8.48117 -0.112085 0)
(8.11019 -0.11359 0)
(7.74838 -0.11287 0)
(7.39953 -0.110397 0)
(7.06753 -0.106345 0)
(6.75558 -0.100909 0)
(6.46598 -0.0943701 0)
(6.20034 -0.0869849 0)
(5.95962 -0.0790147 0)
(5.74413 -0.0707246 0)
(5.55342 -0.0623732 0)
(5.3867 -0.0542267 0)
(5.24157 -0.0465361 0)
(5.11907 -0.0392474 0)
(0.0316173 -0.0516066 -9.65066e-22)
(0.073283 -0.0665189 9.20846e-22)
(0.147815 -0.0802514 0)
(0.234637 -0.0966448 0)
(0.334545 -0.119597 0)
(0.450983 -0.143845 -9.08134e-22)
(0.585452 -0.163371 0)
(0.732027 -0.177334 0)
(0.886895 -0.185584 0)
(1.04638 -0.188138 0)
(1.20704 -0.186271 1.13022e-21)
(1.36608 -0.181546 0)
(1.52151 -0.174922 0)
(1.67181 -0.166602 0)
(1.81576 -0.156834 0)
(1.9522 -0.145923 1.5919e-21)
(2.08022 -0.134206 0)
(2.19925 -0.121987 0)
(2.30891 -0.109513 0)
(2.40901 -0.0969623 0)
(2.49945 -0.0844234 0)
(2.58015 -0.0719055 0)
(2.65104 -0.0593775 0)
(2.712 -0.0467771 2.3919e-21)
(2.76282 -0.0339943 -2.47528e-21)
(2.80319 -0.020825 2.55259e-21)
(2.83251 -0.00691554 2.62318e-21)
(2.85034 0.00837218 0)
(2.85527 0.025774 0)
(2.84448 0.0450089 -2.78781e-21)
(2.81811 0.0649004 -2.82567e-21)
(2.77609 0.0841717 0)
(2.71859 0.101831 0)
(2.64633 0.117109 -2.88519e-21)
(2.56048 0.129361 0)
(2.4625 0.138086 0)
(2.35429 0.142934 2.86287e-21)
(2.23814 0.143733 0)
(2.11671 0.140537 2.80916e-21)
(1.99285 0.133675 5.54679e-21)
(1.86957 0.123091 0)
(1.74999 0.108707 0)
(1.63699 0.0916821 0)
(1.53309 0.0733951 0)
(1.44033 0.0545373 0)
(1.36023 0.0358326 5.02902e-21)
(1.29379 0.0181565 4.94904e-21)
(1.24153 0.00236715 4.8761e-21)
(1.20376 -0.0107265 0)
(1.18062 -0.0206492 -4.75506e-21)
(1.1733 -0.027071 0)
(1.17926 -0.0314228 4.66718e-21)
(1.19822 -0.0386222 4.637e-21)
(1.23092 -0.0510062 0)
(1.27758 -0.0649814 0)
(1.33261 -0.0747809 0)
(1.38403 -0.0682699 4.62964e-21)
(1.40279 -0.0344675 0)
(1.35937 0.00938203 0)
(1.25204 0.0366997 0)
(1.08144 0.0406166 0)
(0.833243 0.0443766 0)
(0.481505 0.0931603 0)
(0.00656879 0.201353 0)
(-0.589635 0.326431 0)
(-1.27688 0.432973 -7.25337e-21)
(-2.01224 0.504619 0)
(-2.75565 0.538092 0)
(-3.47463 0.538233 1.03558e-20)
(-4.14635 0.513436 1.14943e-20)
(-4.75716 0.472795 0)
(-5.30071 0.424469 -1.35748e-20)
(-5.7759 0.37401 1.44376e-20)
(-6.18498 0.323582 0)
(-6.53214 0.274879 -1.57087e-20)
(-6.82253 0.230324 0)
(-7.06153 0.190657 0)
(-7.25373 0.154983 1.63802e-20)
(-7.40268 0.122349 0)
(-7.51083 0.0920014 -1.60274e-20)
(-7.5793 0.0638557 0)
(-7.60878 0.0381053 1.50896e-20)
(-7.59988 0.0143073 1.44035e-20)
(-7.55886 -0.00784677 1.35847e-20)
(-7.48442 -0.0297565 2.5279e-20)
(-7.37646 -0.0518076 -2.31511e-20)
(-7.23454 -0.0740203 0)
(-7.05836 -0.0962378 0)
(-6.84799 -0.118188 0)
(-6.60402 -0.139505 -1.26371e-20)
(-6.32749 -0.159771 -9.6285e-21)
(-6.01976 -0.178513 6.52706e-21)
(-5.68262 -0.195175 0)
(-5.31847 -0.20951 -1.89774e-22)
(-4.93047 -0.222478 2.96695e-21)
(-4.52188 -0.233938 6.05851e-21)
(-4.09647 -0.243631 0)
(-3.65842 -0.251447 0)
(-3.21203 -0.257348 0)
(-2.7616 -0.261283 1.68826e-20)
(-2.31129 -0.263 0)
(-1.86515 -0.261801 0)
(-1.42711 -0.256331 -2.24875e-20)
(-1.00127 -0.245257 0)
(-0.59608 -0.229529 0)
(-0.206485 -0.215059 -2.56921e-20)
(0.176818 -0.209756 0)
(0.547675 -0.210119 0)
(0.907933 -0.207648 2.63316e-20)
(1.25639 -0.195482 2.62351e-20)
(1.58316 -0.175609 0)
(1.88166 -0.150416 -2.5719e-20)
(2.14971 -0.123648 0)
(2.38663 -0.0979136 2.49267e-20)
(2.59264 -0.0736364 0)
(2.76758 -0.0501423 2.39947e-20)
(2.91087 -0.0275696 2.35091e-20)
(3.02238 -0.00680369 0)
(3.1029 0.0113667 0)
(3.15425 0.0260193 0)
(3.17597 0.0368657 0)
(3.16867 0.0471611 0)
(3.13966 0.0545867 0)
(3.09275 0.0569219 0)
(3.03123 0.0554993 2.02252e-20)
(2.95756 0.0516354 -1.99406e-20)
(2.87324 0.0458157 0)
(2.77988 0.0382208 0)
(2.6802 0.0291666 0)
(2.57921 0.0190784 0)
(2.48484 0.00741192 -3.78706e-20)
(2.40791 -0.00594836 0)
(2.3611 -0.0179692 3.72913e-20)
(2.35159 -0.0220948 -3.7035e-20)
(2.36543 -0.014762 0)
(2.35739 0.0061109 0)
(2.27783 0.0448666 0)
(2.09347 0.0894249 3.49246e-20)
(1.78775 0.130429 3.34674e-20)
(1.3513 0.17282 0)
(0.797436 0.216411 2.80048e-20)
(0.163346 0.244952 2.37419e-20)
(-0.504724 0.258285 -1.86275e-20)
(-1.1646 0.258285 0)
(-1.78463 0.246848 0)
(-2.3384 0.2249 -3.50251e-21)
(-2.80406 0.183749 0)
(-3.16244 0.126741 0)
(-3.39549 0.0661934 0)
(-3.49054 0.00668842 0)
(-3.44447 -0.0533495 -3.68137e-21)
(-3.27271 -0.108516 -1.27858e-21)
(-2.97461 -0.160808 0)
(-2.55783 -0.207897 6.84317e-21)
(-2.03635 -0.24487 0)
(-1.43476 -0.261859 0)
(-0.778647 -0.261832 2.26192e-20)
(-0.0814098 -0.259017 0)
(0.633133 -0.257333 3.08747e-20)
(1.33747 -0.254455 0)
(2.01593 -0.233797 0)
(2.65278 -0.195891 3.55971e-20)
(3.23041 -0.153695 0)
(3.74494 -0.113131 3.48905e-20)
(4.19724 -0.0768097 0)
(4.5894 -0.0450904 0)
(4.92451 -0.0175857 0)
(5.20513 0.00637232 -2.92015e-20)
(5.43158 0.0276142 0)
(5.6018 0.0454742 2.58002e-20)
(5.71331 0.0564991 0)
(5.7617 0.0629737 0)
(5.74137 0.0844312 0)
(5.65948 0.103118 0)
(5.51955 0.113889 0)
(5.32508 0.119222 0)
(5.08277 0.1204 0)
(4.79246 0.119894 -3.76491e-20)
(4.47913 0.124356 0)
(4.00872 0.131643 0)
(0.0457083 -0.164477 2.94056e-21)
(0.106534 -0.21086 -2.79411e-21)
(0.208651 -0.254731 0)
(0.324818 -0.300016 1.86675e-21)
(0.455254 -0.344486 0)
(0.598189 -0.386897 8.83114e-22)
(0.749794 -0.422565 -1.93786e-21)
(0.906678 -0.448062 -2.00819e-21)
(1.06566 -0.461975 0)
(1.22486 -0.465645 -2.2234e-21)
(1.38287 -0.460969 -1.08103e-21)
(1.5377 -0.449825 0)
(1.68754 -0.433992 0)
(1.83144 -0.414732 0)
(1.96879 -0.392416 0)
(2.09898 -0.367755 -1.52371e-21)
(2.22169 -0.341606 0)
(2.33679 -0.314706 3.63192e-21)
(2.44429 -0.287584 0)
(2.54419 -0.260583 0)
(2.63655 -0.233885 -4.20907e-21)
(2.72142 -0.207532 0)
(2.79884 -0.181459 4.57397e-21)
(2.86876 -0.155533 -2.31693e-21)
(2.93114 -0.129574 2.40202e-21)
(2.98588 -0.103328 -2.48146e-21)
(3.03304 -0.0764751 -2.55448e-21)
(3.07252 -0.0485674 0)
(3.10496 -0.0190602 0)
(3.13208 0.0121103 2.72674e-21)
(3.1524 0.0444491 -2.88659e-21)
(3.16455 0.0773238 0)
(3.16701 0.110102 0)
(3.15811 0.142111 2.81747e-21)
(3.13629 0.172542 0)
(3.10022 0.200467 0)
(3.04889 0.224876 -2.78688e-21)
(2.98175 0.244734 0)
(2.89888 0.259081 2.80422e-21)
(2.80112 0.267169 -5.39227e-21)
(2.69016 0.26858 0)
(2.56848 0.26329 0)
(2.43921 0.251652 -1.03346e-20)
(2.30608 0.234328 -1.01446e-20)
(2.1732 0.212193 -9.96185e-21)
(2.0448 0.186239 4.87511e-21)
(1.9249 0.157433 -4.84425e-21)
(1.8173 0.126511 -1.42719e-20)
(1.72524 0.0939777 9.36951e-21)
(1.65159 0.0601388 4.67758e-21)
(1.5978 0.0257263 0)
(1.56637 -0.00847241 -4.60676e-21)
(1.55574 -0.0403614 4.49794e-21)
(1.55912 -0.0676069 0)
(1.56278 -0.084604 0)
(1.54399 -0.0785752 0)
(1.47106 -0.0316731 -4.58794e-21)
(1.31987 0.0647385 0)
(1.06698 0.197285 9.24982e-21)
(0.673587 0.352686 0)
(0.112525 0.548485 9.60793e-21)
(-0.628346 0.794251 0)
(-1.50884 1.04907 -1.05037e-20)
(-2.45464 1.26171 0)
(-3.40076 1.39964 1.27792e-20)
(-4.29266 1.45134 -7.92804e-21)
(-5.09426 1.42471 0)
(-5.78691 1.33851 -1.86483e-20)
(-6.36653 1.21439 -9.49826e-21)
(-6.83937 1.07178 -1.06346e-20)
(-7.21758 0.925685 0)
(-7.5157 0.786144 -1.44449e-20)
(-7.74816 0.658709 -1.36934e-20)
(-7.92777 0.545423 0)
(-8.06463 0.446088 1.50823e-20)
(-8.16618 0.359136 -3.21293e-20)
(-8.23762 0.28238 0)
(-8.28253 0.213564 -1.59154e-20)
(-8.30328 0.150568 0)
(-8.30148 0.0917195 4.768e-20)
(-8.27839 0.0360961 0)
(-8.23428 -0.0168992 -4.48756e-20)
(-8.16853 -0.0679031 -1.40692e-20)
(-8.07369 -0.117477 1.38185e-20)
(-7.94943 -0.166653 2.57439e-20)
(-7.79459 -0.215687 -2.36355e-20)
(-7.60855 -0.264419 0)
(-7.39101 -0.312406 0)
(-7.14207 -0.358981 0)
(-6.8624 -0.40334 3.78801e-20)
(-6.55318 -0.444851 9.35171e-21)
(-6.21576 -0.483653 -6.33686e-21)
(-5.85179 -0.519347 0)
(-5.46244 -0.550748 -1.12431e-21)
(-5.04979 -0.576797 -2.8846e-21)
(-4.61842 -0.596884 -5.89569e-21)
(-4.17251 -0.610571 0)
(-3.71653 -0.617645 0)
(-3.25494 -0.618198 0)
(-2.79202 -0.612555 -1.6467e-20)
(-2.33158 -0.601137 0)
(-1.87663 -0.584385 4.02886e-20)
(-1.42898 -0.562714 6.54915e-20)
(-0.988944 -0.537269 -4.62091e-20)
(-0.556501 -0.511972 0)
(-0.131766 -0.494677 -2.48673e-20)
(0.282284 -0.476349 0)
(0.682018 -0.454702 -5.12503e-20)
(1.06619 -0.433545 2.5387e-20)
(1.43239 -0.4088 2.52528e-20)
(1.77662 -0.379257 0)
(2.09836 -0.346758 7.49743e-20)
(2.3976 -0.312975 -4.92304e-20)
(2.6712 -0.279051 -2.43788e-20)
(2.9165 -0.244135 0)
(3.13239 -0.207915 -2.35411e-20)
(3.31823 -0.171729 -6.91683e-20)
(3.47379 -0.136952 0)
(3.59981 -0.104208 -4.44129e-20)
(3.69687 -0.0731888 -4.3619e-20)
(3.76807 -0.0429415 -4.28459e-20)
(3.81857 -0.011602 0)
(3.8425 0.0156942 0)
(3.83743 0.0379189 0)
(3.8056 0.0577975 1.99822e-20)
(3.74963 0.0757662 1.96986e-20)
(3.67212 0.0916189 0)
(3.57576 0.104492 3.83666e-20)
(3.46305 0.112648 3.79476e-20)
(3.33645 0.113819 0)
(3.19991 0.105172 3.73577e-20)
(3.06335 0.0841821 7.41085e-20)
(2.94867 0.0514209 -3.68983e-20)
(2.88345 0.0171413 -3.66326e-20)
(2.87252 0.00548495 0)
(2.87427 0.0424428 0)
(2.79345 0.13074 0)
(2.53128 0.251922 -3.428e-20)
(2.04467 0.387948 3.31939e-20)
(1.35885 0.518831 6.14993e-20)
(0.550449 0.612535 -2.75211e-20)
(-0.287937 0.650539 2.27721e-20)
(-1.0816 0.641383 1.80791e-20)
(-1.78543 0.594592 0)
(-2.37736 0.521998 0)
(-2.84768 0.433335 -2.17951e-21)
(-3.19661 0.336338 0)
(-3.42822 0.233089 0)
(-3.55108 0.126626 -1.02741e-20)
(-3.57276 0.0203809 0)
(-3.49262 -0.0865651 -5.12699e-21)
(-3.2915 -0.189328 1.2502e-21)
(-2.97125 -0.286295 0)
(-2.53654 -0.372396 5.06188e-21)
(-1.99742 -0.441973 0)
(-1.36678 -0.495393 0)
(-0.66113 -0.534293 -2.21923e-20)
(0.0946744 -0.55527 5.27453e-20)
(0.866328 -0.551077 -3.02176e-20)
(1.62775 -0.530726 0)
(2.36478 -0.504095 0)
(3.06454 -0.46907 3.43849e-20)
(3.7161 -0.427696 0)
(4.31225 -0.3841 3.39268e-20)
(4.84966 -0.341508 0)
(5.32706 -0.300822 0)
(5.74365 -0.261941 0)
(6.09766 -0.223937 2.87994e-20)
(6.38549 -0.185317 0)
(6.60338 -0.145167 -2.55503e-20)
(6.74471 -0.102262 0)
(6.81552 -0.0545287 0)
(6.81854 -0.00837193 4.28221e-20)
(6.74062 0.0359505 -4.06484e-20)
(6.58486 0.0782408 0)
(6.35404 0.118029 0)
(6.05539 0.154446 0)
(5.69212 0.18846 1.104e-19)
(5.30356 0.226762 0)
(4.81162 0.264561 -7.29815e-20)
(0.0526421 -0.341177 1.18109e-22)
(0.12614 -0.429614 3.84008e-21)
(0.246125 -0.510987 0)
(0.378853 -0.591867 -3.80705e-21)
(0.522809 -0.664564 0)
(0.674908 -0.723086 0)
(0.830324 -0.764436 -1.62526e-22)
(0.984723 -0.788199 1.97851e-21)
(1.13662 -0.796059 2.27174e-21)
(1.28557 -0.791109 2.1972e-21)
(1.43012 -0.77567 0)
(1.56953 -0.751491 0)
(1.70335 -0.720439 -2.87953e-21)
(1.83056 -0.684602 -6.10831e-21)
(1.951 -0.645638 6.47208e-21)
(2.06522 -0.604725 0)
(2.17334 -0.562783 7.22075e-21)
(2.27562 -0.520558 -3.61239e-21)
(2.37233 -0.47858 0)
(2.46367 -0.43714 8.33332e-21)
(2.54972 -0.396351 4.19254e-21)
(2.63053 -0.35618 -9.04724e-21)
(2.70602 -0.31644 -4.55506e-21)
(2.77609 -0.276828 0)
(2.84055 -0.237089 1.00496e-20)
(2.89915 -0.196988 1.03573e-20)
(2.95162 -0.1563 0)
(2.9976 -0.114933 1.09153e-20)
(3.03667 -0.0728448 0)
(3.06849 -0.0296142 1.1375e-20)
(3.09306 0.0152576 5.61281e-21)
(3.11014 0.0619024 0)
(3.11943 0.110129 0)
(3.12058 0.159466 0)
(3.11307 0.209182 0)
(3.09628 0.258275 0)
(3.06946 0.305482 0)
(3.03175 0.349295 1.14996e-20)
(2.98224 0.388013 -1.68192e-20)
(2.92011 0.419821 0)
(2.8448 0.442905 0)
(2.75624 0.455661 0)
(2.65508 0.45695 -1.71511e-22)
(2.54288 0.446271 1.00417e-20)
(2.42216 0.423744 1.97729e-20)
(2.29651 0.390037 -1.93755e-20)
(2.17049 0.346311 -9.47976e-21)
(2.04911 0.294009 9.39863e-21)
(1.93735 0.234546 -1.38866e-22)
(1.83966 0.169503 9.02267e-21)
(1.75912 0.101473 0)
(1.69596 0.0363688 8.87781e-21)
(1.64312 -0.0165375 -1.81736e-22)
(1.58256 -0.0444915 0)
(1.48546 -0.027677 0)
(1.31525 0.0619083 -8.94537e-21)
(1.0283 0.247913 0)
(0.590416 0.529334 0)
(-0.0139437 0.887171 9.39988e-21)
(-0.795772 1.29374 1.88141e-20)
(-1.71823 1.70931 -8.96418e-21)
(-2.70706 2.07631 0)
(-3.67212 2.33946 9.66905e-21)
(-4.54412 2.47011 0)
(-5.28443 2.46846 1.76877e-20)
(-5.88139 2.35604 1.36945e-20)
(-6.34678 2.16534 -3.81913e-20)
(-6.70413 1.93085 -2.46517e-20)
(-6.98035 1.68194 0)
(-7.19956 1.43955 5.12844e-20)
(-7.38001 1.21607 0)
(-7.53348 1.01692 8.54271e-20)
(-7.6664 0.842695 6.1352e-20)
(-7.7816 0.691322 6.36849e-20)
(-7.87973 0.559599 -6.54592e-20)
(-7.96019 0.443997 9.85724e-20)
(-8.02187 0.341029 0)
(-8.06354 0.247488 0)
(-8.08391 0.160625 -6.68417e-20)
(-8.0816 0.0780606 -9.76452e-20)
(-8.05525 -0.00227283 0)
(-8.00348 -0.081953 2.99535e-20)
(-7.92456 -0.161855 0)
(-7.81764 -0.242437 -8.2478e-20)
(-7.68187 -0.323332 1.61745e-21)
(-7.51634 -0.404246 -1.56543e-21)
(-7.32034 -0.484656 4.29e-20)
(-7.09346 -0.563787 0)
(-6.83575 -0.640639 -3.25352e-20)
(-6.54793 -0.714081 1.40424e-21)
(-6.23071 -0.783054 0)
(-5.88499 -0.84721 0)
(-5.51343 -0.905969 0)
(-5.119 -0.958217 1.30815e-21)
(-4.70538 -1.00155 0)
(-4.27642 -1.03485 0)
(-3.83636 -1.0576 0)
(-3.38975 -1.06962 0)
(-2.94109 -1.0713 0)
(-2.49443 -1.06354 -3.17052e-20)
(-2.05308 -1.04762 0)
(-1.61911 -1.02512 -4.02058e-20)
(-1.19329 -0.997513 -4.34113e-20)
(-0.775027 -0.966516 4.61358e-20)
(-0.363565 -0.934225 0)
(0.0398294 -0.902388 4.99686e-20)
(0.433782 -0.869608 0)
(0.818672 -0.834482 5.09418e-20)
(1.19304 -0.794525 -5.08922e-20)
(1.55533 -0.746613 -1.51055e-19)
(1.90427 -0.690915 0)
(2.23735 -0.63153 -1.47955e-19)
(2.54953 -0.569245 -4.81905e-20)
(2.83447 -0.505286 0)
(3.0892 -0.441294 -9.36426e-20)
(3.31475 -0.37678 -9.19802e-20)
(3.51268 -0.312489 1.35706e-19)
(3.68375 -0.24954 0)
(3.82931 -0.188742 4.37518e-20)
(3.95082 -0.130844 4.29758e-20)
(4.0497 -0.076768 1.26293e-19)
(4.12609 -0.0279804 0)
(4.18115 0.0153424 0)
(4.21757 0.0559839 0)
(4.23444 0.0933282 3.93592e-20)
(4.22894 0.126775 0)
(4.19983 0.156243 0)
(4.14625 0.181477 -3.81064e-20)
(4.06739 0.201266 -3.76799e-20)
(3.96252 0.212673 0)
(3.83157 0.210033 0)
(3.67881 0.18319 -7.34987e-20)
(3.51941 0.122594 0)
(3.37908 0.0423554 7.28502e-20)
(3.27196 0.00404425 7.27373e-20)
(3.16185 0.0816563 0)
(2.95545 0.284459 0)
(2.5518 0.561647 -6.85162e-20)
(1.91749 0.842337 -1.65597e-22)
(1.12074 1.06022 -7.65974e-22)
(0.278883 1.17257 0)
(-0.513561 1.17782 -8.84679e-20)
(-1.21283 1.10731 0)
(-1.80752 0.987528 0)
(-2.30097 0.839948 0)
(-2.69949 0.677959 5.5701e-21)
(-3.00796 0.508686 0)
(-3.22685 0.336085 1.88194e-20)
(-3.3512 0.161738 1.02666e-20)
(-3.37341 -0.0144845 0)
(-3.28503 -0.190519 8.71959e-21)
(-3.08074 -0.365735 0)
(-2.75948 -0.533744 0)
(-2.32383 -0.686853 -3.12022e-20)
(-1.77702 -0.818575 4.02721e-20)
(-1.12991 -0.924049 0)
(-0.407109 -0.997853 8.42965e-20)
(0.362715 -1.0315 -5.26135e-20)
(1.15187 -1.0282 0)
(1.93525 -0.994824 0)
(2.69245 -0.940804 0)
(3.40904 -0.870608 -2.05038e-19)
(4.07846 -0.790841 0)
(4.69791 -0.708071 -6.75223e-20)
(5.26671 -0.625671 0)
(5.78538 -0.544715 0)
(6.25454 -0.465189 0)
(6.67491 -0.385489 0)
(7.04686 -0.302155 0)
(7.36811 -0.213327 0)
(7.63301 -0.118775 -9.46049e-20)
(7.82505 -0.0207737 0)
(7.9262 0.0637544 -4.29426e-20)
(7.92456 0.14689 1.21399e-19)
(7.80597 0.228681 0)
(7.56541 0.303483 0)
(7.21148 0.367129 -7.42306e-20)
(6.7543 0.418098 -7.4669e-20)
(6.24573 0.465287 7.37559e-20)
(5.65064 0.502417 7.40814e-20)
(0.0601108 -0.532006 -6.54982e-21)
(0.142182 -0.665349 -6.19054e-21)
(0.274059 -0.780687 -4.24023e-21)
(0.41402 -0.886544 -2.31239e-21)
(0.558307 -0.972038 0)
(0.703759 -1.03228 4.40868e-21)
(0.846394 -1.06764 -2.51611e-21)
(0.983705 -1.08137 0)
(1.11552 -1.07799 -2.25813e-21)
(1.2418 -1.0608 0)
(1.36204 -1.03231 5.63029e-21)
(1.47643 -0.994775 0)
(1.58537 -0.950192 2.88418e-21)
(1.68914 -0.900647 6.13195e-21)
(1.78804 -0.848554 -6.50788e-21)
(1.88258 -0.795583 0)
(1.97338 -0.742727 -7.27744e-21)
(2.06098 -0.690548 0)
(2.14574 -0.639306 0)
(2.22787 -0.589051 -8.41552e-21)
(2.30741 -0.539671 0)
(2.38432 -0.490921 -3.06918e-22)
(2.45837 -0.442414 0)
(2.52937 -0.393835 0)
(2.59707 -0.344927 2.90793e-22)
(2.66098 -0.295319 -1.04278e-20)
(2.72059 -0.244682 -1.10228e-20)
(2.77539 -0.192836 -1.09763e-20)
(2.82466 -0.139514 0)
(2.86769 -0.0839617 -2.32142e-20)
(2.90346 -0.0259215 0)
(2.93125 0.0343107 -1.21328e-20)
(2.95052 0.0961391 0)
(2.96082 0.158822 0)
(2.96179 0.221591 1.22326e-20)
(2.95321 0.283612 0)
(2.93494 0.343919 -1.20454e-20)
(2.90688 0.401372 3.9756e-22)
(2.86891 0.454622 2.29776e-20)
(2.82078 0.50209 -2.28609e-20)
(2.76216 0.541984 0)
(2.69262 0.572362 0)
(2.61186 0.591309 -1.07562e-20)
(2.51978 0.597195 0)
(2.4169 0.588376 -9.86601e-21)
(2.30498 0.563147 9.63745e-21)
(2.18695 0.521277 9.43e-21)
(2.06686 0.463748 0)
(1.94923 0.392431 -9.09842e-21)
(1.83839 0.310428 -8.97978e-21)
(1.73659 0.224524 1.73978e-20)
(1.63775 0.150415 -8.8374e-21)
(1.52269 0.112772 -8.81123e-21)
(1.35977 0.142263 0)
(1.10703 0.273736 0)
(0.716753 0.538738 8.94092e-21)
(0.152848 0.948283 0)
(-0.5926 1.47073 0)
(-1.48455 2.04072 -1.74923e-20)
(-2.45672 2.58156 -1.75026e-20)
(-3.41929 3.01553 0)
(-4.28681 3.28594 0)
(-5.00432 3.37379 0)
(-5.55722 3.29744 0)
(-5.96087 3.09591 -2.88001e-20)
(-6.24936 2.81665 4.03158e-20)
(-6.4615 2.50298 3.77114e-20)
(-6.6301 2.18733 9.1364e-20)
(-6.77735 1.88953 0)
(-6.9148 1.61888 5.70811e-21)
(-7.04623 1.3777 0)
(-7.17091 1.16447 -5.83918e-20)
(-7.28621 0.975884 4.37776e-21)
(-7.38916 0.808173 -6.37304e-20)
(-7.47713 0.657669 6.55852e-20)
(-7.54797 0.521001 3.41222e-21)
(-7.60003 0.395094 0)
(-7.6319 0.27718 7.06523e-20)
(-7.6424 0.164831 6.7272e-20)
(-7.63036 0.0558925 1.35077e-19)
(-7.59444 -0.0515438 0)
(-7.53321 -0.158811 -6.43843e-20)
(-7.4454 -0.266937 0)
(-7.32968 -0.376359 1.13791e-19)
(-7.18491 -0.486904 -5.20141e-20)