/*--------------------------------*- C++ -*----------------------------------*\
| =========                 |                                                 |
| \\      /  F ield         | OpenFOAM: The Open Source CFD Toolbox           |
|  \\    /   O peration     | Version:  2112                                  |
|   \\  /    A nd           | Website:  www.openfoam.com                      |
|    \\/     M anipulation  |                                                 |
\*---------------------------------------------------------------------------*/
FoamFile
{
    version     2.0;
    format      ascii;
    arch        "LSB;label=32;scalar=64";
    class       surfaceScalarField;
    location    "0.08";
    object      phi;
}
// * * * * * * * * * * * * * * * * * * * * * * * * * * * * * * * * * * * * * //

dimensions      [0 3 -1 0 0 0 0];

oriented        oriented;

internalField   nonuniform List<scalar> 
3067
(
5.07992e-05
8.0281e-10
5.0796e-05
3.15711e-09
5.0789e-05
6.99298e-09
5.07747e-05
1.43297e-08
5.07515e-05
2.32401e-08
5.07057e-05
4.57479e-08
5.06466e-05
5.91528e-08
1.73734e-07
5.04728e-05
2.03204e-05
3.58573e-10
2.03219e-05
1.70408e-09
2.03244e-05
4.48836e-09
2.0329e-05
9.72282e-09
2.03341e-05
1.81532e-08
2.0345e-05
3.48267e-08
2.03463e-05
5.78426e-08
1.46236e-07
2.03738e-05
2.03201e-05
2.22037e-10
2.03208e-05
1.05392e-09
2.03224e-05
2.86865e-09
2.03257e-05
6.45648e-09
2.03309e-05
1.29247e-08
2.03403e-05
2.54074e-08
2.03504e-05
4.77784e-08
1.22455e-07
2.03742e-05
2.03201e-05
1.21315e-10
2.03206e-05
5.72592e-10
2.03219e-05
1.56695e-09
2.03247e-05
3.60504e-09
2.03301e-05
7.5705e-09
2.03396e-05
1.58521e-08
2.03541e-05
3.33644e-08
9.43973e-08
2.03821e-05
2.03201e-05
2.35581e-11
2.03206e-05
1.07639e-10
2.03218e-05
2.95644e-10
2.03247e-05
7.37301e-10
2.03304e-05
1.90182e-09
2.03406e-05
5.60288e-09
2.03574e-05
1.65691e-08
6.30793e-08
2.03887e-05
2.03201e-05
-8.42861e-11
2.03206e-05
-4.03904e-10
2.0322e-05
-1.09872e-09
2.03251e-05
-2.3965e-09
2.03313e-05
-4.28035e-09
2.03424e-05
-5.4661e-09
2.03608e-05
-1.82817e-09
2.94614e-08
2.03944e-05
2.54002e-05
-2.50793e-10
2.5401e-05
-1.19211e-09
2.54031e-05
-3.22162e-09
2.54077e-05
-7.0138e-09
2.54164e-05
-1.29807e-08
2.54314e-05
-2.04614e-08
2.5456e-05
-2.64133e-08
-1.46895e-08
2.55001e-05
2.54002e-05
-4.9743e-10
2.54015e-05
-2.42436e-09
2.54047e-05
-6.396e-09
2.54108e-05
-1.31654e-08
2.5421e-05
-2.3223e-08
2.54373e-05
-3.67303e-08
2.5463e-05
-5.20481e-08
-5.97468e-08
2.5508e-05
2.54013e-05
-1.81336e-09
2.5405e-05
-6.1346e-09
2.54113e-05
-1.26306e-08
2.54202e-05
-2.20928e-08
2.54322e-05
-3.52691e-08
2.54486e-05
-5.31321e-08
2.54719e-05
-7.53464e-08
-9.61255e-08
2.55083e-05
2.53982e-05
2.53921e-05
2.53794e-05
2.53573e-05
2.53221e-05
2.52689e-05
2.51936e-05
2.50975e-05
-1.35012e-06
1.35012e-06
-3.98862e-06
2.63849e-06
-7.23168e-06
3.24306e-06
-1.03392e-05
3.10753e-06
-1.27932e-05
2.45396e-06
-1.45443e-05
1.75114e-06
-1.57544e-05
1.21007e-06
-1.65954e-05
8.40988e-07
-1.71987e-05
6.03335e-07
-1.76473e-05
4.48634e-07
-1.79906e-05
3.43233e-07
-1.82573e-05
2.6675e-07
-1.84658e-05
2.08442e-07
-1.86718e-05
2.06001e-07
-1.88254e-05
1.53624e-07
-1.89293e-05
1.03952e-07
-1.89865e-05
5.7119e-08
-1.89991e-05
1.26363e-08
-1.8976e-05
-2.31261e-08
-1.89258e-05
-5.01504e-08
-1.88541e-05
-7.16974e-08
-1.87654e-05
-8.86981e-08
-1.86617e-05
-1.03701e-07
-1.85411e-05
-1.2063e-07
-1.83968e-05
-1.44317e-07
-1.82171e-05
-1.79699e-07
-1.79846e-05
-2.32426e-07
-1.7676e-05
-3.08694e-07
-1.72619e-05
-4.14078e-07
-1.67087e-05
-5.53141e-07
-1.59788e-05
-7.29909e-07
-1.50327e-05
-9.46163e-07
-1.38316e-05
-1.2011e-06
-1.23445e-05
-1.48702e-06
-1.0551e-05
-1.79354e-06
-8.42916e-06
-2.12184e-06
-5.98356e-06
-2.44559e-06
-3.23551e-06
-2.74805e-06
-2.27683e-07
-3.00783e-06
2.97679e-06
-3.20447e-06
6.33795e-06
-3.36116e-06
9.77265e-06
-3.4347e-06
1.31714e-05
-3.3987e-06
1.63864e-05
-3.21509e-06
1.92237e-05
-2.83729e-06
2.14896e-05
-2.26587e-06
2.30177e-05
-1.52812e-06
2.37353e-05
-7.1757e-07
2.35519e-05
1.83409e-07
9.69318e-07
2.25826e-05
-1.0847e-06
2.43483e-06
-2.53088e-06
4.08467e-06
-4.00441e-06
4.71659e-06
-5.179e-06
4.28211e-06
-5.92324e-06
3.1982e-06
-6.3496e-06
2.1775e-06
-6.60167e-06
1.46213e-06
-6.76716e-06
1.00648e-06
-6.88678e-06
7.22953e-07
-6.9765e-06
5.3835e-07
-7.04153e-06
4.08266e-07
-7.08404e-06
3.09258e-07
-7.10542e-06
2.29827e-07
-7.10397e-06
2.0455e-07
-7.07227e-06
1.21924e-07
-7.0104e-06
4.20764e-08
-6.92014e-06
-3.31399e-08
-6.80426e-06
-1.0324e-07
-6.66632e-06
-1.61064e-07
-6.5096e-06
-2.06878e-07
-6.33944e-06
-2.41857e-07
-6.15996e-06
-2.68172e-07
-5.9739e-06
-2.89763e-07
-5.78195e-06
-3.12581e-07
-5.58189e-06
-3.4438e-07
-5.36827e-06
-3.93315e-07
-5.13212e-06
-4.68579e-07
-4.85978e-06
-5.81034e-07
-4.53301e-06
-7.40844e-07
-4.13053e-06
-9.55626e-07
-3.62765e-06
-1.23279e-06
-2.99803e-06
-1.57578e-06
-2.21364e-06
-1.98549e-06
-1.24606e-06
-2.4546e-06
-7.09068e-08
-2.96869e-06
1.30722e-06
-3.49997e-06
2.91136e-06
-4.04973e-06
4.72944e-06
-4.56613e-06
6.73141e-06
-5.0098e-06
8.89682e-06
-5.36988e-06
1.11816e-05
-5.64595e-06
1.35325e-05
-5.78559e-06
1.58454e-05
-5.71162e-06
1.79882e-05
-5.3579e-06
1.98198e-05
-4.66886e-06
2.1208e-05
-3.65403e-06
2.20765e-05
-2.39665e-06
2.23979e-05
-1.03894e-06
2.2296e-05
2.85241e-07
1.39507e-06
2.18703e-05
-4.26566e-07
2.86139e-06
-9.28891e-07
4.58699e-06
-1.40383e-06
5.19153e-06
-1.73864e-06
4.61692e-06
-1.94621e-06
3.40578e-06
-2.08513e-06
2.31642e-06
-2.18694e-06
1.56394e-06
-2.26536e-06
1.08491e-06
-2.32461e-06
7.82197e-07
-2.36562e-06
5.79357e-07
-2.38875e-06
4.31404e-07
-2.39472e-06
3.15229e-07
-2.38528e-06
2.20385e-07
-2.35323e-06
1.72493e-07
-2.29774e-06
6.6435e-08
-2.21849e-06
-3.71682e-08
-2.11604e-06
-1.35593e-07
-1.99367e-06
-2.25611e-07
-1.85268e-06
-3.02055e-07
-1.69661e-06
-3.62943e-07
-1.52912e-06
-4.09349e-07
-1.35341e-06
-4.43878e-07
-1.17166e-06
-4.7152e-07
-9.84682e-07
-4.99556e-07
-7.91484e-07
-5.37578e-07
-5.88935e-07
-5.95864e-07
-3.71774e-07
-6.85741e-07
-1.32013e-07
-8.20794e-07
1.41017e-07
-1.01387e-06
4.61568e-07
-1.27618e-06
8.46104e-07
-1.61732e-06
1.31353e-06
-2.0432e-06
1.8841e-06
-2.55607e-06
2.57767e-06
-3.14817e-06
3.40555e-06
-3.79656e-06
4.38233e-06
-4.47676e-06
5.50239e-06
-5.16978e-06
6.75546e-06
-5.81921e-06
8.12585e-06
-6.38019e-06
9.6036e-06
-6.84763e-06
1.11678e-05
-7.21012e-06
1.2772e-05
-7.38985e-06
1.43275e-05
-7.26712e-06
1.57252e-05
-6.75554e-06
1.68676e-05
-5.81131e-06
1.76704e-05
-4.45684e-06
1.80906e-05
-2.81682e-06
1.81137e-05
-1.06206e-06
1.78114e-05
5.87601e-07
1.90929e-06
1.72972e-05
-7.73025e-08
2.9387e-06
-1.71653e-07
4.68134e-06
-2.62512e-07
5.28239e-06
-3.02171e-07
4.65658e-06
-3.33926e-07
3.43754e-06
-3.77427e-07
2.35992e-06
-4.22901e-07
1.60942e-06
-4.6198e-07
1.12398e-06
-4.89754e-07
8.09971e-07
-5.03831e-07
5.93434e-07
-5.03909e-07
4.31482e-07
-4.90843e-07
3.02164e-07
-4.66691e-07
1.96233e-07
-4.2139e-07
1.27192e-07
-3.59307e-07
4.35224e-09
-2.80989e-07
-1.15486e-07
-1.86983e-07
-2.29599e-07
-7.88564e-08
-3.33738e-07
4.1715e-08
-4.22626e-07
1.72522e-07
-4.93751e-07
3.11352e-07
-5.48178e-07
4.56289e-07
-5.88816e-07
6.06091e-07
-6.21322e-07
7.60587e-07
-6.54052e-07
9.20536e-07
-6.97527e-07
1.08782e-06
-7.63147e-07
1.26654e-06
-8.64464e-07
1.46305e-06
-1.0173e-06
1.6851e-06
-1.23593e-06
1.94133e-06
-1.53241e-06
2.242e-06
-1.918e-06
2.59993e-06
-2.40113e-06
3.02845e-06
-2.98458e-06
3.53805e-06
-3.65777e-06
4.13356e-06
-4.39207e-06
4.81903e-06
-5.16223e-06
5.59064e-06
-5.94139e-06
6.44125e-06
-6.66982e-06
7.3692e-06
-7.30815e-06
8.37652e-06
-7.85495e-06
9.44795e-06
-8.28154e-06
1.05366e-05
-8.47852e-06
1.15678e-05
-8.2983e-06
1.2469e-05
-7.6567e-06
1.31883e-05
-6.53062e-06
1.36735e-05
-4.94213e-06
1.38895e-05
-3.03276e-06
1.38149e-05
-9.87491e-07
1.34734e-05
9.29154e-07
2.4156e-06
1.2967e-05
4.75138e-08
2.89118e-06
1.03243e-07
4.62561e-06
1.55005e-07
5.23063e-06
2.11892e-07
4.59969e-06
2.39019e-07
3.41041e-06
2.35159e-07
2.36378e-06
2.18092e-07
1.62648e-06
2.00762e-07
1.14131e-06
1.90662e-07
8.20071e-07
1.90926e-07
5.9317e-07
2.01794e-07
4.20613e-07
2.22293e-07
2.81665e-07
2.50503e-07
1.68023e-07
2.96283e-07
8.14113e-08
3.53344e-07
-5.27086e-08
4.20972e-07
-1.83114e-07
4.98555e-07
-3.07181e-07
5.84981e-07
-4.20164e-07
6.79078e-07
-5.16723e-07
7.79639e-07
-5.94312e-07
8.85268e-07
-6.53807e-07
9.9507e-07
-6.98618e-07
1.10834e-06
-7.34591e-07
1.22537e-06
-7.71082e-07
1.34782e-06
-8.19975e-07
1.47775e-06
-8.93081e-07
1.61772e-06
-1.00444e-06
1.7715e-06
-1.17107e-06
1.94409e-06
-1.40852e-06
2.1407e-06
-1.72902e-06
2.36792e-06
-2.14522e-06
2.63359e-06
-2.6668e-06
2.94428e-06
-3.29528e-06
3.3042e-06
-4.01769e-06
3.71579e-06
-4.80367e-06
4.18185e-06
-5.62829e-06
4.70107e-06
-6.46061e-06
5.27135e-06
-7.2401e-06
5.89698e-06
-7.93377e-06
6.58063e-06
-8.53861e-06
7.30231e-06
-9.00322e-06
8.01641e-06
-9.19262e-06
8.67101e-06
-8.9529e-06
9.23201e-06
-8.2177e-06
9.67939e-06
-6.97799e-06
9.98171e-06
-5.24445e-06
1.01108e-05
-3.1619e-06
1.00474e-05
-9.24008e-07
9.78655e-06
1.18996e-06
2.81941e-06
9.38275e-06
7.68325e-08
2.81435e-06
1.71706e-07
4.53074e-06
2.59602e-07
5.14273e-06
3.38281e-07
4.52101e-06
3.82692e-07
3.366e-06
3.94503e-07
2.35197e-06
3.91155e-07
1.62983e-06
3.85203e-07
1.14727e-06
3.84167e-07
8.21107e-07
3.90817e-07
5.8652e-07
4.05222e-07
4.06209e-07
4.26392e-07
2.60495e-07
4.52712e-07
1.41703e-07
4.92558e-07
4.15653e-08
5.39691e-07
-9.98423e-08
5.9348e-07
-2.36902e-07
6.53397e-07
-3.67098e-07
7.18547e-07
-4.85314e-07
7.88206e-07
-5.86383e-07
8.61836e-07
-6.67941e-07
9.3847e-07
-7.30441e-07
1.01784e-06
-7.77986e-07
1.10057e-06
-8.17319e-07
1.1872e-06
-8.57718e-07
1.27851e-06
-9.11282e-07
1.37587e-06
-9.90445e-07
1.48088e-06
-1.10944e-06
1.59581e-06
-1.286e-06
1.7234e-06
-1.53611e-06
1.86682e-06
-1.87243e-06
2.03056e-06
-2.30897e-06
2.21918e-06
-2.85542e-06
2.43599e-06
-3.51209e-06
2.683e-06
-4.26469e-06
2.96196e-06
-5.08263e-06
3.27527e-06
-5.9416e-06
3.62274e-06
-6.80808e-06
4.00466e-06
-7.62202e-06
4.4262e-06
-8.35531e-06
4.8865e-06
-8.99891e-06
5.36364e-06
-9.48037e-06
5.82169e-06
-9.65067e-06
6.23128e-06
-9.36248e-06
6.58075e-06
-8.56718e-06
6.86217e-06
-7.25941e-06
7.05483e-06
-5.4371e-06
7.13622e-06
-3.24329e-06
7.09331e-06
-8.81095e-07
6.91618e-06
1.36709e-06
3.10729e-06
6.6283e-06
7.3909e-08
2.74044e-06
1.63352e-07
4.4413e-06
2.47364e-07
5.05872e-06
3.21223e-07
4.44715e-06
3.65019e-07
3.3222e-06
3.81028e-07
2.33596e-06
3.8347e-07
1.62739e-06
3.8285e-07
1.14789e-06
3.85692e-07
8.18265e-07
3.94126e-07
5.78086e-07
4.08073e-07
3.92262e-07
4.26632e-07
2.41935e-07
4.48524e-07
1.19812e-07
4.80336e-07
9.7531e-09
5.16765e-07
-1.36272e-07
5.57356e-07
-2.77493e-07
6.01682e-07
-4.11424e-07
6.49033e-07
-5.32665e-07
6.98989e-07
-6.3634e-07
7.51431e-07
-7.20383e-07
8.06213e-07
-7.85223e-07
8.63322e-07
-8.35095e-07
9.23158e-07
-8.77155e-07
9.86098e-07
-9.20658e-07
1.05235e-06
-9.77536e-07
1.12268e-06
-1.06078e-06
1.19824e-06
-1.185e-06
1.2806e-06
-1.36836e-06
1.37132e-06
-1.62683e-06
1.47252e-06
-1.97363e-06
1.58711e-06
-2.42355e-06
1.71774e-06
-2.98606e-06
1.86634e-06
-3.66068e-06
2.03397e-06
-4.43233e-06
2.22198e-06
-5.27065e-06
2.43233e-06
-6.15194e-06
2.66519e-06
-7.04094e-06
2.9217e-06
-7.87854e-06
3.20586e-06
-8.63947e-06
3.51434e-06
-9.30738e-06
3.82806e-06
-9.79409e-06
4.12245e-06
-9.94506e-06
4.38217e-06
-9.62221e-06
4.60456e-06
-8.78957e-06
4.78575e-06
-7.4406e-06
4.91092e-06
-5.56228e-06
4.96262e-06
-3.29499e-06
4.93177e-06
-8.50245e-07
4.81195e-06
1.48691e-06
3.30561e-06
4.61362e-06
6.29003e-08
2.67754e-06
1.42706e-07
4.36149e-06
2.23808e-07
4.97762e-06
2.98925e-07
4.37204e-06
3.49857e-07
3.27127e-06
3.7686e-07
2.30896e-06
3.90879e-07
1.61337e-06
4.01227e-07
1.13754e-06
4.14362e-07
8.0513e-07
4.32408e-07
5.6004e-07
4.5539e-07
3.69281e-07
4.82527e-07
2.14798e-07
5.12652e-07
8.96875e-08
5.54903e-07
-3.24982e-08
6.02377e-07
-1.83746e-07
6.54854e-07
-3.2997e-07
7.12081e-07
-4.68651e-07
7.73763e-07
-5.94347e-07
8.39725e-07
-7.02302e-07
9.09901e-07
-7.90559e-07
9.84699e-07
-8.60021e-07
1.06435e-06
-9.14751e-07
1.14904e-06
-9.61845e-07
1.23923e-06
-1.01085e-06
1.33535e-06
-1.07366e-06
1.43846e-06
-1.16388e-06
1.55022e-06
-1.29677e-06
1.67269e-06
-1.49082e-06
1.80788e-06
-1.76203e-06
1.95871e-06
-2.12446e-06
2.12899e-06
-2.59383e-06
2.32225e-06
-3.17932e-06
2.54133e-06
-3.87976e-06
2.78832e-06
-4.67932e-06
3.06615e-06
-5.54848e-06
3.37883e-06
-6.46462e-06
3.72841e-06
-7.39053e-06
4.11888e-06
-8.269e-06
4.55662e-06
-9.07721e-06
5.03417e-06
-9.78493e-06
5.52198e-06
-1.02819e-05
5.98772e-06
-1.04108e-05
6.41557e-06
-1.00501e-05
6.80634e-06
-9.18034e-06
7.154e-06
-7.78826e-06
7.43155e-06
-5.83982e-06
7.60697e-06
-3.47042e-06
7.65793e-06
-9.012e-07
7.57732e-06
1.56751e-06
3.51583e-06
7.36711e-06
4.91918e-08
2.62835e-06
1.14868e-07
4.29582e-06
1.85291e-07
4.9072e-06
2.52764e-07
4.30457e-06
3.02275e-07
3.22176e-06
3.32985e-07
2.27825e-06
3.52633e-07
1.59372e-06
3.68878e-07
1.12129e-06
3.87477e-07
7.8653e-07
4.10213e-07
5.37305e-07
4.37066e-07
3.42427e-07
4.67339e-07
1.84525e-07
5.0002e-07
5.70059e-08
5.45137e-07
-7.76154e-08
5.95335e-07
-2.33944e-07
6.50395e-07
-3.8503e-07
7.10147e-07
-5.28403e-07
7.74629e-07
-6.58829e-07
8.43802e-07
-7.71475e-07
9.17476e-07
-8.64233e-07
9.95964e-07
-9.38509e-07
1.07948e-06
-9.98271e-07
1.1682e-06
-1.05056e-06
1.26258e-06
-1.10522e-06
1.36319e-06
-1.17427e-06
1.47115e-06
-1.27184e-06
1.58819e-06
-1.41381e-06
1.71613e-06
-1.61876e-06
1.85685e-06
-1.90275e-06
2.01313e-06
-2.28074e-06
2.18829e-06
-2.769e-06
2.38541e-06
-3.37643e-06
2.60696e-06
-4.10131e-06
2.85489e-06
-4.92724e-06
3.13248e-06
-5.82607e-06
3.44417e-06
-6.77631e-06
3.7928e-06
-7.73916e-06
4.18342e-06
-8.65962e-06
4.62083e-06
-9.51461e-06
5.09236e-06
-1.02565e-05
5.56586e-06
-1.07554e-05
6.01354e-06
-1.08585e-05
6.42834e-06
-1.04648e-05
6.81853e-06
-9.57053e-06
7.17901e-06
-8.14874e-06
7.47855e-06
-6.13936e-06
7.68022e-06
-3.67209e-06
7.75391e-06
-9.74889e-07
7.69749e-06
1.62393e-06
3.70106e-06
7.51226e-06
3.06998e-07
2.32135e-06
7.12211e-07
3.8906e-06
1.10638e-06
4.51302e-06
1.42069e-06
3.99026e-06
1.61438e-06
3.02807e-06
1.71194e-06
2.18069e-06
1.75484e-06
1.55082e-06
1.78222e-06
1.09391e-06
1.81994e-06
7.48814e-07
1.87293e-06
4.84308e-07
1.93863e-06
2.76732e-07
2.01325e-06
1.09905e-07
2.09257e-06
-2.23132e-08
2.19924e-06
-1.84288e-07
2.31327e-06
-3.47975e-07
2.43195e-06
-5.03708e-07
2.55396e-06
-6.50418e-07
2.67852e-06
-7.83381e-07
2.80466e-06
-8.97621e-07
2.93129e-06
-9.90862e-07
3.058e-06
-1.06522e-06
3.18478e-06
-1.12505e-06
3.31191e-06
-1.1777e-06
3.44023e-06
-1.23354e-06
3.57114e-06
-1.30518e-06
3.70684e-06
-1.40755e-06
3.85005e-06
-1.55702e-06
4.00288e-06
-1.77158e-06
4.16755e-06
-2.06742e-06
4.34723e-06
-2.46042e-06
4.54503e-06
-2.9668e-06
4.76319e-06
-3.59459e-06
5.00241e-06
-4.34053e-06
5.26301e-06
-5.18785e-06
5.54822e-06
-6.11128e-06
5.86255e-06
-7.09063e-06
6.20771e-06
-8.08432e-06
6.58738e-06
-9.03929e-06
6.99837e-06
-9.9256e-06
7.40914e-06
-1.06672e-05
7.77202e-06
-1.11183e-05
8.06292e-06
-1.11494e-05
8.29306e-06
-1.0695e-05
8.48654e-06
-9.76401e-06
8.63774e-06
-8.29994e-06
8.70515e-06
-6.20677e-06
8.64918e-06
-3.61613e-06
8.4408e-06
-7.66504e-07
8.09535e-06
1.96938e-06
4.16141e-06
7.635e-06
3.54395e-07
1.96696e-06
8.58545e-07
3.38645e-06
1.36113e-06
4.01044e-06
1.77045e-06
3.58094e-06
2.05142e-06
2.7471e-06
2.23162e-06
2.00049e-06
2.35506e-06
1.42737e-06
2.45942e-06
9.89557e-07
2.56221e-06
6.46024e-07
2.66568e-06
3.80834e-07
2.77004e-06
1.72373e-07
2.87323e-06
6.71399e-09
2.97283e-06
-1.21912e-07
3.09614e-06
-3.07596e-07
3.21924e-06
-4.7107e-07
3.34066e-06
-6.25134e-07
3.45965e-06
-7.69406e-07
3.57517e-06
-8.98903e-07
3.68646e-06
-1.00891e-06
3.79349e-06
-1.09789e-06
3.89678e-06
-1.16851e-06
3.99741e-06
-1.22567e-06
4.09701e-06
-1.2773e-06
4.19757e-06
-1.3341e-06
4.30139e-06
-1.40899e-06
4.41125e-06
-1.51741e-06
4.5296e-06
-1.67537e-06
4.65818e-06
-1.90016e-06
4.79909e-06
-2.20834e-06
4.95464e-06
-2.61597e-06
5.12689e-06
-3.13905e-06
5.31719e-06
-3.78489e-06
5.52573e-06
-4.54907e-06
5.75356e-06
-5.41569e-06
6.00594e-06
-6.36365e-06
6.28822e-06
-7.37292e-06
6.60255e-06
-8.39865e-06
6.95105e-06
-9.38779e-06
7.32227e-06
-1.02968e-05
7.67676e-06
-1.10217e-05
7.97068e-06
-1.14122e-05
8.19761e-06
-1.13763e-05
8.3876e-06
-1.0885e-05
8.57015e-06
-9.94656e-06
8.72979e-06
-8.45958e-06
8.81012e-06
-6.2871e-06
8.76445e-06
-3.57046e-06
8.55836e-06
-5.60417e-07
8.20616e-06
2.32158e-06
4.62709e-06
7.74049e-06
3.60709e-07
1.60625e-06
9.37758e-07
2.8094e-06
1.53058e-06
3.41762e-06
2.05135e-06
3.06017e-06
2.46339e-06
2.33506e-06
2.78187e-06
1.68201e-06
3.04201e-06
1.16723e-06
3.26727e-06
7.64294e-07
3.4593e-06
4.54e-07
3.62278e-06
2.17352e-07
3.76633e-06
2.88192e-08
3.89269e-06
-1.1964e-07
4.00335e-06
-2.32575e-07
4.13047e-06
-4.34713e-07
4.24905e-06
-5.89653e-07
4.35877e-06
-7.34853e-07
4.45937e-06
-8.70008e-07
4.55011e-06
-9.89646e-07
4.63106e-06
-1.08986e-06
4.70365e-06
-1.17048e-06
4.76996e-06
-1.23482e-06
4.83256e-06
-1.28827e-06
4.89434e-06
-1.33908e-06
4.95822e-06
-1.39798e-06
5.02712e-06
-1.47789e-06
5.10395e-06
-1.59424e-06
5.19088e-06
-1.76229e-06
5.28953e-06
-1.99881e-06
5.40151e-06
-2.32033e-06
5.52825e-06
-2.74271e-06
5.67088e-06
-3.28168e-06
5.82988e-06
-3.94389e-06
6.00542e-06
-4.72461e-06
6.20001e-06
-5.61028e-06
6.42081e-06
-6.58444e-06
6.67285e-06
-7.62496e-06
6.9571e-06
-8.6829e-06
7.27188e-06
-9.70257e-06
7.59713e-06
-1.06221e-05
7.88852e-06
-1.13131e-05
8.11146e-06
-1.16351e-05
8.28179e-06
-1.15466e-05
8.44626e-06
-1.10494e-05
8.63226e-06
-1.01326e-05
8.80877e-06
-8.63609e-06
8.90357e-06
-6.3819e-06
8.86678e-06
-3.53366e-06
8.66499e-06
-3.58629e-07
8.3068e-06
2.67976e-06
5.10226e-06
7.83163e-06
3.16317e-07
1.28993e-06
9.69085e-07
2.15664e-06
1.69542e-06
2.69129e-06
2.40226e-06
2.35333e-06
3.01023e-06
1.72709e-06
3.4949e-06
1.19735e-06
3.87886e-06
7.83272e-07
4.18997e-06
4.53186e-07
4.44353e-06
2.00435e-07
4.65365e-06
7.23372e-09
4.82449e-06
-1.42023e-07
4.96179e-06
-2.5694e-07
5.07402e-06
-3.448e-07
5.1952e-06
-5.55892e-07
5.30047e-06
-6.94927e-07
5.3895e-06
-8.23883e-07
5.46234e-06
-9.42847e-07
5.51949e-06
-1.04679e-06
5.5628e-06
-1.13316e-06
5.59533e-06
-1.20302e-06
5.62055e-06
-1.26004e-06
5.64212e-06
-1.30984e-06
5.66377e-06
-1.36073e-06
5.68903e-06
-1.42324e-06
5.72109e-06
-1.50995e-06
5.76268e-06
-1.63583e-06
5.81588e-06
-1.81549e-06
5.88225e-06
-2.06517e-06
5.9628e-06
-2.40088e-06
6.05839e-06
-2.8383e-06
6.1692e-06
-3.3925e-06
6.29513e-06
-4.06981e-06
6.43741e-06
-4.86689e-06
6.60042e-06
-5.77329e-06
6.7923e-06
-6.77633e-06
7.01611e-06
-7.84877e-06
7.27015e-06
-8.93694e-06
7.54753e-06
-9.97995e-06
7.82072e-06
-1.08953e-05
8.04386e-06
-1.15363e-05
8.19864e-06
-1.17899e-05
8.32524e-06
-1.16732e-05
8.48041e-06
-1.12046e-05
8.6806e-06
-1.03327e-05
8.87376e-06
-8.82925e-06
8.97579e-06
-6.48393e-06
8.94035e-06
-3.49822e-06
8.74415e-06
-1.62428e-07
8.38824e-06
3.03567e-06
5.58369e-06
7.90681e-06
2.5526e-07
1.03467e-06
1.16228e-06
1.24962e-06
2.22322e-06
1.63034e-06
3.19864e-06
1.37791e-06
3.96506e-06
9.60669e-07
4.52819e-06
6.3422e-07
4.93631e-06
3.75144e-07
5.24409e-06
1.45414e-07
5.48922e-06
-4.47039e-08
5.68955e-06
-1.93092e-07
5.85042e-06
-3.02898e-07
5.97939e-06
-3.85902e-07
6.08271e-06
-4.48125e-07
6.18871e-06
-6.6189e-07
6.27304e-06
-7.79255e-07
6.3351e-06
-8.85944e-07
6.37541e-06
-9.83154e-07
6.39639e-06
-1.06778e-06
6.40216e-06
-1.13893e-06
6.39712e-06
-1.19798e-06
6.38545e-06
-1.24837e-06
6.37123e-06
-1.29563e-06
6.35832e-06
-1.34781e-06
6.35026e-06
-1.41519e-06
6.35015e-06
-1.50983e-06
6.36032e-06
-1.646e-06
6.38271e-06
-1.83788e-06
6.41879e-06
-2.10125e-06
6.46928e-06
-2.45137e-06
6.53485e-06
-2.90386e-06
6.61495e-06
-3.47259e-06
6.70953e-06
-4.1644e-06
6.82175e-06
-4.9791e-06
6.95782e-06
-5.90936e-06
7.1245e-06
-6.94301e-06
7.32137e-06
-8.04564e-06
7.54441e-06
-9.15998e-06
7.78154e-06
-1.02171e-05
7.99599e-06
-1.11097e-05
8.14582e-06
-1.16861e-05
8.23962e-06
-1.18837e-05
8.3385e-06
-1.17721e-05
8.49822e-06
-1.13643e-05
8.7151e-06
-1.05496e-05
8.91418e-06
-9.02833e-06
9.00991e-06
-6.57966e-06
8.9668e-06
-3.45512e-06
8.77432e-06
3.00555e-08
8.43166e-06
3.37833e-06
6.05794e-06
7.95741e-06
1.21832e-06
-1.83655e-07
2.40802e-06
5.99271e-08
3.67239e-06
3.65967e-07
4.68802e-06
3.6228e-07
5.40215e-06
2.46536e-07
5.89345e-06
1.42922e-07
6.23168e-06
3.69163e-08
6.47611e-06
-9.90156e-08
6.65651e-06
-2.25106e-07
6.79159e-06
-3.28168e-07
6.89683e-06
-4.08141e-07
6.98119e-06
-4.70265e-07
7.04576e-06
-5.12696e-07
7.10574e-06
-7.21868e-07
7.14483e-06
-8.18342e-07
7.16246e-06
-9.03574e-07
7.1605e-06
-9.81199e-07
7.14207e-06
-1.04934e-06
7.11155e-06
-1.10842e-06
7.07335e-06
-1.15977e-06
7.03137e-06
-1.20639e-06
6.98925e-06
-1.25351e-06
6.95029e-06
-1.30885e-06
6.91742e-06
-1.38233e-06
6.89317e-06
-1.48558e-06
6.87933e-06
-1.63216e-06
6.87738e-06
-1.83593e-06
6.88862e-06
-2.1125e-06
6.91384e-06
-2.47659e-06
6.95363e-06
-2.94366e-06
7.00805e-06
-3.52701e-06
7.07827e-06
-4.23462e-06
7.16775e-06
-5.06858e-06
7.28222e-06
-6.02382e-06
7.42569e-06
-7.08648e-06
7.59511e-06
-8.21507e-06
7.784e-06
-9.34887e-06
7.97267e-06
-1.04057e-05
8.1187e-06
-1.12558e-05
8.19751e-06
-1.17649e-05
8.24491e-06
-1.19311e-05
8.33193e-06
-1.18591e-05
8.5046e-06
-1.1537e-05
8.73159e-06
-1.07766e-05
8.92477e-06
-9.22152e-06
9.0108e-06
-6.66568e-06
8.96205e-06
-3.40637e-06
8.76917e-06
2.22939e-07
8.43622e-06
3.71128e-06
6.51855e-06
7.97561e-06
4.93408e-05
9.48364e-07
4.82595e-05
1.14127e-06
4.72394e-05
1.38606e-06
4.61328e-05
1.46889e-06
4.50023e-05
1.37701e-06
4.3945e-05
1.20018e-06
4.29791e-05
1.00282e-06
4.20673e-05
8.12836e-07
4.11998e-05
6.42334e-07
4.03781e-05
4.93583e-07
3.96039e-05
3.66072e-07
3.88756e-05
2.57978e-07
3.81964e-05
1.66582e-07
3.73665e-05
1.07991e-07
3.65543e-05
-6.17262e-09
3.57396e-05
-8.88666e-08
3.49368e-05
-1.78394e-07
3.41507e-05
-2.63239e-07
3.33856e-05
-3.4335e-07
3.26463e-05
-4.20405e-07
3.19382e-05
-4.98344e-07
3.12661e-05
-5.8134e-07
3.06341e-05
-6.76929e-07
3.00451e-05
-7.93315e-07
2.95008e-05
-9.41298e-07
2.90021e-05
-1.13345e-06
2.85489e-05
-1.38271e-06
2.81408e-05
-1.70434e-06
2.77781e-05
-2.11389e-06
2.74625e-05
-2.62808e-06
2.71951e-05
-3.25959e-06
2.69845e-05
-4.02408e-06
2.68339e-05
-4.91795e-06
2.67428e-05
-5.9327e-06
2.67049e-05
-7.04862e-06
2.66873e-05
-8.1974e-06
2.66371e-05
-9.29873e-06
2.6478e-05
-1.02466e-05
2.61509e-05
-1.09286e-05
2.57158e-05
-1.13298e-05
2.53623e-05
-1.15776e-05
2.5291e-05
-1.17879e-05
2.55094e-05
-1.17554e-05
2.57884e-05
-1.10556e-05
2.58649e-05
-9.29805e-06
2.56132e-05
-6.41394e-06
2.50522e-05
-2.84536e-06
2.41015e-05
1.17362e-06
2.27885e-05
5.02424e-06
8.11973e-06
2.11874e-05
2.05556e-05
7.66621e-07
2.0785e-05
9.11874e-07
2.10708e-05
1.10024e-06
2.13407e-05
1.19901e-06
2.1554e-05
1.16364e-06
2.17134e-05
1.04079e-06
2.18293e-05
8.86964e-07
2.19086e-05
7.33565e-07
2.1958e-05
5.92842e-07
2.19835e-05
4.68105e-07
2.19902e-05
3.59352e-07
2.19824e-05
2.65843e-07
2.19617e-05
1.87297e-07
2.19233e-05
1.46351e-07
2.18564e-05
6.07201e-08
2.17779e-05
-1.03326e-08
2.16918e-05
-9.22873e-08
2.15905e-05
-1.61934e-07
2.14769e-05
-2.29812e-07
2.13534e-05
-2.96907e-07
2.12226e-05
-3.67488e-07
2.10876e-05
-4.46406e-07
2.09524e-05
-5.41727e-07
2.08212e-05
-6.62076e-07
2.0699e-05
-8.19098e-07
2.05898e-05
-1.02428e-06
2.04986e-05
-1.29149e-06
2.04284e-05
-1.63414e-06
2.03805e-05
-2.06595e-06
2.03562e-05
-2.60388e-06
2.03535e-05
-3.25687e-06
2.03735e-05
-4.04408e-06
2.04075e-05
-4.95189e-06
2.0443e-05
-5.96818e-06
2.04641e-05
-7.06976e-06
2.04327e-05
-8.16601e-06
2.03415e-05
-9.20754e-06
2.02148e-05
-1.012e-05
2.00697e-05
-1.07835e-05
1.99916e-05
-1.12517e-05
2.01472e-05
-1.17333e-05
2.06047e-05
-1.22453e-05
2.1207e-05
-1.23577e-05
2.17047e-05
-1.15532e-05
2.19786e-05
-9.57194e-06
2.20412e-05
-6.47663e-06
2.19951e-05
-2.79918e-06
2.18259e-05
1.34274e-06
2.13991e-05
5.45107e-06
8.92285e-06
2.0596e-05
2.05421e-05
5.98639e-07
2.07409e-05
7.13125e-07
2.09842e-05
8.56924e-07
2.12432e-05
9.40013e-07
2.14837e-05
9.23166e-07
2.16915e-05
8.32989e-07
2.18661e-05
7.12349e-07
2.20113e-05
5.88405e-07
2.2131e-05
4.73066e-07
2.22291e-05
3.70071e-07
2.23084e-05
2.79995e-07
2.23717e-05
2.02613e-07
2.24222e-05
1.36798e-07
2.24686e-05
9.98931e-08
2.25046e-05
2.47188e-08
2.25376e-05
-4.32929e-08
2.25524e-05
-1.07068e-07
2.25596e-05
-1.69192e-07
2.25586e-05
-2.28754e-07
2.25497e-05
-2.88029e-07
2.25336e-05
-3.51378e-07
2.25105e-05
-4.2336e-07
2.24804e-05
-5.11616e-07
2.24426e-05
-6.24309e-07
2.23966e-05
-7.73092e-07
2.23413e-05
-9.68909e-07
2.22759e-05
-1.22608e-06
2.21988e-05
-1.55709e-06
2.21089e-05
-1.97607e-06
2.20024e-05
-2.49732e-06
2.18719e-05
-3.12639e-06
2.17151e-05
-3.8873e-06
2.15168e-05
-4.75355e-06
2.12758e-05
-5.7272e-06
2.09975e-05
-6.79145e-06
2.06838e-05
-7.85233e-06
2.03985e-05
-8.92219e-06
2.01691e-05
-9.8906e-06
1.99727e-05
-1.05871e-05
1.9922e-05
-1.1201e-05
2.01282e-05
-1.19395e-05
2.04086e-05
-1.25257e-05
2.04656e-05
-1.24147e-05
2.02156e-05
-1.13032e-05
1.98397e-05
-9.19603e-06
1.95193e-05
-6.15623e-06
1.93172e-05
-2.59706e-06
1.92889e-05
1.371e-06
1.92887e-05
5.45127e-06
9.22706e-06
1.89845e-05
2.05525e-05
4.28293e-07
2.07432e-05
5.22432e-07
2.0964e-05
6.36085e-07
2.11997e-05
7.04283e-07
2.14259e-05
6.96982e-07
2.1628e-05
6.30874e-07
2.18028e-05
5.37534e-07
2.19523e-05
4.38915e-07
2.20797e-05
3.45741e-07
2.21878e-05
2.61922e-07
2.22793e-05
1.88476e-07
2.23566e-05
1.25356e-07
2.24213e-05
7.20982e-08
2.2492e-05
2.91719e-08
2.25517e-05
-3.50047e-08
2.26037e-05
-9.5247e-08
2.26485e-05
-1.51858e-07
2.26864e-05
-2.07147e-07
2.27188e-05
-2.61092e-07
2.27463e-05
-3.15566e-07
2.2769e-05
-3.74096e-07
2.27869e-05
-4.41252e-07
2.27987e-05
-5.23419e-07
2.28023e-05
-6.27931e-07
2.27946e-05
-7.654e-07
2.27703e-05
-9.44538e-07
2.2725e-05
-1.18081e-06
2.26488e-05
-1.48087e-06
2.25356e-05
-1.86292e-06
2.23787e-05
-2.34043e-06
2.2171e-05
-2.91861e-06
2.19137e-05
-3.63005e-06
2.15989e-05
-4.43875e-06
2.12564e-05
-5.38468e-06
2.08925e-05
-6.42752e-06
2.05232e-05
-7.48304e-06
2.02446e-05
-8.6436e-06
2.00291e-05
-9.67511e-06
1.9846e-05
-1.0404e-05
1.98238e-05
-1.11788e-05
1.97799e-05
-1.18955e-05
1.92501e-05
-1.19959e-05
1.82358e-05
-1.14004e-05
1.71736e-05
-1.0241e-05
1.63793e-05
-8.40178e-06
1.58951e-05
-5.67196e-06
1.56576e-05
-2.35962e-06
1.56981e-05
1.33055e-06
1.59904e-05
5.15897e-06
8.97005e-06
1.62474e-05
2.05625e-05
2.54499e-07
2.07507e-05
3.34258e-07
2.09603e-05
4.2647e-07
2.11815e-05
4.83076e-07
2.13956e-05
4.82927e-07
2.15899e-05
4.36594e-07
2.17605e-05
3.66851e-07
2.19084e-05
2.91031e-07
2.20359e-05
2.18274e-07
2.21454e-05
1.52389e-07
2.22393e-05
9.46054e-08
2.23196e-05
4.50976e-08
2.2388e-05
3.65381e-09
2.24635e-05
-4.62947e-08
2.25297e-05
-1.01253e-07
2.25882e-05
-1.53692e-07
2.264e-05
-2.03664e-07
2.26852e-05
-2.52351e-07
2.27244e-05
-3.00362e-07
2.27584e-05
-3.49506e-07
2.27867e-05
-4.0244e-07
2.2809e-05
-4.63524e-07
2.28234e-05
-5.37838e-07
2.28275e-05
-6.31995e-07
2.28173e-05
-7.55178e-07
2.27866e-05
-9.13919e-07
2.27308e-05
-1.12494e-06
2.26391e-05
-1.38922e-06
2.25086e-05
-1.73244e-06
2.23298e-05
-2.16161e-06
2.20968e-05
-2.68562e-06
2.18107e-05
-3.34395e-06
2.14553e-05
-4.08329e-06
2.1079e-05
-5.00838e-06
2.0664e-05
-6.01257e-06
2.02704e-05
-7.08943e-06
2.00323e-05
-8.40547e-06
1.98376e-05
-9.48038e-06
1.96528e-05
-1.02193e-05
1.93787e-05
-1.09047e-05
1.83765e-05
-1.08933e-05
1.65088e-05
-1.01282e-05
1.46187e-05
-9.51025e-06
1.32937e-05
-8.91601e-06
1.24607e-05
-7.56881e-06
1.19468e-05
-5.15809e-06
1.16833e-05
-2.09608e-06
1.17141e-05
1.29973e-06
1.21157e-05
4.75742e-06
8.31817e-06
1.27675e-05
2.05707e-05
7.8251e-08
2.07574e-05
1.47494e-07
2.09599e-05
2.23979e-07
2.11705e-05
2.72529e-07
2.13753e-05
2.78104e-07
2.15637e-05
2.48219e-07
2.17313e-05
1.99258e-07
2.18779e-05
1.44376e-07
2.20053e-05
9.09043e-08
2.21154e-05
4.22528e-08
2.22104e-05
-3.43905e-10
2.2292e-05
-3.65739e-08
2.23621e-05
-6.64521e-08
2.24399e-05
-1.24024e-07
2.25089e-05
-1.70268e-07
2.25701e-05
-2.14879e-07
2.26242e-05
-2.57786e-07
2.26715e-05
-2.99642e-07
2.27123e-05
-3.41195e-07
2.2747e-05
-3.84153e-07
2.2775e-05
-4.30464e-07
2.27957e-05
-4.84189e-07
2.28069e-05
-5.4905e-07
2.28061e-05
-6.31184e-07
2.27887e-05
-7.37864e-07
2.27492e-05
-8.74344e-07
2.26819e-05
-1.05767e-06
2.25778e-05
-1.28517e-06
2.24336e-05
-1.58816e-06
2.22296e-05
-1.95762e-06
2.19666e-05
-2.42266e-06
2.16362e-05
-3.01357e-06
2.12284e-05
-3.6755e-06
2.08103e-05
-4.59024e-06
2.03437e-05
-5.54592e-06
1.99571e-05
-6.70288e-06
1.97576e-05
-8.20595e-06
1.95506e-05
-9.27342e-06
1.91076e-05
-9.77625e-06
1.78438e-05
-9.64095e-06
1.52989e-05
-8.34847e-06
1.24381e-05
-7.26738e-06
1.04344e-05
-7.50655e-06
9.20254e-06
-7.68416e-06
8.29527e-06
-6.66154e-06
7.64795e-06
-4.51076e-06
7.31851e-06
-1.76664e-06
7.37275e-06
1.24548e-06
7.87034e-06
4.25983e-06
7.35541e-06
8.8331e-06
2.55528e-05
2.55674e-08
2.56233e-05
7.70346e-08
2.57155e-05
1.31752e-07
2.58212e-05
1.66806e-07
2.59274e-05
1.71908e-07
2.60232e-05
1.52459e-07
2.61032e-05
1.1924e-07
2.61662e-05
8.13577e-08
2.62132e-05
4.39073e-08
2.62459e-05
9.58346e-09
2.62664e-05
-2.08168e-08
2.62765e-05
-4.66924e-08
2.62779e-05
-6.79229e-08
2.62694e-05
-1.15497e-07
2.62497e-05
-1.50565e-07
2.62196e-05
-1.8479e-07
2.618e-05
-2.18134e-07
2.61311e-05
-2.5078e-07
2.60734e-05
-2.83465e-07
2.60068e-05
-3.1761e-07
2.59309e-05
-3.54535e-07
2.58447e-05
-3.97961e-07
2.57456e-05
-4.49983e-07
2.5631e-05
-5.16567e-07
2.54952e-05
-6.02075e-07
2.5333e-05
-7.12173e-07
2.51362e-05
-8.60807e-07
2.4894e-05
-1.04303e-06
2.46027e-05
-1.29682e-06
2.42358e-05
-1.59072e-06
2.38046e-05
-1.99147e-06
2.32812e-05
-2.49011e-06
2.26842e-05
-3.07857e-06
2.2071e-05
-3.977e-06
2.13983e-05
-4.87321e-06
2.09071e-05
-6.21173e-06
2.05216e-05
-7.82038e-06
1.98482e-05
-8.60007e-06
1.81912e-05
-8.11927e-06
1.49768e-05
-6.42652e-06
1.1043e-05
-4.41464e-06
8.12933e-06
-4.35374e-06
6.43198e-06
-5.80919e-06
5.08946e-06
-6.34165e-06
3.88343e-06
-5.45552e-06
3.00757e-06
-3.6349e-06
2.6087e-06
-1.36777e-06
2.74664e-06
1.10755e-06
3.39425e-06
3.61222e-06
6.07795e-06
4.67171e-06
2.53433e-05
1.90281e-07
2.52036e-05
2.16721e-07
2.50912e-05
2.4419e-07
2.49994e-05
2.58625e-07
2.49173e-05
2.53941e-07
2.4836e-05
2.33817e-07
2.47501e-05
2.05078e-07
2.4658e-05