/*--------------------------------*- C++ -*----------------------------------*\
| =========                 |                                                 |
| \\      /  F ield         | OpenFOAM: The Open Source CFD Toolbox           |
|  \\    /   O peration     | Version:  2112                                  |
|   \\  /    A nd           | Website:  www.openfoam.com                      |
|    \\/     M anipulation  |                                                 |
\*---------------------------------------------------------------------------*/
FoamFile
{
    version     2.0;
    format      ascii;
    arch        "LSB;label=32;scalar=64";
    class       volScalarField;
    location    "0.21";
    object      p;
}
// * * * * * * * * * * * * * * * * * * * * * * * * * * * * * * * * * * * * * //

dimensions      [0 2 -2 0 0 0 0];

internalField   nonuniform List<scalar> 
122250
(
1241.18
-239.277
-144.045
-258.914
-118.134
-92.1962
-34.6773
-26.1786
-10.2615
0.335654
4.98785
5.46837
6.81514
3.95674
2.22013
0.967011
5.4398
-4.14652
1272.06
-272.78
-174.443
-266.576
-121.229
-92.4286
-35.7565
-26.5404
-11.254
-0.675109
4.62898
5.34568
6.77645
3.72091
1.89768
1.11807
5.68338
1.59773
1298.07
-349.866
-204.67
-277.987
-123.338
-94.5407
-37.442
-27.6521
-13.1466
-1.92561
4.23088
5.24012
6.46831
3.22389
1.51004
1.24839
5.4597
5.3782
1327.3
-473.789
-251.941
-292.392
-131.814
-93.1703
-38.3943
-31.4577
-15.7426
-3.32993
3.98227
5.59227
6.4662
3.92741
2.73753
1.91761
5.8111
9.05179
1336.67
-620.797
-298.504
-306.192
-138.549
-94.3142
-40.3787
-34.123
-19.1457
-5.68828
3.92065
6.47938
6.82915
5.0543
4.68372
5.71772
8.5104
12.0729
1321.61
-747.182
-319.656
-319.151
-138.474
-91.7646
-47.1225
-32.513
-19.9767
-8.13472
3.63745
7.28995
7.39386
5.9421
6.08387
7.21473
10.1039
13.7539
1297.89
-829.429
-341.878
-335.58
-128.086
-80.3021
-49.139
-32.7211
-18.6848
-9.76225
3.23992
7.67042
7.73317
6.51212
7.00259
8.16542
10.5627
13.8033
1272.43
-876.641
-343.441
-331.173
-116.112
-62.5002
-36.5382
-33.9512
-20.843
-10.8292
2.05998
7.59294
7.91839
7.29694
7.83384
8.70717
10.5653
13.3186
1249.39
-887.75
-288.257
-281.14
-98.5422
-47.0507
-21.1882
-25.6519
-25.8851
-12.3104
0.770649
6.96047
7.70637
7.74468
8.29317
8.85178
10.2523
12.5335
1232.3
-855.191
-188.56
-199.662
-73.0654
-25.5424
-9.43402
-12.8495
-27.7558
-14.6122
-0.701969
5.00237
7.70374
7.97559
8.60323
8.91798
9.86132
11.7086
1220.38
-792.562
-88.2309
-127.318
-44.1627
-4.00277
1.24602
-3.299
-19.9033
-15.4758
-3.23259
0.83495
2.04176
7.81984
9.99218
9.23289
9.23319
10.2714
1212.23
-733.139
-26.161
-87.2045
-17.963
6.88505
8.62789
2.98279
-9.81723
-12.8835
-5.64969
-4.65392
-1.93538
4.17954
8.27782
8.21347
8.02833
7.68985
1198.33
-674.546
23.7291
-81.8981
-3.13936
7.86087
11.3348
9.46353
-0.681247
-10.1548
-6.15872
-3.6288
-3.97752
-2.97451
3.94341
5.52736
3.98983
4.26732
1241.72
-690.784
9.10005
-86.0387
-4.72
-2.24766
-8.5084
12.8976
6.75171
-3.86213
-3.55139
-4.72511
-5.5595
-5.67223
-6.08309
-3.72167
0.070249
3.01501
1335.66
-741.713
-23.0083
-134.899
-48.052
-49.4048
-6.89007
36.0316
21.6237
6.31159
-0.0121129
-5.61166
-7.00538
-4.21123
-2.77141
-2.57075
0.0203867
2.9186
1393.19
-737.235
12.4993
-42.9643
8.63885
-15.0306
16.2954
36.1783
24.134
5.35885
2.2865
-1.63197
-4.58561
4.8128
16.5073
15.054
9.0148
4.86212
1297.55
-686.889
3.28646
-111.654
48.8336
4.3606
22.2913
28.2225
22.1335
12.5258
8.554
5.54153
4.04068
5.24549
6.90135
12.053
19.7864
19.2084
1424.95
-617.963
49.0478
-121.588
29.4301
-10.9751
4.42606
12.2732
16.2703
18.4626
18.3717
14.8847
12.5926
15.5122
20.4701
20.263
14.6554
7.94616
1390.12
-580.084
75.0465
-129.905
46.4016
7.15409
5.04286
9.27126
17.4499
19.9197
20.8256
21.6792
21.9452
19.4743
16.0538
15.0238
15.3234
16.8754
1426.37
-600.011
66.8989
-115.869
44.9556
5.44061
12.3326
14.1159
19.2022
17.0783
15.7927
14.9218
15.4865
16.5843
17.6071
18.4454
19.1121
19.8423
1355.62
-565.974
69.3887
-126.659
48.6644
5.37802
14.7723
8.31101
13.3944
17.9352
20.2706
20.0533
19.8519
20.2236
20.6186
20.8337
20.5455
20.3383
1389.27
-644.638
71.6776
-97.96
18.3931
15.116
26.661
10.5379
13.1778
15.025
16.1557
17.4339
18.773
19.928
21.8642
23.455
24.0194
24.1209
1233.55
-664.977
121.052
-57.8943
42.2399
-8.22169
20.1045
12.1722
13.1333
13.4762
15.4601
15.9522
17.7064
20.5532
24.2237
27.5167
28.8326
27.9764
1240.29
-735.638
36.3011
-71.0848
45.801
-4.85058
15.9024
6.4486
11.4797
14.3777
18.4094
20.9273
21.473
23.5835
26.1514
27.8809
27.5304
24.5775
1224.22
-775.909
44.7915
-55.1658
41.6254
-0.166659
14.5988
11.1845
21.3359
24.5705
26.9851
26.8767
25.8081
25.1579
25.3836
26.3344
24.0839
17.4641
1219.17
-765.472
63.3264
-27.2444
42.0364
4.19502
20.7828
18.1459
21.1881
23.9039
29.2482
30.5283
28.401
26.5294
30.0483
30.9917
22.1343
6.5627
1255.82
-746.643
110.027
-17.8311
41.2871
3.28812
17.3669
20.2654
28.5796
32.2758
36.6714
36.4036
32.6271
28.4856
27.3623
27.5918
22.4736
9.83175
1240.36
-703.014
151.67
-9.69525
38.4897
-0.346791
20.2023
26.1364
32.4813
34.273
38.3814
38.9174
37.287
31.1349
25.1732
23.8191
23.8284
13.0212
1228.14
-698.148
153.607
-7.67186
47.8968
6.16108
22.7656
27.1825
32.0092
34.4406
37.5418
38.1883
37.1414
31.5359
25.7424
24.5637
22.0609
10.1239
1245.91
-716.434
154.923
-6.55376
52.4953
5.48026
22.8484
27.419
31.3443
33.4009
35.5624
36.5871
37.2513
34.2669
29.7203
27.9702
24.4179
13.3174
1233.99
-249.045
-154.359
-245.939
-123.261
-85.1649
-35.8035
-28.292
-10.8561
-1.43443
4.5115
4.94992
6.022
3.94422
2.3858
0.075623
3.98088
-6.92505
1264.37
-274.079
-170.908
-245.694
-135.031
-90.0978
-36.188
-28.8948
-11.8299
-2.29989
4.14553
4.80739
5.88057
3.72164
1.87226
-0.18484
3.87388
-0.312459
1296.35
-355.761
-201.273
-257.228
-137.545
-97.1092
-41.6571
-30.7597
-13.7278
-3.31091
3.59876
4.73216
5.67249
3.71764
2.00003
0.716478
3.96259
4.12387
1327.77
-478.474
-236.645
-275.255
-141.523
-94.1575
-44.6846
-33.2238
-16.7057
-4.93803
3.24516
5.04516
5.83112
4.39726
3.02957
2.86013
5.88119
8.41741
1323.8
-603.796
-260.572
-295.763
-149.822
-95.1395
-41.568
-34.6935
-20.6374
-8.2879
2.50279
5.49739
6.06436
5.03621
4.70656
5.72926
8.25523
11.3305
1299.47
-698.819
-283.28
-320.066
-147.839
-94.5609
-43.5281
-34.399
-22.8848
-12.4772
0.842577
5.46886
6.24986
5.38292
5.51521
6.84285
9.31869
12.3102
1272.51
-764.102
-304.328
-348.85
-138.93
-76.2571
-38.1905
-33.0229
-24.413
-15.6746
-1.76332
4.7615
6.3869
5.84789
6.16234
7.57252
9.8266
12.4574
1244.71
-808.718
-291.35
-333.505
-127.245
-52.9479
-25.6928
-30.1463
-26.8097
-17.7686
-4.44716
3.22037
6.39386
6.61687
6.86656
8.1084
10.2596
12.7704
1223.73
-826.119
-216.477
-259.284
-103.689
-31.3098
-13.5593
-21.9602
-28.6908
-18.4185
-5.35696
0.627635
5.34214
7.33749
7.4843
8.36212
10.4682
13.0933
1211.45
-810.094
-110.728
-151.399
-63.2735
-11.0482
-3.81602
-10.0274
-27.0203
-18.6536
-4.92365
-1.23273
2.91749
6.43946
7.45661
8.50227
9.98685
11.9082
1207.99
-769.084
-11.9247
-51.3176
-20.0077
5.34026
2.64933
-3.20994
-18.3633
-19.1179
-5.47429
-5.2536
-0.636424
5.11698
7.53553
8.81565
9.15223
9.51203
1210.42
-727.357
55.1577
8.57391
13.3451
18.0491
6.51371
2.05705
-7.59067
-15.6263
-10.6813
-10.9576
-3.29385
4.06588
8.10723
7.74249
6.54818
5.96157
1211.26
-691.548
91.0726
34.1846
34.5866
27.4297
9.89668
7.54866
1.23929
-11.9969
-10.0384
-7.32888
-3.05673
4.27776
8.10771
6.0459
4.81108
5.5377
1206.87
-680.754
112.681
31.7567
25.3991
25.0724
8.50625
17.0328
8.17079
-7.07903
-5.8988
-5.40756
-4.13525
-1.85296
0.228756
2.08459
2.83889
4.81407
1222.16
-746.136
54.1106
23.131
38.7411
4.85176
1.31483
23.9881
8.4348
-0.848871
-2.26955
-7.40736
-8.60229
-4.77716
-0.874727
0.33131
-0.638817
1.27245
1195.68
-788.149
101.363
26.0455
30.5218
-19.2709
2.32618
13.7833
1.82148
-5.95239
-2.32973
-0.643406
-5.43004
-2.66411
5.95995
9.30909
6.86372
5.0667
1197.41
-701.984
47.2215
-71.6036
9.73486
-14.5061
8.41191
9.26008
10.8017
11.377
12.5573
10.2816
5.20341
2.63663
3.22301
9.01277
14.831
15.9884
1261.42
-630.153
78.6662
-67.7298
54.2511
-12.0744
9.65289
10.7426
17.3147
18.2964
16.1407
12.0097
11.3397
15.7788
19.3461
17.6699
17.5785
20.7629
1221.34
-674.563
158.054
-60.4809
8.20729
-16.709
8.00038
9.69123
17.5116
18.8637
21.1985
21.82
20.693
17.9348
15.6771
14.5035
14.0991
15.5895
1239.41
-707.694
160.123
-61.4251
-5.28663
-19.0725
11.6731
19.8046
21.7332
17.0936
16.667
15.7068
15.4554
15.5688
16.3384
17.0247
17.8375
19.1577
1313.68
-559.093
49.6541
-97.831
63.8335
-0.231103
25.3771
11.4383
14.0557
15.018
16.8397
18.0498
18.8564
19.6484
20.1849
19.7745
18.3715
17.8234
1244.17
-688.709
118.904
-77.9686
18.9599
-2.12729
25.6651
10.6422
14.0271
13.1471
14.052
16.1104
18.8574
20.8358
22.4455
22.6816
21.975
21.5883
1290.04
-599.991
98.2991
-97.9731
36.9902
14.1398
27.2239
17.343
14.882
13.1468
13.7013
14.438
16.6583
19.4296
23.1734
26.7434
28.015
26.4547
1392.67
-573.41
19.1552
-88.9089
54.3242
-0.390366
24.674
12.4726
10.9375
10.1294
16.346
22.2642
24.2183
25.4351
27.4195
29.0605
28.0576
24.3306
1419.35
-611.494
16.0967
-80.4128
20.6729
-7.7738
23.0513
11.4289
16.3003
20.8343
26.9683
28.4992
26.4234
24.2363
25.1443
27.2797
26.1138
22.2661
1376.01
-747.459
-15.0287
-74.3309
30.5871
-0.533835
21.6249
15.1453
19.323
22.463
28.7218
32.3273
30.6252
28.0456
28.2471
28.0459
27.2464
22.785
1331.53
-724.082
-10.2744
-79.9929
39.7398
0.114041
19.3371
24.2798
26.6006
26.7345
33.2389
38.1717
37.5357
35.3213
34.5289
38.0208
40.8848
31.3787
1286.08
-637.475
55.4084
-23.1062
30.1476
5.18758
24.559
31.1896
30.8914
26.7314
35.5036
42.7223
43.779
42.6004
38.6867
38.962
38.2546
26.2996
1306.74
-640.31
84.0238
-5.66548
31.5612
3.76437
28.0373
33.0086
31.4187
29.2541
37.3917
44.5882
47.3991
47.0524
40.5273
35.531
32.1465
21.1018
1341.1
-653.064
77.6461
-12.1416
42.126
4.67816
28.879
29.6064
28.934
29.6732
34.046
38.3138
46.1978
47.9668
41.465
34.1738
28.369
17.3829
1231.61
-262.859
-126.791
-238.856
-120.103
-86.7726
-35.9451
-25.4021
-9.31396
-1.77386
3.801
4.50279
5.49107
4.21152
2.90398
-0.778805
2.57699
-9.18724
1257.73
-289.508
-143.288
-240.347
-132.481
-87.488
-37.0484
-26.1332
-9.8448
-2.44403
3.48707
4.27843
5.30004
4.14608
2.37133
-0.976371
2.50486
-2.0123
1282.33
-352.334
-158.626
-240.059
-132.496
-90.5974
-39.5184
-27.3027
-11.1916
-3.14972
2.88879
4.03169
5.21243
4.4006
2.64794
0.28891
2.73245
2.77728
1308.01
-448.767
-174.869
-245.697
-136.718
-90.347
-39.5817
-29.0021
-13.0748
-4.26471
2.11238
4.00799
5.32121
4.81648
3.54479
3.26466
5.37963
7.29205
1313.2
-569.208
-213.45
-260.879
-135.624
-87.2134
-36.8161
-28.7957
-15.3594
-6.7577
1.08004
4.0344
5.42621
5.12574
4.76739
5.59673
7.73853
10.3629
1300.71
-689.172
-244.741
-281.849
-123.757
-86.5565
-32.8413
-26.1002
-16.4327
-9.39629
-0.525132
3.73656
5.39921
5.17615
5.29536
6.50555
8.60767
11.2811
1281.95
-776.88
-271.83
-308.529
-110.71
-75.3556
-27.3336
-22.1939
-16.9797
-11.3843
-2.89017
2.83078
5.28389
5.31491
5.64576
6.91656
8.76948
11.082
1259.12
-823.902
-284.713
-329.61
-107.358
-57.6215
-21.5886
-17.3958
-17.1118
-13.2621
-5.86996
0.884411
4.88092
5.90567
6.70245
8.05607
9.67538
11.5443
1232.9
-841.233
-253.648
-310.363
-99.7531
-39.5061
-14.6455
-10.5568
-16.1823
-12.7549
-7.29607
-1.72689
3.73721
6.45233
7.27085
9.1136
11.0064
12.6154
1210.55
-835.361
-175.344
-227.702
-82.4906
-25.0283
-6.18015
-2.14235
-12.6353
-12.1771
-7.14818
-2.97627
0.79395
4.07782
6.95113
8.68864
10.4309
12.1441
1197.6
-806.891
-76.897
-132.582
-53.6314
-16.7735
-1.92303
4.97456
-4.87387
-13.1481
-12.7387
-9.25104
-2.76769
1.71289
5.23159
7.5305
9.04586
10.7726
1195.78
-766.919
10.1715
-60.1086
-24.5635
-7.8597
-2.54131
8.55675
3.45996
-11.5903
-14.8907
-10.7877
-3.00919
3.37124
6.42266
6.60645
6.80635
7.39463
1199.02
-726.203
74.8824
-13.165
-3.30756
3.42047
-2.90992
7.90707
9.63616
-7.4791
-11.9696
-7.98405
1.54935
7.59408
9.47801
7.21814
7.40542
9.60194
1204.55
-687.64
125.925
20.5027
8.39756
12.6075
3.23043
12.736
12.5897
-5.42538
-11.327
-6.80371
-1.774
4.66587
10.4221
9.41999
7.76706
9.45558
1201.4
-682.686
152.071
30.733
31.1372
11.8174
-5.7705
4.03525
3.42644
-4.3529
-11.3929
-15.1689
-12.2856
-4.37415
2.4989
2.22871
1.28715
3.78534
1195.87
-648.824
143.342
-55.2784
37.5465
13.4803
-1.0918
-5.57857
-4.5728
-5.96569
-5.54077
-3.26392
-6.47113
-5.09277
2.89262
7.54772
6.9128
6.73481
1212.71
-650.003
161.684
-73.5708
40.4642
8.07506
6.5773
-4.31404
3.30472
10.8961
15.8039
17.2948
13.2404
7.28945
5.57831
8.2149
10.9832
12.4549
1187
-647.993
86.3152
-89.9586
32.1645
-10.0618
7.30304
1.65702
14.0467
18.4508
20.8811
21.0906
18.6161
17.3581
13.4388
9.83544
11.7657
16.9463
1182.66
-615.734
181.93
-97.9998
37.3201
-4.63519
5.70353
5.34127
16.4104
18.9875
22.49
22.9795
21.5051
18.1064
16.2781
15.0793
14.7603
15.2747
1182.67
-629.585
176.572
-95.7259
29.545
-11.8396
10.4557
16.3116
18.9824
17.2203
18.1222
17.5055
16.8794
16.3223
16.131
16.0051
16.4533
17.8291
1202.02
-690.623
100.413
-80.419
36.1349
2.03386
19.6287
10.4246
14.5401
15.1897
18.8941
18.9536
19.4338
20.192
20.3871
19.1533
17.2022
16.3793
1178.77
-665.075
126.373
-72.984
35.4406
-2.56694
25.7933
14.5581
15.0854
13.338
14.7568
16.2416
18.4382
20.3912
21.2233
20.8136
19.7372
19.088
1201.9
-645.353
109.184
-98.7546
37.7709
-11.598
21.3468
23.2588
19.0593
13.8781
14.0419
16.7686
19.1897
19.8918
21.7136
24.2709
25.2622
24.0843
1208.45
-693.522
73.4263
-74.6545
32.6265
9.21799
20.9414
11.9986
8.13353
4.52601
12.7766
20.619
22.1486
22.2258
25.0353
27.9644
28.0097
25.6693
1323.41
-642.953
32.2472
-62.4917
18.4125
-0.0206767
20.8294
14.8309
11.3207
12.7378
20.9015
25.381
24.3183
21.8492
21.2543
23.0966
24.7489
24.5522
1462.5
-552.336
27.6715
-68.0186
14.3659
1.49007
19.6554
12.3899
15.3461
13.4512
24.1301
32.5793
30.5466
25.2547
22.3824
22.2952
24.2144
25.1054
1380.72
-555.313
24.4799
-100.032
4.11637
-6.05394
5.6103
10.0339
14.4457
12.4786
29.3228
42.4555
36.1382
29.0389
25.3588
23.0596
25.6708
28.5061
1366.83
-574.711
4.61733
-47.4473
9.71
1.36489
12.1096
16.3515
19.0406
16.5808
35.2139
49.6852
42.5887
36.4102
31.3022
23.6859
26.3944
29.9909
1460.24
-634.443
-26.0877
-32.2326
-5.85366
-11.0373
16.2383
22.0387
22.5005
19.4852
32.1695
50.6025
53.0267
50.4946
42.8555
29.1818
28.3756
30.1624
1563.13
-622.408
-15.9709
-35.1358
5.86272
-12.8454
18.7206
23.8493
24.133
22.8519
21.9133
30.8278
46.3891
53.8299
48.0575
33.4787
30.5272
30.5913
1227.14
-241.98
-97.5286
-262.499
-122.288
-83.9534
-25.6571
-18.9021
-4.03913
-0.259267
4.57711
4.96457
5.24172
4.1189
3.10145
-0.882815
1.99797
-10.9815
1247.47
-244.969
-112.499
-275.618
-120.511
-79.9541
-26.0691
-19.4951
-4.09138
-0.496245
4.34364
4.59763
4.87521
3.96184
2.68296
-0.448803
2.28359
-2.8296
1281.19
-287.46
-148.229
-285.524
-112.834
-78.6297
-25.0473
-19.1366
-3.97282
-0.539569
3.89546
4.35365
4.73232
4.05386
2.90408
0.899511
2.67943
1.89037
1316.99
-382.321
-173.315
-271.686
-128.595
-78.9958
-22.2329
-16.8599
-3.3163
-0.474131
3.43742
4.26077
4.81289
4.28351
3.80247
3.53821
4.93117
6.26682
1334.86
-511.002
-205.334
-244.517
-123.511
-80.7763
-19.5078
-13.0731
-2.18284
-0.18326
3.25695
4.37791
5.12676
4.82914
4.94506
5.57835
7.2839
9.65077
1336.35
-661.015
-253.776
-259.033
-117.22
-82.7871
-18.17
-8.88535
-1.07702
0.516407
3.30363
4.68362
5.44827
5.3732
5.59602
6.54914
8.48488
11.1233
1316.61
-788.194
-274.429
-267.865
-102.049
-80.4309
-18.6593
-4.13393
0.17254
0.961097
3.2181
5.0931
5.79557
5.71659
5.78899
6.65715
8.72878
11.2957
1284.82
-860.88
-265.856
-281.557
-93.9065
-74.453
-20.3584
-0.106961
1.93079
1.1074
2.3188
4.73556
6.07366
6.35712
6.81526
7.62343
9.45309
11.7478
1252.82
-880.315
-244.727
-288.282
-92.5423
-64.4794
-20.1096
-0.427389
3.15084
1.44419
0.851439
2.94751
5.98248
7.41951
8.73379
10.2112
11.6179
13.3315
1223.53
-874.58
-199.076
-254.842
-87.9946
-52.0218
-13.504
3.92988
5.842
1.92869
-1.69021
-0.857809
1.86275
5.20614
8.26032
9.69055
11.4493
13.5444
1205.25
-849.798
-128.88
-196.241
-75.5305
-42.5607
-10.1691
11.173
12.919
3.45288
-2.72889
-2.31223
-1.67088
1.27219
5.6523
8.92399
11.2072
13.7587
1197.93
-813.661
-54.2349
-142.264
-63.8905
-35.3981
-9.68904
14.2445
20.0697
5.86968
-3.94362
-3.11391
-0.610485
2.07354
5.5928
8.22271
10.5003
13.5811
1197.14
-773.38
11.164
-102.933
-55.064
-25.298
-6.71748
12.4339
23.206
7.82934
-6.6868
-7.59678
-0.533371
4.43977
8.00363
8.77036
10.2058
12.6427
1206.28
-736.306
80.1324
-49.6101
-36.4318
-6.9604
-1.52626
12.4821
21.4056
4.29125
-10.3705
-8.36259
0.274017
10.5799
15.8976
14.2802
12.9741
13.7412
1208.45
-698.948
132.337
-17.496
-8.50478
15.3357
-2.61736
4.00124
10.1325
1.29126
-14.9384
-17.4572
-14.7393
-5.58767
3.1431
6.02906
8.51851
11.2128
1202.52
-696.569
143.608
-54.0452
26.0313
32.5156
-2.75902
-16.164
-5.35534
-6.11378
-9.19798
-6.41646
-7.54652
-5.41407
2.30167
7.20545
8.48821
9.14476
1222.98
-667.564
157.084
-82.7932
30.003
8.01725
0.242349
-16.5266
-1.51928
10.8275
14.2719
13.9135
13.4461
13.0453
8.60934
7.25701
6.83245
7.70437
1208.71
-641.401
175.099
-79.4885
42.1521
-5.87031
6.03444
-4.84727
8.24716
15.6079
20.078
23.427
27.6403
23.4697
12.3628
3.95495
7.72234
16.1047
1206.95
-636.202
216.392
-86.2078
30.2269
-5.31907
11.7916
3.10862
13.45
15.051
21.5516
24.424
23.1865
18.1566
14.9783
15.2698
17.2108
19.3106
1203.63
-647.478
211.995
-87.8087
25.6326
-15.6826
10.771
12.0084
15.8822
15.764
17.6336
17.8309
17.7119
16.9216
16.4251
16.1795
16.1582
17.039
1195.72
-634.214
189.898
-82.8064
41.1934
-8.06272
19.4488
10.6666
15.555
16.9186
20.8459
21.2885
21.2637
21.4778
21.6245
20.7747
18.7281
17.1597
1201.39
-647.933
187.631
-65.0878
30.0998
-3.86235
21.2119
11.9825
13.8897
14.1397
17.7985
18.3808
19.2588
19.2485
19.9303
19.7313
18.6832
17.8928
1201.4
-659.466
146.041
-87.6404
23.4285
-15.5757
26.0013
23.9536
18.2681
14.751
18.3004
21.5041
22.6635
21.4699
21.1197
21.7268
22.6137
22.3808
1167.72
-652.256
112.563
-81.7988
25.0045
-3.31724
21.4748
6.85597
5.20027
4.74097
18.3031
25.4473
24.0462
21.5515
21.9826
24.4536
26.4191
26.3319
1221.63
-805.226
13.4193
-2.65249
21.8326
-0.543012
21.767
6.46712
2.23451
4.09148
14.8428
23.3111
22.6581
18.1646
16.7336
19.4366
23.8046
26.5178
1371.02
-699.744
-7.18606
-7.6653
8.64464
4.57395
23.3767
2.42654
-1.70451
-3.99709
8.51555
28.7746
30.633
18.387
11.4776
14.6417
22.6289
28.4144
1399.42
-554.372
11.3185
-73.7253
10.0438
9.95132
7.60964
-15.6129
-15.7477
-16.5292
-4.09249
26.3551
36.0109
18.0646
5.63876
10.0349
23.7352
33.3977
1466.17
-478.786
-9.50461
-90.8191
9.37608
13.3809
22.5972
-10.4189
-14.7453
-15.7813
-11.7916
13.8527
31.1556
21.7465
7.3952
11.3459
29.2147
39.5224
1584.75
-425.345
19.0137
-82.2283
11.0896
17.7538
27.2127
4.98286
-4.34949
-8.25452
-12.3152
-1.43434
20.942
27.2327
17.7969
22.6227
36.2468
42.1616
1524.72
-355.738
101.069
-58.5248
42.9625
22.542
27.9008
17.0398
7.61429
-0.393219
-15.1552
-12.1427
12.5248
24.8298
20.999
28.7734
40.1917
42.8692
1218.32
-213.534
-41.2064
-276.142
-123.597
-66.4891
-17.9474
-13.7324
0.549985
2.22926
6.70096
6.65355
6.32706
4.33587
2.17273
-1.01426
1.93492
-12.7919
1245.05
-220.246
-69.0768
-277.293
-112.385
-65.7427
-17.9574
-13.2301
0.472403
2.08761
6.51476
6.2805
5.94111
3.91599
1.82022
-0.23235
2.42765
-3.8293
1267.02
-268.865
-98.7605
-272.039
-115
-66.8475
-16.8809
-11.3992
0.5572
2.16489
6.04162
5.82486
5.62728
3.85445
2.17895
1.0407
2.61921
0.979208
1291.74
-349.832
-110.525
-264.748
-132.573
-71.6089
-14.2297
-7.7912
1.20405
2.67371
5.59878
5.52048
5.4763
4.091
3.28822
3.30391
4.56069
5.57724
1300.28
-456.417
-135.391
-264.137
-144.663
-76.6404
-11.9817
-3.00142
2.67043
3.95732
5.52631
5.49318
5.51364
4.71046
4.61399
5.24978
6.94706
9.45956
1303.96
-596.802
-181.601
-266.002
-146.597
-80.4686
-12.4377
1.22203
4.95047
5.88064
6.22331
5.85064
5.58085
5.29864
5.54388
6.69707
8.86545
11.881
1289.52
-728.552
-213.185
-258.083
-137.31
-85.3079
-13.3004
7.34287
7.7116
7.51644
7.30863
6.84661
6.25242
5.99759
6.11007
7.47755
10.026
12.7534
1268.26
-826.344
-232.475
-258.547
-136.483
-90.093
-13.1064
10.6464
10.7878
9.11705
7.98127
7.41851
7.20644
7.01362
7.32738
8.34869
10.3146
11.988
1247.72
-880.682
-226.4
-254.837
-126.208
-88.6785
-15.8759
7.69804
12.7389
9.65142
7.81024
7.29689
7.77593
7.74935
8.61544
9.39641
10.3468
11.31
1229.55
-900.508
-192.836
-232.673
-101.781
-79.7827
-16.6939
8.7544
15.0703
9.73739
6.42976
5.60841
6.68
7.23583
7.7823
9.13805
10.9882
12.6916
1213.52
-886.49
-131.69
-199.623
-80.8051
-69.228
-16.4935
14.6318
20.0585
11.6599
4.52739
2.51912
3.64297
5.16145
7.65988
9.9284
12.4533
15.6492
1207.23
-847.679
-56.9617
-155.243
-69.1992
-56.0156
-15.354
18.0351
26.2497
16.1311
3.08092
-0.360072
1.68714
4.83737
8.42039
11.1601
14.0953
18.3721
1206.82
-798.925
5.81569
-127.988
-59.9596
-39.425
-11.2404
17.7589
29.4928
18.8795
4.00779
-0.663407
-0.0096135
4.42512
8.81732
10.3553
10.9981
11.5085
1209.46
-747.894
65.5024
-94.0469
-45.8988
-18.618
0.572168
17.6185
28.125
14.169
1.17102
-2.06877
1.76857
9.51364
14.9414
13.8598
10.5416
7.37099
1213.94
-706.101
136.287
-34.1278
-16.5007
13.1441
7.48879
6.91576
13.7003
6.72105
-8.28898
-14.2717
-13.5363
-5.33317
6.59223
12.6505
13.4564
12.8276
1207.02
-679.098
148.674
-52.2909
14.1653
34.0157
-5.54479
-22.3494
-7.56117
-8.75526
-12.1903
-7.52753
-7.31376
-7.28742
0.608274
6.52555
9.06214
9.07431
1215.8
-658.297
159.641
-94.3682
32.8797
16.0723
-7.52227
-25.4621
-6.60372
8.25873
11.3965
10.4242
8.08417
3.06073
2.75881
1.94781
0.621875
0.812169
1216.74
-642.842
189.858
-92.6658
40.1835
2.15241
2.67163
-9.27628
3.5121
14.6368
20.3542
21.1197
21.0895
20.4737
13.9885
7.11702
9.59304
18.7583
1212.91
-623.647
226.975
-87.4816
37.5721
2.87538
10.4621
0.670049
12.3011
16.9061
22.1277
22.0911
21.3161
18.8711
16.8677
18.1377
21.3697
24.0473
1210.24
-630.685
225.807
-88.6314
35.2421
0.217897
13.4497
8.58221
13.0329
14.6618
17.4388
18.1762
18.3538
17.3752
16.5186
16.0025
16.2788
17.6613
1207.23
-623.054
213.968
-84.1287
38.3966
1.86526
17.2517
7.50985
15.0492
18.2694
21.6559
22.0115
21.8313
21.3054
21.0245
20.0192
18.292
17.3947
1217.28
-645.914
202.328
-81.5279
31.9828
-4.15314
19.5297
7.29155
10.585
12.4688
18.9583
20.3204
20.7153
20.4734
20.6972
20.1641
18.9332
17.6789
1224.84
-654.222
171.031
-88.7256
35.6783
-6.44053
22.3232
13.4285
14.5776
15.0928
20.4301
22.9268
23.292
21.7802
21.387
21.3684
21.1778
21.1472
1215.5
-661.922
124.477
-77.648
31.8235
-3.24825
20.4239
3.27926
5.48284
10.777
22.7049
25.5397
22.9543
20.6788
21.1076
23.5321
26.0288
26.7028
1210.52
-689.797
55.4433
-73.0432
27.7935
-7.34392
20.861
0.941716
0.514564
3.30247
10.9661
16.4863
15.9361
12.9701
14.3337
18.8603
25.4272
29.5084
1309.23
-783.79
-69.0511
-54.3909
18.8263
-6.24627
29.5886
3.28982
-7.35206
-10.8422
-1.19962
14.2226
13.5573
6.86258
4.42835
9.33025
20.9193
31.6775
1412.65
-652.021
-85.9573
-69.6368
15.5028
6.56106
34.0302
-3.62499
-19.8151
-26.8702
-18.1338
0.805415
6.70866
0.0778706
0.636104
11.5245
26.334
39.8342
1460.03
-480.879
-23.4743
-99.9567
-6.93635
11.2925
50.6324
2.92756
-17.9479
-29.1746
-41.6976
-33.3667
-4.79775
3.65098
7.54693
20.1625
35.003
47.3928
1451.49
-370.826
70.2196
-101.5
-6.80136
9.47133
45.151
14.8022
-5.58629
-13.1158
-24.032
-35.8158
-16.8902
3.96781
12.0504
25.0549
40.5932
49.192
1420.42
-279.167
146.613
-69.0219
38.2724
20.0188
37.2523
25.6418
9.15461
-6.08676
-27.5914
-35.9651
-14.5256
5.34543
13.8431
28.599
42.7807
47.6987
1209.45
-207.724
-37.2694
-279.08
-107.636
-53.9593
-13.1082
-9.78569
0.27929
2.57255
6.9251
7.31244
7.77656
5.32645
2.38846
-1.21443
0.731857
-13.3127
1229.71
-227.181
-49.5902
-271.063
-112.622
-57.396
-13.3996
-9.90272
-0.113069
2.15355
6.76561
6.90478
7.23397
4.73323
1.94846
-0.439495
1.23887
-4.34829
1251.12
-259.656
-58.0036
-282.301
-125.215
-55.1973
-14.3562
-8.89424
-1.22451
1.84632
6.12174
6.4776
6.86811
4.86272
2.71134
1.21492
2.35471
1.54664
1279.75
-306.754
-68.0631
-300.317
-142.088
-54.1999
-14.1081
-5.90581
-0.77377
2.12947
5.48664
6.01405
6.48828
4.99726
3.59407
3.45292
4.62205
6.43936
1297.04
-374.4
-100.172
-303.726
-137.68
-54.8527
-12.1574
-2.08705
1.22654
3.23185
5.03329
5.5047
6.01819
5.21717
4.39699
4.50218
6.31421
9.62475
1305.09
-469.976
-130.426
-293.584
-138.385
-58.2671
-11.4099
1.79899
4.00369
4.89848
5.76092
5.4672
5.50216
5.27625
5.16699
6.13831
8.10673
11.652
1311.51
-579.148
-150.525
-275.278
-146.112
-62.3199
-9.01408
7.16722
6.93206
6.97382
6.77386
6.00192
5.47265
5.14274
5.53306
7.17903
9.48002
12.3774
1311.34
-686.559
-183.491
-258.662
-146.222
-67.6906
-7.21275
10.8164
10.4063
9.37698
7.99361
6.74504
6.1633
5.823
5.98374
7.06592
8.73271
10.477
1303.77
-776.256
-212.168
-243.009
-124.857
-73.6087
-8.5813
10.7986
13.9536
10.1616
8.1188
6.45886
5.95971
5.50181
5.48976
5.71404
6.59996
8.06645
1291.56
-853.003
-221.706
-211.532
-91.1762
-67.5073
-9.4876
13.801
17.0362
10.2908
6.46598
4.11488
4.30128
4.15831
4.27058
5.20425
7.17909
9.24222
1255.32
-898.133
-176.009
-173.386
-67.7055
-55.2614
-7.64537
19.1069
21.0616
12.1348
5.47994
2.273
2.9063
4.27013
6.12437
7.76797
9.55282
11.6998
1228.91
-869.909
-97.2011
-140.245
-51.3848
-43.9897
-4.53266
22.8462
26.3055
16.7823
7.32391
3.47606
3.14259
4.76861
7.16257
9.33257
11.4558
13.9739
1223.75
-815.298
-14.7088
-117.95
-39.2485
-32.359
2.38131
23.7699
30.0425
19.3443
8.83893
4.14824
3.32769
5.02748
7.83667
8.8835
8.91156
9.80027
1220.94
-750.177
56.2826
-106.635
-30.3973
-18.1392
13.6524
26.6183
30.5041
18.3873
6.23378
1.29824
2.29581
7.22087
8.99025
6.34464
5.45153
6.57445
1212.25
-710.227
112.309
-64.0892
-21.8632
3.84152
13.2302
12.1528
17.8468
12.1156
1.47068
-5.01017
-1.99318
2.81269
12.1058
15.4101
15.8656
15.5699
1205.94
-681.181
136.851
-75.8428
2.75599
22.0111
-10.0807
-22.2709
-4.63293
-1.9208
-7.392
-7.82911
-3.05012
2.02108
4.18138
4.95328
4.17896
5.67653
1212.49
-651.876
157.083
-108.062
30.2198
12.2674
-16.7912
-30.8228
-11.0288
-0.25155
2.31246
5.47714
5.7091
4.19404
0.990546
-0.0187597
-0.156793
0.125152
1215.15
-645.927
193.934
-96.7067
40.7254
-2.05652
-0.989216
-10.8666
1.49998
11.8877
18.1873
19.0683
18.4925
18.5637
16.747
14.7879
16.3768
22.62
1210.94
-624.202
224.938
-88.4177
37.8468
-4.70964
8.41464
-3.99153
9.79537
15.6363
23.9167
26.5955
22.8548
17.8238
13.7999
13.3972
18.396
22.7814
1208.1
-632.879
226.62
-88.9075
36.0946
-3.62449
13.2956
4.81372
10.8895
14.6771
18.7768
19.5767
19.0397
17.0464
15.8807
15.8507
16.6507
18.0433
1209.47
-627.038
223.156
-84.7988
34.7537
-2.86743
11.5635
1.78801
14.4088
18.5533
21.6534
22.384
21.9112
20.4786
19.4226
18.8611
18.06
17.1412
1217.99
-648.74
211.019
-83.9704
30.8638
-3.84428
15.7672
1.48686
7.35164
11.7241
18.6024
21.543
22.3538
22.2087
22.2522
22.1684
20.8968
19.0695
1227.8
-652.863
184.365
-83.8375
30.2359
-6.81509
19.4927
10.4006
12.4746
15.5597
20.8013
22.3433
22.1954
21.7317
22.0763
22.7036
22.4748
21.6313
1228.28
-676.716
137.654
-75.6834
24.638
-5.73927
19.9841
5.59227
8.40751
14.4054
22.3019
19.2045
15.1266
17.2027
20.1015
23.7573
26.3458
26.6374
1218.03
-699.117
52.1015
-58.5917
16.4334
-10.5907
16.0761
0.702659
7.12802
10.5109
12.5693
13.7564
12.6803
10.9777
14.1283
20.9525
27.5248
30.0016
1283.21
-772.423
-57.1634
-59.7474
8.29874
-18.7732
28.3423
16.7158
6.34305
-1.97491
0.0689925
5.96411
6.1876
4.79915
7.62592
16.3424
27.9216
34.8762
1382.62
-769.373
-125.321
-83.3845
10.2078
-17.1076
30.3195
17.6511
2.89405
-9.5871
-10.9865
-3.21586
0.695401
2.2158
2.83638
13.4311
32.2949
42.6823
1423.25
-730.927
-134.727
-75.1622
-33.6551
-51.5565
61.4191
34.4565
11.2221
-6.73721
-20.68
-13.7061
-3.92186
2.53537
4.41565
15.4209
33.8565
44.3215
1410.62
-663.596
-106.117
-61.0533
-38.5224
-44.6692
33.8626
24.5293
16.9636
16.4039
2.38428
-19.3914
-18.7692
-4.06785
5.19533
18.7762
34.9875
43.309
1409.62
-566.518
-41.4652
-48.1522
8.72499
-5.80321
35.3232
31.9515
18.5775
12.3767
-7.35912
-22.7624
-16.8338
-1.81424
8.28529
20.8877
34.4623
39.8931
1213.09
-192.843
27.7364
-291.279
-93.4086
-38.2257
-11.8424
-10.7665
1.33502
3.49367
8.0695
8.32195
7.24852
3.40216
1.1625
-3.03677
1.54318
-7.99316
1223.89
-191.2
26.6962
-308.796
-106.734
-36.6801
-13.4861
-9.96518
0.25514
3.02755
7.62332
7.39097
6.53629
2.75513
0.000783272
-3.28021
1.46227
-0.862311
1253.61
-205.875
27.1133
-335.851
-129.056
-34.1598
-13.2294
-7.55967
-0.076797
2.4879
6.78009
6.72317
6.38946
3.05152
0.66778
-1.53407
2.53482
4.15032
1290.5
-227.654
2.29511
-353.863
-132.723
-31.6172
-8.99094
-4.6515
1.05813
2.89898
6.25631
6.43629
6.44415
4.14558
2.68962
2.12446
4.66877
7.47517
1312.73
-280.201
-62.0014
-346.87
-100.625
-30.3697
-2.87667
-2.88632
2.32243
3.94759
6.24337
6.30587
6.42964
5.07648
4.26484
4.29615
6.25852
9.29199
1323.39
-358.524
-113.289
-306.401
-83.4109
-39.0735
-3.38982
-0.955421
3.55752
5.38829
7.03935
6.7434
6.4568
5.65336
5.22663
5.56353
7.39676
10.7363
1331.59
-447.114
-143.903
-284.104
-85.8054
-40.4582
-3.86859
2.87339
5.00862
6.84843
7.86145
7.26752
6.57475
5.77017
5.73348
6.53253
8.65867
11.8929
1335.89
-555.052
-184.455
-274.688
-86.5503
-37.0472
-3.06588
7.9469
6.80739
8.20359
8.59124
7.85095
6.77005
5.87198
6.06533
6.83197
8.63545
11.0391
1335.5
-690.239
-223.329
-244.127
-87.9051
-35.9406
-0.877926
11.2078
9.62682
8.44033
8.21282
7.67078
6.52438
4.98863
4.89652
5.68874
7.36523
10.082
1321.77
-832.495
-248.25
-214.079
-72.1537
-23.1913
2.70626
14.7898
14.0655
8.2382
7.27961
6.48949
5.58847
4.14562
3.83616
4.65305
6.70035
9.30378
1275.81
-918.185
-211.874
-181.106
-59.927
-16.2342
8.92276
19.9254
19.4984
9.80356
8.14502
6.51249
4.77058
4.07453
4.60075
5.24681
6.54455
8.25267
1225.38
-884.142
-118.409
-155.445
-49.19
-17.5825
15.4561
26.067
24.7741
13.5153
8.63474
5.641
3.92729
3.49369
4.02883
5.63053
6.82951
8.2179
1213.33
-807.244
-29.439
-135.973
-39.3361
-18.2633
21.8396
30.9853
28.0521
16.3824
8.61686
4.61833
3.19514
3.80393
5.28803
6.2587
6.60176
8.0156
1212.11
-735.051
49.9058
-110.92
-30.381
-15.464
28.4018
34.4646
28.5326
17.5277
8.09503
2.84459
1.92599
2.77907
4.60652
6.0987
7.08387
8.04021
1203.4
-701.604
83.495
-97.6044
-27.5661
-8.32043
11.5953
12.2871
17.3353
14.9512
10.55
3.66273
7.13929
10.6613
14.6242
18.7049
21.2667
18.6242
1204.53
-694.168
103.268
-102.416
-11.2239
3.56058
-20.949
-24.5964
-2.72245
4.71648
0.274743
-6.94271
-0.9771