/*--------------------------------*- C++ -*----------------------------------*\
| =========                 |                                                 |
| \\      /  F ield         | OpenFOAM: The Open Source CFD Toolbox           |
|  \\    /   O peration     | Version:  2112                                  |
|   \\  /    A nd           | Website:  www.openfoam.com                      |
|    \\/     M anipulation  |                                                 |
\*---------------------------------------------------------------------------*/
FoamFile
{
    version     2.0;
    format      ascii;
    arch        "LSB;label=32;scalar=64";
    class       volScalarField;
    location    "0.21";
    object      pMean;
}
// * * * * * * * * * * * * * * * * * * * * * * * * * * * * * * * * * * * * * //

dimensions      [0 2 -2 0 0 0 0];

internalField   nonuniform List<scalar> 
122250
(
1115.17
-413.378
-63.7007
-137.082
-27.0999
-19.94
13.9032
19.534
28.3608
30.0548
32.7301
32.8238
32.9419
32.5099
32.2397
31.9039
31.9419
31.5689
1123.9
-443.836
-84.9037
-142.757
-34.6443
-24.9159
10.3265
16.5958
26.1682
27.85
30.8195
31.0739
31.384
31.1273
30.9686
30.7405
30.8042
30.8495
1138.91
-484.069
-103.358
-146.537
-39.0706
-28.8656
7.22733
13.6217
23.898
25.4992
28.7297
29.1618
29.7044
29.6451
29.6388
29.4779
29.5992
29.7356
1146.47
-529.597
-115.19
-149.791
-44.7795
-33.0714
3.62299
10.6817
21.5643
23.2932
26.6733
27.3091
27.9959
28.1084
28.2625
28.2476
28.4057
28.6357
1134.78
-571.484
-118.27
-152.207
-49.3192
-36.4527
0.327494
7.96934
19.5165
21.5602
25.0476
25.8622
26.6649
26.9304
27.2252
27.3481
27.541
27.7995
1113.82
-604.77
-113.383
-154.456
-53.1256
-39.4379
-2.94474
5.36057
17.3481
19.8987
23.4984
24.5679
25.5955
26.0104
26.409
26.6411
26.8701
27.1528
1092.55
-626.495
-100.19
-155.688
-55.8426
-41.7672
-5.87156
2.94178
14.9446
18.1443
21.8879
23.3097
24.6183
25.2607
25.7697
26.0943
26.3697
26.713
1073.52
-635.772
-80.3792
-154.412
-57.4466
-43.163
-8.71321
0.769411
12.3661
16.2846
20.2442
22.0277
23.6117
24.5486
25.2123
25.6858
26.0839
26.4607
1057.11
-634.216
-55.0228
-148.885
-57.4259
-43.3642
-11.3507
-1.06728
9.94751
14.3915
18.5158
20.6959
22.5614
23.7527
24.5977
25.2123
25.765
26.2173
1043.49
-626.059
-26.0937
-138.194
-55.7068
-41.8672
-13.0932
-2.39366
7.90212
12.6675
16.832
19.3139
21.3796
22.816
23.8561
24.5452
25.1885
25.7615
1033.19
-612.431
6.17495
-124.04
-51.2808
-38.0835
-13.0631
-2.87211
6.60913
11.2799
15.3021
17.8838
20.1
21.7575
22.9877
23.8034
24.4967
25.1617
1026.1
-597.963
37.0691
-108.37
-44.3426
-32.6436
-11.4757
-2.68754
6.00248
10.3812
14.177
16.7703
19.1164
20.8985
22.3038
23.2533
24.0257
24.7129
1018.74
-583.521
66.2006
-90.7719
-34.0619
-25.4718
-8.23262
-1.54356
6.062
10.0849
13.7128
16.2349
18.5862
20.4069
21.8694
22.8915
23.7022
24.3439
1014.39
-567.655
91.9664
-74.362
-19.6299
-15.8747
-2.70369
1.20411
7.27684
10.7001
14.0781
16.3065
18.3786
20.08
21.5335
22.5528
23.3586
24.0111
1014.49
-551.448
105.706
-65.4904
-4.41506
-6.81194
3.02024
4.71974
9.62865
12.3262
15.2015
17.0644
18.8307
20.1463
21.3797
22.3152
23.1104
23.8585
1014.37
-540.082
106.03
-66.3199
8.02305
-1.28612
7.98669
8.4691
12.3465
14.1881
16.4744
17.9572
19.5482
20.8058
21.8539
22.6396
23.4069
24.1775
1024
-523.64
95.1082
-68.0889
14.3947
-0.38163
10.8985
10.4364
14.3795
15.9448
17.9982
19.2802
20.7422
21.9368
22.9546
23.632
24.1855
24.7208
1032.08
-495.683
88.9933
-72.5205
16.7182
-0.781291
12.4837
11.4365
16.0523
17.4482
19.4384
20.6049
21.8953
22.8008
23.6285
24.3761
25.0415
25.5451
1037.33
-489.494
84.3312
-74.6297
19.0784
-0.875526
13.7929
12.0134
16.39
17.6212
19.7314
21.0147
22.4079
23.4424
24.3835
25.0839
25.6445
26.1122
1019.13
-516.228
100.774
-69.9544
16.4769
1.15394
12.9444
11.5795
15.8972
17.3142
19.4857
20.7791
22.1488
23.1796
24.1017
24.7479
25.2361
25.6733
1008.51
-532.652
115.836
-60.8371
10.8489
0.645912
10.925
10.4756
14.9009
16.5973
19.0562
20.6205
22.0465
22.9173
23.5766
24.0904
24.5917
25.0473
1008.01
-544.159
110.292
-58.3831
-1.55099
-4.00941
7.8906
8.71317
13.4759
15.7538
18.2972
19.8455
21.2852
22.3436
23.1604
23.7192
24.2756
24.8
1014.6
-564.136
75.1177
-73.4267
-14.4455
-11.3295
4.59278
7.11933
13.1787
15.6891
18.2282
19.5945
21.003
22.1057
23.0736
23.7071
24.2176
24.6676
1023.8
-582.58
29.1129
-90.3602
-19.3861
-15.2544
4.45267
7.64525
14.4577
16.5957
19.0186
20.2161
21.5558
22.5467
23.4083
23.9911
24.445
24.7983
1035.98
-598.179
-13.8359
-99.187
-20.5702
-17.4047
5.97911
8.69607
15.8742
17.5299
20.0251
21.0878
22.3114
23.0285
23.7139
24.2409
24.656
25.0083
1059.22
-607.045
-52.6353
-102.621
-19.9559
-17.2902
8.43761
10.0947
17.3988
18.674
21.2537
22.1077
23.1598
23.7896
24.3708
24.7999
25.1914
25.517
1089.16
-588.19
-81.6259
-105.719
-19.6892
-15.8661
10.0741
11.4598
18.6604
19.6858
22.083
22.8314
23.9381
24.5375
25.0275
25.3568
25.7444
26.1174
1099.31
-536.987
-83.414
-108.692
-15.8535
-12.9551
13.1019
13.6144
20.4074
21.0988
23.3327
23.9897
25.0263
25.5233
25.9432
26.2571
26.716
27.1672
1086.79
-479.761
-60.9843
-111.421
-13.1411
-9.79224
14.968
15.9624
22.1125
22.626
24.7157
25.2967
26.19
26.5542
26.9291
27.2541
27.7127
28.1733
1076.08
-424.588
-24.1772
-105.771
-0.875285
-2.76569
19.1364
19.5469
24.6687
24.8758
26.6431
27.1311
27.8636
28.1264
28.4194
28.6692
29.0267
29.3761
1116.37
-409.631
-59.8507
-138.754
-26.5895
-20.5818
13.3116
18.5973
27.6177
29.4467
32.44
32.6656
32.9074
32.6083
32.3673
32.0027
32.0324
31.5464
1125.05
-441.834
-82.3132
-144.288
-34.3574
-25.4162
9.6155
15.664
25.4936
27.3422
30.5913
30.9665
31.4325
31.3118
31.1964
30.9669
31.029
31.0368
1139.48
-483.847
-102.956
-148.456
-39.2347
-29.1911
6.42549
12.7698
23.2209
25.0761
28.5333
29.0733
29.7802
29.8744
29.9407
29.8429
29.9889
30.1034
1146.58
-530.321
-116.785
-152.163
-44.9751
-33.13
2.99773
10.0245
21.0017
22.9911
26.5198
27.1925
28.0822
28.3841
28.5923
28.6471
28.8489
29.0716
1134.9
-570.772
-120.366
-155.282
-49.0158
-36.3804
-0.112429
7.46628
19.117
21.2763
24.8199
25.6327
26.6744
27.1338
27.4888
27.6666
27.9234
28.2075
1114.67
-602.255
-116.31
-157.917
-52.6401
-39.5396
-3.27685
4.88484
17.0185
19.5724
23.227
24.2331
25.4787
26.1359
26.6316
26.8818
27.1696
27.4997
1094.94
-623.405
-103.983
-158.973
-55.2142
-42.1716
-6.34849
2.41254
14.6322
17.8646
21.7304
23.018
24.4947
25.3792
25.9908
26.286
26.6027
26.9819
1077.23
-632.241
-83.9392
-157.603
-56.988
-43.6989
-9.36199
0.248113
12.1868
16.2008
20.2832
21.9151
23.5741
24.6551
25.4096
25.8011
26.1639
26.5464
1060.79
-631.082
-59.147
-151.908
-57.2718
-43.8863
-11.806
-1.32422
9.98999
14.5005
18.7369
20.7356
22.5556
23.8614
24.7818
25.3354
25.7801
26.1822
1045.77
-623.522
-30.2959
-140.693
-55.3579
-42.1985
-13.1308
-2.34032
8.12808
12.896
17.0872
19.3705
21.3431
22.8426
23.9919
24.6882
25.2079
25.6651
1033.5
-611.132
2.83427
-125.397
-50.4596
-38.1723
-12.82
-2.70541
6.83057
11.5036
15.4909
17.9277
20.0003
21.6353
22.9922
23.8494
24.474
25.0499
1025.54
-596.673
34.0655
-109.103
-42.7503
-32.3232
-10.9034
-2.32657
6.19305
10.5681
14.3073
16.7364
18.8428
20.5555
22.042
23.0595
23.8403
24.5217
1018.38
-581.635
62.5545
-91.7104
-32.5581
-25.1015
-7.52283
-1.15456
6.16636
10.138
13.6543
16.0198
18.1832
19.9043
21.4211
22.5059
23.3565
24.0486
1015.34
-566.723
87.1975
-76.1544
-18.2765
-15.7889
-2.28632
1.42765
7.31298
10.6887
13.8336
15.9589
18.0269
19.5934
21.0153
22.0894
22.9559
23.6789
1013.57
-553.539
99.8869
-67.6134
-3.29906
-6.90866
3.23575
4.85853
9.66736
12.2013
14.8719
16.7727
18.6702
20.0253
21.1938
22.0812
22.859
23.5744
1011.94
-545.129
101.531
-67.2652
8.05762
-1.5003
8.17025
8.28657
12.1222
13.9227
16.1816
17.7448
19.3835
20.6752
21.7343
22.5342
23.2819
23.995
1022.08
-524.28
90.1507
-72.3814
14.6094
-1.46236
10.9993
10.226
14.1517
15.7112
17.827
19.17
20.5983
21.7311
22.6965
23.4396
24.0938
24.6627
1030.04
-497.438
86.0239
-75.7027
16.731
-3.07784
12.1162
11.0274
15.8625
17.2923
19.3679
20.4944
21.7315
22.6401
23.5187
24.3182
25.0564
25.6135
1034.87
-491.109
83.388
-72.4826
18.3752
-0.987544
13.9771
11.9458
16.6457
17.771
19.7842
21.0237
22.3374
23.3114
24.2772
25.0397
25.6299
26.0811
1016.07
-519.847
99.5094
-69.5924
17.0541
0.919484
12.9578
11.9272
16.1055
17.4253
19.4789
20.7359
22.1402
23.195
24.1574
24.8386
25.363
25.8139
1008.47
-536.798
114.688
-60.9014
10.4577
0.516765
10.878
10.2494
14.582
16.1456
18.5762
20.1784
21.6651
22.604
23.3189
23.9279
24.544
25.1037
1009.32
-545.722
109.959
-59.1639
-2.01051
-4.22526
7.63659
8.24111
13.0206
15.2593
17.8641
19.4728
20.8995
21.9379
22.8039
23.4576
24.1001
24.6794
1018.23
-560.111
75.3476
-74.3935
-13.7068
-10.8605
4.39073
6.9217
12.7802
15.2985
17.856
19.3019
20.7332
21.8533
22.8761
23.5743
24.0933
24.5349
1027.49
-577.691
31.7834
-90.6701
-19.3033
-15.163
4.28687
7.49823
13.9323
16.1177
18.7333
20.1179
21.5657
22.6171
23.4927
24.0684
24.5047
24.8085
1040.14
-589.632
-8.5404
-100.018
-20.3344
-17.2962
5.61059
8.39348
15.3537
17.1965
19.8026
21.0923
22.4536
23.2076
23.8402
24.3169
24.6993
25.0314
1060.16
-594.753
-42.5926
-101.546
-19.4088
-17.1679
8.18398
9.85906
17.0978
18.4861
21.1
22.118
23.3278
23.8965
24.3318
24.7108
25.102
25.4507
1086.97
-580.074
-72.3488
-103.59
-18.495
-15.3703
10.0165
11.44
18.5301
19.6208
22.0371
22.8564
23.9986
24.5244
24.8913
25.1993
25.6132
26.0308
1095.43
-536.867
-77.5504
-105.536
-14.1892
-12.2877
12.5425
13.5014
20.3885
21.1516
23.3094
24.0164
25.0594
25.5057
25.8582
26.1742
26.6595
27.1315
1083.32
-486.357
-58.669
-107.702
-12.2153
-9.01352
14.2741
15.7534
22.1396
22.7133
24.7065
25.3187
26.2222
26.6075
26.9663
27.3031
27.7703
28.2281
1073.7
-434.795
-25.0565
-102.265
-0.215885
-1.88799
18.3935
19.15
24.532
24.8756
26.6386
27.191
27.9071
28.1846
28.5118
28.8222
29.2129
29.5673
1121.08
-394.667
-53.7586
-141.535
-27.2351
-20.3736
12.5631
17.6642
27.4242
29.2735
32.1826
32.3856
32.8288
32.6718
32.5644
32.3005
32.2974
31.5883
1129.66
-428.452
-78.8642
-147.148
-34.8298
-25.1813
8.87434
14.8066
25.2823
27.3191
30.5452
30.9075
31.5455
31.4703
31.4551
31.3421
31.3809
31.221
1144.12
-475.529
-103.796
-150.416
-38.7859
-28.7203
5.86679
12.1283
23.0459
25.2132
28.6998
29.2073
30.0215
30.1332
30.294
30.307
30.4359
30.4229
1149.88
-527.66
-121.42
-152.882
-43.6607
-32.5104
2.55115
9.43657
20.7521
23.0435
26.5995
27.2656
28.3142
28.6755
28.9936
29.1345
29.342
29.5041
1136.28
-572.891
-126.66
-154.545
-47.448
-35.8881
-0.472858
6.98467
18.7698
21.1491
24.7155
25.5847
26.8474
27.4552
27.906
28.1241
28.3995
28.6706
1114.71
-605.87
-121.301
-156.139
-51.1851
-39.2661
-3.78785
4.50972
16.6964
19.2965
22.9302
24.0447
25.5319
26.3866
26.9945
27.2931
27.6431
27.9939
1093.97
-626.5
-107.219
-156.843
-53.9096
-41.8533
-6.99342
2.08626
14.5546
17.5495
21.3442
22.7153
24.4309
25.5169
26.279
26.6737
27.0964
27.4942
1075.63
-635.301
-86.7197
-155.632
-55.493
-43.5271
-9.91289
0.00777085
12.248
15.8899
19.874
21.5569
23.4202
24.6991
25.5634
26.0643
26.5639
27.0165
1059.87
-633.452
-61.4813
-150.538
-56.0253
-44.0847
-12.1421
-1.44379
10.2052
14.4281
18.4777
20.466
22.4404
23.8288
24.8121
25.4441
26.0241
26.5061
1046.14
-624.408
-32.078
-141.022
-54.7566
-42.8873
-13.3932
-2.28402
8.56894
13.0823
17.027
19.2135
21.3125
22.8383
23.9875
24.7165
25.2953
25.7619
1035.31
-611.758
-0.379248
-126.831
-50.1752
-39.1563
-13.1753
-2.65965
7.21936
11.7932
15.555
17.8183
19.9317
21.5728
22.925
23.8217
24.4175
24.9569
1027.95
-597.217
29.8391
-110.768
-42.4163
-33.0141
-10.994
-2.28005
6.37913
10.7407
14.377
16.6565
18.7123
20.4071
21.9226
22.9745
23.6778
24.2884
1020.59
-581.654
59.0946
-93.7756
-32.3956
-25.3041
-7.39261
-1.11535
6.1761
10.1692
13.7203
16.0377
18.1222
19.7396
21.1804
22.2609
23.1007
23.7533
1016.33
-565.708
85.1269
-77.6587
-18.18
-15.8725
-2.24481
1.30441
7.18966
10.5714
13.8109
15.8885
17.9073
19.4375
20.724
21.7139
22.5579
23.2918
1013.07
-552.083
98.5573
-67.9308
-2.39081
-6.94072
3.29496
4.81098
9.56179
12.0612
14.8192
16.6258
18.4902
19.8425
20.9548
21.7908
22.5577
23.2473
1012.31
-545.364
97.8478
-67.4886
8.73429
-1.87576
8.4653
8.35948
12.0187
13.9422
16.2438
17.7468
19.3403
20.5587
21.6066
22.4044
23.161
23.8956
1025.45
-523.777
84.5475
-73.8455
14.1701
-2.00446
10.999
10.0531
14.0668
15.7485
17.8726
19.2014
20.6439
21.6752
22.5557
23.3114
24.0083
24.6006
1032.53
-503.146
76.7315
-78.4259
16.4756
-3.26297
12.2261
10.8699
15.6372
17.2633
19.3841
20.4754
21.6817
22.6173
23.5208
24.3197
25.0367
25.5783
1040.74
-496.015
71.6828
-76.9185
19.1925
-1.15115
14.1522
11.8186
16.4531
17.771
19.8113
21.0111
22.3057
23.2381
24.1228
24.9028
25.5419
26.0341
1019.3
-526.429
90.891
-71.8498
17.8386
1.69696
13.4093
12.2137
16.2486
17.5831
19.5967
20.7617
22.0633
23.0706
24.0303
24.766
25.3482
25.8293
1005.72
-539.333
112.414
-62.7462
10.0779
0.454704
10.7078
10.0148
14.3555
15.8495
18.1968
19.7029
21.2013
22.2254
23.0856
23.7908
24.5023
25.1533
1009.25
-548.083
108.122
-59.2178
-1.82707
-4.03961
7.15935
7.64519
12.3888
14.5801
17.285
18.9194
20.4818
21.6876
22.6511
23.3945
24.0781
24.676
1015.17
-567.151
73.6855
-74.7105
-14.458
-11.0667
3.98074
6.57868
12.1528
14.6208
17.3338
18.9417
20.5957
21.7833
22.8349
23.5685
24.1684
24.6534
1027.22
-585.661
28.1517
-92.8172
-20.0977
-15.0957
3.94191
7.28299
13.549
15.6645
18.4116
19.9237
21.4662
22.5832
23.524
24.1481
24.6096
24.9285
1039.56
-597.537
-9.48463
-101.83
-21.1734
-16.8042
5.52416
8.47677
15.3817
16.9931
19.6431
20.959
22.3104
23.0974
23.7793
24.2511
24.6883
25.0526
1058.09
-600.606
-41.1156
-102.207
-19.6048
-16.1724
8.03972
9.97336
17.1058
18.3292
20.9742
22.0402
23.2536
23.825
24.2704
24.6459
25.0983
25.5294
1084.43
-587.992
-69.778
-102.695
-18.5592
-14.5015
9.99821
11.2638
18.3217
19.3872
21.9689
22.871
24.0274
24.5148
24.8707
25.2167
25.7313
26.1973
1092.98
-547.712
-77.6473
-104.333
-14.9353
-11.2902
12.398
13.3537
20.1641
20.9964
23.3746
24.1428
25.2226
25.6884
26.0321
26.3329
26.8078
27.2499
1079.97
-498.735
-60.4107
-105.388
-13.0925
-8.51768
14.0915
15.9011
21.9765
22.578
24.7676
25.4459
26.3865
26.7947
27.1143
27.3862
27.8288
28.2435
1070.34
-445.551
-27.0316
-101.64
-1.52684
-1.41687
17.9662
19.2559
24.4687
24.881
26.8243
27.4159
28.1767
28.4532
28.6869
28.9005
29.2541
29.564
1126.01
-376.893
-46.7762
-143.277
-26.7176
-20.0813
12.8119
17.9986
27.4842
29.2891
31.9933
32.2666
32.6805
32.7516
32.8848
32.7389
32.655
31.7745
1134.6
-413.13
-74.4115
-148.932
-34.5725
-24.9726
9.21677
15.1268
25.3199
27.3077
30.3065
30.7097
31.2564
31.4614
31.7437
31.7282
31.6772
31.4024
1148.36
-465.117
-102.373
-151.386
-38.1732
-28.2891
6.18482
12.3535
23.0698
25.1093
28.3528
28.915
29.615
29.9638
30.4079
30.5176
30.5909
30.5197
1153.55
-523.304
-123.641
-153.209
-43.2064
-31.9914
2.80037
9.56927
20.7084
22.8462
26.246
26.9744
27.8803
28.3773
28.922
29.1844
29.3946
29.5657
1139.46
-574.432
-131.794
-154.535
-46.6377
-35.0726
0.117853
7.0965
18.5302
20.8311
24.3745
25.3151
26.4206
27.0607
27.7017
28.0698
28.397
28.7192
1115.88
-610.363
-126.583
-156.292
-49.933
-37.8493
-2.67977
4.74882
16.3278
18.9146
22.5735
23.7939
25.177
25.994
26.7509
27.2067
27.6173
28.0006
1092.68
-629.853
-110.903
-156.96
-52.3752
-40.4058
-5.76406
2.33697
14.1609
17.1753
20.9448
22.3928
24.0447
25.1182
26.0058
26.55
27.0288
27.4185
1073.51
-637.392
-89.9441
-155.688
-54.5845
-42.7097
-8.9817
0.190268
12.0023
15.6471
19.4748
21.0915
22.9335
24.2692
25.2542
25.9058
26.4279
26.8311
1059.06
-635.457
-64.571
-151.229
-55.8305
-43.8886
-11.7743
-1.29573
10.1924
14.3548
18.1382
19.9093
21.8222
23.3173
24.416
25.1647
25.7379
26.1595
1048.31
-627.408
-37.1377
-142.737
-54.6177
-42.93
-13.4964
-2.18011
8.75451
13.1272
16.7967
18.73
20.6328
22.1951
23.431
24.2764
24.8934
25.3652
1039.09
-615.99
-5.71918
-129.049
-50.2223
-39.4345
-13.3737
-2.5473
7.41396
11.7574
15.3892
17.4053
19.279
20.8729
22.2907
23.2917
23.995
24.5985
1033.1
-600.195
25.0794
-113.565
-43.2852
-33.3098
-11.1304
-2.23115
6.48081
10.6436
14.2044
16.3598
18.3186
19.948
21.4623
22.5578
23.3277
23.9942
1027.62
-582.497
54.9357
-96.041
-33.3999
-25.3759
-7.41289
-1.05623
6.18434
10.0204
13.5304
15.8128
17.8412
19.4384
20.9043
22.0593
22.9244
23.6049
1021.51
-563.461
83.2979
-77.2727
-18.827
-15.75
-2.2023
1.20253
7.05738
10.3339
13.581
15.7259
17.7423
19.2873
20.6103
21.6322
22.4864
23.1824
1017.6
-548.884
97.8285
-67.7323
-3.27007
-6.66506
3.63034
4.76809
9.55474
11.9784
14.6379
16.3574
18.1608
19.5777
20.8055
21.6994
22.4875
23.1497
1016.93
-542.235
95.4915
-68.7699
8.08198
-1.81652
8.34749
8.04275
11.9795
13.8623
16.2662
17.7135
19.3231
20.5464
21.5967
22.3934
23.1695
23.8589
1030.9
-518.26
82.2136
-73.4432
15.2255
-1.45862
11.2463
10.2934
14.1062
15.7964
18.0214
19.3157
20.7582
21.7571
22.6099
23.3958
24.089
24.6363
1037.53
-498.766
74.136
-78.7693
16.0785
-2.26941
12.492
11.2671
15.8171
17.3825
19.4581
20.5335
21.7314
22.6838
23.5917
24.3596
25.0479
25.6078
1044.29
-501.41
63.9333
-79.4536
17.837
-1.57778
13.8688
11.6453
16.1781
17.5544
19.7255
21.0363
22.3424
23.2392
24.1071
24.8805
25.5196
26.0211
1023.2
-522.631
88.2711
-73.7452
17.7936
0.900271
13.7676
12.1365
16.2477
17.6649
19.6249
20.6979
21.876
22.8311
23.8383
24.6805
25.3399
25.8303
1001.68
-539.785
112.895
-62.8559
9.80492
0.125107
10.6173
9.83915
14.3663
15.8417
18.1939
19.5453
20.9124
21.96
22.9809
23.7992
24.5638
25.2605
1003.76
-548.287
109.939
-58.7027
-1.95791
-4.12098
7.17607
7.71763
12.3532
14.4443
17.1755
18.7587
20.337
21.5507
22.5409
23.3674
24.1359
24.7546
1011.28
-569.652
74.4654
-74.5179
-14.56
-11.3039
4.17657
6.67699
12.0563
14.4144
17.2751
18.9924
20.5985
21.7046
22.7415
23.516
24.1574
24.6588
1020.99
-589.359
31.773
-91.7973
-20.5077
-15.6313
4.00405
7.1748
13.5065
15.5072
18.3125
19.8709
21.4356
22.4944
23.4251
24.056
24.5604
24.9277
1033.67
-602.512
-6.15619
-100.349
-21.7955
-17.2455
5.5201
8.38371
15.4176
16.9807
19.6656
20.8976
22.1823
22.9527
23.71
24.2493
24.7294
25.1184
1054.62
-607.534
-40.8793
-100.941
-19.4116
-15.9318
8.15358
9.68626
16.9451
18.1629
20.8638
21.8798
23.0396
23.626
24.2015
24.6965
25.2475
25.7127
1081.51
-596.351
-69.9867
-101.285
-18.0596
-14.451
9.6653
10.8364
18.077
19.0252
21.698
22.5992
23.72
24.2373
24.7259
25.2002
25.8077
26.3353
1090.99
-556.669
-78.9703
-103.79
-15.2729
-12.0116
12.2187
12.9429
20.0244
20.689
23.1459
23.8767
24.8738
25.3314
25.7819
26.2293
26.8479
27.4048
1077.67
-508.669
-61.8759
-104.555
-14.2588
-9.14525
14.2845
15.5777
22.07
22.5825
24.743
25.3307
26.1467
26.4723
26.8324
27.2009
27.7683
28.3042
1067.64
-455.869
-29.3022
-100.502
-3.05269
-2.45097
18.0356
19.1401
24.6417
24.977
26.8402
27.3172
27.9693
28.1907
28.464
28.751
29.2265
29.6711
1127.92
-369.087
-43.0568
-143.604
-25.2875
-18.6038
13.2451
18.7475
27.7002
29.3625
31.9704
32.3487
32.7838
32.6983
32.7086
32.4703
32.3703
31.6978
1136.34
-406.301
-70.8544
-149.282
-33.949
-24.2584
9.81645
15.7335
25.4174
27.2131
30.0894
30.6168
31.2155
31.2733
31.4092
31.3252
31.2973
31.2134
1149.92
-459.193
-99.3321
-151.614
-37.8151
-27.8123
7.0649
12.9062
23.1893
25.0259
28.067
28.709
29.4982
29.7108
29.9947
30.0704
30.2191
30.3142
1155.54
-518.98
-122.313
-153.455
-43.0441
-31.6709
3.5721
9.90889
20.7775
22.8339
26.0067
26.7565
27.6663
28.0172
28.4477
28.7221
29.0489
29.348
1142.25
-572.303
-132.625
-154.855
-46.8125
-35.2381
0.595112
7.29602
18.6211
20.9107
24.2921
25.1849
26.1859
26.674
27.2155
27.6156
28.0443
28.4624
1118.96
-609.708
-129.032
-157.195
-50.4084
-38.5143
-2.62194
4.89686
16.4342
19.0331
22.5712
23.7146
24.9015
25.5725
26.2348
26.7447
27.2436
27.7139
1096.05
-628.9
-113.854
-158.6
-53.3996
-41.2324
-5.8139
2.63897
14.3028
17.2607
20.818
22.1896
23.6766
24.6233
25.4203
26.0153
26.5958
27.114
1077
-635.753
-92.987
-157.485
-55.442
-43.0591
-9.10244
0.608269
12.1731
15.6521
19.1672
20.7107
22.4376
23.6343
24.6069
25.3248
25.9768
26.5474
1062.13
-634.816
-67.919
-152.136
-56.1177
-43.7735
-11.728
-1.06542
10.0772
14.1728
17.7551
19.4187
21.1785
22.5559
23.668
24.5114
25.2546
25.8689
1050.49
-627.61
-40.0289
-143.502
-54.9659
-42.4826
-13.2624
-2.08574
8.33964
12.7516
16.4232
18.2173
19.8701
21.2251
22.5031
23.5442
24.4325
25.1213
1041.33
-614.67
-7.89616
-130.244
-50.8711
-38.7944
-13.0618
-2.37682
7.12279
11.4548
15.0792
16.9385
18.5727
19.9697
21.4305
22.5901
23.5556
24.3587
1035.84
-597.82
23.4072
-114.298
-43.8892
-32.7197
-10.9383
-2.03256
6.39509
10.5064
13.9791
16.0039
17.8558
19.3475
20.8393
22.0439
22.9772
23.8025
1028.87
-579.314
55.1077
-96.3581
-34.2691
-25.115
-7.22621
-0.728723
6.38987
10.0424
13.3548
15.486
17.5079
19.0909
20.5863
21.8098
22.7557
23.5403
1021.56
-559.603
84.9859
-77.8964
-20.0679
-15.69
-2.04356
1.45646
7.22686
10.3817
13.5489
15.6291
17.6117
19.2183
20.6688
21.7397
22.5896
23.335
1018.08
-545.029
100.774
-66.6873
-4.10656
-6.49899
3.5377
4.70914
9.47577
11.9161
14.6093
16.3888
18.138
19.6065
20.9393
21.9254
22.7303
23.4151
1019.1
-535.797
97.9364
-69.0449
7.54884
-1.08348
7.86268
7.81593
11.9662
13.9749
16.4486
17.9095
19.4324
20.5851
21.6186
22.4811
23.2824
23.9685
1032.01
-514.36
83.4973
-72.4494
15.6568
-0.179799
11.0337
10.296
14.3496
16.1276
18.41
19.6162
20.9204
21.856
22.629
23.3366
24.0229
24.6231
1035.86
-490.154
78.3521
-76.3003
17.8859
-0.846952
12.6983
11.5078
15.9421
17.3481
19.4538
20.5286
21.7639
22.7315
23.6106
24.3597
25.0368
25.5952
1049.37
-487.136
66.5243
-79.6739
18.2809
-0.242963
14.4197
11.7692
16.1916
17.6864
19.94
21.231
22.4015
23.1545
23.9387
24.6937
25.3731
25.911
1024.38
-515.665
88.1117
-72.0839
18.6617
1.26496
13.7148
12.025
16.1411
17.6407
19.6932
20.6746
21.7488
22.6729
23.6896
24.5855
25.312
25.8108
1004.26
-535.874
110.541
-63.7178
10.7739
1.52171
11.0241
10.227
14.5235
16.0345
18.4519
19.7816
20.9996
22.0225
23.0895
23.9318
24.6769
25.3231
1004.72
-545.764
109.317
-57.7484
-0.375279
-2.64729
7.56009
8.29551
13.0183
15.0331
17.6435
19.2237
20.815
21.9548
22.9235
23.6866
24.3697
24.9098
1012.81
-564.78
76.2622
-73.9854
-12.9343
-10.3777
4.53998
7.12824
12.7425
14.979
17.8731
19.6019
21.133
22.124
23.0102
23.7075
24.2969
24.756
1022.81
-583.599
32.9283
-91.1204
-19.2691
-14.9763
4.35324
7.60541
14.0828
16.0381
18.889
20.4343
21.8496
22.7141
23.4932
24.0891
24.5687
24.9328
1034.67
-597.86
-6.30295
-100.907
-21.1049
-16.9377
5.53534
8.44693
15.6608
17.3024
20.0143
21.242
22.4248
23.1088
23.7906
24.3168
24.8092
25.1659
1055.64
-604.995
-41.5309
-102.613
-20.1217
-16.491
7.84678
9.74257
17.2195
18.4117
21.0841
22.0587
23.0709
23.5567
24.1652
24.7288
25.312
25.7328
1082.57
-591.698
-68.6902
-101.811
-18.5222
-14.9797
9.70206
11.0201
18.1895
19.1563
21.8438
22.7434
23.6855
24.1276
24.7064
25.2424
25.8122
26.2584
1090.87
-547.71
-74.7923
-104.826
-15.0193
-12.122
12.1394
13.1626
20.0724
20.7986
23.1767
23.841
24.6641
25.1014
25.6986
26.2291
26.8171
27.3087
1076.88
-500.459
-56.891
-106.389
-13.8124
-8.77427
14.4964
15.7695
22.0684
22.8208
24.8825
25.3531
26.0062
26.2972
26.7495
27.1635
27.6904
28.1773
1067.22
-449.977
-24.9815
-101.395
-2.12425
-1.83174
18.4758
19.3351
24.6832
25.2288
26.9846
27.3305
27.8359
27.9996
28.3182
28.6252
29.0565
29.4625
1128.25
-365.25
-40.6964
-144.663
-25.4852
-17.5921
13.8229
19.3186
28.3342
29.7491
32.0945
32.072
32.41
32.3318
32.4023
32.2318
32.1988
31.6176
1136.78
-403.681
-69.138
-149.383
-33.68
-22.9712
10.5117
16.5733
26.1913
27.731
30.342
30.4565
30.926
30.9519
31.1094
31.0917
31.1104
31.0536
1149.92
-458.146
-99.0225
-151.024
-37.7515
-27.1095
7.58471
13.7893
24.0075
25.5581
28.3593
28.6789
29.35
29.532
29.8012
29.9187
30.0897
30.1807
1155.16
-519.678
-122.744
-152.529
-43.632
-31.5971
3.94718
10.522
21.5713
23.2161
26.159
26.7605
27.5967
27.9321
28.3307
28.6076
28.9045
29.1682
1141.26
-574.737
-132.783
-153.058
-47.2118
-35.5665
0.863912
7.65336
19.3772
21.2532
24.2931
25.1213
26.1081
26.575
27.1284
27.5363
27.9262
28.2973
1116.88
-613.748
-128.827
-154.951
-50.8608
-39.5265
-2.54527
5.18953
17.1332
19.4883
22.6477
23.6507
24.774
25.3896
26.1229
26.691
27.1868
27.6188
1092.45
-633.557
-113.605
-156.948
-54.3127
-42.5906
-5.98261
2.97967
14.7757
17.6984
20.9873
22.177
23.4726
24.2977
25.1885
25.9305
26.5846
27.1183
1072.25
-640.379
-91.82
-156.298
-56.7583
-44.1113
-9.34035
0.829233
12.3017
15.7909
19.2373
20.6885
22.201
23.2399
24.2477
25.1022
25.884
26.5404
1056.27
-639.737
-65.6033
-151.346
-57.7174
-44.3143
-12.1606
-1.15376
9.90795
13.9263
17.5748
19.2946
20.9578
22.1748
23.2826
24.1992
25.0338
25.7548
1044.53
-633.008
-36.8981
-142.19
-56.6959
-42.8212
-13.6516
-2.35077
8.05066
12.3354
16.0558
17.9862
19.6476
20.9188
22.1597
23.2119
24.1514
24.9157
1034.35
-619.417
-3.65233
-128.421
-53.0986
-38.9409
-13.218
-2.51949
6.86422
11.1628
14.8475
16.8732
18.5752
19.9373
21.2652
22.3722
23.4074
24.2381
1026.67
-600.594
29.7409
-112.252
-46.4285
-32.912
-10.988
-2.03823
6.27603
10.3998
14.0367
16.2025
18.0758
19.5368
20.8581
21.9607
22.9367
23.7879
1018.78
-580.769
63.0062
-93.4228
-36.5962
-25.4334
-7.27764
-0.650407
6.46663
10.1762
13.6992
15.9276
17.8799
19.4096
20.7202
21.8027
22.739
23.5428
1014.54
-561.673
91.0854
-75.287
-21.9506
-15.7951
-2.12893
1.6349
7.39323
10.627
13.9512
16.0856
17.9623
19.4992
20.9028
21.8673
22.664
23.3938
1012.36
-543.859
106.326
-65.4585
-5.50693
-6.40164
3.60432
4.84268
9.43389
12.0702
14.9401
16.7478
18.3666
19.735
21.0609
22.0734
22.8648
23.5246
1011.24
-536.004
104.62
-65.2463
7.13751
-1.06251
8.13581
8.15248
12.2339
14.1098
16.6424
18.1587
19.618
20.7411
21.7378
22.5822
23.3527
24.037
1021.7
-522.349
88.7967
-70.4939
14.6298
-0.729682
10.8928
10.1938
14.3637
16.1245
18.4159
19.6764
21.003
21.9251
22.6649
23.3007
23.9451
24.544
1031.93
-499.06
79.0909
-74.3706
18.0813
-1.17419
12.7714
11.1563
15.9367
17.3282
19.4981
20.5635
21.8315
22.7471
23.5752
24.2906
24.9502
25.5152
1048.04
-486.22
72.7226
-75.7733
18.7023
-0.449055
14.286
11.9761
16.4768
18.0401
20.2605
21.3942
22.424
23.1037
23.8184
24.5189
25.1904
25.7589
1024.37
-514.786
90.4783
-72.2543
16.8455
1.06794
13.6078
12.0014
16.028
17.5273
19.649
20.7148
21.7431
22.5913
23.585
24.4681
25.1865
25.6649
1005.69
-539.845
110.57
-60.4182
9.7367
1.04549
11.0287
10.3148
14.5207
16.1903
18.6056
19.9378
21.1727
22.1831
23.2271
24.0254
24.7466
25.3063
1008.19
-547.945
108.117
-56.9126
-1.34241
-3.02629
7.89681
8.73666
13.4067
15.6318
18.1188
19.6755
21.2759
22.3533
23.3088
23.9869
24.5382
24.9764
1013.45
-566.205
75.669
-72.269
-13.4987
-10.4997
4.75252
7.61559
13.2573
15.7367
18.5484
20.2016
21.6325
22.4924
23.2936
23.8896
24.3999
24.8193
1022.18
-584.591
33.0046
-89.6641
-19.6607
-15.5052
4.36269
7.93212
14.7358
16.8721
19.7099
21.0595
22.2575
22.9867
23.6769
24.1671
24.5579
24.9003
1033.71
-598.283
-7.00213
-100.048
-21.9184
-17.2967
5.65127
8.74099
16.2875
17.97
20.688
21.7272
22.7764
23.3932
24.0606
24.5103
24.9098
25.2152
1056.83
-603.005
-43.7222
-102.291
-20.6518
-16.5935
8.18908
10.1603
17.7287
18.9083
21.4809
22.4075
23.3675
23.8541
24.4281
24.944
25.4237
25.7475
1086.36
-584.572
-70.8054
-102.966
-19.1834
-15.4847
9.96622
11.3764
18.5782
19.4776
22.0075
22.8417
23.8095
24.3092
24.856
25.3285
25.823
26.2144
1095.28
-535.245
-72.3139
-106.198
-15.3203
-12.812
12.4258
13.2789
20.1894
20.854
23.1425
23.8485
24.7592
25.2517
25.8051
26.2296
26.7216
27.1619
1081.43
-483.965
-51.3893
-108.518
-14.4114
-9.81769
14.2641
15.4883
21.7799
22.5175
24.6375
25.2766
26.0481
26.4167
26.9017
27.2853
27.734
28.0989
1071.39
-431.443
-16.7429
-102.586
-2.66585
-2.22542
18.3495
19.1776
24.4472
24.8902
26.6643
27.1548
27.7708
27.9815
28.3333
28.6262
28.9784
29.2772
1125.23
-373.235
-46.3416
-145.766
-25.5408
-17.3386
13.7358
18.5388
27.8235
29.4826
32.0277
32.1641
32.5338
32.3731
32.3846
32.2484
32.2741
31.7623
1133.83
-412.178
-73.7545
-150.153
-34.1125
-22.2904
10.5655
15.9621
25.7856
27.5014
30.3057
30.5778
31.0779
31.0158
31.0911
31.0798
31.1539
31.113
1147.59
-466.45
-103.022
-151.205
-37.949
-26.339
7.66404
13.2649
23.6536
25.3179
28.2929
28.7518
29.4467
29.5367
29.7187
29.8018
29.9886
30.0757
1153.03
-527.538
-124.758
-151.865
-43.505
-31.0903
4.02684
10.2267
21.1695
22.9266
26.0102
26.7549
27.6485
27.9175
28.2245
28.4657
28.7531
28.9978
1138.57
-580.749
-132.47
-151.909
-46.929
-35.1978
0.932804
7.60331
18.8613
20.8544
24.0446
25.0318
26.096
26.542
27.0037
27.3766
27.7656
28.1398
1113.71
-617.202
-126.473
-153.213
-50.1652
-38.7761
-2.30125
5.24198
16.5426
18.9914
22.341
23.5139
24.7303
25.3332
25.9678
26.4838
26.969
27.4199
1089.28
-636.272
-110.281
-154.456
-52.8946
-41.4874
-5.62982
2.96652
14.2204
17.2401
20.7712
22.1526
23.4782
24.2195
25.003
25.694
26.3309
26.8577
1068.77
-644.034
-88.1904
-153.66
-55.8819
-43.1386
-8.98049
0.657051
11.8722
15.5385
19.2338
20.7897
22.2024
23.0811
23.9943
24.8337
25.6326
26.2826
1052.29
-644.416
-61.8403
-148.476
-57.5695
-43.7922
-12.0271
-1.31723
9.6817
13.8894
17.7325
19.438
20.9673
21.9838
23.0055
23.9684
24.9053
25.6409
1039.11
-637.593
-31.5044
-138.971
-56.7696
-42.3749
-13.8125
-2.54774
7.84411
12.2616
16.1885
18.0553
19.7143
20.8931
22.0542
23.152
24.1867
24.9552
1029.17
-623.567
2.51251
-124.912
-52.699
-38.4633
-13.6101
-2.74199
6.73799
11.0938
14.9934
16.986
18.7134
19.9975
21.2551
22.4529
23.5336
24.3242
1020.98
-605.155
36.7978
-108.675
-46.4543
-32.5717
-11.2197
-2.09023
6.41693
10.6066
14.4448
16.578
18.2562
19.5262
20.8482
22.0437
23.0525
23.8494
1013.68
-585.162
69.7913
-89.2645
-36.7548
-25.3458
-7.60063
-0.674318
6.67857
10.5065
14.1858
16.369
18.0721
19.3785
20.7327
21.8942
22.8549
23.6391
1009.29
-566.59
98.3433
-71.3144
-22.6832
-16.2723
-2.35449
1.8018
7.67018
10.9202
14.2843
16.3134
18.0443
19.5516
21.0137
22.0681
22.9255
23.6366
1006.93
-549.168
112.329
-64.228
-7.06761
-6.61413
3.57287
4.94458
9.59143
12.2584
15.1887
16.9077
18.5756
20.0249
21.319
22.2788
23.0058
23.6078
1006.15
-541.118
110.485
-63.0885
6.78577
-0.554163
8.15373
8.09185
12.2269
13.9747
16.5076
18.1272
19.7213
20.8282
21.7029
22.4669
23.2139
23.9297
1016.94
-526.745
94.6293
-68.1062
15.4869
0.434362
10.9647
10.1774
14.2052
15.8019
18.1761
19.5334
20.8885
21.8259
22.6177
23.2899
23.9395
24.5235
1027.19
-510.16
80.5362
-74.732
16.3433
-1.53733
12.4277
10.8528
15.7806
17.3232
19.6237
20.7028
21.8694
22.7149
23.5228
24.2267