/*--------------------------------*- C++ -*----------------------------------*\
| =========                 |                                                 |
| \\      /  F ield         | OpenFOAM: The Open Source CFD Toolbox           |
|  \\    /   O peration     | Version:  2112                                  |
|   \\  /    A nd           | Website:  www.openfoam.com                      |
|    \\/     M anipulation  |                                                 |
\*---------------------------------------------------------------------------*/
FoamFile
{
    version     2.0;
    format      ascii;
    arch        "LSB;label=32;scalar=64";
    class       volScalarField;
    location    "0.25";
    object      nut;
}
// * * * * * * * * * * * * * * * * * * * * * * * * * * * * * * * * * * * * * //

dimensions      [0 2 -1 0 0 0 0];

internalField   nonuniform List<scalar> 
12225
(
5.32133e-06
8.10063e-06
1.009e-05
1.13572e-05
1.21019e-05
1.24772e-05
1.2615e-05
1.26716e-05
1.26144e-05
1.24963e-05
1.23756e-05
1.22157e-05
1.20938e-05
1.19235e-05
1.18238e-05
1.16557e-05
1.15849e-05
1.14055e-05
0.000146087
6.3999e-05
4.56832e-05
3.78216e-05
3.36682e-05
3.12614e-05
2.98132e-05
2.89676e-05
2.84749e-05
2.83483e-05
2.83312e-05
2.86214e-05
2.89363e-05
2.95779e-05
2.99385e-05
3.09061e-05
3.15076e-05
3.19809e-05
0.00106158
0.000405126
0.000258496
0.000192365
0.000156158
0.000132123
0.000116573
0.000104545
9.6154e-05
8.91765e-05
8.41675e-05
7.96724e-05
7.67594e-05
7.36149e-05
7.178e-05
7.00212e-05
6.91853e-05
6.65578e-05
0.00312782
0.00137531
0.000888848
0.000657926
0.000530298
0.000442846
0.000386818
0.000341354
0.000310577
0.000283131
0.000264254
0.000245644
0.000233674
0.000219796
0.000212292
0.000202175
0.000195164
0.000187352
0.00425196
0.00294302
0.00200017
0.00151317
0.00123232
0.00103644
0.000907632
0.000802589
0.000729897
0.00066531
0.000619788
0.000575452
0.000545602
0.00051306
0.000493536
0.00046593
0.000452574
0.000433423
0.00479195
0.00476399
0.00344976
0.00269838
0.00223693
0.00190893
0.00168333
0.00150082
0.00136873
0.00125401
0.00116895
0.00108926
0.00103217
0.000973582
0.00093293
0.000884248
0.000862174
0.000820669
0.00555107
0.00647083
0.00499898
0.00406509
0.0034473
0.00299523
0.0026684
0.00240472
0.00220482
0.00203428
0.00190134
0.00178131
0.00168951
0.00159956
0.00153251
0.00146098
0.00142212
0.00135366
0.00668318
0.00767573
0.00641478
0.00543779
0.00473304
0.00419494
0.00378567
0.00345248
0.00318913
0.00296568
0.00278431
0.00262414
0.0024945
0.00237273
0.00227701
0.00218109
0.00211738
0.00202602
0.00824518
0.0085879
0.00754886
0.00666626
0.00596381
0.00539687
0.00494256
0.00456483
0.00425485
0.00399012
0.0037682
0.00357348
0.00340923
0.00325939
0.00313544
0.00301625
0.00292656
0.00281557
0.00941488
0.00903948
0.00836056
0.00765816
0.0070369
0.00650114
0.00604752
0.00565843
0.00532739
0.00504009
0.00479249
0.0045741
0.00438444
0.00421341
0.00406604
0.00392808
0.00381586
0.00368928
0.00944296
0.00926661
0.00888297
0.00838539
0.00789341
0.00743606
0.00702531
0.00665886
0.00633531
0.00604793
0.00579367
0.00556641
0.00536448
0.005182
0.00502011
0.00487045
0.00474232
0.00460572
0.00945501
0.00936826
0.00915895
0.00882879
0.00846502
0.00810095
0.00775487
0.00743313
0.00713884
0.00687059
0.00662743
0.00640642
0.00620625
0.00602367
0.00585845
0.00570586
0.00557092
0.00543132
0.00946096
0.00942052
0.00931609
0.00911937
0.00887327
0.00860646
0.00833678
0.00807415
0.0078245
0.00759002
0.00737181
0.0071694
0.00698244
0.00680954
0.00665031
0.00650243
0.00636829
0.0062319
0.00946395
0.00944751
0.00940269
0.00930792
0.00916565
0.00899617
0.00881168
0.00862127
0.00843143
0.00824613
0.00806794
0.00789813
0.00773744
0.00758591
0.0074436
0.0073098
0.00718553
0.0070603
0.00946564
0.00945918
0.00944308
0.0094072
0.00934098
0.009252
0.00914599
0.00902845
0.00890414
0.00877675
0.00864906
0.00852305
0.0084001
0.00828109
0.00816662
0.00805691
0.00795251
0.00784739
0.00946627
0.00946383
0.00945849
0.00944744
0.0094253
0.00938862
0.00934003
0.00928128
0.00921449
0.00914173
0.00906489
0.00898556
0.00890504
0.00882437
0.00874434
0.00866555
0.00858849
0.00851028
0.00946619
0.00946542
0.0094639
0.00946045
0.00945474
0.00944443
0.00942747
0.00940467
0.00937627
0.00934284
0.00930507
0.00926372
0.00921952
0.00917316
0.00912526
0.00907637
0.00902689
0.00897587
0.00946612
0.00946551
0.00946497
0.00946409
0.00946181
0.00945863
0.00945347
0.00944495
0.00943295
0.00941759
0.00939894
0.0093772
0.00935266
0.00932566
0.00929656
0.00926571
0.00923345
0.00919976
0.00946613
0.00946531
0.0094643
0.00946185
0.00945794
0.00945186
0.00944205
0.00942811
0.00941028
0.0093887
0.00936364
0.00933547
0.0093046
0.00927147
0.00923648
0.00920005
0.00916256
0.00912498
0.00946618
0.00946333
0.00945735
0.00944597
0.00942479
0.00939122
0.00934757
0.00929511
0.00923551
0.00917042
0.00910141
0.00902981
0.00895675
0.00888316
0.00880976
0.00873714
0.00866574
0.00859749
0.00946483
0.00945489
0.00943057
0.00938009
0.00929849
0.00919518
0.0090762
0.00894725
0.00881298
0.00867697
0.00854181
0.00840932
0.00828072
0.00815679
0.00803794
0.00792444
0.00781614
0.00771597
0.00946031
0.00941956
0.00932209
0.00914669
0.00892959
0.00869169
0.00844758
0.00820697
0.00797531
0.00775567
0.00754925
0.00735645
0.00717686
0.00701
0.00685493
0.00671112
0.00657676
0.00645621
0.00944205
0.00928502
0.00896167
0.00854236
0.0081107
0.00769882
0.0073186
0.00697448
0.00666473
0.00638731
0.00613826
0.00591485
0.00571342
0.00553189
0.00536703
0.00521815
0.00508051
0.00496095
0.00936864
0.00884966
0.0080746
0.00734095
0.00670198
0.0061643
0.00571085
0.00532971
0.00500454
0.00472708
0.00448631
0.00427775
0.00409378
0.00393264
0.00378797
0.00366114
0.00354337
0.00344503
0.00909038
0.00771477
0.00644707
0.00551026
0.00481064
0.00428397
0.00387004
0.00354357
0.00327489
0.00305551
0.00286851
0.00271226
0.00257512
0.00245918
0.00235421
0.00226608
0.00218201
0.00211544
0.00811779
0.00561969
0.0042106
0.0033801
0.00283204
0.00245525
0.00217219
0.00196107
0.00178969
0.00165617
0.0015417
0.00145053
0.00136871
0.0013033
0.00124164
0.00119332
0.00114456
0.0011086
0.00568881
0.00297912
0.00201621
0.00154482
0.00125829
0.00107346
0.000937386
0.000840614
0.000761509
0.000702935
0.000651241
0.000612564
0.000576062
0.000549063
0.000521779
0.000502243
0.000480913
0.00046648
0.00224775
0.000930465
0.00060249
0.000455338
0.000369054
0.000314839
0.000275366
0.000247944
0.000225471
0.000209307
0.000194808
0.000184389
0.000174256
0.00016714
0.000159672
0.000154614
0.000148909
0.000145223
0.000325465
0.000142513
9.90139e-05
7.90387e-05
6.76313e-05
6.04383e-05
5.54611e-05
5.19989e-05
4.94013e-05
4.75266e-05
4.60565e-05
4.50119e-05
4.41601e-05
4.36167e-05
4.31496e-05
4.29027e-05
4.26898e-05
4.26776e-05
6.00632e-06
8.01633e-06
9.67434e-06
1.09722e-05
1.1948e-05
1.26606e-05
1.3168e-05
1.35221e-05
1.37605e-05
1.39159e-05
1.39987e-05
1.40563e-05
1.40753e-05
1.40683e-05
1.40462e-05
1.40119e-05
1.39717e-05
1.39247e-05
3.15051e-09
1.04355e-07
1.97315e-07
2.73152e-07
3.25207e-07
3.57515e-07
3.79417e-07
4.0311e-07
4.33288e-07
4.72956e-07
5.14972e-07
5.45203e-07
5.56467e-07
5.49992e-07
5.31586e-07
4.87116e-07
3.84478e-07
3.22549e-07
2.62955e-07
1.84922e-07
1.16964e-07
9.62062e-08
1.01054e-07
1.18789e-07
1.36703e-07
1.52527e-07
1.78117e-07
2.35326e-07
3.552e-07
5.31526e-07
6.68531e-07
6.64983e-07
5.9096e-07
4.97938e-07
4.64765e-07
3.68331e-07
3.77561e-07
4.80629e-07
7.16138e-07
2.78004e-06
6.75033e-06
1.00978e-05
1.28401e-05
1.51678e-05
1.71994e-05
1.90128e-05
2.0658e-05
2.17595e-05
2.23989e-05
2.29981e-05
2.35704e-05
2.41273e-05
2.46781e-05
2.52294e-05
2.5787e-05
2.63553e-05
2.69409e-05
2.75485e-05
2.81854e-05
2.88588e-05
2.9539e-05
3.02045e-05
3.08713e-05
3.1529e-05
3.2185e-05
3.28343e-05
3.34804e-05
3.41212e-05
3.47581e-05
3.53901e-05
3.60182e-05
3.66418e-05
3.72613e-05
3.78767e-05
3.84881e-05
3.90957e-05
3.96995e-05
4.02997e-05
4.08964e-05
4.14896e-05
4.20795e-05
4.26661e-05
4.32494e-05
4.38296e-05
4.44067e-05
4.49805e-05
4.55513e-05
4.61188e-05
4.6683e-05
4.72439e-05
4.78013e-05
4.83552e-05
4.89053e-05
4.94515e-05
4.99938e-05
5.05323e-05
5.10672e-05
5.1599e-05
5.2129e-05
5.2659e-05
5.31928e-05
5.37378e-05
5.42852e-05
5.48337e-05
5.53857e-05
5.59395e-05
5.64975e-05
5.70587e-05
5.76245e-05
5.81947e-05
5.87704e-05
5.93518e-05
5.99396e-05
6.05344e-05
6.11369e-05
6.17478e-05
6.23681e-05
6.29984e-05
6.36398e-05
6.42934e-05
6.49601e-05
6.56414e-05
6.63385e-05
6.70529e-05
6.77863e-05
6.85406e-05
6.9319e-05
7.01306e-05
7.09564e-05
7.18167e-05
7.27e-05
7.27611e-05
7.25253e-05
7.2268e-05
7.19921e-05
7.17003e-05
7.13918e-05
7.1061e-05
7.07145e-05
7.035e-05
6.99692e-05
6.95719e-05
6.91588e-05
6.87304e-05
6.82869e-05
6.7829e-05
6.7357e-05
6.68715e-05
6.63733e-05
6.58621e-05
6.53386e-05
6.48029e-05
6.42557e-05
6.36977e-05
6.31297e-05
6.25526e-05
6.19673e-05
6.13748e-05
6.07758e-05
6.01711e-05
5.95612e-05
5.89465e-05
5.83274e-05
5.77041e-05
5.70769e-05
5.64463e-05
5.58131e-05
5.5178e-05
5.45415e-05
5.39042e-05
5.32659e-05
5.26258e-05
5.19822e-05
5.13339e-05
5.06702e-05
5.00069e-05
4.92523e-05
4.86436e-05
4.79605e-05
4.62825e-05
1.1682e-08
6.8052e-08
2.59113e-07
4.013e-07
5.7323e-07
9.42212e-07
1.63888e-06
2.56654e-06
3.95031e-06
5.83132e-06
7.94149e-06
1.01689e-05
1.23316e-05
1.41961e-05
1.55499e-05
1.63677e-05
1.60801e-05
1.45325e-05
1.14743e-05
7.87948e-06
4.97717e-06
3.05791e-06
1.92026e-06
1.25556e-06
9.60424e-07
1.14828e-06
1.9068e-06
4.07481e-06
8.56097e-06
1.42173e-05
1.72336e-05
1.62499e-05
1.40105e-05
1.13083e-05
6.31659e-06
2.64316e-06
3.28067e-06
5.61559e-06
8.45882e-06
1.30954e-05
1.93536e-05
2.57682e-05
3.24963e-05
3.98077e-05
4.75332e-05
5.59854e-05
6.47442e-05
7.38851e-05
8.3149e-05
9.23352e-05
0.000101297
0.000110052
0.000118529
0.000126824
0.000134999
0.000142929
0.000150696
0.000158333
0.000165859
0.000173303
0.000180694
0.000188059
0.000195416
0.000202781
0.000210166
0.000217578
0.000225023
0.000232504
0.000240021
0.000247572
0.000255154
0.000262763
0.000270393
0.000278037
0.000285689
0.000293341
0.000300986
0.000308617
0.000316225
0.000323805
0.00033135
0.000338854
0.000346311
0.000353716
0.000361063
0.000368348
0.000375565
0.00038271
0.000389777
0.000396762
0.000403658
0.000410457
0.000417153
0.000423735
0.00043019
0.000436503
0.000442651
0.000448606
0.000454326
0.000459756
0.000464825
0.000469327
0.000473839
0.000478179
0.000482433
0.000486552
0.000490556
0.000494432
0.00049818
0.000501798
0.000505283
0.000508631
0.000511842
0.000514913
0.00051784
0.000520624
0.00052326
0.000525749
0.000528087
0.000530274
0.000532309
0.00053419
0.000535916
0.000537489
0.000538907
0.000540174
0.000541293
0.000542273
0.00054314
0.000543909
0.000544649
0.000545474
0.000546159
0.000546682
0.000547029
0.00054725
0.000547414
0.00054739
0.000547224
0.000546927
0.000546501
0.000545948
0.000545269
0.000544469
0.000543549
0.000542511
0.000541357
0.000540087
0.000538726
0.000537261
0.000535693
0.000534022
0.000532252
0.000530384
0.000528426
0.000526385
0.000524267
0.000522081
0.000519835
0.000517534
0.000515186
0.000512795
0.000510363
0.000507891
0.000505382
0.00050284
0.000500269
0.000497676
0.000495066
0.000492444
0.000489809
0.000487154
0.000484462
0.000481722
0.000478839
0.000475835
0.000472236
0.000468562
0.000461469
0.000445522
5.36276e-09
1.84827e-08
9.6118e-08
2.30832e-07
3.74159e-07
6.80882e-07
1.38636e-06
2.77446e-06
5.10761e-06
8.18355e-06
1.18518e-05
1.60444e-05
2.04295e-05
2.46357e-05
2.83599e-05
3.11729e-05
3.32035e-05
3.32695e-05
3.23252e-05
2.9864e-05
2.55204e-05
2.05109e-05
1.5598e-05
1.16856e-05
8.92673e-06
7.49368e-06
8.79693e-06
1.25814e-05
2.04406e-05
2.90119e-05
3.17817e-05
2.33891e-05
1.6075e-05
1.08172e-05
1.01682e-05
1.166e-05
1.72248e-05
2.60572e-05
3.68462e-05
4.97336e-05
6.52696e-05
8.33749e-05
0.00010401
0.000126509
0.000149682
0.000173148
0.000195957
0.000218086
0.000239039
0.000259188
0.000278425
0.000296992
0.000315072
0.000332567
0.000349524
0.0003661
0.000382364
0.000398392
0.000414245
0.000429981
0.00044565
0.000461293
0.000476942
0.000492622
0.00050835
0.000524138
0.000539993
0.000555916
0.000571906
0.000587955
0.000604056
0.000620197
0.000636366
0.000652548
0.000668728
0.00068489
0.000701019
0.0007171
0.000733118
0.00074906
0.000764913
0.000780663
0.000796299
0.000811811
0.000827188
0.000842418
0.000857492
0.000872399
0.000887129
0.000901668
0.000916005
0.000930125
0.000944013
0.000957651
0.000971018
0.00098409
0.000996841
0.00100924
0.00102126
0.00103286
0.00104403
0.00105484
0.00106548
0.00107584
0.00108596
0.00109581
0.0011054
0.0011147
0.00112373
0.00113247
0.00114092
0.00114907
0.00115691
0.00116445
0.00117167
0.00117857
0.00118515
0.00119141
0.00119733
0.00120293
0.00120819
0.00121311
0.0012177
0.00122196
0.00122588
0.00122947
0.00123274
0.00123571
0.0012384
0.00124082
0.001243
0.00124497
0.0012466
0.00124784
0.00124869
0.00124933
0.00124974
0.00124974
0.00124943
0.00124881
0.00124789
0.00124667
0.00124517
0.00124338
0.00124132
0.00123898
0.00123638
0.00123353
0.00123044
0.00122711
0.00122354
0.00121974
0.0012157
0.00121144
0.00120698
0.00120232
0.00119748
0.00119248
0.00118734
0.00118207
0.00117669
0.00117121
0.00116563
0.00115997
0.00115421
0.00114838
0.00114248
0.00113653
0.00113054
0.00112452
0.00111847
0.00111238
0.0011062
0.00109991
0.00109336
0.00108645
0.00107865
0.00106977
0.00105574
0.00102625
5.99464e-10
5.39212e-09
4.36417e-08
1.81201e-07
6.16274e-07
1.65639e-06
3.93231e-06
7.57839e-06
1.25388e-05
1.84759e-05
2.52736e-05
3.24919e-05
3.95042e-05
4.57243e-05
5.06521e-05
5.40641e-05
5.55375e-05
5.58462e-05
5.42313e-05
5.13464e-05
4.72436e-05
4.18499e-05
3.59282e-05
3.04157e-05
2.59688e-05
2.46778e-05
2.66761e-05
3.27272e-05
3.88405e-05
3.51585e-05
2.98069e-05
2.32211e-05
2.01804e-05
2.14661e-05
2.84844e-05
4.13831e-05
5.89457e-05
7.75145e-05
0.000100121
0.000125864
0.000155976
0.000188414
0.000222403
0.000256655
0.000290486
0.000323562
0.000355458
0.000386234
0.000415644
0.000444026
0.000471644
0.000498372
0.000524296
0.000549581
0.000574334
0.00059868
0.00062271
0.000646509
0.000670151
0.000693703
0.000717218
0.000740741
0.000764307
0.000787943
0.000811668
0.000835492
0.00085942
0.000883449
0.000907574
0.000931781
0.000956057
0.000980381
0.00100473
0.00102909
0.00105343
0.00107772
0.00110195
0.00112609
0.00115011
0.001174
0.00119773
0.00122129
0.00124466
0.00126781
0.00129074
0.00131343
0.00133587
0.00135803
0.0013799
0.00140148
0.00142273
0.00144365
0.00146422
0.00148442
0.00150423
0.00152362
0.0015426
0.00156113
0.00157921
0.00159683
0.00161401
0.00163081
0.00164726
0.0016633
0.00167897
0.00169422
0.00170906
0.00172348
0.00173747
0.00175101
0.00176411
0.00177676
0.00178894
0.00180065
0.00181188
0.00182264
0.00183291
0.00184268
0.00185196
0.00186075
0.00186903
0.00187681
0.00188409
0.00189088
0.00189717
0.00190296
0.00190828
0.00191313
0.00191752
0.00192147
0.00192498
0.00192803
0.00193058
0.00193256
0.00193401
0.00193514
0.00193581
0.00193595
0.0019356
0.0019348
0.00193355
0.00193185
0.00192971
0.00192715
0.00192418
0.00192079
0.00191702
0.00191286
0.00190833
0.00190344
0.00189818
0.00189257
0.00188662
0.00188032
0.00187371
0.00186681
0.00185963
0.0018522
0.00184455
0.0018367
0.00182866
0.00182047
0.00181212
0.00180362
0.00179499
0.00178623
0.00177737
0.00176841
0.00175939
0.00175031
0.00174119
0.001732
0.0017227
0.00171323
0.00170343
0.00169314
0.00168182
0.00166874
0.00164987
0.00161463
1.40051e-09
1.34475e-08
1.78496e-07
6.94027e-07
2.02945e-06
5.27852e-06
1.09004e-05
1.86636e-05
2.86842e-05
4.0769e-05
5.3789e-05
6.61653e-05
7.66636e-05
8.45557e-05
8.93784e-05
9.14223e-05
9.11706e-05
8.8117e-05
8.36131e-05
7.79292e-05
7.12773e-05
6.40406e-05
5.55167e-05
4.41802e-05
3.57665e-05
3.31759e-05
3.8986e-05
4.71067e-05
4.64216e-05
4.25001e-05
3.53264e-05
3.3432e-05
3.9414e-05
5.44415e-05
7.57504e-05
9.83064e-05
0.00012601
0.000155934
0.000191129
0.000229191
0.000270252
0.000311847
0.000353738
0.000395067
0.000435556
0.000474995
0.000513083
0.000550015
0.000586082
0.00062111
0.000655165
0.000688389
0.000720898
0.00075282
0.000784265
0.000815341
0.00084614
0.000876747
0.000907236
0.00093767
0.000968105
0.000998583
0.00102914
0.0010598
0.00109058
0.00112148
0.00115252
0.00118367
0.00121494
0.0012463
0.00127772
0.00130919
0.00134068
0.00137215
0.00140357
0.00143491
0.00146613
0.0014972
0.0015281
0.00155879
0.00158925
0.00161945
0.00164937
0.00167899
0.00170828
0.00173723
0.00176583
0.00179405
0.00182188
0.0018493
0.00187629
0.00190284
0.00192893
0.00195456
0.00197969
0.00200433
0.00202846
0.00205208
0.00207518
0.00209778
0.00211988
0.00214149
0.00216262
0.00218323
0.00220332
0.00222289
0.00224191
0.00226039
0.0022783
0.00229565
0.00231241
0.0023286
0.00234419
0.00235918
0.00237356
0.00238734
0.00240049
0.00241303
0.00242494
0.00243623
0.00244688
0.00245692
0.00246632
0.0024751
0.00248326
0.00249081
0.00249775
0.0025041
0.00250986
0.00251506
0.00251961
0.00252358
0.00252695
0.00252961
0.00253163
0.00253328
0.00253428
0.00253465
0.00253444
0.00253365
0.00253231
0.00253041
0.00252797
0.00252501
0.00252153
0.00251754
0.00251307
0.00250811
0.00250269
0.0024968
0.00249047
0.00248369
0.00247648
0.00246885
0.00246081
0.0024524
0.00244363
0.00243455
0.00242517
0.00241553
0.00240564
0.00239553
0.00238522
0.0023747
0.002364
0.00235312
0.0023421
0.00233094
0.00231969
0.00230834
0.0022969
0.00228537
0.00227371
0.00226185
0.00224966
0.00223693
0.0022232
0.00220758
0.00218618
0.00215064
4.14397e-09
4.74935e-08
3.94852e-07
1.6648e-06
5.5469e-06
1.39562e-05
2.73872e-05
4.57429e-05
6.66752e-05
8.67127e-05
0.000103438
0.000116128
0.000124779
0.000129566
0.000131384
0.000130047
0.000125683
0.000119505
0.000111616
0.000102586
9.31119e-05
7.447e-05
5.9007e-05
4.82526e-05
4.62262e-05
5.52121e-05
6.2063e-05
5.95538e-05
5.48485e-05
4.98026e-05
4.99927e-05
6.42781e-05
8.56553e-05
0.000111016
0.000140907
0.000173408
0.000210797
0.000251273
0.000295805
0.000341795
0.000388859
0.000435715
0.000482256
0.000528044
0.0005728
0.000616476
0.000659368
0.00070135
0.000742301
0.000782354
0.000821594
0.000860125
0.000898051
0.000935476
0.000972497
0.00100921
0.00104569
0.00108203
0.00111829
0.00115453
0.0011908
0.00122714
0.00126358
0.00130014
0.00133684
0.00137368
0.00141066
0.00144777
0.00148498
0.00152227
0.00155963
0.001597
0.00163437
0.00167168
0.0017089
0.00174598
0.00178289
0.00181959
0.00185603
0.00189219
0.00192803
0.00196352
0.00199864
0.00203335
0.00206765
0.00210151
0.00213491
0.00216783
0.00220027
0.00223219
0.0022636
0.00229446
0.00232478
0.00235454
0.00238373
0.00241234
0.00244037
0.00246781
0.00249466
0.00252094
0.00254663
0.00257173
0.00259623
0.00262012
0.00264339
0.00266602
0.00268802
0.00270936
0.00273004
0.00275005
0.00276939
0.00278805
0.00280602
0.00282329
0.00283987
0.00285574
0.0028709
0.00288536
0.0028991
0.00291213
0.00292444
0.00293605
0.00294694
0.00295713
0.00296662
0.00297541
0.00298351
0.00299093
0.00299772
0.00300381
0.00300916
0.00301387
0.0030179
0.00302113
0.00302372
0.00302581
0.00302719
0.00302789
0.00302793
0.00302734
0.00302612
0.00302429
0.00302186
0.00301883
0.00301523
0.00301107
0.00300635
0.00300109
0.00299531
0.00298901
0.00298219
0.00297488
0.00296707
0.00295878
0.00295003
0.00294084
0.00293126
0.00292129
0.00291098
0.00290035
0.00288943
0.00287823
0.00286677
0.00285507
0.00284313
0.00283098
0.00281864
0.00280613
0.00279348
0.00278071
0.00276782
0.00275483
0.00274169
0.00272836
0.0027147
0.00270055
0.00268553
0.00266874
0.00264697
0.00261343
4.08771e-09
1.04398e-07
1.00072e-06
4.73589e-06
1.66093e-05
3.82803e-05
6.58586e-05
9.28871e-05
0.000115619
0.000133373
0.000146467
0.000155468
0.000160777
0.000163032
0.000162002
0.000157763
0.00015102
0.000141979
0.000130799
0.000118244
0.000100958
8.14283e-05
6.84103e-05
6.6203e-05
6.8611e-05
7.11174e-05
6.98685e-05
6.73123e-05
6.47746e-05
7.10133e-05
9.01023e-05
0.000115727
0.000145824
0.000179723
0.00021745
0.000258523
0.000303628
0.000351381
0.000401222
0.000451504
0.00050191
0.000551905
0.000601362
0.000649824
0.000697605
0.000744925
0.000791251
0.000836759
0.000881461
0.000925431
0.000968742
0.00101147
0.00105371
0.00109553
0.00113703
0.00117827
0.00121933
0.00126029
0.0013012
0.00134212
0.00138309
0.00142414
0.00146531
0.0015066
0.00154804
0.00158961
0.00163131
0.00167313
0.00171504
0.00175702
0.00179903
0.00184103
0.00188298
0.00192484
0.00196655
0.00200807
0.00204935
0.00209034
0.002131
0.0021713
0.00221119
0.00225064
0.00228962
0.00232811
0.00236609
0.00240354
0.00244044
0.00247677
0.00251252
0.00254767
0.00258223
0.00261616
0.00264948
0.00268215
0.00271419
0.00274557
0.0027763
0.00280636
0.00283576
0.00286447
0.00289251
0.00291988
0.00294656
0.00297255
0.00299785
0.00302243
0.00304631
0.00306946
0.00309188
0.00311356
0.00313451
0.00315471
0.00317415
0.00319285
0.00321079
0.00322797
0.00324439
0.00326005
0.00327496
0.00328912
0.00330252
0.00331517
0.00332705
0.00333818
0.00334857
0.00335821
0.00336711
0.00337528
0.0033828
0.00338952
0.00339548
0.00340074
0.0034053
0.003409
0.00341208
0.00341456
0.00341633
0.00341741
0.00341782
0.00341757
0.00341667
0.00341512
0.00341294
0.00341015
0.00340675
0.00340276
0.00339818
0.00339304
0.00338733
0.00338108
0.00337428
0.00336695
0.00335909
0.00335072
0.00334185
0.00333252
0.00332274
0.00331255
0.00330197
0.00329104
0.00327977
0.00326818
0.00325629
0.00324412
0.00323167
0.00321896
0.00320603
0.00319289
0.00317957
0.0031661
0.00315249
0.00313875
0.00312487
0.0031108
0.00309645
0.00308168
0.00306623
0.00304933
0.00302858
0.00299827
1.16266e-08
2.95085e-07
2.92178e-06
1.57777e-05
4.39428e-05
7.73815e-05
0.000107735
0.000132397
0.000151429
0.000165631
0.000175605
0.000181854
0.000184874
0.000184633
0.000181024
0.0001743
0.000164773
0.000152748
0.00013913
0.000124361
0.000108645
9.43851e-05
8.30116e-05
7.72109e-05
7.81187e-05
7.92808e-05
7.89526e-05
7.95461e-05
9.19936e-05
0.000113833
0.000142953
0.0001764
0.000213699
0.000254394
0.000298495
0.000345758
0.000395887
0.000447666
0.000500259
0.000552839
0.00060519
0.000656959
0.000708017
0.000758731
0.000808921
0.000858415
0.000907185
0.000955289
0.00100276
0.00104965
0.00109601
0.0011419
0.00118739
0.00123254
0.00127743
0.00132211
0.00136665
0.00141111
0.00145555
0.0015
0.00154451
0.0015891
0.00163381
0.00167864
0.00172361
0.0017687
0.0018139
0.0018592
0.00190457
0.00194997
0.00199538
0.00204075
0.00208603
0.00213117
0.00217613
0.00222084
0.00226524
0.00230929
0.00235294
0.00239615
0.00243886
0.00248106
0.0025227
0.00256378
0.00260425
0.00264412
0.00268335
0.00272195
0.00275989
0.00279717
0.00283377
0.00286971
0.00290495
0.00293951
0.00297336
0.00300651
0.00303896
0.00307068
0.00310166
0.0031319
0.00316142
0.00319023
0.0032183
0.00324565
0.00327226
0.00329812
0.00332322
0.00334757
0.00337115
0.00339396
0.00341599
0.00343725
0.00345772
0.0034774
0.0034963
0.00351441
0.00353173
0.00354827
0.00356401
0.00357896
0.00359313
0.00360651
0.00361912
0.00363095
0.003642
0.0036523
0.00366184
0.00367063
0.00367876
0.00368603
0.00369256
0.00369837
0.00370346
0.00370769
0.00371133
0.0037143
0.00371654
0.00371808
0.00371893
0.00371909
0.0037186
0.00371745
0.00371565
0.00371323
0.00371019
0.00370654
0.00370229
0.00369746
0.00369205
0.00368608
0.00367955
0.00367246
0.00366483
0.00365666
0.00364798
0.00363881
0.00362917
0.00361909
0.0036086
0.00359772
0.00358647
0.00357488
0.00356295
0.00355069
0.00353813
0.00352527
0.00351215
0.00349879
0.00348523
0.00347147
0.00345756
0.00344349
0.00342926
0.00341487
0.00340032
0.00338552
0.00337023
0.00335384
0.00333451
0.00330802
1.10203e-07
9.02279e-07
9.30169e-06
3.7964e-05
7.54617e-05
0.000110414
0.000138648
0.000160146
0.000175956
0.000187202
0.000194758
0.000198817
0.000199417
0.000196551
0.000190497
0.000181427
0.000169643
0.000155476
0.000139407
0.000122915
0.00010627
9.19478e-05
8.47795e-05
8.44226e-05
8.78255e-05
9.01829e-05
9.47871e-05
0.00011018
0.000134739
0.000166039
0.000202013
0.00024146
0.000284144
0.0003298
0.000378329
0.000429345
0.000482179
0.000535881
0.000589807
0.000643543
0.000696747
0.000749397
0.000801947
0.000854002
0.000905506
0.000956448
0.00100683
0.00105668
0.00110603
0.0011549
0.00120335
0.0012514
0.00129912
0.00134656
0.00139376
0.00144079
0.00148769
0.00153451
0.00158131
0.00162812
0.00167499
0.00172193
0.00176897
0.00181612
0.00186339
0.00191076
0.00195823
0.00200578
0.00205338
0.00210099
0.00214857
0.0021961
0.00224351
0.00229077
0.00233781
0.00238457
0.002431
0.002477
0.00252255
0.00256759
0.00261208
0.00265598
0.00269927
0.00274192
0.0027839
0.00282521
0.00286584
0.00290579
0.00294505
0.00298363
0.00302147
0.00305858
0.00309495
0.00313057
0.00316544
0.00319957
0.00323294
0.00326555
0.00329742
0.00332854
0.00335892
0.00338854
0.00341742
0.00344553
0.00347288
0.00349946
0.00352526
0.00355028
0.00357451
0.00359796
0.00362061
0.00364247
0.00366353
0.00368379
0.00370326
0.00372192
0.00373979
0.00375687
0.00377314
0.00378863
0.00380332
0.00381723
0.00383035
0.0038427
0.00385428
0.00386508
0.00387513
0.00388447
0.0038931
0.00390088
0.00390794
0.00391429
0.00391991
0.0039247
0.00392892
0.00393244
0.00393524
0.00393736
0.00393879
0.00393955
0.00393966
0.00393912
0.00393795
0.00393615
0.00393374
0.00393073
0.00392713
0.00392295
0.00391819
0.00391287
0.00390699
0.00390054
0.00389355
0.00388601
0.00387796
0.0038694
0.00386037
0.00385088
0.00384097
0.00383064
0.00381992
0.00380883
0.00379737
0.00378557
0.00377342
0.00376095
0.00374818
0.00373515
0.00372187
0.00370837
0.00369468
0.00368082
0.00366679
0.00365259
0.00363821
0.00362358
0.0036086
0.0035928
0.00357473
0.00355148
2.973e-07
2.40424e-06
2.15335e-05
6.08146e-05
0.000101945
0.000135503
0.000160541
0.000178798
0.000192036
0.000200835
0.000205706
0.000207057
0.000205102
0.000199958
0.000191618
0.000179123
0.000165537
0.000149458
0.000132015
0.000114342
9.98249e-05
9.22257e-05
9.13421e-05
9.52004e-05
9.99455e-05
0.000108749
0.000126005
0.000152359
0.000185245
0.000222599
0.000263345
0.000306963
0.000353267
0.000402061
0.000453114
0.000505944
0.000559883
0.000614251
0.00066861
0.000722516
0.000775952
0.00082941
0.000882458
0.000935054
0.000987192
0.00103887
0.00109009
0.00114087
0.00119122
0.00124117
0.00129074
0.00133996
0.00138888
0.00143752
0.00148593
0.00153416
0.00158224
0.00163022
0.00167815
0.00172608
0.00177405
0.00182207
0.00187017
0.00191836
0.00196665
0.00201505
0.00206355
0.00211213
0.00216075
0.00220935
0.00225794
0.00230648
0.00235492
0.0024032
0.00245129
0.00249914
0.00254672
0.00259405
0.00264088
0.00268713
0.00273275
0.00277771
0.00282197
0.00286551
0.00290832
0.00295037
0.00299168
0.00303222
0.00307197
0.00311095
0.00314919
0.0031867
0.00322346
0.00325949
0.00329477
0.00332931
0.00336311
0.00339616
0.00342849
0.00346006
0.00349089
0.00352095
0.00355025
0.00357878
0.00360654
0.00363352
0.00365972
0.00368514
0.00370977
0.00373361
0.00375665
0.0037789
0.00380036
0.00382102
0.00384089
0.00385996
0.00387824
0.00389573
0.00391244
0.00392835
0.00394349
0.00395785
0.00397143
0.00398425
0.00399631
0.00400761
0.00401816
0.00402804
0.00403715
0.00404549
0.00405312
0.00406005
0.00406625
0.00407171
0.00407656
0.00408071
0.00408418
0.00408697
0.00408911
0.00409059
0.00409144
0.00409166
0.00409126
0.00409025
0.00408865
0.00408646
0.0040837
0.00408037
0.00407647
0.00407202
0.00406701
0.00406145
0.00405533
0.00404868
0.00404151
0.00403384
0.00402569
0.00401708
0.00400803
0.00399856
0.00398868
0.0039784
0.00396774
0.0039567
0.0039453
0.00393355
0.00392147
0.0039091
0.00389645
0.00388355
0.00387043
0.00385711
0.0038436
0.00382992
0.00381607
0.00380203
0.00378775
0.00377288
0.00375625
0.00373662
4.50477e-07
4.9042e-06
3.46968e-05
8.06647e-05
0.000121824
0.000152637
0.000174803
0.000190091
0.000199918
0.000205594
0.000207642
0.000206404
0.000200105
0.000187934
0.000176528
0.000165642
0.000153322
0.000136758
0.000120436
0.000107122
9.97682e-05
9.87459e-05
0.00010252
0.000108802
0.000121108
0.000140186
0.000167374
0.000201065
0.000239033
0.000280164
0.000323925
0.000370042
0.000418355
0.00046867
0.000520691
0.000573955
0.000627921
0.000682107
0.000736039
0.000789559
0.000843131
0.000896388
0.000949261
0.00100173
0.0010538
0.00110545
0.0011567
0.00120753
0.00125797
0.00130801
0.00135768
0.00140699
0.00145597
0.00150464
0.00155305
0.00160121
0.00164916
0.00169694
0.00174463
0.00179227
0.00183995
0.00188768
0.00193546
0.0019833
0.00203126
0.00207936
0.0021276
0.00217599
0.00222459
0.00227359
0.00232265
0.00237169
0.00242063
0.00246941
0.00251799
0.0025663
0.00261425
0.0026617
0.00270865
0.002755
0.00280072
0.00284579
0.00289017
0.00293383
0.00297675
0.00301892
0.00306035
0.00310104
0.00314099
0.00318022
0.00321871
0.00325647
0.0032935
0.00332979
0.00336535
0.00340017
0.00343425
0.0034676
0.00350021
0.00353207
0.00356319
0.00359356
0.00362316
0.003652
0.00368008
0.00370738
0.00373391
0.00375967
0.00378464
0.00380884
0.00383225
0.00385487
0.00387671
0.00389777
0.00391804
0.00393753
0.00395625
0.00397418
0.00399134
0.00400773
0.00402336
0.00403822
0.00405232
0.00406567
0.00407827
0.00409014
0.00410129
0.00411174
0.00412144
0.00413043
0.00413872
0.00414632
0.00415322
0.00415944
0.00416503
0.00416994
0.00417418
0.00417778
0.00418074
0.00418307
0.00418478
0.00418589
0.0041864
0.00418633
0.00418568
0.00418446
0.00418269
0.00418037
0.0041775
0.00417409
0.00417013
0.00416563
0.00416058
0.00415499
0.0041489
0.0041423
0.00413523
0.0041277
0.00411972
0.00411132
0.0041025
0.00409327
0.00408363
0.0040736
0.00406317
0.00405238
0.00404124
0.00402977
0.004018
0.00400595
0.00399365
0.00398111
0.00396837
0.00395543
0.00394233
0.00392908
0.00391564
0.0039018
0.00388654
0.00387004
5.44502e-07
8.28971e-06
4.63928e-05
9.55311e-05
0.000135434
0.000163744
0.000182127
0.000193409
0.000199876
0.000202496
0.000196719
0.000187231
0.000178982
0.000171443
0.000163468
0.000153665
0.000139117
0.000125033
0.000113565
0.000107045
0.000106141
0.000109904
0.000117653
0.000132477
0.000153154
0.000180823
0.000214491
0.000252361
0.000293164
0.000336336
0.000381593
0.000428764
0.000477704
0.00052822
0.000580021
0.000632719
0.000685899
0.000739106
0.000792004
0.000844943
0.000897646
0.00095001
0.00100198
0.00105351
0.00110463
0.00115534
0.00120562
0.00125546
0.00130487
0.00135383
0.00140233
0.00145042
0.00149811