/*--------------------------------*- C++ -*----------------------------------*\
| =========                 |                                                 |
| \\      /  F ield         | OpenFOAM: The Open Source CFD Toolbox           |
|  \\    /   O peration     | Version:  2112                                  |
|   \\  /    A nd           | Website:  www.openfoam.com                      |
|    \\/     M anipulation  |                                                 |
\*---------------------------------------------------------------------------*/
FoamFile
{
    version     2.0;
    format      ascii;
    arch        "LSB;label=32;scalar=64";
    class       volVectorField;
    location    "0.06";
    object      U;
}
// * * * * * * * * * * * * * * * * * * * * * * * * * * * * * * * * * * * * * //

dimensions      [0 1 -1 0 0 0 0];

internalField   nonuniform List<vector> 
1580
(
(9.99912 0.000951066 0)
(9.99848 0.00333743 0)
(9.99847 0.00553207 0)
(9.99526 0.00936261 0)
(9.9921 0.0109657 0)
(9.97678 0.0195386 0)
(9.96513 0.0177015 0)
(9.90289 0.0532969 0)
(10.0001 0.00101292 0)
(10.0005 0.0035159 0)
(10.0015 0.00674307 0)
(10.003 0.0106907 0)
(10.0056 0.0153793 0)
(10.0077 0.0222508 0)
(10.0144 0.0331309 0)
(10.0101 0.0607575 0)
(10 0.000770901 0)
(10.0002 0.00257187 0)
(10.0006 0.00499345 0)
(10.0017 0.00822381 0)
(10.0037 0.0125761 0)
(10.0066 0.0191413 0)
(10.0126 0.0303839 0)
(10.019 0.0570667 0)
(10 0.000573923 0)
(10.0001 0.0019665 0)
(10.0005 0.00392286 0)
(10.0014 0.00664731 0)
(10.0035 0.0105033 0)
(10.0071 0.0164706 0)
(10.0142 0.0271266 0)
(10.0269 0.0516328 0)
(10 0.000419868 0)
(10.0001 0.00142531 0)
(10.0006 0.00283957 0)
(10.0016 0.0048732 0)
(10.0039 0.00794259 0)
(10.0083 0.0130277 0)
(10.0168 0.0225745 0)
(10.0329 0.0444059 0)
(10 0.000234745 0)
(10.0002 0.000790632 0)
(10.0007 0.00157825 0)
(10.0019 0.00278304 0)
(10.0046 0.00485679 0)
(10.0098 0.00882365 0)
(10.0196 0.0169443 0)
(10.0383 0.036072 0)
(10 -3.34869e-05 0)
(10.0002 -0.000123068 0)
(10.0009 -0.000200775 0)
(10.0024 -5.92195e-05 0)
(10.0056 0.000823369 0)
(10.0116 0.00346148 0)
(10.0226 0.00984387 0)
(10.0439 0.0257042 0)
(10 -0.000474945 0)
(10.0003 -0.00147803 0)
(10.0013 -0.00258285 0)
(10.0033 -0.00354031 0)
(10.0072 -0.00384599 0)
(10.0141 -0.00265556 0)
(10.0261 0.00161028 0)
(10.0494 0.012926 0)
(10.0002 -0.00117532 0)
(10.0011 -0.00402492 0)
(10.0031 -0.00710321 0)
(10.0065 -0.00969084 0)
(10.0114 -0.0111696 0)
(10.0189 -0.0111349 0)
(10.0304 -0.00861243 0)
(10.0526 -0.00152457 0)
(9.99775 -0.00158501 0)
(9.99656 -0.00479772 0)
(9.9948 -0.00797122 0)
(9.99003 -0.0107187 0)
(9.97949 -0.0128035 0)
(9.96495 -0.0143069 0)
(9.94265 -0.0147591 0)
(9.92696 -0.0135824 0)
(-0.0160142 0.00533931 0)
(-0.285096 0.299869 0)
(-1.05019 0.520815 0)
(-2.03228 0.592725 1.21993e-19)
(-2.92877 0.539778 0)
(-3.60523 0.427647 0)
(-4.09319 0.318384 0)
(-4.44042 0.232469 0)
(-4.69133 0.172193 1.51176e-19)
(-4.87595 0.131735 -1.65666e-19)
(-5.01609 0.103378 -8.98209e-20)
(-5.1253 0.0820038 0)
(-5.21255 0.0649413 0)
(-5.29417 0.0479991 0)
(-5.36993 0.029941 0)
(-5.43066 0.0106373 0)
(-5.4753 -0.0107792 0)
(-5.50112 -0.0342841 0)
(-5.50385 -0.060684 0)
(-5.48095 -0.0931678 1.59595e-19)
(-5.42999 -0.127967 0)
(-5.34358 -0.165832 -1.44155e-19)
(-5.21552 -0.206656 0)
(-5.04 -0.24945 0)
(-4.81223 -0.293279 0)
(-4.52767 -0.339201 0)
(-4.18153 -0.388867 6.71896e-20)
(-3.77235 -0.438287 4.60246e-20)
(-3.30146 -0.484343 0)
(-2.76969 -0.528207 0)
(-2.17897 -0.568432 0)
(-1.53319 -0.601386 4.06333e-20)
(-0.839474 -0.624844 -5.93528e-20)
(-0.113698 -0.634653 7.52107e-20)
(0.6206 -0.620964 0)
(1.3383 -0.578942 -9.46074e-20)
(2.00461 -0.514208 -9.83139e-20)
(2.59093 -0.437967 9.90831e-20)
(3.08321 -0.3594 0)
(3.47789 -0.287928 0)
(3.78195 -0.226797 0)
(4.00826 -0.175904 -1.84428e-19)
(4.17759 -0.134169 0)
(4.29909 -0.103921 0)
(4.38857 -0.0786281 1.76783e-19)
(4.44516 -0.0623856 0)
(4.49181 -0.0420636 1.73874e-19)
(4.50146 -0.0293872 0)
(4.52305 0.00758502 0)
(4.47444 0.0360569 0)
(-0.145351 0.296995 0)
(-0.44047 0.791699 0)
(-1.09093 1.17386 0)
(-1.76864 1.31938 -1.75773e-19)
(-2.24668 1.21481 -2.41725e-19)
(-2.51304 0.978389 0)
(-2.67334 0.742363 0)
(-2.77733 0.556792 0)
(-2.85299 0.427382 -2.13586e-19)
(-2.9129 0.340775 2.32946e-19)
(-2.96199 0.282206 -1.26804e-19)
(-3.00356 0.240589 0)
(-3.03885 0.208887 -2.90449e-19)
(-3.07243 0.179797 0)
(-3.10374 0.151456 -2.42985e-19)
(-3.12872 0.122576 0)
(-3.14607 0.0903646 0)
(-3.15444 0.0530796 0)
(-3.15377 0.00870658 0)
(-3.13619 -0.0450312 -6.78942e-19)
(-3.09015 -0.111248 0)
(-3.013 -0.190055 6.18242e-19)
(-2.89759 -0.280818 0)
(-2.73678 -0.382314 0)
(-2.52418 -0.492502 0)
(-2.25431 -0.608608 -2.62583e-19)
(-1.92419 -0.72789 -9.50554e-20)
(-1.53451 -0.846825 -2.14746e-19)
(-1.08671 -0.960408 0)
(-0.585829 -1.06705 -2.46037e-20)
(-0.0322461 -1.16716 0)
(0.573684 -1.261 3.77852e-20)
(1.21828 -1.33377 8.43361e-20)
(1.88117 -1.3618 -1.06548e-19)
(2.53438 -1.32929 0)
(3.14498 -1.23443 3.86848e-19)
(3.68397 -1.08879 1.39872e-19)
(4.13444 -0.915953 1.2811e-19)
(4.49203 -0.737478 0)
(4.76254 -0.570903 0)
(4.95324 -0.429794 0)
(5.07787 -0.316805 2.63396e-19)
(5.15644 -0.227584 0)
(5.20142 -0.160304 0)
(5.22331 -0.109195 -2.53495e-19)
(5.22938 -0.0718816 -2.49724e-19)
(5.22651 -0.0375619 -2.4989e-19)
(5.21652 -0.0083192 -2.46537e-19)
(5.20864 0.0414107 0)
(5.20465 0.0916433 0)
(-0.117595 0.460014 0)
(-0.271599 1.03276 3.50248e-19)
(-0.634384 1.47477 4.12366e-19)
(-0.953718 1.60884 0)
(-1.1224 1.42548 -5.10372e-21)
(-1.20243 1.10484 0)
(-1.26585 0.813029 -4.91088e-19)
(-1.32036 0.600894 0)
(-1.36989 0.460305 5.99815e-19)
(-1.41164 0.368666 0)
(-1.44634 0.307872 3.50666e-19)
(-1.47475 0.264221 0)
(-1.49778 0.230299 1.31175e-22)
(-1.51838 0.197833 0)
(-1.53549 0.163513 1.01244e-18)
(-1.54614 0.126944 0)
(-1.54888 0.085197 6.71311e-19)
(-1.54103 0.0353738 0)
(-1.51884 -0.0249076 0)
(-1.47875 -0.0955464 6.33511e-19)
(-1.41596 -0.182159 -6.17575e-19)
(-1.32334 -0.287053 -1.16832e-18)
(-1.19416 -0.409743 0)
(-1.02107 -0.548679 0)
(-0.797699 -0.701114 0)
(-0.519957 -0.861583 3.68203e-19)
(-0.186481 -1.02516 3.08167e-19)
(0.204705 -1.18792 2.10061e-19)
(0.650714 -1.34295 0)
(1.14369 -1.48447 3.4414e-20)
(1.67869 -1.61267 0)
(2.2571 -1.73148 -2.48508e-19)
(2.86435 -1.82335 0)
(3.46641 -1.85201 0)
(4.02406 -1.79003 0)
(4.50637 -1.63693 -3.59349e-19)
(4.89725 -1.41667 0)
(5.1926 -1.16583 -7.52858e-19)
(5.39879 -0.915724 0)
(5.52843 -0.687841 0)
(5.59368 -0.497636 0)
(5.61317 -0.349166 0)
(5.60451 -0.236949 -7.20143e-19)
(5.57942 -0.155775 0)
(5.5463 -0.0972835 -7.15017e-19)
(5.51057 -0.0558175 3.57924e-19)
(5.47584 -0.0218722 7.08527e-19)
(5.44433 0.00683304 3.53697e-19)
(5.42118 0.0445494 0)
(5.4085 0.0852587 6.84344e-19)
(-0.0626285 0.523269 0)
(-0.0778787 1.11035 -4.99079e-19)
(-0.214605 1.56346 -5.84537e-19)
(-0.298591 1.68049 0)
(-0.298411 1.4686 4.86031e-19)
(-0.292403 1.13451 5.82213e-19)
(-0.310412 0.838701 6.67437e-19)
(-0.340469 0.62703 7.34771e-19)
(-0.374191 0.486749 -8.06271e-19)
(-0.398676 0.39392 -8.71152e-19)
(-0.416841 0.330919 0)
(-0.429109 0.284444 0)
(-0.436688 0.247502 5.38153e-19)
(-0.440866 0.211461 0)
(-0.439547 0.173005 -9.00259e-19)
(-0.430828 0.131915 0)
(-0.413271 0.0848231 2.11074e-21)
(-0.384569 0.028313 -8.89815e-19)
(-0.341181 -0.0408693 0)
(-0.280017 -0.125194 0)
(-0.197186 -0.22722 8.24447e-19)
(-0.0867418 -0.350705 7.86499e-19)
(0.0573261 -0.495767 7.44999e-19)
(0.242132 -0.660314 6.83876e-19)
(0.473988 -0.841304 -6.09681e-19)
(0.755635 -1.0316 0)
(1.08714 -1.22434 -8.36881e-19)
(1.46943 -1.41487 3.15903e-19)
(1.90024 -1.59553 0)
(2.3713 -1.75833 8.53197e-20)
(2.88129 -1.9061 0)
(3.43244 -2.04009 1.5759e-19)
(4.00249 -2.13355 0)
(4.54366 -2.14112 3.3353e-19)
(5.01161 -2.03717 -8.10099e-19)
(5.38226 -1.83109 0)
(5.65214 -1.55642 0)
(5.8289 -1.25613 5.20588e-19)
(5.92474 -0.965282 0)
(5.95612 -0.705367 0)
(5.93642 -0.492201 1.00013e-18)
(5.88863 -0.330201 0)
(5.82634 -0.211728 2.01207e-18)
(5.75981 -0.128439 0)
(5.69506 -0.0706107 4.94255e-21)
(5.63573 -0.0310117 -9.98166e-19)
(5.58373 -0.000537523 -1.99064e-18)
(5.5408 0.024532 0)
(5.5099 0.0554888 0)
(5.4944 0.0887096 -4.71364e-21)
(-0.0175278 0.532703 0)
(0.0686692 1.11411 6.91869e-19)
(0.0884607 1.56394 -8.00888e-19)
(0.158654 1.67069 0)
(0.264692 1.45845 0)
(0.32653 1.13461 -7.56353e-19)
(0.340151 0.847697 0)
(0.324332 0.640292 -9.26098e-19)
(0.306805 0.500397 1.00578e-18)
(0.29569 0.405734 1.08979e-18)
(0.290088 0.340123 -1.16683e-18)
(0.290014 0.29133 6.23376e-19)
(0.294235 0.252264 6.66244e-19)
(0.303108 0.213893 0)
(0.319455 0.172425 -1.10848e-18)
(0.343785 0.127803 0)
(0.377312 0.0765026 1.11394e-21)
(0.421877 0.0147312 1.09049e-18)
(0.480666 -0.0610985 0)
(0.556802 -0.15326 0)
(0.65408 -0.264865 0)
(0.777754 -0.400165 0)
(0.933159 -0.559487 -1.83361e-18)
(1.12643 -0.740317 5.74514e-21)
(1.36319 -0.939002 7.5534e-19)
(1.64479 -1.14726 6.58589e-19)
(1.97051 -1.35741 5.32795e-19)
(2.34164 -1.5652 -8.09058e-19)
(2.75649 -1.76111 0)
(3.20788 -1.93713 -2.32146e-19)
(3.69908 -2.09752 -2.47846e-20)
(4.22973 -2.23921 -3.40971e-19)
(4.76419 -2.32649 0)
(5.24444 -2.31029 -4.54382e-19)
(5.6291 -2.17049 2.17796e-18)
(5.90732 -1.92531 0)
(6.08641 -1.61471 1.29332e-18)
(6.1815 -1.28405 0)
(6.20509 -0.969512 0)
(6.17561 -0.692993 -1.3393e-18)
(6.10888 -0.469393 -1.34761e-18)
(6.02413 -0.302423 0)
(5.93279 -0.183158 -1.04796e-20)
(5.84404 -0.101256 0)
(5.76266 -0.0461431 1.3478e-18)
(5.69119 -0.00972363 3.14294e-21)
(5.63065 0.0169667 2.67852e-18)
(5.58233 0.0382066 -1.33055e-18)
(5.54796 0.0636618 1.31718e-18)
(5.53179 0.0912595 -1.29741e-18)
(0.014112 0.522742 0)
(0.167978 1.09415 -9.27153e-19)
(0.293359 1.5377 1.04951e-18)
(0.46641 1.63929 0)
(0.643721 1.43461 -1.56112e-18)
(0.746439 1.12444 0)
(0.78323 0.848286 0)
(0.779288 0.645926 0)
(0.77547 0.506306 -1.14306e-18)
(0.773616 0.410127 0)
(0.776747 0.342785 1.30732e-18)
(0.784863 0.292339 -6.95063e-19)
(0.796998 0.251742 -7.39318e-19)
(0.814733 0.211675 -1.2166e-18)
(0.841266 0.16803 1.215e-18)
(0.876141 0.120891 0)
(0.920385 0.0666838 -1.20056e-18)
(0.975659 0.00139038 1.18931e-18)
(1.04499 -0.0788745 0)
(1.13142 -0.176301 0)
(1.2388 -0.294287 1.11409e-18)
(1.37209 -0.437309 0)
(1.53604 -0.60575 1.01052e-18)
(1.73559 -0.796942 -1.88115e-18)
(1.97551 -1.00666 0)
(2.25602 -1.22586 3.8623e-21)
(2.57621 -1.44664 6.20538e-19)
(2.93836 -1.66503 4.72379e-19)
(3.34057 -1.87048 0)
(3.77731 -2.05554 2.99308e-19)
(4.25436 -2.22478 3.03303e-20)
(4.76609 -2.36954 4.27296e-19)
(5.2653 -2.44715 0)
(5.69157 -2.40895 0)
(6.0114 -2.24191 -4.216e-20)
(6.2246 -1.9706 0)
(6.34387 -1.63782 -3.364e-18)
(6.38693 -1.28916 0)
(6.36524 -0.960908 0)
(6.29742 -0.675471 2.5456e-20)
(6.20329 -0.44686 0)
(6.09647 -0.278225 0)
(5.98788 -0.159627 -1.6691e-18)
(5.88613 -0.0797288 0)
(5.79525 -0.0273192 0)
(5.71706 0.00620827 1.6764e-18)
(5.65201 0.0297995 -1.95403e-21)
(5.60102 0.0479027 1.66281e-18)
(5.56506 0.069393 -1.64736e-18)
(5.54881 0.0928559 -1.61925e-18)
(0.0348593 0.507378 0)
(0.233399 1.06974 -1.15486e-18)
(0.429612 1.50876 0)
(0.67188 1.60818 -1.49469e-18)
(0.898566 1.41108 1.74948e-18)
(1.03175 1.11292 0)
(1.08502 0.846221 0)
(1.09329 0.647894 0)
(1.0986 0.508467 1.17744e-18)
(1.10313 0.411582 1.25573e-18)
(1.11194 0.343119 -1.33436e-18)
(1.12525 0.291512 1.41515e-18)
(1.1424 0.249808 0)
(1.16581 0.208514 1.23059e-18)
(1.19889 0.16331 0)
(1.24062 0.114409 1.21799e-18)
(1.29193 0.0582046 1.21057e-18)
(1.35445 -0.00948231 -1.20029e-18)
(1.43112 -0.092727 -1.18571e-18)
(1.5249 -0.19375 0)
(1.63972 -0.316086 -1.13918e-18)
(1.78026 -0.464283 -1.10197e-18)
(1.95066 -0.63868 0)
(2.15487 -0.83654 -1.44432e-21)
(2.39687 -1.05322 0)
(2.67606 -1.27921 -8.01777e-19)
(2.99163 -1.50676 -6.77512e-19)
(3.34648 -1.73189 0)
(3.73842 -1.94342 -3.6713e-19)
(4.1637 -2.13455 -5.46973e-19)
(4.62934 -2.30946 0)
(5.1245 -2.45458 0)
(5.59433 -2.52294 -9.38943e-19)
(5.97938 -2.46796 1.37357e-18)
(6.25313 -2.28212 -1.76979e-18)
(6.42241 -1.99378 0)
(6.50294 -1.64695 4.2833e-18)
(6.51284 -1.28699 0)
(6.4629 -0.950204 0)
(6.37059 -0.659705 2.06474e-18)
(6.25891 -0.428661 0)
(6.13801 -0.259514 0)
(6.01854 -0.14189 2.00104e-18)
(5.90872 -0.063835 0)
(5.81207 -0.0136438 2.02376e-18)
(5.72991 0.0176059 -2.02995e-18)
(5.66228 0.0388651 -2.02999e-18)
(5.60987 0.0546325 0)
(5.57313 0.073335 -2.00651e-18)
(5.55696 0.0938719 1.98329e-18)
(0.0490481 0.494142 0)
(0.278406 1.04846 1.28291e-18)
(0.524481 1.48311 0)
(0.816699 1.58034 8.50419e-21)
(1.08104 1.38928 0)
(1.23966 1.10137 0)
(1.30744 0.842696 0)
(1.32946 0.647799 0)
(1.34356 0.508924 -1.09637e-18)
(1.3549 0.411805 -2.32769e-18)
(1.36967 0.342573 1.23413e-18)
(1.38846 0.290088 -1.71562e-21)
(1.41093 0.247499 1.38192e-18)
(1.44039 0.205166 0)
(1.48049 0.158674 0)
(1.52969 0.108305 -1.11676e-18)
(1.58889 0.0504309 -1.11019e-18)
(1.65974 -0.0192733 0)
(1.74508 -0.105019 1.08944e-18)
(1.84779 -0.209096 -2.14963e-18)
(1.97191 -0.335148 2.10503e-18)
(2.12164 -0.487727 -1.01984e-18)
(2.30048 -0.667104 -1.95038e-18)
(2.51144 -0.870499 9.16434e-19)
(2.75768 -1.09292 -1.68103e-18)
(3.03779 -1.32455 0)
(3.35117 -1.55786 0)
(3.70133 -1.78884 0)
(4.08578 -2.00581 3.37049e-19)
(4.50269 -2.20265 3.36872e-19)
(4.95959 -2.38268 1.46745e-20)
(5.4399 -2.52728 0)
(5.88224 -2.58607 8.29303e-19)
(6.22931 -2.51518 -1.19348e-18)
(6.46185 -2.31243 -1.43822e-18)
(6.59284 -2.00928 -1.62375e-18)
(6.6405 -1.65041 -1.76478e-18)
(6.62236 -1.28073 0)
(6.54873 -0.936479 0)
(6.43511 -0.64179 -1.6609e-18)
(6.30737 -0.40902 0)
(6.17371 -0.239701 0)
(6.04437 -0.123292 -1.62422e-18)
(5.92725 -0.0472673 0)
(5.82543 0.00056854 -1.61796e-18)
(5.73977 0.0294314 1.60953e-18)
(5.66995 0.0482639 0)
(5.6164 0.0616082 0)
(5.57915 0.0774219 1.55131e-18)
(5.56319 0.0949287 0)
(0.0587278 0.484184 0)
(0.309989 1.03095 0)
(0.59301 1.46042 0)
(0.923886 1.5552 5.44939e-18)
(1.2198 1.36916 -4.092e-18)
(1.40205 1.09011 0)
(1.48566 0.838327 2.32618e-18)
(1.52272 0.646521 0)
(1.5471 0.508487 0)
(1.56696 0.411346 1.44268e-18)
(1.58926 0.341521 3.04422e-18)
(1.61509 0.288279 -3.21506e-18)
(1.64438 0.244875 -1.69875e-18)
(1.68156 0.201537 0)
(1.73069 0.153798 0)
(1.78957 0.101996 0)
(1.85908 0.0424685 0)
(1.941 -0.0292377 0)
(2.03804 -0.117456 0)
(2.15296 -0.224569 -7.76083e-23)
(2.28984 -0.354301 -2.52274e-18)
(2.45222 -0.511159 4.87052e-18)
(2.64271 -0.695326 4.64235e-18)
(2.86341 -0.903978 0)
(3.1164 -1.13181 1.98254e-18)
(3.39954 -1.3688 0)
(3.7126 -1.60775 0)
(4.05989 -1.84462 0)
(4.4386 -2.06737 0)
(4.84915 -2.27051 -4.09025e-19)
(5.29848 -2.4558 -1.88547e-20)
(5.763 -2.59879 0)
(6.17505 -2.64619 0)
(6.48127 -2.5579 0)
(6.67086 -2.33747 -1.48104e-18)
(6.76301 -2.0193 1.75555e-18)
(6.77841 -1.64827 0)
(6.73282 -1.26866 3.65127e-18)
(6.6362 -0.916598 0)
(6.50132 -0.617674 -1.72083e-18)
(6.35607 -0.383552 3.36858e-18)
(6.20863 -0.214509 0)
(6.06863 -0.0999008 0)
(5.94368 -0.0265716 3.38296e-18)
(5.83637 0.0182313 -3.36835e-18)
(5.74707 0.0440678 3.34248e-18)
(5.67503 0.05984 3.30328e-18)
(5.62042 0.0701635 3.25174e-18)
(5.58279 0.0823706 3.18647e-18)
(5.56711 0.0961497 -3.09907e-18)
(0.0812185 0.448448 1.03735e-18)
(0.385413 0.97751 0)
(0.754416 1.39499 0)
(1.17007 1.48965 -1.5836e-18)
(1.53204 1.32048 2.03019e-18)
(1.76031 1.06384 -1.20144e-18)
(1.87236 0.827706 -2.81023e-18)
(1.93203 0.642837 0)
(1.96907 0.507004 -1.75296e-18)
(1.9977 0.409862 0)
(2.02666 0.338873 -2.07621e-18)
(2.05839 0.284129 5.51265e-21)
(2.09336 0.239126 0)
(2.13704 0.193935 9.86508e-19)
(2.19408 0.143907 1.9873e-18)
(2.26177 0.0895665 1.99153e-18)
(2.34092 0.0272013 1.99124e-18)
(2.43349 -0.0478142 0)
(2.54186 -0.140007 0)
(2.66841 -0.251864 1.94018e-18)
(2.81709 -0.387095 0)
(2.99006 -0.550006 -1.82995e-18)
(3.18834 -0.740605 -1.73948e-18)
(3.41285 -0.955932 0)
(3.66416 -1.19025 0)
(3.93968 -1.43343 0)
(4.24042 -1.67888 -1.07147e-18)
(4.57238 -1.92255 8.32114e-19)
(4.93238 -2.15205 0)
(5.32429 -2.36243 2.88568e-19)
(5.75229 -2.55225 1.55602e-20)
(6.18254 -2.68897 2.75701e-19)
(6.54158 -2.71736 -5.53632e-19)
(6.78517 -2.60435 0)
(6.91477 -2.36112 2.09306e-18)
(6.95672 -2.02504 0)
(6.93304 -1.64012 -1.23844e-18)
(6.8553 -1.24948 -4.00858e-18)
(6.73206 -0.889027 0)
(6.57298 -0.585892 2.78663e-18)
(6.40661 -0.351247 -2.76437e-18)
(6.24314 -0.183697 0)
(6.09099 -0.0721062 0)
(5.95739 -0.00261413 -1.48191e-18)
(5.84421 0.0381667 1.50298e-18)
(5.75118 0.060184 -3.03531e-18)
(5.67696 0.072272 -3.06103e-18)
(5.62135 0.0791238 -3.07557e-18)
(5.58341 0.0874165 -3.07737e-18)
(5.56794 0.0973443 3.05621e-18)
(0.101036 0.381818 -1.1006e-18)
(0.482997 0.864574 0)
(0.97618 1.25045 0)
(1.5215 1.34875 -8.17983e-19)
(1.98928 1.21844 -1.05403e-18)
(2.29798 1.00371 1.3207e-18)
(2.46873 0.795909 1.5431e-18)
(2.56749 0.626321 -8.66301e-19)
(2.6282 0.497725 1.9467e-18)
(2.67178 0.402437 0)
(2.71067 0.330611 0)
(2.74996 0.273889 7.17087e-21)
(2.79148 0.226415 0)
(2.8423 0.17824 -2.18485e-18)
(2.9077 0.124506 -1.1064e-18)
(2.9845 0.0661277 -2.20463e-18)
(3.07333 -0.000677875 -1.10277e-18)
(3.17636 -0.0805768 0)
(3.29508 -0.17838 0)
(3.43116 -0.296619 1.0536e-18)
(3.58771 -0.438675 -1.02384e-18)
(3.76453 -0.608413 0)
(3.96091 -0.805674 -9.26121e-19)
(4.17696 -1.02742 0)
(4.41185 -1.26766 0)
(4.66386 -1.51666 6.69879e-19)
(4.93664 -1.76879 1.12141e-18)
(5.23837 -2.01993 -8.66382e-19)
(5.56511 -2.2572 0)
(5.9246 -2.47556 -3.1183e-19)
(6.31364 -2.66722 -3.95097e-20)
(6.68497 -2.78979 -2.80907e-19)
(6.96313 -2.78891 3.06299e-20)
(7.12074 -2.64335 0)
(7.17548 -2.37361 0)
(7.16021 -2.01871 0)
(7.09485 -1.61966 1.25612e-18)
(6.98352 -1.21785 1.3275e-18)
(6.83178 -0.849135 0)
(6.64663 -0.542394 0)
(6.45593 -0.309135 1.36967e-18)
(6.27471 -0.1451 0)
(6.10939 -0.0385069 0)
(5.96675 0.0254461 -2.98005e-18)
(5.84775 0.0608332 1.51555e-18)
(5.75125 0.0779942 0)
(5.67523 0.0856447 0)
(5.61899 0.0885058 0)
(5.58109 0.0925836 0)
(5.56606 0.0985299 -1.52388e-18)
(0.0882095 0.30592 0)
(0.533165 0.726869 5.86447e-19)
(1.13842 1.07436 0)
(1.80327 1.17582 4.37345e-19)
(2.38069 1.08511 1.09689e-18)
(2.78406 0.917201 6.58877e-19)
(3.02933 0.744141 -7.80555e-19)
(3.18185 0.594905 9.08081e-19)
(3.27966 0.477559 -1.0017e-18)
(3.34842 0.386991 -5.4944e-19)
(3.40494 0.316088 0)
(3.45731 0.258363 1.28921e-18)
(3.50923 0.208919 0)
(3.57007 0.158034 2.28233e-18)
(3.6455 0.100759 -1.15106e-18)
(3.7317 0.0384906 0)
(3.8293 -0.0326199 -1.14287e-18)
(3.94048 -0.1171 0)
(4.06576 -0.219894 0)
(4.20635 -0.34355 -1.08936e-18)
(4.36379 -0.490951 7.05038e-21)
(4.53604 -0.665495 -9.99713e-19)
(4.72179 -0.867085 8.29768e-21)
(4.92089 -1.09276 8.65089e-19)
(5.13177 -1.33665 0)
(5.35492 -1.58991 -8.35951e-21)
(5.59699 -1.84788 5.58189e-19)
(5.86679 -2.10576 4.31421e-19)
(6.1594 -2.35011 0)
(6.48417 -2.57515 4.76168e-19)
(6.82801 -2.76453 2.55575e-20)
(7.12981 -2.86758 -1.24944e-19)
(7.32058 -2.83508 5.39724e-19)
(7.39504 -2.65973 0)
(7.386 -2.36953 0)
(7.32742 -2.00156 0)
(7.23232 -1.59199 0)
(7.0963 -1.1806 0)
(6.92107 -0.804322 0)
(6.71303 -0.494327 0)
(6.49927 -0.263264 -2.0742e-18)
(6.30089 -0.1037 0)
(6.12314 -0.00299501 -7.26328e-19)
(5.97202 0.0547449 5.95244e-21)
(5.84769 0.0842341 1.51399e-18)
(5.74817 0.0961853 0)
(5.67069 0.0991634 0)
(5.61407 0.0978724 0)
(5.57641 0.0976531 1.53885e-18)
(5.56191 0.0995423 1.52223e-18)
(0.0382258 0.208147 0)
(0.531094 0.570717 -6.16245e-19)
(1.24642 0.867325 0)
(2.0323 0.970505 4.32014e-19)
(2.7302 0.920368 5.42308e-19)
(3.24548 0.800005 -6.86144e-19)
(3.58584 0.665475 8.15203e-19)
(3.80827 0.542902 4.63142e-19)
(3.95681 0.441753 1.0509e-18)
(4.06134 0.359759 5.31064e-21)
(4.14324 0.292529 6.21526e-19)
(4.21361 0.235687 0)
(4.2784 0.185595 0)
(4.34957 0.133048 -6.01193e-19)
(4.43281 0.0730735 5.9636e-19)
(4.52398 0.00766925 0)
(4.62403 -0.0670284 -5.8865e-19)
(4.73519 -0.155294 0)
(4.85744 -0.262027 0)
(4.99195 -0.389742 5.53507e-19)
(5.1385 -0.540757 1.07524e-18)
(5.29473 -0.718195 1.02238e-18)
(5.4598 -0.922211 9.57979e-19)
(5.63365 -1.14989 -8.79929e-19)
(5.81436 -1.39588 0)
(6.00549 -1.65279 -3.47177e-19)
(6.21664 -1.91651 -2.8891e-19)
(6.45446 -2.18088 -4.38716e-19)
(6.71335 -2.4317 0)
(7.00056 -2.66125 -8.29542e-20)
(7.29318 -2.84378 0)
(7.51267 -2.92206 1.87621e-19)
(7.61371 -2.85855 0)
(7.61372 -2.65866 -1.75943e-19)
(7.55528 -2.35428 0)
(7.46718 -1.9778 0)
(7.3528 -1.55983 0)
(7.19912 -1.13921 0)
(7.00371 -0.755345 0)
(6.77473 -0.442002 6.71203e-19)
(6.53912 -0.213477 6.96225e-19)
(6.32339 -0.0595404 0)
(6.13354 0.0343684 4.92588e-21)
(5.97426 0.0852036 1.49678e-18)
(5.84493 0.108292 -7.62067e-19)
(5.74267 0.114689 0)
(5.66397 0.112778 7.72693e-19)
(5.60712 0.107197 7.73406e-19)
(5.56981 0.102624 -2.31082e-18)
(5.5559 0.100413 7.6079e-19)
(-0.00996502 0.227735 0)
(0.523956 0.430563 -1.59336e-19)
(1.39083 0.63211 0)
(2.32899 0.72356 -2.14067e-19)
(3.17025 0.711172 -5.63152e-19)
(3.80088 0.64595 0)
(4.23665 0.556387 2.04925e-19)
(4.52472 0.466569 -4.8084e-19)
(4.72072 0.387101 0)
(4.85893 0.318184 8.89798e-19)
(4.96342 0.258421 -6.46839e-19)
(5.04752 0.205495 0)
(5.11952 0.157185 1.83936e-19)
(5.19302 0.105099 -3.10306e-19)
(5.27353 0.0441777 -3.11598e-19)
(5.35791 -0.0229681 3.05001e-19)
(5.44761 -0.100054 6.07271e-19)
(5.54532 -0.191007 0)
(5.65125 -0.300507 0)
(5.76671 -0.430982 -5.65717e-19)
(5.89058 -0.584288 0)
(6.02146 -0.763449 0)
(6.15919 -0.968948 -2.3695e-19)
(6.30393 -1.19785 0)
(6.4532 -1.44542 0)
(6.61367 -1.7061 -3.42171e-19)
(6.79664 -1.97566 -4.23103e-19)
(7.00389 -2.24659 0)
(7.23209 -2.50423 7.3808e-20)
(7.48194 -2.73567 -4.2723e-20)
(7.70941 -2.90381 0)
(7.83172 -2.95235 -6.15991e-20)
(7.84424 -2.86078 5.88804e-20)
(7.78369 -2.64368 9.36602e-20)
(7.69161 -2.33125 0)
(7.58694 -1.9498 0)
(7.46241 -1.5247 0)
(7.2964 -1.09472 1.46177e-19)
(7.08294 -0.702794 0)
(6.83372 -0.385762 -6.83697e-19)
(6.57693 -0.15993 3.42466e-19)
(6.34348 -0.0126424 0)
(6.14156 0.0735421 7.33269e-19)
(5.97427 0.116773 0)
(5.84013 0.132958 -7.63561e-19)
(5.73532 0.133464 0)
(5.65555 0.126459 -1.1638e-18)
(5.59858 0.116461 -7.75969e-19)
(5.56167 0.107487 7.72057e-19)
(5.54836 0.101138 -1.14284e-18)
(0.272037 -0.00219887 0)
(1.05538 0.125419 1.69042e-19)
(2.13629 0.307423 0)
(3.15148 0.438273 2.27865e-19)
(4.05119 0.480966 0)
(4.70366 0.473596 0)
(5.15204 0.434775 -2.20387e-19)
(5.44552 0.380946 0)
(5.64204 0.325826 0)
(5.77746 0.272254 -3.17959e-19)
(5.87547 0.22195 0)
(5.94988 0.174737 0)
(6.00984 0.12986 -1.99391e-19)
(6.06754 0.0796516 -3.32863e-19)
(6.12823 0.019362 -3.35732e-19)
(6.19098 -0.0488225 -3.34318e-19)
(6.25727 -0.127738 0)
(6.33052 -0.220876 0)
(6.41127 -0.332624 0)
(6.50052 -0.465266 0)
(6.59719 -0.620455 0)
(6.70074 -0.801202 0)
(6.81123 -1.00817 2.65067e-19)
(6.9287 -1.23883 0)
(7.05312 -1.48925 0)
(7.19026 -1.75457 0)
(7.34988 -2.03004 1.57382e-19)
(7.52724 -2.30618 0)
(7.72242 -2.56722 -8.36127e-20)
(7.92066 -2.79299 -4.39631e-20)
(8.05679 -2.93852 0)
(8.07838 -2.95803 0)
(8.0154 -2.84579 -6.41376e-20)
(7.91351 -2.61936 9.08444e-20)
(7.80332 -2.30378 0)
(7.69344 -1.91898 0)
(7.566 -1.48651 0)
(7.39146 -1.04648 -1.5589e-19)
(7.16124 -0.646168 0)
(6.89135 -0.325573 0)
(6.61339 -0.10271 -3.66856e-19)
(6.36195 0.0369572 0)
(6.14782 0.114444 0)
(5.97256 0.149361 0)
(5.83374 0.158162 0)
(5.72653 0.152461 0)
(5.6458 0.140171 4.12959e-19)
(5.58876 0.125648 0)
(5.55228 0.112225 0)
(5.53953 0.101701 4.04501e-19)
(9.85914 0.0525896 -3.17585e-19)
(9.72789 0.0833446 0)
(9.49936 0.148655 -3.83095e-19)
(9.26424 0.214854 4.79825e-19)
(9.08216 0.260245 3.11136e-19)
(8.94095 0.276403 3.94236e-19)
(8.81327 0.270802 -4.78847e-19)
(8.6933 0.251297 0)
(8.57954 0.222606 0)
(8.47753 0.188452 7.10011e-19)
(8.39044 0.151549 0)
(8.31882 0.112835 0)
(8.26035 0.0734767 0)
(8.20736 0.0260722 0)
(8.16177 -0.0331346 0)
(8.12997 -0.102692 -7.99614e-19)
(8.11103 -0.184291 0)
(8.10584 -0.280831 0)
(8.11403 -0.39626 0)
(8.13387 -0.532426 -7.72368e-19)
(8.16319 -0.691061 7.46383e-19)
(8.20191 -0.874967 0)
(8.24913 -1.08483 6.62928e-19)
(8.30345 -1.31814 0)
(8.36798 -1.57326 0)
(8.44224 -1.84519 0)
(8.52324 -2.12576 3.55655e-19)
(8.59705 -2.39912 -2.56912e-19)
(8.64911 -2.64229 1.57541e-19)
(8.64861 -2.82999 0)
(8.56347 -2.92634 1.8906e-20)
(8.41491 -2.90829 0)
(8.25662 -2.7797 1.39526e-19)
(8.1161 -2.55447 -1.83613e-19)
(8.00237 -2.24353 2.20335e-19)
(7.90353 -1.85284 0)
(7.78004 -1.40026 -2.87678e-19)
(7.58964 -0.934916 0)
(7.32288 -0.51731 0)
(7.00727 -0.193526 -9.04594e-19)
(6.68494 0.019859 0)
(6.39662 0.14079 0)
(6.15758 0.198129 0)
(5.96654 0.21475 0)
(5.81885 0.207893 0)
(5.70738 0.189341 0)
(5.62519 0.166352 0)
(5.56831 0.142908 -1.42144e-18)
(5.53283 0.120954 0)
(5.52126 0.102639 -1.44099e-18)
(10.051 0.120272 7.3428e-19)
(10.1154 0.228997 0)
(10.2176 0.373386 1.35931e-18)
(10.3557 0.507398 -1.09365e-18)
(10.4959 0.58722 -7.02106e-19)
(10.6103 0.608223 -1.76583e-18)
(10.6802 0.585221 1.05432e-18)
(10.7078 0.537641 0)
(10.7015 0.479853 0)
(10.6728 0.418565 -7.69195e-19)
(10.6314 0.356694 8.0384e-19)
(10.583 0.294708 0)
(10.5325 0.23329 0)
(10.4723 0.162992 7.6574e-19)
(10.4041 0.0796452 0)
(10.3348 -0.0118011 1.58327e-18)
(10.2678 -0.114798 1.52088e-18)
(10.2042 -0.228956 0)
(10.1468 -0.359079 -1.44242e-18)
(10.0963 -0.508384 1.44413e-18)
(10.0511 -0.677803 -1.37414e-18)
(10.0096 -0.870114 0)
(9.97059 -1.08614 -1.18196e-18)
(9.92823 -1.32313 0)
(9.87609 -1.57785 8.27344e-19)
(9.80286 -1.8429 0)
(9.69327 -2.10573 -1.0835e-18)
(9.53438 -2.35229 7.45852e-19)
(9.31339 -2.56347 -2.4745e-19)
(9.04835 -2.71559 0)
(8.76729 -2.78141 3.13907e-20)
(8.52333 -2.75997 1.33471e-19)
(8.35664 -2.65716 -2.01145e-19)
(8.25965 -2.46964 2.61934e-19)
(8.21017 -2.18323 -3.1153e-19)
(8.16936 -1.78547 0)
(8.07049 -1.29304 3.95557e-19)
(7.8605 -0.775131 0)
(7.53707 -0.317409 0)
(7.14865 0.019695 6.43236e-19)
(6.76134 0.219581 0)
(6.42491 0.308955 0)
(6.15395 0.331261 -7.26208e-19)
(5.94416 0.316229 0)
(5.78698 0.283204 0)
(5.67172 0.243983 0)
(5.58889 0.204419 0)
(5.53281 0.167656 1.5419e-18)
(5.49878 0.133205 0)
(5.48858 0.103508 1.48196e-18)
(10.0439 0.109971 -3.62219e-19)
(10.0903 0.195637 0)
(10.1765 0.305938 -4.57088e-19)
(10.3084 0.408613 5.8478e-19)
(10.4705 0.475173 0)
(10.6355 0.497991 8.6272e-19)
(10.7811 0.486481 -5.02751e-19)
(10.8971 0.452916 0)
(10.9852 0.410576 6.43831e-19)
(11.0501 0.364336 -7.26993e-19)
(11.0977 0.315991 -7.93892e-19)
(11.1306 0.265874 -8.39427e-19)
(11.1531 0.214266 -4.43503e-19)
(11.1671 0.153427 -1.90081e-20)
(11.1717 0.0786915 7.51714e-19)
(11.1639 -0.0054707 -7.47313e-19)
(11.1458 -0.102208 -1.52353e-18)
(11.1165 -0.21131 0)
(11.0736 -0.336515 7.54656e-19)
(11.0179 -0.480718 0)
(10.9456 -0.644229 -6.22448e-19)
(10.8544 -0.828974 0)
(10.7392 -1.03324 5.12846e-19)
(10.5929 -1.25617 4.44685e-19)
(10.4107 -1.49412 -8.32406e-19)
(10.1802 -1.74008 0)
(9.90769 -1.98164 4.99478e-19)
(9.59728 -2.20258 -3.34212e-19)
(9.2726 -2.3946 5.3118e-20)
(8.95428 -2.54047 -1.1461e-20)
(8.67488 -2.6269 -5.98583e-20)
(8.49602 -2.65669 -1.33344e-19)
(8.40714 -2.60557 1.70302e-19)
(8.38761 -2.45726 0)
(8.41131 -2.18663 -1.78252e-19)
(8.41554 -1.76295 0)
(8.31894 -1.2094 -1.94806e-19)
(8.07281 -0.623272 0)
(7.68827 -0.11587 0)
(7.23014 0.233601 5.37653e-19)
(6.78744 0.416581 -5.85184e-19)
(6.41481 0.475112 0)
(6.12158 0.461986 7.5596e-21)
(5.90098 0.414961 0)
(5.74005 0.355839 7.77394e-19)
(5.6248 0.296376 7.85964e-19)
(5.54361 0.240796 0)
(5.48929 0.191368 0)
(5.45695 0.144808 -7.70582e-19)
(5.44734 0.103886 0)
(10.0524 0.0980317 -9.44505e-21)
(10.0946 0.167248 0)
(10.17 0.25348 -2.43597e-19)
(10.2848 0.332551 -5.72013e-19)
(10.4284 0.384788 3.52524e-19)
(10.5808 0.404523 0)
(10.7246 0.397946 4.88149e-19)
(10.8483 0.374908 0)
(10.9499 0.34304 -6.2269e-19)
(11.033 0.305976 0)
(11.1009 0.265755 0)
(11.1554 0.223055 8.13005e-19)
(11.1993 0.178888 4.31035e-19)
(11.2376 0.125865 -1.07976e-18)
(11.268 0.0598267 -7.36619e-19)
(11.2847 -0.0152942 7.34206e-19)
(11.2863 -0.101095 0)
(11.2705 -0.200341 0)
(11.2333 -0.314389 6.86899e-19)
(11.1715 -0.445039 6.25255e-19)
(11.0823 -0.594104 6.17132e-19)
(10.9622 -0.762361 0)
(10.8047 -0.948349 -3.98393e-20)
(10.6112 -1.15125 -4.42689e-19)
(10.3776 -1.36401 0)
(10.1056 -1.58555 0)
(9.80318 -1.80576 1.62548e-19)
(9.47587 -2.01608 -8.45534e-20)
(9.15674 -2.21106 -5.3363e-20)
(8.85839 -2.37629 1.14809e-20)
(8.63395 -2.51885 0)
(8.52009 -2.60666 0)
(8.49517 -2.59987 -1.72262e-19)
(8.5363 -2.4843 0)
(8.59423 -2.2171 2.30961e-19)
(8.58935 -1.74588 0)
(8.45026 -1.10924 1.95815e-19)
(8.14723 -0.441602 0)
(7.70231 0.120321 0)
(7.18853 0.477101 0)
(6.70832 0.636069 3.11752e-19)
(6.31699 0.655543 3.27662e-19)
(6.02062 0.599492 7.2763e-19)
(5.80573 0.51546 0)
(5.65357 0.427704 -1.17644e-18)
(5.54721 0.347229 -7.91801e-19)
(5.47384 0.275608 3.98304e-19)
(5.42494 0.214138 -7.91267e-19)
(5.39672 0.155719 7.75979e-19)
(5.38809 0.104205 0)
(10.0611 0.0852461 3.36199e-19)
(10.1056 0.142633 0)
(10.1791 0.211059 2.41252e-19)
(10.2844 0.274001 1.48082e-19)
(10.4134 0.31734 -3.48115e-19)
(10.551 0.336353 0)
(10.6832 0.334245 0)
(10.8015 0.318135 0)
(10.902 0.292264 0)
(10.9859 0.260841 0)
(11.0552 0.22615 0)
(11.1109 0.189256 0)
(11.155 0.150581 0)
(11.1935 0.103606 3.37517e-19)
(11.2236 0.0450537 1.6746e-19)
(11.2393 -0.021192 0)
(11.2392 -0.0969396 0)
(11.2208 -0.184429 3.19548e-19)
(11.1807 -0.285139 0)
(11.1156 -0.399886 -3.18244e-19)
(11.0224 -0.530761 0)
(10.8962 -0.677873 0)
(10.7335 -0.841457 -2.52183e-19)
(10.5323 -1.02143 0)
(10.2875 -1.21042 -1.43558e-19)
(10.0066 -1.41184 1.02276e-19)
(9.69385 -1.61435 -1.02619e-19)
(9.36691 -1.82737 1.06501e-19)
(9.05286 -2.03887 0)
(8.77086 -2.24183 -3.56967e-20)
(8.58774 -2.44564 0)
(8.52225 -2.58651 4.91963e-20)
(8.54784 -2.6261 0)
(8.59623 -2.54319 2.70426e-20)
(8.5762 -2.25975 -4.5404e-20)
(8.44014 -1.71502 1.31642e-20)
(8.18902 -0.983573 0)
(7.83538 -0.217876 0)
(7.38724 0.374599 0)
(6.88332 0.730256 0)
(6.42427 0.861881 1.47358e-19)
(6.06156 0.835808 -3.29787e-19)
(5.79782 0.733207 0)
(5.61452 0.610621 0)
(5.49094 0.493255 1.9657e-19)
(5.40808 0.392083 0)
(5.35301 0.305437 -6.02954e-19)
(5.31594 0.233868 7.96681e-19)
(5.29688 0.164724 -3.96152e-19)
(5.2901 0.104287 0)
(10.0706 0.0706488 0)
(10.1189 0.117286 0)
(10.1923 0.171614 0)
(10.2917 0.221454 -1.47583e-19)