/*--------------------------------*- C++ -*----------------------------------*\
| =========                 |                                                 |
| \\      /  F ield         | OpenFOAM: The Open Source CFD Toolbox           |
|  \\    /   O peration     | Version:  2112                                  |
|   \\  /    A nd           | Website:  www.openfoam.com                      |
|    \\/     M anipulation  |                                                 |
\*---------------------------------------------------------------------------*/
FoamFile
{
    version     2.0;
    format      ascii;
    arch        "LSB;label=32;scalar=64";
    class       volVectorField;
    location    "0.06";
    object      U;
}
// * * * * * * * * * * * * * * * * * * * * * * * * * * * * * * * * * * * * * //

dimensions      [0 1 -1 0 0 0 0];

internalField   nonuniform List<vector> 
12225
(
(9.84751 0.0346991 0)
(9.58712 0.0551114 0)
(9.32291 0.0583641 0)
(9.06073 0.0580525 0)
(8.8135 0.0564648 0)
(8.58389 0.0538602 0)
(8.37055 0.0506508 0)
(8.17148 0.0475076 0)
(7.98704 0.0441454 0)
(7.81472 0.0413652 0)
(7.65706 0.0380813 0)
(7.50766 0.0363033 0)
(7.37472 0.0323415 0)
(7.2431 0.032988 0)
(7.13372 0.0257356 0)
(7.01344 0.0336348 0)
(6.92596 0.0145299 0)
(6.81046 0.0454169 0)
(10.0151 0.0445005 0)
(10.0599 0.0638451 0)
(10.0734 0.0618218 0)
(10.0623 0.0604182 0)
(10.0397 0.0606643 0)
(10.0102 0.0608318 0)
(9.97517 0.0606479 0)
(9.93464 0.0600672 0)
(9.89095 0.0596675 0)
(9.84401 0.0588324 0)
(9.79628 0.058511 0)
(9.74619 0.0572089 0)
(9.69688 0.0572004 0)
(9.64517 0.0552767 0)
(9.59571 0.0560732 0)
(9.54282 0.0536571 0)
(9.49328 0.0555859 0)
(9.43898 0.0546135 0)
(10.0115 0.0362609 0)
(10.0431 0.0547545 0)
(10.0643 0.056565 0)
(10.0736 0.0586408 0)
(10.0787 0.0614562 0)
(10.0822 0.0634446 0)
(10.0838 0.0644282 0)
(10.083 0.06485 0)
(10.0803 0.0650213 0)
(10.0759 0.0650033 0)
(10.0701 0.0648283 0)
(10.0627 0.0645745 0)
(10.0543 0.0641698 0)
(10.0442 0.0640586 0)
(10.0335 0.0636246 0)
(10.0203 0.0643504 0)
(10.0076 0.0647243 0)
(9.99075 0.0678835 0)
(10.0091 0.0306526 0)
(10.0326 0.0491903 0)
(10.0509 0.053554 0)
(10.0611 0.0566187 0)
(10.0685 0.0596355 0)
(10.0754 0.061721 0)
(10.0812 0.0628704 0)
(10.0858 0.0635041 0)
(10.0894 0.0639345 0)
(10.0922 0.0641892 0)
(10.0942 0.0643761 0)
(10.0954 0.0644607 0)
(10.0959 0.0645715 0)
(10.0956 0.0648433 0)
(10.0946 0.0651558 0)
(10.0925 0.0663877 0)
(10.0903 0.0677244 0)
(10.0873 0.0718223 0)
(10.0065 0.0260299 0)
(10.0264 0.0443773 0)
(10.0419 0.0503146 0)
(10.0518 0.0540718 0)
(10.0596 0.0572855 0)
(10.0668 0.0595421 0)
(10.0733 0.0609127 0)
(10.0788 0.0617702 0)
(10.0837 0.0623909 0)
(10.0879 0.0628399 0)
(10.0916 0.0632067 0)
(10.0947 0.0635057 0)
(10.0973 0.0638448 0)
(10.0993 0.064338 0)
(10.1008 0.0650235 0)
(10.1018 0.0663557 0)
(10.1027 0.0682047 0)
(10.1035 0.0713924 0)
(10.0049 0.021685 0)
(10.0219 0.0398158 0)
(10.0353 0.0469692 0)
(10.0448 0.0513726 0)
(10.0526 0.0548098 0)
(10.0598 0.0572272 0)
(10.0664 0.0587825 0)
(10.0722 0.0598147 0)
(10.0774 0.0605776 0)
(10.0821 0.0611618 0)
(10.0863 0.0616548 0)
(10.09 0.0621023 0)
(10.0933 0.0625943 0)
(10.0962 0.0632479 0)
(10.0987 0.0641187 0)
(10.1009 0.0655033 0)
(10.103 0.0673386 0)
(10.1054 0.0699523 0)
(10.004 0.0178772 0)
(10.0182 0.0355605 0)
(10.03 0.0436071 0)
(10.0391 0.0485472 0)
(10.0469 0.0521925 0)
(10.0541 0.054753 0)
(10.0606 0.0564661 0)
(10.0665 0.0576469 0)
(10.0719 0.0585322 0)
(10.0767 0.0592291 0)
(10.0812 0.0598295 0)
(10.0852 0.0603939 0)
(10.0888 0.0610062 0)
(10.0922 0.0617677 0)
(10.0952 0.06274 0)
(10.098 0.0641025 0)
(10.1009 0.0658207 0)
(10.104 0.0680472 0)
(10.0032 0.0146235 0)
(10.0149 0.0316014 0)
(10.0255 0.040229 0)
(10.0343 0.0455829 0)
(10.0421 0.0494155 0)
(10.0492 0.0521112 0)
(10.0557 0.0539674 0)
(10.0616 0.0552827 0)
(10.067 0.0562808 0)
(10.072 0.0570797 0)
(10.0766 0.0577759 0)
(10.0808 0.0584375 0)
(10.0847 0.0591431 0)
(10.0883 0.0599754 0)
(10.0917 0.0609922 0)
(10.0949 0.0622939 0)
(10.0982 0.0638583 0)
(10.1018 0.0657229 0)
(10.0023 0.0119018 0)
(10.0118 0.0278832 0)
(10.0216 0.036813 0)
(10.0302 0.042472 0)
(10.0378 0.0464706 0)
(10.0448 0.0492951 0)
(10.0513 0.051283 0)
(10.0573 0.0527218 0)
(10.0627 0.0538251 0)
(10.0678 0.0547184 0)
(10.0725 0.0555005 0)
(10.0769 0.0562433 0)
(10.081 0.0570193 0)
(10.0848 0.0578949 0)
(10.0884 0.0589173 0)
(10.092 0.0601369 0)
(10.0956 0.0615295 0)
(10.0994 0.0630704 0)
(10.0013 0.00970446 0)
(10.0092 0.0243876 0)
(10.0182 0.0333557 0)
(10.0264 0.0392165 0)
(10.0339 0.0433529 0)
(10.0409 0.0462953 0)
(10.0473 0.0484025 0)
(10.0533 0.049954 0)
(10.0589 0.0511546 0)
(10.064 0.0521345 0)
(10.0688 0.0529933 0)
(10.0733 0.0538039 0)
(10.0775 0.0546316 0)
(10.0816 0.0555298 0)
(10.0854 0.0565333 0)
(10.0892 0.0576622 0)
(10.093 0.0588876 0)
(10.0969 0.0601603 0)
(10.0007 0.00797837 0)
(10.0071 0.0211442 0)
(10.0152 0.0298897 0)
(10.023 0.0358324 0)
(10.0303 0.0400634 0)
(10.0372 0.0431036 0)
(10.0437 0.0453143 0)
(10.0497 0.0469659 0)
(10.0553 0.0482552 0)
(10.0605 0.0493137 0)
(10.0654 0.0502403 0)
(10.07 0.0511069 0)
(10.0744 0.0519721 0)
(10.0786 0.0528787 0)
(10.0826 0.0538505 0)
(10.0865 0.0548911 0)
(10.0904 0.0559695 0)
(10.0944 0.0570332 0)
(10.0004 0.00666686 0)
(10.0056 0.0184047 0)
(10.0129 0.0267467 0)
(10.0202 0.0326369 0)
(10.0274 0.0368952 0)
(10.0341 0.0399939 0)
(10.0405 0.0422786 0)
(10.0466 0.0440068 0)
(10.0522 0.0453667 0)
(10.0575 0.0464886 0)
(10.0625 0.047469 0)
(10.0673 0.0483775 0)
(10.0717 0.0492672 0)
(10.076 0.0501735 0)
(10.0802 0.0511131 0)
(10.0842 0.0520824 0)
(10.0882 0.0530516 0)
(10.0922 0.0539765 0)
(10.0002 0.00559359 0)
(10.0045 0.0159137 0)
(10.0109 0.0237001 0)
(10.0178 0.029419 0)
(10.0246 0.0336394 0)
(10.0313 0.0367589 0)
(10.0376 0.0390924 0)
(10.0437 0.0408795 0)
(10.0493 0.0422978 0)
(10.0547 0.0434733 0)
(10.0598 0.0444991 0)
(10.0646 0.0454418 0)
(10.0692 0.0463496 0)
(10.0736 0.0472526 0)
(10.0779 0.0481627 0)
(10.082 0.0490739 0)
(10.0861 0.0499603 0)
(10.0901 0.0507895 0)
(10.0002 0.00459296 0)
(10.0035 0.0133619 0)
(10.009 0.0203641 0)
(10.0153 0.0257313 0)
(10.0218 0.0298056 0)
(10.0283 0.0328845 0)
(10.0345 0.035231 0)
(10.0405 0.0370561 0)
(10.0463 0.0385206 0)
(10.0517 0.0397424 0)
(10.0569 0.0408085 0)
(10.0618 0.0417814 0)
(10.0666 0.0427041 0)
(10.0711 0.0436027 0)
(10.0754 0.0444868 0)
(10.0797 0.0453514 0)
(10.0837 0.0461778 0)
(10.0877 0.0469463 0)
(10.0001 0.00365781 0)
(10.0028 0.0107984 0)
(10.0074 0.0167924 0)
(10.013 0.0215878 0)
(10.0191 0.0253541 0)
(10.0252 0.0282846 0)
(10.0314 0.0305738 0)
(10.0373 0.0323912 0)
(10.0431 0.0338727 0)
(10.0486 0.0351217 0)
(10.0539 0.0362157 0)
(10.0589 0.0372105 0)
(10.0638 0.0381444 0)
(10.0684 0.0390405 0)
(10.0729 0.0399081 0)
(10.0772 0.0407458 0)
(10.0813 0.041544 0)
(10.0853 0.042296 0)
(10.0001 0.00277164 0)
(10.0022 0.00824774 0)
(10.006 0.013034 0)
(10.011 0.0170201 0)
(10.0165 0.0202703 0)
(10.0224 0.0228903 0)
(10.0283 0.0250038 0)
(10.0342 0.0267298 0)
(10.0399 0.0281703 0)
(10.0455 0.0294071 0)
(10.0508 0.0305029 0)
(10.056 0.0315041 0)
(10.061 0.032443 0)
(10.0657 0.0333399 0)
(10.0703 0.0342051 0)
(10.0747 0.0350419 0)
(10.0789 0.0358495 0)
(10.0829 0.0366318 0)
(10.0001 0.00190324 0)
(10.0018 0.00568297 0)
(10.0051 0.00909148 0)
(10.0094 0.012038 0)
(10.0145 0.014539 0)
(10.02 0.0166417 0)
(10.0257 0.0184105 0)
(10.0314 0.0199142 0)
(10.0371 0.0212164 0)
(10.0427 0.0223706 0)
(10.0481 0.0234196 0)
(10.0533 0.0243965 0)
(10.0584 0.0253251 0)
(10.0633 0.0262216 0)
(10.0679 0.0270962 0)
(10.0724 0.0279552 0)
(10.0767 0.0288043 0)
(10.0808 0.0296541 0)
(10.0001 0.00100046 0)
(10.0016 0.00299609 0)
(10.0045 0.00485654 0)
(10.0085 0.00654491 0)
(10.0132 0.00806271 0)
(10.0184 0.00942348 0)
(10.0239 0.0106485 0)
(10.0295 0.0117636 0)
(10.0351 0.012794 0)
(10.0407 0.0137627 0)
(10.0461 0.0146889 0)
(10.0514 0.0155883 0)
(10.0566 0.0164729 0)
(10.0615 0.0173519 0)
(10.0663 0.0182321 0)
(10.0709 0.0191198 0)
(10.0752 0.0200221 0)
(10.0794 0.0209513 0)
(10.0001 -1.94917e-05 0)
(10.0016 -3.57875e-05 0)
(10.0045 4.10816e-05 0)
(10.0084 0.00023739 0)
(10.0131 0.000546538 0)
(10.0183 0.000954503 0)
(10.0237 0.00144646 0)
(10.0292 0.00200828 0)
(10.0348 0.00262788 0)
(10.0403 0.00329597 0)
(10.0458 0.00400591 0)
(10.0511 0.00475321 0)
(10.0562 0.00553512 0)
(10.0612 0.00635023 0)
(10.0661 0.0071985 0)
(10.0707 0.00808153 0)
(10.0752 0.00900351 0)
(10.0795 0.00997377 0)
(10.0001 -0.00108109 0)
(10.0019 -0.00314787 0)
(10.0052 -0.00482208 0)
(10.0095 -0.00603175 0)
(10.0145 -0.00682011 0)
(10.0198 -0.00725237 0)
(10.0254 -0.00739396 0)
(10.031 -0.00730633 0)
(10.0366 -0.00704154 0)
(10.0421 -0.00664019 0)
(10.0475 -0.00613236 0)
(10.0528 -0.00553971 0)
(10.0579 -0.0048774 0)
(10.0629 -0.00415571 0)
(10.0677 -0.00338104 0)
(10.0724 -0.00255653 0)
(10.0769 -0.0016818 0)
(10.0812 -0.000751154 0)
(10.0001 -0.00213858 0)
(10.0024 -0.00610455 0)
(10.0063 -0.00923547 0)
(10.0112 -0.0114962 0)
(10.0166 -0.0130374 0)
(10.0222 -0.0140079 0)
(10.0278 -0.0145353 0)
(10.0335 -0.0147293 0)
(10.0391 -0.0146765 0)
(10.0445 -0.014441 0)
(10.0499 -0.0140679 0)
(10.0551 -0.0135887 0)
(10.0602 -0.0130252 0)
(10.0651 -0.0123923 0)
(10.0699 -0.0116995 0)
(10.0745 -0.0109525 0)
(10.0791 -0.0101533 0)
(10.0834 -0.00929837 0)
(10.0002 -0.0033774 0)
(10.0033 -0.00932152 0)
(10.0081 -0.0137135 0)
(10.0136 -0.0167415 0)
(10.0193 -0.018775 0)
(10.0251 -0.0200741 0)
(10.0309 -0.020828 0)
(10.0366 -0.0211885 0)
(10.0421 -0.0212687 0)
(10.0475 -0.0211476 0)
(10.0528 -0.0208779 0)
(10.0579 -0.0204955 0)
(10.0629 -0.0200247 0)
(10.0678 -0.0194823 0)
(10.0725 -0.0188793 0)
(10.0772 -0.0182228 0)
(10.0816 -0.0175158 0)
(10.086 -0.0167566 0)
(10.0004 -0.00491723 0)
(10.0046 -0.0129045 0)
(10.0105 -0.0182501 0)
(10.0166 -0.021715 0)
(10.0226 -0.0240008 0)
(10.0286 -0.0254648 0)
(10.0344 -0.0263315 0)
(10.0401 -0.0267802 0)
(10.0456 -0.0269415 0)
(10.0509 -0.0269016 0)
(10.0561 -0.0267145 0)
(10.0612 -0.0264165 0)
(10.0661 -0.0260315 0)
(10.0709 -0.0255771 0)
(10.0756 -0.0250642 0)
(10.0802 -0.0245009 0)
(10.0846 -0.0238908 0)
(10.089 -0.0232329 0)
(10.0007 -0.0068777 0)
(10.0065 -0.0168766 0)
(10.0135 -0.0227663 0)
(10.0202 -0.0263392 0)
(10.0265 -0.0286933 0)
(10.0325 -0.0302162 0)
(10.0384 -0.0311239 0)
(10.0441 -0.0316107 0)
(10.0495 -0.0318194 0)
(10.0548 -0.0318388 0)
(10.0599 -0.0317192 0)
(10.0649 -0.0314947 0)
(10.0698 -0.0311873 0)
(10.0745 -0.0308146 0)
(10.0791 -0.0303866 0)
(10.0837 -0.0299127 0)
(10.0881 -0.0293965 0)
(10.0924 -0.0288367 0)
(10.0013 -0.00936728 0)
(10.0091 -0.021189 0)
(10.0174 -0.0271665 0)
(10.0246 -0.030566 0)
(10.0311 -0.0328668 0)
(10.0372 -0.0343858 0)
(10.0431 -0.0352877 0)
(10.0488 -0.0357761 0)
(10.0541 -0.0360071 0)
(10.0593 -0.0360689 0)
(10.0644 -0.0360042 0)
(10.0693 -0.0358425 0)
(10.0741 -0.0356026 0)
(10.0787 -0.0353025 0)
(10.0832 -0.0349509 0)
(10.0877 -0.034558 0)
(10.092 -0.0341276 0)
(10.0962 -0.0336568 0)
(10.0028 -0.0127149 0)
(10.0127 -0.0257889 0)
(10.0226 -0.0313659 0)
(10.0303 -0.0343839 0)
(10.0368 -0.0365676 0)
(10.043 -0.0380452 0)
(10.0489 -0.0389027 0)
(10.0545 -0.0393575 0)
(10.0597 -0.0395852 0)
(10.0648 -0.0396695 0)
(10.0697 -0.0396432 0)
(10.0744 -0.0395285 0)
(10.079 -0.0393416 0)
(10.0835 -0.0391001 0)
(10.0878 -0.0388123 0)
(10.092 -0.038489 0)
(10.0962 -0.0381334 0)
(10.1002 -0.0377385 0)
(10.0049 -0.0166889 0)
(10.0177 -0.0305848 0)
(10.0299 -0.0352539 0)
(10.0381 -0.0377684 0)
(10.0444 -0.0398508 0)
(10.0505 -0.0412864 0)
(10.0563 -0.0420734 0)
(10.0616 -0.0424581 0)
(10.0665 -0.0426479 0)
(10.0712 -0.0427185 0)
(10.0756 -0.0426936 0)
(10.0799 -0.0425864 0)
(10.0839 -0.0424124 0)
(10.0878 -0.0421902 0)
(10.0916 -0.0419259 0)
(10.0952 -0.0416392 0)
(10.0987 -0.0413233 0)
(10.1021 -0.0409962 0)
(10.0069 -0.0216463 0)
(10.0259 -0.0360983 0)
(10.041 -0.0387647 0)
(10.0492 -0.0404302 0)
(10.0549 -0.0424252 0)
(10.06 -0.0439185 0)
(10.0647 -0.0447429 0)
(10.0686 -0.0451505 0)
(10.0719 -0.0453756 0)
(10.0746 -0.0454844 0)
(10.0769 -0.0454932 0)
(10.0788 -0.0454059 0)
(10.0804 -0.0452372 0)
(10.0818 -0.0450136 0)
(10.0829 -0.0447307 0)
(10.0838 -0.0444337 0)
(10.0844 -0.0440938 0)
(10.085 -0.0437815 0)
(10.0092 -0.028615 0)
(10.0404 -0.0450104 0)
(10.0561 -0.0447211 0)
(10.0582 -0.0437881 0)
(10.0548 -0.0439457 0)
(10.0491 -0.0441364 0)
(10.0415 -0.0440121 0)
(10.0317 -0.0437307 0)
(10.0201 -0.0434364 0)
(10.0073 -0.0431706 0)
(9.99361 -0.0429021 0)
(9.97928 -0.0426228 0)
(9.96441 -0.0423023 0)
(9.94931 -0.041986 0)
(9.93389 -0.0416119 0)
(9.91863 -0.0412799 0)
(9.90308 -0.0408741 0)
(9.88812 -0.0405949 0)
(9.91548 -0.0239298 0)
(9.77767 -0.039936 0)
(9.63328 -0.043529 0)
(9.48472 -0.044659 0)
(9.34141 -0.0450731 0)
(9.20673 -0.0447522 0)
(9.07995 -0.0438238 0)
(8.96035 -0.0425404 0)
(8.84741 -0.0411111 0)
(8.74119 -0.0396307 0)
(8.64116 -0.0381374 0)
(8.54732 -0.0367136 0)
(8.45885 -0.0353039 0)
(8.37607 -0.0339686 0)
(8.29776 -0.0326566 0)
(8.22494 -0.0314616 0)
(8.15538 -0.0302631 0)
(8.09163 -0.0292692 0)
(-0.0500165 0.123909 -1.209e-20)
(-0.174785 0.128861 1.2003e-20)
(-0.279015 0.0899342 0)
(-0.317134 0.0169604 0)
(-0.278663 -0.0636752 0)
(-0.176895 -0.129455 -1.13978e-20)
(-0.0237509 -0.173281 0)
(0.158857 -0.196322 0)
(0.351386 -0.201886 0)
(0.540858 -0.194701 0)
(0.717711 -0.180011 1.06191e-20)
(0.875456 -0.161045 0)
(1.01036 -0.138403 0)
(1.12157 -0.113678 0)
(1.20853 -0.0884498 0)
(1.27177 -0.0638851 1.07606e-20)
(1.31252 -0.0406465 0)
(1.33264 -0.0190026 0)
(1.33373 0.00113468 0)
(1.31672 0.0196801 0)
(1.28392 0.0364241 0)
(1.23728 0.0510281 0)
(1.17842 0.0637318 0)
(1.1089 0.0744821 1.0359e-20)
(1.03045 0.0823072 -1.02638e-20)
(0.944953 0.0873146 1.01718e-20)
(0.854419 0.0897736 1.00847e-20)
(0.761474 0.0890293 0)
(0.669125 0.0841645 0)
(0.581485 0.0741728 -9.86846e-21)
(0.503186 0.0588831 -9.81176e-21)
(0.43907 0.0384844 0)
(0.394209 0.0137995 0)
(0.371492 -0.00859811 -9.6509e-21)
(0.368775 -0.0283054 0)
(0.388686 -0.0503218 0)
(0.430957 -0.0585056 9.44373e-21)
(0.479084 -0.0427318 0)
(0.519483 -0.0459047 9.31066e-21)
(0.576655 -0.0362326 1.84818e-20)
(0.648645 -0.0431734 0)
(0.604026 -0.244085 0)
(0.522419 -0.381847 0)
(0.336105 -0.00975449 0)
(-0.193724 0.426064 0)
(-0.798645 0.51491 1.72153e-20)
(-1.38302 0.503617 1.76146e-20)
(-1.93624 0.471582 1.85469e-20)
(-2.44573 0.427492 0)
(-2.91082 0.381867 -2.13886e-20)
(-3.32935 0.337735 0)
(-3.70506 0.297796 2.46697e-20)
(-4.0409 0.262444 2.62698e-20)
(-4.34157 0.231907 0)
(-4.6111 0.205698 0)
(-4.85362 0.183357 0)
(-5.07265 0.164278 3.16858e-20)
(-5.27134 0.147935 0)
(-5.4523 0.133844 0)
(-5.61775 0.121588 0)
(-5.76952 0.110828 0)
(-5.90911 0.101273 0)
(-6.03776 0.0926927 0)
(-6.15644 0.0848846 0)
(-6.26595 0.0777001 0)
(-6.36694 0.0710133 -3.80065e-20)
(-6.45989 0.064721 0)
(-6.5452 0.0587416 0)
(-6.62315 0.0530104 3.87225e-20)
(-6.69395 0.0474738 3.88297e-20)
(-6.75776 0.0420943 0)
(-6.81467 0.0368417 -3.88518e-20)
(-6.86473 0.0316964 3.87675e-20)
(-6.90799 0.0266465 0)
(-6.94444 0.0216868 -3.84093e-20)
(-6.97409 0.0168283 0)
(-6.99688 0.012095 0)
(-7.01261 0.00748874 3.74016e-20)
(-7.02113 0.00293209 0)
(-7.02264 -0.00163836 -3.64106e-20)
(-7.01829 -0.00589633 0)
(-7.0071 -0.0101838 3.51592e-20)
(-6.98953 -0.0143566 3.44369e-20)
(-6.9652 -0.0185534 3.36502e-20)
(-6.93423 -0.022712 6.5599e-20)
(-6.89643 -0.0268698 -6.37691e-20)
(-6.85179 -0.0310248 0)
(-6.80021 -0.0351832 0)
(-6.74163 -0.0393266 0)
(-6.67597 -0.043479 -5.52065e-20)
(-6.60314 -0.0476328 -5.27657e-20)
(-6.52305 -0.0518066 5.021e-20)
(-6.43558 -0.055999 0)
(-6.34063 -0.0602172 -4.4767e-20)
(-6.23806 -0.0644672 -4.18868e-20)
(-6.12775 -0.0687529 -3.89065e-20)
(-6.00954 -0.0730832 0)
(-5.88329 -0.077459 0)
(-5.74882 -0.0818844 0)
(-5.606 -0.0863502 -2.60881e-20)
(-5.45468 -0.0908489 0)
(-5.29475 -0.0953828 0)
(-5.12605 -0.0999807 1.574e-20)
(-4.94844 -0.10464 0)
(-4.76175 -0.109363 0)
(-4.56584 -0.114123 5.06513e-21)
(-4.36059 -0.118887 0)
(-4.14595 -0.123593 0)
(-3.9219 -0.12815 5.59053e-21)
(-3.68847 -0.132408 9.06472e-21)
(-3.44581 -0.136075 0)
(-3.1944 -0.138597 -1.57895e-20)
(-2.9347 -0.13983 0)
(-2.66561 -0.143489 2.21148e-20)
(-2.38648 -0.148841 0)
(-2.09862 -0.152866 2.79225e-20)
(-1.80187 -0.157237 3.05818e-20)
(-1.49673 -0.161187 0)
(-1.18337 -0.16495 0)
(-0.86222 -0.168341 0)
(-0.533743 -0.171208 0)
(-0.198553 -0.173219 0)
(0.142545 -0.174155 0)
(0.488544 -0.174088 0)
(0.838024 -0.173027 4.31561e-20)
(1.18912 -0.17032 -4.33153e-20)
(1.53923 -0.165553 0)
(1.88573 -0.162748 0)
(2.22743 -0.162173 0)
(2.56352 -0.158243 0)
(2.89053 -0.150073 -8.13755e-20)
(3.20479 -0.140073 0)
(3.50359 -0.129311 7.68078e-20)
(3.78411 -0.11781 -7.42119e-20)
(4.04326 -0.10558 0)
(4.27885 -0.0931586 0)
(4.48978 -0.0809096 0)
(4.67537 -0.0687871 6.34633e-20)
(4.83494 -0.0567437 6.09945e-20)
(4.96788 -0.0450822 0)
(5.07487 -0.033824 5.66509e-20)
(5.15588 -0.0230126 5.4832e-20)
(5.21171 -0.0133769 -5.32687e-20)
(5.24524 -0.00391674 0)
(5.25403 0.00528666 0)
(5.23895 0.0137858 -5.0125e-20)
(5.20267 0.0212613 0)
(5.14799 0.0273838 0)
(5.07779 0.0320402 0)
(4.99518 0.0352424 0)
(4.9032 0.0370893 4.92668e-20)
(4.80484 0.0377221 4.95712e-20)
(4.70293 0.0373452 0)
(4.59992 0.0361315 5.04795e-20)
(4.49815 0.03424 0)
(4.39951 0.0319033 0)
(4.30533 0.0293292 5.2307e-20)
(4.21672 0.0266341 0)
(4.13436 0.0239178 5.36543e-20)
(4.05867 0.021343 0)
(3.98944 0.019028 0)
(3.92646 0.0170691 5.56399e-20)
(3.86882 0.0155619 0)
(3.81568 0.0145893 5.68512e-20)
(3.76559 0.0142334 0)
(3.71711 0.0145345 0)
(3.66844 0.0152878 0)
(3.61835 0.0166967 -5.88502e-20)
(3.56432 0.0192265 0)
(3.50347 0.0227357 5.96127e-20)
(3.43379 0.0266733 0)
(3.35282 0.0291667 0)
(3.26656 0.0285976 0)
(3.17789 0.0235026 0)
(3.10362 0.0178642 0)
(3.02803 0.00997442 0)
(2.9842 0.0097654 0)
(2.89956 0.00427352 -1.23985e-19)
(2.8771 0.0261581 0)
(2.6702 0.024187 0)
(-0.0239219 0.32354 3.64604e-20)
(-0.103381 0.323992 -3.62402e-20)
(-0.146601 0.197934 0)
(-0.122543 -0.00453035 2.38654e-20)
(-0.0237905 -0.230639 0)
(0.135317 -0.414903 1.11782e-20)
(0.32443 -0.531665 -2.20847e-20)
(0.522703 -0.582416 -2.15324e-20)
(0.714749 -0.581474 0)
(0.891542 -0.545271 -2.07931e-20)
(1.0471 -0.486834 -1.0004e-20)
(1.17768 -0.418019 0)
(1.28378 -0.345878 0)
(1.36687 -0.273396 0)
(1.4275 -0.203388 0)
(1.46714 -0.137769 -1.00186e-20)
(1.48766 -0.0776023 0)
(1.49079 -0.0233173 2.04101e-20)
(1.47887 0.0248356 0)
(1.45461 0.0670022 0)
(1.41955 0.103643 -2.01671e-20)
(1.37527 0.13518 0)
(1.3231 0.162068 1.99754e-20)
(1.26425 0.18455 -9.87071e-21)
(1.19974 0.202697 9.82853e-21)
(1.13048 0.21614 -9.78537e-21)
(1.05755 0.224006 -9.74307e-21)
(0.982499 0.225176 0)
(0.907048 0.218492 0)
(0.833372 0.202466 9.63137e-21)
(0.76401 0.176405 -9.55554e-21)
(0.70185 0.140256 0)
(0.649745 0.0962795 0)
(0.610847 0.0485002 9.47092e-21)
(0.589427 -0.000154878 0)
(0.58884 -0.0520167 0)
(0.596167 -0.0934236 -9.19147e-21)
(0.606041 -0.0995657 0)
(0.580463 -0.131554 8.97669e-21)
(0.417193 -0.190537 -1.81365e-20)
(0.174008 0.0173669 0)
(-0.381939 0.486971 0)
(-1.10666 0.854205 -3.54138e-20)
(-1.66256 1.0848 -3.5219e-20)
(-2.16766 1.21086 -3.48242e-20)
(-2.6139 1.1973 1.91623e-20)
(-3.0228 1.1376 -1.63756e-20)
(-3.39063 1.04779 -5.53701e-20)
(-3.72093 0.949303 4.03822e-20)
(-4.01572 0.849871 1.99418e-20)
(-4.27915 0.756426 0)
(-4.51518 0.671434 -2.29666e-20)
(-4.72759 0.59618 2.63304e-20)
(-4.91963 0.530452 0)
(-5.09409 0.473569 0)
(-5.25327 0.424481 0)
(-5.39907 0.382112 -2.92056e-20)
(-5.53306 0.345401 0)
(-5.65655 0.313411 6.24226e-20)
(-5.77059 0.285316 0)
(-5.87606 0.26043 6.49317e-20)
(-5.97367 0.23817 0)
(-6.06401 0.218061 -6.68462e-20)
(-6.14757 0.199706 0)
(-6.22471 0.18278 6.82317e-20)
(-6.29574 0.167005 -3.44387e-20)
(-6.36087 0.152163 0)
(-6.42029 0.138068 -6.94174e-20)
(-6.47412 0.124569 -3.47403e-20)
(-6.52243 0.111548 -3.47725e-20)
(-6.56528 0.0989065 0)
(-6.6027 0.0865701 -3.47948e-20)
(-6.63471 0.0744802 -3.45457e-20)
(-6.6613 0.0625946 0)
(-6.68249 0.0508856 3.41336e-20)
(-6.69829 0.0393405 -6.78706e-20)
(-6.70871 0.0279807 0)
(-6.71381 0.0168451 -3.31425e-20)
(-6.71371 0.0059186 0)
(-6.70819 -0.00494354 9.68915e-20)
(-6.69604 -0.0156316 0)
(-6.67783 -0.0262431 -9.35045e-20)
(-6.65319 -0.0367481 -3.04255e-20)
(-6.62211 -0.0472049 3.00274e-20)
(-6.58446 -0.0575962 5.8572e-20)
(-6.54015 -0.0679396 -5.69793e-20)
(-6.48908 -0.0782345 0)
(-6.43119 -0.0884536 0)
(-6.36641 -0.0985862 0)
(-6.29468 -0.108662 1.46903e-19)
(-6.21591 -0.118692 4.65207e-20)
(-6.13002 -0.128698 -4.42645e-20)
(-6.03691 -0.138693 0)
(-5.93647 -0.148683 -4.05105e-20)
(-5.82859 -0.158678 3.6931e-20)
(-5.71315 -0.168694 3.43079e-20)
(-5.59002 -0.178744 0)
(-5.45905 -0.188838 0)
(-5.32008 -0.198977 0)
(-5.17296 -0.209146 2.30294e-20)
(-5.01754 -0.21934 0)
(-4.8537 -0.229529 -3.53556e-20)
(-4.68131 -0.239732 -4.31342e-20)
(-4.50025 -0.249967 2.30123e-20)
(-4.31036 -0.260196 0)
(-4.11153 -0.270385 5.96996e-21)
(-3.90367 -0.280484 0)
(-3.68674 -0.290441 -2.13425e-21)
(-3.46072 -0.300204 3.41239e-21)
(-3.22561 -0.309739 6.48983e-21)
(-2.98139 -0.319067 0)
(-2.72796 -0.328298 4.06541e-20)
(-2.46514 -0.337539 -3.23508e-20)
(-2.19305 -0.346691 -1.97742e-20)
(-1.91286 -0.354664 0)
(-1.62419 -0.36194 -2.50375e-20)
(-1.32714 -0.368885 -8.07585e-20)
(-1.02206 -0.375359 0)
(-0.709135 -0.381317 -6.2051e-20)
(-0.388789 -0.38666 -6.59091e-20)
(-0.0614723 -0.391286 -6.92811e-20)
(0.272272 -0.395015 0)
(0.611777 -0.397528 0)
(0.956165 -0.398548 0)
(1.30434 -0.397831 3.75063e-20)
(1.65487 -0.39499 3.93132e-20)
(2.00639 -0.389613 0)
(2.35711 -0.381311 7.69407e-20)
(2.70439 -0.370771 7.6176e-20)
(3.04499 -0.358424 0)
(3.37636 -0.343921 7.47714e-20)
(3.69602 -0.327165 1.43491e-19)
(3.9997 -0.306732 -7.08589e-20)
(4.28557 -0.28329 -6.66165e-20)
(4.55147 -0.257592 0)
(4.79601 -0.230763 0)
(5.01797 -0.203547 0)
(5.21625 -0.176103 -5.92555e-20)
(5.39 -0.148808 5.591e-20)
(5.53903 -0.122091 1.09123e-19)
(5.66329 -0.0961378 -5.32561e-20)
(5.76337 -0.0712071 5.08977e-20)
(5.84038 -0.0477947 5.02918e-20)
(5.8942 -0.0255722 0)
(5.92837 -0.00462496 0)
(5.94481 0.0146631 -4.71816e-20)
(5.9442 0.0318628 0)
(5.92735 0.0466491 0)
(5.89553 0.0588807 9.34124e-20)
(5.85032 0.0684965 0)
(5.79354 0.0755254 4.70226e-20)
(5.72713 0.0800876 -4.74907e-20)
(5.65316 0.0823451 0)
(5.57379 0.0825701 4.84666e-20)
(5.49097 0.0810487 0)
(5.40662 0.0780576 0)
(5.32257 0.0739387 -5.0358e-20)
(5.24042 0.0690383 1.0217e-19)
(5.1614 0.0636692 -5.17362e-20)
(5.08644 0.0581199 0)
(5.01629 0.0526662 0)
(4.95132 0.0475782 5.38505e-20)
(4.89171 0.0430842 0)
(4.83729 0.0393549 5.50728e-20)
(4.7878 0.0365832 0)
(4.74261 0.0349237 0)
(4.70114 0.0344165 0)
(4.66204 0.0351014 5.70533e-20)
(4.62484 0.0372487 0)
(4.58809 0.0409379 -5.78515e-20)
(4.55178 0.0460162 0)
(4.51267 0.0507742 0)
(4.47321 0.0537942 1.17476e-19)
(4.42597 0.052814 -1.17968e-19)
(4.37891 0.050566 0)
(4.31474 0.0448674 0)
(4.26089 0.0469389 0)
(4.16454 0.0444726 3.62082e-19)
(4.11056 0.0757971 0)
(3.9408 0.0886707 -2.45764e-19)
(0.0157907 0.380805 5.58618e-23)
(0.00949198 0.366527 4.86857e-20)
(0.0279902 0.149831 0)
(0.153819 -0.218558 -4.78455e-20)
(0.346203 -0.584054 0)
(0.554405 -0.836561 0)
(0.752057 -0.960262 -5.29621e-22)
(0.927228 -0.982166 2.08751e-20)
(1.07755 -0.934946 2.11325e-20)
(1.20265 -0.846329 2.00465e-20)
(1.30474 -0.736169 0)
(1.38668 -0.61672 0)
(1.45001 -0.496777 -2.04554e-20)
(1.49539 -0.380995 -4.0809e-20)
(1.52389 -0.271875 4.07081e-20)
(1.53652 -0.171057 0)
(1.53432 -0.079765 4.03909e-20)
(1.51846 0.001431 -1.95917e-20)
(1.49027 0.0723252 0)
(1.45142 0.133295 3.93756e-20)
(1.40367 0.185127 1.91658e-20)
(1.34884 0.228825 -3.85569e-20)
(1.28858 0.265409 -1.88605e-20)
(1.22408 0.295641 0)
(1.15633 0.319812 3.75861e-20)
(1.0862 0.337545 3.73701e-20)
(1.01457 0.34792 0)
(0.942387 0.349488 3.70931e-20)
(0.870675 0.340634 0)
(0.800398 0.319439 3.6934e-20)
(0.733173 0.284648 1.84731e-20)
(0.671352 0.235296 0)
(0.617695 0.171031 0)
(0.57633 0.0938404 0)
(0.547342 0.0116151 0)
(0.516501 -0.0576074 0)
(0.430438 -0.0918722 0)
(0.255001 -0.0153273 3.57698e-20)
(-0.0737984 0.275365 -5.355e-20)
(-0.65517 0.723854 0)
(-1.25075 1.13777 0)
(-1.80576 1.45657 0)
(-2.29635 1.63942 -1.77231e-21)
(-2.6759 1.73424 3.33109e-20)
(-2.98285 1.74935 6.94696e-20)
(-3.22671 1.68263 -7.07071e-20)
(-3.4411 1.57454 -3.85821e-20)
(-3.63223 1.44151 3.59709e-20)
(-3.81179 1.30403 3.79979e-21)
(-3.98136 1.17046 4.35198e-20)
(-4.14391 1.04704 0)
(-4.29957 0.935737 4.70505e-20)
(-4.4487 0.837247 2.0627e-21)
(-4.59115 0.750877 0)
(-4.72684 0.67554 0)
(-4.85576 0.609865 -5.32259e-20)
(-4.97791 0.5525 0)
(-5.09342 0.502166 0)
(-5.20242 0.457725 5.73674e-20)
(-5.3051 0.418192 1.15373e-19)
(-5.40166 0.382736 -5.81014e-20)
(-5.49229 0.350661 0)
(-5.57718 0.321386 5.96298e-20)
(-5.65651 0.294417 0)
(-5.73039 0.269318 6.11945e-20)
(-5.79895 0.245741 6.11309e-20)
(-5.86225 0.223406 -1.23255e-19)
(-5.92036 0.202073 -6.20114e-20)
(-5.97328 0.181546 0)
(-6.02101 0.161666 1.23964e-19)
(-6.06353 0.142306 0)
(-6.10078 0.123371 1.85213e-19)
(-6.13271 0.104787 1.23161e-19)
(-6.15924 0.0865074 1.22556e-19)
(-6.18031 0.0685106 -1.21782e-19)
(-6.19585 0.0507712 1.81038e-19)
(-6.20578 0.0332391 0)
(-6.20996 0.0158499 0)
(-6.20841 -0.00143776 -1.16926e-19)
(-6.20095 -0.0185698 -1.7257e-19)
(-6.18736 -0.0357035 0)
(-6.16765 -0.0527693 5.53328e-20)
(-6.14171 -0.069778 0)
(-6.10947 -0.0867223 -1.59553e-19)
(-6.07083 -0.103605 7.24691e-22)
(-6.02569 -0.120425 -7.5902e-22)
(-5.97392 -0.137177 9.81589e-20)
(-5.91542 -0.153836 0)
(-5.85012 -0.170358 -9.15956e-20)
(-5.77795 -0.186776 8.86542e-22)
(-5.69883 -0.20314 0)
(-5.61265 -0.219466 0)
(-5.51933 -0.235762 0)
(-5.41875 -0.252038 7.10872e-20)
(-5.31082 -0.268303 0)
(-5.19545 -0.284569 0)
(-5.07252 -0.300846 0)
(-4.94195 -0.317124 0)
(-4.80359 -0.33341 0)
(-4.65733 -0.349656 4.34451e-20)
(-4.50306 -0.365766 0)
(-4.34061 -0.381822 3.16277e-20)
(-4.16967 -0.397982 2.61786e-20)
(-3.99009 -0.414194 -2.06491e-20)
(-3.8017 -0.430381 0)
(-3.6044 -0.446476 -9.41371e-21)
(-3.39808 -0.462407 0)
(-3.18268 -0.478092 1.92809e-21)
(-2.95816 -0.493445 -7.58343e-21)
(-2.72452 -0.508385 -3.69985e-20)
(-2.48177 -0.52285 0)
(-2.22995 -0.536857 -6.99633e-20)
(-1.96911 -0.550562 -2.68964e-20)
(-1.69975 -0.564252 0)
(-1.42197 -0.577327 -7.67693e-20)
(-1.13562 -0.589233 -8.64659e-20)
(-0.841253 -0.600321 1.44913e-19)
(-0.539378 -0.610576 0)
(-0.230355 -0.619924 5.76584e-20)
(0.0853674 -0.628243 6.12382e-20)
(0.407358 -0.635401 1.89905e-19)
(0.735004 -0.641159 0)
(1.06765 -0.645287 0)
(1.40446 -0.647363 0)
(1.74439 -0.646797 6.90699e-20)
(2.0862 -0.642982 0)
(2.42843 -0.635538 0)
(2.76923 -0.624682 -7.25311e-20)
(3.1057 -0.610242 -7.18968e-20)
(3.43495 -0.591295 0)
(3.75484 -0.567089 0)
(4.06177 -0.538233 -1.35468e-19)
(4.35335 -0.505393 0)
(4.62867 -0.468703 1.27833e-19)
(4.88581 -0.429116 1.21894e-19)
(5.12344 -0.387844 0)
(5.33901 -0.344869 0)
(5.53108 -0.300419 -1.09444e-19)
(5.69991 -0.256038 -1.29298e-21)
(5.84541 -0.212636 -1.17045e-21)
(5.9677 -0.170655 0)
(6.06726 -0.130628 -1.93715e-19)
(6.14504 -0.0927691 0)
(6.20171 -0.05729 0)
(6.23863 -0.0243378 0)
(6.25744 0.00589943 9.02991e-20)
(6.25946 0.03305 0)
(6.24607 0.0568513 -1.77532e-19)
(6.21872 0.0771381 -8.92198e-20)
(6.17893 0.093789 0)
(6.1283 0.106762 -9.01305e-20)
(6.06854 0.116122 0)
(6.00138 0.122033 0)
(5.9286 0.124748 -2.79124e-19)
(5.85198 0.124584 1.8863e-19)
(5.77319 0.121957 0)
(5.69384 0.117324 1.94264e-19)
(5.61536 0.111125 -9.8528e-20)
(5.53899 0.103813 0)
(5.46574 0.0958505 0)
(5.39643 0.0876685 0)
(5.33159 0.0796696 -3.12509e-19)
(5.2716 0.072222 0)
(5.21654 0.0656095 -1.06619e-19)
(5.16645 0.0601266 0)
(5.12096 0.0559962 0)
(5.07994 0.0533311 0)
(5.04258 0.0522271 0)
(5.00879 0.0530011 0)
(4.97751 0.0555605 0)
(4.94937 0.0597934 -2.26475e-19)
(4.92219 0.0640315 0)
(4.8974 0.0674528 -1.1448e-19)
(4.86755 0.0675121 3.45123e-19)
(4.8373 0.0680153 0)
(4.79124 0.065648 0)
(4.74943 0.0732169 -2.33902e-19)
(4.67336 0.0775217 -2.35881e-19)
(4.62403 0.114778 2.37159e-19)
(4.50362 0.143208 2.40561e-19)
(0.0446897 0.293608 -7.29278e-20)
(0.088857 0.315062 -7.24929e-20)
(0.264602 -0.0703191 -4.77618e-20)
(0.534375 -0.612346 -2.33607e-20)
(0.785662 -1.02993 0)
(0.981377 -1.2488 4.48093e-20)
(1.12521 -1.30336 -2.25452e-20)
(1.22987 -1.25202 0)
(1.30688 -1.14268 -2.02913e-20)
(1.36527 -1.00533 0)
(1.41084 -0.857158 4.14156e-20)
(1.44617 -0.707277 0)
(1.47207 -0.560413 1.95886e-20)
(1.48836 -0.41915 3.9151e-20)
(1.49456 -0.285353 -3.9143e-20)
(1.49023 -0.160706 0)
(1.47526 -0.0466316 -3.90438e-20)
(1.44966 0.0556561 0)
(1.41388 0.145342 0)
(1.36888 0.222216 -3.81181e-20)
(1.31589 0.286706 0)
(1.25634 0.3398 -7.05419e-22)
(1.19175 0.382915 0)
(1.12339 0.417498 0)
(1.05225 0.444429 4.43415e-22)
(0.979123 0.463164 -3.56622e-20)
(0.905101 0.472559 -3.57664e-20)
(0.8313 0.471894 -3.53709e-20)
(0.758495 0.459635 0)
(0.687274 0.433059 -7.07881e-20)
(0.619062 0.389293 0)
(0.555792 0.327253 -3.52676e-20)
(0.498099 0.248492 0)
(0.439207 0.162486 0)
(0.351572 0.0987283 3.51308e-20)
(0.189648 0.132817 0)
(-0.110561 0.349776 -3.50643e-20)
(-0.5762 0.747972 -6.57427e-23)
(-1.11401 1.21587 6.85886e-20)
(-1.65081 1.6189 -6.89413e-20)
(-2.10826 1.9005 0)
(-2.47025 2.06244 0)
(-2.74423 2.11963 -3.87436e-20)
(-2.95131 2.1078 0)
(-3.11206 2.03938 -3.45675e-20)
(-3.244 1.92774 3.52864e-20)
(-3.36384 1.79349 3.6243e-20)
(-3.478 1.6484 0)
(-3.59287 1.50395 -3.87553e-20)
(-3.70938 1.3658 -4.01995e-20)
(-3.82795 1.23784 8.8302e-20)
(-3.94746 1.12141 -4.3182e-20)
(-4.06675 1.01684 -4.46378e-20)
(-4.1846 0.923549 0)
(-4.29995 0.840605 0)
(-4.41199 0.766877 4.85877e-20)
(-4.52009 0.701211 0)
(-4.62383 0.642503 0)
(-4.72293 0.589744 -1.03482e-19)
(-4.81721 0.542038 -1.05216e-19)
(-4.9066 0.498605 0)
(-4.99106 0.458776 0)
(-5.07061 0.421969 0)
(-5.14527 0.387671 0)
(-5.21509 0.35543 -1.11305e-19)
(-5.28005 0.324867 1.12664e-19)
(-5.34016 0.295672 1.12616e-19)
(-5.39539 0.267596 2.26643e-19)
(-5.44571 0.240405 0)
(-5.49108 0.213897 5.30577e-22)
(-5.53142 0.187933 0)
(-5.56665 0.162402 -1.13231e-19)
(-5.59669 0.137218 5.33905e-22)
(-5.62141 0.112334 -1.12408e-19)
(-5.64072 0.0877471 1.11761e-19)