/*--------------------------------*- C++ -*----------------------------------*\
| =========                 |                                                 |
| \\      /  F ield         | OpenFOAM: The Open Source CFD Toolbox           |
|  \\    /   O peration     | Version:  2112                                  |
|   \\  /    A nd           | Website:  www.openfoam.com                      |
|    \\/     M anipulation  |                                                 |
\*---------------------------------------------------------------------------*/
FoamFile
{
    version     2.0;
    format      ascii;
    arch        "LSB;label=32;scalar=64";
    class       volScalarField;
    location    "0.13";
    object      k;
}
// * * * * * * * * * * * * * * * * * * * * * * * * * * * * * * * * * * * * * //

dimensions      [0 2 -2 0 0 0 0];

internalField   nonuniform List<scalar> 
12225
(
1.33303
2.074
2.63674
3.12371
3.60051
4.10172
4.646
5.2455
5.90977
6.64657
7.46157
8.35802
9.3364
10.3943
11.5265
12.7266
13.9824
15.2018
0.413448
0.479068
0.553503
0.635984
0.726958
0.827782
0.939915
1.06377
1.19841
1.34184
1.49138
1.64423
1.79804
1.95169
2.10618
2.26632
2.45324
2.73792
0.377479
0.384998
0.395375
0.406354
0.415275
0.42295
0.430375
0.438371
0.447405
0.457647
0.469094
0.481736
0.495706
0.511379
0.529478
0.551355
0.579335
0.615173
0.374954
0.375492
0.376885
0.379034
0.381723
0.384707
0.38773
0.39058
0.393084
0.394755
0.395442
0.395261
0.394378
0.392993
0.391337
0.389692
0.388427
0.387897
0.374743
0.374598
0.374675
0.374955
0.375428
0.376093
0.376922
0.377873
0.378895
0.379913
0.380857
0.381677
0.382345
0.382843
0.383169
0.383267
0.383174
0.382961
0.374632
0.374343
0.374154
0.374065
0.37412
0.37431
0.374585
0.374934
0.375344
0.375797
0.376274
0.376759
0.37724
0.377712
0.378176
0.378638
0.379118
0.379645
0.374535
0.374139
0.373845
0.373661
0.373612
0.373693
0.373844
0.374047
0.374295
0.374577
0.374887
0.375217
0.375565
0.375933
0.376326
0.376757
0.377246
0.377812
0.374467
0.374001
0.373633
0.373372
0.373243
0.373245
0.373347
0.373498
0.373692
0.373922
0.37418
0.374462
0.374767
0.3751
0.375467
0.375883
0.376366
0.376932
0.374418
0.373905
0.373484
0.373165
0.372964
0.37289
0.372925
0.373039
0.373195
0.37339
0.373618
0.373876
0.374164
0.374485
0.374847
0.375263
0.375747
0.376316
0.374384
0.373833
0.373372
0.373006
0.372749
0.372607
0.372577
0.372639
0.372766
0.372932
0.373134
0.373371
0.373644
0.373957
0.374315
0.374731
0.375218
0.375787
0.374358
0.373778
0.373284
0.372881
0.372576
0.372378
0.372286
0.372291
0.372379
0.372521
0.372701
0.372919
0.373177
0.373479
0.373831
0.374243
0.374726
0.375288
0.374341
0.37374
0.37322
0.372787
0.372446
0.372203
0.37206
0.372013
0.372055
0.372173
0.372333
0.372534
0.372778
0.373068
0.37341
0.373812
0.374282
0.374827
0.374328
0.37371
0.373168
0.37271
0.372338
0.372056
0.371867
0.371772
0.371767
0.371847
0.37199
0.372174
0.372402
0.372677
0.373006
0.373393
0.373845
0.374367
0.374317
0.373684
0.373123
0.372639
0.372236
0.371916
0.371683
0.371537
0.371479
0.371508
0.371621
0.371783
0.37199
0.372245
0.372553
0.372916
0.373341
0.373829
0.374309
0.373664
0.373086
0.372579
0.372146
0.371789
0.371512
0.371314
0.371199
0.371169
0.371227
0.37136
0.371538
0.371764
0.37204
0.372369
0.372754
0.373196
0.374304
0.373651
0.373058
0.372531
0.372071
0.37168
0.371359
0.371111
0.370937
0.370841
0.370827
0.3709
0.371039
0.371224
0.371456
0.371736
0.372067
0.372448
0.374303
0.373646
0.373043
0.372499
0.372016
0.371593
0.371233
0.370934
0.370701
0.370534
0.370438
0.37042
0.370485
0.370614
0.370787
0.371004
0.371266
0.371571
0.374305
0.373648
0.373041
0.372486
0.371984
0.371534
0.371135
0.370788
0.370494
0.370253
0.370069
0.369947
0.369892
0.36991
0.370004
0.370141
0.370319
0.370536
0.374311
0.373659
0.373053
0.372492
0.371976
0.371502
0.371069
0.370676
0.370321
0.370006
0.369732
0.369501
0.36932
0.369192
0.369126
0.369129
0.369204
0.369325
0.374321
0.373677
0.373074
0.372512
0.371987
0.371497
0.371039
0.37061
0.370209
0.369835
0.369489
0.369174
0.368893
0.368652
0.368456
0.368313
0.368232
0.368219
0.374331
0.373696
0.373098
0.372536
0.372006
0.371505
0.371029
0.370576
0.370144
0.369731
0.369338
0.368967
0.368622
0.368308
0.36803
0.367798
0.367619
0.367501
0.374343
0.373718
0.373126
0.372564
0.37203
0.371521
0.371032
0.370561
0.370106
0.369664
0.369237
0.368827
0.368436
0.36807
0.367736
0.367441
0.367195
0.367007
0.374359
0.373746
0.373159
0.372598
0.372061
0.371545
0.371047
0.370564
0.370093
0.369632
0.369183
0.368746
0.368326
0.367927
0.367557
0.367224
0.366937
0.366705
0.374381
0.373781
0.373201
0.37264
0.372101
0.371584
0.371084
0.370598
0.370123
0.369659
0.369205
0.368764
0.368338
0.367934
0.36756
0.367222
0.366932
0.366698
0.374414
0.373834
0.373266
0.372714
0.372185
0.371679
0.371197
0.370737
0.370297
0.369879
0.369483
0.369112
0.36877
0.368461
0.368191
0.367964
0.367787
0.367665
0.374462
0.373916
0.373396
0.372917
0.372497
0.372143
0.371855
0.371637
0.371492
0.371425
0.371439
0.371536
0.371715
0.37197
0.372281
0.372633
0.373013
0.373399
0.374528
0.374064
0.373876
0.374076
0.374702
0.375624
0.376771
0.378086
0.379523
0.38104
0.382601
0.384176
0.38574
0.387224
0.388442
0.38941
0.390157
0.390732
0.375461
0.377927
0.381876
0.386881
0.392616
0.398335
0.40302
0.407079
0.411004
0.415267
0.42027
0.426318
0.433613
0.442266
0.452319
0.463767
0.476582
0.490807
0.389756
0.418514
0.454109
0.495161
0.540745
0.590832
0.646088
0.707233
0.774804
0.848988
0.929868
1.01733
1.11102
1.21039
1.31474
1.42325
1.5351
1.64948
1.01858
1.54925
1.96103
2.3063
2.62198
2.92822
3.23527
3.54839
3.86936
4.19625
4.53416
4.88611
5.2539
5.63858
6.04067
6.46035
6.89704
7.35025
1.04333
1.14087
1.32747
1.56049
1.8073
2.05979
2.29691
2.52084
2.74281
2.96398
3.18392
3.40167
3.61639
3.82741
4.03399
4.23512
4.42958
4.61623
4.79415
4.96288
5.12279
5.27513
5.42207
5.56669
5.71327
5.86688
6.03288
6.21674
6.42382
6.65926
6.92796
7.23454
7.58349
7.9794
8.42625
8.92207
9.44477
9.93165
10.2759
10.4585
10.4677
10.2663
9.81699
9.09976
8.11555
6.88965
5.49963
4.08938
2.90582
2.08204
1.57963
1.30469
1.17873
1.14817
1.17276
1.22351
1.29004
1.37758
1.49305
1.63775
1.80827
2.00211
2.22144
2.47129
2.74973
3.029
3.23352
3.3302
3.38587
3.52141
3.86725
4.47534
5.52157
7.5822
11.114
15.7808
19.7768
23.2553
26.0969
28.2141
29.603
30.3119
30.406
29.9377
29.167
28.2113
27.1023
25.8601
24.4993
23.1139
21.7477
20.4009
19.0778
17.7837
16.5238
15.3026
14.1234
12.9912
11.9095
10.8809
9.90744
8.99026
8.12952
7.32411
6.5712
5.86575
5.20136
4.58021
4.03473
3.68983
3.55126
3.65659
3.89098
4.23805
4.69265
5.22799
5.82506
6.47388
7.17045
7.91465
8.70896
9.55778
10.467
11.4424
12.4889
13.6155
14.8301
16.1409
17.5563
19.0866
20.743
22.5382
24.4872
26.6108
28.8885
31.2429
33.6618
36.1332
38.6361
41.1332
43.5723
45.8897
48.015
49.8743
51.3908
52.4836
53.0636
53.0331
52.2911
50.7491
48.3531
45.1088
41.1106
36.5557
31.7282
26.9577
22.5601
18.7785
15.7435
13.4663
11.8608
10.7833
10.1275
9.83236
9.73905
9.60588
9.09823
8.13216
7.04347
6.30797
6.73612
8.69309
11.0672
13.0352
13.9322
13.744
12.9733
11.7976
10.575
9.53667
1.34822
1.45577
1.69622
1.9095
2.0682
2.18131
2.25674
2.30198
2.3229
2.32424
2.31045
2.28625
2.25656
2.2259
2.19772
2.17411
2.15597
2.14351
2.13662
2.13507
2.13857
2.14666
2.15845
2.17323
2.1905
2.20981
2.23054
2.25169
2.27179
2.28902
2.30138
2.30709
2.30522
2.29684
2.28744
2.29133
2.33883
2.48472
2.79891
3.23593
3.71444
4.16697
4.55632
4.85321
5.03701
5.09813
5.03854
4.85485
4.5217
4.02219
3.38422
2.6802
2.01027
1.46369
1.08191
0.862967
0.782472
0.793449
0.863311
0.968144
1.07441
1.15203
1.18005
1.15204
1.08267
1.02043
1.07014
1.3483
1.96719
3.11529
4.98553
7.57189
10.4744
12.8629
14.1538
14.8014
14.8029
14.3178
13.4781
12.4204
11.2711
10.1345
9.08862
8.1898
7.47791
6.96344
6.63968
6.4937
6.51137
6.57921
6.64139
6.69459
6.73564
6.76169
6.77057
6.76143
6.73497
6.69088
6.62878
6.54815
6.4488
6.331
6.19554
6.04602
5.88569
5.71934
5.54913
5.3824
5.22217
5.05033
4.91404
4.79302
4.68953
4.60107
4.5276
4.46669
4.41605
4.37437
4.34085
4.31502
4.29666
4.28595
4.28325
4.28743
4.2933
4.29564
4.29372
4.28988
4.2876
4.29072
4.30325
4.32969
4.37541
4.44774
4.58787
4.85592
5.25282
5.76659
6.38593
7.09969
7.89547
8.7567
9.6616
10.5843
11.4972
12.3717
13.1772
13.8752
14.4135
14.7257
14.7359
14.3889
13.6704
12.6186
11.3208
9.89103
8.439
7.04491
5.75509
4.60074
3.62917
2.91577
2.53301
2.39699
2.43681
2.63377
3.00871
3.51741
4.10032
4.81039
5.59951
6.07411
5.9634
5.43817
4.70424
4.03772
3.62835
3.57169
3.68769
3.82828
2.03855
2.16701
2.28519
2.34001
2.34942
2.32558
2.28072
2.22436
2.16291
2.10062
2.04079
1.98638
1.94023
1.90496
1.88265
1.87483
1.88247
1.90572
1.94516
2.00012
2.06885
2.14728
2.22521
2.30494
2.38637
2.46911
2.55173
2.63123
2.70343
2.76362
2.80729
2.8309
2.83229
2.81102
2.76835
2.70735
2.6331
2.55301
2.47784
2.42409
2.42512
2.50909
2.66232
2.855
3.0601
3.25898
3.44209
3.60323
3.72749
3.78664
3.74348
3.55778
3.20372
2.70313
2.13939
1.62317
1.24542
1.06128
1.02848
1.09513
1.21794
1.35077
1.44222
1.4609
1.43315
1.46445
1.77442
2.56536
4.01139
6.20096
8.90372
11.3
12.3372
12.4568
12.0117
11.2405
10.2899
9.29952
8.37673
7.59767
6.9996
6.58283
6.32333
6.18566
6.13341
6.13489
6.16563
6.20814
6.26103
6.32064
6.38271
6.44309
6.49804
6.54449
6.58028
6.60429
6.61617
6.61457
6.6083
6.5994
6.58758
6.57155
6.54895
6.51639
6.47256
6.4176
6.33833
6.23712
6.13201
6.01782
5.89747
5.77185
5.64162
5.50961
5.37786
5.24524
5.11298
4.98323
4.85711
4.73524
4.61795
4.50555
4.3983
4.29643
4.19988
4.10837
4.02151
3.93905
3.86091
3.7872
3.71839
3.65527
3.59887
3.55021
3.51009
3.48776
3.49026
3.52481
3.59762
3.71381
3.87655
4.08701
4.34385
4.64314
4.97884
5.34349
5.72855
6.12263
6.50662
6.84841
7.10379
7.22667
7.18143
6.95315
6.55192
6.00846
5.36421
4.66225
3.94474
3.25683
2.64984
2.17435
1.8685
1.72893
1.7448
1.92626
2.31294
2.9345
3.72625
4.49709
4.87966
4.62124
4.06489
3.50043
3.10757
2.94672
2.97136
3.09668
3.22588
3.31802
3.22841
2.91384
2.7327
2.58699
2.45481
2.33111
2.21754
2.11666
2.03
1.95847
1.90316
1.8657
1.84836
1.85411
1.88496
1.94477
2.02869
2.11942
2.21873
2.32602
2.43996
2.56231
2.69632
2.84663
3.01813
3.19971
3.37576
3.53494
3.66756
3.7666
3.82758
3.84838
3.82844
3.77039
3.67846
3.55693
3.41206
3.25232
3.08652
2.92387
2.77457
2.64928
2.56021
2.51747
2.51391
2.54828
2.61297
2.7045
2.82005
2.95215
3.08341
3.18078
3.19478
3.07428
2.79996
2.41288
1.99729
1.64358
1.44738
1.40598
1.48807
1.6538
1.84516
2.00452
2.1591
2.51602
3.36553
4.82106
6.90882
9.31094
11.0856
11.5283
11.1427
10.3616
9.43699
8.50928
7.6651
6.96248
6.42603
6.04647
5.79122
5.62265
5.51115
5.4384
5.39497
5.3766
5.38115
5.40582
5.44858
5.50098
5.55631
5.60814
5.65075
5.67958
5.69164
5.68631
5.66481
5.63922
5.61421
5.59484
5.58601
5.5915
5.61262
5.64586
5.68537
5.72863
5.76313
5.78517
5.79114
5.77947
5.7493
5.69987
5.63192
5.54764
5.44946
5.33969
5.22069
5.09484
4.96446
4.83169
4.69848
4.5666
4.43761
4.31281
4.19321
4.0795
3.97096
3.86778
3.7698
3.67662
3.58782
3.50294
3.42154
3.34324
3.2689
3.19989
3.13667
3.08158
3.03823
3.01085
3.00373
3.02117
3.06721
3.14536
3.25836
3.40812
3.59518
3.81774
4.06946
4.3367
4.59629
4.81661
4.96336
5.00727
4.93078
4.73124
4.42028
4.02121
3.56631
3.0943
2.64568
2.255
1.95072
1.76738
1.73364
1.87933
2.24738
2.86057
3.62954
4.25353
4.32597
3.85129
3.35602
3.02646
2.89807
2.91695
3.00689
3.11317
3.19667
3.2316
4.45539
3.38258
2.8739
2.58655
2.3963
2.2557
2.14839
2.06837
2.0127
1.98028
1.97161
1.989
2.03697
2.1268
2.23763
2.36638
2.51123
2.67438
2.85926
3.06736
3.29859
3.55116
3.81989
4.0955
4.36495
4.62303
4.84283
5.00733
5.11653
5.17373
5.18353
5.15045
5.07823
4.96941
4.82547
4.6469
4.43363
4.19173
3.93882
3.67664
3.41859
3.17578
2.95854
2.77538
2.63232
2.53286
2.47126
2.43708
2.43333
2.46286
2.52715
2.61989
2.71879
2.78252
2.76259
2.63116
2.4054
2.13605
1.90096
1.79397
1.84474
2.05977
2.40591
2.80763
3.29418
4.15294
5.46982
7.29248
9.31389
10.6497
10.8125
10.2429
9.3631
8.43903
7.59087
6.86738
6.28927
5.85355
5.53398
5.29459
5.10688
4.95693
4.84186
4.7633
4.72259
4.71863
4.7477
4.80418
4.87621
4.95476
5.03169
5.09869
5.14747
5.17006
5.15892
5.1193
5.05592
4.97097
4.86928
4.75883
4.65044
4.55642
4.4885
4.45476
4.45545
4.48088
4.52459
4.57987
4.63954
4.69686
4.7458
4.78109
4.79885
4.79695
4.77466
4.73237
4.67147
4.59415
4.50311
4.40135
4.29188
4.17768
4.06157
3.94611
3.83351
3.72563
3.62394
3.5295
3.44272
3.36219
3.28781
3.21928
3.15613
3.09774
3.04301
2.98926
2.93461
2.87945
2.82444
2.77079
2.72045
2.67615
2.6414
2.6204
2.61797
2.63949
2.69057
2.77646
2.90071
3.06302
3.25637
3.46517
3.66557
3.82855
3.92531
3.93322
3.84091
3.65109
3.38071
3.05812
2.71752
2.39286
2.11509
1.91832
1.85374
1.96863
2.30811
2.88348
3.57817
4.05209
3.96457
3.48615
3.1277
2.98663
2.98302
3.05055
3.13354
3.1954
3.223
3.20291
5.43991
3.49323
2.77779
2.48426
2.33497
2.24717
2.19883
2.18213
2.19402
2.23788
2.3187
2.44631
2.6148
2.81111
3.03465
3.29104
3.58157
3.90324
4.25012
4.61234
4.97653
5.32695
5.64688
5.92065
6.13548
6.28141
6.36947
6.39906
6.38335
6.33333
6.25691
6.15898
6.0418
5.90555
5.74875
5.56874
5.3621
5.12487
4.85269
4.54031
4.20835
3.88156
3.56743
3.27773
3.0212
2.80526
2.63404
2.50749
2.41797
2.35193
2.31416
2.3112
2.34525
2.40488
2.46134
2.47792
2.43192
2.33333
2.21351
2.1459
2.22594
2.53882
3.11667
3.87901
4.84171
6.06875
7.55921
9.19117
10.2632
10.2917
9.65883
8.76134
7.86457
7.08002
6.43406
5.92424
5.53365
5.23127
4.98484
4.7753
4.59916
4.4613
4.36722
4.31909
4.31491
4.34942
4.41532
4.50462
4.60822
4.71928
4.83037
4.93324
5.01844
5.07531
5.09125
5.07177
5.01338
4.91272
4.76933
4.58784
4.37911
4.15987
3.9503
3.77017
3.63954
3.54986
3.49508
3.47195
3.47528
3.49867
3.53512
3.57749
3.61912
3.65438
3.67881
3.68925
3.68393
3.66239
3.62536
3.5745
3.51209
3.44078
3.36337
3.28269
3.2014
3.1219
3.04623
2.97606
2.91221
2.85483
2.8042
2.76027
2.72271
2.69087
2.66384
2.63882
2.61449
2.58945
2.56238
2.53222
2.49836
2.46088
2.42073
2.37988
2.34144
2.30968
2.29009
2.28914
2.31387
2.37071
2.46357
2.59145
2.74635
2.91216
3.06573
3.18032
3.23129
3.20243
3.09098
2.90925
2.68204
2.44132
2.22178
2.06005
2.00061
2.10125
2.40818
2.93171
3.54059
3.90078
3.74891
3.34272
3.10231
3.06767
3.12893
3.20654
3.26056
3.2675
3.23749
3.18086
5.86733
3.34419
2.6673
2.48346
2.42481
2.42274
2.46451
2.54478
2.66617
2.85724
3.12928
3.44242
3.78442
4.1474
4.52575
4.92589
5.33879
5.74989
6.14133
6.4952
6.7955
7.02974
7.19016
7.27435
7.28552
7.23247
7.12763
7.00679
6.88178
6.75871
6.63983
6.52454
6.4102
6.29277
6.16735
6.02866
5.87149
5.69109
5.48277
5.23951
4.95252
4.61385
4.25128
3.90189
3.57048
3.26477
2.99416
2.76719
2.58534
2.44447
2.3305
2.24307
2.18915
2.17564
2.19984
2.24517
2.28864
2.3186
2.34755
2.40189
2.583
3.05667
3.94772
5.17252
6.57368
7.87978
9.14912
10.021
9.9944
9.33386
8.42826
7.54477
6.79591
6.19519
5.72461
5.35745
5.06026
4.80336
4.57319
4.37213
4.20935
4.09266
4.02503
4.00465
4.02641
4.0835
4.16849
4.27424
4.39465
4.52531
4.66142
4.79764
4.9271
5.03999
5.12166
5.16571
5.16786
5.11764
5.00571
4.82734
4.58614
4.29623
3.98146
3.67285
3.41357
3.19397
3.01317
2.87222
2.76916
2.69991
2.65909
2.64055
2.63794
2.64507
2.65641
2.66723
2.67372
2.67313
2.66385
2.64542
2.61818
2.58331
2.54282
2.49873
2.45303
2.40763
2.36429
2.3245
2.28947
2.26001
2.23664
2.21956
2.20868
2.20364
2.20382
2.20657
2.21154
2.21731
2.22228
2.22471
2.22287
2.21522
2.20066
2.17884
2.15038
2.11705
2.08196
2.04965
2.02607
2.01826
2.03346
2.07766
2.1536
2.25851
2.38248
2.50824
2.61341
2.67538
2.67787
2.61669
2.50211
2.35692
2.21276
2.1085
2.0893
2.20385
2.49868
2.97764
3.50916
3.79408
3.63735
3.31385
3.15348
3.16965
3.25744
3.33574
3.36141
3.32918
3.25143
3.15828
5.57334
3.19403
2.74637
2.68634
2.7324
2.84362
3.01295
3.28334
3.65286
4.05786
4.4827
4.92423
5.37702
5.83062
6.26587
6.65699
6.98886
7.26559
7.47604
7.61203
7.67016
7.65281
7.56785
7.42787
7.24889
7.04792
6.83819
6.66169
6.51969
6.40925
6.32528
6.2611
6.20896
6.16041
6.10692
6.04049
5.95466
5.84442
5.712
5.55529
5.36648
5.13491
4.84666
4.49797
4.14818
3.80692
3.47592
3.1692
2.89959
2.6708
2.47363
2.30985
2.18216
2.09367
2.05297
2.06391
2.12082
2.21545
2.35162
2.55062
2.87856
3.56647
4.8324
6.5563
8.12998
9.29823
10.0044
9.95246
9.26084
8.3193
7.41125
6.66169
6.07892
5.63015
5.27801
4.98425
4.71799
4.4673
4.2381
4.0435
3.89445
3.79597
3.74731
3.74378
3.7786
3.84442
3.93418
4.04185
4.16116
4.28926
4.42485
4.56732
4.71535
4.86515
5.00819
5.12729
5.21493
5.25731
5.23547
5.1318
4.93627
4.65197
4.29893
3.91778
3.56831
3.24541
2.95739
2.71049
2.5062
2.34262
2.21576
2.12049
2.05121
2.00231
1.96848
1.94493
1.92748
1.91266
1.8977
1.88046
1.86009
1.83749
1.81356
1.78927
1.76564
1.74368
1.72439
1.7087
1.69739
1.69105
1.69013
1.69485
1.70524
1.72113
1.74199
1.76624
1.79401
1.82403
1.85479
1.88456
1.91143
1.93345
1.94877
1.95579
1.95343
1.94138
1.92035
1.89233
1.86072
1.8305
1.80796
1.80009
1.81341
1.85219
1.91653
2.00063
2.09224
2.17429
2.22907
2.24412
2.21759
2.16058
2.09662
2.06022
2.09461
2.24529
2.54972
3.0017
3.47564
3.71962
3.59558
3.34513
3.23131
3.26708
3.36097
3.43442
3.44189
3.38089
3.26756
3.13679
4.78954
3.23786
3.02786
3.08541
3.273
3.60427
4.04781
4.51435
4.97232
5.42569
5.87048
6.29874
6.69715
7.04592
7.31829
7.49434
7.5898
7.60348
7.53587
7.39246
7.18575
6.9336
6.65694
6.37712
6.11308
5.87894
5.68288
5.54789
5.46757
5.4354
5.44393
5.48429
5.54553
5.61443
5.67624
5.71638
5.72376
5.695
5.63577
5.5536
5.44954
5.31867
5.14513
4.90825
4.60238
4.27973
3.94664
3.60598
3.27715
2.97461
2.70147
2.45287
2.2527
2.09925
1.99519
1.95207
1.98035
2.08601
2.27761
2.58066
3.07911
4.01288
5.66695
7.70937
9.35362
10.2239
10.2214
9.47805
8.45138
7.45671
6.65293
6.05344
5.61017
5.26987
4.98443
4.71605
4.4494
4.1919
3.96149
3.77449
3.64012
3.56012
3.53059
3.54423
3.59219
3.66533
3.75532
3.8561
3.9603
4.06594
4.17514
4.29198
4.42116
4.56621
4.7271
4.89714
5.05722
5.19444
5.28478
5.29807
5.20747
4.99741
4.67407
4.28291
3.88734
3.49491
3.12645
2.79573
2.50927
2.26806
2.06946
1.90885
1.78076
1.67964
1.60022
1.53777
1.48812
1.44773
1.41371
1.38378
1.35625
1.33024
1.30636
1.28516
1.26714
1.25279
1.24258
1.23693
1.23619
1.24067
1.25056
1.26598
1.28692
1.31329
1.34456
1.38082
1.42186
1.46641
1.51307
1.5603
1.60645
1.64968
1.68806
1.71967
1.7427
1.75567
1.75771
1.74877
1.72997
1.70375
1.67411
1.64642
1.62696
1.62185
1.63564
1.6696
1.72043
1.77995
1.83661
1.879
1.90069
1.90441
1.90433
1.92636
2.01266
2.20959
2.53964
2.98552
3.42757
3.65958
3.59134
3.40487
3.31591
3.35023
3.4361
3.50098
3.49681
3.41309
3.27009
3.10464
4.03762
3.42127
3.4617
3.72185
4.1819
4.68589
5.1778
5.64478
6.08487
6.49224
6.85547
7.16055
7.38946
7.51985
7.52658
7.42962
7.239
6.96574
6.62518
6.23884
5.8326
5.43278
5.06247
4.73932
4.4749
4.27528
4.14987
4.08553
4.07568
4.11719
4.20873
4.34821
4.52979
4.74126
4.9624
5.16544
5.32047
5.40773
5.43035
5.40804
5.35698
5.28693
5.18699
5.04277
4.84003
4.57774
4.2892
3.96417
3.61653
3.26369
2.92658
2.62198
2.3591
2.14894
1.99088
1.89398
1.87658
1.95813
2.1581
2.50721
3.1095
4.25339
6.19145
8.49776
10.1958
10.7188
10.0961
8.89559
7.73009
6.78805
6.11341
5.64666
5.31144
5.04204
4.78608
4.51644
4.23678
3.96947
3.73895
3.56205
3.44581
3.38894
3.38442
3.42184
3.48913
3.57388
3.66487
3.75444
3.83665
3.91103
3.98142
4.05433
4.13833
4.2428
4.37604
4.54216
4.7367
4.93821
5.12483
5.25985
5.30155
5.21272
4.97657
4.63614
4.23787
3.81063
3.38733
2.9921
2.63919
2.33443
2.07767
1.8651
1.69115
1.54982
1.43531
1.34246
1.26686
1.20478
1.15323
1.10982
1.07276
1.04074
1.01285
0.98875
0.968882
0.953556
0.943043
0.93757
0.937319
0.942432
0.953005
0.969086
0.990659
1.01764
1.04975
1.08807
1.13197
1.18047
1.23246
1.28668
1.34171
1.39596
1.44768
1.495
1.53598
1.56872
1.59157
1.6033
1.60342
1.59239
1.57195
1.54528
1.51687
1.49213
1.47646
1.47397
1.48629
1.51177
1.54569
1.58181
1.61528
1.64623
1.68308
1.74447
1.86756
2.09983
2.46067
2.91565
3.35066
3.59375
3.5841
3.46378
3.39582
3.41776
3.48416
3.53334
3.51695
3.41452
3.24564
3.05058
3.82517
3.81574
4.11492
4.52571
5.03401
5.55331
6.0308
6.45578
6.82427
7.12561
7.34504
7.4659
7.46955
7.33531
7.0698
6.70067
6.25173
5.75081
5.22938
4.71954
4.24897
3.83757
3.49696
3.23198
3.04286
2.92724
2.88518
2.86851
2.87606
2.91391
2.99337
3.12742
3.32691
3.59639
3.92823
4.29438
4.64278
4.91417
5.08032
5.15983
5.18534
5.19191
5.17098
5.10347
4.97132
4.76934
4.5157
4.21203
3.86522
3.49387
3.124
2.78039
2.47766
2.22186
2.02092
1.87766
1.81103
1.84903
2.02295
2.37625
3.03105
4.29897
6.44476
8.96793
10.6934
10.9164
9.86453
8.3717
7.14463
6.291
5.73837
5.3825
5.12971
4.9044
4.6562
4.37306
4.07566
3.79705
3.56574
3.3985
3.30018
3.26643
3.28687
3.3476
3.43302
3.52765
3.61824
3.69527
3.75896
3.80986
3.85044
3.88595
3.92458
3.97731
4.05716
4.17727
4.34707
4.56576
4.80885
5.03848
5.20525
5.25504
5.147
4.90128
4.54563
4.12065
3.66954
3.22829
2.82156
2.46261
2.15569
1.89899
1.68741
1.51447
1.37361
1.25883
1.165
1.08788
1.0241
0.970991
0.926533
0.889209
0.857909
0.831858
0.810545
0.7936
0.781069
0.773218
0.770204
0.772138
0.779114
0.791203
0.808434
0.830797
0.858351
0.892152
0.931787
0.976675
1.02606
1.07898
1.13434
1.19084
1.24701
1.30118
1.35158
1.39629
1.43343
1.46125
1.47836
1.48398
1.47818
1.4622
1.43857
1.41104
1.38416
1.36249
1.34956
1.34709
1.3548
1.37109
1.3946
1.42661
1.47406
1.55336
1.69411
1.94221
2.31977
2.78632
3.23196
3.50371
3.5528
3.48791
3.43773
3.44629
3.48981
3.52326
3.49641
3.37341
3.18115
2.96363
4.77138
4.22657
4.60683
5.08293
5.62303
6.13556
6.57532
6.93421
7.20528
7.37622
7.43211
7.35733
7.1368
6.7601
6.26957
5.70492
5.10901
4.52394
3.98666
3.52331
3.14715
2.86079
2.66008
2.53705
2.48101
2.47896
2.47919
2.4568
2.41428
2.36525
2.33347
2.34477
2.42213
2.58713
2.86096
3.24951
3.71271
4.15699
4.49239
4.70329
4.82391
4.92774
5.01963
5.07572
5.06372
4.96829
4.78585
4.52354
4.19477
3.81612
3.41251
3.01642
2.65615
2.34621
2.09515
1.90726
1.79055
1.77433
1.89912
2.2247
2.89423
4.23002
6.49293
9.15135
10.9081
10.9465
9.62722
7.98412
6.73012
5.93856
5.48093
5.21694
5.02924
4.83321
4.5837
4.28303
3.9653
3.67173
3.43426
3.26966
3.18051
3.15903
3.19124
3.26017
3.34824
3.43947
3.52189
3.58894
3.64706
3.69415
3.72927
3.75393
3.77244
3.79257
3.82614
3.88908
3.99981
4.17451
4.41796
4.6996
4.95717
5.13301
5.16603
5.04076
4.76755
4.38218
3.93298
3.46676
3.01985
2.61518
2.26353
1.96679
1.72133
1.52079
1.35799
1.22603
1.11885
1.03141
0.95966
0.900467
0.851418
0.810699
0.776957
0.749203
0.726736
0.70908
0.69594
0.687148
0.682609
0.68223
0.685994
0.694089
0.70662
0.723636
0.74532
0.772567
0.805318
0.843361
0.886295
0.933518
0.984231
1.03745
1.09201
1.14657
1.19957
1.24934
1.29405
1.33186
1.36104
1.38015
1.38827
1.38526
1.37202
1.35059
1.32413
1.29644
1.27129
1.2517
1.23956
1.23599
1.24229
1.26162
1.30142
1.37723
1.51742
1.76061
2.13185
2.6002
3.06288
3.3751
3.48327
3.46836
3.43548
3.43122
3.44725
3.44966
3.39647
3.26166
3.05991
2.83484
5.87799
4.50973
4.89321
5.40782
5.95711
6.45382
6.8532
7.14534
7.32204
7.37161
7.28098
7.03793
6.63176
6.08323
5.45337
4.8008
4.18136
3.63965
3.20408
2.88568
2.68231
2.58386
2.57442
2.63139
2.72422
2.79901
2.83146
2.80291
2.70083
2.53435
2.34663
2.18912
2.09473
2.07735
2.16422
2.40405
2.8135
3.31322
3.75936
4.07445
4.26364
4.43351
4.61856
4.80405
4.95838
5.03579
5.00224
4.84845
4.58811
4.24412
3.84
3.40459
2.97506
2.58557
2.25624
2.00576
1.83115
1.75147
1.81097
2.08425
2.73212
4.07448
6.36242
9.08291
10.9014
10.9011
9.47007
7.74304
6.463
5.70928
5.31861
5.12021
4.98334
4.81493
4.56914
4.24925
3.9073
3.59316
3.34015
3.16573
3.07046
3.04307
3.0661
3.12052
3.18947
3.26094
3.32884
3.39571
3.46276
3.52327
3.57341
3.61168
3.63865
3.65741
3.67458
3.70201
3.75796
3.86595
4.04946
4.31866
4.62201
4.88497
5.04361
5.04818
4.88293
4.56861
4.1508
3.68296
3.21227
2.77234
2.38222
2.04906
1.77198
1.54558
1.36254
1.21529
1.09688
1.00139
0.924006
0.860948
0.809307
0.766886
0.732042
0.703558
0.680541
0.662355
0.648567
0.638899
0.63319
0.631368
0.63343
0.639424
0.649404
0.663359
0.681141
0.703152
0.729625
0.760737
0.796509
0.83674
0.880976
0.928535
0.978527
1.02988
1.08134
1.13147
1.17869
1.2213
1.25755
1.28579
1.30461
1.31306
1.31091
1.29882
1.27854
1.25272
1.22455
1.19717
1.17329
1.15524
1.14563
1.14871
1.17239
1.23156
1.35226
1.57099
1.91524
2.3687
2.84264
3.19892
3.36731
3.40027
3.3862
3.37349
3.36492
3.33737
3.2574
3.10242
2.88856
2.66275
7.14798
4.64713
4.9674
5.49472
6.06812
6.55675
6.93088
7.17709
7.28797
7.25281
7.0609
6.70365
6.17185
5.52152
4.82465
4.15407
3.56967
3.11013
2.79136
2.61139
2.55768
2.61002
2.73868
2.90222
3.05256
3.19807
3.32346
3.38625
3.33658
3.13846
2.82806
2.49584
2.23227
2.05294
1.94913
1.97553
2.20944
2.62906
3.08294
3.43798
3.64907
3.8196
4.02017
4.27194
4.55245
4.81076
4.98607
5.02951
4.92338
4.6837
4.34148
3.92463
3.46229
2.99501
2.5663
2.21356
1.95966
1.80266
1.78249
1.98241
2.57233
3.85862
6.08319
8.79916
10.7167
10.8265
9.42998
7.66882
6.34361
5.58304
5.21815
5.05865
4.95915
4.81773
4.58517
4.2672
3.91507
3.57992
3.30169
3.10178
2.98183
2.92893
2.92291
2.94337
2.9769
3.0213
3.08224
3.16251
3.24762
3.32784
3.39818
3.45666
3.5029
3.53753
3.5629
3.58477
3.61497
3.67347
3.78723
3.98048
4.25608
4.56854
4.82015
4.94181
4.89139
4.66778
4.30567
3.85894
3.38252
2.92014
2.49988
2.13537
1.82961
1.57902
1.37677
1.21499
1.08607
0.983333
0.901201
0.835233
0.781985
0.738839
0.703828
0.675492
0.652749
0.634809
0.621105
0.61124
0.604952
0.60209
0.602595
0.606488
0.613856
0.624836
0.639634
0.658705
0.681977
0.709066
0.739686
0.774035
0.812143
0.853755
0.898329
0.945081
0.993024
1.04099
1.08764
1.1315
1.17098
1.20449
1.23046
1.24757
1.25489
1.25215
1.23993
1.21973
1.19384
1.16497
1.13586
1.10919
1.08802
1.07675
1.08307
1.12071
1.2131
1.39399
1.69457
2.11299
2.58132
2.97394
3.20162
3.28318
3.29045
3.27379
3.24506
3.19025
3.08413
2.91273
2.69695
2.48278
8.53052
4.64888
4.84696
5.36097
5.94871
6.4715
6.86601
7.10567
7.19723
7.13165
6.90044
6.4941
5.90587
5.20695
4.47853
3.80203
3.238
2.81912
2.55023
2.41757
2.39816
2.46273
2.57727
2.71176
2.90016
3.14092
3.3946
3.61191
3.72382
3.64949
3.38601
2.99204
2.60094
2.29736
2.06298
1.91529
1.95526
2.21703
2.58463
2.89886
3.10211
3.24388
3.4029
3.63062
3.93646
4.29193
4.63982
4.90816
5.03318
4.98607
4.78246
4.45968
4.04713
3.56892
3.06527
2.59195
2.22018
1.96217
1.84355
1.94743
2.44182
3.61074
5.68976
8.33453
10.3739
10.7242
9.50146
7.76289
6.37361
5.55425
5.16713
5.0153
4.93873
4.82509
4.61821
4.31952
3.97222
3.627
3.3272
3.09828
2.94501
2.85609
2.8123
2.79517
2.79527
2.81718
2.87665
2.9733
3.07731
3.17398
3.2578
3.32815
3.38623
3.43319
3.46992
3.49833
3.52381
3.55843
3.62341
3.74737
3.95418
4.23938
4.54269
4.75393
4.80837
4.68101
4.3899
3.98296
3.51823
3.04738
2.60714
2.21814
1.88806
1.61592
1.39599
1.22053
1.08159
0.971902
0.88526
0.816636
0.762077
0.718559
0.683803
0.65611
0.63422
0.617202
0.604366
0.5952
0.589331
0.58649
0.586508
0.589304
0.594887
0.603368
0.615002
0.630479
0.650041
0.673724
0.701368
0.732499
0.766417
0.803278
0.843005
0.88518
0.929112
0.973891
1.01843
1.0615
1.10174
1.13769
1.16786
1.19083
1.20532
1.21048
1.20605
1.19257
1.17141
1.14459
1.11453
1.08381
1.05543
1.03353
1.02496
1.04177
1.10441
1.24316
1.49046
1.85677
2.29762
2.70809
2.98785
3.11969
3.15279
3.1369
3.09222
3.01354
2.8851
2.70611
2.5026
2.31563
10.0801
4.55939
4.5659
5.03367
5.62108
6.1887
6.64749
6.95591
7.0929
7.06608
6.87395
6.50916
5.94324
5.24916
4.50659
3.79492
3.20223
2.76178
2.46841
2.2967
2.20757
2.15939
2.15999
2.30673
2.5807
2.90314
3.24084
3.55084
3.77372
3.84272
3.70535
3.37235
2.95605
2.58262
2.27344
2.02826
1.92733
2.02936
2.26971
2.51276
2.67762
2.77977
2.88134
3.03983
3.28789
3.62939
4.03775
4.45582
4.80428
5.0059
5.02019
4.86137
4.57289
4.18396
3.7086
3.18145
2.67859
2.29114
2.04563
2.02064
2.37284
3.3563
5.20134
7.69161
9.84619
10.5485
9.65101
8.02234
6.56831
5.639
5.17276
4.98723
4.91247
4.82381
4.65346
4.39135
4.06841
3.73048
3.421
3.16885
2.98387
2.86013
2.78373
2.74147
2.72738
2.74486
2.80474
2.90581
3.01531
3.11409
3.19599
3.26237
3.31712
3.3634
3.4025
3.43459
3.46092
3.48706
3.5264
3.60224
3.74334
3.96684
4.25196
4.51942
4.65765
4.61984
4.40483
4.04989
3.61141
3.14567
2.69649
2.29125
1.94261
1.65273
1.41749
1.22976
1.08156
0.965276
0.874257
0.803001
0.747135
0.703284
0.668898
0.642074
0.621407
0.605853
0.594623
0.587099
0.582775
0.581231
0.582116
0.585165
0.590222
0.597273
0.606528
0.618853
0.634686
0.654352
0.678015
0.70557
0.736638
0.770407
0.806255
0.844305
0.884266
0.925527
0.967249
1.00843
1.04792
1.08447
1.11674
1.14333
1.16287
1.17416
1.17641
1.16939
1.15368
1.13059
1.102
1.07022
1.03797
1.00896
0.989035
0.988324
1.02402
1.1223
1.31416
1.61816
2.01155
2.41546
2.73178
2.91305
2.97897
2.97161
2.91754
2.82144
2.67977
2.50669
2.32986
2.18075
11.5605
4.45686
4.24536
4.637
5.19587
5.79494
6.33465
6.75459
6.98116
7.0347
6.92757
6.66026
6.20704
5.59807
4.91144
4.2271
3.61977
3.13553
2.78228
2.54372
2.391
2.2983
2.27294
2.39289
2.63484
2.94939
3.29253
3.61462
3.8563
3.95354
3.85343
3.55748
3.16043
2.7748
2.42442
2.12329
1.95057
1.95454
2.08233
2.22916
2.32912
2.3855
2.43839
2.53025
2.6942
2.95271
3.31342
3.75855
4.23574
4.66093
4.94282
5.02634
4.92223
4.68046
4.32912
3.86622
3.31581
2.8001
2.4126
2.23634
2.4159
3.17482
4.7344
6.99572
9.19885
10.2655
9.78653
8.36592
6.88973
5.83664
5.25125
4.99119
4.88902
4.81043
4.67424
4.45521
4.17015
3.85652
3.55471
3.2952
3.09284
2.94835
2.85475
2.80457
2.79441
2.82407
2.89117
2.98582
3.08121
3.16061
3.22023
3.26436
3.29975
3.33174
3.36254
3.39146
3.41688
3.43934
3.46526
3.51065
3.60112
3.76187
3.99516
4.2579
4.45638
4.49543
4.3553
4.05948
3.65879
3.21065
2.76374
2.35117
1.99053
1.68741
1.43978
1.24152
1.08502
0.962589
0.86733
0.793421
0.73618
0.691965
0.658022
0.632305
0.613309
0.599918
0.591272
0.586648
0.585389
0.586856
0.590429
0.595539
0.601732
0.608737
0.616615
0.626487
0.63895
0.654537
0.673737
0.696838
0.723812
0.75424
0.787389
0.822035
0.858268
0.895921
0.934452
0.973078
1.01086
1.04672
1.07946
1.10779
1.13035
1.14578
1.15295
1.15115
1.1403
1.12109
1.09489
1.06364
1.02974
0.996446
0.968705
0.954853
0.969004
1.03301
1.17455
1.41554
1.74954
2.12343
2.45305
2.67463
2.77837
2.79045
2.73863
2.63739
2.49646
2.34201
2.20005