/*--------------------------------*- C++ -*----------------------------------*\
| =========                 |                                                 |
| \\      /  F ield         | OpenFOAM: The Open Source CFD Toolbox           |
|  \\    /   O peration     | Version:  2112                                  |
|   \\  /    A nd           | Website:  www.openfoam.com                      |
|    \\/     M anipulation  |                                                 |
\*---------------------------------------------------------------------------*/
FoamFile
{
    version     2.0;
    format      ascii;
    arch        "LSB;label=32;scalar=64";
    class       volScalarField;
    location    "0.13";
    object      nut;
}
// * * * * * * * * * * * * * * * * * * * * * * * * * * * * * * * * * * * * * //

dimensions      [0 2 -1 0 0 0 0];

internalField   nonuniform List<scalar> 
12225
(
6.55171e-06
1.93069e-05
3.10875e-05
3.40546e-05
3.38048e-05
3.29342e-05
3.14048e-05
2.9859e-05
2.84191e-05
2.70991e-05
2.59495e-05
2.4896e-05
2.40406e-05
2.32014e-05
2.26024e-05
2.19456e-05
2.14845e-05
2.1145e-05
0.000299883
7.28126e-05
4.40044e-05
3.66787e-05
3.29727e-05
3.06776e-05
2.8766e-05
2.75198e-05
2.65573e-05
2.57361e-05
2.52867e-05
2.49135e-05
2.47618e-05
2.46723e-05
2.47647e-05
2.48917e-05
2.50798e-05
2.51839e-05
0.00246499
0.00114267
0.000458763
0.000243554
0.000165673
0.000122094
9.94752e-05
8.37485e-05
7.42186e-05
6.63598e-05
6.14332e-05
5.69411e-05
5.41068e-05
5.1405e-05
4.97888e-05
4.77916e-05
4.70684e-05
4.59153e-05
0.00261879
0.00286129
0.00316988
0.00183429
0.00129447
0.000884591
0.000715476
0.000551148
0.000475978
0.000395995
0.000357619
0.000312711
0.000290037
0.000262175
0.000250049
0.000230404
0.00021773
0.000207468
0.00280525
0.00286716
0.00289244
0.00315012
0.00361336
0.0035989
0.0030138
0.00237964
0.00211925
0.00178062
0.00162225
0.00142018
0.00131659
0.0011884
0.00113035
0.00103325
0.000973028
0.000921804
0.00326279
0.00311844
0.00280729
0.00287742
0.00313121
0.00359276
0.0042247
0.00504773
0.00518159
0.00453259
0.00419952
0.00380225
0.00357582
0.0032961
0.00315105
0.0029245
0.00278766
0.00265558
0.00379769
0.00363205
0.00313519
0.0028879
0.00285689
0.00303674
0.0034071
0.00397098
0.00468133
0.00543537
0.00622788
0.00659842
0.00629168
0.00593325
0.00573483
0.00543288
0.00527677
0.0050646
0.00440217
0.00416309
0.0035518
0.00317883
0.00298955
0.00293283
0.00300505
0.00321507
0.00359821
0.00411833
0.0047348
0.00544197
0.00612008
0.00681255
0.00752391
0.00759168
0.00745528
0.00722992
0.00512352
0.00474495
0.00399622
0.00354672
0.00328087
0.00311582
0.00303944
0.00304535
0.00314257
0.00333736
0.00362453
0.00402105
0.00450041
0.00504564
0.00566635
0.00632712
0.00698481
0.00764469
0.00599795
0.00544911
0.00452182
0.00395535
0.00362391
0.00341161
0.00327827
0.00319609
0.00315438
0.00316832
0.00323809
0.00336604
0.0035549
0.00380447
0.0041186
0.00451975
0.00498768
0.00554124
0.00710325
0.00628992
0.00514006
0.00441803
0.00400485
0.00374974
0.00358814
0.00348024
0.00339914
0.0033434
0.00331011
0.00329842
0.003317
0.00337277
0.00346108
0.00359433
0.00377516
0.00403608
0.00841372
0.00717932
0.00578526
0.00489136
0.00438915
0.00408687
0.00389761
0.00377681
0.00369147
0.00362637
0.00357145
0.00352018
0.00347429
0.00344036
0.00341551
0.00340885
0.00342404
0.00348956
0.00946676
0.00823428
0.00651003
0.00540873
0.00480178
0.0044448
0.00422139
0.00407999
0.0039871
0.00392348
0.00387498
0.00383087
0.00378515
0.00373822
0.00368643
0.00363465
0.00358181
0.00354595
0.00946611
0.00946674
0.00745872
0.00608003
0.00532104
0.00488778
0.00461884
0.00444724
0.00433689
0.00426639
0.00421994
0.00418635
0.00415707
0.00412747
0.00409145
0.00404885
0.0039927
0.00392927
0.00946577
0.00946571
0.00862969
0.0069447
0.00597163
0.00543123
0.00510165
0.0048911
0.00475658
0.00467232
0.00462017
0.0045886
0.00456923
0.0045563
0.00454397
0.00453003
0.00450348
0.00446566
0.00946591
0.00946435
0.00946511
0.00790589
0.00673388
0.00606866
0.00566511
0.00540713
0.00524404
0.00514503
0.00508799
0.00505879
0.00504791
0.00504912
0.00505764
0.00507095
0.00507732
0.00508135
0.00946578
0.0094639
0.00946401
0.00876107
0.00749304
0.00672265
0.00625217
0.0059496
0.00576021
0.00565087
0.00559642
0.00557973
0.0055891
0.00561671
0.00565678
0.00570563
0.00575355
0.00580954
0.00946559
0.00946385
0.00946334
0.00936536
0.00805312
0.00722737
0.00672599
0.00640439
0.00620685
0.00610145
0.00606264
0.00607229
0.0061182
0.00619145
0.00628447
0.00639138
0.00650481
0.0066305
0.00946561
0.00946403
0.00946346
0.00942193
0.00813811
0.00732996
0.00685115
0.0065545
0.00638346
0.00630823
0.00630558
0.00635927
0.00645903
0.0065974
0.00676799
0.00696635
0.00719265
0.007455
0.00946592
0.00946437
0.00946464
0.00876611
0.00759688
0.00689687
0.00649719
0.00626742
0.00615568
0.00613413
0.00618155
0.00628314
0.00642914
0.00661263
0.00683294
0.00710032
0.00744367
0.00789086
0.00946599
0.00946548
0.00944208
0.00781754
0.00680683
0.00626379
0.00596911
0.00581461
0.00575754
0.00577377
0.00584275
0.00595062
0.00609502
0.00628377
0.0065447
0.00692147
0.00747763
0.00820336
0.0094663
0.00946693
0.00798879
0.00674303
0.00600919
0.00561592
0.00540747
0.00529702
0.00525451
0.00527444
0.00534793
0.00548055
0.00569998
0.00604422
0.0065808
0.00732046
0.00826985
0.00936162
0.00855795
0.0078195
0.00668969
0.00580969
0.00527185
0.00497191
0.00481361
0.00473682
0.00474556
0.00485569
0.00507665
0.00545185
0.00603256
0.00682657
0.00783798
0.00905646
0.00938387
0.00936905
0.00670473
0.00642108
0.00562076
0.00496222
0.00456889
0.00438384
0.00433992
0.00442641
0.00470054
0.00513669
0.00576983
0.00659746
0.0076568
0.00894195
0.00902998
0.00895052
0.00884795
0.00876772
0.0053432
0.00525808
0.00466772
0.00426049
0.00415516
0.00423961
0.00450206
0.00496633
0.00558009
0.00635905
0.00740944
0.00797296
0.0076392
0.00740585
0.00712006
0.00691656
0.00666631
0.00649191
0.00429154
0.00435644
0.00426551
0.00425699
0.00435687
0.00462034
0.00514783
0.00601018
0.00554709
0.00509735
0.00453574
0.00422973
0.0038417
0.00361826
0.00333466
0.00316828
0.00295425
0.00282847
0.00361688
0.00415906
0.00434252
0.00459576
0.00360293
0.00286142
0.00214031
0.00182541
0.00147774
0.0013075
0.00111057
0.00101009
0.00088922
0.000825282
0.000745534
0.000702166
0.000646451
0.000615619
0.0030301
0.00297502
0.00136067
0.000763154
0.000480716
0.000353955
0.000269263
0.000222855
0.000186771
0.000165092
0.000146001
0.000134041
0.000122565
0.000115156
0.000107595
0.000102682
9.73991e-05
9.39776e-05
0.000547885
0.000163436
8.74774e-05
6.45067e-05
5.4628e-05
4.93225e-05
4.59002e-05
4.33876e-05
4.14593e-05
3.98138e-05
3.85576e-05
3.75487e-05
3.6695e-05
3.60018e-05
3.54708e-05
3.50413e-05
3.47461e-05
3.45285e-05
7.34168e-06
1.71903e-05
2.99273e-05
3.94324e-05
4.48813e-05
4.52928e-05
4.49815e-05
4.41933e-05
4.30024e-05
4.17482e-05
4.0508e-05
3.9325e-05
3.8212e-05
3.71838e-05
3.62289e-05
3.53601e-05
3.45309e-05
3.36055e-05
1.07959e-07
1.50677e-06
1.95462e-06
2.30305e-06
2.62483e-06
3.41675e-06
4.95357e-06
6.76313e-06
8.76839e-06
1.03622e-05
1.19806e-05
1.40566e-05
1.59368e-05
1.75547e-05
1.8963e-05
2.02024e-05
2.1324e-05
2.23547e-05
2.33432e-05
2.42786e-05
2.51996e-05
2.60951e-05
2.6874e-05
2.75036e-05
2.81837e-05
2.89024e-05
2.9624e-05
3.04184e-05
3.12165e-05
3.21091e-05
3.30228e-05
3.4041e-05
3.51222e-05
3.63219e-05
3.75049e-05
3.82532e-05
3.88948e-05
3.94185e-05
3.97921e-05
3.99544e-05
3.98458e-05
3.95171e-05
3.88122e-05
3.75686e-05
3.57073e-05
3.30482e-05
2.93595e-05
2.4446e-05
1.87478e-05
1.50373e-05
1.47553e-05
1.59363e-05
1.76238e-05
1.88346e-05
1.97506e-05
2.14806e-05
2.5084e-05
3.00817e-05
3.47879e-05
3.71405e-05
3.51523e-05
3.38592e-05
3.25998e-05
2.94353e-05
2.58925e-05
2.39993e-05
2.33689e-05
2.24629e-05
2.24431e-05
2.32718e-05
2.4092e-05
2.59976e-05
2.5784e-05
2.49769e-05
2.3525e-05
2.21964e-05
2.1329e-05
2.16962e-05
2.30468e-05
2.48468e-05
2.49362e-05
2.35447e-05
2.34105e-05
2.36034e-05
2.71071e-05
2.96978e-05
3.64502e-05
3.88224e-05
3.71932e-05
3.08444e-05
1.91322e-05
1.73564e-05
1.98144e-05
2.09214e-05
2.20526e-05
2.75768e-05
3.74406e-05
4.61823e-05
5.32363e-05
5.9107e-05
6.4109e-05
6.84256e-05
7.21659e-05
7.53929e-05
7.81447e-05
8.04458e-05
8.23151e-05
8.37742e-05
8.48645e-05
8.55057e-05
8.58008e-05
8.58264e-05
8.56089e-05
8.51156e-05
8.44023e-05
8.35519e-05
8.25002e-05
8.13032e-05
7.99694e-05
7.85164e-05
7.69552e-05
7.53043e-05
7.35643e-05
7.1753e-05
6.98507e-05
6.78882e-05
6.58308e-05
6.3671e-05
6.13933e-05
5.89731e-05
5.63368e-05
5.34421e-05
5.0362e-05
4.71015e-05
4.37628e-05
4.0742e-05
3.87216e-05
3.69343e-05
3.53168e-05
3.41961e-05
3.34041e-05
3.26997e-05
3.20571e-05
3.14583e-05
3.08906e-05
3.03538e-05
2.98472e-05
2.93615e-05
2.88947e-05
2.85716e-05
2.8333e-05
2.81292e-05
2.79513e-05
2.78174e-05
2.77223e-05
2.76816e-05
2.7714e-05
2.783e-05
2.80414e-05
2.83566e-05
2.87912e-05
2.93658e-05
3.00559e-05
3.08456e-05
3.17263e-05
3.26847e-05
3.37046e-05
3.47659e-05
3.58713e-05
3.70181e-05
3.82179e-05
3.92955e-05
3.99223e-05
3.99148e-05
3.95798e-05
3.80874e-05
3.62356e-05
3.28236e-05
3.02161e-05
2.71939e-05
1.54115e-07
4.83026e-07
1.11899e-06
1.92577e-06
3.74454e-06
7.98095e-06
1.67502e-05
3.00915e-05
4.40593e-05
5.99985e-05
7.8976e-05
9.66559e-05
0.00011314
0.000128787
0.000139171
0.000146802
0.000152902
0.000157852
0.000161885
0.000165112
0.000167806
0.000170061
0.000171831
0.000173198
0.000173977
0.000174608
0.000175012
0.000175225
0.000175221
0.000174931
0.000174086
0.000173242
0.000171601
0.000169912
0.000166358
0.000158679
0.000146545
0.000130679
0.000113967
9.85406e-05
8.43891e-05
7.27803e-05
6.25027e-05
5.4488e-05
4.70386e-05
4.08784e-05
3.54556e-05
3.10312e-05
2.70487e-05
2.32405e-05
1.98422e-05
1.79689e-05
1.86432e-05
1.77209e-05
1.71097e-05
1.84097e-05
2.21261e-05
2.78586e-05
2.94304e-05
3.13888e-05
3.41448e-05
3.2257e-05
2.97171e-05
2.8853e-05
2.87854e-05
3.04084e-05
3.47151e-05
3.94561e-05
4.71481e-05
6.00251e-05
7.74523e-05
9.46563e-05
0.000108756
0.000110847
0.000107663
9.49073e-05
7.74611e-05
6.13589e-05
5.39949e-05
5.06503e-05
5.00852e-05
5.45569e-05
5.2785e-05
5.08711e-05
4.44389e-05
4.20957e-05
3.95672e-05
3.84476e-05
3.50735e-05
3.31995e-05
2.56281e-05
2.58416e-05
3.65556e-05
3.74835e-05
3.79853e-05
4.52471e-05
5.66759e-05
7.0252e-05
8.66552e-05
0.000104042
0.000123083
0.000144925
0.000170258
0.000199648
0.000234402
0.000275242
0.000323322
0.000379671
0.000444836
0.000517934
0.000594374
0.000670288
0.000739847
0.000790307
0.000824537
0.000847577
0.000870201
0.000893621
0.000916355
0.000939929
0.000963013
0.00098675
0.00101047
0.0010347
0.00105828
0.00108293
0.00110711
0.00113109
0.00115452
0.00117657
0.00119952
0.00121945
0.0012334
0.00123992
0.00123452
0.00121413
0.00118046
0.00113332
0.00107319
0.00100484
0.000935327
0.000871019
0.000812963
0.000758662
0.000707699
0.000660591
0.000616649
0.000577889
0.00054525
0.000506954
0.000467713
0.000436616
0.000415353
0.000403527
0.000397794
0.000396473
0.000401103
0.000410767
0.00042289
0.000435792
0.00044731
0.000455789
0.00046363
0.000471453
0.000478885
0.000486041
0.0004922
0.000496952
0.000499477
0.000499631
0.000496449
0.000488746
0.000469809
0.00042896
0.000316375
0.000203282
0.000145343
0.000105517
9.06917e-05
6.46907e-05
2.64406e-08
1.68788e-07
9.79397e-07
3.25069e-06
8.87531e-06
2.21656e-05
4.04935e-05
6.76363e-05
9.91278e-05
0.000130057
0.000151377
0.00016501
0.000173851
0.000180032
0.000184505
0.000188262
0.000191725
0.000194956
0.000195942
0.000194731
0.000193811
0.000193183
0.000193136
0.000193741
0.000194866
0.000197416
0.000201177
0.000206747
0.000214756
0.000225769
0.000228059
0.000228889
0.000229894
0.000230314
0.000230162
0.000229307
0.000227231
0.000223396
0.000216956
0.000208289
0.000197769
0.000182827
0.000162603
0.000139003
0.000114103
9.10144e-05
7.18458e-05
5.4656e-05
4.07116e-05
3.13869e-05
2.65686e-05
2.29632e-05
2.03239e-05
1.99023e-05
2.05526e-05
2.08527e-05
2.17896e-05
2.43054e-05
2.58131e-05
2.77922e-05
2.64149e-05
2.14511e-05
2.01689e-05
1.98118e-05
1.99955e-05
2.10626e-05
2.39317e-05
2.85232e-05
3.32998e-05
4.19025e-05
5.88841e-05
8.36814e-05
0.000111528
0.000121369
0.000119427
0.000112278
9.22498e-05
7.3856e-05
6.60782e-05
6.21029e-05
5.94956e-05
5.30671e-05
4.77287e-05
4.3841e-05
4.18684e-05
3.8989e-05
3.84741e-05
3.7725e-05
3.61501e-05
3.29601e-05
3.1241e-05
4.76659e-05
4.76811e-05
4.51251e-05
5.72424e-05
8.04063e-05
0.00012516
0.000175108
0.000237551
0.000318294
0.000406437
0.000498719
0.000593667
0.000685998
0.000770848
0.000849376
0.000915966
0.000972019
0.0010074
0.0010281
0.00103736
0.00104092
0.0010393
0.00103325
0.00102566
0.00102091
0.00101821
0.00102345
0.0010288
0.00103747
0.00105009
0.00106478
0.0010815
0.00110336
0.00112698
0.00115687
0.00119074
0.00123119
0.00126059
0.00127622
0.00130459
0.00133834
0.0013769
0.00142653
0.00148362
0.00153869
0.00155491
0.00156206
0.00156542
0.00155839
0.00153939
0.00150356
0.00145456
0.00140095
0.00134847
0.00129829
0.0012502
0.00120466
0.00116443
0.00112469
0.00108591
0.00105143
0.00102358
0.00100315
0.00098894
0.000980387
0.000977016
0.000977767
0.0009811
0.000985855
0.000990654
0.000995043
0.000999302
0.00100356
0.00100814
0.00101285
0.00101698
0.00102122
0.00102429
0.00102787
0.00103101
0.00103266
0.00103368
0.00102266
0.000997599
0.000937621
0.000856467
0.000686331
0.00057789
0.000366214
4.56844e-08
5.80245e-07
2.88449e-06
1.0337e-05
2.92e-05
6.59046e-05
0.000116944
0.000153962
0.000174377
0.000184877
0.000189419
0.000191626
0.000193113
0.00019422
0.000194853
0.000196109
0.000198272
0.000201156
0.000196439
0.000191934
0.000188519
0.000186136
0.00018457
0.000183762
0.000183819
0.000185187
0.000187755
0.000191876
0.000197323
0.000204509
0.000213547
0.000224332
0.000238114
0.000240511
0.000239341
0.000238058
0.000235558
0.000233806
0.000230907
0.000228416
0.000221554
0.000214884
0.000206693
0.000198159
0.000185481
0.000165496
0.000136453
0.000106687
7.90465e-05
5.52761e-05
3.81131e-05
2.88738e-05
2.38242e-05
2.1299e-05
2.09803e-05
2.2596e-05
2.3703e-05
2.38062e-05
2.38769e-05
2.43674e-05
2.45826e-05
2.17903e-05
1.96064e-05
1.89508e-05
1.88936e-05
2.00042e-05
2.39208e-05
3.03911e-05
3.55372e-05
4.35661e-05
6.12711e-05
8.84888e-05
0.000120227
0.000141494
0.00014069
0.000132232
0.000118924
9.84085e-05
8.0471e-05
6.74367e-05
5.64004e-05
5.04231e-05
4.5635e-05
4.20377e-05
3.86138e-05
3.67967e-05
3.7069e-05
3.74849e-05
3.77166e-05
3.64134e-05
4.80753e-05
5.87445e-05
5.52236e-05
7.24504e-05
0.000133535
0.000229955
0.000348605
0.000487387
0.00062993
0.000747522
0.000843445
0.000911942
0.000963009
0.000987353
0.000995053
0.000986256
0.000944341
0.000893854
0.000854928
0.000815291
0.000786552
0.000771888
0.000764079
0.0007618
0.000762156
0.000766431
0.0007745
0.000782774
0.000789205
0.000795152
0.000800885
0.00080502
0.000807886
0.000809634
0.00081045
0.000777706
0.000747191
0.000726186
0.000715782
0.000718744
0.000739853
0.000787828
0.000865722
0.000968465
0.00109822
0.00124753
0.00138705
0.0014908
0.00152524
0.00154461
0.00154936
0.00155132
0.00154882
0.00153835
0.00151633
0.00148633
0.00145499
0.00142387
0.00139306
0.00136363
0.00133485
0.00130691
0.00128117
0.00125899
0.00124158
0.00122872
0.0012191
0.00121153
0.00120489
0.00119846
0.00119184
0.00118486
0.0011778
0.00117079
0.00116456
0.00115909
0.00115412
0.00114952
0.00114487
0.00114047
0.00114139
0.00114636
0.00115284
0.00115959
0.00116879
0.00117361
0.00116724
0.00113043
0.00108472
0.000920265
2.29412e-07
1.86265e-06
9.56461e-06
3.9567e-05
0.000108251
0.000161313
0.000187798
0.00019759
0.000199565
0.000198463
0.000195747
0.000192868
0.000191586
0.000190725
0.000190948
0.000192626
0.000195674
0.000200418
0.000203544
0.000200164
0.000198822
0.000199343
0.000200638
0.000202661
0.000205554
0.00020934
0.00021415
0.000220604
0.000227345
0.000236388
0.000245367
0.000255908
0.000264544
0.000262838
0.000259435
0.000254827
0.000249287
0.000243325
0.000236943
0.000231062
0.000227714
0.000224228
0.000220798
0.000211562
0.000203477
0.000197004
0.000185487
0.000164495
0.000132579
9.83289e-05
6.84841e-05
4.5255e-05
3.14928e-05
2.46962e-05
2.17257e-05
2.15061e-05
2.23955e-05
2.34302e-05
2.35294e-05
2.31035e-05
2.28284e-05
2.13479e-05
1.89702e-05
1.81121e-05
1.86206e-05
2.30758e-05
3.46923e-05
4.87944e-05
5.57037e-05
6.16301e-05
7.72721e-05
0.000106371
0.000143061
0.000170299
0.000168823
0.000157279
0.000141241
0.0001189
9.28342e-05
7.41526e-05
5.76555e-05
5.0717e-05
4.7931e-05
4.66859e-05
4.39478e-05
3.77592e-05
3.68043e-05
3.77423e-05
3.86365e-05
4.41649e-05
6.35907e-05
6.70226e-05
9.15033e-05
0.000202528
0.000349617
0.000534713
0.000703853
0.000850887
0.000954043
0.00100906
0.00104234
0.00103193
0.0010077
0.000933336
0.000841947
0.00077634
0.000740239
0.000724181
0.000716032
0.000714625
0.000716251
0.000722334
0.000733853
0.000744732
0.000754994
0.000766356
0.00077707
0.000787224
0.000796609
0.000804576
0.00081147
0.000817282
0.000804378
0.000783356
0.00075973
0.000732425
0.000702879
0.000672737
0.000645239
0.000622226
0.000606139
0.000599068
0.00060235
0.000618025
0.000651553
0.000715733
0.000835577
0.00101246
0.0012233
0.00139705
0.00147351
0.00152317
0.00154957
0.00156349
0.00156584
0.00156266
0.00154738
0.00152139
0.00149169
0.00146265
0.00143549
0.00141042
0.00138723
0.00136599
0.00134616
0.00132787
0.00131088
0.0012949
0.00127962
0.00126458
0.00125019
0.00123636
0.001223
0.00120945
0.00119634
0.00118367
0.00117218
0.00116107
0.0011498
0.00113911
0.00113393
0.00113584
0.00114573
0.00115807
0.00117314
0.00118662
0.00120216
0.00121233
0.0012159
0.00116544
2.28883e-06
6.96589e-06
4.49746e-05
0.000136099
0.000189387
0.00020734
0.000211089
0.000206276
0.000197053
0.000187518
0.00017895
0.000172397
0.000169248
0.000167279
0.000167495
0.00017059
0.000175549
0.000182068
0.0001899
0.00019917
0.000203533
0.000206621
0.000210971
0.000216303
0.0002221
0.000228528
0.000236155
0.000245156
0.000255432
0.000267865
0.0002747
0.000277036
0.000278627
0.000278777
0.000277559
0.000274812
0.000269392
0.000261408
0.00025169
0.000241164
0.000231228
0.000221755
0.000215541
0.00021328
0.000210487
0.000202729
0.000197351
0.000189703
0.000174855
0.00014749
0.00011017
7.6609e-05
5.16178e-05
3.49261e-05
2.58783e-05
2.23049e-05
2.18002e-05
2.22073e-05
2.24107e-05
2.18999e-05
2.06407e-05
1.93955e-05
1.85107e-05
1.90102e-05
2.24599e-05
3.52991e-05
6.59801e-05
8.90719e-05
9.20864e-05
9.82768e-05
0.000109163
0.000134619
0.000167734
0.00020771
0.000216157
0.000205265
0.000186721
0.000158668
0.000124281
9.28023e-05
6.8696e-05
5.43683e-05
4.98822e-05
5.05522e-05
4.81259e-05
4.10044e-05
3.88945e-05
4.09419e-05
4.49456e-05
6.35083e-05
7.62436e-05
0.000107159
0.000248809
0.000460784
0.000647929
0.000856112
0.000981922
0.00105599
0.00108809
0.00108035
0.00104479
0.000952582
0.000833975
0.000766572
0.00073636
0.000721843
0.000715075
0.000710793
0.000708964
0.000718062
0.00072342
0.000720979
0.000725181
0.00073295
0.000742442
0.000754303
0.000764329
0.000771605
0.000775501
0.000776982
0.000774081
0.000770406
0.000767028
0.000762386
0.000757186
0.000747222
0.000729936
0.000705674
0.000675597
0.000643798
0.00061475
0.000591698
0.000576978
0.000572574
0.00057679
0.00059019
0.00061391
0.00065344
0.000719825
0.000856487
0.0010723
0.00131074
0.00141652
0.00149228
0.00154043
0.00156604
0.001582
0.00158539
0.00157492
0.00155312
0.00152369
0.00149095
0.00145762
0.00142536
0.00139507
0.00136741
0.00134276
0.00132105
0.00130182
0.00128416
0.00126781
0.00125232
0.00123703
0.00122152
0.00120602
0.00119106
0.00117711
0.00116272
0.00114798
0.00113301
0.00112118
0.00111508
0.00111809
0.00112754
0.00114214
0.00115719
0.00117716
0.00119427
0.00122269
0.00122407
4.43263e-06
2.45819e-05
0.000135538
0.000205154
0.000222352
0.000221967
0.000206247
0.00018645
0.000166059
0.000152419
0.000145665
0.000143993
0.000143862
0.000145968
0.00015042
0.000156414
0.000163906
0.000172534
0.000181739
0.000191029
0.000200222
0.000208935
0.000216961
0.000223895
0.000230053
0.000234641
0.000238125
0.00024071
0.000242266
0.00024388
0.000245469
0.000247647
0.000250951
0.000254989
0.000258849
0.000262553
0.000266355
0.000268425
0.000265335
0.000257614
0.000245492
0.000232415
0.000219429
0.00021007
0.000204507
0.000204526
0.00019948
0.000195277
0.000188204
0.000176928
0.000151776
0.000115564
8.15819e-05
5.57583e-05
3.92488e-05
2.85586e-05
2.35304e-05
2.24337e-05
2.23664e-05
2.22295e-05
2.15601e-05
2.07283e-05
2.12456e-05
2.56135e-05
4.24747e-05
8.96928e-05
0.000116587
0.000109608
0.000108731
0.000116145
0.000139168
0.000179965
0.000211063
0.000242766
0.000276605
0.000281395
0.000265028
0.000235186
0.000189384
0.000143598
0.000104201
7.06296e-05
5.65941e-05
4.94821e-05
4.72153e-05
4.62615e-05
4.49603e-05
4.9609e-05
6.21016e-05
8.31335e-05
0.000123171
0.000271895
0.000536218
0.000729631
0.000927988
0.00105522
0.00111257
0.00113039
0.00111272
0.00105178
0.000928132
0.000818611
0.000765058
0.000733178
0.000712751
0.000698356
0.000693194
0.000687178
0.000681934
0.000686009
0.000694633
0.000706965
0.000724084
0.000744126
0.000766619
0.000788704
0.000806762
0.000817924
0.000822568
0.00082235
0.000815647
0.000805531
0.000794256
0.000784051
0.000776496
0.000767798
0.000755523
0.000736637
0.000709063
0.000674534
0.000638689
0.000607388
0.000584128
0.000570153
0.000566531
0.000570807
0.0005822
0.000600341
0.000625301
0.000657874
0.000703529
0.000791891
0.000983699
0.0012324
0.00137923
0.00146558
0.00152769
0.00156577
0.00158514
0.00160051
0.0015938
0.00157166
0.00154237
0.00150747
0.00146961
0.00143118
0.00139422
0.00136032
0.00132999
0.00130298
0.00127895
0.00125759
0.00123797
0.0012196
0.00120275
0.00118828
0.00117622
0.00116497
0.0011545
0.00114313
0.0011285
0.00111208
0.00110091
0.00109904
0.00110863
0.00112506
0.00114736
0.00116769
0.00119728
0.00121993
5.10873e-06
7.05374e-05
0.00019904
0.000234999
0.000233882
0.000203801
0.000170098
0.000142809
0.000131514
0.000127607
0.000128236
0.000132355
0.000140114
0.00015006
0.00016057
0.000171052
0.000180546
0.000189079
0.000196681
0.000203377
0.000209243
0.000214412
0.000219091
0.000223294
0.000227123
0.000230148
0.000231678
0.000232066
0.000231676
0.000229689
0.000227565
0.000224844
0.000222903
0.00022192
0.000222328
0.000225847
0.000233372
0.000242112
0.000251321
0.00025573
0.000252166
0.000241401
0.000225228
0.000211695
0.000200808
0.000194744
0.000195046
0.000194952
0.000190531
0.000184933
0.000174524
0.000151241
0.000115974
8.3712e-05
5.96982e-05
4.3663e-05
3.32064e-05
2.67837e-05
2.47053e-05
2.4312e-05
2.45258e-05
2.58163e-05
3.12729e-05
4.98397e-05
0.000106744
0.000152471
0.000139871
0.000133574
0.000143018
0.000165382
0.000204264
0.000245654
0.000295946
0.000316299
0.000333992
0.000358404
0.000361348
0.000343239
0.000305339
0.000245208
0.000189294
0.000129776
9.37033e-05
7.28038e-05
6.31088e-05
5.93643e-05
6.34057e-05
7.46107e-05
9.70299e-05
0.000151965
0.000306901
0.000574131
0.000788623
0.000962792
0.0010945
0.00115092
0.0011671
0.00114931
0.00108549
0.000958632
0.000849478
0.000785727
0.000741333
0.000709148
0.000691999
0.00068321
0.0006835
0.00069051
0.000704354
0.000721209
0.00074299
0.000769349
0.000796095
0.000820528
0.000839035
0.000853287
0.000865239
0.000872337
0.000875219
0.000874384
0.000872528
0.000869251
0.000864767
0.000857168
0.000845684
0.000830253
0.00081129
0.000791651
0.000765113
0.000728216
0.000682862
0.000637938
0.000600837
0.000575991
0.00056326
0.000562888
0.000571544
0.000587611
0.000608632
0.000632117
0.000657483
0.000683624
0.000717346
0.000775506
0.00094463
0.00118734
0.00136327
0.00145105
0.0015175
0.00156003
0.00157773
0.00159027
0.00159496
0.00157241
0.00154138
0.00150424
0.00146315
0.00142127
0.00138096
0.00134325
0.00130883
0.00127848
0.0012519
0.00122833
0.00120745
0.0011895
0.00117547
0.00116522
0.00115633
0.00114762
0.00113772
0.00112333
0.00110611
0.00109477
0.0010967
0.00111209
0.00113663
0.00115744
0.00118255
0.00120826
5.43619e-06
0.00011102
0.000236196
0.000248623
0.000209871
0.000162405
0.000132557
0.00012411
0.000122898
0.000127353
0.000135361
0.000145355
0.000154618
0.000162924
0.000171509
0.000179838
0.000188034
0.000195595
0.000202183
0.000207919
0.000213371
0.000218734
0.000224
0.000229019
0.000233619
0.000237451
0.000240524
0.000242625
0.000243239
0.000243254
0.000243074
0.000241379
0.000238045
0.000233097
0.000225709
0.000217761
0.000213662
0.000214223
0.000220163
0.000231541
0.000242504
0.0002444
0.000235448
0.000219767
0.000203162
0.000192786
0.000187049
0.000187905
0.00018882
0.00018609
0.000181727
0.000170476
0.000147071
0.000114203
8.50489e-05
6.36057e-05
4.87288e-05
3.8543e-05
3.26988e-05
3.18202e-05
3.57593e-05
4.17331e-05
5.4116e-05
9.7815e-05
0.000183382
0.000186488
0.000189616
0.000210489
0.000257349
0.000323918
0.000383358
0.000431567
0.000479132
0.000490007
0.000474262
0.000461699
0.000463772
0.000463492
0.000448461
0.000416321
0.000358242
0.000275166
0.000205345
0.000150988
0.000126149
0.000116942
0.000123019
0.000153169
0.000221553
0.000383966
0.000628051
0.00083467
0.000989854
0.00111275
0.00118012
0.00120047
0.00119031
0.00115056
0.00104153
0.000912798
0.000802039
0.000743272
0.000717245
0.000703076
0.000703204
0.000718989
0.000742863
0.000766616
0.000789704
0.000814102
0.000834107
0.00084681
0.000855777
0.000862719
0.000866273
0.000870072
0.00087507
0.000878112
0.000878159
0.000876119
0.000873133
0.000871396
0.000873777
0.000878924
0.000886316
0.000893907
0.000893643
0.000876029
0.000844759
0.000805809
0.000754075
0.000694582
0.000639059
0.00059588
0.000570302
0.000559749
0.000563644
0.00057671
0.000597086
0.000622648
0.000651392
0.000678963
0.000700571
0.000714733
0.000734668
0.000776679
0.000937096
0.00117048
0.00135707
0.00144049
0.00150677
0.00155059
0.00156206
0.00157037
0.00157613
0.00155505
0.00152162
0.00148034
0.00143593
0.00139146
0.00134911
0.00131073
0.00127686
0.00124618
0.00121812
0.00119445
0.00117563
0.0011613
0.00115402
0.00115586
0.00116182
0.00115958
0.00114444
0.00110558
0.00107342
0.00106698
0.0010848
0.00111367
0.00114881
0.00119549
5.66307e-06
0.000141904
0.000251093
0.000234802
0.000171739
0.000130745
0.000116829
0.000113385
0.000118294
0.000130309
0.000141706
0.000150964
0.000159919
0.00016917
0.00017902
0.00018761
0.000195612
0.000203816
0.000213144
0.000223867
0.000234412
0.000244285
0.000252894
0.000260029
0.000265167
0.000268374
0.000269353
0.000267913
0.000265008
0.000261353
0.000258163
0.000255368
0.000253043
0.00025168
0.000248263
0.000242187
0.000230489
0.000219323
0.000212394
0.000212292
0.000220129
0.000230587
0.000232702
0.000224794
0.000209716
0.000194466
0.000185712
0.000182179
0.000182929
0.000183366
0.000181511
0.000177353
0.000164344
0.000139547
0.00011169
8.70142e-05
6.92815e-05
5.87828e-05
5.49025e-05
5.62207e-05
5.84029e-05
6.54584e-05
0.000101999
0.000197912
0.000259607
0.000285979
0.000344564
0.0004539
0.000609783
0.00072822
0.000812329
0.000840391
0.000845057
0.00081208
0.000769906
0.000705409
0.000641826
0.000604769
0.000571279
0.00057186
0.000560128
0.000525894
0.000476228
0.000395922
0.000344472
0.000326616
0.000334284
0.000406722
0.000530214
0.00056468
0.000684973
0.000839754
0.00100057
0.00114361
0.00121714
0.00123152
0.00120755
0.00112399
0.000981598
0.000854734
0.000777731
0.000750051
0.000747047
0.000755714
0.00077837
0.000814209
0.000853062
0.000883196
0.000903521
0.000912761
0.000913749
0.00090894
0.000902081
0.000887929
0.000878798
0.000871662
0.000868104
0.000864172
0.000858252
0.000854923
0.000854831
0.000859243
0.000865605
0.000875588
0.000888014
0.000903359
0.000920895
0.000935804
0.000934528
0.000898461
0.000844347
0.000775358
0.000700727
0.000635639
0.000589556
0.00056504
0.000557788
0.000565431
0.00058428
0.000610775
0.000641399
0.000674475
0.000707382
0.000734805
0.000746204
0.000742949
0.000748902
0.000786088
0.000952255
0.00117466
0.00135883
0.00143042
0.00149001
0.00152795
0.00153518
0.0015413
0.00153077
0.00150561
0.00147229
0.00143258
0.00138893
0.00134553
0.00130421
0.00126547
0.00123117
0.00120482
0.00118595
0.00117247
0.0011664
0.0011736
0.00119245
0.00120504
0.00114072
0.00107144
0.00102017
0.000995884
0.000997873
0.00101414
0.0010404
0.00108943
5.7198e-06
0.000161307
0.000240635
0.000185836
0.000118887
0.000100994
9.91044e-05
0.000104146
0.000115663
0.000132079
0.000152276
0.000164509
0.000177699
0.000190248
0.000202369
0.00021429
0.000227297
0.000240033
0.000252665
0.000265683
0.00027863
0.000290677
0.000300954
0.000308638
0.000313086
0.000314064
0.000312752
0.000308044
0.000300591
0.000292148
0.000284812
0.000276938
0.000270434
0.000266413
0.000261868
0.000257888
0.000250839
0.000239236
0.000227564
0.000216904
0.000211998
0.000215075
0.000221638
0.000222937
0.000215066
0.000201209
0.000187279
0.00018135
0.000179926
0.000180848
0.000180386
0.000178222
0.000172609
0.000157388
0.000135008
0.000112535
9.54717e-05
8.56644e-05
8.21235e-05
7.96301e-05
8.07737e-05
0.000109274
0.000190397
0.000283406
0.000422018
0.000557323
0.000739869
0.000914182
0.000973735
0.000999882
0.00100531
0.000997894
0.000996199
0.000997299
0.000995778
0.000989703
0.000965445
0.000888594
0.000794868
0.000717381
0.000674644
0.000674212
0.000675477
0.00067486
0.000644421
0.000633568
0.000635883
0.000615039
0.000596243
0.000634238
0.000716727
0.000817986
0.000928241
0.00102576
0.00108284
0.00110843
0.00110359
0.00104311
0.000940234
0.00084935
0.000801712
0.000802029
0.000801711
0.000820182
0.000865269
0.000932018
0.00097892
0.00100655
0.001017
0.00101453
0.000998294
0.000976348
0.000952062
0.000923338
0.000893952
0.000862364
0.000834509
0.000812725
0.000796787
0.000787025
0.000787489
0.000801043
0.000825316
0.000852956
0.000880531
0.000906544
0.000930971
0.000953795
0.000973318
0.000976516
0.000937091
0.000867106
0.000781294
0.000694862
0.000625856
0.000581985
0.000562131
0.000560168
0.000571819
0.000594361
0.000625311
0.000661662
0.000699712
0.000737111
0.000771532
0.000793209
0.000787438
0.000767568
0.00075975
0.000806464
0.000976402
0.00119563
0.0013583
0.00141183
0.00145843
0.00148103
0.00148417
0.00148754
0.00146709
0.00143549
0.00139633
0.00135473
0.001314
0.00127491
0.00123966
0.00121331
0.00119677
0.00118579
0.00118419
0.00120267
0.00123627
0.00119851
0.00111276
0.00103179
0.000970515