/*--------------------------------*- C++ -*----------------------------------*\
| =========                 |                                                 |
| \\      /  F ield         | OpenFOAM: The Open Source CFD Toolbox           |
|  \\    /   O peration     | Version:  2112                                  |
|   \\  /    A nd           | Website:  www.openfoam.com                      |
|    \\/     M anipulation  |                                                 |
\*---------------------------------------------------------------------------*/
FoamFile
{
    version     2.0;
    format      ascii;
    arch        "LSB;label=32;scalar=64";
    class       volVectorField;
    location    "0.37";
    object      U_0;
}
// * * * * * * * * * * * * * * * * * * * * * * * * * * * * * * * * * * * * * //

dimensions      [0 1 -1 0 0 0 0];

internalField   nonuniform List<vector> 
12225
(
(9.65035 0.0421885 0)
(9.50873 0.04925 0)
(9.22497 0.0571053 0)
(8.87102 0.0497638 0)
(8.4913 0.0532572 0)
(8.12007 0.058936 0)
(7.80326 0.0553562 0)
(7.5544 0.0473097 0)
(7.33555 0.0451356 0)
(7.11183 0.0516578 0)
(6.85262 0.0618107 0)
(6.58056 0.071304 0)
(6.26662 0.0754725 0)
(5.97569 0.0757105 0)
(5.6423 0.0796282 0)
(5.3134 0.0819792 0)
(4.9256 0.092757 0)
(4.53904 0.114942 0)
(9.87963 0.0370235 0)
(9.99519 0.0347607 0)
(10.0652 0.0755626 0)
(10.1069 0.109095 0)
(10.148 0.122778 0)
(10.1824 0.114509 0)
(10.1965 0.0940517 0)
(10.176 0.0787223 0)
(10.1035 0.0765674 0)
(9.99178 0.0866882 0)
(9.85473 0.0994918 0)
(9.72256 0.11126 0)
(9.59086 0.12296 0)
(9.47454 0.131468 0)
(9.35065 0.150804 0)
(9.23379 0.177833 0)
(9.07795 0.206446 0)
(8.89466 0.240187 0)
(9.94608 -0.00337534 0)
(9.87842 0.0212487 0)
(9.82684 0.0509467 0)
(9.84998 0.0399118 0)
(9.93139 0.0332964 0)
(10.0189 0.0389884 0)
(10.0752 0.0522478 0)
(10.0873 0.0731011 0)
(10.0601 0.0990978 0)
(10.0166 0.125716 0)
(9.97706 0.146134 0)
(9.94772 0.158453 0)
(9.92534 0.166076 0)
(9.90121 0.169939 0)
(9.87271 0.178904 0)
(9.84301 0.197 0)
(9.8151 0.226642 0)
(9.77581 0.268075 0)
(9.7365 0.028842 0)
(9.80728 0.0545487 0)
(9.93954 0.0641288 0)
(10.0074 0.0694479 0)
(10.0231 0.0726931 0)
(10.006 0.0746326 0)
(9.97448 0.077054 0)
(9.94672 0.0855976 0)
(9.93066 0.100279 0)
(9.92782 0.116413 0)
(9.9355 0.128846 0)
(9.94353 0.135846 0)
(9.94323 0.142976 0)
(9.93249 0.152157 0)
(9.91079 0.16968 0)
(9.88644 0.200479 0)
(9.86084 0.239883 0)
(9.83654 0.287457 0)
(9.80047 -0.0620036 0)
(10.0171 -0.0432622 0)
(9.97008 0.0131001 0)
(9.92467 0.0364733 0)
(9.9656 0.044006 0)
(10.028 0.0562431 0)
(10.066 0.0736911 0)
(10.0787 0.0922499 0)
(10.0793 0.109363 0)
(10.0784 0.124945 0)
(10.0781 0.13955 0)
(10.0717 0.153089 0)
(10.0506 0.167779 0)
(10.0163 0.183672 0)
(9.97021 0.202272 0)
(9.92147 0.228305 0)
(9.87365 0.260117 0)
(9.83165 0.302363 0)
(9.90446 -0.113274 0)
(9.90193 -0.0173327 0)
(9.92104 0.079942 0)
(9.92343 0.062069 0)
(9.94719 0.0304214 0)
(9.98253 0.0320617 0)
(10.0128 0.0527199 0)
(10.0322 0.0742587 0)
(10.0422 0.0919703 0)
(10.0487 0.109048 0)
(10.0543 0.128277 0)
(10.0547 0.148956 0)
(10.0428 0.170836 0)
(10.0182 0.193517 0)
(9.98145 0.217492 0)
(9.93878 0.24705 0)
(9.89383 0.283014 0)
(9.8538 0.328277 0)
(10.1045 -0.0963627 0)
(9.91649 -0.0791667 0)
(9.96671 0.0174825 0)
(10.0218 0.0482186 0)
(10.0417 0.0381599 0)
(10.0572 0.0404102 0)
(10.0848 0.0632014 0)
(10.111 0.0912241 0)
(10.1188 0.112744 0)
(10.1103 0.127808 0)
(10.0965 0.142379 0)
(10.0794 0.160692 0)
(10.0511 0.183842 0)
(10.0072 0.210656 0)
(9.94885 0.239324 0)
(9.88498 0.27236 0)
(9.82038 0.307727 0)
(9.77052 0.348725 0)
(10.0359 -0.0375112 0)
(9.91808 0.0187381 0)
(9.87228 0.041771 0)
(9.94932 0.0281294 0)
(10.0194 0.00935285 0)
(10.0234 0.00604632 0)
(10.0089 0.0222531 0)
(10.0198 0.0511773 0)
(10.0544 0.0819643 0)
(10.094 0.109835 0)
(10.1242 0.137869 0)
(10.1365 0.170488 0)
(10.125 0.208782 0)
(10.087 0.25031 0)
(10.0242 0.289014 0)
(9.94811 0.324559 0)
(9.87192 0.354847 0)
(9.8036 0.384144 0)
(9.92747 -0.175685 0)
(10.0647 -0.0510304 0)
(10.09 0.00864738 0)
(10.0867 0.000378676 0)
(10.0928 0.0202431 0)
(10.0836 0.0531576 0)
(10.0587 0.0740243 0)
(10.0332 0.0822381 0)
(10.0124 0.0874898 0)
(9.99734 0.0988362 0)
(9.99022 0.121916 0)
(9.99325 0.15871 0)
(10.0054 0.206941 0)
(10.0255 0.261687 0)
(10.0492 0.314397 0)
(10.065 0.359414 0)
(10.0718 0.395674 0)
(10.0527 0.422563 0)
(9.99104 -0.0654119 0)
(9.99435 -0.0110577 0)
(10.0244 0.0406262 0)
(10.0195 0.0231491 0)
(10.0358 0.00588394 0)
(10.0469 0.0113277 0)
(10.0442 0.0346357 0)
(10.0321 0.0650885 0)
(10.0093 0.0939036 0)
(9.97679 0.119221 0)
(9.9394 0.142612 0)
(9.90565 0.166676 0)
(9.88468 0.19384 0)
(9.88371 0.225705 0)
(9.90546 0.264649 0)
(9.94121 0.308771 0)
(9.98292 0.359264 0)
(10.0173 0.412785 0)
(9.7991 -0.0957382 0)
(9.93556 -0.0498842 0)
(10.0532 -0.0113431 0)
(10.0921 -0.00861608 0)
(10.087 0.0141433 0)
(10.0539 0.0562927 0)
(10.0183 0.0898349 0)
(9.9917 0.10813 0)
(9.97062 0.121223 0)
(9.95576 0.138871 0)
(9.95144 0.163989 0)
(9.95838 0.193613 0)
(9.97334 0.223916 0)
(9.99246 0.252705 0)
(10.0118 0.281245 0)
(10.0291 0.311355 0)
(10.0406 0.345594 0)
(10.047 0.386315 0)
(10.1645 -0.104438 0)
(10.0665 -0.0953449 0)
(9.99301 -0.0240325 0)
(9.94225 0.00512791 0)
(9.94139 0.0191339 0)
(9.95716 0.038613 0)
(9.97328 0.0654026 0)
(9.98028 0.0923356 0)
(9.97278 0.112925 0)
(9.96196 0.126934 0)
(9.96181 0.137598 0)
(9.97598 0.149322 0)
(9.99984 0.166825 0)
(10.0267 0.193915 0)
(10.0496 0.233399 0)
(10.0654 0.282878 0)
(10.0693 0.341123 0)
(10.0667 0.402365 0)
(10.3295 -0.0553234 0)
(10.1892 0.0316762 0)
(10.0786 0.0571283 0)
(10.0424 0.026261 0)
(10.0607 0.0127504 0)
(10.0491 0.0365761 0)
(10.0169 0.0738048 0)
(9.99698 0.104227 0)
(9.99777 0.125545 0)
(10.0102 0.142734 0)
(10.0184 0.160083 0)
(10.0084 0.179758 0)
(9.97942 0.203156 0)
(9.93926 0.23117 0)
(9.90375 0.264426 0)
(9.88138 0.304677 0)
(9.87566 0.350092 0)
(9.88665 0.402389 0)
(9.89966 -0.0808787 0)
(9.90402 -0.016402 0)
(9.95864 0.0160523 0)
(10.0391 -0.00105908 0)
(10.0914 0.00768411 0)
(10.0918 0.0608262 0)
(10.0724 0.106683 0)
(10.05 0.119068 0)
(10.021 0.112625 0)
(9.98812 0.11323 0)
(9.95882 0.13341 0)
(9.93618 0.168126 0)
(9.92129 0.207197 0)
(9.91597 0.24303 0)
(9.92484 0.274399 0)
(9.94689 0.305052 0)
(9.98376 0.336894 0)
(10.0268 0.37615 0)
(9.98121 -0.00432966 0)
(9.84667 0.0159121 0)
(9.82617 -0.000321195 0)
(9.87404 -0.0267782 0)
(9.94771 -0.0135797 0)
(10.0008 0.0344515 0)
(10.0479 0.0873571 0)
(10.0921 0.130667 0)
(10.1118 0.163832 0)
(10.1007 0.190208 0)
(10.069 0.210454 0)
(10.0309 0.222627 0)
(9.99666 0.227099 0)
(9.97498 0.226002 0)
(9.96685 0.225063 0)
(9.97526 0.231737 0)
(9.99336 0.249523 0)
(10.0236 0.285441 0)
(9.79926 0.150152 0)
(9.83831 0.124625 0)
(9.91629 -0.0306067 0)
(10.0044 -0.118812 0)
(10.0722 -0.104732 0)
(10.0802 -0.0358548 0)
(10.0729 0.0320764 0)
(10.0825 0.0778089 0)
(10.1064 0.113222 0)
(10.1371 0.153073 0)
(10.1684 0.197938 0)
(10.1933 0.238878 0)
(10.2056 0.267592 0)
(10.2035 0.283202 0)
(10.1862 0.288994 0)
(10.1584 0.292828 0)
(10.1233 0.299864 0)
(10.0874 0.315048 0)
(10.0437 -0.000875305 0)
(10.0947 -0.0923802 0)
(10.1621 -0.157804 0)
(10.1584 -0.124029 0)
(10.0723 -0.0315882 0)
(9.9791 0.048875 0)
(9.9317 0.0902829 0)
(9.92023 0.0957369 0)
(9.91858 0.0906102 0)
(9.92143 0.0983627 0)
(9.93622 0.124484 0)
(9.96559 0.161611 0)
(10.007 0.2012 0)
(10.0538 0.239945 0)
(10.1008 0.278227 0)
(10.1406 0.317029 0)
(10.1737 0.356459 0)
(10.1949 0.39526 0)
(10.2158 0.0414463 0)
(10.2215 0.0581023 0)
(10.152 -0.0134073 0)
(10.0804 0.0112246 0)
(10.0272 0.0776839 0)
(9.99659 0.108176 0)
(10.005 0.107432 0)
(10.0286 0.11038 0)
(10.0448 0.129208 0)
(10.0511 0.151135 0)
(10.0547 0.160126 0)
(10.063 0.152624 0)
(10.0809 0.137551 0)
(10.1101 0.127083 0)
(10.1482 0.128407 0)
(10.191 0.14406 0)
(10.2326 0.170947 0)
(10.27 0.208323 0)
(9.83328 0.166503 0)
(9.91181 -0.0211303 0)
(9.98173 -0.044593 0)
(10.0176 0.00944325 0)
(10.0404 0.0497433 0)
(10.0558 0.0597268 0)
(10.0705 0.0410202 0)
(10.0872 0.0205027 0)
(10.1058 0.0221796 0)
(10.1246 0.0459629 0)
(10.137 0.0748238 0)
(10.1366 0.0932033 0)
(10.1218 0.0979508 0)
(10.0983 0.0991212 0)
(10.0725 0.111192 0)
(10.0526 0.143051 0)
(10.0398 0.19563 0)
(10.0404 0.261587 0)
(10.1418 -0.126998 0)
(10.0799 -0.156985 0)
(10.0731 -0.14979 0)
(10.0296 -0.0384414 0)
(10.0121 0.0489548 0)
(10.0125 0.0699035 0)
(10.0225 0.0578812 0)
(10.0334 0.051355 0)
(10.0391 0.0674691 0)
(10.046 0.104116 0)
(10.0614 0.150346 0)
(10.0829 0.195133 0)
(10.1027 0.22859 0)
(10.1142 0.245796 0)
(10.1155 0.245464 0)
(10.1092 0.233852 0)
(10.1024 0.214668 0)
(10.1009 0.196402 0)
(10.0392 0.0325116 0)
(10.0056 0.0543387 0)
(9.98758 0.00625911 0)
(9.96102 0.0366259 0)
(9.94312 0.0559982 0)
(9.94599 0.0382153 0)
(9.96766 0.0128138 0)
(10.0047 0.00265494 0)
(10.0518 0.00634581 0)
(10.102 0.0134673 0)
(10.1505 0.0208656 0)
(10.1955 0.0323791 0)
(10.2371 0.0540593 0)
(10.2763 0.0880428 0)
(10.3137 0.128403 0)
(10.3476 0.166198 0)
(10.3777 0.195379 0)
(10.4009 0.212039 0)
(10.2478 0.034492 0)
(10.2873 -0.0781419 0)
(10.2721 -0.0631736 0)
(10.2135 0.0102028 0)
(10.1686 0.0533215 0)
(10.148 0.0391867 0)
(10.1328 -0.00554594 0)
(10.1245 -0.0437125 0)
(10.126 -0.0515556 0)
(10.1331 -0.0245357 0)
(10.1359 0.0229211 0)
(10.1289 0.0719044 0)
(10.1172 0.109516 0)
(10.1112 0.131634 0)
(10.1185 0.140796 0)
(10.1411 0.14284 0)
(10.1758 0.142305 0)
(10.2179 0.142558 0)
(10.0764 -0.22115 0)
(10.0496 -0.0215215 0)
(10.1283 0.106259 0)
(10.2207 0.124312 0)
(10.25 0.109641 0)
(10.2235 0.0759626 0)
(10.1748 0.0329196 0)
(10.1297 -0.00316794 0)
(10.1056 -0.0173014 0)
(10.1063 -0.00664928 0)
(10.1252 0.0192712 0)
(10.153 0.0479505 0)
(10.1803 0.0680584 0)
(10.2034 0.0758965 0)
(10.2258 0.0742601 0)
(10.2516 0.0685336 0)
(10.2835 0.0628192 0)
(10.3208 0.0614964 0)
(10.0528 -0.0294335 0)
(9.91931 -0.105565 0)
(9.96839 -0.13691 0)
(10.1228 -0.0673216 0)
(10.272 0.0375448 0)
(10.3453 0.0965091 0)
(10.3589 0.0844662 0)
(10.3462 0.0304266 0)
(10.3227 -0.0203057 0)
(10.3003 -0.0384358 0)
(10.2869 -0.0183978 0)
(10.2832 0.0231459 0)
(10.2871 0.0632809 0)
(10.2972 0.0859721 0)
(10.3113 0.0873539 0)
(10.3274 0.0740666 0)
(10.3428 0.0548822 0)
(10.3552 0.041271 0)
(10.1012 0.019738 0)
(10.1166 0.00524148 0)
(10.0343 -0.0657716 0)
(9.94536 -0.0758597 0)
(9.93678 -0.0353587 0)
(9.99164 0.0112435 0)
(10.059 0.0319394 0)
(10.105 0.026142 0)
(10.1169 0.0143265 0)
(10.1017 0.0138213 0)
(10.0816 0.0244519 0)
(10.0765 0.0368738 0)
(10.0924 0.0441286 0)
(10.1239 0.0431364 0)
(10.1625 0.0361758 0)
(10.2006 0.0285553 0)
(10.2336 0.0248712 0)
(10.2602 0.0290987 0)
(10.0278 -0.068551 0)
(10.012 -0.0256771 0)
(10.0528 -0.0417394 0)
(10.0753 -0.0251578 0)
(10.0651 0.0034171 0)
(10.0322 0.0148481 0)
(9.99877 0.00852221 0)
(9.98063 -0.00391863 0)
(9.97824 -0.00969674 0)
(9.98854 -0.00381523 0)
(10.013 0.00989511 0)
(10.0526 0.0235304 0)
(10.1033 0.0304884 0)
(10.1578 0.0284547 0)
(10.21 0.0194486 0)
(10.2565 0.00834926 0)
(10.2968 -0.00109304 0)
(10.3308 -0.00426566 0)
(9.9979 0.0878854 0)
(10.1208 -0.00439617 0)
(10.0828 -0.0879995 0)
(10.0193 -0.0661628 0)
(10.0257 -0.00126686 0)
(10.0791 0.041843 0)
(10.1364 0.0480777 0)
(10.1767 0.029801 0)
(10.1967 0.00588635 0)
(10.2049 -0.0129006 0)
(10.2167 -0.0238012 0)
(10.2435 -0.0303487 0)
(10.285 -0.0360615 0)
(10.3333 -0.0419188 0)
(10.3794 -0.0465026 0)
(10.4176 -0.0475364 0)
(10.4452 -0.0441556 0)
(10.4625 -0.0364476 0)
(9.83289 -0.011567 0)
(9.91294 -0.0110009 0)
(9.91476 -0.0159672 0)
(9.85961 -0.0198838 0)
(9.85371 -0.0216775 0)
(9.92012 -0.0266884 0)
(10.0134 -0.0302136 0)
(10.0973 -0.0266265 0)
(10.159 -0.0182958 0)
(10.2003 -0.0130199 0)
(10.2302 -0.0146479 0)
(10.2538 -0.0217066 0)
(10.2704 -0.0304248 0)
(10.2785 -0.0373993 0)
(10.2794 -0.0403825 0)
(10.2778 -0.0384407 0)
(10.2775 -0.0321396 0)
(10.2829 -0.02255 0)
(10.0346 0.0414015 0)
(9.94817 -0.0403509 0)
(9.88504 -0.0567716 0)
(9.92054 -0.0371118 0)
(10.0234 -0.0285576 0)
(10.1353 -0.0359954 0)
(10.2217 -0.0435973 0)
(10.2801 -0.0456827 0)
(10.3097 -0.0465406 0)
(10.3062 -0.0484122 0)
(10.2751 -0.05031 0)
(10.2337 -0.0506693 0)
(10.1991 -0.049858 0)
(10.1822 -0.0492679 0)
(10.1846 -0.0497967 0)
(10.2024 -0.051144 0)
(10.2284 -0.0527285 0)
(10.256 -0.0538825 0)
(9.74438 0.00826815 0)
(9.77808 0.0257079 0)
(9.74111 -0.00108459 0)
(9.58523 -0.0590241 0)
(9.39363 -0.0861592 0)
(9.19205 -0.0889192 0)
(8.98698 -0.0798015 0)
(8.811 -0.0587232 0)
(8.68709 -0.0295944 0)
(8.61039 -0.00305636 0)
(8.56208 0.0107294 0)
(8.52081 0.00776887 0)
(8.46704 -0.00842622 0)
(8.39045 -0.0299741 0)
(8.29004 -0.0480847 0)
(8.17729 -0.057477 0)
(8.06086 -0.0567348 0)
(7.95622 -0.0479614 0)
(-0.062674 0.127559 -2.76616e-21)
(-0.26817 0.154922 2.75759e-21)
(-0.480677 0.193389 0)
(-0.677734 0.184617 0)
(-0.826677 0.132207 0)
(-0.900575 0.0594638 -2.79054e-21)
(-0.888969 -0.0261025 0)
(-0.795206 -0.116399 0)
(-0.61652 -0.204125 0)
(-0.36026 -0.285207 0)
(-0.0253679 -0.353718 2.60335e-21)
(0.361206 -0.391982 0)
(0.774628 -0.39601 0)
(1.2007 -0.365605 0)
(1.60871 -0.298027 0)
(1.95689 -0.221652 2.5735e-21)
(2.22019 -0.173129 0)
(2.40942 -0.151154 0)
(2.54341 -0.126814 0)
(2.634 -0.089011 0)
(2.68783 -0.0495719 0)
(2.7254 -0.00320523 0)
(2.7251 0.0784231 0)
(2.61283 0.204523 2.69967e-21)
(2.37867 0.31368 -2.61911e-21)
(2.10736 0.337241 2.52464e-21)
(1.73358 0.409921 2.43265e-21)
(1.31993 0.569276 0)
(1.16681 0.322572 0)
(1.22313 -0.451518 -2.19254e-21)
(1.30239 -0.976552 -2.17075e-21)
(1.31762 -0.540138 0)
(0.96362 0.311761 0)
(0.332736 0.524676 -2.26705e-21)
(-0.243673 0.494121 0)
(-0.86126 0.516333 0)
(-1.46693 0.553688 2.59027e-21)
(-2.08422 0.56467 0)
(-2.67253 0.540513 2.96936e-21)
(-3.22038 0.499537 6.39154e-21)
(-3.71228 0.444173 0)
(-4.13992 0.380251 0)
(-4.49707 0.312892 0)
(-4.78303 0.246061 0)
(-5.00191 0.18195 0)
(-5.16141 0.125262 9.25001e-21)
(-5.27141 0.0809401 9.62836e-21)
(-5.3462 0.0509888 9.94831e-21)
(-5.40824 0.0346593 0)
(-5.48228 0.0324312 -1.03596e-20)
(-5.59078 0.0426026 0)
(-5.75557 0.0621233 1.0381e-20)
(-5.98897 0.0913463 1.02366e-20)
(-6.29391 0.135976 0)
(-6.66283 0.209384 0)
(-7.08117 0.325796 0)
(-7.52964 0.480395 9.05035e-21)
(-7.98125 0.624737 0)
(-8.39346 0.667636 0)
(-8.69937 0.530322 0)
(-8.81993 0.228228 0)
(-8.71162 -0.108184 0)
(-8.41922 -0.317177 0)
(-8.03136 -0.364163 0)
(-7.60467 -0.326406 0)
(-7.16251 -0.284196 -4.76274e-21)
(-6.71455 -0.272335 0)
(-6.26731 -0.289632 0)
(-5.82316 -0.318865 3.22793e-21)
(-5.38037 -0.33827 2.75124e-21)
(-4.93777 -0.331768 0)
(-4.49914 -0.301616 -1.85433e-21)
(-4.07559 -0.268156 1.43411e-21)
(-3.68008 -0.247655 0)
(-3.31495 -0.233029 -6.55113e-22)
(-2.97309 -0.211309 0)
(-2.6467 -0.194175 0)
(-2.30774 -0.204018 -3.66983e-22)
(-1.92184 -0.228939 0)
(-1.50721 -0.245374 9.17066e-22)
(-1.06884 -0.248637 0)
(-0.622412 -0.251341 -1.3284e-21)
(-0.169221 -0.251803 -1.4842e-21)
(0.2851 -0.249451 -1.60929e-21)
(0.738501 -0.249543 -3.41519e-21)
(1.19801 -0.251266 3.56745e-21)
(1.66713 -0.257641 0)
(2.15132 -0.267908 0)
(2.67303 -0.272394 0)
(3.18255 -0.267942 3.75341e-21)
(3.71239 -0.241898 3.68957e-21)
(4.13578 -0.181943 -3.6282e-21)
(4.44183 -0.0516278 0)
(4.44419 0.142418 3.9365e-21)
(4.0922 0.368838 4.48269e-21)
(3.22056 0.675661 5.20598e-21)
(1.78285 0.627153 0)
(0.545225 -0.0421057 0)
(1.1583 -0.645962 0)
(1.41327 -1.56646 5.25646e-21)
(1.60783 -0.205494 0)
(-1.51801 1.45987 0)
(-4.22947 1.31308 -2.83146e-21)
(-6.4985 1.09199 0)
(-8.35639 0.851902 0)
(-9.81582 0.659662 6.77523e-21)
(-10.9659 0.491114 0)
(-11.8269 0.35822 0)
(-12.4491 0.242092 -1.40593e-20)
(-12.8514 0.14711 -1.5356e-20)
(-13.0655 0.065011 0)
(-13.1095 -0.00158581 1.62532e-20)
(-13.0151 -0.0568941 0)
(-12.8095 -0.100973 -1.52502e-20)
(-12.5036 -0.137338 0)
(-12.1182 -0.165786 -1.29537e-20)
(-11.6672 -0.187999 -1.15234e-20)
(-11.1656 -0.204501 0)
(-10.6234 -0.216951 0)
(-10.0477 -0.22664 0)
(-9.44147 -0.235059 0)
(-8.80529 -0.243196 0)
(-8.13861 -0.251405 0)
(-7.44208 -0.258895 0)
(-6.71938 -0.264219 2.26514e-22)
(-5.97831 -0.26585 -1.39111e-21)
(-5.23011 -0.262743 0)
(-4.48531 -0.255642 0)
(-3.75189 -0.246093 0)
(-3.03547 -0.234863 0)
(-2.33811 -0.222703 -1.01164e-20)
(-1.65957 -0.210831 0)
(-1.00279 -0.198301 1.13546e-20)
(-0.373488 -0.183836 -1.17128e-20)
(0.21641 -0.172661 0)
(0.762543 -0.157644 0)
(1.27197 -0.144481 0)
(1.74559 -0.13264 1.16613e-20)
(2.18723 -0.121534 1.13881e-20)
(2.59633 -0.109394 0)
(2.96634 -0.0960335 1.06506e-20)
(3.29209 -0.0844315 1.02222e-20)
(3.57826 -0.0770106 -9.79119e-21)
(3.83878 -0.0739933 0)
(4.08716 -0.0737451 0)
(4.3313 -0.0765574 -8.72884e-21)
(4.58301 -0.0837035 0)
(4.8603 -0.0937234 0)
(5.17538 -0.102108 0)
(5.52144 -0.106763 0)
(5.88205 -0.115892 8.762e-21)
(6.28007 -0.136103 9.19984e-21)
(6.76417 -0.177902 0)
(7.42471 -0.221496 1.05203e-20)
(8.24703 -0.247791 0)
(9.16065 -0.268094 0)
(10.1216 -0.262718 1.22636e-20)
(11.0471 -0.320164 0)
(12.3762 -0.355496 1.33229e-20)
(13.7548 -0.350151 0)
(15.2318 -0.360656 0)
(16.271 0.30358 1.07174e-20)
(14.5774 1.25466 0)
(9.73068 1.58435 1.37913e-20)
(4.05001 0.84755 0)
(1.71224 -0.720324 0)
(1.77236 -0.94226 0)
(2.05319 0.196647 -5.98012e-21)
(1.21047 0.495108 0)
(0.372888 0.158248 1.66969e-21)
(-0.267914 -0.0369978 0)
(-0.315624 -0.0565573 0)
(0.032475 -0.0813035 0)
(0.335973 -0.0440399 0)
(0.402154 0.0247783 0)
(0.190667 0.0831178 0)
(-0.203853 0.101229 0)
(-0.68276 0.0953586 2.19304e-22)
(-1.16252 0.0853228 0)
(-1.54144 0.0517748 0)
(-0.0799485 0.586653 8.28617e-21)
(-0.293583 0.704493 -8.27347e-21)
(-0.470877 0.638441 0)
(-0.59209 0.508345 5.60685e-21)
(-0.652424 0.319432 0)
(-0.637379 0.0825742 2.79299e-21)
(-0.568015 -0.178374 -5.71644e-21)
(-0.44337 -0.445658 -5.69959e-21)
(-0.257543 -0.702294 0)
(-0.0139381 -0.93096 -5.55705e-21)
(0.300539 -1.10982 -2.60007e-21)
(0.644911 -1.21874 0)
(1.00751 -1.27752 0)
(1.37724 -1.27994 0)
(1.7424 -1.15976 0)
(2.07245 -0.9172 -2.57062e-21)
(2.32956 -0.653998 0)
(2.52147 -0.441515 5.53593e-21)
(2.68638 -0.275906 0)
(2.8229 -0.161984 0)
(2.93211 -0.098098 -5.81838e-21)
(3.00667 -0.0181208 0)
(3.0316 0.168639 5.82274e-21)
(2.95225 0.44813 -2.69571e-21)
(2.75957 0.647769 2.61435e-21)
(2.54634 0.773347 -2.51943e-21)
(2.33192 0.923263 -2.42713e-21)
(2.10065 0.535478 0)
(1.83586 -0.197929 0)
(1.21104 0.16915 2.19479e-21)
(0.0125674 0.940102 -2.188e-21)
(-0.955274 1.21112 0)
(-1.68284 1.39333 0)
(-2.38932 1.46342 2.2549e-21)
(-3.04124 1.49817 0)
(-3.67059 1.48712 0)
(-4.23393 1.44077 -2.57029e-21)
(-4.75286 1.35696 0)
(-5.21779 1.24651 3.32121e-21)
(-5.63608 1.11691 -6.35006e-21)
(-6.00576 0.975998 0)
(-6.33018 0.828694 0)
(-6.60794 0.67983 -1.63184e-20)
(-6.8396 0.534938 -1.72604e-20)
(-7.02541 0.400867 -1.81534e-20)
(-7.16874 0.28663 9.76691e-21)
(-7.27715 0.202962 -9.58548e-21)
(-7.36216 0.160725 -3.02247e-20)
(-7.43639 0.168827 2.07958e-20)
(-7.51826 0.232181 1.03143e-20)
(-7.62962 0.347482 0)
(-7.78758 0.499604 -1.03344e-20)
(-8.00174 0.660173 1.05945e-20)
(-8.26262 0.79036 0)
(-8.5368 0.849914 0)
(-8.76551 0.811183 0)
(-8.88021 0.6731 -9.02258e-21)
(-8.83 0.461611 0)
(-8.61066 0.215079 1.6927e-20)
(-8.26658 -0.0243735 0)
(-7.86799 -0.239265 1.51903e-20)
(-7.48685 -0.426933 0)
(-7.1417 -0.577655 -1.30692e-20)
(-6.80217 -0.698341 0)
(-6.45022 -0.793167 1.08543e-20)
(-6.0891 -0.850617 -4.99721e-21)
(-5.73178 -0.860195 0)
(-5.38595 -0.83084 -7.67046e-21)
(-5.05236 -0.789737 -3.23037e-21)
(-4.73397 -0.762159 -2.75273e-21)
(-4.4374 -0.751918 0)
(-4.16059 -0.743384 -2.00962e-21)
(-3.89103 -0.719514 -1.43383e-21)
(-3.62301 -0.674367 0)
(-3.35995 -0.617952 6.54742e-22)
(-3.08503 -0.575437 -6.65459e-22)
(-2.76591 -0.568462 0)
(-2.40425 -0.604306 3.66709e-22)
(-2.00692 -0.66687 0)
(-1.60212 -0.720064 -2.65004e-21)
(-1.18202 -0.739154 0)
(-0.759449 -0.742477 3.86513e-21)
(-0.335575 -0.739537 1.48296e-21)
(0.0877993 -0.731626 -1.47476e-21)
(0.508874 -0.728484 -3.12437e-21)
(0.933233 -0.735467 3.24998e-21)
(1.3778 -0.75908 0)
(1.83949 -0.79364 0)
(2.3478 -0.809883 0)
(2.87026 -0.81257 -1.08125e-20)
(3.42783 -0.750047 -3.6885e-21)
(3.90613 -0.548462 3.62759e-21)
(4.25177 -0.197165 0)
(4.34303 0.260989 3.12313e-21)
(4.21053 0.796756 -4.47817e-21)
(3.76988 1.39952 -5.19446e-21)
(3.07941 1.66212 0)
(1.67336 0.855294 0)
(2.02798 -0.368502 0)
(-0.848708 1.30665 -5.25198e-21)
(-3.13691 2.83993 0)
(-5.65647 3.4872 5.87497e-21)
(-7.22267 2.95237 4.34845e-21)
(-8.64695 2.49329 4.10894e-21)
(-9.67827 1.97309 0)
(-10.5871 1.56115 9.48734e-21)
(-11.2576 1.18809 0)
(-11.8131 0.876134 2.62145e-20)
(-12.1866 0.596212 -1.56582e-20)
(-12.4436 0.353949 -1.67253e-20)
(-12.5531 0.140047 0)
(-12.5569 -0.0429719 -4.97877e-20)
(-12.4366 -0.199462 3.277e-20)
(-12.2115 -0.329879 1.52573e-20)
(-11.8928 -0.437384 0)
(-11.5005 -0.522935 1.29573e-20)
(-11.0462 -0.589215 3.49895e-20)
(-10.5467 -0.638901 0)
(-10.01 -0.676303 1.71856e-20)
(-9.44433 -0.705954 1.40451e-20)
(-8.85055 -0.732324 1.09733e-20)
(-8.22935 -0.758649 0)
(-7.57795 -0.786281 0)
(-6.89643 -0.81293 0)
(-6.1873 -0.833841 -2.08618e-23)
(-5.45869 -0.843935 1.39081e-21)
(-4.72261 -0.839934 0)
(-3.99048 -0.824031 6.39285e-21)
(-3.26923 -0.801173 7.84409e-21)
(-2.56346 -0.774131 0)
(-1.87267 -0.744448 1.01144e-20)
(-1.19258 -0.714547 2.1289e-20)
(-0.52376 -0.682184 -1.13531e-20)
(0.122708 -0.641804 -1.14081e-20)
(0.7355 -0.599788 0)
(1.30783 -0.552028 0)
(1.83928 -0.507474 0)
(2.33302 -0.46811 -1.16486e-20)
(2.79531 -0.432582 1.12306e-20)
(3.22821 -0.393931 2.194e-20)
(3.62423 -0.348281 -1.06398e-20)
(3.97358 -0.302975 1.00919e-20)
(4.2763 -0.267622 9.78184e-21)
(4.54487 -0.245991 0)
(4.79341 -0.233782 0)
(5.02952 -0.230032 -8.57356e-21)
(5.26241 -0.241197 0)
(5.5156 -0.266543 0)
(5.80595 -0.294748 1.65319e-20)
(6.13232 -0.310371 0)
(6.46736 -0.324167 8.46849e-21)
(6.81313 -0.374314 -9.19198e-21)
(7.24771 -0.48877 0)
(7.83921 -0.639585 1.01147e-20)
(8.64647 -0.739582 0)
(9.52904 -0.771374 0)
(10.4385 -0.779478 -1.22507e-20)
(11.2794 -0.934818 2.49986e-20)
(12.4502 -1.19696 -1.33038e-20)
(14.1478 -1.19497 0)
(15.6607 -0.84919 0)
(16.775 0.0780475 7.25957e-21)
(17.3494 1.76891 0)
(16.3043 3.27324 7.07138e-21)
(12.674 3.21902 0)
(9.8719 2.12587 0)
(5.04128 0.710707 0)
(1.61567 0.0604116 5.97188e-21)
(0.895138 0.368744 0)
(0.277416 0.578689 -1.66906e-21)
(-0.267865 0.428484 0)
(-0.314738 -0.0796907 0)
(-0.000157959 -0.22909 1.20347e-21)
(0.293508 -0.138341 -2.33026e-21)
(0.359451 0.0422503 0)
(0.171078 0.203873 0)
(-0.181123 0.292043 0)
(-0.635259 0.327424 -6.49194e-22)
(-1.12992 0.328477 0)
(-1.58584 0.261444 7.63629e-21)
(0.0168796 0.857486 -9.90937e-23)
(-0.0303193 0.897982 1.09421e-20)
(-0.0264828 0.766834 0)
(0.02373 0.529876 -1.11522e-20)
(0.138596 0.2308 0)
(0.275318 -0.0947178 0)
(0.422796 -0.423258 -1.38399e-23)
(0.602213 -0.766277 5.69383e-21)
(0.798381 -1.11023 5.75632e-21)
(1.00974 -1.43336 5.53907e-21)
(1.23773 -1.69598 0)
(1.4658 -1.84437 0)
(1.69836 -1.89403 -5.45157e-21)
(1.91574 -1.8657 -1.08431e-20)
(2.09795 -1.68654 1.08974e-20)
(2.25193 -1.36085 0)
(2.38105 -1.06103 1.13023e-20)
(2.51591 -0.884093 -5.53294e-21)
(2.69834 -0.744263 0)
(2.88762 -0.589624 1.22432e-20)
(2.99487 -0.434964 5.81442e-21)
(3.00881 -0.20295 -1.26924e-20)
(2.93533 0.191059 -5.82052e-21)
(2.73035 0.641454 0)
(2.40649 0.91971 1.18585e-20)
(1.95305 1.02209 1.12172e-20)
(1.42777 1.17247 0)
(0.651636 1.52646 9.86442e-21)
(-0.504972 1.99745 0)
(-1.54791 2.30176 9.43095e-21)
(-2.40911 2.40743 4.33712e-21)
(-3.10852 2.44909 0)
(-3.75265 2.49428 0)
(-4.33434 2.48063 0)
(-4.87174 2.42058 0)
(-5.36967 2.32311 0)
(-5.83695 2.20219 0)
(-6.27986 2.05652 1.2906e-20)
(-6.70054 1.89096 -1.99878e-20)
(-7.09944 1.70745 0)
(-7.47204 1.50875 0)
(-7.81472 1.29882 0)
(-8.12293 1.08424 -1.16746e-21)
(-8.39312 0.872984 1.71931e-20)
(-8.62159 0.674874 3.72346e-20)
(-8.80612 0.5013 -3.8816e-20)
(-8.94565 0.364971 -2.05823e-20)
(-9.04089 0.279693 2.02444e-20)
(-9.09275 0.258267 8.28543e-22)
(-9.1014 0.308227 2.18001e-20)
(-9.067 0.425896 0)
(-8.99097 0.591006 2.17163e-20)
(-8.87615 0.765098 6.30781e-22)
(-8.72603 0.896398 0)
(-8.54339 0.935768 0)
(-8.32859 0.852531 -1.95592e-20)
(-8.08512 0.646329 0)
(-7.82238 0.342916 0)
(-7.53753 -0.0125143 1.74989e-20)
(-7.23697 -0.3767 3.26887e-20)
(-6.94743 -0.701024 -1.52079e-20)
(-6.67538 -0.944531 0)
(-6.41352 -1.09559 1.308e-20)
(-6.15654 -1.16312 0)
(-5.90035 -1.17029 1.14894e-20)
(-5.6415 -1.14736 9.76884e-21)
(-5.37583 -1.1206 -1.79989e-20)
(-5.10056 -1.10208 -8.20963e-21)
(-4.81988 -1.08632 0)
(-4.54479 -1.05757 1.18273e-20)
(-4.28662 -1.00546 0)
(-4.05274 -0.939632 1.19075e-20)
(-3.8413 -0.885054 6.26685e-21)
(-3.63305 -0.856155 4.58349e-21)
(-3.40059 -0.851284 -3.00283e-21)
(-3.11997 -0.881192 2.19554e-21)
(-2.7669 -0.952616 0)
(-2.35733 -1.0374 0)
(-1.94256 -1.11217 2.1895e-21)
(-1.55559 -1.15879 4.90182e-21)
(-1.17063 -1.1762 0)
(-0.779039 -1.17759 -2.53607e-21)
(-0.389258 -1.16479 0)
(0.00274518 -1.14922 8.85608e-21)
(0.392522 -1.14303 4.26777e-22)
(0.789303 -1.16198 -4.78426e-22)
(1.20954 -1.21174 -6.46847e-21)
(1.66126 -1.28466 0)
(2.16091 -1.348 6.46861e-21)
(2.70982 -1.37354 7.53131e-22)
(3.28534 -1.28097 0)
(3.80123 -0.95813 0)
(4.16565 -0.389648 0)
(4.19731 0.352841 -7.05956e-21)
(3.85604 1.11072 0)
(3.36394 1.8888 0)
(2.64221 2.51716 0)
(1.53071 1.38316 0)
(0.0169041 1.5968 0)
(-3.09587 3.57784 -9.47579e-21)
(-5.10754 4.71859 0)
(-6.54663 4.69831 -5.85649e-21)
(-7.28788 4.01417 -1.53394e-21)
(-8.24509 3.38127 -4.10465e-21)
(-8.96514 2.73134 0)
(-9.79028 2.20168 -1.62449e-20)
(-10.4193 1.70948 0)
(-10.9961 1.27722 -2.62259e-20)
(-11.3778 0.87614 2.97335e-20)
(-11.6467 0.517258 1.0019e-19)
(-11.7485 0.192827 0)
(-11.737 -0.091973 1.03641e-19)
(-11.5968 -0.340738 3.53792e-20)
(-11.364 -0.55052 0)
(-11.0394 -0.723634 6.00063e-20)
(-10.6496 -0.860687 5.43977e-20)
(-10.2027 -0.96567 -7.16926e-20)
(-9.7183 -1.04284 0)
(-9.20311 -1.09968 -1.71908e-20)
(-8.66526 -1.14397 -1.40485e-20)
(-8.10413 -1.18365 -3.37244e-20)
(-7.51888 -1.22432 0)
(-6.90443 -1.26892 0)
(-6.25915 -1.31367 0)
(-5.58613 -1.34965 -5.61821e-22)
(-4.89534 -1.3674 0)
(-4.20293 -1.36098 0)
(-3.52294 -1.33457 -6.391e-21)
(-2.86159 -1.29711 -7.84149e-21)
(-2.22163 -1.25583 0)
(-1.59624 -1.21529 0)
(-0.976077 -1.17675 -2.12785e-20)
(-0.353241 -1.1332 0)
(0.26703 -1.07693 2.30982e-20)
(0.868428 -1.00329 2.30811e-20)
(1.43536 -0.921954 0)
(1.95974 -0.845721 0)
(2.44341 -0.780127 -2.28489e-20)
(2.89516 -0.72369 -2.38122e-22)
(3.31953 -0.662219 -2.11597e-22)
(3.70711 -0.586089 0)
(4.04452 -0.50622 -4.0401e-20)
(4.3312 -0.44045 0)
(4.58322 -0.398218 0)
(4.81721 -0.372262 0)
(5.03864 -0.360477 1.72906e-20)
(5.25606 -0.375456 0)
(5.49315 -0.418068 -3.25198e-20)
(5.76742 -0.46734 -1.65279e-20)
(6.06566 -0.492714 0)
(6.36354 -0.507453 -1.72197e-20)
(6.66683 -0.58956 0)
(7.05957 -0.784168 0)
(7.59394 -1.04196 -6.05664e-20)
(8.29981 -1.21878 4.21005e-20)
(9.10894 -1.25971 0)
(9.91959 -1.24165 4.54731e-20)
(10.6331 -1.43673 -2.49944e-20)
(11.4337 -1.96266 0)
(13.0096 -2.15014 0)
(15.2589 -1.55745 0)
(16.7351 -0.311362 -4.61827e-20)
(17.1825 1.60421 0)
(17.5841 3.69069 -2.06973e-20)
(16.287 4.46061 0)
(14.3048 3.73423 0)
(10.802 2.8062 0)
(6.64897 2.06797 0)
(3.46473 1.3367 0)
(1.04002 0.753404 0)
(0.119247 0.201612 3.62297e-21)
(-0.0912843 -0.262065 0)
(0.167373 -0.387157 -1.20313e-21)
(0.512079 -0.216067 7.45811e-21)
(0.611454 0.0744229 0)
(0.434892 0.330976 0)
(0.0713669 0.470021 -2.72256e-21)
(-0.419508 0.529039 4.2989e-22)
(-0.95196 0.542424 -4.2412e-21)
(-1.44499 0.480124 -7.63386e-21)
(0.148576 0.657716 -1.57455e-20)
(0.329766 0.829004 -1.56772e-20)
(0.547731 0.581686 -1.02861e-20)
(0.784666 0.211085 -4.87422e-21)
(1.05641 -0.155696 0)
(1.34016 -0.479093 1.07966e-20)
(1.62308 -0.778566 -5.31858e-21)
(1.90247 -1.08237 0)
(2.15375 -1.39478 -5.73e-21)
(2.35223 -1.68614 0)
(2.49487 -1.92187 1.12956e-20)
(2.56982 -2.05904 0)
(2.59265 -2.09578 5.43474e-21)
(2.57345 -2.0252 1.08185e-20)
(2.5072 -1.77679 -1.08831e-20)
(2.42994 -1.40646 0)
(2.37771 -1.15552 -1.13009e-20)
(2.34622 -1.09506 0)
(2.33583 -0.998909 0)
(2.30754 -0.750186 -1.22605e-20)
(2.14137 -0.381886 0)
(1.80666 0.122201 -7.29718e-22)
(1.38772 0.735907 0)
(0.876308 1.36278 0)
(0.251954 1.95239 8.04375e-22)
(-0.505903 2.51492 -1.12382e-20)
(-1.31303 3.00455 -1.15041e-20)
(-2.12311 3.33037 -9.80371e-21)
(-2.85789 3.44511 0)
(-3.46757 3.46052 -1.99511e-20)
(-4.02746 3.45272 0)
(-4.54422 3.43537 -1.09247e-20)
(-5.03636 3.38051 0)
(-5.49255 3.29273 0)
(-5.93625 3.18018 1.23226e-20)
(-6.36451 3.04768 0)
(-6.7873 2.89498 -1.37175e-20)
(-7.19971 2.71903 1.66052e-21)
(-7.60104 2.51941 2.90976e-20)
(-7.98445 2.2956 -3.25941e-20)
(-8.346 2.05006 0)
(-8.6827 1.78827 0)
(-8.99289 1.51765 -2.06698e-20)
(-9.27564 1.24702 0)
(-9.52962 0.986235 -1.91019e-20)
(-9.75232 0.745941 1.98624e-20)
(-9.93953 0.537336 2.05282e-20)
(-10.0845 0.372153 0)
(-10.1781 0.261216 -2.14937e-20)
(-10.2107 0.210806 -2.17465e-20)
(-10.172 0.218696 4.56696e-20)
(-10.0523 0.269783 -2.16748e-20)
(-9.8509 0.333823 -2.13411e-20)
(-9.57717 0.369717 0)
(-9.25115 0.336614 0)
(-8.90003 0.210691 1.9546e-20)
(-8.55189 -0.00435363 0)
(-8.22444 -0.270756 0)
(-7.93838 -0.538192 -3.44202e-20)
(-7.70615 -0.780177 -3.2642e-20)
(-7.51238 -0.983106 0)
(-7.33717 -1.14397 0)
(-7.15883 -1.27177 0)
(-6.95705 -1.37373 0)
(-6.72129 -1.45071 -2.23039e-20)
(-6.45119 -1.49808 2.09087e-20)
(-6.15231 -1.51089 1.79633e-20)
(-5.83407 -1.48953 3.23393e-20)
(-5.50871 -1.44095 0)
(-5.18362 -1.37504 4.80677e-22)
(-4.85299 -1.30124 0)
(-4.50742 -1.22875 -8.03377e-21)
(-4.15079 -1.1708 2.96305e-22)
(-3.78977 -1.14823 -4.57959e-21)
(-3.41521 -1.18294 3.00086e-21)
(-3.02289 -1.28244 2.79101e-22)
(-2.62407 -1.41992 0)
(-2.22395 -1.52798 -7.46551e-22)
(-1.84672 -1.5707 -2.18836e-21)
(-1.48965 -1.58101 -5.96791e-21)
(-1.12074 -1.59124 0)
(-0.745498 -1.59409 4.32004e-21)
(-0.364924 -1.57902 0)
(0.025297 -1.56078 -1.10624e-20)
(0.418889 -1.55573 6.10449e-21)
(0.815334 -1.59071 -6.33065e-21)
(1.22896 -1.67173 6.46368e-21)
(1.67609 -1.79421 1.13993e-20)
(2.16902 -1.91762 -6.46271e-21)
(2.72461 -1.97767 6.2961e-21)
(3.32287 -1.89098 0)
(3.89223 -1.43133 -8.28758e-21)
(4.22348 -0.532713 0)
(4.15805 0.620207 -8.28126e-21)