/*--------------------------------*- C++ -*----------------------------------*\
| =========                 |                                                 |
| \\      /  F ield         | OpenFOAM: The Open Source CFD Toolbox           |
|  \\    /   O peration     | Version:  2112                                  |
|   \\  /    A nd           | Website:  www.openfoam.com                      |
|    \\/     M anipulation  |                                                 |
\*---------------------------------------------------------------------------*/
FoamFile
{
    version     2.0;
    format      ascii;
    arch        "LSB;label=32;scalar=64";
    class       volScalarField;
    location    "0.31";
    object      p;
}
// * * * * * * * * * * * * * * * * * * * * * * * * * * * * * * * * * * * * * //

dimensions      [0 2 -2 0 0 0 0];

internalField   nonuniform List<scalar> 
12225
(
-1.0308
-1.98611
-2.34539
-2.47211
-2.62674
-2.79548
-2.92047
-3.0185
-3.1296
-3.24224
-3.33443
-3.3987
-3.43448
-3.45965
-3.48651
-3.49167
-3.48688
-3.18761
-1.42928
-2.01757
-2.33059
-2.45138
-2.58036
-2.71944
-2.82191
-2.89566
-2.96833
-3.03509
-3.08298
-3.1131
-3.14152
-3.17164
-3.20894
-3.25426
-3.35787
-3.60141
-1.55515
-1.96588
-2.29902
-2.45417
-2.58867
-2.73271
-2.85122
-2.94469
-3.03491
-3.12326
-3.19963
-3.26054
-3.30897
-3.3471
-3.38539
-3.43326
-3.53442
-3.73962
-1.68853
-2.01189
-2.32711
-2.48503
-2.60679
-2.73735
-2.84948
-2.93772
-3.01846
-3.09507
-3.16016
-3.21142
-3.25486
-3.29848
-3.35322
-3.42937
-3.55764
-3.75798
-1.81213
-2.05621
-2.33168
-2.49009
-2.60849
-2.73291
-2.84506
-2.93704
-3.02064
-3.1006
-3.17272
-3.23574
-3.29457
-3.35546
-3.4267
-3.5182
-3.65206
-3.84553
-1.92213
-2.10428
-2.34313
-2.50309
-2.62106
-2.73936
-2.84921
-2.94225
-3.0259
-3.10511
-3.17791
-3.24354
-3.30597
-3.37131
-3.44771
-3.54487
-3.67797
-3.85618
-2.02074
-2.15779
-2.36218
-2.51782
-2.63336
-2.74482
-2.851
-2.94409
-3.02798
-3.10731
-3.18191
-3.25178
-3.32043
-3.39359
-3.4783
-3.58203
-3.71387
-3.87717
-2.10978
-2.21393
-2.38628
-2.53332
-2.64614
-2.75216
-2.85481
-2.94764
-3.03202
-3.11189
-3.18822
-3.26161
-3.33506
-3.41335
-3.50204
-3.60645
-3.7316
-3.87768
-2.19044
-2.27051
-2.4146
-2.55068
-2.66019
-2.76149
-2.86027
-2.95196
-3.03641
-3.11664
-3.19429
-3.27035
-3.34732
-3.42902
-3.51966
-3.6228
-3.74085
-3.87228
-2.26369
-2.32613
-2.44621
-2.57007
-2.67523
-2.77211
-2.86693
-2.95695
-3.04118
-3.12174
-3.20042
-3.27846
-3.35788
-3.44157
-3.53249
-3.63277
-3.74318
-3.86148
-2.33026
-2.37973
-2.47988
-2.59122
-2.69107
-2.78376
-2.87474
-2.96269
-3.04633
-3.12696
-3.20622
-3.28542
-3.36612
-3.45038
-3.54014
-3.63646
-3.73921
-3.84603
-2.38569
-2.42644
-2.51165
-2.61187
-2.70621
-2.79509
-2.88266
-2.96842
-3.05113
-3.13147
-3.21082
-3.29037
-3.37132
-3.45509
-3.54287
-3.63509
-3.73119
-3.829
-2.43613
-2.47018
-2.54307
-2.63297
-2.72155
-2.80662
-2.8909
-2.97431
-3.05578
-3.13553
-3.21457
-3.2939
-3.37441
-3.45697
-3.54222
-3.63016
-3.72005
-3.80998
-2.48788
-2.5161
-2.57775
-2.6572
-2.73915
-2.81981
-2.90043
-2.98104
-3.06072
-3.13933
-3.2175
-3.2959
-3.3751
-3.45552
-3.53736
-3.62033
-3.70368
-3.78586
-2.53898
-2.56231
-2.61419
-2.68365
-2.75844
-2.83412
-2.91071
-2.98804
-3.0653
-3.14209
-3.21862
-3.29523
-3.37216
-3.44949
-3.52712
-3.60463
-3.68135
-3.75614
-2.58655
-2.60597
-2.64979
-2.7103
-2.77792
-2.84828
-2.92052
-2.99416
-3.06837
-3.14258
-3.21662
-3.29051
-3.36423
-3.43762
-3.51041
-3.58218
-3.65238
-3.72024
-2.62635
-2.64281
-2.68042
-2.73357
-2.79469
-2.85982
-2.92761
-2.99728
-3.06794
-3.13885
-3.2096
-3.27995
-3.34968
-3.41851
-3.48613
-3.55214
-3.61613
-3.67764
-2.65197
-2.66646
-2.69992
-2.74788
-2.80396
-2.86461
-2.92833
-2.99415
-3.0611
-3.12834
-3.19531
-3.26163
-3.32694
-3.39093
-3.45329
-3.5137
-3.57195
-3.62769
-2.6531
-2.66687
-2.69878
-2.74458
-2.79816
-2.85604
-2.91683
-2.97959
-3.04333
-3.10717
-3.1705
-3.2329
-3.29401
-3.3535
-3.4111
-3.46659
-3.51978
-3.57055
-2.6214
-2.63647
-2.67091
-2.71922
-2.77418
-2.83231
-2.89271
-2.95465
-3.01711
-3.07922
-3.14043
-3.20039
-3.25876
-3.31524
-3.36956
-3.42156
-3.47112
-3.51822
-2.57546
-2.59318
-2.63306
-2.68692
-2.74547
-2.80546
-2.8669
-2.92943
-2.99198
-3.05374
-3.11435
-3.17354
-3.23095
-3.28623
-3.33909
-3.38936
-3.43694
-3.48186
-2.51684
-2.53935
-2.58851
-2.65092
-2.71441
-2.77708
-2.84047
-2.90425
-2.96717
-3.02872
-3.08893
-3.14769
-3.20459
-3.2592
-3.31116
-3.36029
-3.40648
-3.4498
-2.44791
-2.47845
-2.5418
-2.61503
-2.6834
-2.74889
-2.81514
-2.88118
-2.94533
-3.00755
-3.06841
-3.12789
-3.18544
-3.24044
-3.29239
-3.34102
-3.38613
-3.42768
-2.36954
-2.41323
-2.49707
-2.58277
-2.65491
-2.7223
-2.79053
-2.8575
-2.9215
-2.98347
-3.04464
-3.10501
-3.16377
-3.22001
-3.27309
-3.32262
-3.36842
-3.41072
-2.28171
-2.34661
-2.45682
-2.5544
-2.63048
-2.70262
-2.77528
-2.84398
-2.90776
-2.96931
-3.03072
-3.09188
-3.15151
-3.20833
-3.26142
-3.31017
-3.35394
-3.39214
-2.18338
-2.28427
-2.42575
-2.52621
-2.59888
-2.67362
-2.75015
-2.82017
-2.88371
-2.94553
-3.00882
-3.07334
-3.13713
-3.19848
-3.25631
-3.30998
-3.35923
-3.40487
-2.0705
-2.22896
-2.41793
-2.52453
-2.59464
-2.67086
-2.74792
-2.81534
-2.87447
-2.93201
-2.99231
-3.0549
-3.117
-3.17611
-3.23056
-3.27927
-3.32105
-3.35534
-1.94516
-2.15439
-2.37034
-2.47792
-2.55655
-2.64439
-2.72866
-2.79981
-2.8619
-2.92389
-2.99103
-3.06238
-3.13467
-3.20532
-3.27256
-3.33507
-3.39261
-3.44797
-1.85353
-2.20639
-2.4146
-2.48242
-2.5509
-2.63725
-2.71516
-2.77546
-2.82457
-2.87531
-2.93433
-2.99811
-3.0614
-3.12103
-3.17483
-3.22107
-3.25872
-3.29121
-1.45727
-2.14554
-2.41001
-2.47423
-2.55273
-2.65367
-2.74373
-2.81241
-2.86601
-2.92356
-2.99702
-3.08142
-3.16933
-3.25631
-3.33914
-3.41409
-3.47912
-3.52619
-5.16406
-5.17559
-5.17699
-5.17767
-5.17888
-5.18034
-5.18191
-5.18364
-5.18557
-5.18771
-5.19007
-5.19267
-5.19552
-5.19865
-5.20208
-5.20584
-5.20996
-5.21449
-5.21947
-5.225
-5.2312
-5.2381
-5.24542
-5.25283
-5.26039
-5.26838
-5.27692
-5.28605
-5.29578
-5.30612
-5.31706
-5.32861
-5.34076
-5.35352
-5.36691
-5.38093
-5.3956
-5.41091
-5.42684
-5.44339
-5.46053
-5.47821
-5.49641
-5.51506
-5.53412
-5.55351
-5.57317
-5.59302
-5.61296
-5.63289
-5.65273
-5.67235
-5.69164
-5.71049
-5.72878
-5.74638
-5.7632
-5.77915
-5.79415
-5.80801
-5.82057
-5.83168
-5.84121
-5.84904
-5.85503
-5.85908
-5.86105
-5.86085
-5.85836
-5.85347
-5.84609
-5.83613
-5.82347
-5.80805
-5.78977
-5.76854
-5.74429
-5.71695
-5.68646
-5.65276
-5.61581
-5.57557
-5.53199
-5.48504
-5.43471
-5.38098
-5.32384
-5.26328
-5.1993
-5.13192
-5.06116
-4.9871
-4.90979
-4.82922
-4.74545
-4.65862
-4.56858
-4.47522
-4.37864
-4.27893
-4.17614
-4.07035
-3.96162
-3.84999
-3.73554
-3.61832
-3.49838
-3.37577
-3.25057
-3.12281
-2.99257
-2.8599
-2.72485
-2.5875
-2.44788
-2.30605
-2.16207
-2.01597
-1.86781
-1.71769
-1.56575
-1.41196
-1.25629
-1.09881
-0.939583
-0.778671
-0.616132
-0.45202
-0.286383
-0.119268
0.0492721
0.219186
0.39042
0.562923
0.736647
0.911545
1.08757
1.26467
1.44281
1.62193
1.80201
1.983
2.16487
2.34757
2.53107
2.71532
2.90029
3.08593
3.2722
3.45906
3.64647
3.83438
4.02275
4.21153
4.40068
4.59014
4.77986
4.96978
5.15985
5.35
5.54018
5.73031
5.92034
6.11018
6.29978
6.48904
6.67786
6.86609
7.05351
7.23972
7.42417
7.606
7.77788
7.93447
8.09042
8.2554
8.42387
8.59443
8.78268
8.93712
-5.14593
-5.16244
-5.16294
-5.16279
-5.16358
-5.16476
-5.16613
-5.16768
-5.1694
-5.17128
-5.1733
-5.17546
-5.17779
-5.18029
-5.18299
-5.18591
-5.18906
-5.19244
-5.19607
-5.19994
-5.204
-5.2082
-5.21267
-5.21772
-5.22351
-5.22994
-5.23691
-5.24441
-5.25247
-5.26109
-5.27033
-5.28023
-5.29083
-5.30215
-5.31422
-5.32703
-5.34059
-5.35489
-5.36991
-5.38564
-5.40207
-5.41915
-5.43687
-5.45516
-5.47399
-5.49329
-5.51299
-5.53301
-5.55326
-5.57364
-5.59406
-5.61439
-5.63454
-5.65438
-5.6738
-5.69267
-5.71087
-5.72825
-5.74461
-5.75974
-5.77349
-5.7858
-5.79654
-5.80559
-5.81285
-5.81818
-5.82148
-5.82263
-5.82152
-5.81803
-5.81207
-5.80352
-5.79229
-5.77829
-5.76144
-5.74165
-5.71886
-5.69299
-5.66396
-5.63173
-5.59624
-5.55744
-5.51529
-5.46978
-5.42088
-5.36859
-5.31288
-5.25378
-5.19129
-5.12542
-5.05616
-4.98347
-4.90737
-4.82788
-4.74503
-4.65879
-4.56936
-4.47681
-4.38111
-4.2823
-4.18041
-4.0755
-3.96763
-3.85683
-3.74318
-3.62673
-3.50756
-3.38573
-3.26129
-3.1343
-3.00482
-2.87291
-2.73862
-2.602
-2.46312
-2.32205
-2.17884
-2.03358
-1.88635
-1.73724
-1.58624
-1.43319
-1.27812
-1.12119
-0.962473
-0.802023
-0.639903
-0.476175
-0.310905
-0.144153
0.0240271
0.19358
0.364452
0.536594
0.709958
0.884491
1.06014
1.23685
1.41456
1.59322
1.77278
1.95317
2.13436
2.31628
2.49889
2.68214
2.86596
3.05031
3.23515
3.42042
3.60609
3.79212
3.97847
4.16509
4.35192
4.53889
4.72593
4.91294
5.09983
5.28652
5.47291
5.65894
5.84451
6.02954
6.21393
6.39761
6.58047
6.76238
6.94319
7.12264
7.30054
7.47821
7.65974
7.8423
8.01766
8.18616
8.355
8.51961
8.68833
8.82383
-5.14789
-5.16896
-5.17051
-5.17008
-5.17071
-5.17182
-5.17313
-5.17465
-5.17637
-5.1783
-5.18041
-5.1827
-5.1852
-5.18791
-5.19085
-5.19404
-5.1975
-5.20125
-5.2053
-5.20968
-5.21439
-5.21943
-5.22481
-5.2306
-5.23686
-5.24362
-5.2509
-5.25872
-5.26711
-5.27609
-5.28568
-5.29591
-5.3068
-5.31837
-5.33064
-5.34361
-5.3573
-5.37171
-5.38682
-5.40262
-5.4191
-5.43621
-5.45393
-5.4722
-5.49098
-5.5102
-5.52978
-5.54965
-5.56971
-5.58987
-5.61003
-5.63007
-5.64988
-5.66935
-5.68835
-5.70675
-5.72443
-5.74126
-5.75709
-5.77176
-5.78513
-5.79706
-5.80745
-5.81615
-5.82306
-5.82804
-5.83099
-5.83178
-5.83032
-5.82649
-5.82019
-5.81132
-5.79978
-5.78549
-5.76836
-5.7483
-5.72524
-5.69911
-5.66985
-5.63739
-5.60168
-5.56268
-5.52035
-5.47466
-5.42559
-5.37313
-5.31727
-5.25802
-5.19537
-5.12936
-5.05997
-4.98723
-4.91113
-4.83172
-4.74898
-4.663
-4.57371
-4.48126
-4.38568
-4.28699
-4.18523
-4.08045
-3.97271
-3.86206
-3.74856
-3.63228
-3.51327
-3.3916
-3.26733
-3.14051
-3.0112
-2.87947
-2.74536
-2.60893
-2.47025
-2.32937
-2.18634
-2.04124
-1.89412
-1.74505
-1.59406
-1.4411
-1.2862
-1.12946
-0.970947
-0.810718
-0.648833
-0.485351
-0.320332
-0.153831
0.0140962
0.183397
0.354018
0.525909
0.699017
0.873293
1.04868
1.22513
1.40258
1.58099
1.7603
1.94046
2.12142
2.30315
2.48558
2.66865
2.85233
3.03655
3.22127
3.40645
3.59204
3.77799
3.96427
4.15083
4.3376
4.52453
4.71153
4.89852
5.08541
5.27213
5.45859
5.6447
5.8304
6.01561
6.20023
6.38422
6.56748
6.74997
6.93165
7.11252
7.29277
7.4736
7.65736
7.84034
8.01527
8.18441
8.3529
8.51608
8.6839
8.81352
-5.14718
-5.16935
-5.17176
-5.1713
-5.17182
-5.17282
-5.17405
-5.1755
-5.17719
-5.17909
-5.1812
-5.1835
-5.18601
-5.18875
-5.19171
-5.19493
-5.19842
-5.2022
-5.2063
-5.21072
-5.21549
-5.22063
-5.22617
-5.23216
-5.23862
-5.24559
-5.25309
-5.26116
-5.26982
-5.27909
-5.28899
-5.29955
-5.31079
-5.32273
-5.33537
-5.34874
-5.36283
-5.37763
-5.39314
-5.40935
-5.42622
-5.44372
-5.46181
-5.48045
-5.49957
-5.5191
-5.53896
-5.55909
-5.57937
-5.59971
-5.62002
-5.64017
-5.66005
-5.67954
-5.69852
-5.71686
-5.73443
-5.7511
-5.76674
-5.78119
-5.79433
-5.80603
-5.81616
-5.82461
-5.83125
-5.83596
-5.83864
-5.83916
-5.83743
-5.83334
-5.82679
-5.81767
-5.80591
-5.7914
-5.77407
-5.75383
-5.73061
-5.70433
-5.67494
-5.64237
-5.60657
-5.56749
-5.5251
-5.47937
-5.43028
-5.37782
-5.32198
-5.26277
-5.20019
-5.13426
-5.06498
-4.99235
-4.9164
-4.83714
-4.75461
-4.66877
-4.57973
-4.48751
-4.39215
-4.29368
-4.19215
-4.08759
-3.98008
-3.86966
-3.7564
-3.64036
-3.52159
-3.40017
-3.27615
-3.14958
-3.02053
-2.88905
-2.75519
-2.61903
-2.4806
-2.33996
-2.19718
-2.05231
-1.9054
-1.75651
-1.60566
-1.45285
-1.29815
-1.1416
-0.983286
-0.823255
-0.661567
-0.498282
-0.333455
-0.167144
0.000597956
0.169718
0.340166
0.51189
0.68484
0.858965
1.03421
1.21053
1.38786
1.56616
1.74539
1.92549
2.10642
2.28813
2.47059
2.65373
2.83752
3.02191
3.20684
3.39229
3.5782
3.76454
3.95126
4.13831
4.32565
4.51321
4.70094
4.88875
5.07658
5.26435
5.45198
5.6394
5.82652
6.01326
6.19953
6.38524
6.57028
6.75456
6.93801
7.1206
7.30243
7.484
7.66604
7.84589
8.01972
8.18927
8.35765
8.52008
8.68881
8.81546
-5.14861
-5.17072
-5.17423
-5.17424
-5.1749
-5.17592
-5.17712
-5.17853
-5.18018
-5.18206
-5.18415
-5.18646
-5.18899
-5.19176
-5.19478
-5.19807
-5.20165
-5.20553
-5.20975
-5.21431
-5.21925
-5.22459
-5.23036
-5.23658
-5.24329
-5.25052
-5.2583
-5.26666
-5.27562
-5.28521
-5.29545
-5.30636
-5.31796
-5.33027
-5.34329
-5.35704
-5.37152
-5.38671
-5.4026
-5.41918
-5.4364
-5.45425
-5.47266
-5.49158
-5.51095
-5.5307
-5.55075
-5.571
-5.59137
-5.61175
-5.63204
-5.65213
-5.67189
-5.69122
-5.70998
-5.72806
-5.74532
-5.76164
-5.77689
-5.79094
-5.80366
-5.81493
-5.82462
-5.83262
-5.83882
-5.84309
-5.84534
-5.84544
-5.84331
-5.83884
-5.83192
-5.82248
-5.81041
-5.79563
-5.77806
-5.75762
-5.73423
-5.70782
-5.67833
-5.64569
-5.60985
-5.57077
-5.5284
-5.48271
-5.4337
-5.38133
-5.32562
-5.26656
-5.20416
-5.13844
-5.06939
-4.99704
-4.92137
-4.84241
-4.76019
-4.67473
-4.58605
-4.49418
-4.39916
-4.30102
-4.1998
-4.09557
-3.98837
-3.87826
-3.76531
-3.64957
-3.53111
-3.40999
-3.28626
-3.15999
-3.03123
-2.90004
-2.76646
-2.63057
-2.49241
-2.35203
-2.20949
-2.06484
-1.91814
-1.76943
-1.61874
-1.46611
-1.31158
-1.15521
-0.997065
-0.837198
-0.675668
-0.512533
-0.347848
-0.18167
-0.0140532
0.154949
0.325285
0.496904
0.669756
0.843789
1.01895
1.1952
1.37248
1.55074
1.72994
1.91003
2.09098
2.27272
2.45523
2.63846
2.82237
3.00691
3.19205
3.37775
3.56397
3.75066
3.93778
4.12528
4.31311
4.50122
4.68955
4.87804
5.06663
5.25523
5.44377
5.63219
5.82038
6.00826
6.19571
6.38263
6.56889
6.75437
6.93896
7.12259
7.30524
7.48705
7.66815
7.84668
8.02047
8.19054
8.35908
8.52099
8.69037
8.81331
-5.15115
-5.17248
-5.17682
-5.17744
-5.17837
-5.17947
-5.18066
-5.18206
-5.18369
-5.18557
-5.18768
-5.19001
-5.19258
-5.19541
-5.1985
-5.20188
-5.20557
-5.20959
-5.21396
-5.21871
-5.22385
-5.22942
-5.23544
-5.24194
-5.24895
-5.25649
-5.26461
-5.27331
-5.28264
-5.29261
-5.30325
-5.31457
-5.32659
-5.33933
-5.35278
-5.36696
-5.38186
-5.39746
-5.41375
-5.43071
-5.44828
-5.46644
-5.48513
-5.50429
-5.52385
-5.54374
-5.56386
-5.58413
-5.60446
-5.62474
-5.64487
-5.66473
-5.68421
-5.7032
-5.72157
-5.73921
-5.75599
-5.7718
-5.78651
-5.80001
-5.81216
-5.82286
-5.832
-5.83945
-5.84511
-5.84887
-5.85063
-5.85028
-5.84773
-5.84287
-5.83561
-5.82586
-5.81353
-5.79854
-5.7808
-5.76024
-5.73677
-5.71032
-5.68083
-5.64823
-5.61245
-5.57347
-5.53122
-5.48568
-5.43683
-5.38466
-5.32916
-5.27033
-5.20819
-5.14274
-5.074
-5.00197
-4.92665
-4.84805
-4.76621
-4.68111
-4.59278
-4.50124
-4.40652
-4.30868
-4.20774
-4.10377
-3.99683
-3.88697
-3.77426
-3.65876
-3.54052
-3.41962
-3.29611
-3.17005
-3.04149
-2.91049
-2.77711
-2.64139
-2.50339
-2.36316
-2.22076
-2.07624
-1.92965
-1.78102
-1.63042
-1.47787
-1.32342
-1.16714
-1.00907
-0.84928
-0.687823
-0.524755
-0.360133
-0.19401
-0.0264423
0.142517
0.312816
0.484401
0.657223
0.831227
1.00637
1.18259
1.35986
1.53812
1.71733
1.89745
2.07843
2.26024
2.44281
2.62612
2.81013
2.99479
3.18008
3.36596
3.55238
3.73931
3.9267
4.1145
4.30266
4.49113
4.67985
4.86877
5.05783
5.24694
5.43603
5.62504
5.81386
6.00239
6.19052
6.37813
6.56507
6.75122
6.93645
7.12067
7.30382
7.48584
7.66661
7.84474
8.01882
8.18936
8.3582
8.51986
8.69013
8.80935
-5.15483
-5.17517
-5.18011
-5.1814
-5.18268
-5.18389
-5.1851
-5.18649
-5.18813
-5.19001
-5.19214
-5.19451
-5.19714
-5.20004
-5.20322
-5.20671
-5.21053
-5.21469
-5.21923
-5.22416
-5.22952
-5.23532
-5.2416
-5.24838
-5.25568
-5.26355
-5.272
-5.28106
-5.29075
-5.3011
-5.31213
-5.32386
-5.33628
-5.34943
-5.36329
-5.37787
-5.39315
-5.40912
-5.42575
-5.44301
-5.46086
-5.47926
-5.49813
-5.51742
-5.53705
-5.55694
-5.57701
-5.59717
-5.61732
-5.63736
-5.65719
-5.6767
-5.69577
-5.7143
-5.73218
-5.74929
-5.76552
-5.78075
-5.79488
-5.80779
-5.81938
-5.82952
-5.83812
-5.84507
-5.85026
-5.85359
-5.85496
-5.85426
-5.8514
-5.84629
-5.83882
-5.82891
-5.81647
-5.80142
-5.78366
-5.76312
-5.73971
-5.71336
-5.68399
-5.65154
-5.61594
-5.57713
-5.53508
-5.48975
-5.44112
-5.38917
-5.3339
-5.27532
-5.21344
-5.14827
-5.07981
-5.00808
-4.93306
-4.85478
-4.77323
-4.6884
-4.60031
-4.50899
-4.41447
-4.3168
-4.21602
-4.11219
-4.00538
-3.89564
-3.78304
-3.66764
-3.54952
-3.42871
-3.30529
-3.17932
-3.05084
-2.91991
-2.78659
-2.65093
-2.51298
-2.3728
-2.23043
-2.08593
-1.93934
-1.79072
-1.64011
-1.48755
-1.33311
-1.17682
-1.01876
-0.858973
-0.69752
-0.534456
-0.369836
-0.203716
-0.0361491
0.132811
0.30311
0.474699
0.647523
0.821531
0.996673
1.1729
1.35018
1.52845
1.70768
1.88782
2.06883
2.25067
2.4333
2.61667
2.80075
2.98549
3.17087
3.35685
3.54339
3.73046
3.918
4.10597
4.29431
4.48298
4.67193
4.86109
5.0504
5.23979
5.42919
5.6185
5.80765
5.99652
6.185
6.37296
6.56028
6.7468
6.9324
7.11697
7.30043
7.48261
7.66321
7.84115
8.01548
8.18638
8.35548
8.51702
8.68834
8.80429
-5.15966
-5.17885
-5.18423
-5.18618
-5.18784
-5.1892
-5.19046
-5.19186
-5.19351
-5.19541
-5.19758
-5.2
-5.20269
-5.20567
-5.20895
-5.21255
-5.2165
-5.22082
-5.22553
-5.23065
-5.23622
-5.24225
-5.24878
-5.25582
-5.26341
-5.27158
-5.28035
-5.28974
-5.29978
-5.31048
-5.32187
-5.33395
-5.34675
-5.36025
-5.37445
-5.38936
-5.40496
-5.42121
-5.4381
-5.45557
-5.4736
-5.49211
-5.51105
-5.53036
-5.54994
-5.56973
-5.58964
-5.60957
-5.62944
-5.64915
-5.6686
-5.68768
-5.7063
-5.72434
-5.74171
-5.75829
-5.77399
-5.7887
-5.80231
-5.81472
-5.82584
-5.83555
-5.84375
-5.85034
-5.85521
-5.85827
-5.85942
-5.85855
-5.85557
-5.85037
-5.84287
-5.83298
-5.8206
-5.80564
-5.78801
-5.76764
-5.74442
-5.71827
-5.68912
-5.6569
-5.62152
-5.58294
-5.5411
-5.49598
-5.44755
-5.39579
-5.34071
-5.28232
-5.22063
-5.15567
-5.08742
-5.0159
-4.9411
-4.86302
-4.78163
-4.69694
-4.60896
-4.51771
-4.42324
-4.3256
-4.22483
-4.12101
-4.01419
-3.90444
-3.79183
-3.67643
-3.55829
-3.43747
-3.31404
-3.18804
-3.05955
-2.9286
-2.79526
-2.65957
-2.52159
-2.38137
-2.23896
-2.09441
-1.94777
-1.79909
-1.64843
-1.49582
-1.34132
-1.18499
-1.02689
-0.867068
-0.705582
-0.542487
-0.37784
-0.211695
-0.0441061
0.124873
0.295191
0.466797
0.639638
0.81366
0.988813
1.16505
1.34234
1.52062
1.69986
1.88002
2.06104
2.2429
2.42556
2.60896
2.79307
2.97786
3.16329
3.34932
3.53593
3.72306
3.91068
4.09873
4.28716
4.47593
4.66498
4.85426
5.0437
5.23323
5.42277
5.61224
5.80154
5.99057
6.17922
6.36735
6.55484
6.74156
6.92737
7.11215
7.29578
7.47801
7.65848
7.83628
8.01078
8.18189
8.35116
8.51249
8.6848
8.79778
-5.16562
-5.18362
-5.18926
-5.19184
-5.1939
-5.19545
-5.19676
-5.19819
-5.19985
-5.20178
-5.20398
-5.20645
-5.2092
-5.21226
-5.21563
-5.21935
-5.22342
-5.22787
-5.23274
-5.23803
-5.24378
-5.25002
-5.25676
-5.26404
-5.27188
-5.28031
-5.28935
-5.29903
-5.30936
-5.32036
-5.33205
-5.34443
-5.35751
-5.37129
-5.38577
-5.40092
-5.41673
-5.43318
-5.45022
-5.46781
-5.48591
-5.50444
-5.52336
-5.54258
-5.56203
-5.58163
-5.6013
-5.62095
-5.64049
-5.65984
-5.67889
-5.69756
-5.71574
-5.73334
-5.75026
-5.7664
-5.78166
-5.79596
-5.80919
-5.82126
-5.83207
-5.84151
-5.84949
-5.85591
-5.86066
-5.86364
-5.86475
-5.86389
-5.86096
-5.85586
-5.84849
-5.83877
-5.82659
-5.81187
-5.7945
-5.7744
-5.75146
-5.72561
-5.69674
-5.66477
-5.62964
-5.59128
-5.54964
-5.50468
-5.45638
-5.40474
-5.34976
-5.29147
-5.22989
-5.16504
-5.09692
-5.02551
-4.95082
-4.87281
-4.79146
-4.70676
-4.61873
-4.52742
-4.43286
-4.33511
-4.23423
-4.13029
-4.02335
-3.91349
-3.80077
-3.68526
-3.56702
-3.44611
-3.32259
-3.19651
-3.06792
-2.93689
-2.80346
-2.66769
-2.52963
-2.38932
-2.24683
-2.10219
-1.95547
-1.80671
-1.65596
-1.50327
-1.3487
-1.19231
-1.03415
-0.874268
-0.712731
-0.549591
-0.384903
-0.218722
-0.0511015
0.117906
0.288248
0.459876
0.632738
0.806778
0.981945
1.1582
1.33549
1.51379
1.69303
1.87319
2.05423
2.2361
2.41877
2.60218
2.78631
2.97112
3.15658
3.34264
3.52927
3.71643
3.90408
4.09217
4.28065
4.46947
4.65857
4.8479
5.03739
5.22698
5.4166
5.60614
5.79551
5.98461
6.17332
6.36153
6.54911
6.73592
6.92183
7.10672
7.29042
7.47265
7.65298
7.83068
8.00527
8.17646
8.34577
8.50682
8.67989
8.79013
-5.17272
-5.1895
-5.19528
-5.19842
-5.20088
-5.20262
-5.20401
-5.20545
-5.20713
-5.20907
-5.2113
-5.2138
-5.21661
-5.21972
-5.22316
-5.22695
-5.23111
-5.23567
-5.24065
-5.24608
-5.25197
-5.25836
-5.26527
-5.27273
-5.28077
-5.2894
-5.29865
-5.30854
-5.31908
-5.33031
-5.34221
-5.35481
-5.36809
-5.38206
-5.39671
-5.41202
-5.42796
-5.4445
-5.4616
-5.47922
-5.4973
-5.51577
-5.53458
-5.55366
-5.57292
-5.59228
-5.61168
-5.63103
-5.65024
-5.66924
-5.68794
-5.70624
-5.72406
-5.74131
-5.75789
-5.77371
-5.78868
-5.80272
-5.81574
-5.82764
-5.83832
-5.84768
-5.85563
-5.86206
-5.86686
-5.86994
-5.87119
-5.8705
-5.86778
-5.8629
-5.8558
-5.84636
-5.8345
-5.82011
-5.8031
-5.78335
-5.76076
-5.73524
-5.70669
-5.67501
-5.64013
-5.60197
-5.56048
-5.51562
-5.46739
-5.41577
-5.36079
-5.3025
-5.24093
-5.17611
-5.10803
-5.03666
-4.96195
-4.88389
-4.80243
-4.71758
-4.62938
-4.53787
-4.44309
-4.34512
-4.24401
-4.13985
-4.03271
-3.92265
-3.80975
-3.69407
-3.57567
-3.45461
-3.33094
-3.20473
-3.07601
-2.94485
-2.8113
-2.67541
-2.53724
-2.39682
-2.25422
-2.10948
-1.96266
-1.8138
-1.66295
-1.51017
-1.35552
-1.19906
-1.04083
-0.880889
-0.719296
-0.556106
-0.391373
-0.225152
-0.0574972
0.11154
0.281907
0.453556
0.626438
0.800497
0.97568
1.15195
1.32925
1.50756
1.68681
1.86698
2.04801
2.22988
2.41255
2.59598
2.78013
2.96495
3.15042
3.3365
3.52315
3.71032
3.89798
4.08609
4.27459
4.46344
4.65256
4.84191
5.03143
5.22105
5.41069
5.60026
5.78966
5.97879
6.16754
6.35578
6.54339
6.73025
6.91621
7.10115
7.28486
7.46703
7.64724
7.82484
7.99946
8.17065
8.33993
8.50063
8.67421
8.78192
-5.18092
-5.19653
-5.20234
-5.20594
-5.20878
-5.21071
-5.21217
-5.21363
-5.2153
-5.21723
-5.21945
-5.22195
-5.22476
-5.22789
-5.23135
-5.23517
-5.23937
-5.24398
-5.24901
-5.2545
-5.26048
-5.26695
-5.27396
-5.28153
-5.28968
-5.29843
-5.30781
-5.31783
-5.32851
-5.33987
-5.3519
-5.36462
-5.37801
-5.39208
-5.40681
-5.42217
-5.43815
-5.4547
-5.47178
-5.48935
-5.50735
-5.52571
-5.54436
-5.56324
-5.58228
-5.60139
-5.62051
-5.63957
-5.65848
-5.67718
-5.69558
-5.71361
-5.73117
-5.74817
-5.76453
-5.78017
-5.795
-5.80895
-5.82192
-5.83382
-5.84455
-5.85401
-5.8621
-5.86871
-5.87374
-5.87707
-5.8786
-5.87821
-5.8758
-5.87125
-5.86449
-5.85542
-5.84395
-5.82996
-5.81334
-5.79399
-5.7718
-5.74664
-5.71842
-5.68704
-5.6524
-5.61443
-5.57307
-5.52827
-5.48003
-5.42836
-5.37328
-5.31488
-5.25324
-5.18838
-5.12026
-5.04882
-4.97399
-4.89574
-4.81405
-4.72892
-4.64041
-4.54857
-4.45347
-4.35517
-4.25375
-4.1493
-4.04188
-3.93157
-3.81844
-3.70255
-3.58396
-3.46272
-3.33888
-3.2125
-3.08363
-2.95233
-2.81864
-2.68262
-2.54432
-2.40379
-2.26107
-2.11623
-1.9693
-1.82034
-1.66941
-1.51654
-1.36181
-1.20527
-1.04698
-0.88698
-0.725334
-0.562097
-0.397323
-0.231066
-0.0633793
0.105684
0.276073
0.447737
0.620628
0.794699
0.9699
1.14618
1.3235
1.50181
1.68107
1.86125
2.04229
2.22416
2.40682
2.59025
2.77441
2.95925
3.14474
3.33082
3.51748
3.70466
3.89233
4.08045
4.26896
4.45782
4.64696
4.83632
5.02585
5.21548
5.40514
5.59472
5.78414
5.97328
6.16204
6.35029
6.53792
6.7248
6.91079
7.09573
7.27941
7.4615
7.64159
7.81909
7.99371
8.16484
8.33404
8.49436
8.66823
8.77368
-5.19017
-5.20472
-5.21049
-5.21446
-5.21762
-5.21972
-5.22123
-5.22267
-5.22428
-5.22615
-5.22831
-5.23075
-5.23349
-5.23656
-5.23997
-5.24375
-5.24791
-5.25249
-5.2575
-5.26298
-5.26894
-5.27542
-5.28245
-5.29003
-5.29821
-5.307
-5.31641
-5.32648
-5.3372
-5.34859
-5.36066
-5.37341
-5.38682
-5.40089
-5.41561
-5.43095
-5.44688
-5.46337
-5.48037
-5.49783
-5.5157
-5.5339
-5.55237
-5.57104
-5.58983
-5.60868
-5.62753
-5.64631
-5.66496
-5.68342
-5.70162
-5.71947
-5.73688
-5.75377
-5.77004
-5.78562
-5.80045
-5.81446
-5.82755
-5.83963
-5.85058
-5.86031
-5.8687
-5.87564
-5.88102
-5.88472
-5.88663
-5.88663
-5.8846
-5.88042
-5.87403
-5.86535
-5.85428
-5.8407
-5.82448
-5.80552
-5.7837
-5.7589
-5.73101
-5.69993
-5.66554
-5.62777
-5.58654
-5.54179
-5.49352
-5.44173
-5.38648
-5.32789
-5.26611
-5.20115
-5.13289
-5.06124
-4.98614
-4.90757
-4.82552
-4.73999
-4.65105
-4.55879
-4.46327
-4.36457
-4.26278
-4.158
-4.05028
-3.9397
-3.82633
-3.71022
-3.59143
-3.47
-3.34599
-3.21945
-3.09043
-2.95899
-2.82517
-2.68902
-2.5506
-2.40996
-2.26715
-2.12221
-1.97519
-1.82616
-1.67515
-1.52223
-1.36744
-1.21084
-1.05249
-0.892443
-0.730758
-0.567486
-0.402683
-0.236402
-0.0686952
0.100384
0.270785
0.442456
0.615349
0.789423
0.964634
1.14093
1.31825
1.49657
1.67583
1.85601
2.03705
2.21893
2.40159
2.58503
2.76919
2.95404
3.13953
3.32562
3.51228
3.69947
3.88715
4.07528
4.2638
4.45266
4.64181
4.83118
5.02072
5.21036
5.40002
5.58961
5.77903
5.96818
6.15694
6.34521
6.53284
6.71973
6.90571
7.09063
7.27426
7.45626
7.63623
7.81363
7.9882
8.15923
8.3283
8.48824
8.6622
8.76572
-5.20045
-5.21413
-5.21978
-5.22402
-5.22744
-5.22966
-5.23116
-5.23251
-5.23399
-5.23572
-5.23771
-5.24
-5.24258
-5.24549
-5.24875
-5.25238
-5.25641
-5.26086
-5.26575
-5.27112
-5.27699
-5.28338
-5.29032
-5.29783
-5.30594
-5.31467
-5.32403
-5.33404
-5.34472
-5.35606
-5.36807
-5.38076
-5.3941
-5.4081
-5.42273
-5.43797
-5.45379
-5.47016
-5.48703
-5.50434
-5.52204
-5.54006
-5.55832
-5.57676
-5.59531
-5.6139
-5.63248
-5.65101
-5.66944
-5.68774
-5.70583
-5.72362
-5.74101
-5.75791
-5.7742
-5.78985
-5.80482
-5.81905
-5.83243
-5.84485
-5.85619
-5.86632
-5.87514
-5.88253
-5.88836
-5.89251
-5.89486
-5.89527
-5.8936
-5.88969
-5.88356
-5.87521
-5.86448
-5.85123
-5.83533
-5.81667
-5.79513
-5.77061
-5.74299
-5.71217
-5.67805
-5.64054
-5.59954
-5.55498
-5.5068
-5.45498
-5.39948
-5.34058
-5.27859
-5.21337
-5.14477
-5.07272
-4.99722
-4.91824
-4.83573
-4.74967
-4.6602
-4.56746
-4.47148
-4.37236
-4.2702
-4.16509
-4.0571
-3.94629
-3.83271
-3.71641
-3.59745
-3.47587
-3.35172
-3.22505
-3.09592
-2.96437
-2.83045
-2.69422
-2.55572
-2.41501
-2.27213
-2.12713
-1.98006
-1.83098
-1.67994
-1.52698
-1.37217
-1.21554
-1.05716
-0.897102
-0.735403
-0.572123
-0.407313
-0.241029
-0.0733225
0.0957548
0.266152
0.437818
0.610705
0.784771
0.959973
1.13626
1.31358
1.49189
1.67115
1.85132
2.03237
2.21424
2.39691
2.58035
2.76452
2.94936
3.13486
3.32096
3.50762
3.69482
3.8825
4.07063
4.25916
4.44803
4.63718
4.82656
5.01611
5.20576
5.39542
5.58501
5.77443
5.96359
6.15235
6.34062
6.52826
6.71514
6.90111
7.08599
7.26954
7.45144
7.63129
7.80858
7.98307
8.15396
8.32286
8.48242
8.65626
8.75825
-5.21178
-5.22486
-5.23036
-5.23477
-5.23835
-5.2406
-5.24198
-5.24312
-5.24435
-5.24579
-5.24749
-5.24948
-5.25177
-5.2544
-5.25738
-5.26074
-5.26451
-5.26872
-5.27339
-5.27854
-5.28421
-5.29041
-5.29717
-5.30452
-5.31247
-5.32105
-5.33027
-5.34015
-5.35069
-5.3619
-5.37378
-5.38632
-5.39952
-5.41336
-5.42783
-5.44291
-5.45857
-5.47478
-5.49148
-5.50862
-5.52613
-5.54396
-5.56202
-5.58023
-5.59852
-5.61683
-5.63512
-5.65341
-5.67168
-5.6899
-5.70799
-5.72586
-5.74337
-5.76038
-5.77673
-5.79244
-5.80761
-5.82221
-5.83605
-5.84898
-5.86085
-5.87154
-5.88091
-5.88883
-5.89516
-5.89978
-5.90254
-5.90328
-5.90178
-5.89779
-5.89153
-5.88323
-5.8726
-5.85941
-5.84355
-5.8249
-5.80338
-5.77888
-5.75134
-5.7207
-5.68688
-5.64981
-5.60939
-5.56549
-5.51799
-5.46663
-5.41108
-5.35173
-5.28916
-5.22343
-5.15433
-5.08181
-5.00583
-4.92637
-4.84332
-4.75658
-4.66645
-4.57321
-4.47682
-4.37732
-4.27486
-4.16953
-4.06137
-3.95044
-3.83675
-3.72036
-3.60132
-3.47967
-3.35546
-3.22874
-3.09957
-2.96799
-2.83404
-2.69779
-2.55927
-2.41855
-2.27566
-2.13066
-1.98359
-1.83452
-1.68349
-1.53055
-1.37575
-1.21915
-1.0608
-0.900764
-0.739091
-0.575838
-0.411057
-0.244802
-0.0771246
0.0919236
0.262292
0.433931
0.606793
0.780833
0.956009
1.13227
1.30957
1.48786
1.66711
1.84727
2.02831
2.21018
2.39284
2.57628
2.76044
2.94529
3.13078
3.31688
3.50355
3.69075
3.87844
4.06658
4.25511
4.44398
4.63314
4.82253
5.01208
5.20174
5.3914
5.581
5.77043
5.95958
6.14836
6.33662
6.52426
6.71113
6.89708
7.08191
7.26538
7.44717
7.62689
7.80405
7.97843
8.14915
8.31783
8.477
8.65051
8.75139
-5.22428
-5.23715
-5.24251
-5.24698
-5.25058
-5.25268
-5.25375
-5.25448
-5.25524
-5.2562
-5.25742
-5.25892
-5.26075
-5.26292
-5.26547
-5.26843
-5.27182
-5.27566
-5.27999
-5.28483
-5.2902
-5.29612
-5.30262
-5.30972
-5.31742
-5.32577
-5.33477
-5.34444
-5.35478
-5.3658
-5.37748
-5.38982
-5.40281
-5.41643
-5.43067
-5.44552
-5.46096
-5.47696
-5.49346
-5.5104
-5.52772
-5.54534
-5.56319
-5.58118
-5.59923
-5.6173
-5.63535
-5.65339
-5.67157
-5.68988
-5.70816
-5.72625
-5.74396
-5.76101
-5.77699
-5.79205
-5.80686
-5.82149
-5.83553
-5.84872
-5.86088
-5.87187
-5.88155
-5.88976
-5.89636
-5.90121
-5.90418
-5.90513
-5.90389
-5.90034
-5.89443
-5.8861
-5.87523
-5.8617
-5.84545
-5.8264
-5.80448
-5.77962
-5.75179
-5.72094
-5.68706
-5.65009
-5.6099
-5.56638
-5.51937
-5.46873
-5.4143
-5.35596
-5.29386
-5.22814
-5.15888
-5.08614
-5.00993
-4.93023
-4.84681
-4.75936
-4.66849
-4.57484
-4.47814
-4.37834
-4.27569
-4.17033
-4.06222
-3.95133
-3.83772
-3.7214
-3.60242
-3.48084
-3.35671
-3.23006
-3.10095
-2.96944
-2.83557
-2.69939
-2.56095
-2.4203
-2.27749
-2.13257
-1.98558
-1.83659
-1.68564
-1.53278
-1.37806
-1.22154
-1.06327
-0.903309
-0.741711
-0.578531
-0.413821
-0.247634
-0.0800213
0.0889645
0.259274
0.430857
0.603668
0.777661
0.95279
1.12901
1.30627
1.48453
1.66375
1.84389
2.0249
2.20676
2.38942
2.57284
2.757
2.94184
3.12733
3.31343
3.5001
3.68731
3.875
4.06314
4.25167
4.44055
4.62972
4.81912
5.00869
5.19835
5.38803
5.57764
5.76707
5.95624
6.14502
6.3333
6.52094
6.7078
6.89372
7.0785
7.26189
7.44356
7.62315
7.80017
7.97441
8.14493
8.31333
8.4721
8.64508
8.74527
-5.23875
-5.25201
-5.25722
-5.2616
-5.26496
-5.26658
-5.26699
-5.26695
-5.26692
-5.26708
-5.26752
-5.26829
-5.26942
-5.27095
-5.27289
-5.27529
-5.27815
-5.28152
-5.2854
-5.28983
-5.29482
-5.30038
-5.30653
-5.31329
-5.32068
-5.32871
-5.33741
-5.34681
-5.35688
-5.36761
-5.37901
-5.39106
-5.40374
-5.41704
-5.43095
-5.44546
-5.46057
-5.47624
-5.49239
-5.50898
-5.52597
-5.54328
-5.56084
-5.57851
-5.5962
-5.61388
-5.63125
-5.64819
-5.66537
-5.68316
-5.70117
-5.7191
-5.73678
-5.75401
-5.77061
-5.78659
-5.80198
-5.81664
-5.83044
-5.84325
-5.85497
-5.86548
-5.87464
-5.88233
-5.88841
-5.89275
-5.89525
-5.89581
-5.89437
-5.89093
-5.88509
-5.87643
-5.86505
-5.85099
-5.8342
-5.81463
-5.79223
-5.76691
-5.73865
-5.70743
-5.67319
-5.63588
-5.59529
-5.55151
-5.5045
-5.45433
-5.4011
-5.34439
-5.28353
-5.21859
-5.14992