/*--------------------------------*- C++ -*----------------------------------*\
| =========                 |                                                 |
| \\      /  F ield         | OpenFOAM: The Open Source CFD Toolbox           |
|  \\    /   O peration     | Version:  2112                                  |
|   \\  /    A nd           | Website:  www.openfoam.com                      |
|    \\/     M anipulation  |                                                 |
\*---------------------------------------------------------------------------*/
FoamFile
{
    version     2.0;
    format      ascii;
    arch        "LSB;label=32;scalar=64";
    class       volVectorField;
    location    "0.31";
    object      U;
}
// * * * * * * * * * * * * * * * * * * * * * * * * * * * * * * * * * * * * * //

dimensions      [0 1 -1 0 0 0 0];

internalField   nonuniform List<vector> 
12225
(
(9.75728 0.0598278 0)
(9.27814 0.0947139 0)
(8.79699 0.0989971 0)
(8.33648 0.0976276 0)
(7.92344 0.0932234 0)
(7.56927 0.0862177 0)
(7.27869 0.0794466 0)
(7.03118 0.0742885 0)
(6.82903 0.0689284 0)
(6.6758 0.0617491 0)
(6.57125 0.0525774 0)
(6.50979 0.0420498 0)
(6.48345 0.034298 0)
(6.481 0.0306085 0)
(6.4866 0.030174 0)
(6.49593 0.0331749 0)
(6.45852 0.0589906 0)
(6.43515 0.0435914 0)
(10.1051 0.0738217 0)
(10.313 0.107064 0)
(10.4486 0.106799 0)
(10.518 0.105095 0)
(10.538 0.100465 0)
(10.5161 0.0912866 0)
(10.4582 0.0803835 0)
(10.3698 0.0694982 0)
(10.2543 0.0568324 0)
(10.1133 0.0415538 0)
(9.94795 0.0248299 0)
(9.76152 0.00859659 0)
(9.55872 -0.00402891 0)
(9.34604 -0.0117418 0)
(9.13035 -0.0152313 0)
(8.92133 -0.0107218 0)
(8.71798 0.00255286 0)
(8.60225 0.0722213 0)
(10.0112 0.0356357 0)
(10.0621 0.0538786 0)
(10.1159 0.0585358 0)
(10.1653 0.0666702 0)
(10.2145 0.0739561 0)
(10.2618 0.078569 0)
(10.303 0.082874 0)
(10.3373 0.0882974 0)
(10.3646 0.0940325 0)
(10.3835 0.0998117 0)
(10.3923 0.106258 0)
(10.3898 0.113967 0)
(10.3753 0.122186 0)
(10.3483 0.130476 0)
(10.3084 0.138622 0)
(10.256 0.148611 0)
(10.1933 0.158452 0)
(10.1225 0.176869 0)
(10.0062 0.0297147 0)
(10.0349 0.0581339 0)
(10.062 0.0677815 0)
(10.0812 0.0740776 0)
(10.0983 0.0777819 0)
(10.116 0.0783346 0)
(10.1328 0.0775881 0)
(10.1488 0.076866 0)
(10.1648 0.0758367 0)
(10.1806 0.0741522 0)
(10.1955 0.072186 0)
(10.2095 0.0706798 0)
(10.2227 0.0704398 0)
(10.2358 0.0727174 0)
(10.2493 0.0783416 0)
(10.2647 0.088513 0)
(10.2829 0.102427 0)
(10.3083 0.117789 0)
(10.0045 0.0247357 0)
(10.0272 0.0517592 0)
(10.0504 0.0602557 0)
(10.0668 0.0649202 0)
(10.08 0.0684366 0)
(10.0926 0.0698805 0)
(10.1038 0.0703125 0)
(10.1136 0.0709845 0)
(10.1228 0.0719073 0)
(10.1316 0.0729003 0)
(10.1398 0.0743436 0)
(10.1474 0.076909 0)
(10.1549 0.0810702 0)
(10.1629 0.0871193 0)
(10.1723 0.094961 0)
(10.1844 0.104729 0)
(10.2005 0.115182 0)
(10.2256 0.124989 0)
(10.0032 0.0202236 0)
(10.021 0.0452394 0)
(10.0416 0.0550265 0)
(10.0575 0.0607013 0)
(10.0704 0.0651767 0)
(10.0824 0.0676152 0)
(10.0933 0.0686859 0)
(10.1027 0.0695284 0)
(10.1113 0.0703519 0)
(10.1192 0.0710521 0)
(10.1265 0.0718793 0)
(10.1332 0.0732993 0)
(10.1397 0.0756475 0)
(10.1466 0.0791739 0)
(10.1546 0.0839492 0)
(10.1649 0.0900215 0)
(10.1786 0.0963655 0)
(10.1973 0.101504 0)
(10.0023 0.0166235 0)
(10.0163 0.0396703 0)
(10.0342 0.050406 0)
(10.0492 0.0563915 0)
(10.0616 0.060782 0)
(10.0731 0.0633365 0)
(10.0837 0.0645506 0)
(10.0931 0.0653985 0)
(10.1018 0.066223 0)
(10.1098 0.0670332 0)
(10.1174 0.0680386 0)
(10.1245 0.0696207 0)
(10.1315 0.0720831 0)
(10.139 0.0756059 0)
(10.1477 0.0801429 0)
(10.1582 0.0854072 0)
(10.1714 0.0904084 0)
(10.1879 0.0935234 0)
(10.0017 0.0137854 0)
(10.0127 0.0346181 0)
(10.0281 0.0456529 0)
(10.042 0.0517931 0)
(10.0538 0.0561606 0)
(10.0648 0.0589811 0)
(10.075 0.0605658 0)
(10.0844 0.0616612 0)
(10.093 0.0626561 0)
(10.1012 0.0636364 0)
(10.1089 0.0647672 0)
(10.1163 0.0663247 0)
(10.1238 0.0685179 0)
(10.1318 0.0714076 0)
(10.1409 0.0748371 0)
(10.1514 0.0784148 0)
(10.1639 0.081312 0)
(10.1786 0.0823647 0)
(10.0012 0.0115089 0)
(10.01 0.0300374 0)
(10.0231 0.0409631 0)
(10.0359 0.0472537 0)
(10.0471 0.0516392 0)
(10.0575 0.0546332 0)
(10.0674 0.05646 0)
(10.0766 0.0576906 0)
(10.0852 0.0587298 0)
(10.0933 0.0597264 0)
(10.1012 0.0608217 0)
(10.1089 0.0622116 0)
(10.1167 0.0640318 0)
(10.125 0.0662792 0)
(10.1341 0.068767 0)
(10.1445 0.0711135 0)
(10.1562 0.0726776 0)
(10.1694 0.0726338 0)
(10.0009 0.00965502 0)
(10.0079 0.0259379 0)
(10.019 0.036431 0)
(10.0306 0.0427544 0)
(10.0412 0.0470955 0)
(10.0511 0.0501375 0)
(10.0607 0.052105 0)
(10.0697 0.0534362 0)
(10.0782 0.0545101 0)
(10.0863 0.0555058 0)
(10.0942 0.0565437 0)
(10.1021 0.0577546 0)
(10.1101 0.0592137 0)
(10.1186 0.0608768 0)
(10.1277 0.06255 0)
(10.1377 0.0638934 0)
(10.1487 0.0644164 0)
(10.1605 0.0635747 0)
(10.0007 0.008119 0)
(10.0063 0.0222912 0)
(10.0158 0.0321022 0)
(10.0262 0.0383011 0)
(10.0362 0.0425342 0)
(10.0456 0.0455426 0)
(10.0547 0.0475753 0)
(10.0635 0.0489656 0)
(10.0719 0.0500407 0)
(10.08 0.0509857 0)
(10.088 0.0519055 0)
(10.096 0.0528841 0)
(10.1041 0.0539541 0)
(10.1125 0.0550512 0)
(10.1215 0.0559974 0)
(10.1311 0.0565163 0)
(10.1413 0.0562525 0)
(10.1519 0.0548705 0)
(10.0006 0.0069068 0)
(10.0053 0.0192653 0)
(10.0134 0.028298 0)
(10.0229 0.0342545 0)
(10.0322 0.0383349 0)
(10.0411 0.0412517 0)
(10.0499 0.043273 0)
(10.0585 0.0446626 0)
(10.0668 0.0456961 0)
(10.0748 0.0465508 0)
(10.0828 0.0473207 0)
(10.0908 0.0480601 0)
(10.0989 0.0487755 0)
(10.1073 0.0493981 0)
(10.1161 0.0497758 0)
(10.1252 0.0496942 0)
(10.1347 0.0488997 0)
(10.1445 0.0471957 0)
(10.0005 0.00587824 0)
(10.0044 0.0165663 0)
(10.0114 0.0247061 0)
(10.02 0.0302906 0)
(10.0287 0.034156 0)
(10.0372 0.0369243 0)
(10.0457 0.0388685 0)
(10.054 0.040207 0)
(10.0622 0.0411655 0)
(10.0701 0.0419027 0)
(10.0781 0.0425012 0)
(10.086 0.0429967 0)
(10.0941 0.0433805 0)
(10.1023 0.0435875 0)
(10.1108 0.0434944 0)
(10.1195 0.0429422 0)
(10.1284 0.0417534 0)
(10.1374 0.0398276 0)
(10.0004 0.0048482 0)
(10.0037 0.0137722 0)
(10.0097 0.0208194 0)
(10.0173 0.0258494 0)
(10.0253 0.0293833 0)
(10.0334 0.0319124 0)
(10.0414 0.0336946 0)
(10.0495 0.0349112 0)
(10.0574 0.0357372 0)
(10.0653 0.0363038 0)
(10.0731 0.0366807 0)
(10.081 0.0368908 0)
(10.0889 0.0369189 0)
(10.0969 0.0367104 0)
(10.105 0.0361751 0)
(10.1132 0.0352077 0)
(10.1215 0.0336962 0)
(10.1297 0.0316122 0)
(10.0003 0.00381753 0)
(10.003 0.0109129 0)
(10.0082 0.0166854 0)
(10.0148 0.0209501 0)
(10.0222 0.023991 0)
(10.0297 0.0261564 0)
(10.0373 0.0276648 0)
(10.0451 0.028662 0)
(10.0528 0.0292767 0)
(10.0604 0.0296087 0)
(10.0681 0.0297128 0)
(10.0757 0.0296047 0)
(10.0834 0.0292703 0)
(10.0911 0.0286708 0)
(10.0988 0.0277487 0)
(10.1065 0.0264445 0)
(10.114 0.0246964 0)
(10.1215 0.022523 0)
(10.0003 0.00278302 0)
(10.0025 0.00799055 0)
(10.0069 0.0123166 0)
(10.0127 0.015591 0)
(10.0194 0.0179425 0)
(10.0264 0.0195873 0)
(10.0336 0.0206853 0)
(10.0409 0.0213444 0)
(10.0483 0.0216527 0)
(10.0557 0.0216785 0)
(10.0631 0.0214613 0)
(10.0704 0.0210129 0)
(10.0778 0.0203248 0)
(10.0851 0.0193751 0)
(10.0923 0.0181339 0)
(10.0994 0.0165764 0)
(10.1063 0.0146734 0)
(10.1131 0.0124688 0)
(10.0002 0.00172989 0)
(10.0022 0.00497428 0)
(10.0059 0.00769012 0)
(10.0111 0.00975288 0)
(10.0171 0.011202 0)
(10.0235 0.0121464 0)
(10.0303 0.0126805 0)
(10.0372 0.0128712 0)
(10.0443 0.012771 0)
(10.0513 0.01242 0)
(10.0584 0.0118425 0)
(10.0654 0.0110466 0)
(10.0723 0.0100294 0)
(10.0791 0.00878207 0)
(10.0858 0.00729379 0)
(10.0924 0.00555998 0)
(10.0987 0.00357282 0)
(10.1048 0.00138297 0)
(10.0002 0.000621325 0)
(10.0019 0.00177198 0)
(10.0053 0.00269438 0)
(10.0099 0.00331958 0)
(10.0154 0.00364277 0)
(10.0215 0.00369105 0)
(10.0278 0.00349516 0)
(10.0343 0.00308049 0)
(10.041 0.0024674 0)
(10.0477 0.0016711 0)
(10.0543 0.000700642 0)
(10.0609 -0.000440675 0)
(10.0674 -0.00175352 0)
(10.0738 -0.00323985 0)
(10.08 -0.00490115 0)
(10.0859 -0.00673338 0)
(10.0917 -0.0087361 0)
(10.0972 -0.0108628 0)
(10.0002 -0.000611047 0)
(10.0018 -0.00179429 0)
(10.005 -0.00289495 0)
(10.0095 -0.0039242 0)
(10.0147 -0.0049251 0)
(10.0205 -0.00594458 0)
(10.0265 -0.00701123 0)
(10.0328 -0.00813948 0)
(10.0391 -0.00934018 0)
(10.0454 -0.0106236 0)
(10.0517 -0.0119978 0)
(10.0579 -0.0134685 0)
(10.064 -0.0150401 0)
(10.0699 -0.0167156 0)
(10.0756 -0.0184966 0)
(10.0811 -0.0203798 0)
(10.0864 -0.0223671 0)
(10.0914 -0.0244246 0)
(10.0002 -0.00180044 0)
(10.002 -0.00522432 0)
(10.0054 -0.0082259 0)
(10.0101 -0.0107639 0)
(10.0155 -0.0129488 0)
(10.0213 -0.0149149 0)
(10.0273 -0.0167451 0)
(10.0334 -0.0184861 0)
(10.0397 -0.0201755 0)
(10.0458 -0.021845 0)
(10.0519 -0.0235158 0)
(10.0579 -0.025201 0)
(10.0637 -0.02691 0)
(10.0693 -0.0286517 0)
(10.0747 -0.0304344 0)
(10.0799 -0.0322632 0)
(10.0848 -0.0341466 0)
(10.0894 -0.0360665 0)
(10.0003 -0.00288126 0)
(10.0023 -0.0082934 0)
(10.0063 -0.0128615 0)
(10.0114 -0.0165318 0)
(10.0172 -0.0195535 0)
(10.0232 -0.0221717 0)
(10.0293 -0.0245134 0)
(10.0355 -0.0266542 0)
(10.0417 -0.0286638 0)
(10.0479 -0.0305954 0)
(10.0539 -0.0324765 0)
(10.0598 -0.0343185 0)
(10.0655 -0.0361295 0)
(10.071 -0.03792 0)
(10.0763 -0.0397027 0)
(10.0813 -0.0414894 0)
(10.086 -0.0432943 0)
(10.0905 -0.0451134 0)
(10.0003 -0.00404566 0)
(10.0029 -0.0114963 0)
(10.0077 -0.0174618 0)
(10.0137 -0.0219985 0)
(10.0199 -0.0256382 0)
(10.0262 -0.0287471 0)
(10.0325 -0.0314526 0)
(10.0389 -0.0338435 0)
(10.0452 -0.0360266 0)
(10.0513 -0.0380792 0)
(10.0573 -0.0400321 0)
(10.0632 -0.0418922 0)
(10.0688 -0.0436671 0)
(10.0743 -0.045372 0)
(10.0795 -0.0470285 0)
(10.0844 -0.0486601 0)
(10.089 -0.0502944 0)
(10.0933 -0.0519454 0)
(10.0005 -0.00540105 0)
(10.0039 -0.0150388 0)
(10.01 -0.0221873 0)
(10.0169 -0.0272643 0)
(10.0236 -0.0312805 0)
(10.0303 -0.0347296 0)
(10.0369 -0.0377238 0)
(10.0435 -0.0403737 0)
(10.0499 -0.0428164 0)
(10.0561 -0.0451249 0)
(10.0622 -0.0473018 0)
(10.0682 -0.0493262 0)
(10.0739 -0.051189 0)
(10.0794 -0.0529007 0)
(10.0846 -0.0544853 0)
(10.0894 -0.0559738 0)
(10.0939 -0.0574015 0)
(10.098 -0.0587896 0)
(10.0007 -0.00708212 0)
(10.0055 -0.0190756 0)
(10.0133 -0.027126 0)
(10.0213 -0.03248 0)
(10.0286 -0.0366521 0)
(10.0355 -0.040096 0)
(10.0424 -0.0429201 0)
(10.0491 -0.0453672 0)
(10.0555 -0.0476731 0)
(10.0618 -0.0499207 0)
(10.0679 -0.0520759 0)
(10.074 -0.0540814 0)
(10.0799 -0.0559097 0)
(10.0855 -0.0575685 0)
(10.0908 -0.0590884 0)
(10.0957 -0.0605139 0)
(10.1003 -0.061904 0)
(10.1046 -0.0633274 0)
(10.001 -0.00930362 0)
(10.008 -0.0236275 0)
(10.0179 -0.0319417 0)
(10.0271 -0.0374853 0)
(10.035 -0.0422955 0)
(10.0424 -0.0463644 0)
(10.0496 -0.0495975 0)
(10.0565 -0.0523282 0)
(10.0629 -0.0548842 0)
(10.0691 -0.0573531 0)
(10.0753 -0.0596476 0)
(10.0814 -0.0616545 0)
(10.0874 -0.0633186 0)
(10.093 -0.0646414 0)
(10.0983 -0.0656559 0)
(10.1032 -0.0664097 0)
(10.1076 -0.06696 0)
(10.1113 -0.0673249 0)
(10.0017 -0.0124411 0)
(10.0118 -0.0292248 0)
(10.0241 -0.0363552 0)
(10.0339 -0.0402521 0)
(10.0419 -0.0439361 0)
(10.0496 -0.0472145 0)
(10.0571 -0.0499422 0)
(10.0641 -0.0524864 0)
(10.0705 -0.055176 0)
(10.0768 -0.0580562 0)
(10.0831 -0.0609518 0)
(10.0895 -0.0636665 0)
(10.0958 -0.0660978 0)
(10.1019 -0.0682364 0)
(10.1076 -0.0701365 0)
(10.113 -0.0718756 0)
(10.118 -0.0735747 0)
(10.1227 -0.0753066 0)
(10.0029 -0.0162268 0)
(10.0178 -0.0370827 0)
(10.0335 -0.046421 0)
(10.0442 -0.0522173 0)
(10.0526 -0.0566721 0)
(10.061 -0.0596143 0)
(10.0695 -0.0615119 0)
(10.0774 -0.0630724 0)
(10.085 -0.0647055 0)
(10.0928 -0.066421 0)
(10.1011 -0.0679748 0)
(10.1098 -0.0691261 0)
(10.1187 -0.0697395 0)
(10.1276 -0.0697646 0)
(10.1363 -0.0692123 0)
(10.1445 -0.0681422 0)
(10.1524 -0.0666524 0)
(10.159 -0.0646659 0)
(10.0046 -0.0188343 0)
(10.0291 -0.0310521 0)
(10.0557 -0.0340142 0)
(10.0784 -0.0394841 0)
(10.101 -0.0457995 0)
(10.1247 -0.0510072 0)
(10.1487 -0.0554979 0)
(10.1718 -0.0601122 0)
(10.1943 -0.0653497 0)
(10.2167 -0.0710798 0)
(10.2391 -0.0767892 0)
(10.2613 -0.0821474 0)
(10.2826 -0.0870806 0)
(10.3024 -0.0916222 0)
(10.3201 -0.0958498 0)
(10.3355 -0.0998873 0)
(10.3483 -0.103896 0)
(10.3586 -0.107846 0)
(10.0549 -0.0494928 0)
(10.1822 -0.0761669 0)
(10.2841 -0.077233 0)
(10.3595 -0.0782515 0)
(10.4163 -0.0795383 0)
(10.4573 -0.0793841 0)
(10.4826 -0.0781418 0)
(10.4935 -0.076695 0)
(10.4923 -0.0759641 0)
(10.481 -0.0759251 0)
(10.4605 -0.0756006 0)
(10.4308 -0.0741934 0)
(10.3917 -0.0713602 0)
(10.3435 -0.0670397 0)
(10.2864 -0.0613163 0)
(10.2209 -0.0545317 0)
(10.1479 -0.0469845 0)
(10.0676 -0.0399602 0)
(9.86856 -0.0426419 0)
(9.60465 -0.0724698 0)
(9.32634 -0.0792927 0)
(9.04533 -0.0818642 0)
(8.77691 -0.0828237 0)
(8.52591 -0.0822605 0)
(8.29222 -0.0807226 0)
(8.07603 -0.0790174 0)
(7.87453 -0.0780496 0)
(7.68229 -0.077957 0)
(7.49983 -0.0780604 0)
(7.32864 -0.0776569 0)
(7.17058 -0.0763465 0)
(7.02762 -0.0739591 0)
(6.90135 -0.0704644 0)
(6.79294 -0.065986 0)
(6.70149 -0.0610636 0)
(6.62889 -0.0545676 0)
(-0.0057992 0.0105346 -2.60711e-21)
(-0.0102443 0.0119252 2.45451e-21)
(-0.0196751 0.0128553 0)
(-0.0293798 0.0136068 0)
(-0.0394537 0.01414 0)
(-0.0499776 0.0144839 -2.39537e-21)
(-0.0608895 0.0147074 0)
(-0.072123 0.0148777 0)
(-0.0836497 0.0150419 0)
(-0.0954642 0.0152273 0)
(-0.107572 0.0154456 2.30331e-21)
(-0.119985 0.0156997 0)
(-0.13272 0.0159871 0)
(-0.145793 0.0163041 0)
(-0.159225 0.0166473 0)
(-0.173034 0.0170147 2.21974e-21)
(-0.187242 0.0174076 0)
(-0.201871 0.0178332 0)
(-0.216947 0.0183115 0)
(-0.232507 0.0188869 0)
(-0.248619 0.0196528 0)
(-0.265375 0.0207769 0)
(-0.282883 0.0221179 0)
(-0.301201 0.0231456 2.11824e-21)
(-0.320241 0.0237613 -2.10929e-21)
(-0.339908 0.0242732 2.10026e-21)
(-0.360211 0.0248289 2.09129e-21)
(-0.381187 0.025452 0)
(-0.402867 0.0261311 0)
(-0.425276 0.0268457 -2.06544e-21)
(-0.448431 0.0275681 -2.05728e-21)
(-0.472335 0.0282695 0)
(-0.49698 0.0289269 0)
(-0.522348 0.0295277 -2.03412e-21)
(-0.548416 0.0300712 0)
(-0.575159 0.0305656 0)
(-0.602552 0.0310191 2.01258e-21)
(-0.630572 0.0314353 0)
(-0.65919 0.0318141 1.99899e-21)
(-0.688378 0.0321536 3.98483e-21)
(-0.718103 0.0324508 0)
(-0.748328 0.0327024 0)
(-0.779012 0.0329043 0)
(-0.810113 0.0330526 0)
(-0.841582 0.0331443 0)
(-0.873368 0.0331781 3.91113e-21)
(-0.90542 0.0331548 3.89941e-21)
(-0.937684 0.0330745 3.88775e-21)
(-0.970107 0.0329365 0)
(-1.00263 0.0327403 -3.86433e-21)
(-1.03521 0.0324871 0)
(-1.06777 0.0321788 3.84041e-21)
(-1.10027 0.0318144 3.8281e-21)
(-1.13265 0.0313881 0)
(-1.16485 0.0308912 0)
(-1.1968 0.0303162 0)
(-1.22845 0.0296633 3.77507e-21)
(-1.25973 0.0289558 0)
(-1.29059 0.0282571 0)
(-1.32103 0.0276247 0)
(-1.35105 0.0270369 0)
(-1.38064 0.026444 0)
(-1.40976 0.0258312 0)
(-1.43837 0.0251982 0)
(-1.46646 0.0245456 0)
(-1.49398 0.0238742 -3.61501e-21)
(-1.5209 0.0231849 0)
(-1.54721 0.0224791 0)
(-1.57286 0.021759 3.54399e-21)
(-1.59784 0.0210276 3.51796e-21)
(-1.62212 0.0202878 0)
(-1.64568 0.0195422 -3.46214e-21)
(-1.66851 0.0187925 3.43231e-21)
(-1.69057 0.0180392 0)
(-1.71186 0.0172816 -3.36865e-21)
(-1.73234 0.0165176 0)
(-1.75201 0.0157455 0)
(-1.77085 0.0149664 3.26297e-21)
(-1.78883 0.0141855 0)
(-1.80596 0.0134075 -3.18559e-21)
(-1.82221 0.0126335 0)
(-1.83758 0.0118635 3.10263e-21)
(-1.85206 0.0110973 3.05909e-21)
(-1.86565 0.0103349 3.01417e-21)
(-1.87834 0.00957669 5.93582e-21)
(-1.89013 0.0088229 -5.84065e-21)
(-1.90103 0.00807177 0)
(-1.91102 0.00731932 0)
(-1.9201 0.00656075 0)
(-1.92828 0.0057954 -5.43436e-21)
(-1.93555 0.00503806 -5.32668e-21)
(-1.94192 0.00432683 5.21667e-21)
(-1.9474 0.00367228 0)
(-1.95199 0.00302623 -4.99006e-21)
(-1.95567 0.00235614 -4.87366e-21)
(-1.95843 0.00168938 -4.75534e-21)
(-1.96022 0.00107832 0)
(-1.9611 0.000519106 0)
(-1.96117 -1.22768e-05 0)
(-1.96044 -0.000521039 -4.26346e-21)
(-1.95893 -0.00100875 0)
(-1.95666 -0.00147628 0)
(-1.95365 -0.00192396 3.8774e-21)
(-1.9499 -0.00235259 0)
(-1.94544 -0.00276418 0)
(-1.94026 -0.00316253 3.47929e-21)
(-1.9344 -0.00355161 0)
(-1.92784 -0.00393344 0)
(-1.92061 -0.0043082 -3.07149e-21)
(-1.91271 -0.00467527 -2.93378e-21)
(-1.90415 -0.00503393 0)
(-1.89493 -0.00538392 2.65615e-21)
(-1.88506 -0.00572543 0)
(-1.87455 -0.0060593 -2.37607e-21)
(-1.8634 -0.00638789 0)
(-1.85161 -0.00671603 -2.09413e-21)
(-1.83917 -0.00705286 -1.95264e-21)
(-1.82608 -0.00741419 0)
(-1.8123 -0.00781834 0)
(-1.79782 -0.00826599 0)
(-1.78263 -0.00870279 0)
(-1.76674 -0.00902681 0)
(-1.75031 -0.00925736 0)
(-1.73334 -0.00947193 0)
(-1.71587 -0.00967053 -8.16275e-22)
(-1.69789 -0.00984933 6.74395e-22)
(-1.67943 -0.0100082 0)
(-1.66051 -0.0101519 0)
(-1.64112 -0.0102862 0)
(-1.62129 -0.0104141 0)
(-1.60102 -0.0105365 -6.07444e-23)
(-1.58031 -0.0106541 0)
(-1.55916 -0.0107673 6.18336e-22)
(-1.53759 -0.0108751 -8.95424e-22)
(-1.51558 -0.0109765 0)
(-1.49316 -0.0110731 0)
(-1.47031 -0.0111683 0)
(-1.44703 -0.011265 1.99047e-21)
(-1.42331 -0.0113662 2.26049e-21)
(-1.39914 -0.0114773 0)
(-1.37449 -0.0116037 2.79552e-21)
(-1.34934 -0.0117479 3.06037e-21)
(-1.32367 -0.0119107 -3.32335e-21)
(-1.29746 -0.0120939 0)
(-1.27067 -0.0123012 0)
(-1.24327 -0.0125361 -4.10029e-21)
(-1.21522 -0.0128003 0)
(-1.18648 -0.0130955 0)
(-1.157 -0.0134225 0)
(-1.12675 -0.0137807 0)
(-1.09567 -0.0141648 5.34988e-21)
(-1.06374 -0.0145681 5.59213e-21)
(-1.03091 -0.0149869 0)
(-0.997169 -0.015418 6.06803e-21)
(-0.962487 -0.0158586 0)
(-0.926844 -0.0163086 0)
(-0.890217 -0.0167722 6.75815e-21)
(-0.852581 -0.0172535 0)
(-0.813912 -0.017753 7.2001e-21)
(-0.77419 -0.0182698 0)
(-0.7334 -0.0188027 0)
(-0.691532 -0.0193501 7.83039e-21)
(-0.648586 -0.0199097 0)
(-0.604569 -0.0204797 8.22457e-21)
(-0.559494 -0.0210604 0)
(-0.513378 -0.0216554 0)
(-0.466232 -0.0222753 0)
(-0.418049 -0.0229396 -8.93026e-21)
(-0.36879 -0.0236788 0)
(-0.318389 -0.0245289 9.22278e-21)
(-0.266748 -0.0255 0)
(-0.213765 -0.026253 0)
(-0.161525 -0.0246728 0)
(-0.11352 -0.0206197 0)
(-0.0681035 -0.0182071 0)
(-0.0217584 -0.0183268 0)
(0.0250566 -0.0179843 0)
(0.0702272 -0.0174085 -2.01672e-20)
(0.11576 -0.0184812 0)
(0.150272 -0.0162866 0)
(-0.00790185 0.0219149 7.73002e-21)
(-0.0115792 0.0249322 -7.27877e-21)
(-0.0221061 0.0272379 0)
(-0.0324899 0.0289601 4.80003e-21)
(-0.0431492 0.0302882 0)
(-0.0543075 0.031331 2.37176e-21)
(-0.065941 0.0321735 -4.70541e-21)
(-0.0779893 0.0328879 -4.66957e-21)
(-0.0904189 0.0335295 0)
(-0.103213 0.0341375 -4.59642e-21)
(-0.116367 0.0347392 -2.28229e-21)
(-0.129884 0.0353531 0)
(-0.143779 0.0359919 0)
(-0.158074 0.0366643 0)
(-0.172795 0.0373764 0)
(-0.187976 0.0381327 -2.19915e-21)
(-0.203656 0.0389374 0)
(-0.219876 0.0397959 4.33333e-21)
(-0.236681 0.0407159 0)
(-0.254115 0.0417096 0)
(-0.272209 0.0427948 -4.24976e-21)
(-0.290956 0.043993 0)
(-0.31033 0.0453018 4.19769e-21)
(-0.33037 0.0466517 -2.09092e-21)
(-0.35116 0.0479744 2.0791e-21)
(-0.372759 0.0492739 -2.06751e-21)
(-0.39517 0.0505733 -2.05617e-21)
(-0.418381 0.0518849 0)
(-0.442381 0.0532077 0)
(-0.467161 0.0545329 2.02359e-21)
(-0.492713 0.0558466 -2.00128e-21)
(-0.519026 0.0571325 0)
(-0.546088 0.0583749 0)
(-0.573886 0.0595609 1.98364e-21)
(-0.6024 0.0606812 0)
(-0.631607 0.0617297 0)
(-0.661476 0.062702 -1.9565e-21)
(-0.691973 0.0635934 0)
(-0.72306 0.0643986 1.92536e-21)
(-0.754693 0.0651122 -3.8635e-21)
(-0.786826 0.0657282 0)
(-0.819411 0.0662413 0)
(-0.852395 0.0666462 -7.60697e-21)
(-0.885724 0.0669387 -7.57847e-21)
(-0.91934 0.0671155 -7.55076e-21)
(-0.953186 0.0671748 3.74707e-21)
(-0.987201 0.0671161 -3.7634e-21)
(-1.02132 0.0669401 -1.12217e-20)
(-1.05549 0.0666481 7.44585e-21)
(-1.08965 0.0662419 3.72457e-21)
(-1.12373 0.0657238 0)
(-1.15767 0.0650963 -3.69893e-21)
(-1.19141 0.064362 3.65881e-21)
(-1.2249 0.0635237 0)
(-1.25809 0.0625853 0)
(-1.29093 0.0615527 0)
(-1.32338 0.060435 -3.63186e-21)
(-1.35541 0.0592468 0)
(-1.38699 0.0580091 7.18175e-21)
(-1.41809 0.0567383 0)
(-1.44863 0.0554341 7.11933e-21)
(-1.4786 0.0540897 0)
(-1.50796 0.052704 -7.05087e-21)
(-1.53668 0.0512796 0)
(-1.56474 0.0498199 6.97551e-21)
(-1.59211 0.0483288 -3.45825e-21)
(-1.61876 0.0468098 0)
(-1.64467 0.0452665 -6.84777e-21)
(-1.66982 0.0437024 -3.40864e-21)
(-1.69419 0.0421204 -3.38371e-21)
(-1.71776 0.0405234 0)
(-1.74051 0.0389139 -3.3161e-21)
(-1.76242 0.0372941 -3.30175e-21)
(-1.78348 0.035666 0)
(-1.80366 0.0340319 3.24085e-21)
(-1.82296 0.0323941 -6.40564e-21)
(-1.84137 0.0307555 0)
(-1.85886 0.0291191 -3.13972e-21)
(-1.87544 0.0274884 0)
(-1.89109 0.0258665 9.18855e-21)
(-1.90581 0.0242563 0)
(-1.9196 0.0226612 -8.95166e-21)
(-1.93244 0.0210845 -2.94447e-21)
(-1.94435 0.0195294 2.89594e-21)
(-1.95531 0.017999 5.70459e-21)
(-1.96535 0.0164957 -5.61474e-21)
(-1.97445 0.0150211 0)
(-1.98264 0.0135762 0)
(-1.98991 0.0121616 0)
(-1.99629 0.0107776 1.56974e-20)
(-2.00179 0.00942269 5.13008e-21)
(-2.00642 0.00809208 -5.0246e-21)
(-2.01017 0.00677739 0)
(-2.01306 0.00546942 -4.80978e-21)
(-2.01511 0.00416575 4.69559e-21)
(-2.01637 0.00288348 4.58193e-21)
(-2.0169 0.00165635 0)
(-2.01668 0.00050395 0)
(-2.01565 -0.000591548 0)
(-2.01381 -0.00164276 4.10871e-21)
(-2.01117 -0.00265468 0)
(-2.00773 -0.00363005 -7.73434e-21)
(-2.00352 -0.00457053 -1.12217e-20)
(-1.99854 -0.00547751 7.23231e-21)
(-1.99281 -0.00635235 0)
(-1.98634 -0.00719625 3.36666e-21)
(-1.97914 -0.00801032 0)
(-1.97123 -0.00879564 6.19999e-21)
(-1.96261 -0.00955352 -2.97612e-21)
(-1.9533 -0.0102856 -2.84417e-21)
(-1.94331 -0.0109939 0)
(-1.93264 -0.0116804 -7.69928e-21)
(-1.9213 -0.0123474 4.86996e-21)
(-1.9093 -0.0129972 2.29062e-21)
(-1.89664 -0.0136324 0)
(-1.88333 -0.0142557 2.0188e-21)
(-1.86936 -0.0148695 5.66816e-21)
(-1.85475 -0.0154749 0)
(-1.8395 -0.0160708 3.24019e-21)
(-1.82365 -0.0166508 2.96705e-21)
(-1.80721 -0.0171957 2.69376e-21)
(-1.79019 -0.0176789 0)
(-1.77261 -0.0181103 0)
(-1.75448 -0.0185138 0)
(-1.7358 -0.0188928 -8.12656e-22)
(-1.7166 -0.0192496 -6.49938e-22)
(-1.69689 -0.0195867 0)
(-1.67667 -0.0199067 -7.81411e-22)
(-1.65597 -0.0202115 -5.09966e-22)
(-1.63477 -0.0205023 0)
(-1.61309 -0.0207804 5.852e-23)
(-1.59094 -0.0210475 5.98377e-22)
(-1.56831 -0.021305 -5.9556e-22)
(-1.54521 -0.0215539 -8.04267e-22)
(-1.52163 -0.0217955 0)
(-1.49759 -0.0220325 0)
(-1.47307 -0.0222682 0)
(-1.44806 -0.0225059 -1.91553e-21)
(-1.42257 -0.0227487 2.11364e-21)
(-1.39657 -0.0229993 4.80296e-21)
(-1.37006 -0.0232598 -2.68816e-21)
(-1.34301 -0.0235311 2.8783e-21)
(-1.31541 -0.023814 3.19354e-21)
(-1.28725 -0.02411 0)
(-1.25849 -0.0244212 0)
(-1.22912 -0.02475 -3.86677e-21)
(-1.1991 -0.025098 0)
(-1.16842 -0.0254667 0)
(-1.13705 -0.025856 9.23266e-21)
(-1.10496 -0.0262648 0)
(-1.07212 -0.0266903 5.03956e-21)
(-1.03851 -0.027129 -5.34316e-21)
(-1.00412 -0.0275785 0)
(-0.968914 -0.0280364 5.70184e-21)
(-0.93288 -0.0285013 0)
(-0.895999 -0.0289723 0)
(-0.858254 -0.0294489 -6.41801e-21)
(-0.819627 -0.0299295 1.31428e-20)
(-0.780108 -0.0304104 -6.81486e-21)
(-0.739687 -0.0308872 0)
(-0.698363 -0.0313549 0)
(-0.656137 -0.0318078 7.25458e-21)
(-0.613018 -0.0322386 0)
(-0.569021 -0.0326401 7.57762e-21)
(-0.52417 -0.0330062 0)
(-0.478493 -0.033334 0)
(-0.43202 -0.0336245 0)
(-0.384781 -0.0338824 8.26836e-21)
(-0.336807 -0.0341103 0)
(-0.288159 -0.0342851 -8.50683e-21)
(-0.239014 -0.0342757 0)
(-0.189721 -0.0336495 0)
(-0.14103 -0.0319142 1.74365e-20)
(-0.0933138 -0.0301601 -1.76228e-20)
(-0.0454185 -0.0300794 0)
(0.0026527 -0.0303504 0)
(0.0508817 -0.0298698 0)
(0.0983119 -0.0284003 5.60033e-20)
(0.14748 -0.0266989 0)
(0.189492 -0.022664 -3.84707e-20)
(-0.00893738 0.0431442 6.31637e-25)
(-0.012918 0.0475289 9.80734e-21)
(-0.0240173 0.0509611 0)
(-0.035066 0.053767 -9.61794e-21)
(-0.0462198 0.0560639 0)
(-0.0578616 0.057951 0)
(-0.0700132 0.0595276 -3.61399e-24)
(-0.0826222 0.0608914 4.68185e-21)
(-0.0956599 0.0621278 4.65035e-21)
(-0.109114 0.0633057 4.6117e-21)
(-0.12298 0.0644777 0)
(-0.137262 0.0656833 0)
(-0.151975 0.0669519 -4.51279e-21)
(-0.167138 0.0683053 -8.96043e-21)
(-0.182777 0.0697598 8.89695e-21)
(-0.198924 0.0713286 0)
(-0.215611 0.0730228 8.77477e-21)
(-0.232874 0.0748529 -4.35387e-21)
(-0.250747 0.0768288 0)
(-0.269261 0.0789587 8.6022e-21)
(-0.288438 0.0812454 4.26887e-21)
(-0.308283 0.0836748 -8.49318e-21)
(-0.328792 0.0861964 -4.21466e-21)
(-0.349979 0.0887325 0)
(-0.371881 0.091235 8.33725e-21)
(-0.394532 0.0937036 8.28722e-21)
(-0.417946 0.0961509 0)
(-0.442118 0.0985814 8.19e-21)
(-0.467041 0.100988 0)
(-0.492701 0.103357 8.09662e-21)
(-0.519082 0.105664 4.01862e-21)
(-0.546167 0.107889 0)
(-0.573938 0.110009 0)
(-0.602374 0.112006 0)
(-0.631451 0.113867 0)
(-0.66114 0.115581 0)
(-0.69141 0.117138 0)
(-0.722221 0.118531 7.76772e-21)
(-0.753532 0.119751 -1.15896e-20)
(-0.785295 0.120787 0)
(-0.817462 0.121631 0)
(-0.849979 0.122275 0)
(-0.882793 0.122712 -1.73695e-23)
(-0.915846 0.122936 7.55181e-21)
(-0.94908 0.122945 1.50614e-20)
(-0.982437 0.122737 -1.50032e-20)
(-1.01586 0.122312 -7.48187e-21)
(-1.04928 0.121672 7.43636e-21)
(-1.08265 0.120823 1.7392e-23)
(-1.1159 0.119768 7.3988e-21)
(-1.14899 0.118515 0)
(-1.18185 0.117071 7.34418e-21)
(-1.21443 0.115444 1.65025e-23)
(-1.24669 0.113646 0)
(-1.27859 0.111688 0)
(-1.31008 0.109584 -7.23182e-21)
(-1.34113 0.107357 0)
(-1.37171 0.105028 0)
(-1.40179 0.102623 7.15409e-21)
(-1.43132 0.100157 1.42155e-20)
(-1.46026 0.0976332 -7.06104e-21)
(-1.48858 0.0950479 0)
(-1.51625 0.0924025 6.98948e-21)
(-1.54324 0.0897014 0)
(-1.56953 0.0869499 6.93302e-21)
(-1.59511 0.0841539 6.86921e-21)
(-1.61995 0.0813193 -1.36707e-20)
(-1.64404 0.0784522 -6.79851e-21)
(-1.66735 0.0755582 0)
(-1.68988 0.0726429 1.33791e-20)
(-1.71161 0.0697111 0)
(-1.73252 0.0667673 1.97352e-20)
(-1.75261 0.0638153 1.30466e-20)
(-1.77185 0.0608587 1.29261e-20)
(-1.79024 0.0579006 -1.28007e-20)
(-1.80777 0.0549447 1.89986e-20)
(-1.82443 0.0519948 0)
(-1.8402 0.0490559 0)
(-1.85509 0.0461334 -1.22482e-20)
(-1.86908 0.0432328 -1.81402e-20)
(-1.88217 0.0403593 0)
(-1.89435 0.0375182 5.88459e-21)
(-1.90563 0.0347144 0)
(-1.91601 0.0319532 -1.7158e-20)
(-1.92548 0.0292388 9.75469e-24)
(-1.93406 0.026575 -9.52192e-24)
(-1.94176 0.0239645 1.08981e-20)
(-1.94857 0.021409 0)
(-1.95452 0.01891 -1.05119e-20)
(-1.95962 0.0164696 8.87917e-24)
(-1.96387 0.0140906 0)
(-1.96728 0.0117756 0)
(-1.96987 0.00952284 0)
(-1.97163 0.00732987 9.46171e-21)
(-1.97259 0.00519968 0)
(-1.97276 0.00313188 0)
(-1.97215 0.00112441 0)
(-1.97074 -0.000825328 0)
(-1.96853 -0.00271596 0)
(-1.96553 -0.00454666 8.09294e-21)
(-1.96175 -0.00631693 0)
(-1.9572 -0.00802618 7.59693e-21)
(-1.95189 -0.00967459 7.35025e-21)
(-1.94583 -0.0112633 -7.10108e-21)
(-1.93904 -0.0127944 0)
(-1.93154 -0.0142705 -6.59595e-21)
(-1.92332 -0.0156946 0)
(-1.91442 -0.0170694 -6.08288e-21)
(-1.90483 -0.0183975 5.82375e-21)
(-1.89458 -0.0196815 1.67164e-20)
(-1.88366 -0.0209241 0)
(-1.8721 -0.0221281 1.51417e-20)
(-1.85989 -0.0232965 4.80229e-21)
(-1.84704 -0.0244326 0)
(-1.83358 -0.0255399 8.51399e-21)
(-1.81949 -0.0266223 7.98094e-21)
(-1.80479 -0.027683 -1.11546e-20)
(-1.7895 -0.0287237 0)
(-1.77363 -0.0297419 -3.17219e-21)
(-1.75721 -0.0307258 -2.90421e-21)
(-1.74025 -0.0316505 -7.9408e-21)
(-1.72276 -0.0324917 0)
(-1.70473 -0.0332576 0)
(-1.68616 -0.0339701 0)
(-1.66706 -0.0346372 -1.59769e-21)
(-1.64745 -0.0352637 0)
(-1.62734 -0.0358539 0)
(-1.60672 -0.0364122 7.63714e-22)
(-1.58562 -0.0369425 4.98325e-22)
(-1.56403 -0.0374481 0)
(-1.54195 -0.0379315 0)
(-1.5194 -0.0383951 -5.844e-22)
(-1.49638 -0.038841 0)
(-1.47289 -0.039271 1.62709e-21)
(-1.44893 -0.0396876 2.10626e-21)
(-1.4245 -0.0400946 0)
(-1.39959 -0.0404968 0)
(-1.37421 -0.0408992 -3.63937e-21)
(-1.34835 -0.0413068 -3.96485e-23)
(-1.322 -0.0417245 -3.99348e-23)
(-1.29515 -0.0421565 0)
(-1.2678 -0.0426054 -1.13099e-20)
(-1.23993 -0.0430733 0)
(-1.21153 -0.0435627 0)
(-1.18259 -0.0440766 0)
(-1.15309 -0.0446177 7.6036e-21)
(-1.12302 -0.0451885 0)
(-1.09236 -0.0457906 -1.69953e-20)
(-1.06109 -0.0464234 -8.99589e-21)
(-1.02919 -0.0470846 0)
(-0.996646 -0.0477691 -9.89396e-21)
(-0.963441 -0.0484712 0)
(-0.929556 -0.0491856 0)
(-0.894975 -0.049908 -3.34964e-20)
(-0.85968 -0.0506355 2.31419e-20)
(-0.823654 -0.0513668 0)
(-0.786879 -0.0521006 2.47612e-20)
(-0.749338 -0.0528343 -1.28031e-20)
(-0.711019 -0.053563 0)
(-0.671908 -0.0542802 0)
(-0.631999 -0.0549793 0)
(-0.591283 -0.0556531 -4.27116e-20)
(-0.549757 -0.0562926 0)
(-0.507424 -0.05689 -1.49059e-20)
(-0.464286 -0.0574405 0)
(-0.420352 -0.0579453 0)
(-0.375633 -0.0584124 0)
(-0.330144 -0.0588564 0)
(-0.283917 -0.0592874 0)
(-0.237027 -0.05968 0)
(-0.189658 -0.0598823 -3.36697e-20)
(-0.142067 -0.0594081 0)
(-0.0942495 -0.0576647 -1.73721e-20)
(-0.0458195 -0.0555661 5.30009e-20)
(0.00336081 -0.0547816 0)
(0.0525701 -0.0547033 0)
(0.102038 -0.0540189 -3.68838e-20)
(0.151167 -0.0524809 -3.73372e-20)
(0.202837 -0.050882 3.78261e-20)
(0.247803 -0.0467397 3.81868e-20)
(-0.00971894 0.0640538 -1.58494e-20)
(-0.0143542 0.0687545 -1.48383e-20)
(-0.0259154 0.0726745 -9.71193e-21)
(-0.0375628 0.0762649 -4.82381e-21)
(-0.049212 0.0794178 0)
(-0.0613285 0.0821422 9.52328e-21)
(-0.0739698 0.0845079 -4.73177e-21)
(-0.0870962 0.0866083 0)
(-0.100687 0.0885367 -4.66109e-21)
(-0.114733 0.0903756 0)
(-0.129233 0.0921934 9.18937e-21)
(-0.144191 0.094045 0)
(-0.159617 0.0959733 4.5268e-21)
(-0.175528 0.0980109 8.98933e-21)
(-0.191944 0.100182 -8.92639e-21)
(-0.208889 0.102504 0)
(-0.226389 0.104989 -8.80425e-21)
(-0.244467 0.107642 0)
(-0.263146 0.110465 0)
(-0.282443 0.113453 -8.62926e-21)
(-0.302369 0.116594 0)
(-0.32293 0.119864 -4.21553e-24)
(-0.344127 0.123226 0)
(-0.365971 0.126633 0)
(-0.388479 0.130048 5.12663e-24)
(-0.411664 0.133448 -8.30367e-21)
(-0.435532 0.136818 -8.25836e-21)
(-0.460078 0.140145 -8.20239e-21)
(-0.48529 0.143411 0)
(-0.511152 0.146594 -1.62172e-20)
(-0.537644 0.149671 0)
(-0.564745 0.152618 -8.02006e-21)
(-0.592431 0.155413 0)
(-0.620675 0.158034 0)
(-0.649449 0.160461 7.89112e-21)
(-0.67872 0.162679 0)
(-0.708448 0.16467 -7.81139e-21)
(-0.738593 0.166421 1.08319e-23)
(-0.769107 0.167917 1.54616e-20)
(-0.799942 0.169145 -1.54014e-20)
(-0.831047 0.170095 0)
(-0.862365 0.170757 0)
(-0.893843 0.171123 -7.61252e-21)
(-0.925423 0.171189 0)
(-0.957048 0.170951 -7.5226e-21)