/*--------------------------------*- C++ -*----------------------------------*\
| =========                 |                                                 |
| \\      /  F ield         | OpenFOAM: The Open Source CFD Toolbox           |
|  \\    /   O peration     | Version:  2112                                  |
|   \\  /    A nd           | Website:  www.openfoam.com                      |
|    \\/     M anipulation  |                                                 |
\*---------------------------------------------------------------------------*/
FoamFile
{
    version     2.0;
    format      ascii;
    arch        "LSB;label=32;scalar=64";
    class       volScalarField;
    location    "0.52";
    object      ddt0(kU);
}
// * * * * * * * * * * * * * * * * * * * * * * * * * * * * * * * * * * * * * //

dimensions      [0 2 -3 0 0 0 0];

internalField   nonuniform List<scalar> 
12225
(
-0.00105994
-0.0118045
-0.0451385
-0.106083
-0.282314
-0.483523
-0.685878
-0.865178
-1.01073
-1.15213
-1.33219
-1.5054
-0.553428
0.456109
1.5131
2.82568
4.89865
11.0253
0.00579883
0.0235259
0.0462442
0.065232
0.072921
0.0670241
0.043048
-0.00354529
-0.0695048
-0.13724
-0.202487
-0.30085
-0.339113
-0.281024
-0.072321
0.354893
1.19253
2.57735
-0.00115416
0.00103606
0.00560473
0.0105826
0.00907308
0.00879746
0.0109948
0.0167049
0.028127
0.0510364
0.0776957
0.0599275
0.044464
0.0213099
-0.0232289
-0.112926
-0.298924
-0.676697
-0.000233921
-0.00136208
-0.00253312
-0.0039185
-0.00324704
-0.00314556
-0.0044701
-0.00826041
-0.0128782
-0.0244429
-0.0375315
-0.0547991
-0.0793282
-0.113025
-0.158175
-0.218491
-0.294264
-0.377375
-0.000171583
-0.00247527
-0.00672302
-0.012425
-0.0194621
-0.0285418
-0.0410514
-0.0459481
-0.0553838
-0.0680677
-0.0825425
-0.10163
-0.126171
-0.157175
-0.196202
-0.244672
-0.30153
-0.359092
-6.84656e-05
-0.0018061
-0.00491682
-0.00946314
-0.0161788
-0.0260438
-0.0400432
-0.0590966
-0.0665076
-0.0762186
-0.090488
-0.109411
-0.132956
-0.16193
-0.197237
-0.239139
-0.2861
-0.331248
-1.2784e-06
-0.0015069
-0.00465756
-0.00958763
-0.0167795
-0.0268431
-0.0410091
-0.0602847
-0.0684496
-0.0784373
-0.091555
-0.108326
-0.129271
-0.154907
-0.185471
-0.220536
-0.258522
-0.294304
8.80489e-06
-0.00131545
-0.00423576
-0.00880134
-0.0153598
-0.0247049
-0.0379547
-0.0565595
-0.0656274
-0.0766028
-0.0901382
-0.106571
-0.126123
-0.149021
-0.175343
-0.204608
-0.235553
-0.264686
-3.57358e-05
-0.00121626
-0.00389322
-0.00815098
-0.014374
-0.0232103
-0.035587
-0.0528946
-0.0618282
-0.0724824
-0.0852334
-0.100336
-0.117937
-0.138131
-0.160837
-0.185541
-0.211303
-0.235854
-0.000104651
-0.00116479
-0.00359409
-0.00753927
-0.013277
-0.0213783
-0.0326947
-0.0484203
-0.0573052
-0.0676928
-0.0797736
-0.093693
-0.10952
-0.127256
-0.146771
-0.167657
-0.189301
-0.210251
-0.000196349
-0.00116498
-0.00333454
-0.00687472
-0.012054
-0.0193953
-0.0296749
-0.0439336
-0.0633199
-0.0716434
-0.0812175
-0.092216
-0.104801
-0.119036
-0.134819
-0.151811
-0.169586
-0.187136
-0.000312678
-0.0012623
-0.00325407
-0.00645992
-0.0111006
-0.0176301
-0.0267268
-0.0393424
-0.056525
-0.0645334
-0.0736756
-0.0840226
-0.095575
-0.108246
-0.121864
-0.136155
-0.150889
-0.165416
-0.000448236
-0.00139568
-0.00320952
-0.00606896
-0.01017
-0.0159055
-0.0238678
-0.0348588
-0.0498492
-0.0595992
-0.0667166
-0.0762018
-0.086731
-0.0980303
-0.109914
-0.122166
-0.134675
-0.146964
-0.000607333
-0.00156271
-0.00318763
-0.00567052
-0.00919317
-0.0140773
-0.0208091
-0.030041
-0.0425759
-0.0592495
-0.0664581
-0.0743685
-0.0828531
-0.0917949
-0.101068
-0.110531
-0.120167
-0.129616
-0.000792998
-0.00178844
-0.00324525
-0.00533253
-0.0082104
-0.0121464
-0.0175454
-0.0249178
-0.034903
-0.0481605
-0.0653804
-0.0715838
-0.0781202
-0.0848734
-0.0917615
-0.0986726
-0.10565
-0.112394
-0.000987029
-0.00203484
-0.00333367
-0.00502624
-0.00725552
-0.0102446
-0.014315
-0.0198656
-0.0273475
-0.0372673
-0.0500649
-0.0661508
-0.0713495
-0.0769663
-0.082816
-0.0880566
-0.0929383
-0.0973355
-0.00115443
-0.00224355
-0.00339525
-0.0047216
-0.00634641
-0.0084566
-0.0113083
-0.0152015
-0.0204548
-0.0273773
-0.0362606
-0.0473351
-0.0607757
-0.0765954
-0.0927135
-0.0909093
-0.0899536
-0.0902414
-0.00124222
-0.00232696
-0.00333311
-0.00434426
-0.00546693
-0.00685992
-0.0087261
-0.0112854
-0.01475
-0.0193041
-0.0250828
-0.0321686
-0.040584
-0.0502943
-0.0611819
-0.0730223
-0.0858397
-0.0988731
-0.0011794
-0.0021521
-0.0029703
-0.00370192
-0.00444082
-0.00532082
-0.00650053
-0.00813965
-0.0103798
-0.013328
-0.0170421
-0.0215211
-0.0266991
-0.0324432
-0.0385764
-0.0448335
-0.0510413
-0.0566081
-0.00100702
-0.00179512
-0.00241084
-0.00292363
-0.00342167
-0.00401619
-0.00483048
-0.0059854
-0.00758612
-0.00970901
-0.012389
-0.0156079
-0.0192857
-0.0232721
-0.0273507
-0.0312174
-0.0345866
-0.0369413
-0.000826063
-0.00144086
-0.00189301
-0.00226219
-0.00263414
-0.00310032
-0.00375877
-0.00470849
-0.00603913
-0.00781993
-0.0100876
-0.0128314
-0.0159788
-0.019381
-0.0228132
-0.025957
-0.0284733
-0.0298469
-0.000659394
-0.00111103
-0.00141321
-0.00166434
-0.00194379
-0.0023191
-0.00286816
-0.00367806
-0.00483413
-0.00641253
-0.00846939
-0.0110205
-0.0140178
-0.0173283
-0.0207273
-0.0238839
-0.0264198
-0.0277943
-0.000515149
-0.000812253
-0.000978192
-0.00114658
-0.00138922
-0.00174396
-0.00226653
-0.00303375
-0.0041317
-0.00565098
-0.00767443
-0.0102493
-0.0133544
-0.0168715
-0.0205736
-0.0241133
-0.0270726
-0.0288819
-0.000394605
-0.000550233
-0.000593175
-0.000673634
-0.000843354
-0.00113126
-0.00158865
-0.00227983
-0.0032851
-0.00471054
-0.00667266
-0.00925992
-0.0124885
-0.0162631
-0.0203603
-0.0244195
-0.0279958
-0.0304942
-0.000284779
-0.000323754
-0.000354227
-0.000549752
-0.000881999
-0.0013144
-0.00187903
-0.00264183
-0.00370121
-0.00519838
-0.00730245
-0.0101627
-0.0138652
-0.0183687
-0.0234797
-0.0288524
-0.0340501
-0.0385235
-0.000172763
1.84492e-05
0.000201475
0.000158399
-0.000113312
-0.000639578
-0.00148247
-0.00273241
-0.00454296
-0.00696358
-0.0101079
-0.013925
-0.0186052
-0.023796
-0.029067
-0.0340573
-0.0386068
-0.0428023
-0.000136741
-0.000190129
-0.000571347
-0.00147796
-0.00297034
-0.00504048
-0.00751151
-0.0102717
-0.0133887
-0.0120441
-0.010162
-0.00814766
-0.0202606
-0.0367255
-0.0578962
-0.0836629
-0.113668
-0.147124
0.000312018
0.000383625
0.000369913
0.000478237
0.00116107
5.63284e-05
-0.00104614
0.000580745
0.00881888
0.028607
0.0653996
0.124392
0.209703
0.323909
0.467932
0.641171
0.841952
1.06755
-0.00124087
-0.00417137
-0.00655346
-0.00423418
0.0113887
0.0481818
0.111891
0.207974
0.342381
0.520034
0.743831
1.01431
1.33025
1.68937
2.08894
2.52606
2.99799
3.50006
0.000192282
0.00349959
0.0140878
0.0336391
0.0681629
0.0772366
0.0350105
-0.0890755
-0.331487
-0.729896
-1.31666
-2.11323
-3.12563
-4.3422
-5.73554
-7.26685
-8.894
-10.5716
-4.62757
-3.79316
-2.27652
-1.00296
-1.39609
-4.536
-11.2127
-21.9352
-38.5985
-58.6434
-75.6687
-84.9122
-91.0242
-95.3402
-98.5439
-101.106
-103.382
-105.645
-108.144
-111.165
-115.061
-120.252
-127.207
-136.478
-148.779
-164.767
-186.062
-210.846
-200.529
-181.661
-155.032
-120.062
-70.6657
19.6829
189.127
398.768
564.072
540.344
398.016
225.254
106.2
33.0357
-20.7994
-31.0983
-41.3503
-61.7253
-79.4514
-113.46
-155.011
-112.988
-84.0687
-91.3516
-130.051
-61.3953
119.73
283.055
209.11
105.616
92.9309
137.857
80.9551
-87.7031
-342.757
-624.743
-808.021
-626.686
-552.919
-456.755
-351.509
-247.358
-149.705
-58.1922
29.6815
62.6587
90.2622
112.955
130.344
143.868
157.813
153.735
150.388
147.385
144.3
141.014
137.428
133.392
128.675
123.203
116.923
109.827
101.854
92.7906
82.1588
68.9766
51.3195
25.4597
-18.2185
-53.9645
-82.7361
-108.581
-132.364
-154.628
-175.233
-193.505
-208.474
-219.258
-225.134
-225.601
-219.896
-198.52
-159.133
-120.937
-77.7644
-24.6812
42.1088
124.874
222.935
331.014
438.313
529.289
587.36
600.603
566.736
494.845
402.355
308.338
226.944
164.498
120.687
91.6509
72.7356
60.0302
50.8535
43.7023
37.455
30.3929
23.1998
16.0222
8.98961
2.16761
-5.08218
-12.3132
-18.5397
-22.1585
-22.2341
-18.8781
-12.8647
-6.77746
-1.61785
2.25533
4.80936
6.15515
6.86114
8.2455
11.2584
13.1068
6.52927
-12.9582
-36.3138
-59.4688
-86.2404
-95.6484
-54.458
67.6803
92.216
-526.301
-1156.45
-679.422
-202.011
140.748
281.836
386.302
352.774
315.86
267.555
202.041
101.016
-200.557
-469.838
-628.437
-15.33
-7.49952
-10.5678
-12.5974
-12.1434
-7.16072
-37.4632
-48.5046
-66.2949
-76.5072
-80.7772
-80.2045
-75.2692
-66.4959
-54.6278
-40.4282
-24.5386
-7.49192
10.1933
27.9283
45.0305
60.7237
74.1787
84.6602
91.5015
94.3165
93.0511
85.0714
30.8625
-27.7727
-78.2551
-116.386
-140.546
-146.344
-126.997
-79.8427
-24.4415
-7.72487
-1.08424
73.9291
171.639
240.786
282.5
238.443
136.118
43.2362
-45.5545
-98.9867
-147.874
-157.46
-83.1351
41.0542
100.364
24.5335
26.3799
75.5528
61.2794
-83.875
-301.885
-484.144
-459.262
-285.337
-135.898
-90.0442
-26.4922
49.8285
105.294
147.673
175.133
187.841
187.02
174.701
153.65
126.273
97.2644
68.1155
41.3422
18.8372
-4.61935
-6.28435
-7.25126
-7.67876
-7.56554
-6.82303
-5.27262
-2.6868
-1.33884
0.392324
2.79419
5.95321
9.86477
14.3892
19.4319
24.645
29.5505
33.6823
36.6311
30.1282
28.6443
26.9351
24.8712
22.7545
21.0087
18.8037
15.108
10.774
6.07994
1.09843
-4.44315
-16.4617
-37.2437
-47.3601
-48.8275
-46.3677
-41.9223
-36.3499
-28.8644
-16.4683
1.79178
24.062
47.7804
69.5535
86.2405
95.8588
98.2273
94.87
88.0786
79.9024
71.731
64.3219
57.9594
52.566
47.7768
43.0488
38.5093
36.6283
35.0282
32.9842
30.9851
29.2225
27.7328
26.434
25.1528
23.6944
21.9509
20.0142
18.0967
18.0622
19.6664
21.7048
22.8148
22.9012
22.6833
22.8939
25.0155
31.5432
44.5232
62.5382
74.259
72.2224
45.0773
-14.4206
-111.968
-362.579
-687.796
-443.54
52.2096
273.133
337.787
261.669
129.639
-17.078
-15.0068
-1.45196
19.4373
33.0559
50.8665
69.9846
77.5761
83.649
5.38058
-23.8041
-19.4296
-18.0041
-32.6645
-38.6991
-54.0009
-60.2337
-55.3905
-45.9304
-35.6783
-24.4412
-10.9733
5.03616
23.0021
42.1272
61.8388
81.8505
101.974
121.82
140.837
158.311
173.22
184.575
191.682
194.219
192.362
186.894
177.933
165.031
138.095
96.9546
50.4117
6.40115
-27.2451
-45.1375
-50.1732
-57.548
-71.7289
-75.2319
-55.2986
16.142
147.086
242.038
238.177
174.342
85.1524
-40.2941
-126.657
-180.575
-168.384
-24.2832
133.978
145.902
22.0874
-132.951
-395.584
-627.43
-401.019
-42.6176
35.3361
95.1247
132.176
152.903
171.261
181.408
179.189
166.024
143.891
116.426
87.7162
61.2715
39.3535
22.8266
11.4126
3.99524
-0.648868
-3.31641
-4.92497
-6.31827
-7.57942
-8.76545
-9.89054
-10.8908
-11.5815
-11.6244
-10.5316
-10.2314
-8.93014
-6.29447
-2.18098
3.0379
9.74953
17.6725
26.1281
34.1868
40.8266
35.7832
35.3197
34.3476
32.9323
31.0187
29.8368
27.1007
23.9428
20.8237
17.9381
15.3617
13.1036
11.1416
9.42742
7.62353
4.00805
0.704636
-1.98299
-4.21938
-5.90255
-6.73936
-6.43409
-4.80359
-1.8608
2.14676
6.73712
11.2459
14.9914
17.5049
18.6753
18.7322
18.1093
17.2815
16.6361
16.3991
16.6003
17.0843
17.4546
17.3237
18.5382
19.9934
20.6038
20.6379
20.2879
19.702
18.9905
18.2392
17.5253
16.9182
16.4607
16.1435
15.9089
15.6772
15.5999
15.2805
13.9465
11.5761
9.1846
9.19257
14.0755
22.388
27.3854
13.9902
-30.9609
-119.684
-304.081
-593.861
-535.66
157.551
307.269
270.497
157.647
40.7817
-20.8656
-35.665
-37.4193
-24.7287
-19.1184
-9.18057
8.21443
30.6287
49.6288
71.8751
38.6164
-18.2268
-22.7738
-63.1777
-72.9281
-76.1517
-60.4614
-33.9157
-13.486
-2.92987
2.5189
9.06684
18.3911
28.9681
39.4306
49.5666
59.972
71.6235
85.5866
102.23
120.309
139.61
158.395
174.627
186.467
192.71
193.173
188.738
180.625
170.118
158.687
145.825
126.327
98.3721
65.857
34.9213
9.88856
-11.2517
-32.5925
-53.276
-68.5342
-62.1298
-9.84047
76.9784
143.958
154.129
111.082
40.3602
-86.3363
-191.784
-245.171
-117.307
141.328
174.554
-90.1726
-478.991
-695.284
-212.702
144.767
200.931
197.73
195.176
188.126
179.436
167.84
149.945
126.151
99.5286
73.7952
51.8317
34.8857
22.8015
14.6585
9.36375
6.01628
4.02297
2.63108
0.290313
-0.697503
-1.70053
-2.85951
-4.28103
-6.05029
-8.21232
-10.7449
-13.5327
-16.3311
-18.7207
-20.077
-19.6004
-16.6448
-12.0292
-5.2913
4.16363
15.5827
27.6604
38.1894
36.6721
37.5146
37.2259
37.0462
35.3997
32.4626
29.1795
25.8235
22.5572
19.4859
16.6747
14.165
11.9815
10.1276
8.59411
7.37763
6.41435
5.53148
4.77729
4.12746
3.57696
3.15679
2.91415
2.89024
3.09864
3.50678
4.02224
4.50424
4.80745
4.84228
4.61846
4.24765
3.90492
3.7663
3.93834
4.39832
4.97379
5.37744
5.26903
4.34636
3.58332
3.61778
3.70169
3.79897
3.89446
3.98541
4.0805
4.19224
4.32648
4.47345
4.60835
4.70372
4.73718
4.68575
4.51692
4.1984
3.4809
2.37719
1.22805
0.426194
-1.06478
-8.17683
-33.101
-97.0271
-229.26
-452.899
-610.994
-71.0504
327.345
279.915
160.989
51.8158
-9.4103
-34.5479
-51.5203
-59.2807
-52.1757
-50.6604
-45.1228
-32.9194
-16.5473
-0.119008
22.3477
53.3771
4.5799
-122.741
-90.6274
-81.0612
-43.8511
4.21697
22.7372
12.2502
1.62629
-3.34827
-3.7046
-2.0428
-0.065285
1.75234
3.66618
6.32739
10.6639
18.0164
33.5521
52.2343
75.1286
101.558
127.88
150.847
166.875
174.115
172.737
164.698
152.776
139.653
127.302
115.486
107.198
92.8737
72.7089
49.9458
27.5764
6.49093
-13.5511
-32.4576
-45.4818
-40.5153
-9.67109
35.1577
67.4268
64.049
17.1289
-87.448
-228.109
-346.419
-230.279
105.16
58.5429
-281.744
-476.105
-91.405
199.371
261.584
237.146
207.595
185.171
165.337
145.504
123.171
98.6044
74.5597
53.7298
37.4871
25.8409
17.9848
12.8599
9.49803
7.16962
5.42417
4.06961
3.26441
2.51856
2.52799
2.49821
2.27174
1.6694
0.519675
-1.3177
-3.92713
-7.31194
-11.3639
-15.8225
-20.2247
-23.8886
-25.9279
-25.3025
-20.9417
-12.2874
0.251911
15.3545
29.4906
33.7494
36.514
37.0008
35.9251
33.9215
31.4405
28.7426
25.9823
23.2444
20.5729
17.9965
15.5434
13.2416
11.1204
9.21229
7.55131
6.17343
5.10273
4.35767
3.87355
3.62607
3.55058
3.58737
3.68563
3.80406
3.90754
3.96256
3.93493
3.79406
3.52284
3.12807
2.64452
2.12904
1.64428
1.23514
0.90734
0.621577
0.307936
-0.112522
-0.712702
-1.55293
-2.39517
-2.80024
-2.99177
-3.01303
-2.88973
-2.64357
-2.29683
-1.87671
-1.4171
-0.954968
-0.525903
-0.165549
0.0851665
0.179876
0.0893431
-0.233515
-0.81448
-1.83776
-3.98871
-9.37132
-23.7678
-61.4907
-150.364
-324.812
-552.041
-430.733
244.25
329.004
206.93
92.1798
22.5014
-14.6959
-33.1402
-57.1715
-67.7091
-65.3307
-65.4825
-61.4659
-52.4547
-43.1622
-33.7072
-18.5578
46.2916
-97.3074
-110.378
-68.696
24.3511
49.8764
21.3695
-11.8047
-25.6544
-27.7242
-27.7709
-28.6648
-30.3739
-32.3562
-34.213
-35.631
-36.2286
-35.428
-32.3652
-25.7765
-13.947
5.63346
36.0175
70.5795
107.792
138.727
159.712
166.971
162.221
148.919
131.211
113.135
97.32
81.8938
77.3757
70.9214
58.8424
42.6117
24.78
7.6449
-7.7186
-20.6196
-28.3899
-26.8635
-15.4583
-1.99957
-4.24367
-51.8438
-148.373
-315.169
-502.297
-386.985
-24.6272
114.125
-99.1834
16.9402
208.198
271.948
245.063
205.405
174.528
150.409
127.884
104.884
81.8361
60.7482
43.4055
30.3993
21.3068
15.2009
11.102
8.23929
6.12964
4.51943
3.26307
2.28183
1.58607
2.45247
3.54289
4.68466
5.64454
6.18375
6.07593
5.12781
3.19611
0.201162
-3.85672
-8.86752
-14.569
-20.4615
-25.7382
-29.1702
-29.0306
-24.132
-13.6048
1.84425
17.1335
25.5609
30.6948
32.8793
32.8894
31.5306
29.4654
27.1406
24.8052
22.5642
20.4327
18.383
16.3786
14.396
12.4344
10.5161
8.68268
6.9919
5.50548
4.28273
3.37107
2.77328
2.47249
2.4083
2.51502
2.72619
2.97942
3.21966
3.40091
3.48734
3.45435
3.28993
2.99541
2.58469
2.08087
1.51052
0.89751
0.259093
-0.39373
-1.05267
-1.7082
-2.34711
-2.95069
-3.4675
-3.76344
-3.88541
-3.85043
-3.67424
-3.37717
-2.98732
-2.54103
-2.08099
-1.65494
-1.31696
-1.12749
-1.14471
-1.40753
-1.91927
-2.7134
-4.06024
-7.02976
-14.6571
-34.7065
-85.6616
-202.063
-414.024
-575.842
-151.794
361.486
282.512
149.726
67.7727
22.1016
-9.28534
-32.6503
-52.8506
-64.1502
-70.331
-70.9091
-65.1954
-54.5287
-50.7187
-46.6684
-39.8569
76.5882
-102.783
58.3922
64.6106
-7.5767
-35.7316
-34.5411
-32.6366
-33.6834
-39.3748
-43.948
-46.8472
-48.7839
-50.2752
-51.6095
-52.9161
-54.1664
-55.0895
-55.0412
-52.9192
-47.1773
-35.9202
-17.0101
12.3281
58.239
102.07
143.964
166.505
171.891
162.12
142.203
117.824
94.5346
75.2306
57.025
53.1578
48.8623
40.3244
27.7799
13.5495
0.35512
-10.1087
-18.0011
-24.7283
-31.6616
-41.2163
-65.0947
-141.31
-288.392
-443.59
-729.456
-575.905
374.638
327.747
184.895
238.928
267.431
242.73
200.108
165.352
138.912
115.709
93.1276
71.5729
52.5245
37.1694
25.7637
17.7569
12.2462
8.36289
5.47357
3.21183
1.42056
0.0917628
-0.658771
-0.686748
-0.202541
2.10251
4.60239
7.06673
9.22859
10.8159
11.5833
11.3403
9.96602
7.40979
3.67214
-1.19099
-7.10485
-13.8515
-20.9766
-27.4735
-31.1869
-30.8828
-23.5813
-9.32315
6.24585
16.8923
24.368
28.5352
29.9514
29.4424
27.8127
25.6863
23.4683
21.3749
19.4848
17.7886
16.2256
14.7159
13.1879
11.6005
9.95221
8.27992
6.64899
5.14066
3.85119
2.81509
2.09101
1.67197
1.51987
1.57896
1.78618
2.07844
2.39727
2.69138
2.91793
3.04353
3.04518
2.91127
2.64176
2.24734
1.74735
1.16695
0.534234
-0.122155
-0.774541
-1.39704
-1.96579
-2.45805
-2.846
-3.0796
-3.15896
-3.09645
-2.91125
-2.63248
-2.3002
-1.96446
-1.68422
-1.52599
-1.55803
-1.83622
-2.38509
-3.18848
-4.28844
-6.08439
-9.96962
-19.7599
-45.3226
-109.873
-253.566
-486.447
-528.365
92.6571
382.784
232.023
118.64
64.0312
27.1175
-2.77101
-29.848
-44.8356
-54.2427
-60.4788
-63.3043
-59.6539
-51.6156
-47.9562
-45.7155
-43.9973
72.9813
-13.0222
-53.648
-29.3292
-26.1843
-42.2159
-52.3025
-55.5907
-55.5328
-48.2169
-49.1728
-50.2544
-51.0566
-51.9508
-53.0017
-54.1857
-55.4755
-56.8799
-58.2783
-59.1024
-58.1137
-53.5185
-43.1261
-24.194
6.26394
50.1749
112.834
153.572
179.529
180.398
164.126
136.666
105.569
78.3915
57.5434
39.017
35.1251
30.7415
22.8565
11.9168
0.271725
-9.44102
-16.503
-24.0463
-37.7703
-63.1233
-114.694
-239.443
-451.378
-725.079
-986.318
-98.5058
788.647
416.085
317.467
281.94
241.618
197.263
159.748
131.472
107.732
85.5044
64.7127
46.4658
31.6264
20.3287
12.0842
6.14952
1.83742
-1.34304
-3.67039
-5.25209
-6.10254
-6.26409
-5.89391
-4.78347
-1.37732
2.35647
6.24657
10.0543
13.464
16.1247
17.7137
17.9954
16.8602
14.3553
10.5937
5.80156
0.0192032
-6.73622
-14.4217
-22.6233
-29.0967
-33.1099
-28.7897
-16.5268
-3.2698
8.49438
17.7007
23.6788
26.6476
27.2812
26.3682
24.6082
22.5228
20.4448
18.5518
16.91
15.509
14.2838
13.1379
11.9714
10.7102
9.32543
7.83865
6.31456
4.84601
3.52494
2.44829
1.66064
1.1685
0.947363
0.952286
1.12808
1.41692
1.76292
2.11452
2.42596
2.65879
2.7837
2.78213
2.64718
2.38334
2.0051
1.53454
0.998796
0.427654
-0.148369
-0.699797
-1.19915
-1.62138
-1.94364
-2.13138
-2.18396
-2.12218
-1.97697
-1.79141
-1.62049
-1.53022
-1.59393
-1.88018
-2.43133
-3.24067
-4.26679
-5.58105
-7.80114
-12.7155
-24.9082
-56.2827
-134.521
-302.678
-534.315
-433.634
271.954
365.373
191.14
107.011
65.1318
30.4043
1.11602
-25.1825
-37.4787
-45.1734
-50.9951
-54.795
-48.5686
-45.5434
-43.932
-44.2432
-46.1133
27.0273
-55.6621
-36.2825
-40.9545
-41.1305
-45.8059
-49.9189
-51.8091
-53.6398
-56.1839
-48.1899
-48.7679
-49.4136
-50.8297
-52.9396
-55.4662
-57.9001
-59.7342
-60.819
-61.4306
-61.6008
-60.4602
-56.2309
-45.7684
-24.4289
11.0004
59.448
116.167
173.875
191.607
185.746
162.672
127.181
90.7476
62.3011
42.3567
27.4064
22.5809
16.6142
7.98939
-2.2037
-11.6903
-19.0983
-27.0169
-43.4867
-79.7235
-161.678
-337.883
-569.255
-883.269
-941.15
483.332
829.746
455.787
330.582
254.747
199.672
158.582
127.92
103.165
80.7464
59.928
41.4264
25.9595
13.7246
4.458
-2.32255
-7.12605
-10.4005
-12.4979
-13.6547
-13.9825
-13.47
-12.0303
-9.72529
-7.43414
-2.65446
1.66619
6.37729
11.2398
15.8804
19.8305
22.609
23.8152
23.1756
20.7689
16.7406
11.6882
5.87572
-0.708683
-8.18454
-16.8733
-25.1469
-31.8077
-29.3128
-21.4852
-10.4879
1.30937
11.4288
18.6632
22.9027
24.6514
24.6148
23.4639
21.7372
19.8179
17.9498
16.2695
14.8366
13.6501
12.6557
11.758
10.8466
9.82845
8.65493
7.33444
5.928
4.52624
3.24612
2.1774
1.37412
0.852053
0.595055
0.565581
0.714808
0.99004
1.33903
1.71227
2.06468
2.35744
2.55993
2.65131
2.62123
2.46972
2.20628
1.84836
1.41974
0.94852
0.464805
-0.00155084
-0.423061
-0.776401
-1.04504
-1.20029
-1.26027
-1.25584
-1.23072
-1.24215
-1.36009
-1.6601
-2.2036
-3.00659
-4.01557
-5.16116
-6.59955
-9.21053
-15.2353
-30.0158
-67.3679
-158.734
-346.376
-555.35
-318.543
370.617
353.428
163.542
104.925
65.8736
31.311
2.43235
-21.8782
-32.0129
-38.4084
-43.3394
-44.2458
-42.0914
-39.9867
-39.3808
-41.0646
-44.9161
12.1606
-51.7141
-27.8159
-35.5271
-36.4887
-37.8428
-39.6471
-40.5871
-40.9284
-41.6053
-44.7063
-41.4184
-41.5733
-42.9544
-45.9417
-50.7788
-57.2119
-64.055
-69.2944
-71.4019
-70.5496
-68.3482
-66.2552
-62.3333
-49.2903
-20.3435
24.4905
78.9588
133.749
184.516
198.433
186.518
155.269
112.766
74.4719
48.0699
30.6496
19.7633
12.8656
4.93973
-4.4937
-13.99
-22.3454
-31.7008
-51.0944
-98.6151
-214.568
-426.954
-654.442
-1013.5
-614.087
955.111
696.949
423.643
290.675
211.969
162.498
128.325
101.79
78.5607
57.1051
37.685
20.9637
7.35419
-3.05473
-10.4429
-15.22
-17.9576
-19.2554
-19.5975
-19.2832
-18.4409
-17.0685
-15.0477
-12.1354
-8.22937
-5.0739
-1.12096
3.67038
9.08599
14.7045
19.9428
24.1611
26.8081
27.2588
25.5525
21.6289
16.25
10.2719
3.71931
-3.3021
-11.5489
-21.2634
-26.9079
-28.6949
-24.5479
-15.4641
-4.31642
6.06483
14.0031
19.0775
21.6529
22.3789
21.8882
20.6842
19.129
17.4677
15.8605
14.4091
13.171
12.1578
11.3287
10.596
9.84912
8.98911
7.96016
6.76534
5.46211
4.15095
2.94119
1.92289
1.15171
0.646104
0.393563
0.36087
0.503803
0.774043
1.12317
1.50491
1.87693
2.20257
2.45251
2.60585
2.65068
2.58415
2.41221
2.14895
1.8153
1.43695
1.04173
0.656649
0.305011
-0.00283551
-0.237111
-0.406946
-0.539861
-0.67772
-0.877295
-1.20914
-1.74583
-2.5325
-3.5452
-4.67425
-5.84279
-7.35591
-10.3783
-17.6193
-35.0443
-78.1925
-181.345
-382.107
-552.168
-205.009
425.228
332.321
149.582
105.613
65.4797
30.5597
1.74058
-20.1491
-28.3854
-33.2238
-36.6961
-37.0614
-36.9098
-35.5898
-35.6182
-37.9979
-42.7963
32.9015
-42.6583
-23.8627
-28.3442
-28.2743
-28.4538
-28.9689
-29.3065
-29.6848
-30.6384
-31.7494
-29.5867
-27.937
-27.3599
-28.4024
-31.9388
-39.3785
-51.5109
-66.5051
-79.7672
-85.9254
-83.4122
-78.8486
-78.8027
-75.4687
-54.2087
-10.8348
46.3744
105.786
156.402
189.214
201.995
181.232
141.684
95.4702
59.7198
37.3864
22.2586
12.5783
3.97056
-5.69129
-15.8454
-25.7359
-37.5351
-61.8304
-125.226
-275.171
-494.809
-732.836
-1043.13
-24.9456
1031.95
585.115
357.954
239.333
173.316
133.007
103.772
79.1289
56.6063
35.9237
17.676
2.56866
-8.88082
-16.5351
-20.7756
-22.4225
-22.4453
-21.6612
-20.5864
-19.4483
-18.2821
-17.0254
-15.5833
-13.7781
-10.9199
-9.2703
-6.34575
-2.0176
3.54717
9.89822
16.305
21.936
26.2115
28.1469
27.5921
24.6037
19.0855
13.124
6.59862
-0.111123
-7.57492
-15.848
-23.3791
-27.4006
-25.7748
-18.6904
-8.56238
1.64628
9.89255
15.456
18.5595
19.8166
19.8553
19.1611
18.0618
16.7644
15.4024
14.0721
12.8518
11.8004
10.9398
10.2395
9.61888
8.97178
8.20325
7.26157
6.15543
4.94456
3.72876
2.61224
1.67921
0.980465
0.53179
0.320532
0.315376
0.475221
0.755337
1.11097
1.4995
1.88212
2.22532
2.50213
2.69281
2.78535
2.7759
2.66886
2.47639
2.21702
1.91324
1.58849
1.26356
0.953514
0.65971
0.397756
0.139581
-0.15394
-0.537739
-1.08044
-1.8462
-2.85395
-4.02697
-5.19788
-6.31847
-7.90382
-11.4082
-19.931
-39.9406
-88.3634
-201.298
-408.306
-530.259
-106.584
443.145
307.246
153.557
108.557
64.2806
28.7915
-0.614833
-19.6835
-26.5465
-28.725
-31.1013
-32.9497
-33.2156
-32.5381
-33.0147
-35.6538
-40.6337
61.5482
-38.3693
-26.1723
-23.749
-23.1553
-23.5357
-24.0604
-24.0411
-23.1485
-21.5253
-20.1126
-20.473
-17.0209
-14.6357
-12.5226
-11.0212
-12.6153
-21.4537
-39.4769
-64.7962
-89.1283
-98.3898
-92.8439
-92.8714
-101.268
-94.7694
-56.7834
6.35206
75.5257
136.384
178.589
194.329
197.955
169.637
123.58
78.5386
47.9229
29.2284
15.1041
4.7144
-6.1523
-17.8092
-29.8489
-45.1064
-77.6543
-162.026
-337.393
-539.222
-823.644
-854.68
579.981
842.72
472.519
288.924
194.212
142.786
109.437
82.7952
58.8818
36.7512
16.8309
0.0879353
-12.4894
-20.3935
-23.9584
-24.2761
-22.7261
-20.4949
-18.3532
-16.6857
-15.6188
-15.1136
-14.9741
-14.8213
-14.5566
-14.6101
-14.8041
-13.2895
-9.86396
-4.55701
2.25857
9.67564
16.6171
22.3483
26.1547
26.5624
25.2846
19.8121
14.2416
8.29451
2.21359
-4.55231
-12.4124
-20.3145
-25.6772
-25.9545
-20.6547
-11.6977
-1.97682
6.26185
12.0581
15.4817
17.0885
17.5001
17.2059
16.5232
15.6306
14.6223
13.557
12.492
11.4935
10.6218
9.9039
9.31294
8.77222
8.18265
7.46038
6.57093
5.52755
4.40162
3.29021
2.28899
1.4714
0.87861
0.520038
0.380383
0.428639
0.625828
0.93024
1.30053
1.69766
2.0864
2.43658
2.72392
2.93072
3.04627
3.06735
2.99817
2.84963
2.63755
2.37988
2.09316
1.7888
1.46375
1.12721
0.758265
0.320726
-0.238231
-0.983376
-1.96509
-3.16662
-4.44959
-5.59942
-6.6436
-8.35168
-12.4831
-22.3015
-44.6714
-97.5526
-217.806
-424.436
-496.167
-29.6896
437.608
289.807
160.282
110.007
65.9973
27.2758
-5.43339
-19.3606
-23.0543
-25.5638
-28.2363
-30.1483
-30.7884
-30.7454
-31.6317
-34.2738
-38.8581
88.132
-34.2425
-26.8708
-21.8187
-22.1472
-24.3129
-26.8411
-28.1443
-27.0357
-23.693
-19.8703
-17.3603
-15.8837
-14.1329
-9.72039
-1.58834
6.83149
7.50264
-3.15199
-27.5986
-66.1189
-97.1207
-99.2638
-96.5159
-115.424
-132.981
-114.477
-52.3097
31.561
108.989
166.526
196.423
196.42
189.605
153.368
104.143
63.3693
37.6048
19.6524
5.82483
-6.95192
-20.5575
-35.0738
-55.2981
-99.7963
-207.777
-390.479
-578.174
-883.085
-424.703
855.28
665.137
372.535
230.644
159.396
119.148
89.8656
64.3206
40.6388
18.9174
0.251264
-13.9029
-22.5403
-25.7915
-24.9251
-21.7155
-17.7529
-14.1114
-11.3705
-9.77267
-9.35956
-10.0339
-11.5691
-13.365
-13.8432
-17.8535
-19.6028
-19.6365
-17.5494
-13.0911
-6.36455
1.56713
9.65516
16.1748
22.2006
23.0801
22.4422
19.2278
14.2983
8.78786
3.25561
-2.79961
-10.0825
-17.9524
-24.0074
-25.5507
-21.6736
-13.8867
-4.89282
3.03743
8.81875
12.3929
14.2292
14.9094
14.914
14.562
14.0275
13.3845
12.6569
11.8629
11.0418
10.2544
9.55958
8.9811
8.48938
8.00962
7.45285
6.7583
5.89955
4.91433
3.88007
2.88938
2.02617
1.34961
0.888563
0.644246
0.597563
0.717037
0.965232
1.30298
1.69196
2.09638
2.48438
2.8291
3.10947
3.31063
3.42433
3.44892
3.38891
3.25373
3.05544
2.80546
2.51086
2.16481
1.76684
1.30003
0.730599
0.00749114
-0.928859
-2.11066
-3.47879
-4.83157
-5.92882
-6.92029
-8.84408
-13.6829
-24.7803
-49.1918
-105.525
-230.396
-430.805
-456.158
25.1147
418.979
279.683
166.617
111.611
65.7272
23.0567
-6.32055
-18.0291
-21.4792
-23.6789
-26.2592
-28.3042
-29.3882
-30.0669
-31.4385
-33.9866
-37.8049
122.506
-23.4868
-23.7128
-19.6306
-21.6163
-26.5089
-32.2916
-36.0079
-35.8293
-32.7846
-28.7834
-22.7613
-26.8781
-32.4531
-31.2945
-17.5505
8.79408
26.2666
24.7923
11.7366
-26.484
-75.9115
-93.2151
-85.8239
-105.42
-148.066
-166.594
-127.917
-39.5147
62.2663
141.596
190.906
207.076
195.302
178.464
133.917
84.7554
49.0097
25.1469
6.14321
-8.79425
-24.2411
-41.6137
-68.4665
-128.717
-259.305
-423.876
-638.376
-805.953
92.8066
853.992
516.123
292.15
186.442
133.561
100.392
73.119
47.9179
24.3573
3.42801
-13.0461
-23.4055
-27.2771
-25.8681
-21.2673
-15.5115
-10.0649
-5.7752
-3.05141
-2.0105
-2.55418
-4.43029
-7.33756
-11.1055
-15.2237
-19.1142
-21.7912
-23.1098
-22.5942
-19.5003
-13.4387
-5.88937
2.97566
9.60009
15.1628
18.5632
19.2305
17.0922
12.9514
8.09363
3.2577
-2.05054
-8.71914
-16.3253
-22.592
-24.8168
-21.9357
-15.2078
-7.10259
0.239682
5.74579
9.28902
11.2447
12.1186
12.3509
12.2518
12.0008
11.6742
11.282
10.8109
10.262
9.66883
9.08876
8.57265
8.13371
7.73526
7.28454
6.76011
6.08728
5.26916
4.35894
3.4378
2.5908
1.88747
1.37136
1.05854
0.942129
0.999294
1.19791
1.50168
1.87346
2.27746
2.68083
3.05503
3.37687
3.62912
3.80059
3.88601
3.88546
3.80332
3.64644
3.42129
3.1304
2.76411
2.3109
1.7549
1.06344
0.186497
-0.929489
-2.29586
-3.80856
-5.20899
-6.25984
-7.26837
-9.52055
-15.1233
-27.408
-53.4604
-112.149
-238.883
-428.367
-415.145
60.2904
393.895
274.594
172.084
112.578
63.9125
20.0677
-5.99689
-16.878
-20.1741
-22.4374
-24.9681
-27.1846
-28.8279
-30.3567
-32.3672
-34.8881
-37.829
45.8863
91.1728
-1.49781
-10.6395
-12.7801
-18.6797
-30.4316
-34.3092
-32.9205
-28.2297
-24.4575
-27.4584
-38.2759
-53.3221
-61.9966
-57.3633
-22.4948
25.9264
40.6457
38.9321
12.3899
-43.5429
-77.67
-70.1473
-77.3936
-126.027
-181.877
-193.287
-134.186
-20.9724
93.2472
166.098
204.58
210.509
190.981
161.553
111.413
65.4425
31.4711
5.96715
-11.0466
-28.3031
-49.0763
-85.5259
-167.388
-302.951
-450.443
-696.939
-543.109
481.045
727.111
399.532
231.609
154.558
114.231
85.0503
58.6373
33.4712
10.1708
-9.35321
-22.7381
-28.7143
-27.997
-22.7706
-15.5222
-8.21795
-2.10654
2.15008
4.31001
4.46197
2.93783
0.12757
-3.62714
-8.1884
-14.5732
-18.2747
-21.1305
-23.2107
-24.0357
-22.396
-17.3884
-10.714
-3.41313
3.69274
9.69634
13.7918
15.2859
13.9801
10.6063
6.5172
2.49612
-2.04632
-8.12279
-15.3445
-21.4552
-23.8497
-21.5427
-15.7093
-8.58152
-2.05221
2.93973
6.26677
8.22131
9.21078
9.60566
9.68721
9.63834
9.5502
9.44004
9.28188
9.04518
8.72633
8.35734
7.98804
7.65456
7.35439
7.04817
6.67257
6.16274
5.50712
4.73692
3.91828
3.1312
2.44861
1.92274
1.58038
1.42487
1.44161
1.60425
1.88
2.2335
2.62944
3.03452
3.41911
3.75857
4.03415
4.2331
4.3482
4.37692
4.32028
4.18117
3.96198
3.66135
3.26786
2.75962
2.11908
1.31284
0.290914
-0.994218
-2.53259
-4.1774
-5.62569
-6.671
-7.79499
-10.4888
-16.8821
-30.2075
-57.4522
-117.379
-243.303
-418.481
-376.151
79.5098
366.352
271.568
176.351
113.026
61.6236
18.8984
-5.25862
-15.6944
-19.0821
-21.4721
-24.0794
-26.583
-28.9332
-31.4512
-34.302
-37.017
-39.2378
-68.7364
157.908
61.1672
17.5027
2.14299
-8.65366
-17.5928
-21.7572
-20.7424
-12.0379
1.90412
-10.0403
-39.2296
-61.6751
-77.5817
-82.8951
-60.8328
-1.84539
39.869
50.5002
37.8343
-10.525
-53.8575
-56.3695
-53.7374
-85.5956
-147.097
-204.842
-212.742
-137.659
-0.211376
115.555
176.172
205.621
208.164
180.35
136.267
84.3943
39.6434
7.91623
-11.4652
-31.8716
-59.5836
-113.147
-210.125
-326.38
-500.887
-661.21
-164.999
652.253
591.531
311.284
185.742
130.581
98.481
71.4176
45.5304
20.7347
-1.55839
-18.8853
-28.9655
-31.2431
-27.239
-18.6811