/*--------------------------------*- C++ -*----------------------------------*\
| =========                 |                                                 |
| \\      /  F ield         | OpenFOAM: The Open Source CFD Toolbox           |
|  \\    /   O peration     | Version:  2112                                  |
|   \\  /    A nd           | Website:  www.openfoam.com                      |
|    \\/     M anipulation  |                                                 |
\*---------------------------------------------------------------------------*/
FoamFile
{
    version     2.0;
    format      ascii;
    arch        "LSB;label=32;scalar=64";
    class       volScalarField;
    location    "0.52";
    object      omega;
}
// * * * * * * * * * * * * * * * * * * * * * * * * * * * * * * * * * * * * * //

dimensions      [0 0 -1 0 0 0 0];

internalField   nonuniform List<scalar> 
12225
(
5754.06
8266.19
9161.96
9375.59
9324.97
9181.29
9014.56
8856.09
8722.18
8622.71
8564.06
8542.49
8540.46
8572.48
8645.83
8760.58
8920.86
9036.33
338.265
758.105
1148.46
1481.79
1750.4
1959.51
2118.87
2237.21
2320.74
2373.27
2397.04
2388.29
2369.92
2337.24
2285.17
2207.32
2091.65
1921.61
48.6001
76.8893
120.675
176.826
239.081
300.663
356.314
402.289
436.026
455.757
458.644
456.257
450.705
441.714
428.868
411.56
389.075
360.558
39.7065
40.7572
43.2068
47.4133
53.3268
60.3887
67.7674
74.536
79.7685
82.4234
84.5792
86.2926
87.5264
88.2716
88.5589
88.4819
88.219
87.9598
39.4966
39.4261
39.4371
39.5663
39.8372
40.229
40.6766
41.0844
41.363
41.6794
42.0372
42.4469
42.9294
43.5247
44.3001
45.3607
46.8514
48.8706
39.4897
39.38
39.285
39.2069
39.1502
39.1175
39.1076
39.1196
39.1654
39.2527
39.3935
39.6053
39.9145
40.3612
41.003
41.9173
43.1954
44.8686
39.4875
39.3739
39.2738
39.1879
39.1191
39.0702
39.0437
39.0431
39.0737
39.1433
39.2631
39.4491
39.724
40.1197
40.6789
41.4525
42.4932
43.7998
39.4861
39.3705
39.2682
39.1797
39.1069
39.0526
39.0194
39.0109
39.0322
39.0905
39.1957
39.3615
39.6064
39.9552
40.4384
41.0886
41.9349
42.9648
39.4852
39.368
39.2637
39.1727
39.0969
39.0386
39.0008
38.9865
39.0004
39.0488
39.1404
39.2863
39.5016
39.8046
40.2166
40.7576
41.4431
42.2583
39.4848
39.3665
39.2605
39.1674
39.0888
39.0267
38.9839
38.9632
38.9686
39.0057
39.0818
39.2062
39.3903
39.6477
39.9926
40.4371
40.9889
41.6345
39.4859
39.3678
39.2613
39.1671
39.0864
39.0212
38.9739
38.947
38.9441
38.9698
39.0301
39.1323
39.2848
39.4973
39.779
40.1368
40.5744
41.0808
39.4891
39.3734
39.2683
39.1747
39.0935
39.0265
38.9756
38.9432
38.9322
38.9464
38.9904
39.0697
39.1907
39.3596
39.5826
39.8633
40.2036
40.5947
39.4933
39.3811
39.2784
39.1862
39.1053
39.0371
38.9833
38.9457
38.927
38.93
38.9584
39.0166
39.109
39.2402
39.4143
39.6335
39.899
40.2045
39.4976
39.389
39.2889
39.1982
39.1176
39.0482
38.9913
38.9485
38.9218
38.9136
38.9264
38.9636
39.0283
39.1237
39.2523
39.4157
39.6147
39.8449
39.5012
39.3955
39.2974
39.2076
39.1268
39.0558
38.9956
38.9474
38.9128
38.8936
38.8916
38.9091
38.9483
39.0115
39.1001
39.2153
39.3576
39.5243
39.5037
39.4001
39.3033
39.214
39.1325
39.0594
38.9957
38.9421
38.8999
38.8702
38.8545
38.8543
38.871
38.9061
38.9606
39.0353
39.1307
39.2448
39.5055
39.4033
39.3073
39.2179
39.1354
39.0602
38.9929
38.9341
38.8847
38.8455
38.8174
38.8016
38.7989
38.8103
38.8364
38.8777
38.9348
39.0062
39.5067
39.4054
39.3098
39.2201
39.1365
39.0591
38.9885
38.925
38.8692
38.8216
38.7829
38.7537
38.7348
38.7266
38.7297
38.7442
38.7707
38.8082
39.5067
39.4053
39.3092
39.2184
39.1331
39.0533
38.9793
38.9114
38.8499
38.7953
38.748
38.7083
38.6767
38.6537
38.6394
38.6342
38.6382
38.6508
39.5055
39.4028
39.3051
39.2124
39.1247
39.0422
38.965
38.8932
38.8272
38.7671
38.7134
38.6662
38.626
38.5929
38.5672
38.5491
38.5387
38.5357
39.503
39.3976
39.2971
39.2015
39.1108
39.0251
38.9444
38.869
38.799
38.7347
38.6762
38.6238
38.5777
38.5381
38.5053
38.4794
38.4606
38.4485
39.4979
39.3874
39.2819
39.1812
39.0854
38.9948
38.9092
38.8289
38.7539
38.6845
38.6209
38.5632
38.5117
38.4666
38.4282
38.3965
38.3719
38.3541
39.4907
39.3731
39.2605
39.153
39.0509
38.9543
38.8632
38.7777
38.698
38.6242
38.5565
38.4952
38.4405
38.3929
38.3526
38.3201
38.2958
38.2797
39.4875
39.3665
39.2503
39.1394
39.034
38.9343
38.8406
38.7531
38.6725
38.5997
38.5355
38.4812
38.4386
38.409
38.3942
38.3955
38.4141
38.4505
39.4876
39.366
39.2493
39.1387
39.0355
38.9417
38.8603
38.7963
38.7562
38.7478
38.7803
38.8634
39.0062
39.2164
39.4994
39.8578
40.2912
40.7952
39.4882
39.3685
39.2615
39.1807
39.1497
39.2017
39.3796
39.7341
40.3204
41.1933
42.4007
43.9791
45.9478
48.3067
51.0357
54.0962
57.4357
60.9872
39.5057
39.5282
39.8577
40.7429
42.4834
45.3685
49.6561
55.5582
63.2158
72.6781
83.8929
96.7058
110.871
126.075
141.962
158.174
174.37
190.256
41.1042
47.9858
61.5835
83.1255
112.85
149.984
193.39
241.776
293.75
347.911
402.918
457.556
510.783
561.748
609.801
654.513
695.613
733.112
151.294
351.642
577.208
804.053
1017.01
1209.53
1380.98
1533.06
1668
1787.99
1894.94
1990.45
2075.83
2152.02
2219.81
2279.92
2333.03
2379.7
3775.34
5774.73
6689.3
7040.45
7118.14
7063.85
6943.36
6787.31
6610.65
6421.3
6224.07
6022.45
5819.45
5617.81
5420.02
5228.38
5044.53
4870.83
666.383
676.101
691.016
693.05
695.153
703.371
720.904
748.201
777.111
804.352
834.311
865.086
892.722
924.313
961.379
1004.73
1054.81
1111.79
1175.68
1246.27
1323.13
1405.65
1493.22
1585.58
1683.03
1786.9
1900.68
2027.44
2163.03
2284.35
2387.96
2468.95
2519.69
2527.88
2474.53
2323.53
2016.39
1559.79
1115.38
806.622
628.095
558.225
557.65
581.135
606.33
637.469
676.986
723.747
785.225
862.78
930.781
1003.49
1098.07
1196.79
1195.84
1073.36
915.569
828.557
799.314
773.116
756.331
810.159
983.257
1286.46
1671.87
1998.95
2238.92
2436.94
2593.81
2712.14
2795.23
2846.48
2868.88
2865.01
2837.06
2786.56
2714.3
2620.57
2505.61
2378.08
2243.57
2101.57
1952.2
1796.21
1635.08
1471.2
1307.75
1148.1
995.351
852.346
721.811
606.323
508.248
429.705
372.59
338.734
330.625
349.222
384.792
435.093
497.391
568.682
645.927
726.137
806.467
884.393
957.808
1025.06
1085.09
1136.64
1174.01
1198.48
1212.83
1219.04
1218.72
1213.15
1203.41
1190.36
1174.77
1157.25
1138.39
1118.73
1098.82
1079.35
1061.06
1044.6
1030.29
1018.09
1007.75
999.038
991.871
986.331
982.57
980.696
980.655
982.773
987.34
994.269
1003.33
1014.22
1026.69
1040.55
1055.66
1071.82
1088.6
1105.24
1120
1132.08
1142.56
1152.21
1161.05
1168.32
1172.57
1171.71
1163.03
1144.21
1116.02
1083.84
1053.47
1026.96
1019.67
1038.7
1071.93
1074.74
1018.91
1103.39
1584.41
2002.08
2201.19
2216.47
2077.21
1815.59
1493.31
1175.42
887.516
658.997
518.903
501.411
620.452
808.862
758.69
583.004
583.804
565.981
552.5
564.549
644.618
690.737
702.254
699.721
690.026
677.087
663.573
651.212
640.867
632.718
626.496
621.693
617.708
613.954
609.914
605.189
599.508
592.742
584.891
576.133
566.746
557.592
559.538
602.656
684.921
799.103
935.694
1082.1
1223.01
1339.2
1406.64
1419.84
1405.84
1363.89
1261.64
1087.83
873.426
691.229
583.758
540.582
541.763
575.288
620.473
667.31
699.947
702.03
679.293
672.682
709.225
710.038
676.912
668.347
745.089
922.407
1144.6
1328.45
1424.57
1474.2
1487.08
1454.28
1385.24
1289.86
1175.73
1050.56
921.585
795.6
678.352
574.664
488.149
421.081
374.596
349.011
343.351
345.263
347.562
350.097
352.739
355.374
357.879
360.113
361.863
362.665
362.271
360.447
356.908
351.408
343.786
333.988
322.073
308.157
292.314
276.846
263.79
251.36
239.679
228.779
219.071
210.896
204.12
198.72
194.755
192.332
191.641
193.735
203.751
220.462
240.389
261.211
281.876
301.987
321.491
340.39
358.506
375.529
391.079
404.719
415.973
424.389
429.662
431.779
431.153
428.486
424.464
419.567
414.027
407.923
401.338
394.458
387.542
380.289
372.393
364.385
356.709
349.658
343.419
338.141
334.014
331.303
330.328
331.36
335.181
341.851
350.036
359.237
370.062
383.179
399.544
419.674
442.931
466.08
482.283
483.23
466.416
442.754
418.466
415.613
458.496
584.342
849.966
1141.35
1188.53
1045.99
817.193
585.688
426.258
377.213
387.689
398.903
408.274
413.53
413.394
407.409
396.469
387.656
806.35
578.795
545.723
533.312
552.443
633.173
676.76
683.635
672.743
655.827
638.18
622.619
610.863
603.523
600.154
599.65
600.691
602.057
602.776
602.178
599.86
595.645
589.528
581.594
571.983
560.886
548.6
535.483
522.05
509.428
503.789
514.785
548.637
608.287
690.474
785.577
879.267
960.753
1030.54
1089.2
1128.02
1130.3
1069.46
941.996
794.637
674.918
599.974
578.566
605.046
645.74
684.738
703.461
678.077
625.896
604.499
628.704
709.549
885.238
1101.31
1220.87
1241.87
1225.26
1173.22
1096.68
1000.29
890.004
775.165
664.149
563.97
479.623
413.535
365.634
333.892
315.157
305.927
302.964
303.642
306.078
309.215
312.566
316.089
319.755
323.531
327.376
331.224
334.971
338.463
341.478
343.729
344.867
344.499
342.228
337.706
330.697
321.113
308.995
294.396
279.517
266.43
253.661
241.399
229.767
218.828
208.593
199.035
190.107
181.766
173.974
166.704
159.952
153.732
148.108
143.736
141.325
140.72
141.773
144.348
148.287
153.393
159.433
166.131
173.162
180.156
186.741
192.609
197.599
201.715
205.073
207.8
209.937
211.406
212.036
211.648
210.163
207.689
204.534
200.861
196.279
190.945
185.134
179.096
173.05
167.187
161.666
156.617
152.128
148.247
144.999
142.427
140.614
139.743
140.706
144.408
152.055
164.578
181.329
199.143
213.276
220.849
225.93
244.663
295.479
407.831
624.278
910.162
981.569
824.973
615.814
445.849
359.696
342.387
351.265
362.895
374.131
383.524
389.879
391.813
388.589
381.862
374.633
621.333
530.662
534.459
620.25
735.025
752.714
732.058
705.844
681.927
660.172
641.245
627.063
618.369
614.13
612.563
612.033
611.332
609.665
606.578
601.947
595.881
588.52
580.069
570.581
559.917
547.92
534.561
520.029
504.749
489.384
474.864
463.495
460.321
469.75
496.651
542.371
602.897
671.052
741.46
811.191
877.005
932.332
962.313
949.042
891.452
811.916
740.418
692.761
677.368
693.131
724.93
757.224
744.205
682.244
658.303
738.679
928.32
1115.06
1149.58
1107.81
1037.66
952.172
854.937
752.075
649.221
553.035
469.727
403.079
354.014
320.913
300.617
289.543
284.488
283.009
283.463
284.877
286.754
288.883
291.142
293.472
295.907
298.492
301.286
304.346
307.715
311.4
315.347
319.416
323.36
326.815
329.304
330.269
329.131
325.385
318.692
308.932
296.126
282.676
270.157
257.701
245.607
234.067
223.177
212.976
203.468
194.623
186.388
178.695
171.476
164.669
158.221
152.102
146.293
140.793
135.661
131.022
126.977
123.589
120.893
118.889
117.542
116.781
116.534
116.675
117.052
117.553
118.11
118.689
119.261
119.767
120.099
120.104
119.619
118.527
116.817
114.614
112.181
109.785
107.286
104.636
101.887
99.1053
96.3685
93.7575
91.3523
89.2278
87.4516
86.0873
85.1994
84.8535
85.1119
86.0384
87.9931
91.428
96.9561
105.126
115.967
128.982
144.475
166.508
207.232
290.191
447.814
694.27
883.003
789.404
595.654
429.959
341.971
317.659
319.297
326.233
335.3
344.912
353.752
360.64
364.09
364.022
361.471
358.561
507.5
514.763
746.897
837.227
777.404
733.855
711.023
693.404
674.518
656.869
642.832
632.776
625.817
620.648
616.088
611.274
605.651
598.928
591.014
582.03
572.93
564.011
555.625
547.731
539.476
529.841
518.043
503.876
487.816
470.86
454.195
438.965
426.793
420.839
422.998
437.194
465.959
508.59
561.688
620.881
682.091
741.429
792.725
826.188
833.58
816.139
786.451
761.18
747.7
754.627
784.56
831.725
837.856
805.891
823.094
943.236
1051.4
1055.18
989.361
900.844
805.529
708.394
613.136
524.586
447.486
385.496
339.853
309.204
290.56
280.454
275.805
274.303
274.432
275.312
276.488
277.757
279.038
280.33
281.509
282.563
283.525
284.466
285.503
286.785
288.48
290.743
293.685
297.326
301.556
306.099
310.495
314.101
316.152
315.849
312.5
305.687
295.307
283.881
272.278
260.4
248.632
237.242
226.39
216.166
206.608
197.714
189.45
181.767
174.599
167.879
161.543
155.538
149.823
144.366
139.15
134.146
129.375
124.867
120.649
116.741
113.161
109.914
106.996
104.39
102.067
99.9961
98.1434
96.4781
94.9657
93.5629
92.2123
90.8438
89.3849
87.7787
86.0019
84.0766
82.0729
80.1003
78.2797
76.607
75.0552
73.6357
72.3735
71.3041
70.4718
69.9269
69.7231
69.915
70.5535
71.682
73.3337
75.5345
78.3194
81.8326
86.2752
92.0456
99.8275
110.814
127.498
155.829
209.563
314.195
499.277
736.662
798.933
636.488
459.952
347.353
303.821
294.759
295.884
300.838
308.508
317.335
326.056
333.416
337.93
339.525
339.301
338.91
580.696
713.601
830.188
739.617
717.474
714.847
704.819
687.104
669.271
655.232
644.575
635.918
628.132
620.388
612.056
602.699
592.113
580.367
567.822
555.114
543.091
532.675
524.671
519.719
516.302
512.102
504.86
493.199
477.09
457.848
437.619
418.585
402.366
390.382
384.768
385.481
395.325
417.006
451.288
496.28
547.947
601.565
652.684
696.853
729.673
748.811
756.895
762.831
777.528
800.505
844.711
916.901
955.77
942.284
955.32
985.884
966.29
896.669
805.013
710.281
618.42
532.557
456.213
392.833
344.375
310.592
289.276
277.257
271.407
269.226
269.005
269.731
270.881
272.219
273.644
275.097
276.523
277.805
278.738
279.251
279.322
279
278.41
277.752
277.289
277.318
278.13
279.954
282.901
286.9
291.641
296.543
300.763
303.266
302.998
299.148
291.523
282.317
271.967
260.951
249.772
238.778
228.191
218.131
208.657
199.785
191.505
183.79
176.598
169.88
163.58
157.642
152.014
146.654
141.528
136.612
131.874
127.315
122.939
118.754
114.769
110.992
107.433
104.094
100.976
98.0732
95.3756
92.8702
90.5401
88.3641
86.3167
84.3695
82.494
80.666
78.871
77.1065
75.3831
73.7216
72.1498
70.6984
69.3826
68.2157
67.2274
66.457
65.9519
65.766
65.957
66.5823
67.6942
69.3352
71.5358
74.3151
77.685
81.6648
86.3497
92.0093
99.346
109.984
127.462
159.498
222.326
343.693
544.692
744.318
703.639
525.448
380.317
306.365
281.185
274.298
273.626
277.745
284.79
293.264
301.934
309.448
314.284
316.61
317.559
318.409
635.995
821.1
768.437
754.741
734.733
712.745
694.911
681.253
669.146
657.8
647.457
638.071
629.161
620.019
609.88
598.078
584.209
568.279
550.809
532.856
515.956
501.944
492.555
488.673
489.52
492.454
493.156
487.972
474.991
454.902
430.566
405.834
383.988
366.892
355.66
351.486
353.014
362.401
382.141
413.287
454.337
501.301
549.249
594.411
635.099
671.174
703.918
738.365
782.147
831.377
902.059
1011.26
1049.28
986.766
946.919
900.751
828.086
739.603
648.821
562.838
484.701
417.147
362.651
322.239
294.978
278.434
269.59
265.672
264.584
264.983
266.14
267.726
269.621
271.78
274.154
276.663
279.191
281.225
282.54
283.034
282.661
281.45
279.526
277.108
274.512
272.123
270.361
269.624
270.229
272.352
275.937
280.602
285.608
289.809
291.864
290.544
285.697
278.576
269.681
259.722
249.3
238.856
228.675
218.914
209.652
200.915
192.704
185.007
177.801
171.056
164.733
158.792
153.185
147.87
142.806
137.958
133.299
128.801
124.457
120.264
116.224
112.342
108.624
105.077
101.708
98.5202
95.5149
92.6897
90.0388
87.5532
85.2204
83.026
80.9543
78.99
77.1206
75.3373
73.6364
72.02
70.4959
69.0781
67.7867
66.6453
65.6878
64.9601
64.5165
64.4183
64.7315
65.523
66.8552
68.78
71.3348
74.5392
78.3969
82.9034
88.0888
94.1931
101.936
113.125
131.876
167.279
237.905
372.642
578.42
726.285
618.709
446.903
332.495
281.673
263.073
255.735
254.192
258.122
264.96
273.281
281.905
289.379
294.075
296.785
298.256
299.574
844.096
829.449
800.271
760.639
735.911
716.147
698.112
682.24
668.591
657.134
647.588
639.693
632.633
625.432
617.001
606.208
592.054
573.961
552.105
527.663
502.855
480.758
464.774
457.43
458.905
466.76
476.659
482.464
478.243
462.081
436.056
405.37
375.967
351.927
334.745
324.932
322.594
326.071
337.17
357.938
389.028
428.609
472.625
516.989
560.323
604.408
652.39
709.386
778.662
856.109
968.916
1087.76
1049.69
943.648
865.099
783.992
697.181
610.566
529.396
456.757
394.958
345.874
310.085
286.455
272.604
265.739
263.359
263.606
265.3
267.792
270.767
274.078
277.64
281.355
285.082
288.619
291.794
294.02
295.23
295.3
294.156
291.801
288.343
284.013
279.164
274.248
269.771
266.233
264.05
263.57
264.978
268.148
272.602
277.248
280.611
281.155
278.587
273.308
265.901
257.085
247.521
237.719
228.026
218.645
209.677
201.162
193.105
185.501
178.336
171.596
165.258
159.297
153.681
148.373
143.336
138.533
133.933
129.503
125.22
121.073
117.055
113.167
109.412
105.795
102.323
99.0042
95.8443
92.8473
90.0149
87.3455
84.8344
82.4739
80.2537
78.1625
76.1889
74.3235
72.5599
70.8964
69.337
67.8928
66.5823
65.4324
64.4775
63.7666
63.3594
63.325
63.7385
64.6779
66.2175
68.4206
71.3321
74.9711
79.3277
84.3719
90.0881
96.7153
105.047
117.074
137.353
176.064
253.592
398.232
599.297
695.663
548.646
391.694
302.096
263.897
247.44
239.566
238.013
242.08
248.899
257.115
265.635
272.735
277.388
280.232
281.872
283.241
1196.77
861.842
806.592
762.652
733.445
709.641
689.484
673.148
660.52
651.101
644.2
639.206
635.596
632.282
628.132
621.775
611.592
595.915
573.549
544.579
511.048
477.153
448.739
431.442
427.731
435.921
451.512
468.3
478.436
473.823
452.704
419.559
382.63
349.89
325.283
309.256
301.616
301.352
307.558
321.735
345.257
377.893
417.207
459.719
503.943
552.469
610.674
685.081
772.632
868.759
1008.56
1092.75
982.049
861.3
764.133
674.139
589.415
511.383
442.129
383.642
337.486
304.09
282.381
270.16
264.843
264.083
266.082
269.629
273.988
278.745
283.68
288.659
293.57
298.281
302.632
306.413
309.265
311.21
312.107
311.75
309.971
306.68
301.914
295.862
288.893
281.535
274.404
268.153
263.215
259.981
258.815
259.776
262.699
266.686
270.338
271.934
270.904
267.152
261.088
253.376
244.688
235.576
226.428
217.483
208.866
200.63
192.786
185.333
178.262
171.567
165.239
159.266
153.631
148.31
143.275
138.491
133.928
129.551
125.328
121.24
117.274
113.423
109.684
106.06
102.557
99.1803
95.9389
92.8399
89.8895
87.0916
84.4473
81.9543
79.6075
77.3991
75.3207
73.364
71.523
69.7956
68.1851
66.7017
65.3638
64.1987
63.244
62.5492
62.1797
62.2121
62.7321
63.8298
65.5932
68.0983
71.3978
75.5081
80.3992
86.0007
92.2699
99.3963
108.305
121.188
142.997
184.773
268.102
418.974
608.407
660.312
493.834
352.783
281.261
249.778
233.969
225.936
224.867
229.251
236.15
244.296
252.617
259.231
263.942
266.806
268.44
269.651
1718.73
876.135
800.461
754.249
720.456
693.456
672.363
656.738
646.024
639.461
636.265
635.299
635.615
636.348
636.636
635.441
631.338
622.288
605.65
578.942
541.526
496.474
451.613
417.472
401.231
403.397
419.808
443.827
467.048
480.028
473.224
445.86
405.666
364.336
330.608
307.155
293.183
288.04
290.429
300.19
318.424
345.569
380.41
420.518
464.779
516.301
582.512
669.932
767.933
881.613
1029.79
1039.92
890.027
768.144
668.77
582.206
505.144
437.354
380.179
335.009
302.313
281.213
269.742
265.472
266.075
269.646
274.784
280.563
286.443
292.162
297.623
302.798
307.658
312.141
316.139
319.517
322.055
323.995
325.047
324.898
323.261
319.928
314.812
307.992
299.767
290.696
281.443
272.951
265.702
260.032
256.433
255.049
255.964
258.545
261.506
263.455
263.307
260.639
255.647
248.893
241.024
232.601
224.028
215.561
207.339
199.427
191.843
184.588
177.657
171.048
164.76
158.793
153.145
147.804
142.755
137.972
133.426
129.086
124.914
120.886
116.982
113.187
109.495
105.902
102.41
99.0248
95.7527
92.6021
89.5812
86.6974
83.9559
81.3596
78.9079
76.5979
74.4244
72.3818
70.4657
68.6749
67.0129
65.4899
64.1243
62.9444
61.99
61.3132
60.9846
61.0894
61.7245
62.9944
65.0021
67.8377
71.5617
76.1854
81.6509
87.8356
94.6457
102.26
111.712
125.393
148.584
192.979
280.753
434.219
607.747
623.716
454.474
325.144
265.961
238.14
222.55
214.708
214.381
219.167
226.207
234.41
242.16
248.69
253.412
256.246
257.779
258.7
2386.97
872.661
785.178
737.12
700.944
673.639
654.126
641.391
634.344
631.816
632.646
635.708
639.656
643.795
647.434
649.663
649.444
645.601
636.179
617.612
585.387
536.972
477.482
422.026
385.757
374.127
384.619
410.821
443.697
472.263
485.73
474.981
440.75
395.263
352.422
320.086
298.956
287.604
285.522
291.525
305.786
328.856
360.199
398.228
442.386
496.551
569.668
664.95
767.632
898.555
1022.99
948.934
796.097
680.514
587.556
508.799
440.684
383.127
337.29
303.795
282.054
270.362
266.408
267.795
272.391
278.515
285
291.175
296.76
301.732
306.192
310.267
314.059
317.607
320.863
323.682
326.278
328.615
330.313
330.954
330.142
327.566
323.031
316.501
308.119
298.465
288.065
278.132
269.337
261.898
256.358
252.941
251.73
252.506
254.398
256.036
256.169
254.121
249.883
243.89
236.734
228.957
220.959
212.993
205.203
197.653
190.369
183.353
176.603
170.119
163.906
157.97
152.321
146.962
141.889
137.09
132.543
128.218
124.082
120.106
116.262
112.533
108.902
105.362
101.912
98.5513
95.2866
92.1248
89.0741
86.1435
83.3407
80.6723
78.142
75.751
73.4983
71.3816
69.399
67.5507
65.8412
64.2812
62.8897
61.6962
60.7426
60.0855
59.8004
59.9816
60.739
62.1923
64.4619
67.6533
71.8359
77.0132
83.0928
89.8907
97.2555
105.377
115.332
129.72
154.067
200.496
291.204
443.933
599.584
588.993
425.126
308.55
254.31
228.486
213.026
205.658
206.264
211.464
218.767
226.573
234.232
240.748
245.458
248.239
249.613
250.144
3155.28
858.354
764.682
717.017
682.202
658.25
643.305
635.64
633.407
634.781
638.248
642.857
648.407
655.006
662.405
669.034
672.574
671.287
664.674
651.827
628.98
587.793
523.056
448.065
387.139
354.238
350.731
371.933
409.306
450.829
482.757
493.791
477.414
436.923
388.836
347.647
318.457
300.552
292.899
295.093
306.019
326.074
354.999
391.596
435.853
492.659
571.056
668.409
775.021
915.133
979.354
848.878
709.69
605.18
521.57
451.329
391.972
344.02
308.302
284.617
271.588
267.04
268.485
273.517
280.111
286.812
292.781
297.698
301.596
304.696
307.28
309.614
311.909
314.298
316.817
319.315
322.255
325.293
327.975
329.792
330.232
328.889
325.485
319.938
312.187
302.877
292.415
281.878
272.399
264.126
257.311
252.201
249.125
248.158
248.728
249.636
249.588
247.756
243.966
238.532
231.976
224.792
217.356
209.904
202.569
195.413
188.461
181.718
175.185
168.862
162.758
156.884
151.256
145.888
140.79
135.961
131.393
127.062
122.941
119
115.208
111.541
107.977
104.502
101.109
97.7966
94.5664
91.4238
88.3763
85.4327
82.6018
79.8922
77.3108
74.8624
72.5499
70.3745
68.3371
66.4402
64.6896
63.0971
61.6827
60.4775
59.526
58.8893
58.649
58.9094
59.7936
61.4385
63.9833
67.5513
72.221
77.9868
84.7171
92.1615
100.111
108.755
119.215
134.224
159.46
207.265
299.358
448.509
586.14
557.928
404.328
297.681
246.725
221.115
205.36
198.885
200.561
205.914
213.001
220.874
228.567
235.076
239.759
242.471
243.643
243.72
3965.8
842.523
743.075
698.341
667.957
649.915
641.509
640.212
642.921
646.644
649.563
651.443
653.967
660.836
672.173
685.677
697.027
701.796
697.746
685.031
666.141
635.81
577.267
491.465
407.257
349.161
324.499
332.07
366.084
415.365
464.39
496.884
502.53
479.274
433.958
386.857
349.72
325.125
311.898
310.183
318.308
336.145
363.31
398.718
442.995
501.931
583.091
678.082
791.615
919.217
905.491
758.179
635.614
543.363
469.02
406.704
355.465
316.188
289.189
273.549
267.335
268.028
272.953
279.703
286.463
292.145
296.313
299
300.502
301.229
301.607
302.025
302.783
304.066
305.973
308.562
312.017
315.865
319.652
322.819
324.736
324.867
322.855
318.616
311.987
303.45
293.934
283.973
274.349
265.614
258.015
251.765
247.252
244.775
244.03
244.012
243.481
241.553
237.956
232.91
226.855
220.225
213.347
206.424
199.567
192.83
186.234
179.789
173.497
167.363
161.398
155.614
150.033
144.674
139.557
134.695
130.091
125.731
121.6
117.672
113.914
110.297
106.794
103.385
100.058
96.805
93.6263
90.5242
87.5045
84.575
81.7445
79.0222
76.4167
73.9356
71.5849
69.3689
67.2915
65.3576
63.5748
61.9562
60.5234
59.3091
58.3609
57.7449
57.5493
57.8887
58.9007
60.7404
63.5677
67.5252
72.7024
79.084
86.4976
94.6282
103.213
112.433
123.419
138.971
164.822
213.328
305.304
448.615
569.331
531.122
390.078
290.936
241.569
215.796
200.523
195.027
196.72
202.022
209.188
217.166
224.908
231.395
236.021
238.634
239.563
239.147
4780.51
834.58
723.57
682.034
655.995
642.818
639.086
641.314
644.855
646.135
644.383
641.581
640.428
648.825
667.156
692.012
715.771
730.357
733.565
722.295
700.426
674.72
627.11
541.378
441.262
359.932
311.498
298.393
319.356
367.536
428.526
483.048
512.994
510.741
480.287
433.176
389.685
358.689
340.585
335.222
341.131
357.151
382.549
416.368
460.036
520.57
601.366
693.695
813.088
900.194
821.563
680.975
574.738
493.743
427.457
372.183
328.264
296.588
276.913
267.75
266.711
270.944
277.648
284.562
290.232
293.994
295.788
295.922
294.894
293.267
291.584
290.315
289.815
290.29
291.752
294.705
298.599
303.075
307.772
312.157
315.514
317.109
316.539
313.599
308.546
301.545
293.051
283.79
274.546
265.863
257.954
251.004
245.454
241.764
239.839
238.854
237.67
235.434
231.845
227.063
221.449
215.359
209.053
202.685
196.337
190.046
183.828
177.697
171.661
165.73
159.92
154.246
148.731
143.399
138.275
133.382
128.733
124.326
120.161
116.218
112.47
108.884
105.429
102.079
98.8155
95.627
92.5085
89.4599
86.4848
83.5895
80.7819
78.0709
75.4659
72.9758
70.6086
68.3714
66.2705
64.3132
62.509
60.8726
59.4271
58.2073
57.2641
56.6685
56.5161
56.9321
58.0691
60.1014
63.2112
67.5625
73.2574
80.2728
88.3986
97.2633
106.559
116.442
128.004
144.04
170.244
218.804
309.277
445.08
550.654
508.406
380.52
287.307
238.51
212.505
198.053
193.109
194.741
199.976
207.199
215.275
223.032
229.448
233.963
236.419
237.053
236.123
5362.2
1130.77
729.697
670.711
644.924
632.377
628.645
629.487
628.901
622.92
611.918
601.999
601.987
614.922
641.889
681.175
724.364
754.648
766.751
761.007
735.973
706.124
664.128
584.408
478.364
380.975
312.282
277.291
277.713
313.266
375.897
447.547
505.341
529.911
518.653
482.952
436.769
399.989
377.042
368.347
372.185
386.136
409.065
440.429
483.559
545.441
622.33
716.421
829.131
858.354
743.224
617.711
525.876
454.25
394.652
345.542
308.062
282.873
269.234
265.177
267.885
274.236
281.455
287.585
291.585
293.174
292.581
290.333
287.094
283.548
280.302
277.825
276.449
276.402
277.809
280.991
285.085
289.84
295.018
300.199
304.705
307.453
308.216
306.793
303.143
297.434
290.08
281.754
273.193
264.882
256.968
249.616
243.334
238.705
235.778
233.864
231.956
229.292
225.606
221.025
215.836
210.304
204.607
198.839
193.039
187.225
181.407
175.6
169.822
164.094
158.439
152.878
147.437
142.141
137.019
132.1
127.395
122.932
118.716
114.737
110.972
107.391
103.962
100.655
97.4453
94.3165
91.2591
88.2694
85.3485
82.5006
79.7322
77.0514
74.4672
71.989
69.6259
67.3866
65.2795
63.3138
61.5008
59.8568
58.4063
57.1863
56.2504
55.6749
55.5628
56.0498
57.3042
59.52
62.9033
67.6414
73.8519
81.5081
90.3703
100.023
110.123
120.789
133.015
149.508
175.841
223.865
311.614
438.774
531.196
489.188
374.171
286.086
237.401
211.183
197.465
192.843
194.444
199.653
206.928
215.042
222.732
228.993
233.305
235.512
235.774
234.308
5570.01
1798.7
918.142
709.363
648.689
626.131
617.039
613.046
608.484
599.132
583.361
568.317
570.872
588.202
620.413
667.686
724.528
772.462
795.931
795.804
771.088
733.306
686.326
609.866
505.541
401.732
320.585
269.174
249.147
263.336
313.029
389.606
470.52
529.78
547.48
528.29
490.442
450.567
422.56
410.169
410.767
421.402
440.707
469.908
513.929
574.115
647.343
744.595
829.156
800.683
675.152
565.118
485.392
420.95
367.282
324.154
292.798
273.418
264.801
264.595
269.742
277.109
284.138
289.156
291.383
290.915
288.221
284.008
279.082
274.202
269.965
266.78
264.937
264.698
266.477
269.694
273.802
278.468
283.71
289.153
294.077
297.746
299.6
299.301
296.773
292.162
285.855
278.482
270.705
262.893
255.101
247.499
240.686
235.337
231.573
228.802
226.162
223.034
219.228
214.857
210.131
205.214
200.19
195.079
189.875
184.57
179.168
173.688
168.159
162.616
157.095
151.629
146.25
140.986
135.867
130.921
126.165
121.637
117.352
113.31
109.498
105.893
102.462
99.1741
96.0003
92.919
89.9158
86.9832
84.1191
81.3254
78.6067
75.9696
73.4222
70.9733
68.6324
66.4089
64.3124
62.3535
60.545
58.9045
57.4581
56.2443
55.3198
54.765
54.6895
55.24
56.5997
58.9835
62.622
67.7284
74.44
82.7335
92.3513
102.85
113.859
125.448
138.485
155.473
181.79
228.762
312.706
430.414
511.481
472.564
369.898
286.753
238.151
211.739
198.508
194.101
195.726
200.953
208.249
216.302
223.804
229.791
233.772
235.593
235.372
233.317
5214.16
2482.83
1351.22
904.706
728.71
656.983
625.971
611.168
601.81
592.558
582.244
574.69
577.669
595.591
630.416
681.335
742.841
798.726
829.779
830.874
802.911
756.482
698.026
616.122
511.491
406.289
320.626
261.536
229.261
225.077
252.478
313.699
401.432
493.175
555.261
568.645
544.953
507.945
475.062
454.998
449.945
456.313
472.422
501.175
544.655
600.481
674.93
767.637
814.058
747.017
624.562
527.628
456.234
397.386
348.441
310.108
283.405
268.168
262.897
265.028
271.422
279.049
285.58
289.603
290.633
288.866
284.883
279.511
273.658
268.134
263.506
260.107
258.126
257.772
259.34
261.97
265.347
269.546
274.544
279.957
285.115
289.23
291.654
292.009
290.202
286.374
280.911
274.397
267.373
260.033
252.333
244.498
237.25
231.314
226.815
223.234
219.883
216.323
212.464
208.407
204.269
200.098
195.868
191.518
186.988
182.243
177.278
172.12
166.815
161.418
155.984
150.565
145.203
139.934
134.789
129.788
124.977
120.382
116.026
111.916
108.048
104.405
100.958
97.6747
94.5248
91.4818
88.527
85.6487
82.8415
80.1046
77.4407
74.8549
72.3539
69.9457
67.6393
65.4441
63.3704
61.4293
59.6347
58.0052
56.5678
55.3627
54.4491
53.9121
53.8688
54.4752
55.929
58.465
62.3396
67.7944
74.9917
83.9211
94.3219
105.738
117.78
130.439
144.392
161.865
188.025
233.561
313.006
421.12
492.668
458.281
366.997
288.816
240.584
214.033
201.057
196.817
198.533
203.801
211.04
218.888
226.047
231.609
235.09
236.343
235.485
232.741
4199.48
2892.28
1855.66
1261.07
943.285
778.465
694.044
650.409
626.79
612.635
603.731
600.246
609.492
634.587
676.603
733.165
796.622
849.865
875.118
866.31
825.878
766.322
692.865
599.071
490.547
386.99
303.898
245.622
210.693
198.533
210.865
251.924
324.765
421.246
517.704
579.079
588.201
562.241
528.282
501.654
489.666
491.179
504.792
532.181
571.965
625.869
702.797
781.252
791.255
702.934
588.036
500.788
435.276
380.75
335.632
301.037
277.755
265.376
262.243
265.712
272.675
280.262
286.353
289.751
290.111
287.685
283.118
277.298
271.178
265.572
261.018
257.784
255.911
255.38
256.324
258.256
261.081
264.843
269.478
274.617
279.592
283.616
286.03
286.47
284.862
281.377
276.411