/*--------------------------------*- C++ -*----------------------------------*\
| =========                 |                                                 |
| \\      /  F ield         | OpenFOAM: The Open Source CFD Toolbox           |
|  \\    /   O peration     | Version:  2112                                  |
|   \\  /    A nd           | Website:  www.openfoam.com                      |
|    \\/     M anipulation  |                                                 |
\*---------------------------------------------------------------------------*/
FoamFile
{
    version     2.0;
    format      ascii;
    arch        "LSB;label=32;scalar=64";
    class       volScalarField;
    location    "0.038";
    object      s;
}
// * * * * * * * * * * * * * * * * * * * * * * * * * * * * * * * * * * * * * //

dimensions      [0 0 0 0 0 0 0];

internalField   nonuniform List<scalar> 
12225
(
1
1
1
1
1
1
1
1
1
1
1
1
1
1
1
1
1
1
1
1
1
1
1
1
1
1
1
1
1
1
1
1
1
1
1
1
1
1
1
1
1
1
1
1
1
1
1
1
1
1
1
1
1
1
1
1
1
1
1
1
1
1
1
1
1
1
1
1
1
1
1
1
1
1
1
1
1
1
1
1
1
1
1
1
1
1
1
1
1
1
1
1
1
1
1
1
1
1
1
1
1
1
1
1
1
1
1
1
1
1
1
1
1
1
1
1
1
1
1
1
1
1
1
1
1
1
1
1
1
1
1
1
1
1
1
1
1
1
1
1
1
1
1
1
1
1
1
1
1
1
1
1
1
1
1
1
1
1
1
1
1
1
1
1
1
1
1
1
1
1
1
1
1
1
1
1
1
1
1
1
1
1
1
1
1
1
1
1
1
1
1
1
1
1
1
1
1
1
1
1
1
1
1
1
1
1
1
1
1
1
1
1
1
1
1
1
1
1
1
1
1
1
1
1
1
1
1
1
1
1
1
1
1
1
1
1
1
1
1
1
1
1
1
1
1
1
1
1
1
1
1
1
1
1
1
1
1
1
1
1
1
1
1
1
1
1
1
1
1
1
1
1
1
1
1
1
1
1
1
1
1
1
1
1
1
1
1
1
1
1
1
1
1
1
1
1
1
1
1
1
1
1
1
1
1
1
1
1
1
1
1
1
1
1
1
1
1
1
1
1
1
1
1
1
1
1
1
1
1
1
1
1
1
1
1
1
1
1
1
1
1
1
1
1
1
1
1
1
1
1
1
1
1
1
1
1
1
1
1
1
1
1
1
1
1
1
1
1
1
1
1
1
1
1
1
1
1
1
1
1
1
1
1
1
1
1
1
1
1
1
1
1
1
1
1
1
1
1
1
1
1
1
1
1
1
1
1
1
1
1
1
1
1
1
1
1
1
1
1
1
1
1
1
1
1
1
1
1
1
1
1
1
1
1
1
1
1
1
1
1
1
1
1
1
1
1
1
1
1
1
1
1
1
1
1
1
1
1
1
1
1
1
1
1
1
1
1
1
1
1
1
1
1
1
1
1
1
1
1
1
1
1
1
1
1
1
1
1
1
1
1
1
1
1
1
1
1
1
1
1
1
1
1
1
1
1
1
1
1
1
1
1
1
1
1
1
1
1
1
1
1
1
1
1
1
1
1
1
1
1
1
1
1
1
1
1
1
1
1
1
0.344296
0.44242
0.456371
0.456423
0.45055
0.451689
0.490426
0.514108
0.546578
0.5696
0.585432
0.596221
0.608684
0.62313
0.633656
0.640328
0.645243
0.65009
0.654085
0.656016
0.656586
0.656639
0.656454
0.655235
0.653037
0.650224
0.643889
0.622264
0.473193
0.345214
0.33098
0.331221
0.337628
0.349731
0.36216
0.371812
0.393921
0.427665
0.447522
0.451403
0.450757
0.453812
0.455209
0.430411
0.400867
0.376551
0.379263
0.67036
0.857701
0.862325
0.863994
0.864465
0.864554
0.864561
0.864533
0.864418
0.864167
0.863793
0.863406
0.863147
0.863028
0.862905
0.862673
0.862409
0.862207
0.861975
0.86158
0.861083
0.860891
0.860876
0.86132
0.862465
0.863592
0.864536
0.865506
0.866404
0.867462
0.869254
0.871242
0.872554
0.873726
0.875531
0.877434
0.878684
0.880381
0.881927
0.88332
0.884661
0.886024
0.887163
0.888085
0.88921
0.890103
0.890837
0.891254
0.891722
0.891947
0.892122
0.892219
0.892167
0.892039
0.891744
0.891233
0.890505
0.889572
0.888374
0.88676
0.884771
0.882611
0.880438
0.878523
0.876977
0.875556
0.874322
0.873357
0.872716
0.872326
0.872121
0.872006
0.871816
0.871019
0.868281
0.864786
0.861856
0.859693
0.858163
0.857115
0.856448
0.856055
0.855733
0.855199
0.854055
0.851055
0.842939
0.830916
0.81552
0.796104
0.773627
0.748746
0.719659
0.681904
0.630464
0.562707
0.480282
0.389041
0.297271
0.213223
0.142991
0.089387
0.0519935
0.0281296
0.0141698
0.00666306
0.00293853
0.00122242
0.0004771
0.00016629
5.05804e-05
2.52799e-05
1.29931e-05
6.60389e-06
3.27744e-06
1.58694e-06
7.5062e-07
3.47194e-07
1.57164e-07
6.96673e-08
3.0255e-08
1.28766e-08
5.37128e-09
2.19599e-09
8.79574e-10
3.45012e-10
1.32349e-10
4.96074e-11
1.81053e-11
6.42445e-12
2.19588e-12
7.21453e-13
-2.14593e-11
0.29708
0.388087
0.37764
0.339679
0.32453
0.347899
0.408364
0.486211
0.544774
0.58314
0.607193
0.624562
0.636112
0.642473
0.649011
0.653315
0.655146
0.658495
0.661807
0.665792
0.669162
0.672618
0.674748
0.674953
0.674478
0.672981
0.669633
0.660771
0.627832
0.533511
0.393582
0.346166
0.31498
0.282208
0.277019
0.303359
0.333976
0.38566
0.473428
0.501653
0.497037
0.474488
0.463106
0.438499
0.594328
0.791133
0.810707
0.842978
0.861181
0.861869
0.861873
0.859967
0.85715
0.853777
0.849504
0.844796
0.839291
0.832225
0.824827
0.820141
0.815899
0.811766
0.809929
0.808518
0.807838
0.80753
0.8074
0.807349
0.807334
0.807922
0.809645
0.81191
0.814016
0.816123
0.818476
0.820726
0.823067
0.826277
0.829601
0.832256
0.835624
0.83989
0.843974
0.848501
0.853374
0.858411
0.863309
0.869
0.874668
0.880267
0.885219
0.890537
0.895761
0.900631
0.90471
0.908882
0.912062
0.914959
0.917665
0.919916
0.922194
0.924328
0.926352
0.928324
0.930247
0.932154
0.933933
0.935134
0.935284
0.934086
0.930803
0.925555
0.918709
0.910857
0.902509
0.895148
0.889739
0.886387
0.885202
0.885393
0.888052
0.895245
0.901291
0.90492
0.906219
0.906286
0.905473
0.901185
0.892525
0.8853
0.880217
0.877567
0.876896
0.877222
0.88022
0.89244
0.906874
0.918122
0.928475
0.937075
0.94173
0.942703
0.942312
0.94019
0.934579
0.919322
0.894706
0.872483
0.856743
0.843577
0.820837
0.766944
0.650182
0.515791
0.389632
0.285484
0.203584
0.140692
0.0939522
0.0605324
0.0376077
0.0225347
0.0130312
0.00727921
0.00393198
0.00205635
0.00104232
0.000512693
0.000244891
0.000113724
5.13359e-05
2.2555e-05
9.62765e-06
4.00117e-06
1.61013e-06
6.30532e-07
2.36962e-07
8.63267e-08
3.01138e-08
8.11395e-09
0.22783
0.246198
0.263099
0.34644
0.484507
0.590335
0.639438
0.662915
0.665809
0.664659
0.66201
0.657173
0.649802
0.644616
0.641435
0.634639
0.629299
0.625877
0.625725
0.626762
0.629397
0.635052
0.641677
0.649431
0.658775
0.664846
0.668712
0.669771
0.666654
0.651039
0.602521
0.4991
0.401045
0.335291
0.308078
0.310508
0.329741
0.375352
0.47726
0.548404
0.546708
0.509814
0.487008
0.710788
0.817637
0.844883
0.85368
0.857756
0.858758
0.854948
0.847601
0.835393
0.817499
0.801764
0.791903
0.784795
0.781853
0.780989
0.781045
0.782415
0.782763
0.783031
0.784238
0.785866
0.786926
0.787699
0.787704
0.787383
0.787328
0.788087
0.789934
0.792024
0.79437
0.797318
0.800899
0.804823
0.808624
0.812089
0.814988
0.818687
0.822298
0.825691
0.827736
0.830074
0.833036
0.834842
0.836529
0.838959
0.841836
0.845453
0.848954
0.853246
0.857666
0.86218
0.867221
0.872597
0.87812
0.883549
0.889143
0.894557
0.899946
0.905326
0.910709
0.9162
0.92183
0.927676
0.933773
0.94007
0.945856
0.950444
0.954245
0.957142
0.958823
0.958735
0.955699
0.946162
0.931552
0.914404
0.89877
0.888849
0.884574
0.88402
0.885806
0.895855
0.913084
0.926776
0.936666
0.942717
0.945323
0.94568
0.944509
0.936819
0.910991
0.886402
0.873047
0.868332
0.867915
0.869733
0.880352
0.90443
0.923123
0.936326
0.946135
0.954331
0.962213
0.9699
0.976345
0.980367
0.981858
0.981957
0.981294
0.977879
0.968663
0.960415
0.949327
0.925426
0.862531
0.694831
0.507421
0.354488
0.239669
0.156972
0.0995639
0.0611585
0.0363897
0.0209858
0.0117363
0.00637135
0.00335897
0.00172185
0.000857932
0.000416204
0.000196177
9.01033e-05
4.0087e-05
1.7383e-05
7.24286e-06
2.93617e-06
1.13144e-06
3.95268e-07
0.191053
0.28349
0.529459
0.658567
0.697167
0.697405
0.693132
0.682307
0.666559
0.642938
0.620729
0.589955
0.565073
0.551526
0.531232
0.513
0.507784
0.502677
0.496315
0.496368
0.498811
0.506267
0.518351
0.537315
0.572117
0.613839
0.645219
0.661269
0.669974
0.669464
0.66209
0.637348
0.590162
0.522899
0.457861
0.457353
0.474647
0.524303
0.580282
0.592991
0.559668
0.552847
0.707439
0.824466
0.848611
0.853912
0.85476
0.853882
0.844932
0.826684
0.797148
0.781157
0.773494
0.770279
0.769576
0.772253
0.776704
0.779004
0.783572
0.785055
0.785318
0.785308
0.784813
0.782785
0.778553
0.772776
0.766295
0.759367
0.755462
0.753447
0.75214
0.751837
0.757337
0.763558
0.769988
0.780284
0.79155
0.799862
0.80641
0.814983
0.823176
0.83126
0.83699
0.84172
0.847909
0.852433
0.856011
0.858939
0.860403
0.860809
0.860445
0.860384
0.860412
0.861464
0.863466
0.865822
0.868725
0.872096
0.875617
0.879274
0.883043
0.886931
0.890983
0.895051
0.899148
0.903382
0.907985
0.913364
0.920628
0.930314
0.941387
0.952659
0.961238
0.966576
0.969883
0.971337
0.970945
0.967097
0.954264
0.931055
0.908429
0.892341
0.884043
0.881746
0.882127
0.886768
0.905309
0.928789
0.946977
0.959755
0.967185
0.970092
0.970311
0.968078
0.954371
0.915865
0.886918
0.872915
0.868962
0.869306
0.875131
0.898233
0.922879
0.939292
0.950584
0.959042
0.966071
0.972431
0.9785
0.984234
0.988918
0.991826
0.993012
0.993198
0.993037
0.99209
0.988848
0.979802
0.956138
0.885129
0.690379
0.485828
0.326666
0.211345
0.132199
0.0801098
0.0470663
0.0268392
0.0148626
0.00800113
0.00418652
0.00213159
0.00105442
0.000507615
0.000236829
0.000107442
4.69647e-05
1.98906e-05
8.07306e-06
3.0041e-06
0.196763
0.651805
0.723358
0.722155
0.713491
0.694051
0.653607
0.601598
0.55722
0.519218
0.496654
0.478136
0.463955
0.455481
0.446654
0.440429
0.439454
0.438985
0.438576
0.439081
0.440578
0.443804
0.449825
0.459701
0.476871
0.516149
0.58222
0.634169
0.661977
0.67422
0.675094
0.671348
0.659711
0.627203
0.603023
0.580084
0.576289
0.595926
0.612926
0.599792
0.605327
0.730333
0.821337
0.847948
0.852629
0.853004
0.849324
0.83595
0.803495
0.773217
0.762568
0.758986
0.75849
0.763229
0.772271
0.777369
0.782672
0.784148
0.784553
0.782925
0.777152
0.767494
0.752469
0.729296
0.698962
0.667607
0.642589
0.627647
0.621741
0.620169
0.620299
0.625191
0.63613
0.646061
0.652891
0.662523
0.678519
0.69602
0.710759
0.729113
0.747913
0.768577
0.788996
0.806128
0.823239
0.837882
0.850861
0.861539
0.871044
0.878463
0.882362
0.884831
0.886067
0.886801
0.887515
0.888369
0.889458
0.891147
0.893297
0.895897
0.898819
0.901867
0.90478
0.907415
0.909438
0.910567
0.910688
0.910894
0.91252
0.915556
0.920419
0.927806
0.939688
0.954351
0.966797
0.973745
0.977272
0.978423
0.977665
0.973153
0.958192
0.93367
0.911236
0.895022
0.8865
0.883766
0.883734
0.886169
0.898835
0.927078
0.950699
0.967135
0.976335
0.97969
0.979823
0.976875
0.959689
0.91639
0.886918
0.873359
0.86999
0.870815
0.878981
0.906799
0.932837
0.950026
0.961088
0.96847
0.974183
0.979257
0.983978
0.988264
0.991866
0.994534
0.996064
0.996589
0.996601
0.996253
0.994554
0.9884
0.968272
0.901587
0.706578
0.493473
0.328505
0.209542
0.128799
0.07665
0.0442815
0.0248615
0.0135651
0.00719768
0.00370978
0.00185845
0.00090237
0.000425081
0.000193238
8.4821e-05
3.58694e-05
1.39615e-05
0.74054
0.74398
0.737574
0.714654
0.663792
0.589826
0.541073
0.508311
0.486767
0.468401
0.45525
0.442468
0.431037
0.423841
0.416002
0.412288
0.412692
0.414689
0.417398
0.41931
0.420943
0.422846
0.425493
0.431176
0.447059
0.487248
0.545623
0.608093
0.652141
0.673661
0.680744
0.68096
0.67829
0.66838
0.648377
0.593802
0.586613
0.628362
0.63144
0.647815
0.751089
0.822019
0.845702
0.851059
0.851442
0.846746
0.830557
0.792248
0.761631
0.751451
0.74906
0.74933
0.757027
0.769832
0.780464
0.783272
0.78368
0.782358
0.776835
0.762845
0.734614
0.688615
0.620043
0.557308
0.531853
0.520115
0.51638
0.516824
0.529072
0.549583
0.568911
0.588924
0.603248
0.611962
0.616787
0.620047
0.625701
0.630752
0.634773
0.641007
0.647766
0.65525
0.665743
0.678482
0.694351
0.716219
0.742139
0.77136
0.80172
0.830936
0.852117
0.865933
0.874649
0.880102
0.883337
0.885787
0.888065
0.890566
0.893587
0.897389
0.902054
0.907585
0.91381
0.920448
0.927108
0.933525
0.939077
0.941956
0.940837
0.935178
0.929232
0.926988
0.929336
0.937347
0.948893
0.963428
0.975093
0.981054
0.983353
0.983325
0.980664
0.969902
0.948017
0.926223
0.908134
0.896323
0.890806
0.88953
0.889875
0.893363
0.909579
0.939158
0.961959
0.976454
0.983279
0.984792
0.983877
0.976284
0.943139
0.9025
0.880907
0.872881
0.87191
0.874436
0.889985
0.923682
0.948287
0.96408
0.973637
0.979427
0.983354
0.986635
0.989755
0.992639
0.995031
0.996702
0.997576
0.997818
0.997777
0.997285
0.994964
0.986064
0.954524
0.841728
0.615996
0.42343
0.277671
0.174657
0.105802
0.0619612
0.0351681
0.0193865
0.0103807
0.00539798
0.00272035
0.00132798
0.000625949
0.000284343
0.000124753
5.05834e-05
0.750603
0.744772
0.712496
0.635869
0.578391
0.534896
0.501858
0.47934
0.462657
0.445474
0.428111
0.407832
0.387855
0.371604
0.358416
0.359156
0.363565
0.37349
0.38807
0.399734
0.407106
0.410691
0.417575
0.433255
0.464481
0.503136
0.553426
0.60934
0.653616
0.675495
0.682676
0.683144
0.680344
0.669107
0.626537
0.592552
0.652176
0.675766
0.691568
0.772062
0.823075
0.843602
0.849044
0.849766
0.845191
0.82874
0.790902
0.754709
0.743053
0.740534
0.741054
0.748666
0.764165
0.778751
0.78223
0.782667
0.780507
0.770542
0.74584
0.696107
0.6068
0.511799
0.472244
0.452916
0.44534
0.443577
0.448546
0.472025
0.500165
0.51998
0.54993
0.586648
0.607029
0.619439
0.624138
0.6267
0.628757
0.630463
0.631779
0.633961
0.635777
0.636934
0.638873
0.640879
0.642693
0.644648
0.648656
0.656122
0.668357
0.687481
0.715338
0.74741
0.775089
0.795069
0.80765
0.815135
0.820082
0.824214
0.829039
0.835775
0.845245
0.857845
0.87307
0.889606
0.907268
0.924727
0.939375
0.950219
0.95819
0.96332
0.964679
0.960941
0.951207
0.945142
0.945103
0.951985
0.964177
0.976103
0.98396
0.987076
0.987377
0.985416
0.975584
0.952931
0.931623
0.914597
0.90314
0.897197
0.89544
0.895552
0.89786
0.909608
0.938333
0.962176
0.977926
0.985956
0.988237
0.987897
0.983337
0.960388
0.916763
0.890464
0.879441
0.877221
0.878083
0.885212
0.91264
0.943567
0.96408
0.976643
0.983894
0.988051
0.990728
0.99285
0.994738
0.996367
0.997576
0.99827
0.998508
0.998507
0.99826
0.99691
0.991323
0.970304
0.894105
0.686318
0.480291
0.321194
0.205995
0.127161
0.0757366
0.0435971
0.024274
0.0130826
0.00682268
0.00344286
0.00167846
0.000788178
0.000358009
0.000150973
0.749609
0.730752
0.665681
0.601907
0.551872
0.51107
0.480228
0.457627
0.433179
0.402989
0.363681
0.323175
0.291134
0.26798
0.259631
0.262878
0.275449
0.308901
0.350147
0.374072
0.385425
0.403205
0.430364
0.472895
0.511115
0.539494
0.572101
0.613191
0.648269
0.672891
0.682204
0.682393
0.67657
0.640636
0.604189
0.657613
0.71517
0.734249
0.78427
0.824679
0.841113
0.846546
0.847661
0.843774
0.82723
0.796424
0.756308
0.739093
0.734713
0.73449
0.738876
0.752566
0.772869
0.779669
0.781071
0.779483
0.769006
0.738822
0.670808
0.559428
0.462491
0.420698
0.399213
0.388498
0.384132
0.383678
0.394118
0.420114
0.444809
0.478727
0.535748
0.586914
0.621974
0.658738
0.672937
0.676847
0.675833
0.668967
0.666886
0.664264
0.659879
0.655973
0.652452
0.649515
0.64688
0.643984
0.642364
0.641691
0.642404
0.644942
0.649115
0.654874
0.663388
0.673245
0.68194
0.688333
0.692834
0.696414
0.700215
0.705347
0.712992
0.724457
0.741458
0.766266
0.799268
0.840729
0.886559
0.92348
0.949017
0.963711
0.971771
0.976476
0.978063
0.976569
0.968971
0.962992
0.962756
0.968918
0.979275
0.986707
0.990004
0.990416
0.988983
0.98055
0.956159
0.933153
0.916629
0.906614
0.90208
0.901037
0.901462
0.905142
0.921602
0.948546
0.968992
0.98241
0.989368
0.991492
0.991353
0.988383
0.973393
0.933788
0.90588
0.893237
0.890219
0.890699
0.894751
0.91229
0.942316
0.964372
0.978524
0.986846
0.991457
0.99399
0.995582
0.996797
0.997783
0.998495
0.998888
0.999011
0.999
0.99879
0.99768
0.993017
0.97509
0.909162
0.714522
0.504955
0.341488
0.221561
0.138333
0.0832931
0.0484226
0.0271929
0.0147463
0.00771428
0.00388941
0.00188488
0.000883323
0.000386181
0.74763
0.718348
0.647683
0.58737
0.531158
0.483331
0.453212
0.426763
0.387057
0.333647
0.284103
0.254977
0.236818
0.226256
0.221861
0.224674
0.237101
0.277535
0.337382
0.369025
0.39264
0.426815
0.479096
0.511696
0.532111
0.550348
0.574731
0.606278
0.645757
0.670165
0.677713
0.671188
0.640381
0.623912
0.647386
0.735388
0.763556
0.789843
0.824436
0.838349
0.843293
0.844758
0.841426
0.828954
0.810481
0.778712
0.742375
0.730581
0.728482
0.729274
0.736084
0.752707
0.77254
0.777879
0.777645
0.768499
0.740162
0.678584
0.573604
0.453403
0.394559
0.366202
0.34208
0.324182
0.316696
0.314307
0.318508
0.344878
0.384673
0.431635
0.495427
0.562595
0.62049
0.666697
0.694364
0.710951
0.729786
0.740291
0.735415
0.733853
0.728182
0.721346
0.715249
0.709255
0.702993
0.694959
0.685075
0.676072
0.667758
0.660677
0.655496
0.652702
0.651933
0.652968
0.654982
0.657404
0.659891
0.662427
0.665177
0.668366
0.672605
0.67832
0.686125
0.696508
0.710401
0.730083
0.762482
0.819147
0.888161
0.937849
0.964177
0.976549
0.982514
0.985704
0.986486
0.985378
0.980218
0.976759
0.977482
0.98357
0.989739
0.992401
0.992672
0.991406
0.983648
0.95957
0.937146
0.922732
0.915376
0.912939
0.912798
0.91414
0.921616
0.943337
0.963684
0.978407
0.987948
0.992944
0.994556
0.994541
0.99305
0.985967
0.961577
0.936062
0.922664
0.918198
0.918021
0.919804
0.927542
0.948779
0.968214
0.981332
0.989263
0.9937
0.996089
0.997413
0.998243
0.998811
0.999169
0.999336
0.999369
0.99934
0.999098
0.997931
0.99312
0.974595
0.906059
0.709217
0.503249
0.341954
0.222999
0.139927
0.0846178
0.0493535
0.0277684
0.0150643
0.00787745
0.00396032
0.00192467
0.000873429
0.745809
0.707462
0.639787
0.577891
0.509562
0.468779
0.439995
0.402489
0.345087
0.28982
0.256717
0.237256
0.224853
0.218027
0.215341
0.221214
0.251177
0.312246
0.362013
0.390036
0.434113
0.484267
0.507865
0.522169
0.53672
0.554606
0.579628
0.614012
0.645553
0.658284
0.647471
0.633986
0.6343
0.654664
0.743554
0.78038
0.797479
0.822993
0.835457
0.840069
0.841627
0.839066
0.829277
0.817915
0.798166
0.765385
0.73545
0.727059
0.725471
0.726133
0.732377
0.749888
0.769464
0.77361
0.771572
0.756646
0.711145
0.618924
0.493302
0.392991
0.348627
0.321293
0.289453
0.269013
0.259967
0.256798
0.257791
0.27578
0.308336
0.349006
0.41191
0.494866
0.576428
0.641142
0.678499
0.710449
0.738183
0.775502
0.801531
0.80474
0.805076
0.804237
0.805432
0.808039
0.809617
0.80799
0.801178
0.789515
0.774509
0.756679
0.737645
0.71964
0.702669
0.688006
0.67709
0.670328
0.666988
0.66611
0.666854
0.668792
0.671949
0.676495
0.682935
0.691313
0.701634
0.713666
0.72833
0.748563
0.784937
0.853736
0.924577
0.962638
0.979533
0.986772
0.990428
0.991959
0.991959
0.990422
0.987066
0.986344
0.988329
0.992636
0.994411
0.994524
0.993353
0.986345
0.965742
0.948172
0.93812
0.934056
0.933308
0.933628
0.936006
0.946204
0.9633
0.976733
0.986309
0.992446
0.995738
0.996926
0.997015
0.996546
0.99442
0.987611
0.97347
0.96198
0.955019
0.952283
0.952225
0.953918
0.961542
0.975362
0.985497
0.991847
0.995462
0.997418
0.998472
0.999059
0.99939
0.999555
0.99961
0.99961
0.999555
0.999232
0.997797
0.992025
0.969966
0.888357
0.680375
0.482919
0.328112
0.214012
0.134281
0.0811336
0.0472299
0.0264828
0.0143053
0.00742801
0.0037302
0.00175876
0.744372
0.702581
0.637801
0.573264
0.501719
0.463221
0.433267
0.38921
0.325395
0.277385
0.250877
0.234768
0.224952
0.222177
0.226032
0.250223
0.303134
0.368143
0.413693
0.451665
0.488002
0.504239
0.513629
0.525398
0.540351
0.563559
0.591921
0.613932
0.62485
0.623735
0.626786
0.635733
0.665782
0.747187
0.788508
0.805656
0.819617
0.832308
0.836838
0.838614
0.837709
0.832359
0.826037
0.814945
0.796241
0.765466
0.731878
0.721281
0.719671
0.720445
0.726215
0.742433
0.763077
0.768013
0.764951
0.743013
0.686255
0.584005
0.453566
0.362446
0.324837
0.295272
0.255822
0.236333
0.226052
0.220993
0.219589
0.224412
0.243578
0.272568
0.320284
0.389575
0.478301
0.565024
0.634389
0.674962
0.7192
0.777271
0.83923
0.873138
0.886002
0.891978
0.898854
0.907004
0.914425
0.919843
0.92312
0.923852
0.921485
0.914546
0.901442
0.880629
0.853391
0.820694
0.785708
0.754934
0.733649
0.719395
0.710871
0.706216
0.704513
0.705399
0.710023
0.718162
0.728775
0.738377
0.74515
0.752396
0.766168
0.794345
0.846041
0.917452
0.96268
0.982178
0.990079
0.993669
0.995253
0.995465
0.994986
0.993055
0.992197
0.992745
0.995025
0.996069
0.996095
0.995262
0.990702
0.978111
0.967209
0.960736
0.958154
0.957744
0.957942
0.959273
0.965211
0.976598
0.985514
0.991648
0.995458
0.997552
0.998442
0.998624
0.998555
0.998144
0.997031
0.9944
0.987811
0.980897
0.976317
0.974574
0.974722
0.976895
0.984
0.990561
0.994703
0.997114
0.998435
0.999138
0.999505
0.999685
0.999757
0.999771
0.999759
0.999664
0.9992
0.997253
0.989589
0.960615
0.853655
0.63802
0.450907
0.305084
0.19821
0.123812
0.0744136
0.0430322
0.0239537
0.0128115
0.0066248
0.0032252
0.74359
0.700664
0.640095
0.57219
0.499683
0.462054
0.431526
0.384782
0.319441
0.280218
0.265002
0.258102
0.255857
0.25807
0.279108
0.321366
0.376258
0.432444
0.469046
0.486711
0.497326
0.504579
0.513409
0.527702
0.548818
0.572046
0.589239
0.599707
0.608724
0.622455
0.638486
0.677145
0.756306
0.79371
0.810138
0.818849
0.82789
0.833166
0.835262
0.835442
0.832699
0.827666
0.822783
0.812764
0.795921
0.768165
0.733179
0.718251
0.714421
0.713636
0.715394
0.725495
0.748141
0.757558
0.757405
0.741173
0.689488
0.593623
0.466335
0.364252
0.311838
0.281853
0.248508
0.221864
0.210965
0.206207
0.204878
0.207089
0.220106
0.242813
0.282278
0.339304
0.409393
0.496147
0.582106
0.633371
0.669668
0.746536
0.839758
0.891525
0.914331
0.924251
0.93049
0.936624
0.94215
0.947087
0.951861
0.956834
0.96185
0.966467
0.969565
0.970189
0.967482
0.959446
0.94404
0.917572
0.882829
0.85178
0.828684
0.811668
0.797573
0.787564
0.78429
0.788366
0.804578
0.824994
0.835443
0.833183
0.818549
0.80924
0.819713
0.862346
0.922624
0.966302
0.98532
0.992856
0.995999
0.997268
0.997475
0.99726
0.996219
0.995665
0.99585
0.996869
0.997295
0.997228
0.99651
0.994188
0.990813
0.986548
0.98215
0.978866
0.977228
0.976835
0.976979
0.978488
0.98443
0.990798
0.994903
0.997313
0.998614
0.999233
0.999451
0.999477
0.999443
0.999282
0.998771
0.997085
0.992533
0.988809
0.98715
0.986934
0.987683
0.991057
0.994824
0.997137
0.998464
0.999188
0.999569
0.999759
0.999842
0.999867
0.999866
0.999839
0.999683
0.998992
0.996199
0.985413
0.945131
0.803508
0.589767
0.413264
0.277603
0.178999
0.110893
0.0660196
0.0377965
0.0207763
0.0110351
0.00552771
0.743345
0.700352
0.648044
0.584105
0.508932
0.471169
0.443531
0.399943
0.346264
0.322551
0.308878
0.303821
0.303904
0.319033
0.351085
0.384661
0.425403
0.463059
0.478511
0.486554
0.494175
0.503203
0.516905
0.533902
0.557029
0.572224
0.582941
0.598589
0.616324
0.645921
0.700953
0.767879
0.797856
0.811758
0.818498
0.822595
0.82834
0.830955
0.831
0.828466
0.823078
0.819168
0.813547
0.804301
0.789262
0.764033
0.730519
0.711332
0.708133
0.707483
0.708406
0.713189
0.726415
0.740535
0.742684
0.736125
0.700839
0.619664
0.502557
0.386717
0.319988
0.286728
0.256845
0.227866
0.21378
0.205693
0.200623
0.202634
0.213196
0.233193
0.269742
0.321879
0.382789
0.466099
0.556215
0.615143
0.64311
0.682518
0.801899
0.883322
0.915499
0.927131
0.932661
0.937057
0.940275
0.942731
0.946053
0.95152
0.959111
0.967437
0.974946
0.980814
0.984948
0.987589
0.988087
0.985857
0.978994
0.968916
0.958573
0.949517
0.938413
0.920041
0.896004
0.877965
0.876934
0.89108
0.912467
0.927984
0.928836
0.907054
0.869436
0.863241
0.887694
0.937413
0.973122
0.989002
0.995242
0.997651
0.998504
0.998633
0.998502
0.997923
0.99765
0.997735
0.998174
0.998301
0.998191
0.997431
0.996455
0.995962
0.995389
0.993934
0.990903
0.988624
0.987578
0.987403
0.987794
0.990287
0.994312
0.996937
0.998443
0.999231
0.999615
0.999777
0.999826
0.999828
0.999797
0.999621
0.998843
0.996406
0.994406
0.993661
0.993617
0.994006
0.995715
0.997551
0.998662
0.999292
0.999633
0.999808
0.999891
0.999922
0.999927
0.99992
0.999867
0.999618
0.998579
0.994492
0.978976
0.921692
0.744852
0.539461
0.374333
0.248898
0.158749
0.0971628
0.05712
0.0322111
0.0175375
0.00901429
0.743733
0.703095
0.655893
0.608703
0.530103
0.485787
0.461194
0.428979
0.384042
0.358687
0.349654
0.347171
0.349984
0.370142
0.398171
0.421635
0.451111
0.469899
0.478008
0.485851
0.496429
0.509001
0.52602
0.545506
0.56238
0.575873
0.58998
0.617085
0.659462
0.729731
0.778197
0.801089
0.811693
0.816833
0.819353
0.821756
0.824036
0.821509
0.8163
0.810953
0.807036
0.803475
0.797163
0.787625
0.773782
0.755264
0.731105
0.704324
0.690445
0.688655
0.692992
0.700087
0.71104
0.726699
0.733084
0.73079
0.714652
0.66966
0.577261
0.444333
0.352607
0.305219
0.276147
0.248093
0.228375
0.216596
0.211053
0.213723
0.222323
0.24094
0.275965
0.319446
0.376544
0.456865
0.545901
0.608084
0.636251
0.657335
0.716096
0.840285
0.903114
0.920015
0.920479
0.91347
0.904432
0.897674
0.894761
0.898369
0.910399
0.930703
0.951897
0.969599
0.981536
0.988455
0.992261
0.99432
0.995123
0.994653
0.992825
0.991172
0.989653
0.987177
0.9819
0.968521
0.945642
0.93309
0.936804
0.957476
0.968845
0.9696
0.958975
0.919415
0.90567
0.918173
0.955219
0.981166
0.992702
0.997152
0.998739
0.999229
0.999289
0.999196
0.998894
0.998786
0.99883
0.999012
0.999051
0.998994
0.998718
0.998501
0.998387
0.998193
0.997696
0.996162
0.994517
0.993614
0.993345
0.993463
0.994575
0.99681
0.998295
0.999149
0.999595
0.999811
0.999905
0.999936
0.999939
0.999922
0.999808
0.999258
0.997979
0.997243
0.997062
0.997107
0.997482
0.998411
0.999088
0.999498
0.999733
0.99986
0.999925
0.999953
0.999961
0.999959
0.999942
0.999853
0.999468
0.997921
0.991962
0.969652
0.887909
0.683984
0.490403
0.336096
0.220524
0.138625
0.0835866
0.0482909
0.0269102
0.0141648
0.746105
0.70974
0.669465
0.627344
0.555239
0.506765
0.472618
0.453277
0.432004
0.411169
0.403162
0.400744
0.401599
0.413535
0.431897
0.445003
0.462569
0.476572
0.482771
0.492874
0.508232
0.52346
0.540686
0.559543
0.576337
0.596922
0.631193
0.694421
0.75962
0.790242
0.805828
0.81283
0.815931
0.817342
0.817901
0.816327
0.812083
0.805365
0.798583
0.79411
0.79135
0.788318
0.783824
0.777459
0.769008
0.755827
0.734527
0.70745
0.687888
0.674781
0.667082
0.66718
0.675399
0.692971
0.714327
0.720299
0.714473
0.698392
0.660254
0.58059
0.460166
0.364104
0.316989
0.284866
0.261356
0.245434
0.238798
0.24216
0.253127
0.278804
0.317007
0.355708
0.414085
0.488169
0.558539
0.609572
0.636385
0.653483
0.677872
0.756665
0.864076
0.897797
0.891896
0.871993
0.862475
0.857545
0.854359
0.852197
0.851808
0.858972
0.882696
0.922398
0.954803
0.975852
0.987739
0.993642
0.996294
0.997566
0.998184
0.998354
0.998321
0.998114
0.997636
0.996499
0.993166
0.984893
0.977639
0.976898
0.984348
0.988359
0.987689
0.978629
0.948547
0.93838
0.946197
0.971718
0.988482
0.995769
0.998483
0.99938
0.999623
0.999643
0.999578
0.999453
0.999421
0.999443
0.999513
0.999527
0.999516
0.999478
0.999453
0.99941
0.999306
0.998978
0.998108
0.997321
0.996845
0.99668
0.996717
0.997227
0.998386
0.999154
0.999586
0.999808
0.999915
0.99996
0.999974
0.999974
0.999958
0.99986
0.99944
0.998978
0.998812
0.998806
0.998886
0.999206
0.999533
0.999734
0.999853
0.999921
0.999957
0.999975
0.99998
0.99998
0.999975
0.999943
0.999802
0.999222
0.996953
0.988328
0.956358
0.840115
0.626374
0.44247
0.298544
0.192637
0.119044
0.0703948
0.0401055
0.0215883
0.750182
0.715012
0.675565
0.650787
0.611969
0.557707
0.508473
0.477299
0.455068
0.442447
0.436953
0.435468
0.437035
0.447344
0.459292
0.467919
0.482066
0.494798
0.501825
0.517523
0.536134
0.55216
0.573849
0.599906
0.632025
0.686078
0.747088
0.782376
0.802111
0.811607
0.816062
0.817804
0.818289
0.818305
0.817256
0.814344
0.809037
0.801737
0.794429
0.789145
0.785639
0.78247
0.779052
0.775084
0.769527
0.759828
0.745865
0.723987
0.69709
0.678226
0.665324
0.655442
0.649519
0.650421
0.660164
0.679107
0.697362
0.693722
0.681818
0.656982
0.605577
0.531344
0.451907
0.38749
0.348724
0.318877
0.312135
0.31695
0.33019
0.358981
0.390161
0.415781
0.464863
0.536581
0.595252
0.636378
0.657227
0.663525
0.673947
0.700299
0.788977
0.857129
0.86473
0.858048
0.852897
0.850496
0.848503
0.845729
0.841133
0.836751
0.837848
0.851399
0.899855
0.943768
0.971187
0.986339
0.993843
0.997159
0.998534
0.999176
0.999506
0.999645
0.999675
0.999642
0.999459
0.998741
0.996921
0.996035
0.996128
0.99662
0.996519
0.995112
0.985832
0.96683
0.962146
0.967995
0.984368
0.993841
0.997843
0.999273
0.999716
0.999822
0.999828
0.999795
0.999759
0.999753
0.999763
0.999787
0.999797
0.999801
0.999801
0.999797
0.999775
0.999697
0.999441
0.999079
0.998776
0.998579
0.998513
0.998531
0.998753
0.999275
0.999626
0.999821
0.99992
0.999966
0.999984
0.999989
0.999987
0.999971
0.999877
0.999687
0.999601
0.999591
0.99961
0.999705
0.999825
0.999899
0.999942
0.999968
0.999982
0.999989
0.999991
0.999992
0.99999
0.999978
0.999927
0.999711
0.998852
0.995531
0.983019
0.936921
0.781469
0.568601
0.394473
0.261226
0.165384
0.100047
0.0582355
0.0320307
0.755762
0.724613
0.684839
0.668413
0.647001
0.624422
0.589723
0.548617
0.522392
0.501082
0.491278
0.487419
0.486839
0.493061
0.504542
0.513734
0.527118
0.541236
0.558512
0.58187
0.607499
0.636627
0.675918
0.714623
0.75165
0.783394
0.798642
0.809935
0.815945
0.818695
0.819888
0.82028
0.820331
0.820013
0.81829
0.815189
0.810297
0.803478
0.796272
0.790534
0.786429
0.782935
0.779541
0.775909
0.771647
0.765711
0.756566
0.745416
0.729356
0.704575
0.680557
0.663268
0.651191
0.643403
0.638656
0.639332
0.644805
0.655461
0.662195
0.655383
0.639854
0.613415
0.571528
0.534878
0.488585
0.462516
0.446887
0.443058
0.446115
0.45355
0.466511
0.487044
0.533883
0.598715
0.643721
0.665847
0.681698
0.690045
0.691573
0.696098
0.717946
0.78591
0.835043
0.84845
0.849881
0.849299
0.848287
0.846263
0.841594
0.832904
0.826754
0.827072
0.842742
0.900751
0.946803
0.973372
0.987584
0.994582
0.997735
0.999037
0.999562
0.999791
0.999898
0.99994
0.999946
0.999925
0.999783
0.999575
0.999479
0.99942
0.999311
0.99897
0.997327
0.989281
0.980037
0.978575
0.983096
0.992415
0.997127
0.999031
0.999683
0.999874
0.999916
0.999918
0.999911
0.999906
0.999906
0.99991
0.999915
0.999919
0.99992
0.99992
0.999915
0.999893
0.999817
0.999704
0.999591
0.999492
0.999432
0.999418
0.999437
0.999559
0.999749
0.99987
0.999938
0.999973
0.999989
0.999994
0.999995
0.999993
0.999976
0.99992
0.999886
0.99988
0.999884
0.999909
0.999945
0.999968
0.999981
0.999989
0.999994
0.999996
0.999997
0.999997
0.999996
0.999992
0.999973
0.999891
0.999562
0.99827
0.993313
0.974728
0.906451
0.712411
0.508195
0.345518
0.22411
0.138655
0.0824171
0.0462912
0.7617
0.740922
0.694587
0.674505
0.661066
0.650672
0.638593
0.627952
0.618016
0.608899
0.603411
0.600265
0.599299
0.605194
0.614296
0.627736
0.643101
0.663364
0.690868
0.709074
0.728064
0.749674
0.769998
0.787046
0.800253
0.808953
0.813068
0.817171
0.819532
0.820484
0.820929
0.82109
0.821118
0.821036
0.820483
0.818743
0.815698
0.811215
0.805604
0.799934
0.794484
0.789422
0.785044
0.780984
0.777087
0.773048
0.768409
0.763441
0.756722
0.746516
0.729559
0.705963