/*--------------------------------*- C++ -*----------------------------------*\
| =========                 |                                                 |
| \\      /  F ield         | OpenFOAM: The Open Source CFD Toolbox           |
|  \\    /   O peration     | Version:  2112                                  |
|   \\  /    A nd           | Website:  www.openfoam.com                      |
|    \\/     M anipulation  |                                                 |
\*---------------------------------------------------------------------------*/
FoamFile
{
    version     2.0;
    format      ascii;
    arch        "LSB;label=32;scalar=64";
    class       volScalarField;
    location    "0.25";
    object      omega;
}
// * * * * * * * * * * * * * * * * * * * * * * * * * * * * * * * * * * * * * //

dimensions      [0 0 -1 0 0 0 0];

internalField   nonuniform List<scalar> 
12225
(
37527.3
40233
41980.6
42972.3
43468.5
43638.7
43610.4
43518.3
43339.9
43118.8
42906.2
42667.5
42472.1
42238.8
42082.8
41859.8
41749.6
41517.7
2590.09
6031.26
8562.81
10432
11777.7
12738.3
13397.5
13863.8
14196.1
14421.1
14586.4
14692.8
14774.9
14836.3
14842.4
14907
14899.7
14997.6
353.383
924.388
1440.16
1916.14
2328.81
2709.21
3024.79
3315.86
3545.83
3771.74
3935.27
4111.31
4229.24
4364.24
4449.52
4544.77
4619.9
4767.34
119.903
272.423
419.97
564.921
695.513
825.504
937.955
1051.53
1143.35
1242.87
1316.49
1401.86
1462.07
1534.81
1577.78
1645.31
1698.86
1735.55
66.3225
127.374
187.004
246.743
301.508
356.811
405.928
456.179
498.433
544.213
580.011
620.896
651.568
687.611
711.377
747.959
770.789
793.861
48.3338
78.7044
108.546
138.634
166.68
194.811
220.424
246.25
268.951
292.717
312.567
334.178
351.509
371.062
385.234
405.348
416.49
432.354
42.5791
57.9492
74.9528
92.1041
108.366
124.526
139.554
154.449
168.021
181.744
193.858
206.417
217.149
228.646
237.787
249.342
255.785
266.888
40.7426
48.2814
58.4283
68.8826
79.0203
89.0628
98.5693
107.888
116.592
125.187
133.069
140.952
148.024
155.267
161.466
168.461
173.151
180.326
40.0942
43.663
49.6569
56.2016
62.7583
69.2973
75.5935
81.7448
87.5901
93.2918
98.6465
103.89
108.748
113.57
117.907
122.447
125.983
130.693
39.8297
41.4791
44.8364
48.9279
53.2114
57.5618
61.8325
66.0236
70.0614
73.9874
77.7304
81.3618
84.7926
88.1376
91.2427
94.3559
97.013
100.219
39.7089
40.4588
42.1973
44.6863
47.4489
50.3432
53.2554
56.1481
58.9744
61.7328
64.3927
66.9699
69.4351
71.8214
74.0791
76.2932
78.286
80.5379
39.6565
40.0161
40.9223
42.441
44.2491
46.22
48.2604
50.3231
52.369
54.3828
56.3442
58.252
60.0924
61.8736
63.5773
65.234
66.7683
68.4374
39.63
39.7903
40.2279
41.0861
42.2138
43.5091
44.9004
46.3423
47.8005
49.255
50.6889
52.0942
53.4617
54.7904
56.0724
57.3164
58.4913
59.7376
39.616
39.6727
39.8524
40.2494
40.865
41.6248
42.4847
43.41
44.3731
45.3545
46.3393
47.3175
48.2808
49.2249
50.1446
51.0401
51.8996
52.7958
39.6078
39.62
39.6764
39.8188
40.093
40.4707
40.9314
41.4552
42.024
42.6232
43.2407
43.8673
44.4958
45.1209
45.7381
46.3448
46.9364
47.5475
39.6042
39.5974
39.6064
39.6426
39.7276
39.8758
40.0767
40.3237
40.609
40.9247
41.2635
41.6189
41.9856
42.3592
42.7358
43.1127
43.4872
43.8739
39.604
39.5884
39.5795
39.5821
39.5968
39.6327
39.6979
39.7885
39.9036
40.0407
40.1972
40.3701
40.5566
40.7538
40.9594
41.1712
41.3874
41.6127
39.604
39.5866
39.5722
39.5626
39.5616
39.5666
39.5814
39.6112
39.6562
39.7156
39.7889
39.8754
39.9739
40.083
40.2013
40.3276
40.4604
40.6001
39.6039
39.5872
39.5743
39.5706
39.5755
39.5915
39.6246
39.6759
39.7443
39.829
39.9288
40.0423
40.1678
40.3037
40.4484
40.6001
40.7575
40.9164
39.6039
39.5966
39.6053
39.6393
39.7165
39.8478
40.024
40.2401
40.4901
40.7675
41.0663
41.3812
41.7077
42.0417
42.3801
42.7202
43.0597
43.3889
39.6102
39.6339
39.7208
39.9209
40.2583
40.6978
41.2181
41.7985
42.421
43.0708
43.7366
44.4092
45.0818
45.7491
46.4074
47.0535
47.6866
48.2866
39.6302
39.7855
40.1867
40.9423
41.9216
43.0516
44.2764
45.5537
46.8544
48.1572
49.4485
50.7177
51.9588
53.1667
54.3396
55.4734
56.5755
57.6005
39.7085
40.3657
41.806
43.8387
46.1486
48.5903
51.0835
53.5691
56.0202
58.4115
60.7365
62.9829
65.1533
67.2391
69.2503
71.1705
73.0416
74.7446
40.0218
42.3549
46.3993
51.0063
55.8296
60.6507
65.4084
70.0192
74.4936
78.7832
82.921
86.8671
90.6685
94.2761
97.7645
101.036
104.275
107.132
41.2492
48.5879
58.1064
67.9273
77.7232
87.1726
96.3651
105.09
113.535
121.489
129.192
136.4
143.414
149.912
156.32
162.116
168.065
173.061
46.1933
66.7
88.9422
110.646
131.826
151.755
171.141
189.107
206.675
222.738
238.601
252.877
267.213
279.816
292.847
303.836
315.857
325.212
65.9206
125.8
185.607
241.654
295.705
345.359
393.791
437.172
480.202
517.658
555.801
587.857
621.748
648.982
679.276
702.177
729.528
748.591
166.891
402.776
620.407
816.832
1000.94
1164.72
1319.88
1453.03
1582.07
1688.41
1795.81
1879.76
1969.89
2035.79
2112.28
2163.57
2229.29
2269.01
1158.11
2665.3
3852.31
4825.03
5631.77
6285.68
6819.86
7243.57
7590.18
7861.6
8088.47
8260.18
8415.24
8522.93
8633.15
8696.89
8782.28
8811.91
23121.7
24533.2
25613.9
26401.8
26955.7
27332.7
27578.8
27730.5
27813.4
27848.8
27843.6
27826.4
27788.1
27738.3
27681.5
27620.4
27557.3
27493.5
11463.7
2517.51
2522.6
2527.19
2531.05
2534.31
2537.27
2540.31
2543.58
2547.17
2550.85
2554.19
2556.95
2559.17
2561.03
2562.08
2561.29
2561.83
2562.46
2562.52
2562.93
2564.86
2567.64
2570.85
2574.09
2577.29
2580.83
2585.42
2592.05
2600.55
2607.81
2610.56
2611.04
2610.94
2612.8
2612.63
2615.93
2622.3
2633.05
2704.72
2844.24
2967.53
3072.74
3165.14
3248.2
3324.3
3394.99
3461.49
3524.67
3585.23
3643.83
3700.97
3757.11
3812.66
3867.95
3923.31
3979.1
4035.63
4093.3
4152.51
4212.11
4271.24
4330.55
4389.61
4448.71
4507.63
4566.5
4625.19
4683.73
4742.05
4800.15
4857.96
4915.47
4972.62
5029.4
5085.76
5141.68
5197.11
5252.04
5306.42
5360.25
5413.48
5466.09
5518.05
5569.34
5619.94
5669.81
5718.93
5767.26
5814.78
5861.46
5907.26
5952.15
5996.1
6039.07
6081.04
6121.99
6161.93
6200.87
6238.89
6276.13
6312.87
6348.68
6383.5
6417.39
6450.25
6482.14
6512.98
6542.81
6571.58
6599.29
6625.93
6651.48
6675.94
6699.3
6721.55
6742.68
6762.7
6781.6
6799.37
6816.03
6831.57
6846.01
6859.34
6871.59
6882.77
6892.94
6902.38
6910.28
6917.31
6923.2
6927.48
6930.61
6932.52
6933.37
6933.33
6932.36
6930.09
6926.94
6922.75
6917.63
6911.57
6904.62
6896.77
6888.08
6878.56
6868.24
6857.15
6845.34
6832.8
6819.56
6805.64
6791.07
6775.9
6760.19
6743.98
6727.35
6710.35
6693.04
6675.46
6657.65
6639.65
6621.46
6603.11
6584.62
6566.03
6547.38
6528.73
6510.12
6491.57
6473.09
6454.61
6436.04
6417.29
6397.64
6378.15
6352.66
6337.13
6316.75
6229.68
11464.9
2058.45
1198.58
1038.45
884.423
696.779
572.404
570.037
587.732
598.703
609.353
613.656
613.33
612.496
613.093
616.883
626.917
667.624
758.488
877.458
970.846
1016.66
1013.72
982.249
890.24
696.414
571.743
501.497
490.049
501.475
531.011
564.922
590.24
661.65
851.834
1284.78
1797.85
1983.53
2041.56
2064.7
2066.91
2021.25
1976.69
1924.03
1877.66
1827.54
1786.14
1750.11
1722.7
1701.26
1686.07
1675.74
1670.22
1667.61
1666.76
1669.02
1673.31
1679.11
1686.22
1694.28
1702.99
1712.14
1721.61
1731.25
1741.01
1750.77
1760.52
1770.19
1779.76
1789.21
1798.53
1807.71
1816.74
1825.64
1834.4
1843.02
1851.51
1859.88
1868.13
1876.27
1884.28
1892.18
1899.97
1907.63
1915.18
1922.6
1929.89
1937.05
1944.08
1950.98
1957.73
1964.35
1970.85
1977.23
1983.52
1989.75
1995.98
2002.29
2008.82
2015.75
2023.34
2032.37
2040.77
2049.14
2057.19
2065.05
2072.66
2080.05
2087.2
2094.11
2100.79
2107.23
2113.43
2119.39
2125.11
2130.6
2135.84
2140.85
2145.63
2150.17
2154.49
2158.57
2162.43
2166.07
2169.49
2172.69
2175.68
2178.43
2180.87
2183
2184.61
2185.36
2185.85
2186.09
2186.07
2185.89
2185.49
2184.83
2183.95
2182.84
2181.51
2179.97
2178.22
2176.26
2174.11
2171.77
2169.25
2166.57
2163.66
2160.56
2157.3
2153.88
2150.31
2146.61
2142.77
2138.82
2134.76
2130.6
2126.35
2122.02
2117.61
2113.13
2108.58
2103.98
2099.33
2094.65
2089.93
2085.2
2080.47
2075.74
2071.03
2066.36
2061.73
2057.16
2052.71
2048.68
2044.5
2043.09
2043.39
2056.88
11464
2518.03
1116.43
748.433
591.631
520.12
525.069
552.324
560.448
554.613
538.863
515.166
491.543
470.904
454.074
442.465
433.872
434.317
440.374
456.614
487.803
523.036
554.37
564.434
553.896
520.758
462.582
422.283
427.08
453.448
509.926
639.249
854.204
1133.46
1289.76
1390.51
1445.53
1435.87
1406.36
1381.21
1338.79
1289.72
1240.62
1194.37
1157.71
1127.83
1106.31
1090.03
1078.99
1071.46
1067.53
1065.71
1065.2
1066.25
1068.65
1071.94
1075.93
1080.43
1085.32
1090.49
1095.83
1101.29
1106.8
1112.34
1117.88
1123.38
1128.83
1134.23
1139.57
1144.85
1150.06
1155.2
1160.29
1165.32
1170.29
1175.22
1180.09
1184.92
1189.7
1194.43
1199.12
1203.76
1208.36
1212.9
1217.4
1221.84
1226.23
1230.56
1234.84
1239.07
1243.25
1247.38
1251.47
1255.53
1259.57
1263.61
1267.67
1271.78
1275.96
1280.25
1284.66
1289.11
1293.35
1297.51
1301.52
1305.41
1309.18
1312.81
1316.31
1319.68
1322.92
1326.02
1328.99
1331.83
1334.53
1337.1
1339.54
1341.84
1344
1346.03
1347.93
1349.7
1351.33
1352.82
1354.19
1355.41
1356.5
1357.42
1358.18
1358.74
1359.08
1359.18
1359.16
1359.05
1358.8
1358.4
1357.87
1357.23
1356.46
1355.56
1354.54
1353.41
1352.16
1350.79
1349.31
1347.73
1346.04
1344.24
1342.33
1340.32
1338.22
1336.03
1333.76
1331.41
1328.98
1326.48
1323.92
1321.3
1318.61
1315.87
1313.07
1310.23
1307.34
1304.41
1301.45
1298.46
1295.45
1292.42
1289.37
1286.33
1283.29
1280.29
1277.35
1274.51
1271.84
1269.53
1267.51
1267.23
1268.87
1280.53
11463.3
2282.14
1000.98
711.224
685.968
716.289
709.416
674.324
619.403
565.996
514.14
468.975
432.639
404.631
383.615
368.349
358.053
351.59
351.232
353.62
360.521
374.069
390.455
404.658
411.207
413.228
427.618
484.904
603.228
749.838
916.376
1035.46
1095.25
1142.69
1173.96
1152.51
1099.37
1079.95
1046.77
1015.66
976.366
941.125
910.916
887.362
869.805
856.851
848.003
842.054
838.889
837.485
837.148
837.991
839.806
842.313
845.364
848.802
852.534
856.48
860.575
864.767
869.019
873.301
877.59
881.871
886.133
890.368
894.573
898.747
902.889
907.002
911.086
915.146
919.183
923.2
927.199
931.181
935.147
939.097
943.031
946.947
950.843
954.718
958.57
962.397
966.197
969.968
973.708
977.417
981.093
984.737
988.348
991.928
995.479
999.004
1002.51
1005.99
1009.46
1012.92
1016.36
1019.79
1023.19
1026.51
1029.72
1032.85
1035.87
1038.79
1041.61
1044.33
1046.95
1049.46
1051.87
1054.16
1056.35
1058.43
1060.4
1062.26
1064.01
1065.65
1067.17
1068.58
1069.88
1071.07
1072.14
1073.09
1073.93
1074.65
1075.24
1075.7
1076.03
1076.21
1076.25
1076.16
1075.96
1075.66
1075.24
1074.71
1074.08
1073.35
1072.5
1071.55
1070.5
1069.35
1068.11
1066.76
1065.32
1063.79
1062.17
1060.46
1058.65
1056.77
1054.81
1052.77
1050.67
1048.5
1046.26
1043.96
1041.61
1039.19
1036.73
1034.22
1031.65
1029.05
1026.41
1023.74
1021.03
1018.3
1015.55
1012.78
1010
1007.21
1004.43
1001.68
998.993
996.402
993.962
991.827
990.024
989.425
990.463
997.252
11463.4
2004.79
988.695
1013.44
986.301
894.752
774.99
664.239
564.594
481.838
419.889
376.522
346.656
326.118
312.395
303.83
299.147
298.572
300.121
304.354
312.357
324.275
338.99
356.683
384.557
439.442
549.725
704.374
862.611
957.33
991.212
1005
1009.38
979.307
930.705
909.248
880.377
860.272
831.589
805.39
779.69
759.813
744.143
732.718
724.648
719.269
716.323
715.036
714.749
715.52
717.149
719.414
722.17
725.289
728.681
732.27
736.004
739.836
743.735
747.672
751.63
755.593
759.554
763.505
767.444
771.371
775.285
779.189
783.085
786.976
790.866
794.757
798.65
802.547
806.449
810.355
814.265
818.176
822.086
825.993
829.894
833.784
837.662
841.524
845.366
849.187
852.984
856.753
860.494
864.205
867.883
871.527
875.137
878.711
882.248
885.748
889.207
892.621
895.984
899.285
902.517
905.665
908.723
911.692
914.568
917.351
920.038
922.626
925.114
927.501
929.784
931.962
934.034
935.998
937.852
939.596
941.229
942.749
944.157
945.451
946.629
947.692
948.637
949.464
950.171
950.755
951.216
951.549
951.752
951.813
951.773
951.6
951.315
950.918
950.407
949.788
949.06
948.224
947.281
946.232
945.08
943.827
942.473
941.022
939.476
937.835
936.103
934.281
932.372
930.38
928.311
926.169
923.956
921.675
919.329
916.921
914.455
911.933
909.358
906.734
904.065
901.355
898.609
895.832
893.025
890.193
887.338
884.467
881.586
878.705
875.842
873.009
870.229
867.539
864.985
862.681
860.681
859.52
859.705
863.017
11463.8
2204.43
1587.34
1329.98
1072.71
837.304
643.942
504.389
413.684
357.439
322.377
299.62
284.539
274.598
268.523
265.461
265.484
267.224
271.645
279.059
289.622
305.863
330.75
368.702
438.286
567.85
725.136
854.509
911.797
926.979
913.879
862.304
825.742
799.164
775.282
758.245
737.539
718.447
697.419
679.841
665.097
654.192
646.157
640.71
637.496
636.035
635.655
636.248
637.746
639.907
642.585
645.652
649.013
652.591
656.33
660.182
664.115
668.101
672.121
676.16
680.209
684.261
688.315
692.368
696.423
700.481
704.546
708.621
712.709
716.815
720.941
725.088
729.258
733.451
737.666
741.9
746.152
750.418
754.692
758.971
763.249
767.522
771.785
776.034
780.265
784.474
788.656
792.81
796.931
801.016
805.062
809.066
813.025
816.936
820.796
824.602
828.351
832.035
835.65
839.184
842.637
846.003
849.277
852.457
855.541
858.526
861.409
864.187
866.859
869.422
871.873
874.211
876.433
878.538
880.524
882.389
884.132
885.752
887.247
888.617
889.861
890.977
891.963
892.818
893.542
894.133
894.589
894.91
895.081
895.123
895.05
894.838
894.499
894.036
893.449
892.74
891.911
890.964
889.9
888.72
887.427
886.022
884.508
882.888
881.163
879.336
877.41
875.387
873.271
871.066
868.778
866.41
863.967
861.45
858.863
856.21
853.494
850.719
847.89
845.01
842.083
839.114
836.11
833.073
830.008
826.917
823.804
820.675
817.538
814.401
811.279
808.187
805.144
802.182
799.341
796.709
794.339
792.589
791.812
792.868
11463.8
3175.25
1945.2
1357.41
913.609
620.187
461.87
376.694
328.118
298.367
279.269
266.555
257.993
252.485
249.396
248.743
250.009
253.673
260.837
272.109
288.879
313.054
355.226
433.789
562.127
700.623
803.315
847.226
856.379
807.397
753.84
724.915
703.281
686.01
670.205
655.449
639.437
624.429
610.605
599.697
591.298
585.362
581.435
579.472
578.794
578.954
580.165
582.117
584.675
587.701
591.087
594.747
598.613
602.633
606.765
610.977
615.247
619.556
623.893
628.249
632.62
637.004
641.401
645.814
650.246
654.701
659.183
663.696
668.244
672.831
677.456
682.123
686.83
691.575
696.357
701.17
706.012
710.875
715.753
720.639
725.527
730.409
735.28
740.134
744.966
749.77
754.542
759.277
763.972
768.622
773.222
777.768
782.256
786.683
791.044
795.335
799.555
803.697
807.759
811.738
815.627
819.418
823.109
826.695
830.174
833.541
836.795
839.93
842.946
845.837
848.603
851.24
853.745
856.118
858.355
860.454
862.413
864.231
865.905
867.43
868.81
870.045
871.134
872.075
872.869
873.513
874.007
874.351
874.527
874.571
874.479
874.236
873.85
873.323
872.658
871.856
870.917
869.837
868.622
867.277
865.804
864.206
862.485
860.645
858.689
856.619
854.438
852.151
849.76
847.27
844.688
842.019
839.266
836.431
833.52
830.536
827.484
824.369
821.197
817.97
814.694
811.375
808.018
804.629
801.21
797.765
794.299
790.818
787.329
783.842
780.371
776.928
773.532
770.21
766.996
763.958
761.137
758.775
757.059
756.449
11464.9
3815.6
1960.22
1074.32
638.683
454.501
367.02
320.096
292.425
274.729
262.87
254.662
249.025
245.452
244.001
244.723
247.806
253.897
263.371
278.417
303.198
347.159
426.958
544.376
664.827
746.648
781.204
783.335
724.262
677.856
650.697
633.543
619.154
606.521
594.294
582.217
570.291
559.703
550.894
544.246
539.503
536.584
535.24
534.917
535.539
537.039
539.279
542.101
545.392
549.053
553.004
557.18
561.529
566.009
570.59
575.247
579.963
584.726
589.526
594.36
599.224
604.121
609.051
614.019
619.027
624.081
629.185
634.342
639.557
644.83
650.163
655.553
660.998
666.495
672.039
677.623
683.242
688.889
694.552
700.224
705.894
711.555
717.2
722.82
728.41
733.962
739.471
744.932
750.341
755.692
760.979
766.198
771.342
776.408
781.391
786.289
791.097
795.813
800.438
804.964
809.382
813.684
817.867
821.928
825.862
829.666
833.337
836.872
840.266
843.517
846.622
849.578
852.384
855.035
857.532
859.87
862.049
864.066
865.919
867.61
869.135
870.494
871.687
872.713
873.571
874.261
874.781
875.13
875.292
875.314
875.171
874.862
874.391
873.762
872.976
872.035
870.941
869.697
868.305
866.768
865.088
863.269
861.315
859.228
857.013
854.672
852.21
849.63
846.937
844.135
841.231
838.231
835.139
831.958
828.693
825.35
821.934
818.451
814.906
811.303
807.648
803.948
800.208
796.434
792.629
788.798
784.947
781.081
777.209
773.341
769.488
765.664
761.887
758.176
754.546
751.046
747.727
744.756
742.227
740.239
11478.9
3866.05
1531.98
752.761
490.46
381.964
328.721
298.833
280.31
267.825
258.766
252.356
248.154
246.003
245.759
247.659
252.276
260.822
275.579
300.803
345.491
421.75
523.021
624.334
688.826
716.443
708.401
660.189
619.492
594.825
579.416
567.681
557.162
547.317
537.692
528.411
519.893
512.739
507.172
503.219
500.862
499.865
499.726
500.544
502.2
504.568
507.536
510.997
514.864
519.059
523.521
528.197
533.045
538.032
543.131
548.325
553.597
558.939
564.343
569.806
575.327
580.908
586.549
592.256
598.03
603.876
609.795
615.792
621.868
628.025
634.259
640.564
646.936
653.367
659.849
666.373
672.933
679.524
686.128
692.735
699.333
705.913
712.465
718.983
725.457
731.88
738.243
744.54
750.758
756.897
762.959
768.937
774.827
780.622
786.319
791.912
797.397
802.772
808.03
813.163
818.167
823.036
827.765
832.35
836.789
841.077
845.21
849.185
852.997
856.644
860.121
863.427
866.559
869.514
872.291
874.886
877.298
879.525
881.565
883.418
885.082
886.557
887.843
888.939
889.845
890.56
891.085
891.41
891.537
891.5
891.274
890.861
890.267
889.495
888.546
887.423
886.128
884.664
883.035
881.243
879.292
877.187
874.93
872.526
869.979
867.294
864.475
861.525
858.451
855.256
851.949
848.536
845.022
841.412
837.71
833.924
830.06
826.124
822.123
818.06
813.943
809.776
805.569
801.326
797.051
792.75
788.429
784.096
779.758
775.427
771.112
766.828
762.589
758.414
754.326
750.365
746.56
743.034
739.829
736.768
11505.6
3252.03
1123.02
597.676
425.526
352.324
314.917
292.775
277.922
267.708
260.632
255.749
252.737
251.599
252.699
256.806
265.066
279.862
306.144
350.799
418.799
502.888
583.466
634.064
656.618
643.514
607.346
572.908
550.477
536.499
526.323
517.635
509.547
501.824
494.422
487.58
481.643
476.909
473.467
471.418
470.585
470.528
471.385
473.06
475.45
478.459
482.001
485.998
490.381
495.088
500.069
505.28
510.687
516.262
521.982
527.832
533.8
539.875
546.05
552.321
558.686
565.146
571.705
578.363
585.118
591.973
598.925
605.975
613.123
620.381
627.725
635.148
642.642
650.194
657.791
665.415
673.045
680.648
688.258
695.87
703.47
711.045
718.587
726.085
733.532
740.917
748.23
755.466
762.621
769.688
776.65
783.501
790.233
796.842
803.322
809.669
815.879
821.947
827.868
833.64
839.256
844.714
850.007
855.131
860.084
864.86
869.457
873.87
878.095
882.127
885.965
889.604
893.043
896.279
899.31
902.135
904.75
907.154
909.345
911.323
913.086
914.636
915.97
917.091
917.997
918.689
919.167
919.416
919.461
919.305
918.938
918.366
917.59
916.615
915.443
914.076
912.519
910.774
908.845
906.736
904.451
901.995
899.372
896.587
893.645
890.552
887.311
883.929
880.41
876.759
872.986
869.097
865.098
860.995
856.795
852.505
848.132
843.685
839.168
834.587
829.948
825.257
820.524
815.753
810.95
806.121
801.274
796.417
791.56
786.71
781.88
777.082
772.33
767.64
763.032
758.539
754.184
750.059
746.178
742.129
11527.5
2630.87
905.925
524.909
397.891
342.015
311.832
293.696
282.07
273.959
268.171
264.418
262.841
263.486
267.55
276.375
292.035
318.1
358.845
416.139
483.107
544.008
583.791
602.145
588.072
561.168
534.006
514.213
501.451
492.433
485.039
478.349
472.036
466.052
460.49
455.562
451.496
448.445
446.555
445.772
445.726
446.536
448.145
450.477
453.457
457.017
461.089
465.614
470.536
475.808
481.387
487.236
493.325
499.63
506.133
512.822
519.686
526.715
533.896
541.22
548.68
556.276
564.016
571.903
579.919
588.059
596.317
604.68
613.122
621.578
630.12
638.751
647.459
656.233
665.048
673.89
682.75
691.631
700.503
709.358
718.172
726.93
735.625
744.25
752.796
761.249
769.599
777.833
785.944
793.924
801.768
809.471
817.025
824.425
831.666
838.743
845.655
852.396
858.964
865.353
871.56
877.578
883.403
889.029
894.455
899.676
904.688
909.488
914.07
918.432
922.569
926.479
930.159
933.609
936.827
939.809
942.555
945.062
947.329
949.355
951.14
952.685
953.99
955.055
955.881
956.47
956.814
956.918
956.792
956.435
955.847
955.032
953.993
952.734
951.259
949.569
947.67
945.565
943.259
940.755
938.06
935.177
932.113
928.873
925.463
921.889
918.156
914.27
910.237
906.063
901.757
897.326
892.777
888.117
883.356
878.501
873.561
868.543
863.454
858.298
853.081
847.81
842.495
837.141
831.755
826.345
820.92
815.489
810.06
804.642
799.247
793.887
788.574
783.322
778.151
773.087
768.15
763.409
758.871
753.924
11541
2169.71
796.805
492.556
388.118
340.454
315.735
301.213
291.549
284.748
280.294
278.349
278.638
282.767
291.901
307.502
331.818
367.216
413.456
464.551
509.321
539.754
552.934
540.201
520.561
500.026
483.685
472.274
464.184
457.753
452.098
446.854
441.924
437.342
433.225
429.735
427.018
425.228
424.436
424.365
425.095
426.609
428.86
431.796
435.364
439.511
444.188
449.345
454.941
460.938
467.302
474
481.002
488.287
495.84
503.653
511.728
520.064
528.618
537.369
546.298
555.375
564.54
573.783
583.179
592.74
602.46
612.327
622.334
632.498
642.755
653.076
663.44
673.837
684.223
694.572
704.873
715.12
725.291
735.364
745.337
755.215
764.999
774.69
784.278
793.75
803.086
812.273
821.299
830.158
838.843
847.35
855.673
863.805
871.743
879.482
887.021
894.357
901.487
908.407
915.111
921.594
927.85
933.875
939.667
945.222
950.538
955.61
960.434
965.006
969.322
973.382
977.182
980.723
984.003
987.019
989.771
992.258
994.477
996.428
998.112
999.53
1000.68
1001.57
1002.2
1002.56
1002.67
1002.51
1002.09
1001.42
1000.5
999.335
997.925
996.277
994.393
992.278
989.937
987.374
984.594
981.602
978.404
975.005
971.412
967.63
963.668
959.53
955.224
950.758
946.136
941.365
936.454
931.41
926.243
920.962
915.577
910.097
904.53
898.883
893.164
887.377
881.528
875.625
869.674
863.684
857.664
851.623
845.572
839.519
833.473
827.442
821.437
815.469
809.551
803.696
797.923
792.253
786.703
781.328
776.143
770.36
11546.9
1940.26
749.774
480.265
386.612
345.516
324.872
312.757
304.691
299.218
296.646
296.424
300.219
309.052
323.658
345.09
374.143
409.575
446.646
478.299
500.591
508.781
499.195
484.779
469.94
457.215
447.559
440.384
434.711
429.826
425.374
421.229
417.386
413.913
410.915
408.516
406.846
406.058
405.97
406.656
408.126
410.36
413.335
417.018
421.365
426.33
431.87
437.945
444.52
451.571
459.108
467.06
475.397
484.101
493.156
502.534
512.165
521.996
532.113
542.512
553.174
564.079
575.233
586.631
598.234
610.028
621.994
634.101
646.328
658.673
671.038
683.364
695.6
707.689
719.623
731.393
743.002
754.452
765.75
776.894
787.884
798.732
809.455
820.069
830.565
840.923
851.115
861.119
870.92
880.507
889.874
899.022
907.946
916.641
925.103
933.328
941.315
949.062
956.568
963.828
970.838
977.592
984.083
990.31
996.269
1001.96
1007.38
1012.52
1017.39
1021.97
1026.27
1030.28
1034.01
1037.44
1040.59
1043.45
1046.02
1048.3
1050.29
1051.99
1053.39
1054.51
1055.34
1055.88
1056.15
1056.12
1055.83
1055.24
1054.38
1053.26
1051.86
1050.2
1048.28
1046.11
1043.69
1041.02
1038.11
1034.97
1031.6
1028.01
1024.2
1020.18
1015.95
1011.53
1006.92
1002.12
997.155
992.02
986.726
981.279
975.689
969.957
964.101
958.132
952.06
945.895
939.642
933.31
926.905
920.433
913.899
907.311
900.674
893.999
887.297
880.58
873.859
867.142
860.437
853.752
847.097
840.481
833.918
827.423
821.013
814.706
808.518
802.492
796.664
790.09
11549.1
1875.78
730.112
476.695
390.997
354.947
337.385
327.006
319.928
316.172
315.211
318.016
325.681
338.121
355.464
377.524
402.784
427.975
450.129
465.726
469.822
463.577
453.796
443.408
434.036
426.301
420.164
415.172
410.897
407.049
403.505
400.247
397.312
394.78
392.747
391.342
390.71
390.752
391.584
393.218
395.663
398.923
403.008
407.952
413.641
420.016
427.03
434.642
442.803
451.437
460.386
469.778
479.654
490.022
500.887
512.267
524.207
536.741
549.757
563.174
576.937
590.987
605.29
619.808
634.495
649.332
664.296
679.281
694.202
708.957
723.511
737.806
751.788
765.418
778.68
791.573
804.114
816.331
828.293
840.05
851.592
862.944
874.16
885.287
896.312
907.194
917.89
928.366
938.597
948.562
958.254
967.688
976.864
985.775
994.416
1002.78
1010.88
1018.69
1026.23
1033.49
1040.47
1047.16
1053.56
1059.65
1065.46
1070.96
1076.16
1081.06
1085.66
1089.95
1093.93
1097.6
1100.96
1104.01
1106.75
1109.17
1111.29
1113.11
1114.61
1115.8
1116.68
1117.26
1117.53
1117.5
1117.19
1116.56
1115.65
1114.45
1112.95
1111.18
1109.12
1106.79
1104.19
1101.33
1098.21
1094.84
1091.22
1087.35
1083.26
1078.93
1074.38
1069.61
1064.64
1059.46
1054.09
1048.54
1042.81
1036.91
1030.85
1024.64
1018.29
1011.8
1005.18
998.459
991.639
984.728
977.732
970.657
963.511
956.3
949.031
941.71
934.338
926.933
919.509
912.077
904.648
897.23
889.829
882.454
875.113
867.814
860.574
853.408
846.333
839.367
832.52
825.826
819.356
812.028
11549
1829.5
716.157
476.563
398.65
366.603
351.024
341.235
335.425
333.312
334.017
339.428
348.592
361.031
376.119
392.657
409.196
425.207
434.719
436.173
433.194
427.293
420.558
414.021
408.161
403.1
398.759
394.992
391.685
388.716
386.074
383.779
381.888
380.487
379.768
379.722
380.552
382.183
384.645
387.966
392.159
397.221
403.089
409.592
416.92
425.051
433.942
443.558
453.869
464.861
476.584
488.984
502.051
515.789
530.224
545.423
561.506
578.66
596.532
614.843
633.511
652.329
671.188
690.009
708.715
727.223
745.445
763.353
780.872
797.905
814.358
830.138
845.18
859.517
873.18
886.197
898.602
910.405
921.889
933.25
944.35
955.228
966.006
976.842
987.66
998.365
1008.88
1019.16
1029.16
1038.9
1048.37
1057.57
1066.49
1075.11
1083.42
1091.43
1099.13
1106.51
1113.6
1120.37
1126.84
1132.99
1138.82
1144.32
1149.5
1154.36
1158.9
1163.13
1167.03
1170.6
1173.84
1176.77
1179.36
1181.63
1183.58
1185.2
1186.5
1187.5
1188.17
1188.51
1188.53
1188.27
1187.67
1186.77
1185.56
1184.06
1182.26
1180.16
1177.77
1175.09
1172.13
1168.89
1165.38
1161.61
1157.58
1153.29
1148.75
1143.98
1138.96
1133.72
1128.26
1122.58
1116.7
1110.61
1104.34
1097.88
1091.25
1084.45
1077.51
1070.41
1063.19
1055.85
1048.42
1040.89
1033.26
1025.54
1017.75
1009.87
1001.93
993.933
985.878
977.779
969.631
961.46
953.281
945.104
936.936
928.785
920.658
912.563
904.507
896.496
888.554
880.696
872.938
865.295
857.776
850.404
843.293
835.248
11545.9
1792.13
707.823
479.845
406.62
376.621
361.793
352.491
347.957
346.549
347.977
353.149
360.567
369.592
379.977
391.31
401.931
406.827
407.455
406.649
403.737
399.831
395.678
391.657
387.961
384.681
381.858
379.536
377.795
376.57
375.838
375.58
375.818
376.651
378.121
380.153
382.726
386.151
390.542
395.962
402.457
410.077
418.915
429.184
440.796
453.4
466.901
481.261
496.467
512.531
529.487
547.316
565.977
585.43
605.679
626.852
649.121
672.375
695.91
719.337
742.514
765.427
788.008
810.179
831.864
853.003
873.534
893.406
912.557
930.91
948.369
964.786
980.047
994.344
1007.79
1020.45
1032.34
1043.54
1054.16
1064.24
1073.82
1083.09
1092.3
1102.02
1111.86
1121.59
1131.1
1140.34
1149.28
1157.94
1166.35
1174.48
1182.3
1189.8
1196.96
1203.78
1210.27
1216.42
1222.26
1227.77
1232.97
1237.83
1242.36
1246.55
1250.42
1253.95
1257.17
1260.07
1262.64
1264.89
1266.8
1268.41
1269.68
1270.64
1271.27
1271.6
1271.59
1271.32
1270.71
1269.78
1268.54
1267
1265.17
1263.03
1260.6
1257.88
1254.88
1251.59
1248.02
1244.17
1240.05
1235.66
1231.01
1226.11
1220.95
1215.56
1209.93
1204.07
1197.98
1191.68
1185.17
1178.45
1171.53
1164.42
1157.13
1149.67
1142.04
1134.27
1126.34
1118.28
1110.1
1101.83
1093.47
1085.02
1076.48
1067.85
1059.15
1050.38
1041.55
1032.66
1023.73
1014.76
1005.79
996.818
987.849
978.888
969.942
961.019
952.127
943.274
934.469
925.719
917.05
908.48
900.019
891.68
883.473
875.411
867.652
858.923
11540
1763.23
702.443
481.059
410.159
380.905
365.803
355.994
351.188
349.606
350.441
354.58
360.336
367.482
374.792
380.315
382.899
383.92
384.334
384.256
383.392
382.43
381.409
380.395
379.528
378.933
378.68
378.689
378.871
379.468
380.778
382.891
385.759
389.467
394.125
399.848
406.781
414.931
424.378
435.19
447.434
461.199
476.672
494.082
513.117
533.211
554.359
576.506
599.607
623.625
648.557
674.491
701.252
728.571
756.237
783.983
811.513
838.326
864.489
890.122
915.146
939.475
963.023
985.724
1007.53
1028.42
1048.35
1067.33
1085.34
1102.39
1118.46
1133.57
1147.59
1160.69
1173.02
1184.6
1195.45
1205.62
1215
1223.51
1231.44
1239.09
1246.79
1254.76
1262.62
1270.22
1277.52
1284.48
1291.1
1297.42
1303.45
1309.2
1314.64
1319.76
1324.56
1329.04
1333.19
1337.05
1340.61
1343.89
1346.88
1349.56
1351.96
1354.05
1355.84
1357.34
1358.56
1359.51
1360.17
1360.54
1360.6
1360.42
1359.94
1359.16
1358.11
1356.79
1355.19
1353.32
1351.18
1348.75
1346.04
1343.07
1339.83
1336.32
1332.56
1328.55
1324.27
1319.74
1314.96
1309.93
1304.65
1299.14
1293.39
1287.41
1281.21
1274.79
1268.15
1261.31
1254.26
1247.02
1239.58
1231.95
1224.15
1216.16
1208.02
1199.71
1191.25
1182.64
1173.9
1165.03
1156.03
1146.92
1137.72
1128.42
1119.02
1109.55
1099.99
1090.37
1080.69
1070.96
1061.19
1051.39
1041.6
1031.81
1022.04
1012.27
1002.52
992.795
983.112
973.477
963.911
954.438
945.062
935.794
926.644
917.626
908.746
900.016
891.624
882.276
11533.6
1741.28
698.571
479.498
409.574
380.103
364.037
353.851
348.916
347.296
347.791
350.961
354.925
359.27
363.588
367.667
371.365
374.658
377.679
380.336
382.49
383.854
384.964
386.246
387.888
390.039
392.813
396.295
400.716
406.234
413.034
421.247
430.682
441.455
453.741
467.666
483.337
500.766
520.007
541.087
564.009
588.756
615.256
643.158
672.114
702.409
733.982
766.547
799.843
833.623
867.709
902.073
936.071
969.426
1001.9
1033.26
1063.24
1091.6
1118.29
1143.35
1166.77
1188.61
1208.89
1227.7
1245.09
1261.15
1275.94
1289.54
1302.02
1313.46
1323.96
1333.76
1343.18
1352.14
1360.53
1368.29
1375.35
1381.59
1387.34
1392.71
1397.9
1403.36
1408.91
1413.73
1418.06
1421.97
1425.56
1428.85