/*--------------------------------*- C++ -*----------------------------------*\
| =========                 |                                                 |
| \\      /  F ield         | OpenFOAM: The Open Source CFD Toolbox           |
|  \\    /   O peration     | Version:  2112                                  |
|   \\  /    A nd           | Website:  www.openfoam.com                      |
|    \\/     M anipulation  |                                                 |
\*---------------------------------------------------------------------------*/
FoamFile
{
    version     2.0;
    format      ascii;
    arch        "LSB;label=32;scalar=64";
    class       volScalarField;
    location    "0.14";
    object      p_0;
}
// * * * * * * * * * * * * * * * * * * * * * * * * * * * * * * * * * * * * * //

dimensions      [0 2 -2 0 0 0 0];

internalField   nonuniform List<scalar> 
122250
(
1459.56
-290.42
-87.652
-325.093
-266.77
-229.803
-83.8364
17.5925
74.3131
92.8672
100.098
85.2644
77.5889
66.1768
52.5551
39.8179
32.5079
28.7587
1422.33
-315.853
-96.9126
-322.972
-272.635
-236.66
-92.7214
13.6983
68.6444
87.4667
97.9284
82.4016
74.5486
62.5684
48.8818
35.7528
27.0668
23.8729
1406.71
-360.266
-111.262
-323.222
-285.716
-250.457
-95.3807
13.8373
64.0466
84.0384
93.7176
77.6175
70.341
57.9679
42.6426
27.3297
15.8803
12.9423
1415.33
-431.126
-125.004
-332.19
-303.784
-262.666
-87.9241
16.6136
60.2187
83.4684
90.5436
74.262
69.0417
57.8338
41.012
24.6337
11.8226
7.75633
1420.78
-511.55
-127.36
-349.772
-328.911
-275.436
-101.322
8.41642
54.13
75.2356
87.3033
70.2279
67.9823
61.576
46.4265
29.7648
15.989
8.47178
1418.98
-585.944
-116.051
-376.616
-361.609
-293.526
-124.73
-13.273
36.6813
60.1284
79.5084
64.7534
61.6122
59.9455
50.9259
37.1378
22.7402
12.1646
1411.55
-640.961
-92.1617
-410.354
-390.95
-307.853
-124.954
-33.8553
16.9773
44.2088
60.0103
49.4588
50.4192
52.1552
49.6594
44.1639
31.1063
19.2346
1400.2
-671.566
-64.691
-458.089
-430.357
-327.54
-135.368
-52.9762
-7.81195
24.331
42.6184
35.3534
34.6468
40.9424
46.1403
45.5401
36.2524
27.8695
1373.97
-676.292
-38.928
-471.419
-414.423
-306.606
-153.325
-72.5125
-25.7041
1.74906
21.9152
22.6418
22.123
33.4936
43.5312
42.3271
34.5324
31.0503
1335.34
-643.019
-17.6455
-411.802
-361.98
-283.352
-174.259
-99.7659
-45.8063
-11.5623
2.95943
8.43022
11.0588
24.3976
38.7756
37.4659
29.6887
30.5081
1295.36
-598.25
-17.7051
-352.682
-309.086
-250.351
-178.396
-113.78
-63.7107
-27.8704
-11.6252
-7.13432
-1.76269
12.6357
30.3583
32.2808
26.0109
28.6637
1270.57
-574.512
-15.1682
-287.11
-240.523
-202.673
-155.125
-102.983
-61.4147
-37.4236
-25.8378
-23.3921
-17.3679
0.553801
24.6386
30.6426
23.6983
27.5304
1279.27
-661.86
-40.9182
-199.863
-171.756
-153.211
-124.342
-86.2762
-54.8789
-39.4537
-39.5215
-44.0892
-38.0122
-13.7367
14.7878
25.3155
22.2127
26.9207
1262.55
-822.244
-59.7795
-152.853
-107.563
-115.446
-92.648
-70.7326
-52.4152
-44.818
-52.3156
-66.5765
-65.5019
-31.1898
-0.815975
6.39915
11.3278
26.7117
1176.32
-577.861
-5.5574
-171.536
-41.7802
-91.9258
-65.0268
-59.6528
-46.0347
-38.479
-47.2781
-56.6466
-57.9517
-46.9457
-20.3724
-0.291809
15.5432
30.2365
1282.54
-685.012
-129.176
-152.117
-23.524
-61.4518
-49.8437
-35.5758
-9.34009
-4.54088
-16.0888
-28.3531
-28.2858
-18.8132
-3.39502
10.6217
21.815
30.5991
1247.41
-728.437
-115.658
-135.542
-20.0845
-48.0634
-23.2947
-19.9241
-0.725429
7.7169
5.25304
1.02556
1.6416
3.7867
8.7147
13.782
18.973
23.33
1162.61
-667.597
77.4619
-105.383
-7.66869
-40.0642
-17.0007
-17.7129
0.25965
11.9461
16.407
12.6536
11.0858
11.4063
13.1952
15.6794
18.3654
20.6777
1180.58
-637.342
180.446
-93.674
18.3245
-13.4757
-22.7463
-24.0526
4.51
27.1515
36.8845
35.3223
26.0865
19.941
17.4121
16.3352
16.6701
17.9611
1179.46
-619.547
195.908
-89.6679
5.24675
-35.3732
-43.8056
-38.8921
6.39011
38.0227
33.4348
25.9688
22.2239
22.8883
20.0575
16.5369
15.3612
16.5981
1175.45
-634.534
165.138
-61.1999
24.3179
-37.7452
-80.2435
-102.579
-51.2391
16.0107
35.242
34.1336
32.5775
23.3706
15.979
15.2639
18.5833
19.8532
1164.4
-645.868
113.879
-100.919
58.9653
-5.6266
-50.8161
-95.4158
-96.1268
-41.7243
-0.409931
12.4874
18.0456
15.2139
11.1952
12.4645
17.6944
20.191
1146.88
-628.209
53.0994
-170.128
11.8306
-1.7987
-24.1889
-56.2203
-57.8408
-34.2634
-12.144
-0.199168
8.21026
10.5102
9.53415
12.5871
19.908
23.991
1140.09
-638.11
-24.7544
-88.586
65.1559
35.5524
2.0887
-24.3095
-28.1527
-21.1269
-10.3409
-2.72101
5.48236
10.3634
13.1801
17.4961
22.1154
23.9711
1144.13
-610.016
-84.5198
-63.8736
82.1832
61.3183
10.6272
-9.92647
-14.8264
-9.96626
-2.49243
4.07626
11.2893
15.7196
19.6956
21.4197
22.6542
23.1499
1157.39
-566.98
-151.839
-127.818
20.4436
26.21
8.16848
-8.76529
-8.82359
-4.63661
0.901706
6.51626
12.447
16.388
20.4501
21.9441
22.4995
22.7287
1226.02
-604.91
-230.005
-177.312
-1.08203
8.76311
-4.46769
-7.77818
-7.30939
-4.02493
0.219999
2.44654
7.71277
11.7404
18.8974
22.1002
23.6224
24.5868
1292.27
-600.503
-300.167
-230.498
-15.217
-0.0366587
-4.93802
-7.33829
-4.15811
0.127984
2.70619
4.01735
9.64374
15.3825
21.4862
24.5886
27.212
29.0816
1331.51
-517.051
-296.117
-218.565
-19.1502
-19.8244
-1.52793
-4.70078
1.9992
5.19816
5.96342
8.09875
14.1028
20.6449
25.5974
28.8265
32.1249
34.3645
1337.86
-421.943
-249.653
-190.675
-12.9925
-29.4292
5.64033
0.176117
4.34979
7.10289
7.64081
10.3741
16.0666
22.1453
27.1971
31.1129
34.8219
36.8933
1203.65
-262.477
-76.5187
-340.2
-290.682
-265.729
-70.1052
45.9018
99.6685
116.154
108.058
85.9411
74.7189
66.2434
56.9648
52.4979
53.3403
43.6215
1277.72
-290.19
-84.8967
-339.708
-296.407
-280.326
-86.8609
38.8237
96.4003
112.17
105.758
83.3098
71.6013
63.365
53.3365
47.7115
45.9805
41.6813
1338.7
-339.586
-98.3703
-342.61
-307.169
-301.602
-105.137
28.2482
87.348
106.412
100.834
77.5149
65.7106
58.623
48.2503
41.9204
40.6744
37.076
1386
-406.709
-105.789
-351.017
-324.109
-319.569
-123.844
14.8183
69.9784
90.8761
94.0139
74.2546
62.3638
55.0047
45.5153
40.0928
40.0174
36.6874
1416.76
-483.182
-108.543
-367.558
-348.929
-335.93
-140.295
1.09323
53.4533
71.2751
81.1488
72.4652
64.7575
57.1835
47.2245
41.5612
41.5096
38.4077
1429.58
-553.199
-109.992
-389.44
-381.567
-351.954
-147.472
-22.2531
36.6968
56.6412
61.6753
60.7434
61.4623
58.2293
48.5036
41.5598
41.0743
38.3345
1435.75
-616.081
-108.401
-416.063
-418.961
-363.395
-155.174
-39.943
14.6947
37.3449
44.1712
44.2427
49.8064
54.2313
46.5937
40.0087
39.6413
38.081
1422.07
-663.569
-100.996
-454.943
-457.036
-352.513
-160.43
-51.0815
-1.32479
17.0686
26.2848
29.1971
37.6046
46.8643
42.2358
38.2187
38.7923
38.8289
1377.24
-674.948
-72.562
-458.516
-403.079
-316.229
-168.434
-69.7311
-19.4599
-1.75656
7.66404
14.3683
25.6649
38.0609
37.5466
36.2193
37.2811
38.6978
1327.9
-635.302
-45.1747
-407.661
-348.181
-273.049
-173.864
-92.6027
-43.3959
-22.7925
-9.31101
-0.190096
14.0218
28.8851
33.3007
33.3659
34.1257
37.1431
1292.61
-588.701
-45.3712
-334.25
-294.106
-231.182
-165.999
-101.969
-61.3336
-42.4389
-27.6104
-15.2308
2.15971
21.0408
30.6222
30.3512
30.5629
34.0728
1282.22
-587.718
-39.5301
-271.109
-237.124
-192.993
-143.774
-93.7443
-63.9968
-51.8415
-43.1673
-32.5192
-11.8631
14.183
28.6656
26.5018
26.5731
30.4708
1302.89
-682.341
-73.8257
-195.044
-166.481
-145.471
-104.768
-73.6087
-54.51
-53.3028
-55.6327
-53.8081
-35.708
1.91426
23.4623
21.8053
21.5937
25.8946
1277.71
-782.288
-90.3137
-125.532
-97.8215
-105.179
-73.4748
-56.3033
-42.7879
-46.8747
-62.4995
-68.0342
-44.4441
-10.9105
2.22133
4.32705
11.6589
23.9905
1160.11
-609.963
-86.0892
-163.055
-81.1815
-92.6249
-66.5049
-48.5897
-29.6334
-26.8746
-38.4718
-49.8395
-42.8754
-27.0392
-12.1
2.75478
18.7095
32.4431
1406.08
-371.01
-42.6369
-171.846
-31.087
-64.8055
-53.927
-26.1735
-1.22435
3.37311
-8.09522
-20.3783
-20.5494
-11.5827
0.237433
12.5323
23.1996
30.994
1301.13
-517.439
-87.0035
-150.33
-14.564
-54.154
-15.5661
-23.6976
-8.81864
4.31477
4.66462
1.78691
1.99414
4.28791
8.77153
13.8707
18.6648
22.6008
1170.74
-678.748
53.4879
-110.081
-27.8878
-47.9982
-8.72352
-17.5817
1.23022
13.1517
18.7443
14.9865
12.2228
12.371
13.8968
16.2098
18.5395
20.5456
1174.17
-635.846
157.297
-87.3764
12.8421
-33.9751
-30.4819
-28.4874
-1.30082
26.3972
39.2665
37.6001
27.7438
19.9201
16.42
16.1229
16.8634
17.9916
1174.09
-611.138
191.556
-91.7624
-4.59982
-52.309
-65.8448
-46.4286
9.11396
48.2372
45.8467
33.5078
24.3761
20.9006
20.0405
18.7518
17.929
17.5323
1165.1
-611.989
164.818
-102.186
10.381
-60.5
-111.662
-122.488
-53.2641
28.6221
50.8325
43.0812
38.0994
28.458
19.3772
18.0394
20.1595
20.7981
1140.81
-606.958
142.634
-109.601
10.3591
-35.9552
-78.0508
-116.44
-109.138
-48.1821
1.37918
16.668
21.565
17.4036
11.774
13.2097
17.5397
19.7666
1139.73
-618.219
118.08
-73.8607
3.03519
-14.1988
-43.7739
-79.8956
-81.2893
-50.6067
-20.9353
-3.18387
8.35469
10.4591
9.57299
13.0593
19.1246
23.4436
1162.74
-621.708
46.7938
1.51468
43.3448
37.4475
-8.07408
-39.8658
-42.166
-32.0357
-16.0305
-5.87325
3.03113
7.51177
10.7825
16.3513
22.4037
26.4535
1180.01
-614.896
-12.7602
-9.55949
57.2403
51.9855
5.05977
-20.2007
-21.7027
-14.4139
-4.62231
-0.997032
5.65308
9.64504
14.6708
20.9152
25.0675
26.8564
1219.4
-656.549
-129.041
-63.0057
26.9064
35.4482
8.23266
-13.4312
-13.5354
-5.34756
-1.3738
1.10036
11.0228
15.1485
20.293
23.906
25.0171
24.3872
1281.42
-696.566
-269.654
-159.433
32.8017
29.1623
5.97539
-9.01995
-9.83779
-8.58014
-6.4514
-1.50804
11.2621
16.9144
21.4491
23.1646
23.523
22.463
1355.94
-636.385
-326.848
-201.185
15.3107
4.40709
8.02076
-5.37357
-5.52836
-8.46902
-5.73406
1.31607
12.6432
18.6462
23.3504
25.0015
25.6063
25.018
1427.02
-485.203
-302.373
-193.082
-4.71379
-7.38092
4.4705
-1.1955
-0.519097
-3.3463
0.141475
7.73214
18.0039
24.112
28.0116
29.898
30.712
30.0006
1511.24
-368.547
-238.264
-182.576
-3.56594
-18.0669
-0.639863
1.64276
2.63849
0.492372
3.68483
11.1878
21.233
27.4203
31.3122
33.4902
34.7307
33.9973
1249.42
-321.559
-102.47
-376.607
-299.2
-262.871
-54.9027
57.8333
104.765
125.626
116.749
93.9801
84.3324
78.3494
71.2638
63.5718
56.7908
41.6551
1222.66
-313.906
-114.091
-383.985
-306.849
-271.005
-69.5362
51.8151
95.8662
115.242
116.299
93.7496
83.7778
78.6556
72.107
65.8761
58.4893
48.8502
1310.91
-372.902
-134.194
-395.971
-315.002
-285.265
-93.9445
40.6046
85.9197
99.9552
108.592
90.4096
80.3744
75.8842
69.2794
62.4402
55.5505
46.7613
1374.02
-446.026
-160.75
-410.001
-324.655
-304.895
-116.859
27.1657
74.6296
87.3525
92.9162
80.0242
71.9713
69.5552
62.2798
53.5177
46.4944
39.7918
1407.42
-530.554
-176.991
-432.119
-345.783
-329.358
-145.529
10.3104
64.0368
74.2487
77.1332
68.7903
63.4835
61.6628
54.1263
44.5485
38.3408
33.5544
1414.53
-616.859
-177.757
-451.842
-379.923
-352.192
-177.37
-16.1454
47.9224
57.4133
60.0762
57.0469
56.2315
54.5194
45.6719
35.4241
31.4861
31.1034
1399.24
-688.685
-160.176
-457.951
-426.242
-366.736
-200.895
-42.9521
22.7379
34.628
39.6224
42.8794
48.6322
49.4744
38.3299
27.5335
28.22
32.4207
1370.3
-721.668
-140.854
-454.721
-435.77
-341.915
-202.857
-66.0198
-5.38263
8.63647
16.063
26.2538
39.0962
44.2754
31.9803
23.5364
29.2283
34.9443
1334.61
-702.481
-117.079
-442.887
-368.911
-306.558
-204.404
-92.4378
-30.2889
-12.9979
-3.76934
9.64617
28.4996
36.7429
26.1202
22.5742
30.3018
35.4073
1298.94
-662.81
-89.257
-402.884
-329
-264.385
-194.127
-112.836
-56.8567
-36.4355
-23.6976
-6.01824
16.9242
26.6127
20.6231
21.9506
29.7492
34.5369
1280.8
-632.573
-62.9657
-326.021
-269.261
-211.385
-168.76
-114.324
-75.5327
-60.7986
-46.588
-24.0234
2.4561
13.2243
15.3909
21.1418
28.6197
33.3575
1254.66
-663.617
-66.6643
-224.289
-183.71
-172.443
-142.392
-99.9307
-74.6222
-71.1946
-63.0097
-42.6488
-15.1417
1.4666
11.4428
20.4417
27.1423
31.5212
1246.04
-657.403
-86.7851
-148.801
-108.254
-143.392
-109.845
-74.2412
-57.2424
-64.3163
-67.9978
-58.5837
-31.7097
-3.51647
7.81555
19.4901
24.5118
28.459
1298.13
-667.656
-65.4551
-119.488
-73.8341
-117.429
-67.5946
-42.991
-33.4201
-43.1876
-52.625
-51.9169
-38.709
-16.1853
-0.731068
7.99291
16.3376
25.6414
1456.04
-695.024
-163.2
-116.485
-45.9222
-79.1637
-31.3028
-18.0786
-11.0457
-18.1735
-31.1588
-31.8818
-24.1422
-20.0546
-5.94566
8.16114
21.3478
31.923
1695.33
-368.85
-9.01715
-131.107
1.07624
-58.5496
-27.5976
-10.6953
3.4184
4.21752
-9.22426
-21.1412
-18.8383
-9.38971
1.73021
12.1676
21.4904
27.9303
1371.74
-274.138
21.8531
-153.272
17.9226
-45.821
-23.2398
-27.2392
-12.9533
-2.47917
1.25061
1.15758
2.88756
4.55598
8.68169
13.6496
18.046
21.6233
1194.65
-615.177
38.6373
-147.419
-17.5074
-4.54101
-1.49316
-8.81001
4.31115
14.7419
19.7819
15.2769
12.2161
12.7677
14.4447
16.529
18.5326
20.2014
1165
-638.426
144.421
-101.139
10.2379
-39.7183
-45.9293
-40.5066
-9.61832
20.3078
36.2332
37.5641
28.0834
20.1466
15.6158
15.0811
16.2791
17.6356
1164.72
-600.371
190.039
-115.314
-3.44888
-41.9409
-63.4269
-42.5318
11.5332
47.312
47.8745
37.3984
27.1752
20.2357
16.7811
16.0379
16.4165
16.8312
1154.57
-612.656
158.995
-146.176
-17.3289
-36.5407
-91.5969
-99.4743
-34.1917
37.613
59.1195
50.1423
40.7039
29.9326
21.2463
19.0292
20.4748
21.2334
1132.52
-681.629
108.81
-76.7546
-27.6028
-42.6203
-77.9424
-106.564
-94.4571
-42.3026
2.56315
21.7199
27.0739
22.2154
16.8272
17.5867
20.3256
21.928
1130.81
-691.044
25.2872
-107.742
-34.0423
-45.1751
-70.4245
-102.113
-96.7533
-60.3616
-26.246
-1.26819
12.7531
14.4977
15.0281
17.7833
21.8231
25.4503
1153.43
-660.007
-32.9341
-108.176
-6.24971
-4.16965
-37.1253
-62.0424
-54.7127
-42.1187
-20.1677
-4.79183
5.24236
10.5963
16.4993
20.488
24.3862
27.7148
1190.89
-676.021
-62.0111
-120.786
26.8056
32.041
-9.44306
-29.3714
-24.4287
-19.9295
-8.03916
-3.24732
1.25352
10.6368
18.5928
21.0035
23.3807
24.9356
1250.19
-774.887
-171.181
-110.948
40.6363
23.1163
-1.66153
-22.5042
-19.4618
-10.9496
-1.7597
1.16998
7.88793
18.0646
21.9373
20.7897
20.4042
19.0889
1307.13
-745.399
-332.588
-155.462
34.8305
15.2155
-2.45801
-22.0473
-15.2239
-9.7508
-1.42335
5.22069
15.8457
22.2327
20.9438
18.4311
16.3846
14.2517
1366.09
-597.232
-296.427
-162.16
10.9212
-7.24687
-4.12286
-16.0469
-9.1441
-8.66949
-0.509275
9.90934
19.8633
21.607
21.0677
18.6073
16.2589
14.5842
1407.1
-427.366
-236.449
-152.318
-7.4557
-24.5026
-4.95192
-11.0867
-4.68385
-4.28679
4.00237
14.6543
22.1008
24.5064
24.3979
21.8958
19.4819
18.1831
1427.17
-323.747
-185.457
-147.998
-15.1285
-33.6222
5.11374
-4.76802
-1.28008
-0.662342
6.86185
18.1184
24.9244
26.8942
26.6312
24.846
23.1735
22.5849
1433.36
-353.805
-101.247
-403.118
-302.583
-255.095
-67.7581
60.6506
103.614
108.105
97.1762
84.0192
75.8052
69.1006
60.7645
52.5316
46.0779
41.2295
1380.6
-365.417
-107.457
-420.91
-313.858
-258.676
-79.1084
56.0308
99.8096
103.408
96.9043
83.2066
75.6054
69.7215
60.8316
51.4532
42.9013
37.8155
1365.74
-389.204
-119.983
-438.892
-308.142
-267.791
-99.2731
47.0593
95.1534
96.278
96.9102
81.1667
74.118
69.7781
61.0605
50.4041
41.5473
36.1595
1389.91
-450.936
-159.115
-441.511
-289.974
-285
-123.487
32.9302
85.443
88.5329
89.4974
74.1039
67.2331
64.5814
56.0158
47.0829
41.459
38.4541
1413.74
-552.494
-198.773
-437.695
-291.347
-309.486
-159.488
9.49329
64.8601
74.9931
77.6154
63.5334
56.175
53.1735
43.5621
34.8966
36.4773
38.3055
1416.48
-665.694
-221.706
-426.606
-317.338
-326.901
-196.923
-21.298
33.7741
53.4257
59.5365
51.9903
47.9478
44.1592
32.4793
24.1649
31.1951
37.1131
1388.97
-753.653
-218.131
-423.167
-341.416
-313.454
-213.307
-53.8799
0.0760051
25.2587
40.1676
39.5926
40.974
38.5256
24.1656
16.8208
28.3551
36.304
1350.75
-769.526
-177.752
-426.992
-334.791
-277.274
-207.207
-83.0238
-25.427
-0.614085
21.3666
27.9426
33.9284
33.2738
17.2983
14.3204
26.9399
33.8728
1315.62
-733.176
-132.785
-404.857
-289.438
-250.352
-198.247
-104.07
-45.9638
-21.3038
-0.130296
12.5682
25.0734
25.5175
11.3008
13.8162
25.5785
31.3385
1285.02
-687.169
-84.3156
-383.795
-260.533
-228.128
-187.554
-112.767
-62.8683
-42.4381
-24.5335
-5.12641
13.4409
15.4293
5.71899
12.8305
24.1305
30.324
1297.73
-650.275
-75.8552
-290.875
-200.413
-195.546
-171.449
-112.202
-75.7092
-64.5483
-50.6399
-27.3902
-1.68709
2.87762
0.279365
11.3983
23.0639
30.0921
1371.9
-695.394
-73.3827
-186.835
-139.09
-171.629
-146.953
-96.2108
-75.1129
-75.5999
-66.4883
-43.7277
-18.4597
-8.97392
-4.67906
10.6087
22.8249
30.7229
1522.77
-648.6
-96.1538
-146.997
-81.2682
-141.905
-107.412
-66.3498
-59.0123
-66.8728
-63.83
-47.2365
-29.2831
-16.9891
-6.89509
10.4656
23.2415
31.9372
1322.42
-604.814
34.5908
-116.036
-52.8177
-111.811
-54.692
-28.8335
-29.0873
-42.2873
-43.806
-37.3113
-31.7558
-22.0312
-7.07855
8.39037
20.4825
28.9072
1404.26
-711.164
-74.2546
-124.421
-57.4951
-70.502
-11.5138
-1.39161
-5.03691
-17.0856
-27.465
-28.2126
-21.403
-18.3819
-1.55517
11.6362
21.7116
29.7921
1488.29
-681.572
-111.66
-163.311
-48.0574
-55.8496
-38.1021
-8.76774
2.73268
-0.570263
-13.7021
-25.2877
-23.3943
-10.6826
1.80842
11.474
19.6566
25.6256
1373.97
-554.734
-63.9923
-151.133
17.8783
-24.6686
-22.8362
-18.4654
-9.30532
-5.37847
-3.01898
-2.51483
-0.0951705
3.13396
7.8111
12.8411
17.3216
20.7707
1170.07
-660.247
60.891
-113.046
38.8483
-19.8374
-0.236747
-4.77385
6.58883
15.1775
18.0163
13.6262
12.1674
12.8475
14.6508
16.5515
18.4174
19.8903
1161.96
-638.33
155.627
-101.992
7.61717
-38.3187
-46.8546
-42.0543
-11.3209
15.9142
31.7433
35.3869
27.1405
20.2707
15.7583
14.5175
15.5235
16.9494
1161.02
-605.283
187.999
-120.265
-12.5895
-30.999
-44.4198
-33.1788
4.65097
37.3489
43.8097
36.2473
27.1432
19.8819
15.2041
14.1428
14.6689
15.6347
1155.88
-638.733
152.358
-121.445
-43.6357
-33.8479
-57.1183
-55.8692
-17.8649
28.5489
50.3451
47.2627
38.4262
28.7611
21.3633
17.8373
18.4347
19.5243
1131.54
-754.81
72.4901
-61.5654
-37.296
-44.5137
-61.7748
-75.9741
-64.2478
-32.1727
3.97732
26.8317
29.9303
24.2531
19.3316
18.5891
20.3912
21.9221
1169.93
-750.951
-73.1111
-202.633
-13.1186
-47.4166
-67.514
-93.1075
-81.7865
-48.6777
-16.0195
8.42333
16.1435
16.2332
16.0299
19.2625
22.5826
24.9933
1180.07
-694.352
-113.139
-218.155
-54.1932
-72.4237
-62.4396
-69.3323
-54.2066
-36.7109
-13.7885
2.01601
8.94448
12.1636
16.6203
21.6757
25.0713
27.1427
1178.42
-675.931
-105.729
-163.224
-21.6719
-4.90742
-22.4356
-37.256
-29.1285
-20.1182
-8.24935
-1.04027
5.15284
11.3767
17.5014
20.8724
23.3757
24.1351
1271.68
-750.052
-216.119
-131.842
5.14617
2.69671
-7.96455
-21.7053
-15.5787
-11.8421
-4.91617
0.999094
7.72287
15.4976
19.1511
19.0245
19.2376
17.8606
1344.3
-649.873
-257.027
-136.587
4.25143
-3.91072
-8.11028
-16.1626
-9.60809
-6.70994
-0.124033
6.89047
13.8825
17.0469
16.41
15.368
14.5977
13.914
1399
-440.09
-200.927
-142.334
-7.09863
-19.4933
-6.87863
-14.5106
-4.90816
-2.92484
3.91422
11.185
16.6672
17.0443
15.2579
13.949
13.7829
14.6575
1468.68
-290.02
-142.052
-151.038
-12.923
-27.2978
-5.96454
-10.8972
-0.441772
0.443927
6.89383
13.7018
18.0024
17.8917
16.8307
15.901
15.8106
17.3981
1581.13
-225.229
-106.039
-160.293
-10.7261
-28.8083
3.10578
-5.21389
2.76626
3.27507
8.46214
14.7055
19.419
19.4916
19.2149
18.7543
19.1754
20.4012
1328.15
-427.36
-111.307
-384.773
-312.414
-254.423
-59.955
70.4033
102.521
99.0036
87.7216
72.7703
63.4345
55.1253
46.3393
39.5785
38.0575
38.3582
1329.29
-444.478
-116.703
-398.282
-328.09
-259.123
-69.9537
55.1209
94.626
91.1196
82.4475
69.9068
61.5064
53.2989
44.4387
37.5272
35.5585
37.3084
1353.8
-476.361
-130.135
-418.322
-326.034
-273.609
-94.572
33.5685
82.8525
82.7557
81.1803
69.8149
62.6407
54.7052
44.6732
36.8071
35.5475
38.2136
1399.53
-541.632
-161.164
-430.921
-320.38
-298.475
-128.023
14.1215
70.3935
72.304
72.4165
64.8123
59.261
53.729
42.2993
35.4088
38.3913
41.3447
1421.97
-631.719
-191.789
-438.782
-325.395
-326.451
-164.612
-2.31575
51.4198
62.525
59.1505
54.1528
50.1376
43.2254
33.977
29.587
36.6583
41.7358
1429.07
-722.879
-213.622
-442.727
-341.513
-339.419
-194.94
-24.2395
29.6786
54.0627
46.192
41.7311
40.8909
35.2968
23.601
21.6303
33.1611
39.9089
1406.14
-795.73
-203.852
-442.316
-353.256
-314.544
-216.951
-54.5796
0.948122
38.8538
37.2955
29.3172
32.6652
29.5083
13.4892
13.3976
28.4584
36.3244
1363.83
-801.078
-154.899
-438.899
-352.973
-273.579
-221.345
-84.6291
-27.0673
14.7373
26.6735
17.3818
24.2371
22.7504
4.49804
7.14044
23.3863
31.4081
1325.82
-757.869
-106.699
-411.008
-318.413
-270.313
-224.963
-107.812
-45.8989
-9.59553
11.5741
10.0528
14.7794
12.8362
-3.0824
3.66135
19.1179
27.5853
1290.36
-713.538
-68.051
-381.652
-275.792
-276.183
-231.723
-122.949
-59.1104
-30.2162
-9.46263
-3.33856
3.94744
0.89544
-10.5717
0.53919
16.0999
26.3891
1288.77
-684.324
-34.7662
-229.277
-224.633
-259.755
-226.821
-122.819
-65.5623
-48.2334
-32.8623
-20.968
-7.84781
-11.1799
-18.463
-1.97039
15.376
27.6478
1315.01
-680.266
8.72147
-182.277
-186.689
-237.966
-197.476
-98.4083
-59.5502
-54.5702
-45.4574
-31.293
-19.5087
-23.0864
-20.8995
-1.57384
17.2434
30.2856
1358.54
-686.72
-3.17323
-222.962
-151.027
-202.945
-143.179
-56.059
-40.5082
-47.9218
-46.4202
-35.0178
-28.5592
-31.0463
-21.5066
0.205877
20.3999
33.4723
1282.55
-612.388
-1.73078
-175.52
-109.255
-150.228
-65.1176
-6.58748
-11.9411
-26.2107
-33.3361
-32.9376
-32.9004
-30.4217
-17.9038
3.22142
21.3019
32.6852
1318.51
-645.006
-21.7032
-123.82
-116.441
-101.166
2.8423
23.9402
6.53525
-9.8803
-23.9733
-25.8474
-24.8496
-24.8213
-13.1124
6.06273
20.6804
29.1257
1345.88
-726.917
-86.1948
-163.253
-44.1576
-38.3318
3.1068
15.7826
6.91847
-5.98323
-18.3901
-28.0944
-24.5336
-11.3192
-0.2419
10.009
18.4741
24.5158
1275.81
-734.014
-62.8873
-131.435
-2.68007
-25.2116
-2.3765
-8.60194
-5.00684
-4.81425
-7.50618
-6.6266
-3.64552
0.412918
6.02632
11.7182
16.6631
20.2221
1147.38
-686.832
96.4981
-110.682
-8.09757
-22.4019
-6.46489
-4.12695
6.67785
12.5413
13.2782
11.3612
11.34
12.3037
14.1778
16.0452
18.0017
19.5475
1169.22
-633.614
181.863
-97.4843
8.73516
-32.5986
-38.5927
-34.465
-9.48545
14.4736
29.2869
32.2959
25.452
19.7649
15.8554
14.5132
15.1059
16.3421
1164.11
-613.931
187.81
-111.069
-12.7382
-29.0702
-35.9759
-29.6355
-9.11274
19.973
32.6136
30.269
25.257
18.7669
14.0168
13.3839
14.9666
16.2817
1159.55
-653.552
138.126
-122.664
-45.1874
-31.2265
-41.9472
-40.4341
-17.0555
8.54757
28.0298
35.1224
32.8338
25.507
19.6278
16.4108
16.9998
18.5193
1145.45
-807.997
18.7038
-51.5561
-32.5858
-43.4545
-49.6866
-59.221
-46.0422
-22.8491
1.61641
20.5298
24.4789
20.9589
17.6241
17.3714
19.1699
20.2277
1265.48
-705.923
-101.809
-141.489
56.7727
-28.2635
-56.6113
-73.8211
-61.3501
-34.2959
-10.8364
7.62747
12.8099
13.0657
13.4453
17.7224
21.5434
22.8987
1278.78
-636.144
-121.246
-232.701
-87.3189
-103.06
-65.8584
-64.5286
-44.411
-26.2478
-9.64907
3.79968
9.27864
11.6026
16.1147
21.4509
23.8177
24.7296
1180.67
-615.449
-72.6965
-169.687
-101.814
-49.9627
-25.6326
-37.9845
-26.8116
-17.9245
-5.37875
4.38672
10.3422
12.5509
17.0265
20.2914
22.4865
23.3045
1274.07
-606.828
-159.796
-122.227
-40.1751
-17.7033
-12.0794
-22.5733
-14.7208
-11.2964
-2.86748
3.22616
10.9306
14.1639
17.7664
18.9226
20.7673
21.492
1346.32
-487.699
-178.369
-126.464
-16.6719
-24.1605
-5.56991
-15.4956
-9.50059
-7.3486
1.01651
7.15873
12.7641
13.4254
14.0356
17.5079
20.0692
21.194
1389.77
-319.57
-103.834
-137.739
-21.4732
-26.1853
0.244921
-10.389
-2.47262
-2.06428
5.1335
10.4667
13.6056
11.8442
13.7994
18.5092
21.2092
22.5822
1444.62
-223.825
-55.838
-143.797
-22.3082
-35.6193
4.4342
-5.49558
1.97713
1.63293
8.26238
12.8437
15.5188
12.5322
16.4215
20.7114
22.9586
24.4986
1555.84
-195.764
-37.3851
-143.443
-20.4006
-33.2159
9.81103
-1.89082
4.5862
3.66994
10.017
15.167
18.047
15.5561
18.7414
22.2393
24.2061
25.5634
1306.25
-516.437
-156.929
-341.139
-320.633
-236.188
-60.007
28.4567
73.1789
91.4161
88.3158
72.0839
59.734
48.6659
39.2962
35.8222
39.7625
42.9742
1328.66
-578.47
-176.197
-326.875
-331.198
-248.327
-67.2741
23.0256
69.8146
87.7328
84.8111
70.1055
57.592
45.4669
35.667
32.4662
36.8371
42.0908
1334.38
-660.133
-181.034
-328.89
-350.232
-272.107
-85.2884
10.9713
62.8714
82.6293
86.0673
72.9274
60.6284
48.0912
36.4946
31.4538
35.2965
40.6714
1340.49
-723.539
-180.81
-342.339
-368.202
-307.308
-111.315
-1.19562
51.8249
74.2088
82.0892
73.3364
61.8591
47.62
34.4916
29.1052
32.8129
38.8667
1333.66
-773.196
-176.036
-354.168
-379.113
-348.571
-143.024
-10.1154
37.2591
61.8602
73.7923
68.973
58.2521
43.6714
29.5294
24.0048
30.0166
36.7235
1327.64
-810.176
-162.806
-355.172
-386.119
-381.888
-182.687
-22.4082
16.5678
45.6039
62.2529
62.0512
54.1809
37.7925
20.8968
16.5802
25.8961
33.8511
1323.8
-822.433
-128.995
-353.021
-390.379
-387.972
-220.163
-42.8828
-2.14893
21.2391
44.3931
51.9175
48.9933
31.9348
9.72805
7.17922
19.688
29.0528
1317.42
-803.017
-81.7062
-342.731
-387.815
-371.965
-250.985
-71.7765
-9.1103
-0.0169199
21.1725
40.8246
42.5315
25.9275
-1.68636
-1.44132
13.1636
23.6872
1309.63
-765.772
-38.5367
-317.801
-372.318
-368.961
-278.574
-103.593
-22.0563
-11.7708
0.149297
22.4639
32.4729
16.5659
-10.4868
-5.84271
9.12367
21.45
1299.8
-724.365
3.42696
-272.045
-329.634
-373.535
-301.554
-125.722
-34.4486
-27.5009
-17.723
5.22106
19.3701
2.92381
-17.4958
-8.29752
7.91
23.6476
1301.14
-688.934
62.2803
-171.161
-274.242
-350.474
-297.798
-125.26
-33.5489
-36.2115
-32.0612
-10.2052
4.27492
-12.7612
-24.5176
-11.0808
10.2113
30.2735
1304.85
-662.713
105.511
-120.778
-237.5
-317.221
-256.382
-91.5384
-21.7672
-31.2202
-37.4366
-20.0026
-12.4735
-29.0369
-30.1058
-10.8026
15.9746
37.3319
1301.42
-649.796
105.627
-93.8662
-200.894
-254.594
-162.411
-30.1406
1.21681
-16.1305
-32.3442
-30.6355
-34.1432
-42.7607
-33.4637
-8.59588
23.7536
43.4644
1278.6
-635.54
88.6395
-81.0323
-148.453
-144.549
-41.3984
33.8999
22.5167
-5.2058
-27.2749
-38.533
-50.3356
-52.1259
-33.4632
2.00867
30.5349
42.8365
1282.69
-606.721
63.6509
-62.2421
-99.7828
-56.0802
51.0742
70.1256
28.4056
-4.64743
-24.8737
-33.292
-31.8522
-27.5668
-19.9701
2.88877
21.2087
31.0092
1247.06
-643.687
-19.4812
-113.882
-36.3166
4.78301
36.7886
36.4822
14.5547
-12.9267
-19.7883
-25.2774
-22.1028
-11.6116
-1.47506
8.72104
17.6655
24.3409
1206.34
-661.498
27.0695
-108.234
25.4536
-12.9952
5.49859
-0.387102
-0.48441
-5.32419
-8.13293
-6.84827
-5.44228
-1.60674
4.67024
10.8224
15.9938
19.8814
1161.43
-647.781
138.314
-91.1243
21.739
-15.5681
-4.97188
-0.779572
6.89337
10.8959
11.0088
9.22868
9.6132
10.9671
13.0303
14.9951
17.1751
19.027
1174.83
-629.606
194.024
-92.2128
14.3417
-21.2869
-28.4964
-25.0023
-2.886
16.036
27.4423
27.8166
23.1329
18.5944
15.6361
14.4393
14.8346
15.9364
1168.85
-624.025
190.02
-102.295
-7.47945
-26.7403
-32.5874
-35.4548
-13.5296
13.8893
25.2913
23.8896
23.0115
16.0772
12.082
11.7035
14.3964
16.4008
1159.11
-653.083
136.851
-138.037
-32.6672
-36.0207
-34.8433
-45.7535
-35.7416
-2.07594
20.9786
28.4992
27.4448
19.7547
14.0569
13.9012
15.5279
17.8627
1130.52
-772.524
-2.27294
-93.5191
-36.984
-50.8492
-47.3606
-46.9292
-44.6715
-23.6233
2.40987
18.0443
21.0286
17.3916
14.3421
16.2158
17.929
18.6137
1241.51
-698.285
-51.3089
-87.1463
34.9968
-31.1912
-48.1438
-51.3746
-44.8749
-29.4475
-9.43833
3.68319
9.37481
10.6689
13.3343
17.0519
20.0201
20.8766
1366.29
-513.534
-49.9386
-197.059
-59.8203
-86.4788
-53.2635
-47.0615
-34.8748
-23.5871
-10.3521
-2.06341
4.81693
9.15137
15.2011
21.2503
23.7401
23.8931
1232.15
-505.679
-35.6632
-234.255
-150.92
-65.8469
-26.4873
-28.8948
-23.6559
-16.7025
-5.20501
4.76239
12.6873
14.9778
18.0134
20.5866
22.579
23.3772
1229.12
-506.803
-75.3142
-145.11
-69.5841
-28.4337
-16.4267
-20.3203
-14.8173
-7.86612
0.873806
5.75471
11.8219
15.7733
19.1383
21.2162
22.8531
24.0131
1324.13
-475.291
-145.64
-140.409
-36.2762
-28.2439
-7.55351
-12.6938
-6.32343
-3.07453
3.69958
9.18925
12.0804
15.5175
19.202
22.0676
24.1032
25.55
1342.24
-341.061
-100.406
-131.066
-35.4765
-34.6072
0.769493
-7.91802
0.15329
0.883559
6.99494
10.9708
10.6616
13.2116
19.3217
22.1156
24.8759
26.552
1352.32
-258.394
-48.7658
-140.25
-29.8077
-51.1897
5.01783
-4.95399
5.81411
3.9656
10.3881
13.9046
11.0581
13.5441
20.2429
22.6709
25.4801
27.4461
1361.44
-222.394
-7.46599
-139.184
-24.9722
-57.6646
6.27916
-2.22541
8.78036
6.82386
13.0298
16.5324
13.7115
15.4089
21.1852
23.3193
25.8726
27.7251
1283.65
-553.624
-138.151
-297.342
-283.347
-208.258
-48.8477
27.6685
83.4297
103.61
100.019
84.6644
67.2355
53.3583
47.8442
49.2625
53.7523
51.6193
1300.7
-607.79
-154.452
-285.917
-290.698
-224.033
-61.0063
25.3367
82.6919
103.545
100.488
83.2603
63.8479
48.4229
42.0469
43.7026
48.4168
48.6067
1312.55
-663.364
-149.708
-279.439
-296.79
-249.99
-82.4251
17.1548
79.5476
100.708
102.905
87.4491
66.5572
48.7171
39.0136
39.2209
43.0905
43.2703
1315.4
-688.095
-129.108
-277.559
-305.586
-284.729
-111.798
-1.05086
65.6943
94.6601
102.508
93.0844
69.7141
47.8407
34.3669
32.9504
36.5456
36.8924
1301.79
-698.467
-102.786
-285.75
-321.217
-320.485
-146.514
-23.2174
43.2766
79.584
98.5272
97.0133
73.7818
46.2405
29.083
24.8428
28.4677
31.2618
1289.67
-708.387
-81.0612
-295.354
-337.465
-348.787
-185.132
-45.4962
23.0611
51.5832
84.7135
97.8466
77.6954
43.0316
20.2675
13.7479
18.2601
25.6658
1286.23
-716.289
-61.3455
-302.93
-349.151
-359.009
-214.265
-69.3018
13.2134
24.4879
57.9751
88.8422
80.0753
41.8894
7.59247
0.371626
7.25012
18.2745
1286.98
-716.296
-40.7321
-302.227
-352.011
-348.384
-230.322
-95.3204
9.92519
16.1559
26.9126
68.1537
78.2009
41.5377
-0.958281
-12.9469
-0.60595
12.3004
1287.53
-707.893
-20.0369
-294.01
-345.572
-340.696
-252.927
-124.013
-10.9605
11.3287
4.19644
41.937
67.6853
34.6919
-8.25288
-20.4282
-2.91474
13.8291
1288.64
-691.514
10.3372
-274.613
-336.123
-353.897
-286.43
-151.636
-38.9127
-10.1487
-17.8882
15.8806
47.9539
19.9138
-14.7567
-21.5187
0.747755
23.7092
1295.45
-670.528
55.2635
-228.895
-309.038
-343.792
-302.745
-158.13
-43.038
-27.5704
-41.8773
-9.15923
21.9331
-0.411986
-21.1404
-17.961
8.9339
37.9872
1307.31
-650.236
111.305
-167.469
-271.744
-299.136
-257.439
-120.14
-28.3752
-26.9613
-48.054
-28.6439
-8.9625
-22.6999
-27.9271
-14.1545
17.9834
48.9964
1311.66
-629.432
157.677
-102.721
-224.43
-219.183
-156.633
-48.7594
-0.940175
-18.7264
-43.5765
-43.2619
-40.477