/*--------------------------------*- C++ -*----------------------------------*\
| =========                 |                                                 |
| \\      /  F ield         | OpenFOAM: The Open Source CFD Toolbox           |
|  \\    /   O peration     | Version:  2112                                  |
|   \\  /    A nd           | Website:  www.openfoam.com                      |
|    \\/     M anipulation  |                                                 |
\*---------------------------------------------------------------------------*/
FoamFile
{
    version     2.0;
    format      ascii;
    arch        "LSB;label=32;scalar=64";
    class       volScalarField;
    location    "0.29";
    object      ddt0(omega);
}
// * * * * * * * * * * * * * * * * * * * * * * * * * * * * * * * * * * * * * //

dimensions      [0 0 -2 0 0 0 0];

internalField   nonuniform List<scalar> 
12225
(
0.0325029
-4.64575
1.4475
4.16821
13.1821
-6.1787
-114.967
-245.283
192.724
544.062
-500.774
-410.122
1916.43
-1388.73
-2356.2
2897.73
5125.47
-4423.72
-126.199
454.399
-262.142
-712.28
1421.93
172.151
-3191.97
3265.97
3207.12
-10534.8
4600.42
15410
-2615.4
-73908.9
30317.7
70207
-10230.3
-6890.34
-64.9127
296.181
-92.4985
-1159.91
1634.96
1187.59
-4721.45
3984.03
1220.69
-8664.33
11743.5
-2253.38
1508.5
-32414.5
-32608.2
285809
-100689
-645219
-28.5015
144.373
-100.232
-548.33
973.074
355.533
-2128.53
1683.05
516.247
-3176.29
4171.78
2316.83
-8906.93
-17962.3
61981
36411.4
-216881
-11636.9
-11.1472
68.3031
-88.7324
-191.557
497.709
-15.0677
-816.933
717.432
46.9449
-991.945
2031.78
-412.342
-4933.22
1992.09
24051.1
-23724.4
-75145.2
48163
-3.25072
29.8187
-57.6691
-47.852
225.297
-76.5968
-292.448
288.54
-45.9745
-187.834
712.782
-744.513
-988.774
2622.45
3564.83
-12271.7
-12994.6
19426.7
-0.85701
11.9029
-31.4067
-2.44928
93.2083
-57.3344
-101.374
109.982
-24.5413
-1.52877
175.71
-328.147
-3.55757
790.838
-106.817
-3542.25
-49.7104
5107.54
-0.251917
3.87621
-15.2458
7.23652
35.606
-32.653
-34.5609
41.6302
-5.04326
16.321
30.7872
-102.142
44.6321
154.3
-220.165
-717.248
478.817
1344.33
-0.107309
0.929601
-6.70264
6.5208
12.3628
-16.5345
-11.5083
16.3252
1.50695
9.12058
1.09723
-31.6809
14.3369
26.7017
-76.8347
-117.609
201.239
336.444
-0.0446027
0.209532
-2.70279
4.00148
3.67638
-7.78423
-3.59849
6.77038
2.18634
3.38328
-3.13657
-10.8639
4.1426
6.16745
-20.008
-13.775
64.4289
77.801
-0.01585
0.0491037
-0.906207
2.0452
0.741665
-3.43393
-0.915589
2.94459
1.37189
0.745622
-2.46929
-3.66915
1.7528
2.04818
-4.51092
0.356951
18.1213
15.2998
-0.00484996
0.0200398
-0.263464
0.994666
-0.0385894
-1.54005
-0.107793
1.4129
0.66179
-0.0754821
-1.43315
-1.20987
0.947537
0.803016
-1.02385
1.07668
5.16938
2.39876
-0.000973526
0.0083533
-0.0552909
0.430321
-0.154211
-0.63371
0.0772335
0.648947
0.267795
-0.217807
-0.685187
-0.345375
0.447417
0.327015
-0.152197
0.4844
1.18187
-0.0759194
-3.14725e-05
0.00295701
-0.00524987
0.148652
-0.0976864
-0.222267
0.0728245
0.262236
0.086355
-0.150037
-0.273143
-0.0829022
0.172293
0.127643
0.00971806
0.126865
0.158168
-0.224713
8.30279e-05
0.000916927
0.00140076
0.0238406
-0.0295258
-0.0614654
0.0378611
0.0889598
0.0183661
-0.0706344
-0.0930247
-0.0187631
0.0541738
0.0445645
0.0135254
0.014871
-0.0108158
-0.0907691
-1.33075e-05
0.000295715
0.000561298
0.00232271
-0.00915239
-0.0132978
0.0135196
0.0234608
7.26147e-05
-0.0259269
-0.027691
-0.00530131
0.0134665
0.0125402
0.00369423
-0.00333574
-0.0133227
-0.0245949
-1.03086e-05
2.54523e-05
6.00627e-05
0.000102383
-0.000912039
-0.00274972
0.00292698
0.00412897
-0.00191097
-0.00773101
-0.00729931
-0.00194872
0.00226367
0.00232208
-4.14822e-05
-0.00277843
-0.00526791
-0.00671246
-3.68492e-06
-7.38895e-06
-2.42818e-05
-3.38965e-05
-0.000213945
-0.00030579
7.93952e-06
0.00049501
-0.000806445
-0.00189822
-0.00179579
-0.000879664
-0.00018488
-0.000240458
-0.000846861
-0.001612
-0.0022694
-0.00268334
2.41259e-06
1.30743e-07
-1.17416e-05
-5.0836e-05
-6.68386e-05
-9.29759e-05
-0.000196173
-0.000313626
-0.000462664
-0.000585666
-0.000629906
-0.000605482
-0.000608029
-0.000698059
-0.00085867
-0.00103657
-0.00118941
-0.00131542
7.46057e-06
1.61199e-06
-5.0478e-06
-7.45347e-05
7.25047e-05
0.000264508
-0.00042625
-0.000852826
-0.000452021
-6.92471e-05
-0.000142911
-0.000307695
-0.000345088
-0.000311659
-0.000235448
-0.000146562
4.42331e-05
0.000333754
7.65496e-06
-1.77429e-05
7.09191e-05
-0.000928182
0.00053076
0.00218689
-0.00053189
-0.00252192
-0.000593707
0.00125449
0.000870917
0.000199195
0.00026738
0.000606193
0.00125611
0.00132954
0.00127446
0.00274919
1.21631e-05
-0.000210721
0.00122849
-0.00451385
0.00015276
0.00944972
1.94272e-05
-0.00849017
-0.00124679
0.00568338
0.0035781
0.000580788
0.000772604
0.00098326
0.00563006
0.00707306
-0.000827626
0.00101171
0.000200923
-0.00101292
0.0078751
-0.015823
-0.00666585
0.033317
0.00256599
-0.0285121
-0.00334994
0.0188707
0.0115527
0.000655858
0.00161555
-0.0100656
0.0122449
0.0511163
-0.00690337
-0.0491242
0.00135395
-0.00538659
0.0329305
-0.0460883
-0.0397886
0.109681
0.00731021
-0.0900162
-0.00455326
0.0482583
0.0364112
0.00496717
0.0214563
-0.076473
-0.0717928
0.30748
0.125334
-0.337385
0.0048631
-0.029897
0.116278
-0.119765
-0.162355
0.359687
-0.0106119
-0.263043
0.0386431
0.0589338
0.115909
0.0477417
0.149463
-0.148086
-1.02434
1.12389
1.67168
-1.03786
0.0121187
-0.109467
0.374248
-0.311701
-0.576778
1.21601
-0.264846
-0.699639
0.461405
-0.345789
0.363118
0.420159
0.167368
1.65774
-5.89735
-0.482609
10.7891
1.33317
0.0521504
-0.380343
1.16123
-0.88586
-1.9096
4.31954
-2.1365
-1.55214
3.31623
-3.63315
1.06703
2.97806
-5.21592
14.5325
-3.5134
-42.4361
29.0662
35.4207
0.181181
-1.20264
3.52121
-2.82352
-5.61689
15.6496
-13.2686
-1.48774
18.151
-20.7297
18.6026
-24.8949
-2.74581
-82.4535
284.743
-99.2489
-310.983
56.8404
0.360605
-2.20093
5.96256
-5.46893
-7.64495
31.9075
-39.1621
7.0631
34.6105
-103.511
648.635
-1218.85
722.998
-521.37
-2119.83
7086.55
-2312.69
-3729.01
-0.036188
0.0132054
-0.056425
-0.115073
0.511542
-0.418604
0.0391044
-0.241232
-2.10102
1.70618
-1674.89
9947.27
-9832.25
663.522
1021.8
-537.124
31.5025
362.36
-3.68202
-28.1931
-56.0937
-79.3975
-94.4735
-102.925
-107.925
-112.073
-118.389
-126.283
-134.003
-137.905
-132.086
-113.426
-105.628
-96.2068
-74.1683
-59.3811
-46.8619
-31.4554
-21.8899
-27.3337
-29.4184
-33.9574
-39.1722
-44.482
-52.3658
-70.1367
-108.056
-158.645
-193.074
-175.626
-147.442
-108.091
-102.47
-37.3331
-38.2242
-53.1187
-70.8016
-595.335
-1370.65
-1101.19
-919.968
-779.218
-685.439
-610.724
-554.914
-509.473
-473.514
-442.707
-420.499
-400.742
-386.987
-375.281
-367.705
-361.82
-359.865
-358.467
-358.608
-355.277
-356.823
-352.614
-342.673
-341.035
-332.917
-330.159
-323.62
-320.11
-314.437
-310.455
-305.221
-300.917
-295.875
-291.332
-286.344
-281.613
-276.607
-271.724
-266.665
-261.657
-256.532
-251.418
-246.223
-241.015
-235.744
-230.446
-225.089
-219.694
-214.243
-208.747
-203.198
-197.603
-191.965
-186.296
-180.608
-174.927
-169.294
-163.772
-158.461
-153.531
-149.26
-146.059
-141.073
-136.221
-131.831
-126.928
-122.58
-117.848
-113.475
-108.898
-104.52
-100.053
-95.6916
-91.2978
-86.9602
-82.6163
-78.3044
-73.9977
-69.7135
-65.4431
-61.1975
-56.9792
-52.8013
-48.6764
-44.6239
-40.6626
-36.8092
-31.2265
-27.3966
-24.2702
-18.3147
-11.603
-7.2725
-2.14859
2.24084
6.32284
10.6103
16.7516
20.0639
25.164
29.1437
33.5656
37.6166
41.6753
45.5474
49.3098
52.9147
56.3573
59.5499
62.8368
65.9063
68.8596
71.5846
74.0444
76.1966
78.038
79.5872
80.8812
81.9678
82.9045
83.7616
84.6206
85.5612
86.6038
87.7098
88.8307
89.9261
90.9832
92.0196
93.0814
94.2658
95.6288
97.2004
98.7766
101.109
102.212
105.598
98.4966
29.4481
60.6987
-14.2888
-532.387
-2442.67
-2713.69
-2082.04
-1216.25
-1041.88
-853.239
-1002.12
-1137.43
-1259.32
-1307.4
-1311.43
-1289.9
-1270.94
-1240.95
-1246.35
-1312.5
-1563.24
-2050.14
-2318.69
-2367.94
-2353.96
-2230.5
-1770.03
-869.981
-308.161
-183.1
-527.751
-727.655
-993.95
-1037.88
-850.346
-1366.82
-2464.24
-4440.61
-5564.99
-1494.45
-389.813
-112.685
76.7091
567.381
489.021
583.62
466.645
518.86
409.535
367.642
275.241
226.615
164.475
125.972
80.9326
55.9685
42.0131
4.62334
-1.42183
-21.7066
-28.1705
-38.4262
-42.7008
-48.8924
-50.9805
-54.4035
-55.4483
-57.1229
-57.4515
-58.0561
-57.8897
-57.8358
-57.3381
-56.8827
-56.1732
-55.479
-54.6416
-53.8105
-52.9
-51.9923
-51.0403
-50.0879
-49.1084
-48.1252
-47.1231
-46.1152
-45.0943
-44.0693
-43.0392
-42.0126
-40.9949
-39.9964
-39.027
-38.1009
-37.2347
-36.4517
-35.7825
-35.2698
-34.9748
-34.9986
-35.5004
-36.6436
-38.6317
-44.3166
-39.6506
-40.0919
-38.1026
-37.2594
-35.9055
-34.7728
-33.5603
-32.3733
-31.1886
-29.9982
-28.8192
-27.6353
-26.4609
-25.2864
-24.1202
-22.9585
-21.8061
-20.6622
-19.5295
-18.4083
-17.2988
-16.198
-15.0979
-13.9791
-12.7993
-11.4697
-10.1828
-8.43652
-5.75
-1.57387
-1.36318
0.0500634
1.39872
2.16146
3.21358
4.44822
5.40533
6.47188
7.43811
8.40234
9.31683
10.202
11.0447
11.8421
12.5734
13.1906
14.2199
14.9391
15.609
16.2411
16.8319
17.3838
17.9014
18.3923
18.8663
19.3339
19.8057
20.2911
20.7986
21.3345
21.9024
22.5039
23.1374
23.7991
24.4855
25.1941
25.9239
26.6743
27.4389
28.2176
29.0196
29.9129
30.5903
31.1621
31.6675
30.0553
21.8224
17.8283
-5.76279
-5826.07
-4017.61
-3004.11
-1979.3
-1133.57
-951.645
-1039.27
-1156.29
-1281.01
-1407.85
-1362.19
-1293.19
-1247.48
-1221.69
-1214.04
-1212.86
-1245.48
-1270.47
-1341.03
-1470.69
-1607.6
-1734.05
-1766.4
-1707.34
-1536.76
-1296.24
-1263.79
-1346.99
-1434.39
-1415.87
-2078.28
-2325.67
-2405.35
-876.086
-615.669
-859.292
112.903
319.164
246.045
445.582
483.985
480.496
444.815
346.524
286.895
204.53
160.246
110.282
80.941
49.341
31.8069
22.1764
1.47673
-4.71086
-15.1767
-19.361
-25.2215
-27.9604
-31.0132
-32.6277
-34.2532
-35.0381
-35.7921
-36.0569
-36.273
-36.2033
-36.0896
-35.8094
-35.4967
-35.0887
-34.6599
-34.1777
-33.6839
-33.1609
-32.6317
-32.0864
-31.5371
-30.9779
-30.4148
-29.8444
-29.2701
-28.6902
-28.1075
-27.5225
-26.9385
-26.3581
-25.7855
-25.2253
-24.6829
-24.1643
-23.6762
-23.2265
-22.8241
-22.4795
-22.205
-22.0142
-21.9213
-21.9349
-22.0433
-22.1892
-21.9237
-20.7213
-20.2986
-19.4125
-18.7718
-18.0106
-17.3048
-16.5754
-15.8551
-15.1331
-14.4118
-13.693
-12.9751
-12.2607
-11.5486
-10.8409
-10.1374
-9.43944
-8.74706
-8.06005
-7.37777
-6.69867
-6.01941
-5.33433
-4.63397
-3.90431
-3.1286
-2.30124
-1.32827
-0.211872
0.831062
1.14501
1.71977
2.26588
2.97412
3.55049
4.06354
4.56955
5.09821
5.58878
6.07189
6.53547
6.9853
7.41926
7.83788
8.241
8.63804
9.09218
9.46841
9.82801
10.1716
10.5031
10.8272
11.1477
11.4687
11.7948
12.1306
12.4801
12.8456
13.2274
13.6239
14.0338
14.4599
14.9059
15.3724
15.8585
16.3619
16.88
17.4146
17.9396
18.4604
18.9816
19.5086
19.9691
20.3521
20.6533
20.1609
18.1204
14.883
0.114499
-2838.29
-2836.8
-1478.79
-1089.19
-1112.96
-1369.46
-1627.36
-1574.68
-1466.73
-1326.02
-1189.44
-1064.07
-1006.8
-982.11
-967.129
-968.753
-979.191
-1007.72
-1028.4
-1071.43
-1143.63
-1216.02
-1273.67
-1309.73
-1340
-1447.82
-1712.04
-2029.85
-2140.37
-2129.71
-1168.83
-368.002
-12.9965
-106.913
758.662
795.919
105.416
300.443
300.387
368.582
327.481
279.355
216.801
162.392
121.72
84.6736
60.0444
35.7405
21.745
14.0488
0.0625244
-5.92403
-12.9195
-16.6797
-20.489
-22.8058
-24.9319
-26.2513
-27.3527
-28.0299
-28.5363
-28.7908
-28.9305
-28.9181
-28.8305
-28.6513
-28.4248
-28.1442
-27.8352
-27.4953
-27.139
-26.7653
-26.3822
-25.9888
-25.5893
-25.1825
-24.7702
-24.3514
-23.9266
-23.4951
-23.0574
-22.6136
-22.1649
-21.7124
-21.258
-20.8042
-20.3536
-19.909
-19.4735
-19.05
-18.6408
-18.2482
-17.8741
-17.5196
-17.1844
-16.8663
-16.5586
-16.2482
-15.9127
-15.5329
-14.9768
-14.3169
-13.784
-13.1661
-12.5958
-12.0011
-11.4182
-10.8307
-10.2463
-9.66285
-9.08145
-8.50267
-7.9266
-7.35399
-6.7849
-6.21989
-5.65918
-5.10357
-4.55411
-4.00916
-3.46807
-2.92952
-2.39139
-1.85068
-1.30334
-0.744528
-0.169775
0.424373
1.0573
1.7531
2.23268
2.60603
3.05733
3.5048
3.91908
4.33356
4.73777
5.12507
5.51244
5.88349
6.24687
6.60033
6.94588
7.28373
7.61472
7.94002
8.26344
8.592
8.891
9.17625
9.45085
9.72012
9.98783
10.2555
10.5245
10.7971
11.0755
11.3621
11.6574
11.9601
12.2674
12.5788
12.8987
13.2325
13.5815
13.9446
14.3195
14.703
15.1047
15.4849
15.8595
16.2328
16.6019
16.9403
17.2331
17.4592
17.2988
16.5618
14.6912
-0.370812
279.69
118.386
-817.254
-1626.36
-2216.63
-1975.1
-1742.87
-1480.43
-1240.84
-1042.17
-918.845
-848.104
-804.627
-781.886
-777.785
-785.945
-819.568
-842.246
-883.333
-950.203
-1026.33
-1099.75
-1181.6
-1262.97
-1384.34
-1608.54
-1687.9
-1607.72
-820.365
-370.977
-134.007
36.559
361.165
275.735
224.237
260.558
191.719
238.233
243.341
225.707
177.604
139.289
102.498
73.5579
50.7213
29.7627
17.0982
10.061
-1.20107
-6.96138
-12.7345
-16.3162
-19.4106
-21.5096
-23.2197
-24.4013
-25.3056
-25.9004
-26.3116
-26.5435
-26.6571
-26.6619
-26.5927
-26.4575
-26.2765
-26.0559
-25.8076
-25.5358
-25.2474
-24.945
-24.6324
-24.3107
-23.9817
-23.6454
-23.3023
-22.9519
-22.5938
-22.2271
-21.8513
-21.466
-21.0711
-20.6668
-20.2537
-19.833
-19.4063
-18.9755
-18.5427
-18.11
-17.6794
-17.2522
-16.829
-16.4097
-15.9935
-15.5789
-15.1632
-14.7417
-14.3077
-13.8515
-13.363
-12.8573
-12.3025
-11.7337
-11.1872
-10.6246
-10.0715
-9.51406
-8.96001
-8.4065
-7.85567
-7.30754
-6.7628
-6.2219
-5.68513
-5.15279
-4.62502
-4.10184
-3.58289
-3.06795
-2.56195
-2.06104
-1.56462
-1.07172
-0.581098
-0.0912113
0.399637
0.892828
1.38773
1.87856
2.43264
2.89521
3.31284
3.69552
4.10168
4.4967
4.86178
5.23727
5.59543
5.95352
6.30666
6.65024
6.98706
7.31712
7.64138
7.96041
8.27475
8.58479
8.89078
9.19095
9.47313
9.74089
9.99811
10.2508
10.5016
10.7503
10.9963
11.2404
11.4841
11.729
11.9757
12.2226
12.4664
12.7078
12.953
13.2082
13.4745
13.7508
14.0345
14.3208
14.5903
14.8696
15.1473
15.426
15.702
15.9595
16.1936
16.3807
16.3776
16.0225
14.9781
-3.95114
1906.14
-1555.49
-2544.43
-2306.09
-1817.39
-1378.09
-1055.48
-835.563
-706.179
-659.759
-638.596
-634.321
-640.53
-654.16
-673.749
-704.73
-727.658
-769.981
-820.478
-875.779
-945.407
-1028.41
-1034.49
-1050.31
-1114.08
-1145.22
-1060.56
-528.574
-205.244
42.1928
441.83
264.487
174.29
148.786
141.17
164.553
168.619
171.529
152.998
123.82
93.6003
69.1246
47.8712
28.312
15.9038
8.81588
-1.62842
-7.55734
-13.1004
-16.8304
-19.8474
-21.9777
-23.609
-24.7673
-25.6143
-26.1882
-26.5685
-26.7864
-26.8869
-26.8924
-26.8277
-26.7069
-26.5446
-26.3495
-26.1298
-25.8906
-25.6366
-25.3703
-25.0941
-24.8091
-24.5162
-24.2156
-23.9073
-23.5908
-23.2657
-22.9308
-22.5851
-22.2273
-21.8567
-21.4725
-21.0747
-20.6634
-20.2392
-19.8031
-19.3565
-18.9014
-18.4401
-17.9745
-17.506
-17.0361
-16.5645
-16.0902
-15.6119
-15.1281
-14.6367
-14.135
-13.6186
-13.082
-12.5206
-11.9611
-11.3858
-10.8072
-10.2328
-9.65576
-9.0814
-8.50751
-7.93612
-7.36732
-6.80223
-6.24148
-5.68569
-5.13531
-4.59058
-4.05172
-3.51887
-2.99206
-2.47043
-1.94868
-1.44088
-0.939178
-0.443087
0.0480706
0.535097
1.01886
1.50031
1.98047
2.45905
2.99506
3.34871
3.83939
4.25961
4.65821
5.06029
5.45139
5.82946
6.21002
6.56238
6.92864
7.28828
7.64034
7.98601
8.32564
8.65978
8.98885
9.31311
9.63239
9.94558
10.2494
10.5374
10.8086
11.067
11.3194
11.5676
11.8096
12.0435
12.2693
12.4883
12.7022
12.9119
13.1157
13.3103
13.4968
13.6835
13.8769
14.0779
14.285
14.4959
14.7067
14.9079
15.1076
15.3071
15.5106
15.7153
15.9034
16.0876
16.2411
16.2799
16.0622
15.4817
-4.2151
-2814.29
-3359.81
-2790.16
-1787.15
-1063.34
-780.292
-626.589
-560.382
-534.424
-532.71
-544.488
-563.686
-586.353
-611.983
-641.72
-664.41
-695.288
-732.254
-767.196
-814.317
-810.39
-704.832
-546.012
-520.223
-569.724
-409.027
-225.692
-97.1352
529.658
303.55
214.45
110.922
107.113
103.142
111.292
122.851
121.491
108.938
88.8318
67.5866
48.6588
32.8469
17.3191
7.08686
1.44938
-6.54244
-12.5612
-16.8302
-20.247
-22.753
-24.6463
-26.0141
-27.0014
-27.6829
-28.1361
-28.4095
-28.5477
-28.5815
-28.5376
-28.4348
-28.2883
-28.1087
-27.9048
-27.6823
-27.4458
-27.198
-26.9408
-26.6749
-26.4006
-26.1172
-25.825
-25.5233
-25.2116
-24.8891
-24.5554
-24.2095
-23.8496
-23.473
-23.0792
-22.6677
-22.2383
-21.7912
-21.327
-20.8464
-20.3511
-19.8432
-19.3256
-18.8011
-18.2698
-17.7346
-17.1951
-16.6498
-16.0973
-15.5368
-14.9679
-14.3904
-13.8033
-13.2035
-12.6216
-12.0037
-11.3767
-10.748
-10.1208
-9.49444
-8.87052
-8.24911
-7.63121
-7.01762
-6.40938
-5.80741
-5.21242
-4.62482
-4.04477
-3.47235
-2.90775
-2.35171
-1.80655
-1.28112
-0.749789
-0.224992
0.292719
0.803888
1.3091
1.80893
2.30418
2.79682
3.29094
3.8281
4.17197
4.66931
5.11077
5.53351
5.95228
6.36242
6.76869
7.18169
7.62991
8.02546
8.41031
8.78783
9.15874
9.52326
9.8816
10.234
10.5805
10.9206
11.253
11.5743
11.8788
12.1634
12.4318
12.6916
12.944
13.1849
13.412
13.6248
13.8248
14.0141
14.1942
14.3636
14.5183
14.6598
14.7979
14.9395
15.085
15.2325
15.3803
15.526
15.6633
15.7949
15.9272
16.0665
16.2114
16.339
16.479
16.5987
16.6562
16.5524
16.1609
-5.10202
-5048.72
-3362.91
-1676.59
-742.349
-533.519
-466.09
-446.853
-449.952
-464.368
-486.682
-513.068
-541.653
-571.147
-598.586
-618.752
-639.817
-660.432
-664.736
-636.392
-548.363
-303.626
-68.3476
-117.542
-270.784
-247.096
-162.944
-22.1261
339.208
224.231
127.925
93.9329
65.5205
73.8683
78.2036
85.0694
86.9206
79.5338
66.1132
50.9241
36.555
21.4912
11.0606
4.6281
-4.02402
-9.81211
-15.1556
-19.3736
-22.5985
-25.1055
-26.9969
-28.4081
-29.4311
-30.1519
-30.6351
-30.9349
-31.0931
-31.1438
-31.1132
-31.022
-30.8856
-30.7154
-30.5195
-30.3035
-30.0721
-29.8282
-29.5737
-29.3094
-29.0353
-28.7501
-28.4508
-28.1382
-27.8122
-27.4721
-27.1175
-26.7491
-26.3678
-25.9729
-25.5544
-25.1149
-24.6532
-24.1695
-23.6643
-23.1381
-22.5912
-22.025
-21.4419
-20.8461
-20.2456
-19.631
-19.0126
-18.3893
-17.7586
-17.1187
-16.4697
-15.8129
-15.1509
-14.4891
-13.8429
-13.1578
-12.4564
-11.751
-11.0467
-10.346
-9.64962
-8.95838
-8.27252
-7.59267
-6.91969
-6.25466
-5.59858
-4.95222
-4.31589
-3.68951
-3.07278
-2.4655
-1.86765
-1.27903
-0.696913
-0.12594
0.436007
0.989329
1.53463
2.07234
2.60269
3.12593
3.64412
4.1734
4.72685
5.1146
5.62473
6.09741
6.55381
7.00306
7.44564
7.884
8.31888
8.74048
9.16036
9.57266
9.97769
10.3756
10.7663
11.1498
11.5262
11.8953
12.2568
12.6094
12.9498
13.2726
13.5722
13.8523
14.1209
14.3788
14.6204
14.843
15.0464
15.2323
15.4035
15.5619
15.7066
15.8319
15.9397
16.0407
16.1421
16.2431
16.342
16.4379
16.5301
16.6132
16.6882
16.7649
16.8509
16.9466
17.0925
17.1919
17.2739
17.3209
17.2622
17.0059
-82.8757
-4615.01
-1262.48
-286.244
-318.617
-350.442
-371.242
-391.143
-414.671
-444.181
-473.628
-503.104
-531.377
-555.696
-572.737
-576.83
-562.284
-512.723
-401.824
-205.051
31.0879
242.26
170.657
-22.2877
-87.4706
-96.2604
130.452
150.822
151.588
82.5495
56.252
48.3506
45.9695
53.652
58.4472
61.0115
58.2234
50.1352
39.4384
28.4648
16.1058
7.13265
1.72611
-5.47196
-11.591
-16.4819
-20.6424
-24.0316
-26.7324
-28.8649
-30.5176
-31.7749
-32.7077
-33.3786
-33.8396
-34.1344
-34.2987
-34.3616
-34.3469
-34.2734
-34.1546
-34.0006
-33.8171
-33.6055
-33.3715
-33.1184
-32.8478
-32.5617
-32.2621
-31.9495
-31.6071
-31.244
-30.862
-30.4601
-30.0382
-29.5992
-29.1491
-28.7059
-28.2203
-27.7138
-27.1807
-26.6219
-26.039
-25.432
-24.8005
-24.1446
-23.4658
-22.7649
-22.0354
-21.335
-20.6339
-19.9271
-19.2102
-18.4806
-17.7386
-16.9863
-16.2262
-15.4583
-14.6794
-13.8921
-13.0994
-12.3062
-11.5167
-10.7334
-9.95765
-9.18998
-8.43041
-7.67927
-6.93736
-6.20586
-5.48599
-4.77865
-4.08415
-3.40212
-2.73181
-2.07256
-1.42392
-0.785523
-0.156872
0.46056
1.06722
1.66369
2.25081
2.82887
3.39782
3.9566
4.49873
5.098
5.64635
6.12591
6.64746
7.15576
7.65138
8.13854
8.62045
9.09638
9.56596
10.0265
10.4816
10.9296
11.3699
11.8022
12.2261
12.6413
13.0475
13.4445
13.8321
14.2093
14.5735
14.919
15.2374
15.5326
15.8123
16.0764
16.3184
16.5356
16.7286
16.9
17.053
17.1904
17.3119
17.4099
17.4862
17.5521
17.6141
17.6704
17.7197
17.7629
17.8014
17.8296
17.8486
17.8702
17.9027
17.9444
17.9887
18.0383
18.081
18.1053
18.0575
17.8811
-222.016
-834.768
318.81
-34.9488
-251.293
-316.792
-348.522
-376.77
-402.463
-427.052
-451.95
-474.457
-491.104
-495.878
-480.474
-432.956
-332.653
-135.914
91.097
277.597
387.966
287.243
94.2586
-0.253463
-31.4785
55.3504
70.8962
65.7754
52.7184
30.6428
27.5908
29.511
33.4926
39.0281
42.004
41.8686
37.9154
31.0598
22.9719
12.9333
5.13828
0.205463
-6.07071
-11.7659
-16.741
-20.9847
-24.6151
-27.6649
-30.1859
-32.2423
-33.8936
-35.1965
-36.2038
-36.9639
-37.5195
-37.9081
-38.1605
-38.3001
-38.3518
-38.3346
-38.263
-38.1493
-38.0002
-37.7943
-37.548
-37.2669
-36.9522
-36.6062
-36.2398
-35.8932
-35.4568
-34.9937
-34.5082
-33.9981
-33.4589
-32.8933
-32.2932
-31.6136
-31.0616
-30.5136
-29.9283
-29.3107
-28.6652
-27.9918
-27.288
-26.5532
-25.7903
-25.0082
-24.2282
-23.4013
-22.568
-21.7305
-20.8822
-20.0198
-19.1442
-18.2588
-17.3673
-16.4692
-15.5596
-14.6616
-13.7654
-12.8726
-11.9868
-11.1113
-10.2477
-9.39639
-8.55673
-7.72861
-6.91263
-6.11
-5.32213
-4.55019
-3.79446
-3.05425
-2.32828
-1.61532
-0.914552
-0.22549
0.452103
1.11746
1.77042
2.41162
3.04248
3.66311
4.27369
4.87558
5.47195
6.10711
6.64531
7.2104
7.76953
8.31736
8.85393
9.38212
9.9052
10.4213
10.9299
11.4305
11.9241
12.41
12.8878
13.3567
13.8159
14.2647
14.7025
15.1291
15.5441
15.947
16.3361
16.7061
17.0456
17.3592
17.6516
17.9225
18.1646
18.3766
18.5602
18.7187
18.8557
18.9751
19.077
19.1521
19.2021
19.2371
19.2628
19.276
19.2767
19.2682
19.2546
19.2297
19.1954
19.1644
19.1446
19.1327
19.1243
19.1196
19.1144
19.1023
19.0418
18.9041
-297.127
1412.13
411.808
-144.401
-275.793
-317.101
-342.181
-360.066
-376.096
-390.18
-399.747
-399.025
-386.036
-343.241
-259.316
-121.157
88.6553
271.064
380.048
433.56
320.965
151.281
56.3179
8.39123
4.01638
12.543
17.0525
16.0382
13.4105
11.1761
14.8602
19.517
24.0807
27.7709
29.1849
27.9749
24.2407
18.7815
10.882
4.18
-0.350398
-5.97887
-11.3066
-16.2276
-20.6671
-24.6077
-28.0721
-31.078
-33.6519
-35.8271
-37.6381
-39.1178
-40.3053
-41.2396
-41.9588
-42.5
-42.8943
-43.136
-43.2657
-43.3058
-43.2708
-43.1851
-43.1239
-42.8894
-42.5932
-42.2429
-41.8314
-41.3453
-40.7513
-39.9402
-39.3697
-38.812
-38.2327
-37.6296
-36.9793
-36.3104
-35.6518
-35.0517
-34.402
-33.7679
-33.0514
-32.2987
-31.5218
-30.7196
-29.8842
-29.0106
-28.1007
-27.1594
-26.1899
-25.2245
-24.2611
-23.2957
-22.3174
-21.322
-20.3122
-19.2942
-18.2729
-17.2523
-16.2356
-15.2252
-14.2196
-13.221
-12.2339
-11.2624
-10.3089
-9.37321
-8.45388
-7.55004
-6.66187
-5.79047
-4.93746
-4.10426
-3.2912
-2.49722
-1.72034
-0.958685
-0.211027
0.523399
1.24537
1.95409
2.64879
3.32994
4.00065
4.66005
5.3076
5.94673
6.60633
7.21913
7.83178
8.43663
9.03307
9.61863
10.1935
10.7609
11.3227
11.8772
12.4237
12.9622
13.4931
14.0159
14.53
15.0344
15.5279
16.0093
16.478
16.9332
17.3745
17.8016
18.2142
18.6079
18.9688
19.3043
19.6094
19.8854
20.126
20.3323
20.5076
20.6552
20.779
20.883
20.9691
21.0251
21.0549
21.0631
21.0544
21.0253
20.9779
20.9185
20.8544
20.7784
20.6944
20.6136
20.5423
20.4758
20.4117
20.3507
20.2933
20.2377
20.1503
20.0215
-318.297
2066.16
100.543
-231.411
-297.226
-317.357
-325.63
-328.235
-325.82
-318.165
-294.095
-264.712
-197.666
-97.8614
34.3493
194.618
354.482
431.087
414.745
301.272
161.851
69.1868
4.16397
-28.4081
-25.0054
-16.8877
-10.1824
-5.49066
-1.55978
2.61859
7.89282
12.7269
16.5915
19.0366
19.5755
18.1228
14.9365
9.12294
3.54942
-0.569961
-5.65974
-10.6888
-15.5482
-20.1488
-24.4241
-28.3375
-31.8753
-35.034
-37.8207
-40.252
-42.3443
-44.0769
-45.4893
-46.6164
-47.4937
-48.1755
-48.7913
-49.0744
-49.2238
-49.2633
-49.1666
-48.8634
-48.1542
-47.8417
-47.5477
-47.1923
-46.7555
-46.2322
-45.6571
-45.1279
-44.3685
-43.5227
-42.6403
-41.7917
-40.817
-39.8325
-38.8871
-38.0029
-37.1399
-36.2627
-35.4184
-34.5621
-33.6964
-32.8142
-31.8916
-30.9147
-29.8861
-28.8165
-27.7197
-26.6243
-25.5258
-24.4225
-23.3013
-22.1589
-21.002
-19.8409
-18.6844
-17.5385
-16.4058
-15.2832
-14.1696
-13.0679
-11.9833
-10.9213
-9.88488
-8.87346
-7.88445
-6.91579
-5.967
-5.03883
-4.13295
-3.25117
-2.39366
-1.55904
-0.744523
0.0525885
0.833909
1.60033
2.35446
3.09494
3.81998
4.52869
5.22941
5.9179
6.59039
7.269
7.92702
8.58472
9.23055
9.86558
10.4917
11.1072
11.713
12.3117
12.9054
13.491
14.0689
14.639
15.2013
15.7554
16.3005
16.8355
17.3587
17.8686
18.3639
18.8438
19.3074
19.7543
20.1854
20.598
20.9775
21.3388
21.653
21.9293
22.1655
22.3658
22.5345
22.6743
22.7881
22.8803
22.9538
22.9946
23.0117
22.9966
22.9543
22.883
22.7883
22.6795
22.5674
22.4431
22.3151
22.1875
22.0652
21.9425
21.82
21.7008
21.5885
21.4847
21.3616
21.2197
-291.207
973.45
-160.832
-289.71
-304.833
-300.599
-290.547
-275.227
-245.683
-207.433
-168.063
-87.2418
12.7259
124.844
240.286
337.907
372.866
324.5
221.225
141.634
55.5169
-14.4527
-41.9955
-48.0703
-39.8537
-30.211
-21.6593
-14.4707
-8.18687
-2.44178
2.82766
7.13932
10.2295
11.8801
11.9181
10.3385
7.32929
2.62538
-1.11903
-5.74306
-10.5241
-15.3461
-20.1112
-24.7325
-29.0985
-33.1721
-36.9257
-40.3395
-43.409
-46.164
-48.7335
-50.7026
-52.2878
-53.5221
-54.3843
-54.7877
-54.4656
-54.6176
-54.835
-55.0011
-55.0566
-55.0101
-55.0109
-54.6904
-54.2302
-53.6529
-52.9651
-52.1086
-51.1586
-50.2453
-48.9737
-47.5395
-46.0083
-44.3732
-42.8585
-41.4328
-40.1281
-38.987
-38.0212
-37.1906
-36.333
-35.4461
-34.5721
-33.7052
-32.7749
-31.748
-30.6331
-29.458
-28.2548
-27.0791
-25.8587
-24.6151
-23.3457
-22.0528
-20.7477
-19.4459
-18.1617
-16.9006
-15.661
-14.4394
-13.2335
-12.0458
-10.8822
-9.74915
-8.65083
-7.58626
-6.55141
-5.54277
-4.55871
-3.59925
-2.66593
-1.76121
-0.884325
-0.0338718
0.793778
1.60242
2.39401
3.16818
3.93317
4.68543
5.42182
6.13497
6.85046
7.55312
8.22423
8.9301
9.57033
10.2675
10.922
11.5725
12.2143
12.846
13.4693
14.0867
14.6984
15.3022
15.8993
16.4892
17.0717
17.6464
18.2123
18.7681
19.3118
19.8414
20.3552
20.8519
21.33
21.7889
22.2294
22.6504
23.0401
23.4304
23.7439
24.0113
24.2395
24.4347
24.6
24.7365
24.845
24.9291
24.9928
25.0221
25.036
24.9989
24.9221
24.8091
24.6695
24.5149
24.3586
24.19
24.0265
23.8552
23.6808
23.5001
23.3179
23.1399
22.972
22.8181
22.6546
22.4846
-270.999
3.57218
-287.418
-306.767
-294.584
-269.842
-237.861
-195.096
-144.315
-100.525
-17.8868
67.608
147.558
216.17
263.082
267.624
226.7
180.803
111.789
46.5862
-56.1252
-51.6691
-59.9395
-55.4954
-45.8463
-35.9619
-27.0715
-19.3336
-12.6277
-6.84703
-2.01642
1.70404
4.19631
5.37457
5.20932
3.08476
0.033229
-3.14049
-7.24626
-11.7439
-16.4754
-21.3267
-26.2407
-31.2917
-35.8214
-40.0669
-44.0246
-47.6408
-50.8355
-53.4532
-55.0781
-57.1461
-59.0232
-60.5524
-61.685
-62.416
-62.9047
-62.7596
-62.7668
-62.8106
-62.7142
-62.449
-62.0242
-61.2684
-60.267
-59.1059
-57.9638
-56.328
-54.4102
-52.1761
-49.9709
-47.7074
-45.4031
-43.1258
-40.974
-38.9983
-37.2691
-35.9086
-35.0248
-34.7004
-34.0914
-33.3576
-32.6936
-32.1243
-31.4058
-30.4737
-29.3641
-28.1432
-26.8912
-25.7983
-24.492
-23.1218
-21.7267
-20.3141
-18.8965
-17.4917
-16.1154
-14.7744
-13.4663
-12.1855
-10.9277
-9.6945
-8.49267
-7.32912
-6.20963
-5.13361
-4.0958
-3.09072
-2.11494
-1.16716
-0.248615
0.636035
1.49172
2.31817
3.11987
3.9025
4.66886
5.41094
6.15549
6.88944
7.61149
8.28718
9.00047
9.70163
10.3125
11.0367
11.6827
12.3471
13.0001
13.6464
14.2842
14.9129
15.5345
16.1524
16.7613
17.3648
17.9627
18.5546
19.1401
19.7186
20.2893
20.8506
21.4001
21.9353
22.454
22.9548
23.4355
23.8943
24.3312
24.7447
25.127
25.5368
25.8303
26.0795
26.2989
26.4925
26.6596
26.7984
26.907
26.9875
27.0431
27.0632
27.0833
27.0215
26.9083
26.7568
26.5787
26.3852
26.19
25.9826
25.7949
25.5805
25.3513
25.1112
24.8701
24.6358
24.4145
24.2116
24.0066
23.7991
-253.41
-133.852
-310.489
-304.465
-270.762
-223.334
-163.734
-103.545
-62.6626
-1.72119
63.2165
114.319
152.771
173.817
171.038
162.773
150.256
63.678
-2.64612
-40.3309
-71.7106
-68.4775
-66.6281
-59.0332
-49.4452
-39.9994
-31.4328
-23.9804
-17.6547
-12.3838
-8.19482
-5.1463
-3.28219
-2.65865
-3.65235
-5.54308
-9.10395
-12.5301
-16.4178
-20.6933
-25.2001
-29.7519
-34.0819
-37.6265
-42.1719
-46.8165
-51.2772
-55.4271
-59.2035
-62.6198
-65.943
-68.5663
-70.6887
-72.2928
-73.3514
-73.7718
-73.0194
-70.3838
-69.5289
-69.0981
-68.299
-67.1711
-65.6953
-63.8252
-61.6185
-59.1178
-56.1907
-53.3471
-50.3947
-47.2893
-44.1086
-40.8773
-37.6364
-34.6147
-31.8516
-29.3602
-27.2099
-25.7054
-25.1302
-27.0176
-26.9541
-26.5497
-26.4459
-26.8418
-26.738
-26.1425
-25.2063
-24.0657
-22.7939
-21.4114
-19.9773
-18.5823
-17.1798
-15.7637
-14.3457
-12.9429
-11.5762
-10.2575
-8.9819
-7.73566
-6.50908
-5.30276
-4.1288
-2.99496
-1.91473
-0.888607
0.092214
1.03632
1.94843
2.83103
3.68354
4.49065
5.27266
6.01983
6.74005
7.44353
8.13821
8.78324
9.46919
10.1404
10.8218
11.3745
12.0798
12.7071
13.3138
13.9523
14.5732
15.1959
15.8159
16.4316
17.0394
17.6399
18.2351
18.8227
19.402
19.9771
20.5474
21.1127
21.6723
22.2257
22.7723
23.3105
23.8373
24.3499
24.8458
25.3237
25.7811
26.2143
26.6224
27.0071
27.3497
27.5899
27.8384
28.0747
28.2936
28.4927
28.6678
28.8146
28.9291
29.0102
29.059
29.0707
29.0929
28.9988
28.8521
28.6727
28.469
28.2484
28.0212
27.7818
27.5798
27.3176
27.0295
26.7316
26.437
26.1528
25.8843
25.6365
25.3921
25.1426
-217.447
-228.965
-321.997
-280.245
-223.294
-165.283
-107.859
-54.0017
-12.9372
12.3388
56.7787
78.2184
93.1616
100.939
105.234
66.5206
-7.98577
-42.5094
-56.316
-73.0648
-80.2363
-76.1136
-70.5864
-62.6927
-54.0894
-45.8174
-38.5583
-32.6192
-28.3463
-23.7028
-20.2388
-18.1563
-16.7575
-16.4151
-16.9956
-18.0069
-18.5757
-21.6015
-25.6114
-30.1471
-34.973
-39.9246
-44.9199
-50.1682
-55.5025
-60.7816
-65.7897
-70.3764
-74.4859
-78.1551
-81.4778
-84.1509
-85.8635
-86.6898
-86.7843
-86.5532
-83.2882
-78.6243
-76.4299
-73.6437
-70.8148
-67.8034
-64.5864
-61.1822
-57.6963
-54.2123
-50.7443
-47.3705
-44.0638
-40.7927
-37.5574
-34.3859
-31.1903
-28.3293
-25.719
-23.2535
-20.8335
-18.4687
-16.7298
-15.8668
-14.5259
-13.9679
-14.5591
-17.426
-18.1796
-17.978
-17.301
-16.3629
-15.2108
-13.7119
-12.454
-11.2752
-10.1037
-8.91195
-7.69811
-6.47764
-5.28431
-4.14226
-3.04114
-1.95267
-0.860156
0.234769
1.30029
2.33903
3.31384
4.22404