/*--------------------------------*- C++ -*----------------------------------*\
| =========                 |                                                 |
| \\      /  F ield         | OpenFOAM: The Open Source CFD Toolbox           |
|  \\    /   O peration     | Version:  2112                                  |
|   \\  /    A nd           | Website:  www.openfoam.com                      |
|    \\/     M anipulation  |                                                 |
\*---------------------------------------------------------------------------*/
FoamFile
{
    version     2.0;
    format      ascii;
    arch        "LSB;label=32;scalar=64";
    class       surfaceScalarField;
    location    "0.29";
    object      ddtCorrDdt0(phi);
}
// * * * * * * * * * * * * * * * * * * * * * * * * * * * * * * * * * * * * * //

dimensions      [0 3 -2 0 0 0 0];

oriented        oriented;

internalField   nonuniform List<scalar> 
24170
(
-1.88074e-10
1.88799e-10
1.20771e-09
-1.39441e-09
-3.65096e-10
1.57414e-09
-1.72782e-09
1.36394e-09
-1.08269e-10
-1.61862e-09
-1.55429e-10
4.80733e-11
1.56382e-09
-1.71851e-09
-6.63108e-09
8.19575e-09
6.97817e-09
-1.36084e-08
-6.05879e-09
1.3038e-08
-8.75859e-09
2.70105e-09
5.73811e-08
-6.61382e-08
-3.17502e-08
8.91331e-08
-9.21311e-08
6.03831e-08
6.65765e-08
-1.58705e-07
8.33732e-08
-1.67944e-08
1.42807e-08
6.90946e-08
6.11387e-08
-4.68558e-08
-2.16257e-10
4.05671e-10
3.78683e-11
-1.64734e-09
1.18782e-09
4.25383e-10
-1.94533e-09
4.49821e-09
1.83007e-09
-5.39313e-09
5.51709e-09
-3.63808e-09
-7.9657e-09
1.1765e-08
8.27138e-09
-8.04051e-09
-5.23977e-09
-9.63512e-11
2.69694e-09
5.1024e-09
2.37747e-08
-1.83755e-08
-6.94788e-08
2.71169e-08
2.63442e-08
-6.68814e-09
1.13246e-07
-2.6517e-08
-4.57167e-08
2.60016e-10
-1.6836e-08
-4.56729e-08
-4.84739e-08
1.00734e-07
7.1251e-08
-5.85845e-08
1.21356e-10
2.84732e-10
-6.87506e-10
-8.37603e-10
3.9985e-10
-6.6105e-10
1.6098e-09
3.28918e-09
-1.38783e-09
-2.39475e-09
-2.04848e-09
-2.97667e-09
4.68212e-09
5.03509e-09
-1.63464e-09
-1.72298e-09
-1.69405e-09
-3.61075e-11
7.62477e-09
-4.21541e-09
-1.10984e-08
3.48856e-10
-2.94803e-09
1.8968e-08
1.82593e-08
-2.78938e-08
3.35574e-08
-4.18132e-08
-3.56821e-08
6.95016e-08
-1.60136e-07
7.87829e-08
5.47489e-08
-1.14149e-07
-6.26119e-08
1.88613e-07
2.04634e-11
2.64572e-10
-3.37559e-10
-4.78995e-10
1.08374e-10
-1.10633e-09
8.80311e-10
2.51791e-09
-6.80616e-10
-8.33232e-10
-9.78361e-10
-2.67832e-09
2.14127e-09
1.91602e-09
-3.74149e-10
7.93091e-10
5.37769e-11
-4.63315e-10
4.73575e-10
-4.63432e-09
-2.96123e-09
3.78472e-09
7.08863e-09
8.9194e-09
6.31067e-09
-2.71144e-08
-1.92227e-08
-1.62781e-08
-2.80624e-08
7.83431e-08
4.0134e-08
1.05881e-08
5.99701e-08
-1.33984e-07
5.99664e-09
-8.63767e-09
6.07278e-11
2.04101e-10
7.41752e-11
-4.92026e-10
-2.81974e-10
-7.49721e-10
2.8568e-10
1.95075e-09
2.23664e-10
-7.70772e-10
-4.29954e-10
-2.02423e-09
4.24312e-10
1.06221e-09
4.20469e-10
7.9745e-10
4.32693e-10
-4.74952e-10
-8.5696e-10
-3.34394e-09
5.74819e-10
2.3538e-09
5.67978e-09
3.81548e-09
-3.99871e-09
-1.74346e-08
-1.57361e-08
-4.5393e-09
1.54879e-08
4.71205e-08
3.89902e-08
-1.2913e-08
-1.13298e-08
-8.36629e-08
1.88682e-08
-2.42009e-08
1.31687e-10
7.26459e-11
1.40133e-10
-5.00153e-10
-5.20491e-10
-8.87461e-11
1.81448e-10
1.24918e-09
6.37374e-10
-1.22636e-09
-3.37133e-10
-1.04937e-09
-1.39523e-10
8.64951e-10
5.61596e-10
9.67398e-11
5.14301e-10
-4.27184e-10
-4.92629e-10
-2.33644e-09
1.1073e-09
7.54575e-10
3.04254e-09
1.88107e-09
-3.8901e-09
-1.0501e-08
-5.86143e-09
-2.56692e-09
1.66284e-08
2.46318e-08
1.03312e-08
-6.61493e-09
-2.35009e-08
-4.98303e-08
5.63341e-09
-1.0266e-08
1.02051e-10
-2.91962e-11
-2.07466e-12
-3.95764e-10
-4.94835e-10
4.04296e-10
3.16935e-10
4.37695e-10
6.04788e-10
-1.51394e-09
-3.30477e-10
-1.13834e-10
-1.72366e-10
7.07119e-10
4.94344e-10
-5.69652e-10
5.32748e-10
-4.65217e-10
-7.95409e-12
-1.79528e-09
8.0792e-10
-6.07611e-11
1.77275e-09
9.16879e-10
-1.8626e-09
-6.86497e-09
-2.71725e-09
-1.71149e-09
8.39581e-09
1.35195e-08
4.85568e-09
-3.07424e-09
-1.48014e-08
-3.0173e-08
-2.45451e-09
-6.71361e-09
2.85293e-11
-5.75435e-11
-1.35755e-10
-2.31257e-10
-2.86754e-10
5.55526e-10
4.24504e-10
-2.73336e-10
3.57002e-10
-1.44624e-09
-2.7142e-10
5.14795e-10
-1.97286e-11
4.5564e-10
4.03601e-10
-9.9274e-10
5.42666e-10
-6.04e-10
2.36828e-10
-1.48911e-09
5.24397e-10
-3.47933e-10
1.26835e-09
1.73386e-10
-9.92535e-10
-4.60359e-09
-1.62293e-09
-1.08057e-09
4.95035e-09
6.94664e-09
4.8248e-09
-2.94841e-09
-7.00975e-09
-1.83385e-08
-5.12566e-09
-4.33892e-09
-1.92397e-11
-3.81487e-11
-1.73187e-10
-7.71235e-11
-5.5614e-11
4.38137e-10
4.03348e-10
-7.32128e-10
9.97694e-11
-1.14251e-09
-1.53426e-10
7.6813e-10
1.49749e-10
1.52603e-10
3.48633e-10
-1.19147e-09
5.15418e-10
-7.70605e-10
2.87119e-10
-1.2606e-09
3.87628e-10
-4.48202e-10
9.19417e-10
-3.58141e-10
-4.86741e-10
-3.19716e-09
-5.20435e-10
-1.04662e-09
3.60588e-09
2.82051e-09
3.98804e-09
-3.33057e-09
-2.80829e-09
-1.15424e-08
-4.98835e-09
-2.94608e-09
-3.66781e-11
-1.34108e-12
-1.20419e-10
6.76023e-12
1.09697e-10
2.08151e-10
2.89157e-10
-9.11482e-10
-6.453e-11
-7.88746e-10
-1.62022e-11
7.19868e-10
2.72513e-10
-1.36053e-10
3.18533e-10
-1.23742e-09
4.41638e-10
-8.93638e-10
2.5761e-10
-1.07649e-09
3.42036e-10
-5.32559e-10
7.29677e-10
-7.45728e-10
-1.87428e-11
-2.4487e-09
2.02493e-10
-1.26788e-09
2.68278e-09
3.40119e-10
2.8339e-09
-3.48195e-09
-1.18503e-09
-7.52386e-09
-4.01467e-09
-2.15927e-09
-2.71354e-11
2.5893e-11
-3.69956e-11
1.67044e-11
1.7937e-10
-8.15552e-12
1.54075e-10
-8.86159e-10
-1.16951e-10
-5.17729e-10
1.05871e-10
4.97014e-10
3.34453e-10
-3.64685e-10
2.91749e-10
-1.19478e-09
3.48741e-10
-9.50708e-10
2.31962e-10
-9.59819e-10
3.64059e-10
-6.64808e-10
6.58568e-10
-1.04044e-09
2.89624e-10
-2.08002e-09
5.2452e-10
-1.50309e-09
1.90512e-09
-1.04088e-09
1.74896e-09
-3.3263e-09
-6.4259e-10
-5.13292e-09
-3.22271e-09
-1.4352e-09
-9.21939e-12
3.51644e-11
1.81834e-11
-1.06974e-11
1.43055e-10
-1.33065e-10
5.01807e-11
-7.93362e-10
-7.42933e-11
-3.93382e-10
1.51934e-10
2.70625e-10
2.88827e-10
-5.01772e-10
2.26762e-10
-1.13294e-09
2.36207e-10
-9.60423e-10
2.04994e-10
-9.28939e-10
3.42491e-10
-8.02722e-10
5.10281e-10
-1.20874e-09
3.53167e-10
-1.92347e-09
5.22232e-10
-1.67278e-09
1.11611e-09
-1.63542e-09
8.43715e-10
-3.05461e-09
-3.48827e-10
-3.9411e-09
-2.86266e-09
-7.0955e-10
3.08122e-12
3.20684e-11
4.19772e-11
-4.97061e-11
1.29098e-10
-2.20362e-10
1.77058e-12
-6.66271e-10
-5.27971e-11
-3.39109e-10
2.07665e-10
9.81372e-12
3.05656e-10
-6.00162e-10
2.21611e-10
-1.04935e-09
2.25223e-10
-9.6457e-10
2.3899e-10
-9.43348e-10
3.96824e-10
-9.61322e-10
5.28711e-10
-1.34148e-09
4.20333e-10
-1.81602e-09
5.40716e-10
-1.7941e-09
8.59037e-10
-1.95469e-09
5.56467e-10
-2.75296e-09
-2.28331e-10
-3.15715e-09
-2.66731e-09
-4.24377e-10
1.00786e-11
2.18619e-11
4.77162e-11
-8.76189e-11
9.48852e-11
-2.67901e-10
-2.54085e-11
-5.46428e-10
-1.39577e-11
-3.51088e-10
2.28635e-10
-2.33376e-10
2.9156e-10
-6.63758e-10
2.13596e-10
-9.7215e-10
2.18699e-10
-9.70552e-10
2.69784e-10
-9.95457e-10
4.1499e-10
-1.10768e-09
4.96325e-10
-1.42405e-09
4.27115e-10
-1.74805e-09
4.90651e-10
-1.85885e-09
6.02196e-10
-2.06738e-09
3.38577e-10
-2.49039e-09
-1.23268e-10
-2.6962e-09
-2.56112e-09
-2.3012e-10
1.12408e-11
1.03245e-11
3.95636e-11
-1.1643e-10
5.72275e-11
-2.8616e-10
-2.5071e-11
-4.64823e-10
2.5481e-11
-4.02418e-10
2.11552e-10
-4.20313e-10
2.51257e-10
-7.04423e-10
1.97856e-10
-9.1983e-10
2.08915e-10
-9.8284e-10
2.7222e-10
-1.06013e-09
3.75186e-10
-1.21211e-09
4.10313e-10
-1.46066e-09
3.59881e-10
-1.69904e-09
3.58338e-10
-1.85864e-09
3.40169e-10
-2.05041e-09
1.38409e-10
-2.28966e-09
-1.25289e-10
-2.43329e-09
-2.47015e-09
-2.16778e-10
8.57416e-12
1.24972e-12
2.54233e-11
-1.33978e-10
2.79427e-11
-2.89487e-10
-1.28359e-11
-4.24941e-10
4.18569e-11
-4.58099e-10
1.59847e-10
-5.39378e-10
1.84239e-10
-7.30003e-10
1.5543e-10
-8.92338e-10
1.65158e-10
-9.9402e-10
2.0902e-10
-1.10554e-09
2.5599e-10
-1.26066e-09
2.48655e-10
-1.45484e-09
1.89877e-10
-1.64168e-09
1.30978e-10
-1.80099e-09
4.19243e-11
-1.96243e-09
-1.24912e-10
-2.12367e-09
-3.11017e-10
-2.24779e-09
-2.34397e-09
-4.37543e-10
5.03485e-12
-4.44146e-12
1.12022e-11
-1.4099e-10
5.99475e-12
-2.85197e-10
-1.23183e-11
-4.07616e-10
2.01369e-11
-4.91611e-10
7.48528e-11
-5.95235e-10
8.01102e-11
-7.36495e-10
5.63989e-11
-8.69964e-10
4.60734e-11
-9.85111e-10
4.56094e-11
-1.10652e-09
3.07757e-11
-1.24723e-09
-2.40698e-11
-1.40131e-09
-1.15553e-10
-1.55136e-09
-2.27163e-10
-1.69038e-09
-3.67212e-10
-1.82318e-09
-5.44014e-10
-1.94747e-09
-7.36645e-10
-2.05556e-09
-2.15621e-09
-9.24609e-10
1.40616e-12
-6.54663e-12
-3.40799e-12
-1.37004e-10
-1.91016e-11
-2.70357e-10
-4.10094e-11
-3.8659e-10
-4.63503e-11
-4.87184e-10
-5.0174e-11
-5.92365e-10
-7.9895e-11
-7.07775e-10
-1.29151e-10
-8.21752e-10
-1.83645e-10
-9.31677e-10
-2.46658e-10
-1.04454e-09
-3.31048e-10
-1.1638e-09
-4.46683e-10
-1.28653e-09
-5.93338e-10
-1.40545e-09
-7.6588e-10
-1.51846e-09
-9.65014e-10
-1.62455e-09
-1.1905e-09
-1.72237e-09
-1.4365e-09
-1.80985e-09
-1.8938e-09
-1.69909e-09
-3.81824e-12
-3.32806e-12
-2.2418e-11
-1.19052e-10
-5.76877e-11
-2.35696e-10
-1.05838e-10
-3.39018e-10
-1.6001e-10
-4.33552e-10
-2.25377e-10
-5.27521e-10
-3.10568e-10
-6.23082e-10
-4.1535e-10
-7.17464e-10
-5.37073e-10
-8.10415e-10
-6.78009e-10
-9.04043e-10
-8.4337e-10
-9.98829e-10
-1.03725e-09
-1.093e-09
-1.259e-09
-1.18401e-09
-1.50769e-09
-1.27005e-09
-1.78222e-09
-1.35028e-09
-2.08105e-09
-1.42379e-09
-2.40237e-09
-1.48879e-09
-1.55031e-09
-2.74608e-09
-5.47366e-12
1.91985e-12
-2.58964e-11
-9.8828e-11
-6.20527e-11
-1.99673e-10
-1.11571e-10
-2.89559e-10
-1.72945e-10
-3.72167e-10
-2.46454e-10
-4.53935e-10
-3.32937e-10
-5.36481e-10
-4.33341e-10
-6.16908e-10
-5.48365e-10
-6.95231e-10
-6.78684e-10
-7.73555e-10
-8.25358e-10
-8.52007e-10
-9.89135e-10
-9.29112e-10
-1.16981e-09
-1.00328e-09
-1.36742e-09
-1.07245e-09
-1.58106e-09
-1.13674e-09
-1.8084e-09
-1.19665e-09
-2.04858e-09
-1.2489e-09
-1.29592e-09
-2.30329e-09
-5.44169e-12
7.32667e-12
-2.68362e-11
-7.74305e-11
-6.3854e-11
-1.6258e-10
-1.13282e-10
-2.39974e-10
-1.75698e-10
-3.09502e-10
-2.50548e-10
-3.78766e-10
-3.36012e-10
-4.50627e-10
-4.33306e-10
-5.19193e-10
-5.44177e-10
-5.83905e-10
-6.68727e-10
-6.48557e-10
-8.06803e-10
-7.13506e-10
-9.58338e-10
-7.7721e-10
-1.12226e-09
-8.3907e-10
-1.30046e-09
-8.94083e-10
-1.49316e-09
-9.44007e-10
-1.69308e-09
-9.96838e-10
-1.89885e-09
-1.04336e-09
-1.07738e-09
-2.11769e-09
-4.37995e-12
1.17326e-11
-2.44616e-11
-5.72964e-11
-5.92869e-11
-1.27645e-10
-1.03892e-10
-1.95178e-10
-1.60669e-10
-2.52452e-10
-2.30052e-10
-3.09023e-10
-3.08464e-10
-3.71792e-10
-3.96595e-10
-4.30567e-10
-4.97036e-10
-4.82924e-10
-6.10069e-10
-5.34957e-10
-7.3514e-10
-5.87873e-10
-8.71409e-10
-6.40429e-10
-1.01462e-09
-6.95424e-10
-1.1714e-09
-7.36986e-10
-1.35007e-09
-7.65158e-10
-1.52568e-09
-8.21208e-10
-1.6907e-09
-8.78444e-10
-8.9546e-10
-1.87284e-09
-2.522e-12
1.42628e-11
-1.94476e-11
-4.03613e-11
-5.065e-11
-9.63908e-11
-8.9576e-11
-1.5614e-10
-1.37798e-10
-2.04047e-10
-1.98689e-10
-2.47877e-10
-2.68993e-10
-3.01155e-10
-3.4658e-10
-3.52566e-10
-4.3417e-10
-3.94842e-10
-5.33956e-10
-4.34619e-10
-6.46592e-10
-4.74664e-10
-7.69152e-10
-5.17304e-10
-8.87785e-10
-5.76288e-10
-1.01815e-09
-6.06202e-10
-1.20504e-09
-5.77964e-10
-1.36479e-09
-6.61263e-10
-1.46759e-09
-7.75575e-10
-7.5594e-10
-1.60714e-09
-5.97137e-13
1.48254e-11
-1.30449e-11
-2.79718e-11
-3.93175e-11
-7.01592e-11
-7.47334e-11
-1.20727e-10
-1.13945e-10
-1.64799e-10
-1.6457e-10
-1.97153e-10
-2.28472e-10
-2.37087e-10
-2.96157e-10
-2.84624e-10
-3.69711e-10
-3.2093e-10
-4.55326e-10
-3.48569e-10
-5.59964e-10
-3.69541e-10
-6.75142e-10
-4.01642e-10
-7.59547e-10
-4.91412e-10
-8.3585e-10
-5.29488e-10
-1.10227e-09
-3.11161e-10
-1.26642e-09
-4.96789e-10
-1.21998e-09
-8.21739e-10
-6.60394e-10
-1.31535e-09
2.77418e-13
1.44795e-11
-7.48231e-12
-2.03329e-11
-2.6852e-11
-5.09214e-11
-6.11356e-11
-8.65688e-11
-9.24823e-11
-1.33572e-10
-1.32217e-10
-1.57495e-10
-1.92688e-10
-1.76641e-10
-2.50931e-10
-2.26312e-10
-3.0999e-10
-2.61696e-10
-3.77272e-10
-2.81019e-10
-4.82482e-10
-2.64019e-10
-6.12333e-10
-2.7149e-10
-6.51399e-10
-4.52046e-10
-5.49105e-10
-6.31491e-10
-1.08033e-09
2.20404e-10
-1.35718e-09
-2.1953e-10
-8.87815e-10
-1.29069e-09
-6.38418e-10
-9.09427e-10
5.83641e-13
1.38051e-11
-3.68395e-12
-1.62469e-11
-1.60042e-11
-3.88304e-11
-4.83854e-11
-5.44358e-11
-7.36481e-11
-1.086e-10
-1.04917e-10
-1.26487e-10
-1.64705e-10
-1.17079e-10
-2.11867e-10
-1.7928e-10
-2.61678e-10
-2.11907e-10
-2.98534e-10
-2.44097e-10
-4.07391e-10
-1.5507e-10
-5.86673e-10
-9.2196e-11
-6.31601e-10
-4.0709e-10
-3.82856e-11
-1.22474e-09
-1.19997e-09
1.38231e-09
-1.70001e-09
2.80896e-10
-3.97482e-10
-2.59272e-09
-6.22559e-10
-4.12854e-10
1.57305e-12
1.21152e-11
-6.46326e-13
-1.43e-11
-1.06996e-11
-2.91337e-11
-3.57763e-11
-2.97479e-11
-5.67969e-11
-8.80586e-11
-8.66267e-11
-9.71089e-11
-1.45715e-10
-5.84111e-11
-1.76193e-10
-1.4912e-10
-2.28179e-10
-1.6013e-10
-2.24386e-10
-2.48039e-10
-3.74137e-10
-5.46084e-12
-5.27855e-10
6.11694e-11
-7.96419e-10
-1.38845e-10
1.11778e-09
-3.13914e-09
-2.11954e-09
4.61966e-09
-2.38423e-09
5.45908e-10
1.35509e-09
-6.33152e-09
1.27198e-09
-5.38913e-10
4.02702e-12
7.81951e-12
1.27601e-12
-1.20534e-11
-1.28224e-11
-1.56866e-11
-2.21466e-11
-2.10888e-11
-4.44433e-11
-6.65759e-11
-8.2886e-11
-5.94337e-11
-1.19507e-10
-2.24853e-11
-1.61724e-10
-1.07434e-10
-2.15635e-10
-1.06614e-10
-6.27595e-11
-4.01387e-10
-4.84224e-10
4.15516e-10
-4.24326e-10
4.50156e-13
-1.30594e-09
7.42003e-10
2.83564e-09
-7.28125e-09
-1.93869e-09
9.39388e-09
-3.92576e-09
2.53329e-09
2.96154e-09
-1.32183e-08
5.09427e-09
-8.60246e-10
6.83137e-12
5.36199e-13
-7.61098e-15
-5.94367e-12
-1.71845e-11
6.26158e-13
2.52896e-13
-3.94223e-11
-6.10026e-11
-6.35362e-12
-9.06746e-11
-3.07362e-11
8.46584e-12
-1.22486e-10
-1.91909e-10
9.2278e-11
-3.73351e-10
7.42353e-11
-1.59929e-10
-6.15435e-10
-1.26002e-10
3.8083e-10
6.75023e-10
-8.01635e-10
2.7136e-09
-1.29754e-09
-1.20432e-08
7.47495e-09
9.77441e-09
-1.24239e-08
1.66846e-08
-4.37656e-09
-1.47631e-08
1.82299e-08
1.26913e-09
-1.09375e-08
4.84615e-13
-5.53048e-12
-4.98168e-12
-4.45021e-11
-5.09554e-11
-8.17875e-11
-2.04353e-10
-1.12148e-10
-3.7998e-11
-6.53533e-10
-2.72867e-10
-1.07467e-09
-2.37234e-09
5.10257e-09
-7.32128e-09
-1.16977e-08
6.53231e-09
7.80144e-09
1.91438e-07
-1.91437e-07
4.60522e-07
-2.69084e-07
7.01894e-07
-2.41371e-07
8.90492e-07
-1.88598e-07
1.02238e-06
-1.31887e-07
1.10135e-06
-7.89732e-08
1.13584e-06
-3.44861e-08
1.12797e-06
7.87392e-09
1.08003e-06
4.79336e-08
9.95244e-07
8.47913e-08
8.82003e-07
1.13241e-07
7.5167e-07
1.30334e-07
6.17511e-07
1.34159e-07
4.92635e-07
1.24877e-07
3.89404e-07
1.03232e-07
3.18546e-07
7.08589e-08
2.87608e-07
3.09387e-08
3.05966e-07
-1.83575e-08
3.74014e-07
-6.80468e-08
4.7406e-07
-1.00046e-07
5.67125e-07
-9.30643e-08
6.4216e-07
-7.50335e-08
7.12239e-07
-7.00782e-08
7.73228e-07
-6.09875e-08
7.98406e-07
-2.51771e-08
7.57998e-07
4.04093e-08
6.35135e-07
1.22864e-07
4.27203e-07
2.07934e-07
1.57558e-07
2.69647e-07
-1.05991e-07
2.63551e-07
-3.13627e-07
2.07637e-07
-4.48668e-07
1.35042e-07
-4.34202e-07
-1.44638e-08
-4.68795e-07
3.45941e-08
-5.44124e-07
7.53304e-08
-2.2292e-07
-3.21202e-07
4.63495e-08
-2.69268e-07
2.08139e-07
-1.61788e-07
6.76381e-07
-4.68241e-07
1.35435e-06
-6.77968e-07
1.51186e-06
-1.57505e-07
1.42179e-06
9.00664e-08
1.32061e-06
1.0118e-07
1.19379e-06
1.26823e-07
1.06888e-06
1.24912e-07
9.48095e-07
1.20787e-07
8.37768e-07
1.10328e-07
7.38074e-07
9.96947e-08
6.50447e-07
8.76288e-08
5.75024e-07
7.54237e-08
5.10392e-07
6.46339e-08
4.55479e-07
5.49139e-08
4.08855e-07
4.66255e-08
3.69303e-07
3.95536e-08
3.35689e-07
3.36148e-08
3.07022e-07
2.86681e-08
2.82521e-07
2.45021e-08
2.61508e-07
2.10143e-08
2.4347e-07
1.80386e-08
2.278e-07
1.56703e-08
2.14164e-07
1.36363e-08
2.02367e-07
1.17977e-08
1.91899e-07
1.04684e-08
1.82483e-07
9.41526e-09
1.73941e-07
8.54193e-09
1.66067e-07
7.87445e-09
1.58755e-07
7.31098e-09
1.51875e-07
6.88024e-09
1.45355e-07
6.52025e-09
1.39109e-07
6.24568e-09
1.33089e-07
6.02038e-09
1.27239e-07
5.85025e-09
1.21526e-07
5.71363e-09
1.15915e-07
5.612e-09
1.10384e-07
5.53199e-09
1.04913e-07
5.47314e-09
9.94875e-08
5.42707e-09
9.40968e-08
5.39278e-09
8.87339e-08
5.36514e-09
8.3393e-08
5.34341e-09
7.80707e-08
5.32473e-09
7.27643e-08
5.3089e-09
6.74719e-08
5.29455e-09
6.21916e-08
5.28187e-09
5.69215e-08
5.27027e-09
5.16596e-08
5.25992e-09
4.64037e-08
5.25036e-09
4.11518e-08
5.24207e-09
3.59034e-08
5.23411e-09
3.06606e-08
5.22627e-09
2.54277e-08
5.21811e-09
2.02092e-08
5.20902e-09
1.5009e-08
5.19813e-09
9.83006e-09
5.18453e-09
4.67508e-09
5.16702e-09
-4.53285e-10
5.14515e-09
-5.55697e-09
5.12367e-09
-1.06449e-08
5.10989e-09
-1.57006e-08
5.07883e-09
-2.06844e-08
5.00754e-09
-2.61808e-08
5.52012e-09
-3.05446e-08
4.38741e-09
-3.49285e-08
4.40681e-09
-3.9332e-08
4.42544e-09
-4.36032e-08
4.29181e-09
-4.78153e-08
4.23106e-09
-5.1932e-08
4.13369e-09
-5.59761e-08
4.05911e-09
-5.99404e-08
3.97715e-09
-6.38327e-08
3.90335e-09
-6.76549e-08
3.83131e-09
-7.14117e-08
3.7643e-09
-7.51072e-08
3.70166e-09
-7.87458e-08
3.6435e-09
-8.23318e-08
3.59e-09
-8.58693e-08
3.54069e-09
-8.93622e-08
3.49561e-09
-9.28139e-08
3.45422e-09
-9.62275e-08
3.41624e-09
-9.96056e-08
3.38094e-09
-1.0295e-07
3.34776e-09
-1.06262e-07
3.31579e-09
-1.09541e-07
3.28392e-09
-1.12787e-07
3.25056e-09
-1.15996e-07
3.21376e-09
-1.19161e-07
3.16957e-09
-1.22264e-07
3.10761e-09
-1.25287e-07
3.02651e-09
-1.28189e-07
2.90537e-09
-1.30915e-07
2.72748e-09
-1.33283e-07
2.36868e-09
-1.36344e-07
3.06017e-09
-1.39646e-07
3.30009e-09
-1.42377e-07
2.72797e-09
-1.45137e-07
2.75494e-09
-1.47755e-07
2.61087e-09
-1.50298e-07
2.53361e-09
-1.52716e-07
2.40787e-09
-1.55012e-07
2.28416e-09
-1.57175e-07
2.15153e-09
-1.59202e-07
2.01442e-09
-1.61074e-07
1.86009e-09
-1.62785e-07
1.70095e-09
-1.64324e-07
1.53002e-09
-1.65685e-07
1.3532e-09
-1.6686e-07
1.16887e-09
-1.67845e-07
9.79598e-10
-1.68632e-07
7.83528e-10
-1.69214e-07
5.79792e-10
-1.69582e-07
3.65821e-10
-1.69724e-07
1.39779e-10
-1.69625e-07
-9.97771e-11
-1.69282e-07
-3.44894e-10
-1.68699e-07
-5.84196e-10
-1.67894e-07
-8.06482e-10
-1.66891e-07
-1.00399e-09
-1.6572e-07
-1.17221e-09
-1.64413e-07
-1.3095e-09
-1.62999e-07
-1.41598e-09
-1.61507e-07
-1.49375e-09
-1.59961e-07
-1.54803e-09
-1.58376e-07
-1.5874e-09
-1.56753e-07
-1.62529e-09
-1.55089e-07
-1.66609e-09
-1.5339e-07
-1.70109e-09
-1.51672e-07
-1.72003e-09
-1.49961e-07
-1.71289e-09
-1.48288e-07
-1.67449e-09
-1.46683e-07
-1.60692e-09
-1.45166e-07
-1.51818e-09
-1.43739e-07
-1.42843e-09
-1.42384e-07
-1.35616e-09
-1.41067e-07
-1.31851e-09
-1.39785e-07
-1.28289e-09
-1.38353e-07
-1.4325e-09
-1.37023e-07
-1.33093e-09
-1.34925e-07
-2.09937e-09
-1.31413e-07
-3.51292e-09
-1.31068e-07
-3.46114e-10
-9.41248e-09
-1.21657e-07
1.41563e-08
-2.05592e-07
1.19007e-07
-3.73934e-07
2.30448e-07
-3.52811e-07
3.08935e-07
-2.67083e-07
3.58385e-07
-1.81337e-07
3.89033e-07
-1.0962e-07
4.08108e-07
-5.35599e-08
3.99304e-07
1.66787e-08
3.55628e-07
9.16107e-08
2.811e-07
1.5932e-07
1.8593e-07
2.08413e-07
8.33226e-08
2.32942e-07
-1.50306e-08
2.32513e-07
-1.00236e-07
2.10084e-07
-1.66761e-07
1.69757e-07
-2.11931e-07
1.1603e-07
-2.35974e-07
5.49823e-08
-2.46116e-07
-8.21473e-09
-2.45199e-07
-6.89627e-08
-2.23706e-07
-1.21538e-07
-1.58721e-07
-1.58048e-07
-5.74372e-08
-1.76316e-07
4.54632e-08
-1.72977e-07
1.24204e-07
-1.39727e-07
1.69053e-07
-7.00249e-08
1.71975e-07
3.74899e-08
1.21626e-07
1.73215e-07
1.87549e-08
3.10807e-07
-1.01554e-07
3.89958e-07
-1.92266e-07
3.54264e-07
-2.37263e-07
2.52636e-07
-2.25681e-07
1.23462e-07
-4.06358e-08
-1.99507e-07
3.77344e-07
-3.83383e-07
8.07534e-07
-3.54858e-07
1.15491e-06
-6.68581e-07
1.59534e-06
-7.09697e-07
1.76873e-06
-3.35173e-07
1.48233e-06
-1.81837e-07
9.727e-07
-1.68337e-07
8.05983e-07
9.21343e-09
7.73289e-07
1.22761e-07
7.04341e-07
1.7013e-07
6.33964e-07
1.97202e-07
5.63764e-07
1.95114e-07
4.99396e-07
1.85156e-07
4.4264e-07
1.67085e-07
3.94235e-07
1.48102e-07
3.53238e-07
1.28627e-07
3.18154e-07
1.10509e-07
2.8844e-07
9.43489e-08
2.63103e-07
8.02529e-08
2.41501e-07
6.82284e-08
2.2297e-07
5.80858e-08
2.07059e-07
4.95266e-08
1.93312e-07
4.24165e-08
1.81337e-07
3.64779e-08
1.70844e-07
3.15084e-08
1.61529e-07
2.73541e-08
1.53266e-07
2.3934e-08
1.45808e-07
2.10947e-08
1.38883e-07
1.8723e-08
1.3253e-07
1.68216e-08
1.26663e-07
1.52823e-08
1.21175e-07
1.403e-08
1.16017e-07
1.30315e-08
1.11103e-07
1.22245e-08
1.06395e-07
1.15884e-08
1.01832e-07
1.10834e-08
9.73845e-08
1.06933e-08
9.30125e-08
1.03927e-08
8.86946e-08
1.01686e-08
8.44053e-08
1.00038e-08
8.01303e-08
9.88801e-09
7.58544e-08
9.8092e-09
7.15697e-08
9.75947e-09
6.72683e-08
9.73038e-09
6.29469e-08
9.71623e-09
5.86027e-08
9.71155e-09
5.42356e-08
9.71288e-09
4.98454e-08
9.71728e-09
4.54334e-08
9.72319e-09
4.10003e-08
9.72951e-09
3.65473e-08
9.73587e-09
3.20749e-08
9.74211e-09
2.75834e-08
9.74819e-09
2.30729e-08
9.75394e-09
1.85447e-08
9.75906e-09
1.40012e-08
9.76278e-09
9.44778e-09
9.76397e-09
4.8919e-09
9.76093e-09
3.42137e-10
9.75141e-09
-4.19271e-09
9.73291e-09
-8.70387e-09
9.70284e-09
-1.31825e-08
9.65868e-09
-1.76183e-08
9.59836e-09
-2.19946e-08
9.52024e-09
-2.62849e-08
9.42221e-09
-3.04825e-08
9.29933e-09
-3.44677e-08
9.0161e-09
-3.83037e-08
9.37937e-09
-4.26557e-08
8.76231e-09
-4.68554e-08
8.62876e-09
-5.09391e-08
8.53019e-09
-5.50019e-08
8.37429e-09
-5.89846e-08
8.23169e-09
-6.29061e-08
8.07118e-09
-6.67532e-08
7.92029e-09
-7.05332e-08
7.76913e-09
-7.42458e-08
7.62619e-09
-7.78956e-08
7.48955e-09
-8.1486e-08
7.3616e-09
-8.50211e-08
7.24233e-09
-8.8505e-08
7.13186e-09
-9.19414e-08
7.03005e-09
-9.53343e-08
6.93651e-09
-9.86869e-08
6.85078e-09
-1.02002e-07
6.77209e-09
-1.05283e-07
6.69959e-09
-1.08531e-07
6.63197e-09
-1.11748e-07
6.56784e-09
-1.14934e-07
6.50556e-09
-1.18089e-07
6.44319e-09
-1.21213e-07
6.37858e-09
-1.24304e-07
6.30939e-09
-1.27362e-07
6.23238e-09
-1.30394e-07
6.14357e-09
-1.33409e-07
6.04443e-09
-1.36433e-07
5.93205e-09
-1.39502e-07
5.79816e-09
-1.42802e-07
5.66926e-09
-1.45615e-07
5.87298e-09
-1.48157e-07
5.83971e-09
-1.50946e-07
5.5127e-09
-1.53561e-07
5.36447e-09
-1.5613e-07
5.17322e-09
-1.58586e-07
4.98033e-09
-1.6093e-07
4.74185e-09
-1.63146e-07
4.48954e-09
-1.65232e-07
4.22574e-09
-1.67169e-07
3.94074e-09
-1.68951e-07
3.63128e-09
-1.70564e-07
3.30374e-09
-1.71999e-07
2.95647e-09
-1.73247e-07
2.59414e-09
-1.74301e-07
2.21813e-09
-1.75158e-07
1.83171e-09
-1.75812e-07
1.43394e-09
-1.76259e-07
1.02451e-09
-1.76495e-07
6.00576e-10
-1.76512e-07
1.55042e-10
-1.76297e-07
-3.16063e-10
-1.75842e-07
-8.01381e-10
-1.7515e-07
-1.27766e-09
-1.74234e-07
-1.72322e-09
-1.73118e-07
-2.12198e-09
-1.71827e-07
-2.46457e-09
-1.70391e-07
-2.74696e-09
-1.6884e-07
-2.96858e-09
-1.67204e-07
-3.13232e-09
-1.65507e-07
-3.2466e-09
-1.6377e-07
-3.32654e-09
-1.61999e-07
-3.39781e-09
-1.60196e-07
-3.47166e-09
-1.58365e-07
-3.53392e-09
-1.56522e-07
-3.56567e-09
-1.54688e-07
-3.54857e-09
-1.52891e-07
-3.47257e-09
-1.51159e-07
-3.34091e-09
-1.4951e-07
-3.16866e-09
-1.47947e-07
-2.99258e-09
-1.46457e-07
-2.84765e-09
-1.45014e-07
-2.76183e-09
-1.43591e-07
-2.70758e-09
-1.42176e-07
-2.84813e-09
-1.40629e-07
-2.87865e-09
-1.3917e-07
-3.55936e-09
-1.38012e-07
-4.67191e-09
-1.34134e-07
-4.22543e-09
-1.20358e-08
-1.31512e-07
-1.49068e-07
-5.65228e-08
-2.98547e-07
-2.24455e-07
-3.75171e-07
-2.76186e-07
-3.85096e-07
-2.57157e-07
-3.47402e-07
-2.1903e-07
-3.08894e-07
-1.48127e-07
-3.09408e-07
-5.30446e-08
-3.522e-07
5.94714e-08
-4.27461e-07
1.66873e-07
-5.18169e-07
2.50028e-07
-6.08342e-07
2.98586e-07
-6.85932e-07
3.10533e-07
-7.44044e-07
2.90626e-07
-7.80042e-07
2.46083e-07
-7.94388e-07
1.84105e-07
-7.89575e-07
1.11218e-07
-7.6972e-07
3.51276e-08
-7.35296e-07
-4.26378e-08
-6.90507e-07
-1.13751e-07
-6.38322e-07
-1.73721e-07
-5.7921e-07
-2.17159e-07
-5.15231e-07
-2.40293e-07
-4.50566e-07
-2.37641e-07
-3.89536e-07
-2.00755e-07
-3.383e-07
-1.2126e-07
-3.01318e-07
5.10061e-10
-2.69376e-07
1.41275e-07
-2.49267e-07
2.907e-07
-1.839e-07
3.24592e-07
-2.28714e-08
1.93238e-07
3.10459e-07
-8.06925e-08
7.63654e-07
-3.2973e-07
1.16789e-06
-6.03744e-07
1.5486e-06
-7.64086e-07
1.72664e-06
-5.32895e-07
1.42183e-06
-3.63774e-07
9.92757e-07
-2.8062e-07
7.7492e-07
-1.17334e-07
6.29691e-07
-3.66065e-08
4.33418e-07
2.79376e-08
3.20713e-07
1.21919e-07
2.74035e-07
1.69442e-07
2.47964e-07
1.96202e-07
2.38937e-07
2.0623e-07
2.33059e-07
2.00993e-07
2.29002e-07
1.89214e-07
2.23924e-07
1.72165e-07
2.18009e-07
1.54017e-07
2.11011e-07
1.35627e-07
2.03089e-07
1.18433e-07
1.9465e-07
1.02789e-07
1.85974e-07
8.89303e-08
1.7738e-07
7.68231e-08
1.69102e-07
6.6365e-08
1.612e-07
5.74294e-08
1.53772e-07
4.9846e-08
1.4682e-07
4.34301e-08
1.40325e-07
3.80043e-08
1.34243e-07
3.34368e-08
1.28564e-07
2.96135e-08
1.2324e-07
2.64194e-08
1.18205e-07
2.37579e-08
1.13455e-07
2.15715e-08
1.08956e-07
1.97814e-08
1.04662e-07
1.83239e-08
1.00544e-07
1.71498e-08
9.65575e-08
1.62105e-08
9.2675e-08
1.54708e-08
8.88621e-08
1.48962e-08
8.50948e-08
1.44607e-08
8.13484e-08
1.41394e-08
7.76049e-08
1.39125e-08
7.38479e-08
1.37615e-08
7.00657e-08
1.36711e-08
6.62489e-08
1.36271e-08
6.23917e-08
1.36181e-08
5.84902e-08
1.36334e-08
5.45435e-08
1.36646e-08
5.0552e-08
1.37049e-08
4.6518e-08
1.3749e-08
4.24439e-08
1.37933e-08
3.83332e-08
1.38359e-08
3.41885e-08
1.38757e-08
3.00127e-08
1.39124e-08
2.58075e-08
1.39465e-08
2.15737e-08
1.39785e-08
1.7312e-08
1.40087e-08
1.30231e-08
1.4037e-08
8.7093e-09
1.40626e-08
4.37534e-09
1.40836e-08
2.80411e-11
1.40966e-08
-4.3245e-09
1.40978e-08
-8.6739e-09
1.40829e-08
-1.3012e-08
1.40481e-08
-1.7331e-08
1.39901e-08
-2.16232e-08
1.39068e-08
-2.58818e-08
1.37976e-08
-3.00996e-08
1.36603e-08
-3.42568e-08
1.34776e-08
-3.85758e-08
1.33564e-08
-4.23505e-08
1.31753e-08
-4.64943e-08
1.2927e-08
-5.05599e-08
1.27145e-08
-5.45138e-08
1.2503e-08
-5.84014e-08
1.22796e-08
-6.22118e-08
1.20581e-08
-6.59566e-08
1.18301e-08
-6.9632e-08
1.16082e-08
-7.32431e-08
1.13908e-08
-7.67915e-08
1.11836e-08
-8.02816e-08
1.0987e-08
-8.3717e-08
1.08031e-08
-8.7102e-08
1.06322e-08
-9.04408e-08
1.04745e-08
-9.37374e-08
1.03297e-08
-9.69956e-08
1.01972e-08
-1.00219e-07
1.00763e-08
-1.0341e-07
9.9657e-09
-1.06573e-07
9.86424e-09
-1.09708e-07
9.77004e-09
-1.12818e-07
9.681e-09
-1.15904e-07
9.59477e-09
-1.18966e-07
9.50875e-09
-1.22003e-07
9.42031e-09
-1.25016e-07
9.32684e-09
-1.28006e-07
9.2257e-09
-1.30974e-07
9.11514e-09
-1.33924e-07
8.99733e-09
-1.36862e-07
8.8725e-09
-1.39797e-07
8.73508e-09
-1.42746e-07
8.61781e-09
-1.4548e-07
8.60668e-09
-1.48108e-07
8.46469e-09
-1.50776e-07
8.17769e-09
-1.53354e-07
7.93668e-09
-1.55859e-07
7.67252e-09
-1.58271e-07
7.38348e-09
-1.6058e-07
7.04172e-09
-1.62766e-07
6.66632e-09
-1.6482e-07
6.26863e-09
-1.66727e-07
5.83783e-09
-1.68478e-07
5.37239e-09
-1.70059e-07
4.87642e-09
-1.71461e-07
4.351e-09
-1.72674e-07
3.80086e-09
-1.7369e-07
3.22969e-09
-1.74504e-07
2.64198e-09
-1.75112e-07
2.03909e-09
-1.75513e-07
1.42288e-09
-1.75705e-07
7.90649e-10
-1.75682e-07
1.30965e-10
-1.75434e-07
-5.65431e-10
-1.74951e-07
-1.28546e-09
-1.74235e-07
-1.9949e-09
-1.73297e-07
-2.66205e-09
-1.72158e-07
-3.2629e-09
-1.7084e-07
-3.78323e-09
-1.69373e-07
-4.21624e-09
-1.67783e-07
-4.55999e-09
-1.661e-07
-4.81706e-09
-1.64351e-07
-4.99751e-09
-1.62558e-07
-5.12123e-09
-1.60732e-07
-5.22546e-09
-1.58877e-07
-5.32904e-09
-1.56999e-07
-5.4137e-09
-1.55113e-07
-5.45331e-09
-1.5324e-07
-5.42288e-09
-1.51406e-07
-5.30813e-09
-1.49635e-07
-5.11319e-09
-1.47946e-07
-4.8591e-09
-1.46342e-07
-4.5983e-09
-1.44809e-07
-4.38141e-09
-1.43332e-07
-4.2394e-09
-1.41881e-07
-4.15998e-09
-1.40466e-07
-4.26386e-09
-1.38972e-07
-4.37341e-09
-1.37538e-07
-4.99424e-09
-1.36189e-07
-6.0215e-09
-1.3364e-07
-6.7764e-09
-1.33411e-08
-1.32335e-07
-6.35204e-08
6.99847e-09
-1.77227e-07
-1.10747e-07
-2.46451e-07
-2.06961e-07
-2.83345e-07
-2.20262e-07
-3.41959e-07
-1.60414e-07
-4.47443e-07
-4.26417e-08
-5.96233e-07
9.57463e-08
-7.58516e-07
2.21756e-07
-9.04859e-07
3.13217e-07
-1.01627e-06
3.6144e-07
-1.08607e-06
3.68382e-07
-1.11705e-06
3.41522e-07
-1.11657e-06
2.90146e-07
-1.093e-06
2.22508e-07
-1.05333e-06
1.44437e-07
-1.00299e-06
6.0878e-08
-9.43717e-07
-2.41437e-08
-8.79033e-07
-1.07321e-07
-8.08916e-07
-1.83868e-07
-7.33208e-07
-2.49428e-07
-6.5148e-07
-2.98886e-07
-5.64887e-07
-3.26885e-07
-4.75031e-07
-3.27496e-07
-3.83636e-07
-2.92148e-07
-2.93452e-07
-2.11442e-07
-2.10166e-07
-8.27745e-08
-1.17626e-07
4.87362e-08
7.2969e-08
1.00106e-07
3.98225e-07
-6.62091e-10
8.35773e-07
-2.44308e-07
1.27379e-06
-5.18713e-07
1.56737e-06
-6.233e-07
1.48461e-06
-5.2099e-07
1.12703e-06
-4.06503e-07
8.53901e-07
-2.59761e-07
6.37056e-07
-1.46928e-07
4.20588e-07
-6.41498e-08
2.79193e-07
2.40627e-08
1.75934e-07
6.66539e-08
9.65286e-08
1.07345e-07
6.72361e-08
1.51213e-07
6.16957e-08
1.74983e-07
7.01652e-08
1.87734e-07
8.63775e-08
1.90019e-07
1.03003e-07
1.84369e-07
1.1812e-07
1.74098e-07
1.29691e-07
1.60595e-07
1.37816e-07
1.45894e-07
1.42577e-07
1.30867e-07
1.4456e-07
1.1645e-07
1.44389e-07
1.0296e-07
1.42669e-07
9.06517e-08
1.3986e-07
7.96329e-08
1.36328e-07
6.98976e-08
1.32356e-07
6.14028e-08
1.28164e-07
5.40391e-08
1.23896e-07
4.76986e-08
1.1964e-07
4.2261e-08
1.15452e-07
3.76249e-08
1.11372e-07
3.3694e-08
1.07414e-07
3.03783e-08
1.03575e-07
2.75969e-08
9.98604e-08
2.52858e-08
9.62615e-08
2.33804e-08
9.27612e-08
2.18241e-08
8.93426e-08
2.05684e-08
8.59837e-08
1.95692e-08
8.2665e-08
1.87895e-08
7.93656e-08
1.81956e-08
7.60676e-08
1.77588e-08
7.2754e-08
1.74532e-08
6.9411e-08
1.72559e-08
6.60267e-08
1.71463e-08
6.25921e-08
1.71063e-08
5.91004e-08
1.71196e-08
5.55478e-08
1.71716e-08
5.19327e-08
1.72497e-08
4.82558e-08
1.73429e-08
4.45197e-08
1.74424e-08
4.07284e-08
1.75418e-08
3.68867e-08
1.76367e-08
3.29994e-08
1.77248e-08
2.90713e-08
1.78051e-08
2.51062e-08
1.78781e-08
2.1107e-08
1.79449e-08
1.70751e-08
1.8007e-08
1.30111e-08
1.8066e-08
8.91539e-09
1.81225e-08
4.78928e-09
1.81759e-08
6.36273e-10
1.82234e-08
-3.53782e-09
1.82602e-08
-7.72555e-09
1.828e-08
-1.19188e-08
1.82767e-08
-1.61094e-08
1.82453e-08
-2.029e-08
1.81821e-08
-2.44531e-08
1.80848e-08
-2.8591e-08
1.79526e-08
-3.26965e-08
1.77842e-08
-3.6782e-08