/*--------------------------------*- C++ -*----------------------------------*\
| =========                 |                                                 |
| \\      /  F ield         | OpenFOAM: The Open Source CFD Toolbox           |
|  \\    /   O peration     | Version:  2112                                  |
|   \\  /    A nd           | Website:  www.openfoam.com                      |
|    \\/     M anipulation  |                                                 |
\*---------------------------------------------------------------------------*/
FoamFile
{
    version     2.0;
    format      ascii;
    arch        "LSB;label=32;scalar=64";
    class       volScalarField;
    location    "0.29";
    object      k;
}
// * * * * * * * * * * * * * * * * * * * * * * * * * * * * * * * * * * * * * //

dimensions      [0 2 -2 0 0 0 0];

internalField   nonuniform List<scalar> 
12225
(
0.535036
0.804695
0.988842
1.09682
1.1518
1.1708
1.16763
1.15734
1.1375
1.113
1.08957
1.06335
1.0421
1.01676
0.999837
0.975898
0.964249
0.939405
0.378382
0.385988
0.391195
0.394521
0.396574
0.398217
0.399262
0.401769
0.404103
0.408788
0.413477
0.420487
0.427329
0.438918
0.445177
0.459972
0.469159
0.483485
0.375171
0.374423
0.37241
0.36845
0.363706
0.358067
0.352456
0.346658
0.341085
0.336166
0.331398
0.327544
0.32433
0.321717
0.319321
0.318589
0.317724
0.317649
0.375055
0.374582
0.373491
0.371419
0.368913
0.365778
0.362581
0.358909
0.355371
0.351587
0.348091
0.344404
0.341307
0.337778
0.335117
0.332062
0.329951
0.327185
0.375065
0.374811
0.374215
0.373085
0.371702
0.369985
0.368188
0.366106
0.364053
0.361792
0.359668
0.357341
0.355295
0.352956
0.351082
0.348825
0.347211
0.344981
0.37507
0.374926
0.374563
0.373871
0.373014
0.371973
0.370855
0.369581
0.368289
0.366883
0.365516
0.364043
0.362676
0.361179
0.35988
0.358385
0.357225
0.35571
0.375059
0.374975
0.374736
0.374276
0.373702
0.373015
0.372264
0.371422
0.370551
0.369618
0.368684
0.367701
0.366751
0.365751
0.364823
0.36382
0.362965
0.361934
0.375038
0.374986
0.374821
0.3745
0.374094
0.373614
0.373082
0.372494
0.371876
0.371222
0.370556
0.369866
0.369181
0.368479
0.367799
0.367097
0.366453
0.365726
0.375014
0.374975
0.374856
0.374624
0.374329
0.37398
0.37359
0.373162
0.372709
0.372231
0.371741
0.371237
0.37073
0.370215
0.369707
0.369193
0.3687
0.368167
0.374992
0.37495
0.374857
0.374688
0.374468
0.374209
0.373918
0.373598
0.373258
0.3729
0.37253
0.372151
0.371767
0.371378
0.37099
0.3706
0.370216
0.369812
0.37497
0.374916
0.374837
0.37471
0.374545
0.37435
0.37413
0.373888
0.373629
0.373356
0.373073
0.372781
0.372485
0.372185
0.371883
0.371579
0.371275
0.37096
0.374953
0.374881
0.374805
0.374703
0.374574
0.374423
0.374251
0.374062
0.373858
0.373643
0.373419
0.373187
0.372951
0.37271
0.372466
0.372219
0.37197
0.371714
0.374938
0.374846
0.374767
0.37468
0.374577
0.374459
0.374325
0.374177
0.374018
0.373848
0.37367
0.373486
0.373295
0.3731
0.372902
0.3727
0.372494
0.372282
0.374924
0.374809
0.37472
0.374639
0.374555
0.374464
0.374362
0.374251
0.37413
0.374001
0.373864
0.373721
0.373572
0.373418
0.373259
0.373096
0.372929
0.372756
0.374913
0.374773
0.374668
0.374583
0.374509
0.374435
0.374359
0.374278
0.374189
0.374094
0.373993
0.373885
0.373771
0.373652
0.373527
0.373398
0.373264
0.373125
0.374905
0.374743
0.374618
0.374521
0.374445
0.374379
0.374318
0.374257
0.374192
0.374124
0.37405
0.37397
0.373885
0.373794
0.373698
0.373596
0.37349
0.37338
0.374899
0.374721
0.374577
0.374464
0.374378
0.374309
0.374251
0.374198
0.374147
0.374094
0.374038
0.373978
0.373912
0.373842
0.373766
0.373685
0.3736
0.373511
0.374896
0.374708
0.37455
0.374424
0.374325
0.374246
0.374182
0.374126
0.374075
0.374025
0.373974
0.37392
0.373862
0.3738
0.373734
0.373663
0.373589
0.373511
0.374896
0.374705
0.374544
0.374411
0.374303
0.374213
0.374137
0.374069
0.374005
0.373942
0.373879
0.373813
0.373745
0.373674
0.373599
0.373522
0.373442
0.373359
0.374898
0.374716
0.374561
0.374431
0.37432
0.37422
0.374127
0.374036
0.373946
0.373854
0.37376
0.373664
0.373564
0.373462
0.373357
0.373251
0.373142
0.373033
0.374904
0.374735
0.37459
0.374462
0.374341
0.374223
0.374104
0.373981
0.373855
0.373724
0.373589
0.37345
0.373309
0.373164
0.373018
0.372871
0.372723
0.372576
0.374914
0.374763
0.374625
0.374487
0.374343
0.374191
0.374029
0.373857
0.373678
0.373491
0.373298
0.373101
0.3729
0.372697
0.372492
0.372287
0.372082
0.371879
0.374929
0.374796
0.374652
0.374486
0.374297
0.374088
0.37386
0.373616
0.373359
0.373092
0.372816
0.372534
0.372247
0.371958
0.371667
0.371377
0.371087
0.370802
0.37495
0.374827
0.374656
0.374435
0.374169
0.373869
0.373537
0.373182
0.372805
0.372413
0.372008
0.371595
0.371175
0.370753
0.370328
0.369905
0.369483
0.369072
0.374972
0.374844
0.374616
0.374297
0.373898
0.373444
0.372937
0.372393
0.371813
0.371211
0.370587
0.369953
0.369307
0.36866
0.368009
0.367366
0.366719
0.366098
0.374988
0.374833
0.3745
0.373994
0.373337
0.372596
0.37175
0.370853
0.369884
0.36889
0.36785
0.366807
0.365737
0.364683
0.36361
0.362575
0.361516
0.360527
0.37501
0.374774
0.374223
0.373313
0.372083
0.370728
0.369134
0.367494
0.365678
0.363878
0.361959
0.360103
0.358166
0.356327
0.354431
0.352667
0.350839
0.349201
0.375129
0.374768
0.373789
0.371935
0.3694
0.3667
0.363451
0.360272
0.356713
0.353393
0.349837
0.34661
0.343266
0.340254
0.337273
0.334535
0.331941
0.329513
0.376924
0.37984
0.381432
0.381364
0.380883
0.379897
0.378237
0.376659
0.374967
0.373633
0.37253
0.371802
0.371622
0.371857
0.372202
0.373539
0.374801
0.375958
0.45954
0.609323
0.730002
0.821265
0.887079
0.932655
0.962745
0.981431
0.991681
0.996065
0.995468
0.993124
0.988676
0.982402
0.975373
0.967855
0.960101
0.952276
8.73267e-06
6.89436e-05
0.000150232
0.000233847
0.000299879
0.000343015
0.000371074
0.000398928
0.000438181
0.000484228
0.000527749
0.000558598
0.000576754
0.000602536
0.000615126
0.000583655
0.000490937
0.000429601
0.000352
0.000249056
0.000149999
0.000103891
9.59751e-05
9.95479e-05
0.000108339
0.00012132
0.000146521
0.00019769
0.000315006
0.000558081
0.000810429
0.000938717
0.000908642
0.000778264
0.000845883
0.000854954
0.000841164
0.00105155
0.00151253
0.00333835
0.0132678
0.0249821
0.0350135
0.0440487
0.0522126
0.0598126
0.0669287
0.0737065
0.0801994
0.0864972
0.0926235
0.0986695
0.104646
0.110626
0.116622
0.122692
0.128858
0.135179
0.141684
0.148443
0.155505
0.162456
0.169609
0.176731
0.183995
0.191268
0.198643
0.206044
0.213519
0.221021
0.228574
0.236149
0.243755
0.251373
0.259004
0.266634
0.274261
0.281873
0.289465
0.297029
0.304559
0.312045
0.319483
0.326864
0.33418
0.341425
0.348591
0.355669
0.362652
0.369532
0.376299
0.382946
0.389463
0.395841
0.402071
0.408145
0.414056
0.419801
0.42538
0.4308
0.436083
0.441268
0.446308
0.451173
0.455864
0.460373
0.464698
0.468831
0.472769
0.476508
0.480044
0.483371
0.486488
0.489391
0.492076
0.494543
0.496787
0.498809
0.500606
0.502178
0.503524
0.504646
0.505543
0.506217
0.506671
0.506907
0.506927
0.506826
0.506398
0.505786
0.504972
0.503859
0.502494
0.500901
0.499082
0.497098
0.494926
0.492525
0.48993
0.487155
0.484196
0.481065
0.477764
0.474303
0.470686
0.46692
0.463012
0.458968
0.454799
0.450506
0.446095
0.441571
0.436941
0.432213
0.427399
0.422508
0.417553
0.412544
0.407491
0.402403
0.397288
0.392151
0.386997
0.381828
0.376648
0.371462
0.366279
0.361105
0.355946
0.350808
0.34569
0.340584
0.335474
0.330347
0.325105
0.319886
0.313836
0.309074
0.303248
0.288849
3.59163e-05
3.12544e-05
8.32192e-05
0.000132549
0.000183291
0.000274991
0.000472692
0.000829004
0.00138276
0.00211283
0.00294637
0.00379732
0.00458312
0.0052268
0.0056844
0.00590215
0.00584683
0.00557549
0.00494312
0.00397213
0.00284557
0.00194452
0.0013124
0.000900463
0.000659399
0.000615058
0.000739955
0.00116014
0.00212219
0.00386658
0.00543161
0.00622866
0.00604921
0.00541723
0.0051529
0.00367717
0.00426814
0.00861739
0.0141762
0.0214978
0.0337502
0.0463306
0.0583268
0.0706051
0.0830567
0.0959443
0.109113
0.122616
0.136396
0.150437
0.164148
0.177887
0.191476
0.205073
0.21863
0.232225
0.245851
0.259587
0.273412
0.287382
0.301486
0.315752
0.330201
0.344833
0.359665
0.374691
0.389916
0.405332
0.420936
0.436716
0.452666
0.46877
0.485018
0.501394
0.517884
0.534473
0.551146
0.567886
0.584679
0.601509
0.618362
0.635221
0.652074
0.668904
0.685697
0.702439
0.719114
0.735708
0.752205
0.768588
0.784843
0.800951
0.816895
0.832656
0.848213
0.863547
0.878635
0.893452
0.907976
0.922179
0.936038
0.949513
0.962728
0.975691
0.988373
1.00077
1.01286
1.02464
1.0361
1.04721
1.05798
1.06839
1.07843
1.08808
1.09735
1.10622
1.11468
1.12273
1.13036
1.13756
1.14433
1.15066
1.15656
1.16201
1.16702
1.1716
1.17574
1.17945
1.18275
1.18566
1.18822
1.19049
1.19236
1.19376
1.1946
1.19506
1.19526
1.19498
1.19422
1.19306
1.19149
1.18953
1.18719
1.18447
1.18138
1.17794
1.17416
1.17004
1.1656
1.16085
1.1558
1.15045
1.14482
1.13892
1.13277
1.12639
1.1198
1.11302
1.10609
1.09901
1.09181
1.08451
1.07711
1.06962
1.06205
1.05441
1.04673
1.03901
1.03127
1.02353
1.0158
1.00807
1.00032
0.992512
0.984502
0.976452
0.967168
0.959015
0.944571
0.918273
1.51827e-05
9.99041e-06
2.81552e-05
5.79993e-05
0.000110544
0.000263419
0.000633082
0.00136472
0.00239453
0.00359968
0.00486452
0.00608981
0.00719529
0.00811697
0.00882333
0.00928668
0.00950194
0.00944736
0.00923004
0.00874831
0.00800205
0.00697358
0.00579036
0.00464687
0.00371805
0.00309173
0.00316936
0.00384201
0.00577536
0.00899867
0.0115518
0.0134604
0.012731
0.0105651
0.0121039
0.0144985
0.0203579
0.0312527
0.0447826
0.0603099
0.0782157
0.0975325
0.118419
0.140242
0.162368
0.184489
0.206238
0.227488
0.248084
0.268001
0.287704
0.307139
0.326378
0.345484
0.364498
0.383497
0.402518
0.421611
0.440807
0.460139
0.479631
0.499309
0.519189
0.539282
0.559599
0.58014
0.600906
0.621893
0.643094
0.6645
0.686099
0.707876
0.729816
0.751902
0.774117
0.79644
0.818855
0.84134
0.863876
0.886444
0.909024
0.931599
0.954148
0.976654
0.999099
1.02146
1.04373
1.06588
1.08789
1.10976
1.13145
1.15295
1.17424
1.1953
1.21613
1.23669
1.25697
1.27695
1.29663
1.31599
1.33503
1.35373
1.37209
1.39008
1.4077
1.42491
1.44172
1.45809
1.47401
1.48946
1.50444
1.51892
1.5329
1.54636
1.55928
1.57166
1.58348
1.59474
1.60542
1.61552
1.62503
1.63395
1.64227
1.64998
1.65709
1.6636
1.6695
1.67481
1.67951
1.68362
1.68714
1.69007
1.6924
1.69411
1.69508
1.69552
1.69557
1.69491
1.69365
1.69182
1.68943
1.68649
1.68302
1.67902
1.67452
1.66952
1.66405
1.65811
1.65172
1.64489
1.63765
1.63
1.62196
1.61354
1.60477
1.59567
1.58628
1.57662
1.56672
1.55662
1.54633
1.53588
1.52528
1.51455
1.50371
1.49276
1.48173
1.47065
1.45953
1.44841
1.4373
1.4262
1.41511
1.404
1.39278
1.38155
1.36953
1.35801
1.34194
1.31667
4.7018e-06
6.04185e-06
3.10935e-05
0.000125883
0.000419004
0.00109957
0.00242913
0.00416778
0.0060766
0.00794799
0.00965118
0.0110993
0.0122371
0.0130452
0.0135272
0.0136615
0.0135729
0.0133086
0.012806
0.0121566
0.0113895
0.0105068
0.00951563
0.00851274
0.0075437
0.00734573
0.0081598
0.0111141
0.0167909
0.0224557
0.0253942
0.0232324
0.021306
0.0219822
0.0293796
0.0412117
0.0566197
0.074785
0.094511
0.116564
0.140331
0.165029
0.190158
0.215329
0.240339
0.265074
0.289449
0.313447
0.337083
0.360418
0.38354
0.406474
0.429267
0.451983
0.474672
0.497384
0.520165
0.543054
0.566087
0.589295
0.612703
0.636335
0.660209
0.684337
0.708729
0.73339
0.758319
0.783515
0.808971
0.834678
0.860622
0.886789
0.913161
0.939719
0.966441
0.993305
1.02029
1.04736
1.07451
1.1017
1.12891
1.15612
1.18331
1.21045
1.23751
1.26449
1.29135
1.31807
1.34464
1.37102
1.39721
1.42318
1.44891
1.47438
1.49957
1.52447
1.54905
1.57329
1.5972
1.62073
1.64389
1.66664
1.68897
1.71085
1.73225
1.75317
1.77358
1.79345
1.81277
1.83152
1.84968
1.86723
1.88415
1.90044
1.91608
1.93104
1.94532
1.95891
1.9718
1.98397
1.99542
2.00614
2.01613
2.02537
2.03387
2.04163
2.04864
2.0549
2.06042
2.06518
2.0692
2.07247
2.07499
2.07674
2.07764
2.07795
2.07763
2.07651
2.07466
2.07212
2.0689
2.06501
2.06047
2.05529
2.04949
2.04309
2.0361
2.02854
2.02044
2.01181
2.00266
1.99303
1.98292
1.97235
1.96135
1.94995
1.93819
1.92609
1.9137
1.90103
1.88814
1.87503
1.86175
1.84829
1.83469
1.82096
1.80713
1.79321
1.77926
1.76529
1.75134
1.73742
1.72354
1.7097
1.69585
1.68206
1.66786
1.65395
1.637
1.61318
1.35897e-05
2.2289e-05
0.000149728
0.000569737
0.00158456
0.00369311
0.00648234
0.0094138
0.0121819
0.0146079
0.0165826
0.0180555
0.019022
0.0195312
0.0195582
0.0193643
0.0188739
0.0181253
0.0172304
0.0162584
0.01527
0.0142958
0.0133734
0.0124619
0.0121567
0.0135304
0.0185593
0.0282888
0.0367486
0.0385006
0.0339355
0.0322095
0.036356
0.0476843
0.0630441
0.0804651
0.100828
0.123088
0.147023
0.17215
0.197961
0.224024
0.250204
0.276404
0.302562
0.32863
0.354581
0.380409
0.406118
0.431724
0.457248
0.482719
0.508171
0.533642
0.55917
0.584793
0.610548
0.63647
0.662592
0.688941
0.715544
0.742422
0.769594
0.797075
0.824876
0.853004
0.88146
0.910244
0.939351
0.968772
0.998494
1.0285
1.05877
1.08929
1.12002
1.15095
1.18204
1.21326
1.24458
1.27598
1.30742
1.33887
1.37031
1.4017
1.43302
1.46425
1.49536
1.52631
1.5571
1.58769
1.61805
1.64817
1.67802
1.70758
1.73683
1.76574
1.79429
1.82247
1.85024
1.87759
1.90449
1.93092
1.95685
1.98225
2.00709
2.03136
2.05503
2.07808
2.10047
2.12219
2.14322
2.16354
2.18313
2.20197
2.22003
2.23732
2.2538
2.26947
2.28432
2.29832
2.31149
2.32379
2.33524
2.34581
2.35551
2.36434
2.37228
2.37935
2.38553
2.39083
2.39525
2.39879
2.40146
2.4032
2.40401
2.40415
2.40345
2.40188
2.39947
2.39624
2.39223
2.38744
2.38189
2.3756
2.36859
2.36088
2.35249
2.34344
2.33375
2.32344
2.31255
2.30109
2.28907
2.27653
2.26349
2.24999
2.23605
2.22172
2.20704
2.19204
2.17676
2.16124
2.14549
2.12954
2.11342
2.09714
2.08073
2.06424
2.04768
2.03111
2.01456
1.99806
1.98164
1.9653
1.94905
1.93295
1.91671
1.90075
1.88278
1.85943
2.61319e-05
7.60992e-05
0.000474236
0.00170115
0.00459198
0.0089735
0.0135086
0.0175365
0.0207311
0.0230269
0.0245043
0.02531
0.0255774
0.0254625
0.0250553
0.0243168
0.0233711
0.0222752
0.0210993
0.0199155
0.0187901
0.0176569
0.0166512
0.0167341
0.0195161
0.0277767
0.0395257
0.0466667
0.0476409
0.0443081
0.0434857
0.051047
0.0642529
0.0807515
0.0999842
0.121175
0.144284
0.168658
0.193951
0.219706
0.245722
0.271925
0.298322
0.324894
0.351625
0.378494
0.405483
0.432567
0.459733
0.486979
0.514309
0.541733
0.569266
0.59693
0.624751
0.652755
0.680972
0.70943
0.738159
0.767184
0.79653
0.826219
0.856272
0.886705
0.917529
0.948756
0.980388
1.01243
1.04487
1.07771
1.11093
1.14452
1.17845
1.2127
1.24724
1.28204
1.31706
1.35227
1.38762
1.42308
1.45862
1.4942
1.52978
1.56532
1.60081
1.63619
1.67146
1.70656
1.74149
1.7762
1.81067
1.84486
1.87876
1.91234
1.94556
1.97841
2.01085
2.04286
2.07442
2.10549
2.13605
2.16606
2.1955
2.22433
2.25254
2.28008
2.30693
2.33307
2.35846
2.38309
2.40692
2.42993
2.4521
2.47342
2.49385
2.51339
2.532
2.54969
2.56643
2.58221
2.59702
2.61085
2.62369
2.63553
2.64638
2.65622
2.66505
2.67287
2.67968
2.68548
2.69027
2.69406
2.69686
2.69859
2.69929
2.69923
2.69816
2.69613
2.69315
2.68925
2.68445
2.67877
2.67223
2.66486
2.65666
2.64767
2.63791
2.62741
2.61618
2.60425
2.59166
2.57843
2.56457
2.55012
2.53511
2.51956
2.50353
2.48706
2.47018
2.45293
2.43536
2.41749
2.39938
2.38103
2.36248
2.34375
2.32487
2.30588
2.28682
2.26775
2.2487
2.22971
2.21083
2.19209
2.1735
2.15515
2.13687
2.11891
2.09962
2.07589
2.28599e-05
0.0002348
0.00145301
0.00489755
0.0115981
0.0181535
0.0231518
0.0264665
0.0285089
0.0296838
0.0302533
0.0303618
0.0301657
0.0296492
0.0288447
0.0278167
0.0266137
0.0252963
0.0239351
0.0226168
0.0214343
0.0207114
0.0215624
0.0258957
0.0347789
0.0464283
0.0529647
0.0542584
0.0530099
0.0540201
0.0631076
0.077271
0.094571
0.114199
0.135695
0.158613
0.182679
0.207464
0.232684
0.258159
0.283883
0.309895
0.33623
0.362905
0.389921
0.417264
0.444908
0.472834
0.501025
0.529467
0.558152
0.587075
0.616242
0.64566
0.675346
0.705318
0.735599
0.766213
0.797184
0.828539
0.860301
0.892493
0.925135
0.958247
0.991843
1.02593
1.06053
1.09563
1.13124
1.16734
1.20392
1.24098
1.27847
1.31637
1.35466
1.39328
1.4322
1.47137
1.51075
1.55028
1.58993
1.62965
1.66939
1.70911
1.74878
1.78836
1.82782
1.86711
1.90621
1.94508
1.98369
2.022
2.05998
2.09761
2.13484
2.17165
2.20801
2.24389
2.27925
2.31407
2.34831
2.38193
2.41491
2.44721
2.47879
2.50963
2.53969
2.56894
2.59734
2.62488
2.65153
2.67724
2.70201
2.72581
2.74861
2.7704
2.79115
2.81084
2.82947
2.84701
2.86345
2.87878
2.893
2.9061
2.91807
2.9289
2.93859
2.94714
2.95456
2.96083
2.96598
2.97
2.97291
2.97461
2.97522
2.97489
2.97345
2.97093
2.96737
2.96277
2.95717
2.95059
2.94305
2.93457
2.92518
2.91491
2.90378
2.89181
2.87904
2.8655
2.85121
2.8362
2.82051
2.80416
2.78718
2.76962
2.75151
2.73291
2.71385
2.69438
2.67454
2.65437
2.63391
2.61319
2.59224
2.57108
2.54976
2.52831
2.50678
2.48523
2.4637
2.44226
2.42094
2.3998
2.37887
2.35825
2.33785
2.31784
2.29692
2.2722
0.000101871
0.000773069
0.00414839
0.012631
0.0213006
0.0268994
0.0302777
0.0323468
0.0335827
0.034218
0.0343765
0.034178
0.0336369
0.0327856
0.0316899
0.030401
0.0289803
0.0275113
0.0261319
0.0251036
0.0248784
0.0264183
0.031128
0.0398589
0.0504362
0.0569798
0.0590239
0.059399
0.0630019
0.0722574
0.0867623
0.10422
0.123753
0.14486
0.167201
0.190476
0.214428
0.238802
0.26347
0.288414
0.313692
0.339367
0.365489
0.392088
0.419166
0.446714
0.474721
0.50317
0.532041
0.561318
0.590984
0.62103
0.651454
0.682257
0.713448
0.745041
0.777054
0.809507
0.842424
0.875829
0.909747
0.944202
0.979216
1.01481
1.051
1.08781
1.12523
1.16329
1.20196
1.24126
1.28116
1.32165
1.3627
1.40426
1.44631
1.4888
1.53167
1.57487
1.61834
1.66202
1.70586
1.7498
1.7938
1.83779
1.88175
1.92561
1.96935
2.01293
2.05629
2.09941
2.14224
2.18476
2.22691
2.26866
2.30998
2.35083
2.39118
2.431
2.47024
2.50887
2.54686
2.58415
2.62073
2.65654
2.69156
2.72574
2.75904
2.79145
2.82291
2.85339
2.88287
2.91132
2.9387
2.96499
2.99017
3.01421
3.03708
3.05878
3.07928
3.09857
3.11663
3.13345
3.14903
3.16335
3.17641
3.1882
3.19872
3.20798
3.21596
3.22267
3.22813
3.23234
3.23532
3.23696
3.23745
3.23681
3.23495
3.23192
3.22772
3.22239
3.21596
3.20843
3.19985
3.19024
3.17963
3.16804
3.15551
3.14207
3.12773
3.11255
3.09654
3.07976
3.06222
3.04395
3.025
3.0054
2.98521
2.96448
2.94324
2.92156
2.89946
2.87699
2.8542
2.83111
2.80776
2.78419
2.76042
2.73652
2.71253
2.6885
2.66451
2.6406
2.61684
2.59328
2.56997
2.54703
2.52442
2.50225
2.47945
2.45325
0.000793885
0.00228019
0.0100175
0.0215225
0.0285818
0.0327834
0.0353633
0.0369087
0.0377209
0.0379741
0.037799
0.0372554
0.0363825
0.0352416
0.0338869
0.0323964
0.0308873
0.0295258
0.0287037
0.0287308
0.0305878
0.0353801
0.0433563
0.0524966
0.059226
0.0623706
0.0642015
0.0691946
0.0789516
0.0930949
0.11028
0.129311
0.149706
0.171149
0.193411
0.216292
0.239622
0.263283
0.287249
0.311563
0.336299
0.361529
0.387307
0.41366
0.440602
0.468137
0.49626
0.524959
0.554218
0.58402
0.61435
0.645198
0.676556
0.708426
0.740813
0.773728
0.807188
0.841212
0.875823
0.911049
0.946914
0.983446
1.02067
1.05861
1.09728
1.13671
1.1769
1.21786
1.25958
1.30208
1.34531
1.38927
1.43393
1.47923
1.52513
1.57157
1.61849
1.66584
1.71352
1.76148
1.80964
1.85794
1.90631
1.95471
2.00307
2.05134
2.09949
2.14745
2.19519
2.24267
2.28983
2.33664
2.38305
2.42902
2.47451
2.51948
2.5639
2.60772
2.6509
2.69341
2.7352
2.77622
2.81644
2.85581
2.89429
2.93183
2.96841
3.00398
3.0385
3.07194
3.10425
3.13541
3.16539
3.19415
3.22168
3.24794
3.27292
3.29658
3.31892
3.3399
3.35953
3.37779
3.39466
3.41015
3.42424
3.43693
3.44822
3.45811
3.46659
3.47368
3.47939
3.48372
3.4867
3.48823
3.48851
3.48749
3.48516
3.48155
3.47666
3.47054
3.46321
3.45469
3.44502
3.43423
3.42235
3.40941
3.39544
3.38048
3.36456
3.34771
3.32996
3.31137
3.29195
3.27175
3.25081
3.22917
3.20689
3.18403
3.16062
3.13671
3.11236
3.0876
3.06247
3.03703
3.01129
2.98529
2.95909
2.93274
2.90629
2.8798
2.85334
2.82696
2.80075
2.77475
2.74904
2.72372
2.69881
2.67439
2.64953
2.62151
0.00219948
0.005105
0.0176541
0.0282161
0.0341906
0.0376624
0.0396941
0.0407863
0.0412006
0.0410956
0.040575
0.0397067
0.0385591
0.0371975
0.0357089
0.0342288
0.0329675
0.0323552
0.0326502
0.034713
0.0392715
0.0461636
0.053832
0.0601002
0.0640291
0.0674762
0.0733433
0.083331
0.0970567
0.113521
0.131778
0.15123
0.171592
0.192673
0.21433
0.236446
0.258933
0.281757
0.304938
0.328542
0.352645
0.37732
0.402613
0.428563
0.455193
0.482518
0.510539
0.539252
0.568647
0.598712
0.629435
0.66081
0.69283
0.725498
0.75882
0.792807
0.827477
0.862852
0.898957
0.935821
0.973475
1.01195
1.05128
1.09148
1.13258
1.1746
1.21755
1.26144
1.30627
1.35202
1.39868
1.44622
1.49459
1.54375
1.59364
1.64418
1.69531
1.74695
1.799
1.85138
1.90401
1.9568
2.00969
2.06262
2.11552
2.16833
2.221
2.27347
2.32568
2.37761
2.42919
2.48037
2.53112
2.58138
2.6311
2.68024
2.72877
2.77663
2.82379
2.8702
2.91581
2.96057
3.00443
3.04735
3.08928
3.13017
3.16999
3.20869
3.24622
3.28256
3.31765
3.35146
3.38397
3.41513
3.44493
3.47333
3.50032
3.52586
3.54993
3.57252
3.59361
3.6132
3.63127
3.64782
3.66283
3.67632
3.68826
3.69868
3.70756
3.71492
3.72076
3.72512
3.72798
3.72932
3.72928
3.72781
3.72492
3.72063
3.71497
3.70797
3.69967
3.69008
3.67926
3.66722
3.65401
3.63966
3.62421
3.60769
3.59014
3.57158
3.55207
3.53164
3.51033
3.48817
3.46522
3.44153
3.41716
3.39216
3.36658
3.34047
3.31387
3.28682
3.25938
3.23158
3.20346
3.17506
3.14644
3.11765
3.08875
3.05981
3.03088
3.00205
2.97338
2.94493
2.91679
2.88906
2.86179
2.83505
2.80804
2.77829
0.00356276
0.00882039
0.0241693
0.0337673
0.0389123
0.0418065
0.0433757
0.044057
0.0440903
0.04363
0.0427878
0.0416567
0.0403265
0.0389019
0.0375312
0.0364818
0.0360793
0.0366103
0.0387089
0.0427303
0.0484013
0.0546394
0.0601811
0.0646782
0.0693396
0.0760341
0.0860279
0.0992254
0.11482
0.132058
0.150405
0.169554
0.189337
0.209648
0.230412
0.251572
0.273098
0.294999
0.317318
0.340125
0.363495
0.38749
0.412165
0.437564
0.463721
0.490659
0.51839
0.546917
0.576238
0.606351
0.637249
0.668931
0.701397
0.734653
0.76871
0.803582
0.839289
0.875856
0.913314
0.951698
0.991048
1.0314
1.07279
1.11525
1.15881
1.20348
1.24927
1.2962
1.34424
1.3934
1.44364
1.49493
1.54721
1.60042
1.65448
1.70931
1.76482
1.82091
1.87749
1.93445
1.99169
2.04912
2.10667
2.16425
2.2218
2.27926
2.33655
2.39361
2.45038
2.50682
2.56287
2.61847
2.67358
2.72814
2.7821
2.83542
2.88804
2.93993
2.99103
3.04129
3.09067
3.1391
3.18653
3.23291
3.27819
3.32233
3.36527
3.40698
3.44741
3.48651
3.52424
3.56056
3.59544
3.62885
3.66076
3.69115
3.71997
3.74722
3.77286
3.79688
3.81927
3.84001
3.8591
3.87654
3.89231
3.90642
3.91886
3.92963
3.93875
3.94622
3.95206
3.95628
3.95889
3.95991
3.95942
3.95736
3.95378
3.9487
3.94216
3.93419
3.92481
3.91407
3.90201
3.88865
3.87404
3.85822
3.84123
3.82311
3.80389
3.7836
3.7623
3.74001
3.71678
3.69265
3.66769
3.64195
3.61549
3.58837
3.56065
3.53236
3.50354
3.47424
3.44451
3.41439
3.38392
3.35314
3.32213
3.29094
3.25964
3.22828
3.19693
3.16566
3.13454
3.10365
3.07308
3.04293
3.01326
2.98418
2.95493
2.92329
0.00457371
0.0130151
0.0295817
0.0384119
0.0430028
0.0454289
0.0465415
0.0468035
0.0464575
0.0456624
0.0445592
0.0432798
0.0419493
0.0407235
0.0399257
0.0397095
0.0403638
0.0422846
0.0456147
0.0501001
0.0551002
0.0600032
0.0648146
0.0703409
0.0776834
0.087653
0.100237
0.114886
0.130992
0.148106
0.165944
0.184345
0.203222
0.222525
0.242225
0.262308
0.282782
0.303676
0.325044
0.346955
0.369478
0.392681
0.416618
0.441324
0.466863
0.493268
0.520559
0.548749
0.577845
0.607853
0.638775
0.670619
0.703393
0.737109
0.771786
0.807446
0.844114
0.881807
0.920567
0.960442
1.00148
1.04375
1.08727
1.13209
1.17824
1.22572
1.27455
1.32471
1.37621
1.42901
1.48308
1.53837
1.59482
1.65233
1.7108
1.77013
1.83022
1.89096
1.95224
2.01393
2.07592
2.13811
2.2004
2.26273
2.32502
2.38718
2.44915
2.51084
2.57218
2.63312
2.69361
2.75359
2.813
2.8718
2.92992
2.98731
3.04392
3.0997
3.1546
3.20857
3.26155
3.31348
3.3643
3.41395
3.46237
3.50954
3.55539
3.59988
3.64296
3.68458
3.72469
3.76326
3.80026
3.83565
3.8694
3.90149
3.93189
3.96057
3.98752
4.0127
4.03612
4.05776
4.07762
4.09568
4.11196
4.12645
4.13914
4.15005
4.15918
4.16654
4.17216
4.17605
4.17824
4.17874
4.17762
4.17482
4.17039
4.16438
4.15682
4.14775
4.13719
4.12519
4.11179
4.09702
4.08094
4.06359
4.045
4.02523
4.00431
3.98227
3.95916
3.93501
3.90986
3.88377
3.85681
3.82905
3.80054
3.77135
3.74152
3.7111
3.68012
3.64864
3.61668
3.58429
3.55152
3.51844
3.48511
3.45159
3.41795
3.38423
3.35052
3.31687
3.28336
3.25007
3.2171
3.18455
3.15251
3.12107
3.08956
3.05599
0.00514926
0.0170341
0.0341544
0.0425938
0.0467294
0.0486615
0.0493007
0.0491478
0.0484144
0.04733
0.0460574
0.0447763
0.0436804
0.0430834
0.042974
0.043612
0.0452161
0.0478344
0.0513198
0.0553862
0.0598579
0.0648904
0.070997
0.0787916
0.0886875
0.10066
0.114338
0.129267
0.145083
0.161543
0.178502
0.195884
0.213653
0.231796
0.250317
0.269231
0.288565
0.308365
0.328688
0.349584
0.371152
0.393478
0.416639
0.440731
0.465723
0.491637
0.518498
0.546332
0.575158
0.604995
0.635859
0.667768
0.700744
0.734811
0.769999
0.806346
0.843908
0.882773
0.922928
0.964397
1.00726
1.0516
1.09745
1.14487
1.19387
1.24447
1.29668
1.35046
1.40578
1.46262
1.52091
1.58058
1.64156
1.70371
1.76689
1.83098
1.89586
1.96142
2.02753
2.09405
2.16084
2.22782
2.29488
2.36195
2.42897
2.49583
2.56244
2.62869
2.69452
2.75984
2.82462
2.8888
2.95234
3.01517
3.07723
3.13847
3.19882
3.25823
3.31666
3.37404
3.43032
3.48542
3.53928
3.59185
3.64307
3.69289
3.74126
3.78814
3.83348
3.87722
3.91932
3.95974
3.99845
4.03541
4.07061
4.10401
4.13558
4.16531
4.19316
4.21913
4.2432
4.26537
4.28563
4.30398
4.32042
4.33496
4.34759
4.35832
4.36716
4.37414
4.37926
4.38257
4.38408
4.38384
4.38189
4.37811
4.37266
4.36554
4.35681
4.34648
4.33461
4.32123
4.30639
4.29012
4.27249
4.25353
4.2333
4.21184
4.18919
4.1654
4.1405
4.11449
4.08744
4.05942
4.03051
4.00079
3.9703
3.93911
3.90725
3.87479
3.84175
3.80817
3.77408
3.73952
3.70456
3.66927
3.63372
3.59799
3.56211
3.52616
3.49019
3.45426
3.41845
3.38284
3.34755
3.31267
3.2783
3.24456
3.21083
3.17536
0.00541913
0.0205869
0.0384525
0.0465652
0.0502219
0.0516252
0.0518149
0.0511772
0.0500098
0.0486403
0.0473305
0.0462815
0.045759
0.0456602
0.0461629
0.0474155
0.0494476
0.0522369
0.0557459
0.0600393
0.0652822
0.0717748
0.0798263
0.0895807
0.100956
0.113681
0.127431
0.141933
0.156986
0.172469
0.18832
0.204512
0.221044
0.23793
0.255195
0.272871
0.290999
0.309633
0.328905
0.348955
0.369772
0.391377
0.413813
0.437087
0.461306
0.486535
0.512821
0.540204
0.568721
0.598406
0.62929
0.661402
0.694774
0.729446
0.765451
0.802832
0.841633
0.881894
0.923652
0.966981
1.01199
1.05877
1.10739
1.15789
1.21028
1.26458
1.32075
1.37876
1.43853
1.50001
1.56308
1.62766
1.69361
1.76077
1.82898
1.89805
1.96786
2.03829
2.10921
2.1805
2.25202
2.32367
2.39537
2.46705
2.53863
2.61001
2.68106
2.75167
2.82173
2.89114
2.95988
3.02792
3.09522
3.1617
3.22731
3.29197
3.35562
3.4182
3.47967
3.53996
3.59902
3.65676
3.71313
3.76807
3.82151
3.87341
3.92374
3.97243
4.01944
4.06472
4.10822
4.14991
4.18975
4.22772
4.26378
4.29793
4.33013
4.36035
4.38859
4.41482
4.43904
4.46124
4.48143
4.49961
4.51577
4.52992
4.54208
4.55224
4.56042
4.56664
4.57094
4.57334
4.57388
4.57265
4.56954
4.56458
4.55787
4.54945
4.53935
4.52762
4.51428
4.49939
4.483
4.46514
4.44588
4.42526
4.40333
4.38015
4.35577
4.33023
4.30356
4.27575
4.24685
4.21698
4.18622
4.15463
4.12226
4.08917
4.05541
4.02103
3.98605
3.95052
3.91443
3.87784
3.84084
3.8035
3.76591
3.72811
3.69017
3.65213
3.61406
3.57599
3.53801
3.50022
3.46274
3.42566
3.38907
3.35313
3.31726
3.28001
0.0055005
0.0241451
0.0426037
0.0503885
0.0535445
0.0544481
0.0540367
0.0527525
0.0511559
0.0496756
0.0485401
0.0479621
0.0478052
0.0481148
0.0490806
0.0507444
0.0531833
0.0565043
0.0608375
0.066306
0.07305
0.0811836
0.0906981
0.101467
0.113279
0.125894
0.139102
0.152743
0.166736
0.181047
0.195652
0.210561
0.225799
0.241399
0.2574
0.273844
0.290864
0.308604
0.326991
0.346017
0.365806
0.386455
0.408039
0.430643
0.454323
0.479132
0.505128
0.532366
0.560895
0.590765
0.622019
0.654705
0.688882
0.72461
0.761921
0.800861
0.841465
0.883696
0.927742
0.973743
1.02176
1.07183
1.12405
1.17849
1.23519
1.2941
1.35517
1.4183
1.48338
1.55028
1.61882
1.68884
1.76015
1.8326
1.90597
1.98008
2.05477
2.12982
2.20523
2.28097
2.35688
2.43284
2.5088
2.58469
2.66043
2.73588
2.8109
2.88536
2.95912
3.03209
3.10427
3.17565
3.24616
3.31572
3.38427
3.45171
3.51799
3.58306
3.64686
3.70933
3.77041
3.83004
3.88814
3.94466
3.99953
4.05273
4.10419
4.15389
4.20178
4.2478
4.29191
4.33408
4.37428
4.41248
4.44867
4.48282
4.51491
4.54493
4.57286
4.59868
4.6224
4.644
4.6635
4.68091
4.69622
4.70946
4.72061
4.72971
4.73675
4.74178
4.74483
4.74593
4.74519
4.74257
4.73796
4.73152
4.72329
4.71332
4.70163
4.68828
4.6733
4.65674
4.63865
4.61908
4.59808
4.57571
4.55203
4.52708
4.50092
4.4736
4.44516
4.41561
4.38499
4.35341
4.32093
4.28761
4.25352
4.21869
4.18318
4.14703
4.11029
4.07299
4.03511
3.99669
3.95786
3.91869
3.87925
3.83961
3.7998
3.75989
3.71993
3.67991
3.63996
3.60019
3.56071
3.52161
3.48299
3.44501
3.40714
3.36832
0.00540909
0.0278779
0.046727
0.0541253
0.0566963
0.0570085
0.0557623
0.0538388
0.0520293
0.0506827
0.0499693
0.0497327
0.0498813
0.0507197
0.0523024
0.0547576
0.0582205
0.0627791
0.0684948
0.075405
0.0834904
0.0926678
0.102791
0.113683
0.125169
0.137096
0.149354
0.161877
0.174636
0.187632
0.200906
0.214506
0.228476
0.242869
0.25775
0.273203
0.289252
0.305912
0.323317
0.341559
0.360704
0.380832
0.40203
0.424391
0.447983
0.472867
0.499125
0.526835
0.556069
0.586891
0.619356
0.653505
0.689341
0.726875
0.76627
0.807651
0.85119
0.89695
0.944847
0.995021
1.04756
1.10251
1.1599
1.21974
1.28205
1.34676
1.41378
1.483
1.55425
1.62732
1.70195
1.77781
1.8546
1.93227
2.01069
2.08966
2.16892
2.24826
2.32787
2.40762
2.48731
2.56691
2.64642
2.72587
2.80508
2.88383
2.96198
3.0394
3.11601
3.19177
3.26662
3.3405
3.41334
3.48505
3.55555
3.62477
3.69262
3.75908
3.8241
3.88763
3.94961
4.00997
4.06865
4.12557
4.18071
4.23401
4.28546
4.33501
4.38262
4.42825
4.47185
4.5134
4.55287
4.59024
4.62551
4.65866
4.68967
4.71852
4.74521
4.76973
4.79207
4.81225
4.83027
4.84615
4.85989
4.87151
4.88102
4.88843
4.89375
4.89703
4.89832