/*--------------------------------*- C++ -*----------------------------------*\
| =========                 |                                                 |
| \\      /  F ield         | OpenFOAM: The Open Source CFD Toolbox           |
|  \\    /   O peration     | Version:  2112                                  |
|   \\  /    A nd           | Website:  www.openfoam.com                      |
|    \\/     M anipulation  |                                                 |
\*---------------------------------------------------------------------------*/
FoamFile
{
    version     2.0;
    format      ascii;
    arch        "LSB;label=32;scalar=64";
    class       volScalarField;
    location    "0.11";
    object      s;
}
// * * * * * * * * * * * * * * * * * * * * * * * * * * * * * * * * * * * * * //

dimensions      [0 0 0 0 0 0 0];

internalField   nonuniform List<scalar> 
122250
(
0.998148
0.99748
0.997114
0.996453
0.996517
0.997093
0.996829
0.998648
0.999053
0.999238
0.999297
0.939316
0.91727
0.938064
0.935853
0.929208
0.904771
0.881395
0.997983
0.997263
0.996756
0.996322
0.996546
0.99715
0.9973
0.998492
0.996929
0.997877
0.999023
0.943613
0.94778
0.986994
0.982044
0.950679
0.91906
0.914654
0.997914
0.996973
0.996678
0.99575
0.995711
0.993497
0.994882
0.993606
0.994018
0.997038
0.998733
0.948488
0.985524
0.991282
0.992435
0.954115
0.94406
0.949403
0.997896
0.99699
0.996941
0.993889
0.994349
0.991205
0.992439
0.99126
0.992824
0.996366
0.998099
0.958676
0.986954
0.980694
0.991088
0.960514
0.940212
0.949398
0.997934
0.997231
0.998187
0.9931
0.988726
0.986247
0.986278
0.987868
0.992115
0.995977
0.996726
0.972307
0.974952
0.96347
0.977946
0.98264
0.94214
0.935807
0.998049
0.99768
0.998599
0.99735
0.991495
0.98761
0.984819
0.984108
0.990645
0.994583
0.996494
0.983763
0.967084
0.95958
0.966657
0.982902
0.986713
0.970078
0.998197
0.997705
0.998632
0.99864
0.995987
0.989486
0.987985
0.98809
0.986296
0.992411
0.993856
0.990287
0.97967
0.972095
0.970537
0.974217
0.985642
0.990803
0.998471
0.997729
0.998402
0.998871
0.998293
0.993446
0.991526
0.989981
0.987356
0.99006
0.992105
0.9944
0.993786
0.994295
0.991149
0.983104
0.98196
0.988833
0.998904
0.997799
0.998312
0.998802
0.999183
0.998442
0.994542
0.99249
0.990984
0.991396
0.989218
0.9932
0.996509
0.997091
0.996078
0.992416
0.985734
0.986965
0.999409
0.997945
0.998325
0.998771
0.999029
0.999282
0.995681
0.994368
0.994436
0.996377
0.992697
0.992387
0.993735
0.99477
0.99565
0.994771
0.991638
0.988127
0.999787
0.998302
0.998508
0.998837
0.99898
0.999341
0.996892
0.996119
0.997027
0.998322
0.998387
0.995732
0.993511
0.993351
0.993426
0.994585
0.994129
0.989454
0.999935
0.998697
0.998764
0.998926
0.99902
0.999351
0.998802
0.997967
0.998024
0.998484
0.999217
0.998845
0.994444
0.990962
0.991571
0.993655
0.994927
0.990369
0.999984
0.999167
0.999142
0.999152
0.999173
0.999366
0.999658
0.999382
0.998292
0.998138
0.99887
0.999569
0.997304
0.992904
0.992463
0.993601
0.996614
0.993848
0.999997
0.999784
0.999632
0.999389
0.999311
0.999465
0.99987
0.999867
0.999292
0.998791
0.999124
0.999833
0.999725
0.998776
0.998717
0.999254
0.999067
0.996043
1
0.999972
0.99986
0.999555
0.999518
0.999705
0.999951
0.999891
0.999582
0.999633
0.999859
0.999972
0.999991
0.999985
0.999959
0.999906
0.999712
0.998722
1
0.999999
0.999972
0.999814
0.999803
0.999906
0.999991
0.999993
0.999997
0.999997
0.999999
1
0.999996
0.999936
0.999629
0.999391
0.999099
0.998215
1
1
0.999996
0.999961
0.999952
0.999978
0.999999
1
1
1
1
1
0.999998
0.999898
0.99909
0.996371
0.99112
0.98993
1
0.999998
0.999999
0.999993
0.999989
0.999995
1
1
1
1
1
1
1
0.999991
0.99987
0.999075
0.996287
0.989617
0.999999
0.999998
0.999999
0.999998
0.999997
0.999999
0.999999
1
1
1
1
1
1
1
0.999981
0.999808
0.99914
0.997388
1
0.999999
0.999999
1
1
1
1
1
1
1
1
1
1
1
1
0.999997
0.999969
0.999852
1
1
1
1
1
1
1
1
1
1
1
1
1
1
1
1
0.999996
0.999981
1
1
1
1
1
1
1
1
1
1
1
1
1
1
1
1
0.999999
0.999998
1
1
1
1
1
1
1
1
1
1
1
1
1
1
0.999999
0.999999
0.999998
0.999999
1
1
1
1
1
1
1
1
1
1
1
1
1
0.999999
0.999998
0.999998
0.999999
1
1
1
1
1
1
1
1
1
1
1
1
1
1
0.999999
0.999999
0.999999
0.999999
0.999999
1
1
1
1
1
1
1
1
1
1
1
1
1
1
1
0.999999
0.999999
0.999999
1
1
1
1
1
1
1
1
1
1
1
1
1
1
1
1
1
0.999999
1
1
1
1
1
1
1
1
1
1
1
1
1
1
1
1
1
1
1
1
1
1
1
1
1
1
1
1
1
1
1
1
1
1
1
1
1
1
1
1
1
1
1
1
1
1
1
1
1
1
1
1
1
1
0.997099
0.996749
0.996284
0.994986
0.996094
0.998404
0.998038
0.99633
0.99731
0.994916
0.963708
0.905183
0.899716
0.897054
0.896144
0.921662
0.913674
0.85889
0.997018
0.99659
0.995955
0.996428
0.996689
0.998272
0.996529
0.990559
0.997504
0.994424
0.962609
0.914994
0.929319
0.90292
0.865545
0.898499
0.905095
0.904602
0.997056
0.996382
0.995167
0.994968
0.996349
0.99232
0.986416
0.985165
0.995806
0.991238
0.964177
0.934202
0.978282
0.947894
0.856089
0.849037
0.889117
0.918332
0.997174
0.996327
0.994915
0.991951
0.992912
0.984706
0.983069
0.989819
0.994304
0.978734
0.97058
0.953263
0.989904
0.968986
0.857454
0.827088
0.867679
0.909753
0.997284
0.996469
0.996287
0.990469
0.988981
0.978351
0.97424
0.984469
0.991301
0.978291
0.972914
0.963148
0.989074
0.986935
0.951561
0.886712
0.88522
0.905787
0.997528
0.996859
0.997279
0.991376
0.985835
0.982815
0.982151
0.976922
0.982482
0.979473
0.97455
0.969954
0.985844
0.986768
0.986531
0.989714
0.987245
0.972956
0.997716
0.997112
0.997775
0.996257
0.989916
0.991461
0.992975
0.989248
0.972851
0.979023
0.977133
0.977454
0.986098
0.987034
0.988335
0.990776
0.994169
0.995321
0.998006
0.997221
0.997839
0.998393
0.997464
0.994755
0.995367
0.996024
0.992786
0.980049
0.981002
0.982881
0.98973
0.991693
0.99191
0.991725
0.992507
0.995578
0.998326
0.9974
0.997712
0.998201
0.999125
0.99859
0.9947
0.996014
0.998152
0.996161
0.98206
0.984292
0.992355
0.995791
0.99672
0.996048
0.994464
0.994816
0.998775
0.997596
0.997723
0.99809
0.998915
0.999274
0.995943
0.995752
0.997652
0.998909
0.99486
0.9878
0.990732
0.995325
0.996574
0.996439
0.995322
0.994815
0.999581
0.99781
0.997877
0.998178
0.998841
0.999351
0.997596
0.997636
0.998299
0.998869
0.999052
0.993782
0.991107
0.99223
0.994039
0.994106
0.993747
0.993631
0.999883
0.998209
0.998222
0.998424
0.998819
0.999389
0.999498
0.999253
0.99905
0.998956
0.999365
0.994405
0.985559
0.98649
0.991018
0.992367
0.992433
0.992894
0.999975
0.998769
0.998783
0.998887
0.999096
0.999407
0.999786
0.999752
0.999312
0.999087
0.999488
0.99857
0.98896
0.986759
0.989066
0.990544
0.991359
0.993215
0.999997
0.99946
0.999458
0.999437
0.999454
0.999544
0.999853
0.9999
0.999642
0.999598
0.999766
0.999863
0.997896
0.993191
0.993078
0.993958
0.99664
0.998129
1
0.999929
0.999895
0.999744
0.999674
0.999737
0.999934
0.999941
0.999886
0.999916
0.99998
0.999992
0.999966
0.999762
0.999868
0.999895
0.999792
0.999488
1
1
0.999995
0.999931
0.999872
0.999902
0.999984
0.999997
0.999999
1
1
0.999999
0.999975
0.999798
0.999134
0.997432
0.996257
0.995457
1
1
1
0.999988
0.999967
0.999973
0.999997
1
1
1
1
1
0.999974
0.999683
0.998295
0.993358
0.979525
0.952955
1
0.999999
1
0.999996
0.999993
0.999996
1
1
1
1
1
1
0.999998
0.999982
0.999811
0.998578
0.993475
0.975193
1
0.999998
0.999999
0.999999
0.999998
0.999999
0.999999
1
1
1
1
1
1
1
0.99998
0.999752
0.998681
0.994968
1
1
0.999999
0.999999
0.999999
0.999999
0.999999
1
1
1
1
1
1
1
1
0.999995
0.999942
0.999643
1
1
1
1
1
1
1
1
1
1
1
1
1
1
1
0.999999
0.999994
0.999965
1
1
1
1
1
1
1
1
1
1
1
1
1
1
1
1
0.999999
0.999995
1
1
1
1
1
1
1
1
1
1
1
1
1
1
0.999999
0.999999
0.999998
0.999997
1
1
1
1
1
1
1
1
1
1
1
1
1
0.999999
0.999999
0.999998
0.999998
0.999999
1
1
1
1
1
1
1
1
1
1
1
1
1
1
1
1
1
1
1
1
1
1
1
1
1
1
1
1
1
1
1
1
1
1
1
1
1
1
1
1
1
1
1
1
1
1
1
1
1
1
1
1
1
1
1
1
1
1
1
1
1
1
1
1
1
1
1
1
1
1
1
1
1
1
1
1
1
1
1
1
1
1
1
1
1
1
1
1
1
1
1
1
1
1
1
1
1
1
1
1
1
1
1
1
1
1
1
1
0.995112
0.995086
0.993388
0.991934
0.993743
0.988055
0.992027
0.984724
0.967857
0.941242
0.875761
0.853316
0.863473
0.903126
0.914585
0.896491
0.852501
0.837679
0.995598
0.995662
0.995356
0.99247
0.993674
0.990623
0.990106
0.965379
0.949904
0.901983
0.855756
0.837452
0.845766
0.885089
0.894469
0.868612
0.85901
0.86837
0.9962
0.996172
0.995732
0.99496
0.990983
0.980246
0.973226
0.951236
0.946975
0.875472
0.857372
0.836146
0.83429
0.83913
0.851346
0.839676
0.837581
0.861032
0.996459
0.996177
0.995348
0.990834
0.986047
0.972392
0.962661
0.957445
0.9534
0.884474
0.862103
0.845473
0.85088
0.798086
0.781511
0.779819
0.799646
0.869544
0.996622
0.996222
0.995835
0.989749
0.987126
0.981829
0.966741
0.961006
0.962199
0.945561
0.907716
0.895563
0.921385
0.826255
0.804225
0.826825
0.844062
0.858883
0.996839
0.99637
0.996483
0.991725
0.990697
0.99243
0.988661
0.971181
0.957198
0.966747
0.958761
0.941859
0.972126
0.924633
0.939291
0.974782
0.970419
0.917652
0.997013
0.99673
0.997131
0.995389
0.993598
0.995278
0.996586
0.994541
0.964512
0.959954
0.975521
0.968155
0.982907
0.972866
0.984015
0.995118
0.996379
0.991813
0.997171
0.996874
0.997202
0.99813
0.998488
0.997774
0.996382
0.997789
0.993779
0.968749
0.975743
0.982639
0.989629
0.98785
0.993259
0.995931
0.996902
0.997108
0.997478
0.996998
0.997135
0.997588
0.998654
0.998856
0.996165
0.997495
0.998827
0.99487
0.974443
0.980978
0.991806
0.994379
0.996997
0.997382
0.997163
0.997325
0.997787
0.997099
0.997187
0.997496
0.998144
0.998977
0.997644
0.99855
0.99918
0.999365
0.985155
0.980144
0.988829
0.99498
0.997329
0.997597
0.997195
0.996816
0.998705
0.997321
0.997413
0.997628
0.99804
0.998975
0.998979
0.999472
0.999651
0.999577
0.997795
0.983094
0.983556
0.990563
0.994627
0.995108
0.994933
0.994743
0.999685
0.997845
0.997928
0.998084
0.998271
0.998851
0.999337
0.999745
0.999777
0.999637
0.998831
0.979037
0.976315
0.984094
0.990907
0.993174
0.993733
0.993719
0.999945
0.998821
0.998669
0.998649
0.998693
0.998907
0.999381
0.999802
0.999822
0.999666
0.999651
0.98371
0.977828
0.983332
0.99069
0.992742
0.993125
0.993211
0.999995
0.999661
0.999453
0.999186
0.99916
0.999214
0.999429
0.999852
0.9999
0.999886
0.999914
0.998769
0.990856
0.989219
0.990141
0.991716
0.992521
0.993743
1
0.999982
0.999926
0.999677
0.999552
0.999558
0.999744
0.999957
0.999976
0.999985
0.999992
0.999895
0.999029
0.998511
0.9985
0.998763
0.999398
0.999614
1
1
0.999991
0.999885
0.999817
0.999826
0.999955
0.999997
1
1
1
0.999988
0.999925
0.99968
0.999031
0.997684
0.995262
0.993155
1
1
0.999999
0.99998
0.999952
0.999956
0.999994
0.999999
1
1
1
0.999996
0.999929
0.999608
0.998348
0.993729
0.978186
0.930545
1
0.999999
0.999999
0.999995
0.999992
0.999995
1
1
1
1
1
1
0.999999
0.999994
0.999944
0.99909
0.993983
0.972052
1
0.999998
0.999998
0.999998
0.999998
0.999999
0.999999
1
1
1
1
1
1
1
0.999997
0.999896
0.999049
0.995334
1
1
1
0.999999
0.999999
1
1
1
1
1
1
1
1
1
1
0.999999
0.999974
0.999754
1
1
1
1
1
1
1
1
1
1
1
1
1
1
1
1
0.999997
0.999973
1
1
1
1
1
1
1
1
1
1
1
1
1
1
1
1
0.999999
0.999995
1
1
1
1
1
1
1
1
1
1
1
1
1
1
1
1
0.999999
0.999998
1
1
1
1
1
1
1
1
1
1
1
1
1
1
1
0.999999
0.999998
0.999998
1
1
1
1
1
1
1
1
1
1
1
1
1
1
1
0.999999
0.999999
0.999999
1
1
1
1
1
1
1
1
1
1
1
1
1
1
1
1
1
1
1
1
1
1
1
1
1
1
1
1
1
1
1
1
1
1
1
1
1
1
1
1
1
1
1
1
1
1
1
1
1
1
1
1
1
1
1
1
1
1
1
1
1
1
1
1
1
1
1
1
1
1
1
1
1
1
1
1
1
1
1
1
1
1
1
1
1
1
1
1
1
1
0.994208
0.992361
0.991476
0.987251
0.983861
0.981249
0.982992
0.987561
0.957922
0.896941
0.868427
0.861817
0.880195
0.89337
0.860294
0.828744
0.819082
0.74411
0.994247
0.9928
0.992866
0.986575
0.984777
0.985314
0.98327
0.973565
0.881621
0.851043
0.851901
0.877478
0.88606
0.877682
0.864621
0.866708
0.853212
0.737571
0.994824
0.994462
0.997044
0.991198
0.987443
0.98572
0.978895
0.940883
0.866264
0.844591
0.842394
0.871321
0.874312
0.859104
0.828888
0.818488
0.823991
0.744679
0.995282
0.995755
0.998045
0.997258
0.991122
0.98571
0.958794
0.944087
0.892164
0.860626
0.820847
0.821435
0.817827
0.796458
0.751986
0.749526
0.758215
0.75766
0.995712
0.99632
0.998051
0.998323
0.995101
0.993108
0.967903
0.942076
0.924709
0.880926
0.812358
0.769585
0.758258
0.748763
0.751177
0.794141
0.797101
0.785248
0.996189
0.996404
0.997597
0.998593
0.996947
0.995884
0.990727
0.956549
0.916279
0.890053
0.847796
0.77867
0.77215
0.768958
0.85499
0.915967
0.892724
0.846251
0.996434
0.996456
0.997134
0.998489
0.998279
0.997358
0.997264
0.989936
0.9222
0.896368
0.885001
0.833544
0.84202
0.886118
0.978408
0.991625
0.983297
0.919358
0.996794
0.99651
0.996927
0.998221
0.999157
0.998633
0.997784
0.998071
0.977553
0.922864
0.914572
0.914555
0.942622
0.971339
0.9936
0.997597
0.997717
0.98957
0.997284
0.996628
0.996895
0.997871
0.999176
0.998904
0.998006
0.998899
0.998822
0.979801
0.922095
0.939558
0.976604
0.990958
0.99728
0.998266
0.998163
0.997336
0.997771
0.996766
0.99699
0.99777
0.998908
0.998868
0.998635
0.999218
0.999595
0.998311
0.949566
0.94456
0.975137
0.992017
0.99695
0.997252
0.996969
0.997045
0.999108
0.997059
0.99728
0.998014
0.998615
0.998705
0.998906
0.999462
0.999762
0.999718
0.98691
0.95367
0.965791
0.985857
0.990995
0.992811
0.994344
0.994962
0.999789
0.997722
0.997937
0.998371
0.998601
0.998681
0.998937
0.999501
0.999808
0.999808
0.990862
0.959375
0.967551
0.982999
0.988279
0.991222
0.993232
0.994335
0.999963
0.998629
0.998755
0.99877
0.998751
0.998782
0.998935
0.999444
0.999825
0.999863
0.994132
0.969663
0.973411
0.988274
0.992526
0.99264
0.993151
0.994162
0.999996
0.999394
0.999361
0.99923
0.999143
0.999144
0.999217
0.999606
0.999915
0.999947
0.999444
0.987199
0.98509
0.987117
0.992094
0.993443
0.993859
0.995088
1
0.999857
0.999805
0.999677
0.999549
0.999516
0.999567
0.999864
0.999975
0.999977
0.9999
0.997303
0.996748
0.99798
0.99811
0.995683
0.99549
0.997291
1
0.999999
0.999986
0.999906
0.999803
0.999774
0.99987
0.999988
0.999989
0.999957
0.999894
0.999853
0.999813
0.999473
0.997401
0.988821
0.978966
0.981101
1
0.999999
0.999998
0.999981
0.999932
0.999927
0.999983
0.999996
0.999999
0.999999
0.999999
0.999988
0.999908
0.999613
0.998816
0.996273
0.983847
0.936963
1
0.999996
0.999998
0.999993
0.999983
0.99999
0.999999
1
1
1
1
1
0.999995
0.999994
0.999992
0.999898
0.99819
0.981985
0.999999
0.999997
0.999998
0.999997
0.999997
0.999999
1
1
1
1
1
1
1
1
1
0.999997
0.99995
0.999151
1
0.999999
1
0.999999
1
1
1
1
1
1
1
1
1
1
1
1
1
0.99999
1
1
1
1
1
1
1
1
1
1
1
1
1
1
1
1
1
0.999998
1
1
1
1
1
1
1
1
1
1
1
1
1
1
1
1
1
0.999999
1
1
1
1
1
1
1
1
1
1
1
1
1
1
1
1
1
1
1
1
1
1
1
1
1
1
1
1
1
1
1
1
1
1
1
0.999999
1
1
1
1
1
1
1
1
1
1
1
1
1
1
1
1
1
0.999999
1
1
1
1
1
1
1
1
1
1
1
1
1
1
1
1
1
0.999999
1
1
1
1
1
1
1
1
1
1
1
1
1
1
1
1
1
0.999999
1
1
1
1
1
1
1
1
1
1
1
1
1
1
1
1
1
1
1
1
1
1
1
1
1
1
1
1
1
1
1
1
1
1
1
1
1
1
1
1
1
1
1
1
1
1
1
1
1
1
1
1
1
1
0.99572
0.995072
0.995532
0.989977
0.979768
0.977775
0.983757
0.969601
0.981636
0.945058
0.913559
0.897035
0.883983
0.850521
0.8497
0.864855
0.853811
0.741182
0.995838
0.995694
0.997792
0.992881
0.97879
0.97695
0.973295
0.971501
0.964051
0.926108
0.900999
0.90096
0.879827
0.87592
0.89956
0.897721
0.869534
0.76601
0.996149
0.996591
0.998756
0.998363
0.988621
0.981368
0.967652
0.968242
0.953859
0.929961
0.906237
0.895557
0.878952
0.88269
0.888222
0.85045
0.823861
0.760772
0.996322
0.996678
0.998781
0.999379
0.997926
0.992051
0.963327
0.95252
0.951429
0.925434
0.903944
0.887272
0.863945
0.848145
0.792337
0.747244
0.737406
0.72946
0.996523
0.996618
0.997769
0.999447
0.999201
0.996604
0.981578
0.945324
0.935735
0.890154
0.87579
0.858936
0.8125
0.752699
0.727664
0.725024
0.72415
0.708203
0.99692
0.996603
0.997305
0.999339
0.999512
0.997869
0.99521
0.967021
0.897637
0.847963
0.824508
0.801878
0.753594
0.737569
0.740183
0.769409
0.771386
0.744738
0.997198
0.996614
0.997046
0.998849
0.99968
0.99853
0.998563
0.995993
0.920216
0.857328
0.801976
0.777515
0.762036
0.784422
0.856815
0.882243
0.831521
0.7807
0.997594
0.996653
0.996984
0.998551
0.999711
0.999109
0.998803
0.999282
0.986997
0.907041
0.820325
0.794883
0.826201
0.937878
0.987557
0.986821
0.952571
0.820728
0.997925
0.99676
0.997081
0.998439
0.999621
0.999192
0.998975
0.999466
0.999469
0.978618
0.882367
0.853633
0.915743
0.97896
0.994973
0.997398
0.996458
0.964065
0.998455
0.996976
0.997271
0.998499
0.99953
0.999157
0.999056
0.999485
0.999817
0.997933
0.942592
0.903107
0.944449
0.98354
0.993776
0.996566
0.997541
0.996757
0.999502
0.997307
0.997668
0.998882
0.999512
0.99914
0.999062
0.999461
0.999857
0.999656
0.985736
0.932432
0.943586
0.968796
0.983232
0.988975
0.993673
0.996052
0.999875
0.997986
0.998396
0.999244
0.999535
0.999167
0.999107
0.999455
0.999871
0.999738
0.987546
0.952243
0.965557
0.982123
0.985451
0.986924
0.99022
0.993406
0.999977
0.998818
0.999225
0.9995
0.999575
0.999257
0.999157
0.99947
0.999886
0.999849
0.986904
0.973973
0.988085
0.993966
0.993368
0.987791
0.985666
0.988083
0.999998
0.999587
0.999771
0.999729
0.99968
0.999435
0.999408
0.999669
0.999933
0.999909
0.994923
0.984274
0.985803
0.991152
0.995309
0.990155
0.981532
0.984283
1
0.999935
0.999956
0.99989
0.999762
0.999621
0.999651
0.999895
0.999965
0.999902
0.998107
0.994209
0.995157
0.998015
0.997521
0.987929
0.971329
0.981643
1
0.999998
0.999994
0.999957
0.999849
0.999794
0.999894
0.999978
0.999921
0.999723
0.999232
0.999255
0.999674
0.999295
0.996752
0.987681
0.948269
0.940096
1
0.999999
0.999998
0.999981
0.999927
0.999927
0.999985
0.999983
0.999967
0.999972
0.999959
0.999926
0.999907
0.999877
0.999809
0.999104
0.987278
0.92001
0.999999
0.999992
0.999997
0.999984
0.999977
0.999989
0.999998
0.999997
0.999998
0.999999
0.999999
0.999998
0.999991
0.999992
0.999999
0.99999
0.99936
0.983125
0.999998
0.999996
0.999996
0.999996
0.999998
0.999999
0.999999
1
1
1
1
1
1
1
1
1
1
0.999799
0.999999
0.999999
1
0.999999
0.999999
1
1
1
1
1
1
1
1
1
1
1
1
1
1
1
1
1
1
1
1
1
1
1
1
1
1
1
1
1
1
1
1
1
1
1
1
1
1
1
1
1
1
1
1
1
1
1
1
1
1
1
1
1
1
1
1
1
1
1
1
1
1
1
1
1
1
1
1
1
1
1
1
1
1
1
1
1
1
1
1
1
1
1
1
1
1
1
1
1
1
1
1
1
1
1
1
1
1
1
1
1
1
1
1
1
1
1
1
1
1
1
1
1
1
1
1
1
1
1
1
1
1
1
1
1
1
1
1
1
1
1
1
1
1
1
1
1
1
1
1
1
1
1
1
1
1
1
1
1
1
1
1
1
1
1
1
1
1
1
1
1
1
1
1
1
1
1
1
1
1
1
1
1
1
1
1
1
1
1
1
1
1
1
1
1
1
1
1
1
1
1
1
1
0.99568
0.99592
0.996207
0.988589
0.977268
0.976723
0.990287
0.941471
0.936322
0.941272
0.931931
0.898233
0.863644
0.863636
0.885644
0.891412
0.873579
0.796457
0.995831
0.996802
0.998441
0.994992
0.982203
0.976612
0.974577
0.949949
0.95439
0.953209
0.922538
0.890833
0.87835
0.900593
0.91249
0.897183
0.871931
0.815284
0.996137
0.997571
0.999099
0.999335
0.996693
0.984738
0.957292
0.953777
0.955422
0.946184
0.920126
0.897885
0.904876
0.929751
0.92151
0.851099
0.823491
0.79248
0.996405
0.997543
0.998644
0.999679
0.999551
0.997607
0.972757
0.948447
0.94246
0.928076
0.917139
0.901343
0.923246
0.939283
0.89273
0.777989
0.754121
0.744968
0.99662
0.997427
0.997689
0.99968
0.999797
0.999211
0.992562
0.953416
0.926415
0.908094
0.908781
0.900918
0.915725
0.914152
0.802622
0.712741
0.696486
0.691243
0.996787
0.997119
0.997314
0.999338
0.999819
0.999636
0.998016
0.985705
0.926515
0.890353
0.879112
0.888993
0.892978
0.843584
0.726367
0.694104
0.685823
0.677271
0.997102
0.996983
0.997143
0.998837
0.999778
0.999751
0.999389
0.998803
0.973593
0.9012
0.849608
0.847119
0.834972
0.77918
0.730843
0.708617
0.696795
0.685529
0.998183
0.997002
0.997134
0.998644
0.999659
0.99976
0.999539
0.999654
0.995348
0.967184
0.85162
0.835456
0.82983
0.817702
0.835262
0.795127
0.730524
0.695643
0.99934
0.997143
0.997256
0.998583
0.999623
0.999727
0.999578
0.999695
0.999571
0.991601
0.907341
0.85181
0.858641
0.911818
0.933032
0.898613
0.848836
0.759543
0.999708
0.997363
0.9975
0.998847
0.999638
0.999664
0.999553
0.999694
0.99978
0.998265
0.962269
0.89685
0.913534
0.955893
0.973552
0.969982
0.931294
0.886767
0.999856
0.997705
0.998071
0.99928
0.999719
0.999599
0.999454
0.999664
0.999789
0.999453
0.9855
0.927597
0.929439
0.946652
0.978502
0.986683
0.983913
0.973474
0.999948
0.998395
0.99876
0.99959
0.999785
0.999564
0.999422
0.999656
0.999807
0.99922
0.983068
0.958101
0.972043
0.969301
0.969456
0.977788
0.990731
0.992067
0.999985
0.999087
0.999417
0.999802
0.999837
0.999612
0.999506
0.999728
0.999885
0.998699
0.98105
0.984367
0.995226
0.995008
0.986515
0.97161
0.973901
0.987328
0.999996
0.999702
0.99985
0.9999
0.999872
0.999669
0.999646
0.999851
0.999938
0.999048
0.98464
0.98414
0.988233
0.996524
0.996924
0.983265
0.967636
0.972839
0.999999
0.999963
0.999973
0.99995
0.999861
0.999708
0.999761
0.999941
0.999951
0.999236
0.991976
0.990935
0.995786
0.998987
0.998027
0.988998
0.955993
0.961555
1
0.999997
0.999989
0.99995
0.999871
0.999838
0.999943
0.999978
0.999932
0.999302
0.997871
0.998556
0.999757
0.999874
0.999613
0.995634
0.956619
0.89988
1
0.999999
0.999996
0.999961
0.999927
0.999932
0.999984
0.999991
0.99998
0.999921
0.999781
0.999852
0.999961
0.999989
0.99999
0.999913
0.996938
0.954343
0.999999
0.99999
0.999987
0.999974
0.999981
0.999983
0.999996
0.999999
0.999998
0.999995
0.999987
0.999987
0.999992
0.999998
1
0.999999
0.999998
0.999102
0.999998
0.999994
0.999992
0.999992
0.999996
0.999996
0.999999
0.999999
1
1
1
1
1
0.999999
0.999999
0.999999
1
0.999992
1
1
1
0.999999
0.999999
1
1
1
1
1
1
1
1
1
1
1
1
1
1
1
1
1
1
1
1
1
1
1
1
1
1
1
1
1
1
0.999999
1
1
1
1
1
1
1
1
1
1
1
1
1
1
1
1
1
0.999999
1
1
1
1
1
1
1
1
1
1
1
1
1
1
1
1
1
1
1
1
1
1
1
1
1
1
1
1
1
1
1
1
1
1
1
1
1
1
1
1
1
1
1
1
1
1
1
1
1
1
1
1
1
1
1
1
1
1
1
1
1
1
1
1
1
1
1
1
1
1
1
1
1
1
1
1
1
1
1
1
1
1
1
1
1
1
1
1
1
1
1
1
1
1
1
1
1
1
1
1
1
1
1
1
1
1
1
1
1
1
1
1
1
1
1
1
1
1
1
1
1
1
1
1
1
1
1
1
1
1
1
1
1
1
1
1
1
1
1
1
1
1
1
1
0.992849
0.990687
0.990862
0.984653
0.983772
0.986156
0.994763
0.993932
0.963093
0.976615
0.948801
0.905815
0.898598
0.89822
0.898778
0.899272
0.88774
0.843984
0.993571
0.993759
0.997759
0.991453
0.983906
0.980596
0.988549
0.989886
0.969541
0.977223
0.950336
0.917861
0.91334
0.913251
0.917396
0.910498
0.882655
0.853356
0.994389
0.996027
0.999016
0.998516
0.995474
0.978974
0.968754
0.96907
0.96556
0.953083
0.962109
0.945267
0.942507
0.946438
0.94985
0.933715
0.879521
0.826293
0.995191
0.997064
0.999091
0.999546
0.999284
0.996601
0.972656
0.949546
0.940024
0.923151
0.942662
0.946293
0.949333
0.968671
0.970077
0.944024
0.887447
0.826113
0.99572
0.997039
0.998096
0.999706
0.999776
0.999649
0.995082
0.962747
0.933656
0.918375
0.906012
0.934637
0.945249
0.970771
0.968918
0.934315
0.884698
0.835409
0.996101
0.996887
0.997646
0.999496
0.99979
0.99981
0.999072
0.993746
0.980177
0.964032
0.883705
0.902263
0.937228
0.968472
0.962439
0.916697
0.867798
0.816121
0.996717
0.996881
0.997439
0.999204
0.999676
0.999811
0.999568
0.999195
0.995805
0.992275
0.913034
0.875016
0.934922
0.958239
0.929566
0.889911
0.855501
0.810714
0.997941
0.99695
0.997447
0.999084
0.999625
0.999743
0.99967
0.999537
0.998647
0.994973
0.94852
0.873297
0.909084
0.913563
0.885666
0.874039
0.860133
0.815515
0.999078
0.997094
0.997755
0.999075
0.999611
0.999731
0.999714
0.999148
0.999237
0.996406
0.950138
0.876609
0.895432
0.900965
0.894285
0.885223
0.872332
0.841586
0.999631
0.997659
0.998292
0.999233
0.999638
0.999738
0.999711
0.998636
0.998789
0.996693
0.947405
0.897704
0.897204
0.905163
0.911143
0.903256
0.89336
0.876763
0.999842
0.998496
0.998796
0.999443
0.999728
0.999728
0.999663
0.998758
0.996495
0.99276
0.944321
0.932588
0.923385
0.914689
0.930191
0.933859
0.934389
0.907301
0.999932
0.998957
0.999152
0.999604
0.999785
0.999718
0.999602
0.999133
0.992953
0.978579
0.944931
0.971093
0.966726
0.944981
0.935005
0.948622
0.950917
0.945784
0.999973
0.999352
0.999573
0.999743
0.999836
0.999728
0.999635
0.999732
0.994243
0.969109
0.971769
0.994505
0.996184
0.992206
0.974855
0.954021
0.965322
0.971109
0.999993
0.999777
0.999852
0.999819
0.999874
0.99978
0.999761
0.999885
0.998321
0.976413
0.977173
0.985727
0.994535
0.998406
0.997801
0.978303
0.963077
0.974094
0.999999
0.999965
0.99994
0.999889
0.999919
0.999846
0.999869
0.999947
0.999774
0.99239
0.987881
0.990099
0.99607
0.99908
0.999684
0.998303
0.966921
0.948647
0.999999
0.999997
0.999981
0.999934
0.999933
0.999927
0.999972
0.999975
0.999835
0.998281
0.99758
0.998638
0.999801
0.999971
0.999945
0.999421
0.992509
0.931704
0.999998
0.999998
0.999992
0.999954
0.999954
0.999965
0.99999
0.999988
0.999962
0.99981
0.999748
0.999906
0.999993
0.999999
0.999997
0.999989
0.999619
0.991812
0.999996
0.999989
0.999985
0.999976
0.999977
0.999985
0.999996
0.999998
0.999998
0.999992
0.999984
0.999988
0.999995
0.999999
0.999999
0.999998
0.999997
0.999994
0.999997
0.999993
0.999993
0.999994
0.999994
0.999995
0.999997
0.999999
1
1
1
1
1
1
1
1
1
1
1
0.999999
1
1
0.999999
1
1
1
1
1
1
1
1
1
1
1
1
1
1
1
1
1
1
1
1
1
1
1
1
1
1
1
1
1
1
0.999999
1
1
1
1
1
1
1
1
1
1
1
1
1
1
1
1
1
0.999999
1
1
1
1
1
1
1
1
1
1
1
1
1
1
1
1
1
1
1
1
1
1
1
1
1
1
1
1
1
1
1
1
1
1
1
1
1
1
1
1
1
1
1
1
1
1
1
1
1
1
1
1
1
1
1
1
1
1
1
1
1
1
1
1
1
1
1
1
1
1
1
1
1
1
1
1
1
1
1
1
1
1
1
1
1
1
1
1
1
1
1
1
1
1
1
1
1
1
1
1
1
1
1
1
1
1
1
1
1
1
1
1
1
1
1
1
1
1
1
1
1
1
1
1
1
1
1
1
1
1
1
1
1
1
1
1
1
1
1
1
1
1
1
1
0.99613
0.992811
0.992268
0.987019
0.986335
0.994333
0.995953
0.99816
0.994002
0.993707
0.977324
0.938969
0.922911
0.911429
0.908852
0.909672
0.906808
0.892409
0.996393
0.994663
0.996608
0.990964
0.989516
0.990578
0.986406
0.995519
0.991609
0.989962
0.98347
0.954699
0.946954
0.940749
0.943143
0.949212
0.929641
0.911169
0.997004
0.9966
0.998408
0.993073
0.986145
0.978702
0.973782
0.985877
0.988083
0.977242
0.990325
0.977993
0.973362
0.974213
0.977896
0.982093
0.971872
0.935791
0.997629
0.997669
0.999137
0.998378
0.993693
0.982845
0.970382
0.964032
0.968627
0.940228
0.954595
0.977958
0.973505
0.978076
0.981012
0.986072
0.986611
0.966953
0.998077
0.998065
0.999184
0.999555
0.999447
0.998466
0.989373
0.964331
0.957058
0.936943
0.921919
0.945119
0.966466
0.976686
0.982689
0.984837
0.989274
0.982531
0.998382
0.998241
0.998787
0.999497
0.999656
0.999685
0.998864
0.992168
0.988713
0.973345
0.917878
0.893536
0.932325
0.97264
0.981048
0.982978
0.990018
0.990237
0.998731
0.998391
0.998714
0.99925
0.99955
0.99943
0.999566
0.999124
0.996628
0.986716
0.934398
0.878065
0.894766
0.956081
0.97933
0.982879
0.988628
0.991862
0.999171
0.99858
0.998798
0.999191
0.999478
0.999374
0.999563
0.999114
0.996617
0.98785
0.947842
0.882164
0.888656
0.935027
0.969107
0.981195
0.986268
0.991141
0.999461
0.998745
0.998957
0.99919
0.999454
0.999574
0.999616
0.998741
0.994986
0.987674
0.962337
0.909561
0.892422
0.893932
0.929961
0.950881
0.977305
0.988301
0.999691
0.998975
0.999137
0.999258
0.999436
0.999724
0.99973
0.998766
0.994427
0.986163
0.983087
0.979086
0.934661
0.892161
0.902174
0.912159
0.931394
0.963211
0.999888
0.99925
0.999291
0.999333
0.999451
0.999739
0.99974
0.99909
0.994925
0.987597
0.990287
0.993562
0.987307
0.932473
0.901961
0.907701
0.912833
0.922453
0.999958
0.999414
0.999424
0.999413
0.999563
0.999745
0.999711
0.999228
0.997197
0.99011
0.994183
0.997763
0.996398
0.974733
0.915779
0.905906
0.910002
0.911147
0.999983
0.99953
0.999613
0.999522
0.999691
0.999761
0.999704
0.999711
0.996205
0.991973
0.996267
0.998334
0.999193
0.997114
0.977266
0.9304
0.921546
0.921234
0.999995
0.999835
0.99981
0.999555
0.999779
0.999856
0.999842
0.999877
0.998287
0.989506
0.990962
0.99403
0.997892
0.99923
0.997657
0.971381
0.935454
0.933475
0.999999
0.999964
0.999838
0.999676
0.999895
0.999946
0.999948
0.999947
0.999688
0.994412
0.993146
0.994116
0.997482
0.999524
0.999881
0.999329
0.986879
0.942169
1
0.999996
0.999927
0.999857
0.999947
0.999977
0.999984
0.999949
0.999652
0.998246
0.998227
0.99936
0.999945
0.999994
0.999985
0.999879
0.998457
0.982706
0.999999
0.999998
0.999966
0.999947
0.999979
0.999994
0.999998
0.999974
0.999907
0.999758
0.999827
0.999984
0.999999
0.999999
0.999984
0.999972
0.999952
0.998755
0.999997
0.999986
0.999975
0.999983
0.999986
0.999994
0.999998
0.999999
0.999998
0.999991
0.999991
0.999995
0.999998
1
0.999999
0.999987
0.999973
0.99998
0.999997
0.999995
0.999995
0.999997
0.999996
0.999997
0.999999
1
1
1
1
1
1
1
1
0.999999
0.999997
0.999996
1
1
1
1
1
1
1
1
1
1
1
1
1
1
1
1
1
1
1
1
1
1
1
1
1
1
1
1
1
1
1
1
1
1
1
1
1
1
1
1
1
1
1
1
1
1
1
1
1
1
1
1
1
1
1
1
1
1
1
1
1
1
1
1
1
1
1
1
1
1
1
1
1
1
1
1
1
1
1
1
1
1
1
1
1
1
1
1
1
1
1
1
1
1
1
1
1
1
1
1
1
1
1
1
1
1
1
1
1
1
1
1
1
1
1
1
1
1
1
1
1
1
1
1
1
1
1
1
1
1
1
1
1
1
1
1
1
1
1
1
1
1
1
1
1
1
1
1
1
1
1
1
1
1
1
1
1
1
1
1
1
1
1
1
1
1
1
1
1
1
1
1
1
1
1
1
1
1
1
1
1
1
1
1
1
1
1
1
1
1
1
1
1
1
1
1
1
1
0.998628
0.997462
0.996724
0.995116
0.994068
0.995894
0.996135
0.99844
0.998508
0.998663
0.990624
0.944895
0.921671
0.916824
0.92032
0.924541
0.910654
0.908314
0.99862
0.997857
0.998062
0.996131
0.995934
0.996853
0.991431
0.994979
0.993247
0.994617
0.995541
0.966218
0.957885
0.971092
0.977026
0.977334
0.943892
0.927481
0.998765
0.99841
0.998943
0.997419
0.992907
0.990402
0.984256
0.984964
0.983239
0.985405
0.992202
0.985934
0.984227
0.98556
0.98667
0.988248
0.983586
0.961242
0.998903
0.998691
0.999186
0.99909
0.998036
0.988178
0.977084
0.976594
0.975825
0.97697
0.977965
0.978154
0.972542
0.97741
0.97784
0.98279
0.988144
0.985261
0.999024
0.998792
0.999179
0.999233
0.998951
0.997241
0.982342
0.976766
0.974694
0.975614
0.973071
0.956205
0.929508
0.947808
0.963429
0.9752
0.985029
0.987267
0.999113
0.998839
0.999081
0.999232
0.999109
0.998564
0.996419
0.992955
0.987149
0.98158
0.978426
0.94747
0.919966
0.927374
0.942032
0.961041
0.983142
0.987167
0.999246
0.998882
0.99906
0.99917
0.999187
0.998588
0.999326
0.99837
0.993634
0.986107
0.981215
0.957823
0.925907
0.930382
0.924812
0.93308
0.970977
0.987823
0.999389
0.998949
0.999096
0.999165
0.999269
0.998609
0.999064
0.997996
0.993846
0.992157
0.986261
0.971973
0.968478
0.958474
0.924618
0.917069
0.938711
0.982696
0.999519
0.99904
0.999154
0.999198
0.999343
0.999321
0.998898
0.997222
0.993935
0.994849
0.996524
0.993817
0.988957
0.987291
0.937085
0.910102
0.917854
0.966969
0.999728
0.999147
0.999234
0.999242
0.999343
0.999612
0.999351
0.997485
0.99481
0.995428
0.995853
0.996917
0.998382
0.998332
0.958001
0.907104
0.905271
0.939897
0.999862
0.999265
0.99933
0.999292
0.999341
0.999713
0.99975
0.999077
0.996573
0.996443
0.997503
0.998935
0.999223
0.998977
0.980262
0.911475
0.899837
0.91129
0.999943
0.999439
0.999443
0.999342
0.99936
0.999763
0.999827
0.99958
0.998352
0.998294
0.9991
0.999491
0.99959
0.9992
0.991838
0.929525
0.903923
0.904169
0.999981
0.999559
0.999558
0.999424
0.999441