/*--------------------------------*- C++ -*----------------------------------*\
| =========                 |                                                 |
| \\      /  F ield         | OpenFOAM: The Open Source CFD Toolbox           |
|  \\    /   O peration     | Version:  2112                                  |
|   \\  /    A nd           | Website:  www.openfoam.com                      |
|    \\/     M anipulation  |                                                 |
\*---------------------------------------------------------------------------*/
FoamFile
{
    version     2.0;
    format      ascii;
    arch        "LSB;label=32;scalar=64";
    class       volScalarField;
    location    "0.46";
    object      kU;
}
// * * * * * * * * * * * * * * * * * * * * * * * * * * * * * * * * * * * * * //

dimensions      [0 2 -2 0 0 0 0];

internalField   nonuniform List<scalar> 
12225
(
0.124922
0.18351
0.219377
0.243749
0.260268
0.271411
0.280085
0.287659
0.294904
0.302343
0.310359
0.319237
0.329163
0.340214
0.352307
0.365142
0.378243
0.389692
0.0407894
0.045988
0.0511744
0.0562189
0.0610386
0.065689
0.0703541
0.0751876
0.0802753
0.0856457
0.0912858
0.0971574
0.103215
0.109433
0.115848
0.122665
0.130471
0.141052
0.0375871
0.038222
0.0391019
0.0400269
0.040599
0.0407695
0.0406354
0.0403156
0.0399143
0.0395069
0.0391409
0.0388414
0.0386224
0.0385007
0.0385181
0.0387796
0.0395449
0.0413606
0.0373119
0.0371609
0.0371041
0.0371735
0.0373496
0.0375694
0.0377978
0.0380072
0.0381782
0.0382988
0.0383635
0.0383399
0.0382261
0.0380326
0.0377701
0.0374497
0.0370943
0.0367678
0.037305
0.0371212
0.0369536
0.0368041
0.0366767
0.0365735
0.0364944
0.0364389
0.0364061
0.0363936
0.0363975
0.0364116
0.036429
0.0364425
0.0364451
0.0364325
0.036409
0.0364117
0.0373009
0.0371119
0.0369333
0.0367645
0.036607
0.0364612
0.0363268
0.036203
0.0360895
0.0359856
0.0358905
0.0358031
0.0357224
0.0356473
0.0355779
0.0355173
0.0354767
0.0354824
0.0372978
0.0371061
0.036925
0.0367545
0.036595
0.0364463
0.0363075
0.0361776
0.0360558
0.0359415
0.0358338
0.0357323
0.0356366
0.0355466
0.0354637
0.0353915
0.0353385
0.0353201
0.0372957
0.0371022
0.0369197
0.0367479
0.0365866
0.0364356
0.0362943
0.0361616
0.0360369
0.0359197
0.0358094
0.0357055
0.0356077
0.0355162
0.0354323
0.0353587
0.0353012
0.035268
0.0372943
0.0370994
0.0369156
0.0367425
0.0365797
0.036427
0.0362838
0.0361492
0.0360226
0.0359035
0.0357913
0.0356856
0.0355864
0.0354939
0.035409
0.0353335
0.0352708
0.0352246
0.0372932
0.0370972
0.0369124
0.0367382
0.0365742
0.0364202
0.0362754
0.0361391
0.0360108
0.0358898
0.0357758
0.0356685
0.0355678
0.0354737
0.035387
0.0353086
0.0352402
0.0351827
0.0372924
0.0370956
0.0369098
0.0367347
0.0365697
0.0364144
0.0362682
0.0361305
0.0360006
0.0358781
0.0357626
0.0356538
0.0355516
0.035456
0.0353673
0.0352858
0.0352119
0.0351455
0.0372918
0.0370943
0.0369078
0.0367319
0.036566
0.0364097
0.0362623
0.0361234
0.0359923
0.0358685
0.0357517
0.0356415
0.035538
0.0354408
0.0353501
0.0352657
0.0351875
0.0351147
0.0372914
0.0370934
0.0369062
0.0367295
0.0365628
0.0364055
0.0362571
0.036117
0.0359847
0.0358597
0.0357417
0.0356304
0.0355254
0.0354267
0.0353341
0.0352472
0.0351655
0.0350882
0.037291
0.0370925
0.0369047
0.0367273
0.0365597
0.0364015
0.036252
0.0361108
0.0359773
0.0358511
0.0357318
0.0356191
0.0355128
0.0354125
0.0353179
0.0352286
0.0351441
0.0350635
0.0372907
0.0370918
0.0369034
0.0367253
0.036557
0.0363978
0.0362473
0.0361049
0.0359703
0.0358428
0.0357223
0.0356083
0.0355006
0.0353987
0.0353024
0.0352112
0.0351245
0.0350418
0.0372905
0.0370913
0.0369025
0.0367238
0.0365547
0.0363946
0.0362431
0.0360997
0.0359639
0.0358353
0.0357136
0.0355984
0.0354893
0.035386
0.0352883
0.0351955
0.0351075
0.0350237
0.0372904
0.037091
0.0369019
0.0367227
0.036553
0.0363921
0.0362397
0.0360953
0.0359585
0.0358288
0.035706
0.0355896
0.0354793
0.0353748
0.0352759
0.035182
0.035093
0.0350086
0.0372904
0.037091
0.0369017
0.0367222
0.036552
0.0363905
0.0362373
0.036092
0.0359542
0.0358236
0.0356996
0.0355821
0.0354707
0.0353651
0.035265
0.0351701
0.0350801
0.0349949
0.0372905
0.0370913
0.0369021
0.0367224
0.0365518
0.0363899
0.0362361
0.0360901
0.0359515
0.0358199
0.0356949
0.0355764
0.0354639
0.0353571
0.0352557
0.0351595
0.0350681
0.0349815
0.0372908
0.0370918
0.0369028
0.0367232
0.0365525
0.0363903
0.0362361
0.0360896
0.0359504
0.0358181
0.0356924
0.035573
0.0354595
0.0353517
0.0352491
0.0351516
0.0350589
0.0349707
0.0372912
0.0370925
0.0369037
0.0367242
0.0365535
0.0363912
0.0362368
0.03609
0.0359504
0.0358177
0.0356914
0.0355714
0.0354572
0.0353486
0.0352452
0.0351468
0.035053
0.0349637
0.0372916
0.0370933
0.0369048
0.0367255
0.0365549
0.0363926
0.0362381
0.0360911
0.0359513
0.0358182
0.0356916
0.0355712
0.0354565
0.0353474
0.0352434
0.0351444
0.03505
0.0349599
0.0372921
0.0370944
0.0369062
0.0367271
0.0365566
0.0363943
0.0362398
0.0360926
0.0359525
0.0358191
0.0356921
0.0355711
0.035456
0.0353463
0.0352418
0.0351422
0.0350473
0.0349567
0.0372929
0.0370956
0.0369078
0.0367288
0.0365585
0.0363964
0.036242
0.0360949
0.0359548
0.0358213
0.0356941
0.035573
0.0354576
0.0353477
0.035243
0.0351432
0.0350481
0.0349573
0.0372939
0.0370973
0.0369096
0.0367305
0.0365597
0.0363972
0.0362424
0.0360951
0.0359549
0.0358215
0.0356947
0.0355742
0.0354598
0.0353512
0.0352482
0.0351504
0.0350574
0.034969
0.0372955
0.0371007
0.0369159
0.0367402
0.0365736
0.0364162
0.0362684
0.0361304
0.0360025
0.0358848
0.035777
0.0356787
0.0355898
0.03551
0.0354387
0.0353756
0.0353206
0.0352732
0.0372979
0.0371054
0.0369342
0.0367918
0.0366872
0.0366284
0.0366163
0.0366464
0.0367111
0.0367991
0.0368912
0.0369808
0.0370626
0.0371273
0.0371623
0.0371639
0.0371316
0.0370682
0.0373495
0.0374898
0.0378008
0.0382261
0.0387126
0.0392011
0.0395451
0.0397113
0.0397275
0.0396355
0.0394825
0.0393163
0.0391816
0.0391184
0.0391606
0.039336
0.0396655
0.0401669
0.0387386
0.0412447
0.0441641
0.0472672
0.0503755
0.0533373
0.0561737
0.0589653
0.0617987
0.0647493
0.0678772
0.0712267
0.0748272
0.0786951
0.0828376
0.0872537
0.0919376
0.0968737
0.0989987
0.145549
0.177544
0.200951
0.218433
0.229378
0.236789
0.242131
0.246111
0.249065
0.251147
0.252422
0.25292
0.252655
0.251641
0.249904
0.247467
0.244418
0.140649
0.1779
0.183729
0.179758
0.17224
0.163994
0.156371
0.149774
0.144038
0.138303
0.131704
0.123426
0.113236
0.101924
0.0981001
0.115211
0.168452
0.273773
0.454743
0.732729
0.97864
1.20029
1.39414
1.55234
1.67117
1.75042
1.79224
1.80008
1.78108
1.74957
1.70783
1.65769
1.60067
1.53804
1.47081
1.40197
1.33666
1.27404
1.21346
1.15456
1.09711
1.041
0.98622
0.932804
0.880852
0.830507
0.781941
0.735347
0.690937
0.648944
0.609648
0.573409
0.540729
0.512336
0.489293
0.473152
0.465882
0.473749
0.497256
0.530183
0.566102
0.602939
0.642246
0.683905
0.727664
0.773301
0.820657
0.869672
0.92042
0.973502
1.03085
1.09527
1.1634
1.20911
1.19491
1.12015
1.0061
0.88858
0.79467
0.730054
0.68647
0.654113
0.62968
0.610516
0.58736
0.558465
0.52957
0.511201
0.499925
0.487389
0.470036
0.451793
0.436605
0.420349
0.39756
0.3799
0.405324
0.514452
0.726388
0.997154
1.22783
1.42716
1.58281
1.68766
1.73995
1.73929
1.71107
1.66181
1.59455
1.51212
1.41625
1.32098
1.22697
1.13482
1.04543
0.959795
0.879026
0.804422
0.7376
0.680826
0.637468
0.613777
0.621985
0.702114
0.817912
0.967107
1.15837
1.39946
1.70088
2.0759
2.54145
3.12261
3.82863
4.54808
5.24043
5.88292
6.41993
6.74445
6.7455
6.36593
5.63556
4.69353
3.72701
2.88944
2.25102
1.80961
1.52292
1.34136
1.22573
1.15026
1.09916
1.0625
1.03355
1.00744
0.980523
0.950066
0.914057
0.871112
0.820518
0.762423
0.698235
0.63113
0.565622
0.507998
0.466501
0.445437
0.443156
0.453956
0.472632
0.494902
0.518671
0.544548
0.575365
0.615781
0.672622
0.754122
0.860132
0.957929
0.981663
0.926406
0.391632
0.305446
0.270213
0.243383
0.218152
0.194313
0.17214
0.152227
0.139227
0.13628
0.150032
0.19406
0.287499
0.43691
0.624434
0.772451
0.851134
0.903585
0.944755
0.977693
0.992162
0.986941
0.961666
0.918005
0.85952
0.790887
0.717148
0.643184
0.573441
0.511403
0.459267
0.418526
0.389877
0.373123
0.367648
0.370241
0.374177
0.37904
0.384518
0.390354
0.396339
0.402288
0.408057
0.413978
0.41996
0.425896
0.431628
0.43698
0.441769
0.44584
0.449091
0.451453
0.452932
0.453661
0.453864
0.453743
0.45341
0.452875
0.452296
0.451618
0.450848
0.450017
0.449056
0.447802
0.446029
0.443402
0.439307
0.433746
0.426744
0.418408
0.409614
0.403038
0.403747
0.421088
0.456224
0.482557
0.489454
0.482519
0.471664
0.46171
0.44981
0.42586
0.377147
0.307179
0.243285
0.199305
0.171632
0.154539
0.144932
0.138791
0.136572
0.143867
0.172653
0.241424
0.367333
0.532278
0.678043
0.758404
0.788273
0.789072
0.761979
0.714439
0.652347
0.582292
0.511269
0.445709
0.39127
0.35127
0.327906
0.321377
0.331863
0.343415
0.355355
0.367334
0.379048
0.390267
0.400826
0.4106
0.419205
0.427677
0.435927
0.443437
0.449154
0.451574
0.45086
0.447241
0.440874
0.432238
0.421976
0.411062
0.401417
0.398244
0.432991
0.643446
1.0133
1.45898
1.9156
2.33025
2.65897
2.86615
2.92569
2.82803
2.59166
2.2653
1.9105
1.57815
1.29655
1.07355
0.904472
0.779589
0.688638
0.622851
0.575401
0.541171
0.51636
0.498131
0.484358
0.473408
0.46397
0.45495
0.445457
0.434929
0.423295
0.411026
0.398778
0.386472
0.372911
0.357233
0.338645
0.317328
0.292941
0.265098
0.234525
0.205042
0.181124
0.167416
0.166849
0.184075
0.229284
0.274532
0.598797
0.35537
0.304351
0.277293
0.257126
0.241423
0.226737
0.241794
0.276321
0.333222
0.433254
0.568536
0.690585
0.780792
0.827308
0.835092
0.819745
0.793444
0.760595
0.721461
0.674885
0.621646
0.563613
0.50377
0.445659
0.392655
0.347332
0.311096
0.284135
0.265621
0.254099
0.247889
0.245401
0.245345
0.247479
0.25061
0.254611
0.259413
0.265
0.271383
0.27858
0.286586
0.295342
0.304695
0.314413
0.324799
0.335571
0.346348
0.35667
0.366081
0.374312
0.38115
0.386314
0.389838
0.392214
0.394211
0.396524
0.399316
0.40245
0.406152
0.410366
0.415039
0.420084
0.425363
0.430683
0.43579
0.440383
0.444116
0.446607
0.447408
0.445917
0.442563
0.438254
0.433302
0.426726
0.416567
0.402001
0.38439
0.367288
0.354975
0.349
0.348685
0.349854
0.339747
0.303101
0.244434
0.189479
0.157666
0.143667
0.138786
0.149301
0.19474
0.294053
0.444127
0.593794
0.670645
0.665343
0.625107
0.570983
0.511488
0.451775
0.396548
0.349504
0.313159
0.288402
0.274463
0.269397
0.270732
0.276076
0.283369
0.292074
0.301526
0.311384
0.321306
0.331017
0.340286
0.348799
0.357369
0.366604
0.376707
0.387682
0.399067
0.409216
0.415422
0.417974
0.416255
0.41004
0.39978
0.386325
0.369796
0.350855
0.331972
0.315022
0.304949
0.336292
0.437146
0.602528
0.80736
1.02515
1.23619
1.42296
1.5641
1.63716
1.62911
1.54454
1.40435
1.23677
1.06744
0.913699
0.783691
0.678694
0.596186
0.532222
0.482771
0.444291
0.413906
0.389468
0.36956
0.353451
0.34075
0.330973
0.323421
0.317393
0.312217
0.307337
0.30232
0.296714
0.289849
0.280336
0.265341
0.244087
0.217106
0.186553
0.156452
0.132818
0.121274
0.122685
0.135149
0.166308
0.227826
0.672546
0.378071
0.356118
0.33677
0.328452
0.341546
0.385178
0.425501
0.480905
0.549627
0.623535
0.685587
0.720322
0.724682
0.704623
0.669526
0.627272
0.581838
0.534487
0.485553
0.435694
0.386477
0.339971
0.298258
0.262878
0.234499
0.212914
0.197288
0.186493
0.179402
0.175075
0.172826
0.172198
0.173007
0.174206
0.175515
0.176906
0.17845
0.180328
0.182822
0.18629
0.191121
0.197677
0.20624
0.21696
0.229806
0.244529
0.2606
0.277157
0.292965
0.306895
0.319347
0.329276
0.335919
0.339196
0.340787
0.342198
0.344275
0.347452
0.351932
0.357781
0.365017
0.373598
0.383424
0.394321
0.406011
0.418101
0.43009
0.441401
0.451447
0.459747
0.465983
0.469945
0.471343
0.469347
0.461937
0.447609
0.426761
0.401779
0.376414
0.354819
0.339061
0.33027
0.325589
0.314115
0.28541
0.243945
0.205361
0.186439
0.187994
0.221578
0.314541
0.467316
0.602436
0.633661
0.59093
0.527137
0.461413
0.40077
0.347797
0.304353
0.271402
0.2486
0.234465
0.226985
0.224223
0.224666
0.227307
0.231585
0.237606
0.244955
0.253161
0.26178
0.270398
0.27873
0.286698
0.294474
0.302469
0.311219
0.321472
0.333734
0.347998
0.361409
0.372492
0.380143
0.382636
0.379105
0.369857
0.356155
0.339697
0.322174
0.304971
0.28906
0.275098
0.2651
0.269014
0.298786
0.361198
0.454069
0.569171
0.695669
0.820926
0.930334
1.00891
1.04511
1.0348
0.982732
0.900714
0.80342
0.704029
0.611649
0.530965
0.463292
0.407934
0.363232
0.327224
0.298012
0.273976
0.254014
0.237669
0.224599
0.21445
0.206754
0.200857
0.195928
0.190996
0.185288
0.178083
0.169286
0.158737
0.145583
0.13035
0.114576
0.100984
0.0938147
0.0973748
0.112371
0.137816
0.182134
0.255889
0.649925
0.435898
0.433767
0.424036
0.431148
0.454331
0.479888
0.51102
0.54632
0.579367
0.602914
0.610616
0.60046
0.575341
0.540406
0.500354
0.45822
0.415473
0.372977
0.331701
0.292945
0.258125
0.228375
0.204275
0.185788
0.172376
0.163215
0.157406
0.154125
0.152687
0.152551
0.15329
0.154566
0.155874
0.156655
0.156678
0.155741
0.153747
0.150775
0.147143
0.143425
0.140388
0.138878
0.139671
0.143356
0.150276
0.160537
0.17405
0.190554
0.209566
0.230245
0.251239
0.270612
0.28621
0.295043
0.298959
0.300543
0.30164
0.303593
0.306999
0.312111
0.319198
0.328442
0.339942
0.353685
0.369493
0.386977
0.40551
0.424253
0.442241
0.458529
0.472339
0.483096
0.490308
0.493242
0.490609
0.481244
0.465997
0.446241
0.422724
0.396647
0.370184
0.346686
0.328998
0.315846
0.301361
0.280874
0.255976
0.242008
0.261255
0.332304
0.461311
0.590167
0.60976
0.546596
0.471988
0.403259
0.344558
0.296508
0.259054
0.231674
0.212866
0.200574
0.19286
0.188309
0.18613
0.186028
0.187983
0.192011
0.198374
0.20606
0.214471
0.222982
0.231051
0.238325
0.244734
0.250541
0.256324
0.262759
0.27114
0.2821
0.294559
0.307771
0.320721
0.331392
0.337731
0.338459
0.333505
0.323855
0.311028
0.296556
0.281681
0.267304
0.254069
0.242512
0.234334
0.233013
0.244077
0.272464
0.320147
0.385054
0.461162
0.539616
0.610488
0.664507
0.694537
0.696934
0.672515
0.626418
0.566527
0.501122
0.436926
0.378252
0.327157
0.284068
0.248441
0.219283
0.195512
0.176168
0.160485
0.147865
0.137816
0.129871
0.123533
0.118249
0.113442
0.108567
0.103155
0.0968599
0.0901997
0.0833695
0.0767096
0.0714217
0.0695967
0.0745083
0.0894943
0.115224
0.152203
0.208548
0.283374
0.595287
0.512698
0.513107
0.500604
0.495011
0.494428
0.500544
0.509782
0.517862
0.520702
0.515277
0.500316
0.476667
0.446612
0.412709
0.377028
0.341037
0.305865
0.272603
0.242352
0.216079
0.19443
0.177614
0.16541
0.157267
0.152459
0.150229
0.149895
0.15089
0.152767
0.155176
0.157826
0.16046
0.163209
0.165778
0.167712
0.168449
0.16739
0.164011
0.158049
0.149696
0.139745
0.129551
0.120758
0.114863
0.11283
0.11496
0.121084
0.130932
0.144315
0.160975
0.180295
0.20092
0.221182
0.238422
0.251143
0.258771
0.263305
0.266357
0.270083
0.274848
0.281335
0.290152
0.301804
0.316634
0.334739
0.355868
0.379353
0.404099
0.428705
0.451676
0.47164
0.487409
0.497944
0.502025
0.498704
0.488987
0.474962
0.458834
0.441125
0.41998
0.395199
0.367719
0.341438
0.321207
0.309776
0.305169
0.30335
0.315333
0.368567
0.466782
0.576482
0.603171
0.529284
0.445027
0.373161
0.31483
0.268619
0.23331
0.207569
0.189488
0.176933
0.168129
0.161963
0.157978
0.156192
0.156847
0.160165
0.166147
0.174214
0.183215
0.192421
0.2011
0.208663
0.214786
0.219505
0.223271
0.226884
0.231167
0.237956
0.246221
0.256891
0.26954
0.282831
0.294762
0.303215
0.306723
0.304961
0.298674
0.289169
0.277758
0.265442
0.252888
0.240578
0.228992
0.219015
0.211805
0.209398
0.214763
0.230738
0.258715
0.297692
0.343916
0.391465
0.433714
0.464831
0.480626
0.47903
0.460496
0.428014
0.38636
0.340757
0.295647
0.254052
0.217558
0.186636
0.161055
0.140226
0.12345
0.110056
0.0994535
0.0911361
0.0846541
0.0795889
0.0755394
0.0721285
0.0690245
0.0659626
0.0627728
0.0594432
0.0565225
0.0545195
0.0545161
0.0586226
0.0700696
0.0920279
0.125458
0.171681
0.233607
0.296534
0.539337
0.553581
0.544466
0.52883
0.510836
0.494218
0.483014
0.473741
0.463517
0.450201
0.432606
0.410528
0.384613
0.356009
0.325996
0.295793
0.266504
0.239133
0.214558
0.193461
0.176244
0.162971
0.153374
0.146932
0.143006
0.140967
0.140301
0.140649
0.14181
0.143699
0.146293
0.149565
0.153549
0.158557
0.164305
0.170339
0.176011
0.180458
0.182626
0.181382
0.175766
0.165418
0.151051
0.134703
0.119356
0.107833
0.101623
0.100526
0.103715
0.110665
0.121211
0.135199
0.151831
0.169911
0.186745
0.200468
0.210599
0.219149
0.226984
0.234572
0.241633
0.24892
0.257814
0.26941
0.284632
0.304056
0.327745
0.355095
0.384766
0.414788
0.442842
0.466535
0.483648
0.491574
0.490262
0.480742
0.465533
0.448296
0.432607
0.419808
0.406774
0.391278
0.371261
0.347348
0.325859
0.316263
0.323861
0.344727
0.388284
0.475431
0.577141
0.614532
0.538763
0.439866
0.361413
0.300898
0.254135
0.218668
0.192703
0.174223
0.16114
0.15176
0.145051
0.140624
0.138528
0.138977
0.142126
0.147942
0.156125
0.165623
0.175511
0.185005
0.193313
0.199851
0.204366
0.207057
0.208635
0.21012
0.212707
0.216925
0.223607
0.232982
0.244597
0.257213
0.268981
0.277945
0.282694
0.282834
0.278963
0.2722
0.263638
0.254009
0.243684
0.232858
0.221808
0.211194
0.20209
0.195557
0.193109
0.196511
0.207092
0.225068
0.249242
0.276962
0.304364
0.327194
0.341817
0.345845
0.338405
0.320292
0.293846
0.262375
0.229297
0.197407
0.168541
0.143603
0.122796
0.105874
0.0923679
0.0817398
0.0734715
0.0671021
0.0622338
0.0585243
0.0556775
0.0534398
0.0516008
0.0499997
0.048541
0.0472328
0.0462869
0.046416
0.0488937
0.0560514
0.0714082
0.0983266
0.138166
0.191586
0.251915
0.29548
0.515907
0.555285
0.540341
0.521385
0.500407
0.473755
0.451573
0.43171
0.412416
0.392363
0.370771
0.347391
0.322462
0.296595
0.270612
0.245385
0.221727
0.200328
0.181711
0.166183
0.153785
0.144281
0.137221
0.13206
0.128287
0.125521
0.123557
0.122366
0.122046
0.122773
0.12472
0.128004
0.132852
0.139353
0.14736
0.156585
0.166559
0.176569
0.185594
0.192257
0.194853
0.191569
0.181019
0.163371
0.141493
0.120626
0.105692
0.0977745
0.0954699
0.0974525
0.10316
0.112407
0.124713
0.13881
0.152543
0.164242
0.174385
0.183336
0.191765
0.200331
0.209494
0.219398
0.229647
0.241665
0.257211
0.277529
0.303157
0.333658
0.367432
0.401725
0.432906
0.456617
0.469359
0.470076
0.45898
0.438909
0.41484
0.392106
0.374888
0.364954
0.359759
0.356068
0.349836
0.337786
0.323616
0.319631
0.337763
0.377146
0.448747
0.561549
0.635044
0.582267
0.457137
0.364868
0.298579
0.24911
0.211855
0.184463
0.164914
0.151206
0.141652
0.135132
0.131099
0.129405
0.130074
0.133134
0.138503
0.14591
0.154841
0.164567
0.174379
0.183419
0.190841
0.196102
0.199023
0.199983
0.199957
0.200075
0.201402
0.204758
0.210685
0.219253
0.229894
0.241404
0.252155
0.260513
0.265318
0.266251
0.263848
0.259102
0.25293
0.24584
0.237927
0.229071
0.219231
0.208759
0.198673
0.190018
0.183964
0.181753
0.184354
0.191954
0.203789
0.218426
0.233951
0.247969
0.257904
0.261608
0.257845
0.246525
0.228731
0.206467
0.182133
0.15795
0.135565
0.115943
0.0994524
0.0860383
0.0753925
0.0670975
0.0607208
0.0558675
0.0522013
0.0494455
0.0473765
0.045815
0.0446199
0.0436877
0.042964
0.042481
0.0424638
0.0435746
0.047296
0.0562852
0.0744488
0.105498
0.151063
0.208844
0.261976
0.285479
0.593964
0.540635
0.522809
0.501057
0.475918
0.444938
0.418029
0.394006
0.371667
0.349924
0.32803
0.305625
0.282755
0.259792
0.237284
0.215824
0.195959
0.178144
0.162695
0.149718
0.13908
0.130446
0.12337
0.117422
0.112278
0.107779
0.103942
0.100929
0.0989932
0.0984141
0.0994373
0.102234
0.107097
0.113965
0.122813
0.13351
0.14578
0.159138
0.172829
0.185739
0.196361
0.202756
0.202209
0.191754
0.170463
0.14283
0.118764
0.103378
0.095805
0.0938304
0.0962453
0.102422
0.111967
0.122259
0.132547
0.142262
0.151216
0.159524
0.167512
0.175602
0.184239
0.193887
0.205056
0.217979
0.233909
0.254885
0.282033
0.315145
0.352321
0.389685
0.421303
0.441935
0.448457
0.438991
0.41541
0.383755
0.351489
0.324491
0.30617
0.297838
0.298439
0.304862
0.31213
0.314874
0.31327
0.318715
0.346703
0.400773
0.49584
0.616751
0.637686
0.515384
0.385416
0.306927
0.252063
0.211512
0.181588
0.160175
0.145378
0.135501
0.129237
0.125718
0.124422
0.125062
0.127499
0.131694
0.137607
0.145036
0.153421
0.162506
0.171543
0.179633
0.185942
0.190038
0.191848
0.191958
0.191533
0.191731
0.193451
0.197366
0.20375
0.212366
0.222447
0.232833
0.242216
0.2494
0.253561
0.254516
0.252796
0.249332
0.244935
0.239963
0.234305
0.227591
0.219465
0.209907
0.199615
0.18964
0.181213
0.175589
0.173734
0.17589
0.181303
0.188579
0.196333
0.203352
0.208317
0.209803
0.20666
0.198407
0.185429
0.1689
0.150464
0.131798
0.11426
0.0987215
0.0855865
0.0748875
0.0664182
0.0598518
0.0548313
0.0510242
0.048149
0.0459808
0.0443458
0.0431118
0.0421806
0.0414851
0.0410007
0.0407864
0.0410987
0.0426571
0.0470912
0.0573737
0.0777633
0.112422
0.162945
0.22203
0.265033
0.27221
0.687402
0.518681
0.4989
0.475147
0.445904
0.414836
0.387498
0.363291
0.341249
0.320381
0.299946
0.279526
0.259047
0.238693
0.2188
0.199775
0.182037
0.165955
0.151763
0.139492
0.128969
0.119878
0.111852
0.104573
0.0978388
0.0916098
0.086009
0.0812901
0.0777759
0.0757987
0.0756646
0.0776411
0.0820227
0.0885476
0.0972619
0.108159
0.12113
0.13588
0.151859
0.168079
0.18325
0.196258
0.205255
0.206626
0.195042
0.168298
0.137821
0.114519
0.100909
0.0948073
0.0944038
0.0985605
0.105872
0.114418
0.122817
0.130651
0.138056
0.145267
0.152455
0.159772
0.167451
0.17591
0.185851
0.19833
0.214519
0.235869
0.264163
0.299397
0.339312
0.378282
0.409493
0.427117
0.425961
0.404635
0.36852
0.3276
0.29077
0.262827
0.24534
0.238564
0.242602
0.255151
0.271578
0.286386
0.297528
0.313691
0.350671
0.4164
0.528245
0.637411
0.59977
0.444492
0.328079
0.262983
0.217267
0.183649
0.159379
0.142645
0.131801
0.125369
0.122101
0.120991
0.12132
0.122711
0.125139
0.128822
0.13397
0.140506
0.147819
0.155818
0.163622
0.170463
0.175656
0.178912
0.180333
0.18073
0.181265
0.182941
0.186551
0.192461
0.200496
0.209982
0.219943
0.229373
0.237409
0.243334
0.24661
0.247149
0.24551
0.242636
0.239311
0.235815
0.231928
0.227146
0.220905
0.212839
0.203151
0.19267
0.182627
0.174447
0.169378
0.167973
0.16968
0.173006
0.176355
0.178738
0.179629
0.178466
0.174557
0.167395
0.156983
0.143947
0.129378
0.114514
0.100434
0.0878827
0.077234
0.0685519
0.061686
0.0563712
0.0523078
0.0492144
0.0468544
0.0450427
0.0436409
0.0425488
0.0416963
0.0410417
0.0405837
0.0404055
0.0407955
0.042528
0.0473603
0.0585759
0.0807857
0.11853
0.172955
0.231022
0.263523
0.259529
0.790365
0.488058
0.467638
0.444979
0.416507
0.387598
0.362058
0.339624
0.319472
0.300683
0.282517
0.264491
0.246394
0.228245
0.21024
0.192707
0.176042
0.160607
0.146631
0.134159
0.123067
0.113119
0.104036
0.0955619
0.0875278
0.0799109
0.0728513
0.0666243
0.0615922
0.0581779
0.0568577
0.0581329
0.0621394
0.0682256
0.0764128
0.0867847
0.0993989
0.114174
0.130868
0.148507
0.165535
0.18107
0.194381
0.203925
0.204515
0.187241
0.158472
0.130265
0.110486
0.0996015
0.0956315
0.0974579
0.103595
0.111469
0.118987
0.125587
0.131677
0.137749
0.144014
0.150487
0.157209
0.164463
0.172941
0.183846
0.19891
0.220174
0.249264
0.286169
0.328043
0.368992
0.401055
0.415593
0.405863
0.372401
0.325597
0.279085
0.241531
0.215405
0.20019
0.195216
0.201093
0.216179
0.237001
0.259205
0.280082
0.305689
0.350247
0.425328
0.545541
0.627044
0.541029
0.382652
0.284753
0.229455
0.190785
0.162578
0.142824
0.130013
0.12264
0.119164
0.118069
0.118097
0.118494
0.119121
0.120358
0.122789
0.126751
0.132021
0.138056
0.144658
0.150951
0.156468
0.160744
0.163693
0.165505
0.167163
0.169678
0.173995
0.180676
0.189619
0.200049
0.210822
0.220881
0.229581
0.236593
0.241558
0.244023
0.243904
0.241839
0.238886
0.235866
0.233026
0.23013
0.226694
0.222119
0.215806
0.207398
0.197311
0.186551
0.176559
0.168911
0.16466
0.1637
0.164661
0.165649
0.165362
0.163446
0.159942
0.154736
0.147561
0.138312
0.127285
0.115177
0.102885
0.0912453
0.0808647
0.0720592
0.0648858
0.0592175
0.0548265
0.051455
0.0488622
0.0468478
0.0452579
0.0439809
0.0429391
0.0420826
0.0413877
0.0408707
0.0406343
0.040993
0.0427628
0.0477921
0.0595881
0.0832198
0.123407
0.180409
0.23624
0.259853
0.249292
0.894807
0.461508
0.437432
0.417575
0.391603
0.365398
0.342286
0.322222
0.304489
0.288204
0.272598
0.257084
0.241299
0.225111
0.208625
0.192147
0.17609
0.160836
0.146643
0.133615
0.121737
0.110904
0.100942
0.0916437
0.0828211
0.0743838
0.0663704
0.0589142
0.0522099
0.0466763
0.0435359
0.0456094
0.0501491
0.0562789
0.064106
0.0738256
0.0856344
0.0995828
0.115838
0.133377
0.150805
0.166988
0.181008
0.192576
0.199222
0.19451
0.174626
0.146723
0.12251
0.106943
0.0992954
0.0985873
0.103498
0.11103
0.118272
0.124246
0.129454
0.134607
0.140013
0.145656
0.151489
0.157708
0.164949
0.174439
0.188074
0.20825
0.237167
0.275371
0.320036
0.364213
0.397713
0.409138
0.390579
0.345686
0.290541
0.241468
0.20554
0.182476
0.170009
0.166917
0.173805
0.189379
0.211401
0.237031
0.263838
0.296317
0.346728
0.429084
0.548362
0.593828
0.477558
0.332938
0.251744
0.20429
0.170696
0.146573
0.130413
0.120987
0.116585
0.115284
0.11522
0.115083
0.114401
0.113526
0.113294
0.114486
0.117286
0.121065
0.125783
0.130895
0.135708
0.140136
0.14387
0.146924
0.149832
0.15341
0.15867
0.166453
0.176933
0.189363
0.202297
0.214267
0.224453
0.232792
0.239399
0.243934
0.245741
0.244697
0.241664
0.237924
0.234348
0.231166
0.228231
0.225249
0.221782
0.217142
0.210445
0.201612
0.1912
0.180386
0.170874
0.164248
0.161032
0.160237
0.159863
0.158165
0.154555
0.149313
0.142797
0.135088
0.126162
0.116172
0.105566
0.0949844
0.085062
0.0762682
0.0688425
0.0628117
0.0580505
0.0543525
0.0514905
0.0492558
0.0474775
0.046027
0.044813
0.0437749
0.042877
0.0421089
0.0414999
0.0411672
0.0414427
0.0431678
0.0482465
0.060329
0.0847832
0.126694
0.185046
0.238529
0.255745
0.242048
0.943354
0.476884
0.414054
0.396568
0.373504
0.349315
0.328118
0.310119
0.294637
0.280779
0.267702
0.254679
0.241175
0.226913
0.21192
0.19649
0.18105
0.165999
0.151613
0.138052
0.125406
0.113724
0.102986
0.0930885
0.0838799
0.0752431
0.0671598
0.0597181
0.053107
0.0476538
0.0438949
0.0446682
0.0486165
0.0544393
0.0618384
0.0709537
0.0819852
0.0949925
0.109761
0.125775
0.14223
0.157927
0.171638
0.183019
0.191573
0.193254
0.181803
0.158328
0.133288
0.114809
0.104209
0.101147
0.104741
0.111897
0.119065
0.124785
0.129498
0.13403
0.138766
0.143699
0.148762
0.154128
0.16041
0.168829
0.181351
0.200637
0.229414
0.268868
0.31637
0.364028
0.399335
0.40804
0.381247
0.326134
0.264442
0.214419
0.180964
0.161163
0.151414
0.150165
0.157761
0.173008
0.194635
0.221036
0.250467
0.287235
0.341817
0.429063
0.538417
0.547372
0.419055
0.294415
0.22631
0.184747
0.155193
0.134483
0.121458
0.114796
0.112575
0.112489
0.112437
0.111293
0.109085
0.106681
0.105231
0.105442
0.107192
0.109685
0.113118
0.116969
0.120666
0.12423
0.127795
0.131527
0.135874
0.14176
0.15025
0.161964
0.176479
0.192235
0.207214
0.220026
0.230493
0.23917
0.24622
0.250811
0.251859
0.249372
0.244681
0.239331
0.234172
0.229455
0.225281
0.221726
0.218646
0.215363
0.210575
0.203721
0.194757
0.18433
0.17395
0.165572
0.160428
0.158123
0.156796
0.154357
0.149819
0.143427
0.135831
0.127447
0.118417
0.108882
0.0991538
0.0896969
0.080981
0.0733484
0.0669559
0.0617886
0.0577117
0.0545309
0.0520418
0.0500613
0.048442
0.0470749
0.0458847
0.0448232
0.0438654
0.0430104
0.0422971
0.041852
0.0420166
0.0436401
0.0486443
0.060757
0.085534
0.128258
0.187213
0.238729
0.252155
0.237695
0.865301
0.509438
0.40758
0.380441
0.360834
0.339522
0.319765
0.303022
0.289072
0.277088
0.266153
0.255408
0.244152
0.231945
0.218694
0.204622
0.190132
0.175624
0.161392
0.147631
0.1345
0.122156
0.110725
0.100256
0.0907202
0.0820588
0.0742572
0.0673846
0.0616172
0.0572303
0.0546767
0.0548786
0.0573188
0.0617986
0.0682363
0.076638
0.0870156
0.0992631
0.113042
0.127767
0.142665
0.156743
0.168924
0.178809
0.186541
0.189941
0.183253
0.164277
0.140598
0.121157
0.108833
0.1041
0.10659
0.113321
0.120411
0.126048
0.13055
0.134745
0.139041
0.143442
0.147902
0.152613
0.158192
0.165852
0.177573
0.196172
0.224823
0.265395
0.315657
0.36698
0.404689
0.4118
0.378303
0.314384
0.247082
0.196511
0.165491
0.148755
0.141613
0.142188
0.150349
0.164957
0.185415
0.210859
0.240649
0.279901
0.337174
0.426294
0.51839
0.496267
0.369665
0.264816
0.206495
0.169472
0.143238
0.125412
0.114973
0.110476
0.109692
0.110026
0.109421
0.107056
0.103394
0.0997585
0.0974441
0.0969269
0.0980022
0.0996548
0.102044
0.104718
0.107728
0.111124
0.114972
0.119539
0.125485
0.133907
0.145889
0.161656
0.179942
0.198341
0.214667
0.228189
0.239594
0.249674
0.25793
0.262558
0.262167
0.257358
0.250132
0.242141
0.234129
0.226546
0.219973
0.214958
0.211654
0.209375
0.20658
0.202265
0.195731
0.186932
0.176884
0.167618
0.161014
0.157407
0.155296
0.152432
0.147419
0.140317
0.131923
0.122916
0.113627
0.104246
0.0950256
0.086312
0.0784465
0.0716611
0.0660346
0.0615095
0.0579386
0.0551351
0.0529118
0.0511054
0.0495867
0.0482619
0.0470671
0.0459639
0.0449348
0.0439865
0.0431642
0.0426002
0.0426379
0.044117
0.0489401
0.0608448
0.0854961
0.128312
0.187192
0.237425
0.249445
0.235855
0.618913
0.511575
0.415314
0.372662
0.351053
0.333158
0.315899
0.300327
0.28719
0.276279
0.266862
0.25803
0.24893
0.238936
0.227762
0.215479
0.202403
0.188915
0.175336
0.1619
0.148798
0.136231
0.124409
0.113504
0.103626
0.0948279
0.0871446
0.0806334
0.0753919
0.0715485
0.0694928
0.0696889
0.0719333
0.0761893
0.082455
0.0907261
0.100908
0.112717
0.125621
0.138881
0.151677
0.163151
0.172494
0.17954
0.184796
0.187101
0.181681
0.165346
0.143548
0.124566
0.111819
0.106422
0.108374
0.114794
0.121758
0.127359
0.131819
0.135896
0.139955
0.144002
0.14803
0.152277
0.157386
0.164548
0.175709
0.19374
0.222153
0.263509
0.316205
0.371249
0.412144
0.419467
0.381741
0.310785
0.238253
0.186737
0.157552
0.143394
0.138602
0.140818
0.149286
0.163054
0.18186
0.205324
0.234662
0.275447
0.334018
0.421362
0.491522
0.44676
0.329984
0.241972
0.19096
0.157566
0.134106
0.118671
0.110285
0.107349
0.107361
0.107624
0.106284
0.10288
0.0982799
0.0940418
0.0913861
0.0904777
0.0905283
0.0914078
0.0932818
0.0956939
0.0986228
0.10215
0.106455
0.111977
0.119632
0.13075
0.146346
0.165973
0.187329
0.20748
0.224782
0.239598
0.25317
0.265672
0.275168
0.278821
0.275624
0.267358
0.256535
0.244581
0.232281
0.220653
0.210919