/*--------------------------------*- C++ -*----------------------------------*\
| =========                 |                                                 |
| \\      /  F ield         | OpenFOAM: The Open Source CFD Toolbox           |
|  \\    /   O peration     | Version:  2112                                  |
|   \\  /    A nd           | Website:  www.openfoam.com                      |
|    \\/     M anipulation  |                                                 |
\*---------------------------------------------------------------------------*/
FoamFile
{
    version     2.0;
    format      ascii;
    arch        "LSB;label=32;scalar=64";
    class       volVectorField;
    location    "0.46";
    object      U_0;
}
// * * * * * * * * * * * * * * * * * * * * * * * * * * * * * * * * * * * * * //

dimensions      [0 1 -1 0 0 0 0];

internalField   nonuniform List<vector> 
12225
(
(9.75645 0.0633384 0)
(9.26254 0.0998337 0)
(8.7281 0.106036 0)
(8.17898 0.106738 0)
(7.64469 0.103804 0)
(7.13774 0.0977695 0)
(6.66339 0.0897491 0)
(6.22628 0.0804538 0)
(5.8302 0.070403 0)
(5.47696 0.0601114 0)
(5.16634 0.0500809 0)
(4.89643 0.0407716 0)
(4.66368 0.0326345 0)
(4.46282 0.0262125 0)
(4.28621 0.0223385 0)
(4.12285 0.0226683 0)
(3.95721 0.0308415 0)
(3.75404 0.0612033 0)
(10.1056 0.0769966 0)
(10.3192 0.114294 0)
(10.4671 0.122869 0)
(10.5522 0.132822 0)
(10.5877 0.141172 0)
(10.5802 0.146086 0)
(10.5353 0.148018 0)
(10.4607 0.147238 0)
(10.3647 0.143875 0)
(10.2547 0.138243 0)
(10.1373 0.130877 0)
(10.0172 0.122474 0)
(9.89783 0.113915 0)
(9.78087 0.106407 0)
(9.66561 0.101838 0)
(9.54845 0.103296 0)
(9.42322 0.117998 0)
(9.27778 0.158498 0)
(10.0113 0.0354981 0)
(10.0623 0.0567279 0)
(10.1188 0.0678543 0)
(10.1775 0.0835814 0)
(10.2434 0.0981381 0)
(10.3145 0.109058 0)
(10.3853 0.116899 0)
(10.4517 0.12197 0)
(10.5112 0.124232 0)
(10.5621 0.12383 0)
(10.6033 0.121193 0)
(10.6346 0.117022 0)
(10.6565 0.112337 0)
(10.6696 0.108628 0)
(10.6745 0.108272 0)
(10.6726 0.115118 0)
(10.6673 0.136712 0)
(10.6709 0.18439 0)
(10.0063 0.0313772 0)
(10.0348 0.0638447 0)
(10.0621 0.0786203 0)
(10.0842 0.0905874 0)
(10.1079 0.0999924 0)
(10.1356 0.106021 0)
(10.1662 0.109509 0)
(10.1985 0.111068 0)
(10.232 0.110853 0)
(10.2656 0.109048 0)
(10.2983 0.10605 0)
(10.3289 0.102449 0)
(10.3564 0.0990933 0)
(10.3804 0.0972805 0)
(10.401 0.0990537 0)
(10.4201 0.107576 0)
(10.4407 0.127587 0)
(10.4788 0.163787 0)
(10.0045 0.026436 0)
(10.0272 0.0564911 0)
(10.0509 0.0692927 0)
(10.07 0.0793385 0)
(10.0886 0.0882973 0)
(10.1091 0.0946679 0)
(10.1304 0.0986119 0)
(10.1518 0.100615 0)
(10.173 0.100867 0)
(10.1937 0.099568 0)
(10.2137 0.0971181 0)
(10.2325 0.0941208 0)
(10.2497 0.0914207 0)
(10.2653 0.090207 0)
(10.2799 0.0921259 0)
(10.2952 0.0994729 0)
(10.3142 0.114362 0)
(10.3472 0.138718 0)
(10.0032 0.0218716 0)
(10.0213 0.0498914 0)
(10.0428 0.0637238 0)
(10.0616 0.0741858 0)
(10.0798 0.0832599 0)
(10.0995 0.0896142 0)
(10.1199 0.0933089 0)
(10.14 0.094957 0)
(10.1596 0.0948991 0)
(10.1785 0.093401 0)
(10.1965 0.0908853 0)
(10.2132 0.0879568 0)
(10.2286 0.085396 0)
(10.243 0.0842153 0)
(10.2572 0.0856618 0)
(10.2731 0.091168 0)
(10.2936 0.101477 0)
(10.3256 0.116405 0)
(10.0023 0.0182388 0)
(10.0168 0.0442196 0)
(10.0359 0.0584491 0)
(10.054 0.0683889 0)
(10.0717 0.0765079 0)
(10.0905 0.0821227 0)
(10.1102 0.0852884 0)
(10.1298 0.0865885 0)
(10.1489 0.0863942 0)
(10.1675 0.084965 0)
(10.1852 0.0826767 0)
(10.2019 0.0800571 0)
(10.2176 0.077763 0)
(10.2328 0.0765805 0)
(10.2483 0.0773445 0)
(10.266 0.0807621 0)
(10.288 0.0866606 0)
(10.3191 0.0935154 0)
(10.0017 0.015334 0)
(10.0134 0.0388917 0)
(10.0303 0.0528537 0)
(10.0474 0.0622004 0)
(10.0643 0.0695411 0)
(10.0823 0.0746734 0)
(10.1012 0.0775641 0)
(10.1201 0.0786768 0)
(10.1387 0.078389 0)
(10.1568 0.0769702 0)
(10.1742 0.0747618 0)
(10.1909 0.0722196 0)
(10.207 0.0698769 0)
(10.2229 0.0682999 0)
(10.2395 0.0679653 0)
(10.2582 0.0690458 0)
(10.2807 0.0708493 0)
(10.3098 0.0714556 0)
(10.0013 0.0129524 0)
(10.0108 0.033926 0)
(10.0256 0.0472439 0)
(10.0416 0.0560188 0)
(10.0579 0.0626117 0)
(10.0751 0.0671629 0)
(10.0931 0.0696392 0)
(10.1113 0.0704233 0)
(10.1292 0.0699003 0)
(10.1468 0.0683514 0)
(10.1639 0.0660788 0)
(10.1805 0.0634542 0)
(10.1968 0.0608784 0)
(10.2131 0.0587133 0)
(10.2303 0.0571544 0)
(10.2494 0.0560391 0)
(10.2712 0.0544888 0)
(10.2976 0.0507114 0)
(10.001 0.0109615 0)
(10.0088 0.0293475 0)
(10.0218 0.0416906 0)
(10.0367 0.0497759 0)
(10.0522 0.0555584 0)
(10.0686 0.0594301 0)
(10.0857 0.0614241 0)
(10.1032 0.0618537 0)
(10.1205 0.0610771 0)
(10.1376 0.059362 0)
(10.1544 0.0569606 0)
(10.1708 0.0541552 0)
(10.1871 0.0512214 0)
(10.2037 0.0483557 0)
(10.2209 0.0455641 0)
(10.2397 0.0425253 0)
(10.2604 0.0383862 0)
(10.2839 0.0317224 0)
(10.0008 0.00925994 0)
(10.0073 0.0251333 0)
(10.0187 0.0362358 0)
(10.0325 0.0434875 0)
(10.0472 0.0484173 0)
(10.0627 0.0515582 0)
(10.0791 0.0530177 0)
(10.0958 0.0530474 0)
(10.1125 0.051958 0)
(10.1291 0.0499913 0)
(10.1455 0.0473517 0)
(10.1617 0.0442414 0)
(10.1779 0.0408328 0)
(10.1943 0.0372057 0)
(10.2114 0.0332643 0)
(10.2295 0.0286551 0)
(10.2487 0.0226735 0)
(10.2693 0.014334 0)
(10.0007 0.00787172 0)
(10.0062 0.0215156 0)
(10.0164 0.0313111 0)
(10.0292 0.0376794 0)
(10.0431 0.0417872 0)
(10.0579 0.0442119 0)
(10.0735 0.0451217 0)
(10.0896 0.0447275 0)
(10.1057 0.0432924 0)
(10.1218 0.0410279 0)
(10.1378 0.0380959 0)
(10.1537 0.034635 0)
(10.1697 0.0307426 0)
(10.1858 0.0264291 0)
(10.2025 0.0215622 0)
(10.2197 0.0158281 0)
(10.2375 0.00870454 0)
(10.256 -0.000413946 0)
(10.0006 0.00664674 0)
(10.0054 0.0181714 0)
(10.0145 0.0265409 0)
(10.0264 0.0319175 0)
(10.0395 0.0351655 0)
(10.0536 0.0368386 0)
(10.0685 0.0371484 0)
(10.0838 0.0362812 0)
(10.0994 0.0344526 0)
(10.115 0.0318374 0)
(10.1306 0.028558 0)
(10.1461 0.0247018 0)
(10.1617 0.0203142 0)
(10.1775 0.0153685 0)
(10.1935 0.00973485 0)
(10.2099 0.00317436 0)
(10.2264 -0.00466267 0)
(10.2431 -0.014087 0)
(10.0005 0.00536889 0)
(10.0047 0.0145772 0)
(10.0128 0.0212303 0)
(10.0236 0.0253566 0)
(10.0359 0.0275579 0)
(10.0491 0.0283223 0)
(10.0632 0.0278861 0)
(10.0778 0.0264154 0)
(10.0927 0.0240754 0)
(10.1077 0.0209966 0)
(10.1227 0.0172608 0)
(10.1378 0.0129122 0)
(10.1529 0.0079586 0)
(10.168 0.00235946 0)
(10.1833 -0.0039851 0)
(10.1987 -0.0112195 0)
(10.2139 -0.0195325 0)
(10.2289 -0.0289839 0)
(10.0004 0.00403093 0)
(10.0041 0.0107434 0)
(10.0112 0.0154005 0)
(10.021 0.0179903 0)
(10.0323 0.0189199 0)
(10.0447 0.0185916 0)
(10.0579 0.0172386 0)
(10.0716 0.0150059 0)
(10.0857 0.0120106 0)
(10.1 0.00833634 0)
(10.1143 0.00402588 0)
(10.1287 -0.000909239 0)
(10.1431 -0.00648116 0)
(10.1575 -0.0127241 0)
(10.1719 -0.0196938 0)
(10.1862 -0.0274459 0)
(10.2002 -0.036039 0)
(10.2139 -0.0453695 0)
(10.0004 0.00262316 0)
(10.0036 0.0066593 0)
(10.0099 0.00904843 0)
(10.0186 0.00980335 0)
(10.0289 0.00920753 0)
(10.0404 0.00757439 0)
(10.0526 0.0051106 0)
(10.0654 0.00193391 0)
(10.0785 -0.0018826 0)
(10.0919 -0.00629955 0)
(10.1055 -0.0113086 0)
(10.119 -0.0169211 0)
(10.1326 -0.0231569 0)
(10.1462 -0.0300359 0)
(10.1596 -0.037573 0)
(10.1728 -0.0457587 0)
(10.1858 -0.0545776 0)
(10.1984 -0.0638574 0)
(10.0003 0.00110792 0)
(10.0031 0.00226412 0)
(10.0087 0.00214171 0)
(10.0166 0.000786649 0)
(10.0259 -0.001585 0)
(10.0363 -0.00473788 0)
(10.0475 -0.00850986 0)
(10.0593 -0.0128168 0)
(10.0714 -0.0176252 0)
(10.0838 -0.0229338 0)
(10.0964 -0.0287626 0)
(10.109 -0.0351391 0)
(10.1216 -0.0420865 0)
(10.1341 -0.0496137 0)
(10.1465 -0.0577127 0)
(10.1587 -0.0663455 0)
(10.1707 -0.0754728 0)
(10.1824 -0.0849248 0)
(10.0003 -0.000521135 0)
(10.0028 -0.00247647 0)
(10.0079 -0.00537322 0)
(10.0149 -0.00911045 0)
(10.0233 -0.0135105 0)
(10.0327 -0.0184071 0)
(10.0429 -0.0236929 0)
(10.0536 -0.0293231 0)
(10.0646 -0.0352997 0)
(10.0759 -0.0416541 0)
(10.0874 -0.0484297 0)
(10.0989 -0.0556673 0)
(10.1104 -0.0633948 0)
(10.1218 -0.0716208 0)
(10.1331 -0.0803346 0)
(10.1442 -0.0894998 0)
(10.1551 -0.0990825 0)
(10.1658 -0.108955 0)
(10.0003 -0.00232499 0)
(10.0026 -0.00769428 0)
(10.0072 -0.0136184 0)
(10.0137 -0.0199414 0)
(10.0214 -0.0265387 0)
(10.0299 -0.0333264 0)
(10.039 -0.0402606 0)
(10.0487 -0.0473407 0)
(10.0586 -0.0546056 0)
(10.0687 -0.0621159 0)
(10.079 -0.0699349 0)
(10.0893 -0.0781142 0)
(10.0995 -0.0866871 0)
(10.1097 -0.0956653 0)
(10.1197 -0.105041 0)
(10.1296 -0.114787 0)
(10.1392 -0.124876 0)
(10.1486 -0.135228 0)
(10.0003 -0.00401581 0)
(10.0027 -0.0125071 0)
(10.0073 -0.0210938 0)
(10.0136 -0.029608 0)
(10.0209 -0.0380198 0)
(10.0289 -0.0463504 0)
(10.0374 -0.0546221 0)
(10.0462 -0.0628754 0)
(10.0553 -0.0711797 0)
(10.0645 -0.0796179 0)
(10.0737 -0.0882644 0)
(10.083 -0.097175 0)
(10.0922 -0.106383 0)
(10.1013 -0.115899 0)
(10.1102 -0.125715 0)
(10.1189 -0.135805 0)
(10.1274 -0.14614 0)
(10.1356 -0.15666 0)
(10.0003 -0.00543315 0)
(10.0029 -0.0164807 0)
(10.0079 -0.027106 0)
(10.0144 -0.0371646 0)
(10.0217 -0.046789 0)
(10.0294 -0.0561252 0)
(10.0375 -0.0652533 0)
(10.0459 -0.0742538 0)
(10.0544 -0.0832322 0)
(10.0629 -0.0922921 0)
(10.0714 -0.101513 0)
(10.08 -0.110946 0)
(10.0884 -0.120616 0)
(10.0967 -0.130527 0)
(10.1049 -0.140659 0)
(10.1129 -0.150978 0)
(10.1206 -0.161446 0)
(10.1281 -0.172006 0)
(10.0004 -0.00684873 0)
(10.0034 -0.0203424 0)
(10.009 -0.0326972 0)
(10.0161 -0.0439149 0)
(10.0235 -0.0544181 0)
(10.0312 -0.0644738 0)
(10.0391 -0.0741773 0)
(10.0471 -0.0836391 0)
(10.0551 -0.0930106 0)
(10.0631 -0.102425 0)
(10.071 -0.111972 0)
(10.0788 -0.121706 0)
(10.0866 -0.131649 0)
(10.0943 -0.141796 0)
(10.1019 -0.152118 0)
(10.1093 -0.162568 0)
(10.1165 -0.173092 0)
(10.1234 -0.183619 0)
(10.0005 -0.00838676 0)
(10.0044 -0.024344 0)
(10.011 -0.0380967 0)
(10.0187 -0.0500509 0)
(10.0265 -0.0611121 0)
(10.0343 -0.0716724 0)
(10.0421 -0.0818191 0)
(10.0499 -0.0916881 0)
(10.0576 -0.101459 0)
(10.0651 -0.111266 0)
(10.0725 -0.121192 0)
(10.0798 -0.131283 0)
(10.0871 -0.141556 0)
(10.0942 -0.151997 0)
(10.1013 -0.162564 0)
(10.1082 -0.173191 0)
(10.1151 -0.183809 0)
(10.1216 -0.194333 0)
(10.0007 -0.0101912 0)
(10.0059 -0.0286937 0)
(10.0141 -0.0435137 0)
(10.0227 -0.05586 0)
(10.0307 -0.0671192 0)
(10.0385 -0.0776837 0)
(10.0462 -0.0876845 0)
(10.0538 -0.097394 0)
(10.0611 -0.107073 0)
(10.0682 -0.116871 0)
(10.0752 -0.126863 0)
(10.082 -0.137091 0)
(10.0888 -0.147563 0)
(10.0955 -0.158252 0)
(10.1021 -0.169096 0)
(10.1087 -0.180005 0)
(10.1152 -0.190878 0)
(10.1216 -0.201603 0)
(10.0011 -0.0124682 0)
(10.0082 -0.0333654 0)
(10.0184 -0.0486834 0)
(10.028 -0.061521 0)
(10.0365 -0.0736143 0)
(10.0445 -0.0848877 0)
(10.0524 -0.0953311 0)
(10.0598 -0.105316 0)
(10.0667 -0.115172 0)
(10.0732 -0.125078 0)
(10.0796 -0.135136 0)
(10.0857 -0.145405 0)
(10.0917 -0.155907 0)
(10.0976 -0.16662 0)
(10.1034 -0.177485 0)
(10.1093 -0.188397 0)
(10.1152 -0.199241 0)
(10.121 -0.209849 0)
(10.0017 -0.0156707 0)
(10.0118 -0.0387978 0)
(10.024 -0.0526375 0)
(10.034 -0.0636798 0)
(10.0424 -0.0746008 0)
(10.0505 -0.0850912 0)
(10.0583 -0.0950841 0)
(10.0654 -0.104933 0)
(10.0719 -0.114878 0)
(10.078 -0.125022 0)
(10.0838 -0.135435 0)
(10.0895 -0.146166 0)
(10.0953 -0.15722 0)
(10.1012 -0.168551 0)
(10.1074 -0.180074 0)
(10.1141 -0.191656 0)
(10.1213 -0.20316 0)
(10.1292 -0.214271 0)
(10.003 -0.019656 0)
(10.0179 -0.0479223 0)
(10.0333 -0.0646986 0)
(10.044 -0.0777916 0)
(10.0528 -0.0893617 0)
(10.0621 -0.0993258 0)
(10.0718 -0.108289 0)
(10.0819 -0.116969 0)
(10.0924 -0.125725 0)
(10.1037 -0.134734 0)
(10.1162 -0.144126 0)
(10.13 -0.154001 0)
(10.1454 -0.164437 0)
(10.1626 -0.175459 0)
(10.1818 -0.18702 0)
(10.203 -0.199028 0)
(10.2266 -0.211329 0)
(10.2518 -0.223659 0)
(10.0046 -0.0204165 0)
(10.0296 -0.0383179 0)
(10.0587 -0.0485324 0)
(10.087 -0.0615211 0)
(10.1184 -0.07533 0)
(10.1542 -0.088296 0)
(10.1929 -0.100805 0)
(10.2333 -0.113347 0)
(10.2747 -0.126128 0)
(10.3168 -0.139255 0)
(10.3589 -0.15283 0)
(10.4003 -0.166934 0)
(10.4403 -0.181592 0)
(10.4783 -0.196769 0)
(10.5136 -0.212359 0)
(10.5455 -0.228249 0)
(10.5735 -0.244162 0)
(10.5969 -0.260154 0)
(10.0576 -0.0549938 0)
(10.1976 -0.0905973 0)
(10.3175 -0.101903 0)
(10.4112 -0.113523 0)
(10.4818 -0.12498 0)
(10.529 -0.134912 0)
(10.5526 -0.144004 0)
(10.5535 -0.152895 0)
(10.5334 -0.161822 0)
(10.4938 -0.170882 0)
(10.4359 -0.180124 0)
(10.3609 -0.189535 0)
(10.2697 -0.199055 0)
(10.1631 -0.208589 0)
(10.0421 -0.217991 0)
(9.90769 -0.22713 0)
(9.76065 -0.235735 0)
(9.60273 -0.244035 0)
(9.86806 -0.0482987 0)
(9.56562 -0.0849928 0)
(9.21392 -0.097554 0)
(8.83407 -0.104932 0)
(8.44742 -0.109098 0)
(8.063 -0.110461 0)
(7.6832 -0.110176 0)
(7.30935 -0.109049 0)
(6.94247 -0.107468 0)
(6.58293 -0.105637 0)
(6.23063 -0.103667 0)
(5.88537 -0.101596 0)
(5.54709 -0.0994093 0)
(5.21583 -0.0970657 0)
(4.89181 -0.0944905 0)
(4.57558 -0.0916233 0)
(4.26715 -0.0883248 0)
(3.96954 -0.0847921 0)
(0.0599399 -0.093495 -2.58629e-21)
(0.458709 -0.430953 2.51642e-21)
(1.00864 -0.543584 0)
(1.52034 -0.487884 0)
(1.92089 -0.35951 0)
(2.19365 -0.215141 -3.45179e-21)
(2.34199 -0.0806949 0)
(2.38971 0.0376018 0)
(2.33143 0.132878 0)
(2.192 0.199257 0)
(2.00023 0.232174 3.69596e-21)
(1.78903 0.23013 0)
(1.59468 0.189716 0)
(1.44668 0.103467 0)
(1.34024 -0.028023 0)
(1.23392 -0.168448 3.29841e-21)
(1.0791 -0.24124 0)
(0.831798 -0.182911 0)
(0.449328 -0.00276951 0)
(-0.0836744 0.230382 0)
(-0.754768 0.457705 0)
(-1.53707 0.657171 0)
(-2.39331 0.811802 0)
(-3.2865 0.912717 4.20872e-21)
(-4.1813 0.958893 -4.60639e-21)
(-5.04663 0.954643 5.07128e-21)
(-5.85652 0.907396 5.56604e-21)
(-6.59 0.825833 0)
(-7.23122 0.718826 0)
(-7.76957 0.596426 -6.84401e-21)
(-8.1996 0.468044 -7.09418e-21)
(-8.52069 0.341569 0)
(-8.7357 0.224241 0)
(-8.84942 0.121755 -7.07986e-21)
(-8.86834 0.037465 0)
(-8.81001 -0.0288189 0)
(-8.69056 -0.0813502 5.84741e-21)
(-8.5156 -0.1248 0)
(-8.29289 -0.161581 4.46977e-21)
(-8.02849 -0.193164 7.3138e-21)
(-7.72725 -0.220602 0)
(-7.39315 -0.244721 0)
(-7.02931 -0.266211 0)
(-6.63827 -0.285656 0)
(-6.22209 -0.303287 0)
(-5.78272 -0.319095 -4.16994e-21)
(-5.32238 -0.332849 -6.14198e-21)
(-4.84385 -0.344135 -8.06428e-21)
(-4.3507 -0.352438 0)
(-3.84735 -0.357261 1.16513e-20)
(-3.33884 -0.358232 0)
(-2.83056 -0.355176 -1.47303e-20)
(-2.32789 -0.348134 -1.60341e-20)
(-1.83564 -0.337361 0)
(-1.35785 -0.323427 0)
(-0.897877 -0.307479 0)
(-0.45711 -0.291574 -1.96034e-20)
(-0.0339874 -0.276775 0)
(0.37206 -0.26371 0)
(0.760872 -0.253389 0)
(1.13477 -0.244641 0)
(1.49606 -0.234555 0)
(1.84498 -0.222944 0)
(2.18175 -0.211184 0)
(2.50732 -0.199869 0)
(2.82241 -0.188685 1.88289e-20)
(3.12707 -0.176792 0)
(3.42073 -0.164165 0)
(3.70227 -0.152008 -1.77508e-20)
(3.97061 -0.143096 -1.73625e-20)
(4.22446 -0.136602 0)
(4.46107 -0.107295 1.65814e-20)
(4.66245 0.00590014 -1.62236e-20)
(4.7349 0.222012 0)
(4.60957 0.440476 1.5525e-20)
(4.32753 0.525172 0)
(3.98504 0.421726 0)
(3.68322 0.184431 -1.42804e-20)
(3.47375 -0.0919137 0)
(3.35583 -0.325301 1.38424e-20)
(3.30723 -0.456384 0)
(3.31664 -0.451988 -1.37914e-20)
(3.37513 -0.316667 -1.37626e-20)
(3.42755 -0.0856631 -1.36731e-20)
(3.38803 0.150758 -2.69749e-20)
(3.26756 0.278701 2.65661e-20)
(3.14856 0.262379 0)
(3.10244 0.139575 0)
(3.11662 -0.025907 0)
(3.14349 -0.166081 2.58874e-20)
(3.17512 -0.225219 2.57243e-20)
(3.24842 -0.200795 -2.56003e-20)
(3.37256 -0.13843 0)
(3.47887 -0.0946234 2.52796e-20)
(3.46231 -0.0991977 2.4825e-20)
(3.2481 -0.0906048 2.40726e-20)
(2.75098 0.0242525 0)
(1.92042 0.240392 0)
(0.782596 0.468271 0)
(-0.569345 0.639341 1.32112e-20)
(-2.01823 0.733399 0)
(-3.46735 0.757485 0)
(-4.84082 0.72774 2.90885e-21)
(-6.08323 0.661173 0)
(-7.15837 0.570917 0)
(-8.04608 0.466031 1.49595e-20)
(-8.73646 0.353836 0)
(-9.22558 0.242208 0)
(-9.5146 0.139397 -1.81218e-20)
(-9.61147 0.0512121 -1.70322e-20)
(-9.53417 -0.022818 0)
(-9.32777 -0.0814272 1.1896e-20)
(-8.99638 -0.132738 0)
(-8.5535 -0.17835 -3.7295e-21)
(-8.00982 -0.219012 0)
(-7.37466 -0.255416 6.1942e-21)
(-6.65549 -0.288333 1.14467e-20)
(-5.85748 -0.318502 0)
(-4.9832 -0.346476 0)
(-4.03296 -0.372767 0)
(-3.007 -0.396849 0)
(-1.9086 -0.41788 0)
(-0.74194 -0.436702 0)
(0.486359 -0.450121 0)
(1.756 -0.453497 4.45261e-20)
(3.03731 -0.440067 -4.44671e-20)
(4.29093 -0.408783 0)
(5.4731 -0.361246 0)
(6.54291 -0.298881 0)
(7.4638 -0.222511 0)
(8.20033 -0.137963 -6.43254e-20)
(8.7356 -0.0394132 0)
(9.03727 0.118118 5.23456e-20)
(8.9322 0.319991 -4.728e-20)
(8.432 0.487072 0)
(7.63529 0.547175 0)
(6.69258 0.480177 0)
(5.76674 0.331823 3.18903e-20)
(4.96984 0.175818 2.96564e-20)
(4.33591 0.0645459 0)
(3.84149 0.0109533 2.77185e-20)
(3.4419 -3.8362e-05 2.73989e-20)
(3.09945 0.00811335 -2.71806e-20)
(2.79676 0.0182103 0)
(2.5329 0.023002 0)
(2.31213 0.0222448 -2.68847e-20)
(2.13563 0.0183906 0)
(2.00026 0.0135719 0)
(1.90035 0.00890807 0)
(1.82954 0.0048968 0)
(1.78154 0.00180335 2.79963e-20)
(1.75028 -0.000193522 2.83124e-20)
(1.72997 -0.00101636 0)
(1.71532 -0.000733306 2.88432e-20)
(1.70186 0.000458773 0)
(1.68615 0.00229868 0)
(1.66579 0.00448876 2.9211e-20)
(1.63918 0.00674359 0)
(1.60536 0.00884867 2.91796e-20)
(1.56377 0.0106853 0)
(1.51432 0.0121512 0)
(1.45768 0.0129013 2.88329e-20)
(1.39592 0.012156 0)
(1.3337 0.00894672 2.84434e-20)
(1.27937 0.00259316 0)
(1.24351 -0.00599385 0)
(1.23348 -0.0143239 0)
(1.25044 -0.021189 -2.75057e-20)
(1.2942 -0.0262457 0)
(1.36505 -0.0312357 2.70512e-20)
(1.46618 -0.0376515 0)
(1.60279 -0.0458163 0)
(1.77934 -0.0549608 0)
(2.00017 -0.0636613 0)
(2.27143 -0.0685949 0)
(2.59383 -0.0593192 0)
(2.91375 -0.0195882 0)
(3.08677 0.0366274 -4.96462e-20)
(3.02718 0.0591313 0)
(2.79593 0.0171542 0)
(0.234548 -0.919582 8.22956e-21)
(0.743139 -1.73931 -8.16086e-21)
(1.22366 -1.76068 0)
(1.59898 -1.45428 6.80638e-21)
(1.86782 -1.06314 0)
(2.04325 -0.678424 3.43776e-21)
(2.13653 -0.331094 -8.36867e-21)
(2.14361 -0.0269878 -8.57034e-21)
(2.08878 0.229598 0)
(1.96248 0.429573 -8.30797e-21)
(1.76772 0.555312 -3.69254e-21)
(1.51349 0.58529 0)
(1.19684 0.518655 0)
(0.791213 0.433949 0)
(0.256897 0.489901 0)
(-0.449983 0.739392 -3.30601e-21)
(-1.31024 1.08593 0)
(-2.26829 1.45725 6.7532e-21)
(-3.27281 1.80532 0)
(-4.28143 2.09233 0)
(-5.25949 2.29349 -7.60237e-21)
(-6.17677 2.39845 0)
(-7.00887 2.40713 8.84407e-21)
(-7.73878 2.32896 -3.68438e-21)
(-8.35676 2.17929 4.08025e-21)
(-8.86006 1.97607 -4.55208e-21)
(-9.25211 1.73728 -5.06626e-21)
(-9.54128 1.47903 0)
(-9.73904 1.21439 0)
(-9.85834 0.953156 6.47567e-21)
(-9.91235 0.702275 -8.97212e-21)
(-9.91283 0.466625 0)
(-9.86922 0.25008 0)
(-9.78851 0.0553764 6.91018e-21)
(-9.67546 -0.116481 0)
(-9.52422 -0.265677 0)
(-9.32827 -0.394432 -5.72413e-21)
(-9.09144 -0.505716 0)
(-8.81552 -0.601857 5.28463e-21)
(-8.50355 -0.684993 -7.16239e-21)
(-8.15863 -0.757159 0)
(-7.78355 -0.820241 0)
(-7.3805 -0.87591 -4.84738e-21)
(-6.95138 -0.925414 -9.11825e-22)
(-6.49792 -0.969467 3.06968e-21)
(-6.02166 -1.00827 -2.96576e-21)
(-5.52452 -1.0411 6.02945e-21)
(-5.00917 -1.06667 2.27929e-20)
(-4.47941 -1.08341 -1.85964e-20)
(-3.94013 -1.08991 -1.14579e-20)
(-3.39702 -1.08533 0)
(-2.85602 -1.06953 1.45095e-20)
(-2.32279 -1.04332 -1.52361e-20)
(-1.80211 -1.00836 0)
(-1.29745 -0.967116 0)
(-0.810869 -0.922721 0)
(-0.343235 -0.878661 1.94386e-20)
(0.104696 -0.836082 0)
(0.53364 -0.794397 -3.93654e-20)
(0.945207 -0.755362 0)
(1.34031 -0.720794 -3.90589e-20)
(1.72064 -0.690314 0)
(2.08842 -0.662628 3.8298e-20)
(2.44574 -0.637085 0)
(2.79404 -0.613335 -3.72272e-20)
(3.13412 -0.590981 1.81219e-20)
(3.46704 -0.569173 0)
(3.79355 -0.546534 3.52473e-20)
(4.1131 -0.521439 1.74194e-20)
(4.42349 -0.491994 1.70384e-20)
(4.72057 -0.456266 0)
(4.99967 -0.409316 1.59575e-20)
(5.26773 -0.331687 1.59138e-20)
(5.58634 -0.196655 0)
(5.97953 -0.0132528 -1.5058e-20)
(6.38483 0.163781 2.87176e-20)
(6.72996 0.287296 0)
(6.96606 0.360292 1.34277e-20)
(7.05622 0.421457 0)
(6.95676 0.489462 -3.86825e-20)
(6.62909 0.508363 0)
(6.08893 0.406658 3.92164e-20)
(5.4271 0.217749 1.32171e-20)
(4.82104 0.0682513 -1.3266e-20)
(4.42489 0.0233725 -2.63559e-20)
(4.24464 0.00179086 2.6007e-20)
(4.26027 -0.0648353 0)
(4.46534 -0.112648 0)
(4.77469 -0.0419853 0)
(4.97084 0.0983371 -7.53178e-20)
(4.92542 0.135714 -2.49945e-20)
(4.74889 0.0200375 2.49749e-20)
(4.56217 -0.0866997 0)
(4.27981 0.00330874 2.50368e-20)
(3.64648 0.332958 -2.45956e-20)
(2.46717 0.830846 -2.4083e-20)
(0.821868 1.36876 0)
(-1.04775 1.79907 0)
(-2.9239 2.05295 0)
(-4.6545 2.12784 -1.21046e-20)
(-6.14906 2.05469 0)
(-7.37078 1.87824 -1.239e-21)
(-8.3218 1.64197 -1.38239e-20)
(-9.02772 1.37956 1.997e-20)
(-9.52385 1.11244 0)
(-9.84569 0.852245 1.88949e-20)
(-10.0252 0.60337 0)
(-10.0904 0.368088 3.93251e-20)
(-10.0612 0.150276 -2.10717e-20)
(-9.94653 -0.0460125 -1.9647e-20)
(-9.74732 -0.222888 0)
(-9.43173 -0.378228 -3.74531e-20)
(-9.01104 -0.516903 1.7895e-20)
(-8.49115 -0.640307 3.70294e-21)
(-7.88102 -0.749749 0)
(-7.18924 -0.847131 -6.14461e-21)
(-6.42285 -0.935046 -3.25529e-20)
(-5.58631 -1.0167 0)
(-4.68083 -1.09486 -4.18607e-20)
(-3.70484 -1.17127 -5.18396e-20)
(-2.65629 -1.24639 -6.14033e-20)
(-1.53464 -1.31842 0)
(-0.337552 -1.38473 0)
(0.927756 -1.43123 0)
(2.23901 -1.45135 4.15469e-20)
(3.56995 -1.43321 4.34399e-20)
(4.88559 -1.37094 0)
(6.14665 -1.26527 7.93325e-20)
(7.31514 -1.12164 7.41845e-20)
(8.35935 -0.946496 0)
(9.26067 -0.747216 6.30529e-20)
(9.99617 -0.526529 1.11343e-19)
(10.5658 -0.265226 -5.12593e-20)
(11.0928 0.0419082 -4.30305e-20)
(11.5014 0.362762 0)
(11.6702 0.639199 0)
(11.5202 0.814922 0)
(11.0444 0.867386 -2.9867e-20)
(10.2971 0.816625 2.68654e-20)
(9.371 0.708715 5.26203e-20)
(8.37582 0.589491 -2.61444e-20)
(7.41206 0.485642 2.56379e-20)
(6.54744 0.402193 2.59478e-20)
(5.81058 0.333186 0)
(5.20188 0.272437 0)
(4.70881 0.217271 -2.59554e-20)
(4.31582 0.168012 0)
(4.00782 0.125778 0)
(3.77083 0.0910433 5.34669e-20)
(3.59189 0.0635871 0)
(3.45895 0.0429141 2.74614e-20)
(3.3609 0.0284383 -2.7772e-20)
(3.2879 0.0194433 0)
(3.23169 0.0150293 2.83945e-20)
(3.18592 0.0141733 0)
(3.14626 0.015867 0)
(3.11005 0.0192733 -2.87377e-20)
(3.07571 0.023845 5.75288e-20)
(3.04209 0.029257 -2.87116e-20)
(3.00786 0.0351787 0)
(2.97146 0.0411109 0)
(2.93121 0.046254 2.83737e-20)
(2.88604 0.0492952 0)
(2.83581 0.0482706 2.79932e-20)
(2.78176 0.0411232 0)
(2.72694 0.0274208 0)
(2.67641 0.00913534 0)
(2.63817 -0.0117317 2.71119e-20)
(2.62077 -0.0338826 0)
(2.63155 -0.0573795 -2.66921e-20)
(2.67648 -0.082989 0)
(2.75953 -0.111169 0)
(2.88142 -0.141556 5.21568e-20)
(3.04129 -0.175025 -5.17012e-20)
(3.24781 -0.213123 0)
(3.52499 -0.241411 0)
(3.87286 -0.211144 0)
(4.22031 -0.0899187 1.46884e-19)
(4.41544 0.0668316 0)
(4.26185 0.136419 -9.35252e-20)
(0.28205 -2.14205 3.78216e-22)
(0.661111 -2.78649 1.18928e-20)
(0.881806 -2.40297 0)
(1.0263 -1.85421 -1.44469e-20)
(1.11054 -1.30841 0)
(1.13656 -0.790905 0)
(1.10216 -0.309861 -6.82558e-22)
(0.98383 0.123627 8.86465e-21)
(0.795723 0.501729 9.47435e-21)
(0.53496 0.818832 8.61354e-21)
(0.192138 1.06998 0)
(-0.259023 1.27993 0)
(-0.866675 1.52146 -7.85212e-21)
(-1.64518 1.85027 -1.48782e-20)
(-2.55467 2.25945 1.44235e-20)
(-3.53205 2.69111 0)
(-4.51709 3.08478 1.46789e-20)
(-5.46059 3.40287 -6.03071e-21)
(-6.32433 3.62255 0)
(-7.0829 3.72999 1.79914e-20)
(-7.72455 3.72119 7.01913e-21)
(-8.24966 3.60313 -2.16114e-20)
(-8.6685 3.39179 -8.38826e-21)
(-8.99762 3.10879 0)
(-9.25584 2.77731 2.80323e-20)
(-9.46085 2.41887 3.01544e-20)
(-9.62665 2.05118 0)
(-9.76223 1.68735 3.38667e-20)
(-9.87127 1.33612 0)
(-9.95276 1.00259 3.63234e-20)
(-10.0022 0.689345 1.57397e-20)
(-10.0129 0.397278 0)
(-9.9792 0.126058 0)
(-9.89916 -0.124956 0)
(-9.77241 -0.356445 0)
(-9.59988 -0.568438 0)
(-9.38614 -0.759703 0)
(-9.13572 -0.929649 2.54357e-20)
(-8.85234 -1.07934 -3.17095e-20)
(-8.53885 -1.21073 0)
(-8.19726 -1.32627 0)
(-7.82872 -1.4286 0)
(-7.43359 -1.52017 -2.16928e-21)
(-7.01164 -1.60281 9.02974e-22)
(-6.56219 -1.67758 -4.09613e-21)
(-6.08497 -1.7443 1.20733e-20)
(-5.58075 -1.80139 9.1025e-21)
(-5.05156 -1.84605 -1.47013e-20)
(-4.50146 -1.87486 1.51282e-21)
(-3.93672 -1.88483 -2.05161e-20)
(-3.36544 -1.87439 0)
(-2.79657 -1.84395 -2.70251e-20)
(-2.23844 -1.79543 9.69071e-22)
(-1.69779 -1.73238 0)
(-1.17919 -1.65946 0)
(-0.684853 -1.58166 3.59861e-20)
(-0.215097 -1.50341 0)
(0.231146 -1.42815 0)
(0.65639 -1.35727 -3.74949e-20)
(1.06312 -1.29212 -7.63551e-20)
(1.45332 -1.23313 3.86653e-20)
(1.82901 -1.18004 0)
(2.19239 -1.1324 -3.793e-20)
(2.54569 -1.08963 0)
(2.89093 -1.05086 -3.574e-20)
(3.22981 -1.01501 -3.62625e-20)
(3.56348 -0.980872 7.01503e-20)
(3.89255 -0.946332 3.38872e-20)
(4.21693 -0.908889 0)
(4.5355 -0.865895 -6.58516e-20)
(4.84712 -0.813426 0)
(5.15071 -0.746856 -9.46576e-20)
(5.4452 -0.664816 -6.12278e-20)
(5.73643 -0.564222 -5.96441e-20)
(6.0402 -0.440555 5.79978e-20)
(6.36515 -0.307793 -8.48105e-20)
(6.69728 -0.191789 0)
(6.99423 -0.099736 0)
(7.23082 0.0082022 5.10048e-20)
(7.40344 0.19892 7.53854e-20)
(7.48638 0.492073 0)
(7.3978 0.79916 -2.53402e-20)
(7.03439 0.977108 0)
(6.39062 0.951297 7.59371e-20)
(5.61334 0.757735 4.94922e-22)
(4.90824 0.443219 -3.79203e-22)
(4.44522 0.0140001 -5.07583e-20)
(4.31725 -0.391411 0)
(4.48362 -0.515687 5.03462e-20)
(4.77542 -0.296068 4.46872e-24)
(4.94748 0.00599468 0)
(4.83788 0.156603 0)
(4.36117 0.329554 0)
(3.38149 0.863223 -5.00208e-20)
(1.82387 1.74556 0)
(-0.113285 2.62709 0)
(-2.06348 3.23901 0)
(-3.80889 3.53508 0)
(-5.24312 3.54429 0)
(-6.34982 3.33529 -9.94269e-21)
(-7.17255 2.98865 0)
(-7.78049 2.57588 1.21833e-21)
(-8.2413 2.1483 1.10155e-20)
(-8.60522 1.73582 -1.9958e-20)
(-8.89977 1.35165 0)
(-9.13207 0.997909 -3.36188e-20)
(-9.2953 0.671271 0)
(-9.3754 0.366505 -3.97034e-20)
(-9.35694 0.0787465 3.94677e-20)
(-9.23176 -0.195435 1.1771e-19)
(-8.99543 -0.454071 0)
(-8.65101 -0.695251 8.32192e-20)
(-8.20661 -0.913922 2.33061e-20)
(-7.67069 -1.10909 0)
(-7.05294 -1.28178 3.25104e-21)
(-6.36282 -1.435 -1.7235e-20)
(-5.60779 -1.57327 5.91367e-20)
(-4.79242 -1.70201 0)
(-3.91796 -1.82684 4.17523e-20)
(-2.98198 -1.95189 5.16269e-20)
(-1.97977 -2.07913 1.77041e-19)
(-0.908264 -2.20505 0)
(0.238701 -2.31637 0)
(1.45674 -2.40073 0)
(2.72513 -2.43718 7.67529e-20)
(4.01951 -2.40968 0)
(5.30388 -2.30987 0)
(6.53774 -2.13869 -7.77973e-20)
(7.68305 -1.9056 -7.28952e-20)
(8.70996 -1.62525 0)
(9.59988 -1.31058 0)
(10.3462 -0.970692 -1.10129e-19)
(10.9445 -0.620309 0)
(11.4004 -0.263928 8.8884e-20)
(11.7719 0.10452 7.56277e-20)
(12.0917 0.469789 0)
(12.3226 0.794713 0)
(12.3825 1.04043 -5.44232e-20)
(12.201 1.18869 -2.42583e-21)
(11.7561 1.24399 -2.00024e-21)
(11.0793 1.22147 0)
(10.24 1.13841 -9.81425e-20)
(9.32427 1.01315 0)
(8.41394 0.865095 0)
(7.57166 0.712394 0)
(6.83537 0.56895 5.04337e-20)
(6.22041 0.442859 0)
(5.72525 0.33703 -1.03269e-19)
(5.33789 0.251022 -5.23373e-20)
(5.04142 0.183042 0)
(4.81775 0.131177 -5.39336e-20)
(4.64979 0.0936295 0)
(4.52247 0.0684329 0)
(4.42322 0.0532385 -1.67996e-19)
(4.34228 0.0454157 1.12894e-19)
(4.27279 0.042421 0)
(4.21059 0.0422278 1.13721e-19)
(4.15361 0.0436036 -5.68295e-20)
(4.10119 0.0460661 0)
(4.05325 0.049572 0)
(4.0094 0.05404 0)
(3.96876 0.0588864 -1.68307e-19)
(3.93005 0.0627046 0)
(3.89186 0.0633133 -5.53087e-20)
(3.85288 0.0583967 0)
(3.81222 0.0466584 0)
(3.7708 0.0283081 0)
(3.73198 0.00449138 0)
(3.69978 -0.0243586 0)
(3.6783 -0.058205 0)
(3.67176 -0.0974801 -1.05009e-19)
(3.6846 -0.14094 0)
(3.7188 -0.185877 -5.16952e-20)
(3.77211 -0.233549 1.53876e-19)
(3.85329 -0.292737 0)
(3.99973 -0.354708 0)
(4.23858 -0.353898 -9.88199e-20)
(4.51591 -0.21471 -9.73419e-20)
(4.66531 0.0499161 9.43452e-20)
(4.42981 0.312611 9.30646e-20)
(0.137805 -2.94486 -1.62348e-20)
(0.243027 -3.01523 -1.74694e-20)
(0.189526 -2.44671 -1.24315e-20)
(0.140333 -1.85489 -6.20466e-21)
(0.0416578 -1.23496 0)
(-0.10341 -0.603065 1.6987e-20)
(-0.321442 0.0209139 -8.32865e-21)
(-0.599865 0.606236 0)
(-0.962741 1.15062 -9.26997e-21)
(-1.41665 1.66313 0)
(-1.97374 2.1599 1.68922e-20)
(-2.64235 2.65904 0)
(-3.41069 3.16464 7.12264e-21)
(-4.23799 3.65435 1.34952e-20)
(-5.06836 4.08865 -1.31471e-20)
(-5.85101 4.4318 0)
(-6.55206 4.66183 -1.36543e-20)
(-7.1537 4.77031 0)
(-7.6515 4.75982 0)
(-8.05304 4.64142 -1.73649e-20)
(-8.37497 4.43268 0)
(-8.63874 4.1548 -6.90162e-21)
(-8.86566 3.82893 0)
(-9.07251 3.47285 0)
(-9.26887 3.09918 7.43772e-21)
(-9.45648 2.71538 -3.00743e-20)
(-9.63063 2.3252 -3.95681e-20)
(-9.78253 1.93065 -3.38178e-20)
(-9.90196 1.53396 0)
(-9.97937 1.13869 -7.9877e-20)
(-10.0076 0.750021 0)
(-9.98302 0.37425 -4.37707e-20)
(-9.90507 0.0175014 0)
(-9.77491 -0.314906 0)
(-9.59688 -0.618599 3.89319e-20)
(-9.37789 -0.892073 0)
(-9.12455 -1.13539 -3.30622e-20)
(-8.84427 -1.35011 4.1026e-21)
(-8.5438 -1.53924 4.80023e-20)
(-8.22832 -1.70676 -4.39059e-20)
(-7.90049 -1.85707 0)
(-7.56015 -1.99447 0)
(-7.20452 -2.12251 -1.25628e-20)
(-6.8289 -2.24364 0)
(-6.42757 -2.35858 1.05309e-21)
(-5.99486 -2.46581 -5.05713e-21)
(-5.52645 -2.56161 -9.02096e-21)
(-5.02064 -2.64013 0)
(-4.47951 -2.69437 1.66744e-20)
(-3.90933 -2.71775 2.02674e-20)
(-3.3202 -2.70602 -4.36083e-20)
(-2.72555 -2.65903 2.67257e-20)
(-2.13951 -2.58094 2.94951e-20)
(-1.57373 -2.47902 0)
(-1.03605 -2.36176 0)
(-0.530123 -2.23898 -3.57454e-20)
(-0.0565346 -2.11816 0)
(0.387681 -2.00472 0)
(0.806879 -1.90058 7.5564e-20)
(1.20501 -1.80681 7.55516e-20)
(1.58591 -1.72331 0)
(1.95273 -1.64944 0)
(2.30807 -1.5844 0)
(2.65419 -1.52727 0)
(2.99322 -1.47697 7.20232e-20)
(3.32723 -1.43196 -6.93445e-20)
(3.65804 -1.39006 -6.95921e-20)
(3.98708 -1.3484 -1.35068e-19)
(4.31528 -1.30362 0)
(4.64287 -1.25239 1.3281e-21)
(4.96955 -1.19183 0)
(5.29535 -1.11831 6.21952e-20)
(5.62123 -1.0276 1.35601e-21)
(5.94923 -0.915093 5.89774e-20)
(6.28158 -0.779826 -5.73032e-20)
(6.61574 -0.627677 1.5542e-21)
(6.93732 -0.464785 0)
(7.21785 -0.287829 -5.04321e-20)
(7.42047 -0.0889442 -5.0763e-20)
(7.54322 0.146731 -9.78756e-20)
(7.63006 0.465521 0)
(7.69253 0.88536 4.69146e-20)
(7.63761 1.31535 0)
(7.32349 1.58706 -9.65069e-20)
(6.71521 1.57487 4.92497e-20)
(5.95293 1.22727 -4.94186e-20)
(5.24411 0.56292 4.97821e-20)
(4.76319 -0.186339 1.00211e-19)
(4.60927 -0.574243 -5.01291e-20)
(4.66731 -0.402143 5.0196e-20)