/*--------------------------------*- C++ -*----------------------------------*\
| =========                 |                                                 |
| \\      /  F ield         | OpenFOAM: The Open Source CFD Toolbox           |
|  \\    /   O peration     | Version:  2112                                  |
|   \\  /    A nd           | Website:  www.openfoam.com                      |
|    \\/     M anipulation  |                                                 |
\*---------------------------------------------------------------------------*/
FoamFile
{
    version     2.0;
    format      ascii;
    arch        "LSB;label=32;scalar=64";
    class       volScalarField;
    location    "0.21";
    object      kU;
}
// * * * * * * * * * * * * * * * * * * * * * * * * * * * * * * * * * * * * * //

dimensions      [0 2 -2 0 0 0 0];

internalField   nonuniform List<scalar> 
12225
(
1.4557
2.53018
3.62127
4.82411
6.20552
7.7907
9.56277
11.4695
13.4375
15.3876
17.2522
18.9846
20.56
21.9734
23.2288
24.3566
25.2418
25.7346
0.424743
0.515261
0.636647
0.791993
0.983916
1.21555
1.49398
1.83123
2.23983
2.73041
3.30229
3.94338
4.63416
5.35521
6.09206
6.8501
7.68764
8.50899
0.379798
0.38686
0.394676
0.404882
0.419695
0.441193
0.471897
0.515312
0.575604
0.657545
0.765232
0.901336
1.06678
1.26153
1.4854
1.74414
2.05162
2.41735
0.376251
0.377057
0.37742
0.377456
0.377367
0.377332
0.377611
0.378703
0.381475
0.387095
0.396862
0.412059
0.433823
0.463267
0.501582
0.550875
0.613958
0.69496
0.375581
0.37582
0.375727
0.375357
0.374751
0.373924
0.372865
0.371627
0.370332
0.369158
0.368319
0.368052
0.368639
0.370319
0.373294
0.377976
0.384887
0.394514
0.375352
0.375558
0.375528
0.375308
0.374932
0.374411
0.373736
0.372924
0.372006
0.371027
0.370037
0.369084
0.368207
0.367444
0.36684
0.366464
0.366402
0.366719
0.37524
0.375439
0.375499
0.375421
0.375231
0.374945
0.374558
0.374085
0.373547
0.372962
0.372352
0.371732
0.371118
0.370521
0.369958
0.36945
0.369028
0.368717
0.37517
0.375349
0.375466
0.375491
0.375434
0.375299
0.375092
0.374833
0.374531
0.374201
0.373854
0.373501
0.373148
0.372804
0.372478
0.372178
0.371918
0.371713
0.375118
0.375269
0.375406
0.375501
0.375538
0.375513
0.375432
0.375307
0.375152
0.374979
0.374799
0.374616
0.374435
0.374261
0.374102
0.373963
0.373852
0.373773
0.375077
0.375195
0.375327
0.375454
0.375556
0.375617
0.375632
0.375606
0.375554
0.375491
0.375423
0.375356
0.375292
0.375236
0.375191
0.375167
0.375167
0.375189
0.375042
0.375127
0.375241
0.375372
0.375504
0.37562
0.375709
0.375769
0.375805
0.375829
0.375848
0.375869
0.375895
0.37593
0.375975
0.376035
0.376111
0.376197
0.375014
0.37507
0.375162
0.375284
0.37542
0.375557
0.375684
0.375796
0.375893
0.375981
0.376063
0.376146
0.376233
0.376326
0.376427
0.376539
0.376659
0.376784
0.374987
0.375016
0.375086
0.375191
0.375321
0.375463
0.375607
0.375747
0.375883
0.376015
0.376144
0.376273
0.376404
0.376539
0.376679
0.376825
0.376976
0.377125
0.374959
0.374956
0.375003
0.375087
0.375202
0.375337
0.375482
0.375634
0.375788
0.375945
0.376104
0.376264
0.376426
0.37659
0.376756
0.376924
0.377093
0.377255
0.374932
0.374892
0.374915
0.374977
0.375072
0.375191
0.375327
0.375474
0.37563
0.375792
0.375959
0.37613
0.376304
0.376479
0.376655
0.376831
0.377003
0.377167
0.374908
0.374831
0.374825
0.374869
0.374944
0.375044
0.375163
0.375297
0.375441
0.375595
0.375754
0.375919
0.376086
0.376255
0.376424
0.376592
0.376755
0.376909
0.37489
0.374782
0.374748
0.374774
0.374832
0.374914
0.375016
0.375132
0.37526
0.375397
0.375541
0.375689
0.375839
0.375991
0.376142
0.376291
0.376436
0.376572
0.374879
0.374751
0.374697
0.374707
0.374754
0.374824
0.374911
0.375012
0.375124
0.375244
0.375369
0.375498
0.375629
0.37576
0.375889
0.376016
0.376138
0.376252
0.374879
0.37475
0.374691
0.374697
0.37474
0.374804
0.374885
0.374977
0.375078
0.375184
0.375294
0.375405
0.375516
0.375626
0.375733
0.375836
0.375933
0.376023
0.374893
0.374786
0.374747
0.374765
0.374814
0.374882
0.374965
0.375056
0.375151
0.375248
0.375344
0.375437
0.375526
0.375609
0.375686
0.375757
0.375821
0.375877
0.374915
0.374842
0.374831
0.374864
0.374921
0.374995
0.375078
0.375164
0.375248
0.375325
0.375394
0.375452
0.3755
0.375537
0.375566
0.375588
0.375602
0.375611
0.374946
0.374915
0.374932
0.374975
0.375038
0.375109
0.375179
0.375239
0.375284
0.375309
0.375316
0.375306
0.375283
0.375251
0.375212
0.375167
0.375117
0.375065
0.374986
0.374997
0.375031
0.375078
0.375126
0.375164
0.375183
0.375177
0.375144
0.375085
0.375003
0.374901
0.374785
0.374658
0.374526
0.374389
0.37425
0.374111
0.375031
0.375078
0.375117
0.375135
0.375128
0.375092
0.375019
0.374906
0.374754
0.374572
0.374365
0.374134
0.373885
0.373623
0.373352
0.373075
0.372795
0.372519
0.375087
0.375164
0.375178
0.375123
0.375009
0.37484
0.374617
0.37434
0.374008
0.37363
0.373213
0.372762
0.372285
0.371789
0.37128
0.370763
0.370246
0.369737
0.375184
0.375292
0.375254
0.375085
0.3748
0.374408
0.373918
0.373333
0.372661
0.371913
0.3711
0.370237
0.369337
0.368414
0.367487
0.366578
0.365707
0.3649
0.375448
0.375755
0.3758
0.375542
0.375028
0.374305
0.373408
0.372371
0.371234
0.370053
0.368896
0.367857
0.367053
0.366589
0.366569
0.367126
0.36841
0.370551
0.376731
0.379284
0.381374
0.382875
0.384208
0.385876
0.388393
0.392258
0.397933
0.405874
0.416584
0.430651
0.448706
0.471469
0.499726
0.534179
0.575454
0.623941
0.39545
0.427295
0.468794
0.522182
0.588709
0.668745
0.762463
0.870002
0.99165
1.12821
1.28139
1.45388
1.64843
1.86778
2.1144
2.38933
2.6922
3.01805
1.04071
1.68807
2.30016
2.91811
3.58011
4.31145
5.12623
6.03012
7.02202
8.09476
9.2357
10.4279
11.6519
12.887
14.113
15.312
16.4679
17.5627
0.263226
0.265208
0.269623
0.276383
0.285508
0.296986
0.310753
0.326702
0.344687
0.364539
0.386108
0.409521
0.434925
0.461957
0.490396
0.520172
0.55127
0.58369
0.617445
0.652555
0.689048
0.726956
0.766312
0.807147
0.84949
0.893364
0.938791
0.985785
1.03436
1.08452
1.13627
1.18961
1.24453
1.30101
1.35906
1.41863
1.47972
1.54229
1.6063
1.67172
1.7385
1.80658
1.87593
1.94647
2.01813
2.09086
2.16457
2.23918
2.31461
2.39077
2.46757
2.54491
2.6227
2.70084
2.77922
2.85774
2.93629
3.01478
3.0931
3.17113
3.24878
3.32595
3.40252
3.47841
3.55351
3.62772
3.70095
3.77311
3.8441
3.91384
3.98225
4.04923
4.11471
4.17861
4.24086
4.30139
4.36014
4.41705
4.47205
4.52509
4.57613
4.62511
4.672
4.71674
4.7593
4.79963
4.83771
4.87348
4.90692
4.93799
4.96664
4.99285
5.01658
5.03777
5.0564
5.07239
5.08568
5.09617
5.10375
5.10862
5.11116
5.11138
5.10929
5.10488
5.09818
5.08921
5.07799
5.06455
5.04891
5.03111
5.01119
4.98916
4.96508
4.93897
4.91086
4.8808
4.84881
4.81493
4.77918
4.7416
4.70222
4.66106
4.61815
4.57351
4.52717
4.47915
4.42947
4.37814
4.32519
4.27065
4.21453
4.15686
4.09768
4.03702
3.97493
3.91145
3.84666
3.78061
3.71338
3.64504
3.57568
3.50536
3.43415
3.36213
3.28935
3.21586
3.14173
3.06709
2.99217
2.91737
2.84363
2.77381
2.70873
2.65236
2.61428
2.5999
2.61063
2.64288
2.68905
2.7376
2.79087
2.84553
2.90027
2.95444
3.00767
3.05971
3.11044
3.15979
3.20772
3.25423
3.29931
3.34299
3.38532
3.42633
3.46607
3.50459
3.5422
3.57909
3.62049
3.6534
0.265004
0.266003
0.269365
0.274878
0.282508
0.292192
0.303822
0.317256
0.332335
0.348894
0.366782
0.385891
0.406177
0.42752
0.449792
0.472908
0.496815
0.521492
0.546932
0.573139
0.600121
0.627891
0.656459
0.685834
0.71602
0.74702
0.778829
0.811441
0.844846
0.879028
0.913971
0.949652
0.98605
1.02314
1.06089
1.09926
1.13824
1.17777
1.21783
1.25837
1.29936
1.34074
1.38247
1.42452
1.46682
1.50933
1.55201
1.5948
1.63765
1.68052
1.72335
1.7661
1.80871
1.85115
1.89336
1.93531
1.97694
2.01822
2.05911
2.09957
2.13957
2.17907
2.21804
2.25645
2.29427
2.33147
2.36804
2.40394
2.43917
2.47368
2.50748
2.54054
2.57286
2.60441
2.63519
2.6652
2.69443
2.72287
2.75053
2.7774
2.80348
2.82877
2.85328
2.877
2.89995
2.92212
2.94351
2.96414
2.984
3.0031
3.02144
3.03903
3.05588
3.07198
3.08735
3.102
3.11593
3.12919
3.14197
3.15445
3.16642
3.17787
3.18879
3.19919
3.2091
3.21851
3.22746
3.23594
3.24398
3.25157
3.25874
3.26549
3.27183
3.27776
3.28329
3.28841
3.29313
3.29742
3.3013
3.30474
3.30771
3.3102
3.31218
3.31361
3.31444
3.31463
3.31411
3.31282
3.31069
3.30761
3.30351
3.29828
3.2918
3.28396
3.27461
3.26363
3.25087
3.23618
3.21942
3.20042
3.17905
3.15515
3.12859
3.09925
3.06701
3.0318
2.99357
2.95235
2.90826
2.86162
2.81315
2.7644
2.7169
2.67515
2.64557
2.63253
2.63717
2.65685
2.68606
2.71714
2.74894
2.77968
2.80837
2.83444
2.8576
2.87765
2.8945
2.90814
2.9186
2.92596
2.93036
2.93197
2.93099
2.92768
2.9223
2.91525
2.90715
2.89948
2.89574
2.90663
0.269107
0.268388
0.270371
0.274553
0.280805
0.289004
0.298994
0.310597
0.323635
0.337937
0.353346
0.369734
0.386993
0.405024
0.423732
0.443047
0.462921
0.483326
0.50425
0.525691
0.54765
0.570134
0.593146
0.616688
0.640758
0.665351
0.69046
0.716072
0.742172
0.768742
0.795764
0.823215
0.851072
0.87931
0.907902
0.936822
0.966042
0.995532
1.02526
1.05521
1.08533
1.1156
1.146
1.17649
1.20703
1.23761
1.26819
1.29875
1.32926
1.35969
1.39003
1.42024
1.45031
1.48021
1.50994
1.53947
1.5688
1.5979
1.62676
1.65538
1.68375
1.71186
1.73969
1.76725
1.79453
1.82152
1.84822
1.87462
1.90073
1.92654
1.95205
1.97726
2.00217
2.02677
2.05109
2.0751
2.09883
2.12227
2.14542
2.1683
2.1909
2.21323
2.23529
2.25709
2.27863
2.29992
2.32096
2.34175
2.36229
2.38261
2.4027
2.42256
2.44222
2.46168
2.48096
2.50009
2.51909
2.53804
2.55705
2.57598
2.59475
2.61335
2.63178
2.65003
2.66811
2.68601
2.70374
2.72128
2.73865
2.75583
2.77282
2.78963
2.80623
2.82264
2.83884
2.85483
2.87059
2.88611
2.90138
2.91637
2.93107
2.94546
2.95949
2.97313
2.98635
2.9991
3.01131
3.02293
3.03389
3.0441
3.05347
3.0619
3.06927
3.07545
3.0803
3.08366
3.08538
3.08528
3.08316
3.07885
3.07214
3.06285
3.05077
3.03575
3.01762
2.99627
2.97163
2.94373
2.91271
2.87892
2.84305
2.80627
2.77006
2.73761
2.7134
2.7008
2.70047
2.71059
2.7275
2.74666
2.7663
2.78482
2.80116
2.81471
2.82513
2.83221
2.83586
2.83609
2.83295
2.82657
2.81713
2.80485
2.78998
2.77283
2.75374
2.73319
2.71191
2.6915
2.67468
2.66933
0.274116
0.271178
0.271738
0.274627
0.279622
0.286547
0.295194
0.305357
0.316836
0.329451
0.34304
0.357465
0.372611
0.38838
0.404689
0.421477
0.438699
0.45633
0.474356
0.492772
0.511577
0.530774
0.550363
0.570345
0.590717
0.611472
0.632602
0.654097
0.675942
0.698122
0.72062
0.743419
0.766501
0.789845
0.813433
0.837245
0.861261
0.885462
0.909829
0.934344
0.958988
0.983745
1.0086
1.03353
1.05853
1.08358
1.10867
1.13379
1.15893
1.18409
1.20925
1.23441
1.25956
1.28471
1.30986
1.33499
1.36011
1.38523
1.41033
1.43543
1.46053
1.48562
1.5107
1.53578
1.56085
1.58592
1.61098
1.63604
1.66108
1.68611
1.71112
1.73612
1.76109
1.78604
1.81096
1.83586
1.86072
1.88554
1.91033
1.93508
1.95978
1.98443
2.00903
2.03357
2.05805
2.08247
2.10682
2.13109
2.1553
2.17944
2.2035
2.2275
2.25144
2.27533
2.29918
2.32301
2.34684
2.37072
2.39454
2.41825
2.44182
2.46522
2.48845
2.51149
2.53434
2.55698
2.5794
2.60159
2.62354
2.64523
2.66667
2.68783
2.70871
2.7293
2.74958
2.76955
2.78919
2.80849
2.82744
2.84602
2.86421
2.882
2.89936
2.91626
2.93268
2.94858
2.96392
2.97865
2.99273
3.0061
3.01868
3.0304
3.04116
3.05088
3.05942
3.06668
3.07251
3.07676
3.07928
3.07988
3.07839
3.07464
3.06843
3.05959
3.04798
3.03348
3.01602
2.99562
2.97244
2.9468
2.91926
2.89055
2.86179
2.83522
2.81427
2.80122
2.79654
2.799
2.80631
2.81593
2.82623
2.83571
2.84331
2.8484
2.85064
2.84983
2.84589
2.83884
2.82874
2.81574
2.80001
2.78178
2.76131
2.73891
2.71494
2.6899
2.66455
2.64043
2.61956
2.60694
0.280358
0.274453
0.273484
0.275124
0.278994
0.284834
0.292383
0.301396
0.311657
0.322976
0.335186
0.348147
0.361743
0.375876
0.390474
0.405479
0.420853
0.436571
0.45262
0.468995
0.485696
0.502722
0.520075
0.537754
0.555758
0.574083
0.59272
0.611664
0.630903
0.650428
0.670226
0.690287
0.710597
0.731146
0.751922
0.772914
0.794111
0.815505
0.837086
0.858847
0.880781
0.902882
0.925146
0.94757
0.970151
0.992888
1.01578
1.03883
1.06204
1.08541
1.10895
1.13267
1.15656
1.18063
1.20489
1.22934
1.254
1.27886
1.30394
1.32922
1.35472
1.38044
1.40637
1.43251
1.45887
1.48543
1.51219
1.53914
1.56627
1.59357
1.62103
1.64864
1.6764
1.70428
1.73228
1.76038
1.78857
1.81685
1.84519
1.87359
1.90202
1.93048
1.95896
1.98744
2.01592
2.04437
2.0728
2.10119
2.12955
2.15786
2.18611
2.21432
2.24248
2.27059
2.29866
2.3267
2.35469
2.38255
2.41026
2.43777
2.46505
2.4921
2.51888
2.54538
2.57158
2.59747
2.62303
2.64823
2.67307
2.69752
2.72156
2.74519
2.76839
2.79113
2.81342
2.83523
2.85655
2.87737
2.89768
2.91747
2.93671
2.95539
2.97349
2.991
3.00789
3.02413
3.03971
3.05458
3.06873
3.0821
3.09465
3.10632
3.11706
3.12679
3.13543
3.14289
3.14906
3.15384
3.1571
3.15871
3.15852
3.15639
3.15217
3.14572
3.13692
3.12566
3.11192
3.09574
3.07723
3.05669
3.03449
3.01094
2.98692
2.964
2.94457
2.93035
2.9217
2.91781
2.91738
2.91905
2.92164
2.92381
2.92455
2.92325
2.91953
2.91322
2.90422
2.89255
2.87828
2.86153
2.84246
2.82129
2.79825
2.77364
2.74781
2.72126
2.69475
2.66964
2.64741
2.63104
0.287422
0.277903
0.275286
0.275711
0.278572
0.283488
0.290123
0.298197
0.307472
0.317752
0.32887
0.340684
0.353081
0.365969
0.379279
0.392958
0.406973
0.421301
0.435932
0.45086
0.466085
0.481609
0.497434
0.51356
0.529988
0.546716
0.563741
0.58106
0.598667
0.616558
0.634727
0.653169
0.671879
0.690853
0.710087
0.729579
0.749328
0.769332
0.789593
0.810113
0.830892
0.851937
0.873251
0.894839
0.916709
0.938868
0.961324
0.984086
1.00716
1.03057
1.0543
1.07838
1.10282
1.12762
1.15279
1.17834
1.20428
1.23061
1.25733
1.28445
1.31196
1.33986
1.36815
1.39682
1.42586
1.45525
1.48499
1.51505
1.54543
1.57609
1.60704
1.63823
1.66966
1.7013
1.73314
1.76515
1.79731
1.8296
1.862
1.8945
1.92705
1.95966
1.99229
2.02493
2.05756
2.09017
2.12274
2.15527
2.18775
2.22015
2.25249
2.28475
2.31694
2.34904
2.38105
2.41297
2.44468
2.47614
2.50735
2.53827
2.56887
2.59914
2.62904
2.65856
2.68766
2.71633
2.74454
2.77227
2.79949
2.8262
2.85235
2.87793
2.90292
2.9273
2.95106
2.97417
2.99663
3.01842
3.03953
3.05994
3.07965
3.09862
3.11686
3.13434
3.15104
3.16694
3.18204
3.19632
3.20974
3.22228
3.23393
3.24463
3.25434
3.26303
3.27063
3.27709
3.28233
3.28628
3.28884
3.28993
3.28943
3.28724
3.28325
3.27736
3.26948
3.25954
3.24754
3.23355
3.21765
3.20004
3.18101
3.16062
3.13933
3.11825
3.09912
3.08322
3.07086
3.06159
3.05471
3.04962
3.04553
3.04137
3.03624
3.02954
3.02088
3.01009
2.99707
2.98182
2.96438
2.94488
2.92343
2.90025
2.87553
2.84955
2.82265
2.79533
2.76826
2.74265
2.7195
2.70056
0.295127
0.281315
0.276903
0.276133
0.278086
0.282211
0.288084
0.295376
0.303832
0.31325
0.323463
0.334336
0.345758
0.357645
0.369932
0.382572
0.395534
0.4088
0.42236
0.436212
0.450356
0.464795
0.479534
0.494575
0.509921
0.525575
0.541537
0.557808
0.574389
0.59128
0.608481
0.625994
0.643821
0.661964
0.680427
0.699215
0.718334
0.737791
0.757595
0.777753
0.798277
0.819176
0.840463
0.862148
0.884245
0.906767
0.929726
0.953136
0.97701
1.00136
1.0262
1.05154
1.0774
1.10377
1.13068
1.15813
1.18612
1.21465
1.24373
1.27336
1.30352
1.33422
1.36544
1.39717
1.4294
1.4621
1.49526
1.52885
1.56285
1.59724
1.63198
1.66705
1.70242
1.73807
1.77396
1.81007
1.84638
1.88284
1.91944
1.95615
1.99293
2.02975
2.0666
2.10345
2.14027
2.17705
2.21378
2.25044
2.28701
2.3235
2.35988
2.39616
2.43231
2.46835
2.50426
2.53989
2.5752
2.6102
2.64484
2.67911
2.71297
2.74639
2.77934
2.8118
2.84373
2.87511
2.9059
2.9361
2.96565
2.99455
3.02275
3.05023
3.07697
3.10294
3.12813
3.1525
3.17606
3.19878
3.22065
3.24166
3.2618
3.28104
3.29938
3.31679
3.33327
3.34879
3.36336
3.37696
3.38957
3.40119
3.41179
3.42136
3.42986
3.43728
3.44357
3.44869
3.45262
3.45528
3.45662
3.45659
3.4551
3.45209
3.44748
3.4412
3.43321
3.42345
3.41195
3.39882
3.38413
3.36801
3.35054
3.33168
3.31161
3.29111
3.27143
3.25352
3.23769
3.22375
3.21139
3.20042
3.19041
3.18057
3.17012
3.15851
3.14538
3.13052
3.11384
3.09532
3.07499
3.05294
3.02929
3.00421
2.97789
2.95057
2.92257
2.89437
2.86657
2.84018
2.81585
2.7946
0.303359
0.284528
0.27815
0.276193
0.277322
0.280767
0.285995
0.292626
0.300384
0.309063
0.3185
0.328566
0.33916
0.350204
0.361638
0.373422
0.385529
0.397944
0.41066
0.423675
0.436994
0.45062
0.46456
0.47882
0.493406
0.508323
0.523576
0.539171
0.555113
0.571407
0.588058
0.605076
0.622465
0.640237
0.658399
0.676964
0.695943
0.715349
0.735196
0.755499
0.776272
0.797533
0.819296
0.841577
0.864394
0.887763
0.911699
0.936219
0.961337
0.987068
1.01343
1.04043
1.06808
1.09639
1.12537
1.15502
1.18536
1.21638
1.24807
1.28044
1.31348
1.34718
1.38151
1.41648
1.45204
1.4882
1.52491
1.56215
1.59989
1.6381
1.67674
1.71579
1.75519
1.79493
1.83497
1.87527
1.9158
1.95652
1.99739
2.03839
2.07946
2.12058
2.16172
2.20283
2.24391
2.28493
2.32586
2.36671
2.40744
2.44806
2.48854
2.52888
2.56908
2.60911
2.64887
2.68824
2.72721
2.76579
2.80393
2.8416
2.87877
2.91539
2.95144
2.98689
3.02169
3.05582
3.08925
3.12195
3.15388
3.18501
3.21531
3.24475
3.27329
3.3009
3.32757
3.35326
3.37797
3.40169
3.42439
3.44606
3.4667
3.48628
3.50479
3.52222
3.53855
3.55376
3.56787
3.58086
3.59273
3.60347
3.61309
3.62155
3.62885
3.63497
3.6399
3.64363
3.64611
3.64733
3.64724
3.64581
3.643
3.63875
3.63302
3.62579
3.61704
3.60675
3.59496
3.58177
3.56723
3.55141
3.53428
3.51574
3.49581
3.475
3.4542
3.43412
3.41508
3.39702
3.37993
3.36382
3.34851
3.33347
3.3181
3.3019
3.28453
3.2658
3.24558
3.22386
3.20065
3.17602
3.15008
3.12296
3.09485
3.06596
3.0366
3.0072
2.97829
2.95069
2.92478
2.90114
0.312035
0.287429
0.278907
0.275767
0.27614
0.278994
0.283667
0.289724
0.29687
0.304895
0.313643
0.322994
0.332856
0.343159
0.353854
0.364904
0.376287
0.387991
0.400013
0.412354
0.425018
0.438013
0.451347
0.465028
0.479065
0.493467
0.508243
0.523402
0.538952
0.554905
0.571271
0.58806
0.605286
0.622963
0.641104
0.659725
0.678844
0.698477
0.718644
0.739363
0.760653
0.782533
0.805025
0.828145
0.851915
0.876353
0.901476
0.927304
0.953852
0.981137
1.00917
1.03798
1.06756
1.09792
1.12909
1.16105
1.19382
1.2274
1.26178
1.29695
1.33292
1.36966
1.40716
1.44539
1.48434
1.52398
1.56428
1.60521
1.64673
1.68881
1.7314
1.77447
1.81798
1.86188
1.90613
1.95069
1.99553
2.04059
2.08584
2.13123
2.1767
2.22221
2.26773
2.31321
2.35863
2.40398
2.44922
2.49434
2.53932
2.58415
2.62883
2.67333
2.71764
2.76173
2.80533
2.8485
2.8912
2.93342
2.97512
3.01625
3.05677
3.09664
3.13582
3.17428
3.21197
3.24887
3.28494
3.32015
3.35446
3.38783
3.42023
3.45161
3.48195
3.51121
3.53935
3.56636
3.59222
3.61692
3.64044
3.66278
3.68392
3.70385
3.72255
3.74
3.75619
3.77112
3.78478
3.79718
3.80831
3.81819
3.82682
3.83417
3.84025
3.84506
3.84859
3.85084
3.8518
3.85145
3.84977
3.84676
3.84238
3.83662
3.82947
3.8209
3.81093
3.79956
3.78685
3.77286
3.75765
3.74124
3.72356
3.70445
3.68387
3.66214
3.63985
3.61755
3.59553
3.57386
3.55264
3.53202
3.512
3.49224
3.4723
3.45179
3.4304
3.40793
3.38426
3.35937
3.33326
3.30599
3.27764
3.24834
3.21825
3.18757
3.15658
3.12566
3.09528
3.0661
3.03827
3.01215
0.321089
0.289947
0.27911
0.274791
0.274465
0.276795
0.280979
0.286524
0.293116
0.300544
0.30866
0.317356
0.326551
0.336185
0.346216
0.356615
0.367365
0.378457
0.38989
0.401668
0.413796
0.426283
0.439141
0.452379
0.466008
0.480042
0.49449
0.509365
0.524681
0.540451
0.55669
0.573411
0.590633
0.608372
0.626647
0.645477
0.664883
0.684886
0.705509
0.726773
0.748702
0.771319
0.794645
0.818704
0.843517
0.869106
0.895491
0.922692
0.950728
0.979618
1.00938
1.04002
1.07156
1.10401
1.13738
1.17168
1.2069
1.24305
1.28013
1.31813
1.35704
1.39684
1.43752
1.47904
1.52139
1.56454
1.60846
1.65311
1.69845
1.74444
1.79103
1.83819
1.88585
1.93399
1.98254
2.03147
2.08071
2.13022
2.17995
2.22984
2.27981
2.32983
2.37983
2.42977
2.47964
2.5294
2.57903
2.62851
2.67782
2.72696
2.7759
2.82463
2.87315
2.92114
2.96862
3.01559
3.06203
3.1079
3.15314
3.1977
3.24154
3.28461
3.32686
3.36826
3.40876
3.44833
3.48694
3.52455
3.56112
3.59661
3.63099
3.66421
3.69622
3.72699
3.75647
3.78466
3.81153
3.83708
3.86129
3.88415
3.90567
3.92581
3.94459
3.96196
3.9779
3.99241
4.00552
4.01721
4.02751
4.03642
4.04396
4.0501
4.05485
4.05823
4.06024
4.0609
4.06019
4.05812
4.0547
4.04991
4.04377
4.03626
4.02738
4.01715
4.00558
3.99269
3.97854
3.96319
3.94668
3.92902
3.9101
3.88979
3.86799
3.84489
3.82089
3.79638
3.77163
3.74678
3.72197
3.69742
3.67322
3.64922
3.62512
3.6006
3.57542
3.54939
3.52241
3.49444
3.46548
3.43557
3.40478
3.37323
3.34106
3.30846
3.27567
3.24303
3.21095
3.17994
3.15002
3.12139
0.330474
0.292061
0.278751
0.273261
0.272281
0.274133
0.277871
0.282942
0.289014
0.295881
0.303402
0.311484
0.320056
0.329071
0.338495
0.348305
0.358488
0.36904
0.37996
0.391255
0.402931
0.414999
0.427471
0.440358
0.453674
0.467433
0.481649
0.496338
0.511514
0.527195
0.543398
0.560142
0.577447
0.595332
0.613821
0.632935
0.652699
0.673137
0.694275
0.71614
0.738756
0.762151
0.786351
0.811381
0.837266
0.864031
0.8917
0.920295
0.949839
0.980352
1.01185
1.04436
1.07788
1.11244
1.14804
1.18469
1.2224
1.26116
1.30098
1.34184
1.38374
1.42665
1.47055
1.51542
1.56122
1.60792
1.65551
1.70393
1.75314
1.8031
1.85376
1.90507
1.95698
2.00944
2.06238
2.11576
2.16951
2.22358
2.27789
2.33237
2.38695
2.44155
2.49611
2.55059
2.60496
2.65919
2.71326
2.76715
2.82083
2.8743
2.92753
2.98054
3.03295
3.0848
3.13607
3.18677
3.23684
3.28624
3.33489
3.38273
3.42971
3.47577
3.52089
3.565
3.60808
3.65007
3.69096
3.7307
3.76925
3.80658
3.84265
3.87742
3.91083
3.9428
3.97333
4.00239
4.02998
4.05608
4.08068
4.10378
4.12537
4.14546
4.16405
4.18107
4.19649
4.21034
4.22263
4.23338
4.24261
4.25031
4.25653
4.26124
4.26447
4.26624
4.26655
4.26542
4.26286
4.25889
4.25351
4.24675
4.2386
4.22909
4.21823
4.20603
4.19252
4.17775
4.16176
4.1446
4.12632
4.1069
4.08627
4.06429
4.04088
4.01612
3.99026
3.9636
3.93636
3.90868
3.88075
3.8528
3.82496
3.7972
3.76935
3.74118
3.7125
3.68316
3.65307
3.62219
3.59051
3.55807
3.52492
3.49117
3.45693
3.42239
3.38775
3.35333
3.31947
3.28656
3.25452
3.22345
0.340174
0.293792
0.277874
0.27122
0.26962
0.271022
0.274333
0.278945
0.284514
0.290837
0.297787
0.305282
0.313267
0.321702
0.330564
0.339835
0.349506
0.359575
0.370044
0.380919
0.392208
0.403922
0.416073
0.428676
0.441743
0.455292
0.469338
0.483899
0.498994
0.514643
0.530866
0.547685
0.565122
0.583202
0.601949
0.62139
0.641552
0.662463
0.684152
0.706649
0.729984
0.754187
0.779289
0.80532
0.832308
0.860284
0.889274
0.919305
0.950404
0.982594
1.0159
1.05033
1.08591
1.12266
1.16058
1.19968
1.23998
1.28146
1.32413
1.36798
1.41299
1.45913
1.50638
1.55469
1.60405
1.65442
1.70576
1.75804
1.8112
1.86521
1.92001
1.97555
2.03178
2.08863
2.14605
2.20397
2.26231
2.321
2.37996
2.43911
2.49833
2.55754
2.61669
2.67572
2.7346
2.7933
2.85178
2.91005
2.96807
3.02583
3.08329
3.14008
3.19622
3.25171
3.30655
3.36071
3.41414
3.46679
3.51853
3.5693
3.61905
3.66773
3.7153
3.76171
3.80693
3.8509
3.89361
3.93502
3.97508
4.01377
4.05104
4.08689
4.12124
4.15395
4.18503
4.21449
4.24231
4.26849
4.29302
4.3159
4.33712
4.35669
4.3746
4.39082
4.40534
4.41816
4.4293
4.43878
4.4466
4.4528
4.45739
4.4604
4.46183
4.46171
4.46006
4.4569
4.45224
4.44612
4.43856
4.42957
4.41918
4.40741
4.3943
4.37987
4.36415
4.34719
4.32905
4.30976
4.28936
4.26784
4.24516
4.22121
4.19591
4.16929
4.14151
4.11276
4.08323
4.05306
4.02242
3.99154
3.96057
3.92954
3.89837
3.86694
3.83511
3.80276
3.76983
3.73629
3.70212
3.66734
3.63201
3.5962
3.56002
3.52364
3.48724
3.4511
3.41551
3.38078
3.34672
3.31342
0.350227
0.295215
0.276572
0.268761
0.266557
0.267516
0.270398
0.274549
0.279614
0.2854
0.291792
0.298723
0.306149
0.314043
0.322386
0.331166
0.340377
0.350017
0.36009
0.370601
0.381558
0.392974
0.404859
0.41723
0.4301
0.443488
0.457412
0.471894
0.486954
0.502617
0.518906
0.535847
0.553466
0.57179
0.590849
0.610671
0.631289
0.652733
0.675036
0.698233
0.722357
0.747445
0.773531
0.800652
0.828842
0.858136
0.888568
0.920169
0.952967
0.98699
1.02226
1.05881
1.09664
1.13579
1.17624
1.21803
1.26113
1.30557
1.35134
1.39842
1.44679
1.4964
1.54723
1.59921
1.65232
1.70651
1.76176
1.81802
1.87525
1.93339
1.9924
2.05223
2.11283
2.17413
2.23607
2.29856
2.36151
2.42485
2.48847
2.55224
2.61605
2.67982
2.74348
2.80697
2.87026
2.93332
2.99611
3.0586
3.12083
3.18257
3.24357
3.30381
3.36331
3.42204
3.47999
3.53712
3.59339
3.64881
3.70309
3.75619
3.80809
3.85876
3.90814
3.9562
4.00288
4.04817
4.09201
4.1344
4.17529
4.21463
4.2524
4.28855
4.32303
4.35578
4.38677
4.41599
4.44342
4.46907
4.49293
4.51501
4.53531
4.55382
4.57054
4.58546
4.59857
4.60988
4.6194
4.62715
4.63316
4.63745
4.64004
4.64097
4.64025
4.63791
4.63398
4.62849
4.62146
4.61292
4.6029
4.59143
4.57856
4.56431
4.54872
4.53182
4.51366
4.49429
4.47376
4.45211
4.42936
4.40554
4.3806
4.35449
4.32714
4.29856
4.26882
4.23807
4.20644
4.17405
4.14107
4.10769
4.07405
4.04022
4.0062
3.97193
3.93733
3.90234
3.86691
3.83102
3.79464
3.7578
3.72053
3.68291
3.64501
3.60699
3.56902
3.53134
3.49418
3.45782
3.42199
3.38674
0.360753
0.296455
0.274983
0.266018
0.263208
0.263709
0.26614
0.269807
0.274356
0.279603
0.285449
0.291839
0.298742
0.306137
0.31401
0.322353
0.33116
0.340431
0.350166
0.360372
0.371057
0.382232
0.393911
0.406109
0.418843
0.432132
0.445995
0.460458
0.475549
0.491295
0.507726
0.524872
0.542763
0.561433
0.580915
0.601244
0.622453
0.644579
0.667658
0.691729
0.716832
0.743008
0.770298
0.798743
0.828388
0.859276
0.891446
0.924933
0.959765
0.995973
1.03359
1.07263
1.11312
1.15507
1.19849
1.24339
1.28976
1.33759
1.38688
1.43763
1.4898
1.5433
1.59807
1.65407
1.71123
1.76951
1.82887
1.88925
1.95064
2.01299
2.07625
2.1404
2.20536
2.27109
2.33748
2.40447
2.47193
2.53978
2.60792
2.67615
2.74432
2.81241
2.88036
2.94809
3.01555
3.08269
3.1495
3.2159
3.28156
3.34639
3.41035
3.47344
3.53562
3.59687
3.65716
3.71644
3.77466
3.83176
3.88761
3.94213
3.99529
4.04703
4.09732
4.14611
4.19336
4.23904
4.28312
4.32558
4.36639
4.4055
4.44288
4.47849
4.51229
4.54423
4.57429
4.60245
4.62871
4.65306
4.67552
4.69608
4.71475
4.73152
4.74641
4.7594
4.7705
4.77973
4.78708
4.79259
4.79628
4.79819
4.79834
4.79677
4.79351
4.78859
4.78204
4.7739
4.76419
4.75295
4.74022
4.72604
4.71046
4.69352
4.67525
4.65571
4.63494
4.613
4.58994
4.56579
4.54059
4.51435
4.48707
4.45873
4.42926
4.39868
4.36701
4.33435
4.30079
4.26644
4.23144
4.19593
4.16006
4.1239
4.08749
4.05082
4.0139
3.97668
3.93914
3.90126
3.86303
3.82446
3.78559
3.74644
3.70711
3.66773
3.62847
3.58952
3.55109
3.5134
3.47612
3.43929
0.371999
0.297697
0.273301
0.263171
0.259732
0.259734
0.26167
0.264818
0.268829
0.273534
0.27885
0.284733
0.291159
0.298112
0.30558
0.313556
0.322032
0.331007
0.340482
0.350461
0.360954
0.371971
0.383531
0.39565
0.40835
0.421654
0.435584
0.450161
0.465418
0.481398
0.498138
0.515675
0.534048
0.553297
0.573461
0.594581
0.616699
0.639853
0.664082
0.689432
0.715952
0.743693
0.772701
0.803009
0.834672
0.86775
0.902294
0.938338
0.975886
1.01497
1.05563
1.09789
1.14177
1.18728
1.23442
1.28318
1.33354
1.38548
1.43898
1.49403
1.55067
1.60862
1.66781
1.72822
1.7898
1.85249
1.91619
1.98083
2.04645
2.11302
2.18053
2.2489
2.31808
2.38798
2.45854
2.52963
2.60114
2.67292
2.74483
2.81676
2.88875
2.96069
3.03243
3.10384
3.1749
3.24551
3.31534
3.38422
3.45214
3.51907
3.58498
3.64981
3.71355
3.77616
3.8376
3.89782
3.95676
4.01435
4.07051
4.12518
4.17831
4.22986
4.2798
4.32807
4.37466
4.41954
4.46267
4.50404
4.54362
4.58137
4.61726
4.65125
4.68331
4.71341
4.74154
4.76768
4.79183
4.81399
4.83418
4.85239
4.86865
4.88294
4.89528
4.90566
4.91411
4.92062
4.92523
4.92796
4.92884
4.9279
4.92519
4.92074
4.91458
4.90676
4.8973
4.88624
4.87363
4.85949
4.84389
4.82687
4.80847
4.78875
4.76775
4.74552
4.72211
4.69759
4.672
4.64538
4.61774
4.58911
4.55953
4.52898
4.49744
4.46489
4.43137
4.39691
4.3616
4.32552
4.28877
4.2515
4.21382
4.17579
4.13747
4.09892
4.06015
4.02117
3.98196
3.94251
3.90283
3.86293
3.82281
3.78252
3.74212
3.70174
3.66154
3.62169
3.58234
3.54369
3.50538
3.46741
0.384898
0.299269
0.27173
0.260371
0.256231
0.255646
0.257001
0.259564
0.262999
0.267154
0.271959
0.277376
0.283385
0.289971
0.297119
0.304821
0.313068
0.321858
0.331191
0.341072
0.351512
0.362526
0.374137
0.386372
0.39926
0.412832
0.427121
0.442159
0.457972
0.474588
0.492061
0.510455
0.529821
0.550211
0.571674
0.594262
0.618027
0.643018
0.669254
0.696796
0.725727
0.756142
0.78799
0.821227
0.855978
0.892336
0.930408
0.97024
1.01166
1.05476
1.09958
1.14616
1.19451
1.24463
1.29652
1.35014
1.40545
1.4624
1.52089
1.58079
1.6421
1.70475
1.76864
1.83372
1.89991
1.96713
2.03523
2.10411
2.17394
2.24466
2.31621
2.38852
2.46153
2.53514
2.60924
2.68374
2.75851
2.83343
2.90847
2.9836
3.05875
3.13369
3.20829
3.2822
3.35514
3.42698
3.49774
3.56738
3.63589
3.70321
3.76932
3.83416
3.8977
3.9599
4.02071
4.08009
4.13798
4.1943
4.24902
4.30209
4.35347
4.40314
4.45107
4.49722
4.54157
4.5841
4.62478
4.6636
4.70052
4.73552
4.76856
4.79962
4.82867
4.8557
4.88072
4.9037
4.92466
4.9436
4.96053
4.97546
4.98841
4.99938
5.00837
5.01539
5.02047
5.02362
5.02487
5.02424
5.02178
5.01753
5.01153
5.00382
4.99443
4.9834
4.97077
4.95659
4.94089
4.92373
4.90515
4.88522
4.86397
4.84148
4.81778
4.79293
4.76698
4.73998
4.712
4.68307
4.65322
4.6225
4.59092
4.55848
4.52518
4.49101
4.45598
4.42013
4.38351
4.34619
4.30824
4.26978
4.2309
4.1916
4.15196
4.11208
4.07201
4.03178
3.99139
3.95084
3.91015
3.86933
3.82841
3.7874
3.74638
3.70545
3.66475
3.62442
3.5846
3.54543
3.50656
3.46794
0.39891
0.301439
0.270859
0.258279
0.25336
0.25209
0.252789
0.254733
0.257607
0.261273
0.265662
0.27074
0.276481
0.282866
0.289876
0.2975
0.305733
0.314575
0.324031
0.334113
0.344837
0.356229
0.368322
0.381154
0.394776
0.409238
0.424583
0.440857
0.458124
0.476456
0.49576
0.516008
0.537425
0.560095
0.584073
0.609424
0.636234
0.664634
0.694415
0.725694
0.758547
0.793021
0.8291
0.866825
0.90625
0.947432
0.990417
1.03522
1.08181
1.1302
1.18039
1.23239
1.28619
1.34179
1.39917
1.45827
1.51904
1.58135
1.64503
1.70989
1.77604
1.8433
1.91149
1.98064
2.05075
2.12176
2.19364
2.26641
2.33998
2.41426
2.48918
2.56465
2.64056
2.71683
2.79333
2.86995
2.94655
3.02301
3.09929
3.17562
3.2515
3.32644
3.40009
3.47259
3.54393
3.61407
3.683
3.75069
3.8171
3.8822
3.94595
4.00829
4.06916
4.12853
4.18634
4.24254
4.2971
4.34997
4.40112
4.45055
4.49823
4.54415
4.58828
4.63061
4.6711
4.70972
4.74645
4.78127