/*--------------------------------*- C++ -*----------------------------------*\
| =========                 |                                                 |
| \\      /  F ield         | OpenFOAM: The Open Source CFD Toolbox           |
|  \\    /   O peration     | Version:  2112                                  |
|   \\  /    A nd           | Website:  www.openfoam.com                      |
|    \\/     M anipulation  |                                                 |
\*---------------------------------------------------------------------------*/
FoamFile
{
    version     2.0;
    format      ascii;
    arch        "LSB;label=32;scalar=64";
    class       volScalarField;
    location    "0.21";
    object      p;
}
// * * * * * * * * * * * * * * * * * * * * * * * * * * * * * * * * * * * * * //

dimensions      [0 2 -2 0 0 0 0];

internalField   nonuniform List<scalar> 
12225
(
0.863535
-0.0189609
-0.460285
-0.717717
-1.00406
-1.28616
-1.50651
-1.66448
-1.7874
-1.91566
-2.0621
-2.2273
-2.40522
-2.58493
-2.7583
-2.89051
-3.02933
-2.51917
0.561247
-0.0356694
-0.387775
-0.594119
-0.818844
-1.04264
-1.21967
-1.35449
-1.48081
-1.61817
-1.77772
-1.95797
-2.15064
-2.34413
-2.53246
-2.69835
-2.89507
-3.18705
0.315561
-0.0560506
-0.401212
-0.638906
-0.876104
-1.11096
-1.3065
-1.4617
-1.59812
-1.73159
-1.87517
-2.03157
-2.19695
-2.36442
-2.53105
-2.69212
-2.90362
-3.2419
0.111025
-0.125931
-0.448479
-0.68315
-0.903535
-1.12116
-1.30745
-1.45925
-1.59445
-1.72937
-1.87549
-2.03513
-2.2047
-2.37844
-2.5546
-2.7356
-2.95894
-3.26672
-0.0758107
-0.238768
-0.516037
-0.73179
-0.934722
-1.13757
-1.31741
-1.47014
-1.60991
-1.75006
-1.89893
-2.05839
-2.22615
-2.39867
-2.57632
-2.76405
-2.98523
-3.26227
-0.231295
-0.354975
-0.595417
-0.794818
-0.983334
-1.17304
-1.34603
-1.49818
-1.64017
-1.78213
-1.93038
-2.087
-2.25105
-2.42086
-2.59767
-2.78611
-3.00016
-3.25047
-0.367926
-0.452359
-0.669302
-0.861815
-1.04069
-1.2196
-1.38485
-1.53454
-1.67711
-1.82
-1.96796
-2.12297
-2.28479
-2.45275
-2.62818
-2.81472
-3.02006
-3.2476
-0.495212
-0.542162
-0.731605
-0.917026
-1.09219
-1.26544
-1.42611
-1.57539
-1.71918
-1.8632
-2.01138
-2.16543
-2.32549
-2.49131
-2.66409
-2.84598
-3.04047
-3.2464
-0.613517
-0.634778
-0.792827
-0.963633
-1.13162
-1.29929
-1.45907
-1.61045
-1.75643
-1.90195
-2.05049
-2.20344
-2.36119
-2.52364
-2.69142
-2.86519
-3.04622
-3.23157
-0.722668
-0.728029
-0.858692
-1.01206
-1.16762
-1.32608
-1.48166
-1.63125
-1.77715
-1.92307
-2.07102
-2.22184
-2.37593
-2.53335
-2.69416
-2.85862
-3.02678
-3.19509
-0.823169
-0.81986
-0.926833
-1.0637
-1.20716
-1.35512
-1.50244
-1.64648
-1.78936
-1.9332
-2.07876
-2.2264
-2.37626
-2.52828
-2.68231
-2.83844
-2.99576
-3.15043
-0.905853
-0.902636
-0.989761
-1.11186
-1.24535
-1.38466
-1.52474
-1.66352
-1.80237
-1.94268
-2.08486
-2.22896
-2.37475
-2.52191
-2.67001
-2.81857
-2.96629
-3.10953
-0.975955
-0.978908
-1.05074
-1.15883
-1.28298
-1.41456
-1.54834
-1.68233
-1.81709
-1.95347
-2.09167
-2.23151
-2.37257
-2.5143
-2.65601
-2.79682
-2.93531
-3.06826
-1.04628
-1.05371
-1.11588
-1.21059
-1.32467
-1.44803
-1.57501
-1.70359
-1.83365
-1.9654
-2.09871
-2.23319
-2.36828
-2.50328
-2.63736
-2.76945
-2.89819
-3.0209
-1.11755
-1.12552
-1.1799
-1.26433
-1.3686
-1.48367
-1.60349
-1.72594
-1.85051
-1.97684
-2.10441
-2.23262
-2.36078
-2.48811
-2.61371
-2.73651
-2.8553
-2.96802
-1.18483
-1.19262
-1.23865
-1.31479
-1.41044
-1.51808
-1.63101
-1.74698
-1.86538
-1.98551
-2.10656
-2.22772
-2.34823
-2.46726
-2.58391
-2.69725
-2.8063
-2.90957
-1.2411
-1.24882
-1.28765
-1.3557
-1.44422
-1.54558
-1.65248
-1.76223
-1.87422
-1.98769
-2.10168
-2.2153
-2.32775
-2.43823
-2.54596
-2.65016
-2.75011
-2.8448
-1.27569
-1.28326
-1.31796
-1.37957
-1.4622
-1.55832
-1.66042
-1.76486
-1.8709
-1.97788
-2.08488
-2.19101
-2.29552
-2.39775
-2.49705
-2.59283
-2.6846
-2.77173
-1.27203
-1.27942
-1.31283
-1.3722
-1.45209
-1.54521
-1.64411
-1.74473
-1.84614
-1.94771
-2.04861
-2.14808
-2.24555
-2.34055
-2.43261
-2.52136
-2.60649
-2.68764
-1.21918
-1.22674
-1.26319
-1.32677
-1.40941
-1.50393
-1.60311
-1.70333
-1.80341
-1.90259
-2.00017
-2.09572
-2.18886
-2.27927
-2.36669
-2.45086
-2.53163
-2.60878
-1.14496
-1.1527
-1.19513
-1.26539
-1.35322
-1.45177
-1.55408
-1.65689
-1.75864
-1.85822
-1.95507
-2.04928
-2.14073
-2.22911
-2.31429
-2.39622
-2.47488
-2.55017
-1.05333
-1.06092
-1.11111
-1.19067
-1.28731
-1.393
-1.50169
-1.6102
-1.7165
-1.81891
-1.91668
-2.01013
-2.09983
-2.18593
-2.26852
-2.3478
-2.42394
-2.49696
-0.947115
-0.952138
-1.01516
-1.11096
-1.22025
-1.3361
-1.45321
-1.56725
-1.67636
-1.77937
-1.87618
-1.96752
-2.05399
-2.13579
-2.21358
-2.28818
-2.36006
-2.42938
-0.82209
-0.829743
-0.917384
-1.0321
-1.15161
-1.27527
-1.39906
-1.51745
-1.62808
-1.73025
-1.82461
-1.91237
-1.99435
-2.07154
-2.1452
-2.2165
-2.28608
-2.35437
-0.67881
-0.701884
-0.817296
-0.94498
-1.06992
-1.20003
-1.3311
-1.45617
-1.57166
-1.67658
-1.77152
-1.85803
-1.93764
-2.01197
-2.08272
-2.15136
-2.21879
-2.28515
-0.520101
-0.561112
-0.706423
-0.84769
-0.980325
-1.12136
-1.26415
-1.39894
-1.52162
-1.63127
-1.72849
-1.81512
-1.8938
-1.96733
-2.03817
-2.10825
-2.17882
-2.25131
-0.333435
-0.408356
-0.598482
-0.758835
-0.905678
-1.0631
-1.22041
-1.36506
-1.49301
-1.60362
-1.69752
-1.77717
-1.84639
-1.90912
-1.96933
-2.03067
-2.09501
-2.16198
-0.113881
-0.295951
-0.522264
-0.685758
-0.846617
-1.02583
-1.20394
-1.36678
-1.51094
-1.63572
-1.74135
-1.83052
-1.9075
-1.97528
-2.0372
-2.09768
-2.16067
-2.2309
0.157965
-0.254218
-0.51026
-0.642437
-0.787505
-0.95952
-1.12745
-1.27583
-1.40226
-1.50633
-1.58905
-1.65522
-1.71345
-1.76961
-1.82684
-1.88897
-1.95773
-2.03301
0.503444
-0.176884
-0.516102
-0.675573
-0.859623
-1.07904
-1.29418
-1.48719
-1.65446
-1.79392
-1.90501
-1.99114
-2.05752
-2.11352
-2.16845
-2.22534
-2.28648
-2.34583
-4.72938
-4.74655
-4.75204
-4.75418
-4.75664
-4.75951
-4.76249
-4.76565
-4.76916
-4.77318
-4.77719
-4.78034
-4.78295
-4.78587
-4.78922
-4.79295
-4.79704
-4.8015
-4.80637
-4.81166
-4.81739
-4.82356
-4.8302
-4.83731
-4.8449
-4.85298
-4.86156
-4.87064
-4.88023
-4.89034
-4.90096
-4.9121
-4.92376
-4.93593
-4.94861
-4.96178
-4.97545
-4.9896
-5.00421
-5.01926
-5.03472
-5.05057
-5.06677
-5.08328
-5.10007
-5.11707
-5.13424
-5.15152
-5.16883
-5.18612
-5.20329
-5.22026
-5.23695
-5.25326
-5.26909
-5.28432
-5.29885
-5.31256
-5.32533
-5.33704
-5.34755
-5.35674
-5.36446
-5.37059
-5.37498
-5.37749
-5.37798
-5.3763
-5.37232
-5.36588
-5.35685
-5.34507
-5.33041
-5.31273
-5.29187
-5.26771
-5.24011
-5.20893
-5.17405
-5.13535
-5.09269
-5.04597
-4.99507
-4.93989
-4.8803
-4.81622
-4.74753
-4.67414
-4.59594
-4.51286
-4.42479
-4.33165
-4.23335
-4.12982
-4.02098
-3.90678
-3.78723
-3.6624
-3.53215
-3.39624
-3.25458
-3.10728
-2.95433
-2.79574
-2.63153
-2.46171
-2.2863
-2.10534
-1.91889
-1.72701
-1.52976
-1.32723
-1.11952
-0.906738
-0.688998
-0.466432
-0.23918
-0.00739418
0.228764
0.469121
0.713495
0.96169
1.2135
1.46872
1.72713
1.98848
2.25256
2.5191
2.78785
3.05857
3.33097
3.6048
3.87977
4.1556
4.43203
4.70876
4.98551
5.262
5.53795
5.81307
6.0871
6.35973
6.63069
6.89966
7.16631
7.43023
7.69094
7.94773
8.19974
8.44636
8.68622
8.90668
9.09861
9.28742
9.49366
9.70757
9.92488
10.1554
10.4044
10.6346
10.8345
11.0268
11.2136
11.3945
11.5695
11.7389
11.9029
12.0616
12.215
12.3633
12.5065
12.6446
12.7778
12.906
13.0294
13.1481
13.2628
13.3727
13.4942
13.5998
-4.69966
-4.72274
-4.72716
-4.72717
-4.7278
-4.72895
-4.73017
-4.73139
-4.73262
-4.73377
-4.73479
-4.73618
-4.73843
-4.74141
-4.74489
-4.74875
-4.75299
-4.7576
-4.76258
-4.76796
-4.77373
-4.7799
-4.78648
-4.79349
-4.80092
-4.8088
-4.81712
-4.82591
-4.83517
-4.84491
-4.85514
-4.86586
-4.87708
-4.88879
-4.901
-4.91371
-4.9269
-4.94058
-4.95472
-4.96932
-4.98435
-4.99979
-5.0156
-5.03176
-5.04823
-5.06495
-5.08188
-5.09897
-5.11614
-5.13333
-5.15047
-5.16747
-5.18424
-5.20069
-5.21672
-5.23222
-5.24709
-5.26119
-5.27442
-5.28664
-5.29773
-5.30755
-5.31597
-5.32284
-5.32803
-5.33139
-5.33279
-5.33206
-5.32908
-5.3237
-5.31576
-5.30513
-5.29166
-5.27521
-5.25563
-5.23279
-5.20654
-5.17675
-5.1433
-5.10605
-5.06488
-5.01967
-4.97031
-4.9167
-4.85871
-4.79626
-4.72923
-4.65755
-4.5811
-4.4998
-4.41357
-4.32232
-4.22596
-4.12444
-4.01767
-3.9056
-3.78814
-3.66519
-3.53673
-3.40282
-3.26346
-3.11857
-2.96811
-2.81208
-2.65049
-2.48334
-2.31068
-2.13253
-1.94895
-1.76
-1.56575
-1.36629
-1.16172
-0.952146
-0.737696
-0.5185
-0.294704
-0.0664628
0.166056
0.402673
0.643199
0.887435
1.13517
1.38618
1.64023
1.89709
2.15651
2.41822
2.68196
2.94747
3.21445
3.48264
3.75174
4.02145
4.2915
4.56158
4.8314
5.10068
5.36913
5.63648
5.90244
6.16674
6.4291
6.68924
6.94685
7.20159
7.45308
7.7009
7.94458
8.18417
8.42276
8.66637
8.90908
9.13797
9.35571
9.5727
9.78924
10.0027
10.2019
10.3976
10.6015
10.8053
11.0039
11.1965
11.3831
11.5637
11.7384
11.9072
12.0701
12.2274
12.379
12.5251
12.6657
12.8011
12.9316
13.0574
13.1807
13.3002
13.4394
13.5464
-4.69682
-4.72913
-4.73654
-4.73632
-4.73688
-4.73822
-4.73965
-4.74107
-4.74254
-4.74407
-4.74566
-4.7474
-4.74947
-4.75193
-4.7548
-4.75806
-4.76174
-4.76583
-4.77034
-4.77527
-4.78063
-4.78643
-4.79267
-4.79937
-4.80651
-4.81413
-4.82221
-4.83078
-4.83984
-4.84938
-4.85943
-4.86998
-4.88104
-4.8926
-4.90467
-4.91724
-4.93031
-4.94386
-4.95788
-4.97236
-4.98728
-5.00261
-5.01831
-5.03436
-5.05072
-5.06734
-5.08417
-5.10114
-5.11821
-5.13529
-5.15231
-5.1692
-5.18585
-5.20219
-5.21809
-5.23347
-5.2482
-5.26218
-5.27527
-5.28736
-5.29831
-5.30799
-5.31627
-5.32301
-5.32807
-5.3313
-5.33257
-5.33174
-5.32865
-5.32317
-5.31515
-5.30445
-5.29093
-5.27444
-5.25484
-5.23199
-5.20576
-5.17601
-5.14261
-5.10543
-5.06436
-5.01928
-4.97008
-4.91664
-4.85887
-4.79666
-4.72992
-4.65855
-4.58245
-4.50155
-4.41574
-4.32495
-4.2291
-4.12811
-4.02191
-3.91045
-3.79363
-3.67142
-3.54375
-3.41064
-3.27207
-3.128
-2.9784
-2.82327
-2.66262
-2.49644
-2.32478
-2.14767
-1.96516
-1.77731
-1.5842
-1.38591
-1.18253
-0.974194
-0.761004
-0.5431
-0.320624
-0.0937327
0.137407
0.372618
0.611711
0.854486
1.10073
1.35023
1.60275
1.85805
2.11589
2.376
2.63813
2.902
3.16733
3.43386
3.7013
3.96936
4.23775
4.5062
4.77441
5.04213
5.30907
5.57498
5.83962
6.10273
6.3641
6.62351
6.88074
7.13561
7.388
7.63786
7.88536
8.13122
8.37834
8.63089
8.88092
9.1146
9.33594
9.55339
9.76771
9.97578
10.1682
10.3534
10.5472
10.7434
10.9373
11.1273
11.3128
11.4934
11.6688
11.8389
12.0036
12.1628
12.3165
12.4648
12.6079
12.7458
12.8789
13.0076
13.1342
13.2569
13.3989
13.4959
-4.69247
-4.72918
-4.73875
-4.73802
-4.73811
-4.73926
-4.74057
-4.74189
-4.74329
-4.74483
-4.74654
-4.74849
-4.75074
-4.75334
-4.7563
-4.75966
-4.76341
-4.76757
-4.77215
-4.77715
-4.78258
-4.78844
-4.79475
-4.80151
-4.80873
-4.81642
-4.82459
-4.83324
-4.84237
-4.85201
-4.86215
-4.8728
-4.88395
-4.89561
-4.90778
-4.92046
-4.93363
-4.94729
-4.96142
-4.97601
-4.99103
-5.00647
-5.02228
-5.03843
-5.05488
-5.0716
-5.08851
-5.10557
-5.12271
-5.13986
-5.15695
-5.17388
-5.19058
-5.20694
-5.22287
-5.23825
-5.25298
-5.26693
-5.27999
-5.29204
-5.30293
-5.31255
-5.32076
-5.32741
-5.33238
-5.33552
-5.3367
-5.33577
-5.3326
-5.32703
-5.31893
-5.30817
-5.29458
-5.27805
-5.25841
-5.23554
-5.20931
-5.17957
-5.14619
-5.10907
-5.06806
-5.02307
-4.97398
-4.92069
-4.86309
-4.80109
-4.73458
-4.66348
-4.58769
-4.50712
-4.42169
-4.3313
-4.23588
-4.13535
-4.02963
-3.91866
-3.8024
-3.68073
-3.55367
-3.42119
-3.28324
-3.13979
-2.99083
-2.83634
-2.67632
-2.5108
-2.33978
-2.16331
-1.98143
-1.7942
-1.6017
-1.404
-1.2012
-0.993409
-0.780741
-0.563326
-0.341304
-0.114825
0.115948
0.350843
0.589677
0.832256
1.07838
1.32782
1.58037
1.83579
2.09384
2.35427
2.61683
2.88125
3.14728
3.41463
3.68303
3.95221
4.22188
4.49176
4.76159
5.03107
5.29995
5.56794
5.83479
6.10025
6.36407
6.626
6.88582
7.14333
7.39838
7.65093
7.90109
8.14931
8.39681
8.64467
8.88766
9.11874
9.34075
9.55806
9.77095
9.97787
10.174
10.3631
10.5546
10.7462
10.9355
11.1213
11.303
11.4801
11.6525
11.82
11.9824
12.1397
12.2919
12.4391
12.5812
12.7184
12.8511
12.9795
13.1058
13.227
13.3638
13.4505
-4.69204
-4.72945
-4.7411
-4.7409
-4.74119
-4.74251
-4.74395
-4.74533
-4.74676
-4.74832
-4.75006
-4.75204
-4.75432
-4.75693
-4.75989
-4.76324
-4.76699
-4.77114
-4.77571
-4.78071
-4.78614
-4.79201
-4.79833
-4.80511
-4.81236
-4.82008
-4.82828
-4.83697
-4.84616
-4.85585
-4.86605
-4.87676
-4.88798
-4.89971
-4.91196
-4.92471
-4.93796
-4.9517
-4.96592
-4.98059
-4.99569
-5.0112
-5.02709
-5.04332
-5.05984
-5.07662
-5.09359
-5.11071
-5.12789
-5.14508
-5.16219
-5.17913
-5.19583
-5.21218
-5.22809
-5.24343
-5.25811
-5.272
-5.28499
-5.29695
-5.30775
-5.31726
-5.32535
-5.33189
-5.33673
-5.33975
-5.34081
-5.33976
-5.33648
-5.33082
-5.32264
-5.3118
-5.29817
-5.2816
-5.26195
-5.23909
-5.21288
-5.18319
-5.14988
-5.11285
-5.07196
-5.02711
-4.9782
-4.92511
-4.86775
-4.80602
-4.73982
-4.66906
-4.59366
-4.51351
-4.42853
-4.33863
-4.24372
-4.14373
-4.03857
-3.92818
-3.81252
-3.69151
-3.5651
-3.43326
-3.29596
-3.15316
-3.00484
-2.85099
-2.69162
-2.52672
-2.35632
-2.18045
-1.99916
-1.8125
-1.62054
-1.42336
-1.22105
-1.01371
-0.801462
-0.584426
-0.362738
-0.136545
0.0939963
0.328717
0.56744
0.809976
1.05613
1.30568
1.55842
1.81412
2.07255
2.33345
2.59659
2.8617
3.12853
3.39681
3.66626
3.93661
4.20758
4.47889
4.75025
5.02138
5.29201
5.56184
5.83059
6.09799
6.36376
6.62764
6.88936
7.1487
7.40546
7.65954
7.91093
8.15977
8.40639
8.65069
8.8895
9.11923
9.34151
9.55864
9.77066
9.97674
10.1745
10.3662
10.5572
10.7466
10.9331
11.116
11.2948
11.4693
11.6391
11.8042
11.9645
12.12
12.2706
12.4163
12.5572
12.6935
12.8253
12.9529
13.078
13.197
13.3287
13.4055
-4.69375
-4.73031
-4.74332
-4.74406
-4.74492
-4.74665
-4.74837
-4.74995
-4.75151
-4.75317
-4.75499
-4.75705
-4.75939
-4.76205
-4.76507
-4.76846
-4.77225
-4.77644
-4.78105
-4.78609
-4.79157
-4.79749
-4.80386
-4.8107
-4.818
-4.82579
-4.83406
-4.84282
-4.85209
-4.86186
-4.87214
-4.88294
-4.89426
-4.90609
-4.91843
-4.93128
-4.94463
-4.95847
-4.97278
-4.98755
-5.00274
-5.01834
-5.03431
-5.05062
-5.06721
-5.08405
-5.10108
-5.11823
-5.13545
-5.15265
-5.16977
-5.18672
-5.2034
-5.21971
-5.23557
-5.25085
-5.26545
-5.27926
-5.29214
-5.30398
-5.31465
-5.32402
-5.33197
-5.33836
-5.34306
-5.34593
-5.34685
-5.34567
-5.34226
-5.33649
-5.32822
-5.31731
-5.30363
-5.28703
-5.26737
-5.24452
-5.21834
-5.1887
-5.15546
-5.11852
-5.07774
-5.03303
-4.98428
-4.93139
-4.87425
-4.81278
-4.74688
-4.67645
-4.6014
-4.52165
-4.43709
-4.34763
-4.2532
-4.1537
-4.04904
-3.93918
-3.82406
-3.70359
-3.57772
-3.44641
-3.30962
-3.16733
-3.01951
-2.86615
-2.70725
-2.54281
-2.37286
-2.19743
-2.01654
-1.83027
-1.63868
-1.44183
-1.23983
-1.03277
-0.820772
-0.603947
-0.382432
-0.156371
0.0740823
0.308763
0.547496
0.790096
1.03637
1.2861
1.53908
1.79509
2.05389
2.31524
2.5789
2.84462
3.11212
3.38115
3.65144
3.92269
4.19464
4.467
4.73947
5.01177
5.2836
5.55467
5.82467
6.09331
6.36032
6.62539
6.88826
7.14866
7.40642
7.66135
7.91336
8.16242
8.40845
8.65102
8.88802
9.11729
9.33973
9.55668
9.76813
9.97353
10.1717
10.3643
10.5547
10.7427
10.9274
11.1084
11.2852
11.4577
11.6257
11.789
11.9477
12.1017
12.251
12.3956
12.5355
12.6708
12.8017
12.9283
13.0521
13.1686
13.296
13.3631
-4.69756
-4.73263
-4.74638
-4.74813
-4.74973
-4.75196
-4.75404
-4.75588
-4.75763
-4.75941
-4.76134
-4.76348
-4.76589
-4.76862
-4.7717
-4.77515
-4.779
-4.78325
-4.78792
-4.79302
-4.79856
-4.80454
-4.81098
-4.81789
-4.82527
-4.83313
-4.84148
-4.85032
-4.85968
-4.86954
-4.87992
-4.89081
-4.90223
-4.91416
-4.92661
-4.93956
-4.95302
-4.96696
-4.98137
-4.99624
-5.01153
-5.02721
-5.04327
-5.05965
-5.07632
-5.09322
-5.1103
-5.12749
-5.14474
-5.16197
-5.1791
-5.19604
-5.21271
-5.229
-5.24481
-5.26004
-5.27458
-5.2883
-5.30109
-5.31282
-5.32338
-5.33264
-5.34046
-5.34672
-5.3513
-5.35405
-5.35485
-5.35356
-5.35006
-5.34422
-5.33589
-5.32495
-5.31124
-5.29465
-5.27501
-5.2522
-5.22607
-5.19649
-5.16333
-5.12648
-5.08581
-5.04122
-4.99262
-4.9399
-4.88297
-4.82173
-4.75608
-4.68593
-4.61119
-4.53177
-4.44756
-4.35848
-4.26443
-4.16532
-4.06107
-3.95162
-3.8369
-3.71682
-3.59133
-3.46037
-3.32393
-3.18196
-3.03445
-2.88139
-2.72277
-2.55859
-2.38888
-2.21367
-2.033
-1.84691
-1.65547
-1.45876
-1.25688
-1.04991
-0.837962
-0.621168
-0.399654
-0.173561
0.0569587
0.291743
0.530617
0.773397
1.01989
1.26989
1.52318
1.77955
2.03875
2.30056
2.56472
2.83098
3.09909
3.36877
3.63975
3.91176
4.18449
4.45767
4.73099
5.00416
5.27688
5.54884
5.81972
6.08924
6.35708
6.62296
6.88659
7.14771
7.40609
7.66157
7.91396
8.16309
8.40871
8.65025
8.8862
9.11516
9.33765
9.55447
9.76559
9.97063
10.169
10.3621
10.5522
10.7393
10.9228
11.1023
11.2778
11.4488
11.6154
11.7774
11.9348
12.0875
12.2357
12.3792
12.5181
12.6525
12.7824
12.9079
13.03
13.144
13.2675
13.3257
-4.70346
-4.73661
-4.75064
-4.75339
-4.75578
-4.75857
-4.76105
-4.76319
-4.76514
-4.76708
-4.76912
-4.77135
-4.77383
-4.77663
-4.77976
-4.78328
-4.78718
-4.79149
-4.79622
-4.80137
-4.80697
-4.81301
-4.81951
-4.82648
-4.83392
-4.84185
-4.85027
-4.85919
-4.86862
-4.87857
-4.88903
-4.90002
-4.91152
-4.92355
-4.93609
-4.94914
-4.96269
-4.97672
-4.99123
-5.00618
-5.02156
-5.03733
-5.05346
-5.06991
-5.08665
-5.10361
-5.12074
-5.13799
-5.15528
-5.17255
-5.1897
-5.20665
-5.22332
-5.23961
-5.2554
-5.27061
-5.2851
-5.29877
-5.3115
-5.32317
-5.33365
-5.34282
-5.35056
-5.35674
-5.36122
-5.3639
-5.36462
-5.36328
-5.35973
-5.35385
-5.34551
-5.33457
-5.32089
-5.30433
-5.28476
-5.26201
-5.23595
-5.20645
-5.17336
-5.13659
-5.09602
-5.05154
-5.00306
-4.95049
-4.89372
-4.83266
-4.76722
-4.6973
-4.62281
-4.54364
-4.45971
-4.37091
-4.27715
-4.17833
-4.07438
-3.96521
-3.85074
-3.73089
-3.60561
-3.47485
-3.33858
-3.19677
-3.0494
-2.89646
-2.73795
-2.57387
-2.40424
-2.22908
-2.04844
-1.86237
-1.67093
-1.4742
-1.27228
-1.06525
-0.853231
-0.63634
-0.414706
-0.188471
0.0422168
0.277194
0.516289
0.759317
1.00609
1.25639
1.51002
1.76675
2.02634
2.28857
2.55319
2.81995
3.08857
3.35881
3.63037
3.90297
4.17633
4.45015
4.72413
4.99796
5.27134
5.54395
5.81548
6.08562
6.35406
6.6205
6.88467
7.14629
7.40512
7.66095
7.91357
8.16271
8.40798
8.6488
8.88402
9.11274
9.33524
9.55199
9.76295
9.96791
10.1667
10.3603
10.5503
10.7368
10.9195
11.0981
11.2725
11.4425
11.608
11.769
11.9254
12.0771
12.2243
12.367
12.505
12.6384
12.7673
12.8915
13.0119
13.1232
13.2432
13.2934
-4.71131
-4.74235
-4.75634
-4.76001
-4.76318
-4.76653
-4.76943
-4.77186
-4.77404
-4.77613
-4.77827
-4.78058
-4.78313
-4.78597
-4.78915
-4.7927
-4.79664
-4.80098
-4.80574
-4.81093
-4.81655
-4.82263
-4.82917
-4.83617
-4.84365
-4.85163
-4.8601
-4.86907
-4.87856
-4.88856
-4.89909
-4.91014
-4.92172
-4.93382
-4.94644
-4.95957
-4.9732
-4.98731
-5.00189
-5.01692
-5.03237
-5.04822
-5.06443
-5.08095
-5.09775
-5.11478
-5.13199
-5.1493
-5.16665
-5.18396
-5.20116
-5.21816
-5.23487
-5.25118
-5.267
-5.28221
-5.2967
-5.31036
-5.32307
-5.33471
-5.34516
-5.35429
-5.36198
-5.36811
-5.37255
-5.37518
-5.37587
-5.3745
-5.37094
-5.36507
-5.35675
-5.34585
-5.33223
-5.31575
-5.29625
-5.27359
-5.24761
-5.21818
-5.18516
-5.14845
-5.10794
-5.06354
-5.01516
-4.96269
-4.90605
-4.84513
-4.77985
-4.71009
-4.63578
-4.5568
-4.47307
-4.38447
-4.2909
-4.19228
-4.0885
-3.97947
-3.8651
-3.74534
-3.62012
-3.48941
-3.35317
-3.21137
-3.06401
-2.91105
-2.75251
-2.58839
-2.41869
-2.24346
-2.06273
-1.87656
-1.685
-1.48815
-1.28609
-1.07891
-0.866727
-0.649661
-0.427839
-0.201401
0.0295052
0.264717
0.504063
0.747358
0.99441
1.24502
1.49896
1.75602
2.01597
2.27857
2.54358
2.81073
3.07978
3.35045
3.62247
3.89553
4.16937
4.44366
4.71811
4.99242
5.26627
5.53934
5.81132
6.08189
6.35074
6.61757
6.8821
7.14406
7.40318
7.65925
7.91199
8.16108
8.40606
8.64636
8.8811
9.10966
9.33216
9.54889
9.75982
9.96484
10.164
10.358
10.5481
10.7344
10.9167
11.0947
11.2685
11.4378
11.6025
11.7627
11.9183
12.0693
12.2158
12.3576
12.4948
12.6274
12.7553
12.8782
12.9969
13.1056
13.2225
13.2657
-4.72103
-4.7499
-4.76363
-4.76811
-4.77202
-4.7759
-4.77918
-4.7819
-4.78426
-4.78648
-4.78871
-4.79106
-4.79363
-4.79649
-4.79967
-4.80321
-4.80714
-4.81147
-4.81622
-4.82139
-4.82701
-4.83308
-4.8396
-4.84661
-4.85409
-4.86207
-4.87055
-4.87954
-4.88905
-4.89908
-4.90964
-4.92074
-4.93236
-4.94451
-4.95719
-4.97037
-4.98406
-4.99824
-5.01289
-5.02798
-5.0435
-5.05942
-5.0757
-5.0923
-5.10918
-5.12629
-5.14357
-5.16097
-5.1784
-5.1958
-5.21308
-5.23016
-5.24694
-5.26332
-5.27919
-5.29446
-5.30899
-5.32268
-5.33541
-5.34705
-5.35749
-5.36661
-5.37429
-5.3804
-5.38482
-5.38743
-5.3881
-5.38672
-5.38316
-5.37731
-5.36903
-5.35819
-5.34465
-5.32826
-5.30886
-5.28629
-5.26039
-5.23101
-5.19804
-5.16135
-5.12088
-5.07653
-5.0282
-4.97581
-4.91926
-4.85844
-4.79326
-4.72361
-4.64942
-4.57057
-4.48695
-4.39848
-4.30502
-4.20647
-4.10273
-3.9937
-3.8793
-3.75949
-3.63421
-3.50342
-3.36709
-3.22519
-3.07771
-2.92464
-2.76596
-2.60169
-2.43184
-2.25644
-2.07553
-1.88918
-1.69743
-1.50039
-1.29812
-1.09074
-0.878351
-0.661073
-0.439035
-0.212372
0.0187663
0.254219
0.493812
0.737362
0.984675
1.23555
1.48977
1.74711
2.00735
2.27024
2.53556
2.80303
3.07239
3.34339
3.61573
3.88912
4.16328
4.43791
4.71269
4.98731
5.26146
5.53483
5.80709
6.07794
6.34705
6.61412
6.87888
7.14104
7.40034
7.65654
7.90932
8.15831
8.40304
8.64295
8.87737
9.10581
9.32832
9.54507
9.75603
9.96121
10.1607
10.3552
10.5455
10.7317
10.9138
11.0915
11.2648
11.4336
11.5979
11.7575
11.9126
12.063
12.2089
12.3501
12.4866
12.6184
12.7453
12.8669
12.9839
13.0902
13.2042
13.2415
-4.73252
-4.75932
-4.77266
-4.77782
-4.78237
-4.78671
-4.79032
-4.79326
-4.79577
-4.79806
-4.80031
-4.80265
-4.80518
-4.80797
-4.81109
-4.81456
-4.81841
-4.82266
-4.82733
-4.83242
-4.83797
-4.84396
-4.85043
-4.85737
-4.86481
-4.87274
-4.88119
-4.89015
-4.89964
-4.90967
-4.92023
-4.93134
-4.94298
-4.95516
-4.96787
-4.98109
-4.99483
-5.00906
-5.02376
-5.03891
-5.05449
-5.07047
-5.08682
-5.10351
-5.12048
-5.13769
-5.15508
-5.17258
-5.19013
-5.20764
-5.22504
-5.24223
-5.25911
-5.27559
-5.29156
-5.30691
-5.32151
-5.33524
-5.348
-5.35966
-5.3701
-5.37922
-5.38688
-5.39297
-5.39737
-5.39994
-5.40058
-5.39917
-5.3956
-5.38976
-5.38152
-5.37074
-5.35727
-5.34096
-5.32165
-5.29916
-5.27333
-5.24398
-5.211
-5.17431
-5.13384
-5.0895
-5.04122
-4.98888
-4.93239
-4.87163
-4.80651
-4.73693
-4.6628
-4.58401
-4.50046
-4.41204
-4.31858
-4.21997
-4.11613
-4.00697
-3.89243
-3.77245
-3.647
-3.51603
-3.37951
-3.23743
-3.08975
-2.93648
-2.7776
-2.61312
-2.44305
-2.26743
-2.0863
-1.89971
-1.70774
-1.51047
-1.30798
-1.10038
-0.887778
-0.670288
-0.448037
-0.221162
0.0101914
0.24586
0.48567
0.729436
0.976963
1.22805
1.48248
1.74003
2.00048
2.26359
2.52911
2.7968
3.06638
3.33759
3.61014
3.88374
4.1581
4.43292
4.70789
4.98269
5.25701
5.53054
5.80295
6.07393
6.34317
6.61037
6.87523
7.13749
7.39686
7.65309
7.90584
8.15468
8.39916
8.63875
8.87291
9.10125
9.32376
9.54054
9.75159
9.95695
10.1568
10.3517
10.5422
10.7285
10.9104
11.088
11.2611
11.4296
11.5935
11.7528
11.9075
12.0575
12.2029
12.3436
12.4795
12.6105
12.7366
12.8569
12.9723
13.0762
13.1876
13.2199
-4.74576
-4.77069
-4.7836
-4.7893
-4.79436
-4.79905
-4.80289
-4.80595
-4.8085
-4.81076
-4.81292
-4.81514
-4.81753
-4.82017
-4.82312
-4.82642
-4.8301
-4.83418
-4.83869
-4.84363
-4.84902
-4.85488
-4.86121
-4.86804
-4.87536
-4.8832
-4.89156
-4.90046
-4.90989
-4.91987
-4.93041
-4.9415
-4.95314
-4.96533
-4.97805
-4.99131
-5.00507
-5.01934
-5.03409
-5.04929
-5.06493
-5.08098
-5.09741
-5.11418
-5.13126
-5.14858
-5.1661
-5.18373
-5.20141
-5.21906
-5.23659
-5.25391
-5.27092
-5.28751
-5.30358
-5.31901
-5.33367
-5.34745
-5.36021
-5.37185
-5.38226
-5.39133
-5.39893
-5.40496
-5.40928
-5.41177
-5.4123
-5.41079
-5.40716
-5.40128
-5.39303
-5.38226
-5.36884
-5.35259
-5.33334
-5.31092
-5.28512
-5.25576
-5.22271
-5.18595
-5.14547
-5.10116
-5.05292
-5.00065
-4.94421
-4.88351
-4.81843
-4.74889
-4.6748
-4.59606
-4.51252
-4.42399
-4.33039
-4.2316
-4.12754
-4.01815
-3.90337
-3.78315
-3.65745
-3.52624
-3.38947
-3.24715
-3.09923
-2.94572
-2.78661
-2.6219
-2.45159
-2.27573
-2.09436
-1.90754
-1.71535
-1.51787
-1.31518
-1.10738
-0.894595
-0.676929
-0.454508
-0.227466
0.00405237
0.239883
0.479849
0.723764
0.971434
1.22266
1.47722
1.73489
1.99546
2.25869
2.52433
2.79213
3.06182
3.33313
3.60577
3.87946
4.1539
4.42879
4.70381
4.97867
5.25303
5.5266
5.79904
6.07005
6.3393
6.60651
6.87138
7.13362
7.39297
7.64915
7.90179
8.15043
8.39464
8.63393
8.86784
9.09608
9.31857
9.53537
9.74651
9.95207
10.1522
10.3474
10.5382
10.7246
10.9066
11.0841
11.257
11.4253
11.589
11.748
11.9024
12.0521
12.1972
12.3375
12.4729
12.6032
12.7283
12.8474
12.9612
13.0629
13.1719
13.2002
-4.76079
-4.78417
-4.79667
-4.80275
-4.80819
-4.81307
-4.81698
-4.82
-4.82241
-4.82447
-4.8264
-4.82834
-4.83044
-4.83279
-4.83544
-4.83845
-4.84184
-4.84565
-4.84989
-4.85459
-4.85975
-4.86539
-4.87152
-4.87817
-4.88533
-4.89302
-4.90126
-4.91004
-4.91938
-4.92929
-4.93977
-4.95082
-4.96245
-4.97463
-4.98736
-5.00064
-5.01443
-5.02873
-5.04352
-5.05877
-5.07445
-5.09055
-5.10705
-5.12391
-5.1411
-5.15854
-5.17618
-5.19394
-5.21174
-5.22951
-5.24716
-5.26458
-5.28169
-5.29836
-5.31449
-5.32995
-5.34462
-5.35836
-5.37104
-5.38256
-5.39283
-5.40174
-5.40918
-5.41504
-5.41918
-5.42146
-5.42175
-5.42003
-5.41623
-5.41024
-5.40192
-5.39111
-5.37767
-5.36143
-5.34222
-5.31982
-5.29402
-5.26454
-5.23126
-5.19436
-5.15392
-5.10975
-5.06168
-5.00955
-4.95326
-4.89265
-4.82763
-4.75814
-4.68407
-4.60527
-4.52157
-4.43284
-4.33899
-4.23992
-4.13556
-4.02587
-3.91079
-3.79029
-3.66432
-3.53284
-3.39583
-3.25326
-3.10512
-2.95139
-2.79207
-2.62714
-2.45661
-2.28054
-2.09896
-1.91196
-1.7196
-1.52196
-1.31913
-1.11121
-0.898307
-0.68054
-0.458026
-0.230893
0.000714443
0.236626
0.476661
0.720633
0.968348
1.2196
1.47419
1.73188
1.99245
2.25568
2.52132
2.78912
3.0588
3.33008
3.6027
3.87634
4.15073
4.42555
4.70051
4.97529
5.24957
5.52305
5.7954
6.06631
6.33546
6.60256
6.86732
7.12945
7.38866
7.64474
7.89724
8.14564
8.38952
8.62849
8.86216
9.09026
9.31271
9.52953
9.74076
9.94649
10.1469
10.3425
10.5335
10.7201
10.9021
11.0796
11.2524
11.4206
11.5841
11.743
11.8971
12.0466
12.1914
12.3314
12.4662
12.5959
12.7201
12.8381
12.9503
13.0499
13.1565
13.1817
-4.77778
-4.80006
-4.81223
-4.81857
-4.82418
-4.82904
-4.83277
-4.83548
-4.83751
-4.83912
-4.84056
-4.84201
-4.84362
-4.84548
-4.84767
-4.85023
-4.85321
-4.85663
-4.8605
-4.86486
-4.8697
-4.87506
-4.88093
-4.88735
-4.8943
-4.90181
-4.90988
-4.91852
-4.92774
-4.93755
-4.94795
-4.95896
-4.97055
-4.98271
-4.99544
-5.00871
-5.02252
-5.03683
-5.05164
-5.0669
-5.08259
-5.0987
-5.11522
-5.13212
-5.14935
-5.16684
-5.18452
-5.20232
-5.22015
-5.23793
-5.25557
-5.27298
-5.29006
-5.30668
-5.32274
-5.3381
-5.35262
-5.36617
-5.37859
-5.38983
-5.3998
-5.40839
-5.4155
-5.42103
-5.42482
-5.42668
-5.42643
-5.42421
-5.42011
-5.41394
-5.40548
-5.39457
-5.38106
-5.36478
-5.34555
-5.32317
-5.29733
-5.26759
-5.23379
-5.1966
-5.15635
-5.11253
-5.0648
-5.01298
-4.95692
-4.89649
-4.83157
-4.76205
-4.68784
-4.60878
-4.5248
-4.43578
-4.34161
-4.24217
-4.13744
-4.0274
-3.91202
-3.79124
-3.665
-3.53328
-3.39603
-3.25326
-3.10493
-2.95104
-2.79156
-2.62648
-2.45579
-2.27956
-2.09785
-1.91074
-1.71831
-1.52061
-1.31774
-1.10981
-0.89691
-0.679164
-0.456683
-0.229582
0.00199309
0.23786
0.47783
0.721716
0.969327
1.22046
1.47491
1.73246
1.99288
2.25594
2.52142
2.78904
3.05854
3.32963
3.60203
3.87545
4.1496
4.42418
4.69888
4.97339
5.24741
5.52062
5.7927
6.06333
6.33219
6.59901
6.86347
7.12529
7.38418
7.64
7.89225
8.1403
8.38379
8.62239
8.85576
9.08366
9.30601
9.52281
9.7341
9.93999
10.1407
10.3365
10.5278
10.7147
10.8969
11.0743
11.247
11.4152
11.5786
11.7373
11.8913
12.0406
12.1852
12.3249
12.4594
12.5884
12.7117
12.8285
12.9392
13.0369
13.1412
13.1642
-4.79717
-4.81893
-4.83093
-4.83736
-4.84288
-4.84739
-4.85055
-4.85256
-4.85379
-4.85458
-4.85519
-4.85585
-4.8567
-4.85785
-4.85938
-4.86133
-4.86375
-4.86665
-4.87007
-4.874
-4.87846
-4.88347
-4.88904
-4.89518
-4.90191
-4.90921
-4.91709
-4.92555
-4.93459
-4.94425
-4.95453
-4.96543
-4.97693
-4.98901
-5.00165
-5.01485
-5.02859
-5.04285
-5.0576
-5.07282
-5.08847
-5.10454
-5.12101
-5.13783
-5.15495
-5.17229
-5.1898
-5.20739
-5.22501
-5.24255
-5.25995
-5.2771
-5.29391
-5.31025
-5.326
-5.34104
-5.3552
-5.36828
-5.3801
-5.39072
-5.40015
-5.40822
-5.41483
-5.41989
-5.4232
-5.42435
-5.42293
-5.41953
-5.4147
-5.40801
-5.39907
-5.3877
-5.37373
-5.35704
-5.33751
-5.31499
-5.28926
-5.26008
-5.22738
-5.19116
-5.15131
-5.1076
-5.05983
-5.00789
-4.95166
-4.89106
-4.82595
-4.75619
-4.68166
-4.6023
-4.51802
-4.42871
-4.33424
-4.23449
-4.12944
-4.01911
-3.90346
-3.78242
-3.65595
-3.52402
-3.38659
-3.24366
-3.0952
-2.9412
-2.78165
-2.6165
-2.44575
-2.26948
-2.08777
-1.90068
-1.70828
-1.51063
-1.30784
-1.1
-0.88721
-0.669599
-0.44727
-0.220334
0.0110632
0.24673
0.486475
0.730117
0.977469
1.22833
1.48249
1.73974
1.99984
2.26258
2.52772
2.795
3.06413
3.33483
3.60683
3.87984
4.15357
4.42772
4.70197
4.97604
5.24962
5.52238
5.79399
6.06415
6.33254
6.59886
6.86281
7.12408
7.38237
7.63736
7.88872
8.13606
8.37896
8.61703
8.84994
9.07748
9.29955
9.51615
9.72732
9.93317
10.1339
10.3297
10.5212
10.7084
10.8906
11.068
11.2407
11.4088
11.5721
11.7307
11.8846
12.0338
12.1784
12.3179
12.4519
12.5803
12.7028
12.8185
12.9277
13.0236
13.1256
13.1472
-4.82047
-4.84252
-4.85455
-4.86084
-4.86583
-4.86941
-4.87134
-4.87196
-4.87175
-4.87113
-4.87042
-4.86985
-4.86958
-4.86973
-4.87035
-4.8715
-4.8732
-4.87548
-4.87834
-4.88176
-4.88575
-4.89031
-4.89549
-4.90132
-4.90777
-4.91481
-4.92244
-4.93066
-4.93945
-4.94885
-4.95886
-4.96947
-4.98065
-4.99241
-5.00475
-5.01765
-5.0311
-5.04509
-5.0596
-5.0746
-5.09009
-5.10601
-5.12229
-5.13883
-5.15559
-5.17252
-5.18957
-5.2067
-5.22382
-5.24087
-5.25777
-5.27441
-5.2907
-5.30651
-5.32174
-5.33621
-5.34973
-5.36194
-5.37238
-5.38142
-5.38957
-5.39642
-5.40197
-5.40628
-5.40913
-5.41021
-5.40935
-5.40651
-5.4016
-5.39441
-5.38484
-5.37276
-5.35805
-5.34063
-5.32044
-5.2974
-5.27143
-5.24256
-5.21072
-5.17506
-5.13499
-5.09077
-5.04241
-4.98995
-4.93327
-4.87228
-4.80686
-4.73685
-4.66213
-4.58262
-4.49821
-4.4088
-4.31423
-4.21438
-4.10924
-3.99882
-3.88307
-3.76195
-3.63542
-3.50345
-3.36601
-3.2231
-3.07469
-2.92078
-2.76133
-2.59632
-2.42572
-2.24963
-2.06811
-1.88123
-1.68903