/*--------------------------------*- C++ -*----------------------------------*\
| =========                 |                                                 |
| \\      /  F ield         | OpenFOAM: The Open Source CFD Toolbox           |
|  \\    /   O peration     | Version:  2112                                  |
|   \\  /    A nd           | Website:  www.openfoam.com                      |
|    \\/     M anipulation  |                                                 |
\*---------------------------------------------------------------------------*/
FoamFile
{
    version     2.0;
    format      ascii;
    arch        "LSB;label=32;scalar=64";
    class       volScalarField;
    location    "0.4";
    object      pMean;
}
// * * * * * * * * * * * * * * * * * * * * * * * * * * * * * * * * * * * * * //

dimensions      [0 2 -2 0 0 0 0];

internalField   nonuniform List<scalar> 
122250
(
1214.35
-421.116
-53.5157
-148.822
-27.2162
-19.1688
16.0295
22.0111
31.7351
33.6989
36.6441
36.9726
37.6005
37.7035
37.8817
37.8555
38.1563
38.1131
1224.5
-456.136
-78.4935
-155.541
-35.8451
-24.7552
11.7728
18.4252
28.988
31.1395
34.4691
34.9376
35.7051
35.9426
36.2621
36.3633
36.7142
37.1025
1242.06
-502.766
-100.906
-159.476
-41.3115
-29.5647
7.97
14.935
26.2422
28.5369
32.1515
32.7488
33.6866
34.0703
34.5775
34.826
35.2803
35.7334
1253.21
-554.943
-116.943
-162.744
-47.8969
-34.4916
3.58193
11.3849
23.3436
25.995
29.8528
30.6234
31.6414
32.1355
32.7966
33.2499
33.7969
34.3494
1244.2
-603.173
-123.398
-165.511
-53.2271
-38.2146
-0.188189
8.16541
20.8432
23.9638
28.0375
28.9873
30.0887
30.7113
31.5117
32.1365
32.7665
33.3648
1224.38
-641.041
-120.561
-168.741
-57.8092
-41.3936
-3.68387
5.16683
18.4519
22.1585
26.49
27.6826
28.9357
29.6738
30.5515
31.2915
31.9904
32.6122
1203.69
-665.205
-108.381
-171.484
-61.204
-44.1474
-6.73452
2.50101
16.0506
20.4029
24.9857
26.5034
27.9654
28.8805
29.843
30.6446
31.3982
32.06
1184.76
-676.233
-89.6073
-171.808
-63.4623
-46.4942
-9.55066
0.343902
13.6688
18.6253
23.3838
25.3129
27.0538
28.1605
29.1847
30.0461
30.867
31.5677
1168.52
-677.235
-65.9961
-168.094
-64.248
-48.0468
-12.1718
-1.38823
11.4617
16.7844
21.6552
24.0271
26.0898
27.424
28.5365
29.4521
30.3194
31.046
1155.43
-671.053
-39.2068
-158.502
-62.5871
-47.648
-14.1191
-2.75709
9.35878
14.9067
19.8693
22.6469
24.9972
26.5889
27.8182
28.7469
29.6021
30.3696
1145.62
-659.461
-9.31203
-143.987
-57.6488
-44.2313
-14.3969
-3.45454
7.85185
13.4238
18.4224
21.4116
23.9004
25.6794
27.0227
27.9673
28.8018
29.5892
1139.41
-647.483
18.8076
-127.238
-49.2974
-38.4067
-12.8818
-3.27363
7.31252
12.7331
17.5983
20.6584
23.2493
25.0208
26.4167
27.3854
28.1675
28.9248
1133.2
-634.092
46.6283
-107.691
-37.685
-30.7218
-9.29353
-1.71227
7.7099
12.7146
17.3558
20.3818
22.9488
24.7229
26.0737
27.0308
27.7694
28.4463
1127.82
-618.289
73.5473
-87.3468
-21.8058
-20.4505
-3.25448
1.38424
9.12633
13.2996
17.5128
20.2506
22.6622
24.4738
25.9006
26.8425
27.5562
28.1988
1125.29
-601.972
89.9224
-74.9402
-5.14137
-10.2894
3.29959
5.11613
11.3454
14.3852
17.9969
20.4438
22.7292
24.3451
25.7405
26.7506
27.5322
28.2168
1122.14
-587.364
92.4938
-74.5325
8.19565
-3.52474
9.38509
9.46742
14.4909
16.5441
19.5087
21.4501
23.4406
24.9131
26.1501
27.0336
27.8053
28.5258
1125.71
-571.722
80.0061
-76.4648
15.4708
-1.98921
13.3426
12.4673
17.4578
19.2108
21.8041
23.3047
24.9509
26.1242
27.1078
27.7176
28.2816
28.8346
1132.9
-538.701
71.8978
-81.6634
18.9068
-1.26298
16.1011
14.147
19.3025
20.7644
23.0678
24.262
25.6289
26.622
27.5236
28.3061
29.0621
29.6996
1137.57
-526.999
66.9511
-83.1238
21.493
-0.579491
17.7721
15.1432
19.771
20.9502
23.2742
24.5843
26.0242
27.0836
28.0348
28.8439
29.5577
30.1585
1109.21
-558.592
94.632
-75.7276
19.4748
1.96375
15.8239
13.6878
18.2361
19.6976
22.0418
23.4806
24.9652
26.1116
27.2007
28.0395
28.7624
29.412
1098.08
-571.816
115.682
-63.7627
13.0219
2.27959
13.6833
12.6164
17.1133
19.0155
21.7265
23.5459
25.1729
26.2238
27.1131
27.8371
28.48
29.0745
1096.74
-585.879
110.901
-63.7363
1.06074
-3.18735
9.9256
10.4442
15.4704
18.1051
21.0431
22.9371
24.6991
25.9849
27.0593
27.8804
28.6057
29.2414
1098.03
-607.16
76.6894
-79.4714
-11.4758
-10.6208
6.57368
9.04301
15.4303
18.1846
21.2184
23.0089
24.8176
26.1352
27.2145
28.0309
28.7535
29.3757
1106.25
-622.892
32.6701
-94.0385
-15.6923
-14.1712
6.50884
9.47109
16.6683
19.151
22.228
23.8149
25.4764
26.6456
27.6632
28.4131
29.0713
29.6298
1116.96
-632.782
-9.13325
-100.793
-16.7801
-15.9784
7.73706
10.2222
17.888
20.0379
23.1064
24.5542
26.1144
27.1048
28.0453
28.7761
29.4055
29.9437
1139
-635.046
-47.1624
-102.731
-16.237
-15.99
9.90093
11.4986
19.3345
21.0794
24.2087
25.5862
27.0875
28.0037
28.8327
29.4606
30.0435
30.5417
1168.48
-612.597
-77.194
-106.276
-16.8323
-15.212
11.6322
13.0863
20.7547
22.2973
25.2515
26.538
28.0047
28.8315
29.5484
30.1173
30.7323
31.2612
1175.6
-559.11
-79.93
-110.087
-13.4088
-12.6711
14.6258
15.5478
22.8117
24.0665
26.7817
27.9039
29.2381
29.952
30.5909
31.1336
31.7808
32.3592
1159.73
-500.794
-58.3744
-112.816
-11.4322
-9.46484
16.7094
18.1508
24.6725
25.7838
28.2362
29.2217
30.4229
31.0554
31.6433
32.1541
32.7493
33.3079
1147.38
-442.088
-21.4128
-107.954
1.332
-1.99534
21.1191
21.861
27.2661
28.1269
30.2181
31.0809
32.1268
32.642
33.1208
33.5356
34.0344
34.5068
1214.63
-422.462
-54.5406
-149.702
-26.4758
-19.065
15.9517
21.4357
31.3464
33.3995
36.524
36.9663
37.7322
37.8219
37.9826
37.9303
38.1644
38.0493
1224.77
-459.808
-80.5028
-156.294
-35.3413
-24.6625
11.7674
17.9293
28.6794
30.9283
34.3961
35.0029
35.9592
36.1852
36.4691
36.5383
36.8221
37.183
1241.89
-508.385
-104.286
-160.648
-41.1723
-29.3039
8.06342
14.6175
25.9416
28.3127
32.0474
32.7863
33.9398
34.3554
34.8358
35.0764
35.4972
35.9565
1252.66
-561.024
-120.682
-164.541
-47.8892
-33.9
3.96975
11.3733
23.1621
25.7929
29.6815
30.5646
31.8676
32.4813
33.1135
33.5481
34.0866
34.6605
1243.34
-607.736
-126.337
-167.517
-52.8238
-37.5377
0.383449
8.46159
20.8587
23.7516
27.7593
28.8479
30.2732
31.0503
31.8095
32.413
33.0461
33.6618
1223.52
-644.166
-123.324
-171.034
-57.4622
-40.9944
-3.10046
5.60085
18.5975
21.9489
26.114
27.4505
29.0362
29.9743
30.8412
31.5417
32.2339
32.8608
1203.44
-668.116
-111.439
-173.629
-60.8296
-44.0807
-6.3984
2.96185
16.2734
20.2835
24.6522
26.2643
28.0269
29.1187
30.0782
30.8265
31.5708
32.2299
1184.91
-678.951
-92.17
-174.116
-63.074
-46.5405
-9.64173
0.654513
13.9404
18.6367
23.2412
25.1762
27.1002
28.3002
29.3044
30.0941
30.9019
31.6041
1168.7
-679.483
-68.211
-170.343
-63.7145
-48.0071
-12.3827
-1.28796
11.636
16.8495
21.6695
23.9694
26.1158
27.5055
28.5929
29.4467
30.2722
30.9709
1154.93
-673.391
-41.5739
-160.45
-62.1613
-47.8288
-14.23
-2.76222
9.47195
15.0466
20.0274
22.6474
24.9612
26.5739
27.8426
28.7611
29.564
30.2847
1143.88
-662.196
-11.1386
-145.719
-57.4956
-44.6879
-14.5339
-3.50358
7.9846
13.583
18.6351
21.496
23.8377
25.5258
26.9632
27.9666
28.7928
29.5673
1136.89
-648.467
18.1676
-128.556
-48.8064
-38.7868
-12.8456
-3.12491
7.522
12.9193
17.7873
20.7241
23.0821
24.7362
26.2259
27.2831
28.1354
28.9334
1129.93
-633.792
46.5238
-108.914
-37.7949
-31.2597
-9.37983
-1.68316
7.83645
12.8693
17.4683
20.3395
22.6571
24.2983
25.7481
26.7914
27.655
28.414
1126.67
-616.913
72.8624
-88.3312
-21.7805
-20.8675
-3.55586
1.17857
9.09504
13.3662
17.4982
20.159
22.4943
24.1754
25.5695
26.5485
27.3736
28.1048
1122.63
-601.188
89.3405
-74.8023
-4.91756
-10.5911
3.17044
5.01507
11.31
14.39
17.947
20.3534
22.6421
24.2607
25.6029
26.5629
27.3894
28.1072
1119.04
-589.064
91.5527
-73.5171
8.33378
-3.86706
9.22046
9.17506
14.1738
16.2645
19.3226
21.3545
23.3398
24.7979
25.9962
26.8427
27.5852
28.2888
1125.47
-568.038
78.4286
-78.0351
16.1222
-2.31136
13.4338
12.2594
17.2222
18.9632
21.5803
23.1185
24.7368
25.896
26.9377
27.7008
28.3469
28.9139
1133.48
-532.369
73.1995
-83.322
20.2219
-1.62038
15.8766
14.0481
19.3336
20.7341
23.0717
24.1961
25.493
26.5379
27.5853
28.4432
29.2394
29.9112
1138.16
-525.93
67.5062
-81.2182
21.7265
0.0391925
18.0396
15.1117
19.834
20.8816
23.2299
24.5547
25.9705
27.0048
27.987
28.8191
29.5368
30.1325
1104.29
-563.883
95.6987
-74.1102
19.2642
1.81019
16.1628
14.0362
18.4292
19.7522
22.0692
23.4263
24.9692
26.0723
27.1165
27.962
28.7329
29.4166
1095.09
-575.367
117.804
-62.6024
12.7883
1.95973
13.6416
12.4676
16.8539
18.7258
21.3783
23.1302
24.8606
26.0278
26.9803
27.698
28.3333
28.9685
1093.3
-586.97
114.585
-62.9432
1.44197
-3.0514
9.67517
10.145
15.1742
17.8246
20.8317
22.7467
24.5186
25.8178
26.917
27.7298
28.4408
29.0672
1099.46
-603.267
78.9413
-79.6245
-10.4845
-10.2023
6.44231
8.97493
15.2247
17.9471
21.0198
22.889
24.7348
26.07
27.2082
28.035
28.7175
29.3142
1107.32
-618.182
35.663
-94.3208
-15.5794
-13.8354
6.61181
9.59194
16.4986
18.8814
22.0557
23.7851
25.5782
26.7889
27.7957
28.4733
29.061
29.5799
1117.87
-628.253
-5.98934
-101.505
-16.5362
-15.4255
7.77227
10.2666
17.7659
19.9257
23.0725
24.6327
26.2803
27.2532
28.0853
28.7008
29.2748
29.8294
1138.6
-631.033
-44.4554
-102.69
-15.5905
-15.5955
9.91165
11.5671
19.3649
21.1019
24.1376
25.5477
27.106
27.9611
28.6943
29.2796
29.8699
30.4259
1167.79
-609.922
-75.9376
-105.827
-15.5842
-14.4822
11.8765
13.2255
20.7089
22.2848
25.1996
26.5475
28.0152
28.7681
29.4272
29.9817
30.6054
31.1802
1175.8
-556.383
-79.3235
-110.098
-12.2937
-11.828
14.4919
15.5432
22.6902
24.0591
26.72
27.9153
29.2467
29.9266
30.5698
31.0979
31.7258
32.3081
1160.51
-496.087
-56.4549
-113.949
-11.1799
-8.82703
16.3504
18.0347
24.5332
25.7885
28.1732
29.2042
30.3876
31.0018
31.6129
32.1203
32.716
33.2932
1148.22
-435.92
-18.4476
-109.393
2.2572
-0.938217
20.8368
21.6887
27.1057
28.1255
30.2186
31.1232
32.0941
32.5768
33.0931
33.5408
34.0524
34.5536
1216.09
-417.865
-54.0447
-149.52
-27.5863
-19.2416
15.6941
21.152
31.5501
33.5458
36.695
37.1824
38.0044
38.1716
38.3961
38.3474
38.498
38.1231
1226.32
-456.531
-81.1788
-155.853
-36.2906
-24.7016
11.5792
17.7303
28.939
31.1719
34.6926
35.3597
36.3867
36.646
36.9685
37.0419
37.2452
37.4
1243.6
-508.276
-106.826
-159.805
-41.4851
-28.9288
8.15957
14.5146
26.1852
28.5847
32.4222
33.2795
34.4982
34.9129
35.399
35.6009
35.952
36.2626
1253.56
-564.42
-124.584
-162.98
-47.4896
-33.2709
4.26561
11.3137
23.3077
25.9186
29.893
30.9365
32.3741
33.0011
33.6313
34.0029
34.4604
34.9424
1243.11
-613.351
-130.076
-165.26
-51.8689
-36.961
0.736102
8.51495
20.9466
23.7403
27.777
29.024
30.6246
31.4623
32.1992
32.6916
33.2363
33.8078
1222.05
-650.013
-125.796
-168.064
-56.2476
-40.5557
-2.77594
5.9406
18.8152
21.87
25.9533
27.4395
29.1827
30.2161
31.1116
31.7347
32.3488
32.9367
1200.87
-673.309
-112.331
-170.264
-59.4916
-43.6577
-6.13446
3.54581
16.7284
20.2
24.4608
26.1564
28.0279
29.2258
30.2656
31.0386
31.7552
32.3632
1182.53
-684.327
-92.4884
-170.573
-61.5262
-46.2629
-9.45835
1.20059
14.3715
18.5263
23.0351
25.0438
27.0348
28.3465
29.4433
30.3111
31.1421
31.8399
1167.5
-684.754
-68.779
-167.258
-62.4517
-47.7973
-12.2471
-0.937725
11.9543
16.7995
21.522
23.9317
26.1268
27.5811
28.7298
29.6395
30.5214
31.2333
1155.25
-677.766
-42.3714
-158.996
-61.4339
-47.5914
-14.2428
-2.64672
9.80943
15.1652
20.0426
22.7191
25.1193
26.7307
28.0153
28.9612
29.8009
30.4873
1145.6
-666.231
-13.0444
-144.939
-56.8989
-44.6344
-14.775
-3.61098
8.22927
13.8495
18.7502
21.5743
23.971
25.6521
27.1337
28.186
28.9865
29.708
1138.46
-651.596
16.7198
-127.419
-48.5642
-38.9197
-13.1536
-3.40035
7.52303
13.0696
17.8443
20.6666
23.0307
24.7425
26.3372
27.4673
28.2911
29.0133
1129.87
-635.794
46.0681
-108.09
-37.9867
-31.4616
-9.8362
-2.13492
7.58658
12.7557
17.3866
20.1754
22.492
24.1609
25.6838
26.8311
27.7608
28.4992
1125.24
-618.42
73.7356
-87.9682
-22.4784
-21.3335
-3.99578
0.75969
8.89927
13.2039
17.3567
19.946
22.2609
23.9477
25.3315
26.3576
27.2751
28.0583
1121.36
-602.179
89.6661
-74.0149
-4.26926
-10.4422
3.21104
4.975
11.3873
14.5385
18.1151
20.3827
22.5355
24.0779
25.3819
26.3559
27.2167
27.9447
1118.05
-591.348
90.3218
-72.9239
8.67769
-3.65985
9.50619
9.34649
14.3139
16.5356
19.6382
21.5896
23.4571
24.7294
25.8392
26.675
27.4423
28.1864
1126.22
-567.519
76.9439
-78.3017
16.3108
-2.39551
13.6169
12.3836
17.3513
19.1015
21.679
23.1316
24.7025
25.7649
26.7789
27.6248
28.3833
29.032
1132.82
-534.692
71.3947
-83.5074
19.6548
-1.8934
16.1867
14.087
19.3713
20.796
23.1171
24.1758
25.4483
26.506
27.5795
28.4683
29.2639
29.9347
1139.61
-530.051
62.4553
-83.2415
22.1491
-0.0187161
18.0667
14.954
19.7364
20.8132
23.1771
24.5227
25.9262
26.9283
27.893
28.7372
29.459
30.0409
1104.17
-567.298
93.6
-75.207
20.0011
2.57269
16.1969
14.1379
18.4482
19.8034
22.2024
23.4852
24.9506
25.9783
27.0247
27.9407
28.7816
29.5022
1092.06
-577.341
119.814
-62.032
12.6417
2.00301
13.5726
12.3964
16.7857
18.5718
21.1408
22.7586
24.4686
25.7034
26.7596
27.5938
28.3394
29.0425
1090.86
-587.927
117.358
-61.0701
1.70306
-2.5238
9.68182
10.1807
15.1274
17.5992
20.6111
22.4618
24.2264
25.5599
26.6946
27.5705
28.3113
28.9557
1096.72
-606.077
80.2469
-78.6723
-10.2606
-9.42463
6.67869
9.23633
15.1686
17.8041
20.932
22.8165
24.6627
25.9662
27.1199
27.9586
28.6772
29.3096
1105.81
-620.081
37.0657
-94.4559
-15.413
-13.027
7.10382
9.95744
16.635
18.9114
22.0695
23.795
25.5605
26.7588
27.7591
28.4746
29.1074
29.6596
1116.74
-631.865
-5.92513
-101.612
-16.3816
-14.4515
8.35042
10.8415
18.2072
20.1187
23.2162
24.732
26.3159
27.2614
28.0852
28.6885
29.2807
29.8514
1138.78
-634.621
-45.8528
-103.124
-15.2189
-14.3457
10.3686
11.9976
19.7456
21.3796
24.3563
25.7086
27.1907
28.0151
28.742
29.2713
29.8653
30.4624
1168.55
-612.899
-77.4456
-105.998
-15.3662
-13.7949
12.0266
13.2619
20.8614
22.4179
25.3396
26.6498
28.0945
28.8467
29.5333
30.0779
30.6906
31.2767
1176.93
-556.496
-79.9485
-110.729
-12.168
-11.2142
14.6275
15.604
22.7635
24.1714
26.9161
28.109
29.4422
30.1491
30.8086
31.3008
31.8594
32.3856
1161.53
-492.188
-54.3368
-114.739
-10.884
-8.53863
16.2676
18.0974
24.5546
25.8266
28.3501
29.3781
30.5701
31.2631
31.9111
32.3595
32.8944
33.4369
1148.64
-428.963
-13.9834
-110.969
2.06263
-0.747013
20.7577
21.7154
27.1119
28.1735
30.414
31.3082
32.2962
32.8539
33.4051
33.8051
34.2549
34.6966
1217.62
-412.943
-51.8962
-149.658
-27.6605
-19.4755
15.5432
21.4206
31.6481
33.5659
36.6374
37.1459
37.9362
38.2262
38.567
38.579
38.7077
38.189
1227.74
-451.626
-79.4192
-156.04
-36.3807
-24.9376
11.5077
18.0507
29.1049
31.2072
34.6239
35.2759
36.2038
36.6239
37.1096
37.2659
37.4487
37.4916
1244.92
-504.447
-105.634
-159.576
-41.0433
-29.0843
8.00419
14.7328
26.4081
28.6778
32.4087
33.2693
34.3583
34.9012
35.5276
35.807
36.1366
36.3561
1255.04
-562.218
-124.079
-162.391
-47.0415
-33.3144
4.08464
11.4021
23.4814
25.9566
29.9115
31.0251
32.3068
32.9836
33.7082
34.1669
34.6245
35.0445
1244.56
-612.902
-130.544
-164.852
-51.3748
-36.7054
0.841001
8.5804
20.9836
23.6984
27.7483
29.0912
30.5546
31.3776
32.1894
32.7477
33.3143
33.8763
1222.37
-650.16
-126.113
-167.917
-55.4599
-39.8715
-2.34779
6.0664
18.6866
21.7572
25.9017
27.4766
29.1054
30.0583
30.9704
31.632
32.2853
32.8928
1200.48
-672.654
-112.468
-170.544
-58.5813
-43.069
-5.60662
3.77863
16.6263
20.1127
24.3784
26.1276
27.9066
29.0193
30.0615
30.8443
31.5922
32.1876
1182.36
-683.685
-93.5155
-170.862
-61.0351
-45.9051
-9.06886
1.45179
14.4018
18.5499
22.9673
24.9005
26.8234
28.1103
29.3052
30.239
31.0391
31.6526
1168.36
-684.749
-70.7505
-167.579
-62.0512
-47.447
-12.2258
-0.792561
12.0585
16.9033
21.538
23.7694
25.831
27.2496
28.5254
29.5731
30.4415
31.0559
1157.99
-678.47
-45.7027
-159.247
-60.6899
-47.052
-14.426
-2.66083
9.85816
15.2219
20.058
22.6175
24.7874
26.3285
27.6745
28.7314
29.6019
30.237
1148.66
-666.991
-15.7975
-145.05
-56.5803
-44.4553
-15.064
-3.74128
8.11787
13.7337
18.6609
21.4112
23.6443
25.2918
26.7558
27.8528
28.7368
29.4442
1142.35
-651.362
14.8226
-128.034
-49.0381
-38.9037
-13.499
-3.62878
7.27379
12.8037
17.5998
20.3967
22.7723
24.4926
26.0131
27.1828
28.1125
28.845
1135.81
-634.359
44.624
-108.661
-38.3603
-31.1074
-9.98806
-2.37398
7.3005
12.4535
17.0373
19.8285
22.2518
23.9931
25.4908
26.634
27.5958
28.3761
1129.65
-616.111
72.9123
-87.5984
-22.5794
-20.7146
-3.97492
0.568814
8.72879
13.03
17.1339
19.703
22.0414
23.7318
25.1171
26.1622
27.1514
28.0094
1124.02
-600.952
89.1982
-74.4667
-4.6194
-9.93449
3.53734
5.15029
11.718
14.7858
18.1886
20.2745
22.3454
23.863
25.2065
26.2431
27.1682
27.9479
1122.27
-590.872
88.291
-74.2011
9.14228
-3.03108
9.718
9.37191
14.6617
16.8436
19.9198
21.7238
23.5037
24.6399
25.6893
26.5697
27.4304
28.2327
1130.18
-564.023
76.0337
-78.9442
17.1824
-1.70298
14.0063
12.7228
17.4678
19.1458
21.8521
23.3275
24.8207
25.7423
26.6716
27.5396
28.3278
29.0013
1136.03
-530.554
70.4888
-84.4614
19.4478
-1.28524
16.5585
14.3835
19.5011
20.8915
23.1761
24.2472
25.5165
26.541
27.5432
28.3819
29.1505
29.8284
1140.34
-531.848
60.5678
-85.4627
20.7225
-0.459476
18.0776
15.0663
19.8096
20.8842
23.2116
24.5894
25.9527
26.905
27.8886
28.7115
29.3967
29.9647
1105.53
-564.994
94.5753
-75.6171
19.504
2.04938
16.2609
14.1428
18.4647
19.905
22.1999
23.4552
24.8042
25.8536
26.9815
27.9899
28.8803
29.5912
1088.98
-576.95
122.584
-62.0909
12.3405
1.73838
13.2061
12.1818
16.8415
18.6169
21.2253
22.7328
24.2822
25.4712
26.6072
27.588
28.4683
29.2257
1087.03
-586.516
120.54
-60.2471
1.96937
-2.221
9.83183
10.4024
15.3371
17.7103
20.7809
22.5701
24.2604
25.4999
26.5731
27.4855
28.3006
28.9941
1092.16
-606.717
82.9587
-77.2497
-9.94354
-8.9117
7.15635
9.69139
15.5125
18.1152
21.2939
23.0994
24.7431
25.9004
26.9998
27.8619
28.6126
29.2552
1101.64
-621.97
40.0839
-92.7195
-15.2147
-12.7701
7.3681
10.2171
16.9852
19.2081
22.3624
24.0538
25.71
26.7923
27.7344
28.4524
29.1208
29.7016
1112.9
-635.855
-3.61279
-100.357
-16.3127
-14.0755
8.67982
11.1071
18.5816
20.4448
23.5285
25.0215
26.5068
27.3592
28.1722
28.7873
29.4073
29.999
1137.11
-641.091
-46.8849
-102.987
-14.8201
-13.953
10.566
12.0374
19.8945
21.6086
24.6696
25.9832
27.3723
28.1112
28.8447
29.4166
30.0633
30.6986
1168.03
-617.02
-77.9294
-105.964
-14.8087
-13.7595
11.866
13.1672
20.9678
22.545
25.5284
26.7759
28.1454
28.8819
29.6265
30.2372
30.9176
31.5529
1176.71
-557.949
-78.6627
-111.264
-11.9624
-11.4413
14.5354
15.4931
22.9497
24.2926
27.068
28.1588
29.3983
30.1038
30.8367
31.4188
32.0656
32.6541
1160.63
-493.109
-51.4123
-115.695
-11.8882
-8.97813
16.5541
18.185
24.9508
26.196
28.6558
29.551
30.6062
31.2377
31.9203
32.4321
33.0122
33.5856
1147.5
-429.55
-10.5505
-111.63
1.17741
-0.938223
20.7026
21.9096
27.5894
28.5741
30.701
31.4651
32.3505
32.8424
33.4275
33.8813
34.3732
34.8456
1217.69
-410.647
-49.4859
-149.395
-27.7218
-19.8427
14.9406
21.1565
31.2895
33.3975
36.566
37.1404
37.9485
38.1413
38.3475
38.3153
38.4835
38.1032
1227.56
-448.67
-76.44
-156.083
-36.8566
-25.7055
10.9181
17.6158
28.6215
30.886
34.4151
35.1735
36.1413
36.4678
36.7961
36.9368
37.1914
37.3602
1244.84
-499.855
-101.984
-159.839
-41.8203
-29.8599
7.50259
14.1884
25.928
28.3979
32.2245
33.1562
34.3035
34.7449
35.212
35.481
35.9061
36.2413
1255.24
-556.745
-120.464
-163.089
-47.9423
-33.9942
3.57183
10.7349
22.9518
25.7391
29.8354
30.9993
32.2764
32.8246
33.4077
33.8276
34.4032
34.9426
1245.57
-607.955
-127.708
-165.664
-52.3878
-37.511
0.208714
7.92167
20.5516
23.5758
27.831
29.1998
30.5729
31.2406
31.9286
32.4438
33.0929
33.756
1224.55
-646.385
-124.228
-168.651
-56.4506
-40.9325
-3.11678
5.5825
18.4447
21.7835
26.1027
27.6242
29.1148
29.8819
30.6798
31.3012
32.0088
32.7157
1203.12
-670.009
-111.405
-171.434
-59.8421
-44.0528
-6.33896
3.46936
16.5316
20.231
24.5514
26.2004
27.8552
28.7582
29.6641
30.4013
31.1782
31.8969
1184.96
-682.059
-93.4327
-171.675
-62.374
-46.5091
-9.76065
1.20994
14.3694
18.6626
23.0392
24.8681
26.6458
27.7253
28.7866
29.708
30.5463
31.2507
1169.77
-684.679
-71.8083
-168.154
-63.1885
-47.8068
-12.7331
-1.02524
11.9308
16.9539
21.5021
23.5944
25.4667
26.6916
27.864
28.9251
29.8754
30.5965
1158.03
-678.708
-46.6091
-159.679
-61.8943
-47.3554
-14.8093
-2.91204
9.58515
15.1181
19.8679
22.2601
24.2074
25.5422
26.8641
27.9848
29.0119
29.7859
1148.25
-665.875
-15.6763
-145.234
-57.3105
-44.298
-15.1862
-3.89819
7.90087
13.5766
18.3494
20.9192
22.9909
24.486
25.9857
27.1377
28.1872
29.0318
1141.67
-650.536
15.0107
-128.106
-49.7371
-38.6163
-13.4144
-3.64877
7.20473
12.65
17.2516
19.9126
22.2198
23.8733
25.4047
26.6362
27.703
28.5509
1134.54
-633.701
44.9691
-109.401
-39.1463
-31.0101
-9.95934
-2.32145
7.37277
12.3105
16.658
19.3447
21.7912
23.5692
25.1089
26.3286
27.3959
28.2381
1127.47
-615.966
73.7348
-88.4928
-23.4095
-20.6113
-3.86264
0.660373
8.69639
12.8132
16.8683
19.3978
21.7748
23.5565
25.029
26.1368
27.1698
28.0475
1123.28
-601.969
90.3204
-74.2289
-5.3229
-9.61231
3.45856
4.99255
11.573
14.6205
18.0916
20.1745
22.2301
23.8212
25.2288
26.3195
27.3109
28.1417
1124.3
-589.801
87.8777
-75.5508
8.59217
-2.24999
9.64273
9.41692
14.7645
17.0425
20.1966
21.9223
23.5889
24.6656
25.6679
26.5827
27.491
28.3054
1134.06
-563.794
74.6616
-79.5338
17.2037
-0.543464
14.2746
13.1747
17.9236
19.5584
22.1956
23.5452
24.9238
25.7618
26.5994
27.369
28.1204
28.8099
1135.59
-530.52
72.1594
-83.3626
20.417
-0.28983
16.4971
14.5077
19.5141
20.8505
23.152
24.2783
25.5758
26.5394
27.4493
28.2312
28.9659
29.626
1142.17
-524.993
64.9944
-84.7304
21.5698
0.387061
18.173
15.0896
19.8157
21.0969
23.4288
24.7347
26.0125
26.8687
27.7645
28.5587
29.2626
29.8762
1105.18
-559.457
97.522
-74.761
19.9339
2.17021
15.9975
14.0367
18.4495
19.9363
22.2726
23.4832
24.7709
25.8304
27.0132
28.077
29.0024
29.7112
1091.15
-575.258
120.548
-63.276
12.8824
2.55465
13.3564
12.4422
17.0624
18.8379
21.4353
22.8546
24.2407
25.3986
26.6216
27.6444
28.5675
29.3437
1087.76
-585.272
120.323
-59.7902
2.74433
-1.47031
10.1913
10.9056
15.8121
18.1133
21.0863
22.8828
24.5879
25.7574
26.7802
27.6275
28.4226
29.1056
1092.95
-603.473
85.1482
-76.4102
-8.62487
-8.04891
7.68789
10.1158
16.0109
18.5282
21.7595
23.6118
25.1794
26.2036
27.1637
27.9694
28.686
29.2859
1101.8
-619.553
41.5403
-92.0527
-14.3733
-12.1626
7.66732
10.5437
17.4264
19.6486
22.888
24.5958
26.0852
26.9715
27.8183
28.5295
29.1705
29.7164
1112.99
-633.181
-2.76868
-100.296
-15.9294
-14.2312
8.58959
11.1707
18.7164
20.7587
23.8879
25.3511
26.6869
27.4136
28.1847
28.8438
29.5089
30.0874
1137.31
-638.857
-45.6722
-103.409
-15.3064
-14.6007
10.3784
12.2033
20.0591
21.8273
24.8681
26.102
27.337
27.9707
28.7669
29.5063
30.2287
30.8476
1167.68
-613.648
-74.7609
-105.636
-15.5197
-14.4308
11.8773
13.4096
21.1351
22.7362
25.6626
26.8372
28.01
28.7074
29.564
30.3163
31.0492
31.6647
1174.87
-553.458
-73.8149
-111.08
-12.5388
-11.9795
14.571
15.7591
23.1063
24.4872
27.0912
28.0739
29.1741
29.8946
30.7665
31.4891
32.1904
32.7711
1158.13
-491.085
-46.7422
-114.909
-11.8957
-9.04796
16.5409
18.3171
25.0418
26.3806
28.6545
29.4782
30.4738
31.0848
31.8536
32.4992
33.1074
33.6359
1145.83
-431.748
-7.44948
-109.833
1.10508
-1.15847
20.9583
22.0288
27.7335
28.7954
30.7481
31.4416
32.2804
32.7315
33.3464
33.8629
34.3582
34.7937
1217.63
-405.805
-44.4664
-149.431
-28.3995
-19.6155
15.1024
21.2271
31.4263
33.5494
36.6914
37.218
38.0523
38.1781
38.3919
38.3498
38.5139
38.1563
1227.42
-444.147
-71.3113
-155.046
-37.1755
-25.34
11.0882
17.8323
28.8663
31.1678
34.6213
35.2906
36.2746
36.5128
36.8139
36.9078
37.1538
37.3697
1244.38
-496.289
-97.9693
-158.38
-42.1058
-29.6323
7.61641
14.5694
26.3305
28.7143
32.4068
33.2659
34.4352
34.8243
35.2446
35.4888
35.9121
36.2841
1255.14
-555.017
-118.08
-161.499
-48.4544
-34.3109
3.48851
10.9521
23.4275
26.0164
29.9455
31.0779
32.4262
32.9841
33.5055
33.8936
34.4416
34.98
1245.32
-607.81
-126.277
-163.625
-52.645
-38.3546
-0.075999
7.84642
20.9079
23.813
27.8747
29.2321
30.7176
31.4283
32.0815
32.5674
33.1901
33.8146
1223.59
-648.028
-123.395
-166.615
-56.8123
-42.2675
-3.76195
5.23155
18.6113
21.9663
26.1587
27.6584
29.223
30.0458
30.8767
31.4992
32.1808
32.8251
1201.14
-672.902
-111.175
-169.77
-60.6349
-45.5058
-7.21476
2.9609
16.4866
20.3407
24.645
26.2757
27.8851
28.8018
29.7639
30.5611
31.3276
31.998
1181.98
-685.301
-93.3524
-171.044
-63.4068
-47.6678
-10.5846
0.696622
14.1535
18.6387
23.0725
24.8816
26.5717
27.5954
28.6824
29.6503
30.5121
31.2318
1166.33
-688.304
-71.5094
-168.187
-64.5123
-48.5284
-13.2419
-1.23687
11.7726
16.8154
21.4107
23.4537
25.2312
26.3606
27.5565
28.6568
29.6306
30.4148
1154.19
-683.046
-45.6244
-159.874
-63.4482
-47.7685
-14.8564
-2.75335
9.58111
14.9503
19.635
21.9457
23.8219
25.0962
26.4502
27.6498
28.7344
29.5968
1144.43
-669.298
-14.3361
-145.34
-58.9339
-44.2803
-14.8684
-3.49496
8.00397
13.4204
18.0798
20.5526
22.6086
24.1308
25.6346
26.8644
28.0106
28.9246
1137.04
-652.805
16.6275
-127.796
-51.2856
-38.5436
-12.9599
-3.0909
7.39729
12.5591
17.1161
19.7264
22.0074
23.6603
25.1774
26.4303
27.5497
28.4598
1129.02
-635.164
47.0536
-108.481
-40.29
-30.7832
-9.19864
-1.64149
7.59193
12.3053
16.6794
19.3751
21.7872
23.5421
25.0341
26.2365
27.2986
28.1716
1123.37
-616.687
75.7359
-87.5421
-23.8439
-19.9573
-3.16807
1.21656
8.8666
12.8462
16.9191
19.5315
21.8982
23.6962
25.1928
26.2836
27.2773
28.1315
1121.54
-599.756
92.5632
-74.5396
-5.62472
-9.38447
3.73895
5.26791
11.6091
14.7208
18.2805
20.4152
22.4221
23.9616
25.3172
26.3997
27.3765
28.196
1120.13
-587.218
91.5042
-73.5662
8.86246
-1.82398
10.1562
9.84185
15.0129
17.1228
20.2176
21.9436
23.5351
24.6507
25.7078
26.6187
27.5209
28.3369
1126.86
-567.484
78.0039
-78.7099
16.8005
-0.680393
14.0872
12.9869
17.852
19.4798
22.0425
23.3708
24.7731
25.675
26.5444
27.2683
27.9488
28.5614
1132.51
-540.901
70.1732
-81.2104
20.1659
-0.873353
16.2614
14.1363
19.4679
20.7534
23.052
24.2121
25.6075
26.5694
27.4405
28.1296
28.8111
29.4489
1138.65
-529.794
68.3364
-80.023
21.6381
-0.35953
17.5833
14.8431
19.9694
21.3196
23.6532
24.9358
26.1499
26.9199
27.725
28.4739
29.1786
29.8313
1104.8
-557.075
99.3424
-75.7677
19.5898
2.03442
16.0476
14.1336
18.523
19.9796
22.3137
23.5585
24.8528
25.8722
27.0078
28.0451
28.9531
29.6656
1091.44
-577.81
120.48
-61.9087
12.2562
2.1254
13.439
12.6052
17.1785
18.9413
21.4407
22.8585
24.3136
25.4724
26.6615
27.6781
28.6281
29.3973
1091.27
-587.338
117.418
-60.6045
1.85391
-2.00113
10.4023
11.1542
16.063
18.3946
21.2758
23.0875
24.831
25.923
26.9178
27.7164
28.4497
29.1118
1094.68
-605.465
82.2906
-76.4588
-9.09493
-8.57873
7.73405
10.3263
16.1879
18.8804
22.0838
23.9036
25.4586
26.376
27.2892
28.0205
28.6583
29.2407
1102.58
-620.446
39.4101
-92.4992
-15.0426
-12.9199
7.40698
10.551
17.6056
20.0708
23.3267
24.8728
26.2305
27.0114
27.8273
28.5037
29.1103
29.6346
1113.34
-632.878
-4.17845
-101.372
-17.2188
-15.0754
8.34568
11.1753
18.9938
21.1705
24.2529
25.5077
26.7346
27.4211
28.1732
28.8344
29.4837
30.0433
1137.42
-636.93
-46.0589
-103.923
-16.5949
-15.4034
10.3107
12.4497
20.4978
22.2469
25.1232
26.1935
27.3425
27.9854
28.7387
29.4796
30.2221
30.8291
1168.61
-611.601
-74.5081
-105.599
-16.126
-15.0298
11.844
13.5078
21.3988
22.9445
25.716
26.7421
27.8949
28.618
29.4447
30.2116
30.9899
31.6156
1175.43
-551.919
-72.7059
-109.147
-12.3283
-12.693
14.6154
15.6684
23.1598
24.4319
26.9416
27.8838
29.033
29.8083
30.6538
31.3648
32.0737
32.6637
1158.7
-489.951
-45.9514
-112.755
-11.784
-9.96923
16.3511
17.9469
24.8188
26.0202
28.3095
29.2232
30.3018
30.9996
31.7675
32.4221
33.0712
33.5846
1146.4
-431.413
-7.27579
-107.854
0.31085
-2.35984
20.7981
21.7402
27.4823
28.3953
30.3364
31.1113
32.0428
32.5658
33.1618
33.6768
34.2202
34.6785
1216.25
-410.339
-46.3316
-150.43
-28.1105
-19.4347
15.2583
21.1422
31.4998
33.7264
36.9746
37.5402
38.2633
38.369
38.6045
38.5828
38.7499
38.3261
1225.96
-449.215
-73.2318
-155.897
-37.3356
-24.9483
11.4583
17.9229
28.9761
31.3559
34.9095
35.5952
36.4751
36.6783
36.9875
37.0903
37.3209
37.4772
1242.96
-501.671
-99.8581
-158.568
-42.2046
-29.4886
7.86862
14.6864
26.3807
28.7766
32.5807
33.4259
34.5246
34.8835
35.3054
35.5543
35.9643
36.2985
1253.81
-560.108
-119.318
-161.134
-48.2719
-34.6087
3.64759
11.1202
23.4371
26.0226
30.0188
31.1273
32.4471
33.0031
33.5323
33.9348
34.4638
34.9744
1243.92
-612.239
-126.59
-163.179
-52.4624
-38.9357
-0.153816
7.9514
20.7832
23.7157
27.8619
29.2146
30.715
31.4523
32.1205
32.646
33.254
33.851
1222.3
-651.024
-122.994
-166.452
-56.8583
-42.8213
-4.00067
5.01434
18.2325
21.6925
26.0263
27.593
29.2106
30.0908
30.9382
31.6244
32.2926
32.8977
1199.63
-674.618
-110.105
-169.528
-60.4349
-46.0248
-7.56413
2.43913
15.8516
19.9032
24.454
26.2444
27.9307
28.8892
29.8548
30.6999
31.4605
32.0642
1179.84
-686.592
-91.6504
-170.664
-63.5196
-48.3744
-10.9064
0.114728
13.4731
18.1766
22.9593
24.9345
26.6983
27.7373
28.7771
29.728
30.5995
31.2706
1164.22
-690.056
-69.5319
-167.233
-64.8856
-49.3289
-13.5977
-1.68639
11.1938
16.3912
21.3622
23.5371
25.3802
26.5038
27.6144
28.6745
29.7135
30.518
1151.48
-684.882
-42.5489
-158.167
-63.8404
-48.1455
-15.1955
-3.05272
9.11341
14.5341
19.5404
21.9403
23.9261
25.2124
26.4822
27.6626
28.8284
29.7284
1142.22
-670.862
-10.9507
-143.332
-58.8841
-44.1633
-15.0558
-3.56032
7.74573
13.0704
17.9505
20.5145
22.658
24.1635
25.6217
26.913
28.1065
29.0193
1135.35
-653.893
20.8129
-125.695
-50.9265
-38.0987
-12.6934
-2.82474
7.46534
12.4482
17.1706
19.8555
22.0665
23.6523
25.1812
26.506
27.6518
28.5469
1128.14
-635.817
51.387
-105.533
-39.5527
-30.1058
-8.64612
-1.06388
7.95539
12.4532
16.9395
19.6609
21.9226
23.5565
25.0826
26.3492
27.4361
28.3039
1122.62
-617.444
80.291
-84.6766
-23.4704
-19.5835
-2.42836
2.04321
9.37053
13.1535
17.2475
19.7706
22.0248
23.7991
25.3291
26.4648
27.5112
28.3701
1119.28
-599.979
97.0971
-72.8492
-6.26012
-9.22405
4.20358
5.73909
11.8879
14.9342
18.5179
20.5668
22.5875
24.1712
25.4794
26.5197
27.4839
28.2851
1116.96
-586.013
98.1607
-71.5326
8.20081
-1.69524
10.1452
9.88245
15.1606
17.1271
20.0852
21.7756
23.4509
24.6052
25.6414
26.5495
27.4496
28.3
1119.91
-569.444
84.0847
-74.6987
16.5557
-0.511379
13.7832
12.5441
17.4969
19.0731
21.6767
23.0251
24.5053
25.4938
26.3984
27.1385
27.8521
28.4962
1124.62
-548.969
73.1332
-79.4993
19.1022
-1.27366
15.6742
13.6629
19.1864
20.5499
22.9201
24.0663
25.4551
26.4408
27.3745