/*--------------------------------*- C++ -*----------------------------------*\
| =========                 |                                                 |
| \\      /  F ield         | OpenFOAM: The Open Source CFD Toolbox           |
|  \\    /   O peration     | Version:  2112                                  |
|   \\  /    A nd           | Website:  www.openfoam.com                      |
|    \\/     M anipulation  |                                                 |
\*---------------------------------------------------------------------------*/
FoamFile
{
    version     2.0;
    format      ascii;
    arch        "LSB;label=32;scalar=64";
    class       volScalarField;
    location    "0.03";
    object      ddt0(kU);
}
// * * * * * * * * * * * * * * * * * * * * * * * * * * * * * * * * * * * * * //

dimensions      [0 2 -3 0 0 0 0];

internalField   nonuniform List<scalar> 
12225
(
2.65416e-05
-0.000152732
-0.00115088
-0.00389649
-0.00959788
-0.019919
-0.0374852
-0.0679131
-0.122839
-0.224846
-0.411874
-0.743207
-1.29291
-1.7737
-2.44259
-4.14113
-6.31572
-8.95464
0.000243098
0.00140835
0.00439001
0.010628
0.0224185
0.04317
0.0772125
0.129487
0.205103
0.309131
0.444107
0.610612
0.819846
0.862877
0.952545
1.56584
2.24728
2.97981
-5.90358e-06
0.00015094
0.000655843
0.00169517
0.0038923
0.00802462
0.0151833
0.0269271
0.0452845
0.0729234
0.113417
0.172307
0.259135
0.3752
0.542149
0.816546
1.25948
1.98301
-3.30442e-06
-1.36987e-05
2.33731e-05
0.000155045
0.000467999
0.00107232
0.00213259
0.00387691
0.00665574
0.0109783
0.0175754
0.0277421
0.0436741
0.0685679
0.108332
0.174463
0.286975
0.482301
6.21286e-07
-2.99931e-05
-7.91122e-05
-0.000130715
-0.000168445
-0.000170014
-0.000105051
5.96088e-05
0.00037511
0.000916789
0.00182672
0.00323724
0.00543734
0.00889542
0.0144682
0.0238139
0.0400614
0.0689266
3.33027e-06
-2.12915e-05
-6.4985e-05
-0.000118018
-0.000179456
-0.000247491
-0.000317671
-0.000387363
-0.000453966
-0.000511035
-0.000541078
-0.000533399
-0.000462184
-0.000285918
7.81637e-05
0.000793861
0.00218565
0.00486989
5.50001e-06
-1.23254e-05
-4.96646e-05
-9.97095e-05
-0.000162836
-0.000239804
-0.000329353
-0.000431613
-0.000548182
-0.000679595
-0.000824703
-0.000982475
-0.00115217
-0.0013346
-0.00153231
-0.00175166
-0.00199718
-0.00224298
6.94082e-06
-5.50951e-06
-3.71724e-05
-8.22433e-05
-0.000139787
-0.000210597
-0.000294281
-0.000391163
-0.00050308
-0.000631916
-0.000779102
-0.000946954
-0.00113998
-0.0013663
-0.00163837
-0.00197433
-0.0023957
-0.0029171
7.79236e-06
-1.98244e-07
-2.60399e-05
-6.5284e-05
-0.000116497
-0.000180654
-0.000258071
-0.000349056
-0.000454971
-0.000577571
-0.000718439
-0.000879718
-0.00106515
-0.00128082
-0.00153543
-0.00184023
-0.00220818
-0.00264566
8.20063e-06
3.81924e-06
-1.65279e-05
-5.00101e-05
-9.51109e-05
-0.000152626
-0.000223134
-0.000306841
-0.000404579
-0.00051769
-0.000647559
-0.000795912
-0.000965554
-0.00116089
-0.00138804
-0.00165442
-0.00196796
-0.00233166
8.26062e-06
6.62723e-06
-8.84939e-06
-3.67785e-05
-7.57947e-05
-0.000126408
-0.000189303
-0.000264747
-0.000353271
-0.000455864
-0.000573667
-0.000708038
-0.000860998
-0.00103557
-0.00123578
-0.00146612
-0.0017308
-0.00203059
8.07653e-06
8.35893e-06
-3.1762e-06
-2.61973e-05
-5.9632e-05
-0.00010378
-0.000159336
-0.000226625
-0.000305977
-0.00039804
-0.000503652
-0.000623806
-0.000759898
-0.000913942
-0.00108854
-0.00128639
-0.00150977
-0.00175868
7.70828e-06
9.32269e-06
1.06861e-06
-1.74788e-05
-4.56302e-05
-8.35424e-05
-0.000131817
-0.000190795
-0.00026069
-0.000341895
-0.000434981
-0.00054064
-0.000659801
-0.000793774
-0.000944224
-0.00111283
-0.00130078
-0.001508
7.0818e-06
9.60542e-06
4.34154e-06
-9.61746e-06
-3.20447e-05
-6.30811e-05
-0.000103203
-0.000152717
-0.000211738
-0.000280435
-0.000359114
-0.000448186
-0.000548201
-0.000659921
-0.000784327
-0.000922383
-0.00107447
-0.0012406
6.16451e-06
9.12511e-06
6.30389e-06
-3.40252e-06
-2.00341e-05
-4.36944e-05
-7.47322e-05
-0.000113416
-0.000159824
-0.000213998
-0.000276058
-0.000346205
-0.000424709
-0.000511922
-0.000608447
-0.000715118
-0.000831548
-0.000957772
4.9091e-06
7.88003e-06
7.13793e-06
1.4587e-06
-9.48809e-06
-2.57985e-05
-4.75971e-05
-7.49798e-05
-0.000107939
-0.000146428
-0.000190454
-0.000240095
-0.000295445
-0.000356667
-0.000424467
-0.000498756
-0.000579038
-0.000666254
3.20053e-06
5.32974e-06
5.41762e-06
2.73828e-06
-3.14985e-06
-1.22387e-05
-2.44547e-05
-3.97192e-05
-5.79435e-05
-7.9118e-05
-0.000103347
-0.000130835
-0.000161699
-0.000195516
-0.000233017
-0.000275037
-0.000321352
-0.00037094
1.21798e-06
2.22867e-06
2.90759e-06
2.84475e-06
1.2685e-06
-1.33911e-06
-4.3496e-06
-7.44406e-06
-1.06773e-05
-1.42129e-05
-1.82678e-05
-2.30427e-05
-2.88246e-05
-3.62747e-05
-4.47377e-05
-5.43158e-05
-6.62809e-05
-8.1828e-05
-1.16459e-06
-1.7531e-06
-1.20348e-06
1.0599e-06
5.64643e-06
1.21582e-05
2.01648e-05
2.94812e-05
4.01505e-05
5.22628e-05
6.59158e-05
8.11473e-05
9.78486e-05
0.000115737
0.000134341
0.000153235
0.000172359
0.00019094
-2.99115e-06
-4.52901e-06
-3.3145e-06
1.29476e-06
9.56626e-06
2.15195e-05
3.71739e-05
5.64839e-05
7.93487e-05
0.000105702
0.000135516
0.000168697
0.000205001
0.000244034
0.000285324
0.000328388
0.000372587
0.000417175
-4.23223e-06
-6.11797e-06
-3.76619e-06
3.58743e-06
1.58728e-05
3.30495e-05
5.51808e-05
8.22327e-05
0.000114049
0.000150462
0.000191327
0.00023644
0.000285469
0.000337946
0.000393315
0.000450946
0.000510219
0.000570432
-4.95786e-06
-6.19838e-06
-1.42153e-06
9.518e-06
2.60411e-05
4.81207e-05
7.59914e-05
0.000109667
0.000149011
0.000193942
0.000244411
0.000300228
0.000360975
0.000426027
0.000494619
0.000565886
0.000638948
0.000712833
-5.27343e-06
-5.06133e-06
2.99939e-06
1.80864e-05
3.9091e-05
6.59217e-05
9.86547e-05
0.000137073
0.000181023
0.000230639
0.000286117
0.000347416
0.000414173
0.00048577
0.000561433
0.000640298
0.000721461
0.000804204
-5.14133e-06
-2.50377e-06
9.61148e-06
2.93296e-05
5.58027e-05
8.93938e-05
0.000129965
0.00017686
0.000229791
0.000289
0.000354714
0.000426681
0.000504124
0.0005859
0.000670638
0.000756793
0.000842849
0.000926883
-4.41043e-06
2.04358e-06
1.8305e-05
3.98698e-05
6.59892e-05
9.77608e-05
0.000135236
0.000177868
0.000225848
0.000280116
0.000341416
0.000409718
0.000484286
0.000563926
0.000647198
0.000732507
0.000817962
0.000901984
-3.13781e-06
9.57759e-06
3.62756e-05
7.07273e-05
0.000110464
0.000154006
0.000198283
0.000239776
0.000275688
0.000302684
0.000314944
0.000309015
0.000278583
0.000214152
0.000105489
-5.80778e-05
-0.000287146
-0.000592839
-1.54529e-06
6.63331e-06
1.29086e-05
9.04021e-06
-1.36242e-05
-6.39285e-05
-0.000161789
-0.000329005
-0.000592436
-0.000990555
-0.00157365
-0.00237452
-0.00344787
-0.00486384
-0.00669233
-0.00900607
-0.0118829
-0.0154037
1.02387e-05
-1.6156e-05
-0.000124254
-0.000369704
-0.000829524
-0.00149045
-0.00257957
-0.00430388
-0.00694341
-0.0108517
-0.016435
-0.024172
-0.0345321
-0.0479537
-0.06485
-0.08562
-0.110683
-0.14053
-0.000108413
-0.000622048
-0.00185294
-0.00418706
-0.00815517
-0.0144879
-0.0241184
-0.0381862
-0.0579978
-0.0850292
-0.120806
-0.166798
-0.224273
-0.294167
-0.376997
-0.472878
-0.581445
-0.701859
-2.40628e-05
2.08689e-05
0.000353439
0.00128995
0.00315835
0.00627956
0.0110007
0.0176804
0.0266332
0.0365862
0.0481897
0.0623199
0.0802223
0.104039
0.137322
0.185521
0.25651
0.361821
-1.02621
-1.11151
-1.32484
-1.60312
-1.92742
-2.29063
-2.69198
-3.13503
-3.62444
-4.16213
-4.74508
-5.36518
-6.0111
-6.67139
-7.33785
-8.00843
-8.68868
-9.3916
-10.1361
-10.9446
-11.8409
-12.8507
-14.0143
-15.4336
-16.9566
-18.5628
-20.208
-21.8341
-23.3729
-24.7557
-25.9259
-26.8496
-27.5183
-27.9345
-28.0657
-27.7607
-26.3581
-19.9603
7.74343
112.484
360.318
657.195
862.3
976.162
1025.22
1028.86
1002.85
957.721
897.924
823.088
730.257
615.779
474.084
320.551
157.315
-3.3087
-151.825
-280.043
-382.367
-456.418
-502.455
-522.967
-521.706
-502.659
-469.454
-425.31
-373.186
-315.741
-255.375
-194.244
-133.559
-73.0116
-12.3332
48.6745
86.8812
123.36
156.635
186.241
212.129
234.321
252.851
267.792
279.255
287.397
292.412
294.503
293.893
290.837
285.876
279.784
273.33
266.619
258.65
248.802
237.292
224.305
209.892
194.177
177.054
158.421
137.897
114.617
86.9009
49.9804
-2.66658
-71.8276
-169.294
-228.434
-268.356
-296.326
-322.013
-344.122
-363.099
-378.71
-390.213
-397.298
-399.542
-395.944
-384.645
-364.122
-333.256
-291.518
-238.387
-173.773
-98.0873
-12.0198
118.754
271.233
449.554
654.652
885.463
1137.91
1403.06
1666.71
1910
2111.27
2249.67
2310.16
2287.77
2189.21
2030.71
1833.29
1617.85
1401.76
1197.38
1012.28
850.073
711.534
595.531
499.781
421.478
357.73
305.844
263.458
228.553
199.423
174.611
152.856
133.029
114.102
95.1753
75.5346
54.7418
32.7519
10.1235
-12.5991
-39.6257
-68.9332
-98.6856
-127.37
-153.821
-177.142
-196.683
-211.807
-221.73
-226.215
-226.187
-220.273
-212.861
-203.187
-1.38278
-1.28389
-1.34995
-1.46276
-1.59176
-1.73471
-1.9017
-2.10529
-2.35432
-2.65126
-2.99175
-3.36522
-3.75665
-4.14935
-4.52836
-4.8835
-5.21143
-5.51629
-5.80899
-6.10541
-6.42363
-6.77859
-7.16595
-7.5303
-8.03832
-8.6244
-9.2804
-9.99301
-10.7526
-11.5598
-12.4316
-13.4001
-14.4971
-15.711
-16.8875
-17.4137
-15.3676
-5.83454
30.4171
140.634
355.786
591.638
747.579
818.499
829.329
800.377
745.297
671.399
581.027
474.183
351.53
216.583
75.7592
-56.5586
-172.211
-263.567
-326.364
-360.137
-367.527
-353.202
-322.724
-281.594
-234.821
-186.665
-140.642
-99.5401
-65.2238
-38.5241
-19.4763
-7.62608
-2.31115
-3.60507
-11.3958
-26.8092
-30.3772
-33.032
-35.3591
-37.2981
-38.7625
-39.7006
-40.0695
-39.8187
-38.9051
-37.2973
-34.9892
-32.0218
-28.5115
-24.7088
-21.0773
-18.3783
-17.5878
-19.185
-22.2187
-25.2307
-27.6842
-29.4739
-30.6822
-31.4299
-32.0141
-32.8298
-34.5362
-37.6819
-44.6067
-54.6561
-67.3085
-80.6029
-93.2449
-102.788
-114.127
-124.607
-126.292
-131.589
-137.536
-143.525
-148.867
-153.592
-156.096
-156.364
-154.905
-151.762
-146.545
-138.559
-127.542
-113.403
-96.2732
-77.1456
-73.6411
-55.4589
-26.1361
16.9809
77.1086
157.37
259.313
381.617
518.355
658.398
787.325
890.608
957.147
982.419
968.563
922.359
853.015
770.169
682.41
596.454
516.895
446.295
385.521
334.244
291.427
255.742
225.85
200.557
178.883
160.054
143.473
128.667
115.239
102.833
91.1173
79.7942
68.6252
57.4645
46.4002
35.6345
24.3361
11.459
-1.8757
-15.0067
-27.4684
-38.9155
-49.1203
-57.9326
-65.0279
-70.0355
-73.0428
-74.1528
-74.3161
-74.678
-2.06074
-1.56125
-1.45226
-1.457
-1.49587
-1.55513
-1.64637
-1.78546
-1.98304
-2.24214
-2.55872
-2.92242
-3.31769
-3.7256
-4.1266
-4.50346
-4.84381
-5.14171
-5.39798
-5.61946
-5.81703
-6.00228
-6.18015
-6.3233
-6.40173
-6.45412
-6.52433
-6.61965
-6.77174
-7.04294
-7.5323
-8.365
-9.64937
-11.3705
-13.0919
-12.6974
-6.89998
11.9771
63.9624
178.796
357.438
536.378
650.413
691.084
678.23
630.69
559.845
470.736
365.367
246.282
119.052
-7.37964
-122.519
-216.561
-283.669
-322.016
-333.686
-323.538
-297.794
-262.863
-224.512
-187.419
-154.892
-128.846
-110.042
-98.3211
-92.8627
-92.5245
-96.1026
-102.446
-110.227
-117.574
-124.371
-126.153
-126.038
-124.72
-122.437
-119.315
-115.51
-111.126
-106.288
-101.11
-95.7316
-90.3027
-84.981
-79.9293
-75.3133
-71.3028
-68.0822
-65.7265
-64.2341
-63.3298
-62.4347
-61.0725
-59.0099
-56.0461
-51.1336
-48.5144
-46.1431
-44.1527
-42.5271
-43.0577
-42.8746
-47.33
-47.8679
-52.4293
-54.7595
-60.3538
-68.4429
-77.2346
-83.0902
-89.1027
-95.2928
-101.484
-107.197
-108.559
-109.565
-109.805
-108.909
-106.866
-103.36
-98.4537
-92.2102
-84.8939
-77.0114
-69.4123
-65.3224
-72.6134
-82.2571
-93.1789
-102.624
-106.28
-98.4755
-73.329
-26.3357
44.1259
135.365
239.044
342.648
434.199
504.797
549.252
566.106
557.2
526.995
481.68
428.104
372.692
320.524
274.726
236.479
205.591
181.121
161.857
146.625
134.456
124.623
116.601
109.987
104.419
99.5185
94.8798
90.0869
84.75
78.4772
70.852
64.3772
56.9208
49.0372
41.0287
33.0915
25.3926
18.0359
11.0913
4.87583
-0.130895
-3.8688
-7.57889
-9.34373
-12.311
-2.56752
-1.61457
-1.39319
-1.32813
-1.29992
-1.29454
-1.3276
-1.41797
-1.57761
-1.8102
-2.11267
-2.47639
-2.88758
-3.32816
-3.77735
-4.21383
-4.61817
-4.97485
-5.27358
-5.5098
-5.68406
-5.80031
-5.86367
-5.87929
-5.86324
-5.79202
-5.49793
-5.2059
-4.96849
-4.91218
-5.21559
-6.07696
-7.61696
-9.64917
-11.0612
-8.15926
1.93254
29.0237
89.5338
197.831
341.605
477.319
560.658
581.21
555.219
498.659
420.938
326.447
218.635
103.226
-10.9128
-113.362
-195.031
-250.496
-278.912
-283.379
-269.708
-244.871
-215.619
-187.477
-164.19
-147.606
-137.891
-134.088
-134.705
-138.16
-143.04
-148.22
-152.862
-156.444
-158.728
-158.683
-156.241
-152.689
-148.296
-143.157
-137.422
-131.243
-124.953
-118.498
-111.951
-105.436
-99.1225
-93.1575
-87.6567
-82.6984
-78.308
-74.3281
-71.5345
-69.1645
-66.9849
-64.7465
-62.221
-59.2233
-55.61
-51.4265
-46.8554
-41.9541
-37.1284
-33.2435
-26.6336
-27.6904
-19.1385
-25.7779
-25.1893
-24.7449
-25.6817
-28.6043
-33.1755
-38.8466
-45.0076
-51.7903
-59.2339
-67.2445
-75.5809
-83.0213
-89.8539
-95.8763
-99.8438
-101.696
-102.689
-102.379
-100.715
-97.8011
-93.9539
-89.82
-86.7622
-87.8176
-92.2941
-101.037
-114.094
-129.905
-144.927
-153.708
-149.652
-126.618
-81.0092
-13.1517
72.3696
166.865
259.499
339.64
398.621
431.181
436.368
417.506
381.088
334.938
286.352
240.847
201.73
170.263
146.158
128.218
115.026
105.362
98.2914
93.133
89.3752
86.5806
84.3092
82.0745
79.3278
75.4664
69.8634
61.9409
54.6096
48.7326
43.6574
39.1535
35.102
31.4504
28.1521
25.1818
22.6977
20.9751
20.0709
18.7901
17.6173
16.1729
-3.021
-1.59473
-1.29073
-1.16239
-1.07161
-1.00198
-0.972467
-1.00578
-1.11592
-1.30735
-1.57796
-1.92087
-2.32483
-2.77416
-3.24932
-3.72794
-4.18647
-4.60191
-4.95358
-5.22451
-5.40206
-5.47763
-5.44565
-5.30432
-5.06433
-4.7769
-4.53823
-3.98184
-3.44856
-3.14362
-3.28808
-4.07187
-5.46864
-6.8647
-5.99868
-1.16884
11.9036
42.8153
102.999
196.883
311.546
416.496
478.902
488.783
458.086
400.052
322.739
231.042
130.291
28.3332
-65.0404
-140.584
-192.281
-218.72
-222.84
-210.601
-189.307
-165.957
-145.951
-132.394
-126.108
-126.18
-130.765
-137.816
-145.563
-152.71
-158.422
-162.214
-163.842
-163.204
-159.508
-155.085
-149.678
-143.564
-137.087
-130.164
-122.814
-114.768
-108.703
-102.978
-97.5283
-92.3423
-87.5051
-83.0951
-79.1675
-75.7572
-72.8735
-70.4796
-68.4986
-66.7398
-64.9783
-62.9707
-60.4972
-57.3959
-53.3221
-48.4603
-43.9718
-38.0181
-30.2553
-28.8928
-15.196
-21.415
-18.5895
-16.4023
-14.4342
-12.955
-12.3593
-12.9256
-14.6487
-17.374
-21.0054
-25.5395
-30.9522
-37.1688
-44.0731
-51.4393
-59.1302
-66.9773
-74.5566
-81.0254
-86.8924
-92.2399
-96.8234
-100.519
-103.281
-105.267
-106.864
-108.782
-111.674
-116.787
-125.069
-136.691
-150.553
-163.859
-172.091
-169.701
-151.455
-113.68
-55.5209
19.5637
104.07
187.942
260.571
313.16
340.811
343.498
325.502
293.635
255.139
216.085
180.576
150.644
126.714
108.291
94.4681
84.2374
76.6019
70.7504
66.1322
62.3062
58.8603
55.4017
51.5648
47.0211
41.4965
34.7781
27.8464
22.6147
18.4238
15.1244
12.6057
10.7788
9.52237
8.66299
8.00444
7.9398
8.46873
8.68086
8.77024
9.75315
-3.569
-1.59841
-1.15201
-0.961555
-0.812824
-0.678667
-0.581689
-0.549666
-0.599563
-0.736934
-0.960198
-1.26353
-1.63753
-2.06897
-2.5405
-3.03077
-3.51494
-3.96567
-4.35444
-4.65314
-4.83557
-4.87834
-4.7612
-4.46823
-3.99308
-3.35723
-2.66044
-2.17741
-1.62009
-1.01552
-0.870975
-1.24582
-1.81815
-1.53205
1.50092
6.93542
21.6608
52.1037
105.864
184.392
276.51
358.663
407.021
412.807
383.434
329.297
257.666
174.157
85.4154
0.0658199
-72.6764
-125.588
-155.504
-163.851
-155.751
-138.34
-118.89
-103.176
-94.5049
-93.6137
-99.2907
-109.286
-121.136
-132.717
-142.499
-149.6
-153.669
-154.642
-152.504
-147.376
-140.703
-132.749
-123.936
-113.938
-106.665
-100.046
-94.0957
-88.7507
-84.0505
-79.9135
-76.2831
-73.0951
-70.3041
-67.8866
-65.8305
-64.1344
-62.7922
-61.7692
-61.0208
-60.3995
-59.6458
-58.4869
-56.7054
-54.4303
-50.4435
-44.4816
-40.5982
-36.0607
-21.6358
-26.4237
-22.4297
-19.2121
-16.248
-13.6897
-11.5248
-9.79933
-8.65417
-8.22848
-8.57312
-9.66707
-11.481
-14.0058
-17.2282
-21.1172
-25.6199
-30.6803
-36.254
-42.2923
-48.6956
-54.8949
-61.3062
-67.9327
-74.7534
-81.7597
-88.9435
-96.2985
-103.823
-111.47
-118.991
-126.961
-136.11
-147.041
-159.773
-173.227
-184.93
-191.016
-186.768
-167.668
-130.787
-76.1469
-7.47439
68.0262
140.992
202.104
244.482
265.327
266.131
251.512
227.375
199.24
171.214
145.738
123.87
105.777
91.1186
79.3033
69.7622
61.9989
55.5424
49.9811
44.9674
40.2039
35.4472
30.5203
25.3206
19.826
14.0706
9.58669
6.06574
3.47831
1.79311
0.935728
0.787302
1.164
2.14218
3.13847
4.11865
4.86953
5.01638
5.57874
-4.0796
-1.59056
-1.00007
-0.747857
-0.545717
-0.350612
-0.186672
-0.0866067
-0.0710328
-0.147087
-0.313603
-0.565071
-0.892951
-1.28554
-1.72742
-2.19895
-2.67583
-3.12909
-3.5255
-3.82867
-4.00049
-4.00292
-3.79973
-3.35885
-2.65708
-1.6909
-0.49883
0.793337
1.84381
2.39321
2.68408
2.96154
3.74198
5.80961
8.96012
16.6445
31.3413
58.0064
102.735
167.422
241.872
307.541
346.826
351.863
327.112
280.041
217.069
144.171
68.521
-1.37382
-57.383
-94.0813
-110.244
-108.861
-95.9314
-78.6336
-63.4272
-54.6338
-53.9341
-60.7668
-73.1889
-88.7143
-104.895
-119.639
-131.382
-139.182
-142.742
-142.162
-137.541
-129.647
-118.494
-108.576
-98.7014
-89.391
-81.0793
-73.862
-67.8465
-62.9748
-59.1842
-56.2984
-54.1917
-52.6674
-51.5658
-50.7782
-50.2366
-49.9281
-49.8746
-50.0861
-50.5666
-51.316
-51.7642
-51.4715
-49.9361
-48.399
-45.2604
-37.9039
-29.1288
-28.9192
-23.8188
-19.6099
-15.9762
-13.0706
-10.7779
-8.96514
-7.53725
-6.46554
-5.78496
-5.55107
-5.79773
-6.52717
-7.72752
-9.38676
-11.4932
-14.0266
-16.9609
-20.2704
-23.9402
-27.9677
-32.3424
-36.7214
-41.4569
-46.6013
-52.2551
-58.5523
-65.6442
-73.6894
-82.8529
-93.5579
-105.058
-117.346
-130.551
-144.846
-160.196
-176.1
-191.18
-202.89
-207.645
-201.368
-180.506
-143.281
-90.7672
-27.302
40.0656
103.107
154.479
189.538
207.167
209.408
200.243
184.146
164.974
145.412
126.965
110.256
95.3847
82.225
70.6415
60.5252
51.7416
44.1311
37.5046
31.6444
26.3226
21.3339
16.5316
11.8526
7.32454
3.28008
0.28656
-1.68211
-2.64981
-2.69019
-1.92624
-0.426234
1.45545
3.09396
4.46043
5.50713
5.89144
6.24779
-4.57899
-1.59549
-0.862416
-0.55018
-0.299545
-0.0495658
0.176567
0.342563
0.424227
0.41244
0.307761
0.115656
-0.155483
-0.494566
-0.887389
-1.31587
-1.75705
-2.18215
-2.55608
-2.83736
-2.97908
-2.9305
-2.63972
-2.05722
-1.14158
0.130224
1.74519
3.62705
5.60598
7.41111
8.86428
9.99511
11.4129
13.99
18.8453
27.0726
40.4737
62.7093
98.6058
149.77
209.373
263.018
296.411
302.995
284.423
245.791
192.553
130.547
66.8376
9.37144
-34.7395
-61.2401
-69.8575
-64.0791
-49.8557
-33.7759
-21.3072
-15.6905
-17.8109
-26.8301
-41.0287
-58.4235
-77.0372
-94.938
-110.255
-121.364
-127.337
-128.173
-123.436
-116.374
-106.789
-95.9616
-84.7615
-73.9777
-64.2454
-55.8665
-49.0585
-43.7777
-39.8588
-37.1301
-35.4154
-34.491
-34.1581
-34.2739
-34.7132
-35.4351
-36.4847
-37.8451
-39.511
-41.936
-43.8911
-44.458
-42.3422
-37.7654
-35.7438
-29.258
-22.2424
-15.478
-9.64123
-5.23442
-2.27573
-0.524948
0.359252
0.682393
0.652281
0.372183
-0.128434
-0.854089
-1.81842
-3.02148
-4.45655
-6.11138
-7.98727
-10.0702
-12.3463
-14.8035
-17.4377
-20.252
-23.2585
-26.4266
-29.5976
-33.0734
-36.9786
-41.4663
-46.7447
-53.0636
-60.7423
-71.4231
-82.4908
-95.855
-111.048
-127.976
-146.482
-166.034
-185.526
-203.021
-215.643
-219.836
-212.02
-189.587
-151.946
-101.197
-42.1002
18.7787
74.5544
119.636
150.875
167.89
172.573
168.104
157.868
144.655
130.314
115.832
101.648
87.9811
75.0303
63.03
52.2103
42.7239
34.5904
27.6854
21.776
16.5899
11.8926
7.5468
3.53941
-0.0398634
-2.7473
-4.34206
-4.86391
-4.40843
-3.12808
-1.13644
1.41189
3.62471
5.42439
6.78532
7.65678
8.01974
-5.03301
-1.62799
-0.762463
-0.394839
-0.10258
0.192842
0.471575
0.696048
0.839522
0.890935
0.849947
0.721771
0.514696
0.239487
-0.0904231
-0.458276
-0.842781
-1.21659
-1.54486
-1.78418
-1.88235
-1.77931
-1.40946
-0.705328
0.396581
1.94638
3.96366
6.39522
8.96512
11.502
14.0263
16.5285
19.3719
23.3484
29.1871
37.4466
49.1442
66.7866
94.2667
133.525
180.35
224.274
253.93
262.884
250.788
220.758
177.139
125.196
71.4369
23.0791
-13.5313
-34.6825
-40.2522
-33.4627
-19.6486
-4.54833
7.25871
13.2093
12.699
6.39636
-4.54186
-18.9767
-35.8971
-54.2115
-72.4057
-88.3886
-99.9993
-105.944
-105.659
-101.435
-93.6595
-83.6019
-72.5167
-61.549
-51.4133
-42.5724
-35.2126
-29.4337
-25.1832
-22.307
-20.62
-19.9044
-19.9559
-20.7001
-22.0805
-23.8514
-26.1383
-28.8047
-31.513
-34.7126
-38.1057
-38.6581
-36.3267
-31.2133
-23.4199
-13.752
-3.78252
4.99287
11.4857
15.3595
16.9154
16.7769
15.5938
13.8702
11.9184
9.88732
7.83727
5.78901
3.72866
1.66165
-0.412013
-2.50213
-4.61085
-6.74153
-8.89865
-11.0843
-13.3004
-15.5472
-17.8327
-20.1736
-22.5797
-25.1288
-27.703
-30.6402
-34.1367
-38.4438
-43.9293
-52.0271
-61.608
-73.3897
-87.6972
-104.527
-123.829
-145.261
-167.933
-190.242
-209.704
-223.047
-226.669
-217.432
-193.596
-155.572
-106.186
-50.3107
6.07248
57.1252
98.3471
127.357
144.058
150.19
148.462
141.606
131.729
120.125
107.483
94.2246
80.7681
67.6153
55.2962
44.2489
34.7136
26.6935
19.9951
14.3254
9.40582
5.06083
1.25386
-1.93501
-4.36948
-5.66597
-5.87621
-5.1348
-3.62558
-1.54218
1.02285
3.6545
5.82927
7.50666
8.69157
9.40044
-5.4114
-1.69102
-0.712338
-0.298905
0.0236327
0.350014
0.665875
0.935119
1.13031
1.23913
1.26022
1.19809
1.06039
0.857106
0.600607
0.306085
-0.00729732
-0.314614
-0.583093
-0.770138
-0.821931
-0.673085
-0.247564
0.539193
1.7774
3.5602
5.8716
8.56423
11.6484
15.1587
18.9428
22.9271
27.31
32.619
39.4143
47.8266
58.0052
71.482
91.3396
119.968
155.546
191.042
217.51
228.637
222.54
200.61
165.958
122.953
77.2456
35.2339
2.69591
-16.7626
-22.6283
-17.3672
-5.3885
8.46653
20.2977
27.8918
30.6844
29.1464
24.0882
16.1543
5.61956
-7.50614
-23.0511
-39.931
-55.5978
-67.619
-72.8404
-72.5789
-68.0582
-60.6338
-51.6978
-42.5551
-34.1475
-27.2205
-21.5965
-17.0482
-13.9042
-11.9989
-11.159
-11.2097
-11.875
-12.9802
-15.4409
-18.0433
-21.3155
-24.9899
-29.0827
-32.7733
-34.7611
-33.694
-28.3349
-18.9438
-6.45858
7.49001
20.5597
30.7079
36.8547
39.0775
38.2446
35.483
31.7577
27.7139
23.7008
19.8463
16.2088
12.7873
9.58602
6.60209
3.81524
1.19439
-1.28139
-3.64164
-5.9093
-8.09856
-10.2149
-12.2594
-14.2324
-16.1382
-17.9928
-19.8355
-21.7114
-23.7404
-26.0749
-28.8534
-32.2888
-37.5605
-44.9403
-54.3255
-66.2846
-81.1304
-99.009
-119.872
-143.24
-167.957
-192
-212.431
-225.674
-228.163
-217.212
-191.823
-153.158
-104.501
-50.7385
2.52839
50.0661
88.0176
114.557
129.963
136.077
135.379
130.114
121.832
111.418
99.4082
86.3158
72.7835
59.5468
47.2846
36.4663
27.2721
19.6174
13.259
7.92982
3.44424
-0.25975
-3.14571
-5.21801
-6.23094
-6.20947
-5.28075
-3.63181
-1.4859
0.903778
3.40866
5.71818
7.52093
8.82952
9.71453
-5.68575
-1.77866
-0.714617
-0.271404
0.063952
0.400809
0.73208
1.02598
1.25674
1.41201
1.4896
1.49279
1.42769
1.30252
1.1276
0.91568
0.682944
0.450765
0.24818
0.114528
0.101861
0.276753
0.721597
1.53654
2.84389
4.69396
7.03498
9.94089
13.5445
17.8334
22.7326
28.1739
34.2098
41.0826
49.0436
57.9957
67.5223
77.9767
91.5161
110.811
136.098
163.447
186.248
198.6
197.501
182.813
156.341
121.332
82.3673
44.9153
14.2213
-6.03352
-14.6619
-13.0918
-4.62993
6.80718
17.9055
26.4838
31.846
34.2002
34.1484
32.242
28.7181
23.3853
15.6269
4.86603
-7.71147
-22.2185
-29.5722
-31.8476
-30.1787
-25.9242
-20.3674
-14.6799
-9.62047
-6.0668
-6.73879
-5.75524
-5.76256
-6.54217
-7.8543
-9.62154
-11.6342
-13.8289
-16.1547
-18.7372
-22.0059
-25.1962
-28.6877
-31.2949
-31.2669
-27.0271
-16.9225
-1.76458
16.0043
34.0122
49.1605
59.0602
63.0871
62.1953
58.0188
52.17
45.8009
39.5441
33.6518
28.1936
23.1854
18.6085
14.4627
10.7222
7.34553
4.28029
1.47047
-1.13455
-3.57366
-5.87003
-8.03295
-10.0585
-11.9357
-13.65
-15.195
-16.5811
-17.8422
-19.0498
-20.323
-21.8337
-23.8393
-27.0562
-32.3589
-39.2697
-48.4811
-60.5056
-75.734
-94.3938
-116.37
-141.011
-166.885
-191.604
-211.891
-224.026
-224.606
-211.421
-184.111
-144.42
-96.0156
-43.9028
6.46865
50.2779
84.3013
107.433
120.526
125.621
124.959
120.276
112.614
102.565
90.6431
77.5152
64.019
51.0171
39.2035
28.9736
20.4087
13.3639
7.60413
2.92324
-0.796028
-3.58508
-5.4868
-6.43567
-6.31423
-5.2169
-3.3382
-0.965036
1.56804
3.93878
5.98104
7.66153
8.80585
9.52535
-5.8294
-1.87789
-0.763372
-0.313352
0.0103464
0.330669
0.649299
0.941444
1.18573
1.37142
1.49587
1.56041
1.56833
1.52459
1.43604
1.31176
1.16384
1.00899
0.871101
0.784271
0.795957
0.97005
1.39019
2.16887
3.42661
5.16816
7.43483
10.4118
14.2281
18.9443
24.5923
31.1853
38.7441
47.3202
56.8979
67.1157
77.1942
86.5826
96.066
107.935
123.952
142.977
160.938
172.904
175.291
166.682
147.55
119.906
87.0866
53.4824
23.757
1.54767
-11.2634
-14.9831
-11.739
-5.36366
3.74445
11.7964
18.2758
23.0439
26.3802
28.6716
30.1938
30.9897
30.7611
28.7204
25.4951
17.3497
12.507
10.3485
10.285
11.4437
12.8559
13.6641
13.3479
11.6527
8.67968
4.68394
-0.0578112
-5.02945
-9.75726
-14.0243
-17.6286
-20.7361
-23.2803
-24.9558
-26.9647
-27.8922
-28.2767
-28.1914
-24.6301
-15.9502
-0.62601
21.9991
44.3431
64.4861
79.3975
86.5595
86.3346
81.0346
73.0366
64.1998
55.5755
47.5896
40.3078
33.6708
27.6699
22.288
17.4985
13.2609
9.50496
6.14833
3.10774
0.312418
-2.28868
-4.72357
-6.99733
-9.09438
-10.985
-12.633
-14.0059
-15.0847
-15.8749
-16.4168
-16.795
-17.1498
-17.7016
-18.9938
-22.235
-26.9528
-33.6603
-42.9412
-55.301
-70.9877
-90.3354
-113.144
-138.546
-164.814
-189.242
-208.343
-218.404
-216.314
-200.372
-170.817
-129.965
-81.9196
-31.8964
14.8002
53.9103
83.0865
102.129
112.475
116.231
115.25
110.707
103.215
93.211
81.2861
68.2822
55.1723
42.8437
31.9104
22.6357
14.9806
8.73009
3.63431
-0.48958
-3.71734
-6.03256
-7.29944
-7.1072
-5.56431
-2.98389
0.148157
3.28906
6.00844
8.06099
9.39228
10.1034
10.2762
-5.81313
-1.9666
-0.841853
-0.414119
-0.133578
0.136418
0.407862
0.665435
0.895087
1.08983
1.24704
1.36505
1.44237
1.47851
1.475
1.43592
1.36837
1.28384
1.20042
1.14593
1.16128
1.30404
1.65266
2.31329
3.42382
4.99254
7.05084
9.84912
13.5441
18.258
24.1137
31.2384
39.7434
49.6801
60.9389
73.0469
84.9967
95.5536
104.271
112.127
121.1
132.259
144.202
153.744
157.542
153.411
140.407
119.554
92.6785
62.0251
34.0568
10.9094
-5.43995
-14.5433
-17.3473
-15.9705
-11.4432
-5.85018
-0.119886
5.31551
10.3921
15.2187
19.9167
24.5193
28.9151
32.857
36.3993
39.7967
40.0875
41.5036
42.864
43.1662
41.8672
38.6718
33.4881
26.5464
18.2279
9.06887
-0.324662
-9.31867
-17.389
-24.0598
-28.7636
-31.9646
-34.0302
-32.4133
-32.1939
-31.1494
-28.0642
-21.5216
-10.153
6.72133
28.6106
53.224
76.694
95.3314
107.42
109.064
102.633
92.5032
81.1447
70.1574
60.1674
51.2226
43.1281
35.7422
29.1759
23.3853
18.3066
13.8764
9.97973
6.50623
3.34852
0.421943
-2.32892
-4.92771
-7.36542
-9.60507
-11.5891
-13.2501
-14.5236
-15.3609
-15.7416
-15.6829
-15.2473
-14.5504
-13.7787
-13.364
-14.669
-17.1577
-21.3111
-27.7475
-37.0985
-49.8719
-66.3387
-86.3366
-109.763
-135.491
-161.488
-184.795
-201.826
-209.022
-203.674
-184.657
-152.865
-111.245
-64.3724
-17.5763
24.2372
57.6908
81.5331
96.4624
104.291
106.922
105.667
101.166
93.7327
83.7852
72.0563
59.5317
47.2202
35.9078
26.0129
17.5859
10.4323
4.29044
-1.01116
-5.47499
-8.89003
-10.5868
-9.87656
-7.08426
-2.84787
2.00538
6.6464
10.4255
12.989
14.281
14.4409
13.7461
-5.59436
-2.00739
-0.917425
-0.545412
-0.345946
-0.167137
0.0156528
0.199015
0.379163
0.555167
0.72497
0.882549
1.01889
1.12512
1.19519
1.22694
1.22234
1.18807
1.13722
1.09184
1.08599
1.16898
1.40872
1.89562
2.74706
4.09606
5.91987
8.31621
11.5902
15.8926
21.3918
28.2923
36.8211
47.1618
59.3296
72.9858
87.2475
100.695
111.884
120.299
126.742
132.736
138.999
144.728
147.729
147.8
135.568
119.931
99.0766
74.1413
49.1298
26.5026
8.15749
-4.97759
-12.9468
-16.6187
-16.7991
-14.594
-10.8031
-5.93447
-0.251886
6.12529
13.1233
20.639
28.4968
36.5314
45.9618
53.6123
60.4481
65.6809
66.0705
64.3369
59.6864
52.2244
42.1423
30.0602
16.8092
3.32003
-9.46929
-20.8046
-30.5314
-38.1436
-42.5146
-43.2769
-43.9267
-42.9207
-39.8063
-33.5711
-23.1841
-7.71849
13.2864
39.1586
67.6333
94.7398
115.88
127.746
129.388
122.266
109.834
95.6711
82.0847
69.9958
59.4328
50.108
41.7773
34.3317
27.7499
21.9935
16.9814
12.6762
8.85023
5.40063
2.19754
-0.844383
-3.7734
-6.59788
-9.28303
-11.7564
-13.9185
-15.6591
-16.8748
-17.4868
-17.4547
-16.785
-15.5337
-13.8075
-11.772
-9.78399
-9.30734
-9.71238
-11.4276
-15.0555
-21.3012
-30.8391
-44.1388
-61.1574
-81.8331
-105.73
-131.418
-156.59
-178.103
-192.392
-196.177
-187.271
-165.233
-131.703
-90.2885
-45.9125
-3.71628
32.1741
59.5444
78.2694
89.7154
95.7192
97.7122
96.3967
91.9788
84.6368
74.866
63.5217
51.6111
40.0029
29.2198
19.4027
10.4446
2.21677
-5.19264
-11.3645
-15.8138
-17.4074
-15.2977
-10.2549
-3.36206
4.17794
11.2411
16.9584
20.8144
22.6565
22.6533
21.1763
-5.11034
-1.94215
-0.939262
-0.661084
-0.588309
-0.550642
-0.506279
-0.443695
-0.354087
-0.231001
-0.076196
0.0979836
0.272011
0.425752
0.543663
0.616841
0.642886
0.625462
0.574717
0.508804
0.456135
0.457911
0.570763
0.86902
1.44658
2.41684
3.90892
5.94913
8.62235
12.1948
16.8881
22.9177
30.5606
40.1132
51.7817
65.5148
80.8324
96.7303
111.729
124.262
133.468
139.857
144.182
149.422
147.621
146.017
137.673
125.985
110.28
91.0289
70.2615
49.9945
31.8975
17.092
6.08085
-1.19448
-5.03622
-5.93587
-4.37709
-0.761389
4.60273
11.4667
19.5942
28.7167
38.5022
48.5571
58.704
67.6139
74.2143
77.6006
76.8292
72.0279
63.3117
51.2587
35.7094
19.0975
2.26296
-13.7535
-27.8659
-38.0629
-46.8592
-53.3767
-57.2631
-58.4044
-56.647
-51.398
-42.1021
-27.9671
-8.30542
17.0886
47.3126
79.8189
110.403
134.112
147.104
148.23
139.389
124.453
107.558
91.523
77.4913
65.4569
54.9996
45.7619
37.578
30.3958
24.1719
18.8159
14.188
10.1261
6.4521
3.1065
-0.144729
-3.3646
-6.56732
-9.73848
-12.799
-15.6221
-18.0492
-19.9146
-21.072
-21.4183
-20.9089
-19.5615
-17.4524
-14.7032
-11.4735
-8.05726
-5.90979
-4.36667
-3.80669
-4.77785
-7.9883
-14.205
-24.0656
-37.681
-55.286
-76.6271
-100.788
-126.083
-149.953
-169.145
-180.225
-180.332