/*--------------------------------*- C++ -*----------------------------------*\
| =========                 |                                                 |
| \\      /  F ield         | OpenFOAM: The Open Source CFD Toolbox           |
|  \\    /   O peration     | Version:  2112                                  |
|   \\  /    A nd           | Website:  www.openfoam.com                      |
|    \\/     M anipulation  |                                                 |
\*---------------------------------------------------------------------------*/
FoamFile
{
    version     2.0;
    format      ascii;
    arch        "LSB;label=32;scalar=64";
    class       volVectorField;
    location    "0.014";
    object      UMean;
}
// * * * * * * * * * * * * * * * * * * * * * * * * * * * * * * * * * * * * * //

dimensions      [0 1 -1 0 0 0 0];

internalField   nonuniform List<vector> 
12225
(
(9.81489 0.0372963 0)
(9.56422 0.0523743 0)
(9.29157 0.0493661 0)
(9.00651 0.0471602 0)
(8.73504 0.0452915 0)
(8.48462 0.0436692 0)
(8.25651 0.0403885 0)
(8.04643 0.0388623 0)
(7.85666 0.0340415 0)
(7.68213 0.0344137 0)
(7.53031 0.0258796 0)
(7.39325 0.0314025 0)
(7.2815 0.0129878 0)
(7.18973 0.0328569 0)
(7.11939 -0.0123241 0)
(7.1015 0.0454342 0)
(7.08269 -0.0815873 0)
(7.2469 0.0487762 0)
(9.98988 0.058265 0)
(10.0883 0.0793527 0)
(10.1426 0.0748722 0)
(10.1607 0.072831 0)
(10.1659 0.0735859 0)
(10.169 0.0727406 0)
(10.1691 0.071684 0)
(10.1693 0.0681159 0)
(10.1654 0.0667311 0)
(10.1663 0.0607165 0)
(10.1627 0.0600511 0)
(10.1729 0.0492347 0)
(10.1748 0.0505673 0)
(10.2073 0.0302172 0)
(10.2212 0.0346833 0)
(10.2999 -0.00676298 0)
(10.3411 -0.0184952 0)
(10.4932 -0.133291 0)
(9.99378 0.0192579 0)
(10.0635 0.044078 0)
(10.1083 0.0419038 0)
(10.1295 0.041295 0)
(10.1467 0.0429705 0)
(10.1674 0.044339 0)
(10.1922 0.042875 0)
(10.2191 0.0418352 0)
(10.2486 0.0373879 0)
(10.2801 0.0357181 0)
(10.3163 0.0271187 0)
(10.3555 0.0252106 0)
(10.4024 0.00916317 0)
(10.454 0.00649402 0)
(10.5191 -0.0237538 0)
(10.5934 -0.0377712 0)
(10.6864 -0.102491 0)
(10.7851 -0.194375 0)
(9.96032 0.0343473 0)
(10.0172 0.062273 0)
(10.0561 0.0608642 0)
(10.0757 0.0574959 0)
(10.0913 0.0571418 0)
(10.1103 0.0562794 0)
(10.1335 0.0541453 0)
(10.1602 0.0497078 0)
(10.1894 0.0448505 0)
(10.2224 0.0375836 0)
(10.259 0.0304284 0)
(10.3009 0.0194732 0)
(10.3478 0.0081502 0)
(10.402 -0.00996488 0)
(10.4643 -0.0328 0)
(10.5361 -0.0691131 0)
(10.6162 -0.128559 0)
(10.6958 -0.21449 0)
(9.94117 0.0107609 0)
(9.98982 0.0316996 0)
(10.0262 0.0356115 0)
(10.0465 0.0343352 0)
(10.0626 0.033345 0)
(10.0816 0.0324335 0)
(10.1052 0.0296169 0)
(10.132 0.0253848 0)
(10.1613 0.0189469 0)
(10.1932 0.0116845 0)
(10.2285 0.00172 0)
(10.268 -0.00965563 0)
(10.3127 -0.0254877 0)
(10.3633 -0.0457249 0)
(10.4208 -0.0741498 0)
(10.4841 -0.116349 0)
(10.5515 -0.174833 0)
(10.6128 -0.264161 0)
(9.9643 0.0295563 0)
(10.0091 0.0431645 0)
(10.0404 0.0468088 0)
(10.058 0.0443968 0)
(10.0732 0.0414233 0)
(10.0913 0.038613 0)
(10.1136 0.0345881 0)
(10.1391 0.0285509 0)
(10.1673 0.0204636 0)
(10.1979 0.0104362 0)
(10.2319 -0.00178931 0)
(10.2694 -0.0166799 0)
(10.3117 -0.0355864 0)
(10.3584 -0.0599603 0)
(10.4104 -0.0929013 0)
(10.4648 -0.137807 0)
(10.5203 -0.198821 0)
(10.5676 -0.280546 0)
(9.99122 0.00559247 0)
(10.0359 0.0217011 0)
(10.0659 0.0281384 0)
(10.0818 0.0271805 0)
(10.0952 0.0237081 0)
(10.1117 0.0197675 0)
(10.1327 0.0147522 0)
(10.1576 0.0078321 0)
(10.1854 -0.00126621 0)
(10.2158 -0.0126047 0)
(10.2492 -0.026372 0)
(10.2858 -0.0434119 0)
(10.3261 -0.0646376 0)
(10.3698 -0.0921897 0)
(10.4167 -0.127636 0)
(10.4642 -0.17451 0)
(10.5103 -0.234081 0)
(10.5483 -0.308594 0)
(9.97243 0.0211806 0)
(10.0129 0.0264149 0)
(10.0395 0.0312754 0)
(10.0546 0.0307735 0)
(10.0694 0.0264757 0)
(10.0874 0.0207931 0)
(10.1086 0.013981 0)
(10.1325 0.0052278 0)
(10.1586 -0.00593457 0)
(10.1873 -0.0195314 0)
(10.2187 -0.0357814 0)
(10.2531 -0.0553941 0)
(10.2902 -0.0793277 0)
(10.3297 -0.109267 0)
(10.3702 -0.14664 0)
(10.4105 -0.19375 0)
(10.4469 -0.251056 0)
(10.4769 -0.319494 0)
(9.93384 0.00986271 0)
(9.98008 0.0176696 0)
(10.0073 0.020608 0)
(10.0212 0.0180779 0)
(10.035 0.0127125 0)
(10.0524 0.00616502 0)
(10.0729 -0.00167727 0)
(10.0956 -0.0115565 0)
(10.1203 -0.0239289 0)
(10.1468 -0.0390047 0)
(10.1754 -0.0569818 0)
(10.2061 -0.0784692 0)
(10.2387 -0.104351 0)
(10.2726 -0.135994 0)
(10.307 -0.174488 0)
(10.3399 -0.221151 0)
(10.3694 -0.276011 0)
(10.3923 -0.338914 0)
(9.95153 0.000916878 0)
(9.99381 0.0117122 0)
(10.0196 0.0149026 0)
(10.032 0.0132361 0)
(10.044 0.0086216 0)
(10.0594 0.00174527 0)
(10.0781 -0.00722291 0)
(10.0992 -0.0185368 0)
(10.1221 -0.0324735 0)
(10.1467 -0.0492507 0)
(10.1734 -0.0690285 0)
(10.2017 -0.0923241 0)
(10.2317 -0.119837 0)
(10.2622 -0.152571 0)
(10.2926 -0.191251 0)
(10.3206 -0.236651 0)
(10.3452 -0.288441 0)
(10.3632 -0.346199 0)
(9.95809 0.0109239 0)
(9.9978 0.0131631 0)
(10.0201 0.0118123 0)
(10.0301 0.00777923 0)
(10.0412 0.00113204 0)
(10.0569 -0.00768715 0)
(10.0761 -0.0184802 0)
(10.097 -0.0314213 0)
(10.1189 -0.0468397 0)
(10.1417 -0.0650394 0)
(10.1654 -0.0863083 0)
(10.1898 -0.111138 0)
(10.215 -0.139976 0)
(10.2401 -0.173499 0)
(10.2647 -0.212061 0)
(10.2869 -0.256082 0)
(10.3064 -0.305068 0)
(10.3202 -0.358488 0)
(9.97006 -0.00317041 0)
(10.0094 0.00196526 0)
(10.0322 0.00247525 0)
(10.0427 -0.000678244 0)
(10.0532 -0.00716809 0)
(10.0671 -0.0163972 0)
(10.0835 -0.0279414 0)
(10.1015 -0.0417849 0)
(10.1209 -0.0580232 0)
(10.1416 -0.0770056 0)
(10.1637 -0.0990399 0)
(10.1865 -0.124554 0)
(10.2095 -0.153903 0)
(10.2318 -0.187605 0)
(10.2526 -0.225723 0)
(10.271 -0.268356 0)
(10.2859 -0.314778 0)
(10.2966 -0.36449 0)
(9.95099 0.0071884 0)
(9.98705 0.00441795 0)
(10.0073 0.00162041 0)
(10.0164 -0.00336261 0)
(10.0262 -0.0111619 0)
(10.0393 -0.0214786 0)
(10.0547 -0.0341605 0)
(10.0713 -0.0493385 0)
(10.0889 -0.067243 0)
(10.1073 -0.0879737 0)
(10.1264 -0.111522 0)
(10.1458 -0.138025 0)
(10.1649 -0.167718 0)
(10.1829 -0.200977 0)
(10.1993 -0.237975 0)
(10.2132 -0.27873 0)
(10.224 -0.322699 0)
(10.2308 -0.369303 0)
(9.96541 -0.00251305 0)
(10.0074 -0.00663336 0)
(10.0283 -0.00925097 0)
(10.0354 -0.0141007 0)
(10.043 -0.0220999 0)
(10.0546 -0.0328726 0)
(10.0693 -0.0461631 0)
(10.0853 -0.0620983 0)
(10.1015 -0.0807427 0)
(10.1176 -0.101989 0)
(10.1334 -0.125786 0)
(10.1487 -0.152353 0)
(10.1635 -0.181892 0)
(10.1772 -0.214689 0)
(10.1893 -0.250596 0)
(10.1991 -0.289555 0)
(10.2061 -0.330767 0)
(10.2092 -0.37396 0)
(9.9711 -0.00498553 0)
(10.0105 -0.00646912 0)
(10.0305 -0.0111571 0)
(10.0358 -0.0183922 0)
(10.0409 -0.0281813 0)
(10.0499 -0.0405773 0)
(10.062 -0.0553473 0)
(10.0748 -0.0723997 0)
(10.0874 -0.0916041 0)
(10.0996 -0.113026 0)
(10.1114 -0.136829 0)
(10.1225 -0.163294 0)
(10.1329 -0.192442 0)
(10.1419 -0.224308 0)
(10.1492 -0.258484 0)
(10.1539 -0.294843 0)
(10.1563 -0.332575 0)
(10.1553 -0.371709 0)
(9.981 -0.00730278 0)
(10.0176 -0.0116922 0)
(10.0345 -0.0179499 0)
(10.0385 -0.0262449 0)
(10.0429 -0.0361701 0)
(10.0507 -0.0482635 0)
(10.0603 -0.0632551 0)
(10.0703 -0.0811211 0)
(10.0802 -0.101374 0)
(10.0899 -0.123645 0)
(10.0992 -0.14779 0)
(10.1079 -0.173927 0)
(10.1154 -0.202025 0)
(10.1213 -0.232155 0)
(10.1253 -0.263942 0)
(10.1269 -0.297374 0)
(10.1262 -0.331702 0)
(10.1226 -0.367124 0)
(9.96923 -0.0117721 0)
(10.0044 -0.0190708 0)
(10.0182 -0.0269207 0)
(10.0192 -0.0356449 0)
(10.022 -0.0464226 0)
(10.0292 -0.0597861 0)
(10.0383 -0.0758276 0)
(10.0469 -0.0942012 0)
(10.0541 -0.114403 0)
(10.0596 -0.136183 0)
(10.0635 -0.159446 0)
(10.0659 -0.184263 0)
(10.0671 -0.210482 0)
(10.0668 -0.238099 0)
(10.0649 -0.266645 0)
(10.0613 -0.296176 0)
(10.0558 -0.325946 0)
(10.0483 -0.356444 0)
(9.96359 -0.00973811 0)
(9.99546 -0.0170499 0)
(10.0078 -0.027476 0)
(10.007 -0.0396632 0)
(10.007 -0.053122 0)
(10.0106 -0.067612 0)
(10.0158 -0.0829093 0)
(10.0205 -0.0991321 0)
(10.0239 -0.116574 0)
(10.0257 -0.135544 0)
(10.0262 -0.156138 0)
(10.0254 -0.178402 0)
(10.0235 -0.202109 0)
(10.0202 -0.227125 0)
(10.0156 -0.252944 0)
(10.0094 -0.279526 0)
(10.0021 -0.306216 0)
(9.99289 -0.333416 0)
(9.99584 -0.00699245 0)
(10.0283 -0.0212519 0)
(10.0388 -0.0338552 0)
(10.0351 -0.0465575 0)
(10.0312 -0.0600233 0)
(10.0304 -0.0744962 0)
(10.0312 -0.0899679 0)
(10.0316 -0.106404 0)
(10.0309 -0.123767 0)
(10.0291 -0.142073 0)
(10.0262 -0.161238 0)
(10.0221 -0.181267 0)
(10.0168 -0.201945 0)
(10.01 -0.223254 0)
(10.0019 -0.244819 0)
(9.99225 -0.266812 0)
(9.98142 -0.288661 0)
(9.96902 -0.310958 0)
(9.97891 -0.00636161 0)
(10.0124 -0.0175387 0)
(10.0238 -0.0304495 0)
(10.0205 -0.0429597 0)
(10.0166 -0.054729 0)
(10.0152 -0.0668068 0)
(10.0145 -0.0800964 0)
(10.0129 -0.0946042 0)
(10.0098 -0.109869 0)
(10.0052 -0.125623 0)
(9.99916 -0.141786 0)
(9.99173 -0.158442 0)
(9.98287 -0.175525 0)
(9.97258 -0.193108 0)
(9.96083 -0.210961 0)
(9.94782 -0.229236 0)
(9.93357 -0.24745 0)
(9.91847 -0.266067 0)
(9.95702 -0.00926676 0)
(9.98293 -0.0244752 0)
(9.98849 -0.0374128 0)
(9.98222 -0.049389 0)
(9.9772 -0.0612747 0)
(9.97469 -0.0734119 0)
(9.97226 -0.0860162 0)
(9.96819 -0.0991266 0)
(9.96209 -0.112583 0)
(9.95421 -0.126239 0)
(9.94503 -0.13995 0)
(9.9348 -0.153727 0)
(9.9237 -0.167569 0)
(9.91157 -0.181675 0)
(9.8985 -0.196 0)
(9.88428 -0.210823 0)
(9.8693 -0.22578 0)
(9.85321 -0.241339 0)
(9.97242 0.00819337 0)
(10.0089 -0.0107791 0)
(10.0218 -0.0260193 0)
(10.0188 -0.0385279 0)
(10.0152 -0.0496371 0)
(10.0136 -0.0599723 0)
(10.0118 -0.0698779 0)
(10.0078 -0.0798892 0)
(10.0013 -0.090503 0)
(9.99257 -0.101945 0)
(9.98219 -0.114076 0)
(9.97061 -0.126661 0)
(9.95819 -0.139396 0)
(9.94493 -0.152235 0)
(9.93097 -0.165051 0)
(9.91607 -0.178069 0)
(9.90049 -0.191045 0)
(9.88382 -0.204383 0)
(9.95406 -0.0147053 0)
(9.99012 -0.027769 0)
(10.0043 -0.041773 0)
(10.0016 -0.0534798 0)
(9.99605 -0.0630543 0)
(9.99151 -0.0715432 0)
(9.98738 -0.0796089 0)
(9.98249 -0.0876666 0)
(9.97621 -0.0960499 0)
(9.96828 -0.104981 0)
(9.95869 -0.114473 0)
(9.94755 -0.124447 0)
(9.93503 -0.134676 0)
(9.92124 -0.145108 0)
(9.90634 -0.155552 0)
(9.89033 -0.166147 0)
(9.8734 -0.176608 0)
(9.85547 -0.187295 0)
(9.93775 0.00439663 0)
(9.97024 -0.0128875 0)
(9.98335 -0.0269503 0)
(9.98267 -0.0372809 0)
(9.98032 -0.0452985 0)
(9.97869 -0.0525679 0)
(9.97665 -0.0598361 0)
(9.97324 -0.0672973 0)
(9.96816 -0.074963 0)
(9.96129 -0.0828603 0)
(9.95266 -0.0909821 0)
(9.94231 -0.0993469 0)
(9.93045 -0.107887 0)
(9.91713 -0.116587 0)
(9.90268 -0.12531 0)
(9.88701 -0.134133 0)
(9.87063 -0.14287 0)
(9.85316 -0.151776 0)
(9.98213 -0.0141712 0)
(10.0182 -0.0353839 0)
(10.0343 -0.0481485 0)
(10.0352 -0.0564757 0)
(10.0326 -0.0635539 0)
(10.0296 -0.0702116 0)
(10.0259 -0.0762456 0)
(10.0208 -0.0817585 0)
(10.014 -0.0871366 0)
(10.0055 -0.0926928 0)
(9.99527 -0.0984937 0)
(9.98324 -0.104565 0)
(9.96963 -0.110846 0)
(9.95457 -0.117364 0)
(9.93838 -0.124021 0)
(9.92117 -0.130893 0)
(9.90336 -0.137774 0)
(9.88482 -0.144836 0)
(9.97497 0.00113161 0)
(10.0179 -0.0206267 0)
(10.0388 -0.0312144 0)
(10.0399 -0.0370099 0)
(10.0349 -0.0422562 0)
(10.0292 -0.0475641 0)
(10.0233 -0.0525568 0)
(10.0161 -0.0573025 0)
(10.0073 -0.0620998 0)
(9.99682 -0.0670493 0)
(9.98499 -0.0720589 0)
(9.97197 -0.0770955 0)
(9.95798 -0.082212 0)
(9.94306 -0.0875652 0)
(9.9273 -0.0931928 0)
(9.91063 -0.0991412 0)
(9.89324 -0.10524 0)
(9.87498 -0.111501 0)
(9.98213 -0.0229213 0)
(10.0299 -0.0456869 0)
(10.0526 -0.0542913 0)
(10.0524 -0.0582088 0)
(10.0455 -0.0620435 0)
(10.0388 -0.0660369 0)
(10.0329 -0.0694702 0)
(10.0263 -0.0723669 0)
(10.018 -0.0751979 0)
(10.008 -0.0782932 0)
(9.99644 -0.0816744 0)
(9.98378 -0.085288 0)
(9.97026 -0.0890795 0)
(9.95585 -0.0930808 0)
(9.94053 -0.0972369 0)
(9.92407 -0.101562 0)
(9.90661 -0.105896 0)
(9.88792 -0.110296 0)
(9.95504 -0.00984587 0)
(10.009 -0.026218 0)
(10.0373 -0.032265 0)
(10.0402 -0.0352528 0)
(10.0344 -0.0386383 0)
(10.0279 -0.0422421 0)
(10.0224 -0.0454487 0)
(10.0168 -0.0483223 0)
(10.0101 -0.0511962 0)
(10.002 -0.0542579 0)
(9.99225 -0.057465 0)
(9.981 -0.060768 0)
(9.96831 -0.0640772 0)
(9.95417 -0.0674388 0)
(9.93872 -0.0707962 0)
(9.92184 -0.0742506 0)
(9.9039 -0.0776791 0)
(9.88467 -0.0812326 0)
(9.90269 -0.0462112 0)
(9.97171 -0.0587393 0)
(10.0122 -0.0590898 0)
(10.0238 -0.0597461 0)
(10.0237 -0.0614202 0)
(10.0203 -0.0630901 0)
(10.0149 -0.0645621 0)
(10.0063 -0.0659785 0)
(9.99384 -0.0673936 0)
(9.97776 -0.0688074 0)
(9.95839 -0.0701931 0)
(9.93624 -0.0716078 0)
(9.91144 -0.0730529 0)
(9.88446 -0.0746239 0)
(9.85517 -0.0762497 0)
(9.82428 -0.0780204 0)
(9.79123 -0.0797937 0)
(9.75736 -0.0817336 0)
(9.83996 -0.0237983 0)
(9.71413 -0.039782 0)
(9.56115 -0.0404687 0)
(9.38664 -0.0401004 0)
(9.21251 -0.0400438 0)
(9.04749 -0.0398114 0)
(8.89135 -0.0394569 0)
(8.74132 -0.0392123 0)
(8.59553 -0.0391428 0)
(8.45349 -0.0391982 0)
(8.31515 -0.0392857 0)
(8.18083 -0.0393637 0)
(8.05022 -0.039409 0)
(7.92361 -0.0394809 0)
(7.79995 -0.0395607 0)
(7.68019 -0.0397068 0)
(7.56227 -0.0398354 0)
(7.449 -0.0400463 0)
(-0.00698473 -0.0101692 1.45687e-20)
(-0.0229163 -0.0152124 -1.447e-20)
(-0.0377221 -0.0122922 0)
(-0.0577829 -0.00785947 0)
(-0.081809 -0.00252787 0)
(-0.110949 0.00364671 1.40428e-20)
(-0.145103 0.0103891 0)
(-0.184591 0.0173449 0)
(-0.229306 0.0242203 0)
(-0.279369 0.0308024 0)
(-0.33477 0.037043 -1.34982e-20)
(-0.395523 0.0429762 0)
(-0.461764 0.0487782 0)
(-0.533662 0.0546536 0)
(-0.611455 0.0608505 0)
(-0.695372 0.0675886 -1.29467e-20)
(-0.785578 0.0749996 0)
(-0.88218 0.083055 0)
(-0.984995 0.0913905 0)
(-1.09366 0.0994019 0)
(-1.20753 0.106491 0)
(-1.32551 0.112338 0)
(-1.44617 0.116601 0)
(-1.568 0.119038 -1.20464e-20)
(-1.68912 0.119278 1.19292e-20)
(-1.80761 0.117072 -1.18109e-20)
(-1.92142 0.112472 -1.16916e-20)
(-2.02868 0.105685 0)
(-2.12761 0.0970499 0)
(-2.21664 0.0868624 1.13355e-20)
(-2.29435 0.0754225 1.12207e-20)
(-2.35937 0.0629811 0)
(-2.41055 0.0497231 0)
(-2.44681 0.0358589 1.09045e-20)
(-2.46718 0.0215385 0)
(-2.47089 0.00693859 0)
(-2.45724 -0.00777021 -1.06573e-20)
(-2.4258 -0.0223982 0)
(-2.3763 -0.036746 -1.05447e-20)
(-2.30872 -0.0506095 -2.10115e-20)
(-2.22322 -0.0637931 0)
(-2.12025 -0.0761581 0)
(-2.00095 -0.0876045 0)
(-1.86621 -0.0980312 0)
(-1.71715 -0.107339 0)
(-1.5551 -0.115473 -2.09872e-20)
(-1.38156 -0.122321 -2.10354e-20)
(-1.19813 -0.127959 -2.10895e-20)
(-1.00637 -0.132355 0)
(-0.807745 -0.135601 2.12022e-20)
(-0.603778 -0.1378 0)
(-0.395777 -0.139014 -2.13005e-20)
(-0.184967 -0.139377 -2.13379e-20)
(0.027542 -0.138936 0)
(0.240699 -0.137766 0)
(0.45345 -0.135894 0)
(0.66465 -0.13331 -2.13692e-20)
(0.873216 -0.130009 0)
(1.07803 -0.126051 0)
(1.27789 -0.121413 0)
(1.47181 -0.116287 0)
(1.65896 -0.110701 0)
(1.83867 -0.104871 0)
(2.01044 -0.0988324 0)
(2.17405 -0.0928011 0)
(2.32933 -0.0867995 2.05612e-20)
(2.4763 -0.0809437 0)
(2.61499 -0.0752814 0)
(2.74557 -0.0698442 -2.00796e-20)
(2.86832 -0.064697 -1.99061e-20)
(2.98355 -0.0598154 0)
(3.09167 -0.0552057 1.9546e-20)
(3.19305 -0.0508741 -1.93613e-20)
(3.28798 -0.0468144 0)
(3.37678 -0.0430177 1.8986e-20)
(3.45978 -0.0394726 0)
(3.53729 -0.0361666 0)
(3.60962 -0.0330868 -1.84162e-20)
(3.67706 -0.0302205 0)
(3.73989 -0.0275556 1.80363e-20)
(3.79836 -0.0250807 0)
(3.85274 -0.0227849 -1.76589e-20)
(3.90326 -0.0206582 -1.74717e-20)
(3.95015 -0.018691 -1.72855e-20)
(3.99363 -0.0168744 -3.42011e-20)
(4.03391 -0.0151993 3.38338e-20)
(4.07118 -0.0136576 0)
(4.10564 -0.0122408 0)
(4.13747 -0.0109412 0)
(4.16683 -0.00975095 3.23935e-20)
(4.19389 -0.00866267 3.20409e-20)
(4.2188 -0.0076692 -3.16914e-20)
(4.24169 -0.00676367 0)
(4.26272 -0.00593939 3.10015e-20)
(4.282 -0.00519001 3.06612e-20)
(4.29965 -0.00450967 3.03239e-20)
(4.31579 -0.00389301 0)
(4.33051 -0.00333508 0)
(4.34392 -0.00283123 0)
(4.35612 -0.00237709 2.90046e-20)
(4.36718 -0.00196854 0)
(4.37719 -0.00160176 0)
(4.38624 -0.00127304 -2.80452e-20)
(4.39438 -0.000979071 0)
(4.40169 -0.000716361 0)
(4.40823 -0.00048213 -2.71106e-20)
(4.41406 -0.000272991 0)
(4.41923 -8.67369e-05 0)
(4.42381 8.04657e-05 2.61996e-20)
(4.42782 0.000230612 2.5901e-20)
(4.43133 0.000368579 0)
(4.43434 0.000495387 -2.53111e-20)
(4.4369 0.000610298 0)
(4.43903 0.000712111 2.47306e-20)
(4.44079 0.000800598 0)
(4.4422 0.000876205 2.41594e-20)
(4.44331 0.000939894 2.38772e-20)
(4.44413 0.000992224 0)
(4.44469 0.00103399 0)
(4.44502 0.00106706 0)
(4.44515 0.00109291 0)
(4.44508 0.00111259 0)
(4.44484 0.00112681 0)
(4.44445 0.00113625 0)
(4.44392 0.00114153 2.16956e-20)
(4.44327 0.001143 -2.1432e-20)
(4.4425 0.00114095 0)
(4.44163 0.00113572 0)
(4.44067 0.00112769 0)
(4.43963 0.00111709 0)
(4.43852 0.00110386 -4.02848e-20)
(4.43735 0.00108767 0)
(4.43613 0.00106827 3.92787e-20)
(4.43486 0.00104581 -3.8781e-20)
(4.43356 0.00102101 0)
(4.43224 0.000994984 0)
(4.43088 0.000968952 0)
(4.42951 0.000943901 3.68242e-20)
(4.42812 0.000920435 3.63434e-20)
(4.42671 0.000898791 0)
(4.42528 0.000878962 3.53915e-20)
(4.42382 0.000860849 3.49203e-20)
(4.42235 0.000844336 -3.44523e-20)
(4.42085 0.000829351 0)
(4.41934 0.000815843 0)
(4.4178 0.000803796 -3.30668e-20)
(4.41623 0.000793197 0)
(4.41465 0.000784055 0)
(4.41303 0.000776368 0)
(4.4114 0.00077017 0)
(4.40973 0.00076548 3.08174e-20)
(4.40803 0.0007624 3.03762e-20)
(4.4063 0.000760987 0)
(4.40453 0.000761494 2.95023e-20)
(4.40272 0.000763994 0)
(4.40086 0.000769038 0)
(4.39895 0.000776652 2.82121e-20)
(4.39698 0.000787969 0)
(4.39492 0.000802789 2.73656e-20)
(4.39279 0.000823362 0)
(4.39053 0.000848961 0)
(4.38816 0.000883776 2.6116e-20)
(4.3856 0.00092641 0)
(4.38288 0.000983506 2.52965e-20)
(4.37983 0.00105487 0)
(4.37659 0.00114623 0)
(4.37274 0.00127074 0)
(4.36867 0.00141056 -2.36918e-20)
(4.36345 0.00164647 0)
(4.35805 0.00183741 2.29087e-20)
(4.35044 0.00234168 0)
(4.34268 0.00251642 0)
(4.33087 0.00375197 0)
(4.31824 0.0035607 0)
(4.29923 0.00699377 0)
(4.27413 0.00510365 0)
(4.24342 0.0158744 0)
(4.17789 0.00838406 -4.00695e-20)
(4.12844 0.0505275 0)
(3.90315 0.0416988 0)
(-0.0288905 0.0791068 -4.37116e-20)
(-0.100334 0.081884 4.34157e-20)
(-0.168392 0.0908062 0)
(-0.240746 0.104087 -2.8517e-20)
(-0.314563 0.11752 0)
(-0.390619 0.131072 -1.40471e-20)
(-0.468474 0.144404 2.78704e-20)
(-0.548341 0.157505 2.76528e-20)
(-0.630239 0.170438 0)
(-0.714398 0.183324 2.72147e-20)
(-0.800977 0.196282 1.35028e-20)
(-0.890155 0.209444 0)
(-0.982119 0.222904 0)
(-1.07691 0.236667 0)
(-1.17444 0.250531 0)
(-1.2745 0.264171 1.29518e-20)
(-1.37663 0.27707 0)
(-1.4802 0.288719 -2.54272e-20)
(-1.58436 0.29851 0)
(-1.68835 0.305972 0)
(-1.79139 0.310572 2.4738e-20)
(-1.89255 0.311872 0)
(-1.99086 0.309438 -2.42678e-20)
(-2.08532 0.302991 1.20521e-20)
(-2.17496 0.292404 -1.19349e-20)
(-2.25888 0.277729 1.18164e-20)
(-2.33625 0.259212 1.1697e-20)
(-2.40631 0.237195 0)
(-2.4682 0.212043 0)
(-2.52112 0.184073 -1.13404e-20)
(-2.56421 0.153593 1.11124e-20)
(-2.5966 0.120861 0)
(-2.61742 0.0861102 0)
(-2.62576 0.0496388 -1.09085e-20)
(-2.62077 0.0117012 0)
(-2.60163 -0.0273376 0)
(-2.56761 -0.0671048 1.06605e-20)
(-2.5181 -0.10715 0)
(-2.45268 -0.14698 -1.04246e-20)
(-2.37112 -0.186053 2.10166e-20)
(-2.27345 -0.223815 0)
(-2.15982 -0.259734 0)
(-2.03034 -0.293326 4.16266e-20)
(-1.8859 -0.324118 4.16565e-20)
(-1.72746 -0.351728 4.17203e-20)
(-1.55632 -0.37588 -2.08204e-20)
(-1.37381 -0.396349 2.10387e-20)
(-1.18149 -0.41315 6.31363e-20)
(-0.980992 -0.426282 -4.217e-20)
(-0.773893 -0.435953 -2.12049e-20)
(-0.5617 -0.442396 0)
(-0.345725 -0.445936 2.13027e-20)
(-0.127158 -0.446895 -2.12537e-20)
(0.0929848 -0.445533 0)
(0.313702 -0.442012 0)
(0.534048 -0.436396 0)
(0.752934 -0.428717 2.13704e-20)
(0.969212 -0.418827 0)
(1.18176 -0.406903 -4.2551e-20)
(1.38925 -0.392955 0)
(1.5906 -0.377392 -4.22848e-20)
(1.78498 -0.360487 0)
(1.97171 -0.342756 4.18917e-20)
(2.15032 -0.324511 0)
(2.32059 -0.306158 -4.13889e-20)
(2.4825 -0.288 2.05422e-20)
(2.63605 -0.2702 0)
(2.78137 -0.253044 4.04791e-20)
(2.9186 -0.23656 2.00797e-20)
(3.04811 -0.220859 1.99062e-20)
(3.17024 -0.205981 0)
(3.2854 -0.191902 1.95346e-20)
(3.39395 -0.178639 1.93614e-20)
(3.49617 -0.166173 0)
(3.5924 -0.154475 -1.8986e-20)
(3.68295 -0.143511 3.75847e-20)
(3.76814 -0.133243 0)
(3.84825 -0.123631 1.84162e-20)
(3.92358 -0.114638 0)
(3.99437 -0.106227 -5.41028e-20)
(4.06089 -0.0983657 0)
(4.12337 -0.0910212 5.29715e-20)
(4.18204 -0.0841643 1.74716e-20)
(4.23712 -0.0777674 -1.72809e-20)
(4.28881 -0.0718043 -3.41925e-20)
(4.33731 -0.0662499 3.38259e-20)
(4.3828 -0.0610803 0)
(4.42546 -0.0562723 0)
(4.46545 -0.0518039 0)
(4.50293 -0.0476536 -9.71738e-20)
(4.53805 -0.0438011 -3.20406e-20)
(4.57095 -0.0402268 3.1691e-20)
(4.60175 -0.0369124 0)
(4.63059 -0.0338404 3.0997e-20)
(4.65757 -0.0309944 -3.06608e-20)
(4.6828 -0.0283592 -3.03235e-20)
(4.7064 -0.0259205 0)
(4.72845 -0.0236652 0)
(4.74905 -0.021581 0)
(4.76828 -0.0196565 -2.90041e-20)
(4.78622 -0.0178811 0)
(4.80296 -0.0162448 5.67212e-20)
(4.81855 -0.0147381 8.41321e-20)
(4.83308 -0.0133522 -5.54591e-20)
(4.84661 -0.0120786 0)
(4.8592 -0.0109095 -2.71085e-20)
(4.8709 -0.0098371 0)
(4.88178 -0.00885442 -5.2999e-20)
(4.89189 -0.00795384 2.61978e-20)
(4.90129 -0.00712888 2.58992e-20)
(4.91001 -0.00637198 0)
(4.91813 -0.00567815 7.59304e-20)
(4.92569 -0.00504499 -5.00372e-20)
(4.93273 -0.00447037 -2.473e-20)
(4.93928 -0.00395073 0)
(4.94536 -0.00348122 -2.41588e-20)
(4.95101 -0.00305679 -7.1629e-20)
(4.95626 -0.00267257 0)
(4.96113 -0.00232438 -4.66367e-20)
(4.96564 -0.00200985 -4.60852e-20)
(4.96983 -0.00172683 -4.5538e-20)
(4.97371 -0.00147215 0)
(4.9773 -0.00124306 0)
(4.98063 -0.00103729 0)
(4.98372 -0.000852789 2.16947e-20)
(4.98657 -0.000687711 2.14314e-20)
(4.98921 -0.000540332 0)
(4.99166 -0.000409082 4.18197e-20)
(4.99392 -0.000292498 4.13039e-20)
(4.99601 -0.000189338 0)
(4.99795 -9.85428e-05 4.02836e-20)
(4.99973 -1.9286e-05 7.95573e-20)
(5.00139 4.92483e-05 -3.92776e-20)
(5.00291 0.000108 -3.87795e-20)
(5.00431 0.000158236 0)
(5.0056 0.000201454 0)
(5.00679 0.00023927 0)
(5.00788 0.000273138 -3.68231e-20)
(5.00887 0.000304206 3.63421e-20)
(5.00978 0.000333236 7.17292e-20)
(5.01061 0.000360646 -3.53904e-20)
(5.01136 0.00038664 3.4919e-20)
(5.01203 0.000411288 3.44512e-20)
(5.01264 0.000434647 0)
(5.01318 0.000456771 0)
(5.01365 0.000477791 -3.30656e-20)
(5.01407 0.00049788 0)
(5.01443 0.000517291 0)
(5.01474 0.000536311 6.34146e-20)
(5.015 0.000555294 0)
(5.01521 0.000574624 3.08163e-20)
(5.01537 0.000594784 -3.03752e-20)
(5.01549 0.000616294 0)
(5.01557 0.000639854 2.95011e-20)
(5.0156 0.000666199 0)
(5.01558 0.000696395 0)
(5.01551 0.000731543 -2.82111e-20)
(5.01539 0.000773295 5.55728e-20)
(5.0152 0.000823434 -2.73646e-20)
(5.01494 0.000884414 0)
(5.0146 0.000959586 0)
(5.01416 0.00105191 2.61147e-20)
(5.0136 0.00116914 0)
(5.01288 0.00131187 2.52951e-20)
(5.012 0.00150175 0)
(5.01083 0.00172384 0)
(5.00945 0.00204588 0)
(5.00754 0.00238738 2.36908e-20)
(5.00535 0.00296905 0)
(5.00215 0.00347111 -2.29077e-20)
(4.99866 0.00461573 0)
(4.99307 0.0052677 0)
(4.98739 0.00777272 4.35255e-20)
(4.97712 0.00832504 -4.27848e-20)
(4.96755 0.0145001 0)
(4.94742 0.0139896 0)
(4.93002 0.0315848 0)
(4.88834 0.0289046 1.20121e-19)
(4.85618 0.0920316 0)
(4.78375 0.105261 -7.76581e-20)
(-0.038816 0.260598 2.70908e-23)
(-0.134969 0.271501 -5.78678e-20)
(-0.224459 0.278571 0)
(-0.316729 0.291108 5.70197e-20)
(-0.40796 0.302826 0)
(-0.499532 0.315071 0)
(-0.591077 0.327583 -2.63376e-23)
(-0.683048 0.34046 -2.76592e-20)
(-0.775492 0.353692 -2.74133e-20)
(-0.86864 0.367311 -2.72211e-20)
(-0.962487 0.381321 0)
(-1.05705 0.395607 0)
(-1.15228 0.410003 2.65235e-20)
(-1.24798 0.424245 5.25949e-20)
(-1.34384 0.437891 -5.21396e-20)
(-1.43954 0.45049 0)
(-1.53468 0.461462 -5.12183e-20)
(-1.62886 0.470285 2.54334e-20)
(-1.7216 0.476387 0)
(-1.81247 0.479175 -4.9804e-20)
(-1.90119 0.478167 -2.47436e-20)
(-1.98738 0.472854 4.88356e-20)
(-2.07084 0.462899 2.4273e-20)
(-2.15127 0.448108 0)
(-2.22844 0.428407 -4.73424e-20)
(-2.30212 0.40394 -4.68365e-20)
(-2.37188 0.374855 0)
(-2.4372 0.341404 -4.58217e-20)
(-2.49729 0.303789 0)
(-2.55115 0.262125 -4.48225e-20)
(-2.59753 0.216534 -2.23416e-20)
(-2.63503 0.167123 0)
(-2.66213 0.114092 0)
(-2.67729 0.0577275 0)
(-2.67906 -0.00157968 0)
(-2.66606 -0.063299 0)
(-2.63715 -0.126818 0)
(-2.59136 -0.191403 -4.17377e-20)
(-2.52804 -0.256211 6.2514e-20)
(-2.44682 -0.320279 0)
(-2.34767 -0.382586 0)
(-2.23084 -0.442105 0)
(-2.09694 -0.497935 -3.62907e-22)
(-1.94699 -0.549213 -4.1661e-20)
(-1.78224 -0.595239 -8.31297e-20)
(-1.60421 -0.635438 8.33353e-20)
(-1.41461 -0.669499 4.16552e-20)
(-1.21531 -0.69725 -4.20468e-20)
(-1.00814 -0.718736 2.21759e-22)
(-0.794896 -0.734284 -4.20963e-20)
(-0.577252 -0.744328 0)
(-0.356635 -0.749499 -4.23486e-20)
(-0.134153 -0.750474 1.48501e-22)
(0.089351 -0.747704 0)
(0.31312 -0.741589 0)
(0.536368 -0.732116 4.25925e-20)
(0.758224 -0.719283 0)
(0.977541 -0.702759 0)
(1.19297 -0.682564 -4.23976e-20)
(1.40305 -0.658921 -8.47342e-20)
(1.60645 -0.632348 4.22837e-20)
(1.80217 -0.603563 0)
(1.98951 -0.573375 -4.18904e-20)
(2.16808 -0.542515 0)
(2.33772 -0.511523 -4.13149e-20)
(2.49855 -0.480984 -4.11025e-20)
(2.65067 -0.451226 8.1537e-20)
(2.79427 -0.422589 4.04234e-20)
(2.92974 -0.395198 0)
(3.05741 -0.369146 -7.95498e-20)
(3.17771 -0.344504 0)
(3.29113 -0.321236 -1.172e-19)
(3.398 -0.299348 -7.73868e-20)
(3.49867 -0.278798 -7.66438e-20)
(3.59347 -0.259534 7.58941e-20)
(3.68273 -0.241493 -1.12724e-19)
(3.76676 -0.224606 0)
(3.84585 -0.208807 0)
(3.92027 -0.194031 7.28678e-20)
(3.99029 -0.180216 1.08178e-19)
(4.05616 -0.167305 0)
(4.1181 -0.155246 -3.53121e-20)
(4.17635 -0.143988 0)
(4.23111 -0.133486 1.03683e-19)
(4.28259 -0.123694 1.38484e-23)
(4.33098 -0.114572 -1.27954e-23)
(4.37645 -0.106077 -6.69188e-20)
(4.4192 -0.0981723 0)
(4.45936 -0.0908195 6.5481e-20)
(4.49711 -0.0839827 9.28982e-24)
(4.53258 -0.0776278 0)
(4.5659 -0.0717221 0)
(4.59721 -0.0662349 0)
(4.62662 -0.0611377 -6.19978e-20)
(4.65424 -0.0564034 0)
(4.68018 -0.0520071 0)
(4.70452 -0.0479254 0)
(4.72736 -0.0441368 0)
(4.74879 -0.0406215 0)
(4.76888 -0.0373609 -5.80013e-20)
(4.78771 -0.0343383 0)
(4.80535 -0.0315378 -5.67211e-20)
(4.82186 -0.0289448 -5.60873e-20)
(4.83731 -0.0265455 5.5459e-20)
(4.85176 -0.0243271 0)
(4.86526 -0.0222774 5.42185e-20)
(4.87788 -0.0203853 0)
(4.88965 -0.0186397 5.29989e-20)
(4.90063 -0.017031 -5.23967e-20)
(4.91087 -0.0155493 -1.55395e-19)
(4.92041 -0.0141868 0)
(4.92929 -0.0129347 -1.51857e-19)
(4.93755 -0.0117856 -5.00345e-20)
(4.94523 -0.0107322 0)
(4.95238 -0.00976695 -9.77692e-20)
(4.95901 -0.00888207 -9.66316e-20)
(4.96518 -0.00807026 1.43255e-19)
(4.9709 -0.00732476 0)
(4.97621 -0.00664016 4.66366e-20)
(4.98113 -0.00601349 4.60852e-20)
(4.98569 -0.00544095 1.36612e-19)
(4.98992 -0.00491877 0)
(4.99383 -0.00444252 0)
(4.99746 -0.00400787 0)
(5.0008 -0.00361155 4.33887e-20)
(5.0039 -0.00325066 0)
(5.00676 -0.00292234 0)
(5.00941 -0.00262389 -4.18196e-20)
(5.01185 -0.00235289 -4.13038e-20)
(5.0141 -0.00210714 0)
(5.01618 -0.00188466 0)
(5.01809 -0.00168364 -7.95571e-20)
(5.01986 -0.00150238 0)
(5.02148 -0.00133913 7.75591e-20)
(5.02298 -0.001192 7.65702e-20)
(5.02435 -0.00105895 0)
(5.02561 -0.000937887 0)
(5.02677 -0.000826767 -7.36455e-20)
(5.02784 -0.000723827 -2.44171e-25)
(5.02881 -0.000627689 -2.2511e-25)
(5.0297 -0.000537409 0)
(5.03052 -0.000452416 -1.39676e-19)
(5.03128 -0.000372417 0)
(5.03196 -0.000297253 0)
(5.03259 -0.000226789 0)
(5.03316 -0.000160809 6.61312e-20)
(5.03368 -9.89837e-05 0)
(5.03415 -4.0857e-05 -1.28628e-19)
(5.03458 1.41407e-05 -6.34144e-20)
(5.03497 6.66698e-05 0)
(5.03531 0.000117508 -6.16325e-20)
(5.03561 0.000167494 0)
(5.03587 0.000217671 0)
(5.0361 0.000269098 -1.77006e-19)
(5.03628 0.000323292 1.16273e-19)
(5.03643 0.000381592 0)
(5.03652 0.000446453 1.12843e-19)
(5.03657 0.000519451 -5.55725e-20)
(5.03656 0.000605039 0)
(5.03649 0.000704496 0)
(5.03634 0.000826844 0)
(5.03609 0.000970902 -1.56688e-19)
(5.03574 0.00115683 0)
(5.03523 0.00137376 -5.05903e-20)
(5.03457 0.00167043 0)
(5.03365 0.00200412 0)
(5.03249 0.00249931 0)
(5.03088 0.00301653 0)
(5.02893 0.00388483 0)
(5.02614 0.00468323 0)
(5.02285 0.00629867 -9.00769e-20)
(5.01796 0.00751463 0)
(5.01234 0.0107475 -4.35253e-20)
(5.00358 0.0125922 1.28338e-19)
(4.99366 0.0196924 0)
(4.97749 0.0228766 0)
(4.95932 0.0407396 -8.12957e-20)
(4.93027 0.0501014 -8.00532e-20)
(4.89957 0.103088 7.86801e-20)
(4.8624 0.14185 7.76577e-20)
(-0.0401192 0.453229 8.72637e-20)
(-0.141113 0.472572 8.66747e-20)
(-0.234406 0.476986 5.73271e-20)
(-0.330704 0.488191 2.84001e-20)
(-0.425392 0.497864 0)
(-0.520186 0.508236 -5.60444e-20)
(-0.614438 0.519012 2.77545e-20)
(-0.708528 0.530332 0)
(-0.802441 0.542118 2.74192e-20)
(-0.896353 0.554378 0)
(-0.990229 0.566982 -5.38449e-20)
(-1.08402 0.579668 0)
(-1.17756 0.592169 -2.65292e-20)
(-1.27081 0.604125 -5.26063e-20)
(-1.36352 0.615108 5.21508e-20)
(-1.45558 0.624599 0)
(-1.54685 0.632169 5.1229e-20)
(-1.63721 0.637249 0)
(-1.72662 0.639415 0)
(-1.81503 0.638085 4.98139e-20)
(-1.90245 0.632808 0)
(-1.98889 0.623108 -2.44623e-22)
(-2.07424 0.608619 0)
(-2.15844 0.589111 0)
(-2.2413 0.564393 3.16962e-22)
(-2.32249 0.53437 4.68454e-20)
(-2.40147 0.498875 4.59664e-20)
(-2.47728 0.457636 4.58308e-20)
(-2.5487 0.410364 0)
(-2.6142 0.356752 8.92044e-20)
(-2.67193 0.296639 0)
(-2.71993 0.230049 4.33652e-20)
(-2.75616 0.157228 0)
(-2.77873 0.0786489 0)
(-2.78593 -0.00500631 -4.20544e-20)
(-2.77635 -0.0928561 0)
(-2.7488 -0.18383 4.13869e-20)
(-2.70239 -0.27666 6.14211e-22)
(-2.63645 -0.369923 -8.24818e-20)
(-2.55069 -0.462079 8.15953e-20)
(-2.44523 -0.551615 0)
(-2.3207 -0.637089 0)
(-2.17798 -0.717267 4.01938e-20)
(-2.01827 -0.790823 0)
(-1.84302 -0.856639 4.14103e-20)
(-1.65399 -0.91379 -4.15249e-20)
(-1.45318 -0.961708 -4.16594e-20)
(-1.24267 -1.00008 0)
(-1.02471 -1.02901 4.19541e-20)
(-0.801532 -1.04907 4.20989e-20)
(-0.575184 -1.06117 -8.39456e-20)
(-0.347426 -1.0664 4.23502e-20)
(-0.119351 -1.06596 4.24475e-20)
(0.108457 -1.06074 0)
(0.335681 -1.05133 0)
(0.562136 -1.03776 -4.25927e-20)
(0.787389 -1.01964 0)
(1.01058 -0.99637 0)
(1.23016 -0.967516 8.49466e-20)
(1.44423 -0.933324 8.47324e-20)