/*--------------------------------*- C++ -*----------------------------------*\
| =========                 |                                                 |
| \\      /  F ield         | OpenFOAM: The Open Source CFD Toolbox           |
|  \\    /   O peration     | Version:  2112                                  |
|   \\  /    A nd           | Website:  www.openfoam.com                      |
|    \\/     M anipulation  |                                                 |
\*---------------------------------------------------------------------------*/
FoamFile
{
    version     2.0;
    format      ascii;
    arch        "LSB;label=32;scalar=64";
    class       volVectorField;
    location    "0.13";
    object      U;
}
// * * * * * * * * * * * * * * * * * * * * * * * * * * * * * * * * * * * * * //

dimensions      [0 1 -1 0 0 0 0];

internalField   nonuniform List<vector> 
12225
(
(9.75578 0.0636618 0)
(9.25667 0.101048 0)
(8.70992 0.108539 0)
(8.13815 0.111116 0)
(7.56752 0.110739 0)
(7.00654 0.108061 0)
(6.4561 0.104275 0)
(5.91687 0.0999958 0)
(5.38991 0.095328 0)
(4.87634 0.0901172 0)
(4.37811 0.0839824 0)
(3.89876 0.076401 0)
(3.4436 0.0668932 0)
(3.0188 0.0553017 0)
(2.63113 0.0418681 0)
(2.2835 0.0274719 0)
(1.98646 0.0141455 0)
(1.70268 0.00410738 0)
(10.1061 0.0775103 0)
(10.321 0.116266 0)
(10.4695 0.127161 0)
(10.5529 0.140714 0)
(10.5819 0.15433 0)
(10.5596 0.166606 0)
(10.4877 0.178398 0)
(10.3687 0.190125 0)
(10.2056 0.20168 0)
(10.0007 0.212718 0)
(9.75638 0.222619 0)
(9.4757 0.230494 0)
(9.1629 0.235347 0)
(8.82347 0.236344 0)
(8.46457 0.233121 0)
(8.09124 0.225945 0)
(7.71549 0.216611 0)
(7.31889 0.207152 0)
(10.0113 0.0359139 0)
(10.0616 0.0584348 0)
(10.117 0.0717933 0)
(10.1748 0.0912102 0)
(10.2407 0.111386 0)
(10.3139 0.130477 0)
(10.3895 0.149702 0)
(10.4637 0.169805 0)
(10.5334 0.190876 0)
(10.5953 0.212726 0)
(10.6458 0.234846 0)
(10.6809 0.256321 0)
(10.6967 0.275962 0)
(10.6897 0.292544 0)
(10.6575 0.305411 0)
(10.5976 0.314158 0)
(10.514 0.321554 0)
(10.3947 0.326263 0)
(10.0062 0.0318626 0)
(10.0338 0.0659157 0)
(10.0589 0.0832039 0)
(10.0774 0.0989195 0)
(10.0964 0.113649 0)
(10.1193 0.127011 0)
(10.1462 0.140264 0)
(10.1776 0.154376 0)
(10.2152 0.169696 0)
(10.26 0.186232 0)
(10.3128 0.203747 0)
(10.3735 0.221742 0)
(10.4413 0.239507 0)
(10.5141 0.256241 0)
(10.589 0.271623 0)
(10.6627 0.285261 0)
(10.7327 0.299645 0)
(10.7973 0.312825 0)
(10.0045 0.0270386 0)
(10.0264 0.05906 0)
(10.0481 0.0748303 0)
(10.0636 0.0891079 0)
(10.0773 0.103856 0)
(10.0919 0.117872 0)
(10.1069 0.131601 0)
(10.1223 0.14571 0)
(10.1391 0.160342 0)
(10.1584 0.175338 0)
(10.1812 0.190392 0)
(10.2083 0.205033 0)
(10.2405 0.218725 0)
(10.2783 0.230978 0)
(10.3216 0.241717 0)
(10.3707 0.251053 0)
(10.4244 0.260395 0)
(10.4883 0.270483 0)
(10.0032 0.022578 0)
(10.0206 0.0528633 0)
(10.0402 0.0700274 0)
(10.0559 0.0851257 0)
(10.0698 0.10037 0)
(10.0843 0.114659 0)
(10.099 0.128258 0)
(10.1138 0.141873 0)
(10.1291 0.155729 0)
(10.1456 0.169692 0)
(10.1637 0.183448 0)
(10.1838 0.19655 0)
(10.2061 0.208493 0)
(10.2307 0.218825 0)
(10.2576 0.227355 0)
(10.2873 0.23421 0)
(10.3198 0.239872 0)
(10.3586 0.245633 0)
(10.0023 0.0190344 0)
(10.0162 0.0475726 0)
(10.0337 0.0655214 0)
(10.049 0.080528 0)
(10.0628 0.0952229 0)
(10.0772 0.109072 0)
(10.0921 0.122247 0)
(10.1073 0.135342 0)
(10.1231 0.148557 0)
(10.14 0.161729 0)
(10.1584 0.174537 0)
(10.1784 0.186565 0)
(10.2002 0.19735 0)
(10.2237 0.206476 0)
(10.2488 0.21369 0)
(10.2758 0.218972 0)
(10.3049 0.222387 0)
(10.3382 0.224252 0)
(10.0017 0.0162086 0)
(10.0129 0.0426049 0)
(10.0284 0.0606525 0)
(10.043 0.0754517 0)
(10.0567 0.0897046 0)
(10.0708 0.103283 0)
(10.0856 0.116195 0)
(10.1008 0.12885 0)
(10.1168 0.14141 0)
(10.1337 0.153718 0)
(10.1521 0.165473 0)
(10.1719 0.176296 0)
(10.1934 0.185778 0)
(10.2164 0.193534 0)
(10.241 0.199273 0)
(10.2673 0.202804 0)
(10.2957 0.2039 0)
(10.3275 0.202104 0)
(10.0013 0.0138952 0)
(10.0103 0.0379687 0)
(10.024 0.0557132 0)
(10.0379 0.0702988 0)
(10.0514 0.0841134 0)
(10.0652 0.0973033 0)
(10.0798 0.109807 0)
(10.095 0.121895 0)
(10.1108 0.133706 0)
(10.1276 0.145102 0)
(10.1456 0.155798 0)
(10.1649 0.165442 0)
(10.1856 0.173653 0)
(10.2076 0.180057 0)
(10.2309 0.184309 0)
(10.2558 0.186082 0)
(10.2824 0.184941 0)
(10.3115 0.180108 0)
(10.001 0.0119608 0)
(10.0085 0.0336851 0)
(10.0205 0.0507718 0)
(10.0336 0.064999 0)
(10.0467 0.0782827 0)
(10.0603 0.0909546 0)
(10.0746 0.102957 0)
(10.0896 0.114448 0)
(10.1052 0.125518 0)
(10.1217 0.136039 0)
(10.1392 0.145739 0)
(10.1578 0.154288 0)
(10.1775 0.161324 0)
(10.1983 0.166477 0)
(10.22 0.169368 0)
(10.2429 0.169583 0)
(10.2668 0.166588 0)
(10.2924 0.159497 0)
(10.0008 0.010304 0)
(10.007 0.0297288 0)
(10.0177 0.0458633 0)
(10.03 0.0595555 0)
(10.0427 0.0722318 0)
(10.0559 0.0843053 0)
(10.0699 0.0957424 0)
(10.0846 0.106605 0)
(10.0999 0.116935 0)
(10.116 0.126605 0)
(10.1329 0.135366 0)
(10.1507 0.142907 0)
(10.1693 0.148891 0)
(10.1885 0.152956 0)
(10.2085 0.154714 0)
(10.229 0.153724 0)
(10.2499 0.149447 0)
(10.2714 0.141018 0)
(10.0007 0.0089477 0)
(10.0061 0.0263177 0)
(10.0156 0.041385 0)
(10.0271 0.0544407 0)
(10.0394 0.0664934 0)
(10.0523 0.0779528 0)
(10.0659 0.0888076 0)
(10.0803 0.0990591 0)
(10.0953 0.108705 0)
(10.1109 0.117625 0)
(10.1271 0.125587 0)
(10.144 0.132305 0)
(10.1614 0.137463 0)
(10.1793 0.140721 0)
(10.1973 0.141706 0)
(10.2155 0.139996 0)
(10.2335 0.13511 0)
(10.2512 0.126286 0)
(10.0006 0.00774521 0)
(10.0053 0.023146 0)
(10.0139 0.0369999 0)
(10.0247 0.0492832 0)
(10.0365 0.0606525 0)
(10.049 0.0714521 0)
(10.0622 0.0816847 0)
(10.0762 0.0913151 0)
(10.0907 0.100305 0)
(10.1058 0.108534 0)
(10.1213 0.115791 0)
(10.1373 0.121817 0)
(10.1535 0.126324 0)
(10.1698 0.129005 0)
(10.186 0.129527 0)
(10.2018 0.127522 0)
(10.2169 0.122603 0)
(10.2309 0.114159 0)
(10.0005 0.00648474 0)
(10.0046 0.0197158 0)
(10.0123 0.0320663 0)
(10.0223 0.0433196 0)
(10.0335 0.0538194 0)
(10.0455 0.0638056 0)
(10.0583 0.0732814 0)
(10.0717 0.0821874 0)
(10.0857 0.0904558 0)
(10.1 0.0979661 0)
(10.1147 0.104534 0)
(10.1295 0.109934 0)
(10.1442 0.113922 0)
(10.1588 0.116244 0)
(10.1728 0.116632 0)
(10.186 0.114807 0)
(10.198 0.110515 0)
(10.2082 0.103337 0)
(10.0005 0.00515939 0)
(10.004 0.01603 0)
(10.0109 0.0265848 0)
(10.02 0.0365099 0)
(10.0306 0.0459081 0)
(10.042 0.0549009 0)
(10.0541 0.063474 0)
(10.0669 0.071553 0)
(10.0801 0.0790521 0)
(10.0936 0.0858566 0)
(10.1071 0.0918134 0)
(10.1206 0.0967441 0)
(10.1338 0.100463 0)
(10.1464 0.102784 0)
(10.1582 0.103534 0)
(10.1687 0.10255 0)
(10.1776 0.0997258 0)
(10.1843 0.0948509 0)
(10.0004 0.00376158 0)
(10.0035 0.0120735 0)
(10.0096 0.0205377 0)
(10.0179 0.0288144 0)
(10.0277 0.0368471 0)
(10.0384 0.0446479 0)
(10.0499 0.052172 0)
(10.0619 0.0593362 0)
(10.0742 0.0660499 0)
(10.0867 0.0722129 0)
(10.099 0.0777099 0)
(10.1111 0.0824182 0)
(10.1227 0.0862213 0)
(10.1334 0.0890198 0)
(10.143 0.0907402 0)
(10.1511 0.091343 0)
(10.1575 0.0908574 0)
(10.1615 0.0892608 0)
(10.0003 0.00227988 0)
(10.0031 0.00781441 0)
(10.0085 0.013893 0)
(10.0161 0.020196 0)
(10.0251 0.0265794 0)
(10.0351 0.0329723 0)
(10.0458 0.0392981 0)
(10.0569 0.04547 0)
(10.0684 0.0514043 0)
(10.0798 0.0570225 0)
(10.091 0.0622498 0)
(10.1018 0.0670208 0)
(10.1119 0.0712882 0)
(10.1211 0.0750318 0)
(10.1291 0.0782659 0)
(10.1357 0.0810457 0)
(10.1406 0.0834845 0)
(10.1434 0.0856883 0)
(10.0003 0.000681351 0)
(10.0027 0.00318222 0)
(10.0077 0.00656 0)
(10.0146 0.0105524 0)
(10.023 0.0149849 0)
(10.0323 0.019735 0)
(10.0423 0.0247015 0)
(10.0527 0.0297975 0)
(10.0634 0.0349519 0)
(10.074 0.0401097 0)
(10.0843 0.0452324 0)
(10.0942 0.0503014 0)
(10.1034 0.0553222 0)
(10.1118 0.0603287 0)
(10.1192 0.065386 0)
(10.1253 0.0705939 0)
(10.1302 0.0760828 0)
(10.1334 0.0820191 0)
(10.0003 -0.00107426 0)
(10.0026 -0.00198513 0)
(10.0072 -0.0016937 0)
(10.0138 -0.000379654 0)
(10.0218 0.00177175 0)
(10.0308 0.00460141 0)
(10.0404 0.0079897 0)
(10.0505 0.0118488 0)
(10.0608 0.0161121 0)
(10.071 0.0207322 0)
(10.0812 0.0256834 0)
(10.0909 0.0309633 0)
(10.1003 0.0365911 0)
(10.109 0.0426093 0)
(10.117 0.0490816 0)
(10.1242 0.0560953 0)
(10.1307 0.0637399 0)
(10.1362 0.0721738 0)
(10.0003 -0.00271226 0)
(10.0027 -0.00686301 0)
(10.0075 -0.0095001 0)
(10.0144 -0.0107132 0)
(10.0226 -0.0107164 0)
(10.0318 -0.00971724 0)
(10.0416 -0.00785503 0)
(10.0519 -0.00522329 0)
(10.0625 -0.00189686 0)
(10.0732 0.00206663 0)
(10.0838 0.00663158 0)
(10.0941 0.0117837 0)
(10.1042 0.0175275 0)
(10.114 0.023879 0)
(10.1233 0.0308701 0)
(10.1321 0.038549 0)
(10.1406 0.0469505 0)
(10.1485 0.0561909 0)
(10.0003 -0.00414142 0)
(10.003 -0.0110775 0)
(10.0084 -0.0161424 0)
(10.0159 -0.0193732 0)
(10.0247 -0.021081 0)
(10.0343 -0.0215479 0)
(10.0446 -0.0209351 0)
(10.0555 -0.0193529 0)
(10.0666 -0.0169022 0)
(10.0779 -0.0136626 0)
(10.0892 -0.00968506 0)
(10.1004 -0.00499858 0)
(10.1114 0.000383472 0)
(10.1222 0.00646078 0)
(10.1328 0.0132327 0)
(10.1431 0.0207134 0)
(10.1532 0.0289311 0)
(10.163 0.0379401 0)
(10.0004 -0.00561377 0)
(10.0037 -0.0153148 0)
(10.01 -0.0225848 0)
(10.0184 -0.0275398 0)
(10.0279 -0.0307216 0)
(10.0382 -0.0324838 0)
(10.0492 -0.0329647 0)
(10.0607 -0.0322811 0)
(10.0725 -0.0305688 0)
(10.0844 -0.0279377 0)
(10.0965 -0.0244602 0)
(10.1085 -0.0201856 0)
(10.1204 -0.0151541 0)
(10.1322 -0.00939035 0)
(10.1439 -0.00291353 0)
(10.1554 0.00425558 0)
(10.1669 0.0120461 0)
(10.1782 0.0205545 0)
(10.0005 -0.00724681 0)
(10.0047 -0.0198007 0)
(10.0124 -0.0290136 0)
(10.0219 -0.0353455 0)
(10.0323 -0.03977 0)
(10.0434 -0.0427234 0)
(10.0552 -0.0443005 0)
(10.0675 -0.044618 0)
(10.0801 -0.0438259 0)
(10.0928 -0.042034 0)
(10.1057 -0.0393137 0)
(10.1185 -0.035725 0)
(10.1314 -0.0313262 0)
(10.1441 -0.0261736 0)
(10.1568 -0.0203092 0)
(10.1694 -0.0137709 0)
(10.1819 -0.00664581 0)
(10.1944 0.0011118 0)
(10.0007 -0.00917536 0)
(10.0063 -0.0247101 0)
(10.0158 -0.0355697 0)
(10.0266 -0.0429555 0)
(10.0378 -0.0482704 0)
(10.0496 -0.0519128 0)
(10.0621 -0.0539913 0)
(10.0751 -0.0547365 0)
(10.0884 -0.0543672 0)
(10.1019 -0.0530024 0)
(10.1155 -0.0507107 0)
(10.1292 -0.0475591 0)
(10.1428 -0.0436167 0)
(10.1564 -0.0389512 0)
(10.1699 -0.0336276 0)
(10.1834 -0.0276947 0)
(10.1968 -0.0211756 0)
(10.2102 -0.0141066 0)
(10.0011 -0.0115935 0)
(10.0088 -0.0299791 0)
(10.0205 -0.0419448 0)
(10.0327 -0.0505383 0)
(10.0448 -0.0574629 0)
(10.0576 -0.0625999 0)
(10.071 -0.0658827 0)
(10.0847 -0.0676193 0)
(10.0987 -0.0680824 0)
(10.1128 -0.0674112 0)
(10.127 -0.0656979 0)
(10.1413 -0.0630374 0)
(10.1556 -0.0595268 0)
(10.1698 -0.0552582 0)
(10.184 -0.0503204 0)
(10.1981 -0.0447907 0)
(10.2122 -0.0387462 0)
(10.2263 -0.0322095 0)
(10.0018 -0.0149481 0)
(10.0125 -0.0360071 0)
(10.0264 -0.0470387 0)
(10.0394 -0.0544606 0)
(10.0519 -0.0608995 0)
(10.0653 -0.0659591 0)
(10.0795 -0.0694744 0)
(10.0939 -0.0717155 0)
(10.1085 -0.0728494 0)
(10.1233 -0.0729151 0)
(10.1382 -0.0719627 0)
(10.1533 -0.0700734 0)
(10.1683 -0.0673343 0)
(10.1833 -0.0638329 0)
(10.1983 -0.0596609 0)
(10.2133 -0.0548959 0)
(10.2282 -0.0496325 0)
(10.2431 -0.0438101 0)
(10.003 -0.0190907 0)
(10.0187 -0.0457413 0)
(10.036 -0.0602906 0)
(10.05 -0.0704449 0)
(10.0632 -0.0782945 0)
(10.0781 -0.0836554 0)
(10.0943 -0.0869988 0)
(10.1115 -0.088904 0)
(10.1294 -0.0896416 0)
(10.148 -0.0893193 0)
(10.1671 -0.0880119 0)
(10.1864 -0.0858221 0)
(10.2059 -0.0828611 0)
(10.2252 -0.0792375 0)
(10.2444 -0.0750621 0)
(10.2633 -0.0704408 0)
(10.282 -0.0654811 0)
(10.3001 -0.0601264 0)
(10.0047 -0.0200704 0)
(10.0304 -0.0368733 0)
(10.061 -0.045403 0)
(10.0915 -0.0559575 0)
(10.1254 -0.0664344 0)
(10.1636 -0.0749526 0)
(10.2042 -0.0817364 0)
(10.2456 -0.0870784 0)
(10.2868 -0.0909566 0)
(10.3271 -0.0933593 0)
(10.3659 -0.0943436 0)
(10.4026 -0.0940066 0)
(10.4369 -0.092464 0)
(10.4686 -0.0898593 0)
(10.4977 -0.0863461 0)
(10.5241 -0.0821561 0)
(10.5484 -0.077398 0)
(10.5704 -0.0725971 0)
(10.0574 -0.0544805 0)
(10.1965 -0.088916 0)
(10.3157 -0.0984955 0)
(10.4096 -0.107652 0)
(10.4818 -0.115804 0)
(10.5333 -0.121458 0)
(10.5644 -0.125108 0)
(10.5777 -0.127254 0)
(10.5761 -0.128038 0)
(10.5628 -0.127531 0)
(10.5404 -0.125827 0)
(10.5113 -0.12304 0)
(10.4778 -0.119298 0)
(10.4416 -0.114754 0)
(10.4044 -0.109563 0)
(10.3675 -0.103968 0)
(10.3315 -0.0980504 0)
(10.2982 -0.0925614 0)
(9.86852 -0.0478757 0)
(9.56964 -0.0837725 0)
(9.226 -0.0952851 0)
(8.86 -0.101251 0)
(8.49421 -0.103639 0)
(8.13901 -0.102808 0)
(7.79837 -0.0998596 0)
(7.4751 -0.0955814 0)
(7.17152 -0.0904008 0)
(6.88902 -0.0845911 0)
(6.62818 -0.0783786 0)
(6.38909 -0.0719569 0)
(6.17149 -0.0654897 0)
(5.97479 -0.0591184 0)
(5.79806 -0.0529615 0)
(5.64034 -0.0471516 0)
(5.49958 -0.0417623 0)
(5.37668 -0.0371187 0)
(-0.33459 0.761859 -5.26193e-21)
(-0.991739 0.801813 5.30359e-21)
(-1.69592 0.716347 0)
(-2.32496 0.508668 0)
(-2.7766 0.190236 0)
(-2.89837 -0.197048 -6.0646e-21)
(-2.61148 -0.578696 0)
(-2.01725 -0.915197 0)
(-1.13498 -1.18122 0)
(-0.0576233 -1.33413 0)
(1.11979 -1.37514 1.6336e-21)
(2.30729 -1.32235 0)
(3.44355 -1.2064 0)
(4.47697 -1.05332 0)
(5.37561 -0.880897 0)
(6.12457 -0.699765 4.33572e-21)
(6.71813 -0.514881 0)
(7.1545 -0.326015 0)
(7.42535 -0.129861 0)
(7.54966 0.0877518 0)
(7.46841 0.325725 0)
(7.18219 0.572349 0)
(6.69719 0.807624 0)
(6.0203 1.0066 6.67006e-21)
(5.16835 1.13924 -6.48646e-21)
(4.17786 1.16718 6.40124e-21)
(3.10399 1.04983 6.4915e-21)
(2.03108 0.711135 0)
(1.17177 0.140551 0)
(0.604812 -0.162104 -7.38537e-21)
(0.183116 0.0445022 -7.57305e-21)
(-0.169009 0.244041 0)
(-0.521092 0.252997 0)
(-0.867182 0.12965 -8.13181e-21)
(-1.06829 -0.0836948 0)
(-0.97412 -0.366014 0)
(-0.573916 -0.676571 7.6902e-21)
(0.195564 -0.911606 0)
(1.18064 -0.937038 6.45717e-21)
(2.0887 -0.707291 1.25817e-20)
(2.72124 -0.288155 0)
(2.87493 0.152685 0)
(2.5555 0.388028 0)
(2.09615 0.353124 0)
(1.84044 0.137013 0)
(1.85287 -0.170601 1.25394e-20)
(1.94013 -0.443563 1.25274e-20)
(1.89978 -0.518613 1.27103e-20)
(1.63709 -0.32458 0)
(1.09588 0.020804 -1.32486e-20)
(0.296632 0.347955 0)
(-0.679979 0.599275 1.39925e-20)
(-1.76661 0.776824 1.44461e-20)
(-2.89676 0.879668 0)
(-4.01698 0.914978 0)
(-5.08502 0.896051 0)
(-6.07058 0.838011 1.88137e-20)
(-6.95332 0.754559 0)
(-7.72169 0.656821 0)
(-8.37188 0.553758 0)
(-8.90538 0.451262 0)
(-9.327 0.353215 0)
(-9.64361 0.262886 0)
(-9.86364 0.183234 0)
(-9.99623 0.11601 0)
(-10.0494 0.0602413 -2.31067e-20)
(-10.0308 0.0157238 0)
(-9.9648 -0.0181427 0)
(-9.85099 -0.0470433 2.05608e-20)
(-9.69495 -0.072953 1.93672e-20)
(-9.49923 -0.0970972 0)
(-9.26523 -0.120254 -1.65503e-20)
(-8.99328 -0.142984 1.49504e-20)
(-8.68296 -0.165691 0)
(-8.33329 -0.188577 -1.14159e-20)
(-7.94311 -0.211609 0)
(-7.51137 -0.234572 0)
(-7.03768 -0.257194 5.44501e-21)
(-6.52264 -0.278759 0)
(-5.96854 -0.298284 -1.24042e-21)
(-5.37975 -0.314645 0)
(-4.76294 -0.326708 -2.83109e-21)
(-4.12695 -0.33349 -4.70678e-21)
(-3.48233 -0.334292 -6.41828e-21)
(-2.84055 -0.328769 -1.5863e-20)
(-2.21314 -0.316942 1.84481e-20)
(-1.6108 -0.299167 0)
(-1.04247 -0.27629 0)
(-0.515072 -0.250534 0)
(-0.0338202 -0.226186 2.42921e-20)
(0.403388 -0.203977 2.4585e-20)
(0.800185 -0.181257 -2.45542e-20)
(1.15484 -0.156814 0)
(1.46758 -0.132038 2.40407e-20)
(1.74056 -0.108327 2.36365e-20)
(1.97634 -0.0861455 2.31754e-20)
(2.17785 -0.0659162 0)
(2.34829 -0.0480543 0)
(2.49072 -0.032534 0)
(2.60789 -0.0191021 2.11234e-20)
(2.70213 -0.00748481 0)
(2.77536 0.00255579 0)
(2.8292 0.0113143 -1.96231e-20)
(2.86479 0.0193325 0)
(2.88284 0.0274597 0)
(2.88065 0.0357109 -1.82654e-20)
(2.86031 0.041423 0)
(2.82447 0.0434264 0)
(2.77546 0.042264 1.70642e-20)
(2.71628 0.0387376 1.67043e-20)
(2.64922 0.033961 0)
(2.5759 0.029115 -1.60381e-20)
(2.49781 0.0249414 0)
(2.41692 0.0211762 1.54341e-20)
(2.33672 0.01644 0)
(2.2627 0.0092263 1.48774e-20)
(2.20121 -0.000450968 1.46188e-20)
(2.15682 -0.0104217 0)
(2.1304 -0.0177233 0)
(2.11931 -0.0208474 0)
(2.11939 -0.0207988 0)
(2.12821 -0.0194701 0)
(2.14467 -0.0179438 0)
(2.16803 -0.0165708 0)
(2.19762 -0.0156446 1.29899e-20)
(2.23271 -0.0152942 -1.28214e-20)
(2.2724 -0.015606 0)
(2.31602 -0.0164819 0)
(2.36309 -0.0176849 0)
(2.41355 -0.0189877 0)
(2.46779 -0.0201908 -2.40268e-20)
(2.52636 -0.0211072 0)
(2.5898 -0.021583 2.33728e-20)
(2.65825 -0.0214084 -2.304e-20)
(2.73116 -0.0200918 0)
(2.80655 -0.0165811 0)
(2.88035 -0.0094003 0)
(2.94629 0.00210275 2.16112e-20)
(2.99814 0.0159071 2.12017e-20)
(3.03394 0.0269577 0)
(3.05848 0.0296618 2.02938e-20)
(3.08037 0.0217891 1.98112e-20)
(3.10582 0.00495214 -1.93224e-20)
(3.13541 -0.0168348 0)
(3.1675 -0.0373844 0)
(3.20449 -0.0498461 -1.78686e-20)
(3.25391 -0.0506305 0)
(3.32067 -0.0409238 0)
(3.39503 -0.0244733 0)
(3.44837 -0.00752457 0)
(3.45 -0.00074676 1.60175e-20)
(3.40656 -0.00691191 1.55628e-20)
(3.32591 -0.0166183 0)
(3.16399 -0.0127054 1.4036e-20)
(2.80349 0.0283121 0)
(2.09951 0.131124 0)
(0.987549 0.283343 3.7769e-21)
(-0.454053 0.409347 0)
(-2.02751 0.468612 -1.10865e-20)
(-3.53727 0.452552 0)
(-4.83422 0.37954 0)
(-5.81163 0.271303 -2.92998e-20)
(-6.41241 0.152451 0)
(-6.62752 0.0447893 -2.92474e-20)
(-6.48365 -0.0453946 0)
(-6.07444 -0.114544 0)
(-5.42956 -0.171266 0)
(-4.59271 -0.214889 1.59657e-21)
(-3.60798 -0.244646 0)
(-2.52062 -0.259385 1.55074e-20)
(-1.37999 -0.257483 0)
(-0.228166 -0.239419 0)
(0.888992 -0.217902 0)
(1.92491 -0.189744 0)
(2.83421 -0.148014 0)
(3.5624 -0.0925885 0)
(4.05821 -0.0258838 0)
(4.23734 0.0436452 -6.02961e-20)
(4.13347 0.0948185 0)
(3.62027 0.097777 0)
(-0.0879736 1.8657 1.67644e-20)
(-0.386026 1.90779 -1.71356e-20)
(-0.652732 1.76573 0)
(-0.755583 1.38899 1.33736e-20)
(-0.714178 0.744051 0)
(-0.364581 -0.171236 6.54323e-21)
(0.164953 -1.28377 -1.31727e-20)
(1.02572 -2.28741 -1.12064e-20)
(1.99091 -3.02774 0)
(2.99764 -3.43647 -7.69486e-21)
(3.98966 -3.53835 -1.44819e-21)
(4.92077 -3.4042 0)
(5.76302 -3.11547 0)
(6.50343 -2.7398 0)
(7.13801 -2.32367 0)
(7.66798 -1.89484 -4.0973e-21)
(8.09743 -1.46727 0)
(8.43126 -1.04503 1.4871e-20)
(8.67983 -0.626015 0)
(8.83219 -0.201461 0)
(8.93534 0.23918 -1.69493e-20)
(8.97941 0.697142 0)
(8.94086 1.16708 1.64554e-20)
(8.79127 1.63549 -6.14818e-21)
(8.49797 2.07611 5.87458e-21)
(8.02861 2.44416 -5.69972e-21)
(7.35916 2.67845 -5.69942e-21)
(6.47305 2.69595 0)
(5.39912 2.42876 0)
(4.15976 1.93842 6.56352e-21)
(2.89069 1.37558 -7.4099e-21)
(1.89935 0.940815 0)
(1.22665 0.775326 0)
(0.762291 0.669818 8.06637e-21)
(0.511836 0.266153 0)
(0.427299 -0.489729 0)
(0.63694 -1.38052 -7.54762e-21)
(1.13658 -2.12523 0)
(1.77834 -2.30343 7.27421e-21)
(2.35151 -1.78879 -1.2314e-20)
(2.67192 -0.890087 0)
(2.75971 0.0478443 0)
(2.63127 0.703004 -2.64566e-20)
(2.38206 0.763254 -2.52955e-20)
(2.11382 0.280616 -2.47467e-20)
(1.6157 -0.00569103 1.23606e-20)
(0.692674 0.406033 -1.27693e-20)
(-0.555947 1.03685 -3.8785e-20)
(-1.92816 1.57779 2.58251e-20)
(-3.33676 2.01006 1.2179e-20)
(-4.71602 2.29729 0)
(-6.00736 2.43431 -1.21148e-20)
(-7.16714 2.43727 1.62193e-20)
(-8.16789 2.33149 0)
(-8.99969 2.14787 0)
(-9.66617 1.91636 0)
(-10.1811 1.66244 -1.714e-20)
(-10.5642 1.4054 0)
(-10.8374 1.1582 4.32748e-20)
(-11.021 0.928327 0)
(-11.1338 0.718951 4.66691e-20)
(-11.1908 0.530598 0)
(-11.2038 0.362811 -4.82066e-20)
(-11.1815 0.214767 0)
(-11.1305 0.0854121 4.77528e-20)
(-11.0531 -0.0262962 -2.40938e-20)
(-10.9506 -0.123518 0)
(-10.8082 -0.207501 -4.34899e-20)
(-10.6311 -0.282629 -2.01904e-20)
(-10.4184 -0.351512 -1.90235e-20)
(-10.1709 -0.41629 0)
(-9.88886 -0.478707 -1.71454e-20)
(-9.57194 -0.540184 -1.46909e-20)
(-9.21923 -0.601788 0)
(-8.82926 -0.664126 1.12169e-20)
(-8.40024 -0.72723 -1.95916e-20)
(-7.93027 -0.790474 0)
(-7.41812 -0.852389 -5.34988e-21)
(-6.86404 -0.91073 0)
(-6.26994 -0.962705 4.51511e-21)
(-5.64004 -1.00487 0)
(-4.9812 -1.03379 7.64277e-21)
(-4.30276 -1.04662 4.6311e-21)
(-3.61596 -1.04157 -5.80048e-21)
(-2.93296 -1.01818 -1.47799e-20)
(-2.26564 -0.977447 1.75134e-20)
(-1.62446 -0.921721 0)
(-1.01736 -0.854488 0)
(-0.449274 -0.780515 0)
(0.0742462 -0.70622 -7.19768e-20)
(0.551044 -0.635413 -2.43546e-20)
(0.983268 -0.567701 2.43209e-20)
(1.37214 -0.502919 0)
(1.72119 -0.441881 2.35985e-20)
(2.03377 -0.385421 -2.33988e-20)
(2.31342 -0.333852 -2.29407e-20)
(2.56392 -0.287361 0)
(2.78815 -0.245616 0)
(2.98829 -0.208077 0)
(3.16617 -0.174154 -2.08973e-20)
(3.32328 -0.143291 0)
(3.46089 -0.114935 3.96732e-20)
(3.58004 -0.0888226 5.80942e-20)
(3.68203 -0.0645291 -3.77655e-20)
(3.76812 -0.0406302 0)
(3.84262 -0.0161423 -1.79509e-20)
(3.90528 0.00745791 0)
(3.95471 0.0287038 -3.42747e-20)
(3.99066 0.0472949 1.67117e-20)
(4.01387 0.0633347 1.63352e-20)
(4.0253 0.0770968 0)
(4.02624 0.0883504 4.70081e-20)
(4.01827 0.0965669 -3.06848e-20)
(4.00278 0.100794 -1.50568e-20)
(3.9806 0.0997336 0)
(3.95201 0.0924787 -1.44912e-20)
(3.91714 0.0794031 -4.27147e-20)
(3.87679 0.0624179 0)
(3.8331 0.0442455 -2.75934e-20)
(3.78966 0.0271493 -2.71961e-20)
(3.75109 0.0118764 -2.68174e-20)
(3.72071 -0.00183777 0)
(3.70011 -0.0142385 0)
(3.69014 -0.0253639 0)
(3.6913 -0.0349845 1.27151e-20)
(3.70323 -0.0425558 1.25578e-20)
(3.72469 -0.0480963 0)
(3.75409 -0.052048 2.449e-20)
(3.7898 -0.0551465 2.41827e-20)
(3.83057 -0.0581807 0)
(3.87567 -0.0618016 2.35708e-20)
(3.92498 -0.0663226 4.65065e-20)
(3.97892 -0.0715876 -2.29436e-20)
(4.03809 -0.07699 -2.26089e-20)
(4.10305 -0.0815541 0)
(4.17416 -0.0840702 0)
(4.25177 -0.0833938 0)
(4.33658 -0.0791428 -2.12393e-20)
(4.42994 -0.0724786 2.08052e-20)
(4.53338 -0.0657483 4.07552e-20)
(4.64773 -0.0604265 -1.99133e-20)
(4.77096 -0.0548005 1.9407e-20)
(4.89468 -0.0445089 1.89254e-20)
(5.00179 -0.0276522 0)
(5.07 -0.0105131 0)
(5.08588 -0.00580795 -1.74777e-20)
(5.06179 -0.0209381 0)
(5.03334 -0.0462117 0)
(5.0283 -0.0557249 3.28439e-20)
(5.03392 -0.0289425 0)
(4.9976 0.0253761 1.56681e-20)
(4.83812 0.086473 -1.5309e-20)
(4.46654 0.168118 0)
(3.75909 0.330318 1.39209e-20)
(2.55662 0.616202 0)
(0.824375 0.971087 0)
(-1.17197 1.24486 -3.69052e-21)
(-3.09933 1.33944 -8.92127e-21)
(-4.74322 1.27224 1.06295e-20)
(-5.99606 1.0812 0)
(-6.84803 0.822336 0)
(-7.34178 0.536755 -3.24648e-20)
(-7.53771 0.253794 0)
(-7.48457 -0.00546276 -3.18403e-20)
(-7.21173 -0.233835 0)
(-6.68415 -0.424024 0)
(-5.94019 -0.580337 0)
(-5.01486 -0.701529 -1.57376e-21)
(-3.94666 -0.787233 0)
(-2.77443 -0.837658 -1.52902e-20)
(-1.53532 -0.853652 0)
(-0.262616 -0.841239 0)
(1.01135 -0.794748 6.21016e-20)
(2.25054 -0.716849 -6.56956e-20)
(3.4147 -0.607951 0)
(4.45037 -0.463861 0)
(5.30591 -0.281549 0)
(5.93075 -0.0741751 1.77007e-19)
(6.34525 0.134616 0)
(6.31691 0.26273 -1.00774e-19)
(0.180501 1.8113 -9.37838e-25)
(0.32304 2.1563 2.32441e-20)
(0.453701 1.73042 0)
(0.680622 0.980126 -2.54864e-20)
(1.08052 -0.0488803 0)
(1.80201 -1.44794 0)
(2.72015 -2.94312 4.23366e-23)
(3.65497 -4.17238 1.00615e-20)
(4.51068 -4.92741 1.07823e-20)
(5.25056 -5.1996 7.05142e-21)
(5.87325 -5.09236 0)
(6.3947 -4.73491 0)
(6.83484 -4.23633 -1.28692e-20)
(7.21001 -3.67248 -2.82733e-20)
(7.53078 -3.08922 3.09744e-20)
(7.80293 -2.51085 0)
(8.02937 -1.94797 3.61289e-20)
(8.2114 -1.40339 -1.48764e-20)
(8.3502 -0.875099 0)
(8.44543 -0.361652 4.1425e-20)
(8.50079 0.14495 1.71589e-20)
(8.52708 0.658514 -4.18215e-20)
(8.53656 1.19356 -1.65887e-20)
(8.53636 1.75859 0)
(8.52028 2.34823 3.8425e-20)
(8.46189 2.93529 3.66186e-20)
(8.31412 3.46626 0)
(8.01091 3.86107 3.27266e-20)
(7.48366 4.03324 0)
(6.68774 3.91712 2.966e-20)
(5.66006 3.49472 1.30032e-20)
(4.55473 2.84247 0)
(3.53689 2.11551 0)
(2.75899 1.3883 0)
(2.29393 0.563784 0)
(2.03509 -0.403763 0)
(1.97313 -1.58538 0)
(2.12457 -2.68844 2.75968e-20)
(2.28493 -2.91575 -3.98491e-20)
(2.27844 -2.07756 0)
(2.06015 -0.77016 0)
(1.72269 0.363028 0)
(1.38757 0.943452 -6.89223e-22)
(0.911156 1.05364 2.60139e-20)
(-0.0684746 1.34902 5.10874e-20)
(-1.49853 2.01367 -4.94731e-20)
(-3.05764 2.73078 -2.50649e-20)
(-4.57716 3.30782 2.29167e-20)
(-5.95486 3.70104 3.23819e-21)
(-7.14013 3.90497 2.74926e-20)
(-8.10803 3.92327 0)
(-8.86415 3.77912 3.12279e-20)
(-9.43338 3.5107 6.40751e-21)
(-9.85248 3.16132 0)
(-10.1611 2.77166 0)
(-10.3946 2.37418 -4.11164e-20)
(-10.5804 1.99124 0)
(-10.7358 1.63588 0)
(-10.8692 1.31397 5.19421e-20)
(-10.9823 1.0264 9.80348e-20)
(-11.0725 0.771197 -4.66626e-20)
(-11.1354 0.545072 0)
(-11.167 0.343837 4.82593e-20)
(-11.1639 0.163323 0)
(-11.1235 0.000839201 5.21103e-20)
(-11.0471 -0.14615 4.66933e-20)
(-10.9351 -0.280958 -9.40564e-20)
(-10.7883 -0.405722 -4.67473e-20)
(-10.6093 -0.52083 0)
(-10.3993 -0.628401 8.06564e-20)
(-10.1587 -0.73081 0)
(-9.88744 -0.830464 1.02538e-19)
(-9.58445 -0.929574 6.29977e-20)
(-9.24801 -1.02996 5.63159e-20)
(-8.87565 -1.13282 -4.92628e-20)
(-8.46432 -1.23848 6.12718e-20)
(-8.01089 -1.34594 0)
(-7.51251 -1.4526 0)
(-6.96738 -1.55452 -1.78011e-20)
(-6.37595 -1.64633 -1.26599e-20)
(-5.7417 -1.72173 0)
(-5.07132 -1.77431 -4.79157e-21)
(-4.37501 -1.79868 0)
(-3.66578 -1.79165 3.40742e-20)
(-2.9582 -1.75289 1.48119e-21)
(-2.26658 -1.68473 -1.20553e-21)
(-1.60334 -1.59202 -3.86814e-20)
(-0.977773 -1.48123 0)
(-0.395193 -1.35951 4.52004e-20)
(0.13884 -1.23417 5.86644e-22)
(0.623024 -1.11021 0)
(1.06049 -0.991183 0)
(1.45305 -0.879208 0)
(1.8049 -0.775422 -4.70666e-20)
(2.12043 -0.680815 0)
(2.40421 -0.596032 0)
(2.66013 -0.520494 0)
(2.89116 -0.452945 0)
(3.09999 -0.392149 0)
(3.28901 -0.337068 -4.13021e-20)
(3.46019 -0.286813 0)
(3.61526 -0.240623 -3.95218e-20)
(3.75557 -0.197883 -3.85601e-20)
(3.8822 -0.158253 3.76262e-20)
(3.99592 -0.121816 0)
(4.09758 -0.08883 3.5843e-20)
(4.18817 -0.0586827 0)
(4.26903 -0.0310778 3.41761e-20)
(4.34103 -0.00634718 -3.3376e-20)
(4.40427 0.0151101 -9.76966e-20)
(4.45855 0.0328849 0)
(4.5041 0.0473449 -9.33942e-20)
(4.5418 0.0584606 -3.04413e-20)
(4.57237 0.0663717 0)
(4.59607 0.0707444 -5.85136e-20)
(4.6126 0.0710831 -5.74152e-20)
(4.62133 0.0673877 8.45722e-20)
(4.62199 0.0605059 0)
(4.61529 0.0516657 2.72681e-20)
(4.60309 0.0415096 2.68643e-20)
(4.58771 0.02995 7.94807e-20)
(4.57124 0.0168929 0)
(4.55537 0.00258308 0)
(4.54131 -0.0125256 0)
(4.53016 -0.0273486 2.51511e-20)
(4.52308 -0.0413748 0)
(4.52074 -0.0539173 0)
(4.5237 -0.0646034 -2.42216e-20)
(4.53222 -0.0735368 -2.39259e-20)
(4.54624 -0.0811977 0)
(4.56551 -0.0882341 0)
(4.58974 -0.0952234 -4.60593e-20)
(4.61885 -0.102482 0)
(4.65311 -0.109941 4.48277e-20)
(4.69335 -0.117042 4.4182e-20)
(4.74107 -0.122686 0)
(4.79815 -0.125507 0)
(4.86633 -0.12492 -4.20807e-20)
(4.9467 -0.122553 -3.75527e-23)
(5.03971 -0.122239 -3.00753e-23)
(5.14538 -0.126908 0)
(5.26305 -0.134393 -7.70804e-20)
(5.38947 -0.135787 0)
(5.51478 -0.120058 0)
(5.61959 -0.0845619 0)
(5.6795 -0.0429483 3.4758e-20)
(5.67974 -0.0187847 0)
(5.62995 -0.0213133 -6.64352e-20)
(5.55197 -0.0263339 -3.26696e-20)
(5.445 0.010868 0)
(5.25422 0.120925 -3.12658e-20)
(4.86112 0.312504 0)
(4.10338 0.615719 0)
(2.8224 1.07868 -8.16694e-20)
(1.00696 1.64642 4.43677e-20)
(-1.02325 2.10504 0)
(-2.88254 2.2915 1.05564e-21)
(-4.41485 2.20897 8.6668e-21)
(-5.60466 1.93575 0)
(-6.50155 1.55376 0)
(-7.15232 1.12718 0)
(-7.5689 0.69504 1.93266e-19)
(-7.73837 0.278888 0)
(-7.64885 -0.108729 6.05547e-20)
(-7.30587 -0.458674 0)
(-6.73436 -0.763118 0)
(-5.96753 -1.01496 0)
(-5.04041 -1.2125 0)
(-3.98954 -1.35635 0)
(-2.85167 -1.44775 0)
(-1.65941 -1.48975 -8.27265e-20)
(-0.439109 -1.48436 0)
(0.79099 -1.43283 -6.15596e-20)
(2.01489 -1.33372 1.93016e-19)
(3.21269 -1.18131 0)
(4.35179 -0.970973 0)
(5.3878 -0.705564 -1.22714e-19)
(6.25049 -0.409574 -1.16894e-19)
(6.92862 -0.0849007 1.07621e-19)
(7.29644 0.19009 1.00093e-19)
(0.131354 0.955827 -3.36387e-20)
(0.350858 1.48616 -3.28459e-20)
(0.605448 1.10845 -2.10734e-20)
(1.10601 0.083339 -9.25597e-21)
(2.0639 -1.6673 0)
(3.22559 -3.58104 2.20396e-20)
(4.29384 -5.10352 -1.20614e-20)
(5.12247 -6.00341 0)
(5.69924 -6.31421 -1.02626e-20)
(6.08183 -6.18989 0)
(6.34227 -5.79539 3.00434e-20)
(6.5373 -5.25625 0)
(6.70119 -4.65127 1.28236e-20)
(6.85006 -4.02405 2.83644e-20)
(6.98886 -3.39682 -3.12434e-20)
(7.11712 -2.78013 0)
(7.23239 -2.1783 -3.67322e-20)
(7.33197 -1.59204 0)
(7.414 -1.01983 0)
(7.4771 -0.458738 -4.23927e-20)
(7.52145 0.0952899 0)
(7.5489 0.645527 -7.34534e-21)
(7.56262 1.1963 0)
(7.5708 1.75476 0)
(7.58503 2.33076 7.1142e-21)
(7.61317 2.93152 -3.73025e-20)
(7.64814 3.54952 -4.19461e-20)
(7.65672 4.14687 -3.27841e-20)
(7.57482 4.64968 0)
(7.3227 4.95169 -6.24493e-20)
(6.83598 4.93203 0)
(6.11358 4.51547 -2.90995e-20)
(5.24598 3.73693 0)
(4.39753 2.70515 0)
(3.70898 1.51256 2.65255e-20)
(3.17422 0.189611 0)
(2.85148 -1.32893 -2.4938e-20)
(2.6791 -2.61095 -3.39014e-21)
(2.30536 -2.61996 5.12267e-20)
(1.66321 -1.38521 -5.31968e-20)
(0.896592 0.117502 0)
(0.141555 1.21353 0)
(-0.756654 2.03845 -2.80362e-20)
(-1.97444 2.83736 0)
(-3.44163 3.66676 -2.34409e-20)
(-4.92339 4.37933 2.26994e-20)
(-6.24271 4.86909 2.27314e-20)
(-7.33409 5.12462 0)
(-8.1808 5.16267 -2.45501e-20)
(-8.79877 5.01535 -2.62138e-20)
(-9.22726 4.72473 6.93983e-20)
(-9.51897 4.33845 -3.05835e-20)
(-9.7265 3.90204 -3.31409e-20)
(-9.89246 3.45175 0)
(-10.0439 3.01141 0)
(-10.1927 2.59331 4.11517e-20)
(-10.339 2.20151 0)
(-10.4767 1.83572 0)
(-10.5974 1.49436 -9.54126e-20)
(-10.6938 1.17609 -9.84897e-20)
(-10.7606 0.880242 0)
(-10.795 0.606514 0)
(-10.796 0.354696 0)
(-10.7629 0.124259 0)
(-10.6979 -0.0861074 -1.00627e-19)
(-10.6047 -0.277695 1.03033e-19)
(-10.4841 -0.451708 9.46625e-20)
(-10.3381 -0.611254 1.85546e-19)
(-10.1679 -0.759062 0)
(-9.9745 -0.898107 3.72357e-21)
(-9.75805 -1.03159 0)
(-9.51795 -1.16282 -6.9466e-20)
(-9.25258 -1.29497 3.6148e-21)
(-8.9592 -1.43083 -5.63141e-20)
(-8.634 -1.57237 4.91903e-20)
(-8.27217 -1.72034 3.99578e-21)
(-7.86829 -1.8737 0)
(-7.41689 -2.02917 3.00996e-20)
(-6.91339 -2.18086 1.76534e-20)
(-6.35534 -2.3204 2.26963e-20)
(-5.74372 -2.43782 0)
(-5.08407 -2.52265 3.57045e-21)
(-4.38681 -2.5657 0)
(-3.66658 -2.56102 -4.10279e-20)
(-2.94113 -2.50732 2.81697e-20)
(-2.22875 -2.4084 -3.36597e-20)
(-1.54544 -2.27228 3.82453e-20)
(-0.903234 -2.10957 8.14578e-20)
(-0.309152 -1.93128 -4.47869e-20)
(0.231242 -1.74944 4.64124e-20)
(0.718016 -1.57032 0)
(1.15518 -1.40035 -9.29229e-20)
(1.54558 -1.24262 0)