/*--------------------------------*- C++ -*----------------------------------*\
| =========                 |                                                 |
| \\      /  F ield         | OpenFOAM: The Open Source CFD Toolbox           |
|  \\    /   O peration     | Version:  2112                                  |
|   \\  /    A nd           | Website:  www.openfoam.com                      |
|    \\/     M anipulation  |                                                 |
\*---------------------------------------------------------------------------*/
FoamFile
{
    version     2.0;
    format      ascii;
    arch        "LSB;label=32;scalar=64";
    class       volSymmTensorField;
    location    "0.21";
    object      UPrime2Mean;
}
// * * * * * * * * * * * * * * * * * * * * * * * * * * * * * * * * * * * * * //

dimensions      [0 2 -2 0 0 0 0];

internalField   nonuniform List<symmTensor> 
12225
(
(0.0258122 0.000544621 0 0.00211683 0 0)
(0.0167112 0.00014528 0 0.000952452 0 0)
(0.0165294 1.99765e-06 0 0.000667717 0 0)
(0.0164217 -4.56641e-05 0 0.000534054 0 0)
(0.0180132 -0.000120296 0 0.000454315 0 0)
(0.0221787 -0.000286842 0 0.000403718 0 0)
(0.0298742 -0.000604934 0 0.000377426 0 0)
(0.041821 -0.000988342 0 0.00035502 0 0)
(0.0602899 -0.00177217 0 0.000370971 0 0)
(0.0866919 -0.0023839 0 0.00036488 0 0)
(0.128638 -0.00472122 0 0.000472018 0 0)
(0.187851 -0.00578679 0 0.000498012 0 0)
(0.289072 -0.0138822 0 0.000990791 0 0)
(0.435545 -0.0156455 0 0.001191 0 0)
(0.70105 -0.0465729 0 0.00374158 0 0)
(1.13532 -0.0494412 0 0.00501087 0 0)
(1.94011 -0.147493 0 0.0187724 0 0)
(3.07715 -0.0751614 0 0.0166705 0 0)
(0.0257787 0.000409354 0 0.00265704 0 0)
(0.015865 0.000535521 0 0.00136521 0 0)
(0.0144541 0.000456098 0 0.000943148 0 0)
(0.0132177 0.000454934 0 0.000782265 0 0)
(0.0125888 0.000423853 0 0.000704518 0 0)
(0.0126152 0.000249559 0 0.000670601 0 0)
(0.0135241 -6.603e-05 0 0.000662447 0 0)
(0.0158187 -0.000636049 0 0.000715326 0 0)
(0.0201015 -0.00139744 0 0.000781931 0 0)
(0.0279132 -0.00292806 0 0.00102954 0 0)
(0.0403019 -0.00487367 0 0.00129713 0 0)
(0.0624386 -0.00935021 0 0.00214899 0 0)
(0.0951624 -0.014841 0 0.0031529 0 0)
(0.157174 -0.0289073 0 0.00625637 0 0)
(0.244606 -0.0462099 0 0.0102539 0 0)
(0.429787 -0.0941995 0 0.0223796 0 0)
(0.695222 -0.148862 0 0.034141 0 0)
(1.23382 -0.291655 0 0.0815532 0 0)
(0.0254538 0.000315797 0 0.00327758 0 0)
(0.015737 0.000237167 0 0.00157611 0 0)
(0.014275 0.000168708 0 0.0010258 0 0)
(0.0128399 8.74738e-05 0 0.000861492 0 0)
(0.0122093 -1.24163e-05 0 0.000798648 0 0)
(0.0122663 -0.000205128 0 0.0007899 0 0)
(0.012984 -0.000582724 0 0.000847745 0 0)
(0.0145864 -0.00117703 0 0.000959306 0 0)
(0.0174464 -0.00216403 0 0.00122739 0 0)
(0.0222056 -0.0035735 0 0.00159446 0 0)
(0.0295877 -0.00607928 0 0.00243831 0 0)
(0.0409946 -0.00963372 0 0.0035795 0 0)
(0.057624 -0.0164315 0 0.0063923 0 0)
(0.0829403 -0.025812 0 0.0104437 0 0)
(0.118538 -0.0446862 0 0.0205845 0 0)
(0.172868 -0.0708665 0 0.0355757 0 0)
(0.247623 -0.121959 0 0.0684454 0 0)
(0.361949 -0.201075 0 0.123904 0 0)
(0.0245039 0.000118732 0 0.00359165 0 0)
(0.0148354 6.36196e-05 0 0.00188647 0 0)
(0.0134424 -6.32161e-05 0 0.00124338 0 0)
(0.0121299 -0.000179756 0 0.00105401 0 0)
(0.0115752 -0.000357107 0 0.00101101 0 0)
(0.0117352 -0.00066547 0 0.00105673 0 0)
(0.0125786 -0.00115207 0 0.00117812 0 0)
(0.0142667 -0.00192599 0 0.00141871 0 0)
(0.0170831 -0.00308037 0 0.00180466 0 0)
(0.0216997 -0.0049467 0 0.00250126 0 0)
(0.0286492 -0.00774967 0 0.00361368 0 0)
(0.0391594 -0.012343 0 0.00562903 0 0)
(0.0536926 -0.0192183 0 0.00902431 0 0)
(0.0742906 -0.0303705 0 0.0153437 0 0)
(0.101045 -0.0469613 0 0.0264159 0 0)
(0.13611 -0.0727179 0 0.0465014 0 0)
(0.178256 -0.11135 0 0.0814759 0 0)
(0.224049 -0.165322 0 0.13952 0 0)
(0.0241663 0.000501062 0 0.00389657 0 0)
(0.014205 0.000395038 0 0.00218459 0 0)
(0.0127852 0.00013826 0 0.00142944 0 0)
(0.0114227 -9.50584e-05 0 0.00120898 0 0)
(0.0108327 -0.000369401 0 0.00118744 0 0)
(0.011014 -0.00076238 0 0.00129124 0 0)
(0.0119578 -0.00137776 0 0.00152258 0 0)
(0.0137934 -0.00233558 0 0.00190075 0 0)
(0.0168266 -0.00383216 0 0.00253254 0 0)
(0.0215659 -0.0060792 0 0.00351665 0 0)
(0.0286044 -0.00954498 0 0.00517271 0 0)
(0.0386618 -0.014718 0 0.00783031 0 0)
(0.0524864 -0.0226476 0 0.0124074 0 0)
(0.0708046 -0.0343969 0 0.0200736 0 0)
(0.0941896 -0.051788 0 0.0331878 0 0)
(0.122162 -0.0769233 0 0.0554865 0 0)
(0.15362 -0.111209 0 0.091533 0 0)
(0.182424 -0.156255 0 0.15366 0 0)
(0.0249828 0.000105997 0 0.00454214 0 0)
(0.0144372 0.000157796 0 0.00269771 0 0)
(0.0131911 5.83972e-05 0 0.00181946 0 0)
(0.0120317 -0.000101975 0 0.00156471 0 0)
(0.0114436 -0.000374654 0 0.00157801 0 0)
(0.0114648 -0.000821681 0 0.00176292 0 0)
(0.0121193 -0.00152125 0 0.00210902 0 0)
(0.0135335 -0.0025935 0 0.00266659 0 0)
(0.0160034 -0.00422308 0 0.0035465 0 0)
(0.0199545 -0.0066831 0 0.00493395 0 0)
(0.0259265 -0.0103814 0 0.00713794 0 0)
(0.0344552 -0.0158799 0 0.0106607 0 0)
(0.0461623 -0.024018 0 0.0163675 0 0)
(0.0613601 -0.0357914 0 0.0256137 0 0)
(0.0803454 -0.0525867 0 0.0405806 0 0)
(0.102085 -0.0756109 0 0.0645504 0 0)
(0.125246 -0.105784 0 0.102297 0 0)
(0.145291 -0.141901 0 0.161152 0 0)
(0.0245106 0.000270374 0 0.00483715 0 0)
(0.014022 -2.95024e-05 0 0.00314956 0 0)
(0.0127433 -0.000182343 0 0.00219066 0 0)
(0.0113983 -0.000360603 0 0.00194206 0 0)
(0.0106294 -0.000648651 0 0.00200803 0 0)
(0.0105604 -0.00110595 0 0.00227423 0 0)
(0.0112419 -0.0018468 0 0.00274831 0 0)
(0.012732 -0.0030292 0 0.00350533 0 0)
(0.0151812 -0.00484854 0 0.0046879 0 0)
(0.0188555 -0.00756276 0 0.00652374 0 0)
(0.0241494 -0.0115446 0 0.00936581 0 0)
(0.0314175 -0.0172967 0 0.0137929 0 0)
(0.0410642 -0.0254877 0 0.0206702 0 0)
(0.0531714 -0.0369529 0 0.0314442 0 0)
(0.0677103 -0.0525376 0 0.0480165 0 0)
(0.0836186 -0.0729769 0 0.0735791 0 0)
(0.0996721 -0.0981538 0 0.111518 0 0)
(0.112872 -0.126276 0 0.167134 0 0)
(0.0264374 0.000252178 0 0.00503312 0 0)
(0.0156086 6.87865e-05 0 0.00327001 0 0)
(0.0141643 -5.83756e-05 0 0.0022628 0 0)
(0.0126735 -0.000301287 0 0.00204291 0 0)
(0.0118414 -0.000722644 0 0.0021938 0 0)
(0.0118616 -0.00137673 0 0.00258936 0 0)
(0.0127267 -0.00233487 0 0.00324253 0 0)
(0.0143596 -0.00371833 0 0.0042509 0 0)
(0.016774 -0.00572221 0 0.00578205 0 0)
(0.0201343 -0.00861753 0 0.00809992 0 0)
(0.0247309 -0.0127611 0 0.0116002 0 0)
(0.0308255 -0.0185995 0 0.0169086 0 0)
(0.0386375 -0.0266612 0 0.0249022 0 0)
(0.0480363 -0.0375078 0 0.036969 0 0)
(0.0588133 -0.0516364 0 0.054832 0 0)
(0.069925 -0.0691884 0 0.0811834 0 0)
(0.0805427 -0.0896081 0 0.118488 0 0)
(0.0885925 -0.110902 0 0.170528 0 0)
(0.0253001 0.000155329 0 0.00555514 0 0)
(0.0143702 -0.000114045 0 0.0037635 0 0)
(0.0130738 -0.000317666 0 0.00270345 0 0)
(0.0120544 -0.000554737 0 0.002489 0 0)
(0.0115147 -0.000961149 0 0.00266202 0 0)
(0.0114657 -0.00160607 0 0.00313402 0 0)
(0.01203 -0.00257125 0 0.0039465 0 0)
(0.0133233 -0.00399118 0 0.00521312 0 0)
(0.0154521 -0.00606387 0 0.00711694 0 0)
(0.0185186 -0.00904331 0 0.00995084 0 0)
(0.0226686 -0.01324 0 0.0141309 0 0)
(0.0279519 -0.0190042 0 0.0203064 0 0)
(0.0344265 -0.0267184 0 0.0293248 0 0)
(0.0418512 -0.0367254 0 0.0424826 0 0)
(0.0499515 -0.0492204 0 0.06124 0 0)
(0.0578507 -0.0640031 0 0.0878122 0 0)
(0.0650289 -0.080292 0 0.123857 0 0)
(0.0702615 -0.0962612 0 0.171989 0 0)
(0.0258691 1.84409e-05 0 0.00601079 0 0)
(0.014572 -0.000159201 0 0.00430163 0 0)
(0.0132342 -0.000384611 0 0.00316464 0 0)
(0.0121191 -0.000570458 0 0.00292583 0 0)
(0.0114402 -0.000934537 0 0.00318768 0 0)
(0.0112337 -0.00161461 0 0.0038243 0 0)
(0.0116029 -0.00267083 0 0.00486392 0 0)
(0.0126311 -0.00418057 0 0.00643265 0 0)
(0.0143687 -0.00628424 0 0.00873238 0 0)
(0.0168443 -0.00918725 0 0.0120776 0 0)
(0.0201106 -0.013152 0 0.0168962 0 0)
(0.0241668 -0.0184604 0 0.023829 0 0)
(0.0289811 -0.025371 0 0.0336662 0 0)
(0.0343119 -0.0340442 0 0.0475702 0 0)
(0.0398788 -0.0444521 0 0.0667229 0 0)
(0.045089 -0.0562022 0 0.0928817 0 0)
(0.04961 -0.0684447 0 0.127058 0 0)
(0.0529223 -0.0796496 0 0.1711 0 0)
(0.0241555 0.000287604 0 0.0066135 0 0)
(0.0130759 -0.000219115 0 0.00463209 0 0)
(0.011716 -0.000471727 0 0.00346609 0 0)
(0.0106365 -0.000663443 0 0.00332103 0 0)
(0.0102016 -0.00101803 0 0.00365305 0 0)
(0.0102352 -0.00165526 0 0.00438293 0 0)
(0.0106411 -0.00265642 0 0.00559524 0 0)
(0.0114434 -0.00410162 0 0.00744697 0 0)
(0.0127016 -0.00611088 0 0.010147 0 0)
(0.0144764 -0.00884825 0 0.0140147 0 0)
(0.0168165 -0.0125 0 0.0194665 0 0)
(0.0196761 -0.017246 0 0.0271107 0 0)
(0.0229678 -0.0232169 0 0.0376464 0 0)
(0.0264697 -0.0304262 0 0.052078 0 0)
(0.0299217 -0.0386939 0 0.0713024 0 0)
(0.0329741 -0.047548 0 0.0966826 0 0)
(0.0354463 -0.0561617 0 0.128726 0 0)
(0.037237 -0.0633544 0 0.168813 0 0)
(0.0270453 0.000435281 0 0.00673659 0 0)
(0.0158506 -5.4658e-05 0 0.00507021 0 0)
(0.0142813 -0.000358045 0 0.00390304 0 0)
(0.0129106 -0.000556704 0 0.00375847 0 0)
(0.0121122 -0.000879471 0 0.00417123 0 0)
(0.011762 -0.00146421 0 0.00506135 0 0)
(0.0117803 -0.00237606 0 0.00649841 0 0)
(0.0121458 -0.00365771 0 0.00862855 0 0)
(0.0128548 -0.00539525 0 0.0116663 0 0)
(0.0139167 -0.00771075 0 0.0159338 0 0)
(0.01534 -0.0107406 0 0.0218331 0 0)
(0.0170791 -0.0145918 0 0.0299288 0 0)
(0.0190361 -0.0193128 0 0.0408311 0 0)
(0.0210368 -0.0248191 0 0.0553889 0 0)
(0.0229015 -0.0308734 0 0.0742685 0 0)
(0.0244571 -0.0369988 0 0.0985284 0 0)
(0.0257278 -0.0424857 0 0.128352 0 0)
(0.0267783 -0.0464156 0 0.164797 0 0)
(0.0263834 0.000224071 0 0.00715699 0 0)
(0.0160395 -0.000154082 0 0.00565822 0 0)
(0.0145661 -0.000391618 0 0.00438961 0 0)
(0.0130389 -0.00052073 0 0.00420975 0 0)
(0.0121434 -0.000761295 0 0.00468473 0 0)
(0.0117609 -0.00126552 0 0.00567521 0 0)
(0.0116984 -0.00211293 0 0.0072461 0 0)
(0.0118767 -0.00332563 0 0.00957009 0 0)
(0.0122951 -0.00493766 0 0.0128801 0 0)
(0.0129802 -0.00700931 0 0.0174903 0 0)
(0.0139259 -0.00960684 0 0.0237662 0 0)
(0.015053 -0.0127552 0 0.0322111 0 0)
(0.016256 -0.01643 0 0.0433318 0 0)
(0.0173993 -0.0204648 0 0.0578359 0 0)
(0.0184205 -0.024618 0 0.0761808 0 0)
(0.0192153 -0.028401 0 0.099209 0 0)
(0.0199976 -0.031289 0 0.126843 0 0)
(0.0207912 -0.0324431 0 0.15998 0 0)
(0.026548 0.000247753 0 0.00833338 0 0)
(0.0158926 -0.000532634 0 0.00698136 0 0)
(0.014408 -0.000701056 0 0.00539607 0 0)
(0.0131661 -0.000800579 0 0.00505586 0 0)
(0.0124918 -0.00112169 0 0.00554813 0 0)
(0.0121458 -0.00171195 0 0.00668308 0 0)
(0.0120465 -0.00257909 0 0.00846896 0 0)
(0.0121666 -0.00373501 0 0.0110426 0 0)
(0.0124738 -0.005208 0 0.0146122 0 0)
(0.0129358 -0.00702575 0 0.0194719 0 0)
(0.0135149 -0.00920167 0 0.0259474 0 0)
(0.0141503 -0.0116936 0 0.0344741 0 0)
(0.0147783 -0.014419 0 0.0454444 0 0)
(0.0153323 -0.0171631 0 0.0594302 0 0)
(0.0157946 -0.0196745 0 0.0766934 0 0)
(0.0162147 -0.021499 0 0.0978925 0 0)
(0.0167631 -0.022223 0 0.122755 0 0)
(0.0176588 -0.0211669 0 0.152036 0 0)
(0.0259881 0.000328044 0 0.00951656 0 0)
(0.0153417 -0.000336276 0 0.00792985 0 0)
(0.013825 -0.000357947 0 0.00628132 0 0)
(0.0126818 -0.000370568 0 0.00597508 0 0)
(0.0119526 -0.000498025 0 0.00653725 0 0)
(0.0113682 -0.000813283 0 0.00778534 0 0)
(0.0109547 -0.00136009 0 0.00972189 0 0)
(0.010753 -0.00214058 0 0.0124849 0 0)
(0.0107279 -0.00313804 0 0.0162724 0 0)
(0.0108262 -0.00431601 0 0.0213391 0 0)
(0.0110013 -0.00562678 0 0.0279419 0 0)
(0.0111889 -0.00698232 0 0.0364295 0 0)
(0.0113625 -0.00827486 0 0.047069 0 0)
(0.0114971 -0.00930034 0 0.0602876 0 0)
(0.0116374 -0.00983935 0 0.0761694 0 0)
(0.0118813 -0.00952609 0 0.0952118 0 0)
(0.0124248 -0.00806848 0 0.116992 0 0)
(0.0135181 -0.00496138 0 0.142175 0 0)
(0.0240678 -9.02686e-05 0 0.010525 0 0)
(0.0152046 -0.00078802 0 0.00916688 0 0)
(0.0141964 -0.00122171 0 0.00710924 0 0)
(0.0128917 -0.00138418 0 0.00668673 0 0)
(0.0120388 -0.00150277 0 0.00729269 0 0)
(0.0114824 -0.00177703 0 0.00863641 0 0)
(0.0112332 -0.00225593 0 0.0106757 0 0)
(0.0112317 -0.0028813 0 0.0135197 0 0)
(0.0112943 -0.00357578 0 0.0173346 0 0)
(0.011275 -0.0042589 0 0.0223282 0 0)
(0.0111591 -0.00485448 0 0.0286873 0 0)
(0.0109993 -0.00525915 0 0.0366642 0 0)
(0.0108702 -0.00535822 0 0.0464204 0 0)
(0.0108539 -0.0049703 0 0.0582558 0 0)
(0.0110244 -0.00391855 0 0.072137 0 0)
(0.01154 -0.00193964 0 0.0884334 0 0)
(0.0125482 0.00115712 0 0.106659 0 0)
(0.0143064 0.00572409 0 0.127391 0 0)
(0.0265022 0.000129468 0 0.0113608 0 0)
(0.0161129 -0.000728492 0 0.0105921 0 0)
(0.0141138 -0.000821253 0 0.00857612 0 0)
(0.0123893 -0.000715195 0 0.0080374 0 0)
(0.0114745 -0.000581668 0 0.00855499 0 0)
(0.0108954 -0.00054502 0 0.00990158 0 0)
(0.0104961 -0.000584619 0 0.0119775 0 0)
(0.0102407 -0.00059427 0 0.0148082 0 0)
(0.0100518 -0.000470724 0 0.0185046 0 0)
(0.0098741 -0.000144655 0 0.0232281 0 0)
(0.00971347 0.000425807 0 0.0291096 0 0)
(0.00962761 0.00131712 0 0.0363134 0 0)
(0.0096895 0.00262014 0 0.0449041 0 0)
(0.0100067 0.0045067 0 0.0550658 0 0)
(0.0106528 0.00711154 0 0.0666799 0 0)
(0.0117897 0.0106453 0 0.0800176 0 0)
(0.0135301 0.015199 0 0.0946027 0 0)
(0.0160881 0.0210042 0 0.110917 0 0)
(0.025625 0.00018404 0 0.0122529 0 0)
(0.0163182 -0.00054318 0 0.0115139 0 0)
(0.0142888 -0.000820071 0 0.0088161 0 0)
(0.0124039 -0.000865449 0 0.00798975 0 0)
(0.0113436 -0.000755858 0 0.00841611 0 0)
(0.0105942 -0.000586262 0 0.00963135 0 0)
(0.0100161 -0.000365535 0 0.0114734 0 0)
(0.00964556 -3.20281e-05 0 0.0139555 0 0)
(0.00946808 0.000491204 0 0.0171631 0 0)
(0.00945036 0.00128909 0 0.0212064 0 0)
(0.00958916 0.00243194 0 0.0261559 0 0)
(0.00992852 0.00400926 0 0.0320972 0 0)
(0.0105205 0.0060933 0 0.0390288 0 0)
(0.011474 0.00881226 0 0.0470423 0 0)
(0.0128471 0.0122226 0 0.0559889 0 0)
(0.01482 0.0164748 0 0.0660599 0 0)
(0.0174387 0.0215391 0 0.0768584 0 0)
(0.0209498 0.027628 0 0.088749 0 0)
(0.0244492 0.000132425 0 0.0113549 0 0)
(0.0158279 -0.000320956 0 0.0109633 0 0)
(0.0139815 -0.000470784 0 0.00898649 0 0)
(0.0120263 -0.000211586 0 0.00817088 0 0)
(0.0109145 0.00020819 0 0.00833494 0 0)
(0.0101646 0.000613413 0 0.00925488 0 0)
(0.00969677 0.00105446 0 0.0107749 0 0)
(0.0095173 0.00166264 0 0.0128242 0 0)
(0.00959001 0.00254364 0 0.0154004 0 0)
(0.00988149 0.00376767 0 0.0185436 0 0)
(0.010388 0.0053748 0 0.0222846 0 0)
(0.011159 0.00742033 0 0.0266738 0 0)
(0.0122655 0.00994604 0 0.0316921 0 0)
(0.0138124 0.0130336 0 0.0373863 0 0)
(0.0158569 0.0166989 0 0.0436275 0 0)
(0.0185292 0.0210197 0 0.0505372 0 0)
(0.021871 0.0259434 0 0.057838 0 0)
(0.0260266 0.0315874 0 0.0657612 0 0)
(0.0239296 0.000722465 0 0.0118279 0 0)
(0.0151226 0.000732681 0 0.0105802 0 0)
(0.0139285 0.000331615 0 0.00782668 0 0)
(0.0124337 0.00040897 0 0.00696384 0 0)
(0.0113711 0.000851906 0 0.00720389 0 0)
(0.0106722 0.00141277 0 0.00801817 0 0)
(0.0103819 0.00207899 0 0.00916522 0 0)
(0.0104982 0.00294624 0 0.0105946 0 0)
(0.01098 0.00408422 0 0.012351 0 0)
(0.0117796 0.00553389 0 0.0145008 0 0)
(0.0128842 0.0073261 0 0.0170749 0 0)
(0.014333 0.00950908 0 0.02009 0 0)
(0.0161917 0.0121146 0 0.0235072 0 0)
(0.0185569 0.0151939 0 0.0273345 0 0)
(0.0214837 0.0187454 0 0.0314755 0 0)
(0.0250672 0.0227975 0 0.0360071 0 0)
(0.0293408 0.0273028 0 0.0407525 0 0)
(0.0343739 0.0323047 0 0.0458458 0 0)
(0.0261273 0.000700913 0 0.0111606 0 0)
(0.0161999 0.000541623 0 0.0103375 0 0)
(0.0144108 0.000548254 0 0.00775181 0 0)
(0.0129564 0.000812652 0 0.00657098 0 0)
(0.0119441 0.00122101 0 0.006387 0 0)
(0.0112986 0.00170244 0 0.00680016 0 0)
(0.0110961 0.00229608 0 0.00758324 0 0)
(0.0113038 0.00309002 0 0.00863615 0 0)
(0.011865 0.00414608 0 0.00993964 0 0)
(0.0127553 0.00550079 0 0.0115113 0 0)
(0.0140009 0.00717637 0 0.0133573 0 0)
(0.0156759 0.00919979 0 0.0154799 0 0)
(0.0178651 0.0115863 0 0.0178539 0 0)
(0.0206559 0.0143627 0 0.0204859 0 0)
(0.0240811 0.0175129 0 0.0233075 0 0)
(0.0282139 0.0210531 0 0.0263893 0 0)
(0.0330544 0.0249414 0 0.0296065 0 0)
(0.0386223 0.0292014 0 0.0330271 0 0)
(0.0279035 -6.51385e-05 0 0.0105594 0 0)
(0.0166831 0.000175373 0 0.00902248 0 0)
(0.014363 0.000496623 0 0.00645899 0 0)
(0.0129373 0.000888878 0 0.0054478 0 0)
(0.0122634 0.00124594 0 0.00525825 0 0)
(0.0120207 0.00162393 0 0.0054907 0 0)
(0.0121175 0.00214985 0 0.00597984 0 0)
(0.0125293 0.00292187 0 0.00665897 0 0)
(0.0132622 0.00396302 0 0.00751299 0 0)
(0.0143592 0.00525907 0 0.00855401 0 0)
(0.0158994 0.00679922 0 0.00978845 0 0)
(0.017972 0.0085986 0 0.0112182 0 0)
(0.0206402 0.0106785 0 0.012825 0 0)
(0.0239565 0.0130711 0 0.0146071 0 0)
(0.027922 0.0157694 0 0.0165082 0 0)
(0.0325813 0.0187927 0 0.0185809 0 0)
(0.0379155 0.0221032 0 0.0207353 0 0)
(0.0439218 0.0257129 0 0.0229969 0 0)
(0.0247267 0.000318558 0 0.00947426 0 0)
(0.0143385 -2.22933e-05 0 0.00782392 0 0)
(0.0128728 8.62821e-05 0 0.00559984 0 0)
(0.0120091 0.00043386 0 0.00463058 0 0)
(0.0115902 0.000796998 0 0.00433806 0 0)
(0.0113393 0.00119591 0 0.0044141 0 0)
(0.0112902 0.00172377 0 0.00470791 0 0)
(0.0115523 0.00244012 0 0.00515227 0 0)
(0.0122168 0.00334967 0 0.00572568 0 0)
(0.0133441 0.00443853 0 0.0064264 0 0)
(0.0149715 0.00570736 0 0.0072547 0 0)
(0.0171315 0.00718516 0 0.00821123 0 0)
(0.0198442 0.00890156 0 0.00928402 0 0)
(0.0231504 0.0108933 0 0.0104718 0 0)
(0.0270465 0.0131584 0 0.011738 0 0)
(0.0316023 0.0157052 0 0.0131169 0 0)
(0.0368111 0.0184953 0 0.0145488 0 0)
(0.0426936 0.0215314 0 0.0160459 0 0)
(0.0241683 0.000381127 0 0.00867207 0 0)
(0.0141242 0.000221236 0 0.00640889 0 0)
(0.0128584 0.000207088 0 0.00443274 0 0)
(0.0120098 0.000423786 0 0.00364822 0 0)
(0.0115913 0.000739195 0 0.00342153 0 0)
(0.0114142 0.00111429 0 0.00346958 0 0)
(0.0115182 0.00156608 0 0.00365952 0 0)
(0.0119889 0.00213116 0 0.00393932 0 0)
(0.0128807 0.00283633 0 0.00429835 0 0)
(0.0142262 0.0036991 0 0.00474074 0 0)
(0.0160531 0.0047368 0 0.00526848 0 0)
(0.0183946 0.00597139 0 0.00588062 0 0)
(0.021283 0.00741781 0 0.00656935 0 0)
(0.0247586 0.00909517 0 0.00733384 0 0)
(0.0288342 0.0109934 0 0.0081475 0 0)
(0.0335654 0.0131096 0 0.00903733 0 0)
(0.0389674 0.0154101 0 0.00996513 0 0)
(0.0450262 0.0178865 0 0.0109283 0 0)
(0.0259266 9.25041e-05 0 0.00747904 0 0)
(0.0152536 -1.33973e-06 0 0.00550632 0 0)
(0.0136295 2.49687e-05 0 0.0037792 0 0)
(0.012616 0.00023173 0 0.0030667 0 0)
(0.0122047 0.000496426 0 0.0028186 0 0)
(0.0121656 0.000811114 0 0.0027959 0 0)
(0.0124989 0.00120848 0 0.00287264 0 0)
(0.0132092 0.00170825 0 0.00300634 0 0)
(0.0142874 0.00230991 0 0.0031954 0 0)
(0.0157414 0.00301543 0 0.00344597 0 0)
(0.0176054 0.00383679 0 0.0037569 0 0)
(0.0199412 0.00479989 0 0.00412479 0 0)
(0.0228218 0.00592999 0 0.00454439 0 0)
(0.0263286 0.00724719 0 0.00501416 0 0)
(0.0304975 0.00874407 0 0.00551573 0 0)
(0.035389 0.0104149 0 0.00607223 0 0)
(0.0410025 0.0122283 0 0.00665624 0 0)
(0.0472991 0.0141755 0 0.00725738 0 0)
(0.0256569 -0.000124338 0 0.00644669 0 0)
(0.0159933 -1.69294e-05 0 0.00442435 0 0)
(0.0148047 -6.23906e-05 0 0.00300565 0 0)
(0.0136853 3.1797e-05 0 0.00246823 0 0)
(0.0128566 0.00020639 0 0.00226176 0 0)
(0.0123706 0.000439484 0 0.00219665 0 0)
(0.012401 0.000743001 0 0.00219233 0 0)
(0.0130156 0.00112543 0 0.00222741 0 0)
(0.0141826 0.00158949 0 0.00230631 0 0)
(0.0158352 0.00214561 0 0.0024317 0 0)
(0.0179235 0.00280551 0 0.00259971 0 0)
(0.0204469 0.00357823 0 0.00280451 0 0)
(0.0234512 0.00446745 0 0.00304162 0 0)
(0.0270208 0.0054811 0 0.00331151 0 0)
(0.0312034 0.00661743 0 0.00360258 0 0)
(0.0360799 0.00788151 0 0.00393055 0 0)
(0.0416446 0.00925842 0 0.0042791 0 0)
(0.0478805 0.0107482 0 0.00463512 0 0)
(0.0275648 -0.00018681 0 0.00564427 0 0)
(0.0171944 -0.000263733 0 0.00367458 0 0)
(0.0156736 -5.6983e-05 0 0.00250466 0 0)
(0.0147429 0.000243367 0 0.00205626 0 0)
(0.0143038 0.00048298 0 0.00189265 0 0)
(0.0140685 0.000646561 0 0.0018345 0 0)
(0.0141336 0.000792358 0 0.00181369 0 0)
(0.0146169 0.000986547 0 0.00181265 0 0)
(0.015549 0.00126531 0 0.00183261 0 0)
(0.0169232 0.00164051 0 0.0018764 0 0)
(0.0187482 0.00211266 0 0.00194383 0 0)
(0.0210696 0.00267892 0 0.00203397 0 0)
(0.0239471 0.00333567 0 0.00214569 0 0)
(0.0274496 0.00408865 0 0.00227853 0 0)
(0.0315815 0.00493397 0 0.00242502 0 0)
(0.0363942 0.00586992 0 0.00259738 0 0)
(0.0418717 0.00688825 0 0.00278391 0 0)
(0.0479689 0.00798328 0 0.00297124 0 0)
(0.0256896 -0.000360585 0 0.00472339 0 0)
(0.0169862 -0.000415157 0 0.00275794 0 0)
(0.0156252 -0.000267664 0 0.00183939 0 0)
(0.0145281 -0.000119452 0 0.00155695 0 0)
(0.0140722 -2.02269e-05 0 0.0014384 0 0)
(0.0139668 4.68265e-05 0 0.00136032 0 0)
(0.0141975 0.000131618 0 0.00129477 0 0)
(0.0147973 0.000277054 0 0.00124375 0 0)
(0.0157898 0.000492632 0 0.00121217 0 0)
(0.0172118 0.000767175 0 0.00120106 0 0)
(0.0191115 0.00109081 0 0.00120821 0 0)
(0.0215392 0.00146392 0 0.00123163 0 0)
(0.0245334 0.0018929 0 0.00127159 0 0)
(0.0281318 0.00238978 0 0.00132831 0 0)
(0.0323205 0.00296093 0 0.00139622 0 0)
(0.0371496 0.00360821 0 0.00148408 0 0)
(0.0426223 0.00432652 0 0.00158459 0 0)
(0.0486863 0.00511641 0 0.00168533 0 0)
(0.0266109 -0.000739677 0 0.00357614 0 0)
(0.0166813 -0.000629593 0 0.00189395 0 0)
(0.0154563 -0.000457623 0 0.00128623 0 0)
(0.0146771 -0.000386209 0 0.00107457 0 0)
(0.0143163 -0.000388602 0 0.000966006 0 0)
(0.0140984 -0.000394319 0 0.000895588 0 0)
(0.0141111 -0.000362622 0 0.00084216 0 0)
(0.0144879 -0.000292827 0 0.000802404 0 0)
(0.0153267 -0.00019517 0 0.000775074 0 0)
(0.016684 -6.77772e-05 0 0.000758411 0 0)
(0.0185739 0.000102588 0 0.000750876 0 0)
(0.0210047 0.000331059 0 0.00075131 0 0)
(0.0240078 0.000627102 0 0.000759047 0 0)
(0.0276546 0.000991428 0 0.000772926 0 0)
(0.0319978 0.00142033 0 0.000790563 0 0)
(0.0371596 0.00190491 0 0.00081809 0 0)
(0.0431899 0.00243873 0 0.00085044 0 0)
(0.0500776 0.00301861 0 0.000880757 0 0)
(0.0253028 -0.000638492 0 0.0025933 0 0)
(0.0157226 -0.000134103 0 0.00128972 0 0)
(0.0146183 -0.000104132 0 0.000959616 0 0)
(0.0134454 -9.22229e-05 0 0.000812857 0 0)
(0.0128454 -7.84572e-05 0 0.000719671 0 0)
(0.0128443 -4.31917e-05 0 0.000654134 0 0)
(0.0134808 9.46524e-06 0 0.000603063 0 0)
(0.0147151 6.4601e-05 0 0.000561671 0 0)
(0.0165268 0.000119281 0 0.000528651 0 0)
(0.0189801 0.000185473 0 0.000502554 0 0)
(0.022195 0.000276477 0 0.000481455 0 0)
(0.0263201 0.000398351 0 0.000464056 0 0)
(0.0315092 0.000549607 0 0.000450167 0 0)
(0.0379078 0.000725863 0 0.000438958 0 0)
(0.0456144 0.000924615 0 0.000429568 0 0)
(0.0547413 0.00114294 0 0.000426172 0 0)
(0.0653156 0.00137962 0 0.000422893 0 0)
(0.0773141 0.00164175 0 0.000412679 0 0)
(0.0200115 -0.0363444 1.62066e-22 0.0756293 -3.60421e-22 5.65061e-38)
(0.151159 -0.0815525 -3.72375e-22 0.0561229 1.67873e-22 5.57012e-38)
(0.364234 -0.111672 0 0.0611893 0 0)
(0.594334 -0.11721 0 0.074988 0 0)
(0.82118 -0.123262 0 0.0864606 0 0)
(1.07003 -0.141398 -5.27739e-23 0.0966519 2.39979e-22 5.24617e-38)
(1.36241 -0.173268 0 0.106732 0 0)
(1.72125 -0.216103 0 0.107107 0 0)
(2.15758 -0.253885 0 0.099497 0 0)
(2.66354 -0.279691 0 0.0890363 0 0)
(3.21851 -0.288773 1.38551e-21 0.0763479 -1.06948e-22 4.85759e-38)
(3.79024 -0.27814 0 0.0631102 0 0)
(4.35621 -0.245853 0 0.0508065 0 0)
(4.89239 -0.19448 0 0.0446056 0 0)
(5.37359 -0.146594 0 0.0411909 0 0)
(5.78838 -0.134469 2.02415e-21 0.0456124 1.30792e-22 4.48894e-38)
(6.17551 -0.129856 0 0.0604439 0 0)
(6.5037 -0.107211 0 0.0672641 0 0)
(6.77056 -0.0865217 0 0.0778101 0 0)
(6.97746 -0.0641168 0 0.0869922 0 0)
(7.14202 -0.0466928 0 0.0971503 0 0)
(7.2949 -0.0241837 0 0.10019 0 0)
(7.43032 0.0189045 0 0.111311 0 0)
(7.53963 0.0373005 -5.47475e-22 0.109939 4.2011e-22 3.9405e-38)
(7.63469 0.0510817 1.06552e-21 0.114096 -3.77457e-22 3.87537e-38)
(7.7281 0.0613857 -1.56181e-21 0.133416 3.27413e-22 3.81095e-38)
(7.8331 0.0696234 -2.02772e-21 0.150766 2.7477e-22 3.74726e-38)
(7.93731 0.0672459 0 0.16527 0 0)
(8.08806 0.0138402 0 0.183328 0 0)
(8.28501 -0.0334034 3.26426e-21 0.197541 -1.75338e-22 3.56038e-38)
(8.50424 -0.0692688 3.61247e-21 0.186864 -1.44393e-22 3.49952e-38)
(8.76787 -0.113906 0 0.201428 0 0)
(9.09482 -0.168672 0 0.220538 0 0)
(9.45724 -0.224752 4.47815e-21 0.258321 -9.1388e-23 3.32121e-38)
(9.88124 -0.26747 0 0.267637 0 0)
(10.3992 -0.313232 0 0.27475 0 0)
(11.0749 -0.418192 -5.26594e-21 0.295038 9.35912e-23 3.14935e-38)
(11.8856 -0.486171 0 0.29699 0 0)
(12.7991 -0.523249 -5.80835e-21 0.289639 1.03316e-22 3.0384e-38)
(13.7899 -0.56657 -1.2236e-20 0.301647 2.49559e-22 1.1936e-37)
(14.9244 -0.619661 0 0.289251 0 0)
(16.2109 -0.696371 0 0.297112 0 0)
(17.5784 -0.745908 0 0.293984 0 0)
(18.8858 -0.679649 0 0.25333 0 0)
(20.0045 -0.576307 0 0.231587 0 0)
(20.9415 -0.49508 -1.81901e-20 0.239354 6.69895e-22 1.0692e-37)
(21.741 -0.442326 -1.95076e-20 0.249217 6.74798e-22 1.04948e-37)
(22.4164 -0.408978 -2.07378e-20 0.255532 6.24525e-22 1.03004e-37)
(23.0803 -0.41445 0 0.236987 0 0)
(23.7274 -0.384412 2.26102e-20 0.229936 -4.98863e-22 9.91984e-38)
(24.5192 -0.461201 0 0.216176 0 0)
(25.2891 -0.600272 -2.37467e-20 0.2879 4.51073e-22 9.5502e-38)
(26.0019 -0.589764 -2.43073e-20 0.271276 3.74403e-22 9.36953e-38)
(26.1548 -0.602396 0 0.393387 0 0)
(26.0074 -0.366382 0 0.254067 0 0)
(25.274 0.0321361 0 0.281609 0 0)
(24.4516 0.0173102 -2.59976e-20 0.298157 2.91007e-22 8.67338e-38)
(23.8838 -0.135169 0 0.27067 0 0)
(23.5765 -0.295588 0 0.231212 0 0)
(23.5693 -0.363419 0 0.230939 0 0)
(23.9345 -0.410117 0 0.252602 0 0)
(24.4754 -0.520445 0 0.254825 0 0)
(25.0045 -0.702768 0 0.273475 0 0)
(25.6092 -0.427514 0 0.183367 0 0)
(25.8542 -0.378848 0 0.242205 0 0)
(26.517 -0.469652 3.34736e-20 0.196553 -4.1356e-22 7.25694e-38)
(27.4153 -0.512639 0 0.174344 0 0)
(28.4441 -0.486972 0 0.146102 0 0)
(29.5023 -0.45386 -3.64937e-20 0.125471 5.20436e-22 6.8285e-38)
(30.5916 -0.441174 -3.75232e-20 0.113485 4.66206e-22 6.69037e-38)
(31.6218 -0.449506 0 0.113403 0 0)
(32.4772 -0.517954 3.92347e-20 0.114749 -3.60933e-22 6.42095e-38)
(33.3766 -0.567824 -3.99101e-20 0.11437 3.90393e-22 6.28956e-38)
(34.1191 -0.518101 0 0.113009 0 0)
(34.6637 -0.434834 4.08689e-20 0.122104 -4.46811e-22 6.03323e-38)
(35.1768 -0.331704 0 0.135355 0 0)
(35.3075 -0.340963 0 0.168764 0 0)
(35.3943 -0.276783 -4.09375e-20 0.145606 4.80525e-22 5.66435e-38)
(35.0886 0.0186184 0 0.149454 0 0)
(34.646 0.0169058 3.95231e-20 0.148054 -1.52394e-22 5.42859e-38)
(34.3056 0.0260125 0 0.119495 0 0)
(33.8999 0.0479571 -3.79611e-20 0.104329 1.78617e-22 5.20085e-38)
(33.4188 0.0775947 -3.72649e-20 0.0922576 1.76167e-22 5.08995e-38)
(32.8954 0.0835933 -3.65885e-20 0.082201 1.80002e-22 4.98101e-38)
(32.3377 0.084404 -7.18113e-20 0.0773897 3.5101e-22 1.94959e-37)
(31.7741 0.0386658 7.039e-20 0.0714544 -3.20647e-22 1.90753e-37)
(31.2354 -0.0341512 0 0.0726563 0 0)
(30.6297 0.0406556 0 0.0878462 0 0)
(29.8865 0.112704 0 0.0908121 0 0)
(29.2608 0.0762023 6.46207e-20 0.0987598 -2.51178e-22 1.74654e-37)
(28.9056 0.010912 6.33685e-20 0.0882782 -2.94394e-22 1.70806e-37)
(28.779 -0.0416727 -6.23782e-20 0.0762129 3.15853e-22 1.67026e-37)
(28.8362 -0.0849954 0 0.0661733 0 0)
(29.053 -0.119703 6.10691e-20 0.0574013 -4.34184e-22 1.59668e-37)
(29.3941 -0.141734 6.06764e-20 0.050927 -4.59006e-22 1.56088e-37)
(29.8055 -0.142828 6.03034e-20 0.0459741 -4.26319e-22 1.52572e-37)
(30.2126 -0.130314 0 0.0425208 0 0)
(30.5691 -0.100857 0 0.0397134 0 0)
(30.7867 -0.0512642 0 0.0376344 0 0)
(30.7532 0.0237679 5.69778e-20 0.0373148 -2.00002e-22 1.39129e-37)
(30.3658 0.108548 0 0.0393888 0 0)
(29.6239 0.189844 0 0.0455695 0 0)
(28.5487 0.236967 -5.22588e-20 0.051232 -7.05905e-23 1.29672e-37)
(27.3863 0.243738 0 0.0570486 0 0)
(26.2624 0.16038 0 0.0437968 0 0)
(25.3654 0.0890787 -4.52914e-20 0.0511358 -2.8074e-23 1.20723e-37)
(24.3871 0.0945747 0 0.101904 0 0)
(23.7813 -0.0065719 0 0.120594 0 0)
(23.5739 -0.10013 3.93398e-20 0.115112 -1.69903e-22 1.12258e-37)
(23.8034 -0.163694 3.8456e-20 0.0947891 -2.48728e-22 1.09544e-37)
(24.2222 -0.176811 0 0.0798191 0 0)
(24.7982 -0.181813 -3.84033e-20 0.0734265 3.05665e-22 1.04271e-37)
(25.4297 -0.180802 0 0.066269 0 0)
(26.0905 -0.17237 3.94921e-20 0.0575482 -3.19413e-22 9.92001e-38)
(26.6635 -0.139098 0 0.0485952 0 0)
(27.0542 -0.0862684 4.00072e-20 0.0408644 -2.06089e-22 9.43202e-38)
(27.183 -0.0228859 3.96476e-20 0.0349761 -1.28021e-22 9.19491e-38)
(27.0198 0.0441475 0 0.0308222 0 0)
(26.5456 0.109396 0 0.0281428 0 0)
(25.7713 0.164874 0 0.0272435 0 0)
(24.7514 0.206611 0 0.0274485 0 0)
(23.5476 0.234907 0 0.0279349 0 0)
(22.2152 0.250718 0 0.028275 0 0)
(20.818 0.2539 0 0.0285814 0 0)
(19.4223 0.244627 2.17283e-20 0.0291118 1.44003e-22 7.45458e-38)
(18.0983 0.223022 -1.92863e-20 0.030192 -1.15284e-22 7.2559e-38)
(16.9129 0.189724 0 0.0316693 0 0)
(15.9182 0.149497 0 0.03206 0 0)
(15.1282 0.111365 0 0.0309193 0 0)
(14.5397 0.0751652 0 0.0303959 0 0)
(14.1551 0.0396386 -2.5758e-20 0.0300363 3.42346e-22 2.52857e-37)
(13.951 0.0121116 0 0.028053 0 0)
(13.8759 -0.00374417 2.57034e-20 0.0253445 -4.34946e-22 2.38955e-37)
(13.8843 -0.0130701 -2.61948e-20 0.023852 4.44263e-22 2.32218e-37)
(13.9612 -0.0229578 0 0.0237356 0 0)
(14.1005 -0.0352508 0 0.0244204 0 0)
(14.3146 -0.0509114 0 0.0257208 0 0)
(14.622 -0.068005 2.84855e-20 0.02923 -4.90805e-22 2.06632e-37)
(15.0492 -0.0950157 2.89739e-20 0.0380977 -5.03747e-22 2.00565e-37)
(15.6979 -0.144023 0 0.0478772 0 0)
(16.639 -0.198689 3.01791e-20 0.0536617 -4.83442e-22 1.88812e-37)
(17.7647 -0.220718 3.12849e-20 0.0507863 -5.15316e-22 1.83123e-37)
(18.8133 -0.191335 -3.26048e-20 0.0419956 5.08923e-22 1.77558e-37)
(19.603 -0.131736 0 0.0341744 0 0)
(20.0517 -0.0641702 0 0.0292247 0 0)
(20.1561 -0.000607326 -3.36513e-20 0.0268034 3.48226e-22 1.6157e-37)
(19.9579 0.0504489 0 0.0268443 0 0)
(19.543 0.0806964 0 0.0286784 0 0)
(19.0196 0.088005 0 0.0312174 0 0)
(18.503 0.0796556 0 0.033602 0 0)
(18.0528 0.0664648 2.58805e-20 0.0356099 -3.24591e-22 1.37166e-37)
(17.6828 0.0556004 2.47734e-20 0.0366176 -3.87283e-22 1.32611e-37)
(17.3664 0.0525121 0 0.0361479 0 0)
(17.0699 0.0543919 2.4024e-20 0.0355846 -4.06884e-22 1.23812e-37)
(16.792 0.0550839 0 0.036341 0 0)
(16.5494 0.0521208 0 0.0377538 0 0)
(16.3538 0.0458934 2.35834e-20 0.0379148 -1.62138e-22 1.11357e-37)