/*--------------------------------*- C++ -*----------------------------------*\
| =========                 |                                                 |
| \\      /  F ield         | OpenFOAM: The Open Source CFD Toolbox           |
|  \\    /   O peration     | Version:  2112                                  |
|   \\  /    A nd           | Website:  www.openfoam.com                      |
|    \\/     M anipulation  |                                                 |
\*---------------------------------------------------------------------------*/
FoamFile
{
    version     2.0;
    format      ascii;
    arch        "LSB;label=32;scalar=64";
    class       volScalarField;
    location    "0.24";
    object      kU;
}
// * * * * * * * * * * * * * * * * * * * * * * * * * * * * * * * * * * * * * //

dimensions      [0 2 -2 0 0 0 0];

internalField   nonuniform List<scalar> 
12225
(
0.547202
0.874437
1.14409
1.39615
1.65771
1.94451
2.26606
2.62906
3.0386
3.4982
4.00934
4.57131
5.18132
5.8353
6.52757
7.2553
7.99726
8.72543
0.16617
0.194534
0.22824
0.267147
0.31174
0.362437
0.419406
0.482289
0.550051
0.621213
0.694238
0.767987
0.842053
0.916249
0.991194
1.06877
1.16147
1.26057
0.151163
0.154237
0.158512
0.162565
0.166424
0.170478
0.175086
0.180526
0.186928
0.194356
0.202891
0.21269
0.223979
0.236976
0.251903
0.269055
0.288757
0.30889
0.150168
0.150554
0.151209
0.152054
0.153042
0.154117
0.155203
0.156045
0.156594
0.156862
0.156902
0.156796
0.156643
0.15655
0.156621
0.156942
0.157551
0.1582
0.150035
0.150094
0.150219
0.150398
0.150633
0.15092
0.151244
0.151567
0.151859
0.152098
0.152248
0.15229
0.152236
0.152102
0.15191
0.151683
0.151452
0.151205
0.149973
0.149967
0.14999
0.150036
0.150109
0.150209
0.15033
0.15046
0.150592
0.150716
0.150825
0.150911
0.150974
0.151017
0.151046
0.151072
0.151104
0.151142
0.149924
0.149873
0.149853
0.149858
0.14989
0.14994
0.150003
0.150074
0.150148
0.150222
0.150292
0.150358
0.150419
0.150479
0.150541
0.150609
0.150685
0.150769
0.149889
0.149799
0.149743
0.149718
0.149725
0.149753
0.149793
0.149839
0.149889
0.14994
0.14999
0.15004
0.150091
0.150145
0.150205
0.150272
0.150347
0.150427
0.149863
0.149746
0.149661
0.149608
0.149588
0.149596
0.149617
0.149646
0.149679
0.149714
0.14975
0.149788
0.149828
0.149872
0.149922
0.149978
0.15004
0.150106
0.149844
0.149707
0.149601
0.149524
0.149479
0.149462
0.149464
0.149478
0.149496
0.149517
0.14954
0.149566
0.149595
0.149627
0.149665
0.149708
0.149756
0.149806
0.14983
0.149678
0.149555
0.149459
0.149392
0.149352
0.149332
0.149326
0.149329
0.149337
0.14935
0.149365
0.149382
0.149404
0.14943
0.14946
0.149493
0.149528
0.14982
0.149658
0.149522
0.149413
0.149329
0.149269
0.149229
0.149205
0.149191
0.149185
0.149185
0.14919
0.149199
0.149212
0.149228
0.149246
0.149268
0.14929
0.149812
0.149641
0.149495
0.149374
0.149276
0.149201
0.149144
0.149102
0.149071
0.14905
0.149036
0.149028
0.149025
0.149028
0.149035
0.149045
0.149057
0.149069
0.149806
0.149627
0.149471
0.149338
0.149228
0.149137
0.149064
0.149005
0.148957
0.148919
0.148888
0.148865
0.148847
0.148835
0.148828
0.148824
0.148823
0.148823
0.1498
0.149614
0.14945
0.149307
0.149185
0.149081
0.148993
0.148918
0.148854
0.148799
0.148752
0.148711
0.148676
0.148647
0.148622
0.1486
0.148581
0.148563
0.149796
0.149605
0.149433
0.149282
0.149149
0.149033
0.148932
0.148843
0.148765
0.148694
0.148631
0.148574
0.148522
0.148475
0.148431
0.148391
0.148353
0.148317
0.149794
0.149599
0.149422
0.149263
0.149122
0.148997
0.148885
0.148784
0.148693
0.148609
0.148532
0.14846
0.148393
0.148329
0.148269
0.148212
0.148157
0.148104
0.149793
0.149596
0.149416
0.149253
0.149106
0.148973
0.148852
0.148742
0.148641
0.148546
0.148457
0.148373
0.148293
0.148216
0.148142
0.14807
0.148001
0.147935
0.149794
0.149597
0.149417
0.149252
0.149102
0.148966
0.14884
0.148724
0.148616
0.148514
0.148417
0.148323
0.148233
0.148146
0.148062
0.147979
0.147899
0.147822
0.149797
0.149603
0.149425
0.149263
0.149114
0.148978
0.148852
0.148736
0.148626
0.148521
0.148421
0.148324
0.14823
0.148138
0.148049
0.147961
0.147875
0.147792
0.149801
0.149612
0.149438
0.14928
0.149135
0.149001
0.148879
0.148765
0.148657
0.148555
0.148456
0.148361
0.148267
0.148175
0.148085
0.147996
0.147908
0.147823
0.149807
0.149624
0.149457
0.149303
0.149163
0.149036
0.148919
0.148811
0.148709
0.148613
0.14852
0.14843
0.148342
0.148254
0.148168
0.148083
0.147998
0.147915
0.149816
0.149641
0.149481
0.149335
0.149202
0.149083
0.148976
0.148878
0.148788
0.148704
0.148623
0.148545
0.148468
0.148391
0.148315
0.148238
0.148161
0.148085
0.149828
0.149665
0.149516
0.14938
0.149259
0.149154
0.149063
0.148983
0.148912
0.148847
0.148786
0.148728
0.148671
0.148613
0.148554
0.148494
0.148432
0.14837
0.149847
0.149702
0.14957
0.149452
0.149351
0.149269
0.149203
0.149152
0.149113
0.149083
0.14906
0.149042
0.149025
0.149008
0.14899
0.148968
0.148943
0.148914
0.149877
0.149753
0.149653
0.149582
0.149544
0.149538
0.14956
0.149603
0.149664
0.149742
0.14983
0.149926
0.15002
0.150107
0.15018
0.150236
0.150273
0.150288
0.149934
0.149904
0.149976
0.150169
0.150463
0.150819
0.151215
0.151635
0.152063
0.152488
0.152899
0.153285
0.153592
0.153802
0.153918
0.153946
0.1539
0.153796
0.150287
0.15131
0.15285
0.154723
0.156835
0.158599
0.160086
0.161425
0.162754
0.164195
0.165839
0.16774
0.169934
0.172431
0.17523
0.178336
0.181763
0.185567
0.156163
0.167757
0.1823
0.19932
0.218677
0.240239
0.264031
0.290185
0.31877
0.34973
0.382877
0.417914
0.454471
0.492125
0.530448
0.569067
0.607714
0.646164
0.411109
0.635127
0.818267
0.98038
1.13608
1.28904
1.44615
1.61171
1.78823
1.97723
2.17969
2.39625
2.62729
2.87294
3.13304
3.40717
3.69443
3.99366
0.07267
0.0720778
0.0719053
0.0720721
0.0726639
0.0736994
0.0751506
0.0769676
0.0790855
0.081422
0.0838721
0.0862952
0.088475
0.0902893
0.0916436
0.0924725
0.0927403
0.092442
0.0916013
0.090267
0.0885009
0.08633
0.0838054
0.0811549
0.0786117
0.0764921
0.0751738
0.0750622
0.0765783
0.0802234
0.0866017
0.0967566
0.111969
0.133502
0.162347
0.199015
0.243506
0.295465
0.354382
0.419764
0.491238
0.568576
0.651662
0.740437
0.834821
0.934664
1.03971
1.14959
1.26384
1.38194
1.50332
1.62743
1.75376
1.88184
2.01129
2.14179
2.27313
2.40515
2.53776
2.67092
2.80462
2.93889
3.07374
3.20918
3.34521
3.48178
3.61882
3.75622
3.8938
4.03138
4.1687
4.3055
4.44147
4.57629
4.70961
4.84107
4.97033
5.09704
5.22084
5.34143
5.45851
5.5718
5.68106
5.7861
5.88675
5.98289
6.07443
6.16135
6.24364
6.32133
6.3945
6.46323
6.52762
6.58779
6.64386
6.69595
6.74418
6.7887
6.82962
6.8671
6.90126
6.93225
6.9602
6.98525
7.00753
7.02716
7.04426
7.05894
7.07129
7.08138
7.0893
7.09509
7.09881
7.10046
7.10008
7.09767
7.0932
7.08665
7.07797
7.0671
7.05393
7.03835
7.02021
6.99934
6.97551
6.94846
6.9179
6.88353
6.84504
6.80206
6.75412
6.70062
6.64145
6.57673
6.50615
6.42945
6.34628
6.25638
6.15956
6.05567
5.94464
5.82649
5.70129
5.56911
5.42998
5.28376
5.13011
4.9686
4.79898
4.62126
4.43561
4.24233
4.04181
3.83459
3.62136
3.40301
3.18073
2.95607
2.73099
2.50797
2.29011
2.0811
1.88607
1.71679
1.57508
1.55214
1.67199
1.89188
2.14791
2.4076
2.68621
2.9832
3.29907
3.6336
3.98629
4.35639
4.74413
5.1488
5.59158
6.04982
0.08207
0.0789963
0.0764138
0.0742701
0.0725834
0.0713099
0.0703955
0.0698045
0.069523
0.0695524
0.0698994
0.0705661
0.0715401
0.0727736
0.0741976
0.0757274
0.0772662
0.0787066
0.0799331
0.0808226
0.0812388
0.0809937
0.0799012
0.0779206
0.0751576
0.0718903
0.0685564
0.0657122
0.0639918
0.0640883
0.0667451
0.0727676
0.0829435
0.0979047
0.118011
0.143308
0.173578
0.208464
0.247588
0.29064
0.337409
0.387777
0.441684
0.499073
0.559845
0.623822
0.690731
0.760206
0.831806
0.905045
0.979418
1.05443
1.12963
1.20459
1.27899
1.35255
1.42505
1.49635
1.56635
1.635
1.70229
1.76821
1.83278
1.896
1.95786
2.01836
2.07745
2.13508
2.19117
2.24562
2.29834
2.3492
2.39807
2.44483
2.48935
2.53151
2.57121
2.60835
2.64284
2.67462
2.70364
2.72987
2.7533
2.77392
2.79174
2.80679
2.8191
2.82871
2.83568
2.84006
2.84195
2.84145
2.83871
2.83389
2.8272
2.81885
2.80909
2.79813
2.78619
2.77348
2.76017
2.74642
2.73236
2.71811
2.70376
2.68941
2.67512
2.66096
2.64698
2.63322
2.61974
2.60657
2.59375
2.58132
2.56932
2.55777
2.54672
2.53618
2.52617
2.51668
2.5077
2.49922
2.49122
2.48366
2.47653
2.46983
2.46354
2.45767
2.45212
2.44703
2.4426
2.43907
2.43621
2.43355
2.43094
2.42823
2.42521
2.42163
2.41719
2.41154
2.40427
2.39495
2.38317
2.3686
2.35109
2.33087
2.30856
2.28503
2.26102
2.23682
2.21238
2.18758
2.1622
2.13603
2.10881
2.08026
2.0501
2.01803
1.98372
1.94691
1.90739
1.8651
1.82082
1.77971
1.75452
1.76898
1.82271
1.89918
1.97725
2.04706
2.11292
2.17762
2.243
2.31056
2.38164
2.45759
2.53995
2.63253
2.74358
2.90584
0.097453
0.0900104
0.0841343
0.079474
0.0757817
0.0728179
0.0703947
0.068389
0.0667334
0.0654026
0.0644032
0.0637669
0.0635647
0.0638392
0.0646052
0.0658436
0.0674951
0.0694561
0.0715771
0.0736643
0.0754831
0.076642
0.0767819
0.0757062
0.0734196
0.0701711
0.0664491
0.0629362
0.0604409
0.0598139
0.0618524
0.0672072
0.0763145
0.0893686
0.106341
0.127032
0.151153
0.178404
0.208536
0.241374
0.276817
0.314809
0.355304
0.398232
0.443467
0.490809
0.539984
0.59065
0.642414
0.694858
0.747556
0.800104
0.852129
0.903302
0.953352
1.00206
1.04926
1.09485
1.13875
1.18093
1.22137
1.26009
1.29709
1.33238
1.36597
1.39786
1.42803
1.45645
1.48308
1.50787
1.53078
1.55175
1.57073
1.58766
1.60251
1.61524
1.62583
1.63427
1.64057
1.64474
1.64681
1.64682
1.64484
1.64094
1.63519
1.62771
1.61861
1.60802
1.59612
1.58308
1.56911
1.55443
1.53927
1.52389
1.50851
1.49336
1.47865
1.46455
1.45121
1.43875
1.42725
1.41678
1.40737
1.39905
1.39182
1.38569
1.38064
1.37665
1.3737
1.37177
1.37083
1.37084
1.37179
1.37365
1.37639
1.37998
1.38443
1.3897
1.39579
1.40273
1.41052
1.4192
1.42882
1.43942
1.45106
1.46377
1.47765
1.49274
1.50914
1.52679
1.54547
1.56512
1.5856
1.60678
1.62855
1.65077
1.6733
1.69596
1.71859
1.741
1.76302
1.7845
1.80536
1.82557
1.84523
1.86455
1.88381
1.90327
1.92302
1.94299
1.96299
1.98279
2.00213
2.02074
2.0383
2.05452
2.06906
2.08156
2.09165
2.09911
2.10384
2.10586
2.10545
2.10384
2.10492
2.11548
2.13419
2.15622
2.17562
2.18993
2.19998
2.20663
2.21078
2.21339
2.21542
2.2179
2.22201
2.2309
2.24843
2.29289
0.113436
0.100655
0.0910645
0.0838475
0.0783553
0.0740766
0.0706497
0.0678398
0.0655038
0.0635624
0.0619824
0.0607655
0.0599703
0.0596622
0.0599035
0.0607358
0.062163
0.0641346
0.0665352
0.0691943
0.0716786
0.0735163
0.0742807
0.0736934
0.0717229
0.0686403
0.0650148
0.0616525
0.059483
0.0594054
0.0621274
0.0680654
0.0773448
0.0898735
0.105431
0.123739
0.144526
0.167564
0.192697
0.219832
0.248922
0.279933
0.312814
0.34747
0.383751
0.421443
0.460273
0.499925
0.540051
0.580294
0.620305
0.659754
0.698345
0.735823
0.771976
0.806639
0.839692
0.871051
0.900668
0.92852
0.954604
0.978927
1.0015
1.02235
1.04148
1.05889
1.0746
1.0886
1.10089
1.11147
1.12034
1.12751
1.13299
1.1368
1.13899
1.13961
1.13873
1.13643
1.13282
1.12799
1.12209
1.11525
1.10762
1.09938
1.0907
1.08175
1.07273
1.06382
1.05521
1.04708
1.0396
1.03291
1.02715
1.02242
1.0188
1.01633
1.01504
1.01493
1.01597
1.01814
1.02139
1.02566
1.0309
1.03706
1.04408
1.0519
1.0605
1.06982
1.07984
1.09052
1.10184
1.1138
1.12637
1.13956
1.15337
1.16781
1.18288
1.19861
1.21503
1.23217
1.25009
1.26883
1.2884
1.30884
1.33021
1.35253
1.3758
1.40003
1.42521
1.45131
1.4783
1.50614
1.53481
1.56425
1.59443
1.6253
1.6568
1.68889
1.72151
1.75463
1.7882
1.82221
1.85664
1.89149
1.92676
1.96245
1.99854
2.03494
2.0715
2.10799
2.1442
2.17989
2.21479
2.24862
2.28104
2.31178
2.34052
2.36693
2.39055
2.4113
2.42929
2.44429
2.4561
2.46274
2.46533
2.46781
2.47035
2.4705
2.46686
2.45971
2.44913
2.43487
2.41718
2.39668
2.37409
2.35032
2.32638
2.30486
2.28782
2.28339
0.128353
0.109534
0.0961356
0.0865294
0.0795028
0.0742083
0.0700924
0.066808
0.064141
0.0619634
0.0602048
0.058837
0.0578995
0.05744
0.0575228
0.0582128
0.0595574
0.0615794
0.0641847
0.0670411
0.06973
0.0717495
0.0726471
0.0721482
0.0702661
0.0673564
0.0640976
0.0613915
0.0601895
0.0612879
0.0651727
0.0719916
0.0816425
0.093895
0.10848
0.125141
0.143665
0.163899
0.185747
0.20916
0.234107
0.260549
0.288417
0.317594
0.347911
0.379149
0.411047
0.443315
0.475648
0.507746
0.539317
0.570097
0.599852
0.628383
0.655529
0.681169
0.705215
0.727611
0.748329
0.76736
0.784715
0.800413
0.814482
0.826955
0.837867
0.847258
0.855171
0.861653
0.866761
0.870557
0.873118
0.874533
0.874903
0.874348
0.872999
0.871003
0.86852
0.865718
0.862776
0.859875
0.857194
0.85491
0.853192
0.852195
0.852059
0.852903
0.854827
0.857903
0.862178
0.867674
0.874389
0.882294
0.891342
0.901468
0.912596
0.924637
0.9375
0.951094
0.965329
0.980122
0.995399
1.0111
1.02716
1.04355
1.06023
1.07718
1.09438
1.11184
1.12956
1.14754
1.16581
1.18439
1.20331
1.22259
1.24228
1.26241
1.28303
1.3042
1.32591
1.34815
1.37094
1.39436
1.41848
1.44336
1.46905
1.49559
1.52299
1.5513
1.58053
1.61068
1.64177
1.6738
1.70679
1.74073
1.77562
1.81144
1.84819
1.88585
1.92438
1.96376
2.00396
2.04493
2.08662
2.12896
2.17186
2.2152
2.25882
2.30255
2.34611
2.38923
2.43161
2.47296
2.51305
2.55154
2.58805
2.62222
2.65385
2.68276
2.70811
2.73009
2.74933
2.76455
2.77574
2.78098
2.78019
2.77609
2.76935
2.75847
2.74322
2.7247
2.70325
2.67853
2.65052
2.61956
2.58624
2.55138
2.51591
2.48197
2.45094
2.42618
0.140342
0.115716
0.0989939
0.0874977
0.0793669
0.0734131
0.0689079
0.0654079
0.0626406
0.0604387
0.0587071
0.0574114
0.056573
0.0562161
0.0563956
0.0572016
0.0587046
0.0608626
0.0635273
0.0663799
0.0689721
0.0708122
0.071492
0.0708203
0.0689248
0.066286
0.0636789
0.0620193
0.062148
0.0646358
0.0697038
0.077286
0.0871617
0.099069
0.112765
0.128053
0.144784
0.162864
0.182238
0.202874
0.22474
0.247783
0.271913
0.296999
0.322864
0.349292
0.37604
0.40285
0.429459
0.455613
0.481077
0.505637
0.529111
0.551349
0.572233
0.591678
0.609631
0.626062
0.640968
0.654367
0.66629
0.676784
0.685908
0.69373
0.70033
0.705797
0.710232
0.713748
0.716472
0.718543
0.720115
0.721354
0.722437
0.723551
0.724886
0.726634
0.728984
0.732114
0.736191
0.74136
0.747745
0.755443
0.764521
0.775018
0.786939
0.800263
0.814943
0.830906
0.848063
0.866307
0.885522
0.905585
0.926372
0.94776
0.969632
0.991879
1.0144
1.03711
1.05993
1.08279
1.10566
1.1285
1.15128
1.174
1.19666
1.21927
1.24184
1.2644
1.28698
1.30962
1.33235
1.35522
1.3783
1.4016
1.42523
1.44917
1.47334
1.49774
1.52249
1.5477
1.57342
1.59971
1.62666
1.65431
1.68271
1.71193
1.74201
1.77299
1.80491
1.83779
1.87166
1.90654
1.94245
1.9794
2.01738
2.0564
2.09644
2.13747
2.17944
2.22231
2.26601
2.31048
2.35561
2.4013
2.44742
2.49379
2.54022
2.58645
2.63219
2.67709
2.72072
2.76276
2.803
2.84121
2.87681
2.90926
2.93861
2.96523
2.98714
3.00503
3.01925
3.02968
3.0357
3.03586
3.02979
3.01918
3.00475
2.98576
2.96228
2.93542
2.90581
2.87341
2.83824
2.8006
2.76099
2.72015
2.67899
2.63928
2.60199
2.5686
0.14828
0.118971
0.0999438
0.0872988
0.0785811
0.0723392
0.0677238
0.0642256
0.0615286
0.0594389
0.0578535
0.056751
0.0561128
0.0559734
0.0563873
0.0574098
0.0590705
0.0613058
0.0639178
0.0665648
0.0688085
0.0702148
0.0704814
0.0695593
0.0677265
0.0655782
0.0639156
0.0635531
0.0651119
0.0688964
0.0749088
0.0829629
0.0928094
0.104215
0.116993
0.131007
0.146166
0.162417
0.179726
0.198067
0.217399
0.237656
0.258734
0.280494
0.302762
0.325336
0.347997
0.370521
0.392686
0.414285
0.435128
0.455051
0.473918
0.49162
0.508081
0.523253
0.537114
0.549671
0.560952
0.571005
0.579899
0.587717
0.59456
0.600544
0.605798
0.610468
0.61471
0.618697
0.622612
0.626647
0.630999
0.635871
0.641459
0.647955
0.655534
0.664358
0.67456
0.686251
0.699509
0.714379
0.730874
0.748975
0.768633
0.789772
0.812294
0.836081
0.861005
0.886927
0.913705
0.941195
0.969259
0.997764
1.02658
1.0556
1.08472
1.11384
1.14288
1.17178
1.20049
1.22895
1.25715
1.28507
1.31272
1.3401
1.36722
1.39413
1.42084
1.44738
1.47381
1.50017
1.5265
1.55287
1.5794
1.6059
1.63233
1.65879
1.68543
1.71231
1.7395
1.76706
1.79506
1.82355
1.85261
1.8823
1.91269
1.94383
1.97579
2.00861
2.04234
2.07701
2.11265
2.14926
2.18688
2.2255
2.26513
2.30575
2.34733
2.38984
2.43323
2.47742
2.52231
2.56782
2.61382
2.6602
2.70682
2.75347
2.79987
2.84578
2.89085
2.93478
2.97689
3.01666
3.0541
3.0892
3.12132
3.14905
3.17304
3.19316
3.20896
3.22048
3.22782
3.23095
3.22932
3.22205
3.20884
3.19068
3.1682
3.14117
3.10984
3.07517
3.0379
2.99831
2.95663
2.9132
2.86855
2.82337
2.77852
2.73547
2.69485
2.65744
0.151458
0.119572
0.0996485
0.086638
0.0778104
0.071599
0.067101
0.0637693
0.0612534
0.0593664
0.0580256
0.0571604
0.0567439
0.0568021
0.0573895
0.0585496
0.0602704
0.0624391
0.0648166
0.0670545
0.0687615
0.0696074
0.0694401
0.0683763
0.0668282
0.0654393
0.0649337
0.0659275
0.0687847
0.0735839
0.0801941
0.088392
0.0979537
0.108699
0.1205
0.133275
0.146972
0.161565
0.177032
0.193343
0.210452
0.228281
0.246723
0.265642
0.284874
0.304239
0.323548
0.342615
0.361258
0.379315
0.39664
0.413114
0.428642
0.443158
0.456625
0.46903
0.48039
0.490744
0.500157
0.508713
0.516517
0.523693
0.53038
0.536734
0.542925
0.549135
0.555558
0.562392
0.569838
0.578097
0.587362
0.597812
0.60961
0.622895
0.637781
0.654349
0.67265
0.692703
0.714494
0.737979
0.763085
0.789719
0.817765
0.847094
0.877568
0.909041
0.941367
0.9744
1.008
1.04203
1.07636
1.11088
1.14547
1.18004
1.2145
1.24876
1.28277
1.31646
1.3498
1.38274
1.41527
1.44738
1.47909
1.5104
1.54136
1.57199
1.60232
1.63238
1.66223
1.69193
1.7215
1.75077
1.77966
1.80843
1.83717
1.86595
1.89483
1.92386
1.9531
1.98261
2.01244
2.04267
2.07334
2.10455
2.13635
2.16882
2.202
2.23596
2.27073
2.30635
2.34285
2.38024
2.41852
2.45769
2.49775
2.53866
2.58041
2.62296
2.66626
2.71021
2.75466
2.79951
2.84465
2.88994
2.93532
2.98049
3.02495
3.06853
3.11091
3.15205
3.1909
3.22623
3.25857
3.2877
3.31312
3.33438
3.35139
3.36391
3.37182
3.37514
3.3739
3.36799
3.3569
3.34027
3.31803
3.29079
3.25909
3.22307
3.18312
3.1401
3.0948
3.04777
2.99944
2.95027
2.90083
2.85182
2.804
2.7586
2.71601
2.67667
0.150632
0.118446
0.0988419
0.0861316
0.077579
0.0716366
0.0674122
0.0643571
0.0621215
0.0605118
0.0593879
0.0586603
0.0583366
0.0584663
0.0591022
0.0602594
0.0618781
0.0637976
0.0657571
0.0674352
0.0685269
0.0688406
0.0683874
0.0674261
0.0664366
0.0660151
0.0667213
0.0689377
0.0728055
0.078257
0.0851084
0.0931522
0.102214
0.112169
0.122942
0.134488
0.146787
0.159825
0.173585
0.188037
0.203128
0.21878
0.234891
0.251333
0.267965
0.284633
0.301183
0.317466
0.333345
0.348697
0.363422
0.37744
0.390697
0.403165
0.414842
0.425752
0.435943
0.445489
0.454484
0.463044
0.471302
0.479407
0.487523
0.495827
0.504504
0.513746
0.523746
0.534694
0.546773
0.560151
0.57498
0.591389
0.609479
0.629322
0.650959
0.6744
0.699628
0.726597
0.755238
0.785458
0.817149
0.850186
0.884438
0.919767
0.956033
0.993097
1.03082
1.06907
1.10773
1.14667
1.18578
1.22495
1.26409
1.3031
1.3419
1.38041
1.41858
1.45634
1.49366
1.53049
1.56682
1.60264
1.63797
1.67284
1.70727
1.74131
1.77496
1.80831
1.84127
1.87364
1.90543
1.93689
1.96808
1.99911
2.03003
2.06089
2.09175
2.12264
2.15362
2.18475
2.21607
2.24765
2.27956
2.31185
2.34461
2.37791
2.41179
2.4463
2.4815
2.51742
2.55409
2.59152
2.62968
2.66856
2.70814
2.7484
2.78929
2.8308
2.87294
2.91558
2.95837
3.00131
3.04427
3.0871
3.12999
3.17261
3.21354
3.25311
3.29095
3.32656
3.35925
3.38855
3.4143
3.43619
3.45391
3.46717
3.47575
3.47923
3.47758
3.47094
3.45939
3.4428
3.42071
3.39301
3.35985
3.32174
3.27923
3.23275
3.18289
3.13051
3.07648
3.02151
2.96621
2.91118
2.85703
2.80446
2.75415
2.70712
2.6636
2.62378
0.146138
0.116304
0.0981871
0.0863222
0.0783
0.0727462
0.0688405
0.0660564
0.0640575
0.0626241
0.0615484
0.0608126
0.0604576
0.0605413
0.0610983
0.0621059
0.0634608
0.0649748
0.066398
0.0674734
0.0680126
0.0679698
0.0674913
0.0669128
0.0666938
0.0673045
0.0691056
0.0722728
0.0767955
0.0825369
0.0893151
0.0969642
0.105363
0.114436
0.124146
0.134478
0.145428
0.156991
0.169153
0.181885
0.195134
0.208829
0.222879
0.237175
0.251602
0.266038
0.280366
0.294477
0.308273
0.321672
0.334613
0.347055
0.358977
0.370385
0.381308
0.391796
0.401926
0.411791
0.421508
0.431207
0.441036
0.451149
0.461713
0.4729
0.484887
0.497846
0.511947
0.527347
0.544188
0.562594
0.582663
0.604472
0.628067
0.653465
0.680656
0.709607
0.740264
0.772552
0.806382
0.841648
0.878233
0.916015
0.954868
0.994664
1.03527
1.07658
1.11844
1.16076
1.20342
1.24631
1.28932
1.33236
1.37533
1.41813
1.46069
1.50293
1.54477
1.58615
1.62703
1.66736
1.70712
1.74632
1.78497
1.82312
1.86079
1.89805
1.93474
1.97061
2.00571
2.04024
2.0743
2.10798
2.14136
2.17448
2.20738
2.2401
2.27268
2.30517
2.33762
2.37007
2.40259
2.43523
2.46804
2.50108
2.53444
2.56818
2.60236
2.63701
2.67218
2.7079
2.74423
2.78124
2.81872
2.85666
2.89509
2.93396
2.97322
3.01284
3.05304
3.09378
3.13388
3.17379
3.21338
3.25248
3.29089
3.32827
3.36418
3.39828
3.43012
3.45906
3.48463
3.50645
3.52422
3.53748
3.54605
3.54977
3.54838
3.54137
3.5286
3.51024
3.48636
3.45693
3.42094
3.37868
3.33091
3.27837
3.22186
3.16214
3.10002
3.03645
2.97234
2.90855
2.8458
2.7848
2.72617
2.67057
2.61857
2.57094
2.5279
2.48952
0.139273
0.113899
0.0980341
0.0873265
0.0799367
0.0747718
0.0711299
0.0685333
0.0666559
0.0651638
0.0639831
0.0631269
0.0626474
0.0625903
0.06296
0.0636975
0.0646736
0.065703
0.0665813
0.067142
0.0673169
0.0671792
0.0669502
0.0669644
0.0675909
0.0691405
0.0717932
0.0755778
0.0804034
0.0861202
0.0925772
0.0996565
0.107284
0.115424
0.124067
0.133215
0.142878
0.153055
0.163737
0.174898
0.186494
0.198465
0.210738
0.223228
0.23585
0.248517
0.261148
0.273672
0.286029
0.298174
0.310079
0.321733
0.333145
0.344344
0.355379
0.366319
0.377254
0.388288
0.399541
0.411146
0.423243
0.435976
0.449492
0.463944
0.47948
0.496244
0.514368
0.53397
0.55515
0.577987
0.602542
0.62885
0.656923
0.686747
0.718285
0.751484
0.786284
0.822607
0.860362
0.899446
0.93975
0.981162
1.02357
1.06685
1.1109
1.1556
1.20084
1.24651
1.29252
1.33875
1.38512
1.43151
1.47784
1.52401
1.56992
1.6155
1.66065
1.70531
1.74941
1.79292
1.83581
1.8781
1.91981
1.96105
2.00164
2.04127
2.08
2.11797
2.15525
2.19193
2.2281
2.26384
2.29918
2.33417
2.36883
2.40316
2.4372
2.471
2.50461
2.53811
2.57154
2.60502
2.63849
2.67199
2.70565
2.73952
2.77367
2.80812
2.8429
2.87803
2.91358
2.95
2.98643
3.02291
3.05961
3.09646
3.1334
3.17035
3.20728
3.24402
3.28031
3.31605
3.3511
3.38523
3.4182
3.44966
3.47924
3.50649
3.53089
3.55177
3.56874
3.58158
3.58996
3.59324
3.59117
3.58354
3.5701
3.54978
3.5221
3.48763
3.44665
3.39945
3.34621
3.28732
3.22343
3.15538
3.08415
3.01073
2.93613
2.86134
2.78735
2.71504
2.64518
2.57846
2.51548
2.45685
2.4031
2.35484
2.3122
2.27534
0.131083
0.111712
0.0985866
0.0891856
0.0824068
0.0775274
0.0740143
0.0714473
0.0693848
0.0676724
0.0662732
0.0652149
0.0645401
0.0642687
0.0643736
0.0647716
0.0653312
0.065898
0.0663352
0.0665698
0.0666292
0.0666528
0.0668715
0.0675577
0.0689592
0.0712375
0.0744405
0.0785138
0.083341
0.0887912
0.0947546
0.101158
0.107965
0.115169
0.12278
0.130813
0.139284
0.148201
0.15756
0.167343
0.177519
0.188043
0.198865
0.209929
0.221177
0.232558
0.244025
0.255541
0.267081
0.27863
0.290183
0.301752
0.313365
0.325065
0.336912
0.34898
0.361357
0.374145
0.387456
0.401411
0.416129
0.431731
0.448336
0.466065
0.485042
0.505379
0.527172
0.550506
0.575445
0.60204
0.630321
0.660304
0.691986
0.725336
0.760313
0.796867
0.834941
0.874467
0.915358
0.957518
1.00084
1.04523
1.09058
1.13678
1.18373
1.23132
1.27946
1.32805
1.37699
1.42618
1.47551
1.52486
1.57414
1.62326
1.67214
1.72068
1.76879
1.81638
1.86335
1.90968
1.95535
2.0005
2.04489
2.08819
2.1305
2.17196
2.21265
2.25265
2.29191
2.33046
2.36843
2.4059
2.44291
2.47947
2.51555
2.55117
2.58633
2.62111
2.65556
2.68975
2.72378
2.75796
2.79193
2.82562
2.85928
2.893
2.92682
2.96074
2.99479
3.02896
3.06325
3.09774
3.1322
3.1666
3.2009
3.23503
3.26889
3.30236
3.33534
3.36766
3.39915
3.42964
3.45895
3.48687
3.51313
3.53739
3.55923
3.57808
3.59348
3.60479
3.61161
3.61373
3.61073
3.60102
3.58444
3.56099
3.53052
3.49282
3.44778
3.39552
3.33632
3.27067
3.19911
3.12245
3.04168
2.95788
2.87222
2.78583
2.69978
2.61505
2.53258
2.45322
2.37765
2.30648
2.24016
2.17923
2.12414
2.07539
2.03299
1.9972
0.122533
0.109932
0.0999149
0.0918667
0.0855899
0.0808397
0.0772256
0.074313
0.0718866
0.0698345
0.0681354
0.0668137
0.065892
0.0653614
0.0651699
0.0652262
0.0654166
0.0656333
0.0658082
0.065941
0.0661127
0.0664748
0.0672176
0.0685237
0.0705231
0.0732671
0.0767259
0.0808122
0.0854181
0.0904457
0.0958255
0.101522
0.107527
0.113855
0.120528
0.127574
0.135015
0.142866
0.151132
0.159806
0.16887
0.178302
0.188071
0.198149
0.208509
0.219127
0.229988
0.241085
0.252418
0.263993
0.275825
0.287935
0.300362
0.313157
0.326379
0.340096
0.354385
0.369332
0.385029
0.401579
0.419077
0.437615
0.457286
0.478191
0.50043
0.524094
0.549253
0.575965
0.604273
0.634208
0.665788
0.699015
0.733874
0.770323
0.808353
0.847925
0.888971
0.931419
0.975186
1.02018
1.06629
1.11341
1.16145
1.21029
1.25984
1.31001
1.36073
1.4119
1.46344
1.51526
1.56724
1.6191
1.67081
1.72233
1.77358
1.82449
1.87496
1.92491
1.97417
2.02291
2.07076
2.11735
2.16287
2.20744
2.25109
2.29392
2.33604
2.3777
2.4186
2.45855
2.49783
2.53655
2.57474
2.61239
2.64943
2.68585
2.72169
2.75702
2.7919
2.8264
2.86059
2.89455
2.92827
2.96174
2.99506
3.02824
3.06133
3.0943
3.12716
3.15988
3.19243
3.22478
3.25683
3.28851
3.31972
3.35037
3.38033
3.40945
3.43757
3.46452
3.4901
3.51409
3.53628
3.55645
3.57437
3.58971
3.60204
3.61065
3.61507
3.61418
3.60742
3.59474
3.57575
3.54985
3.51657
3.47561
3.4268
3.37012
3.30572
3.23399
3.15554
3.07116
2.98182
2.88867
2.79293
2.69579
2.59849
2.50216
2.40779
2.31621
2.22831
2.14479
2.0662
1.99301
1.92564
1.8644
1.80955
1.76135
1.71974
1.68495
0.115392
0.108851
0.102061
0.0953445
0.0893832
0.0843627
0.0802129
0.0767767
0.0738834
0.0714252
0.0693773
0.0677581
0.0665701
0.065779
0.065317
0.0650973
0.0650337
0.0650643
0.0651724
0.0653976
0.0658319
0.0665995
0.0678268
0.0696094
0.0719895
0.0749501
0.0784285
0.0823405
0.0866027
0.0911528
0.095957
0.101009
0.106323
0.111927
0.117855
0.124143
0.130821
0.137911
0.14543
0.153383
0.161766
0.170575
0.179801
0.189441
0.19949
0.209949
0.220826
0.232135
0.243895
0.256127
0.268853
0.282105
0.295932
0.310387
0.325531
0.341422
0.358117
0.375675
0.394163
0.413652
0.434199
0.455888
0.478824
0.503097
0.528787
0.555942
0.584616
0.614848
0.646662
0.680073
0.715077
0.751643
0.789729
0.829222
0.870277
0.912901
0.956877
1.00209
1.04851
1.09605
1.14459
1.19404
1.24426
1.29517
1.34667
1.39869
1.45124
1.50429
1.55773
1.61157
1.66606
1.71976
1.77314
1.82626
1.87911
1.93165
1.9838
2.03577
2.08685
2.13647
2.18486
2.23215
2.27842
2.32374
2.36799
2.41135
2.45394
2.49586
2.53707
2.57755
2.61736
2.65656
2.6952
2.73323
2.77057
2.80721
2.8432
2.87859
2.91344
2.94781
2.98174
3.01529
3.04848
3.08134
3.11386
3.14606
3.17793
3.20943
3.24054
3.27121
3.30138
3.33097
3.35989
3.38803
3.41526
3.44146
3.46644
3.49004
3.51207
3.53229
3.55047
3.56634
3.57966
3.59017
3.59764
3.60175
3.60203
3.59711
3.58676
3.57055
3.54804
3.51878
3.48224
3.43791
3.38554
3.32503
3.25642
3.17999
3.09624
3.0059
2.90986
2.80917
2.70511
2.59899
2.49213
2.3857
2.28096
2.17895
2.08054
1.9865
1.89743
1.81378
1.73588
1.66401
1.59849
1.53939
1.48677
1.44073
1.40111
1.36802
0.114992
0.110896
0.105874
0.0995355
0.0931273
0.0874094
0.0825863
0.0785631
0.0751623
0.0722666
0.069856
0.0679491
0.0665268
0.0655298
0.0648808
0.0645024
0.0643345
0.0643479
0.0645528
0.0649969
0.0657539
0.0669036
0.0685102
0.0706048
0.0731782
0.0761855
0.079562
0.0832408
0.0871722
0.0913296
0.0957085
0.100326
0.105213
0.11041
0.115961
0.121907
0.128285
0.135125
0.14245
0.150277
0.158618
0.167485
0.176893
0.186857
0.197394
0.208521
0.220255
0.23262
0.245635
0.259312
0.273723
0.288921
0.304966
0.321917
0.339823
0.358721
0.378616
0.399532
0.421498
0.444513
0.468532
0.493672
0.520166
0.548102
0.577548
0.608344
0.640585
0.674312
0.709546
0.746291
0.78454
0.824279
0.865513
0.908291
0.952727
0.999272
1.04684
1.09499
1.14403
1.19394
1.24464
1.29599
1.34789
1.4002
1.45284
1.50578
1.55915
1.61289
1.66682
1.72092
1.77513
1.82911
1.88288
1.93639
1.98974
2.04294
2.09547
2.14671
2.19682
2.24577
2.29364
2.34048
2.38639
2.43142
2.47563
2.51908
2.5618
2.60383
2.6452
2.6859
2.72595
2.76536
2.80413
2.84222
2.87936
2.91572
2.95139
2.98639
3.02075
3.05455
3.0878
3.12053
3.15275
3.18444
3.2156
3.24617
3.27613
3.30543
3.33398
3.36173
3.38857
3.41441
3.43911
3.46254
3.48453
3.5049
3.52344
3.53995
3.55417
3.56584
3.57467
3.58035
3.58259
3.58109
3.57555
3.56567
3.55106
3.53075
3.50388
3.47018
3.42933
3.38106
3.32496
3.2608
3.18866
3.10866
3.02107
2.92641
2.82548
2.7193
2.60904
2.49595
2.3815
2.2671
2.15405
2.04355
1.93662
1.83404
1.7365
1.64463
1.55869
1.47891
1.40543
1.33833
1.27763
1.22328
1.17521
1.13334
1.09747
1.06751
0.127674
0.118543
0.111664
0.103906
0.0963281
0.0896787
0.0840625
0.079339
0.0753896
0.072103
0.0693995
0.0672955
0.0657385
0.064649
0.0639434
0.0635554
0.0634433
0.0635948
0.0640256
0.0647711
0.0658743
0.0673722
0.0692846
0.0716079
0.074316
0.0773671
0.0807158
0.0843271
0.0881859
0.0922972
0.0966843
0.101386
0.106448
0.111925
0.117869
0.124322
0.131313
0.138866
0.14699
0.155714
0.165105
0.175207
0.186061
0.197696
0.210132
0.223384
0.237452
0.252316
0.267942
0.284213
0.301439
0.319667
0.338985
0.359458
0.380969
0.403545
0.427228
0.452059
0.478058
0.505256
0.533725
0.563558
0.59484
0.627817
0.663309
0.699004
0.735767
0.773758
0.813009
0.853518
0.895267
0.938237
0.982432
1.02785
1.07451
1.12244
1.17131
1.22087
1.27107
1.32185
1.37313
1.42481
1.47678
1.52892
1.58114
1.63341
1.68581
1.73828
1.79077
1.84331
1.89588
1.94841
2.00124
2.0539
2.10592
2.15699
2.20718
2.25645
2.30479
2.35222
2.39877
2.44447
2.48936
2.53347
2.57683
2.61948
2.66145
2.70278
2.74348
2.78359
2.8231
2.86198
2.90017
2.93766
2.97449
3.01064
3.04611
3.0806
3.11421
3.14702
3.17906
3.21034
3.24086
3.27057
3.29943
3.32738
3.35435
3.38025
3.405
3.42848
3.45056
3.47112
3.48997
3.50695
3.52184
3.53443
3.54447
3.55169
3.5558
3.55651
3.55348
3.54637
3.53484
3.51856
3.49721
3.47043
3.43787
3.39901
3.35338
3.30068
3.24073
3.17346
3.09822
3.01488
2.92415
2.82658
2.72265
2.61297
2.49864
2.38097
2.26139
2.14137
2.02237
1.90569
1.7925
1.68384
1.5804
1.48274
1.39126