/*--------------------------------*- C++ -*----------------------------------*\
| =========                 |                                                 |
| \\      /  F ield         | OpenFOAM: The Open Source CFD Toolbox           |
|  \\    /   O peration     | Version:  2112                                  |
|   \\  /    A nd           | Website:  www.openfoam.com                      |
|    \\/     M anipulation  |                                                 |
\*---------------------------------------------------------------------------*/
FoamFile
{
    version     2.0;
    format      ascii;
    arch        "LSB;label=32;scalar=64";
    class       surfaceScalarField;
    location    "0.24";
    object      phi;
}
// * * * * * * * * * * * * * * * * * * * * * * * * * * * * * * * * * * * * * //

dimensions      [0 3 -1 0 0 0 0];

oriented        oriented;

internalField   nonuniform List<scalar> 
24170
(
3.03967e-06
1.48733e-07
2.86467e-06
1.75004e-07
2.69149e-06
1.7318e-07
2.52256e-06
1.68934e-07
2.36329e-06
1.5927e-07
2.21926e-06
1.44022e-07
2.09431e-06
1.24953e-07
1.99038e-06
1.03927e-07
1.90778e-06
8.2606e-08
1.84525e-06
6.25241e-08
1.80038e-06
4.48771e-08
1.76997e-06
3.04023e-08
1.75067e-06
1.93057e-08
1.73967e-06
1.09955e-08
1.73453e-06
5.14253e-09
1.73262e-06
1.91371e-09
1.72812e-06
4.50127e-09
4.73265e-09
1.72338e-06
3.48777e-06
7.82097e-08
3.535e-06
1.27777e-07
3.56298e-06
1.45198e-07
3.57151e-06
1.60402e-07
3.56115e-06
1.69636e-07
3.53434e-06
1.70826e-07
3.49415e-06
1.65142e-07
3.44366e-06
1.54419e-07
3.38576e-06
1.40503e-07
3.32294e-06
1.2535e-07
3.25715e-06
1.10668e-07
3.18994e-06
9.76124e-08
3.12262e-06
8.66181e-08
3.05616e-06
7.74599e-08
2.99143e-06
6.98711e-08
2.92947e-06
6.38708e-08
2.87526e-06
5.87188e-08
4.64817e-08
2.83351e-06
3.6815e-06
5.92235e-08
3.7004e-06
1.08879e-07
3.71948e-06
1.26115e-07
3.74041e-06
1.3948e-07
3.76127e-06
1.48768e-07
3.78019e-06
1.51913e-07
3.79575e-06
1.49578e-07
3.80698e-06
1.43186e-07
3.81328e-06
1.34202e-07
3.8146e-06
1.24034e-07
3.81133e-06
1.13934e-07
3.80417e-06
1.04773e-07
3.79388e-06
9.69171e-08
3.78109e-06
9.02466e-08
3.76646e-06
8.44968e-08
3.75129e-06
7.90466e-08
3.73724e-06
7.27704e-08
5.99634e-08
3.72375e-06
3.93649e-06
4.812e-08
3.94873e-06
9.66452e-08
3.95896e-06
1.15879e-07
3.96968e-06
1.28764e-07
3.98113e-06
1.37312e-07
3.99296e-06
1.40089e-07
4.00464e-06
1.37893e-07
4.01562e-06
1.32209e-07
4.0255e-06
1.24324e-07
4.03412e-06
1.1541e-07
4.04158e-06
1.06476e-07
4.0481e-06
9.82548e-08
4.05395e-06
9.10677e-08
4.05939e-06
8.48e-08
4.06479e-06
7.91044e-08
4.07058e-06
7.32565e-08
4.07693e-06
6.64167e-08
5.58266e-08
4.08107e-06
4.21556e-06
3.96905e-08
4.22629e-06
8.59074e-08
4.23559e-06
1.0658e-07
4.24477e-06
1.19589e-07
4.25425e-06
1.27828e-07
4.26376e-06
1.30577e-07
4.27299e-06
1.2867e-07
4.28167e-06
1.23526e-07
4.28965e-06
1.16343e-07
4.29688e-06
1.08185e-07
4.30342e-06
9.99366e-08
4.30949e-06
9.21839e-08
4.31539e-06
8.51675e-08
4.3214e-06
7.87835e-08
4.32781e-06
7.26995e-08
4.33474e-06
6.63209e-08
4.34222e-06
5.89431e-08
4.90491e-08
4.349e-06
4.51574e-06
3.30384e-08
4.52564e-06
7.60083e-08
4.53493e-06
9.72908e-08
4.54407e-06
1.10443e-07
4.55338e-06
1.18526e-07
4.56261e-06
1.21342e-07
4.5715e-06
1.1978e-07
4.57986e-06
1.15171e-07
4.58756e-06
1.08634e-07
4.59462e-06
1.01129e-07
4.60113e-06
9.34307e-08
4.60728e-06
8.60341e-08
4.61331e-06
7.91365e-08
4.61944e-06
7.26546e-08
4.62584e-06
6.62993e-08
4.63255e-06
5.96079e-08
4.63947e-06
5.20205e-08
4.27415e-08
4.64578e-06
4.83805e-06
2.771e-08
4.84713e-06
6.69261e-08
4.85634e-06
8.80807e-08
4.86565e-06
1.0113e-07
4.87511e-06
1.09066e-07
4.8845e-06
1.11958e-07
4.89355e-06
1.10729e-07
4.90208e-06
1.06635e-07
4.91e-06
1.00715e-07
4.91732e-06
9.38129e-08
4.92414e-06
8.66085e-08
4.93064e-06
7.95399e-08
4.93699e-06
7.27826e-08
4.94337e-06
6.62767e-08
4.94988e-06
5.97866e-08
4.95652e-06
5.29653e-08
4.96312e-06
4.54209e-08
3.67645e-08
4.9691e-06
5.18393e-06
2.33619e-08
5.19221e-06
5.86485e-08
5.20119e-06
7.90989e-08
5.21058e-06
9.17389e-08
5.22022e-06
9.94265e-08
5.22979e-06
1.02392e-07
5.23904e-06
1.01472e-07
5.24784e-06
9.78415e-08
5.25607e-06
9.24823e-08
5.26374e-06
8.61422e-08
5.27094e-06
7.94122e-08
5.2778e-06
7.26796e-08
5.28448e-06
6.61034e-08
5.2911e-06
5.96508e-08
5.29774e-06
5.31486e-08
5.30435e-06
4.63508e-08
5.31077e-06
3.90089e-08
3.09642e-08
5.31657e-06
5.55495e-06
1.97484e-08
5.56249e-06
5.11047e-08
5.57117e-06
7.04214e-08
5.58051e-06
8.2402e-08
5.59027e-06
8.96618e-08
5.60003e-06
9.2635e-08
5.60949e-06
9.20146e-08
5.61851e-06
8.88219e-08
5.62702e-06
8.39707e-08
5.63501e-06
7.8146e-08
5.64256e-06
7.18682e-08
5.64976e-06
6.54796e-08
5.65674e-06
5.91251e-08
5.66359e-06
5.28009e-08
5.67034e-06
4.63935e-08
5.67695e-06
3.97458e-08
5.68324e-06
3.27183e-08
2.52827e-08
5.68892e-06
5.95283e-06
1.66935e-08
5.95973e-06
4.42084e-08
5.96808e-06
6.20652e-08
5.97728e-06
7.32087e-08
5.98705e-06
7.9891e-08
5.99696e-06
8.27238e-08
6.00665e-06
8.23235e-08
6.01592e-06
7.95549e-08
6.02469e-06
7.51931e-08
6.03298e-06
6.98577e-08
6.04083e-06
6.4019e-08
6.04833e-06
5.79826e-08
6.05557e-06
5.18884e-08
6.0626e-06
4.57623e-08
6.06946e-06
3.95423e-08
6.07606e-06
3.31455e-08
6.08226e-06
2.65108e-08
1.96795e-08
6.08787e-06
6.37944e-06
1.40663e-08
6.38577e-06
3.78825e-08
6.39381e-06
5.40245e-08
6.40283e-06
6.41863e-08
6.41251e-06
7.02048e-08
6.42247e-06
7.27731e-08
6.43233e-06
7.24628e-08
6.44186e-06
7.00188e-08
6.45095e-06
6.61009e-08
6.45957e-06
6.12448e-08
6.46773e-06
5.58598e-08
6.4755e-06
5.02065e-08
6.48297e-06
4.44246e-08
6.49016e-06
3.85647e-08
6.49709e-06
3.26112e-08
6.5037e-06
2.6543e-08
6.50986e-06
2.03523e-08
1.41122e-08
6.51542e-06
5.74281e-06
1.20876e-08
5.74775e-06
3.29423e-08
5.75431e-06
4.7463e-08
5.76181e-06
5.66926e-08
5.76991e-06
6.21078e-08
5.77829e-06
6.43903e-08
5.78667e-06
6.4078e-08
5.79487e-06
6.18235e-08
5.80276e-06
5.8213e-08
5.81028e-06
5.37165e-08
5.81745e-06
4.86945e-08
5.82427e-06
4.33814e-08
5.83078e-06
3.79156e-08
5.837e-06
3.23464e-08
5.84293e-06
2.66826e-08
5.84853e-06
2.09432e-08
5.85373e-06
1.51533e-08
9.40364e-09
5.85844e-06
7.00019e-06
1.00511e-08
7.00549e-06
2.76483e-08
7.01272e-06
4.02267e-08
7.02113e-06
4.82854e-08
7.03029e-06
5.29443e-08
7.03984e-06
5.48401e-08
7.04946e-06
5.44579e-08
7.05894e-06
5.23498e-08
7.06813e-06
4.90237e-08
7.07696e-06
4.48837e-08
7.08542e-06
4.02375e-08
7.0935e-06
3.52975e-08
7.10121e-06
3.02013e-08
7.10855e-06
2.50094e-08
7.11548e-06
1.97516e-08
7.12197e-06
1.44556e-08
7.12796e-06
9.15857e-09
3.96113e-09
7.13341e-06
8.53294e-06
7.95966e-09
8.53854e-06
2.20446e-08
8.54643e-06
3.23405e-08
8.55575e-06
3.89612e-08
8.56601e-06
4.26851e-08
8.57678e-06
4.40688e-08
8.58771e-06
4.35304e-08
8.59854e-06
4.1516e-08
8.60912e-06
3.84457e-08
8.61935e-06
3.46572e-08
8.62918e-06
3.04076e-08
8.63859e-06
2.58818e-08
8.64759e-06
2.12049e-08
8.65615e-06
1.64525e-08
8.66422e-06
1.16768e-08
8.67176e-06
6.91645e-09
8.67871e-06
2.21127e-09
-2.34922e-09
8.68502e-06
1.04014e-05
5.80818e-09
1.04072e-05
1.61673e-08
1.04158e-05
2.38374e-08
1.0426e-05
2.8727e-08
1.04374e-05
3.13129e-08
1.04494e-05
3.20344e-08
1.04617e-05
3.12308e-08
1.0474e-05
2.92422e-08
1.0486e-05
2.63936e-08
1.04977e-05
2.29535e-08
1.0509e-05
1.91282e-08
1.05198e-05
1.50709e-08
1.05301e-05
1.08915e-08
1.05399e-05
6.6669e-09
1.05491e-05
2.45426e-09
1.05577e-05
-1.69827e-09
1.05657e-05
-5.74559e-09
-9.61106e-09
1.0573e-05
1.2679e-05
3.58414e-09
1.26852e-05
1.0014e-08
1.26943e-05
1.47323e-08
1.27054e-05
1.75801e-08
1.27179e-05
1.87998e-08
1.27313e-05
1.8688e-08
1.2745e-05
1.7491e-08
1.27588e-05
1.54451e-08
1.27724e-05
1.27789e-08
1.27857e-05
9.68603e-09
1.27985e-05
6.31931e-09
1.28108e-05
2.79533e-09
1.28225e-05
-7.97998e-10
1.28335e-05
-4.39429e-09
1.28439e-05
-7.9414e-09
1.28536e-05
-1.13945e-08
1.28626e-05
-1.47149e-08
-1.78414e-08
1.28708e-05
1.54555e-05
1.25659e-09
1.5462e-05
3.51413e-09
1.54718e-05
4.9601e-09
1.54839e-05
5.44605e-09
1.54977e-05
5.05052e-09
1.55124e-05
3.92e-09
1.55277e-05
2.19237e-09
1.55432e-05
-7.29604e-14
1.55585e-05
-2.52169e-09
1.55734e-05
-5.26201e-09
1.55879e-05
-8.12658e-09
1.56017e-05
-1.1043e-08
1.56149e-05
-1.39548e-08
1.56273e-05
-1.68173e-08
1.56389e-05
-1.95941e-08
1.56498e-05
-2.22539e-08
1.56599e-05
-2.47708e-08
-2.71008e-08
1.56691e-05
1.88401e-05
-1.24933e-09
1.88472e-05
-3.5423e-09
1.88579e-05
-5.74486e-09
1.88713e-05
-7.96087e-09
1.88866e-05
-1.02351e-08
1.89031e-05
-1.25741e-08
1.89202e-05
-1.49624e-08
1.89376e-05
-1.73716e-08
1.89549e-05
-1.97694e-08
1.89717e-05
-2.21275e-08
1.8988e-05
-2.44219e-08
1.90036e-05
-2.6634e-08
1.90184e-05
-2.87495e-08
1.90324e-05
-3.07565e-08
1.90454e-05
-3.26445e-08
1.90576e-05
-3.44035e-08
1.90688e-05
-3.6025e-08
-3.74842e-08
1.90792e-05
2.29662e-05
-4.11344e-09
2.29743e-05
-1.1681e-08
2.29867e-05
-1.80984e-08
2.30022e-05
-2.34272e-08
2.30198e-05
-2.78633e-08
2.30388e-05
-3.15944e-08
2.30586e-05
-3.47419e-08
2.30786e-05
-3.7392e-08
2.30985e-05
-3.96222e-08
2.31178e-05
-4.15022e-08
2.31365e-05
-4.309e-08
2.31543e-05
-4.44341e-08
2.31711e-05
-4.55753e-08
2.31869e-05
-4.65467e-08
2.32016e-05
-4.73742e-08
2.32153e-05
-4.80763e-08
2.3228e-05
-4.86665e-08
-4.91414e-08
2.32396e-05
1.6813e-05
-6.37208e-09
1.68193e-05
-1.8006e-08
1.68287e-05
-2.7549e-08
1.68404e-05
-3.5081e-08
1.68535e-05
-4.10081e-08
1.68676e-05
-4.56828e-08
1.68822e-05
-4.93149e-08
1.68969e-05
-5.2068e-08
1.69114e-05
-5.41011e-08
1.69254e-05
-5.55557e-08
1.69389e-05
-5.65495e-08
1.69516e-05
-5.71816e-08
1.69636e-05
-5.75367e-08
1.69747e-05
-5.76849e-08
1.6985e-05
-5.76817e-08
1.69945e-05
-5.75688e-08
1.70032e-05
-5.7377e-08
-5.71174e-08
1.70112e-05
1.46368e-05
-8.6384e-09
1.46431e-05
-2.42499e-08
1.46521e-05
-3.66157e-08
1.46631e-05
-4.59877e-08
1.46752e-05
-5.31327e-08
1.46881e-05
-5.85676e-08
1.47013e-05
-6.25532e-08
1.47146e-05
-6.53192e-08
1.47276e-05
-6.71012e-08
1.47401e-05
-6.81024e-08
1.4752e-05
-6.84898e-08
1.47633e-05
-6.84085e-08
1.47737e-05
-6.79853e-08
1.47834e-05
-6.73268e-08
1.47922e-05
-6.65178e-08
1.48002e-05
-6.56232e-08
1.48076e-05
-6.46909e-08
-6.37456e-08
1.48142e-05
1.27426e-05
-1.10855e-08
1.27491e-05
-3.07668e-08
1.27581e-05
-4.56345e-08
1.27686e-05
-5.64632e-08
1.278e-05
-6.45876e-08
1.27921e-05
-7.0635e-08
1.28044e-05
-7.48639e-08
1.28167e-05
-7.75686e-08
1.28286e-05
-7.90575e-08
1.28401e-05
-7.95811e-08
1.2851e-05
-7.93459e-08
1.28611e-05
-7.85392e-08
1.28704e-05
-7.73299e-08
1.2879e-05
-7.58605e-08
1.28867e-05
-7.42464e-08
1.28937e-05
-7.2577e-08
1.28999e-05
-7.09185e-08
-6.93094e-08
1.29054e-05
1.10938e-05
-1.39081e-08
1.11008e-05
-3.78435e-08
1.111e-05
-5.47785e-08
1.11202e-05
-6.6656e-08
1.11311e-05
-7.556e-08
1.11426e-05
-8.20975e-08
1.11542e-05
-8.64777e-08
1.11657e-05
-8.90661e-08
1.11769e-05
-9.02329e-08
1.11876e-05
-9.02592e-08
1.11976e-05
-8.93821e-08
1.12069e-05
-8.78301e-08
1.12154e-05
-8.58151e-08
1.1223e-05
-8.35176e-08
1.12299e-05
-8.10842e-08
1.12359e-05
-7.86306e-08
1.12412e-05
-7.62423e-08
-7.39698e-08
1.12459e-05
9.65868e-06
-1.73743e-08
9.66657e-06
-4.57289e-08
9.6759e-06
-6.41125e-08
9.68589e-06
-7.66468e-08
9.6965e-06
-8.61708e-08
9.70748e-06
-9.30726e-08
9.7185e-06
-9.75048e-08
9.72936e-06
-9.99199e-08
9.73986e-06
-1.00732e-07
9.74984e-06
-1.00237e-07
9.75915e-06
-9.86944e-08
9.76769e-06
-9.63757e-08
9.77541e-06
-9.35369e-08
9.78229e-06
-9.03953e-08
9.78834e-06
-8.71321e-08
9.7936e-06
-8.38919e-08
9.79814e-06
-8.0783e-08
-7.78669e-08
9.80204e-06
8.40984e-06
-2.18587e-08
8.4188e-06
-5.46915e-08
8.42833e-06
-7.3644e-08
8.43814e-06
-8.64527e-08
8.44841e-06
-9.64473e-08
8.4589e-06
-1.03562e-07
8.46932e-06
-1.07923e-07
8.4795e-06
-1.10097e-07
8.48929e-06
-1.10528e-07
8.49856e-06
-1.09504e-07
8.50716e-06
-1.07297e-07
8.51501e-06
-1.04225e-07
8.52206e-06
-1.00584e-07
8.52828e-06
-9.66159e-08
8.53369e-06
-9.25385e-08
8.53832e-06
-8.85293e-08
8.54226e-06
-8.47179e-08
-8.11356e-08
8.54553e-06
7.32327e-06
-2.78435e-08
7.33362e-06
-6.50448e-08
7.34338e-06
-8.3397e-08
7.35294e-06
-9.60148e-08
7.36279e-06
-1.063e-07
7.37274e-06
-1.13516e-07
7.38259e-06
-1.17766e-07
7.39223e-06
-1.19736e-07
7.40156e-06
-1.19867e-07
7.41048e-06
-1.18416e-07
7.41882e-06
-1.15644e-07
7.42649e-06
-1.11895e-07
7.43341e-06
-1.07503e-07
7.43954e-06
-1.02738e-07
7.44486e-06
-9.78646e-08
7.44944e-06
-9.3106e-08
7.45335e-06
-8.86281e-08
-8.45332e-08
7.45675e-06
6.37838e-06
-3.61587e-08
6.39042e-06
-7.70802e-08
6.40079e-06
-9.3774e-08
6.41099e-06
-1.06212e-07
6.42147e-06
-1.16778e-07
6.43205e-06
-1.24098e-07
6.44266e-06
-1.28375e-07
6.4533e-06
-1.30376e-07
6.46388e-06
-1.3045e-07
6.47425e-06
-1.28787e-07
6.48423e-06
-1.25625e-07
6.4936e-06
-1.2126e-07
6.50214e-06
-1.16044e-07
6.50975e-06
-1.10351e-07
6.51642e-06
-1.04528e-07
6.52219e-06
-9.888e-08
6.5271e-06
-9.35371e-08
-8.85123e-08
6.53108e-06
5.56042e-06
-5.11147e-08
5.57666e-06
-9.33173e-08
5.59199e-06
-1.09102e-07
5.60928e-06
-1.23508e-07
5.62809e-06
-1.35582e-07
5.64744e-06
-1.43455e-07
5.66688e-06
-1.47807e-07
5.68586e-06
-1.49359e-07
5.70376e-06
-1.4835e-07
5.71995e-06
-1.44982e-07
5.73392e-06
-1.39593e-07
5.74533e-06
-1.32671e-07
5.75404e-06
-1.24753e-07
5.76001e-06
-1.16319e-07
5.76329e-06
-1.07807e-07
5.76405e-06
-9.96411e-08
5.76265e-06
-9.21383e-08
-8.59525e-08
5.76009e-06
4.88814e-06
-1.11648e-07
4.93907e-06
-1.44251e-07
4.98086e-06
-1.50888e-07
5.01192e-06
-1.54565e-07
5.03106e-06
-1.54729e-07
5.03879e-06
-1.51178e-07
5.03577e-06
-1.44786e-07
5.02283e-06
-1.36421e-07
5.00103e-06
-1.26552e-07
4.97159e-06
-1.15542e-07
4.93578e-06
-1.03783e-07
4.89482e-06
-9.17055e-08
4.84979e-06
-7.97298e-08
4.80169e-06
-6.82129e-08
4.75132e-06
-5.74454e-08
4.6994e-06
-4.77146e-08
4.64641e-06
-3.91506e-08
-3.18884e-08
4.59235e-06
4.09103e-06
3.94678e-06
3.79589e-06
3.64132e-06
3.48659e-06
3.33542e-06
3.19063e-06
3.05421e-06
2.92766e-06
2.81212e-06
2.70833e-06
2.61663e-06
2.5369e-06
2.46868e-06
2.41124e-06
2.36353e-06
2.32437e-06
2.29249e-06
7.74069e-09
-7.74069e-09
1.61835e-08
-8.44277e-09
2.48331e-08
-8.64961e-09
3.34538e-08
-8.62075e-09
4.17753e-08
-8.32145e-09
4.9515e-08
-7.73974e-09
5.64045e-08
-6.88951e-09
6.22053e-08
-5.80078e-09
6.67198e-08
-4.51446e-09
6.97978e-08
-3.07799e-09
7.13386e-08
-1.54083e-09
7.12635e-08
7.50792e-11
6.95958e-08
1.66769e-09
6.63386e-08
3.25717e-09
6.15352e-08
4.80341e-09
5.52406e-08
6.29465e-09
4.75194e-08
7.72118e-09
3.8448e-08
9.07137e-09
2.81195e-08
1.03286e-08
1.66501e-08
1.14693e-08
4.18636e-09
1.24638e-08
-9.09641e-09
1.32828e-08
-2.29982e-08
1.39018e-08
-3.73003e-08
1.4302e-08
-5.1782e-08
1.44817e-08
-6.62445e-08
1.44625e-08
-8.05434e-08
1.42989e-08
-9.46394e-08
1.40959e-08
-1.08681e-07
1.40418e-08
-1.23112e-07
1.44313e-08
-1.38292e-07
1.51792e-08
-1.54213e-07
1.59215e-08
-1.70736e-07
1.65225e-08
-1.87697e-07
1.69615e-08
-2.04984e-07
1.72866e-08
-2.22553e-07
1.75696e-08
-2.40441e-07
1.78875e-08
-2.58705e-07
1.82641e-08
-2.77384e-07
1.86788e-08
-2.9648e-07
1.9096e-08
-3.15966e-07
1.94858e-08
-3.35798e-07
1.98327e-08
-3.55934e-07
2.01353e-08
-3.76336e-07
2.04019e-08
-3.96982e-07
2.0646e-08
-4.17863e-07
2.08819e-08
-4.38985e-07
2.11219e-08
-4.60361e-07
2.13752e-08
-4.82008e-07
2.16472e-08
-5.03948e-07
2.19403e-08
-5.26203e-07
2.22554e-08
-5.48795e-07
2.25916e-08
-5.71742e-07
2.29472e-08
-5.95063e-07
2.33206e-08
-6.18773e-07
2.371e-08
-6.42887e-07
2.41138e-08
-6.67417e-07
2.453e-08
-6.92374e-07
2.4957e-08
-7.17766e-07
2.53925e-08
-7.436e-07
2.58343e-08
-7.6988e-07
2.62796e-08
-7.96605e-07
2.67251e-08
-8.23772e-07
2.71673e-08
-8.51375e-07
2.76021e-08
-8.79399e-07
2.80249e-08
-9.0783e-07
2.84305e-08
-9.36644e-07
2.88137e-08
-9.65812e-07
2.91685e-08
-9.95301e-07
2.94891e-08
-1.02507e-06
2.97692e-08
-1.05507e-06
3.00029e-08
-1.08526e-06
3.0184e-08
-1.11556e-06
3.03071e-08
-1.14593e-06
3.03669e-08
-1.17629e-06
3.03587e-08
-1.20657e-06
3.02787e-08
-1.23669e-06
3.01238e-08
-1.26658e-06
2.98919e-08
-1.29617e-06
2.95816e-08
-1.32536e-06
2.9193e-08
-1.35409e-06
2.87269e-08
-1.38227e-06
2.81852e-08
-1.40984e-06
2.7571e-08
-1.43673e-06
2.6888e-08
-1.46287e-06
2.61406e-08
-1.4882e-06
2.53341e-08
-1.51268e-06
2.44744e-08
-1.53625e-06
2.35678e-08
-1.55887e-06
2.26214e-08
-1.58051e-06
2.1643e-08
-1.60115e-06
2.06409e-08
-1.62078e-06
1.96238e-08
-1.63938e-06
1.86008e-08
-1.65696e-06
1.75812e-08
-1.67353e-06
1.65736e-08
-1.68912e-06
1.55864e-08
-1.70375e-06
1.46269e-08
-1.71745e-06
1.37013e-08
-1.73026e-06
1.28146e-08
-1.74223e-06
1.19704e-08
-1.7534e-06
1.1171e-08
-1.76382e-06
1.04176e-08
-1.77353e-06
9.71039e-09
-1.78258e-06
9.04884e-09
-1.79101e-06
8.43191e-09
-1.79887e-06
7.85801e-09
-1.80619e-06
7.32533e-09
-1.81303e-06
6.83165e-09
-1.8194e-06
6.3746e-09
-1.82535e-06
5.95158e-09
-1.83091e-06
5.56005e-09
-1.83611e-06
5.19758e-09
-1.84097e-06
4.86203e-09
-1.84552e-06
4.55158e-09
-1.84979e-06
4.26472e-09
-1.85379e-06
4.00015e-09
-1.85754e-06
3.75661e-09
-1.86108e-06
3.53245e-09
-1.8644e-06
3.32583e-09
-1.86754e-06
3.13411e-09
-1.87049e-06
2.95378e-09
-1.87327e-06
2.78013e-09
-1.87588e-06
2.60802e-09
-1.87831e-06
2.43087e-09
-1.88055e-06
2.24053e-09
-1.88258e-06
2.02645e-09
-1.88436e-06
1.77956e-09
-1.88587e-06
1.51192e-09
-1.88704e-06
1.17234e-09
-1.88782e-06
7.76359e-10
-1.88811e-06
2.92709e-10
-1.88781e-06
-2.9749e-10
-1.88685e-06
-9.6628e-10
-1.88512e-06
-1.72349e-09
-1.88245e-06
-2.66834e-09
-1.87872e-06
-3.72948e-09
-1.87377e-06
-4.95685e-09
-1.86739e-06
-6.37468e-09
-1.85939e-06
-8.00745e-09
-1.8495e-06
-9.88152e-09
-1.83748e-06
-1.20232e-08
-1.82302e-06
-1.44563e-08
-1.80583e-06
-1.71986e-08
-1.78556e-06
-2.02673e-08
-1.76188e-06
-2.36839e-08
-1.73443e-06
-2.74501e-08
-1.70286e-06
-3.15637e-08
-1.66684e-06
-3.60198e-08
-1.62603e-06
-4.08142e-08
-1.58009e-06
-4.59372e-08
-1.52871e-06
-5.13759e-08
-1.4716e-06
-5.71136e-08
-1.40847e-06
-6.31266e-08
-1.33908e-06
-6.93916e-08
-1.26318e-06
-7.59068e-08
-1.1805e-06
-8.26803e-08
-1.09078e-06
-8.97111e-08
-9.93783e-07
-9.70012e-08
-8.89205e-07
-1.04579e-07
-7.76752e-07
-1.12453e-07
-6.56294e-07
-1.20457e-07
-5.28607e-07
-1.27687e-07
-3.97101e-07
-1.31506e-07
-2.6974e-07
-1.2736e-07
-1.44638e-07
-1.25102e-07
-1.49988e-08
-1.29639e-07
1.15215e-07
-1.30214e-07
2.43656e-07
-1.28441e-07
3.73936e-07
-1.30279e-07
5.06724e-07
-1.32789e-07
6.38728e-07
-1.32004e-07
7.67972e-07
-1.29244e-07
8.93188e-07
-1.25216e-07
1.01346e-06
-1.20274e-07
1.12792e-06
-1.14457e-07
1.23549e-06
-1.07572e-07
1.33477e-06
-9.92807e-08
1.42193e-06
-8.7162e-08
1.48507e-06
-6.31368e-08
-5.04069e-09
1.49011e-06
8.09696e-09
-1.58376e-08
1.63907e-08
-1.67366e-08
2.49001e-08
-1.7159e-08
3.33448e-08
-1.70655e-08
4.14545e-08
-1.64312e-08
4.897e-08
-1.52553e-08
5.56456e-08
-1.3565e-08
6.12569e-08
-1.14121e-08
6.56093e-08
-8.86692e-09
6.85441e-08
-6.0128e-09
6.99417e-08
-2.93837e-09
6.97537e-08
2.63063e-10
6.78954e-08
3.52594e-09
6.43789e-08
6.77377e-09
5.92236e-08
9.95868e-09
5.24781e-08
1.30401e-08
4.42135e-08
1.59858e-08
3.45205e-08
1.87644e-08
2.35098e-08
2.13393e-08
1.13136e-08
2.36655e-08
-1.91296e-09
2.56903e-08
-1.59918e-08
2.73616e-08
-3.07318e-08
2.86418e-08
-4.59454e-08
2.95157e-08
-6.14631e-08
2.99994e-08
-7.71539e-08
3.01533e-08
-9.29491e-08
3.00941e-08
-1.08857e-07
3.00036e-08
-1.24938e-07
3.01231e-08
-1.41201e-07
3.0694e-08
-1.57797e-07
3.17757e-08
-1.75019e-07
3.31434e-08
-1.93014e-07
3.45168e-08
-2.11743e-07
3.56907e-08
-2.31053e-07
3.6597e-08
-2.5077e-07
3.72861e-08
-2.70738e-07
3.78564e-08
-2.90867e-07
3.83927e-08
-3.11128e-07
3.89394e-08
-3.31536e-07
3.95046e-08
-3.52128e-07
4.00777e-08
-3.72939e-07
4.06441e-08
-3.93998e-07
4.11942e-08
-4.15323e-07
4.17266e-08
-4.36924e-07
4.22472e-08
-4.58809e-07
4.27665e-08
-4.80984e-07
4.32967e-08
-5.03458e-07
4.38491e-08
-5.26244e-07
4.44332e-08
-5.49359e-07
4.50555e-08
-5.72823e-07
4.572e-08
-5.9666e-07
4.64285e-08
-6.20894e-07
4.71809e-08
-6.45549e-07
4.79757e-08
-6.70649e-07
4.88105e-08
-6.96218e-07
4.96819e-08
-7.22274e-07
5.05859e-08
-7.48834e-07
5.15174e-08
-7.75912e-07
5.24708e-08
-8.03517e-07
5.34393e-08
-8.31653e-07
5.44156e-08
-8.60319e-07
5.53913e-08
-8.89509e-07
5.6357e-08
-9.1921e-07
5.73028e-08
-9.49403e-07
5.82176e-08
-9.80062e-07
5.90898e-08
-1.01116e-06
5.99072e-08
-1.04264e-06
6.06572e-08
-1.07448e-06
6.1327e-08
-1.10662e-06
6.19038e-08
-1.13899e-06
6.23751e-08
-1.17153e-06
6.2729e-08
-1.20418e-06
6.29542e-08
-1.23685e-06
6.30407e-08
-1.26948e-06
6.29798e-08
-1.30196e-06
6.27643e-08
-1.33423e-06
6.23889e-08
-1.36618e-06
6.18502e-08
-1.39775e-06
6.11471e-08
-1.42884e-06
6.02805e-08
-1.45936e-06
5.92539e-08
-1.48925e-06
5.80725e-08
-1.51842e-06
5.67438e-08
-1.54681e-06
5.52769e-08
-1.57436e-06
5.36829e-08
-1.601e-06
5.19739e-08
-1.62668e-06
5.01635e-08
-1.65138e-06
4.82664e-08
-1.67506e-06
4.62982e-08
-1.69769e-06
4.42753e-08
-1.71927e-06
4.22145e-08
-1.73978e-06
4.01329e-08
-1.75922e-06
3.80471e-08
-1.77761e-06
3.5973e-08
-1.79497e-06
3.39259e-08
-1.8113e-06
3.19199e-08
-1.82664e-06
2.99675e-08
-1.84102e-06
2.808e-08
-1.85447e-06
2.62666e-08
-1.86703e-06
2.45345e-08
-1.87875e-06
2.28884e-08
-1.88967e-06
2.13311e-08
-1.89982e-06
1.98634e-08
-1.90925e-06
1.84846e-08
-1.91802e-06
1.71927e-08
-1.92614e-06
1.59848e-08
-1.93367e-06
1.48571e-08
-1.94065e-06
1.38051e-08
-1.9471e-06
1.28237e-08
-1.95305e-06
1.19074e-08
-1.95854e-06
1.10507e-08
-1.96359e-06
1.02485e-08
-1.96823e-06
9.49606e-09
-1.97247e-06
8.78945e-09
-1.97633e-06
8.1254e-09
-1.97983e-06
7.50078e-09
-1.98298e-06
6.91248e-09
-1.98581e-06
6.35664e-09
-1.98831e-06
5.82829e-09
-1.9905e-06
5.32126e-09
-1.99237e-06
4.82714e-09
-1.99392e-06
4.335e-09
-1.99515e-06
3.83301e-09
-1.99603e-06
3.30667e-09
-1.99652e-06
2.73912e-09
-1.99661e-06
2.10802e-09
-1.99621e-06
1.38093e-09
-1.99523e-06
5.39848e-10
-1.99368e-06
-3.84015e-10
-1.99148e-06
-1.42306e-09
-1.98857e-06
-2.6172e-09
-1.98483e-06
-4.03233e-09
-1.98014e-06
-5.66059e-09
-1.97434e-06
-7.52703e-09
-1.96732e-06
-9.68622e-09
-1.9589e-06
-1.21513e-08
-1.9489e-06
-1.49569e-08
-1.93713e-06
-1.81409e-08
-1.92339e-06
-2.17442e-08
-1.90746e-06
-2.58112e-08
-1.8891e-06
-3.03858e-08
-1.86805e-06
-3.55083e-08
-1.84403e-06
-4.12153e-08
-1.81676e-06
-4.7544e-08
-1.7859e-06
-5.45371e-08
-1.75112e-06
-6.22344e-08
-1.71202e-06
-7.06597e-08
-1.66824e-06
-7.9801e-08
-1.61944e-06
-8.96122e-08
-1.56535e-06
-1.00032e-07
-1.50571e-06
-1.11012e-07
-1.44031e-06
-1.22515e-07
-1.36895e-06
-1.34486e-07
-1.29148e-06
-1.46865e-07
-1.20776e-06
-1.59628e-07
-1.11767e-06
-1.72767e-07
-1.02114e-06
-1.86241e-07
-9.18162e-07
-1.99979e-07
-8.08833e-07
-2.13908e-07
-6.93431e-07
-2.27854e-07
-5.72591e-07
-2.41297e-07
-4.47576e-07
-2.52703e-07
-3.20334e-07
-2.58749e-07
-1.90121e-07
-2.57573e-07
-5.56398e-08
-2.59583e-07
8.08203e-08
-2.66099e-07
2.18508e-07
-2.67902e-07
3.57406e-07
-2.67339e-07
4.97666e-07
-2.70539e-07
6.38758e-07
-2.73881e-07
7.78943e-07
-2.72189e-07
9.16469e-07
-2.6677e-07
1.05013e-06
-2.58875e-07
1.17886e-06
-2.49011e-07
1.30162e-06
-2.37211e-07
1.41717e-06
-2.23124e-07
1.52376e-06
-2.05871e-07
1.61875e-06
-1.82155e-07
1.6972e-06
-1.41581e-07
-6.5707e-08
1.75786e-06
7.69622e-09
-2.35339e-08
1.59532e-08
-2.49936e-08
2.43347e-08
-2.55405e-08
3.25732e-08
-2.53039e-08
4.03996e-08
-2.42575e-08
4.756e-08
-2.24157e-08
5.38216e-08
-1.98267e-08
5.89754e-08
-1.65658e-08
6.28374e-08
-1.27289e-08
6.52517e-08
-8.42706e-09
6.6094e-08
-3.7807e-09
6.52708e-08
1.08624e-09
6.27412e-08
6.05549e-09
5.84976e-08
1.10174e-08
5.25763e-08
1.588e-08
4.50483e-08
2.05681e-08
3.60125e-08
2.50215e-08
2.55893e-08
2.91876e-08
1.39152e-08
3.30134e-08
1.13995e-09
3.64407e-08
-1.25803e-08
3.94106e-08
-2.70915e-08
4.18728e-08
-4.22456e-08
4.37959e-08
-5.79084e-08
4.51785e-08
-7.39723e-08
4.60633e-08
-9.03699e-08
4.65509e-08
-1.07085e-07
4.68097e-08
-1.24155e-07
4.70733e-08
-1.41637e-07
4.76048e-08
-1.59552e-07
4.86094e-08
-1.77892e-07
5.01151e-08
-1.96677e-07
5.1929e-08
-2.15919e-07
5.37588e-08
-2.35597e-07
5.53682e-08
-2.55659e-07
5.66597e-08
-2.76037e-07
5.76639e-08
-2.96659e-07
5.84782e-08
-3.1747e-07
5.9204e-08
-3.38444e-07
5.99132e-08
-3.5958e-07
6.06404e-08
-3.80896e-07
6.13932e-08
-4.02417e-07
6.2165e-08
-4.24169e-07
6.29463e-08
-4.46174e-07
6.37318e-08
-4.68449e-07
6.45226e-08
-4.91008e-07
6.53256e-08
-5.13864e-07
6.6152e-08
-5.37029e-07
6.70141e-08
-5.60519e-07
6.7924e-08
-5.84356e-07
6.88916e-08
-6.0856e-07
6.99242e-08
-6.33158e-07
7.10264e-08
-6.58176e-07
7.21996e-08
-6.83643e-07
7.34429e-08
-7.09586e-07
7.47531e-08
-7.36029e-07
7.61249e-08
-7.62994e-07
7.75512e-08
-7.905e-07
7.90232e-08
-8.1856e-07
8.05304e-08
-8.47181e-07
8.20609e-08
-8.76367e-07
8.36013e-08
-9.06112e-07
8.51367e-08
-9.36406e-07
8.6651e-08
-9.6723e-07
8.81269e-08
-9.98559e-07
8.95461e-08
-1.03036e-06
9.08896e-08
-1.06259e-06
9.21377e-08
-1.0952e-06
9.32705e-08
-1.12814e-06
9.42681e-08
-1.16135e-06
9.5111e-08
-1.19476e-06
9.57805e-08
-1.22829e-06
9.62588e-08
-1.26186e-06
9.65299e-08
-1.2954e-06
9.65796e-08
-1.32882e-06
9.63956e-08
-1.36202e-06
9.59688e-08
-1.39492e-06
9.52924e-08
-1.42744e-06
9.43633e-08
-1.45947e-06
9.31815e-08
-1.49094e-06
9.17505e-08
-1.52177e-06
9.00773e-08
-1.55187e-06
8.81721e-08
-1.58117e-06
8.60481e-08
-1.60961e-06
8.37212e-08
-1.63714e-06
8.12097e-08
-1.6637e-06
7.85334e-08
-1.68925e-06
7.5714e-08
-1.71376e-06
7.27737e-08
-1.7372e-06
6.97357e-08
-1.75954e-06
6.66231e-08
-1.78079e-06
6.3459e-08
-1.80092e-06
6.02661e-08
-1.81994e-06
5.70662e-08
-1.83785e-06
5.38806e-08
-1.85465e-06
5.07295e-08
-1.87036e-06
4.76326e-08
-1.885e-06
4.46082e-08
-1.8986e-06
4.16733e-08
-1.91117e-06
3.88426e-08
-1.92277e-06
3.61279e-08
-1.93342e-06
3.35379e-08
-1.94316e-06
3.10776e-08
-1.95205e-06
2.87492e-08
-1.96012e-06
2.6552e-08
-1.96741e-06
2.44838e-08
-1.97396e-06
2.25403e-08
-1.97982e-06
2.0716e-08
-1.98502e-06
1.9004e-08
-1.98959e-06
1.73964e-08
-1.99357e-06
1.5885e-08
-1.99698e-06
1.4461e-08
-1.99985e-06
1.31166e-08
-2.0022e-06
1.18448e-08
-2.00405e-06
1.06396e-08
-2.00542e-06
9.49605e-09
-2.00633e-06
8.4095e-09
-2.00679e-06
7.37495e-09
-2.00682e-06
6.38588e-09
-2.00642e-06
5.43372e-09
-2.00561e-06
4.50768e-09
-2.00438e-06
3.59382e-09
-2.00272e-06
2.67274e-09
-2.00061e-06
1.7258e-09
-1.99803e-06
7.29438e-10
-1.99495e-06
-3.37358e-10
-1.99133e-06
-1.51239e-09
-1.98714e-06
-2.81477e-09
-1.98232e-06
-4.27533e-09
-1.9768e-06
-5.90324e-09
-1.9705e-06
-7.72662e-09
-1.96333e-06
-9.78588e-09
-1.95523e-06
-1.2135e-08
-1.94608e-06
-1.48091e-08
-1.93576e-06
-1.78496e-08
-1.92414e-06
-2.13066e-08
-1.91107e-06
-2.52225e-08
-1.89638e-06
-2.96449e-08
-1.87989e-06
-3.46268e-08
-1.86141e-06
-4.02273e-08
-1.84071e-06
-4.65134e-08
-1.81754e-06
-5.3554e-08
-1.79163e-06
-6.14147e-08
-1.76269e-06
-7.01583e-08
-1.73039e-06
-7.98471e-08
-1.69438e-06
-9.05416e-08
-1.65432e-06
-1.02293e-07
-1.60987e-06
-1.15113e-07
-1.56072e-06
-1.28953e-07
-1.50661e-06
-1.43721e-07
-1.44732e-06
-1.59319e-07
-1.38265e-06
-1.75684e-07
-1.3124e-06
-1.92767e-07
-1.23639e-06
-2.10494e-07
-1.15449e-06
-2.28764e-07
-1.06659e-06
-2.47526e-07
-9.72601e-07
-2.66758e-07
-8.72465e-07
-2.86378e-07
-7.6623e-07
-3.06214e-07
-6.54079e-07
-3.26059e-07
-5.36377e-07
-3.45555e-07
-4.13744e-07
-3.63931e-07
-2.86915e-07
-3.79532e-07
-1.56091e-07
-3.89573e-07
-1.99379e-08
-3.93726e-07
1.19893e-07
-3.99414e-07
2.60613e-07
-4.0682e-07
4.02622e-07
-4.09911e-07
5.45964e-07
-4.10681e-07
6.89092e-07
-4.13668e-07
8.31265e-07
-4.16053e-07
9.72442e-07
-4.13366e-07
1.11156e-06
-4.05887e-07
1.24737e-06
-3.94681e-07
1.37865e-06
-3.80295e-07
1.50423e-06
-3.62787e-07
1.62282e-06
-3.41714e-07
1.73285e-06
-3.15902e-07
1.83257e-06
-2.81881e-07
1.92141e-06
-2.30414e-07
-1.46097e-07
2.0018e-06
7.39044e-09
-3.09243e-08
1.5086e-08
-3.26891e-08
2.28268e-08
-3.32813e-08
3.03324e-08
-3.28096e-08
3.73383e-08
-3.12634e-08
4.36081e-08
-2.86855e-08
4.8934e-08
-2.51526e-08
5.31323e-08
-2.07642e-08
5.6041e-08
-1.56377e-08
5.75193e-08
-9.90529e-09
5.74502e-08
-3.71159e-09
5.57459e-08
2.79049e-09
5.23557e-08
9.44568e-09
4.72692e-08
1.61039e-08
4.0521e-08
2.26282e-08
3.21889e-08
2.89002e-08
2.23876e-08
3.48229e-08
1.12588e-08
4.03164e-08
-1.04044e-09
4.53126e-08
-1.43514e-08
4.97517e-08
-2.8526e-08
5.35851e-08
-4.34332e-08
5.678e-08
-5.89635e-08
5.93262e-08
-7.50328e-08
6.12477e-08
-9.15879e-08
6.26185e-08
-1.08613e-07
6.35759e-08
-1.2613e-07
6.43266e-08
-1.44184e-07
6.51272e-08
-1.62803e-07
6.62242e-08
-1.81952e-07
6.77588e-08
-2.01526e-07
6.96889e-08
-2.21404e-07
7.1807e-08
-2.41504e-07
7.38581e-08
-2.61794e-07
7.56588e-08
-2.8228e-07
7.71455e-08
-3.02971e-07
7.8355e-08
-3.23869e-07
7.93763e-08
-3.44969e-07
8.03039e-08
-3.66265e-07
8.12095e-08
-3.87759e-07
8.21342e-08
-4.09459e-07
8.30928e-08
-4.31378e-07
8.40842e-08
-4.53533e-07
8.51017e-08
-4.75941e-07
8.61399e-08
-4.98618e-07
8.71992e-08
-5.21578e-07
8.82859e-08
-5.44837e-07
8.94113e-08
-5.68412e-07
9.0589e-08
-5.92322e-07
9.18333e-08
-6.16587e-07
9.31568e-08
-6.41232e-07
9.45693e-08
-6.66283e-07
9.60772e-08
-6.91767e-07
9.76833e-08
-7.1771e-07
9.93864e-08
-7.44139e-07
1.01182e-07
-7.71077e-07
1.03063e-07
-7.98544e-07
1.05018e-07
-8.26555e-07
1.07034e-07
-8.55119e-07
1.09095e-07
-8.84241e-07
1.11183e-07
-9.13917e-07
1.13277e-07
-9.44137e-07
1.15357e-07
-9.74884e-07
1.17398e-07
-1.00613e-06
1.19374e-07
-1.03784e-06
1.2126e-07
-1.06998e-06
1.23028e-07
-1.1025e-06
1.24651e-07
-1.13533e-06
1.26101e-07
-1.16841e-06
1.27352e-07
-1.20168e-06
1.28376e-07
-1.23504e-06
1.2915e-07
-1.26843e-06
1.29649e-07
-1.30176e-06
1.29854e-07
-1.33493e-06
1.29747e-07
-1.36784e-06
1.29313e-07
-1.40042e-06
1.28541e-07
-1.43255e-06
1.27425e-07
-1.46415e-06
1.25961e-07
-1.49512e-06
1.24154e-07
-1.52538e-06
1.22009e-07
-1.55484e-06
1.19538e-07
-1.58342e-06
1.16758e-07
-1.61106e-06
1.13688e-07
-1.63769e-06
1.10352e-07
-1.66326e-06
1.06775e-07
-1.68771e-06
1.02985e-07
-1.71101e-06
9.90126e-08
-1.73312e-06
9.48869e-08
-1.75403e-06
9.06388e-08
-1.7737e-06
8.6299e-08
-1.79214e-06
8.18981e-08
-1.80934e-06
7.74665e-08
-1.82531e-06
7.30339e-08
-1.84006e-06
6.86295e-08
-1.85361e-06
6.4282e-08
-1.866e-06
6.00188e-08
-1.87726e-06
5.58659e-08
-1.88743e-06
5.18471e-08
-1.89657e-06
4.79825e-08
-1.90473e-06
4.42876e-08
-1.91196e-06
4.07727e-08
-1.91833e-06
3.74429e-08
-1.92388e-06
3.42984e-08
-1.92866e-06
3.13362e-08
-1.93273e-06
2.85505e-08
-1.93612e-06
2.59338e-08
-1.93888e-06
2.34764e-08
-1.94105e-06
2.11674e-08
-1.94264e-06
1.89943e-08
-1.9437e-06
1.69442e-08
-1.94425e-06