/*--------------------------------*- C++ -*----------------------------------*\
| =========                 |                                                 |
| \\      /  F ield         | OpenFOAM: The Open Source CFD Toolbox           |
|  \\    /   O peration     | Version:  2112                                  |
|   \\  /    A nd           | Website:  www.openfoam.com                      |
|    \\/     M anipulation  |                                                 |
\*---------------------------------------------------------------------------*/
FoamFile
{
    version     2.0;
    format      ascii;
    arch        "LSB;label=32;scalar=64";
    class       volScalarField;
    location    "0.067";
    object      s;
}
// * * * * * * * * * * * * * * * * * * * * * * * * * * * * * * * * * * * * * //

dimensions      [0 0 0 0 0 0 0];

internalField   nonuniform List<scalar> 
12225
(
1
1
1
1
1
1
1
1
1
1
1
1
1
1
1
1
1
1
1
1
1
1
1
1
1
1
1
1
1
1
1
1
1
1
1
1
1
1
1
1
1
1
1
1
1
1
1
1
1
1
1
1
1
1
1
1
1
1
1
1
1
1
1
1
1
1
1
1
1
1
1
1
1
1
1
1
1
1
1
1
1
1
1
1
1
1
1
1
1
1
1
1
1
1
1
1
1
1
1
1
1
1
1
1
1
1
1
1
1
1
1
1
1
1
1
1
1
1
1
1
1
1
1
1
1
1
1
1
1
1
1
1
1
1
1
1
1
1
1
1
1
1
1
1
1
1
1
1
1
1
1
1
1
1
1
1
1
1
1
1
1
1
1
1
1
1
1
1
1
1
1
1
1
1
1
1
1
1
1
1
1
1
1
1
1
1
1
1
1
1
1
1
1
1
1
1
1
1
1
1
1
1
1
1
1
1
1
1
1
1
1
1
1
1
1
1
1
1
1
1
1
1
1
1
1
1
1
1
1
1
1
1
1
1
1
1
1
1
1
1
1
1
1
1
1
1
1
1
1
1
1
1
1
1
1
1
1
1
1
1
1
1
1
1
1
1
1
1
1
1
1
1
1
1
1
1
1
1
1
1
1
1
1
1
1
1
1
1
1
1
1
1
1
1
1
1
1
1
1
1
1
1
1
1
1
1
1
1
1
1
1
1
1
1
1
1
1
1
1
1
1
1
1
1
1
1
1
1
1
1
1
1
1
1
1
1
1
1
1
1
1
1
1
1
1
1
1
1
1
1
1
1
1
1
1
1
1
1
1
1
1
1
1
1
1
1
1
1
1
1
1
1
1
1
1
1
1
1
1
1
1
1
1
1
1
1
1
1
1
1
1
1
1
1
1
1
1
1
1
1
1
1
1
1
1
1
1
1
1
1
1
1
1
1
1
1
1
1
1
1
1
1
1
1
1
1
1
1
1
1
1
1
1
1
1
1
1
1
1
1
1
1
1
1
1
1
1
1
1
1
1
1
1
1
1
1
1
1
1
1
1
1
1
1
1
1
1
1
1
1
1
1
1
1
1
1
1
1
1
1
1
1
1
1
1
1
1
1
1
1
1
1
1
1
1
1
1
1
1
1
1
1
1
1
1
1
1
1
1
1
1
1
1
1
1
1
1
1
1
1
1
1
1
1
1
1
1
1
1
1
1
1
1
1
1
1
1
1
1
1
0.684591
0.735057
0.769872
0.773921
0.774212
0.771751
0.767143
0.758361
0.749792
0.746108
0.743246
0.741676
0.741694
0.742185
0.74352
0.7459
0.75172
0.758412
0.764014
0.769363
0.774256
0.777446
0.778262
0.777126
0.767077
0.718037
0.67411
0.673403
0.677773
0.676917
0.672269
0.67021
0.672272
0.682317
0.705907
0.711636
0.726734
0.781719
0.827714
0.855973
0.868424
0.874041
0.878597
0.881433
0.884337
0.886353
0.888592
0.890193
0.892094
0.893589
0.894887
0.896122
0.896774
0.896949
0.89693
0.896582
0.894864
0.891457
0.887176
0.882004
0.875391
0.867787
0.859897
0.852766
0.846036
0.839045
0.831047
0.822287
0.813355
0.804633
0.79596
0.788869
0.78357
0.78013
0.777258
0.773773
0.772122
0.77065
0.769738
0.768564
0.768945
0.769724
0.770205
0.772617
0.764789
0.722047
0.738239
0.744892
0.740776
0.761038
0.772986
0.800605
0.820133
0.825241
0.829622
0.833988
0.837217
0.840229
0.841266
0.8413
0.840606
0.838689
0.835629
0.831988
0.828217
0.824503
0.821223
0.818827
0.817138
0.816052
0.815778
0.815764
0.815926
0.816436
0.817365
0.81865
0.820251
0.822454
0.82453
0.826169
0.827056
0.827548
0.827706
0.827202
0.826019
0.824184
0.822217
0.821011
0.819988
0.819402
0.819464
0.820413
0.82243
0.825291
0.828885
0.833102
0.837751
0.842779
0.848231
0.853639
0.85817
0.861414
0.863497
0.864636
0.865086
0.865149
0.865029
0.864356
0.862046
0.858341
0.855504
0.854207
0.854016
0.854399
0.856927
0.867012
0.881035
0.896968
0.912631
0.920493
0.922697
0.924698
0.925178
0.923798
0.920359
0.913239
0.887557
0.864507
0.863637
0.872733
0.874891
0.871234
0.848705
0.768442
0.590271
0.376008
0.282468
0.292356
0.438125
0.615862
0.675714
0.7017
0.749906
0.75401
0.746811
0.728529
0.707803
0.696778
0.690649
0.689664
0.689839
0.68941
0.687281
0.684532
0.681818
0.675872
0.666783
0.665362
0.667033
0.672684
0.685038
0.713778
0.743778
0.761386
0.761963
0.75456
0.73251
0.6987
0.685491
0.677425
0.660316
0.659105
0.66648
0.673458
0.731138
0.783715
0.796662
0.828674
0.858695
0.884101
0.903423
0.919532
0.931596
0.941858
0.948407
0.95505
0.958344
0.961699
0.963141
0.963777
0.963921
0.963164
0.960739
0.95795
0.954308
0.949598
0.945386
0.940208
0.935024
0.929233
0.922179
0.914843
0.90558
0.8939
0.879804
0.865674
0.851776
0.837997
0.824889
0.813897
0.80464
0.795902
0.788098
0.781981
0.774678
0.768518
0.76587
0.763708
0.761863
0.75853
0.755696
0.758612
0.763543
0.7722
0.757945
0.714261
0.715407
0.736555
0.7475
0.798596
0.815286
0.821834
0.832818
0.838889
0.844306
0.845709
0.84603
0.845339
0.841248
0.836863
0.834464
0.828972
0.818599
0.807454
0.803036
0.801118
0.80048
0.8005
0.801607
0.804644
0.809672
0.816068
0.823131
0.83137
0.840981
0.849862
0.854718
0.856372
0.856632
0.856463
0.856484
0.857149
0.858336
0.860156
0.862179
0.863761
0.863341
0.858192
0.848713
0.835856
0.821377
0.811683
0.805673
0.802062
0.800338
0.799945
0.80042
0.802135
0.805211
0.81012
0.817136
0.825821
0.83493
0.843285
0.850019
0.854405
0.856285
0.856538
0.855981
0.854354
0.854031
0.854297
0.856087
0.86373
0.890787
0.92786
0.950249
0.959958
0.961995
0.96204
0.96178
0.961732
0.961926
0.962706
0.964684
0.965341
0.959217
0.922524
0.883181
0.872657
0.872237
0.878659
0.876728
0.852509
0.789979
0.749221
0.770528
0.828813
0.883498
0.921235
0.734707
0.775779
0.773445
0.757316
0.713554
0.690146
0.684635
0.688999
0.699611
0.723797
0.742195
0.744988
0.742726
0.735963
0.719876
0.692189
0.668648
0.640534
0.615028
0.606463
0.607353
0.614323
0.636735
0.695315
0.736708
0.744495
0.740214
0.727518
0.709492
0.675941
0.653684
0.660304
0.749681
0.78264
0.797066
0.828642
0.869251
0.90402
0.925898
0.946396
0.955935
0.962171
0.965136
0.966552
0.967091
0.967199
0.966444
0.965614
0.964112
0.962793
0.960747
0.958761
0.956102
0.953708
0.951483
0.948696
0.946355
0.944004
0.941358
0.938885
0.936963
0.935339
0.933418
0.930222
0.926792
0.923557
0.919407
0.913586
0.90633
0.897991
0.886847
0.87067
0.85059
0.827157
0.803308
0.78629
0.778761
0.774996
0.772571
0.766545
0.755501
0.753332
0.764133
0.770036
0.744215
0.723137
0.756309
0.799054
0.816522
0.825712
0.839188
0.849609
0.857451
0.859666
0.859989
0.858217
0.852413
0.84388
0.835627
0.825837
0.812528
0.799413
0.794183
0.792664
0.792688
0.795627
0.801354
0.806448
0.813092
0.8258
0.845852
0.86651
0.875191
0.878788
0.879578
0.876745
0.86609
0.849645
0.837404
0.826121
0.820969
0.819071
0.821712
0.830038
0.843577
0.860944
0.879187
0.893549
0.904907
0.91077
0.909129
0.891863
0.864767
0.84143
0.826959
0.818049
0.812791
0.810068
0.808873
0.807926
0.806596
0.805718
0.805861
0.807751
0.812411
0.817951
0.823878
0.828505
0.831396
0.834229
0.839686
0.853373
0.889238
0.92657
0.953271
0.965574
0.967357
0.964007
0.959324
0.957785
0.957878
0.958221
0.95866
0.959149
0.960253
0.964854
0.96758
0.963283
0.939286
0.892721
0.877204
0.876543
0.88407
0.887451
0.883781
0.885524
0.900412
0.915487
0.923906
0.928381
0.793293
0.790404
0.770828
0.702042
0.677618
0.687129
0.7327
0.806671
0.861323
0.886066
0.888877
0.886322
0.878671
0.868352
0.853054
0.816526
0.736731
0.663134
0.606337
0.573572
0.564882
0.566047
0.5747
0.602149
0.663447
0.710357
0.727699
0.723067
0.697876
0.666188
0.702716
0.787633
0.797009
0.821361
0.86848
0.903398
0.935034
0.950286
0.959968
0.963997
0.965008
0.965075
0.963412
0.96109
0.956361
0.952768
0.94862
0.945717
0.942681
0.940504
0.939188
0.938194
0.937775
0.937634
0.93765
0.938146
0.938605
0.939081
0.93957
0.939772
0.939819
0.939789
0.939517
0.939085
0.93868
0.938198
0.937281
0.935498
0.932916
0.929478
0.924173
0.916052
0.903472
0.8822
0.846251
0.806924
0.789305
0.781831
0.778749
0.777121
0.768957
0.760754
0.766413
0.76671
0.740569
0.738628
0.787809
0.819399
0.837183
0.84571
0.85908
0.867732
0.870905
0.871438
0.870115
0.864687
0.8544
0.840852
0.825225
0.805643
0.794218
0.790677
0.789983
0.790862
0.794815
0.802271
0.816058
0.83785
0.867007
0.879803
0.884056
0.884206
0.877524
0.861731
0.836367
0.795867
0.760826
0.746458
0.739073
0.734322
0.732357
0.731693
0.732147
0.734963
0.740784
0.751104
0.770708
0.806492
0.85293
0.899724
0.926954
0.939759
0.941108
0.927685
0.894772
0.869169
0.85322
0.84464
0.841589
0.841666
0.845023
0.848312
0.847451
0.841
0.835229
0.833788
0.834003
0.835673
0.840196
0.851322
0.882019
0.920402
0.950082
0.96628
0.970883
0.968856
0.960673
0.955246
0.954018
0.954703
0.956811
0.957998
0.958606
0.958931
0.959219
0.959873
0.963463
0.96563
0.961842
0.939603
0.894763
0.880683
0.881888
0.890643
0.898631
0.906292
0.915194
0.920827
0.923997
0.925138
0.793427
0.788128
0.735179
0.680272
0.696131
0.791709
0.895916
0.922909
0.92417
0.920813
0.913364
0.905467
0.895248
0.88596
0.87694
0.859187
0.812118
0.705238
0.615286
0.564349
0.54548
0.543489
0.548706
0.575167
0.639257
0.694005
0.707488
0.697388
0.675746
0.718253
0.789537
0.813297
0.845571
0.891721
0.929406
0.949535
0.960041
0.964145
0.965333
0.964313
0.961658
0.956295
0.950685
0.946365
0.942892
0.941128
0.938895
0.937905
0.937069
0.936775
0.936688
0.936677
0.93681
0.937161
0.937664
0.93821
0.93868
0.939086
0.939522
0.940082
0.940672
0.941121
0.941562
0.941972
0.942144
0.942199
0.942134
0.941492
0.940089
0.937705
0.933894
0.928565
0.920846
0.907089
0.880612
0.835039
0.798848
0.78516
0.781466
0.781127
0.782282
0.778191
0.770509
0.762242
0.745838
0.753038
0.794108
0.833166
0.853258
0.861341
0.870147
0.875907
0.877753
0.877927
0.876019
0.869468
0.856478
0.837573
0.813139
0.795916
0.790838
0.789965
0.790549
0.794753
0.806354
0.828661
0.863437
0.88014
0.885533
0.886067
0.880792
0.866935
0.832903
0.770492
0.741975
0.730828
0.727322
0.726506
0.725114
0.723383
0.7229
0.722777
0.72293
0.723847
0.725641
0.726948
0.727739
0.730028
0.739302
0.771095
0.843077
0.91392
0.947795
0.957411
0.954196
0.925934
0.886171
0.863374
0.854107
0.85269
0.855403
0.871268
0.895824
0.909337
0.914225
0.915635
0.916975
0.919931
0.928861
0.946604
0.962637
0.973323
0.977656
0.977938
0.974422
0.962997
0.95469
0.952095
0.951362
0.952163
0.955693
0.959049
0.960198
0.960332
0.96022
0.960146
0.96071
0.96449
0.965157
0.960127
0.931167
0.892557
0.884847
0.889013
0.89885
0.906696
0.914344
0.91816
0.917521
0.915336
0.796409
0.787665
0.722126
0.688858
0.770347
0.908924
0.938692
0.936105
0.926438
0.90975
0.897872
0.888776
0.878348
0.868415
0.861275
0.847508
0.808925
0.698625
0.601139
0.552335
0.538642
0.539475
0.551308
0.59237
0.648449
0.676905
0.683123
0.687356
0.715524
0.792927
0.823069
0.860468
0.908773
0.941187
0.957368
0.964168
0.96634
0.966567
0.963925
0.95955
0.953746
0.951082
0.947773
0.946194
0.945331
0.945278
0.946521
0.949159
0.951064
0.953349
0.954717
0.956214
0.956947
0.957408
0.957599
0.957395
0.956806
0.956344
0.955395
0.95441
0.953413
0.952254
0.951649
0.951091
0.950826
0.950622
0.950314
0.949201
0.947065
0.94409
0.940144
0.935031
0.929712
0.922506
0.910356
0.884277
0.832582
0.796072
0.783058
0.780326
0.781461
0.782714
0.776129
0.760658
0.752698
0.759949
0.785659
0.840098
0.863791
0.872233
0.876844
0.879871
0.880962
0.880995
0.879349
0.873488
0.860554
0.839069
0.81096
0.795088
0.791283
0.790943
0.794244
0.806658
0.835997
0.870816
0.883273
0.886566
0.885844
0.878851
0.855693
0.799672
0.75123
0.734672
0.73047
0.730392
0.734256
0.735551
0.733584
0.727482
0.725396
0.724527
0.724978
0.729123
0.737479
0.739938
0.735898
0.729737
0.72567
0.725804
0.735085
0.784501
0.886257
0.94708
0.966907
0.968141
0.953315
0.907444
0.87654
0.864977
0.864051
0.870436
0.898064
0.927704
0.947079
0.960147
0.969977
0.977736
0.983653
0.987407
0.98871
0.988679
0.987539
0.982289
0.968797
0.956916
0.951814
0.948083
0.945918
0.946601
0.952909
0.959344
0.961992
0.962342
0.961983
0.960793
0.960528
0.961741
0.965348
0.96486
0.95573
0.916745
0.891181
0.89026
0.897038
0.902064
0.905444
0.907711
0.903218
0.896423
0.797244
0.786656
0.719286
0.701601
0.835406
0.934601
0.94372
0.932981
0.906347
0.891108
0.877023
0.862218
0.850783
0.841909
0.834065
0.823034
0.793425
0.700316
0.59587
0.549334
0.538743
0.542332
0.570342
0.616857
0.654018
0.673419
0.68697
0.717393
0.793841
0.829905
0.868331
0.918588
0.947715
0.961499
0.966942
0.968346
0.96832
0.96526
0.960306
0.956095
0.953889
0.9524
0.951918
0.954395
0.958478
0.960614
0.963381
0.964606
0.965983
0.966734
0.967206
0.967487
0.96762
0.967671
0.967594
0.967494
0.967267
0.967141
0.966832
0.966556
0.966103
0.965544
0.964963
0.96428
0.963758
0.96335
0.963082
0.962529
0.961175
0.958273
0.952995
0.945023
0.936805
0.93029
0.924605
0.913092
0.887863
0.833119
0.794422
0.780651
0.777605
0.777657
0.778342
0.769305
0.76137
0.762164
0.783369
0.845029
0.870535
0.877556
0.88046
0.881849
0.882326
0.882272
0.880967
0.876249
0.864958
0.843879
0.813891
0.7968
0.793363
0.794093
0.802917
0.829157
0.864444
0.881518
0.885791
0.885861
0.879433
0.85462
0.791533
0.748726
0.735952
0.734465
0.740581
0.75729
0.76307
0.76331
0.749493
0.731863
0.725746
0.724089
0.724763
0.7303
0.753655
0.778158
0.776839
0.76615
0.747493
0.73086
0.724544
0.727623
0.757861
0.866233
0.944934
0.971507
0.974217
0.962831
0.920262
0.890466
0.881251
0.881844
0.893981
0.926432
0.951732
0.969183
0.981158
0.988804
0.992813
0.994197
0.99429
0.993627
0.990247
0.978294
0.962602
0.954131
0.947572
0.942943
0.942072
0.943866
0.95205
0.960577
0.964433
0.965091
0.964693
0.9623
0.960385
0.960446
0.963353
0.965556
0.963112
0.942857
0.903139
0.89265
0.892612
0.886596
0.879843
0.88004
0.883332
0.879607
0.797274
0.78427
0.727859
0.707763
0.855529
0.940358
0.94397
0.923324
0.898824
0.884761
0.867188
0.845083
0.829943
0.819932
0.807885
0.792051
0.760698
0.696342
0.607698
0.555469
0.5453
0.553805
0.588464
0.628898
0.660799
0.684325
0.723305
0.793917
0.834928
0.87285
0.921791
0.951193
0.96405
0.96899
0.970271
0.97027
0.96752
0.962683
0.959201
0.957517
0.957143
0.95948
0.963026
0.965324
0.966968
0.967755
0.968388
0.968672
0.968959
0.969093
0.969176
0.969208
0.969212
0.969146
0.969119
0.969012
0.968863
0.96874
0.968575
0.968501
0.968346
0.968178
0.967966
0.967667
0.967363
0.967084
0.966802
0.966639
0.966384
0.965725
0.964091
0.960205
0.951437
0.939412
0.931515
0.926746
0.916296
0.892706
0.839072
0.796163
0.779405
0.772675
0.769679
0.76727
0.765185
0.771853
0.804454
0.859988
0.876123
0.880274
0.881906
0.882605
0.882801
0.882707
0.881662
0.877845
0.868073
0.849811
0.821356
0.801899
0.798325
0.801816
0.817758
0.845559
0.872967
0.882704
0.884834
0.88157
0.862246
0.804471
0.753816
0.738321
0.736456
0.744449
0.771462
0.782093
0.784099
0.777882
0.760431
0.735228
0.724382
0.722132
0.72348
0.730463
0.758497
0.813754
0.824821
0.821148
0.807166
0.776145
0.741867
0.726961
0.728497
0.756905
0.869099
0.949212
0.975184
0.977068
0.963283
0.923956
0.90377
0.900042
0.90341
0.923371
0.951397
0.970666
0.983201
0.990578
0.994125
0.995202
0.995185
0.994089
0.988538
0.972238
0.959501
0.950658
0.943692
0.94094
0.941033
0.943359
0.95301
0.963355
0.968172
0.969192
0.968895
0.965728
0.960394
0.959362
0.960543
0.964981
0.965103
0.957265
0.921978
0.898861
0.886375
0.872406
0.864773
0.864142
0.868993
0.870167
0.79663
0.779343
0.73093
0.713629
0.860835
0.941485
0.943195
0.920365
0.896174
0.881969
0.857396
0.833477
0.820625
0.809172
0.793472
0.772811
0.741946
0.694992
0.633672
0.58539
0.572759
0.581511
0.616248
0.65244
0.687084
0.73556
0.796189
0.839036
0.877035
0.920827
0.952318
0.965568
0.970632
0.972055
0.972146
0.970255
0.96617
0.962839
0.961454
0.96201
0.964456
0.966511
0.968053
0.968747
0.969112
0.969299
0.969564
0.969902
0.97018
0.970409
0.970598
0.970687
0.970717
0.97065
0.970469
0.970193
0.969864
0.969549
0.96928
0.969147
0.969037
0.968986
0.968898
0.968783
0.968596
0.968393
0.967989
0.967689
0.967398
0.96707
0.966536
0.965454
0.962801
0.956309
0.94209
0.933373
0.929461
0.9208
0.900341
0.84992
0.80866
0.792602
0.785896
0.783962
0.786746
0.812273
0.850486
0.872198
0.878621
0.880934
0.882136
0.882695
0.882866
0.88282
0.881992
0.878761
0.870908
0.855876
0.832931
0.813803
0.80989
0.812189
0.825802
0.848786
0.872234
0.881368
0.882127
0.871764
0.831121
0.767182
0.741527
0.736262
0.740596
0.766831
0.788563
0.793135
0.793291
0.784885
0.766868
0.737218
0.723841
0.721934
0.72334
0.73261
0.771929
0.850468
0.877721
0.875652
0.866178
0.849431
0.803467
0.749723
0.730894
0.733749
0.77503
0.894128
0.960214
0.979442
0.979082
0.959791
0.931042
0.921708
0.921666
0.928748
0.951812
0.971511
0.984035
0.991099
0.994251
0.995033
0.994866
0.993091
0.98451
0.968731
0.956977
0.94763
0.94191
0.940523
0.940998
0.944987
0.958042
0.96801
0.972108
0.972632
0.971756
0.968361
0.960025
0.957032
0.957418
0.962265
0.965314
0.96273
0.940652
0.908974
0.886719
0.866554
0.859555
0.860165
0.864389
0.866305
0.794492
0.772951
0.73399
0.714383
0.824294
0.939484
0.945092
0.92251
0.898377
0.88332
0.853867
0.82993
0.817644
0.80491
0.787392
0.766838
0.742546
0.710872
0.677823
0.656573
0.648403
0.65343
0.684967
0.716185
0.760127
0.803588
0.843415
0.881234
0.919863
0.951775
0.96603
0.971649
0.973431
0.973721
0.972917
0.970061
0.966442
0.965042
0.965599
0.966707
0.96854
0.969458
0.970133
0.970462
0.970889
0.971384
0.971934
0.972445
0.972886
0.973197
0.973409
0.973511
0.973551
0.973542
0.973345
0.973112
0.972767
0.972141
0.971287
0.970504
0.970008
0.969845
0.969829
0.96986
0.969778
0.969536
0.969025
0.968407
0.967854
0.967391
0.966941
0.966333
0.965313
0.962969
0.957543
0.945321
0.936432
0.933227
0.927538
0.911617
0.868802
0.836378
0.826326
0.824669
0.835156
0.84983
0.867434
0.874136
0.877278
0.88041
0.881806
0.882459
0.882737
0.882782
0.882275
0.87976
0.873627
0.862341
0.844725
0.824851
0.819374
0.821311
0.829662
0.846458
0.868848
0.877077
0.876006
0.856034
0.799452
0.751077
0.737291
0.736138
0.749042
0.782704
0.795527
0.798316
0.796054
0.787562
0.76804
0.737011
0.724101
0.722211
0.723725
0.736347
0.796721
0.893789
0.928546
0.927973
0.906912
0.876068
0.855845
0.801004
0.749336
0.736005
0.745272
0.819553
0.926288
0.972897
0.9841
0.981552
0.963584
0.950194
0.947461
0.948631
0.958269
0.975222
0.98622
0.992088
0.994439
0.994871
0.994514
0.991955
0.981544
0.966733
0.954972
0.945907
0.941453
0.941036
0.942441
0.950336
0.966071
0.973789
0.975071
0.974238
0.972347
0.968783
0.960186
0.954449
0.953897
0.95702
0.964272
0.964309
0.955146
0.921978
0.889122
0.866452
0.858709
0.859862
0.86425
0.865768
0.78916
0.75673
0.733176
0.709367
0.773093
0.930026
0.948038
0.933047
0.908483
0.892984
0.862706
0.836944
0.824911
0.813405
0.797858
0.781473
0.764993
0.749259
0.735312
0.728488
0.726685
0.739705
0.761217
0.788056
0.819182
0.851992
0.885019
0.919364
0.950539
0.965542
0.971951
0.974222
0.974748
0.97463
0.97323
0.970178
0.968165
0.968106
0.96841
0.969164
0.970121
0.970547
0.970811
0.971056
0.97149
0.972061
0.972627
0.973037
0.973313
0.97354
0.973723
0.973798
0.973816
0.973811
0.973797
0.973803
0.973826
0.97375
0.973481
0.973093
0.972172
0.971235
0.97082
0.970715
0.971193
0.972025
0.972159
0.970817
0.969444
0.968146
0.96721
0.966463
0.965644
0.964374
0.96231
0.958257
0.949217
0.941282
0.938304
0.93583
0.923905
0.88503
0.846125
0.835166
0.838743
0.854035
0.862734
0.865663
0.867729
0.877149
0.880167
0.881161
0.881897
0.88228
0.882163
0.880902
0.877232
0.869397
0.856618
0.838505
0.827548
0.827402
0.830852
0.840864
0.86148
0.873257
0.872375
0.845131
0.782618
0.744613
0.735257
0.735057
0.75208
0.786475
0.798417
0.79964
0.796315
0.785444
0.757132
0.732296
0.724277
0.722742
0.724811
0.74021
0.814701
0.91598
0.948541
0.948517
0.92258
0.875755
0.861926
0.838402
0.780475
0.746324
0.744017
0.772681
0.880808
0.955409
0.983444
0.989358
0.988063
0.981862
0.976923
0.975043
0.975746
0.982055
0.990115
0.994014
0.995336
0.995463
0.994926
0.991894
0.980824
0.966194
0.954132
0.94544
0.942428
0.942772
0.946156
0.959825
0.973384
0.9767
0.976199
0.973612
0.969608
0.967393
0.961955
0.953948
0.951371
0.952371
0.960484
0.964195
0.96095
0.939843
0.89517
0.867742
0.858951
0.859858
0.865457
0.867738
0.775658
0.72457
0.722239
0.704846
0.726099
0.905095
0.949502
0.942671
0.917856
0.904611
0.878161
0.851034
0.838792
0.830571
0.818361
0.805608
0.796914
0.789025
0.784642
0.783149
0.787747
0.800168
0.817217
0.838256
0.862846
0.889556
0.919382
0.946533
0.964038
0.971341
0.974281
0.975198
0.975349
0.975061
0.973624
0.970968
0.970095
0.96999
0.970066
0.970425
0.970701
0.970804
0.970904
0.971077
0.971448
0.971935
0.972219
0.972286
0.971972
0.971421
0.970727
0.970069
0.969806
0.969851
0.970516
0.971243
0.972439
0.973192
0.973558
0.973685
0.973362
0.972641
0.971111
0.970561
0.970875
0.972815
0.975127
0.976721
0.975471
0.972224
0.969353
0.967202
0.965739
0.964591
0.963204
0.96153
0.959059
0.95447
0.948102
0.945563
0.945475
0.940779
0.922379
0.871632
0.846408
0.836629
0.840306
0.837844
0.834285
0.855022
0.871197
0.875573
0.878369
0.879949
0.880967
0.880661
0.879246
0.875636
0.867815
0.854133
0.83959
0.832263
0.832661
0.836287
0.851359
0.865051
0.862977
0.834309
0.774203
0.74166
0.732702
0.73311
0.746764
0.779524
0.795018
0.794752
0.788956
0.770522
0.740622
0.729499
0.724248
0.723499
0.72613
0.744841
0.830756
0.925812
0.958164
0.958972
0.934934
0.871189
0.849994
0.840725
0.807314
0.761362
0.749233
0.759996
0.836355
0.932234
0.975975
0.991043
0.994826
0.995116
0.993893
0.991291
0.990542
0.991095
0.9939
0.996068
0.996731
0.996738
0.996126
0.993061
0.982025
0.96717
0.954439
0.946203
0.94495
0.946331
0.953989
0.972492
0.978274
0.977934
0.975829
0.970161
0.966356
0.964859
0.963095
0.956956
0.950682
0.950037
0.954681
0.963143
0.962863
0.952328
0.909287
0.871669
0.859943
0.860099
0.865693
0.870821
0.750404
0.681654
0.681447
0.693427
0.688716
0.842704
0.949926
0.951001
0.931669
0.919814
0.899114
0.870208
0.856731
0.849797
0.841901
0.832547
0.826115
0.823037
0.821913
0.823569
0.830746
0.841259
0.857534
0.874437
0.895958
0.919212
0.941527
0.960508
0.969356
0.973274
0.974841
0.97537
0.975456
0.975229
0.974212
0.972329
0.971458
0.971274
0.971252
0.971087
0.970913
0.970846
0.970866
0.97095
0.971051
0.971018
0.970246
0.968288
0.964302
0.960239
0.957005
0.95511
0.954413
0.955064
0.956143
0.959701
0.96327
0.967823
0.970458
0.972617
0.973401
0.973508
0.972719
0.969895
0.968595
0.968666
0.97381
0.978465
0.98076
0.981529
0.978356
0.972929
0.968486
0.9655
0.963568
0.962177
0.960642
0.95903
0.957002
0.9544
0.953126
0.953634
0.95364
0.950982
0.935478
0.881879
0.843542
0.825728
0.820202
0.819659
0.83183
0.850121
0.862671
0.870051
0.874925
0.877892
0.878229
0.877146
0.874266
0.867687
0.856244
0.842456
0.836158
0.83621
0.840834
0.856138
0.856409
0.835996
0.777983
0.743549
0.732141
0.731144
0.736405
0.759975
0.779567
0.778078
0.768029
0.742858
0.732375
0.727544
0.724375
0.724475
0.728407
0.751797
0.842854
0.931914
0.967095
0.972155
0.959098
0.8846
0.830138
0.825225
0.813285
0.773834
0.755629
0.759346
0.807385
0.910667
0.966121
0.988441
0.995875
0.997907
0.998105
0.997563
0.996894
0.9969
0.997404
0.99808
0.998281
0.998217
0.997578
0.994916
0.985527
0.969705
0.955503
0.949238
0.949418
0.953356
0.969906
0.979797
0.979879
0.977559
0.970418
0.967122
0.965537
0.964396
0.963444
0.961158
0.953317
0.949475
0.950598
0.959736
0.962962
0.958653
0.927901
0.880206
0.862627
0.861079
0.865161
0.874455
0.708377
0.639532
0.605869
0.671432
0.671704
0.758362
0.940917
0.956012
0.943784
0.93339
0.921274
0.895051
0.876584
0.869323
0.864442
0.858939
0.853676
0.850569
0.849836
0.85223
0.861096
0.870072
0.883251
0.899969
0.916862
0.936404
0.95324
0.965447
0.970724
0.973319
0.974738
0.975222
0.975303
0.975133
0.974423
0.973458
0.972787
0.972327
0.971973
0.971725
0.971173
0.970845
0.970563
0.97021
0.969476
0.967599
0.963305
0.956928
0.951678
0.947746
0.94464
0.942793
0.941827
0.941449
0.94211
0.943837
0.946852
0.951545
0.958897
0.96646
0.971209
0.973331
0.973859
0.973023
0.968338
0.965377
0.963865
0.972085
0.980212
0.98385
0.985378
0.984949
0.980184
0.972868
0.967257
0.963512
0.961211
0.959656
0.95824
0.957269
0.95695
0.957496
0.959436
0.961854
0.962193
0.96014
0.951045
0.92902
0.891893
0.84457
0.811128
0.80257
0.806338
0.825675
0.848132
0.862163
0.870394
0.874223
0.873776
0.871903
0.867637
0.860066
0.845561
0.838437
0.837341
0.840213
0.843089
0.834169
0.791878
0.750245
0.733996
0.730288
0.730969
0.736282
0.746918
0.74468
0.737057
0.730631
0.728761
0.72697
0.725528
0.726113
0.732298
0.763622
0.859047
0.94002
0.978272
0.987539
0.980891
0.918706
0.825967
0.805412
0.800814
0.77849
0.760781
0.762032
0.79406
0.893028
0.95724
0.984883
0.99503
0.998307
0.999162
0.999237
0.999143
0.999128
0.999232
0.999419
0.999469
0.999411
0.998982
0.997224
0.991186
0.973899
0.958969
0.956018
0.957913
0.969521
0.981997
0.982365
0.979833
0.97089
0.967088
0.96614
0.965911
0.965665
0.965022
0.963621
0.958381
0.950728
0.949814
0.954948
0.962277
0.961252
0.94554
0.89384
0.86747
0.863307
0.866248
0.879263
0.673517
0.601395
0.566391
0.607265
0.658823
0.687049
0.90475
0.958643
0.952746
0.943592
0.938642
0.92385
0.900049
0.889431
0.885173
0.882007
0.879199
0.876716
0.875173
0.87519
0.880587
0.890023
0.899516
0.913786
0.930099
0.944552
0.958425
0.966472
0.970463
0.972865
0.97399
0.974293
0.974324
0.974292
0.974179
0.97379
0.973627
0.973467
0.973056
0.972475
0.971687
0.971013
0.970532
0.969635
0.967935
0.964545
0.958762
0.952005
0.94665
0.943066
0.940477
0.93876
0.938055
0.938533
0.938856
0.939708
0.941515
0.944346
0.94866
0.955791
0.96362
0.969934
0.97342
0.974495
0.973766
0.967163
0.960955
0.958069
0.96692
0.979039
0.98491
0.98755
0.988567
0.987388
0.981376
0.973046
0.966093
0.961605
0.958663
0.957025
0.956304
0.957108
0.959881
0.963255
0.966384
0.969912
0.971269
0.969573
0.964551
0.954731
0.926918
0.866673
0.821586
0.80639
0.805305
0.809296
0.823183
0.85017
0.863371
0.868235
0.867505
0.865263
0.859795
0.849297
0.840704
0.836249
0.830659
0.825309
0.803206
0.764623
0.740308
0.732048
0.729738
0.73
0.729812
0.72902
0.72779
0.727798
0.727976
0.727401
0.726999
0.728484
0.739038
0.785512
0.887799
0.955492
0.987083
0.993365
0.987824
0.937745
0.829289
0.788138
0.783506
0.772577
0.76311
0.764725
0.791135
0.8832
0.95131
0.982024
0.993957
0.998092
0.999364
0.999676
0.999724
0.999736
0.999771
0.999816
0.999824
0.999789
0.999582
0.998734
0.995326
0.981003
0.969156
0.969113
0.975191
0.985887
0.985886
0.982855
0.971733
0.966689
0.966111
0.966523
0.967916
0.96867
0.968466
0.967581
0.964928
0.955035
0.950389
0.951742
0.960207
0.961868
0.954943
0.915535
0.876638
0.867847
0.870236
0.885956
0.659434
0.567865
0.549031
0.563675
0.629165
0.65293
0.83214
0.958093
0.960314
0.95113
0.948507
0.944464
0.932216
0.913104
0.904926
0.902514
0.901152
0.900007
0.899428
0.899331
0.899991
0.904787
0.91193
0.920378
0.934003
0.946945
0.958029
0.965864
0.969433
0.971338
0.972164
0.972469
0.97257
0.972628
0.972869
0.97345
0.973676
0.973854
0.97394
0.973647
0.973019
0.971762
0.970855
0.969868
0.968244
0.965092
0.959637
0.95318
0.947622
0.943792
0.941162
0.939372
0.938353
0.938152
0.938331
0.938938
0.940421
0.942837
0.946241
0.952391
0.960405
0.96699
0.971197
0.973967
0.975044
0.974489
0.967182
0.95643
0.9527
0.958576
0.972674
0.982461
0.988004
0.990541
0.991267
0.989775
0.984122
0.975241
0.966046
0.959752
0.955574
0.95343
0.952963
0.956052
0.963008
0.970307
0.975358
0.977662
0.977284
0.974207
0.969155
0.962106
0.945796
0.889748
0.837918
0.813879
0.805052
0.80568
0.812711
0.831879
0.852053
0.859688
0.858974
0.855945
0.85121
0.841216
0.830845
0.823051
0.805072
0.777463
0.753962
0.738757
0.732325
0.730226
0.728222
0.727371
0.727498
0.728554
0.729884
0.729038
0.729134
0.73261
0.752195
0.827515
0.923501
0.974362
0.992771
0.996187
0.990894
0.944322
0.832607
0.780467
0.76849
0.764715
0.763661
0.766955
0.794716
0.884375
0.950247
0.981077
0.993483
0.997928
0.99937
0.999786
0.999886
0.999913
0.99993
0.999939
0.999939
0.999919
0.99983
0.999477
0.997697
0.989423
0.986144
0.987422
0.991063
0.990372
0.986359
0.972752
0.965873
0.965524
0.966436
0.969272
0.97138
0.971196
0.970272
0.969549
0.968113
0.961965
0.952273
0.95152
0.956894
0.961737
0.959387
0.939282
0.891304
0.877086
0.88
0.897513
0.645668
0.557378
0.541299
0.545209
0.577488
0.645019
0.781494
0.950054
0.965345
0.958337
0.954553
0.953889
0.951386
0.942993
0.929789
0.920809
0.918428
0.918052
0.917984
0.918789
0.919513
0.92055
0.923982
0.928451
0.935438
0.94604
0.956026
0.964259
0.967918
0.969796
0.970785
0.971228
0.971419
0.971498
0.971635
0.972059
0.973011
0.973697
0.974039
0.974211
0.97407
0.973562
0.972329
0.970843
0.969315
0.966888
0.962419
0.956914
0.951436
0.947161
0.944169
0.942283
0.940892
0.940532
0.940762
0.941442
0.943041
0.945255
0.947625
0.952334
0.959999
0.966673
0.970888
0.973245
0.974624
0.975305
0.975001
0.968465
0.953421
0.947924
0.949133
0.96124
0.975625
0.985176
0.990634
0.992986
0.993594
0.992769
0.988323
0.977954
0.965169
0.95618
0.951367
0.949227
0.949231
0.952991
0.964296
0.976152
0.983127
0.98564
0.984617
0.976541
0.969043
0.961453
0.944643
0.8948
0.839648
0.816161
0.803429
0.801781
0.806079
0.819477
0.840948
0.849292
0.849103
0.846484
0.839456
0.826813
0.809613
0.786779
0.765131
0.748903
0.739668
0.734193
0.731216
0.731194
0.732227
0.735239
0.733794
0.731399
0.732262
0.741051
0.780135
0.886058
0.959779
0.987983
0.996861
0.997942
0.993082
0.951233
0.838643
0.779481
0.763352
0.761973
0.762953
0.769474
0.80474
0.894185
0.953327
0.981865
0.993647
0.997959
0.999387
0.999818
0.999936
0.999967
0.999976
0.999978
0.999977
0.999965
0.999917
0.999743
0.998887
0.996553
0.996018
0.995532
0.994147
0.989296
0.973426
0.964371
0.963813
0.965371
0.970265
0.973099
0.973003
0.971852
0.970117
0.969606
0.968951
0.966584
0.956529
0.952138
0.954139
0.961122
0.961116
0.952342
0.914627
0.895797
0.89821
0.912518
0.638359
0.555097
0.538922
0.539481
0.558835
0.615486
0.753597
0.937414
0.968415
0.966096
0.959074
0.958425
0.958955
0.957904
0.952771
0.944693
0.937133
0.932771
0.93165
0.931792
0.932632
0.933575
0.934907
0.937441
0.940065
0.945808
0.95272
0.960767
0.966161
0.968628
0.969887
0.970518
0.97082
0.970951
0.97102
0.971183
0.971592
0.97263
0.973719
0.974176
0.974377
0.974349
0.974035
0.973258
0.971769
0.970445
0.968037
0.964167
0.959681
0.955642
0.95155
0.948913
0.947271
0.94661
0.946937
0.947903
0.94997
0.952904
0.957094
0.962886
0.968293
0.972002
0.973677
0.974162
0.974528
0.975096
0.97549
0.975189
0.969038
0.95149
0.944264
0.943381
0.949784
0.964744
0.978198
0.98699
0.992089
0.994441
0.995166
0.994585
0.989574
0.973986
0.958124
0.949742
0.946556
0.946108
0.947136
0.95261
0.967616
0.981422
0.988621
0.9905
0.988713
0.977856
0.968005