/*--------------------------------*- C++ -*----------------------------------*\
| =========                 |                                                 |
| \\      /  F ield         | OpenFOAM: The Open Source CFD Toolbox           |
|  \\    /   O peration     | Version:  2112                                  |
|   \\  /    A nd           | Website:  www.openfoam.com                      |
|    \\/     M anipulation  |                                                 |
\*---------------------------------------------------------------------------*/
FoamFile
{
    version     2.0;
    format      ascii;
    arch        "LSB;label=32;scalar=64";
    class       volVectorField;
    location    "0.067";
    object      U_0;
}
// * * * * * * * * * * * * * * * * * * * * * * * * * * * * * * * * * * * * * //

dimensions      [0 1 -1 0 0 0 0];

internalField   nonuniform List<vector> 
12225
(
(10.1745 0.077027 0)
(9.79544 0.0528383 0)
(9.4487 0.0498246 0)
(9.10318 0.0597976 0)
(8.7978 0.0623942 0)
(8.50845 0.0570982 0)
(8.21967 0.052947 0)
(7.94094 0.0586579 0)
(7.65644 0.0707648 0)
(7.36799 0.0812773 0)
(7.06509 0.0826123 0)
(6.78433 0.0761357 0)
(6.49794 0.0669011 0)
(6.22402 0.0619873 0)
(5.92661 0.064246 0)
(5.59353 0.0798199 0)
(5.21511 0.0974556 0)
(4.83376 0.117169 0)
(10.2245 0.0144792 0)
(10.2634 0.115491 0)
(10.1826 0.104914 0)
(10.1 0.080688 0)
(10.1052 0.0730053 0)
(10.137 0.0810409 0)
(10.1171 0.0893963 0)
(10.0471 0.0911083 0)
(9.95465 0.0889427 0)
(9.86918 0.0876852 0)
(9.79081 0.0901061 0)
(9.72471 0.0960651 0)
(9.65744 0.111124 0)
(9.58283 0.12781 0)
(9.49271 0.155686 0)
(9.3786 0.185495 0)
(9.22635 0.221827 0)
(9.07445 0.268253 0)
(10.0082 0.0360636 0)
(9.96725 0.104285 0)
(9.98399 0.0990484 0)
(10.039 0.0761922 0)
(10.1317 0.0605285 0)
(10.2213 0.0657496 0)
(10.2694 0.0844778 0)
(10.2796 0.106402 0)
(10.2636 0.124501 0)
(10.2251 0.135584 0)
(10.1681 0.138946 0)
(10.1003 0.135195 0)
(10.0341 0.132038 0)
(9.9735 0.133297 0)
(9.92778 0.14671 0)
(9.89429 0.177089 0)
(9.87458 0.221322 0)
(9.86348 0.276161 0)
(9.81253 0.0335946 0)
(9.93815 0.104964 0)
(9.99251 0.0827237 0)
(9.9457 0.0329068 0)
(9.92682 0.0130654 0)
(9.97968 0.0298859 0)
(10.0567 0.0608975 0)
(10.1124 0.0883617 0)
(10.1298 0.106794 0)
(10.1128 0.118023 0)
(10.0762 0.126735 0)
(10.0303 0.134534 0)
(9.97951 0.146414 0)
(9.92344 0.163377 0)
(9.86542 0.187416 0)
(9.81411 0.21888 0)
(9.77564 0.254569 0)
(9.75983 0.291356 0)
(10.091 0.0490082 0)
(10.0442 0.0964408 0)
(10.0266 0.115887 0)
(10.0163 0.0972639 0)
(10.043 0.0600266 0)
(10.1067 0.0394945 0)
(10.1661 0.0517427 0)
(10.1901 0.0872177 0)
(10.1698 0.126456 0)
(10.117 0.156384 0)
(10.0562 0.17388 0)
(10.0067 0.181203 0)
(9.97138 0.185468 0)
(9.94311 0.192522 0)
(9.91158 0.205404 0)
(9.87349 0.225881 0)
(9.82766 0.252171 0)
(9.78009 0.279777 0)
(10.0178 0.0595616 0)
(10.0688 0.109151 0)
(9.92106 0.0837077 0)
(9.81599 0.016545 0)
(9.81962 -0.0245218 0)
(9.86626 -0.0193433 0)
(9.91258 0.0246687 0)
(9.9567 0.0853057 0)
(9.99816 0.136384 0)
(10.0286 0.162968 0)
(10.043 0.167982 0)
(10.0406 0.1645 0)
(10.0229 0.166673 0)
(9.99094 0.182975 0)
(9.94822 0.212393 0)
(9.8967 0.250336 0)
(9.84179 0.290321 0)
(9.78465 0.325475 0)
(10.0916 -0.0499062 0)
(10.2017 0.143461 0)
(10.2494 0.20407 0)
(10.2266 0.133079 0)
(10.1884 0.0525274 0)
(10.1456 0.0162802 0)
(10.0981 0.0204038 0)
(10.0658 0.049126 0)
(10.0537 0.0907219 0)
(10.0408 0.133141 0)
(10.0077 0.168456 0)
(9.95359 0.1946 0)
(9.89212 0.214819 0)
(9.83682 0.234885 0)
(9.79965 0.257813 0)
(9.77854 0.284986 0)
(9.77604 0.314447 0)
(9.77718 0.345539 0)
(9.85283 -0.0819228 0)
(9.91092 0.0430214 0)
(9.99172 0.0767737 0)
(10.0818 0.0350956 0)
(10.1963 0.00340446 0)
(10.2851 0.0138278 0)
(10.2898 0.0571226 0)
(10.215 0.113533 0)
(10.1107 0.162703 0)
(10.0243 0.19559 0)
(9.97521 0.21304 0)
(9.96206 0.22009 0)
(9.97066 0.223327 0)
(9.98844 0.228965 0)
(10.0061 0.240981 0)
(10.0185 0.259701 0)
(10.0264 0.284789 0)
(10.0212 0.315318 0)
(9.89271 -0.049686 0)
(9.96854 0.126373 0)
(10.0368 0.145958 0)
(10.0818 0.0528308 0)
(10.0868 -0.0209339 0)
(10.0485 -0.0200264 0)
(10.0061 0.0373014 0)
(9.99634 0.108013 0)
(10.0258 0.158857 0)
(10.0813 0.182834 0)
(10.1445 0.189156 0)
(10.1999 0.190445 0)
(10.2357 0.1961 0)
(10.2483 0.210861 0)
(10.2378 0.236264 0)
(10.2123 0.269186 0)
(10.1752 0.309914 0)
(10.1333 0.354638 0)
(9.94787 -0.0379723 0)
(9.99767 -0.0490013 0)
(10.1581 0.00869063 0)
(10.244 0.0168179 0)
(10.2652 0.0280156 0)
(10.2457 0.0597579 0)
(10.1871 0.0960873 0)
(10.0997 0.124538 0)
(10.0097 0.140861 0)
(9.94389 0.150227 0)
(9.91877 0.160583 0)
(9.93434 0.177242 0)
(9.97659 0.201593 0)
(10.0251 0.232838 0)
(10.0593 0.267762 0)
(10.0717 0.304557 0)
(10.0573 0.342795 0)
(10.0288 0.383995 0)
(10.1893 0.0933314 0)
(10.0641 0.0666245 0)
(9.91428 0.062539 0)
(9.84117 0.0139915 0)
(9.88683 -0.022283 0)
(9.99769 -0.000478632 0)
(10.1064 0.0821996 0)
(10.1688 0.172955 0)
(10.1768 0.222792 0)
(10.1528 0.220578 0)
(10.1216 0.185596 0)
(10.0978 0.14886 0)
(10.0836 0.13434 0)
(10.0762 0.153317 0)
(10.0678 0.20138 0)
(10.0538 0.266809 0)
(10.0299 0.338083 0)
(9.9994 0.403671 0)
(10.0066 -0.0552845 0)
(10.0253 0.0542164 0)
(9.99084 0.0777187 0)
(10.0047 0.0213499 0)
(10.0477 -0.0362688 0)
(10.0882 -0.0330069 0)
(10.1376 0.0315387 0)
(10.2018 0.112258 0)
(10.2705 0.171406 0)
(10.3194 0.197668 0)
(10.3233 0.202821 0)
(10.2762 0.205323 0)
(10.194 0.217404 0)
(10.1016 0.243908 0)
(10.0223 0.283645 0)
(9.96656 0.33254 0)
(9.93694 0.38553 0)
(9.92953 0.439802 0)
(9.96854 -0.0163128 0)
(9.9909 0.11701 0)
(10.0397 0.100161 0)
(10.0657 -0.007456 0)
(10.0726 -0.0675106 0)
(10.0711 -0.0505171 0)
(10.0801 0.00971598 0)
(10.1032 0.0806776 0)
(10.1219 0.138481 0)
(10.1201 0.17709 0)
(10.0996 0.202366 0)
(10.0722 0.222166 0)
(10.0505 0.241734 0)
(10.0361 0.264879 0)
(10.0269 0.292557 0)
(10.0178 0.325743 0)
(10.0096 0.362211 0)
(10.0012 0.402421 0)
(10.0436 -0.0113267 0)
(10.0423 -0.0118608 0)
(10.1144 0.00366619 0)
(10.1239 -0.0078588 0)
(10.0914 -0.0246739 0)
(10.0585 -0.021015 0)
(10.0507 0.0288306 0)
(10.064 0.109428 0)
(10.0934 0.184255 0)
(10.134 0.229417 0)
(10.1735 0.243096 0)
(10.1992 0.240417 0)
(10.2064 0.240945 0)
(10.1968 0.259154 0)
(10.1788 0.297398 0)
(10.1596 0.350127 0)
(10.1472 0.407467 0)
(10.1442 0.461023 0)
(9.99051 0.128873 0)
(10.0023 0.179225 0)
(9.97268 0.0913963 0)
(9.96619 0.0227133 0)
(9.95301 -0.0208067 0)
(9.91802 -0.0293624 0)
(9.89635 -0.00803685 0)
(9.91409 0.0253744 0)
(9.96933 0.0586455 0)
(10.0424 0.092119 0)
(10.1085 0.134149 0)
(10.1497 0.187185 0)
(10.1583 0.243453 0)
(10.1411 0.292834 0)
(10.109 0.327749 0)
(10.0802 0.350805 0)
(10.0607 0.36364 0)
(10.0646 0.376126 0)
(9.84015 -0.0699523 0)
(9.98632 -0.0579372 0)
(10.0364 -0.0417466 0)
(10.0888 -0.00778752 0)
(10.1167 0.0135833 0)
(10.1116 0.0236307 0)
(10.1043 0.0391814 0)
(10.1089 0.0640516 0)
(10.1203 0.0910369 0)
(10.1334 0.117937 0)
(10.1438 0.150657 0)
(10.1474 0.196298 0)
(10.1414 0.254595 0)
(10.126 0.318556 0)
(10.1037 0.376669 0)
(10.081 0.42187 0)
(10.0629 0.449894 0)
(10.0552 0.462822 0)
(10.2867 0.0457433 0)
(10.1759 0.0950017 0)
(10.0876 0.0457581 0)
(10.0717 -0.0140968 0)
(10.0971 -0.0357159 0)
(10.1288 -0.0300336 0)
(10.1604 -0.0139937 0)
(10.1849 0.00129569 0)
(10.1924 0.0188751 0)
(10.1787 0.0507178 0)
(10.1482 0.106705 0)
(10.1091 0.184297 0)
(10.0721 0.268053 0)
(10.0463 0.338746 0)
(10.0399 0.380834 0)
(10.0539 0.393416 0)
(10.0881 0.378966 0)
(10.1347 0.35435 0)
(10.0882 0.151477 0)
(10.1301 0.1333 0)
(10.157 0.0223164 0)
(10.21 -0.0349922 0)
(10.2334 -0.0724217 0)
(10.2139 -0.0804018 0)
(10.1904 -0.0415363 0)
(10.1686 0.0331394 0)
(10.1343 0.120501 0)
(10.0899 0.204963 0)
(10.0519 0.278952 0)
(10.0352 0.336555 0)
(10.0447 0.371771 0)
(10.079 0.381454 0)
(10.1293 0.367704 0)
(10.1859 0.339348 0)
(10.2384 0.305688 0)
(10.2797 0.279945 0)
(10.3161 0.00658892 0)
(10.3496 0.0608396 0)
(10.3395 -0.0217246 0)
(10.2965 -0.0407696 0)
(10.1759 -0.00110026 0)
(10.0568 0.0481839 0)
(9.9857 0.0877254 0)
(9.95901 0.118561 0)
(9.96735 0.1442 0)
(10.0046 0.162494 0)
(10.0614 0.167884 0)
(10.1256 0.159637 0)
(10.1859 0.143571 0)
(10.235 0.129046 0)
(10.2677 0.123468 0)
(10.2835 0.130089 0)
(10.2838 0.148249 0)
(10.2731 0.173497 0)
(10.1895 -0.0194153 0)
(10.2726 0.0694381 0)
(10.2939 0.159056 0)
(10.2746 0.187412 0)
(10.2583 0.19815 0)
(10.2608 0.18001 0)
(10.2589 0.128826 0)
(10.2357 0.0713118 0)
(10.2074 0.0342788 0)
(10.1987 0.0279519 0)
(10.2187 0.0495017 0)
(10.2611 0.0913685 0)
(10.3129 0.144777 0)
(10.3612 0.201921 0)
(10.4001 0.255771 0)
(10.4259 0.300347 0)
(10.4422 0.333712 0)
(10.4484 0.351928 0)
(9.906 0.0293391 0)
(9.94633 0.0470006 0)
(9.9682 0.0768073 0)
(10.0005 0.0747851 0)
(10.0516 0.0628074 0)
(10.0961 0.0887398 0)
(10.1199 0.141969 0)
(10.1204 0.177598 0)
(10.1065 0.165735 0)
(10.0878 0.111716 0)
(10.0693 0.044196 0)
(10.0568 -0.00706918 0)
(10.0586 -0.025628 0)
(10.0804 -0.0115044 0)
(10.125 0.0267993 0)
(10.189 0.0772739 0)
(10.267 0.130864 0)
(10.3516 0.182081 0)
(10.0288 -0.0143842 0)
(10.0418 0.00937166 0)
(10.0908 0.0595186 0)
(10.1526 0.0653114 0)
(10.1546 0.0712445 0)
(10.1297 0.0957527 0)
(10.1246 0.113206 0)
(10.1382 0.108709 0)
(10.1503 0.0948951 0)
(10.1487 0.0886157 0)
(10.1367 0.0928119 0)
(10.1269 0.0986222 0)
(10.13 0.0974168 0)
(10.1497 0.0865164 0)
(10.1824 0.0697098 0)
(10.2239 0.0559755 0)
(10.2673 0.0493837 0)
(10.3078 0.057063 0)
(10.0476 0.000109835 0)
(9.92129 0.0256546 0)
(9.93809 0.0122698 0)
(9.99964 0.0508522 0)
(10.0738 0.0860303 0)
(10.1547 0.105891 0)
(10.229 0.121728 0)
(10.2772 0.136418 0)
(10.2909 0.139416 0)
(10.2768 0.117942 0)
(10.2501 0.0708647 0)
(10.225 0.0113531 0)
(10.2082 -0.0415986 0)
(10.2001 -0.0728675 0)
(10.2003 -0.075287 0)
(10.2082 -0.0517317 0)
(10.2208 -0.0098374 0)
(10.2415 0.0426904 0)
(9.76308 0.119582 0)
(9.87114 0.0314521 0)
(9.88101 -0.0390675 0)
(9.9023 -0.0480003 0)
(9.94078 -0.0378262 0)
(9.99577 -0.015701 0)
(10.0529 0.0194821 0)
(10.1081 0.0631986 0)
(10.1607 0.104752 0)
(10.203 0.133226 0)
(10.227 0.14304 0)
(10.2313 0.133875 0)
(10.2216 0.109996 0)
(10.2065 0.0786827 0)
(10.1925 0.0473513 0)
(10.1855 0.0221347 0)
(10.1903 0.00560835 0)
(10.2095 0.00100043 0)
(10.0173 -0.150225 0)
(9.99218 -0.042368 0)
(9.99165 0.0020102 0)
(10.0118 0.0107354 0)
(10.0434 0.0101231 0)
(10.0814 0.0120665 0)
(10.1271 0.0254391 0)
(10.1799 0.0465662 0)
(10.232 0.0631278 0)
(10.2741 0.0663861 0)
(10.3028 0.053797 0)
(10.3234 0.0283285 0)
(10.343 -0.00283795 0)
(10.3664 -0.0300779 0)
(10.3924 -0.0457439 0)
(10.4166 -0.0489615 0)
(10.4322 -0.0407712 0)
(10.4322 -0.0259776 0)
(9.75815 0.0567758 0)
(9.73945 0.00383122 0)
(9.79391 -0.0592349 0)
(9.86201 -0.0757376 0)
(9.91549 -0.0694003 0)
(9.97502 -0.0618431 0)
(10.0353 -0.0470124 0)
(10.0898 -0.0159997 0)
(10.1456 0.0282664 0)
(10.2065 0.0708789 0)
(10.2635 0.0944456 0)
(10.3036 0.0913753 0)
(10.3202 0.0652136 0)
(10.3156 0.0294924 0)
(10.2972 0.000285794 0)
(10.2759 -0.0127035 0)
(10.2639 -0.00628498 0)
(10.2686 0.0140889 0)
(10.2384 0.0699526 0)
(10.1847 -0.0559121 0)
(10.1573 -0.0458577 0)
(10.1153 -0.0498686 0)
(10.0434 -0.0583388 0)
(9.989 -0.0555023 0)
(9.97206 -0.0401044 0)
(9.98382 -0.0192743 0)
(10.0242 -0.00491531 0)
(10.0983 -0.000998988 0)
(10.2001 -0.00237906 0)
(10.3094 -0.00417183 0)
(10.4017 -0.00586073 0)
(10.4584 -0.0100658 0)
(10.4753 -0.0192312 0)
(10.4633 -0.0299271 0)
(10.4379 -0.0394007 0)
(10.4182 -0.04415 0)
(9.94897 0.0469291 0)
(10.0014 -0.00624984 0)
(10.0764 -0.0312575 0)
(10.1286 -0.0218043 0)
(10.1571 -0.0223686 0)
(10.2055 -0.0377003 0)
(10.2806 -0.0512869 0)
(10.3527 -0.0512379 0)
(10.3965 -0.0442237 0)
(10.4086 -0.0396152 0)
(10.3998 -0.038309 0)
(10.385 -0.0363551 0)
(10.3758 -0.0290888 0)
(10.3755 -0.0149051 0)
(10.3808 0.00332207 0)
(10.3879 0.0194655 0)
(10.3947 0.0287116 0)
(10.4024 0.0298983 0)
(10.1122 -0.0601973 0)
(10.1139 -0.07122 0)
(10.17 -0.0723749 0)
(10.2548 -0.0717926 0)
(10.2904 -0.0840596 0)
(10.2575 -0.0961856 0)
(10.1917 -0.0890135 0)
(10.1321 -0.0611532 0)
(10.1013 -0.0270852 0)
(10.1074 -0.00268592 0)
(10.1438 0.00514131 0)
(10.1977 -0.000154496 0)
(10.2572 -0.0111218 0)
(10.3155 -0.0222517 0)
(10.3661 -0.0315951 0)
(10.4048 -0.0390548 0)
(10.4284 -0.04549 0)
(10.4369 -0.0501036 0)
(10.0699 -0.0114692 0)
(9.93473 -0.0321007 0)
(9.71639 -0.0742732 0)
(9.46722 -0.067857 0)
(9.24824 -0.0392733 0)
(9.06619 -0.0209246 0)
(8.91107 -0.0203823 0)
(8.78042 -0.0297339 0)
(8.67778 -0.0423776 0)
(8.59645 -0.0562489 0)
(8.51534 -0.0693537 0)
(8.4185 -0.0765524 0)
(8.30851 -0.0728987 0)
(8.202 -0.0578304 0)
(8.11253 -0.035509 0)
(8.04696 -0.0121197 0)
(8.00183 0.00729713 0)
(7.97341 0.0178663 0)
(-0.108744 0.450975 3.6245e-20)
(-0.345777 0.0946699 -3.59737e-20)
(-0.336121 -0.0973032 0)
(-0.00078717 -0.498176 0)
(0.502508 -0.644271 0)
(1.10459 -0.712457 3.47899e-20)
(1.70895 -0.718902 0)
(2.29789 -0.680458 0)
(2.85521 -0.617144 0)
(3.36262 -0.542783 0)
(3.8116 -0.463507 -3.25408e-20)
(4.19986 -0.383838 0)
(4.52757 -0.304598 0)
(4.79205 -0.223904 0)
(4.99412 -0.142359 0)
(5.12587 -0.0547742 -3.05213e-20)
(5.1901 0.037807 0)
(5.17084 0.141083 0)
(5.05261 0.254449 0)
(4.83238 0.375027 0)
(4.49125 0.520125 0)
(4.02979 0.648415 0)
(3.42951 0.802662 0)
(2.69631 0.86099 -2.93279e-20)
(1.90559 0.795516 2.92176e-20)
(1.10197 0.686413 -2.90529e-20)
(0.520053 0.195955 -2.88564e-20)
(0.120071 -0.27195 0)
(-0.0625382 -0.309049 0)
(-0.0450119 -0.217662 2.82328e-20)
(0.0239296 -0.191039 2.80204e-20)
(0.147886 -0.231859 0)
(0.410022 -0.27427 0)
(0.823082 -0.279283 2.73082e-20)
(1.27558 -0.272784 0)
(1.4839 -0.906599 0)
(1.33008 -1.42907 -2.66346e-20)
(1.10636 -0.733719 0)
(0.151287 0.966974 -2.62641e-20)
(-1.48468 1.37828 -5.20817e-20)
(-2.79096 1.17377 0)
(-3.95428 1.02484 0)
(-4.96431 0.873248 0)
(-5.8512 0.747185 0)
(-6.61913 0.633942 0)
(-7.28763 0.538492 -4.44857e-20)
(-7.86332 0.455219 -4.31691e-20)
(-8.35806 0.383622 -4.19301e-20)
(-8.77765 0.320292 0)
(-9.12881 0.263692 3.97316e-20)
(-9.41525 0.211695 0)
(-9.64025 0.163164 -3.7953e-20)
(-9.80581 0.117322 -3.72299e-20)
(-9.91368 0.0740559 0)
(-9.96474 0.033574 0)
(-9.9599 -0.00427436 0)
(-9.9059 -0.0402961 -3.54213e-20)
(-9.80044 -0.0751083 0)
(-9.64708 -0.109098 0)
(-9.44489 -0.142447 0)
(-9.19565 -0.174854 0)
(-8.89972 -0.206453 0)
(-8.55813 -0.237 0)
(-8.1719 -0.266434 0)
(-7.74209 -0.294593 0)
(-7.26992 -0.321306 3.60064e-20)
(-6.75659 -0.346463 0)
(-6.20336 -0.369985 0)
(-5.61138 -0.391866 -3.67386e-20)
(-4.98169 -0.412088 -3.69486e-20)
(-4.3151 -0.430436 0)
(-3.61204 -0.446158 3.72321e-20)
(-2.87336 -0.45815 -3.72693e-20)
(-2.10415 -0.466098 0)
(-1.31872 -0.471122 3.70415e-20)
(-0.532077 -0.467583 0)
(0.250195 -0.44172 0)
(0.930091 -0.41688 -3.58045e-20)
(1.52821 -0.310204 0)
(1.8913 -0.160582 3.48245e-20)
(2.01935 0.0190501 0)
(1.77589 0.20941 -3.44336e-20)
(1.13477 0.340048 -3.44763e-20)
(0.274581 0.382731 -3.46173e-20)
(-0.491585 0.253133 -6.90624e-20)
(-0.762374 0.0589758 6.86307e-20)
(-0.779278 0.144269 0)
(-0.677532 -0.0940017 0)
(-0.0551311 -0.291414 0)
(0.0251079 -0.37689 6.6431e-20)
(0.154698 -0.534057 6.57938e-20)
(0.130886 -0.124763 -6.52067e-20)
(-0.232444 0.248071 0)
(-0.596933 0.175407 6.3965e-20)
(-0.843589 0.127491 6.32196e-20)
(-1.09442 0.108679 6.24119e-20)
(-1.34677 0.105678 0)
(-1.64479 0.123789 0)
(-2.02156 0.170444 0)
(-2.50451 0.238312 5.86207e-20)
(-3.09697 0.304351 0)
(-3.7623 0.344409 0)
(-4.43792 0.347295 -5.51097e-20)
(-5.07185 0.322355 0)
(-5.6448 0.288787 0)
(-6.1659 0.261688 -5.10347e-20)
(-6.65902 0.247519 0)
(-7.15063 0.246197 0)
(-7.663 0.254038 4.63976e-20)
(-8.20964 0.265881 4.46778e-20)
(-8.79201 0.275613 0)
(-9.39731 0.276431 -4.10731e-20)
(-9.99791 0.262318 0)
(-10.553 0.229368 3.7759e-20)
(-11.0133 0.176518 0)
(-11.3276 0.105393 3.57927e-20)
(-11.4502 0.0190823 3.56494e-20)
(-11.3491 -0.0738271 0)
(-11.0429 -0.160309 0)
(-10.5088 -0.243251 0)
(-9.76496 -0.316086 0)
(-8.83122 -0.377309 0)
(-7.74451 -0.422188 0)
(-6.555 -0.446695 0)
(-5.32129 -0.44915 4.92057e-20)
(-4.09701 -0.431844 -5.02626e-20)
(-2.92236 -0.399523 0)
(-1.83081 -0.357931 0)
(-0.848923 -0.310077 0)
(0.00734909 -0.259354 0)
(0.736264 -0.22348 -9.80396e-20)
(1.3472 -0.18097 0)
(1.8586 -0.144494 9.39703e-20)
(2.27888 -0.113756 -9.1891e-20)
(2.62311 -0.0884884 0)
(2.90533 -0.0679754 0)
(3.13695 -0.0509712 0)
(3.32589 -0.0361068 8.43258e-20)
(3.47613 -0.0224627 8.26679e-20)
(3.58886 -0.0100824 0)
(3.66563 -7.38947e-06 7.95838e-20)
(3.71142 0.00632892 7.81362e-20)
(3.73473 0.00856603 -7.67391e-20)
(3.74472 0.00790096 0)
(3.74933 0.00456227 0)
(3.75641 -0.00117975 -7.27732e-20)
(3.77278 -0.00553329 0)
(3.79887 -0.00984212 0)
(3.83835 -0.0188905 0)
(3.89616 -0.0200388 0)
(3.94831 -0.00993005 6.64872e-20)
(3.97874 -0.0103433 6.51954e-20)
(3.99347 -0.00286747 0)
(3.93581 0.0304071 6.24746e-20)
(3.77198 0.0332614 0)
(3.57157 0.0221318 0)
(3.34543 0.0500246 5.8105e-20)
(3.12909 0.0160036 0)
(3.17828 -0.121183 5.64666e-20)
(3.68859 -0.194057 0)
(4.47861 -0.177334 0)
(5.34171 -0.288529 5.71481e-20)
(6.5212 -0.359162 0)
(7.76318 -0.110107 5.63633e-20)
(8.22335 -0.147796 0)
(9.08281 -0.306743 0)
(9.91579 0.491789 0)
(7.51996 1.01823 -5.4129e-20)
(4.26172 0.336021 0)
(2.85729 -0.154926 5.00617e-20)
(2.43477 -0.1179 0)
(2.32858 0.0137506 0)
(2.13948 0.0719164 0)
(1.7802 0.10647 0)
(1.22468 0.156565 0)
(0.454944 0.197907 0)
(-0.406603 0.189107 0)
(-1.13699 0.141102 -6.73815e-20)
(-1.55424 0.0223628 0)
(-1.56333 -0.0969437 0)
(0.0379262 0.435092 -1.08651e-19)
(0.120064 0.321019 1.07851e-19)
(0.699124 -0.542268 0)
(1.33011 -1.2825 -7.03544e-20)
(1.91363 -1.70535 0)
(2.43737 -1.86977 -3.45928e-20)
(2.89932 -1.86253 6.78939e-20)
(3.30839 -1.75606 6.70423e-20)
(3.67177 -1.60163 0)
(3.99427 -1.43009 6.52973e-20)
(4.28261 -1.25367 3.24658e-20)
(4.53908 -1.07576 0)
(4.76135 -0.897549 0)
(4.94987 -0.71609 0)
(5.09896 -0.52898 0)
(5.21324 -0.332795 3.05076e-20)
(5.27771 -0.122617 0)
(5.2996 0.10028 -5.94548e-20)
(5.28187 0.339998 0)
(5.21285 0.603615 0)
(5.08634 0.88074 5.83275e-20)
(4.89148 1.17247 0)
(4.61536 1.46802 -5.7928e-20)
(4.28522 1.67158 2.91624e-20)
(3.82877 1.82419 -2.90233e-20)
(3.36308 1.70879 2.88408e-20)
(2.84635 1.36679 2.86456e-20)
(2.21351 1.22644 0)
(1.932 0.615384 0)
(1.52564 0.0094433 -2.81081e-20)
(1.27775 -0.164559 2.80807e-20)
(1.56036 -0.489548 0)
(2.00851 -0.770138 0)
(1.82672 -1.44196 -2.72598e-20)
(1.14403 -0.88661 0)
(-0.0426411 0.939457 0)
(-1.99829 2.13559 2.6576e-20)
(-3.40171 2.62801 0)
(-4.33803 2.91058 -2.52688e-20)
(-5.27576 2.74145 5.15186e-20)
(-5.97254 2.47803 0)
(-6.65387 2.18495 0)
(-7.23527 1.91104 9.48217e-20)
(-7.76946 1.65669 9.23262e-20)
(-8.23552 1.43262 8.97909e-20)
(-8.65347 1.23226 -4.29793e-20)
(-9.01955 1.05437 4.30237e-20)
(-9.34203 0.893746 1.2437e-19)
(-9.62018 0.747405 -8.04036e-20)
(-9.85669 0.611825 -3.96516e-20)
(-10.0513 0.484485 0)
(-10.2051 0.363412 3.78986e-20)
(-10.3186 0.24728 -3.64777e-20)
(-10.3923 0.135631 0)
(-10.4267 0.0287754 0)
(-10.4224 -0.0736647 0)
(-10.3745 -0.172837 3.53847e-20)
(-10.2863 -0.268642 0)
(-10.1557 -0.361532 -6.96261e-20)
(-9.98528 -0.451443 0)
(-9.77485 -0.538203 -6.96474e-20)
(-9.52582 -0.621834 0)
(-9.23878 -0.702136 7.01328e-20)
(-8.91423 -0.77901 0)
(-8.55248 -0.852278 -7.09226e-20)
(-8.15336 -0.921856 3.54637e-20)
(-7.71644 -0.987872 0)
(-7.24075 -1.05078 7.23346e-20)
(-6.72493 -1.11143 3.66278e-20)
(-6.16722 -1.17103 3.68305e-20)
(-5.5656 -1.23071 0)
(-4.91848 -1.29014 3.66483e-20)
(-4.22669 -1.34544 3.71324e-20)
(-3.49581 -1.38742 0)
(-2.73712 -1.40139 -3.69e-20)
(-1.96997 -1.37056 7.28799e-20)
(-1.22992 -1.28287 0)
(-0.555997 -1.11422 3.57904e-20)
(-0.00167945 -0.824157 0)
(0.424984 -0.364897 -1.04441e-19)
(0.549334 0.15029 0)
(0.564807 0.709018 1.03219e-19)
(0.29237 1.17825 3.45067e-20)
(-0.263712 1.21019 -3.4465e-20)
(-0.868389 0.825456 -6.89028e-20)
(-1.05689 0.272669 6.86362e-20)
(-0.825477 -0.198152 0)
(-0.296266 -0.728355 0)
(-0.482599 -0.435544 0)
(-0.984125 0.160243 -1.99017e-19)
(-1.71828 0.458951 -6.56198e-20)
(-2.07609 0.473709 6.4987e-20)
(-2.32071 0.46634 0)
(-2.57635 0.405523 6.37988e-20)
(-2.81245 0.384218 -6.30108e-20)
(-3.08278 0.387885 -6.22031e-20)
(-3.39177 0.438881 0)
(-3.76187 0.531413 0)
(-4.19469 0.652908 0)
(-4.67311 0.766815 -5.83999e-20)
(-5.16665 0.838145 0)
(-5.63625 0.848161 1.12087e-19)
(-6.05728 0.80327 1.64563e-19)
(-6.42404 0.730236 -1.07076e-19)
(-6.75038 0.659041 0)
(-7.05843 0.609891 -5.08206e-20)
(-7.37206 0.590758 0)
(-7.71048 0.60008 -9.58868e-20)
(-8.08593 0.629594 4.62765e-20)
(-8.50362 0.666261 4.44884e-20)
(-8.96143 0.694263 0)
(-9.4472 0.697534 1.22686e-19)
(-9.9377 0.661899 -7.79569e-20)
(-10.398 0.577542 -3.77466e-20)
(-10.7828 0.439547 0)
(-11.0468 0.249176 -3.57982e-20)
(-11.1531 0.018122 -1.05813e-19)
(-11.0706 -0.231902 0)
(-10.7461 -0.48775 -7.34401e-20)
(-10.2003 -0.737688 -7.68586e-20)
(-9.43386 -0.966091 -8.11027e-20)
(-8.47158 -1.16024 0)
(-7.34873 -1.30501 0)
(-6.11701 -1.38671 0)
(-4.83928 -1.39886 4.87253e-20)
(-3.57344 -1.34835 5.02226e-20)
(-2.36206 -1.25009 0)
(-1.23904 -1.12242 1.01395e-19)
(-0.233563 -0.976702 1.00763e-19)
(0.634036 -0.842933 0)
(1.36416 -0.714447 9.78982e-20)
(1.97272 -0.593005 1.91506e-19)
(2.47296 -0.488044 -9.3862e-20)
(2.88113 -0.399921 -9.1518e-20)
(3.2162 -0.327723 0)
(3.49595 -0.269652 0)
(3.73472 -0.222605 0)
(3.94228 -0.182511 -8.42577e-20)
(4.12285 -0.145542 8.24722e-20)
(4.27581 -0.109979 1.61948e-19)
(4.39921 -0.0772137 -7.95195e-20)
(4.49451 -0.0499969 7.80067e-20)
(4.56656 -0.0300148 7.6674e-20)
(4.62046 -0.0178957 0)
(4.66234 -0.0129588 0)
(4.69749 -0.0146198 -7.26929e-20)
(4.7298 -0.0224763 0)
(4.76907 -0.0319866 0)
(4.81595 -0.0412982 1.37881e-19)
(4.85923 -0.0490187 0)
(4.9027 -0.0423509 6.64502e-20)
(4.93413 -0.0190918 -6.51387e-20)
(4.91191 0.0190309 0)
(4.81054 0.0888963 6.24261e-20)
(4.59466 0.173964 0)
(4.20611 0.228763 0)
(3.71551 0.226807 -5.80671e-20)
(3.34465 0.113977 1.13427e-19)
(3.27108 -0.160801 -5.64562e-20)
(3.58174 -0.509092 0)
(4.36742 -0.715341 0)
(5.48859 -0.813955 5.66739e-20)
(6.4993 -0.935838 0)
(7.62416 -0.789255 5.58956e-20)
(8.80807 -0.476251 0)
(9.2495 -0.463731 0)
(10.0059 0.126562 0)
(10.5557 1.47293 5.39309e-20)
(9.87501 1.96632 0)
(7.64175 1.18554 -4.98031e-20)
(5.13674 0.349442 0)
(3.87818 0.127679 0)
(3.35568 0.197512 9.37403e-20)
(2.9175 0.314445 -9.08561e-20)
(2.31995 0.457989 0)
(1.49608 0.569762 0)
(0.618884 0.539138 0)
(-0.0956243 0.399384 2.01235e-19)
(-0.484715 0.177851 0)
(-0.645602 -0.0152471 -1.18509e-19)
(0.0225337 0.231958 7.99448e-24)
(0.707927 -1.27352 -1.43346e-19)
(1.42306 -2.36998 0)
(1.97876 -2.90461 1.39876e-19)
(2.35691 -2.99202 0)
(2.60041 -2.81758 0)
(2.76356 -2.5355 -5.28035e-22)
(2.90255 -2.23635 -6.70744e-20)
(3.04742 -1.96202 -6.57428e-20)
(3.21002 -1.72203 -6.54014e-20)
(3.39018 -1.50389 0)
(3.57653 -1.29158 0)
(3.75297 -1.07939 6.24513e-20)
(3.91438 -0.86256 1.23352e-19)
(4.05648 -0.634181 -1.21893e-19)
(4.16835 -0.388529 0)
(4.23744 -0.124857 -1.19379e-19)
(4.26559 0.151832 5.9617e-20)
(4.26799 0.450496 0)
(4.24927 0.773699 -1.16413e-19)
(4.21238 1.12576 -5.84134e-20)
(4.14442 1.5088 1.15127e-19)
(4.04434 1.86375 5.79553e-20)
(3.89653 2.20054 0)
(3.66838 2.41632 -1.14274e-19)
(3.41786 2.39852 -1.14195e-19)
(3.02186 2.42569 0)
(2.77846 1.71517 -1.13983e-19)
(2.41349 0.797616 0)
(1.8796 0.928265 -1.13168e-19)
(1.92283 -0.0269668 -5.59448e-20)
(1.67646 -1.5653 0)
(0.916241 -0.558623 0)
(-0.870807 1.61236 0)
(-2.54296 2.74168 0)
(-3.73466 3.50522 0)
(-4.83532 3.81366 0)
(-5.55207 3.90945 -1.02006e-19)
(-6.0979 3.85467 1.51271e-19)
(-6.53827 3.60428 0)
(-6.91786 3.29497 0)
(-7.30623 2.94575 0)
(-7.683 2.61751 -2.23138e-21)
(-8.06387 2.30704 -9.21743e-20)
(-8.43169 2.02848 -1.77459e-19)
(-8.78464 1.77311 1.7266e-19)
(-9.11298 1.54048 8.3202e-20)
(-9.41254 1.32453 -8.24954e-20)
(-9.67857 1.1226 1.36251e-21)
(-9.90866 0.93128 -7.71023e-20)
(-10.1006 0.748657 0)
(-10.2532 0.573126 -7.38774e-20)
(-10.3655 0.403444 1.07492e-21)
(-10.4364 0.238596 0)
(-10.4664 0.0777689 0)
(-10.4574 -0.0787108 6.9859e-20)
(-10.41 -0.230415 0)
(-10.3251 -0.377046 0)
(-10.2044 -0.518136 -6.80308e-20)
(-10.0493 -0.653773 -1.37578e-19)
(-9.86151 -0.784176 6.96053e-20)
(-9.64236 -0.909573 0)
(-9.39285 -1.03046 -7.0073e-20)
(-9.11337 -1.14734 0)
(-8.80363 -1.26084 -6.95347e-20)
(-8.46261 -1.3717 -7.12888e-20)
(-8.08854 -1.4808 1.42187e-19)
(-7.6789 -1.58915 7.08789e-20)
(-7.23071 -1.69781 0)
(-6.74089 -1.80769 -1.4472e-19)
(-6.20661 -1.9188 0)
(-5.62564 -2.02866 -2.19368e-19)
(-4.99789 -2.12964 -1.45989e-19)
(-4.32924 -2.20597 -1.45852e-19)
(-3.63563 -2.23291 1.45314e-19)
(-2.94261 -2.18156 -2.17011e-19)
(-2.2821 -2.0255 0)
(-1.69939 -1.7441 0)
(-1.25176 -1.31531 1.39823e-19)
(-0.906142 -0.695966 2.08025e-19)
(-0.717644 -0.0625368 0)
(-0.716276 0.611595 -6.87135e-20)
(-0.835615 1.3433 0)
(-1.12902 1.59029 2.06617e-19)
(-1.50535 1.0356 1.12462e-22)
(-1.4372 0.0245684 -9.41408e-24)
(-1.22058 -0.672692 -1.36129e-19)
(-1.38498 -0.377118 0)
(-2.12604 0.519813 1.33691e-19)
(-2.40579 0.691576 -1.63594e-22)
(-2.72505 0.642906 0)
(-2.8243 0.654923 0)
(-2.98636 0.647326 0)
(-3.09831 0.607929 -1.27408e-19)
(-3.25385 0.604095 0)
(-3.44487 0.64924 0)
(-3.69921 0.744402 0)
(-4.01111 0.878003 0)
(-4.36341 1.02045 0)
(-4.71811 1.13161 -1.16584e-19)
(-5.0442 1.17605 0)
(-5.32078 1.14403 -1.12078e-19)
(-5.54853 1.05638 -1.09643e-19)
(-5.74227 0.951431 1.07133e-19)
(-5.92538 0.865215 0)
(-6.12194 0.819785 1.01857e-19)
(-6.35456 0.822272 0)
(-6.64256 0.867527 9.59785e-20)
(-7.00169 0.94134 -9.27053e-20)
(-7.44325 1.02373 -2.67154e-19)
(-7.96987 1.09277 0)
(-8.56994 1.12633 -2.43629e-19)
(-9.21271 1.10075 -7.59349e-20)
(-9.84572 0.99244 0)
(-10.3984 0.783098 -1.40758e-19)
(-10.7939 0.473222 -1.37202e-19)
(-10.9685 0.0902232 2.06618e-19)
(-10.8941 -0.3355 0)
(-10.5656 -0.789928 7.34165e-20)
(-9.99103 -1.22811 7.68142e-20)
(-9.19003 -1.62883 2.39854e-19)
(-8.18995 -1.96736 0)
(-7.02848 -2.21967 0)
(-5.75952 -2.36205 0)
(-4.45026 -2.38281 9.6247e-20)
(-3.15961 -2.29492 0)
(-1.9246 -2.12362 0)
(-0.770256 -1.89914 -1.01322e-19)
(0.269013 -1.65264 -1.00647e-19)
(1.1766 -1.41537 0)
(1.95169 -1.17873 0)
(2.58828 -0.962192 -1.9125e-19)
(3.09244 -0.777825 0)
(3.47935 -0.629027 1.83119e-19)
(3.77195 -0.513118 1.78712e-19)
(3.99694 -0.424392 0)
(4.17998 -0.355713 0)
(4.34116 -0.298733 -1.67979e-19)
(4.49103 -0.245616 -2.27548e-22)
(4.62958 -0.192727 -1.85642e-22)
(4.75093 -0.142845 0)
(4.85117 -0.101926 -3.11895e-19)
(4.93204 -0.0725512 0)
(4.99742 -0.0536753 0)
(5.05016 -0.0444738 0)
(5.09571 -0.0441954 1.45334e-19)
(5.14097 -0.0514382 0)
(5.1891 -0.0623776 -2.80628e-19)
(5.24033 -0.0732183 -1.37816e-19)
(5.28705 -0.0760675 0)
(5.31326 -0.0577394 -1.32821e-19)
(5.30008 -0.01725 0)
(5.21748 0.0650053 0)
(5.02663 0.209089 -3.74406e-19)
(4.68151 0.378681 2.43524e-19)
(4.12923 0.526342 0)
(3.43038 0.553587 2.30156e-19)
(2.87128 0.294116 -1.1344e-19)
(2.80087 -0.239389 0)
(3.28879 -0.81939 0)
(4.13112 -1.23882 0)
(5.23942 -1.44448 -3.39576e-19)
(6.43545 -1.48527 0)
(7.34161 -1.33335 -1.12132e-19)
(8.40051 -0.958983 0)
(9.35678 -0.702709 0)
(9.60811 -0.209196 0)
(10.3415 1.05268 0)
(11.329 2.1381 0)
(10.7793 2.24772 0)
(8.48552 1.61893 -1.9381e-19)
(6.09538 0.889748 0)
(4.68665 0.545097 -9.35638e-20)
(3.89183 0.567738 2.72636e-19)
(3.13069 0.800031 0)
(2.12517 1.00637 0)
(1.04419 0.968355 -1.46139e-19)
(0.143367 0.699393 -1.33766e-19)
(-0.349648 0.30077 1.22441e-19)
(-0.552682 -0.00272141 1.18521e-19)
(0.360512 -1.06928 2.16503e-19)
(0.979993 -2.88567 2.13771e-19)
(1.40607 -3.43108 1.40472e-19)
(1.60995 -3.3545 6.89803e-20)
(1.69082 -2.98925 0)
(1.72809 -2.60897 -1.35756e-19)
(1.80397 -2.35208 6.67172e-20)
(1.95448 -2.19747 0)
(2.15584 -2.09546 6.58806e-20)
(2.38614 -1.99475 0)
(2.62421 -1.85631 -1.2758e-19)
(2.84882 -1.66852 0)
(3.04438 -1.44699 -6.2549e-20)
(3.20598 -1.19695 -1.23553e-19)
(3.33027 -0.904946 1.22112e-19)
(3.39831 -0.575088 0)
(3.4029 -0.237789 1.19573e-19)
(3.37227 0.0954764 0)
(3.33237 0.4384 0)
(3.2821 0.789662 1.1662e-19)
(3.21863 1.16838 0)
(3.14188 1.59011 -9.10131e-22)
(3.05499 2.01661 0)
(2.9614 2.43031 0)
(2.85697 2.71366 7.74137e-22)
(2.66809 2.75173 1.14362e-19)
(2.43634 2.47298 1.13867e-19)
(2.08402 2.24164 1.14091e-19)
(1.47845 2.10567 0)
(1.44153 0.704224 2.2668e-19)
(1.20778 0.03952 0)
(-0.562263 1.59791 1.11597e-19)
(-2.23713 2.94481 0)
(-3.60042 3.9236 0)
(-4.63085 4.4388 -1.05591e-19)
(-5.37412 4.72248 0)
(-5.92357 4.73034 1.01802e-19)
(-6.31671 4.63089 1.725e-21)
(-6.66326 4.41837 -1.98176e-19)
(-6.98182 4.1323 1.92387e-19)
(-7.30249 3.8111 0)
(-7.62583 3.4715 0)
(-7.95035 3.13936 8.76834e-20)
(-8.27233 2.81545 0)
(-8.58573 2.50936 8.76936e-20)
(-8.88386 2.21775 -8.53921e-20)
(-9.16142 1.94182 -8.3143e-20)
(-9.41283 1.67808 0)
(-9.63441 1.42495 7.89575e-20)
(-9.82238 1.1803 7.70815e-20)
(-9.97433 0.942962 -1.47658e-19)
(-10.0885 0.711875 7.38699e-20)
(-10.1644 0.486733 7.25614e-20)
(-10.2019 0.26777 0)
(-10.1999 0.0548412 0)
(-10.1592 -0.152171 -6.98929e-20)
(-10.082 -0.351275 0)
(-9.96989 -0.542238 0)
(-9.82533 -0.724445 1.37688e-19)
(-9.65116 -0.897855 1.37633e-19)
(-9.45 -1.06287 0)
(-9.22452 -1.22024 0)
(-8.97695 -1.37125 0)
(-8.70898 -1.51752 0)
(-8.42175 -1.66093 1.40391e-19)
(-8.11582 -1.80342 -1.39752e-19)
(-7.79119 -1.94691 -1.42166e-19)
(-7.44733 -2.09313 -2.84564e-19)
(-7.0833 -2.24358 0)
(-6.69764 -2.39928 1.5761e-21)
(-6.28762 -2.55992 0)
(-5.84797 -2.72164 1.45602e-19)
(-5.37062 -2.87289 1.53132e-21)
(-4.84822 -2.98955 1.45563e-19)
(-4.28121 -3.0336 -1.44989e-19)
(-3.68475 -2.9602 1.03893e-21)
(-3.0937 -2.73202 0)
(-2.56399 -2.32865 -1.40545e-19)
(-2.15395 -1.74308 -1.39521e-19)
(-1.87447 -0.968739 -2.76639e-19)
(-1.69782 -0.0562001 0)
(-1.65984 0.837075 1.37515e-19)
(-1.7163 1.59105 0)
(-1.75044 1.84572 -2.75086e-19)
(-1.8265 1.1113 1.375e-19)
(-1.66966 0.0454727 -1.37089e-19)
(-1.66151 -0.370416 1.36042e-19)
(-2.18052 0.255209 2.70334e-19)
(-2.57913 0.774789 -1.33501e-19)
(-2.67206 0.819269 1.32423e-19)
(-2.74766 0.749005 0)
(-2.73193 0.746152 -2.60711e-19)
(-2.80145 0.720037 0)
(-2.84807 0.709891 -2.55487e-19)
(-2.97001 0.747891 2.52582e-19)
(-3.12089 0.841733 2.49401e-19)