/*--------------------------------*- C++ -*----------------------------------*\
| =========                 |                                                 |
| \\      /  F ield         | OpenFOAM: The Open Source CFD Toolbox           |
|  \\    /   O peration     | Version:  2112                                  |
|   \\  /    A nd           | Website:  www.openfoam.com                      |
|    \\/     M anipulation  |                                                 |
\*---------------------------------------------------------------------------*/
FoamFile
{
    version     2.0;
    format      ascii;
    arch        "LSB;label=32;scalar=64";
    class       volScalarField;
    location    "0.37";
    object      kU_0;
}
// * * * * * * * * * * * * * * * * * * * * * * * * * * * * * * * * * * * * * //

dimensions      [0 2 -2 0 0 0 0];

internalField   nonuniform List<scalar> 
12225
(
0.124918
0.18343
0.218993
0.242654
0.256559
0.263509
0.265884
0.264397
0.259095
0.249796
0.236344
0.218829
0.19777
0.174247
0.149733
0.126847
0.108742
0.185946
0.0408484
0.0462546
0.0518248
0.0574765
0.0631353
0.0689545
0.0752604
0.0823698
0.0905185
0.0998598
0.110469
0.122339
0.135397
0.149494
0.164499
0.179862
0.196217
0.213721
0.0375806
0.038242
0.0391844
0.0401658
0.0407555
0.0410363
0.0412099
0.041543
0.0423256
0.0438483
0.0463886
0.050202
0.0555182
0.0625497
0.0714938
0.082504
0.095772
0.111557
0.0373118
0.0371567
0.0371029
0.0371857
0.0373953
0.0376556
0.0379241
0.0381282
0.0382038
0.0381601
0.0380721
0.0380823
0.0383892
0.0392247
0.040827
0.04343
0.0472527
0.0526706
0.0373064
0.0371138
0.0369317
0.0367669
0.036626
0.0365117
0.0364246
0.0363612
0.0363133
0.0362719
0.0362282
0.0361773
0.0361225
0.0360832
0.0361039
0.0362592
0.0366645
0.0374828
0.0373036
0.0371089
0.0369201
0.0367405
0.0365718
0.0364151
0.0362714
0.0361411
0.0360216
0.035907
0.0357884
0.0356573
0.0355102
0.0353523
0.0351958
0.0350554
0.0349493
0.0349029
0.0373016
0.0371068
0.0369181
0.0367382
0.036568
0.036408
0.0362594
0.0361237
0.0360018
0.0358934
0.0357961
0.0357042
0.0356094
0.0355016
0.0353723
0.0352169
0.0350369
0.0348373
0.0373002
0.0371058
0.036918
0.0367388
0.0365694
0.0364101
0.0362617
0.0361257
0.0360032
0.0358949
0.0358009
0.0357205
0.0356516
0.0355909
0.0355344
0.0354772
0.0354151
0.0353378
0.0372993
0.0371053
0.0369184
0.0367403
0.0365719
0.0364137
0.0362664
0.0361311
0.0360088
0.0359003
0.0358061
0.0357263
0.0356605
0.0356086
0.0355706
0.0355471
0.0355392
0.0355388
0.0372986
0.037105
0.0369191
0.036742
0.0365747
0.0364175
0.0362713
0.0361368
0.0360151
0.035907
0.0358129
0.0357332
0.0356681
0.035618
0.0355839
0.0355674
0.0355713
0.0355884
0.0372981
0.0371047
0.0369196
0.0367435
0.0365771
0.036421
0.0362757
0.036142
0.0360209
0.035913
0.0358191
0.0357395
0.0356748
0.0356255
0.035593
0.0355788
0.0355858
0.0356061
0.0372977
0.0371044
0.0369199
0.0367445
0.0365789
0.0364236
0.0362791
0.036146
0.0360253
0.0359176
0.0358236
0.035744
0.0356792
0.0356302
0.0355981
0.0355846
0.0355922
0.0356128
0.0372973
0.037104
0.0369199
0.0367451
0.0365802
0.0364256
0.0362817
0.0361492
0.0360289
0.0359213
0.0358273
0.0357475
0.0356825
0.0356332
0.0356009
0.035587
0.0355937
0.0356138
0.0372969
0.0371035
0.0369196
0.0367454
0.0365812
0.0364272
0.036284
0.0361521
0.0360321
0.0359247
0.0358306
0.0357504
0.0356849
0.035635
0.0356016
0.0355862
0.0355907
0.03561
0.0372964
0.0371028
0.0369191
0.0367453
0.0365816
0.0364283
0.0362858
0.0361545
0.036035
0.0359279
0.0358337
0.0357532
0.0356871
0.035636
0.0356011
0.0355833
0.0355843
0.0356034
0.0372958
0.0371018
0.0369181
0.0367446
0.0365814
0.0364288
0.036287
0.0361565
0.0360376
0.0359309
0.035837
0.0357563
0.0356895
0.0356372
0.0356002
0.0355792
0.0355755
0.0355888
0.0372951
0.0371005
0.0369165
0.0367431
0.0365803
0.0364283
0.0362874
0.0361577
0.0360397
0.0359337
0.0358401
0.0357594
0.035692
0.0356383
0.0355989
0.0355742
0.0355649
0.0355706
0.0372941
0.0370987
0.0369143
0.0367409
0.0365785
0.0364272
0.0362873
0.0361588
0.036042
0.0359371
0.0358444
0.035764
0.0356963
0.0356413
0.0355995
0.0355708
0.0355556
0.0355533
0.0372928
0.0370965
0.0369114
0.036738
0.0365761
0.0364257
0.0362871
0.0361601
0.0360449
0.0359415
0.03585
0.0357703
0.0357025
0.0356465
0.0356023
0.0355697
0.0355487
0.0355384
0.0372917
0.0370946
0.0369093
0.036736
0.0365748
0.0364256
0.0362884
0.0361631
0.0360497
0.0359479
0.0358578
0.0357791
0.0357116
0.0356552
0.0356094
0.0355741
0.035549
0.0355332
0.0372911
0.0370936
0.0369084
0.0367359
0.0365758
0.0364279
0.0362923
0.0361688
0.036057
0.0359569
0.035868
0.0357902
0.0357232
0.0356664
0.0356197
0.0355825
0.0355544
0.0355348
0.0372908
0.0370934
0.0369089
0.0367374
0.0365786
0.0364323
0.0362986
0.0361772
0.0360677
0.0359697
0.035883
0.035807
0.0357415
0.0356858
0.0356395
0.035602
0.0355729
0.0355514
0.0372908
0.0370941
0.0369108
0.0367407
0.0365833
0.0364387
0.0363064
0.0361863
0.0360779
0.035981
0.035895
0.0358196
0.0357542
0.0356984
0.0356515
0.0356131
0.0355825
0.0355591
0.0372914
0.0370957
0.0369138
0.0367455
0.0365905
0.0364488
0.03632
0.0362036
0.036099
0.0360057
0.0359232
0.035851
0.0357885
0.035735
0.03569
0.0356527
0.0356227
0.0355992
0.0372925
0.0370984
0.0369178
0.0367496
0.036594
0.0364514
0.0363216
0.0362042
0.0360987
0.0360047
0.0359217
0.035849
0.035786
0.0357321
0.0356867
0.035649
0.0356186
0.0355944
0.0372944
0.0371044
0.0369305
0.0367707
0.0366247
0.0364925
0.0363737
0.0362678
0.0361745
0.0360932
0.036023
0.0359632
0.0359127
0.0358708
0.0358365
0.0358091
0.0357881
0.0357731
0.0372972
0.0371075
0.0369408
0.0368032
0.0367023
0.0366431
0.0366263
0.0366477
0.0367008
0.0367638
0.0368322
0.0369023
0.0369717
0.0370387
0.0371023
0.0371621
0.0372177
0.0372687
0.0373532
0.0374894
0.037782
0.0381734
0.038613
0.039048
0.0394348
0.0396615
0.0397277
0.0396565
0.0394742
0.0392058
0.038874
0.0384977
0.0380923
0.0376706
0.0372424
0.0368194
0.0387107
0.0411168
0.0438527
0.0466885
0.0494551
0.0520009
0.0543334
0.0565122
0.0585984
0.0606417
0.0626773
0.0647279
0.0668061
0.0689178
0.0710646
0.0732473
0.0754687
0.0777366
0.0989984
0.145579
0.177715
0.201481
0.219962
0.232372
0.241777
0.249722
0.257001
0.264035
0.271063
0.278224
0.285606
0.293265
0.301232
0.309528
0.318137
0.327092
0.316952
0.303355
0.316404
0.340907
0.392846
0.453771
0.50979
0.52556
0.535102
0.544793
0.556852
0.573099
0.59524
0.625271
0.665512
0.708823
0.749696
0.786776
0.817146
0.832965
0.802026
0.700663
0.523041
0.293419
0.153416
0.146127
0.172221
0.211329
0.262702
0.29712
0.311086
0.314945
0.315135
0.298676
0.255108
0.202836
0.166893
0.165356
0.22182
0.371424
0.635788
0.866761
1.05689
1.21933
1.35207
1.45444
1.52713
1.57192
1.59127
1.58784
1.56499
1.5337
1.49527
1.45063
1.40052
1.34567
1.28675
1.22675
1.16835
1.1112
1.05511
1.00001
0.945882
0.89275
0.840645
0.789626
0.739792
0.691272
0.644236
0.598875
0.555392
0.513987
0.474865
0.438253
0.40442
0.373706
0.346564
0.323621
0.305786
0.294456
0.29194
0.302311
0.330765
0.370747
0.417178
0.470708
0.531286
0.598462
0.671722
0.75048
0.834057
0.921659
1.01235
1.10502
1.19826
1.29017
1.37747
1.45212
1.49927
1.51374
1.48993
1.4213
1.30342
1.13891
0.942789
0.743402
0.573982
0.456915
0.393247
0.367609
0.361779
0.363231
0.366066
0.369004
0.372432
0.376827
0.38233
0.388789
0.395988
0.403883
0.412728
0.423088
0.435792
0.451948
0.473044
0.501154
0.539092
0.589516
0.650428
0.706799
0.740937
0.752703
0.743231
0.714487
0.673658
0.630685
0.580439
0.515627
0.444719
0.381944
0.340982
0.341526
0.407548
0.540035
0.700389
0.84954
0.967696
1.03079
1.03881
1.01359
0.960506
0.884885
0.804273
0.727678
0.659327
0.604892
0.573674
0.583692
0.69993
0.929626
1.24169
1.60176
2.00229
2.4137
2.79043
3.0617
3.14788
3.07619
2.87194
2.56653
2.20935
1.85834
1.55472
1.30732
1.10446
0.93945
0.815232
0.727052
0.670282
0.614354
0.343343
0.206998
0.205368
0.359211
0.446975
0.46179
0.448973
0.427892
0.404266
0.379798
0.355793
0.333544
0.314054
0.297897
0.285486
0.284581
0.298782
0.327205
0.367256
0.414262
0.458404
0.486361
0.488478
0.460713
0.403514
0.327371
0.246991
0.20521
0.226403
0.26643
0.277652
0.257614
0.223016
0.243377
0.339781
0.510407
0.688307
0.7491
0.763421
0.77802
0.795609
0.796505
0.77858
0.744678
0.697995
0.642217
0.581074
0.51808
0.456474
0.399041
0.347987
0.304842
0.270256
0.24451
0.227595
0.219138
0.218481
0.221759
0.225501
0.229551
0.233779
0.238065
0.242289
0.246315
0.249979
0.253069
0.255761
0.257954
0.25952
0.260285
0.260051
0.258632
0.255889
0.251769
0.24634
0.239784
0.232405
0.224617
0.21689
0.209651
0.203209
0.197769
0.193811
0.190782
0.1884
0.186577
0.185085
0.183891
0.183327
0.183501
0.184489
0.186384
0.189326
0.193517
0.199266
0.207093
0.218124
0.235962
0.268239
0.310769
0.355755
0.397114
0.429985
0.45037
0.456215
0.448784
0.432905
0.414972
0.399733
0.388497
0.379693
0.370905
0.360524
0.348221
0.334932
0.321218
0.307427
0.293814
0.280547
0.267628
0.254861
0.241915
0.228493
0.214497
0.200102
0.186022
0.173389
0.164313
0.161992
0.171797
0.193207
0.209009
0.208868
0.196175
0.182274
0.17388
0.17797
0.198802
0.232148
0.274517
0.32332
0.375923
0.424829
0.456068
0.468935
0.462477
0.438982
0.404873
0.370741
0.346026
0.337439
0.348916
0.365447
0.378595
0.385385
0.382664
0.371211
0.350069
0.321424
0.296786
0.275905
0.261135
0.255484
0.261904
0.285321
0.3473
0.479056
0.634456
0.779022
0.897554
0.990056
1.06572
1.13188
1.18259
1.193
1.12637
0.963093
0.738689
0.530865
0.396614
0.328071
0.223209
0.436089
0.558957
0.529374
0.460306
0.396862
0.347747
0.310366
0.281051
0.257458
0.238323
0.222895
0.210624
0.201076
0.195047
0.194817
0.202361
0.219554
0.246675
0.280878
0.316044
0.345308
0.362649
0.361501
0.338744
0.303552
0.275546
0.297901
0.365169
0.398865
0.437066
0.532661
0.642485
0.713389
0.737043
0.718151
0.674741
0.628203
0.584207
0.539571
0.490487
0.438066
0.384983
0.334195
0.288366
0.249429
0.218373
0.195268
0.179436
0.169725
0.16479
0.163324
0.164212
0.166576
0.169775
0.173687
0.178046
0.182821
0.187999
0.193569
0.199526
0.205853
0.212518
0.219453
0.226534
0.233561
0.240233
0.24657
0.252392
0.25731
0.260866
0.262581
0.262035
0.258991
0.253464
0.245574
0.23573
0.224573
0.212837
0.201188
0.190517
0.182145
0.174799
0.168286
0.16251
0.157298
0.152622
0.148715
0.145562
0.143083
0.141187
0.139792
0.138838
0.138293
0.138159
0.13848
0.139351
0.140972
0.144006
0.150592
0.161507
0.175761
0.191829
0.207795
0.221698
0.232173
0.238859
0.24225
0.243208
0.242539
0.240874
0.238968
0.236855
0.234098
0.230711
0.226693
0.221967
0.216367
0.209681
0.201714
0.192383
0.181796
0.170298
0.158421
0.146807
0.136167
0.12718
0.120157
0.114751
0.110533
0.108598
0.110467
0.115643
0.126449
0.146729
0.178397
0.219427
0.263219
0.301786
0.331824
0.352495
0.361542
0.36199
0.356155
0.347385
0.340233
0.339021
0.345971
0.360191
0.378599
0.397413
0.415608
0.431486
0.442203
0.444012
0.435995
0.414521
0.375206
0.332721
0.291862
0.253228
0.218811
0.190185
0.16927
0.155971
0.149989
0.157364
0.180453
0.216067
0.261611
0.318407
0.39249
0.491037
0.613488
0.739753
0.823029
0.811034
0.684644
0.508386
0.220697
0.485687
0.626849
0.558486
0.456695
0.375068
0.318638
0.27965
0.25088
0.228234
0.209801
0.194657
0.182258
0.172256
0.164425
0.158943
0.156423
0.157726
0.164531
0.178595
0.200278
0.227558
0.257004
0.285165
0.308137
0.323373
0.335672
0.364807
0.438328
0.616793
0.772843
0.73397
0.705528
0.688063
0.651881
0.599062
0.539463
0.481027
0.427438
0.377939
0.330975
0.286419
0.245769
0.210672
0.182189
0.160519
0.14508
0.134814
0.128516
0.125075
0.123598
0.123441
0.124178
0.125554
0.127433
0.129879
0.132616
0.135627
0.138942
0.142615
0.146721
0.151357
0.156633
0.162666
0.16957
0.177438
0.18632
0.196195
0.20694
0.218284
0.229777
0.240761
0.25037
0.257585
0.261363
0.261812
0.258538
0.251614
0.241591
0.229359
0.215896
0.203279
0.192594
0.182672
0.173501
0.164923
0.156972
0.149898
0.143759
0.138552
0.134239
0.130751
0.128003
0.125899
0.124348
0.123272
0.122609
0.122306
0.122326
0.122654
0.123328
0.124539
0.126898
0.130675
0.135622
0.141298
0.147013
0.152009
0.155698
0.157808
0.158378
0.157679
0.156189
0.154678
0.153355
0.1521
0.15073
0.149044
0.146887
0.14417
0.140868
0.136997
0.132626
0.127884
0.122974
0.118185
0.113915
0.110577
0.108243
0.106343
0.104188
0.10232
0.103788
0.112981
0.133987
0.167896
0.209117
0.247689
0.276382
0.295218
0.308682
0.317681
0.323746
0.328324
0.332488
0.337538
0.344424
0.353463
0.364458
0.376982
0.390497
0.40392
0.419628
0.436938
0.453801
0.467
0.471168
0.462738
0.432306
0.383768
0.334649
0.286025
0.241104
0.203646
0.175046
0.154606
0.140923
0.132541
0.128211
0.127029
0.129243
0.137414
0.158472
0.202493
0.278434
0.386632
0.512566
0.623196
0.665811
0.600056
0.28801
0.66678
0.576719
0.448224
0.358181
0.30235
0.265907
0.239104
0.217478
0.199277
0.183716
0.170318
0.158824
0.149216
0.141581
0.135903
0.132737
0.132429
0.135884
0.144611
0.159947
0.18197
0.209851
0.243505
0.283396
0.333741
0.420186
0.595572
0.880788
0.928089
0.792643
0.690409
0.616489
0.551937
0.489112
0.429202
0.374293
0.325084
0.281173
0.241844
0.207043
0.177361
0.153394
0.135164
0.122091
0.113227
0.107534
0.104088
0.102173
0.101291
0.101124
0.10148
0.102251
0.103366
0.104775
0.106344
0.107819
0.10921
0.110558
0.111937
0.113457
0.11526
0.117521
0.12044
0.124239
0.129152
0.135409
0.143219
0.152727
0.163976
0.176841
0.190962
0.205682
0.220024
0.232734
0.24244
0.247926
0.248531
0.244316
0.236046
0.22487
0.213817
0.203367
0.193311
0.183754
0.17471
0.166173
0.158155
0.150702
0.143883
0.137773
0.132435
0.127896
0.124144
0.121129
0.118781
0.117017
0.115761
0.11495
0.114532
0.114466
0.114719
0.11528
0.116195
0.117618
0.119493
0.121629
0.123813
0.125808
0.127421
0.128569
0.12929
0.129714
0.130036
0.130369
0.13068
0.130887
0.130879
0.130543
0.129784
0.128538
0.126782
0.124538
0.121884
0.118968
0.116027
0.113391
0.111359
0.10989
0.108556
0.107219
0.10704
0.111378
0.12536
0.153226
0.192363
0.230366
0.25532
0.268003
0.277724
0.290044
0.302801
0.315652
0.327295
0.336513
0.342703
0.34618
0.348058
0.349773
0.35268
0.35777
0.365257
0.37766
0.394581
0.414849
0.436547
0.45619
0.467399
0.458904
0.418608
0.366923
0.312199
0.261258
0.21838
0.18499
0.160599
0.143801
0.132977
0.126641
0.123544
0.122725
0.123722
0.127462
0.1394
0.169368
0.22689
0.314515
0.423944
0.529683
0.577297
0.74103
0.682094
0.483681
0.365123
0.302858
0.266173
0.240144
0.218887
0.200337
0.183813
0.168937
0.155424
0.143247
0.132852
0.124867
0.119315
0.116714
0.116875
0.120063
0.127463
0.140785
0.161317
0.190215
0.230789
0.293742
0.407006
0.594455
0.875496
0.940931
0.796818
0.654135
0.550082
0.471194
0.406454
0.350788
0.302215
0.259698
0.222597
0.190607
0.163706
0.142003
0.125425
0.113523
0.105524
0.100529
0.0976952
0.0963428
0.0959799
0.0962798
0.0970355
0.0981146
0.099422
0.100878
0.102409
0.103904
0.104905
0.105385
0.105351
0.104853
0.103984
0.102881
0.101726
0.100733
0.100148
0.10024
0.101302
0.103644
0.107588
0.113454
0.121523
0.131994
0.14489
0.159948
0.176478
0.193271
0.208651
0.220754
0.228101
0.230086
0.227144
0.220665
0.213414
0.205773
0.198089
0.190535
0.183132
0.175835
0.168602
0.161427
0.154365
0.147522
0.141043
0.135074
0.129734
0.125097
0.121187
0.11798
0.115423
0.113449
0.11199
0.110987
0.11039
0.110153
0.11023
0.110581
0.11119
0.112059
0.113096
0.114189
0.115265
0.11628
0.117227
0.11812
0.11899
0.119858
0.120686
0.121415
0.121969
0.12227
0.12225
0.121851
0.121035
0.119786
0.118139
0.11621
0.114235
0.112556
0.111414
0.110669
0.110093
0.110204
0.112828
0.121471
0.14046
0.171888
0.20869
0.235989
0.247662
0.25363
0.265556
0.28444
0.303765
0.320847
0.332505
0.337174
0.335305
0.328804
0.320143
0.31178
0.305896
0.304155
0.307418
0.317021
0.332388
0.353094
0.378545
0.406951
0.433545
0.447872
0.429935
0.385459
0.331616
0.278101
0.231526
0.194502
0.167002
0.147728
0.135011
0.127262
0.123109
0.121427
0.121417
0.122821
0.126709
0.137883
0.164714
0.215894
0.29496
0.396824
0.492393
1.12508
0.632133
0.40587
0.318126
0.277077
0.251201
0.230002
0.210523
0.192648
0.176418
0.161337
0.1469
0.133001
0.120482
0.110719
0.105702
0.105494
0.108615
0.114611
0.124451
0.139898
0.163096
0.200227
0.264322
0.380154
0.561551
0.774083
0.868259
0.763519
0.613207
0.496448
0.411961
0.348234
0.297216
0.254486
0.217966
0.186862
0.160973
0.140243
0.124498
0.113345
0.106159
0.102165
0.10057
0.100669
0.1019
0.103852
0.10624
0.108864
0.111584
0.114286
0.116872
0.119245
0.121299
0.122515
0.122912
0.122423
0.121013
0.118703
0.115578
0.111793
0.107567
0.103172
0.0989154
0.0951337
0.0921784
0.0904107
0.0901947
0.0918945
0.0958741
0.102486
0.112034
0.124683
0.140246
0.157909
0.176057
0.192453
0.204722
0.211539
0.212972
0.21075
0.206904
0.202257
0.19731
0.19229
0.187232
0.182063
0.176672
0.170971
0.164931
0.158608
0.152132
0.145686
0.139466
0.133653
0.128386
0.123748
0.119774
0.116453
0.113744
0.111591
0.109937
0.108726
0.107906
0.107425
0.107232
0.107272
0.107502
0.107895
0.108404
0.108987
0.109618
0.110287
0.111001
0.111749
0.112495
0.113185
0.11376
0.114155
0.114318
0.114203
0.113784
0.113054
0.112063
0.11095
0.109988
0.109516
0.109643
0.110106
0.110959
0.113318
0.119393
0.132182
0.154281
0.184782
0.213847
0.229636
0.234532
0.242472
0.261823
0.2881
0.310644
0.325777
0.330925
0.326418
0.314498
0.298167
0.280638
0.26501
0.25381
0.248624
0.25011
0.257794
0.27098
0.289899
0.315221
0.347129
0.383423
0.416174
0.424962
0.395607
0.346784
0.292628
0.243195
0.203051
0.172905
0.151592
0.137366
0.12851
0.123534
0.121209
0.120612
0.121228
0.123165
0.128083
0.140906
0.169453
0.22183
0.302123
0.401482
1.31073
0.534267
0.350407
0.296962
0.26966
0.248336
0.227984
0.208754
0.191806
0.176656
0.161793
0.146476
0.130569
0.114878
0.105713
0.104968
0.109046
0.117227
0.128842
0.144789
0.167366
0.202362
0.261571
0.36004
0.504143
0.665046
0.751677
0.697092
0.569211
0.453567
0.369239
0.307947
0.261006
0.22299
0.19131
0.165075
0.144078
0.128164
0.116995
0.110025
0.106565
0.105865
0.10719
0.109894
0.11346
0.117507
0.121777
0.1261
0.13036
0.134459
0.138289
0.141726
0.144634
0.146901
0.148134
0.148429
0.14762
0.14558
0.142252
0.137669
0.131965
0.125363
0.118155
0.110678
0.103315
0.0964935
0.0906823
0.0863625
0.0839791
0.0839287
0.0865598
0.0922171
0.101302
0.114107
0.130417
0.148986
0.167658
0.183152
0.193453
0.198127
0.198908
0.197685
0.19544
0.192782
0.190002
0.18716
0.184178
0.1809
0.177164
0.172848
0.167906
0.162387
0.156427
0.150226
0.14401
0.137994
0.132353
0.127214
0.122653
0.118698
0.11534
0.112545
0.110261
0.108435
0.107013
0.105946
0.105189
0.104695
0.104421
0.104328
0.104387
0.104576
0.104879
0.105276
0.105743
0.10624
0.106719
0.107123
0.107398
0.107501
0.107406
0.107109
0.106647
0.106118
0.105731
0.105815
0.106687
0.108285
0.110269
0.112997
0.117932
0.127166
0.142341
0.164328
0.18993
0.209622
0.217722
0.222597
0.236997
0.264238
0.294958
0.315684
0.324178
0.320388
0.306624
0.286092
0.262402
0.23941
0.220531
0.207895
0.202182
0.203344
0.209633
0.220466
0.236407
0.258857
0.28954
0.328914
0.37265
0.404386
0.396387
0.35734
0.30509
0.253759
0.210831
0.178272
0.155194
0.139753
0.130059
0.124466
0.121634
0.120544
0.120559
0.121521
0.124039
0.130737
0.147086
0.181183
0.240789
0.32745
1.32385
0.431747
0.326573
0.294895
0.271616
0.250574
0.230433
0.212687
0.198107
0.185018
0.170816
0.155449
0.140605
0.129634
0.12621
0.127414
0.134263
0.145986
0.162447
0.185359
0.219266
0.271873
0.351338
0.458483
0.572259
0.637995
0.611815
0.519501
0.418175
0.3383
0.280248
0.236692
0.202266
0.174287
0.151815
0.134575
0.1223
0.114524
0.110611
0.109832
0.111433
0.114696
0.118993
0.12383
0.128864
0.133893
0.138822
0.143621
0.148278
0.152766
0.157019
0.160929
0.164329
0.166875
0.168779
0.169776
0.169567
0.167894
0.164586
0.159606
0.153073
0.145248
0.136474
0.127104
0.117469
0.107917
0.0989039
0.0910323
0.0849356
0.0812104
0.080266
0.0823459
0.0878207
0.0972566
0.111049
0.128412
0.147692
0.164983
0.177777
0.184741
0.18792
0.188676
0.188164
0.187138
0.18598
0.184802
0.183544
0.18205
0.180125
0.177586
0.1743
0.170212
0.165365
0.159889
0.153984
0.147886
0.141822
0.135988
0.130533
0.12556
0.121124
0.117244
0.113905
0.11107
0.108691
0.106722
0.105118
0.103844
0.102865
0.102149
0.101666
0.101387
0.101282
0.101322
0.101471
0.101685
0.101915
0.102106
0.102209
0.102187
0.102027
0.101757
0.101461
0.10131
0.101597
0.102719
0.104953
0.108082
0.111763
0.116578
0.123939
0.135129
0.150286
0.169205
0.188036
0.200084
0.205481
0.214473
0.236253
0.269284
0.300199
0.315363
0.315651
0.303537
0.282315
0.255602
0.227593
0.202562
0.183585
0.171791
0.166773
0.167983
0.173312
0.182325
0.195519
0.214398
0.241445
0.279099
0.32661
0.373312
0.387802
0.362737
0.315377
0.263424
0.218074
0.183205
0.158483
0.14201
0.131684
0.125662
0.122469
0.121011
0.120584
0.120901
0.122194
0.125859
0.135642
0.158182
0.201837
0.272926
1.25249
0.360058
0.32723
0.300689
0.276453
0.255153
0.236417
0.221296
0.209545
0.199145
0.188215
0.176786
0.166825
0.161083
0.158964
0.162088
0.171146
0.186213
0.208321
0.24017
0.285799
0.34846
0.425597
0.500908
0.543051
0.528291
0.465667
0.386213
0.315443
0.261333
0.220615
0.188823
0.16351
0.143759
0.12922
0.11951
0.114055
0.112142
0.112994
0.115841
0.119959
0.124728
0.129681
0.134526
0.139139
0.143527
0.147766
0.151954
0.156165
0.160421
0.164674
0.168801
0.172617
0.176132
0.179317
0.181782
0.183092
0.182817
0.180594
0.176215
0.169708
0.161383
0.151772
0.141435
0.130781
0.120031
0.10939
0.0993369
0.0905026
0.0837778
0.0798673
0.079028
0.0814407
0.0876958
0.0986797
0.113991
0.132499
0.150427
0.164228
0.173471
0.178667
0.181063
0.181901
0.182062
0.182031
0.181984
0.181903
0.18166
0.18107
0.179938
0.178091
0.175409
0.171843
0.167433
0.162302
0.156639
0.150671
0.144624
0.138699
0.133056
0.127809
0.123031
0.118758
0.114991
0.111707
0.10887
0.10644
0.104384
0.102674
0.101288
0.100202
0.0993928
0.0988308
0.098481
0.0983007
0.0982375
0.0982365
0.0982434
0.0982085
0.0980937
0.0978894
0.0976459
0.0974962
0.0976875
0.098606
0.100721
0.10428
0.108956
0.11443
0.121318
0.130509
0.141969
0.154993
0.169185
0.181642
0.189258
0.195663
0.210187
0.238195
0.273903
0.301444
0.309601
0.302362
0.283726
0.257203
0.226739
0.197016
0.172202
0.154503
0.144037
0.139756
0.141086
0.145965
0.153983
0.165385
0.18138
0.204528
0.238297
0.284635
0.338394
0.371416
0.362841
0.32328
0.272232
0.224942
0.187855
0.161531
0.14412
0.133292
0.126974
0.123544
0.121847
0.12115
0.121086
0.121678
0.12366
0.12963
0.144843
0.17698
0.23414
1.15123
0.331435
0.336767
0.308509
0.28292
0.261682
0.24464
0.231989
0.223
0.215988
0.209391
0.202895
0.197535
0.195409
0.195672
0.201565
0.213794
0.233203
0.261071
0.298812
0.346401
0.399316
0.445555
0.468247
0.456474
0.413957
0.355586
0.297329
0.248512
0.210379
0.180517
0.157007
0.139052
0.126271
0.118198
0.114169
0.113398
0.115061
0.118359
0.122556
0.127037
0.131349
0.135243
0.138658
0.141681
0.144481
0.147249
0.150159
0.153338
0.15686
0.160729
0.164858
0.169031
0.173596
0.178213
0.182477
0.185898
0.187917
0.187952
0.185493
0.180255
0.172359
0.162453
0.151461
0.140193
0.129024
0.117934
0.107203
0.097059
0.0884367
0.0823694
0.0794071
0.0795564
0.0832765
0.0917171
0.104887
0.121367
0.138507
0.153362
0.164239
0.1711
0.174946
0.176984
0.178151
0.178996
0.179753
0.18045
0.181003
0.181263
0.181062
0.18023
0.178623
0.176147
0.172771
0.16854
0.163571
0.158039
0.152154
0.146131
0.140164
0.134412
0.128992
0.123985
0.119436
0.115356
0.111736
0.108548
0.105764
0.103358
0.101314
0.099615
0.0982466
0.0971876
0.0964082
0.0958674
0.095516
0.0952978
0.0951484
0.095006
0.0948308
0.094625
0.0944485
0.0944652
0.09499
0.0965006
0.0995428
0.104355
0.11055
0.117819
0.126572
0.136773
0.147009
0.156616
0.165893
0.173693
0.179767
0.188971
0.208678
0.240829
0.276249
0.298475
0.299951
0.286811
0.263589
0.233717
0.201473
0.171724
0.14807
0.131769
0.12235
0.118706
0.120236
0.125041
0.132691
0.143195
0.157344
0.177396
0.207086
0.249927
0.304952
0.350116
0.358167
0.328696
0.28014
0.231496
0.192303
0.16439
0.146075
0.134809
0.128276
0.124708
0.122909
0.122146
0.122003
0.122331
0.123449
0.127055
0.137374
0.161182
0.206912
1.02733
0.342597
0.34805
0.317683
0.290341
0.268651
0.252468
0.241438
0.234564
0.230448
0.227808
0.22617
0.225989
0.226908
0.231416
0.241115
0.256893
0.279279
0.308089
0.341504
0.374827
0.400303
0.409674
0.398585
0.368901
0.327209
0.281788
0.239695
0.204434
0.1761
0.153757
0.136848
0.125041
0.117856
0.114582
0.114375
0.116362
0.119711
0.123671
0.127615
0.131091
0.133861
0.135894
0.137327
0.138393
0.139348
0.14043
0.141833
0.143701
0.146135
0.149179
0.15283
0.157295
0.16239
0.16786
0.173403
0.178597
0.182886
0.185604
0.186011
0.18341
0.177394
0.168324
0.157308
0.145655
0.134237
0.123053
0.112469
0.102184
0.0928785
0.0856026
0.0813581
0.0800808
0.0821382
0.0882781
0.0990154
0.113666
0.129956
0.145009
0.156821
0.164932
0.170041
0.173219
0.175363
0.177024
0.178455
0.179721
0.180779
0.181532
0.181855
0.181613
0.180676
0.178941
0.176344
0.172878
0.168597
0.163614
0.158093
0.152226
0.146209
0.140222
0.134415
0.128901
0.123761
0.119041
0.114759
0.110912
0.107484
0.104455
0.101809
0.099536
0.0976276
0.0960723
0.0948505
0.0939309
0.0932745
0.0928276
0.0925272
0.0923091
0.0921217
0.0919518
0.0918694
0.0920736
0.0929236
0.0949725
0.0988449
0.104803
0.112439
0.121403
0.131691
0.142125
0.150267
0.15618
0.161351
0.166376
0.172667
0.184999
0.208675
0.242713
0.275696
0.292296
0.28828
0.270984
0.244869
0.213216
0.180553
0.151614
0.129274
0.114098
0.105453
0.102464
0.104249
0.10909
0.116624
0.126757
0.139897
0.157825
0.18415
0.22311
0.275871
0.327148
0.349822
0.331712
0.287095
0.237732
0.196576
0.167079
0.147864
0.136185
0.12948
0.125854
0.124098
0.123497
0.123599
0.124091
0.124957
0.127154
0.134087
0.151675
0.188164
0.908592
0.352656
0.359121
0.327802
0.299014
0.276478
0.260204
0.249716
0.243957
0.241735
0.241978
0.243998
0.247799
0.25307
0.261575
0.27402
0.290518
0.310267
0.331188
0.3498
0.36181
0.363555
0.353449
0.332327
0.302753
0.268392
0.233505
0.201724
0.17488
0.153303
0.136884
0.125434
0.118548
0.115544
0.115561
0.117679
0.121023
0.124808
0.128384
0.131272
0.133206
0.134149
0.134257
0.133805
0.133104
0.132441
0.132048
0.132101
0.132738
0.13407
0.136192
0.139167
0.143377
0.148276
0.15374
0.159586
0.165526
0.171102
0.175714
0.178624
0.178961
0.175794
0.168836
0.158952
0.147615
0.136247
0.12507
0.114837
0.104973
0.0958814
0.088479
0.0835062
0.0812903
0.0821693
0.0868474
0.0959448
0.109044
0.124245
0.138911
0.151022
0.159918
0.166053
0.170303
0.173439
0.17594
0.178037
0.1798
0.181223
0.182253
0.182819
0.182834
0.182206
0.180852
0.178707
0.175743
0.171976
0.16747
0.162339
0.156736
0.150833
0.144808
0.138822
0.133008
0.127471
0.122284
0.11749
0.11311
0.109145
0.105585
0.102419
0.0996413
0.0972471
0.0952331
0.0935897
0.0922989
0.0913338
0.090651
0.0901949
0.0899035
0.0897224
0.089631
0.0896861
0.0900829
0.0912276
0.0937443
0.0983229
0.105282
0.114219
0.124683
0.136148
0.146265
0.152234
0.154925
0.157127
0.16075
0.167965
0.182955
0.2091
0.24307
0.27245
0.284038
0.276381
0.256227
0.228582
0.196315
0.164052
0.13622
0.115077
0.100817
0.0928516
0.0905866
0.092616
0.0973901
0.104745
0.114641
0.127291
0.143878
0.16774
0.203398
0.251816
0.305337
0.339276
0.332625
0.293072
0.243611
0.200653
0.169582
0.14946
0.137371
0.130521
0.126917
0.125363
0.12517
0.125844
0.126915
0.128061
0.129621
0.134205
0.14701
0.17592
0.793249
0.358501
0.368956
0.338594
0.309238
0.286068
0.269313
0.25866
0.253155
0.251752
0.25354
0.257758
0.263305
0.270769
0.280255
0.291521
0.303761
0.315488
0.324689
0.329285
0.32773
0.319377
0.304369
0.283369
0.257661
0.229451
0.201572
0.176463
0.155494
0.139175
0.127584
0.120488
0.117337
0.117335
0.11955
0.123043
0.126962
0.130597
0.133415
0.135083
0.135502
0.134796
0.133262
0.131269
0.12917
0.127245
0.125687
0.124628
0.124169
0.124438
0.125634
0.12802
0.131635
0.135913
0.140779
0.146166
0.151929
0.157705
0.162974
0.167109
0.169352
0.168646
0.164132
0.156271
0.146214
0.135504
0.125155
0.115356
0.10598
0.0972792
0.0900023
0.0848891
0.0823158
0.0826325
0.0865353
0.0946567
0.106655
0.120822
0.134783
0.146702
0.155939
0.162816
0.168015
0.172123
0.175495
0.178285
0.180546
0.182282
0.183483
0.184125
0.184172
0.183582
0.182307
0.180307
0.177557
0.17406
0.169855
0.165018
0.159662
0.153927
0.147971
0.141947
0.135995
0.130229
0.12474
0.119589
0.114814
0.110433
0.10645
0.102862
0.0996662
0.0968619
0.0944515
0.0924336
0.0908042
0.089549
0.0886388
0.0880296
0.0876668
0.0874976
0.0874964
0.0877092
0.0883204
0.0897315
0.0926069
0.0977387
0.105512
0.11555
0.127251
0.139569
0.149257
0.15347
0.153764
0.154009
0.156993
0.165189
0.182037
0.2092
0.241686
0.267128
0.274711
0.264851
0.243939
0.215305
0.183173
0.151746
0.125051
0.104938
0.0914952
0.0842563
0.0828368
0.0850184
0.089552
0.0965145
0.106011
0.118369
0.134151
0.156373
0.188502
0.233126
0.286486
0.328048
0.331915
0.298096
0.249079
0.204486
0.171862
0.15083
0.138331
0.131366
0.127878
0.126703
0.127171
0.12873
0.130754
0.132642
0.134234
0.137288
0.146378
0.168956
0.683209
0.357669
0.375232
0.348452
0.319946
0.296998
0.280048
0.269059
0.263202
0.261438
0.262804
0.266401
0.27147
0.277827
0.284911
0.292011
0.298208
0.30246
0.303797
0.301511
0.295185
0.284568
0.269503
0.250178
0.22758
0.203621
0.180575
0.160302
0.143882
0.131756
0.123945
0.120138
0.119737
0.121916
0.125714
0.130172
0.134447
0.137893
0.140071
0.140761
0.139978
0.137963
0.135112
0.131872
0.128629
0.125651
0.123074
0.120919
0.119179
0.118043
0.118305
0.120789
0.123852
0.127425
0.131505
0.136052
0.141119
0.146404
0.151421
0.155605
0.158331
0.158848
0.156393
0.150681
0.142371
0.132807
0.123165
0.11393
0.105146
0.0970419
0.0902502
0.085422
0.0829221
0.0831501
0.0868363
0.0945609
0.105901
0.119198
0.132318
0.143728
0.152959
0.160304
0.166278
0.171275
0.175488
0.178973
0.181732
0.183765
0.185086
0.185713
0.185657
0.184924
0.183511
0.18141
0.178621
0.175155
0.171044
0.166343
0.161138
0.155541
0.149679
0.143691
0.137706
0.131841
0.126189
0.120821
0.115788
0.111119
0.10683
0.102925
0.0994072
0.0962807
0.093551
0.0912233
0.0893055
0.0877966
0.0866822
0.0859323
0.0855038
0.08535
0.0854436
0.0858195
0.0866426
0.0882944
0.091439
0.0969264
0.105293
0.116186
0.12883
0.141741
0.151212
0.154354
0.153132
0.152161
0.154844
0.16377
0.181595
0.208563
0.238714
0.260443
0.265113
0.254166
0.233218
0.205382
0.174221
0.143789