/*--------------------------------*- C++ -*----------------------------------*\
| =========                 |                                                 |
| \\      /  F ield         | OpenFOAM: The Open Source CFD Toolbox           |
|  \\    /   O peration     | Version:  2112                                  |
|   \\  /    A nd           | Website:  www.openfoam.com                      |
|    \\/     M anipulation  |                                                 |
\*---------------------------------------------------------------------------*/
FoamFile
{
    version     2.0;
    format      ascii;
    arch        "LSB;label=32;scalar=64";
    class       volScalarField;
    location    "0.08";
    object      epsilon;
}
// * * * * * * * * * * * * * * * * * * * * * * * * * * * * * * * * * * * * * //

dimensions      [0 2 -3 0 0 0 0];

internalField   nonuniform List<scalar> 
12225
(
5722.35
6883.34
6358.16
5588.89
4986.95
4418.45
3856.75
3292.49
2723.9
2157.58
1610.53
1109.6
685.642
362.549
149.588
31.6966
12.1132
20.0554
195.438
209.285
169.278
138.047
120.58
109.898
102.284
95.8194
89.1159
80.9487
70.4493
57.5785
43.4302
29.8872
18.7604
10.7538
7.08983
5.28473
31.197
36.7273
35.1466
31.5679
28.0079
24.9462
22.4228
20.3502
18.5786
16.9175
15.18
13.2608
11.1958
9.1454
7.31037
5.822
4.82051
4.22119
17.0365
18.2369
18.0999
17.2335
16.0853
14.8887
13.7546
12.7272
11.8103
10.9789
10.1873
9.38445
8.53992
7.66446
6.80754
6.03225
5.40185
4.95529
14.4716
14.2247
13.8034
13.2119
12.5241
11.8031
11.0914
10.4137
9.78164
9.19711
8.65508
8.14563
7.65681
7.17811
6.70402
6.23543
5.78189
5.35792
13.863
13.0743
12.3856
11.7353
11.1084
10.5057
9.93218
9.39191
8.88692
8.41677
7.97891
7.56932
7.18361
6.81812
6.47053
6.13957
5.82484
5.52708
13.714
12.7321
11.8986
11.1691
10.5165
9.92475
9.38421
8.88856
8.43312
8.01381
7.62669
7.26782
6.93337
6.61994
6.32482
6.04607
5.78241
5.53413
13.6793
12.6363
11.7414
10.9645
10.2822
9.67701
9.13567
8.64828
8.20714
7.80603
7.4397
7.10361
6.79376
6.50667
6.23939
5.98955
5.75527
5.53616
13.6718
12.612
11.6957
10.8981
10.1989
9.58191
9.03387
8.5443
8.10468
7.70803
7.34851
7.02117
6.72179
6.44673
6.19294
5.95782
5.73925
5.53671
13.6703
12.6064
11.6839
10.8791
10.173
9.55009
8.9976
8.50521
8.06438
7.668
7.31011
6.98566
6.69032
6.42042
6.1728
5.9448
5.73419
5.54034
13.67
12.6052
11.6811
10.8743
10.1661
9.54099
8.98671
8.49298
8.05134
7.65473
7.29721
6.97374
6.68002
6.41236
6.16762
5.94309
5.73653
5.54728
13.6699
12.605
11.6805
10.8733
10.1645
9.53897
8.98427
8.49025
8.04848
7.65193
7.29468
6.97172
6.67878
6.41219
6.16882
5.94599
5.74145
5.55454
13.6699
12.6049
11.6804
10.873
10.1642
9.53857
8.98389
8.48994
8.04832
7.652
7.29509
6.97257
6.68021
6.41436
6.17191
5.95018
5.74695
5.56156
13.6699
12.6048
11.6803
10.873
10.1641
9.53866
8.98414
8.49042
8.04908
7.65308
7.29654
6.97446
6.68261
6.41735
6.1756
5.9547
5.75241
5.5681
13.6699
12.6048
11.6803
10.873
10.1642
9.53893
8.98464
8.4912
8.05017
7.65453
7.29838
6.97672
6.68532
6.42058
6.1794
5.95913
5.75756
5.57404
13.6699
12.6048
11.6802
10.873
10.1644
9.53933
8.98531
8.49219
8.05152
7.65627
7.30052
6.97929
6.68836
6.4241
6.18344
5.96374
5.76277
5.5799
13.6698
12.6048
11.6802
10.8731
10.1647
9.53987
8.98616
8.49341
8.05315
7.65833
7.30305
6.98231
6.69187
6.42814
6.18802
5.96888
5.7685
5.58621
13.6698
12.6047
11.6803
10.8733
10.1651
9.54056
8.98723
8.4949
8.05512
7.66081
7.30606
6.98586
6.69599
6.43283
6.19329
5.97474
5.77495
5.59325
13.6698
12.6047
11.6803
10.8735
10.1657
9.54148
8.9886
8.49678
8.05755
7.66382
7.30967
6.99008
6.70083
6.43828
6.19936
5.98141
5.7822
5.60104
13.6697
12.6047
11.6804
10.8739
10.1663
9.54252
8.99008
8.49875
8.06002
7.66681
7.31317
6.9941
6.70535
6.44329
6.20483
5.98732
5.78852
5.60773
13.6697
12.6047
11.6806
10.8743
10.167
9.54358
8.99154
8.50062
8.0623
7.6695
7.31627
6.99758
6.70918
6.44747
6.20932
5.9921
5.79356
5.61299
13.6697
12.6048
11.6809
10.8749
10.168
9.54498
8.99335
8.50283
8.0649
7.67245
7.31953
7.00111
6.71295
6.45142
6.21343
5.99632
5.79786
5.61733
13.6698
12.6051
11.6819
10.8767
10.1707
9.54848
8.9976
8.50768
8.07017
7.67798
7.32514
7.00666
6.7183
6.45647
6.21808
6.0005
5.80151
5.62042
13.6708
12.6089
11.6898
10.8893
10.1877
9.5691
9.02078
8.53235
8.09534
7.70276
7.34883
7.0287
6.73828
6.47409
6.23316
6.01294
5.81127
5.62748
13.6826
12.6448
11.7539
10.9789
10.2965
9.69
9.14693
8.65798
8.21602
7.81546
7.45174
7.12075
6.819
6.54342
6.29135
6.06041
5.84858
5.65522
13.7917
12.9125
12.1558
11.467
10.8247
10.2223
9.6587
9.13397
8.648
8.19982
7.78773
7.40986
7.06421
6.74835
6.45968
6.19573
5.95427
5.73433
14.6411
14.5565
14.2112
13.6239
12.8968
12.1147
11.3336
10.5863
9.88919
9.24888
8.66615
8.13872
7.6625
7.2332
6.84653
6.49859
6.18535
5.90378
21.4241
25.1884
25.3135
23.6787
21.4846
19.2672
17.2314
15.4343
13.8728
12.5227
11.3558
10.3456
9.46833
8.7045
8.03757
7.45434
6.94336
6.49746
114.993
146.145
129.113
105.003
86.0029
72.4877
62.7647
55.4469
49.6654
44.9193
40.9216
37.4986
34.5354
31.9575
29.7105
27.7646
26.0823
24.7092
3377.8
4613.37
4691.56
4415.5
4072.31
3747.03
3459.66
3211.75
3000.37
2821.6
2671.41
2546.01
2442.06
2356.62
2287.11
2231.25
2186.72
2152.42
30.8645
17.8652
23.3972
25.671
22.85
15.7258
9.69399
6.67981
6.66262
9.77622
15.5315
24.4231
37.2249
59.1417
93.1846
141.94
206.453
283.035
351.723
399.085
414.047
390.601
330.337
243.855
149.304
69.1698
22.4434
4.99683
5.47322
8.95306
11.2397
11.4066
9.36375
6.9279
5.93537
7.78563
12.4316
19.9866
27.7773
30.5935
29.8312
28.479
28.2998
27.9531
24.1367
18.9131
30.497
96.6516
211.903
371.713
565.458
779.037
997.496
1207.05
1396.24
1556.44
1681.88
1769.39
1818.08
1828.9
1804.3
1747.82
1663.35
1564.51
1455.6
1339.45
1218.75
1096.13
974.055
854.771
740.302
632.401
532.516
441.762
360.889
290.268
229.894
179.409
138.154
105.246
79.6665
60.3678
46.3765
35.8505
26.7305
19.0454
12.8304
8.11664
4.9268
3.3159
3.88606
6.19625
9.25824
12.8574
16.8451
21.0913
25.4817
29.9194
34.3235
38.6292
42.7981
46.9921
52.0652
57.4612
62.8032
67.8743
72.5163
76.6356
80.1066
82.0149
81.3958
78.1878
72.5715
65.0896
56.8135
49.7634
44.1156
39.4896
35.9195
33.4166
31.9011
31.2272
31.1502
31.497
32.1801
33.051
33.9955
34.9575
35.9271
36.9241
37.9794
39.1291
40.4066
41.8135
43.3038
44.8651
46.7565
49.7313
54.4603
58.7997
54.4413
38.1572
45.051
165.007
348.906
532.382
672.147
750.133
765.323
725.817
643.956
541.449
428.408
315.975
215.198
134.843
78.9106
46.0092
21.6301
7.38858
6.41001
21.9377
48.1012
96.7623
171.261
267.172
377.631
493.895
607.325
715.064
794.936
780.578
657.064
459.506
261.968
128.148
70.2335
55.9198
61.1225
74.9775
126.834
7.44977
6.30773
5.4466
2.07123
0.822727
0.668769
0.567759
0.480763
0.409197
0.355308
0.321607
0.311503
0.336434
0.41274
0.561846
0.809345
1.61948
8.68199
20.557
34.5071
46.8595
53.996
53.6324
45.9267
33.9231
22.2593
13.1482
7.23489
4.05161
2.40224
1.11653
0.41636
0.367684
0.408907
0.455218
0.471949
0.48876
0.766826
2.04579
2.64076
3.15697
6.44436
12.9484
19.0953
27.3888
40.6402
58.8636
78.6067
96.9187
111.251
119.995
122.602
119.423
111.426
99.8979
86.1918
71.5327
56.9157
43.1565
31.2265
22.8451
20.746
20.1011
19.3201
18.4235
17.4344
16.3767
15.2737
14.1481
13.0209
11.9108
10.8338
9.80338
8.82967
7.92018
7.07978
6.31108
5.6147
4.98934
4.43158
3.935
3.4877
3.06274
2.65674
2.27934
1.94181
1.65661
1.43721
1.29683
1.24061
1.22177
1.21592
1.21622
1.21855
1.22022
1.21955
1.21549
1.20745
1.19512
1.17869
1.16144
1.14834
1.13672
1.12377
1.10801
1.08919
1.06912
1.05751
1.20884
1.64726
2.12815
2.51566
2.73184
2.74902
2.60862
2.34553
2.00466
1.63682
1.28199
0.963684
0.695366
0.51793
0.438084
0.403416
0.390368
0.387771
0.390376
0.395835
0.403072
0.412124
0.423387
0.437659
0.456306
0.482
0.520908
0.58689
0.722689
1.04997
2.07472
5.88213
11.9107
23.3814
39.9483
48.0048
44.9519
35.0447
23.3614
13.2409
6.38155
5.07024
4.30588
3.50716
2.72903
2.03322
1.47923
1.09528
0.850648
0.663362
0.554375
0.58594
0.708027
0.90854
1.26257
1.77092
2.41146
3.15692
3.97331
4.84379
5.91402
8.22596
20.9122
32.2584
34.0847
27.1535
17.8279
10.5265
5.61094
3.31074
2.85002
135.502
11.7665
3.2877
1.92059
1.53018
1.25058
0.969575
0.732835
0.550389
0.415006
0.316246
0.244696
0.192831
0.154992
0.127096
0.106284
0.0905961
0.0799294
0.260526
1.16632
3.28877
6.68822
10.727
14.194
15.8715
15.283
13.0268
10.0297
7.06813
4.59578
2.75619
1.5411
0.891108
0.63185
0.582301
0.629001
0.667977
0.648911
1.0735
2.52156
4.96022
7.01
9.26571
11.9724
14.9449
18.3764
22.1019
25.4653
27.6941
28.4681
27.813
25.9734
23.2401
19.87
16.1372
12.4055
9.08254
6.47405
4.68309
3.63016
3.14116
3.02366
3.04956
3.0896
3.13521
3.18493
3.23739
3.29116
3.34477
3.39661
3.44485
3.48732
3.52148
3.54434
3.55247
3.54219
3.50979
3.45202
3.36655
3.25251
3.11088
2.94454
2.75802
2.55697
2.34814
2.1384
1.93382
1.73923
1.55825
1.39272
1.2566
1.14133
1.03872
0.947156
0.865376
0.792271
0.726841
0.668187
0.615507
0.568091
0.52533
0.486766
0.452002
0.420586
0.392075
0.366084
0.342306
0.320581
0.301308
0.28706
0.279613
0.283469
0.308623
0.34493
0.375728
0.387235
0.373984
0.339657
0.293175
0.243759
0.198106
0.159891
0.130353
0.108725
0.093243
0.0819207
0.0734202
0.0668629
0.062031
0.0592221
0.0578702
0.0571791
0.0563919
0.0552013
0.0543462
0.0573567
0.0771142
0.145904
0.391156
1.30645
3.77619
6.5959
9.0493
9.84476
7.78143
5.01148
2.92036
1.45206
0.571027
0.329689
0.325009
0.324165
0.326536
0.33293
0.344089
0.360373
0.381109
0.403765
0.423062
0.431195
0.428395
0.415979
0.396226
0.372801
0.348821
0.326514
0.307229
0.291574
0.279977
0.274583
0.290769
0.467627
1.55215
2.97065
3.60729
3.2227
2.40234
1.64177
1.15512
1.03014
69.3899
4.57706
2.70857
2.86411
2.31746
1.66702
1.14673
0.779204
0.531995
0.369245
0.262851
0.192989
0.146451
0.114769
0.0926222
0.0766963
0.0649083
0.0559503
0.0548078
0.116195
0.379877
1.04481
2.2402
3.84632
5.43447
6.47165
6.67692
6.11895
5.07905
3.86289
2.71414
1.81442
1.22713
0.903721
0.883559
1.07972
1.493
2.41384
3.23996
4.26799
5.38705
6.44024
7.54107
8.69406
9.80699
10.7973
11.5095
11.7779
11.5108
10.7291
9.52313
8.0428
6.47866
5.02291
3.82241
2.94708
2.38756
2.08062
1.94523
1.91033
1.92719
1.96931
2.02312
2.08428
2.15219
2.22644
2.30666
2.39254
2.4837
2.57958
2.67932
2.78151
2.88398
2.98362
3.07617
3.15628
3.21765
3.25357
3.25773
3.22519
3.1535
3.04336
2.89879
2.72659
2.53519
2.33334
2.12888
1.92786
1.73408
1.55289
1.40184
1.2679
1.14763
1.03988
0.943497
0.85735
0.78037
0.711564
0.650026
0.594939
0.545575
0.501285
0.461492
0.425681
0.393393
0.364225
0.337828
0.313914
0.292262
0.272757
0.255307
0.239933
0.226761
0.21626
0.208097
0.200933
0.193206
0.183926
0.173027
0.161135
0.149087
0.137569
0.12697
0.117399
0.108794
0.101031
0.0939731
0.0874845
0.081453
0.0758155
0.0705801
0.0658579
0.0619297
0.0594547
0.0600465
0.0678543
0.0942544
0.176859
0.449046
1.24771
2.68408
3.52008
3.58808
2.85375
1.85991
1.09812
0.576774
0.312744
0.235511
0.226777
0.226051
0.227137
0.2307
0.237516
0.248426
0.264144
0.284481
0.307129
0.325817
0.33512
0.335416
0.326876
0.311478
0.291964
0.270816
0.249841
0.230159
0.212384
0.196831
0.183694
0.173567
0.170726
0.216856
0.385703
0.588158
0.68136
0.652657
0.571504
0.503372
0.535282
53.6212
7.77475
8.05518
5.49646
3.34066
1.95678
1.14062
0.675902
0.414973
0.267825
0.182933
0.132114
0.100304
0.0794399
0.0651339
0.0549364
0.0474306
0.0417459
0.0376101
0.0402012
0.0755779
0.205342
0.52462
1.10817
1.91469
2.74346
3.33308
3.52184
3.31712
2.83484
2.22835
1.65202
1.21366
1.04901
1.39828
2.36807
2.7017
2.99788
3.46329
4.00157
4.55594
5.09088
5.60097
6.04832
6.37346
6.51876
6.42651
6.06825
5.46651
4.69796
3.87126
3.09702
2.45699
1.9873
1.68128
1.50567
1.41939
1.38696
1.38421
1.39767
1.42126
1.45456
1.49454
1.54068
1.59285
1.65112
1.71587
1.78774
1.86766
1.9567
2.05587
2.16584
2.28656
2.41677
2.55352
2.69179
2.82428
2.9416
3.03311
3.08829
3.09861
3.05949
2.97134
2.8397
2.67396
2.48528
2.2845
2.0803
1.87824
1.6951
1.53621
1.39217
1.26199
1.14477
1.03946
0.94498
0.860267
0.784318
0.716208
0.655094
0.600218
0.550901
0.506533
0.466572
0.430536
0.397996
0.368576
0.341938
0.317783
0.295856
0.275933
0.257817
0.241333
0.226311
0.212548
0.19989
0.188208
0.177279
0.166954
0.157167
0.147909
0.139189
0.131005
0.123338
0.116146
0.109376
0.102976
0.096894
0.0910922
0.085552
0.0803071
0.0755112
0.0715685
0.0694086
0.0711569
0.0818898
0.115366
0.213596
0.49059
1.11136
1.79991
1.89158
1.56622
1.10445
0.704903
0.408923
0.251029
0.198953
0.186803
0.181895
0.178507
0.176691
0.177191
0.180945
0.189048
0.202524
0.22114
0.241411
0.25723
0.266833
0.268498
0.262542
0.250841
0.235797
0.219506
0.203437
0.188459
0.17501
0.163253
0.153211
0.144879
0.138421
0.135649
0.147648
0.180365
0.218306
0.244813
0.258708
0.271207
0.323791
65.3223
32.8187
16.9244
8.00186
3.69348
1.72043
0.837518
0.44109
0.256137
0.163883
0.114146
0.085176
0.0670029
0.0547839
0.0460779
0.0396414
0.0348255
0.0312346
0.0285681
0.0273432
0.0330215
0.0640132
0.158948
0.374344
0.748305
1.24398
1.73352
2.06455
2.15587
2.01759
1.72321
1.39979
1.24536
1.69741
2.58225
2.5625
2.60481
2.78836
3.06002
3.36412
3.6635
3.9281
4.13188
4.24178
4.22453
4.05862
3.74322
3.30822
2.8106
2.31818
1.88831
1.55353
1.31889
1.16952
1.08222
1.03496
1.01172
1.00308
1.00455
1.01435
1.03185
1.05789
1.08876
1.12386
1.16278
1.20547
1.25227
1.30404
1.36223
1.42887
1.5065
1.59796
1.70597
1.83256
1.97828
2.14127
2.31638
2.49457
2.66291
2.80582
2.90747
2.95512
2.94208
2.86938
2.74539
2.58282
2.39562
2.19574
1.99463
1.81559
1.65151
1.50103
1.36405
1.24001
1.12805
1.02717
0.936377
0.85468
0.781166
0.714992
0.655396
0.601687
0.553249
0.509526
0.470024
0.434299
0.401958
0.372646
0.346046
0.321875
0.299875
0.279805
0.261449
0.244612
0.229117
0.214799
0.201491
0.189178
0.177784
0.167229
0.157438
0.148344
0.139878
0.131966
0.124536
0.117518
0.110849
0.104483
0.0983967
0.0925984
0.0871479
0.0822172
0.0782622
0.0764167
0.07929
0.0929983
0.133582
0.241034
0.48852
0.911668
1.19123
1.06699
0.805376
0.569545
0.366749
0.234426
0.181761
0.16629
0.158869
0.152836
0.147653
0.143722
0.141956
0.143528
0.149892
0.162295
0.178981
0.196391
0.211405
0.220881
0.223343
0.21928
0.210473
0.199023
0.18667
0.174579
0.163406
0.153452
0.144792
0.137369
0.131069
0.125775
0.121491
0.119161
0.121111
0.127927
0.138472
0.152656
0.173648
0.219134
238.29
79.9715
25.8763
8.43162
2.83426
1.04762
0.453911
0.234116
0.141094
0.0965808
0.072671
0.0582058
0.0483276
0.0408382
0.0347928
0.0298788
0.0260569
0.0232706
0.0213697
0.0203744
0.0217089
0.0321458
0.0687446
0.163593
0.354774
0.652782
1.00599
1.31077
1.47653
1.47245
1.34774
1.23619
1.5268
2.3003
2.34338
2.24752
2.28711
2.41956
2.59497
2.77372
2.92572
3.02571
3.05208
2.9872
2.82369
2.57067
2.25496
1.91622
1.59569
1.32438
1.11642
0.970006
0.87343
0.812234
0.774193
0.751226
0.739023
0.735715
0.740603
0.753332
0.773497
0.798796
0.825816
0.853952
0.88283
0.91239
0.942999
0.975548
1.01154
1.05315
1.10331
1.16567
1.2445
1.34436
1.4694
1.62231
1.80289
2.00634
2.22189
2.43247
2.61656
2.75252
2.82371
2.82265
2.75365
2.62892
2.46463
2.27612
2.08989
1.91419
1.74841
1.59447
1.45312
1.32425
1.20731
1.10146
1.00581
0.919425
0.841427
0.77099
0.707359
0.649847
0.597836
0.550769
0.508146
0.469517
0.434479
0.402668
0.373753
0.347436
0.323446
0.301535
0.281481
0.263081
0.246154
0.230541
0.216102
0.20269
0.190268
0.178771
0.168117
0.158226
0.149019
0.140418
0.132349
0.124742
0.117538
0.110692
0.104188
0.0980407
0.0923169
0.0872022
0.0832289
0.081773
0.0859544
0.102969
0.149477
0.255741
0.454609
0.717335
0.800962
0.649651
0.492247
0.358969
0.241133
0.178209
0.157514
0.149022
0.141703
0.134533
0.127667
0.121823
0.118271
0.118371
0.124062
0.135045
0.150182
0.166847
0.181456
0.191087
0.194541
0.192404
0.186305
0.178042
0.169046
0.160254
0.152196
0.145119
0.139068
0.133954
0.129609
0.125842
0.122472
0.119371
0.116753
0.115351
0.115984
0.120858
0.133927
0.165571
944.132
146.877
27.8281
5.73719
1.41064
0.46654
0.207353
0.119646
0.0843551
0.0670601
0.056474
0.0485333
0.0416576
0.0352694
0.0293036
0.0240359
0.0199062
0.0170607
0.0154684
0.0149923
0.0159865
0.0217246
0.0419115
0.0974043
0.218154
0.422832
0.688696
0.941688
1.10051
1.14412
1.13293
1.31112
1.85175
2.04163
1.95007
1.91365
1.96945
2.0721
2.18413
2.27686
2.32864
2.32325
2.25087
2.11047
1.91241
1.67807
1.4351
1.21024
1.02238
0.879195
0.778313
0.71154
0.669403
0.644141
0.630657
0.626086
0.628881
0.63805
0.652718
0.671987
0.694968
0.718359
0.740693
0.761172
0.779144
0.794267
0.806705
0.817309
0.82776
0.840645
0.859435
0.888382
0.932366
0.996741
1.08714
1.20905
1.36679
1.56158
1.78871
2.03482
2.27719
2.48775
2.63974
2.71382
2.70708
2.62819
2.49408
2.33062
2.16144
1.99188
1.82804
1.6735
1.53001
1.39812
1.27765
1.16805
1.06857
0.978383
0.896673
0.822651
0.755584
0.694797
0.639678
0.589672
0.544279
0.503047
0.465567
0.43147
0.40042
0.372113
0.34627
0.322639
0.30099
0.281112
0.262822
0.245955
0.230373
0.21595
0.202557
0.190154
0.178652
0.167968
0.15802
0.14873
0.140023
0.131828
0.124085
0.11675
0.109808
0.103277
0.0972222
0.0918496
0.0878004
0.0867131
0.0921973
0.11221
0.161775
0.257892
0.405262
0.556667
0.552863
0.432952
0.345748
0.259633
0.186762
0.155405
0.145596
0.138876
0.130994
0.122326
0.113776
0.106257
0.101434
0.10095
0.105728
0.116228
0.131256
0.147979
0.162915
0.173393
0.178404
0.178499
0.175085
0.169676
0.163483
0.157335
0.151756
0.147032
0.143249
0.140324
0.138048
0.136155
0.134346
0.132252
0.12937
0.12556
0.121639
0.119596
0.123755
0.141735
1939.88
169.747
17.6854
2.33736
0.508622
0.182901
0.105611
0.0815965
0.0701298
0.061934
0.0547577
0.0478382
0.040816
0.0335963
0.0263736
0.0197163
0.014562
0.0115318
0.0108463
0.0114027
0.01309
0.0185092
0.0357021
0.0823561
0.184863
0.362828
0.57807
0.766731
0.89461
0.976148
1.1094
1.4459
1.68686
1.67772
1.62817
1.64039
1.69972
1.77239
1.83257
1.8616
1.84695
1.78221
1.66834
1.51447
1.33697
1.15598
0.990479
0.853694
0.750845
0.680008
0.635093
0.609126
0.596393
0.593097
0.597014
0.606815
0.621506
0.640104
0.661537
0.684641
0.708189
0.731126
0.752378
0.77073
0.784978
0.794074
0.797307
0.794524
0.786404
0.774802
0.763152
0.756707
0.762267
0.787235
0.838574
0.922431
1.04462
1.21023
1.42107
1.67113
1.94162
2.20256
2.42052
2.56326
2.61823
2.5878
2.49234
2.36077
2.20906
2.0497
1.89121
1.73881
1.59536
1.46216
1.33955
1.22731
1.12492
1.03171
0.946957
0.869931
0.79994
0.736336
0.67852
0.625945
0.578113
0.534572
0.494913
0.458763
0.425784
0.395666
0.368128
0.342914
0.319789
0.298542
0.278986
0.260951
0.244293
0.22888
0.21459
0.201324
0.189011
0.17756
0.166887
0.156912
0.14756
0.138763
0.130465
0.122626
0.115236
0.108314
0.101929
0.0963184
0.0922303
0.091523
0.0981926
0.120424
0.169833
0.250647
0.352288
0.430642
0.395468
0.315343
0.265955
0.208479
0.162084
0.144241
0.138033
0.131437
0.122364
0.11236
0.102717
0.0944745
0.089015
0.0879479
0.0926682
0.103588
0.119356
0.137011
0.153174
0.16535
0.172539
0.175098
0.174163
0.17104
0.166858
0.162498
0.158608
0.155605
0.153655
0.152683
0.152425
0.152522
0.152577
0.152085
0.150362
0.146464
0.140624
0.134368
0.131463
0.138095
2724.53
130.257
6.65562
0.674426
0.167258
0.102041
0.0877896
0.0797678
0.0723253
0.0650947
0.0580141
0.050757
0.0430247
0.0347672
0.0262704
0.0181964
0.0119877
0.0104756
0.0112776
0.0134155
0.0181868
0.0300644
0.0588852
0.120443
0.228146
0.37707
0.535822
0.678038
0.80037
0.938381
1.15054
1.35267
1.41426
1.39575
1.39248
1.42492
1.47315
1.51472
1.53363
1.51953
1.46753
1.37858
1.25986
1.12381
0.985758
0.860197
0.757292
0.681026
0.629748
0.598519
0.581754
0.574972
0.575305
0.581189
0.591782
0.606498
0.624745
0.645832
0.668955
0.693192
0.717725
0.742024
0.764937
0.78517
0.801367
0.812244
0.81673
0.814053
0.80374
0.785697
0.760756
0.73197
0.70607
0.693386
0.705325
0.750759
0.835856
0.966107
1.1467
1.37898
1.65156
1.93606
2.19806
2.39506
2.50318
2.52045
2.46752
2.36609
2.23501
2.0891
1.93885
1.79101
1.6496
1.51672
1.3933
1.2795
1.1751
1.07959
0.992405
0.912898
0.84044
0.774422
0.714271
0.659454
0.609481
0.563905
0.522316
0.48434
0.449638
0.417898
0.388836
0.362194
0.337735
0.315247
0.294537
0.275434
0.257784
0.241452
0.226316
0.212256
0.199193
0.187033
0.17569
0.165085
0.155143
0.145796
0.136989
0.128689
0.120886
0.113602
0.106907
0.10107
0.0969317
0.0965106
0.104034
0.127373
0.173949
0.237924
0.302786
0.336062
0.295991
0.245805
0.216159
0.178206
0.14832
0.136192
0.130629
0.123846
0.114467
0.103803
0.0934681
0.0846873
0.0789562
0.0780404
0.0834747
0.095634
0.112994
0.132505
0.150859
0.16555
0.175328
0.180204
0.181081
0.179218
0.175865
0.172119
0.168863
0.166682
0.165813
0.166154
0.167373
0.169045
0.170742
0.171945
0.171902
0.169754
0.164521
0.157305
0.15064
0.149254
3048.11
67.0476
1.44903
0.154512
0.10808
0.0997928
0.0928633
0.0857581
0.0784537
0.0713575
0.0643655
0.0570651
0.0491709
0.0407907
0.0325052
0.0254179
0.021145
0.0216236
0.0247513
0.0317539
0.0453631
0.0708427
0.115768
0.187056
0.285406
0.403003
0.527216
0.651957
0.786086
0.942384
1.08927
1.17302
1.1939
1.19793
1.217
1.24932
1.27962
1.29435
1.28465
1.24615
1.1791
1.08859
0.984026
0.877296
0.779957
0.700257
0.641431
0.602059
0.578034
0.564838
0.559008
0.558518
0.562439
0.570394
0.582135
0.59734
0.615565
0.636275
0.658841
0.682524
0.707014
0.731595
0.755316
0.776971
0.795123
0.808341
0.815541
0.816246
0.810414
0.797755
0.777152
0.747496
0.710749
0.67529
0.656123
0.668015
0.720376
0.818553
0.967444
1.17259
1.43132
1.71747
1.99995
2.23301
2.37881
2.43886
2.42384
2.3521
2.24284
2.11221
1.97219
1.83083
1.69317
1.56209
1.4391
1.32478
1.21921
1.12211
1.03308
0.951593
0.877095
0.809037
0.746882
0.690122
0.638281
0.59092
0.547631
0.508044
0.471818
0.43864
0.408225
0.380313
0.354665
0.331067
0.309323
0.289257
0.270713
0.253549
0.237639
0.222859
0.209116
0.196312
0.18436
0.173179
0.162696
0.152842
0.143566
0.134835
0.126648
0.119028
0.112054
0.106021
0.101833
0.101585
0.109564
0.132939
0.175033
0.223177
0.260348
0.267446
0.231999
0.200486
0.181888
0.157548
0.137865
0.128253
0.122363
0.115262
0.105853
0.0951684
0.0847752
0.0760402
0.0706429
0.0705586
0.0774627
0.0916767
0.111515
0.133861
0.155344
0.17312
0.185388
0.191772
0.193147
0.191019
0.186983
0.182474
0.178633
0.176185
0.175396
0.176154
0.178155
0.181049
0.184448
0.187794
0.19025
0.190877
0.188894
0.183464
0.176556
0.170916
2908.42
22.5995
0.289301
0.125564
0.115894
0.10816
0.101012
0.0940793
0.0873124
0.0808245
0.0745285
0.0681211
0.0614517
0.0547958
0.0489138
0.0450268
0.0447174
0.0484293
0.0565402
0.0708882
0.0940607
0.129515
0.180727
0.24971
0.335712
0.435397
0.544867
0.662912
0.785436
0.895518
0.97385
1.01702
1.03774
1.05536
1.0785
1.10147
1.1145
1.11003
1.08387
1.03539
0.967807
0.887954
0.805079
0.728573
0.665375
0.618321
0.586299
0.565925
0.553554
0.546568
0.54364
0.544366
0.54873
0.556706
0.568076
0.58241
0.599151
0.617719
0.637588
0.65835
0.680192
0.702669
0.725354
0.74729
0.766889
0.782205
0.791528
0.794241
0.791181
0.783715
0.771731
0.75241
0.722756
0.684902
0.651837
0.642438
0.671271
0.745875
0.869781
1.04843
1.28792
1.56273
1.84264
2.08637
2.26144
2.35469
2.37091
2.32554
2.23701
2.1219
1.99302
1.85935
1.72671
1.59865
1.47716
1.36326
1.25732
1.15932
1.06901
0.986017
0.909892
0.840151
0.776308
0.717887
0.664435
0.615523
0.570754
0.529759
0.492198
0.457759
0.426157
0.39713
0.370437
0.345862
0.323207
0.302293
0.282959
0.265059
0.248462
0.233043
0.218696
0.205319
0.192826
0.181135
0.170173
0.159873
0.150183
0.141076
0.132551
0.124637
0.117423
0.111223
0.106963
0.106742
0.114736
0.137242
0.174215
0.208924
0.226247
0.218836
0.189409
0.168413
0.156325
0.141127
0.127915
0.119733
0.113424
0.106065
0.0967669
0.0864868
0.0764956
0.0683075
0.0638167
0.06524
0.0743919
0.0915256
0.114809
0.141005
0.166368
0.187243
0.201064
0.207303
0.207283
0.203122
0.196913
0.190414
0.184953
0.181353
0.179966
0.180827
0.183799
0.188543
0.194394
0.200388
0.205497
0.208913
0.210318
0.208807
0.20414
0.197659
2453.21
18.2966
0.261557
0.136503
0.12668
0.118432
0.111148
0.104586
0.0986182
0.0932344
0.0883821
0.0839164
0.0798023
0.0763446
0.0742682
0.0746931
0.07906
0.0867129
0.0998272
0.119832
0.148539
0.187971
0.239918
0.30532
0.383736
0.473164
0.569524
0.665472
0.751201
0.819677
0.86932
0.902557
0.925561
0.945648
0.964178
0.976395
0.976577
0.960796
0.927693
0.878873
0.819004
0.755105
0.694822
0.644171
0.60586
0.57915
0.56123
0.54906
0.540604
0.535077
0.532544
0.533374
0.537819
0.545787
0.556755
0.569824
0.583963
0.598353
0.612729
0.627715
0.643865
0.661367
0.680517
0.700915
0.721069
0.738609
0.75075
0.75569
0.754083
0.748797
0.742306
0.733044
0.716175
0.688756
0.658492
0.644187
0.662846
0.725134
0.834639
0.993769
1.20436
1.45786
1.72754
1.97463
2.16436
2.27856
2.3173
2.29286
2.22215
2.12136
2.00351
1.878
1.75115
1.62695
1.50784
1.39515
1.28954
1.19125
1.1002
1.01617
0.938811
0.867732
0.802504
0.742694
0.687876
0.63764
0.591599
0.54939
0.510677
0.475149
0.442519
0.412526
0.384929
0.359508
0.336064
0.314415
0.294396
0.275858
0.258665
0.242692
0.22782
0.213947
0.200985
0.188853
0.177478
0.166793
0.156748
0.147317
0.138503
0.130342
0.122929
0.116587
0.112234
0.111898
0.119514
0.140518
0.172533
0.196739
0.200419
0.185057
0.160114
0.144472
0.136045
0.126588
0.11758
0.110547
0.104102
0.0966786
0.0877038
0.0779827
0.0687025
0.0614839
0.058452
0.0620897
0.0743402
0.0953677
0.123171
0.154166
0.183656
0.206682
0.220047
0.223783
0.220327
0.212655
0.203274
0.194107
0.186584
0.181684
0.179996
0.181737
0.186606
0.193643
0.201421
0.208562
0.2142
0.218118
0.220716
0.222394
0.221906
0.218282
1926.63
14.0046
0.241582
0.148858
0.13913
0.130596
0.123285
0.117163
0.112121
0.10809
0.105041
0.102954
0.101889
0.102104
0.104121
0.108709
0.116866
0.128476
0.145562
0.169354
0.201181
0.242328
0.293688
0.355233
0.425338
0.500246
0.57446
0.642785
0.702261
0.751688
0.790322
0.818776
0.83996
0.856744
0.868632
0.872428
0.8649
0.844275
0.810913
0.767653
0.719553
0.672732
0.632494
0.601614
0.579798
0.564637
0.553337
0.544065
0.536335
0.530625
0.527772
0.52849
0.533069
0.541192
0.551835
0.563408
0.574304
0.583529
0.591159
0.599043
0.607881
0.618536
0.631886
0.648381
0.666918
0.685226
0.699874
0.707669
0.708079
0.704112
0.70017
0.697094
0.690688
0.677009
0.659305
0.651141
0.670425
0.729343
0.831264
0.977205
1.16963
1.40409
1.65934
1.90041
2.09305
2.21694
2.26908
2.25913
2.20221
2.11356
2.00581
1.88831
1.76754
1.64774
1.5316
1.42073
1.31606
1.218
1.1267
1.04205
0.96384
0.891755
0.825436
0.7645
0.708553
0.65721
0.610098
0.566863
0.527173
0.49072
0.457218
0.426405
0.39804
0.371901
0.347787
0.325514
0.304915
0.285837
0.268142
0.251701
0.236389
0.2221
0.208745
0.196244
0.184524
0.17352
0.163182
0.153486
0.144436
0.136074
0.128504
0.122043
0.117572
0.116995
0.123913
0.143036
0.170769
0.18746
0.18217
0.162236
0.139694
0.126228
0.119412
0.113155
0.106807
0.100803
0.0945518
0.0872996
0.078792
0.0698015
0.0615118
0.0556756
0.0546925
0.0613435
0.0776801
0.103737
0.137198
0.173586
0.206468
0.229376
0.239333
0.238084
0.229684
0.217806
0.205029
0.193249
0.184012
0.178553
0.177612
0.181058
0.187678
0.195554
0.20288
0.208563
0.212335
0.214567
0.216064
0.217841
0.220317
0.221289
1398
10.1308
0.227826
0.161644
0.152862
0.144625
0.137554
0.131915
0.127742
0.125001
0.123673
0.123778
0.12541
0.128812
0.134428
0.142907
0.154199
0.169434
0.189792
0.216224
0.249547
0.290226
0.338023
0.391652
0.44873
0.506325
0.561897
0.613714
0.66026
0.699716
0.730782
0.753926
0.770973
0.783128
0.789601
0.788358
0.777661
0.757056
0.727924
0.693587
0.658701
0.627884
0.604086
0.587605
0.576423
0.56768
0.559239
0.550442
0.541939
0.535026
0.531008
0.53085
0.534935
0.542896
0.55352
0.564847
0.574111
0.578305
0.577955
0.578541
0.580874
0.584795
0.591403
0.602243
0.616699
0.633028
0.647756
0.657169
0.65981
0.657996
0.656111
0.656574
0.657482
0.655116
0.650652
0.654794
0.68359
0.748174
0.850544
0.990643
1.17146
1.39092
1.63132
1.86112
2.04816
2.17234
2.22951
2.22759
2.18005
2.10083
2.00174
1.89166
1.7769
1.66172
1.54895
1.44036
1.33708
1.23972
1.14858
1.0637
0.984982
0.912204
0.845078
0.783269
0.726426
0.674187
0.626199
0.582119
0.541622
0.504403
0.47018
0.438688
0.409687
0.382955
0.358288
0.3355
0.314423
0.294901
0.276794
0.259972
0.244301
0.229675
0.216005
0.20321
0.191217
0.179963
0.169398
0.159497
0.150267
0.141754
0.134067
0.127508
0.122897
0.121983
0.127978
0.145034
0.169371
0.18136
0.170615
0.147756
0.125834
0.112546
0.105803
0.100864
0.0959768
0.0907833
0.0849169
0.0780449
0.0701617
0.0621007
0.0551053
0.0511114
0.052871
0.0635009
0.0851177
0.117509
0.157613
0.199119
0.233132
0.252335
0.255674
0.24769
0.233895
0.218026
0.202336
0.188619
0.178609
0.173678
0.174152
0.178865
0.185607
0.192209
0.197327
0.200514
0.201954
0.202196
0.202026
0.202408
0.204438
0.207847
951.885
7.10063
0.218242
0.173106
0.166771
0.159976
0.15384
0.148972
0.145663
0.144048
0.144223
0.146287
0.150366
0.156636
0.165356
0.176907
0.19096
0.20875
0.230875
0.257794
0.289697
0.326373
0.367129
0.410859
0.456265
0.502044
0.546816
0.588852
0.626089
0.656816
0.680559
0.698185
0.710952
0.719338
0.722645
0.71965
0.709589
0.692844
0.671271
0.648074
0.62697
0.61095
0.601039
0.595855
0.59246
0.587978
0.580836
0.57115
0.560707
0.551299
0.544578
0.541742
0.543345
0.549229
0.558685
0.570374
0.58037
0.582123
0.575914
0.569723
0.565903
0.563888
0.56455
0.569207
0.578273
0.59046
0.602755
0.611595
0.61504
0.61463
0.614455
0.617671
0.623861
0.630601
0.639151
0.658823
0.703117
0.779813
0.888103
1.02738
1.20167
1.41008
1.63652
1.85201
2.0273
2.1443
2.19937
2.19967
2.15729
2.08475
1.99266
1.88916
1.7801
1.66957
1.56037
1.45439
1.35286
1.25658
1.16596
1.08119
1.00229
0.929111
0.861446
0.799012
0.741498
0.688571
0.639899
0.595152
0.554014
0.516187
0.481389
0.449358
0.419853
0.392651
0.367548
0.344357
0.322907
0.303042
0.28462
0.267509
0.251567
0.236687
0.222781
0.209767
0.197573
0.186137
0.17541
0.165366
0.156013
0.147399
0.139633
0.132997
0.12823
0.126901
0.131824
0.146717
0.168515
0.178374
0.164962
0.140002
0.11733
0.102855
0.0949899
0.0899563
0.0855307
0.0807986
0.0753356
0.0689827
0.0619619
0.0551292
0.0497943
0.0481982
0.0535757
0.0694041
0.0977561
0.137835
0.184927
0.229676
0.260765
0.272035
0.266378
0.251282
0.232723
0.213736
0.196032
0.181377
0.171647
0.167895
0.169457
0.174169
0.179612
0.184146
0.187074
0.18832
0.188143
0.187009