/*--------------------------------*- C++ -*----------------------------------*\
| =========                 |                                                 |
| \\      /  F ield         | OpenFOAM: The Open Source CFD Toolbox           |
|  \\    /   O peration     | Version:  2112                                  |
|   \\  /    A nd           | Website:  www.openfoam.com                      |
|    \\/     M anipulation  |                                                 |
\*---------------------------------------------------------------------------*/
FoamFile
{
    version     2.0;
    format      ascii;
    arch        "LSB;label=32;scalar=64";
    class       surfaceScalarField;
    location    "0.08";
    object      phi;
}
// * * * * * * * * * * * * * * * * * * * * * * * * * * * * * * * * * * * * * //

dimensions      [0 3 -1 0 0 0 0];

oriented        oriented;

internalField   nonuniform List<scalar> 
24170
(
3.03113e-06
1.57273e-07
2.84818e-06
1.8295e-07
2.66797e-06
1.80215e-07
2.48677e-06
1.81203e-07
2.3015e-06
1.8527e-07
2.10991e-06
1.91585e-07
1.9089e-06
2.01008e-07
1.69533e-06
2.13574e-07
1.46758e-06
2.27752e-07
1.22722e-06
2.40358e-07
9.80328e-07
2.4689e-07
7.37561e-07
2.42768e-07
5.12223e-07
2.25338e-07
3.16795e-07
1.95428e-07
1.59328e-07
1.57467e-07
4.07811e-08
1.18546e-07
-3.01619e-08
7.0943e-08
1.60382e-08
-4.62001e-08
3.50202e-06
7.25032e-08
3.56013e-06
1.24835e-07
3.59749e-06
1.42863e-07
3.61373e-06
1.64958e-07
3.6091e-06
1.89905e-07
3.58351e-06
2.1717e-07
3.53533e-06
2.49187e-07
3.46125e-06
2.87658e-07
3.35684e-06
3.32158e-07
3.21773e-06
3.79474e-07
3.04137e-06
4.23246e-07
2.82915e-06
4.5499e-07
2.58738e-06
4.67107e-07
2.32654e-06
4.56264e-07
2.05854e-06
4.25469e-07
1.79641e-06
3.80674e-07
1.54329e-06
3.2407e-07
2.8251e-07
1.27682e-06
3.67747e-06
5.75453e-08
3.69155e-06
1.10757e-07
3.70684e-06
1.27572e-07
3.72523e-06
1.46568e-07
3.74588e-06
1.69254e-07
3.7683e-06
1.9475e-07
3.79203e-06
2.25458e-07
3.81599e-06
2.63699e-07
3.83784e-06
3.10311e-07
3.85322e-06
3.64089e-07
3.85544e-06
4.21025e-07
3.83624e-06
4.74189e-07
3.78788e-06
5.1547e-07
3.70553e-06
5.38617e-07
3.58877e-06
5.42232e-07
3.44057e-06
5.28874e-07
3.26043e-06
5.04207e-07
4.82597e-07
3.06034e-06
3.93392e-06
4.90126e-08
3.94028e-06
1.04394e-07
3.94158e-06
1.26275e-07
3.94142e-06
1.46726e-07
3.94057e-06
1.70105e-07
3.94007e-06
1.95254e-07
3.94178e-06
2.2375e-07
3.94808e-06
2.57395e-07
3.96171e-06
2.96681e-07
3.98512e-06
3.40678e-07
4.01917e-06
3.86975e-07
4.06163e-06
4.31735e-07
4.10659e-06
4.70502e-07
4.14571e-06
4.99502e-07
4.17043e-06
5.17511e-07
4.17391e-06
5.2539e-07
4.15071e-06
5.27413e-07
5.27545e-07
4.10576e-06
4.21385e-06
4.22932e-08
4.22035e-06
9.78857e-08
4.22171e-06
1.24917e-07
4.22063e-06
1.47804e-07
4.21763e-06
1.73113e-07
4.21281e-06
2.00069e-07
4.20701e-06
2.29553e-07
4.20154e-06
2.62864e-07
4.1982e-06
3.00014e-07
4.19931e-06
3.39576e-07
4.20732e-06
3.78964e-07
4.22415e-06
4.14898e-07
4.25031e-06
4.44348e-07
4.2843e-06
4.65507e-07
4.32302e-06
4.78794e-07
4.36237e-06
4.86042e-07
4.39879e-06
4.90989e-07
4.97076e-07
4.42926e-06
4.51415e-06
3.72273e-08
4.52009e-06
9.19456e-08
4.52188e-06
1.23134e-07
4.52132e-06
1.48365e-07
4.51922e-06
1.75211e-07
4.51565e-06
2.03638e-07
4.51113e-06
2.34071e-07
4.50651e-06
2.67482e-07
4.50274e-06
3.03783e-07
4.50077e-06
3.41553e-07
4.50137e-06
3.78361e-07
4.50501e-06
4.11257e-07
4.51176e-06
4.37598e-07
4.52134e-06
4.55925e-07
4.5335e-06
4.66635e-07
4.54786e-06
4.71687e-07
4.56493e-06
4.73915e-07
4.77335e-07
4.58467e-06
4.8365e-06
3.34513e-08
4.84172e-06
8.67181e-08
4.84376e-06
1.211e-07
4.84345e-06
1.48668e-07
4.84179e-06
1.76875e-07
4.839e-06
2.06425e-07
4.83561e-06
2.37463e-07
4.83247e-06
2.70626e-07
4.83047e-06
3.05784e-07
4.83034e-06
3.41683e-07
4.83241e-06
3.76283e-07
4.83644e-06
4.07233e-07
4.84156e-06
4.3248e-07
4.84657e-06
4.50912e-07
4.85047e-06
4.62731e-07
4.85275e-06
4.69412e-07
4.85383e-06
4.72832e-07
4.75413e-07
4.85576e-06
5.18241e-06
3.06251e-08
5.18692e-06
8.22082e-08
5.18911e-06
1.18907e-07
5.18911e-06
1.48669e-07
5.18787e-06
1.78115e-07
5.18576e-06
2.08534e-07
5.18325e-06
2.39972e-07
5.18111e-06
2.72765e-07
5.18017e-06
3.06727e-07
5.18108e-06
3.40771e-07
5.18415e-06
3.73213e-07
5.18916e-06
4.02223e-07
5.19533e-06
4.26307e-07
5.20151e-06
4.44735e-07
5.2065e-06
4.57742e-07
5.2095e-06
4.66415e-07
5.2102e-06
4.72126e-07
4.75996e-07
5.20962e-06
5.55348e-06
2.84863e-08
5.55732e-06
7.83655e-08
5.55962e-06
1.1661e-07
5.56001e-06
1.4827e-07
5.55932e-06
1.78813e-07
5.55798e-06
2.09873e-07
5.55642e-06
2.41528e-07
5.5553e-06
2.73885e-07
5.55532e-06
3.06712e-07
5.557e-06
3.39092e-07
5.56055e-06
3.69658e-07
5.56577e-06
3.97e-07
5.57204e-06
4.20035e-07
5.57848e-06
4.38297e-07
5.58418e-06
4.52041e-07
5.58851e-06
4.62093e-07
5.59111e-06
4.69522e-07
4.74989e-07
5.59212e-06
5.95143e-06
2.68349e-08
5.95471e-06
7.50822e-08
5.95709e-06
1.14228e-07
5.95797e-06
1.47397e-07
5.95792e-06
1.78864e-07
5.95743e-06
2.1036e-07
5.95691e-06
2.42051e-07
5.95689e-06
2.73905e-07
5.95794e-06
3.05657e-07
5.96048e-06
3.36557e-07
5.9646e-06
3.65533e-07
5.97009e-06
3.91514e-07
5.97639e-06
4.13733e-07
5.98278e-06
4.31901e-07
5.98857e-06
4.4626e-07
5.99322e-06
4.57442e-07
5.99647e-06
4.66271e-07
4.7323e-07
5.99823e-06
6.37813e-06
2.55174e-08
6.38099e-06
7.22208e-08
6.38348e-06
1.11741e-07
6.38489e-06
1.45989e-07
6.38559e-06
1.78164e-07
6.38604e-06
2.09901e-07
6.38664e-06
2.41459e-07
6.3878e-06
2.72743e-07
6.38998e-06
3.03476e-07
6.39347e-06
3.33063e-07
6.39832e-06
3.60683e-07
6.40429e-06
3.85553e-07
6.41088e-06
4.07138e-07
6.4175e-06
4.25281e-07
6.42356e-06
4.40204e-07
6.4286e-06
4.52403e-07
6.43235e-06
4.62515e-07
4.70922e-07
6.43466e-06
5.74179e-06
2.45656e-08
5.74399e-06
7.00182e-08
5.74621e-06
1.09524e-07
5.74785e-06
1.44341e-07
5.7491e-06
1.76915e-07
5.7503e-06
2.08708e-07
5.75172e-06
2.4003e-07
5.75369e-06
2.70779e-07
5.75647e-06
3.00689e-07
5.76026e-06
3.29275e-07
5.76504e-06
3.55903e-07
5.77062e-06
3.7998e-07
5.77662e-06
4.01132e-07
5.78262e-06
4.19277e-07
5.7882e-06
4.34624e-07
5.79302e-06
4.47583e-07
5.79687e-06
4.58673e-07
4.68226e-07
5.79956e-06
6.99913e-06
2.35888e-08
7.00152e-06
6.76282e-08
7.00425e-06
1.06794e-07
7.00671e-06
1.4188e-07
7.00898e-06
1.74654e-07
7.01135e-06
2.06333e-07
7.01413e-06
2.37253e-07
7.01758e-06
2.6733e-07
7.02194e-06
2.96328e-07
7.02734e-06
3.23873e-07
7.03374e-06
3.49504e-07
7.04091e-06
3.72808e-07
7.0485e-06
3.93543e-07
7.05609e-06
4.11691e-07
7.06327e-06
4.27442e-07
7.06972e-06
4.41135e-07
7.07521e-06
4.53186e-07
4.63889e-07
7.07954e-06
8.53189e-06
2.25437e-08
8.5346e-06
6.49217e-08
8.53807e-06
1.03326e-07
8.5417e-06
1.38245e-07
8.54546e-06
1.70892e-07
8.5496e-06
2.022e-07
8.55436e-06
2.32493e-07
8.55996e-06
2.61723e-07
8.56659e-06
2.89702e-07
8.5743e-06
3.1616e-07
8.58302e-06
3.40788e-07
8.5925e-06
3.63324e-07
8.60241e-06
3.83634e-07
8.61236e-06
4.01743e-07
8.62198e-06
4.1782e-07
8.63098e-06
4.32138e-07
8.63915e-06
4.45019e-07
4.56722e-07
8.64631e-06
1.04004e-05
2.13469e-08
1.04037e-05
6.16609e-08
1.04082e-05
9.8753e-08
1.04136e-05
1.32919e-07
1.04195e-05
1.64953e-07
1.04262e-05
1.95515e-07
1.04338e-05
2.24876e-07
1.04425e-05
2.53028e-07
1.04524e-05
2.79838e-07
1.04634e-05
3.05128e-07
1.04755e-05
3.28708e-07
1.04884e-05
3.50432e-07
1.05018e-05
3.70242e-07
1.05153e-05
3.88186e-07
1.05287e-05
4.04407e-07
1.05418e-05
4.19115e-07
1.05542e-05
4.32535e-07
4.44899e-07
1.05661e-05
1.26783e-05
1.98623e-08
1.26825e-05
5.74642e-08
1.26887e-05
9.25013e-08
1.26965e-05
1.25146e-07
1.27056e-05
1.55898e-07
1.27159e-05
1.85181e-07
1.27276e-05
2.13193e-07
1.27407e-05
2.39945e-07
1.27551e-05
2.65354e-07
1.2771e-05
2.89311e-07
1.2788e-05
3.11707e-07
1.28059e-05
3.32473e-07
1.28246e-05
3.51591e-07
1.28436e-05
3.69115e-07
1.28629e-05
3.85147e-07
1.28822e-05
3.99838e-07
1.29014e-05
4.13324e-07
4.25804e-07
1.29205e-05
1.54552e-05
1.78869e-08
1.54609e-05
5.17529e-08
1.54697e-05
8.36976e-08
1.5481e-05
1.13811e-07
1.54945e-05
1.42391e-07
1.551e-05
1.69668e-07
1.55275e-05
1.9575e-07
1.55468e-05
2.20638e-07
1.55679e-05
2.44276e-07
1.55906e-05
2.66592e-07
1.56148e-05
2.8752e-07
1.56402e-05
3.07022e-07
1.56667e-05
3.25093e-07
1.56941e-05
3.41769e-07
1.57221e-05
3.57111e-07
1.57507e-05
3.7121e-07
1.57799e-05
3.84124e-07
3.96021e-07
1.58097e-05
1.88404e-05
1.51161e-08
1.88485e-05
4.367e-08
1.88611e-05
7.10468e-08
1.88777e-05
9.72853e-08
1.88975e-05
1.22527e-07
1.89204e-05
1.46828e-07
1.89459e-05
1.7018e-07
1.8974e-05
1.9254e-07
1.90045e-05
2.13843e-07
1.9037e-05
2.34017e-07
1.90716e-05
2.52999e-07
1.91078e-05
2.70748e-07
1.91457e-05
2.87247e-07
1.9185e-05
3.02501e-07
1.92255e-05
3.16529e-07
1.92674e-05
3.29375e-07
1.93105e-05
3.41042e-07
3.51672e-07
1.93548e-05
2.29675e-05
1.0972e-08
2.29794e-05
3.17937e-08
2.29979e-05
5.24709e-08
2.30222e-05
7.30471e-08
2.30512e-05
9.34697e-08
2.30845e-05
1.13555e-07
2.31215e-05
1.33136e-07
2.3162e-05
1.52087e-07
2.32055e-05
1.70294e-07
2.32519e-05
1.8764e-07
2.33009e-05
2.04028e-07
2.33523e-05
2.19389e-07
2.34058e-05
2.33678e-07
2.34615e-05
2.46871e-07
2.3519e-05
2.58952e-07
2.35785e-05
2.69928e-07
2.36397e-05
2.79774e-07
2.88603e-07
2.37028e-05
1.68144e-05
7.25751e-09
1.68249e-05
2.13333e-08
1.6841e-05
3.63126e-08
1.68618e-05
5.22568e-08
1.68865e-05
6.88361e-08
1.69144e-05
8.55937e-08
1.69453e-05
1.02232e-07
1.69788e-05
1.18569e-07
1.70147e-05
1.34435e-07
1.70527e-05
1.49663e-07
1.70926e-05
1.64117e-07
1.71343e-05
1.77703e-07
1.71776e-05
1.90355e-07
1.72224e-05
2.02027e-07
1.72687e-05
2.12688e-07
1.73163e-05
2.22329e-07
1.73652e-05
2.30924e-07
2.3857e-07
1.74152e-05
1.46384e-05
3.4215e-09
1.46491e-05
1.06264e-08
1.46653e-05
2.00878e-08
1.46858e-05
3.18106e-08
1.47097e-05
4.4968e-08
1.47365e-05
5.87641e-08
1.47659e-05
7.28102e-08
1.47976e-05
8.68798e-08
1.48313e-05
1.0073e-07
1.48668e-05
1.14131e-07
1.4904e-05
1.26918e-07
1.49427e-05
1.38982e-07
1.49829e-05
1.50241e-07
1.50243e-05
1.60631e-07
1.50668e-05
1.70107e-07
1.51105e-05
1.78647e-07
1.51552e-05
1.86212e-07
1.92873e-07
1.52009e-05
1.27442e-05
-6.30266e-10
1.27553e-05
-4.78465e-10
1.27715e-05
3.85129e-09
1.27913e-05
1.19921e-08
1.28141e-05
2.22294e-08
1.28394e-05
3.34487e-08
1.28669e-05
4.52821e-08
1.28963e-05
5.74684e-08
1.29274e-05
6.96627e-08
1.296e-05
8.15684e-08
1.29939e-05
9.29903e-08
1.30291e-05
1.03809e-07
1.30654e-05
1.13936e-07
1.31027e-05
1.23295e-07
1.3141e-05
1.3183e-07
1.31801e-05
1.3952e-07
1.322e-05
1.46345e-07
1.52384e-07
1.32605e-05
1.10953e-05
-4.97734e-09
1.1107e-05
-1.22048e-08
1.11232e-05
-1.2342e-08
1.11422e-05
-6.96767e-09
1.11635e-05
8.66871e-10
1.11871e-05
9.88825e-09
1.12125e-05
1.98603e-08
1.12395e-05
3.05002e-08
1.12678e-05
4.12999e-08
1.12975e-05
5.1949e-08
1.13282e-05
6.22512e-08
1.13599e-05
7.20683e-08
1.13926e-05
8.12942e-08
1.1426e-05
8.9843e-08
1.14602e-05
9.76468e-08
1.14951e-05
1.04673e-07
1.15305e-05
1.10886e-07
1.1631e-07
1.15666e-05
9.66019e-06
-9.95095e-09
9.67273e-06
-2.47477e-08
9.68873e-06
-2.83377e-08
9.70669e-06
-2.4929e-08
9.72663e-06
-1.90745e-08
9.74832e-06
-1.18005e-08
9.77146e-06
-3.28395e-09
9.79577e-06
6.19659e-09
9.82117e-06
1.58965e-08
9.84761e-06
2.55071e-08
9.875e-06
3.48601e-08
9.90321e-06
4.38616e-08
9.93214e-06
5.23617e-08
9.96173e-06
6.02517e-08
9.99191e-06
6.74727e-08
1.00226e-05
7.39933e-08
1.00537e-05
7.98001e-08
8.49792e-08
1.0085e-05
8.41138e-06
-1.59773e-08
8.4249e-06
-3.82698e-08
8.44028e-06
-4.37156e-08
8.45703e-06
-4.1679e-08
8.47562e-06
-3.76687e-08
8.4957e-06
-3.1873e-08
8.5168e-06
-2.43858e-08
8.53889e-06
-1.5896e-08
8.56179e-06
-7.00617e-09
8.58545e-06
1.8483e-09
8.60987e-06
1.04405e-08
8.63493e-06
1.87993e-08
8.66051e-06
2.67858e-08
8.68659e-06
3.41735e-08
8.71312e-06
4.09426e-08
8.74005e-06
4.7063e-08
8.76735e-06
5.24965e-08
5.72438e-08
8.79509e-06
7.32488e-06
-2.35684e-08
7.33961e-06
-5.30091e-08
7.35405e-06
-5.81493e-08
7.36928e-06
-5.69138e-08
7.38604e-06
-5.44268e-08
7.40389e-06
-4.97225e-08
7.42257e-06
-4.30686e-08
7.44209e-06
-3.54116e-08
7.46243e-06
-2.73421e-08
7.48345e-06
-1.91764e-08
7.50501e-06
-1.11215e-08
7.52722e-06
-3.40856e-09
7.5498e-06
4.20934e-09
7.57276e-06
1.12117e-08
7.59603e-06
1.76694e-08
7.61963e-06
2.34691e-08
7.64345e-06
2.86732e-08
3.33728e-08
7.66732e-06
6.37944e-06
-3.29403e-08
6.39472e-06
-6.82924e-08
6.40828e-06
-7.17101e-08
6.42259e-06
-7.1224e-08
6.438e-06
-6.98333e-08
6.4541e-06
-6.58195e-08
6.47088e-06
-5.98523e-08
6.48843e-06
-5.29623e-08
6.5067e-06
-4.56133e-08
6.52557e-06
-3.80459e-08
6.54492e-06
-3.0475e-08
6.5646e-06
-2.30803e-08
6.5847e-06
-1.58911e-08
6.60508e-06
-9.16915e-09
6.62562e-06
-2.87373e-09
6.64641e-06
2.6779e-09
6.66741e-06
7.67251e-09
1.21755e-08
6.68861e-06
5.5594e-06
-4.68747e-08
5.57677e-06
-8.56658e-08
5.59519e-06
-9.01236e-08
5.61666e-06
-9.26934e-08
5.64004e-06
-9.32159e-08
5.66431e-06
-9.00935e-08
5.68896e-06
-8.44976e-08
5.71357e-06
-7.75798e-08
5.73783e-06
-6.98687e-08
5.76148e-06
-6.17e-08
5.78439e-06
-5.3376e-08
5.80645e-06
-4.51444e-08
5.82771e-06
-3.71556e-08
5.84815e-06
-2.96091e-08
5.86789e-06
-2.26106e-08
5.88695e-06
-1.6381e-08
5.90544e-06
-1.08174e-08
-6.39825e-09
5.92401e-06
4.90731e-06
-1.26575e-07
4.97267e-06
-1.51026e-07
5.0273e-06
-1.44752e-07
5.07093e-06
-1.36331e-07
5.10414e-06
-1.26426e-07
5.12892e-06
-1.14871e-07
5.14726e-06
-1.02839e-07
5.16081e-06
-9.11309e-08
5.17094e-06
-7.99995e-08
5.17878e-06
-6.95388e-08
5.18522e-06
-5.98151e-08
5.19094e-06
-5.08645e-08
5.19647e-06
-4.26829e-08
5.20216e-06
-3.52999e-08
5.20827e-06
-2.87178e-08
5.21489e-06
-2.30005e-08
5.22214e-06
-1.8073e-08
-1.43532e-08
5.2301e-06
4.0761e-06
3.92508e-06
3.78032e-06
3.64399e-06
3.51757e-06
3.4027e-06
3.29986e-06
3.20873e-06
3.12873e-06
3.05919e-06
2.99937e-06
2.94851e-06
2.90583e-06
2.87053e-06
2.84181e-06
2.81881e-06
2.80073e-06
2.78638e-06
-7.65423e-07
7.65423e-07
-1.47511e-06
7.09691e-07
-2.07728e-06
6.02168e-07
-2.55e-06
4.72719e-07
-2.74629e-06
1.96293e-07
-2.44902e-06
-2.97279e-07
-1.60949e-06
-8.3953e-07
-3.75345e-07
-1.23414e-06
1.06153e-06
-1.43688e-06
2.55192e-06
-1.49039e-06
3.96654e-06
-1.41463e-06
5.23128e-06
-1.26473e-06
6.3083e-06
-1.07703e-06
7.18025e-06
-8.71946e-07
7.84014e-06
-6.5989e-07
8.28409e-06
-4.43951e-07
8.50584e-06
-2.21748e-07
8.49704e-06
8.7926e-09
8.22692e-06
2.70127e-07
7.70261e-06
5.24303e-07
6.93644e-06
7.66176e-07
5.95537e-06
9.81071e-07
4.80775e-06
1.14762e-06
3.56997e-06
1.23778e-06
2.34989e-06
1.22008e-06
1.30075e-06
1.04913e-06
5.4286e-07
7.57895e-07
-1.41159e-08
5.56975e-07
-4.91251e-07
4.77135e-07
-9.1623e-07
4.24978e-07
-1.27117e-06
3.54942e-07
-1.45374e-06
1.8257e-07
-1.35774e-06
-9.59981e-08
-8.87623e-07
-4.7012e-07
1.05263e-08
-8.98149e-07
1.08068e-06
-1.07016e-06
1.95556e-06
-8.74871e-07
2.43034e-06
-4.74784e-07
2.49996e-06
-6.96187e-08
2.30474e-06
1.95216e-07
2.12974e-06
1.75003e-07
2.10873e-06
2.10082e-08
2.11402e-06
-5.28753e-09
1.99365e-06
1.2037e-07
1.57632e-06
4.17328e-07
7.8271e-07
7.9361e-07
-3.18605e-07
1.10131e-06
-1.59963e-06
1.28102e-06
-2.96426e-06
1.36464e-06
-4.33823e-06
1.37396e-06
-5.6646e-06
1.32637e-06
-6.9025e-06
1.2379e-06
-8.02529e-06
1.12279e-06
-9.01792e-06
9.92631e-07
-9.87399e-06
8.56068e-07
-1.05931e-05
7.19105e-07
-1.11787e-05
5.85566e-07
-1.16362e-05
4.57587e-07
-1.19725e-05
3.36269e-07
-1.21951e-05
2.22561e-07
-1.23129e-05
1.17865e-07
-1.2336e-05
2.30366e-08
-1.22833e-05
-5.2717e-08
-1.21671e-05
-1.1621e-07
-1.19951e-05
-1.71911e-07
-1.17729e-05
-2.22243e-07
-1.15045e-05
-2.68407e-07
-1.11935e-05
-3.1099e-07
-1.08432e-05
-3.50346e-07
-1.04564e-05
-3.86744e-07
-1.0036e-05
-4.20403e-07
-9.58452e-06
-4.51483e-07
-9.10446e-06
-4.80063e-07
-8.59836e-06
-5.06106e-07
-8.06892e-06
-5.29439e-07
-7.51917e-06
-5.4975e-07
-6.95256e-06
-5.66609e-07
-6.37304e-06
-5.79517e-07
-5.78506e-06
-5.87978e-07
-5.19348e-06
-5.91581e-07
-4.60341e-06
-5.90074e-07
-4.02001e-06
-5.83393e-07
-3.44832e-06
-5.71689e-07
-2.89294e-06
-5.55382e-07
-2.35779e-06
-5.35157e-07
-1.84602e-06
-5.11765e-07
-1.36007e-06
-4.85954e-07
-9.01479e-07
-4.58588e-07
-4.711e-07
-4.30379e-07
-6.9448e-08
-4.01652e-07
3.04e-07
-3.73448e-07
6.4945e-07
-3.4545e-07
9.68032e-07
-3.18581e-07
1.26087e-06
-2.9284e-07
1.52917e-06
-2.68302e-07
1.77421e-06
-2.45034e-07
1.99727e-06
-2.23059e-07
2.19963e-06
-2.0236e-07
2.38252e-06
-1.82893e-07
2.54712e-06
-1.64605e-07
2.6945e-06
-1.47371e-07
2.82546e-06
-1.30968e-07
2.94075e-06
-1.15285e-07
3.04111e-06
-1.00367e-07
3.12722e-06
-8.6101e-08
3.19925e-06
-7.20316e-08
3.25717e-06
-5.79232e-08
3.30036e-06
-4.31863e-08
3.32277e-06
-2.24154e-08
3.31194e-06
1.08303e-08
3.25893e-06
5.30074e-08
3.16344e-06
9.54954e-08
3.02848e-06
1.34958e-07
2.86096e-06
1.67526e-07
2.67307e-06
1.87882e-07
2.48091e-06
1.92168e-07
2.30138e-06
1.79529e-07
2.14827e-06
1.53102e-07
2.02958e-06
1.18697e-07
1.94739e-06
8.21879e-08
1.8997e-06
4.76929e-08
1.88228e-06
1.74184e-08
1.88779e-06
-5.51538e-09
1.90839e-06
-2.06002e-08
1.93603e-06
-2.76321e-08
1.96532e-06
-2.92956e-08
1.99391e-06
-2.85914e-08
2.02137e-06
-2.7462e-08
2.04854e-06
-2.71653e-08
2.07656e-06
-2.80159e-08
2.10647e-06
-2.99117e-08
2.13942e-06
-3.29528e-08
2.17575e-06
-3.63339e-08
2.21428e-06
-3.85284e-08
2.25377e-06
-3.94898e-08
2.2995e-06
-4.57327e-08
2.37189e-06
-7.23809e-08
2.49602e-06
-1.24138e-07
2.65062e-06
-1.54601e-07
2.70543e-06
-5.48086e-08
2.34837e-06
3.57066e-07
1.16507e-06
1.1833e-06
-7.55637e-07
1.92071e-06
-2.83895e-06
2.08332e-06
-4.61479e-06
1.77584e-06
-5.93861e-06
1.32382e-06
-6.83219e-06
8.93576e-07
-7.36772e-06
5.35526e-07
-7.61775e-06
2.50029e-07
-7.64318e-06
2.54351e-08
-7.50339e-06
-1.39787e-07
-7.22491e-06
-2.78486e-07
-6.81406e-06
-4.1085e-07
-6.27066e-06
-5.43397e-07
-5.59293e-06
-6.77735e-07
-4.78104e-06
-8.11887e-07
-3.84107e-06
-9.39972e-07
-2.78875e-06
-1.05232e-06
-1.65052e-06
-1.13822e-06
-4.59594e-07
-1.19093e-06
7.32796e-07
-1.19239e-06
1.87046e-06
-1.13766e-06
2.91952e-06
-1.04907e-06
3.85788e-06
-9.38352e-07
4.67535e-06
-8.17475e-07
5.37191e-06
-6.96559e-07
5.95162e-06
-5.79711e-07
6.41883e-06
-4.67208e-07
6.78917e-06
-3.70341e-07
7.04919e-06
-2.60022e-07
7.08611e-06
-3.69188e-08
6.73552e-06
3.5059e-07
5.97361e-06
7.61916e-07
4.89757e-06
1.07604e-06
3.72799e-06
1.16958e-06
2.72842e-06
9.99567e-07
2.123e-06
6.05423e-07
2.00004e-06
1.22959e-07
2.27777e-06
-2.77725e-07
-4.00388e-07
2.67815e-06
-1.46927e-07
9.1235e-07
-3.22654e-07
8.85419e-07
-3.7709e-07
6.56604e-07
-2.04185e-07
2.99814e-07
3.65724e-07
-3.73616e-07
1.33431e-06
-1.26586e-06
2.52307e-06
-2.02829e-06
3.78455e-06
-2.49563e-06
5.00379e-06
-2.65611e-06
6.09901e-06
-2.58561e-06
7.05135e-06
-2.36696e-06
7.85599e-06
-2.06937e-06
8.51812e-06
-1.73916e-06
9.04764e-06
-1.40147e-06
9.45519e-06
-1.06744e-06
9.75121e-06
-7.39963e-07
9.94745e-06
-4.17989e-07
1.00552e-05
-9.9009e-08
1.00912e-05
2.34207e-07
1.00277e-05
5.87804e-07
9.82881e-06
9.65034e-07
9.45386e-06
1.35602e-06
8.86569e-06
1.73578e-06
8.04129e-06
2.06218e-06
6.9825e-06
2.27886e-06
5.708e-06
2.32364e-06
4.28992e-06
2.17597e-06
2.96226e-06
1.88464e-06
1.92384e-06
1.51555e-06
1.21343e-06
1.13539e-06
7.95696e-07
7.72675e-07
5.99068e-07
3.79198e-07
6.44067e-07
-1.40997e-07
1.01563e-06
-8.41681e-07
1.63433e-06
-1.51686e-06
2.23627e-06
-1.67209e-06
2.5873e-06
-1.2259e-06
2.66874e-06
-5.56228e-07
2.57802e-06
2.10983e-08
2.41341e-06
3.59831e-07
2.03118e-06
5.57234e-07
1.22139e-06
8.30796e-07
-1.0295e-07
1.31905e-06
-1.78955e-06
1.80697e-06
-3.54466e-06
2.17244e-06
-5.19852e-06
2.44747e-06
-6.69851e-06
2.60131e-06
-8.03729e-06
2.6198e-06
-9.19753e-06
2.52488e-06
-1.01702e-05
2.34662e-06
-1.0959e-05
2.1152e-06
-1.15783e-05
1.8572e-06
-1.20489e-05
1.59337e-06
-1.23943e-05
1.33802e-06
-1.26377e-05
1.09951e-06
-1.28002e-05
8.81608e-07
-1.28994e-05
6.8473e-07
-1.29492e-05
5.07412e-07
-1.29603e-05
3.47363e-07
-1.29398e-05
2.02057e-07
-1.28913e-05
6.93717e-08
-1.28144e-05
-5.38839e-08
-1.26974e-05
-1.69678e-07
-1.25335e-05
-2.80189e-07
-1.23217e-05
-3.83633e-07
-1.20641e-05
-4.79895e-07
-1.17633e-05
-5.69216e-07
-1.14223e-05
-6.5197e-07
-1.10441e-05
-7.28571e-07
-1.06314e-05
-7.99448e-07
-1.01868e-05
-8.65006e-07
-9.71268e-06
-9.25569e-07
-9.21144e-06
-9.81304e-07
-8.6854e-06
-1.03214e-06
-8.13712e-06
-1.07772e-06
-7.56948e-06
-1.11739e-06
-6.98586e-06
-1.15022e-06
-6.39023e-06
-1.17515e-06
-5.78711e-06
-1.1911e-06
-5.18149e-06
-1.1972e-06
-4.57863e-06
-1.19294e-06
-3.98377e-06
-1.17825e-06
-3.40185e-06
-1.15361e-06
-2.83727e-06
-1.11996e-06
-2.29377e-06
-1.07866e-06
-1.77433e-06
-1.03121e-06
-1.28112e-06
-9.79157e-07
-8.15534e-07
-9.24177e-07
-3.78048e-07
-8.67865e-07
3.08771e-08
-8.10577e-07
4.11574e-07
-7.54145e-07
7.65086e-07
-6.98962e-07
1.0923e-06
-6.45799e-07
1.39439e-06
-5.94928e-07
1.67264e-06
-5.46551e-07
1.92839e-06
-5.00783e-07
2.16298e-06
-4.57649e-07
2.37773e-06
-4.17107e-07
2.5739e-06
-3.79064e-07
2.75268e-06
-3.4339e-07
2.91522e-06
-3.09907e-07
3.06263e-06
-2.78381e-07
3.19595e-06
-2.48602e-07
3.31599e-06
-2.20406e-07
3.42344e-06
-1.93556e-07
3.51912e-06
-1.67709e-07
3.60359e-06
-1.42393e-07
3.6774e-06
-1.16993e-07
3.74632e-06
-9.13376e-08
3.82103e-06
-6.38812e-08
3.90522e-06
-3.11834e-08
3.99388e-06
6.8405e-09
4.07848e-06
5.03539e-08
4.14952e-06
9.64866e-08
4.20003e-06
1.37367e-07
4.22673e-06
1.65472e-07
4.23097e-06
1.7529e-07
4.21785e-06
1.66219e-07
4.19436e-06
1.42191e-07
4.16737e-06
1.09176e-07
4.14188e-06
7.31783e-08
4.11944e-06
3.98576e-08
4.09979e-06
1.41382e-08
4.08295e-06
-3.75685e-09
4.06847e-06
-1.31569e-08
4.0553e-06
-1.61183e-08
4.04115e-06
-1.44414e-08
4.02193e-06
-8.24903e-09
3.99228e-06
2.48765e-09
3.94699e-06
1.72756e-08
3.88277e-06
3.43091e-08
3.80048e-06
4.93314e-08
3.70611e-06
5.80402e-08
3.61037e-06
5.72064e-08
3.52662e-06
4.42652e-08
3.47207e-06
8.81658e-09
3.47152e-06
-7.18269e-08
3.52782e-06
-1.80441e-07
3.49598e-06
-1.22761e-07
2.90759e-06
5.33576e-07
1.12491e-06
2.13975e-06
-1.45357e-06
3.76177e-06
-3.77181e-06
4.23894e-06
-5.36469e-06
3.6762e-06
-6.3007e-06
2.71185e-06
-6.78311e-06
1.80623e-06
-7.00031e-06
1.11078e-06
-7.07277e-06
6.07983e-07
-7.05626e-06
2.3352e-07
-6.96191e-06
-6.89138e-08
-6.76251e-06
-3.39192e-07
-6.44203e-06
-5.9896e-07
-5.99885e-06
-8.54033e-07
-5.43086e-06
-1.11139e-06
-4.73517e-06
-1.37343e-06
-3.91046e-06
-1.63659e-06
-2.96117e-06
-1.88926e-06
-1.90086e-06
-2.11263e-06
-7.54258e-07
-2.28482e-06
4.33135e-07
-2.37832e-06
1.60703e-06
-2.36628e-06
2.72759e-06
-2.25822e-06
3.76127e-06
-2.08275e-06
4.68832e-06
-1.8654e-06
5.50031e-06
-1.62946e-06
6.19696e-06
-1.39321e-06
6.78569e-06
-1.16844e-06
7.27873e-06
-9.60248e-07
7.67159e-06
-7.63206e-07
7.97931e-06
-5.6774e-07
8.30105e-06
-3.58659e-07
8.69358e-06
-4.19384e-08
9.00845e-06
4.47044e-07
9.05302e-06
1.03147e-06
8.76813e-06
1.45447e-06
8.24545e-06
1.52225e-06
7.54878e-06
1.30209e-06
6.65365e-06
1.01809e-06
5.68926e-06
6.86664e-07
4.12598e-07
4.87628e-06
3.36309e-07
5.7604e-07
4.7963e-07
7.42098e-07
7.8496e-07
3.51273e-07
1.61551e-06
-5.30734e-07
2.90587e-06
-1.66398e-06
4.27602e-06
-2.63601e-06
5.47088e-06
-3.22316e-06
6.40294e-06
-3.42768e-06
7.09579e-06
-3.34896e-06
7.60774e-06
-3.09756e-06
7.99813e-06
-2.75735e-06
8.30914e-06
-2.38039e-06
8.56489e-06
-1.9949e-06
8.77714e-06
-1.61372e-06
8.95034e-06
-1.24064e-06
9.08511e-06
-8.74741e-07
9.18006e-06
-5.12936e-07
9.23304e-06
-1.5199e-07
9.25512e-06
2.12129e-07
9.25811e-06
5.84816e-07
9.24866e-06
9.74488e-07
9.21532e-06
1.38936e-06
9.12094e-06
1.83016e-06
8.90308e-06
2.28004e-06
8.48655e-06
2.69539e-06
7.8053e-06
3.0049e-06
6.85464e-06
3.12663e-06
5.73801e-06
3.00126e-06
4.61987e-06
2.63369e-06
3.66305e-06
2.09221e-06
2.98545e-06
1.45028e-06
2.61937e-06
7.45275e-07
2.49895e-06
-2.05795e-08
2.62106e-06
-9.63786e-07
2.80946e-06
-1.70526e-06
2.77866e-06
-1.64128e-06
2.44523e-06
-8.92478e-07
1.87039e-06
1.86108e-08
1.08885e-06
8.0264e-07
-3.09971e-08
1.47968e-06
-1.56612e-06
2.09236e-06
-3.37222e-06
2.6369e-06
-5.13557e-06
3.0824e-06
-6.71111e-06
3.3825e-06
-8.06126e-06
3.52259e-06
-9.14329e-06
3.52951e-06
-9.96435e-06
3.42237e-06
-1.05687e-05
3.22411e-06
-1.10078e-05
2.96397e-06
-1.13319e-05
2.67081e-06
-1.1585e-05
2.36824e-06
-1.18e-05
2.07225e-06
-1.1998e-05
1.7913e-06
-1.21881e-05
1.52813e-06
-1.23705e-05
1.28199e-06
-1.25396e-05
1.05063e-06
-1.26864e-05
8.31574e-07
-1.28018e-05
6.22755e-07
-1.28772e-05
4.22791e-07
-1.29062e-05
2.31107e-07
-1.28837e-05
4.68391e-08
-1.28094e-05
-1.28231e-07
-1.26832e-05
-2.95819e-07
-1.25088e-05
-4.54584e-07
-1.22884e-05
-6.04065e-07
-1.20242e-05
-7.44067e-07
-1.17188e-05
-8.74616e-07
-1.13748e-05
-9.95972e-07
-1.09948e-05
-1.10859e-06
-1.05812e-05
-1.21306e-06
-1.01362e-05
-1.31e-06
-9.66183e-06
-1.39993e-06
-9.16001e-06
-1.48313e-06
-8.63264e-06
-1.55951e-06
-8.08188e-06
-1.62848e-06
-7.51035e-06
-1.68892e-06
-6.92132e-06
-1.73926e-06
-6.31885e-06
-1.77762e-06
-5.70779e-06
-1.80215e-06
-5.09366e-06
-1.81133e-06
-4.48233e-06
-1.80427e-06
-3.87967e-06
-1.78091e-06
-3.29119e-06
-1.74209e-06
-2.72173e-06
-1.68942e-06
-2.17525e-06
-1.62514e-06
-1.65474e-06
-1.55172e-06
-1.1622e-06
-1.4717e-06
-6.98773e-07
-1.3876e-06
-2.6439e-07
-1.30225e-06
1.39918e-07
-1.21489e-06
5.15637e-07
-1.12986e-06
8.63744e-07
-1.04707e-06
1.18541e-06
-9.67462e-07
1.482e-06
-8.9152e-07
1.75497e-06
-8.19521e-07
2.00577e-06
-7.51585e-07
2.23583e-06
-6.87707e-07
2.44652e-06
-6.27795e-07
2.63914e-06
-5.7169e-07
2.81494e-06
-5.19184e-07
2.97505e-06
-4.70024e-07
3.1206e-06
-4.23924e-07
3.25259e-06
-3.80594e-07
3.37193e-06
-3.39748e-07
3.47944e-06
-3.01061e-07
3.5759e-06
-2.6417e-07
3.66208e-06
-2.28573e-07
3.73856e-06
-1.93476e-07
3.80553e-06
-1.58306e-07
3.86426e-06
-1.22611e-07
3.91901e-06
-8.59398e-08
3.97454e-06
-4.86861e-08
4.03625e-06
-1.13578e-08
4.10676e-06
2.59835e-08
4.18451e-06
5.96114e-08
4.26329e-06
8.66974e-08
4.33489e-06
1.03688e-07
4.39233e-06
1.08776e-07
4.43174e-06
1.02782e-07
4.45222e-06
8.87002e-08
4.45487e-06
7.0524e-08
4.44247e-06
5.22558e-08
4.41928e-06
3.73278e-08
4.38789e-06
2.76389e-08
4.35087e-06
2.38606e-08
4.31016e-06
2.45881e-08
4.2681e-06
2.76178e-08
4.22837e-06
3.14872e-08
4.19464e-06
3.62169e-08
4.16807e-06
4.38447e-08
4.14533e-06
5.70539e-08
4.11867e-06
7.59895e-08
4.07968e-06
9.70241e-08
4.02396e-06
1.12932e-07
3.95686e-06
1.11362e-07
3.89791e-06
6.77677e-08
3.86264e-06
-3.65575e-08
3.76184e-06
-7.96386e-08
3.23538e-06
4.03693e-07
1.65506e-06
2.1139e-06
-8.24231e-07
4.61905e-06
-2.99892e-06
5.93646e-06
-4.30307e-06
5.54309e-06
-4.95095e-06
4.32408e-06
-5.30464e-06
3.06555e-06
-5.56608e-06
2.06767e-06
-5.77596e-06
1.32065e-06
-5.90956e-06
7.41578e-07
-5.93974e-06
2.63707e-07
-5.85537e-06
-1.53282e-07
-5.6543e-06
-5.40268e-07
-5.33893e-06
-9.14323e-07
-4.90667e-06
-1.2863e-06
-4.35384e-06
-1.66421e-06
-3.67618e-06
-2.05109e-06
-2.87057e-06
-2.4422e-06
-1.93973e-06
-2.82011e-06
-8.95917e-07
-3.15645e-06
2.27668e-07
-3.40841e-06
1.37903e-06
-3.52968e-06
2.51108e-06
-3.49833e-06
3.58415e-06
-3.33129e-06
4.56596e-06
-3.06456e-06
5.4382e-06
-2.73765e-06
6.19476e-06
-2.38602e-06
6.83844e-06
-2.03689e-06
7.37729e-06
-1.70729e-06
7.82198e-06
-1.40494e-06
8.18589e-06
-1.12711e-06
8.47721e-06
-8.59064e-07
8.69708e-06
-5.78523e-07
8.91076e-06
-2.55616e-07
9.22102e-06
1.36774e-07
9.63956e-06
6.12931e-07
1.00232e-05
1.0708e-06
1.01947e-05
1.35076e-06
1.00334e-05
1.46344e-06
9.46479e-06
1.58667e-06
8.43406e-06
1.71739e-06
1.8522e-06
6.99446e-06
1.01187e-07
4.74853e-07
4.46319e-07
3.96966e-07
1.55562e-06
-7.58027e-07
3.2009e-06
-2.17601e-06
4.76615e-06
-3.22923e-06
5.9101e-06
-3.77995e-06
6.60821e-06
-3.92126e-06
6.98031e-06
-3.79978e-06
7.16708e-06
-3.53573e-06
7.273e-06
-3.20348e-06
7.35723e-06
-2.84158e-06
7.44498e-06
-2.46814e-06
7.54129e-06
-2.09122e-06
7.64116e-06
-1.71359e-06
7.73563e-06
-1.33511e-06
7.81555e-06
-9.54661e-07
7.87407e-06
-5.71455e-07
7.90855e-06
-1.86471e-07
7.92068e-06
1.99995e-07
7.91685e-06
5.88648e-07
7.90968e-06
9.81664e-07
7.91482e-06
1.38422e-06
7.93923e-06
1.80576e-06
7.9637e-06
2.25557e-06
7.93184e-06
2.72725e-06
7.75885e-06
3.17789e-06
7.36745e-06
3.51803e-06
6.7358e-06
3.63291e-06
5.92814e-06
3.44136e-06
5.07963e-06
2.94071e-06
4.3408e-06
2.18911e-06
3.77989e-06
1.30619e-06
3.40901e-06
3.50301e-07
3.22952e-06
-7.84295e-07
2.848e-06
-1.32374e-06
1.92253e-06
-7.15813e-07
6.28006e-07
4.02043e-07
-8.87463e-07
1.53408e-06
-2.51718e-06
2.43236e-06
-4.19254e-06
3.15504e-06
-5.80286e-06
3.70267e-06
-7.22336e-06
4.0574e-06
-8.3694e-06
4.22844e-06
-9.23275e-06
4.24586e-06
-9.85234e-06
4.14217e-06
-1.02756e-05
3.95278e-06
-1.05606e-05
3.70739e-06
-1.07674e-05
3.43087e-06
-1.09458e-05
3.14236e-06
-1.11287e-05
2.85373e-06
-1.13308e-05
2.57037e-06
-1.15519e-05
2.29334e-06
-1.17823e-05
2.02171e-06
-1.20085e-05
1.75426e-06
-1.22168e-05
1.49029e-06
-1.23959e-05
1.22976e-06
-1.25375e-05
9.73209e-07
-1.26363e-05
7.21511e-07
-1.26892e-05
4.75713e-07
-1.26949e-05
2.36796e-07
-1.26536e-05
5.58318e-09
-1.25652e-05
-2.16659e-07
-1.24317e-05
-4.29347e-07
-1.22547e-05
-6.31559e-07
-1.20361e-05
-8.22621e-07
-1.1778e-05
-1.00217e-06
-1.14825e-05
-1.17018e-06
-1.11515e-05
-1.32697e-06
-1.07869e-05
-1.47316e-06
-1.03904e-05
-1.60959e-06
-9.96318e-06
-1.73719e-06
-9.50634e-06
-1.85677e-06
-9.02071e-06
-1.96876e-06
-8.5072e-06
-2.07302e-06
-7.96707e-06
-2.16861e-06
-7.40227e-06
-2.25373e-06
-6.81574e-06
-2.32579e-06
-6.21165e-06
-2.3817e-06
-5.59542e-06
-2.41838e-06
-4.97349e-06
-2.43326e-06
-4.35293e-06
-2.42484e-06
-3.74083e-06
-2.39301e-06
-3.14381e-06
-2.3391e-06
-2.56755e-06
-2.26568e-06
-2.01654e-06
-2.17615e-06
-1.49393e-06
-2.07433e-06
-1.00163e-06
-1.964e-06
-5.40594e-07
-1.84864e-06
-1.11785e-07
-1.73106e-06
2.88157e-07
-1.61483e-06
6.57662e-07
-1.49937e-06
9.98711e-07
-1.38812e-06
1.31297e-06
-1.28172e-06
1.6021e-06
-1.18065e-06
1.86775e-06
-1.08517e-06
2.11152e-06
-9.95358e-07
2.33496e-06
-9.1114e-07
2.5395e-06
-8.32335e-07
2.7265e-06
-7.5869e-07
2.89722e-06
-6.89902e-07
3.05283e-06
-6.25634e-07
3.19443e-06
-5.65524e-07
3.32303e-06
-5.092e-07
3.43957e-06
-4.56289e-07
3.5449e-06
-4.06388e-07
3.63978e-06
-3.59055e-07
3.725e-06
-3.13787e-07
3.80156e-06
-2.70044e-07
3.87069e-06
-2.27431e-07
3.9336e-06
-1.85519e-07
3.99137e-06
-1.43715e-07
4.04474e-06
-1.02051e-07
4.0946e-06
-6.12215e-08
4.14289e-06
-2.23067e-08
4.19046e-06
1.20425e-08
4.23728e-06
3.9875e-08
4.28158e-06
5.93878e-08
4.32032e-06
7.00425e-08
4.35034e-06
7.27554e-08
4.36943e-06
6.96098e-08
4.37667e-06
6.32911e-08