/*--------------------------------*- C++ -*----------------------------------*\
| =========                 |                                                 |
| \\      /  F ield         | OpenFOAM: The Open Source CFD Toolbox           |
|  \\    /   O peration     | Version:  2112                                  |
|   \\  /    A nd           | Website:  www.openfoam.com                      |
|    \\/     M anipulation  |                                                 |
\*---------------------------------------------------------------------------*/
FoamFile
{
    version     2.0;
    format      ascii;
    arch        "LSB;label=32;scalar=64";
    class       volVectorField;
    location    "0.091";
    object      U;
}
// * * * * * * * * * * * * * * * * * * * * * * * * * * * * * * * * * * * * * //

dimensions      [0 1 -1 0 0 0 0];

internalField   nonuniform List<vector> 
12225
(
(9.72218 0.0192407 0)
(9.5899 0.0315347 0)
(9.34644 0.0563166 0)
(9.00981 0.0853606 0)
(8.61371 0.0945007 0)
(8.26063 0.0817211 0)
(7.98733 0.0638228 0)
(7.76572 0.0490077 0)
(7.57399 0.0385838 0)
(7.40298 0.0371089 0)
(7.21888 0.0496185 0)
(6.99282 0.0745966 0)
(6.67779 0.0932959 0)
(6.34737 0.0977975 0)
(5.98416 0.0840561 0)
(5.68766 0.0637511 0)
(5.42518 0.0560997 0)
(5.14396 0.0857312 0)
(10.0408 0.0275766 0)
(9.93055 0.0624759 0)
(9.94325 0.068327 0)
(10.0067 0.0745431 0)
(10.0246 0.0770798 0)
(9.98565 0.0686382 0)
(9.93135 0.0605183 0)
(9.88969 0.0594306 0)
(9.85841 0.060835 0)
(9.8291 0.0642757 0)
(9.79317 0.0722598 0)
(9.75718 0.0903545 0)
(9.71498 0.116083 0)
(9.67566 0.132502 0)
(9.62773 0.147549 0)
(9.5811 0.144439 0)
(9.51804 0.152861 0)
(9.43322 0.188269 0)
(9.88928 0.0610657 0)
(9.96432 0.0724882 0)
(10.0311 0.05021 0)
(10.0712 0.072588 0)
(10.0669 0.105812 0)
(10.0414 0.116059 0)
(10.0322 0.101592 0)
(10.0495 0.0777021 0)
(10.0783 0.059069 0)
(10.0989 0.0561629 0)
(10.1007 0.0697472 0)
(10.0901 0.0962603 0)
(10.0838 0.122217 0)
(10.0896 0.136591 0)
(10.1004 0.134809 0)
(10.109 0.129269 0)
(10.1088 0.138473 0)
(10.1046 0.188528 0)
(10.0434 0.0446126 0)
(10.0838 0.037323 0)
(10.1257 0.0413574 0)
(10.1109 0.0609649 0)
(10.0925 0.0741151 0)
(10.1024 0.0637078 0)
(10.1319 0.0445761 0)
(10.1534 0.0358544 0)
(10.1534 0.0417472 0)
(10.1369 0.0587286 0)
(10.1166 0.0809176 0)
(10.1052 0.103272 0)
(10.1125 0.121694 0)
(10.1387 0.130463 0)
(10.1707 0.134231 0)
(10.1982 0.142463 0)
(10.2155 0.162421 0)
(10.235 0.209219 0)
(10.027 0.13124 0)
(10.0224 0.0284977 0)
(9.97984 0.0563415 0)
(10.0412 0.0890947 0)
(10.1578 0.112507 0)
(10.2484 0.116794 0)
(10.2692 0.102405 0)
(10.2277 0.0814919 0)
(10.1672 0.0675136 0)
(10.1268 0.0685718 0)
(10.1201 0.0808515 0)
(10.1415 0.0953446 0)
(10.1812 0.105283 0)
(10.2272 0.108178 0)
(10.2647 0.109013 0)
(10.2876 0.1164 0)
(10.2958 0.135438 0)
(10.3071 0.173365 0)
(10.0117 0.0333621 0)
(10.1421 0.0384535 0)
(10.1318 0.036317 0)
(10.107 0.00855481 0)
(10.0922 -0.00276492 0)
(10.1029 0.0110415 0)
(10.1237 0.039091 0)
(10.1241 0.0655535 0)
(10.1034 0.0792643 0)
(10.0859 0.0798558 0)
(10.0891 0.0754379 0)
(10.1151 0.0744454 0)
(10.1546 0.0812775 0)
(10.1958 0.0954024 0)
(10.2245 0.114459 0)
(10.2384 0.138582 0)
(10.242 0.163429 0)
(10.2536 0.186783 0)
(10.1716 -0.0660386 0)
(10.2236 0.00643782 0)
(10.2217 0.0768849 0)
(10.1736 0.113621 0)
(10.0965 0.123589 0)
(10.037 0.121449 0)
(10.0212 0.109474 0)
(10.042 0.0913546 0)
(10.0887 0.0749573 0)
(10.1508 0.0659678 0)
(10.2102 0.0645098 0)
(10.2509 0.06742 0)
(10.2686 0.0731542 0)
(10.2708 0.0808542 0)
(10.2657 0.0918707 0)
(10.2633 0.107249 0)
(10.2681 0.124457 0)
(10.2912 0.138828 0)
(10.0348 -0.0189146 0)
(9.93238 -0.00707668 0)
(10.0164 0.0498815 0)
(10.1225 0.0521378 0)
(10.1524 0.0298261 0)
(10.1269 0.0217883 0)
(10.096 0.0297948 0)
(10.0866 0.0382213 0)
(10.1065 0.0384771 0)
(10.1474 0.0345111 0)
(10.19 0.0351723 0)
(10.2155 0.0461236 0)
(10.2165 0.0668094 0)
(10.1946 0.0919034 0)
(10.1588 0.115967 0)
(10.1236 0.135795 0)
(10.0986 0.147303 0)
(10.0991 0.149339 0)
(10.0674 0.0607919 0)
(10.023 0.0105396 0)
(10.0968 0.0164579 0)
(10.1661 0.0754842 0)
(10.1434 0.134238 0)
(10.057 0.158649 0)
(9.99352 0.13538 0)
(9.98828 0.0843861 0)
(10.026 0.0384543 0)
(10.0739 0.0183836 0)
(10.1043 0.0269055 0)
(10.1071 0.0547028 0)
(10.0912 0.0903441 0)
(10.0741 0.122348 0)
(10.0665 0.142988 0)
(10.0743 0.149419 0)
(10.0942 0.141659 0)
(10.1249 0.122276 0)
(9.89009 0.00419376 0)
(9.90067 -0.0195824 0)
(9.91535 -0.00939392 0)
(9.96688 0.0246373 0)
(10.0331 0.0601456 0)
(10.1014 0.0755417 0)
(10.1534 0.0574183 0)
(10.1704 0.0229727 0)
(10.1533 0.000472451 0)
(10.1199 0.00308191 0)
(10.0871 0.0255862 0)
(10.0657 0.0547192 0)
(10.0587 0.0798383 0)
(10.0642 0.0964374 0)
(10.0727 0.104466 0)
(10.0804 0.10642 0)
(10.0794 0.104502 0)
(10.0729 0.0980117 0)
(10.1886 0.0148568 0)
(10.0831 0.0279421 0)
(10.0573 0.00253201 0)
(10.0648 0.0298123 0)
(10.0684 0.0824571 0)
(10.0809 0.110781 0)
(10.0999 0.105198 0)
(10.1161 0.081944 0)
(10.1335 0.0593971 0)
(10.1602 0.0483734 0)
(10.1929 0.0522319 0)
(10.2202 0.0697911 0)
(10.2339 0.0960296 0)
(10.2307 0.123614 0)
(10.213 0.145104 0)
(10.1812 0.155561 0)
(10.1452 0.154887 0)
(10.1009 0.140232 0)
(10.2018 -0.106844 0)
(10.1324 0.0223749 0)
(10.0692 -2.8414e-05 0)
(10.0266 0.00614638 0)
(10.0228 0.0484405 0)
(10.059 0.0684315 0)
(10.1087 0.04948 0)
(10.1477 0.0122757 0)
(10.1713 -0.0155846 0)
(10.183 -0.0197159 0)
(10.187 -0.00122057 0)
(10.1893 0.0311206 0)
(10.1964 0.0680892 0)
(10.2069 0.101543 0)
(10.2215 0.128432 0)
(10.2325 0.1456 0)
(10.242 0.15584 0)
(10.2409 0.157533 0)
(10.0942 0.063164 0)
(10.0318 0.115023 0)
(10.0585 0.0736356 0)
(10.0903 0.0476719 0)
(10.0852 0.0581959 0)
(10.0946 0.0647714 0)
(10.1368 0.0562268 0)
(10.1879 0.0425491 0)
(10.2241 0.0345801 0)
(10.2342 0.0347912 0)
(10.2148 0.0441091 0)
(10.1706 0.0638626 0)
(10.1162 0.0907702 0)
(10.0688 0.117203 0)
(10.0392 0.137575 0)
(10.031 0.148867 0)
(10.0382 0.151836 0)
(10.0596 0.150657 0)
(9.75346 0.00276637 0)
(9.96646 -0.00937988 0)
(10.1417 -0.042889 0)
(10.2025 -0.0135971 0)
(10.1773 0.0399655 0)
(10.1437 0.0480784 0)
(10.1257 0.00311853 0)
(10.1141 -0.0461104 0)
(10.0981 -0.0543011 0)
(10.0686 -0.0155151 0)
(10.0257 0.0463707 0)
(9.98264 0.103609 0)
(9.95368 0.141144 0)
(9.94722 0.155508 0)
(9.95975 0.15222 0)
(9.98458 0.139864 0)
(10.0098 0.126968 0)
(10.028 0.120255 0)
(9.93814 -0.089559 0)
(9.97387 -0.176888 0)
(9.9977 -0.0571277 0)
(10.0044 0.0505677 0)
(10.0355 0.0912139 0)
(10.1042 0.0921485 0)
(10.1684 0.0818199 0)
(10.1929 0.0783729 0)
(10.1806 0.0844885 0)
(10.1546 0.0966672 0)
(10.1328 0.10938 0)
(10.1211 0.116125 0)
(10.1186 0.113339 0)
(10.1194 0.104429 0)
(10.1179 0.0965825 0)
(10.1088 0.0958473 0)
(10.092 0.106129 0)
(10.0668 0.124922 0)
(10.1595 -0.0538133 0)
(10.0425 -0.0586542 0)
(10.0289 -0.0455165 0)
(10.0524 -0.034092 0)
(10.0695 -0.0436422 0)
(10.0755 -0.0691594 0)
(10.0788 -0.0855917 0)
(10.0771 -0.0735678 0)
(10.0721 -0.0322555 0)
(10.0727 0.0245959 0)
(10.0827 0.0800586 0)
(10.0974 0.123605 0)
(10.1092 0.152421 0)
(10.1118 0.169518 0)
(10.1059 0.179235 0)
(10.0948 0.186564 0)
(10.0857 0.193016 0)
(10.0812 0.201053 0)
(10.0465 -0.0906159 0)
(10.1114 -0.164575 0)
(10.177 -0.0745799 0)
(10.192 0.0332066 0)
(10.1439 0.0820283 0)
(10.0789 0.0978884 0)
(10.0329 0.108007 0)
(10.0137 0.111341 0)
(10.0106 0.102337 0)
(10.0107 0.0852122 0)
(10.0083 0.0719597 0)
(10.0055 0.0706089 0)
(10.0071 0.0799014 0)
(10.0166 0.0923829 0)
(10.0341 0.101294 0)
(10.0571 0.104969 0)
(10.0823 0.104209 0)
(10.1047 0.105037 0)
(10.1843 -0.124581 0)
(10.1791 -0.112397 0)
(10.1414 -0.0642988 0)
(10.1599 0.0220185 0)
(10.164 0.0853066 0)
(10.1466 0.0604648 0)
(10.1434 -0.0177907 0)
(10.1621 -0.0662306 0)
(10.1841 -0.0456994 0)
(10.1932 0.0227204 0)
(10.1871 0.0947057 0)
(10.1713 0.139068 0)
(10.1542 0.149291 0)
(10.1426 0.136857 0)
(10.1395 0.119681 0)
(10.1433 0.111498 0)
(10.1509 0.119011 0)
(10.1576 0.142344 0)
(9.92113 0.0652463 0)
(9.99533 -0.112994 0)
(10.0282 -0.125856 0)
(10.0299 -0.0325694 0)
(10.0592 0.059964 0)
(10.0884 0.097139 0)
(10.0933 0.0902606 0)
(10.0789 0.0728085 0)
(10.0572 0.0696035 0)
(10.0398 0.0860228 0)
(10.036 0.111076 0)
(10.0483 0.129168 0)
(10.0718 0.131292 0)
(10.0992 0.118314 0)
(10.126 0.0965398 0)
(10.1498 0.0759401 0)
(10.1711 0.061679 0)
(10.1902 0.0607042 0)
(10.1377 -0.0350109 0)
(10.1658 -0.14705 0)
(10.1306 -0.09562 0)
(10.0467 -0.00213626 0)
(10.0434 0.0358609 0)
(10.1142 0.0240973 0)
(10.1948 0.00879321 0)
(10.2423 0.0152774 0)
(10.257 0.0392796 0)
(10.2603 0.0637685 0)
(10.2674 0.0735232 0)
(10.2807 0.0638388 0)
(10.2956 0.0406421 0)
(10.3086 0.0163089 0)
(10.3178 0.00244211 0)
(10.3244 0.0040109 0)
(10.3284 0.0196867 0)
(10.333 0.0430643 0)
(10.0613 -0.0328221 0)
(9.95693 -0.015471 0)
(9.96248 0.0447896 0)
(10.0345 0.0293048 0)
(10.128 -0.0462774 0)
(10.1667 -0.103407 0)
(10.1501 -0.0936757 0)
(10.1244 -0.0339615 0)
(10.1293 0.0282447 0)
(10.1749 0.065608 0)
(10.2453 0.0786961 0)
(10.3136 0.0784933 0)
(10.356 0.0723966 0)
(10.3624 0.0641075 0)
(10.3357 0.0540605 0)
(10.2895 0.0444247 0)
(10.2357 0.036802 0)
(10.1906 0.034888 0)
(10.0706 0.0748203 0)
(10.0563 0.0244478 0)
(10.1219 -0.160169 0)
(10.2034 -0.1886 0)
(10.2021 -0.0943629 0)
(10.1272 0.0055436 0)
(10.0617 0.0493504 0)
(10.0464 0.0310644 0)
(10.0723 -0.0241311 0)
(10.1171 -0.0808268 0)
(10.1595 -0.107178 0)
(10.1873 -0.087858 0)
(10.2017 -0.0295436 0)
(10.2096 0.047466 0)
(10.2158 0.118923 0)
(10.2213 0.168309 0)
(10.2281 0.188492 0)
(10.2348 0.178728 0)
(10.1392 -0.014642 0)
(10.2462 -0.0305804 0)
(10.2026 -0.0813782 0)
(10.0709 -0.0459342 0)
(9.99508 0.00825884 0)
(9.99246 0.0251763 0)
(10.0316 0.000243029 0)
(10.0774 -0.0380928 0)
(10.1019 -0.0565853 0)
(10.0952 -0.0459312 0)
(10.0657 -0.0179187 0)
(10.0314 0.0122271 0)
(10.0115 0.0350992 0)
(10.0186 0.046838 0)
(10.0563 0.0478284 0)
(10.1165 0.04156 0)
(10.188 0.0319371 0)
(10.2596 0.0244553 0)
(10.0746 -0.0394769 0)
(10.1462 0.000748637 0)
(10.1597 0.00059712 0)
(10.1275 -0.0327357 0)
(10.0899 -0.0315204 0)
(10.0913 -0.0139113 0)
(10.1184 -0.0156283 0)
(10.1499 -0.0347458 0)
(10.1814 -0.0497187 0)
(10.2142 -0.0484094 0)
(10.2479 -0.0356874 0)
(10.2777 -0.0214336 0)
(10.2974 -0.0114376 0)
(10.3035 -0.00553119 0)
(10.2938 -0.00364126 0)
(10.2738 -0.00454283 0)
(10.2476 -0.00865233 0)
(10.2258 -0.0154526 0)
(10.1095 0.0473231 0)
(10.0648 -0.0611114 0)
(10.0083 -0.041943 0)
(10.034 0.00141843 0)
(10.0849 0.017704 0)
(10.118 -0.00515317 0)
(10.1324 -0.0487375 0)
(10.1381 -0.0877951 0)
(10.1434 -0.105188 0)
(10.1515 -0.0970686 0)
(10.1592 -0.0699192 0)
(10.163 -0.0325991 0)
(10.1627 0.00703268 0)
(10.1624 0.0429333 0)
(10.1662 0.0688274 0)
(10.1753 0.0804526 0)
(10.1889 0.0761562 0)
(10.2021 0.0561054 0)
(10.2057 -0.0143094 0)
(10.2057 0.0766266 0)
(10.1854 0.0189662 0)
(10.1681 -0.0641828 0)
(10.1619 -0.0700453 0)
(10.1415 -0.0341249 0)
(10.1067 -0.0226271 0)
(10.0851 -0.0446867 0)
(10.0981 -0.0688148 0)
(10.1425 -0.0710044 0)
(10.1995 -0.0524106 0)
(10.2501 -0.0275173 0)
(10.2829 -0.00870189 0)
(10.2966 -0.000753294 0)
(10.2977 -0.00220589 0)
(10.2942 -0.00927561 0)
(10.292 -0.0185235 0)
(10.2948 -0.0270424 0)
(9.93712 0.0824629 0)
(10.1694 -0.0061282 0)
(10.279 -0.012174 0)
(10.284 -0.00639038 0)
(10.2701 0.00732202 0)
(10.2727 0.0108651 0)
(10.2785 -0.0236186 0)
(10.2659 -0.0859108 0)
(10.2318 -0.139976 0)
(10.1927 -0.158102 0)
(10.1665 -0.136082 0)
(10.159 -0.0865537 0)
(10.1656 -0.0279254 0)
(10.1792 0.0238226 0)
(10.1958 0.057397 0)
(10.2128 0.0691061 0)
(10.229 0.0600388 0)
(10.2429 0.0352 0)
(10.0589 -0.115902 0)
(10.1106 -0.0684337 0)
(10.1404 -0.0172649 0)
(10.1841 -0.0344914 0)
(10.2888 -0.0430373 0)
(10.4219 -0.0274122 0)
(10.5007 -0.0136695 0)
(10.4713 -0.0165361 0)
(10.3541 -0.0295577 0)
(10.215 -0.0402094 0)
(10.1128 -0.0408898 0)
(10.0723 -0.0329983 0)
(10.0893 -0.0226023 0)
(10.1451 -0.0152114 0)
(10.2198 -0.0141527 0)
(10.2957 -0.019041 0)
(10.3631 -0.0276559 0)
(10.4118 -0.0366744 0)
(10.155 0.00186725 0)
(10.0941 -0.0418982 0)
(10.151 -0.0466292 0)
(10.2012 -0.0776928 0)
(10.1794 -0.100919 0)
(10.1178 -0.0845652 0)
(10.0831 -0.0464998 0)
(10.0983 -0.0192078 0)
(10.1426 -0.0184432 0)
(10.1851 -0.037599 0)
(10.2084 -0.0592892 0)
(10.2143 -0.070059 0)
(10.2139 -0.0669846 0)
(10.218 -0.0547432 0)
(10.2308 -0.0407034 0)
(10.25 -0.0306338 0)
(10.27 -0.0274946 0)
(10.2853 -0.0326852 0)
(9.86033 -0.0576623 0)
(9.79242 -0.0269063 0)
(9.65931 -0.0386495 0)
(9.47558 -0.0335601 0)
(9.28157 -0.0131191 0)
(9.13006 -0.00214015 0)
(9.03312 -0.0132453 0)
(8.95763 -0.0365847 0)
(8.86492 -0.0546008 0)
(8.7413 -0.0582654 0)
(8.59986 -0.0506387 0)
(8.4629 -0.0397662 0)
(8.34331 -0.0324397 0)
(8.24412 -0.0313215 0)
(8.16004 -0.0345737 0)
(8.08581 -0.0390128 0)
(8.01393 -0.0415902 0)
(7.94247 -0.0407813 0)
(0.0632714 -0.175685 -2.51034e-20)
(0.268765 -0.297322 2.49086e-20)
(0.599333 -0.376401 0)
(0.996269 -0.433025 0)
(1.42704 -0.442445 0)
(1.8626 -0.433169 -2.43529e-20)
(2.2903 -0.408926 0)
(2.69583 -0.359542 0)
(3.05171 -0.278697 0)
(3.33075 -0.165497 0)
(3.50556 -0.0354511 2.40924e-20)
(3.57878 0.120176 0)
(3.51988 0.287268 0)
(3.33118 0.44411 0)
(3.01486 0.597934 0)
(2.60252 0.685653 2.31115e-20)
(2.15179 0.724103 0)
(1.64249 0.742383 0)
(1.26271 0.497704 0)
(1.18914 -0.107758 0)
(1.3032 -0.728834 0)
(1.35778 -1.03577 0)
(1.26125 -0.853439 0)
(0.963425 -0.0894428 2.13339e-20)
(0.182359 0.685134 -2.11434e-20)
(-0.797493 0.953481 2.09445e-20)
(-1.79769 0.99524 2.08001e-20)
(-2.75077 0.957633 0)
(-3.64902 0.89699 0)
(-4.48466 0.824285 -2.08625e-20)
(-5.25414 0.744913 -2.09956e-20)
(-5.9553 0.665143 0)
(-6.58922 0.588417 0)
(-7.15722 0.516026 -2.15055e-20)
(-7.66158 0.448709 0)
(-8.10459 0.385874 0)
(-8.48824 0.327381 2.19495e-20)
(-8.81453 0.272543 0)
(-9.08509 0.221051 2.21049e-20)
(-9.30173 0.172557 4.42492e-20)
(-9.46601 0.126942 0)
(-9.57947 0.0841803 0)
(-9.64355 0.0444998 0)
(-9.65998 0.00817385 0)
(-9.63273 -0.0249382 0)
(-9.56594 -0.0549595 4.25748e-20)
(-9.46159 -0.0825718 4.19837e-20)
(-9.32258 -0.107828 4.13188e-20)
(-9.15251 -0.13083 0)
(-8.9539 -0.151582 -3.98035e-20)
(-8.7303 -0.170134 0)
(-8.48416 -0.186586 3.81043e-20)
(-8.21822 -0.201054 3.72088e-20)
(-7.93422 -0.213829 0)
(-7.63374 -0.225222 0)
(-7.31763 -0.235577 0)
(-6.98639 -0.24515 3.34977e-20)
(-6.63993 -0.25415 0)
(-6.27782 -0.262707 0)
(-5.89934 -0.270913 0)
(-5.50367 -0.278819 0)
(-5.09005 -0.286496 0)
(-4.65754 -0.294212 0)
(-4.20412 -0.302807 0)
(-3.72552 -0.314034 0)
(-3.21398 -0.330638 -2.57682e-20)
(-2.65688 -0.35617 0)
(-2.03596 -0.393621 0)
(-1.33319 -0.441897 2.38886e-20)
(-0.555087 -0.482048 2.34474e-20)
(0.29068 -0.425907 0)
(1.08809 -0.309963 -2.28741e-20)
(1.57016 -0.345789 2.27146e-20)
(2.22742 0.0916893 0)
(1.7303 0.793714 -2.21508e-20)
(0.515499 0.439413 0)
(0.0315731 -0.171345 0)
(-0.225726 -0.246734 2.13895e-20)
(-0.13128 -0.297447 0)
(0.146506 -0.319059 -2.0801e-20)
(0.529411 -0.323234 0)
(0.916634 -0.319841 2.02138e-20)
(1.32118 -0.330553 1.99351e-20)
(1.77715 -0.336974 1.96549e-20)
(2.2959 -0.332127 3.87662e-20)
(2.84662 -0.403822 -3.8279e-20)
(3.56809 -0.454376 0)
(4.33664 -0.369041 0)
(4.95379 -0.397046 0)
(5.68264 -0.234436 -3.76296e-20)
(5.83898 0.0537457 -3.74634e-20)
(5.76715 0.130474 3.69828e-20)
(5.37384 0.885567 0)
(3.3899 1.08367 -3.52698e-20)
(1.63953 0.0289632 -3.52091e-20)
(1.13933 -0.554154 -3.51098e-20)
(1.52986 -0.686928 0)
(2.32568 -0.475704 0)
(2.84632 -0.244734 0)
(2.82417 -0.223535 -3.34568e-20)
(2.45637 -0.0834433 0)
(1.33417 0.527683 0)
(-0.537757 0.901333 3.30647e-20)
(-2.0357 0.725304 0)
(-3.11742 0.528388 0)
(-3.9416 0.395246 3.53273e-20)
(-4.57596 0.299114 0)
(-5.08112 0.232885 0)
(-5.48947 0.185553 -3.73756e-20)
(-5.82396 0.150872 -3.78645e-20)
(-6.10086 0.12432 0)
(-6.33241 0.103606 3.85888e-20)
(-6.52905 0.0878879 0)
(-6.70079 0.0771641 -3.90483e-20)
(-6.85791 0.0717074 0)
(-7.01054 0.0713557 -3.93437e-20)
(-7.16787 0.0752441 -3.94602e-20)
(-7.33752 0.0819471 0)
(-7.52447 0.089639 0)
(-7.72954 0.096135 0)
(-7.94806 0.0990496 0)
(-8.1694 0.0958573 0)
(-8.37739 0.0848586 0)
(-8.55214 0.0663072 0)
(-8.67439 0.0426581 -3.98026e-20)
(-8.73097 0.0164279 3.95089e-20)
(-8.71647 -0.0100237 0)
(-8.64034 -0.0324829 0)
(-8.49949 -0.0542843 0)
(-8.29508 -0.0762288 0)
(-8.02508 -0.0989211 6.99207e-20)
(-7.68769 -0.121921 0)
(-7.28203 -0.144666 -6.32364e-20)
(-6.80839 -0.166683 5.94207e-20)
(-6.2676 -0.187697 0)
(-5.66108 -0.207692 0)
(-4.99059 -0.226805 0)
(-4.25712 -0.245127 -4.32348e-20)
(-3.46042 -0.262727 -3.94001e-20)
(-2.60128 -0.279248 0)
(-1.68458 -0.292654 -3.24544e-20)
(-0.721085 -0.301304 -2.9465e-20)
(0.270008 -0.302006 2.68538e-20)
(1.26475 -0.295086 0)
(2.23872 -0.280919 0)
(3.16855 -0.261166 2.1629e-20)
(4.03512 -0.237492 0)
(4.82348 -0.209348 0)
(5.51934 -0.174129 0)
(6.10671 -0.134195 0)
(6.57754 -0.0987882 -1.98354e-20)
(6.93798 -0.0636029 -1.99636e-20)
(7.17172 -0.00165507 0)
(7.20473 0.0935517 -2.0203e-20)
(6.98389 0.189228 0)
(6.51257 0.239173 0)
(5.88702 0.217985 -2.02917e-20)
(5.24786 0.159169 0)
(4.68668 0.110468 -2.02325e-20)
(4.23247 0.0835616 0)
(3.88358 0.0610351 0)
(3.62158 0.037168 -1.97582e-20)
(3.41867 0.0205804 0)
(3.24882 0.0151829 -1.9264e-20)
(3.0935 0.0168524 0)
(2.94045 0.0197644 0)
(2.78397 0.0205348 0)
(2.62811 0.0195163 1.82703e-20)
(2.48457 0.0191413 0)
(2.36307 0.0222888 -1.76821e-20)
(2.26571 0.0278875 0)
(2.19216 0.025074 0)
(2.16377 -0.00230594 0)
(2.20611 -0.0559026 0)
(2.36888 -0.0774368 0)
(2.5126 -0.0131428 0)
(2.53924 0.0701206 0)
(2.35432 0.0278029 2.72364e-20)
(2.46074 0.0178059 0)
(2.28701 0.114812 0)
(0.096339 -0.518423 7.53462e-20)
(0.362936 -0.861675 -7.47381e-20)
(0.745219 -1.18362 0)
(1.13404 -1.37372 4.92535e-20)
(1.52304 -1.42119 0)
(1.88547 -1.42144 2.43234e-20)
(2.2265 -1.37446 -4.88793e-20)
(2.54752 -1.24553 -4.8865e-20)
(2.81612 -1.03363 0)
(3.0172 -0.75728 -4.88287e-20)
(3.14961 -0.446826 -2.41107e-20)
(3.20368 -0.122163 0)
(3.21558 0.202975 0)
(3.13805 0.499813 0)
(2.97766 0.76065 0)
(2.78874 0.938925 -2.30678e-20)
(2.56952 1.03705 0)
(2.34525 0.994974 4.52369e-20)
(2.08329 0.450114 0)
(1.55102 -0.0438634 0)
(0.654858 0.431656 -4.38233e-20)
(-0.619232 1.20638 0)
(-1.86906 1.72611 4.30806e-20)
(-2.84346 2.09306 -2.12191e-20)
(-3.67938 2.30838 2.0944e-20)
(-4.39429 2.32745 -2.07186e-20)
(-5.04515 2.2517 -2.05914e-20)
(-5.63335 2.11598 0)
(-6.1785 1.95911 0)
(-6.67734 1.79205 2.07183e-20)
(-7.13776 1.62597 -2.16066e-20)
(-7.55849 1.46517 0)
(-7.94386 1.31098 0)
(-8.29472 1.16348 2.14266e-20)
(-8.61308 1.02248 0)
(-8.89824 0.88736 0)
(-9.14983 0.757601 -2.19024e-20)
(-9.36668 0.632555 0)
(-9.54783 0.511803 2.25085e-20)
(-9.69239 0.395102 -4.41973e-20)
(-9.79978 0.282684 0)
(-9.86941 0.175197 0)
(-9.9011 0.0734455 -8.83454e-20)
(-9.89553 -0.0219929 -8.7657e-20)
(-9.85158 -0.110662 -8.67693e-20)
(-9.76875 -0.19245 4.31582e-20)
(-9.65033 -0.267374 -4.19568e-20)
(-9.49889 -0.334985 -1.244e-19)
(-9.31697 -0.395228 8.16062e-20)
(-9.10836 -0.448111 3.97741e-20)
(-8.87579 -0.494054 0)
(-8.62281 -0.53371 -3.80743e-20)
(-8.35193 -0.568 3.75132e-20)
(-8.06574 -0.598067 0)
(-7.76571 -0.625176 0)
(-7.45285 -0.650578 0)
(-7.12734 -0.67536 -3.34672e-20)
(-6.78889 -0.700408 0)
(-6.4366 -0.726439 6.34615e-20)
(-6.06922 -0.754047 0)
(-5.68528 -0.783784 5.98392e-20)
(-5.28351 -0.816312 0)
(-4.86315 -0.852713 -5.63873e-20)
(-4.42376 -0.895171 0)
(-3.96452 -0.948086 5.31977e-20)
(-3.48344 -1.01915 -2.60042e-20)
(-2.97581 -1.11882 0)
(-2.4325 -1.25555 -4.91459e-20)
(-1.84171 -1.42351 -2.38366e-20)
(-1.20624 -1.58111 -2.33871e-20)
(-0.558633 -1.62166 0)
(0.322658 -1.37118 -2.31995e-20)
(0.770177 -0.998513 -2.27288e-20)
(1.27382 -0.12723 0)
(1.57834 0.980986 2.21413e-20)
(1.46311 1.28169 -4.36226e-20)
(1.20984 0.969804 0)
(0.913095 0.425619 -2.1354e-20)
(0.916326 -0.154601 0)
(1.00404 -0.456105 6.22878e-20)
(1.12649 -0.551285 0)
(1.29049 -0.567559 -6.06822e-20)
(1.51141 -0.610046 -1.99184e-20)
(1.82319 -0.721397 1.98383e-20)
(2.29931 -0.834585 3.91946e-20)
(2.88482 -0.980781 -3.87781e-20)
(3.52031 -1.14387 0)
(4.33106 -1.10079 0)
(5.05765 -0.991626 0)
(5.70017 -0.647238 1.13916e-19)
(6.14611 -0.00621153 3.7447e-20)
(6.09285 0.406444 -3.69457e-20)
(6.05454 1.18713 0)
(5.59695 2.12073 -3.66357e-20)
(4.60727 2.11496 3.50083e-20)
(3.34761 0.839454 3.49702e-20)
(2.75842 -0.707608 0)
(2.70788 -0.935876 0)
(2.48593 -0.231528 0)
(1.51235 0.66945 3.35454e-20)
(-0.108782 1.56114 0)
(-1.74429 2.09988 -6.69467e-20)
(-3.00821 1.96713 -1.00241e-19)
(-3.79394 1.51768 6.84831e-20)
(-4.40652 1.14739 0)
(-4.88292 0.871405 3.61384e-20)
(-5.27529 0.67401 0)
(-5.60478 0.533519 7.39979e-20)
(-5.88474 0.430285 -3.77304e-20)
(-6.12404 0.351916 -3.81446e-20)
(-6.32923 0.290984 0)
(-6.50663 0.243954 -1.15913e-19)
(-6.66329 0.209473 7.78168e-20)
(-6.80714 0.187165 3.90381e-20)
(-6.94659 0.176689 0)
(-7.08944 0.176997 3.93352e-20)
(-7.24181 0.185802 1.18395e-19)
(-7.40745 0.199891 0)
(-7.58724 0.215424 7.93689e-20)
(-7.77884 0.227789 7.95945e-20)
(-7.97659 0.231602 7.98189e-20)
(-8.17128 0.221479 0)
(-8.34987 0.19369 0)
(-8.49639 0.147741 0)
(-8.5956 0.0871046 -4.00563e-20)
(-8.63763 0.0186107 -3.95151e-20)
(-8.61828 -0.0503047 0)
(-8.53008 -0.118246 -7.70774e-20)
(-8.38058 -0.185347 -7.52972e-20)
(-8.16699 -0.253322 0)
(-7.88696 -0.322701 -6.99106e-20)
(-7.5382 -0.3926 -1.34263e-19)
(-7.12002 -0.461463 6.32193e-20)
(-6.63301 -0.527857 6.00426e-20)
(-6.07856 -0.590819 0)
(-5.45858 -0.650179 0)
(-4.7749 -0.706794 0)
(-4.02792 -0.762101 4.3212e-20)
(-3.2165 -0.81667 -3.98987e-20)
(-2.34004 -0.868816 -7.20806e-20)
(-1.40167 -0.913624 3.24333e-20)
(-0.410638 -0.943332 -3.00101e-20)
(0.612971 -0.950304 -2.68228e-20)
(1.64355 -0.933105 0)
(2.65583 -0.892781 0)
(3.62496 -0.833295 2.1989e-20)
(4.52927 -0.759258 0)
(5.34919 -0.67467 0)
(6.06952 -0.582159 -3.98887e-20)
(6.68121 -0.483682 0)
(7.17023 -0.382296 -1.99376e-20)
(7.5173 -0.276648 1.99483e-20)
(7.74206 -0.151686 0)
(7.90917 0.00309381 -2.03744e-20)
(8.02826 0.179537 0)
(8.06241 0.348328 0)
(7.94454 0.46803 2.02462e-20)
(7.60041 0.506565 -4.06594e-20)
(7.04131 0.459257 2.01801e-20)
(6.41171 0.363599 0)
(5.85857 0.27055 0)
(5.42114 0.209706 -1.97445e-20)
(5.06159 0.176904 0)
(4.73435 0.156985 -1.92539e-20)
(4.41792 0.145018 0)
(4.10561 0.141476 0)
(3.79553 0.141979 0)
(3.49173 0.136232 -1.82542e-20)
(3.21565 0.117735 0)
(2.99494 0.088331 1.76714e-20)
(2.85431 0.0564623 0)
(2.79108 0.0243205 0)
(2.80637 -0.00455836 -3.28162e-20)
(2.82517 -0.043906 3.17726e-20)
(2.84959 -0.0706158 0)
(2.84685 -0.071117 0)
(3.01756 -0.00133862 0)
(3.12522 0.0242632 -8.17019e-20)
(3.22281 0.0177502 0)
(3.2061 0.0571731 4.96477e-20)
(0.117345 -1.13927 3.33099e-23)
(0.411063 -1.70408 9.96896e-20)
(0.695586 -2.07676 0)
(0.912686 -2.12803 -9.8622e-20)
(1.09768 -2.04479 0)
(1.22687 -1.97437 0)
(1.35789 -1.84216 -1.77173e-22)
(1.48772 -1.59634 4.89899e-20)
(1.59121 -1.25604 4.92495e-20)
(1.65996 -0.869412 4.90056e-20)
(1.69436 -0.458052 0)
(1.66436 0.00574843 0)
(1.59077 0.477041 -4.87623e-20)
(1.45804 0.872251 -9.66322e-20)
(1.26248 1.13836 9.5548e-20)
(0.97422 1.28692 0)
(0.583233 1.4148 9.30646e-20)
(0.0897932 1.61956 -4.54488e-20)
(-0.721811 1.96446 0)
(-1.75117 2.41616 8.90981e-20)
(-2.69951 2.80262 4.34718e-20)
(-3.53789 3.04691 -8.72205e-20)
(-4.21965 3.1835 -4.27193e-20)
(-4.77071 3.265 0)
(-5.22233 3.26851 8.57678e-20)
(-5.59313 3.18002 8.55625e-20)
(-5.93456 3.03479 0)
(-6.26189 2.85322 8.55802e-20)
(-6.59895 2.66009 0)
(-6.94522 2.46373 8.61464e-20)
(-7.30428 2.26973 4.24177e-20)
(-7.66746 2.07882 0)
(-8.02868 1.89006 0)
(-8.37739 1.70299 0)
(-8.70629 1.51751 0)
(-9.00871 1.3336 0)
(-9.28016 1.15123 0)
(-9.51669 0.97041 9.02142e-20)
(-9.71539 0.791307 -1.34966e-19)
(-9.87371 0.614384 0)
(-9.98954 0.440478 0)
(-10.0616 0.270826 0)
(-10.0899 0.106895 -1.1979e-21)
(-10.0753 -0.0503758 8.76158e-20)
(-10.019 -0.199606 1.74552e-19)
(-9.92306 -0.33905 -1.72362e-19)
(-9.7893 -0.466975 -8.54098e-20)
(-9.62067 -0.582093 8.30554e-20)
(-9.42063 -0.683752 8.30867e-22)
(-9.19292 -0.77192 8.06938e-20)
(-8.94135 -0.847193 0)
(-8.66938 -0.910733 7.70812e-20)
(-8.38017 -0.964224 5.57965e-22)
(-8.07625 -1.00968 0)
(-7.7595 -1.04938 0)
(-7.43094 -1.08556 -6.94612e-20)
(-7.09089 -1.12032 0)
(-6.73903 -1.15541 0)
(-6.37451 -1.19226 6.41897e-20)
(-5.99609 -1.23196 1.23944e-19)
(-5.60238 -1.27514 -5.98019e-20)
(-5.19223 -1.32194 0)
(-4.76529 -1.37202 5.63504e-20)
(-4.32302 -1.4253 0)
(-3.86996 -1.48346 5.38571e-20)
(-3.41424 -1.55211 5.16954e-20)
(-2.96609 -1.64258 -1.01404e-19)
(-2.53542 -1.77047 -4.98688e-20)
(-2.13351 -1.9439 0)
(-1.77357 -2.12907 9.49299e-20)
(-1.41823 -2.1919 0)
(-0.963256 -1.91976 1.38267e-19)
(-0.501945 -1.39544 9.13612e-20)
(-0.180502 -0.543656 9.03654e-20)
(0.448238 0.595462 -8.86871e-20)
(0.915793 0.985818 1.30542e-19)
(1.18838 0.72423 0)
(1.42905 0.151963 0)
(1.52871 -0.313852 -8.3786e-20)
(1.43326 -0.501855 -1.24359e-19)
(1.34352 -0.566272 0)
(1.36519 -0.654523 4.04747e-20)
(1.52412 -0.835971 0)
(1.83533 -1.14559 -1.18942e-19)
(2.30262 -1.45489 7.19429e-22)
(2.91551 -1.69846 -8.55957e-22)
(3.58853 -1.97074 7.72646e-20)
(4.38763 -2.00192 0)
(5.18903 -1.75193 -7.75606e-20)
(5.73699 -1.23152 1.83577e-21)
(6.18909 -0.262564 0)
(6.06894 0.569768 0)
(5.63124 1.34999 0)
(5.59519 2.43291 7.16933e-20)
(5.02755 2.84078 0)
(4.04484 1.52362 0)
(3.20881 -0.124555 0)
(2.03011 -0.0668539 0)
(0.644223 1.11579 0)
(-0.897135 2.23513 6.77186e-20)
(-2.26941 2.92182 0)
(-3.15014 2.99899 6.6747e-20)
(-3.5765 2.54296 6.72074e-20)
(-3.85842 1.97384 -6.84217e-20)
(-4.16736 1.52876 0)
(-4.4781 1.19876 -7.13887e-20)
(-4.79711 0.963931 0)
(-5.10511 0.791574 -7.40159e-20)
(-5.39215 0.65885 7.50942e-20)
(-5.6507 0.55244 2.28873e-19)
(-5.87832 0.465728 0)
(-6.0759 0.396667 2.32669e-19)
(-6.24731 0.345562 7.83002e-20)
(-6.39916 0.313238 0)
(-6.54057 0.299669 1.57283e-19)
(-6.68243 0.303335 1.57696e-19)
(-6.83567 0.320786 -2.37042e-19)
(-7.00913 0.346947 0)
(-7.20812 0.375632 -7.93864e-20)
(-7.43307 0.399329 -7.96073e-20)
(-7.67785 0.408734 -2.39726e-19)
(-7.92848 0.394014 0)
(-8.16409 0.347946 0)
(-8.3607 0.269436 0)
(-8.49738 0.165019 -8.0662e-20)
(-8.56314 0.0478149 0)
(-8.56044 -0.0701237 0)
(-8.49264 -0.186582 7.70703e-20)
(-8.35946 -0.301127 7.52832e-20)
(-8.15906 -0.41703 0)
(-7.88792 -0.535127 0)
(-7.54387 -0.6539 1.34203e-19)
(-7.12628 -0.770475 0)
(-6.63612 -0.882189 -1.19372e-19)
(-6.0758 -0.987432 -1.12257e-19)
(-5.44877 -1.08608 0)
(-4.75817 -1.17988 0)
(-4.00495 -1.27203 8.7691e-20)
(-3.18756 -1.36461 -8.90031e-22)
(-2.30407 -1.45599 -9.52702e-22)
(-1.35469 -1.53601 0)
(-0.346835 -1.59095 1.19771e-19)
(0.69914 -1.60731 0)
(1.75762 -1.58167 0)
(2.80388 -1.51589 0)
(3.81407 -1.41661 -4.35381e-20)
(4.76929 -1.29013 0)
(5.65359 -1.14046 8.19527e-20)
(6.44888 -0.969844 3.98461e-20)
(7.13269 -0.780246 0)
(7.67412 -0.578758 3.97196e-20)
(8.03093 -0.38492 0)
(8.1833 -0.216183 0)
(8.18791 -0.0554046 1.22104e-19)
(8.15113 0.123453 -8.18975e-20)
(8.14046 0.307266 0)
(8.13557 0.483784 -8.20414e-20)
(8.04625 0.637814 4.06293e-20)
(7.78779 0.727901 0)
(7.33663 0.707597 0)
(6.74639 0.592591 0)
(6.13618 0.461708 1.18459e-19)
(5.61051 0.375799 0)
(5.18856 0.339046 3.84608e-20)
(4.82589 0.329084 0)
(4.47232 0.327758 0)
(4.111 0.323573 0)
(3.75834 0.304011 0)
(3.44696 0.260206 0)
(3.20374 0.194192 0)
(3.04296 0.121624 6.93816e-20)
(2.9531 0.0469133 0)
(2.92556 -0.0145965 3.28128e-20)
(2.92462 -0.0692849 -9.53488e-20)
(2.94305 -0.0944743 0)
(2.97132 -0.0972548 0)
(3.05652 -0.0641467 5.68497e-20)
(3.21692 -0.043942 5.44729e-20)
(3.37968 -0.019647 -5.21508e-20)
(3.43715 0.0655699 -4.96416e-20)
(0.0723892 -1.58804 -1.50497e-19)
(0.1705 -2.07792 -1.49445e-19)
(0.171147 -2.20977 -9.90499e-20)
(0.117333 -2.0349 -4.92154e-20)
(0.0579665 -1.92211 0)
(-0.0236814 -1.89135 9.82705e-20)
(-0.0921455 -1.7649 -4.88715e-20)
(-0.173771 -1.54293 0)
(-0.247611 -1.2301 -4.94184e-20)
(-0.349056 -0.833135 0)
(-0.482203 -0.367274 9.8154e-20)
(-0.639731 0.165464 0)
(-0.823886 0.723341 4.88257e-20)
(-1.07018 1.27145 9.66411e-20)
(-1.40577 1.79169 -9.54009e-20)
(-1.828 2.28324 0)
(-2.31894 2.75469 -9.248e-20)
(-2.86507 3.18827 0)
(-3.43695 3.52055 0)
(-3.96201 3.74883 -8.8397e-20)
(-4.40338 3.87699 0)
(-4.76584 3.9291 -1.20309e-21)
(-5.0621 3.92212 0)
(-5.32085 3.87128 0)
(-5.56537 3.78561 1.48133e-21)
(-5.82328 3.67344 -8.54479e-20)
(-6.11326 3.54583 -8.70965e-20)
(-6.43704 3.40459 -8.54711e-20)
(-6.79316 3.25082 0)
(-7.16883 3.08082 -1.73961e-19)
(-7.55272 2.89348 0)
(-7.93051 2.68956 -8.89531e-20)
(-8.29309 2.47149 0)
(-8.63279 2.24304 0)
(-8.94579 2.00729 9.06886e-20)
(-9.22934 1.76694 0)
(-9.48179 1.52381 -9.1645e-20)
(-9.70111 1.27944 1.8424e-21)
(-9.88504 1.03518 1.82514e-19)
(-10.0311 0.792508 -1.84402e-19)
(-10.137 0.55282 0)
(-10.2007 0.316929 0)
(-10.2219 0.0855212 -9.29002e-20)
(-10.2014 -0.138131 0)
(-10.1391 -0.349921 -8.77897e-20)
(-10.0358 -0.547053 8.66599e-20)
(-9.89419 -0.726603 8.53607e-20)
(-9.71766 -0.887339 0)
(-9.5107 -1.02834 -8.23272e-20)
(-9.2778 -1.14984 -8.06365e-20)
(-9.02344 -1.25282 1.59637e-19)
(-8.75153 -1.33912 -7.70212e-20)
(-8.46528 -1.41123 -7.51391e-20)
(-8.16696 -1.47212 0)
(-7.85784 -1.52508 0)
(-7.53826 -1.5734 6.93981e-20)
(-7.20782 -1.62007 0)
(-6.86563 -1.66749 0)
(-6.51024 -1.71741 -1.27483e-19)
(-6.13959 -1.77091 -1.23813e-19)
(-5.75119 -1.82816 0)
(-5.34257 -1.88821 0)
(-4.91202 -1.9488 0)
(-4.45983 -2.00671 0)
(-3.98991 -2.05879 -1.06897e-19)
(-3.51132 -2.10359 1.04817e-19)
(-3.03951 -2.14504 1.01304e-19)
(-2.59843 -2.19733 1.98471e-19)
(-2.22205 -2.28408 0)
(-1.94651 -2.41237 5.70203e-22)
(-1.7712 -2.50545 0)
(-1.58452 -2.36419 -9.21293e-20)
(-1.2148 -1.82047 -3.56695e-22)
(-0.89302 -1.10879 -9.02006e-20)
(-0.274021 -0.245212 8.87114e-20)
(0.369276 0.227245 -4.89477e-22)
(0.902004 0.235735 0)
(1.19444 0.0477502 8.43719e-20)
(1.26711 -0.155804 8.38158e-20)
(1.31552 -0.352354 1.65608e-19)
(1.44346 -0.565355 0)
(1.65839 -0.827092 -8.132e-20)
(1.94587 -1.16911 0)
(2.3016 -1.61675 1.59354e-19)
(2.71018 -2.06365 -7.84599e-20)
(3.22852 -2.41548 7.76709e-20)
(3.84815 -2.78734 -7.71375e-20)
(4.55929 -2.88377 -1.5744e-19)
(5.27042 -2.46872 7.74676e-20)
(5.69527 -1.65284 -7.80489e-20)