/*--------------------------------*- C++ -*----------------------------------*\
| =========                 |                                                 |
| \\      /  F ield         | OpenFOAM: The Open Source CFD Toolbox           |
|  \\    /   O peration     | Version:  2112                                  |
|   \\  /    A nd           | Website:  www.openfoam.com                      |
|    \\/     M anipulation  |                                                 |
\*---------------------------------------------------------------------------*/
FoamFile
{
    version     2.0;
    format      ascii;
    arch        "LSB;label=32;scalar=64";
    class       surfaceScalarField;
    location    "0.025";
    object      phi;
}
// * * * * * * * * * * * * * * * * * * * * * * * * * * * * * * * * * * * * * //

dimensions      [0 3 -1 0 0 0 0];

oriented        oriented;

internalField   nonuniform List<scalar> 
24170
(
3.18394e-06
6.3124e-08
3.08018e-06
1.03756e-07
2.93762e-06
1.42562e-07
2.79984e-06
1.37774e-07
2.68627e-06
1.13579e-07
2.58425e-06
1.02012e-07
2.48153e-06
1.02726e-07
2.37915e-06
1.02373e-07
2.2847e-06
9.44511e-08
2.20151e-06
8.31924e-08
2.12663e-06
7.4882e-08
2.0503e-06
7.63271e-08
1.96362e-06
8.66858e-08
1.86046e-06
1.03155e-07
1.74011e-06
1.20347e-07
1.60155e-06
1.38561e-07
1.44549e-06
1.56065e-07
1.77249e-07
1.26824e-06
3.4638e-06
-1.85563e-08
3.52785e-06
3.97107e-08
3.53878e-06
1.31631e-07
3.51187e-06
1.64677e-07
3.47837e-06
1.47083e-07
3.45373e-06
1.26651e-07
3.43529e-06
1.21173e-07
3.41565e-06
1.22005e-07
3.39213e-06
1.17976e-07
3.36535e-06
1.09972e-07
3.33636e-06
1.03874e-07
3.30405e-06
1.08629e-07
3.26672e-06
1.24017e-07
3.22081e-06
1.49068e-07
3.16426e-06
1.76893e-07
3.09383e-06
2.0899e-07
3.0059e-06
2.43997e-07
2.806e-07
2.90255e-06
3.67504e-06
-2.2042e-08
3.68629e-06
2.84544e-08
3.68798e-06
1.2994e-07
3.71316e-06
1.39498e-07
3.749e-06
1.11242e-07
3.77057e-06
1.05084e-07
3.76578e-06
1.25969e-07
3.73977e-06
1.4801e-07
3.70554e-06
1.52206e-07
3.67404e-06
1.41469e-07
3.64941e-06
1.28506e-07
3.63142e-06
1.26622e-07
3.61714e-06
1.38292e-07
3.60401e-06
1.62206e-07
3.58825e-06
1.92649e-07
3.56819e-06
2.29052e-07
3.54239e-06
2.69799e-07
3.12356e-07
3.51063e-06
3.96842e-06
-1.52811e-07
3.98407e-06
1.27983e-08
3.97465e-06
1.3936e-07
3.96991e-06
1.4424e-07
3.97374e-06
1.07413e-07
3.97726e-06
1.01565e-07
3.97097e-06
1.32255e-07
3.95518e-06
1.638e-07
3.93813e-06
1.69256e-07
3.9267e-06
1.52899e-07
3.92027e-06
1.34936e-07
3.91404e-06
1.32851e-07
3.90282e-06
1.49519e-07
3.88454e-06
1.80479e-07
3.86061e-06
2.16579e-07
3.83431e-06
2.55359e-07
3.80965e-06
2.94458e-07
3.35227e-07
3.78678e-06
4.19337e-06
-1.47698e-07
4.20499e-06
1.17731e-09
4.22322e-06
1.21128e-07
4.22695e-06
1.40517e-07
4.21953e-06
1.14833e-07
4.20992e-06
1.11172e-07
4.19927e-06
1.42909e-07
4.1862e-06
1.76869e-07
4.17324e-06
1.82211e-07
4.16493e-06
1.61214e-07
4.16326e-06
1.36604e-07
4.16644e-06
1.2967e-07
4.1692e-06
1.46754e-07
4.16546e-06
1.84223e-07
4.15154e-06
2.30503e-07
4.12761e-06
2.79287e-07
4.09685e-06
3.25211e-07
3.67619e-07
4.06446e-06
4.48101e-06
-6.86647e-08
4.45678e-06
2.54058e-08
4.47884e-06
9.90691e-08
4.49405e-06
1.25307e-07
4.48878e-06
1.20103e-07
4.47682e-06
1.23128e-07
4.46924e-06
1.50497e-07
4.46751e-06
1.78597e-07
4.46844e-06
1.81278e-07
4.46984e-06
1.59812e-07
4.47127e-06
1.35178e-07
4.4726e-06
1.2834e-07
4.47185e-06
1.47507e-07
4.46592e-06
1.90153e-07
4.45166e-06
2.44761e-07
4.42945e-06
3.01493e-07
4.4022e-06
3.5246e-07
3.94404e-07
4.37542e-06
4.80766e-06
-1.26814e-07
4.80626e-06
2.68011e-08
4.81312e-06
9.22152e-08
4.82858e-06
1.09849e-07
4.84338e-06
1.053e-07
4.85433e-06
1.12178e-07
4.85983e-06
1.44994e-07
4.85862e-06
1.79809e-07
4.85129e-06
1.88612e-07
4.83958e-06
1.71518e-07
4.82523e-06
1.49527e-07
4.80994e-06
1.43634e-07
4.79505e-06
1.62395e-07
4.78228e-06
2.02926e-07
4.77191e-06
2.5513e-07
4.76489e-06
3.08509e-07
4.76093e-06
3.5642e-07
3.9527e-07
4.76007e-06
5.21457e-06
2.47196e-08
5.22079e-06
2.05825e-08
5.25334e-06
5.96643e-08
5.27687e-06
8.63255e-08
5.27302e-06
1.09146e-07
5.24606e-06
1.39137e-07
5.21357e-06
1.7749e-07
5.18841e-06
2.04965e-07
5.17309e-06
2.03935e-07
5.16577e-06
1.78831e-07
5.16486e-06
1.50438e-07
5.16848e-06
1.40014e-07
5.17368e-06
1.57193e-07
5.17737e-06
1.99245e-07
5.17784e-06
2.54654e-07
5.17539e-06
3.10957e-07
5.17112e-06
3.6069e-07
3.99409e-07
5.16699e-06
5.63085e-06
-2.46631e-09
5.67144e-06
-2.0009e-08
5.70368e-06
2.74267e-08
5.70489e-06
8.51181e-08
5.67784e-06
1.362e-07
5.63778e-06
1.79194e-07
5.59994e-06
2.15328e-07
5.56903e-06
2.35875e-07
5.54089e-06
2.32074e-07
5.51219e-06
2.0753e-07
5.48543e-06
1.77201e-07
5.46603e-06
1.59412e-07
5.45739e-06
1.65832e-07
5.45846e-06
1.98178e-07
5.46448e-06
2.48634e-07
5.47018e-06
3.05261e-07
5.47236e-06
3.58504e-07
4.01618e-07
5.47015e-06
5.88217e-06
-8.78354e-08
5.93712e-06
-7.49541e-08
5.99082e-06
-2.62743e-08
6.03343e-06
4.25072e-08
6.03614e-06
1.33482e-07
6.00303e-06
2.12306e-07
5.96503e-06
2.5333e-07
5.94547e-06
2.55434e-07
5.9442e-06
2.3334e-07
5.94815e-06
2.03587e-07
5.94687e-06
1.78478e-07
5.9385e-06
1.67784e-07
5.92668e-06
1.77652e-07
5.91648e-06
2.08379e-07
5.91051e-06
2.54601e-07
5.90959e-06
3.06185e-07
5.9125e-06
3.55587e-07
3.96152e-07
5.91797e-06
6.47423e-06
-8.33644e-08
6.40775e-06
-8.47736e-09
6.36556e-06
1.59212e-08
6.33682e-06
7.12492e-08
6.3151e-06
1.55193e-07
6.30187e-06
2.25541e-07
6.29728e-06
2.5792e-07
6.29549e-06
2.57226e-07
6.28864e-06
2.40191e-07
6.27524e-06
2.16988e-07
6.26185e-06
1.91864e-07
6.25749e-06
1.72141e-07
6.2673e-06
1.67848e-07
6.28984e-06
1.85831e-07
6.31921e-06
2.25238e-07
6.3479e-06
2.77494e-07
6.37012e-06
3.33361e-07
3.83385e-07
6.38289e-06
5.78443e-06
-1.08768e-07
5.75663e-06
1.93271e-08
5.7013e-06
7.12483e-08
5.64964e-06
1.22911e-07
5.61688e-06
1.87951e-07
5.6098e-06
2.3262e-07
5.62986e-06
2.37865e-07
5.66646e-06
2.20625e-07
5.70116e-06
2.0549e-07
5.71837e-06
1.99774e-07
5.71229e-06
1.9795e-07
5.68793e-06
1.96499e-07
5.65679e-06
1.98991e-07
5.63071e-06
2.11909e-07
5.61758e-06
2.38372e-07
5.61778e-06
2.77295e-07
5.62951e-06
3.21629e-07
3.66838e-07
5.64605e-06
6.94456e-06
-2.04764e-08
6.95654e-06
7.34093e-09
6.9247e-06
1.03087e-07
6.91072e-06
1.36898e-07
6.93901e-06
1.59659e-07
6.99732e-06
1.74308e-07
7.0552e-06
1.79982e-07
7.09127e-06
1.8456e-07
7.10336e-06
1.93402e-07
7.09856e-06
2.04566e-07
7.08157e-06
2.14947e-07
7.05323e-06
2.24837e-07
7.01479e-06
2.37426e-07
6.97184e-06
2.54862e-07
6.93326e-06
2.76955e-07
6.90763e-06
3.02922e-07
6.89963e-06
3.29631e-07
3.56313e-07
6.91015e-06
8.43944e-06
-1.90575e-07
8.46661e-06
-1.98327e-08
8.45652e-06
1.13182e-07
8.44201e-06
1.514e-07
8.43854e-06
1.6313e-07
8.44021e-06
1.72636e-07
8.4322e-06
1.87997e-07
8.41228e-06
2.04481e-07
8.39427e-06
2.11407e-07
8.39495e-06
2.03893e-07
8.42174e-06
1.88152e-07
8.4701e-06
1.76473e-07
8.52846e-06
1.79072e-07
8.58453e-06
1.98792e-07
8.62918e-06
2.323e-07
8.65999e-06
2.72115e-07
8.67707e-06
3.12551e-07
3.48285e-07
8.6851e-06
1.04927e-05
-2.41809e-07
1.04469e-05
2.59871e-08
1.03379e-05
2.22231e-07
1.02358e-05
2.53429e-07
1.01815e-05
2.17439e-07
1.0176e-05
1.78192e-07
1.02124e-05
1.5158e-07
1.02813e-05
1.35547e-07
1.03674e-05
1.25294e-07
1.04493e-05
1.21971e-07
1.05086e-05
1.28935e-07
1.05378e-05
1.47276e-07
1.05422e-05
1.74593e-07
1.05328e-05
2.08254e-07
1.05201e-05
2.45012e-07
1.05096e-05
2.82546e-07
1.05045e-05
3.17673e-07
3.47547e-07
1.05053e-05
1.27385e-05
1.14258e-07
1.25938e-05
1.70757e-07
1.25938e-05
2.22169e-07
1.26227e-05
2.24578e-07
1.26351e-05
2.0507e-07
1.26307e-05
1.82564e-07
1.26281e-05
1.54125e-07
1.26395e-05
1.24209e-07
1.26595e-05
1.05281e-07
1.26748e-05
1.06623e-07
1.26742e-05
1.29544e-07
1.26549e-05
1.66561e-07
1.26226e-05
2.06948e-07
1.25866e-05
2.44196e-07
1.25565e-05
2.7512e-07
1.25381e-05
3.00964e-07
1.25344e-05
3.21401e-07
3.38722e-07
1.25432e-05
1.49976e-05
3.55277e-07
1.50544e-05
1.1396e-07
1.53052e-05
-2.85959e-08
1.55492e-05
-1.93822e-08
1.57093e-05
4.49304e-08
1.5769e-05
1.22891e-07
1.57413e-05
1.81753e-07
1.56628e-05
2.0272e-07
1.55701e-05
1.97978e-07
1.54882e-05
1.88597e-07
1.5429e-05
1.88671e-07
1.53935e-05
2.02108e-07
1.53757e-05
2.24779e-07
1.53698e-05
2.50026e-07
1.53733e-05
2.71595e-07
1.53868e-05
2.87471e-07
1.5412e-05
2.96237e-07
3.00562e-07
1.54502e-05
1.87741e-05
2.27742e-07
1.87908e-05
9.72378e-08
1.88045e-05
-4.22937e-08
1.88528e-05
-6.76924e-08
1.89035e-05
-5.80133e-09
1.89163e-05
1.10137e-07
1.89062e-05
1.91836e-07
1.88925e-05
2.16378e-07
1.88914e-05
1.99073e-07
1.89067e-05
1.73359e-07
1.89331e-05
1.62269e-07
1.89633e-05
1.71897e-07
1.89922e-05
1.95857e-07
1.90183e-05
2.23897e-07
1.90431e-05
2.46882e-07
1.90689e-05
2.61649e-07
1.90974e-05
2.67721e-07
2.6949e-07
1.91285e-05
2.25156e-05
-1.61335e-07
2.28117e-05
-1.98843e-07
2.29184e-05
-1.49029e-07
2.29247e-05
-7.39561e-08
2.28935e-05
2.53844e-08
2.29055e-05
9.81061e-08
2.29607e-05
1.3672e-07
2.30328e-05
1.44256e-07
2.30874e-05
1.44446e-07
2.31068e-05
1.53959e-07
2.3097e-05
1.72098e-07
2.30802e-05
1.88716e-07
2.30796e-05
1.96378e-07
2.31089e-05
1.94683e-07
2.31677e-05
1.88015e-07
2.32472e-05
1.82226e-07
2.33346e-05
1.80291e-07
1.8491e-07
2.34192e-05
1.67489e-05
-1.76393e-07
1.68564e-05
-3.06324e-07
1.68924e-05
-1.85063e-07
1.68916e-05
-7.30996e-08
1.69106e-05
6.34861e-09
1.69339e-05
7.48459e-08
1.69596e-05
1.11037e-07
1.69815e-05
1.22334e-07
1.70003e-05
1.25674e-07
1.70251e-05
1.29153e-07
1.70648e-05
1.32403e-07
1.71192e-05
1.3424e-07
1.71815e-05
1.34129e-07
1.72428e-05
1.33327e-07
1.72972e-05
1.3366e-07
1.73427e-05
1.36682e-07
1.73808e-05
1.42207e-07
1.50536e-07
1.74152e-05
1.48383e-05
1.94081e-08
1.46129e-05
-8.10156e-08
1.45579e-05
-1.3002e-07
1.45545e-05
-6.96871e-08
1.45448e-05
1.60328e-08
1.45352e-05
8.44483e-08
1.45284e-05
1.17856e-07
1.45329e-05
1.17783e-07
1.45594e-05
9.92016e-08
1.46116e-05
7.69853e-08
1.4684e-05
6.00014e-08
1.47667e-05
5.14812e-08
1.48496e-05
5.12548e-08
1.49248e-05
5.81311e-08
1.49881e-05
7.03307e-08
1.50393e-05
8.55085e-08
1.50803e-05
1.01166e-07
1.15128e-07
1.51158e-05
1.25532e-05
8.309e-08
1.26586e-05
-1.86387e-07
1.28097e-05
-2.81111e-07
1.29221e-05
-1.82103e-07
1.29499e-05
-1.18175e-08
1.28991e-05
1.35231e-07
1.28174e-05
1.99586e-07
1.27434e-05
1.91753e-07
1.26944e-05
1.48263e-07
1.26731e-05
9.8301e-08
1.26771e-05
5.59921e-08
1.2702e-05
2.65322e-08
1.27421e-05
1.11309e-08
1.27917e-05
8.59941e-09
1.28461e-05
1.58555e-08
1.29023e-05
2.94016e-08
1.29581e-05
4.53506e-08
6.19409e-08
1.30113e-05
1.11704e-05
5.63547e-08
1.10281e-05
-4.4063e-08
1.08981e-05
-1.51074e-07
1.0915e-05
-1.99053e-07
1.10111e-05
-1.07855e-07
1.11189e-05
2.73361e-08
1.12034e-05
1.15094e-07
1.12602e-05
1.35008e-07
1.13019e-05
1.06552e-07
1.13359e-05
6.43194e-08
1.13592e-05
3.27057e-08
1.13664e-05
1.92767e-08
1.13574e-05
2.01217e-08
1.13388e-05
2.71793e-08
1.13218e-05
3.28597e-08
1.13166e-05
3.46559e-08
1.13293e-05
3.26154e-08
3.04318e-08
1.13608e-05
9.86564e-06
-5.68552e-08
9.83829e-06
-1.67194e-08
9.7235e-06
-3.62793e-08
9.58211e-06
-5.76585e-08
9.52473e-06
-5.04789e-08
9.57541e-06
-2.33484e-08
9.6904e-06
1.07281e-10
9.8108e-06
1.46134e-08
9.90127e-06
1.60778e-08
9.95211e-06
1.34834e-08
9.97089e-06
1.39224e-08
9.97169e-06
1.84732e-08
9.96666e-06
2.51537e-08
9.96219e-06
3.16493e-08
9.95854e-06
3.65088e-08
9.95393e-06
3.92669e-08
9.9458e-06
4.07425e-08
4.18902e-08
9.93434e-06
8.55815e-06
-3.70984e-08
8.45362e-06
8.78147e-08
8.40135e-06
1.5991e-08
8.37788e-06
-3.4185e-08
8.37506e-06
-4.76621e-08
8.40047e-06
-4.87615e-08
8.4359e-06
-3.53167e-08
8.46277e-06
-1.22594e-08
8.47431e-06
4.53386e-09
8.48076e-06
7.03521e-09
8.49481e-06
-1.24111e-10
8.52287e-06
-9.58903e-09
8.56257e-06
-1.45492e-08
8.606e-06
-1.1779e-08
8.64431e-06
-1.7966e-09
8.67275e-06
1.08263e-08
8.68931e-06
2.41756e-08
3.44481e-08
8.69676e-06
7.14766e-06
-6.07632e-08
7.2554e-06
-1.9918e-08
7.30896e-06
-3.75764e-08
7.33171e-06
-5.6932e-08
7.37754e-06
-9.34952e-08
7.4393e-06
-1.10519e-07
7.49556e-06
-9.15767e-08
7.53577e-06
-5.24645e-08
7.55814e-06
-1.78427e-08
7.56473e-06
4.51155e-10
7.55811e-06
6.49484e-09
7.54144e-06
7.08007e-09
7.51917e-06
7.72302e-09
7.49724e-06
1.01475e-08
7.48196e-06
1.3481e-08
7.47647e-06
1.63245e-08
7.48287e-06
1.77676e-08
1.75133e-08
7.49981e-06
6.4981e-06
-2.18045e-08
6.50702e-06
-2.88405e-08
6.50689e-06
-3.74406e-08
6.48848e-06
-3.85277e-08
6.45357e-06
-5.85828e-08
6.41728e-06
-7.42314e-08
6.3975e-06
-7.17939e-08
6.40217e-06
-5.71303e-08
6.42564e-06
-4.13159e-08
6.45734e-06
-3.12495e-08
6.48953e-06
-2.57006e-08
6.51805e-06
-2.14348e-08
6.54196e-06
-1.61918e-08
6.5617e-06
-9.58797e-09
6.57808e-06
-2.89789e-09
6.5923e-06
2.10674e-09
6.60501e-06
5.05458e-09
5.9477e-09
6.61657e-06
5.58149e-06
-4.50246e-08
5.5771e-06
-2.44494e-08
5.59049e-06
-5.0828e-08
5.60584e-06
-5.38851e-08
5.60607e-06
-5.88126e-08
5.59814e-06
-6.63031e-08
5.59233e-06
-6.59742e-08
5.59287e-06
-5.76766e-08
5.59843e-06
-4.68719e-08
5.60701e-06
-3.9831e-08
5.61849e-06
-3.71798e-08
5.63346e-06
-3.64037e-08
5.65162e-06
-3.43511e-08
5.6717e-06
-2.9671e-08
5.69226e-06
-2.34542e-08
5.71199e-06
-1.76316e-08
5.73043e-06
-1.338e-08
-1.12682e-08
5.74764e-06
4.83336e-06
-5.71754e-08
4.88019e-06
-7.12832e-08
4.86531e-06
-3.59473e-08
4.85415e-06
-4.27249e-08
4.86623e-06
-7.08901e-08
4.8879e-06
-8.79783e-08
4.8994e-06
-7.74698e-08
4.89371e-06
-5.19869e-08
4.87843e-06
-3.15977e-08
4.86555e-06
-2.69429e-08
4.86277e-06
-3.44092e-08
4.87076e-06
-4.43863e-08
4.88602e-06
-4.96148e-08
4.90466e-06
-4.83131e-08
4.92394e-06
-4.27316e-08
4.94246e-06
-3.61534e-08
4.95971e-06
-3.06314e-08
-2.67764e-08
4.97522e-06
4.06201e-06
3.99072e-06
3.95478e-06
3.91205e-06
3.84116e-06
3.75318e-06
3.67571e-06
3.62373e-06
3.59213e-06
3.56519e-06
3.53078e-06
3.48639e-06
3.43678e-06
3.38846e-06
3.34573e-06
3.30958e-06
3.27895e-06
3.25217e-06
-3.51581e-07
3.51581e-07
-4.08867e-07
5.72865e-08
-1.20877e-07
-2.87991e-07
3.60099e-07
-4.80975e-07
9.26806e-07
-5.66708e-07
1.50174e-06
-5.74934e-07
2.03707e-06
-5.35335e-07
2.5051e-06
-4.68025e-07
2.88957e-06
-3.84474e-07
3.18093e-06
-2.91356e-07
3.37392e-06
-1.92993e-07
3.46742e-06
-9.34985e-08
3.4654e-06
2.02489e-09
3.36977e-06
9.56301e-08
3.18915e-06
1.80612e-07
2.93457e-06
2.54584e-07
2.61755e-06
3.17015e-07
2.25275e-06
3.64808e-07
1.85311e-06
3.9964e-07
1.43854e-06
4.14568e-07
1.02814e-06
4.10401e-07
6.65418e-07
3.6272e-07
3.20156e-07
3.45261e-07
1.83535e-07
1.36621e-07
2.21835e-07
-3.82997e-08
2.04935e-07
1.69005e-08
5.66934e-07
-3.61999e-07
1.07386e-06
-5.06922e-07
1.10359e-06
-2.97335e-08
1.05102e-06
5.25725e-08
6.06213e-07
4.44804e-07
-6.02494e-07
1.20871e-06
-1.86545e-06
1.26295e-06
-3.02659e-06
1.16115e-06
-4.09559e-06
1.06899e-06
-5.0747e-06
9.7911e-07
-5.96634e-06
8.9164e-07
-6.77747e-06
8.11135e-07
-7.51231e-06
7.34833e-07
-8.17704e-06
6.64735e-07
-8.77551e-06
5.98464e-07
-9.31162e-06
5.3611e-07
-9.78786e-06
4.76243e-07
-1.02066e-05
4.18707e-07
-1.05692e-05
3.626e-07
-1.08768e-05
3.07612e-07
-1.11302e-05
2.534e-07
-1.13303e-05
2.00076e-07
-1.1478e-05
1.47792e-07
-1.1575e-05
9.69054e-08
-1.16228e-05
4.78186e-08
-1.16227e-05
-7.51994e-11
-1.15829e-05
-3.98073e-08
-1.15047e-05
-7.81568e-08
-1.13913e-05
-1.13473e-07
-1.1246e-05
-1.4521e-07
-1.10725e-05
-1.73509e-07
-1.08744e-05
-1.98139e-07
-1.06554e-05
-2.19042e-07
-1.04194e-05
-2.3595e-07
-1.01707e-05
-2.48751e-07
-9.9134e-06
-2.57257e-07
-9.65199e-06
-2.6141e-07
-9.39074e-06
-2.61246e-07
-9.13377e-06
-2.56976e-07
-8.8847e-06
-2.49071e-07
-8.64643e-06
-2.38272e-07
-8.42083e-06
-2.256e-07
-8.20851e-06
-2.12317e-07
-8.00865e-06
-1.9986e-07
-7.81891e-06
-1.89742e-07
-7.63547e-06
-1.83437e-07
-7.45322e-06
-1.82253e-07
-7.26602e-06
-1.87201e-07
-7.0671e-06
-1.98917e-07
-6.84955e-06
-2.17545e-07
-6.60684e-06
-2.4271e-07
-6.33331e-06
-2.73538e-07
-6.02459e-06
-3.08715e-07
-5.67806e-06
-3.46529e-07
-5.29314e-06
-3.84924e-07
-4.87151e-06
-4.21624e-07
-4.41712e-06
-4.54397e-07
-3.93573e-06
-4.81381e-07
-3.43454e-06
-5.01192e-07
-2.92151e-06
-5.1303e-07
-2.40461e-06
-5.169e-07
-1.89121e-06
-5.13397e-07
-1.38795e-06
-5.03266e-07
-9.00219e-07
-4.87729e-07
-4.32642e-07
-4.67577e-07
1.10303e-08
-4.43673e-07
4.30671e-07
-4.19641e-07
8.22535e-07
-3.91864e-07
1.18641e-06
-3.63878e-07
1.52277e-06
-3.36357e-07
1.83252e-06
-3.09752e-07
2.11671e-06
-2.84191e-07
2.37634e-06
-2.59631e-07
2.61237e-06
-2.36029e-07
2.82579e-06
-2.13421e-07
3.01771e-06
-1.91912e-07
3.18934e-06
-1.7163e-07
3.34202e-06
-1.52686e-07
3.47718e-06
-1.35157e-07
3.59625e-06
-1.19074e-07
3.70068e-06
-1.04429e-07
3.79184e-06
-9.11572e-08
3.871e-06
-7.91543e-08
3.93926e-06
-6.8268e-08
3.99757e-06
-5.8304e-08
4.04668e-06
-4.91103e-08
4.08717e-06
-4.04952e-08
4.11954e-06
-3.23644e-08
4.14426e-06
-2.47195e-08
4.16166e-06
-1.74024e-08
4.17223e-06
-1.057e-08
4.17646e-06
-4.23559e-09
4.17442e-06
2.04833e-09
4.16628e-06
8.13843e-09
4.15272e-06
1.35532e-08
4.13451e-06
1.82189e-08
4.11231e-06
2.21982e-08
4.08679e-06
2.55166e-08
4.0586e-06
2.8194e-08
4.02831e-06
3.02837e-08
3.99644e-06
3.1877e-08
3.9634e-06
3.30385e-08
3.92957e-06
3.38257e-08
3.89526e-06
3.43073e-08
3.86073e-06
3.45395e-08
3.82617e-06
3.4559e-08
3.79178e-06
3.43869e-08
3.75774e-06
3.40345e-08
3.72424e-06
3.35065e-08
3.69143e-06
3.28078e-08
3.65948e-06
3.19476e-08
3.62854e-06
3.09457e-08
3.59871e-06
2.98307e-08
3.57007e-06
2.8635e-08
3.54268e-06
2.73928e-08
3.51654e-06
2.61374e-08
3.49164e-06
2.48968e-08
3.46795e-06
2.36924e-08
3.44541e-06
2.25403e-08
3.42396e-06
2.14534e-08
3.40352e-06
2.04418e-08
3.384e-06
1.95123e-08
3.36534e-06
1.86657e-08
3.34744e-06
1.7898e-08
3.33024e-06
1.7205e-08
3.31365e-06
1.65872e-08
3.2976e-06
1.60477e-08
3.28202e-06
1.55851e-08
3.26683e-06
1.51864e-08
3.252e-06
1.48296e-08
3.23751e-06
1.44919e-08
3.22334e-06
1.41632e-08
3.20949e-06
1.38512e-08
3.19592e-06
1.35776e-08
3.18254e-06
1.33723e-08
3.16929e-06
1.32556e-08
3.15603e-06
1.32553e-08
3.14267e-06
1.33625e-08
3.12904e-06
1.36298e-08
3.11504e-06
1.39977e-08
3.10041e-06
1.46371e-08
3.08508e-06
1.53299e-08
3.06847e-06
1.66102e-08
3.05074e-06
1.77301e-08
3.03043e-06
2.03026e-08
3.00852e-06
2.1917e-08
2.98112e-06
2.73966e-08
2.95183e-06
2.92877e-08
2.90983e-06
4.19997e-08
2.86685e-06
4.29851e-08
2.79151e-06
7.53367e-08
2.71882e-06
7.26892e-08
2.54684e-06
1.71985e-07
1.72241e-07
2.3746e-06
-1.04515e-07
4.56096e-07
1.29597e-07
-1.76825e-07
5.94814e-07
-7.53208e-07
1.15836e-06
-1.04452e-06
1.72318e-06
-1.13152e-06
2.24793e-06
-1.09969e-06
2.71607e-06
-1.00347e-06
3.11645e-06
-8.68406e-07
3.43967e-06
-7.07689e-07
3.67784e-06
-5.29533e-07
3.82705e-06
-3.42199e-07
3.88556e-06
-1.52009e-07
3.85624e-06
3.13446e-08
3.75478e-06
1.97091e-07
3.59175e-06
3.43643e-07
3.37602e-06
4.70313e-07
3.12168e-06
5.71356e-07
2.84034e-06
6.46149e-07
2.54022e-06
6.99758e-07
2.2428e-06
7.11989e-07
1.93456e-06
7.18638e-07
1.68083e-06
6.16449e-07
1.48582e-06
5.40272e-07
1.18485e-06
4.3759e-07
1.32607e-06
-1.79522e-07
1.57541e-06
-2.32436e-07
1.052e-06
1.61408e-07
1.09401e-07
4.3568e-07
-1.27207e-06
1.35173e-06
-2.89555e-06
1.67606e-06
-4.22741e-06
1.77666e-06
-4.97453e-06
1.95583e-06
-5.65416e-06
1.94258e-06
-6.36202e-06
1.86902e-06
-7.02206e-06
1.72903e-06
-7.64013e-06
1.59718e-06
-8.2041e-06
1.45561e-06
-8.72236e-06
1.32939e-06
-9.19468e-06
1.20716e-06
-9.62601e-06
1.09606e-06
-1.0017e-05
9.89432e-07
-1.03694e-05
8.8849e-07
-1.06834e-05
7.90246e-07
-1.0959e-05
6.9439e-07
-1.11956e-05
5.99148e-07
-1.13925e-05
5.04555e-07
-1.15495e-05
4.10415e-07
-1.16667e-05
3.17221e-07
-1.17443e-05
2.25436e-07
-1.17834e-05
1.35962e-07
-1.17851e-05
4.951e-08
-1.17516e-05
-3.35972e-08
-1.16806e-05
-1.10799e-07
-1.15755e-05
-1.83266e-07
-1.14388e-05
-2.50161e-07
-1.12732e-05
-3.10821e-07
-1.1082e-05
-3.64699e-07
-1.08687e-05
-4.11458e-07
-1.06369e-05
-4.5078e-07
-1.03905e-05
-4.82381e-07
-1.01333e-05
-5.05947e-07
-9.86934e-06
-5.21203e-07
-9.60278e-06
-5.27973e-07
-9.33772e-06
-5.26304e-07
-9.0781e-06
-5.16602e-07
-8.82741e-06
-4.9976e-07
-8.58843e-06
-4.77254e-07
-8.36288e-06
-4.51147e-07
-8.15118e-06
-4.24015e-07
-7.95227e-06
-3.98775e-07
-7.76353e-06
-3.78482e-07
-7.58086e-06
-3.66099e-07
-7.39887e-06
-3.64243e-07
-7.21115e-06
-3.74928e-07
-7.01069e-06
-3.99372e-07
-6.7904e-06
-4.37835e-07
-6.54358e-06
-4.89533e-07
-6.26448e-06
-5.52636e-07
-5.94879e-06
-6.2441e-07
-5.59398e-06
-7.0134e-07
-5.19969e-06
-7.79212e-07
-4.76798e-06
-8.53333e-07
-4.30331e-06
-9.19061e-07
-3.81213e-06
-9.72565e-07
-3.30228e-06
-1.01104e-06
-2.78249e-06
-1.03282e-06
-2.26107e-06
-1.03833e-06
-1.74535e-06
-1.02911e-06
-1.24172e-06
-1.0069e-06
-7.54962e-07
-9.74485e-07
-2.89102e-07
-9.33437e-07
1.53624e-07
-8.86398e-07
5.70053e-07
-8.36069e-07
9.59718e-07
-7.8153e-07
1.32233e-06
-7.26494e-07
1.65893e-06
-6.72951e-07
1.97096e-06
-6.21787e-07
2.25982e-06
-5.7305e-07
2.52662e-06
-5.26433e-07
2.77228e-06
-4.81686e-07
2.99764e-06
-4.3878e-07
3.2036e-06
-3.97869e-07
3.39114e-06
-3.59173e-07
3.56134e-06
-3.2289e-07
3.71535e-06
-2.89161e-07
3.85434e-06
-2.58067e-07
3.97954e-06
-2.29625e-07
4.09216e-06
-2.0378e-07
4.1934e-06
-1.80394e-07
4.28436e-06
-1.59232e-07
4.36605e-06
-1.39992e-07
4.43929e-06
-1.22346e-07
4.50478e-06
-1.05988e-07
4.5631e-06
-9.06885e-08
4.6147e-06
-7.63145e-08
4.6601e-06
-6.28059e-08
4.6997e-06
-5.01689e-08
4.73394e-06
-3.84732e-08
4.76372e-06
-2.77316e-08
4.78975e-06
-1.78919e-08
4.81229e-06
-8.98569e-09
4.83152e-06
-1.01447e-09
4.84765e-06
6.07205e-09
4.86091e-06
1.22493e-08
4.87161e-06
1.75029e-08
4.88001e-06
2.18845e-08
4.8864e-06
2.54866e-08
4.89108e-06
2.83496e-08
4.89437e-06
3.05395e-08
4.89652e-06
3.21531e-08
4.89778e-06
3.32801e-08
4.89834e-06
3.39989e-08
4.89835e-06
3.4378e-08
4.89791e-06
3.44744e-08
4.89709e-06
3.43344e-08
4.8959e-06
3.39979e-08
4.89434e-06
3.3502e-08
4.8924e-06
3.28859e-08
4.89004e-06
3.2189e-08
4.88723e-06
3.14467e-08
4.88393e-06
3.06909e-08
4.88012e-06
2.99488e-08
4.87578e-06
2.92398e-08
4.8709e-06
2.85753e-08
4.86547e-06
2.7962e-08
4.85952e-06
2.74029e-08
4.85307e-06
2.68988e-08
4.84613e-06
2.64481e-08
4.83875e-06
2.60461e-08
4.83096e-06
2.56861e-08
4.8228e-06
2.53634e-08
4.81431e-06
2.50786e-08
4.80553e-06
2.48347e-08
4.79648e-06
2.46313e-08
4.78721e-06
2.44591e-08
4.77773e-06
2.43019e-08
4.76808e-06
2.41456e-08
4.75826e-06
2.39853e-08
4.74827e-06
2.38351e-08
4.73814e-06
2.37161e-08
4.72784e-06
2.36718e-08
4.71737e-06
2.37203e-08
4.7067e-06
2.39227e-08
4.69582e-06
2.42522e-08
4.68462e-06
2.48249e-08
4.6731e-06
2.55164e-08
4.66109e-06
2.66478e-08
4.64859e-06
2.7826e-08
4.63524e-06
2.99662e-08
4.62111e-06
3.18567e-08
4.60536e-06
3.60497e-08
4.58836e-06
3.89217e-08
4.56821e-06
4.75452e-08
4.54595e-06
5.15532e-08
4.51743e-06
7.05196e-08
4.48467e-06
7.57377e-08
4.43858e-06
1.21431e-07
4.38052e-06
1.30751e-07
4.29895e-06
2.53549e-07
2.89721e-07
4.18147e-06
2.42363e-07
2.13733e-07
8.3406e-07
-7.68522e-07
1.45096e-06
-1.37011e-06
1.99952e-06
-1.59308e-06
2.47854e-06
-1.61055e-06
2.90549e-06
-1.52664e-06
3.2841e-06
-1.38207e-06
3.60706e-06
-1.19137e-06
3.86306e-06
-9.63687e-07
4.04056e-06
-7.07034e-07
4.13036e-06
-4.31992e-07
4.12819e-06
-1.49848e-07
4.03728e-06
1.22256e-07
3.86407e-06
3.70309e-07
3.62438e-06
5.8333e-07
3.34174e-06
7.52953e-07
3.03053e-06
8.82569e-07
2.70458e-06
9.72097e-07
2.38133e-06
1.023e-06
2.06591e-06
1.02741e-06
1.75546e-06
1.02909e-06
1.46366e-06
9.08246e-07
1.16068e-06
8.43259e-07
1.00334e-06
5.9493e-07
6.20658e-07
2.03157e-07
-1.80155e-07
5.68377e-07
-1.62163e-06
1.60289e-06
-3.26029e-06
2.07434e-06
-4.26179e-06
2.35323e-06
-5.06086e-06
2.47513e-06
-5.7905e-06
2.5063e-06
-6.30416e-06
2.46949e-06
-6.70894e-06
2.34736e-06
-7.07784e-06
2.23792e-06
-7.44854e-06
2.09973e-06
-7.82416e-06
1.9728e-06
-8.20628e-06
1.83773e-06
-8.5889e-06
1.71201e-06
-8.96677e-06
1.58503e-06
-9.33318e-06
1.46246e-06
-9.68194e-06
1.33819e-06
-1.00071e-05
1.21369e-06
-1.03032e-05
1.08629e-06
-1.05654e-05
9.56592e-07
-1.07901e-05
8.23881e-07
-1.09746e-05
6.89076e-07
-1.11172e-05
5.52958e-07
-1.12171e-05
4.17107e-07
-1.12746e-05
2.83e-07
-1.12907e-05
1.52023e-07
-1.12656e-05
2.44248e-08
-1.12049e-05
-9.43489e-08
-1.11093e-05
-2.06355e-07
-1.09824e-05
-3.10147e-07
-1.08281e-05
-4.045e-07
-1.065e-05
-4.88942e-07
-1.04515e-05
-5.63197e-07
-1.02358e-05
-6.27105e-07
-1.00061e-05
-6.80497e-07
-9.7653e-06
-7.2318e-07
-9.51642e-06
-7.54826e-07
-9.26258e-06
-7.75041e-07
-9.00713e-06
-7.83428e-07
-8.75364e-06
-7.79795e-07
-8.50583e-06
-7.64414e-07
-8.26729e-06
-7.38293e-07
-8.04115e-06
-7.03395e-07
-7.82957e-06
-6.6273e-07
-7.63333e-06
-6.20259e-07
-7.45149e-06
-5.80606e-07
-7.2813e-06
-5.48675e-07
-7.11815e-06
-5.29247e-07
-6.95585e-06
-5.26542e-07
-6.787e-06
-5.43783e-07
-6.60356e-06
-5.82807e-07
-6.39759e-06
-6.43811e-07
-6.16183e-06
-7.25289e-07
-5.89038e-06
-8.24089e-07
-5.57898e-06
-9.35808e-07
-5.22535e-06
-1.05497e-06
-4.82953e-06
-1.17504e-06
-4.39424e-06
-1.28862e-06
-3.92506e-06
-1.38824e-06
-3.42978e-06
-1.46785e-06
-2.91757e-06
-1.52324e-06
-2.39863e-06
-1.55177e-06
-1.88224e-06
-1.55471e-06
-1.3762e-06
-1.53515e-06
-8.8671e-07
-1.49639e-06
-4.18558e-07
-1.44264e-06
2.49468e-08
-1.37694e-06
4.44237e-07
-1.30569e-06
8.3393e-07
-1.22576e-06
1.19491e-06
-1.14251e-06
1.52812e-06
-1.0597e-06
1.8355e-06
-9.80329e-07
2.11934e-06
-9.05631e-07
2.38167e-06
-8.35378e-07
2.62403e-06
-7.68797e-07
2.84767e-06
-7.05325e-07
3.05371e-06
-6.44819e-07
3.24325e-06
-5.87408e-07
3.41737e-06
-5.33294e-07
3.57711e-06
-4.82627e-07
3.72341e-06
-4.35466e-07
3.85713e-06
-3.9179e-07
3.97904e-06
-3.51528e-07
4.08983e-06
-3.14571e-07
4.19018e-06
-2.80746e-07
4.28074e-06
-2.49793e-07
4.36212e-06
-2.21373e-07
4.4349e-06
-1.9512e-07
4.49963e-06
-1.70724e-07
4.55693e-06
-1.47983e-07
4.60741e-06
-1.268e-07
4.65178e-06
-1.07178e-07
4.69073e-06
-8.91149e-08
4.72485e-06
-7.25901e-08
4.75471e-06
-5.75945e-08
4.78088e-06
-4.40566e-08
4.80377e-06
-3.18778e-08
4.82377e-06
-2.10166e-08
4.84124e-06
-1.13959e-08
4.85641e-06
-2.92611e-09
4.86964e-06
4.28044e-09
4.88112e-06
1.04001e-08
4.89109e-06
1.55125e-08
4.89987e-06
1.95784e-08
4.90768e-06
2.27247e-08
4.91476e-06
2.50706e-08
4.92132e-06
2.67231e-08
4.92752e-06
2.77965e-08
4.9335e-06
2.84014e-08
4.93933e-06
2.86412e-08
4.94506e-06
2.86085e-08
4.95067e-06
2.83848e-08
4.95613e-06
2.80391e-08
4.96138e-06
2.76361e-08
4.96634e-06
2.72309e-08
4.97092e-06
2.6866e-08
4.97504e-06
2.65736e-08
4.97861e-06
2.63731e-08
4.98158e-06
2.62705e-08
4.9839e-06
2.62634e-08
4.98551e-06
2.63431e-08
4.98642e-06
2.64968e-08
4.98661e-06
2.67104e-08
4.98609e-06
2.69701e-08
4.98487e-06
2.72617e-08
4.98299e-06
2.75714e-08
4.98046e-06
2.78894e-08
4.97733e-06
2.82112e-08
4.97363e-06
2.85368e-08
4.96939e-06
2.88637e-08
4.96467e-06
2.91864e-08
4.95947e-06
2.94941e-08
4.95384e-06
2.97825e-08
4.94777e-06
3.005e-08
4.94129e-06
3.03167e-08
4.93441e-06
3.05969e-08
4.92714e-06
3.09412e-08
4.9195e-06
3.13582e-08
4.91149e-06
3.19349e-08
4.90311e-06
3.26309e-08
4.89432e-06
3.36154e-08
4.88511e-06
3.4725e-08
4.87539e-06
3.63697e-08
4.86514e-06
3.80815e-08
4.85419e-06
4.09155e-08
4.84246e-06
4.35811e-08
4.82974e-06
4.87675e-08
4.8157e-06
5.29689e-08
4.80023e-06
6.30073e-08
4.78207e-06
6.97197e-08
4.76221e-06
9.03826e-08
4.7359e-06
1.02038e-07
4.7094e-06
1.47939e-07
4.66682e-06
1.73332e-07
4.63689e-06
2.83472e-07
3.53505e-07
4.57311e-06
6.77581e-07
-4.63848e-07
1.43898e-06
-1.52992e-06
2.00576e-06
-1.93689e-06
2.44537e-06
-2.03269e-06
2.83827e-06
-2.00344e-06
3.20887e-06
-1.89725e-06
3.54737e-06
-1.72057e-06
3.83632e-06
-1.48032e-06
4.05958e-06
-1.18694e-06
4.20352e-06
-8.5098e-07
4.25747e-06
-4.85936e-07
4.21912e-06
-1.11499e-07
4.07474e-06
2.66628e-07
3.83359e-06
6.11466e-07
3.51568e-06
9.01235e-07
3.14291e-06
1.12572e-06
2.74967e-06
1.27581e-06
2.35256e-06
1.36921e-06
1.95749e-06
1.41807e-06
1.57153e-06
1.41337e-06
1.22476e-06
1.37586e-06
8.26315e-07
1.30669e-06
5.56388e-07
1.11319e-06
1.91736e-07
9.59581e-07
-1.1125e-06
1.5074e-06
-2.77333e-06
2.2292e-06
-3.85047e-06
2.68004e-06
-4.67595e-06
2.89982e-06
-5.27787e-06
2.95515e-06
-5.72668e-06
2.92393e-06
-6.09322e-06
2.87284e-06
-6.4008e-06
2.77707e-06
-6.71083e-06
2.65739e-06
-7.00907e-06
2.53616e-06
-7.32476e-06
2.41542e-06
-7.65195e-06
2.29999e-06
-7.99471e-06
2.1805e-06
-8.34245e-06
2.05975e-06
-8.68848e-06
1.93106e-06
-9.02272e-06
1.79671e-06
-9.33815e-06
1.65362e-06
-9.62752e-06
1.50306e-06
-9.88536e-06
1.34413e-06
-1.01069e-05
1.17817e-06
-1.0289e-05
1.00597e-06
-1.04295e-05
8.29515e-07
-1.05272e-05
6.50716e-07
-1.05823e-05
4.72219e-07
-1.05959e-05
2.96578e-07
-1.057e-05
1.26062e-07
-1.05086e-05
-3.69574e-08
-1.04115e-05
-1.91457e-07
-1.02844e-05
-3.33416e-07
-1.01324e-05
-4.62139e-07
-9.95989e-06
-5.77022e-07
-9.771e-06
-6.77833e-07
-9.56951e-06
-7.64684e-07
-9.35868e-06
-8.37932e-07
-9.14117e-06
-8.9801e-07
-8.91911e-06
-9.45244e-07
-8.69423e-06
-9.79705e-07
-8.4681e-06
-1.00117e-06
-8.24235e-06
-1.00917e-06
-8.01896e-06
-1.00319e-06
-7.80035e-06
-9.83018e-07
-7.58937e-06
-9.49279e-07
-7.3889e-06
-9.03861e-07
-7.20137e-06
-8.50259e-07
-7.02804e-06
-7.93597e-07
-6.86835e-06
-7.40296e-07
-6.71956e-06
-6.97465e-07
-6.57662e-06
-6.72186e-07
-6.43245e-06
-6.70707e-07
-6.27862e-06
-6.97618e-07
-6.10627e-06
-7.5515e-07
-5.9072e-06
-8.42889e-07
-5.6745e-06
-9.57985e-07
-5.40293e-06
-1.09566e-06
-5.08899e-06
-1.24975e-06
-4.73092e-06
-1.41304e-06
-4.32906e-06
-1.5769e-06
-3.88649e-06
-1.73119e-06
-3.40988e-06
-1.86485e-06
-2.90875e-06
-1.96898e-06
-2.39433e-06
-2.03766e-06
-1.8786e-06
-2.0675e-06
-1.3715e-06
-2.06182e-06
-8.80088e-07
-2.02656e-06
-4.08123e-07
-1.96836e-06
4.20923e-08
-1.89285e-06
4.68111e-07
-1.80296e-06
8.60136e-07
-1.69771e-06
1.21799e-06
-1.58361e-06
1.54458e-06
-1.4691e-06
1.84497e-06
-1.36009e-06
2.12307e-06
-1.25843e-06
2.38087e-06
-1.16343e-06
2.61894e-06
-1.07345e-06
2.83742e-06
-9.87277e-07
3.03679e-06
-9.04703e-07
3.21823e-06
-8.26257e-07
3.38342e-06
-7.526e-07
3.53427e-06
-6.84138e-07
3.67264e-06
-6.20999e-07
3.80029e-06
-5.63111e-07
3.91872e-06
-5.1023e-07
4.02912e-06
-4.61928e-07
4.13221e-06
-4.17656e-07
4.22829e-06
-3.76822e-07
4.31734e-06
-3.38846e-07
4.39914e-06
-3.03171e-07
4.47333e-06
-2.69309e-07
4.53955e-06
-2.36946e-07
4.59761e-06
-2.06042e-07
4.64765e-06
-1.76838e-07
4.6902e-06
-1.49733e-07
4.72616e-06
-1.25078e-07
4.75662e-06
-1.03044e-07
4.78262e-06
-8.35938e-08
4.80505e-06
-6.6488e-08
4.82458e-06
-5.14064e-08
4.84164e-06
-3.80808e-08