/*--------------------------------*- C++ -*----------------------------------*\
| =========                 |                                                 |
| \\      /  F ield         | OpenFOAM: The Open Source CFD Toolbox           |
|  \\    /   O peration     | Version:  2112                                  |
|   \\  /    A nd           | Website:  www.openfoam.com                      |
|    \\/     M anipulation  |                                                 |
\*---------------------------------------------------------------------------*/
FoamFile
{
    version     2.0;
    format      ascii;
    arch        "LSB;label=32;scalar=64";
    class       surfaceScalarField;
    location    "0.02";
    object      phi_0;
}
// * * * * * * * * * * * * * * * * * * * * * * * * * * * * * * * * * * * * * //

dimensions      [0 3 -1 0 0 0 0];

oriented        oriented;

internalField   nonuniform List<scalar> 
25468
(
9.36181e-09
1.00394e-07
4.53487e-09
4.82695e-09
3.62563e-09
9.09237e-10
3.26436e-09
3.61269e-10
3.069e-09
1.95367e-10
2.92973e-09
1.39268e-10
2.81115e-09
1.18574e-10
2.71171e-09
9.9444e-11
2.612e-09
9.97067e-11
2.54762e-09
6.43846e-11
2.51066e-09
3.69562e-11
2.34461e-09
1.66056e-10
2.21126e-09
1.33345e-10
2.18857e-09
2.26934e-11
2.16343e-09
2.51437e-11
2.15012e-09
1.33083e-11
2.12768e-09
2.24326e-11
2.10276e-09
2.49242e-11
2.08717e-09
1.55942e-11
2.07538e-09
1.17818e-11
2.0632e-09
1.21874e-11
2.05414e-09
9.0584e-12
2.05524e-09
-1.10213e-12
2.06886e-09
-1.36188e-11
2.07555e-09
-6.69078e-12
2.07397e-09
1.57838e-12
2.0901e-09
-1.61286e-11
2.1187e-09
-2.8594e-11
2.10867e-09
1.00284e-11
2.0395e-09
6.91686e-11
1.69474e-09
3.44756e-10
1.38728e-09
3.07462e-10
1.32262e-09
6.46629e-11
1.29207e-09
3.05472e-11
1.27921e-09
1.28625e-11
1.27434e-09
4.87274e-12
1.27416e-09
1.74647e-13
1.28667e-09
-1.2512e-11
1.32084e-09
-3.41674e-11
-1.19769e-09
2.51853e-09
4.83376e-08
2.4516e-07
2.61882e-08
2.69763e-08
2.07584e-08
6.33903e-09
1.84024e-08
2.71722e-09
1.71061e-08
1.49175e-09
1.6188e-08
1.05734e-09
1.54152e-08
8.9136e-10
1.47714e-08
7.43228e-10
1.41324e-08
7.3874e-10
1.37147e-08
4.82084e-10
1.34243e-08
3.27361e-10
1.22995e-08
1.29085e-09
1.14538e-08
9.79045e-10
1.13604e-08
1.16053e-10
1.12293e-08
1.56246e-10
1.1141e-08
1.01661e-10
1.09989e-08
1.64497e-10
1.08489e-08
1.74984e-10
1.07516e-08
1.12845e-10
1.06758e-08
8.76132e-11
1.05973e-08
9.06575e-11
1.05362e-08
7.01625e-11
1.05317e-08
3.38149e-12
1.05976e-08
-7.94682e-11
1.06225e-08
-3.158e-11
1.0598e-08
2.60338e-11
1.06291e-08
-4.72753e-11
1.06432e-08
-4.26995e-11
1.04908e-08
1.62482e-10
1.01701e-08
3.89893e-10
9.54234e-09
9.72483e-10
9.02015e-09
8.29654e-10
8.72888e-09
3.55932e-10
8.57365e-09
1.85784e-10
8.49768e-09
8.88288e-11
8.466e-09
3.65582e-11
8.45987e-09
6.3014e-12
8.50762e-09
-6.02672e-11
8.63155e-09
-1.58092e-10
-1.90441e-09
9.33827e-09
1.60003e-07
4.24901e-07
1.00414e-07
8.6565e-08
8.03077e-08
2.64451e-08
7.08886e-08
1.21363e-08
6.55364e-08
6.84391e-09
6.17719e-08
4.82182e-09
5.86433e-08
4.01996e-09
5.60577e-08
3.32887e-09
5.35321e-08
3.26435e-09
5.18183e-08
2.19585e-09
5.03354e-08
1.8103e-09
4.56202e-08
6.00602e-09
4.23116e-08
4.28769e-09
4.21649e-08
2.62683e-10
4.1815e-08
5.06133e-10
4.14688e-08
4.47932e-10
4.09124e-08
7.2091e-10
4.03639e-08
7.23462e-10
4.00079e-08
4.68829e-10
3.97115e-08
3.84039e-10
3.94052e-08
3.96962e-10
3.91545e-08
3.20788e-10
3.90909e-08
6.70014e-11
3.92594e-08
-2.47903e-10
3.92938e-08
-6.60301e-11
3.91075e-08
2.12297e-10
3.88634e-08
1.96908e-10
3.82938e-08
5.26834e-10
3.74248e-08
1.03147e-09
3.65539e-08
1.26079e-09
3.60744e-08
1.45202e-09
3.57471e-08
1.15698e-09
3.50886e-08
1.01438e-09
3.46874e-08
5.86979e-10
3.44556e-08
3.20618e-10
3.43405e-08
1.5175e-10
3.43044e-08
4.23096e-11
3.44022e-08
-1.58068e-10
3.45723e-08
-3.28166e-10
-1.49146e-09
3.41594e-08
4.38999e-07
5.8364e-07
3.29036e-07
1.96529e-07
2.7317e-07
8.23108e-08
2.42235e-07
4.30714e-08
2.23356e-07
2.5723e-08
2.10051e-07
1.81269e-08
1.99173e-07
1.48976e-08
1.90292e-07
1.221e-08
1.81869e-07
1.16876e-08
1.75829e-07
8.23575e-09
1.68817e-07
8.82219e-09
1.55104e-07
1.97186e-08
1.44658e-07
1.47335e-08
1.42261e-07
2.66049e-09
1.41542e-07
1.2248e-09
1.40335e-07
1.65536e-09
1.38486e-07
2.56952e-09
1.36957e-07
2.25223e-09
1.35959e-07
1.46692e-09
1.34996e-07
1.34677e-09
1.33988e-07
1.40511e-09
1.33124e-07
1.18473e-09
1.32735e-07
4.56815e-10
1.32741e-07
-2.5451e-10
1.32362e-07
3.1327e-10
1.31165e-07
1.4096e-09
1.29612e-07
1.74947e-09
1.27797e-07
2.34171e-09
1.25539e-07
3.28918e-09
1.22963e-07
3.83765e-09
1.22094e-07
2.32102e-09
1.2234e-07
9.10398e-10
1.22199e-07
1.15522e-09
1.2185e-07
9.36614e-10
1.21553e-07
6.16813e-10
1.21339e-07
3.66596e-10
1.21211e-07
1.69917e-10
1.21125e-07
-7.24244e-11
1.21058e-07
-2.61001e-10
-6.48184e-10
1.20215e-07
1.00069e-06
6.34606e-07
8.97569e-07
2.99647e-07
8.17587e-07
1.62293e-07
7.5086e-07
1.09799e-07
6.98806e-07
7.77769e-08
6.59045e-07
5.78872e-08
6.26466e-07
4.74767e-08
6.00066e-07
3.86106e-08
5.76135e-07
3.56178e-08
5.57701e-07
2.667e-08
5.36535e-07
2.99888e-08
5.13973e-07
4.22803e-08
4.93133e-07
3.55734e-08
4.73805e-07
2.19881e-08
4.6075e-07
1.42803e-08
4.5244e-07
9.96523e-09
4.47469e-07
7.5403e-09
4.44689e-07
5.03282e-09
4.42395e-07
3.76023e-09
4.39599e-07
4.14358e-09
4.36585e-07
4.41867e-09
4.33969e-07
3.80052e-09
4.3133e-07
3.09554e-09
4.28544e-07
2.53159e-09
4.25468e-07
3.38969e-09
4.21755e-07
5.1226e-09
4.18899e-07
4.60534e-09
4.16697e-07
4.54379e-09
4.14482e-07
5.50428e-09
4.12905e-07
5.41452e-09
4.10739e-07
4.48747e-09
4.08607e-07
3.04162e-09
4.07335e-07
2.4279e-09
4.06253e-07
2.01805e-09
4.05241e-07
1.6294e-09
4.04336e-07
1.27086e-09
4.03529e-07
9.77069e-10
4.02733e-07
7.23966e-10
4.01941e-07
5.3106e-10
3.40921e-10
4.00952e-07
1.89345e-06
5.91414e-07
1.86857e-06
3.24533e-07
1.83509e-06
1.95766e-07
1.79609e-06
1.48809e-07
1.75068e-06
1.23182e-07
1.70246e-06
1.06109e-07
1.65692e-06
9.30121e-08
1.61619e-06
7.93478e-08
1.58063e-06
7.11707e-08
1.54392e-06
6.33855e-08
1.51376e-06
6.01503e-08
1.49149e-06
6.45476e-08
1.46864e-06
5.84203e-08
1.44599e-06
4.46433e-08
1.42472e-06
3.5543e-08
1.40566e-06
2.90293e-08
1.3873e-06
2.58956e-08
1.37092e-06
2.14212e-08
1.3579e-06
1.67718e-08
1.34752e-06
1.45284e-08
1.33854e-06
1.34024e-08
1.32924e-06
1.3094e-08
1.32032e-06
1.20183e-08
1.31274e-06
1.01067e-08
1.3051e-06
1.10374e-08
1.29891e-06
1.13091e-08
1.29402e-06
9.49972e-09
1.28916e-06
9.40047e-09
1.28529e-06
9.37065e-09
1.28224e-06
8.46348e-09
1.27933e-06
7.40544e-09
1.27601e-06
6.35911e-09
1.27304e-06
5.39254e-09
1.27042e-06
4.64649e-09
1.26799e-06
4.05566e-09
1.26571e-06
3.55167e-09
1.26356e-06
3.12171e-09
1.26154e-06
2.75224e-09
1.25963e-06
2.4418e-09
2.17004e-09
1.2578e-06
3.34429e-06
5.02445e-07
3.34519e-06
3.2364e-07
3.34424e-06
1.96716e-07
3.33314e-06
1.59901e-07
3.32019e-06
1.36138e-07
3.30961e-06
1.16687e-07
3.29896e-06
1.03661e-07
3.28515e-06
9.31551e-08
3.27049e-06
8.58308e-08
3.25646e-06
7.74171e-08
3.24485e-06
7.17663e-08
3.23847e-06
7.09269e-08
3.23089e-06
6.59962e-08
3.2206e-06
5.4939e-08
3.21091e-06
4.52306e-08
3.20171e-06
3.82253e-08
3.19269e-06
3.49156e-08
3.18439e-06
2.97257e-08
3.17469e-06
2.64651e-08
3.16465e-06
2.45763e-08
3.15501e-06
2.30379e-08
3.14775e-06
2.03594e-08
3.14249e-06
1.72733e-08
3.13697e-06
1.56309e-08
3.1326e-06
1.5408e-08
3.12886e-06
1.50483e-08
3.12537e-06
1.29825e-08
3.12241e-06
1.23616e-08
3.12007e-06
1.17113e-08
3.11797e-06
1.05669e-08
3.11592e-06
9.45257e-09
3.11384e-06
8.43819e-09
3.11174e-06
7.49644e-09
3.1097e-06
6.6824e-09
3.10776e-06
5.99675e-09
3.10591e-06
5.40191e-09
3.10416e-06
4.87476e-09
3.10251e-06
4.40356e-09
3.10096e-06
3.98425e-09
3.60553e-09
3.09953e-06
5.87082e-06
3.58999e-07
5.89077e-06
3.03688e-07
5.89181e-06
1.95669e-07
5.89099e-06
1.60725e-07
5.8935e-06
1.33632e-07
5.89482e-06
1.15362e-07
5.89646e-06
1.02026e-07
5.89786e-06
9.17542e-08
5.90026e-06
8.34286e-08
5.90176e-06
7.59162e-08
5.90327e-06
7.0255e-08
5.90829e-06
6.59056e-08
5.91283e-06
6.14603e-08
5.91378e-06
5.39846e-08
5.91279e-06
4.62226e-08
5.91109e-06
3.99218e-08
5.91081e-06
3.52025e-08
5.90896e-06
3.15688e-08
5.90678e-06
2.86544e-08
5.90531e-06
2.60445e-08
5.90492e-06
2.34207e-08
5.90441e-06
2.08784e-08
5.90286e-06
1.8815e-08
5.90113e-06
1.73657e-08
5.90087e-06
1.56684e-08
5.90142e-06
1.44957e-08
5.90166e-06
1.27393e-08
5.90197e-06
1.20561e-08
5.90247e-06
1.12093e-08
5.90304e-06
9.99895e-09
5.90326e-06
9.22932e-09
5.90304e-06
8.66249e-09
5.90266e-06
7.87211e-09
5.90221e-06
7.13086e-09
5.90175e-06
6.4599e-09
5.90129e-06
5.85918e-09
5.90085e-06
5.32107e-09
5.90041e-06
4.8369e-09
5.9e-06
4.40064e-09
4.0227e-09
5.89958e-06
1.02419e-05
1.93705e-07
1.0307e-05
2.38617e-07
1.0338e-05
1.64719e-07
1.03601e-05
1.38571e-07
1.03705e-05
1.23252e-07
1.03769e-05
1.08911e-07
1.03831e-05
9.5901e-08
1.03895e-05
8.53354e-08
1.03959e-05
7.69932e-08
1.04015e-05
7.03527e-08
1.04073e-05
6.44746e-08
1.04139e-05
5.92362e-08
1.0421e-05
5.43796e-08
1.0426e-05
4.89866e-08
1.04288e-05
4.34838e-08
1.04302e-05
3.84772e-08
1.04312e-05
3.41688e-08
1.0432e-05
3.08021e-08
1.04328e-05
2.78575e-08
1.04334e-05
2.53997e-08
1.04336e-05
2.32264e-08
1.04329e-05
2.15979e-08
1.04318e-05
1.99428e-08
1.04306e-05
1.85659e-08
1.04293e-05
1.69363e-08
1.04279e-05
1.58929e-08
1.04265e-05
1.41936e-08
1.04262e-05
1.23759e-08
1.04263e-05
1.10528e-08
1.0426e-05
1.03052e-08
1.04256e-05
9.5848e-09
1.04257e-05
8.60639e-09
1.04257e-05
7.8954e-09
1.04256e-05
7.2406e-09
1.04254e-05
6.63505e-09
1.04252e-05
6.07729e-09
1.04249e-05
5.56591e-09
1.04247e-05
5.09773e-09
1.04244e-05
4.66912e-09
4.26579e-09
1.04242e-05
1.7846e-05
7.64163e-08
1.79395e-05
1.45156e-07
1.79759e-05
1.28316e-07
1.8008e-05
1.06461e-07
1.80368e-05
9.44636e-08
1.80592e-05
8.64529e-08
1.80764e-05
7.87584e-08
1.809e-05
7.16644e-08
1.81021e-05
6.49526e-08
1.81132e-05
5.92011e-08
1.81236e-05
5.41177e-08
1.81333e-05
4.95569e-08
1.81423e-05
4.53889e-08
1.81498e-05
4.14201e-08
1.81557e-05
3.7619e-08
1.81601e-05
3.40592e-08
1.81634e-05
3.08634e-08
1.81662e-05
2.80324e-08
1.81685e-05
2.55646e-08
1.81705e-05
2.33474e-08
1.81724e-05
2.13739e-08
1.81745e-05
1.95147e-08
1.81766e-05
1.78426e-08
1.81789e-05
1.62638e-08
1.81809e-05
1.49288e-08
1.8183e-05
1.37851e-08
1.81851e-05
1.2102e-08
1.81865e-05
1.09481e-08
1.81874e-05
1.01825e-08
1.8188e-05
9.66003e-09
1.81885e-05
9.13712e-09
1.81886e-05
8.45008e-09
1.81888e-05
7.72614e-09
1.8189e-05
7.06411e-09
1.81891e-05
6.45988e-09
1.81893e-05
5.90775e-09
1.81895e-05
5.40278e-09
1.81896e-05
4.94097e-09
1.81898e-05
4.51862e-09
4.14056e-09
1.81899e-05
3.12465e-05
2.14905e-08
3.13326e-05
5.91094e-08
3.13927e-05
6.81879e-08
3.14346e-05
6.45495e-08
3.14697e-05
5.94181e-08
3.15013e-05
5.48729e-08
3.15282e-05
5.17659e-08
3.15511e-05
4.87884e-08
3.15712e-05
4.48589e-08
3.1589e-05
4.14625e-08
3.16048e-05
3.82776e-08
3.1619e-05
3.53083e-08
3.16318e-05
3.26332e-08
3.16432e-05
3.00314e-08
3.16531e-05
2.76735e-08
3.16619e-05
2.53204e-08
3.16694e-05
2.33155e-08
3.16762e-05
2.12452e-08
3.16821e-05
1.96555e-08
3.16876e-05
1.78205e-08
3.16924e-05
1.66525e-08
3.1697e-05
1.49286e-08
3.17006e-05
1.42125e-08
3.17044e-05
1.24342e-08
3.17071e-05
1.2273e-08
3.17107e-05
1.01469e-08
3.17133e-05
9.50872e-09
3.17152e-05
9.08992e-09
3.17172e-05
8.12467e-09
3.17194e-05
7.49019e-09
3.17215e-05
6.98634e-09
3.17236e-05
6.41258e-09
3.17254e-05
5.88741e-09
3.17271e-05
5.40173e-09
3.17286e-05
4.95482e-09
3.17299e-05
4.54428e-09
3.17312e-05
4.16723e-09
3.17323e-05
3.82084e-09
3.17333e-05
3.50258e-09
3.20781e-09
3.17342e-05
5.48977e-05
1.87986e-09
5.49504e-05
6.41676e-09
5.50098e-05
8.78671e-09
5.50641e-05
1.02284e-08
5.51125e-05
1.10107e-08
5.51555e-05
1.18877e-08
5.51952e-05
1.20274e-08
5.52317e-05
1.23375e-08
5.5264e-05
1.25397e-08
5.52938e-05
1.16469e-08
5.53213e-05
1.08081e-08
5.53461e-05
1.05302e-08
5.53686e-05
1.01265e-08
5.5389e-05
9.62341e-09
5.54075e-05
9.11304e-09
5.54243e-05
8.56054e-09
5.54395e-05
8.06497e-09
5.54533e-05
7.52015e-09
5.54659e-05
7.07505e-09
5.54771e-05
6.53921e-09
5.54876e-05
6.16719e-09
5.54969e-05
5.62873e-09
5.55058e-05
5.34252e-09
5.55134e-05
4.77612e-09
5.55211e-05
4.60212e-09
5.5527e-05
4.23707e-09
5.55327e-05
3.82309e-09
5.55382e-05
3.59139e-09
5.55431e-05
3.22003e-09
5.55476e-05
3.00567e-09
5.55518e-05
2.79125e-09
5.55556e-05
2.57669e-09
5.55592e-05
2.36881e-09
5.55624e-05
2.17907e-09
5.55653e-05
2.00345e-09
5.5568e-05
1.84041e-09
5.55705e-05
1.68956e-09
5.55728e-05
1.55032e-09
5.55749e-05
1.42214e-09
1.30491e-09
5.55768e-05
4.58129e-05
-9.37509e-09
4.58507e-05
-3.13795e-08
4.58998e-05
-4.02806e-08
4.59473e-05
-3.73008e-08
4.599e-05
-3.16502e-08
4.60284e-05
-2.65574e-08
4.60636e-05
-2.31682e-08
4.6096e-05
-2.00413e-08
4.61241e-05
-1.55514e-08
4.61485e-05
-1.2753e-08
4.6171e-05
-1.17265e-08
4.61919e-05
-1.03163e-08
4.62109e-05
-8.95361e-09
4.62284e-05
-7.82193e-09
4.62443e-05
-6.76787e-09
4.62588e-05
-5.96003e-09
4.6272e-05
-5.14436e-09
4.62841e-05
-4.60902e-09
4.62951e-05
-3.93684e-09
4.63053e-05
-3.63408e-09
4.63145e-05
-3.00167e-09
4.63228e-05
-2.67245e-09
4.63305e-05
-2.4032e-09
4.63376e-05
-2.25276e-09
4.6344e-05
-1.83331e-09
4.63498e-05
-1.60326e-09
4.63551e-05
-1.46252e-09
4.636e-05
-1.339e-09
4.63645e-05
-1.22367e-09
4.63686e-05
-1.09447e-09
4.63724e-05
-9.76029e-10
4.63758e-05
-8.74983e-10
4.6379e-05
-7.87646e-10
4.63819e-05
-7.10759e-10
4.63845e-05
-6.41959e-10
4.63869e-05
-5.80268e-10
4.63891e-05
-5.24698e-10
4.63912e-05
-4.74982e-10
4.6393e-05
-4.3008e-10
-3.90851e-10
4.63947e-05
2.93149e-05
-3.54274e-08
2.93735e-05
-8.99335e-08
2.94269e-05
-9.36401e-08
2.94666e-05
-7.70113e-08
2.94963e-05
-6.13706e-08
2.95216e-05
-5.18591e-08
2.95446e-05
-4.62256e-08
2.95662e-05
-4.16098e-08
2.95865e-05
-3.58765e-08
2.96046e-05
-3.07878e-08
2.962e-05
-2.71964e-08
2.96337e-05
-2.39983e-08
2.96461e-05
-2.13007e-08
2.96573e-05
-1.89988e-08
2.96674e-05
-1.6944e-08
2.96766e-05
-1.51748e-08
2.96851e-05
-1.35646e-08
2.96927e-05
-1.22151e-08
2.96997e-05
-1.09334e-08
2.97059e-05
-9.91025e-09
2.97118e-05
-8.84762e-09
2.9717e-05
-7.9238e-09
2.97219e-05
-7.23037e-09
2.97262e-05
-6.54458e-09
2.97303e-05
-5.95149e-09
2.97341e-05
-5.39902e-09
2.97375e-05
-4.88769e-09
2.97406e-05
-4.42898e-09
2.97434e-05
-4.02185e-09
2.97459e-05
-3.65696e-09
2.97483e-05
-3.32737e-09
2.97505e-05
-3.02869e-09
2.97524e-05
-2.75763e-09
2.97542e-05
-2.51171e-09
2.97559e-05
-2.28834e-09
2.97574e-05
-2.08559e-09
2.97588e-05
-1.90115e-09
2.976e-05
-1.73368e-09
2.97612e-05
-1.58099e-09
-1.44249e-09
2.97622e-05
1.87866e-05
-9.26189e-08
1.88696e-05
-1.72867e-07
1.89189e-05
-1.4298e-07
1.89423e-05
-1.004e-07
1.89612e-05
-8.03059e-08
1.89808e-05
-7.14398e-08
1.89988e-05
-6.4219e-08
1.90133e-05
-5.60853e-08
1.90257e-05
-4.83388e-08
1.90369e-05
-4.19347e-08
1.90467e-05
-3.69889e-08
1.90555e-05
-3.28353e-08
1.90635e-05
-2.92603e-08
1.90706e-05
-2.61377e-08
1.90771e-05
-2.33992e-08
1.90829e-05
-2.09889e-08
1.90882e-05
-1.88663e-08
1.9093e-05
-1.69841e-08
1.90973e-05
-1.53194e-08
1.91013e-05
-1.38302e-08
1.91049e-05
-1.2514e-08
1.91083e-05
-1.13268e-08
1.91114e-05
-1.02678e-08
1.91141e-05
-9.31274e-09
1.91166e-05
-8.45274e-09
1.91189e-05
-7.67724e-09
1.9121e-05
-6.9773e-09
1.91229e-05
-6.34538e-09
1.91247e-05
-5.77417e-09
1.91263e-05
-5.25703e-09
1.91277e-05
-4.78814e-09
1.91291e-05
-4.36263e-09
1.91303e-05
-3.97612e-09
1.91314e-05
-3.62493e-09
1.91324e-05
-3.30551e-09
1.91333e-05
-3.01503e-09
1.91342e-05
-2.75047e-09
1.9135e-05
-2.50977e-09
1.91357e-05
-2.29024e-09
-2.09025e-09
1.91363e-05
1.2073e-05
-1.88625e-07
1.21561e-05
-2.55982e-07
1.21801e-05
-1.67001e-07
1.21926e-05
-1.1287e-07
1.22097e-05
-9.7442e-08
1.22258e-05
-8.75498e-08
1.22375e-05
-7.58539e-08
1.22461e-05
-6.46897e-08
1.22535e-05
-5.57929e-08
1.22604e-05
-4.88728e-08
1.22667e-05
-4.32564e-08
1.22723e-05
-3.84606e-08
1.22774e-05
-3.42941e-08
1.22819e-05
-3.06621e-08
1.2286e-05
-2.74856e-08
1.22897e-05
-2.46928e-08
1.2293e-05
-2.22263e-08
1.22961e-05
-2.00411e-08
1.22989e-05
-1.81008e-08
1.23014e-05
-1.63711e-08
1.23037e-05
-1.48244e-08
1.23058e-05
-1.34357e-08
1.23078e-05
-1.21871e-08
1.23095e-05
-1.1064e-08
1.23111e-05
-1.00524e-08
1.23126e-05
-9.13936e-09
1.23139e-05
-8.31388e-09
1.23151e-05
-7.56631e-09
1.23163e-05
-6.88915e-09
1.23173e-05
-6.27544e-09
1.23182e-05
-5.71804e-09
1.2319e-05
-5.21172e-09
1.23198e-05
-4.75188e-09
1.23205e-05
-4.33342e-09
1.23212e-05
-3.95263e-09
1.23218e-05
-3.60612e-09
1.23223e-05
-3.29055e-09
1.23228e-05
-3.00323e-09
1.23233e-05
-2.74135e-09
-2.50286e-09
1.23237e-05
7.78149e-06
-3.11179e-07
7.83609e-06
-3.10583e-07
7.84037e-06
-1.71281e-07
7.85538e-06
-1.27883e-07
7.87119e-06
-1.13255e-07
7.88127e-06
-9.76288e-08
7.88728e-06
-8.1868e-08
7.8923e-06
-6.97009e-08
7.89707e-06
-6.05711e-08
7.90154e-06
-5.33387e-08
7.90555e-06
-4.72709e-08
7.90914e-06
-4.20418e-08
7.91235e-06
-3.75056e-08
7.91525e-06
-3.35654e-08
7.91789e-06
-3.01216e-08
7.92028e-06
-2.70849e-08
7.92245e-06
-2.43958e-08
7.92442e-06
-2.20135e-08
7.92622e-06
-1.98975e-08
7.92786e-06
-1.80094e-08
7.92935e-06
-1.63157e-08
7.93071e-06
-1.47945e-08
7.93194e-06
-1.3425e-08
7.93307e-06
-1.21936e-08
7.9341e-06
-1.10809e-08
7.93504e-06
-1.00796e-08
7.9359e-06
-9.17048e-09
7.93669e-06
-8.35293e-09
7.93741e-06
-7.60995e-09
7.93806e-06
-6.93216e-09
7.93866e-06
-6.31837e-09
7.93921e-06
-5.7591e-09
7.93971e-06
-5.25255e-09
7.94017e-06
-4.79199e-09
7.94059e-06
-4.37272e-09
7.94097e-06
-3.99083e-09
7.94133e-06
-3.64335e-09
7.94165e-06
-3.32588e-09
7.94194e-06
-3.03589e-09
-2.77225e-09
7.94221e-06
5.01743e-06
-4.30936e-07
5.03615e-06
-3.293e-07
5.04452e-06
-1.79654e-07
5.06125e-06
-1.44606e-07
5.07173e-06
-1.23741e-07
5.07651e-06
-1.02411e-07
5.07984e-06
-8.51896e-08
5.08306e-06
-7.29249e-08
5.08618e-06
-6.36873e-08
5.08901e-06
-5.61685e-08
5.09151e-06
-4.97747e-08
5.09372e-06
-4.42562e-08
5.0957e-06
-3.94813e-08
5.09748e-06
-3.53447e-08
5.09908e-06
-3.17201e-08
5.10051e-06
-2.8514e-08
5.10179e-06
-2.56769e-08
5.10294e-06
-2.31701e-08
5.10399e-06
-2.09449e-08
5.10494e-06
-1.89557e-08
5.10579e-06
-1.71681e-08
5.10656e-06
-1.55643e-08
5.10726e-06
-1.41208e-08
5.10788e-06
-1.28217e-08
5.10845e-06
-1.16493e-08
5.10896e-06
-1.05908e-08
5.10943e-06
-9.63211e-09
5.10984e-06
-8.76623e-09
5.11021e-06
-7.98205e-09
5.11055e-06
-7.27147e-09
5.11086e-06
-6.62787e-09
5.11114e-06
-6.04173e-09
5.1114e-06
-5.50913e-09
5.11163e-06
-5.02424e-09
5.11184e-06
-4.58332e-09
5.11203e-06
-4.18174e-09
5.11221e-06
-3.81676e-09
5.11236e-06
-3.48353e-09
5.11251e-06
-3.17979e-09
-2.90323e-09
5.11264e-06
3.23038e-06
-5.29391e-07
3.23025e-06
-3.29165e-07
3.24407e-06
-1.93473e-07
3.25658e-06
-1.57121e-07
3.26089e-06
-1.28048e-07
3.26154e-06
-1.03065e-07
3.26164e-06
-8.52832e-08
3.26154e-06
-7.2825e-08
3.26114e-06
-6.32859e-08
3.26041e-06
-5.54446e-08
3.25943e-06
-4.87936e-08
3.25827e-06
-4.30919e-08
3.257e-06
-3.82114e-08
3.25568e-06
-3.4026e-08
3.25432e-06
-3.03641e-08
3.25295e-06
-2.71432e-08
3.2516e-06
-2.4325e-08
3.25029e-06
-2.1863e-08
3.24904e-06
-1.96893e-08
3.24783e-06
-1.77513e-08
3.24668e-06
-1.60175e-08
3.24559e-06
-1.44747e-08
3.24456e-06
-1.30921e-08
3.2436e-06
-1.18535e-08
3.24269e-06
-1.07448e-08
3.24184e-06
-9.74325e-09
3.24105e-06
-8.84375e-09
3.24032e-06
-8.03492e-09
3.23965e-06
-7.30456e-09
3.23902e-06
-6.64226e-09
3.23843e-06
-6.04329e-09
3.23789e-06
-5.50131e-09
3.23739e-06
-5.01036e-09
3.23693e-06
-4.56316e-09
3.23651e-06
-4.15733e-09
3.23611e-06
-3.78699e-09
3.23575e-06
-3.45149e-09
3.23541e-06
-3.14479e-09
3.2351e-06
-2.86791e-09
-2.61471e-09
3.23481e-06
2.07552e-06
-6.02127e-07
2.06775e-06
-3.214e-07
2.07296e-06
-1.98678e-07
2.06953e-06
-1.53698e-07
2.05833e-06
-1.16848e-07
2.04502e-06
-8.97529e-08
2.03163e-06
-7.18913e-08
2.01845e-06
-5.96495e-08
2.00562e-06
-5.04501e-08
1.99327e-06
-4.3096e-08
1.98154e-06
-3.70638e-08
1.9705e-06
-3.20547e-08
1.96021e-06
-2.79167e-08
1.95065e-06
-2.44683e-08
1.94179e-06
-2.14985e-08
1.93358e-06
-1.89426e-08
1.92603e-06
-1.677e-08
1.91909e-06
-1.49209e-08
1.91271e-06
-1.33139e-08
1.90685e-06
-1.18919e-08
1.90148e-06
-1.06437e-08
1.89655e-06
-9.54349e-09
1.89203e-06
-8.57376e-09
1.88789e-06
-7.71506e-09
1.8841e-06
-6.95224e-09
1.88063e-06
-6.276e-09
1.87746e-06
-5.67001e-09
1.87455e-06
-5.13239e-09
1.8719e-06
-4.65135e-09
1.86947e-06
-4.21465e-09
1.86725e-06
-3.82156e-09
1.86522e-06
-3.47062e-09
1.86337e-06
-3.15524e-09
1.86167e-06
-2.86908e-09
1.86012e-06
-2.60852e-09
1.85871e-06
-2.37026e-09
1.85741e-06
-2.15463e-09
1.85622e-06
-1.95741e-09
1.85513e-06
-1.78016e-09
-1.61494e-09
1.85413e-06
1.31775e-06
-6.39156e-07
1.28533e-06
-2.88974e-07
1.2553e-06
-1.68657e-07
1.21682e-06
-1.15214e-07
1.17766e-06
-7.76904e-08
1.14243e-06
-5.45235e-08
1.11147e-06
-4.09259e-08
1.08417e-06
-3.23545e-08
1.06011e-06
-2.63902e-08
1.0389e-06
-2.18841e-08
1.02021e-06
-1.83687e-08
1.00371e-06
-1.55558e-08
9.89141e-07
-1.33503e-08
9.76262e-07
-1.15889e-08
9.64823e-07
-1.00596e-08
9.54645e-07
-8.76503e-09
9.45577e-07
-7.70197e-09
9.37486e-07
-6.82974e-09
9.30241e-07
-6.0694e-09
9.23745e-07
-5.39587e-09
9.1791e-07
-4.80784e-09
9.12661e-07
-4.29525e-09
9.07937e-07
-3.84949e-09
9.03675e-07
-3.45323e-09
8.99827e-07
-3.104e-09
8.96348e-07
-2.79721e-09
8.93198e-07
-2.5199e-09
8.90343e-07
-2.27683e-09
8.87753e-07
-2.06175e-09
8.85406e-07
-1.86798e-09
8.83281e-07
-1.69663e-09
8.8135e-07
-1.53921e-09
8.79594e-07
-1.39949e-09
8.78002e-07
-1.27699e-09
8.76554e-07
-1.16039e-09
8.75237e-07
-1.05353e-09
8.74038e-07
-9.55499e-10
8.72949e-07
-8.6785e-10
8.71956e-07
-7.87524e-10
-7.13915e-10
8.71055e-07
7.91104e-07
-6.11273e-07
7.1673e-07
-2.146e-07
6.52251e-07
-1.04177e-07
5.96897e-07
-5.98604e-08
5.54811e-07
-3.5605e-08
5.23768e-07
-2.34805e-08
5.00171e-07
-1.73291e-08
4.81528e-07
-1.37112e-08
4.66349e-07
-1.12108e-08
4.53743e-07
-9.279e-09
4.43137e-07
-7.76242e-09
4.34109e-07
-6.52729e-09
4.26365e-07
-5.60612e-09
4.1967e-07
-4.89409e-09
4.13828e-07
-4.21819e-09
4.08709e-07
-3.64559e-09
4.04188e-07
-3.18104e-09
4.00184e-07
-2.82565e-09
3.96635e-07
-2.52062e-09
3.93471e-07
-2.2322e-09
3.90648e-07
-1.98447e-09
3.88123e-07
-1.77015e-09
3.85859e-07
-1.58558e-09
3.83826e-07
-1.41984e-09
3.81997e-07
-1.27493e-09
3.80346e-07
-1.14641e-09
3.7885e-07
-1.02433e-09
3.7749e-07
-9.17109e-10
3.76255e-07
-8.26293e-10
3.75136e-07
-7.48503e-10
3.74123e-07
-6.83606e-10
3.73209e-07
-6.25629e-10
3.72384e-07
-5.74918e-10
3.71638e-07
-5.30321e-10
3.70959e-07
-4.81406e-10
3.70342e-07
-4.36446e-10
3.69781e-07
-3.94445e-10
3.69271e-07
-3.58779e-10
3.68809e-07
-3.24982e-10
-2.95582e-10
3.68391e-07
4.27522e-07
-5.15075e-07
3.41946e-07
-1.29024e-07
2.87951e-07
-5.01821e-08
2.53809e-07
-2.57183e-08
2.32591e-07
-1.43866e-08
2.18374e-07
-9.26412e-09
2.07895e-07
-6.84964e-09
1.9967e-07
-5.48677e-09
1.92971e-07
-4.51094e-09
1.87425e-07
-3.73298e-09
1.8278e-07
-3.11823e-09
1.78878e-07
-2.62503e-09
1.7552e-07
-2.24759e-09
1.72604e-07
-1.97812e-09
1.70103e-07
-1.71733e-09
1.67907e-07
-1.45031e-09
1.65975e-07
-1.24824e-09
1.64273e-07
-1.12356e-09
1.62771e-07
-1.01895e-09
1.61437e-07
-8.98189e-10
1.60249e-07
-7.96775e-10
1.59189e-07
-7.09582e-10
1.58239e-07
-6.3585e-10
1.57389e-07
-5.70273e-10
1.56622e-07
-5.07724e-10
1.5593e-07
-4.53842e-10
1.55307e-07
-4.02222e-10
1.54749e-07
-3.5854e-10
1.54242e-07
-3.19686e-10
1.5378e-07
-2.86313e-10
1.53356e-07
-2.59891e-10
1.52973e-07
-2.42334e-10
1.52631e-07
-2.32847e-10
1.5232e-07
-2.19789e-10
1.52038e-07
-1.98559e-10
1.5178e-07
-1.78861e-10
1.51546e-07
-1.60375e-10
1.51332e-07
-1.45301e-10
1.51139e-07
-1.31628e-10
-1.18944e-10
1.50962e-07
2.09862e-07
-3.90034e-07
1.4732e-07
-6.64812e-08
1.18366e-07
-2.12289e-08
1.02911e-07
-1.02623e-08
9.40838e-08
-5.55983e-09
8.83672e-08
-3.54758e-09
8.41515e-08
-2.63396e-09
8.08002e-08
-2.13545e-09
7.80566e-08
-1.76728e-09
7.57803e-08
-1.45675e-09
7.38779e-08
-1.21576e-09
7.22778e-08
-1.02497e-09
7.0903e-08
-8.72781e-10
6.9696e-08
-7.71102e-10
6.86538e-08
-6.75134e-10
6.77664e-08
-5.62961e-10
6.69941e-08
-4.75937e-10
6.63012e-08
-4.3062e-10
6.56813e-08
-3.99074e-10
6.51349e-08
-3.51811e-10
6.4651e-08
-3.12856e-10
6.42197e-08
-2.78313e-10
6.3835e-08
-2.51109e-10
6.34908e-08
-2.26098e-10
6.318e-08
-1.96929e-10
6.29011e-08
-1.74924e-10
6.26557e-08
-1.56847e-10
6.24359e-08
-1.38672e-10
6.22377e-08
-1.21547e-10
6.20598e-08
-1.08392e-10
6.18959e-08
-9.59861e-11
6.17408e-08
-8.72921e-11
6.15985e-08
-9.04799e-11
6.14694e-08
-9.07393e-11
6.1352e-08
-8.11547e-11
6.12451e-08
-7.19368e-11
6.11484e-08
-6.37168e-11
6.10601e-08
-5.69748e-11
6.09807e-08
-5.22037e-11
-4.62856e-11
6.0908e-08
9.6236e-08
-2.72108e-07
6.01149e-08
-3.03601e-08
4.71867e-08
-8.30066e-09
4.08259e-08
-3.90152e-09
3.73403e-08
-2.07419e-09
3.51128e-08
-1.32012e-09
3.34626e-08
-9.83716e-10
3.21299e-08
-8.02831e-10
3.10299e-08
-6.67211e-10
3.01217e-08
-5.48607e-10
2.93636e-08
-4.5761e-10
2.87241e-08
-3.85471e-10
2.8179e-08
-3.27733e-10
2.76966e-08
-2.88674e-10
2.72747e-08
-2.53236e-10
2.6924e-08
-2.12258e-10
2.66259e-08
-1.77807e-10
2.63556e-08
-1.60362e-10
2.61065e-08
-1.49971e-10
2.58865e-08
-1.31795e-10
2.56914e-08
-1.17812e-10
2.55186e-08
-1.05508e-10
2.53634e-08
-9.58794e-11
2.52237e-08
-8.63849e-11
2.51007e-08
-7.39427e-11
2.49916e-08
-6.57705e-11
2.48942e-08
-5.94717e-11
2.48075e-08
-5.20182e-11
2.47311e-08
-4.51687e-11
2.46629e-08
-4.01177e-11
2.46017e-08
-3.47975e-11
2.45448e-08
-3.04003e-11
2.44869e-08
-3.25456e-11
2.44318e-08
-3.56705e-11
2.43834e-08
-3.2729e-11
2.43393e-08
-2.79168e-11
2.43e-08
-2.43798e-11
2.42644e-08
-2.14211e-11
2.42323e-08
-2.00394e-11
-1.72463e-11
2.42032e-08
4.16459e-08
-1.76803e-07
2.36292e-08
-1.23434e-08
1.83431e-08
-3.01457e-09
1.58374e-08
-1.39577e-09
1.44966e-08
-7.33389e-10
1.36428e-08
-4.66332e-10
1.30077e-08
-3.48578e-10
1.24902e-08
-2.85387e-10
1.20605e-08
-2.37495e-10
1.17072e-08
-1.95287e-10
1.14124e-08
-1.62831e-10
1.1164e-08
-1.37069e-10
1.09527e-08
-1.16449e-10
1.07664e-08
-1.02389e-10
1.0603e-08
-8.98219e-11
1.04663e-08
-7.55033e-11
1.03518e-08
-6.33094e-11
1.02484e-08
-5.69899e-11
1.01516e-08
-5.32181e-11
1.00664e-08
-4.65092e-11
9.99029e-09
-4.17475e-11
9.92249e-09
-3.77051e-11
9.86097e-09
-3.4363e-11
9.80559e-09
-3.10036e-11
9.75799e-09
-2.63398e-11
9.71566e-09
-2.34449e-11
9.67746e-09
-2.12731e-11
9.64396e-09
-1.85117e-11
9.6148e-09
-1.60126e-11
9.58883e-09
-1.41491e-11
9.56613e-09
-1.20932e-11
9.54597e-09
-1.02458e-11
9.52436e-09
-1.09342e-11
9.50166e-09
-1.29739e-11
9.4813e-09
-1.23662e-11
9.46354e-09
-1.01617e-11
9.44794e-09
-8.77962e-12
9.43412e-09
-7.59538e-12
9.42132e-09
-7.2472e-12
-6.05958e-12
9.41014e-09
1.68975e-08
-1.06124e-07
8.90423e-09
-4.35013e-09
6.87192e-09
-9.82258e-10
5.9266e-09
-4.50453e-10
5.42812e-09
-2.34911e-10
5.11111e-09
-1.49317e-10
4.87436e-09
-1.11831e-10
4.68072e-09
-9.1752e-11
4.51965e-09
-7.64193e-11
4.3872e-09
-6.28392e-11
4.27675e-09
-5.23825e-11
4.18376e-09
-4.40761e-11
4.10474e-09
-3.7427e-11
4.03526e-09
-3.29099e-11
3.97429e-09
-2.88545e-11
3.92304e-09
-2.42566e-11
3.88009e-09
-2.03512e-11
3.8414e-09
-1.83088e-11
3.80527e-09
-1.70804e-11
3.77365e-09
-1.48957e-11
3.74532e-09
-1.34097e-11
3.71977e-09
-1.2156e-11
3.69649e-09
-1.10846e-11
3.67551e-09
-1.00278e-11
3.65766e-09
-8.49349e-12
3.64177e-09
-7.54904e-12
3.62736e-09
-6.86577e-12
3.61481e-09
-5.96367e-12
3.60395e-09
-5.15149e-12
3.59434e-09
-4.53261e-12
3.58608e-09
-3.83664e-12
3.57902e-09
-3.18351e-12
3.57146e-09
-3.38309e-12
3.5627e-09
-4.21317e-12
3.55445e-09
-4.11263e-12
3.5476e-09
-3.31492e-12
3.54167e-09
-2.84643e-12
3.53651e-09
-2.43606e-12
3.53162e-09
-2.35621e-12
-1.92915e-12
3.52749e-09
6.26357e-09
-5.63853e-08
3.12764e-09
-1.2142e-09
2.405e-09
-2.59621e-10
2.0728e-09
-1.18249e-10
1.89925e-09
-6.13658e-11
1.78893e-09
-3.8998e-11
1.70635e-09
-2.92487e-11
1.63863e-09
-2.40309e-11
1.58224e-09
-2.0026e-11
1.53586e-09
-1.64674e-11
1.49721e-09
-1.37248e-11
1.46467e-09
-1.15453e-11
1.43705e-09
-9.80027e-12
1.41276e-09
-8.61778e-12
1.39146e-09
-7.55539e-12
1.37355e-09
-6.35154e-12
1.35853e-09
-5.32861e-12
1.34501e-09
-4.79207e-12
1.3324e-09
-4.46913e-12
1.3214e-09
-3.89828e-12
1.31151e-09
-3.51411e-12
1.30254e-09
-3.18744e-12
1.29436e-09
-2.90599e-12
1.28697e-09
-2.63332e-12
1.2807e-09
-2.22848e-12
1.27513e-09
-1.97791e-12
1.27006e-09
-1.80121e-12
1.26567e-09
-1.56523e-12
1.26187e-09
-1.35193e-12
1.25852e-09
-1.18622e-12
1.25568e-09
-9.98962e-13
1.25332e-09
-8.18333e-13
1.2508e-09
-8.6578e-13
1.24769e-09
-1.10401e-12
1.24467e-09
-1.09247e-12
1.24223e-09
-8.75384e-13
1.24013e-09
-7.49146e-13
1.23833e-09
-6.3741e-13
1.2366e-09
-6.20565e-13
-5.02451e-13
1.23517e-09
1.96371e-09
-2.25369e-08
9.43717e-10
-1.94211e-10
7.23871e-10
-3.97758e-11
6.23637e-10
-1.80148e-11
5.71587e-10
-9.31514e-12
5.38507e-10
-5.91845e-12
5.13703e-10
-4.44466e-12
4.93328e-10
-3.65566e-12
4.76349e-10
-3.04761e-12
4.62388e-10
-2.50604e-12
4.50751e-10
-2.08839e-12
4.40963e-10
-1.75641e-12
4.32653e-10
-1.49051e-12
4.25346e-10
-1.31069e-12
4.1894e-10
-1.14966e-12
4.13555e-10
-9.6678e-13
4.09037e-10
-8.10734e-13
4.04974e-10
-7.28562e-13
4.01184e-10
-6.79486e-13
3.97879e-10
-5.93071e-13
3.94899e-10
-5.34816e-13
3.92197e-10
-4.85081e-13
3.89733e-10
-4.42162e-13
3.875e-10
-4.00694e-13
3.85611e-10
-3.39091e-13
3.83934e-10
-3.00909e-13
3.82407e-10
-2.74091e-13
3.8108e-10
-2.38542e-13
3.79934e-10
-2.06128e-13
3.78928e-10
-1.80518e-13
3.78081e-10
-1.51681e-13
3.77386e-10
-1.23204e-13
3.76649e-10
-1.29668e-13
3.75712e-10
-1.6719e-13
3.74787e-10
-1.6699e-13
3.74045e-10
-1.33961e-13
3.7341e-10
-1.14283e-13
3.7287e-10
-9.70449e-14
3.72344e-10
-9.45519e-14
-7.64546e-14
3.71918e-10
3.63884e-10
1.69673e-10
1.29898e-10
1.11883e-10
1.02568e-10
9.66492e-11
9.22046e-11
8.85489e-11
8.55013e-11
8.29953e-11
8.09069e-11
7.91505e-11
7.766e-11
7.63493e-11
7.51996e-11
7.42328e-11
7.34221e-11
7.26935e-11
7.2014e-11
7.1421e-11
7.08862e-11
7.04011e-11
6.99589e-11
6.95582e-11
6.92191e-11
6.89182e-11
6.86441e-11
6.84056e-11
6.81995e-11
6.80189e-11
6.78673e-11
6.7744e-11
6.76144e-11
6.74472e-11
6.72802e-11
6.71462e-11
6.7032e-11
6.69349e-11
6.68404e-11
6.67639e-11
9.8898e-12
-9.8898e-12
7.7686e-11
-6.77962e-11
1.60187e-10
-8.25009e-11
1.0569e-10
5.44967e-11
4.48149e-11
6.08752e-11
-2.87671e-11
7.35821e-11
-3.13695e-11
2.60236e-12
-5.42387e-11
2.28693e-11
5.25289e-11
-1.06768e-10
-1.55605e-10
2.08134e-10
-4.68963e-11
-1.08709e-10
2.40503e-11
-7.09466e-11