/*--------------------------------*- C++ -*----------------------------------*\
| =========                 |                                                 |
| \\      /  F ield         | OpenFOAM: The Open Source CFD Toolbox           |
|  \\    /   O peration     | Version:  2112                                  |
|   \\  /    A nd           | Website:  www.openfoam.com                      |
|    \\/     M anipulation  |                                                 |
\*---------------------------------------------------------------------------*/
FoamFile
{
    version     2.0;
    format      ascii;
    arch        "LSB;label=32;scalar=64";
    class       volScalarField;
    location    "0.14";
    object      turbulenceProperties:L;
}
// * * * * * * * * * * * * * * * * * * * * * * * * * * * * * * * * * * * * * //

dimensions      [0 1 0 0 0 0 0];

internalField   nonuniform List<scalar> 
12225
(
9.2954e-05
0.000104355
0.000110333
0.000112987
0.000114206
0.000114388
0.000114243
0.000113864
0.000113248
0.00011253
0.000111788
0.000111004
0.00011026
0.000109499
0.000108794
0.000108138
0.00010743
0.000107016
0.001675
0.000631259
0.000400608
0.00030924
0.000263259
0.000237406
0.000221864
0.000211906
0.000205483
0.000201387
0.000198815
0.000197403
0.000196868
0.000196779
0.000197382
0.000198529
0.000199205
0.000200163
0.0178064
0.00636272
0.00395164
0.00252071
0.0017999
0.00136678
0.00113436
0.000960242
0.000857355
0.000768241
0.0007147
0.000661493
0.000630826
0.000595908
0.000576778
0.000554031
0.000540614
0.000520255
0.0587362
0.0260465
0.0177394
0.0119912
0.00914588
0.00689325
0.00577888
0.00473827
0.00420562
0.00363242
0.00334027
0.00298663
0.00281293
0.00257226
0.00246697
0.00230072
0.00219924
0.00208581
0.0765308
0.0560758
0.0404829
0.0303212
0.0249982
0.0199429
0.0173249
0.0145828
0.0131457
0.0114937
0.0106292
0.00955227
0.00899943
0.0082535
0.00789075
0.00732992
0.00705543
0.00666289
0.0793936
0.0738779
0.0632889
0.0508406
0.0440896
0.0376067
0.0337444
0.0296073
0.0271597
0.0244215
0.0227965
0.0208822
0.0197733
0.0183708
0.0176118
0.0164867
0.0159725
0.0151083
0.079763
0.0786881
0.0753209
0.0678904
0.0615999
0.0547525
0.0502963
0.0458693
0.0429031
0.0396646
0.0374688
0.0350344
0.0334293
0.0315305
0.0303746
0.0287853
0.0280194
0.0266597
0.079816
0.0796154
0.0788554
0.0766299
0.073508
0.0684918
0.0644812
0.0602679
0.0571112
0.0539811
0.0517123
0.0492399
0.0474167
0.0453677
0.0439782
0.0421934
0.0412369
0.0395931
0.0798265
0.079788
0.0796332
0.0791597
0.078258
0.0763422
0.074176
0.0712156
0.0685065
0.0657666
0.063511
0.0612938
0.0595947
0.0577519
0.0563666
0.0546902
0.0536526
0.0520487
0.0798298
0.0798253
0.0797936
0.0797024
0.0794868
0.0790111
0.0783364
0.0771542
0.0757678
0.0740447
0.0722827
0.0704903
0.0689671
0.0674128
0.0662194
0.0648621
0.0639194
0.0625642
0.0798327
0.0798353
0.0798297
0.0798167
0.0797581
0.0796625
0.0794966
0.0791759
0.0787473
0.0781006
0.0773235
0.0763345
0.0753126
0.0741742
0.0732075
0.07215
0.0714072
0.0703961
0.0798326
0.0798401
0.0798409
0.0798396
0.0798224
0.0797967
0.0797498
0.0796575
0.0795377
0.0793286
0.0790732
0.0786871
0.0782496
0.0776564
0.0770619
0.0763323
0.0757573
0.0750322
0.0798326
0.0798405
0.0798473
0.0798481
0.0798444
0.0798364
0.0798225
0.0797906
0.079759
0.0796951
0.0796275
0.0795079
0.0793794
0.0791706
0.0789521
0.0786193
0.0783043
0.0778602
0.0798328
0.0798406
0.0798487
0.0798541
0.0798549
0.0798535
0.0798491
0.0798362
0.0798259
0.0798045
0.079787
0.0797529
0.0797233
0.0796677
0.0796174
0.0795249
0.0794401
0.0792871
0.0798328
0.0798413
0.0798484
0.0798566
0.0798605
0.0798619
0.079862
0.0798576
0.079853
0.0798444
0.0798375
0.0798261
0.0798174
0.0798026
0.0797912
0.0797705
0.0797536
0.0797225
0.0798329
0.0798413
0.0798494
0.0798558
0.0798636
0.0798667
0.0798687
0.0798694
0.079868
0.0798649
0.0798617
0.0798574
0.0798537
0.079849
0.0798454
0.0798403
0.0798367
0.0798305
0.079833
0.0798416
0.0798496
0.0798567
0.0798632
0.0798698
0.0798726
0.0798751
0.0798766
0.0798765
0.0798759
0.0798747
0.0798736
0.0798723
0.0798715
0.0798704
0.0798702
0.0798693
0.079833
0.0798417
0.0798497
0.0798571
0.0798634
0.0798699
0.0798751
0.0798778
0.0798804
0.0798823
0.0798832
0.0798838
0.0798843
0.0798847
0.0798853
0.079886
0.0798869
0.0798879
0.079833
0.0798417
0.0798496
0.0798571
0.0798633
0.0798699
0.0798751
0.0798784
0.0798811
0.0798833
0.0798846
0.0798857
0.0798864
0.0798872
0.0798879
0.0798887
0.0798893
0.0798902
0.079833
0.0798414
0.0798494
0.0798565
0.079863
0.0798693
0.0798727
0.0798751
0.0798768
0.0798768
0.0798755
0.0798735
0.0798702
0.0798664
0.0798607
0.0798548
0.0798458
0.0798375
0.0798331
0.0798409
0.0798493
0.0798548
0.0798616
0.0798625
0.079862
0.0798579
0.0798485
0.0798347
0.0798139
0.0797882
0.0797534
0.0797123
0.0796591
0.0796001
0.0795257
0.079456
0.0798334
0.0798401
0.079847
0.0798452
0.0798374
0.0798167
0.0797777
0.0797139
0.0796224
0.0795047
0.0793468
0.0791622
0.078932
0.078678
0.0783911
0.0781016
0.0777802
0.0774957
0.0798353
0.0798316
0.0798143
0.0797617
0.0796377
0.0794176
0.0790742
0.0786385
0.0780894
0.0774288
0.0766767
0.075903
0.0750668
0.0742537
0.0734173
0.0726526
0.0718363
0.0711358
0.0798263
0.0797689
0.0795512
0.0790246
0.0780278
0.0767144
0.0750553
0.0733639
0.0714983
0.0696613
0.0678111
0.0661236
0.0644555
0.0629662
0.0614574
0.0601438
0.0587702
0.0576558
0.0797833
0.0791706
0.0773522
0.0741973
0.070091
0.0663449
0.0623775
0.0590701
0.055718
0.0530106
0.0502932
0.0480546
0.045816
0.0440017
0.0421567
0.0407003
0.0391547
0.038001
0.079243
0.0742471
0.06529
0.0572061
0.0498648
0.0447662
0.0397168
0.03611
0.0325224
0.0299866
0.0274347
0.025634
0.0237711
0.0224653
0.0210634
0.0200984
0.0190097
0.0182864
0.0726503
0.0502425
0.0365467
0.0282299
0.0226361
0.0189746
0.0156484
0.013547
0.0115959
0.0103859
0.00918455
0.00843834
0.00764579
0.00715619
0.00660267
0.00626496
0.00585995
0.00561747
0.0342376
0.0148925
0.00935862
0.00653352
0.00501347
0.00392758
0.00310252
0.00258816
0.00218801
0.00193692
0.00171801
0.00157747
0.00144304
0.00135663
0.00126704
0.00120999
0.00114659
0.00110671
0.00370104
0.00142302
0.000882906
0.0006418
0.000511244
0.000436172
0.000388672
0.000357726
0.000335568
0.000320542
0.000308714
0.000300699
0.000293947
0.000289645
0.000285641
0.000283503
0.000281099
0.000280329
0.000130365
0.000142799
0.000149987
0.000154211
0.000156553
0.000157927
0.000158604
0.00015898
0.000158999
0.000158933
0.000158772
0.000158507
0.000158193
0.000157852
0.00015749
0.000157122
0.000156749
0.000156381
5.8097e-06
5.91713e-05
7.55414e-05
8.90909e-05
0.000110058
0.000141593
0.000173521
0.00020059
0.000222837
0.000241068
0.000256016
0.000268477
0.000279198
0.000288681
0.000297253
0.000305082
0.000312423
0.000319321
0.000325604
0.000331495
0.000336653
0.00034143
0.000345494
0.000349356
0.000352943
0.000356341
0.000359263
0.000361913
0.000364098
0.000365919
0.000367427
0.000368653
0.000369514
0.000370163
0.000370507
0.000370676
0.000370544
0.000370236
0.000369836
0.000369272
0.000368438
0.000367228
0.000365599
0.000363405
0.000360531
0.000356665
0.000351497
0.000344259
0.000334077
0.000318685
0.000292685
0.000233153
0.000158836
0.000162151
0.000215004
0.000252554
0.000264431
0.000267213
0.000266234
0.000260898
0.000259254
0.000261094
0.000273774
0.000279431
0.000279298
0.000274922
0.00026381
0.000240323
0.000216876
0.000194486
0.000179579
0.000179877
0.000197067
0.000277557
0.000369505
0.000390779
0.00039673
0.000401289
0.000403375
0.000405123
0.000406089
0.000406824
0.000407311
0.000407598
0.000407825
0.000407906
0.000407976
0.000407957
0.00040793
0.00040786
0.000407777
0.000407679
0.000407564
0.000407449
0.00040732
0.000407195
0.000407057
0.000406926
0.000406787
0.000406649
0.000406508
0.000406367
0.000406222
0.000406078
0.000405931
0.000405783
0.000405633
0.000405482
0.000405329
0.000405175
0.000405018
0.000404858
0.000404695
0.000404526
0.000404351
0.000404168
0.000403974
0.000403768
0.000403548
0.000403313
0.000403059
0.000402786
0.000402491
0.000402174
0.000401838
0.000401481
0.00040111
0.000400708
0.000400271
0.000399797
0.000399281
0.000398715
0.000398105
0.000397461
0.00039677
0.000396044
0.000395273
0.000394452
0.00039358
0.000392721
0.000391858
0.000390965
0.000390026
0.000389032
0.000387992
0.000386912
0.000385773
0.000384537
0.00038321
0.000381624
0.000381343
0.000381645
0.000381819
0.000381902
0.000381942
0.000381907
0.000381842
0.00038171
0.000381539
0.000381319
0.000381094
0.000380795
0.000380553
0.000380222
0.000379933
0.000379567
0.000379198
0.000378806
0.00037838
0.00037794
0.000377456
0.000376962
0.000376449
0.000375805
0.000375224
0.000374455
0.000373661
0.00037275
0.000371728
0.000370305
6.2622e-06
3.00632e-05
8.9633e-05
0.00018911
0.000346522
0.000600535
0.000905597
0.00124483
0.00156874
0.00184559
0.00206756
0.00223504
0.00237426
0.00248171
0.00255904
0.00262537
0.00268379
0.00273193
0.00276936
0.00279656
0.00281498
0.00282533
0.0028295
0.0028264
0.00281645
0.00280198
0.00278107
0.00275767
0.00272792
0.00269911
0.00266806
0.00263316
0.00259603
0.00255526
0.00251326
0.0024626
0.00241623
0.00233385
0.00220288
0.00203069
0.00184227
0.00164185
0.00144598
0.00125547
0.00107811
0.000918304
0.000780813
0.000662534
0.000561379
0.000478116
0.000399145
0.000340673
0.000292732
0.000257002
0.000279646
0.000313473
0.0003844
0.000526526
0.000635432
0.000693761
0.000757932
0.000829073
0.00101105
0.00119343
0.00123526
0.00122107
0.00118922
0.00113978
0.000924319
0.000645243
0.000451279
0.000446636
0.000428791
0.000431333
0.000491785
0.00056661
0.000694328
0.000801468
0.000958375
0.00107753
0.00123642
0.00134548
0.00146941
0.00156409
0.00164286
0.00171731
0.00176707
0.00181644
0.00184943
0.00187829
0.00189961
0.00191984
0.00193529
0.00194651
0.00195459
0.00196352
0.00196899
0.00197503
0.00198086
0.00198604
0.00199162
0.00199768
0.00200391
0.00201082
0.00201845
0.00202682
0.00203614
0.0020466
0.00205828
0.00207141
0.00208623
0.00210299
0.00212194
0.00214339
0.0021675
0.00219441
0.00222339
0.00225453
0.00228913
0.00232703
0.00236712
0.00240885
0.00245091
0.00249306
0.00253283
0.00256129
0.0025926
0.0026232
0.00265477
0.00268627
0.00271732
0.00274743
0.00277621
0.00280326
0.00282837
0.0028517
0.00287366
0.00289341
0.00291064
0.00292479
0.00293658
0.00294723
0.0029568
0.00296434
0.00297019
0.00297384
0.00297569
0.00297641
0.00297164
0.00295607
0.00293354
0.0029128
0.0028922
0.0028701
0.00284854
0.00282526
0.00280223
0.00277667
0.00275064
0.00272276
0.00269394
0.00266204
0.00263002
0.00259399
0.00255869
0.00251643
0.0024782
0.00243004
0.00238797
0.00233784
0.00228604
0.00223685
0.00217298
0.00212509
0.00203327
0.00192593
0.00177888
0.00161154
0.00145059
0.00108999
2.25532e-06
2.94332e-05
0.000120239
0.000301981
0.000627151
0.00112873
0.00172832
0.00225288
0.00263659
0.00295818
0.00320037
0.0034114
0.00354514
0.00362804
0.00367795
0.00370308
0.00370735
0.00370053
0.00368792
0.00367273
0.00365614
0.00363914
0.0036216
0.003602
0.00357984
0.00355597
0.00352993
0.00350494
0.00348097
0.00345868
0.00343448
0.00341015
0.00338977
0.00336793
0.0033444
0.00332216
0.00330312
0.003281
0.00325108
0.00320478
0.00314005
0.00305571
0.00293781
0.002783
0.00256754
0.00231383
0.0019907
0.00166294
0.00130944
0.00101088
0.000745368
0.000549847
0.000394553
0.000353223
0.000302437
0.000355209
0.000462437
0.000565369
0.000573937
0.000574999
0.000604285
0.000771194
0.00111174
0.00127993
0.00119241
0.0010399
0.000934737
0.000884921
0.000883563
0.000714748
0.000544225
0.000502612
0.000538185
0.000656827
0.000962069
0.00132881
0.00170569
0.00221031
0.00260565
0.00299054
0.00328214
0.00353522
0.00371554
0.00387367
0.00398275
0.00407776
0.00414482
0.00419903
0.00424113
0.00427727
0.00430106
0.0043199
0.00433539
0.0043456
0.00435467
0.00436289
0.00436872
0.00437488
0.00438106
0.00438669
0.00439264
0.00439898
0.00440538
0.00441199
0.0044189
0.00442595
0.00443317
0.00444062
0.00444839
0.00445653
0.00446513
0.00447424
0.00448386
0.00449402
0.00450456
0.00451527
0.00452585
0.00453621
0.00454593
0.00455459
0.0045616
0.00456635
0.00456818
0.00456643
0.0045607
0.00455067
0.00453913
0.00452519
0.00450922
0.00449123
0.00447104
0.00444828
0.00442285
0.00439552
0.00436764
0.00433843
0.00430629
0.00427266
0.00423648
0.00419804
0.00415551
0.00411154
0.00406734
0.00401986
0.00396998
0.00391675
0.00386267
0.00381381
0.00376977
0.00372619
0.00368479
0.00365203
0.00363551
0.00362502
0.00362209
0.00362312
0.00363203
0.00364387
0.00366218
0.00368083
0.00370317
0.00372353
0.00374797
0.00376606
0.00378722
0.00380078
0.00381732
0.00382379
0.00383225
0.0038285
0.00382634
0.00380965
0.003795
0.00376248
0.00372571
0.00366455
0.0035915
0.00345726
0.00331331
0.00284659
7.42773e-06
6.09071e-05
0.000257537
0.000742299
0.00161744
0.00241394
0.00294583
0.00332911
0.00357622
0.00370738
0.00373849
0.00372916
0.00372007
0.00371087
0.00370524
0.00369577
0.00368902
0.00368255
0.00367707
0.00367452
0.0036704
0.00366329
0.0036513
0.00363146
0.0036029
0.00357235
0.00354312
0.00350829
0.00347201
0.0034347
0.00339474
0.00335797
0.00332224
0.00328618
0.00326025
0.00323433
0.00321042
0.00319874
0.0031969
0.00320441
0.00321738
0.0032201
0.00320745
0.0031837
0.00313702
0.00304093
0.00288578
0.00265788
0.00230857
0.00192375
0.00144085
0.00104763
0.000682109
0.000454957
0.000353798
0.000348769
0.000426249
0.000550284
0.000551656
0.000527087
0.000524148
0.00072043
0.00113752
0.00114187
0.000927997
0.000799892
0.00076645
0.000718114
0.000687046
0.000629629
0.000610159
0.000680227
0.000986645
0.00149331
0.00217615
0.0028637
0.00348399
0.00404931
0.00446259
0.00481635
0.00506676
0.00527788
0.00543205
0.00555709
0.00565439
0.00573504
0.00579647
0.00584096
0.00587775
0.0059049
0.00592354
0.00593789
0.00594794
0.00595407
0.00595822
0.00596079
0.0059616
0.00596176
0.00596143
0.00596036
0.00595881
0.00595681
0.0059541
0.00595054
0.005946
0.00594025
0.00593308
0.00592436
0.00591391
0.00590157
0.00588719
0.00587064
0.00585175
0.00583037
0.0058063
0.00577933
0.0057492
0.00571567
0.00567845
0.00563735
0.00559232
0.00554354
0.00549092
0.00543461
0.00537489
0.00531352
0.00525101
0.00518817
0.00512577
0.00506418
0.00500296
0.00494057
0.00487626
0.0048109
0.00474431
0.00467705
0.00461008
0.00454205
0.00447234
0.00440218
0.00432876
0.00425479
0.00417798
0.00409909
0.00401757
0.00393296
0.00385052
0.00377003
0.00369314
0.00363024
0.00357599
0.00353634
0.00350553
0.00348237
0.00347112
0.00347107
0.00348599
0.0035128
0.00355049
0.00359343
0.00364644
0.0036989
0.00375851
0.00380972
0.0038633
0.0039072
0.00395334
0.00399047
0.0040305
0.00406149
0.00409617
0.00411824
0.00414803
0.0041579
0.00418313
0.00417611
0.00418817
0.00414965
0.00411512
0.0039569
2.33088e-05
0.000134382
0.000731297
0.00195171
0.00286215
0.00339754
0.00365874
0.0037507
0.00377431
0.00378006
0.00377332
0.00375579
0.00373639
0.00372743
0.0037274
0.00373097
0.00373103
0.00372747
0.0037252
0.0037176
0.00370424
0.00368901
0.00367429
0.00365923
0.00363859
0.0036033
0.00355495
0.00350883
0.00346734
0.00342743
0.0033884
0.0033495
0.00330841
0.00327199
0.00323753
0.00320601
0.00317706
0.00314434
0.00311582
0.00310531
0.00310715
0.00313524
0.00317403
0.00321239
0.00323978
0.00323467
0.00320197
0.00311807
0.00293557
0.00266234
0.0022369
0.0017399
0.00124631
0.000761518
0.000481928
0.000389239
0.000377817
0.000448512
0.000491416
0.000479771
0.000476666
0.000691802
0.00116943
0.0010889
0.000883306
0.000778067
0.000741454
0.000723799
0.000717851
0.000745799
0.000923554
0.00139034
0.00213979
0.00295062
0.0037466
0.00440088
0.00496365
0.00539219
0.00572212
0.00597927
0.00618302
0.00635199
0.0064869
0.00659142
0.00667914
0.00674885
0.00680403
0.00684703
0.00688101
0.00690636
0.006924
0.00693625
0.00694363
0.00694681
0.00694682
0.00694423
0.00693931
0.00693259
0.00692435
0.00691458
0.00690331
0.00689051
0.00687598
0.00685945
0.00684066
0.00681933
0.00679514
0.00676777
0.00673694
0.0067023
0.0066635
0.00662032
0.00657264
0.00652029
0.00646319
0.0064013
0.00633458
0.00626314
0.00618715
0.00610697
0.00602254
0.00593359
0.00584129
0.00574672
0.00565117
0.00555551
0.00546078
0.00536875
0.00528087
0.0051977
0.0051191
0.00504531
0.00497585
0.00490853
0.00484116
0.00477322
0.00470391
0.00463466
0.00456437
0.00448994
0.00441201
0.00433352
0.00425261
0.00416708
0.00407366
0.00397458
0.00386866
0.00376048
0.0036595
0.00356094
0.00346555
0.00338639
0.00331791
0.00326163
0.00321951
0.00319378
0.00318823
0.00320053
0.00323326
0.00327922
0.00333986
0.00340497
0.00348291
0.00355539
0.00362478
0.00368648
0.00374898
0.00380481
0.00386207
0.00391342
0.00396658
0.00401137
0.00405686
0.004093
0.00413284
0.00415752
0.00419266
0.00420071
0.00422074
0.00419881
3.98191e-05
0.000399039
0.00183003
0.00298704
0.00355536
0.00375013
0.00381613
0.00384023
0.0038255
0.00380237
0.00377512
0.00374036
0.00370468
0.00366169
0.00361159
0.00356994
0.00354948
0.00355464
0.00356642
0.00358104
0.00359672
0.00360946
0.00361692
0.00361948
0.0036189
0.00361865
0.00362031
0.00361803
0.00360249
0.00357839
0.00354529
0.00350081
0.00344637
0.00339445
0.00334524
0.00329607
0.00325061
0.00321208
0.00317791
0.00315303
0.00314938
0.00316088
0.00318359
0.00321589
0.00325424
0.00329399
0.00330763
0.00329761
0.00323032
0.0030641
0.00279789
0.00240287
0.00188823
0.00133225
0.000842656
0.000529596
0.000431739
0.00041055
0.000423363
0.000434206
0.000464742
0.000685878
0.00121016
0.00110147
0.0008982
0.000810694
0.000796219
0.000821618
0.000949564
0.00125529
0.0018768
0.0026964
0.00353501
0.0043468
0.00498755
0.00550583
0.0059081
0.00622325
0.00648011
0.00669441
0.00685586
0.00699827
0.00711332
0.00721061
0.00729284
0.00736102
0.00741739
0.00746339
0.00750042
0.00752917
0.00755029
0.00756497
0.00757388
0.00757767
0.00757704
0.00757253
0.00756453
0.00755344
0.00753953
0.00752293
0.00750369
0.00748174
0.00745696
0.00742908
0.00739785
0.00736302
0.00732428
0.00728135
0.00723402
0.00718209
0.00712541
0.00706345
0.00699545
0.00692133
0.00684095
0.00675481
0.00666296
0.00656581
0.00646386
0.00635773
0.00624852
0.00613779
0.00602632
0.00591541
0.00580696
0.00570336
0.00560701
0.00551869
0.00543763
0.00536231
0.00529095
0.00522212
0.00515472
0.00508732
0.00501677
0.00494326
0.00486674
0.00478816
0.00470591
0.00461571
0.00451978
0.00442368
0.0043271
0.00422855
0.00412645
0.00401904
0.00390991
0.00380101
0.00368576
0.00357038
0.00347102
0.00338741
0.00331179
0.00325294
0.0032136
0.00319519
0.00320171
0.00323054
0.00328057
0.00334044
0.00340901
0.00347539
0.00355541
0.00362773
0.00369265
0.00375279
0.00381187
0.00386303
0.00391474
0.00396154
0.00400419
0.00404067
0.00407369
0.00410216
0.00412696
0.00414194
0.00416214
0.00417731
0.00419347
0.00420445
5.09622e-05
0.000840834
0.00251722
0.00343963
0.00376462
0.00386632
0.00387768
0.00385999
0.00381187
0.00372779
0.00360848
0.00348061
0.00339124
0.00335714
0.00334232
0.00334133
0.00334958
0.00335738
0.0033636
0.00336763
0.00337141
0.00337823
0.00339165
0.00341206
0.00343784
0.00346755
0.00350188
0.00354351
0.00359689
0.00365074
0.00369324
0.00372527
0.00373162
0.00369853
0.00364638
0.00358085
0.00351422
0.00345329
0.00339495
0.0033436
0.00331027
0.00329909
0.00330608
0.00332695
0.00335589
0.00339273
0.00341671
0.00342309
0.00339445
0.00331399
0.00313029
0.00285689
0.00244742
0.00194539
0.00138585
0.000913029
0.00060441
0.000496294
0.000461368
0.000464237
0.00049802
0.000698433
0.00123324
0.00114145
0.000966573
0.000899715
0.000971829
0.00118106
0.00160925
0.00227342
0.00310781
0.0039089
0.00470256
0.00531404
0.00578601
0.00616475
0.00646847
0.00673056
0.00693195
0.00710348
0.00724597
0.00737237
0.00748062
0.00757572
0.00765849
0.00772992
0.00779124
0.00784372
0.00788778
0.00792384
0.00795229
0.00797363
0.00798837
0.00799698
0.00799995
0.00799773
0.00799069
0.00797918
0.00796349
0.00794386
0.00792044
0.00789334
0.00786263
0.00782778
0.00778864
0.00774493
0.0076965
0.00764299
0.00758406
0.00751933
0.00744836
0.00737109
0.00728784
0.00719871
0.00710386
0.0070032
0.00689737
0.00678706
0.00667318
0.00655684
0.00643934
0.00632223
0.0062077
0.00609795
0.00599468
0.00589868
0.00580944
0.00572605
0.00564772
0.00557318
0.00550047
0.00542782
0.00535465
0.00528014
0.00520389
0.00512098
0.00503034
0.00493396
0.00483348
0.00473017
0.00462868
0.00452875
0.00442866
0.00433275
0.00423614
0.00413715
0.00402455
0.00389544
0.00376303
0.00364416
0.00353736
0.00345143
0.00338553
0.00334713
0.00335807
0.00341324
0.00351999
0.00367271
0.00386574
0.00406925
0.00428581
0.00448881
0.00467242
0.00481855
0.00494207
0.0050721
0.00512493
0.0051408
0.00513159
0.00509997
0.00502366
0.00492487
0.00482626
0.00472857
0.00464242
0.00455199
0.00446731
0.0043765
0.00432145
0.00425485
5.78873e-05
0.00104187
0.00281334
0.00362084
0.00385893
0.00390899
0.00389112
0.00381265
0.00368062
0.00350854
0.00333165
0.00319172
0.00312465
0.00308065
0.00302666
0.00297256
0.00293265
0.00290624
0.00289105
0.00288625
0.00289298
0.00291518
0.00295838
0.00301112
0.00307347
0.00314926
0.00323436
0.00332621
0.00342123
0.00351852
0.00362075
0.0037224
0.00379874
0.00384364
0.00385985
0.00383073
0.00377923
0.00372306
0.0036668
0.00361421
0.00356832
0.00352761
0.00349486
0.00347746
0.00347407
0.00348985
0.00351194
0.00352724
0.0035146
0.00347524
0.0033617
0.00316545
0.00286787
0.00246755
0.00196088
0.00141794
0.00099157
0.00071026
0.000587913
0.000548961
0.000574658
0.000771595
0.00127555
0.00120202
0.00107815
0.00108858
0.0013372
0.00184511
0.00249216
0.00327338
0.00412246
0.00481634
0.00542978
0.00588235
0.00624108
0.00654248
0.00680197
0.00700299
0.0071759
0.00732732
0.00746076
0.00758116
0.00768883
0.00778577
0.00787265
0.00795
0.00801862
0.00807939
0.0081322
0.00817729
0.0082149
0.00824522
0.00826848
0.00828494
0.00829488
0.00829857
0.0082963
0.0082883
0.00827482
0.00825606
0.00823215
0.00820314
0.00816902
0.00812989
0.00808573
0.00803641
0.00798161
0.00792116
0.00785485
0.00778248
0.00770394
0.00761927
0.0075286
0.00743206
0.00732993
0.00722261
0.00711083
0.00699549
0.00687772
0.0067589
0.00664081
0.00652555
0.00641468
0.00630951
0.00621055
0.00611779
0.00603103
0.00594925
0.0058715
0.00579696
0.00572389
0.00564818
0.00557061
0.0054872
0.00539664
0.00529994
0.00520064
0.00509476
0.00498112
0.00486484
0.00474364
0.00462284
0.00450691
0.00439078
0.00427376
0.00414729
0.00401008
0.00386215
0.00371651
0.00359187
0.0034814
0.00340069
0.00336495
0.00337877
0.00348764
0.00368175
0.00394449
0.00428476
0.0047123
0.00519521
0.00574067
0.00635364
0.00694747
0.00754107
0.00806884
0.00843692
0.00870795
0.00879056
0.00878223
0.00871363
0.00857023
0.00826056
0.00800177
0.00750368
0.00716738
0.00656937
0.00624294
0.00570198
0.00541649
0.00488194
6.1178e-05
0.00117107
0.00296186
0.00370766
0.00389616
0.0039215
0.00384896
0.00370033
0.00348932
0.00324734
0.00302497
0.00288058
0.0027974
0.00272916
0.00265823
0.00259985
0.00256362
0.00254922
0.00254896
0.00255391
0.00256114
0.00258199
0.00261112
0.0026437
0.00268895
0.0027583
0.00285715
0.00298947
0.00314978
0.00331109
0.00345546
0.00359766
0.00373232
0.0038472
0.00391393
0.0039458
0.00395179
0.00392509
0.00388573
0.00384754
0.00381062
0.00377558
0.00374268
0.00370699
0.00368125
0.00365965
0.0036485
0.00363893
0.00362066
0.00356406
0.00346402
0.00330963
0.00309266
0.00280408
0.00241883
0.00191889
0.00145874
0.00111531
0.000891564
0.00076506
0.000765806
0.000921893
0.00133375
0.00127217
0.00120463
0.00128742
0.00177227
0.00250293
0.00322642
0.00404988
0.00481231
0.00538007
0.00583551
0.00618828
0.00648451
0.00674611
0.00695434
0.00713124
0.00729144
0.0074358
0.00756726
0.00768802
0.00779857
0.00789936
0.0079912
0.00807457
0.00815053
0.00821882
0.00827961
0.00833321
0.00837975
0.00841926
0.00845181
0.00847742
0.00849613
0.00850799
0.00851306
0.00851143
0.0085032
0.00848848
0.00846741
0.00844009
0.00840665
0.00836723
0.00832181
0.00827037
0.00821285
0.00814918
0.00807931
0.00800321
0.00792092
0.00783255
0.00773832
0.0076385
0.00753355
0.00742406
0.00731086
0.0071949
0.00707742
0.00695992
0.00684406
0.00673156
0.00662409
0.0065226
0.00642698
0.00633675
0.00625153
0.0061699
0.00609024
0.00601038
0.00592824
0.00584241
0.00575283
0.00565854
0.00555551
0.00544562
0.00532467
0.0051919
0.00505231
0.00490562
0.00475651
0.00460856
0.00447574
0.00434778
0.00421842
0.00408188
0.00393187
0.00378123
0.00364968
0.00353535
0.00345681
0.0034295
0.00349288
0.00367296
0.00398908
0.00446278
0.0051002
0.00599844
0.00706156
0.00827729
0.00944517
0.0104539
0.0113108
0.012032
0.012625
0.0130811
0.0134224
0.0136538
0.0136873
0.0136848
0.0135645
0.0132608
0.0129578
0.0123251
0.0118282
0.0108828
0.0102459
0.00912165
0.00843706
0.00713459
6.56967e-05
0.00124399
0.00303748
0.00374981
0.003918
0.00390327
0.003771
0.00354679
0.00325479
0.00296621
0.00275689
0.00264268
0.0025722
0.00251717
0.00247252
0.00244693
0.00244564
0.00245984
0.00247544
0.00248621
0.00249277
0.00250681
0.00252277
0.00253595
0.00255464
0.00258702
0.00264138
0.00272498
0.00284877
0.00302644
0.00322988
0.00341071
0.00356887
0.00370429
0.0038205
0.00390145
0.00394124
0.00395913
0.00396282
0.00394801
0.00392427
0.00389999
0.00387828
0.00385298
0.00382711
0.00379287
0.00375468
0.00370589
0.00363814
0.00354691
0.00344178
0.0032988
0.0031147
0.002875
0.00257392
0.00220495
0.00182297
0.00148392
0.00123078
0.00104977
0.000968062
0.00108521
0.00139534
0.00133956
0.00130372
0.00146699
0.0021817
0.00300966
0.00376836
0.0045419
0.00517202
0.00563795
0.00600529
0.00630883
0.00658104
0.00681125
0.00700308
0.00717481
0.00733271
0.00747687
0.00760937
0.00773155
0.00784439
0.0079492
0.00804594
0.00813485
0.00821648
0.00829102
0.00835857
0.00841932
0.00847336
0.00852071
0.00856148
0.00859561
0.00862296
0.00864337
0.00865668
0.00866277
0.00866155
0.00865298
0.00863711
0.00861402
0.00858382
0.00854662
0.00850247
0.00845155
0.00839393
0.00832961
0.0082587
0.00818132
0.00809764
0.00800792
0.00791247
0.00781173
0.00770626
0.00759678
0.00748415
0.00736944
0.00725389
0.00713885
0.00702581
0.00691623
0.00681168
0.00671251
0.00661788
0.00652688
0.00643793
0.00635008
0.00626173
0.00617179
0.00607625
0.00597618
0.00587083
0.00575476
0.00562954
0.0054927
0.00534337
0.00518409
0.00502142
0.00485593
0.00469165
0.00453192
0.00439005
0.00425755
0.00411751
0.00396652
0.00381118
0.00367655
0.00356318
0.0034796
0.00346351
0.00355887
0.00380521
0.00431347
0.00511946
0.00635918
0.00805569
0.00985946
0.0115017
0.0129588
0.0141818
0.0151953
0.0160067
0.0166661
0.0171762
0.0175801
0.0178745
0.018094
0.0182111
0.0182596
0.0182368
0.0181424
0.0179932
0.0176627
0.0173254
0.0165719
0.0158734
0.0145066
0.0134974
0.0113879
7.37158e-05
0.0012735
0.00307682
0.00378244
0.00392773
0.00387474
0.00369375
0.00341177
0.00307637
0.00278244
0.00260057
0.00251312
0.00247364
0.00244905
0.00243163
0.00243594
0.00246297
0.00249484
0.00251945
0.00253309
0.00253868
0.00254835
0.00255366
0.0025565
0.00255953
0.00256783
0.00259157
0.00263371
0.00269707
0.00278764
0.00291994
0.00308575
0.00326361
0.00343025
0.00356408
0.00366009
0.0037268
0.00375852
0.00377784
0.00379045
0.00379927
0.00379808
0.00378286
0.00375954
0.00372846
0.00368948
0.00363901
0.00357665
0.00350457
0.00341715
0.00330853
0.00317569
0.0030107
0.00280338
0.00253966
0.00223722
0.00194713
0.00167229
0.00144418
0.00126225
0.00116311
0.00123096
0.00146747
0.0014055
0.00137581
0.00159001
0.00243193
0.0033227
0.00406871
0.00477205
0.00532667
0.00574116
0.00607453
0.006363
0.00661861
0.00683483
0.00702185
0.00719341
0.00735296
0.00750022
0.00763624
0.00776177
0.00787705
0.00798274
0.00807979
0.00816891
0.00825067
0.00832561
0.0083942
0.00845679
0.00851371
0.00856535
0.00861135
0.00865145
0.00868537
0.00871281
0.00873341
0.0087468
0.00875261
0.00875058
0.00874061
0.00872268
0.00869682
0.00866312
0.00862181
0.00857306
0.00851694
0.00845354
0.00838307
0.0083058
0.00822205
0.00813221
0.00803674
0.00793621
0.00783126
0.00772261
0.00761117
0.00749796
0.00738412
0.00727079
0.00715929
0.00705109
0.00694688
0.00684614
0.00674752
0.0066501
0.00655236
0.00645357
0.00635288
0.00624744
0.00613687
0.006017
0.00588751
0.00574794
0.00560078
0.00544302
0.00527465
0.00509721
0.00491419
0.00473229
0.00455418
0.00439576
0.00425126
0.0041096
0.0039537
0.00380144
0.00366608
0.00356119
0.00347696
0.00348164
0.00360678
0.00400918
0.00483044
0.00628826
0.00843548
0.0107401
0.0129416
0.0148811
0.0164675
0.0177106
0.0186742
0.0194215
0.0199744
0.0204007
0.0207073
0.020946
0.0211129
0.0212451
0.0213169
0.021373
0.0213715
0.0213406
0.0212874
0.0211546
0.021002
0.0206523
0.0202768
0.0194753
0.0187395
0.0168157
7.89896e-05
0.00125855
0.00307593
0.00380276
0.00394565
0.00388141
0.00366987
0.0033736
0.0030526
0.00277679
0.00262569
0.00257574
0.00256672
0.00257541
0.00260051
0.0026414
0.00269217
0.0027427
0.00278584
0.00281494
0.002821
0.00282377
0.00282278
0.00280597
0.00276679
0.00271949
0.00268386
0.00265833
0.00265228
0.00268299
0.002739
0.0028202
0.00292052
0.00301895
0.00310738
0.00318673
0.00325108
0.00329439
0.00331927
0.00334152
0.00335721
0.00336922
0.00336344
0.00333767
0.00330068
0.00325502
0.00320265
0.00314443
0.00307866
0.00300426
0.002918
0.00281998
0.00270481
0.00256768
0.00240721
0.00220459
0.00199506
0.00178541
0.00159303
0.00143564
0.00133622
0.00137994
0.00156537
0.00146513
0.00143735
0.00167244
0.00257547
0.00349838
0.00424075
0.00488156
0.00538172
0.00576296
0.00607499
0.00635031
0.00659328
0.00680486
0.0069936
0.00716891
0.00733352
0.00748684
0.00762877
0.00775947
0.00787905
0.0079879
0.00808683
0.00817676
0.00825857
0.00833312
0.00840117
0.00846335
0.00852007
0.00857131
0.00861743
0.00865846
0.00869419
0.00872428
0.00874827
0.0087656
0.00877588
0.00877878
0.00877359
0.00876013
0.0087383
0.00870817
0.00867004
0.00862375
0.00856936
0.00850717
0.00843751
0.00836074
0.00827729
0.00818768
0.00809252
0.0079925
0.00788833
0.0077807
0.00767039
0.00755829
0.00744543
0.00733291
0.00722138
0.00711161
0.00700365
0.00689814
0.0067938
0.00668895
0.00658208
0.00647108
0.00635618
0.00623388
0.00610538
0.00596655
0.00581797
0.00565686
0.00548422
0.00529927
0.00510289
0.00490069
0.00470288
0.00451372
0.00434296
0.0042054
0.00406131
0.00390967
0.00375929
0.00363755
0.00353443
0.00347837
0.00348686
0.00371764
0.00436311
0.00578093
0.00813916
0.0108708