/*--------------------------------*- C++ -*----------------------------------*\
| =========                 |                                                 |
| \\      /  F ield         | OpenFOAM: The Open Source CFD Toolbox           |
|  \\    /   O peration     | Version:  2112                                  |
|   \\  /    A nd           | Website:  www.openfoam.com                      |
|    \\/     M anipulation  |                                                 |
\*---------------------------------------------------------------------------*/
FoamFile
{
    version     2.0;
    format      ascii;
    arch        "LSB;label=32;scalar=64";
    class       volVectorField;
    location    "0.24";
    object      U_0;
}
// * * * * * * * * * * * * * * * * * * * * * * * * * * * * * * * * * * * * * //

dimensions      [0 1 -1 0 0 0 0];

internalField   nonuniform List<vector> 
12225
(
(9.73912 0.021227 0)
(9.4188 0.0210926 0)
(9.08876 0.0679739 0)
(8.75254 0.084451 0)
(8.42162 0.0683682 0)
(8.1066 0.0500642 0)
(7.8208 0.0429554 0)
(7.55888 0.0429152 0)
(7.30669 0.0435525 0)
(7.06153 0.0448766 0)
(6.81556 0.0507124 0)
(6.54654 0.060042 0)
(6.26175 0.069389 0)
(5.94985 0.0755691 0)
(5.61849 0.0760306 0)
(5.31335 0.072716 0)
(4.91428 0.091576 0)
(4.63717 0.0942949 0)
(9.8986 0.150565 0)
(9.74811 0.11431 0)
(9.78016 0.0673538 0)
(9.91315 0.0595894 0)
(10.0093 0.0767773 0)
(10.0332 0.092903 0)
(10.0235 0.0974251 0)
(10.0012 0.0955971 0)
(9.95755 0.0959675 0)
(9.88228 0.0994615 0)
(9.78006 0.106118 0)
(9.66147 0.115234 0)
(9.54153 0.124426 0)
(9.42701 0.139969 0)
(9.3069 0.153386 0)
(9.19163 0.172711 0)
(9.02859 0.206333 0)
(8.88418 0.263968 0)
(10.074 0.145265 0)
(10.0253 0.0930665 0)
(10.1188 0.0443343 0)
(10.1292 0.0439126 0)
(10.0589 0.0524472 0)
(9.95605 0.0554239 0)
(9.86726 0.0557275 0)
(9.81918 0.0610674 0)
(9.81928 0.0750629 0)
(9.85987 0.0941022 0)
(9.91933 0.114998 0)
(9.97012 0.1342 0)
(9.99177 0.148687 0)
(9.97532 0.162069 0)
(9.92672 0.17401 0)
(9.85402 0.192092 0)
(9.77218 0.227154 0)
(9.70454 0.290878 0)
(9.84169 0.05599 0)
(10.175 0.0683733 0)
(10.1921 0.0266235 0)
(10.0913 0.0610013 0)
(10.0012 0.10899 0)
(9.93501 0.133828 0)
(9.88879 0.131065 0)
(9.85853 0.109347 0)
(9.83974 0.0847209 0)
(9.8303 0.0713403 0)
(9.82924 0.0746905 0)
(9.83091 0.0962994 0)
(9.83099 0.129203 0)
(9.82707 0.167287 0)
(9.81951 0.205402 0)
(9.80606 0.242325 0)
(9.79009 0.285287 0)
(9.78036 0.337991 0)
(9.90947 -0.0367282 0)
(9.86534 0.0314192 0)
(9.85044 0.0938313 0)
(9.84173 0.114773 0)
(9.84818 0.113566 0)
(9.85405 0.103316 0)
(9.85455 0.0908725 0)
(9.84508 0.0835947 0)
(9.8183 0.0866991 0)
(9.78584 0.0982331 0)
(9.75156 0.114861 0)
(9.72999 0.132326 0)
(9.72724 0.148358 0)
(9.73855 0.165013 0)
(9.75747 0.185474 0)
(9.77535 0.211582 0)
(9.78706 0.247728 0)
(9.79512 0.292052 0)
(9.93949 0.0213918 0)
(9.75762 0.0483934 0)
(9.74572 0.0203683 0)
(9.80568 0.0410236 0)
(9.8646 0.0864354 0)
(9.90149 0.116961 0)
(9.92495 0.122496 0)
(9.93991 0.112188 0)
(9.94662 0.0989738 0)
(9.9388 0.0916009 0)
(9.92957 0.0928658 0)
(9.91954 0.104312 0)
(9.90972 0.125828 0)
(9.90011 0.155859 0)
(9.88906 0.192508 0)
(9.87543 0.232245 0)
(9.85845 0.275158 0)
(9.84032 0.319051 0)
(10.1073 -0.00049225 0)
(9.97357 0.0902026 0)
(9.91863 0.101268 0)
(9.88175 0.091441 0)
(9.87424 0.0928925 0)
(9.84737 0.0919005 0)
(9.78378 0.086777 0)
(9.71065 0.0865747 0)
(9.66582 0.0970054 0)
(9.67155 0.113609 0)
(9.71136 0.129743 0)
(9.75878 0.144009 0)
(9.79665 0.158419 0)
(9.81989 0.17506 0)
(9.83102 0.197305 0)
(9.83415 0.226145 0)
(9.83132 0.262825 0)
(9.8255 0.306002 0)
(9.92324 0.0637995 0)
(9.87421 0.111951 0)
(9.95445 0.051657 0)
(9.96479 0.0413363 0)
(9.91131 0.0899757 0)
(9.82769 0.149654 0)
(9.75139 0.174396 0)
(9.71196 0.152741 0)
(9.71308 0.10443 0)
(9.73851 0.0610174 0)
(9.7712 0.0439412 0)
(9.80005 0.0569015 0)
(9.82153 0.0917801 0)
(9.83486 0.137215 0)
(9.83848 0.185134 0)
(9.83327 0.232075 0)
(9.81788 0.278682 0)
(9.7962 0.326569 0)
(9.87828 -0.00763157 0)
(9.96862 0.0587191 0)
(9.96881 0.0798762 0)
(9.88787 0.113771 0)
(9.79733 0.148114 0)
(9.77735 0.153473 0)
(9.84309 0.129589 0)
(9.94366 0.100352 0)
(10.0194 0.0874183 0)
(10.0438 0.0937694 0)
(10.0258 0.11048 0)
(9.9875 0.129152 0)
(9.95075 0.148027 0)
(9.92393 0.171616 0)
(9.90327 0.202954 0)
(9.88054 0.242381 0)
(9.85404 0.289302 0)
(9.81949 0.341504 0)
(10.0331 -0.0493289 0)
(9.92005 0.100963 0)
(9.84405 0.0917331 0)
(9.84169 0.094708 0)
(9.88337 0.124032 0)
(9.94123 0.132287 0)
(9.98357 0.109935 0)
(9.99169 0.0774628 0)
(9.97409 0.0560395 0)
(9.95359 0.0529491 0)
(9.94671 0.0650733 0)
(9.95656 0.0878475 0)
(9.97197 0.11919 0)
(9.98378 0.157563 0)
(9.99401 0.203202 0)
(9.99328 0.25569 0)
(9.98086 0.312337 0)
(9.95863 0.369153 0)
(9.93168 0.0204461 0)
(9.94331 0.104302 0)
(9.91727 0.107148 0)
(9.87803 0.110865 0)
(9.88492 0.112749 0)
(9.94063 0.104819 0)
(10.0033 0.09908 0)
(10.036 0.101062 0)
(10.0285 0.10722 0)
(9.99217 0.113034 0)
(9.94085 0.116944 0)
(9.88717 0.122809 0)
(9.84439 0.137482 0)
(9.81878 0.165526 0)
(9.80294 0.20651 0)
(9.80408 0.257993 0)
(9.81732 0.316105 0)
(9.83642 0.376992 0)
(9.90146 0.0841863 0)
(9.82671 0.114277 0)
(9.81483 0.11154 0)
(9.85047 0.102372 0)
(9.88201 0.0873494 0)
(9.89692 0.0759516 0)
(9.90297 0.0697606 0)
(9.91615 0.0701861 0)
(9.93806 0.0805593 0)
(9.95259 0.0999554 0)
(9.94988 0.122171 0)
(9.93219 0.141763 0)
(9.90839 0.158792 0)
(9.8905 0.179022 0)
(9.8859 0.206852 0)
(9.89102 0.243798 0)
(9.9009 0.290746 0)
(9.91274 0.346528 0)
(10.092 0.0449925 0)
(9.97061 0.115672 0)
(9.89471 0.0991973 0)
(9.91984 0.0953081 0)
(9.97119 0.102662 0)
(10.005 0.0983912 0)
(10.0234 0.0858724 0)
(10.0214 0.0790744 0)
(9.99223 0.0886714 0)
(9.95945 0.111514 0)
(9.93206 0.136381 0)
(9.90822 0.155698 0)
(9.88744 0.169728 0)
(9.87183 0.185272 0)
(9.8652 0.209825 0)
(9.86716 0.247439 0)
(9.87553 0.298479 0)
(9.8876 0.360137 0)
(9.89301 0.130815 0)
(9.87643 0.183286 0)
(9.91227 0.136143 0)
(9.93621 0.0543028 0)
(9.89821 0.0154396 0)
(9.83761 0.0302809 0)
(9.78711 0.0642892 0)
(9.77447 0.0945901 0)
(9.82202 0.116281 0)
(9.89984 0.133271 0)
(9.97163 0.149436 0)
(10.0145 0.164185 0)
(10.0255 0.177211 0)
(10.0145 0.190509 0)
(9.99653 0.207905 0)
(9.98297 0.234396 0)
(9.98048 0.271128 0)
(9.99117 0.321044 0)
(10.1697 0.0207084 0)
(10.1647 0.0323933 0)
(10.2508 0.0696095 0)
(10.2671 0.133785 0)
(10.1736 0.203771 0)
(10.0616 0.213166 0)
(9.9875 0.144311 0)
(9.94939 0.0439339 0)
(9.93618 -0.0204019 0)
(9.94739 -0.0157937 0)
(9.97494 0.0408063 0)
(10.0058 0.114374 0)
(10.0278 0.17717 0)
(10.0355 0.219188 0)
(10.0268 0.244646 0)
(10.0097 0.265738 0)
(9.988 0.291201 0)
(9.97684 0.32823 0)
(9.99147 0.0943757 0)
(9.89127 0.113333 0)
(9.88672 0.075147 0)
(9.94608 0.0892325 0)
(10.0459 0.12089 0)
(10.1472 0.135647 0)
(10.1943 0.142489 0)
(10.1678 0.147269 0)
(10.0935 0.140323 0)
(10.0194 0.119931 0)
(9.97715 0.101439 0)
(9.9691 0.103047 0)
(9.98047 0.130831 0)
(9.99536 0.178759 0)
(10.0032 0.232656 0)
(10.0044 0.282079 0)
(10.0025 0.319128 0)
(10.0062 0.345787 0)
(9.78317 -0.00151322 0)
(9.77052 0.0650628 0)
(9.79812 -0.000460942 0)
(9.85317 -0.0255877 0)
(9.87537 0.0278285 0)
(9.88419 0.100296 0)
(9.90683 0.147877 0)
(9.95146 0.156227 0)
(10.0112 0.13697 0)
(10.0623 0.114005 0)
(10.0802 0.107513 0)
(10.0634 0.125883 0)
(10.0282 0.162793 0)
(9.99436 0.204135 0)
(9.97383 0.238738 0)
(9.97051 0.26323 0)
(9.98121 0.278624 0)
(10.0019 0.293115 0)
(9.8671 0.0663257 0)
(9.9055 0.0428645 0)
(9.92408 0.000627477 0)
(9.88978 0.0341677 0)
(9.83932 0.0964899 0)
(9.83067 0.092917 0)
(9.86291 0.0291038 0)
(9.91409 -0.0320482 0)
(9.97353 -0.0427566 0)
(10.0302 0.00368284 0)
(10.0751 0.0845135 0)
(10.1071 0.167174 0)
(10.128 0.228403 0)
(10.1401 0.261496 0)
(10.1443 0.271486 0)
(10.1433 0.269876 0)
(10.1386 0.265303 0)
(10.1346 0.266044 0)
(10.116 -0.0462798 0)
(10.1114 -0.0575267 0)
(10.0401 0.0153346 0)
(10.0101 0.0627923 0)
(10.0252 0.0835688 0)
(10.0658 0.0789163 0)
(10.0832 0.0489703 0)
(10.0584 0.00828117 0)
(10.0187 -0.0261708 0)
(9.99612 -0.0395576 0)
(10.0016 -0.0220282 0)
(10.0276 0.0263517 0)
(10.0607 0.0953175 0)
(10.0888 0.169824 0)
(10.1032 0.233981 0)
(10.1036 0.279452 0)
(10.093 0.303769 0)
(10.0788 0.309555 0)
(9.80707 0.0228317 0)
(9.90266 0.0681527 0)
(9.9368 0.130796 0)
(9.94181 0.0983628 0)
(9.96729 0.0331857 0)
(10.0038 0.0149847 0)
(10.0358 0.0399095 0)
(10.0597 0.0630871 0)
(10.0741 0.057838 0)
(10.0777 0.0327653 0)
(10.075 0.0160211 0)
(10.0757 0.0314211 0)
(10.0848 0.082316 0)
(10.0995 0.155404 0)
(10.1181 0.230271 0)
(10.1376 0.290327 0)
(10.1585 0.327296 0)
(10.1778 0.338321 0)
(9.86081 -0.321469 0)
(9.89918 -0.197171 0)
(9.92939 -0.0589107 0)
(9.97305 0.00258966 0)
(10.015 -0.00282635 0)
(10.0369 -0.0220949 0)
(10.0549 -0.0282446 0)
(10.0766 -0.0257654 0)
(10.0883 -0.0243719 0)
(10.0745 -0.022889 0)
(10.0377 -0.0111119 0)
(9.99814 0.0193665 0)
(9.97795 0.066672 0)
(9.98825 0.122111 0)
(10.028 0.173826 0)
(10.0877 0.212531 0)
(10.1567 0.232856 0)
(10.2252 0.236477 0)
(10.1582 0.0451261 0)
(10.0344 -0.00790028 0)
(9.97495 0.0118378 0)
(9.97705 0.0240542 0)
(10.0003 0.00185324 0)
(9.9939 -0.0216785 0)
(9.97123 -0.0188535 0)
(9.96924 0.00906457 0)
(9.99494 0.0480803 0)
(10.0303 0.0843851 0)
(10.0561 0.104183 0)
(10.0618 0.101936 0)
(10.0486 0.0856119 0)
(10.0255 0.0692169 0)
(10.0034 0.0628485 0)
(9.99211 0.0693711 0)
(9.99529 0.0847187 0)
(10.016 0.103884 0)
(9.9711 -0.0302555 0)
(9.95128 0.0337594 0)
(9.96207 -0.0219386 0)
(9.99877 -0.049383 0)
(10.0297 -0.0241604 0)
(10.039 0.00116916 0)
(10.0388 -0.00867849 0)
(10.0471 -0.0437815 0)
(10.0745 -0.0716962 0)
(10.1201 -0.0674193 0)
(10.1752 -0.023414 0)
(10.2261 0.0461444 0)
(10.2618 0.119653 0)
(10.279 0.178147 0)
(10.282 0.207763 0)
(10.2798 0.207374 0)
(10.2809 0.179996 0)
(10.2896 0.136838 0)
(9.94399 0.0899894 0)
(9.99921 0.0237016 0)
(10.0361 -0.0235844 0)
(10.0057 -0.0206645 0)
(9.97762 -0.0132292 0)
(9.9913 -0.0181714 0)
(10.0337 -0.0287429 0)
(10.0724 -0.036647 0)
(10.0845 -0.0396827 0)
(10.0706 -0.0366796 0)
(10.0505 -0.0243683 0)
(10.0516 -0.000986867 0)
(10.0869 0.0290236 0)
(10.1515 0.0575955 0)
(10.2294 0.0775202 0)
(10.3048 0.0859574 0)
(10.365 0.0837599 0)
(10.3996 0.07226 0)
(9.90252 0.024059 0)
(9.99039 -0.0339693 0)
(10.0049 -0.0349714 0)
(10.0094 -0.0179391 0)
(10.0005 -0.0205994 0)
(9.98503 -0.0443193 0)
(9.98169 -0.0682797 0)
(9.99337 -0.0722634 0)
(10.008 -0.0548898 0)
(10.0141 -0.0281068 0)
(10.0133 -0.00441338 0)
(10.0166 0.0123196 0)
(10.0326 0.0218337 0)
(10.0657 0.0288039 0)
(10.1146 0.0381918 0)
(10.1701 0.0502739 0)
(10.2236 0.0643622 0)
(10.263 0.0747958 0)
(9.9036 0.053956 0)
(9.94352 -0.0621734 0)
(9.97398 -0.0469922 0)
(10.0073 -0.00333334 0)
(10.071 0.00510256 0)
(10.1376 -0.0173005 0)
(10.1775 -0.046963 0)
(10.1793 -0.0643044 0)
(10.1523 -0.0630349 0)
(10.1143 -0.0478472 0)
(10.0799 -0.0297134 0)
(10.0578 -0.0179613 0)
(10.0529 -0.0152443 0)
(10.0663 -0.019209 0)
(10.0971 -0.0225453 0)
(10.1393 -0.0194836 0)
(10.1885 -0.00618229 0)
(10.2354 0.015802 0)
(10.0613 0.170294 0)
(10.1003 -0.0535038 0)
(10.0687 -0.0588604 0)
(10.0612 -0.0439004 0)
(10.101 -0.0745438 0)
(10.1521 -0.0974721 0)
(10.1851 -0.0848397 0)
(10.183 -0.0475376 0)
(10.147 -0.00772877 0)
(10.0972 0.0199235 0)
(10.058 0.0322408 0)
(10.0439 0.0292442 0)
(10.0541 0.0133285 0)
(10.0794 -0.00738028 0)
(10.1134 -0.0238379 0)
(10.1523 -0.0308427 0)
(10.1936 -0.0252079 0)
(10.2372 -0.0088984 0)
(10.0305 -0.0127045 0)
(9.99858 -0.0861243 0)
(9.97115 -0.0581253 0)
(10.0146 -0.0277225 0)
(10.0543 -0.0509968 0)
(10.0413 -0.0778331 0)
(10.0174 -0.0744355 0)
(10.0277 -0.0458988 0)
(10.0768 -0.0137475 0)
(10.1485 0.0042762 0)
(10.2239 0.00312197 0)
(10.2842 -0.0132393 0)
(10.3179 -0.0373416 0)
(10.3225 -0.0600603 0)
(10.305 -0.0738961 0)
(10.2806 -0.0766853 0)
(10.2618 -0.0684878 0)
(10.2596 -0.051696 0)
(10.1981 0.0890416 0)
(10.1247 -0.00118029 0)
(10.1107 -0.04007 0)
(10.1667 -0.0577536 0)
(10.1865 -0.0739991 0)
(10.1417 -0.0786052 0)
(10.0872 -0.0740018 0)
(10.0694 -0.0664366 0)
(10.088 -0.0577234 0)
(10.1202 -0.0465167 0)
(10.1448 -0.0328933 0)
(10.1509 -0.018655 0)
(10.1395 -0.00681511 0)
(10.1198 -0.00222571 0)
(10.1015 -0.00540022 0)
(10.0917 -0.013231 0)
(10.0907 -0.0215568 0)
(10.1008 -0.0268371 0)
(9.88786 -0.11437 0)
(9.81859 -0.0608006 0)
(9.65392 -0.0787837 0)
(9.45586 -0.064331 0)
(9.2577 -0.0493782 0)
(9.05814 -0.0500496 0)
(8.86292 -0.0553602 0)
(8.68651 -0.0543267 0)
(8.53739 -0.0453063 0)
(8.42205 -0.0323637 0)
(8.34328 -0.0216943 0)
(8.29491 -0.0186812 0)
(8.26115 -0.0246525 0)
(8.2236 -0.0366075 0)
(8.16876 -0.0494636 0)
(8.09622 -0.0586516 0)
(8.00943 -0.0611123 0)
(7.92369 -0.0568158 0)
(-0.0949337 0.346006 -4.2821e-20)
(-0.33437 0.20119 4.25139e-20)
(-0.303742 -0.090426 0)
(-0.0239862 -0.317457 0)
(0.357361 -0.404048 0)
(0.766657 -0.409964 -4.11421e-20)
(1.14817 -0.351321 0)
(1.4538 -0.237549 0)
(1.65613 -0.141304 0)
(1.77942 -0.0464106 0)
(1.74968 0.201086 3.97318e-20)
(1.54608 0.34325 0)
(1.32263 0.147525 0)
(1.10477 0.0437799 0)
(0.880702 0.160434 0)
(0.73185 0.192868 3.84192e-20)
(0.562508 0.125867 0)
(0.575752 -0.121412 0)
(0.822971 -0.243063 0)
(1.13303 0.00735512 0)
(1.3134 0.0240716 0)
(1.49727 0.0382636 0)
(1.70087 0.243468 0)
(1.68674 -0.10217 3.61063e-20)
(1.51208 -0.794396 -3.57953e-20)
(1.42575 -0.988663 3.55492e-20)
(1.16368 -0.273669 3.52746e-20)
(0.291708 0.574911 0)
(-0.805815 1.05186 0)
(-2.0457 1.2257 -3.42391e-20)
(-3.21451 1.12954 -3.40576e-20)
(-4.22652 0.974497 0)
(-5.11286 0.833829 0)
(-5.88833 0.711519 -3.40901e-20)
(-6.56968 0.609908 0)
(-7.17432 0.529111 0)
(-7.71629 0.46493 3.43696e-20)
(-8.20708 0.413924 0)
(-8.65479 0.372203 3.45038e-20)
(-9.06487 0.336671 6.90733e-20)
(-9.44005 0.304514 0)
(-9.78102 0.273617 0)
(-10.0868 0.242492 0)
(-10.3553 0.21024 0)
(-10.5839 0.176532 0)
(-10.7699 0.141501 6.79816e-20)
(-10.9106 0.105382 6.74863e-20)
(-11.0041 0.0687565 6.68902e-20)
(-11.0479 0.032945 0)
(-11.04 -0.00127505 -6.53932e-20)
(-10.9865 -0.0342461 0)
(-10.8847 -0.066272 6.35174e-20)
(-10.7374 -0.0969838 6.24605e-20)
(-10.5451 -0.126391 0)
(-10.3096 -0.15409 0)
(-10.0329 -0.179885 0)
(-9.71716 -0.203541 5.77087e-20)
(-9.36503 -0.22483 0)
(-8.97952 -0.243554 0)
(-8.56402 -0.259514 0)
(-8.1224 -0.272557 0)
(-7.65887 -0.282581 0)
(-7.1778 -0.289588 0)
(-6.68351 -0.293711 0)
(-6.18007 -0.295149 0)
(-5.67141 -0.294091 -4.70758e-20)
(-5.16138 -0.29063 0)
(-4.65391 -0.28475 0)
(-4.15293 -0.276385 4.42452e-20)
(-3.66239 -0.265542 4.3402e-20)
(-3.1862 -0.252397 0)
(-2.72799 -0.237328 -4.18606e-20)
(-2.29082 -0.220923 4.11576e-20)
(-1.87701 -0.20402 0)
(-1.48795 -0.187454 -3.98701e-20)
(-1.12408 -0.171577 0)
(-0.785001 -0.157275 0)
(-0.470893 -0.144382 3.8177e-20)
(-0.182528 -0.131942 0)
(0.0748032 -0.117813 -3.71588e-20)
(0.294738 -0.0928914 0)
(0.466889 -0.0509363 3.6186e-20)
(0.57946 0.0024531 3.57315e-20)
(0.638858 0.0272512 3.52936e-20)
(0.701027 -0.0311582 6.9727e-20)
(0.801709 -0.194049 -6.88591e-20)
(0.97362 -0.41549 0)
(1.30813 -0.461574 0)
(1.62657 -0.0572257 0)
(1.5285 0.448934 -6.53747e-20)
(1.20688 0.493885 -6.46274e-20)
(0.939344 0.0790569 6.39266e-20)
(0.807905 -0.413116 0)
(0.950695 -0.619629 -6.2386e-20)
(1.22426 -0.317325 -6.15478e-20)
(1.12179 0.169439 -6.09659e-20)
(0.935116 0.129934 0)
(1.36884 -0.285082 0)
(2.34494 -0.389729 0)
(3.28008 -0.0353749 -5.79715e-20)
(3.59644 0.317341 0)
(3.38324 0.317938 0)
(2.96062 0.179824 5.6049e-20)
(2.33158 0.221731 0)
(1.45783 0.391648 0)
(0.436512 0.482721 5.51992e-20)
(-0.620745 0.485932 0)
(-1.64214 0.459939 0)
(-2.59149 0.42241 -5.65199e-20)
(-3.46099 0.381099 -5.72142e-20)
(-4.24821 0.339866 0)
(-4.95479 0.300469 5.8688e-20)
(-5.58361 0.2632 0)
(-6.13638 0.227275 -5.9993e-20)
(-6.61196 0.19145 0)
(-7.00643 0.154694 -6.08504e-20)
(-7.31432 0.116868 -6.10303e-20)
(-7.53052 0.0786239 0)
(-7.65174 0.0413175 0)
(-7.67674 0.00685791 0)
(-7.61502 -0.0248687 0)
(-7.47094 -0.0549509 0)
(-7.24891 -0.083666 0)
(-6.95063 -0.111501 0)
(-6.5763 -0.13857 -5.40589e-20)
(-6.12627 -0.164461 5.2264e-20)
(-5.60304 -0.188328 0)
(-5.01192 -0.209238 0)
(-4.36116 -0.226365 0)
(-3.66241 -0.238686 0)
(-2.93093 -0.244731 8.59265e-20)
(-2.18405 -0.243516 0)
(-1.43911 -0.235841 -7.98145e-20)
(-0.71384 -0.222144 7.72257e-20)
(-0.0329175 -0.205505 0)
(0.59794 -0.18833 0)
(1.18637 -0.172115 0)
(1.73353 -0.158892 -6.926e-20)
(2.24794 -0.149753 -6.7715e-20)
(2.74073 -0.144452 0)
(3.22299 -0.141514 -6.49462e-20)
(3.70276 -0.14034 -6.369e-20)
(4.18451 -0.141056 6.25117e-20)
(4.66912 -0.138938 0)
(5.14783 -0.130715 0)
(5.61013 -0.125279 5.94369e-20)
(6.05826 -0.117714 0)
(6.47235 -0.0932269 0)
(6.82461 -0.0736386 0)
(7.1306 -0.0581054 0)
(7.34868 -0.0277111 -5.5461e-20)
(7.4489 -0.00648293 -5.46731e-20)
(7.43032 0.074648 0)
(7.10451 0.212005 -5.28421e-20)
(6.5499 0.254356 0)
(5.90367 0.365721 0)
(4.71095 0.550787 -5.00524e-20)
(3.14637 0.399232 0)
(1.98229 0.0405226 -4.98583e-20)
(1.36426 -0.145969 0)
(1.13486 -0.137045 0)
(1.15156 -0.0876353 -4.76085e-20)
(1.28862 -0.0678609 0)
(1.48114 -0.0768169 -4.52029e-20)
(1.6835 -0.0908793 0)
(1.86286 -0.0972196 0)
(2.00945 -0.094739 0)
(2.13896 -0.0792712 4.09283e-20)
(2.27624 -0.0455104 0)
(2.42077 0.00703042 -3.89146e-20)
(2.50965 0.0540823 0)
(2.49035 0.0570472 0)
(2.42289 0.0148801 0)
(2.39231 -0.0346321 0)
(2.42757 -0.0526161 0)
(2.43433 -0.0306534 0)
(2.31314 0.00541365 0)
(2.06865 0.0449896 6.35787e-20)
(1.5689 0.108293 0)
(0.877579 0.218884 0)
(-0.0461054 0.485999 1.28433e-19)
(0.00869536 0.239784 -1.27529e-19)
(0.438733 -0.538124 0)
(0.899023 -1.0606 8.3594e-20)
(1.32669 -1.25316 0)
(1.68859 -1.21199 4.0969e-20)
(1.98048 -1.02314 -8.17322e-20)
(2.19949 -0.736219 -8.12259e-20)
(2.34135 -0.413345 0)
(2.39972 -0.0968378 -8.02022e-20)
(2.36478 0.257733 -3.96446e-20)
(2.27705 0.551858 0)
(2.14191 0.692897 0)
(1.79126 0.77585 0)
(1.42538 0.616455 0)
(1.23351 0.316196 -3.83499e-20)
(1.04978 0.193435 0)
(1.16496 -0.308556 7.56651e-20)
(1.2819 -1.01266 0)
(1.59308 -0.847539 0)
(1.76689 -0.777441 -7.41056e-20)
(1.39664 -0.915869 0)
(1.02874 -0.431564 7.32156e-20)
(0.500588 0.448949 -3.62197e-20)
(-0.675609 1.1619 3.58672e-20)
(-1.96185 1.75011 -3.54978e-20)
(-3.0457 2.28887 -3.50732e-20)
(-4.04706 2.64864 0)
(-4.85678 2.72562 0)
(-5.57933 2.58536 3.38717e-20)
(-6.1956 2.33043 -3.47764e-20)
(-6.75082 2.06176 0)
(-7.24883 1.809 0)
(-7.70536 1.58759 3.38963e-20)
(-8.12513 1.40166 0)
(-8.51798 1.24853 0)
(-8.8872 1.12257 -3.42434e-20)
(-9.23705 1.0172 0)
(-9.56778 0.925954 3.49064e-20)
(-9.87926 0.842902 -6.88975e-20)
(-10.1693 0.763233 0)
(-10.4354 0.683285 0)
(-10.6743 0.600546 -1.38415e-19)
(-10.8829 0.513551 -1.38006e-19)
(-11.0578 0.421852 -1.37417e-19)
(-11.1962 0.325772 6.87292e-20)
(-11.2956 0.226048 -6.74213e-20)
(-11.3538 0.123867 -2.01277e-19)
(-11.3707 0.0212738 1.33024e-19)
(-11.3456 -0.079673 6.53488e-20)
(-11.2716 -0.179071 0)
(-11.1525 -0.275738 -6.34675e-20)
(-10.9866 -0.368718 6.2947e-20)
(-10.7762 -0.457271 0)
(-10.5228 -0.540572 0)
(-10.2284 -0.618004 0)
(-9.89558 -0.688955 -5.76512e-20)
(-9.527 -0.752842 0)
(-9.12575 -0.80909 1.1061e-19)
(-8.69528 -0.85715 0)
(-8.23946 -0.896568 1.05613e-19)
(-7.76253 -0.927077 0)
(-7.26883 -0.948717 -1.00841e-19)
(-6.76252 -0.961912 0)
(-6.24727 -0.967342 9.63868e-20)
(-5.72635 -0.965621 -4.72679e-20)
(-5.20293 -0.957052 0)
(-4.68032 -0.941601 -9.03997e-20)
(-4.1621 -0.919055 -4.42053e-20)
(-3.65203 -0.889385 -4.33656e-20)
(-3.15391 -0.853092 0)
(-2.67128 -0.811212 -4.19616e-20)
(-2.20711 -0.76506 -4.11334e-20)
(-1.7635 -0.716241 0)
(-1.34125 -0.66642 3.98548e-20)
(-0.939551 -0.616072 -7.86048e-20)
(-0.556423 -0.566209 0)
(-0.188987 -0.515638 -3.81758e-20)
(0.163626 -0.462455 0)
(0.500582 -0.402337 1.11388e-19)
(0.810684 -0.329739 0)
(1.0731 -0.251308 -1.08432e-19)
(1.28394 -0.183448 -3.5683e-20)
(1.44659 -0.148405 3.52483e-20)
(1.58075 -0.137004 6.96305e-20)
(1.67547 -0.106561 -6.87746e-20)
(1.65886 -0.123032 0)
(1.56344 -0.23 0)
(1.56132 -0.186865 0)
(1.80337 -0.00454945 1.96019e-19)
(2.20092 0.054332 6.45263e-20)
(2.4921 0.227472 -6.37782e-20)
(2.68118 0.469542 0)
(2.53981 0.269878 -6.21598e-20)
(1.95408 0.0497255 6.14556e-20)
(1.5082 0.133783 6.09011e-20)
(1.45815 -0.269212 0)
(1.73529 -1.21367 0)
(2.35367 -1.60576 0)
(3.18621 -1.06865 5.79253e-20)
(3.74511 -0.301457 0)
(3.55862 0.290169 -1.14049e-19)
(2.58758 0.795688 -1.68281e-19)
(1.27004 1.18796 1.11165e-19)
(-0.000332684 1.36627 0)
(-1.11448 1.38053 5.56927e-20)
(-2.08834 1.31519 0)
(-2.95478 1.21973 1.12209e-19)
(-3.732 1.11234 -5.70473e-20)
(-4.43107 1.00265 -5.77256e-20)
(-5.05986 0.895761 0)
(-5.62415 0.79358 -1.76338e-19)
(-6.12744 0.695586 1.19128e-19)
(-6.57054 0.599425 5.99267e-20)
(-6.95136 0.502031 0)
(-7.26569 0.400909 6.08096e-20)
(-7.50873 0.295401 1.83494e-19)
(-7.6758 0.187128 0)
(-7.76376 0.0791904 1.21973e-19)
(-7.77307 -0.0247569 1.20962e-19)
(-7.69833 -0.122636 1.19411e-19)
(-7.54241 -0.214698 0)
(-7.30773 -0.302107 0)
(-6.99595 -0.386589 0)
(-6.60702 -0.468828 -5.44325e-20)
(-6.14097 -0.547672 -5.22352e-20)
(-5.60007 -0.620571 0)
(-4.9896 -0.684718 -9.71467e-20)
(-4.31766 -0.737562 -9.3299e-20)
(-3.59515 -0.7762 0)
(-2.83655 -0.797056 -8.58661e-20)
(-2.05995 -0.797225 -1.65681e-19)
(-1.28348 -0.775232 7.97654e-20)
(-0.52545 -0.735716 7.74425e-20)
(0.187715 -0.685249 0)
(0.850636 -0.63131 0)
(1.47046 -0.57938 0)
(2.04695 -0.53528 6.92e-20)
(2.58872 -0.502704 -6.78323e-20)
(3.10732 -0.482628 -1.3263e-19)
(3.61483 -0.473047 6.48893e-20)
(4.12196 -0.469341 -6.38088e-20)
(4.6335 -0.466521 -6.2454e-20)
(5.14527 -0.461175 0)
(5.65599 -0.44973 0)
(6.16484 -0.430757 5.9531e-20)
(6.65095 -0.40477 0)
(7.10782 -0.365432 0)
(7.5398 -0.313671 -1.13949e-19)
(7.91331 -0.249879 0)
(8.21771 -0.152148 -5.55597e-20)
(8.43895 -0.0309583 5.46193e-20)
(8.54635 0.106248 0)
(8.51744 0.280934 -5.31174e-20)
(8.3332 0.43401 0)
(8.04937 0.595207 0)
(7.62602 0.8559 4.9874e-20)
(7.04529 1.03516 -9.96213e-20)
(6.29849 0.934948 4.96274e-20)
(5.32361 0.600521 0)
(4.38579 0.240112 0)
(3.78847 -0.00536682 -4.74111e-20)
(3.51626 -0.125657 0)
(3.4298 -0.152059 -4.50832e-20)
(3.43118 -0.119749 0)
(3.45414 -0.0698796 0)
(3.43827 -0.0388279 0)
(3.35169 -0.0454466 -4.08882e-20)
(3.23353 -0.0860502 0)
(3.20258 -0.120028 3.88866e-20)
(3.34844 -0.092275 0)
(3.57698 -0.0120266 0)
(3.67192 0.0405832 -7.15807e-20)
(3.52522 0.0335615 6.95332e-20)
(3.20762 0.0293523 0)
(2.7871 0.087347 0)
(2.24353 0.180091 0)
(1.56602 0.289267 -1.9057e-19)
(0.645294 0.469933 0)
(-0.481171 0.737658 1.26588e-19)
(-0.00167911 0.48686 2.06053e-23)
(0.588746 -0.778324 1.69686e-19)
(1.229 -1.75808 0)
(1.7198 -2.17393 -1.66832e-19)
(2.05047 -2.17129 0)
(2.26924 -1.91336 0)
(2.41005 -1.52861 -5.61458e-22)
(2.49377 -1.07377 8.11058e-20)
(2.53043 -0.589623 8.11857e-20)
(2.53013 -0.116325 8.01115e-20)
(2.47253 0.37058 0)
(2.36059 0.76657 0)
(2.22618 1.04667 -7.85006e-20)
(1.9808 1.24643 -1.55578e-19)
(1.76381 1.20069 1.54224e-19)
(1.51489 0.854976 0)
(1.27907 0.421651 1.51934e-19)
(1.51964 -0.442872 -7.55974e-20)
(1.25833 -1.29062 0)
(0.694331 -0.723969 1.49344e-19)
(-0.0329397 0.555369 7.42929e-20)
(-1.10467 1.37576 -1.47231e-19)
(-2.07254 1.98919 -7.28786e-20)
(-2.95247 2.58567 0)
(-3.869 3.05038 1.43179e-19)
(-4.69804 3.41927 1.42039e-19)
(-5.39851 3.65822 0)
(-5.94919 3.72053 1.4027e-19)
(-6.35523 3.59774 0)
(-6.69759 3.34867 1.3921e-19)
(-7.00483 3.04073 6.8307e-20)
(-7.31726 2.72999 0)
(-7.63311 2.44351 0)
(-7.96057 2.19505 0)
(-8.29338 1.9867 0)
(-8.63058 1.81354 0)
(-8.96683 1.66838 0)
(-9.29942 1.54256 1.39773e-19)
(-9.62396 1.42803 -2.09184e-19)
(-9.93672 1.3176 0)
(-10.2329 1.20561 0)
(-10.5078 1.08779 0)
(-10.7563 0.961479 -1.35458e-21)
(-10.9734 0.825407 1.3792e-19)
(-11.1542 0.679501 2.76012e-19)
(-11.2943 0.524732 -2.74438e-19)
(-11.39 0.363046 -1.36867e-19)
(-11.4385 0.19656 1.34408e-19)
(-11.4376 0.0269588 1.18661e-21)
(-11.388 -0.143261 1.32465e-19)
(-11.2903 -0.310963 0)
(-11.1449 -0.473653 1.28448e-19)
(-10.9538 -0.629433 8.92833e-22)
(-10.7193 -0.776793 0)
(-10.4442 -0.914744 0)
(-10.1311 -1.0424 -1.18837e-19)
(-9.78309 -1.15897 0)
(-9.40303 -1.26363 0)
(-8.99409 -1.35546 1.11655e-19)
(-8.5597 -1.43356 2.17098e-19)
(-8.1037 -1.49718 -1.05543e-19)
(-7.63026 -1.54601 0)
(-7.14373 -1.58031 1.00767e-19)
(-6.648 -1.60112 0)
(-6.14596 -1.60996 9.71611e-20)
(-5.63955 -1.60812 9.42174e-20)
(-5.13037 -1.59607 -1.8521e-19)
(-4.62037 -1.57351 -9.10379e-20)
(-4.11225 -1.53974 0)
(-3.60962 -1.4943 1.74242e-19)
(-3.11679 -1.43782 0)
(-2.63822 -1.37234 2.51636e-19)
(-2.17829 -1.30058 1.65028e-19)
(-1.74081 -1.22582 1.62319e-19)
(-1.32843 -1.15189 -1.59768e-19)
(-0.942187 -1.08224 2.35907e-19)
(-0.581815 -1.02054 0)
(-0.243107 -0.965995 0)
(0.0853785 -0.913655 -1.50763e-19)
(0.421769 -0.842358 -2.22863e-19)
(0.77606 -0.732618 0)
(1.13096 -0.584158 7.225e-20)
(1.45366 -0.420817 0)
(1.70284 -0.288717 -2.11366e-19)
(1.85422 -0.226134 8.65572e-24)
(1.94807 -0.220626 2.59427e-24)
(2.03774 -0.263829 1.35733e-19)
(2.12205 -0.334713 0)
(2.11558 -0.325406 -1.32334e-19)
(2.15328 -0.221489 7.51051e-23)
(2.36471 -0.195158 0)
(2.5241 -0.285936 0)
(2.75574 -0.310799 0)
(3.25295 -0.0439093 1.24257e-19)
(3.47722 0.466521 0)
(3.2714 0.699856 0)
(3.02515 0.0815682 0)
(2.67924 -1.23157 0)
(2.46892 -1.99248 0)
(2.661 -1.29124 1.16197e-19)
(2.59753 0.0771678 0)
(1.92536 1.24693 1.14225e-19)
(0.883615 1.98404 1.12493e-19)
(-0.127185 2.27745 -1.11234e-19)
(-0.976769 2.2735 0)
(-1.74055 2.16385 -1.10574e-19)
(-2.46158 2.01894 0)
(-3.15333 1.85955 -1.12062e-19)
(-3.81362 1.69516 1.13296e-19)
(-4.43715 1.53179 3.45946e-19)
(-5.0196 1.37369 0)
(-5.55811 1.2222 3.54645e-19)
(-6.05024 1.07572 1.20624e-19)
(-6.49293 0.930467 0)
(-6.88155 0.781999 2.44153e-19)
(-7.20954 0.626798 2.45645e-19)
(-7.46933 0.46369 -3.68928e-19)
(-7.65382 0.294648 0)
(-7.75751 0.123716 -1.21967e-19)
(-7.77725 -0.044816 -1.20956e-19)
(-7.71266 -0.206795 -3.59813e-19)
(-7.56501 -0.360431 0)
(-7.33601 -0.506966 0)
(-7.02673 -0.648922 0)
(-6.63742 -0.787433 -1.09749e-19)
(-6.1688 -0.920502 0)
(-5.62391 -1.04378 0)
(-5.00896 -1.15247 9.70704e-20)
(-4.33305 -1.24191 9.32206e-20)
(-3.60741 -1.30704 0)
(-2.84533 -1.34244 0)
(-2.06338 -1.34328 1.65531e-19)
(-1.28075 -1.30643 0)
(-0.518516 -1.2398 -1.545e-19)
(0.195513 -1.15537 -1.50221e-19)
(0.855783 -1.0635 0)
(1.47003 -0.976005 0)
(2.0388 -0.902202 1.38796e-19)
(2.57215 -0.848359 -2.9793e-22)
(3.08397 -0.815778 -3.00043e-22)
(3.58859 -0.800574 0)
(4.09557 -0.795871 2.5506e-19)
(4.60928 -0.793426 0)
(5.13029 -0.785809 0)
(5.65217 -0.769239 0)
(6.16781 -0.741956 -1.18849e-19)
(6.67092 -0.700888 0)
(7.15047 -0.639454 2.31343e-19)
(7.60613 -0.558861 1.13895e-19)
(8.02059 -0.467367 0)
(8.36138 -0.348003 1.10919e-19)
(8.64961 -0.187511 0)
(8.90393 0.0377762 0)
(9.0892 0.346228 3.18424e-19)
(9.09008 0.607324 -2.08992e-19)
(8.80154 0.769828 0)
(8.41388 0.99598 -2.02138e-19)
(8.16369 1.21012 9.94703e-20)
(7.89698 1.19231 0)
(7.36696 0.966998 0)
(6.64501 0.65948 0)
(5.96336 0.357632 2.83676e-19)
(5.41317 0.122821 0)
(4.96472 -0.0240219 9.00808e-20)
(4.60233 -0.0923332 0)
(4.37331 -0.100531 0)
(4.2786 -0.0526673 0)
(4.19018 0.0178213 0)
(3.99481 0.0262005 0)
(3.78 -0.0596343 0)
(3.73456 -0.139854 1.51454e-19)
(3.87381 -0.0963891 0)
(3.96539 0.0474316 7.15574e-20)
(3.76093 0.184767 -2.08461e-19)
(3.26151 0.287305 0)
(2.60948 0.408353 0)
(1.87943 0.552944 1.28865e-19)
(1.0446 0.726204 1.2696e-19)
(0.0155312 0.995095 -1.26332e-19)
(-1.14374 1.34433 -1.26438e-19)
(0.324183 -0.711976 -2.57112e-19)
(0.976984 -2.45325 -2.54483e-19)
(1.42692 -2.98614 -1.6869e-19)
(1.64407 -2.86271 -8.42985e-20)
(1.71984 -2.46352 0)
(1.73914 -1.97371 1.66274e-19)
(1.74385 -1.46729 -8.31393e-20)
(1.74632 -0.965416 0)
(1.75261 -0.463501 -8.13226e-20)
(1.72491 0.055301 0)
(1.67844 0.591453 1.60755e-19)
(1.58436 1.05609 0)
(1.47858 1.37986 7.86297e-20)
(1.2711 1.65202 1.55828e-19)
(1.11685 1.57297 -1.54438e-19)
(0.803661 1.35465 0)
(0.77604 0.155375 -1.52186e-19)
(0.607134 -0.31638 0)
(-0.487505 0.779645 0)
(-1.51992 1.59209 -1.48846e-19)
(-2.37578 2.30205 0)
(-3.21026 2.86808 -4.32384e-23)
(-3.97592 3.41008 0)
(-4.68034 3.87859 0)
(-5.28959 4.20588 8.96033e-22)
(-5.78813 4.38755 -1.41422e-19)
(-6.18274 4.40682 -1.42091e-19)
(-6.49056 4.29215 -1.39948e-19)
(-6.75247 4.07251 0)
(-7.00157 3.79483 -2.8012e-19)
(-7.25319 3.4953 0)
(-7.51688 3.20316 -1.40884e-19)
(-7.79276 2.93446 0)
(-8.08365 2.69789 0)
(-8.38681 2.49465 1.41018e-19)
(-8.70027 2.32042 0)
(-9.01958 2.1683 -1.41316e-19)
(-9.34017 2.02974 1.81914e-21)
(-9.65612 1.89628 2.81458e-19)
(-9.96123 1.75988 -2.83468e-19)
(-10.2489 1.61414 0)
(-10.5123 1.45452 0)
(-10.7448 1.27858 -1.433e-19)
(-10.9403 1.08566 0)
(-11.0936 0.87687 -1.38604e-19)
(-11.2001 0.654795 1.37804e-19)
(-11.2571 0.422417 1.3684e-19)
(-11.2631 0.182998 0)
(-11.2173 -0.0592906 -1.34235e-19)
(-11.1203 -0.299615 -1.32508e-19)
(-10.9738 -0.533977 2.63983e-19)
(-10.7814 -0.758874 -1.2849e-19)
(-10.5466 -0.972198 -1.26242e-19)
(-10.2741 -1.17197 0)
(-9.9677 -1.35713 0)
(-9.63153 -1.52685 1.1887e-19)
(-9.26904 -1.6805 0)
(-8.88325 -1.81725 0)
(-8.4769 -1.93608 -2.22235e-19)
(-8.05269 -2.03582 -2.17117e-19)
(-7.61348 -2.11552 0)
(-7.1626 -2.17473 0)
(-6.70399 -2.21414 0)
(-6.2414 -2.23587 0)
(-5.77713 -2.24313 -1.93414e-19)
(-5.31154 -2.23862 1.90277e-19)
(-4.84375 -2.22308 1.85125e-19)
(-4.37304 -2.19524 3.63511e-19)
(-3.89977 -2.15283 0)
(-3.42583 -2.09361 8.24758e-22)
(-2.95462 -2.01673 0)
(-2.49026 -1.92403 -1.67802e-19)
(-2.03763 -1.81855 5.64965e-22)
(-1.60153 -1.70448 -1.62226e-19)
(-1.18635 -1.58702 1.59686e-19)
(-0.796127 -1.47154 3.60416e-22)
(-0.436166 -1.36502 0)
(-0.117831 -1.28051 1.53107e-19)
(0.156534 -1.22819 1.50684e-19)
(0.409404 -1.18855 2.97325e-19)
(0.675356 -1.11806 0)
(0.973809 -0.98135 -1.44702e-19)
(1.28699 -0.78589 0)
(1.58016 -0.575471 2.81861e-19)
(1.82311 -0.411944 -1.39142e-19)
(2.01767 -0.335379 1.37406e-19)
(2.1754 -0.325352 -1.35677e-19)
(2.32262 -0.316883 -2.68023e-19)
(2.41512 -0.273846 1.32266e-19)
(2.43798 -0.273099 -1.30613e-19)
(2.56558 -0.32961 0)
(2.77542 -0.275577 2.54875e-19)
(2.89836 -0.250216 0)
(3.04031 -0.351876 2.48505e-19)
(3.41292 -0.0701494 -2.45253e-19)