/*--------------------------------*- C++ -*----------------------------------*\
| =========                 |                                                 |
| \\      /  F ield         | OpenFOAM: The Open Source CFD Toolbox           |
|  \\    /   O peration     | Version:  2112                                  |
|   \\  /    A nd           | Website:  www.openfoam.com                      |
|    \\/     M anipulation  |                                                 |
\*---------------------------------------------------------------------------*/
FoamFile
{
    version     2.0;
    format      ascii;
    arch        "LSB;label=32;scalar=64";
    class       volVectorField;
    location    "0.003";
    object      UMean;
}
// * * * * * * * * * * * * * * * * * * * * * * * * * * * * * * * * * * * * * //

dimensions      [0 1 -1 0 0 0 0];

internalField   nonuniform List<vector> 
12225
(
(9.77757 0.0311399 0)
(9.66517 0.0511613 0)
(9.46101 0.045883 0)
(9.21053 0.0396487 0)
(8.99713 0.0310765 0)
(8.83744 0.0248018 0)
(8.73454 0.0138792 0)
(8.66681 0.0118103 0)
(8.65163 -0.00279163 0)
(8.64832 0.005072 0)
(8.72465 -0.0245736 0)
(8.78286 0.0055916 0)
(8.98475 -0.06861 0)
(9.11171 0.0242189 0)
(9.50769 -0.17457 0)
(9.76085 0.0937759 0)
(10.5398 -0.502535 0)
(11.2713 0.122937 0)
(9.8584 0.0599376 0)
(10.1017 0.0707858 0)
(10.218 0.0596275 0)
(10.2473 0.0532778 0)
(10.2649 0.0492116 0)
(10.2987 0.0389065 0)
(10.3402 0.0315158 0)
(10.3988 0.0135124 0)
(10.4579 0.0071641 0)
(10.5482 -0.0218472 0)
(10.6366 -0.0223841 0)
(10.7871 -0.0729785 0)
(10.923 -0.0602692 0)
(11.1786 -0.154643 0)
(11.3901 -0.125365 0)
(11.8437 -0.31754 0)
(12.2041 -0.378075 0)
(12.9568 -0.909314 0)
(9.83118 0.00766256 0)
(10.0259 0.031326 0)
(10.1227 0.0251501 0)
(10.1551 0.0195618 0)
(10.1931 0.0117315 0)
(10.251 0.00393757 0)
(10.3256 -0.0107033 0)
(10.4063 -0.0208758 0)
(10.4961 -0.0439152 0)
(10.5913 -0.0541625 0)
(10.7071 -0.0931777 0)
(10.8369 -0.102819 0)
(11.0053 -0.174526 0)
(11.1986 -0.186871 0)
(11.4568 -0.326092 0)
(11.76 -0.390414 0)
(12.144 -0.702733 0)
(12.5536 -1.12171 0)
(9.78939 0.03324 0)
(9.97116 0.0440404 0)
(10.0646 0.0327513 0)
(10.0921 0.0203782 0)
(10.1217 0.0105893 0)
(10.1732 -0.00225482 0)
(10.241 -0.0155072 0)
(10.3199 -0.0355273 0)
(10.4066 -0.0551601 0)
(10.5071 -0.0861693 0)
(10.6233 -0.116476 0)
(10.7639 -0.165621 0)
(10.9293 -0.216276 0)
(11.1292 -0.298244 0)
(11.3667 -0.402817 0)
(11.646 -0.567864 0)
(11.9624 -0.844785 0)
(12.2684 -1.23146 0)
(9.7857 0.0105396 0)
(9.96019 0.0184073 0)
(10.0463 0.0127819 0)
(10.0693 -0.00120974 0)
(10.0954 -0.0172642 0)
(10.1438 -0.0332273 0)
(10.2119 -0.0530265 0)
(10.2934 -0.0747585 0)
(10.3853 -0.103621 0)
(10.4882 -0.135556 0)
(10.6054 -0.179449 0)
(10.7403 -0.230221 0)
(10.8974 -0.301321 0)
(11.0794 -0.392231 0)
(11.2915 -0.521096 0)
(11.5277 -0.711973 0)
(11.7808 -0.978416 0)
(12.0023 -1.38271 0)
(9.82154 0.0183398 0)
(9.99615 0.0184831 0)
(10.0852 0.00773351 0)
(10.1109 -0.00767438 0)
(10.134 -0.0233 0)
(10.1724 -0.0416526 0)
(10.2262 -0.0644908 0)
(10.2924 -0.0927634 0)
(10.3708 -0.126837 0)
(10.4628 -0.168207 0)
(10.5716 -0.219445 0)
(10.6985 -0.283446 0)
(10.8466 -0.366323 0)
(11.0141 -0.474253 0)
(11.2031 -0.621363 0)
(11.4028 -0.822393 0)
(11.6038 -1.09655 0)
(11.7671 -1.46489 0)
(9.82307 0.00642326 0)
(9.99543 0.00796248 0)
(10.074 -0.00819351 0)
(10.0893 -0.0266302 0)
(10.1106 -0.0463059 0)
(10.156 -0.068337 0)
(10.2213 -0.094756 0)
(10.299 -0.127786 0)
(10.3855 -0.168719 0)
(10.4803 -0.218711 0)
(10.5861 -0.279047 0)
(10.704 -0.353782 0)
(10.8365 -0.446811 0)
(10.9816 -0.567857 0)
(11.1399 -0.723919 0)
(11.2998 -0.931624 0)
(11.4527 -1.19639 0)
(11.5667 -1.53031 0)
(9.91552 0.00264706 0)
(10.0755 -0.000962513 0)
(10.1563 -0.0145191 0)
(10.1757 -0.0333828 0)
(10.195 -0.0571026 0)
(10.2335 -0.0852498 0)
(10.2892 -0.117899 0)
(10.3551 -0.156058 0)
(10.4279 -0.201044 0)
(10.5074 -0.254852 0)
(10.5965 -0.32014 0)
(10.6969 -0.401489 0)
(10.81 -0.503272 0)
(10.9331 -0.633434 0)
(11.0634 -0.797305 0)
(11.1899 -1.006 0)
(11.3023 -1.25978 0)
(11.3777 -1.56525 0)
(9.75738 0.0236599 0)
(9.93276 -0.00994369 0)
(10.0205 -0.0277996 0)
(10.0406 -0.0503253 0)
(10.0596 -0.0769486 0)
(10.0978 -0.107144 0)
(10.1528 -0.142575 0)
(10.2184 -0.18523 0)
(10.2915 -0.23659 0)
(10.3721 -0.298671 0)
(10.4619 -0.373469 0)
(10.561 -0.464805 0)
(10.6688 -0.575904 0)
(10.781 -0.712938 0)
(10.8934 -0.879362 0)
(10.9959 -1.08234 0)
(11.0801 -1.32017 0)
(11.1292 -1.5952 0)
(9.77901 -0.00568106 0)
(9.96839 -0.0307077 0)
(10.0502 -0.0462526 0)
(10.0601 -0.0661544 0)
(10.0742 -0.094157 0)
(10.1115 -0.12957 0)
(10.1659 -0.171286 0)
(10.2284 -0.219587 0)
(10.2951 -0.275761 0)
(10.3655 -0.342312 0)
(10.4412 -0.421686 0)
(10.5219 -0.51766 0)
(10.6076 -0.633018 0)
(10.6941 -0.772495 0)
(10.7782 -0.937735 0)
(10.8505 -1.13306 0)
(10.9055 -1.35477 0)
(10.9288 -1.60354 0)
(9.82931 -0.0131105 0)
(10.0071 -0.0215022 0)
(10.0753 -0.0472549 0)
(10.0754 -0.0767957 0)
(10.0811 -0.110205 0)
(10.109 -0.149152 0)
(10.153 -0.193866 0)
(10.2053 -0.245497 0)
(10.2633 -0.305699 0)
(10.3264 -0.376974 0)
(10.3949 -0.461566 0)
(10.4672 -0.562614 0)
(10.5414 -0.681946 0)
(10.6125 -0.822755 0)
(10.6772 -0.984982 0)
(10.727 -1.17101 0)
(10.7588 -1.3759 0)
(10.7606 -1.60012 0)
(9.91206 -0.0213228 0)
(10.069 -0.0334657 0)
(10.1349 -0.0594298 0)
(10.137 -0.089119 0)
(10.1405 -0.124115 0)
(10.163 -0.166418 0)
(10.1999 -0.216318 0)
(10.243 -0.274123 0)
(10.2886 -0.340513 0)
(10.3365 -0.417245 0)
(10.388 -0.506031 0)
(10.4426 -0.609443 0)
(10.4988 -0.728674 0)
(10.5512 -0.866103 0)
(10.5964 -1.0208 0)
(10.6263 -1.19435 0)
(10.639 -1.38144 0)
(10.6247 -1.58301 0)
(9.85191 -0.00877517 0)
(10.0046 -0.037992 0)
(10.0739 -0.0642456 0)
(10.0854 -0.0965883 0)
(10.1 -0.135724 0)
(10.1315 -0.180381 0)
(10.1739 -0.231149 0)
(10.2199 -0.289064 0)
(10.2662 -0.355689 0)
(10.3123 -0.433659 0)
(10.3587 -0.524862 0)
(10.4041 -0.630973 0)
(10.4469 -0.751664 0)
(10.4825 -0.887716 0)
(10.5087 -1.03703 0)
(10.5193 -1.20058 0)
(10.5141 -1.37305 0)
(10.4853 -1.55597 0)
(9.8277 -0.015669 0)
(9.99796 -0.0467911 0)
(10.0662 -0.0795695 0)
(10.0675 -0.118353 0)
(10.0725 -0.161288 0)
(10.0976 -0.208881 0)
(10.1364 -0.263008 0)
(10.1804 -0.325352 0)
(10.225 -0.396585 0)
(10.268 -0.47763 0)
(10.3088 -0.569092 0)
(10.3454 -0.672146 0)
(10.3761 -0.786538 0)
(10.3972 -0.913181 0)
(10.4074 -1.05003 0)
(10.4022 -1.19802 0)
(10.3823 -1.35183 0)
(10.3418 -1.51343 0)
(9.84134 -0.0258264 0)
(10.0122 -0.0535378 0)
(10.0796 -0.0895295 0)
(10.0784 -0.129021 0)
(10.0794 -0.17538 0)
(10.0989 -0.228849 0)
(10.13 -0.287702 0)
(10.1639 -0.351694 0)
(10.1958 -0.422136 0)
(10.2236 -0.501212 0)
(10.2464 -0.59007 0)
(10.2631 -0.689554 0)
(10.2729 -0.79861 0)
(10.2733 -0.917194 0)
(10.2642 -1.04264 0)
(10.2424 -1.17548 0)
(10.2097 -1.31083 0)
(10.1612 -1.45117 0)
(9.86559 -0.0282949 0)
(10.0169 -0.0637869 0)
(10.0756 -0.100849 0)
(10.0725 -0.144087 0)
(10.0707 -0.193285 0)
(10.083 -0.247685 0)
(10.1024 -0.307328 0)
(10.1224 -0.372679 0)
(10.1404 -0.44385 0)
(10.1552 -0.521203 0)
(10.1657 -0.604948 0)
(10.17 -0.69609 0)
(10.1669 -0.794347 0)
(10.1543 -0.900276 0)
(10.1324 -1.0116 0)
(10.0991 -1.12869 0)
(10.0567 -1.24674 0)
(10.0015 -1.36799 0)
(9.85321 -0.0233172 0)
(10.0117 -0.074239 0)
(10.0708 -0.119082 0)
(10.0623 -0.164082 0)
(10.0523 -0.213039 0)
(10.0561 -0.267316 0)
(10.0667 -0.326591 0)
(10.0756 -0.390728 0)
(10.0797 -0.459576 0)
(10.0785 -0.533015 0)
(10.0725 -0.610551 0)
(10.0611 -0.692419 0)
(10.0436 -0.778176 0)
(10.0179 -0.868554 0)
(9.98383 -0.961959 0)
(9.93964 -1.05931 0)
(9.88675 -1.15639 0)
(9.82315 -1.25584 0)
(9.81952 -0.0257721 0)
(9.96467 -0.0753653 0)
(10.0121 -0.119153 0)
(9.98876 -0.16379 0)
(9.96283 -0.211709 0)
(9.95274 -0.263243 0)
(9.95126 -0.318668 0)
(9.94863 -0.378138 0)
(9.94059 -0.441463 0)
(9.92656 -0.50856 0)
(9.90741 -0.578866 0)
(9.88324 -0.651957 0)
(9.85411 -0.72664 0)
(9.81875 -0.802838 0)
(9.77752 -0.879007 0)
(9.729 -0.956245 0)
(9.67512 -1.0317 0)
(9.61358 -1.10855 0)
(9.84827 -0.0114756 0)
(9.9993 -0.0582606 0)
(10.0408 -0.106364 0)
(10.0117 -0.15841 0)
(9.98085 -0.211718 0)
(9.96169 -0.264681 0)
(9.94745 -0.317273 0)
(9.93102 -0.370154 0)
(9.90917 -0.423913 0)
(9.88128 -0.479023 0)
(9.8483 -0.53528 0)
(9.81076 -0.592562 0)
(9.76925 -0.650256 0)
(9.72325 -0.7088 0)
(9.67375 -0.767461 0)
(9.62002 -0.827333 0)
(9.56396 -0.886233 0)
(9.50321 -0.946324 0)
(9.83663 -0.0137688 0)
(9.98725 -0.0533763 0)
(10.0317 -0.0918228 0)
(10.0012 -0.131626 0)
(9.96266 -0.172218 0)
(9.9332 -0.213061 0)
(9.9088 -0.255096 0)
(9.88301 -0.299524 0)
(9.85254 -0.346261 0)
(9.81686 -0.394402 0)
(9.77702 -0.442985 0)
(9.73394 -0.492019 0)
(9.6882 -0.541449 0)
(9.63947 -0.591793 0)
(9.58813 -0.642052 0)
(9.53359 -0.692382 0)
(9.47673 -0.740478 0)
(9.41602 -0.78755 0)
(9.77465 -0.0130302 0)
(9.92446 -0.0522509 0)
(9.96812 -0.0884283 0)
(9.93924 -0.124886 0)
(9.9054 -0.161999 0)
(9.88205 -0.19993 0)
(9.86313 -0.238862 0)
(9.84086 -0.278456 0)
(9.81147 -0.318048 0)
(9.77472 -0.357272 0)
(9.73241 -0.396063 0)
(9.68626 -0.43493 0)
(9.63709 -0.47403 0)
(9.58466 -0.513643 0)
(9.5289 -0.552752 0)
(9.46953 -0.591291 0)
(9.40714 -0.627405 0)
(9.3415 -0.662206 0)
(9.76906 -0.0087786 0)
(9.91857 -0.0408195 0)
(9.95637 -0.0761117 0)
(9.91852 -0.10889 0)
(9.87835 -0.139342 0)
(9.85102 -0.169417 0)
(9.82789 -0.199622 0)
(9.79957 -0.229717 0)
(9.7622 -0.259878 0)
(9.71669 -0.29077 0)
(9.66629 -0.322829 0)
(9.61363 -0.356121 0)
(9.55983 -0.389959 0)
(9.50436 -0.42368 0)
(9.44694 -0.456066 0)
(9.38681 -0.487156 0)
(9.32479 -0.515877 0)
(9.26015 -0.543742 0)
(9.8007 -0.00719111 0)
(9.94429 -0.0337258 0)
(9.98343 -0.0623586 0)
(9.95312 -0.093636 0)
(9.91722 -0.125684 0)
(9.88918 -0.155391 0)
(9.86373 -0.180492 0)
(9.83539 -0.201911 0)
(9.80205 -0.222729 0)
(9.76364 -0.245689 0)
(9.72096 -0.27163 0)
(9.67436 -0.299816 0)
(9.62386 -0.328494 0)
(9.56903 -0.356259 0)
(9.5104 -0.381809 0)
(9.44816 -0.405476 0)
(9.38381 -0.426805 0)
(9.31706 -0.44768 0)
(9.74677 0.00960685 0)
(9.91025 -0.0276884 0)
(9.96477 -0.0598179 0)
(9.94196 -0.0849217 0)
(9.90651 -0.106104 0)
(9.87454 -0.126283 0)
(9.84446 -0.146211 0)
(9.81321 -0.16595 0)
(9.77917 -0.185761 0)
(9.74142 -0.205971 0)
(9.69918 -0.22654 0)
(9.65153 -0.247202 0)
(9.59814 -0.267384 0)
(9.53934 -0.286809 0)
(9.47684 -0.305047 0)
(9.41214 -0.322534 0)
(9.3471 -0.338918 0)
(9.282 -0.355352 0)
(9.78976 -0.0194333 0)
(9.94365 -0.0470637 0)
(9.98998 -0.0644756 0)
(9.96168 -0.0802326 0)
(9.92342 -0.0969903 0)
(9.89204 -0.113909 0)
(9.86449 -0.13028 0)
(9.83462 -0.146336 0)
(9.7988 -0.162221 0)
(9.75638 -0.177601 0)
(9.70828 -0.192006 0)
(9.65565 -0.205469 0)
(9.59955 -0.218391 0)
(9.54074 -0.231522 0)
(9.48043 -0.245128 0)
(9.419 -0.259488 0)
(9.3573 -0.273906 0)
(9.29452 -0.288524 0)
(9.78174 0.0122766 0)
(9.95635 -0.0283195 0)
(10.0134 -0.0488884 0)
(9.98666 -0.0620642 0)
(9.94881 -0.0750313 0)
(9.91939 -0.0885485 0)
(9.89341 -0.101671 0)
(9.86267 -0.113717 0)
(9.82349 -0.124634 0)
(9.77691 -0.134828 0)
(9.726 -0.144807 0)
(9.67316 -0.15507 0)
(9.61921 -0.165795 0)
(9.56369 -0.177056 0)
(9.506 -0.188412 0)
(9.44544 -0.199649 0)
(9.38207 -0.21003 0)
(9.31553 -0.219706 0)
(9.84174 -0.0430406 0)
(10.0104 -0.0507117 0)
(10.06 -0.0625765 0)
(10.0212 -0.0711686 0)
(9.97251 -0.0790835 0)
(9.93623 -0.0871856 0)
(9.90643 -0.094572 0)
(9.87374 -0.101097 0)
(9.83409 -0.107379 0)
(9.788 -0.114075 0)
(9.73738 -0.121337 0)
(9.68311 -0.128851 0)
(9.62502 -0.136088 0)
(9.56251 -0.142763 0)
(9.49569 -0.148679 0)
(9.42519 -0.154106 0)
(9.3524 -0.158977 0)
(9.27841 -0.163935 0)
(9.76988 -0.0118328 0)
(9.94119 -0.0236278 0)
(10.0002 -0.0331643 0)
(9.97604 -0.041816 0)
(9.93942 -0.0507348 0)
(9.91047 -0.059261 0)
(9.88464 -0.0659008 0)
(9.85438 -0.0705999 0)
(9.81662 -0.0742563 0)
(9.77216 -0.0776232 0)
(9.72314 -0.0808612 0)
(9.67103 -0.0838284 0)
(9.61658 -0.0863662 0)
(9.55986 -0.088618 0)
(9.50137 -0.0908029 0)
(9.44092 -0.0934054 0)
(9.37916 -0.0965167 0)
(9.31532 -0.100667 0)
(9.75154 -0.0470921 0)
(9.93918 -0.0552154 0)
(10.0214 -0.0561209 0)
(10.0145 -0.0601872 0)
(9.98079 -0.063745 0)
(9.94247 -0.0655335 0)
(9.90281 -0.0661187 0)
(9.86003 -0.0662346 0)
(9.81227 -0.0665028 0)
(9.75888 -0.0672798 0)
(9.70049 -0.0685314 0)
(9.63829 -0.0700255 0)
(9.5736 -0.071376 0)
(9.50746 -0.072364 0)
(9.44083 -0.0727033 0)
(9.37394 -0.0725652 0)
(9.30685 -0.0719474 0)
(9.2391 -0.0714154 0)
(9.68689 -0.0348021 0)
(9.67702 -0.044026 0)
(9.55994 -0.0446012 0)
(9.36904 -0.0418812 0)
(9.18047 -0.0378511 0)
(9.0159 -0.034836 0)
(8.87008 -0.0334421 0)
(8.73369 -0.0326329 0)
(8.6022 -0.0312934 0)
(8.47566 -0.0291591 0)
(8.35542 -0.0266745 0)
(8.24189 -0.0244571 0)
(8.13414 -0.0228226 0)
(8.03138 -0.0217526 0)
(7.93308 -0.0209468 0)
(7.84013 -0.0202864 0)
(7.75143 -0.0196471 0)
(7.66866 -0.0193375 0)
(0.018025 -0.0452314 7.20629e-20)
(0.0698374 -0.0587632 -7.15801e-20)
(0.128582 -0.0587507 0)
(0.185771 -0.0587653 0)
(0.244141 -0.059377 0)
(0.30362 -0.0602718 6.95644e-20)
(0.364609 -0.061324 0)
(0.427202 -0.0625265 0)
(0.491609 -0.063831 0)
(0.557965 -0.0652417 0)
(0.626321 -0.0667191 -6.71163e-20)
(0.69682 -0.06824 0)
(0.769482 -0.0697645 0)
(0.844343 -0.0712624 0)
(0.92141 -0.0727138 0)
(1.00061 -0.0740828 -6.47275e-20)
(1.08187 -0.0753428 0)
(1.1651 -0.0764682 0)
(1.25017 -0.0774373 0)
(1.3369 -0.0782314 0)
(1.42513 -0.0788357 0)
(1.51466 -0.0792388 0)
(1.60526 -0.0794335 0)
(1.69671 -0.0794161 -6.09622e-20)
(1.78878 -0.0791868 6.04926e-20)
(1.88121 -0.0787488 -6.00229e-20)
(1.97378 -0.0781086 -5.9553e-20)
(2.06624 -0.0772752 0)
(2.15837 -0.0762598 0)
(2.24993 -0.0750753 5.81419e-20)
(2.34073 -0.0737361 5.76711e-20)
(2.43055 -0.0722574 0)
(2.51922 -0.070655 0)
(2.60657 -0.0689449 5.62581e-20)
(2.69245 -0.067143 0)
(2.77671 -0.0652648 0)
(2.85923 -0.0633253 -5.48459e-20)
(2.93992 -0.0613387 0)
(3.01869 -0.0593185 -5.39063e-20)
(3.09546 -0.057277 -1.06875e-19)
(3.17017 -0.0552257 0)
(3.24277 -0.053175 0)
(3.31324 -0.0511341 0)
(3.38154 -0.0491115 0)
(3.44768 -0.0471143 0)
(3.51164 -0.045149 -1.01289e-19)
(3.57344 -0.043221 -1.00367e-19)
(3.63308 -0.0413349 -9.94484e-20)
(3.69059 -0.0394945 0)
(3.746 -0.037703 9.76208e-20)
(3.79933 -0.0359628 0)
(3.85063 -0.0342757 -9.58079e-20)
(3.89993 -0.0326432 -9.49074e-20)
(3.94727 -0.0310661 0)
(3.99271 -0.0295449 0)
(4.03629 -0.0280797 0)
(4.07806 -0.0266703 -9.13473e-20)
(4.11807 -0.0253161 0)
(4.15637 -0.0240167 0)
(4.19301 -0.0227709 0)
(4.22805 -0.0215778 0)
(4.26154 -0.0204362 0)
(4.29353 -0.0193448 0)
(4.32407 -0.0183023 0)
(4.35321 -0.0173071 0)
(4.38101 -0.0163579 8.361e-20)
(4.40751 -0.0154531 0)
(4.43276 -0.0145912 0)
(4.4568 -0.0137707 -8.11206e-20)
(4.47969 -0.01299 -8.03011e-20)
(4.50147 -0.0122477 0)
(4.52218 -0.0115421 7.86777e-20)
(4.54187 -0.0108719 -7.78737e-20)
(4.56058 -0.0102355 0)
(4.57835 -0.00963171 7.62813e-20)
(4.59521 -0.00905893 0)
(4.61121 -0.00851592 0)
(4.62639 -0.00800131 -7.39317e-20)
(4.64077 -0.0075139 0)
(4.65439 -0.00705238 7.23911e-20)
(4.6673 -0.00661564 0)
(4.67951 -0.00620246 -7.08711e-20)
(4.69106 -0.00581181 -7.01188e-20)
(4.70198 -0.00544251 -6.93716e-20)
(4.71229 -0.00509362 -1.37259e-19)
(4.72204 -0.00476409 1.35785e-19)
(4.73124 -0.00445301 0)
(4.73991 -0.00415935 0)
(4.74809 -0.00388235 0)
(4.75579 -0.00362099 1.29988e-19)
(4.76305 -0.0033745 1.28564e-19)
(4.76987 -0.00314183 -1.27149e-19)
(4.77629 -0.0029215 0)
(4.78232 -0.00271176 1.2435e-19)
(4.78797 -0.00251093 1.22964e-19)
(4.79327 -0.0023167 1.21589e-19)
(4.79822 -0.00212835 0)
(4.80284 -0.00194766 0)
(4.80714 -0.00177369 0)
(4.81114 -0.00160261 1.1618e-19)
(4.81483 -0.00143833 0)
(4.81824 -0.00129149 0)
(4.82138 -0.0011658 -1.12221e-19)
(4.8243 -0.00105846 0)
(4.827 -0.000965543 0)
(4.8295 -0.00088326 -1.08344e-19)
(4.83182 -0.000808585 0)
(4.83397 -0.000739709 0)
(4.83596 -0.000675525 1.04546e-19)
(4.8378 -0.00061555 1.03298e-19)
(4.83949 -0.000559389 0)
(4.84105 -0.000506885 -1.00827e-19)
(4.84249 -0.00045778 0)
(4.8438 -0.000411957 9.839e-20)
(4.845 -0.000369184 0)
(4.8461 -0.000329325 9.59863e-20)
(4.8471 -0.000292187 9.47967e-20)
(4.848 -0.000257622 0)
(4.84882 -0.000225503 0)
(4.84956 -0.000195678 0)
(4.85021 -0.000168007 0)
(4.8508 -0.000142329 0)
(4.85131 -0.000118466 0)
(4.85177 -9.63335e-05 0)
(4.85216 -7.57851e-05 8.55664e-20)
(4.8525 -5.68041e-05 -8.44474e-20)
(4.85278 -3.92288e-05 0)
(4.85301 -2.30221e-05 0)
(4.8532 -8.01805e-06 0)
(4.85335 5.81135e-06 0)
(4.85345 1.86071e-05 -1.57927e-19)
(4.85351 3.0385e-05 0)
(4.85354 4.12783e-05 1.53641e-19)
(4.85354 5.12983e-05 -1.51519e-19)
(4.8535 6.05683e-05 0)
(4.85343 6.91081e-05 0)
(4.85334 7.70185e-05 0)
(4.85322 8.43303e-05 1.43169e-19)
(4.85307 9.10797e-05 1.41116e-19)
(4.8529 9.73235e-05 0)
(4.85271 0.000103074 1.37048e-19)
(4.8525 0.000108443 1.35033e-19)
(4.85226 0.000113464 -1.33032e-19)
(4.85201 0.000118235 0)
(4.85174 0.000122775 0)
(4.85145 0.000127162 -1.27103e-19)
(4.85114 0.000131422 0)
(4.85081 0.000135648 0)
(4.85047 0.000139894 0)
(4.85011 0.000144266 0)
(4.84973 0.000148844 1.17467e-19)
(4.84932 0.000153764 1.15575e-19)
(4.8489 0.000159162 0)
(4.84845 0.000165227 1.11826e-19)
(4.84798 0.000172172 0)
(4.84747 0.000180284 0)
(4.84693 0.000189906 1.06287e-19)
(4.84634 0.000201489 0)
(4.8457 0.000215582 1.0265e-19)
(4.845 0.000232907 0)
(4.84422 0.000254372 0)
(4.84335 0.000281164 9.72752e-20)
(4.84236 0.000314807 0)
(4.84121 0.000357308 9.37449e-20)
(4.83987 0.00041128 0)
(4.83828 0.000480243 0)
(4.83638 0.000568818 0)
(4.83406 0.000683473 -8.68104e-20)
(4.83121 0.000832881 0)
(4.82763 0.00102896 8.34077e-20)
(4.82314 0.00129343 0)
(4.81731 0.00163199 0)
(4.80983 0.00216888 0)
(4.79962 0.00266674 0)
(4.78643 0.00420453 0)
(4.76611 0.00418273 0)
(4.74156 0.0106794 0)
(4.68861 0.00662626 -1.40767e-19)
(4.63962 0.0424371 0)
(4.44392 0.0400394 0)
(0.0170258 -0.137859 -2.16226e-19)
(0.0706676 -0.181905 2.14778e-19)
(0.129727 -0.182005 0)
(0.187695 -0.181973 -1.41151e-19)
(0.246772 -0.183812 0)
(0.307053 -0.186538 -6.9582e-20)
(0.368914 -0.189794 1.3816e-19)
(0.432484 -0.193489 1.37176e-19)
(0.497981 -0.197538 0)
(0.565518 -0.201892 1.35226e-19)
(0.635197 -0.206469 6.71328e-20)
(0.707161 -0.211156 0)
(0.78144 -0.215865 0)
(0.858028 -0.220495 0)
(0.936943 -0.224973 0)
(1.01812 -0.229189 6.47425e-20)
(1.10147 -0.23307 0)
(1.18689 -0.236528 -1.27599e-19)
(1.27422 -0.239502 0)
(1.36329 -0.241934 0)
(1.45392 -0.243779 1.24777e-19)
(1.54587 -0.245003 0)
(1.63893 -0.245585 -1.22899e-19)
(1.73285 -0.245515 6.09746e-20)
(1.82738 -0.244793 -6.05047e-20)
(1.92227 -0.243431 6.00347e-20)
(2.01727 -0.24145 5.95645e-20)
(2.11213 -0.238878 0)
(2.20661 -0.235749 0)
(2.30049 -0.232104 -5.81524e-20)
(2.39356 -0.227987 5.76936e-20)
(2.4856 -0.223444 0)
(2.57643 -0.218525 0)
(2.66589 -0.213277 -5.62674e-20)
(2.75382 -0.20775 0)
(2.84008 -0.20199 0)
(2.92456 -0.196044 5.48544e-20)
(3.00715 -0.189953 0)
(3.08777 -0.18376 -5.39236e-20)
(3.16635 -0.1775 1.0689e-19)
(3.24282 -0.17121 0)
(3.31714 -0.164921 0)
(3.38929 -0.15866 2.08187e-19)
(3.45924 -0.152454 2.06326e-19)
(3.52698 -0.146323 2.04469e-19)
(3.5925 -0.140288 -1.01315e-19)
(3.65583 -0.134365 1.0038e-19)
(3.71697 -0.128568 2.98394e-19)
(3.77595 -0.122908 -1.97101e-19)
(3.83279 -0.117396 -9.76328e-20)
(3.88752 -0.112039 0)
(3.94019 -0.106843 9.58193e-20)
(3.99083 -0.101812 -9.49264e-20)
(4.03949 -0.0969483 0)
(4.08621 -0.0922545 0)
(4.13104 -0.0877306 0)
(4.17403 -0.0833764 9.13575e-20)
(4.21523 -0.0791904 0)
(4.2547 -0.0751709 -1.79213e-19)
(4.29248 -0.0713152 0)
(4.32863 -0.0676203 -1.75743e-19)
(4.3632 -0.0640828 0)
(4.39624 -0.0606989 1.72312e-19)
(4.4278 -0.0574645 0)
(4.45795 -0.0543755 -1.68921e-19)
(4.48671 -0.0514275 8.36217e-20)
(4.51416 -0.0486159 0)
(4.54032 -0.0459362 1.6391e-19)
(4.56526 -0.0433838 8.11287e-20)
(4.58902 -0.0409541 8.0309e-20)
(4.61164 -0.0386426 0)
(4.63318 -0.0364447 7.86874e-20)
(4.65366 -0.0343561 7.78812e-20)
(4.67315 -0.0323721 0)
(4.69166 -0.0304888 -7.62886e-20)
(4.70926 -0.0287016 1.51002e-19)
(4.72597 -0.0270067 0)
(4.74183 -0.0254 7.39387e-20)
(4.75688 -0.0238776 0)
(4.77116 -0.0224358 -2.17195e-19)
(4.78469 -0.021071 0)
(4.79752 -0.0197795 2.12634e-19)
(4.80966 -0.0185582 7.01253e-20)
(4.82116 -0.0174035 -6.93789e-20)
(4.83205 -0.0163125 -1.37273e-19)
(4.84234 -0.015282 1.35799e-19)
(4.85207 -0.0143092 0)
(4.86127 -0.0133911 0)
(4.86996 -0.0125251 0)
(4.87816 -0.0117086 -3.90002e-19)
(4.88589 -0.0109389 -1.28576e-19)
(4.89319 -0.0102134 1.27161e-19)
(4.90007 -0.00952947 0)
(4.90655 -0.00888445 1.24362e-19)
(4.91266 -0.00827602 -1.22976e-19)
(4.91843 -0.0077016 -1.216e-19)
(4.92386 -0.00715892 0)
(4.929 -0.00664738 0)
(4.93385 -0.00616553 0)
(4.93844 -0.0057105 -1.16191e-19)
(4.94279 -0.00528217 0)
(4.9469 -0.00488278 2.27085e-19)
(4.9508 -0.0045128 3.36695e-19)
(4.95447 -0.004172 -2.21861e-19)
(4.95793 -0.00385748 0)
(4.96117 -0.00356604 -1.08354e-19)
(4.96421 -0.00329503 0)
(4.96705 -0.00304262 -2.11627e-19)
(4.96971 -0.00280724 1.04557e-19)
(4.9722 -0.00258782 1.03308e-19)
(4.97452 -0.00238325 0)
(4.97669 -0.00219269 3.02511e-19)
(4.97872 -0.00201519 -1.99228e-19)
(4.98061 -0.00185003 -9.83997e-20)
(4.98237 -0.00169636 0)
(4.98401 -0.0015535 -9.59957e-20)
(4.98553 -0.00142073 -2.84418e-19)
(4.98696 -0.00129744 0)
(4.98828 -0.00118307 -1.84902e-19)
(4.98951 -0.00107705 -1.82571e-19)
(4.99065 -0.000978805 -1.80256e-19)
(4.99171 -0.000887774 0)
(4.99269 -0.000803367 0)
(4.99361 -0.000725197 0)
(4.99446 -0.000652825 8.5575e-20)
(4.99524 -0.000586017 8.44559e-20)
(4.99597 -0.000524308 0)
(4.99664 -0.00046743 1.6448e-19)
(4.99726 -0.000414908 1.62287e-19)
(4.99784 -0.000366537 0)
(4.99837 -0.000321906 1.57943e-19)
(4.99886 -0.000280856 3.11586e-19)
(4.99932 -0.000243009 -1.53657e-19)
(4.99974 -0.00020823 -1.51535e-19)
(5.00012 -0.000176171 0)
(5.00048 -0.000146698 0)
(5.00081 -0.000119518 0)
(5.00111 -9.44999e-05 -1.43184e-19)
(5.00139 -7.14845e-05 1.4113e-19)
(5.00165 -5.03115e-05 2.78179e-19)
(5.00188 -3.08524e-05 -1.37062e-19)
(5.0021 -1.28353e-05 1.35048e-19)
(5.0023 3.9126e-06 1.33046e-19)
(5.00248 1.96445e-05 0)
(5.00264 3.44671e-05 0)
(5.00279 4.85889e-05 -1.27117e-19)
(5.00293 6.21368e-05 0)
(5.00305 7.5362e-05 0)
(5.00316 8.84555e-05 2.42596e-19)
(5.00325 0.000101716 0)
(5.00333 0.000115403 1.17479e-19)
(5.00339 0.000129906 -1.15587e-19)
(5.00344 0.00014562 0)
(5.00347 0.000163091 1.11838e-19)
(5.00348 0.000182934 0)
(5.00347 0.000205965 0)
(5.00342 0.000233156 -1.06299e-19)
(5.00335 0.000265778 2.08949e-19)
(5.00323 0.000305393 -1.02662e-19)
(5.00306 0.000354035 0)
(5.00283 0.000414267 0)
(5.00253 0.000489429 9.72857e-20)
(5.00212 0.000583804 0)
(5.00158 0.00070301 9.37548e-20)
(5.00089 0.000854402 0)
(4.99998 0.00104768 0)
(4.99881 0.00129606 0)
(4.99728 0.00161659 8.68202e-20)
(4.99531 0.00203543 0)
(4.9927 0.00258076 -8.34172e-20)
(4.98936 0.00331911 0)
(4.98478 0.00426674 0)
(4.97905 0.00569826 1.56799e-19)
(4.97054 0.00730038 -1.53508e-19)
(4.96049 0.0107402 0)
(4.94342 0.0129627 0)
(4.92415 0.0245461 0)
(4.88886 0.0271471 4.22267e-19)
(4.84909 0.0826877 0)
(4.80676 0.10641 -2.69401e-19)
(0.0162865 -0.228107 2.90837e-23)
(0.0684007 -0.302149 -2.86377e-19)
(0.12566 -0.302027 0)
(0.181871 -0.302069 2.82322e-19)
(0.239345 -0.305324 0)
(0.298139 -0.310103 0)
(0.358691 -0.31582 -2.11769e-23)
(0.421156 -0.322308 -1.37199e-19)
(0.485747 -0.329427 -1.36205e-19)
(0.552583 -0.337072 -1.35249e-19)
(0.621834 -0.345065 0)
(0.693643 -0.353273 0)
(0.767997 -0.361517 1.32356e-19)
(0.844897 -0.36961 2.62808e-19)
(0.924359 -0.377419 -2.60912e-19)
(1.0063 -0.384756 0)
(1.09061 -0.391493 -2.57136e-19)
(1.17716 -0.397487 1.27618e-19)
(1.26574 -0.402624 0)
(1.35618 -0.406809 -2.51496e-19)
(1.44824 -0.409968 -1.24795e-19)
(1.54168 -0.412047 2.47743e-19)
(1.63624 -0.413013 1.22915e-19)
(1.73164 -0.412853 0)
(1.82761 -0.411574 -2.42112e-19)
(1.92389 -0.409201 -2.40232e-19)
(2.0202 -0.405772 0)
(2.11628 -0.40134 -2.36469e-19)
(2.21188 -0.395969 0)
(2.30677 -0.389729 -2.327e-19)
(2.40072 -0.3827 -1.15386e-19)
(2.49354 -0.374961 0)
(2.58503 -0.366597 0)
(2.67504 -0.357691 0)
(2.76341 -0.348327 0)
(2.85002 -0.338585 0)
(2.93474 -0.32854 0)
(3.0175 -0.318266 -2.17604e-19)
(3.0982 -0.307831 3.23567e-19)
(3.17678 -0.297297 0)
(3.25321 -0.286721 0)
(3.32743 -0.276155 0)
(3.39942 -0.265647 2.51449e-23)
(3.46918 -0.255236 -2.06336e-19)
(3.53669 -0.244959 -4.0898e-19)
(3.60197 -0.234849 4.05275e-19)
(3.66503 -0.22493 2.00801e-19)
(3.72588 -0.215227 -1.98942e-19)
(3.78456 -0.205758 -1.74556e-23)
(3.8411 -0.196539 -1.95299e-19)
(3.89552 -0.18758 0)
(3.94788 -0.178893 -1.91668e-19)
(3.99821 -0.170483 -1.3473e-23)
(4.04656 -0.162355 0)
(4.09298 -0.15451 0)
(4.13752 -0.146951 1.84505e-19)
(4.18023 -0.139674 0)
(4.22116 -0.13268 0)
(4.26036 -0.125963 -1.79235e-19)
(4.29789 -0.11952 -3.54971e-19)
(4.33379 -0.113345 1.75747e-19)
(4.36813 -0.107433 0)
(4.40095 -0.101776 -1.72315e-19)
(4.4323 -0.09637 0)
(4.46224 -0.0912059 -1.68935e-19)
(4.49082 -0.0862769 -1.67243e-19)
(4.51809 -0.0815755 3.31155e-19)
(4.54408 -0.0770941 1.63922e-19)
(4.56886 -0.0728251 0)
(4.59247 -0.0687608 -3.21253e-19)
(4.61496 -0.0648937 0)
(4.63636 -0.0612162 -4.7213e-19)
(4.65672 -0.057721 -3.11538e-19)
(4.67608 -0.0544007 -3.08342e-19)
(4.69449 -0.0512483 3.05166e-19)
(4.71199 -0.0482566 -4.53014e-19)
(4.7286 -0.045419 0)
(4.74437 -0.0427287 0)
(4.75934 -0.0401794 2.92671e-19)
(4.77354 -0.0377649 4.34397e-19)
(4.787 -0.035479 0)
(4.79976 -0.0333159 -1.41757e-19)
(4.81184 -0.03127 0)
(4.82329 -0.0293358 4.16275e-19)
(4.83411 -0.0275081 -2.87606e-24)
(4.84436 -0.0257818 2.66708e-24)
(4.85404 -0.024152 -2.6867e-19)
(4.8632 -0.0226141 0)
(4.87185 -0.0211636 2.62873e-19)
(4.88001 -0.0197961 -1.96253e-24)
(4.88771 -0.0185075 0)
(4.89498 -0.017294 0)
(4.90183 -0.0161518 0)
(4.90829 -0.0150784 -2.48723e-19)
(4.91437 -0.0140704 0)
(4.92009 -0.0131248 0)
(4.92548 -0.012238 0)
(4.93054 -0.0114061 0)
(4.93531 -0.0106259 0)
(4.93979 -0.00989587 -2.32383e-19)
(4.944 -0.00921285 0)
(4.94796 -0.00857113 -2.27085e-19)
(4.95167 -0.00796709 -2.24464e-19)
(4.95515 -0.00739827 2.21861e-19)
(4.95841 -0.00686329 0)
(4.96147 -0.00636116 2.16709e-19)
(4.96433 -0.00589092 0)
(4.96701 -0.00545127 2.11628e-19)
(4.96952 -0.00504079 -2.09114e-19)
(4.97186 -0.00465784 -6.19851e-19)
(4.97405 -0.00430086 0)
(4.97609 -0.00396824 -6.05024e-19)
(4.978 -0.00365853 -1.99229e-19)
(4.97978 -0.00337028 0)
(4.98144 -0.00310217 -3.88776e-19)
(4.98298 -0.00285292 -3.83984e-19)
(4.98442 -0.00262134 5.68838e-19)
(4.98576 -0.00240635 0)
(4.98701 -0.00220695 1.84902e-19)
(4.98817 -0.00202211 1.82571e-19)
(4.98925 -0.00185081 5.40769e-19)
(4.99025 -0.00169203 0)
(4.99118 -0.00154489 0)
(4.99204 -0.00140862 0)
(4.99285 -0.0012826 1.71151e-19)
(4.99359 -0.00116623 0)
(4.99428 -0.00105883 0)
(4.99492 -0.000959787 -1.64481e-19)
(4.99551 -0.000868443 -1.62287e-19)
(4.99605 -0.00078427 0)
(4.99656 -0.000706724 0)
(4.99703 -0.000635355 -3.11587e-19)
(4.99746 -0.000569661 0)
(4.99786 -0.000509248 3.0307e-19)
(4.99823 -0.000453661 2.98854e-19)
(4.99857 -0.000402534 0)
(4.99888 -0.000355483 0)
(4.99918 -0.000312231 -2.86369e-19)
(4.99944 -0.000272506 -1.80863e-26)
(4.99969 -0.000236041 -2.41425e-26)
(4.99992 -0.000202519 0)
(5.00012 -0.000171538 -5.40192e-19)
(5.00032 -0.000142752 0)
(5.00049 -0.000115817 0)
(5.00065 -9.049e-05 0)
(5.0008 -6.64791e-05 2.54234e-19)
(5.00093 -4.35181e-05 0)
(5.00105 -2.12402e-05 -4.92903e-19)
(5.00116 7.02925e-07 -2.42597e-19)
(5.00125 2.27605e-05 0)
(5.00133 4.53964e-05 -2.34959e-19)
(5.00139 6.9212e-05 0)
(5.00144 9.48746e-05 0)
(5.00147 0.000123248 -6.7103e-19)
(5.00148 0.000155343 4.39923e-19)
(5.00147 0.000192454 0)
(5.00143 0.000236155 4.25197e-19)
(5.00135 0.000288469 -2.0895e-19)
(5.00123 0.000351911 0)
(5.00106 0.00042972 0)
(5.00083 0.000526006 0)
(5.00052 0.000646076 -5.83716e-19)
(5.0001 0.000796778 0)
(4.99956 0.000987021 -1.87511e-19)
(4.99885 0.00122854 0)
(4.99793 0.0015366 0)
(4.99673 0.00193234 0)
(4.99517 0.00244201 0)
(4.99315 0.0031082 0)
(4.9905 0.00397176 0)
(4.98708 0.00514096 -3.26921e-19)
(4.98245 0.0066432 0)
(4.97656 0.00885284 -1.56799e-19)
(4.96813 0.011544 4.60508e-19)
(4.95771 0.0163321 0)
(4.94156 0.0215025 0)
(4.92226 0.0346362 -2.87655e-19)
(4.89177 0.0477616 -2.81486e-19)
(4.85781 0.0938295 2.75214e-19)
(4.81456 0.138739 2.69412e-19)
(0.0149138 -0.314394 4.32404e-19)
(0.0646874 -0.41813 4.29511e-19)
(0.119264 -0.417804 2.84281e-19)
(0.172803 -0.418164 1.41094e-19)
(0.227866 -0.423214 0)
(0.28444 -0.430494 -2.7828e-19)
(0.343012 -0.439171 1.38124e-19)
(0.403834 -0.448984 0)
(0.467125 -0.45977 1.36228e-19)
(0.533063 -0.471321 0)
(0.601787 -0.483373 -2.68554e-19)
(0.673418 -0.495733 0)
(0.748083 -0.50812 -1.32378e-19)
(0.82567 -0.52027 -2.62853e-19)
(0.906184 -0.531914 2.60955e-19)
(0.989528 -0.542875 0)
(1.07553 -0.552865 2.57177e-19)
(1.16403 -0.561735 0)
(1.25479 -0.569297 0)
(1.34755 -0.57542 2.51534e-19)
(1.44203 -0.579998 0)
(1.53794 -0.582964 4.66798e-23)
(1.63498 -0.58428 0)
(1.73282 -0.583939 0)
(1.83117 -0.58196 -5.60015e-23)
(1.9297 -0.578389 2.40263e-19)
(2.02812 -0.573295 2.38439e-19)
(2.12616 -0.566761 2.36497e-19)
(2.22354 -0.558888 0)
(2.32003 -0.549786 4.6551e-19)
(2.41539 -0.539574 0)
(2.50942 -0.528372 2.29006e-19)
(2.60194 -0.516305 0)
(2.69279 -0.503495 0)
(2.78183 -0.490061 -2.23334e-19)
(2.86894 -0.476119 0)
(2.95401 -0.461779 2.19554e-19)
(3.03697 -0.447141 -4.5787e-23)
(3.11776 -0.432302 -4.31518e-19)
(3.19631 -0.417349 4.27797e-19)
(3.27259 -0.402361 0)
(3.34659 -0.387409 0)
(3.41828 -0.372558 2.08307e-19)
(3.48767 -0.357864 0)
(3.55476 -0.343375 2.04513e-19)
(3.61957 -0.329134 -2.02659e-19)
(3.68212 -0.315177 -2.00811e-19)
(3.74244 -0.301534 0)
(3.80057 -0.288229 1.97135e-19)
(3.85653 -0.275283 1.95307e-19)
(3.91037 -0.262712 -3.87018e-19)
(3.96215 -0.250527 1.91675e-19)
(4.01189 -0.238735 1.89871e-19)
(4.05966 -0.227344 0)
(4.10551 -0.216354 0)
(4.14948 -0.205765 -1.8451e-19)
(4.19164 -0.195577 0)
(4.23202 -0.185784 0)
(4.2707 -0.176382 3.58461e-19)
(4.30771 -0.167365 3.54979e-19)
(4.34312 -0.158724 0)
(4.37698 -0.150451 0)
(4.40934 -0.142537 0)
(4.44025 -0.134973 0)
(4.46977 -0.127748 3.37864e-19)
(4.49794 -0.120851 -3.34518e-19)