/*--------------------------------*- C++ -*----------------------------------*\
| =========                 |                                                 |
| \\      /  F ield         | OpenFOAM: The Open Source CFD Toolbox           |
|  \\    /   O peration     | Version:  2112                                  |
|   \\  /    A nd           | Website:  www.openfoam.com                      |
|    \\/     M anipulation  |                                                 |
\*---------------------------------------------------------------------------*/
FoamFile
{
    version     2.0;
    format      ascii;
    arch        "LSB;label=32;scalar=64";
    class       volScalarField;
    location    "0.27";
    object      kU;
}
// * * * * * * * * * * * * * * * * * * * * * * * * * * * * * * * * * * * * * //

dimensions      [0 2 -2 0 0 0 0];

internalField   nonuniform List<scalar> 
12225
(
0.624352
0.89084
1.03648
1.09955
1.11379
1.10165
1.07634
1.04525
1.01233
0.979605
0.947944
0.917576
0.888347
0.85986
0.831533
0.802588
0.772155
0.738664
0.280314
0.294106
0.29975
0.300631
0.299188
0.296838
0.294654
0.293409
0.293538
0.295266
0.298714
0.303969
0.311129
0.32034
0.331839
0.345987
0.363425
0.385124
0.263453
0.263224
0.258521
0.250793
0.241501
0.231527
0.221474
0.211778
0.202733
0.194524
0.187261
0.181013
0.175832
0.171785
0.168984
0.167618
0.16804
0.170806
0.260785
0.258455
0.255106
0.250643
0.24536
0.239577
0.233527
0.227379
0.221254
0.215237
0.209383
0.203722
0.198266
0.193015
0.187967
0.18312
0.178496
0.17418
0.260372
0.257962
0.255222
0.252097
0.248614
0.244857
0.24092
0.236882
0.232806
0.228735
0.224699
0.220715
0.216789
0.212913
0.209074
0.205246
0.201395
0.197511
0.260311
0.258002
0.2556
0.253058
0.250378
0.247583
0.244705
0.241775
0.23882
0.235863
0.23292
0.230001
0.227111
0.224249
0.22141
0.218582
0.215749
0.21291
0.260309
0.258071
0.255849
0.253611
0.251344
0.249049
0.246733
0.244406
0.242079
0.239762
0.237465
0.235193
0.232951
0.230741
0.228564
0.226419
0.224302
0.22223
0.260312
0.25811
0.25598
0.253899
0.251851
0.249828
0.247825
0.245844
0.243886
0.241955
0.240054
0.238186
0.236356
0.234566
0.232819
0.231119
0.22947
0.227893
0.260312
0.258125
0.256037
0.254032
0.252095
0.250217
0.248389
0.246607
0.244868
0.243171
0.241516
0.239905
0.238339
0.236822
0.235356
0.233948
0.232604
0.231344
0.260311
0.258129
0.256057
0.254084
0.252199
0.250392
0.248656
0.246983
0.245369
0.243811
0.242306
0.240854
0.239456
0.238113
0.23683
0.23561
0.234462
0.233403
0.26031
0.258128
0.256062
0.254101
0.252237
0.250462
0.248769
0.247151
0.245603
0.24412
0.242701
0.241342
0.240045
0.23881
0.237639
0.236536
0.235508
0.234569
0.260309
0.258127
0.256061
0.254104
0.252247
0.250484
0.248808
0.247213
0.245694
0.244246
0.242867
0.241555
0.240308
0.239128
0.238015
0.236973
0.236006
0.235126
0.260308
0.258125
0.256059
0.254103
0.252249
0.250491
0.248822
0.247238
0.245733
0.244303
0.242945
0.241657
0.240439
0.239289
0.238208
0.237198
0.236263
0.235413
0.260307
0.258123
0.256057
0.254101
0.252249
0.250492
0.248827
0.247248
0.245749
0.244328
0.242982
0.241707
0.240502
0.239368
0.238302
0.237307
0.236384
0.235543
0.260306
0.258122
0.256055
0.254099
0.252247
0.250492
0.248829
0.247252
0.245757
0.244341
0.242999
0.24173
0.240532
0.239403
0.238342
0.237349
0.236425
0.235578
0.260305
0.25812
0.256053
0.254098
0.252246
0.250492
0.24883
0.247255
0.245763
0.244349
0.243011
0.241745
0.240549
0.23942
0.238358
0.237361
0.236429
0.235569
0.260304
0.258119
0.256052
0.254096
0.252244
0.250492
0.248831
0.247258
0.245768
0.244357
0.243021
0.241757
0.240561
0.239432
0.238366
0.237363
0.23642
0.235545
0.260304
0.258117
0.25605
0.254094
0.252244
0.250492
0.248833
0.247262
0.245775
0.244365
0.243031
0.241767
0.240571
0.23944
0.23837
0.237358
0.236404
0.235515
0.260303
0.258116
0.256048
0.254093
0.252244
0.250494
0.248837
0.247268
0.245782
0.244375
0.243041
0.241778
0.240581
0.239446
0.238371
0.237352
0.236387
0.235484
0.260302
0.258115
0.256048
0.254094
0.252246
0.250498
0.248843
0.247276
0.245792
0.244386
0.243053
0.24179
0.240591
0.239454
0.238375
0.23735
0.236377
0.235465
0.260302
0.258116
0.25605
0.254097
0.25225
0.250504
0.248851
0.247285
0.245803
0.244398
0.243065
0.2418
0.2406
0.23946
0.238376
0.237345
0.236366
0.235446
0.260303
0.258117
0.256052
0.254101
0.252256
0.25051
0.248858
0.247292
0.245809
0.244401
0.243064
0.241794
0.240586
0.239437
0.238342
0.237298
0.236304
0.235368
0.260303
0.258119
0.256055
0.254104
0.252258
0.250509
0.248849
0.247272
0.245772
0.244343
0.242979
0.241678
0.240435
0.239246
0.238108
0.237018
0.235975
0.234987
0.260304
0.258121
0.256056
0.254098
0.252235
0.25046
0.248762
0.247134
0.245568
0.244061
0.242609
0.241208
0.239857
0.238553
0.237295
0.236082
0.234912
0.233797
0.260308
0.258128
0.256055
0.254064
0.252133
0.250249
0.248405
0.246597
0.244824
0.243089
0.241393
0.239737
0.238124
0.236555
0.235032
0.233554
0.232123
0.230752
0.260333
0.25818
0.256105
0.25404
0.251927
0.249751
0.247523
0.245265
0.242997
0.240738
0.238502
0.236302
0.234146
0.232043
0.229996
0.22801
0.226087
0.224242
0.260526
0.258632
0.256572
0.254122
0.251307
0.248237
0.245003
0.241672
0.238294
0.234914
0.231564
0.228271
0.225055
0.22193
0.218907
0.215992
0.213189
0.210512
0.261968
0.261816
0.259723
0.256045
0.251446
0.246281
0.240745
0.234992
0.229154
0.223343
0.217648
0.212135
0.206854
0.201835
0.197097
0.192651
0.188496
0.184639
0.270367
0.275853
0.277906
0.278255
0.277435
0.275657
0.273112
0.270115
0.266956
0.263848
0.260945
0.258351
0.256131
0.254321
0.252935
0.251977
0.251448
0.251373
0.450017
0.612259
0.732391
0.826056
0.893067
0.936729
0.961511
0.971886
0.971813
0.964526
0.952513
0.937616
0.92115
0.904034
0.886885
0.870104
0.853923
0.838518
0.0437257
0.0733041
0.0987597
0.127939
0.164231
0.198758
0.230025
0.254108
0.270601
0.282235
0.290139
0.295172
0.298037
0.299291
0.299365
0.298575
0.297155
0.295268
0.293029
0.290514
0.28777
0.284817
0.281653
0.278281
0.274921
0.271452
0.267748
0.2637
0.259199
0.25414
0.248411
0.241896
0.234466
0.225982
0.216291
0.205231
0.192637
0.178365
0.162321
0.14454
0.125312
0.105453
0.0868579
0.0716401
0.0624855
0.0611083
0.0664891
0.076487
0.0876936
0.0975488
0.107656
0.119303
0.133185
0.149158
0.165754
0.180373
0.190535
0.195259
0.195697
0.196311
0.20464
0.220474
0.238118
0.248515
0.249488
0.254643
0.297785
0.401429
0.494407
0.575523
0.644266
0.701349
0.748018
0.785635
0.815497
0.838766
0.85645
0.869411
0.878377
0.883967
0.88671
0.887063
0.88543
0.882171
0.877617
0.872055
0.865549
0.858159
0.849911
0.840808
0.830825
0.819908
0.807971
0.794893
0.780515
0.764645
0.747058
0.727511
0.705764
0.681605
0.654889
0.625579
0.59378
0.559766
0.523975
0.486999
0.449547
0.412443
0.376783
0.344775
0.322787
0.310047
0.299109
0.289231
0.280314
0.272318
0.265198
0.258896
0.253343
0.248468
0.244196
0.240452
0.237164
0.234264
0.231687
0.229371
0.227255
0.225276
0.223363
0.221409
0.219224
0.216622
0.213293
0.209012
0.203664
0.197314
0.190254
0.182994
0.176163
0.170329
0.165823
0.162664
0.160613
0.159351
0.15867
0.158611
0.159476
0.161712
0.165762
0.172023
0.1809
0.192854
0.208608
0.229585
0.25837
0.299118
0.349521
0.396457
0.439312
0.478089
0.513031
0.544594
0.573729
0.602854
0.630158
0.653204
0.671565
0.684681
0.692019
0.693875
0.695547
0.711279
0.726412
0.736733
0.742251
0.743275
0.73991
0.731894
0.71759
0.690808
0.0519314
0.080881
0.139419
0.233331
0.311554
0.371729
0.415941
0.447297
0.467959
0.479604
0.48393
0.482661
0.47736
0.469298
0.459447
0.448524
0.437041
0.425364
0.413747
0.402362
0.391314
0.380662
0.370419
0.360559
0.35093
0.341501
0.332216
0.323014
0.313833
0.304628
0.295371
0.28607
0.276772
0.267569
0.258599
0.250041
0.242102
0.235003
0.228966
0.224208
0.220945
0.219379
0.219629
0.221516
0.224705
0.228939
0.233476
0.235001
0.230489
0.223789
0.219815
0.22261
0.234946
0.257815
0.28868
0.321258
0.349516
0.373248
0.400701
0.453377
0.547025
0.690605
0.865481
0.987318
0.978148
0.918582
0.863272
0.822681
0.790561
0.766608
0.7506
0.74198
0.73976
0.742752
0.749764
0.759732
0.771783
0.785248
0.799649
0.814673
0.830142
0.845989
0.862231
0.878948
0.896087
0.913276
0.930604
0.948123
0.965845
0.983748
1.00176
1.01972
1.03742
1.05452
1.07054
1.0849
1.09682
1.1054
1.10963
1.10843
1.10081
1.08595
1.06338
1.03305
0.995439
0.951461
0.902424
0.849841
0.795237
0.739737
0.687906
0.643226
0.601993
0.563946
0.529037
0.497166
0.468175
0.44187
0.418036
0.396454
0.376914
0.359214
0.343171
0.328616
0.3154
0.303386
0.292456
0.282503
0.273432
0.265141
0.25743
0.250033
0.243168
0.237119
0.232146
0.228624
0.226979
0.22759
0.230648
0.23602
0.243176
0.251212
0.258992
0.265422
0.269863
0.272645
0.275423
0.280999
0.292741
0.314343
0.349822
0.402013
0.469962
0.549616
0.637879
0.73134
0.82108
0.89999
0.972672
1.04054
1.10475
1.16619
1.22533
1.28212
1.33707
1.3899
1.4393
1.48352
1.52037
1.54764
1.56344
1.56751
1.55871
1.53729
1.50452
1.46224
1.4121
1.35678
1.2971
1.24258
0.0588951
0.124132
0.246512
0.344819
0.401243
0.431103
0.448127
0.459378
0.467388
0.472775
0.475677
0.47625
0.474742
0.471459
0.466738
0.460913
0.454305
0.447206
0.439869
0.432504
0.425271
0.41829
0.411647
0.405453
0.399644
0.39414
0.388819
0.38351
0.378006
0.372072
0.365457
0.35792
0.349257
0.339344
0.328165
0.315846
0.302657
0.289006
0.275401
0.262404
0.250579
0.240424
0.232297
0.226306
0.222253
0.219659
0.217804
0.215872
0.213558
0.211903
0.213987
0.224845
0.250601
0.296179
0.360553
0.436157
0.517511
0.611671
0.757824
0.950935
1.15717
1.2611
1.2072
1.09276
0.974031
0.881127
0.820099
0.786301
0.773324
0.776592
0.791813
0.814725
0.841365
0.868529
0.89407
0.916918
0.93686
0.954214
0.969541
0.983434
0.996427
1.00895
1.0213
1.0337
1.04602
1.0583
1.07072
1.08343
1.09662
1.11044
1.125
1.14033
1.15637
1.17293
1.18966
1.20599
1.22112
1.23397
1.24326
1.24754
1.24532
1.23525
1.21636
1.18821
1.15099
1.10559
1.05339
0.996113
0.935521
0.872888
0.815297
0.763385
0.715155
0.670517
0.629469
0.591923
0.557715
0.526628
0.498422
0.472849
0.449663
0.428636
0.409553
0.39222
0.376461
0.362119
0.349054
0.337143
0.326268
0.31632
0.30715
0.298552
0.290267
0.282213
0.274539
0.26736
0.260877
0.255335
0.250984
0.248031
0.24662
0.246847
0.248794
0.252567
0.258377
0.266811
0.279394
0.299171
0.330751
0.379561
0.44996
0.541666
0.648404
0.763763
0.885212
1.00687
1.11888
1.21488
1.29441
1.3636
1.4265
1.48616
1.54457
1.60244
1.6599
1.7164
1.7703
1.81942
1.86077
1.8907
1.90649
1.90745
1.89299
1.86372
1.82129
1.76814
1.70684
1.64098
1.57339
1.51297
0.0740982
0.237769
0.366139
0.425267
0.446989
0.45569
0.461847
0.467948
0.473629
0.478097
0.480843
0.481712
0.480811
0.478415
0.474877
0.47057
0.465844
0.461002
0.456288
0.451893
0.447951
0.444562
0.441826
0.44
0.438835
0.438154
0.437709
0.437194
0.436261
0.434544
0.431689
0.427382
0.421392
0.413585
0.403949
0.392583
0.37968
0.365492
0.350296
0.334379
0.318056
0.301708
0.285816
0.270934
0.257624
0.246379
0.237611
0.231774
0.229708
0.233072
0.244597
0.270597
0.322706
0.409431
0.531656
0.683022
0.877475
1.11247
1.31874
1.40574
1.34565
1.21212
1.06272
0.940237
0.85792
0.814784
0.803691
0.81611
0.844254
0.881681
0.923055
0.964215
1.00231
1.03579
1.06419
1.08778
1.10716
1.12298
1.13585
1.14624
1.1545
1.16093
1.16577
1.1693
1.17157
1.17277
1.17324
1.17337
1.17354
1.17419
1.17572
1.17854
1.18295
1.18916
1.19718
1.20677
1.21739
1.2281
1.23759
1.2442
1.24605
1.24128
1.22828
1.20603
1.17422
1.13341
1.08482
1.03015
0.971157
0.910202
0.854782
0.80312
0.754766
0.709857
0.668455
0.630504
0.595856
0.564309
0.535633
0.509588
0.485938
0.464461
0.444946
0.427205
0.411064
0.396369
0.382982
0.37078
0.35965
0.349486
0.340175
0.331582
0.323541
0.315843
0.308401
0.301231
0.294353
0.287846
0.281825
0.276419
0.271777
0.268124
0.265853
0.265674
0.268773
0.277048
0.293469
0.32241
0.369318
0.439173
0.533848
0.649705
0.779358
0.91744
1.06015
1.19837
1.3209
1.42238
1.50506
1.57321
1.63281
1.68823
1.74192
1.79498
1.8481
1.90096
1.9518
1.99847
2.0369
2.06349
2.07616
2.07349
2.05496
2.02137
1.97464
1.91762
1.85344
1.78618
1.71933
1.66002
0.0933595
0.321853
0.409983
0.442468
0.45967
0.474136
0.487211
0.497691
0.504721
0.508211
0.508602
0.50661
0.50303
0.498611
0.493984
0.489639
0.485925
0.483069
0.481208
0.480412
0.480718
0.482189
0.485144
0.489426
0.494637
0.500331
0.50597
0.510961
0.514696
0.516606
0.516213
0.513183
0.507359
0.498773
0.487641
0.474323
0.459274
0.442972
0.425844
0.408214
0.390279
0.37215
0.353956
0.335983
0.318819
0.303434
0.291231
0.284115
0.284722
0.297022
0.32738
0.385278
0.483573
0.640806
0.868399
1.15428
1.41678
1.53722
1.47811
1.33143
1.16189
1.01418
0.907994
0.847631
0.827355
0.837873
0.869535
0.914052
0.965049
1.01781
1.06892
1.11611
1.15822
1.1949
1.22629
1.2527
1.27443
1.29174
1.30483
1.31388
1.31909
1.32069
1.31892
1.3141
1.30634
1.29594
1.28329
1.26885
1.25316
1.23688
1.22073
1.20552
1.19207
1.18116
1.17343
1.16926
1.16867
1.17116
1.17567
1.18057
1.18372
1.18272
1.17529
1.15961
1.13469
1.10053
1.05803
1.00875
0.954302
0.900044
0.849309
0.801077
0.755651
0.713315
0.674185
0.638237
0.605353
0.575354
0.548034
0.523177
0.500569
0.480008
0.461306
0.44429
0.428803
0.414704
0.401867
0.390178
0.379534
0.369837
0.360989
0.352887
0.345409
0.338413
0.331719
0.325281
0.319047
0.313009
0.3072
0.301692
0.296602
0.292142
0.288727
0.287184
0.289055
0.29701
0.315258
0.34963
0.406578
0.490505
0.600707
0.731247
0.875315
1.0286
1.18547
1.33459
1.4643
1.56969
1.6531
1.71992
1.7762
1.8263
1.87291
1.91785
1.96239
2.00681
2.04924
2.08719
2.11745
2.13706
2.14372
2.13585
2.11301
2.07614
2.02738
1.96982
1.90688
1.84273
1.78075
1.72626
0.154865
0.359382
0.422515
0.460486
0.492275
0.51772
0.535305
0.545043
0.548164
0.546434
0.541668
0.535456
0.529076
0.523467
0.51927
0.516874
0.516477
0.518139
0.521832
0.527488
0.535056
0.544681
0.556585
0.569625
0.583164
0.59643
0.608557
0.618643
0.625836
0.629413
0.628858
0.623911
0.614597
0.601209
0.584272
0.56448
0.542612
0.519454
0.495717
0.471983
0.448664
0.426018
0.404222
0.383511
0.364402
0.347951
0.33605
0.331776
0.34005
0.3691
0.432807
0.551566
0.746816
1.02526
1.35089
1.60695
1.63244
1.48939
1.29359
1.11343
0.976453
0.889687
0.849499
0.847385
0.872994
0.916743
0.971054
1.0304
1.09081
1.14949
1.20461
1.25515
1.30066
1.34096
1.37599
1.40574
1.4302
1.44942
1.46348
1.4725
1.47663
1.47604
1.47089
1.46135
1.44741
1.42936
1.40744
1.38195
1.35336
1.3223
1.2896
1.2563
1.22365
1.19301
1.16576
1.14314
1.12602
1.11473
1.10884
1.10707
1.10729
1.10678
1.10258
1.092
1.07321
1.04545
1.00917
0.965631
0.91725
0.870189
0.824328
0.780227
0.738486
0.699473
0.663347
0.630109
0.599662
0.57185
0.546487
0.523383
0.502346
0.483199
0.465774
0.449922
0.435504
0.422396
0.410487
0.399673
0.389862
0.380966
0.372897
0.365566
0.358875
0.352711
0.34694
0.341435
0.336148
0.331034
0.326087
0.321349
0.31692
0.313009
0.310039
0.308859
0.311109
0.319748
0.3396
0.37741
0.440394
0.532692
0.65202
0.791306
0.94448
1.10771
1.2739
1.43045
1.56551
1.67415
1.75844
1.82378
1.87598
1.91954
1.95768
1.99236
2.0253
2.05717
2.08679
2.11227
2.13108
2.14067
2.13885
2.12414
2.09621
2.05617
2.00633
1.9499
1.89036
1.83167
1.77678
1.72939
0.232603
0.387792
0.457044
0.513023
0.554386
0.580334
0.592841
0.59517
0.590788
0.582736
0.573429
0.564666
0.557718
0.553414
0.552225
0.554364
0.559865
0.568647
0.580566
0.595466
0.613275
0.634186
0.656126
0.6783
0.699777
0.719494
0.736324
0.749166
0.757048
0.759233
0.75529
0.74514
0.729053
0.707601
0.681608
0.652096
0.620159
0.586861
0.553199
0.520058
0.488182
0.458155
0.430478
0.405698
0.38465
0.368815
0.360894
0.365743
0.392013
0.454461
0.575037
0.778537
1.07675
1.42717
1.67985
1.66266
1.47959
1.26179
1.07934
0.953037
0.881523
0.856181
0.866258
0.901172
0.951996
1.01206
1.07659
1.1422
1.2065
1.2679
1.32543
1.37845
1.42655
1.46943
1.50684
1.53864
1.56481
1.58538
1.60048
1.61025
1.61486
1.6144
1.60895
1.59854
1.5829
1.56212
1.5362
1.5052
1.46929
1.42883
1.38448
1.33719
1.2883
1.23949
1.19275
1.15014
1.11361
1.08455
1.06355
1.05013
1.04261
1.03826
1.03366
1.02536
1.01063
0.987824
0.956727
0.918259
0.877229
0.835524
0.794065
0.753868
0.715656
0.679848
0.646631
0.616024
0.587946
0.562257
0.538794
0.517385
0.497865
0.480079
0.463885
0.449157
0.435777
0.423641
0.412653
0.402726
0.393776
0.385725
0.378495
0.372006
0.366171
0.360897
0.356075
0.351584
0.347356
0.34334
0.33952
0.335929
0.332668
0.329955
0.32823
0.328357
0.331993
0.342155
0.363825
0.404049
0.47034
0.566745
0.690412
0.834066
0.992224
1.16115
1.33286
1.49417
1.63309
1.74441
1.82954
1.89338
1.94137
1.978
2.00664
2.02951
2.04876
2.06573
2.0801
2.09071
2.09577
2.0932
2.08111
2.05823
2.02445
1.98104
1.93042
1.87583
1.82065
1.76849
1.72165
1.6826
0.299762
0.431281
0.522593
0.588015
0.62702
0.645233
0.648668
0.642661
0.631568
0.618768
0.606772
0.597352
0.591668
0.590383
0.593736
0.601715
0.614174
0.630896
0.651634
0.67617
0.704464
0.734022
0.763301
0.791482
0.817543
0.840305
0.858532
0.871067
0.876954
0.87554
0.866532
0.850003
0.826362
0.796281
0.760571
0.720708
0.678259
0.634416
0.590355
0.547363
0.506787
0.469661
0.436959
0.409775
0.389604
0.378887
0.382005
0.406943
0.467431
0.584121
0.78146
1.07358
1.42275
1.66484
1.6474
1.46202
1.24058
1.05971
0.940594
0.87882
0.86271
0.880046
0.920184
0.974876
1.03819
1.10592
1.17505
1.24345
1.30966
1.37268
1.43182
1.48653
1.53635
1.58094
1.62006
1.65357
1.68148
1.70386
1.72086
1.73262
1.73924
1.74079
1.73724
1.72848
1.71396
1.69358
1.66713
1.63442
1.59535
1.54997
1.49859
1.44187
1.38091
1.31738
1.25348
1.1919
1.1355
1.08684
1.04773
1.01878
0.999185
0.986689
0.977739
0.968356
0.955036
0.935182
0.907774
0.875179
0.839526
0.802208
0.764655
0.728002
0.693019
0.660152
0.629599
0.601389
0.575448
0.55165
0.529845
0.509883
0.491622
0.474933
0.459703
0.44583
0.433225
0.421807
0.411501
0.402238
0.393952
0.386574
0.380038
0.374273
0.369203
0.364744
0.360806
0.35729
0.354116
0.351236
0.348635
0.346348
0.344487
0.343286
0.34321
0.345141
0.350734
0.362958
0.386688
0.428808
0.496657
0.594157
0.718534
0.862961
1.02249
1.19341
1.36737
1.53106
1.67245
1.78576
1.87156
1.93393
1.97781
2.0075
2.02636
2.03684
2.04159
2.04268
2.0407
2.0353
2.02542
2.00955
1.98622
1.95447
1.91443
1.86751
1.81621
1.7637
1.71314
1.66767
1.62901
1.59861
0.350911
0.493397
0.603234
0.667652
0.699418
0.709128
0.704465
0.691461
0.674925
0.658569
0.645079
0.636196
0.632909
0.635634
0.644109
0.657944
0.67672
0.700012
0.727368
0.758276
0.790237
0.82242
0.854035
0.884036
0.911188
0.93415
0.951575
0.962247
0.965215
0.959883
0.946069
0.924002
0.894271
0.857823
0.815777
0.769053
0.718891
0.666585
0.613574
0.561334
0.513711
0.471825
0.437227
0.411888
0.398432
0.400845
0.425898
0.485075
0.595792
0.779442
1.04882
1.3758
1.59432
1.59661
1.43528
1.22639
1.05072
0.93574
0.878661
0.867031
0.887834
0.930373
0.986825
1.05175
1.12133
1.19278
1.26414
1.33402
1.40145
1.46572
1.52627
1.58261
1.63432
1.68107
1.72263
1.7589
1.78986
1.81554
1.83601
1.85131
1.86147
1.86641
1.866
1.85993
1.84753
1.82859
1.80278
1.76977
1.72928
1.68114
1.62535
1.56221
1.49247
1.41746
1.33928
1.26085
1.18573
1.11751
1.05916
1.01248
0.977743
0.953627
0.936808
0.923019
0.908394
0.889249
0.865349
0.836972
0.80525
0.771653
0.737597
0.704208
0.672251
0.642166
0.614144
0.588206
0.564277
0.542231
0.52193
0.503239
0.486036
0.470218
0.4557
0.442411
0.430291
0.419288
0.409357
0.400452
0.392528
0.385538
0.379431
0.374148
0.369627
0.365797
0.362581
0.359897
0.357672
0.355861
0.354453
0.353489
0.353094
0.353523
0.355265
0.359225
0.367049
0.381613
0.407548
0.451296
0.519657
0.616267
0.738693
0.880916
1.0386
1.20818
1.38139
1.54521
1.68758
1.80209
1.88824
1.9492
1.98924
2.01233
2.02175
2.02016
2.01067
1.99609
1.97786
1.95647
1.9316
1.90239
1.8678
1.82726
1.78111
1.73089
1.67909
1.62872
1.58267
1.54356
1.51257
1.49041
0.388757
0.566888
0.686251
0.747165
0.772764
0.775485
0.763705
0.744406
0.723242
0.704479
0.690916
0.683951
0.683905
0.690461
0.703015
0.720939
0.743692
0.770831
0.801298
0.833052
0.865799
0.898883
0.931369
0.962083
0.989663
1.01266
1.02965
1.03942
1.04105
1.0341
1.01858
0.995107
0.964567
0.926416
0.881281
0.83052
0.775383
0.717333
0.658205
0.600282
0.546266
0.49894
0.462161
0.44096
0.438145
0.460656
0.517146
0.620197
0.78583
1.02402
1.30669
1.49625
1.51905
1.39546
1.21274
1.04801
0.936159
0.880074
0.869106
0.890373
0.933163
0.989821
1.05515
1.12554
1.19837
1.27176
1.34439
1.41534
1.48396
1.54973
1.61217
1.67086
1.72541
1.77549
1.82086
1.86135
1.89685
1.92727
1.95252
1.97247
1.98697
1.99579
1.99865
1.99504
1.98436
1.9664
1.94082
1.90728
1.86542
1.81498
1.75578
1.68788
1.61161
1.52786
1.43831
1.34573
1.25408
1.16785
1.09091
1.02616
0.974838
0.936958
0.909769
0.888828
0.870488
0.851121
0.828723
0.802817
0.774032
0.743544
0.712605
0.682246
0.653179
0.625805
0.60028
0.576604
0.554684
0.534385
0.515569
0.498109
0.4819
0.46686
0.452929
0.440065
0.428239
0.417432
0.407629
0.398814
0.390971
0.384079
0.378111
0.373028
0.368787
0.365334
0.362608
0.360545
0.359086
0.358192
0.357858
0.358134
0.359155
0.361196
0.364768
0.370797
0.380913
0.397883
0.426037
0.471239
0.539534
0.634081
0.752759
0.89044
1.04349
1.20872
1.37841
1.54014
1.68192
1.79665
1.88274
1.94231
1.97888
1.99601
1.99685
1.9842
1.96159
1.9325
1.89917
1.8629
1.82409
1.78251
1.73762
1.68918
1.63774
1.58488
1.53302
1.48496
1.4432
1.40986
1.38568
1.37077
0.418284
0.643757
0.768677
0.827794
0.848584
0.845094
0.827266
0.803021
0.778718
0.758961
0.746386
0.74186
0.745074
0.755202
0.771381
0.792943
0.819711
0.849435
0.881138
0.914846
0.950144
0.986295
1.02228
1.05684
1.08854
1.11593
1.13763
1.15258
1.16017
1.16044
1.15411
1.14175
1.11972
1.08828
1.0474
0.997264
0.938518
0.872493
0.801479
0.728914
0.659421
0.598625
0.552832
0.528642
0.53311
0.573645
0.66196
0.80665
1.00891
1.22352
1.38363
1.42252
1.3405
1.1938
1.04737
0.940448
0.883473
0.870261
0.889442
0.93059
0.986077
1.05074
1.12103
1.19437
1.26893
1.34343
1.41701
1.48911
1.55927
1.62708
1.69214
1.75402
1.81233
1.86671
1.91685
1.96248
2.00332
2.03911
2.06954
2.09428
2.11295
2.12518
2.13056
2.12818
2.11797
2.09971
2.07314
2.03798
1.99394
1.94072
1.87813
1.80616
1.72489
1.63473
1.53681
1.43329
1.3282
1.22688
1.13371
1.05244
0.984939
0.932671
0.893981
0.864846
0.841264
0.819458
0.796777
0.772033
0.745278
0.717294
0.68908
0.661515
0.63521
0.61049
0.587461
0.566077
0.546213
0.527717
0.510442
0.494262
0.479082
0.464836
0.451485
0.439012
0.427416
0.416707
0.4069
0.398013
0.39006
0.38305
0.376983
0.371852
0.367635
0.364304
0.361819
0.360137
0.359218
0.359034
0.359591
0.360948
0.363249
0.366786
0.372089
0.380094
0.39241
0.411687
0.44194
0.488426
0.55636
0.648275
0.762164
0.893646
1.03979
1.19806
1.36166
1.51909
1.6586
1.77244
1.85793
1.91608
1.94962
1.96164
1.95511
1.93293
1.89898
1.85731
1.81087
1.7617
1.71091
1.65886
1.60545
1.55075
1.49544
1.44109
1.38995
1.34451
1.30691
1.27873
1.26034
1.25144
0.445172
0.715962
0.850858
0.910792
0.928081
0.919334
0.896336
0.868301
0.842319
0.823116
0.81297
0.812209
0.820109
0.835741
0.858546
0.887083
0.918558
0.953408
0.991736
1.03336
1.0778
1.12422
1.17155
1.21844
1.26345
1.30519
1.3424
1.37412
1.39966
1.41855
1.43038
1.43121
1.42001
1.39625
1.3594
1.30901
1.2449
1.16757
1.07875
0.982139
0.883982
0.793316
0.721386
0.680267
0.680963
0.73102
0.833773
0.978232
1.13747
1.26417
1.31353
1.27145
1.16636
1.04574
0.947912
0.890221
0.872835
0.887641
0.925232
0.978087
1.04095
1.11018
1.18315
1.25801
1.33348
1.40872
1.48323
1.55665
1.62866
1.69889
1.76694
1.83238
1.89475
1.95365
2.00865
2.05935
2.10531
2.14606
2.18109
2.20984
2.23172
2.24614
2.25254
2.25002
2.23876
2.21872
2.18976
2.15172
2.10443
2.04764
1.98114
1.90522
1.81981
1.72503
1.6215
1.51052
1.3954
1.28303
1.17737
1.08279
1.00233
0.937279
0.886817
0.848377
0.818311
0.792742
0.768553
0.743957
0.718458
0.692422
0.666557
0.641547
0.617863
0.595732
0.57518
0.556104
0.538338
0.521702
0.506033
0.491202
0.47712
0.46373
0.451013
0.438971
0.427626
0.417015
0.407179
0.398164
0.390014
0.382768
0.376459
0.371106
0.366721
0.363301
0.360836
0.359307
0.358699
0.359002
0.360235
0.362468
0.365859
0.37071
0.377564
0.387359
0.401674
0.423033
0.455148
0.502709
0.570132
0.659255
0.767952
0.892272
1.02988
1.17904
1.33423
1.4852
1.62067
1.73238
1.81661
1.87324
1.9042
1.91206
1.89959
1.86972
1.82666
1.77485
1.7179
1.6585
1.59839
1.53843
1.47893
1.42017
1.36287
1.3085
1.25907
1.21675
1.18327
1.15977
1.14626
1.1421
0.467769
0.788041
0.934691
0.996658
1.01152
0.998754
0.972192
0.94236
0.916963
0.90077
0.895805
0.902166
0.919136
0.946234
0.979135
1.01624
1.05826
1.10535
1.15736
1.21382
1.27385
1.33621
1.39938
1.4616
1.52111
1.5762
1.62529
1.6669
1.69958
1.72188
1.73239
1.73183
1.72194
1.70262
1.67287
1.63095
1.57463
1.50166
1.41063
1.3023
1.18128
1.05757
0.946899
0.868702
0.840717
0.870638
0.949774
1.0536
1.14952
1.20334
1.1954
1.13251
1.04311
0.959399
0.902776
0.880216
0.888486
0.920351
0.968796
1.02846
1.09549
1.16712
1.24134
1.31682
1.39273
1.46849
1.54382
1.61852
1.69229
1.76479
1.83558
1.90417
1.97007
2.03278
2.09178
2.14654
2.19647
2.24093
2.27922
2.31058
2.33422
2.34937
2.3553
2.35123
2.3376
2.31453
2.28203
2.24011
2.18874
2.12777
2.05669
1.97662
1.88747
1.78919
1.68223
1.56789
1.44904
1.33005
1.2158
1.11114
1.01974
0.94357
0.882741
0.835594
0.799025
0.769267
0.742954
0.717871
0.693076
0.668554
0.644725
0.622055
0.600856
0.581234
0.56312
0.546343
0.530685
0.515935
0.501911
0.488478
0.475548
0.463076
0.451054
0.439504
0.428468
0.418002
0.408172
0.399046
0.390695
0.383185
0.376574
0.370914
0.366246
0.362597
0.359987
0.358428
0.357931
0.358511
0.360205
0.363098
0.367361
0.373306
0.381483
0.392823
0.408861
0.431993
0.465648
0.514014
0.580817
0.667236
0.770823
0.88769
1.01583
1.15431
1.29913
1.4416
1.5712
1.67941
1.76156
1.8165
1.84528
1.84996
1.83304
1.79752
1.74778
1.68861
1.62412
1.55757
1.49121
1.42633
1.36352
1.30316
1.24592
1.19309
1.14643
1.10776
1.07848
1.05933
1.05002
1.04959
0.484356
0.857196
1.01755
1.08379
1.0987
1.08473
1.05766
1.02917
1.00753
0.997679
1.00171
1.01977
1.05008
1.08647
1.12894
1.17734
1.23122
1.28981
1.35197
1.41617
1.48051
1.54293
1.60144
1.65432
1.70034
1.73883
1.76961
1.7929
1.80916
1.81889
1.82257
1.82339
1.82424
1.82452
1.82238
1.81484
1.79766
1.76536
1.71174
1.63135
1.52193
1.38779
1.24288
1.111
1.02025
0.990478
1.01995
1.07574
1.12181
1.13443
1.10591
1.04713
0.980172
0.926264
0.89773
0.897021
0.92035
0.961971
1.01663
1.08002
1.14908
1.22157
1.29597
1.3714
1.44768
1.5236
1.59929
1.6747
1.74956
1.8235
1.89604
1.96665
2.03476
2.09982
2.16123
2.21833
2.27044
2.31679
2.35654
2.38878
2.41256
2.42694
2.43104
2.42437
2.40745
2.38053
2.34379
2.29741
2.24157
2.17642
2.10213
2.01911
1.92747
1.82729
1.71887
1.60316
1.48234
1.36
1.24082
1.1297
1.03066
0.946227
0.87731
0.82304
0.780873
0.747271
0.718804
0.693008
0.668633
0.645363
0.623357
0.60287
0.584044
0.566852
0.551123
0.536608
0.523038
0.510164
0.497788
0.485766
0.474012
0.462491
0.451208
0.4402
0.429528
0.419265
0.409497
0.400312
0.3918
0.38405
0.377144
0.37116
0.366164
0.362216
0.359362
0.357646
0.35711
0.357793
0.359757
0.363106
0.368025
0.374835
0.384087
0.396697
0.414143
0.43869
0.473505
0.522352
0.588407
0.672309
0.771199
0.880902
0.99935
1.12627
1.25923
1.39137
1.51329
1.61653
1.69568
1.74859
1.77549
1.77789
1.75803
1.71888
1.66497
1.60132
1.53242
1.46196
1.3926
1.3259
1.2626
1.20306
1.14782
1.09792
1.05489
1.0203
0.995285
0.980298
0.974775
0.977429
0.493839
0.918934
1.09466
1.16864
1.1881
1.17785
1.15493
1.13161
1.11645
1.11458
1.12804
1.15429
1.18796
1.22899
1.27603
1.32741
1.38118
1.43521
1.48715
1.53472
1.57591
1.60934
1.63449
1.65177
1.66239
1.66818
1.67127
1.67383
1.67794
1.68535
1.69742
1.7151
1.73862
1.76812
1.80355
1.84399
1.88654
1.92536
1.95106
1.95128
1.913
1.82692
1.69321
1.52683
1.35852
1.22672
1.15947
1.15047
1.14717
1.12671
1.08379
1.02734
0.973288
0.935751
0.922017
0.932416
0.963245
1.00989
1.06862
1.13373
1.203
1.27491
1.34833
1.42269
1.49773
1.57297
1.64832
1.72365
1.79866
1.87292
1.94591
2.01705
2.08575
2.15137
2.21326
2.27072
2.32297
2.3692
2.40847
2.43982
2.4622
2.47459
2.47603
2.46629
2.44588
2.41516
2.37443
2.32401
2.26426
2.19557
2.11831
2.03287
1.9395
1.83832
1.72953
1.61383
1.4929
1.36979
1.2488
1.13457
1.0312
0.941593
0.86727
0.808007
0.761745
0.725205
0.695017
0.668642
0.644664
0.622561
0.602283
0.583892
0.567362
0.552531
0.539125
0.526818
0.515287
0.50425
0.493489
0.482857
0.47227
0.461702
0.451173
0.440734
0.430462
0.420449
0.410796
0.401607
0.392991
0.385052
0.377892
0.371609
0.366293
0.362028
0.358889
0.356946
0.356271
0.356932
0.359016
0.362648
0.368027
0.375485
0.385568
0.399169
0.417701
0.443291
0.478865
0.527831
0.592961
0.674527
0.769298
0.872571
0.981801
1.09701
1.21721
1.33756
1.45014
1.54689
1.62196
1.67236
1.69752
1.69839
1.67694
1.6361
1.58046
1.51515
1.44493
1.37376
1.30455
1.23899
1.17779
1.12118
1.06946
1.02348
0.984597
0.95426
0.933483
0.922518
0.920577
0.926015
0.49351
0.965139
1.15718
1.24367
1.27455
1.27544
1.26315
1.24943
1.24246
1.24717
1.26211
1.28498
1.31573
1.35241
1.39231
1.43249
1.47
1.50218
1.52696
1.54316
1.5508
1.55107
1.54616
1.53878
1.53164
1.52695
1.52625
1.53036
1.53972
1.55463
1.57561
1.59924
1.62432
1.65492
1.69672
1.75557
1.83566
1.93696
2.05268
2.16762
2.2592
2.30172
2.27335
2.16417
1.98321
1.76162
1.54711
1.40347
1.30898
1.22845
1.15072
1.07802
1.01948
0.983217
0.972693
0.986448
1.01916
1.0663
1.12385
1.18761
1.25526
1.3253
1.39681
1.46931
1.54257
1.61634
1.69047
1.76471
1.83872
1.912
1.98402
2.05415
2.12176
2.18618
2.24673
2.30268
2.35323
2.39753
2.43465
2.46359
2.4833
2.49272
2.49085
2.4777
2.45375
2.41939
2.37502
2.32108
2.25804
2.18643
2.10676
2.01952
1.92505
1.82355
1.71521
1.60055
1.48095
1.35908
1.23873
1.12422
1.01947
0.92762
0.850624
0.788704
0.740136
0.701874
0.670698
0.644133
0.620731
0.599864
0.581324
0.565007
0.550734
0.538211
0.527066
0.5169
0.507341
0.498079
0.48888
0.479594
0.470142
0.460509
0.450727
0.440864
0.431013
0.42128
0.411783
0.40264
0.393972
0.385899
0.378537
0.371999
0.366396
0.361831
0.358403
0.356206
0.355339
0.355899
0.357998
0.361783
0.367469
0.375393
0.386097
0.400441
0.419764
0.446053
0.482001
0.530718
0.59469
0.674012
0.765234
0.863046
0.964041
1.06805
1.17522
1.28274
1.38448
1.47323
1.54303
1.59026
1.61362
1.61353
1.59166
1.55091
1.49586
1.43159
1.36297
1.29411
1.22796
1.16615
1.10923