/*--------------------------------*- C++ -*----------------------------------*\
| =========                 |                                                 |
| \\      /  F ield         | OpenFOAM: The Open Source CFD Toolbox           |
|  \\    /   O peration     | Version:  2112                                  |
|   \\  /    A nd           | Website:  www.openfoam.com                      |
|    \\/     M anipulation  |                                                 |
\*---------------------------------------------------------------------------*/
FoamFile
{
    version     2.0;
    format      ascii;
    arch        "LSB;label=32;scalar=64";
    class       surfaceScalarField;
    location    "0.27";
    object      phi;
}
// * * * * * * * * * * * * * * * * * * * * * * * * * * * * * * * * * * * * * //

dimensions      [0 3 -1 0 0 0 0];

oriented        oriented;

internalField   nonuniform List<scalar> 
24170
(
3.11538e-06
7.30227e-08
3.00696e-06
1.08426e-07
2.9088e-06
9.81622e-08
2.81746e-06
9.13329e-08
2.73115e-06
8.63152e-08
2.65353e-06
7.7614e-08
2.58581e-06
6.77274e-08
2.52721e-06
5.85975e-08
2.47654e-06
5.06685e-08
2.43263e-06
4.39103e-08
2.39445e-06
3.81807e-08
2.36112e-06
3.33323e-08
2.33189e-06
2.92222e-08
2.30614e-06
2.57498e-08
2.28337e-06
2.27713e-08
2.26284e-06
2.05383e-08
2.24353e-06
1.93093e-08
2.07681e-08
2.22276e-06
3.47558e-06
1.46878e-08
3.49383e-06
9.01814e-08
3.50068e-06
9.13112e-08
3.49833e-06
9.36862e-08
3.48945e-06
9.5194e-08
3.47511e-06
9.19482e-08
3.4564e-06
8.64372e-08
3.43462e-06
8.03842e-08
3.41082e-06
7.44653e-08
3.38593e-06
6.87995e-08
3.36066e-06
6.3451e-08
3.33552e-06
5.84721e-08
3.31087e-06
5.3875e-08
3.28694e-06
4.96782e-08
3.26389e-06
4.58171e-08
3.24183e-06
4.2597e-08
3.22153e-06
3.96171e-08
3.73742e-08
3.20492e-06
3.66272e-06
1.44851e-08
3.67803e-06
7.4869e-08
3.68984e-06
7.95065e-08
3.70148e-06
8.20409e-08
3.71177e-06
8.49055e-08
3.71946e-06
8.42576e-08
3.72465e-06
8.1251e-08
3.7277e-06
7.73278e-08
3.72898e-06
7.31919e-08
3.72876e-06
6.90198e-08
3.7273e-06
6.49044e-08
3.72485e-06
6.09296e-08
3.72158e-06
5.71424e-08
3.71768e-06
5.35782e-08
3.71327e-06
5.02246e-08
3.70868e-06
4.71917e-08
3.70408e-06
4.42166e-08
4.11099e-08
3.70034e-06
3.92331e-06
1.65652e-08
3.93554e-06
6.2633e-08
3.9429e-06
7.21469e-08
3.94985e-06
7.50903e-08
3.95662e-06
7.81416e-08
3.96248e-06
7.8395e-08
3.96754e-06
7.61926e-08
3.97196e-06
7.29053e-08
3.97583e-06
6.93199e-08
3.97919e-06
6.56622e-08
3.98208e-06
6.20171e-08
3.98455e-06
5.84597e-08
3.98665e-06
5.50378e-08
3.98845e-06
5.1779e-08
3.99001e-06
4.86718e-08
3.99147e-06
4.57287e-08
3.99289e-06
4.27923e-08
3.96733e-08
3.99433e-06
4.20752e-06
1.6171e-08
4.21642e-06
5.37374e-08
4.22217e-06
6.63949e-08
4.22729e-06
6.99666e-08
4.23263e-06
7.28083e-08
4.23762e-06
7.34002e-08
4.24215e-06
7.16645e-08
4.24626e-06
6.8792e-08
4.25002e-06
6.55605e-08
4.25347e-06
6.2217e-08
4.25664e-06
5.88471e-08
4.25957e-06
5.55239e-08
4.26231e-06
5.22976e-08
4.2649e-06
4.91918e-08
4.26738e-06
4.61927e-08
4.26983e-06
4.32797e-08
4.27228e-06
4.03379e-08
3.72002e-08
4.27476e-06
4.51039e-06
1.48706e-08
4.51728e-06
4.68487e-08
4.52289e-06
6.07788e-08
4.5278e-06
6.5063e-08
4.5328e-06
6.78023e-08
4.53757e-06
6.86336e-08
4.54191e-06
6.73238e-08
4.54586e-06
6.48413e-08
4.5495e-06
6.1924e-08
4.55287e-06
5.88407e-08
4.55603e-06
5.56899e-08
4.55901e-06
5.25478e-08
4.56184e-06
4.94671e-08
4.56456e-06
4.64698e-08
4.56721e-06
4.35427e-08
4.56983e-06
4.06544e-08
4.57246e-06
3.77128e-08
3.45889e-08
4.57507e-06
4.8341e-06
1.3495e-08
4.83997e-06
4.0975e-08
4.84569e-06
5.50539e-08
4.85068e-06
6.00774e-08
4.8556e-06
6.28795e-08
4.86032e-06
6.39205e-08
4.86464e-06
6.2997e-08
4.8686e-06
6.08809e-08
4.87227e-06
5.82595e-08
4.87569e-06
5.54191e-08
4.87891e-06
5.24725e-08
4.88195e-06
4.94994e-08
4.88487e-06
4.65542e-08
4.88768e-06
4.36593e-08
4.89042e-06
4.08049e-08
4.89311e-06
3.79607e-08
4.89576e-06
3.5059e-08
3.20236e-08
4.89833e-06
5.18091e-06
1.21657e-08
5.1861e-06
3.57837e-08
5.19175e-06
4.94007e-08
5.19681e-06
5.50249e-08
5.20174e-06
5.79467e-08
5.20651e-06
5.91523e-08
5.21094e-06
5.85676e-08
5.21502e-06
5.67991e-08
5.21881e-06
5.44678e-08
5.22236e-06
5.18693e-08
5.22571e-06
4.91285e-08
5.22888e-06
4.63278e-08
5.23191e-06
4.35237e-08
5.23483e-06
4.0741e-08
5.23765e-06
3.7976e-08
5.24041e-06
3.52062e-08
5.24308e-06
3.2388e-08
2.9484e-08
5.24562e-06
5.55265e-06
1.08574e-08
5.55725e-06
3.1179e-08
5.56268e-06
4.39734e-08
5.56775e-06
4.99497e-08
5.57273e-06
5.29736e-08
5.57758e-06
5.42941e-08
5.58216e-06
5.39965e-08
5.5864e-06
5.25524e-08
5.59037e-06
5.05044e-08
5.59409e-06
4.8148e-08
5.5976e-06
4.56175e-08
5.60093e-06
4.29975e-08
5.60411e-06
4.03462e-08
5.60715e-06
3.76925e-08
5.61009e-06
3.504e-08
5.61292e-06
3.23771e-08
5.61563e-06
2.96803e-08
2.69404e-08
5.61817e-06
5.95105e-06
9.57864e-09
5.95515e-06
2.70806e-08
5.9603e-06
3.88299e-08
5.96535e-06
4.4894e-08
5.97035e-06
4.79738e-08
5.97528e-06
4.93634e-08
5.97998e-06
4.92943e-08
5.9844e-06
4.81398e-08
5.98854e-06
4.63597e-08
5.99245e-06
4.42402e-08
5.99615e-06
4.19219e-08
5.99965e-06
3.94904e-08
6.00299e-06
3.70051e-08
6.00619e-06
3.44991e-08
6.00924e-06
3.19837e-08
6.01216e-06
2.94582e-08
6.01493e-06
2.69145e-08
2.43634e-08
6.01751e-06
6.37804e-06
8.35347e-09
6.38171e-06
2.34045e-08
6.38656e-06
3.39809e-08
6.39156e-06
3.9896e-08
6.39656e-06
4.29704e-08
6.40154e-06
4.43885e-08
6.40635e-06
4.44872e-08
6.41091e-06
4.35783e-08
6.41522e-06
4.20437e-08
6.41931e-06
4.0151e-08
6.42319e-06
3.80429e-08
6.42688e-06
3.58053e-08
6.43038e-06
3.34978e-08
6.43373e-06
3.11571e-08
6.43691e-06
2.88015e-08
6.43993e-06
2.64395e-08
6.44277e-06
2.40743e-08
2.17287e-08
6.4454e-06
5.74182e-06
7.3637e-09
5.74465e-06
2.05769e-08
5.74852e-06
3.01082e-08
5.75268e-06
3.5737e-08
5.7569e-06
3.87506e-08
5.76113e-06
4.01659e-08
5.76525e-06
4.03622e-08
5.7692e-06
3.9624e-08
5.77297e-06
3.82773e-08
5.77656e-06
3.65668e-08
5.77997e-06
3.46331e-08
5.78321e-06
3.25616e-08
5.78629e-06
3.04118e-08
5.78923e-06
2.82225e-08
5.79201e-06
2.60168e-08
5.79464e-06
2.38092e-08
5.79711e-06
2.16092e-08
1.9447e-08
5.79939e-06
6.99922e-06
6.29871e-09
7.00222e-06
1.75767e-08
7.00641e-06
2.59142e-08
7.01106e-06
3.10881e-08
7.01587e-06
3.3948e-08
7.02072e-06
3.53155e-08
7.0255e-06
3.55797e-08
7.03012e-06
3.49987e-08
7.03456e-06
3.38426e-08
7.0388e-06
3.23279e-08
7.04284e-06
3.05891e-08
7.04669e-06
2.87096e-08
7.05036e-06
2.67474e-08
7.05384e-06
2.47431e-08
7.05713e-06
2.27232e-08
7.06023e-06
2.07074e-08
7.06313e-06
1.87092e-08
1.67634e-08
7.06582e-06
8.53198e-06
5.16877e-09
8.53512e-06
1.44326e-08
8.53961e-06
2.14295e-08
8.54473e-06
2.59598e-08
8.55014e-06
2.85436e-08
8.55566e-06
2.97982e-08
8.56115e-06
3.00849e-08
8.56652e-06
2.96341e-08
8.5717e-06
2.86628e-08
8.57667e-06
2.73534e-08
8.58143e-06
2.5829e-08
8.58597e-06
2.41685e-08
8.59029e-06
2.24273e-08
8.59439e-06
2.06455e-08
8.59826e-06
1.88517e-08
8.6019e-06
1.70682e-08
8.6053e-06
1.53108e-08
1.36149e-08
8.60845e-06
1.04004e-05
3.98671e-09
1.04037e-05
1.1166e-08
1.04084e-05
1.66779e-08
1.0414e-05
2.03652e-08
1.042e-05
2.25232e-08
1.04263e-05
2.35761e-08
1.04325e-05
2.38235e-08
1.04387e-05
2.34613e-08
1.04447e-05
2.2658e-08
1.04505e-05
2.15577e-08
1.04561e-05
2.02654e-08
1.04614e-05
1.88519e-08
1.04664e-05
1.73672e-08
1.04712e-05
1.58484e-08
1.04758e-05
1.43237e-08
1.048e-05
1.28152e-08
1.0484e-05
1.13385e-08
9.92691e-09
1.04877e-05
1.2678e-05
2.76121e-09
1.26814e-05
7.77301e-09
1.26864e-05
1.16567e-08
1.26925e-05
1.4302e-08
1.26992e-05
1.58623e-08
1.27061e-05
1.65996e-08
1.27132e-05
1.67291e-08
1.27203e-05
1.64014e-08
1.27272e-05
1.57381e-08
1.27339e-05
1.48436e-08
1.27404e-05
1.37982e-08
1.27466e-05
1.26591e-08
1.27525e-05
1.14671e-08
1.27581e-05
1.02534e-08
1.27634e-05
9.04198e-09
1.27683e-05
7.85213e-09
1.2773e-05
6.6967e-09
5.60478e-09
1.27773e-05
1.54545e-05
1.48405e-09
1.5458e-05
4.20683e-09
1.54634e-05
6.30391e-09
1.547e-05
7.70719e-09
1.54773e-05
8.48529e-09
1.54852e-05
8.77273e-09
1.54932e-05
8.6925e-09
1.55013e-05
8.33652e-09
1.55092e-05
7.77862e-09
1.5517e-05
7.08172e-09
1.55245e-05
6.29592e-09
1.55317e-05
5.45824e-09
1.55386e-05
4.596e-09
1.55451e-05
3.73016e-09
1.55513e-05
2.87714e-09
1.55571e-05
2.05043e-09
1.55625e-05
1.25817e-09
5.23424e-10
1.55676e-05
1.8839e-05
1.15133e-10
1.88429e-05
3.37341e-10
1.88487e-05
4.32851e-10
1.88561e-05
3.73445e-10
1.88644e-05
1.76186e-10
1.88733e-05
-1.27918e-10
1.88825e-05
-5.13131e-10
1.88918e-05
-9.57313e-10
1.8901e-05
-1.43954e-09
1.891e-05
-1.94159e-09
1.89188e-05
-2.44948e-09
1.89272e-05
-2.95259e-09
1.89352e-05
-3.44252e-09
1.89429e-05
-3.91241e-09
1.89501e-05
-4.35671e-09
1.89569e-05
-4.77046e-09
1.89633e-05
-5.15176e-09
-5.48501e-09
1.89693e-05
2.29649e-05
-1.45482e-09
2.29694e-05
-4.142e-09
2.29762e-05
-6.40726e-09
2.29848e-05
-8.21929e-09
2.29946e-05
-9.59479e-09
2.30051e-05
-1.06201e-08
2.3016e-05
-1.13886e-08
2.3027e-05
-1.19573e-08
2.30379e-05
-1.23631e-08
2.30486e-05
-1.26412e-08
2.3059e-05
-1.28236e-08
2.30689e-05
-1.29333e-08
2.30785e-05
-1.29859e-08
2.30876e-05
-1.29924e-08
2.30962e-05
-1.29611e-08
2.31043e-05
-1.28978e-08
2.31119e-05
-1.28081e-08
-1.26847e-08
2.31191e-05
1.68119e-05
-2.67867e-09
1.68154e-05
-7.60325e-09
1.68207e-05
-1.17024e-08
1.68273e-05
-1.48299e-08
1.68347e-05
-1.7024e-08
1.68426e-05
-1.85231e-08
1.68508e-05
-1.95338e-08
1.6859e-05
-2.01589e-08
1.68671e-05
-2.04722e-08
1.6875e-05
-2.05527e-08
1.68826e-05
-2.04685e-08
1.689e-05
-2.02668e-08
1.6897e-05
-1.99806e-08
1.69036e-05
-1.96343e-08
1.69099e-05
-1.92462e-08
1.69158e-05
-1.8829e-08
1.69214e-05
-1.83928e-08
-1.79354e-08
1.69267e-05
1.46357e-05
-3.84477e-09
1.46391e-05
-1.09355e-08
1.46442e-05
-1.68326e-08
1.46505e-05
-2.11356e-08
1.46574e-05
-2.3968e-08
1.46647e-05
-2.58204e-08
1.46722e-05
-2.69931e-08
1.46796e-05
-2.76042e-08
1.46869e-05
-2.77727e-08
1.4694e-05
-2.76299e-08
1.47008e-05
-2.72743e-08
1.47073e-05
-2.67695e-08
1.47135e-05
-2.61618e-08
1.47194e-05
-2.54874e-08
1.47249e-05
-2.47732e-08
1.47301e-05
-2.40375e-08
1.4735e-05
-2.32939e-08
-2.25444e-08
1.47396e-05
1.27412e-05
-4.91881e-09
1.27445e-05
-1.42701e-08
1.27498e-05
-2.20542e-08
1.27559e-05
-2.7292e-08
1.27625e-05
-3.05296e-08
1.27693e-05
-3.26581e-08
1.27763e-05
-3.39426e-08
1.27831e-05
-3.44667e-08
1.27898e-05
-3.44274e-08
1.27962e-05
-3.40241e-08
1.28023e-05
-3.33797e-08
1.28081e-05
-3.25683e-08
1.28136e-05
-3.16468e-08
1.28187e-05
-3.06609e-08
1.28236e-05
-2.96433e-08
1.28282e-05
-2.86153e-08
1.28325e-05
-2.7591e-08
-2.65728e-08
1.28365e-05
1.10918e-05
-5.75558e-09
1.10952e-05
-1.76623e-08
1.11007e-05
-2.76103e-08
1.11068e-05
-3.33901e-08
1.1113e-05
-3.67413e-08
1.11194e-05
-3.90718e-08
1.11259e-05
-4.04081e-08
1.11322e-05
-4.07853e-08
1.11383e-05
-4.05061e-08
1.11441e-05
-3.98274e-08
1.11496e-05
-3.88849e-08
1.11548e-05
-3.77635e-08
1.11597e-05
-3.65333e-08
1.11643e-05
-3.52489e-08
1.11686e-05
-3.39474e-08
1.11726e-05
-3.26524e-08
1.11764e-05
-3.1381e-08
-3.014e-08
1.118e-05
9.65569e-06
-6.23152e-09
9.6592e-06
-2.11716e-08
9.66505e-06
-3.3458e-08
9.67102e-06
-3.93595e-08
9.677e-06
-4.27279e-08
9.68311e-06
-4.51818e-08
9.68911e-06
-4.64083e-08
9.69487e-06
-4.65373e-08
9.70036e-06
-4.59959e-08
9.70558e-06
-4.50506e-08
9.71052e-06
-4.38252e-08
9.71517e-06
-4.24116e-08
9.71953e-06
-4.08929e-08
9.72361e-06
-3.93324e-08
9.72743e-06
-3.77711e-08
9.73101e-06
-3.62331e-08
9.73436e-06
-3.47298e-08
-3.3252e-08
9.73748e-06
8.40523e-06
-6.11071e-09
8.4096e-06
-2.55423e-08
8.4152e-06
-3.90575e-08
8.42045e-06
-4.46056e-08
8.42616e-06
-4.84417e-08
8.43214e-06
-5.11595e-08
8.4379e-06
-5.21662e-08
8.44331e-06
-5.19528e-08
8.44842e-06
-5.11e-08
8.45323e-06
-4.98636e-08
8.45775e-06
-4.83492e-08
8.46199e-06
-4.66504e-08
8.46596e-06
-4.48573e-08
8.46966e-06
-4.30375e-08
8.47313e-06
-4.12352e-08
8.47637e-06
-3.94768e-08
8.47943e-06
-3.77855e-08
-3.6172e-08
8.48235e-06
7.31468e-06
-3.50837e-09
7.32201e-06
-3.28735e-08
7.32749e-06
-4.45351e-08
7.33172e-06
-4.88355e-08
7.33694e-06
-5.3658e-08
7.34265e-06
-5.68715e-08
7.34826e-06
-5.77785e-08
7.35364e-06
-5.7331e-08
7.35874e-06
-5.62026e-08
7.36354e-06
-5.46571e-08
7.36801e-06
-5.28204e-08
7.37216e-06
-5.0807e-08
7.37602e-06
-4.87164e-08
7.3796e-06
-4.66195e-08
7.38293e-06
-4.45635e-08
7.38603e-06
-4.25761e-08
7.38891e-06
-4.0664e-08
-3.87702e-08
7.39151e-06
6.36058e-06
5.97608e-09
6.37221e-06
-4.45017e-08
6.38021e-06
-5.25312e-08
6.38608e-06
-5.47071e-08
6.39255e-06
-6.01297e-08
6.39871e-06
-6.30336e-08
6.40447e-06
-6.3537e-08
6.40999e-06
-6.28463e-08
6.41527e-06
-6.14837e-08
6.42025e-06
-5.96404e-08
6.42489e-06
-5.74564e-08
6.42916e-06
-5.50801e-08
6.43307e-06
-5.26314e-08
6.43665e-06
-5.01919e-08
6.4399e-06
-4.78172e-08
6.44287e-06
-4.55486e-08
6.44562e-06
-4.34109e-08
-4.143e-08
6.44828e-06
5.53156e-06
1.9881e-08
5.54296e-06
-5.59003e-08
5.55346e-06
-6.30329e-08
5.5654e-06
-6.66462e-08
5.57835e-06
-7.30856e-08
5.58951e-06
-7.41901e-08
5.59899e-06
-7.30111e-08
5.60694e-06
-7.08005e-08
5.61363e-06
-6.81713e-08
5.61921e-06
-6.52186e-08
5.62378e-06
-6.20294e-08
5.62744e-06
-5.8738e-08
5.63026e-06
-5.54593e-08
5.63235e-06
-5.22736e-08
5.63376e-06
-4.92359e-08
5.63463e-06
-4.64115e-08
5.63503e-06
-4.38119e-08
-4.152e-08
5.63512e-06
4.87086e-06
-2.33734e-08
4.88398e-06
-6.90208e-08
4.8953e-06
-7.43519e-08
4.90474e-06
-7.60869e-08
4.91225e-06
-8.05956e-08
4.91755e-06
-7.94915e-08
4.919e-06
-7.44609e-08
4.91669e-06
-6.84897e-08
4.91095e-06
-6.24261e-08
4.90233e-06
-5.65985e-08
4.89144e-06
-5.11472e-08
4.87886e-06
-4.61488e-08
4.86503e-06
-4.16315e-08
4.85035e-06
-3.75914e-08
4.83512e-06
-3.40102e-08
4.81961e-06
-3.09019e-08
4.80408e-06
-2.82791e-08
-2.66443e-08
4.7892e-06
4.1793e-06
4.11028e-06
4.03593e-06
3.95984e-06
3.87925e-06
3.79976e-06
3.7253e-06
3.65681e-06
3.59438e-06
3.53778e-06
3.48663e-06
3.44048e-06
3.39885e-06
3.36126e-06
3.32725e-06
3.29635e-06
3.26807e-06
3.24143e-06
5.54585e-09
-5.54585e-09
1.60716e-08
-1.05258e-08
2.83081e-08
-1.22365e-08
4.02843e-08
-1.19761e-08
5.07977e-08
-1.05134e-08
5.92172e-08
-8.41955e-09
6.52986e-08
-6.08135e-09
6.90305e-08
-3.73192e-09
7.05307e-08
-1.50022e-09
6.99999e-08
5.30871e-10
6.77273e-08
2.27255e-09
6.40307e-08
3.69659e-09
5.918e-08
4.85067e-09
5.33581e-08
5.82195e-09
4.66553e-08
6.70276e-09
3.90858e-08
7.56954e-09
3.06085e-08
8.47725e-09
2.11488e-08
9.45971e-09
1.06184e-08
1.05305e-08
-1.07358e-09
1.16919e-08
-1.40323e-08
1.29587e-08
-2.83731e-08
1.43408e-08
-4.42124e-08
1.58393e-08
-6.16663e-08
1.74539e-08
-8.08439e-08
1.91777e-08
-1.01843e-07
2.09991e-08
-1.24746e-07
2.29025e-08
-1.49614e-07
2.48684e-08
-1.76488e-07
2.68736e-08
-2.05379e-07
2.88918e-08
-2.36274e-07
3.08947e-08
-2.69128e-07
3.28534e-08
-3.03867e-07
3.47398e-08
-3.40395e-07
3.65276e-08
-3.78589e-07
3.8194e-08
-4.18309e-07
3.97204e-08
-4.59402e-07
4.10927e-08
-5.01704e-07
4.2302e-08
-5.45048e-07
4.33442e-08
-5.89268e-07
4.42195e-08
-6.342e-07
4.49322e-08
-6.7969e-07
4.549e-08
-7.25593e-07
4.59031e-08
-7.71777e-07
4.61843e-08
-8.18125e-07
4.63475e-08
-8.64533e-07
4.64081e-08
-9.10917e-07
4.63839e-08
-9.57217e-07
4.63e-08
-1.00341e-06
4.61889e-08
-1.04948e-06
4.60723e-08
-1.09543e-06
4.59497e-08
-1.14124e-06
4.58168e-08
-1.18692e-06
4.56726e-08
-1.23243e-06
4.55162e-08
-1.27778e-06
4.5347e-08
-1.32294e-06
4.51642e-08
-1.36791e-06
4.49671e-08
-1.41267e-06
4.47543e-08
-1.45719e-06
4.45244e-08
-1.50147e-06
4.42757e-08
-1.54547e-06
4.40063e-08
-1.58919e-06
4.37142e-08
-1.63258e-06
4.33974e-08
-1.67564e-06
4.30537e-08
-1.71832e-06
4.26811e-08
-1.7606e-06
4.22776e-08
-1.80244e-06
4.18414e-08
-1.84381e-06
4.13706e-08
-1.88467e-06
4.08638e-08
-1.92499e-06
4.03193e-08
-1.96473e-06
3.97361e-08
-2.00384e-06
3.9113e-08
-2.04229e-06
3.84492e-08
-2.08003e-06
3.7744e-08
-2.11703e-06
3.69969e-08
-2.15324e-06
3.62077e-08
-2.18862e-06
3.53763e-08
-2.22312e-06
3.45027e-08
-2.2567e-06
3.35872e-08
-2.28934e-06
3.26301e-08
-2.32097e-06
3.16321e-08
-2.35156e-06
3.05937e-08
-2.38108e-06
2.95158e-08
-2.40948e-06
2.83991e-08
-2.43672e-06
2.72444e-08
-2.46277e-06
2.60526e-08
-2.4876e-06
2.48247e-08
-2.51116e-06
2.35612e-08
-2.53342e-06
2.22628e-08
-2.55435e-06
2.09299e-08
-2.57391e-06
1.95625e-08
-2.59207e-06
1.81604e-08
-2.6088e-06
1.67227e-08
-2.62404e-06
1.52477e-08
-2.63778e-06
1.37327e-08
-2.64995e-06
1.2174e-08
-2.66052e-06
1.05649e-08
-2.66941e-06
8.89625e-09
-2.67657e-06
7.15532e-09
-2.68189e-06
5.32415e-09
-2.68528e-06
3.39082e-09
-2.68664e-06
1.35315e-09
-2.68597e-06
-6.61984e-10
-2.68361e-06
-2.36324e-09
-2.67962e-06
-3.98791e-09
-2.67404e-06
-5.58598e-09
-2.66686e-06
-7.17905e-09
-2.65808e-06
-8.77771e-09
-2.6477e-06
-1.03833e-08
-2.6357e-06
-1.1995e-08
-2.62209e-06
-1.3611e-08
-2.60686e-06
-1.52291e-08
-2.59001e-06
-1.68471e-08
-2.57155e-06
-1.84628e-08
-2.55148e-06
-2.00739e-08
-2.5298e-06
-2.16781e-08
-2.50653e-06
-2.32731e-08
-2.48167e-06
-2.48569e-08
-2.45524e-06
-2.64269e-08
-2.42726e-06
-2.79811e-08
-2.39774e-06
-2.95172e-08
-2.36671e-06
-3.10331e-08
-2.33419e-06
-3.25264e-08
-2.30019e-06
-3.39951e-08
-2.26475e-06
-3.54371e-08
-2.2279e-06
-3.68503e-08
-2.18967e-06
-3.82329e-08
-2.15009e-06
-3.95829e-08
-2.10919e-06
-4.08986e-08
-2.06701e-06
-4.21782e-08
-2.02359e-06
-4.34198e-08
-1.97897e-06
-4.46218e-08
-1.93319e-06
-4.57826e-08
-1.88629e-06
-4.69007e-08
-1.83831e-06
-4.79748e-08
-1.78931e-06
-4.90037e-08
-1.73932e-06
-4.99864e-08
-1.6884e-06
-5.09218e-08
-1.63659e-06
-5.1809e-08
-1.58394e-06
-5.26471e-08
-1.53051e-06
-5.34356e-08
-1.47633e-06
-5.41741e-08
-1.42147e-06
-5.48624e-08
-1.36597e-06
-5.55004e-08
-1.30988e-06
-5.60879e-08
-1.25326e-06
-5.66252e-08
-1.19614e-06
-5.71128e-08
-1.13859e-06
-5.75513e-08
-1.08065e-06
-5.79415e-08
-1.02237e-06
-5.82841e-08
-9.63787e-07
-5.85805e-08
-9.04954e-07
-5.8832e-08
-8.45914e-07
-5.90403e-08
-7.86707e-07
-5.92069e-08
-7.27374e-07
-5.93338e-08
-6.6795e-07
-5.94231e-08
-6.08474e-07
-5.9477e-08
-5.48976e-07
-5.94977e-08
-4.89488e-07
-5.94876e-08
-4.30039e-07
-5.94487e-08
-3.70657e-07
-5.93828e-08
-3.11366e-07
-5.92907e-08
-2.52192e-07
-5.91735e-08
-1.93166e-07
-5.90267e-08
-1.34315e-07
-5.88508e-08
-7.56705e-08
-5.86444e-08
-1.72754e-08
-5.83951e-08
4.08328e-08
-5.81083e-08
9.86143e-08
-5.77815e-08
1.56066e-07
-5.7452e-08
2.132e-07
-5.71337e-08
2.70006e-07
-5.68059e-08
3.26433e-07
-5.64268e-08
3.82362e-07
-5.59294e-08
4.37551e-07
-5.51886e-08
4.915e-07
-5.39494e-08
5.43077e-07
-5.15773e-08
5.89596e-07
-4.65189e-08
6.24271e-07
-3.46751e-08
2.39223e-09
6.21879e-07
9.60339e-09
-1.51492e-08
2.05279e-08
-2.14503e-08
2.90003e-08
-2.07088e-08
3.47956e-08
-1.77714e-08
3.82612e-08
-1.39791e-08
3.97006e-08
-9.85891e-09
3.93178e-08
-5.69858e-09
3.72615e-08
-1.67567e-09
3.36559e-08
2.10538e-09
2.85981e-08
5.58869e-09
2.21143e-08
8.75636e-09
1.41875e-08
1.16234e-08
4.79605e-09
1.42421e-08
-6.07601e-09
1.6694e-08
-1.84454e-08
1.90721e-08
-3.23389e-08
2.14631e-08
-4.7798e-08
2.39364e-08
-6.48792e-08
2.65409e-08
-8.3654e-08
2.93052e-08
-1.04203e-07
3.22411e-08
-1.26596e-07
3.53512e-08
-1.50887e-07
3.86324e-08
-1.77121e-07
4.20729e-08
-2.05319e-07
4.56517e-08
-2.3548e-07
4.93385e-08
-2.67576e-07
5.30955e-08
-3.01552e-07
5.68788e-08
-3.37324e-07
6.06402e-08
-3.7478e-07
6.43294e-08
-4.13784e-07
6.78957e-08
-4.5418e-07
7.12909e-08
-4.95798e-07
7.44712e-08
-5.38457e-07
7.73993e-08
-5.81976e-07
8.0046e-08
-6.26172e-07
8.23906e-08
-6.70874e-07
8.44222e-08
-7.1592e-07
8.61383e-08
-7.61163e-07
8.7545e-08
-8.06474e-07
8.86556e-08
-8.51743e-07
8.94889e-08
-8.9688e-07
9.00684e-08
-9.4181e-07
9.04205e-08
-9.8648e-07
9.05734e-08
-1.03085e-06
9.05561e-08
-1.0749e-06
9.03972e-08
-1.11862e-06
9.01247e-08
-1.162e-06
8.97666e-08
-1.20505e-06
8.9351e-08
-1.24777e-06
8.89029e-08
-1.29013e-06
8.84364e-08
-1.33214e-06
8.79555e-08
-1.37378e-06
8.74613e-08
-1.41506e-06
8.69537e-08
-1.45598e-06
8.64318e-08
-1.49652e-06
8.58938e-08
-1.5367e-06
8.53374e-08
-1.57649e-06
8.47597e-08
-1.61589e-06
8.41574e-08
-1.6549e-06
8.35267e-08
-1.69348e-06
8.28637e-08
-1.73164e-06
8.21645e-08
-1.76935e-06
8.14248e-08
-1.80659e-06
8.06407e-08
-1.84335e-06
7.98082e-08
-1.87959e-06
7.89235e-08
-1.9153e-06
7.79832e-08
-1.95044e-06
7.69838e-08
-1.98499e-06
7.59224e-08
-2.01892e-06
7.47963e-08
-2.05221e-06
7.36031e-08
-2.08481e-06
7.23409e-08
-2.11671e-06
7.10079e-08
-2.14786e-06
6.96028e-08
-2.17824e-06
6.81245e-08
-2.20782e-06
6.65725e-08
-2.23656e-06
6.49464e-08
-2.26443e-06
6.32461e-08
-2.29139e-06
6.14717e-08
-2.31743e-06
5.9624e-08
-2.3425e-06
5.77035e-08
-2.36658e-06
5.57112e-08
-2.38964e-06
5.36482e-08
-2.41164e-06
5.15158e-08
-2.43255e-06
4.93153e-08
-2.45236e-06
4.70481e-08
-2.47102e-06
4.47159e-08
-2.48852e-06
4.23199e-08
-2.50482e-06
3.98614e-08
-2.5199e-06
3.73418e-08
-2.53373e-06
3.47619e-08
-2.54629e-06
3.21224e-08
-2.55755e-06
2.94237e-08
-2.56749e-06
2.66658e-08
-2.57609e-06
2.38482e-08
-2.58333e-06
2.09702e-08
-2.58919e-06
1.8031e-08
-2.59365e-06
1.50299e-08
-2.59673e-06
1.19674e-08
-2.59842e-06
8.84631e-09
-2.59877e-06
5.67584e-09
-2.59786e-06
2.48085e-09
-2.59582e-06
-6.87374e-10
-2.59263e-06
-3.84906e-09
-2.58806e-06
-6.93466e-09
-2.582e-06
-1.00427e-08
-2.57442e-06
-1.31732e-08
-2.56527e-06
-1.63237e-08
-2.55456e-06
-1.94935e-08
-2.54226e-06
-2.26798e-08
-2.52838e-06
-2.5879e-08
-2.5129e-06
-2.90868e-08
-2.49583e-06
-3.22988e-08
-2.47717e-06
-3.55104e-08
-2.45691e-06
-3.87173e-08
-2.43507e-06
-4.19147e-08
-2.41165e-06
-4.50983e-08
-2.38666e-06
-4.82635e-08
-2.36011e-06
-5.14059e-08
-2.33202e-06
-5.45211e-08
-2.30239e-06
-5.76046e-08
-2.27126e-06
-6.06521e-08
-2.23863e-06
-6.3659e-08
-2.20454e-06
-6.66211e-08
-2.169e-06
-6.9534e-08
-2.13204e-06
-7.23937e-08
-2.0937e-06
-7.51961e-08
-2.05399e-06
-7.79374e-08
-2.01296e-06
-8.06137e-08
-1.97064e-06
-8.32216e-08
-1.92706e-06
-8.57574e-08
-1.88226e-06
-8.82177e-08
-1.83629e-06
-9.05991e-08
-1.78917e-06
-9.28984e-08
-1.74096e-06
-9.51126e-08
-1.69169e-06
-9.72391e-08
-1.64142e-06
-9.92756e-08
-1.59019e-06
-1.0122e-07
-1.53804e-06
-1.0307e-07
-1.48502e-06
-1.04824e-07
-1.43119e-06
-1.06481e-07
-1.37659e-06
-1.08038e-07
-1.32127e-06
-1.09496e-07
-1.26527e-06
-1.10854e-07
-1.20866e-06
-1.12112e-07
-1.15148e-06
-1.13269e-07
-1.09378e-06
-1.14326e-07
-1.03561e-06
-1.15285e-07
-9.77015e-07
-1.16145e-07
-9.18047e-07
-1.16909e-07
-8.58752e-07
-1.17579e-07
-7.99175e-07
-1.18157e-07
-7.39362e-07
-1.18646e-07
-6.79354e-07
-1.19048e-07
-6.19194e-07
-1.19368e-07
-5.58919e-07
-1.19608e-07
-4.98568e-07
-1.19774e-07
-4.38175e-07
-1.1987e-07
-3.77772e-07
-1.199e-07
-3.17391e-07
-1.19869e-07
-2.57058e-07
-1.19781e-07
-1.96801e-07
-1.1964e-07
-1.36644e-07
-1.19448e-07
-7.66093e-08
-1.19208e-07
-1.67199e-08
-1.18916e-07
4.29994e-08
-1.1857e-07
1.02523e-07
-1.18168e-07
1.61835e-07
-1.17707e-07
2.20923e-07
-1.17196e-07
2.79787e-07
-1.16645e-07
3.38414e-07
-1.1608e-07
3.96784e-07
-1.15503e-07
4.54858e-07
-1.1488e-07
5.12566e-07
-1.14135e-07
5.69776e-07
-1.13139e-07
6.26238e-07
-1.11651e-07
6.81488e-07
-1.09199e-07
7.34611e-07
-1.047e-07
7.84099e-07
-9.60072e-08
8.26739e-07
-7.73151e-08
-3.34188e-08
8.6255e-07
8.19355e-09
-2.33428e-08
1.40716e-08
-2.73284e-08
1.6695e-08
-2.33323e-08
1.68413e-08
-1.79177e-08
1.50866e-08
-1.22244e-08
1.1764e-08
-6.53627e-09
7.04818e-09
-9.82751e-10
1.01998e-09
4.35253e-09
-6.30453e-09
9.42989e-09
-1.49482e-08
1.42323e-08
-2.49609e-08
1.87691e-08
-3.64105e-08
2.3073e-08
-4.93686e-08
2.72003e-08
-6.38992e-08
3.12246e-08
-8.00535e-08
3.52264e-08
-9.7871e-08
3.92806e-08
-1.17382e-07
4.34478e-08
-1.38611e-07
4.77694e-08
-1.61572e-07
5.22667e-08
-1.86273e-07
5.69419e-08
-2.12704e-07
6.17821e-08
-2.40834e-07
6.67622e-08
-2.70608e-07
7.18471e-08
-3.01949e-07
7.69923e-08
-3.34756e-07
8.21457e-08
-3.68909e-07
8.72491e-08
-4.04272e-07
9.22414e-08
-4.40693e-07
9.70613e-08
-4.78014e-07
1.0165e-07
-5.16073e-07
1.05955e-07
-5.54712e-07
1.09929e-07
-5.93778e-07
1.13538e-07
-6.33133e-07
1.16754e-07
-6.72651e-07
1.19564e-07
-7.12224e-07
1.21964e-07
-7.51764e-07
1.23962e-07
-7.91198e-07
1.25572e-07
-8.30471e-07
1.26818e-07
-8.69544e-07
1.27729e-07
-9.08392e-07
1.28337e-07
-9.47001e-07
1.28677e-07
-9.85365e-07
1.28785e-07
-1.02349e-06
1.28696e-07
-1.06138e-06
1.28445e-07
-1.09904e-06
1.28061e-07
-1.13649e-06
1.27576e-07
-1.17374e-06
1.27013e-07
-1.21078e-06
1.26397e-07
-1.24762e-06
1.25744e-07
-1.28425e-06
1.25066e-07
-1.32067e-06
1.24368e-07
-1.35686e-06
1.23651e-07
-1.39282e-06
1.22917e-07
-1.42855e-06
1.22164e-07
-1.46405e-06
1.21387e-07
-1.49929e-06
1.20584e-07
-1.53428e-06
1.19749e-07
-1.569e-06
1.18878e-07
-1.60344e-06
1.17965e-07
-1.63758e-06
1.17004e-07
-1.67141e-06
1.15989e-07
-1.7049e-06
1.14915e-07
-1.73803e-06
1.13775e-07
-1.77079e-06
1.12564e-07
-1.80314e-06
1.11277e-07
-1.83507e-06
1.09909e-07
-1.86654e-06
1.08455e-07
-1.89753e-06
1.06912e-07
-1.92801e-06
1.05274e-07
-1.95794e-06
1.0354e-07
-1.98731e-06
1.01706e-07
-2.01607e-06
9.97697e-08
-2.0442e-06
9.77295e-08
-2.07165e-06
9.55839e-08
-2.09841e-06
9.33319e-08
-2.12444e-06
9.0973e-08
-2.1497e-06
8.85069e-08
-2.17416e-06
8.59341e-08
-2.1978e-06
8.3255e-08
-2.22056e-06
8.04707e-08
-2.24243e-06
7.75825e-08
-2.26338e-06
7.45918e-08
-2.28336e-06
7.15005e-08
-2.30236e-06
6.83104e-08
-2.32033e-06
6.50236e-08
-2.33726e-06
6.16424e-08
-2.35311e-06
5.81689e-08
-2.36785e-06
5.46052e-08
-2.38146e-06
5.09536e-08
-2.39392e-06
4.72159e-08
-2.40519e-06
4.33941e-08
-2.41526e-06
3.94897e-08
-2.42409e-06
3.55044e-08
-2.43169e-06
3.14398e-08
-2.43801e-06
2.72976e-08
-2.44306e-06
2.30804e-08
-2.44682e-06
1.87918e-08
-2.44929e-06
1.44373e-08
-2.45047e-06
1.00255e-08
-2.45037e-06
5.56962e-09
-2.44897e-06
1.08733e-09
-2.44626e-06
-3.40058e-09
-2.4422e-06
-7.90706e-09
-2.4367e-06
-1.24371e-08
-2.42973e-06
-1.70128e-08
-2.42127e-06
-2.16322e-08
-2.4113e-06
-2.62902e-08
-2.39982e-06
-3.0981e-08
-2.3868e-06
-3.5698e-08
-2.37224e-06
-4.0435e-08
-2.35614e-06
-4.51852e-08
-2.3385e-06
-4.99418e-08
-2.31931e-06
-5.46981e-08
-2.29858e-06
-5.94474e-08
-2.27632e-06
-6.41828e-08
-2.25252e-06
-6.88977e-08
-2.22719e-06
-7.35854e-08
-2.20036e-06
-7.82394e-08
-2.17203e-06
-8.28531e-08
-2.14221e-06
-8.74199e-08
-2.11093e-06
-9.19332e-08
-2.0782e-06
-9.63867e-08
-2.04405e-06
-1.00774e-07
-2.0085e-06
-1.05088e-07
-1.97157e-06
-1.09323e-07
-1.93329e-06
-1.13473e-07
-1.8937e-06
-1.17533e-07
-1.85281e-06
-1.21496e-07
-1.81068e-06
-1.25357e-07
-1.76732e-06
-1.29112e-07
-1.72279e-06
-1.32754e-07
-1.67711e-06
-1.3628e-07
-1.63032e-06
-1.39684e-07
-1.58247e-06
-1.42961e-07
-1.5336e-06
-1.46108e-07
-1.48376e-06
-1.49121e-07
-1.43298e-06
-1.51998e-07
-1.38131e-06
-1.54735e-07
-1.32881e-06
-1.57329e-07
-1.27551e-06
-1.59778e-07
-1.22147e-06
-1.6208e-07
-1.16673e-06
-1.64235e-07
-1.11135e-06
-1.66241e-07
-1.05536e-06
-1.68097e-07
-9.98824e-07
-1.69805e-07
-9.41785e-07
-1.71365e-07
-8.84293e-07
-1.72777e-07
-8.26394e-07
-1.74044e-07
-7.68134e-07
-1.75169e-07
-7.09561e-07
-1.76153e-07
-6.50717e-07
-1.77001e-07
-5.91647e-07
-1.77716e-07
-5.32391e-07
-1.78303e-07
-4.72991e-07
-1.78768e-07
-4.13484e-07
-1.79116e-07
-3.53905e-07
-1.79353e-07
-2.94289e-07
-1.79486e-07
-2.34667e-07
-1.79522e-07
-1.75069e-07
-1.79467e-07
-1.15521e-07
-1.79329e-07
-5.60481e-08
-1.79113e-07
3.32828e-09
-1.78824e-07
6.25855e-08
-1.78465e-07
1.21704e-07
-1.78035e-07
1.80667e-07
-1.77533e-07
2.3946e-07
-1.76961e-07
2.98079e-07
-1.76327e-07
3.56532e-07
-1.75649e-07
4.14822e-07
-1.74935e-07
4.72926e-07
-1.74184e-07
5.30808e-07
-1.73385e-07
5.88419e-07
-1.72491e-07
6.45684e-07
-1.714e-07
7.02473e-07
-1.69928e-07
7.58564e-07
-1.67742e-07
8.13575e-07
-1.64211e-07
8.66908e-07
-1.58033e-07
9.17712e-07
-1.46811e-07
9.65406e-07
-1.25009e-07
-8.19761e-08
1.01396e-06
3.77684e-09
-2.71196e-08
3.47982e-09
-2.70314e-08
7.64262e-10
-2.06167e-08
-3.58286e-09
-1.35706e-08
-9.25731e-09
-6.54993e-09
-1.61127e-08
3.19139e-10
-2.40871e-08
6.99161e-09
-3.31875e-08
1.34529e-08
-4.34515e-08
1.96939e-08
-5.49389e-08
2.57197e-08
-6.77205e-08
3.15507e-08
-8.18709e-08
3.72234e-08
-9.74591e-08
4.27885e-08
-1.14541e-07
4.83061e-08
-1.33152e-07
5.38379e-08
-1.5331e-07
5.94382e-08
-1.7501e-07
6.51481e-08
-1.98231e-07
7.09904e-08
-2.22933e-07
7.69689e-08
-2.4906e-07
8.30688e-08
-2.76538e-07
8.92602e-08
-3.05276e-07
9.55002e-08
-3.35166e-07
1.01737e-07
-3.66084e-07
1.07911e-07
-3.97897e-07
1.13959e-07
-4.30465e-07
1.19817e-07
-4.63645e-07
1.25422e-07
-4.97299e-07
1.30715e-07
-5.31294e-07
1.35646e-07
-5.65512e-07
1.40172e-07
-5.99846e-07
1.44264e-07
-6.34208e-07
1.479e-07
-6.68527e-07
1.51073e-07
-7.02749e-07
1.53786e-07
-7.36836e-07
1.56051e-07
-7.70765e-07
1.57891e-07
-8.04524e-07
1.59331e-07
-8.38112e-07
1.60407e-07
-8.71537e-07
1.61153e-07
-9.04808e-07
1.61608e-07
-9.37941e-07
1.6181e-07
-9.70951e-07
1.61795e-07
-1.00385e-06
1.616e-07
-1.03667e-06
1.61255e-07
-1.0694e-06
1.60791e-07
-1.10205e-06
1.60233e-07
-1.13464e-06
1.59603e-07
-1.16716e-06
1.58917e-07
-1.19961e-06
1.58191e-07
-1.23198e-06
1.57431e-07
-1.26425e-06
1.56644e-07
-1.29643e-06
1.55829e-07
-1.3285e-06
1.54988e-07
-1.36045e-06
1.54116e-07
-1.39227e-06
1.53209e-07
-1.42395e-06
1.52263e-07
-1.45548e-06
1.51271e-07
-1.48682e-06
1.50227e-07
-1.51798e-06
1.49123e-07
-1.54893e-06
1.47952e-07
-1.57965e-06
1.46707e-07
-1.61012e-06
1.45381e-07
-1.64031e-06
1.43965e-07
-1.6702e-06
1.42454e-07
-1.69976e-06
1.40841e-07
-1.72897e-06
1.39119e-07
-1.7578e-06
1.37283e-07
-1.78621e-06
1.35328e-07
-1.81419e-06
1.33249e-07
-1.84169e-06
1.31042e-07
-1.86869e-06
1.28703e-07
-1.89515e-06
1.2623e-07
-1.92104e-06
1.2362e-07
-1.94633e-06
1.20872e-07
-1.97098e-06
1.17983e-07
-1.99496e-06
1.14954e-07
-2.01824e-06
1.11785e-07
-2.04078e-06
1.08474e-07
-2.06255e-06
1.05025e-07
-2.08351e-06
1.01437e-07
-2.10364e-06
9.77123e-08
-2.1229e-06
9.3853e-08
-2.14127e-06
8.98615e-08
-2.1587e-06
8.57402e-08
-2.17516e-06
8.1492e-08
-2.19064e-06
7.71199e-08
-2.2051e-06
7.26268e-08
-2.21851e-06
6.8016e-08
-2.23085e-06
6.32906e-08
-2.24208e-06
5.84537e-08
-2.2522e-06
5.35084e-08
-2.26117e-06
4.84577e-08
-2.26897e-06
4.33046e-08
-2.27558e-06
3.80523e-08
-2.28099e-06
3.27045e-08
-2.28517e-06
2.72654e-08
-2.28812e-06
2.17404e-08
-2.28982e-06
1.61362e-08
-2.29025e-06
1.04613e-08
-2.28941e-06
4.72567e-09
-2.28726e-06
-1.06038e-09
-2.28377e-06
-6.89015e-09
-2.27891e-06
-1.27692e-08
-2.27264e-06
-1.87065e-08
-2.26495e-06
-2.47085e-08
-2.25581e-06
-3.07703e-08
-2.24521e-06
-3.6885e-08
-2.23315e-06
-4.30439e-08