/*--------------------------------*- C++ -*----------------------------------*\
| =========                 |                                                 |
| \\      /  F ield         | OpenFOAM: The Open Source CFD Toolbox           |
|  \\    /   O peration     | Version:  2112                                  |
|   \\  /    A nd           | Website:  www.openfoam.com                      |
|    \\/     M anipulation  |                                                 |
\*---------------------------------------------------------------------------*/
FoamFile
{
    version     2.0;
    format      ascii;
    arch        "LSB;label=32;scalar=64";
    class       surfaceScalarField;
    location    "0.23";
    object      ddtCorrDdt0(phi);
}
// * * * * * * * * * * * * * * * * * * * * * * * * * * * * * * * * * * * * * //

dimensions      [0 3 -2 0 0 0 0];

oriented        oriented;

internalField   nonuniform List<scalar> 
25468
(
8.70101e-10
-8.71047e-10
2.44503e-09
-1.57836e-09
4.6053e-09
-2.16444e-09
7.28143e-09
-2.68115e-09
1.00485e-08
-2.77279e-09
1.30144e-08
-2.97201e-09
1.64591e-08
-3.45159e-09
2.0486e-08
-4.03397e-09
2.51412e-08
-4.66449e-09
3.00075e-08
-4.87682e-09
3.52457e-08
-5.253e-09
4.15088e-08
-6.28088e-09
4.76654e-08
-6.17901e-09
5.39441e-08
-6.3053e-09
6.12389e-08
-7.32598e-09
6.92555e-08
-8.05165e-09
7.7539e-08
-8.3215e-09
8.55995e-08
-8.09976e-09
9.34934e-08
-7.93324e-09
1.01342e-07
-7.88657e-09
1.09152e-07
-7.84549e-09
1.16875e-07
-7.75785e-09
1.24141e-07
-7.29897e-09
1.30828e-07
-6.71882e-09
1.37752e-07
-6.95094e-09
1.43817e-07
-6.08841e-09
1.49955e-07
-6.15605e-09
1.57461e-07
-7.52001e-09
1.66236e-07
-8.78395e-09
1.74314e-07
-8.08363e-09
1.79313e-07
-4.9993e-09
1.8304e-07
-3.72288e-09
1.87544e-07
-4.4979e-09
1.9075e-07
-3.20032e-09
1.94031e-07
-3.27508e-09
1.97901e-07
-3.8659e-09
2.02457e-07
-4.54934e-09
2.09246e-07
-6.77785e-09
2.18577e-07
-9.31213e-09
-2.04265e-07
4.22884e-07
4.89826e-09
-5.77167e-09
1.4258e-08
-1.09455e-08
2.72762e-08
-1.51916e-08
4.35066e-08
-1.89223e-08
6.03451e-08
-1.96234e-08
7.83997e-08
-2.10397e-08
9.92785e-08
-2.4345e-08
1.23634e-07
-2.84045e-08
1.5175e-07
-3.28009e-08
1.81119e-07
-3.4268e-08
2.13292e-07
-3.74581e-08
2.51331e-07
-4.43585e-08
2.87748e-07
-4.26439e-08
3.25238e-07
-4.38519e-08
3.69222e-07
-5.13753e-08
4.1728e-07
-5.6183e-08
4.66337e-07
-5.74572e-08
5.13923e-07
-5.5766e-08
5.60903e-07
-5.49918e-08
6.07724e-07
-5.47828e-08
6.54285e-07
-5.44784e-08
7.00135e-07
-5.36759e-08
7.43526e-07
-5.07521e-08
7.84418e-07
-4.76715e-08
8.26818e-07
-4.94003e-08
8.6407e-07
-4.33827e-08
9.06036e-07
-4.81554e-08
9.52734e-07
-5.42425e-08
1.00015e-06
-5.6214e-08
1.04431e-06
-5.22535e-08
1.09205e-06
-5.27434e-08
1.13928e-06
-5.09455e-08
1.17237e-06
-3.75871e-08
1.19415e-06
-2.49709e-08
1.21482e-06
-2.39356e-08
1.2383e-06
-2.73455e-08
1.26438e-06
-3.06217e-08
1.30019e-06
-4.25664e-08
1.34338e-06
-5.24762e-08
-3.4204e-07
1.4812e-06
1.5707e-08
-2.14835e-08
4.83822e-08
-4.36347e-08
9.49101e-08
-6.17363e-08
1.54251e-07
-7.82832e-08
2.16096e-07
-8.14909e-08
2.82863e-07
-8.78313e-08
3.59829e-07
-1.01337e-07
4.49511e-07
-1.18116e-07
5.53172e-07
-1.36499e-07
6.61959e-07
-1.43097e-07
7.83399e-07
-1.58957e-07
9.28226e-07
-1.89257e-07
1.06491e-06
-1.79413e-07
1.20491e-06
-1.83953e-07
1.37062e-06
-2.17204e-07
1.54971e-06
-2.354e-07
1.73097e-06
-2.38854e-07
1.90763e-06
-2.32564e-07
2.08406e-06
-2.31548e-07
2.26135e-06
-2.32203e-07
2.43824e-06
-2.31483e-07
2.61251e-06
-2.28045e-07
2.77726e-06
-2.15603e-07
2.93636e-06
-2.0686e-07
3.10119e-06
-2.14293e-07
3.25465e-06
-1.96903e-07
3.42942e-06
-2.22978e-07
3.60173e-06
-2.26588e-07
3.76758e-06
-2.22088e-07
3.93794e-06
-2.22622e-07
4.10523e-06
-2.20044e-07
4.25498e-06
-2.00685e-07
4.37638e-06
-1.58992e-07
4.46974e-06
-1.18321e-07
4.55613e-06
-1.10328e-07
4.64765e-06
-1.18855e-07
4.74897e-06
-1.31929e-07
4.86693e-06
-1.60516e-07
4.99816e-06
-1.83675e-07
-3.73573e-07
5.02974e-06
3.38581e-08
-5.53503e-08
1.18455e-07
-1.28256e-07
2.46526e-07
-1.89837e-07
4.18195e-07
-2.49986e-07
5.99048e-07
-2.62382e-07
7.97241e-07
-2.86066e-07
1.02474e-06
-3.28877e-07
1.28884e-06
-3.82267e-07
1.59494e-06
-4.4266e-07
1.91934e-06
-4.67565e-07
2.28795e-06
-5.27659e-07
2.76589e-06
-6.67312e-07
3.1969e-06
-6.10555e-07
3.60368e-06
-5.90891e-07
4.10731e-06
-7.21008e-07
4.64446e-06
-7.72732e-07
5.17671e-06
-7.71292e-07
5.7056e-06
-7.61641e-07
6.24445e-06
-7.7057e-07
6.79574e-06
-7.83651e-07
7.34814e-06
-7.84018e-07
7.89572e-06
-7.75752e-07
8.42836e-06
-7.48355e-07
8.93219e-06
-7.10792e-07
9.47446e-06
-7.56638e-07
1.00045e-05
-7.2706e-07
1.05668e-05
-7.8532e-07
1.12038e-05
-8.63565e-07
1.1889e-05
-9.0737e-07
1.23589e-05
-6.92527e-07
1.26475e-05
-5.0862e-07
1.29558e-05
-5.08963e-07
1.33006e-05
-5.03788e-07
1.36515e-05
-4.69288e-07
1.39899e-05
-4.48675e-07
1.43159e-05
-4.44899e-07
1.46364e-05
-4.52363e-07
1.49499e-05
-4.7398e-07
1.52662e-05
-5.00037e-07
-6.10952e-07
1.55037e-05
3.81649e-08
-9.35303e-08
1.69907e-07
-2.60038e-07
4.0975e-07
-4.29724e-07
7.84451e-07
-6.2474e-07
1.20165e-06
-6.79642e-07
1.67336e-06
-7.57832e-07
2.21436e-06
-8.69939e-07
2.83422e-06
-1.0022e-06
3.56054e-06
-1.16906e-06
4.32027e-06
-1.2274e-06
5.26098e-06
-1.46849e-06
6.3559e-06
-1.76238e-06
7.57212e-06
-1.82695e-06
8.86275e-06
-1.88171e-06
1.00941e-05
-1.9526e-06
1.13184e-05
-1.99725e-06
1.25239e-05
-1.97698e-06
1.3768e-05
-2.00596e-06
1.51054e-05
-2.10815e-06
1.65235e-05
-2.20183e-06
1.79619e-05
-2.22262e-06
1.9411e-05
-2.22498e-06
2.08613e-05
-2.1987e-06
2.23095e-05
-2.15913e-06
2.37417e-05
-2.18885e-06
2.52469e-05
-2.2324e-06
2.66277e-05
-2.1661e-06
2.79116e-05
-2.14754e-06
2.91298e-05
-2.12555e-06
3.04263e-05
-1.98912e-06
3.17531e-05
-1.83535e-06
3.29508e-05
-1.70675e-06
3.40642e-05
-1.61717e-06
3.51395e-05
-1.54459e-06
3.61625e-05
-1.4717e-06
3.7127e-05
-1.40938e-06
3.8031e-05
-1.35628e-06
3.88674e-05
-1.31041e-06
3.96348e-05
-1.26737e-06
-1.22126e-06
4.02451e-05
4.77054e-08
-1.4126e-07
1.27002e-07
-3.39388e-07
4.01855e-07
-7.04636e-07
8.59035e-07
-1.08199e-06
1.3972e-06
-1.21787e-06
2.05925e-06
-1.41996e-06
2.87271e-06
-1.68348e-06
3.81793e-06
-1.94749e-06
4.91569e-06
-2.26693e-06
6.22358e-06
-2.5354e-06
7.64118e-06
-2.88622e-06
9.23739e-06
-3.35874e-06
1.10567e-05
-3.64643e-06
1.30492e-05
-3.87444e-06
1.51661e-05
-4.06968e-06
1.74244e-05
-4.25571e-06
1.98017e-05
-4.35455e-06
2.22401e-05
-4.44447e-06
2.47045e-05
-4.57279e-06
2.72311e-05
-4.7285e-06
2.98199e-05
-4.81162e-06
3.24431e-05
-4.84824e-06
3.51329e-05
-4.88865e-06
3.78442e-05
-4.87054e-06
4.05009e-05
-4.84559e-06
4.30801e-05
-4.81161e-06
4.56198e-05
-4.70594e-06
4.81134e-05
-4.64113e-06
5.0482e-05
-4.49422e-06
5.28124e-05
-4.31951e-06
5.50855e-05
-4.10842e-06
5.72731e-05
-3.89445e-06
5.93655e-05
-3.70953e-06
6.13581e-05
-3.53726e-06
6.32495e-05
-3.36308e-06
6.50276e-05
-3.18742e-06
6.6683e-05
-3.01175e-06
6.82101e-05
-2.8374e-06
6.96099e-05
-2.66722e-06
-2.50492e-06
7.08936e-05
1.27974e-07
-2.69269e-07
2.89689e-07
-5.01161e-07
5.86843e-07
-1.00185e-06
1.01905e-06
-1.51425e-06
1.54927e-06
-1.74817e-06
2.22882e-06
-2.09957e-06
3.05556e-06
-2.51029e-06
4.06475e-06
-2.95676e-06
5.22681e-06
-3.42907e-06
6.59008e-06
-3.89878e-06
8.02984e-06
-4.32611e-06
9.55726e-06
-4.8863e-06
1.13496e-05
-5.4389e-06
1.32675e-05
-5.79249e-06
1.52586e-05
-6.061e-06
1.7396e-05
-6.39334e-06
1.97218e-05
-6.6805e-06
2.21557e-05
-6.87857e-06
2.46897e-05
-7.10688e-06
2.72643e-05
-7.30331e-06
2.98491e-05
-7.39656e-06
3.24626e-05
-7.46181e-06
3.51446e-05
-7.57083e-06
3.77463e-05
-7.47232e-06
4.03685e-05
-7.46788e-06
4.2905e-05
-7.34815e-06
4.53625e-05
-7.16352e-06
4.77043e-05
-6.98296e-06
5.00061e-05
-6.79611e-06
5.2236e-05
-6.54944e-06
5.43933e-05
-6.26573e-06
5.64677e-05
-5.96885e-06
5.84338e-05
-5.67572e-06
6.02774e-05
-5.38083e-06
6.19982e-05
-5.08385e-06
6.35985e-05
-4.78779e-06
6.50844e-05
-4.49763e-06
6.64624e-05
-4.21541e-06
6.77397e-05
-3.94449e-06
-3.69885e-06
6.89336e-05
1.82819e-07
-4.52129e-07
5.74591e-07
-8.92979e-07
1.10082e-06
-1.52813e-06
1.61329e-06
-2.02676e-06
2.32985e-06
-2.46478e-06
3.24406e-06
-3.01384e-06
4.33996e-06
-3.60624e-06
5.59972e-06
-4.21659e-06
6.99639e-06
-4.82582e-06
8.44964e-06
-5.35212e-06
1.0035e-05
-5.9116e-06
1.16838e-05
-6.53521e-06
1.33911e-05
-7.14642e-06
1.51934e-05
-7.5949e-06
1.71145e-05
-7.98231e-06
1.90664e-05
-8.34545e-06
2.10691e-05
-8.68333e-06
2.31211e-05
-8.93082e-06
2.51576e-05
-9.14352e-06
2.7134e-05
-9.27992e-06
2.9107e-05
-9.36969e-06
3.10659e-05
-9.42084e-06
3.28417e-05
-9.34673e-06
3.46453e-05
-9.2761e-06
3.63564e-05
-9.17899e-06
3.80566e-05
-9.04844e-06
3.97175e-05
-8.82454e-06
4.12382e-05
-8.50368e-06
4.25736e-05
-8.13164e-06
4.3806e-05
-7.78185e-06
4.49226e-05
-7.38233e-06
4.5921e-05
-6.96733e-06
4.68354e-05
-6.59013e-06
4.76706e-05
-6.21606e-06
4.8436e-05
-5.84921e-06
4.91403e-05
-5.49215e-06
4.97892e-05
-5.14654e-06
5.03869e-05
-4.81303e-06
5.09355e-05
-4.49314e-06
-4.18189e-06
5.14186e-05
1.68807e-07
-6.20971e-07
9.07026e-07
-1.63123e-06
1.84397e-06
-2.46511e-06
2.81872e-06
-3.00155e-06
4.13663e-06
-3.78272e-06
5.66747e-06
-4.54471e-06
7.38816e-06
-5.32698e-06
9.28776e-06
-6.11625e-06
1.12762e-05
-6.81433e-06
1.34208e-05
-7.49678e-06
1.57146e-05
-8.20552e-06
1.80473e-05
-8.86813e-06
2.03358e-05
-9.43504e-06
2.26678e-05
-9.92712e-06
2.50465e-05
-1.03612e-05
2.73611e-05
-1.06602e-05
2.96608e-05
-1.09832e-05
3.18184e-05
-1.10886e-05
3.39107e-05
-1.1236e-05
3.56996e-05
-1.1069e-05
3.74615e-05
-1.11317e-05
3.8799e-05
-1.07585e-05
4.02267e-05
-1.07746e-05
4.10488e-05
-1.00983e-05
4.21122e-05
-1.02425e-05
4.23154e-05
-9.25168e-06
4.33974e-05
-9.9066e-06
4.42602e-05
-9.36651e-06
4.48667e-05
-8.73819e-06
4.52952e-05
-8.21046e-06
4.55532e-05
-7.64036e-06
4.58363e-05
-7.2504e-06
4.60597e-05
-6.8136e-06
4.62353e-05
-6.39174e-06
4.63698e-05
-5.9837e-06
4.64678e-05
-5.59013e-06
4.65335e-05
-5.2123e-06
4.6572e-05
-4.85153e-06
4.65873e-05
-4.50851e-06
-4.18706e-06
4.65925e-05
1.86186e-07
-8.07179e-07
8.94554e-07
-2.33962e-06
2.06405e-06
-3.63463e-06
3.75675e-06
-4.69427e-06
5.78148e-06
-5.80747e-06
8.06839e-06
-6.83165e-06
1.05014e-05
-7.76e-06
1.30158e-05
-8.6307e-06
1.56731e-05
-9.47168e-06
1.84247e-05
-1.02485e-05
2.11563e-05
-1.09372e-05
2.37924e-05
-1.15044e-05
2.63317e-05
-1.19745e-05
2.87309e-05
-1.23265e-05
3.09816e-05
-1.2612e-05
3.30471e-05
-1.27259e-05
3.49463e-05
-1.28825e-05
3.66124e-05
-1.27547e-05
3.81281e-05
-1.27518e-05
3.94147e-05
-1.23556e-05
4.06091e-05
-1.23262e-05
4.15304e-05
-1.16798e-05
4.24735e-05
-1.17177e-05
4.30778e-05
-1.07026e-05
4.38151e-05
-1.09799e-05
4.38911e-05
-9.32775e-06
4.43512e-05
-1.03666e-05
4.43577e-05
-9.37299e-06
4.41396e-05
-8.52013e-06
4.36748e-05
-7.74563e-06
4.31072e-05
-7.07282e-06
4.24436e-05
-6.58674e-06
4.17833e-05
-6.15329e-06
4.11327e-05
-5.74117e-06
4.04961e-05
-5.34709e-06
3.98777e-05
-4.97175e-06
3.92815e-05
-4.61611e-06
3.87105e-05
-4.28052e-06
3.81663e-05
-3.96425e-06
-3.66609e-06
3.76453e-05
1.47466e-07
-9.54648e-07
1.11366e-06
-3.30582e-06
2.4326e-06
-4.95356e-06
4.15945e-06
-6.42112e-06
5.96956e-06
-7.61758e-06
7.92819e-06
-8.79027e-06
9.76283e-06
-9.59463e-06
1.15502e-05
-1.04181e-05
1.313e-05
-1.10515e-05
1.42936e-05
-1.14121e-05
1.50699e-05
-1.17134e-05
1.54422e-05
-1.18766e-05
1.53671e-05
-1.18994e-05
1.48644e-05
-1.18238e-05
1.38629e-05
-1.16105e-05
1.24463e-05
-1.13093e-05
1.05142e-05
-1.09504e-05
8.44703e-06
-1.06876e-05
5.98726e-06
-1.0292e-05
3.58773e-06
-9.9561e-06
7.16172e-07
-9.45463e-06
-1.84378e-06
-9.11982e-06
-5.04304e-06
-8.5184e-06
-7.49179e-06
-8.2539e-06
-1.09423e-05
-7.52935e-06
-1.26267e-05
-7.64333e-06
-1.58207e-05
-7.17265e-06
-1.86615e-05
-6.53217e-06
-2.1063e-05
-6.1186e-06
-2.30984e-05
-5.71024e-06
-2.49227e-05
-5.24852e-06
-2.66972e-05
-4.81224e-06
-2.83844e-05
-4.46612e-06
-2.99871e-05
-4.13849e-06
-3.15042e-05
-3.83e-06
-3.29354e-05
-3.54056e-06
-3.42817e-05
-3.26979e-06
-3.55451e-05
-3.01709e-06
-3.6728e-05
-2.78139e-06
-2.55395e-06
-3.78401e-05
-1.96858e-07
-7.57738e-07
-6.4255e-07
-2.86006e-06
-1.17045e-06
-4.42559e-06
-1.92904e-06
-5.66245e-06
-3.05654e-06
-6.48999e-06
-4.67111e-06
-7.1756e-06
-6.80485e-06
-7.46078e-06
-9.29877e-06
-7.92406e-06
-1.20395e-05
-8.31062e-06
-1.52062e-05
-8.24529e-06
-1.87862e-05
-8.13329e-06
-2.26767e-05
-7.98604e-06
-2.67789e-05
-7.79702e-06
-3.10413e-05
-7.56121e-06
-3.53768e-05
-7.27489e-06
-3.97294e-05
-6.95647e-06
-4.40714e-05
-6.60831e-06
-4.85054e-05
-6.25345e-06
-5.29152e-05
-5.88205e-06
-5.73479e-05
-5.5233e-06
-6.16494e-05
-5.15302e-06
-6.59551e-05
-4.81402e-06
-7.00151e-05
-4.45821e-06
-7.41134e-05
-4.1555e-06
-7.78075e-05
-3.83519e-06
-8.18974e-05
-3.5534e-06
-8.57896e-05
-3.28028e-06
-8.93177e-05
-3.00399e-06
-9.2643e-05
-2.79329e-06
-9.57801e-05
-2.57315e-06
-9.86771e-05
-2.35146e-06
-0.000101341
-2.14849e-06
-0.000103836
-1.97098e-06
-0.000106167
-1.80725e-06
-0.00010834
-1.65653e-06
-0.000110363
-1.51779e-06
-0.000112243
-1.39038e-06
-0.000113986
-1.27342e-06
-0.000115602
-1.16602e-06
-1.06639e-06
-0.000117089
-2.61661e-07
-4.95979e-07
-1.20478e-06
-1.91683e-06
-2.55098e-06
-3.07926e-06
-4.3189e-06
-3.89439e-06
-6.34203e-06
-4.46672e-06
-8.68088e-06
-4.8366e-06
-1.10521e-05
-5.08938e-06
-1.37676e-05
-5.20844e-06
-1.68423e-05
-5.23567e-06
-1.99341e-05
-5.15327e-06
-2.34853e-05
-4.58193e-06
-2.68708e-05
-4.60024e-06
-3.02394e-05
-4.42819e-06
-3.35814e-05
-4.21902e-06
-3.68767e-05
-3.97936e-06
-4.00989e-05
-3.73395e-06
-4.32348e-05
-3.47216e-06
-4.62603e-05
-3.22771e-06
-4.91723e-05
-2.9698e-06
-5.19463e-05
-2.74905e-06
-5.45904e-05
-2.50876e-06
-5.70972e-05
-2.30694e-06
-5.94489e-05
-2.10629e-06
-6.16658e-05
-1.93848e-06
-6.3742e-05
-1.75882e-06
-6.56851e-05
-1.61015e-06
-6.74951e-05
-1.47019e-06
-6.91618e-05
-1.33711e-06
-7.07397e-05
-1.2153e-06
-7.22079e-05
-1.10478e-06
-7.35541e-05
-1.0052e-06
-7.47871e-05
-9.1534e-07
-7.59246e-05
-8.33396e-07
-7.69732e-05
-7.58566e-07
-7.79393e-05
-6.90365e-07
-7.88289e-05
-6.28179e-07
-7.96474e-05
-5.7175e-07
-8.04004e-05
-5.20427e-07
-8.10926e-05
-4.73697e-07
-4.3104e-07
-8.1728e-05
-9.18134e-08
-4.04009e-07
-6.5248e-07
-1.35597e-06
-1.65656e-06
-2.07497e-06
-2.97451e-06
-2.57623e-06
-4.54002e-06
-2.90097e-06
-6.28026e-06
-3.0961e-06
-8.15779e-06
-3.21158e-06
-1.01122e-05
-3.25377e-06
-1.21455e-05
-3.20204e-06
-1.41827e-05
-3.11562e-06
-1.57842e-05
-2.98007e-06
-1.75487e-05
-2.83537e-06
-1.9295e-05
-2.68141e-06
-2.09961e-05
-2.51746e-06
-2.26328e-05
-2.34222e-06
-2.41969e-05
-2.16934e-06
-2.5675e-05
-1.99352e-06
-2.70711e-05
-1.83114e-06
-2.83734e-05
-1.6669e-06
-2.95972e-05
-1.52483e-06
-3.07304e-05
-1.37504e-06
-3.17913e-05
-1.24552e-06
-3.27646e-05
-1.13252e-06
-3.36784e-05
-1.02429e-06
-3.45106e-05
-9.26152e-07
-3.5283e-05
-8.37399e-07
-3.59976e-05
-7.55192e-07
-3.66535e-05
-6.80858e-07
-3.72542e-05
-6.14271e-07
-3.78044e-05
-5.54336e-07
-3.8309e-05
-5.00319e-07
-3.87724e-05
-4.51666e-07
-3.91977e-05
-4.07865e-07
-3.95876e-05
-3.68438e-07
-3.99448e-05
-3.32987e-07
-4.02718e-05
-3.00994e-07
-4.0571e-05
-2.72345e-07
-4.08448e-05
-2.46529e-07
-4.10953e-05
-2.23097e-07
-2.02168e-07
-4.1324e-05
-8.18177e-08
-3.22005e-07
-5.08578e-07
-9.28976e-07
-1.20058e-06
-1.38271e-06
-2.09354e-06
-1.683e-06
-3.09439e-06
-1.89983e-06
-4.15546e-06
-2.03472e-06
-5.26092e-06
-2.10578e-06
-6.40714e-06
-2.10717e-06
-7.5518e-06
-2.05697e-06
-8.66728e-06
-1.9997e-06
-9.73529e-06
-1.91157e-06
-1.0765e-05
-1.80513e-06
-1.17559e-05
-1.6899e-06
-1.27028e-05
-1.56999e-06
-1.35962e-05
-1.44818e-06
-1.44368e-05
-1.3281e-06
-1.52182e-05
-1.21146e-06
-1.5948e-05
-1.10064e-06
-1.66184e-05
-9.95767e-07
-1.72438e-05
-8.98816e-07
-1.78096e-05
-8.08525e-07
-1.83273e-05
-7.27066e-07
-1.88061e-05
-6.53053e-07
-1.92437e-05
-5.8597e-07
-1.96441e-05
-5.2514e-07
-2.00107e-05
-4.70169e-07
-2.03446e-05
-4.20743e-07
-2.06484e-05
-3.76499e-07
-2.09251e-05
-3.36981e-07
-2.11772e-05
-3.01696e-07
-2.14069e-05
-2.70197e-07
-2.1616e-05
-2.42111e-07
-2.18064e-05
-2.17061e-07
-2.19798e-05
-1.94707e-07
-2.21377e-05
-1.7478e-07
-2.22814e-05
-1.56905e-07
-2.24124e-05
-1.41123e-07
-2.25317e-05
-1.27011e-07
-2.26404e-05
-1.14153e-07
-1.03e-07
-2.27393e-05
-8.98568e-08
-2.31962e-07
-3.88621e-07
-6.29959e-07
-8.46195e-07
-9.24872e-07
-1.39665e-06
-1.13225e-06
-2.0091e-06
-1.28708e-06
-2.667e-06
-1.3765e-06
-3.36466e-06
-1.40776e-06
-4.06696e-06
-1.40447e-06
-4.75182e-06
-1.37168e-06
-5.42848e-06
-1.32257e-06
-6.08284e-06
-1.25669e-06
-6.70772e-06
-1.17967e-06
-7.30048e-06
-1.0965e-06
-7.85897e-06
-1.01078e-06
-8.38118e-06
-9.25228e-07
-8.86664e-06
-8.41844e-07
-9.31528e-06
-7.6198e-07
-9.7284e-06
-6.86632e-07
-1.01068e-05
-6.16468e-07
-1.04528e-05
-5.51822e-07
-1.07676e-05
-4.92782e-07
-1.10545e-05
-4.39149e-07
-1.13159e-05
-3.90692e-07
-1.15537e-05
-3.47211e-07
-1.17695e-05
-3.08303e-07
-1.19651e-05
-2.73618e-07
-1.21422e-05
-2.4273e-07
-1.23024e-05
-2.15339e-07
-1.24475e-05
-1.91027e-07
-1.25789e-05
-1.69525e-07
-1.26978e-05
-1.50474e-07
-1.28055e-05
-1.33656e-07
-1.29031e-05
-1.188e-07
-1.29915e-05
-1.05661e-07
-1.30716e-05
-9.40459e-08
-1.31443e-05
-8.36739e-08
-1.32102e-05
-7.46999e-08
-1.32701e-05
-6.67347e-08
-1.33245e-05
-5.9365e-08
-5.32464e-08
-1.33739e-05
-6.86427e-08
-1.63149e-07
-2.66518e-07
-4.3183e-07
-5.5539e-07
-6.35747e-07
-8.95387e-07
-7.91965e-07
-1.28366e-06
-8.98521e-07
-1.70608e-06
-9.53755e-07
-2.13945e-06
-9.74044e-07
-2.57519e-06
-9.68352e-07
-3.00332e-06
-9.4314e-07
-3.42233e-06
-9.03112e-07
-3.82617e-06
-8.52369e-07
-4.21056e-06
-7.94718e-07
-4.57329e-06
-7.33164e-07
-4.91295e-06
-6.70443e-07
-5.22912e-06
-6.08334e-07
-5.52181e-06
-5.48379e-07
-5.79141e-06
-4.91536e-07
-6.03869e-06
-4.38461e-07
-6.26469e-06
-3.89519e-07
-6.47065e-06
-3.44862e-07
-6.65793e-06
-3.04452e-07
-6.82785e-06
-2.68151e-07
-6.98169e-06
-2.35732e-07
-7.12082e-06
-2.0696e-07
-7.24648e-06
-1.81502e-07
-7.35988e-06
-1.59086e-07
-7.46215e-06
-1.39333e-07
-7.55439e-06
-1.22001e-07
-7.63755e-06
-1.06784e-07
-7.71257e-06
-9.34658e-08
-7.78022e-06
-8.18164e-08
-7.84127e-06
-7.16417e-08
-7.8964e-06
-6.2754e-08
-7.94624e-06
-5.49609e-08
-7.99134e-06
-4.8139e-08
-8.03219e-06
-4.2072e-08
-8.06921e-06
-3.69899e-08
-8.1028e-06
-3.25349e-08
-8.13332e-06
-2.82882e-08
-2.51318e-08
-8.16091e-06
-4.79439e-08
-1.15057e-07
-1.7705e-07
-3.02478e-07
-3.55402e-07
-4.57166e-07
-5.72758e-07
-5.74327e-07
-8.2245e-07
-6.48566e-07
-1.08783e-06
-6.88072e-07
-1.3604e-06
-7.01153e-07
-1.63379e-06
-6.94618e-07
-1.9041e-06
-6.72459e-07
-2.16758e-06
-6.39221e-07
-2.42115e-06
-5.98383e-07
-2.6623e-06
-5.53039e-07
-2.88994e-06
-5.05001e-07
-3.10294e-06
-4.56812e-07
-3.30126e-06
-4.09384e-07
-3.48476e-06
-3.64175e-07
-3.65372e-06
-3.21826e-07
-3.80861e-06
-2.82758e-07
-3.95013e-06
-2.47138e-07
-4.07902e-06
-2.15031e-07
-4.19614e-06
-1.86346e-07
-4.30227e-06
-1.60949e-07
-4.3983e-06
-1.38588e-07
-4.48507e-06
-1.19024e-07
-4.56338e-06
-1.01997e-07
-4.63403e-06
-8.72265e-08
-4.69765e-06
-7.44857e-08
-4.75496e-06
-6.34729e-08
-4.8064e-06
-5.41205e-08
-4.85261e-06
-4.6044e-08
-4.89412e-06
-3.91161e-08
-4.93143e-06
-3.31721e-08
-4.96499e-06
-2.80773e-08
-4.99517e-06
-2.37019e-08
-5.02234e-06
-1.99456e-08
-5.04682e-06
-1.66247e-08
-5.06889e-06
-1.40205e-08
-5.08885e-06
-1.17662e-08
-5.10696e-06
-9.44697e-09
-8.04196e-09
-5.12335e-06
-3.20405e-08
-8.2889e-08
-1.13146e-07
-2.21142e-07
-2.2723e-07
-3.4288e-07
-3.69322e-07
-4.31971e-07
-5.32649e-07
-4.85003e-07
-7.09291e-07
-5.11152e-07
-8.93647e-07
-5.16501e-07
-1.08203e-06
-5.05919e-07
-1.27083e-06
-4.83332e-07
-1.45663e-06
-4.53044e-07
-1.63713e-06
-4.17534e-07
-1.80981e-06
-3.79857e-07
-1.97368e-06
-3.40695e-07
-2.12725e-06
-3.02663e-07
-2.27042e-06
-2.6567e-07
-2.40273e-06
-2.31257e-07
-2.52429e-06
-1.9962e-07
-2.63538e-06
-1.70974e-07
-2.7365e-06
-1.45285e-07
-2.82817e-06
-1.22565e-07
-2.91105e-06
-1.02619e-07
-2.98569e-06
-8.53761e-08
-3.05287e-06
-7.04328e-08
-3.11317e-06
-5.76888e-08
-3.16728e-06
-4.68193e-08
-3.21573e-06
-3.76845e-08
-3.25904e-06
-3.00561e-08
-3.29768e-06
-2.3683e-08
-3.33217e-06
-1.84526e-08
-3.36291e-06
-1.41191e-08
-3.39026e-06
-1.05619e-08
-3.41459e-06
-7.65606e-09
-3.43622e-06
-5.26693e-09
-3.45546e-06
-3.31058e-09
-3.47258e-06
-1.70879e-09
-3.48779e-06
-3.49667e-10
-3.50135e-06
5.39314e-10
-3.51353e-06
1.33711e-09
-3.52443e-06
2.28049e-09
2.50655e-09
-3.53417e-06
-2.05776e-08
-6.22046e-08
-7.43714e-08
-1.67141e-07
-1.58482e-07
-2.58597e-07
-2.72438e-07
-3.17774e-07
-4.113e-07
-3.45934e-07
-5.67945e-07
-3.54259e-07
-7.36137e-07
-3.48042e-07
-9.10291e-07
-3.31486e-07
-1.08527e-06
-3.08061e-07
-1.2567e-06
-2.81263e-07
-1.42162e-06
-2.52326e-07
-1.57714e-06
-2.23849e-07
-1.72228e-06
-1.95206e-07
-1.85559e-06
-1.68799e-07
-1.97728e-06
-1.43524e-07
-2.08709e-06
-1.20899e-07
-2.18554e-06
-1.00618e-07
-2.27321e-06
-8.27063e-08
-2.3509e-06
-6.69679e-08
-2.41934e-06
-5.34485e-08
-2.47947e-06
-4.17762e-08
-2.53192e-06
-3.21258e-08
-2.57774e-06
-2.37971e-08
-2.61748e-06
-1.70591e-08
-2.65205e-06
-1.13638e-08
-2.68195e-06
-6.87096e-09
-2.7078e-06
-3.27375e-09
-2.73004e-06
-4.73488e-10
-2.74914e-06
1.66023e-09
-2.76549e-06
3.28563e-09
-2.77943e-06
4.46117e-09
-2.79126e-06
5.28625e-09
-2.80128e-06
5.88112e-09
-2.80973e-06
6.26284e-09
-2.81684e-06
6.51017e-09
-2.82277e-06
6.65712e-09
-2.8278e-06
6.61219e-09
-2.83214e-06
6.63713e-09
-2.83568e-06
6.70995e-09
6.32774e-09
-2.83864e-06
-1.46457e-08
-4.74709e-08
-6.28004e-08
-1.18806e-07
-1.48924e-07
-1.72329e-07
-2.68839e-07
-1.9765e-07
-4.11478e-07
-2.03115e-07
-5.66589e-07
-1.98931e-07
-7.2597e-07
-1.88425e-07
-8.83379e-07
-1.7383e-07
-1.0341e-06
-1.57089e-07
-1.17504e-06
-1.39995e-07
-1.30452e-06
-1.22625e-07
-1.42114e-06
-1.06751e-07
-1.52518e-06
-9.08908e-08
-1.61632e-06
-7.71336e-08
-1.69569e-06
-6.37595e-08
-1.76381e-06
-5.22906e-08
-1.82179e-06
-4.21444e-08
-1.87063e-06
-3.33405e-08
-1.91142e-06
-2.56361e-08
-1.94497e-06
-1.928e-08
-1.97247e-06
-1.36919e-08
-1.99437e-06
-9.48911e-09
-2.01191e-06
-5.58132e-09
-2.02542e-06
-2.77071e-09
-2.03579e-06
-2.56136e-10
-2.04346e-06
1.55787e-09
-2.0489e-06
2.94318e-09
-2.05249e-06
3.9232e-09
-2.05455e-06
4.5637e-09
-2.05533e-06
4.94331e-09
-2.05508e-06
5.14001e-09
-2.05399e-06
5.17826e-09
-2.05227e-06
5.15833e-09
-2.05002e-06
5.03454e-09
-2.04741e-06
4.92559e-09
-2.04452e-06
4.77457e-09
-2.04151e-06
4.5777e-09
-2.03838e-06
4.44736e-09
-2.03506e-06
4.26609e-09
3.77294e-09
-2.03163e-06
-1.52924e-08
-3.21073e-08
-6.42255e-08
-6.97201e-08
-1.44655e-07
-9.17806e-08
-2.43787e-07
-9.83403e-08
-3.49187e-07
-9.75641e-08
-4.53754e-07
-9.4178e-08
-5.53547e-07
-8.84308e-08
-6.46307e-07
-8.08565e-08
-7.30792e-07
-7.2395e-08
-8.06443e-07
-6.40471e-08
-8.73397e-07
-5.54933e-08
-9.31528e-07
-4.81791e-08
-9.81705e-07
-4.04917e-08
-1.02407e-06
-3.42824e-08
-1.05964e-06
-2.78531e-08
-1.08887e-06
-2.26215e-08
-1.11262e-06
-1.79486e-08
-1.13152e-06
-1.39749e-08
-1.14621e-06
-1.0476e-08
-1.15717e-06
-7.75026e-09
-1.16522e-06
-5.14639e-09
-1.17043e-06
-3.58349e-09
-1.17376e-06
-1.69323e-09
-1.17512e-06
-6.87442e-10
-1.17524e-06
4.88391e-10
-1.17421e-06
1.19267e-09
-1.17235e-06
1.74507e-09
-1.16984e-06
2.09477e-09
-1.16681e-06
2.24666e-09
-1.16339e-06
2.27513e-09
-1.15969e-06
2.23237e-09
-1.15577e-06
2.09366e-09
-1.15172e-06
1.97168e-09
-1.14761e-06
1.82446e-09
-1.14355e-06
1.75083e-09
-1.13952e-06
1.6405e-09
-1.1356e-06
1.53528e-09
-1.13176e-06
1.45341e-09
-1.12797e-06
1.29863e-09
1.04683e-09
-1.12441e-06
-1.44463e-08
-1.76039e-08
-4.99547e-08
-3.40855e-08
-9.9369e-08
-4.22694e-08
-1.53523e-07
-4.40381e-08
-2.07772e-07
-4.31898e-08
-2.60308e-07
-4.14873e-08
-3.09769e-07
-3.87998e-08
-3.55124e-07
-3.5321e-08
-3.9586e-07
-3.14857e-08
-4.31803e-07
-2.78423e-08
-4.63196e-07
-2.39605e-08
-4.89965e-07
-2.10127e-08
-5.12849e-07
-1.74294e-08
-5.31793e-07
-1.49075e-08
-5.47328e-07
-1.20214e-08
-5.59779e-07
-9.78391e-09
-5.69555e-07
-7.78645e-09
-5.76979e-07
-6.13246e-09
-5.82426e-07
-4.61941e-09
-5.86082e-07
-3.57287e-09
-5.88455e-07
-2.356e-09
-5.89426e-07
-1.95711e-09
-5.89659e-07
-9.85251e-10
-5.8892e-07
-7.55696e-10
-5.87726e-07
-1.59456e-10
-5.86037e-07
9.63846e-11
-5.84008e-07
3.01608e-10
-5.81734e-07
4.13852e-10
-5.79281e-07
4.2094e-10
-5.76705e-07
3.61298e-10
-5.74079e-07
2.91471e-10
-5.71358e-07
1.21272e-10
-5.68672e-07
3.28086e-11
-5.65979e-07
-7.89154e-11
-5.63365e-07
-8.97015e-11
-5.60818e-07
-1.32201e-10
-5.58366e-07
-1.57509e-10
-5.55983e-07
-1.84561e-10
-5.53694e-07
-2.62719e-10
-3.98747e-10
-5.51481e-07
-9.29589e-09
-8.26287e-09
-2.83262e-08
-1.49529e-08
-5.25698e-08
-1.79483e-08
-7.8021e-08
-1.84664e-08
-1.03093e-07
-1.80158e-08
-1.27178e-07
-1.72759e-08
-1.49708e-07
-1.61294e-08
-1.70222e-07
-1.4657e-08
-1.88527e-07
-1.30404e-08
-2.04569e-07
-1.15771e-08
-2.18522e-07
-9.89894e-09
-2.30341e-07
-8.84787e-09
-2.40391e-07
-7.23705e-09
-2.48591e-07
-6.33524e-09
-2.55277e-07
-5.08415e-09
-2.60517e-07
-4.21104e-09
-2.6457e-07
-3.4005e-09
-2.67586e-07
-2.75181e-09
-2.69727e-07
-2.12915e-09
-2.71031e-07
-1.80053e-09
-2.71813e-07
-1.22644e-09
-2.719e-07
-1.26681e-09
-2.71743e-07
-7.41153e-10
-2.71098e-07
-7.90241e-10
-2.7031e-07
-4.70058e-10
-2.69289e-07
-3.97845e-10
-2.68135e-07
-3.30773e-10
-2.66899e-07
-2.98018e-10
-2.65588e-07
-3.34674e-10
-2.64222e-07
-4.10366e-10
-2.62865e-07
-4.63974e-10
-2.61452e-07
-6.12857e-10
-2.60095e-07
-6.67931e-10
-2.58716e-07
-7.48719e-10
-2.57398e-07
-7.27968e-10
-2.56108e-07
-7.40991e-10
-2.54865e-07
-7.35699e-10
-2.53664e-07
-7.3704e-10
-2.52525e-07
-7.64992e-10
-8.72401e-10
-2.51374e-07
-4.75666e-09
-3.47165e-09
-1.35814e-08
-6.04862e-09
-2.4345e-08
-7.12515e-09
-3.5427e-08
-7.29069e-09
-4.62708e-08
-7.09279e-09
-5.66466e-08
-6.80079e-09
-6.63166e-08
-6.34913e-09
-7.50884e-08
-5.76715e-09
-8.28918e-08
-5.12727e-09
-8.97016e-08
-4.58741e-09
-9.56288e-08
-3.88963e-09
-1.00617e-07
-3.57738e-09
-1.04868e-07
-2.87513e-09
-1.08289e-07
-2.61081e-09
-1.11085e-07
-2.08602e-09
-1.1325e-07
-1.77405e-09
-1.14912e-07
-1.4675e-09
-1.16131e-07
-1.23208e-09
-1.16989e-07
-9.87687e-10
-1.17469e-07
-9.24019e-10
-1.17763e-07
-6.53901e-10
-1.17711e-07
-7.99756e-10
-1.17613e-07
-5.13419e-10
-1.17258e-07
-6.22875e-10
-1.16877e-07
-4.51178e-10
-1.1639e-07
-4.39679e-10
-1.15853e-07
-4.23923e-10
-1.15287e-07
-4.19037e-10
-1.14689e-07
-4.59431e-10
-1.14063e-07
-5.22974e-10
-1.13454e-07
-5.61621e-10
-1.12799e-07
-6.72859e-10
-1.12208e-07
-6.99672e-10
-1.11578e-07
-7.58968e-10
-1.10983e-07
-7.39986e-10
-1.10394e-07
-7.42394e-10
-1.09828e-07
-7.32186e-10
-1.09283e-07
-7.26862e-10
-1.08777e-07
-7.30222e-10
-8.22963e-10
-1.08252e-07
-2.13064e-09
-1.3167e-09
-5.87255e-09
-2.2504e-09
-1.03364e-08
-2.61951e-09
-1.48833e-08
-2.67744e-09
-1.93205e-08
-2.59932e-09
-2.35554e-08
-2.49531e-09
-2.74934e-08
-2.33233e-09
-3.10564e-08
-2.1196e-09
-3.42218e-08
-1.88405e-09
-3.69721e-08
-1.70584e-09
-3.93772e-08
-1.42781e-09
-4.13764e-08
-1.36994e-09
-4.31005e-08
-1.07244e-09
-4.4463e-08
-1.02575e-09
-4.55872e-08
-8.14146e-10
-4.64455e-08
-7.16388e-10
-4.71029e-08
-6.10224e-10
-4.75781e-08
-5.33558e-10
-4.7915e-08
-4.43451e-10
-4.80815e-08
-4.573e-10
-4.8202e-08
-3.31518e-10
-4.81426e-08
-4.60741e-10
-4.8108e-08
-3.08033e-10
-4.79311e-08
-4.00895e-10
-4.77712e-08
-3.10296e-10
-4.7558e-08
-3.14385e-10
-4.7329e-08
-3.14598e-10
-4.7091e-08
-3.16504e-10
-4.6841e-08
-3.46675e-10
-4.65745e-08
-3.90128e-10
-4.6329e-08
-4.14654e-10
-4.60444e-08
-4.88781e-10
-4.58115e-08
-4.99435e-10
-4.55432e-08
-5.3982e-10
-4.53005e-08
-5.27653e-10
-4.50539e-08
-5.27811e-10
-4.48197e-08
-5.20504e-10
-4.45962e-08
-5.15492e-10
-4.43948e-08
-5.10437e-10
-5.75523e-10
-4.41967e-08
-8.61285e-10
-4.40274e-10
-2.32891e-09
-7.47628e-10
-4.06134e-09
-8.61178e-10
-5.81404e-09
-8.83312e-10
-7.52311e-09
-8.5511e-10
-9.15059e-09
-8.23603e-10
-1.06615e-08
-7.71848e-10
-1.2025e-08
-7.0284e-10
-1.32362e-08
-6.24423e-10
-1.42806e-08
-5.77522e-10
-1.52024e-08
-4.71346e-10
-1.59527e-08
-4.85661e-10
-1.66139e-08
-3.62014e-10
-1.71203e-08
-3.76687e-10
-1.75462e-08
-2.93862e-10
-1.78629e-08
-2.71681e-10
-1.81054e-08
-2.3911e-10
-1.82752e-08
-2.19128e-10
-1.83982e-08
-1.87576e-10
-1.84441e-08
-2.14057e-10
-1.84932e-08
-1.53698e-10
-1.84477e-08
-2.42007e-10
-1.84409e-08
-1.59812e-10
-1.83544e-08
-2.23823e-10
-1.82919e-08
-1.75309e-10
-1.82004e-08
-1.82449e-10
-1.81056e-08
-1.85078e-10
-1.80086e-08
-1.8709e-10
-1.79088e-08
-2.04834e-10
-1.7799e-08
-2.30715e-10
-1.77097e-08
-2.41633e-10
-1.75916e-08
-2.87357e-10
-1.75121e-08
-2.87241e-10
-1.74052e-08
-3.13843e-10
-1.73187e-08
-3.04895e-10
-1.72258e-08
-3.05732e-10
-1.71401e-08
-3.01235e-10
-1.70595e-08
-2.97981e-10
-1.69902e-08
-2.9208e-10
-3.25819e-10
-1.6936e-08
-3.11949e-10
-1.19112e-10
-8.35869e-10
-2.02338e-10
-1.45136e-09
-2.30066e-10
-2.07152e-09
-2.37979e-10
-2.67592e-09
-2.29293e-10
-3.25034e-09
-2.22199e-10
-3.78283e-09
-2.09012e-10
-4.2618e-09
-1.91152e-10
-4.68716e-09
-1.69638e-10
-5.05046e-09
-1.61909e-10
-5.3741e-09
-1.27121e-10
-5.63148e-09
-1.44251e-10
-5.86324e-09
-1.00147e-10
-6.03451e-09
-1.16429e-10
-6.18121e-09
-8.82235e-11
-6.2862e-09
-8.66125e-11
-6.36636e-09
-7.82862e-11
-6.41915e-09
-7.49513e-11
-6.45839e-09
-6.53616e-11
-6.46536e-09
-8.05771e-11
-6.48258e-09
-5.6412e-11
-6.45661e-09
-9.71725e-11
-6.4564e-09
-6.21407e-11
-6.41811e-09
-9.25272e-11
-6.39508e-09
-7.17263e-11
-6.35743e-09
-7.64296e-11
-6.31967e-09
-7.75687e-11
-6.28127e-09
-7.84637e-11
-6.24336e-09
-8.55446e-11
-6.2004e-09
-9.61965e-11
-6.17139e-09
-9.91827e-11
-6.12696e-09
-1.18789e-10
-6.10527e-09
-1.16361e-10
-6.0682e-09
-1.28438e-10
-6.04332e-09
-1.23646e-10
-6.0137e-09
-1.24279e-10
-5.98796e-09
-1.22056e-10
-5.96419e-09
-1.20503e-10
-5.9451e-09
-1.17185e-10
-1.28561e-10
-5.93693e-09
-9.57129e-11
-1.75235e-11
-2.55324e-10
-2.91403e-11
-4.41819e-10
-3.36378e-11
-6.2969e-10
-3.41063e-11
-8.12405e-10
-3.29588e-11
-9.86021e-10
-3.14299e-11
-1.14671e-09
-2.90253e-11
-1.29097e-09
-2.60901e-11
-1.41889e-09
-2.30157e-11
-1.52772e-09
-1.9812e-11
-1.62458e-09
-1.71789e-11
-1.70125e-09
-1.41619e-11
-1.77021e-09
-1.20506e-11
-1.82071e-09
-9.35382e-12
-1.86388e-09
-7.58908e-12
-1.89409e-09
-5.48385e-12
-1.91701e-09
-4.0903e-12
-1.93129e-09
-2.56992e-12
-1.94204e-09
-1.86733e-12
-1.94213e-09
-6.21145e-14
-1.94695e-09
-7.05292e-13
-1.93719e-09
1.65745e-12
-1.93731e-09
1.67985e-13
-1.9243e-09
2.26646e-12
-1.917e-09
1.42663e-12
-1.9044e-09