/*--------------------------------*- C++ -*----------------------------------*\
| =========                 |                                                 |
| \\      /  F ield         | OpenFOAM: The Open Source CFD Toolbox           |
|  \\    /   O peration     | Version:  2112                                  |
|   \\  /    A nd           | Website:  www.openfoam.com                      |
|    \\/     M anipulation  |                                                 |
\*---------------------------------------------------------------------------*/
FoamFile
{
    version     2.0;
    format      ascii;
    arch        "LSB;label=32;scalar=64";
    class       volScalarField;
    location    "0.23";
    object      nut;
}
// * * * * * * * * * * * * * * * * * * * * * * * * * * * * * * * * * * * * * //

dimensions      [0 2 -1 0 0 0 0];

internalField   nonuniform List<scalar> 
12225
(
1.48148e-05
2.71508e-05
4.12086e-05
5.81386e-05
7.85712e-05
0.000102391
0.000128746
0.000156304
0.000183663
0.000209697
0.000233692
0.000255298
0.000274416
0.000291111
0.000305672
0.000318204
0.000330732
0.000335753
6.02343e-05
3.64658e-05
3.32102e-05
3.57033e-05
4.14796e-05
4.99535e-05
6.11291e-05
7.51795e-05
9.23787e-05
0.000113047
0.000137767
0.000167336
0.000202086
0.000241112
0.000282244
0.000322799
0.00036086
0.000390448
0.000453373
0.000162146
9.53761e-05
6.83326e-05
5.54779e-05
4.96586e-05
4.77351e-05
4.86673e-05
5.21146e-05
5.80116e-05
6.64635e-05
7.77509e-05
9.22799e-05
0.000110445
0.000132444
0.000158429
0.000188439
0.000221501
0.00165409
0.000700612
0.000417623
0.000287323
0.000212033
0.000158366
0.00012451
0.000102563
8.78311e-05
7.80655e-05
7.24635e-05
6.98234e-05
6.97512e-05
7.21741e-05
7.71283e-05
8.47995e-05
9.53678e-05
0.000109026
0.00342977
0.001843
0.00120242
0.000868863
0.000662046
0.000510349
0.0004067
0.000334173
0.00028106
0.000240204
0.000202098
0.000171934
0.000149268
0.000132181
0.000119375
0.000110521
0.000104892
0.000101875
0.00407496
0.00337098
0.00240235
0.00183523
0.00146385
0.00119407
0.000995115
0.000845471
0.000729814
0.000636908
0.000549914
0.000477176
0.000418622
0.000371017
0.000331522
0.0002935
0.000258026
0.000229122
0.00453298
0.00481239
0.00381705
0.00306715
0.00254469
0.00215609
0.00185844
0.00162533
0.00143885
0.00128593
0.00115293
0.00103752
0.000938346
0.000853134
0.000779132
0.000706442
0.000636782
0.000577227
0.00522699
0.00524127
0.00516633
0.00439171
0.00377353
0.00329384
0.0029146
0.00260795
0.00235588
0.00214512
0.00196399
0.00180627
0.00166823
0.00154694
0.00143956
0.001341
0.00124935
0.00116735
0.00611007
0.00582786
0.00545435
0.00536363
0.005011
0.00448498
0.00405949
0.00370179
0.00340005
0.00314277
0.00291999
0.00272475
0.0025522
0.0023987
0.00226121
0.00213639
0.00202225
0.00192049
0.00717708
0.00666034
0.00591118
0.00552912
0.00534884
0.00529309
0.00519234
0.00480795
0.00447894
0.0041931
0.00394167
0.00371835
0.00351833
0.00333771
0.00317329
0.00302262
0.00288461
0.00276245
0.00850039
0.00762909
0.00659528
0.00587281
0.0054621
0.00527421
0.00521152
0.00515884
0.00504819
0.0048798
0.0046789
0.00446435
0.00423829
0.00399325
0.00372596
0.00344714
0.00317975
0.00296804
0.00938742
0.00862265
0.00729707
0.00636066
0.00575346
0.00538912
0.0051908
0.00507777
0.00496076
0.00481063
0.00463346
0.00444128
0.0042385
0.00402298
0.00379416
0.00355999
0.0033337
0.00315075
0.00942476
0.00930888
0.00808156
0.00692235
0.00615095
0.00566576
0.00535409
0.00513752
0.00496123
0.00479267
0.00461998
0.00444164
0.00425785
0.00406852
0.00387583
0.00368685
0.00350812
0.00336348
0.00944701
0.00938947
0.009075
0.00764346
0.00667225
0.00605472
0.00564049
0.00533564
0.00509237
0.00488369
0.00469367
0.00451304
0.00433662
0.00416255
0.003993
0.00383445
0.00369093
0.00358056
0.00945865
0.00943404
0.0093937
0.00850575
0.00733807
0.00655383
0.00602742
0.00564054
0.0053331
0.00507715
0.00485663
0.00466051
0.00448149
0.00431593
0.00416429
0.00403066
0.00391618
0.00383497
0.00946386
0.00945507
0.00943965
0.00941789
0.00807099
0.00712733
0.00649376
0.00603207
0.00566957
0.00537351
0.00512564
0.00491373
0.00472985
0.0045697
0.00443223
0.00431892
0.00422781
0.00416862
0.00946575
0.00946319
0.0094586
0.00945168
0.00869059
0.00768324
0.0069761
0.00646013
0.00605837
0.00573565
0.00547205
0.00525363
0.00507132
0.00491995
0.00479722
0.00470261
0.00463218
0.00459093
0.00946619
0.00946526
0.00946378
0.00946133
0.00914309
0.00810776
0.00736956
0.00683556
0.00642327
0.00609635
0.00583503
0.00562472
0.00545542
0.00532116
0.00521846
0.00514538
0.00509741
0.00507462
0.00946577
0.00946345
0.00945938
0.00945301
0.00928126
0.00825722
0.0075348
0.00702636
0.00664381
0.00634787
0.00611771
0.0059377
0.0057976
0.0056924
0.00561888
0.00557455
0.00555526
0.0055544
0.00946273
0.0094507
0.00942937
0.00939855
0.00894011
0.00799745
0.00734688
0.00690298
0.0065867
0.00635727
0.00618911
0.00606236
0.00596772
0.00590761
0.00587716
0.00587082
0.00588415
0.00590774
0.00945165
0.00940746
0.00933503
0.00923952
0.00833343
0.00748937
0.00694281
0.00661084
0.0064131
0.0062984
0.00623434
0.00620118
0.00618566
0.00617696
0.00617333
0.00617752
0.00619312
0.00621894
0.00941392
0.00927389
0.00907048
0.00861663
0.00764094
0.00700074
0.00665278
0.00648485
0.00641957
0.0064117
0.00643316
0.00647809
0.00650993
0.00631993
0.00614415
0.00598135
0.00583079
0.00569278
0.00929782
0.00891715
0.00844809
0.00779323
0.0071245
0.00672186
0.00656787
0.00621347
0.00588063
0.00558515
0.00532207
0.00508683
0.00487493
0.00468077
0.00450284
0.00433966
0.00419005
0.00405391
0.00897066
0.00809939
0.0072386
0.00647245
0.00581691
0.00526776
0.00481121
0.00442506
0.00409643
0.00381442
0.00356936
0.00335406
0.00316337
0.00299325
0.00284066
0.00270321
0.00257902
0.00246729
0.00729822
0.0065402
0.00534859
0.00446657
0.00380793
0.00330615
0.00291567
0.00260521
0.00235351
0.00214501
0.00196625
0.00181074
0.00167491
0.00155588
0.00145111
0.00135843
0.00127609
0.00120297
0.00599535
0.00425552
0.00309171
0.00237726
0.00190838
0.00158236
0.00134521
0.00116641
0.00102753
0.00091515
0.000814444
0.000727182
0.000653862
0.000592256
0.000540025
0.000495306
0.000456701
0.000423239
0.0035332
0.00190857
0.00119868
0.000840895
0.000635289
0.000504507
0.000415367
0.000351515
0.000303986
0.000266631
0.000232146
0.000202835
0.00017934
0.000160551
0.000145409
0.000133148
0.000123239
0.000115318
0.00107451
0.000469234
0.000263874
0.000176159
0.00013095
0.000104443
8.77073e-05
7.67168e-05
6.94215e-05
6.47196e-05
6.20984e-05
6.10201e-05
6.11983e-05
6.25123e-05
6.48955e-05
6.83015e-05
7.26996e-05
7.80487e-05
0.000117695
5.8417e-05
4.37586e-05
3.91382e-05
3.86953e-05
4.06558e-05
4.43223e-05
4.93944e-05
5.57529e-05
6.33816e-05
7.23222e-05
8.25963e-05
9.42607e-05
0.000107335
0.000121811
0.000137677
0.000154964
0.000173604
1.36577e-05
2.287e-05
3.24237e-05
4.29488e-05
5.5011e-05
6.89983e-05
8.51103e-05
0.000103346
0.000123508
0.000145232
0.000168036
0.000191389
0.00021477
0.000237723
0.000259877
0.00028096
0.000300809
0.0003192
0.00112793
0.0011258
0.00112156
0.00111521
0.00110684
0.00109664
0.00108487
0.00107185
0.00105791
0.00104335
0.000990689
0.00092344
0.000875052
0.000840915
0.000814462
0.000792805
0.00077483
0.000759883
0.000747434
0.000737039
0.000728342
0.000721062
0.000714973
0.000709891
0.000705668
0.00070218
0.000699325
0.000697015
0.000695178
0.000693749
0.000692675
0.000691906
0.000691403
0.000691127
0.000691047
0.000691133
0.00069136
0.000691705
0.000692147
0.000692669
0.000693254
0.000693888
0.000694559
0.000695254
0.000695965
0.000696683
0.000697401
0.000698113
0.000698815
0.000699503
0.000700173
0.000700825
0.000701456
0.000702068
0.00070266
0.000703233
0.00070379
0.000704332
0.000704862
0.000705383
0.000705899
0.000706412
0.000706925
0.000707442
0.000707966
0.0007085
0.000709046
0.000709606
0.000710182
0.000710777
0.00071139
0.000712024
0.000712679
0.000713357
0.000714058
0.000714783
0.000715534
0.000716311
0.000717116
0.000717951
0.000718816
0.000719715
0.000720648
0.000721618
0.000722628
0.00072368
0.000724777
0.000725922
0.000727119
0.000728372
0.000729688
0.000731066
0.000732504
0.00073401
0.000735628
0.000737364
0.00073923
0.000741238
0.000743402
0.000745733
0.000748246
0.000750955
0.000753877
0.000757028
0.000760427
0.000764092
0.000768043
0.000772304
0.000776898
0.000781851
0.000787192
0.000792952
0.000799166
0.00080587
0.000813108
0.000820925
0.000829371
0.000838504
0.000848386
0.000859089
0.000870693
0.000883287
0.000896973
0.000911868
0.000928103
0.000945833
0.000965234
0.00098651
0.0010099
0.00103569
0.00106422
0.00109587
0.00113113
0.00117058
0.00121493
0.00126507
0.0013221
0.00138743
0.0014629
0.00155093
0.00165479
0.00177903
0.00193016
0.00211774
0.0023564
0.00266936
0.00309855
0.00373931
0.00473104
0.00524997
0.00527252
0.0052844
0.0052898
0.00528928
0.00528033
0.00522333
0.0040718
0.00331923
0.00282426
0.00246649
0.00219503
0.0019823
0.00181104
0.00167005
0.00155179
0.00145103
0.00136404
0.00128806
0.00122105
0.00116143
0.00110799
0.00105977
0.00101606
0.000976275
0.00094002
0.000907062
0.000877269
0.000851437
0.000828385
0.000824965
0.00112192
0.00112004
0.00111645
0.00111095
0.00110347
0.00109411
0.00108313
0.00107087
0.00105775
0.00104419
0.00103064
0.00101759
0.00100555
0.00099489
0.000985823
0.000978393
0.000972543
0.000968154
0.000965074
0.00096314
0.000962193
0.00096209
0.000962703
0.000963925
0.000965664
0.000967848
0.000970415
0.000973316
0.000976508
0.000979957
0.000983635
0.000987518
0.000991583
0.000995813
0.00100019
0.00100471
0.00100935
0.0010141
0.00101895
0.0010239
0.00102894
0.00103406
0.00103926
0.00104454
0.00104988
0.00105529
0.00106077
0.00106631
0.00107192
0.00107759
0.00108332
0.00108912
0.00109498
0.00110091
0.0011069
0.00111296
0.00111909
0.00112529
0.00113156
0.0011379
0.00114431
0.0011508
0.00115736
0.00116399
0.00117071
0.00117749
0.00118436
0.00119131
0.00119834
0.00120546
0.00121267
0.00121996
0.00122736
0.00123486
0.00124246
0.00125018
0.00125803
0.00126601
0.00127413
0.00128241
0.00129085
0.00129948
0.0013083
0.00131733
0.00132659
0.0013361
0.00134588
0.00135596
0.00136636
0.00137711
0.00138822
0.00139974
0.00141167
0.00142385
0.00143645
0.00144953
0.00146315
0.00147733
0.00149213
0.00150757
0.00152372
0.00154063
0.00155834
0.00157692
0.00159643
0.00161695
0.00163855
0.00166131
0.00168532
0.00171069
0.00173752
0.00176593
0.00179604
0.00182799
0.00186193
0.00189802
0.00193644
0.00197738
0.00202105
0.00206766
0.00211747
0.00217073
0.00222773
0.00228875
0.00235411
0.00242414
0.0024992
0.00257961
0.00266574
0.00275793
0.00285651
0.00296175
0.00307388
0.00319304
0.00331925
0.00345238
0.00359209
0.00373778
0.00388858
0.0040432
0.00419999
0.00435682
0.00451106
0.00465965
0.00479907
0.00492552
0.00503513
0.00512401
0.00518857
0.00522805
0.00525
0.00526197
0.00526755
0.00526729
0.00525903
0.00523671
0.00518874
0.00511366
0.00501353
0.0048912
0.00475004
0.00459378
0.00442623
0.00425104
0.00407157
0.00389078
0.0037112
0.00353492
0.0033636
0.00319851
0.00304055
0.00289034
0.00274822
0.00261437
0.0024888
0.00237144
0.00226211
0.00216054
0.0020653
0.00197673
0.000940258
0.00110633
0.00110502
0.00110196
0.00109687
0.00108974
0.00108079
0.00107038
0.00105902
0.00104722
0.00103553
0.00102444
0.00101436
0.00100563
0.000998397
0.000992732
0.000988594
0.000985882
0.000984464
0.000984189
0.00098491
0.00098649
0.000988808
0.000991759
0.000995258
0.000999231
0.00100362
0.00100838
0.00101348
0.00101887
0.00102454
0.00103047
0.00103663
0.00104302
0.00104963
0.00105644
0.00106345
0.00107064
0.00107803
0.0010856
0.00109335
0.00110128
0.0011094
0.00111769
0.00112616
0.00113481
0.00114364
0.00115266
0.00116186
0.00117125
0.00118083
0.00119059
0.00120055
0.0012107
0.00122104
0.00123158
0.0012423
0.00125321
0.00126431
0.00127559
0.00128705
0.0012987
0.00131051
0.00132249
0.00133464
0.00134694
0.0013594
0.00137201
0.00138477
0.00139767
0.00141071
0.00142389
0.00143721
0.00145068
0.00146428
0.00147803
0.00149194
0.00150599
0.00152021
0.0015346
0.00154917
0.00156393
0.00157888
0.00159405
0.00160944
0.00162508
0.00164097
0.00165713
0.00167358
0.00169032
0.00170738
0.00172476
0.00174233
0.00176012
0.0017783
0.00179692
0.00181601
0.00183562
0.00185578
0.00187651
0.00189788
0.00191991
0.00194265
0.00196616
0.00199049
0.0020157
0.00204185
0.00206902
0.00209729
0.00212673
0.00215744
0.00218952
0.00222306
0.00225819
0.00229503
0.0023337
0.00237435
0.00241713
0.00246221
0.00250975
0.00255994
0.00261298
0.00266908
0.00272844
0.0027913
0.00285789
0.00292842
0.00300315
0.00308228
0.00316602
0.00325455
0.00334799
0.00344643
0.00354986
0.00365818
0.00377116
0.0038884
0.00400931
0.00413309
0.00425865
0.00438464
0.00450936
0.00463084
0.00474679
0.0048547
0.00495191
0.00503583
0.00510398
0.00515456
0.00518772
0.00520771
0.00521926
0.00522499
0.00522554
0.00521916
0.00520142
0.00516571
0.00510992
0.00503443
0.00494066
0.00483068
0.00470697
0.00457219
0.00442904
0.00428012
0.00412782
0.00397426
0.0038213
0.00367047
0.00352304
0.00338001
0.00324211
0.00310987
0.00298364
0.00286363
0.00274988
0.0026423
0.00254048
0.00244294
0.00234797
0.000657572
0.00108032
0.00108452
0.00108646
0.0010858
0.00108251
0.00107687
0.00106934
0.00106049
0.00105097
0.00104137
0.00103224
0.00102403
0.00101706
0.00101151
0.00100746
0.00100489
0.00100373
0.00100386
0.00100514
0.00100745
0.00101064
0.00101461
0.00101926
0.0010245
0.00103028
0.00103652
0.0010432
0.00105027
0.00105772
0.00106552
0.00107366
0.00108212
0.0010909
0.00109999
0.00110939
0.0011191
0.00112912
0.00113945
0.00115009
0.00116105
0.00117232
0.00118392
0.00119585
0.00120811
0.0012207
0.00123365
0.00124694
0.00126058
0.00127458
0.00128893
0.00130365
0.00131872
0.00133415
0.00134994
0.00136608
0.00138256
0.00139939
0.00141655
0.00143403
0.00145183
0.00146992
0.00148829
0.00150694
0.00152584
0.00154498
0.00156435
0.00158393
0.0016037
0.00162365
0.00164377
0.00166405
0.00168447
0.00170503
0.00172572
0.00174653
0.00176747
0.00178852
0.00180969
0.00183097
0.00185237
0.00187388
0.00189552
0.00191728
0.00193916
0.00196117
0.00198332
0.00200561
0.00202803
0.00205059
0.00207328
0.00209609
0.00211881
0.00214169
0.00216481
0.00218822
0.00221196
0.00223605
0.00226051
0.00228537
0.00231066
0.00233643
0.00236269
0.0023895
0.00241689
0.00244491
0.00247362
0.00250307
0.00253333
0.00256446
0.00259654
0.00262964
0.00266385
0.00269926
0.00273596
0.00277406
0.00281366
0.00285489
0.00289787
0.00294273
0.0029896
0.00303863
0.00308997
0.00314378
0.00320022
0.00325943
0.00332158
0.00338681
0.00345526
0.00352705
0.00360226
0.00368094
0.0037631
0.00384866
0.00393749
0.00402932
0.0041238
0.00422041
0.00431847
0.00441712
0.0045153
0.00461175
0.004705
0.00479344
0.00487529
0.00494877
0.0050122
0.00506404
0.00510341
0.0051306
0.00514813
0.00515878
0.00516467
0.00516625
0.0051622
0.00514947
0.00512408
0.00508408
0.00502903
0.00495944
0.0048764
0.00478143
0.0046763
0.0045629
0.00444316
0.00431889
0.0041918
0.00406343
0.00393513
0.00380806
0.00368318
0.00356127
0.00344292
0.00332859
0.00321857
0.00311304
0.00301194
0.00291489
0.00282058
0.00272761
0.000494661
0.00104084
0.00105397
0.00106365
0.00106957
0.00107182
0.00107081
0.00106714
0.00106153
0.00105475
0.00104754
0.00104052
0.00103421
0.00102898
0.00102506
0.00102256
0.00102151
0.00102184
0.00102347
0.00102628
0.00103014
0.00103494
0.00104057
0.00104694
0.00105397
0.00106159
0.00106977
0.00107846
0.00108763
0.00109727
0.00110736
0.00111789
0.00112886
0.00114026
0.0011521
0.00116437
0.00117709
0.00119026
0.00120389
0.00121798
0.00123254
0.00124759
0.00126313
0.00127918
0.00129573
0.0013128
0.0013304
0.00134853
0.00136719
0.00138639
0.00140613
0.00142641
0.00144722
0.00146856
0.00149043
0.0015128
0.00153567
0.00155902
0.00158283
0.00160708
0.00163175
0.00165681
0.00168224
0.001708
0.00173407
0.00176042
0.00178701
0.00181382
0.00184081
0.00186797
0.00189526
0.00192266
0.00195014
0.00197769
0.00200529
0.00203292
0.00206056
0.00208821
0.00211585
0.00214348
0.00217109
0.00219866
0.0022262
0.00225369
0.00228114
0.00230853
0.00233586
0.00236313
0.00239033
0.00241746
0.00244451
0.00247122
0.00249779
0.00252435
0.00255098
0.0025777
0.00260453
0.0026315
0.00265862
0.00268592
0.00271341
0.00274112
0.00276908
0.00279731
0.00282586
0.00285475
0.00288403
0.00291374
0.00294393
0.00297466
0.00300599
0.00303796
0.00307066
0.00310415
0.0031385
0.0031738
0.00321012
0.00324757
0.00328622
0.00332618
0.00336755
0.00341044
0.00345495
0.0035012
0.00354929
0.00359934
0.00365145
0.00370571
0.00376221
0.00382102
0.00388217
0.00394567
0.0040115
0.00407958
0.00414976
0.00422181
0.00429543
0.00437021
0.00444561
0.00452099
0.00459556
0.00466838
0.00473844
0.00480463
0.00486569
0.00492048
0.00496798
0.00500712
0.00503762
0.00505949
0.00507431
0.00508399
0.00508993
0.00509245
0.00509061
0.00508239
0.00506531
0.00503779
0.00499909
0.00494916
0.00488844
0.00481775
0.0047382
0.00465103
0.00455757
0.00445917
0.00435712
0.00425264
0.00414684
0.00404072
0.00393514
0.00383084
0.00372842
0.00362837
0.00353105
0.00343669
0.00334535
0.00325671
0.00316978
0.00308361
0.000396682
0.000989714
0.00101423
0.00103377
0.00104809
0.00105737
0.00106217
0.00106326
0.00106156
0.00105801
0.00105349
0.00104877
0.00104446
0.00104102
0.00103874
0.00103778
0.00103822
0.00104002
0.00104313
0.00104744
0.00105285
0.00105925
0.00106655
0.00107466
0.0010835
0.00109303
0.0011032
0.00111398
0.00112534
0.00113727
0.00114976
0.00116281
0.00117642
0.00119059
0.00120533
0.00122065
0.00123655
0.00125306
0.00127019
0.00128793
0.00130632
0.00132535
0.00134505
0.00136543
0.00138648
0.00140823
0.00143068
0.00145383
0.00147768
0.00150224
0.00152749
0.00155344
0.00158007
0.00160737
0.00163532
0.00166389
0.00169307
0.00172283
0.00175313
0.00178393
0.00181521
0.00184692
0.00187902
0.00191145
0.00194419
0.00197717
0.00201037
0.00204372
0.00207719
0.00211073
0.00214431
0.00217789
0.00221144
0.00224492
0.00227831
0.00231158
0.00234471
0.00237768
0.00241048
0.00244308
0.00247548
0.00250765
0.0025396
0.0025713
0.00260275
0.00263393
0.00266484
0.00269547
0.00272581
0.00275584
0.00278549
0.00281464
0.0028435
0.00287218
0.00290073
0.00292917
0.00295751
0.00298578
0.00301399
0.00304214
0.00307026
0.00309836
0.00312646
0.00315459
0.00318277
0.00321103
0.0032394
0.00326791
0.00329661
0.00332553
0.00335472
0.00338423
0.00341412
0.00344442
0.00347521
0.00350654
0.00353848
0.0035711
0.00360446
0.00363863
0.00367371
0.00370975
0.00374684
0.00378507
0.0038245
0.00386522
0.0039073
0.00395081
0.00399579
0.00404229
0.00409033
0.00413989
0.00419095
0.00424344
0.00429724
0.00435216
0.00440796
0.00446433
0.00452089
0.00457717
0.00463259
0.00468648
0.00473817
0.00478695
0.00483188
0.00487225
0.00490761
0.00493691
0.00496015
0.00497749
0.00498987
0.00499849
0.00500427
0.00500744
0.00500736
0.00500274
0.00499201
0.00497396
0.00494782
0.00491324
0.00487028
0.00481929
0.00476086
0.00469576
0.00462487
0.00454911
0.00446943
0.00438673
0.00430189
0.00421573
0.00412897
0.00404227
0.00395619
0.0038712
0.00378771
0.00370598
0.00362615
0.00354807
0.00347103
0.00339447
0.000331526
0.000929954
0.000967109
0.000997847
0.00102182
0.00103924
0.00105078
0.0010574
0.00106019
0.00106029
0.00105878
0.00105655
0.00105437
0.00105277
0.00105215
0.00105274
0.00105465
0.00105791
0.00106246
0.00106825
0.00107519
0.00108317
0.00109212
0.00110196
0.00111262
0.00112405
0.00113622
0.00114909
0.00116266
0.0011769
0.00119181
0.00120741
0.00122368
0.00124064
0.00125831
0.00127668
0.00129579
0.00131564
0.00133625
0.00135763
0.0013798
0.00140277
0.00142655
0.00145116
0.00147659
0.00150287
0.00152998
0.00155793
0.00158671
0.00161632
0.00164675
0.00167797
0.00170998
0.00174273
0.00177622
0.00181039
0.00184522
0.00188066
0.00191667
0.00195319
0.00199019
0.00202759
0.00206534
0.00210339
0.00214167
0.00218013
0.0022187
0.00225733
0.00229596
0.00233454
0.00237302
0.00241135
0.00244949
0.0024874
0.00252506
0.00256242
0.00259947
0.00263617
0.00267251
0.00270847
0.00274403
0.00277918
0.0028139
0.00284818
0.00288201
0.00291538
0.00294828
0.0029807
0.00301263
0.00304406
0.00307479
0.00310498
0.00313476
0.0031642
0.00319334
0.00322219
0.00325077
0.0032791
0.00330717
0.003335
0.0033626
0.00338998
0.00341716
0.00344415
0.00347098
0.00349766
0.00352422
0.00355069
0.0035771
0.00360347
0.00362986
0.00365629
0.0036828
0.00370944
0.00373626
0.00376329
0.00379059
0.00381821
0.00384621
0.00387463
0.00390354
0.003933
0.00396306
0.00399378
0.00402521
0.00405743
0.00409048
0.0041244
0.00415925
0.00419503
0.00423176
0.00426943
0.00430802
0.00434748
0.00438772
0.00442861
0.00446995
0.00451151
0.00455306
0.00459428
0.00463473
0.00467393
0.00471147
0.004747
0.00477965
0.00480904
0.00483486
0.00485664
0.00487427
0.00488789
0.00489805
0.00490553
0.00491091
0.00491434
0.00491545
0.00491341
0.00490724
0.00489605
0.00487916
0.00485612
0.00482674
0.00479108
0.00474942
0.00470216
0.00464983
0.00459303
0.00453241
0.00446861
0.0044023
0.0043341
0.0042646
0.00419435
0.00412384
0.00405352
0.00398378
0.00391493
0.00384717
0.00378047
0.00371441
0.0036486
0.000285503
0.000865048
0.000914957
0.000957339
0.000991575
0.0010178
0.00103671
0.00104939
0.00105713
0.00106124
0.00106299
0.00106344
0.00106349
0.00106381
0.00106489
0.00106702
0.00107039
0.00107505
0.00108102
0.00108824
0.00109664
0.00110615
0.0011167
0.0011282
0.00114062
0.00115389
0.00116799
0.00118289
0.00119858
0.00121505
0.0012323
0.00125034
0.00126917
0.0012888
0.00130925
0.00133053
0.00135265
0.00137564
0.00139951
0.00142427
0.00144993
0.00147651
0.00150402
0.00153246
0.00156184
0.00159215
0.0016234
0.00165557
0.00168865
0.00172263
0.00175749
0.0017932
0.00182972
0.00186704
0.00190509
0.00194385
0.00198326
0.00202327
0.00206382
0.00210485
0.00214629
0.00218809
0.00223017
0.00227246
0.00231489
0.00235739
0.00239989
0.00244232
0.00248462
0.00252673
0.00256858
0.00261013
0.00265134
0.00269215
0.00273253
0.00277245
0.00281189
0.00285081
0.00288919
0.00292702
0.00296427
0.00300094
0.00303701
0.00307247
0.0031073
0.00314151
0.00317509
0.00320802
0.00324031
0.00327186
0.00330266
0.00333286
0.00336255
0.00339177
0.00342056
0.00344893
0.00347689
0.00350445
0.00353161
0.00355839
0.00358479
0.00361081
0.00363648
0.0036618
0.00368679
0.00371146
0.00373584
0.00375994
0.00378379
0.00380742
0.00383086
0.00385413
0.00387727
0.00390031
0.00392328
0.00394623
0.0039692
0.00399221
0.00401532
0.00403857
0.00406201
0.00408566
0.00410959
0.00413383
0.00415843
0.00418344
0.00420889
0.00423482
0.00426128
0.00428827
0.00431579
0.00434385
0.00437242
0.00440149
0.00443102
0.00446089
0.00449094
0.00452102
0.00455099
0.00458072
0.00460981
0.00463787
0.00466469
0.00469002
0.00471341
0.00473459
0.00475334
0.00476939
0.00478266
0.0047932
0.00480137
0.00480764
0.00481239
0.00481575
0.00481747
0.00481708
0.00481396
0.0048075
0.00479713
0.00478239
0.004763
0.00473886
0.00471001
0.00467664
0.00463901
0.00459749
0.00455248
0.00450443
0.00445381
0.00440107
0.00434667
0.00429105
0.00423463
0.0041778
0.00412093
0.00406434
0.00400829
0.00395285
0.00389774
0.00384268
0.000251579
0.000798413
0.000860195
0.000913879
0.000958382
0.000993598
0.00102016
0.00103922
0.00105219
0.00106056
0.00106576
0.00106903
0.0010714
0.00107369
0.00107647
0.00108013
0.00108491
0.00109093
0.00109823
0.00110679
0.00111657
0.0011275
0.00113953
0.00115258
0.00116661
0.00118158
0.00119746
0.00121422
0.00123186
0.00125037
0.00126974
0.00128998
0.00131111
0.00133313
0.00135605
0.00137989
0.00140466
0.00143038
0.00145707
0.00148472
0.00151335
0.00154298
0.00157359
0.00160521
0.00163781
0.0016714
0.00170596
0.00174148
0.00177794
0.00181532
0.00185358
0.00189269
0.00193261
0.0019733
0.00201472
0.0020568
0.00209949
0.00214274
0.00218647
0.00223062
0.00227512
0.0023199
0.00236488
0.00240998
0.00245513
0.00250025
0.00254525
0.00259006
0.00263462
0.00267885
0.0027227
0.0027661
0.00280901
0.00285138
0.00289318
0.00293437
0.00297492
0.00301482
0.00305403
0.00309255
0.00313035
0.00316742
0.00320375
0.00323933
0.00327417
0.00330824
0.00334156
0.00337411
0.0034059
0.00343683
0.00346704
0.00349661
0.00352559
0.00355402
0.00358194
0.00360934
0.00363624
0.00366263
0.00368854
0.00371396
0.00373889
0.00376334
0.00378732
0.00381083
0.0038339
0.00385652
0.00387873
0.00390053
0.00392195
0.003943
0.00396372
0.00398412
0.00400423
0.00402408
0.00404369
0.00406311
0.00408235
0.00410145
0.00412044
0.00413937
0.00415826
0.00417714
0.00419606
0.00421504
0.00423412
0.00425334
0.00427274
0.00429235
0.0043122
0.00433231
0.00435266
0.00437326
0.00439411
0.00441521
0.00443655
0.0044581
0.0044796
0.00450104
0.00452231
0.0045433
0.0045638
0.00458358
0.00460249
0.00462034
0.00463691
0.00465201
0.0046655
0.0046772
0.00468704
0.00469506
0.00470144
0.0047065
0.00471048
0.00471348
0.00471537
0.00471588
0.00471463
0.00471123
0.00470522
0.00469622
0.00468391
0.0046681
0.00464872
0.00462579
0.00459942
0.00456979
0.00453715
0.00450178
0.00446397
0.00442407
0.00438239
0.00433929
0.00429509
0.00425014
0.00420478
0.00415931
0.00411401
0.00406902
0.00402417
0.00397912
0.00022572
0.000732933
0.000805015
0.000869042
0.000923292
0.000967275
0.00100145
0.00102695
0.00104525
0.00105799
0.00106674
0.0010729
0.00107765
0.00108191
0.00108637
0.00109151
0.00109763
0.00110491
0.00111342
0.00112319
0.00113418
0.00114636
0.00115967
0.00117405
0.00118948
0.0012059
0.00122329
0.00124163
0.00126091
0.00128111
0.00130225
0.00132432
0.00134732
0.00137127
0.00139618
0.00142205
0.0014489
0.00147674
0.00150557
0.00153541
0.00156626
0.00159812
0.001631
0.00166488
0.00169975
0.00173561
0.00177244
0.00181021
0.00184891
0.00188849
0.00192892
0.00197017
0.00201219
0.00205493
0.00209834
0.00214238
0.00218697
0.00223205
0.00227757
0.00232345
0.00236963
0.00241602
0.00246256
0.00250916
0.00255574
0.00260221
0.00264848
0.00269449
0.00274014
0.00278537
0.0028301
0.00287428
0.00291786
0.00296078
0.00300301
0.00304453
0.0030853
0.00312529
0.0031645
0.0032029
0.00324048
0.00327722
0.00331311
0.00334816
0.00338236
0.00341571
0.00344822
0.00347989
0.00351072
0.00354076
0.00357009
0.00359875
0.0036268
0.00365426
0.00368114
0.00370746
0.00373321
0.0037584
0.00378304
0.00380712
0.00383065
0.00385363
0.00387607
0.00389796
0.00391931
0.00394015
0.00396047
0.0039803
0.00399965
0.00401855
0.00403701
0.00405504
0.00407268
0.00408993
0.00410684
0.00412342
0.00413969
0.00415569
0.00417144
0.00418698
0.00420233
0.00421753
0.00423258
0.00424751
0.00426237
0.00427718
0.00429197
0.00430679
0.00432167
0.00433663
0.0043516
0.00436664
0.00438174
0.00439691
0.00441215
0.00442741
0.00444261
0.00445769
0.00447258
0.00448722
0.00450149
0.00451525
0.00452841
0.00454084
0.00455243
0.00456307
0.00457265
0.00458106
0.00458823
0.00459418
0.00459901
0.00460292
0.00460608
0.00460855
0.0046103
0.00461117
0.00461096
0.00460941
0.00460618
0.00460097
0.00459348
0.00458349
0.00457088
0.00455556
0.00453756
0.00451693
0.0044938
0.00446832
0.00444068
0.00441111
0.00437982
0.00434709
0.00431316
0.00427832
0.00424287
0.0042071
0.00417127
0.00413556
0.00409984
0.00406368
0.000205457
0.00067073
0.000751179
0.000824195
0.000887288
0.000939464
0.000980912
0.00101265
0.0010362
0.00105327
0.00106555
0.00107458
0.00108166
0.00108784
0.0010939
0.00110041
0.00110773
0.0011161
0.00112564
0.00113639
0.00114835
0.0011615
0.00117579
0.00119118
0.00120763
0.00122512
0.0012436
0.00126307
0.00128351
0.00130492
0.00132728
0.0013506
0.00137488
0.00140011
0.00142631
0.00145346
0.00148159
0.0015107
0.00154079
0.00157186
0.00160393
0.00163698
0.00167102
0.00170604
0.00174202
0.00177894
0.00181678
0.00185552
0.00189513
0.00193557
0.00197682
0.00201882
0.00206155
0.00210495
0.00214898
0.00219359
0.00223871
0.0022843
0.00233029
0.00237663
0.00242325
0.00247007
0.00251704
0.00256406
0.00261106
0.00265793
0.00270459
0.00275094
0.00279689
0.00284235
0.00288725
0.00293153
0.00297512
0.00301798
0.00306008
0.00310137
0.00314184
0.00318146
0.00322022
0.00325809
0.00329506
0.00333112
0.00336626
0.00340048
0.00343378
0.00346617
0.00349766
0.00352834
0.00355825
0.00358745
0.00361595
0.00364379
0.00367101
0.00369761
0.00372361
0.00374902
0.00377383
0.00379805
0.00382168
0.00384471
0.00386715
0.00388899
0.00391024
0.00393089
0.00395095
0.00397043
0.00398933
0.00400768
0.00402549
0.00404277
0.00405955
0.00407583
0.00409163
0.00410697
0.00412188
0.00413637
0.00415047
0.0041642
0.00417758
0.00419064
0.00420342
0.00421594
0.00422817
0.00424017
0.00425197
0.00426359
0.00427505
0.0042864
0.00429765
0.00430883
0.00431992
0.00433094
0.0043419
0.00435281
0.00436367
0.00437446
0.00438515
0.00439568
0.00440603
0.00441616
0.00442599
0.00443546
0.00444451
0.00445308
0.00446109
0.00446848
0.00447518
0.00448112
0.00448624
0.00449053
0.00449407
0.00449697
0.00449935
0.00450127
0.00450271
0.00450363
0.0045039
0.00450337
0.00450183
0.00449901
0.00449469
0.00448865
0.00448074
0.00447083
0.00445888
0.00444488
0.00442887
0.00441093
0.00439116
0.00436969
0.00434669
0.00432232
0.00429678
0.00427031
0.00424315
0.00421557
0.00418781
0.00416005
0.00413217
0.00410365
0.000189185
0.000613143
0.000699958
0.000780422
0.000851209
0.000910739
0.000958852
0.000996409
0.00102489
0.00104605
0.00106167
0.0010734
0.00108266
0.00109059
0.00109807
0.00110573
0.00111402
0.0011232
0.00113344
0.00114482
0.00115735
0.00117103
0.00118582
0.00120169
0.0012186
0.00123653
0.00125546
0.00127537
0.00129626
0.00131812
0.00134093
0.00136469
0.00138938
0.00141499
0.00144151
0.00146895
0.00149729
0.00152654
0.0015567
0.00158778
0.00161978
0.00165272
0.00168659
0.00172138
0.00175707
0.00179365
0.00183109
0.00186938
0.00190848
0.00194837
0.00198902
0.00203039
0.00207246
0.00211519
0.00215853
0.00220245
0.0022469
0.00229185
0.00233723
0.002383
0.00242912
0.00247552
0.00252214
0.0025689
0.00261571
0.00266247
0.00270906
0.00275537
0.00280129
0.0028467
0.00289152
0.00293568
0.00297909
0.00302171
0.00306351
0.00310444
0.00314451
0.00318367
0.00322193
0.00325924
0.0032956
0.00333099
0.0033654
0.00339883
0.00343128
0.00346277
0.0034935
0.00352355
0.0035529
0.00358157
0.00360958
0.00363695
0.00366369
0.00368981
0.00371532
0.00374022
0.00376451
0.00378818
0.00381123
0.00383367
0.00385549
0.00387668
0.00389723
0.00391715
0.00393644
0.00395509
0.00397312
0.00399055
0.00400739
0.00402365
0.00403938
0.00405453
0.00406916
0.00408326