/*--------------------------------*- C++ -*----------------------------------*\
| =========                 |                                                 |
| \\      /  F ield         | OpenFOAM: The Open Source CFD Toolbox           |
|  \\    /   O peration     | Version:  2112                                  |
|   \\  /    A nd           | Website:  www.openfoam.com                      |
|    \\/     M anipulation  |                                                 |
\*---------------------------------------------------------------------------*/
FoamFile
{
    version     2.0;
    format      ascii;
    arch        "LSB;label=32;scalar=64";
    class       volScalarField;
    location    "0.5";
    object      k;
}
// * * * * * * * * * * * * * * * * * * * * * * * * * * * * * * * * * * * * * //

dimensions      [0 2 -2 0 0 0 0];

internalField   nonuniform List<scalar> 
12225
(
1.73079
1.96127
1.86726
1.71831
1.60336
1.4945
1.38609
1.27583
1.16237
1.04527
0.925377
0.805209
0.689027
0.582026
0.489332
0.414768
0.358587
0.317896
0.262268
0.157074
0.101387
0.0754094
0.0634697
0.0574272
0.054006
0.0518639
0.0503108
0.0488417
0.0470083
0.044457
0.041037
0.0368714
0.0322905
0.0277649
0.0235891
0.0198006
0.325751
0.26941
0.221413
0.182771
0.151762
0.126522
0.105586
0.0879265
0.0728869
0.0600848
0.0493109
0.0404208
0.03325
0.0275846
0.023182
0.0198111
0.0172706
0.0154005
0.344727
0.310574
0.278473
0.249762
0.224553
0.202511
0.183143
0.165947
0.150479
0.136389
0.12344
0.111522
0.100629
0.0908219
0.0821649
0.0746837
0.0683395
0.063082
0.350985
0.325336
0.300756
0.277949
0.257141
0.238304
0.221277
0.205842
0.191773
0.178872
0.166988
0.156032
0.14597
0.136805
0.128548
0.121185
0.114669
0.108951
0.353321
0.331486
0.310836
0.291555
0.273725
0.257332
0.242294
0.228495
0.215803
0.204093
0.193261
0.183228
0.173945
0.165392
0.157558
0.150434
0.143999
0.138254
0.354169
0.334047
0.315459
0.29827
0.282393
0.267748
0.254246
0.241791
0.230284
0.219635
0.209761
0.200596
0.192091
0.184209
0.176924
0.170215
0.164059
0.158475
0.354456
0.335038
0.317449
0.301411
0.286723
0.273237
0.260827
0.249385
0.238815
0.229031
0.219959
0.211537
0.203714
0.19645
0.189709
0.183464
0.177691
0.172409
0.354544
0.335385
0.318224
0.302745
0.288702
0.275901
0.264188
0.253434
0.243532
0.234391
0.225934
0.218096
0.210822
0.204067
0.197792
0.191964
0.186556
0.181587
0.354568
0.335493
0.318491
0.303248
0.289507
0.277059
0.265733
0.255389
0.245907
0.237189
0.229153
0.221727
0.214852
0.208477
0.202558
0.197059
0.191949
0.187244
0.354574
0.335522
0.318571
0.303413
0.289793
0.277501
0.26636
0.256224
0.24697
0.238494
0.230708
0.223537
0.216917
0.210792
0.205114
0.199844
0.194948
0.190435
0.354575
0.335528
0.318588
0.303454
0.289873
0.277634
0.266563
0.256511
0.247354
0.238986
0.231317
0.224269
0.217777
0.211781
0.206233
0.201089
0.196313
0.191913
0.354575
0.335528
0.318591
0.303463
0.289893
0.277674
0.266629
0.256612
0.247497
0.239179
0.231567
0.224581
0.218154
0.212228
0.20675
0.201676
0.19697
0.192635
0.354575
0.335527
0.318589
0.303461
0.289893
0.277678
0.26664
0.256635
0.247535
0.239236
0.231645
0.224685
0.218287
0.21239
0.206945
0.201904
0.197232
0.192931
0.354575
0.335526
0.318586
0.303456
0.289886
0.277669
0.266632
0.256627
0.247529
0.239233
0.231646
0.224691
0.218299
0.212409
0.206971
0.20194
0.197277
0.192985
0.354574
0.335525
0.318583
0.30345
0.289877
0.277658
0.266617
0.25661
0.24751
0.239211
0.231622
0.224664
0.218269
0.212377
0.206937
0.201904
0.19724
0.192949
0.354574
0.335524
0.318581
0.303445
0.289869
0.277647
0.266603
0.256592
0.247488
0.239186
0.231593
0.224632
0.218233
0.212338
0.206895
0.201859
0.197194
0.192903
0.354574
0.335524
0.318579
0.303441
0.289863
0.277637
0.266591
0.256577
0.24747
0.239165
0.23157
0.224606
0.218206
0.21231
0.206867
0.201833
0.197169
0.192882
0.354574
0.335523
0.318578
0.303439
0.289859
0.277633
0.266585
0.25657
0.247463
0.239157
0.231562
0.224599
0.218201
0.212308
0.206869
0.20184
0.197184
0.192905
0.354574
0.335524
0.318578
0.30344
0.289862
0.277637
0.266591
0.256578
0.247473
0.23917
0.231578
0.224619
0.218225
0.212337
0.206905
0.201882
0.197234
0.192964
0.354574
0.335524
0.31858
0.303444
0.289869
0.277646
0.266602
0.256592
0.247489
0.239188
0.231598
0.224641
0.21825
0.212364
0.206934
0.201915
0.19727
0.193004
0.354574
0.335525
0.318582
0.303446
0.28987
0.277644
0.266596
0.256578
0.247466
0.239154
0.231551
0.224581
0.218175
0.212275
0.206831
0.201798
0.197139
0.192859
0.354573
0.335518
0.318564
0.303407
0.289796
0.277524
0.266418
0.256332
0.247145
0.238754
0.231069
0.224015
0.217527
0.211547
0.206027
0.200921
0.196194
0.19185
0.354559
0.335453
0.318398
0.303087
0.289273
0.276757
0.26538
0.255008
0.245529
0.236848
0.228884
0.221565
0.214829
0.208622
0.202893
0.1976
0.192707
0.188215
0.354452
0.335034
0.317467
0.301484
0.286899
0.273569
0.261379
0.250227
0.24002
0.230676
0.222116
0.214269
0.207072
0.200465
0.194393
0.18881
0.183674
0.178979
0.353852
0.333048
0.313617
0.29558
0.278958
0.263735
0.249859
0.237249
0.22581
0.215442
0.206047
0.19753
0.189804
0.182788
0.17641
0.170605
0.165316
0.160522
0.351176
0.325536
0.300807
0.277854
0.257041
0.238435
0.221932
0.207348
0.194475
0.183111
0.173069
0.164179
0.156295
0.149286
0.143041
0.137463
0.132469
0.128005
0.340487
0.298484
0.25914
0.225183
0.196822
0.173411
0.154108
0.138131
0.124837
0.113712
0.104354
0.0964426
0.0897256
0.0839996
0.0791001
0.0748927
0.0712674
0.0681339
0.30019
0.202176
0.13275
0.0922917
0.0699363
0.0571847
0.0493109
0.0439583
0.0399757
0.0367941
0.034126
0.0318194
0.0297887
0.0279826
0.0263677
0.0249257
0.0236503
0.0225879
1.46356
1.80002
1.81697
1.73996
1.64217
1.54594
1.45735
1.37765
1.3068
1.24434
1.18965
1.14205
1.10086
1.06545
1.0352
1.00955
0.989134
0.975574
0.0813575
0.0985314
0.119837
0.131345
0.129285
0.112462
0.0838018
0.0615544
0.0477426
0.0454433
0.0577854
0.0783542
0.105897
0.141282
0.194201
0.265755
0.356054
0.463219
0.583222
0.708121
0.811311
0.879303
0.903019
0.876594
0.798635
0.673893
0.514161
0.339665
0.183532
0.0798213
0.0331152
0.0402867
0.0574396
0.0700243
0.0735209
0.066877
0.0541938
0.0454561
0.0479314
0.0642008
0.0903158
0.119337
0.135611
0.13494
0.128186
0.123624
0.125714
0.125954
0.114272
0.100022
0.150784
0.31907
0.527661
0.755253
0.98544
1.2057
1.40707
1.58372
1.73238
1.85175
1.94189
2.00384
2.0392
2.0499
2.03804
2.00572
1.95477
1.89143
1.81863
1.73709
1.64751
1.55063
1.44726
1.33836
1.22511
1.10892
0.991503
0.874823
0.761015
0.652268
0.550653
0.457945
0.375476
0.304051
0.243964
0.19512
0.15723
0.127412
0.0996736
0.0745419
0.0529322
0.0369041
0.0358075
0.0487463
0.0644849
0.081136
0.0978773
0.114206
0.129789
0.144427
0.158591
0.175445
0.193044
0.210299
0.226575
0.2415
0.254872
0.266595
0.276612
0.284889
0.291532
0.295435
0.295286
0.290859
0.282186
0.269701
0.254336
0.237466
0.220657
0.205304
0.192325
0.182031
0.174228
0.168627
0.165151
0.162528
0.160142
0.157717
0.155127
0.152317
0.149264
0.145951
0.142355
0.138459
0.134257
0.129792
0.125186
0.120684
0.116676
0.113679
0.112211
0.112179
0.113997
0.11793
0.124129
0.13319
0.146148
0.162859
0.180302
0.186295
0.17136
0.13245
0.0995996
0.180583
0.335168
0.478829
0.584031
0.63761
0.637208
0.58881
0.505945
0.410352
0.31552
0.233157
0.171282
0.115646
0.0685188
0.0393578
0.0456433
0.0890387
0.137962
0.198383
0.272291
0.351604
0.432325
0.510835
0.587501
0.650185
0.65507
0.556316
0.205141
0.0435927
0.0438259
0.03896
0.0271757
0.00421196
0.00334984
0.00287075
0.00247035
0.00215496
0.00192464
0.00176787
0.00168144
0.00166855
0.00175648
0.00197744
0.00237016
0.00297681
0.00384431
0.00582671
0.0215023
0.049291
0.0840912
0.119421
0.148349
0.164638
0.164188
0.146313
0.11613
0.0826796
0.052432
0.0320173
0.022601
0.0176727
0.0101705
0.00350055
0.003103
0.00352328
0.00402448
0.00434813
0.0045756
0.00575918
0.0117444
0.0176214
0.0189788
0.0244266
0.0417405
0.0649966
0.0811271
0.0992056
0.125367
0.156483
0.182032
0.198648
0.205295
0.202596
0.192194
0.176204
0.156801
0.135979
0.115436
0.0965431
0.080354
0.067635
0.0589053
0.0545836
0.0555857
0.0586349
0.0618484
0.0652278
0.0687654
0.0724425
0.0762303
0.0800907
0.0839782
0.0878409
0.0916204
0.0952493
0.0986471
0.101715
0.10433
0.10635
0.107619
0.107988
0.107346
0.105645
0.102907
0.0991744
0.0944432
0.088788
0.0822675
0.074847
0.067478
0.0616513
0.0562622
0.0512349
0.046547
0.0421749
0.0380968
0.0342943
0.0307481
0.0274582
0.0244056
0.0215848
0.0190025
0.0166707
0.0145997
0.0127931
0.0112454
0.00994602
0.00891522
0.00863305
0.00936005
0.0105877
0.011911
0.0129631
0.0134681
0.0133073
0.0125272
0.0113017
0.00986657
0.00844922
0.0072204
0.006276
0.00563874
0.0052651
0.00508678
0.00503503
0.00505498
0.00511112
0.00518531
0.00527062
0.00536345
0.00545611
0.00553054
0.00555439
0.00548098
0.00525519
0.00482542
0.00416577
0.00333378
0.00280756
0.00255743
0.00246782
0.00251639
0.00274948
0.00332294
0.00460708
0.00748284
0.0144206
0.026518
0.035248
0.0394155
0.0507211
0.0571751
0.0531578
0.0421751
0.0289615
0.0177657
0.011536
0.0109552
0.0106674
0.010442
0.010284
0.0101432
0.00974237
0.00898316
0.00798394
0.00716701
0.00669251
0.00636139
0.00628457
0.00650217
0.00696328
0.00761335
0.00843475
0.00970425
0.0133945
0.0307501
0.0465196
0.227974
0.0368473
0.0206282
0.01529
0.00872844
0.00574588
0.00417271
0.00316501
0.00247065
0.00197683
0.0016191
0.00135669
0.00116187
0.00101492
0.00090172
0.000812254
0.000739533
0.000678758
0.000626712
0.00058393
0.000845534
0.00276759
0.00786723
0.0170202
0.0296892
0.043643
0.055479
0.0618443
0.0612379
0.0546769
0.044383
0.0332422
0.0234177
0.0154296
0.00920209
0.00553718
0.00420538
0.0041718
0.00469132
0.00521666
0.00538089
0.00574329
0.00924889
0.0173007
0.0290067
0.0373415
0.0442828
0.0508297
0.0563669
0.0616853
0.0663204
0.0686095
0.0675561
0.063988
0.0592971
0.0548806
0.0517513
0.0503625
0.0506295
0.052101
0.0542137
0.0565138
0.0587474
0.060829
0.0627641
0.0645861
0.0664113
0.0683445
0.070393
0.0725677
0.0748831
0.0773564
0.0800061
0.0828505
0.0859036
0.0891704
0.0926403
0.0962777
0.100013
0.103733
0.107276
0.110433
0.112964
0.114623
0.115192
0.114523
0.11256
0.109347
0.105012
0.0997373
0.0937018
0.0869223
0.0804803
0.0748473
0.0695459
0.0645856
0.0599766
0.0557129
0.0517789
0.0481542
0.0448153
0.0417375
0.0388959
0.0362674
0.0338311
0.0315685
0.0294634
0.027501
0.0256679
0.023951
0.0223376
0.0208135
0.0193532
0.0178817
0.0163479
0.014772
0.0131854
0.0116431
0.0102037
0.00891309
0.00779795
0.00686463
0.00610226
0.00548806
0.00499365
0.00459038
0.0042528
0.00396036
0.00369765
0.00345399
0.00322262
0.00299971
0.00278349
0.0025734
0.0023695
0.00217171
0.00197923
0.00179049
0.00160453
0.00142387
0.00125755
0.00112006
0.00102192
0.000982881
0.00105496
0.00131394
0.00175063
0.00252326
0.00437338
0.00878349
0.0151589
0.0179232
0.0172308
0.0159609
0.0127555
0.00937934
0.00738701
0.00687709
0.00709183
0.00741267
0.00779322
0.00825747
0.00878068
0.00932232
0.00982339
0.0102068
0.0103908
0.0103015
0.00995739
0.00951288
0.00901051
0.00849734
0.00799972
0.00752566
0.00706995
0.00661872
0.00614243
0.0055751
0.00488486
0.00569574
0.127097
0.0205806
0.00954817
0.00703033
0.00590155
0.00470661
0.00361581
0.00275359
0.00211879
0.00166862
0.00135602
0.00114044
0.000990346
0.000882954
0.000802694
0.000739398
0.000686638
0.000640425
0.000598254
0.000558471
0.000524927
0.000594351
0.0011209
0.00274712
0.0061687
0.0116643
0.0186124
0.0254207
0.0302299
0.0318961
0.0303564
0.0264592
0.0213327
0.0159452
0.0112483
0.00797627
0.00612986
0.0057284
0.00651062
0.00784639
0.00990491
0.0143873
0.0197398
0.0244569
0.0284714
0.0312999
0.0336079
0.0354431
0.0367081
0.0374647
0.0376485
0.0373533
0.0370726
0.037424
0.0387134
0.0408523
0.0434735
0.0461383
0.0485116
0.0504415
0.0519409
0.0531161
0.0540907
0.0549627
0.0557954
0.0566285
0.0575703
0.0586125
0.0597604
0.0610261
0.0624304
0.0640043
0.0657876
0.0678284
0.0701789
0.0728901
0.0760039
0.0795416
0.0834895
0.087783
0.0922913
0.0968078
0.101054
0.1047
0.107408
0.108885
0.108944
0.107525
0.104713
0.100688
0.0956594
0.0897744
0.0842918
0.0790921
0.0740944
0.0693555
0.064908
0.0607625
0.0569165
0.0533587
0.0500728
0.0470394
0.044238
0.0416479
0.0392493
0.0370233
0.0349525
0.033021
0.0312141
0.0295189
0.0279238
0.026419
0.0249939
0.0236354
0.0223125
0.0210016
0.0197066
0.0184348
0.0172043
0.016037
0.0149499
0.0139514
0.0130403
0.012209
0.0114473
0.0107447
0.0100925
0.00948371
0.00891266
0.00837483
0.00786635
0.0073839
0.00692465
0.00648641
0.00606787
0.00566885
0.00529052
0.00493531
0.0046061
0.00430524
0.00403373
0.00378761
0.00355351
0.00332195
0.00311281
0.00298214
0.00297437
0.0033277
0.00468397
0.00754651
0.0102216
0.0097916
0.00797109
0.00621733
0.00501975
0.00479324
0.00516421
0.00554653
0.00573982
0.0059083
0.00617875
0.00656689
0.00705785
0.00762639
0.00822782
0.0087912
0.00922158
0.0094131
0.00934216
0.00912166
0.00881721
0.00848041
0.0081439
0.00782169
0.00751476
0.00721856
0.00692702
0.00662756
0.0062773
0.00569669
0.0833924
0.00898241
0.0110461
0.00950408
0.00699319
0.00488247
0.00338177
0.00239123
0.00176702
0.00138538
0.00115419
0.00101122
0.000917578
0.000850445
0.000797146
0.000751055
0.000709045
0.000669873
0.000633086
0.000598268
0.000564435
0.000535138
0.000558027
0.000803296
0.00161337
0.00341592
0.00646741
0.0105167
0.0147039
0.0179239
0.0194004
0.0190011
0.0170793
0.0142119
0.01116
0.00865891
0.00718411
0.00738337
0.00949674
0.0136171
0.0165266
0.0180402
0.0201041
0.0219454
0.0234184
0.0245254
0.0254276
0.0261767
0.0268815
0.027709
0.0288182
0.0303535
0.0323638
0.0347061
0.0370801
0.0391727
0.0407844
0.0418735
0.0425241
0.0428792
0.0430826
0.0432457
0.0434393
0.0436992
0.0440385
0.0445229
0.0451247
0.0458151
0.0465808
0.0474183
0.0483366
0.0493603
0.0505319
0.051912
0.0535782
0.0556211
0.0581361
0.0612124
0.0649155
0.0692656
0.074212
0.0796079
0.0851955
0.0906091
0.0954074
0.0991423
0.101455
0.102125
0.101134
0.0986108
0.0947423
0.0900554
0.0854383
0.0807611
0.0761455
0.0716843
0.0674332
0.0634223
0.0596643
0.0561599
0.0529024
0.0498804
0.0470795
0.0444839
0.0420772
0.039843
0.0377655
0.0358294
0.0340205
0.0323256
0.0307323
0.0292297
0.0278077
0.0264573
0.0251696
0.0239266
0.0227264
0.0215674
0.0204508
0.0193801
0.0183595
0.0173915
0.0164763
0.015612
0.0147954
0.0140229
0.0132912
0.0125975
0.0119392
0.0113143
0.0107208
0.0101568
0.00962037
0.00910966
0.008623
0.00815908
0.00771704
0.00729635
0.00689603
0.00651369
0.00614477
0.00577745
0.00538633
0.00495211
0.00450325
0.00407976
0.00376717
0.0038649
0.00475769
0.00632766
0.00687223
0.0056539
0.00430465
0.00363863
0.00369744
0.00409999
0.00436964
0.00439533
0.004369
0.00443837
0.00463886
0.00496374
0.00541133
0.00597296
0.00662062
0.00729353
0.00789167
0.00828076
0.00839984
0.00834512
0.0081794
0.00795871
0.00772242
0.00749019
0.00726652
0.00704832
0.00683276
0.00662044
0.00641269
0.00617678
0.11991
0.0304781
0.020483
0.0124743
0.00732518
0.00432822
0.00268786
0.00183371
0.0014026
0.00118354
0.0010641
0.000988388
0.000930055
0.000877474
0.000826269
0.000775691
0.000726806
0.000681406
0.000641189
0.000607104
0.000578293
0.000548975
0.000523971
0.000540546
0.000721164
0.00130254
0.00257024
0.00467955
0.00743717
0.0102479
0.0123773
0.0133506
0.0130923
0.0118233
0.0100436
0.0084719
0.00808424
0.0102575
0.0149239
0.0159486
0.0161135
0.016778
0.0177059
0.0186136
0.019443
0.0202373
0.0210997
0.0221307
0.0234303
0.0250415
0.0269084
0.0288736
0.0307036
0.0321574
0.0330746
0.0334273
0.033308
0.0328782
0.0323119
0.0317563
0.0313158
0.031053
0.0309968
0.0311516
0.0315025
0.0320887
0.0327793
0.0335483
0.0343744
0.0352415
0.0361421
0.0370808
0.0380794
0.0391818
0.0404582
0.0420063
0.0439476
0.0464189
0.0495566
0.0534729
0.0582248
0.0637764
0.0699625
0.0764667
0.0828164
0.0884356
0.0927935
0.0954762
0.0963205
0.0953482
0.0927582
0.0894103
0.085615
0.0815568
0.0774091
0.0732933
0.0692895
0.0654482
0.0617984
0.0583549
0.0551222
0.0520986
0.0492776
0.04665
0.0442048
0.0419298
0.039812
0.0378385
0.0359963
0.0342727
0.0326557
0.031134
0.0296973
0.0283361
0.0270417
0.0258059
0.0246161
0.0234737
0.0223768
0.0213247
0.0203176
0.0193552
0.0184368
0.0175609
0.0167255
0.0159287
0.0151683
0.0144427
0.0137504
0.0130901
0.0124606
0.0118604
0.0112883
0.0107427
0.010222
0.00972463
0.00924867
0.00879198
0.00835115
0.00792078
0.00749273
0.00704965
0.00655598
0.0059836
0.00536458
0.00474335
0.00424973
0.00412934
0.00453768
0.00510089
0.00467287
0.00357865
0.00293244
0.00296579
0.00333063
0.00357031
0.00352203
0.00335485
0.00325131
0.00327012
0.00341694
0.00368403
0.00408024
0.00461191
0.00526868
0.00600434
0.00672073
0.00725365
0.00752884
0.00761695
0.00756847
0.0074423
0.00728441
0.00712003
0.00695678
0.00679309
0.00662642
0.00645776
0.00629149
0.00612772
0.107015
0.0574303
0.0274991
0.0126475
0.00589902
0.00302915
0.00188064
0.00143404
0.0012504
0.0011566
0.00108915
0.0010262
0.000960975
0.000892352
0.000821708
0.000751662
0.000685423
0.000626323
0.00057725
0.000539999
0.00051396
0.000493067
0.000475032
0.000465379
0.000505523
0.000713475
0.00128584
0.00242092
0.00416949
0.00629222
0.00828709
0.00965423
0.0101325
0.00974133
0.00885696
0.00833398
0.00980651
0.0140608
0.0150775
0.0145074
0.0144844
0.014912
0.0155659
0.0163176
0.0171591
0.0181448
0.0193372
0.0207584
0.022362
0.0240153
0.0255214
0.0266735
0.0273169
0.0273986
0.0269789
0.0262021
0.0252451
0.0242723
0.0234084
0.0227319
0.0222829
0.0220744
0.0221038
0.0223602
0.0228346
0.0234286
0.0240761
0.024769
0.025503
0.0262759
0.0270881
0.0279431
0.0288509
0.0298334
0.030932
0.0322151
0.0337844
0.0357744
0.0383448
0.0416622
0.0458697
0.0510466
0.0571577
0.0640164
0.0712234
0.0781435
0.0840978
0.0885078
0.0910098
0.09148
0.0903286
0.0881368
0.0852273
0.0818665
0.078259
0.0745536
0.0708539
0.0672297
0.0637263
0.060372
0.0571833
0.0541682
0.0513292
0.0486645
0.0461695
0.0438372
0.0416591
0.0396255
0.0377259
0.0359493
0.0342847
0.032721
0.0312478
0.0298551
0.0285336
0.0272755
0.0260709
0.0249173
0.0238111
0.0227499
0.0217321
0.0207565
0.0198216
0.018926
0.0180683
0.017247
0.0164606
0.015708
0.0149881
0.0142998
0.0136423
0.0130143
0.0124147
0.011842
0.0112946
0.0107706
0.0102677
0.00978302
0.00931197
0.00884777
0.00838018
0.00788747
0.00732614
0.00666404
0.00593445
0.00518926
0.00457554
0.00421521
0.00415252
0.00404346
0.00329369
0.00256028
0.00242521
0.00272809
0.00301254
0.00299715
0.00276644
0.00253485
0.00240475
0.00239441
0.0025005
0.00271656
0.00305914
0.00354732
0.00418711
0.00494965
0.00574295
0.00636541
0.0067776
0.00699071
0.00704437
0.00699814
0.00690374
0.00679179
0.00667294
0.00654665
0.00641065
0.00626595
0.00611793
0.00597049
0.381112
0.0987638
0.0300597
0.00961246
0.00362085
0.00196735
0.00151913
0.00137165
0.00128639
0.00120834
0.00112782
0.00104363
0.000955633
0.000864876
0.000773624
0.000684699
0.000601421
0.00052787
0.00046832
0.000425837
0.000400293
0.00038895
0.000386317
0.00038786
0.000406534
0.000506343
0.000822736
0.00152739
0.00273085
0.00435375
0.00606967
0.00744646
0.008175
0.00822322
0.00800085
0.00861829
0.0119422
0.0139396
0.0133112
0.0128672
0.012992
0.0134805
0.0141865
0.0150536
0.0160891
0.0173096
0.0186925
0.0201517
0.0215403
0.0226806
0.0234158
0.0236595
0.0234217
0.0228016
0.0219521
0.0210357
0.0201891
0.0195034
0.0190237
0.018759
0.0186952
0.0188069
0.0190648
0.019441
0.0198951
0.0203329
0.0207518
0.0211558
0.0215551
0.0219652
0.0224047
0.0228945
0.0234568
0.0241184
0.024915
0.0258988
0.0271457
0.0287609
0.0308802
0.0336642
0.0372795
0.0418704
0.0475024
0.0541455
0.0615705
0.0691882
0.076175
0.0819052
0.0857345
0.0874883
0.087621
0.0865176
0.0845047
0.0818675
0.0788344
0.075577
0.0722194
0.0688487
0.065525
0.0622893
0.0591691
0.0561819
0.0533389
0.0506456
0.048104
0.0457129
0.0434685
0.0413651
0.0393957
0.0375516
0.0358236
0.034202
0.0326766
0.0312379
0.0298765
0.0285838
0.0273512
0.0261729
0.0250446
0.0239624
0.0229238
0.0219264
0.0209686
0.0200486
0.019165
0.0183166
0.017502
0.0167206
0.0159713
0.0152534
0.0145661
0.0139086
0.0132797
0.0126783
0.0121025
0.0115506
0.01102
0.0105074
0.010008
0.00951437
0.00901511
0.00848512
0.00787633
0.00715624
0.00635686
0.00553984
0.00480845
0.00419153
0.00372192
0.00321419
0.00245628
0.00205939
0.00221672
0.00255578
0.00266868
0.00247348
0.00216918
0.00192644
0.00179087
0.00176576
0.00184197
0.00201409
0.00230455
0.00274377
0.00335067
0.00411524
0.00493242
0.00562626
0.00615181
0.00647404
0.00661812
0.00664155
0.00660045
0.00653026
0.00644443
0.00634362
0.00622642
0.00609451
0.0059546
0.00581112
0.742102
0.114139
0.0209328
0.00476686
0.00210283
0.0016717
0.00154669
0.00144369
0.00133848
0.0012353
0.00113535
0.0010357
0.000933495
0.000828762
0.000723138
0.000618562
0.000518272
0.000428102
0.000355511
0.000305981
0.000281339
0.000282208
0.000297119
0.000315122
0.000339354
0.000414849
0.00064935
0.00118969
0.00214678
0.00348914
0.00497248
0.00622286
0.00696238
0.00725206
0.00764855
0.00973983
0.0122325
0.0122617
0.011678
0.0115841
0.0119396
0.0125871
0.0134418
0.0144742
0.0156688
0.0169816
0.0183184
0.0195432
0.0205089
0.0211006
0.0212728
0.0210618
0.0205713
0.01994
0.0193069
0.0187819
0.0184306
0.0182747
0.0183034
0.0184867
0.0187861
0.0191619
0.0195769
0.0199999
0.0203575
0.0206375
0.0208363
0.0209593
0.0210231
0.0210542
0.0210861
0.0211545
0.0212939
0.0215386
0.0219293
0.0225211
0.0233911
0.0246396
0.0263828
0.0287545
0.0318903
0.0359346
0.0409781
0.0471005
0.0542792
0.0621122
0.0695687
0.0761878
0.0808131
0.0836899
0.0849407
0.0848273
0.0836567
0.0817183
0.0792536
0.0764501
0.0734474
0.0703468
0.0672212
0.0641226
0.0610884
0.0581452
0.055312
0.0526013
0.0500213
0.0475764
0.0452676
0.0430934
0.0410502
0.0391324
0.0373331
0.0356441
0.0340567
0.0325618
0.0311502
0.0298134
0.0285433
0.0273318
0.0261742
0.0250654
0.0240016
0.0229796
0.021997
0.0210516
0.0201416
0.0192658
0.0184231
0.0176125
0.0168334
0.0160852
0.0153673
0.0146791
0.0140195
0.0133875
0.0127816
0.0121998
0.0116398
0.0110982
0.0105699
0.0100477
0.0095194
0.00895796
0.00831352
0.00755514
0.00671042
0.0058375
0.00499068
0.00411985
0.00332525
0.00260263
0.00195314
0.00180193
0.00210224
0.00238406
0.00234278
0.00204859
0.00172816
0.00149664
0.00136779
0.0013382
0.00139248
0.00152649
0.00176762
0.00215776
0.00272383
0.00347072
0.00426685
0.0050269
0.00564472
0.00606163
0.00628638
0.00637185
0.00637701
0.00634142
0.00628101
0.0061977
0.00609158
0.00596615
0.00583059
0.00569018
1.05852
0.0931478
0.00929991
0.00242599
0.00192027
0.00177916
0.00162907
0.00148756
0.00136251
0.00125103
0.00114678
0.00104228
0.00093321
0.000819593
0.000702728
0.000583793
0.000466325
0.000358538
0.000272591
0.00021856
0.000202614
0.000219972
0.000247161
0.000272871
0.000304608
0.000389726
0.000627946
0.00114593
0.0020326
0.00325191
0.00456071
0.00559903
0.00627418
0.00682818
0.00802498
0.0101939
0.0110494
0.0107123
0.0104987
0.0107306
0.0113027
0.0121141
0.0131131
0.0142657
0.0155206
0.01679
0.0179552
0.0188949
0.0195198
0.0198001
0.0197721
0.0195248
0.0191756
0.0188428
0.018619
0.0185567
0.018668
0.0189356
0.019326
0.0197993
0.0203144
0.020832
0.0213154
0.0217172
0.0220169
0.0222021
0.0222564
0.0221763
0.0219765
0.0216916
0.0213719
0.021074
0.0208505
0.0207436
0.0207938
0.0210526
0.0215962
0.0225359
0.0239866
0.0260747
0.0288924
0.0325501
0.0371079
0.042663
0.0493467
0.0570938
0.0645613
0.0712821
0.0766665
0.0804303
0.0825755
0.0832949
0.0828631
0.0815589
0.0796249
0.0772556
0.0745996
0.0717682
0.068844
0.0658887
0.0629484
0.0600577
0.0572427
0.0545226
0.0519114
0.0494185
0.0470495
0.0448069
0.0426905
0.0406977
0.038824
0.0370633
0.0354083
0.033851
0.032383
0.0309957
0.0296811
0.0284313
0.0272397
0.0261006
0.0250091
0.0239611
0.0229533
0.0219829
0.0210478
0.0201464
0.0192772
0.0184395
0.0176324
0.0168555
0.0161082
0.0153899
0.0147001
0.0140376
0.0134012
0.0127891
0.012199
0.0116276
0.0110701
0.0105194
0.00996309
0.00937331
0.00870042
0.0079157
0.0070424
0.00612733
0.00516418
0.00405517
0.00300866
0.0021801
0.00165328
0.00165534
0.00200147
0.00221871
0.00206847
0.00173097
0.00142257
0.00121383
0.00110014
0.00107248
0.00110913
0.00120927
0.00140462
0.00174776
0.00227172
0.00295341
0.00374996
0.00455487
0.00524664
0.00574527
0.00604208
0.00618343
0.00622976
0.00622389
0.00618379
0.00611272
0.00601295
0.00589096
0.00575944
0.00562549
1.21761
0.0528243
0.00324876
0.00224226
0.00207627
0.00186243
0.00167858
0.00152895
0.00140338
0.00129295
0.00118905
0.00108332
0.00097137
0.000853381
0.000730525
0.000603815
0.000477011
0.00035904
0.000265051
0.000210889
0.000206716
0.000226616
0.000253289
0.000288774
0.000353872
0.000504548
0.000833577
0.00143535
0.00232978
0.00339887
0.0044269
0.00526955
0.00598002
0.00686659
0.00837349
0.00961106
0.00977223
0.00961719
0.00975128
0.0102333
0.0109773
0.0119206
0.0130213
0.0142293
0.0154681
0.0166371
0.0176325
0.0183762
0.0188358
0.0190312
0.0190265
0.0189153
0.0187993
0.0187629
0.0188562
0.0190931
0.0194612
0.0199343
0.020481
0.0210689
0.0216654
0.0222365
0.022747
0.0231615
0.0234889
0.0236901
0.0237282
0.0235784
0.0232398
0.022744
0.0221551
0.0215566
0.0210328
0.0206464
0.0204451
0.0204801
0.0208181
0.0215851
0.0228887
0.0248512
0.0275285
0.0309789
0.0352442
0.0403616
0.0465195
0.0535386
0.0608631
0.0677582
0.073571
0.0779178
0.0807112
0.0820787
0.0822543
0.0814946
0.0800321
0.0780592
0.0757266
0.0731509
0.0704211
0.0676061
0.0647595
0.061923
0.0591292
0.0564034
0.0537649
0.0512279
0.0488023
0.0464941
0.0443065
0.0422397
0.0402914
0.0384577
0.0367328
0.0351099
0.0335815
0.0321396
0.0307761
0.0294835
0.0282541
0.0270814
0.0259599
0.0248845
0.0238512
0.0228565
0.0218977
0.0209727
0.0200797
0.0192176
0.0183855
0.0175828
0.016809
0.0160635
0.0153458
0.0146549
0.0139898
0.0133489
0.0127299
0.0121297
0.0115438
0.0109654
0.0103823
0.00976676
0.00907049
0.00826697
0.00737598
0.00642808
0.0053569
0.00403924
0.00279599
0.00191117
0.00147541
0.0015559
0.00189584
0.00205269
0.00185998
0.00152063
0.00123413
0.00105161
0.000957997
0.000934806
0.000954293
0.00102323
0.00117922
0.00146691
0.0019263
0.00257083
0.00336092
0.00419632
0.00494781
0.00551694
0.00587796
0.00606967
0.00615294
0.00617309
0.00614963
0.00608713
0.00599052
0.00587028
0.00574346
0.00562027
1.21329
0.0192422
0.00231176
0.00243341
0.00217536
0.00194283
0.00175493
0.00160391
0.00147863
0.00136937
0.00126708
0.00116376
0.00105508
0.000940783
0.000822266
0.000701542
0.000582701
0.000473437
0.000384734
0.000328732
0.000316867
0.000337091
0.0003816
0.00046143
0.000605329
0.000864176
0.00129799
0.00193607
0.00273583
0.00359563
0.00441824
0.00517707
0.00597877
0.00705222
0.00818625
0.00874903
0.00882667
0.00894053
0.00933281
0.0099914
0.0108589
0.0118926
0.0130488
0.0142649
0.0154575
0.0165364
0.0174257
0.018081
0.0184961
0.0187031
0.0187683
0.018778
0.0188136
0.0189307
0.0191531
0.0194795
0.0198957
0.0203828
0.0209209
0.0214903
0.0220692
0.0226318
0.0231462
0.0236193
0.0240322
0.0243379
0.0244821
0.0244117
0.0240943
0.0235402
0.0228126
0.0220151
0.0212725
0.0206826
0.0203067
0.0202123
0.0204573
0.0211881
0.022519
0.0245275
0.0272419
0.0305836
0.0345417
0.0392812
0.0449943
0.0516178
0.0587066
0.0655725
0.0715542
0.0762229
0.0794344
0.0812646
0.0819073
0.0815905
0.0805286
0.0789034
0.0768617
0.0745201
0.0719708
0.0692876
0.0665297
0.0637448
0.0609715
0.0582406
0.0555761
0.0529969
0.0505168
0.0481452
0.0458883
0.0437488
0.0417269
0.0398203
0.0380249
0.0363352
0.0347445
0.0332455
0.0318306
0.0304922
0.0292222
0.0280136
0.0268601
0.0257562
0.0246969
0.0236783
0.0226969
0.0217501
0.0208356
0.019952
0.0190982
0.0182731
0.0174763
0.0167072
0.015965
0.0152491
0.0145584
0.0138914
0.013246
0.0126194
0.0120072
0.0114029
0.0107949
0.0101564
0.00944089
0.0086238
0.00772253
0.00675074
0.00559162
0.00410266
0.00269837
0.0017653
0.00137248
0.00147305
0.0017781
0.0018929
0.00170237
0.0013969
0.00114951
0.00100055
0.000925553
0.0008951
0.000889083
0.000922269
0.00103446
0.00127415
0.00168781
0.002299
0.00308028
0.00393853
0.00473971
0.00536996
0.00578775
0.00602433
0.00614045
0.00618329
0.00617335
0.00611641
0.00602025
0.00590001
0.00577757
0.00566775
1.07577
0.0144811
0.00255331
0.00257078
0.0023039
0.00206442
0.00186998
0.00171501
0.00158904
0.00148193
0.00138469
0.00128975
0.00119243
0.00109158
0.000988419
0.000885235
0.000785667
0.000695643
0.000623719
0.000580675
0.000579144
0.000618934
0.000701119
0.000840058
0.00105927
0.00138748
0.00184505
0.00242629
0.00309519
0.00380261
0.00451401
0.00525339
0.0061062
0.00702068
0.00770969
0.00804169
0.00823809
0.00857348
0.00914005
0.00991572
0.0108642
0.0119508
0.0131288
0.0143327
0.0154859
0.0165144
0.0173602
0.0179881
0.0183933
0.0186085
0.018701
0.0187506
0.018824
0.0189608
0.0191757
0.0194677
0.019828
0.0202437
0.0206998
0.0211811
0.0216731
0.0221622
0.0226359
0.0231179
0.0235804
0.0239846
0.0242705
0.0243614
0.0241862
0.0237165
0.0229961
0.0221295
0.0212729
0.0205776
0.0201142
0.0199845
0.0202563
0.0210309
0.0224438
0.0245859
0.0274205
0.0308047
0.034683
0.0392216
0.044656
0.0509876
0.0578371
0.0645661
0.0705378
0.075322
0.0787537
0.080877
0.0818516
0.0818753
0.0811388
0.0798077
0.0780193
0.075886
0.0734998
0.0709368
0.0682603
0.0655227
0.0627676
0.0600305
0.0573402
0.0547196
0.0521861
0.0497526
0.0474279
0.0452172
0.0431227
0.041144
0.0392785
0.0375218
0.0358682
0.0343109
0.0328438
0.0314575
0.0301446
0.028898
0.027711
0.0265773
0.0254916
0.0244491
0.0234458
0.0224785
0.0215446
0.020642
0.0197693
0.0189253
0.0181091
0.0173201
0.0165575
0.0158204
0.015108
0.0144186
0.0137505
0.0131008
0.0124654
0.0118381
0.0112082
0.01055
0.00981932
0.0089928
0.00808688
0.00710173
0.00588491
0.00426683
0.00272168
0.00172315
0.0013223
0.00139768
0.00165286
0.00174557
0.00158814
0.00133656
0.00113335
0.00101163
0.000944201
0.00090093
0.000870971
0.000873398
0.000949753
0.00115155
0.00152992
0.00211603
0.00289199
0.00377101
0.00461567
0.00529924
0.00576646
0.0060419
0.00618625
0.00624814
0.00624854
0.00619415
0.00609546
0.00597225
0.00585128
0.00575344
0.897003
0.0117919
0.00277339
0.00273838
0.00246781
0.00222214
0.00202058
0.00186069
0.00173354
0.00162928
0.00153932
0.0014568
0.00137702
0.00129786
0.00121953
0.00114375
0.00107363
0.00101409
0.000972198
0.000956845
0.000978178
0.00104287
0.00115709
0.00133175
0.00158007
0.00191415