/*--------------------------------*- C++ -*----------------------------------*\
| =========                 |                                                 |
| \\      /  F ield         | OpenFOAM: The Open Source CFD Toolbox           |
|  \\    /   O peration     | Version:  2112                                  |
|   \\  /    A nd           | Website:  www.openfoam.com                      |
|    \\/     M anipulation  |                                                 |
\*---------------------------------------------------------------------------*/
FoamFile
{
    version     2.0;
    format      ascii;
    arch        "LSB;label=32;scalar=64";
    class       volScalarField;
    location    "0.08";
    object      pMean;
}
// * * * * * * * * * * * * * * * * * * * * * * * * * * * * * * * * * * * * * //

dimensions      [0 2 -2 0 0 0 0];

internalField   nonuniform List<scalar> 
12225
(
9.2088
8.45227
8.02786
7.81764
7.66678
7.52062
7.37463
7.23536
7.10703
6.99006
6.88334
6.78464
6.69119
6.5957
6.48722
6.32249
6.05239
5.39217
8.97959
8.42385
8.02699
7.8084
7.6559
7.51162
7.36663
7.22742
7.09835
6.98083
6.87227
6.77263
6.67392
6.57787
6.45567
6.30655
6.01783
5.5795
8.90623
8.41872
8.03622
7.80573
7.64819
7.50493
7.36115
7.22148
7.09145
6.97187
6.86156
6.75683
6.65469
6.54575
6.41924
6.24458
5.98402
5.57914
8.75371
8.37043
8.02729
7.79442
7.63274
7.49127
7.34972
7.21078
7.07971
6.95878
6.84521
6.73701
6.62764
6.51194
6.37331
6.19445
5.94447
5.60371
8.67222
8.34012
8.02587
7.79265
7.62434
7.48134
7.34101
7.20212
7.06994
6.94669
6.83057
6.71788
6.60329
6.47972
6.33542
6.15622
5.92588
5.64235
8.58623
8.28693
8.0046
7.78055
7.60946
7.46511
7.32615
7.18849
7.0558
6.93062
6.81156
6.69507
6.57577
6.44701
6.3001
6.1253
5.91578
5.67237
8.50975
8.24395
7.98852
7.77321
7.59975
7.45217
7.31294
7.17589
7.04287
6.91587
6.79378
6.67335
6.5499
6.41781
6.27066
6.10248
5.91034
5.69647
8.44902
8.19072
7.95551
7.7554
7.58442
7.43468
7.2948
7.15854
7.02555
6.89707
6.77255
6.64917
6.52284
6.38904
6.2434
6.08245
5.90509
5.71408
8.39988
8.14583
7.92795
7.74058
7.57263
7.42049
7.27872
7.14228
7.00917
6.8793
6.75229
6.62615
6.49766
6.36332
6.21999
6.0658
5.90074
5.72748
8.33382
8.0896
7.88923
7.71607
7.55308
7.40098
7.25847
7.12198
6.98889
6.85842
6.72993
6.60197
6.47224
6.3382
6.19783
6.05014
5.89552
5.7363
8.26076
8.04388
7.8597
7.69453
7.53537
7.38342
7.23975
7.10255
6.96917
6.83791
6.70803
6.57867
6.44823
6.31492
6.17739
6.03519
5.88902
5.74052
8.18041
7.98651
7.82146
7.66711
7.51284
7.36248
7.21911
7.08182
6.94809
6.81636
6.68595
6.55606
6.42557
6.29335
6.1585
6.02087
5.88097
5.74025
8.1478
7.95447
7.79193
7.64317
7.49318
7.34427
7.20059
7.06258
6.92846
6.79647
6.66554
6.53518
6.4047
6.27339
6.14079
6.00688
5.87211
5.73747
8.06797
7.89126
7.74666
7.60909
7.46478
7.31853
7.17579
7.03789
6.90356
6.77124
6.64012
6.50974
6.37978
6.24991
6.11982
5.98953
5.85944
5.7303
8.04797
7.85553
7.70655
7.57368
7.43495
7.2915
7.14892
7.01033
6.87555
6.74324
6.61228
6.48217
6.35276
6.22405
6.09603
5.96883
5.84265
5.71787
7.99657
7.79978
7.65445
7.52931
7.39786
7.25885
7.11805
6.9798
6.84486
6.71235
6.58135
6.45155
6.32296
6.19566
6.0697
5.94514
5.82204
5.70062
7.93546
7.74661
7.60771
7.48765
7.36003
7.22345
7.08402
6.94619
6.81128
6.67881
6.54809
6.41878
6.29088
6.16456
6.03988
5.91688
5.79559
5.67614
7.8783
7.70405
7.57147
7.45249
7.32462
7.18834
7.04938
6.91163
6.77627
6.64323
6.51202
6.38236
6.2543
6.12802
6.00362
5.88111
5.76043
5.64153
7.81859
7.64322
7.51731
7.40666
7.28477
7.15113
7.01249
6.87418
6.73841
6.60519
6.47393
6.3443
6.2163
6.09009
5.96584
5.84356
5.72321
5.60467
7.91801
7.71368
7.56033
7.42919
7.29339
7.15122
7.00759
6.8662
6.72805
6.59272
6.45965
6.32853
6.19938
6.07235
5.94753
5.82494
5.70455
5.58634
7.82514
7.66366
7.53578
7.4123
7.27692
7.13378
6.99007
6.84917
6.71126
6.57561
6.44189
6.31024
6.18086
6.05388
5.92928
5.80696
5.68681
5.56869
7.94431
7.74681
7.59116
7.45056
7.30318
7.15185
7.0028
6.85833
6.71764
6.57967
6.44405
6.31092
6.18047
6.05272
5.92761
5.80503
5.68489
5.5672
7.97674
7.76297
7.59422
7.44619
7.29684
7.14548
6.99642
6.85149
6.71018
6.57159
6.43556
6.30232
6.17203
6.04461
5.91993
5.79787
5.67829
5.56111
8.05685
7.83793
7.6523
7.48464
7.32134
7.16383
7.01288
6.86643
6.72268
6.58147
6.44346
6.30893
6.1778
6.04979
5.92464
5.80221
5.68248
5.56539
8.07107
7.8609
7.66565
7.483
7.31409
7.15882
7.01051
6.86401
6.71881
6.57659
6.43846
6.30439
6.17374
6.04605
5.92118
5.79912
5.67987
5.56334
8.18834
7.94566
7.71144
7.50713
7.33274
7.177
7.02694
6.87733
6.72927
6.58517
6.44593
6.31109
6.17986
6.05175
5.92661
5.80439
5.68505
5.56853
8.27093
7.97098
7.70446
7.49608
7.32891
7.17787
7.0275
6.8759
6.72677
6.58271
6.44392
6.30949
6.17856
6.05068
5.92577
5.80385
5.68493
5.56896
8.45209
8.05705
7.72925
7.50845
7.34504
7.19397
7.03976
6.88489
6.73425
6.58963
6.45047
6.31562
6.18428
6.05613
5.93113
5.80925
5.69033
5.5741
8.48739
8.05375
7.71339
7.50231
7.34662
7.196
7.04002
6.8843
6.73376
6.58943
6.45038
6.31554
6.18416
6.05606
5.93113
5.80955
5.69108
5.57582
8.75005
8.0989
7.71151
7.50902
7.35711
7.20422
7.0459
6.88917
6.73831
6.59379
6.45455
6.31952
6.18799
6.0598
5.93479
5.8133
5.69505
5.58076
2.77776
2.63411
2.50453
2.46951
2.54463
2.68417
2.8065
2.81322
2.64377
2.29205
1.78554
1.17168
0.513747
-0.124581
-0.693789
-1.15967
-1.49624
-1.70416
-1.78563
-1.75018
-1.62559
-1.43792
-1.22755
-1.0324
-0.889298
-0.834659
-0.889718
-1.06498
-1.32268
-1.61039
-1.90839
-2.26353
-2.73283
-3.29591
-3.89325
-4.49169
-5.072
-5.62309
-6.21047
-6.91978
-7.71258
-8.48811
-9.20728
-9.86279
-10.473
-11.05
-11.5234
-11.9137
-12.165
-12.2767
-12.4086
-12.5547
-12.655
-12.6993
-12.6848
-12.6293
-12.5429
-12.4206
-12.3158
-12.2762
-12.2825
-12.2911
-12.2641
-12.143
-11.9062
-11.5606
-11.1349
-10.6469
-10.0905
-9.49458
-8.85642
-8.16583
-7.4446
-6.68754
-5.95053
-5.27843
-4.6533
-4.11308
-3.65026
-3.2077
-2.73495
-2.19276
-1.58798
-0.952124
-0.30331
0.326987
1.00343
1.68484
2.44415
2.95828
2.93071
2.54611
2.00169
1.42448
0.928377
0.581545
0.429339
0.499763
0.807794
1.35642
2.13525
3.11941
4.27153
5.54526
6.89041
8.25892
9.609
10.9075
12.1318
13.2709
14.3255
15.3089
16.2455
17.1674
18.1073
19.0913
20.1332
21.2311
22.3672
23.509
24.6137
25.6343
26.523
27.2411
27.7687
28.1063
28.2671
28.2729
28.1493
27.9214
27.6119
27.2408
26.826
26.3838
25.9288
25.4734
25.0281
24.601
24.198
23.8232
23.4788
23.1657
22.8838
22.6326
22.411
22.2179
22.0517
21.9109
21.7938
21.6983
21.6219
21.5618
21.5146
21.4763
21.442
21.4063
21.363
21.3112
21.2536
21.1949
21.1382
21.0842
21.0294
20.9731
20.9148
20.8492
20.7781
20.7086
20.6469
20.5961
20.5532
20.5158
20.4823
20.4539
20.4321
20.4226
20.4286
20.4597
20.5333
20.6478
2.11305
1.97718
1.85178
1.77545
1.81157
1.87985
1.89796
1.7845
1.50726
1.08022
0.545811
-0.0466148
-0.649129
-1.21537
-1.7138
-2.11521
-2.39856
-2.55762
-2.59831
-2.5513
-2.42652
-2.23121
-2.0155
-1.81934
-1.68653
-1.65362
-1.70039
-1.84
-2.12294
-2.50492
-2.93538
-3.47013
-4.09997
-4.79457
-5.46936
-6.1034
-6.70071
-7.28255
-7.87531
-8.54858
-9.29732
-10.0299
-10.6994
-11.2745
-11.791
-12.2789
-12.721
-13.2295
-13.5754
-13.707
-13.8228
-13.9106
-13.9463
-13.9187
-13.8231
-13.6801
-13.5224
-13.3674
-13.2353
-13.163
-13.1279
-13.1051
-13.0472
-12.8887
-12.6135
-12.2319
-11.7741
-11.2629
-10.6811
-10.0546
-9.38985
-8.68231
-7.95283
-7.16602
-6.41266
-5.84972
-5.38324
-4.94154
-4.47752
-3.9713
-3.42516
-2.82738
-2.16704
-1.45609
-0.751355
-0.0850413
0.654051
1.25785
1.82751
2.15997
2.03681
1.68211
1.21118
0.724011
0.306759
0.0219014
-0.0849284
0.0185086
0.35209
0.923516
1.7257
2.73496
3.91333
5.21376
6.58465
7.9761
9.34492
10.6575
11.8914
13.0364
14.0944
15.0798
16.0185
16.9433
17.8873
18.8772
19.9273
21.0357
22.1838
23.3389
24.4586
25.4954
26.401
27.1346
27.6744
28.0202
28.1861
28.1955
28.0746
27.8489
27.5418
27.1733
26.7613
26.3216
25.869
25.4159
24.9727
24.5475
24.146
23.7722
23.4283
23.1154
22.8335
22.5821
22.3599
22.1658
21.9984
21.8559
21.7364
21.6377
21.557
21.4913
21.4373
21.3913
21.3489
21.3054
21.2551
21.1994
21.146
21.0989
21.0565
21.0131
20.9607
20.9037
20.8464
20.7832
20.716
20.6513
20.5937
20.5467
20.5065
20.4726
20.4459
20.4262
20.4121
20.4015
20.4048
20.4186
20.4745
20.5117
2.36962
2.2992
2.10011
1.80744
1.47694
1.11896
0.718973
0.255249
-0.282958
-0.87156
-1.47152
-2.04853
-2.57766
-3.04046
-3.42421
-3.71394
-3.90164
-3.98624
-3.97107
-3.87755
-3.72701
-3.53405
-3.32723
-3.13034
-2.97353
-2.89736
-2.91288
-3.02837
-3.26607
-3.63075
-4.10505
-4.68618
-5.37281
-6.13468
-6.91191
-7.67694
-8.40768
-9.14872
-9.91602
-10.7126
-11.4748
-12.1737
-12.7275
-13.2012
-13.709
-14.2062
-14.6358
-15.0508
-15.4029
-15.6232
-15.7426
-15.7616
-15.6978
-15.5567
-15.3512
-15.1196
-14.9015
-14.7229
-14.6014
-14.5313
-14.4913
-14.4542
-14.3582
-14.1565
-13.8491
-13.4416
-12.9513
-12.3935
-11.7636
-11.0791
-10.3307
-9.53117
-8.75614
-8.06668
-7.44685
-6.88018
-6.3646
-5.8628
-5.33043
-4.7573
-4.14987
-3.48404
-2.75399
-1.98397
-1.25429
-0.571413
0.0936968
0.627133
0.956313
1.04734
0.915353
0.645065
0.285951
-0.0927495
-0.430856
-0.665791
-0.74669
-0.631
-0.289355
0.292637
1.1101
2.14074
3.34799
4.68295
6.09051
7.51673
8.91469
10.2488
11.4964
12.6479
13.7061
14.6873
15.6193
16.5371
17.4765
18.4668
19.5238
20.6454
21.8125
22.9918
24.1389
25.2055
26.142
26.9051
27.4688
27.8319
28.0094
28.0267
27.9117
27.692
27.3907
27.0283
26.6222
26.1886
25.7418
25.2942
24.8561
24.4354
24.038
23.6678
23.3269
23.0163
22.7361
22.4855
22.2639
22.0699
21.9022
21.7592
21.6386
21.5381
21.4546
21.3851
21.3266
21.2759
21.2293
21.1832
21.1341
21.0823
21.0313
20.9828
20.935
20.8868
20.8387
20.7912
20.7408
20.6816
20.6198
20.5624
20.5112
20.4684
20.4338
20.4075
20.3897
20.3764
20.3667
20.3553
20.3529
20.3488
20.3769
20.3667
2.23112
2.13602
1.81684
1.32006
0.701044
0.0157898
-0.694132
-1.40663
-2.11189
-2.78695
-3.4091
-3.96323
-4.43712
-4.82366
-5.12316
-5.33484
-5.45418
-5.49219
-5.4594
-5.36612
-5.22691
-5.05769
-4.87423
-4.70846
-4.58422
-4.51267
-4.50459
-4.56878
-4.71852
-4.96556
-5.3273
-5.82006
-6.44724
-7.18863
-8.0031
-8.86223
-9.74865
-10.6765
-11.6476
-12.6024
-13.4754
-14.2334
-14.8695
-15.3818
-15.8686
-16.3457
-16.7766
-17.1504
-17.4472
-17.6512
-17.7578
-17.7599
-17.6627
-17.474
-17.219
-16.9471
-16.7072
-16.5228
-16.396
-16.3114
-16.2531
-16.1904
-16.0549
-15.8145
-15.4752
-15.0435
-14.5168
-13.9032
-13.2032
-12.4348
-11.6039
-10.7366
-9.9264
-9.20736
-8.56588
-7.9486
-7.35739
-6.78381
-6.19662
-5.57784
-4.91494
-4.17509
-3.36483
-2.54484
-1.81786
-1.18918
-0.651445
-0.30293
-0.140276
-0.147736
-0.271339
-0.485161
-0.77199
-1.0855
-1.37475
-1.5787
-1.6431
-1.51978
-1.17201
-0.5781
0.262713
1.3297
2.58341
3.97122
5.43236
6.90656
8.34215
9.70147
10.9619
12.1154
13.1676
14.1376
15.0565
15.9622
16.8939
17.8831
18.947
20.0838
21.2752
22.485
23.6668
24.7709
25.7475
26.5505
27.1485
27.5376
27.7335
27.7635
27.6592
27.4494
27.158
26.8053
26.4086
25.9842
25.5463
25.1073
24.6774
24.2643
23.8738
23.5098
23.1744
22.8685
22.5921
22.345
22.1261
21.9342
21.7679
21.6256
21.505
21.4033
21.3175
21.2444
21.1813
21.1253
21.0738
21.0246
20.9758
20.9265
20.8776
20.8302
20.7827
20.7341
20.6841
20.6337
20.5818
20.5301
20.4772
20.4237
20.3753
20.338
20.3119
20.2955
20.2871
20.2817
20.2777
20.2668
20.2589
20.2421
20.2463
20.2054
1.97234
1.7159
1.18435
0.457588
-0.369423
-1.22079
-2.05429
-2.85616
-3.61924
-4.33493
-4.99122
-5.57433
-6.06992
-6.47
-6.77405
-6.9818
-7.09933
-7.14125
-7.12071
-7.05039
-6.94119
-6.80749
-6.67004
-6.54998
-6.46609
-6.42953
-6.44409
-6.51047
-6.63442
-6.82777
-7.11017
-7.50382
-8.02448
-8.67407
-9.44344
-10.3123
-11.2583
-12.276
-13.35
-14.4089
-15.3927
-16.2599
-17.0067
-17.6357
-18.1764
-18.6446
-19.0401
-19.3571
-19.5908
-19.7454
-19.8197
-19.8115
-19.7211
-19.5526
-19.3251
-19.0752
-18.8412
-18.6451
-18.4922
-18.3743
-18.2811
-18.1784
-17.9995
-17.7226
-17.3513
-16.875
-16.2933
-15.6072
-14.8122
-13.9335
-13.0004
-12.0618
-11.2076
-10.4285
-9.70078
-8.9936
-8.31719
-7.67143
-7.03538
-6.38342
-5.67441
-4.8713
-4.00333
-3.17501
-2.48509
-1.93979
-1.56892
-1.38181
-1.31798
-1.35434
-1.47365
-1.67146
-1.93435
-2.22556
-2.49803
-2.69407
-2.7578
-2.63531
-2.28202
-1.66992
-0.795092
0.322389
1.64083
3.10201
4.63681
6.1756
7.65943
9.04774
10.3193
11.4694
12.5082
13.4601
14.3607
15.252
16.1753
17.1636
18.2343
19.3896
20.6094
21.8542
23.074
24.2179
25.2366
26.0824
26.7196
27.1399
27.3582
27.4058
27.3169
27.1218
26.8447
26.5054
26.1217
25.7096
25.2838
24.8569
24.439
24.0378
23.6587
23.305
22.979
22.6812
22.4117
22.1698
21.9544
21.7647
21.5996
21.4575
21.3361
21.2326
21.144
21.0671
20.999
20.9375
20.881
20.8283
20.7784
20.73
20.6836
20.6399
20.5978
20.5558
20.5129
20.4666
20.4167
20.3658
20.3141
20.2629
20.2155
20.1761
20.1494
20.1366
20.137
20.1432
20.1507
20.1492
20.1443
20.1229
20.107
20.0452
1.51231
1.06143
0.283333
-0.590701
-1.49002
-2.38864
-3.26428
-4.11234
-4.93564
-5.72977
-6.47732
-7.15602
-7.74191
-8.21821
-8.58009
-8.83024
-8.98005
-9.04823
-9.0532
-9.01207
-8.93912
-8.85111
-8.76547
-8.69967
-8.66926
-8.6825
-8.74087
-8.84429
-8.99517
-9.20053
-9.47296
-9.83039
-10.2933
-10.8794
-11.5951
-12.4293
-13.3745
-14.4149
-15.5287
-16.661
-17.7454
-18.728
-19.5839
-20.3048
-20.8939
-21.3598
-21.7135
-21.9647
-22.1238
-22.2022
-22.2074
-22.1456
-22.0234
-21.851
-21.6435
-21.417
-21.1902
-20.9815
-20.8006
-20.6472
-20.5138
-20.3643
-20.1431
-19.8286
-19.4086
-18.8684
-18.1939
-17.3898
-16.4679
-15.4675
-14.4327
-13.4193
-12.4971
-11.6409
-10.8094
-10.0002
-9.22768
-8.49596
-7.79723
-7.10688
-6.36276
-5.53996
-4.68331
-3.91814
-3.30272
-2.84866
-2.61041
-2.52961
-2.52311
-2.58432
-2.71854
-2.92405
-3.18793
-3.47903
-3.754
-3.95807
-4.03368
-3.92189
-3.56982
-2.94092
-2.02634
-0.847669
0.551179
2.10488
3.73311
5.35391
6.89808
8.32069
9.60226
10.7437
11.7624
12.6906
13.5697
14.4453
15.3617
16.3511
17.433
18.6099
19.8609
21.1431
22.4019
23.5841
24.6411
25.5258
26.1999
26.6513
26.8941
26.9625
26.8934
26.7174
26.4585
26.1364
25.7693
25.374
24.9654
24.556
24.1553
23.7703
23.4059
23.0652
22.75
22.4608
22.1979
21.9607
21.7486
21.5609
21.3967
21.2546
21.1322
21.0265
20.9344
20.8529
20.7798
20.7134
20.6531
20.5986
20.549
20.5032
20.4609
20.4223
20.3867
20.3525
20.318
20.2812
20.2408
20.1968
20.1492
20.0996
20.0502
20.0046
19.9706
19.9556
19.9592
19.9721
19.9888
19.997
19.9969
19.9746
19.9466
19.8745
0.491846
-0.00197917
-0.742488
-1.55406
-2.40416
-3.28296
-4.18128
-5.08798
-5.99611
-6.89019
-7.74214
-8.52454
-9.21079
-9.78353
-10.2355
-10.5701
-10.801
-10.9477
-11.0296
-11.0639
-11.0664
-11.0538
-11.0444
-11.056
-11.1009
-11.1854
-11.3124
-11.4828
-11.6972
-11.9576
-12.2697
-12.6461
-13.1065
-13.6716
-14.3568
-15.1685
-16.1099
-17.1687
-18.3091
-19.4891
-20.6443
-21.7111
-22.6493
-23.4347
-24.0611
-24.5327
-24.8591
-25.0532
-25.1316
-25.1122
-25.0108
-24.8458
-24.6402
-24.4156
-24.1809
-23.9388
-23.6962
-23.4625
-23.2459
-23.0511
-22.8748
-22.683
-22.4227
-22.0618
-21.569
-20.9181
-20.1087
-19.1641
-18.1134
-17.0005
-15.8739
-14.7808
-13.7668
-12.8105
-11.8686
-10.9533
-10.0821
-9.26183
-8.49247
-7.75493
-6.99992
-6.21374
-5.42112
-4.74059
-4.17941
-3.81131
-3.67454
-3.66649
-3.70471
-3.80396
-3.97227
-4.20314
-4.48559
-4.79278
-5.08526
-5.31025
-5.40845
-5.31644
-4.97399
-4.33398
-3.37986
-2.13388
-0.645233
1.01282
2.7478
4.46355
6.07894
7.54257
8.83617
9.96696
10.9628
11.866
12.7241
13.5849
14.4949
15.4894
16.5863
17.7876
19.0711
20.3907
21.6864
22.9017
23.9893
24.9045
25.6082
26.086
26.3528
26.4445
26.3985
26.2452
26.0081
25.7076
25.362
24.9887
24.6021
24.2139
23.8326
23.4649
23.1158
22.7882
22.4841
22.2042
21.9486
21.7174
21.5097
21.3248
21.1621
21.0199
20.8957
20.7868
20.6903
20.6042
20.5274
20.4592
20.3992
20.3466
20.3005
20.2598
20.2237
20.1919
20.1636
20.1374
20.1118
20.0852
20.056
20.023
19.9855
19.9431
19.897
19.8502
19.8099
19.7839
19.7783
19.7882
19.8055
19.8176
19.8226
19.8047
19.7725
19.6957
-0.600149
-0.995289
-1.5615
-2.25495
-3.04345
-3.89704
-4.79801
-5.73622
-6.70404
-7.67857
-8.62564
-9.51175
-10.3073
-10.9931
-11.563
-12.022
-12.3826
-12.6605
-12.8716
-13.0306
-13.1532
-13.2579
-13.3631
-13.4845
-13.6319
-13.8108
-14.0234
-14.2706
-14.5527
-14.8718
-15.2348
-15.654
-16.1502
-16.7418
-17.4495
-18.2889
-19.2663
-20.3701
-21.5638
-22.8069
-24.0312
-25.1743
-26.1875
-27.0363
-27.7042
-28.1856
-28.4845
-28.6141
-28.595
-28.4527
-28.2126
-27.9076
-27.5776
-27.253
-26.9402
-26.6367
-26.3433
-26.062
-25.7974
-25.556
-25.3353
-25.098
-24.7883
-24.3512
-23.7483
-22.9582
-21.9993
-20.9135
-19.7404
-18.5227
-17.3029
-16.1175
-14.9909
-13.9173
-12.8636
-11.8474
-10.884
-9.97889
-9.1397
-8.35435
-7.59746
-6.86795
-6.16379
-5.54837
-5.02777
-4.73152
-4.68836
-4.73915
-4.82686
-4.97985
-5.19443
-5.46011
-5.76896
-6.1005
-6.42003
-6.67706
-6.80986
-6.74771
-6.42079
-5.77297
-4.78246
-3.47003
-1.89038
-0.125095
1.72101
3.53656
5.22727
6.73475
8.04278
9.16461
10.1402
11.023
11.8671
12.7198
13.6283
14.6312
15.7454
16.9712
18.2846
19.6368
20.9622
22.2012
23.3076
24.2422
24.9648
25.4625
25.7517
25.8672
25.8465
25.7187
25.5072
25.2322
24.9125
24.5644
24.2018
23.8353
23.4738
23.1241
22.7912
22.478
22.1863
21.9166
21.6693
21.444
21.2401
21.0577
20.8957
20.7526
20.626
20.5137
20.4142
20.327
20.2514
20.1866
20.1314
20.0848
20.0457
20.0128
19.985
19.9612
19.9407
19.9221
19.904
19.8855
19.8656
19.8432
19.8168
19.7853
19.748
19.706
19.6637
19.6294
19.6116
19.6085
19.6165
19.6229
19.625
19.6079
19.5742
19.4971
-1.30178
-1.59752
-2.06305
-2.67972
-3.41186
-4.23157
-5.12254
-6.07689
-7.08525
-8.11843
-9.14002
-10.1181
-11.0254
-11.8431
-12.5625
-13.1841
-13.714
-14.1616
-14.5384
-14.8575
-15.135
-15.3896
-15.6371
-15.8893
-16.1533
-16.4322
-16.7277
-17.0421
-17.3797
-17.7481
-18.1621
-18.6411
-19.207
-19.8794
-20.6781
-21.6184
-22.7045
-23.9184
-25.2237
-26.5771
-27.9093
-29.1554
-30.2571
-31.1713
-31.8732
-32.351
-32.6047
-32.6474
-32.5024
-32.2031
-31.7881
-31.3054
-30.8114
-30.3447
-29.9107
-29.5045
-29.1238
-28.7683
-28.441
-28.1456
-27.8686
-27.5668
-27.1746
-26.6318
-25.8938
-24.9526
-23.8442
-22.6207
-21.3255
-19.9959
-18.6679
-17.3717
-16.1255
-14.9324
-13.7747
-12.6661
-11.6194
-10.6417
-9.74286
-8.91477
-8.1423
-7.43273
-6.78477
-6.21293
-5.75327
-5.52521
-5.56845
-5.69706
-5.85015
-6.06639
-6.33418
-6.64066
-6.98058
-7.33991
-7.68951
-7.98407
-8.15951
-8.13345
-7.82262
-7.16844
-6.1455
-4.77114
-3.10528
-1.2397
0.708489
2.61307
4.36919
5.91513
7.23819
8.35865
9.32643
10.2028
11.044
11.8978
12.8114
13.8258
14.9576
16.2058
17.5428
18.9166
20.2579
21.506
22.6174
23.5566
24.2878
24.7992
25.1074
25.2467
25.2522
25.1517
24.9679
24.7207
24.4282
24.1059
23.767
23.4224
23.0812
22.7505
22.4345
22.136
21.8565
21.5966
21.3567
21.1366
20.9365
20.7564
20.5955
20.4519
20.3243
20.2124
20.116
20.0342
19.9658
19.9092
19.8631
19.8262
19.797
19.7739
19.7551
19.7396
19.7264
19.714
19.7016
19.6884
19.6741
19.6584
19.6405
19.6192
19.5932
19.5613
19.5244
19.4868
19.4565
19.4376
19.428
19.4203
19.4113
19.3887
19.3521
19.2764
-1.65828
-1.90164
-2.30886
-2.87436
-3.56952
-4.37021
-5.25867
-6.22692
-7.26334
-8.3434
-9.43465
-10.5076
-11.536
-12.4993
-13.3844
-14.1845
-14.8991
-15.5308
-16.0867
-16.5786
-17.0228
-17.4355
-17.829
-18.212
-18.5887
-18.9614
-19.333
-19.71
-20.1037
-20.532
-21.0188
-21.5907
-22.2717
-23.0794
-24.0298
-25.1312
-26.3795
-27.7507
-29.2099
-30.708
-32.1716
-33.5311
-34.7221
-35.6964
-36.4229
-36.8861
-37.0827
-37.0231
-36.7325
-36.253
-35.64
-34.9566
-34.2716
-33.632
-33.0456
-32.5065
-32.0117
-31.5636
-31.164
-30.8032
-30.4502
-30.0493
-29.5335
-28.8467
-27.9508
-26.8531
-25.5984
-24.2406
-22.8224
-21.3771
-19.9354
-18.5247
-17.1611
-15.8548
-14.6028
-13.4151
-12.3046
-11.2763
-10.34
-9.48399
-8.69636
-7.97471
-7.3467
-6.80598
-6.40094
-6.24227
-6.36196
-6.56516
-6.77358
-7.04492
-7.36282
-7.70862
-8.07769
-8.46066
-8.83641
-9.16652
-9.38404
-9.39163
-9.0939
-8.43317
-7.38231
-5.9559
-4.21936
-2.27176
-0.241514
1.73293
3.54014
5.11889
6.45995
7.58943
8.56191
9.44314
10.2918
11.1566
12.0835
13.1126
14.2619
15.5272
16.877
18.2561
19.5943
20.8334
21.9342
22.8656
23.5957
24.1144
24.4379
24.5991
24.6302
24.5569
24.4007
24.1807
23.9141
23.6161
23.3
22.977
22.6562
22.3437
22.0439
21.7593
21.4913
21.2408
21.0084
20.7944
20.5987
20.4216
20.2625
20.1209
19.9975
19.8934
19.8073
19.7373
19.6813
19.6373
19.6036
19.5787
19.5608
19.548
19.5385
19.5309
19.5238
19.5159
19.5066
19.4959
19.4838
19.4707
19.4568
19.4415
19.4239
19.4026
19.3758
19.3425
19.3061
19.2714
19.2426
19.2155
19.1886
19.1534
19.1086
19.0318
-1.80742
-2.0207
-2.40717
-2.95943
-3.65198
-4.46347
-5.37819
-6.38607
-7.4744
-8.62151
-9.798
-10.9743
-12.1235
-13.2235
-14.2578
-15.2156
-16.0916
-16.8844
-17.5973
-18.2407
-18.83
-19.3798
-19.9017
-20.4027
-20.8847
-21.3491
-21.8006
-22.2507
-22.7189
-23.2313
-23.8183
-24.5087
-25.3249
-26.2822
-27.3925
-28.6567
-30.0627
-31.5848
-33.1883
-34.8187
-36.4018
-37.8645
-39.1377
-40.1667
-40.9151
-41.363
-41.5045
-41.3501
-40.9277
-40.2864
-39.4924
-38.6204
-37.7475
-36.9328
-36.1869
-35.5033
-34.8855
-34.3406
-33.8624
-33.4246
-32.9761
-32.4439
-31.7692
-30.9068
-29.8377
-28.5839
-27.1923
-25.7134
-24.1849
-22.6348
-21.09
-19.5771
-18.111
-16.7057
-15.3695
-14.114
-12.9575
-11.9027
-10.9554
-10.0975
-9.30913
-8.58292
-7.96353
-7.4529
-7.08443
-6.96561
-7.12227
-7.36771
-7.61096
-7.91418
-8.26737
-8.64118
-9.02923
-9.42549
-9.81661
-10.1719
-10.4209
-10.4543
-10.1628
-9.48849
-8.41077
-6.94535
-5.15939
-3.15855
-1.08031
0.933597
2.77291
4.3786
5.74259
6.89226
7.88344
8.78217
9.64809
10.5309
11.4758
12.5214
13.6837
14.9564
16.3034
17.6674
18.9821
20.1954
21.2723
22.1849
22.9053
23.4246
23.759
23.9384
23.9918
23.9428
23.8111
23.615
23.3711
23.0948
22.7997
22.4971
22.1949
21.8995
21.6158
21.3456
21.0896
20.8489
20.6241
20.4157
20.2247
20.0522
19.8989
19.7661
19.6556
19.5664
19.4964
19.443
19.4034
19.3754
19.3565
19.3448
19.3383
19.3352
19.3337
19.332
19.3286
19.3225
19.3138
19.3029
19.2904
19.277
19.2635
19.25
19.2365
19.2224
19.2059
19.1824
19.1484
19.1045
19.0572
19.0093
18.9611
18.9077
18.8491
18.7665
-1.89237
-2.10007
-2.4945
-3.06924
-3.80434
-4.68164
-5.68226
-6.78855
-7.98099
-9.23372
-10.5168
-11.799
-13.053
-14.256
-15.3924
-16.4533
-17.4342
-18.3318
-19.1479
-19.8921
-20.5802
-21.2275
-21.8441
-22.4335
-22.9965
-23.5349
-24.0564
-24.577
-25.1223
-25.7236
-26.411
-27.2098
-28.1398
-29.2142
-30.4409
-31.8164
-33.3255
-34.9466
-36.6483
-38.3735
-40.0456
-41.5865
-42.9216
-43.9913
-44.7563
-45.1958
-45.3023
-45.0861
-44.5781
-43.8321
-42.9184
-41.917
-40.9098
-39.9582
-39.0778
-38.2708
-37.5501
-36.9216
-36.3705
-35.8521
-35.2937
-34.6139
-33.7649
-32.7193
-31.4806
-30.0826
-28.5724
-26.9928
-25.3747
-23.7412
-22.1149
-20.5215
-18.9762
-17.4956
-16.0973
-14.7977
-13.6207
-12.5639
-11.6278
-10.787
-10.013
-9.30455
-8.67222
-8.18375
-7.82547
-7.70744
-7.85217
-8.11112
-8.36834
-8.67661
-9.04046
-9.42468
-9.81713
-10.212
-10.6044
-10.9684
-11.2331
-11.2771
-10.9799
-10.2839
-9.17625
-7.68209
-5.87103
-3.85375
-1.76903
0.247174
2.09465
3.71896
5.11163
6.29516
7.31922
8.24618
9.13596
10.0408
11.0065
12.0669
13.2345
14.5003
15.8257
17.1544
18.4279
19.6014
20.6441
21.529
22.2312
22.7439
23.0826
23.2743
23.3443
23.3136
23.2006
23.0229
22.7974
22.5398
22.2635
21.9788
21.6937
21.4158
21.1487
20.8931
20.6487
20.4163
20.198
19.9958
19.8122
19.65
19.5114
19.3977
19.3086
19.2412
19.1917
19.1574
19.1357
19.124
19.1199
19.1209
19.1247
19.1291
19.1325
19.1336
19.1311
19.1246
19.1145
19.1016
19.0868
19.0713
19.056
19.0418
19.0293
19.0185
19.009
18.9957
18.9703
18.9262
18.867
18.8
18.7309
18.6572
18.5805
18.487
-2.00796
-2.22933
-2.66727
-3.31447
-4.15458
-5.16401
-6.31328
-7.57192
-8.90887
-10.2919
-11.6873
-13.0629
-14.3916
-15.6534
-16.8374
-17.9391
-18.9576
-19.892
-20.7458
-21.5301
-22.2602
-22.948
-23.5987
-24.215
-24.8009
-25.3642
-25.9182
-26.4833
-27.0862
-27.7549
-28.5126
-29.3762
-30.3624
-31.484
-32.7501
-34.1589
-35.6964
-37.3467
-39.0802
-40.8358
-42.5361
-44.1028
-45.4616
-46.5548
-47.3437
-47.8056
-47.9293
-47.7225
-47.2146
-46.4588
-45.5251
-44.4896
-43.4339
-42.4181
-41.4673
-40.5938
-39.8122
-39.125
-38.5081
-37.9032
-37.2248
-36.4029
-35.3961
-34.1929
-32.8131
-31.2985
-29.6959
-28.0421
-26.3598
-24.6674
-22.9841
-21.3355
-19.7388
-18.2153
-16.7895
-15.4832
-14.3182
-13.2855
-12.3763
-11.564
-10.8174
-10.1237
-9.4881
-8.99196
-8.63672
-8.46867
-8.55066
-8.78242
-9.03622
-9.33267
-9.68278
-10.056
-10.4352
-10.8144
-11.1917
-11.5414
-11.7938
-11.8216
-11.5021
-10.7766
-9.63924
-8.12735
-6.31739
-4.32104
-2.27111
-0.290264
1.53622
3.16097
4.57382
5.79257
6.8583
7.82547
8.75054
9.68546
10.6735
11.7442
12.907
14.1504
15.4367
16.7146
17.9345
19.0588
20.059
20.9077
21.5829
22.0802
22.4149
22.6105
22.6887
22.6684
22.5672
22.4025
22.1917
21.95
21.6902
21.4215
21.1535
20.8934
20.6422
20.3984
20.1623
19.9364
19.7251
19.5323
19.3628
19.2203
19.1063
19.0206
18.9602
18.9199
18.895
18.882
18.8779
18.8804
18.8879
18.8984
18.9097
18.9189
18.9243
18.9251
18.9209
18.9119
18.8988
18.8825
18.8641
18.845
18.8266
18.8105
18.7977
18.7884
18.7825
18.7765
18.7612
18.725
18.6644
18.586
18.4994
18.406
18.3095
18.2006
-2.20391
-2.46084
-2.9794
-3.74754
-4.74502
-5.933
-7.26535
-8.69722
-10.1846
-11.6891
-13.1752
-14.6125
-15.978
-17.2579
-18.447
-19.5441
-20.5494
-21.4636
-22.2873
-23.03
-23.7107
-24.3449
-24.942
-25.5106
-26.0601
-26.6025
-27.1511
-27.7211
-28.331
-29.0015
-29.7514
-30.5959
-31.5531
-32.6393
-33.867
-35.2355
-36.7284
-38.334
-40.0274
-41.7475
-43.4237
-44.982
-46.352
-47.4775
-48.3183
-48.8484
-49.0534
-48.936
-48.5227
-47.8599
-47.0127
-46.0475
-45.0387
-44.0469
-43.1095
-42.2388
-41.4412
-40.7148
-40.0332
-39.339
-38.5542
-37.6176
-36.4979
-35.1929
-33.7289
-32.1486
-30.4961
-28.8035
-27.0902
-25.3711
-23.663
-21.9932
-20.383
-18.8588
-17.4501
-16.1811
-15.0662
-14.0879
-13.226
-12.4493
-11.7336
-11.0525
-10.411
-9.86466
-9.48096
-9.2439
-9.22992
-9.38754
-9.60411
-9.86575
-10.1781
-10.5226
-10.8803
-11.2393
-11.5863
-11.8892
-12.0805
-12.0493
-11.6833
-10.9242
-9.77001
-8.26483
-6.49074
-4.55583
-2.579
-0.663308
1.11886
2.7255
4.14467
5.38994
6.49534
7.50681
8.47416
9.4439
10.4542
11.5308
12.6804
13.8899
15.1255
16.3433
17.5027
18.5713
19.5209
20.3242
20.9623
21.4346
21.7557
21.9457
22.0234
22.0062
21.9109
21.7553
21.5563
21.3284
21.0831
20.8297
20.5784
20.3342
20.0946
19.8574
19.6258
19.4056
19.2033
19.026
18.8797
18.7667
18.6863
18.6349
18.6075
18.5976
18.5996
18.6089
18.6221
18.6368
18.6523
18.6679
18.6822
18.6928
18.6977
18.6958
18.6876
18.6742
18.6567
18.6362
18.6136
18.5904
18.5689
18.551
18.5377
18.5294
18.5258
18.5245
18.5181
18.4938
18.442
18.3631
18.2664
18.1568
18.0412
17.9144
-2.41179
-2.72101
-3.34342
-4.25325
-5.42127
-6.78836
-8.2915
-9.87516
-11.4908
-13.0965
-14.6572
-16.1442
-17.5349
-18.8174
-19.9876
-21.0435
-21.9827
-22.8008
-23.4978
-24.0921
-24.6162
-25.1001
-25.5635
-26.0172
-26.4692
-26.9281
-27.4018
-27.8995
-28.436
-29.0296
-29.702
-30.4712
-31.3544
-32.3632
-33.5092
-34.7914
-36.1929
-37.7041
-39.3094
-40.9544
-42.5771
-44.1112
-45.4907
-46.6619
-47.5826
-48.223
-48.5655
-48.6096
-48.3736
-47.8957
-47.2308
-46.4374
-45.5723
-44.6955
-43.8495
-43.0429
-42.2738
-41.5365
-40.8064
-40.0364
-39.1686
-38.1548
-36.9745
-35.6325
-34.1535
-32.5723
-30.9261
-29.2429
-27.5418
-25.8381
-24.1485
-22.5035
-20.9286
-19.454
-18.1124
-16.9254
-15.8972
-14.9992
-14.1992
-13.4609
-12.76
-12.0703
-11.404
-10.7959
-10.3264
-10.0139
-9.88173
-9.92509
-10.0691
-10.2774
-10.5397
-10.8431
-11.1714
-11.504
-11.807
-12.0346
-12.1247
-11.9944
-11.5561
-10.7599
-9.60714
-8.13846
-6.4315
-4.58562
-2.70217
-0.866607
0.857871
2.4323
3.84403
5.10426
6.24118
7.29249
8.2994
9.30126
10.3308
11.4083
12.5374
13.705
14.8828
16.0355
17.1299
18.1366
19.0267
19.7744
20.3659
20.8039
21.1025
21.2788
21.3488
21.3285
21.2347
21.0852
20.8957
20.6795
20.4473
20.2077
19.9706
19.7376
19.5028
19.2667
19.0367
18.8234
18.6361
18.4828
18.3686
18.2933
18.2519
18.2384
18.2458
18.2666
18.2945
18.3248
18.3539
18.3799
18.4018
18.4193
18.432
18.4394
18.4407
18.4349
18.4222
18.4038
18.3814
18.3564
18.3302
18.3044
18.2811
18.262
18.2483
18.241
18.2399
18.2425
18.243
18.2304
18.1925
18.1231
18.0261
17.9072
17.7763
17.6323
-2.38903
-2.76009
-3.48502
-4.53049
-5.85717
-7.39189
-9.06429
-10.8052
-12.5639
-14.2927
-15.9529
-17.5026
-18.9059
-20.146
-21.2206
-22.1324
-22.8886
-23.4947
-23.9598
-24.3102
-24.5874
-24.8325
-25.074
-25.3277
-25.6011
-25.9028
-26.2402
-26.6214
-27.0588
-27.569
-28.1705
-28.8754
-29.6903
-30.6231
-31.6839
-32.8723
-34.1709
-35.5706
-37.0659
-38.612
-40.1572
-41.6458
-43.021
-44.236
-45.2498
-46.0309
-46.5566
-46.8184
-46.8255
-46.6056
-46.2001
-45.6561
-45.0181
-44.3325
-43.6374
-42.9456
-42.253
-41.5502
-40.815
-40.0116
-39.1023
-38.0582
-36.8706
-35.5504
-34.1162
-32.5925
-31.0081
-29.3868
-27.7469
-26.1052
-24.4815
-22.9093
-21.4177
-20.0391
-18.8031
-17.7261
-16.807
-16.0045
-15.2704
-14.5647
-13.8627
-13.1482
-12.432
-11.7481
-11.1767
-10.7618
-10.5102
-10.4238
-10.463
-10.5907
-10.7874
-11.039
-11.3268
-11.6159
-11.8533
-11.9837
-11.9575
-11.7177
-11.2011
-10.3663
-9.2172
-7.7937
-6.16674
-4.42038
-2.63788
-0.890942
0.764784
2.29434
3.68619
4.94929
6.10599
7.18609
8.22296
9.24932
10.2913
11.3625
12.4629
13.5814
14.696
15.7795
16.8037
17.7401
18.56
19.2419
19.7782
20.1746
20.4435
20.599
20.6547
20.6263
20.5307
20.3851
20.2038
19.9986
19.7781
19.5499
19.3241
19.0967
18.86
18.6208
18.3925
18.1903
18.0252
17.9044
17.8293
17.7957
17.7958
17.8216
17.8642
17.9143
17.9654
18.0139
18.0568
18.0927
18.12
18.1378
18.1463
18.1472
18.1418
18.1307
18.1141
18.0925
18.0672
18.0398
18.0122
17.9857
17.962
17.9427
17.9295
17.9236
17.925
17.9312
17.9365
17.9328
17.9091
17.855
17.7673
17.6491
17.5103
17.3533
-1.77387
-2.23364
-3.08106
-4.27451
-5.77529
-7.5054
-9.38384
-11.3245
-13.2565
-15.1103
-16.8308
-18.3673
-19.6682
-20.7111
-21.5176
-22.1195
-22.5504
-22.8337
-22.9862
-23.032
-23.0142
-22.9845
-22.9808
-23.0246
-23.1267
-23.2928
-23.5279
-23.8363
-24.2252
-24.7071
-25.2929
-25.9853
-26.7825
-27.6878
-28.7114
-29.8521
-31.0851
-32.4007
-33.8026
-35.2566
-36.7221
-38.1555
-39.5112
-40.7511
-41.8388
-42.7444
-43.4428
-43.9189
-44.173
-44.2222