/*--------------------------------*- C++ -*----------------------------------*\
| =========                 |                                                 |
| \\      /  F ield         | OpenFOAM: The Open Source CFD Toolbox           |
|  \\    /   O peration     | Version:  2112                                  |
|   \\  /    A nd           | Website:  www.openfoam.com                      |
|    \\/     M anipulation  |                                                 |
\*---------------------------------------------------------------------------*/
FoamFile
{
    version     2.0;
    format      ascii;
    arch        "LSB;label=32;scalar=64";
    class       volVectorField;
    location    "0.08";
    object      U;
}
// * * * * * * * * * * * * * * * * * * * * * * * * * * * * * * * * * * * * * //

dimensions      [0 1 -1 0 0 0 0];

internalField   nonuniform List<vector> 
12225
(
(9.87832 0.0670391 0)
(9.44373 0.0820954 0)
(9.15296 0.0238151 0)
(8.98226 -0.00056337 0)
(8.74412 0.0182755 0)
(8.4201 0.0470386 0)
(8.09325 0.0607917 0)
(7.82033 0.0600692 0)
(7.58823 0.0532261 0)
(7.40035 0.0457518 0)
(7.2184 0.0364371 0)
(7.1073 0.0308893 0)
(6.94725 0.025229 0)
(6.92826 0.022833 0)
(6.75176 0.0295537 0)
(6.83005 0.0261978 0)
(6.5394 0.0402524 0)
(6.86853 0.0171794 0)
(9.85517 0.0244229 0)
(9.85475 0.0735579 0)
(9.88549 0.0796893 0)
(9.98268 0.0944629 0)
(10.0767 0.11204 0)
(10.1272 0.112115 0)
(10.1283 0.0928636 0)
(10.1019 0.0720311 0)
(10.0729 0.0593009 0)
(10.0676 0.0584085 0)
(10.0745 0.0546955 0)
(10.0947 0.0528921 0)
(10.0931 0.0432912 0)
(10.1009 0.0339816 0)
(10.077 0.0244196 0)
(10.0935 0.0229132 0)
(10.0801 0.0187699 0)
(10.1562 0.00730935 0)
(9.89954 0.0202233 0)
(9.8287 0.0697807 0)
(9.89907 -0.00208706 0)
(10.0458 -0.0506316 0)
(10.164 -0.0260955 0)
(10.2323 0.031602 0)
(10.2672 0.0759931 0)
(10.2841 0.0885304 0)
(10.2892 0.0745648 0)
(10.2912 0.0515775 0)
(10.2929 0.0310169 0)
(10.293 0.022276 0)
(10.2936 0.023621 0)
(10.2987 0.0270554 0)
(10.3118 0.0338057 0)
(10.341 0.0327972 0)
(10.3922 0.0277798 0)
(10.4559 -0.00661982 0)
(9.78458 0.101058 0)
(9.88697 0.0573072 0)
(9.99716 0.0263929 0)
(9.97411 0.0374408 0)
(9.93284 0.0678144 0)
(9.95765 0.0804886 0)
(10.0567 0.0674833 0)
(10.1806 0.0491091 0)
(10.2715 0.0413343 0)
(10.3043 0.0458133 0)
(10.2896 0.0508115 0)
(10.2557 0.049874 0)
(10.2318 0.0415803 0)
(10.2352 0.0239967 0)
(10.2661 0.00507292 0)
(10.3223 -0.0151031 0)
(10.397 -0.039506 0)
(10.4776 -0.0761696 0)
(10.0408 -0.00665319 0)
(10.038 0.0025017 0)
(9.95963 -0.019029 0)
(9.97947 -0.0371707 0)
(10.1003 -0.030423 0)
(10.2193 -0.00802853 0)
(10.2642 0.0149148 0)
(10.2407 0.0339872 0)
(10.1962 0.0482977 0)
(10.1706 0.0565116 0)
(10.1744 0.0559124 0)
(10.1951 0.047268 0)
(10.2199 0.0341287 0)
(10.2449 0.0154603 0)
(10.2711 -0.0041174 0)
(10.3015 -0.0246228 0)
(10.3415 -0.048786 0)
(10.3824 -0.0819896 0)
(9.90423 0.0365125 0)
(9.82616 0.0809346 0)
(9.80511 0.0395073 0)
(9.81535 -0.0025485 0)
(9.87422 -0.00238283 0)
(9.95098 0.027225 0)
(10.0124 0.0540887 0)
(10.0473 0.0610186 0)
(10.0651 0.0519573 0)
(10.0823 0.0401794 0)
(10.1094 0.0319513 0)
(10.1475 0.0251688 0)
(10.195 0.0163182 0)
(10.2516 -8.77124e-05 0)
(10.313 -0.0247666 0)
(10.3759 -0.0552 0)
(10.435 -0.0893002 0)
(10.4854 -0.127124 0)
(9.88909 0.0196693 0)
(9.92475 0.018767 0)
(9.89711 -0.00255518 0)
(9.90416 -0.0533175 0)
(9.91952 -0.0789015 0)
(9.94432 -0.0607743 0)
(9.98718 -0.0155702 0)
(10.0431 0.0273667 0)
(10.1025 0.0507193 0)
(10.1622 0.0527291 0)
(10.2216 0.0389264 0)
(10.2763 0.0149683 0)
(10.3198 -0.0130534 0)
(10.3484 -0.0407509 0)
(10.3607 -0.0660599 0)
(10.3604 -0.0868376 0)
(10.3529 -0.105332 0)
(10.3443 -0.123463 0)
(10.0451 -0.0408642 0)
(10.0239 0.0267693 0)
(10.0554 0.028666 0)
(10.0449 -0.00684213 0)
(9.96965 -0.00840139 0)
(9.8964 0.00612238 0)
(9.89306 0.0126315 0)
(9.95593 0.0038657 0)
(10.0397 -0.0133172 0)
(10.1082 -0.0271133 0)
(10.1485 -0.0308358 0)
(10.1654 -0.0262629 0)
(10.1728 -0.0206426 0)
(10.1842 -0.0213869 0)
(10.2086 -0.0327379 0)
(10.2435 -0.0547308 0)
(10.2898 -0.0853202 0)
(10.3342 -0.120367 0)
(10.0998 -0.0169795 0)
(10.1554 0.0464933 0)
(10.1881 0.00735225 0)
(10.176 -0.0123466 0)
(10.1763 -0.0222542 0)
(10.1989 -0.0366574 0)
(10.2214 -0.042822 0)
(10.2276 -0.0307806 0)
(10.2197 -0.00785945 0)
(10.2086 0.0127612 0)
(10.2011 0.0199041 0)
(10.2008 0.00778121 0)
(10.2109 -0.0213426 0)
(10.2347 -0.0610411 0)
(10.2713 -0.101738 0)
(10.3156 -0.136749 0)
(10.3634 -0.162434 0)
(10.4074 -0.177138 0)
(9.878 -0.0774008 0)
(9.96012 -0.0376567 0)
(10.0547 -0.00150715 0)
(10.1392 -0.00809739 0)
(10.1544 -0.0172383 0)
(10.0991 -0.00867777 0)
(10.0344 0.00537219 0)
(10.0029 0.00579795 0)
(10.0127 -0.00801059 0)
(10.0568 -0.0238656 0)
(10.1213 -0.0330644 0)
(10.1892 -0.0375757 0)
(10.25 -0.0436864 0)
(10.299 -0.058238 0)
(10.3349 -0.0827317 0)
(10.3611 -0.114346 0)
(10.3765 -0.147615 0)
(10.3899 -0.17724 0)
(10.3087 0.0392871 0)
(10.1322 -0.0237744 0)
(10.0656 -0.05219 0)
(10.0815 -0.0377845 0)
(10.0652 -0.00392919 0)
(10.0059 0.0101167 0)
(9.95151 -0.00161282 0)
(9.91555 -0.0205232 0)
(9.89224 -0.0336192 0)
(9.88396 -0.0406047 0)
(9.89922 -0.0478696 0)
(9.93899 -0.0618507 0)
(9.99754 -0.0847362 0)
(10.0633 -0.112844 0)
(10.1249 -0.141383 0)
(10.1748 -0.164244 0)
(10.211 -0.180734 0)
(10.2379 -0.188369 0)
(10.0794 -0.0356614 0)
(10.033 0.0466615 0)
(9.957 -0.00468012 0)
(9.95727 -0.00996379 0)
(10.0109 0.0225486 0)
(10.0297 0.0514719 0)
(9.99486 0.0565257 0)
(9.92728 0.0375498 0)
(9.86331 0.00265429 0)
(9.83674 -0.0372908 0)
(9.85781 -0.0747409 0)
(9.91543 -0.105876 0)
(9.99206 -0.130429 0)
(10.0714 -0.149265 0)
(10.1414 -0.165445 0)
(10.195 -0.180888 0)
(10.2342 -0.197719 0)
(10.2614 -0.216173 0)
(9.72323 0.00613702 0)
(9.82059 0.0639898 0)
(9.82255 -0.0136546 0)
(9.81276 -0.0569702 0)
(9.82343 -0.0471361 0)
(9.85505 -0.00249706 0)
(9.89855 0.0375546 0)
(9.93803 0.0434763 0)
(9.96762 0.0161702 0)
(9.99039 -0.0296847 0)
(10.0096 -0.0817024 0)
(10.028 -0.131269 0)
(10.0504 -0.172612 0)
(10.0797 -0.201959 0)
(10.1162 -0.218736 0)
(10.1579 -0.225167 0)
(10.1994 -0.226624 0)
(10.2425 -0.226661 0)
(9.72788 -0.00751052 0)
(9.8759 -0.0607787 0)
(9.97625 -0.0207868 0)
(10.012 0.00902975 0)
(9.95412 0.0200173 0)
(9.87786 0.0276329 0)
(9.84374 0.0233633 0)
(9.85517 -0.000921467 0)
(9.89474 -0.0380593 0)
(9.94734 -0.0776579 0)
(9.99953 -0.113912 0)
(10.0397 -0.146656 0)
(10.0624 -0.177354 0)
(10.0698 -0.205403 0)
(10.0655 -0.231676 0)
(10.061 -0.253022 0)
(10.0591 -0.273356 0)
(10.0747 -0.290312 0)
(10.0148 -0.0944726 0)
(9.98285 -0.111164 0)
(10.053 -0.0735895 0)
(10.098 -0.0351107 0)
(10.0846 0.0182094 0)
(10.0569 0.0553565 0)
(10.0543 0.0504723 0)
(10.0763 0.00919594 0)
(10.1063 -0.0474937 0)
(10.1319 -0.101157 0)
(10.1463 -0.143156 0)
(10.1489 -0.170461 0)
(10.141 -0.185182 0)
(10.1268 -0.19084 0)
(10.1081 -0.196518 0)
(10.089 -0.207983 0)
(10.0756 -0.231153 0)
(10.0668 -0.267065 0)
(9.9422 0.0984099 0)
(9.94487 -0.063993 0)
(10.0138 -0.0971986 0)
(10.0634 -0.017401 0)
(10.0606 0.0538302 0)
(10.0367 0.0575252 0)
(10.0364 0.00965711 0)
(10.0617 -0.0506688 0)
(10.0935 -0.0969191 0)
(10.1184 -0.123531 0)
(10.1325 -0.138169 0)
(10.1418 -0.149672 0)
(10.1556 -0.162984 0)
(10.1796 -0.179652 0)
(10.2135 -0.199449 0)
(10.2484 -0.224542 0)
(10.2809 -0.253016 0)
(10.2975 -0.288038 0)
(10.1263 0.0125128 0)
(10.1616 -0.141357 0)
(10.1645 -0.190422 0)
(10.1942 -0.0690774 0)
(10.2387 0.049274 0)
(10.2686 0.0771121 0)
(10.2767 0.0278889 0)
(10.2664 -0.0455042 0)
(10.2495 -0.102819 0)
(10.2359 -0.138154 0)
(10.228 -0.1656 0)
(10.2252 -0.197321 0)
(10.2264 -0.234107 0)
(10.2292 -0.268972 0)
(10.2318 -0.293063 0)
(10.2337 -0.304102 0)
(10.2344 -0.302812 0)
(10.237 -0.296679 0)
(10.2663 0.0240331 0)
(10.2423 -0.0330643 0)
(10.1564 -0.112718 0)
(10.096 -0.10964 0)
(10.1036 -0.0547084 0)
(10.1433 -0.0071049 0)
(10.1674 0.00387643 0)
(10.1643 -0.0152956 0)
(10.1467 -0.0483841 0)
(10.125 -0.0841599 0)
(10.1008 -0.115989 0)
(10.0726 -0.140734 0)
(10.0405 -0.158778 0)
(10.0076 -0.174337 0)
(9.97942 -0.193847 0)
(9.96191 -0.220388 0)
(9.95771 -0.256316 0)
(9.96913 -0.296853 0)
(9.93887 -0.0494639 0)
(9.83596 -0.0391827 0)
(9.85546 -0.0270481 0)
(9.87247 -0.00565216 0)
(9.89715 0.00375083 0)
(9.93734 0.0025488 0)
(9.97101 -0.00476153 0)
(9.9887 -0.0198174 0)
(9.99503 -0.0417476 0)
(9.99717 -0.0635932 0)
(9.99896 -0.0802194 0)
(10.0029 -0.0952478 0)
(10.0104 -0.117713 0)
(10.021 -0.155458 0)
(10.0315 -0.208961 0)
(10.0389 -0.270764 0)
(10.0405 -0.3316 0)
(10.0351 -0.379398 0)
(9.94416 -0.00312154 0)
(9.87044 0.0393375 0)
(9.83125 -0.0769169 0)
(9.80405 -0.144829 0)
(9.82774 -0.139114 0)
(9.89477 -0.107434 0)
(9.97134 -0.0775566 0)
(10.0319 -0.0611834 0)
(10.0643 -0.0634319 0)
(10.0681 -0.0840858 0)
(10.0521 -0.117018 0)
(10.0296 -0.153238 0)
(10.0115 -0.185447 0)
(10.0013 -0.21009 0)
(9.99621 -0.226708 0)
(9.98921 -0.238186 0)
(9.97667 -0.246678 0)
(9.95475 -0.256863 0)
(10.0431 0.13211 0)
(10.1476 0.0746667 0)
(10.1177 -0.0190609 0)
(10.0103 -0.0825964 0)
(9.91473 -0.138544 0)
(9.89593 -0.178423 0)
(9.92219 -0.184702 0)
(9.95124 -0.153502 0)
(9.97116 -0.10124 0)
(9.9848 -0.0552604 0)
(9.99322 -0.037472 0)
(9.99378 -0.0545758 0)
(9.98581 -0.0980065 0)
(9.9712 -0.152295 0)
(9.95582 -0.20173 0)
(9.94474 -0.237166 0)
(9.94234 -0.256536 0)
(9.94993 -0.261665 0)
(10.1449 -0.101513 0)
(10.1681 0.0362313 0)
(10.1634 0.122301 0)
(10.1479 0.0621833 0)
(10.139 -0.0443073 0)
(10.1348 -0.119493 0)
(10.1169 -0.14099 0)
(10.0885 -0.12675 0)
(10.0667 -0.107507 0)
(10.0622 -0.101231 0)
(10.0731 -0.10772 0)
(10.0891 -0.11991 0)
(10.0991 -0.133702 0)
(10.0964 -0.151039 0)
(10.0812 -0.176224 0)
(10.058 -0.209627 0)
(10.0331 -0.24974 0)
(10.0113 -0.290031 0)
(9.89884 0.126608 0)
(9.96349 0.113217 0)
(10.0506 0.0450348 0)
(10.0964 -0.0614584 0)
(10.0964 -0.135073 0)
(10.0862 -0.156313 0)
(10.0968 -0.140396 0)
(10.1293 -0.111032 0)
(10.1662 -0.0876228 0)
(10.1888 -0.0793989 0)
(10.1877 -0.0852405 0)
(10.1665 -0.0991025 0)
(10.137 -0.115024 0)
(10.1115 -0.131299 0)
(10.0967 -0.149384 0)
(10.0914 -0.169764 0)
(10.0915 -0.1923 0)
(10.0896 -0.213632 0)
(9.93299 -0.0939507 0)
(10.0259 -0.0656131 0)
(10.0889 -0.0015857 0)
(10.0939 0.00925219 0)
(10.0495 -0.0404527 0)
(10.0115 -0.112324 0)
(9.99431 -0.162708 0)
(9.98698 -0.172007 0)
(9.9845 -0.146882 0)
(9.98676 -0.107197 0)
(9.99096 -0.0736559 0)
(9.9926 -0.0607575 0)
(9.98915 -0.0728303 0)
(9.98049 -0.106342 0)
(9.96857 -0.152108 0)
(9.956 -0.199103 0)
(9.94456 -0.239387 0)
(9.93658 -0.264356 0)
(10.3548 -0.022686 0)
(10.1248 -0.00213484 0)
(10.032 0.0320059 0)
(9.99669 -0.00909819 0)
(9.98578 -0.0778448 0)
(9.99856 -0.126334 0)
(10.0305 -0.138694 0)
(10.0621 -0.125649 0)
(10.0807 -0.108534 0)
(10.0879 -0.0991535 0)
(10.0906 -0.0963017 0)
(10.0914 -0.0960985 0)
(10.0889 -0.0978321 0)
(10.0794 -0.104823 0)
(10.0591 -0.120688 0)
(10.0282 -0.144514 0)
(9.98892 -0.174547 0)
(9.94817 -0.201996 0)
(10.0079 0.00661688 0)
(10.0935 0.0738864 0)
(10.1661 0.0536119 0)
(10.216 0.0221617 0)
(10.2074 -0.0437728 0)
(10.1536 -0.130064 0)
(10.0973 -0.186775 0)
(10.0653 -0.187897 0)
(10.0594 -0.149381 0)
(10.0667 -0.103197 0)
(10.0718 -0.0712849 0)
(10.0672 -0.0606059 0)
(10.0548 -0.0675329 0)
(10.0406 -0.0850677 0)
(10.0272 -0.108362 0)
(10.0142 -0.133486 0)
(9.99877 -0.15994 0)
(9.97928 -0.184324 0)
(10.2438 -0.0550888 0)
(10.2072 -0.0167499 0)
(10.2368 0.00300329 0)
(10.2746 -0.0163839 0)
(10.3096 -0.0460973 0)
(10.3276 -0.0755338 0)
(10.3091 -0.103706 0)
(10.2463 -0.122823 0)
(10.1575 -0.126185 0)
(10.0734 -0.115219 0)
(10.0148 -0.096812 0)
(9.9871 -0.0803518 0)
(9.98637 -0.0732105 0)
(10.0056 -0.0776948 0)
(10.0331 -0.0926829 0)
(10.0556 -0.113703 0)
(10.0621 -0.137479 0)
(10.0431 -0.159741 0)
(10.1416 0.061363 0)
(10.135 0.0326781 0)
(10.2631 0.0207152 0)
(10.384 -0.010346 0)
(10.424 -0.0696354 0)
(10.3913 -0.120613 0)
(10.3036 -0.129327 0)
(10.1865 -0.0958428 0)
(10.0764 -0.0502213 0)
(10.0024 -0.0222795 0)
(9.96838 -0.0231516 0)
(9.95682 -0.0480639 0)
(9.9483 -0.0847507 0)
(9.9334 -0.120411 0)
(9.91133 -0.145315 0)
(9.88426 -0.155705 0)
(9.85565 -0.1523 0)
(9.82655 -0.139833 0)
(10.0914 0.0071329 0)
(10.1179 -0.070143 0)
(10.1347 -0.0722169 0)
(10.229 -0.0654603 0)
(10.3256 -0.0538825 0)
(10.3515 -0.035832 0)
(10.3049 -0.0236972 0)
(10.234 -0.0264397 0)
(10.1882 -0.0406728 0)
(10.1853 -0.055708 0)
(10.2082 -0.0629605 0)
(10.2255 -0.0618844 0)
(10.2151 -0.0582144 0)
(10.1742 -0.0590201 0)
(10.111 -0.0678727 0)
(10.0387 -0.083373 0)
(9.96481 -0.102079 0)
(9.89673 -0.118141 0)
(9.98793 -0.0474686 0)
(9.83014 -0.0160645 0)
(9.73153 -0.0187892 0)
(9.54904 -0.0720751 0)
(9.26369 -0.113569 0)
(8.99102 -0.105896 0)
(8.81516 -0.0687917 0)
(8.71414 -0.0370908 0)
(8.62701 -0.0263336 0)
(8.52063 -0.0321737 0)
(8.39387 -0.0432982 0)
(8.25741 -0.0521159 0)
(8.12006 -0.0573583 0)
(7.98468 -0.0608291 0)
(7.84497 -0.063288 0)
(7.69665 -0.0643838 0)
(7.5351 -0.062908 0)
(7.36941 -0.058893 0)
(-0.172226 0.456472 1.31369e-20)
(-0.462999 0.22111 -1.30051e-20)
(-0.619101 0.0790805 0)
(-0.707487 -0.0520234 0)
(-0.703976 -0.153923 0)
(-0.6337 -0.220406 1.26038e-20)
(-0.520284 -0.267544 0)
(-0.369322 -0.295832 0)
(-0.187272 -0.304024 0)
(0.00840726 -0.293302 0)
(0.196441 -0.265193 -1.2325e-20)
(0.360023 -0.218491 0)
(0.490017 -0.156582 0)
(0.578678 -0.0873257 0)
(0.628398 -0.0233981 0)
(0.646428 0.0263713 -1.21965e-20)
(0.640951 0.0566114 0)
(0.620182 0.0676253 0)
(0.593847 0.0633704 0)
(0.570439 0.0481931 0)
(0.555111 0.0257195 0)
(0.551921 -0.000404941 0)
(0.564688 -0.0276173 0)
(0.596797 -0.055704 -1.26037e-20)
(0.650609 -0.0839676 1.26787e-20)
(0.728023 -0.110917 -1.27576e-20)
(0.830725 -0.135936 -1.28387e-20)
(0.959949 -0.159303 0)
(1.11667 -0.181136 0)
(1.30143 -0.201548 1.30808e-20)
(1.51448 -0.221189 1.31549e-20)
(1.75629 -0.240516 0)
(2.02721 -0.259108 0)
(2.32712 -0.277219 1.33247e-20)
(2.65626 -0.295781 0)
(3.01512 -0.314603 0)
(3.40367 -0.332305 -1.33555e-20)
(3.82124 -0.348946 0)
(4.26752 -0.366187 -1.32558e-20)
(4.7424 -0.383291 -2.63185e-20)
(5.24381 -0.396524 0)
(5.76714 -0.405156 0)
(6.30728 -0.41274 0)
(6.85872 -0.416775 0)
(7.41067 -0.40655 0)
(7.94618 -0.381458 -2.35764e-20)
(8.45152 -0.350652 -2.29078e-20)
(8.91496 -0.30679 -2.2236e-20)
(9.31437 -0.247057 0)
(9.6341 -0.183614 2.10401e-20)
(9.86778 -0.0846077 0)
(9.97786 0.0298844 -2.02853e-20)
(9.9648 0.146354 -2.01466e-20)
(9.7591 0.42524 0)
(9.2071 0.635885 0)
(8.53031 0.845268 0)
(7.2757 1.77876 -2.15919e-20)
(4.87789 2.20426 0)
(2.4911 1.05669 0)
(0.794398 -0.0237515 0)
(-0.428278 -0.267007 0)
(-1.17553 -0.238506 0)
(-1.57093 -0.257396 0)
(-1.76172 -0.293094 0)
(-1.87402 -0.235922 0)
(-1.92296 -0.0822437 1.96476e-20)
(-2.03746 -0.119796 0)
(-1.84478 -0.506603 0)
(-1.06398 -0.969047 -1.964e-20)
(-0.00750468 -1.29163 -1.92801e-20)
(1.08089 -1.47247 0)
(1.38384 -1.40292 1.76279e-20)
(1.3057 -0.603802 -1.70325e-20)
(0.301397 0.957016 0)
(-1.49085 0.906782 1.63805e-20)
(-2.58285 0.747295 0)
(-4.0539 0.908653 0)
(-5.54775 1.04932 -1.36426e-20)
(-7.14853 1.05575 0)
(-8.47315 0.798691 1.11261e-20)
(-9.40999 0.543154 0)
(-10.0701 0.37357 -8.68913e-21)
(-10.562 0.280566 -7.65124e-21)
(-10.9305 0.186941 -6.73726e-21)
(-11.147 0.0979933 -1.19148e-20)
(-11.2201 0.0187829 1.0633e-20)
(-11.1582 -0.0335879 0)
(-11.0379 -0.0527354 0)
(-10.9056 -0.0514194 0)
(-10.8031 -0.0329197 7.12281e-21)
(-10.7528 -0.00731485 6.34112e-21)
(-10.7529 0.0127859 -5.5726e-21)
(-10.7882 0.0273998 0)
(-10.8491 0.0365497 4.17964e-21)
(-10.922 0.038791 3.60694e-21)
(-10.9936 0.0343766 3.15769e-21)
(-11.0491 0.0224025 0)
(-11.0735 0.00538859 0)
(-11.0578 -0.0146206 0)
(-10.9955 -0.0374236 3.14903e-21)
(-10.8803 -0.0622806 0)
(-10.7087 -0.0878327 0)
(-10.4792 -0.113346 -5.38373e-21)
(-10.1914 -0.138277 0)
(-9.84659 -0.161907 0)
(-9.44735 -0.183713 -9.19404e-21)
(-8.99718 -0.203261 0)
(-8.50014 -0.220185 0)
(-7.96108 -0.23415 1.36604e-20)
(-7.38622 -0.244812 1.51189e-20)
(-6.78323 -0.251885 0)
(-6.16084 -0.255221 -1.77977e-20)
(-5.52849 -0.254803 0)
(-4.89596 -0.250746 2.00099e-20)
(-4.27217 -0.243472 0)
(-3.66454 -0.233596 2.16677e-20)
(-3.07955 -0.221605 2.22875e-20)
(-2.52246 -0.208068 0)
(-1.9978 -0.193256 0)
(-1.50989 -0.177271 0)
(-1.05983 -0.161642 0)
(-0.649203 -0.145619 0)
(-0.277207 -0.130117 0)
(0.0538321 -0.117386 0)
(0.343715 -0.102519 2.33048e-20)
(0.599413 -0.0892043 -2.30936e-20)
(0.820564 -0.0772628 0)
(1.01118 -0.066778 0)
(1.17432 -0.0574043 0)
(1.31383 -0.0491588 0)
(1.43289 -0.0408562 -4.33737e-20)
(1.53428 -0.0319901 0)
(1.61942 -0.0224493 4.21442e-20)
(1.68881 -0.0128065 -4.15287e-20)
(1.74227 -0.00402739 0)
(1.77922 0.00250032 0)
(1.79827 0.0064523 0)
(1.79954 0.00781565 3.90565e-20)
(1.78694 0.0089591 3.84361e-20)
(1.76456 0.0103587 0)
(1.73628 0.0115646 3.7202e-20)
(1.70598 0.0119241 3.6595e-20)
(1.6774 0.0109395 -3.59996e-20)
(1.65412 0.00863521 0)
(1.63981 0.00511109 0)
(1.63914 -6.32193e-05 -3.43219e-20)
(1.65982 -0.00762886 0)
(1.71287 -0.0183294 0)
(1.81054 -0.0317281 0)
(1.96107 -0.0458093 0)
(2.16367 -0.0576272 3.22578e-20)
(2.40785 -0.0647117 3.19702e-20)
(2.67634 -0.0660519 0)
(2.9491 -0.0624159 3.13841e-20)
(3.2084 -0.0562548 0)
(3.44599 -0.0524993 0)
(3.67318 -0.0581122 3.03577e-20)
(3.92205 -0.0708321 0)
(4.20396 -0.0567739 2.96326e-20)
(4.41822 0.0346866 0)
(4.38842 0.181187 0)
(4.11491 0.241278 2.84182e-20)
(3.80016 0.0840507 0)
(3.66859 -0.225078 2.74418e-20)
(3.88373 -0.408466 0)
(4.37918 -0.191639 0)
(4.48247 0.283932 0)
(3.90062 0.47299 -2.61465e-20)
(3.24849 0.230035 0)
(2.89736 -0.128046 2.49342e-20)
(2.75069 -0.269062 0)
(2.68794 -0.164175 0)
(2.64927 -0.0141171 0)
(2.62948 0.0203184 0)
(2.71859 -0.0209734 0)
(2.86261 -0.0384347 0)
(2.97706 0.000799885 0)
(2.98077 0.01049 -4.43151e-20)
(3.01958 0.0179064 0)
(2.85687 0.0106164 0)
(0.0750321 0.769579 -3.94384e-20)
(0.15361 0.687221 3.91038e-20)
(0.247055 0.410663 0)
(0.375929 0.185216 -2.56117e-20)
(0.537518 0.00586757 0)
(0.718273 -0.154624 -1.25953e-20)
(0.90561 -0.289715 2.49426e-20)
(1.08398 -0.394084 2.47482e-20)
(1.23817 -0.44989 0)
(1.35739 -0.446286 2.44227e-20)
(1.43951 -0.405991 1.22745e-20)
(1.4875 -0.346268 0)
(1.50248 -0.271559 0)
(1.47734 -0.18739 0)
(1.40423 -0.107879 0)
(1.28778 -0.0441532 1.21751e-20)
(1.14264 -0.00256337 0)
(0.985913 0.0208318 -2.43585e-20)
(0.829367 0.0295507 0)
(0.679172 0.025652 0)
(0.540702 0.0118669 2.47178e-20)
(0.416659 -0.0107041 0)
(0.309407 -0.0414744 -2.49976e-20)
(0.222017 -0.0798897 1.26164e-20)
(0.158992 -0.125005 -1.26954e-20)
(0.128268 -0.177539 1.27769e-20)
(0.132874 -0.236192 1.28602e-20)
(0.174569 -0.299595 0)
(0.254467 -0.366329 0)
(0.373301 -0.434998 -1.31066e-20)
(0.530688 -0.504589 1.30866e-20)
(0.726179 -0.574963 0)
(0.959039 -0.644437 0)
(1.22836 -0.714218 -1.33515e-20)
(1.53391 -0.783123 0)
(1.87436 -0.850705 0)
(2.24913 -0.917494 1.33805e-20)
(2.65813 -0.98315 0)
(3.10069 -1.04652 -1.31359e-20)
(3.57522 -1.10597 2.63619e-20)
(4.0801 -1.15957 0)
(4.61384 -1.20423 0)
(5.17244 -1.23445 5.03199e-20)
(5.74704 -1.2432 4.92875e-20)
(6.32652 -1.22413 4.8099e-20)
(6.89906 -1.17397 -2.3179e-20)
(7.44897 -1.09072 2.29345e-20)
(7.95728 -0.970582 6.62335e-20)
(8.40569 -0.816413 -4.26192e-20)
(8.78534 -0.637821 -2.10658e-20)
(9.09889 -0.421476 0)
(9.33237 -0.162441 2.03085e-20)
(9.4895 0.126901 -1.89242e-20)
(9.61299 0.540767 0)
(9.65255 1.04334 0)
(9.59924 1.56481 0)
(9.43443 2.47145 2.1446e-20)
(9.02402 3.52443 0)
(8.50985 3.98341 -3.89171e-20)
(7.42233 3.70621 0)
(5.69288 2.83083 -3.81659e-20)
(3.9995 1.77534 0)
(2.62698 1.00678 3.85301e-20)
(1.5456 0.633739 0)
(0.630991 0.455156 -3.94958e-20)
(-0.0173243 0.209188 2.00556e-20)
(-0.479335 -0.0363345 0)
(-0.839027 -0.58132 3.99268e-20)
(-0.940384 -1.48968 1.96277e-20)
(-1.02029 -1.67665 1.92469e-20)
(-1.29201 -0.282787 0)
(-2.84249 1.24579 1.85321e-20)
(-3.93159 1.75901 1.69487e-20)
(-4.68553 2.12696 0)
(-5.79196 2.08174 -1.6227e-20)
(-6.67428 2.23287 2.97969e-20)
(-7.71622 2.36025 0)
(-8.5128 2.30569 1.35491e-20)
(-9.1996 1.98686 0)
(-9.65033 1.51189 -3.19608e-20)
(-9.98461 1.10152 0)
(-10.2507 0.809227 2.52376e-20)
(-10.492 0.597122 7.64822e-21)
(-10.6749 0.39202 -6.20261e-21)
(-10.7793 0.186307 -1.10051e-20)
(-10.7852 -0.00753758 9.87719e-21)
(-10.6968 -0.148066 0)
(-10.5322 -0.211868 0)
(-10.362 -0.198264 0)
(-10.2527 -0.132062 -2.12835e-20)
(-10.2123 -0.0516544 -6.34636e-21)
(-10.2288 0.0158608 5.57731e-21)
(-10.2867 0.0643835 0)
(-10.3705 0.0934994 3.92514e-21)
(-10.4629 0.101198 -3.60928e-21)
(-10.5484 0.0879496 -3.1597e-21)
(-10.6119 0.0553963 0)
(-10.6449 0.00743373 0)
(-10.6368 -0.0520381 0)
(-10.5784 -0.120609 -3.15066e-21)
(-10.4645 -0.195018 0)
(-10.2917 -0.272235 8.31155e-21)
(-10.0581 -0.349644 1.56288e-20)
(-9.76404 -0.425072 -1.25449e-20)
(-9.41133 -0.496735 0)
(-9.00277 -0.563252 -8.78684e-21)
(-8.5419 -0.623347 0)
(-8.03253 -0.675866 -2.39986e-20)
(-7.47896 -0.719755 1.33674e-20)
(-6.88683 -0.753873 1.48558e-20)
(-6.26353 -0.777122 0)
(-5.61778 -0.788799 5.3178e-20)
(-4.95913 -0.78861 -3.77505e-20)
(-4.29776 -0.776597 -2.00097e-20)
(-3.64333 -0.753694 0)
(-3.0042 -0.721828 -2.16701e-20)
(-2.38849 -0.682885 -6.67724e-20)
(-1.8032 -0.638984 0)
(-1.25441 -0.591372 -4.62323e-20)
(-0.747909 -0.54062 -4.67572e-20)
(-0.284277 -0.490593 -4.7058e-20)
(0.128556 -0.441082 0)
(0.493891 -0.391052 0)
(0.816137 -0.344918 0)
(1.09265 -0.299577 2.32746e-20)
(1.32882 -0.257487 2.30686e-20)
(1.52767 -0.219056 0)
(1.6936 -0.185088 4.51108e-20)
(1.83056 -0.155691 4.45372e-20)
(1.94257 -0.13101 0)
(2.03168 -0.111146 4.33418e-20)
(2.10019 -0.0955906 8.54493e-20)
(2.1504 -0.0830496 -4.21187e-20)
(2.18405 -0.0719444 -4.15009e-20)
(2.20307 -0.0594459 0)
(2.20987 -0.0425275 0)
(2.20769 -0.0218861 0)
(2.19926 -0.00160266 -3.90414e-20)
(2.18326 0.0137776 3.84206e-20)
(2.15792 0.0232025 7.55998e-20)
(2.12459 0.0270882 -3.71875e-20)
(2.08667 0.026466 3.65703e-20)
(2.04848 0.0223139 3.59866e-20)
(2.01455 0.0151037 0)
(1.98915 0.0046632 0)
(1.97725 -0.010964 -3.42814e-20)
(1.98575 -0.0348308 0)
(2.02596 -0.0696284 0)
(2.11195 -0.114509 6.5772e-20)
(2.25415 -0.163144 0)
(2.45362 -0.206078 3.21795e-20)
(2.70082 -0.235293 -3.1955e-20)
(2.97869 -0.246932 0)
(3.26663 -0.241433 3.13288e-20)
(3.54433 -0.223972 0)
(3.79665 -0.206363 0)
(4.01935 -0.204272 -3.03439e-20)
(4.22619 -0.218468 5.99262e-20)
(4.4574 -0.211494 -2.96198e-20)
(4.76005 -0.139924 0)
(5.11586 -0.0309304 0)
(5.44196 0.0596547 2.83564e-20)
(5.67717 0.147633 0)
(5.65214 0.190997 2.74376e-20)
(5.25303 0.053435 0)
(4.85459 -0.120284 0)
(4.89219 -0.0600645 0)
(5.26296 0.116068 2.61136e-20)
(5.87202 0.242422 0)
(6.44131 0.350298 -2.48645e-20)
(6.38911 0.365825 0)
(5.65611 0.222278 0)
(4.85407 0.0581053 4.67618e-20)
(4.39598 -0.0512667 -4.58843e-20)
(4.27388 -0.104252 0)
(4.27976 -0.104191 0)
(4.31877 -0.0522009 0)
(4.35877 -0.0251511 1.32765e-19)
(4.43392 0.0435086 0)
(4.35537 0.0708083 -8.62676e-20)
(0.0750716 0.0718741 -8.77566e-23)
(0.321456 -0.0251609 -5.22023e-20)
(0.644121 -0.311202 0)
(0.956351 -0.57934 5.11121e-20)
(1.23055 -0.778742 0)
(1.45241 -0.893466 0)
(1.60931 -0.956166 -1.20862e-22)
(1.69739 -0.984484 -2.46938e-20)
(1.71822 -0.944019 -2.43386e-20)
(1.65428 -0.81658 -2.44036e-20)
(1.48358 -0.649133 0)
(1.2273 -0.431254 0)
(0.940865 -0.158161 2.39182e-20)
(0.656244 0.133938 4.77776e-20)
(0.364404 0.391632 -4.78083e-20)
(0.0483727 0.569666 0)
(-0.281693 0.658817 -4.80653e-20)
(-0.605365 0.680594 2.43736e-20)
(-0.910533 0.656137 0)
(-1.1928 0.602528 -4.85494e-20)
(-1.44563 0.528597 -2.46502e-20)
(-1.65877 0.43781 4.89638e-20)
(-1.82488 0.331599 2.4896e-20)
(-1.94079 0.210722 0)
(-2.0048 0.0771683 -4.98026e-20)
(-2.01474 -0.0654766 -5.01229e-20)
(-1.97105 -0.214444 0)
(-1.87665 -0.365752 -5.08218e-20)
(-1.73472 -0.516543 0)
(-1.54862 -0.664446 -5.15516e-20)
(-1.32205 -0.808229 -2.6208e-20)
(-1.05617 -0.946901 0)
(-0.756955 -1.08067 0)
(-0.424404 -1.20941 0)
(-0.0587528 -1.33516 0)
(0.335697 -1.45735 0)
(0.758228 -1.57613 0)
(1.20878 -1.69069 -5.26494e-20)
(1.68745 -1.80017 7.88209e-20)
(2.19431 -1.90231 0)
(2.72896 -1.99472 0)
(3.29149 -2.07231 0)
(3.88027 -2.12452 -6.2837e-22)
(4.48815 -2.13909 -4.9362e-20)
(5.10287 -2.10601 -9.56757e-20)
(5.70839 -2.01832 9.29997e-20)
(6.28533 -1.87006 4.46982e-20)
(6.81268 -1.65854 -4.40365e-20)
(7.27023 -1.40041 8.96888e-22)
(7.64318 -1.11988 -4.05004e-20)
(7.93629 -0.807728 0)
(8.16718 -0.465216 -3.8537e-20)
(8.34586 -0.10741 1.29383e-21)
(8.50269 0.341988 0)
(8.66241 0.894794 0)
(8.81164 1.48833 3.69523e-20)
(8.99719 2.32068 0)
(9.30546 3.37853 0)
(9.6389 4.19123 -3.43513e-20)
(9.58203 4.48492 -7.30346e-20)
(8.97915 4.27664 3.78346e-20)
(8.01504 3.70797 0)
(6.79665 2.97978 -3.81383e-20)
(5.44141 2.28192 0)
(4.09439 1.78447 -3.90897e-20)
(2.97737 1.37406 -3.953e-20)
(1.89257 0.98943 8.07998e-20)
(0.755834 0.398864 4.16843e-20)
(-0.268597 -0.484815 0)
(-1.80981 -0.629038 -8.12017e-20)
(-2.83011 0.773014 0)
(-4.10215 2.10532 -1.10241e-19)
(-5.13897 2.65523 -6.95134e-20)
(-5.9022 3.00787 -6.51175e-20)
(-6.60695 3.01536 6.0991e-20)
(-7.17636 3.06298 -8.65886e-20)
(-7.71624 3.01647 0)
(-8.09424 2.79239 0)
(-8.4087 2.33212 4.35933e-20)
(-8.67268 1.7908 6.01905e-20)
(-8.97884 1.36222 0)
(-9.29816 1.07053 -1.6575e-20)
(-9.61418 0.831702 0)
(-9.88757 0.564845 3.75935e-20)
(-10.085 0.265748 1.1248e-21)
(-10.1343 -0.0380202 -9.47498e-22)
(-10.0314 -0.278792 -1.79417e-20)
(-9.83625 -0.392836 0)
(-9.64872 -0.349963 1.53866e-20)
(-9.54287 -0.208802 1.72896e-22)
(-9.53516 -0.0528456 0)
(-9.60124 0.0723394 0)
(-9.7151 0.156334 0)
(-9.85803 0.202118 -8.11263e-21)
(-10.0107 0.210146 0)
(-10.1542 0.181159 0)
(-10.2712 0.120236 0)
(-10.348 0.03415 0)
(-10.3742 -0.0728048 0)
(-10.3427 -0.194457 -4.78678e-21)
(-10.2472 -0.32518 0)
(-10.0847 -0.4597 -8.31153e-21)
(-9.85479 -0.593444 -1.02426e-20)
(-9.55917 -0.722623 1.25426e-20)
(-9.20132 -0.844548 0)
(-8.78594 -0.957341 1.79757e-20)
(-8.31832 -1.0594 0)
(-7.80359 -1.14934 2.39882e-20)
(-7.24645 -1.2257 -2.7014e-20)
(-6.65212 -1.2865 -8.89876e-20)
(-6.02719 -1.32955 0)
(-5.37923 -1.35328 -1.05354e-19)
(-4.71611 -1.35698 -3.7065e-20)
(-4.0458 -1.34054 0)
(-3.37544 -1.305 -8.2778e-20)
(-2.71107 -1.25283 -8.59267e-20)
(-2.05905 -1.18667 1.32988e-19)
(-1.42634 -1.10977 0)
(-0.821121 -1.02498 4.62249e-20)
(-0.252656 -0.934227 4.67549e-20)
(0.271969 -0.843461 1.40933e-19)
(0.745906 -0.753944 0)
(1.16563 -0.663272 0)
(1.52973 -0.575879 0)
(1.83826 -0.492492 4.64571e-20)
(2.09471 -0.415848 0)
(2.30332 -0.348008 0)
(2.46975 -0.289688 -4.50617e-20)
(2.60138 -0.240197 -4.44908e-20)
(2.7067 -0.197347 0)
(2.79276 -0.15782 0)
(2.86264 -0.119813 -8.5369e-20)
(2.91386 -0.0832926 0)
(2.93983 -0.0487144 8.29349e-20)
(2.93579 -0.019251 8.17032e-20)
(2.90159 0.00121851 0)
(2.84178 0.0140033 0)
(2.76496 0.0250078 -7.80283e-20)
(2.68229 0.0353525 -6.81428e-24)
(2.60287 0.0449871 -8.12931e-24)
(2.53001 0.0531954 0)
(2.46421 0.0569672 -1.46219e-19)
(2.40553 0.0539525 0)
(2.3547 0.0440849 0)
(2.3129 0.0275378 0)
(2.28234 0.00217132 6.85713e-20)
(2.26847 -0.0378869 0)
(2.28209 -0.0968571 -1.33036e-19)
(2.33845 -0.173348 -6.57504e-20)
(2.44992 -0.256591 0)
(2.6189 -0.330223 -6.4399e-20)
(2.83725 -0.380443 0)
(3.09022 -0.400729 0)
(3.35963 -0.391645 -1.87896e-19)
(3.62467 -0.360156 1.23963e-19)
(3.86435 -0.321591 0)
(4.06377 -0.301079 1.21181e-19)
(4.22491 -0.320456 -5.99165e-20)
(4.38616 -0.358363 0)
(4.62774 -0.3338 0)
(4.99099 -0.200315 0)
(5.36429 -0.0421137 -1.70189e-19)
(5.58895 0.0413256 0)
(5.67513 0.0399339 -5.48249e-20)
(5.70814 -0.0202607 0)
(5.65207 -0.0456462 0)
(5.59332 0.0327927 0)
(5.75121 0.00156962 0)
(6.16155 -0.252706 0)
(6.78667 -0.331156 0)
(7.4504 0.0469633 -9.74963e-20)
(7.67637 0.503997 0)
(7.18286 0.579561 -4.66516e-20)
(6.28059 0.311237 1.37296e-19)
(5.52557 0.0352865 0)
(5.0932 -0.0770499 0)
(4.89891 -0.0451509 -8.95177e-20)
(4.823 -0.0231766 -8.84614e-20)
(4.82565 0.0185514 8.72599e-20)
(4.80519 0.0715928 8.62341e-20)
(0.131871 -0.114867 7.91183e-20)
(0.53564 -0.675438 7.82889e-20)
(0.874117 -0.990166 5.15355e-20)
(1.10006 -1.14225 2.53793e-20)
(1.20227 -1.15883 0)
(1.1784 -1.02435 -4.97227e-20)
(0.991725 -0.846196 2.45213e-20)
(0.652176 -0.615099 0)
(0.289271 -0.246072 2.44501e-20)
(-0.0540243 0.228302 0)
(-0.468065 0.582705 -4.79094e-20)
(-0.919324 0.713541 0)
(-1.32964 0.776753 -2.38829e-20)
(-1.69311 0.884739 -4.76118e-20)
(-2.01617 1.01969 4.75573e-20)
(-2.31586 1.1302 0)
(-2.60198 1.18853 4.77239e-20)
(-2.87585 1.18466 0)
(-3.12334 1.12392 0)
(-3.33491 1.01485 4.82435e-20)
(-3.49991 0.864133 0)
(-3.61076 0.680385 -1.18328e-21)
(-3.66326 0.471671 0)
(-3.65675 0.245125 0)
(-3.59219 0.00794928 1.14883e-21)
(-3.475 -0.231889 4.9925e-20)
(-3.31035 -0.469336 4.92141e-20)
(-3.10189 -0.700254 5.06404e-20)
(-2.8539 -0.921897 0)
(-2.57084 -1.13257 1.01844e-19)
(-2.25677 -1.33141 0)
(-1.91561 -1.51867 5.12056e-20)
(-1.55079 -1.69568 0)
(-1.16369 -1.86245 0)
(-0.757804 -2.02332 -5.19263e-20)
(-0.334198 -2.17764 0)
(0.107305 -2.32656 5.1967e-20)
(0.566019 -2.47129 9.0092e-22)
(1.0426 -2.60996 -1.03797e-19)
(1.54056 -2.74175 1.01989e-19)
(2.06232 -2.86703 0)
(2.61267 -2.98007 0)
(3.19545 -3.0615 4.78816e-20)
(3.80553 -3.08999 0)
(4.43176 -3.04841 4.75071e-20)
(5.0578 -2.92241 -4.6151e-20)
(5.66058 -2.70235 -4.47008e-20)
(6.21244 -2.38726 0)
(6.68205 -1.99604 4.18092e-20)
(7.03912 -1.57364 4.05285e-20)
(7.28376 -1.15853 -7.63492e-20)
(7.45852 -0.756385 3.85807e-20)
(7.60374 -0.349899 3.79377e-20)
(7.7451 0.109831 0)
(7.91259 0.652255 0)
(8.09699 1.24479 -3.70188e-20)
(8.28618 1.94736 0)
(8.5604 2.78812 0)
(8.95464 3.59834 7.32642e-20)
(9.30772 4.22354 7.30496e-20)
(9.41731 4.56779 0)
(9.17485 4.5612 0)
(8.5381 4.25805 0)
(7.58059 3.84057 0)
(6.41146 3.42204 7.77501e-20)
(5.2064 2.94811 -7.81675e-20)
(3.91318 2.56844 -8.03213e-20)
(2.45998 2.19521 -1.62471e-19)
(1.02546 1.54101 0)
(-0.888635 1.18972 -5.91904e-22)
(-2.29213 2.28087 0)
(-3.59601 3.43976 7.41908e-20)
(-4.47536 3.6641 1.16004e-21)
(-5.14031 3.72659 6.51495e-20)
(-5.71094 3.65217 -6.10355e-20)
(-6.15376 3.58359 2.5887e-21)
(-6.5489 3.44533 0)
(-6.89618 3.14722 -4.54967e-20)
(-7.25231 2.68779 -4.36543e-20)
(-7.6403 2.18327 -7.64357e-20)
(-8.0416 1.76216 0)