/*--------------------------------*- C++ -*----------------------------------*\
| =========                 |                                                 |
| \\      /  F ield         | OpenFOAM: The Open Source CFD Toolbox           |
|  \\    /   O peration     | Version:  2112                                  |
|   \\  /    A nd           | Website:  www.openfoam.com                      |
|    \\/     M anipulation  |                                                 |
\*---------------------------------------------------------------------------*/
FoamFile
{
    version     2.0;
    format      ascii;
    arch        "LSB;label=32;scalar=64";
    class       volScalarField;
    location    "0.04";
    object      ddt0(kU);
}
// * * * * * * * * * * * * * * * * * * * * * * * * * * * * * * * * * * * * * //

dimensions      [0 2 -3 0 0 0 0];

internalField   nonuniform List<scalar> 
12225
(
0.000177579
-0.0101226
-0.0450185
-0.119228
-0.242319
-0.418962
-0.651224
-0.940369
-1.28828
-1.69842
-2.17493
-2.7183
-3.31853
-3.93971
-4.51756
-4.88627
-4.98044
-4.42345
-0.000151103
0.00480039
0.0189202
0.0412996
0.0695645
0.102026
0.138149
0.178858
0.226612
0.285007
0.357994
0.449023
0.560388
0.69367
0.849579
1.03173
1.23628
1.41934
-8.48855e-05
-0.000688212
-0.00377146
-0.0117267
-0.0258816
-0.0460337
-0.0706638
-0.0974032
-0.123388
-0.14534
-0.159464
-0.161353
-0.146192
-0.109539
-0.0493425
0.0318224
0.117162
0.171825
-5.33373e-05
-0.000557662
-0.0024187
-0.0068663
-0.0150979
-0.0279893
-0.0461446
-0.0700648
-0.100294
-0.137434
-0.181921
-0.233514
-0.290459
-0.348546
-0.400358
-0.436346
-0.447316
-0.432978
-2.14191e-05
-0.000261615
-0.00131447
-0.00379755
-0.00836267
-0.0156239
-0.0261178
-0.0403266
-0.0587122
-0.0817146
-0.109664
-0.142548
-0.179571
-0.218543
-0.255202
-0.283238
-0.295091
-0.289366
-3.62713e-06
-0.00010388
-0.000728785
-0.00217974
-0.00480214
-0.00898408
-0.0150932
-0.0234779
-0.034492
-0.0485065
-0.065892
-0.0869453
-0.111701
-0.1396
-0.168968
-0.19636
-0.216438
-0.222133
2.44423e-06
-7.15052e-06
-0.000360452
-0.00123634
-0.00282878
-0.00537334
-0.00909271
-0.0142007
-0.0209269
-0.029534
-0.0403301
-0.0536716
-0.0699275
-0.0893897
-0.11208
-0.137413
-0.16406
-0.1885
3.4702e-06
5.88182e-05
-0.000103675
-0.000611646
-0.00157086
-0.00311775
-0.00538615
-0.00850887
-0.0126402
-0.0179762
-0.0247792
-0.0334113
-0.0443594
-0.0582508
-0.0758293
-0.0978876
-0.125423
-0.158214
2.6073e-06
0.000103257
7.69326e-05
-0.000175852
-0.000708694
-0.00159636
-0.00291713
-0.00475114
-0.007202
-0.0104213
-0.0146409
-0.0202191
-0.0276925
-0.0378348
-0.0517063
-0.0707041
-0.0968663
-0.131237
1.09567e-06
0.000132942
0.000203457
0.000128054
-0.000118354
-0.00056979
-0.00126496
-0.00224627
-0.00358049
-0.00538509
-0.00786168
-0.011344
-0.0163569
-0.0236866
-0.0344555
-0.0501965
-0.0731565
-0.104402
-1.44508e-07
0.000153698
0.000293158
0.000340022
0.000282258
0.000111931
-0.000181183
-0.000611245
-0.00121514
-0.00207779
-0.00336283
-0.00535484
-0.00851174
-0.0135257
-0.021388
-0.0334335
-0.0515664
-0.0762581
-3.4945e-07
0.000168955
0.000355211
0.000481872
0.000540033
0.000534662
0.00047227
0.000357446
0.00017659
-0.000124872
-0.000668585
-0.00167622
-0.00350892
-0.00670839
-0.0120371
-0.0204746
-0.033367
-0.0504986
-1.35515e-06
0.00017907
0.00040196
0.00059112
0.000736053
0.000847212
0.000940972
0.00103492
0.00113454
0.00121405
0.00119584
0.000927794
0.000158792
-0.00147991
-0.00448768
-0.00944469
-0.017109
-0.0267002
-1.27847e-06
0.000188464
0.00044248
0.000686121
0.000905386
0.00111144
0.00132556
0.00157383
0.00187736
0.00223841
0.00262678
0.00296814
0.00313531
0.00295076
0.00219784
0.000699999
-0.00174418
-0.00399409
7.61971e-07
0.000197677
0.000476676
0.000767288
0.00105348
0.00134597
0.00166907
0.00205547
0.0025401
0.00315206
0.00390823
0.00481115
0.00585291
0.00703183
0.00837696
0.0100294
0.0121867
0.0160174
5.15537e-06
0.00020515
0.000500482
0.000829532
0.00117884
0.00156113
0.0020053
0.00255207
0.00325077
0.00415623
0.00532782
0.00683331
0.00875853
0.0112274
0.0144253
0.0186602
0.0243039
0.032283
1.17678e-05
0.000207169
0.000505777
0.000861805
0.00127122
0.00175376
0.00234635
0.00310032
0.00407981
0.00536138
0.00703564
0.00921199
0.012027
0.0156581
0.020338
0.0263844
0.0341439
0.0441544
1.90006e-05
0.000197414
0.000482591
0.000854387
0.00132642
0.00193108
0.00271636
0.00374416
0.00508923
0.00683898
0.00909451
0.0119724
0.0156081
0.0201604
0.0258158
0.0327937
0.0413061
0.0515289
2.23989e-05
0.000164436
0.000413703
0.000787663
0.00132467
0.00207252
0.00308898
0.00444046
0.00619916
0.00844383
0.0112599
0.0147353
0.018958
0.0240168
0.0300027
0.0370006
0.0450684
0.0541391
1.86e-05
0.000117642
0.000327126
0.000701968
0.00130143
0.00218323
0.00340878
0.00504385
0.00714395
0.009765
0.0129601
0.0167783
0.0212603
0.0264344
0.0323164
0.038898
0.0461426
0.0538865
1.10287e-05
7.64035e-05
0.000263438
0.000655889
0.00132365
0.00232838
0.00373203
0.00560275
0.00794868
0.0108096
0.0142345
0.0182307
0.0227898
0.0278996
0.0335298
0.0396213
0.0460898
0.0527329
3.01935e-06
4.60815e-05
0.000229696
0.000658244
0.00140675
0.00253676
0.00410086
0.0061556
0.00880485
0.0119794
0.0156815
0.0198852
0.0245596
0.0296919
0.0352446
0.0411048
0.0471376
0.0531338
-3.76161e-06
2.97074e-05
0.000234883
0.000732214
0.00160179
0.00290149
0.00473187
0.00698069
0.00976652
0.0131175
0.0170817
0.0215645
0.0264589
0.0316688
0.0371657
0.0428855
0.0486698
0.0542871
-7.42789e-06
3.47052e-05
0.000292683
0.000907518
0.00199803
0.00368182
0.00601391
0.00909199
0.0128289
0.0173707
0.0225353
0.0277164
0.033448
0.0396142
0.0458034
0.0519521
0.057977
0.063697
-6.2076e-06
7.40945e-05
0.00044281
0.00123619
0.00258183
0.00461835
0.00743029
0.0111274
0.0156817
0.0210116
0.0271959
0.034821
0.0430513
0.0517588
0.0584269
0.0648005
0.0713905
0.0775554
3.72904e-06
0.000156771
0.00077448
0.00208723
0.00427439
0.00748641
0.0117844
0.0171606
0.0236829
0.0311706
0.0394605
0.0484622
0.0579496
0.0678668
0.0801107
0.0921584
0.103076
0.11262
3.27372e-05
0.000254443
0.000956679
0.0026011
0.00565733
0.0104092
0.0169237
0.0251249
0.0348337
0.0457497
0.0575092
0.0697963
0.0822641
0.0943617
0.105746
0.116272
0.125809
0.133888
8.23054e-05
0.000487697
0.00178371
0.00490362
0.0107128
0.0196304
0.0315259
0.0458406
0.0617498
0.078307
0.0946237
0.109998
0.123825
0.13556
0.1448
0.151336
0.155041
0.155877
0.000108288
-0.00103053
-0.00495639
-0.0116915
-0.0197031
-0.0270871
-0.0321
-0.0336128
-0.0312908
-0.0253064
-0.0160472
-0.00414066
0.010333
0.0275561
0.0476772
0.0701871
0.0943423
0.12022
-0.00011793
0.00812548
0.0356495
0.0910862
0.176642
0.288763
0.420301
0.562633
0.707265
0.847054
0.976705
1.093
1.19405
1.27839
1.34448
1.39125
1.41793
1.42644
-0.809666
-0.926881
-1.0579
-1.17704
-1.3357
-1.81385
-2.09346
-1.93975
-2.63716
-2.50148
-2.54715
-2.57578
-2.62605
-2.71666
-2.84917
-3.02296
-3.22332
-3.46891
-3.07081
-2.28482
-1.00323
0.960182
3.86288
8.01205
13.7897
21.2328
27.542
24.7935
5.99241
-4.75031
-4.90412
-4.9489
-5.70966
-8.85971
-12.9634
-9.37675
0.850061
6.56369
8.91281
8.84331
8.48879
5.91373
2.37267
0.512354
-0.0231248
-6.95809
-35.8313
-99.4221
-83.5871
-73.4717
-61.2897
-48.7495
-36.7434
-25.7228
-15.8888
-7.29573
0.0843783
6.32358
11.5172
15.7718
19.2004
21.9348
24.0875
25.7238
27.0057
26.9291
26.6479
26.292
25.8548
25.3409
24.7596
24.1212
23.4352
22.709
21.9481
21.1549
20.3296
19.47
18.5727
17.6344
16.6527
15.6273
14.5612
13.461
12.3369
11.2024
10.0731
8.96641
7.89963
6.88742
5.94087
5.07097
4.27861
3.52686
2.6527
0.0306549
-1.80185
-2.1216
-2.26243
-2.32967
-2.34746
-2.32752
-2.27861
-2.20791
-2.12121
-2.02294
-1.91617
-1.80279
-1.68368
-1.55902
-1.42852
-1.29179
-1.14858
-0.999072
-0.844063
-0.685062
-0.524267
-0.364784
-0.209318
-0.0640356
0.073222
0.237095
0.363722
0.44943
0.495501
0.506532
0.489596
0.452709
0.404059
0.35104
0.299124
0.251016
0.206295
0.161694
0.112173
0.0525525
-0.0207811
-0.108708
-0.209152
-0.317751
-0.429089
-0.537949
-0.64018
-0.733079
-0.815336
-0.886764
-0.94787
-0.99952
-1.04269
-1.07831
-1.10714
-1.12986
-1.14701
-1.1591
-1.1667
-1.17042
-1.17094
-1.16901
-1.16537
-1.16072
-1.15564
-1.15053
-1.14566
-1.10499
-1.02466
-0.962844
-0.9124
-0.871453
-0.83884
-0.813543
-0.794722
-0.781619
-0.773562
-0.769969
-0.770178
-0.773561
-0.778282
-0.784072
-0.78105
-0.779314
-0.955295
-0.230464
-0.62196
-2.3904
-12.7063
-7.73281
-5.61476
-3.83253
-2.72459
-1.87018
-1.14805
-0.609992
-0.27794
-0.123679
-0.103113
-0.188777
-0.356092
-0.629292
-1.44684
-2.07654
-2.81272
-3.49738
-3.96124
-3.98815
-3.31476
-1.80826
-0.305462
3.9348
13.0221
18.8241
16.107
7.09986
-5.53232
-22.9752
-30.4816
-21.0148
-2.03456
14.2801
20.2557
10.82
-11.1272
-36.2665
-59.7974
-51.0137
-1.32705
0.839845
-6.16041
-10.4827
-5.14625
-0.994471
2.38602
4.77273
6.2298
6.91298
7.00897
6.69586
6.12562
5.41527
4.64511
3.86521
3.10143
2.34932
1.6221
0.943844
0.00643701
0.279467
0.814327
1.42027
2.10689
2.8794
3.73961
4.68449
5.70506
6.78568
7.90352
9.02872
10.125
11.1512
12.0638
12.8201
13.3813
13.7165
13.8052
13.6396
13.2256
12.5822
11.7394
10.7369
9.62141
8.4373
7.22634
6.05275
4.97267
4.02547
3.30059
1.91073
1.18798
0.760025
0.495356
0.362544
0.337396
0.396404
0.51706
0.678801
0.863881
1.05787
1.2497
1.4314
1.59764
1.74522
1.87258
1.97938
2.06611
2.1338
2.1838
2.21765
2.23688
2.24301
2.23738
2.22105
2.19621
2.14649
2.10643
2.06391
2.00614
1.94581
1.88193
1.81392
1.74136
1.66442
1.58355
1.49955
1.41355
1.32674
1.24012
1.15422
1.06913
0.984782
0.901254
0.819084
0.739338
0.663466
0.592987
0.529178
0.473159
0.425134
0.384538
0.350437
0.321744
0.297354
0.276232
0.257474
0.240343
0.224287
0.208931
0.194049
0.179535
0.165374
0.151627
0.138411
0.125889
0.114218
0.103657
0.0947117
0.088391
0.0840959
0.0816919
0.0809552
0.0817131
0.0837776
0.0869679
0.091117
0.096065
0.101646
0.107646
0.113783
0.119347
0.124269
0.123453
0.129018
-0.381991
-0.364798
-3.54746
-15.6782
-13.8458
-6.18428
-1.99935
-0.830267
-0.873311
-1.16231
-1.39644
-1.54444
-1.63764
-1.70068
-1.7418
-1.76362
-1.76572
-1.76783
-1.83998
-2.21648
-2.61651
-3.10004
-3.65127
-4.18509
-4.59419
-4.86614
-5.22148
-4.60091
-0.701095
5.84945
11.2078
10.4217
0.372403
-25.311
-41.2282
-34.463
-15.4496
9.38638
-6.14368
-30.3455
-58.4009
-17.2207
11.087
16.3162
14.4922
8.29148
3.13068
0.483361
-0.230638
-1.07407
-2.02739
-2.99457
-3.79767
-4.29432
-4.43748
-4.2822
-3.94846
-3.56667
-3.23337
-2.99233
-2.84497
-2.77315
-2.7211
-2.68173
-2.35033
-2.07852
-1.69913
-1.18641
-0.53069
0.276231
1.23741
2.3488
3.59814
4.9643
6.41698
7.91707
9.41775
10.8664
12.2078
13.3872
14.3548
15.0685
15.498
15.6266
15.4534
14.9925
14.2714
13.3295
12.2189
10.9814
9.6484
8.32483
7.06335
5.84732
4.46629
3.20239
2.28947
1.57403
1.03223
0.650698
0.413886
0.302474
0.29403
0.364664
0.491075
0.652392
0.831389
1.01494
1.19382
1.36201
1.51595
1.65374
1.7745
1.87801
1.96445
2.03433
2.08844
2.12776
2.15368
2.1675
2.17073
2.1652
2.15211
2.13133
2.10859
2.07236
2.02103
1.96537
1.90569
1.84207
1.77431
1.70214
1.62524
1.54343
1.45692
1.36635
1.2729
1.17816
1.08399
0.992296
0.904831
0.823097
0.748229
0.67976
0.616765
0.572027
0.540333
0.518044
0.502618
0.492085
0.484778
0.479223
0.474123
0.468363
0.461023
0.451395
0.438973
0.423423
0.40448
0.381746
0.354269
0.319638
0.282092
0.244396
0.206627
0.169367
0.133109
0.0982554
0.0651341
0.03401
0.00510324
-0.0213952
-0.0453044
-0.0664309
-0.0845369
-0.0993189
-0.110301
-0.117083
-0.118468
-0.115908
-1.47932
-5.11814
-20.2316
-10.4531
-1.28083
1.69664
1.23206
-0.135711
-1.29368
-2.01061
-2.37878
-2.53499
-2.57928
-2.56809
-2.52618
-2.46395
-2.38936
-2.3121
-2.24239
-2.20678
-2.22608
-2.3291
-2.55741
-2.92864
-3.39832
-3.93909
-4.70315
-5.52598
-5.33403
-3.21465
-0.135817
-1.24672
-14.1556
-43.5098
-58.6548
-56.4686
-35.8309
-7.09229
18.6579
4.68235
9.42026
19.7102
19.3009
12.9008
6.15795
0.358894
-3.73976
-6.27871
-7.82237
-8.81976
-9.25393
-9.10539
-8.42935
-7.39501
-6.24641
-5.2151
-4.4461
-3.97807
-3.77003
-3.74521
-3.82306
-3.94048
-4.0651
-4.14184
-4.15588
-4.07558
-3.86494
-3.49033
-2.92992
-2.17197
-1.21485
-0.0671296
1.25269
2.71673
4.28848
5.92406
7.5739
9.18484
10.7028
12.0756
13.2552
14.1994
14.8744
15.2572
15.338
15.1207
14.6219
13.8735
12.9347
11.8324
10.5661
9.32794
8.1399
6.5197
5.20459
4.02888
2.98944
2.09067
1.33842
0.734593
0.276529
-0.0429832
-0.235486
-0.316502
-0.304792
-0.221015
-0.0858666
0.0818292
0.266515
0.456455
0.64352
0.822511
0.990348
1.14533
1.28657
1.41361
1.52626
1.62454
1.70876
1.77952
1.83759
1.88386
1.91957
1.94588
1.96368
1.97316
1.97723
1.96685
1.94806
1.92301
1.89089
1.85099
1.80266
1.74541
1.67918
1.60442
1.52219
1.43407
1.34198
1.24793
1.15385
1.06124
0.976315
0.910392
0.859381
0.808658
0.761411
0.719223
0.682408
0.650526
0.62273
0.597982
0.575202
0.553354
0.531518
0.50893
0.485014
0.459391
0.431914
0.402745
0.372624
0.343888
0.312795
0.276322
0.232562
0.187894
0.143225
0.0991635
0.0561595
0.0145962
-0.0251972
-0.0629363
-0.0983724
-0.131276
-0.161419
-0.188534
-0.21226
-0.232106
-0.247071
-0.25664
-2.63735
-17.8511
-2.43696
3.08336
2.76347
0.518009
-1.54716
-2.78437
-3.29709
-3.3769
-3.25315
-3.06357
-2.87817
-2.71965
-2.58673
-2.47687
-2.39369
-2.34215
-2.31161
-2.20388
-2.10857
-2.03848
-2.01265
-2.0842
-2.32716
-2.78456
-3.55212
-4.83611
-6.5969
-8.36686
-10.5107
-19.6797
-44.1401
-63.1816
-84.1887
-102.605
63.2478
56.6207
32.4768
22.1521
17.8694
13.7156
7.23942
0.568622
-4.79081
-8.60488
-10.962
-12.172
-12.5247
-12.1517
-11.1286
-9.6524
-8.02782
-6.55277
-5.41221
-4.65459
-4.2359
-4.07971
-4.118
-4.30149
-4.59951
-4.97072
-5.39908
-5.84947
-6.05195
-6.10676
-5.97736
-5.62867
-5.04192
-4.21561
-3.16354
-1.91189
-0.496043
1.04241
2.6584
4.30597
5.94073
7.52153
9.01147
10.3782
11.5928
12.6271
13.4532
14.0441
14.3776
14.4367
14.2108
13.7055
12.9948
12.0532
10.8727
9.79906
8.28004
6.95995
5.7086
4.51309
3.39331
2.37472
1.47797
0.715999
0.0933493
-0.392781
-0.750122
-0.988895
-1.12043
-1.15715
-1.11324
-1.00482
-0.848894
-0.661578
-0.456514
-0.244119
-0.0317568
0.175637
0.374849
0.5638
0.741102
0.905766
1.05708
1.19461
1.31813
1.42772
1.52392
1.60753
1.67938
1.7403
1.79132
1.83345
1.86236
1.88179
1.89226
1.89322
1.88376
1.86295
1.83013
1.78509
1.72828
1.6608
1.58429
1.50072
1.41281
1.32278
1.245
1.16627
1.09019
1.01807
0.951065
0.889845
0.834579
0.784979
0.740405
0.699981
0.662699
0.627522
0.593461
0.55965
0.525387
0.490164
0.453685
0.415878
0.376888
0.336995
0.296279
0.255359
0.216282
0.171116
0.12323
0.0759221
0.029556
-0.0154504
-0.0587434
-0.100026
-0.139049
-0.175598
-0.209479
-0.240497
-0.268427
-0.29297
-0.313586
-0.32991
-3.13532
-1.97511
2.58809
1.00491
-1.88511
-3.89233
-4.67961
-4.64838
-4.24434
-3.75536
-3.31899
-2.98073
-2.73158
-2.54193
-2.39887
-2.31116
-2.28958
-2.33312
-2.39184
-2.44096
-2.47966
-2.4598
-2.33599
-2.11526
-1.91689
-1.99398
-2.62273
-4.15462
-7.21225
-12.4507
-22.2055
-46.9668
-84.844
-109.618
-117.502
101.391
81.9341
47.0485
26.6718
15.3667
7.74907
1.31504
-4.50898
-9.1296
-12.3008
-14.1691
-14.9381
-14.7701
-13.8086
-12.27
-10.4673
-8.72001
-7.2455
-6.12458
-5.33808
-4.82916
-4.5525
-4.49532
-4.66976
-5.09325
-5.74768
-6.59936
-7.39713
-8.28763
-8.65337
-8.73421
-8.49046
-7.91084
-7.01651
-5.85238
-4.47767
-2.95773
-1.35762
0.26276
1.85236
3.37234
4.79837
6.12038
7.33958
8.46379
9.50126
10.4544
11.3173
12.0672
12.674
13.0951
13.2766
13.1667
12.8793
12.1249
11.2732
9.99699
8.83637
7.65351
6.44748
5.2341
4.039
2.8947
1.83565
0.892475
0.0868664
-0.571388
-1.0843
-1.4628
-1.72221
-1.87782
-1.94261
-1.92754
-1.84369
-1.7037
-1.52151
-1.31067
-1.08265
-0.846216
-0.607699
-0.37162
-0.141286
0.0808008
0.292677
0.492753
0.679722
0.852595
1.01084
1.15436
1.2834
1.3985
1.5005
1.5902
1.66914
1.73246
1.78519
1.82724
1.85797
1.87641
1.88147
1.87232
1.84857
1.81053
1.75929
1.69661
1.62467
1.54591
1.46241
1.37678
1.29128
1.20774
1.12762
1.05197
0.981392
0.916105
0.855955
0.800484
0.749003
0.700666
0.654562
0.609795
0.565567
0.521233
0.476345
0.430657
0.384115
0.336817
0.288994
0.241068
0.193611
0.148113
0.0988678
0.0492065
0.000402553
-0.0469564
-0.0924929
-0.135908
-0.176957
-0.215435
-0.25117
-0.284005
-0.313776
-0.340288
-0.363225
-0.38244
-22.5769
0.492119
0.41682
-3.20097
-5.43209
-5.99367
-5.62782
-4.95734
-4.2869
-3.74462
-3.37966
-3.13791
-2.93803
-2.76764
-2.66663
-2.65619
-2.71663
-2.81707
-2.93375
-3.18743
-3.40941
-3.45391
-3.24318
-2.74677
-2.0421
-1.50162
-1.80091
-3.6601
-8.31904
-18.0006
-39.5486
-79.0081
-97.4196
-119.58
53.3585
94.3565
57.6671
30.038
13.8705
3.85172
-3.1154
-8.38109
-12.347
-15.0498
-16.5818
-17.0492
-16.5687
-15.3567
-13.7308
-12.0191
-10.4638
-9.1815
-8.18459
-7.43646
-6.90742
-6.60876
-6.59606
-6.94375
-7.70962
-8.90273
-10.4853
-12.222
-14.2399
-14.3665
-14.3907
-13.8152
-12.6751
-11.085
-9.19127
-7.14257
-5.0706
-3.08044
-1.24842
0.376689
1.7713
2.93725
3.90182
4.71224
5.42691
6.10419
6.78501
7.4953
8.26271
9.07062
9.8895
10.6806
11.3238
11.7597
12.1244
11.5753
11.0439
10.361
9.51738
8.55708
7.50206
6.37124
5.18763
3.98245
2.79558
1.67132
0.651178
-0.233084
-0.96359
-1.53682
-1.96133
-2.2538
-2.43399
-2.52008
-2.52619
-2.46315
-2.34115
-2.17147
-1.96624
-1.73671
-1.49201
-1.23895
-0.982558
-0.726775
-0.474865
-0.229643
0.00641746
0.231171
0.442873
0.640235
0.822446
0.989194
1.14065
1.27727
1.3997
1.5074
1.60116
1.68195
1.75013
1.80541
1.84696
1.87373
1.88474
1.87946
1.85806
1.82162
1.77135
1.70912
1.6318
1.54937
1.46377
1.37698
1.29076
1.2065
1.12525
1.04767
0.974151
0.904771
0.839365
0.777547
0.718753
0.662306
0.60749
0.553629
0.500159
0.446679
0.392975
0.339018
0.284953
0.231077
0.177826
0.125848
0.0766162
0.0238886
-0.0272501
-0.0765888
-0.123874
-0.168846
-0.21128
-0.250994
-0.287846
-0.321713
-0.352484
-0.380039
-0.404198
-0.424941
-9.30385
1.85677
-2.60503
-5.85089
-6.68393
-6.3678
-5.82793
-5.26343
-4.69671
-4.30957
-4.12588
-3.96453
-3.77097
-3.6255
-3.57883
-3.60476
-3.65293
-3.69721
-3.79754
-4.1672
-4.361
-4.31522
-3.93322
-3.11656
-1.91226
-0.914015
-1.2693
-4.07193
-11.264
-28.1952
-65.0727
-90.3809
-98.6462
-5.42966
79.5815
64.1312
33.6243
13.7604
1.72328
-5.9529
-11.1605
-14.8108
-17.2724
-18.649
-19.0004
-18.4777
-17.3664
-16.0088
-14.6878
-13.567
-12.6939
-12.0441
-11.5804
-11.3072
-11.2992
-11.6888
-12.6131
-14.1383
-16.1882
-18.5148
-20.6596
-22.4143
-23.2525
-22.2729
-20.1304
-17.0645
-13.3995
-9.52034
-5.80139
-2.53832
0.0924355
2.03538
3.32897
4.06964
4.37631
4.37833
4.21271
4.00962
3.88097
3.91277
4.12321
4.49095
5.06091
5.80544
6.6556
7.6855
8.5779
9.60136
9.99589
10.2822
10.3399
10.1677
9.77425
9.19022
8.44111
7.54699
6.52735
5.4074
4.223
3.02108
1.85463
0.774064
-0.181263
-0.987577
-1.63624
-2.13053
-2.48225
-2.7089
-2.83007
-2.86367
-2.82402
-2.72273
-2.57082
-2.37959
-2.15983
-1.92052
-1.66838
-1.40832
-1.14423
-0.879553
-0.617523
-0.361193
-0.113364
0.123506
0.347404
0.55685
0.75094
0.92929
1.09193
1.23909
1.37017
1.4862
1.58798
1.6759
1.74978
1.80894
1.85237
1.87901
1.88816
1.87971
1.85447
1.81539
1.75289
1.68077
1.60164
1.51795
1.43181
1.34495
1.25868
1.17393
1.09132
1.01129
0.934096
0.859865
0.788568
0.720017
0.653875
0.589696
0.526995
0.465324
0.404346
0.343878
0.283913
0.224614
0.166297
0.109439
0.0547858
0.000974696
-0.0519273
-0.103024
-0.151838
-0.198089
-0.24158
-0.282162
-0.319725
-0.354192
-0.385505
-0.413611
-0.438437
-0.46005
1.92513
1.0969
-4.73407
-6.69357
-6.92883
-6.91381
-6.75837
-6.2935
-5.74772
-5.46607
-5.41266
-5.26362
-5.0257
-4.80688
-4.63161
-4.48509
-4.38838
-4.34574
-4.49153
-4.54473
-4.45569
-4.15846
-3.57466
-2.65509
-1.55415
-1.01184
-2.48056
-8.68414
-21.6052
-46.8741
-75.5374
-75.6255
-40.1513
44.0994
59.9204
36.4815
14.695
0.912108
-7.58596
-13.0415
-16.7021
-19.1398
-20.5324
-20.9652
-20.6381
-19.8702
-18.9894
-18.2325
-17.7108
-17.4265
-17.3201
-17.3357
-17.4829
-17.8648
-18.6488
-19.9853
-21.9134
-24.2934
-26.8114
-28.9734
-30.2506
-29.5529
-27.0897
-22.009
-15.4082
-7.79495
0.116824
7.4984
13.5552
17.7066
19.7297
19.782
18.3028
15.8578
12.9641
10.0412
7.41718
5.31181
3.83484
3.02065
2.75424
2.81817
3.17938
3.82054
4.45229
5.49407
6.23604
7.11928
7.93611
8.62162
9.11967
9.40018
9.454
9.29012
8.92236
8.36308
7.6241
6.72177
5.68284
4.54745
3.36768
2.20145
1.10335
0.115781
-0.735692
-1.44084
-1.99954
-2.41753
-2.70525
-2.87749
-2.95143
-2.94362
-2.86858
-2.73922
-2.56767
-2.36494
-2.14005
-1.89954
-1.64799
-1.38895
-1.12561
-0.86118
-0.598914
-0.341988
-0.0933543
0.144425
0.369303
0.57981
0.775062
0.955578
1.11832
1.26504
1.39614
1.51219
1.61353
1.70004
1.77116
1.82591
1.86319
1.88213
1.88248
1.86434
1.82921
1.77087
1.70234
1.6259
1.54407
1.45903
1.37248
1.28555
1.19895
1.11313
1.02841
0.945099
0.863537
0.784036
0.706821
0.631966
0.559376
0.488824
0.420023
0.35272
0.286766
0.222163
0.159073
0.0978249
0.03894
-0.0164703
-0.0724176
-0.125452
-0.175773
-0.22322
-0.267637
-0.308914
-0.346984
-0.381818
-0.413411
-0.441776
-0.466931
-0.489013
10.2372
-0.636183
-5.70336
-7.12436
-7.91909
-8.40092
-8.27496
-7.65756
-7.0558
-6.80779
-6.88265
-6.67345
-6.25361
-5.75262
-5.23154
-4.76224
-4.48365
-4.2275
-3.97094
-3.81983
-3.73066
-3.51898
-3.24423
-2.90451
-2.90805
-4.19221
-7.99038
-17.0777
-33.6704
-54.1873
-62.0445
-46.0708
8.58336
43.1484
35.3244
15.9712
1.11551
-8.2231
-14.096
-17.9841
-20.6019
-22.192
-22.8809
-22.8994
-22.5779
-22.2332
-22.0844
-22.2229
-22.6211
-23.1739
-23.7717
-24.3806
-25.0827
-26.0442
-27.4238
-29.2654
-31.4188
-33.523
-35.0221
-35.4005
-34.1921
-31.7061
-22.5583
-12.437
-0.360741
13.0533
26.7387
39.2901
49.1347
54.9045
55.9301
52.5211
45.8321
37.466
28.7948
20.8018
14.1237
9.0814
5.70593
3.85182
3.21695
3.25068
3.55805
4.27847
4.59698
5.10012
5.61409
6.18563
6.80884
7.44587
8.03646
8.5198
8.84975
9.00057
8.96115
8.72652
8.29387
7.66497
6.85254
5.88504
4.80689
3.67366
2.54424
1.47195
0.496827
-0.358002
-1.08391
-1.68011
-2.14816
-2.49131
-2.71684
-2.83704
-2.86731
-2.82357
-2.72083
-2.57283
-2.39147
-2.18616
-1.96348
-1.7278
-1.4823
-1.22981
-0.973308
-0.715962
-0.461047
-0.211741
0.0290671
0.258939
0.476004
0.679341
0.867262
1.03874
1.19405
1.33354
1.4576
1.56646
1.66004
1.73783
1.79889
1.8421
1.86649
1.87167
1.85829
1.82162
1.76744
1.70127
1.62641
1.54576
1.46165
1.37571
1.28891
1.20168
1.11418
1.0265
0.938861
0.851697
0.765582
0.68113
0.598852
0.519059
0.441842
0.367121
0.294752
0.224624
0.156734
0.0912353
0.0284694
-0.0309348
-0.0883286
-0.143302
-0.195225
-0.243923
-0.289282
-0.331235
-0.369759
-0.404874
-0.436632
-0.465108
-0.490396
-0.512694
13.5992
-2.57227
-6.41018
-8.30132
-9.63381
-10.1021
-9.6836
-8.86334
-8.25544
-7.97437
-8.18527
-7.86045
-7.237
-6.45432
-5.63735
-4.90637
-4.33526
-3.94214
-3.83189
-3.8295
-4.00621
-4.27278
-4.60876
-5.14362
-6.26273
-8.89084
-14.8146
-25.511
-38.5655
-46.9744
-41.7178
-11.5881
21.052
27.6249
15.7817
1.85246
-8.0397
-14.3672
-18.5921
-21.5405
-23.4907
-24.57
-25.0044
-25.1229
-25.2521
-25.6316
-26.3725
-27.4431
-28.6912
-29.9207
-30.999
-31.9301
-32.8495
-33.9483
-35.3732
-37.1321
-39.0079
-40.5039
-40.8941
-39.2974
-35.6308
-28.8122
-17.9561
-4.83571
10.8584
28.7341
47.9362
66.9622
83.4802
94.6193
98.043
93.2317
81.729
66.7473
51.1173
36.7964
24.9565
16.1044
10.2291
6.81448
5.55924
5.79138
6.01845
6.67883
7.16603
7.41686
7.47761
7.46526
7.48918
7.61243
7.84042
8.13342
8.42976
8.66779
8.79781
8.78337
8.59752
8.22109
7.64648
6.88397
5.96481
4.93789
3.86104
2.79114
1.77594
0.848621
0.0264345
-0.685685
-1.28785
-1.77932
-2.15804
-2.42451
-2.58507
-2.65177
-2.63979
-2.56498
-2.44223
-2.28432
-2.10109
-1.89928
-1.6832
-1.4558
-1.21965
-0.977442
-0.732165
-0.487001
-0.245144
-0.00959605
0.217014
0.43266
0.635822
0.824329
0.997466
1.15499
1.29693
1.42346
1.53466
1.63039
1.71015
1.77305
1.81799
1.84388
1.85026
1.83868
1.80029
1.74675
1.68105
1.60652
1.52625
1.44267
1.35735
1.27109
1.18405
1.09606
1.00693
0.916683
0.825718
0.734758
0.64473
0.556557
0.47097
0.388417
0.309068
0.232917
0.159899
0.0900113
0.0233911
-0.039584
-0.0994209
-0.156348
-0.209963
-0.26003
-0.306441
-0.349155
-0.388192
-0.423617
-0.455536
-0.484083
-0.509419
-0.531791
13.0506
-4.0074
-7.4469
-9.91796
-11.3054
-11.3916
-10.5967
-9.68036
-9.1748
-9.09564
-9.0874
-8.81169
-8.19408
-7.35131
-6.47273
-5.74654
-5.30985
-5.2341
-5.04784
-5.17017
-5.51208
-6.01399
-6.70895
-7.85252
-10.0688
-14.252
-20.8316
-28.6683
-34.8104
-33.9758
-18.6914
3.59512
15.2671
12.1878
2.01171
-7.44731
-14.0441
-18.5872
-21.9128
-24.3129
-25.8642
-26.7346
-27.2297
-27.6965
-28.4276
-29.5954
-31.2036
-33.0733
-34.9053
-36.4126
-37.4491
-38.0628
-38.4674
-38.971
-39.8621
-41.2438
-42.8859
-44.205
-44.3922
-42.7048
-37.6271
-30.1136
-20.3426
-8.41239
5.84361
22.6927
42.3656
64.7422
88.3482
109.425
122.48
124.031
113.851
96.2945
76.157
56.7539
40.199
27.4548
18.6754
12.9515
10.3669
9.70461
10.0971
10.8402
11.4205
11.5936
11.337
10.7746
10.0887
9.44935
8.97001
8.69335
8.59943
8.62745
8.70017
8.74257
8.69105
8.4959
8.12293
7.55784
6.81121
5.91873
4.93379
3.91525
2.91594
1.97543
1.11755
0.351823
-0.321414
-0.903629
-1.39276
-1.78336
-2.07126
-2.25804
-2.35213
-2.36681
-2.31742
-2.21896
-2.08444
-1.92378
-1.74376
-1.54864
-1.34129
-1.12412
-0.899625
-0.670586
-0.440016
-0.210995
0.0135188
0.230908
0.439268
0.635911
0.819314
0.988499
1.14292
1.28233
1.40666
1.5158
1.60953
1.6873
1.74823
1.79124
1.81535
1.81971
1.80447
1.76526
1.71072
1.64407
1.56887
1.48834
1.40493
1.32016
1.23464
1.14831
1.06071
0.971358
0.880035
0.786989
0.692979
0.599139
0.506732
0.416887
0.330419
0.247778
0.169122
0.0944542
0.0237792
-0.0427642
-0.105147
-0.164455
-0.219943
-0.27153
-0.319142
-0.362763
-0.402443
-0.438287
-0.470446
-0.499108
-0.524493
-0.546886
10.1224
-4.86217
-8.7837
-11.5878
-12.7397
-12.2663
-11.0322
-9.95674
-9.44779
-9.40577
-9.50297
-9.44684
-9.1159
-8.55933
-7.91451
-7.32716
-6.93971
-6.83972
-6.7561
-6.93695
-7.38867
-8.15411
-9.37263
-11.2966
-14.1946
-18.1154
-22.6393
-26.5421
-26.7098
-19.2361
-6.51425
3.296
5.29534
0.253765
-7.22387
-13.5403
-18.2167
-21.8353
-24.664
-26.7007
-28.0019
-28.8057
-29.4638
-30.3316
-31.6741
-33.578
-35.8879
-38.2262
-40.1313
-41.2488
-41.4685
-40.968
-40.1887
-39.7294
-40.1013
-41.4133
-43.2332
-44.7668
-45.2196
-43.765
-39.8004
-33.141
-25.7157
-17.4702
-8.60668
1.39041
13.5707
29.9473
52.6611
81.0213
107.03
123.683
125.374
113.803
95.8485
75.8531
57.2365
41.788
30.1129
22.1464
17.5129
15.4679
15.1175
15.5788
16.1345
16.3267
15.9692
15.0972
13.8826
12.5471
11.2941
10.2669
9.53188
9.08247
8.85752
8.76576
8.70936
8.60038
8.36974
7.97231
7.39145
6.64144
5.76378
4.81586
3.856
2.9314
2.0725
1.29335
0.595703
-0.0243425
-0.569354
-1.03637
-1.41806
-1.70772
-1.90413
-2.01305
-2.04576
-2.01627
-1.93879
-1.8257
-1.68652
-1.52772
-1.35345
-1.16649
-0.969168
-0.763864
-0.553179
-0.339929
-0.127012
0.0827877
0.287246
0.483477
0.669383
0.843377
1.00434
1.15152
1.28445
1.40283
1.50638
1.59471
1.66723
1.72304
1.76113
1.78057
1.78106
1.75912
1.7176
1.66062
1.59199
1.51546
1.43428
1.35087
1.26662
1.182
1.09674
1.01018
0.92158
0.830468
0.7369
0.64156
0.54567
0.450733
0.358219
0.269291
0.184691
0.104767
0.0296152
-0.0407328
-0.105888
-0.167848
-0.225372
-0.278612
-0.327564
-0.372242
-0.412721
-0.449132
-0.481662
-0.510543
-0.536041
-0.558476
6.74853
-5.68494
-10.1525
-13.1271
-13.9257
-12.8469
-11.1308
-9.82378
-9.22787
-9.1358
-9.23913
-9.32589
-9.30889
-9.19722
-9.04942
-8.92926
-8.84074
-8.6154
-8.73175
-9.10349
-9.76733
-10.7704
-12.1762
-14.0452
-16.3896
-19.0418
-21.2783
-21.4204
-17.8923
-11.5999
-5.59443
-2.57307
-3.78766
-8.26741
-13.4496
-17.8789
-21.5718
-24.6893
-27.1454
-28.8571
-29.9405
-30.702
-31.5335
-32.7981
-34.7035
-37.1868
-39.8654
-42.1408
-43.4381
-43.4439
-42.2281
-40.2666
-38.3689
-37.4224
-37.9525
-39.7807
-42.0854
-43.8584
-44.2853
-42.6978
-39.6391
-33.3447
-27.6457
-22.2013
-17.6606
-14.1204
-11.4269
-7.41621
3.12428
27.3032
56.1245
85.4494
104.606
109.211
101.507
86.8718
70.234
54.6549
41.6171
31.7168
25.037
21.2545
19.7047
19.5358
19.9107
20.1764
19.9474
19.1031
17.7255
16.0144
14.2079
12.522
11.1127
10.0588
9.36142
8.95819
8.74718
8.61355
8.45183
8.18038
7.74936
7.14462
6.38684
5.52356
4.61452
3.7154
2.86654
2.08943
1.38946
0.762218
0.200828
-0.297684
-0.729684
-1.0871
-1.36257
-1.55386
-1.66534
-1.7067
-1.69042
-1.62928
-1.53447
-1.41457
-1.27545
-1.12096
-0.953787
-0.776173
-0.590392
-0.39889
-0.204279
-0.00921377
0.184001
0.372485
0.553828
0.726041
0.887557
1.03719
1.17407
1.29755
1.40711
1.5023
1.58257
1.64725
1.69545
1.72617
1.7386
1.73312
1.70425
1.65797
1.5973
1.52599
1.4478
1.3659
1.28254
1.19894
1.11541
1.03154
0.946503
0.859404
0.769564
0.676828
0.58173
0.485467
0.389673
0.296067
0.20612
0.120859
0.0408373
-0.0337301
-0.102786
-0.167018
-0.226688
-0.28169
-0.332079
-0.377922
-0.419323
-0.45644
-0.489483
-0.518711
-0.544426
-0.566973
3.95726
-6.57939
-11.5836
-14.6574
-15.0809
-13.3896
-11.1355
-9.50938
-8.7671
-8.59186
-8.61422
-8.63816
-8.6237
-8.60455
-8.63621
-8.78487
-9.13616
-9.39635
-9.92852
-10.6156
-11.4889
-12.576
-13.8963
-15.428
-17.014
-18.2244
-18.3962
-17.0993
-14.6258
-11.8046
-9.60928
-9.1282
-10.9622
-14.3553
-18.0184
-21.4466
-24.5995
-27.318
-29.3882
-30.7745
-31.6733
-32.4305
-33.4348
-35.072
-37.4203
-40.1974
-42.7623
-44.3461
-44.401
-42.8408
-40.0895
-37.0126
-34.7189
-34.1393
-35.5123
-38.1692
-40.8681
-42.4883
-42.4875
-40.4988
-36.3271
-31.628
-27.6499
-23.6498
-20.0138
-18.078
-19.8075
-24.1271
-26.2928
-19.6231
0.0659385
30.2208
60.768
81.4559
88.3836
84.1578
73.7396
61.1925
48.9577
38.4107
30.3373
25.0214
22.231
21.3254
21.478
21.9107
22.0539
21.6058
20.5081
18.8777
16.9278
14.899
13.0089
11.4176
10.2096
9.38982
8.89505
8.61721
8.43237
8.22682
7.91515
7.4497
6.82296
6.06308
5.22209
4.35919
3.5249
2.75176
2.05313
1.42788
0.867763
0.364737
-0.0837613
-0.473624
-0.79703
-1.04731
-1.22262
-1.327
-1.36905
-1.35976
-1.31025
-1.23016
-1.12683
-1.00535
-0.869124
-0.720638
-0.562038
-0.395473
-0.22322
-0.047636
0.12907
0.304153
0.475142
0.63986
0.796472
0.943478
1.07968
1.20412
1.31601
1.41466
1.49942
1.56962
1.62448
1.6631
1.68461
1.68817
1.67346
1.63808
1.58619
1.5212
1.44697
1.36716
1.28475
1.20174
1.1191
1.03695
0.954755
0.87165
0.786645
0.69893
0.608163
0.514688
0.419588
0.324513
0.231329
0.141749
0.0570564
-0.0219811
-0.0950082