/*--------------------------------*- C++ -*----------------------------------*\
| =========                 |                                                 |
| \\      /  F ield         | OpenFOAM: The Open Source CFD Toolbox           |
|  \\    /   O peration     | Version:  2112                                  |
|   \\  /    A nd           | Website:  www.openfoam.com                      |
|    \\/     M anipulation  |                                                 |
\*---------------------------------------------------------------------------*/
FoamFile
{
    version     2.0;
    format      ascii;
    arch        "LSB;label=32;scalar=64";
    class       volVectorField;
    location    "0.04";
    object      U;
}
// * * * * * * * * * * * * * * * * * * * * * * * * * * * * * * * * * * * * * //

dimensions      [0 1 -1 0 0 0 0];

internalField   nonuniform List<vector> 
12225
(
(9.77398 -0.130281 0)
(9.32036 -0.104218 0)
(8.84723 -0.0577772 0)
(8.36965 -0.0222027 0)
(7.90942 0.0016786 0)
(7.47302 0.0166998 0)
(7.05847 0.026164 0)
(6.66308 0.0323823 0)
(6.28444 0.036735 0)
(5.91948 0.0401395 0)
(5.56405 0.0433 0)
(5.21318 0.0467994 0)
(4.86112 0.051155 0)
(4.50118 0.0568567 0)
(4.12607 0.0644541 0)
(3.72554 0.0742496 0)
(3.29599 0.0886276 0)
(2.79685 0.100039 0)
(10.0984 0.120727 0)
(10.3003 0.199255 0)
(10.433 0.201833 0)
(10.5038 0.193534 0)
(10.5313 0.185646 0)
(10.5235 0.178503 0)
(10.4839 0.172865 0)
(10.4166 0.169176 0)
(10.3252 0.167461 0)
(10.2122 0.167789 0)
(10.079 0.170439 0)
(9.92517 0.175883 0)
(9.74926 0.184797 0)
(9.54804 0.198086 0)
(9.31674 0.217002 0)
(9.04701 0.243035 0)
(8.73249 0.279009 0)
(8.34547 0.32814 0)
(10.0073 0.0375787 0)
(10.0484 0.0399978 0)
(10.0949 0.0308778 0)
(10.1395 0.037407 0)
(10.1863 0.0512597 0)
(10.235 0.0654905 0)
(10.2822 0.0791515 0)
(10.3254 0.0926719 0)
(10.3634 0.106414 0)
(10.3953 0.120885 0)
(10.4205 0.136863 0)
(10.4379 0.15536 0)
(10.4467 0.177655 0)
(10.4457 0.205334 0)
(10.4335 0.240584 0)
(10.4072 0.285803 0)
(10.3662 0.345828 0)
(10.3003 0.42298 0)
(10.0042 0.0259983 0)
(10.0265 0.0548236 0)
(10.0493 0.072384 0)
(10.0631 0.0886012 0)
(10.0732 0.101553 0)
(10.0838 0.110443 0)
(10.0949 0.117244 0)
(10.1058 0.123776 0)
(10.1166 0.131039 0)
(10.1273 0.139766 0)
(10.138 0.150769 0)
(10.1487 0.165023 0)
(10.1597 0.183742 0)
(10.1715 0.208448 0)
(10.1851 0.241275 0)
(10.2023 0.284677 0)
(10.2255 0.342817 0)
(10.2627 0.41834 0)
(10.0033 0.0230179 0)
(10.0216 0.0546123 0)
(10.0408 0.0683478 0)
(10.0518 0.0764887 0)
(10.0582 0.0839113 0)
(10.0636 0.0908198 0)
(10.068 0.0977675 0)
(10.0705 0.105543 0)
(10.071 0.114615 0)
(10.0698 0.125378 0)
(10.0672 0.138402 0)
(10.0631 0.154479 0)
(10.058 0.174629 0)
(10.0526 0.200139 0)
(10.048 0.232661 0)
(10.0465 0.274186 0)
(10.0505 0.326846 0)
(10.0689 0.393706 0)
(10.0024 0.0199526 0)
(10.0166 0.0487487 0)
(10.0331 0.062348 0)
(10.0441 0.0718049 0)
(10.0511 0.0818859 0)
(10.0569 0.091761 0)
(10.0616 0.101071 0)
(10.0642 0.110486 0)
(10.0648 0.120699 0)
(10.0635 0.13229 0)
(10.0606 0.145929 0)
(10.056 0.162442 0)
(10.0503 0.182809 0)
(10.0438 0.208177 0)
(10.0378 0.239857 0)
(10.034 0.279332 0)
(10.0348 0.327617 0)
(10.0452 0.386803 0)
(10.0017 0.017179 0)
(10.0127 0.0437874 0)
(10.0268 0.0589347 0)
(10.0375 0.0698981 0)
(10.0446 0.0805625 0)
(10.0504 0.0905602 0)
(10.0552 0.0998196 0)
(10.0583 0.109201 0)
(10.0598 0.119541 0)
(10.0597 0.131454 0)
(10.0583 0.145555 0)
(10.0559 0.162571 0)
(10.0528 0.183341 0)
(10.0498 0.208793 0)
(10.048 0.239901 0)
(10.049 0.277636 0)
(10.0552 0.322378 0)
(10.0701 0.375016 0)
(10.0013 0.0149713 0)
(10.0098 0.0396879 0)
(10.0218 0.0556278 0)
(10.0317 0.0671764 0)
(10.0388 0.0778359 0)
(10.0446 0.0879978 0)
(10.0494 0.0977565 0)
(10.053 0.107809 0)
(10.0553 0.118878 0)
(10.0563 0.131512 0)
(10.0565 0.146247 0)
(10.0561 0.163704 0)
(10.0556 0.184579 0)
(10.0558 0.209588 0)
(10.0579 0.239395 0)
(10.0636 0.274529 0)
(10.0747 0.314895 0)
(10.0942 0.360597 0)
(10.0009 0.0132213 0)
(10.0077 0.0360797 0)
(10.0177 0.0522078 0)
(10.0269 0.0642154 0)
(10.0339 0.0751091 0)
(10.0396 0.0856504 0)
(10.0447 0.0959586 0)
(10.0488 0.10655 0)
(10.0518 0.118071 0)
(10.0539 0.131059 0)
(10.0555 0.146008 0)
(10.057 0.163451 0)
(10.0589 0.183935 0)
(10.062 0.207966 0)
(10.0675 0.23592 0)
(10.0768 0.267958 0)
(10.0915 0.303633 0)
(10.1141 0.342656 0)
(10.0007 0.0118021 0)
(10.006 0.0328872 0)
(10.0145 0.0488681 0)
(10.0229 0.06124 0)
(10.0298 0.0723701 0)
(10.0356 0.0831554 0)
(10.0409 0.0937969 0)
(10.0454 0.104725 0)
(10.0493 0.116524 0)
(10.0525 0.1297 0)
(10.0556 0.144683 0)
(10.0589 0.16189 0)
(10.063 0.181707 0)
(10.0687 0.204433 0)
(10.077 0.230194 0)
(10.0892 0.258871 0)
(10.1065 0.289797 0)
(10.1308 0.322463 0)
(10.0006 0.0106257 0)
(10.0048 0.0300733 0)
(10.012 0.0456693 0)
(10.0196 0.0582162 0)
(10.0264 0.0694825 0)
(10.0324 0.0803905 0)
(10.0379 0.0912382 0)
(10.043 0.102397 0)
(10.0476 0.114361 0)
(10.052 0.127571 0)
(10.0565 0.142377 0)
(10.0615 0.15908 0)
(10.0677 0.177917 0)
(10.0756 0.199013 0)
(10.0863 0.222299 0)
(10.1007 0.247464 0)
(10.1196 0.273733 0)
(10.1446 0.300496 0)
(10.0005 0.00969266 0)
(10.004 0.0277398 0)
(10.0102 0.0428241 0)
(10.0173 0.055363 0)
(10.0239 0.0666664 0)
(10.03 0.077606 0)
(10.0359 0.0885376 0)
(10.0415 0.0997847 0)
(10.0469 0.111754 0)
(10.0523 0.124815 0)
(10.058 0.139246 0)
(10.0645 0.155252 0)
(10.0722 0.172949 0)
(10.0819 0.192328 0)
(10.0942 0.213187 0)
(10.1099 0.235109 0)
(10.1297 0.257289 0)
(10.1545 0.27911 0)
(10.0004 0.00889083 0)
(10.0034 0.0256398 0)
(10.0089 0.0400802 0)
(10.0155 0.0524451 0)
(10.022 0.0636906 0)
(10.0282 0.0745783 0)
(10.0344 0.0854811 0)
(10.0405 0.0966869 0)
(10.0467 0.108524 0)
(10.053 0.12129 0)
(10.0599 0.13519 0)
(10.0677 0.150344 0)
(10.0768 0.166768 0)
(10.0879 0.184351 0)
(10.1014 0.202804 0)
(10.1179 0.221656 0)
(10.1379 0.240125 0)
(10.1621 0.257633 0)
(10.0003 0.00807455 0)
(10.0029 0.0234232 0)
(10.0078 0.0370183 0)
(10.0139 0.0490058 0)
(10.0203 0.0600443 0)
(10.0268 0.0707474 0)
(10.0333 0.0814716 0)
(10.04 0.0924679 0)
(10.047 0.103985 0)
(10.0544 0.116235 0)
(10.0624 0.129347 0)
(10.0715 0.143354 0)
(10.0819 0.158187 0)
(10.0941 0.173653 0)
(10.1084 0.189415 0)
(10.1253 0.20499 0)
(10.145 0.219675 0)
(10.1678 0.23296 0)
(10.0003 0.00722358 0)
(10.0026 0.0210545 0)
(10.0069 0.033585 0)
(10.0127 0.0449351 0)
(10.0191 0.0555395 0)
(10.0258 0.0658549 0)
(10.0328 0.0761863 0)
(10.0402 0.0867376 0)
(10.048 0.0976786 0)
(10.0564 0.109136 0)
(10.0655 0.121161 0)
(10.0756 0.133714 0)
(10.0871 0.146662 0)
(10.1 0.15977 0)
(10.1147 0.172693 0)
(10.1314 0.184992 0)
(10.15 0.196088 0)
(10.1709 0.205579 0)
(10.0003 0.00630757 0)
(10.0023 0.0184531 0)
(10.0064 0.0296578 0)
(10.012 0.0400501 0)
(10.0184 0.0499131 0)
(10.0255 0.0595577 0)
(10.033 0.0692113 0)
(10.041 0.079019 0)
(10.0497 0.0890772 0)
(10.0589 0.0994353 0)
(10.069 0.110078 0)
(10.08 0.120916 0)
(10.092 0.131785 0)
(10.1053 0.142448 0)
(10.1198 0.1526 0)
(10.1357 0.161889 0)
(10.1527 0.169892 0)
(10.1709 0.176335 0)
(10.0002 0.00527389 0)
(10.0023 0.0154717 0)
(10.0062 0.0250193 0)
(10.0118 0.0340651 0)
(10.0184 0.0427958 0)
(10.0258 0.0514012 0)
(10.0339 0.0600214 0)
(10.0426 0.0687371 0)
(10.0519 0.0775816 0)
(10.062 0.0865449 0)
(10.0727 0.0955673 0)
(10.0841 0.104537 0)
(10.0964 0.113295 0)
(10.1095 0.121638 0)
(10.1233 0.129336 0)
(10.1379 0.136143 0)
(10.1529 0.141799 0)
(10.1685 0.146143 0)
(10.0003 0.00403559 0)
(10.0023 0.0118732 0)
(10.0063 0.0193269 0)
(10.0121 0.0265604 0)
(10.0191 0.0336968 0)
(10.0269 0.0408306 0)
(10.0356 0.04802 0)
(10.0449 0.0552851 0)
(10.0549 0.0626102 0)
(10.0654 0.0699467 0)
(10.0765 0.0772153 0)
(10.0881 0.0843094 0)
(10.1002 0.0911006 0)
(10.1128 0.0974474 0)
(10.1256 0.103204 0)
(10.1387 0.108234 0)
(10.1518 0.112411 0)
(10.165 0.115668 0)
(10.0003 0.00244788 0)
(10.0025 0.00724884 0)
(10.0069 0.0119762 0)
(10.0131 0.016809 0)
(10.0206 0.0218156 0)
(10.0291 0.0270045 0)
(10.0384 0.0323615 0)
(10.0483 0.0378582 0)
(10.0588 0.043446 0)
(10.0697 0.0490553 0)
(10.081 0.054602 0)
(10.0926 0.0599938 0)
(10.1044 0.0651364 0)
(10.1163 0.069939 0)
(10.1282 0.0743212 0)
(10.1401 0.0782188 0)
(10.1518 0.0815871 0)
(10.1633 0.084405 0)
(10.0003 0.000794911 0)
(10.0029 0.00242348 0)
(10.0078 0.00431239 0)
(10.0148 0.0066851 0)
(10.0231 0.00955273 0)
(10.0323 0.0128331 0)
(10.0422 0.0164485 0)
(10.0528 0.0203332 0)
(10.0637 0.0244138 0)
(10.075 0.0286077 0)
(10.0865 0.0328324 0)
(10.0981 0.0370117 0)
(10.1098 0.0410767 0)
(10.1213 0.0449676 0)
(10.1328 0.0486352 0)
(10.144 0.052045 0)
(10.155 0.0551842 0)
(10.1656 0.0580538 0)
(10.0004 -0.000737423 0)
(10.0033 -0.00199899 0)
(10.009 -0.00258198 0)
(10.0168 -0.00223999 0)
(10.0259 -0.00107944 0)
(10.0358 0.000712213 0)
(10.0464 0.00302054 0)
(10.0575 0.00575985 0)
(10.069 0.00882138 0)
(10.0806 0.012086 0)
(10.0924 0.0154502 0)
(10.1042 0.0188326 0)
(10.1159 0.0221647 0)
(10.1275 0.0254021 0)
(10.1389 0.0285138 0)
(10.15 0.0314749 0)
(10.1609 0.0342743 0)
(10.1714 0.0369013 0)
(10.0004 -0.00233206 0)
(10.0039 -0.00651834 0)
(10.0106 -0.00941328 0)
(10.0195 -0.0108067 0)
(10.0295 -0.0110683 0)
(10.0402 -0.0105502 0)
(10.0515 -0.00937618 0)
(10.0632 -0.00760711 0)
(10.0751 -0.00535045 0)
(10.0871 -0.00273471 0)
(10.0991 0.000128266 0)
(10.111 0.00314591 0)
(10.1228 0.00624515 0)
(10.1343 0.00935331 0)
(10.1456 0.0124192 0)
(10.1566 0.015422 0)
(10.1673 0.0183617 0)
(10.1775 0.0212411 0)
(10.0005 -0.00402707 0)
(10.0049 -0.0112244 0)
(10.0128 -0.0162821 0)
(10.023 -0.0191326 0)
(10.0339 -0.0205061 0)
(10.0453 -0.0209213 0)
(10.0573 -0.0205682 0)
(10.0697 -0.0195939 0)
(10.0822 -0.0181668 0)
(10.0948 -0.0164141 0)
(10.1072 -0.0144149 0)
(10.1195 -0.0122316 0)
(10.1316 -0.00992012 0)
(10.1434 -0.00753971 0)
(10.1549 -0.00513271 0)
(10.1661 -0.00271758 0)
(10.177 -0.000306822 0)
(10.1875 0.00206968 0)
(10.0007 -0.00593035 0)
(10.0062 -0.0162238 0)
(10.0159 -0.0230756 0)
(10.0274 -0.0272155 0)
(10.0393 -0.0298328 0)
(10.0515 -0.0311526 0)
(10.0641 -0.0311458 0)
(10.0769 -0.0300813 0)
(10.0897 -0.0283319 0)
(10.1024 -0.0261525 0)
(10.115 -0.0236876 0)
(10.1274 -0.0210397 0)
(10.1396 -0.0182987 0)
(10.1515 -0.0155202 0)
(10.163 -0.0127425 0)
(10.1742 -0.00999722 0)
(10.185 -0.00730389 0)
(10.1953 -0.00464731 0)
(10.001 -0.00819735 0)
(10.0082 -0.021896 0)
(10.0199 -0.0294714 0)
(10.0326 -0.0338087 0)
(10.0454 -0.037662 0)
(10.0587 -0.0410161 0)
(10.0724 -0.0432456 0)
(10.0862 -0.0443155 0)
(10.0997 -0.0444733 0)
(10.1129 -0.043915 0)
(10.1259 -0.0427762 0)
(10.1385 -0.0411841 0)
(10.1509 -0.0392597 0)
(10.1628 -0.0371015 0)
(10.1744 -0.034788 0)
(10.1856 -0.0323788 0)
(10.1965 -0.0299028 0)
(10.2071 -0.0274094 0)
(10.0014 -0.0106486 0)
(10.0114 -0.0291677 0)
(10.0259 -0.0378812 0)
(10.0394 -0.0403432 0)
(10.0517 -0.040922 0)
(10.0647 -0.0407848 0)
(10.0786 -0.0400785 0)
(10.0926 -0.039027 0)
(10.1065 -0.0377804 0)
(10.1201 -0.0363577 0)
(10.1334 -0.0347559 0)
(10.1465 -0.0329989 0)
(10.1591 -0.0311239 0)
(10.1714 -0.0291659 0)
(10.1833 -0.0271576 0)
(10.1948 -0.0251217 0)
(10.206 -0.0230862 0)
(10.2165 -0.0209925 0)
(10.0016 -0.0123573 0)
(10.0143 -0.0338553 0)
(10.0332 -0.0505501 0)
(10.0496 -0.064043 0)
(10.0637 -0.0734995 0)
(10.0779 -0.0785892 0)
(10.0928 -0.0805069 0)
(10.1079 -0.0805423 0)
(10.123 -0.0794031 0)
(10.1382 -0.0774437 0)
(10.1533 -0.0749185 0)
(10.1682 -0.072035 0)
(10.1829 -0.0689466 0)
(10.1973 -0.0657634 0)
(10.2113 -0.0625705 0)
(10.2248 -0.0594304 0)
(10.238 -0.0563924 0)
(10.2507 -0.0533767 0)
(10.002 -0.0187655 0)
(10.0193 -0.0155681 0)
(10.045 -0.0048261 0)
(10.0728 -0.00521224 0)
(10.103 -0.0116786 0)
(10.1359 -0.0183553 0)
(10.1699 -0.0239748 0)
(10.2036 -0.0286828 0)
(10.2364 -0.032471 0)
(10.268 -0.0352815 0)
(10.298 -0.0371719 0)
(10.3263 -0.0382672 0)
(10.3526 -0.0386979 0)
(10.377 -0.0385904 0)
(10.3994 -0.0380626 0)
(10.4199 -0.0372699 0)
(10.439 -0.036296 0)
(10.456 -0.0354743 0)
(10.0502 -0.0871721 0)
(10.1769 -0.155019 0)
(10.282 -0.163221 0)
(10.3641 -0.159976 0)
(10.4304 -0.155345 0)
(10.4819 -0.149313 0)
(10.5183 -0.142589 0)
(10.5409 -0.135921 0)
(10.5523 -0.12948 0)
(10.5548 -0.123224 0)
(10.5504 -0.117132 0)
(10.5407 -0.111214 0)
(10.5272 -0.10548 0)
(10.511 -0.0999483 0)
(10.4931 -0.0946349 0)
(10.4741 -0.0896333 0)
(10.4545 -0.0849251 0)
(10.4354 -0.0810885 0)
(9.88207 0.102956 0)
(9.63586 0.0817165 0)
(9.35216 0.0433497 0)
(9.04799 0.0135709 0)
(8.74738 -0.00680726 0)
(8.4614 -0.0193898 0)
(8.19311 -0.0265628 0)
(7.94385 -0.0302712 0)
(7.71439 -0.0317146 0)
(7.50473 -0.0316372 0)
(7.31415 -0.0305531 0)
(7.14158 -0.0288282 0)
(6.98582 -0.0267185 0)
(6.84565 -0.0244063 0)
(6.71975 -0.0220241 0)
(6.6069 -0.019704 0)
(6.50534 -0.0175189 0)
(6.41512 -0.015878 0)
(-0.251353 0.484233 -4.59188e-20)
(-0.724441 0.481045 4.01097e-20)
(-1.19144 0.357471 0)
(-1.63124 0.165959 0)
(-1.99302 -0.0772542 0)
(-2.1546 -0.337372 -3.46403e-20)
(-1.97357 -0.57022 0)
(-1.54325 -0.809101 0)
(-0.883833 -1.01458 0)
(-0.0905439 -1.14553 0)
(0.782215 -1.18147 2.29721e-20)
(1.69331 -1.13785 0)
(2.59204 -1.04624 0)
(3.42707 -0.929301 0)
(4.16817 -0.799897 0)
(4.8035 -0.665298 1.93421e-20)
(5.32894 -0.529478 0)
(5.74309 -0.393113 0)
(6.04106 -0.254505 0)
(6.22281 -0.108384 0)
(6.27914 0.0550312 0)
(6.17744 0.237662 0)
(5.92102 0.429841 0)
(5.51297 0.614059 2.58407e-20)
(4.95687 0.769535 -2.6367e-20)
(4.26584 0.872799 2.74313e-20)
(3.46894 0.897793 2.94662e-20)
(2.60885 0.820441 0)
(1.74733 0.608343 0)
(1.01427 0.250269 -4.62482e-20)
(0.508366 -0.0276151 -5.43505e-20)
(0.149601 0.0251089 0)
(-0.160025 0.154014 0)
(-0.470171 0.170067 -5.71112e-20)
(-0.790137 0.0870376 0)
(-1.05991 -0.0588558 0)
(-1.16365 -0.238959 5.33448e-20)
(-1.03643 -0.446248 0)
(-0.676628 -0.663372 5.22347e-20)
(-0.0792845 -0.838252 9.60554e-20)
(0.678623 -0.842374 0)
(1.42332 -0.667276 0)
(1.98738 -0.391045 0)
(2.24433 -0.110352 0)
(2.17559 0.109045 0)
(1.9917 0.234585 6.78349e-20)
(1.89082 0.196265 6.83905e-20)
(1.91537 -0.0463699 6.65918e-20)
(1.97174 -0.380847 0)
(1.93129 -0.553783 -6.70624e-20)
(1.68229 -0.384641 0)
(1.11612 0.0285166 8.02891e-20)
(0.216883 0.441629 8.27461e-20)
(-0.880555 0.711481 0)
(-2.05209 0.8684 0)
(-3.24284 0.939063 0)
(-4.40279 0.944067 6.14089e-20)
(-5.49473 0.902421 0)
(-6.49445 0.83059 0)
(-7.38882 0.741733 0)
(-8.17305 0.645549 0)
(-8.84808 0.548644 0)
(-9.41834 0.455146 0)
(-9.89004 0.367411 0)
(-10.2699 0.28671 0)
(-10.5647 0.213695 -7.8719e-20)
(-10.7805 0.148728 0)
(-10.9235 0.0924285 0)
(-10.9979 0.0459949 7.93909e-20)
(-11.0085 0.00950644 7.86773e-20)
(-10.9719 -0.0198955 0)
(-10.8914 -0.0460942 -7.57898e-20)
(-10.7697 -0.0708002 7.36795e-20)
(-10.6071 -0.0949801 0)
(-10.4034 -0.119071 -6.80786e-20)
(-10.1579 -0.14331 0)
(-9.86951 -0.167783 0)
(-9.537 -0.192422 5.59811e-20)
(-9.15951 -0.216989 0)
(-8.73674 -0.241056 -4.51681e-20)
(-8.26939 -0.264007 0)
(-7.75953 -0.285069 3.19698e-20)
(-7.2109 -0.303381 2.44831e-20)
(-6.62903 -0.318094 1.64471e-20)
(-6.02114 -0.328495 1.58372e-20)
(-5.39574 -0.334115 2.05866e-21)
(-4.76213 -0.334811 0)
(-4.12971 -0.330778 0)
(-3.50731 -0.322515 0)
(-2.90268 -0.310728 7.87716e-20)
(-2.3222 -0.2962 9.85055e-20)
(-1.77085 -0.279619 -1.18242e-19)
(-1.2523 -0.261436 0)
(-0.768606 -0.241902 1.57438e-19)
(-0.317819 -0.221416 1.7679e-19)
(0.0981064 -0.201942 1.81686e-19)
(0.479765 -0.181003 0)
(0.831675 -0.161967 0)
(1.15207 -0.144579 0)
(1.44302 -0.128653 1.49509e-19)
(1.70672 -0.114111 0)
(1.94515 -0.100867 0)
(2.16023 -0.0888198 -1.32145e-19)
(2.35379 -0.0778723 0)
(2.52751 -0.067929 0)
(2.68297 -0.0588993 -1.19007e-19)
(2.82161 -0.050699 0)
(2.94476 -0.0432509 0)
(3.05365 -0.036485 1.09054e-19)
(3.14939 -0.0303383 1.06307e-19)
(3.233 -0.024754 0)
(3.30542 -0.0196816 -1.01523e-19)
(3.36752 -0.0150758 0)
(3.42007 -0.0108957 9.75589e-20)
(3.46382 -0.00710405 0)
(3.4994 -0.0036704 9.42809e-20)
(3.52746 -0.000531907 9.2865e-20)
(3.54836 0.00230735 0)
(3.56285 0.00506571 0)
(3.57044 0.00847161 0)
(3.56932 0.0125025 0)
(3.56027 0.0165316 0)
(3.54441 0.0200122 0)
(3.52298 0.0226224 0)
(3.49715 0.0244055 8.55374e-20)
(3.46793 0.0254709 -8.50125e-20)
(3.43618 0.0259461 0)
(3.40261 0.0259766 0)
(3.36781 0.0257013 0)
(3.3322 0.0252404 0)
(3.29608 0.0246915 -1.661e-19)
(3.25966 0.0241257 0)
(3.2231 0.0235847 1.64929e-19)
(3.18651 0.0230796 -1.644e-19)
(3.15002 0.0225926 0)
(3.11377 0.0220829 0)
(3.07797 0.0214969 0)
(3.0429 0.0207817 1.62533e-19)
(3.00887 0.0198989 1.62102e-19)
(2.97621 0.0188347 0)
(2.94526 0.0176046 1.61242e-19)
(2.9163 0.0162507 1.60804e-19)
(2.88954 0.0148325 -1.60355e-19)
(2.8651 0.013415 0)
(2.84301 0.0120571 0)
(2.82319 0.0108029 -1.58925e-19)
(2.80552 0.00967801 0)
(2.78984 0.00869005 0)
(2.77595 0.00783243 0)
(2.76366 0.00708912 0)
(2.7528 0.00644023 1.56292e-19)
(2.7432 0.00586675 1.55743e-19)
(2.7347 0.00535145 0)
(2.72715 0.00488165 1.54636e-19)
(2.72041 0.00445221 0)
(2.71432 0.00405889 0)
(2.70877 0.0036985 1.52968e-19)
(2.7036 0.00337116 0)
(2.6987 0.0030793 1.51866e-19)
(2.69392 0.00282701 0)
(2.68912 0.0026198 0)
(2.68415 0.00246477 1.50258e-19)
(2.67887 0.00237081 0)
(2.67308 0.00234952 1.49238e-19)
(2.66659 0.00241655 0)
(2.65915 0.00259293 0)
(2.65048 0.0029036 0)
(2.64019 0.00337419 -1.47437e-19)
(2.62784 0.00403746 0)
(2.61282 0.00493807 1.46759e-19)
(2.59435 0.006139 0)
(2.57141 0.00772642 0)
(2.54268 0.00981893 0)
(2.50626 0.012578 0)
(2.45992 0.0162349 0)
(2.39951 0.0210565 0)
(2.32352 0.0276204 0)
(2.21422 0.0356491 -2.98367e-19)
(2.10718 0.0491425 0)
(1.81889 0.0544464 0)
(-0.0696302 1.28489 1.35937e-19)
(-0.262834 1.25152 -1.30832e-19)
(-0.420497 1.14211 0)
(-0.502109 0.93058 9.63968e-20)
(-0.478981 0.604851 0)
(-0.0399589 0.115163 5.49484e-20)
(0.379634 -0.753096 -9.18073e-20)
(1.02665 -1.59495 -6.74269e-20)
(1.75282 -2.23153 0)
(2.51347 -2.59888 -4.09663e-20)
(3.27493 -2.71832 -1.2435e-20)
(3.99763 -2.64917 0)
(4.65805 -2.45864 0)
(5.24787 -2.20001 0)
(5.76438 -1.90798 0)
(6.20698 -1.60287 -1.55738e-20)
(6.57683 -1.29534 0)
(6.87496 -0.989383 4.63236e-20)
(7.10559 -0.68431 0)
(7.26835 -0.376196 0)
(7.37242 -0.0575929 -5.2537e-20)
(7.43944 0.27725 0)
(7.45561 0.627537 5.08802e-20)
(7.40181 0.987453 -2.04089e-20)
(7.25601 1.34534 1.95651e-20)
(6.99289 1.67944 -1.8934e-20)
(6.58857 1.95453 -1.87735e-20)
(6.02685 2.12509 0)
(5.30333 2.13727 0)
(4.44836 1.94946 2.37585e-20)
(3.49728 1.60074 -3.06393e-20)
(2.50896 1.19754 0)
(1.66075 0.857834 0)
(1.0624 0.679939 4.5623e-20)
(0.655479 0.617363 0)
(0.448483 0.48378 0)
(0.389493 0.106879 -6.16859e-20)
(0.461111 -0.483029 0)
(0.746322 -1.14941 4.60894e-20)
(1.19729 -1.68385 -6.83554e-20)
(1.69499 -1.78341 0)
(2.10826 -1.41411 0)
(2.34147 -0.795147 -1.2897e-19)
(2.39472 -0.158611 -1.35239e-19)
(2.37219 0.227301 -1.29653e-19)
(2.29202 0.189396 6.43673e-20)
(2.10291 -0.0954443 -6.59518e-20)
(1.57099 -0.069842 -2.15558e-19)
(0.47413 0.504301 1.48582e-19)
(-0.964163 1.1849 6.04898e-20)
(-2.45383 1.73955 0)
(-3.92233 2.15529 -3.96231e-20)
(-5.30017 2.40124 4.56363e-20)
(-6.53982 2.48315 0)
(-7.6204 2.43435 0)
(-8.53362 2.29114 0)
(-9.28093 2.08779 -3.80508e-20)
(-9.87418 1.8534 0)
(-10.3319 1.61031 1.06762e-19)
(-10.6756 1.37382 0)
(-10.9271 1.15307 1.23551e-19)
(-11.106 0.952371 0)
(-11.229 0.772645 -1.3833e-19)
(-11.3095 0.612732 0)
(-11.3578 0.470404 1.49536e-19)
(-11.3812 0.343111 -7.94289e-20)
(-11.385 0.228515 0)
(-11.3722 0.125026 -1.57951e-19)
(-11.3447 0.0321298 -7.71976e-20)
(-11.3014 -0.0508347 -7.65426e-20)
(-11.2272 -0.12622 0)
(-11.119 -0.197278 -7.64541e-20)
(-10.9745 -0.26603 -7.13939e-20)
(-10.7927 -0.333889 0)
(-10.5722 -0.401744 6.56481e-20)
(-10.3117 -0.47014 -1.27187e-19)
(-10.0098 -0.539274 0)
(-9.66463 -0.608925 -5.34344e-20)
(-9.27495 -0.678375 0)
(-8.83993 -0.746335 1.31867e-19)
(-8.3598 -0.81094 0)
(-7.8363 -0.869836 -9.364e-20)
(-7.27301 -0.92039 -2.28248e-20)
(-6.67554 -0.96001 1.88806e-20)
(-6.05142 -0.986522 2.1521e-20)
(-5.40968 -0.998529 -4.57064e-21)
(-4.76018 -0.995648 0)
(-4.11287 -0.978561 0)
(-3.47697 -0.948889 0)
(-2.86047 -0.908907 -2.09858e-19)
(-2.26971 -0.861211 -8.92567e-20)
(-1.70934 -0.808375 1.07002e-19)
(-1.18247 -0.752662 0)
(-0.690723 -0.695819 1.38762e-19)
(-0.233174 -0.6392 -1.57758e-19)
(0.190344 -0.585278 -1.60921e-19)
(0.580321 -0.531389 0)
(0.938685 -0.481259 0)
(1.26651 -0.434858 0)
(1.5659 -0.392044 -1.37954e-19)
(1.83898 -0.352728 0)
(2.08777 -0.316746 2.55371e-19)
(2.31419 -0.283891 3.70697e-19)
(2.52006 -0.253939 -2.38808e-19)
(2.70707 -0.22666 0)
(2.87679 -0.20183 -1.11919e-19)
(3.03064 -0.179232 0)
(3.16995 -0.158663 -2.1226e-19)
(3.29592 -0.139939 1.03181e-19)
(3.40965 -0.122889 1.00698e-19)
(3.51215 -0.107357 0)
(3.60434 -0.0932034 2.89525e-19)
(3.68705 -0.0803019 -1.88975e-19)
(3.76105 -0.0685377 -9.28049e-20)
(3.82703 -0.0578062 0)
(3.88562 -0.0480118 -8.95731e-20)
(3.93738 -0.0390417 -2.64252e-19)
(3.98299 -0.0308063 0)
(4.0227 -0.0230842 -1.71089e-19)
(4.05791 -0.0154222 -1.68819e-19)
(4.09123 -0.00793582 -1.66597e-19)
(4.1228 -0.00113411 0)
(4.15202 0.00469933 0)
(4.17835 0.00972629 0)
(4.20163 0.0139003 7.93562e-20)
(4.22164 0.017265 7.86171e-20)
(4.23834 0.0199171 0)
(4.25184 0.0219643 1.54191e-19)
(4.26237 0.0235036 1.52876e-19)
(4.2702 0.024623 0)
(4.27568 0.0254009 1.50561e-19)
(4.27915 0.0259007 2.98923e-19)
(4.281 0.0261679 -1.48493e-19)
(4.28155 0.0262289 -1.47502e-19)
(4.28114 0.0260919 0)
(4.28003 0.0257499 0)
(4.27846 0.0251869 0)
(4.27662 0.0243857 -1.44204e-19)
(4.27465 0.0233368 1.43457e-19)
(4.2727 0.0220457 2.85483e-19)
(4.27088 0.0205364 -1.42045e-19)
(4.26934 0.0188512 1.414e-19)
(4.2682 0.0170463 1.40733e-19)
(4.26761 0.0151845 0)
(4.26771 0.0133274 0)
(4.26862 0.0115286 -1.38921e-19)
(4.27046 0.00982972 0)
(4.2733 0.00825879 0)
(4.27721 0.00683183 2.74289e-19)
(4.2822 0.00555583 0)
(4.28825 0.00443109 1.35993e-19)
(4.29533 0.00345541 -1.35403e-19)
(4.30336 0.00262732 0)
(4.31225 0.00194681 1.34267e-19)
(4.32189 0.00141555 0)
(4.33214 0.00102812 0)
(4.34285 0.000777643 -1.32569e-19)
(4.35387 0.000657804 2.64026e-19)
(4.36502 0.000662454 -1.31467e-19)
(4.37613 0.000786015 0)
(4.38702 0.00102407 0)
(4.39751 0.00137446 1.29864e-19)
(4.40742 0.00183868 0)
(4.41657 0.00242195 1.28857e-19)
(4.42478 0.0031314 0)
(4.43187 0.00398044 0)
(4.43763 0.00500165 0)
(4.44186 0.00624519 1.2709e-19)
(4.44431 0.00778106 0)
(4.44467 0.00969825 -1.26351e-19)
(4.44259 0.0121205 0)
(4.43757 0.0152156 0)
(4.42897 0.0192185 2.50978e-19)
(4.41584 0.0244435 -2.50651e-19)
(4.39706 0.0313847 0)
(4.37023 0.04053 0)
(4.33464 0.0533653 0)
(4.27885 0.0689395 7.54202e-19)
(4.22306 0.0967723 0)
(4.06246 0.112932 -5.0625e-19)
(0.154138 1.24266 -5.69019e-22)
(0.307027 1.52075 1.6953e-19)
(0.427632 1.20913 0)
(0.600788 0.717514 -1.80453e-19)
(0.908 0.0364124 0)
(1.51401 -1.02232 0)
(2.28697 -2.19518 4.16237e-22)
(3.05701 -3.1594 4.19633e-20)
(3.74335 -3.75366 4.01717e-20)
(4.32868 -3.98151 2.97145e-20)
(4.82343 -3.93048 0)
(5.24544 -3.69921 0)
(5.61176 -3.36495 -4.07147e-20)
(5.93472 -2.97927 -8.66961e-20)
(6.22083 -2.57287 9.27173e-20)
(6.47235 -2.16219 0)
(6.68948 -1.75476 1.05383e-19)
(6.87151 -1.35312 -4.54283e-20)
(7.01736 -0.956859 0)
(7.1262 -0.564508 1.21954e-19)
(7.19594 -0.175452 5.34059e-20)
(7.22964 0.215258 -1.25487e-19)
(7.23437 0.616901 -5.17168e-20)
(7.22019 1.03884 0)
(7.19327 1.48545 1.13335e-19)
(7.14863 1.95004 1.07784e-19)
(7.06558 2.4087 0)
(6.90779 2.81694 9.70662e-20)
(6.62692 3.11169 0)
(6.17718 3.22705 9.17926e-20)
(5.53645 3.12104 4.16829e-20)
(4.73728 2.79889 0)
(3.8894 2.32589 0)
(3.11479 1.80054 0)
(2.50022 1.28169 0)
(2.11317 0.718972 0)
(1.93183 0.070386 0)
(1.90217 -0.653332 1.51856e-19)
(2.03607 -1.5269 -1.97552e-19)
(2.27433 -2.23661 0)
(2.4359 -2.29551 0)
(2.4239 -1.69125 0)
(2.24111 -0.83583 -7.9068e-21)
(1.96871 -0.155382 1.44429e-19)
(1.52284 0.299363 3.03588e-19)
(0.679884 0.768426 -3.03614e-19)
(-0.684036 1.48786 -1.26163e-19)
(-2.25988 2.27512 9.01621e-20)
(-3.84648 2.97032 9.07287e-21)
(-5.30452 3.46811 7.46801e-20)
(-6.55673 3.76019 0)
(-7.57719 3.87161 7.3654e-20)
(-8.36109 3.81792 1.67822e-20)
(-8.93524 3.62381 0)
(-9.34101 3.32794 0)
(-9.62334 2.97255 -9.58885e-20)
(-9.82468 2.59505 0)
(-9.98003 2.22407 0)
(-10.1144 1.87822 1.36732e-19)
(-10.2425 1.56706 2.59787e-19)
(-10.3706 1.29328 -1.26112e-19)
(-10.4984 1.05508 0)
(-10.6224 0.84826 1.41754e-19)
(-10.7373 0.667728 0)
(-10.8374 0.5083 1.65701e-19)
(-10.9176 0.365151 1.56433e-19)
(-10.9735 0.234023 -3.28872e-19)
(-11.0015 0.111188 -1.7074e-19)
(-10.9991 -0.00660982 0)
(-10.965 -0.121681 3.25e-19)
(-10.8993 -0.234548 0)
(-10.8019 -0.345258 4.60765e-19)
(-10.6718 -0.454758 3.00312e-19)
(-10.5078 -0.564143 2.88917e-19)
(-10.3081 -0.67447 -2.75903e-19)
(-10.0706 -0.786519 3.87115e-19)
(-9.79307 -0.900615 0)
(-9.47266 -1.01643 0)
(-9.1068 -1.13279 -2.06434e-19)
(-8.69338 -1.24747 -2.7078e-19)
(-8.23139 -1.35722 0)
(-7.72155 -1.45783 6.11296e-20)
(-7.16689 -1.54451 0)
(-6.57305 -1.61254 -1.08398e-19)
(-5.94822 -1.65791 1.04331e-20)
(-5.30261 -1.67805 -9.66147e-21)
(-4.64755 -1.67228 -2.10624e-20)
(-3.9944 -1.64189 0)
(-3.3536 -1.58984 8.87389e-20)
(-2.73392 -1.52024 6.59149e-21)
(-2.14206 -1.43767 0)
(-1.58265 -1.34661 0)
(-1.05852 -1.25115 0)
(-0.570908 -1.15484 -2.61819e-19)
(-0.118622 -1.06034 0)
(0.299064 -0.969123 0)
(0.683306 -0.881892 0)
(1.03553 -0.800246 0)
(1.35762 -0.724431 0)
(1.65179 -0.65445 -2.55165e-19)
(1.92022 -0.590176 0)
(2.16495 -0.531353 -2.4213e-19)
(2.38794 -0.477652 -2.35005e-19)
(2.59097 -0.428709 2.28251e-19)
(2.77573 -0.384154 0)
(2.94375 -0.343618 2.15898e-19)
(3.09643 -0.306753 0)
(3.23506 -0.273228 2.05072e-19)
(3.36081 -0.24274 -2.00203e-19)
(3.47478 -0.21501 -5.85771e-19)
(3.57793 -0.189784 0)
(3.67117 -0.16683 -5.61714e-19)
(3.75533 -0.14594 -1.83058e-19)
(3.83115 -0.126922 0)
(3.89932 -0.109603 -3.54304e-19)
(3.96048 -0.0938233 -3.48643e-19)
(4.01519 -0.0794392 5.15401e-19)
(4.06402 -0.0662898 0)
(4.10748 -0.0542803 1.67271e-19)
(4.14595 -0.0435378 1.65157e-19)
(4.17982 -0.0340536 4.89222e-19)
(4.20957 -0.025672 0)
(4.23583 -0.0181852 0)
(4.25908 -0.0113005 0)
(4.27948 -0.00510532 1.56106e-19)
(4.29728 0.000342762 0)
(4.3127 0.00507849 0)
(4.3259 0.00914862 -1.5189e-19)
(4.33707 0.0125846 -1.50601e-19)
(4.3464 0.0154226 0)
(4.3541 0.0177063 0)
(4.36037 0.0194796 -2.9443e-19)
(4.36545 0.0207834 0)
(4.36958 0.0216532 2.90556e-19)
(4.373 0.0221179 2.88693e-19)
(4.37592 0.0221989 0)
(4.37857 0.0219121 0)
(4.38111 0.0212704 -2.83822e-19)
(4.3837 0.0202887 -3.06209e-23)
(4.38647 0.0189884 -2.11141e-23)
(4.38953 0.0174013 0)
(4.39297 0.0155706 -5.5627e-19)
(4.39689 0.0135493 0)
(4.40138 0.0113966 0)
(4.40655 0.00917245 0)
(4.41252 0.00693271 2.73045e-19)
(4.41937 0.00472557 0)
(4.42722 0.00259009 -5.41269e-19)
(4.43616 0.000556289 -2.69433e-19)
(4.44624 -0.00135356 0)
(4.45753 -0.00312122 -2.67053e-19)
(4.47003 -0.00473297 0)
(4.48375 -0.0061779 0)
(4.49866 -0.00744768 -7.90391e-19)
(4.51473 -0.00853583 5.24433e-19)
(4.53192 -0.00943062 0)
(4.55017 -0.0101242 5.19479e-19)
(4.56937 -0.0106096 -2.58522e-19)
(4.58941 -0.0108803 0)
(4.61017 -0.0109316 0)
(4.63148 -0.0107597 0)
(4.65317 -0.0103609 -7.61134e-19)
(4.67507 -0.00973098 0)
(4.69699 -0.00886172 -2.51435e-19)
(4.71872 -0.00773271 0)
(4.73999 -0.00631275 0)
(4.76057 -0.00457336 0)
(4.78021 -0.00247697 0)
(4.79868 4.31465e-05 0)
(4.81575 0.00307716 0)
(4.83117 0.00676256 -4.88082e-19)
(4.84467 0.0112949 0)
(4.85598 0.0169569 -2.42538e-19)
(4.86471 0.0241308 7.25049e-19)
(4.87059 0.0334368 0)
(4.87277 0.0454861 0)
(4.87181 0.062168 -4.79424e-19)
(4.86323 0.0826229 -4.79797e-19)
(4.85691 0.117676 4.76744e-19)
(4.81836 0.144782 4.77859e-19)
(0.0939787 0.491817 -2.93155e-19)
(0.294119 0.99242 -2.58963e-19)
(0.460672 0.779778 -1.66275e-19)
(0.871645 -0.0694973 -6.51851e-20)
(1.71104 -1.4915 0)
(2.69196 -2.93994 9.12094e-20)
(3.56099 -4.03142 -4.3222e-20)
(4.21917 -4.65112 0)
(4.67886 -4.8591 -3.42256e-20)
(4.99782 -4.77814 0)
(5.23455 -4.52209 8.8977e-20)
(5.42983 -4.1696 0)
(5.60571 -3.76676 3.97293e-20)
(5.77137 -3.33873 8.61214e-20)
(5.92891 -2.89926 -9.34614e-20)
(6.07707 -2.45583 0)
(6.2131 -2.01217 -1.08649e-19)
(6.33364 -1.56968 0)
(6.43527 -1.12834 0)
(6.51533 -0.68744 -1.28615e-19)
(6.57159 -0.24608 0)
(6.60435 0.196688 -2.07908e-20)
(6.61366 0.64114 0)
(6.6026 1.08797 0)
(6.57926 1.54001 1.90014e-20)
(6.55435 2.00267 -1.1298e-19)
(6.53538 2.4796 -1.23611e-19)
(6.51778 2.96235 -9.86651e-20)
(6.47593 3.41768 0)
(6.36104 3.78291 -1.86574e-19)
(6.11659 3.97568 0)
(5.7064 3.91914 -9.11036e-20)
(5.14389 3.58097 0)
(4.49925 2.99949 0)
(3.87805 2.25258 1.00084e-19)
(3.38016 1.40348 0)
(3.02039 0.508899 -1.19638e-19)
(2.79222 -0.48787 -1.92545e-20)
(2.75799 -1.62156 2.18367e-19)
(2.72773 -2.34379 -2.00498e-19)
(2.41344 -2.09825 0)
(1.84573 -1.14968 0)
(1.06786 0.0464743 -1.80511e-19)
(-0.0270917 1.17911 0)
(-1.38491 2.19355 -1.10883e-19)
(-2.89142 3.13926 8.38341e-20)
(-4.39521 3.94498 6.89214e-20)
(-5.7287 4.5186 0)
(-6.817 4.85069 -5.89408e-20)
(-7.64261 4.95936 -5.92239e-20)
(-8.22319 4.87971 1.56416e-19)
(-8.5979 4.65695 -6.70554e-20)
(-8.81707 4.33143 -7.32964e-20)
(-8.93655 3.94253 0)
(-9.00744 3.52771 0)
(-9.0687 3.11668 9.82543e-20)
(-9.14366 2.72856 0)
(-9.24127 2.37239 0)
(-9.36007 2.04992 -2.51749e-19)
(-9.49294 1.75872 -2.68665e-19)
(-9.63087 1.49473 0)
(-9.76537 1.25371 0)
(-9.88952 1.03194 0)
(-9.99822 0.826358 0)
(-10.088 0.63456 -3.31476e-19)
(-10.1567 0.45461 3.53878e-19)
(-10.203 0.284806 3.44421e-19)
(-10.2258 0.123461 7.09095e-19)
(-10.2247 -0.0311775 0)
(-10.1996 -0.180939 1.18338e-20)
(-10.1502 -0.327564 0)
(-10.0759 -0.472477 -3.22331e-19)
(-9.97577 -0.617164 1.10967e-20)
(-9.84826 -0.763183 -2.97971e-19)
(-9.69134 -0.91206 2.83223e-19)
(-9.5022 -1.06507 1.20472e-20)
(-9.27722 -1.22294 0)
(-9.01205 -1.3855 2.42037e-19)
(-8.70191 -1.55127 2.06859e-19)
(-8.34215 -1.71714 3.8166e-19)
(-7.92907 -1.87818 0)
(-7.46096 -2.02783 -1.46963e-19)
(-6.93911 -2.15841 0)
(-6.36849 -2.26213 1.62093e-19)
(-5.75783 -2.33236 -4.3066e-20)
(-5.11898 -2.36478 1.17125e-20)
(-4.4656 -2.35825 2.01853e-20)
(-3.81156 -2.31485 8.3661e-20)
(-3.16946 -2.23939 -8.47725e-20)
(-2.54957 -2.1384 1.17138e-19)
(-1.95944 -2.01903 0)
(-1.404 -1.88819 -3.48525e-19)