/*--------------------------------*- C++ -*----------------------------------*\
| =========                 |                                                 |
| \\      /  F ield         | OpenFOAM: The Open Source CFD Toolbox           |
|  \\    /   O peration     | Version:  2112                                  |
|   \\  /    A nd           | Website:  www.openfoam.com                      |
|    \\/     M anipulation  |                                                 |
\*---------------------------------------------------------------------------*/
FoamFile
{
    version     2.0;
    format      ascii;
    arch        "LSB;label=32;scalar=64";
    class       volScalarField;
    location    "0.22";
    object      omega;
}
// * * * * * * * * * * * * * * * * * * * * * * * * * * * * * * * * * * * * * //

dimensions      [0 0 -1 0 0 0 0];

internalField   nonuniform List<scalar> 
12225
(
22158.7
31369.2
34374.9
34855.6
34368.8
33524.6
32567.7
31609
30704.9
29883.1
29152.8
28511.1
27947.9
27450.2
27003.8
26606.8
26212.6
25749.8
1460.87
3287.27
4926.1
6278.65
7336.44
8139.42
8738.88
9179.6
9496.87
9718.91
9869.1
9967.09
10029.3
10069.6
10099
10128.8
10193.2
10311.9
112.348
290.512
552.295
872.33
1221.53
1570.64
1897.97
2192.19
2448.55
2668.36
2856.99
3021.67
3169.88
3308.33
3442.19
3576.52
3714.65
3847.91
45.4166
62.604
91.1373
132.779
188.273
256.788
335.342
418.752
502.851
584.587
662.559
736.285
806.061
872.649
936.926
999.743
1061.45
1119.35
40.1901
42.2739
46.0464
51.999
60.4432
71.6099
85.4925
101.561
119.23
137.918
156.912
175.871
194.682
213.39
231.992
250.457
268.715
286.096
39.6584
39.9021
40.4518
41.424
42.8724
44.8435
47.3673
50.4302
53.9819
57.9573
62.2313
66.7277
71.3735
76.0833
80.849
85.6546
90.4092
94.9009
39.6006
39.6125
39.6743
39.8144
40.0514
40.396
40.8607
41.4519
42.1702
43.012
43.9701
45.0346
46.1859
47.39
48.627
49.8762
51.1022
52.2568
39.591
39.5735
39.5663
39.5747
39.6038
39.6559
39.7332
39.8379
39.9713
40.1345
40.328
40.5515
40.803
41.0772
41.367
41.664
41.9601
42.248
39.5868
39.5635
39.5453
39.5334
39.5287
39.5312
39.5403
39.5558
39.5776
39.6058
39.6404
39.6818
39.7302
39.7853
39.8465
39.9128
39.983
40.0554
39.5841
39.5578
39.5361
39.5191
39.5072
39.4999
39.4961
39.4949
39.4958
39.4986
39.503
39.5093
39.5177
39.5287
39.5426
39.5596
39.5797
39.602
39.582
39.5537
39.5295
39.5097
39.4943
39.4829
39.4748
39.4688
39.4645
39.4613
39.4591
39.4578
39.4577
39.4592
39.4625
39.468
39.4755
39.4846
39.5806
39.5507
39.5249
39.503
39.4852
39.471
39.4599
39.4512
39.4441
39.4384
39.4337
39.43
39.4272
39.4255
39.4252
39.4264
39.429
39.4327
39.5795
39.5484
39.5211
39.4976
39.4777
39.4613
39.4477
39.4365
39.427
39.4191
39.4123
39.4067
39.4021
39.3986
39.3961
39.3946
39.3941
39.3942
39.5785
39.5463
39.5176
39.4925
39.4708
39.4523
39.4364
39.4228
39.4109
39.4006
39.3916
39.3838
39.3771
39.3715
39.3669
39.3631
39.3601
39.3575
39.5777
39.5445
39.5146
39.4881
39.4647
39.4443
39.4263
39.4105
39.3964
39.3838
39.3726
39.3624
39.3534
39.3454
39.3382
39.3319
39.3262
39.321
39.5771
39.5431
39.5122
39.4844
39.4596
39.4375
39.4177
39.3999
39.3838
39.3692
39.3557
39.3434
39.332
39.3215
39.3118
39.3027
39.2942
39.2863
39.5767
39.5422
39.5105
39.4817
39.4557
39.4322
39.4109
39.3915
39.3736
39.3571
39.3418
39.3274
39.3138
39.3011
39.289
39.2775
39.2665
39.256
39.5766
39.5417
39.5096
39.4802
39.4533
39.4288
39.4063
39.3856
39.3663
39.3482
39.3312
39.3151
39.2997
39.285
39.2709
39.2574
39.2443
39.2318
39.5767
39.5419
39.5097
39.4801
39.4528
39.4278
39.4046
39.383
39.3628
39.3437
39.3255
39.3081
39.2914
39.2752
39.2595
39.2444
39.2297
39.2155
39.5771
39.5428
39.5109
39.4816
39.4545
39.4296
39.4064
39.3848
39.3644
39.345
39.3264
39.3084
39.2911
39.2742
39.2578
39.2418
39.2262
39.2111
39.5778
39.5441
39.5128
39.4841
39.4575
39.4331
39.4104
39.3891
39.3691
39.35
39.3316
39.3139
39.2966
39.2797
39.2632
39.2471
39.2312
39.2159
39.5787
39.5459
39.5155
39.4875
39.4618
39.4381
39.4163
39.3959
39.3768
39.3587
39.3413
39.3245
39.3082
39.2922
39.2766
39.2613
39.2462
39.2316
39.5799
39.5483
39.519
39.4921
39.4676
39.4455
39.4255
39.4075
39.3912
39.3764
39.3631
39.351
39.34
39.3302
39.3214
39.3137
39.307
39.3016
39.5818
39.5519
39.5247
39.501
39.4818
39.4681
39.4609
39.4608
39.4687
39.4851
39.5105
39.5451
39.5888
39.6414
39.7027
39.7721
39.8493
39.9339
39.5857
39.5644
39.5574
39.5744
39.6261
39.7226
39.8729
40.0845
40.3624
40.7089
41.1235
41.6032
42.1427
42.7355
43.3752
44.0553
44.7704
45.5149
39.6262
39.7467
40.073
40.6969
41.6585
43.0053
44.7796
47.0059
49.6864
52.8015
56.3128
60.1696
64.2961
68.6259
73.1139
77.7228
82.4197
87.1729
40.4885
42.9386
47.9913
56.1203
67.3026
81.3676
98.3584
118.141
140.409
164.714
190.528
217.3
244.407
271.408
298.069
324.248
349.83
374.737
59.5931
102.78
176.115
275.698
398.112
534.368
679.186
827.598
975.109
1117.96
1253.33
1379.32
1495.14
1600.61
1696.02
1782.19
1860.22
1931.7
626.614
1494.48
2386.64
3220.22
3953.66
4580.08
5106.08
5544.29
5907.73
6208.04
6455.17
6657.42
6821.87
6954.51
7060.48
7144.47
7210.8
7263.38
14592.6
22070.4
25345.1
26547.9
26797.8
26617
26240.5
25776.3
25277.1
24771
24274.1
23796.6
23345
22923.4
22533.5
22175.8
21848.3
21550.2
160.039
157.191
154.803
152.791
151.582
151.213
151.643
152.808
154.662
157.224
160.577
164.732
169.451
174.348
179.096
183.237
186.741
189.532
191.541
192.719
193.035
192.481
191.076
188.863
185.914
182.329
178.241
173.794
168.963
164.144
159.899
156.699
154.984
155.01
156.795
160.265
165.505
172.701
182.057
194.114
209.956
230.964
258.014
290.318
325.069
358.854
389.578
416.998
441.929
465.359
488.051
510.509
533.048
555.868
579.098
602.823
627.103
651.98
677.482
703.63
730.441
757.923
786.073
814.879
844.319
874.364
904.977
936.113
967.726
999.763
1032.17
1064.89
1097.87
1131.04
1164.34
1197.7
1231.07
1264.37
1297.53
1330.5
1363.21
1395.58
1427.57
1459.11
1490.15
1520.64
1550.53
1579.78
1608.35
1636.21
1663.35
1689.72
1715.32
1740.12
1764.1
1787.26
1809.57
1831.05
1851.69
1871.5
1890.51
1908.74
1926.21
1942.94
1958.98
1974.34
1989.06
2003.16
2016.67
2029.61
2042
2053.86
2065.21
2076.05
2086.41
2096.27
2105.65
2114.54
2122.93
2130.81
2138.16
2144.94
2151.14
2156.69
2161.55
2165.62
2168.83
2171.13
2172.41
2172.47
2171.09
2168.29
2163.93
2157.76
2149.59
2139.18
2126.29
2110.67
2092.05
2070.16
2044.74
2015.51
1982.21
1944.53
1902.09
1854.42
1800.96
1741.24
1675.01
1602.24
1522.97
1437.43
1346.01
1249.37
1148.42
1044.48
939.248
834.907
734.096
639.898
555.733
485.286
433.08
402.451
394.014
411.609
451.539
510.629
590.876
690.5
805.128
931.748
1067.48
1209.39
1354.84
1500.81
1646.16
1785.65
1930.62
2052.77
189.732
178.208
168.215
159.524
152.268
146.266
141.322
137.266
133.96
131.315
129.291
127.886
127.118
126.996
127.54
128.849
130.803
133.3
136.226
139.456
142.849
146.258
149.527
152.501
155.026
156.953
158.144
158.468
157.696
155.705
152.659
148.885
144.82
140.906
137.515
134.964
133.588
133.801
136.116
141.159
149.647
162.183
178.861
198.854
220.456
241.788
261.655
279.767
296.386
311.916
326.708
341.012
355.005
368.81
382.521
396.206
409.918
423.69
437.544
451.485
465.512
479.61
493.759
507.932
522.099
536.224
550.273
564.21
577.999
591.606
604.997
618.14
631.004
643.561
655.783
667.647
679.132
690.219
700.895
711.15
720.98
730.385
739.372
747.955
756.151
763.989
771.504
778.742
785.759
792.63
799.45
806.33
813.393
820.76
828.528
836.757
845.458
854.602
864.124
873.939
883.956
894.081
904.228
914.318
924.282
934.06
943.598
952.852
961.779
970.342
978.509
986.245
993.519
1000.3
1006.54
1012.22
1017.27
1021.66
1025.32
1028.18
1030.19
1031.24
1031.28
1030.2
1027.93
1024.41
1019.58
1013.37
1005.86
997
986.855
975.329
962.368
947.905
931.895
914.311
895.149
874.441
852.263
828.758
804.153
778.796
753.201
728.085
704.373
683.045
664.637
648.589
633.428
618.064
602.256
586.052
569.546
552.857
536.137
519.578
503.415
487.929
473.444
460.315
448.912
439.688
433.465
431.599
435.344
444.76
457.841
474.802
494.505
516.166
539.599
564.623
591.08
618.834
647.769
677.829
709.077
742.088
779.159
827.147
228.53
202.415
182.338
166.543
154.213
144.541
136.893
130.781
125.836
121.791
118.465
115.745
113.561
111.875
110.689
110.112
110.226
111.076
112.684
115.036
118.081
121.727
125.84
130.241
134.715
139.012
142.872
146.069
148.041
148.387
147.04
144.172
140.161
135.504
130.737
126.409
123.095
121.405
121.956
125.313
131.894
141.81
154.701
169.661
185.397
200.657
214.694
227.373
238.947
249.76
260.092
270.122
279.954
289.647
299.236
308.745
318.187
327.568
336.886
346.129
355.28
364.316
373.21
381.931
390.45
398.735
406.76
414.497
421.924
429.02
435.768
442.153
448.166
453.797
459.044
463.904
468.381
472.483
476.223
479.617
482.689
485.468
487.989
490.296
492.44
494.481
496.487
498.533
500.694
503.039
505.62
508.466
511.579
514.932
518.477
522.144
525.848
529.497
533.001
536.275
539.248
541.86
544.068
545.842
547.161
548.014
548.398
548.315
547.774
546.786
545.367
543.537
541.324
538.758
535.879
532.738
529.395
525.929
522.431
519.005
515.764
512.815
510.233
508.033
506.218
504.733
503.467
502.329
501.029
499.514
497.773
495.806
493.612
491.199
488.579
485.774
482.816
479.75
476.637
473.553
470.594
467.876
465.531
463.696
462.497
462.006
462.188
462.881
463.863
464.995
466.24
467.589
469.037
470.578
472.216
473.953
475.788
477.721
479.784
482.004
484.38
487.018
489.856
493.226
497.096
501.442
506.049
510.993
515.976
520.85
525.573
530.136
534.587
539.001
543.448
548.067
552.958
558.739
565.898
578.071
264.139
220.676
189.72
167.221
150.875
138.905
130.036
123.361
118.238
114.223
111.017
108.425
106.322
104.631
103.314
102.428
102.031
102.195
102.998
104.509
106.776
109.81
113.571
117.957
122.799
127.882
133.045
137.573
140.864
142.465
142.147
139.977
136.294
131.632
126.634
121.994
118.418
116.577
117.027
120.142
126.038
134.538
145.138
157.032
169.251
180.933
191.585
201.143
209.82
217.904
225.636
233.171
240.593
247.937
255.213
262.417
269.537
276.557
283.454
290.204
296.78
303.151
309.287
315.161
320.746
326.017
330.956
335.546
339.776
343.638
347.128
350.247
352.997
355.385
357.421
359.119
360.495
361.568
362.361
362.9
363.213
363.331
363.285
363.109
362.838
362.504
362.141
361.775
361.43
361.123
360.862
360.648
360.477
360.338
360.221
360.111
359.998
359.874
359.731
359.567
359.382
359.179
358.96
358.731
358.499
358.268
358.047
357.842
357.662
357.516
357.411
357.36
357.374
357.464
357.646
357.936
358.351
358.913
359.641
360.554
361.671
363.025
364.634
366.5
368.567
370.771
373.084
375.478
377.93
380.441
383.02
385.675
388.418
391.265
394.232
397.339
400.607
404.061
407.728
411.635
415.812
420.283
425.07
430.183
435.623
441.37
447.388
453.627
460.036
466.578
473.227
479.959
486.737
493.522
500.28
506.987
513.591
519.982
526.177
532.222
537.875
543.307
548.114
551.948
555.264
558.3
560.863
562.815
564.224
565.174
565.587
565.401
564.637
563.361
561.638
559.59
557.286
555.162
553.27
553.072
295.939
232.116
190.682
162.877
144.12
131.328
122.464
116.183
111.604
108.16
105.49
103.374
101.677
100.322
99.2716
98.5819
98.2689
98.3794
98.9804
100.154
101.985
104.546
107.881
111.982
116.869
122.319
127.737
132.616
136.321
138.332
138.368
136.468
132.982
128.499
123.747
119.494
116.458
115.212
116.123
119.324
124.728
132.051
140.823
150.407
160.1
169.315
177.734
185.326
192.25
198.72
204.919
210.969
216.933
222.834
228.669
234.423
240.071
245.585
250.936
256.091
261.02
265.694
270.086
274.173
277.937
281.362
284.441
287.17
289.548
291.582
293.28
294.655
295.724
296.504
297.019
297.292
297.349
297.218
296.929
296.512
295.996
295.412
294.788
294.151
293.527
292.936
292.399
291.928
291.538
291.234
291.024
290.909
290.892
290.974
291.154
291.433
291.811
292.29
292.868
293.546
294.324
295.202
296.18
297.256
298.43
299.702
301.074
302.545
304.119
305.797
307.582
309.477
311.487
313.614
315.865
318.244
320.758
323.413
326.218
329.177
332.296
335.557
338.954
342.486
346.148
349.939
353.861
357.919
362.118
366.471
370.987
375.68
380.561
385.642
390.936
396.456
402.212
408.215
414.474
420.997
427.788
434.847
442.169
449.744
457.558
465.589
473.814
482.199
490.706
499.293
507.931
516.598
525.249
533.817
542.219
550.482
558.606
566.293
573.577
580.777
587.287
593.139
598.178
602.237
605.529
608.278
610.354
611.599
612.106
612.013
611.291
609.885
607.793
605.056
601.73
597.918
593.683
589.357
584.934
581.017
319.931
235.593
186.095
155.349
136.1
123.877
115.936
110.6
106.859
104.114
102.017
100.37
99.061
98.0344
97.2865
96.8652
96.7655
97.0104
97.6483
98.7545
100.422
102.765
106.003
110.065
114.828
120.089
125.363
130.065
133.574
135.388
135.264
133.293
129.886
125.689
121.463
117.951
115.755
115.263
116.638
119.857
124.762
131.08
138.422
146.294
154.183
161.683
168.582
174.865
180.643
186.066
191.266
196.332
201.309
206.211
211.029
215.743
220.325
224.744
228.97
232.971
236.722
240.199
243.382
246.26
248.824
251.072
253.009
254.644
255.99
257.066
257.893
258.497
258.904
259.144
259.247
259.245
259.17
259.051
258.918
258.799
258.719
258.699
258.76
258.914
259.175
259.55
260.043
260.658
261.393
262.247
263.218
264.302
265.496
266.795
268.197
269.698
271.296
272.987
274.77
276.641
278.599
280.642
282.767
284.975
287.266
289.64
292.098
294.644
297.28
300.008
302.832
305.756
308.782
311.915
315.16
318.525
322.001
325.59
329.295
333.121
337.07
341.146
345.353
349.695
354.181
358.817
363.613
368.578
373.722
379.057
384.592
390.341
396.312
402.515
408.96
415.653
422.601
429.808
437.277
445.01
453.006
461.26
469.762
478.499
487.451
496.6
505.931
515.412
525
534.624
544.219
553.803
563.358
572.842
581.931
590.785
599.616
607.906
615.468
622.567
629.101
635.013
640.118
644.261
647.534
650.081
651.841
652.706
652.746
652.09
650.757
648.729
646.011
642.644
638.68
634.22
629.336
624.298
619.111
614.063
333.307
232
177.983
146.922
128.867
118.157
111.569
107.294
104.34
102.173
100.513
99.2072
98.1796
97.404
96.9235
96.7312
96.8184
97.2008
97.9366
99.1453
100.892
103.291
106.463
110.431
115.041
120.005
124.852
129.001
131.886
133.1
132.509
130.31
126.986
123.21
119.692
117.045
115.689
115.828
117.496
120.616
125.036
130.525
136.765
143.366
149.948
156.223
162.045
167.403
172.37
177.049
181.529
185.873
190.113
194.255
198.289
202.196
205.949
209.523
212.891
216.03
218.922
221.554
223.918
226.014
227.846
229.425
230.769
231.899
232.84
233.62
234.27
234.823
235.309
235.761
236.211
236.685
237.211
237.811
238.504
239.305
240.224
241.268
242.441
243.742
245.168
246.717
248.381
250.154
252.029
254.001
256.062
258.207
260.432
262.73
265.1
267.537
270.038
272.602
275.227
277.909
280.649
283.446
286.299
289.21
292.181
295.214
298.313
301.482
304.727
308.052
311.46
314.957
318.549
322.237
326.006
329.853
333.799
337.85
342.015
346.298
350.707
355.248
359.927
364.752
369.734
374.881
380.205
385.716
391.425
397.343
403.482
409.852
416.465
423.329
430.453
437.844
445.506
453.44
461.647
470.125
478.879
487.905
497.198
506.739
516.497
526.42
536.518
546.775
557.163
567.612
577.836
587.972
598.041
608.299
617.782
626.85
635.554
643.74
651.35
658.375
664.779
670.49
675.376
679.308
682.302
684.431
685.675
685.978
685.402
684.058
681.998
679.248
675.837
671.815
667.247
662.234
656.863
651.367
645.757
640.211
334.047
222.752
168.458
139.42
123.662
114.818
109.544
106.128
103.73
101.94
100.557
99.4773
98.6511
98.0988
97.829
97.8097
98.0377
98.5475
99.408
100.723
102.594
105.114
108.34
112.237
116.61
121.116
125.281
128.581
130.563
130.968
129.813
127.406
124.273
121.037
118.282
116.445
115.774
116.356
118.174
121.151
125.157
129.995
135.393
141.043
146.657
152.025
157.044
161.701
166.045
170.143
174.057
177.828
181.48
185.016
188.427
191.699
194.812
197.746
200.487
203.019
205.337
207.438
209.328
211.015
212.518
213.857
215.058
216.151
217.165
218.134
219.089
220.06
221.075
222.158
223.333
224.616
226.021
227.555
229.225
231.03
232.968
235.034
237.22
239.519
241.92
244.415
246.996
249.653
252.379
255.169
258.016
260.915
263.864
266.857
269.894
272.971
276.088
279.242
282.433
285.661
288.926
292.227
295.566
298.946
302.37
305.843
309.37
312.958
316.611
320.337
324.142
328.024
331.958
335.945
340.01
344.162
348.41
352.763
357.229
361.819
366.538
371.395
376.398
381.556
386.881
392.382
398.074
403.967
410.075
416.409
422.981
429.8
436.88
444.234
451.873
459.805
468.037
476.57
485.396
494.49
503.873
513.549
523.519
533.787
544.339
554.929
565.651
576.497
587.475
598.798
609.489
619.958
630.217
640.203
649.741
658.83
667.423
675.451
682.847
689.56
695.543
700.728
705.036
708.362
710.679
712.017
712.374
711.745
710.198
707.84
704.752
700.99
696.614
691.696
686.319
680.601
674.642
668.652
662.651
656.758
321.845
209.757
159.404
134.045
120.987
113.842
109.533
106.645
104.548
102.961
101.745
100.828
100.19
99.8472
99.6761
99.7115
100.002
100.61
101.614
103.103
105.157
107.824
111.088
114.829
118.796
122.62
125.865
128.116
129.079
128.669
127.041
124.568
121.752
119.109
117.064
115.894
115.734
116.616
118.513
121.355
125.027
129.348
134.09
139.003
143.868
148.532
152.917
157.013
160.85
164.473
167.925
171.237
174.424
177.49
180.432
183.239
185.903
188.412
190.759
192.943
194.966
196.836
198.566
200.176
201.687
203.127
204.524
205.908
207.309
208.754
210.268
211.874
213.589
215.428
217.4
219.511
221.762
224.152
226.675
229.324
232.089
234.96
237.927
240.979
244.106
247.299
250.55
253.851
257.197
260.582
264.001
267.453
270.933
274.44
277.972
281.528
285.108
288.713
292.342
295.996
299.677
303.386
307.123
310.894
314.702
318.552
322.451
326.406
330.426
334.503
338.605
342.738
346.927
351.182
355.512
359.925
364.43
369.038
373.76
378.607
383.588
388.711
393.985
399.422
405.034
410.835
416.84
423.065
429.523
436.232
443.199
450.426
457.927
465.724
473.829
482.256
491.022
500.146
509.634
519.324
529.292
539.551
550.099
560.969
572.428
583.622
594.836
606.09
617.326
628.457
639.31
649.886
660.139
669.997
679.371
688.196
696.409
703.957
710.776
716.795
721.96
726.238
729.547
731.791
732.924
732.959
731.923
729.854
726.838
723.002
718.459
713.3
707.62
701.524
695.123
688.552
681.927
675.443
669.117
663.03
296.997
195.14
152.294
131.464
120.818
114.84
111.045
108.379
106.398
104.896
103.766
102.951
102.443
102.094
101.931
102.012
102.399
103.16
104.362
106.064
108.295
111.034
114.187
117.565
120.886
123.807
125.984
127.147
127.168
126.105
124.199
121.826
119.412
117.342
115.899
115.251
115.47
116.567
118.513
121.239
124.63
128.523
132.726
137.039
141.299
145.392
149.261
152.899
156.325
159.57
162.667
165.638
168.497
171.25
173.898
176.437
178.865
181.181
183.384
185.48
187.478
189.392
191.238
193.038
194.815
196.596
198.406
200.269
202.208
204.243
206.392
208.665
211.071
213.614
216.298
219.119
222.073
225.154
228.353
231.66
235.063
238.554
242.12
245.753
249.444
253.183
256.964
260.78
264.626
268.499
272.394
276.308
280.24
284.188
288.151
292.129
296.125
300.139
304.176
308.237
312.325
316.443
320.592
324.775
328.998
333.263
337.583
341.937
346.278
350.616
354.986
359.4
363.868
368.4
373.001
377.68
382.447
387.314
392.296
397.407
402.656
408.048
413.593
419.306
425.204
431.302
437.618
444.171
450.983
458.081
465.491
473.167
481.104
489.348
497.915
506.817
516.072
525.73
536.021
546.314
556.824
567.597
578.615
589.854
601.278
612.732
624.192
635.602
646.879
657.931
668.67
679.039
688.971
698.403
707.246
715.411
722.849
729.502
735.278
740.081
743.846
746.564
748.134
748.471
747.56
745.448
742.211
737.937
732.749
726.797
720.234
713.209
705.861
698.323
690.727
683.222
675.926
669.032
662.536
656.524
264.354
181.11
147.315
130.878
122.2
116.99
113.439
110.826
108.846
107.343
106.226
105.453
104.893
104.515
104.387
104.566
105.108
106.063
107.467
109.329
111.61
114.226
117.03
119.803
122.281
124.194
125.316
125.519
124.806
123.327
121.349
119.206
117.222
115.666
114.719
114.482
114.995
116.256
118.231
120.843
123.982
127.502
131.244
135.057
138.819
142.449
145.909
149.193
152.317
155.305
158.18
160.963
163.665
166.295
168.856
171.35
173.78
176.147
178.457
180.717
182.937
185.13
187.313
189.505
191.726
193.995
196.333
198.756
201.281
203.919
206.681
209.571
212.591
215.743
219.025
222.434
225.966
229.612
233.363
237.212
241.147
245.16
249.241
253.383
257.578
261.816
266.09
270.395
274.724
279.072
283.435
287.811
292.196
296.588
300.989
305.398
309.821
314.261
318.726
323.225
327.765
332.349
336.983
341.663
346.405
351.165
355.862
360.5
365.127
369.764
374.428
379.13
383.881
388.693
393.573
398.529
403.57
408.71
413.968
419.365
424.92
430.622
436.464
442.48
448.689
455.111
461.765
468.669
475.849
483.341
491.259
499.517
507.927
516.644
525.687
535.06
544.768
554.818
565.21
575.838
586.704
597.79
609.06
620.466
631.941
643.409
654.795
666.02
676.995
687.635
697.87
707.625
716.842
725.436
733.281
740.26
746.32
751.378
755.301
757.977
759.332
759.312
757.877
755.037
750.859
745.463
738.99
731.593
723.433
714.696
705.57
696.243
686.868
677.582
668.536
659.892
651.779
644.389
637.695
631.857
228.688
168.854
144.432
131.93
124.73
119.943
116.425
113.735
111.665
110.091
108.94
108.064
107.406
107.029
106.975
107.283
107.981
109.088
110.594
112.456
114.584
116.848
119.078
121.079
122.645
123.593
123.81
123.278
122.088
120.428
118.548
116.71
115.151
114.048
113.515
113.616
114.369
115.759
117.742
120.239
123.147
126.344
129.704
133.117
136.495
139.787
142.967
146.036
149.006
151.897
154.728
157.515
160.269
162.998
165.706
168.397
171.071
173.734
176.389
179.04
181.694
184.362
187.056
189.79
192.578
195.435
198.372
201.401
204.531
207.771
211.127
214.601
218.194
221.907
225.74
229.694
233.762
237.939
242.217
246.588
251.044
255.579
260.186
264.859
269.59
274.37
279.188
284.037
288.907
293.792
298.683
303.573
308.46
313.342
318.217
323.091
327.968
332.859
337.781
342.754
347.805
352.934
358.173
363.436
368.577
373.597
378.563
383.491
388.39
393.288
398.205
403.155
408.156
413.223
418.367
423.592
428.905
434.32
439.855
445.54
451.439
457.543
463.719
470.074
476.637
483.429
490.468
497.771
505.356
513.243
521.461
529.983
538.79
547.903
557.326
567.055
577.082
587.395
597.971
608.772
619.764
630.908
642.154
653.44
664.693
675.829
686.759
697.401
707.681
717.528
726.849
735.54
743.529
750.671
756.787
761.733
765.393
767.654
768.414
767.602
765.189
761.168
755.602
748.602
740.313
730.917
720.617
709.61
698.072
686.214
674.256
662.399
650.76
639.423
628.589
618.454
609.159
600.89
593.608
587.547
195.2
159.465
143.676
134.394
128.168
123.497
119.837
116.967
114.737
113.044
111.675
110.604
109.881
109.524
109.543
109.946
110.727
111.865
113.306
114.968
116.733
118.462
119.999
121.19
121.899
122.033
121.569
120.563
119.146
117.504
115.843
114.359
113.214
112.525
112.363
112.764
113.73
115.233
117.223
119.625
122.351
125.305
128.395
131.544
134.696
137.819
140.9
143.942
146.958
149.962
152.97
155.993
159.038
162.112
165.214
168.345
171.505
174.694
177.913
181.16
184.439
187.756
191.122
194.545
198.039
201.612
205.275
209.041
212.906
216.872
220.941
225.112
229.393
233.787
238.296
242.918
247.647
252.466
257.372
262.361
267.424
272.56
277.764
283.04
288.397
293.814
299.266
304.749
310.25
315.751
321.24
326.686
332.096
337.47
342.81
348.122
353.418
358.715
364.067
369.49
375.127
380.826
386.339
391.642
396.833
401.949
407.053
412.17
417.201
422.234
427.296
432.408
437.59
442.86
448.225
453.689
459.255
464.934
470.739
476.693
482.824
489.136
495.625
502.317
509.234
516.392
523.808
531.493
539.457
547.712
556.262
565.105
574.235
583.65
593.342
603.301
613.507
623.94
634.569
645.355
656.251
667.206
678.158
689.033
699.747
710.206
720.318
729.988
739.148
747.712
755.53
762.441
768.277
772.851
775.994
777.576
777.488
775.655
772.043
766.654
759.533
750.781
740.551
729.028
716.392
702.87
688.707
674.117
659.204
644.243
629.487
615.143
601.268
587.836
575.184
563.522
552.974
543.682
535.599
528.935
170.069
154.027
145.112
138.135
132.376
127.524
123.552
120.43
117.916
115.811
114.14
112.915
112.132
111.771
111.809
112.218
112.957
113.97
115.174
116.467
117.731
118.842
119.678
120.137
120.15
119.697
118.814
117.596
116.181
114.727
113.394
112.321
111.617
111.355
111.579
112.301
113.508
115.166
117.225
119.622
122.288
125.156
128.163
131.262
134.419
137.617
140.853
144.131
147.461
150.853
154.316
157.859
161.484
165.19
168.977
172.838
176.768
180.762
184.811
188.91
193.068
197.291
201.585
205.954
210.402
214.93
219.545
224.241
229.02
233.897
238.884
243.981
249.179
254.479
259.887
265.403
271.017
276.696
282.453
288.282
294.177
300.132
306.137
312.18
318.215
324.21
330.19
336.214
342.281
348.317
354.375
360.227
365.976
371.641
377.23
382.769
388.293
393.818
399.599
405.379
410.906
416.221
421.39
426.447
431.433
436.385
441.335
446.301
451.289
456.328
461.444
466.645
471.945
477.355
482.881
488.528
494.301
500.211
506.27
512.499
518.917
525.539
532.376
539.443
546.753
554.316
562.141
570.233
578.597
587.233
596.14
605.314
614.745
624.423
634.332
644.45
654.752
665.204
675.763
686.377
696.985
707.515
717.887
728.007
737.774
747.073
755.813
763.879
771.144
777.456
782.625
786.466
788.781
789.422
788.276
785.254
780.311
773.447
764.703
754.162
741.937
728.203
713.187
697.134
680.197
662.665
644.832
626.925
608.877
591.133
573.97
557.561
542.047
527.563
514.17
501.943
490.946
481.284
472.919
466.038
158.655
153.474
148.832
143.1
137.374
132.107
127.535
123.676
120.531
118.025
116.107
114.742
113.882
113.471
113.451
113.76
114.333
115.09
115.94
116.783
117.516
118.044
118.291
118.205
117.774
117.024
116.028
114.89
113.734
112.691
111.876
111.382
111.277
111.601
112.369
113.575
115.197
117.201
119.545
122.183
125.071
128.166
131.432
134.844
138.384
142.045
145.822
149.718
153.743
157.903
162.204
166.646
171.226
175.94
180.776
185.727
190.784
195.942
201.197
206.544
211.968
217.469
223.051
228.714
234.456
240.222
246.007
251.801
257.639
263.54
269.515
275.555
281.631
287.743
293.9
300.126
306.517
312.785
319.062
325.365
331.702
338.079
344.503
350.974
357.452
363.927
370.475
376.958
383.177
389.203
395.087
400.828
406.447
411.981
417.449
422.943
428.598
434.239
439.593
444.763
449.8
454.745
459.638
464.508
469.383
474.287
479.24
484.258
489.356
494.548
499.848
505.259
510.789
516.442
522.23
528.161
534.248
540.506
546.961
553.627
560.51
567.623
574.976
582.575
590.424
598.525
606.877
615.479
624.326
633.412
642.728
652.261
661.993
671.904
681.964
692.141
702.392
712.667
722.903
733.029
742.959
752.598
761.838
770.562
778.641
785.935
792.305
797.617
801.7
804.366
805.444
804.768
802.225
797.738
791.244
782.698
772.125
759.598
745.244
729.231
711.718
692.945
673.224
652.845
631.861
610.696
589.684
569.049
549.007
529.679
511.185
493.644
477.162
461.835
447.742
434.955
423.525
413.523
404.911
397.825
167.424
161.246
155.782
149.063
142.465
136.337
130.858
126.178
122.376
119.458
117.342
115.882
114.954
114.463
114.325
114.462
114.795
115.244
115.727
116.161
116.476
116.614
116.547
116.274
115.826
115.262
114.67
114.143
113.788
113.697
113.945
114.588
115.644
117.102
118.954
121.17
123.711
126.578
129.751
133.21
136.929
140.891
145.079
149.482
154.089
158.898
163.909
169.121
174.535
180.148
185.964
191.974
198.171
204.539
210.998
217.555
224.201
230.934
237.76
244.641
251.525
258.405
265.283
272.181
279.238
286.1
292.789
299.379
305.888
312.332
318.719
325.036
331.263
337.392
343.431
349.396
355.311
361.154
366.947
372.709
378.464
384.237
390.061
395.973
402.005
408.171
414.281
420.172
425.81
431.262
436.591
441.841
447.05
452.401
457.827
463.226
468.473
473.634
478.732
483.801
488.869
493.966
499.11
504.32
509.606
514.98
520.451
526.024
531.707
537.505
543.425
549.471
555.648
561.959
568.419
575.043
581.846
588.837
596.032
603.435
611.064
618.92
626.999
635.3
643.817
652.545
661.474
670.594
679.894
689.357
698.963
708.688
718.501
728.364
738.234
748.057
757.77
767.299
776.558
785.451
793.866
801.682
808.765
814.972
820.152
824.143
826.778
827.892
827.317
824.904
820.521
814.068
805.522
794.854
782.056
767.202
750.388
731.74
711.507
689.951
667.236
643.684
619.705
595.595
571.631
548.013
524.926
502.542
481.02
460.496
441.088
422.893
405.99
390.44
376.286
363.564
352.286
342.48
334.093
327.2
197.261
173.824
162.44
153.496
145.916
138.974
132.671
127.311
123.085
119.999
117.857
116.404
115.47
114.947
114.748
114.795
115.017
115.35
115.738
116.13
116.492
116.815
117.101
117.398
117.776
118.32
119.124
120.224
121.707
123.616
126.015
128.904
132.251
135.996
140.082
144.462
149.1
153.986
159.102
164.463
170.068
175.915
182.008
188.354
194.891
201.623
208.577
215.727
223.017
230.433
237.966
245.604
253.366
261.465
269.2
276.85
284.411
291.892
299.293
306.587
313.736
320.724
327.556
334.241
340.801
347.189
353.399
359.438
365.317
371.046
376.644
382.119
387.471
392.696
397.801
402.796
407.699
412.526
417.301
422.042
426.774
431.523
436.319
441.204
446.218
451.394
456.627
461.767
466.85
471.919
477.144
482.53
488.028
493.498
498.979
504.493
510.042
515.646
521.32
527.081
532.939
538.903
544.977
551.165
557.466
563.88
570.408
577.049
583.803
590.674
597.667
604.781
612.021
619.409
626.957
634.665
642.532
650.559
658.741
667.08
675.579
684.232
693.028
701.96
711.015
720.182
729.443
738.78
748.17
757.582
766.984
776.335
785.585
794.677
803.545
812.112
820.29
827.981
835.074
841.446
846.963
851.482
854.854
856.921
857.526
856.507
853.708
848.984
842.21
833.288
822.155
808.792
793.214
775.443
755.606
733.916
710.573
685.741
659.85
633.227
606.188
579.021
551.983
525.318
499.254
473.989
449.698
426.526
404.598
384.01
364.836
347.127
330.912
316.2
302.985
291.249
280.959
272.09
264.569
258.407
244.599
188.878
168.837
156.712
147.615
139.705
132.834
127.327
123.256
120.408
118.47
117.189
116.422
116.077
116.085
116.392
116.953
117.735
118.685
119.823
121.177
122.794
124.634
126.785
129.408
132.609
136.465
141.038
146.328
152.272
158.786
165.773
173.188
180.906
188.662
196.438
204.182
211.828
219.42
227.003
234.609
242.257
249.989
258.05
265.964
273.762
281.565
289.349
297.077
304.73
312.301
319.787
327.178
334.493
341.635
348.608
355.394
362.004
368.457
374.762
380.911
386.893
392.707
398.354
403.842
409.174
414.361
419.409
424.326
429.123
433.817
438.423
442.951
447.408
451.799
456.134
460.423
464.683
468.935
473.201
477.499
481.849
486.277
490.834
495.555
500.464
505.561
511.02
516.764
522.731
528.762