/*--------------------------------*- C++ -*----------------------------------*\
| =========                 |                                                 |
| \\      /  F ield         | OpenFOAM: The Open Source CFD Toolbox           |
|  \\    /   O peration     | Version:  2112                                  |
|   \\  /    A nd           | Website:  www.openfoam.com                      |
|    \\/     M anipulation  |                                                 |
\*---------------------------------------------------------------------------*/
FoamFile
{
    version     2.0;
    format      ascii;
    arch        "LSB;label=32;scalar=64";
    class       volScalarField;
    location    "0.12";
    object      pMean;
}
// * * * * * * * * * * * * * * * * * * * * * * * * * * * * * * * * * * * * * //

dimensions      [0 2 -2 0 0 0 0];

internalField   nonuniform List<scalar> 
12225
(
6.38499
5.67591
5.29689
5.13381
5.03714
4.9531
4.8769
4.8158
4.77612
4.76063
4.77157
4.80915
4.87584
4.9647
5.0704
5.13547
5.12463
4.8719
6.14519
5.64689
5.2959
5.12374
5.02518
4.94268
4.86703
4.80529
4.76403
4.74652
4.75381
4.7871
4.84505
4.92614
5.01175
5.07718
5.03596
4.90488
6.06398
5.63968
5.3042
5.1196
5.01551
4.93342
4.8581
4.79486
4.75098
4.72916
4.73062
4.75374
4.79816
4.85527
4.91421
4.93998
4.89464
4.74902
5.91412
5.58969
5.29406
5.10725
4.99823
4.91675
4.84252
4.77846
4.7315
4.7051
4.69898
4.71176
4.73917
4.77468
4.80192
4.79937
4.73467
4.59118
5.83465
5.55576
5.2892
5.10271
4.98659
4.90254
4.82821
4.76266
4.71205
4.67974
4.66539
4.66612
4.67716
4.6903
4.69178
4.66364
4.58366
4.43959
5.7382
5.49969
5.26708
5.08854
4.96803
4.8811
4.80641
4.73985
4.68573
4.64728
4.62393
4.61234
4.60688
4.59935
4.57791
4.52793
4.43367
4.28366
5.65431
5.44954
5.24466
5.07543
4.95185
4.86039
4.78367
4.71523
4.6571
4.6118
4.57867
4.55416
4.5324
4.50558
4.46344
4.39428
4.28596
4.12881
5.58996
5.39335
5.20968
5.05395
4.93073
4.83527
4.75561
4.68478
4.62247
4.57011
4.52692
4.48941
4.45194
4.4073
4.34672
4.26063
4.13959
3.97611
5.52243
5.33846
5.17314
5.02955
4.90818
4.80875
4.72508
4.6509
4.58391
4.52413
4.4707
4.42043
4.36802
4.30699
4.22987
4.12903
3.99712
3.82862
5.45378
5.27978
5.13099
4.99941
4.88083
4.7786
4.6908
4.61242
4.54019
4.473
4.4095
4.34684
4.28041
4.20453
4.113
3.99978
3.85937
3.68786
5.37726
5.22209
5.08675
4.96387
4.84866
4.74484
4.65288
4.56975
4.49199
4.41733
4.34414
4.26988
4.19068
4.10176
3.99799
3.87469
3.72784
3.5548
5.30559
5.16344
5.04272
4.9283
4.81566
4.7103
4.61486
4.52717
4.44379
4.36226
4.28062
4.19649
4.1066
4.00709
3.89384
3.76327
3.61241
3.43958
5.25544
5.11418
4.99712
4.88914
4.78008
4.67408
4.57511
4.48252
4.39342
4.30509
4.21543
4.12234
4.02308
3.91452
3.79342
3.6571
3.50347
3.33162
5.16441
5.04526
4.94382
4.84221
4.73486
4.62779
4.52551
4.4279
4.33257
4.23697
4.13896
4.03664
3.92793
3.81059
3.68233
3.54133
3.38629
3.21695
5.11241
4.98431
4.88093
4.78369
4.67978
4.57225
4.46584
4.36208
4.2596
4.15617
4.04984
3.93894
3.82189
3.69709
3.56311
3.41891
3.26387
3.0981
5.04157
4.90731
4.80605
4.71435
4.6142
4.50634
4.39605
4.28631
4.17669
4.06543
3.95084
3.83168
3.70693
3.57582
3.43759
3.29184
3.13843
2.97782
4.96844
4.83563
4.73481
4.64287
4.54112
4.43002
4.31515
4.19952
4.0832
3.96488
3.84321
3.71738
3.58693
3.4516
3.31114
3.16561
3.0151
2.8603
4.84416
4.73809
4.65143
4.56321
4.46063
4.34691
4.22795
4.10694
3.98442
3.85971
3.73199
3.60082
3.46613
3.32806
3.18678
3.04258
2.89575
2.7468
4.80249
4.67758
4.58176
4.48989
4.38394
4.26551
4.14083
4.01373
3.88525
3.75505
3.62269
3.488
3.35114
3.2124
3.07211
2.93061
2.78824
2.6454
4.81478
4.67674
4.56509
4.45922
4.34284
4.21696
4.08632
3.9542
3.82139
3.68753
3.55212
3.41515
3.27697
3.13805
2.99876
2.85943
2.72032
2.58182
4.74306
4.63579
4.5392
4.43308
4.31139
4.1808
4.04719
3.91276
3.7776
3.64134
3.50399
3.36584
3.22732
3.08883
2.95069
2.81314
2.67642
2.54079
4.8251
4.68801
4.56615
4.44441
4.31213
4.17351
4.03434
3.89624
3.7583
3.61973
3.48047
3.34099
3.20177
3.0632
2.92551
2.78892
2.6536
2.51982
4.87985
4.70925
4.56603
4.43455
4.2985
4.15824
4.01753
3.87759
3.73775
3.59745
3.45699
3.31694
3.17779
3.03975
2.90297
2.76761
2.63386
2.50201
4.94669
4.77163
4.61178
4.46008
4.31001
4.16352
4.02051
3.87856
3.7361
3.59331
3.45111
3.31014
3.17058
3.03243
2.89574
2.76068
2.62743
2.49623
4.96162
4.79006
4.61928
4.45426
4.2992
4.15417
4.01289
3.8704
3.72619
3.58208
3.43947
3.29866
3.15943
3.02167
2.88551
2.75117
2.61893
2.48897
5.07115
4.87094
4.66232
4.47408
4.31226
4.16641
4.02327
3.87741
3.73015
3.58414
3.44053
3.29916
3.15957
3.02161
2.88542
2.75122
2.61923
2.48958
5.11935
4.88624
4.65376
4.46079
4.30458
4.16319
4.02009
3.87254
3.72427
3.57822
3.43492
3.29383
3.15446
3.01672
2.88083
2.74707
2.61565
2.48677
5.30237
4.96961
4.67629
4.47139
4.31852
4.17673
4.02978
3.87897
3.7291
3.58238
3.43868
3.29721
3.15752
3.01963
2.88376
2.75014
2.61886
2.48991
5.34921
4.96632
4.65943
4.46498
4.31975
4.17808
4.02916
3.87741
3.72756
3.58104
3.43736
3.29582
3.15606
3.0182
2.88242
2.74914
2.61834
2.49033
5.58269
5.00884
4.6581
4.4709
4.32917
4.1853
4.03404
3.88126
3.73107
3.58437
3.4405
3.29879
3.15889
3.02097
2.88515
2.75201
2.62148
2.49453
-0.891184
-1.03685
-1.16996
-1.19445
-1.1298
-1.05796
-1.05913
-1.19761
-1.50048
-1.95567
-2.52376
-3.15419
-3.79135
-4.38468
-4.89317
-5.28798
-5.55417
-5.68931
-5.7017
-5.61116
-5.44716
-5.24495
-5.04242
-4.86865
-4.73537
-4.64409
-4.61269
-4.63378
-4.69568
-4.79293
-4.91255
-5.04575
-5.21202
-5.42646
-5.66647
-5.93445
-6.25903
-6.65457
-7.08022
-7.5287
-8.03989
-8.65331
-9.3717
-10.1146
-10.7562
-11.2703
-11.67
-11.9605
-12.1669
-12.3582
-12.5191
-12.6982
-12.7694
-12.7946
-12.7311
-12.567
-12.506
-12.6872
-12.9986
-13.387
-13.8494
-14.4208
-14.9918
-15.4819
-15.9028
-16.2957
-16.6615
-16.9975
-17.2948
-17.5411
-17.7282
-17.8514
-17.9088
-17.898
-17.8135
-17.6466
-17.3839
-17.0075
-16.4941
-15.8181
-14.9617
-13.9255
-12.7355
-11.4251
-10.0272
-8.55965
-7.02239
-5.46541
-3.92692
-2.52878
-1.3316
-0.286972
0.658776
1.5413
2.38607
3.2138
4.04428
4.89685
5.78706
6.72379
7.7089
8.73947
9.80811
10.9013
12.002
13.0948
14.1675
15.2077
16.2025
17.1411
18.0152
18.8162
19.5345
20.1637
20.7057
21.1693
21.5687
21.9215
22.2409
22.5327
22.798
23.0356
23.2423
23.4139
23.5451
23.6308
23.6668
23.6501
23.5798
23.458
23.2902
23.0856
22.8537
22.6024
22.3333
22.0477
21.743
21.4203
21.0708
20.6353
20.0746
19.4153
18.757
18.203
17.8044
17.5735
17.5008
17.5648
17.7391
17.9973
18.3158
18.6714
19.0387
19.3899
19.6962
19.933
20.0803
20.1264
20.0746
19.9661
19.8056
19.4764
18.9851
18.511
18.151
17.9372
17.8847
17.9856
18.2091
18.5125
18.8502
19.1873
19.5039
19.7923
20.0416
20.2513
20.4227
20.571
20.7344
20.9213
-1.54991
-1.68787
-1.83718
-1.92166
-1.92477
-1.92789
-2.00569
-2.21498
-2.56797
-3.0455
-3.6085
-4.20853
-4.79918
-5.34164
-5.80503
-6.16549
-6.40878
-6.53124
-6.53793
-6.4426
-6.26956
-6.05081
-5.8172
-5.59802
-5.41191
-5.27902
-5.2099
-5.19592
-5.23893
-5.40627
-5.64097
-5.88008
-6.15265
-6.49436
-6.88842
-7.27738
-7.70605
-8.17539
-8.64612
-9.11156
-9.61621
-10.1815
-10.8294
-11.4825
-12.0098
-12.4091
-12.707
-12.9352
-13.1224
-13.3004
-13.4073
-13.5301
-13.5921
-13.7051
-13.8516
-13.7785
-13.729
-13.9014
-14.2519
-14.6464
-15.07
-15.5494
-16.07
-16.5164
-16.8959
-17.2444
-17.5618
-17.8513
-18.1044
-18.3135
-18.4706
-18.5703
-18.6078
-18.5796
-18.4804
-18.302
-18.0322
-17.6522
-17.138
-16.4613
-15.5996
-14.5486
-13.3261
-11.9691
-10.5107
-9.00084
-7.48597
-5.98394
-4.50852
-3.14071
-1.93016
-0.847764
0.14178
1.06477
1.94233
2.7941
3.64152
4.50673
5.408
6.3559
7.35395
8.40078
9.48891
10.6037
11.7265
12.8407
13.9322
14.9875
15.9933
16.9395
17.8187
18.623
19.3434
19.9758
20.5232
20.9942
21.4026
21.7648
22.0928
22.3922
22.6644
22.9081
23.1203
23.296
23.43
23.5171
23.5536
23.5373
23.4679
23.3474
23.1813
22.9783
22.7476
22.4972
22.23
21.9452
21.6367
21.2978
20.9125
20.427
19.8211
19.1481
18.507
17.9821
17.6099
17.3981
17.3376
17.4083
17.585
17.843
18.1598
18.5135
18.8795
19.2287
19.5308
19.7611
19.8995
19.9368
19.8865
19.7865
19.6181
19.2662
18.7613
18.2965
17.9571
17.7615
17.7211
17.8312
18.0651
18.381
18.7316
19.0793
19.4049
19.6998
19.9558
20.1669
20.343
20.477
20.6211
20.6915
-1.46246
-1.54576
-1.77266
-2.07057
-2.3906
-2.7325
-3.12441
-3.589
-4.12614
-4.72002
-5.33933
-5.94979
-6.51892
-7.01891
-7.42697
-7.72674
-7.91088
-7.98228
-7.94913
-7.82351
-7.62444
-7.37333
-7.09351
-6.8086
-6.5333
-6.30306
-6.14305
-6.07302
-6.11338
-6.27798
-6.54254
-6.85673
-7.24593
-7.68485
-8.1739
-8.74898
-9.36574
-9.99873
-10.6117
-11.1773
-11.7231
-12.2637
-12.8136
-13.3295
-13.761
-14.0788
-14.2708
-14.4012
-14.5423
-14.6621
-14.814
-14.9557
-15.0756
-15.1747
-15.304
-15.4062
-15.5354
-15.7185
-15.9753
-16.2899
-16.668
-17.0934
-17.535
-17.957
-18.3326
-18.6596
-18.939
-19.1782
-19.3769
-19.5318
-19.6371
-19.6895
-19.6854
-19.621
-19.4913
-19.2894
-19.003
-18.6134
-18.0948
-17.4148
-16.5453
-15.4786
-14.2383
-12.868
-11.4009
-9.90002
-8.40384
-6.92727
-5.49796
-4.14603
-2.89443
-1.74265
-0.683542
0.296347
1.2134
2.08822
2.94556
3.81183
4.7105
5.65844
6.66524
7.73208
8.85018
10.0031
11.1699
12.3287
13.46
14.5466
15.5747
16.535
17.4219
18.2304
18.9563
19.5986
20.1607
20.6505
21.0795
21.4613
21.8061
22.1199
22.4051
22.6609
22.8837
23.0676
23.2068
23.2962
23.3325
23.3147
23.2435
23.1221
22.9561
22.7538
22.5238
22.2734
22.0049
21.7173
21.4036
21.0474
20.6167
20.0667
19.41
18.7303
18.115
17.6194
17.2696
17.0742
17.0262
17.1054
17.2862
17.5442
17.8589
18.2107
18.5765
18.9266
19.23
19.461
19.5998
19.6396
19.589
19.4617
19.2315
18.8477
18.3837
17.9697
17.6634
17.4893
17.465
17.5917
17.843
18.177
18.5463
18.9118
19.252
19.5558
19.8185
20.0304
20.2035
20.3213
20.4342
20.4544
-1.50209
-1.62725
-1.99561
-2.50148
-3.09238
-3.73221
-4.40065
-5.08653
-5.78043
-6.46653
-7.12463
-7.73368
-8.27436
-8.73029
-9.08751
-9.33578
-9.47187
-9.50004
-9.42968
-9.27383
-9.04995
-8.77589
-8.46831
-8.14822
-7.8423
-7.56909
-7.35458
-7.22437
-7.20645
-7.29997
-7.51661
-7.83596
-8.24031
-8.7371
-9.32156
-10.0056
-10.7482
-11.5012
-12.2259
-12.9106
-13.5518
-14.1571
-14.7389
-15.2516
-15.6677
-15.9742
-16.1465
-16.2636
-16.4344
-16.6372
-16.8068
-16.9559
-17.1049
-17.2418
-17.3635
-17.4895
-17.6335
-17.794
-17.9704
-18.1963
-18.4872
-18.8495
-19.2409
-19.6244
-19.9744
-20.2815
-20.5407
-20.7501
-20.9083
-21.0157
-21.0717
-21.0755
-21.0247
-20.916
-20.7446
-20.5031
-20.1796
-19.7564
-19.2095
-18.5113
-17.6337
-16.5632
-15.3213
-13.9529
-12.5121
-11.0398
-9.56321
-8.10124
-6.67561
-5.30997
-4.02286
-2.82397
-1.71805
-0.699332
0.245432
1.13668
2.00002
2.86398
3.7558
4.69812
5.70754
6.79113
7.94342
9.14598
10.3727
11.5953
12.7876
13.9274
14.9977
15.988
16.8932
17.7119
18.4451
19.0965
19.6721
20.1799
20.6299
21.0331
21.3981
21.731
22.0342
22.3067
22.5442
22.7395
22.886
22.9785
23.0148
22.995
22.9209
22.7964
22.6276
22.4226
22.1901
21.9368
21.6648
21.3701
21.0426
20.6599
20.1845
19.5826
18.8929
18.214
17.6173
17.1416
16.8082
16.6263
16.5888
16.6754
16.8593
17.1163
17.4276
17.7769
18.143
18.4971
18.8063
19.0436
19.1889
19.2327
19.1738
19.0122
18.7281
18.3282
17.8891
17.5069
17.236
17.1021
17.1073
17.2523
17.5217
17.8786
18.275
18.6672
19.0303
19.3498
19.6212
19.8358
20.0056
20.1146
20.2001
20.1877
-1.82419
-2.07346
-2.60738
-3.30109
-4.07995
-4.89536
-5.72511
-6.54723
-7.34713
-8.11155
-8.82485
-9.4681
-10.0225
-10.4709
-10.7999
-11.0042
-11.0881
-11.0635
-10.9477
-10.7579
-10.5111
-10.222
-9.90462
-9.57635
-9.25699
-8.96917
-8.73841
-8.58722
-8.5331
-8.58806
-8.75532
-9.04177
-9.43569
-9.93755
-10.5421
-11.2448
-12.0403
-12.8662
-13.6787
-14.455
-15.1903
-15.8769
-16.5131
-17.0747
-17.526
-17.8883
-18.1617
-18.4056
-18.6443
-18.8652
-19.0531
-19.2082
-19.3705
-19.5105
-19.6194
-19.7326
-19.8505
-19.9623
-20.0811
-20.2403
-20.4741
-20.7792
-21.1083
-21.4335
-21.7402
-22.017
-22.2516
-22.4351
-22.5626
-22.6331
-22.6472
-22.6048
-22.5054
-22.347
-22.1254
-21.8343
-21.4624
-20.9936
-20.4056
-19.6731
-18.7774
-17.716
-16.5052
-15.1771
-13.7717
-12.3246
-10.8601
-9.39751
-7.95978
-6.57299
-5.25814
-4.03051
-2.89841
-1.85957
-0.902505
-0.00657691
0.854788
1.71144
2.59405
3.5311
4.54477
5.64783
6.83859
8.09835
9.39569
10.6947
11.9607
13.1656
14.289
15.318
16.2479
17.0805
17.8222
18.4815
19.0675
19.5894
20.0573
20.4805
20.8666
21.2206
21.5444
21.8364
22.0911
22.3005
22.4566
22.5547
22.5931
22.5728
22.4968
22.3696
22.1976
21.9895
21.7533
21.4952
21.2159
20.9095
20.5634
20.1522
19.6393
19.0036
18.2978
17.6205
17.0333
16.5676
16.2449
16.0739
16.0458
16.1388
16.325
16.5792
16.8851
17.2297
17.5954
17.9538
18.271
18.518
18.6726
18.7209
18.6511
18.4516
18.118
17.7082
17.2951
16.948
16.7149
16.6163
16.6499
16.8164
17.1089
17.4953
17.9241
18.3496
18.7443
19.0914
19.3831
19.6087
19.778
19.8787
19.9366
19.8981
-2.49012
-2.88053
-3.55763
-4.35193
-5.21946
-6.13
-7.05665
-7.97695
-8.87312
-9.7273
-10.5177
-11.2199
-11.8112
-12.2736
-12.5963
-12.7777
-12.8251
-12.7543
-12.5883
-12.3513
-12.0676
-11.7562
-11.4321
-11.1085
-10.7982
-10.5193
-10.2934
-10.1431
-10.0849
-10.1334
-10.3003
-10.5867
-10.9805
-11.4814
-12.0904
-12.8026
-13.6059
-14.4541
-15.3143
-16.1632
-16.9762
-17.7317
-18.4183
-19.0266
-19.5413
-19.9724
-20.3421
-20.6779
-20.9682
-21.2056
-21.4001
-21.5536
-21.7079
-21.8272
-21.9217
-22.0132
-22.0976
-22.1701
-22.2498
-22.3711
-22.5649
-22.8131
-23.0777
-23.3422
-23.5949
-23.8222
-24.0115
-24.1531
-24.2399
-24.2679
-24.2362
-24.1459
-23.9981
-23.7931
-23.5287
-23.1992
-22.7941
-22.2975
-21.6888
-20.9461
-20.0537
-19.0119
-17.8349
-16.5467
-15.1766
-13.7509
-12.2899
-10.8163
-9.35857
-7.94735
-6.60994
-5.36561
-4.22325
-3.18061
-2.22513
-1.33555
-0.483674
0.362384
1.23682
2.17162
3.19356
4.31988
5.55256
6.87341
8.24624
9.62592
10.9698
12.2445
13.4258
14.4995
15.4613
16.3155
17.0729
17.7457
18.3454
18.8832
19.3697
19.8136
20.2219
20.5982
20.9444
21.2584
21.5336
21.7604
21.9297
22.0359
22.0785
22.0597
21.9834
21.8551
21.6815
21.4708
21.2304
20.9655
20.6758
20.3543
19.986
19.5443
18.999
18.3415
17.6278
16.9518
16.3703
15.9125
15.5989
15.4375
15.4177
15.5164
15.7044
15.9553
16.2544
16.5931
16.957
17.3186
17.6431
17.8991
18.0621
18.1142
18.032
17.7946
17.4185
17.0062
16.6214
16.3102
16.1148
16.0525
16.12
16.3166
16.6364
17.0499
17.5103
17.9714
18.4011
18.779
19.0951
19.3388
19.5156
19.6154
19.655
19.5994
-3.61906
-4.05013
-4.72883
-5.5134
-6.38063
-7.31302
-8.28332
-9.26386
-10.2306
-11.1565
-12.0109
-12.7632
-13.3882
-13.8671
-14.1947
-14.3748
-14.4168
-14.337
-14.1588
-13.9088
-13.6147
-13.2995
-12.9813
-12.6752
-12.3932
-12.1497
-11.963
-11.8529
-11.8383
-11.9339
-12.1445
-12.4595
-12.8691
-13.3775
-13.9979
-14.7315
-15.5621
-16.447
-17.3517
-18.2484
-19.1063
-19.8981
-20.6123
-21.2458
-21.7934
-22.2724
-22.6969
-23.0829
-23.3995
-23.629
-23.7972
-23.923
-24.0375
-24.1212
-24.1898
-24.256
-24.3145
-24.3654
-24.4256
-24.5261
-24.6896
-24.8856
-25.0883
-25.2906
-25.4821
-25.6496
-25.7809
-25.8652
-25.8947
-25.8654
-25.7779
-25.6358
-25.4432
-25.2025
-24.9123
-24.5658
-24.1508
-23.6508
-23.0465
-22.3186
-21.4557
-20.4567
-19.328
-18.0851
-16.7464
-15.3305
-13.8588
-12.3605
-10.872
-9.43071
-8.06932
-6.8105
-5.66379
-4.62543
-3.68006
-2.80457
-1.96828
-1.13618
-0.27136
0.660987
1.69232
2.84459
4.12383
5.51083
6.96232
8.42426
9.84763
11.1945
12.4378
13.5612
14.5604
15.4432
16.224
16.9166
17.5341
18.0897
18.5951
19.0583
19.486
19.8828
20.2506
20.5866
20.883
21.1293
21.3143
21.4311
21.4794
21.4635
21.3886
21.2607
21.087
20.875
20.6312
20.3592
20.0576
19.7189
19.3269
18.8557
18.2832
17.6107
16.8919
16.2155
15.6373
15.1849
14.8793
14.7271
14.7157
14.8207
15.012
15.2623
15.5568
15.89
16.251
16.6137
16.9417
17.203
17.3706
17.4225
17.3272
17.0558
16.6481
16.2425
15.8888
15.6142
15.4586
15.4367
15.5427
15.7723
16.1202
16.562
17.0536
17.55
18.0148
18.4252
18.768
19.0316
19.2193
19.3234
19.3562
19.2934
-4.80285
-5.18794
-5.75947
-6.47808
-7.31897
-8.24862
-9.23415
-10.2436
-11.2472
-12.2106
-13.0979
-13.8795
-14.5324
-15.0437
-15.4078
-15.6264
-15.7075
-15.6674
-15.5277
-15.3139
-15.0518
-14.7669
-14.4834
-14.2197
-13.9882
-13.8047
-13.6896
-13.6608
-13.7307
-13.9054
-14.182
-14.5513
-15.0082
-15.5654
-16.2339
-17.0151
-17.8917
-18.824
-19.7787
-20.717
-21.6048
-22.4178
-23.1466
-23.7934
-24.363
-24.8627
-25.3048
-25.6816
-25.9689
-26.1574
-26.2752
-26.3513
-26.4047
-26.4331
-26.4512
-26.4707
-26.4924
-26.5206
-26.5644
-26.6476
-26.7823
-26.9312
-27.0798
-27.2293
-27.3675
-27.4782
-27.5461
-27.5603
-27.5156
-27.4125
-27.2566
-27.0568
-26.8217
-26.5563
-26.2599
-25.9237
-25.5315
-25.0636
-24.4994
-23.8201
-23.013
-22.0722
-20.9978
-19.7939
-18.4701
-17.0428
-15.5392
-13.9983
-12.4666
-10.9883
-9.59869
-8.32202
-7.16841
-6.13353
-5.1998
-4.34083
-3.5229
-2.7076
-1.85488
-0.926761
0.110747
1.2856
2.60928
4.06062
5.58803
7.12989
8.63247
10.0535
11.3611
12.5363
13.5758
14.4906
15.2973
16.0117
16.648
17.2215
17.7446
18.2253
18.6702
19.0854
19.4734
19.8311
20.1503
20.419
20.6233
20.7539
20.8106
20.7995
20.7275
20.6018
20.43
20.2191
19.9737
19.6954
19.3818
19.0256
18.6099
18.1101
17.512
16.8253
16.0997
15.42
14.8424
14.3943
14.0964
13.9534
13.9515
14.0646
14.2625
14.5162
14.8105
15.1406
15.498
15.8575
16.1839
16.4448
16.6117
16.6596
16.5514
16.2539
15.8263
15.4353
15.1143
14.8772
14.7632
14.7849
14.9345
15.2034
15.5845
16.0558
16.5742
17.0985
17.5948
18.0367
18.4052
18.6879
18.8865
18.9968
19.0304
18.9694
-5.53932
-5.86366
-6.37423
-7.05208
-7.86471
-8.77367
-9.74673
-10.7527
-11.7613
-12.7376
-13.6462
-14.4597
-15.1577
-15.728
-16.1656
-16.4697
-16.644
-16.7002
-16.6558
-16.5325
-16.3518
-16.1384
-15.9212
-15.7259
-15.5723
-15.4755
-15.4514
-15.5146
-15.6752
-15.9371
-16.2966
-16.7446
-17.2811
-17.9192
-18.6612
-19.5095
-20.4497
-21.4441
-22.4543
-23.4413
-24.3708
-25.2197
-25.9805
-26.6558
-27.25
-27.7679
-28.2084
-28.5542
-28.7878
-28.9083
-28.9381
-28.9074
-28.8487
-28.7758
-28.7025
-28.6425
-28.6033
-28.5898
-28.605
-28.6646
-28.7689
-28.8807
-28.9944
-29.11
-29.2083
-29.2677
-29.2705
-29.2072
-29.0781
-28.8919
-28.6624
-28.4052
-28.1345
-27.859
-27.5789
-27.2827
-26.9483
-26.5495
-26.0605
-25.457
-24.7206
-23.8402
-22.81
-21.6268
-20.2945
-18.8315
-17.2744
-15.6739
-14.0867
-12.563
-11.1394
-9.8398
-8.67455
-7.63928
-6.71489
-5.87164
-5.07158
-4.27186
-3.4299
-2.50717
-1.46618
-0.273275
1.08854
2.59651
4.19121
5.80618
7.38374
8.87595
10.2444
11.4678
12.545
13.4892
14.3198
15.0544
15.7084
16.2993
16.8396
17.336
17.7958
18.2274
18.6339
19.0121
19.3533
19.6449
19.8703
20.0173
20.0849
20.0798
20.0115
19.8889
19.7209
19.5134
19.2688
18.9862
18.662
18.2886
17.849
17.3206
16.6969
15.9945
15.2614
14.5777
13.9999
13.5564
13.2665
13.1337
13.1425
13.2659
13.4737
13.7357
14.0347
14.364
14.7167
15.0691
15.3879
15.6424
15.8038
15.8441
15.725
15.4118
14.9759
14.6039
14.3151
14.114
14.0405
14.107
14.3033
14.6168
15.0381
15.5435
16.088
16.6352
17.1547
17.6207
18.0114
18.311
18.5198
18.6365
18.6742
18.6204
-5.74318
-6.03345
-6.50934
-7.15
-7.92441
-8.80154
-9.75156
-10.7439
-11.7483
-12.7336
-13.6701
-14.5337
-15.3047
-15.9682
-16.5134
-16.9337
-17.2305
-17.4127
-17.4962
-17.4989
-17.4385
-17.3361
-17.2231
-17.1286
-17.0754
-17.0798
-17.1568
-17.3152
-17.5624
-17.9069
-18.3504
-18.8894
-19.5267
-20.2653
-21.101
-22.0366
-23.0585
-24.1324
-25.2193
-26.2769
-27.2709
-28.1805
-29.0001
-29.7309
-30.3699
-30.9097
-31.3388
-31.6403
-31.8016
-31.8217
-31.7247
-31.5407
-31.3223
-31.1029
-30.8982
-30.7271
-30.6021
-30.526
-30.4976
-30.5254
-30.5997
-30.6854
-30.7807
-30.8767
-30.9467
-30.9636
-30.906
-30.7669
-30.555
-30.2876
-29.9874
-29.6783
-29.3812
-29.1109
-28.8702
-28.645
-28.4041
-28.1081
-27.719
-27.2025
-26.5327
-25.6969
-24.6886
-23.5021
-22.1393
-20.622
-18.995
-17.3211
-15.6683
-14.0921
-12.6286
-11.3019
-10.1231
-9.08663
-8.17021
-7.33956
-6.55172
-5.7599
-4.92051
-3.99585
-2.94773
-1.73832
-0.345653
1.20688
2.85281
4.52409
6.16181
7.71222
9.13015
10.3917
11.4978
12.4643
13.3132
14.0638
14.7336
15.3409
15.897
16.4079
16.8822
17.3299
17.7543
18.1517
18.5131
18.8255
19.0711
19.2349
19.3138
19.3153
19.2514
19.1333
18.971
18.7694
18.5277
18.2422
17.908
17.5169
17.0527
16.4953
15.8461
15.1289
14.3909
13.7055
13.1298
12.6937
12.4139
12.2927
12.3136
12.4491
12.6697
12.9425
13.2476
13.5774
13.9239
14.2651
14.5713
14.8138
14.9649
14.996
14.8689
14.552
14.1192
13.7667
13.5079
13.339
13.303
13.4119
13.6541
14.0129
14.478
15.0233
15.5988
16.1679
16.7052
17.1873
17.5924
17.9037
18.1204
18.2435
18.2867
18.2429
-5.45133
-5.71255
-6.15444
-6.76029
-7.50438
-8.35924
-9.29549
-10.282
-11.2914
-12.299
-13.2814
-14.2151
-15.0772
-15.8473
-16.5093
-17.0537
-17.481
-17.799
-18.0213
-18.1615
-18.2361
-18.267
-18.2865
-18.3232
-18.3948
-18.5173
-18.7002
-18.9494
-19.2761
-19.6951
-20.2174
-20.8472
-21.5868
-22.4293
-23.3695
-24.4078
-25.5252
-26.6885
-27.8625
-29.0065
-30.0852
-31.0787
-31.9841
-32.7974
-33.5023
-34.0752
-34.4954
-34.749
-34.8265
-34.7362
-34.4966
-34.1395
-33.735
-33.3397
-32.9859
-32.6924
-32.4703
-32.3175
-32.2292
-32.2121
-32.254
-32.3211
-32.4062
-32.4905
-32.5404
-32.5235
-32.4152
-32.2123
-31.9308
-31.5946
-31.2337
-30.8816
-30.5678
-30.3143
-30.1286
-29.9957
-29.8745
-29.7058
-29.4294
-28.9971
-28.3771
-27.5579
-26.5376
-25.3145
-23.8961
-22.3092
-20.6053
-18.8578
-17.1413
-15.5145
-14.0129
-12.6602
-11.4679
-10.4294
-9.51805
-8.69283
-7.90561
-7.10817
-6.25916
-5.32353
-4.26272
-3.03692
-1.62193
-0.0407744
1.63364
3.33686
5.01226
6.60128
8.05244
9.34056
10.4671
11.4485
12.3084
13.069
13.7509
14.3723
14.943
15.4683
15.958
16.4225
16.8648
17.2801
17.6586
17.9876
18.2489
18.4257
18.5136
18.5208
18.4614
18.3489
18.1935
17.9985
17.7598
17.4708
17.1251
16.7148
16.2251
15.6404
14.9687
14.2411
13.5041
12.8241
12.2577
11.8342
11.5675
11.4594
11.4935
11.6422
11.8747
12.1576
12.4684
12.797
13.1345
13.4606
13.7493
13.9753
14.1129
14.1346
14.0036
13.6943
13.2756
12.9401
12.708
12.5681
12.5657
12.7126
12.9959
13.3962
13.9029
14.4896
15.1015
15.6968
16.2511
16.7447
17.1571
17.4729
17.6924
17.8202
17.8696
17.8375
-4.70545
-4.94385
-5.36197
-5.94753
-6.67845
-7.5311
-8.4774
-9.4848
-10.5281
-11.5864
-12.6387
-13.6581
-14.6171
-15.4926
-16.2689
-16.9396
-17.5058
-17.9719
-18.3455
-18.6363
-18.8594
-19.0364
-19.1971
-19.3649
-19.5539
-19.7772
-20.0435
-20.3617
-20.7505
-21.2357
-21.8334
-22.5458
-23.3689
-24.2928
-25.3125
-26.4254
-27.6112
-28.8434
-30.094
-31.3235
-32.4934
-33.5811
-34.5799
-35.478
-36.2459
-36.8499
-37.2628
-37.4794
-37.4953
-37.3131
-36.9515
-36.4614
-35.9112
-35.3671
-34.8764
-34.4661
-34.1474
-33.9178
-33.771
-33.7122
-33.7278
-33.7822
-33.8589
-33.928
-33.9563
-33.9118
-33.7649
-33.5122
-33.1745
-32.784
-32.3779
-31.9949
-31.6709
-31.4369
-31.3089
-31.2754
-31.2834
-31.251
-31.0929
-30.7406
-30.1518
-29.3177
-28.25
-26.9604
-25.4656
-23.7972
-22.0149
-20.1998
-18.4328
-16.7697
-15.2432
-13.8743
-12.6728
-11.6321
-10.7216
-9.89435
-9.09804
-8.28402
-7.41313
-6.45306
-5.36843
-4.12107
-2.68987
-1.09973
0.576586
2.28313
3.96828
5.57225
7.03819
8.33919
9.47668
10.4655
11.3282
12.0921
12.7828
13.4176
14.0027
14.5426
15.0483
15.529
15.9876
16.4187
16.8117
17.1535
17.4258
17.6106
17.704
17.7155
17.6604
17.5533
17.4036
17.2131
16.9743
16.6781
16.3178
15.8868
15.3731
14.766
14.0789
13.3488
12.6233
11.9601
11.4126
11.0079
10.7574
10.6644
10.7118
10.8719
11.1138
11.4032
11.716
12.0398
12.3638
12.6707
12.9382
13.1445
13.2666
13.2798
13.1506
12.8562
12.4585
12.1384
11.9284
11.8172
11.8454
12.0249
12.3431
12.7794
13.3214
13.9449
14.5935
15.2192
15.7939
16.2983
16.7143
17.0284
17.2448
17.3734
17.428
17.4079
-3.5862
-3.80882
-4.21491
-4.79658
-5.53613
-6.4124
-7.39831
-8.46163
-9.57847
-10.7269
-11.8824
-13.0136
-14.0905
-15.0894
-15.9959
-16.8038
-17.5106
-18.1178
-18.6297
-19.0537
-19.4017
-19.692
-19.9479
-20.1906
-20.44
-20.7143
-21.0284
-21.398
-21.8431
-22.3869
-23.0409
-23.8024
-24.6665
-25.626
-26.6769
-27.8173
-29.0304
-30.2943
-31.5852
-32.8689
-34.1039
-35.2625
-36.3327
-37.298
-38.1168
-38.7495
-39.1681
-39.3709
-39.3605
-39.1453
-38.7456
-38.205
-37.5887
-36.9648
-36.3906
-35.9041
-35.521
-35.2403
-35.0581
-34.9785
-34.9854
-35.037
-35.1054
-35.1563
-35.1601
-35.0897
-34.9055
-34.6083
-34.2297
-33.8039
-33.3699
-32.9702
-32.6498
-32.4457
-32.3787
-32.438
-32.5651
-32.6618
-32.617
-32.3353
-31.7626
-30.8882
-29.7413
-28.3584
-26.774
-25.0252
-23.1743
-21.3061
-19.5028
-17.8196
-16.2841
-14.9121
-13.7103
-12.669
-11.7547
-10.9179
-10.1038
-9.26308
-8.35866
-7.36036
-6.24068
-4.97042
-3.53402
-1.95651
-0.304659
1.37569
3.04276
4.63838
6.10083
7.40156
8.5404
9.52937
10.3887
11.1539
11.8542
12.5034
13.1027
13.6559
14.1749
14.6688
15.1397
15.5828
15.9874
16.339
16.6185
16.8076
16.904
16.9187
16.867
16.7627
16.6145
16.4229
16.1781
15.8695
15.492
15.0414
14.5083
13.8869
13.1956
12.4755
11.7745
11.1415
10.6229
10.2427
10.0123
9.93596
9.99616
10.1652
10.4116
10.7014
11.0097
11.3224
11.6282
11.9117
12.1549
12.3395
12.4454
12.451
12.3281
12.054
11.6804
11.3743
11.1832
11.1001
11.1572
11.3659
11.7133
12.1793
12.7492
13.3997
14.0782
14.7337
15.3316
15.8495
16.2689
16.5791
16.7886
16.9139
16.9712
16.9615
-2.22279
-2.43996
-2.84891
-3.44152
-4.20579
-5.12593
-6.17881
-7.33444
-8.56893
-9.85567
-11.162
-12.4487
-13.6796
-14.8276
-15.8744
-16.8099
-17.6279
-18.327
-18.9099
-19.3858
-19.7694
-20.0818
-20.3482
-20.5954
-20.8482
-21.1299
-21.4589
-21.8502
-22.3189
-22.8814
-23.5464
-24.313
-25.1774
-26.1339
-27.1779
-28.3079
-29.5118
-30.7692
-32.0557
-33.3457
-34.6047
-35.8032
-36.9281
-37.9521
-38.8229
-39.4953
-39.9447
-40.1729
-40.1894
-40.0076
-39.6479
-39.1499
-38.5693
-37.9647
-37.392
-36.898
-36.5057
-36.2185
-36.0352
-35.9593
-35.9726
-36.0274
-36.0887
-36.122
-36.0951
-35.9863
-35.7719
-35.4493
-35.0439
-34.5964
-34.1511
-33.7549
-33.4545
-33.2868
-33.273
-33.4063
-33.6292
-33.8294
-33.8686
-33.6273
-33.0447
-32.1146
-30.8824
-29.4128
-27.7594
-25.9598
-24.0687
-22.1697
-20.3463
-18.6536
-17.1184
-15.753
-14.5579
-13.5157
-12.5892
-11.7305
-10.8883
-10.0154
-9.07746
-8.04756
-6.90209
-5.6181
-4.18763
-2.64043
-1.03145
0.604377
2.23451
3.80481
5.25037
6.54005
7.6719
8.65538
9.51026
10.2783
10.9902
11.6529
12.2635
12.8265
13.3549
13.8566
14.3338
14.7834
15.195
15.553
15.8369
16.029
16.1282
16.1454
16.0947
15.9883
15.835
15.6348
15.3772
15.0522
14.657
14.1904
13.6459
13.0224
12.3414
11.6468
10.9848
10.3952
9.91468
9.56483
9.35885
9.30018
9.37156
9.54498
9.78878
10.0703
10.3657
10.66
10.942
11.1982
11.415
11.5769
11.6666
11.6657
11.5521
11.3024
10.955
10.662
10.4879
10.4309
10.5151
10.7495
11.1207
11.6096
12.1997
12.8665
13.5631
14.241
14.8606
15.3935
15.8187
16.1262
16.3293
16.4497
16.5075
16.5057
-0.786917
-1.00222
-1.41995
-2.03565
-2.84247
-3.82782
-4.9739
-6.2538
-7.64231
-9.10603
-10.601
-12.0781
-13.4907
-14.801
-15.9826
-17.0179
-17.8962
-18.6165
-19.1852
-19.6213
-19.9493
-20.1974
-20.3953
-20.5732
-20.7588
-20.9792
-21.2542
-21.5971
-22.0188
-22.5327
-23.1502
-23.8779
-24.7122
-25.6397
-26.6482
-27.7336
-28.8908
-30.1086
-31.3678
-32.6434
-33.9061
-35.1288
-36.2966
-37.3764
-38.3099
-39.0463
-39.5635
-39.8704
-39.9766
-39.8967
-39.6521
-39.2764
-38.8146
-38.3162
-37.8308
-37.4039
-37.0614
-36.8141
-36.665
-36.6166
-36.6465
-36.7047
-36.7573
-36.7743
-36.7231
-36.5857
-36.3473
-36.0042
-35.5865
-35.137
-34.6983
-34.3178
-34.0426
-33.9098
-33.9367
-34.1127
-34.38
-34.6236
-34.6983
-34.4723
-33.874
-32.9023
-31.6151
-30.092
-28.4028
-26.5865
-24.6897
-22.7893
-20.9667
-19.2782
-17.7514
-16.3982
-15.2128
-14.1695
-13.2272
-12.3402
-11.4642
-10.5593
-9.59668
-8.55112
-7.39738
-6.11291
-4.69881
-3.18721
-1.62381
-0.0359539
1.54883
3.08142
4.49974
5.76935
6.88688
7.86197
8.71549
9.48948
10.2126
10.8851
11.5028
12.0719
12.6046
13.1081
13.5843
14.0333
14.4455
14.8047
15.0898
15.2839
15.3854
15.4038
15.3502
15.236
15.0705
14.8547
14.5793
14.2361
13.8249
13.3478
12.8026
12.1919
11.5388
10.8869
10.2781
9.74322
9.30981
8.99774
8.82002
8.77871
8.85669
9.02705
9.25918
9.52265
9.79541
10.0633
10.3155
10.5413
10.7299
10.8691
10.9435
10.9376
10.835
10.6126
10.2945
10.0157
9.85667
9.8223
9.93073
10.1869
10.5766
11.0812
11.6826
12.3551
13.0576
13.7463
14.3809
14.9275
15.3603
15.6685
15.8674
15.9835
16.0401
16.0435
0.569088
0.350666
-0.0782872
-0.720852
-1.57786
-2.64285
-3.90607
-5.34268
-6.92122
-8.59569
-10.3073
-11.9927
-13.5926
-15.0567
-16.345
-17.4312
-18.3016
-18.96
-19.4257
-19.7297
-19.9072
-19.9939
-20.0262
-20.0408
-20.0712
-20.1483
-20.2955
-20.5264
-20.849
-21.2723
-21.8088
-22.4649
-23.2349
-24.1029
-25.0537
-26.0781
-27.1751
-28.344
-29.5699
-30.8268
-32.0887
-33.3337
-34.5432
-35.6862
-36.7021
-37.5393
-38.174
-38.6115
-38.8614
-38.9405
-38.8702
-38.675
-38.3892
-38.0551
-37.7148
-37.4093
-37.1657
-36.9984
-36.9124
-36.9061
-36.9522
-37.0079
-37.0497
-37.0555
-36.9935
-36.8465
-36.6061
-36.2743
-35.877
-35.4509
-35.0406
-34.6923
-34.4475
-34.338
-34.3769
-34.5479
-34.795
-35.0132
-35.0641
-34.815
-34.1932
-33.2014
-31.902
-30.3765
-28.6975
-26.9059
-25.043
-23.1782
-21.3864
-19.7223
-18.2131
-16.8697
-15.6854
-14.6335
-13.6721
-12.7585
-11.8544
-10.9266
-9.9506
-8.9002
-7.74696
-6.47172
-5.07983
-3.60314
-2.08413
-0.547005
0.984635
2.46851
3.84863
5.09022
6.18879
7.15622
8.01429
8.79725
9.52764
10.2043
10.8251
11.3962
11.9283
12.4281
12.8981
13.3386
13.7427
14.0957
14.3768
14.5696
14.6714
14.6877
14.6265
14.4987
14.3152
14.0785
13.7821
13.4212
12.9978
12.5178
11.9845
11.4041
10.7985
10.2068
9.6646
9.19534
8.81898
8.5522
8.40524
8.37782
8.45545
8.61342
8.82335
9.05802
9.2982
9.5316
9.74865
9.94142
10.1017
10.219
10.2797
10.2705
10.1801
9.98773
9.7048
9.44487
9.30041
9.28544
9.41406
9.68699
10.0889
10.6013
11.2042
11.8725
12.5699
13.2572
13.896
14.4511
14.8921
15.2047
15.4033
15.5167
15.5714
15.577
1.65094
1.43038
0.976373
0.294204
-0.627759
-1.79191
-3.19451
-4.80997
-6.59531
-8.48783
-10.4101
-12.2799
-14.0226
-15.5772
-16.8954
-17.9439
-18.7123
-19.2128
-19.4751
-19.5422
-19.4685
-19.3052
-19.0989
-18.8948
-18.7319
-18.6393
-18.6376
-18.7402
-18.95
-19.2696
-19.7097
-20.2798
-20.9805
-21.7946
-22.6995
-23.681
-24.7382
-25.8723
-27.0731
-28.3189
-29.5907
-30.8701
-32.1322
-33.3398
-34.4378
-35.3784
-36.1348
-36.7079
-37.1121
-37.3682
-37.4924
-37.4968
-37.4056
-37.2534
-37.0744