/*--------------------------------*- C++ -*----------------------------------*\
| =========                 |                                                 |
| \\      /  F ield         | OpenFOAM: The Open Source CFD Toolbox           |
|  \\    /   O peration     | Version:  2112                                  |
|   \\  /    A nd           | Website:  www.openfoam.com                      |
|    \\/     M anipulation  |                                                 |
\*---------------------------------------------------------------------------*/
FoamFile
{
    version     2.0;
    format      ascii;
    arch        "LSB;label=32;scalar=64";
    class       surfaceScalarField;
    location    "0.06";
    object      ddtCorrDdt0(phi);
}
// * * * * * * * * * * * * * * * * * * * * * * * * * * * * * * * * * * * * * //

dimensions      [0 3 -2 0 0 0 0];

oriented        oriented;

internalField   nonuniform List<scalar> 
24170
(
8.71683e-07
-8.71683e-07
2.73081e-06
-1.85912e-06
5.38544e-06
-2.65464e-06
8.69594e-06
-3.3105e-06
1.25852e-05
-3.8893e-06
1.70488e-05
-4.46361e-06
2.21723e-05
-5.12346e-06
2.81368e-05
-5.96447e-06
3.51897e-05
-7.05297e-06
4.35965e-05
-8.40678e-06
5.36004e-05
-1.00039e-05
6.53801e-05
-1.17797e-05
7.90054e-05
-1.36254e-05
9.43877e-05
-1.53823e-05
0.000111157
-1.67698e-05
0.000128582
-1.74249e-05
0.000145052
-1.64696e-05
-8.85892e-06
0.000153911
4.76253e-09
-8.76446e-07
6.79035e-07
-2.5334e-06
2.11538e-06
-4.09098e-06
4.40071e-06
-5.59583e-06
7.5755e-06
-7.06408e-06
1.16731e-05
-8.56122e-06
1.67573e-05
-1.02077e-05
2.29605e-05
-1.21676e-05
3.0498e-05
-1.45904e-05
3.96639e-05
-1.75727e-05
5.08203e-05
-2.11603e-05
6.4367e-05
-2.53265e-05
8.06998e-05
-2.99582e-05
0.000100154
-3.48366e-05
0.000122869
-3.94845e-05
0.000148705
-4.32607e-05
0.000176371
-4.41361e-05
-3.99766e-05
0.000207489
3.38907e-07
-1.21535e-06
1.23831e-06
-3.4328e-06
2.56249e-06
-5.41516e-06
4.2689e-06
-7.30224e-06
6.37539e-06
-9.17058e-06
8.93702e-06
-1.11229e-05
1.20367e-05
-1.33074e-05
1.57516e-05
-1.58825e-05
2.01834e-05
-1.90222e-05
2.54907e-05
-2.288e-05
3.18882e-05
-2.75578e-05
3.9668e-05
-3.31063e-05
4.92086e-05
-3.94988e-05
6.09667e-05
-4.65947e-05
7.54796e-05
-5.39974e-05
9.32651e-05
-6.10462e-05
0.000115373
-6.62442e-05
-6.74365e-05
0.000142833
4.31661e-07
-1.64701e-06
1.58068e-06
-4.58182e-06
3.33061e-06
-7.16509e-06
5.57764e-06
-9.54927e-06
8.25343e-06
-1.18464e-05
1.13194e-05
-1.41888e-05
1.47464e-05
-1.67345e-05
1.85233e-05
-1.96594e-05
2.26295e-05
-2.31284e-05
2.70386e-05
-2.72891e-05
3.17452e-05
-3.22644e-05
3.67714e-05
-3.81325e-05
4.21871e-05
-4.49145e-05
4.81364e-05
-5.2544e-05
5.49376e-05
-6.07986e-05
6.31056e-05
-6.92142e-05
7.39822e-05
-7.71208e-05
-8.2953e-05
8.94988e-05
4.48678e-07
-2.09569e-06
1.66447e-06
-5.79761e-06
3.54806e-06
-9.04868e-06
6.01518e-06
-1.20164e-05
9.00992e-06
-1.48411e-05
1.25037e-05
-1.76825e-05
1.64837e-05
-2.07145e-05
2.09441e-05
-2.41198e-05
2.58772e-05
-2.80615e-05
3.12667e-05
-3.26787e-05
3.7084e-05
-3.80817e-05
4.32879e-05
-4.43364e-05
4.98294e-05
-5.1456e-05
5.66675e-05
-5.93821e-05
6.38355e-05
-6.79666e-05
7.15555e-05
-7.69342e-05
8.04764e-05
-8.60418e-05
-9.49946e-05
9.2518e-05
4.65964e-07
-2.56166e-06
1.73747e-06
-7.06912e-06
3.70308e-06
-1.10143e-05
6.27763e-06
-1.4591e-05
9.40476e-06
-1.79682e-05
1.30567e-05
-2.13345e-05
1.72266e-05
-2.48843e-05
2.19164e-05
-2.88096e-05
2.71365e-05
-3.32816e-05
3.29029e-05
-3.8445e-05
3.92342e-05
-4.4413e-05
4.61553e-05
-5.12576e-05
5.37028e-05
-5.90035e-05
6.1943e-05
-6.76224e-05
7.1012e-05
-7.70355e-05
8.12253e-05
-8.71475e-05
9.31342e-05
-9.79507e-05
-0.000109906
0.000108045
4.82622e-07
-3.04428e-06
1.80329e-06
-8.38978e-06
3.84291e-06
-1.30539e-05
6.51204e-06
-1.72601e-05
9.74733e-06
-2.12035e-05
1.35115e-05
-2.50986e-05
1.77888e-05
-2.91616e-05
2.25767e-05
-3.35975e-05
2.78831e-05
-3.85882e-05
3.37248e-05
-4.42867e-05
4.01272e-05
-5.08154e-05
4.71309e-05
-5.82613e-05
5.48035e-05
-6.6676e-05
6.32635e-05
-7.60824e-05
7.2722e-05
-8.64941e-05
8.35526e-05
-9.79781e-05
9.63309e-05
-0.000110729
-0.000125447
0.000111872
4.96352e-07
-3.54063e-06
1.85772e-06
-9.75115e-06
3.95968e-06
-1.51559e-05
6.70637e-06
-2.00068e-05
1.00263e-05
-2.45235e-05
1.38732e-05
-2.89456e-05
1.82225e-05
-3.35109e-05
2.30638e-05
-3.84388e-05
2.83974e-05
-4.39217e-05
3.42327e-05
-5.0122e-05
4.05896e-05
-5.71723e-05
4.75046e-05
-6.51763e-05
5.50428e-05
-7.42143e-05
6.33181e-05
-8.43577e-05
7.25234e-05
-9.56994e-05
8.29633e-05
-0.000108418
9.50652e-05
-0.000122831
-0.000139797
0.000109415
5.06365e-07
-4.047e-06
1.89623e-06
-1.1141e-05
4.04003e-06
-1.72997e-05
6.83548e-06
-2.28022e-05
1.02039e-05
-2.78919e-05
1.40905e-05
-3.28322e-05
1.84608e-05
-3.78812e-05
2.32949e-05
-4.32729e-05
2.85835e-05
-4.92104e-05
3.43267e-05
-5.58653e-05
4.0535e-05
-6.33806e-05
4.72339e-05
-7.18751e-05
5.4473e-05
-8.14534e-05
6.23393e-05
-9.22241e-05
7.09704e-05
-0.00010433
8.0559e-05
-0.000118007
9.13029e-05
-0.000133575
-0.000151792
0.000103298
5.10958e-07
-4.55795e-06
1.91278e-06
-1.25428e-05
4.07172e-06
-1.94586e-05
6.87969e-06
-2.56102e-05
1.02502e-05
-3.12624e-05
1.41191e-05
-3.67011e-05
1.84412e-05
-4.22033e-05
2.31857e-05
-4.80174e-05
2.83319e-05
-5.43566e-05
3.38675e-05
-6.14009e-05
3.97882e-05
-6.93014e-05
4.6101e-05
-7.81879e-05
5.28285e-05
-8.81809e-05
6.00139e-05
-9.94094e-05
6.77193e-05
-0.000112036
7.60132e-05
-0.000126301
8.49178e-05
-0.000142479
-0.000161256
9.43822e-05
5.08428e-07
-5.06638e-06
1.90116e-06
-1.39356e-05
4.04154e-06
-2.1599e-05
6.81605e-06
-2.83847e-05
1.01302e-05
-3.45766e-05
1.391e-05
-4.04808e-05
1.80991e-05
-4.63925e-05
2.26542e-05
-5.25724e-05
2.75402e-05
-5.92426e-05
3.27281e-05
-6.65888e-05
3.81935e-05
-7.47667e-05
4.39164e-05
-8.39109e-05
4.98817e-05
-9.41462e-05
5.60756e-05
-0.000105603
6.24748e-05
-0.000118435
6.90236e-05
-0.000132849
7.55797e-05
-0.000149035
-0.000167556
8.18788e-05
4.21609e-07
-5.48799e-06
1.5711e-06
-1.50851e-05
3.33323e-06
-2.33611e-05
5.60842e-06
-3.06599e-05
8.31093e-06
-3.72791e-05
1.13707e-05
-4.35406e-05
1.47308e-05
-4.97526e-05
1.83437e-05
-5.61853e-05
2.21667e-05
-6.30657e-05
2.61597e-05
-7.05818e-05
3.02825e-05
-7.88895e-05
3.44927e-05
-8.81211e-05
3.87423e-05
-9.83958e-05
4.29713e-05
-0.000109832
4.70937e-05
-0.000122558
5.09763e-05
-0.000136732
5.43991e-05
-0.000152458
-0.000170179
5.70221e-05
4.6471e-07
-5.9527e-06
1.72647e-06
-1.63468e-05
3.65286e-06
-2.52875e-05
6.12718e-06
-3.31342e-05
9.04578e-06
-4.01977e-05
1.232e-05
-4.68148e-05
1.58739e-05
-5.33065e-05
1.96394e-05
-5.99508e-05
2.35514e-05
-6.69777e-05
2.75437e-05
-7.45742e-05
3.15454e-05
-8.28911e-05
3.54755e-05
-9.20512e-05
3.92371e-05
-0.000102157
4.27064e-05
-0.000113302
4.57161e-05
-0.000125567
4.80316e-05
-0.000139047
4.93192e-05
-0.000153746
-0.000169974
4.9115e-05
4.90232e-07
-6.44294e-06
1.81111e-06
-1.76677e-05
3.81569e-06
-2.72921e-05
6.37001e-06
-3.56885e-05
9.35079e-06
-4.31785e-05
1.26475e-05
-5.01116e-05
1.61599e-05
-5.6819e-05
1.97928e-05
-6.35836e-05
2.34497e-05
-7.06346e-05
2.7028e-05
-7.81525e-05
3.04126e-05
-8.62757e-05
3.34695e-05
-9.51081e-05
3.60361e-05
-0.000104724
3.79094e-05
-0.000115175
3.8829e-05
-0.000126487
3.84572e-05
-0.000138676
3.63601e-05
-0.000151649
-0.000165595
3.1981e-05
4.80058e-07
-6.923e-06
1.75555e-06
-1.89432e-05
3.67181e-06
-2.92084e-05
6.08085e-06
-3.80976e-05
8.84042e-06
-4.59381e-05
1.18165e-05
-5.30876e-05
1.48806e-05
-5.98831e-05
1.79038e-05
-6.66068e-05
2.07503e-05
-7.34811e-05
2.32707e-05
-8.06729e-05
2.52954e-05
-8.83004e-05
2.66263e-05
-9.6439e-05
2.70281e-05
-0.000105126
2.62169e-05
-0.000114364
2.38494e-05
-0.000124119
1.95112e-05
-0.000134337
1.27165e-05
-0.000144854
-0.000155762
2.88302e-06
4.06487e-07
-7.32948e-06
1.4549e-06
-1.99916e-05
2.99729e-06
-3.07507e-05
4.8819e-06
-3.99822e-05
6.95383e-06
-4.801e-05
9.05873e-06
-5.51925e-05
1.10402e-05
-6.18645e-05
1.2734e-05
-6.83006e-05
1.39616e-05
-7.47088e-05
1.45247e-05
-8.12359e-05
1.41981e-05
-8.79738e-05
1.27246e-05
-9.49655e-05
9.80852e-06
-0.00010221
5.11076e-06
-0.000109666
-1.75343e-06
-0.000117255
-1.12155e-05
-0.000124875
-2.37358e-05
-0.000132334
-0.000139664
-3.98338e-05
2.30317e-07
-7.5598e-06
7.63056e-07
-2.05244e-05
1.48639e-06
-3.14741e-05
2.26595e-06
-4.07617e-05
2.95163e-06
-4.86957e-05
3.38437e-06
-5.56253e-05
3.39203e-06
-6.18722e-05
2.78546e-06
-6.7694e-05
1.35535e-06
-7.32787e-05
-1.13099e-06
-7.87496e-05
-4.93193e-06
-8.41729e-05
-1.03329e-05
-8.95646e-05
-1.76461e-05
-9.48965e-05
-2.72074e-05
-0.000100105
-3.93692e-05
-0.000105093
-5.44932e-05
-0.000109751
-7.29211e-05
-0.000113906
-0.000117566
-9.50193e-05
-9.279e-08
-7.46701e-06
-4.94517e-07
-2.01226e-05
-1.21815e-06
-3.07504e-05
-2.33742e-06
-3.96425e-05
-3.96408e-06
-4.7069e-05
-6.23214e-06
-5.33572e-05
-9.29648e-06
-5.88078e-05
-1.33358e-05
-6.36546e-05
-1.85527e-05
-6.80618e-05
-2.51713e-05
-7.21309e-05
-3.3433e-05
-7.59112e-05
-4.3591e-05
-7.94065e-05
-5.59042e-05
-8.25833e-05
-7.06267e-05
-8.53822e-05
-8.7997e-05
-8.77229e-05
-0.000108229
-8.95192e-05
-0.000131483
-9.06519e-05
-9.11282e-05
-0.000157921
-6.53644e-07
-6.81336e-06
-2.51957e-06
-1.82567e-05
-5.44355e-06
-2.78265e-05
-9.43022e-06
-3.56558e-05
-1.44608e-05
-4.20384e-05
-2.05588e-05
-4.72592e-05
-2.78013e-05
-5.15653e-05
-3.62969e-05
-5.5159e-05
-4.61754e-05
-5.81833e-05
-5.75817e-05
-6.07247e-05
-7.06613e-05
-6.28316e-05
-8.55604e-05
-6.45075e-05
-0.000102417
-6.57265e-05
-0.000121331
-6.64682e-05
-0.000142364
-6.66901e-05
-0.000165536
-6.63472e-05
-0.0001908
-6.53882e-05
-6.38324e-05
-0.000218095
-8.80592e-07
-5.93277e-06
-2.98942e-06
-1.61479e-05
-6.20664e-06
-2.46092e-05
-1.04463e-05
-3.14161e-05
-1.56279e-05
-3.68568e-05
-2.16987e-05
-4.11885e-05
-2.86184e-05
-4.46456e-05
-3.63775e-05
-4.73998e-05
-4.49849e-05
-4.95759e-05
-5.44727e-05
-5.12369e-05
-6.48584e-05
-5.24459e-05
-7.61657e-05
-5.32002e-05
-8.84091e-05
-5.34831e-05
-0.000101574
-5.33032e-05
-0.00011563
-5.26339e-05
-0.000130519
-5.14587e-05
-0.000146139
-4.97679e-05
-4.75826e-05
-0.000162389
-8.20192e-07
-5.11257e-06
-3.03804e-06
-1.393e-05
-6.50369e-06
-2.11436e-05
-1.09898e-05
-2.693e-05
-1.63463e-05
-3.15003e-05
-2.24655e-05
-3.50693e-05
-2.9281e-05
-3.78301e-05
-3.67598e-05
-3.99209e-05
-4.4862e-05
-4.14738e-05
-5.35169e-05
-4.2582e-05
-6.26063e-05
-4.33565e-05
-7.23771e-05
-4.34294e-05
-8.2649e-05
-4.32112e-05
-9.33427e-05
-4.26095e-05
-0.00010443
-4.15467e-05
-0.000115839
-4.0049e-05
-0.000127463
-3.81444e-05
-3.58373e-05
-0.000139208
-7.91732e-07
-4.32084e-06
-2.99259e-06
-1.17292e-05
-6.36581e-06
-1.77704e-05
-1.06854e-05
-2.26104e-05
-1.57939e-05
-2.63918e-05
-2.15698e-05
-2.92934e-05
-2.7918e-05
-3.14819e-05
-3.47524e-05
-3.30865e-05
-4.20666e-05
-3.41596e-05
-5.00117e-05
-3.46369e-05
-5.7593e-05
-3.57753e-05
-6.59691e-05
-3.50532e-05
-7.44775e-05
-3.47028e-05
-8.31117e-05
-3.39753e-05
-9.19342e-05
-3.27243e-05
-0.000100749
-3.12344e-05
-0.00010951
-2.93835e-05
-2.72125e-05
-0.000118134
-7.54472e-07
-3.56637e-06
-2.81101e-06
-9.67264e-06
-5.94461e-06
-1.46368e-05
-9.96139e-06
-1.85936e-05
-1.46951e-05
-2.16581e-05
-2.00076e-05
-2.39809e-05
-2.57885e-05
-2.5701e-05
-3.19514e-05
-2.69236e-05
-3.83782e-05
-2.77328e-05
-4.48143e-05
-2.82008e-05
-5.21101e-05
-2.84794e-05
-5.90386e-05
-2.81247e-05
-6.61699e-05
-2.75715e-05
-7.28832e-05
-2.72621e-05
-8.00383e-05
-2.55691e-05
-8.69852e-05
-2.42875e-05
-9.37449e-05
-2.26237e-05
-2.07393e-05
-0.000100218
-6.93957e-07
-2.87241e-06
-2.57843e-06
-7.78816e-06
-5.43167e-06
-1.17835e-05
-9.06243e-06
-1.49629e-05
-1.33151e-05
-1.74054e-05
-1.80661e-05
-1.92299e-05
-2.32102e-05
-2.05569e-05
-2.86486e-05
-2.14852e-05
-3.42925e-05
-2.20888e-05
-4.00949e-05
-2.23985e-05
-4.61041e-05
-2.24702e-05
-5.19939e-05
-2.22349e-05
-5.7817e-05
-2.17483e-05
-6.39819e-05
-2.10972e-05
-6.95519e-05
-1.99992e-05
-7.50545e-05
-1.87849e-05
-8.03731e-05
-1.73052e-05
-1.57915e-05
-8.53209e-05
-6.24699e-07
-2.24771e-06
-2.32093e-06
-6.09194e-06
-4.88872e-06
-9.21572e-06
-8.15452e-06
-1.16971e-05
-1.19671e-05
-1.35928e-05
-1.62013e-05
-1.49957e-05
-2.07505e-05
-1.60077e-05
-2.55281e-05
-1.67077e-05
-3.0468e-05
-1.71489e-05
-3.55043e-05
-1.73621e-05
-4.05981e-05
-1.73764e-05
-4.56597e-05
-1.71733e-05
-5.06477e-05
-1.67604e-05
-5.55819e-05
-1.61629e-05
-6.02678e-05
-1.53133e-05
-6.47702e-05
-1.42826e-05
-6.89762e-05
-1.30991e-05
-1.17825e-05
-7.29853e-05
-5.56397e-07
-1.69131e-06
-2.05406e-06
-4.59427e-06
-4.31903e-06
-6.95075e-06
-7.19456e-06
-8.82153e-06
-1.05571e-05
-1.02303e-05
-1.43031e-05
-1.12497e-05
-1.83339e-05
-1.19769e-05
-2.25581e-05
-1.24835e-05
-2.68999e-05
-1.28071e-05
-3.12945e-05
-1.29675e-05
-3.56921e-05
-1.29789e-05
-4.00349e-05
-1.28304e-05
-4.42778e-05
-1.25176e-05
-4.83969e-05
-1.20437e-05
-5.23207e-05
-1.13895e-05
-5.60232e-05
-1.05801e-05
-5.94819e-05
-9.64037e-06
-8.57578e-06
-6.26886e-05
-5.11428e-07
-1.17988e-06
-1.84093e-06
-3.26477e-06
-3.84405e-06
-4.94763e-06
-6.38337e-06
-6.28221e-06
-9.33154e-06
-7.28215e-06
-1.25724e-05
-8.00882e-06
-1.60154e-05
-8.53386e-06
-1.9593e-05
-8.90598e-06
-2.32444e-05
-9.15562e-06
-2.6922e-05
-9.28998e-06
-3.05874e-05
-9.31348e-06
-3.41987e-05
-9.21909e-06
-3.77199e-05
-8.99639e-06
-4.11244e-05
-8.63917e-06
-4.43759e-05
-8.13804e-06
-4.74518e-05
-7.50425e-06
-5.03373e-05
-6.75484e-06
-5.90415e-06
-5.30089e-05
-4.03759e-07
-7.76123e-07
-1.45324e-06
-2.21529e-06
-2.99068e-06
-3.41019e-06
-4.91133e-06
-4.36156e-06
-7.15589e-06
-5.03759e-06
-9.67712e-06
-5.48759e-06
-1.24226e-05
-5.78833e-06
-1.53392e-05
-5.98941e-06
-1.83851e-05
-6.10976e-06
-2.15143e-05
-6.16078e-06
-2.46769e-05
-6.1508e-06
-2.78288e-05
-6.06728e-06
-3.09325e-05
-5.8927e-06
-3.39579e-05
-5.61368e-06
-3.68752e-05
-5.22074e-06
-3.96597e-05
-4.71982e-06
-4.22911e-05
-4.12336e-06
-3.44813e-06
-4.47472e-05
-2.00591e-09
-7.74116e-07
-5.58005e-07
-1.65929e-06
-1.6836e-06
-2.2846e-06
-3.41659e-06
-2.62857e-06
-5.72573e-06
-2.72845e-06
-8.50465e-06
-2.70867e-06
-1.16233e-05
-2.66969e-06
-1.49645e-05
-2.64819e-06
-1.84262e-05
-2.64804e-06
-2.19277e-05
-2.65929e-06
-2.54082e-05
-2.67028e-06
-2.88161e-05
-2.65941e-06
-3.21035e-05
-2.60533e-06
-3.52242e-05
-2.49294e-06
-3.8131e-05
-2.31398e-06
-4.07794e-05
-2.0714e-06
-4.31294e-05
-1.77334e-06
-1.43261e-06
-4.51449e-05
-7.74116e-07
-2.43341e-06
-4.718e-06
-7.34658e-06
-1.0075e-05
-1.27837e-05
-1.54534e-05
-1.81016e-05
-2.07496e-05
-2.34089e-05
-2.60792e-05
-2.87386e-05
-3.13439e-05
-3.38369e-05
-3.61508e-05
-3.82222e-05
-3.99956e-05
-4.14282e-05
1.14873e-05
-1.14873e-05
1.33488e-05
-1.86154e-06
-7.3802e-07
1.40868e-05
-3.37804e-05
3.30424e-05
-8.98203e-05
5.60399e-05
-0.000148383
5.85623e-05
-0.000230126
8.17436e-05
-0.000306023
7.58967e-05
-0.000358985
5.29625e-05
-0.00038016
2.11746e-05
-0.000370815
-9.34521e-06
-0.000334357
-3.64582e-05
-0.000278291
-5.60657e-05
-0.000208656
-6.96347e-05
-0.000129208
-7.94479e-05
-4.15844e-05
-8.76239e-05
5.48404e-05
-9.64248e-05
0.000161955
-0.000107115
0.000283437
-0.000121481
0.000435197
-0.00015176
0.000594747
-0.00015955
0.00075924
-0.000164492
0.000917018
-0.000157778
0.00105027
-0.000133249
0.00113385
-8.35807e-05
0.00113281
1.04075e-06
0.000998216
0.00013459
0.000731444
0.000266773
0.000494834
0.00023661
0.000346653
0.000148181
0.000193669
0.000152983
-2.66063e-05
0.000220276
-0.000380773
0.000354167
-0.000700242
0.000319469
-0.00108446
0.000384217
-0.00135225
0.000267793
-0.00121428
-0.000137967
-0.000711101
-0.000503184
-0.000103977
-0.000607123
0.000332131
-0.000436109
0.000352323
-2.0192e-05
0.000180622
0.000171702
0.000179054
1.56753e-06
0.000419908
-0.000240854
0.000826664
-0.000406756
0.00133524
-0.000508577
0.00178104
-0.000445804
0.00211117
-0.000330125
0.00233056
-0.000219395
0.00243548
-0.000104912
0.0024379
-2.42444e-06
0.0023573
8.05995e-05
0.0022151
0.000142205
0.00202917
0.000185931
0.0018134
0.000215765
0.00157888
0.00023452
0.00133208
0.000246799
0.00108055
0.000251533
0.000830458
0.000250091
0.000581419
0.000249039
0.000329891
0.000251528
7.08059e-05
0.000259085
-0.000103414
0.000174219
-0.000284353
0.000180939
-0.000443853
0.0001595
-0.000583975
0.000140122
-0.000707146
0.000123171
-0.000813249
0.000106103
-0.000901881
8.86317e-05
-0.000973014
7.11331e-05
-0.00102714
5.41233e-05
-0.00106541
3.82719e-05
-0.00108912
2.37084e-05
-0.00109989
1.07675e-05
-0.00109948
-4.07123e-07
-0.00108963
-9.85295e-06
-0.00107191
-1.7713e-05
-0.00104776
-2.41529e-05
-0.0010184
-2.93575e-05
-0.000984873
-3.35287e-05
-0.000948
-3.6873e-05
-0.000908362
-3.96376e-05
-0.000866264
-4.20981e-05
-0.000821819
-4.44448e-05
-0.000775335
-4.64843e-05
-0.000728497
-4.68382e-05
-0.000684155
-4.43421e-05
-0.000639917
-4.42374e-05
-0.000593894
-4.6024e-05
-0.000548485
-4.54087e-05
-0.00050302
-4.54647e-05
-0.000456363
-4.66569e-05
-0.000409238
-4.71253e-05
-0.000362114
-4.71241e-05
-0.000316282
-4.58316e-05
-0.000272225
-4.4057e-05
-0.000229467
-4.27575e-05
-0.000186846
-4.26214e-05
-0.000141621
-4.52245e-05
-8.65546e-05
-5.5066e-05
-1.6542e-05
-7.00125e-05
5.66838e-05
-7.32255e-05
0.000107287
-5.0603e-05
0.00013051
-2.32227e-05
0.000132372
-1.86246e-06
0.00012193
1.04428e-05
0.000109045
1.28846e-05
9.9778e-05
9.26748e-06
9.69179e-05
2.86017e-06
9.99641e-05
-3.04606e-06
0.000105233
-5.26834e-06
0.000110883
-5.65058e-06
0.000116011
-5.12805e-06
0.000122114
-6.10301e-06
0.000132689
-1.05743e-05
0.000150939
-1.82502e-05
0.000175514
-2.45747e-05
0.000196668
-2.11542e-05
0.000194795
1.87263e-06
0.000139924
5.48711e-05
9.85845e-06
0.000130066
-0.000176437
0.000186296
-0.000355696
0.000179259
-0.000465164
0.000109468
-0.000482913
1.77494e-05
-0.000435706
-4.72072e-05
-0.000373295
-6.24108e-05
-0.000332679
-4.06163e-05
-0.000304944
-2.77345e-05
-0.000237052
-6.78921e-05
-0.000102488
-0.000134564
2.32084e-05
-0.000125697
0.000102787
-7.95791e-05
0.000346277
-0.00024349
0.00102152
-0.000675247
0.00207508
-0.00105356
0.00308102
-0.00100594
0.00371319
-0.000632166
0.00378242
-6.92354e-05
0.00356535
0.000217067
0.00317142
0.00039393
0.00268463
0.000486792
0.0021643
0.000520338
0.00162821
0.000536083
0.00107549
0.000552719
0.000519875
0.000555619
-2.71073e-05
0.000546982
-0.000528753
0.000501646
-0.000985135
0.000456382
-0.00141402
0.000428887
-0.00180851
0.000394492
-0.00215706
0.000348542
-0.00244716
0.000290102
-0.00266995
0.000222795
-0.00281953
0.000149579
-0.00290234
8.2812e-05
-0.00292786
2.55142e-05
-0.00291585
-1.20047e-05
-0.00289142
-2.44296e-05
-0.00286018
-3.1248e-05
-0.00280803
-5.2145e-05
-0.00272874
-7.92927e-05
-0.00258651
-0.000142228
-0.00191326
-0.000673249
-0.000370491
-0.00154277
0.00156321
-0.0019337
0.002734
-0.00117079
0.00269698
3.70216e-05
0.00172466
0.000972315
0.000710929
0.00101373
0.000322786
0.000388143
0.000551855
-0.000229069
0.00108861
-0.000536759
0.00167435
-0.000585741
0.00208814
-0.000413782
0.00223325
-0.000145111
0.00198045
0.000252797
0.00148884
0.000491607
0.000688876
0.000799968
0.000684105
4.77034e-06
-3.31587e-05
2.16714e-05
-6.7158e-05
3.21378e-05
-0.00010708
5.40088e-05
-0.000148164
7.41258e-05
-0.000183991
9.18677e-05
-0.000272511
0.000147082
-0.000334519
0.000143751
-0.000365751
0.000107129
-0.000361668
4.88789e-05
-0.000328212
-1.22812e-05
-0.000274756
-6.28009e-05
-0.00021233
-9.88842e-05
-0.00014655
-0.000121846
-8.10388e-05
-0.000135146
-1.78369e-05
-0.00014265
4.23494e-05
-0.00014781
9.95092e-05
-0.000153585
0.000155132
-0.000162737
0.000209312
-0.000175662
0.000243545
-0.000185994
0.000314371
-0.000230376
0.000412413
-0.000262534
0.000544606
-0.000289971
0.000710373
-0.000299016
0.00090043
-0.000273637
0.00109907
-0.000197599
0.00129139
-5.77321e-05
0.00143312
0.000125044
0.00137727
0.000292465
0.0010981
0.000427346
0.000724931
0.000526153
0.000355735
0.000589471
5.02955e-05
0.000659607
-0.000342788
0.000712552
-0.000764592
0.000806021
-0.00100749
0.000510695
-0.000840781
-0.00030468
-0.000394405
-0.000949559
2.07234e-05
-0.00102225
0.000347557
-0.000762942
0.000719592
-0.000392228
0.00130934
-0.000418046
0.00201172
-0.000700808
0.00260995
-0.000839089
0.00293257
-0.000729372
0.00300741
-0.000583421
0.0029511
-0.000389494
0.00279411
-0.000173133
0.00254725
2.74663e-05
0.00224776
0.000194572
0.00192669
0.000318645
0.00160834
0.000398958
0.00130918
0.000441359
0.00103953
0.00045558
0.000803448
0.000451849
0.000599407
0.000438561
0.000425182
0.000421025
0.000275761
0.000400955
0.000144603
0.000381248
3.08855e-05
0.000362757
-5.44575e-05
0.000336871
-0.000189434
0.000394062
-0.000314951
0.000299736
-0.000434126
0.000300114
-0.000559554
0.000284928
-0.00068094
0.000261509
-0.000790641
0.000232872
-0.000885563
0.000201026
-0.000964155
0.000167223
-0.00102576
0.000132738
-0.00107081
9.9178e-05
-0.00110046
6.79146e-05
-0.00111644
3.96867e-05
-0.00112075
1.50791e-05
-0.0011154
-5.75119e-06
-0.00110222
-2.30384e-05
-0.0010827
-3.72318e-05
-0.00105809
-4.87626e-05
-0.00102941
-5.80336e-05
-0.000997561
-6.53808e-05
-0.00096338
-7.10537e-05
-0.000927711
-7.53065e-05
-0.000891325
-7.84844e-05
-0.000854786
-8.09831e-05
-0.000818244
-8.3027e-05
-0.000780575
-8.45068e-05
-0.000740167
-8.47501e-05
-0.000696289
-8.81154e-05
-0.000650705
-9.16081e-05
-0.000602478
-9.36362e-05
-0.000553358
-9.45845e-05
-0.000505191
-9.48236e-05
-0.000458987
-9.33296e-05
-0.000414906
-9.12047e-05
-0.000372529
-8.82088e-05
-0.000332209
-8.43763e-05
-0.000294463
-8.05039e-05
-0.000259646
-7.74379e-05
-0.00022873
-7.61399e-05
-0.000207149
-7.66474e-05
-0.000200887
-7.62745e-05
-0.000200378
-7.37334e-05
-0.0001863
-6.46814e-05
-0.000159464
-5.00585e-05
-0.000126315
-3.50114e-05
-9.4878e-05
-2.09938e-05
-6.58638e-05
-1.61295e-05
-3.84431e-05
-1.81531e-05
-7.19923e-06
-2.83836e-05
3.48239e-05
-4.50691e-05
9.22188e-05
-6.26631e-05
0.000162187
-7.56183e-05
0.000235299
-7.82406e-05
0.000298068
-6.88716e-05
0.000340267
-5.27739e-05
0.000362059
-4.00416e-05
0.000373753
-3.62688e-05
0.000380762
-2.81629e-05
0.000363748
1.88868e-05
0.000287742
0.000130877
0.000121295
0.000296513
-7.61079e-05
0.000383699
-0.000268504
0.000371655
-0.000411225
0.00025219
-0.00048691
9.34339e-05
-0.000499825
-3.4292e-05
-0.000470107
-9.21283e-05
-0.000425611
-8.51121e-05
-0.00037759
-7.57559e-05
-0.000286019
-0.000159463
-8.07125e-05
-0.00033987
0.000312327
-0.000518736
0.00100709
-0.000774345
0.00223638
-0.00147277
0.0038597
-0.00229857
0.00503255
-0.00222641
0.00519908
-0.00117246
0.00459033
-2.34208e-05
0.00375978
0.000761319
0.00286959
0.00110725
0.00209073
0.00117279
0.00146123
0.00111629
0.000955552
0.00102601
0.000542938
0.000948697
0.000192712
0.000902945
-0.000132197
0.000880528
-0.000434662
0.000849446
-0.000800636
0.00086762
-0.00120638
0.000862127
-0.00160118
0.00082369
-0.00196799
0.000761302
-0.00229414
0.000674688
-0.00256838
0.000564345
-0.00278344
0.000437854
-0.00293416
0.000300303
-0.0030224
0.000171051
-0.00305933
6.24378e-05
-0.00306586
-5.46815e-06
-0.00306356
-2.67349e-05
-0.00307229
-2.25142e-05
-0.00310126
-2.31787e-05
-0.00310606
-7.44928e-05
-0.00301011
-0.000238171
-0.00309577
-0.000587589
-0.00328583
-0.00135271
-0.00275221
-0.00246732
-0.00103191
-0.00289108
0.0012419
-0.00223679
0.00342014
-0.00120593
0.00438874
4.51318e-05
0.0036061
0.00117078
0.00224188
0.00113515
0.00186973
-0.000164608
0.00231975
-0.00103576
0.00257614
-0.000670175
0.00238556
4.54705e-05
0.00198172
0.000656634
0.00128662
0.00118671
0.000520791
0.0015658
0.00155927
-0.000354374
-2.78311e-05
4.95024e-05
-5.6984e-05
6.12908e-05
-8.78314e-05
8.48562e-05
-0.000151181
0.000137475
-0.000258041
0.000198728
-0.000316025
0.000205066
-0.000319854
0.00014758
-0.000268846
5.61213e-05
-0.000187211
-3.27564e-05
-9.87866e-05
-0.000100706
-1.76159e-05
-0.000143972
5.03101e-05
-0.00016681
0.000104116
-0.000175653
0.000144671
-0.0001757
0.000172836
-0.000170815
0.000189732
-0.000164706
0.000197582
-0.000161435
0.00019994
-0.000165096
0.000202737
-0.000178458
0.000218559
-0.000201816
0.000227871
-0.000239688
0.000247189
-0.000281852
0.000284467
-0.000327249
0.000353674
-0.000368223
0.000470756
-0.00039072
0.000647543
-0.000374387
0.000884405
-0.000294594
0.00114377
-0.000134319
0.00133245
0.000103781
0.00137129
0.000388503
0.00123505
0.000662397
0.000950135
0.000874386
0.000611035
0.000998707
0.000253465
0.00107012
-0.000150263
0.00120975
-0.00024532
0.000605751
0.000113308
-0.000663308
0.000677655
-0.00151391
0.00108462
-0.00142922
0.00152864
-0.00120696
0.00221257
-0.00107616
0.00285867
-0.00106414
0.00312685
-0.000968997
0.00305756
-0.000769798
0.00283117
-0.00050298
0.00248332
-0.000235567
0.00208188
1.19428e-05
0.00168899
0.000219753
0.00134287
0.000373593
0.00106712
0.000470324
0.000867856
0.000517904
0.000736385
0.000530429
0.000654736
0.000523007
0.000601886
0.00050843
0.000558691
0.000495044
0.000510161
0.00048709
0.00044573
0.000485456
0.000358058
0.000488626
0.000246165
0.000493142
0.000114667
0.000494255
-4.39522e-05
0.00049549
-0.000148469
0.000498579
-0.000325708
0.000476975
-0.000480543
0.000454949
-0.000621017
0.000425402
-0.000747657
0.000388149
-0.000858215
0.00034343
-0.000950261
0.000293072
-0.00102236
0.000239327
-0.0010743
0.000184671
-0.00110674
0.000131623
-0.00112108
8.22556e-05
-0.00112003
3.86336e-05
-0.00110663
1.67764e-06
-0.00108401
-2.83748e-05
-0.00105521
-5.18362e-05
-0.00102292
-6.9522e-05
-0.00098916
-8.25193e-05
-0.000955146
-9.20473e-05
-0.000921301
-9.92265e-05
-0.000887527
-0.000104827
-0.000853675
-0.000109158
-0.000819943
-0.000112217
-0.00078691
-0.000114016
-0.000755353
-0.000114584
-0.000725634
-0.000114225
-0.000696572
-0.000113813
-0.000668765
-0.000115923
-0.000639419
-0.000120953
-0.000605677
-0.000127378
-0.00056632
-0.000133942
-0.000522363
-0.000138781
-0.00047585
-0.000139843
-0.000429671
-0.000137384
-0.000384933
-0.000132947
-0.000342568
-0.000126741
-0.000303654
-0.000119418
-0.000269077
-0.000112014
-0.000239608
-0.000105609
-0.00021609
-0.000100165
-0.000198354
-9.40104e-05
-0.000185644
-8.64429e-05
-0.000173612
-7.67139e-05
-0.000158851
-6.48193e-05
-0.00014159
-5.22717e-05
-0.000121369
-4.1215e-05
-0.000102812
-3.46863e-05
-8.83518e-05
-3.26129e-05
-8.0767e-05
-3.59684e-05
-7.75842e-05
-4.82518e-05
-7.56125e-05
-6.46348e-05
-6.26162e-05
-8.86145e-05
-2.57168e-05
-0.00011514
4.12636e-05
-0.000135852
0.000130031
-0.000141541
0.000218175
-0.000128186
0.000280338
-9.84312e-05
0.000301674
-4.94994e-05
0.00028053
4.00315e-05
0.000219029
0.000192378
0.000142626
0.000372916
2.92462e-05
0.000497079
-7.41719e-05
0.000475073
-0.000154842
0.000332859
-0.000204779
0.000143371
-0.000221653
-1.74172e-05
-0.000213293
-0.000100489
-0.000199272
-9.91333e-05
-0.000177111
-9.79163e-05
-7.37216e-05
-0.000262852
0.000262821
-0.000676413
0.00106392
-0.00131983
0.00253516
-0.00224559
0.00440395
-0.00334156
0.00555859
-0.00345322
0.00528311
-0.00195093
0.00421601
-0.00010536
0.00307928
0.00111331
0.00220846
0.00163214
0.00163096
0.00168476
0.00126801
0.00153574
0.00101692
0.00136739
0.000794976
0.00124795
0.00055348
0.00119019
0.000272141
0.00118428
-6.13626e-05
0.00121403
-0.000405566
0.00119365
-0.000801869
0.00126392
-0.00119232
0.00125258
-0.00157062
0.00120198
-0.00192165
0.00111233
-0.00223252
0.000985559
-0.00249367
0.000825496
-0.00269411
0.000638294
-0.00282986
0.000436055
-0.00290078
0.000241966
-0.00292064
8.2302e-05
-0.00291317
-1.29384e-05
-0.00290334
-3.65685e-05
-0.00291259
-1.3264e-05
-0.00294937
1.36065e-05
-0.00300719
-1.66735e-05
-0.00305815
-0.00018722
-0.00306439
-0.00058134
-0.00317378
-0.00124333
-0.00352174
-0.00211937
-0.00340962
-0.0030032
-0.00202453
-0.00362188
0.000602157
-0.00383262
0.00355957
-0.00291228
0.00530417
-0.000573817
0.00490303
0.00153628
0.0034399
0.00129852
0.00263604
-0.00023189
0.00252342
-0.00055756
0.00240586
0.000163033
0.00210827
0.000954222
0.00149109
0.00180389
0.000557455
0.00249944
0.00248471
-0.000367987
2.54449e-05
2.40575e-05
1.41884e-05
7.25473e-05
-9.0328e-05
0.000189373
-0.000229119
0.000276266
-0.00029476
0.00026437
-0.000249643
0.000159949
-0.000130775
2.87118e-05
7.23811e-06
-8.18918e-05
0.000127761
-0.000153279
0.00021569
-0.000188635
0.000271842
-0.000200124
0.000303424
-0.000198391
0.000316375
-0.000188604
0.000313072
-0.000172397
0.000294353
-0.000152096
0.000262691
-0.000133044
0.000223712
-0.000122455
0.000185078
-0.000126462
0.000154509
-0.000147889
0.000138021
-0.000185329
0.000132592
-0.000234259
0.000143158
-0.000292418
0.000167904
-0.000351996
0.000208351
-0.000408669
0.000274094
-0.000456463
0.000383139
-0.000483432
0.000555075
-0.00046653
0.000793134
-0.000372378
0.00106535
-0.000168436
0.0013015
0.000152351
0.00141834
0.000545562
0.00136553
0.000927199
0.00117993
0.0011843
0.00087965
0.00137041
0.00055401
0.00153539
0.000891795
0.000267966
0.00169316
-0.00146467
0.00211936
-0.00194011
0.00245065
-0.00176051
0.00276243
-0.00151873
0.00298093
-0.00129466
0.0029328
-0.00101602
0.00264419
-0.000680382
0.00222187
-0.000347482
0.0017733
-5.4412e-05
0.00135766
0.00018008
0.00102237
0.000347228
0.000793641
0.000448484
0.000671717
0.000495517
0.000634935
0.000507107
0.000649631
0.000503208
0.000680461
0.0004996
0.000698384
0.000505084
0.000685132
0.000521682
0.000633295
0.000546881
0.000544064
0.000576322
0.000423968
0.000605552
0.000281722
0.000630872
0.00012526
0.000649604
-4.12671e-05
0.000660782
-0.000211957
0.000666179
-0.000372623
0.000659245
-0.000536336
0.000640689
-0.00069328
0.000611893
-0.00083921
0.000571332
-0.000970279
0.000519218
-0.00108335
0.000456501
-0.0011757
0.000385421
-0.00124554
0.000309169
-0.00129229
0.000231424
-0.00131651
0.000155835
-0.00131966
8.54078e-05
-0.0013036
2.25719e-05
-0.00127043
-3.14913e-05
-0.00122259
-7.62105e-05
-0.00116312
-0.000111306
-0.00109596
-0.00013668
-0.00102581
-0.000152676
-0.000957589
-0.000160265
-0.000895569
-0.000161247
-0.000842217
-0.000158179
-0.000797534
-0.000153842
-0.000759175
-0.000150576
-0.000723544
-0.000149647
-0.000688026
-0.000150103
-0.000651383
-0.000150867
-0.000617769
-0.000147427
-0.000587908
-0.000145784
-0.000564117
-0.000144745
-0.000544525
-0.00014697
-0.000525188
-0.000153279
-0.00050174
-0.00016223
-0.000471336
-0.000170246
-0.000434356
-0.000174364
-0.000392904
-0.000174398
-0.000349992
-0.000169653
-0.00030872
-0.000160689
-0.000271476
-0.000149259
-0.000239821
-0.000137263
-0.000214271
-0.000125715