/*--------------------------------*- C++ -*----------------------------------*\
| =========                 |                                                 |
| \\      /  F ield         | OpenFOAM: The Open Source CFD Toolbox           |
|  \\    /   O peration     | Version:  2112                                  |
|   \\  /    A nd           | Website:  www.openfoam.com                      |
|    \\/     M anipulation  |                                                 |
\*---------------------------------------------------------------------------*/
FoamFile
{
    version     2.0;
    format      ascii;
    arch        "LSB;label=32;scalar=64";
    class       volScalarField;
    location    "0.06";
    object      k;
}
// * * * * * * * * * * * * * * * * * * * * * * * * * * * * * * * * * * * * * //

dimensions      [0 2 -2 0 0 0 0];

internalField   nonuniform List<scalar> 
12225
(
1.24919
1.83486
2.1925
2.43346
2.58778
2.68084
2.73946
2.77455
2.79074
2.78997
2.77286
2.73935
2.68907
2.62145
2.53615
2.43201
2.31052
2.16586
0.408118
0.461013
0.514605
0.567869
0.620083
0.672211
0.726725
0.785965
0.851684
0.925021
1.00666
1.09708
1.19651
1.30494
1.42217
1.5479
1.68213
1.82611
0.37584
0.382312
0.391395
0.401093
0.406806
0.40882
0.408521
0.407669
0.408007
0.411097
0.418293
0.430794
0.449722
0.476217
0.51155
0.557335
0.615892
0.691613
0.373122
0.371591
0.371018
0.37176
0.373672
0.376063
0.378542
0.380776
0.382459
0.382785
0.381738
0.379565
0.376747
0.373979
0.37217
0.372438
0.376305
0.385679
0.373054
0.371176
0.369421
0.367823
0.366433
0.365279
0.364374
0.363725
0.363329
0.363128
0.363038
0.362954
0.362761
0.36235
0.361646
0.360627
0.359445
0.358422
0.373017
0.371103
0.36926
0.367492
0.365809
0.364217
0.362715
0.361303
0.359982
0.358747
0.35759
0.356499
0.355453
0.354434
0.353424
0.352419
0.351457
0.350684
0.37299
0.371058
0.369202
0.367425
0.365729
0.364111
0.362565
0.361088
0.359679
0.358336
0.35706
0.355848
0.354701
0.353617
0.352595
0.351642
0.350785
0.350091
0.372971
0.371029
0.36917
0.367391
0.365693
0.364072
0.362524
0.361044
0.359631
0.358284
0.357003
0.355789
0.354643
0.353571
0.35258
0.351682
0.350908
0.350306
0.372957
0.371008
0.369146
0.367367
0.365669
0.364049
0.362503
0.361026
0.359618
0.358276
0.357001
0.355793
0.354652
0.353583
0.352591
0.351684
0.350884
0.35022
0.372947
0.370992
0.369128
0.367349
0.365653
0.364036
0.362493
0.361021
0.359619
0.358283
0.357015
0.355813
0.354677
0.353609
0.35261
0.351685
0.350841
0.350093
0.372939
0.370979
0.369113
0.367335
0.365641
0.364026
0.362487
0.36102
0.359623
0.358294
0.357031
0.355835
0.354703
0.353635
0.352631
0.351688
0.350809
0.349997
0.372933
0.370968
0.369101
0.367323
0.365629
0.364017
0.362481
0.361018
0.359626
0.358302
0.357044
0.355852
0.354723
0.353655
0.352645
0.35169
0.350787
0.349936
0.372928
0.370959
0.369089
0.367311
0.365618
0.364007
0.362474
0.361015
0.359627
0.358307
0.357054
0.355865
0.354739
0.35367
0.352657
0.351693
0.350776
0.349903
0.372923
0.37095
0.369078
0.367298
0.365606
0.363997
0.362466
0.361011
0.359627
0.358312
0.357064
0.355879
0.354755
0.353688
0.352674
0.351708
0.350785
0.349905
0.372918
0.370942
0.369066
0.367285
0.365593
0.363986
0.362458
0.361007
0.359628
0.358319
0.357076
0.355897
0.354779
0.353716
0.352706
0.351745
0.350828
0.349956
0.372914
0.370933
0.369054
0.367272
0.36558
0.363974
0.36245
0.361004
0.359631
0.358329
0.357094
0.355924
0.354814
0.353762
0.352763
0.351816
0.350918
0.350071
0.372911
0.370926
0.369043
0.367259
0.365567
0.363963
0.362443
0.361002
0.359637
0.358344
0.35712
0.355961
0.354865
0.353829
0.352851
0.351928
0.351059
0.350247
0.372907
0.370919
0.369033
0.367247
0.365555
0.363954
0.362438
0.361005
0.35965
0.358369
0.35716
0.356019
0.354944
0.353932
0.352981
0.35209
0.351259
0.350488
0.372905
0.370913
0.369025
0.367238
0.365548
0.363951
0.362443
0.36102
0.359679
0.358415
0.357226
0.356107
0.355058
0.354075
0.353156
0.352301
0.351507
0.350775
0.372904
0.370911
0.369023
0.367238
0.365553
0.363962
0.362464
0.361054
0.359728
0.358482
0.357313
0.356218
0.355194
0.354239
0.353349
0.352523
0.351759
0.351055
0.372905
0.370913
0.369029
0.367248
0.365569
0.363987
0.362499
0.361102
0.35979
0.358561
0.35741
0.356334
0.35533
0.354395
0.353526
0.352721
0.351977
0.351292
0.372907
0.37092
0.36904
0.367267
0.365596
0.364025
0.36255
0.361168
0.359873
0.358663
0.357533
0.35648
0.355499
0.354588
0.353743
0.35296
0.352238
0.351573
0.372912
0.370931
0.36906
0.367296
0.365635
0.364076
0.362613
0.361243
0.359962
0.358765
0.357649
0.35661
0.355643
0.354746
0.353915
0.353147
0.352438
0.351785
0.372919
0.370947
0.369085
0.367332
0.365686
0.364145
0.362704
0.361359
0.360104
0.358935
0.357848
0.356837
0.355899
0.35503
0.354224
0.35348
0.352792
0.352157
0.372931
0.37097
0.369117
0.367368
0.36572
0.364175
0.362731
0.361382
0.360126
0.358958
0.357875
0.356871
0.355943
0.355085
0.354293
0.353563
0.352891
0.352272
0.372949
0.371015
0.36921
0.36752
0.365945
0.364484
0.363137
0.361902
0.360777
0.359758
0.358841
0.358017
0.35728
0.356624
0.356041
0.355525
0.355071
0.354669
0.372974
0.371059
0.369362
0.367952
0.366908
0.366296
0.366128
0.366363
0.366939
0.367663
0.368438
0.369218
0.369971
0.370674
0.371313
0.37188
0.372374
0.372797
0.373505
0.374894
0.377913
0.381977
0.386561
0.391107
0.394854
0.396832
0.3972
0.396222
0.394187
0.391372
0.388016
0.384315
0.380419
0.376448
0.372485
0.368629
0.38725
0.411806
0.439975
0.469398
0.498324
0.525209
0.55014
0.573744
0.59666
0.619401
0.642323
0.665638
0.689442
0.71375
0.738526
0.763711
0.789264
0.815148
0.98996
1.45558
1.77618
2.01206
2.19214
2.30984
2.39576
2.46523
2.5261
2.58259
2.63708
2.69108
2.74566
2.80159
2.85947
2.91979
2.98269
3.04885
2.87274
2.79211
2.87171
2.9117
2.99255
3.14979
3.41735
3.75155
4.08735
4.30117
4.46097
4.57032
4.67869
4.79916
4.94204
5.11614
5.32977
5.59279
5.91886
6.29595
6.651
6.97472
7.24894
7.44064
7.43852
6.99969
5.96264
4.37644
2.58485
1.29791
0.990942
1.05336
1.26293
1.57569
2.01686
2.44704
2.6665
2.71941
2.68958
2.60751
2.39128
2.03453
1.68747
1.52069
1.70243
2.46742
4.05757
6.49982
8.86828
10.8065
12.5105
13.9286
15.0348
15.8252
16.3112
16.5158
16.47
16.2115
15.8603
15.4302
14.9329
14.3786
13.7739
13.1204
12.4764
11.8439
11.2207
10.6067
10.0028
9.41055
8.83166
8.26808
7.72164
7.19405
6.68677
6.20105
5.73799
5.29871
4.88445
4.49672
4.13747
3.80934
3.51603
3.26281
3.05748
2.91177
2.84062
2.89101
3.05759
3.28173
3.5172
3.74099
3.96503
4.18714
4.40451
4.61474
4.81647
5.00973
5.19606
5.3761
5.53823
5.6388
5.65391
5.60186
5.49782
5.35403
5.17991
4.98259
4.76853
4.54575
4.32451
4.11583
3.92829
3.76522
3.62497
3.50415
3.40209
3.32482
3.28627
3.30423
3.38916
3.55561
3.80914
4.11602
4.46487
4.8273
5.1743
5.49717
5.81387
6.1388
6.41993
6.50375
6.24617
5.69548
4.98024
4.39063
4.68805
6.47145
9.3042
11.7723
13.8207
15.3224
16.203
16.4328
16.1613
15.6012
14.7821
13.7315
12.5567
11.3688
10.209
9.11921
8.1403
7.31618
6.70778
6.4212
6.8357
8.43243
10.8162
13.7061
17.2521
21.7406
27.5533
35.3551
45.2041
53.4036
56.1244
50.0767
36.619
22.5296
12.9313
7.69491
4.98065
3.5189
2.71224
2.298
2.13822
2.18106
2.26416
2.3846
3.19263
2.01901
1.895
1.8052
1.88032
2.46831
3.30755
3.67176
3.79709
3.80435
3.73614
3.61659
3.46392
3.29459
3.12291
2.95994
2.8136
2.68933
2.59169
2.54736
2.61193
2.78252
3.0515
3.39917
3.7844
4.12837
4.33275
4.35558
4.2342
3.90705
3.26826
2.41934
1.67433
1.42913
1.70681
2.22008
2.61812
2.62245
2.31369
2.00007
2.15044
3.0315
4.7027
6.5088
7.4276
7.7504
8.05744
8.30368
8.34715
8.18596
7.85629
7.38747
6.81596
6.18143
5.52345
4.88006
4.28424
3.76124
3.32736
2.98931
2.7488
2.60162
2.53829
2.55882
2.58866
2.62154
2.65547
2.68856
2.71899
2.74488
2.76416
2.7801
2.79322
2.8034
2.8107
2.81539
2.81781
2.81833
2.81722
2.81464
2.81059
2.80479
2.79673
2.78558
2.77029
2.74952
2.7218
2.68696
2.65002
2.60829
2.56111
2.50825
2.44872
2.38089
2.30838
2.23493
2.16227
2.09173
2.02505
1.96547
1.91999
1.91034
1.9349
1.96082
1.97295
1.96873
1.95239
1.93136
1.91124
1.89441
1.88025
1.86714
1.85424
1.84215
1.83296
1.8289
1.82898
1.82467
1.79919
1.73627
1.64581
1.55625
1.47807
1.41521
1.36549
1.32485
1.28944
1.25753
1.23941
1.24937
1.30179
1.43747
1.76809
2.44707
3.67221
5.26368
6.54425
7.04175
7.06727
6.76368
6.25905
5.65076
5.02982
4.46821
4.02195
3.71978
3.57929
3.61264
3.74422
3.8881
4.03516
4.17323
4.28777
4.36224
4.40809
4.43175
4.43511
4.42564
4.41165
4.39739
4.38993
4.40157
4.47063
4.77656
6.19503
11.1908
17.4732
22.4272
25.4016
26.096
22.8909
15.8683
9.28589
5.43236
3.71763
3.12889
2.97606
2.96016
2.99878
3.09906
3.47884
1.86306
1.5672
1.55958
2.58257
3.58294
3.90659
3.793
3.51249
3.20777
2.92912
2.68622
2.47648
2.29572
2.14069
2.00899
1.89837
1.80658
1.73147
1.67152
1.64628
1.66837
1.75251
1.91092
2.14415
2.43074
2.72674
2.99042
3.20397
3.32619
3.26812
2.9822
2.55649
2.15176
2.09989
2.60733
3.26192
3.55019
3.55755
4.29026
5.7067
7.08872
7.46435
7.36919
7.05106
6.66563
6.26665
5.82497
5.32406
4.78476
4.2362
3.70885
3.23147
2.82614
2.50501
2.26964
2.11257
2.02051
1.97797
1.97031
1.98548
2.01465
2.05298
2.09538
2.14046
2.18724
2.23468
2.28152
2.32624
2.36704
2.40179
2.42797
2.44882
2.46359
2.47197
2.47427
2.47191
2.46682
2.46039
2.45405
2.44898
2.44584
2.44457
2.44428
2.44347
2.44011
2.43211
2.41835
2.40055
2.37726
2.34792
2.31252
2.27088
2.2218
2.16784
2.11357
2.0605
2.00884
1.95811
1.90725
1.85461
1.7976
1.73378
1.66204
1.58296
1.49912
1.41403
1.33057
1.25248
1.18432
1.13026
1.09232
1.07107
1.06638
1.07826
1.1068
1.15036
1.20217
1.24813
1.27133
1.26114
1.21493
1.14491
1.07052
1.00253
0.946787
0.910292
0.903935
0.94044
1.03148
1.20091
1.54702
2.28502
3.60467
5.17884
5.9911
5.80024
5.26746
4.66527
4.09788
3.6296
3.28908
3.07627
2.97168
2.94986
2.98694
3.06431
3.16817
3.29403
3.43677
3.58733
3.7311
3.84734
3.93011
3.98474
4.00355
3.98563
3.94611
3.89809
3.84602
3.7963
3.75463
3.72655
3.72776
3.82949
4.32725
6.24156
9.16811
12.317
15.7344
18.6973
18.594
14.3105
8.98417
5.50888
3.90242
3.26381
2.96622
2.82641
2.84354
2.49862
1.58641
1.73035
3.49455
4.70602
4.73667
4.2284
3.62379
3.10285
2.70009
2.39719
2.16684
1.987
1.84287
1.72527
1.62847
1.54849
1.48219
1.42701
1.38104
1.34898
1.33502
1.34677
1.39673
1.49826
1.65709
1.86308
2.09399
2.32939
2.54533
2.69758
2.73678
2.66546
2.59521
2.78143
3.7337
4.96036
6.20996
6.79792
6.87906
7.04572
6.88931
6.40934
5.84001
5.27508
4.74325
4.23914
3.75247
3.2886
2.86535
2.50048
2.20599
1.98498
1.83185
1.7352
1.6816
1.6586
1.65641
1.66823
1.68983
1.71868
1.75334
1.79403
1.83919
1.88831
1.94088
1.9963
2.05376
2.11215
2.16992
2.22514
2.27549
2.31837
2.35111
2.37111
2.37592
2.36702
2.3496
2.32591
2.29916
2.27303
2.25086
2.23492
2.22561
2.22142
2.21969
2.21762
2.21341
2.20625
2.19442
2.17626
2.15072
2.11731
2.07516
2.02741
1.97927
1.93381
1.89265
1.85618
1.82359
1.79293
1.76152
1.72663
1.68596
1.638
1.5822
1.51875
1.44824
1.37135
1.28866
1.20198
1.11634
1.03726
0.969541
0.917068
0.882421
0.865984
0.863776
0.865416
0.856409
0.828539
0.794145
0.76502
0.745474
0.737644
0.744798
0.775232
0.843331
0.967299
1.17062
1.51335
2.16496
3.30006
4.74411
5.51332
5.16518
4.49858
3.86663
3.35406
2.98395
2.74851
2.61823
2.55939
2.54599
2.56307
2.60477
2.67105
2.76395
2.88622
3.03444
3.20029
3.37028
3.52605
3.64383
3.72584
3.75533
3.73081
3.67473
3.60511
3.53052
3.46082
3.40504
3.36911
3.35918
3.38604
3.47781
3.76593
4.76916
6.55588
9.11467
12.469
15.5518
15.7876
12.2616
7.94522
5.12364
3.65577
2.92599
2.58823
2.51411
1.61109
1.5971
4.44413
5.61568
5.19775
4.34173
3.54396
2.93847
2.51228
2.21621
2.00538
1.84799
1.72404
1.62214
1.5364
1.46368
1.40167
1.34841
1.30235
1.26268
1.23056
1.20676
1.19454
1.20088
1.23667
1.31374
1.4381
1.60526
1.80473
2.02617
2.25677
2.47879
2.71321
3.13137
4.10024
6.18433
8.86424
8.2204
7.20416
6.60042
6.05401
5.44785
4.82949
4.25927
3.74722
3.28739
2.87293
2.50493
2.19108
1.93828
1.74727
1.61228
1.52334
1.4692
1.43983
1.42764
1.42763
1.43691
1.45391
1.4777
1.50757
1.54269
1.5826
1.62637
1.67408
1.72594
1.78213
1.8426
1.90686
1.97382
2.0417
2.10808
2.17006
2.22442
2.26792
2.29761
2.31117
2.30727
2.2862
2.25053
2.20569
2.15877
2.11759
2.08791
2.07069
2.06309
2.06009
2.05852
2.05701
2.05331
2.04559
2.03185
2.01033
1.98029
1.94262
1.89971
1.85476
1.81097
1.77079
1.73548
1.70496
1.67806
1.65286
1.62717
1.59894
1.56661
1.52914
1.48596
1.43673
1.38103
1.31816
1.24709
1.16935
1.08901
1.01083
0.939438
0.877926
0.826628
0.782656
0.741613
0.703399
0.679245
0.675057
0.686795
0.710552
0.749348
0.816864
0.935641
1.13283
1.45044
2.00057
2.92336
4.17827
5.08449
4.8544
4.1548
3.51322
3.01988
2.67781
2.46408
2.34139
2.27472
2.23999
2.22531
2.22884
2.25507
2.31061
2.40075
2.5256
2.68159
2.86055
3.05061
3.23708
3.40284
3.52642
3.57712
3.5502
3.47773
3.38153
3.27611
3.17488
3.09443
3.04091
3.01754
3.02909
3.07744
3.16385
3.40678
4.20123
5.77874
8.29671
11.6345
14.3132
13.7895
10.329
6.78922
4.48642
3.23109
2.68423
2.54773
1.16512
4.14774
5.97616
5.35214
4.28395
3.39582
2.77818
2.37262
2.10757
1.92795
1.79636
1.69049
1.59955
1.5197
1.44946
1.38683
1.32943
1.27609
1.22749
1.18535
1.1514
1.1247
1.10718
1.10189
1.11457
1.15441
1.23158
1.35244
1.51847
1.73274
2.00696
2.36843
2.93189
4.05863
6.549
9.85662
9.2486
7.42848
6.23717
5.39587
4.70406
4.09567
3.56255
3.09995
2.69784
2.35007
2.05532
1.8149
1.62854
1.49192
1.39713
1.33478
1.29612
1.27428
1.2647
1.26473
1.27284
1.28792
1.30882
1.33427
1.36304
1.39417
1.42659
1.46065
1.49765
1.53907
1.58628
1.6402
1.70111
1.7684
1.84061
1.91554
1.99049
2.0625
2.12848
2.1852
2.22914
2.25628
2.26215
2.24312
2.19932
2.13498
2.06126
1.99331
1.94272
1.91361
1.90171
1.9002
1.90343
1.90724
1.9092
1.90798
1.90234
1.89076
1.87184
1.84498
1.81097
1.77204
1.73117
1.69125
1.65432
1.62132
1.59208
1.5657
1.54081
1.51599
1.48991
1.46147
1.42983
1.39429
1.35416
1.30857
1.25618
1.19664
1.13183
1.06495
1.00004
0.940878
0.890304
0.850793
0.825147
0.813842
0.813441
0.820565
0.836501
0.872628
0.951811
1.10557
1.37269
1.8197
2.56606
3.61361
4.60063
4.69961
4.03607
3.37241
2.86677
2.51607
2.29167
2.15523
2.07261
2.01937
1.98211
1.95826
1.9529
1.97441
2.03044
2.12522
2.25579
2.4178
2.60254
2.7988
2.99347
3.17133
3.31045
3.38088
3.36295
3.28054
3.15904
3.02569
2.90383
2.80759
2.74237
2.70882
2.70688
2.73677
2.7931
2.89046
3.22074
4.10772
5.83985
8.56854
11.8164
13.5175
11.9704
8.62342
5.69556
3.89335
3.0724
2.82665
1.44303
6.36678
5.89093
4.51355
3.43756
2.7505
2.33139
2.07716
1.91765
1.80396
1.70722
1.61799
1.53792
1.46803
1.40333
1.33733
1.26847
1.2006
1.13945
1.08944
1.05269
1.03077
1.0232
1.0285
1.0467
1.08197
1.14314
1.24124
1.38789
1.60168
1.92227
2.45192
3.47737
5.53325
9.00789
9.77434
7.74965
6.06664
4.972
4.19425
3.58935
3.09138
2.67237
2.31792
2.02029
1.77591
1.58222
1.43541
1.32947
1.25671
1.20926
1.18052
1.16587
1.16248
1.16858
1.18258
1.20246
1.22575
1.24979
1.27231
1.29199
1.30911
1.32438
1.34021
1.35928
1.38413
1.41685
1.45877
1.5102
1.57039
1.6376
1.70948
1.78348
1.8573
1.92916
1.99782
2.06224
2.12062
2.16873
2.19896
2.20372
2.17402
2.10931
2.02096
1.93071
1.86151
1.81622
1.79382
1.78873
1.79305
1.79972
1.80449
1.8059
1.80373
1.79746
1.78586
1.76755
1.74204
1.7102
1.6741
1.63631
1.59913
1.56414
1.53207
1.5029
1.4761
1.45078
1.42594
1.4006
1.37386
1.345
1.31347
1.27875
1.24013
1.19717
1.15074
1.10299
1.05717
1.01696
0.985353
0.962807
0.94487
0.928798
0.916778
0.91859
0.954018
1.05331
1.25634
1.6153
2.21493
3.09439
4.06863
4.53886
4.06164
3.3665
2.82528
2.44489
2.19363
2.03328
1.93153
1.86387
1.81382
1.77516
1.75052
1.74717
1.77316
1.83459
1.93381
2.06702
2.2297
2.41332
2.60886
2.80698
2.99721
3.1567
3.24617
3.24098
3.15906
3.02565
2.87317
2.73032
2.61439
2.53094
2.47909
2.45683
2.46276
2.49571
2.55712
2.72021
3.22656
4.38605
6.45921
9.42502
12.1586
12.5415
10.2174
7.12225
4.84697
3.7027
3.28295
5.04713
7.06232
5.24225
3.74222
2.86544
2.3743
2.09943
1.94437
1.84305
1.75104
1.65555
1.56916
1.50137
1.44176
1.37321
1.29055
1.20167
1.11824
1.04888
0.997136
0.964051
0.953987
0.962657
0.984796
1.01695
1.06014
1.1217
1.21525
1.36078
1.59291
1.99928
2.8366
4.53365
7.52606
9.33169
8.0043
6.07163
4.74077
3.8706
3.25156
2.77398
2.38602
2.06575
1.80305
1.59222
1.42862
1.30698
1.22094
1.16352
1.12818
1.10989
1.1054
1.1126
1.12953
1.15354
1.1811
1.20823
1.23133
1.24792
1.25729
1.26051
1.25974
1.25755
1.25708
1.26138
1.27314
1.29442
1.32627
1.36861
1.42019
1.47885
1.5419
1.60664
1.67073
1.73259
1.79188
1.84991
1.9093
1.97142
2.03256
2.08815
2.12317
2.12292
2.07677
1.99925
1.91002
1.82702
1.76486
1.72891
1.7159
1.71746
1.72439
1.73019
1.73226
1.73066
1.72585
1.71736
1.70392
1.68442
1.6587
1.62775
1.59338
1.55766
1.52232
1.48858
1.45704
1.42771
1.40019
1.37379
1.34768
1.321
1.29302
1.26319
1.23121
1.19691
1.16026
1.1217
1.08228
1.04332
1.00612
0.971517
0.940228
0.914692
0.900957
0.911813
0.970034
1.11099
1.38411
1.85577
2.59518
3.51648
4.24005
4.18322
3.47458
2.87271
2.4461
2.15696
1.96513
1.83879
1.75549
1.6971
1.65269
1.61991
1.60209
1.60501
1.63497
1.69731
1.79438
1.92291
2.0774
2.24926
2.43349
2.6268
2.82778
3.01474
3.13795
3.16354
3.09698
2.96108
2.79387
2.63085
2.49372
2.38898
2.31435
2.26655
2.24426
2.24866
2.28519
2.38497
2.69869
3.48374
5.03397
7.49761
10.4183
12.1436
11.2261
8.51822
5.97986
4.519
3.87447
9.43983
7.14815
4.52282
3.17078
2.51061
2.17075
1.9936
1.89399
1.80901
1.70765
1.60678
1.53681
1.49177
1.43852
1.35766
1.25593
1.15161
1.06063
0.991931
0.947427
0.928429
0.932127
0.950433
0.97926
1.01739
1.06737
1.13791
1.24525
1.42016
1.75089
2.43424
3.80414
6.02792
8.10621
7.86233
6.1485
4.65736
3.68485
3.03581
2.56286
2.19337
1.89566
1.6562
1.46752
1.32383
1.21934
1.14776
1.10266
1.07839
1.0709
1.07769
1.09687
1.12596
1.16125
1.19796
1.23121
1.25698
1.27297
1.27895
1.27655
1.26882
1.25766
1.24557
1.23533
1.22961
1.23083
1.24087
1.2608
1.29064
1.32949
1.37575
1.42738
1.48198
1.53667
1.58821
1.63393
1.67384
1.71249
1.75721
1.81063
1.87731
1.94732
2.00617
2.03577
2.02524
1.97473
1.89671
1.81228
1.74128
1.6947
1.67301
1.66926
1.67385
1.67881
1.68022
1.6777
1.67214
1.66385
1.65208
1.63569
1.61396
1.58706
1.55602
1.52236
1.48768
1.45331
1.42013
1.38852
1.35843
1.32941
1.30082
1.27192
1.242
1.21051
1.17712
1.14176
1.10447
1.06551
1.02557
0.985777
0.947958
0.915022
0.891327
0.884684
0.909851
0.993028
1.17627
1.5204
2.10179
2.93273
3.79605
4.18244
3.75214
3.01548
2.516
2.17745
1.94757
1.78993
1.68434
1.61471
1.5674
1.53455
1.5133
1.50414
1.51066
1.53911
1.59626
1.68595
1.80364
1.94113
2.0899
2.25135
2.42967
2.63617
2.85187
3.01764
3.09531
3.06381
2.94003
2.7666
2.58721
2.42958
2.30228
2.20233
2.12559
2.07175
2.04398
2.05133
2.11494
2.32611
2.87673
4.04271
6.03061
8.72261
11.1049
11.4975
9.61933
7.1363
5.442
4.55919
12.9091
6.65082
3.84094
2.78492
2.31778
2.07761
1.9511
1.86695
1.77188
1.65891
1.5711
1.53462
1.51369
1.46177
1.36847
1.25243
1.1385
1.04524
0.982117
0.950437
0.944515
0.95076
0.967957
0.998278
1.04557
1.11758
1.22535
1.39648
1.69398
2.2571
3.29411
4.92336
6.69175
7.20756
6.11221
4.66505
3.60466
2.91071
2.42847
2.06598
1.78146
1.55668
1.38235
1.25195
1.15953
1.09899
1.06427
1.05024
1.05346
1.07203
1.10444
1.14804
1.19837
1.24947
1.29512
1.33035
1.35265
1.36235
1.36187
1.35461
1.34415
1.33121
1.31663
1.3011
1.28573
1.27224
1.26282
1.25979
1.26511
1.28008
1.30544
1.34142
1.3872
1.44001
1.49412
1.5413
1.57455
1.59391
1.60907
1.62999
1.67093
1.73278
1.8066
1.88078
1.93664
1.95698
1.93421
1.87553
1.80006
1.7294
1.67819
1.65033
1.64106
1.64166
1.64405
1.64357
1.6392
1.63178
1.62204
1.60977
1.59409
1.57413
1.54959
1.52086
1.48894
1.45507
1.42048
1.3861
1.35251
1.31983
1.28784
1.25607
1.22393
1.19084
1.15634
1.1202
1.08248
1.0434
1.00357
0.964254
0.927595
0.897034
0.877838
0.879117
0.917626
1.02329
1.24545
1.65601
2.32771
3.2038
3.93467
3.99446
3.35859
2.68493
2.26047
1.98045
1.78609
1.64928
1.55879
1.50271
1.47076
1.45454
1.44684
1.44433
1.45014
1.47315
1.52269
1.60216
1.7024
1.81377
1.92964
2.06027
2.21675
2.42393
2.65379
2.87216
3.0158
3.03859
2.94404
2.77593
2.58635
2.41061
2.26062
2.1337
2.02575
1.93803
1.87627
1.85116
1.88242
2.02968
2.42927
3.31918
4.91806
7.24859
9.77181
11.0873
10.2173
8.12435
6.35658
5.27226
14.9239
5.77813
3.31839
2.59273
2.24306
2.0407
1.92369
1.83218
1.72709
1.6212
1.56472
1.56464
1.56146
1.50978
1.41122
1.29109
1.17533
1.08263
1.02332
1.00109
0.996384
1.00449
1.02872
1.07449
1.14911
1.264
1.44087
1.72599
2.2072
3.0059
4.19016
5.54527
6.28644
5.81926
4.66677
3.60018
2.8576
2.35349
1.9878
1.7085
1.49189
1.32623
1.20419
1.1198
1.06723
1.04068
1.03521
1.04762
1.07655
1.12115
1.17908
1.24526
1.31209
1.3713
1.41669
1.44619
1.46189
1.46837
1.47055
1.4721
1.47467
1.47659
1.47453
1.46463
1.44427
1.41328
1.37457
1.33379
1.2979
1.27311
1.26399
1.27388
1.30467
1.35579
1.42177
1.48983
1.54257
1.56693
1.56518
1.55261
1.54896
1.56814
1.6165
1.69007
1.77406
1.84712
1.88877
1.88786
1.84797
1.78544
1.72099
1.67036
1.63951
1.62571
1.62176
1.62036
1.61686
1.60983
1.59982
1.58768
1.57357
1.55691
1.53694
1.51311
1.48542
1.45442
1.421
1.38616
1.35079
1.31546
1.28042
1.2456
1.21068
1.17526
1.13895
1.1015
1.06293
1.02359
0.984174
0.946005
0.911363
0.883929
0.869645
0.878566
0.929056
1.05435
1.31046
1.7782
2.51518
3.39795
3.96397
3.7655
3.04662
2.44491
2.07919
1.83683
1.66008
1.53447
1.45451
1.4133
1.40084
1.40466
1.4109
1.41285
1.41566
1.43243
1.47394
1.53915
1.61332
1.68985
1.76711
1.86569
2.00138
2.191
2.43869
2.70682
2.92076
3.01133
2.96193
2.81165
2.61942
2.42886
2.25643
2.10103
1.95998
1.83693
1.74061
1.68269
1.68169
1.77905
2.07659
2.76486
4.05728
6.02829
8.40161
10.1908
10.2274
8.75446
7.10995
5.90939
15.3978
4.80555
3.0529
2.55413
2.23024
2.02062
1.89108
1.78969
1.68939
1.60934
1.58701
1.61082
1.6175
1.57356
1.48729
1.38229
1.28017
1.19619
1.13946
1.11746
1.11226
1.12881
1.17025
1.24348
1.35931
1.53616
1.80706
2.22539
2.85624
3.73184
4.72942
5.41305
5.32189
4.55907
3.62232
2.86195
2.32879
1.95061
1.6693
1.45536
1.2938
1.176
1.09585
1.04783
1.02647
1.02668
1.04495
1.07994
1.13154
1.19831
1.27512
1.35283
1.42071
1.4709
1.50178
1.51788
1.52695
1.53682
1.553
1.57758
1.60855
1.64357
1.6746
1.69196
1.68654
1.65264
1.59074
1.50897
1.42173
1.34416
1.28678
1.25641
1.2571
1.29149
1.35893
1.44911
1.53902
1.59907
1.61092
1.58457
1.54489
1.51472
1.51195
1.54598
1.61395
1.70016
1.78109
1.83422
1.84692
1.82101
1.77048
1.71396
1.66641
1.63451
1.61704
1.60839
1.60244
1.59499
1.58452
1.57132
1.55617
1.5394
1.52073
1.4995
1.47513
1.44737
1.41646
1.383
1.34776
1.31147
1.27468
1.23766
1.20044
1.16289
1.12479
1.08602
1.04665
1.00709
0.968142
0.931225
0.898714
0.874482
0.864863
0.880647
0.941327
1.0827
1.36602
1.87632
2.65811
3.51902
3.92659
3.55431
2.82066
2.2757
1.94829
1.72587
1.55843
1.44014
1.36934
1.34174
1.34912
1.37445
1.39592
1.40238
1.40213
1.41262
1.44496
1.49011
1.53088
1.56663
1.60645
1.67155
1.78401
1.96721
2.22878
2.53785
2.81783
2.9815
2.98882
2.8677
2.6804
2.47846
2.28366
2.098
1.92206
1.76303
1.63266
1.54361
1.51203
1.56848
1.79059
2.32657
3.37601
5.03382
7.14151
9.04742
9.7152
8.91092
7.55634
6.35525
14.893
4.04575
3.03434
2.59843
2.24668
2.00967
1.86006
1.75366
1.6709
1.6225
1.62145
1.65113
1.67169
1.65576
1.60276
1.52751
1.44781
1.37899
1.33147
1.31317
1.31473
1.34546
1.41027
1.51831
1.68433
1.93099
2.28963
2.7936
3.45181
4.17799
4.71616
4.77658
4.32734
3.60823
2.9005
2.34864
1.95115
1.66092
1.44429
1.28269
1.16551
1.08604
1.03907
1.01957
1.02239
1.04306
1.07926
1.13102
1.19834
1.27759
1.3595
1.43106
1.48131
1.50694
1.51321
1.51059
1.51046
1.52195
1.55005
1.59495
1.65302
1.72225
1.7932
1.85377
1.89008
1.88931
1.84347
1.75378
1.63449
1.50997
1.40023
1.32008
1.27709
1.27593
1.32099
1.41111
1.52947
1.63959
1.69884
1.69442
1.64441
1.57786
1.5226
1.49946
1.51919
1.57884
1.66154
1.74248
1.79858
1.81721
1.79958
1.75778
1.70798
1.66353
1.63092
1.60995
1.5964
1.58536
1.57327
1.55871
1.54181
1.52324
1.5034
1.48216
1.45897
1.43325
1.40467
1.37327
1.33941
1.30367
1.26663
1.22876
1.19032
1.15146
1.11218
1.07252
1.03269
0.993166
0.954861
0.919285
0.888913
0.867768
0.862466
0.884266
0.953329
1.10667
1.40853
1.94716
2.75429
3.57909
3.86035
3.38929
2.67003
2.16143
1.8537
1.63942
1.47615
1.3619
1.29754
1.2816
1.30635
1.35092
1.38792
1.4032
1.40458
1.41109
1.43159
1.44693
1.44738
1.44195
1.44914
1.49087
1.59021
1.77093
2.04395
2.38472
2.7208
2.95498
3.02464
2.94106
2.76513
2.55463
2.33697
2.11884
1.90633
1.71143
1.54864
1.43131
1.37274
1.39549
1.5592
1.97745
2.83061
4.22545
6.05263
7.86317
8.85807
8.60955
7.6248
6.53704
13.8588
3.73161
3.1586
2.68975
2.29836
2.02433
1.85053
1.74021
1.67121
1.63924
1.64485
1.67746
1.71379
1.73231
1.7248
1.69558
1.65536
1.617
1.59328
1.5825
1.59904
1.64939
1.74109
1.88507
2.09652
2.39397
2.79351
3.28925
3.81153
4.20166
4.29103
4.03471
3.53025
2.93862
2.40368
1.98888
1.68372
1.45877
1.29267
1.17246
1.0903
1.04099
1.02017
1.02308
1.0444
1.07968
1.1273
1.18805
1.26142
1.3411
1.41416
1.46598
1.48825
1.48317
1.46139
1.43696
1.42287
1.42825
1.45695
1.50766
1.57698
1.66112
1.75283
1.84252
1.91737
1.964
1.97061
1.92806
1.83559
1.71158
1.57639
1.45429
1.36474
1.31935
1.32466
1.38753
1.50506
1.64934
1.76983
1.82307
1.80057
1.72619
1.63519
1.55896
1.51965
1.52751
1.57812
1.65333
1.72812
1.78043
1.79874
1.78419
1.7472
1.70156
1.65878
1.6248
1.6
1.58129
1.56479
1.54762
1.52855
1.50765
1.48551
1.46248
1.43849
1.41306
1.38566
1.35591
1.32375
1.28941
1.25328
1.21582
1.1774
1.13833
1.0988
1.05903
1.01935
0.980343
0.943016
0.908987
0.88082
0.862638
0.861189
0.887843
0.962847
1.12363
1.43604
1.99004
2.80541
3.59293
3.79106
3.27844
2.58199
2.09125
1.78778
1.57353
1.41045
1.29694
1.23551
1.22687
1.26344
1.32268
1.37488
1.40272
1.4106
1.41426
1.41529
1.39711
1.36205
1.3256
1.30942
1.33684
1.4314
1.6158
1.90054
2.26511
2.64483
2.9409
3.07233
3.03056
2.87026
2.65282
2.41093
2.15778
1.90744
1.67779
1.48534
1.34331
1.26231
1.25796
1.37592
1.70309
2.39644
3.57085
5.14533
6.77394
7.86601
7.98917
7.36124
6.4685
12.3999
3.92714
3.34416
2.82599
2.39101
2.07762
1.87699
1.7563
1.68924
1.66084
1.66365
1.69081
1.73188
1.77461
1.80953
1.83264
1.84507
1.85194
1.86226
1.88046
1.92331
1.99928
2.11815
2.29124
2.53009
2.84023
3.20612
3.57012
3.8329
3.90182
3.74779
3.4072
2.95268
2.47704
2.06253
1.74109
1.50241
1.32668
1.19902
1.11019
1.05474
1.02898
1.02934
1.05084
1.08707
1.13257
1.18566
1.24772
1.31819
1.38935
1.44659
1.47558
1.47082
1.43827
1.39165
1.34693
1.31775
1.31247
1.33356
1.37912
1.44524
1.52556
1.61556
1.70985
1.79736
1.86712
1.91158
1.92281
1.89141
1.82214
1.72081
1.60096
1.48646
1.40205
1.36465
1.38533
1.4723
1.61872
1.78543
1.91091
1.95164
1.9077
1.81102
1.70099
1.61032
1.56056
1.5599
1.6016
1.66653
1.73068
1.77423
1.78745
1.77159
1.73566
1.69135
1.64846
1.61223
1.58325
1.55926
1.5372
1.51481
1.49114
1.46628
1.44069
1.41465
1.38805
1.36047
1.33141
1.30052
1.2677
1.23306
1.19688
1.15952
1.12131
1.08255
1.04357
1.00481
0.966963
0.931096
0.898936
0.873131
0.857857
0.859862
0.890396
0.969348
1.13364
1.44908
2.0056
2.81579
3.57341
3.7317
3.21853
2.54563
2.05845
1.74725
1.52666
1.36012
1.24398
1.18127
1.17396
1.21499
1.28243
1.34663
1.38746
1.40373
1.40384
1.38433
1.33853
1.27784
1.2214
1.19284
1.21632
1.31537
1.51072
1.80951
2.19224
2.60331
2.94909
3.13608
3.13561
2.99225
2.76786
2.49957
2.20881
1.92025
1.65828
1.44006
1.27747
1.17877
1.15368
1.23615
1.49394
2.0587
3.04824
4.40794
5.84571
6.90953
7.23918
6.90233
6.24056
10.9259
4.17513
3.56684
3.01486
2.54653
2.1953
1.96347
1.82268
1.74529
1.71033
1.70434
1.71967
1.7519
1.79752
1.85268
1.91308
1.97482
2.03531
2.09428
2.15947
2.24197
2.35163
2.49805
2.68808
2.91992
3.17386
3.40614
3.55896
3.58793
3.48142
3.25218
2.92361
2.53701
2.15462
1.82923
1.57727
1.38915
1.25044
1.1508
1.08453
1.04885
1.04202
1.06138
1.10128
1.15298
1.20819
1.2636
1.3211
1.3818
1.43947
1.48039
1.491
1.46662
1.4138
1.34687
1.28288
1.23656
1.21708
1.22706
1.26557
1.32241
1.3897
1.46619
1.55239
1.63744
1.71137
1.76874
1.80427
1.8156
1.80061
1.75557
1.67892
1.57953
1.48098
1.41245
1.39577
1.44469
1.56612
1.74423
1.92568
2.04375
2.0639
1.99822
1.88464
1.76343
1.66603
1.61165
1.60539
1.63818
1.69073
1.74113
1.77246
1.77701
1.75636
1.7184
1.67312
1.62875
1.58969
1.5565
1.5274
1.50005
1.47273
1.44479
1.41633
1.3877
1.35907
1.33027
1.30091
1.27054
1.23886
1.20574
1.17125
1.13559
1.09904
1.06192
1.0246
0.98757
0.951564
0.917705
0.887803
0.864567
0.852183
0.857289
0.890797
0.971818
1.13587
1.44714
1.99435
2.78902
3.52798
3.68527
3.202
2.55302
2.05962
1.73139
1.49844
1.3245
1.20226
1.13375
1.12132
1.15897
1.22695
1.29739
1.34812
1.37144
1.36805
1.33288
1.27053
1.19669
1.13293
1.10358
1.13339
1.24612
1.45999
1.7764
2.1741
2.60625
2.98816
3.21984
3.25505
3.12646
2.89334
2.59594
2.26565
1.93989
1.64957
1.41067
1.23212
1.12018
1.08016
1.1354
1.34148
1.80525
2.6412
3.82109
5.09276
6.08631
6.51878
6.4012
5.96509
9.39238
4.45176
3.82987
3.27878
2.80079
2.41832
2.15236
1.98153
1.88184
1.83129
1.81276
1.81521
1.83351
1.86695
1.91662
1.98282
2.06353
2.15492
2.25312
2.35945
2.47888
2.61731
2.77795
2.95647
3.13604
3.28717
3.37706
3.38486
3.30803
3.15206
2.91984
2.62074
2.28803
1.97144
1.70694
1.50198
1.34703
1.23071
1.14605
1.09067
1.06484
1.06976
1.10553
1.16315
1.23117
1.29793
1.35737
1.41034
1.45925
1.50141
1.52745
1.52687
1.49517
1.43689
1.36389
1.29131
1.23238
1.19544
1.18584
1.2076
1.24694
1.29447
1.3497
1.41304
1.48288
1.55431
1.6193
1.66996
1.70175
1.71308
1.70262
1.66768
1.60636
1.52575
1.44864
1.40545
1.42021
1.50784
1.66971
1.87474
2.0573
2.15604
2.15254
2.0696
1.94671
1.82164
1.72279
1.66627
1.65436
1.6766
1.71467
1.74937
1.76666
1.76062
1.73314
1.69126
1.64352
1.59677
1.55452
1.51716
1.48329
1.45111
1.4194
1.38775
1.35628
1.3252
1.29456
1.26415
1.2336
1.20252
1.17064
1.13784
1.10416
1.06977
1.0349
0.999923
0.965322
0.931835
0.900623
0.873509
0.853229
0.843933
0.852047
0.887958
0.969642
1.13048
1.43168
1.96019
2.73251
3.46449
3.65129
3.21844
2.59449
2.09073
1.74074
1.49111
1.30645
1.17538
1.09751
1.0747
1.10217
1.16315
1.23247
1.28705
1.31387
1.3079
1.26474
1.19681
1.12202
1.06254
1.04283
1.08857
1.2242
1.46457
1.80318
2.2152
2.66094
3.06537
3.32721
3.38783
3.2684
3.02294
2.69339
2.32248
1.96202
1.64876
1.39521
1.20561
1.08451
1.03474
1.07101
1.24101
1.62993
2.34342
3.37546
4.51337
5.43931
5.92627
5.97098
5.72676
8.06745
4.65939
4.06481
3.55511
3.11661
2.72725