/*--------------------------------*- C++ -*----------------------------------*\
| =========                 |                                                 |
| \\      /  F ield         | OpenFOAM: The Open Source CFD Toolbox           |
|  \\    /   O peration     | Version:  2112                                  |
|   \\  /    A nd           | Website:  www.openfoam.com                      |
|    \\/     M anipulation  |                                                 |
\*---------------------------------------------------------------------------*/
FoamFile
{
    version     2.0;
    format      ascii;
    arch        "LSB;label=32;scalar=64";
    class       volVectorField;
    location    "0.06";
    object      U_0;
}
// * * * * * * * * * * * * * * * * * * * * * * * * * * * * * * * * * * * * * //

dimensions      [0 1 -1 0 0 0 0];

internalField   nonuniform List<vector> 
12225
(
(9.75528 0.0629214 0)
(9.25393 0.1006 0)
(8.70417 0.108374 0)
(8.12889 0.110993 0)
(7.55554 0.110404 0)
(6.99441 0.10716 0)
(6.44818 0.102412 0)
(5.91913 0.0968444 0)
(5.40924 0.0908246 0)
(4.91934 0.0846576 0)
(4.44925 0.0785682 0)
(3.99837 0.0726724 0)
(3.566 0.0669844 0)
(3.1512 0.0614535 0)
(2.75364 0.055977 0)
(2.37093 0.0506241 0)
(2.00632 0.0462138 0)
(1.64118 0.0426711 0)
(10.1062 0.0774222 0)
(10.3212 0.117115 0)
(10.4686 0.128408 0)
(10.5494 0.142006 0)
(10.5746 0.155327 0)
(10.5477 0.166724 0)
(10.4713 0.176875 0)
(10.3494 0.186161 0)
(10.1866 0.19467 0)
(9.98668 0.202546 0)
(9.75286 0.209982 0)
(9.48744 0.217162 0)
(9.19215 0.224249 0)
(8.86785 0.231417 0)
(8.51521 0.238901 0)
(8.13213 0.247303 0)
(7.72101 0.257811 0)
(7.2618 0.276008 0)
(10.0111 0.0365919 0)
(10.0607 0.0597681 0)
(10.1149 0.0733678 0)
(10.1709 0.0930005 0)
(10.2342 0.113227 0)
(10.3034 0.131855 0)
(10.3733 0.149832 0)
(10.4394 0.167778 0)
(10.4981 0.18585 0)
(10.5467 0.204251 0)
(10.5821 0.223283 0)
(10.6018 0.243267 0)
(10.6032 0.26454 0)
(10.5838 0.287452 0)
(10.5414 0.312661 0)
(10.472 0.340843 0)
(10.3766 0.375191 0)
(10.2408 0.417026 0)
(10.0061 0.0321257 0)
(10.0328 0.0667688 0)
(10.0563 0.0847444 0)
(10.0725 0.101099 0)
(10.0885 0.116256 0)
(10.1075 0.129636 0)
(10.1293 0.142369 0)
(10.1541 0.155388 0)
(10.1827 0.16915 0)
(10.2152 0.183988 0)
(10.252 0.200281 0)
(10.2929 0.218468 0)
(10.3378 0.239034 0)
(10.3864 0.262499 0)
(10.4384 0.289799 0)
(10.4931 0.321721 0)
(10.5511 0.361575 0)
(10.6159 0.40885 0)
(10.0043 0.0274651 0)
(10.0254 0.0606225 0)
(10.0455 0.0774175 0)
(10.0586 0.092478 0)
(10.0691 0.107792 0)
(10.0795 0.122071 0)
(10.0893 0.135666 0)
(10.0982 0.149263 0)
(10.1068 0.16317 0)
(10.1157 0.177595 0)
(10.1256 0.192828 0)
(10.1373 0.209202 0)
(10.1516 0.227101 0)
(10.1698 0.246963 0)
(10.1934 0.269482 0)
(10.225 0.295367 0)
(10.2665 0.326079 0)
(10.3289 0.36191 0)
(10.0031 0.0231672 0)
(10.0196 0.0547675 0)
(10.0377 0.0730953 0)
(10.0509 0.0891958 0)
(10.0615 0.105328 0)
(10.0717 0.120298 0)
(10.0812 0.134288 0)
(10.0894 0.148043 0)
(10.0965 0.161978 0)
(10.1029 0.176325 0)
(10.109 0.191319 0)
(10.1151 0.207213 0)
(10.1219 0.22426 0)
(10.1301 0.242706 0)
(10.141 0.262826 0)
(10.1565 0.284883 0)
(10.1785 0.308753 0)
(10.2144 0.334205 0)
(10.0022 0.0197629 0)
(10.0153 0.0498323 0)
(10.0312 0.0692365 0)
(10.044 0.0855967 0)
(10.0546 0.101555 0)
(10.0647 0.116512 0)
(10.0743 0.1306 0)
(10.0829 0.144485 0)
(10.0906 0.158573 0)
(10.0978 0.173051 0)
(10.1047 0.188082 0)
(10.1117 0.203839 0)
(10.1192 0.220461 0)
(10.1279 0.238035 0)
(10.1389 0.256547 0)
(10.1535 0.275824 0)
(10.1736 0.295044 0)
(10.203 0.312719 0)
(10.0016 0.0170811 0)
(10.012 0.0452729 0)
(10.0259 0.0650812 0)
(10.0381 0.0815644 0)
(10.0485 0.0974351 0)
(10.0584 0.112548 0)
(10.0679 0.126911 0)
(10.0767 0.141026 0)
(10.0848 0.15526 0)
(10.0925 0.169778 0)
(10.1001 0.184695 0)
(10.1079 0.200113 0)
(10.1163 0.216071 0)
(10.1261 0.232509 0)
(10.138 0.249185 0)
(10.1533 0.265577 0)
(10.1732 0.280502 0)
(10.2001 0.291753 0)
(10.0012 0.0149179 0)
(10.0095 0.0410708 0)
(10.0215 0.0608838 0)
(10.0331 0.0774997 0)
(10.0433 0.0933242 0)
(10.053 0.108515 0)
(10.0624 0.123034 0)
(10.0714 0.137252 0)
(10.0797 0.151506 0)
(10.0877 0.165949 0)
(10.0958 0.18065 0)
(10.104 0.195636 0)
(10.113 0.210851 0)
(10.1232 0.226099 0)
(10.1353 0.240964 0)
(10.1502 0.254699 0)
(10.1685 0.26598 0)
(10.1915 0.272536 0)
(10.0009 0.0131379 0)
(10.0076 0.0372423 0)
(10.0181 0.0567203 0)
(10.0289 0.0733458 0)
(10.0389 0.089055 0)
(10.0484 0.104206 0)
(10.0578 0.118785 0)
(10.0668 0.133056 0)
(10.0754 0.147299 0)
(10.0837 0.161639 0)
(10.0921 0.176099 0)
(10.1007 0.190638 0)
(10.11 0.205116 0)
(10.1202 0.219245 0)
(10.132 0.232507 0)
(10.1457 0.244072 0)
(10.1616 0.252672 0)
(10.1801 0.256299 0)
(10.0007 0.0116386 0)
(10.0063 0.0337581 0)
(10.0154 0.0526186 0)
(10.0255 0.0690873 0)
(10.0351 0.0846137 0)
(10.0445 0.0996484 0)
(10.0539 0.114216 0)
(10.063 0.128486 0)
(10.0718 0.142671 0)
(10.0804 0.156863 0)
(10.089 0.171048 0)
(10.0979 0.185134 0)
(10.1073 0.19893 0)
(10.1173 0.212096 0)
(10.1283 0.224093 0)
(10.1405 0.234129 0)
(10.1537 0.241125 0)
(10.1676 0.243471 0)
(10.0006 0.0104295 0)
(10.0053 0.0307913 0)
(10.0134 0.0488987 0)
(10.0229 0.0650821 0)
(10.0323 0.0803781 0)
(10.0415 0.0952392 0)
(10.0508 0.10972 0)
(10.06 0.123925 0)
(10.069 0.138006 0)
(10.0778 0.152025 0)
(10.0867 0.165945 0)
(10.0957 0.179643 0)
(10.105 0.192902 0)
(10.1147 0.205379 0)
(10.1249 0.216568 0)
(10.1355 0.225784 0)
(10.1463 0.232185 0)
(10.1566 0.234571 0)
(10.0005 0.0093718 0)
(10.0046 0.0280596 0)
(10.0119 0.0452642 0)
(10.0207 0.0610194 0)
(10.0298 0.0760146 0)
(10.039 0.0906389 0)
(10.0483 0.104962 0)
(10.0575 0.119048 0)
(10.0666 0.132991 0)
(10.0757 0.146827 0)
(10.0847 0.1605 0)
(10.0938 0.173876 0)
(10.103 0.186737 0)
(10.1123 0.198767 0)
(10.1217 0.209534 0)
(10.1309 0.218498 0)
(10.1395 0.22506 0)
(10.1467 0.228413 0)
(10.0005 0.00827293 0)
(10.004 0.025123 0)
(10.0105 0.0411724 0)
(10.0187 0.0562784 0)
(10.0275 0.0708232 0)
(10.0366 0.0850903 0)
(10.0458 0.0991472 0)
(10.0552 0.113024 0)
(10.0645 0.126765 0)
(10.0738 0.140376 0)
(10.083 0.153794 0)
(10.0921 0.166886 0)
(10.1011 0.179462 0)
(10.11 0.191264 0)
(10.1185 0.201974 0)
(10.1263 0.211231 0)
(10.133 0.218698 0)
(10.1376 0.223957 0)
(10.0004 0.0071202 0)
(10.0035 0.0219657 0)
(10.0093 0.0365906 0)
(10.017 0.0507684 0)
(10.0255 0.0646444 0)
(10.0345 0.0783793 0)
(10.0438 0.0920157 0)
(10.0532 0.105555 0)
(10.0628 0.119002 0)
(10.0722 0.13234 0)
(10.0816 0.145505 0)
(10.0908 0.158393 0)
(10.0998 0.170861 0)
(10.1083 0.18274 0)
(10.1161 0.193846 0)
(10.1229 0.204012 0)
(10.1282 0.213134 0)
(10.1314 0.221126 0)
(10.0003 0.005893 0)
(10.0031 0.0185318 0)
(10.0084 0.0314301 0)
(10.0156 0.0443443 0)
(10.0239 0.0572612 0)
(10.0328 0.0702245 0)
(10.0422 0.0832345 0)
(10.0519 0.0962668 0)
(10.0617 0.109299 0)
(10.0715 0.122302 0)
(10.0812 0.135229 0)
(10.0906 0.14801 0)
(10.0997 0.160572 0)
(10.1082 0.17284 0)
(10.1158 0.184763 0)
(10.1223 0.196331 0)
(10.1275 0.207604 0)
(10.1306 0.218726 0)
(10.0003 0.00455484 0)
(10.0028 0.0147129 0)
(10.0078 0.0255238 0)
(10.0147 0.0367677 0)
(10.0229 0.0483413 0)
(10.0319 0.0601954 0)
(10.0415 0.0722826 0)
(10.0516 0.0845558 0)
(10.0618 0.0969773 0)
(10.0722 0.109517 0)
(10.0824 0.122145 0)
(10.0924 0.134835 0)
(10.1021 0.147573 0)
(10.1111 0.160364 0)
(10.1195 0.173244 0)
(10.1269 0.186296 0)
(10.1332 0.199643 0)
(10.1381 0.213537 0)
(10.0003 0.00303987 0)
(10.0027 0.0103164 0)
(10.0076 0.0185781 0)
(10.0144 0.0276507 0)
(10.0228 0.0373888 0)
(10.0321 0.0476797 0)
(10.0422 0.0584346 0)
(10.0528 0.0695862 0)
(10.0639 0.081087 0)
(10.0751 0.0929069 0)
(10.0864 0.105031 0)
(10.0975 0.117459 0)
(10.1084 0.130212 0)
(10.119 0.143328 0)
(10.1291 0.156874 0)
(10.1386 0.170949 0)
(10.1475 0.185652 0)
(10.1556 0.201237 0)
(10.0003 0.00122477 0)
(10.0028 0.00494775 0)
(10.0078 0.00995416 0)
(10.0151 0.0161452 0)
(10.0239 0.0233524 0)
(10.034 0.0314098 0)
(10.045 0.0401923 0)
(10.0568 0.0496119 0)
(10.0691 0.059605 0)
(10.0818 0.070128 0)
(10.0947 0.0811575 0)
(10.1077 0.0926899 0)
(10.1208 0.104738 0)
(10.1338 0.117331 0)
(10.1466 0.130507 0)
(10.1593 0.144327 0)
(10.1719 0.15882 0)
(10.1842 0.174184 0)
(10.0003 -0.000613123 0)
(10.0031 -0.000525967 0)
(10.0088 0.00111852 0)
(10.0168 0.0042915 0)
(10.0266 0.0087907 0)
(10.0377 0.014394 0)
(10.0499 0.0209456 0)
(10.063 0.0283415 0)
(10.0768 0.0365004 0)
(10.0911 0.0453584 0)
(10.1058 0.054872 0)
(10.1208 0.0650147 0)
(10.136 0.0757687 0)
(10.1513 0.0871292 0)
(10.1667 0.0990962 0)
(10.1821 0.11168 0)
(10.1976 0.124854 0)
(10.2132 0.138752 0)
(10.0004 -0.00228599 0)
(10.0036 -0.00548414 0)
(10.01 -0.00678813 0)
(10.019 -0.00618883 0)
(10.0298 -0.00399479 0)
(10.042 -0.000508972 0)
(10.0553 0.00408628 0)
(10.0696 0.00966554 0)
(10.0847 0.016118 0)
(10.1004 0.0233499 0)
(10.1166 0.0312988 0)
(10.1332 0.0399428 0)
(10.15 0.0492361 0)
(10.1671 0.0591446 0)
(10.1844 0.0696414 0)
(10.2019 0.0807117 0)
(10.2195 0.0923025 0)
(10.2372 0.104499 0)
(10.0005 -0.00401415 0)
(10.0043 -0.0105108 0)
(10.0119 -0.0145719 0)
(10.0221 -0.0162692 0)
(10.0339 -0.0161547 0)
(10.0471 -0.0146124 0)
(10.0615 -0.0118019 0)
(10.0769 -0.00785107 0)
(10.0932 -0.00290716 0)
(10.11 0.00291304 0)
(10.1275 0.00952577 0)
(10.1454 0.0168387 0)
(10.1636 0.024818 0)
(10.1821 0.0334244 0)
(10.2008 0.0425885 0)
(10.2198 0.0522651 0)
(10.2389 0.0623925 0)
(10.2582 0.0730243 0)
(10.0006 -0.00590065 0)
(10.0054 -0.0157683 0)
(10.0144 -0.0223048 0)
(10.0259 -0.0259295 0)
(10.0389 -0.0276312 0)
(10.0531 -0.0278856 0)
(10.0686 -0.026815 0)
(10.0851 -0.0245487 0)
(10.1025 -0.0212471 0)
(10.1205 -0.0170241 0)
(10.1391 -0.0119579 0)
(10.1581 -0.00613976 0)
(10.1775 0.000382211 0)
(10.1972 0.00754112 0)
(10.2171 0.015292 0)
(10.2372 0.023572 0)
(10.2575 0.032279 0)
(10.278 0.0414364 0)
(10.0008 -0.0080675 0)
(10.0071 -0.0214026 0)
(10.018 -0.0300871 0)
(10.0309 -0.0352921 0)
(10.0448 -0.0384392 0)
(10.0598 -0.0399572 0)
(10.0762 -0.039973 0)
(10.0936 -0.0387338 0)
(10.1119 -0.0364737 0)
(10.1308 -0.0333251 0)
(10.1503 -0.0293604 0)
(10.1703 -0.0246206 0)
(10.1907 -0.0191962 0)
(10.2114 -0.0131687 0)
(10.2323 -0.00658836 0)
(10.2534 0.000477906 0)
(10.2747 0.00793034 0)
(10.296 0.0157719 0)
(10.0012 -0.0107093 0)
(10.0096 -0.0273501 0)
(10.0227 -0.0375411 0)
(10.0371 -0.0443399 0)
(10.052 -0.049534 0)
(10.0681 -0.0530469 0)
(10.0855 -0.0548128 0)
(10.1038 -0.0551407 0)
(10.1228 -0.0543095 0)
(10.1424 -0.0524586 0)
(10.1627 -0.0496717 0)
(10.1834 -0.0460317 0)
(10.2045 -0.0416368 0)
(10.2259 -0.0365692 0)
(10.2475 -0.0309377 0)
(10.2693 -0.0248248 0)
(10.2912 -0.0183143 0)
(10.3132 -0.0114232 0)
(10.0019 -0.0142484 0)
(10.0133 -0.0340821 0)
(10.0288 -0.043868 0)
(10.044 -0.0499427 0)
(10.0593 -0.0550472 0)
(10.0761 -0.058864 0)
(10.0942 -0.0612504 0)
(10.1132 -0.0624945 0)
(10.1329 -0.0627766 0)
(10.1533 -0.0621299 0)
(10.1743 -0.0605937 0)
(10.1958 -0.0582326 0)
(10.2178 -0.0551216 0)
(10.24 -0.0513377 0)
(10.2624 -0.0469695 0)
(10.2851 -0.0420883 0)
(10.3078 -0.0367945 0)
(10.3306 -0.0310158 0)
(10.003 -0.0184547 0)
(10.0194 -0.0439578 0)
(10.0383 -0.057519 0)
(10.0546 -0.0667503 0)
(10.0707 -0.073754 0)
(10.0889 -0.0783649 0)
(10.1091 -0.0810658 0)
(10.1306 -0.08245 0)
(10.1535 -0.0827997 0)
(10.1775 -0.0822152 0)
(10.2025 -0.0807513 0)
(10.2283 -0.0784938 0)
(10.2547 -0.0755374 0)
(10.2813 -0.0719767 0)
(10.3082 -0.0679132 0)
(10.3351 -0.0634484 0)
(10.362 -0.0586917 0)
(10.3885 -0.0535811 0)
(10.0047 -0.020046 0)
(10.0311 -0.0362671 0)
(10.063 -0.0439014 0)
(10.0953 -0.0535813 0)
(10.1315 -0.0633294 0)
(10.1725 -0.0712542 0)
(10.2165 -0.0776072 0)
(10.262 -0.0827211 0)
(10.308 -0.0865864 0)
(10.3541 -0.0891876 0)
(10.3995 -0.0905605 0)
(10.4437 -0.0907681 0)
(10.4863 -0.0898879 0)
(10.5268 -0.0880264 0)
(10.5653 -0.0853074 0)
(10.6016 -0.0819394 0)
(10.636 -0.0780166 0)
(10.6682 -0.0740453 0)
(10.0573 -0.0539556 0)
(10.1968 -0.0882356 0)
(10.3169 -0.0973814 0)
(10.4124 -0.106001 0)
(10.4871 -0.113771 0)
(10.5421 -0.119231 0)
(10.5778 -0.122886 0)
(10.5964 -0.125268 0)
(10.6009 -0.126525 0)
(10.5938 -0.126704 0)
(10.5776 -0.125854 0)
(10.5544 -0.124037 0)
(10.5262 -0.121332 0)
(10.4948 -0.117852 0)
(10.4616 -0.113718 0)
(10.4278 -0.109151 0)
(10.3941 -0.104224 0)
(10.3624 -0.0996618 0)
(9.86865 -0.0470181 0)
(9.57121 -0.0826108 0)
(9.23085 -0.0940014 0)
(8.86928 -0.0998733 0)
(8.5084 -0.102328 0)
(8.1581 -0.101738 0)
(7.82178 -0.0991825 0)
(7.50173 -0.0954221 0)
(7.19987 -0.0908478 0)
(6.91737 -0.0856895 0)
(6.65475 -0.0801203 0)
(6.41214 -0.0742887 0)
(6.18941 -0.0683277 0)
(5.98618 -0.0623626 0)
(5.80175 -0.0565075 0)
(5.63539 -0.0508989 0)
(5.48527 -0.0456243 0)
(5.35253 -0.0410125 0)
(-0.262547 0.605435 -6.67685e-21)
(-0.782877 0.659249 6.62676e-21)
(-1.35192 0.604243 0)
(-1.84525 0.442173 0)
(-2.19414 0.191726 0)
(-2.29657 -0.10741 -6.9449e-21)
(-2.09421 -0.396666 0)
(-1.65716 -0.651359 0)
(-0.991831 -0.861064 0)
(-0.166502 -0.994222 0)
(0.753345 -1.04372 3.90632e-21)
(1.69291 -1.01864 0)
(2.60143 -0.9386 0)
(3.43531 -0.822749 0)
(4.16398 -0.685364 0)
(4.76996 -0.535751 5.28738e-21)
(5.24487 -0.378611 0)
(5.58229 -0.214917 0)
(5.78002 -0.0409649 0)
(5.83227 0.150299 0)
(5.70695 0.355533 0)
(5.40864 0.560677 0)
(4.94374 0.744184 0)
(4.32285 0.880281 6.72581e-21)
(3.57087 0.93639 -6.66711e-21)
(2.73146 0.878566 6.72199e-21)
(1.86708 0.665314 6.92002e-21)
(1.10918 0.269854 0)
(0.574697 -0.073238 0)
(0.198332 -0.0692641 -7.60342e-21)
(-0.0908514 0.052742 -7.70465e-21)
(-0.299024 0.0761993 0)
(-0.392585 -0.00387984 0)
(-0.348153 -0.161258 -7.6034e-21)
(-0.114173 -0.353525 0)
(0.353178 -0.527579 0)
(0.972317 -0.56914 6.40058e-21)
(1.57645 -0.425546 0)
(1.99831 -0.152174 6.18998e-21)
(2.11255 0.11257 1.24276e-20)
(1.98452 0.228457 0)
(1.84708 0.154081 0)
(1.80513 -0.0736053 0)
(1.79026 -0.320175 0)
(1.69184 -0.386723 0)
(1.41757 -0.200103 1.27041e-20)
(0.913367 0.0893169 1.30996e-20)
(0.218945 0.330538 1.35981e-20)
(-0.605586 0.518048 0)
(-1.521 0.66111 -1.45619e-20)
(-2.48158 0.754751 0)
(-3.44747 0.799174 1.62726e-20)
(-4.38414 0.799818 1.73719e-20)
(-5.2644 0.765238 0)
(-6.06789 0.704678 0)
(-6.78062 0.626549 0)
(-7.39489 0.538506 2.16465e-20)
(-7.90776 0.446279 0)
(-8.31965 0.354122 0)
(-8.6333 0.26576 0)
(-8.85319 0.184979 0)
(-8.985 0.114797 0)
(-9.03418 0.0551284 0)
(-9.00775 0.00565972 0)
(-8.92746 -0.0338423 0)
(-8.79258 -0.0683843 -1.98364e-20)
(-8.60825 -0.0996048 0)
(-8.37773 -0.128211 0)
(-8.10395 -0.154417 1.53635e-20)
(-7.78991 -0.178141 1.36022e-20)
(-7.43892 -0.199212 0)
(-7.05475 -0.217672 -9.85109e-21)
(-6.64156 -0.23329 7.92383e-21)
(-6.20395 -0.24588 0)
(-5.74694 -0.25535 -4.12397e-21)
(-5.27576 -0.261713 0)
(-4.7956 -0.2651 0)
(-4.3115 -0.265734 -1.03353e-21)
(-3.8281 -0.263897 0)
(-3.3496 -0.259901 3.89265e-21)
(-2.87967 -0.254042 0)
(-2.42144 -0.246551 -6.21247e-21)
(-1.97757 -0.23755 -7.17003e-21)
(-1.55024 -0.227051 -7.99841e-21)
(-1.14137 -0.215053 -1.74081e-20)
(-0.752983 -0.201752 1.85887e-20)
(-0.38578 -0.188348 0)
(-0.0383414 -0.176095 0)
(0.288791 -0.164611 0)
(0.594509 -0.153387 2.09347e-20)
(0.878818 -0.141662 2.10346e-20)
(1.14164 -0.12789 -2.10418e-20)
(1.38213 -0.112519 0)
(1.59949 -0.0967559 2.08356e-20)
(1.79372 -0.0814323 2.06522e-20)
(1.96516 -0.0668275 2.04325e-20)
(2.11431 -0.0527046 0)
(2.24149 -0.0386115 0)
(2.34635 -0.0234972 0)
(2.42732 -0.00402494 1.93891e-20)
(2.47984 0.0247712 0)
(2.49093 0.0590063 0)
(2.4611 0.0846607 -1.85853e-20)
(2.40448 0.0929491 0)
(2.33576 0.0855712 0)
(2.26685 0.0692387 -1.77833e-20)
(2.204 0.050529 0)
(2.14788 0.0335158 0)
(2.09571 0.0189928 1.70782e-20)
(2.0438 0.00617041 1.6863e-20)
(1.98977 -0.00509639 0)
(1.93323 -0.0132299 -1.64451e-20)
(1.87501 -0.015402 0)
(1.81596 -0.0102218 1.60273e-20)
(1.75606 -0.000668827 0)
(1.69411 0.00732943 1.55761e-20)
(1.62812 0.00984393 1.53256e-20)
(1.55709 0.0076774 0)
(1.48448 0.00362158 0)
(1.42396 -0.00200721 0)
(1.3999 -0.0134784 0)
(1.44346 -0.0328246 0)
(1.57463 -0.0527582 0)
(1.78426 -0.0611082 0)
(2.03946 -0.055289 1.40509e-20)
(2.30138 -0.0442774 -1.40319e-20)
(2.54476 -0.0403007 0)
(2.76577 -0.0481061 0)
(2.97322 -0.0591665 0)
(3.16492 -0.0566075 0)
(3.31032 -0.0326753 -2.58171e-20)
(3.37043 -0.00646896 0)
(3.35901 -0.00944871 2.46257e-20)
(3.32608 -0.0397183 -2.40754e-20)
(3.21714 -0.0556356 0)
(2.86092 -0.000463873 0)
(2.10636 0.157062 0)
(0.969745 0.347208 1.16347e-20)
(-0.38926 0.460191 3.83013e-21)
(-1.77686 0.494081 0)
(-3.06418 0.467999 -1.37607e-20)
(-4.19732 0.413347 -2.1759e-20)
(-5.15175 0.348211 2.859e-20)
(-5.92502 0.279531 0)
(-6.5197 0.20975 0)
(-6.93575 0.140402 3.99698e-20)
(-7.16756 0.0722816 0)
(-7.20377 0.00909694 0)
(-7.0667 -0.0474715 0)
(-6.75577 -0.10263 0)
(-6.26975 -0.156266 -2.01797e-20)
(-5.61268 -0.206552 -1.056e-20)
(-4.79581 -0.250897 0)
(-3.83811 -0.286271 1.12702e-20)
(-2.76583 -0.310603 0)
(-1.61235 -0.322277 0)
(-0.409561 -0.321986 4.08906e-20)
(0.80978 -0.315335 0)
(2.01458 -0.302168 5.07136e-20)
(3.18327 -0.279694 0)
(4.29704 -0.24652 0)
(5.33454 -0.20834 5.18358e-20)
(6.2748 -0.174017 0)
(7.11793 -0.0929995 4.75726e-20)
(7.70855 0.15027 0)
(7.52752 0.458835 0)
(6.5261 0.57197 0)
(5.11652 0.351785 -3.45392e-20)
(3.902 -0.0200071 0)
(3.20554 -0.231698 2.84619e-20)
(2.94327 -0.175838 0)
(2.85411 -0.0251318 0)
(2.68664 0.0557374 0)
(2.31608 0.097939 0)
(1.7434 0.140876 0)
(1.03729 0.16903 0)
(0.28795 0.163461 0)
(-0.383321 0.137661 -4.77529e-21)
(-0.840429 0.0815013 0)
(-1.05942 -0.000442504 0)
(-0.0653771 1.47649 2.06705e-20)
(-0.309675 1.53284 -2.07639e-20)
(-0.536474 1.40035 0)
(-0.607407 1.06842 1.50788e-20)
(-0.554854 0.549874 0)
(-0.272018 -0.128033 7.42813e-21)
(0.147344 -0.947882 -1.4727e-20)
(0.837614 -1.71255 -1.32432e-20)
(1.62218 -2.30517 0)
(2.45044 -2.66369 -1.05013e-20)
(3.27315 -2.78937 -3.48358e-21)
(4.04968 -2.72315 0)
(4.75388 -2.52027 0)
(5.37216 -2.2318 0)
(5.89895 -1.89625 0)
(6.33425 -1.53882 -4.97492e-21)
(6.68093 -1.17358 0)
(6.94516 -0.806019 1.49419e-20)
(7.12988 -0.435586 0)
(7.24416 -0.0564107 0)
(7.30674 0.336985 -1.61334e-20)
(7.30091 0.742042 0)
(7.2053 1.1489 1.55211e-20)
(6.9963 1.53808 -6.15923e-21)
(6.64849 1.87539 6.0161e-21)
(6.14212 2.11174 -5.9884e-21)
(5.46576 2.18507 -6.11527e-21)
(4.63613 2.03566 0)
(3.69042 1.68374 0)
(2.7017 1.23079 6.9102e-21)
(1.85676 0.777597 -7.41309e-21)
(1.29226 0.388168 0)
(0.94719 0.0497534 0)
(0.789438 -0.33228 7.46416e-21)
(0.871456 -0.84223 0)
(1.17586 -1.3598 0)
(1.59813 -1.55186 -6.19002e-21)
(1.97554 -1.25743 0)
(2.18086 -0.666386 6.62454e-21)
(2.21151 -0.0945091 -1.23609e-20)
(2.08895 0.184569 0)
(1.8103 0.139549 0)
(1.30718 0.161848 -2.45786e-20)
(0.467654 0.538622 -2.50254e-20)
(-0.609708 1.01881 -2.52528e-20)
(-1.7682 1.44041 1.29727e-20)
(-2.95519 1.77389 -1.20409e-20)
(-4.12112 1.99803 -3.79602e-20)
(-5.22382 2.11495 2.69708e-20)
(-6.22911 2.13364 1.27074e-20)
(-7.11234 2.06766 0)
(-7.86171 1.93573 -1.44504e-20)
(-8.47579 1.75794 1.93881e-20)
(-8.96152 1.55313 0)
(-9.33166 1.33708 0)
(-9.60192 1.12161 0)
(-9.78836 0.914517 -2.04471e-20)
(-9.90618 0.719932 0)
(-9.96859 0.539388 4.66255e-20)
(-9.98623 0.373353 0)
(-9.96722 0.222043 4.74022e-20)
(-9.91764 0.0855245 0)
(-9.83834 -0.036097 -4.60218e-20)
(-9.72893 -0.145529 0)
(-9.57429 -0.243286 4.25462e-20)
(-9.37838 -0.332641 -2.07219e-20)
(-9.14029 -0.415038 0)
(-8.86107 -0.491126 -3.4491e-20)
(-8.54244 -0.560958 -1.50982e-20)
(-8.1867 -0.624163 -1.33677e-20)
(-7.79643 -0.680134 0)
(-7.37498 -0.728118 -1.04418e-20)
(-6.92665 -0.767585 -7.7939e-21)
(-6.45601 -0.797965 0)
(-5.96806 -0.81895 4.05896e-21)
(-5.46798 -0.830581 -5.01888e-21)
(-4.96092 -0.833249 0)
(-4.45171 -0.827635 1.01842e-21)
(-3.94478 -0.814616 0)
(-3.44406 -0.795218 -1.12297e-20)
(-2.95285 -0.770511 0)
(-2.47385 -0.741502 1.81704e-20)
(-2.00913 -0.709072 7.08516e-21)
(-1.56015 -0.673965 -7.71926e-21)
(-1.12785 -0.636949 -1.6889e-20)
(-0.71292 -0.599172 1.81154e-20)
(-0.316068 -0.562386 0)
(0.0610668 -0.526373 0)
(0.417172 -0.48932 0)
(0.751953 -0.452231 -6.18878e-20)
(1.06457 -0.416125 -2.07866e-20)
(1.35489 -0.381066 2.07806e-20)
(1.62327 -0.346634 0)
(1.87078 -0.312499 2.04134e-20)
(2.09837 -0.278802 -2.03733e-20)
(2.30647 -0.246101 -2.01539e-20)
(2.49567 -0.214522 0)
(2.66687 -0.183705 0)
(2.82112 -0.15295 0)
(2.95994 -0.120941 -1.91093e-20)
(3.08641 -0.0855299 0)
(3.21123 -0.0471539 3.70221e-20)
(3.33617 -0.0115368 5.4689e-20)
(3.45211 0.0158593 -3.58401e-20)
(3.55179 0.0336011 0)
(3.63145 0.0435731 -1.73276e-20)
(3.69118 0.0495767 0)
(3.73338 0.0556589 -3.36401e-20)
(3.75948 0.0651311 1.65659e-20)
(3.76873 0.0790664 1.63413e-20)
(3.7573 0.0954466 0)
(3.71926 0.109452 4.785e-20)
(3.64985 0.115987 -3.15048e-20)
(3.54894 0.11335 -1.55685e-20)
(3.42252 0.105502 0)
(3.28076 0.0998567 -1.51671e-20)
(3.13276 0.101016 -4.48465e-20)
(2.98224 0.10531 0)
(2.83137 0.100101 -2.88808e-20)
(2.69363 0.0686631 -2.83185e-20)
(2.605 -0.000850518 -2.78252e-20)
(2.60214 -0.105309 0)
(2.6951 -0.214248 0)
(2.87471 -0.295753 0)
(3.11651 -0.333399 1.37043e-20)
(3.38994 -0.329804 1.37655e-20)
(3.66633 -0.300998 0)
(3.92623 -0.265732 2.68581e-20)
(4.16388 -0.232705 2.63704e-20)
(4.37953 -0.189693 0)
(4.5559 -0.115412 2.53586e-20)
(4.64809 -0.0216985 4.92728e-20)
(4.59439 0.0519704 -2.4212e-20)
(4.2839 0.143788 -2.3753e-20)
(3.51953 0.384499 0)
(2.12233 0.808559 0)
(0.242956 1.23119 0)
(-1.6752 1.44673 -1.12437e-20)
(-3.36138 1.44227 -5.97132e-22)
(-4.71284 1.30908 -1.42417e-20)
(-5.72855 1.11247 1.31491e-20)
(-6.46567 0.906203 -2.51431e-20)
(-6.98789 0.714277 -2.77644e-20)
(-7.34684 0.541018 0)
(-7.57725 0.38142 0)
(-7.69792 0.228357 4.24119e-20)
(-7.7168 0.0760842 0)
(-7.63291 -0.0743906 0)
(-7.40736 -0.2237 -7.0833e-20)
(-7.02252 -0.373349 0)
(-6.4723 -0.519986 -2.25824e-20)
(-5.75848 -0.657987 1.04324e-20)
(-4.89047 -0.78097 0)
(-3.88449 -0.883534 8.84814e-21)
(-2.76382 -0.960625 0)
(-1.55841 -1.00915 0)
(-0.298948 -1.03015 -4.02741e-20)
(0.983825 -1.02259 9.08948e-20)
(2.26259 -0.99389 -4.98845e-20)
(3.51644 -0.952473 0)
(4.73217 -0.900438 0)
(5.90559 -0.83537 4.95181e-20)
(7.02578 -0.753246 0)
(8.04013 -0.629996 4.53634e-20)
(8.9997 -0.373238 0)
(10.0974 0.0870573 0)
(10.8847 0.614999 0)
(10.947 0.963598 3.23559e-20)
(10.186 1.003 0)
(8.5993 0.745955 -2.66766e-20)
(6.60799 0.366025 0)
(5.10873 0.156226 0)
(4.30014 0.204022 5.07062e-20)
(3.64387 0.364554 -4.55634e-20)
(2.80998 0.488176 0)
(1.8948 0.528161 0)
(1.06994 0.488205 0)
(0.40102 0.381319 1.22709e-20)
(0.0353952 0.221404 0)
(-0.154014 0.0202404 1.46425e-20)
(0.149686 1.42492 7.42705e-23)
(0.263299 1.74316 2.80102e-20)
(0.355721 1.40375 0)
(0.538951 0.74848 -2.9328e-20)
(0.857824 -0.0965886 0)
(1.43472 -1.17557 0)
(2.19396 -2.3264 9.7333e-24)
(2.99694 -3.30088 1.20036e-20)
(3.75361 -3.93391 1.247e-20)
(4.41875 -4.19861 9.65538e-21)
(4.97948 -4.15578 0)
(5.44184 -3.89508 0)
(5.81953 -3.49983 -1.39283e-20)
(6.12717 -3.03361 -2.97061e-20)
(6.37751 -2.53917 3.16642e-20)
(6.58093 -2.04195 0)
(6.74567 -1.55453 3.53425e-20)
(6.8773 -1.08032 -1.4904e-20)
(6.97973 -0.617426 0)
(7.05135 -0.160923 3.89652e-20)
(7.09497 0.297481 1.624e-20)
(7.11672 0.768701 -3.86128e-20)
(7.12016 1.26008 -1.55122e-20)
(7.1006 1.76833 0)
(7.04091 2.27328 3.50864e-20)
(6.90956 2.73339 3.34128e-20)
(6.66213 3.08503 0)
(6.25081 3.25366 3.00666e-20)
(5.64663 3.18125 0)
(4.8739 2.85001 2.7777e-20)
(4.03596 2.29708 1.34554e-20)
(3.26099 1.60105 0)
(2.64137 0.839442 0)
(2.20849 0.0310839 0)
(2.01652 -0.848876 0)
(2.04828 -1.67718 0)
(2.09662 -1.93412 0)
(1.99174 -1.39748 2.50635e-20)
(1.69523 -0.499558 -3.89338e-20)
(1.23641 0.293218 0)
(0.610772 0.839681 0)
(-0.323716 1.35469 0)
(-1.51054 1.94408 -1.04662e-21)
(-2.78897 2.50884 2.27563e-20)
(-4.03457 2.95221 4.70334e-20)
(-5.17118 3.25269 -4.79343e-20)
(-6.16207 3.41053 -2.66247e-20)
(-6.98983 3.42904 2.37876e-20)
(-7.65633 3.32406 5.04746e-21)
(-8.17575 3.12115 3.23095e-20)
(-8.57162 2.84931 0)
(-8.87147 2.53705 3.70969e-20)
(-9.10199 2.20884 5.26391e-21)
(-9.2854 1.88322 0)
(-9.43761 1.57241 0)
(-9.56775 1.2832 -4.60209e-20)
(-9.67884 1.01807 0)
(-9.76943 0.776661 0)
(-9.8355 0.557044 5.28446e-20)
(-9.87222 0.35619 1.00414e-19)
(-9.87463 0.170505 -4.75559e-20)
(-9.83759 -0.00284825 0)
(-9.76022 -0.165231 4.60327e-20)
(-9.64079 -0.319343 0)
(-9.47852 -0.466279 4.66183e-20)
(-9.27464 -0.604917 4.01412e-20)
(-9.02968 -0.735243 -7.84807e-20)
(-8.74439 -0.857075 -3.77805e-20)
(-8.41994 -0.969873 0)
(-8.0582 -1.07271 5.79626e-20)
(-7.66185 -1.1643 0)
(-7.23421 -1.24296 6.24632e-20)
(-6.7797 -1.30737 3.45096e-20)
(-6.30366 -1.35657 2.66149e-20)
(-5.81171 -1.39004 -1.88936e-20)
(-5.30965 -1.40788 1.6445e-20)
(-4.80309 -1.41093 0)
(-4.29716 -1.40059 0)
(-3.79625 -1.3784 8.26048e-21)
(-3.30389 -1.34617 2.11358e-20)
(-2.82287 -1.30581 0)
(-2.35526 -1.25917 -1.19549e-20)
(-1.90253 -1.20792 0)
(-1.46562 -1.1534 4.59991e-20)
(-1.04494 -1.09664 5.36242e-22)
(-0.640591 -1.03836 -4.92052e-22)
(-0.252697 -0.978895 -3.78836e-20)
(0.118147 -0.91862 0)
(0.471808 -0.857138 4.0103e-20)
(0.807945 -0.79503 3.22884e-22)
(1.12503 -0.732701 0)
(1.42172 -0.670773 0)
(1.69697 -0.610309 0)
(1.95071 -0.552119 -4.07184e-20)
(2.18386 -0.496298 0)
(2.39734 -0.442917 0)
(2.59205 -0.392028 0)
(2.76935 -0.343431 0)
(2.9309 -0.29652 0)
(3.07878 -0.250595 -3.77673e-20)
(3.21547 -0.206316 0)
(3.34377 -0.165269 -3.67727e-20)
(3.46585 -0.128306 -3.6201e-20)
(3.58186 -0.0964593 3.56231e-20)
(3.68989 -0.0707224 0)
(3.78822 -0.0508095 3.44832e-20)
(3.87582 -0.0350242 0)
(3.95273 -0.0212493 3.34367e-20)
(4.02115 -0.00676163 -3.29603e-20)
(4.08408 0.0115126 -9.74207e-20)
(4.14338 0.036636 0)
(4.19866 0.0709507 -9.4712e-20)
(4.24508 0.113971 -3.10522e-20)
(4.27277 0.160281 0)
(4.26993 0.200682 -6.04797e-20)
(4.22888 0.227119 -5.96228e-20)
(4.15169 0.237692 8.81234e-20)
(4.05073 0.235014 0)
(3.94399 0.215834 2.83413e-20)
(3.85169 0.163117 2.77877e-20)
(3.79025 0.0573916 8.22275e-20)
(3.77205 -0.0973922 0)
(3.80309 -0.261978 0)
(3.87652 -0.38998 0)
(3.9829 -0.456395 2.7009e-20)
(4.11177 -0.465215 0)
(4.25088 -0.439874 0)
(4.39145 -0.407957 -2.66155e-20)
(4.53357 -0.381066 -2.6172e-20)
(4.67525 -0.335409 0)
(4.78441 -0.224482 0)
(4.7793 -0.0288588 -4.91511e-20)
(4.49532 0.258917 0)
(3.66273 0.725962 4.73281e-20)
(2.0861 1.43611 4.438e-20)
(0.0185025 2.15366 0)
(-1.92221 2.52027 0)
(-3.44806 2.50955 -1.09052e-20)
(-4.54346 2.2509 -8.29399e-21)
(-5.31348 1.89306 -7.78298e-21)
(-5.87862 1.52999 0)
(-6.32619 1.20622 9.74796e-20)
(-6.69963 0.93063 0)
(-7.01096 0.693582 0)
(-7.25416 0.478836 0)
(-7.4135 0.270811 -8.21161e-20)
(-7.46736 0.0576471 0)
(-7.39539 -0.167175 1.66097e-19)
(-7.17943 -0.404861 7.07194e-20)
(-6.80701 -0.648306 0)
(-6.27166 -0.888915 4.23019e-20)
(-5.57432 -1.11661 0)
(-4.72336 -1.32107 0)
(-3.7349 -1.4927 -5.20891e-20)
(-2.63303 -1.6231 7.57383e-20)
(-1.44764 -1.70644 0)
(-0.210789 -1.74078 1.49481e-19)
(1.04531 -1.73037 -8.95648e-20)
(2.29339 -1.6851 0)
(3.51342 -1.61603 0)
(4.69486 -1.5318 0)
(5.83453 -1.43426 -2.93331e-19)
(6.9337 -1.31081 0)
(7.99281 -1.13707 -9.12767e-20)
(8.99344 -0.879926 0)
(9.97159 -0.478318 0)
(11.0886 0.085156 0)
(12.162 0.703103 0)
(12.7005 1.22593 0)
(12.1808 1.52771 0)
(10.4636 1.47783 -9.72747e-20)
(8.11121 1.09852 0)
(6.04891 0.763749 -4.91037e-20)
(4.72117 0.76957 1.33011e-19)
(3.75191 0.90807 0)
(2.819 0.93475 0)
(1.94838 0.836076 -2.74304e-20)
(1.2004 0.635305 -7.42196e-21)
(0.737003 0.354302 -1.23149e-20)
(0.540554 0.0153833 -1.45419e-20)
(0.0862011 0.730202 -4.21017e-20)
(0.253304 1.2131 -4.11482e-20)
(0.45249 0.910724 -2.67122e-20)
(0.852958 0.0566741 -1.23747e-20)
(1.6301 -1.36683 0)
(2.6007 -2.92151 2.58109e-20)
(3.53297 -4.17634 -1.36903e-20)
(4.29403 -4.9422 0)
(4.84902 -5.23014 -1.18584e-20)
(5.22386 -5.14838 0)
(5.46654 -4.8225 3.13854e-20)
(5.62238 -4.35593 0)
(5.7252 -3.82086 1.38836e-20)
(5.79814 -3.26359 2.98443e-20)
(5.85696 -2.71193 -3.20099e-20)
(5.91235 -2.18031 0)
(5.97055 -1.67281 -3.60182e-20)
(6.03325 -1.18589 0)
(6.09897 -0.711333 0)
(6.16226 -0.239635 -3.98832e-20)
(6.22067 0.238991 0)
(6.27047 0.730772 -6.1345e-21)
(6.30906 1.23882 0)
(6.33745 1.76454 0)
(6.35688 2.30563 5.9178e-21)
(6.36097 2.84838 -3.37794e-20)
(6.32784 3.35671 -3.69995e-20)
(6.21606 3.76583 -2.98054e-20)
(5.97384 3.98776 0)
(5.56395 3.93073 -5.57194e-20)
(4.99343 3.53799 0)
(4.3267 2.82538 -2.47676e-20)
(3.66866 1.88131 0)
(3.10397 0.808312 0)
(2.70261 -0.391056 2.21973e-20)
(2.4251 -1.40492 0)
(1.95398 -1.46989 -2.2379e-20)
(1.17899 -0.504075 -1.78027e-21)
(0.254184 0.734566 5.17223e-20)
(-0.762906 1.73019 -5.03153e-20)
(-1.90528 2.58015 0)
(-3.13203 3.31907 0)
(-4.32446 3.89826 -2.70947e-20)
(-5.3845 4.28255 0)
(-6.2708 4.47717 -2.28395e-20)
(-6.97589 4.50403 2.39411e-20)
(-7.51232 4.39018 2.54729e-20)
(-7.90806 4.16562 0)
(-8.19957 3.86403 -2.95333e-20)
(-8.42377 3.51773 -3.1922e-20)
(-8.61177 3.15312 7.99994e-20)
(-8.78494 2.78877 -3.70015e-20)
(-8.95421 2.43549 -3.95183e-20)
(-9.12172 2.098 0)
(-9.28376 1.77713 0)
(-9.43375 1.47201 4.60622e-20)
(-9.56443 1.18142 0)
(-9.66923 0.904419 0)
(-9.74285 0.64034 -9.97678e-20)
(-9.78143 0.388715 -1.00682e-19)
(-9.78212 0.149367 0)
(-9.74332 -0.077885 0)
(-9.66414 -0.295047 0)
(-9.54402 -0.501692 0)
(-9.38216 -0.698844 -8.90325e-20)
(-9.17829 -0.886695 8.93107e-20)
(-8.93219 -1.06505 7.82837e-20)
(-8.6439 -1.23321 1.48566e-19)
(-8.31387 -1.38988 0)
(-7.94329 -1.53315 4.07892e-21)
(-7.53445 -1.66064 0)
(-7.09089 -1.76977 -4.22133e-20)
(-6.61752 -1.85799 3.04441e-21)
(-6.12049 -1.9237 -2.64484e-20)
(-5.60698 -1.96624 1.87746e-20)
(-5.08448 -1.98602 2.07702e-21)
(-4.56035 -1.98446 0)
(-4.0416 -1.9639 -5.93087e-22)
(-3.53399 -1.92727 -8.21889e-21)
(-3.04154 -1.87757 -2.62467e-20)
(-2.56659 -1.81764 0)
(-2.11005 -1.74996 2.21253e-20)
(-1.67189 -1.67671 0)
(-1.2517 -1.5998 -5.98741e-20)
(-0.849242 -1.52095 3.32386e-20)
(-0.464387 -1.4416 -3.56878e-20)
(-0.0971898 -1.36239 3.76513e-20)
(0.252646 -1.28341 7.67574e-20)
(0.586226 -1.20362 -3.97637e-20)
(0.904482 -1.12272 4.02759e-20)
(1.20785 -1.04044 0)
(1.49606 -0.957079 -8.0492e-20)
(1.76783 -0.873918 0)
(2.02162 -0.792812 -8.00461e-20)
(2.25643 -0.714877 7.94891e-20)
(2.47172 -0.640581 7.87689e-20)
(2.66777 -0.570355 -7.79238e-20)