/*--------------------------------*- C++ -*----------------------------------*\
| =========                 |                                                 |
| \\      /  F ield         | OpenFOAM: The Open Source CFD Toolbox           |
|  \\    /   O peration     | Version:  2112                                  |
|   \\  /    A nd           | Website:  www.openfoam.com                      |
|    \\/     M anipulation  |                                                 |
\*---------------------------------------------------------------------------*/
FoamFile
{
    version     2.0;
    format      ascii;
    arch        "LSB;label=32;scalar=64";
    class       volVectorField;
    location    "0.6";
    object      U;
}
// * * * * * * * * * * * * * * * * * * * * * * * * * * * * * * * * * * * * * //

dimensions      [0 1 -1 0 0 0 0];

internalField   nonuniform List<vector> 
12225
(
(9.764 0.0614774 0)
(9.26496 0.112617 0)
(8.73088 0.130614 0)
(8.20292 0.137409 0)
(7.72644 0.137239 0)
(7.32696 0.131447 0)
(7.01414 0.12198 0)
(6.78616 0.110853 0)
(6.63059 0.0995433 0)
(6.52981 0.0911916 0)
(6.46425 0.0858859 0)
(6.41686 0.0825715 0)
(6.37555 0.0802895 0)
(6.33418 0.0783578 0)
(6.28789 0.0761672 0)
(6.24497 0.0741905 0)
(6.14565 0.0974296 0)
(6.14723 -0.0421325 0)
(10.092 0.0650417 0)
(10.269 0.105438 0)
(10.3698 0.111933 0)
(10.3901 0.1129 0)
(10.3391 0.108114 0)
(10.2234 0.09584 0)
(10.051 0.0778047 0)
(9.83367 0.0572892 0)
(9.5846 0.037546 0)
(9.31709 0.0222426 0)
(9.04373 0.0120941 0)
(8.77621 0.00634022 0)
(8.52395 0.00380399 0)
(8.29385 0.00347198 0)
(8.08758 0.00398022 0)
(7.91062 0.00905672 0)
(7.755 0.0162017 0)
(7.68562 0.0874744 0)
(10.0204 0.0456716 0)
(10.0761 0.0769278 0)
(10.1309 0.0909298 0)
(10.1821 0.105551 0)
(10.2312 0.11788 0)
(10.2724 0.125611 0)
(10.2982 0.129988 0)
(10.3046 0.133172 0)
(10.2906 0.136729 0)
(10.2568 0.14074 0)
(10.2043 0.144577 0)
(10.1343 0.147353 0)
(10.0482 0.148243 0)
(9.94763 0.147022 0)
(9.83441 0.143576 0)
(9.71174 0.140675 0)
(9.58543 0.137926 0)
(9.46069 0.142255 0)
(10.0113 0.0353851 0)
(10.043 0.0681596 0)
(10.0735 0.0851015 0)
(10.0998 0.0983531 0)
(10.1263 0.107903 0)
(10.1531 0.113082 0)
(10.1779 0.115195 0)
(10.1994 0.116152 0)
(10.2177 0.117394 0)
(10.2332 0.119497 0)
(10.2465 0.122759 0)
(10.2577 0.126989 0)
(10.2665 0.13165 0)
(10.2723 0.136346 0)
(10.2741 0.140761 0)
(10.272 0.145716 0)
(10.2682 0.150312 0)
(10.261 0.148657 0)
(10.0072 0.0296693 0)
(10.0323 0.0621985 0)
(10.057 0.0791169 0)
(10.0779 0.0913732 0)
(10.0982 0.100292 0)
(10.1181 0.105541 0)
(10.1364 0.108116 0)
(10.1526 0.10967 0)
(10.1673 0.111512 0)
(10.1813 0.114236 0)
(10.1955 0.117992 0)
(10.2106 0.122465 0)
(10.2267 0.127103 0)
(10.244 0.131479 0)
(10.2623 0.135301 0)
(10.2821 0.138617 0)
(10.3041 0.140278 0)
(10.3293 0.136781 0)
(10.0049 0.0246457 0)
(10.0256 0.0559893 0)
(10.0478 0.0733277 0)
(10.0671 0.0854516 0)
(10.0854 0.094242 0)
(10.1032 0.0997793 0)
(10.1196 0.102851 0)
(10.1342 0.104834 0)
(10.1477 0.106847 0)
(10.1607 0.109399 0)
(10.174 0.11258 0)
(10.1882 0.116144 0)
(10.2034 0.119682 0)
(10.2199 0.122829 0)
(10.2376 0.125259 0)
(10.2569 0.126704 0)
(10.2781 0.126191 0)
(10.3014 0.121723 0)
(10.0036 0.0205147 0)
(10.0203 0.0495872 0)
(10.0405 0.0672721 0)
(10.0591 0.0795384 0)
(10.0767 0.0884163 0)
(10.0937 0.0941115 0)
(10.1094 0.0973883 0)
(10.1236 0.0994895 0)
(10.1368 0.101491 0)
(10.1497 0.103787 0)
(10.1629 0.106452 0)
(10.1768 0.109309 0)
(10.1916 0.11203 0)
(10.2075 0.11427 0)
(10.2244 0.115655 0)
(10.2425 0.115926 0)
(10.2619 0.114267 0)
(10.2824 0.109293 0)
(10.0027 0.0171652 0)
(10.0161 0.0436189 0)
(10.034 0.0608742 0)
(10.0516 0.0731743 0)
(10.0689 0.0821275 0)
(10.0857 0.0879797 0)
(10.1014 0.0915606 0)
(10.1157 0.0939357 0)
(10.129 0.0959124 0)
(10.142 0.0979199 0)
(10.1552 0.100107 0)
(10.169 0.102356 0)
(10.1835 0.10439 0)
(10.199 0.105888 0)
(10.2152 0.106512 0)
(10.2323 0.105864 0)
(10.2501 0.103278 0)
(10.2685 0.0978924 0)
(10.0018 0.0144522 0)
(10.0127 0.0383195 0)
(10.0283 0.0547387 0)
(10.0446 0.0665343 0)
(10.0611 0.0751782 0)
(10.0776 0.0811318 0)
(10.0933 0.0850668 0)
(10.108 0.0877675 0)
(10.1217 0.0897983 0)
(10.135 0.0916329 0)
(10.1483 0.0934262 0)
(10.1619 0.0950992 0)
(10.1762 0.0964338 0)
(10.1911 0.0971647 0)
(10.2067 0.0969922 0)
(10.2229 0.0954454 0)
(10.2395 0.0920551 0)
(10.2562 0.0863528 0)
(10.0011 0.0122372 0)
(10.01 0.0335896 0)
(10.0237 0.0488912 0)
(10.0386 0.0600512 0)
(10.054 0.0682451 0)
(10.0696 0.0739844 0)
(10.085 0.0778954 0)
(10.0997 0.0806799 0)
(10.1138 0.0828195 0)
(10.1274 0.0845722 0)
(10.1409 0.0860379 0)
(10.1545 0.0871669 0)
(10.1685 0.0878009 0)
(10.183 0.0877338 0)
(10.1979 0.086733 0)
(10.2131 0.0844991 0)
(10.2285 0.080672 0)
(10.2437 0.0749878 0)
(10.0007 0.0103469 0)
(10.008 0.0292053 0)
(10.02 0.0433476 0)
(10.0335 0.0537124 0)
(10.0477 0.0613664 0)
(10.0624 0.0667834 0)
(10.0771 0.0705315 0)
(10.0914 0.0732084 0)
(10.1054 0.0752207 0)
(10.1191 0.0767744 0)
(10.1327 0.0779325 0)
(10.1464 0.0786407 0)
(10.1602 0.0787671 0)
(10.1743 0.0781434 0)
(10.1885 0.0765825 0)
(10.2029 0.0738652 0)
(10.2172 0.0697601 0)
(10.2311 0.0641573 0)
(10.0005 0.00886994 0)
(10.0067 0.0254359 0)
(10.0174 0.0384175 0)
(10.0298 0.0480159 0)
(10.043 0.0550765 0)
(10.0567 0.0601177 0)
(10.0707 0.0636392 0)
(10.0845 0.0661343 0)
(10.0981 0.0679432 0)
(10.1116 0.0692479 0)
(10.125 0.0700971 0)
(10.1385 0.0704363 0)
(10.1521 0.0701499 0)
(10.1658 0.0690976 0)
(10.1796 0.0671292 0)
(10.1932 0.0640902 0)
(10.2066 0.0598443 0)
(10.2195 0.0543807 0)
(10.0005 0.00757015 0)
(10.0057 0.0219649 0)
(10.0151 0.033592 0)
(10.0266 0.0424436 0)
(10.0389 0.0488724 0)
(10.0518 0.0534678 0)
(10.065 0.0566821 0)
(10.0782 0.0589293 0)
(10.0914 0.0604875 0)
(10.1045 0.0615025 0)
(10.1177 0.062013 0)
(10.1309 0.0619749 0)
(10.1441 0.0612958 0)
(10.1573 0.0598652 0)
(10.1705 0.0575715 0)
(10.1835 0.0543159 0)
(10.196 0.0500278 0)
(10.2081 0.0447562 0)
(10.0004 0.0062641 0)
(10.0048 0.0183052 0)
(10.0131 0.0282988 0)
(10.0236 0.0361204 0)
(10.0351 0.0418805 0)
(10.0471 0.0458792 0)
(10.0594 0.0486341 0)
(10.072 0.0505031 0)
(10.0846 0.0517065 0)
(10.0973 0.0523488 0)
(10.1099 0.0524552 0)
(10.1226 0.0519947 0)
(10.1353 0.0509026 0)
(10.1479 0.049103 0)
(10.1604 0.0465247 0)
(10.1726 0.0431172 0)
(10.1843 0.0388605 0)
(10.1955 0.033836 0)
(10.0003 0.00493582 0)
(10.0041 0.0144689 0)
(10.0112 0.0225567 0)
(10.0207 0.0290058 0)
(10.0314 0.0339147 0)
(10.0426 0.0372639 0)
(10.0542 0.0394175 0)
(10.066 0.0407577 0)
(10.078 0.0414793 0)
(10.0901 0.041657 0)
(10.1022 0.0413017 0)
(10.1142 0.0403903 0)
(10.1263 0.0388834 0)
(10.1381 0.0367381 0)
(10.1498 0.0339209 0)
(10.1611 0.0304197 0)
(10.1719 0.0262505 0)
(10.1822 0.0215061 0)
(10.0003 0.00356303 0)
(10.0035 0.0104528 0)
(10.0097 0.0163828 0)
(10.0181 0.0211549 0)
(10.0279 0.0248112 0)
(10.0384 0.0273702 0)
(10.0494 0.0288522 0)
(10.0605 0.0295464 0)
(10.0719 0.0296662 0)
(10.0833 0.029288 0)
(10.0947 0.0284183 0)
(10.1061 0.02704 0)
(10.1174 0.0251326 0)
(10.1285 0.0226799 0)
(10.1393 0.019677 0)
(10.1497 0.0161384 0)
(10.1597 0.0120998 0)
(10.1691 0.00765021 0)
(10.0003 0.00211875 0)
(10.0031 0.00621126 0)
(10.0085 0.0097376 0)
(10.016 0.0125404 0)
(10.0249 0.0146245 0)
(10.0347 0.0160081 0)
(10.0451 0.0166675 0)
(10.0557 0.016627 0)
(10.0664 0.0160587 0)
(10.0772 0.0150566 0)
(10.088 0.0136384 0)
(10.0986 0.0117939 0)
(10.1092 0.00951437 0)
(10.1194 0.00680056 0)
(10.1294 0.00366481 0)
(10.139 0.000134174 0)
(10.1482 -0.00374908 0)
(10.1569 -0.00790963 0)
(10.0003 0.000558609 0)
(10.0028 0.00162544 0)
(10.0077 0.00246878 0)
(10.0146 0.00299832 0)
(10.0228 0.00319376 0)
(10.032 0.00305326 0)
(10.0418 0.00256332 0)
(10.0519 0.00165925 0)
(10.0621 0.000338465 0)
(10.0723 -0.00132255 0)
(10.0825 -0.00329735 0)
(10.0925 -0.00558829 0)
(10.1023 -0.00819934 0)
(10.1119 -0.011124 0)
(10.1211 -0.0143447 0)
(10.13 -0.0178325 0)
(10.1385 -0.0215481 0)
(10.1465 -0.0254329 0)
(10.0002 -0.00119376 0)
(10.0027 -0.00352601 0)
(10.0074 -0.00572915 0)
(10.014 -0.00781445 0)
(10.0219 -0.00982049 0)
(10.0307 -0.0117857 0)
(10.0402 -0.0137448 0)
(10.05 -0.0157488 0)
(10.0599 -0.0178948 0)
(10.0697 -0.0202145 0)
(10.0794 -0.022713 0)
(10.089 -0.0254032 0)
(10.0982 -0.028295 0)
(10.1072 -0.031387 0)
(10.1158 -0.0346659 0)
(10.1241 -0.0381082 0)
(10.132 -0.0416827 0)
(10.1395 -0.0453476 0)
(10.0003 -0.00289306 0)
(10.0029 -0.00850843 0)
(10.0079 -0.013614 0)
(10.0149 -0.0181504 0)
(10.0231 -0.0221903 0)
(10.0321 -0.0258152 0)
(10.0417 -0.0290946 0)
(10.0516 -0.0321072 0)
(10.0615 -0.0349498 0)
(10.0713 -0.0377407 0)
(10.0809 -0.0405756 0)
(10.0902 -0.0435053 0)
(10.0992 -0.0465416 0)
(10.1078 -0.0496803 0)
(10.116 -0.0529211 0)
(10.1238 -0.0562562 0)
(10.1313 -0.0596689 0)
(10.1384 -0.0631316 0)
(10.0003 -0.0044095 0)
(10.0033 -0.0129014 0)
(10.009 -0.0204363 0)
(10.0167 -0.0269383 0)
(10.0256 -0.032561 0)
(10.0352 -0.0374328 0)
(10.0452 -0.0416508 0)
(10.0554 -0.0453189 0)
(10.0655 -0.0485821 0)
(10.0754 -0.051643 0)
(10.085 -0.0546283 0)
(10.0942 -0.0575819 0)
(10.1029 -0.0605524 0)
(10.1111 -0.0635805 0)
(10.119 -0.0666888 0)
(10.1264 -0.0698813 0)
(10.1335 -0.0731465 0)
(10.1402 -0.0764572 0)
(10.0004 -0.00598266 0)
(10.004 -0.0173738 0)
(10.0108 -0.0271751 0)
(10.0196 -0.0354017 0)
(10.0294 -0.0423618 0)
(10.0398 -0.048227 0)
(10.0505 -0.0531062 0)
(10.0611 -0.0571857 0)
(10.0715 -0.0607068 0)
(10.0815 -0.0638508 0)
(10.091 -0.0667528 0)
(10.0999 -0.0695321 0)
(10.1083 -0.0722974 0)
(10.1162 -0.0751344 0)
(10.1236 -0.0780817 0)
(10.1307 -0.0811459 0)
(10.1374 -0.0843122 0)
(10.1438 -0.0875484 0)
(10.0005 -0.00774095 0)
(10.0053 -0.0221766 0)
(10.0137 -0.0340591 0)
(10.0237 -0.0437291 0)
(10.0345 -0.0517557 0)
(10.0457 -0.0583483 0)
(10.057 -0.0636671 0)
(10.0681 -0.0679568 0)
(10.0787 -0.0714784 0)
(10.0887 -0.07445 0)
(10.0981 -0.0770785 0)
(10.1068 -0.0795728 0)
(10.1148 -0.0820812 0)
(10.1223 -0.0847017 0)
(10.1294 -0.0874843 0)
(10.1361 -0.0904385 0)
(10.1424 -0.093544 0)
(10.1485 -0.0967548 0)
(10.0008 -0.00986778 0)
(10.0073 -0.0275553 0)
(10.0177 -0.0411787 0)
(10.0291 -0.0518836 0)
(10.0408 -0.0606578 0)
(10.0527 -0.0677173 0)
(10.0646 -0.0732489 0)
(10.076 -0.0775433 0)
(10.0868 -0.080868 0)
(10.0968 -0.0835344 0)
(10.1061 -0.0858193 0)
(10.1146 -0.0879635 0)
(10.1224 -0.0901587 0)
(10.1296 -0.0925346 0)
(10.1363 -0.0951563 0)
(10.1426 -0.098034 0)
(10.1487 -0.101142 0)
(10.1545 -0.104427 0)
(10.0014 -0.0126186 0)
(10.0106 -0.0336315 0)
(10.0231 -0.0483795 0)
(10.0357 -0.0595957 0)
(10.0482 -0.0688064 0)
(10.0607 -0.0761465 0)
(10.0732 -0.081744 0)
(10.0851 -0.0859335 0)
(10.0963 -0.0890522 0)
(10.1066 -0.0914153 0)
(10.116 -0.0933347 0)
(10.1245 -0.0951046 0)
(10.1322 -0.0969638 0)
(10.1392 -0.0990717 0)
(10.1457 -0.101503 0)
(10.1517 -0.104256 0)
(10.1576 -0.107279 0)
(10.1631 -0.110454 0)
(10.0028 -0.0163661 0)
(10.0154 -0.0401034 0)
(10.0304 -0.0552278 0)
(10.0443 -0.0666652 0)
(10.0576 -0.076185 0)
(10.0712 -0.0837094 0)
(10.0848 -0.0893176 0)
(10.0978 -0.0933766 0)
(10.11 -0.0962556 0)
(10.1213 -0.0983068 0)
(10.1315 -0.0999012 0)
(10.1406 -0.101405 0)
(10.1487 -0.103126 0)
(10.156 -0.105276 0)
(10.1626 -0.107959 0)
(10.1689 -0.111173 0)
(10.175 -0.114869 0)
(10.1811 -0.118897 0)
(10.0055 -0.0210888 0)
(10.0229 -0.0462602 0)
(10.0419 -0.0613396 0)
(10.0585 -0.0734921 0)
(10.0746 -0.0837853 0)
(10.0913 -0.0916799 0)
(10.1083 -0.0972685 0)
(10.125 -0.100959 0)
(10.1408 -0.10311 0)
(10.1555 -0.104074 0)
(10.1688 -0.104272 0)
(10.1805 -0.104146 0)
(10.1907 -0.10409 0)
(10.1995 -0.104395 0)
(10.2072 -0.105211 0)
(10.2141 -0.106625 0)
(10.2204 -0.108659 0)
(10.2255 -0.111188 0)
(10.0107 -0.029448 0)
(10.0424 -0.0541063 0)
(10.0742 -0.0664149 0)
(10.1039 -0.0788992 0)
(10.1345 -0.0912699 0)
(10.167 -0.101737 0)
(10.1992 -0.110124 0)
(10.229 -0.116771 0)
(10.255 -0.121946 0)
(10.2756 -0.125959 0)
(10.2902 -0.129254 0)
(10.298 -0.13233 0)
(10.2992 -0.135613 0)
(10.2941 -0.139383 0)
(10.2831 -0.14368 0)
(10.2667 -0.148284 0)
(10.2452 -0.153099 0)
(10.2205 -0.157845 0)
(10.0513 -0.0461528 0)
(10.1685 -0.0820684 0)
(10.2625 -0.0923072 0)
(10.3276 -0.0992048 0)
(10.3662 -0.104599 0)
(10.3778 -0.106741 0)
(10.3611 -0.105302 0)
(10.3172 -0.100574 0)
(10.2486 -0.0929314 0)
(10.1585 -0.0829149 0)
(10.0501 -0.0712941 0)
(9.92654 -0.0589619 0)
(9.79105 -0.0467974 0)
(9.6467 -0.0355676 0)
(9.4965 -0.0259112 0)
(9.34298 -0.0184603 0)
(9.18879 -0.0130643 0)
(9.03457 -0.010221 0)
(9.8688 -0.0442593 0)
(9.56973 -0.0872919 0)
(9.22715 -0.10662 0)
(8.86165 -0.118003 0)
(8.49793 -0.124931 0)
(8.15038 -0.127819 0)
(7.82725 -0.127257 0)
(7.53515 -0.123937 0)
(7.27923 -0.118463 0)
(7.06214 -0.111429 0)
(6.88386 -0.103442 0)
(6.74207 -0.0950821 0)
(6.63274 -0.0868511 0)
(6.55069 -0.0791696 0)
(6.49016 -0.0725459 0)
(6.44639 -0.0677471 0)
(6.41354 -0.0649322 0)
(6.39021 -0.0609674 0)
(-0.00641925 0.0108876 -1.05728e-20)
(-0.0101947 0.0123203 7.56782e-21)
(-0.0190092 0.0134521 0)
(-0.028742 0.0144989 0)
(-0.0389642 0.0154291 0)
(-0.0497451 0.0162059 -7.73028e-21)
(-0.0610724 0.0168238 0)
(-0.0728655 0.0173052 0)
(-0.0850539 0.0177001 0)
(-0.0976038 0.018098 0)
(-0.110536 0.0186543 7.89723e-21)
(-0.123866 0.0196164 0)
(-0.137709 0.0206265 0)
(-0.152116 0.0211308 0)
(-0.166912 0.0212485 0)
(-0.181995 0.0212773 8.22336e-21)
(-0.197367 0.0213328 0)
(-0.213042 0.021423 0)
(-0.229028 0.0215345 0)
(-0.24533 0.0216596 0)
(-0.261954 0.0217958 0)
(-0.278905 0.0219423 0)
(-0.29619 0.0220986 0)
(-0.313817 0.022264 8.25341e-21)
(-0.33179 0.0224379 -8.2344e-21)
(-0.350117 0.0226195 8.21267e-21)
(-0.368803 0.0228081 8.18866e-21)
(-0.387854 0.0230025 0)
(-0.407274 0.0232018 0)
(-0.427068 0.0234049 -8.10661e-21)
(-0.447239 0.0236104 -8.07692e-21)
(-0.467788 0.023817 0)
(-0.488718 0.0240235 0)
(-0.510028 0.0242284 -7.98392e-21)
(-0.531717 0.0244302 0)
(-0.553782 0.0246277 0)
(-0.576222 0.0248192 7.88832e-21)
(-0.599029 0.0250035 0)
(-0.622199 0.025179 7.82457e-21)
(-0.645723 0.0253445 1.55858e-20)
(-0.669593 0.0254986 0)
(-0.693799 0.02564 0)
(-0.718328 0.0257675 0)
(-0.743168 0.0258798 0)
(-0.768306 0.025976 0)
(-0.793724 0.026055 1.52153e-20)
(-0.819408 0.0261158 1.51552e-20)
(-0.845338 0.0261577 1.50955e-20)
(-0.871496 0.0261801 0)
(-0.897862 0.0261822 -1.49767e-20)
(-0.924416 0.0261638 0)
(-0.951137 0.0261246 1.48583e-20)
(-0.978001 0.0260642 1.47989e-20)
(-1.00499 0.0259828 0)
(-1.03207 0.0258803 0)
(-1.05923 0.025757 0)
(-1.08643 0.025613 1.45567e-20)
(-1.11367 0.0254485 0)
(-1.14091 0.0252641 0)
(-1.16812 0.0250599 0)
(-1.19529 0.0248364 0)
(-1.22238 0.0245939 0)
(-1.24938 0.0243329 0)
(-1.27626 0.0240535 0)
(-1.30299 0.023756 0)
(-1.32955 0.0234407 -1.39351e-20)
(-1.35591 0.0231076 0)
(-1.38205 0.0227567 0)
(-1.40794 0.0223881 1.36842e-20)
(-1.43356 0.0220016 1.35937e-20)
(-1.45887 0.0215972 0)
(-1.48385 0.0211748 -1.3401e-20)
(-1.50847 0.0207342 1.32983e-20)
(-1.53271 0.0202756 0)
(-1.55653 0.019799 -1.3079e-20)
(-1.57991 0.0193047 0)
(-1.60282 0.0187931 0)
(-1.62523 0.0182648 1.27115e-20)
(-1.64712 0.0177206 0)
(-1.66844 0.0171613 -1.2438e-20)
(-1.68919 0.0165878 0)
(-1.70933 0.0160014 1.21395e-20)
(-1.72884 0.015403 1.19804e-20)
(-1.74769 0.0147938 1.18143e-20)
(-1.76586 0.0141749 2.32825e-20)
(-1.78334 0.0135474 -2.29218e-20)
(-1.80009 0.0129122 0)
(-1.8161 0.01227 0)
(-1.83135 0.0116214 0)
(-1.84582 0.0109666 -2.13265e-20)
(-1.85949 0.0103058 -2.0888e-20)
(-1.87234 0.00963866 2.0433e-20)
(-1.88436 0.0089648 0)
(-1.89551 0.00828357 -1.94724e-20)
(-1.90579 0.00759403 -1.89663e-20)
(-1.91517 0.00689485 -1.84426e-20)
(-1.92361 0.00618389 0)
(-1.93111 0.00545764 0)
(-1.93761 0.00471017 0)
(-1.9431 0.00393243 -1.61688e-20)
(-1.94751 0.00311647 0)
(-1.95081 0.00227077 0)
(-1.9529 0.00142704 1.42717e-20)
(-1.95379 0.000603217 0)
(-1.95355 -0.000201616 0)
(-1.95219 -0.0009989 1.22022e-20)
(-1.94969 -0.00179935 0)
(-1.94602 -0.0026069 0)
(-1.94117 -0.00342273 -9.96149e-21)
(-1.93513 -0.00424716 -9.17687e-21)
(-1.92785 -0.00508026 0)
(-1.91933 -0.00592192 7.55212e-21)
(-1.90955 -0.00677195 0)
(-1.89849 -0.00763001 -5.85516e-21)
(-1.88612 -0.00849569 0)
(-1.87242 -0.00936845 -4.08902e-21)
(-1.85739 -0.0102477 -3.18122e-21)
(-1.84101 -0.0111326 0)
(-1.82326 -0.0120227 0)
(-1.80413 -0.0129173 0)
(-1.78361 -0.0138159 0)
(-1.76169 -0.0147184 0)
(-1.73835 -0.0156245 0)
(-1.7136 -0.0165345 0)
(-1.68742 -0.0174486 4.57604e-21)
(-1.65979 -0.0183671 -5.59237e-21)
(-1.63073 -0.0192903 0)
(-1.60021 -0.0202184 0)
(-1.56823 -0.0211515 0)
(-1.53479 -0.0220896 0)
(-1.49987 -0.0230323 -2.14607e-20)
(-1.46348 -0.0239791 0)
(-1.42562 -0.0249293 2.55495e-20)
(-1.38627 -0.0258818 -2.75701e-20)
(-1.34546 -0.0268353 0)
(-1.30319 -0.0277884 0)
(-1.25947 -0.0287395 0)
(-1.21431 -0.0296865 3.53471e-20)
(-1.16774 -0.0306272 3.7178e-20)
(-1.11977 -0.0315594 0)
(-1.07045 -0.0324801 4.06432e-20)
(-1.01981 -0.0333862 4.22572e-20)
(-0.967891 -0.0342746 -4.37776e-20)
(-0.914737 -0.0351423 0)
(-0.860403 -0.0359873 0)
(-0.804944 -0.0368084 -4.76523e-20)
(-0.748415 -0.0376064 0)
(-0.690867 -0.0383849 0)
(-0.632343 -0.0391521 0)
(-0.572871 -0.0399201 0)
(-0.512459 -0.0407006 5.08462e-20)
(-0.451106 -0.0414973 5.07505e-20)
(-0.388834 -0.0422899 0)
(-0.325671 -0.0429703 4.92492e-20)
(-0.261845 -0.0427743 0)
(-0.200445 -0.0385009 0)
(-0.144878 -0.0311038 4.3098e-20)
(-0.0924691 -0.0269484 0)
(-0.0394611 -0.0267619 4.44945e-20)
(0.0136815 -0.0263721 0)
(0.0660707 -0.0256024 0)
(0.116967 -0.0280251 4.72438e-20)
(0.168322 -0.0332467 0)
(0.223325 -0.0359609 5.5735e-20)
(0.280301 -0.0353778 0)
(0.336736 -0.034234 0)
(0.392502 -0.0330485 0)
(0.447565 -0.0318898 -6.95493e-20)
(0.501901 -0.0307822 0)
(0.555528 -0.0297301 7.4588e-20)
(0.608472 -0.0287293 0)
(0.660751 -0.0277711 0)
(0.71237 -0.0268434 0)
(0.763303 -0.025927 0)
(0.813498 -0.0249857 0)
(0.862713 -0.0239429 0)
(0.910831 -0.0225526 0)
(0.955118 -0.0201205 -1.78238e-19)
(0.998194 -0.0132487 0)
(0.99294 0.00345034 0)
(-0.00905422 0.0215102 2.94166e-20)
(-0.0121384 0.0244265 -2.1406e-20)
(-0.0220006 0.0269114 0)
(-0.0325585 0.0289076 1.43634e-20)
(-0.0434387 0.0305774 0)
(-0.0548505 0.0319929 7.2671e-21)
(-0.0668569 0.0331867 -1.45853e-20)
(-0.0794262 0.0341936 -1.4656e-20)
(-0.0925272 0.0350576 0)
(-0.106138 0.0358336 -1.47573e-20)
(-0.120226 0.036589 -7.40909e-21)
(-0.134714 0.0374017 0)
(-0.149539 0.0383017 0)
(-0.164723 0.0391771 0)
(-0.180319 0.0399514 0)
(-0.196345 0.040637 -7.38296e-21)
(-0.212783 0.041271 0)
(-0.22961 0.0418795 1.46211e-20)
(-0.246813 0.0424748 0)
(-0.264386 0.0430628 0)
(-0.282329 0.0436469 -1.44227e-20)
(-0.300643 0.0442291 0)
(-0.319332 0.0448106 1.42747e-20)
(-0.3384 0.0453919 -7.12182e-21)
(-0.357852 0.0459731 7.08328e-21)
(-0.377691 0.0465536 -7.04441e-21)
(-0.397923 0.0471324 -7.00537e-21)
(-0.418552 0.0477081 0)
(-0.439579 0.0482793 0)
(-0.461009 0.0488439 6.88847e-21)
(-0.482843 0.0494 -6.80115e-21)
(-0.505081 0.0499451 0)
(-0.527721 0.050477 0)
(-0.550764 0.0509931 6.73626e-21)
(-0.574204 0.0514909 0)
(-0.598037 0.0519678 0)
(-0.622258 0.0524213 -6.62676e-21)
(-0.646859 0.0528488 0)
(-0.67183 0.0532477 6.50433e-21)
(-0.69716 0.0536157 -1.30441e-20)
(-0.722839 0.0539503 0)
(-0.748852 0.0542492 0)
(-0.775184 0.0545104 -2.55826e-20)
(-0.801819 0.0547318 -2.54533e-20)
(-0.828739 0.0549116 -2.5326e-20)
(-0.855924 0.055048 1.25467e-20)
(-0.883355 0.0551397 -1.25922e-20)
(-0.911009 0.0551854 -3.74861e-20)
(-0.938865 0.0551841 2.48343e-20)
(-0.966898 0.0551351 1.24111e-20)
(-0.995084 0.0550377 0)
(-1.0234 0.0548917 -1.22927e-20)
(-1.05182 0.0546971 1.21274e-20)
(-1.08031 0.054454 0)
(-1.10885 0.0541629 0)
(-1.13742 0.0538242 0)
(-1.16598 0.0534386 -1.19978e-20)
(-1.19451 0.053007 0)
(-1.22298 0.0525302 2.36515e-20)
(-1.25136 0.0520091 0)
(-1.27963 0.0514448 2.34046e-20)
(-1.30777 0.0508383 0)
(-1.33573 0.0501904 -2.31478e-20)
(-1.3635 0.0495022 0)
(-1.39105 0.0487745 2.2878e-20)
(-1.41834 0.0480079 -1.13214e-20)
(-1.44536 0.0472033 0)
(-1.47208 0.0463612 -2.24422e-20)
(-1.49846 0.0454821 -1.11884e-20)
(-1.52448 0.0445664 -1.11071e-20)
(-1.55011 0.0436147 0)
(-1.57532 0.0426275 -1.08506e-20)
(-1.60008 0.0416053 -1.0844e-20)
(-1.62437 0.0405488 0)
(-1.64815 0.039459 1.06505e-20)
(-1.67139 0.038337 -2.10194e-20)
(-1.69407 0.0371842 0)
(-1.71616 0.0360021 -1.0329e-20)
(-1.73763 0.0347926 0)
(-1.75845 0.0335577 3.02089e-20)
(-1.77859 0.0322996 0)
(-1.79804 0.0310206 -2.94418e-20)
(-1.81676 0.0297229 -9.69741e-21)
(-1.83474 0.0284089 9.50012e-21)
(-1.85194 0.0270808 1.87102e-20)
(-1.86836 0.0257407 -1.84086e-20)
(-1.88397 0.0243904 0)
(-1.89874 0.0230315 0)
(-1.91267 0.0216651 0)
(-1.92573 0.0202921 5.13888e-20)
(-1.9379 0.0189129 1.67837e-20)
(-1.94917 0.0175275 -1.64007e-20)
(-1.95951 0.0161354 0)
(-1.96891 0.0147361 -1.55506e-20)
(-1.97735 0.0133284 1.51711e-20)
(-1.9848 0.0119109 1.4734e-20)
(-1.99124 0.0104819 0)
(-1.99665 0.00903866 0)
(-2.00102 0.00757794 0)
(-2.00432 0.00609508 1.28461e-20)
(-2.00654 0.00458578 0)
(-2.0077 0.00305557 -2.36572e-20)
(-2.00782 0.00153122 -3.38728e-20)
(-2.00691 4.0818e-05 2.14984e-20)
(-2.00485 -0.00142163 0)
(-2.00161 -0.00287363 9.64454e-21)
(-1.99717 -0.00432305 0)
(-1.99151 -0.0057727 1.68606e-20)
(-1.98459 -0.00722304 -7.8621e-21)
(-1.97642 -0.00867372 -7.24304e-21)
(-1.96696 -0.010124 0)
(-1.95621 -0.011573 -1.7669e-20)
(-1.94413 -0.0130197 1.05015e-20)
(-1.93072 -0.0144629 4.5101e-21)
(-1.91597 -0.0159012 0)
(-1.89985 -0.0173333 3.13072e-21)
(-1.88236 -0.0187574 7.46071e-21)
(-1.86348 -0.020172 0)
(-1.84321 -0.0215754 2.20081e-21)
(-1.82154 -0.0229661 7.66598e-22)
(-1.79845 -0.0243428 -6.7694e-22)
(-1.77396 -0.0257046 0)
(-1.74805 -0.0270508 0)
(-1.72072 -0.0283809 0)
(-1.69197 -0.0296947 3.11048e-21)
(-1.66179 -0.030992 4.11635e-21)
(-1.63019 -0.0322725 0)
(-1.59717 -0.0335359 1.08231e-20)
(-1.56273 -0.0347816 1.22411e-20)
(-1.52686 -0.0360085 0)
(-1.48958 -0.0372153 1.53657e-20)
(-1.45088 -0.0384002 3.27311e-20)
(-1.41078 -0.039561 -1.80564e-20)
(-1.36929 -0.0406951 -1.85758e-20)
(-1.32642 -0.0417995 0)
(-1.28219 -0.0428708 0)
(-1.23662 -0.0439053 0)
(-1.18974 -0.044899 -2.40455e-20)
(-1.14157 -0.0458475 2.41826e-20)
(-1.09216 -0.0467461 5.11584e-20)
(-1.04154 -0.0475897 -2.69254e-20)
(-0.989757 -0.0483729 2.67801e-20)
(-0.936869 -0.0490901 2.84685e-20)
(-0.882929 -0.0497363 0)
(-0.827998 -0.0503072 0)
(-0.772141 -0.0507995 -2.91359e-20)
(-0.715424 -0.0512112 0)
(-0.657915 -0.051542 0)
(-0.599679 -0.0517944 6.12058e-20)
(-0.540784 -0.0519699 0)
(-0.4813 -0.0520614 3.03751e-20)
(-0.421321 -0.0520385 -3.15245e-20)
(-0.361016 -0.0518081 0)
(-0.300708 -0.0510981 3.04874e-20)
(-0.24092 -0.0492788 0)
(-0.182622 -0.0457806 0)
(-0.126065 -0.0424447 -3.08997e-20)
(-0.070071 -0.0415872 6.23616e-20)
(-0.0145438 -0.0416359 -3.20073e-20)
(0.0404797 -0.0410498 0)
(0.0954251 -0.0397137 0)
(0.15024 -0.0388117 3.29449e-20)
(0.206018 -0.0399788 0)
(0.263427 -0.0416399 3.5655e-20)
(0.321662 -0.0422254 0)
(0.379984 -0.0420395 0)
(0.438086 -0.0415122 0)
(0.495808 -0.0408434 4.28235e-20)
(0.553097 -0.0401128 0)
(0.609947 -0.0393541 -4.6241e-20)
(0.66636 -0.0385811 0)
(0.722331 -0.0377958 0)
(0.777839 -0.0369904 1.02352e-19)
(0.832827 -0.0361433 -1.05914e-19)
(0.887193 -0.0352066 0)
(0.940625 -0.0340589 0)
(0.992871 -0.032377 0)
(1.04147 -0.029117 3.58931e-19)
(1.08946 -0.020727 0)
(1.11303 -0.000758206 -2.51394e-19)
(-0.0109213 0.0424772 -1.10822e-23)
(-0.013575 0.0470385 2.96986e-20)
(-0.0241633 0.0508783 0)
(-0.0356399 0.0541525 -2.88784e-20)
(-0.0471834 0.0570292 0)
(-0.0591738 0.0595901 0)
(-0.071754 0.0618676 -1.42263e-23)
(-0.0849057 0.0638947 1.46477e-20)
(-0.0985979 0.0657164 1.47116e-20)
(-0.112805 0.0673872 1.47331e-20)
(-0.127494 0.0689618 0)
(-0.142614 0.0704781 0)
(-0.158113 0.0719269 -1.47516e-20)
(-0.173971 0.073265 -2.94421e-20)
(-0.190203 0.0744764 2.9355e-20)
(-0.206824 0.0755816 0)
(-0.223837 0.0766126 2.91185e-20)
(-0.241236 0.077596 -1.44748e-20)
(-0.259018 0.0785507 0)
(-0.277179 0.0794892 2.86646e-20)
(-0.29572 0.0804201 1.42365e-20)
(-0.314641 0.0813485 -2.83274e-20)
(-0.333943 0.0822777 -1.40648e-20)
(-0.353629 0.0832089 0)
(-0.373702 0.0841421 2.78007e-20)
(-0.394164 0.0850762 2.76232e-20)
(-0.415018 0.0860093 0)
(-0.436266 0.0869386 2.72687e-20)
(-0.457908 0.0878608 0)
(-0.479946 0.0887722 2.69175e-20)
(-0.502377 0.0896688 1.33618e-20)
(-0.525202 0.0905461 0)
(-0.548416 0.0913996 0)
(-0.572015 0.0922245 0)
(-0.595995 0.093016 0)
(-0.620346 0.0937692 0)
(-0.645062 0.0944794 0)
(-0.670132 0.0951417 2.55815e-20)
(-0.695544 0.0957514 -3.81269e-20)
(-0.721285 0.0963042 0)
(-0.747341 0.0967955 0)
(-0.773695 0.0972214 0)
(-0.800331 0.0975779 -1.78403e-23)
(-0.827229 0.0978616 2.46524e-20)
(-0.85437 0.0980692 4.9033e-20)
(-0.881731 0.0981979 -4.87472e-20)
(-0.90929 0.0982452 -2.42408e-20)
(-0.937024 0.0982091 2.4084e-20)
(-0.964908 0.0980881 1.64892e-23)
(-0.992918 0.097881 2.38242e-20)
(-1.02103 0.0975871 0)
(-1.04921 0.0972063 2.35508e-20)
(-1.07743 0.0967388 1.51365e-23)
(-1.10567 0.0961853 0)
(-1.13391 0.0955466 0)
(-1.1621 0.0948242 -2.30051e-20)
(-1.19023 0.0940195 0)
(-1.21827 0.0931343 0)
(-1.24619 0.0921704 2.26001e-20)
(-1.27396 0.0911299 4.4891e-20)
(-1.30156 0.0900145 -2.22898e-20)
(-1.32896 0.0888265 0)
(-1.35613 0.0875676 2.1994e-20)
(-1.38305 0.0862397 0)
(-1.40968 0.0848445 2.17032e-20)
(-1.43601 0.0833835 2.15253e-20)
(-1.46201 0.081858 -4.27377e-20)
(-1.48765 0.0802693 -2.12067e-20)
(-1.5129 0.0786182 0)
(-1.53775 0.0769058 4.16906e-20)
(-1.56215 0.0751329 0)
(-1.58609 0.0733007 6.14004e-20)
(-1.60954 0.0714101 4.05419e-20)
(-1.63248 0.0694627 4.01333e-20)
(-1.65486 0.0674601 -3.97108e-20)
(-1.67668 0.0654044 5.89062e-20)
(-1.6979 0.0632982 0)
(-1.71849 0.0611443 0)
(-1.73843 0.0589461 -3.78685e-20)
(-1.75769 0.0567071 -5.60463e-20)
(-1.77626 0.0544312 0)
(-1.79411 0.0521224 1.81512e-20)
(-1.8112 0.0497847 0)
(-1.82754 0.047422 -5.27658e-20)
(-1.84308 0.0450381 9.71265e-24)
(-1.85782 0.0426367 -1.05058e-23)
(-1.87173 0.040221 3.33383e-20)
(-1.8848 0.0377936 0)
(-1.897 0.0353566 -3.20086e-20)
(-1.90833 0.0329115 1.53446e-23)
(-1.91877 0.0304589 0)
(-1.92829 0.027999 0)
(-1.93689 0.0255313 0)
(-1.94454 0.0230549 2.82895e-20)
(-1.95124 0.0205687 0)
(-1.95695 0.0180713 0)
(-1.96167 0.0155617 0)
(-1.96537 0.0130391 0)
(-1.96805 0.0105038 0)
(-1.96969 0.00795867 2.31578e-20)
(-1.97028 0.00541042 0)
(-1.96982 0.00286673 2.12117e-20)
(-1.96829 0.00033032 2.02224e-20)
(-1.96567 -0.00220094 -1.92129e-20)
(-1.96191 -0.00473011 0)
(-1.957 -0.00725717 -1.71327e-20)
(-1.95091 -0.00978246 0)
(-1.94363 -0.0123055 -1.49728e-20)
(-1.93513 -0.0148251 1.38643e-20)
(-1.9254 -0.0173397 3.83701e-20)
(-1.91443 -0.0198476 0)
(-1.9022 -0.0223469 3.14712e-20)
(-1.88869 -0.0248354 9.43825e-21)
(-1.87389 -0.0273108 0)
(-1.8578 -0.0297705 1.39164e-20)
(-1.8404 -0.0322117 1.14887e-20)
(-1.82168 -0.0346313 -1.34493e-20)
(-1.80163 -0.037026 0)
(-1.78025 -0.0393928 -1.92399e-21)
(-1.75753 -0.0417286 -6.69363e-22)
(-1.73347 -0.044031 1.52392e-21)
(-1.70806 -0.0462978 0)
(-1.68132 -0.0485274 0)
(-1.65323 -0.0507188 0)
(-1.6238 -0.0528711 5.36729e-21)
(-1.59302 -0.0549834 0)
(-1.56091 -0.0570551 0)
(-1.52746 -0.0590851 -9.38034e-21)
(-1.49268 -0.0610719 -1.06035e-20)
(-1.45657 -0.0630136 0)
(-1.41914 -0.0649075 0)
(-1.3804 -0.0667504 -2.83255e-20)
(-1.34036 -0.0685385 0)
(-1.29902 -0.0702675 3.28231e-20)
(-1.2564 -0.0719324 3.46671e-20)
(-1.21254 -0.073528 0)
(-1.16743 -0.0750486 0)
(-1.12112 -0.0764885 -4.06676e-20)
(-1.07363 -0.0778415 -3.03174e-22)
(-1.02499 -0.0791014 -2.99036e-22)
(-0.975238 -0.0802622 0)
(-0.924422 -0.0813175 -9.49836e-20)
(-0.872583 -0.0822617 0)
(-0.819772 -0.0830908 0)
(-0.76604 -0.0838027 0)
(-0.711443 -0.0843982 5.25131e-20)
(-0.656038 -0.0848809 0)
(-0.599885 -0.0852584 -1.08151e-19)
(-0.543046 -0.0855427 -5.50699e-20)
(-0.485589 -0.0857461 0)
(-0.427601 -0.0858691 -5.64337e-20)
(-0.3692 -0.0858818 0)
(-0.310581 -0.0856785 0)
(-0.252067 -0.0849632 -1.75237e-19)
(-0.193979 -0.0831165 1.18519e-19)
(-0.136226 -0.0796766 0)
(-0.0782968 -0.0760782 1.23089e-19)
(-0.0202565 -0.0742732 -6.28418e-20)
(0.0371057 -0.0735671 0)
(0.0938878 -0.0725216 0)
(0.150851 -0.0710212 0)
(0.208189 -0.0703142 -2.00039e-19)
(0.265703 -0.0712205 0)
(0.323362 -0.0722217 -6.89679e-20)
(0.381498 -0.0721169 0)
(0.440204 -0.071271 0)
(0.49921 -0.0701421 0)
(0.55828 -0.0689385 0)
(0.617291 -0.0677361 0)
(0.676173 -0.0665575 0)
(0.734876 -0.0654015 -1.67446e-19)
(0.793354 -0.064253 0)
(0.85155 -0.0630836 -8.9397e-20)
(0.909371 -0.0618433 2.75728e-19)
(0.966682 -0.0604363 0)
(1.02315 -0.0586518 0)
(1.07853 -0.0559947 -1.99761e-19)
(1.13078 -0.0511567 -2.05667e-19)
(1.18352 -0.0406814 2.10759e-19)
(1.22165 -0.0193517 2.16386e-19)
(-0.0129302 0.0640376 -6.92707e-20)
(-0.0156473 0.0691582 -4.66775e-20)
(-0.0266995 0.0734755 -2.92737e-20)
(-0.0389625 0.0775328 -1.4589e-20)
(-0.0511051 0.081311 0)
(-0.0636149 0.0848005 2.91682e-20)
(-0.0766939 0.0879919 -1.4624e-20)
(-0.0903318 0.0908926 0)
(-0.104494 0.0935293 -1.46847e-20)
(-0.119152 0.0959409 0)
(-0.134274 0.09817 2.94459e-20)
(-0.149824 0.100252 0)
(-0.165766 0.102205 1.46845e-20)
(-0.182081 0.104032 2.92899e-20)
(-0.198762 0.105741 -2.9185e-20)
(-0.215812 0.107346 0)
(-0.23323 0.10887 -2.89142e-20)
(-0.251015 0.110332 0)
(-0.269166 0.111751 0)
(-0.287682 0.113141 -2.84117e-20)
(-0.30656 0.114511 0)
(-0.325803 0.115869 -1.49691e-23)
(-0.345409 0.11722 0)
(-0.36538 0.118565 0)
(-0.385717 0.119904 1.5609e-23)
(-0.406419 0.121237 -2.72801e-20)
(-0.427488 0.12256 -2.7104e-20)
(-0.448923 0.123871 -2.68964e-20)
(-0.470723 0.125164 0)
(-0.492886 0.126435 -5.30487e-20)
(-0.515408 0.127678 0)
(-0.538286 0.128886 -2.6158e-20)
(-0.561513 0.130054 0)
(-0.585083 0.131175 0)
(-0.608988 0.132241 2.56088e-20)
(-0.633218 0.133247 0)
(-0.657762 0.134186 -2.52521e-20)
(-0.682607 0.135051 1.87719e-23)
(-0.707739 0.135835 4.97878e-20)
(-0.733143 0.136532 -4.94639e-20)
(-0.758802 0.137137 0)
(-0.784697 0.137644 0)
(-0.81081 0.138048 -2.42484e-20)
(-0.837118 0.138344 0)
(-0.863602 0.138528 -2.38812e-20)
(-0.890237 0.138596 2.37196e-20)
(-0.917 0.138545 2.35592e-20)
(-0.943866 0.138372 0)
(-0.970811 0.138077 -2.32412e-20)
(-0.997807 0.137657 -2.30834e-20)
(-1.02483 0.137113 4.58916e-20)