/*--------------------------------*- C++ -*----------------------------------*\
| =========                 |                                                 |
| \\      /  F ield         | OpenFOAM: The Open Source CFD Toolbox           |
|  \\    /   O peration     | Version:  2112                                  |
|   \\  /    A nd           | Website:  www.openfoam.com                      |
|    \\/     M anipulation  |                                                 |
\*---------------------------------------------------------------------------*/
FoamFile
{
    version     2.0;
    format      ascii;
    arch        "LSB;label=32;scalar=64";
    class       volScalarField;
    location    "0.17";
    object      ddt0(kU);
}
// * * * * * * * * * * * * * * * * * * * * * * * * * * * * * * * * * * * * * //

dimensions      [0 2 -3 0 0 0 0];

internalField   nonuniform List<scalar> 
12225
(
-0.0104312
-0.0613423
-0.166401
-0.336337
-0.593886
-0.971988
-1.5002
-2.1982
-3.07883
-4.15546
-5.45112
-7.00971
-8.92733
-11.3798
-14.8187
-19.7587
-28.5221
-39.1028
0.00381595
0.015441
0.0329357
0.0659035
0.123561
0.207363
0.314229
0.441484
0.589962
0.765007
0.976888
1.24276
1.59336
2.0898
2.83913
4.07357
6.07154
9.00489
-0.00175313
-0.006558
-0.0135524
-0.0220692
-0.0338571
-0.0526614
-0.0814889
-0.120556
-0.166785
-0.214246
-0.254641
-0.276992
-0.265465
-0.193009
-0.00722119
0.407574
1.29611
3.31061
-0.000611632
-0.00274906
-0.00670493
-0.0132101
-0.0233776
-0.0394533
-0.0646639
-0.102634
-0.15696
-0.231186
-0.329337
-0.457232
-0.625022
-0.851609
-1.16991
-1.63126
-2.28512
-3.16023
-0.000167501
-0.00201673
-0.00487384
-0.00854464
-0.0137551
-0.0221331
-0.0359576
-0.0578231
-0.0903904
-0.136389
-0.199077
-0.283399
-0.398251
-0.560584
-0.801289
-1.17104
-1.7364
-2.5751
6.75758e-05
-0.00133174
-0.00308229
-0.00493817
-0.00757879
-0.012083
-0.0198109
-0.0323128
-0.0512082
-0.0781274
-0.114845
-0.163747
-0.228796
-0.317392
-0.443259
-0.630134
-0.910875
-1.33824
0.000249839
-0.000736293
-0.00197135
-0.00315327
-0.004737
-0.0074275
-0.0120861
-0.0196686
-0.0311407
-0.0474072
-0.069318
-0.0978265
-0.134378
-0.181763
-0.245767
-0.338065
-0.479062
-0.71378
0.000383828
-0.000312365
-0.0012864
-0.00212378
-0.00306816
-0.00460849
-0.00733104
-0.0118464
-0.0187317
-0.0284837
-0.0415043
-0.0581813
-0.079139
-0.105866
-0.142131
-0.196784
-0.288297
-0.458194
0.000477288
-1.29834e-05
-0.000810901
-0.00143777
-0.00198722
-0.00279454
-0.00426001
-0.00677051
-0.0106579
-0.0161768
-0.0235051
-0.0328252
-0.0445815
-0.0601164
-0.08308
-0.122122
-0.19543
-0.340122
0.000542789
0.000204118
-0.000469972
-0.000981859
-0.00130669
-0.00164894
-0.00227043
-0.00341166
-0.00525866
-0.00794189
-0.0115636
-0.0163072
-0.0227285
-0.032407
-0.0492669
-0.0818833
-0.147146
-0.275641
0.00058813
0.000362274
-0.000221254
-0.000671166
-0.000872469
-0.000925293
-0.00099331
-0.00122771
-0.00173825
-0.00260716
-0.00394261
-0.00601328
-0.00955192
-0.0163598
-0.030416
-0.0596114
-0.118257
-0.229351
0.000615185
0.000466719
-5.18823e-05
-0.000467855
-0.000609635
-0.000506617
-0.000261496
1.99707e-05
0.000255756
0.000366275
0.000205795
-0.000581542
-0.00284659
-0.00844445
-0.0210836
-0.0475045
-0.0989843
-0.191734
0.000635219
0.000548292
8.12255e-05
-0.00031662
-0.000433236
-0.000241471
0.000202098
0.00081878
0.00153284
0.00224941
0.00278241
0.00271657
0.0011621
-0.00363895
-0.0149073
-0.0380313
-0.0813209
-0.155365
0.000645042
0.000612031
0.000200358
-0.000174849
-0.00027745
-3.41952e-05
0.000534947
0.00136521
0.00236934
0.00341982
0.00428488
0.00451346
0.00325074
-0.00102065
-0.0108289
-0.0300157
-0.0639796
-0.11854
0.000638954
0.000651893
0.000302042
-3.89919e-05
-0.000129322
0.000136478
0.000766492
0.00170424
0.0028474
0.00403796
0.00501661
0.00534364
0.00428567
0.000684632
-0.00719428
-0.0216965
-0.04576
-0.0817808
0.000609826
0.000661468
0.000384442
9.5671e-05
2.29634e-05
0.000289412
0.000926515
0.00189102
0.00307969
0.00432894
0.00539211
0.00589999
0.00531162
0.00287752
-0.002393
-0.0116424
-0.0260866
-0.0461969
0.000548247
0.000633095
0.000446862
0.000236084
0.000193353
0.000445668
0.00104813
0.00198576
0.0031832
0.00451133
0.005784
0.0067496
0.00708436
0.00640452
0.00428148
0.000347211
-0.00566561
-0.013498
0.000444699
0.000559965
0.000490349
0.000391789
0.000401895
0.000642734
0.00120027
0.00211032
0.00335945
0.00489189
0.0066161
0.00841178
0.0101406
0.0116695
0.0128913
0.0137976
0.0144717
0.0152102
0.000293164
0.000434936
0.00050839
0.00056027
0.000660637
0.000924117
0.00147647
0.00242269
0.00383284
0.00574022
0.00814519
0.0110227
0.0143358
0.0180566
0.0221756
0.0267449
0.0318517
0.0375656
0.000146812
0.000307874
0.000509962
0.00070488
0.00091013
0.0012413
0.00186227
0.00293704
0.00460145
0.00694993
0.0100347
0.0138708
0.0184387
0.0236973
0.0296086
0.0361652
0.0433788
0.0511922
4.14952e-05
0.000223436
0.000525821
0.000834004
0.00113669
0.00156053
0.00230415
0.00357441
0.00554376
0.00833248
0.0120031
0.0165606
0.0219775
0.0281916
0.0351194
0.0427231
0.0509439
0.0595685
-3.39449e-05
0.000177892
0.000572204
0.000979813
0.00138428
0.00194007
0.00289161
0.00449671
0.00697593
0.0104837
0.0151021
0.0208225
0.0275801
0.0353342
0.0440251
0.0533925
0.0632616
0.0734451
-8.02348e-05
0.000178941
0.00066995
0.00118793
0.00173343
0.002502
0.00378529
0.00589324
0.00909789
0.0135968
0.0194911
0.0268105
0.0354885
0.0453447
0.0561543
0.0678321
0.0801736
0.0928325
-9.62166e-05
0.000238979
0.000841736
0.00151478
0.0023282
0.00356034
0.0055964
0.00884438
0.0136672
0.0203326
0.0289838
0.0396375
0.0521925
0.0664453
0.0821363
0.0989755
0.116657
0.13477
-7.63125e-05
0.00041598
0.00119421
0.00205931
0.00320468
0.00503723
0.00806989
0.0128449
0.0198542
0.0294736
0.0419207
0.0572454
0.0753455
0.0959918
0.118857
0.143555
0.169686
0.19666
-3.16739e-05
0.000732758
0.00207862
0.00373967
0.00594022
0.0092844
0.0145862
0.0226993
0.0343663
0.0501191
0.0702379
0.094757
0.123495
0.156094
0.19207
0.230865
0.271896
0.314395
8.98326e-05
0.000649239
0.001845
0.00413037
0.00799583
0.0142334
0.0239664
0.038392
0.0585258
0.0850602
0.118315
0.158245
0.204486
0.256429
0.313301
0.374249
0.43841
0.504747
0.000742905
0.00265146
0.00528484
0.00903817
0.0150646
0.0255829
0.0431627
0.0697598
0.106274
0.152563
0.20761
0.269731
0.336801
0.406482
0.476406
0.544312
0.608118
0.665547
-0.00122091
-0.00594055
-0.0137765
-0.0279861
-0.0521071
-0.0862758
-0.127435
-0.172008
-0.21777
-0.264139
-0.311594
-0.361061
-0.41356
-0.47021
-0.532136
-0.600277
-0.677878
-0.788822
0.00274526
0.0258027
0.0860627
0.198439
0.375937
0.629183
0.962541
1.37316
1.8539
2.39682
2.99515
3.64378
4.33899
5.0778
5.85805
6.6769
7.49353
7.20371
2.78844
-8.31228
-4.79035
-3.72538
-2.87254
-1.98001
-1.02254
0.142469
1.6581
3.45679
5.43623
7.22816
7.82035
5.26485
-2.37419
-16.9458
-2.94152
15.4602
9.63989
3.76193
-20.9714
-60.302
-48.9195
-42.8474
-35.9846
-28.9678
-22.2909
-16.2389
-10.9585
-6.50473
-2.87356
-0.0271585
2.08659
3.53065
4.37832
4.68425
4.51686
3.71661
2.85925
1.91211
0.882745
-0.236744
-1.43728
-2.70323
-4.01076
-5.32805
-6.61542
-7.82578
-8.90573
-9.79775
-10.444
-10.7921
-10.8019
-10.4546
-9.75914
-8.75653
-7.51754
-6.13461
-4.70922
-3.33873
-2.10617
-1.07634
-0.306047
0.109731
-0.149076
-2.4098
-8.8415
-10.9678
-11.3179
-11.4825
-11.5963
-11.6452
-11.5858
-11.3753
-10.9952
-10.4812
-9.95459
-9.62563
-9.69462
-10.0485
-10.0274
-9.23183
-9.28603
-9.03936
-9.17374
-10.1968
-11.937
-13.4672
-13.6692
-12.0003
-8.84907
-5.07975
-1.43232
1.48755
2.66492
0.774781
-5.091
-14.9112
-24.7295
-26.1636
-21.4536
-16.7256
-16.0739
-14.0611
-14.599
-27.8496
-105.622
-245.805
-180.515
-132.318
-88.4613
-52.0504
-23.1361
-0.895252
15.7856
27.8299
36.187
40.9751
44.8916
48.1118
50.7976
53.0682
54.9847
56.5332
57.6143
57.9652
56.9725
54.0562
15.1917
11.3728
9.31365
5.6715
0.19066
-6.76131
-14.6035
-22.7688
-30.9159
-38.9978
-46.3804
-53.6159
-64.7507
-63.6804
-35.4256
16.2157
88.0764
161.004
196.292
160.67
83.3283
35.3862
9.41998
-31.4738
-19.6742
7.23884
23.5602
23.1469
41.1653
46.3022
41.0748
32.5831
19.7336
5.38957
3.2625
2.55002
2.10495
1.80256
1.55913
1.3423
1.11548
0.879974
0.650906
0.443831
0.265086
0.113099
-0.0139863
-0.114195
-0.18214
-0.200725
-0.17629
-0.239076
-15.3032
-6.76601
-6.52042
-6.38492
-5.14847
-3.6787
-2.4524
-1.35614
-0.401652
0.403171
1.13582
2.21624
2.37139
-8.0882
-39.0829
-58.264
-76.0235
-39.0601
-12.7708
-11.0595
-17.5609
-22.9181
-20.7238
-19.0276
-17.7539
-17.0306
-16.8043
-16.9546
-17.3447
-17.8458
-18.3548
-18.8033
-19.1597
-19.4331
-19.6589
-19.8564
-20.1227
-20.1217
-20.3846
-21.0072
-22.0204
-23.4605
-25.3298
-27.6072
-30.2435
-33.1632
-36.2643
-39.4187
-42.4727
-45.25
-47.5577
-49.199
-49.9942
-49.8078
-48.5785
-46.3411
-43.2338
-39.482
-35.3639
-31.1659
-27.1396
-23.4726
-20.2765
-17.5964
-15.4423
-13.7325
-14.9396
-14.8409
-14.6819
-14.6392
-14.6963
-14.7891
-14.8303
-14.7204
-14.365
-13.7003
-12.7268
-11.5512
-10.4356
-9.82067
-10.091
-10.9791
-12.0744
-16.058
-22.3918
-30.6196
-39.2928
-46.4415
-49.9873
-48.6618
-40.8775
-29.5514
-16.6825
-1.80266
17.2996
38.0974
51.3199
47.3821
22.7126
-2.2472
-3.79246
10.2788
8.1455
-70.8502
-126.102
-76.6301
-42.3704
-47.1146
-31.4662
-23.1867
-19.4309
-17.7623
-16.5446
-15.1072
-13.3969
-11.1064
-8.98988
-4.33706
0.978556
7.04122
13.9393
21.7298
30.3986
39.7973
49.6212
59.5552
69.6491
83.4087
86.2746
90.1085
90.7788
87.8833
81.7744
73.2523
63.3733
53.2414
43.6455
34.933
27.7207
22.4233
17.6615
7.18441
-12.1358
-27.4789
-35.8847
-45.7877
-65.6936
-87.4923
-67.7296
21.9923
58.7766
-19.8048
-92.7009
-76.7041
-19.0245
25.864
54.9768
65.3164
51.9401
41.0904
30.7034
22.6713
17.6342
15.0334
14.1471
13.9948
13.8279
13.2879
12.2628
11.0493
9.87293
8.83448
7.94173
7.1588
6.4469
5.78246
5.15124
4.55691
3.92909
3.31054
-8.87672
-8.6084
-12.0814
-11.4013
-8.84456
-6.47352
-5.05509
-3.19278
-1.34583
-0.370867
-2.77115
-14.7024
-45.3747
-79.9496
-89.3511
-36.8979
-2.95611
-5.12298
-9.24635
-14.6237
-19.4897
-22.6181
-24.0701
-25.2657
-26.2188
-26.8588
-27.0755
-26.7914
-25.9967
-24.756
-23.1906
-21.4435
-19.6458
-17.9025
-16.2924
-14.885
-13.6076
-12.8253
-12.576
-12.9499
-14.0217
-15.8389
-18.4143
-21.7195
-25.6835
-30.1937
-35.0999
-40.217
-45.3278
-50.1846
-54.5135
-58.0251
-60.4362
-61.5066
-61.0843
-59.1491
-55.8375
-51.4363
-46.3404
-40.9827
-35.7581
-30.9635
-26.7688
-23.1919
-20.3959
-18.5285
-18.606
-18.0103
-17.5793
-17.3665
-17.3689
-17.559
-17.8773
-18.2242
-18.4633
-18.4463
-18.0638
-17.3176
-16.3847
-15.6422
-15.5928
-16.4669
-18.2396
-21.4069
-26.7905
-33.983
-41.7315
-48.104
-52.0601
-49.9486
-44.0035
-33.9092
-19.995
-3.84053
9.97747
22.6385
36.381
43.2755
28.9302
-2.81593
-18.2812
-29.732
-116.291
-116.035
8.03723
8.65861
-16.4849
-32.5398
-38.2603
-38.6495
-33.3461
-25.0925
-17.491
-12.1563
-8.56668
-5.51924
-1.2797
2.52627
7.46332
13.4564
20.4329
28.3565
37.1136
46.3228
55.2214
62.949
69.6747
76.6332
78.4558
80.8791
81.8232
80.4344
76.4064
69.9842
61.8355
52.8184
43.7743
35.4026
28.2858
22.6747
18.468
16.2216
15.6083
12.2688
4.66521
-7.04257
-26.1213
-55.7847
-92.8181
-111.226
-79.3603
-55.4929
-60.2138
-24.1704
47.6388
131.064
136.165
117.651
94.2118
72.4339
54.0411
39.6628
29.1867
22.2262
18.3143
16.7374
16.4429
15.5703
14.5448
13.3751
12.0817
10.7359
9.41463
8.17153
7.03364
6.01265
5.11643
4.3638
3.73786
3.23262
-1.41255
-15.8524
-17.8924
-14.4187
-11.1333
-8.00737
-5.93643
-7.95161
-13.5002
-22.2923
-39.9174
-64.7501
-83.0125
-70.9966
-23.1145
0.434449
-0.327483
-9.2766
-16.884
-22.885
-27.3288
-30.2597
-31.9718
-32.8001
-32.772
-31.8798
-30.1472
-27.6879
-24.7087
-21.4496
-18.1087
-14.8047
-11.6002
-8.55877
-5.79931
-3.23058
-0.897726
1.04824
2.49392
3.32974
3.42729
2.65959
0.91734
-1.87224
-5.73116
-10.6218
-16.4419
-23.0208
-30.1139
-37.3988
-44.4813
-50.9143
-56.2332
-60.0079
-61.907
-61.7598
-59.6064
-55.7231
-50.5951
-44.8258
-39.0121
-33.6191
-28.9401
-25.0371
-21.852
-21.008
-20.1147
-19.3998
-18.8924
-18.5795
-18.4739
-18.6079
-19.0057
-19.6477
-20.4406
-21.211
-21.7379
-21.8297
-21.4278
-20.6787
-19.9346
-19.6845
-20.4485
-22.5888
-27.0371
-33.5764
-41.3482
-48.9886
-52.9624
-53.6772
-49.6953
-41.3733
-29.9938
-15.1151
5.43876
24.8052
36.8733
35.3717
14.4635
-19.7174
-56.735
-123.015
-116.614
71.5317
55.9716
0.378899
-34.6758
-49.398
-48.8636
-38.0726
-23.977
-13.1633
-7.62712
-5.60808
-4.48333
-2.62018
-1.12058
1.56161
5.76513
11.2233
17.7051
25.1009
33.2429
41.4919
48.5697
53.0962
55.2748
53.8327
52.3125
51.804
51.7476
51.2448
49.4618
45.9948
40.9446
34.7698
28.1247
21.7232
16.1303
11.6841
8.59388
6.9522
7.24833
11.4474
15.7349
14.4854
7.76492
-7.57181
-35.8118
-68.4126
-76.528
-44.894
9.12123
74.073
135.6
171.99
179.008
151.869
120.256
93.104
71.5219
54.7545
41.7497
31.7181
24.2097
18.8885
14.4429
12.03
10.7486
9.953
9.25497
8.47076
7.55854
6.55865
5.54267
4.58008
3.72397
3.01022
2.45247
2.05918
2.85282
-22.2881
-19.4569
-17.9039
-16.1289
-16.0694
-21.2013
-27.8011
-38.4083
-52.2298
-65.9072
-69.2226
-51.4549
-21.2888
-2.47292
-3.23901
-11.5486
-20.1103
-26.6356
-31.2462
-34.2294
-35.8347
-36.2733
-35.6304
-33.9236
-31.2732
-27.9445
-24.2753
-20.5675
-17.0251
-13.7581
-10.8241
-8.25498
-6.01356
-4.06916
-1.84977
0.0920777
2.06307
4.14967
6.32826
8.48888
10.4446
11.9473
12.713
12.4512
10.8937
7.8194
3.08601
-3.31619
-11.1945
-20.1084
-29.3884
-38.2232
-45.7959
-51.4244
-54.6305
-55.1829
-53.1689
-49.0416
-43.5535
-37.5892
-31.8884
-26.9611
-22.9476
-20.5279
-19.4792
-18.7903
-18.4199
-18.2393
-18.1627
-18.1691
-18.3061
-18.672
-19.3692
-20.4376
-21.795
-23.2146
-24.3612
-24.891
-24.5951
-23.5488
-22.1985
-21.2929
-21.6819
-24.1709
-29.2468
-36.4275
-44.2835
-51.8288
-56.6745
-56.423
-50.5189
-40.9783
-28.7927
-10.6487
15.3849
31.9384
24.3745
-4.66874
-48.1701
-124.157
-181.461
65.8026
144.355
32.4466
-27.3799
-54.2659
-56.7305
-43.1445
-24.0417
-9.39694
-2.60807
-1.77251
-3.80849
-6.22585
-7.37308
-8.47953
-6.87644
-3.30532
1.66334
7.59534
14.3594
21.832
29.2108
34.8948
37.1654
34.5419
29.4319
24.6278
21.3904
19.9051
19.4773
19.073
17.8589
15.4713
12.0079
7.89097
3.70559
0.0354461
-2.6827
-4.30058
-4.85881
-4.01011
-0.778403
6.60323
15.7212
19.5311
15.3076
3.13293
-15.4823
-26.1021
-8.69566
37.4861
93.6658
136.728
151.089
139.188
119.958
99.489
81.0035
65.3754
52.45
41.7257
32.7372
25.0095
18.305
13.6461
10.5695
8.62471
7.40942
6.59544
5.94204
5.29773
4.59258
3.8214
3.02195
2.25327
1.57642
1.04011
0.680564
2.77334
-24.8661
-23.9996
-22.2543
-24.4156
-31.6434
-35.9728
-43.4621
-50.9024
-54.2914
-49.3867
-35.2399
-18.3791
-8.27984
-8.29803
-14.8136
-22.2664
-28.2589
-32.3552
-34.818
-35.8597
-35.5456
-33.9144
-31.1229
-27.5112
-23.5377
-19.6568
-16.2309
-13.5014
-11.6
-10.5683
-10.3708
-10.91
-12.113
-13.6997
-15.6528
-17.4207
-18.6534
-19.0773
-18.48
-16.7231
-13.754
-9.6262
-4.52628
1.18821
6.94899
11.9545
15.2109
15.7117
12.7657
6.32357
-2.9015
-13.5924
-24.2267
-33.5333
-40.619
-44.845
-45.8534
-43.7559
-39.2322
-33.4604
-27.5239
-22.3215
-18.2411
-16.061
-15.0786
-14.8023
-14.9634
-15.3583
-15.8312
-16.2834
-16.6969
-17.1545
-17.8249
-18.8957
-20.4658
-22.4448
-24.5085
-26.1425
-26.7866
-26.0833
-24.1635
-21.7802
-20.133
-20.4539
-23.5507
-29.4705
-37.4734
-46.271
-54.1565
-58.8266
-58.0652
-52.297
-43.7459
-30.2064
-5.59305
18.8546
11.1053
-27.6067
-95.8646
-214.948
-51.8875
223.381
104.436
-2.49742
-51.1751
-63.6944
-51.641
-28.6764
-8.79942
1.63423
3.5764
0.197612
-5.66291
-11.7189
-16.2859
-18.4166
-17.6127
-14.5403
-10.1132
-5.01127
0.678776
7.01226
13.2953
17.7358
17.9617
13.7513
7.76193
1.90087
-2.36962
-4.49313
-4.87236
-4.4682
-4.24751
-4.79965
-6.23234
-8.26403
-10.3957
-12.099
-12.9954
-13.0139
-12.3741
-11.0487
-8.27507
-2.49099
6.70795
17.2593
23.4843
21.0081
12.796
7.03623
14.5486
38.2507
67.1258
86.0498
87.9816
75.4216
66.287
58.2824
51.0912
44.406
37.9336
31.7529
26.1902
21.2975
17.017
13.3694
10.4534
8.28024
6.74644
5.68002
4.89873
4.24936
3.62597
2.97334
2.28162
1.57603
0.903474
0.319109
-0.121088
1.13531
-31.1827
-30.1972
-29.4134
-31.9586
-31.9625
-34.9393
-36.9812
-35.9317
-30.9081
-23.1312
-15.6944
-11.767
-12.5432
-16.8529
-22.3431
-27.0084
-30.1471
-31.6698
-31.5525
-29.7575
-26.4185
-21.9293
-16.8601
-11.8134
-7.31613
-3.77431
-1.46603
-0.55106
-1.08228
-3.01285
-6.20876
-10.4365
-15.3331
-20.9081
-27.0585
-33.0618
-38.5838
-43.3702
-47.2019
-49.8817
-51.196
-50.8475
-48.3898
-43.2351
-34.8377
-23.1249
-9.09224
4.85121
15.3602
19.5421
16.4918
7.80267
-3.52441
-14.9063
-24.8851
-32.5572
-37.0622
-37.8322
-35.0078
-29.7701
-23.6098
-17.8989
-13.3534
-10.9785
-9.92051
-9.77202
-10.2262
-11.044
-12.0337
-13.0367
-13.9398
-14.7192
-15.4857
-16.4762
-17.9573
-20.0633
-22.6493
-25.2322
-27.0581
-27.3366
-25.6609
-22.4509
-19.0457
-17.2148
-18.3548
-22.8797
-30.1365
-38.9192
-48.1899
-56.7243
-61.9899
-62.0851
-58.5637
-50.9515
-29.18
2.51931
-4.93829
-57.5894
-160.564
-187.507
107.424
264.345
61.2798
-32.6504
-66.2455
-63.1276
-39.4999
-13.8715
2.65785
8.65487
6.76562
-0.00636263
-8.97967
-17.622
-23.9887
-27.0752
-26.8485
-24.1851
-20.3977
-16.4807
-12.3968
-7.72397
-2.95398
-0.300876
-1.52127
-5.16131
-9.92803
-14.5314
-17.8464
-19.3022
-19.0729
-17.907
-16.6831
-15.9902
-15.939
-16.2252
-16.3692
-15.9869
-14.9244
-13.2812
-11.439
-9.76666
-7.86834
-4.45198
2.18773
11.1459
21.018
27.5726
26.3315
22.2579
23.9761
33.1436
43.8664
49.1526
47.1121
40.9744
35.0672
31.6127
29.7548
28.4269
27.0759
25.2635
22.7037
19.6455
16.4306
13.3757
10.7205
8.58919
6.98111
5.80187
4.91678
4.19645
3.54144
2.88994
2.21636
1.52583
0.846422
0.220361
-0.30188
0.660426
-35.1435
-34.8709
-31.7298
-25.1596
-23.5316
-22.6205
-21.0277
-18.5157
-15.7291
-13.6997
-13.2268
-14.5519
-17.3572
-20.8493
-24.0133
-26.0291
-26.4345
-24.953
-21.5511
-16.5435
-10.5321
-4.22479
1.72544
6.79613
10.6089
12.9202
13.6062
12.6507
10.1323
6.2078
1.09878
-4.83078
-11.1554
-18.6385
-26.2791
-33.7251
-40.7423
-47.147
-52.8585
-57.9517
-62.6682
-67.3134
-71.9604
-75.9692
-77.5546
-73.9083
-62.3747
-42.4619
-17.4928
5.47544
18.762
19.4423
11.3125
0.0619783
-10.9761
-20.7905
-28.4154
-32.5562
-32.4717
-28.2922
-22.5887
-15.9126
-11.2194
-8.12948
-6.44772
-5.8808
-6.11654
-6.89097
-8.00216
-9.28322
-10.5758
-11.7482
-12.7663
-13.7686
-15.0584
-16.9624
-19.6025
-22.7102
-25.5736
-27.1672
-26.5483
-23.5162
-19.1446
-15.5513
-14.8335
-17.9335
-24.2813
-32.5478
-42.0341
-52.703
-62.9348
-69.6602
-72.4756
-70.4859
-50.3669
-14.4403
-23.3182
-88.9522
-192.639
-109.696
221.278
247.489
26.1143
-55.4118
-73.1709
-55.8994
-26.1733
-1.95905
10.9246
13.6429
8.9739
-0.248094
-11.1957
-21.4114
-28.6457
-32.4386
-32.599
-30.2178
-27.0708
-24.5344
-22.2993
-19.4105
-16.6813
-16.2896
-17.746
-19.9886
-22.356
-24.3694
-25.552
-25.5232
-24.2931
-22.3478
-20.3596
-18.7637
-17.5121
-16.1389
-14.1192
-11.3124
-8.08603
-4.97802
-2.40644
-0.73103
0.0416905
0.892079
4.13942
9.71379
17.0781
25.4259
30.6697
29.5934
27.3567
28.6108
31.2063
31.541
28.9854
25.4099
22.867
22.224
23.0352
24.1989
24.702
24.0487
22.285
19.7774
16.9511
14.1533
11.625
9.50274
7.82017
6.52468
5.51431
4.67954
3.93127
3.21157
2.49319
1.77445
1.07279
0.418301
-0.151761
2.69997
-32.0218
-30.0197
-21.1194
-16.7997
-14.3394
-12.8997
-12.1284
-11.9818
-12.4784
-13.5447
-15.0575
-16.94
-19.0505
-20.9619
-21.9961
-21.4839
-19.0124
-14.5812
-8.62338
-1.83729
5.03975
11.3801
16.7163
20.7349
23.2547
24.2069
23.62
21.6011
18.3082
13.9123
8.55939
2.18233
-3.93672
-11.0105
-18.1095
-25.0718
-31.6237
-37.4576
-42.3283
-46.1918
-49.4028
-52.9289
-58.3411
-67.1332
-79.1859
-91.2633
-97.3311
-91.3165
-70.3849
-37.9376
-5.19565
14.3858
17.2243
9.65854
-0.414186
-10.3434
-19.7354
-26.9088
-30.4914
-28.06
-23.3782
-17.773
-12.6302
-8.64035
-5.98625
-4.54538
-4.06832
-4.29772
-5.02955
-6.1147
-7.41637
-8.77467
-10.0376
-11.1663
-12.3373
-13.9188
-16.262
-19.4083
-22.8885
-25.7123
-26.6221
-24.7511
-20.5204
-15.964
-13.7712
-15.6016
-21.1317
-28.8196
-37.9578
-49.4035
-62.9856
-75.8992
-85.7736
-88.5092
-68.0054
-29.965
-41.6248
-114.926
-192.326
-15.0249
281.864
213.608
5.00661
-72.4792
-74.0006
-46.1007
-14.3774
7.53039
17.7569
18.2543
11.7144
1.00103
-10.9567
-21.8632
-29.7662
-34.0161
-34.3797
-32.151
-29.5969
-28.4519
-27.9421
-26.818
-26.1802
-27.0781
-28.2611
-28.7615
-28.4833
-27.7868
-26.8336
-25.4246
-23.3983
-20.9634
-18.5319
-16.272
-13.8489
-10.6157
-6.1669
-0.837718
4.34403
8.32949
10.7153
11.6009
11.0671
9.79698
9.72576
11.7588
15.6911
21.3872
27.6277
30.4458
28.6555
26.0634
24.6008
23.0905
20.7946
18.5151
17.5169
18.4095
20.7224
23.2468
24.8049
24.8342
23.447
21.1241
18.3803
15.5993
13.0231
10.7886
8.94647
7.4717
6.28733
5.29924
4.42503
3.60852
2.82148
2.05874
1.33164
0.661855
0.0751275
8.16076
-13.9861
-12.0292
-10.9406
-9.41985
-8.57128
-8.7766
-9.85642
-11.4497
-13.1761
-14.7835
-16.2398
-17.6072
-18.7385
-19.1361
-18.1518
-15.334
-10.6698
-4.58802
2.23348
9.09884
15.436
20.8349
25.0306
27.8755
29.3183
29.3985
28.2458
26.0668
23.1139
19.6533
15.983
12.5731
5.87733
0.380814
-5.3482
-11.1625
-16.7424
-21.6752
-25.5038
-27.8033
-28.3481
-27.6003
-27.5473
-32.068
-45.1316
-66.6011
-89.7152
-104.546
-102.876
-81.2029
-44.5873
-10.0224
9.0155
12.6501
5.33127
-2.28978
-11.428
-20.1394
-25.9775
-27.5578
-25.4192
-21.0853
-16.1429
-11.6682
-8.16861
-5.75462
-4.32611
-3.7026
-3.70657
-4.20669
-5.10747
-6.29497
-7.60075
-8.85611
-10.0346
-11.3689
-13.2809
-16.091
-19.6813
-23.3232
-25.7568
-25.6621
-22.6465
-18.1605
-15.1037
-15.9049
-20.7499
-27.9598
-36.5824
-48.0415
-63.7265
-82.0514
-99.2561
-106.178
-83.3776
-42.776
-56.0888
-129.279
-166.289
69.0525
305.396
183.901
-8.6876
-77.7412
-72.2786
-38.6177
-4.59894
15.7191
24.1854
23.1219
15.4548
4.09119
-8.14827
-19.3181
-27.9707
-32.4732
-32.884
-30.7684
-28.8476
-29.0489
-30.084
-30.0596
-30.7232
-31.9787
-32.3867
-31.1632
-28.7507
-26.1378
-23.9151
-21.9398
-19.8336
-17.508
-15.0422
-12.1928
-8.28835
-2.8019
3.99128
11.0122
16.907
20.6318
21.9428
21.3739
19.4462
16.499
14.5163
13.6743
14.6837
17.4525
21.721
25.5549
26.1844
23.881
20.8839
18.1182
15.5934
13.8211
13.753
15.8689
19.5527
23.3503
25.856
26.4247
25.2331
22.8893
20.0209
17.0776
14.3276
11.9141
9.89078
8.23883
6.89046
5.75972
4.76932
3.86514
3.01873
2.22268
1.48399
0.81784
0.241367
-5.3764
1.55668
0.836174
-1.62961
-3.60851
-5.40998
-7.51462
-9.84216
-12.0453
-13.857
-15.2446
-16.3228
-17.0885
-17.2312
-16.2338
-13.673
-9.47321
-3.95439
2.31687
8.73363
14.7902
20.1281
24.5183
27.8265
29.9937
31.0364
31.0617
30.2716
28.917
27.192
25.1138
22.5342
19.2117
15.5789
11.5789
7.21757
2.59077
-1.90748
-5.79489
-8.53371
-9.53582
-8.03283
-3.32437
3.80076
8.84418
3.59524
-17.7564
-50.9061
-82.5993
-100.596
-97.8845
-70.4354
-37.8227
-10.281
3.80909
6.5539
2.89026
-4.42052
-13.3084
-21.1109
-25.6082
-26.2051
-23.7927
-19.8198
-15.5183
-11.6328
-8.49411
-6.1836
-4.65661
-3.81552
-3.56215
-3.82837
-4.55654
-5.63843
-6.88942
-8.13601
-9.39131
-10.9583
-13.2812
-16.5755
-20.497
-24.046
-25.7993
-24.7024
-21.3005
-18.1603
-18.2753
-22.5686
-29.4317
-37.5419
-48.6174
-65.6005
-88.6881
-113.441
-124.881
-98.3551
-52.623
-63.8753
-129.554
-125.976
131.976
308.58
164.255
-13.4204
-77.5047
-68.2109
-31.7082
1.57855
22.9731
30.1058
27.9869
19.7562
8.44814
-3.52077
-14.774
-24.2932
-28.9411
-29.3581
-27.4036
-26.1365
-27.8353
-29.4891
-30.1725
-31.063
-31.8864
-31.2687
-28.7943
-25.2453
-21.8983
-19.5487
-18.0299
-16.7169
-15.1388
-12.8571
-9.10583
-3.21577
4.44315
12.4479
19.3344
24.233
26.7251
26.7703
24.9028
21.8554
17.9457
13.9417
12.0753
11.4114
12.2507
14.5471
17.7007
19.8688
19.703
17.6884
14.8998
12.18
10.5183
11.0188
14.1255
19.0112
23.913
27.1788
28.0877
26.8931
24.3448
21.2011
17.9993
15.0456
12.4829
10.3456
8.59588
7.1565
5.94167
4.87937
3.92127
3.04246
2.23592
1.50595
0.86236
0.315703
-14.8149
10.8554
10.2816
5.30924
0.250663
-3.84043
-7.2226
-10.0381
-12.2078
-13.7258
-14.7301
-15.3287
-15.4057
-14.6311
-12.6643
-9.3724
-4.92106
0.297314
5.81439
11.2139
16.1926
20.5628
24.2136
27.0761
29.1174
30.3548
30.9056
30.964
30.7136
30.2488
29.4066
27.6699
24.2762
21.1491
17.9893
14.6624
10.6453
6.64639
3.32152
1.31898
1.19504
3.95201
11.5416
25.3071
41.7338
49.5999
37.4301
2.47045
-40.8025
-73.2303
-87.0353
-78.808
-53.8137
-25.1476
-4.90204
3.91553
4.2608
-0.736119
-8.72422
-17.0472
-23.1787
-25.8509
-25.3045
-22.6247
-18.964
-15.1498
-11.6535
-8.70646
-6.40641
-4.77155
-3.77168
-3.36483
-3.52159
-4.19737
-5.27054
-6.53912
-7.84708
-9.27582
-11.1944
-14.0102
-17.7581
-21.838
-25.0397
-26.0147
-24.4254
-22.0351
-21.9501
-25.8705
-32.5163
-40.1608
-50.5733
-68.2483
-95.5724
-128.094
-145.076
-114.458
-60.2432
-64.373
-117.352
-81.4136
174.174
303.387
154.602
-10.4512
-72.561
-62.6679
-26.5099
6.39099
27.1118
34.4821
32.3979
24.5098
13.0507
1.59009
-9.56782
-19.6404
-24.1499
-24.791
-23.3346
-22.9849
-25.1924
-27.3865
-28.0906
-28.5195
-28.5487
-27.1878
-24.3488
-20.7722
-17.6978
-16.0682
-15.774
-15.9262
-15.4448
-13.1377
-7.99763
-0.275121
8.23545
15.592
20.9434
24.3174
25.798
25.278
22.921
19.3263
14.9714
9.79924
7.31121
5.55392
5.16036
6.13742
8.44704
11.3185
13.3029
13.5208
12.1139
9.9998
8.66371
9.61641
13.4348
19.1624
24.7837
28.4499
29.398
27.9743
25.0748
21.5896
18.1367
15.0447
12.4332
10.2947
8.55464
7.11576
5.88886
4.80856
3.83598
2.95362
2.15773
1.45175
0.841485
0.332448
-14.0681
16.0422
15.8575
9.49062
2.33788
-3.28177
-7.29069
-10.0745
-11.8772
-12.904
-13.3532
-13.2938
-12.6109
-11.1174
-8.71714
-5.46365
-1.58845
2.62941
6.86247
10.9114
14.6571
18.0477
21.0584
23.6558
25.7857
27.4052
28.5299
29.2417
29.6933
30.0511
30.2582
29.7489
25.3847
22.4798
19.0201
16.5868
12.6163
8.31735
4.63731
2.46249
2.24714
4.8642
13.249
31.2408
57.4717
79.4687
79.3399
51.2813
8.16361
-32.2687
-58.5415
-65.1071
-52.9771
-31.2774
-11.7613
-0.616525
2.32541
-0.701835
-7.41041
-15.2507
-21.7601
-25.4581
-26.1747
-24.6104
-21.6918
-18.1817
-14.5931
-11.2501
-8.36122
-6.05662
-4.39524
-3.38017
-2.994
-3.21833
-3.99758
-5.18459
-6.57092
-8.04798
-9.78281
-12.1752
-15.5172
-19.6129
-23.6371
-26.3302
-26.8021
-25.8479
-26.1588
-29.9835
-36.5632
-43.8151
-53.313
-71.0893
-102.102
-142.464
-166.217
-132.18
-66.6463
-58.7582
-96.2829
-38.8921
200.073
296.239
153.087
-1.31878
-63.8525
-56.4703
-22.586
9.45869
29.744
37.1875
35.1295
27.144
16.6777
5.97428
-4.50803
-14.3611
-18.845
-19.9182
-19.1079
-19.3464
-22.1265
-24.4627
-24.7079
-24.486
-23.9947
-22.6755
-20.4708
-17.6458
-15.2454
-14.5646
-15.806
-17.7514
-18.3721
-15.7152
-9.31503
-0.968471
6.79564
12.7089
16.8955
19.7909
21.3647
21.1815
19.026
15.2976
10.6049
4.62649
1.22407
-1.60933
-3.06917
-3.07296
-1.42574
1.83388
5.60354
8.28
8.99778
8.26367
7.74146
9.28292
13.655
19.8745
25.7921
29.4646
30.1523
28.3196
25.0055
21.2089
17.5962
14.4842
11.9437
9.91078
8.26931
6.9023
5.71904
4.6629
3.70639
2.84116
2.06836
1.392
0.815436
0.340658
-12.474
17.6707
17.6511
11.6498
3.52934
-3.21099
-7.6339
-10.2079
-11.506
-11.9136
-11.6494
-10.7809
-9.26869
-7.18231
-4.6006
-1.67817
1.04735
4.74395
7.57607
9.98929
12.1855
14.2699
16.3218
18.3577
20.3207
22.1135
23.6262
24.7928
25.6444
26.3125
26.4147
25.9876
24.4291
22.8969
20.2945
16.4293
11.596
6.10526
0.906989
-2.83287
-4.56858
-3.69892
3.03863
21.7452
54.6086
90.1809
105.857
89.0018
49.8935
7.59163
-25.158
-41.9816
-41.6838
-29.8097
-15.6593
-5.87875
-2.2671
-3.99823
-9.34374
-16.0779
-22.0251
-25.7955
-27.0483
-26.1798
-23.8442
-20.6507
-17.0777
-13.4903
-10.172
-7.3372
-5.1257
-3.5985
-2.75766
-2.58473
-3.05115
-4.07496
-5.48461
-7.08863
-8.85438
-11.0264
-13.968
-17.7839
-22.0507
-25.8301
-28.1106
-28.9199
-30.1889
-34.2891
-41.0033
-48.0031
-56.4215
-73.7112
-107.785
-155.773
-187.125
-151.046
-72.7143
-49.1326
-70.327
-1.42246
214.463
289.65
157.432
12.4701
-52.1189
-49.7261
-19.6235
10.8096
30.5354
37.9569
35.9363
28.1825
18.2582
8.62342
-0.415718
-9.27078
-13.7382
-15.1424
-14.8953
-15.7597
-18.9806
-21.1014
-20.7981
-20.3267
-20.0891
-19.7233
-18.8297
-16.9135
-14.8973
-14.8576
-17.6543
-21.5715
-23.2575
-20.2452
-13.2168
-5.13624
1.73723
7.06082
11.4123
15.0406
17.4874
17.9988
16.1916
12.3995
7.32705
1.51451
-4.0007
-8.32481
-11.0739
-12.134
-11.1573
-7.69671
-2.47897
2.49282
5.50785
6.53012
7.17879
9.48748
14.3591
20.827
26.7109
30.0847
30.3078
27.9887
24.2926
20.2874
16.6433
13.6323
11.2592
9.40215
7.90902
6.65024
5.53861
4.52835
3.60365
2.76507
2.01866
1.36971
0.820355
0.370463
-12.293
19.4823
23.7028
16.6899
6.41664
-2.58215
-8.44951
-11.3764
-12.3349
-12.0858
-10.9818
-9.10575
-6.55326
-3.50272
-0.366531
2.56257
5.03781
7.12723
8.35936
9.06146
9.56654
10.1406
10.9726
12.1538
13.6575
15.3674
17.1322
18.7776
20.1864
21.3073
21.9952
21.3261
22.0736
21.0815
18.4999
14.2495
8.39783
1.36803
-5.7686
-11.6827
-15.8588
-17.9375
-14.2317
3.51137
40.7246
86.9585
115.941
110.158
78.0863
38.711
4.51211
-18.1096
-26.7764
-24.3201
-17.1128
-10.7473
-7.90667
-8.99718
-13.0668
-18.4105
-23.2873
-26.5525
-27.8338
-27.3003
-25.3474
-22.4074
-18.8888
-15.1652
-11.5654
-8.35852
-5.73983
-3.82091
-2.63423
-2.16275
-2.3751
-3.22215
-4.59255
-6.3053
-8.2155
-10.3806
-13.0805
-16.56
-20.7066
-24.9485
-28.4607
-30.9089
-33.4645
-38.2191
-45.3219
-52.3154
-59.693
-76.002
-112.422
-167.764
-207.271
-170.097
-78.3754
-37.109
-42.585
30.1282
221.004
283.865
165.351
29.4035
-38.0165
-42.2862
-17.3264
10.5829
29.4067
36.7334
34.8594
27.4701
18.2432
9.55198
1.84988
-5.37361
-9.24472
-10.7066
-10.9455
-12.4035
-15.8721
-17.589
-17.12
-17.2444
-18.1055
-19.2423
-19.7616
-18.3728
-16.0718
-16.235
-20.6881
-26.7898
-29.3547
-25.7467
-18.0686
-9.91356
-3.0402
2.71012
7.94893
12.6315
15.9466
16.9597
15.2944
11.3373
5.86511
-0.517968
-7.41422
-13.2768
-17.6134
-20.0482
-19.9855
-16.5873
-10.2575
-3.2788
1.91179
4.72988
6.65721
9.80092
15.1295
21.6918
27.3382
30.2441
29.928
27.1531
23.1806
19.1007
15.5477
12.7271
10.5758
8.92173
7.58827
6.4425
5.40585
4.44481
3.55449
2.74293
2.0202
1.39276
0.862241
0.427298
-5.01218
13.1462
24.2288
22.252
12.2277
1.46392
-6.38075
-10.7561
-12.4467
-12.3449
-10.972
-8.54106
-5.21685
-1.35196
2.51933
5.80894
8.12445
9.25394
9.18596
8.30654
7.10991
6.05177
5.47979
5.59579
6.44095
7.91936
9.84986
12.0054
14.1657
16.1398
17.7751
18.8734
19.0397
17.8932
15.0732
10.3028
3.51121
-4.91302