/*--------------------------------*- C++ -*----------------------------------*\
| =========                 |                                                 |
| \\      /  F ield         | OpenFOAM: The Open Source CFD Toolbox           |
|  \\    /   O peration     | Version:  2112                                  |
|   \\  /    A nd           | Website:  www.openfoam.com                      |
|    \\/     M anipulation  |                                                 |
\*---------------------------------------------------------------------------*/
FoamFile
{
    version     2.0;
    format      ascii;
    arch        "LSB;label=32;scalar=64";
    class       volScalarField;
    location    "0.17";
    object      ddt0(epsilonU);
}
// * * * * * * * * * * * * * * * * * * * * * * * * * * * * * * * * * * * * * //

dimensions      [0 2 -4 0 0 0 0];

internalField   nonuniform List<scalar> 
12225
(
-76.6155
-483.648
-1391.98
-2989.57
-5582.09
-9461.78
-14760.2
-21436.7
-29350.1
-38329.4
-48212.3
-58875.2
-70394.1
-83164.1
-99542.4
-121577
-166825
-212263
101.55
320.909
539.014
784.127
1120.84
1564.67
2097.61
2702.37
3383.84
4177.16
5155.68
6452.94
8314.87
11219.2
15918.9
23942
36430.6
53376.2
16.0081
69.2136
136.723
207.944
291.83
397.52
528.175
683.929
867.271
1087.79
1367.06
1747.69
2312.73
3233.4
4840.33
7839.99
13474.2
25031.3
3.73708
16.6307
34.2644
52.9858
73.8553
100.363
136.019
183.074
242.528
315.046
402.507
510.448
652.197
859.424
1200.68
1835.09
3099.21
5868.49
1.11782
4.90428
10.3184
16.2311
22.8119
31.3189
43.4119
60.5562
83.7868
113.848
151.619
198.819
259.053
340.168
457.992
646.673
975.217
1613.04
0.372277
1.59085
3.53626
5.81693
8.4265
11.9011
17.0892
24.8602
35.9397
50.9192
70.4202
95.3957
127.562
170.121
228.586
312.254
435.675
622.61
0.149585
0.517199
1.215
2.14216
3.28586
4.89808
7.4267
11.3781
17.2203
25.3661
36.2348
50.38
68.6628
92.4543
123.66
164.333
215.15
270.34
0.0897081
0.165016
0.365635
0.720536
1.23674
2.03226
3.33984
5.45009
8.65583
13.2284
19.4312
27.5583
37.972
51.0901
67.156
85.5418
103.121
110.08
0.0789668
0.0645633
0.0730163
0.177207
0.395961
0.781695
1.44937
2.56055
4.29441
6.82613
10.3193
14.9218
20.7422
27.7565
35.5355
42.6295
45.395
35.5221
0.0813478
0.048917
-0.00835315
-0.010892
0.0657472
0.243759
0.574325
1.14047
2.04533
3.3962
5.28966
7.79012
10.883
14.3664
17.6151
19.1351
15.8221
1.72178
0.0858932
0.0574514
-0.0160565
-0.0593321
-0.0445625
0.0383546
0.207788
0.499932
0.966856
1.66648
2.64732
3.92278
5.42175
6.89299
7.72752
6.66991
1.39075
-12.0253
0.0892689
0.0687075
-0.00409793
-0.0592494
-0.066331
-0.0178155
0.0911906
0.273309
0.550944
0.950059
1.48669
2.14293
2.82338
3.27972
2.98541
0.957884
-4.47497
-15.8276
0.091889
0.0791858
0.0111431
-0.0473861
-0.0634474
-0.0280036
0.0590276
0.19791
0.392513
0.646588
0.952731
1.27222
1.50036
1.41185
0.57872
-1.72832
-6.65172
-15.717
0.0931043
0.0878673
0.0273129
-0.0294831
-0.0479278
-0.0156143
0.0675184
0.196156
0.36299
0.556555
0.752722
0.899314
0.891553
0.537858
-0.486244
-2.67859
-6.74834
-13.5003
0.0920848
0.0934094
0.0419468
-0.00986122
-0.0275532
0.00440518
0.0880181
0.216369
0.376439
0.548164
0.69874
0.772531
0.67652
0.263551
-0.68738
-2.47555
-5.48041
-10.0328
0.0877858
0.0947297
0.0541345
0.0104143
-0.00454417
0.0265485
0.1082
0.234498
0.391299
0.55646
0.697135
0.764867
0.689392
0.374094
-0.308329
-1.50431
-3.37211
-5.98506
0.07884
0.0906664
0.0635637
0.0317656
0.0217375
0.0507867
0.126253
0.245805
0.398868
0.567676
0.727021
0.843281
0.873629
0.767682
0.469248
-0.0700633
-0.887132
-1.95592
0.0638732
0.0802149
0.0702926
0.0553416
0.0536908
0.0814814
0.149932
0.263448
0.419778
0.611016
0.824532
1.04395
1.25051
1.42617
1.55598
1.63767
1.68016
1.71852
0.0420239
0.0623467
0.0733376
0.0806428
0.0927537
0.124337
0.191727
0.308562
0.483853
0.721722
1.02192
1.38082
1.79311
2.2546
2.76331
3.32512
3.95046
4.64788
0.0209552
0.044182
0.0738319
0.102001
0.129505
0.170769
0.24703
0.379747
0.586725
0.880297
1.2672
1.74922
2.32352
2.98428
3.72592
4.54683
5.44803
6.42245
0.00577958
0.0320284
0.075962
0.12008
0.160736
0.213712
0.303777
0.457318
0.696058
1.03467
1.48015
2.03202
2.68539
3.43051
4.25473
5.15279
6.11717
7.11258
-0.00516172
0.0249258
0.080666
0.135921
0.184692
0.242622
0.336764
0.49334
0.731869
1.06226
1.48545
2.00484
2.60664
3.25011
3.89967
4.56808
5.24074
5.90916
-0.0123704
0.0209889
0.0807852
0.132122
0.165188
0.190135
0.221619
0.269753
0.336661
0.416522
0.496549
0.548386
0.553493
0.524057
0.471014
0.349873
0.154928
-0.110479
-0.0184554
0.00297167
0.024074
0.00308692
-0.0757506
-0.225067
-0.46898
-0.842013
-1.381
-2.11727
-3.07218
-4.25543
-5.66556
-7.29092
-9.10885
-11.0905
-13.202
-15.3911
-0.0389224
-0.114093
-0.307698
-0.653687
-1.17141
-1.93244
-3.0567
-4.6719
-6.87686
-9.72306
-13.2128
-17.306
-21.9296
-26.9885
-32.3757
-37.9822
-43.7014
-49.4138
-0.156868
-0.716729
-1.72346
-3.10646
-4.9026
-7.33406
-10.7205
-15.344
-21.3674
-28.8201
-37.619
-47.5984
-58.5367
-70.1848
-82.2915
-94.6247
-106.989
-119.195
-0.736733
-3.56961
-8.17925
-13.8447
-20.6271
-29.2361
-40.4633
-54.7622
-72.1704
-92.4296
-115.111
-139.696
-165.628
-192.379
-219.497
-246.642
-273.665
-300.612
-3.81636
-17.803
-40.0993
-67.5917
-100.744
-141.072
-188.459
-240.942
-296.018
-351.747
-407.018
-461.401
-514.949
-568.144
-621.85
-677.1
-736.193
-803.564
-28.4526
-114.568
-229.243
-358.61
-503.356
-661.384
-821.746
-973.17
-1110.66
-1235.68
-1352.86
-1467.16
-1582.43
-1701.84
-1827.77
-1960.34
-2124.73
-2441.64
13.272
151.942
597.416
1538.54
3123.07
5418.17
8388.33
11925.7
15904.3
20216.9
24784.6
29552.4
34481.3
39540
44712.8
49911
54779.3
51408.9
8796.98
-11422.8
-7116
-5491.81
-3965.47
-2278.75
-475.175
1614.27
4192.25
7052.04
9825.12
11643.4
10923.6
5988.66
-2768.32
-19356.4
166.073
23413
11199.3
1496.55
-41966.3
-100304
-104465
-103748
-95499.2
-82629.7
-67527.9
-51950.2
-37107
-23765.1
-12351.6
-3034.31
4183.19
9387.45
12747.6
14471.7
14643.2
12695.9
10673.6
8409.06
5926.76
3208.86
280.078
-2815.83
-6014.78
-9231.17
-12357.7
-15268.3
-17829.3
-19896
-21316.4
-21975
-21810
-20824.5
-19091.8
-16731.5
-13925.6
-10966.2
-8154.82
-5570.52
-3302.89
-1865.69
-941.486
-591.339
-1626.39
-7321.63
-17506.5
-19196.5
-19607.3
-19800.8
-19848.8
-19771.5
-19542.2
-19168.6
-18437.9
-17374.4
-16365.1
-16064.4
-16438.8
-16986.5
-16497.8
-14950.2
-14985.3
-14331.4
-14348.3
-15550
-17313.4
-18278.6
-17284.5
-13920.7
-8760.82
-2878.41
2302.07
4735.94
3124.06
-2826.19
-11315.2
-23458.8
-33715.6
-41154.1
-37191.4
-32490.6
-31723
-22739.8
-29271.7
-86991.8
-375914
-529718
-452770
-346645
-235245
-135631
-53928
9298.85
55596.7
87951.2
106374
118102
126716
132728
137518
142089
143100
143234
143166
141305
134532
108748
25413.1
20693.1
14197.1
2562.81
-13969.8
-34735.3
-59151.6
-84570.2
-109964
-136320
-161445
-192514
-238488
-206694
-83091.7
132220
384926
548263
494948
275059
101558
36061.8
-2735.51
-49435.3
-11057.7
24055.4
42181.6
49752.4
69292.7
64121.2
49486.1
32406.5
13612.3
4358.11
3195.18
2518.82
2073.98
1760.81
1505.08
1275.82
1042.81
808.478
586.534
389.311
220.397
77.0263
-42.6095
-135.185
-194.246
-198.998
-167.512
-226.634
-49194.5
-7530.17
-181.827
1110.54
1861.96
2224.87
2156.09
1490.68
1254.59
1509.25
2384.1
4164.03
5729.4
-1263.37
-28157.1
-54072.3
-106839
-69699.1
-24745
-14157.7
-19783
-24991.8
-19804.9
-13372.9
-6592.8
-415.989
4636.63
8286.35
10419.4
11063.9
10359.1
8528.79
5846.51
2583.56
-1011.68
-4617.5
-7709.19
-7896.53
-8065.05
-8364.24
-8812.62
-9433.2
-10230.2
-11195.9
-12308.3
-13531.8
-14817.5
-16103.2
-17314.4
-18366.1
-19167
-19626.9
-19669.2
-19245
-18347.7
-17022.2
-15363.5
-13503.8
-11590.4
-9761.17
-8125.62
-6757.2
-5698.51
-4981.68
-4665.64
-4859.03
-6077.33
-6281.83
-6369.96
-6461.79
-6562.06
-6653.83
-6715.36
-6726.9
-6676.87
-6567.8
-6420.23
-6273.85
-6189.13
-6257.64
-6591.49
-7404.4
-9399.38
-10784
-11718.7
-12664.9
-14000.1
-15719.9
-17392.7
-18213
-18288.8
-17370.1
-15306.4
-10924.6
-3339.69
7421.62
17175.4
19041.2
8512.83
-8744.75
-17712.6
-15325.1
-22297.8
-128065
-286513
-232137
-90987.7
-51346.4
2052.94
43393.9
68309.7
77864.8
75097.3
64217
47891.6
28694.3
7952.85
8557.2
10102.7
12280.4
15122.8
18668.3
22927
27822.9
33141.9
38546.6
43556
48238.4
47395.2
48690.3
47836.3
44751.6
39878.7
33848.1
27332.1
20940.9
15022.3
9609.97
4937.65
963.779
-3909.84
-42941.4
-107160
-126586
-101474
-73466.5
-91782.7
-140072
-107625
49405.6
115533
8735.73
-88412.3
-80362.8
-22958.4
16858.2
65425.2
80888.6
61521.2
46282.9
32526.9
22255.4
15601.7
11831.3
10085.7
9356.45
8897.25
8326.83
7461.13
6513.76
5631.22
4863.7
4205.32
3630.68
3118.29
2658.01
2244.59
1856.95
1504.94
1215.78
-35272.1
2103
1899.21
1037.18
1152.17
1234.83
587.139
156.059
11.1275
-119.482
-1522.98
-9480.99
-37327.2
-80124.2
-112544
-48026.9
3602.8
2319.95
1654.11
-1258.91
-4103.68
-4325.31
-2032.37
548.21
2695.57
3944.65
4140.22
3394.75
2008.12
349.283
-1254.94
-2580.29
-3517.7
-4051.13
-4212.86
-4059.8
-3942.53
-3624.3
-3484.41
-3583.18
-3956.13
-4625.92
-5599.46
-6864.99
-8391.38
-10129.1
-12012
-13959.1
-15875.2
-17652.1
-19170.4
-20305.1
-20936.9
-20971
-20360.1
-19124.9
-17363.5
-15241.8
-12965.1
-10737.9
-8725.82
-7033.27
-5699.94
-4703.51
-4073.84
-3934.78
-4349.8
-4388.4
-4448.88
-4562.29
-4729.9
-4944.72
-5192.63
-5451.26
-5690.93
-5879.62
-5993.47
-6032.21
-6033.87
-6082.77
-6299.79
-6754.1
-7449.77
-8337.64
-9292.04
-10378.1
-11650.4
-13071.7
-14448.3
-15683.6
-15811.3
-14827.4
-12925.1
-10769.5
-7932.86
-3400.61
3701.25
9155.99
2623.59
-18862.6
-40932.4
-64818.8
-192517
-279098
-78022.8
16771.4
31325.2
44566.6
59133
62834.9
55681.9
42847.6
29235.6
17702.2
9446.5
4901.5
1935.38
2466.89
3765.44
5723.91
8334.35
11619.3
15573.6
20059.5
24713.5
29040.7
33009.3
36860.2
37940.7
38938
38858.2
37422.9
34673
30896.6
26514.9
21957.5
17579
13628.7
10290.3
7579.27
5274.88
2249.22
-6410.02
-32819.3
-57297.3
-65277.7
-73627.4
-103158
-153380
-186449
-132570
-76482.4
-78067.2
-46003.9
36335.6
162050
176038
151066
117282
86386.1
61523.3
43078.3
30098.8
21426.3
16069.7
13094
11511.5
9971.87
8670.96
7531.44
6499.09
5564.81
4731.68
3998.39
3357.64
2800.79
2321.72
1920.34
1586.35
1317.8
-2754.9
4376.74
-509.25
-2883.75
-2902.51
-1662.47
-1811.52
-6476.73
-9714.36
-17127
-33527.9
-60006.5
-85179.9
-78519.8
-18536.5
15010.4
17105.4
8598.09
3018.39
-515.535
-2227.01
-2378.79
-1843.36
-1529.53
-1729.91
-2390.17
-3252.45
-4032.76
-4535.77
-4681.07
-4475.25
-3972.19
-3248.95
-2403.69
-1557.75
-710.663
179.977
969.616
1596.25
2009.6
2150.27
1958.56
1382.8
388.955
-1032.38
-2862.16
-5051.72
-7522.63
-10165.8
-12841.5
-15381.9
-17599.7
-19302.2
-20313.3
-20504.1
-19823.6
-18327
-16185.4
-13664.1
-11065.2
-8658.02
-6622.87
-5040.22
-3890.33
-3113.04
-3358.43
-3361.26
-3382
-3459.92
-3594.92
-3789.95
-4052.71
-4389.33
-4795.78
-5250.88
-5714.4
-6133.39
-6458.51
-6667.21
-6780.75
-6866.11
-7024.62
-7366.08
-7973.28
-8916.46
-10308.3
-12143.4
-14218.5
-16190.7
-17373.6
-17312.6
-16067.4
-14076.6
-11283.3
-7084.53
-2286.01
1711.06
1484.52
-10640.9
-41042.2
-89975.1
-194508
-279535
-17708.7
77330
58801
50868
53421.6
51782.3
42865.4
31255.6
20563.6
12207.1
6413.58
2993.5
1513.82
439.92
696.059
1668.38
3265.87
5439.26
8191.42
11503.9
15146.8
18556
21029.2
22638.1
22629.6
22110.9
21895.4
21727.5
21233.3
20115.6
18288.1
15865.5
13073.5
10179.1
7447.8
5074.58
3163.15
1760.37
773.35
-200.215
-3477.62
-12485.5
-26304.5
-38601.7
-53204
-82051
-122878
-132734
-78252.6
6424.8
93022.4
173412
225882
236456
196162
148967
109081
78679.8
56524.4
40627
29273.1
21250.7
15666.7
11196.9
8387.37
6633.19
5485.72
4657.66
3988.99
3406.09
2885.08
2423.4
2022.81
1682.81
1400.95
1171.3
991.335
18738.4
-1323.26
-6924.67
-10529.4
-9765.14
-9911.48
-14687.9
-20809.7
-30547.2
-44466
-59976.6
-66183.9
-47859.1
-11294.3
14209.4
16300.4
9548.14
2815.23
-1252.86
-3519.54
-4691.89
-5372.03
-6025.11
-6789.02
-7524.02
-8049.42
-8261.43
-8153.32
-7782.16
-7230.52
-6583.38
-5920.44
-5307.55
-4760.16
-4278.56
-3572.98
-2935.82
-2209.16
-1344.73
-346.294
738.749
1822.72
2785.46
3487.68
3786.98
3553.58
2684.92
1122.88
-1121.1
-3939.58
-7120.83
-10370.8
-13356.8
-15759.2
-17316.5
-17846.2
-17272.6
-15674.8
-13310.6
-10570.1
-7870.47
-5530.86
-3715.54
-2407.96
-2058.76
-2072.74
-2095.6
-2211.75
-2391.76
-2610.76
-2862.16
-3158.02
-3523.27
-3983.61
-4550.04
-5205.29
-5897.89
-6548.26
-7068.23
-7392.19
-7514.05
-7515.01
-7555.91
-7835.63
-8550.63
-9863.29
-11852.7
-14427.9
-17118.5
-19237
-19959.9
-19001.5
-16998.8
-14405
-10290
-4121.64
-432.099
-5959.55
-27281.8
-76138.4
-180830
-341876
-70092.8
149059
87283.6
55782.2
48148.9
45066
37789.8
28480.2
19747.6
12672
7408.71
3625.86
1009.43
-542.38
-1912.07
-1984.61
-1310.78
-51.964
1683.04
3888.73
6567.19
9441.75
11846.7
12902.6
12409
10183.3
8059.42
6640.78
6002.52
5825.48
5666.29
5191.14
4266.88
2935.76
1353.74
-266.332
-1708.04
-2802.95
-3490.69
-3798.84
-3682.96
-3387.47
-3495.07
-5826.86
-12610.7
-23710.7
-38965.9
-58266.8
-66080.3
-34962
34389.9
112422
170372
189507
171130
143451
114258
88113.7
66684.3
49997.2
37339.7
27913.7
20504.1
14352.8
10059.4
7163.34
5257.8
4014.21
3187.02
2606.56
2165.83
1805.13
1496.51
1230.16
1004.45
819.589
674.247
567.221
17605.6
-18098.4
-16934.5
-15840.8
-18155.5
-24608
-28212.1
-35290
-42729
-46597.3
-41810.2
-26168
-6018.44
7920.82
11114.4
6938.15
1591.73
-2415.87
-4907.54
-6548.72
-7752.23
-8683.84
-9351.84
-9706.19
-9735.57
-9502.93
-9122
-8724.2
-8433.99
-8352.84
-8547.28
-9039.06
-9805.39
-10820.5
-11950.7
-13209.4
-14333.3
-15144.1
-15492.7
-15258
-14359.3
-12766.6
-10511.7
-7700.86
-4527.27
-1283.44
1635.24
3756.33
4623.67
3959.52
1812.31
-1419.02
-5112.49
-8639.57
-11539.5
-13503.8
-14295.9
-13790.4
-12085.5
-9546.42
-6734.03
-4149.29
-2117.62
-765.538
-491.047
-380.552
-482.429
-728.087
-1053.6
-1412.7
-1778.98
-2149.4
-2546.46
-3012.74
-3594.5
-4317.83
-5166.62
-6071.18
-6913.03
-7551.42
-7877.83
-7888.79
-7732.89
-7686.4
-8066.14
-9128.78
-10982.4
-13532.2
-16480.2
-19335.7
-21335.4
-21689.9
-20507.4
-18657
-15692.8
-9863.45
-5113.28
-14538.3
-48762.1
-131743
-327779
-238686
160240
146483
71226.4
47350.2
41051.1
35744.3
28696.3
21418.6
15034.1
9890.62
5737.52
2217.3
-781.903
-3175.5
-4446.12
-4766.13
-4347.87
-3434.25
-2209.09
-674.596
1246.45
3360.34
4970.13
5201.51
3470.98
737.201
-1901.86
-3767.99
-4627.27
-4680.6
-4359.55
-4082.18
-4104.29
-4490.35
-5152.61
-5910.46
-6555.79
-6923.47
-6963.57
-6751.74
-6298.16
-5413.84
-3995.68
-2499.77
-2254.88
-5685.29
-14444.7
-25303.7
-28471
-11309.5
26831.2
69187.8
96558.8
100784
85190.1
73587.2
62491.4
52037.3
42613.5
34579.5
27312.6
20831.4
15595.9
11640.5
8611.57
6327.53
4654.9
3463.87
2629.12
2041.88
1617.55
1296.69
1041.61
831.027
654.644
508.412
391.13
303.224
8809.92
-25702.6
-23598.6
-23393
-26038.5
-25462.3
-27687.6
-29037.6
-27347.8
-21491.7
-12369.5
-2900.11
3664.04
5748.43
3994.13
452.271
-2841.92
-5268.63
-6920.08
-7965.63
-8438.12
-8363.84
-7832.53
-6991.31
-6017.45
-5094.98
-4398.77
-4081.02
-4258.39
-5000.59
-6322.87
-8187.7
-10496.8
-13079.7
-15989.1
-19151.6
-22238.8
-25082
-27535.1
-29462.6
-30740.1
-31242.3
-30815.2
-29247.8
-26279.1
-21691.5
-15520.4
-8328.46
-1322.38
3943.4
6251.24
5392.86
2298.6
-1612.64
-5310.57
-8331.27
-10396.4
-11195.6
-10539.2
-8565.91
-5866.64
-3105.17
-770.106
439.719
1068.68
1254.24
1131.42
814.628
386.944
-93.1915
-584.383
-1061.93
-1525.24
-2005.26
-2560.55
-3255.46
-4126.12
-5149.22
-6225.59
-7185.95
-7832.99
-8035.14
-7843.86
-7542.28
-7554.42
-8261.97
-9844.35
-12220.9
-15131.1
-18292.4
-21301.8
-23327.8
-23754.8
-23236.2
-22031.8
-17346.9
-11389.5
-25242.7
-78317.1
-213210
-353759
-60834.7
252458
120129
55996.6
39760.2
34467.6
29544.1
23698.3
17922.8
12923.8
8630.27
4693.82
981.361
-2329.08
-4984.12
-6436.27
-6957.93
-6774.13
-6224.05
-5594.73
-4862.54
-3788.2
-2426.66
-1726.5
-2097.88
-3863.99
-6099.67
-8193.5
-9643.87
-10219.8
-10024.2
-9397.67
-8726.22
-8275.38
-8120.22
-8164.74
-8223.75
-8125.28
-7772.87
-7170.85
-6451.89
-5775.38
-5041.35
-3898.46
-2058.5
-210.308
720.777
-1101.94
-6723.11
-10452.2
-3206.36
15414.9
35740.3
47987.4
49685.1
44751.3
38398.5
33722.8
29934.9
26242.8
22320.9
18829.5
15713
12835.7
10230.8
7958.07
6062.71
4555.38
3406.65
2558.27
1941.64
1492.83
1160.06
905.476
703.648
539.019
402.963
291.327
202.825
6748.18
-30348.1
-28576.4
-25356.5
-18721.2
-16744.5
-15092.7
-12642.1
-9155.68
-5138.53
-1457.66
1130.74
2166.27
1517.04
-434.67
-2827.07
-4856.37
-6181.76
-6698.54
-6418.18
-5460.3
-4038.88
-2399.98
-773.626
641.417
1678.52
2206.27
2134.69
1421.22
71.5735
-1867.49
-4315.81
-7124.67
-10111.7
-13638.4
-17254.1
-20805.3
-24169.5
-27233
-29925.7
-32256.7
-34330.4
-36301.3
-38223.7
-39800
-40156.8
-37924.7
-31876.7
-21944.1
-9936.94
694.372
6568.26
6880.46
3816.27
-62.2901
-3547.04
-6404.3
-8341.84
-8909.28
-7878.39
-5565.22
-2804.97
-481.897
1089.11
1996.14
2358.94
2331.03
2050.4
1618.77
1103.29
549.466
-7.76219
-544.83
-1062.54
-1599.49
-2228.49
-3026.91
-4031.39
-5198.53
-6386.16
-7366.36
-7899.15
-7884.54
-7512.76
-7251.63
-7622.65
-8925.46
-11109.2
-13896.4
-17106.7
-20697.6
-24162.3
-26560.4
-27926.9
-28498.2
-24658.8
-18361
-37529
-110083
-271540
-303564
80338.5
261707
98696
44893.8
33862.2
29994.2
25859.5
20896.1
16155.5
11947.4
7966.2
4004.54
196.11
-3230.45
-5941.07
-7540.4
-8214.19
-8221.83
-8005.85
-7995.47
-8043.65
-7714.78
-7385.9
-7171.65
-8037.86
-9227.97
-10439.4
-11444.2
-12029.5
-12046.7
-11523.1
-10682.2
-9820.99
-9143.95
-8663.14
-8208.94
-7555.9
-6602.02
-5441.1
-4250.42
-3183.52
-2398.06
-1946.13
-1516.67
-463.883
1026.04
2485.4
3414.54
2487.85
-36.6009
817.24
8063.4
17650.3
24147.2
26015.9
24974.4
23193.4
21780
20722.3
19611.1
18146.9
16302.9
14209
12029.7
9902.6
7930.35
6190.58
4733.48
3572.43
2684.52
2023.74
1537.39
1177.54
906.117
695.57
527.479
390.397
277.774
186.135
16621.9
-26280.6
-22154.8
-13070.5
-9223.13
-6735.87
-4850.83
-3327.83
-2111.38
-1178.69
-501.247
-158.828
-405.669
-1419.4
-2960.35
-4443.81
-5323.92
-5332.32
-4464.47
-2911.44
-957.571
1112.28
3062.89
4715.81
5940.05
6645.28
6781.42
6339.81
5348.48
3859.31
1928.53
-400.58
-3182.04
-5855.96
-8924.53
-12034.1
-15122.6
-18049.5
-20637.4
-22720
-24220.9
-25272.1
-26349.9
-28289.8
-31927.5
-37266
-42687.3
-45212.7
-41981.1
-31798
-16567.1
-1932.65
6074.65
6816.35
3816.18
392.061
-2640.53
-5265.15
-6929.27
-7112.11
-5487.96
-3228.82
-960.169
864.499
2076.76
2708.89
2885.84
2748.43
2413.31
1959.83
1436.02
874.768
306.032
-246.973
-787.124
-1361.68
-2055.93
-2952.83
-4076.85
-5350.45
-6577.96
-7478.14
-7814.09
-7609.07
-7268.62
-7411.97
-8495.53
-10545.1
-13255.8
-16456.2
-20355.8
-24906.3
-29303.4
-32981.4
-35153.7
-31370.2
-25290.3
-50250.9
-138940
-296237
-217861
162376
237436
86365.7
39427.7
29937.2
27356
23703.7
19418.3
15417.9
11635.8
7767.12
3807.46
31.5871
-3328.07
-6075.61
-7746.82
-8506.46
-8652.28
-8713.84
-9286
-9865.99
-10455.3
-10338.2
-11004.8
-11717.7
-12145.2
-12260.4
-12188.6
-11975.5
-11537.1
-10820.2
-9927.04
-9046.44
-8276.27
-7508.95
-6482.63
-4990.53
-3099.71
-1165.59
418.902
1492.52
2075.55
2160.58
1937.53
2023.29
2618.39
3496.1
4473.13
5158.44
4688.97
3931.66
5314.85
8810.71
12126.4
13889.9
14461.7
14787.5
15386.9
16117.2
16511.7
16223.2
15218.2
13688.7
11878.4
9981.1
8132.21
6434.04
4963.3
3760.31
2823.49
2119.3
1599.69
1216.76
930.601
711.48
539.024
400.156
286.928
194.417
50373.8
-1708.58
-1877.03
-1723.43
-973.967
-464.376
-454.065
-810.03
-1269.63
-1602.21
-1770.5
-1993.05
-2561.46
-3506.55
-4480.87
-4989.95
-4698.88
-3565.68
-1783.3
350.912
2549.77
4590.56
6318.76
7632.02
8466.49
8792.75
8619.13
7994.91
7004.7
5752.36
4344.36
2894.88
1583.11
-1138.58
-3282.55
-5567.2
-7943.93
-10276.7
-12359.5
-13927.2
-14687.6
-14416.2
-13238.7
-12127.6
-13151.5
-18476.8
-28039.2
-38390.4
-44845.4
-43730.5
-33467.2
-16753.2
-1943.12
5285.54
6044.45
3152.24
609.807
-2123.73
-4451.88
-5611.71
-5269.07
-3768.41
-1785.08
81.7954
1503.82
2398.72
2826.46
2899.66
2731.02
2408.11
1986.13
1495.99
961.365
409.701
-136.293
-684.239
-1292.23
-2055.03
-3051
-4279.1
-5617.03
-6815.41
-7570.84
-7732.8
-7543.57
-7621.4
-8573.98
-10562.4
-13283.1
-16518.6
-20629.8
-26043.9
-32405
-38761.9
-42537.7
-37963
-31598.1
-61259.7
-158928
-289441
-133734
198508
209641
79530.5
35450.5
27931
26984.9
22611.1
18887.7
15342.1
11745.3
7943.08
4075.63
434.373
-2824.7
-5644.97
-7314.76
-8085.68
-8337.65
-8665.9
-9710.28
-10833.2
-11336.9
-12043.8
-12755.2
-13048.1
-12726.5
-11991.3
-11209.1
-10580.1
-10028.4
-9404.98
-8691.44
-7948.27
-7111.38
-5920.96
-4124.8
-1759.59
805.037
3059.46
4596.4
5315.02
5410.65
5058.26
4339.67
3890.21
3685.98
3875.75
4329.16
4957.15
5318.45
5001.7
4682.53
5154.74
6146.01
7084.45
7982.11
9238.53
11019.9
12971.6
14462.1
15033.3
14623.7
13464.5
11862.3
10066.8
8253.53
6552.67
5060.27
3829.69
2867.17
2142.86
1609.49
1218.36
928.223
708.12
536.722
400.208
289.935
200.212
-55267.6
3714.03
9801.94
7604.42
4884.88
2635.29
703.876
-900.24
-2056.14
-2750.01
-3172.54
-3616.13
-4230.23
-4863.71
-5161.74
-4809.7
-3711.01
-2000.93
59.9586
2203.64
4221.6
5976.44
7383.84
8392.71
8978.08
9145.59
8941.65
8456.42
7802.49
7068.1
6264.06
5322.99
4122.84
2912.94
1581.41
85.4201
-1578.17
-3282.73
-4839.53
-5987.61
-6373.42
-5471.36
-2710.47
1728.38
5581.28
4456.38
-4658.69
-19259.5
-32921.5
-40384.3
-38645.8
-26094.7
-11611.3
-539.107
4349.18
4795.05
3208.38
752.544
-1879.99
-3857.42
-4546.35
-3923.84
-2477.91
-812.095
645.779
1707.01
2352.71
2645.7
2672.29
2512.78
2226.9
1849.72
1400.07
896.953
367.217
-168.846
-727.773
-1380.05
-2224.06
-3321.87
-4636.51
-5998.17
-7121.48
-7744.74
-7905.65
-8104.13
-9034.92
-11032.9
-13848.3
-17192.4
-21499.5
-27666
-35992.2
-45426.2
-51180.2
-45070.4
-36928.8
-68486.2
-166636
-261666
-67803.5
206086
186801
76680.1
34777.7
27468.2
25721.8
22494.2
19647.6
15619.7
12057.4
8309.19
4605.35
1145.28
-2048.97
-4965.86
-6596.42
-7310.21
-7604.26
-8345.25
-9449.67
-10791.7
-11729.4
-12433.5
-12830.9
-12603.5
-11732.6
-10549.7
-9517.98
-8902.04
-8605.2
-8378.77
-8063.82
-7530.13
-6496.01
-4650.97
-2050.01
807.832
3358.8
5258.51
6347.38
6616.75
6269.43
5565.19
4588.85
3558.2
3157.12
3006.41
3117.91
3446.48
3893.17
4094.82
3905.38
3624.09
3501.68
3643.55
4302.53
5814.21
8186.25
10880.2
13085.7
14220.4
14181
13223.7
11709.2
9940.27
8132.1
6436.21
4955
3739.74
2792.77
2081.85
1559.19
1176.64
893.807
680.429
515.567
385.499
281.394
197.224
-66510.8
11137.2
17665.2
13596.5
8173.55
3806.14
631.8
-1552.91
-2920.22
-3707.4
-4221.45
-4694.3
-5139.52
-5364.62
-5125.3
-4288.52
-2900.4
-1141.64
766.809
2636.46
4340.09
5805.59
6991.74
7870.55
8427.1
8670.25
8654.71
8471.65
8211.63
7929.67
7578.97
6967.5
5789.34
4894.07
4057.32
3164.63
1949.63
628.066
-596.701
-1483.28
-1758.2
-816.271
2585.35
9531.45
18519.9
23688.8
18963.3
3645.75
-14726.7
-27919
-32939
-28467.7
-17131.8
-5155.58
2415.15
5053.75
4609.52
2614.61
-1.12255
-2359.76
-3713.86
-3811.46
-2933.62
-1595.62
-242.215
874.195
1668.07
2149.26
2366.6
2378.45
2238.37
1985.62
1641.85
1219.65
737.12
220.655
-315.57
-901.189
-1617.88
-2558.66
-3758.81
-5141.5
-6498.8
-7552.03
-8173.91
-8667.04
-9705.36
-11786.5
-14769.4
-18288.8
-22781.1
-29606.3
-39888.5
-52780.8
-61179.1
-53182.7
-41259.1
-70904.7
-162323
-224015
-22331.4
199039
169969
76682.6
36328.4
27719.6
25400.2
22776.4
19700.4
16149.8
12598.6
8921.35
5156.94
1850.31
-1322.5
-4258.12
-5804.04
-6471.2
-6793.57
-7535.01
-9050.17
-10620.6
-11542.4
-11963.5
-11917.5
-11287.5
-10197.6
-8961.37
-8020.7
-7689.82
-7887.7
-8270.55
-8468.22
-8064.89
-6628.62
-4131.9
-1185.25
1455.71
3434.6
4758.98
5478.2
5569.07
5094.84
4259.23
3203.01
1858.82
1360.79
1015.71
944.949
1094.89
1492.64
2027.24
2403.73
2457.61
2268.02
2140.41
2589.17
4093.33
6670.14
9696.42
12243.3
13637.1
13743.2
12838
11326.1
9553.03
7760.45
6105.92
4682.73
3528.42
2634.95
1965.6
1472.87
1111.21
843.265
641.236
485.77
363.945
267.159
189.321
-61373.5
13900.2
20953.9
16328.6
9517.97
3988.01
220.965
-2136.17
-3494.11
-4236.62
-4683.13
-4997.3
-5155.89
-5033.99
-4521.67
-3596.27
-2343.97
-903.066
582.365
2012.19
3328.85
4507.92
5535.16
6389.37
7041.68
7473.11
7695.29
7755.18
7728.92
7703.51
7692.87
7555.48
5913.11
5178.12
4349.19
3950.11
2912.98
1635.14
387.039
-561.17
-1076.07
-710.39
2209.7
10116.1
22864
34180.8
34892.3
22670
4365.63
-11974.8
-21858
-23287.1
-17012
-7430.96
291.837
4029.6
4501.47
3027.26
644.45
-1729.08
-3335.06
-3834.54
-3365.89
-2329.04
-1123.11
-12.9903
875.827
1509.65
1900.76
2080.7
2087.96
1959.69
1723.14
1392.95
980.009
503.289
-13.3722
-566.526
-1201.17
-2004.93
-3055.25
-4354.93
-5792.76
-7149.77
-8227.59
-9131.64
-10411.6
-12660.3
-15876.9
-19629.8
-24280.3
-31632.2
-43785.7
-60393
-72177
-62374.7
-44747.3
-68639.1
-148525
-184218
6407.94
185864
157687
78469.6
39393.8
28733.8
25606.3
23065.2
19971.3
16506.4
12874.5
9089.08
5530.48
2317.43
-740.519
-3471.43
-4844.31
-5559.47
-6019.86
-6922.53
-8650.16
-10298.1
-11031.4
-11108.7
-10734
-9985.6
-9014.41
-7965.38
-7208.62
-7189.67
-7945.03
-9026.87
-9736.99
-9337.37
-7502.31
-4766.76
-2080.12
23.7588
1564.24
2713.47
3484.47
3737.04
3395.76
2585.35
1488.33
-43.1982
-800.161
-1403.26
-1680.23
-1677.59
-1333.54
-569.644
387.333
1120.59
1412.34
1491
1975.15
3477.47
6085.58
9173.35
11772.5
13176.8
13249.3
12291
10739.8
8966.92
7221.03
5648.6
4322.34
3260.56
2443.66
1831.51
1378.58
1043.6
793.602
604.254
458.453
344.503
254.328
181.974
-51763.4
12467.2
19975.6
16775.7
9937.9
3867.42
-184.569
-2545.12
-3790.2
-4382.49
-4623.85
-4645.57
-4456.05
-4045.53
-3415.51
-2598.09
-1670.42
-590.874
270.763
1056.93
1802.41
2537.16
3279.02
4016.38
4707.63
5301.7
5755.66
6051.57
6219.59
6339.61
6281.47
6083.28
5657.63
5441.75
4948.35
4053.92
2803.68
1204.4
-511.186
-2021.87
-3247.71
-3996.02
-2590.27
4455.74
19005.2
35696.4
43139.8
35584
18787
1674.07
-10633.2
-15940.2
-14147.1
-8081.17
-1951.25
1704.34
2678.06
1751.01
-176.618
-2234.24
-3717.48
-4286.54
-3999.66
-3148.25
-2053.82
-955.325
8.54233
774.084
1323.22
1663.26
1816.03
1811.14
1678.13
1438.09
1102.68
683.308
199.101
-332.501
-922.839
-1631.04
-2542.16
-3710.12
-5107.9
-6608.55
-8036.05
-9372.18
-10996.8
-13502.3
-17017.5
-21066.1
-25855
-33568.9
-47419.7
-67804.5
-83505.8
-72326.9
-47661
-62689.3
-128602
-146484
23454.2
170972
148312
81075.1
43328.5
30472.7
26191.5
23357.4
20182.6
16633.4
12860.3
9034.89
5516.48
2470.8
-250.4
-2717.93
-4056.02
-4797.2
-5352.71
-6415.37
-8302.32
-9914.54
-10427.1
-10307.7
-9882.52
-9321.61
-8676.7
-7827.07
-7093.75
-7215.69
-8487.51
-10313.7
-11520.2
-11085.9
-9033.79
-6378.99
-4017.63
-2138.7
-548.879
857.276
1943.07
2463.3
2288.98
1519.4
363.831
-1040.47
-2457.33
-3501.5
-4128.88
-4378.32
-4162.14
-3271.04
-1824.17
-373.388
591.148
1128.48
1848.99
3431.2
6021.82
9027.06
11498.7
12753.3
12684.2
11623.1
10029.8
8281.27
6615.1
5154.55
3946.78
2990.88
2257.83
1706.42
1294.75
986.751
754.289
576.699
439.283
331.708
246.563
178.164
-45967.2
-170.828
18341
17587.4
10710.2
3883.84
-738.684
-3218.46
-4319.95
-4667.15
-4588.33
-4197.75
-3545.34
-2702.24
-1811.71
-1004.96
-364.999
34.8661
154.42
150.887
156.777
273.481
560.71
1029.02
1637.79
2316.37
2992.1
3596.09
4095.06
4492.92
4762.96
4520.82
5034
5026.32
4556.54
3565.41
2006.25
-82.8213
-2448.9
-4756.15
-7025.27
-9301.13
-9873.21
-4327.64
10914.5
31319.2
43957.5
40786.1
26726.4
10770.9
-1988.3
-9390.72
-10913.3
-8225.84
-4321.27
-1444.31
-321.343
-727.466
-2048.76
-3563.28
-4674.32
-5084.02
-4804.24
-4029.99
-2996.38
-1898.24
-869.966
7.2135
692.538
1174.28
1460.54
1572.4
1537.27
1380.75
1119.93
764.857
327.346
-176.052
-738.693
-1388.71
-2194.28
-3228.82
-4521.62
-6030.09
-7651.52
-9341.12
-11342
-14174.1
-18049
-22470
-27424.2
-35345.3
-50645
-74792.1
-94816.8
-82553.4
-49974.9
-54117.3
-105505
-112529
33049.8
156208
140526
83702.6
47574.8
32755.8
27060.8
23642.4
20244.5
16535.9
12622.5
8757.29
5293.55
2395.57
-49.398
-2206.49
-3438.52
-4170.14
-4810.6
-6026.87
-8022.91
-9539.4
-9949
-9922.82
-9734.9
-9532.74
-9224.69
-8403.23
-7400.41
-7449.5
-9236.71
-11871.7
-13475.9
-12849.2
-10536.3
-7850.42
-5514.84
-3524.77
-1669.35
59.7464
1414.6
2099.87
1995.42
1216.94
-8.71116
-1527.69
-3331.48
-4833.74
-5941.69
-6602.49
-6655.52
-5774.25
-3969.39
-1878.05
-230.515
841.363
1887.9
3603.47
6167.47
9024.99
11279.8
12308.8
12058.1
10892.1
9278.9
7584.3
6022.23
4687.71
3603.11
2751.65
2098.33
1603.1
1228.77
944.684
727.366
559.532
428.684
325.768
244.045
178.147
-14642.8
-8876.44
11272.5
16852.9
12328.5
5579.65
364.264
-2685.37
-4106.45
-4531.1
-4340.27
-3694.42
-2682.67
-1452.9
-240.028
690.279
1151.23
1048.99
457.719
-402.683
-1286.75
-1985.44
-2357.81
-2343.4
-1959.96
-1282.36
-411.62
545.926
1501.7
2391.84
3177.53
3796.41
4173.39
4185.86
3700.21
2585.86
745.118
-1799.93
-4771.16
-7861.15
-11303.4
-15350.7
-17998.7
-13774.6
2074.27
24785.7
40064.5
39581.9
28519.9
15083.1
3489.46
-4347.7
-7704.37
-7464.22
-5560.35
-3710.47
-2792.67
-2931.77
-3777.85
-4797.89
-5535.3
-5755.46
-5444.24
-4719.65
-3742.63
-2665.46
-1611.46
-669.518
105.405
688.108
1076.43
1283.91
1333.31
1250.04
1055.13
761.365
376.907
-87.7567
-622.258
-1234.25
-1967.52
-2891.75
-4064.02
-5499.52
-7172.54
-9078.11
-11399.9
-14576.9
-18853.6
-23731.6
-28949.9
-36998.4
-53444.3
-81207.3
-106018
-93367.1
-52207.4
-43881.6
-80808.4
-81805.5
38559.4
142036
133376
85923.6
51830
35438.5
28184.8
23936.7
20163.1
16243.1
12208
8344.06
4965.14
2175.91
-71.8658
-1929.55
-3004.19
-3688.42
-4401.16
-5755.42
-7809.19
-9246.77
-9800.62
-10171.6
-10358
-10477.9
-10376.7
-9363.54
-7822.17
-7689.57
-10072.8
-13415
-14959.2
-13732.1
-10980.1
-8144.9
-5751
-3667.3
-1666.8
214.495
1668.32
2380.02
2257.17
1440.51
164.848
-1431.25
-3478.29
-5389.53
-7016.17
-8194.57
-8647.33
-7914.63
-5893.89
-3279.94
-1017.62
569.713
1950.43
3807.82
6336.17
9018.55
11025.5
11813.1
11389.6
10146.1
8545.89
6931.38
5486.92
4279.84
3311.81
2554.81
1971.18
1523.77
1180.55
916.012
710.793
550.507
424.501
324.801
245.26
180.811
13444.1
-13210.7
435.714
10729.4
11919.8
7812.16
2951.26
-583.823
-2585.92
-3447.05
-3523.36
-3009.32
-2024.17
-733.537
592.773
1618.7
2047.93
1719.44
683.835
-823.877
-2480.49
-3967.07
-5034.34
-5537.13
-5440.63
-4804.04
-3749.37
-2429.3
-1002.27
381.216
1601.64