/*--------------------------------*- C++ -*----------------------------------*\
| =========                 |                                                 |
| \\      /  F ield         | OpenFOAM: The Open Source CFD Toolbox           |
|  \\    /   O peration     | Version:  2112                                  |
|   \\  /    A nd           | Website:  www.openfoam.com                      |
|    \\/     M anipulation  |                                                 |
\*---------------------------------------------------------------------------*/
FoamFile
{
    version     2.0;
    format      ascii;
    arch        "LSB;label=32;scalar=64";
    class       volScalarField;
    location    "0.17";
    object      epsilonU;
}
// * * * * * * * * * * * * * * * * * * * * * * * * * * * * * * * * * * * * * //

dimensions      [0 2 -3 0 0 0 0];

internalField   nonuniform List<scalar> 
12225
(
3158.09
4902.75
5500.24
5490.63
5227.06
4877.04
4510.47
4154.62
3819.14
3506.12
3214.2
2940.44
2681.26
2432.76
2191.02
1952.06
1709.96
1467.96
209.15
383.755
461.902
480.354
470.154
448.642
424.791
402.555
383.369
367.632
355.379
346.544
341.087
339.048
340.676
346.606
358.84
380.901
37.9825
63.4777
81.6283
92.6889
98.1502
99.5513
98.3461
95.6737
92.3335
88.8676
85.6447
82.9258
80.9147
79.805
79.8447
81.4556
85.5115
93.9718
19.4677
25.4604
30.6881
34.745
37.6558
39.5601
40.6566
41.1483
41.2113
40.989
40.5963
40.1263
39.6576
39.2634
39.026
39.0618
39.5847
41.0031
15.7898
17.4701
19.233
20.815
22.1277
23.1524
23.909
24.4358
24.7759
24.971
25.0589
25.0738
25.0465
25.0057
24.9811
25.0073
25.1343
25.4423
14.8447
15.18
15.6863
16.2352
16.7557
17.2117
17.589
17.8871
18.1128
18.2763
18.389
18.463
18.5101
18.5422
18.5712
18.6097
18.6708
18.7652
14.5904
14.4637
14.4558
14.5224
14.6266
14.7424
14.8529
14.9494
15.0281
15.0886
15.1327
15.1633
15.1844
15.2005
15.2164
15.2365
15.2644
15.298
14.5242
14.2456
14.0336
13.8785
13.7671
13.6866
13.6265
13.5788
13.5383
13.5019
13.4679
13.4358
13.4061
13.3797
13.3582
13.3427
13.3339
13.3289
14.508
14.1838
13.8987
13.6514
13.4385
13.2552
13.0964
12.9577
12.8352
12.7261
12.6283
12.5403
12.4614
12.3911
12.3295
12.2766
12.2321
12.1941
14.5042
14.1677
13.8594
13.5788
13.3242
13.0939
12.8856
12.6971
12.526
12.3707
12.2294
12.1009
11.9843
11.8788
11.7839
11.6994
11.6248
11.5594
14.5033
14.1637
13.8491
13.5578
13.2886
13.04
12.8105
12.5987
12.4033
12.223
12.0568
11.9037
11.7628
11.6337
11.5157
11.4085
11.312
11.2261
14.5031
14.1629
13.8467
13.5527
13.2793
13.0249
12.7883
12.5681
12.3631
12.1725
11.9952
11.8306
11.6778
11.5365
11.4061
11.2863
11.1772
11.0791
14.503
14.1626
13.846
13.5512
13.2765
13.0203
12.7811
12.5577
12.3489
12.1538
11.9716
11.8014
11.6427
11.4949
11.3577
11.2308
11.1141
11.0085
14.503
14.1624
13.8457
13.5508
13.2757
13.019
12.7791
12.5547
12.3447
12.1481
11.964
11.7916
11.6304
11.4799
11.3395
11.209
11.0884
10.9786
14.5029
14.1623
13.8456
13.5506
13.2755
13.0188
12.7788
12.5543
12.3441
12.1472
11.9628
11.79
11.6281
11.4767
11.3353
11.2036
11.0814
10.9696
14.5029
14.1622
13.8455
13.5505
13.2755
13.0188
12.7789
12.5545
12.3445
12.1478
11.9635
11.7908
11.629
11.4775
11.3359
11.2038
11.0808
10.9679
14.5028
14.1621
13.8453
13.5504
13.2754
13.0188
12.7791
12.5549
12.3451
12.1487
11.9646
11.7922
11.6306
11.4792
11.3376
11.2051
11.0816
10.9676
14.5027
14.162
13.8452
13.5503
13.2754
13.0189
12.7794
12.5554
12.3459
12.1497
11.9659
11.7937
11.6322
11.4808
11.339
11.2061
11.0819
10.9668
14.5027
14.1619
13.8451
13.5503
13.2755
13.0192
12.7798
12.5561
12.3467
12.1508
11.9671
11.795
11.6335
11.482
11.3398
11.2063
11.0811
10.9648
14.5026
14.1619
13.8451
13.5504
13.2757
13.0196
12.7804
12.5568
12.3476
12.1518
11.9682
11.7961
11.6345
11.4827
11.3401
11.2061
11.0801
10.9628
14.5026
14.1619
13.8453
13.5506
13.2761
13.0202
12.7812
12.5579
12.349
12.1533
11.9699
11.7979
11.6364
11.4846
11.3419
11.2076
11.0813
10.9636
14.5026
14.162
13.8456
13.5514
13.2775
13.0222
12.7842
12.5621
12.3545
12.1603
11.9785
11.8082
11.6484
11.4984
11.3575
11.225
11.1004
10.9844
14.5028
14.163
13.8481
13.5566
13.2865
13.0365
12.8047
12.5898
12.3902
12.2046
12.0318
11.8705
11.7199
11.5791
11.4471
11.3235
11.2075
11.0999
14.5048
14.1713
13.869
13.5965
13.3515
13.1313
12.9326
12.7526
12.5885
12.4378
12.2987
12.1696
12.0491
11.9362
11.8303
11.7305
11.6367
11.5493
14.5227
14.2387
14.0165
13.8468
13.7179
13.6183
13.5381
13.4696
13.4073
13.3477
13.2884
13.2283
13.167
13.1044
13.0409
12.9769
12.9131
12.8511
14.6638
14.6789
14.843
15.0861
15.356
15.617
15.8472
16.0361
16.1804
16.2815
16.3432
16.3705
16.3688
16.3437
16.3003
16.2431
16.1761
16.1041
15.6153
17.1279
18.844
20.4925
21.9417
23.1277
24.0372
24.6886
25.1153
25.3548
25.4442
25.4172
25.3033
25.1272
24.9092
24.666
24.4113
24.158
22.0009
31.6466
40.5924
47.973
53.5136
57.202
59.2768
60.079
59.9412
59.1472
57.925
56.4498
54.8517
53.2252
51.6382
50.1401
48.7665
47.5591
86.136
165.989
229.607
271.263
292.308
297.472
292.515
282.096
269.286
255.919
243.026
231.139
220.497
211.177
203.172
196.443
190.952
186.912
1385.56
2305.25
3007.1
3419.93
3590.3
3594.41
3497.97
3347.62
3173.3
2992.91
2816.38
2648.69
2491.92
2346.43
2211.71
2086.74
1970.39
1871.9
84.6559
111.417
155.733
172.66
177.76
177.423
174.831
171.413
166.093
156.662
141.108
118.039
88.4075
58.4415
41.0115
61.8612
100.768
97.7397
77.6456
65.9488
72.1725
179.146
324.28
473.616
616.219
743.852
852.132
939.427
1005.94
1053.02
1082.65
1097.15
1098.91
1090.23
1073.25
1049.87
1021.73
990.402
958.546
926.305
893.879
861.419
829.049
796.856
764.894
733.182
701.707
670.424
639.264
608.143
576.975
545.687
514.24
482.646
450.984
419.402
388.118
357.398
327.537
298.828
271.538
245.894
222.082
200.29
180.869
164.883
155.592
152.376
150.514
149.137
148.073
147.225
146.494
145.759
144.88
143.721
142.195
140.318
138.235
136.082
133.543
129.721
124.997
119.495
113.148
106.654
100.994
96.7628
93.7379
91.0542
87.8082
83.5472
78.3196
72.4852
66.69
62.0324
60.0985
62.8411
72.4272
86.6117
101.209
113.371
123.948
133.818
141.547
153.302
196.61
367.531
593.57
779.077
914.999
1000.92
1043.69
1052.43
1036.21
1003.13
959.843
912.835
865.016
817.492
770.935
725.573
681.162
637
592.066
545.349
496.247
445.785
427.673
449.624
473.889
500.68
532.499
571.894
620.914
680.957
752.851
837.208
934.141
1042.73
1167.57
1306.44
1402.35
1400.56
1253.79
955.195
581.826
278.088
128.203
80.9634
69.269
81.7167
117.63
140.519
145.859
142.532
128.641
103.644
78.4101
58.0823
44.2515
37.6308
34.9505
32.978
31.3841
30.0405
28.8869
27.9179
27.1534
26.6131
26.2912
26.1578
26.1726
26.2951
26.4907
26.7044
26.9128
26.8819
26.7313
25.1938
210.705
290.539
249.846
209.097
174.786
146.587
124.785
108.763
99.6145
95.0755
92.5238
88.8475
80.8385
70.9484
81.9991
136.316
230.633
379.526
430.104
424.191
418.062
428.049
441.419
447.649
445.129
434.074
415.678
391.577
363.585
333.543
303.226
274.254
248.025
225.66
207.991
195.573
188.681
187.964
187.837
187.901
188.055
188.222
188.35
188.404
188.351
188.159
187.79
187.189
186.287
185.002
183.238
180.898
177.891
174.146
169.623
164.324
158.299
151.642
144.487
136.997
129.343
121.699
114.227
107.082
100.419
94.4242
89.4555
85.5923
82.2173
79.1901
76.4638
74.0061
71.7846
69.7637
67.9047
66.1687
64.5213
62.9379
61.4088
59.9454
58.5983
57.4942
57.2417
57.9683
59.0753
60.2657
61.6179
63.4256
65.9405
69.1852
72.883
76.6785
80.2393
83.1198
84.4526
82.9889
77.7123
69.3573
61.3368
58.4897
63.0511
71.354
78.9557
91.9649
152.895
270.733
356.839
389.674
401.379
390.349
362.987
326.998
289.319
255.373
228.83
211.768
205.089
208.552
214.016
220.815
228.879
238.064
248.022
258.058
267.038
273.46
275.706
272.099
262.978
251.259
236.498
220.317
204.3
189.636
177.056
166.871
159.063
153.463
149.882
148.03
147.855
150.489
184.905
251.369
321.445
371.705
407.212
459.21
535.791
566.046
474.352
347.153
295.359
301.534
305.241
291.555
266.508
227.026
184.092
148.671
121.989
102.418
88.2147
77.5983
69.1358
61.8343
55.187
49.0427
43.4213
38.378
33.8846
29.8593
26.2241
22.9303
19.9567
17.3022
14.9627
12.9685
11.3762
10.2466
692.157
400.003
276.858
209.325
160.969
125.226
100.549
84.8692
76.5021
73.2797
73.9789
80.4847
108.282
189.731
353.897
488.254
492.329
441.512
396.501
359.853
333.908
315.286
297.969
278.799
257.483
234.816
212.092
190.683
171.733
155.988
143.752
134.953
129.249
126.148
125.101
125.576
127.074
128.694
130.106
131.225
132.025
132.529
132.795
132.911
132.977
133.091
133.328
133.731
134.3
134.984
135.682
136.251
136.519
136.305
135.442
133.803
131.313
127.97
123.838
119.041
113.747
108.143
102.414
96.73
91.2218
85.9824
81.4309
77.4809
73.9097
70.6679
67.7344
65.0955
62.7386
60.6496
58.8093
57.1913
55.7619
54.4835
53.3234
52.2665
51.3323
50.5856
50.1124
49.9935
50.2
50.6764
51.4239
52.4995
53.9691
55.8436
58.0557
60.3541
62.4325
64.0901
65.2433
65.5892
64.3564
60.6693
55.6323
54.4893
62.9355
81.1517
110.747
193.262
297.313
321.296
304.009
281.953
255.364
224.499
194.334
169.411
151.866
141.718
137.859
138.817
143.132
149.599
157.186
165.837
175.602
186.507
198.37
210.593
222.022
231.03
235.829
234.257
226.754
215.246
200.618
184.299
167.671
151.823
137.461
124.925
114.276
105.397
98.0823
92.0815
87.2178
83.4845
81.804
88.4387
110.915
145.488
183.234
227.379
292.239
390.401
499.699
552.985
554.384
552.52
543.325
498.166
407.699
317.279
241.982
183.79
140.741
109.772
87.8453
72.3826
61.3294
53.088
46.487
40.8349
35.9372
31.6438
27.8503
24.4912
21.5168
18.8859
16.5655
14.5307
12.7598
11.2353
9.91915
8.84347
1040.82
412.137
274.682
199.298
143.52
102.783
74.7009
64.933
67.093
76.9713
102.692
159.935
262.155
392.386
475.951
455.609
391.362
332.502
290.001
259.414
236.69
218.052
200.818
184.174
168.505
154.534
142.862
133.775
127.253
123.071
120.902
120.384
121.147
122.837
125.118
127.685
129.811
131.166
131.603
131.06
129.547
127.157
124.061
120.498
116.746
113.099
109.834
107.187
105.323
104.326
104.179
104.763
105.862
107.195
108.442
109.293
109.48
108.811
107.195
104.65
101.291
97.2986
92.8873
88.2665
83.6047
79.1188
75.1818
71.5947
68.3065
65.3019
62.5725
60.1143
57.9275
56.0158
54.3825
53.0246
51.9274
51.0614
50.3849
49.8544
49.4359
49.1157
48.9041
48.8309
48.9383
49.2767
49.9439
51.0453
52.6367
54.6705
56.9372
59.1073
60.9041
62.1968
62.7836
62.1759
60.0663
56.8419
54.6095
58.8693
76.9334
117.087
206.793
309.469
307.827
265.977
232.658
204.395
176.97
152.203
132.99
120.184
113.087
110.448
111
113.686
117.707
122.768
128.612
135.258
142.867
151.624
161.508
171.987
181.878
189.54
193.245
191.623
185.9
176.882
165.398
152.517
139.303
126.64
115.127
105.078
96.5787
89.5527
83.8278
79.2016
75.4873
72.5511
70.389
69.4617
71.8485
80.7849
97.772
121.818
156.616
215.129
308.719
417.689
499.371
535.409
529.572
487.024
409.078
318.607
239.96
178.628
132.915
99.5114
75.3137
57.876
45.3668
36.3974
29.9503
25.3851
22.0163
19.3697
17.1724
15.2836
13.6381
12.2062
10.9695
9.91037
9.00894
8.24604
7.59724
7.06482
1180.3
395.499
280.536
209.669
153.662
115.414
99.7448
98.0187
110.922
141.415
195.452
273.386
354.653
397.198
380.57
329.739
278.85
240.404
213.454
193.974
179.01
166.731
156.361
147.859
141.373
136.938
134.438
133.669
134.397
136.376
139.349
143.048
147.192
151.497
155.675
159.143
161.429
162.366
161.751
159.438
155.38
149.65
142.456
134.128
125.098
115.853
106.897
98.7026
91.6849
86.1659
82.342
80.2503
79.7528
80.5545
82.2498
84.3749
86.4561
88.0582
88.8381
88.594
87.2887
85.0347
82.0419
78.5577
74.8041
71.232
67.9154
64.8188
61.9545
59.3289
56.9415
54.7902
52.877
51.212
49.8132
48.7011
47.8899
47.3767
47.1342
47.1088
47.2275
47.4147
47.6167
47.821
48.0677
48.449
49.0995
50.1892
51.8505
54.1061
56.7768
59.4759
61.7917
63.5316
64.5858
64.4509
62.5103
59.86
60.5304
71.599
105.171
186.883
310.216
322.848
256.704
211.698
181.656
156.586
134.545
117.069
104.767
97.0912
93.0629
91.7161
92.2931
94.2551
97.2031
100.962
105.246
110.078
115.704
122.452
130.4
138.978
146.876
152.427
154.188
152.175
147.353
140.222
131.43
121.738
111.916
102.62
94.3074
87.2197
81.4138
76.8147
73.2668
70.5766
68.549
67.0399
65.9816
65.3455
65.3688
66.6559
70.6761
79.7387
96.5535
126.022
175.377
242.615
306.631
343.039
342.085
308.751
263.302
215.089
170.049
131.855
101.143
77.1638
58.7401
44.7154
34.1155
26.2493
20.6574
16.722
13.9216
11.8754
10.3224
9.09617
8.0992
7.27917
6.60912
6.07325
5.65828
5.34955
5.12893
4.98557
1194.52
410.304
317.674
246.972
191.378
162.293
154.683
161.959
184.716
221.457
266.226
305.24
321.462
308.138
274.929
237.986
207.812
186.26
171.384
161.031
153.871
149.17
146.529
145.686
146.41
148.488
151.733
155.973
161.03
166.708
172.78
178.995
185.068
190.688
195.52
199.131
201.674
202.834
202.251
199.609
194.694
187.431
177.92
166.443
153.436
139.451
125.096
111.004
97.8176
86.1713
76.6353
69.6029
65.184
63.1865
63.1997
64.6989
67.1005
69.7898
72.1697
73.7479
74.2259
73.5478
71.8493
69.3747
66.511
63.6348
60.8057
58.1018
55.5758
53.2563
51.1545
49.271
47.6039
46.1572
44.9476
44.0045
43.3633
43.0519
43.0739
43.3944
43.9342
44.5794
45.2127
45.7575
46.2142
46.6741
47.3015
48.2888
49.8221
52.0024
54.7933
57.9535
61.0653
63.798
66.0359
67.3981
67.0143
65.8044
69.7538
89.2821
147.068
273.144
349.797
280.698
209.642
172.852
147.96
127.262
110.145
97.1285
88.02
82.1438
78.7524
77.2828
77.3645
78.7029
81.0501
84.0069
87.2523
90.8017
94.9882
100.275
106.779
113.785
119.782
123.155
123.197
120.739
116.331
110.447
103.59
96.3079
89.1564
82.6173
77.0254
72.543
69.1766
66.8142
65.2688
64.3224
63.7672
63.4493
63.2981
63.2861
63.3819
63.5646
64.0802
65.9267
71.5076
84.6492
108.728
142.424
175.872
195.699
195.084
177.038
150.702
127.377
106.396
87.5258
70.9868
56.8422
44.9834
35.2475
27.516
21.5368
16.9572
13.4983
10.9147
8.9904
7.54652
6.44667
5.59473
4.92777
4.40707
4.00944
3.72047
3.52896
3.42421
3.39587
1165.45
455.655
365.031
294.353
244.394
220.79
213.359
219.81
234.631
251.604
263.697
264.967
253.45
232.273
207.772
185.921
169.634
158.841
152.406
149.236
148.474
149.433
151.604
154.654
158.388
162.693
167.495
172.727
178.314
184.164
190.156
196.137
201.912
207.235
211.879
216.213
219.996
222.753
223.964
223.134
219.863
213.912
205.26
194.129
180.947
166.241
150.502
134.108
117.428
101.045
85.8832
73.0422
63.3593
57.0676
53.8467
53.1281
54.2865
56.6537
59.4975
62.081
63.7923
64.3203
63.6456
61.9885
59.8277
57.3972
54.8807
52.4083
50.0643
47.8999
45.9424
44.2016
42.6765
41.3634
40.2667
39.4076
38.8247
38.5648
38.6634
39.1217
39.8856
40.8391
41.8244
42.6961
43.3887
43.9572
44.5673
45.4425
46.7973
48.7888
51.5027
54.9083
58.7604
62.6993
66.5467
70.029
71.9858
72.8856
81.0385
112.978
201.389
329.409
338.059
235.515
175.337
146.267
125.702
108.625
94.716
84.1112
76.4672
71.1955
67.831
66.1186
65.8752
66.86
68.7788
71.1622
73.6541
76.2596
79.3979
83.6543
89.1204
94.822
99.0505
100.515
99.5859
96.9118
92.9823
88.1847
82.8794
77.4716
72.3961
68.0393
64.6626
62.3667
61.0944
60.6595
60.7968
61.2255
61.709
62.0951
62.3376
62.4791
62.5513
62.4868
62.2077
61.9865
62.6984
66.4757
76.3921
92.6252
109.707
120.247
120.668
112.66
100.487
87.669
76.0943
65.5089
55.6388
46.5496
38.4233
31.3547
25.3039
20.2387
16.1058
12.8178
10.2575
8.29235
6.7925
5.6452
4.76155
4.07651
3.54529
3.13837
2.83689
2.62811
2.50303
2.45314
1105.55
500.289
416.723
346.02
293.588
260.022
244.453
238.721
236.445
233.35
226.909
216.219
201.863
185.742
170.565
158.662
150.975
147.174
146.361
147.526
149.788
152.521
155.383
158.248
161.117
164.044
167.097
170.339
173.82
177.571
181.606
185.913
190.446
195.109
200.301
205.968
211.687
216.888
220.913
223.067
222.699
219.304
212.646
202.896
190.7
177.056
162.921
148.705
134.094
118.491
101.855
85.2999
70.7481
59.7377
52.6099
48.8684
47.8187
48.7894
51.0525
53.7755
56.094
57.3944
57.4631
56.4973
54.8147
52.6969
50.3758
48.021
45.7455
43.6206
41.6885
39.9717
38.4773
37.2019
36.1404
35.2976
34.6993
34.392
34.4294
34.8474
35.634
36.7052
37.9032
39.0383
39.9726
40.6993
41.3617
42.1975
43.4509
45.3152
47.9511
51.5012
55.9638
61.125
66.8017
72.6542
77.1216
80.5365
93.5482
138.742
246.117
349.771
307.928
201.383
151.367
128.01
110.698
96.1013
84.149
74.8838
67.9032
62.7659
59.2537
57.2857
56.7383
57.3734
58.875
60.7915
62.7367
64.691
67.1429
70.7728
75.543
80.1105
82.7278
83.0567
81.7273
79.3137
76.1906
72.5682
68.6664
64.8148
61.4168
58.8415
57.3249
56.9158
57.4675
58.6685
60.1186
61.4427
62.3947
62.8895
62.9674
62.7517
62.3895
61.9129
61.1885
60.2453
59.3862
59.3032
61.5939
67.7479
76.1707
82.742
84.7294
82.3349
77.2652
71.0183
64.338
57.4336
50.4067
43.4316
36.7448
30.5677
25.0539
20.2827
16.272
12.9924
10.3765
8.32979
6.74686
5.52661
4.58311
3.84953
3.27723
2.83242
2.49242
2.24192
2.07064
1.9701
1015.03
533.895
459.098
382.958
316.347
272.452
245.673
228.186
215.02
203.628
192.723
181.657
170.42
159.847
151.309
145.844
143.564
143.767
145.411
147.529
149.464
150.91
151.825
152.318
152.553
152.694
152.886
153.253
153.914
154.998
156.654
159.042
162.289
166.449
172.221
179.149
186.81
194.644
201.949
207.898
211.598
212.153
208.783
201.071
189.368
175.105
160.458
147.229
135.731
124.692
112.234
97.4468
81.5566
67.2854
56.6001
49.7832
46.232
45.2563
46.1985
48.28
50.569
52.1454
52.7074
52.2453
50.9539
49.101
46.9397
44.669
42.4272
40.3031
38.3505
36.6014
35.0731
33.7698
32.6864
31.8175
31.1704
30.7767
30.6897
30.9657
31.6326
32.6559
33.9153
35.2193
36.3792
37.3166
38.1263
39.0425
40.334
42.2221
44.9092
48.6521
53.6835
60.0569
67.7035
76.0549
83.0102
89.0934
107.131
163.329
275.948
346.931
276.684
178.443
135.607
115.41
100.293
87.2863
76.542
67.9925
61.2322
55.9948
52.2282
49.9221
48.9761
49.1794
50.2782
51.8437
53.4627
55.0778
57.2135
60.603
64.9105
68.426
69.9278
69.7412
68.5546
66.8773
64.8535
62.4706
59.8375
57.2836
55.2651
54.1988
54.3212
55.6039
57.7376
60.2015
62.4221
63.9642
64.6573
64.5851
63.9625
63.0214
61.98
60.9667
59.8399
58.5256
57.1075
55.8058
55.1332
56.083
59.0158
62.5755
64.9298
65.3102
63.9449
61.2879
57.6106
53.0368
47.7196
41.9324
36.0275
30.3373
25.1046
20.4721
16.5029
13.2036
10.5368
8.43063
6.79288
5.5278
4.5494
3.78824
3.19245
2.72517
2.36114
2.08302
1.87898
1.73989
881.177
536.448
469.168
389.207
317.377
266.104
232.001
208.757
192.094
179.515
169.375
160.622
152.98
146.924
143.131
141.786
142.353
143.86
145.34
146.143
145.998
144.935
143.147
140.878
138.353
135.747
133.192
130.806
128.739
127.203
126.488
126.946
128.933
132.837
138.758
146.292
155.132
164.829
174.755
184.11
191.971
197.304
198.919
195.508
186.182
171.595
154.606
139.031
127.158
118.59
110.935
101.399
88.8064
74.9079
62.6317
53.5639
47.839
44.9087
44.2099
45.0746
46.6474
48.0903
48.8376
48.68
47.6884
46.0754
44.0822
41.9162
39.7307
37.6276
35.6695
33.8939
32.3242
30.9731
29.8433
28.9291
28.2267
27.7487
27.5335
27.6398
28.121
28.9903
30.1844
31.5506
32.8901
34.0648
35.1037
36.2132
37.676
39.7395
42.6309
46.6794
52.3197
59.9342
69.6902
80.7246
90.2142
98.8881
121.311
184.47
291.614
332.936
251.277
163.593
125.26
107.096
93.2287
80.9401
70.8809
62.6289
55.8311
50.3785
46.2971
43.5902
42.1834
41.9402
42.7186
44.0619
45.5502
47.1031
49.2461
52.668
56.5598
59.2459
60.1941
59.9893
59.4176
58.7999
57.9899
56.7603
55.1668
53.6211
52.7125
52.9555
54.572
57.3541
60.6775
63.7247
65.8207
66.6593
66.3171
65.1218
63.4705
61.6866
59.998
58.5588
57.2265
55.8453
54.3766
52.871
51.4752
50.5918
50.76
51.9702
53.5226
54.666
54.992
54.3228
52.5326
49.5487
45.4544
40.536
35.2077
29.8791
24.8616
20.3484
16.4375
13.1598
10.4949
8.38285
6.73833
5.46874
4.48853
3.72728
3.13155
2.66289
2.29458
2.00803
1.79023
1.63146
713.23
494.045
446.058
374.808
304.259
250.862
214.532
190.322
174.061
162.907
154.915
148.966
144.75
142.415
141.982
142.974
144.496
145.604
145.637
144.331
141.761
138.196
133.97
129.386
124.664
119.944
115.316
110.872
106.763
103.239
100.674
99.5537
100.408
104.029
109.647
117.084
126.158
136.578
147.858
159.281
169.984
179.049
185.388
187.337
182.694
170.177
151.78
132.735
117.811
108.345
102.537
97.1143
89.1173
78.4215
67.3756
57.9102
50.8891
46.342
44.0211
43.4944
44.0867
45.006
45.598
45.512
44.6939
43.2756
41.4566
39.4285
37.3426
35.3048
33.3828
31.6177
30.0353
28.6529
27.4809
26.5213
25.7694
25.2254
24.9091
24.8666
25.1588
25.8316
26.8778
28.2066
29.6505
31.0449
32.3537
33.7338
35.4652
37.818
41.0369
45.4954
51.7991
60.6875
72.6804
86.6668
98.8765
109.906
135.34
200.676
296.212
315.508
232.845
154.577
118.686
101.3
88.1443
76.5925
66.7854
58.374
51.4152
45.7288
41.3411
38.2427
36.4014
35.7903
36.3749
37.6151
39.1011
40.757
43.1398
46.5506
50.0981
52.3559
53.1543
53.3749
53.7416
54.3048
54.6298
54.3158
53.4323
52.5619
52.5139
53.9236
56.8832
60.7655
64.4576
66.9457
67.7739
67.056
65.2171
62.7623
60.1468
57.6986
55.6106
53.9888
52.7569
51.657
50.5694
49.4311
48.2653
47.2171
46.6018
46.6868
47.4004
48.3799
49.1867
49.3992
48.6316
46.6149
43.3202
38.9995
34.0887
29.0439
24.2228
19.8523
16.0509
12.8593
10.2618
8.20097
6.59477
5.35388
4.39572
3.65192
3.07012
2.61212
2.25093
1.96744
1.74794
1.58232
689.749
447.083
408.251
348.802
284.552
233.342
198.099
175.251
160.806
151.806
146.305
143.256
142.243
142.994
144.967
147.269
148.906
149.116
147.557
144.284
139.623
134.009
127.871
121.545
115.246
109.083
103.1
97.3424
91.9198
87.0748
83.244
81.0902
81.4186
84.6227
89.7486
96.6109
105.137
115.256
126.695
138.863
150.928
162.079
171.556
177.958
178.481
169.943
152.325
130.858
112.348
100.15
93.5363
89.5172
84.8476
77.8628
69.1928
60.563
53.2699
47.8453
44.3854
42.7052
42.3251
42.5698
42.7992
42.601
41.8337
40.5512
38.898
37.0315
35.085
33.1572
31.3156
29.6029
28.0464
26.6651
25.4738
24.482
23.6917
23.1009
22.7158
22.5649
22.701
23.1839
24.0476
25.2641
26.7248
28.2796
29.8491
31.5315
33.5859
36.2971
39.9209
44.8511
51.8335
61.9745
76.2529
93.4438
108.645
121.75
148.514
211.783
293.484
298.545
220.246
149.577
114.78
97.2914
84.437
73.2876
63.5959
55.1934
48.0496
42.0911
37.3833
33.9857
31.8367
31.0377
31.5212
32.7231
34.2692
36.0732
38.5817
42.027
45.3872
47.4521
48.4715
49.4436
50.8848
52.5652
53.8052
54.0708
53.5072
52.978
53.6046
56.0628
59.9941
64.0574
66.7852
67.467
66.2692
63.7877
60.6328
57.2834
54.0995
51.3357
49.1387
47.5793
46.6499
46.0545
45.6242
45.2076
44.7428
44.2585
43.8921
43.8456
44.229
44.9559
45.7526
46.205
45.8384
44.2724
41.3926
37.4121
32.7681
27.9384
23.3036
19.1043
15.4614
12.4113
9.93208
7.96374
6.42565
5.23302
4.30873
3.58917
3.02528
2.58077
2.22939
1.95216
1.73517
1.56811
658.713
394.608
364.931
319.542
264.421
217.499
184.494
163.471
150.906
143.966
140.827
140.489
142.359
145.784
149.813
153.301
155.227
154.972
152.408
147.804
141.658
134.537
126.959
119.322
111.874
104.737
97.9483
91.5339
85.5741
80.2751
75.9913
73.2273
73.3159
76.0639
80.4753
86.3469
93.7333
102.736
113.282
124.96
137.002
148.663
159.465
168.454
172.86
168.484
153.496
131.96
111.232
96.1925
87.4007
82.7203
79.1492
74.3953
67.9452
60.7137
53.8811
48.2503
44.2155
41.8073
40.7059
40.3583
40.1933
39.8067
39.0206
37.8342
36.3389
34.6508
32.8752
31.0952
29.3719
27.7481
26.2525
24.9056
23.724
22.7218
21.9083
21.2865
20.8582
20.6378
20.6628
20.9906
21.6765
22.7413
24.1414
25.7734
27.5504
29.5223
31.9136
35.0122
39.0764
44.4952
52.1186
63.4121
79.8938
100.403
118.832
133.757
160.281
218.407
286.449
283.417
211.813
147.249
112.791
94.6396
81.7271
70.7332
61.0816
52.6462
45.4078
39.3692
34.5912
31.0663
28.8017
27.9315
28.3191
29.4285
30.9628
32.8678
35.4991
38.9535
42.1702
44.2567
45.7896
47.6729
50.1439
52.7506
54.6161
55.0859
54.4503
54.001
55.193
58.4093
62.4054
65.2431
65.7887
64.1625
61.1334
57.4562
53.6293
49.9506
46.635
43.8591
41.7437
40.3535
39.7472
39.6772
39.9568
40.3819
40.8152
41.1968
41.5334
41.9035
42.411
43.0877
43.8049
44.2369
43.9276
42.4727
39.7274
35.8883
31.3925
26.7245
22.2682
18.259
14.8051
11.9275
9.59286
7.73606
6.27826
5.14047
4.25256
3.55709
3.00952
2.57638
2.23286
1.96059
1.74581
1.57821
603.628
345.108
325.16
293.253
248.044
205.747
174.58
154.648
143.202
137.641
136.26
138.078
142.366
148.222
154.424
159.629
162.711
163.025
160.471
155.482
148.67
140.705
132.199
123.636
115.345
107.516
100.252
93.6304
87.7633
82.8373
79.103
76.8986
76.8908
78.4852
81.4232
85.6835
91.3926
98.6881
107.578
117.78
128.664
139.585
150.258
160.126
166.754
165.534
153.245
132.662
111.105
94.2846
83.5821
77.5231
73.5998
69.5672
64.3969
58.338
52.2284
46.8786
42.8077
40.1544
38.6932
37.9719
37.512
36.9648
36.16
35.0693
33.7414
32.2515
30.674
29.0728
27.4994
25.9945
24.5886
23.3044
22.1603
21.1724
20.355
19.7172
19.2639
19.0028
18.9574
19.1737
19.7111
20.6188
21.9073
23.533
25.4368
27.6463
30.3513
33.8319
38.3394
44.2329
52.422
64.705
83.1766
106.897
128.635
145.182
170.285
221.476
277.165
270.22
206.038
146.597
112.176
93.0673
79.8016
68.7826
59.1322
50.6905
43.4586
37.4761
32.7819
29.3553
27.1695
26.2883
26.5815
27.6052
29.0976
31.03
33.7048
37.1011
40.2077
42.5018
44.7186
47.4985
50.8232
54.1106
56.3005
56.6037
55.5676
55.0547
56.6368
59.8702
62.6185
63.1456
61.2956
57.9184
53.9212
49.8565
45.9675
42.3713
39.1864
36.5519
34.5858
33.361
32.9782
33.3074
34.1756
35.3653
36.6877
38.0014
39.1958
40.2192
41.107
41.9225
42.627
42.9826
42.5892
41.0721
38.302
34.4862
30.0679
25.5305
21.2474
17.4352
14.1797
11.4819
9.29526
7.55053
6.17163
5.0862
4.23154
3.5567
3.02185
2.59656
2.25775
1.98789
1.77361
1.60477
523.087
306.875
290.821
272.306
236.931
199.217
169.205
149.222
137.684
132.384
131.726
134.733
140.607
148.328
156.548
163.796
168.824
170.877
169.789
165.892
159.774
152.127
143.616
134.81
126.142
117.914
110.331
103.544
97.6914
92.902
89.3076
87.0851
86.5242
87.0764
88.7202
91.5392
95.6713
101.247
108.295
116.592
125.614
134.875
144.319
153.681
160.733
160.744
149.969
130.577
109.508
92.3398
80.5925
73.2195
68.2787
63.9248
59.1124
53.7633
48.3982
43.6617
40.0019
37.5311
36.0513
35.1939
34.5872
33.9653
33.1923
32.2303
31.0954
29.8267
28.4699
27.0705
25.6707
24.3081
23.0146
21.8159
20.7327
19.7826
18.9822
18.3453
17.8817
17.5992
17.513
17.6568
18.0835
18.853
20.0101
21.5658
23.5086
25.876
28.8382
32.6643
37.5934
43.9345
52.6053
65.6907
85.8821
112.578
137.518
155.45
178.325
221.797
266.755
258.466
201.711
146.855
112.507
92.3714
78.5529
67.3799
57.7159
49.3188
42.1852
36.3616
31.8658
28.6505
26.6463
25.8378
26.0855
27.023
28.4359
30.3299
32.9669
36.2405
39.28
41.9144
44.8454
48.3713
52.3165
56.0429
58.2681
58.0674
56.4171
55.7564
57.2846
59.4922
60.0833
58.2844
54.7993
50.6478
46.4908
42.5762
38.9378
35.5916
32.623
30.1673
28.3492
27.2514
26.9792
27.5511
28.8129
30.5801
32.6502
34.8179
36.8614
38.5957
39.9635
41.019
41.7767
42.0687
41.5565
39.915
37.0562
33.2156
28.848
24.4308
20.3178
16.6996
13.636
11.108
9.05809
7.41465
6.10553
5.06525
4.23829
3.57965
3.05386
2.63328
2.29651
2.0269
1.81157
1.64064
400.739
280.658
258.692
249.404
227.289
197.496
169.845
149.183
136.049
129.287
127.645
130.193
136.138
144.509
154.023
163.217
170.745
175.651
177.511
176.387
172.679
166.962
159.868
151.99
143.836
135.808
128.215
121.291
115.206
110.078
105.991
103.146
101.327
100.512
100.735
102.061
104.57
108.333
113.339
119.363
125.964
132.872
140.303
148.133
154.103
153.489
142.87
124.632
105.101
88.8459
76.9653
68.692
62.6703
57.5993
52.6861
47.7795
43.1645
39.2367
36.2475
34.2026
32.9039
32.0678
31.4363
30.8311
30.1532
29.3595
28.4402
27.4054
26.2783
25.0898
23.8749
22.6685
21.5029
20.4064
19.402
18.509
17.7449
17.1259
16.6659
16.3758
16.2683
16.3679
16.718
17.3777
18.4082
19.8587
21.7668
24.203
27.3422
31.4518
36.7622
43.5247
52.6139
66.3279
87.9455
117.347
145.404
164.602
184.764
220.225
255.728
247.458
197.962
147.531
113.496
92.4069
77.9223
66.503
56.8189
48.5158
41.5552
35.9645
31.7271
28.7645
26.981
26.2925
26.5362
27.396
28.7086
30.5169
33.0491
36.1556
39.176
42.2096
45.7649
49.823
54.1683
58.1193
60.1017
59.124
56.7749
55.832
56.6755
57.1451
55.6119
52.2622
48.0831
43.8689
39.965
36.3966
33.0845
30.0093
27.257
24.9692
23.2744
22.2577
22.0162
22.6716
24.1291
26.2643
28.8931
31.7709
34.5758
36.9886
38.847
40.1748
41.0197
41.2703
40.6455
38.8755
35.922
32.0557
27.7428
23.4499
19.506
16.0731
13.1865
10.8104
8.87955
7.3223
6.07128
5.06774
4.26262
3.61613
3.09646
2.67836
2.34188
2.07119
1.85387
1.68035
234.86
257.282
239.933
229.543
216.18
195.977
173.342
153.44
138.793
129.764
125.847
126.387
130.721
138.047
147.299
157.196
166.434
173.93
178.992
181.352
181.103
178.579
174.25
168.625
162.192
155.384
148.566
142.032
136.01
130.67
126.138
122.61
119.8
117.759
116.538
116.192
116.769
118.307
120.776
123.956
127.533
131.537
136.433
141.991
145.63
142.864
131.466
114.554
97.3788
82.8977
71.6083
63.0121
56.3099
50.7296
45.7859
41.349
37.5201
34.4387
32.1445
30.5445
29.4623
28.7102
28.1329
27.6178
27.0865
26.487
25.7895
24.9849
24.082
23.1022
22.0753
21.0335
20.0088
19.0298
18.1212
17.3037
16.5954
16.0134
15.5737
15.2905
15.1773
15.2539
15.5555
16.1354
17.0592
18.3966
20.2222
22.6459
25.8698
30.1793
35.8134
42.9805
52.4821
66.7276
89.5033
121.238
152.081
172.288
189.698
217.873
245.504
237.566
194.318
147.959
114.599
92.8812
77.8155
66.1461
56.4529
48.2793
41.5334
36.2033
32.2305
29.5118
27.9448
27.4022
27.6793
28.4816
29.6902
31.382
33.7587
36.6728
39.7136
43.1388
47.1753
51.5734
56.1518
60.1309
61.5915
59.648
56.6084
55.1812
54.8528
53.5194
50.4699
46.3749
42.0963
38.1302
34.5959
31.3945
28.3956
25.572
23.0187
20.882
19.2897
18.3279
18.1036
18.7918
20.357
22.7237
25.7422
29.1552
32.566
35.5392
37.8139
39.3787
40.3019
40.5171
39.7931
37.9117
34.8827
31.0092
26.7652
22.6015
18.8203
15.5566
12.8251
10.578
8.7459
7.25883
6.05451
5.08022
4.29236
3.65534
3.14027
2.72379
2.3871
2.11506
1.89569
1.71967
95.2895
232.545
235.627
221.127
207.738
192.966
175.97
158.897
144.256
133.502
127.074
124.863
126.508
131.456
138.924
147.918
157.33
166.117
173.451
178.811
181.981
183.004
182.098
179.585
175.833
171.211
166.063
160.697
155.378
150.324
145.709
141.63
137.859
134.499
131.639
129.348
127.697
126.756
126.518
126.806
127.498
128.937
131.639
134.95
135.875
130.61
118.59
103.355
88.6326
75.9753
65.5978
57.2764
50.5858
45.077
40.4402
36.5409
33.3483
30.8409
28.9537
27.5809
26.6029
25.9067
25.391
24.9662
24.5556
24.1
23.5612
22.9227
22.1866
21.3694
20.4958
19.595
18.6962
17.8267
17.0107
16.2692
15.6205
15.0816
14.6694
14.3998
14.288
14.3521
14.6213
15.143