/*--------------------------------*- C++ -*----------------------------------*\
| =========                 |                                                 |
| \\      /  F ield         | OpenFOAM: The Open Source CFD Toolbox           |
|  \\    /   O peration     | Version:  2112                                  |
|   \\  /    A nd           | Website:  www.openfoam.com                      |
|    \\/     M anipulation  |                                                 |
\*---------------------------------------------------------------------------*/
FoamFile
{
    version     2.0;
    format      ascii;
    arch        "LSB;label=32;scalar=64";
    class       surfaceScalarField;
    location    "0.22";
    object      phi;
}
// * * * * * * * * * * * * * * * * * * * * * * * * * * * * * * * * * * * * * //

dimensions      [0 3 -1 0 0 0 0];

oriented        oriented;

internalField   nonuniform List<scalar> 
24170
(
3.08982e-06
9.85864e-08
2.93296e-06
1.56864e-07
2.7616e-06
1.71357e-07
2.59466e-06
1.66938e-07
2.44157e-06
1.5309e-07
2.30519e-06
1.36378e-07
2.186e-06
1.19197e-07
2.08285e-06
1.03145e-07
1.99397e-06
8.88851e-08
1.91766e-06
7.63079e-08
1.85225e-06
6.54082e-08
1.79663e-06
5.5624e-08
1.74901e-06
4.76154e-08
1.70929e-06
3.97207e-08
1.67524e-06
3.40471e-08
1.64819e-06
2.7057e-08
1.62552e-06
2.26676e-08
1.94731e-08
1.60605e-06
3.43288e-06
8.29578e-08
3.4416e-06
1.48141e-07
3.43871e-06
1.74244e-07
3.42255e-06
1.83105e-07
3.39564e-06
1.8e-07
3.36148e-06
1.70532e-07
3.32315e-06
1.57527e-07
3.28301e-06
1.43287e-07
3.24268e-06
1.29214e-07
3.20325e-06
1.15738e-07
3.16539e-06
1.03272e-07
3.12958e-06
9.14302e-08
3.09607e-06
8.11299e-08
3.06501e-06
7.07726e-08
3.03659e-06
6.24698e-08
3.01053e-06
5.31197e-08
2.9872e-06
4.59974e-08
3.71668e-08
2.96951e-06
3.67476e-06
7.07142e-08
3.68731e-06
1.35594e-07
3.69759e-06
1.63956e-07
3.70562e-06
1.75081e-07
3.71099e-06
1.74628e-07
3.71374e-06
1.67785e-07
3.71392e-06
1.5734e-07
3.71204e-06
1.45171e-07
3.70845e-06
1.32808e-07
3.70353e-06
1.20649e-07
3.69775e-06
1.09053e-07
3.69122e-06
9.79657e-08
3.68449e-06
8.78606e-08
3.67735e-06
7.79135e-08
3.67062e-06
6.92008e-08
3.66369e-06
6.00477e-08
3.65786e-06
5.18285e-08
4.27056e-08
3.65232e-06
3.93574e-06
6.03657e-08
3.94869e-06
1.22645e-07
3.95979e-06
1.52854e-07
3.96933e-06
1.65536e-07
3.97712e-06
1.66845e-07
3.98335e-06
1.61547e-07
3.98826e-06
1.5243e-07
3.99205e-06
1.41386e-07
3.99488e-06
1.29981e-07
3.99694e-06
1.1859e-07
3.99843e-06
1.0756e-07
3.99934e-06
9.70517e-08
4e-06
8.72027e-08
4.00021e-06
7.77065e-08
4.00046e-06
6.89466e-08
4.00035e-06
6.01612e-08
4.00031e-06
5.18682e-08
4.35606e-08
3.99945e-06
4.21597e-06
5.15177e-08
4.22884e-06
1.09775e-07
4.24108e-06
1.40622e-07
4.25177e-06
1.54847e-07
4.26054e-06
1.58075e-07
4.26768e-06
1.54407e-07
4.27346e-06
1.46641e-07
4.27817e-06
1.36684e-07
4.28206e-06
1.26085e-07
4.28533e-06
1.15323e-07
4.28807e-06
1.04825e-07
4.29033e-06
9.47824e-08
4.2923e-06
8.52361e-08
4.2939e-06
7.61052e-08
4.29536e-06
6.749e-08
4.29647e-06
5.90479e-08
4.29732e-06
5.10196e-08
4.3277e-08
4.2976e-06
4.51663e-06
4.39797e-08
4.52884e-06
9.75621e-08
4.54174e-06
1.27723e-07
4.55365e-06
1.42934e-07
4.56383e-06
1.4789e-07
4.57221e-06
1.46028e-07
4.57897e-06
1.39887e-07
4.58431e-06
1.31336e-07
4.58875e-06
1.21645e-07
4.59251e-06
1.11567e-07
4.59569e-06
1.01649e-07
4.59843e-06
9.20436e-08
4.6008e-06
8.28577e-08
4.60282e-06
7.40848e-08
4.60459e-06
6.57241e-08
4.60602e-06
5.76188e-08
4.60712e-06
4.9918e-08
4.26259e-08
4.60777e-06
4.83917e-06
3.75254e-08
4.85049e-06
8.62463e-08
4.86324e-06
1.14978e-07
4.87575e-06
1.30422e-07
4.88717e-06
1.3647e-07
4.89707e-06
1.36131e-07
4.90532e-06
1.31632e-07
4.91193e-06
1.24729e-07
4.91725e-06
1.16328e-07
4.92158e-06
1.0723e-07
4.92518e-06
9.80562e-08
4.92825e-06
8.89653e-08
4.93089e-06
8.02172e-08
4.93316e-06
7.18166e-08
4.93512e-06
6.37712e-08
4.93672e-06
5.60167e-08
4.93797e-06
4.86677e-08
4.17815e-08
4.93881e-06
5.18514e-06
3.19682e-08
5.19555e-06
7.58298e-08
5.20778e-06
1.02747e-07
5.22028e-06
1.17929e-07
5.23219e-06
1.24559e-07
5.24306e-06
1.25255e-07
5.25268e-06
1.22016e-07
5.26092e-06
1.16488e-07
5.26775e-06
1.09494e-07
5.27331e-06
1.01674e-07
5.27781e-06
9.35587e-08
5.28148e-06
8.52971e-08
5.28449e-06
7.72069e-08
5.28702e-06
6.92801e-08
5.28916e-06
6.16343e-08
5.29091e-06
5.42644e-08
5.2923e-06
4.72759e-08
4.0767e-08
5.29332e-06
5.55615e-06
2.71574e-08
5.56571e-06
6.62691e-08
5.57734e-06
9.1119e-08
5.58955e-06
1.05721e-07
5.60147e-06
1.12636e-07
5.61268e-06
1.14046e-07
5.62297e-06
1.11719e-07
5.6323e-06
1.07157e-07
5.64055e-06
1.01246e-07
5.64766e-06
9.45635e-08
5.65367e-06
8.75538e-08
5.6586e-06
8.03623e-08
5.66258e-06
7.32325e-08
5.66575e-06
6.61099e-08
5.66827e-06
5.91166e-08
5.67025e-06
5.2277e-08
5.67182e-06
4.57137e-08
3.9583e-08
5.673e-06
5.95397e-06
2.29653e-08
5.96271e-06
5.75247e-08
5.9737e-06
8.01312e-08
5.98553e-06
9.38876e-08
5.99732e-06
1.00848e-07
6.00859e-06
1.02774e-07
6.01912e-06
1.01189e-07
6.02888e-06
9.74027e-08
6.03783e-06
9.22894e-08
6.04597e-06
8.64289e-08
6.05327e-06
8.02548e-08
6.05967e-06
7.39643e-08
6.06515e-06
6.77497e-08
6.06966e-06
6.15939e-08
6.07324e-06
5.55423e-08
6.07595e-06
4.95647e-08
6.07795e-06
4.37123e-08
3.81193e-08
6.07942e-06
6.38048e-06
1.92931e-08
6.38844e-06
4.95695e-08
6.39877e-06
6.97992e-08
6.4102e-06
8.24616e-08
6.42181e-06
8.92324e-08
6.43309e-06
9.14965e-08
6.44375e-06
9.05334e-08
6.45369e-06
8.7456e-08
6.46293e-06
8.30569e-08
6.47146e-06
7.78915e-08
6.47935e-06
7.23716e-08
6.48658e-06
6.67315e-08
6.49317e-06
6.11627e-08
6.49903e-06
5.57326e-08
6.50408e-06
5.04898e-08
6.50822e-06
4.54217e-08
6.51142e-06
4.05197e-08
3.57991e-08
6.51374e-06
5.74359e-06
1.65346e-08
5.74972e-06
4.34442e-08
5.75796e-06
6.15584e-08
5.7673e-06
7.31205e-08
5.77697e-06
7.95601e-08
5.7865e-06
8.19726e-08
5.7956e-06
8.14312e-08
5.80416e-06
7.88974e-08
5.81213e-06
7.50818e-08
5.81953e-06
7.0496e-08
5.82638e-06
6.55186e-08
5.83272e-06
6.03878e-08
5.8386e-06
5.52874e-08
5.84402e-06
5.03168e-08
5.84896e-06
4.55483e-08
5.85336e-06
4.10184e-08
5.85714e-06
3.67377e-08
3.27149e-08
5.86023e-06
7.00089e-06
1.37965e-08
7.00735e-06
3.69849e-08
7.01626e-06
5.26518e-08
7.02659e-06
6.27914e-08
7.03748e-06
6.86665e-08
7.04836e-06
7.10923e-08
7.05889e-06
7.09073e-08
7.06887e-06
6.89091e-08
7.07824e-06
6.57154e-08
7.08696e-06
6.178e-08
7.09504e-06
5.74374e-08
7.10251e-06
5.29124e-08
7.10943e-06
4.8369e-08
7.11584e-06
4.39109e-08
7.12177e-06
3.96161e-08
7.12724e-06
3.55455e-08
7.13224e-06
3.17393e-08
2.82567e-08
7.1367e-06
8.53354e-06
1.11023e-08
8.54025e-06
3.02751e-08
8.54973e-06
4.31699e-08
8.561e-06
5.15245e-08
8.57312e-06
5.65484e-08
8.58542e-06
5.87936e-08
8.59747e-06
5.88497e-08
8.60905e-06
5.73331e-08
8.62001e-06
5.4755e-08
8.63029e-06
5.15028e-08
8.63986e-06
4.78628e-08
8.64874e-06
4.40356e-08
8.65695e-06
4.0163e-08
8.66452e-06
3.63387e-08
8.6715e-06
3.26301e-08
8.67795e-06
2.90955e-08
8.68391e-06
2.57795e-08
2.27541e-08
8.68942e-06
1.04019e-05
8.39159e-09
1.0409e-05
2.32033e-08
1.0419e-05
3.31843e-08
1.04311e-05
3.94296e-08
1.04444e-05
4.32485e-08
1.04581e-05
4.50469e-08
1.04718e-05
4.51677e-08
1.04851e-05
4.40286e-08
1.04979e-05
4.20162e-08
1.05099e-05
3.94382e-08
1.05213e-05
3.65269e-08
1.05318e-05
3.34506e-08
1.05417e-05
3.03287e-08
1.05508e-05
2.72415e-08
1.05592e-05
2.42438e-08
1.05669e-05
2.13807e-08
1.0574e-05
1.86857e-08
1.62107e-08
1.05805e-05
1.26796e-05
5.56662e-09
1.26872e-05
1.55991e-08
1.26979e-05
2.25314e-08
1.27109e-05
2.64437e-08
1.27253e-05
2.8757e-08
1.27406e-05
2.98157e-08
1.2756e-05
2.97664e-08
1.27712e-05
2.88442e-08
1.27859e-05
2.73025e-08
1.28e-05
2.53552e-08
1.28133e-05
2.31683e-08
1.28259e-05
2.08663e-08
1.28377e-05
1.85396e-08
1.28487e-05
1.62512e-08
1.28589e-05
1.40448e-08
1.28683e-05
1.19535e-08
1.2877e-05
9.99908e-09
8.21128e-09
1.2885e-05
1.54562e-05
2.59623e-09
1.54644e-05
7.34882e-09
1.54763e-05
1.06429e-08
1.54906e-05
1.21387e-08
1.55065e-05
1.28096e-08
1.55235e-05
1.28784e-08
1.55408e-05
1.24099e-08
1.55582e-05
1.15125e-08
1.55752e-05
1.03152e-08
1.55916e-05
8.93124e-09
1.56073e-05
7.44999e-09
1.56222e-05
5.93918e-09
1.56363e-05
4.4488e-09
1.56496e-05
3.01488e-09
1.56619e-05
1.66339e-09
1.56735e-05
4.14105e-10
1.56842e-05
-7.20688e-10
-1.72367e-09
1.56941e-05
1.88409e-05
-6.73795e-10
1.88501e-05
-1.89222e-09
1.88639e-05
-3.06106e-09
1.88802e-05
-4.22643e-09
1.88984e-05
-5.37265e-09
1.89178e-05
-6.50765e-09
1.89378e-05
-7.59905e-09
1.89579e-05
-8.62704e-09
1.89778e-05
-9.57675e-09
1.89972e-05
-1.0438e-08
1.90159e-05
-1.12064e-08
1.90337e-05
-1.18806e-08
1.90506e-05
-1.24615e-08
1.90665e-05
-1.29504e-08
1.90816e-05
-1.33484e-08
1.90956e-05
-1.3656e-08
1.91088e-05
-1.38737e-08
-1.39938e-08
1.91211e-05
2.29672e-05
-4.56557e-09
2.29783e-05
-1.29798e-08
2.29948e-05
-1.95611e-08
2.30146e-05
-2.39979e-08
2.30366e-05
-2.73901e-08
2.30601e-05
-3.00129e-08
2.30844e-05
-3.18868e-08
2.31089e-05
-3.30992e-08
2.31331e-05
-3.3772e-08
2.31566e-05
-3.40201e-08
2.31794e-05
-3.3942e-08
2.32011e-05
-3.36169e-08
2.32218e-05
-3.31052e-08
2.32413e-05
-3.24529e-08
2.32596e-05
-3.16961e-08
2.32768e-05
-3.08617e-08
2.32929e-05
-2.99698e-08
-2.90282e-08
2.3308e-05
1.68139e-05
-7.76033e-09
1.68228e-05
-2.18366e-08
1.68356e-05
-3.23588e-08
1.68511e-05
-3.95442e-08
1.68685e-05
-4.48134e-08
1.68871e-05
-4.85464e-08
1.69061e-05
-5.08897e-08
1.6925e-05
-5.20839e-08
1.69437e-05
-5.2387e-08
1.69617e-05
-5.20215e-08
1.69789e-05
-5.11719e-08
1.69953e-05
-4.99847e-08
1.70107e-05
-4.85667e-08
1.70253e-05
-4.69962e-08
1.70389e-05
-4.53355e-08
1.70517e-05
-4.36315e-08
1.70636e-05
-4.19148e-08
-4.0198e-08
1.70748e-05
1.46379e-05
-1.1102e-08
1.46468e-05
-3.06766e-08
1.46592e-05
-4.48055e-08
1.46744e-05
-5.47867e-08
1.46915e-05
-6.18539e-08
1.47094e-05
-6.64306e-08
1.47274e-05
-6.89414e-08
1.47452e-05
-6.98611e-08
1.47624e-05
-6.96059e-08
1.47789e-05
-6.85015e-08
1.47945e-05
-6.68092e-08
1.48093e-05
-6.47403e-08
1.48232e-05
-6.24458e-08
1.48362e-05
-6.00196e-08
1.48484e-05
-5.7536e-08
1.48598e-05
-5.50542e-08
1.48705e-05
-5.25922e-08
-5.01424e-08
1.48804e-05
1.27439e-05
-1.48594e-08
1.27532e-05
-3.99493e-08
1.27661e-05
-5.77929e-08
1.27817e-05
-7.03195e-08
1.27986e-05
-7.87644e-08
1.2816e-05
-8.38053e-08
1.28332e-05
-8.6159e-08
1.28499e-05
-8.65659e-08
1.28659e-05
-8.56065e-08
1.28811e-05
-8.36823e-08
1.28954e-05
-8.11037e-08
1.29088e-05
-7.8146e-08
1.29213e-05
-7.49867e-08
1.2933e-05
-7.16795e-08
1.29437e-05
-6.8304e-08
1.29536e-05
-6.49479e-08
1.29626e-05
-6.16046e-08
-5.82452e-08
1.29707e-05
1.10955e-05
-1.93924e-08
1.11058e-05
-5.0261e-08
1.11196e-05
-7.15776e-08
1.11354e-05
-8.61574e-08
1.11522e-05
-9.55353e-08
1.1169e-05
-1.00653e-07
1.11854e-05
-1.02549e-07
1.12011e-05
-1.02263e-07
1.1216e-05
-1.00463e-07
1.12298e-05
-9.75554e-08
1.12426e-05
-9.39006e-08
1.12544e-05
-8.98709e-08
1.1265e-05
-8.56472e-08
1.12745e-05
-8.12128e-08
1.12829e-05
-7.67066e-08
1.12903e-05
-7.22858e-08
1.12967e-05
-6.79893e-08
-6.38152e-08
1.13022e-05
9.66081e-06
-2.49845e-08
9.67242e-06
-6.18711e-08
9.68692e-06
-8.60828e-08
9.70299e-06
-1.02224e-07
9.71952e-06
-1.12069e-07
9.73569e-06
-1.16816e-07
9.75099e-06
-1.17857e-07
9.76528e-06
-1.16547e-07
9.77835e-06
-1.13531e-07
9.79005e-06
-1.0926e-07
9.80037e-06
-1.04223e-07
9.80937e-06
-9.887e-08
9.81713e-06
-9.34079e-08
9.82385e-06
-8.793e-08
9.82967e-06
-8.25263e-08
9.83471e-06
-7.73217e-08
9.83913e-06
-7.24084e-08
-6.78054e-08
9.84312e-06
8.41222e-06
-3.18561e-08
8.42519e-06
-7.48356e-08
8.44022e-06
-1.01113e-07
8.45611e-06
-1.18116e-07
8.47179e-06
-1.27747e-07
8.48647e-06
-1.31503e-07
8.49978e-06
-1.31163e-07
8.5115e-06
-1.28272e-07
8.52165e-06
-1.23675e-07
8.53043e-06
-1.18038e-07
8.53804e-06
-1.1184e-07
8.54457e-06
-1.05393e-07
8.55015e-06
-9.89881e-08
8.5551e-06
-9.2878e-08
8.55955e-06
-8.69816e-08
8.56355e-06
-8.13219e-08
8.56714e-06
-7.59993e-08
-7.10486e-08
8.57039e-06
7.32586e-06
-4.04297e-08
7.33991e-06
-8.88861e-08
7.35478e-06
-1.15981e-07
7.36926e-06
-1.32598e-07
7.38285e-06
-1.41334e-07
7.39505e-06
-1.43709e-07
7.40577e-06
-1.41876e-07
7.41484e-06
-1.37347e-07
7.42257e-06
-1.31405e-07
7.42932e-06
-1.24788e-07
7.4353e-06
-1.17817e-07
7.44053e-06
-1.10621e-07
7.4451e-06
-1.03566e-07
7.44912e-06
-9.68925e-08
7.45269e-06
-9.05542e-08
7.4559e-06
-8.45276e-08
7.45876e-06
-7.88615e-08
-7.36057e-08
7.46132e-06
6.38086e-06
-5.12204e-08
6.39488e-06
-1.02905e-07
6.40844e-06
-1.29545e-07
6.42082e-06
-1.44976e-07
6.43215e-06
-1.52665e-07
6.44213e-06
-1.53687e-07
6.45084e-06
-1.50586e-07
6.45823e-06
-1.44742e-07
6.46453e-06
-1.37699e-07
6.46987e-06
-1.30131e-07
6.47444e-06
-1.22387e-07
6.47837e-06
-1.14549e-07
6.48172e-06
-1.06923e-07
6.48454e-06
-9.97061e-08
6.48687e-06
-9.28863e-08
6.48885e-06
-8.65106e-08
6.49049e-06
-8.04967e-08
-7.49456e-08
6.49183e-06
5.55874e-06
-6.45007e-08
5.57165e-06
-1.15807e-07
5.58344e-06
-1.41339e-07
5.59448e-06
-1.56013e-07
5.60408e-06
-1.62265e-07
5.61169e-06
-1.61299e-07
5.61754e-06
-1.56439e-07
5.6218e-06
-1.48999e-07
5.62455e-06
-1.40454e-07
5.62589e-06
-1.31464e-07
5.626e-06
-1.22504e-07
5.62514e-06
-1.1369e-07
5.62346e-06
-1.05243e-07
5.6211e-06
-9.73405e-08
5.61814e-06
-8.99274e-08
5.61477e-06
-8.31402e-08
5.61106e-06
-7.67861e-08
-7.09748e-08
5.60709e-06
4.84387e-06
-8.07652e-08
4.85541e-06
-1.27341e-07
4.86151e-06
-1.47439e-07
4.86087e-06
-1.55381e-07
4.85185e-06
-1.53241e-07
4.83512e-06
-1.44564e-07
4.81261e-06
-1.33929e-07
4.78599e-06
-1.22384e-07
4.75652e-06
-1.10979e-07
4.72534e-06
-1.00283e-07
4.69328e-06
-9.04532e-08
4.66106e-06
-8.1469e-08
4.62916e-06
-7.33407e-08
4.59788e-06
-6.60564e-08
4.56746e-06
-5.95067e-08
4.53802e-06
-5.3707e-08
4.50971e-06
-4.84744e-08
-4.4057e-08
4.48279e-06
4.12191e-06
3.99457e-06
3.84713e-06
3.69175e-06
3.53851e-06
3.39394e-06
3.26002e-06
3.13763e-06
3.02665e-06
2.92637e-06
2.83592e-06
2.75445e-06
2.68111e-06
2.61505e-06
2.55554e-06
2.50184e-06
2.45336e-06
2.40931e-06
-4.43345e-09
4.43345e-09
-7.11885e-09
2.6854e-09
-2.54019e-09
-4.57865e-09
1.33778e-08
-1.5918e-08
4.26786e-08
-2.93009e-08
8.4987e-08
-4.23084e-08
1.37751e-07
-5.27642e-08
1.976e-07
-5.98485e-08
2.61236e-07
-6.36362e-08
3.25834e-07
-6.45986e-08
3.89275e-07
-6.34408e-08
4.50033e-07
-6.0758e-08
5.06863e-07
-5.68294e-08
5.58919e-07
-5.20564e-08
6.05724e-07
-4.68049e-08
6.47033e-07
-4.13095e-08
6.82739e-07
-3.57059e-08
7.12811e-07
-3.00718e-08
7.37313e-07
-2.45014e-08
7.56368e-07
-1.90559e-08
7.70176e-07
-1.38073e-08
7.78978e-07
-8.80239e-09
7.83108e-07
-4.12975e-09
7.83058e-07
4.99179e-11
7.78844e-07
4.21366e-09
7.7118e-07
7.66439e-09
7.60659e-07
1.05206e-08
7.47906e-07
1.2753e-08
7.33573e-07
1.43332e-08
7.18283e-07
1.52902e-08
7.02601e-07
1.56817e-08
6.87042e-07
1.55591e-08
6.71879e-07
1.51631e-08
6.57381e-07
1.44978e-08
6.43777e-07
1.36037e-08
6.30727e-07
1.3051e-08
6.1799e-07
1.27363e-08
6.07061e-07
1.0929e-08
6.00865e-07
6.19643e-09
6.01068e-07
-2.03564e-10
6.06357e-07
-5.2889e-09
6.14142e-07
-7.78479e-09
6.22671e-07
-8.52838e-09
6.32462e-07
-9.79151e-09
6.44922e-07
-1.24603e-08
6.58728e-07
-1.38054e-08
6.68611e-07
-9.88314e-09
6.64803e-07
3.80793e-09
6.36007e-07
2.87958e-08
5.73051e-07
6.29559e-08
4.73604e-07
9.9447e-08
3.42306e-07
1.31298e-07
1.97169e-07
1.45137e-07
7.72405e-08
1.19929e-07
1.612e-09
7.56285e-08
-1.78158e-08
1.94278e-08
2.83543e-08
-4.61701e-08
1.17449e-08
1.66094e-08
-1.02811e-07
1.14556e-07
-3.64484e-07
2.61673e-07
-6.33384e-07
2.68899e-07
-7.87561e-07
1.54177e-07
-8.59415e-07
7.18543e-08
-8.5227e-07
-7.14528e-09
-7.90638e-07
-6.16323e-08
-6.93651e-07
-9.69862e-08
-5.75511e-07
-1.18141e-07
-4.45488e-07
-1.30023e-07
-3.08121e-07
-1.37367e-07
-1.67307e-07
-1.40814e-07
-2.59181e-08
-1.41389e-07
1.11901e-07
-1.37819e-07
2.41098e-07
-1.29197e-07
3.55563e-07
-1.14465e-07
4.47965e-07
-9.2402e-08
5.10713e-07
-6.27483e-08
5.37796e-07
-2.70821e-08
5.2629e-07
1.15054e-08
4.66802e-07
5.94883e-08
3.66026e-07
1.00776e-07
2.3298e-07
1.33046e-07
8.12105e-08
1.51769e-07
-7.14877e-08
1.52698e-07
-2.05153e-07
1.33665e-07
-2.98008e-07
9.28557e-08
-3.34634e-07
3.66259e-08
-2.99464e-07
-3.51698e-08
-1.71556e-07
-1.27908e-07
5.59286e-08
-2.27485e-07
3.72736e-07
-3.16808e-07
7.52293e-07
-3.79556e-07
1.14601e-06
-3.93722e-07
1.49716e-06
-3.51148e-07
1.76338e-06
-2.66217e-07
1.91764e-06
-1.5426e-07
1.94402e-06
-2.63817e-08
1.81506e-06
1.28959e-07
1.52389e-06
2.91176e-07
1.09302e-06
4.3087e-07
5.81031e-07
5.11985e-07
9.4763e-08
4.86268e-07
-2.45864e-07
3.40627e-07
-3.63802e-07
1.17939e-07
-2.62493e-07
-1.01309e-07
-9.80247e-09
-2.52691e-07
2.16946e-07
-2.26749e-07
3.10524e-07
-9.3578e-08
3.42663e-07
-3.21383e-08
3.55487e-07
-1.28244e-08
2.75793e-07
7.96943e-08
-2.90652e-08
3.04858e-07
-6.97949e-07
6.68884e-07
-1.40323e-06
7.05284e-07
-1.94555e-06
5.42314e-07
-2.38803e-06
4.42482e-07
-2.73202e-06
3.43991e-07
-3.00212e-06
2.70095e-07
-3.21422e-06
2.12107e-07
-3.38236e-06
1.68136e-07
-3.51786e-06
1.35503e-07
-3.62852e-06
1.10664e-07
-3.72033e-06
9.1806e-08
-3.79726e-06
7.6927e-08
-3.86217e-06
6.49122e-08
-3.91698e-06
5.48137e-08
-3.96303e-06
4.60507e-08
-4.00122e-06
3.81831e-08
-4.03213e-06
3.09173e-08
-4.05626e-06
2.41229e-08
-4.0739e-06
1.76375e-08
-4.08541e-06
1.15101e-08
-4.09116e-06
5.75463e-09
-4.09145e-06
2.85624e-10
-4.0874e-06
-4.04588e-09
-4.07979e-06
-7.60943e-09
-4.06944e-06
-1.03461e-08
-4.05747e-06
-1.19774e-08
-4.04506e-06
-1.24043e-08
-4.03332e-06
-1.17445e-08
-4.02322e-06
-1.00962e-08
-4.01541e-06
-7.81408e-09
-4.01011e-06
-5.29725e-09
-4.00694e-06
-3.17382e-09
-4.0047e-06
-2.23277e-09
-4.00127e-06
-3.43027e-09
-3.99351e-06
-7.76065e-09
-3.97719e-06
-1.63196e-08
-3.94681e-06
-3.03788e-08
-3.89574e-06
-5.10723e-08
-3.81696e-06
-7.87822e-08
-3.70407e-06
-1.1289e-07
-3.55212e-06
-1.51946e-07
-3.35826e-06
-1.93861e-07
-3.12217e-06
-2.36096e-07
-2.84585e-06
-2.76316e-07
-2.53336e-06
-3.12489e-07
-2.19128e-06
-3.42082e-07
-1.82925e-06
-3.62029e-07
-1.45835e-06
-3.70902e-07
-1.08889e-06
-3.69455e-07
-7.29062e-07
-3.59831e-07
-3.84675e-07
-3.44387e-07
-5.97382e-08
-3.24937e-07
2.44437e-07
-3.04175e-07
5.26944e-07
-2.82507e-07
7.88997e-07
-2.62053e-07
1.03293e-06
-2.43935e-07
1.26066e-06
-2.27723e-07
1.47482e-06
-2.14164e-07
1.6764e-06
-2.01584e-07
1.86688e-06
-1.90481e-07
2.0456e-06
-1.78713e-07
2.21187e-06
-1.66277e-07
2.36368e-06
-1.51804e-07
2.49737e-06
-1.33689e-07
2.60963e-06
-1.1226e-07
2.69155e-06
-8.19193e-08
2.73782e-06
-4.62785e-08
2.70847e-06
2.93572e-08
1.32367e-07
2.5761e-06
-3.08103e-11
4.46426e-09
1.13678e-08
-8.71326e-09
3.99425e-08
-3.31533e-08
8.58429e-08
-6.18183e-08
1.44864e-07
-8.83224e-08
2.1069e-07
-1.08134e-07
2.77826e-07
-1.199e-07
3.42758e-07
-1.24781e-07
4.03884e-07
-1.24762e-07
4.60647e-07
-1.21361e-07
5.129e-07
-1.15693e-07
5.60769e-07
-1.08627e-07
6.04654e-07
-1.00715e-07
6.44846e-07
-9.22479e-08
6.81445e-07
-8.34042e-08
7.14394e-07
-7.42582e-08
7.43567e-07
-6.48792e-08
7.68819e-07
-5.53232e-08
7.89997e-07
-4.56804e-08
8.07032e-07
-3.60902e-08
8.19933e-07
-2.67089e-08
8.28848e-07
-1.77169e-08
8.34012e-07
-9.2936e-09
8.35681e-07
-1.61967e-09
8.34818e-07
5.07699e-09
8.31772e-07
1.07107e-08
8.2712e-07
1.51726e-08
8.2147e-07
1.84024e-08
8.15454e-07
2.03497e-08
8.09699e-07
2.10454e-08
8.04832e-07
2.05482e-08
8.01434e-07
1.89574e-08
8.00097e-07
1.65003e-08
8.01196e-07
1.33986e-08
8.04842e-07
9.95765e-09
8.11468e-07
6.42468e-09
8.21223e-07
2.98097e-09
8.32337e-07
-1.84822e-10
8.42507e-07
-3.973e-09
8.50631e-07
-8.32809e-09
8.56977e-07
-1.16343e-08
8.62891e-07
-1.36997e-08
8.71509e-07
-1.71463e-08
8.85052e-07
-2.33338e-08
9.01583e-07
-2.89914e-08
9.15147e-07
-2.73701e-08
9.19098e-07
-1.3834e-08
9.07469e-07
1.54371e-08
8.72526e-07
6.37392e-08
8.10951e-07
1.24531e-07
7.27851e-07
1.82546e-07
6.26851e-07
2.32299e-07
4.93545e-07
2.78442e-07
3.33098e-07
2.80376e-07
1.85544e-07
2.23183e-07
5.85767e-08
1.46395e-07
-1.68657e-07
1.81064e-07
-5.35217e-07
3.83169e-07
-9.09377e-07
4.88716e-07
-1.08645e-06
4.38747e-07
-1.16304e-06
3.45489e-07
-1.21085e-06
2.0199e-07
-1.21843e-06
7.94349e-08
-1.20085e-06
-2.47308e-08
-1.16436e-06
-9.81188e-08
-1.11599e-06
-1.45363e-07
-1.05936e-06
-1.74766e-07
-9.92645e-07
-1.96738e-07
-9.13606e-07
-2.16406e-07
-8.22622e-07
-2.31798e-07
-7.23213e-07
-2.40798e-07
-6.19912e-07
-2.4112e-07
-5.18033e-07
-2.31076e-07
-4.23927e-07
-2.08571e-07
-3.4481e-07
-1.71519e-07
-2.88016e-07
-1.19542e-07
-2.60082e-07
-5.50164e-08
-2.64356e-07
1.57801e-08
-2.9875e-07
9.38821e-08
-3.60614e-07
1.6264e-07
-4.43601e-07
2.16033e-07
-5.39809e-07
2.47978e-07
-6.38956e-07
2.51845e-07
-7.2707e-07
2.21779e-07
-7.85714e-07
1.51499e-07
-7.86649e-07
3.75608e-08
-7.04884e-07
-1.16934e-07
-5.33648e-07
-2.99145e-07
-2.74274e-07
-4.86858e-07
6.21553e-08
-6.53237e-07
4.45843e-07
-7.63244e-07
8.32574e-07
-7.80453e-07
1.17063e-06
-6.89204e-07
1.43073e-06
-5.26317e-07
1.60077e-06
-3.24295e-07
1.67083e-06
-9.64423e-08
1.63444e-06
1.65341e-07
1.48706e-06
4.38558e-07
1.23354e-06
6.84395e-07
8.94954e-07
8.50567e-07
5.31933e-07
8.49289e-07
2.43604e-07
6.28955e-07
1.03405e-07
2.58138e-07
1.55682e-07
-1.53586e-07
2.97795e-07
-3.94804e-07
3.48903e-07
-2.77857e-07
1.83633e-07
7.16927e-08
-1.79998e-07
3.31492e-07
-8.28137e-07
6.35315e-07
-1.63024e-06
8.81802e-07
-2.2942e-06
9.68812e-07
-2.69675e-06
1.07144e-06
-2.98411e-06
9.92639e-07
-3.24062e-06
7.98826e-07
-3.44159e-06
6.43454e-07
-3.59299e-06
4.95384e-07
-3.7098e-06
3.86909e-07
-3.79895e-06
3.01253e-07
-3.86918e-06
2.38374e-07
-3.92452e-06
1.90843e-07
-3.96894e-06
1.5508e-07
-4.00455e-06
1.27412e-07
-4.03302e-06
1.05399e-07
-4.0555e-06
8.73917e-08
-4.07269e-06
7.20101e-08
-4.08521e-06
5.85621e-08
-4.09334e-06
4.63209e-08
-4.09742e-06
3.49938e-08
-4.09756e-06
2.42633e-08
-4.09398e-06
1.4053e-08
-4.08678e-06
4.31659e-09
-4.07623e-06
-4.79948e-09
-4.06275e-06
-1.31944e-08
-4.04622e-06
-2.05772e-08
-4.02699e-06
-2.6832e-08
-4.00585e-06
-3.14924e-08
-3.98367e-06
-3.41542e-08
-3.96144e-06
-3.46371e-08
-3.94009e-06
-3.30883e-08
-3.92039e-06
-2.97983e-08
-3.90286e-06
-2.53512e-08
-3.88756e-06
-2.0594e-08
-3.87405e-06
-1.66867e-08
-3.86118e-06
-1.50986e-08
-3.84698e-06
-1.76274e-08
-3.82851e-06
-2.62372e-08
-3.80169e-06
-4.31385e-08
-3.76115e-06
-7.09175e-08
-3.70031e-06
-1.1191e-07
-3.61211e-06
-1.66979e-07
-3.49007e-06
-2.34937e-07
-3.32914e-06
-3.1287e-07
-3.12648e-06
-3.96529e-07
-2.8817e-06
-4.80868e-07
-2.59677e-06
-5.6125e-07
-2.27542e-06
-6.33843e-07
-1.924e-06
-6.93494e-07
-1.55216e-06
-7.33871e-07
-1.1706e-06
-7.52466e-07
-7.89607e-07
-7.50446e-07
-4.17632e-07
-7.31807e-07
-6.09596e-08
-7.01059e-07
2.76719e-07
-6.62615e-07
5.93466e-07
-6.20922e-07
8.89493e-07
-5.78534e-07
1.16586e-06
-5.38424e-07
1.4241e-06
-5.02169e-07
1.66649e-06
-4.70114e-07
1.89509e-06
-4.42761e-07
2.11171e-06
-4.1821e-07
2.31722e-06
-3.95984e-07
2.51185e-06
-3.73349e-07
2.6947e-06
-3.49123e-07
2.86408e-06
-3.21185e-07
3.01703e-06
-2.86637e-07
3.14952e-06
-2.4475e-07
3.25662e-06
-1.89018e-07
3.32826e-06
-1.1792e-07
3.36883e-06
-1.12178e-08
1.40374e-07
3.36083e-06
2.66398e-09
1.80028e-09
2.97702e-08
-3.58194e-08
8.14045e-08
-8.47876e-08
1.47324e-07
-1.27738e-07
2.16662e-07
-1.5766e-07
2.82519e-07
-1.73991e-07
3.42723e-07
-1.80104e-07
3.97558e-07
-1.79616e-07
4.48067e-07
-1.75271e-07
4.95289e-07
-1.68584e-07
5.40013e-07
-1.60417e-07
5.82622e-07
-1.51236e-07
6.23204e-07
-1.41296e-07
6.6155e-07
-1.30594e-07
6.97256e-07
-1.1911e-07
7.2984e-07
-1.06842e-07
7.58791e-07
-9.38307e-08
7.83671e-07
-8.02029e-08
8.04147e-07
-6.61567e-08
8.20023e-07
-5.19656e-08
8.31264e-07
-3.79504e-08
8.38009e-07
-2.44615e-08
8.4057e-07
-1.18551e-08
8.39402e-07
-4.50833e-10
8.35148e-07
9.33038e-09
8.28505e-07
1.73535e-08
8.20264e-07
2.34137e-08
8.11254e-07
2.7413e-08
8.02293e-07
2.93101e-08
7.94192e-07
2.91472e-08
7.877e-07
2.70396e-08
7.83478e-07
2.31799e-08
7.82112e-07
1.78658e-08
7.83959e-07
1.15518e-08
7.89211e-07
4.70588e-09
7.97858e-07
-2.22268e-09
8.09515e-07
-8.67554e-09
8.23832e-07
-1.45024e-08
8.40175e-07
-2.03156e-08
8.57574e-07
-2.57269e-08
8.75977e-07
-3.00377e-08
8.97393e-07
-3.51156e-08
9.22743e-07
-4.2496e-08
9.48598e-07
-4.91892e-08
9.66996e-07
-4.73894e-08
9.68837e-07
-2.92111e-08
9.4621e-07
8.79337e-09
8.97095e-07
6.45512e-08
8.27736e-07
1.33099e-07
7.37633e-07
2.14634e-07
6.16209e-07
3.0397e-07
4.62258e-07
3.8625e-07
2.92937e-07
4.47763e-07
1.40321e-07
4.32992e-07
-2.53104e-08
3.88814e-07
-3.47043e-07
4.68128e-07
-8.12166e-07
6.46186e-07
-1.1341e-06
7.051e-07
-1.2936e-06
6.48221e-07
-1.38778e-06
5.32928e-07
-1.44203e-06
3.9974e-07
-1.48928e-06
2.49233e-07
-1.53174e-06
1.21898e-07
-1.58109e-06
2.46221e-08
-1.63626e-06
-4.29475e-08
-1.68414e-06
-9.74852e-08
-1.71025e-06
-1.48662e-07
-1.70821e-06
-1.98776e-07
-1.68117e-06
-2.43447e-07
-1.63558e-06
-2.77382e-07
-1.5778e-06
-2.98578e-07
-1.51311e-06
-3.05812e-07
-1.44636e-06
-2.97826e-07
-1.38279e-06
-2.72147e-07
-1.32805e-06
-2.26252e-07
-1.2874e-06
-1.60195e-07
-1.26498e-06
-7.74335e-08
-1.26733e-06
1.81293e-08
-1.28867e-06
1.15224e-07
-1.32909e-06
2.03058e-07
-1.38227e-06
2.69214e-07
-1.43878e-06
3.04485e-07
-1.48513e-06
2.982e-07
-1.50222e-06
2.38862e-07
-1.47034e-06
1.19622e-07
-1.37909e-06
-5.36854e-08
-1.23433e-06
-2.617e-07
-1.04372e-06
-4.89755e-07
-8.04285e-07
-7.26291e-07
-5.13325e-07
-9.44198e-07
-1.8971e-07
-1.08686e-06
1.24386e-07
-1.09455e-06
4.00982e-07
-9.65799e-07
6.19863e-07
-7.45198e-07
7.78382e-07
-4.82814e-07
8.65074e-07
-1.83134e-07
8.74952e-07
1.55463e-07
8.07206e-07
5.06304e-07
6.76966e-07
8.14636e-07
5.03639e-07
1.02389e-06
3.1213e-07
1.0408e-06
1.45311e-07
7.95774e-07
8.91938e-08
3.14255e-07
7.16484e-08
-1.3604e-07
-2.41798e-07
-8.13583e-08
-8.29557e-07
3.09902e-07
-1.46281e-06
7.04948e-07
-2.08242e-06
9.511e-07
-2.5686e-06
1.12149e-06
-2.90659e-06
1.21979e-06
-3.15208e-06
1.21431e-06
-3.25443e-06
1.17378e-06
-3.28287e-06
1.02108e-06
-3.33135e-06
8.47313e-07
-3.38255e-06
6.94649e-07
-3.44063e-06
5.53459e-07
-3.49841e-06
4.44697e-07
-3.55344e-06
3.56285e-07
-3.60386e-06
2.88793e-07
-3.64881e-06
2.35788e-07
-3.68812e-06
1.94391e-07
-3.72184e-06
1.61136e-07
-3.75031e-06
1.33869e-07
-3.77373e-06
1.1081e-07
-3.79241e-06
9.06844e-08
-3.8065e-06
7.26596e-08
-3.81621e-06
5.60313e-08
-3.82166e-06
4.04421e-08
-3.82298e-06
2.5577e-08
-3.8203e-06
1.13818e-08
-3.81384e-06
-2.14474e-09
-3.80393e-06
-1.47132e-08
-3.79086e-06
-2.6264e-08
-3.77492e-06
-3.65149e-08
-3.75664e-06
-4.51167e-08
-3.73672e-06
-5.14049e-08
-3.71604e-06
-5.48421e-08
-3.6955e-06
-5.51707e-08
-3.67601e-06
-5.25846e-08
-3.65826e-06
-4.75498e-08
-3.64271e-06
-4.0899e-08
-3.62939e-06
-3.39134e-08
-3.6178e-06
-2.82777e-08
-3.6068e-06
-2.60999e-08
-3.59451e-06
-2.99152e-08
-3.57812e-06
-4.26272e-08
-3.55361e-06
-6.76501e-08
-3.51558e-06
-1.0894e-07
-3.45742e-06
-1.70076e-07
-3.37183e-06
-2.52564e-07
-3.25201e-06
-3.54758e-07
-3.09268e-06
-4.72206e-07
-2.89082e-06
-5.98384e-07
-2.64606e-06
-7.25631e-07
-2.36046e-06
-8.46851e-07
-2.03775e-06
-9.56544e-07
-1.68417e-06
-1.04708e-06
-1.3095e-06
-1.10855e-06
-9.24873e-07
-1.13709e-06
-5.40692e-07
-1.13463e-06
-1.65573e-07
-1.10693e-06
1.94242e-07
-1.06087e-06
5.35064e-07
-1.00344e-06
8.55282e-07
-9.41139e-07
1.15488e-06
-8.78128e-07
1.43493e-06
-8.18475e-07
1.69692e-06
-7.64168e-07
1.94317e-06
-7.16363e-07
2.17563e-06
-6.75215e-07
2.39632e-06
-6.38902e-07
2.60597e-06
-6.05632e-07
2.80518e-06
-5.7256e-07
2.99291e-06
-5.36855e-07
3.16787e-06
-4.96149e-07
3.32721e-06
-4.45968e-07
3.4674e-06
-3.8494e-07
3.58404e-06
-3.0566e-07
3.67129e-06
-2.05172e-07
3.73035e-06
-7.02825e-08
1.11664e-07
3.75906e-06
1.07069e-08
-8.90663e-09
5.76755e-08
-8.27881e-08
1.2492e-07
-1.52032e-07
1.94619e-07
-1.97438e-07
2.57793e-07
-2.20834e-07
3.1346e-07
-2.29658e-07
3.63791e-07
-2.30435e-07
4.11174e-07
-2.26999e-07
4.57112e-07
-2.21209e-07
5.02537e-07
-2.14009e-07
5.47774e-07
-2.05654e-07
5.92573e-07
-1.96036e-07
6.36234e-07
-1.84957e-07
6.77828e-07
-1.72188e-07
7.16364e-07
-1.57647e-07
7.50959e-07
-1.41437e-07
7.80892e-07
-1.23764e-07
8.05618e-07
-1.04929e-07
8.24793e-07
-8.5332e-08
8.38276e-07
-6.5448e-08
8.46134e-07
-4.58088e-08
8.48641e-07
-2.69679e-08
8.46262e-07
-9.4761e-09
8.39629e-07
6.18152e-09
8.29457e-07
1.95023e-08
8.16675e-07
3.01359e-08
8.02247e-07
3.78412e-08
7.87206e-07
4.24541e-08
7.72589e-07
4.39272e-08
7.59418e-07
4.23188e-08
7.48662e-07
3.77954e-08
7.41195e-07
3.06463e-08
7.37679e-07
2.13826e-08
7.38468e-07
1.07628e-08
7.43591e-07
-4.17205e-10
7.52754e-07
-1.13855e-08
7.65648e-07
-2.15705e-08
7.82079e-07
-3.0933e-08
8.01345e-07
-3.95815e-08
8.23245e-07
-4.76266e-08
8.49499e-07
-5.62917e-08
8.7991e-07
-6.55267e-08
9.05731e-07
-6.83169e-08
9.11844e-07
-5.53025e-08
8.86786e-07
-2.23318e-08
8.29222e-07
2.83536e-08
7.44002e-07
9.40126e-08
6.37313e-07
1.71241e-07
5.12982e-07
2.57429e-07
3.74112e-07
3.53504e-07
2.27436e-07
4.50646e-07
9.20617e-08
5.21624e-07
-2.32819e-08
5.63107e-07
-2.07332e-07
6.17042e-07
-5.59803e-07
7.41286e-07
-9.79728e-07
8.88053e-07
-1.26138e-06
9.27835e-07
-1.41339e-06
8.57113e-07
-1.51145e-06
7.46281e-07
-1.60237e-06
6.23849e-07
-1.69751e-06
4.94882e-07
-1.81046e-06
3.62183e-07
-1.93348e-06
2.44915e-07
-2.05366e-06
1.44801e-07
-2.15273e-06
5.61216e-08
-2.2195e-06
-3.07133e-08
-2.25529e-06
-1.12873e-07
-2.27015e-06
-1.83915e-07
-2.27436e-06
-2.39233e-07
-2.27255e-06
-2.79196e-07
-2.26627e-06
-3.04857e-07
-2.25595e-06
-3.16129e-07
-2.24247e-06
-3.11309e-07
-2.22815e-06
-2.86469e-07
-2.21635e-06
-2.38051e-07
-2.20991e-06
-1.66631e-07
-2.20981e-06
-7.75387e-08
-2.21751e-06
2.58274e-08
-2.22487e-06
1.2259e-07
-2.22887e-06
2.0705e-07
-2.22061e-06
2.60956e-07
-2.18912e-06
2.72995e-07
-2.1262e-06
2.35282e-07
-2.03332e-06
1.45987e-07
-1.9231e-06
9.39366e-09
-1.81137e-06
-1.65416e-07
-1.69926e-06
-3.73802e-07
-1.57432e-06
-6.14701e-07
-1.42117e-06
-8.79436e-07
-1.23205e-06
-1.13332e-06
-1.01624e-06
-1.30267e-06
-7.96129e-07
-1.31466e-06
-5.95527e-07
-1.1664e-06
-4.2242e-07
-9.18306e-07
-2.81e-07
-6.24234e-07
-1.81308e-07
-2.82826e-07
-1.3357e-07
1.07725e-07
-1.32974e-07
5.05707e-07
-1.77461e-07
8.59123e-07
-2.50622e-07
1.09706e-06
-3.26119e-07
1.1163e-06
-3.68335e-07
8.3799e-07
-4.87029e-07
4.32949e-07
-9.77207e-07
3.54137e-07
-1.71599e-06
6.57427e-07
-2.31345e-06
9.07361e-07
-2.69979e-06
1.09129e-06
-2.98911e-06
1.24042e-06
-3.15465e-06
1.28703e-06
-3.20535e-06
1.27049e-06
-3.20309e-06
1.21205e-06
-3.16028e-06