/*--------------------------------*- C++ -*----------------------------------*\
| =========                 |                                                 |
| \\      /  F ield         | OpenFOAM: The Open Source CFD Toolbox           |
|  \\    /   O peration     | Version:  2112                                  |
|   \\  /    A nd           | Website:  www.openfoam.com                      |
|    \\/     M anipulation  |                                                 |
\*---------------------------------------------------------------------------*/
FoamFile
{
    version     2.0;
    format      ascii;
    arch        "LSB;label=32;scalar=64";
    class       volScalarField;
    location    "0.1";
    object      omega;
}
// * * * * * * * * * * * * * * * * * * * * * * * * * * * * * * * * * * * * * //

dimensions      [0 0 -1 0 0 0 0];

internalField   nonuniform List<scalar> 
12225
(
52304.8
72146.2
78123.7
78987.6
78102.2
76676.9
75148.3
73614.8
72121.9
70700.6
69367.3
68126.6
66972.9
65883.3
64827.6
63847.7
62743.7
61356.4
4125.72
8502.7
12131.8
15016.2
17301
19168
20806
22348.3
23840.4
25289.1
26689.3
28028.4
29281
30424.9
31424.8
32240.8
32856.8
33105.1
226.702
830.742
1643.36
2392.28
3171.85
3940.18
4695.25
5458.33
6237.65
7039.56
7873.86
8753.65
9689.47
10690.8
11756.6
12880.1
14050
15247.4
73.8865
139
221.39
334.072
497.462
745.722
1026.34
1227.52
1443.91
1676.07
1924.51
2191.99
2486.55
2820.58
3206.16
3657.08
4184.65
4806.01
47.0992
71.2025
95.0127
119.32
146.393
180.954
221.785
268.598
322.476
385.199
468.708
573.417
699.24
800.15
889.836
995.251
1121.62
1275.18
36.6513
49.7271
62.1488
74.1769
86.0822
98.5345
111.369
124.51
138.05
152.336
169.856
189.724
211.514
235.344
261.705
294.581
335.25
382.163
31.9288
40.1891
47.7873
55.1189
62.2395
69.305
76.3041
83.2135
90.0357
96.8301
103.95
111.375
119.01
126.826
134.893
144.354
155.262
166.705
30.2212
35.339
40.5585
45.4402
50.1352
54.7327
59.2171
63.5976
67.8742
72.0627
76.2358
80.4178
84.6023
88.781
92.9662
97.3091
101.872
106.483
30.1053
33.0034
36.5518
40.082
43.4575
46.6651
49.7466
52.7652
55.7008
58.557
61.3537
64.1049
66.8174
69.4943
72.1431
74.7913
77.452
80.0442
30.7903
32.3354
34.4863
36.9541
39.4654
41.8919
44.2111
46.4186
48.5471
50.6113
52.6234
54.5914
56.5223
58.4243
60.3066
62.1779
64.0334
65.8004
31.8909
32.6734
33.8697
35.3852
37.0957
38.896
40.6955
42.4099
44.0547
45.6406
47.1759
48.6667
50.1166
51.5291
52.907
54.252
55.5598
56.7872
29.5917
29.9541
30.5485
31.353
32.3254
33.4213
34.5911
35.7745
36.9378
38.0662
39.1556
40.2064
41.2181
42.1882
43.1133
43.9912
44.8201
45.5817
33.6811
33.863
34.192
34.6701
35.2847
36.018
36.8464
37.7359
38.6508
39.564
40.4593
41.3278
42.164
42.9621
43.7168
44.425
45.0845
45.6825
38.3765
38.4248
38.5645
38.7892
39.1058
39.5106
39.995
40.5444
41.1395
41.7606
42.3906
43.0169
43.6298
44.2215
44.7862
45.3199
44.7852
44.0166
43.7579
43.7114
43.7216
43.777
43.8834
44.0433
44.2554
44.5145
44.8134
45.1429
45.4934
44.9952
44.1392
43.2945
42.4565
41.6222
40.7892
39.951
49.9151
49.8054
49.7282
49.6792
49.6554
49.6605
48.9517
47.6993
46.5032
45.3576
44.2568
43.1954
42.1683
41.1712
40.2006
39.2536
38.3277
37.4183
56.9506
56.1663
54.5323
52.9637
51.455
50.0042
48.6091
47.2671
45.9753
44.7307
43.5303
42.3713
41.251
40.1668
39.1165
38.098
37.1093
36.1477
57.8668
56.158
54.5122
52.9274
51.4007
49.9289
48.5098
47.141
45.82
44.5448
43.3131
42.1228
40.972
39.8586
38.781
37.7375
36.7265
35.7463
57.8682
56.1643
54.5275
52.9563
51.4463
49.9929
48.5941
47.2475
45.9508
44.7014
43.4972
42.3357
41.2147
40.1319
39.0854
38.073
37.0927
36.1422
57.8795
56.213
54.6404
53.1564
51.7454
50.4013
49.1226
47.9062
46.7479
45.6432
44.5872
43.5748
42.6011
41.6607
40.7493
39.8635
38.9998
38.1541
54.9731
54.985
55.0025
53.7553
52.6017
51.5401
50.5649
49.6634
48.8226
48.0296
47.2727
46.5417
45.8251
45.1074
44.3869
43.6628
42.9341
42.1969
50.2507
50.6045
51.2126
52.0019
52.9272
53.982
54.1393
53.8465
53.5507
53.234
52.8859
52.4997
52.0697
51.5921
51.0747
50.5205
49.9307
49.3005
46.1894
47.3475
48.9378
50.7924
52.8258
54.9617
57.1291
59.2595
61.3325
62.8611
63.0397
63.0963
63.0465
62.9173
62.7121
62.4342
62.0854
61.6579
43.1285
46.023
49.451
53.1248
56.8829
60.6042
64.211
67.7125
71.0969
74.3642
77.5334
80.6202
83.6323
84.5369
85.0046
85.3262
85.5091
85.5431
42.0514
48.3913
55.1619
62.0114
68.7603
75.3274
81.673
87.7892
93.6822
99.3932
105.062
110.732
116.385
122.005
127.583
133.114
136.811
138.334
45.491
58.7639
72.4925
86.1315
99.4849
112.532
125.295
137.82
150.184
162.691
176.685
191.916
207.864
224.405
241.548
259.33
277.783
296.885
60.8956
91.9204
126.428
163.476
203.401
247.084
295.322
348.825
408.332
475.847
562.074
647.873
703.013
761.649
823.182
887.254
953.631
1022.05
131.711
272.731
514.704
855.557
1096.81
1354.85
1622.42
1896.07
2175.55
2461.5
2751.82
3045.72
3344.43
3647.01
3952.29
4259.51
4568.54
4879.91
1910.58
3958.98
5885.77
7569.18
9007.92
10230.3
11280.2
12206.2
13054
13853.8
14619
15355.2
16064.8
16748.7
17407.6
18042.4
18654.8
19244.3
34898.1
51342.1
58076.5
60444.4
60979.8
60766.9
60251.9
59620
58945.5
58251.4
57548.7
56844.9
56146.9
55462
54797.1
54158.8
53549.3
52973.5
41.6009
42.5776
44.7544
47.993
52.4106
58.0881
65.1425
73.5514
82.9217
92.8321
103.461
115.526
129.639
146.035
164.67
185.368
207.941
232.232
258.128
285.558
314.477
344.885
376.812
410.302
445.369
482.025
520.329
560.441
602.82
648.132
696.929
749.663
806.668
868.051
933.23
1001.88
1074.04
1149.68
1228.81
1311.43
1397.55
1487.17
1580.27
1676.81
1776.65
1879.29
1984.16
2090.87
2198.95
2308.19
2418.57
2529.96
2642.21
2755.19
2868.8
2982.99
3097.84
3213.59
3315.5
3398.9
3481.67
3563.43
3644.02
3723.37
3801.41
3878.13
3953.5
4027.52
4100.22
4171.62
4241.73
4310.57
4378.14
4444.44
4509.44
4573.14
4635.52
4696.61
4756.49
4815.16
4872.61
4928.81
4983.77
5037.48
5089.98
5141.3
5191.48
5240.6
5288.73
5336.05
5382.89
5429.81
5476.47
5522.12
5566.66
5610.04
5652.27
5693.37
5733.38
5772.4
5810.51
5847.78
5884.24
5919.91
5954.79
5988.87
6022.18
6054.8
6086.83
6118.36
6149.51
6180.36
6210.98
6241.45
6271.84
6302.23
6332.77
6363.71
6395.55
6429.37
6456.08
6428.15
6399.23
6368.79
6336.42
6301.61
6264.69
6226.16
6185.9
6143.75
6099.72
6053.91
6006.04
5955.19
5900.69
5842.67
5781.16
5715.25
5643.95
5566.06
5479.66
5382.38
5272.14
5147.31
5006.73
4848.18
4669.42
4468.41
4243.36
3993.39
3718.03
3419.84
3104.33
2779.53
2457
2151.27
1879.37
1659.09
1509.36
1446.45
1477.83
1620.18
1858.21
2202.15
2653.06
3193.72
3809.8
4486.54
5207.43
5955.36
6713.5
7466.39
8199.95
8900.09
9552.76
10143.9
10664.6
11099.1
11425.7
11526.6
44.5458
44.3243
45.5383
47.69
50.7296
54.5824
59.2078
64.6415
70.9781
78.3486
86.9147
96.854
108.313
121.36
135.971
152.058
169.501
188.183
208.005
228.898
250.825
273.753
297.673
322.581
348.491
375.443
403.403
432.422
462.743
494.839
529.303
566.213
605.473
646.787
689.797
734.221
779.876
826.609
874.301
922.836
972.095
1021.96
1072.29
1122.98
1173.91
1225
1276.23
1327.73
1379.68
1432.1
1484.49
1536.32
1587.39
1637.75
1687.36
1736.06
1783.63
1829.82
1874.33
1917.34
1959.6
2001.05
2041.58
2081.29
2120.3
2158.7
2196.48
2233.63
2270.08
2305.58
2340.02
2373.26
2405.26
2436.05
2465.72
2494.58
2523
2550.93
2577.75
2603.23
2627.61
2651
2673.55
2695.43
2716.56
2736.84
2756.3
2774.93
2792.96
2810.82
2828.78
2838.2
2838.82
2838.67
2837.74
2836.2
2834.24
2832.08
2829.83
2827.25
2823.94
2819.67
2814.39
2808.13
2800.97
2793.35
2785.54
2777.51
2769.04
2759.82
2749.56
2738.04
2725.06
2710.45
2694.22
2676.33
2656.78
2636.09
2614.69
2592.19
2567.56
2539.74
2510.17
2478.6
2444.87
2408.87
2370.69
2331.06
2290.61
2249.44
2207.47
2164.48
2120.31
2074.94
2028.36
1980.63
1931.88
1882.2
1831.9
1781.49
1731.51
1682.16
1633.41
1585.14
1537.3
1489.75
1442.47
1395.53
1349.13
1303.54
1258.93
1215.93
1175.44
1138.57
1106.57
1080.94
1063.48
1055.96
1060.65
1080.62
1120.81
1179.78
1250.41
1329.14
1415.56
1512.3
1620.45
1740.97
1874.8
2022.87
2186.05
2366.25
2569.04
2796.26
3036.7
3275.9
3509.09
3740.93
4001.97
4319.45
51.8041
48.2222
47.8548
48.941
51.1031
54.115
57.8351
62.2392
67.4321
73.61
80.9793
89.6746
99.7414
111.161
123.869
137.778
152.781
168.77
185.653
203.357
221.84
241.077
261.078
281.886
303.557
326
349.217
373.299
398.41
424.819
452.813
482.171
512.618
543.848
575.564
607.529
639.568
671.538
703.322
734.81
765.898
796.484
826.474
855.787
884.362
912.152
939.149
965.292
990.522
1014.78
1038.01
1060.19
1081.4
1101.79
1121.52
1140.63
1159.07
1176.92
1194.25
1211.27
1227.89
1244.17
1260.15
1275.83
1291.14
1306.02
1320.49
1334.41
1347.75
1360.51
1372.74
1384.5
1395.87
1406.95
1417.8
1428.48
1439.01
1449.32
1459.39
1469.23
1478.75
1487.95
1496.84
1505.42
1513.67
1521.56
1528.99
1535.97
1542.47
1548.46
1553.85
1553.87
1549.03
1543.91
1538.52
1532.88
1527.02
1520.99
1514.81
1508.44
1501.77
1494.7
1487.18
1479.14
1470.55
1461.56
1452.22
1442.56
1432.53
1422.03
1410.99
1399.39
1387.28
1374.76
1361.75
1348.19
1334.04
1319.31
1303.96
1287.9
1271.05
1253.45
1235.36
1216.99
1198.39
1179.55
1160.49
1141.21
1121.74
1102.05
1082.13
1062.19
1042.51
1023.33
1004.68
986.609
969.161
952.389
936.399
921.295
907.197
894.188
882.397
872.083
863.571
857.052
852.513
849.855
848.965
849.724
851.962
855.59
860.632
867.194
875.479
885.832
898.628
914.03
931.873
952.026
973.008
994.271
1015.41
1035.21
1054.18
1072.92
1091.84
1111.57
1133
1157.21
1185.53
1219.65
1262.19
1316.8
1394.25
1504.02
1638.98
1788.59
1954.24
2151.94
62.4062
53.2391
50.5888
50.3413
51.6147
53.9654
57.152
61.0952
65.8585
71.6007
78.4882
86.6128
95.982
106.552
118.245
130.968
144.618
159.096
174.314
190.205
206.728
223.868
241.637
260
278.954
298.553
318.786
339.674
361.306
383.901
407.321
431.312
455.601
479.923
504.054
527.804
551.027
573.594
595.398
616.34
636.339
655.327
673.259
690.12
705.924
720.704
734.518
747.423
759.483
770.758
781.32
791.239
800.585
809.419
817.783
825.708
833.216
840.341
847.125
853.594
859.743
865.606
871.202
876.557
881.678
886.591
891.297
895.804
900.149
904.363
908.485
912.564
916.624
920.685
924.757
928.851
932.963
937.079
941.204
945.288
949.316
953.267
957.123
960.856
964.445
967.835
970.985
973.87
976.467
978.755
980.684
979.415
975.232
970.975
966.64
962.214
957.688
953.054
948.299
943.413
938.376
933.164
927.757
922.162
916.414
910.523
904.518
898.417
892.2
885.846
879.347
872.703
865.915
858.993
851.929
844.761
837.533
830.27
823.009
815.806
808.71
801.808
795.141
788.672
782.37
776.246
770.328
764.66
759.302
754.29
749.561
745.029
740.651
736.459
732.527
728.956
725.918
723.551
721.888
720.914
720.583
720.858
721.756
723.353
725.775
729.132
733.532
739.128
746.056
754.3
763.683
773.998
785.064
796.774
809.057
822.066
835.82
850.178
864.728
877.779
889.84
900.672
909.526
916.273
921.23
924.297
925.336
924.492
922.17
918.957
915.546
912.749
911.554
913.22
920.24
935.612
961.544
1006.41
1082.28
1199.64
76.9137
59.4004
53.7371
51.9039
52.2456
53.9998
56.7835
60.4526
65.036
70.6682
77.4611
85.3785
94.3889
104.5
115.624
127.661
140.502
154.043
168.194
182.889
198.078
213.722
229.812
246.411
263.584
281.269
299.314
317.703
336.518
355.892
375.777
395.718
415.445
434.749
453.461
471.435
488.555
504.719
519.846
533.88
546.791
558.587
569.304
579.008
587.785
595.727
602.926
609.469
615.425
620.836
625.755
630.217
634.258
637.91
641.2
644.16
646.826
649.233
651.417
653.417
655.266
656.995
658.628
660.201
661.736
663.26
664.787
666.334
667.924
669.57
671.291
673.115
675.037
677.064
679.194
681.433
683.78
686.231
688.778
691.402
694.093
696.833
699.599
702.368
705.113
707.805
710.424
712.955
715.391
717.728
719.997
720.1
718.16
716.248
714.362
712.496
710.635
708.769
706.891
704.989
703.058
701.083
699.097
697.094
695.075
693.049
691.032
689.036
687.057
685.089
683.122
681.165
679.24
677.352
675.529
673.777
672.105
670.518
669.023
667.628
666.342
665.171
664.114
663.154
662.284
661.51
660.845
660.305
659.905
659.672
659.607
659.724
660.037
660.553
661.279
662.235
663.441
664.93
666.714
668.813
671.31
674.331
677.896
682.003
686.652
691.848
697.619
704.048
711.203
719.134
727.822
737.295
747.547
758.514
769.822
781.542
793.695
805.081
815.392
823.953
830.627
835.31
837.783
838.171
836.758
833.517
828.388
821.498
813.165
803.812
793.929
784.022
774.497
765.781
758.375
752.948
750.482
753.522
765.84
796.582
95.3905
66.6469
57.2353
53.5771
52.9408
54.1375
56.6108
60.1584
64.8144
70.7593
77.9581
85.8241
94.3165
103.878
114.507
126.023
138.249
151.066
164.382
178.123
192.239
206.72
221.617
236.977
252.714
268.736
284.945
301.289
317.806
334.659
351.642
368.292
384.437
399.923
414.616
428.395
441.165
452.856
463.435
472.905
481.306
488.71
495.205
500.894
505.884
510.267
514.115
517.492
520.442
522.983
525.158
526.995
528.53
529.799
530.839
531.693
532.405
533.016
533.571
534.105
534.648
535.234
535.881
536.614
537.45
538.397
539.46
540.642
541.949
543.383
544.963
546.686
548.547
550.55
552.693
554.983
557.421
560.008
562.74
565.61
568.61
571.724
574.935
578.223
581.562
584.933
588.318
591.713
595.11
598.55
602.036
603.787
603.885
604.033
604.23
604.47
604.744
605.039
605.347
605.652
605.964
606.28
606.608
606.948
607.302
607.672
608.064
608.477
608.923
609.409
609.948
610.531
611.153
611.81
612.502
613.236
614.02
614.859
615.756
616.706
617.705
618.745
619.817
620.913
622.028
623.163
624.324
625.521
626.749
628.021
629.341
630.732
632.21
633.785
635.473
637.298
639.272
641.404
643.707
646.201
648.944
652.022
655.51
659.475
664.004
669.146
674.871
681.184
688.084
695.581
703.628
712.048
720.967
730.579
740.196
749.509
758.299
766.025
772.096
776.004
777.497
776.54
773.119
767.424
759.817
750.547
739.798
727.836
715.044
701.853
688.697
675.985
664.01
653.063
643.464
635.585
629.85
626.987
627.881
635.233
118.288
75.1609
61.2055
55.4677
53.8146
54.4841
56.7097
60.216
65.0126
71.2336
78.7304
86.8122
95.2636
104.311
114.206
125.112
136.767
148.956
161.574
174.54
187.81
201.398
215.35
229.612
244.11
258.725
273.34
287.907
302.536
317.245
331.724
345.718
359.066
371.632
383.299
393.97
403.591
412.138
419.638
426.144
431.742
436.531
440.62
444.11
447.088
449.622
451.761
453.55
455.012
456.178
457.09
457.787
458.316
458.721
459.044
459.33
459.62
459.951
460.356
460.863
461.49
462.258
463.173
464.25
465.49
466.89
468.438
470.14
471.982
473.981
476.128
478.41
480.826
483.38
486.07
488.906
491.896
495.041
498.345
501.805
505.416
509.165
513.037
517.01
521.06
525.168
529.316
533.509
537.752
542.06
546.441
549.261
550.582
551.934
553.312
554.708
556.114
557.517
558.915
560.305
561.685
563.057
564.421
565.782
567.143
568.515
569.911
571.336
572.785
574.255
575.746
577.256
578.784
580.326
581.886
583.467
585.072
586.701
588.358
590.041
591.747
593.47
595.203
596.941
598.685
600.43
602.18
603.942
605.721
607.519
609.345
611.205
613.107
615.068
617.11
619.259
621.547
623.995
626.627
629.471
632.567
635.954
639.702
643.883
648.602
653.929
659.863
666.303
673.345
681.021
689.466
697.844
706.152
714.194
721.594
728.051
733.285
736.918
738.549
737.762
734.314
728.144
719.26
707.853
694.33
679.147
662.777
645.693
628.361
611.238
594.727
579.158
564.828
552.038
541.034
532.042
525.316
521.267
520.259
523.431
145.994
85.1168
65.7976
57.7037
54.9704
55.1354
57.1535
60.6492
65.5691
71.9481
79.5434
87.68
96.0842
104.969
114.452
124.64
135.617
147.227
159.229
171.525
184.078
196.906
210.02
223.311
236.679
250.013
263.223
276.319
289.323
302.135
314.577
326.442
337.578
347.873
357.239
365.618
372.996
379.398
384.885
389.539
393.463
396.764
399.535
401.858
403.797
405.402
406.714
407.771
408.594
409.234
409.739
410.156
410.534
410.921
411.351
411.858
412.472
413.223
414.12
415.178
416.404
417.807
419.385
421.135
423.053
425.132
427.34
429.699
432.196
434.815
437.55
440.397
443.355
446.428
449.617
452.933
456.389
459.986
463.732
467.625
471.665
475.834
480.118
484.496
488.947
493.45
497.999
502.595
507.241
511.955
516.732
520.028
521.89
523.756
525.617
527.462
529.287
531.086
532.855
534.592
536.298
537.97
539.616
541.258
542.916
544.59
546.28
547.986
549.71
551.451
553.204
554.969
556.743
558.529
560.319
562.12
563.935
565.765
567.611
569.475
571.353
573.247
575.148
577.055
578.971
580.902
582.851
584.825
586.833
588.881
590.981
593.139
595.363
597.665
600.061
602.591
605.296
608.206
611.359
614.796
618.569
622.659
627.1
631.983
637.393
643.426
650.283
657.4
664.953
672.935
681.174
689.282
696.884
703.598
709.039
712.873
714.836
714.66
712.055
706.699
698.391
687.087
672.89
656.128
637.318
617.08
596.064
574.875
554.07
534.127
515.378
498.054
482.35
468.427
456.403
446.377
438.473
432.93
429.923
430.008
178.874
96.7333
71.1678
60.4156
56.5054
56.1606
57.9941
61.481
66.4723
72.8827
80.4064
88.4507
96.7129
105.375
114.555
124.321
134.7
145.649
157.044
168.725
180.637
192.78
205.102
217.47
229.795
241.993
254.011
265.831
277.4
288.641
299.419
309.557
318.947
327.5
335.16
341.901
347.743
352.735
356.955
360.5
363.469
365.955
368.032
369.769
371.221
372.43
373.436
374.278
374.986
375.614
376.213
376.828
377.504
378.282
379.183
380.225
381.426
382.795
384.33
386.035
387.906
389.947
392.16
394.525
397.034
399.698
402.491
405.397
408.407
411.509
414.698
417.968
421.319
424.757
428.282
431.911
435.653
439.512
443.497
447.609
451.846
456.191
460.628
465.139
469.705
474.317
478.967
483.656
488.391
493.185
498.032
501.442
503.459
505.456
507.427
509.36
511.25
513.09
514.879
516.61
518.299
519.975
521.655
523.34
525.036
526.75
528.48
530.23
531.998
533.784
535.584
537.397
539.222
541.059
542.907
544.763
546.632
548.513
550.409
552.315
554.236
556.171
558.12
560.084
562.07
564.086
566.145
568.252
570.42
572.663
574.998
577.442
580.019
582.737
585.574
588.588
591.83
595.333
599.149
603.333
608.022
613.172
618.587
624.477
630.89
637.85
645.334
653.256
661.544
669.981
678.219
685.891
692.582
697.905
701.474
702.906
701.827
697.906
690.862
680.496
666.773
649.872
630.154
608.169
584.607
560.204
535.716
511.742
488.82
467.417
447.779
430.029
414.259
400.483
388.672
378.802
370.869
364.95
361.084
359.491
217.344
110.291
77.4858
63.722
58.5054
57.6091
59.2539
62.7192
67.723
74.0615
81.3859
89.2057
97.2498
105.641
114.495
123.862
133.751
144.136
154.921
166.002
177.306
188.77
200.302
211.81
223.203
234.413
245.385
256.069
266.419
276.36
285.771
294.544
302.593
309.855
316.296
321.913
326.742
330.845
334.315
337.241
339.705
341.79
343.567
345.093
346.417
347.58
348.616
349.565
350.46
351.352
352.289
353.309
354.45
355.741
357.199
358.822
360.609
362.555
364.648
366.89
369.273
371.786
374.456
377.268
380.209
383.273
386.449
389.724
393.09
396.533
400.047
403.625
407.264
410.967
414.734
418.579
422.509
426.529
430.646
434.861
439.17
443.56
448.017
452.525
457.071
461.648
466.256
470.897
475.573
480.295
485.063
488.424
490.427
492.404
494.34
496.226
498.053
499.811
501.512
503.196
504.875
506.554
508.24
509.938
511.652
513.385
515.136
516.905
518.691
520.494
522.313
524.149
526.004
527.876
529.765
531.668
533.584
535.513
537.455
539.411
541.384
543.383
545.409
547.454
549.53
551.657
553.845
556.109
558.464
560.926
563.517
566.268
569.218
572.462
575.826
579.418
583.304
587.524
592.121
597.144
602.639
608.602
615.047
622.016
629.527
637.564
646.078
654.945
663.9
672.609
680.688
687.756
693.395
697.159
698.57
697.155
692.49
684.243
672.216
656.386
636.95
614.372
589.296
562.545
534.998
507.428
480.689
455.27
431.623
410.16
391.03
374.215
359.607
347.052
336.407
327.561
320.415
314.926
311.048
308.837
261.98
126.152
84.9317
67.7171
61.0309
59.5254
60.9521
64.3606
69.3183
75.5098
82.5566
90.0574
97.8066
105.872
114.364
123.327
132.749
142.601
152.816
163.31
173.99
184.769
195.559
206.271
216.826
227.153
237.194
246.902
256.228
265.1
273.442
281.178
288.245
294.595
300.208
305.096
309.305
312.91
315.997
318.636
320.907
322.886
324.635
326.204
327.634
328.962
330.219
331.431
332.646
333.908
335.261
336.737
338.363
340.157
342.121
344.249
346.525
348.934
351.452
354.08
356.824
359.681
362.653
365.742
368.945
372.259
375.675
379.186
382.785
386.462
390.21
394.022
397.894
401.826
405.814
409.867
413.986
418.173
422.431
426.755
431.142
435.578
440.051
444.548
449.063
453.597
458.151
462.725
467.327
471.97
476.653
479.951
481.919
483.861
485.757
487.594
489.371
491.124
492.871
494.614
496.359
498.115
499.883
501.668
503.469
505.284
507.113
508.956
510.809
512.671
514.543
516.432
518.341
520.273
522.227
524.2
526.191
528.199
530.223
532.265
534.33
536.432
538.603
540.81
543.036
545.327
547.704
550.183
552.781
555.52
558.426
561.527
564.858
568.45
572.306
576.478
581.016
585.964
591.363
597.253
603.666
610.62
618.129
626.2
634.819
643.936
653.415
662.979
672.274
680.923
688.53
694.645
698.76
700.327
698.79
693.648
684.51
671.146
653.529
631.887
606.705
578.751
548.939
518.294
487.893
458.378
430.759
405.538
382.902
362.852
345.296
330.086
317.039
305.973
296.696
289.03
282.818
277.945
274.316
271.928
313.78
144.76
93.6666
72.4608
64.1085
61.9253
63.1024
66.4146
71.267
77.25
83.9735
91.1032
98.4871
106.17
114.252
122.783
131.743
141.083
150.747
160.661
170.735
180.871
190.962
200.928
210.718
220.262
229.504
238.395
246.889
254.939
262.49
269.487
275.88
281.633
286.738
291.212
295.109
298.507
301.483
304.091
306.405
308.492
310.404
312.183
313.863
315.472
317.036
318.576
320.15
321.801
323.571
325.49
327.575
329.831
332.247
334.794
337.452
340.213
343.059
345.982
348.981
352.066
355.242
358.52
361.899
365.382
368.967
372.651
376.429
380.298
384.25
388.279
392.381
396.554
400.793
405.101
409.475
413.909
418.401
422.939
427.512
432.102
436.698
441.292
445.886
450.486
455.086
459.699
464.335
469.007
473.714
477.038
479.049
481.04
482.993
484.92
486.833
488.732
490.625
492.521
494.427
496.348
498.285
500.236
502.195
504.159
506.124
508.092
510.073
512.045
514.006
515.975
517.959
519.965
521.995
524.046
526.12
528.215
530.331
532.473
534.645
536.86
539.13
541.455
543.846
546.322
548.905
551.614
554.473
557.507
560.745
564.219
567.966
572.017
576.409
581.183
586.386
592.065
598.268
605.031
612.378
620.32
628.853
637.957
647.571
657.551
667.62
677.426
686.588
694.683
701.223
705.654
707.365
705.734
700.184
690.262
675.691
656.432
632.716
605.099
574.393
541.682
508.129
474.836
443.11
413.702
386.988
363.138
342.156
323.928
308.262
294.931
283.684
274.268
266.448
260.001
254.75
250.554
247.3
244.952
374.36
166.553
103.826
78.0036
67.7689
64.8348
65.7274
68.9034
73.5979
79.323
85.6907
92.4204
99.3976
106.66
114.297
122.365
130.854
139.702
148.841
158.199
167.694
177.23
186.708
196.036
205.145
214.006
222.589
230.841
238.721
246.191
253.21
259.735
265.726
271.156
276.024
280.355
284.202
287.636
290.725
293.521
296.081
298.457
300.69
302.813
304.851
306.82
308.732
310.633
312.585
314.633
316.813
319.155
321.67
324.353
327.185
330.128
333.153
336.235
339.358
342.523
345.737
349.013
352.363
355.803
359.339
362.978
366.726
370.586
374.561
378.651
382.851
387.154
391.557
396.057
400.649
405.33
410.093
414.926
419.817
424.747
429.697
434.644
439.576
444.488
449.383
454.251
459.105
463.966
468.856
473.793
478.749
482.296
484.53
486.758
488.964
491.139
493.285
495.408
497.519
499.627
501.737
503.854
505.976
508.1
510.219
512.327
514.418
516.491
518.547
520.583
522.608
524.631
526.66
528.703
530.763
532.843
534.943
537.066
539.217
541.401
543.627
545.905
548.251
550.673
553.189
555.815
558.575
561.492
564.592
567.906
571.47
575.318
579.493
584.038
588.99
594.395
600.288
606.71
613.697
621.28
629.472
638.281
647.676
657.588
667.858
678.218
688.324
697.792
706.173
712.942
717.497
719.175
717.29
711.202
700.394
684.543
663.597
637.798
607.74
574.342
538.803
502.432
466.818
433.024
401.764
373.494
348.422
326.555
307.749
291.777
278.345
267.138
257.844
250.163
243.826
238.614
234.343
230.868
228.074
225.907
445.791
192.094
115.599
84.4319
72.0752
68.3116
68.8813
71.8809
76.3736
81.8082
87.8063
94.1302
100.696
107.538
114.734
122.338
130.348
138.713
147.373
156.24
165.223
174.226
183.17
191.984
200.606
208.981
217.082
224.898
232.394
239.532
246.275
252.592
258.453
263.838
268.749
273.208
277.267
280.984
284.417
287.625
290.644
293.512
296.248
298.875
301.397
303.817
306.16
308.505
310.911
313.422
316.076
318.89
321.872
325.015
328.29
331.656
335.075
338.514
341.954
345.393
348.839
352.322
355.87
359.51
363.261
367.13
371.112
375.235
379.516
383.957
388.553
393.297
398.185
403.216
408.377
413.661
419.053
424.533
430.082
435.669
441.268
446.855
452.418
457.941
463.403
468.821
474.212
479.593
484.993
490.439
495.961
500.035
502.682
505.262
507.769
510.207
512.579
514.897
517.178
519.43
521.661
523.872
526.062
528.227
530.365
532.475
534.549
536.589
538.594
540.573
542.531
544.478
546.423
548.373
550.333
552.308
554.305
556.332
558.396
560.507
562.678
564.924
567.26
569.7
572.262
574.968
577.842
580.91
584.202
587.754
591.603
595.794
600.367
605.369
610.843
616.829
623.364
630.475
638.181
646.491
655.403
664.894
674.884
685.202
695.59
705.716
715.19
723.541
730.209
734.539
735.819
733.314
726.331
714.301
696.871
673.964
645.868
613.192
577.027
538.595
499.707
461.745
425.805
392.711
362.983
336.835
314.259
295.073
278.986
265.655
254.714
245.791
238.54
232.653
227.85
223.909
220.647
217.931
215.648
213.743
531.155
222.066
129.219
91.8696
77.1314
72.4586
72.6691
75.4616
79.7295
84.8698
90.5193
96.4779
102.682
109.164
115.982
123.187
130.791
138.747
146.996
155.473
164.084
172.717
181.299
189.778
198.12
206.29
214.251
221.953
229.369
236.493
243.275
249.699
255.747
261.403
266.672
271.577
276.167
280.494
284.618
288.563
292.336
295.956
299.437
302.786
306.001
309.09
312.109
315.133
318.217
321.412
324.77
328.274
331.905
335.662
339.51
343.406
347.307
351.185
355.026
358.838
362.637
366.459
370.333
374.307
378.418
382.684
387.126
391.765
396.628
401.734
407.055
412.581
418.308
424.232
430.325
436.567
442.93
449.383
455.898
462.437
468.974
475.484
481.921
488.276
494.558
500.783
506.976
513.149
519.372
525.653
531.87
536.383
539.305
542.097
544.753
547.274
549.651
551.906
554.075
556.179
558.228
560.226
562.17
564.057
565.886
567.656
569.37
571.032
572.654
574.244
575.815
577.377
578.939
580.509
582.097
583.711
585.362
587.063
588.824
590.66
592.584
594.616
596.769
599.065
601.524
604.169
607.026
610.125
613.498
617.182
621.223
625.663
630.548
635.923
641.833
648.313
655.395
663.096
671.416
680.335
689.818
699.773
710.032
720.317
730.284
739.519
747.526
753.718
757.4
757.813
754.179
745.762
731.973
712.443
687.127
656.294
620.74
581.476
540.253
498.689
458.229
420.11
385.234
354.153
327.076
303.95
284.548
268.54
255.532
245.106
236.843
230.35
225.254
221.232
218.013
215.373
213.136
211.175
209.393
207.753
639.751
258.943
145.655
100.861
83.3618
77.6748
77.4963
80.0718
84.1281
89.026
94.4186
100.134
106.123
112.406
119.028
126.028
133.427
141.197
149.274
157.604
166.104
174.678
183.258
191.8
200.274
208.653
216.922
225.04
232.898
240.453
247.716
254.709
261.418
267.837
273.967
279.818
285.431
290.846
296.091
301.145
306.018
310.732
315.309
319.784
324.059
328.2
332.314
336.446
340.642
344.942
349.38
353.945
358.613
363.348
368.078
372.765
377.39
381.944
386.436
390.895
395.355
399.87
404.498
409.282
414.267
419.48
424.932
430.628
436.6
442.882
449.417
456.18
463.185
470.417
477.812
485.322
492.907
500.528
508.16
515.754
523.249
530.608
537.841
544.963
552.005
558.983
566.019
573.027
579.829
586.373
592.667
598.756
604.671
610.421
616.028
621.5
624.306
625.81
627.209
628.515
629.74
630.89
631.965
632.966
633.89
634.74
635.522
636.245
636.924
637.575
638.214
638.856
639.516
640.211
640.954
641.751
642.616
643.563
644.609
645.771
647.068
648.515
650.137
651.956
653.994
656.278
658.834
661.691
664.885
668.455
672.446
676.904
681.875
687.402
693.526
700.28
707.68
715.73
724.405
733.652
743.353
753.308
763.232
772.753
781.413
788.667
793.859
796.246
795.039
789.414
778.602
761.984
739.232
710.314
675.685
636.087
593.008
548.117
503.089
459.525
418.791
381.818
349.14
320.938
297.123
277.427
261.464
248.793
238.949
231.462
225.867
221.739
218.698
216.411
214.607
213.071
211.645
210.222
208.73
207.162
765.046
298.356
162.714
110.292
90.1527
83.5989
83.1827
85.7322
89.833
94.8174
100.336
106.191
112.428
119.055
126.107
133.558
141.391
149.622
158.285
167.432
176.866
186.348
195.812
205.238
214.617
223.942
233.217
242.404
251.452
260.359
269.085
277.635
286.032
294.272
302.323
310.162
317.813
325.31
332.592
339.563
346.312
352.868
359.242
365.438
371.443
377.336
383.197
389.046
394.93
400.887
406.938
413.061
419.195
425.228
431.097
436.806
442.352
447.751
453.047
458.304
463.598
469.014
474.65
480.566
486.79
493.327
500.161
507.255
514.581
522.06
529.69
537.472
545.422
553.48
561.564
569.616
577.596
585.488
593.29
600.915
608.347
615.607
622.731
629.758
636.868
643.922
650.713
655.48
658.005
660.193
662.042
663.564
664.789
665.761
666.521
667.113
667.604
668.022
668.378
668.673
668.905
669.068
669.168
669.208
669.195
669.137
669.043
668.921
668.787
668.658
668.548
668.473
668.447
668.486
668.606
668.819
669.141
669.586
670.174
670.926
671.866
673.019
674.408
676.056
677.986
680.221
682.789
685.72
689.046
692.811
697.054
701.812
707.123
713.021
719.53
726.664
734.417
742.754
751.598
760.831
770.252
779.576
788.425
796.308
802.633
806.713
807.775
804.981
797.5
784.569
765.619
740.348
708.872
671.618
629.684
584.512
537.771
491.244
446.587
405.15
367.861
335.229
307.402
284.237
265.431
250.575
239.193
230.781
224.824
220.817
218.29
216.815
216.019
215.598
215.311
214.979
214.475
213.722
212.673
211.346
907.648
339.691
180.116
120.2
97.7832
90.7424
90.5312
93.6243
98.5389
104.683
111.835
117.897
125.493
133.869
143.096
152.814
162.927
173.595
184.82
196.595
208.552
220.532
232.59
244.73
256.934
269.174
281.409
293.664
306.133
318.672
331.101
343.47
355.795
368.123
380.268
392.082
403.619
414.855
425.739
436.215
446.278
455.925
465.145
473.947
482.37
490.478
498.271
505.87
513.351
520.752
528.072
535.255
542.214
548.866
555.221
561.238
566.904
572.254
577.358
582.31
587.213
592.182
597.34
602.82
608.617
614.692
621.002
627.438
633.982
640.546
647.216
654.027
660.917
667.846
674.777
681.689
688.54
694.626
697.432
699.952
702.212
704.463
706.752
708.96
710.852
712.482
713.865
715.02
715.946
716.624
717.042
717.207
717.134
716.852
716.4
715.817