/*--------------------------------*- C++ -*----------------------------------*\
| =========                 |                                                 |
| \\      /  F ield         | OpenFOAM: The Open Source CFD Toolbox           |
|  \\    /   O peration     | Version:  2112                                  |
|   \\  /    A nd           | Website:  www.openfoam.com                      |
|    \\/     M anipulation  |                                                 |
\*---------------------------------------------------------------------------*/
FoamFile
{
    version     2.0;
    format      ascii;
    arch        "LSB;label=32;scalar=64";
    class       volVectorField;
    location    "0.1";
    object      U;
}
// * * * * * * * * * * * * * * * * * * * * * * * * * * * * * * * * * * * * * //

dimensions      [0 1 -1 0 0 0 0];

internalField   nonuniform List<vector> 
12225
(
(9.75727 0.0598295 0)
(9.27811 0.0947188 0)
(8.79691 0.0990051 0)
(8.33633 0.0976394 0)
(7.92319 0.0932393 0)
(7.56892 0.0862374 0)
(7.27821 0.0794693 0)
(7.03055 0.0743129 0)
(6.82826 0.0689535 0)
(6.67489 0.0617746 0)
(6.5702 0.0526039 0)
(6.50862 0.0420817 0)
(6.48213 0.0343169 0)
(6.47956 0.0306214 0)
(6.48501 0.0301995 0)
(6.49409 0.0332215 0)
(6.4564 0.059096 0)
(6.43248 0.0436102 0)
(10.1051 0.0738249 0)
(10.313 0.107074 0)
(10.4485 0.106814 0)
(10.518 0.105119 0)
(10.5379 0.100498 0)
(10.516 0.0913284 0)
(10.4581 0.0804337 0)
(10.3695 0.0695555 0)
(10.254 0.0568956 0)
(10.1128 0.0416222 0)
(9.94728 0.0249032 0)
(9.76066 0.00867743 0)
(9.55765 -0.00394829 0)
(9.34474 -0.0116555 0)
(9.12876 -0.0151201 0)
(8.91948 -0.0105708 0)
(8.71586 0.00278128 0)
(8.59972 0.0725086 0)
(10.0112 0.035639 0)
(10.0621 0.0538886 0)
(10.1159 0.0585538 0)
(10.1653 0.0666975 0)
(10.2145 0.073994 0)
(10.2617 0.0786181 0)
(10.3029 0.0829348 0)
(10.3372 0.0883701 0)
(10.3644 0.0941174 0)
(10.3832 0.0999092 0)
(10.3919 0.106369 0)
(10.3893 0.114092 0)
(10.3747 0.122335 0)
(10.3475 0.130654 0)
(10.3074 0.138838 0)
(10.2548 0.148872 0)
(10.1917 0.158783 0)
(10.1206 0.177301 0)
(10.0062 0.029719 0)
(10.0349 0.0581472 0)
(10.062 0.0678047 0)
(10.0811 0.0741117 0)
(10.0983 0.0778282 0)
(10.1158 0.078394 0)
(10.1327 0.0776617 0)
(10.1486 0.0769552 0)
(10.1645 0.0759431 0)
(10.1802 0.0742782 0)
(10.1951 0.0723354 0)
(10.209 0.0708583 0)
(10.2221 0.0706552 0)
(10.2351 0.072977 0)
(10.2485 0.0786586 0)
(10.2638 0.0889051 0)
(10.2818 0.102925 0)
(10.307 0.118417 0)
(10.0045 0.0247413 0)
(10.0272 0.0517765 0)
(10.0504 0.0602855 0)
(10.0667 0.0649635 0)
(10.0799 0.0684947 0)
(10.0925 0.0699544 0)
(10.1036 0.0704034 0)
(10.1134 0.0710938 0)
(10.1225 0.0720364 0)
(10.1312 0.0730513 0)
(10.1393 0.0745194 0)
(10.1469 0.0771136 0)
(10.1543 0.0813097 0)
(10.1622 0.0874023 0)
(10.1713 0.0953008 0)
(10.1834 0.105142 0)
(10.1994 0.115692 0)
(10.2243 0.125616 0)
(10.0032 0.0202306 0)
(10.021 0.0452607 0)
(10.0416 0.0550627 0)
(10.0574 0.0607536 0)
(10.0703 0.0652464 0)
(10.0823 0.0677038 0)
(10.0931 0.0687949 0)
(10.1025 0.0696596 0)
(10.111 0.0705078 0)
(10.1188 0.0712357 0)
(10.1261 0.0720948 0)
(10.1327 0.0735524 0)
(10.139 0.0759462 0)
(10.1458 0.0795282 0)
(10.1537 0.0843714 0)
(10.1639 0.0905268 0)
(10.1775 0.0969716 0)
(10.196 0.102232 0)
(10.0023 0.0166319 0)
(10.0163 0.0396957 0)
(10.0342 0.0504491 0)
(10.0492 0.0564535 0)
(10.0615 0.0608644 0)
(10.073 0.0634411 0)
(10.0835 0.0646794 0)
(10.0929 0.0655538 0)
(10.1015 0.0664076 0)
(10.1095 0.0672508 0)
(10.1169 0.0682937 0)
(10.1239 0.0699194 0)
(10.1309 0.0724329 0)
(10.1383 0.0760161 0)
(10.1468 0.0806246 0)
(10.1572 0.0859738 0)
(10.1703 0.0910745 0)
(10.1866 0.0943035 0)
(10.0017 0.0137953 0)
(10.0127 0.0346478 0)
(10.028 0.0457031 0)
(10.042 0.0518651 0)
(10.0537 0.0562562 0)
(10.0646 0.0591022 0)
(10.0749 0.0607148 0)
(10.0842 0.0618409 0)
(10.0928 0.0628699 0)
(10.1008 0.0638885 0)
(10.1084 0.0650627 0)
(10.1158 0.0666702 0)
(10.1232 0.0689212 0)
(10.1311 0.0718781 0)
(10.14 0.0753857 0)
(10.1505 0.0790536 0)
(10.1629 0.0820532 0)
(10.1774 0.0832186 0)
(10.0012 0.0115203 0)
(10.01 0.0300716 0)
(10.023 0.0410207 0)
(10.0358 0.0473361 0)
(10.047 0.0517484 0)
(10.0574 0.0547715 0)
(10.0672 0.0566301 0)
(10.0764 0.0578958 0)
(10.0849 0.0589739 0)
(10.093 0.0600142 0)
(10.1007 0.0611588 0)
(10.1084 0.0626048 0)
(10.1161 0.0644891 0)
(10.1243 0.0668096 0)
(10.1333 0.0693807 0)
(10.1436 0.0718209 0)
(10.1552 0.0734887 0)
(10.1683 0.0735564 0)
(10.0009 0.00966786 0)
(10.0079 0.0259766 0)
(10.019 0.0364962 0)
(10.0306 0.0428476 0)
(10.0412 0.0472188 0)
(10.051 0.0502934 0)
(10.0605 0.0522968 0)
(10.0695 0.0536675 0)
(10.0779 0.0547852 0)
(10.086 0.0558298 0)
(10.0938 0.0569226 0)
(10.1016 0.0581955 0)
(10.1096 0.0597246 0)
(10.1179 0.0614664 0)
(10.127 0.0632277 0)
(10.1369 0.0646685 0)
(10.1478 0.0652977 0)
(10.1595 0.0645689 0)
(10.0007 0.00813339 0)
(10.0063 0.0223345 0)
(10.0157 0.0321751 0)
(10.0262 0.0384052 0)
(10.0361 0.0426718 0)
(10.0455 0.0457166 0)
(10.0546 0.0477891 0)
(10.0633 0.0492232 0)
(10.0717 0.050347 0)
(10.0797 0.051346 0)
(10.0876 0.0523262 0)
(10.0955 0.0533724 0)
(10.1036 0.0545179 0)
(10.1119 0.0556989 0)
(10.1208 0.0567379 0)
(10.1304 0.0573581 0)
(10.1404 0.0572035 0)
(10.151 0.0559371 0)
(10.0006 0.00692263 0)
(10.0052 0.0193129 0)
(10.0134 0.0283781 0)
(10.0228 0.0343688 0)
(10.0321 0.0384858 0)
(10.041 0.0414423 0)
(10.0498 0.043507 0)
(10.0583 0.0449445 0)
(10.0666 0.0460308 0)
(10.0746 0.0469443 0)
(10.0825 0.0477793 0)
(10.0904 0.0485912 0)
(10.0984 0.0493868 0)
(10.1067 0.0500978 0)
(10.1154 0.0505722 0)
(10.1245 0.0505956 0)
(10.1339 0.0499134 0)
(10.1436 0.0483279 0)
(10.0005 0.00589546 0)
(10.0044 0.0166181 0)
(10.0114 0.0247931 0)
(10.0199 0.0304147 0)
(10.0286 0.0343198 0)
(10.0371 0.0371311 0)
(10.0456 0.0391223 0)
(10.0539 0.0405125 0)
(10.062 0.0415279 0)
(10.0699 0.0423281 0)
(10.0778 0.0429962 0)
(10.0856 0.0435686 0)
(10.0936 0.044037 0)
(10.1018 0.0443366 0)
(10.1102 0.0443441 0)
(10.1189 0.0439002 0)
(10.1277 0.0428271 0)
(10.1366 0.0410232 0)
(10.0004 0.00486696 0)
(10.0037 0.0138286 0)
(10.0097 0.0209142 0)
(10.0172 0.0259845 0)
(10.0253 0.0295616 0)
(10.0333 0.0321373 0)
(10.0413 0.0339703 0)
(10.0493 0.0352426 0)
(10.0573 0.0361299 0)
(10.0651 0.0367641 0)
(10.0728 0.0372152 0)
(10.0806 0.0375069 0)
(10.0885 0.0376241 0)
(10.0964 0.0375125 0)
(10.1045 0.0370819 0)
(10.1127 0.0362266 0)
(10.1209 0.0348345 0)
(10.129 0.0328763 0)
(10.0003 0.00383791 0)
(10.003 0.0109742 0)
(10.0081 0.0167884 0)
(10.0148 0.0210968 0)
(10.0221 0.0241844 0)
(10.0296 0.0264001 0)
(10.0373 0.0279633 0)
(10.0449 0.0290205 0)
(10.0526 0.029701 0)
(10.0602 0.030105 0)
(10.0678 0.0302879 0)
(10.0754 0.0302659 0)
(10.0831 0.030025 0)
(10.0907 0.0295265 0)
(10.0984 0.028713 0)
(10.106 0.0275248 0)
(10.1135 0.0259 0)
(10.1209 0.0238565 0)
(10.0003 0.00280496 0)
(10.0025 0.00805672 0)
(10.0069 0.0124279 0)
(10.0127 0.0157494 0)
(10.0193 0.0181514 0)
(10.0263 0.0198501 0)
(10.0335 0.0210064 0)
(10.0408 0.0217293 0)
(10.0482 0.0221073 0)
(10.0555 0.0222092 0)
(10.0629 0.0220749 0)
(10.0702 0.0217165 0)
(10.0775 0.0211256 0)
(10.0848 0.0202804 0)
(10.092 0.0191509 0)
(10.0991 0.0177119 0)
(10.106 0.0159351 0)
(10.1127 0.0138639 0)
(10.0002 0.00175302 0)
(10.0022 0.00504404 0)
(10.0059 0.00780742 0)
(10.0111 0.00991979 0)
(10.0171 0.0114232 0)
(10.0235 0.0124247 0)
(10.0302 0.0130201 0)
(10.0372 0.0132774 0)
(10.0442 0.0132498 0)
(10.0512 0.0129778 0)
(10.0583 0.0124858 0)
(10.0652 0.0117824 0)
(10.0722 0.0108648 0)
(10.079 0.00972421 0)
(10.0857 0.00834974 0)
(10.0922 0.00673684 0)
(10.0985 0.00487668 0)
(10.1046 0.00282047 0)
(10.0002 0.000645854 0)
(10.0019 0.00184544 0)
(10.0053 0.00281709 0)
(10.0099 0.00349344 0)
(10.0154 0.00386991 0)
(10.0215 0.00397626 0)
(10.0278 0.00384352 0)
(10.0343 0.00349705 0)
(10.041 0.00295761 0)
(10.0477 0.00224091 0)
(10.0543 0.00135637 0)
(10.0609 0.000307464 0)
(10.0674 -0.000906362 0)
(10.0738 -0.00228698 0)
(10.08 -0.00383594 0)
(10.086 -0.00554895 0)
(10.0917 -0.00742708 0)
(10.0973 -0.0094229 0)
(10.0002 -0.000587038 0)
(10.0018 -0.00172238 0)
(10.005 -0.00277488 0)
(10.0095 -0.00375413 0)
(10.0148 -0.00470344 0)
(10.0205 -0.00566665 0)
(10.0266 -0.00667223 0)
(10.0328 -0.0077348 0)
(10.0392 -0.00886489 0)
(10.0455 -0.0100723 0)
(10.0518 -0.0113649 0)
(10.0581 -0.0127482 0)
(10.0642 -0.0142267 0)
(10.0701 -0.0158032 0)
(10.0758 -0.0174795 0)
(10.0814 -0.0192527 0)
(10.0867 -0.021124 0)
(10.0918 -0.0230595 0)
(10.0002 -0.00177881 0)
(10.002 -0.00515917 0)
(10.0054 -0.00811651 0)
(10.0101 -0.0106085 0)
(10.0155 -0.0127439 0)
(10.0213 -0.014658 0)
(10.0273 -0.016433 0)
(10.0335 -0.0181146 0)
(10.0398 -0.01974 0)
(10.046 -0.0213408 0)
(10.0521 -0.0229382 0)
(10.0581 -0.0245449 0)
(10.064 -0.0261704 0)
(10.0696 -0.0278237 0)
(10.0751 -0.029513 0)
(10.0803 -0.0312437 0)
(10.0853 -0.0330243 0)
(10.09 -0.0348365 0)
(10.0003 -0.00286177 0)
(10.0023 -0.00823471 0)
(10.0063 -0.0127631 0)
(10.0115 -0.0163921 0)
(10.0172 -0.0193702 0)
(10.0232 -0.0219424 0)
(10.0294 -0.024235 0)
(10.0357 -0.026323 0)
(10.0419 -0.0282758 0)
(10.0481 -0.0301468 0)
(10.0542 -0.0319631 0)
(10.0601 -0.033736 0)
(10.0659 -0.0354738 0)
(10.0714 -0.037187 0)
(10.0768 -0.0388882 0)
(10.0818 -0.0405893 0)
(10.0866 -0.0423049 0)
(10.0912 -0.0440305 0)
(10.0003 -0.00402866 0)
(10.0029 -0.0114452 0)
(10.0077 -0.0173762 0)
(10.0137 -0.021877 0)
(10.02 -0.025479 0)
(10.0263 -0.0285476 0)
(10.0326 -0.0312101 0)
(10.039 -0.033555 0)
(10.0454 -0.0356887 0)
(10.0516 -0.0376887 0)
(10.0576 -0.0395854 0)
(10.0635 -0.041386 0)
(10.0693 -0.0430978 0)
(10.0748 -0.0447362 0)
(10.08 -0.0463228 0)
(10.085 -0.0478813 0)
(10.0897 -0.0494393 0)
(10.0941 -0.0510104 0)
(10.0005 -0.00538661 0)
(10.0039 -0.0149954 0)
(10.01 -0.0221145 0)
(10.0169 -0.027161 0)
(10.0237 -0.0311449 0)
(10.0304 -0.0345597 0)
(10.0371 -0.0375173 0)
(10.0437 -0.040128 0)
(10.0501 -0.0425288 0)
(10.0564 -0.0447927 0)
(10.0626 -0.0469222 0)
(10.0686 -0.0488962 0)
(10.0744 -0.0507059 0)
(10.0799 -0.0523617 0)
(10.0852 -0.0538878 0)
(10.0901 -0.055315 0)
(10.0947 -0.0566789 0)
(10.0989 -0.0580001 0)
(10.0007 -0.00707016 0)
(10.0055 -0.0190396 0)
(10.0133 -0.0270656 0)
(10.0213 -0.0323941 0)
(10.0287 -0.0365391 0)
(10.0356 -0.0399541 0)
(10.0425 -0.0427473 0)
(10.0493 -0.0451614 0)
(10.0558 -0.0474321 0)
(10.0621 -0.0496422 0)
(10.0683 -0.0517578 0)
(10.0744 -0.0537214 0)
(10.0804 -0.0555057 0)
(10.0861 -0.0571184 0)
(10.0915 -0.0585903 0)
(10.0965 -0.0599656 0)
(10.1012 -0.0613038 0)
(10.1055 -0.0626731 0)
(10.001 -0.00929397 0)
(10.008 -0.0235984 0)
(10.0179 -0.0318929 0)
(10.0271 -0.037416 0)
(10.035 -0.0422041 0)
(10.0425 -0.0462494 0)
(10.0498 -0.0494572 0)
(10.0567 -0.0521607 0)
(10.0632 -0.0546878 0)
(10.0695 -0.0571258 0)
(10.0757 -0.0593879 0)
(10.0819 -0.0613605 0)
(10.0879 -0.0629888 0)
(10.0936 -0.0642742 0)
(10.099 -0.0652497 0)
(10.104 -0.0659629 0)
(10.1084 -0.0664708 0)
(10.1123 -0.0667912 0)
(10.0017 -0.0124336 0)
(10.0118 -0.029202 0)
(10.0241 -0.0363166 0)
(10.0339 -0.0401969 0)
(10.0419 -0.0438631 0)
(10.0497 -0.0471225 0)
(10.0573 -0.0498297 0)
(10.0643 -0.0523519 0)
(10.0708 -0.0550181 0)
(10.0771 -0.0578736 0)
(10.0835 -0.0607432 0)
(10.0899 -0.0634308 0)
(10.0963 -0.0658342 0)
(10.1025 -0.067944 0)
(10.1084 -0.0698146 0)
(10.1138 -0.0715235 0)
(10.1189 -0.0731918 0)
(10.1238 -0.0748921 0)
(10.0029 -0.0162213 0)
(10.0178 -0.0370661 0)
(10.0335 -0.0463926 0)
(10.0443 -0.0521761 0)
(10.0527 -0.0566172 0)
(10.0611 -0.0595444 0)
(10.0696 -0.0614258 0)
(10.0776 -0.062969 0)
(10.0853 -0.0645834 0)
(10.0932 -0.0662791 0)
(10.1015 -0.0678122 0)
(10.1103 -0.0689418 0)
(10.1193 -0.0695328 0)
(10.1282 -0.0695348 0)
(10.137 -0.0689587 0)
(10.1453 -0.0678638 0)
(10.1532 -0.0663482 0)
(10.1599 -0.0643347 0)
(10.0046 -0.0188305 0)
(10.0291 -0.0310408 0)
(10.0557 -0.0339946 0)
(10.0785 -0.0394551 0)
(10.101 -0.0457597 0)
(10.1248 -0.0509554 0)
(10.1488 -0.0554328 0)
(10.172 -0.0600326 0)
(10.1945 -0.0652544 0)
(10.2169 -0.0709677 0)
(10.2394 -0.0766594 0)
(10.2616 -0.0819993 0)
(10.283 -0.086914 0)
(10.3028 -0.0914371 0)
(10.3206 -0.0956465 0)
(10.3361 -0.0996658 0)
(10.349 -0.103656 0)
(10.3594 -0.107588 0)
(10.0549 -0.0494893 0)
(10.1822 -0.0761568 0)
(10.2841 -0.0772158 0)
(10.3595 -0.0782261 0)
(10.4164 -0.0795036 0)
(10.4573 -0.0793389 0)
(10.4827 -0.0780851 0)
(10.4937 -0.0766262 0)
(10.4925 -0.0758826 0)
(10.4813 -0.0758309 0)
(10.4608 -0.0754938 0)
(10.4312 -0.0740747 0)
(10.3923 -0.0712305 0)
(10.3442 -0.0669004 0)
(10.2873 -0.0611691 0)
(10.222 -0.054378 0)
(10.1492 -0.0468257 0)
(10.0691 -0.039797 0)
(9.86857 -0.0426399 0)
(9.60467 -0.0724642 0)
(9.32641 -0.0792832 0)
(9.04545 -0.0818505 0)
(8.77711 -0.0828052 0)
(8.52622 -0.0822366 0)
(8.29265 -0.0806929 0)
(8.0766 -0.0789818 0)
(7.87525 -0.0780084 0)
(7.68319 -0.0779107 0)
(7.50091 -0.0780098 0)
(7.32991 -0.0776032 0)
(7.17205 -0.0762909 0)
(7.02929 -0.0739031 0)
(6.90322 -0.0704093 0)
(6.795 -0.0659328 0)
(6.70373 -0.0610131 0)
(6.6313 -0.05452 0)
(-0.00453454 0.008382 -2.2265e-21)
(-0.00831508 0.0100798 2.13278e-21)
(-0.0164565 0.0115207 0)
(-0.0249826 0.0129938 0)
(-0.0341931 0.0144658 0)
(-0.0441124 0.015794 -2.12075e-21)
(-0.0547662 0.0158684 0)
(-0.0657829 0.0134283 0)
(-0.0761822 0.00902471 0)
(-0.0856186 0.00504854 0)
(-0.0944986 0.00348708 2.00561e-21)
(-0.103541 0.00424112 0)
(-0.113265 0.00617453 0)
(-0.123868 0.00834839 0)
(-0.135332 0.010331 0)
(-0.147566 0.0120239 1.81269e-21)
(-0.160486 0.0134598 0)
(-0.174036 0.0147054 0)
(-0.188185 0.0158252 0)
(-0.202926 0.0168706 0)
(-0.218271 0.0178796 0)
(-0.234245 0.0188783 0)
(-0.250883 0.0198836 0)
(-0.268229 0.0209048 1.67618e-21)
(-0.286324 0.0219478 -1.66655e-21)
(-0.305217 0.0230183 1.65786e-21)
(-0.324956 0.0241251 1.65e-21)
(-0.34559 0.0252794 0)
(-0.367175 0.026489 0)
(-0.389763 0.0277492 -1.63069e-21)
(-0.413404 0.0290404 -1.62552e-21)
(-0.438137 0.0303341 0)
(-0.463986 0.0316026 0)
(-0.490966 0.0328241 -1.61317e-21)
(-0.519078 0.0339883 0)
(-0.548317 0.0350974 0)
(-0.578675 0.0361572 1.60459e-21)
(-0.61014 0.0371704 0)
(-0.642697 0.0381355 1.6007e-21)
(-0.676322 0.0390481 3.19865e-21)
(-0.710986 0.0399025 0)
(-0.746651 0.0406916 0)
(-0.783275 0.0414077 0)
(-0.820802 0.0420425 0)
(-0.859174 0.0425882 0)
(-0.898322 0.0430393 3.19871e-21)
(-0.938172 0.0433928 3.20145e-21)
(-0.978646 0.0436466 3.20489e-21)
(-1.01966 0.0437978 0)
(-1.06113 0.0438438 -3.21368e-21)
(-1.10297 0.043785 0)
(-1.14507 0.0436234 3.22454e-21)
(-1.18736 0.043359 3.23055e-21)
(-1.22973 0.0429864 0)
(-1.27209 0.0424951 0)
(-1.31433 0.0418734 0)
(-1.35634 0.0411157 3.25602e-21)
(-1.39803 0.0402432 0)
(-1.43931 0.0393366 0)
(-1.48014 0.0384872 0)
(-1.52052 0.0376891 0)
(-1.56041 0.0368836 0)
(-1.59977 0.0360488 0)
(-1.63856 0.0351861 0)
(-1.67674 0.0343009 0)
(-1.71427 0.0333982 -3.28902e-21)
(-1.75112 0.032483 0)
(-1.78728 0.0315607 0)
(-1.82272 0.0306369 3.28258e-21)
(-1.85744 0.029718 3.27778e-21)
(-1.89142 0.0288099 0)
(-1.92468 0.0279177 -3.26384e-21)
(-1.95719 0.0270445 3.25462e-21)
(-1.98898 0.0261917 0)
(-2.02004 0.0253581 -3.23151e-21)
(-2.05037 0.0245396 0)
(-2.07997 0.0237317 0)
(-2.10885 0.0229334 3.18482e-21)
(-2.13701 0.0221487 0)
(-2.16445 0.0213815 -3.14547e-21)
(-2.19117 0.0206308 0)
(-2.21718 0.0198926 3.09947e-21)
(-2.24247 0.0191632 3.07398e-21)
(-2.26704 0.0184387 3.04682e-21)
(-2.29089 0.0177167 6.03602e-21)
(-2.31401 0.0169951 -5.9751e-21)
(-2.3364 0.01627 0)
(-2.35805 0.0155352 0)
(-2.37896 0.0147842 0)
(-2.39911 0.0140181 -5.69899e-21)
(-2.4185 0.013264 -5.62206e-21)
(-2.43716 0.0125894 5.54206e-21)
(-2.45511 0.0120278 0)
(-2.4724 0.0115261 -5.37336e-21)
(-2.48902 0.0110382 -5.28487e-21)
(-2.50498 0.0105615 -5.19372e-21)
(-2.52029 0.0100964 0)
(-2.53494 0.00964178 0)
(-2.54895 0.00919693 0)
(-2.56233 0.00876466 -4.80424e-21)
(-2.5751 0.00835052 0)
(-2.58727 0.00795952 0)
(-2.59887 0.00759426 4.48861e-21)
(-2.60991 0.00725535 0)
(-2.62042 0.00694111 0)
(-2.63042 0.00664693 4.15591e-21)
(-2.63992 0.00636804 0)
(-2.64896 0.0061029 0)
(-2.65756 0.00585314 -3.80903e-21)
(-2.66573 0.00562185 -3.69072e-21)
(-2.67351 0.00541199 0)
(-2.68092 0.0052254 3.45063e-21)
(-2.68799 0.00506248 0)
(-2.69476 0.00492165 -3.20644e-21)
(-2.70124 0.00479731 0)
(-2.70746 0.00467759 -2.95862e-21)
(-2.71341 0.0045405 -2.83343e-21)
(-2.71909 0.00435107 0)
(-2.72446 0.0040713 0)
(-2.72948 0.00369817 0)
(-2.73412 0.00333664 0)
(-2.73841 0.00317101 0)
(-2.74262 0.00315922 0)
(-2.74676 0.00315552 0)
(-2.75084 0.00319494 -1.7968e-21)
(-2.75485 0.00329763 1.66088e-21)
(-2.75882 0.00344225 0)
(-2.76273 0.00360454 0)
(-2.76653 0.00377935 0)
(-2.77015 0.00393908 0)
(-2.77349 0.0041134 1.88294e-21)
(-2.7765 0.00436611 0)
(-2.77908 0.00463638 -1.25389e-21)
(-2.78108 0.00485041 9.22839e-22)
(-2.78232 0.00499143 0)
(-2.78259 0.00503308 0)
(-2.78161 0.00494038 0)
(-2.77904 0.00467305 5.55487e-22)
(-2.7745 0.00418232 9.755e-22)
(-2.7675 0.0034075 0)
(-2.75747 0.0022778 1.8968e-21)
(-2.74376 0.000714027 2.40538e-21)
(-2.72559 -0.00136839 -2.95138e-21)
(-2.70214 -0.00403708 0)
(-2.67248 -0.00729638 0)
(-2.63551 -0.011104 -4.85905e-21)
(-2.58999 -0.0155257 0)
(-2.53457 -0.0206306 0)
(-2.4678 -0.0264826 0)
(-2.38812 -0.03314 0)
(-2.29389 -0.0406589 9.22125e-21)
(-2.18339 -0.0491008 1.03055e-20)
(-2.05484 -0.0585211 0)
(-1.90642 -0.0689882 1.26899e-20)
(-1.73637 -0.0805605 0)
(-1.54308 -0.0931859 0)
(-1.32555 -0.10637 1.66889e-20)
(-1.0845 -0.118298 0)
(-0.823297 -0.125128 1.93905e-20)
(-0.556416 -0.120271 0)
(-0.285395 -0.11331 0)
(0.00792239 -0.118928 2.30731e-20)
(0.314137 -0.130677 0)
(0.635616 -0.143299 2.49778e-20)
(0.978978 -0.146469 0)
(1.33101 -0.141315 0)
(1.68069 -0.133408 0)
(2.02271 -0.124263 -2.66762e-20)
(2.35236 -0.114228 0)
(2.66549 -0.103426 2.63727e-20)
(2.95849 -0.0920152 0)
(3.22849 -0.0802232 0)
(3.47306 -0.0680474 0)
(3.69002 -0.0557242 0)
(3.8781 -0.0436898 0)
(4.03568 -0.0318501 0)
(4.1633 -0.0194158 0)
(4.24929 -0.00537302 -4.55781e-20)
(4.30932 0.0228529 0)
(4.17285 0.0577614 0)
(-0.00643029 0.0177991 6.63265e-21)
(-0.00958124 0.0209383 -6.34204e-21)
(-0.0184346 0.023327 0)
(-0.0270154 0.0251987 4.2091e-21)
(-0.0357702 0.0268144 0)
(-0.0448123 0.0283191 2.1035e-21)
(-0.0541201 0.0296866 -4.19583e-21)
(-0.0639271 0.0305329 -4.17141e-21)
(-0.0746084 0.0307253 0)
(-0.0862191 0.030627 -4.04988e-21)
(-0.0983785 0.0307607 -1.97683e-21)
(-0.110708 0.0313636 0)
(-0.123083 0.0323507 0)
(-0.13557 0.0335207 0)
(-0.148303 0.0347138 0)
(-0.161419 0.0358536 -1.76788e-21)
(-0.17502 0.036928 0)
(-0.189175 0.0379601 3.43607e-21)
(-0.203942 0.0389852 0)
(-0.219365 0.0400379 0)
(-0.235489 0.0411465 -3.33052e-21)
(-0.252355 0.0423312 0)
(-0.270009 0.043605 3.27761e-21)
(-0.288498 0.0449745 -1.63264e-21)
(-0.307871 0.0464421 1.6227e-21)
(-0.328179 0.0480073 -1.61357e-21)
(-0.349472 0.0496687 -1.60513e-21)
(-0.371799 0.0514238 0)
(-0.395202 0.0532681 0)
(-0.41972 0.0551932 1.58315e-21)
(-0.445385 0.0571851 -1.55796e-21)
(-0.472226 0.0592246 0)
(-0.500268 0.0612899 0)
(-0.529528 0.0633588 1.55984e-21)
(-0.560018 0.0654112 0)
(-0.59174 0.0674301 0)
(-0.624684 0.0694007 -1.5463e-21)
(-0.658832 0.0713089 0)
(-0.694158 0.0731403 1.5129e-21)
(-0.730625 0.0748802 -3.0726e-21)
(-0.76819 0.0765137 0)
(-0.806799 0.078026 0)
(-0.846393 0.079403 -6.06347e-21)
(-0.886904 0.0806312 -6.05811e-21)
(-0.928257 0.0816986 -6.05472e-21)
(-0.970369 0.0825952 2.9972e-21)
(-1.01315 0.0833131 -3.05641e-21)
(-1.05652 0.0838466 -9.11358e-21)
(-1.10036 0.0841914 6.06004e-21)
(-1.14458 0.0843452 3.06213e-21)
(-1.18908 0.084307 0)
(-1.23375 0.0840776 -3.06928e-21)
(-1.27849 0.0836589 3.01718e-21)
(-1.32318 0.0830539 0)
(-1.36773 0.0822673 0)
(-1.41206 0.0813071 0)
(-1.45607 0.0801866 -3.09382e-21)
(-1.49972 0.078928 0)
(-1.54293 0.0775642 6.16006e-21)
(-1.58563 0.0761261 0)
(-1.62775 0.0746235 6.18112e-21)
(-1.66922 0.0730549 0)
(-1.71002 0.0714249 -6.1975e-21)
(-1.75009 0.0697435 0)
(-1.78941 0.0680224 6.20757e-21)
(-1.82794 0.0662734 -3.0859e-21)
(-1.86568 0.0645078 0)
(-1.90261 0.0627354 -6.20756e-21)
(-1.93871 0.0609654 -3.11835e-21)
(-1.97398 0.0592052 -3.11407e-21)
(-2.00843 0.0574611 0)
(-2.04203 0.0557375 -3.07151e-21)
(-2.07481 0.0540377 -3.09314e-21)
(-2.10677 0.0523636 0)
(-2.1379 0.0507161 3.07204e-21)
(-2.16821 0.0490955 -6.09299e-21)
(-2.19771 0.0475017 0)
(-2.22641 0.0459347 -3.02909e-21)
(-2.2543 0.044394 0)
(-2.2814 0.0428783 8.95663e-21)
(-2.3077 0.0413857 0)
(-2.3332 0.0399145 -8.83052e-21)
(-2.3579 0.0384632 -2.92636e-21)
(-2.38181 0.037031 2.88326e-21)
(-2.40492 0.0356174 5.71462e-21)
(-2.42724 0.0342223 -5.65957e-21)
(-2.44876 0.0328461 0)
(-2.46949 0.0314903 0)
(-2.48943 0.0301576 0)
(-2.50861 0.0288526 1.62761e-20)
(-2.52703 0.0275794 5.36177e-21)
(-2.54471 0.0263391 -5.28698e-21)
(-2.56164 0.0251265 0)
(-2.57783 0.0239344 -5.10969e-21)
(-2.59328 0.0227619 5.04625e-21)
(-2.60803 0.0216134 4.96078e-21)
(-2.62207 0.0204935 0)
(-2.63542 0.0194055 0)
(-2.64811 0.0183522 0)
(-2.66015 0.0173354 4.59474e-21)
(-2.67156 0.0163567 0)
(-2.68235 0.0154163 -8.78346e-21)
(-2.69256 0.0145144 -1.28789e-20)
(-2.70219 0.0136506 8.37606e-21)
(-2.71127 0.0128251 0)
(-2.71982 0.0120381 3.97134e-21)
(-2.72786 0.0112907 0)
(-2.73543 0.0105841 7.51971e-21)
(-2.74254 0.00991957 -3.64373e-21)
(-2.74922 0.00929745 -3.53176e-21)
(-2.7555 0.00871721 0)
(-2.7614 0.0081771 -9.93264e-21)
(-2.76695 0.00767426 6.38738e-21)
(-2.77217 0.00720475 3.082e-21)
(-2.77706 0.00676294 0)
(-2.78165 0.00634253 2.84598e-21)
(-2.78593 0.00593704 8.17082e-21)
(-2.78993 0.00554292 0)
(-2.79366 0.00515778 4.96224e-21)
(-2.7972 0.00477496 4.71881e-21)
(-2.80057 0.0044374 4.47336e-21)
(-2.80381 0.00418768 0)
(-2.80687 0.00400669 0)
(-2.8097 0.00383535 0)
(-2.81229 0.00362549 -1.72801e-21)
(-2.81467 0.00335722 -1.60412e-21)
(-2.81679 0.00303759 0)
(-2.81858 0.00267182 -2.66529e-21)
(-2.81995 0.00225041 -2.38908e-21)
(-2.82085 0.00174364 0)
(-2.82118 0.00115134 -1.8217e-21)
(-2.8208 0.000487553 -3.03589e-21)
(-2.81955 -0.000289979 1.21369e-21)
(-2.81721 -0.00122605 8.88251e-22)
(-2.81355 -0.00235098 0)
(-2.80828 -0.00370139 0)
(-2.80108 -0.00531867 0)
(-2.79158 -0.00724885 -5.3789e-22)
(-2.77933 -0.00954319 9.23722e-22)
(-2.76385 -0.0122588 2.72218e-21)
(-2.74457 -0.0154591 -1.83587e-21)
(-2.72085 -0.0192174 2.27309e-21)
(-2.69198 -0.0236198 2.85472e-21)
(-2.65712 -0.0287588 0)
(-2.61536 -0.0347008 0)
(-2.56571 -0.0414692 -4.56217e-21)
(-2.50711 -0.049134 0)
(-2.43839 -0.057769 0)
(-2.3583 -0.0674243 1.38011e-20)
(-2.26552 -0.0781288 0)
(-2.15872 -0.0898933 8.58186e-21)
(-2.03651 -0.10272 -9.90936e-21)
(-1.89753 -0.11654 0)
(-1.74054 -0.131239 1.17624e-20)
(-1.56449 -0.146591 0)
(-1.36878 -0.162067 0)
(-1.15344 -0.176721 -1.60239e-20)
(-0.919445 -0.188641 3.41579e-20)
(-0.667894 -0.195979 -1.86892e-20)
(-0.399549 -0.200788 0)
(-0.105459 -0.214285 0)
(0.208948 -0.225519 2.18355e-20)
(0.537611 -0.232345 0)
(0.883878 -0.242683 2.34482e-20)
(1.2428 -0.25206 0)
(1.6066 -0.255105 0)
(1.9699 -0.252072 0)
(2.32695 -0.244571 2.55831e-20)
(2.67244 -0.233579 0)
(3.00184 -0.219675 -2.53109e-20)
(3.31116 -0.203414 0)
(3.59719 -0.185504 0)
(3.85703 -0.166278 4.79168e-20)
(4.08842 -0.145869 -4.69808e-20)
(4.28941 -0.12448 0)
(4.4575 -0.102199 0)
(4.59285 -0.0785408 0)
(4.68605 -0.0521036 1.31437e-19)
(4.75781 -0.00635455 0)
(4.74671 0.058508 -8.58743e-20)
(-0.00686449 0.0355368 1.80501e-24)
(-0.0105379 0.0398153 8.5048e-21)
(-0.0194152 0.043112 0)
(-0.0283208 0.0459561 -8.40115e-21)
(-0.0373178 0.0484427 0)
(-0.0467497 0.0505481 0)
(-0.0566537 0.0521212 -3.01022e-24)
(-0.0670912 0.0529757 4.16442e-21)
(-0.0782217 0.0531761 4.12164e-21)
(-0.0900764 0.0531836 4.05039e-21)
(-0.10247 0.0535375 0)
(-0.115207 0.0544743 0)
(-0.128199 0.0559368 -3.77056e-21)
(-0.14144 0.0577621 -7.37421e-21)
(-0.154972 0.0598025 7.23041e-21)
(-0.168869 0.0619634 0)
(-0.183211 0.0642 7.00428e-21)
(-0.198079 0.0665008 -3.45465e-21)
(-0.213542 0.0688738 0)
(-0.229663 0.0713368 6.76968e-21)
(-0.2465 0.0739096 3.35025e-21)
(-0.264106 0.0766104 -6.65411e-21)
(-0.282534 0.0794531 -3.29714e-21)
(-0.301835 0.0824464 0)
(-0.322061 0.0855943 6.5159e-21)
(-0.34326 0.0888965 6.47643e-21)
(-0.365482 0.0923484 0)
(-0.388769 0.0959406 6.40471e-21)
(-0.413159 0.0996581 0)
(-0.438685 0.103478 6.34064e-21)
(-0.465373 0.107372 3.14766e-21)
(-0.493243 0.111305 0)
(-0.522312 0.11524 0)
(-0.55259 0.11914 0)
(-0.584081 0.122974 0)
(-0.616779 0.12671 0)
(-0.650672 0.130321 0)
(-0.685735 0.133782 6.14593e-21)
(-0.721935 0.137065 -9.18306e-21)
(-0.759231 0.140145 0)
(-0.79757 0.142996 0)
(-0.836894 0.145593 0)
(-0.877136 0.147912 -2.26528e-23)
(-0.918222 0.149931 6.04949e-21)
(-0.960072 0.151631 1.2111e-20)
(-1.0026 0.152996 -1.21039e-20)
(-1.04571 0.154013 -6.06241e-21)
(-1.08932 0.154675 6.03834e-21)
(-1.13331 0.154974 2.46899e-23)
(-1.17759 0.15491 6.06868e-21)
(-1.22205 0.154485 0)
(-1.2666 0.153703 6.08047e-21)
(-1.31113 0.152575 2.50177e-23)
(-1.35554 0.151111 0)
(-1.39975 0.14933 0)
(-1.44366 0.147254 -6.11584e-21)
(-1.48721 0.144916 0)
(-1.53032 0.142356 0)
(-1.57293 0.139621 6.16864e-21)
(-1.61497 0.136748 1.23094e-20)
(-1.65635 0.133758 -6.14091e-21)
(-1.69703 0.130661 0)
(-1.73696 0.127472 6.15487e-21)
(-1.7761 0.124209 0)
(-1.81442 0.120892 6.20289e-21)
(-1.8519 0.117542 6.16402e-21)
(-1.88852 0.114177 -1.2364e-20)
(-1.92427 0.110814 -6.19652e-21)
(-1.95914 0.107469 0)
(-1.99313 0.104155 1.23273e-20)
(-2.02624 0.100882 0)
(-2.05847 0.0976568 1.84001e-20)
(-2.08982 0.0944857 1.22437e-20)
(-2.1203 0.0913711 1.22047e-20)
(-2.14991 0.0883136 -1.21598e-20)
(-2.17867 0.0853126 1.81503e-20)
(-2.20656 0.0823668 0)
(-2.23361 0.0794746 0)
(-2.25982 0.0766346 -1.19203e-20)
(-2.28519 0.0738442 -1.77568e-20)
(-2.30972 0.0711003 0)
(-2.33342 0.0683993 5.82826e-21)
(-2.35628 0.0657381 0)
(-2.37832 0.0631143 -1.72154e-20)
(-2.39953 0.0605266 1.72523e-23)
(-2.41991 0.0579747 -1.64092e-23)
(-2.43947 0.0554597 1.11469e-20)
(-2.45822 0.0529842 0)
(-2.47616 0.0505535 -1.08927e-20)
(-2.4933 0.0481764 1.3079e-23)
(-2.50965 0.0458645 0)
(-2.52522 0.0436277 0)
(-2.54 0.0414647 0)
(-2.55399 0.0393646 1.0147e-20)
(-2.56722 0.0373202 0)
(-2.57969 0.0353319 0)
(-2.59141 0.0334022 0)
(-2.60241 0.0315339 0)
(-2.6127 0.0297296 0)
(-2.62229 0.0279924 9.10369e-21)
(-2.63121 0.0263247 0)
(-2.63947 0.0247284 8.70781e-21)
(-2.6471 0.0232041 8.50811e-21)
(-2.65412 0.0217519 -8.30461e-21)
(-2.66053 0.0203715 0)
(-2.66638 0.0190623 -7.88701e-21)
(-2.67167 0.0178244 0)
(-2.67644 0.0166586 -7.45659e-21)
(-2.6807 0.0155656 7.23707e-21)
(-2.68449 0.0145462 2.10586e-20)
(-2.68782 0.0135995 0)
(-2.69071 0.0127227 1.97041e-20)
(-2.69319 0.0119109 6.34849e-21)
(-2.69528 0.011157 0)
(-2.69699 0.0104503 1.17552e-20)
(-2.69835 0.00978006 1.1286e-20)
(-2.69935 0.00913475 -1.6212e-20)
(-2.70004 0.00850464 0)
(-2.70044 0.00789342 -4.92025e-21)
(-2.70058 0.00733812 -4.67856e-21)
(-2.70046 0.00686505 -1.33228e-20)
(-2.70006 0.00649977 0)
(-2.69933 0.00620697 0)
(-2.69825 0.00592396 0)
(-2.69679 0.00558732 -3.45622e-21)
(-2.69488 0.00518 0)
(-2.69245 0.00470777 0)
(-2.68944 0.00415137 2.63985e-21)
(-2.68578 0.00347814 2.36576e-21)
(-2.68138 0.00267038 0)
(-2.67612 0.00169106 0)
(-2.66986 0.00048154 3.00389e-21)
(-2.66243 -0.00100163 0)
(-2.65363 -0.002804 -1.76177e-21)
(-2.64323 -0.00498036 -1.1636e-21)
(-2.63097 -0.00759464 0)
(-2.61654 -0.0107182 0)
(-2.5996 -0.014429 -9.72825e-22)
(-2.57974 -0.0188117 -8.38895e-23)
(-2.55653 -0.0239581 -9.21874e-23)
(-2.52945 -0.0299671 0)
(-2.49792 -0.0369444 -8.96189e-21)
(-2.46128 -0.0449978 0)
(-2.41877 -0.0542336 0)
(-2.36956 -0.0647687 0)
(-2.31271 -0.0767359 9.12032e-21)
(-2.24723 -0.0902464 0)
(-2.17201 -0.105405 -2.35918e-20)
(-2.08584 -0.122279 -1.36031e-20)
(-1.98747 -0.140906 0)
(-1.87559 -0.161292 -1.72157e-20)
(-1.74889 -0.183453 0)
(-1.60604 -0.207277 0)
(-1.44584 -0.232591 -7.04126e-20)
(-1.26726 -0.259124 5.15598e-20)
(-1.06961 -0.286184 0)
(-0.85243 -0.312773 6.18165e-20)
(-0.615505 -0.337045 -3.38666e-20)
(-0.357477 -0.357678 0)
(-0.0760752 -0.376729 0)
(0.228138 -0.397174 0)
(0.549498 -0.415591 -1.30527e-19)
(0.88689 -0.432341 0)
(1.23721 -0.447797 -4.69565e-20)
(1.59438 -0.456081 0)
(1.9552 -0.454786 0)
(2.31602 -0.445452 0)
(2.6714 -0.429742 0)
(3.01597 -0.408691 0)
(3.34505 -0.383069 0)
(3.65466 -0.35366 -9.74471e-20)
(3.94157 -0.321248 0)
(4.20196 -0.286039 -4.72913e-20)
(4.43468 -0.249262 1.38828e-19)
(4.63852 -0.211518 0)
(4.81153 -0.172623 0)
(4.95369 -0.131242 -8.76997e-20)
(5.05692 -0.0854565 -8.70123e-20)
(5.13554 -0.0216354 8.58704e-20)
(5.14784 0.060365 8.55807e-20)
(-0.00699524 0.0519707 -1.34864e-20)
(-0.0112916 0.0565356 -1.27836e-20)
(-0.0201672 0.0601623 -8.40106e-21)
(-0.0293029 0.0636182 -4.19524e-21)
(-0.0384574 0.0668658 0)
(-0.0480474 0.0698794 8.37766e-21)
(-0.0581891 0.072586 -4.1829e-21)
(-0.0689696 0.0748612 0)
(-0.080501 0.0766188 -4.11374e-21)
(-0.0927659 0.0779622 0)
(-0.105586 0.0791934 7.93046e-21)
(-0.118801 0.0806085 0)
(-0.132344 0.0823498 3.78211e-21)
(-0.146207 0.0844267 7.40412e-21)
(-0.160411 0.0867941 -7.26539e-21)
(-0.175 0.0894036 0)
(-0.190032 0.0922222 -7.04559e-21)
(-0.205574 0.095234 0)
(-0.221694 0.098437 0)
(-0.238457 0.101837 -6.81462e-21)
(-0.255925 0.105444 0)
(-0.274159 0.109267 -4.89102e-24)
(-0.293214 0.113313 0)
(-0.313145 0.117584 0)
(-0.334001 0.122078 5.25943e-24)
(-0.355831 0.126786 -6.51769e-21)
(-0.378677 0.131695 -6.4849e-21)
(-0.402577 0.136786 -6.44283e-21)
(-0.427563 0.142031 0)
(-0.453661 0.147399 -1.27569e-20)
(-0.48089 0.152849 0)
(-0.509267 0.15834 -6.32107e-21)
(-0.538797 0.163824 0)
(-0.569485 0.169258 0)
(-0.601326 0.174594 6.24166e-21)
(-0.634307 0.179789 0)
(-0.668406 0.184801 -6.19695e-21)
(-0.703593 0.189588 1.1076e-23)
(-0.739828 0.194113 1.2307e-20)
(-0.777062 0.198335 -1.22871e-20)
(-0.815239 0.202218 0)
(-0.854292 0.205728 0)
(-0.894151 0.208832 -6.12309e-21)
(-0.934737 0.211501 0)
(-0.975966 0.21371 -6.07742e-21)
(-1.01775 0.21544 6.07281e-21)
(-1.05999 0.216673 6.07017e-21)
(-1.1026 0.2174 0)
(-1.14547 0.217615 -6.07042e-21)
(-1.18851 0.217319 -6.07311e-21)
(-1.23161 0.216518 1.21987e-20)
(-1.27467 0.215224 -6.08287e-21)
(-1.31761 0.213453 -6.08958e-21)
(-1.36033 0.211227 0)
(-1.40274 0.208576 0)