/*--------------------------------*- C++ -*----------------------------------*\
| =========                 |                                                 |
| \\      /  F ield         | OpenFOAM: The Open Source CFD Toolbox           |
|  \\    /   O peration     | Version:  2112                                  |
|   \\  /    A nd           | Website:  www.openfoam.com                      |
|    \\/     M anipulation  |                                                 |
\*---------------------------------------------------------------------------*/
FoamFile
{
    version     2.0;
    format      ascii;
    arch        "LSB;label=32;scalar=64";
    class       volSymmTensorField;
    location    "0.04";
    object      turbulenceProperties:R;
}
// * * * * * * * * * * * * * * * * * * * * * * * * * * * * * * * * * * * * * //

dimensions      [0 2 -2 0 0 0 0];

internalField   nonuniform List<symmTensor> 
1580
(
(0.250918 -0.116602 -0 0.250658 -0 0.250693)
(0.251933 -0.117092 -0 0.251689 -0 0.251814)
(0.254581 -0.118267 -0 0.254093 -0 0.25434)
(0.256699 -0.119163 -0 0.255842 -0 0.256256)
(0.261856 -0.121431 -0 0.26047 -0 0.261111)
(0.265743 -0.123064 -0 0.263615 -0 0.264635)
(0.275771 -0.127408 -0 0.272299 -0 0.273995)
(0.283209 -0.130316 1.73708e-21 0.277181 -0 0.280587)
(0.245184 -0.0410458 -0 0.252345 -0 0.252435)
(0.244694 -0.0314072 -0 0.252626 -0 0.252536)
(0.245019 -0.0244212 -0 0.252024 -0 0.252724)
(0.246002 -0.0215379 -0 0.250889 -0 0.252605)
(0.248943 -0.0224457 -0 0.247767 -0 0.252693)
(0.250006 -0.0302996 -0 0.24583 -0 0.253346)
(0.252558 -0.043931 -0 0.241197 -0 0.255894)
(0.24389 -0.0792792 -1.02806e-19 0.244346 -0 0.264083)
(0.248542 -0.0442965 -0 0.251287 -0 0.250103)
(0.245401 -0.0419596 -0 0.254667 -0 0.249699)
(0.241796 -0.0385045 -0 0.258468 -0 0.249271)
(0.23896 -0.0353941 -0 0.261252 -0 0.248974)
(0.238667 -0.0346452 -0 0.261491 -0 0.24854)
(0.236257 -0.0416858 -0 0.262575 -0 0.249166)
(0.232742 -0.0563562 -0 0.265022 -0 0.249503)
(0.213176 -0.0935394 1.43339e-19 0.282606 -0 0.252124)
(0.248783 -0.0406069 -0 0.251255 -0 0.249891)
(0.245804 -0.0412559 -0 0.254253 -0 0.249701)
(0.241421 -0.0422451 -0 0.258455 -0 0.249646)
(0.235589 -0.0445182 -0 0.263828 -0 0.24978)
(0.229374 -0.0501451 -0 0.269555 -0 0.24983)
(0.220328 -0.0645366 -0 0.277261 -0 0.250573)
(0.209715 -0.0901314 -0 0.287278 -0 0.250837)
(0.19824 -0.104484 9.79416e-21 0.298912 -0 0.25129)
(0.247961 -0.036174 -0 0.251852 -0 0.250113)
(0.24379 -0.0366861 -0 0.256049 -0 0.249912)
(0.237512 -0.0384658 -0 0.262247 -0 0.249752)
(0.228815 -0.0428998 -0 0.270754 -0 0.249626)
(0.217684 -0.0521071 -0 0.28149 -0 0.249625)
(0.203758 -0.0704583 -0 0.294793 -0 0.249755)
(0.186446 -0.097793 -0 0.311114 -0 0.25074)
(0.182988 -0.095652 -1.68148e-19 0.314466 -0 0.251572)
(0.24684 -0.0289619 -0 0.252911 -0 0.250172)
(0.240707 -0.0294232 -0 0.259151 -0 0.249884)
(0.231983 -0.0314148 -0 0.267817 -0 0.249699)
(0.220539 -0.0365704 -0 0.279095 -0 0.249547)
(0.206211 -0.0468913 -0 0.293062 -0 0.24953)
(0.189381 -0.065278 -0 0.309513 -0 0.249471)
(0.171338 -0.0863291 -0 0.326267 -0 0.250826)
(0.16878 -0.0838154 -0 0.329503 -0 0.250946)
(0.245515 -0.0169654 -0 0.254179 -0 0.250226)
(0.237232 -0.0178031 -0 0.262604 -0 0.249899)
(0.226242 -0.020566 -0 0.273336 -0 0.249908)
(0.213077 -0.0264918 -0 0.285979 -0 0.250107)
(0.197656 -0.0364834 -0 0.300547 -0 0.250576)
(0.180668 -0.0510756 -0 0.317124 -0 0.250503)
(0.156208 -0.0709013 -0 0.339555 -0 0.252533)
(0.154772 -0.0688347 -0 0.341491 -0 0.252638)
(0.243743 0.000573536 -0 0.255923 -0 0.250256)
(0.232998 -0.00338877 -0 0.267493 -0 0.24925)
(0.221279 -0.00920878 -0 0.279423 -0 0.248796)
(0.210994 -0.0160151 -0 0.289302 -0 0.248873)
(0.201998 -0.0222104 -0 0.297262 -0 0.249475)
(0.193364 -0.0282609 -0 0.305183 -0 0.249577)
(0.178308 -0.0341416 -0 0.318609 -0 0.250667)
(0.155609 -0.0417304 -0 0.339922 -0 0.25233)
(0.239554 0.024655 -0 0.257157 -0 0.253262)
(0.236297 0.015192 -0 0.260834 -0 0.252795)
(0.23502 0.0089644 -0 0.262547 -0 0.252307)
(0.235026 0.00706947 -0 0.26321 -0 0.251553)
(0.234421 0.00925978 -0 0.264299 -0 0.250978)
(0.232807 0.0129296 -0 0.266512 -0 0.250392)
(0.228044 0.018295 -0 0.271757 -0 0.250122)
(0.21962 0.0219558 4.84913e-20 0.281375 -0 0.2505)
(0.251699 0.116955 -0 0.251412 -0 0.251441)
(0.255059 0.118564 -0 0.254889 -0 0.254979)
(0.260004 0.120842 -0 0.259736 -0 0.259887)
(0.266671 0.123909 -0 0.266273 -0 0.266467)
(0.275926 0.128202 -0 0.275492 -0 0.275696)
(0.288613 0.134124 -0 0.288272 -0 0.288434)
(0.305462 0.142047 -0 0.305481 -0 0.305492)
(0.330133 0.153683 -1.48574e-21 0.330863 -0 0.33051)
(0.182603 -0.00379052 -0 0.120104 -0 0.154449)
(0.491611 0.0205697 -0 0.19827 -0 0.349397)
(0.770562 0.118113 -7.00154e-21 0.325222 -0 0.533164)
(0.904124 0.214399 1.53927e-19 0.449511 -7.2136e-20 0.663978)
(0.946997 0.288054 6.73097e-21 0.555659 1.55176e-20 0.74441)
(0.954787 0.337979 -0 0.646334 -0 0.79587)
(0.942464 0.36732 -0 0.714649 -0 0.824184)
(0.92352 0.383401 -1.41568e-20 0.763867 -0 0.839367)
(0.902751 0.391549 1.99218e-19 0.79867 -3.76901e-21 0.847025)
(0.883283 0.395567 -1.72833e-19 0.824646 -1.7334e-21 0.851179)
(0.865338 0.397366 -1.22194e-19 0.845568 1.45728e-20 0.85357)
(0.849595 0.397977 -9.71084e-21 0.863356 -0 0.855041)
(0.834214 0.397017 -5.79119e-23 0.87701 1.97657e-20 0.853917)
(0.81249 0.392451 -0 0.884183 -0 0.845857)
(0.785263 0.385139 -4.34126e-23 0.888119 1.4817e-20 0.833524)
(0.752655 0.374638 -0 0.886635 -0 0.816167)
(0.713646 0.360363 -0 0.879254 -0 0.792729)
(0.670359 0.343324 -0 0.870346 -0 0.766458)
(0.618317 0.320792 -5.61751e-21 0.855675 -0 0.732887)
(0.562589 0.294424 1.30953e-19 0.843602 5.04065e-20 0.698724)
(0.501391 0.261315 7.28991e-21 0.832269 -0 0.661957)
(0.438302 0.21972 -9.46677e-20 0.825782 -5.01697e-20 0.626208)
(0.374712 0.164767 -1.40831e-21 0.817582 -0 0.589012)
(0.319576 0.0953482 -0 0.802039 -0 0.552696)
(0.282978 0.0179018 -0 0.767389 -0 0.51733)
(0.271344 -0.0538153 7.27888e-21 0.714544 -1.30254e-20 0.486021)
(0.281709 -0.10951 -3.62385e-20 0.657679 3.69025e-20 0.46459)
(0.301456 -0.146043 -6.3218e-20 0.602593 1.50179e-20 0.449353)
(0.321018 -0.166687 -5.39652e-21 0.552343 -0 0.435593)
(0.337622 -0.177168 3.18837e-23 0.511096 -1.08821e-20 0.423937)
(0.350651 -0.181865 -4.08928e-21 0.479272 -0 0.414604)
(0.358006 -0.182342 7.4621e-20 0.452484 -1.59158e-20 0.404749)
(0.359167 -0.179673 -6.91678e-20 0.427966 4.76858e-21 0.393105)
(0.355984 -0.17526 6.41053e-20 0.40557 -2.99652e-21 0.380415)
(0.350205 -0.170045 5.40802e-21 0.385261 -0 0.367415)
(0.34297 -0.164566 -5.95966e-20 0.366882 -5.37167e-21 0.354664)
(0.335076 -0.159168 -6.39788e-20 0.350446 -1.99802e-23 0.342566)
(0.326897 -0.154016 5.48147e-20 0.335916 -4.81447e-21 0.331264)
(0.318579 -0.149078 2.0257e-21 0.322742 -0 0.320568)
(0.309798 -0.143995 -0 0.309594 -0 0.309611)
(0.29895 -0.137955 3.40068e-21 0.294561 -0 0.296633)
(0.284313 -0.130319 -9.24328e-20 0.276537 -3.60229e-21 0.280291)
(0.266358 -0.121498 -3.0268e-21 0.256683 -0 0.261439)
(0.247605 -0.112765 -2.67833e-21 0.237871 -0 0.242716)
(0.23136 -0.10549 7.31271e-20 0.222729 3.33936e-21 0.227062)
(0.219337 -0.100315 8.37643e-23 0.212377 3.33333e-21 0.215867)
(0.212158 -0.0972109 6.56241e-20 0.20615 2.73217e-21 0.209158)
(0.208576 -0.0957341 2.29866e-21 0.20333 3.19214e-21 0.205965)
(0.20823 -0.0952903 -0 0.201719 -0 0.205187)
(0.208275 -0.0955471 -0 0.202168 -0 0.206347)
(0.254003 -0.0502591 -0 0.128907 -0 0.19258)
(0.612564 -0.0732636 1.31791e-22 0.273623 -2.77055e-20 0.439282)
(0.933212 -0.109759 1.62981e-20 0.37468 -4.83482e-20 0.631981)
(1.12635 -0.173286 -4.31157e-19 0.490627 2.3778e-19 0.812196)
(1.32515 -0.286005 -5.73671e-19 0.711688 3.95172e-19 1.05801)
(1.63544 -0.475321 -6.0251e-20 1.06419 -0 1.4071)
(1.90544 -0.682448 -1.063e-21 1.41334 2.23468e-19 1.71601)
(2.10391 -0.866222 9.75928e-20 1.70352 -0 1.95311)
(2.20398 -0.953719 -1.44613e-18 1.92035 -2.28682e-19 2.10154)
(2.24534 -1.0048 1.41995e-18 2.07401 -7.02225e-20 2.18964)
(2.23667 -1.02799 -4.3329e-20 2.17427 -2.2125e-19 2.2256)
(2.19606 -1.03423 9.09031e-20 2.24446 -0 2.23439)
(2.12283 -1.02407 -9.82671e-19 2.28471 -1.09087e-19 2.2209)
(2.03703 -1.00423 -4.94375e-20 2.30993 -0 2.19263)
(1.93443 -0.970614 -6.68228e-19 2.30401 -5.69126e-19 2.13711)
(1.82719 -0.929816 -8.61054e-20 2.27536 -0 2.06908)
(1.712 -0.881187 9.62577e-22 2.22223 -2.02356e-19 1.9855)
(1.59007 -0.826318 -0 2.15205 -0 1.89009)
(1.45758 -0.763422 8.47572e-20 2.06242 -0 1.77912)
(1.31009 -0.690032 -9.83785e-19 1.94701 -6.5708e-19 1.64749)
(1.14589 -0.604733 -9.07061e-20 1.7993 5.62643e-20 1.49083)
(0.974129 -0.511904 3.83378e-19 1.62271 6.05132e-19 1.31399)
(0.816113 -0.424061 1.49143e-20 1.4371 -0 1.13848)
(0.682881 -0.349856 -0 1.25357 -0 0.976714)
(0.588191 -0.298145 -2.33029e-20 1.10331 -0 0.850501)
(0.528113 -0.267084 2.8614e-19 0.993639 -2.43287e-19 0.763952)
(0.487719 -0.247751 7.13413e-20 0.909048 -5.00218e-20 0.701422)
(0.461016 -0.235983 6.12227e-19 0.844838 -2.62406e-19 0.656657)
(0.441156 -0.227683 1.5525e-20 0.7917 -0 0.621147)
(0.426789 -0.222052 6.84801e-19 0.746794 -1.27238e-19 0.592574)
(0.418724 -0.219432 2.22523e-20 0.709198 -0 0.570259)
(0.410766 -0.216342 5.74506e-19 0.668404 7.16889e-20 0.54577)
(0.413003 -0.182525 5.47482e-19 0.605959 -5.45018e-20 0.514823)
(0.408204 -0.148946 -4.97628e-19 0.545951 4.26556e-20 0.481512)
(0.398453 -0.119777 -8.38886e-20 0.492334 -0 0.448812)
(0.38614 -0.0960292 1.59794e-18 0.446388 1.58638e-20 0.418852)
(0.37289 -0.0773558 5.47034e-19 0.407348 -1.6596e-20 0.392144)
(0.360092 -0.0637031 5.51218e-19 0.374244 1.42127e-19 0.368822)
(0.347004 -0.0545656 1.74838e-20 0.346694 -0 0.347975)
(0.330402 -0.0486792 -0 0.324406 -0 0.328249)
(0.311253 -0.0451626 -2.96378e-20 0.304709 -0 0.309302)
(0.293879 -0.0437848 8.007e-19 0.283702 5.79343e-21 0.290379)
(0.279789 -0.0430332 2.46358e-20 0.259127 9.6528e-20 0.27056)
(0.268973 -0.0423263 2.18486e-20 0.232031 -0 0.250926)
(0.259682 -0.0404732 -5.72571e-19 0.206705 7.35913e-20 0.232918)
(0.251372 -0.0387313 -5.82267e-19 0.185684 -6.79854e-20 0.218085)
(0.241657 -0.0364475 -5.35976e-19 0.170507 -8.04206e-20 0.205561)
(0.23186 -0.0354133 -5.66973e-19 0.161548 -6.55276e-20 0.197215)
(0.219564 -0.0333758 -1.84081e-20 0.162351 -0 0.19273)
(0.208101 -0.0367484 3.38651e-22 0.167834 -7.11924e-20 0.192614)
(0.260986 -0.0881673 -1.04851e-20 0.166879 -0 0.217248)
(0.638563 -0.167043 6.32933e-20 0.38734 -4.71014e-19 0.516092)
(0.957476 -0.28047 3.4949e-19 0.560975 -8.70742e-19 0.748512)
(1.22411 -0.423905 5.44525e-20 0.798312 -3.76373e-20 1.02541)
(1.62284 -0.637162 5.92458e-19 1.22706 -2.5808e-19 1.45723)
(2.08386 -0.87104 2.00004e-19 1.7299 -4.21047e-19 1.92102)
(2.42066 -1.04098 -9.95711e-19 2.11196 1.33316e-19 2.25694)
(2.63692 -1.15631 -5.74947e-19 2.37937 -6.6674e-19 2.49066)
(2.73875 -1.22413 1.3379e-18 2.5534 3.4311e-19 2.62881)
(2.75585 -1.25713 1.38463e-19 2.66509 9.63679e-19 2.69535)
(2.72296 -1.26905 1.53512e-18 2.74377 -2.80717e-20 2.72127)
(2.66553 -1.26875 2.32499e-19 2.80656 -0 2.72618)
(2.57173 -1.24835 8.35704e-19 2.83032 -6.51268e-19 2.6949)
(2.45829 -1.21459 -4.56927e-19 2.82835 -0 2.63975)
(2.31983 -1.1631 1.95252e-18 2.7825 1.41847e-18 2.54841)
(2.17284 -1.10181 1.86562e-19 2.70198 -0 2.43552)
(2.0205 -1.03408 4.70556e-19 2.59571 7.56509e-19 2.30828)
(1.86508 -0.962382 1.86004e-19 2.47485 3.5777e-19 2.17286)
(1.71032 -0.888836 -8.85592e-20 2.34724 -0 2.03355)
(1.54905 -0.809831 7.2587e-19 2.20216 5.97821e-19 1.88197)
(1.36365 -0.716536 4.44572e-19 2.01792 -9.56775e-19 1.69988)
(1.14825 -0.605097 2.72086e-19 1.7789 -1.49541e-18 1.47409)
(0.937942 -0.493901 -3.80235e-20 1.514 -1.05978e-20 1.23411)
(0.763561 -0.401113 -1.49212e-22 1.26422 2.53539e-20 1.01778)
(0.624905 -0.328014 3.32293e-20 1.03929 -4.71519e-20 0.832912)
(0.522417 -0.27452 -3.81098e-19 0.856316 4.02945e-19 0.688943)
(0.457079 -0.240415 -6.61975e-19 0.731215 2.59758e-19 0.594034)
(0.418965 -0.220351 -6.31206e-19 0.6525 4.1747e-19 0.536151)
(0.400298 -0.210363 8.20798e-22 0.607026 -0 0.504489)
(0.393034 -0.206179 -9.72651e-19 0.580699 4.098e-19 0.487669)
(0.392409 -0.205181 5.13171e-20 0.563961 -0 0.478387)
(0.393459 -0.19407 -3.31629e-18 0.540638 3.38278e-19 0.467067)
(0.398602 -0.157087 -1.3993e-19 0.504769 3.08007e-20 0.452046)
(0.398556 -0.124316 1.14923e-21 0.470852 -2.01189e-19 0.434749)
(0.393719 -0.0963073 6.33699e-20 0.439196 3.40862e-19 0.416173)
(0.385253 -0.0732505 -1.83594e-18 0.410208 1.32233e-19 0.397279)
(0.375502 -0.0549792 5.73928e-20 0.384262 2.85448e-20 0.379282)
(0.36598 -0.0410614 -3.57038e-18 0.361293 -1.48007e-19 0.362834)
(0.355375 -0.031028 -1.19878e-19 0.341187 -0 0.347409)
(0.341341 -0.0242903 -0 0.324046 -0 0.331897)
(0.323594 -0.019409 1.76891e-21 0.30942 -3.00572e-19 0.315259)
(0.305367 -0.0159835 9.96761e-20 0.293853 4.82118e-20 0.2981)
(0.290579 -0.0145528 -2.91726e-18 0.274527 -6.64518e-19 0.281171)
(0.280701 -0.0156256 -2.84998e-21 0.250518 -0 0.264689)
(0.273718 -0.0189214 -2.50539e-18 0.224158 -1.89302e-19 0.248492)
(0.267454 -0.0234559 9.73695e-19 0.199958 2.39574e-19 0.233933)
(0.261362 -0.0287498 2.14048e-18 0.182812 5.18833e-19 0.222471)
(0.255134 -0.0338362 1.07828e-18 0.173992 2.44633e-20 0.215684)
(0.247376 -0.0387464 -2.96404e-20 0.176831 -0 0.211857)
(0.234665 -0.0403785 1.97173e-18 0.184815 1.32103e-19 0.210002)
(0.231044 -0.0968929 1.3913e-20 0.191938 -0 0.215178)
(0.590686 -0.21026 -9.85955e-20 0.476734 7.26431e-19 0.537979)
(0.899407 -0.359409 -5.59899e-19 0.706487 1.92405e-18 0.795019)
(1.18898 -0.514259 -1.80857e-19 1.01352 -0 1.10893)
(1.64366 -0.727478 6.74245e-19 1.48294 -1.36813e-18 1.5825)
(2.15718 -0.952151 1.46696e-19 1.95112 -4.67254e-19 2.06628)
(2.54538 -1.1237 1.40375e-18 2.3097 -1.39487e-18 2.43168)
(2.79781 -1.24545 1.30523e-18 2.57675 6.22533e-19 2.69006)
(2.92571 -1.32056 -1.00499e-18 2.76043 -5.96207e-19 2.84824)
(2.96051 -1.35868 -1.13013e-18 2.87961 -1.57013e-18 2.92743)
(2.93706 -1.37195 -6.0547e-19 2.95717 2.03762e-18 2.9553)
(2.87726 -1.36791 -3.71154e-19 3.00554 -8.90289e-19 2.95)
(2.77796 -1.3434 1.11555e-18 3.01545 -4.66408e-19 2.90521)
(2.64553 -1.29989 7.56567e-19 2.98696 -0 2.82345)
(2.48023 -1.23567 -1.34739e-18 2.90814 8.32463e-19 2.69958)
(2.3042 -1.16089 -3.86951e-19 2.79488 -0 2.55297)
(2.12215 -1.07951 -8.60666e-19 2.65792 4.43919e-19 2.39245)
(1.94148 -0.996718 6.3002e-19 2.51496 -2.07993e-18 2.23107)
(1.76666 -0.91459 -2.1921e-19 2.37256 -0 2.0723)
(1.59476 -0.831284 -8.60872e-20 2.22048 1.37329e-19 1.90985)
(1.40315 -0.735968 -5.25404e-19 2.03228 1.20035e-18 1.7211)
(1.17737 -0.621106 -6.43098e-19 1.7811 1.15547e-18 1.4844)
(0.937584 -0.497688 -1.2718e-18 1.46892 1.26768e-18 1.20796)
(0.725166 -0.388318 -1.25982e-18 1.14931 1.01003e-18 0.939344)
(0.571789 -0.308189 1.12785e-18 0.890934 -7.37846e-19 0.731864)
(0.478527 -0.256674 -6.12678e-20 0.717486 6.3841e-20 0.598153)
(0.429871 -0.227428 2.17764e-18 0.615947 -1.07257e-18 0.523583)
(0.40792 -0.21298 -1.20138e-18 0.561056 1.5552e-19 0.485916)
(0.399062 -0.206399 2.5e-21 0.530261 -0 0.46672)
(0.397174 -0.203814 -1.92534e-18 0.51197 -9.2962e-20 0.456789)
(0.399143 -0.203146 -1.81591e-19 0.499908 3.06246e-19 0.451289)
(0.402582 -0.180488 2.76563e-18 0.480848 4.17881e-20 0.442971)
(0.404834 -0.142966 7.27665e-21 0.456347 -0 0.431518)
(0.404018 -0.110655 3.24196e-18 0.43231 1.66919e-19 0.418573)
(0.399528 -0.0839437 -6.04501e-18 0.409706 -1.22309e-18 0.404839)
(0.391404 -0.0621894 -2.00961e-19 0.388667 -1.35e-19 0.390188)
(0.381681 -0.0450405 -8.93326e-20 0.369081 -7.0603e-19 0.375517)
(0.372165 -0.0320764 2.89266e-18 0.351129 -2.1764e-19 0.361828)
(0.362203 -0.0227545 9.21126e-20 0.334993 -0 0.348824)
(0.34954 -0.0161472 -1.77528e-19 0.320696 6.75872e-19 0.335447)
(0.332982 -0.0120587 5.45197e-18 0.308035 8.8204e-19 0.320996)
(0.314601 -0.0105455 -1.53743e-19 0.295642 -0 0.305625)
(0.298511 -0.0110895 9.71822e-18 0.280587 3.2448e-19 0.290055)
(0.286803 -0.0135822 2.80862e-19 0.260913 -0 0.274425)
(0.27882 -0.0179038 1.148e-19 0.237933 -7.17247e-19 0.258822)
(0.273278 -0.023692 -3.60359e-18 0.215897 -2.19737e-19 0.24502)
(0.269495 -0.0305367 -7.26052e-18 0.200049 -1.33954e-18 0.234911)
(0.266448 -0.0380263 -2.20812e-19 0.192691 5.29305e-19 0.229869)
(0.262485 -0.0456503 3.2571e-21 0.194543 -4.45435e-19 0.228034)
(0.252886 -0.052797 6.79717e-20 0.202024 6.04779e-19 0.227821)
(0.203666 -0.0958573 -1.81606e-20 0.207257 -0 0.207804)
(0.53202 -0.225 -8.45166e-20 0.53479 -1.08165e-18 0.535087)
(0.826764 -0.384169 2.86884e-19 0.799623 1.70662e-18 0.806557)
(1.11507 -0.540504 -1.13037e-19 1.13227 -0 1.12385)
(1.57168 -0.741417 2.3621e-19 1.58437 2.356e-18 1.58592)
(2.09649 -0.958882 -3.92037e-19 2.01512 2.46852e-18 2.06247)
(2.50686 -1.13277 1.55353e-19 2.36418 8.38843e-19 2.43931)
(2.78215 -1.26079 -1.33272e-18 2.64027 1.87511e-18 2.71394)
(2.93225 -1.3429 -1.95639e-18 2.83819 1.02797e-18 2.88851)
(2.9878 -1.38663 2.43661e-18 2.96753 -1.13234e-18 2.98071)
(2.97617 -1.40093 1.11088e-18 3.04253 -3.6051e-18 3.01184)
(2.92162 -1.39451 -1.84342e-18 3.07649 2.11311e-18 3.00209)
(2.83025 -1.36912 -1.72639e-19 3.07171 3.06186e-18 2.95451)
(2.69689 -1.32191 9.9044e-19 3.0223 2.37425e-18 2.86245)
(2.52535 -1.25309 1.32411e-18 2.92254 -4.93791e-18 2.72602)
(2.3401 -1.17375 -5.15096e-19 2.79242 -0 2.56753)
(2.14644 -1.08747 -1.4627e-18 2.6414 1.68285e-18 2.39481)
(1.94706 -0.996643 -8.98517e-19 2.47912 2.81757e-19 2.21444)
(1.75528 -0.9074 2.88333e-19 2.31912 -0 2.03855)
(1.57295 -0.820112 -0 2.15616 -0 1.86532)
(1.37307 -0.722207 2.1885e-21 1.96034 -3.02205e-19 1.66796)
(1.13298 -0.602797 2.38791e-20 1.68916 8.5613e-20 1.41335)
(0.881947 -0.478194 4.23666e-18 1.3548 -3.62453e-18 1.1202)
(0.675951 -0.373996 -3.16204e-19 1.03603 -1.14382e-19 0.856242)
(0.537362 -0.298063 -1.61742e-18 0.792369 1.26898e-18 0.664099)
(0.458387 -0.248465 -1.80353e-18 0.63589 1.0457e-18 0.546352)
(0.420514 -0.220395 -1.91161e-18 0.548264 1.36993e-18 0.484124)
(0.405932 -0.207166 4.0633e-18 0.503346 -1.48081e-18 0.455013)
(0.403071 -0.202271 -5.8728e-21 0.480928 -0 0.442892)
(0.405679 -0.201224 6.44236e-18 0.469739 -7.66588e-19 0.438786)
(0.408955 -0.200916 -3.60277e-18 0.461991 1.33413e-19 0.436478)
(0.412935 -0.17002 -9.20976e-18 0.448704 1.28207e-19 0.431719)
(0.413636 -0.133535 -1.51606e-19 0.431265 -0 0.423149)
(0.411567 -0.101933 -5.336e-18 0.412594 5.6041e-19 0.412507)
(0.406272 -0.0760205 1.91777e-17 0.39476 -1.15445e-18 0.400833)
(0.397483 -0.0551833 2.9864e-19 0.378028 -0 0.38799)
(0.386845 -0.0389459 9.30427e-18 0.362043 2.82632e-18 0.374621)
(0.376437 -0.0266996 2.65501e-19 0.346915 2.76385e-19 0.361829)
(0.366131 -0.0176013 2.52282e-19 0.333024 -0 0.349672)
(0.353539 -0.011393 -8.48447e-18 0.320779 -3.90867e-19 0.33704)
(0.337357 -0.00811649 -8.75968e-18 0.309673 9.17009e-20 0.323532)
(0.318908 -0.00747639 -2.35275e-19 0.299191 -0 0.309167)
(0.301875 -0.00904607 -1.91635e-20 0.286755 2.13453e-18 0.294444)
(0.288643 -0.0124076 -2.01337e-19 0.269803 -0 0.279373)
(0.279462 -0.0172218 6.55967e-18 0.248804 5.49679e-19 0.264188)
(0.27369 -0.0233527 -1.79894e-19 0.228027 -1.38364e-18 0.250933)
(0.271168 -0.0306538 1.15551e-17 0.212565 3.68808e-19 0.241802)
(0.269967 -0.0390518 -5.32277e-18 0.205624 -1.45411e-18 0.237935)
(0.267883 -0.0477254 5.38696e-18 0.206712 1.42242e-18 0.237101)
(0.260447 -0.0571822 -5.062e-18 0.213787 4.06113e-19 0.237705)
(0.183815 -0.0917341 2.31409e-20 0.216187 -0 0.201008)
(0.486745 -0.227887 1.27984e-19 0.572748 2.5184e-18 0.528787)
(0.765945 -0.386282 -4.07236e-19 0.855976 -3.93258e-18 0.805985)
(1.04788 -0.544456 4.80961e-19 1.19438 1.74644e-18 1.12061)
(1.50452 -0.738594 2.58289e-18 1.6295 2.40518e-18 1.57182)
(2.03066 -0.952242 -5.6298e-19 2.03788 -1.21836e-18 2.03748)
(2.44695 -1.12523 -0 2.37601 -0 2.41276)
(2.72989 -1.25415 7.47795e-19 2.65041 -1.89206e-18 2.6905)
(2.8906 -1.33863 9.4775e-19 2.85133 -1.42574e-18 2.87138)
(2.95848 -1.38485 -1.77077e-18 2.98209 -2.02544e-18 2.97052)
(2.95304 -1.3986 -6.1054e-19 3.04997 3.30285e-18 3.00177)
(2.90522 -1.39184 2.31733e-18 3.07584 -4.52165e-18 2.9911)
(2.82416 -1.36779 1.1779e-18 3.06463 -3.93674e-21 2.94506)
(2.69368 -1.31902 1.9685e-18 3.0012 -6.45852e-18 2.84763)
(2.52036 -1.24768 -2.57128e-18 2.88712 1.16769e-18 2.70356)
(2.33007 -1.16567 1.1274e-18 2.74602 -3.01501e-18 2.53754)
(2.12906 -1.07652 2.10835e-18 2.58659 -5.83841e-18 2.35723)
(1.92315 -0.983696 -4.27857e-18 2.41971 6.61438e-18 2.17103)
(1.72602 -0.893115 3.42254e-19 2.25561 1.69543e-18 1.99036)
(1.53983 -0.805265 -1.53542e-19 2.08969 -0 1.81379)
(1.33376 -0.706158 -4.37971e-18 1.88889 4.29621e-18 1.61062)
(1.08724 -0.586733 1.00412e-19 1.60878 4.50596e-19 1.34789)
(0.834274 -0.46521 -3.47446e-18 1.26659 2.61865e-18 1.05018)
(0.634714 -0.363814 6.54373e-18 0.948572 -4.53409e-18 0.790809)
(0.508543 -0.289269 3.64339e-20 0.715895 -1.34457e-19 0.611105)
(0.443083 -0.241034 -1.00387e-19 0.57546 -5.52377e-19 0.50835)
(0.416726 -0.214908 -2.9073e-18 0.502466 6.48862e-19 0.459096)
(0.410206 -0.20373 -3.36568e-18 0.467812 1.81377e-18 0.438946)
(0.411807 -0.200107 1.18969e-19 0.451348 -7.79166e-19 0.431816)
(0.416467 -0.199702 -1.03301e-17 0.444018 3.76953e-19 0.430557)
(0.41957 -0.199422 5.7706e-18 0.438921 -1.66014e-18 0.429541)
(0.422029 -0.166079 1.4183e-17 0.430302 -2.85454e-18 0.426449)
(0.42162 -0.129922 3.65703e-19 0.417251 2.48978e-18 0.4196)
(0.418101 -0.098309 2.4445e-20 0.401668 -3.12198e-18 0.409976)
(0.411792 -0.0724719 3.53807e-21 0.386523 4.94708e-18 0.39923)
(0.402232 -0.0519007 7.15114e-19 0.372216 -0 0.387273)
(0.390715 -0.0359935 -2.85057e-17 0.35831 -4.34733e-18 0.374543)
(0.379467 -0.0239957 -6.90018e-19 0.344835 -0 0.36217)
(0.368682 -0.0150462 -4.0377e-22 0.332135 -0 0.350387)
(0.356223 -0.00895254 3.14042e-20 0.320493 -3.48594e-18 0.338363)
(0.340135 -0.0059015 7.87761e-21 0.310461 -1.07063e-18 0.325292)
(0.321571 -0.00570567 3.01265e-19 0.301317 -0 0.311445)
(0.303897 -0.00780511 -1.17079e-17 0.290601 -3.10212e-18 0.297235)
(0.28957 -0.0116011 -2.70763e-19 0.27552 -0 0.282546)
(0.279393 -0.0166105 -2.40827e-19 0.255939 -1.12729e-18 0.26764)
(0.273119 -0.0227657 9.30635e-18 0.236121 2.85353e-18 0.254641)
(0.270913 -0.0300077 2.08407e-20 0.221096 3.34656e-18 0.245968)
(0.270598 -0.0387978 8.63376e-18 0.214336 1.90562e-19 0.242576)
(0.269291 -0.0477037 -7.85509e-18 0.215071 1.55529e-18 0.242116)
(0.262943 -0.0582104 -8.34785e-18 0.22211 -3.25154e-18 0.242844)
(0.170927 -0.0876686 2.72607e-20 0.220783 -0 0.196322)
(0.452656 -0.22557 6.99847e-19 0.592661 1.34494e-18 0.520859)
(0.722002 -0.37833 1.03915e-19 0.889327 7.57587e-19 0.802597)
(0.996268 -0.542212 2.5445e-18 1.23021 7.05562e-18 1.11407)
(1.44495 -0.729624 -4.03082e-18 1.64601 -1.08625e-17 1.54921)
(1.96435 -0.938245 6.22817e-19 2.03302 -0 2.00011)
(2.38283 -1.10994 -0 2.36139 -0 2.37207)
(2.67141 -1.23953 -7.77398e-19 2.63387 -0 2.65195)
(2.84011 -1.32592 -5.85374e-18 2.83685 2.79952e-19 2.83778)
(2.91628 -1.37399 -3.52658e-18 2.96875 1.0798e-17 2.94177)
(2.91366 -1.38678 5.62431e-18 3.03037 -2.59215e-18 2.97136)
(2.87061 -1.37968 -7.43501e-18 3.04972 3.11309e-20 2.95958)
(2.79668 -1.3564 3.4513e-19 3.03291 -8.23224e-18 2.91429)
(2.66976 -1.30707 -4.47202e-18 2.96051 -8.27379e-20 2.8143)
(2.49746 -1.23492 7.7536e-20 2.83832 3.04318e-18 2.66693)
(2.3068 -1.15252 -6.73871e-18 2.69281 7.93063e-18 2.49873)
(2.10401 -1.06316 -5.29505e-18 2.53168 5.41236e-18 2.31675)
(1.89681 -0.970849 6.39474e-18 2.36554 -2.83548e-18 2.13024)
(1.69849 -0.880959 6.39471e-18 2.20174 -6.91465e-18 1.94923)
(1.51063 -0.793647 -1.58596e-19 2.03517 2.93864e-18 1.7718)
(1.29962 -0.694012 6.48557e-18 1.83036 -6.13896e-18 1.56411)
(1.04784 -0.575081 6.61259e-18 1.54251 -4.17522e-18 1.29487)
(0.794848 -0.456402 -7.32244e-20 1.1956 3.37006e-19 0.995095)
(0.604569 -0.357257 3.23613e-19 0.883183 3.22667e-19 0.743508)
(0.491491 -0.283848 -8.35537e-20 0.663678 -6.39361e-19 0.577)
(0.436874 -0.236507 4.24e-18 0.536545 -2.42256e-18 0.486187)
(0.41775 -0.211338 4.61055e-18 0.473052 -2.60786e-18 0.445116)
(0.415706 -0.201157 -6.51591e-21 0.444294 -5.30172e-19 0.430003)
(0.419754 -0.198212 5.93281e-18 0.431415 -1.25866e-18 0.425799)
(0.425333 -0.198198 2.40388e-17 0.426678 -5.9078e-18 0.426268)
(0.428214 -0.19811 7.02632e-19 0.423709 -1.30674e-18 0.426213)
(0.429233 -0.164212 4.19522e-19 0.418171 2.1619e-18 0.423932)
(0.427927 -0.128434 -2.26133e-17 0.408003 3.25661e-20 0.418113)
(0.4232 -0.0968081 2.24056e-17 0.394541 6.52975e-19 0.408971)
(0.416012 -0.0709334 -2.19896e-17 0.381159 3.66632e-18 0.398662)
(0.405781 -0.0504267 -1.34076e-18 0.368407 2.37651e-18 0.387145)
(0.393576 -0.034624 4.30224e-17 0.355873 -2.79013e-18 0.374756)
(0.381645 -0.0226874 8.40341e-19 0.34347 -0 0.362577)
(0.370415 -0.0137491 -4.01196e-19 0.331508 -0 0.350963)
(0.357836 -0.00765263 1.98999e-17 0.320441 2.36735e-18 0.339158)
(0.341837 -0.00467367 3.93338e-19 0.31096 -0 0.326396)
(0.323254 -0.0047005 -3.75416e-19 0.302578 -0 0.312913)
(0.305196 -0.00708002 1.76671e-17 0.292944 5.41006e-19 0.299057)
(0.290134 -0.0110828 -3.28202e-21 0.279143 -0 0.284641)
(0.279193 -0.0161232 1.56301e-17 0.260656 2.33491e-18 0.269912)
(0.272435 -0.0221827 -1.35503e-17 0.241593 -6.91247e-19 0.257032)
(0.270182 -0.0292322 -1.35748e-17 0.226959 -7.54961e-19 0.248541)
(0.270237 -0.0380989 -2.21312e-20 0.22029 1.44075e-18 0.245324)
(0.269253 -0.0470276 -1.28318e-17 0.220823 -3.38328e-18 0.244967)
(0.263648 -0.0580644 1.20446e-17 0.227596 -7.95484e-19 0.245793)
(0.163169 -0.0848037 -2.95858e-20 0.222465 -0 0.194009)
(0.428542 -0.222344 -9.49752e-19 0.603117 -4.17153e-18 0.514556)
(0.689409 -0.368086 9.77715e-20 0.912759 -0 0.797229)
(0.952646 -0.536584 9.40512e-19 1.25972 -1.36102e-17 1.10269)
(1.39224 -0.719017 -1.52482e-19 1.65785 1.64905e-17 1.52245)
(1.9055 -0.924275 -0 2.02589 -0 1.96211)
(2.32409 -1.09453 1.10696e-19 2.34405 -1.1e-17 2.33046)
(2.61543 -1.22387 7.26618e-19 2.61236 -0 2.6106)
(2.78882 -1.31102 7.36027e-18 2.81449 6.72367e-18 2.79894)
(2.87074 -1.3602 1.19961e-17 2.9461 -1.24202e-18 2.90619)
(2.87071 -1.37228 -8.1045e-18 3.00207 -2.16747e-17 2.93468)
(2.83165 -1.3649 -2.16857e-18 3.01526 2.29858e-17 2.92209)
(2.76294 -1.342 -9.65871e-18 2.99318 1.1468e-17 2.87705)
(2.6396 -1.29255 1.00617e-18 2.91406 4.77209e-18 2.77602)
(2.46931 -1.22033 6.2746e-19 2.78666 -0 2.62745)
(2.28007 -1.1385 6.93095e-18 2.63926 -3.84613e-19 2.45936)
(2.07746 -1.0499 5.95312e-18 2.47829 -1.20006e-18 2.27783)
(1.8707 -0.958997 -7.98357e-19 2.31412 -2.62983e-18 2.09278)
(1.67249 -0.870516 -6.26948e-18 2.15164 2.62593e-18 1.91265)
(1.48342 -0.78406 1.54386e-17 1.9847 -9.82005e-18 1.73463)
(1.26764 -0.684222 -1.55481e-17 1.77534 1.11945e-17 1.52248)
(1.01121 -0.566156 7.98238e-18 1.48007 -7.78265e-18 1.24722)
(0.759616 -0.450029 1.24006e-17 1.13049 -8.62192e-18 0.946575)
(0.579227 -0.351985 -5.18016e-18 0.825287 3.26714e-18 0.703049)
(0.478418 -0.278982 9.29537e-18 0.618345 -4.73811e-18 0.548691)
(0.43335 -0.232215 9.26461e-20 0.502953 5.05142e-19 0.468399)
(0.420422 -0.207831 -4.7021e-21 0.447672 6.37764e-19 0.434389)
(0.422109 -0.198508 1.14312e-19 0.42396 -0 0.423514)
(0.42788 -0.196055 -5.44551e-18 0.413993 2.95986e-18 0.421497)
(0.434017 -0.196424 -1.45422e-17 0.411572 5.33567e-18 0.423318)
(0.436674 -0.196623 1.71988e-17 0.410512 1.18519e-18 0.424078)
(0.436132 -0.163226 1.7682e-20 0.407497 -0 0.422181)
(0.433928 -0.127892 1.90367e-17 0.399752 -5.43188e-18 0.417097)
(0.428105 -0.0962567 -1.77267e-17 0.38818 4.81461e-18 0.408333)
(0.420078 -0.0702957 -1.82692e-17 0.376315 9.2531e-19 0.398344)
(0.409195 -0.0497663 -1.76955e-17 0.364905 -1.44589e-18 0.387162)
(0.396333 -0.0339669 -1.73522e-17 0.353591 6.27277e-18 0.375046)
(0.383724 -0.021992 -3.18319e-19 0.342163 -4.39865e-18 0.363009)
(0.372003 -0.0129732 3.40779e-19 0.3309 -0 0.351493)
(0.359245 -0.00680243 -1.50054e-17 0.320371 4.74739e-18 0.33985)
(0.343321 -0.00382683 -2.91724e-19 0.311376 -3.89219e-18 0.327371)
(0.324755 -0.00399208 3.10392e-19 0.303672 -0 0.314244)
(0.306366 -0.0065709 -1.28338e-17 0.29506 2.26367e-18 0.300742)
(0.290613 -0.0107028 2.97809e-20 0.282536 -3.2025e-18 0.286622)
(0.278881 -0.0156916 -1.11573e-17 0.265258 4.8049e-18 0.27209)
(0.271566 -0.0215601 9.68162e-18 0.247052 -4.37277e-18 0.259338)
(0.269083 -0.0283115 2.63595e-19 0.232942 -4.37359e-18 0.250961)
(0.26934 -0.0370521 -1.81129e-19 0.226371 -2.34524e-18 0.247862)
(0.268525 -0.0458865 8.45731e-18 0.226858 -3.74371e-18 0.24752)
(0.263725 -0.0571974 1.68027e-19 0.233163 3.84269e-18 0.248484)
(0.157182 -0.0822007 1.7422e-21 0.225892 -1.30428e-19 0.191708)
(0.410282 -0.214574 -1.05582e-20 0.612973 1.04918e-18 0.507611)
(0.662161 -0.357126 -6.88024e-19 0.933815 -0 0.789487)
(0.915565 -0.529422 -1.93973e-17 1.28306 -4.51635e-17 1.09143)
(1.34916 -0.709324 2.36036e-17 1.6606 3.36619e-17 1.50044)
(1.85644 -0.911413 -2.44143e-18 2.01044 2.04529e-18 1.92983)
(2.27276 -1.07961 -1.7109e-17 2.31954 -1.19584e-17 2.29278)
(2.56406 -1.20802 1.2723e-18 2.58387 -0 2.57072)
(2.73937 -1.2951 -1.04328e-18 2.78422 -1.85e-18 2.75916)
(2.82468 -1.34476 -1.16402e-17 2.91483 -1.81371e-17 2.86774)
(2.82608 -1.35594 -1.94536e-17 2.96522 2.65183e-18 2.89438)
(2.78983 -1.34813 2.68595e-17 2.97256 5.71741e-18 2.88048)
(2.72478 -1.32529 8.66255e-18 2.94559 8.19154e-18 2.83498)
(2.60481 -1.27597 -1.24793e-18 2.86136 -1.92517e-18 2.73357)
(2.43662 -1.20406 4.65601e-20 2.73108 -3.48566e-18 2.58456)
(2.24952 -1.12332 8.07572e-20 2.58379 -7.02215e-18 2.41753)
(2.04784 -1.03601 6.86408e-20 2.42428 -5.96259e-18 2.23724)
(1.84228 -0.947037 -0 2.26287 -0 2.05441)
(1.64461 -0.860344 -2.02799e-20 2.10232 2.13539e-18 1.87544)
(1.45399 -0.774786 2.07791e-18 1.93493 -4.65836e-18 1.69629)
(1.23286 -0.674847 1.69713e-17 1.71957 -8.02528e-18 1.47886)
(0.971609 -0.55782 -3.3816e-17 1.41607 1.97538e-17 1.19715)
(0.722813 -0.444021 -2.89115e-17 1.06475 1.78963e-17 0.896674)
(0.554166 -0.346369 2.35671e-19 0.768814 -1.57927e-19 0.662773)
(0.466809 -0.273609 -1.06538e-17 0.575711 7.23409e-18 0.52153)
(0.431605 -0.227494 -1.15899e-19 0.47201 -0 0.452006)
(0.424581 -0.203902 6.39217e-21 0.424278 -4.78541e-19 0.424722)