/*--------------------------------*- C++ -*----------------------------------*\
| =========                 |                                                 |
| \\      /  F ield         | OpenFOAM: The Open Source CFD Toolbox           |
|  \\    /   O peration     | Version:  2112                                  |
|   \\  /    A nd           | Website:  www.openfoam.com                      |
|    \\/     M anipulation  |                                                 |
\*---------------------------------------------------------------------------*/
FoamFile
{
    version     2.0;
    format      ascii;
    arch        "LSB;label=32;scalar=64";
    class       volScalarField;
    location    "0.29";
    object      pPrime2Mean;
}
// * * * * * * * * * * * * * * * * * * * * * * * * * * * * * * * * * * * * * //

dimensions      [0 4 -4 0 0 0 0];

internalField   nonuniform List<scalar> 
12225
(
1.69308e+06
1.66774e+06
1.64137e+06
1.61557e+06
1.59051e+06
1.56621e+06
1.54266e+06
1.51984e+06
1.49771e+06
1.47621e+06
1.45525e+06
1.43476e+06
1.41463e+06
1.39469e+06
1.37475e+06
1.35447e+06
1.33326e+06
1.3096e+06
1.69313e+06
1.66778e+06
1.6414e+06
1.6156e+06
1.59053e+06
1.56623e+06
1.54269e+06
1.51987e+06
1.49775e+06
1.47625e+06
1.4553e+06
1.43483e+06
1.41471e+06
1.39481e+06
1.37492e+06
1.35475e+06
1.3338e+06
1.31098e+06
1.69324e+06
1.66787e+06
1.64148e+06
1.61566e+06
1.59059e+06
1.56629e+06
1.54275e+06
1.51994e+06
1.49782e+06
1.47634e+06
1.45542e+06
1.43497e+06
1.4149e+06
1.39506e+06
1.3753e+06
1.35535e+06
1.33487e+06
1.31346e+06
1.69343e+06
1.66802e+06
1.64159e+06
1.61576e+06
1.59069e+06
1.56638e+06
1.54285e+06
1.52005e+06
1.49795e+06
1.47649e+06
1.4556e+06
1.4352e+06
1.4152e+06
1.39548e+06
1.3759e+06
1.35628e+06
1.33644e+06
1.31642e+06
1.69374e+06
1.66823e+06
1.64177e+06
1.61591e+06
1.59083e+06
1.56652e+06
1.54299e+06
1.52021e+06
1.49813e+06
1.47671e+06
1.45587e+06
1.43554e+06
1.41564e+06
1.39608e+06
1.37674e+06
1.35752e+06
1.3384e+06
1.31961e+06
1.6941e+06
1.66852e+06
1.642e+06
1.61612e+06
1.59102e+06
1.56672e+06
1.54319e+06
1.52043e+06
1.49839e+06
1.47701e+06
1.45624e+06
1.436e+06
1.41624e+06
1.39687e+06
1.37782e+06
1.35906e+06
1.34066e+06
1.32292e+06
1.69459e+06
1.6689e+06
1.64232e+06
1.6164e+06
1.59128e+06
1.56697e+06
1.54346e+06
1.52072e+06
1.49872e+06
1.4774e+06
1.45671e+06
1.4366e+06
1.417e+06
1.39786e+06
1.37915e+06
1.36088e+06
1.34316e+06
1.32628e+06
1.69519e+06
1.66938e+06
1.64272e+06
1.61675e+06
1.59161e+06
1.56729e+06
1.5438e+06
1.5211e+06
1.49914e+06
1.4779e+06
1.45731e+06
1.43734e+06
1.41793e+06
1.39905e+06
1.3807e+06
1.36292e+06
1.34583e+06
1.32967e+06
1.69592e+06
1.66997e+06
1.64322e+06
1.61719e+06
1.59202e+06
1.5677e+06
1.54422e+06
1.52156e+06
1.49967e+06
1.47851e+06
1.45804e+06
1.43823e+06
1.41904e+06
1.40044e+06
1.38247e+06
1.36516e+06
1.34864e+06
1.33308e+06
1.69682e+06
1.6707e+06
1.64383e+06
1.61773e+06
1.59252e+06
1.5682e+06
1.54474e+06
1.52212e+06
1.5003e+06
1.47925e+06
1.45892e+06
1.43929e+06
1.42033e+06
1.40203e+06
1.38443e+06
1.36757e+06
1.35155e+06
1.3365e+06
1.69787e+06
1.67157e+06
1.64457e+06
1.61838e+06
1.59313e+06
1.5688e+06
1.54536e+06
1.52279e+06
1.50106e+06
1.48012e+06
1.45994e+06
1.44051e+06
1.42179e+06
1.4038e+06
1.38656e+06
1.37012e+06
1.35455e+06
1.33992e+06
1.69899e+06
1.67253e+06
1.64538e+06
1.61909e+06
1.59379e+06
1.56945e+06
1.54603e+06
1.52352e+06
1.50187e+06
1.48105e+06
1.46102e+06
1.44177e+06
1.42329e+06
1.40558e+06
1.38866e+06
1.37257e+06
1.35735e+06
1.34307e+06
1.70029e+06
1.67362e+06
1.64629e+06
1.6199e+06
1.59454e+06
1.57018e+06
1.54679e+06
1.52433e+06
1.50277e+06
1.48207e+06
1.46221e+06
1.44315e+06
1.42491e+06
1.40746e+06
1.39084e+06
1.37507e+06
1.36018e+06
1.34619e+06
1.70214e+06
1.67507e+06
1.64749e+06
1.62095e+06
1.59551e+06
1.57114e+06
1.54778e+06
1.52539e+06
1.50394e+06
1.48339e+06
1.46371e+06
1.44488e+06
1.42689e+06
1.40974e+06
1.39344e+06
1.378e+06
1.36343e+06
1.34973e+06
1.7047e+06
1.67699e+06
1.64905e+06
1.62231e+06
1.59677e+06
1.57237e+06
1.54905e+06
1.52675e+06
1.50543e+06
1.48505e+06
1.46558e+06
1.44701e+06
1.4293e+06
1.41247e+06
1.39649e+06
1.38138e+06
1.36712e+06
1.35371e+06
1.7078e+06
1.67939e+06
1.65102e+06
1.62403e+06
1.59837e+06
1.57394e+06
1.55066e+06
1.52846e+06
1.50729e+06
1.48711e+06
1.46788e+06
1.44958e+06
1.43217e+06
1.41566e+06
1.40001e+06
1.38522e+06
1.37126e+06
1.35812e+06
1.71145e+06
1.68225e+06
1.65339e+06
1.62612e+06
1.60033e+06
1.57587e+06
1.55264e+06
1.53056e+06
1.50956e+06
1.4896e+06
1.47062e+06
1.4526e+06
1.4355e+06
1.4193e+06
1.40396e+06
1.38947e+06
1.3758e+06
1.3629e+06
1.71552e+06
1.68538e+06
1.656e+06
1.62846e+06
1.60257e+06
1.57811e+06
1.55497e+06
1.53303e+06
1.51222e+06
1.49249e+06
1.47378e+06
1.45604e+06
1.43923e+06
1.42332e+06
1.40828e+06
1.39406e+06
1.38063e+06
1.36797e+06
1.71891e+06
1.68803e+06
1.65836e+06
1.63074e+06
1.60486e+06
1.58049e+06
1.55749e+06
1.53574e+06
1.51515e+06
1.49566e+06
1.4772e+06
1.45974e+06
1.4432e+06
1.42757e+06
1.41278e+06
1.3988e+06
1.3856e+06
1.37312e+06
1.71834e+06
1.68849e+06
1.65932e+06
1.632e+06
1.60635e+06
1.58219e+06
1.55938e+06
1.53782e+06
1.51743e+06
1.49814e+06
1.47988e+06
1.46261e+06
1.44627e+06
1.43082e+06
1.41621e+06
1.40239e+06
1.38933e+06
1.37699e+06
1.71717e+06
1.68812e+06
1.65948e+06
1.63253e+06
1.60714e+06
1.58319e+06
1.56055e+06
1.53915e+06
1.51891e+06
1.49976e+06
1.48164e+06
1.4645e+06
1.44829e+06
1.43295e+06
1.41844e+06
1.40472e+06
1.39175e+06
1.37948e+06
1.71567e+06
1.68744e+06
1.65933e+06
1.63272e+06
1.60759e+06
1.58383e+06
1.56135e+06
1.54008e+06
1.51996e+06
1.50092e+06
1.4829e+06
1.46585e+06
1.44972e+06
1.43447e+06
1.42003e+06
1.40638e+06
1.39346e+06
1.38125e+06
1.71436e+06
1.68673e+06
1.65905e+06
1.63275e+06
1.60783e+06
1.58423e+06
1.56188e+06
1.54072e+06
1.52069e+06
1.50173e+06
1.48379e+06
1.46681e+06
1.45074e+06
1.43554e+06
1.42116e+06
1.40755e+06
1.39467e+06
1.38249e+06
1.71325e+06
1.68609e+06
1.65876e+06
1.6327e+06
1.60796e+06
1.58449e+06
1.56224e+06
1.54116e+06
1.5212e+06
1.5023e+06
1.4844e+06
1.46747e+06
1.45145e+06
1.43629e+06
1.42194e+06
1.40837e+06
1.39552e+06
1.38336e+06
1.71225e+06
1.68556e+06
1.65851e+06
1.63264e+06
1.60803e+06
1.58465e+06
1.56248e+06
1.54146e+06
1.52154e+06
1.50268e+06
1.48483e+06
1.46793e+06
1.45194e+06
1.4368e+06
1.42248e+06
1.40893e+06
1.3961e+06
1.38395e+06
1.71149e+06
1.68515e+06
1.65831e+06
1.63258e+06
1.60806e+06
1.58475e+06
1.56263e+06
1.54165e+06
1.52177e+06
1.50294e+06
1.48511e+06
1.46823e+06
1.45226e+06
1.43714e+06
1.42284e+06
1.4093e+06
1.39648e+06
1.38435e+06
1.71098e+06
1.68486e+06
1.65817e+06
1.63253e+06
1.60808e+06
1.58482e+06
1.56273e+06
1.54177e+06
1.52192e+06
1.5031e+06
1.48529e+06
1.46843e+06
1.45247e+06
1.43737e+06
1.42307e+06
1.40954e+06
1.39673e+06
1.38461e+06
1.71066e+06
1.68468e+06
1.65808e+06
1.6325e+06
1.60808e+06
1.58485e+06
1.56278e+06
1.54185e+06
1.522e+06
1.5032e+06
1.4854e+06
1.46855e+06
1.4526e+06
1.4375e+06
1.42321e+06
1.40969e+06
1.39688e+06
1.38476e+06
1.71043e+06
1.68458e+06
1.65803e+06
1.63248e+06
1.60809e+06
1.58487e+06
1.56281e+06
1.54189e+06
1.52205e+06
1.50326e+06
1.48546e+06
1.46861e+06
1.45267e+06
1.43757e+06
1.42329e+06
1.40976e+06
1.39696e+06
1.38485e+06
1.71034e+06
1.68453e+06
1.65801e+06
1.63247e+06
1.60809e+06
1.58488e+06
1.56283e+06
1.5419e+06
1.52207e+06
1.50328e+06
1.48549e+06
1.46864e+06
1.45269e+06
1.4376e+06
1.42332e+06
1.4098e+06
1.397e+06
1.38488e+06
1.10724e+06
1.10715e+06
1.10698e+06
1.10671e+06
1.10634e+06
1.10589e+06
1.10534e+06
1.1047e+06
1.10395e+06
1.10311e+06
1.10216e+06
1.10111e+06
1.09996e+06
1.0987e+06
1.09734e+06
1.09587e+06
1.0943e+06
1.09261e+06
1.09083e+06
1.08893e+06
1.08693e+06
1.08482e+06
1.08261e+06
1.0803e+06
1.07788e+06
1.07536e+06
1.07275e+06
1.07003e+06
1.06722e+06
1.06431e+06
1.0613e+06
1.0582e+06
1.05501e+06
1.05172e+06
1.04835e+06
1.04488e+06
1.04132e+06
1.03768e+06
1.03396e+06
1.03015e+06
1.02626e+06
1.0223e+06
1.01825e+06
1.01412e+06
1.00992e+06
1.00564e+06
1.00129e+06
996866
992369
987801
983162
978452
973676
968834
963932
958969
953943
948855
943709
938510
933259
927953
922594
917188
911728
906208
900626
894992
889311
883587
877821
872012
866156
860254
854303
848304
842253
836154
830012
823821
817584
811308
804995
798649
792271
785863
779424
772956
766458
759933
753379
746800
740196
733568
726917
720243
713544
706820
700070
693292
686485
679648
672783
665889
658969
652028
645073
638105
631127
624141
617150
610150
603134
596100
589043
581962
574855
567720
560559
553375
546172
538955
531732
524506
517282
510062
502848
495639
488436
481238
474044
466853
459665
452480
445297
438118
430940
423766
416596
409429
402268
395114
387969
380831
373698
366569
359446
352333
345234
338155
331099
324072
317071
310097
303146
296216
289309
282426
275570
268746
261958
255208
248501
241837
235214
228635
222101
215617
209185
202807
196485
190220
184014
177871
171796
165794
159874
154049
148338
142785
1.10764e+06
1.10755e+06
1.10737e+06
1.1071e+06
1.10674e+06
1.10629e+06
1.10573e+06
1.10509e+06
1.10434e+06
1.10349e+06
1.10254e+06
1.10149e+06
1.10033e+06
1.09907e+06
1.0977e+06
1.09622e+06
1.09464e+06
1.09295e+06
1.09115e+06
1.08925e+06
1.08724e+06
1.08513e+06
1.08291e+06
1.08058e+06
1.07816e+06
1.07563e+06
1.073e+06
1.07027e+06
1.06745e+06
1.06453e+06
1.06152e+06
1.05841e+06
1.05521e+06
1.05192e+06
1.04854e+06
1.04507e+06
1.04151e+06
1.03786e+06
1.03413e+06
1.03032e+06
1.02642e+06
1.02245e+06
1.01839e+06
1.01426e+06
1.01005e+06
1.00577e+06
1.00141e+06
996974
992471
987898
983256
978544
973764
968920
964011
959042
954011
948921
943773
938573
933320
928013
922649
917235
911769
906245
900666
895036
889359
883637
877873
872064
866209
860306
854352
848349
842297
836193
830047
823853
817615
811338
805025
798678
792299
785889
779449
772978
766480
759953
753400
746820
740217
733589
726938
720264
713564
706840
700090
693313
686506
679668
672802
665907
658989
652049
645095
638129
631154
624172
617182
610182
603166
596131
589073
581991
574882
567745
560582
553395
546189
538970
531744
524516
517291
510070
502855
495645
488442
481244
474050
466859
459672
452487
445305
438126
430950
423777
416607
409442
402281
395129
387985
380847
373713
366582
359458
352343
345243
338163
331108
324079
317079
310104
303152
296221
289313
282429
275573
268749
261960
255212
248505
241841
235218
228638
222104
215620
209188
202810
196488
190223
184016
177872
171795
165792
159870
154041
148323
142748
1.10845e+06
1.10836e+06
1.10818e+06
1.10791e+06
1.10754e+06
1.10708e+06
1.10653e+06
1.10587e+06
1.10512e+06
1.10426e+06
1.1033e+06
1.10223e+06
1.10106e+06
1.09979e+06
1.09841e+06
1.09692e+06
1.09532e+06
1.09362e+06
1.0918e+06
1.08989e+06
1.08786e+06
1.08573e+06
1.08349e+06
1.08114e+06
1.0787e+06
1.07615e+06
1.07351e+06
1.07076e+06
1.06792e+06
1.06499e+06
1.06196e+06
1.05883e+06
1.05562e+06
1.05231e+06
1.04892e+06
1.04543e+06
1.04186e+06
1.03821e+06
1.03447e+06
1.03064e+06
1.02674e+06
1.02275e+06
1.01868e+06
1.01454e+06
1.01032e+06
1.00602e+06
1.00165e+06
997204
992691
988109
983457
978736
973947
969092
964175
959197
954160
949066
943916
938712
933450
928132
922759
917334
911858
906329
900750
895123
889449
883730
877967
872156
866300
860395
854440
848433
842376
836268
830114
823915
817675
811395
805079
798730
792347
785934
779491
773018
766517
759989
753435
746856
740252
733624
726973
720298
713599
706876
700127
693350
686543
679705
672838
665945
659028
652091
645138
638174
631201
624221
617232
610232
603216
596181
589123
582039
574927
567788
560621
553430
546221
538998
531768
524536
517308
510085
502868
495657
488453
481254
474060
466870
459683
452499
445319
438142
430968
423797
416629
409465
402307
395156
388013
380874
373738
366606
359479
352362
345260
338179
331122
324093
317092
310116
303162
296231
289321
282436
275579
268754
261966
255218
248513
241848
235225
228645
222111
215627
209195
202817
196494
190227
184019
177873
171794
165788
159863
154027
148295
142685
1.10966e+06
1.10957e+06
1.10939e+06
1.10912e+06
1.10875e+06
1.10828e+06
1.10771e+06
1.10705e+06
1.10628e+06
1.10541e+06
1.10443e+06
1.10335e+06
1.10216e+06
1.10087e+06
1.09947e+06
1.09796e+06
1.09634e+06
1.09461e+06
1.09277e+06
1.09083e+06
1.08877e+06
1.08662e+06
1.08435e+06
1.08198e+06
1.07951e+06
1.07694e+06
1.07427e+06
1.07149e+06
1.06863e+06
1.06567e+06
1.06261e+06
1.05946e+06
1.05622e+06
1.0529e+06
1.04948e+06
1.04598e+06
1.04239e+06
1.03871e+06
1.03496e+06
1.03112e+06
1.02719e+06
1.02319e+06
1.01911e+06
1.01495e+06
1.01072e+06
1.0064e+06
1.00202e+06
997560
993031
988434
983766
979030
974227
969358
964427
959437
954390
949286
944129
938913
933640
928308
922924
917488
912004
906471
900890
895263
889589
883869
878103
872291
866431
860523
854565
848554
842490
836376
830215
824012
817767
811483
805163
798809
792421
786003
779555
773079
766575
760044
753489
746908
740303
733675
727024
720350
713652
706930
700183
693408
686601
679762
672895
666003
659088
652152
645201
638239
631269
624291
617304
610305
603289
596254
589194
582108
574993
567850
560679
553483
546267
539038
531803
524566
517333
510107
502887
495675
488469
481269
474075
466886
459700
452518
445340
438165
430994
423825
416660
409499
402344
395196
388053
380913
373775
366639
359509
352389
345285
338202
331144
324114
317111
310134
303179
296245
289333
282446
275588
268762
261975
255228
248524
241859
235236
228656
222122
215638
209205
202826
196502
190234
184024
177875
171793
165784
159853
154009
148261
142616
1.11129e+06
1.1112e+06
1.11101e+06
1.11073e+06
1.11036e+06
1.10988e+06
1.1093e+06
1.10862e+06
1.10783e+06
1.10694e+06
1.10595e+06
1.10484e+06
1.10363e+06
1.10231e+06
1.10088e+06
1.09934e+06
1.09769e+06
1.09592e+06
1.09405e+06
1.09208e+06
1.08999e+06
1.08779e+06
1.08549e+06
1.08309e+06
1.08058e+06
1.07798e+06
1.07527e+06
1.07247e+06
1.06957e+06
1.06657e+06
1.06348e+06
1.0603e+06
1.05703e+06
1.05368e+06
1.05023e+06
1.0467e+06
1.04309e+06
1.03939e+06
1.03561e+06
1.03175e+06
1.02781e+06
1.02378e+06
1.01968e+06
1.01551e+06
1.01125e+06
1.00692e+06
1.00252e+06
998041
993493
988874
984185
979428
974603
969716
964768
959761
954698
949580
944408
939178
933889
928543
923147
917702
912210
906672
901087
895456
889779
884055
878285
872467
866601
860686
854723
848705
842634
836514
830349
824141
817891
811603
805277
798916
792523
786098
779644
773161
766653
760118
753559
746976
740370
733742
727091
720418
713723
707004
700260
693487
686680
679840
672973
666082
659168
652233
645284
638325
631357
624381
617396
610399
603384
596347
589285
582196
575078
567930
560754
553552
546329
539093
531849
524606
517368
510136
502913
495698
488491
481290
474096
466907
459723
452544
445368
438196
431028
423862
416701
409544
402393
395247
388105
380963
373822
366683
359549
352426
345319
338234
331174
324143
317139
310159
303202
296265
289351
282461
275601
268775
261988
255243
248539
241875
235251
228671
222137
215653
209219
202839
196514
190243
184030
177879
171793
165779
159842
153989
148223
142546
1.11335e+06
1.11325e+06
1.11306e+06
1.11277e+06
1.11238e+06
1.11189e+06
1.11129e+06
1.11059e+06
1.10979e+06
1.10887e+06
1.10785e+06
1.10671e+06
1.10547e+06
1.10411e+06
1.10264e+06
1.10106e+06
1.09937e+06
1.09757e+06
1.09565e+06
1.09363e+06
1.0915e+06
1.08926e+06
1.08692e+06
1.08447e+06
1.08192e+06
1.07927e+06
1.07652e+06
1.07368e+06
1.07074e+06
1.0677e+06
1.06457e+06
1.06135e+06
1.05805e+06
1.05465e+06
1.05117e+06
1.04761e+06
1.04396e+06
1.04023e+06
1.03643e+06
1.03254e+06
1.02857e+06
1.02452e+06
1.0204e+06
1.0162e+06
1.01192e+06
1.00757e+06
1.00314e+06
998637
994062
989418
984703
979920
975071
970159
965188
960158
955074
949935
944742
939494
934188
928829
923422
917968
912468
906924
901333
895697
890014
884285
878507
872682
866807
860884
854911
848885
842807
836682
830512
824299
818044
811750
805418
799051
792649
786216
779754
773264
766749
760209
753645
747059
740451
733822
727172
720501
713807
707092
700352
693581
686775
679937
673070
666179
659265
652332
645384
638427
631461
624488
617506
610510
603495
596457
589393
582301
575179
568027
560846
553637
546406
539160
531908
524656
517410
510174
502946
495728
488519
481317
474123
466935
459754
452577
445405
438235
431070
423908
416751
409599
402452
395308
388166
381024
373880
366737
359599
352472
345362
338275
331213
324180
317174
310192
303232
296292
289374
282482
275619
268792
262006
255262
248560
241896
235272
228691
222157
215671
209237
202856
196528
190254
184039
177884
171794
165775
159831
153967
148184
142479
1.11584e+06
1.11574e+06
1.11554e+06
1.11524e+06
1.11483e+06
1.11432e+06
1.1137e+06
1.11298e+06
1.11214e+06
1.11119e+06
1.11013e+06
1.10896e+06
1.10767e+06
1.10627e+06
1.10475e+06
1.10313e+06
1.10139e+06
1.09953e+06
1.09757e+06
1.09549e+06
1.09331e+06
1.09102e+06
1.08862e+06
1.08612e+06
1.08352e+06
1.08082e+06
1.07802e+06
1.07512e+06
1.07213e+06
1.06905e+06
1.06587e+06
1.06261e+06
1.05926e+06
1.05582e+06
1.05229e+06
1.04869e+06
1.04501e+06
1.04124e+06
1.0374e+06
1.03348e+06
1.02948e+06
1.0254e+06
1.02125e+06
1.01702e+06
1.01271e+06
1.00833e+06
1.00387e+06
999335
994731
990056
985311
980499
975621
970680
965680
960623
955511
950347
945131
939861
934539
929166
923747
918283
912775
907222
901625
895982
890294
884557
878771
872936
867052
861118
855134
849099
843013
836882
830705
824486
818226
811926
805587
799211
792801
786358
779887
773388
766865
760317
753747
747155
740544
733913
727263
720594
713903
707191
700455
693687
686885
680050
673184
666293
659378
652445
645498
638543
631580
624610
617630
610635
603620
596580
589513
582418
575294
568138
560951
553735
546495
539240
531977
524716
517462
510219
502987
495765
488554
481351
474158
466972
459792
452618
445448
438281
431118
423960
416808
409661
402518
395377
388236
381093
373946
366799
359657
352526
345413
338324
331261
324226
317217
310232
303269
296325
289404
282509
275643
268815
262030
255287
248585
241922
235298
228717
222181
215694
209258
202875
196545
190268
184050
177891
171797
165772
159821
153946
148147
142417
1.11879e+06
1.11869e+06
1.11847e+06
1.11815e+06
1.11773e+06
1.11719e+06
1.11654e+06
1.11578e+06
1.1149e+06
1.11391e+06
1.11281e+06
1.11159e+06
1.11025e+06
1.1088e+06
1.10723e+06
1.10554e+06
1.10374e+06
1.10183e+06
1.09981e+06
1.09767e+06
1.09542e+06
1.09307e+06
1.09061e+06
1.08805e+06
1.08539e+06
1.08262e+06
1.07976e+06
1.07681e+06
1.07376e+06
1.07062e+06
1.06739e+06
1.06407e+06
1.06066e+06
1.05717e+06
1.0536e+06
1.04995e+06
1.04622e+06
1.04241e+06
1.03852e+06
1.03456e+06
1.03053e+06
1.02641e+06
1.02222e+06
1.01796e+06
1.01362e+06
1.0092e+06
1.0047e+06
1.00014e+06
995497
990788
986009
981162
976250
971276
966243
961153
956011
950817
945574
940282
934940
929551
924118
918642
913123
907562
901957
896308
890612
884868
879073
873228
867332
861386
855391
849345
843252
837113
830931
824705
818438
812131
805784
799399
792978
786524
780042
773533
766999
760441
753863
747265
740649
734015
727364
720696
714008
707299
700566
693803
687007
680176
673312
666420
659503
652569
645623
638668
631707
624739
617761
610767
603751
596709
589639
582542
575416
568257
561066
553844
546596
539330
532057
524786
517523
510273
503036
495811
488597
481394
474201
467016
459838
452666
445497
438331
431171
424017
416870
409728
402589
395451
388311
381166
374017
366867
359721
352587
345472
338380
331315
324278
317268
310280
303313
296366
289440
282541
275674
268844
262059
255317
248615
241952
235328
228746
222210
215721
209283
202898
196565
190285
184063
177900
171801
165771
159812
153927
148111
142360
1.12222e+06
1.1221e+06
1.12187e+06
1.12153e+06
1.12108e+06
1.12051e+06
1.11982e+06
1.11902e+06
1.1181e+06
1.11706e+06
1.1159e+06
1.11462e+06
1.11322e+06
1.1117e+06
1.11007e+06
1.10832e+06
1.10645e+06
1.10447e+06
1.10237e+06
1.10016e+06
1.09785e+06
1.09542e+06
1.09289e+06
1.09025e+06
1.08751e+06
1.08468e+06
1.08175e+06
1.07872e+06
1.07561e+06
1.0724e+06
1.0691e+06
1.06572e+06
1.06225e+06
1.0587e+06
1.05508e+06
1.05137e+06
1.04759e+06
1.04373e+06
1.0398e+06
1.0358e+06
1.03172e+06
1.02756e+06
1.02333e+06
1.01903e+06
1.01464e+06
1.01019e+06
1.00565e+06
1.00104e+06
996365
991615
986795
981908
976957
971944
966873
961747
956570
951345
946072
940754
935390
929982
924532
919041
913510
907939
902326
896669
890965
885213
879408
873552
867643
861684
855677
849622
843521
837375
831185
824953
818678
812362
806006
799610
793178
786712
780217
773695
767150
760582
753994
747388
740765
734127
727474
720806
714120
707415
700685
693927
687136
680310
673449
666555
659637
652701
645752
638797
631836
624870
617893
610899
603882
596837
589765
582666
575539
568380
561186
553959
546703
539428
532145
524864
517593
510337
503094
495866
488650
481446
474252
467068
459891
452719
445550
438385
431227
424076
416933
409795
402661
395525
388386
381241
374090
366937
359788
352652
345535
338441
331375
324337
317324
310334
303363
296412
289483
282581
275710
268879
262094
255352
248650
241986
235361
228779
222241
215750
209311
202923
196587
190305
184079
177912
171808
165771
159804
153908
148078
142308
1.12613e+06
1.12601e+06
1.12576e+06
1.1254e+06
1.12491e+06
1.1243e+06
1.12357e+06
1.12272e+06
1.12174e+06
1.12064e+06
1.11942e+06
1.11807e+06
1.1166e+06
1.11501e+06
1.1133e+06
1.11147e+06
1.10952e+06
1.10746e+06
1.10528e+06
1.10299e+06
1.10058e+06
1.09807e+06
1.09545e+06
1.09273e+06
1.08991e+06
1.08699e+06
1.08398e+06
1.08087e+06
1.07768e+06
1.07439e+06
1.07103e+06
1.06757e+06
1.06404e+06
1.06043e+06
1.05673e+06
1.05297e+06
1.04913e+06
1.04522e+06
1.04123e+06
1.03718e+06
1.03305e+06
1.02885e+06
1.02457e+06
1.02022e+06
1.0158e+06
1.01129e+06
1.00671e+06
1.00206e+06
997331
992533
987667
982734
977738
972681
967568
962403
957189
951928
946624
941277
935887
930457
924987
919479
913933
908350
902727
897060
891348
885585
879770
873901
867979
862006
855987
849922
843813
837661
831465
825226
818943
812617
806250
799843
793397
786917
780408
773873
767315
760736
754139
747524
740894
734250
727594
720924
714240
707537
700810
694056
687270
680447
673587
666692
659770
652831
645880
638923
631961
624995
618019
611025
604006
596959
589884
582784
575657
568498
561303
554072
546811
539529
532237
524948
517671
510408
503161
495929
488711
481505
474311
467126
459948
452775
445605
438440
431283
424134
416993
409860
402728
395595
388457
381312
374160
367006
359855
352717
345599
338504
331437
324398
317385
310392
303418
296463
289530
282625
275752
268919
262132
255389
248686
242022
235397
228813
222274
215782
209340
202950
196611
190326
184097
177926
171816
165772
159797
153889
148045
142259
1.13058e+06
1.13044e+06
1.13017e+06
1.12978e+06
1.12926e+06
1.1286e+06
1.12782e+06
1.12691e+06
1.12586e+06
1.12469e+06
1.12339e+06
1.12196e+06
1.12041e+06
1.11874e+06
1.11694e+06
1.11502e+06
1.11298e+06
1.11082e+06
1.10855e+06
1.10615e+06
1.10365e+06
1.10103e+06
1.09831e+06
1.09549e+06
1.09257e+06
1.08956e+06
1.08646e+06
1.08326e+06
1.07998e+06
1.07661e+06
1.07316e+06
1.06963e+06
1.06602e+06
1.06233e+06
1.05857e+06
1.05474e+06
1.05083e+06
1.04686e+06
1.04281e+06
1.0387e+06
1.03452e+06
1.03027e+06
1.02594e+06
1.02154e+06
1.01706e+06
1.01251e+06
1.00788e+06
1.00317e+06
998387
993535
988615
983631
978586
973482
968325
963117
957862
952564
947225
941846
936428
930973
925480
919952
914390
908791
903155
897477
891753
885978
880150
874267
868331
862345
856315
850241
844126
837968
831766
825519
819226
812890
806510
800089
793629
787135
780611
774062
767491
760901
754295
747671
741033
734383
727721
721049
714364
707662
700938
694186
687401
680580
673719
666822
659897
652954
645999
639038
632075
625109
618132
611137
604116
597065
589989
582889
575763
568605
561409
554176
546912
539625
532329
525034
517751
510484
503234
495999
488778
481571
474374
467187
460007
452832
445660
438494
431337
424188
417049
409917
402789
395657
388519
381374
374222
367068
359917
352779
345660
338565
331498
324460
317446
310452
303475
296517
289581
282672
275797
268962
262173
255429
248724
242058
235432
228848
222308
215814
209370
202977
196635
190347
184114
177939
171824
165773
159788
153870
148012
142211
1.1356e+06
1.13544e+06
1.13515e+06
1.13472e+06
1.13415e+06
1.13344e+06
1.1326e+06
1.13161e+06
1.13049e+06
1.12923e+06
1.12784e+06
1.12632e+06
1.12467e+06
1.1229e+06
1.121e+06
1.11898e+06
1.11683e+06
1.11456e+06
1.11217e+06
1.10967e+06
1.10705e+06
1.10432e+06
1.10148e+06
1.09855e+06
1.09552e+06
1.0924e+06
1.08919e+06
1.08589e+06
1.08251e+06
1.07905e+06
1.0755e+06
1.07188e+06
1.06819e+06
1.06442e+06
1.06057e+06
1.05666e+06
1.05268e+06
1.04864e+06
1.04453e+06
1.04035e+06
1.03611e+06
1.0318e+06
1.02741e+06
1.02295e+06
1.01842e+06
1.01381e+06
1.00912e+06
1.00435e+06
999510
994601
989625
984587
979490
974337
969132
963880
958583
953245
947869
942457
937008
931526
926009
920459
914876
909259
903606
897912
892172
886383
880539
874641
868690
862692
856651
850570
844450
838287
832079
825823
819520
813170
806776
800340
793866
787357
780819
774257
767675
761075
754459
747827
741181
734522
727854
721178
714490
707787
701063
694311
687526
680703
673839
666939
660010
653062
646103
639138
632172
625204
618226
611229
604205
597154
590077
582977
575852
568694
561499
554266
547000
539712
532413
525116
517830
510560
503308
496071
488848
481638
474439
467249
460066
452888
445713
438545
431386
424236
417097
409966
402838
395707
388569
381424
374273
367119
359970
352832
345714
338621
331554
324517
317504
310509
303530
296570
289632
282721
275844
269006
262215
255467
248761
242094
235467
228881
222340
215845
209399
203003
196658
190366
184129
177950
171829
165771
159778
153849
147979
142164
1.14123e+06
1.14106e+06
1.14073e+06
1.14026e+06
1.13964e+06
1.13886e+06
1.13794e+06
1.13687e+06
1.13565e+06
1.1343e+06
1.1328e+06
1.13117e+06
1.1294e+06
1.12751e+06
1.12548e+06
1.12334e+06
1.12106e+06
1.11867e+06
1.11615e+06
1.11352e+06
1.11077e+06
1.10792e+06
1.10496e+06
1.10189e+06
1.09874e+06
1.09549e+06
1.09216e+06
1.08875e+06
1.08526e+06
1.08169e+06
1.07804e+06
1.07432e+06
1.07053e+06
1.06666e+06
1.06273e+06
1.05873e+06
1.05467e+06
1.05054e+06
1.04635e+06
1.0421e+06
1.03778e+06
1.0334e+06
1.02895e+06
1.02442e+06
1.01982e+06
1.01515e+06
1.0104e+06
1.00557e+06
1.00067e+06
995705
990673
985582
980433
975230
969978
964680
959340
953962
948549
943101
937622
932111
926567
920992
915386
909747
904072
898358
892598
886789
880928
875013
869047
863036
856986
850899
844773
838606
832392
826128
819813
813447
807037
800585
794096
787574
781025
774454
767864
761256
754631
747990
741334
734667
727991
721308
714615
707909
701181
694426
687637
680810
673942
667037
660104
653152
646188
639219
632249
625277
618297
611297
604273
597221
590145
583045
575919
568762
561568
554337
547073
539785
532487
525189
517902
510632
503378
496140
488915
481702
474500
467307
460121
452939
445761
438589
431427
424276
417135
410002
402873
395742
388604
381459
374308
367156
360008
352874
345758
338667
331603
324567
317554
310559
303580
296619
289679
282768
275889
269049
262254
255504
248795
242127
235498
228912
222369
215873
209425
203027
196679
190383
184142
177958
171831
165766
159764
153825
147943
142117
1.14755e+06
1.14735e+06
1.14699e+06
1.14646e+06
1.14577e+06
1.14492e+06
1.1439e+06
1.14272e+06
1.14139e+06
1.13991e+06
1.13828e+06
1.13651e+06
1.13461e+06
1.13257e+06
1.1304e+06
1.1281e+06
1.12568e+06
1.12314e+06
1.12047e+06
1.11769e+06
1.1148e+06
1.11181e+06
1.1087e+06
1.1055e+06
1.10221e+06
1.09883e+06
1.09536e+06
1.09182e+06
1.08821e+06
1.08452e+06
1.08075e+06
1.07692e+06
1.07302e+06
1.06905e+06
1.06501e+06
1.06091e+06
1.05675e+06
1.05253e+06
1.04825e+06
1.04391e+06
1.0395e+06
1.03504e+06
1.03051e+06
1.02591e+06
1.02124e+06
1.0165e+06
1.01168e+06
1.0068e+06
1.00184e+06
996821
991737
986594
981395
976145
970847
965505
960124
954706
949256
943774
938263
932722
927149
921546
915913
910248
904547
898806
893023
887191
881309
875375
869394
863371
857310
851215
845083
838909
832688
826415
820087
813707
807281
800814
794313
787782
781226
774650
768054
761440
754808
748157
741490
734812
728125
721433
714733
708020
701287
694527
687732
680899
674026
667116
660177
653220
646251
639277
632303
625327
618343
611340
604315
597264
590187
583087
575961
568804
561613
554385
547125
539842
532546
525251
517965
510695
503441
496202
488975
481759
474554
467357
460167
452982
445801
438625
431460
424305
417160
410024
402893
395760
388621
381476
374326
367176
360031
352900
345788
338700
331639
324606
317594
310600
303622
296661
289721
282809
275929
269088
262290
255537
248826
242156
235526
228938
222395
215897
209447
203047
196696
190397
184152
177962
171829
165757
159746
153797
147905
142068
1.15464e+06
1.15441e+06
1.154e+06
1.1534e+06
1.15262e+06
1.15166e+06
1.15053e+06
1.14922e+06
1.14774e+06
1.14611e+06
1.14432e+06
1.14238e+06
1.1403e+06
1.13809e+06
1.13575e+06
1.13328e+06
1.13068e+06
1.12796e+06
1.12512e+06
1.12217e+06
1.11912e+06
1.11596e+06
1.11269e+06
1.10934e+06
1.10589e+06
1.10236e+06
1.09876e+06
1.09507e+06
1.09132e+06
1.08749e+06
1.0836e+06
1.07964e+06
1.07562e+06
1.07153e+06
1.06738e+06
1.06316e+06
1.05889e+06
1.05456e+06
1.05018e+06
1.04574e+06
1.04124e+06
1.03669e+06
1.03207e+06
1.02739e+06
1.02265e+06
1.01784e+06
1.01296e+06
1.00802e+06
1.00301e+06
997933
992799
987608
982363
977069
971728
966346
960924
955468
949981
944465
938921
933347
927743
922110
916446
910750
905020
899251
893439
887582
881676
875723
869726
863689
857616
851510
845367
839184
832953
826671
820332
813939
807500
801023
794513
787977
781417
774839
768242
761623
754984
748323
741644
734953
728253
721550
714840
708118
701377
694610
687810
680970
674090
667174
660230
653267
646292
639313
632333
625352
618362
611356
604328
597277
590200
583100
575974
568818
561630
554408
547155
539879
532590
525299
518016
510748
503494
496254
489025
481806
474597
467397
460203
453014
445830
438651
431481
424322
417173
410031
402895
395759
388618
381473
374324
367177
360037
352911
345804
338720
331663
324631
317621
310629
303652
296693
289754
282843
275964
269121
262322
255566
248853
242180
235549
228960
222416
215917
209465
203062
196709
190407
184158
177962
171823
165743
159724
153765
147863
142017
1.16283e+06
1.16257e+06
1.16209e+06
1.1614e+06
1.1605e+06
1.1594e+06
1.15811e+06
1.15663e+06
1.15496e+06
1.15313e+06
1.15114e+06
1.149e+06
1.14671e+06
1.14428e+06
1.14172e+06
1.13903e+06
1.13622e+06
1.13328e+06
1.13024e+06
1.12708e+06
1.12382e+06
1.12047e+06
1.11702e+06
1.11349e+06