/*--------------------------------*- C++ -*----------------------------------*\
| =========                 |                                                 |
| \\      /  F ield         | OpenFOAM: The Open Source CFD Toolbox           |
|  \\    /   O peration     | Version:  2112                                  |
|   \\  /    A nd           | Website:  www.openfoam.com                      |
|    \\/     M anipulation  |                                                 |
\*---------------------------------------------------------------------------*/
FoamFile
{
    version     2.0;
    format      ascii;
    arch        "LSB;label=32;scalar=64";
    class       volVectorField;
    location    "0.29";
    object      U_0;
}
// * * * * * * * * * * * * * * * * * * * * * * * * * * * * * * * * * * * * * //

dimensions      [0 1 -1 0 0 0 0];

internalField   nonuniform List<vector> 
12225
(
(9.38839 0.537097 0)
(8.68128 0.260402 0)
(8.185 0.109213 0)
(7.77632 0.0423767 0)
(7.42881 0.0161863 0)
(7.12898 0.00597373 0)
(6.86605 0.00149395 0)
(6.63251 -0.000609042 0)
(6.4231 -0.00165625 0)
(6.23436 -0.00228481 0)
(6.06251 -0.0027453 0)
(5.90672 -0.00314566 0)
(5.76072 -0.00331679 0)
(5.63055 -0.00410947 0)
(5.49765 -0.00307129 0)
(5.39115 -0.00739216 0)
(5.24184 0.0130785 0)
(5.12853 0.0258678 0)
(10.0029 -0.0307445 0)
(9.92609 0.0245993 0)
(9.62573 0.0742291 0)
(9.26089 0.103716 0)
(8.91446 0.113315 0)
(8.60611 0.112649 0)
(8.33591 0.10818 0)
(8.0988 0.102936 0)
(7.88925 0.0977847 0)
(7.70264 0.0932378 0)
(7.5354 0.0891651 0)
(7.38396 0.0861683 0)
(7.24675 0.0833427 0)
(7.11822 0.0819737 0)
(7.00315 0.0807892 0)
(6.88551 0.0817458 0)
(6.80034 0.0931836 0)
(6.70531 0.110312 0)
(10.0158 0.265334 0)
(10.139 0.32677 0)
(10.1877 0.284522 0)
(10.1597 0.257888 0)
(10.09 0.234305 0)
(10 0.209435 0)
(9.8981 0.187698 0)
(9.78862 0.170298 0)
(9.67588 0.156112 0)
(9.56185 0.144121 0)
(9.45057 0.134084 0)
(9.34033 0.125636 0)
(9.23688 0.11928 0)
(9.13182 0.113894 0)
(9.03914 0.111777 0)
(8.93543 0.110274 0)
(8.85751 0.112287 0)
(8.7357 0.104971 0)
(10.009 0.0836694 0)
(10.1169 0.118408 0)
(10.204 0.10919 0)
(10.2462 0.112625 0)
(10.2643 0.122906 0)
(10.2735 0.128628 0)
(10.2772 0.130924 0)
(10.2731 0.132262 0)
(10.2616 0.133332 0)
(10.2421 0.133799 0)
(10.2181 0.133977 0)
(10.1875 0.133353 0)
(10.1565 0.133622 0)
(10.1183 0.133247 0)
(10.0847 0.135565 0)
(10.0396 0.136091 0)
(10.0087 0.140734 0)
(9.96195 0.143778 0)
(10.0061 0.107038 0)
(10.0904 0.203309 0)
(10.1658 0.211101 0)
(10.2071 0.203516 0)
(10.2288 0.200999 0)
(10.2464 0.198457 0)
(10.2644 0.192868 0)
(10.2807 0.186002 0)
(10.2943 0.179805 0)
(10.3041 0.174521 0)
(10.3112 0.170133 0)
(10.3147 0.166124 0)
(10.3172 0.163216 0)
(10.3161 0.161136 0)
(10.3161 0.160512 0)
(10.3117 0.161454 0)
(10.3117 0.162946 0)
(10.3029 0.165299 0)
(10.0031 0.0787368 0)
(10.0624 0.150126 0)
(10.1263 0.14902 0)
(10.1687 0.136929 0)
(10.193 0.135174 0)
(10.2106 0.136955 0)
(10.2275 0.136648 0)
(10.2438 0.134482 0)
(10.258 0.132418 0)
(10.2695 0.130816 0)
(10.2786 0.130001 0)
(10.2858 0.129352 0)
(10.2915 0.129681 0)
(10.2964 0.130176 0)
(10.3006 0.132444 0)
(10.3048 0.134429 0)
(10.308 0.138608 0)
(10.3113 0.1391 0)
(10.0014 0.0626044 0)
(10.0454 0.136169 0)
(10.1009 0.153907 0)
(10.1428 0.153999 0)
(10.1678 0.155571 0)
(10.1846 0.158394 0)
(10.1997 0.159123 0)
(10.2146 0.157534 0)
(10.228 0.155248 0)
(10.2391 0.15323 0)
(10.2477 0.151826 0)
(10.2546 0.150826 0)
(10.2601 0.150339 0)
(10.265 0.15042 0)
(10.2689 0.151221 0)
(10.273 0.152831 0)
(10.2761 0.154736 0)
(10.2804 0.15796 0)
(10.0003 0.0525955 0)
(10.033 0.122158 0)
(10.0791 0.143263 0)
(10.1177 0.143207 0)
(10.1427 0.140726 0)
(10.1595 0.140281 0)
(10.174 0.140029 0)
(10.1882 0.138704 0)
(10.2012 0.136869 0)
(10.2123 0.135336 0)
(10.221 0.134428 0)
(10.2279 0.13403 0)
(10.2335 0.134078 0)
(10.2384 0.134661 0)
(10.2425 0.135836 0)
(10.2465 0.137832 0)
(10.2497 0.140331 0)
(10.2534 0.143807 0)
(9.99977 0.044843 0)
(10.0237 0.107519 0)
(10.0613 0.13009 0)
(10.0962 0.13309 0)
(10.121 0.132242 0)
(10.1383 0.132915 0)
(10.1526 0.134308 0)
(10.1661 0.135003 0)
(10.1787 0.135021 0)
(10.1896 0.134983 0)
(10.1985 0.135261 0)
(10.2056 0.135854 0)
(10.2113 0.136707 0)
(10.2163 0.13787 0)
(10.2205 0.139477 0)
(10.2245 0.141638 0)
(10.2276 0.144396 0)
(10.231 0.147532 0)
(9.99957 0.0398735 0)
(10.0171 0.0950022 0)
(10.0475 0.117968 0)
(10.0785 0.124194 0)
(10.1026 0.125265 0)
(10.1201 0.126441 0)
(10.1343 0.12805 0)
(10.1472 0.129227 0)
(10.1593 0.129837 0)
(10.17 0.13029 0)
(10.1789 0.130872 0)
(10.1861 0.131668 0)
(10.192 0.132604 0)
(10.1971 0.133827 0)
(10.2014 0.135379 0)
(10.2055 0.137579 0)
(10.2087 0.140246 0)
(10.2121 0.143712 0)
(9.99964 0.0358494 0)
(10.0126 0.0842468 0)
(10.0371 0.106738 0)
(10.0642 0.115247 0)
(10.087 0.117831 0)
(10.1045 0.11923 0)
(10.1185 0.12076 0)
(10.131 0.122208 0)
(10.1426 0.123397 0)
(10.1532 0.124507 0)
(10.1621 0.125707 0)
(10.1695 0.127057 0)
(10.1757 0.128507 0)
(10.1811 0.130176 0)
(10.1856 0.132142 0)
(10.1898 0.134689 0)
(10.1932 0.137756 0)
(10.1966 0.1416 0)
(9.99991 0.0332578 0)
(10.0098 0.0758954 0)
(10.0301 0.0969604 0)
(10.0538 0.106659 0)
(10.075 0.110413 0)
(10.092 0.11216 0)
(10.106 0.113738 0)
(10.1183 0.115479 0)
(10.1297 0.117289 0)
(10.1401 0.119161 0)
(10.1491 0.121084 0)
(10.1568 0.123048 0)
(10.1632 0.124995 0)
(10.1688 0.127064 0)
(10.1736 0.129351 0)
(10.1779 0.132183 0)
(10.1815 0.135516 0)
(10.1849 0.139634 0)
(10.0004 0.0313472 0)
(10.008 0.0688097 0)
(10.0248 0.0879037 0)
(10.0454 0.0979921 0)
(10.0649 0.102645 0)
(10.0814 0.104911 0)
(10.0953 0.106717 0)
(10.1075 0.108772 0)
(10.1187 0.111117 0)
(10.129 0.11364 0)
(10.1382 0.11618 0)
(10.146 0.118663 0)
(10.1527 0.121021 0)
(10.1586 0.12343 0)
(10.1637 0.126007 0)
(10.1683 0.129122 0)
(10.1721 0.132739 0)
(10.1756 0.137198 0)
(10.0011 0.0294907 0)
(10.0067 0.0617417 0)
(10.0205 0.0783781 0)
(10.0381 0.088237 0)
(10.0556 0.0935505 0)
(10.0714 0.0964057 0)
(10.0851 0.0985293 0)
(10.0972 0.100868 0)
(10.1084 0.103657 0)
(10.1187 0.106779 0)
(10.1279 0.109952 0)
(10.136 0.113002 0)
(10.1432 0.115821 0)
(10.1495 0.118615 0)
(10.155 0.121542 0)
(10.1599 0.125046 0)
(10.164 0.129112 0)
(10.1676 0.134143 0)
(10.0023 0.0277931 0)
(10.0063 0.0548928 0)
(10.0174 0.0686776 0)
(10.0322 0.0776527 0)
(10.0478 0.0831554 0)
(10.0626 0.0864313 0)
(10.076 0.0888478 0)
(10.0881 0.0914403 0)
(10.0993 0.0946045 0)
(10.1097 0.0982557 0)
(10.1192 0.102029 0)
(10.1278 0.105671 0)
(10.1354 0.109034 0)
(10.1422 0.112351 0)
(10.1482 0.11579 0)
(10.1535 0.119845 0)
(10.1581 0.124477 0)
(10.1621 0.130155 0)
(10.0035 0.0250747 0)
(10.0068 0.0482354 0)
(10.0156 0.0589511 0)
(10.0282 0.0663346 0)
(10.042 0.0713911 0)
(10.0558 0.0747237 0)
(10.0689 0.0772909 0)
(10.0811 0.0800496 0)
(10.0924 0.0834706 0)
(10.1031 0.0875313 0)
(10.113 0.0918508 0)
(10.1221 0.0961319 0)
(10.1303 0.100162 0)
(10.1377 0.104133 0)
(10.1444 0.108153 0)
(10.1506 0.11274 0)
(10.1562 0.117844 0)
(10.1613 0.124079 0)
(10.0042 0.0209339 0)
(10.0079 0.0413196 0)
(10.0154 0.0489594 0)
(10.0263 0.0541483 0)
(10.0388 0.0581134 0)
(10.0518 0.0610014 0)
(10.0647 0.0633776 0)
(10.0771 0.0660483 0)
(10.0889 0.0695227 0)
(10.1001 0.0738623 0)
(10.1105 0.0786726 0)
(10.1203 0.0835752 0)
(10.1294 0.0882133 0)
(10.1379 0.0927172 0)
(10.1458 0.0971421 0)
(10.1533 0.102137 0)
(10.1603 0.107667 0)
(10.1668 0.114619 0)
(10.0044 0.0151326 0)
(10.0099 0.0335417 0)
(10.017 0.0382333 0)
(10.0271 0.0406027 0)
(10.0389 0.0428086 0)
(10.0517 0.0446763 0)
(10.0648 0.0464231 0)
(10.0776 0.0486857 0)
(10.0901 0.0519475 0)
(10.102 0.0562486 0)
(10.1135 0.0611099 0)
(10.1245 0.0660306 0)
(10.135 0.0705896 0)
(10.1452 0.0749219 0)
(10.1548 0.0792019 0)
(10.1639 0.0841705 0)
(10.1726 0.0898999 0)
(10.1806 0.0972315 0)
(10.0026 0.00541838 0)
(10.0119 0.0217706 0)
(10.0207 0.0249077 0)
(10.0314 0.0241706 0)
(10.044 0.0240454 0)
(10.0575 0.0245754 0)
(10.0712 0.0257224 0)
(10.0849 0.0279242 0)
(10.0981 0.031487 0)
(10.1111 0.0362768 0)
(10.1239 0.0416818 0)
(10.1364 0.0471081 0)
(10.1487 0.0521667 0)
(10.1606 0.0571133 0)
(10.172 0.0621228 0)
(10.1828 0.0679256 0)
(10.1933 0.0744077 0)
(10.2032 0.0823289 0)
(10.0002 -0.00353994 0)
(10.013 0.00678897 0)
(10.0265 0.00937281 0)
(10.0402 0.00619011 0)
(10.0551 0.00299806 0)
(10.0707 0.000926849 0)
(10.0864 -0.000170412 0)
(10.1018 -0.000129375 0)
(10.1169 0.00121888 0)
(10.1317 0.00376269 0)
(10.1462 0.00705611 0)
(10.1603 0.0108029 0)
(10.1742 0.0146596 0)
(10.1875 0.0187153 0)
(10.2003 0.023092 0)
(10.2124 0.028248 0)
(10.2242 0.0341274 0)
(10.2356 0.0411363 0)
(9.99825 -0.0106279 0)
(10.0127 -0.0100139 0)
(10.0315 -0.00784706 0)
(10.049 -0.0100261 0)
(10.0659 -0.0126378 0)
(10.0827 -0.0139494 0)
(10.0992 -0.014126 0)
(10.1152 -0.0132354 0)
(10.131 -0.011125 0)
(10.1469 -0.0077786 0)
(10.1629 -0.00353346 0)
(10.1788 0.00133822 0)
(10.1941 0.00647321 0)
(10.2087 0.0119065 0)
(10.2228 0.0174783 0)
(10.2365 0.0234946 0)
(10.2502 0.0294609 0)
(10.2634 0.0358682 0)
(9.99713 -0.0160107 0)
(10.0119 -0.0270145 0)
(10.0382 -0.028371 0)
(10.0641 -0.0318801 0)
(10.0864 -0.0371542 0)
(10.106 -0.0418695 0)
(10.1242 -0.045212 0)
(10.1416 -0.0469314 0)
(10.1589 -0.0468623 0)
(10.1763 -0.0451352 0)
(10.1936 -0.0422275 0)
(10.2105 -0.0386882 0)
(10.2266 -0.0348171 0)
(10.2419 -0.0305862 0)
(10.2564 -0.0261205 0)
(10.27 -0.0213006 0)
(10.2831 -0.01638 0)
(10.2958 -0.0110808 0)
(9.99765 -0.0216391 0)
(10.0125 -0.0459642 0)
(10.0419 -0.0482555 0)
(10.0731 -0.0426952 0)
(10.0996 -0.0383606 0)
(10.1216 -0.0372727 0)
(10.1413 -0.0381638 0)
(10.1601 -0.0391018 0)
(10.1789 -0.0388249 0)
(10.1976 -0.0370501 0)
(10.2159 -0.0341796 0)
(10.2337 -0.0306224 0)
(10.2506 -0.026698 0)
(10.2668 -0.0223964 0)
(10.2824 -0.0178946 0)
(10.2975 -0.0130625 0)
(10.3124 -0.00813582 0)
(10.327 -0.002818 0)
(9.99853 -0.0277545 0)
(10.0202 -0.0690621 0)
(10.061 -0.0860663 0)
(10.1027 -0.0894255 0)
(10.134 -0.0905362 0)
(10.1562 -0.0934737 0)
(10.1751 -0.0970536 0)
(10.1941 -0.0991715 0)
(10.214 -0.0989783 0)
(10.2339 -0.0967922 0)
(10.2533 -0.0933069 0)
(10.2716 -0.0889993 0)
(10.2891 -0.0841537 0)
(10.3057 -0.0788474 0)
(10.3216 -0.0732852 0)
(10.3368 -0.0675459 0)
(10.3514 -0.0619013 0)
(10.3652 -0.0563898 0)
(9.9998 -0.0338416 0)
(10.0236 -0.0729766 0)
(10.067 -0.0736221 0)
(10.1148 -0.0587457 0)
(10.1535 -0.0486741 0)
(10.1818 -0.0479135 0)
(10.205 -0.051685 0)
(10.2272 -0.0550565 0)
(10.249 -0.056321 0)
(10.27 -0.0558378 0)
(10.2899 -0.0543339 0)
(10.3087 -0.0520338 0)
(10.3265 -0.0491593 0)
(10.3436 -0.0458137 0)
(10.3601 -0.0422921 0)
(10.3759 -0.0385391 0)
(10.3913 -0.0347321 0)
(10.4056 -0.0305397 0)
(10.0024 -0.0652346 0)
(10.0507 -0.149137 0)
(10.1088 -0.171484 0)
(10.1559 -0.163892 0)
(10.1884 -0.154624 0)
(10.213 -0.151264 0)
(10.2362 -0.150519 0)
(10.2602 -0.149018 0)
(10.2841 -0.14573 0)
(10.3066 -0.141097 0)
(10.3276 -0.135768 0)
(10.3472 -0.129903 0)
(10.3657 -0.123691 0)
(10.3833 -0.116892 0)
(10.4003 -0.109954 0)
(10.4167 -0.102692 0)
(10.4329 -0.0955412 0)
(10.4479 -0.0879421 0)
(10.0045 -0.0394125 0)
(10.073 -0.0639024 0)
(10.1489 -0.0586784 0)
(10.2065 -0.0536677 0)
(10.2464 -0.0549544 0)
(10.2778 -0.0602314 0)
(10.306 -0.0663221 0)
(10.3323 -0.0711758 0)
(10.3559 -0.0749143 0)
(10.3763 -0.0777525 0)
(10.3939 -0.079579 0)
(10.4095 -0.0803678 0)
(10.4239 -0.080234 0)
(10.4374 -0.0792037 0)
(10.4501 -0.0776219 0)
(10.4621 -0.0753559 0)
(10.4735 -0.0728481 0)
(10.4846 -0.0701425 0)
(10.0073 -0.19864 0)
(10.0955 -0.285408 0)
(10.1608 -0.257025 0)
(10.1926 -0.22955 0)
(10.207 -0.212784 0)
(10.214 -0.197329 0)
(10.216 -0.182377 0)
(10.2118 -0.169055 0)
(10.2004 -0.157942 0)
(10.1835 -0.147873 0)
(10.1629 -0.138726 0)
(10.1406 -0.129187 0)
(10.1178 -0.120941 0)
(10.0951 -0.111877 0)
(10.0731 -0.105444 0)
(10.0518 -0.0965873 0)
(10.032 -0.0906227 0)
(10.0112 -0.0778593 0)
(10.0282 0.0257845 0)
(10.115 -0.00522507 0)
(10.0334 -0.0434299 0)
(9.86256 -0.0694631 0)
(9.67629 -0.086882 0)
(9.49797 -0.0962381 0)
(9.33016 -0.100094 0)
(9.17228 -0.101573 0)
(9.02436 -0.101362 0)
(8.88714 -0.0998826 0)
(8.76138 -0.0972635 0)
(8.64671 -0.0943804 0)
(8.54346 -0.0909693 0)
(8.44906 -0.0880647 0)
(8.36618 -0.0848237 0)
(8.28865 -0.0825103 0)
(8.22747 -0.0823932 0)
(8.16782 -0.0848056 0)
(9.57283 -0.481711 0)
(9.02492 -0.282787 0)
(8.62662 -0.161316 0)
(8.30174 -0.090327 0)
(8.03167 -0.04893 0)
(7.80414 -0.0265639 0)
(7.60649 -0.0140697 0)
(7.42982 -0.00636472 0)
(7.26893 -0.00134721 0)
(7.1224 0.00209103 0)
(6.98804 0.00415481 0)
(6.86693 0.00608344 0)
(6.7542 0.00636972 0)
(6.65516 0.00928607 0)
(6.55859 0.00579597 0)
(6.47766 0.0146869 0)
(6.39097 -0.00843497 0)
(6.30679 0.0193136 0)
(-0.00654784 0.0908648 -1.12334e-21)
(-0.0320948 0.0830394 1.11867e-21)
(-0.0386361 0.0245741 0)
(0.0256386 -0.0595694 0)
(0.147155 -0.131187 0)
(0.330793 -0.185665 -1.15339e-21)
(0.556576 -0.22276 0)
(0.813244 -0.244554 0)
(1.08344 -0.251555 0)
(1.35254 -0.244706 0)
(1.6088 -0.226706 1.45225e-21)
(1.8417 -0.20065 0)
(2.04334 -0.169659 0)
(2.20896 -0.136797 0)
(2.33638 -0.104775 0)
(2.4257 -0.0755526 1.90714e-21)
(2.47939 -0.0501425 0)
(2.50116 -0.0288826 0)
(2.49487 -0.0108415 0)
(2.4665 0.00579471 0)
(2.42319 0.0225896 0)
(2.37006 0.0355719 0)
(2.31005 0.037006 0)
(2.25217 0.0252172 2.21014e-21)
(2.21095 0.00792313 -2.21438e-21)
(2.19241 -0.00386052 2.21186e-21)
(2.18334 -0.00420298 2.20429e-21)
(2.16368 0.00398408 0)
(2.12719 0.0123399 0)
(2.08769 0.0100451 -2.15546e-21)
(2.07078 -0.0094911 -2.12313e-21)
(2.09652 -0.0362038 0)
(2.15827 -0.0511576 0)
(2.23746 -0.0404367 -1.94462e-21)
(2.29588 0.00870237 0)
(2.26475 0.10457 0)
(2.12673 0.209419 1.6751e-21)
(1.89279 0.22835 0)
(1.5656 0.201503 1.48584e-21)
(1.27395 0.202682 2.82318e-21)
(1.21448 0.0399257 0)
(1.3346 -0.34999 0)
(1.4489 -0.707134 0)
(1.39579 -0.553054 0)
(0.992581 0.0723364 0)
(0.22027 0.54027 2.52145e-21)
(-0.680847 0.673769 2.6098e-21)
(-1.62125 0.708937 2.83502e-21)
(-2.59216 0.729834 0)
(-3.58958 0.746297 -3.6843e-21)
(-4.59941 0.758032 0)
(-5.60162 0.758737 4.95178e-21)
(-6.57265 0.741582 5.6838e-21)
(-7.48587 0.702243 0)
(-8.31592 0.640985 0)
(-9.04271 0.562482 0)
(-9.65351 0.473753 8.48364e-21)
(-10.1428 0.381626 0)
(-10.5113 0.291474 0)
(-10.7654 0.207668 0)
(-10.9146 0.134111 0)
(-10.9678 0.0728649 0)
(-10.9345 0.022351 0)
(-10.8362 -0.0199235 0)
(-10.6764 -0.0559364 0)
(-10.4648 -0.0865498 -8.3143e-21)
(-10.2077 -0.113343 0)
(-9.90971 -0.136534 0)
(-9.57585 -0.15712 6.4974e-21)
(-9.20889 -0.175628 5.80522e-21)
(-8.81192 -0.192272 0)
(-8.38728 -0.207429 -4.36326e-21)
(-7.93738 -0.221021 3.63581e-21)
(-7.46485 -0.23298 0)
(-6.97272 -0.243099 -2.22017e-21)
(-6.46469 -0.251082 0)
(-5.94509 -0.256682 0)
(-5.41881 -0.259678 3.31254e-22)
(-4.89103 -0.259947 0)
(-4.36688 -0.257533 6.9466e-22)
(-3.85116 -0.252622 0)
(-3.34839 -0.245459 -1.51094e-21)
(-2.86257 -0.23639 -1.84365e-21)
(-2.39698 -0.225851 -2.13074e-21)
(-1.95389 -0.214279 -4.75375e-21)
(-1.53442 -0.202164 5.17413e-21)
(-1.13853 -0.189852 0)
(-0.766313 -0.177502 0)
(-0.417477 -0.165694 0)
(-0.0925943 -0.154481 6.3147e-21)
(0.211175 -0.144612 6.4916e-21)
(0.498601 -0.135871 -6.63448e-21)
(0.770808 -0.128339 0)
(1.03047 -0.121944 6.83561e-21)
(1.28133 -0.115787 6.89938e-21)
(1.5256 -0.108001 6.94256e-21)
(1.76347 -0.101674 0)
(1.99657 -0.113805 0)
(2.24727 -0.158668 0)
(2.5716 -0.190874 6.98325e-21)
(2.97176 -0.115037 0)
(3.27102 -0.0174262 0)
(3.4198 -0.145938 -6.89154e-21)
(3.80929 -0.259325 0)
(4.36995 0.173492 0)
(4.11066 0.568999 -6.75048e-21)
(3.18501 0.375999 0)
(2.39033 0.198327 0)
(1.82792 0.180345 6.21628e-21)
(1.37137 0.0715471 5.97199e-21)
(1.11064 -0.0857424 0)
(1.29396 -0.243291 -5.68399e-21)
(1.86991 -0.277492 0)
(2.48204 -0.173379 5.69553e-21)
(2.84123 -0.103322 0)
(2.84554 -0.0347062 5.49883e-21)
(2.37716 0.167565 5.43832e-21)
(1.39904 0.409992 0)
(0.196215 0.504118 0)
(-0.975964 0.478558 0)
(-2.03327 0.424271 0)
(-2.9504 0.3642 0)
(-3.72831 0.305206 0)
(-4.36799 0.248188 0)
(-4.86848 0.192636 -2.27726e-21)
(-5.22892 0.138201 3.02614e-21)
(-5.44901 0.0853312 0)
(-5.5291 0.0353046 0)
(-5.47437 -0.0117811 0)
(-5.29738 -0.0555196 0)
(-5.00588 -0.0961288 5.54249e-21)
(-4.61084 -0.133334 0)
(-4.12368 -0.166969 -2.32351e-21)
(-3.55642 -0.196246 4.68929e-22)
(-2.92346 -0.219334 0)
(-2.24428 -0.233216 0)
(-1.54291 -0.234319 0)
(-0.844415 -0.22207 6.08718e-21)
(-0.177956 -0.202176 7.21366e-21)
(0.447898 -0.18085 0)
(1.04361 -0.162237 8.86187e-21)
(1.61554 -0.146754 9.44014e-21)
(2.16208 -0.130158 -9.86054e-21)
(2.66737 -0.109401 0)
(3.10787 -0.085961 0)
(3.46928 -0.0647499 -1.02486e-20)
(3.75866 -0.0503968 0)
(4.0028 -0.0445574 0)
(4.23656 -0.0460843 0)
(4.49186 -0.0528575 0)
(4.79332 -0.0626396 9.80993e-21)
(5.15551 -0.0721562 9.69567e-21)
(5.57609 -0.0769574 0)
(6.03184 -0.0746069 9.3489e-21)
(6.49027 -0.0665361 0)
(6.92707 -0.0544183 0)
(7.32944 -0.0392565 8.34104e-21)
(7.69154 -0.0223858 0)
(8.00427 -7.62263e-05 7.54479e-21)
(8.23275 0.0313801 0)
(8.32219 0.0682992 0)
(8.24021 0.107465 6.58438e-21)
(7.97387 0.129033 0)
(7.55073 0.146087 6.46816e-21)
(6.95734 0.207308 0)
(6.06744 0.25408 0)
(4.97198 0.188818 0)
(3.99823 0.0860199 -6.84021e-21)
(3.30648 0.0496227 0)
(2.85255 0.0514049 6.29585e-21)
(2.55662 0.0432139 0)
(2.33813 0.0370891 0)
(2.0861 0.0546261 0)
(1.71084 0.0890923 0)
(1.21999 0.113715 0)
(0.707609 0.112862 0)
(0.263654 0.0947849 0)
(-0.0960619 0.0733506 -4.77711e-21)
(-0.380532 0.0561387 0)
(-0.598656 0.0310126 0)
(0.0509148 -0.012366 3.31887e-21)
(0.150706 -0.0170445 -3.29591e-21)
(0.283124 -0.14108 0)
(0.478126 -0.31422 2.18379e-21)
(0.736047 -0.48849 0)
(1.04488 -0.636805 1.14961e-21)
(1.38505 -0.742352 -2.38919e-21)
(1.73604 -0.798968 -2.52263e-21)
(2.08074 -0.807786 0)
(2.40575 -0.774627 -2.87089e-21)
(2.70076 -0.707877 -1.44719e-21)
(2.95824 -0.616574 0)
(3.17312 -0.509754 0)
(3.34241 -0.395491 0)
(3.46509 -0.280365 0)
(3.54179 -0.17109 -1.90303e-21)
(3.57499 -0.0739734 0)
(3.568 0.0105454 4.23167e-21)
(3.52593 0.0834417 0)
(3.45457 0.134033 0)
(3.36203 0.156494 -4.41596e-21)
(3.25624 0.168852 0)
(3.14494 0.176757 4.46092e-21)
(3.03342 0.152049 -2.20755e-21)
(2.92229 0.0907409 2.21227e-21)
(2.81475 0.0409081 -2.21033e-21)
(2.72545 0.0427365 -2.20326e-21)
(2.66507 0.0832507 0)
(2.62348 0.113442 0)
(2.59083 0.0864771 2.155e-21)
(2.57562 -0.0053152 -2.21545e-21)
(2.59012 -0.114091 0)
(2.62988 -0.176266 0)
(2.65748 -0.157131 1.94467e-21)
(2.64737 -0.0310984 0)
(2.58748 0.173323 0)
(2.43972 0.377426 -1.67462e-21)
(2.19708 0.618074 0)
(1.93327 0.779582 1.46941e-21)
(1.77915 0.416248 -2.81915e-21)
(1.58139 -0.18165 0)
(0.995098 -0.0416319 0)
(-0.0922369 0.736911 -5.00785e-21)
(-1.28006 1.35913 -5.18275e-21)
(-2.34194 1.74278 -5.40288e-21)
(-3.3639 1.95761 3.17357e-21)
(-4.35354 2.05646 -2.58298e-21)
(-5.32611 2.1069 -9.60659e-21)
(-6.27325 2.12117 7.70959e-21)
(-7.18174 2.10303 3.65394e-21)
(-8.03538 2.04794 0)
(-8.81792 1.95009 -4.92203e-21)
(-9.51442 1.80754 7.33445e-21)
(-10.1145 1.62442 0)
(-10.6135 1.41055 0)
(-11.0128 1.17884 0)
(-11.3177 0.942165 -8.48804e-21)
(-11.5357 0.711011 0)
(-11.6738 0.492729 1.98192e-20)
(-11.7383 0.292155 0)
(-11.7368 0.112577 2.02632e-20)
(-11.6785 -0.0444159 0)
(-11.5698 -0.179754 -1.96558e-20)
(-11.4033 -0.29599 0)
(-11.1901 -0.395538 1.81745e-20)
(-10.9321 -0.480568 -8.82751e-21)
(-10.6337 -0.553993 0)
(-10.3 -0.617496 -1.47598e-20)
(-9.93248 -0.673236 -6.51461e-21)
(-9.53495 -0.722604 -5.81932e-21)
(-9.10877 -0.766491 0)
(-8.65624 -0.805359 -4.67764e-21)
(-8.17938 -0.839096 -3.64214e-21)
(-7.68037 -0.867274 0)
(-7.16218 -0.889152 2.22301e-21)
(-6.62827 -0.903883 -3.33046e-21)
(-6.08294 -0.910678 0)
(-5.53101 -0.90893 -3.31467e-22)
(-4.97776 -0.89832 0)
(-4.4285 -0.879069 -1.93368e-21)
(-3.88831 -0.851899 0)
(-3.36203 -0.817729 4.4118e-21)
(-2.85399 -0.777898 1.84348e-21)
(-2.36752 -0.734237 -2.03223e-21)
(-1.90481 -0.688574 -4.57508e-21)
(-1.46686 -0.642774 5.01216e-21)
(-1.05364 -0.598369 0)
(-0.664236 -0.55582 0)
(-0.297548 -0.51622 0)
(0.0453066 -0.479867 -1.88353e-20)
(0.366818 -0.448041 -6.48665e-21)
(0.670016 -0.419992 6.62995e-21)
(0.952485 -0.396597 0)
(1.21431 -0.379469 6.78186e-21)
(1.45802 -0.367708 -6.89718e-21)
(1.6863 -0.359036 -6.94129e-21)
(1.91108 -0.349803 0)
(2.13886 -0.348011 0)
(2.35028 -0.396908 0)
(2.54959 -0.501733 -6.98617e-21)
(2.81608 -0.519491 0)
(3.19698 -0.36372 1.37359e-20)
(3.52394 -0.326993 2.05549e-20)
(3.67702 -0.584484 -1.35532e-20)
(4.11432 -0.476093 0)
(4.93476 0.388888 -6.28871e-21)
(5.08493 1.11447 0)
(4.21288 1.03966 -1.24392e-20)
(3.23868 0.654151 6.01326e-21)
(2.56971 0.507413 5.85954e-21)
(2.13316 0.240362 0)
(2.12374 -0.422983 1.69074e-20)
(2.53016 -0.832934 -1.13569e-20)
(3.11517 -0.619655 -5.69196e-21)
(3.32195 -0.13269 0)
(2.74277 0.433619 -5.49711e-21)
(1.51628 1.0144 -1.6068e-20)
(0.0878442 1.36234 0)
(-1.18173 1.38349 -8.33963e-21)
(-2.22193 1.24449 -6.2765e-21)
(-3.07062 1.0713 -3.93627e-21)
(-3.76989 0.901115 0)
(-4.34288 0.740951 0)
(-4.79942 0.587053 0)
(-5.14128 0.435241 -2.77445e-21)
(-5.36775 0.284491 -3.02982e-21)
(-5.47824 0.135761 0)
(-5.47328 -0.00862418 -7.92925e-21)
(-5.35342 -0.144988 -7.76368e-21)
(-5.1174 -0.269813 0)
(-4.77477 -0.381555 -5.5487e-21)
(-4.33669 -0.479383 -8.73771e-21)
(-3.81498 -0.563354 2.32489e-21)
(-3.22178 -0.633032 9.58488e-22)
(-2.57154 -0.685414 0)
(-1.88381 -0.714289 0)
(-1.18324 -0.713588 0)
(-0.496391 -0.684814 -6.08401e-21)
(0.153376 -0.646162 6.96191e-21)
(0.767938 -0.607267 1.60157e-20)
(1.36586 -0.578421 -8.85327e-21)
(1.95801 -0.555282 9.27038e-21)
(2.54688 -0.522937 9.8541e-21)
(3.1148 -0.468686 0)
(3.62703 -0.39466 0)
(4.05286 -0.318252 -1.01919e-20)
(4.3873 -0.260208 0)
(4.65424 -0.232535 0)
(4.8928 -0.236078 2.00082e-20)
(5.14281 -0.26589 0)
(5.43834 -0.31458 9.77126e-21)
(5.80368 -0.369605 -9.6986e-21)
(6.24463 -0.412487 0)
(6.73973 -0.428751 9.28249e-21)
(7.24882 -0.41893 0)
(7.73936 -0.394354 0)
(8.20234 -0.364407 -8.347e-21)
(8.64229 -0.329757 1.58159e-20)
(9.05656 -0.278 -7.55113e-21)
(9.42807 -0.190377 0)
(9.73434 -0.0648332 0)
(9.92718 0.0870648 6.33082e-21)
(9.94242 0.24657 0)
(9.72887 0.389221 6.02207e-21)
(9.27669 0.53518 0)
(8.60404 0.723973 0)
(7.64983 0.838074 0)
(6.33939 0.738668 6.8204e-21)
(4.9426 0.51281 0)
(3.91406 0.316988 -6.28607e-21)
(3.34185 0.200946 0)
(3.00109 0.175143 0)
(2.63557 0.234327 1.11183e-20)
(2.12825 0.321948 -1.02506e-20)
(1.53778 0.363719 0)
(0.990944 0.336454 0)
(0.557033 0.273291 0)
(0.209907 0.212999 1.4207e-20)
(-0.0646771 0.171269 0)
(-0.318121 0.129201 -4.31619e-21)
(0.0155227 -0.310877 -2.92647e-23)
(0.14559 -0.390921 4.32268e-21)
(0.420077 -0.633783 0)
(0.806901 -0.955571 -4.36034e-21)
(1.25744 -1.25209 0)
(1.72924 -1.47064 0)
(2.1912 -1.59497 -2.02281e-22)
(2.62342 -1.62834 2.51262e-21)
(3.01473 -1.58286 3.02258e-21)
(3.35993 -1.47404 2.8603e-21)
(3.6571 -1.31794 0)
(3.90605 -1.12944 0)
(4.10771 -0.921844 -3.93951e-21)
(4.26346 -0.7071 -8.24478e-21)
(4.3749 -0.494558 8.55134e-21)
(4.44492 -0.292384 0)
(4.47569 -0.108697 8.97917e-21)
(4.46927 0.0533235 -4.22248e-21)
(4.42826 0.189666 0)
(4.35636 0.29489 9.20861e-21)
(4.25657 0.370572 4.40541e-21)
(4.13048 0.417141 -9.18049e-21)
(3.98668 0.432209 -4.45046e-21)
(3.84299 0.418459 0)
(3.69382 0.383737 9.07119e-21)
(3.52516 0.328152 9.03962e-21)
(3.36725 0.24661 0)
(3.25321 0.168906 9.00359e-21)
(3.17545 0.130813 0)
(3.12271 0.0926869 8.97183e-21)
(3.10133 -0.0055766 4.33346e-21)
(3.10761 -0.127251 0)
(3.09875 -0.164694 0)
(3.02368 -0.0665715 0)
(2.84576 0.159936 0)
(2.57085 0.501444 0)
(2.22872 0.873107 0)
(1.86671 1.04139 6.65271e-21)
(1.53166 0.866871 -9.07009e-21)
(0.963024 0.837436 0)
(-0.171562 1.39991 0)
(-1.48995 2.10119 0)
(-2.69481 2.62385 -6.75319e-22)
(-3.74558 2.94779 5.1431e-21)
(-4.66258 3.15443 1.1812e-20)
(-5.50183 3.2764 -1.26748e-20)
(-6.28144 3.3256 -7.77704e-21)
(-7.01999 3.32195 6.76946e-21)
(-7.71581 3.26994 2.07586e-21)
(-8.36317 3.16821 1.09805e-20)
(-8.9523 3.01121 0)
(-9.47577 2.79745 1.37344e-20)
(-9.92983 2.53175 2.18631e-21)
(-10.3153 2.22545 0)
(-10.636 1.89401 0)
(-10.8971 1.55346 -1.90268e-20)
(-11.1027 1.2176 0)
(-11.2553 0.896734 0)
(-11.3552 0.597397 2.26751e-20)
(-11.4024 0.322407 4.30209e-20)
(-11.3975 0.0722533 -2.02952e-20)
(-11.3421 -0.152934 0)
(-11.238 -0.353975 1.96779e-20)
(-11.0886 -0.530888 0)
(-10.8966 -0.685296 1.99457e-20)
(-10.6646 -0.819675 1.71811e-20)
(-10.3957 -0.936574 -3.35658e-20)
(-10.0917 -1.03925 -1.61655e-20)
(-9.75518 -1.13017 0)
(-9.38767 -1.21148 2.52107e-20)
(-8.99085 -1.28472 0)
(-8.56634 -1.35027 2.8227e-20)
(-8.11568 -1.40798 1.61483e-20)
(-7.64078 -1.45697 1.31623e-20)
(-7.14394 -1.4959 -1.02573e-20)
(-6.62828 -1.52321 1.07984e-20)
(-6.09772 -1.53737 0)
(-5.55683 -1.53723 0)
(-5.0108 -1.52207 -1.15709e-22)
(-4.46514 -1.49202 3.16599e-21)
(-3.92533 -1.44816 0)
(-3.39694 -1.39198 -2.89869e-21)
(-2.88516 -1.3258 0)
(-2.39396 -1.25302 1.21298e-20)
(-1.92598 -1.17692 3.13775e-22)
(-1.48229 -1.10085 -2.82267e-22)
(-1.0627 -1.02749 -1.06567e-20)
(-0.665807 -0.957976 0)
(-0.289916 -0.893229 1.18714e-20)
(0.0649006 -0.832648 1.71718e-22)
(0.403194 -0.775264 0)
(0.729269 -0.71974 0)
(1.04086 -0.666277 0)
(1.3342 -0.617668 -1.3607e-20)
(1.60335 -0.576144 0)
(1.84141 -0.548465 0)
(2.05123 -0.537495 0)
(2.24638 -0.532224 0)
(2.42752 -0.554277 0)
(2.57462 -0.641154 -1.37177e-20)
(2.69511 -0.72185 0)
(2.90025 -0.675822 -1.37392e-20)
(3.2587 -0.613854 -1.36613e-20)
(3.55337 -0.800017 1.35567e-20)
(3.76064 -0.959173 0)
(4.47768 -0.265768 1.30476e-20)
(5.2914 1.02148 0)
(5.19657 1.69912 1.24203e-20)
(4.37178 1.5083 -1.21847e-20)
(3.39695 1.0592 -3.51452e-20)
(2.83634 0.412023 0)
(2.71816 -0.618614 -3.36751e-20)
(2.78162 -1.23195 -1.13395e-20)
(2.90984 -0.789277 0)
(2.64226 0.272395 -2.16405e-20)
(1.67369 1.35343 -2.11967e-20)
(0.357096 2.10346 3.08441e-20)
(-0.776164 2.31382 0)
(-1.62399 2.14658 8.3287e-21)
(-2.30133 1.86791 6.27239e-21)
(-2.88745 1.58889 1.01034e-20)
(-3.42005 1.33749 0)
(-3.90355 1.10618 0)
(-4.32328 0.88057 0)
(-4.65822 0.651237 -6.42791e-21)
(-4.89101 0.416676 0)
(-5.01073 0.180401 0)
(-5.01016 -0.0522985 7.93834e-21)
(-4.88664 -0.275031 7.77131e-21)
(-4.64613 -0.480796 0)
(-4.29953 -0.664399 0)
(-3.86044 -0.823016 8.74204e-21)
(-3.34305 -0.956361 0)
(-2.76019 -1.06466 -1.42783e-21)
(-2.12437 -1.14407 1.65213e-21)
(-1.45221 -1.18409 0)
(-0.766901 -1.17433 0)
(-0.102204 -1.12044 -1.14574e-20)
(0.513994 -1.05224 -3.8417e-22)
(1.08343 -0.99074 -3.4336e-22)
(1.62767 -0.953485 0)
(2.17136 -0.931123 -3.7093e-20)
(2.73101 -0.894961 0)
(3.30052 -0.816785 0)
(3.84602 -0.693152 0)
(4.32113 -0.552383 2.04363e-20)
(4.69725 -0.435307 0)
(4.98235 -0.369175 -4.02037e-20)
(5.21252 -0.359953 -2.00124e-20)
(5.43446 -0.401678 0)
(5.6936 -0.48267 -1.95898e-20)
(6.02277 -0.581083 0)
(6.43201 -0.662214 0)
(6.90066 -0.695518 -5.54987e-20)
(7.38191 -0.679218 3.5714e-20)
(7.8344 -0.636219 0)
(8.24444 -0.588291 3.27914e-20)
(8.62172 -0.539613 -1.58339e-20)
(8.98734 -0.474687 0)
(9.35764 -0.37025 0)
(9.73606 -0.215693 0)
(10.0915 -0.0223886 -3.80842e-20)
(10.3898 0.209006 0)
(10.5929 0.475529 -1.24997e-20)
(10.5768 0.74915 0)
(10.3145 1.05434 0)
(9.81803 1.36082 0)
(8.84817 1.49268 0)
(7.31893 1.30825 0)
(5.6603 0.890969 0)
(4.40405 0.513179 -2.37198e-20)
(3.66663 0.377965 0)
(3.15564 0.46011 -1.11114e-20)
(2.60739 0.592097 3.06402e-20)
(2.0249 0.632636 0)
(1.50148 0.562181 0)
(1.08903 0.448452 -1.20158e-20)
(0.738442 0.352462 -9.42495e-21)
(0.454116 0.291903 6.5813e-21)
(0.173522 0.235336 4.31576e-21)
(-0.0215186 -0.376389 -6.50777e-21)
(0.294068 -0.912042 -6.49757e-21)
(0.804881 -1.55677 -4.45906e-21)
(1.36666 -2.08554 -2.51899e-21)
(1.91039 -2.43266 0)
(2.40479 -2.60566 5.53324e-21)
(2.83646 -2.63316 -3.49981e-21)
(3.20465 -2.5471 0)
(3.5145 -2.37654 -3.01641e-21)
(3.77253 -2.14595 0)
(3.98477 -1.87517 8.31676e-21)
(4.15645 -1.58051 0)
(4.29174 -1.27493 3.93776e-21)
(4.39398 -0.969288 8.24334e-21)
(4.46553 -0.673055 -8.55176e-21)
(4.50892 -0.394036 0)
(4.52527 -0.139003 -8.9823e-21)
(4.51764 0.084237 0)
(4.48576 0.275868 0)
(4.43161 0.43049 -9.20759e-21)
(4.3563 0.542439 0)
(4.25742 0.628151 -4.09043e-22)
(4.14918 0.671488 0)
(4.02719 0.662681 0)
(3.87812 0.648357 1.8785e-22)
(3.74414 0.605684 -9.03156e-21)
(3.63272 0.496061 -9.15035e-21)
(3.4917 0.397074 -8.99533e-21)
(3.35017 0.338938 0)
(3.28951 0.227475 -1.82146e-20)
(3.2974 0.0335887 0)
(3.27567 -0.114657 -9.31243e-21)
(3.14531 -0.0545344 0)
(2.87612 0.255048 0)
(2.48035 0.700615 8.8035e-21)
(1.99773 1.12955 0)
(1.4609 1.44998 -7.88659e-21)
(0.814198 1.72356 7.01793e-22)
(-0.0783635 2.14966 1.30111e-20)
(-1.23378 2.77734 -1.319e-20)
(-2.44436 3.38161 0)
(-3.49683 3.80421 0)
(-4.37713 4.05677 -8.32675e-21)
(-5.13489 4.20438 0)
(-5.81182 4.28503 -6.42241e-21)
(-6.43361 4.31274 7.01583e-21)
(-7.01397 4.29063 7.75885e-21)
(-7.55777 4.22012 0)
(-8.06257 4.09591 -9.74377e-21)
(-8.52368 3.91227 -1.09704e-20)
(-8.93666 3.66657 2.94381e-20)
(-9.30034 3.36257 -1.37331e-20)
(-9.61698 3.01091 -1.51713e-20)
(-9.89106 2.62653 0)
(-10.1271 2.22537 0)
(-10.3277 1.82125 1.90429e-20)
(-10.4931 1.42494 0)
(-10.6216 1.04444 0)
(-10.7109 0.685269 -4.25681e-20)
(-10.7583 0.35037 -4.30695e-20)
(-10.7617 0.0405298 0)
(-10.7234 -0.243406 0)
(-10.6428 -0.498529 0)
(-10.5199 -0.726787 0)
(-10.357 -0.928998 -3.81571e-20)
(-10.1564 -1.10826 3.80366e-20)
(-9.92052 -1.26696 3.35764e-20)
(-9.65138 -1.40836 6.36473e-20)
(-9.35091 -1.53527 0)
(-9.02054 -1.65006 1.56604e-21)
(-8.66182 -1.75436 0)
(-8.27619 -1.84876 -1.91732e-20)
(-7.86531 -1.93291 1.31751e-21)
(-7.43087 -2.00559 -1.31562e-20)
(-6.97468 -2.06499 1.02516e-20)
(-6.49925 -2.10875 1.07733e-21)
(-6.00778 -2.13453 0)
(-5.50384 -2.1405 3.2812e-21)
(-4.99134 -2.12542 1.1561e-22)
(-4.4744 -2.08901 -3.10438e-21)
(-3.957 -2.03228 0)
(-3.44381 -1.95697 4.75128e-21)
(-2.94017 -1.86629 0)
(-2.45123 -1.76542 -1.54374e-20)
(-1.98156 -1.65925 8.9998e-21)
(-1.53368 -1.55288 -9.88771e-21)
(-1.10843 -1.45027 1.06488e-20)
(-0.705714 -1.35449 2.19593e-20)
(-0.325286 -1.26755 -1.18638e-20)
(0.0319421 -1.18998 1.23387e-20)
(0.369706 -1.11965 0)
(0.693482 -1.05461 -2.57447e-20)
(1.00639 -0.990673 0)
(1.31198 -0.92401 -2.67643e-20)