/*--------------------------------*- C++ -*----------------------------------*\
| =========                 |                                                 |
| \\      /  F ield         | OpenFOAM: The Open Source CFD Toolbox           |
|  \\    /   O peration     | Version:  2112                                  |
|   \\  /    A nd           | Website:  www.openfoam.com                      |
|    \\/     M anipulation  |                                                 |
\*---------------------------------------------------------------------------*/
FoamFile
{
    version     2.0;
    format      ascii;
    arch        "LSB;label=32;scalar=64";
    class       volVectorField;
    location    "0.29";
    object      U_0;
}
// * * * * * * * * * * * * * * * * * * * * * * * * * * * * * * * * * * * * * //

dimensions      [0 1 -1 0 0 0 0];

internalField   nonuniform List<vector> 
12225
(
(9.70341 0.0508194 0)
(9.48346 0.0590572 0)
(9.27776 0.0534629 0)
(8.95402 0.0635639 0)
(8.6162 0.0736766 0)
(8.33005 0.0844063 0)
(8.07079 0.0920318 0)
(7.79584 0.0870676 0)
(7.51042 0.0666768 0)
(7.25702 0.040948 0)
(7.04469 0.0229245 0)
(6.88118 0.0219245 0)
(6.68895 0.033113 0)
(6.52512 0.0505754 0)
(6.25918 0.0650293 0)
(6.07179 0.0631434 0)
(5.73019 0.0770424 0)
(5.64515 0.0679207 0)
(9.95895 -0.00576538 0)
(10.0526 0.0279038 0)
(10.1533 0.0643382 0)
(10.2491 0.0922958 0)
(10.2759 0.0754892 0)
(10.2553 0.0472835 0)
(10.2226 0.0407899 0)
(10.1743 0.0576369 0)
(10.0973 0.0785862 0)
(10.0042 0.0918531 0)
(9.90742 0.0922476 0)
(9.83044 0.0911614 0)
(9.76339 0.0908843 0)
(9.72227 0.0935555 0)
(9.67242 0.104301 0)
(9.63864 0.120471 0)
(9.56099 0.12917 0)
(9.50808 0.158489 0)
(10.1429 -0.0133836 0)
(10.0972 0.014871 0)
(10.1636 0.0166822 0)
(10.2887 0.0315846 0)
(10.382 0.0587443 0)
(10.3773 0.0910254 0)
(10.2942 0.120586 0)
(10.19 0.137261 0)
(10.1111 0.132184 0)
(10.0769 0.109646 0)
(10.0766 0.0811437 0)
(10.0883 0.0627248 0)
(10.0973 0.0603602 0)
(10.0981 0.0719208 0)
(10.0894 0.0926846 0)
(10.0765 0.114404 0)
(10.0581 0.139151 0)
(10.0328 0.167895 0)
(9.91255 0.0152172 0)
(10.1374 -0.0196522 0)
(10.1982 0.0230985 0)
(10.1599 0.0490717 0)
(10.104 0.0602433 0)
(10.0542 0.0768558 0)
(10.0275 0.0969164 0)
(10.0358 0.108105 0)
(10.0766 0.10399 0)
(10.1347 0.0918239 0)
(10.1862 0.0822558 0)
(10.2077 0.0835759 0)
(10.1929 0.095412 0)
(10.15 0.10904 0)
(10.0943 0.123617 0)
(10.0423 0.139639 0)
(10.0004 0.156209 0)
(9.96901 0.176805 0)
(9.99389 -0.076993 0)
(9.8931 -0.0430615 0)
(9.89502 0.0120684 0)
(9.9918 0.0550907 0)
(10.0545 0.080364 0)
(10.0306 0.104027 0)
(9.95812 0.122588 0)
(9.88651 0.122634 0)
(9.84955 0.102462 0)
(9.85701 0.0762934 0)
(9.89652 0.0604847 0)
(9.94874 0.0636217 0)
(9.99941 0.0834236 0)
(10.0415 0.109743 0)
(10.0705 0.135886 0)
(10.0866 0.158023 0)
(10.0931 0.174439 0)
(10.0853 0.189941 0)
(9.89489 0.0528984 0)
(9.93853 0.0134134 0)
(10.0037 -0.00827844 0)
(10.0457 0.0129321 0)
(10.0375 0.0536951 0)
(9.99939 0.106778 0)
(9.96575 0.145762 0)
(9.94746 0.147181 0)
(9.94033 0.113781 0)
(9.94029 0.070428 0)
(9.9475 0.0407152 0)
(9.96461 0.034237 0)
(9.99429 0.0481818 0)
(10.0358 0.0724753 0)
(10.0802 0.0995056 0)
(10.1167 0.126619 0)
(10.1362 0.153913 0)
(10.1357 0.182171 0)
(10.1131 -0.0287769 0)
(9.93351 -0.0569327 0)
(9.89672 -0.0276939 0)
(9.97364 0.0440094 0)
(10.0331 0.093563 0)
(10.0546 0.12552 0)
(10.0788 0.141033 0)
(10.1145 0.133002 0)
(10.1417 0.10598 0)
(10.148 0.0751679 0)
(10.1367 0.0539265 0)
(10.1162 0.048123 0)
(10.0956 0.0572026 0)
(10.0781 0.0766925 0)
(10.0645 0.10256 0)
(10.0532 0.133386 0)
(10.0454 0.165213 0)
(10.043 0.199274 0)
(10.1855 0.13529 0)
(10.0039 0.0520671 0)
(9.8538 -0.0269175 0)
(9.83263 -0.0211103 0)
(9.88202 0.0288274 0)
(9.95452 0.0854717 0)
(10.0242 0.121419 0)
(10.0665 0.124243 0)
(10.075 0.101821 0)
(10.066 0.0729945 0)
(10.0566 0.0535575 0)
(10.054 0.0498303 0)
(10.0557 0.0609224 0)
(10.0598 0.082016 0)
(10.0622 0.106832 0)
(10.0649 0.133209 0)
(10.0683 0.158006 0)
(10.076 0.18308 0)
(9.87001 0.0128137 0)
(9.84888 0.0526915 0)
(9.90471 0.0442747 0)
(9.97687 0.0387151 0)
(10.0037 0.0453255 0)
(9.9925 0.064458 0)
(9.98592 0.0920263 0)
(10.0022 0.109628 0)
(10.0353 0.10467 0)
(10.0727 0.083423 0)
(10.1001 0.0615943 0)
(10.1121 0.0523126 0)
(10.1107 0.0593984 0)
(10.1061 0.0798068 0)
(10.1041 0.106658 0)
(10.1073 0.134617 0)
(10.1157 0.161441 0)
(10.1217 0.186716 0)
(9.62466 0.0549719 0)
(9.72632 -0.0221601 0)
(9.91411 -0.0907159 0)
(10.0449 -0.0582509 0)
(10.0695 0.0268031 0)
(10.0203 0.0980573 0)
(9.96675 0.122701 0)
(9.9516 0.103677 0)
(9.9706 0.0669783 0)
(10.0025 0.038831 0)
(10.0301 0.0303158 0)
(10.0494 0.0395693 0)
(10.0695 0.0583516 0)
(10.0966 0.0790971 0)
(10.1336 0.0998357 0)
(10.1727 0.120553 0)
(10.2094 0.144847 0)
(10.2356 0.173311 0)
(10.0637 0.089239 0)
(10.0331 -0.0396409 0)
(9.94701 -0.0794945 0)
(9.88261 -0.0205283 0)
(9.8512 0.0539854 0)
(9.88223 0.102066 0)
(9.96871 0.11605 0)
(10.0581 0.102739 0)
(10.1131 0.0764567 0)
(10.1223 0.0528955 0)
(10.0956 0.0393084 0)
(10.05 0.0344293 0)
(10.0048 0.0352579 0)
(9.97441 0.0435198 0)
(9.96844 0.0599702 0)
(9.98629 0.0854937 0)
(10.0207 0.117543 0)
(10.0709 0.158326 0)
(10.0602 -0.0134284 0)
(10.1536 -0.0178891 0)
(10.0912 -0.029388 0)
(10.0237 -0.00707887 0)
(9.96075 0.0303595 0)
(9.91004 0.0506481 0)
(9.87878 0.0483037 0)
(9.8708 0.0375099 0)
(9.88728 0.0362226 0)
(9.92382 0.049594 0)
(9.96915 0.0703507 0)
(10.0123 0.0892735 0)
(10.0479 0.100749 0)
(10.0745 0.0995746 0)
(10.0887 0.090463 0)
(10.0957 0.0840989 0)
(10.0999 0.0843007 0)
(10.1093 0.0973025 0)
(10.0614 -0.0170449 0)
(9.98529 -0.0387137 0)
(9.92326 -0.0243327 0)
(9.91974 0.0329567 0)
(9.92249 0.100806 0)
(9.92662 0.136576 0)
(9.93969 0.131732 0)
(9.95316 0.0929285 0)
(9.96377 0.0428557 0)
(9.97728 0.00472776 0)
(9.9971 -0.0134999 0)
(10.0268 -0.0157351 0)
(10.0678 -0.00780369 0)
(10.1169 0.0126492 0)
(10.1622 0.0416134 0)
(10.1983 0.074203 0)
(10.2201 0.105549 0)
(10.232 0.132713 0)
(9.89059 0.0285015 0)
(9.91712 0.0294844 0)
(9.91586 0.00135724 0)
(9.91998 -0.00870129 0)
(9.91772 0.0069482 0)
(9.93328 0.0232205 0)
(9.97395 0.0192213 0)
(10.0209 0.0115452 0)
(10.0568 0.0189462 0)
(10.0732 0.0382824 0)
(10.0668 0.0553017 0)
(10.0427 0.0604461 0)
(10.0109 0.0538709 0)
(9.9863 0.0421122 0)
(9.97853 0.0343235 0)
(9.99058 0.0376757 0)
(10.0158 0.0519188 0)
(10.0535 0.0746216 0)
(9.99678 0.00351476 0)
(10.0669 -0.0918713 0)
(10.1345 -0.0378495 0)
(10.1052 0.0506835 0)
(10.0234 0.11493 0)
(9.96334 0.130937 0)
(9.94234 0.100266 0)
(9.94737 0.0462583 0)
(9.97386 0.00290201 0)
(10.0181 -0.0112547 0)
(10.0677 -0.00191695 0)
(10.1077 0.0156525 0)
(10.1298 0.029231 0)
(10.1327 0.0355932 0)
(10.12 0.0368448 0)
(10.1016 0.0389287 0)
(10.0864 0.0431061 0)
(10.0847 0.0523598 0)
(10.0413 -0.0635395 0)
(10.0554 -0.0805524 0)
(10.0354 -0.00270323 0)
(10.0197 0.0747538 0)
(10.007 0.0938696 0)
(10.0294 0.0631196 0)
(10.0736 0.00956877 0)
(10.1102 -0.0350105 0)
(10.1334 -0.0543733 0)
(10.1496 -0.0488938 0)
(10.1612 -0.0266212 0)
(10.168 0.00352982 0)
(10.169 0.034258 0)
(10.1636 0.0606907 0)
(10.1522 0.0782772 0)
(10.1379 0.0856636 0)
(10.1262 0.0806335 0)
(10.1211 0.066503 0)
(10.1008 -0.14438 0)
(10.0873 -0.104807 0)
(10.0489 -0.0143172 0)
(10.0531 0.0641938 0)
(10.0948 0.0991926 0)
(10.129 0.083754 0)
(10.1329 0.0363858 0)
(10.1126 -0.00806009 0)
(10.0876 -0.0304114 0)
(10.0757 -0.0313998 0)
(10.0814 -0.017864 0)
(10.0998 0.00374527 0)
(10.1245 0.0278689 0)
(10.1523 0.0494763 0)
(10.1797 0.0635741 0)
(10.2048 0.0669708 0)
(10.2255 0.058896 0)
(10.2411 0.040394 0)
(10.1383 -0.0712629 0)
(10.0864 0.0199427 0)
(10.0417 0.0517967 0)
(10.0614 0.0317367 0)
(10.0947 0.0139373 0)
(10.119 0.0185674 0)
(10.1272 0.029164 0)
(10.1206 0.021425 0)
(10.1066 -0.00848652 0)
(10.0944 -0.0441288 0)
(10.0883 -0.067004 0)
(10.087 -0.0690931 0)
(10.0886 -0.0550324 0)
(10.0927 -0.033151 0)
(10.0975 -0.0116035 0)
(10.1014 0.00461136 0)
(10.1014 0.0152975 0)
(10.0984 0.0201949 0)
(9.85746 0.0230853 0)
(9.86518 -0.0364313 0)
(9.94009 -0.0481411 0)
(10.0238 -0.0268309 0)
(10.0685 0.00828302 0)
(10.0623 0.0295562 0)
(10.0498 0.0269285 0)
(10.0477 0.0153689 0)
(10.05 0.00799464 0)
(10.0519 0.00770598 0)
(10.0513 0.0119237 0)
(10.0477 0.0194528 0)
(10.0422 0.030333 0)
(10.0365 0.0434226 0)
(10.0324 0.0561657 0)
(10.0303 0.0661867 0)
(10.0312 0.0700825 0)
(10.0354 0.064199 0)
(10.0087 0.00395956 0)
(10.0654 -0.0894502 0)
(10.1273 -0.153693 0)
(10.1281 -0.112163 0)
(10.1095 -0.0170325 0)
(10.0893 0.0543327 0)
(10.0672 0.0667765 0)
(10.0576 0.0327692 0)
(10.0665 -0.0128853 0)
(10.0925 -0.0447647 0)
(10.1247 -0.0545206 0)
(10.1501 -0.0456656 0)
(10.1629 -0.0272276 0)
(10.1647 -0.00715757 0)
(10.1584 0.0081619 0)
(10.1488 0.0147148 0)
(10.1387 0.0103086 0)
(10.1348 -0.00753935 0)
(9.93259 -0.218434 0)
(10.0042 -0.240669 0)
(9.98091 -0.156659 0)
(9.94067 -0.0632314 0)
(9.92407 0.0179248 0)
(9.93393 0.0676941 0)
(9.97054 0.0636205 0)
(10.0152 0.0117907 0)
(10.0509 -0.0497937 0)
(10.0711 -0.0861873 0)
(10.0783 -0.0848554 0)
(10.077 -0.0531992 0)
(10.0697 -0.00754035 0)
(10.0594 0.0375773 0)
(10.0487 0.0710318 0)
(10.0387 0.085522 0)
(10.0306 0.0786461 0)
(10.0214 0.0504078 0)
(10.1669 -0.0162589 0)
(10.0367 -0.0830729 0)
(9.96331 -0.06596 0)
(9.89988 -0.00116887 0)
(9.90467 0.0334348 0)
(9.96556 0.0260934 0)
(10.0294 -0.0104777 0)
(10.0704 -0.0556996 0)
(10.0856 -0.0871948 0)
(10.0834 -0.091178 0)
(10.0768 -0.0697631 0)
(10.0751 -0.0341401 0)
(10.0801 0.00307999 0)
(10.0883 0.0333487 0)
(10.1003 0.0528258 0)
(10.1158 0.0593695 0)
(10.1345 0.0533757 0)
(10.1541 0.0349631 0)
(9.93309 0.0549981 0)
(9.95488 -0.0412816 0)
(10.0161 -0.0610634 0)
(10.0885 -0.0649188 0)
(10.1284 -0.0669949 0)
(10.1387 -0.0612065 0)
(10.1233 -0.0508441 0)
(10.0828 -0.0493456 0)
(10.0257 -0.0608494 0)
(9.96392 -0.0731494 0)
(9.90944 -0.0723337 0)
(9.87018 -0.0543722 0)
(9.85094 -0.024629 0)
(9.85315 0.00586635 0)
(9.87306 0.0252811 0)
(9.90461 0.0284469 0)
(9.94343 0.0152136 0)
(9.98436 -0.0105734 0)
(10.1786 0.0662288 0)
(10.05 -0.0615669 0)
(9.96051 -0.103485 0)
(9.92983 -0.063286 0)
(9.95969 -0.00539488 0)
(9.985 0.0285061 0)
(9.96944 0.0330682 0)
(9.93243 0.0246444 0)
(9.8985 0.0175872 0)
(9.87619 0.0171151 0)
(9.86601 0.0210681 0)
(9.87006 0.0239559 0)
(9.8903 0.0202551 0)
(9.9229 0.00936327 0)
(9.96346 -0.00710038 0)
(10.0068 -0.0270009 0)
(10.0489 -0.0493053 0)
(10.0832 -0.0721388 0)
(9.73096 0.106799 0)
(9.89806 0.098731 0)
(9.92762 -0.0383159 0)
(9.88781 -0.128752 0)
(9.87806 -0.115651 0)
(9.90907 -0.0512312 0)
(9.94265 0.0015608 0)
(9.96336 0.0157204 0)
(9.97792 -0.00234825 0)
(9.99538 -0.0326121 0)
(10.0216 -0.0576889 0)
(10.0588 -0.0706837 0)
(10.1016 -0.0726425 0)
(10.1433 -0.0696322 0)
(10.1796 -0.0678611 0)
(10.2073 -0.0706827 0)
(10.2257 -0.0790217 0)
(10.2325 -0.0909153 0)
(9.73322 0.0521255 0)
(9.89739 -0.0852892 0)
(9.94267 -0.0685522 0)
(9.91641 -0.0258821 0)
(9.93311 -0.0161797 0)
(10.0128 -0.0182478 0)
(10.1017 -0.013962 0)
(10.1523 -0.00842434 0)
(10.1523 -0.00931707 0)
(10.1154 -0.0180143 0)
(10.0634 -0.0308016 0)
(10.0175 -0.0425442 0)
(9.99361 -0.051619 0)
(9.99665 -0.0591794 0)
(10.021 -0.0656529 0)
(10.0561 -0.0710478 0)
(10.0924 -0.0749552 0)
(10.1197 -0.0769576 0)
(10.2655 0.0294643 0)
(10.1834 -0.0341679 0)
(10.0121 -0.0652778 0)
(9.86059 -0.107112 0)
(9.80449 -0.13897 0)
(9.83936 -0.124404 0)
(9.92458 -0.071425 0)
(10.0149 -0.0139814 0)
(10.0775 0.0199422 0)
(10.1021 0.0229117 0)
(10.1018 0.00264545 0)
(10.0976 -0.0302317 0)
(10.1011 -0.0658886 0)
(10.1135 -0.0971303 0)
(10.1291 -0.119279 0)
(10.1412 -0.131238 0)
(10.1452 -0.133485 0)
(10.1377 -0.127104 0)
(9.95707 0.0113652 0)
(10.0162 0.0395652 0)
(10.0869 0.0648574 0)
(10.1161 0.036511 0)
(10.105 -0.0355539 0)
(10.0706 -0.0973399 0)
(10.0422 -0.113812 0)
(10.0474 -0.0888062 0)
(10.0874 -0.0505504 0)
(10.1438 -0.0245694 0)
(10.1951 -0.0193607 0)
(10.2283 -0.0320334 0)
(10.2412 -0.0535269 0)
(10.2363 -0.0737797 0)
(10.217 -0.0851974 0)
(10.1877 -0.0858973 0)
(10.152 -0.0766324 0)
(10.1144 -0.0626317 0)
(9.99681 -0.0500499 0)
(9.99165 -0.0538768 0)
(10.0858 -0.0713352 0)
(10.1827 -0.0920261 0)
(10.2419 -0.0967303 0)
(10.2291 -0.0839324 0)
(10.1587 -0.0632106 0)
(10.0878 -0.0452692 0)
(10.0553 -0.0359795 0)
(10.06 -0.0370199 0)
(10.0805 -0.0471992 0)
(10.0969 -0.0618241 0)
(10.099 -0.0761317 0)
(10.0852 -0.0867143 0)
(10.06 -0.0913072 0)
(10.0316 -0.0899848 0)
(10.006 -0.0837944 0)
(9.98974 -0.0760632 0)
(9.85104 -0.0273064 0)
(9.84496 0.0139955 0)
(9.81904 -0.00638223 0)
(9.62463 -0.0453375 0)
(9.35082 -0.0698959 0)
(9.09806 -0.070418 0)
(8.89859 -0.0577603 0)
(8.75173 -0.0438433 0)
(8.6436 -0.0344959 0)
(8.55322 -0.0305589 0)
(8.45932 -0.0314424 0)
(8.34835 -0.0365109 0)
(8.21598 -0.0441345 0)
(8.06643 -0.0515493 0)
(7.90877 -0.055633 0)
(7.75635 -0.0553625 0)
(7.61545 -0.0512725 0)
(7.4954 -0.04516 0)
(-0.192867 0.385708 2.63305e-20)
(-0.520122 0.30156 -2.60782e-20)
(-0.765967 0.217761 0)
(-0.941998 0.11803 0)
(-1.06007 0.0281513 0)
(-1.08951 -0.0613831 2.51993e-20)
(-1.04395 -0.135102 0)
(-0.941742 -0.182747 0)
(-0.794923 -0.209592 0)
(-0.616993 -0.215596 0)
(-0.43191 -0.195688 -2.45192e-20)
(-0.269851 -0.154628 0)
(-0.158835 -0.103134 0)
(-0.107468 -0.0426765 0)
(-0.113536 0.0227124 0)
(-0.163705 0.0747695 -2.38097e-20)
(-0.239836 0.102589 0)
(-0.326548 0.109337 0)
(-0.407698 0.101067 0)
(-0.470329 0.0819408 0)
(-0.508052 0.0542644 0)
(-0.520078 0.0222644 0)
(-0.510572 -0.0113951 0)
(-0.481677 -0.0449413 -2.29438e-20)
(-0.437724 -0.0754821 2.28495e-20)
(-0.378364 -0.104082 -2.27611e-20)
(-0.298965 -0.127725 -2.26772e-20)
(-0.202729 -0.146516 0)
(-0.0812362 -0.168809 0)
(0.0699795 -0.175549 2.24564e-20)
(0.23599 -0.189212 2.23722e-20)
(0.438238 -0.20894 0)
(0.66149 -0.192874 0)
(0.885373 -0.212969 2.20982e-20)
(1.15859 -0.222968 0)
(1.41258 -0.150137 0)
(1.63961 -0.186162 -2.17578e-20)
(1.92746 -0.174266 0)
(2.1081 0.033194 -2.14923e-20)
(2.19703 -0.0120427 -4.27058e-20)
(2.39867 0.0482269 0)
(2.25517 0.692246 0)
(1.73321 0.781961 0)
(1.3749 0.152519 0)
(1.08807 -0.0805942 0)
(0.760556 0.0733881 -4.07351e-20)
(0.471886 0.163343 -4.02974e-20)
(0.200279 0.201016 -3.98091e-20)
(-0.148373 0.272658 0)
(-0.592338 0.350986 3.84432e-20)
(-1.07835 0.38465 0)
(-1.54181 0.353446 -3.67491e-20)
(-1.92357 0.259916 -3.59829e-20)
(-2.17452 0.116917 0)
(-2.25358 -0.0502185 0)
(-2.1486 -0.220272 0)
(-1.88223 -0.36099 -3.47231e-20)
(-1.46149 -0.474553 0)
(-0.852701 -0.595319 0)
(-0.0109265 -0.716992 0)
(1.00028 -0.796477 0)
(1.96003 -0.876613 0)
(3.08559 -0.757496 0)
(3.8406 0.042466 0)
(2.99048 0.749255 0)
(2.03326 0.275186 3.46691e-20)
(2.04885 -0.594699 0)
(2.39775 -0.894699 0)
(2.60363 -0.591472 -3.32784e-20)
(2.36477 -0.0829167 -3.26795e-20)
(1.76593 0.235462 0)
(0.95159 0.396139 3.15047e-20)
(-0.089686 0.579817 -3.08121e-20)
(-1.4097 0.830128 0)
(-2.99791 1.06442 2.89939e-20)
(-4.66963 1.12416 0)
(-6.18808 0.991478 0)
(-7.43551 0.785706 -2.47048e-20)
(-8.42833 0.59931 0)
(-9.21413 0.455586 2.16136e-20)
(-9.83811 0.350778 0)
(-10.3393 0.275122 -1.89571e-20)
(-10.7426 0.216795 -1.78369e-20)
(-11.0629 0.16836 -1.68644e-20)
(-11.3111 0.12692 -3.20822e-20)
(-11.492 0.0887071 3.07366e-20)
(-11.6047 0.0512476 0)
(-11.6478 0.0154606 0)
(-11.624 -0.0196888 0)
(-11.5388 -0.0519095 2.83165e-20)
(-11.3912 -0.0817027 2.83853e-20)
(-11.1868 -0.107649 -2.86709e-20)
(-10.9322 -0.129448 0)
(-10.6354 -0.147438 2.97401e-20)
(-10.3037 -0.16073 3.04439e-20)
(-9.94637 -0.169636 3.12102e-20)
(-9.57086 -0.175047 0)
(-9.18426 -0.177098 0)
(-8.79238 -0.17664 0)
(-8.39935 -0.174579 3.43577e-20)
(-8.0079 -0.171554 0)
(-7.61938 -0.168228 0)
(-7.23381 -0.165209 -3.64301e-20)
(-6.85006 -0.162931 0)
(-6.46616 -0.161719 0)
(-6.0795 -0.161794 -3.82205e-20)
(-5.68707 -0.163239 0)
(-5.28579 -0.166 0)
(-4.87281 -0.169887 3.9828e-20)
(-4.44591 -0.174566 4.03281e-20)
(-4.00373 -0.179611 0)
(-3.54563 -0.184612 -4.12511e-20)
(-3.0719 -0.189112 0)
(-2.58428 -0.192492 4.20148e-20)
(-2.08607 -0.194081 0)
(-1.5814 -0.19367 4.25306e-20)
(-1.07559 -0.191118 4.26688e-20)
(-0.574455 -0.185873 0)
(-0.0859465 -0.178495 0)
(0.384558 -0.169251 0)
(0.834347 -0.158248 0)
(1.2582 -0.146307 0)
(1.65244 -0.134388 0)
(2.01438 -0.124503 0)
(2.34335 -0.121246 4.05066e-20)
(2.64509 -0.131939 -3.99712e-20)
(2.93879 -0.157771 0)
(3.25143 -0.172538 0)
(3.5721 -0.119398 0)
(3.78991 0.0190704 0)
(3.77979 0.151764 -7.41782e-20)
(3.598 0.185891 0)
(3.39401 0.137837 7.18337e-20)
(3.25128 0.0682355 -7.06822e-20)
(3.18546 0.0134327 0)
(3.17975 0.000991086 0)
(3.17955 0.00237802 0)
(3.15844 -0.0608459 6.6549e-20)
(3.16323 -0.129369 6.56069e-20)
(3.16569 -0.0749926 0)
(3.06406 -0.0343737 6.38372e-20)
(2.95888 -0.143282 6.29362e-20)
(3.08112 -0.146646 -6.20965e-20)
(3.18687 0.124873 0)
(2.81763 0.291196 0)
(2.29236 0.116307 -5.9715e-20)
(2.11635 -0.125998 0)
(2.3388 -0.229362 0)
(2.7646 -0.182064 0)
(3.05603 -0.0767482 0)
(2.87967 0.0739146 5.59662e-20)
(1.95084 0.319291 5.47212e-20)
(0.210907 0.550981 0)
(-1.78104 0.584629 4.90974e-20)
(-3.54029 0.496117 0)
(-4.93007 0.377516 0)
(-5.92848 0.259626 3.64651e-20)
(-6.5505 0.150565 0)
(-6.8254 0.0519404 3.15766e-20)
(-6.77107 -0.032298 0)
(-6.44574 -0.101892 0)
(-5.88094 -0.159242 3.21648e-20)
(-5.12524 -0.202104 0)
(-4.23379 -0.229016 3.55094e-20)
(-3.26435 -0.239916 0)
(-2.26906 -0.235979 0)
(-1.2925 -0.220158 0)
(-0.380014 -0.195321 -4.00234e-20)
(0.428936 -0.168719 0)
(1.12613 -0.13882 3.98859e-20)
(1.71038 -0.110263 0)
(2.18479 -0.0871584 0)
(2.56603 -0.065162 0)
(2.86136 -0.0516308 0)
(3.1116 -0.0352063 0)
(3.29266 -0.0319635 0)
(3.46381 -0.0174392 0)
(3.55303 -0.00443228 -6.89698e-20)
(3.57657 0.0389672 0)
(3.45457 0.015782 0)
(0.0191556 1.00382 -7.90004e-20)
(0.0141546 0.846891 7.83831e-20)
(0.012823 0.618135 0)
(0.0354377 0.441496 -5.137e-20)
(0.0599429 0.274897 0)
(0.117703 0.0515194 -2.52803e-20)
(0.180816 -0.165226 5.01289e-20)
(0.279151 -0.349611 4.9778e-20)
(0.394221 -0.473336 0)
(0.508048 -0.530856 4.917e-20)
(0.611319 -0.496321 2.44922e-20)
(0.678428 -0.355103 0)
(0.714964 -0.182866 0)
(0.725819 -0.0295746 0)
(0.699562 0.0952914 0)
(0.623193 0.180827 2.38074e-20)
(0.506389 0.216094 0)
(0.371235 0.198278 -4.71245e-20)
(0.232471 0.150874 0)
(0.0947686 0.0902846 0)
(-0.0446798 0.0294039 4.65424e-20)
(-0.186674 -0.0208676 0)
(-0.324182 -0.053916 -4.60699e-20)
(-0.454436 -0.0749436 2.29444e-20)
(-0.566533 -0.0926782 -2.28421e-20)
(-0.656868 -0.117378 2.27465e-20)
(-0.71191 -0.152406 2.26537e-20)
(-0.72481 -0.201949 0)
(-0.699767 -0.263753 0)
(-0.622701 -0.326677 -2.24218e-20)
(-0.510429 -0.400555 2.22666e-20)
(-0.354079 -0.467023 0)
(-0.145675 -0.518778 0)
(0.0812562 -0.583999 -2.21289e-20)
(0.353275 -0.609141 0)
(0.65921 -0.600577 0)
(0.964599 -0.634081 2.17792e-20)
(1.30403 -0.583231 0)
(1.64589 -0.422399 -2.14969e-20)
(1.97524 -0.375917 4.27076e-20)
(2.33893 -0.231877 0)
(2.64403 0.226353 0)
(2.97491 0.530255 8.33984e-20)
(3.36023 0.716085 8.25757e-20)
(3.33572 0.962408 8.18298e-20)
(3.03262 0.949648 -4.05474e-20)
(2.76237 0.730483 4.00755e-20)
(2.3805 0.712576 1.1877e-19)
(1.89345 0.861065 -7.80347e-20)
(1.42625 0.933767 -3.83802e-20)
(0.995311 0.885477 0)
(0.618393 0.760179 3.68499e-20)
(0.32942 0.569938 -3.57842e-20)
(0.141299 0.319289 0)
(0.0379297 0.0221948 0)
(0.0564374 -0.327492 0)
(0.195357 -0.672031 3.48231e-20)
(0.402013 -1.02186 0)
(0.737651 -1.47989 -6.94585e-20)
(1.1629 -1.88379 0)
(1.67419 -2.0441 -7.02371e-20)
(2.21064 -2.03306 0)
(2.80788 -1.49078 7.01099e-20)
(3.42313 -0.0258917 0)
(3.21675 1.30571 -6.94256e-20)
(3.01113 1.00904 3.48079e-20)
(2.5587 0.100088 0)
(1.44009 0.213474 6.83292e-20)
(0.267782 0.752472 3.34489e-20)
(-0.904989 1.16387 3.27851e-20)
(-2.11993 1.5251 0)
(-3.38394 1.9057 3.08399e-20)
(-4.65694 2.26712 3.053e-20)
(-5.83845 2.50175 0)
(-6.87578 2.52032 -2.87396e-20)
(-7.7346 2.30557 5.35234e-20)
(-8.43082 1.9573 0)
(-9.01376 1.59661 2.46025e-20)
(-9.51684 1.28536 0)
(-9.94754 1.03264 -6.37553e-20)
(-10.3156 0.831466 0)
(-10.636 0.669969 5.60984e-20)
(-10.9132 0.535197 1.78239e-20)
(-11.1416 0.417817 -1.62699e-20)
(-11.3214 0.310311 -3.09792e-20)
(-11.453 0.206479 2.97028e-20)
(-11.5308 0.103877 0)
(-11.552 0.00340401 0)
(-11.5146 -0.0944915 0)
(-11.4125 -0.188204 -8.4184e-20)
(-11.2492 -0.275534 -2.83846e-20)
(-11.0286 -0.35296 2.86686e-20)
(-10.7583 -0.418446 0)
(-10.4461 -0.471549 2.92761e-20)
(-10.1013 -0.511765 -3.04382e-20)
(-9.73169 -0.539398 -3.12041e-20)
(-9.34626 -0.555774 0)
(-8.95223 -0.562739 0)
(-8.55509 -0.562532 0)
(-8.15899 -0.557417 -3.43514e-20)
(-7.76641 -0.549605 0)
(-7.37822 -0.541073 7.14012e-20)
(-6.99406 -0.533425 1.09136e-19)
(-6.61245 -0.527966 -7.39543e-20)
(-6.23104 -0.525656 0)
(-5.84699 -0.527056 -3.80609e-20)
(-5.45716 -0.532388 0)
(-5.0584 -0.541453 -7.84376e-20)
(-4.64782 -0.553667 3.96514e-20)
(-4.22316 -0.568092 4.01506e-20)
(-3.78311 -0.58349 0)
(-3.32716 -0.598631 1.23562e-19)
(-2.85569 -0.612127 -8.31454e-20)
(-2.37056 -0.622164 -4.20017e-20)
(-1.8751 -0.626939 0)
(-1.37402 -0.625444 -4.25167e-20)
(-0.872256 -0.617124 -1.27885e-19)
(-0.375556 -0.601022 0)
(0.107908 -0.579495 -8.5229e-20)
(0.573741 -0.550802 -8.48803e-20)
(1.02025 -0.51715 -8.43497e-20)
(1.44326 -0.479682 0)
(1.84138 -0.439121 0)
(2.21454 -0.395751 0)
(2.56243 -0.351077 4.04555e-20)
(2.88033 -0.312542 3.99489e-20)
(3.1558 -0.293398 0)
(3.38046 -0.291932 7.76107e-20)
(3.57917 -0.267045 7.64544e-20)
(3.80531 -0.170899 0)
(4.07156 -0.0272737 7.41476e-20)
(4.3147 0.0788963 1.45865e-19)
(4.49907 0.103112 -7.1752e-20)
(4.63025 0.0737887 -7.05735e-20)
(4.72425 0.0324541 0)
(4.79496 -0.00705968 0)
(4.89168 0.00132745 0)
(4.99088 0.0794726 -6.64259e-20)
(4.89917 0.125386 6.54371e-20)
(4.64442 0.117903 1.29175e-19)
(4.45895 0.172013 -6.37386e-20)
(4.20206 0.171506 6.28264e-20)
(3.80047 0.0138753 6.2045e-20)
(3.69509 -0.00441354 0)
(3.86824 0.221545 0)
(3.9396 0.339038 -5.96432e-20)
(3.82371 0.128728 0)
(3.71587 -0.179875 0)
(3.68036 -0.246547 1.15225e-19)
(3.40071 0.0395557 0)
(2.40924 0.62808 5.57817e-20)
(0.565221 1.27887 -5.46646e-20)
(-1.50927 1.5984 0)
(-3.21793 1.49701 4.74622e-20)
(-4.55859 1.23648 0)
(-5.59057 0.942091 0)
(-6.32541 0.644945 -3.64281e-20)
(-6.77369 0.357013 6.57363e-20)
(-6.94372 0.0862978 -3.15725e-20)
(-6.8545 -0.155897 0)
(-6.49457 -0.365487 0)
(-5.90041 -0.537571 3.1412e-20)
(-5.11589 -0.666172 0)
(-4.1945 -0.747734 3.49877e-20)
(-3.19427 -0.781784 0)
(-2.16798 -0.772331 0)
(-1.16033 -0.728596 0)
(-0.218241 -0.658983 3.99952e-20)
(0.62341 -0.579092 0)
(1.35969 -0.488684 -3.98583e-20)
(1.98912 -0.398286 0)
(2.51602 -0.319143 0)
(2.94964 -0.25006 7.61975e-20)
(3.30552 -0.201964 -7.47286e-20)
(3.60551 -0.162001 0)
(3.85746 -0.132777 0)
(4.06971 -0.0962185 0)
(4.19709 -0.0621875 2.06713e-19)
(4.30704 0.0276766 0)
(4.28701 0.0492074 -1.32262e-19)
(0.161779 0.443164 -1.49229e-22)
(0.404557 0.443232 -1.04506e-19)
(0.671545 0.280226 0)
(0.90551 0.0914135 1.02577e-19)
(1.11019 -0.0921162 0)
(1.27987 -0.257527 0)
(1.40156 -0.40821 -1.58992e-23)
(1.48144 -0.546593 -4.95801e-20)
(1.51253 -0.618317 -4.91502e-20)
(1.50095 -0.648466 -4.89805e-20)
(1.45065 -0.60671 0)
(1.37095 -0.456195 0)
(1.213 -0.270058 4.80555e-20)
(0.964277 -0.0536024 9.56378e-20)
(0.694975 0.201857 -9.51556e-20)
(0.43509 0.43577 0)
(0.130569 0.594736 -9.43518e-20)
(-0.216519 0.660869 4.71371e-20)
(-0.579464 0.665402 0)
(-0.954622 0.646893 -9.29105e-20)
(-1.32077 0.617303 -4.63597e-20)
(-1.66195 0.571908 9.18227e-20)
(-1.96087 0.502713 4.58525e-20)
(-2.20489 0.406541 0)
(-2.38849 0.285602 -9.03109e-20)
(-2.51026 0.1445 -8.98927e-20)
(-2.57382 -0.00840048 0)
(-2.5792 -0.168634 -8.91574e-20)
(-2.52906 -0.331377 0)
(-2.42678 -0.489348 -8.85677e-20)
(-2.27275 -0.639577 -4.44073e-20)
(-2.07509 -0.783309 0)
(-1.83873 -0.910562 0)
(-1.55828 -1.01095 0)
(-1.23529 -1.08941 0)
(-0.885021 -1.15931 0)
(-0.515081 -1.18318 0)
(-0.105405 -1.12239 -8.65323e-20)
(0.335956 -1.05012 1.2918e-19)
(0.780959 -1.01015 0)
(1.2458 -0.827301 0)
(1.7485 -0.456192 0)
(2.30409 -0.192968 4.49436e-23)
(2.87396 -0.00823808 -8.26519e-20)
(3.35933 0.329183 -1.6371e-19)
(3.80581 0.716083 1.61818e-19)
(4.20083 1.02774 7.97982e-20)
(4.36457 1.26773 -7.87991e-20)
(4.35411 1.44832 1.20426e-22)
(4.31851 1.54314 -7.60768e-20)
(4.23959 1.51205 0)
(4.08193 1.3255 -7.3009e-20)
(3.89834 0.994834 -1.91589e-22)
(3.72558 0.569434 0)
(3.5357 0.100957 0)
(3.39764 -0.389015 6.8947e-20)
(3.28887 -0.816864 0)
(3.23158 -1.12305 0)
(3.28774 -1.47758 -6.91433e-20)
(3.17164 -1.86343 -1.38944e-19)
(3.04237 -2.16288 6.99991e-20)
(3.15691 -2.42283 0)
(3.13435 -2.07623 -7.00515e-20)
(2.81483 -0.226966 0)
(2.43381 1.37431 -6.9386e-20)
(2.08211 1.23277 -6.95077e-20)
(0.867392 1.36573 1.38516e-19)
(-0.713936 1.97185 6.81581e-20)
(-2.10435 2.37634 0)
(-3.33123 2.68728 -1.29645e-19)
(-4.45252 2.97312 0)
(-5.45926 3.22615 -1.8349e-19)
(-6.3099 3.39618 -1.17413e-19)
(-6.9661 3.40661 -1.13021e-19)
(-7.44634 3.2154 1.08438e-19)
(-7.82907 2.86844 -1.57025e-19)
(-8.21969 2.4725 0)
(-8.66514 2.10492 0)
(-9.12071 1.77409 8.74173e-20)
(-9.52507 1.47196 1.2426e-19)
(-9.8821 1.21651 0)
(-10.2168 1.01083 -3.71681e-20)
(-10.513 0.829069 0)
(-10.7546 0.657584 9.76585e-20)
(-10.9533 0.496608 1.66927e-21)
(-11.1069 0.338583 -1.59976e-21)
(-11.1984 0.175901 -5.69191e-20)
(-11.2246 0.0119421 0)
(-11.1887 -0.147834 5.48163e-20)
(-11.0857 -0.305313 1.2674e-21)
(-10.9131 -0.45406 0)
(-10.6777 -0.58555 0)
(-10.3888 -0.696279 0)
(-10.0549 -0.785061 -5.90147e-20)
(-9.68554 -0.851468 0)
(-9.29103 -0.895851 0)
(-8.88114 -0.92017 0)
(-8.46413 -0.928132 0)
(-8.04671 -0.923763 0)
(-7.63374 -0.911066 -6.82925e-20)
(-7.22798 -0.894028 0)
(-6.83041 -0.876227 -7.14159e-20)
(-6.44054 -0.860488 -7.27281e-20)
(-6.0565 -0.849035 7.39711e-20)
(-5.67535 -0.843479 0)
(-5.29361 -0.844641 7.62916e-20)
(-4.90755 -0.852778 0)
(-4.51351 -0.867479 7.84519e-20)
(-4.10817 -0.887718 -7.94834e-20)
(-3.68884 -0.911988 -2.40902e-19)
(-3.25397 -0.938157 0)
(-2.80283 -0.963955 -2.46481e-19)
(-2.33611 -0.987052 -8.26797e-20)
(-1.8567 -1.00425 0)
(-1.36791 -1.01313 -1.68583e-19)
(-0.876367 -1.0112 -1.69558e-19)
(-0.388316 -0.997239 2.55428e-19)
(0.0884007 -0.971395 0)
(0.546352 -0.935673 8.51458e-20)
(0.981164 -0.889317 8.47902e-20)
(1.38965 -0.836337 2.52685e-19)
(1.76985 -0.77917 0)
(2.12127 -0.720553 0)
(2.4444 -0.66334 0)
(2.74145 -0.609051 8.0803e-20)
(3.01566 -0.557824 0)
(3.26577 -0.511824 0)
(3.48172 -0.471565 -7.75836e-20)
(3.65987 -0.41974 -7.64315e-20)
(3.82722 -0.327914 0)
(4.02585 -0.204254 0)
(4.26736 -0.105083 -1.45867e-19)
(4.51595 -0.0670227 0)
(4.71012 -0.0742979 1.41144e-19)
(4.80861 -0.091977 1.38871e-19)
(4.83022 -0.114761 0)
(4.86096 -0.122404 0)
(4.97453 -0.0403202 -1.32724e-19)
(5.05902 0.098863 -9.50768e-23)
(4.95924 0.180706 -1.26697e-22)
(4.7453 0.251708 0)
(4.49914 0.302003 -2.5109e-19)
(4.17618 0.170118 0)
(3.90712 0.0274899 0)
(3.9157 0.144182 0)
(4.01368 0.251121 1.19244e-19)
(4.00553 0.0615346 0)
(3.92302 -0.165346 -2.33217e-19)
(3.63706 -0.00181266 -1.15225e-19)
(2.83844 0.67524 0)
(1.29994 1.63721 -1.11684e-19)
(-0.594121 2.38612 0)
(-2.15981 2.52604 0)
(-3.4153 2.25477 -2.84385e-19)
(-4.54978 1.86145 1.71122e-19)
(-5.51961 1.43384 0)
(-6.24954 0.99075 1.39187e-19)
(-6.70452 0.548533 -6.572e-20)
(-6.87501 0.122511 0)
(-6.76879 -0.272495 0)
(-6.40355 -0.619847 0)
(-5.80638 -0.905125 -1.8813e-19)
(-5.01944 -1.11832 0)
(-4.09488 -1.25274 -7.04148e-20)
(-3.08949 -1.30728 0)
(-2.05582 -1.28906 0)
(-1.03992 -1.21362 0)
(-0.0945896 -1.09756 0)
(0.74129 -0.962972 0)
(1.46001 -0.818931 0)
(2.0636 -0.677818 -1.5725e-19)
(2.56881 -0.553213 0)
(2.99818 -0.444158 -7.61696e-20)
(3.36642 -0.362756 2.23977e-19)
(3.7029 -0.298762 0)
(3.99391 -0.247875 0)
(4.2824 -0.184079 -1.40442e-19)
(4.50006 -0.106682 -1.37732e-19)
(4.65324 0.000205102 1.34787e-19)
(4.66556 0.0720595 1.32219e-19)
(0.148166 -0.208221 1.58465e-19)
(0.529407 -0.369455 1.56916e-19)
(0.956087 -0.439156 1.03446e-19)
(1.31503 -0.482241 5.10466e-20)
(1.58325 -0.485475 0)
(1.75678 -0.465042 -1.00205e-19)
(1.84279 -0.51168 4.95222e-20)
(1.81993 -0.570814 0)
(1.7235 -0.529487 4.91571e-20)
(1.46456 -0.481189 0)
(0.98703 -0.249768 -9.69552e-20)
(0.504717 0.24364 0)
(0.0186844 0.737477 -4.81744e-20)
(-0.512838 0.965014 -9.57085e-20)
(-0.980101 1.11072 9.50233e-20)
(-1.39386 1.28757 0)
(-1.79485 1.42103 9.3847e-20)
(-2.18577 1.47193 0)
(-2.56147 1.44887 0)
(-2.91116 1.37123 9.23415e-20)
(-3.22258 1.24788 0)
(-3.49121 1.08715 -1.02873e-21)
(-3.71254 0.89765 0)
(-3.8843 0.686695 0)
(-4.00478 0.460305 1.10899e-21)
(-4.07351 0.223549 8.95192e-20)
(-4.09086 -0.0198134 8.806e-20)
(-4.05675 -0.264346 8.88159e-20)
(-3.97398 -0.506911 0)
(-3.84345 -0.742343 1.75396e-19)
(-3.6678 -0.966043 0)
(-3.44984 -1.17544 8.67995e-20)
(-3.19022 -1.36772 0)
(-2.88987 -1.53571 0)
(-2.55402 -1.67022 -8.63593e-20)
(-2.18636 -1.7701 0)
(-1.78114 -1.83719 8.60171e-20)
(-1.335 -1.85915 3.99935e-22)
(-0.858296 -1.83112 -1.71451e-19)
(-0.369735 -1.75674 1.70528e-19)
(0.142833 -1.61206 0)
(0.709709 -1.39217 0)
(1.31849 -1.15707 8.35077e-20)
(1.94015 -0.893688 0)
(2.56445 -0.546479 8.19992e-20)
(3.20886 -0.170244 -8.10088e-20)
(3.86144 0.182935 -7.98833e-20)
(4.46315 0.554875 0)
(5.00089 0.930487 7.74055e-20)
(5.48578 1.22012 7.59191e-20)
(5.88856 1.37281 -1.48998e-19)
(6.17621 1.3779 7.26929e-20)
(6.34661 1.21622 7.12009e-20)
(6.40438 0.912997 0)
(6.33733 0.550439 0)
(6.17815 0.125992 -6.85628e-20)
(5.8895 -0.351121 0)
(5.52991 -0.830526 0)
(5.17686 -1.18005 1.37735e-19)
(4.66852 -1.40311 1.38589e-19)
(4.22434 -1.9834 0)
(3.84303 -2.25266 0)
(2.9164 -0.965326 0)
(1.86204 1.05644 0)
(1.36352 2.09019 1.3906e-19)
(0.501129 2.55643 -1.38297e-19)
(-0.929476 3.22088 -1.3814e-19)
(-2.20468 3.59932 -2.69953e-19)
(-3.30091 3.79014 0)
(-4.26553 3.93798 2.12584e-21)
(-5.09993 4.0522 0)
(-5.78731 4.10573 1.21438e-19)
(-6.32052 4.05903 2.79531e-21)
(-6.72254 3.89097 1.12972e-19)
(-7.07058 3.62514 -1.08426e-19)
(-7.47137 3.32257 2.99188e-21)
(-7.98361 3.01579 0)
(-8.5413 2.6684 -8.9887e-20)
(-9.0221 2.25964 -8.73742e-20)
(-9.40116 1.86827 -1.61287e-19)
(-9.7549 1.57339 0)
(-10.1042 1.33759 6.9765e-20)
(-10.4035 1.1009 0)
(-10.6539 0.876151 -1.26631e-19)