/*--------------------------------*- C++ -*----------------------------------*\
| =========                 |                                                 |
| \\      /  F ield         | OpenFOAM: The Open Source CFD Toolbox           |
|  \\    /   O peration     | Version:  2112                                  |
|   \\  /    A nd           | Website:  www.openfoam.com                      |
|    \\/     M anipulation  |                                                 |
\*---------------------------------------------------------------------------*/
FoamFile
{
    version     2.0;
    format      ascii;
    arch        "LSB;label=32;scalar=64";
    class       volScalarField;
    location    "0.12";
    object      omega;
}
// * * * * * * * * * * * * * * * * * * * * * * * * * * * * * * * * * * * * * //

dimensions      [0 0 -1 0 0 0 0];

internalField   nonuniform List<scalar> 
12225
(
22384.2
26131.9
29345.3
31292.7
32346
32512.4
32378.2
32036.9
31505.6
30922.4
30355
29792.8
29287.6
28802.6
28371.5
27991.3
27595.9
27370.2
949.136
2561.43
4158.59
5561.33
6738.25
7636.58
8285.24
8757.52
9078.47
9299.46
9441.98
9542.79
9597.64
9648.19
9663.33
9690.49
9685.56
9752.11
88.882
248.538
400.255
626.862
876.301
1149.88
1379.32
1619.81
1802.64
1998.23
2135.48
2291.48
2389.84
2521.42
2592.26
2690.36
2747.34
2871.58
26.9331
60.6958
89.1599
131.743
172.542
228.544
271.919
330.805
371.524
428.452
464.649
517.307
547.413
596.527
620.484
662.671
691.611
729.199
20.6677
28.2088
39.0827
52.1367
63.2253
79.1846
91.0485
108.074
119.742
136.719
147.699
164.04
173.896
189.282
197.814
212.966
220.507
233.576
19.9201
21.4169
25.0153
31.1067
35.8699
42.0002
46.8152
53.327
58.1079
64.5726
69.1431
75.4203
79.6112
85.6057
89.2546
95.3981
98.4088
103.862
19.8262
20.1036
21.0108
23.3119
25.6946
28.9042
31.4465
34.4336
36.8268
39.8155
42.1382
45.0507
47.205
50.0192
51.9053
54.7953
56.3266
59.0565
19.8119
19.866
20.0618
20.6527
21.5341
23.1326
24.5627
26.2707
27.7012
29.27
30.5604
32.0916
33.3193
34.8132
35.9067
37.4368
38.2936
39.868
19.8084
19.8203
19.862
19.9842
20.2312
20.7305
21.3527
22.2627
23.1303
24.0859
24.9174
25.7995
26.5223
27.3715
28.0421
28.905
29.4593
30.3651
19.8068
19.8092
19.8181
19.8462
19.9023
20.0254
20.2052
20.5305
20.911
21.418
21.9297
22.4786
22.9633
23.4773
23.8869
24.3897
24.7492
25.2849
19.8053
19.805
19.8065
19.8144
19.8263
19.8588
19.9027
19.9886
20.1025
20.2807
20.4938
20.7681
21.056
21.3698
21.6457
21.9514
22.1769
22.4924
19.8047
19.8021
19.8022
19.8046
19.8081
19.8203
19.8334
19.8604
19.8937
19.9509
20.0219
20.1266
20.2493
20.4086
20.5724
20.7628
20.914
21.1133
19.8042
19.8004
19.7987
19.7992
19.8006
19.8058
19.8111
19.8218
19.8325
19.8511
19.8716
19.9048
19.9421
19.9995
20.0607
20.1499
20.2296
20.3437
19.8037
19.7989
19.7959
19.7948
19.7953
19.7972
19.8001
19.8054
19.8103
19.8178
19.8246
19.8354
19.8452
19.8618
19.877
19.9034
19.9268
19.9667
19.8033
19.7976
19.7937
19.7913
19.7907
19.7912
19.7925
19.7952
19.7982
19.8022
19.8058
19.8106
19.8146
19.8201
19.8248
19.8318
19.8377
19.8473
19.803
19.7966
19.7917
19.7887
19.7868
19.7864
19.7868
19.7879
19.7896
19.7919
19.7942
19.7969
19.7993
19.802
19.8044
19.8072
19.8095
19.8125
19.8029
19.7959
19.7903
19.7864
19.7841
19.7827
19.7825
19.7828
19.7835
19.7847
19.7861
19.7877
19.7892
19.7908
19.7923
19.7938
19.795
19.7965
19.8028
19.7955
19.7895
19.7852
19.7822
19.7807
19.7797
19.7797
19.7799
19.7805
19.7813
19.7822
19.7832
19.7842
19.7851
19.786
19.7868
19.7875
19.8028
19.7956
19.7896
19.7851
19.7821
19.7805
19.7795
19.7793
19.7795
19.7799
19.7805
19.7813
19.7822
19.783
19.7839
19.7847
19.7855
19.7862
19.8029
19.7961
19.7906
19.7867
19.7843
19.7828
19.7825
19.7827
19.7833
19.7845
19.786
19.7876
19.7896
19.7917
19.7941
19.7965
19.7996
19.8022
19.8032
19.7971
19.7923
19.7895
19.7878
19.788
19.7888
19.791
19.7946
19.7993
19.8057
19.8132
19.8228
19.8336
19.8474
19.8619
19.8807
19.898
19.8035
19.7987
19.7953
19.7955
19.7977
19.8036
19.8144
19.8313
19.8552
19.8853
19.9247
19.9714
20.0279
20.0923
20.1657
20.2394
20.3236
20.3985
19.8036
19.8028
19.8067
19.8207
19.8514
19.9064
19.9936
20.1031
20.2449
20.413
20.6127
20.8228
21.0522
21.285
21.5276
21.7555
22.0004
22.2147
19.8069
19.8213
19.8749
20.0094
20.2631
20.6044
21.0603
21.5444
22.1065
22.6831
23.3062
23.9005
24.5221
25.0968
25.7071
26.263
26.8708
27.3841
19.8188
19.9734
20.443
21.3097
22.5565
23.8225
25.3401
26.7602
28.3649
29.8184
31.4158
32.866
34.4584
35.8659
37.42
38.7439
40.256
41.4619
19.9556
21.2987
24.2207
27.6404
31.7038
35.3165
39.7832
43.7359
48.5312
52.6086
57.4643
61.4628
66.2292
70.0308
74.6305
78.1579
82.5631
85.7668
21.7679
31.4715
43.2642
55.9739
69.7707
83.1768
100.768
116.292
135.687
151.314
170.837
185.677
204.555
218.201
236.036
248.343
264.98
275.953
46.1953
106.146
168.869
241.674
314.711
401.342
507.341
607.202
716.482
807.375
907.244
984.992
1072.94
1137.28
1213.52
1266.17
1332.09
1375.34
427.748
1118.92
1821.62
2553.08
3269.6
3919.95
4481.16
4952.68
5346.25
5653.03
5914.25
6107.37
6276.7
6391.54
6504.51
6568.37
6649.3
6679.44
13853.3
16186.7
18402.6
20305
21684.3
22649
23178.1
23489.6
23506.2
23450.9
23316.8
23101.4
22854.3
22595
22330.1
22070.9
21817.2
21575.8
5735.33
1273.73
1290.41
1315.66
1364.17
1436.44
1517.54
1603.67
1679.51
1772.89
1853.54
1919.31
1974.21
2023.28
2066.48
2104.36
2137.56
2167.32
2194.48
2219.43
2243.29
2265.95
2288.39
2310.13
2331.73
2352.84
2373.08
2394.61
2415.39
2436.34
2456.35
2475.74
2493.81
2509.96
2524.92
2536.89
2548.19
2556.31
2564.32
2566.18
2565.87
2561.74
2550.95
2532.74
2505.97
2467.4
2417.12
2345.22
2257.13
2122.92
1967.17
1692.46
1432.91
1424.9
1469.09
1503.69
1528.97
1541.97
1546.95
1547.42
1547.27
1553.39
1575.04
1629.03
1679.89
1680.83
1671.99
1645.53
1628.72
1627.85
1642.56
1713.03
1743.62
1816.94
2782.43
3472.45
3772.45
4015.22
4169.24
4297.94
4390.07
4467.46
4528.44
4579.59
4623.99
4662.21
4699.6
4733.96
4770.48
4807.21
4846.66
4888.21
4933.28
4982.6
5035.54
5091.51
5149.53
5209.23
5269.27
5328.32
5384.52
5437.19
5485.14
5527.4
5563.33
5592.75
5615.65
5632.36
5642.48
5649.21
5650.31
5642.3
5629.75
5612.28
5588.99
5562
5531.87
5497.91
5461.82
5424.21
5384.7
5344.53
5304.38
5263.71
5223.34
5183.48
5143.77
5104.93
5066.62
5028.38
4990.66
4952.13
4913.3
4874.95
4839.5
4809.07
4773.65
4731.81
4685.65
4631.2
4570.2
4512.62
4473.39
4525.57
4608.78
4692.22
4777.52
4863.47
4949.79
5038.55
5129.46
5221.21
5313.41
5405.85
5498.52
5593.2
5687.72
5780.73
5873.72
5959.63
6037
6110.03
6163.54
6183.11
6186.77
6166.83
6098.85
5964.23
5789.77
5586.75
5377.49
5168.68
4990.37
4829.76
4680.53
4454.2
4203.09
3878.3
3702.11
3452.04
5740.94
1214.45
817.71
763.735
686.701
604.625
538.554
490.386
461.936
446.994
440.1
437.703
436.902
436.184
435.389
434.601
434.634
435.042
435.925
438.022
441.054
444.918
449.39
454.277
459.56
464.71
469.963
474.688
479.355
483.003
486.846
489.471
492.644
494.522
497.853
499.647
506.092
521.573
551.161
589.899
642.984
702.893
780.514
860.745
963.297
1060.57
1184.92
1289.37
1419.83
1504.18
1592.9
1560.04
1443.33
1380.22
1248.5
1096.42
969.639
799.651
674.526
632.388
628.418
614.917
615.199
621.74
622.152
617.227
611.75
613.935
634.506
725.212
978.946
1760.59
2383.51
2480.73
2723.95
2810.84
2473.49
2291.79
2006.25
1856.14
1666.77
1571.06
1458.24
1402.52
1345.83
1318.63
1304.76
1300.01
1302.28
1321.26
1339.52
1361.67
1388.62
1411
1433.08
1448.97
1453.93
1454.2
1448.89
1431.87
1404.04
1371.88
1337.28
1301.08
1266.51
1245.54
1235.69
1233.23
1237.08
1243.34
1245.17
1245.69
1247.86
1249.63
1249.53
1249.49
1249.59
1249.36
1248.9
1248.33
1247.71
1247.13
1246.64
1246.3
1246.14
1246.12
1246.23
1246.67
1247.47
1248.31
1249.35
1250.83
1252.72
1255.09
1258.08
1261.7
1265.55
1269.47
1273.3
1276.64
1279.33
1281.55
1284.12
1288.4
1291.83
1293.57
1293.45
1291.39
1287.78
1282.68
1276.04
1267.14
1258.09
1248.07
1238.88
1231.12
1223.49
1219.28
1219.16
1218.99
1227.83
1238.76
1250.31
1289.67
1381.13
1523.47
1705.22
1896.33
2072.5
2224.55
2326.83
2353.69
2348.42
2318.26
2292.2
2291.11
2319.16
2328.01
2316.2
2370.39
5737.31
1639.26
1160.2
875.866
675.228
526.418
439.401
401.302
382.52
371.902
363.9
357.05
350.009
343.684
339.258
336.929
337.529
339.754
344.389
350.881
358.489
367.012
376.213
385.695
395.298
404.257
412.788
419.815
425.84
429.532
432.304
432.496
431.881
430.242
427.818
424.236
420.216
416.964
414.145
414.286
415.984
420.65
429.25
447.585
469.095
510.513
553.688
631.325
703.768
826.744
919.74
1061.44
1203.28
1230.44
1201.96
1123.5
1014.18
859.198
738.983
691.523
648.185
592.204
571.78
575.163
589.813
615.207
678.517
790.101
1089.44
1536.45
1970.92
2199.03
2258.22
2187.34
1969.97
1494.55
1291.98
1086.57
976.109
888.066
838.034
803.118
785.211
777.267
774.632
776.119
785.592
796.036
808.885
824.568
838.971
853.741
868.619
881.514
893.503
903.519
910.814
916.528
920.669
923.289
924.911
926.343
928.575
931.891
936.284
942.301
949.887
957.143
962.708
967.136
970.562
972.779
974.185
974.969
975.062
975.002
974.886
974.721
974.79
975.179
975.763
976.751
978.489
981.116
984.528
988.69
993.657
999.503
1006.28
1013.98
1022.68
1032.39
1043.08
1054.83
1067.42
1080.58
1093.89
1106.46
1118.77
1130.98
1142.3
1151.77
1159.33
1164.76
1167.44
1167.65
1166.05
1160.36
1149.11
1134.49
1116.76
1096
1072.96
1047.42
1020.72
993.968
965.465
938.094
913.14
887.412
865.904
848.658
829.183
819.33
819.827
826.702
845.15
884.18
936.437
998.935
1063.76
1121.24
1162.82
1183.03
1193.27
1198.25
1207.37
1214.97
1213.97
1266.42
5738.1
2164.58
1233.09
750.812
508.676
422.334
388.684
371.316
360.002
349.099
337.312
327.247
320.773
318.056
318.731
321.047
326.143
335.267
347.32
362.448
380.005
399.253
419.376
439.441
458.593
475.877
491.495
503.685
511.495
515.958
515.485
513.629
509.462
503.04
495.152
486.532
477.239
467.308
456.106
445.696
433.662
425.551
419.486
414.1
413.072
415.348
422.461
441.679
467.273
519.976
586.889
664.498
774.037
869.657
968.547
1002.18
973.678
901.226
810.925
752.417
697.6
629.231
606.362
628.589
707.249
884.298
1252.82
1653
1819.43
1900.31
1969.91
1999.98
1758.37
1418.61
1105.89
905.912
807.362
724.127
686.818
663.419
653.466
649.897
649.648
654.725
662.295
671.225
683.145
695.479
709.103
723.749
738.315
753.163
768.122
782.691
797.02
810.853
823.967
836.509
848.602
860.314
871.771
882.966
893.851
904.348
914.125
922.946
930.455
936.266
940.246
942.888
943.649
943.39
942.136
940.41
938.365
936.444
934.965
934.484
934.365
934.304
934.465
935.558
938.07
941.9
946.919
953.128
960.563
969.286
979.321
990.658
1003.28
1017.09
1031.81
1047.01
1062.6
1078.44
1094.24
1109.96
1124.89
1138.42
1150.29
1160.58
1168.83
1174.34
1176.66
1176.4
1173.33
1164.23
1150.27
1131.67
1108.95
1082.83
1053.63
1022.08
989.308
956.3
922.638
889.447
857.952
828.654
802.233
777.291
755.345
738.275
724.446
716.551
715.713
717.67
723.794
737.492
757.086
780.878
804.055
821.472
831.723
834.195
832.936
826.59
802.86
817.439
5777.52
2199.9
922.941
539
428.138
392.533
373.646
357.857
339.963
325.825
318.077
313.903
314.095
317.365
325.223
338.932
358.659
383.129
410.76
440.08
469.97
500.131
528.73
554.008
574.842
590.17
598.196
599.988
597.49
592.285
584.735
575.645
565.562
554.865
543.615
532.141
520.416
509.316
496.994
485.129
472.798
457.134
442.095
426.365
415.941
408.805
401.817
402.164
406.096
418.282
448.534
481.619
548.744
605.45
690.621
738.012
796.382
795.113
772.347
739.807
693.243
640.201
653.736
760.292
995.776
1448.3
1707.49
1767.97
1786.57
1792.44
1718.62
1404.93
1106.32
910.271
751.949
677.68
635.699
614.62
606.482
604.185
606.206
612.723
619.492
628.83
638.609
649.454
661.32
673.809
687.099
701.159
715.724
730.789
746.338
762.149
778.187
794.297
810.322
826.124
841.568
856.499
870.853
884.58
897.253
908.613
918.259
926.008
931.995
935.382
935.973
935.49
933.568
930.59
926.821
922.566
918.316
914.538
911.537
910.215
909.951
910.084
911.121
913.635
917.644
923.085
929.954
938.237
947.906
958.95
971.359
985.124
1000.18
1016.39
1033.35
1050.43
1067.55
1084.41
1100.58
1115.67
1129.38
1141.52
1151.78
1159.53
1164.47
1166.22
1165.71
1162.12
1150.83
1130.71
1106.37
1076.11
1040.9
1002.31
961.239
919.132
877.512
838.131
801.658
767.747
737.659
712.06
690.658
672.503
656.478
644.105
638.279
637.426
638.177
640.525
647.572
657.368
669.072
681.943
693.98
703.463
708.851
709.912
707.795
699.562
670.617
662.27
5870.83
1691.88
671.528
460.464
406.123
383.801
363.073
342.576
329.252
321.871
322.241
329.773
343.729
362.813
386.813
415.676
448.186
482.861
517.308
549.867
578.998
602.582
619.995
631.418
637.066
636.726
632.607
625.598
616.825
607.239
597.042
586.42
575.659
565.02
554.672
543.922
531.844
519.387
506.656
494.239
482.045
468.863
455.106
441.272
426.425
413.231
402.851
394.921
391.239
392.599
399.728
414.092
447.535
477.416
531.813
572.952
615.898
646.678
654.888
650.968
626.978
628.697
716.966
1002.83
1411.45
1653.53
1690.1
1679.9
1596.1
1407.28
1161.46
943.891
776.138
681.817
619.872
594.346
583.758
580.854
583.344
590.42
598.284
607.666
616.969
627.327
637.741
648.761
660.209
672.02
684.286
697.056
710.333
724.12
738.434
753.242
768.483
784.012
799.657
815.244
830.584
845.473
859.598
872.503
884.05
893.89
901.983
908.323
910.678
911.017
910.172
907.716
904.066
899.674
894.917
890.074
885.503
881.681
879.184
878.571
878.765
880.126
883.001
887.45
893.383
900.762
909.536
919.626
930.987
943.565
957.319
972.226
988.2
1005.18
1022.79
1040.36
1057.43
1073.54
1087.98
1100.05
1109.7
1117.21
1122.73
1126.36
1127.24
1126.39
1121.82
1109.82
1083.44
1049.81
1009.53
959.794
904.154
846.571
788.748
733.862
683.634
638.887
601.262
569.762
545.066
527.069
512.639
504.6
504.099
505.52
509.493
518.369
529.837
542.783
557.974
575.827
596.039
617.29
637.742
653.914
662.192
663.946
663.048
658.519
640.416
620.803
5952.14
1271.33
570.341
439.346
402.02
379.253
356.28
341.509
339.907
351.427
370.743
392.857
416.424
442.373
471.564
503.096
534.522
562.945
587.336
607.488
623.385
634.765
642.516
645.566
643.752
636.878
626.851
615.985
606.445
597.767
589.292
580.716
572.081
563.453
554.919
546.507
536.807
524.54
510.11
494.812
480.014
465.917
452.344
439.109
425.266
412.459
402.033
393.336
386.697
384.06
385.28
390.379
405.208
422.389
452.748
484.649
513.494
538.91
553.089
557.156
571.929
654.058
922.846
1301.35
1567.06
1620.4
1568.97
1397.95
1179.11
1015.76
832.893
716.559
631.627
592.02
573.311
567.458
566.773
573.601
581.451
590.922
600.838
611.772
622.623
633.615
644.122
654.557
664.791
675.036
685.363
695.877
706.609
717.72
729.28
741.219
753.521
766.113
778.875
791.622
804.104
816.064
827.205
837.237
845.999
853.435
859.726
863.695
864.653
864.472
862.97
860.311
856.857
853.203
849.778
846.657
843.872
841.923
841.532
842.125
844.061
847.444
852.269
858.508
866.071
874.871
884.806
895.761
907.648
920.367
933.908
948.305
963.444
979.284
995.757
1012.58
1028.89
1044.01
1057.53
1068.24
1075.97
1081.26
1084.16
1084.47
1083.13
1077.68
1063.25
1033.79
990.073
933.501
868.529
792.355
713.664
639.72
571.575
511.936
463.186
422.968
390.697
368.439
351.404
338.319
334.284
335.003
338.245
346.392
359.379
377.39
398.638
422.206
448.664
476.652
504.567
533.984
565.489
595.572
620.205
634.026
636.716
635.584
629.403
612.362
6012.94
1100.04
542.981
438.514
405.314
378.364
366.092
372.09
392.554
415.564
436.24
456.587
478.496
501.294
524.281
546.822
567.863
586.76
603.537
617.037
627.357
631.415
629.746
620.38
603.354
584.85
573.242
565.841
563.421
563.48
564.012
563.363
561.212
557.55
552.246
545.469
536.591
523.763
507.348
489.583
472.532
457.163
443.58
431.061
418.88
407.596
397.956
389.537
383.076
379.558
379.537
381.435
388.015
399.326
418.398
440.245
463.673
491.384
513.794
542.359
612.29
837.26
1192.69
1456.58
1535.22
1496.92
1274.67
1053.81
907.44
780.648
669.834
608.593
575.177
561.772
557.806
559.308
566.331
575.355
585.962
598.656
611.097
623.051
633.804
643.919
653.268
662.154
670.574
678.698
686.598
694.406
702.235
710.121
718.1
726.219
734.517
742.964
751.492
759.978
768.266
776.183
783.529
790.123
795.826
800.586
804.521
806.887
807.429
807.231
806.184
804.513
802.484
800.654
799.529
798.798
798.578
799.11
800.719
803.574
807.71
813.084
819.661
827.347
836.031
845.569
855.904
866.965
878.626
890.676
903.351
916.803
930.744
945.256
961.129
978.474
996.167
1012.34
1026.92
1038.31
1045.72
1049.37
1049.82
1048.39
1042.41
1027.87
995.052
943.908
874.671
787.581
694.604
602.153
515.481
441.289
378.445
328.656
291.129
263.871
245.399
232.704
223.577
219.604
219.709
221.459
225.658
234.13
246.098
261.629
281.379
305.602
334.548
366.958
401.487
437.982
474.626
512.189
549.371
580.699
601.684
608.757
608.297
603.079
6069.26
1056.61
538.195
444.857
411.662
399.006
404.36
422.211
440.842
456.556
471.486
486.425
502.007
518.921
536.719
554.164
570.316
584.501
592.316
593.994
593.176
587.539
574.172
552.135
523.869
503.533
498.871
501.417
509.224
522.213
534.168
540.385
543.315
544.118
541.268
534.72
524.464
509.776
491.815
473.322
455.845
440.338
427.167
415.724
405.61
396.699
388.952
382.299
377.588
375.617
376.139
380.624
388.684
400.528
418.805
440.565
467.612
499.914
539.76
624.635
838.904
1119.18
1344.76
1431.23
1429.26
1223
979.774
846.037
740.356
652.178
594.246
567.127
555.597
552.554
554.682
560.796
570.846
584.408
598.637
612.304
624.465
635.628
645.539
654.449
662.359
669.508
675.982
681.942
687.477
692.708
697.761
702.565
707.241
711.904
716.588
721.289
725.984
730.608
735.083
739.31
743.179
746.592
749.476
751.811
753.677
754.849
755.177
755.156
754.844
754.426
754.024
754.032
754.738
756.085
758.092
760.94
764.762
769.654
775.637
782.576
790.397
798.982
808.225
817.956
828.217
838.946
850.09
861.436
873.952
887.433
902.468
919.351
938.696
958.932
979.705
998.104
1011.49
1020.51
1025.76
1026.7
1025.17
1018.95
1002.87
967.583
908.147
821.388
719.537
608.559
501.45
402.849
322.513
262.454
222.852
198.067
182.478
171.983
166.001
161.945
160.315
160.484
161.404
164.19
167.649
173.65
181.993
192.543
206.44
224.262
247.14
274.33
306.057
342.408
380.843
419.877
460.349
499.231
533.004
557.428
570.683
576.707
6103.91
1029.22
542.337
456.955
430.997
426.17
432.757
446.945
458.938
468.822
478.901
489.697
500.479
511.322
523.038
535.723
548.939
561.868
570.061
572.374
572.059
565.929
550.084
524.744
494.492
466.543
453.717
450.806
460.462
477.704
492.154
501.123
505.602
507.251
506.608
498.693
488.016
473.757
457.679
442.43
428.488
416.202
405.591
396.458
388.435
381.331
375.625
373.005
372.262
374.311
379.727
388.29
402.047
421.683
449.687
486.011
538.065
620.985
752.017
925.737
1094.1
1244.43
1325.17
1340.38
1188.91
952.779
804.163
721.17
641.425
589.653
563.768
553.392
550.712
552.293
557.453
568.423
583.434
598.436
612.463
625.357
636.999
647.318
656.214
663.794
670.13
675.444
679.916
683.726
687.139
690.312
692.941
695.235
697.358
699.388
701.355
703.284
705.18
707.023
708.784
710.416
711.874
713.124
714.145
714.949
715.584
716.094
716.46
716.838
717.362
718.1
719.09
720.547
722.741
725.699
729.466
734.031
739.436
745.651
752.686
760.348
768.601
777.349
786.506
796.123
806.17
817.292
829.065
842.563
857.116
873.231
890.637
910.322
931.521
953.116
974.949
994.004
1005.85
1012.09
1012.98
1011.15
1003.18
983.688
945.138
870.773
773.447
650.591
521.471
397.477
293.535
225.56
185.219
161.378
146.778
138.052
133.231
130.316
129.388
129.573
130.363
131.572
133.581
136.595
139.403
143.905
149.14
155.921
164.889
176.175
191.321
210.763
234.347
262.939
297.285
334.01
372.101
411.069
446.444
481.029
499.819
517.612
6119.98
1015.3
549.862
468.6
443.517
438.494
443.182
451.98
455.887
457.718
460.365
465.185
473.813
487.29
503.976
521.355
538.08
553.352
563.577
566.862
566.971
561.15
545.124
519.332
488.334
458.068
434.801
421.931
415.938
415.002
422.069
434.915
440.951
443.697
444.01
438.474
430.826
422.042
411.92
403.377
394.893
386.39
378.924
372.476
368.341
366.841
366.689
369.003
375.151
384.537
400.806
426.027
463.83
518.363
599.541
705.466
809.51
904.973
991.496
1075.18
1157.45
1219.89
1238.12
1126.41
942.575
787.603
706.098
644.049
590.412
564.918
554.309
551.416
551.277
555.357
565.972
580.149
594.867
608.866
622.005
634.034
644.868
654.315
662.213
668.623
673.62
677.417
680.285
682.505
684.068
685.064
685.705
686.23
686.659
686.996
687.266
687.505
687.736
687.97
688.208
688.445
688.679
688.909
689.146
689.433
689.826
690.388
691.172
692.257
693.679
695.484
697.746
700.677
704.321
708.711
713.779
719.473
725.683
732.531
739.789
747.755
755.992
765.195
774.47
785.007
795.737
808.274
821.243
836.498
852.154
869.897
888.804
910.593
933.813
958.055
981.196
997.444
1005.1
1005.63
1002.59
992.652
968.477
917.428
837.08
719.476
577.501
428.418
296.55
214.139
166.41
139.754
124.136
115.986
111.479
109.557
109.621
110.151
111.5
113.021
115.123
116.977
119.233
121.952
124.25
127.906
131.448
136.217
142.198
149.722
159.262
172.104
188.489
208.272
233.147
263.94
296.956
332.623
363.581
399.46
420.575
441.912
6192.47
1013.35
557.929
476.471
446.897
437.213
435.293
434.122
432.44
432.119
435.187
444.302
458.19
475.113
493.653
512.908
532.048
550.404
567.316
581.332
587.48
588.954
582.528
561.362
529.87
489.576
449.349
420.076
403.104
392.167
384.034
379.649
377.924
377.522
377.574
376.499
374.67
372.344
369.148
366.02
362.359
359.245
358.48
358.489
359.752
363.822
371.519
383.802
404.696
438.919
490.457
566.122
664.828
765.202
840.821
892.715
940.969
982.667
1027.72
1079.28
1112.17
1108.46
1035.27
920.213
791.181
700.124
648.67
600.327
571.216
559.102
554.352
552.82
554.582
562.591
573.972
587.002
600.175
612.786
624.755
635.839
645.861
654.602
661.819
667.386
671.348
673.842
675.094
675.385
674.994
674.409
673.95
673.542
673.111
672.637
672.132
671.624
671.149
670.747
670.456
670.3
670.305
670.488
670.863
671.498
672.451
673.741
675.389
677.513
680.22
683.521
687.39
691.737
696.54
701.893
707.685
714.002
720.585
727.839
735.235
743.541
751.884
761.51
771.022
782.264
793.565
807.269
821.262
839.018
857.232
880.294
903.977
932.833
959.561
986.195
1002.73
1006.12
1004.74
999.849
983.907
951.965
890.443
795.033
657.123
495.014
331.263
222.724
161.784
128.473
109.994
100.551
95.5479
94.0047
94.2396
95.1509
96.6477
98.6319
100.659
102.807
104.967
107.164
109.291
111.977
114.075
117.366
120.156
124.068
128.261
133.947
140.422
149.121
160.313
174.441
190.815
212.941
238.558
269.671
294.987
326.923
347.148
369.41
6293.04
1018.77
563.642
478.959
440.86
421.107
413.368
410.087
409.477
411.559
417.939
429.02
444.556
462.638
482.891
504.474
526.914
549.706
572.085
593.251
612.854
629.982
638.544
640.708
630.189
596.262
549.413
490.671
442.194
408.731
383.415
370.909
361.677
356.13
353.712
351.778
350.962
350.196
350.095
350.835
352.207
354.498
358.747
366.024
377.609
395.499
422.938
463.517
519.504
591.314
671.652
745.013
799.704
837.858
868.53
898.548
930.633
960.03
985.703
997.13
980.488
938.999
874.947
793.733
714.075
657.946
619.42
587.665
569.622
560.659
557.212
556.922
560.599
568.161
578.039
588.939
600.518
612.161
623.128
633.06
641.693
648.758
654.077
657.601
659.398
659.975
659.806
659.113
658.395
657.733
657.1
656.488
655.892
655.289
654.698
654.162
653.734
653.483
653.465
653.734
654.35
655.313
656.569
658.259
660.427
663.123
666.482
670.398
674.79
679.533
684.488
689.648
695.06
700.884
706.984
713.61
720.37
727.936
735.519
744.406
753.192
764.091
774.771
788.68
802.488
820.522
838.865
862.942
886.858
916.969
945.304
977.868
1001.77
1013.3
1012.43
1008.68
996.281
975.302
928.259
856.941
736.611
585.271
396.237
251.57
170.63
126.359
102.682
89.9392
83.9669
81.5519
81.6912
82.4016
83.9207
85.9308
88.0542
90.3455
92.5508
94.8948
97.0825
99.522
101.643
104.393
106.512
109.647
112.19
115.78
119.084
123.719
128.533
134.91
142.662
153.145
164.541
179.916
197.28
221.946
242.283
268.562
286.064
306.785
6371.43
1028.1
564.453
479.064
436.147
400.508
390.324
388.043
388.301
392.854
401.401
413.061
428.349
446.452
466.949
489.551
513.818
539.131
564.78
590.341
614.758
637.317
657.706
675.83
687.246
691.101
687.586
660.774
609.883
546.939
483.636
434.327
404.745
380.136
369.532
364.651
363.145
363.202
366.131
372.715
382.915
396.549
414.297
437.354
465.956
500.783
541.405
586.102
633.207
679.586
719.176
748.835
773.138
792.264
806.209
823.962
842.134
862.361
872.021
876.564
866.925
834.248
786.987
733.65
685.735
649.723
618.499
590.266
574.01
566.531
564.285
564.727
567.291
572.375
579.47
588.339
598.022
607.274
615.47
622.122
627.279
631.033
633.581
635.14
635.975
636.31
636.362
636.213
635.908
635.566
635.224
634.926
634.717
634.579
634.532
634.646
635.038
635.75
636.848
638.383
640.404
642.916
646.123
649.953
654.263
658.982
663.96
669.166
674.612
680.237
686.035
692.036
698.227
704.881
711.723
719.33
726.986
735.986
744.996
756.121
767.158
781.526
795.872
814.876
833.631
857.802
881.96
912.399
941.674
976.362
1005.62
1024.13
1026.63
1022.98
1013.86
996.908
957.335
900.73
800.094
668.485
482.475
297.872
191.621
133.273
101.194
84.3762
76.1862
72.2271
71.687
72.0741
73.0946
74.8929
77.0158
79.2956
81.6519
84.0844
86.4543
88.9304
91.2473
93.8138
96.055
98.8362
101.102
104.12
106.631
109.991
112.958
116.93
120.86
125.825
131.5
139.273
147.73
159.046
170.734
188.651
204.009
224.786
239.252
256.993
6428.74
1045.09
563.062
478.513
439.211
396.632
380.762
375.68
374.826
376.831
383.523
393.914
407.638
424.664
444.525
466.816
491.187
517.259
544.617
572.584
600.678
628.217
654.471
678.64
700.121
719.09
735.186
744.381
747.343
741.822
716.064
670.206
609.155
555.489
506.282
476.312
461.603
455.291
453.918
459.872
476.336
493.971
512.249
532.435
552.004
571.816
594.026
617.114
639.848
660.307
677.806
692.152
702.885
719.843
743.317
766.664
792.982
813.061
823.071
826.752
818.924
790.952
755.346
717.853
685.929
655.401
626.21
602.218
587.441
580.173
576.222
574.353
574.306
575.798
579.254
585.008
590.206
594.568
598.219
601.305
603.694
605.429
606.665
607.547
608.15
608.531
608.815
609.056
609.295
609.588
609.982
610.527
611.284
612.261
613.483
615.028
617
619.504
622.729
626.688
631.259
636.38
641.885
647.546
653.449
659.592
666.046
672.718
679.6
686.63
693.803
701.267
708.964
717.269
725.927
735.678
745.789
757.738
770.339
785.499
801.088
820.832
840.947
866.835
891.248
922.427
951.602
987.526
1018.8
1041.07
1045.7
1041.6
1033.95
1018.18
987.543
934.022
851.175
726.636
568.192
362.047
224.399
147.703
105.799
83.2338
71.6631
66.3175
63.9905
64.0639
64.5862
65.8044
67.621
69.6803
71.944
74.2634
76.7527
79.2161
81.6684
84.2464
86.7743
89.5029
91.989
94.8124
97.2761
100.189
102.77
105.913
108.799
112.338
115.871
120.001
124.481
130.263
136.716
145.254
153.833
166.797
177.789
193.618
205.538
219.921
6453.67
1072.94
557.847
474.183
441.588
406.737
383.142
375.013
372.894
373.224
377.115
384.379
394.15
406.48
421.831
440.419
462.165
486.675
513.428
541.815
571.258
601.299
631.219
660.354
688.228
714.329
737.98
758.724
777.095
792.801
805.093
810.882
812.093
802.354
778.872
743.761
701.062
667.917
637.21
617.978
605.889
600.305
598.193
598.434
599.91
601.591
607.988
612.794
619.916
628.654
637.856
648.294
662.712
682.602
710.654
741.798
769.52
785.719
793.771
796.153
786.957
766.22
741.392
713.556
688.644
665.981
643.381
622.702
606.596
595.773
588.205
582.704
578.804
576.715
576.724
576.664
576.644
576.815
577.048
577.332
577.58
577.866
578.174
578.527
578.973
579.532
580.239
581.115
582.193
583.529
585.169
587.153
589.528
592.288
595.544
599.475
604.133
609.494
615.352
621.636
628.371
635.483
642.956
650.764
658.88
667.225
675.804
684.536
693.503
702.704
712.225
722.256
732.86
744.27
756.674
770.477
785.415
802.314
821.277
842.222
864.893
891.138
918.988
951.407
980.872
1017.62
1047.28
1067.63
1071.76
1066.47
1057.64
1039.82
1015.3
960.696
890.893
767.15
625.184
426.812
260.147
165.526
113.12
84.6916
70.0341
62.4906
59.1406
58.0613
58.2535
58.8261
60.0144
61.723
63.6034
65.6969
67.8546
70.1979
72.6502
75.4756
78.4602
81.5525
84.576
87.5835
90.3604
93.128
95.6168
98.2775
100.72
103.472
106.128
109.168
112.332
115.963
119.906
124.539
129.6
136.035
142.724
152.337
160.279
172.131
181.921
193.218
6445.43
1117.4
555.519
461.788
436.43
413.12
395.392
385.343
381.26
380.511
382.296
387.579
395.238
404.875
416.141
429.245
444.721
463.075
484.662
509.326
536.363
564.972
594.637
624.778
654.836
684.408
712.932
740.029
765.563
789.153
810.291
829.061
845.88
860.495
873.388
881.65
884.976
885.232
877.152
864.136
845.019
823.317
801.966
779.749
758.709
737.931
718.477
700.225
686.314
676.672
671.961
670.439
671.367
675.186
681.958
695.818
713.102
727.233
734.06
736.44
731.458
720.452
707.493
693.238
678.223
662.7
645.643
629.482
615.352
603.535
593.932
585.937
579.339
573.992
568.718
564.398
561.181
558.745
556.918
555.57
554.662
554.183
554.099
554.25
554.895
556.011
557.484
559.35
561.635
564.379
567.63
571.407
575.717
580.691
586.404
592.835
599.923
607.605
615.889
624.789
634.205
644.018
654.194
664.663
675.461
686.531
697.97
709.755
722.093
735.065
748.833
763.488
779.434
796.35
815.076
835.538
857.601
881.249
908.577
935.691
966.891
997.145
1034.13
1065.43
1092.83
1104.72
1103.58
1096.55
1086.08
1065.08
1038.17
982.183
913.047
798.034
656.559
468.798
285.691
180.971
121.563
88.1256
70.0566
60.9297
56.1827
54.1212
53.8042
54.0347
54.5332
55.6761
57.0986
58.6514
60.3589
62.2141
64.5131
67.3942
70.6182
74.0477
77.5286
80.9505
84.2418
87.4357
90.4161
93.2774
95.9067
98.5112
100.945
103.445
105.854
108.412
111.014
113.73
116.801
120.562
124.788
129.913
135.388
142.664
148.626
157.652
165.607
174.358
6421.76
1172.02
561.426
445.298
420.702
410.748
398.105
392.612
391.982
394.758
399.512
405.402
411.917
418.658
426.082
434.811
445.599
458.753
474.082
491.966
512.47
535.457
560.558
587.42
615.683
644.821
674.321
703.666
732.542
760.593
787.407
812.899
836.881
859.06
879.301
897.954
915.477
931.1
944.612
956.689
967.532
977.234
984.988
988.862
990.004
982.563
964.534
937.603
902.668
862.335
820.921
782.756
750.12
725.289
709.008
703.883
703.021
702.839
701.897
699.428
693.756
685.977
677.669
668.91
659.563
649.737
639.587
628.476
617.099
606.201
596.07
586.891
578.5
570.765
563.706
557.664
552.71
548.759
545.711
543.447
541.954
541.304
541.283
541.581
542.519
544.334