/*--------------------------------*- C++ -*----------------------------------*\
| =========                 |                                                 |
| \\      /  F ield         | OpenFOAM: The Open Source CFD Toolbox           |
|  \\    /   O peration     | Version:  2112                                  |
|   \\  /    A nd           | Website:  www.openfoam.com                      |
|    \\/     M anipulation  |                                                 |
\*---------------------------------------------------------------------------*/
FoamFile
{
    version     2.0;
    format      ascii;
    arch        "LSB;label=32;scalar=64";
    class       volScalarField;
    location    "0.12";
    object      turbulenceProperties:L;
}
// * * * * * * * * * * * * * * * * * * * * * * * * * * * * * * * * * * * * * //

dimensions      [0 1 0 0 0 0 0];

internalField   nonuniform List<scalar> 
12225
(
9.29543e-05
0.000104355
0.000110333
0.000112987
0.000114206
0.000114387
0.000114241
0.000113862
0.000113244
0.000112525
0.00011178
0.000110995
0.000110245
0.000109482
0.000108766
0.000108103
0.000107379
0.00010695
0.00167484
0.000631283
0.000400569
0.000309228
0.000263237
0.000237385
0.000221848
0.000211877
0.000205459
0.000201346
0.000198774
0.000197359
0.000196736
0.000196707
0.000197218
0.000198164
0.000198661
0.000199905
0.0178018
0.00636482
0.00395115
0.00252002
0.00180007
0.00136573
0.00113437
0.000959428
0.00085719
0.000767743
0.000713699
0.000661147
0.000629991
0.000594469
0.000575308
0.000553066
0.000539162
0.00051565
0.0587344
0.0260596
0.0177336
0.0119906
0.00914621
0.00688852
0.00578014
0.00473356
0.00420451
0.00362954
0.00333633
0.00298242
0.0028091
0.00256515
0.0024584
0.0022912
0.00218902
0.0020672
0.0765308
0.0560806
0.0404722
0.0303272
0.0249968
0.0199394
0.017329
0.0145762
0.0131429
0.0114889
0.010621
0.00954245
0.00898876
0.00823891
0.00787213
0.00729468
0.00703563
0.00662611
0.0793936
0.0738671
0.0632427
0.050853
0.0440907
0.0376394
0.033756
0.0296125
0.0271619
0.0244205
0.0227906
0.020872
0.0197579
0.0183534
0.0175888
0.0164363
0.0159209
0.0150664
0.0797631
0.0786834
0.0752985
0.067867
0.0615711
0.0547261
0.0502921
0.0459133
0.0429167
0.0396765
0.0374742
0.0350318
0.0334171
0.0315173
0.0303565
0.028736
0.0279404
0.0266297
0.0798162
0.0796135
0.0788511
0.0766047
0.0734758
0.0683977
0.0644124
0.0602162
0.0570968
0.0540231
0.0517293
0.0492452
0.0474163
0.0453647
0.0439682
0.0421537
0.041196
0.0395511
0.0798265
0.0797874
0.0796318
0.0791568
0.0782028
0.0763278
0.0741079
0.0710777
0.0684081
0.0656865
0.0634854
0.0613036
0.0596216
0.0577586
0.0563646
0.0546675
0.0536257
0.0520103
0.0798298
0.0798244
0.0797965
0.0796938
0.0794817
0.0790057
0.0783135
0.0770799
0.0756806
0.0738884
0.072161
0.0703928
0.0688995
0.0673817
0.0662169
0.0648405
0.0638881
0.0625219
0.0798328
0.079835
0.0798325
0.0798078
0.079771
0.0796526
0.0794892
0.0791593
0.0787201
0.0780349
0.077227
0.0762066
0.0751624
0.0740539
0.0731041
0.0720785
0.0713382
0.070328
0.0798326
0.0798401
0.0798414
0.0798362
0.0798302
0.0797915
0.0797501
0.0796535
0.0795314
0.0793135
0.0790403
0.0786344
0.0781613
0.0775509
0.0769321
0.0762229
0.0756674
0.0749472
0.0798326
0.0798405
0.0798473
0.0798476
0.0798469
0.0798347
0.0798232
0.0797907
0.0797586
0.0796943
0.0796218
0.0794975
0.0793557
0.0791331
0.0788949
0.0785462
0.0782359
0.0777954
0.0798327
0.0798406
0.0798486
0.0798541
0.0798551
0.0798535
0.0798496
0.079837
0.0798267
0.0798058
0.0797879
0.0797532
0.0797219
0.0796628
0.0796082
0.0795077
0.0794182
0.0792615
0.0798328
0.0798412
0.0798484
0.0798565
0.0798606
0.079862
0.0798621
0.0798582
0.0798537
0.0798454
0.0798387
0.0798274
0.0798189
0.0798036
0.0797917
0.0797696
0.0797514
0.0797181
0.0798329
0.0798413
0.0798493
0.0798558
0.0798636
0.0798668
0.0798688
0.0798696
0.0798683
0.0798653
0.0798623
0.079858
0.0798543
0.0798495
0.0798456
0.0798401
0.0798359
0.0798288
0.079833
0.0798416
0.0798496
0.0798567
0.0798632
0.0798698
0.0798726
0.0798751
0.0798766
0.0798765
0.0798758
0.0798746
0.0798733
0.0798718
0.0798706
0.079869
0.0798681
0.0798664
0.079833
0.0798417
0.0798497
0.0798571
0.0798634
0.0798699
0.0798751
0.0798777
0.0798802
0.079882
0.0798828
0.0798832
0.0798833
0.0798834
0.0798835
0.0798836
0.0798839
0.0798841
0.079833
0.0798417
0.0798496
0.0798571
0.0798633
0.0798699
0.0798751
0.0798781
0.0798807
0.0798828
0.0798838
0.0798845
0.0798849
0.0798852
0.0798854
0.0798856
0.0798856
0.0798858
0.079833
0.0798415
0.0798494
0.0798566
0.0798629
0.0798694
0.0798725
0.0798749
0.0798763
0.079876
0.0798744
0.0798722
0.0798685
0.0798645
0.0798584
0.0798525
0.0798432
0.0798351
0.079833
0.0798409
0.0798493
0.0798549
0.0798616
0.0798624
0.079862
0.0798578
0.0798482
0.0798344
0.0798139
0.0797888
0.0797548
0.0797155
0.0796633
0.0796078
0.0795339
0.0794653
0.0798334
0.0798402
0.079847
0.0798452
0.0798377
0.0798169
0.0797786
0.0797161
0.079626
0.0795109
0.0793583
0.0791762
0.0789554
0.0787036
0.078417
0.0781303
0.0778046
0.0775157
0.0798353
0.0798316
0.0798151
0.0797599
0.0796393
0.0794242
0.0790828
0.0786564
0.0781088
0.0774676
0.0767169
0.0759417
0.0751118
0.0742863
0.0734434
0.072668
0.0718518
0.0711512
0.0798263
0.0797686
0.0795551
0.0790228
0.0780356
0.0767453
0.0750842
0.0733957
0.0715269
0.0697038
0.0678335
0.0661385
0.0644527
0.062967
0.0614614
0.0601494
0.0587773
0.0576642
0.0797833
0.0791716
0.0773543
0.0742073
0.0701022
0.0663723
0.0623892
0.0590694
0.0557163
0.052989
0.0502816
0.0480497
0.045815
0.044003
0.0421608
0.040706
0.0391624
0.0380097
0.079243
0.0742504
0.0652894
0.0572043
0.0498594
0.0447487
0.0397094
0.0361078
0.032524
0.0299889
0.0274386
0.0256386
0.0237774
0.0224718
0.0210713
0.0201062
0.0190186
0.018295
0.0726495
0.0502467
0.0365418
0.0282343
0.0226358
0.0189779
0.01565
0.0135505
0.0115989
0.0103896
0.00918819
0.00844214
0.00764979
0.00716006
0.00660683
0.00626884
0.00586411
0.0056213
0.0342331
0.0148955
0.00935756
0.00653519
0.00501347
0.00392892
0.00310315
0.0025892
0.00218872
0.0019378
0.00171872
0.00157827
0.00144373
0.00135738
0.00126771
0.0012107
0.00114725
0.00110738
0.00370088
0.00142312
0.000882936
0.000641844
0.000511293
0.000436204
0.000388711
0.000357755
0.000335605
0.00032057
0.000308751
0.000300726
0.000293982
0.000289673
0.000285676
0.000283531
0.000281131
0.000280357
0.000130365
0.000142799
0.000149987
0.000154211
0.000156554
0.000157927
0.000158605
0.000158981
0.000159
0.000158935
0.000158774
0.000158509
0.000158196
0.000157855
0.000157494
0.000157127
0.000156754
0.000156387
7.80694e-06
7.46165e-05
0.000102794
0.000133852
0.000176585
0.0002207
0.000255814
0.000283796
0.000303299
0.000322613
0.000336004
0.000345207
0.000351893
0.0003573
0.000361621
0.000365105
0.000367939
0.000370325
0.00037234
0.000374099
0.000375704
0.000377154
0.000378531
0.000379812
0.000381033
0.000382188
0.000383241
0.000384361
0.000385399
0.00038639
0.000387287
0.000388094
0.000388817
0.000389387
0.000389884
0.000390176
0.000390437
0.000390485
0.000390561
0.000390283
0.000389891
0.000389301
0.000388365
0.000386979
0.000385101
0.000382411
0.00037886
0.000373455
0.000366173
0.000353175
0.000333786
0.000281245
0.000170028
0.000160767
0.000189478
0.000207729
0.000219172
0.00022407
0.000225194
0.000224171
0.000222831
0.000223952
0.000231222
0.0002492
0.000265644
0.00026538
0.000262354
0.000253569
0.000246107
0.000243975
0.00024661
0.000264974
0.000272878
0.000291837
0.000384716
0.000404924
0.000410106
0.000413436
0.000415057
0.000416255
0.000416884
0.000417364
0.000417594
0.000417766
0.000417834
0.000417892
0.000417924
0.000417952
0.000418
0.000418024
0.000418068
0.00041812
0.000418213
0.000418305
0.000418374
0.000418416
0.000418433
0.000418414
0.000418334
0.000418183
0.000417971
0.000417703
0.000417371
0.000416983
0.000416549
0.000416076
0.00041558
0.000415027
0.000414497
0.000413974
0.000413291
0.00041263
0.000411981
0.000411269
0.000410553
0.000409841
0.000409089
0.000408329
0.000407576
0.000406798
0.000406015
0.000405239
0.000404445
0.000403641
0.000402839
0.000402025
0.000401209
0.000400393
0.000399564
0.000398732
0.000397891
0.000397031
0.000396175
0.000395326
0.00039452
0.000393691
0.000392766
0.000391802
0.000390784
0.000389666
0.000388464
0.000387059
0.000385619
0.000384978
0.000385142
0.000385278
0.000385367
0.000385419
0.000385406
0.000385336
0.000385256
0.00038517
0.00038508
0.000384979
0.000384827
0.00038466
0.000384509
0.000384304
0.000384106
0.000383946
0.000383667
0.00038339
0.000383303
0.000382992
0.000382385
0.000381833
0.000381507
0.000380563
0.000379022
0.000376837
0.000374125
0.00037092
0.000367529
0.000364239
0.00036155
0.000358055
0.000353399
0.000345142
0.000338423
0.000327772
1.23312e-05
5.31157e-05
0.000149686
0.000318342
0.00059611
0.000989648
0.00139357
0.00180817
0.00213859
0.0023519
0.002482
0.00255968
0.00261333
0.00265311
0.00268468
0.00271083
0.00272949
0.00274635
0.00275677
0.00276133
0.00276105
0.00275647
0.00274869
0.00273822
0.00272492
0.00270989
0.00269308
0.00267601
0.00265075
0.00262868
0.00260177
0.00257466
0.0025389
0.00250529
0.00245909
0.0024174
0.00234999
0.00224031
0.00207787
0.00189727
0.00169772
0.00151155
0.00132362
0.0011637
0.00100877
0.000884128
0.000764075
0.00066963
0.000583833
0.000512442
0.000452507
0.000398768
0.000378611
0.000320804
0.000262127
0.000286783
0.000341996
0.000415054
0.000479931
0.000507955
0.000526048
0.000573476
0.000635485
0.000769206
0.000998585
0.00107366
0.00110281
0.00108723
0.00103653
0.000891004
0.000672825
0.000524042
0.000463565
0.000463755
0.000490771
0.000540084
0.000656338
0.000744226
0.000880155
0.000974599
0.00110456
0.00118057
0.00127503
0.00132472
0.0013728
0.00139083
0.00139703
0.00139559
0.00139157
0.00137066
0.00135193
0.00133375
0.00132082
0.00132234
0.00132889
0.00134419
0.00137464
0.00141537
0.00146619
0.00153329
0.00161788
0.00171405
0.00181996
0.00193448
0.00205183
0.00214885
0.00222416
0.00228218
0.0023242
0.00235804
0.00239669
0.00243307
0.00246045
0.00248394
0.00250794
0.00252852
0.00254535
0.00256075
0.00257527
0.00258871
0.00260142
0.0026141
0.00262673
0.00263946
0.00265277
0.00266684
0.0026818
0.00269768
0.00271428
0.0027322
0.00275089
0.0027691
0.00278671
0.00280257
0.00281438
0.00282151
0.00282633
0.00282695
0.00282348
0.00281548
0.00280228
0.00278382
0.00275759
0.00271993
0.00267704
0.00263312
0.00259029
0.00254959
0.0025104
0.00247276
0.0024374
0.00240605
0.00237543
0.00234808
0.00231862
0.0022876
0.0022591
0.00222443
0.00218392
0.00214783
0.00209864
0.00204818
0.00199912
0.0019136
0.00176179
0.00156727
0.00136477
0.00119011
0.0010511
0.000940719
0.000864149
0.000824922
0.000800816
0.000786951
0.000776883
0.000756987
0.000715791
0.000673218
0.000660767
0.000621345
9.61272e-06
5.47957e-05
0.00020023
0.000503607
0.00103241
0.00172705
0.00237009
0.00274956
0.00296536
0.00309387
0.00319858
0.0032871
0.00337964
0.00345196
0.00351674
0.00356775
0.00359646
0.00361652
0.00362117
0.00361089
0.00359363
0.00357123
0.00354482
0.00351672
0.00348663
0.00346183
0.00343632
0.00341947
0.00340084
0.0033967
0.0033838
0.00337884
0.00337294
0.00336356
0.00335207
0.00334061
0.00332823
0.00330419
0.00327562
0.00321721
0.0031438
0.00303564
0.00289804
0.00268457
0.00246545
0.00214993
0.00188118
0.00153093
0.00128473
0.00100904
0.000844824
0.000664317
0.000518967
0.000454458
0.000398584
0.000352087
0.000349971
0.00040014
0.000446116
0.000442992
0.000467923
0.000524372
0.000597819
0.000751682
0.00108109
0.00117428
0.00121636
0.0011089
0.000955058
0.000819145
0.000623266
0.000545336
0.000531557
0.000619223
0.000803916
0.00118827
0.0014914
0.00192383
0.00228692
0.00263868
0.00289156
0.00309304
0.00321255
0.00328347
0.00331432
0.00331864
0.00328282
0.00324319
0.00319598
0.00313818
0.00309063
0.00304744
0.0030131
0.00299826
0.0029989
0.00301631
0.00305144
0.00309984
0.00316139
0.00323485
0.00331651
0.00340184
0.003484
0.00355995
0.00362902
0.00368787
0.00373614
0.00378234
0.00383146
0.00387932
0.00392395
0.00396597
0.00400366
0.00403617
0.0040644
0.00408711
0.0041046
0.0041176
0.00412596
0.00413077
0.00413303
0.00413158
0.00412583
0.00411631
0.00410373
0.00408866
0.00407135
0.00405189
0.00403031
0.00400671
0.00398104
0.00395313
0.00392281
0.00388907
0.00385142
0.00380871
0.00376429
0.00371708
0.00366624
0.00360869
0.00354501
0.00347909
0.00340979
0.00333924
0.00326923
0.0032011
0.00313488
0.00307842
0.003036
0.00300237
0.00297772
0.00296213
0.00295466
0.0029596
0.00297077
0.00298559
0.00301167
0.00303799
0.00305884
0.00309127
0.00311359
0.00312637
0.00315602
0.00315456
0.00311618
0.00305655
0.00295066
0.00277511
0.00256634
0.00234184
0.00212656
0.00195431
0.00182849
0.00174532
0.00169486
0.0016641
0.00162155
0.00155568
0.00151727
0.00140183
1.02411e-05
8.97831e-05
0.000372544
0.00106105
0.00202523
0.00264156
0.00294261
0.00310605
0.00319511
0.00326256
0.00331519
0.00336418
0.00343797
0.00351071
0.00358384
0.00364679
0.00368842
0.0036953
0.00368368
0.00365005
0.00359941
0.00353805
0.00347136
0.0034033
0.00334695
0.00330095
0.00325542
0.00321788
0.00319059
0.00315826
0.0031499
0.00313825
0.00313342
0.00314018
0.00315524
0.00317416
0.00319642
0.00321904
0.00324946
0.00326944
0.00330212
0.00329846
0.00327612
0.00323633
0.00315525
0.00302793
0.00285664
0.00259333
0.00229294
0.00189238
0.00152165
0.00121832
0.00092591
0.000727821
0.000571738
0.00047614
0.000420645
0.000415878
0.000433326
0.000437339
0.00047239
0.000546108
0.000663885
0.000928704
0.00128723
0.0012208
0.000972343
0.000809271
0.000729839
0.00067133
0.00063154
0.000634633
0.00081578
0.00122776
0.00187811
0.00256576
0.00316115
0.00377212
0.00415613
0.00446189
0.00464586
0.00476596
0.00483456
0.00484768
0.00482472
0.00478055
0.00470699
0.00462714
0.00453989
0.00444992
0.00436387
0.00428257
0.00420743
0.00414399
0.00409329
0.00405763
0.00403756
0.00403069
0.00403512
0.00404919
0.00407059
0.00409787
0.00412962
0.00416487
0.00420402
0.00424692
0.00429412
0.00434655
0.00440351
0.00446115
0.00452105
0.00457855
0.00463282
0.00468098
0.00472256
0.00475597
0.00478033
0.00479255
0.00479793
0.00480026
0.00479971
0.00479045
0.00477066
0.0047436
0.00470995
0.00467038
0.00462543
0.0045754
0.00452072
0.00446186
0.00439937
0.00433409
0.00426737
0.00420078
0.00413339
0.00406384
0.00399126
0.00391438
0.00383556
0.00375555
0.00367209
0.0035838
0.00349156
0.00339957
0.0033164
0.00323685
0.00316279
0.00310427
0.00305873
0.00302666
0.00300825
0.00300331
0.0030109
0.00303055
0.00305969
0.00309755
0.00314714
0.00320274
0.00325937
0.00331643
0.00337015
0.00342773
0.00348366
0.00352618
0.00356004
0.00356918
0.00354879
0.00351474
0.00346206
0.00336928
0.0032465
0.00310313
0.00296819
0.00285108
0.002767
0.00270281
0.00266275
0.00259779
0.00262288
0.00247193
2.70369e-05
0.000177133
0.000879171
0.00198149
0.00267694
0.00295326
0.0030719
0.00310563
0.0030855
0.0030937
0.00318961
0.00329944
0.00341821
0.00353173
0.00362134
0.00365726
0.00363854
0.00358028
0.0034987
0.00340666
0.00331202
0.00321548
0.00312711
0.00305678
0.00299186
0.00293245
0.00288809
0.0028639
0.00284742
0.0028376
0.0028353
0.00283978
0.00285128
0.00287019
0.00289811
0.00293314
0.0029768
0.00301834
0.00306861
0.00311376
0.0031591
0.00322115
0.00327431
0.00332639
0.00332948
0.00328991
0.0032355
0.00310296
0.00292436
0.00267214
0.00231105
0.001973
0.00156528
0.00126224
0.000970269
0.000792358
0.000633471
0.00056745
0.000532657
0.000539052
0.000588096
0.000697087
0.000885606
0.00124376
0.00136378
0.000977482
0.000809694
0.000749351
0.00071954
0.000710685
0.000778797
0.00111469
0.00178589
0.00257437
0.00345496
0.00415385
0.00470745
0.00510001
0.00536296
0.00554767
0.0056634
0.00571417
0.00574087
0.00572717
0.00569476
0.00564149
0.00556986
0.00548539
0.00538886
0.00528434
0.00517783
0.00507188
0.00496724
0.00486766
0.00477539
0.00469278
0.00462238
0.00456574
0.00452287
0.00449376
0.00447702
0.00447132
0.00447721
0.00449423
0.0045228
0.00456216
0.0046102
0.00466973
0.00474061
0.00481277
0.00488702
0.00496059
0.00503103
0.00509609
0.00515315
0.00519994
0.00523506
0.00525213
0.00525786
0.00525841
0.00525061
0.00522723
0.00519279
0.00514868
0.00509515
0.00503346
0.00496455
0.00488919
0.00480808
0.0047218
0.00463119
0.00453726
0.00444259
0.00434991
0.00425736
0.00416486
0.00407382
0.00398419
0.00389387
0.00380112
0.00370896
0.00361711
0.00352251
0.00342797
0.00332692
0.00322664
0.00314439
0.00308521
0.00303883
0.00301301
0.00300831
0.00302533
0.00306473
0.00312372
0.00320037
0.00328946
0.0033866
0.00349011
0.00359311
0.00368906
0.00377271
0.00384894
0.00392526
0.00398639
0.00400757
0.00399711
0.00397883
0.0039509
0.00389845
0.00383823
0.00376782
0.00368987
0.00361411
0.00354351
0.00349352
0.00343013
0.00339419
0.0033324
0.00341198
0.00332283
4.66564e-05
0.000383436
0.00154741
0.00251142
0.00287243
0.00294338
0.0028689
0.00278405
0.00284788
0.00298818
0.00312429
0.00325072
0.0033513
0.00340714
0.00340534
0.0033542
0.00326952
0.00316948
0.00307391
0.00299138
0.00292735
0.00288653
0.00285415
0.00281685
0.00278112
0.00276219
0.00274419
0.00272568
0.00270378
0.00268121
0.00266371
0.0026557
0.00265955
0.00267589
0.00270472
0.00274789
0.00281178
0.00288522
0.00296301
0.00303532
0.00309847
0.00316383
0.0032285
0.00328218
0.00333259
0.00335679
0.00334372
0.00329626
0.00319628
0.0030415
0.00282681
0.00256197
0.00220071
0.00189594
0.00155269
0.00129991
0.00107771
0.00093332
0.000824645
0.000819667
0.000881707
0.000998067
0.00124495
0.0014562
0.00111234
0.000861214
0.000793328
0.000775584
0.000815439
0.000998403
0.00145271
0.00228788
0.00320849
0.00403331
0.00476527
0.00526776
0.00562006
0.00587222
0.00604441
0.00614287
0.00621101
0.00624379
0.00626028
0.00625116
0.00622827
0.00618772
0.00613253
0.00606472
0.00598495
0.00589412
0.00579355
0.00568684
0.00557748
0.00546699
0.00535822
0.00525421
0.00515722
0.00507013
0.00499503
0.00493358
0.00488723
0.00485747
0.00484363
0.004846
0.00486324
0.00489383
0.00494894
0.00501653
0.00508967
0.00516925
0.00525203
0.00533427
0.00541202
0.00548316
0.00554552
0.00559618
0.00563142
0.00564648
0.00565052
0.00564355
0.00562241
0.0055842
0.00553347
0.0054713
0.00539898
0.00531813
0.00522988
0.00513522
0.00503484
0.00492934
0.00481958
0.00470555
0.00458972
0.00447557
0.00436649
0.0042617
0.00416194
0.00406981
0.00398374
0.00389619
0.00379996
0.00369138
0.00357334
0.00344321
0.00331328
0.00319942
0.00312431
0.00307148
0.00304456
0.00305986
0.00311551
0.00320811
0.00333937
0.00349912
0.00368151
0.00388148
0.00408053
0.00427082
0.0044405
0.00458671
0.0047177
0.00480056
0.00482043
0.00482895
0.0048212
0.00476605
0.00469271
0.00460209
0.00449578
0.00437508
0.00424224
0.00411642
0.00400572
0.00391158
0.00386028
0.00383675
0.00381206
0.00375223
0.00378598
0.00376808
5.81779e-05
0.000679616
0.00197447
0.00267499
0.00280705
0.0026537
0.00255193
0.00261427
0.00272817
0.00284286
0.00294427
0.00301691
0.00305578
0.00305866
0.00303191
0.00299113
0.0029525
0.00292914
0.00292471
0.00292323
0.00290724
0.00286607
0.00281681
0.00276548
0.00270906
0.00265059
0.00259037
0.00252947
0.00246674
0.00241386
0.00238085
0.00237191
0.00238598
0.00242227
0.00247415
0.00253838
0.00261919
0.00272289
0.00284683
0.00297351
0.00308328
0.0031741
0.00325159
0.00331378
0.00337102
0.00340779
0.00341156
0.00338959
0.00333838
0.00324335
0.00310309
0.00292698
0.00267374
0.00241822
0.0021144
0.00183895
0.00162747
0.00143986
0.00132521
0.001317
0.0013114
0.00131292
0.00144464
0.00128426
0.000984992
0.000858521
0.00085468
0.000957999
0.00125375
0.001791
0.00272625
0.00359101
0.00446511
0.00510112
0.00556365
0.00588835
0.00613409
0.00627584
0.0063862
0.00645938
0.00651145
0.00653732
0.00655071
0.00655008
0.0065428
0.00652492
0.00649813
0.00646068
0.00641242
0.00635313
0.00628381
0.00620407
0.00611461
0.00601937
0.0059215
0.0058225
0.00572579
0.00563425
0.00555021
0.00547715
0.00541763
0.00537358
0.00534559
0.00533337
0.00533491
0.00535678
0.00540291
0.00545996
0.00552701
0.00560145
0.00567937
0.00575475
0.00582212
0.00588077
0.00593081
0.00596937
0.00599036
0.00599712
0.0059886
0.00596644
0.00592958
0.0058773
0.00581252
0.00573682
0.00565185
0.0055593
0.00546041
0.00535642
0.00524752
0.00513337
0.00501469
0.00489215
0.00476584
0.00463791
0.00451393
0.00439999
0.00429205
0.00419052
0.00409035
0.00398676
0.00387484
0.00375185
0.00361114
0.00346366
0.0033308
0.00323637
0.00318379
0.00318163
0.00322969
0.00336006
0.0035673
0.00383558
0.00417376
0.00456362
0.00497082
0.00539219
0.00579911
0.00613472
0.00643342
0.00669061
0.00679074
0.00681086
0.00678499
0.00667858
0.00649539
0.00624484
0.00598021
0.00570992
0.00543641
0.00518911
0.00496352
0.00474098
0.00451757
0.00432563
0.00417395
0.00408384
0.00405869
0.00403051
0.0040099
0.00399609
6.51841e-05
0.000895307
0.00215145
0.00265448
0.00256254
0.00240071
0.00239486
0.0024261
0.00251161
0.00261298
0.00271124
0.0027961
0.00285593
0.00290021
0.00293896
0.00297673
0.00301446
0.00304424
0.00303287
0.00298789
0.00293397
0.00287145
0.00277683
0.00266409
0.00255579
0.0024561
0.00236783
0.00231476
0.00226051
0.00221737
0.00219227
0.0021881
0.00220398
0.0022425
0.00230505
0.0023901
0.00249743
0.00263142
0.00278973
0.00295228
0.00309657
0.00321444
0.00330531
0.00337408
0.00342949
0.00346695
0.00347923
0.00347153
0.00343823
0.00337391
0.00327191
0.00315175
0.00298766
0.00280234
0.00255865
0.00232004
0.00209923
0.00187402
0.00168987
0.00156604
0.00147831
0.00148817
0.00138818
0.0011317
0.000944715
0.000917057
0.00107801
0.00144064
0.00208682
0.00295094
0.00389199
0.00466181
0.00527107
0.00569021
0.00599245
0.00621587
0.00635738
0.00646052
0.00653205
0.00656796
0.00659638
0.00661953
0.00664536
0.00666743
0.00668705
0.00670067
0.00670812
0.00670739
0.00669776
0.0066781
0.00664784
0.00660744
0.00655796
0.00650012
0.00643451
0.0063642
0.00629215
0.00622002
0.00615112
0.00608785
0.00603276
0.00598777
0.00595491
0.00593479
0.00592665
0.005936
0.00596488
0.00600432
0.00605379
0.00611013
0.00616923
0.00622394
0.00626585
0.00630077
0.00632805
0.00634481
0.00634708
0.00633321
0.0063046
0.00626369
0.0062093
0.00614253
0.00606515
0.00597904
0.00588538
0.00578522
0.00567994
0.00557147
0.00545834
0.00533932
0.00521579
0.00508902
0.00495348
0.00480965
0.0046653
0.00452749
0.00439502
0.00427286
0.00415832
0.00404291
0.00391517
0.00376615
0.00360325
0.00344366
0.00332732
0.00326195
0.00326802
0.00338044
0.00359818
0.00393316
0.00441592
0.00501743
0.0057475
0.00655316
0.00735202
0.00809724
0.00870964
0.00919551
0.00959616
0.00980646
0.00984364
0.00982292
0.00970538
0.00943248
0.00905828
0.008615
0.00811387
0.00757377
0.00702471
0.00649981
0.00604735
0.00566084
0.00532167
0.0050042
0.00470959
0.00447278
0.00431652
0.00425548
0.00422737
0.00416838
7.08784e-05
0.000995882
0.00220867
0.00254138
0.00232629
0.00222615
0.00220417
0.00228453
0.00241877
0.00255761
0.00268899
0.00280651
0.00290901
0.00299913
0.00307677
0.00313735
0.00317066
0.00315092
0.00312573
0.00311017
0.00305132
0.00294857
0.00283198
0.00272734
0.00265781
0.00259084
0.00251478
0.00245005
0.00237895
0.00230579
0.00225138
0.00223149
0.00223745
0.00226456
0.00232254
0.00241427
0.00254104
0.00270379
0.00288682
0.00306584
0.00321462
0.00333683
0.00343562
0.00350723
0.003562
0.00359655
0.0036118
0.00360863
0.00357845
0.00351433
0.00342062
0.00328864
0.0031243
0.0029377
0.00270328
0.00247769
0.00222217
0.00195101
0.00175724
0.00159482
0.00152029
0.00142239
0.00123146
0.00106446
0.000975614
0.00113253
0.00154486
0.00222162
0.00307924
0.00395146
0.004734
0.0052887
0.00568518
0.00596822
0.00617147
0.00631373
0.00639794
0.0064346
0.00645882
0.00648408
0.00651982
0.00655935
0.00660445
0.00665142
0.00669937
0.00674498
0.0067865
0.00682183
0.00684998
0.00686965
0.0068797
0.00688131
0.00687404
0.00685769
0.00683325
0.00680196
0.00676467
0.00672432
0.00668362
0.00664378
0.00660735
0.00657599
0.0065514
0.00653423
0.00652495
0.00652603
0.00653931
0.0065603
0.00658797
0.00661961
0.00665223
0.00667939
0.00669472
0.00670196
0.00670052
0.00668813
0.00666354
0.00662609
0.0065771
0.00651769
0.006448
0.00636906
0.00628208
0.0061889
0.00608975
0.00598536
0.0058764
0.00576488
0.00564448
0.00551673
0.0053777
0.00522591
0.00505824
0.00488427
0.00470751
0.00454474
0.00440379
0.00427609
0.00414935
0.00401641
0.00385982
0.0036847
0.00350913
0.0033685
0.00329638
0.00333163
0.00349471
0.00384071
0.00440444
0.0052896
0.00647343
0.00786998
0.00921967
0.0103692
0.0112627
0.0119729
0.0124417
0.0127987
0.012982
0.0130251
0.0130109
0.0128552
0.012668
0.0123128
0.0118411
0.0113002
0.0106562
0.00994268
0.00915436
0.0083823
0.00764852
0.00696989
0.00641656
0.00597364
0.00555439
0.00517504
0.00485932
0.00464107
0.00451328
0.00439966
7.40503e-05
0.00106985
0.00221863
0.00237719
0.00216261
0.0021139
0.00217677
0.00233675
0.00251071
0.00267587
0.00282806
0.00296612
0.0031004
0.0032225
0.0033137
0.00336418
0.00335787
0.00330594
0.00326192
0.00322327
0.00313895
0.00302031
0.00289902
0.00280016
0.00274048
0.00272719
0.00271281
0.00268332
0.00260821
0.00251026
0.0024458
0.00243512
0.0024623
0.00250716
0.00257612
0.00269782
0.00284309
0.00301024
0.00318147
0.00332446
0.00344569
0.0035499
0.00363647
0.00369601
0.00373036
0.0037472
0.00374186
0.00369777
0.00362888
0.00352711
0.00338982
0.0032259
0.00302422
0.00279791
0.00252503
0.00224605
0.00194099
0.00168012
0.00151895
0.00145511
0.00139535
0.00127979
0.00117055
0.00103773
0.00114717
0.00154279
0.00222707
0.00304754
0.00389873
0.00464709
0.00520028
0.00557351
0.00584015
0.00603628
0.00617603
0.00624259
0.00626081
0.00627723
0.00630063
0.00633224
0.00637256
0.00642141
0.00647906
0.00654348
0.0066131
0.00668481
0.00675633
0.00682539
0.00688802
0.00694168
0.00698921
0.00702869
0.007059
0.00708015
0.0070928
0.00709762
0.00709561
0.00708859
0.00707697
0.00706295
0.00704875
0.007035
0.0070233
0.00701437
0.00700869
0.00700648
0.00700878
0.00701417
0.00702128
0.00702868
0.00703446
0.00703458
0.00702381
0.00700445
0.00697614
0.00693908
0.0068925
0.00683641
0.00677099
0.00669786
0.00661737
0.00653016
0.00643712
0.00633779
0.00623311
0.00611792
0.00599597
0.00586012
0.00571663
0.00556287
0.00540029
0.00522339
0.00503821
0.00484991
0.00465897
0.00448141
0.00433304
0.00419719
0.00406171
0.00390185
0.00372528
0.00354457
0.00339239
0.00333978
0.00339259
0.0036578
0.00421973
0.00525967
0.00692135
0.00888201
0.0107439
0.0123184
0.0135533
0.0144375
0.0150135
0.0154172
0.0156012
0.015655
0.0156379
0.0155724
0.0154177
0.0151548
0.0149369
0.0145565
0.0141395
0.0136314
0.0130045
0.0123064
0.0114752
0.0105676
0.0096588
0.00876409
0.00791835
0.00721944
0.00665293
0.0061472
0.00572301
0.0053219
0.00511278
0.00489624
7.54015e-05
0.0011173
0.00220305
0.00224381
0.00210085
0.00210969
0.00225703
0.00246501
0.00267331
0.00288532
0.00309302
0.00328234
0.00342748
0.00351146
0.00354672
0.00355318
0.00353756
0.00348158
0.00342901
0.00339356
0.00331135
0.00319384
0.00307731
0.00297621
0.00289511
0.00285895
0.00289629
0.00293452
0.00296457
0.00298108
0.00298256
0.00297018
0.00300036
0.00305038
0.00312172
0.00323312
0.0033563
0.00347835
0.00358639
0.00367039
0.00375016
0.00382242
0.00387084
0.00389754
0.00388745
0.00383948
0.00376884
0.00366531
0.00351947
0.00334433
0.00311684
0.00284002
0.00250083
0.00214093
0.00180015
0.00152943
0.00139244
0.00136468
0.00135569
0.00134513
0.00129462
0.00120026
0.00108935
0.00116992
0.00149363
0.00210678
0.00292986
0.00370031
0.00445296
0.00500234
0.00537868
0.00563851
0.00584957
0.0060017
0.00607044
0.00609231
0.00610319
0.00611789
0.00613884
0.00616865
0.00620879
0.00626105
0.00632641
0.00640331
0.00648989
0.00658265
0.00667729
0.00676938
0.0068582
0.00694213
0.00701876
0.00708583
0.00714367
0.00719287
0.00723386
0.00726689
0.0072923
0.00731092
0.0073234
0.00733104
0.00733454
0.00733482
0.0073332
0.00732986
0.00732527
0.0073197
0.00731333
0.00730576
0.00729685
0.00728558
0.00727003
0.00724645
0.00721362
0.00717287
0.00712457
0.00706884
0.00700687
0.00693706
0.00686191
0.00677824
0.00669034
0.00659147
0.00649014
0.00637543
0.00625799
0.00612453
0.0059868
0.00583126
0.00567433
0.00550394
0.00532746
0.00513297
0.00493237
0.00472423
0.00452065
0.00434408
0.00419793
0.00405661
0.00389929
0.00371738
0.00354191
0.00340552
0.00334742
0.00345473
0.00386445
0.00485301
0.00672998
0.00911909
0.0116144
0.0137904
0.0155362
0.0166647
0.01742
0.017826
0.0179233
0.0179489
0.0178424
0.0177089
0.0174868
0.0173048
0.01707
0.0167749
0.0165547
0.0161701
0.0158264
0.0153732
0.0148342
0.0142103
0.0134977
0.0126388
0.0116955
0.0107468
0.00977211
0.00881503
0.00802382
0.00732547
0.00681244
0.0062471
0.00594202
0.0056535
8.14092e-05
0.00114041
0.00218038
0.00215773
0.00209846
0.00216246
0.00239063
0.00267227
0.0029317
0.00317902
0.00340005
0.00355973
0.00366486
0.00373227
0.00377466
0.00379709
0.00380095
0.00378387
0.00372523
0.00365129
0.00360201
0.00351814
0.00340843
0.00331412
0.0032263
0.00316924
0.00315331
0.00319755
0.00324129
0.00329888
0.00336483
0.00344003
0.00352887
0.00362586
0.00370351
0.00377725
0.00384117
0.00388901
0.00393266
0.00396664
0.00398711
0.00397915
0.00393029
0.00386058
0.00376741
0.00363578
0.00345964
0.00323535
0.00293905
0.00257047
0.00219115
0.00184574
0.00155266
0.00137409
0.00130779
0.00127553
0.00127416
0.00128923
0.00128946
0.00125326
0.00118139
0.0011502
0.00123168
0.00146165
0.0019436
0.00273944
0.00345368
0.00414955
0.00471414
0.00510076
0.00538679
0.00561902
0.00579839
0.00589342
0.00593463
0.00594439
0.00594617
0.00595229
0.00596579
0.0059902
0.00602676
0.0060774
0.00614411
0.00622722
0.00632512
0.00643486
0.00655251
0.00667327
0.00679234
0.00690336
0.00700217
0.00708961
0.00716699
0.00723518
0.00729466
0.00734585
0.00738917
0.00742472
0.00745281
0.00747402
0.0074888
0.00749779
0.00750185
0.00750092
0.00749524
0.00748545
0.00747196
0.00745376
0.00742976
0.0073994
0.00736139
0.00731684
0.0072668
0.00721069
0.0071494
0.00708163
0.00701003
0.00693002
0.0068473
0.00675378
0.00665844
0.00654903
0.00643942
0.00631248
0.00618491
0.00603736
0.00588805
0.00571097
0.00553478
0.0053283
0.00512315
0.00488911
0.0046722
0.00445171
0.00427477
0.004138
0.00400286
0.00383962
0.00367499
0.00350333
0.00338523
0.00334462
0.00354238
0.00426264
0.00600467
0.00863562
0.0117046
0.0146392
0.0171001
0.0187435
0.0198241
0.0202775
0.0203692
0.0203188
0.0201456
0.0198724