/*--------------------------------*- C++ -*----------------------------------*\
| =========                 |                                                 |
| \\      /  F ield         | OpenFOAM: The Open Source CFD Toolbox           |
|  \\    /   O peration     | Version:  2112                                  |
|   \\  /    A nd           | Website:  www.openfoam.com                      |
|    \\/     M anipulation  |                                                 |
\*---------------------------------------------------------------------------*/
FoamFile
{
    version     2.0;
    format      ascii;
    arch        "LSB;label=32;scalar=64";
    class       volScalarField;
    location    "0.16";
    object      ddt0(omegaU);
}
// * * * * * * * * * * * * * * * * * * * * * * * * * * * * * * * * * * * * * //

dimensions      [0 0 -2 0 0 0 0];

internalField   nonuniform List<scalar> 
12225
(
26.6792
4.97756
-30.2349
7.78566
17.1886
41.0936
39.407
95.6313
41.0298
182.601
201.316
32.2545
498.412
570.86
-786.59
1339.19
2976.95
-1778.09
-1.0407
53.1851
-530.37
-57.6199
-750.344
183.363
805.677
-208.579
-155.633
-100.102
-395.574
-875.705
2803.14
2018.73
-18048.4
3991.92
7024.81
-285153
-4.91936
1.38524
29.0323
890.268
-1172.09
766.518
-918.745
497.517
82.6562
780.661
980.03
-9367.95
9534.82
31916.8
-85723.1
-58191.1
550946
-235100
15.6226
-17.9691
49.2229
-128.623
283.069
-220.344
-120.758
94.1589
123.59
246.297
-1276.66
472.758
6609.86
-13605.2
-19201.6
95867.8
-67099.3
-46496.5
5.08583
-3.63388
14.746
-78.0597
135.668
-94.4601
-11.6759
-8.86965
93.3902
27.9974
-433.999
229.394
2597.44
-6158.22
-4933.89
36029.8
-35034.8
-10417.9
0.960895
-2.75245
3.82209
-31.6848
52.8971
-26.7078
-9.33784
-10.6895
49.2121
-1.72524
-113.933
8.33771
850.568
-1606.3
-2055.73
9863.38
-7543.82
-4780.83
-0.435898
2.8229
-7.8883
-7.46854
20.3683
-9.14394
-8.74127
-4.9704
23.301
-1.93073
-33.3288
-12.9943
299.07
-488.853
-645.27
2658.62
-1590.45
-1713.27
-1.30384
6.39704
-18.1026
18.6167
-14.7874
-2.31615
2.67585
-1.35104
10.0989
-0.762289
-10.6484
-1.56219
97.7209
-169.413
-119.915
630.062
-366.362
-453.327
-1.36802
5.71973
-14.1043
-3.40832
119.836
-149.454
25.0001
8.85031
4.18354
-1.93023
-5.68978
1.65331
27.8242
-53.9105
-8.64778
130.015
-82.202
-79.3649
-0.684331
5.27125
-32.3212
73.6194
-87.6529
2.02103
34.054
8.53429
0.915866
-2.26386
-3.82399
-0.0323395
4.72564
-17.0742
3.33906
25.0607
-14.5128
-12.5159
-0.164336
0.798665
-15.0403
50.5361
-72.4156
30.003
0.501611
2.89224
4.43241
-0.723274
-1.47762
-0.651199
-0.712217
-5.98369
-0.0428601
2.25515
-3.67084
-2.24942
-0.0032705
0.074093
-1.97053
14.1513
-28.204
17.1471
-10.337
7.23164
2.39618
-0.345804
-0.38995
-0.200485
-0.508025
-1.81962
-0.9435
-1.7935
-2.74201
-2.20774
0.00510931
-0.0145946
-0.0550344
2.05096
-7.92156
6.682
-4.75182
5.08406
-1.70007
-0.0293141
0.876639
0.18529
-0.101033
-0.408732
-0.393501
-0.932247
-1.3826
-1.83216
-0.000103682
-0.0080585
0.0386462
-0.0669658
-0.179834
0.309436
-0.820516
1.04772
-0.426054
0.0807438
0.132361
0.0603894
0.0114554
-0.0717822
-0.0781906
-0.191135
-0.251295
-0.443175
-0.000500169
-0.000938217
0.00157135
-0.0201507
0.056165
0.612561
-1.97049
1.17812
0.261203
-0.0178295
0.0125754
0.0242239
0.01087
-0.0111749
-0.00852266
-0.0150087
-0.0104396
-0.0296102
-0.000305984
-0.000911104
-0.00130136
-0.000945279
0.00279113
0.00717874
-0.154933
0.171543
0.00406279
-0.00930379
0.00764743
0.00736799
0.00149112
-0.00337822
-0.00371095
-0.00400094
-0.00478069
-0.00902675
-0.000187373
-0.000603426
-0.000751253
-0.000655607
-0.000552191
-0.00171457
-0.00066644
0.0101235
-0.0116298
-0.00182301
-0.00118834
-0.00442137
-0.00801055
-0.0121399
-0.016282
-0.0210617
-0.0254691
-0.0313529
-1.04911e-06
-0.000248656
-0.000189644
-0.000615155
-0.000567329
-0.00142917
-0.00112312
-0.00310346
-0.00395718
-0.00563431
-0.00872244
-0.0121742
-0.0159402
-0.023093
-0.0275145
-0.0386704
-0.0401997
-0.0653786
0.000170428
0.000158575
0.000383857
-0.000187741
-0.000820367
-0.00149605
-0.001271
-0.00720402
-0.0200441
0.0436637
-0.0534319
-0.0207904
-0.0226089
-0.0277797
-0.0437903
-0.0439234
-0.0732359
-0.0916508
0.000271758
0.000400477
-0.000505064
0.00497841
-0.00408839
-0.0226818
0.0616637
-0.087789
-0.097965
0.143437
-0.0184637
-0.0395399
-0.0400462
-0.0415995
-0.045184
-0.0475612
-0.0547651
-0.0645837
4.41384e-05
0.00554424
-0.0124313
-0.0643761
0.292936
-0.835653
1.30994
-0.383837
-0.596667
0.210322
0.0744983
-0.047657
-0.0669542
-0.0492243
-0.0126765
0.0146451
0.0181953
0.0282566
-0.00634111
-0.0111698
0.452979
-3.49625
8.39543
-7.63401
-0.00807658
2.32218
0.230279
-0.031389
0.0493251
0.110058
0.0804399
0.0568061
0.0885797
0.063042
0.0882774
0.114192
0.0252061
-0.180422
10.1677
-31.5835
12.7411
8.98707
1.37393
-0.0669478
0.233073
0.337833
0.255562
0.209675
0.0439648
-0.0301547
-0.1001
-0.053761
0.0137734
0.0761272
-0.218461
-4.00446
15.783
0.123774
-35.1703
18.6871
5.60944
0.699566
0.479368
0.230088
0.0531969
-0.316675
-0.290358
-0.293996
-0.193858
-0.139722
-0.0106724
0.0619131
0.328513
-3.26497
8.20542
-11.0988
3.13534
3.0148
0.33074
-0.089908
0.00436355
-0.20223
0.0215296
-0.428208
-0.0528321
-0.357627
0.0893094
-0.137394
0.285538
0.147041
0.187069
-0.96665
0.65628
-0.783613
1.18262
1.25927
-0.673835
-0.919004
0.704095
-0.299577
1.58567
-1.03603
1.66205
-0.992139
2.15122
-0.643214
2.42351
-0.123225
-0.524786
2.63631
-3.76955
-2.60503
1.50591
28.6654
-2.1038
-6.36332
1.81863
-2.60149
9.58392
-4.54663
11.169
-5.93741
13.8716
-5.56477
15.4222
-4.58505
-4.65873
14.2854
-10.746
-21.4514
-62.2289
323.416
55.4693
-135.281
57.6795
-0.568449
15.8397
-6.57746
40.3538
-0.667213
37.5776
3.04698
38.303
9.32047
-4.63609
45.0139
-15.902
23.7194
-76.7851
-23.9482
-31.0374
-100.61
164.939
36.5928
-14.0778
17.6373
39.4764
34.6843
31.4519
26.2481
28.9154
22.6962
-6.76599
13.274
13.9205
-24.6452
-3.78926
-5.18756
-16.0768
-18.5825
-33.5816
-38.6763
-45.1443
-57.7016
-64.2326
-76.7117
-82.2045
-93.2989
-98.5453
-106.7
-53.8671
-308.602
-299.437
187.421
801.771
1530.26
2018.82
1519.01
1309.38
734.106
-323.647
-1635.97
-2946.82
-4242.02
-5519.69
-6305.82
-7457.7
-9242.28
-10723.4
-11812.1
-12700.6
-13469.8
-14205.2
-14938.5
-15695.2
-16501
-17368.3
-18175.7
-19243.6
-20240.6
-21196
-22528.4
-23604.5
-24138.6
-25095.8
-25629.8
-26655.9
-27641.4
-29236.5
-30306.8
-32204.2
-34626.1
-37223.7
-40264.1
-43859.4
-48245.5
-52698.9
-45061.2
-10765.7
-1017.34
18833.4
21014
-6822.91
-12636.5
-12437
-49.2903
-2114.89
-8058.54
-31796.3
-34941.4
-42853.5
-40212.3
-42965.2
-47801.9
-49241.3
-39774.8
-19065.6
-1033.56
32513.2
108863
101750
21749.7
2517.79
-3363.25
-22653.9
-19265.1
-29714.1
-27652.6
-30662.7
-30511.6
-29111.8
-29588.4
-26021.6
-25962.3
-21888.9
-20597.7
-16927.2
-14726.5
-11795.6
-9457.62
-7623.35
-5909.75
-5426.61
-4920.2
-5746.45
-6661.79
-8694.43
-10888.5
-13789.8
-16935.5
-20372.5
-24091.1
-27820.8
-31741.8
-35581.6
-39482.2
-43243.6
-46948.1
-50569.8
-54052.2
-57339.3
-60365.4
-63031.7
-65381.8
-67382.6
-69045.2
-70237.2
-71143.9
-71725.4
-71829.8
-71662.9
-71193.4
-70501.5
-69769.2
-68795
-67322.7
-65869.1
-64009
-62294.8
-60210.8
-58388.6
-56109.6
-54120.2
-51877.9
-49678.3
-47537.2
-45029
-43158.1
-40505.2
-38086.2
-35890.2
-33344.3
-30728.4
-27836.6
-24676.4
-21198.8
-17399.5
-13308.8
-8919.7
-4288.08
463.515
4680.15
7946.15
9606.46
15352.2
21640.5
29031.8
15077.9
-43236.4
-81678.3
-90813.6
-95163
-98867.3
-106383
-111463
-118202
-122426
-127229
-130817
-133650
-135192
-135794
-137129
-136831
-137473
-135925
-135600
-134942
-134660
-135869
0.235677
-9027.78
2652.32
1863.85
10.4828
-925.387
-1588.14
-1578.02
-1641.59
-1750.95
-1915.15
-2304.3
-2441.53
-2711.14
-2958.99
-3183.97
-3399.11
-3609.03
-3803.5
-3996.29
-4178.55
-4360.7
-4542.29
-4739.72
-4939.44
-5126.42
-5373.22
-5492.82
-5678.13
-6006.9
-5590.73
-5909.07
-7207.43
-2888.66
1241.8
3431.95
7545.14
11944.7
15437.8
18404.7
21091
22723.1
22627.4
20015.1
11901.1
-315.332
-30306.7
-47997.3
-87424.9
-53432.8
25932.6
-19548.8
-122010
-60055.9
3401.49
-6444.7
-26425.8
-26732.7
-29904.1
-28306.9
-19786.6
16954
65579.3
35982.7
-38778.2
-51041
49773.1
121671
19476.7
23025.3
-17588.2
-95534.6
-51658.9
-58543.5
-41330
-39963.3
-25856.8
-9619.73
-18779.9
-5309.51
-3813.51
64.2716
2076.99
3231.21
6758.28
5788.12
5952.39
5345.93
2476.07
790.203
-3642.55
-6903.24
-11531.5
-15735.8
-19579.8
-23393.2
-26038
-28483.7
-29456.8
-30960.3
-31665.6
-31491.6
-30537.8
-29969.7
-29470.4
-30171.3
-27885.7
-25994
-24865.6
-23283
-21962.3
-20519.9
-19055.4
-18151.5
-17640.8
-16928
-16004.9
-15007
-14084.7
-13338.9
-12842.1
-12374.1
-12614.6
-12153.1
-13182.5
-12864.5
-12023.8
-12240.4
-11529.2
-11519.9
-11059.7
-10940.9
-10622.5
-10451.9
-10273.1
-10138.7
-10014.6
-9961.72
-9935.87
-9883.78
-9938.59
-9961.13
-10025.1
-10098.8
-10177.6
-10261.1
-10335.6
-10402.2
-10452.2
-10458.9
-10428.6
-10399.8
-10305.9
-10117.9
-9795.25
-9501.62
-9881.82
-10747.5
-14385.5
-15376.8
-15224.4
-15140.3
-14703.6
-14211.4
-13172.8
-13063
-12816.6
-13004.4
-13189.5
-12405
-12269.3
-12084.5
-12617.9
-13187.8
-14660.6
-15456.9
-18203.2
-19943
-31547
-62151.6
37.1553
14837
4591.34
-465.281
-2544.91
-3227.58
-2754.16
-2590.36
-2519.9
-2675.18
-2801.88
-2771.07
-2759.22
-2783.99
-2830.08
-2889.99
-2957.12
-3033.49
-3129.26
-3099.25
-3031.7
-3075.32
-3201.74
-3401.16
-3642.81
-3977.48
-4373.2
-4834.19
-5308.96
-5692.64
-6035.28
-6482.89
-6771.73
-6767.73
-6593.96
-6314.67
-6024.64
-4712.94
-3115.4
-901.734
2201.53
6198
11877.3
17226.9
23336.3
22194
13181.4
-7441.17
-50025.7
-77339.1
-40349.6
-8822.53
-43080.6
-12256.5
15780.4
-16403.2
-27010.4
-26331.1
-25913.9
-26024.3
-16492
-855.788
37210.4
54005.3
32908.6
35388.9
34746
2741.33
-29644.8
-95156.8
-51560.3
-51641.6
-36591.2
-25605.1
-10117
-9771.18
-2251.7
1883.09
2680.64
4023.12
4584.87
6091.97
5310.63
5171.44
4760.05
3032.64
2124.02
5.86345
-1930.15
-3957.39
-6474.06
-8450.82
-10737.4
-12615.6
-14220.1
-15679.7
-16604.5
-17392.5
-17806.9
-18023.3
-18088.3
-17921.2
-17732.1
-17459.9
-17145.2
-16845.6
-16524
-16144.4
-15712.5
-15300.3
-14913.4
-14583.1
-14313.8
-14072.9
-13856.7
-13664.4
-13473.3
-13271.5
-13096.7
-12987.4
-12938.7
-12918.2
-12884.3
-12725.5
-12725.6
-12700.1
-12588.8
-12678.6
-12637.7
-12767.4
-12827
-13027.6
-13208.9
-13485.5
-13826.6
-14221.5
-14724.9
-15307.2
-15945.9
-16568.1
-17217.9
-17872.9
-18548.4
-19237.6
-19927
-20602.9
-21252.2
-21861.9
-22400.4
-22859.3
-23230.3
-23488.1
-23624.5
-23606.9
-23357.8
-22660.6
-21095.3
-20731.8
-20383
-19595.8
-18612.9
-18145.6
-17281.2
-15887.3
-12922.9
-12243.6
-11322.3
-10765
-9919.4
-9300.16
-8031.42
-6960.05
-4995.03
-4340.42
-3167.61
-2357.6
-2898.8
-1641.91
-3769.68
-8055.26
615.937
7386.64
110.385
-2326.42
-2413.04
-2310.69
-2034.25
-2320.47
-2107.49
-2049.71
-1596.95
-615.616
-701.09
-1071.42
-1539.61
-2031.53
-2516.78
-2983.75
-3421.69
-3983.15
-4568.2
-5002.28
-5340.24
-5584.23
-5689.98
-5928.35
-5984.49
-6019.15
-6269.8
-6625.09
-7002.39
-7406.42
-7807.21
-8231.74
-8552.15
-8788.59
-8527.29
-8573.89
-8294.03
-7885.1
-6634.44
-4532.36
-1140.97
4349.93
12406.8
19653.7
21925.9
15227.3
-14025.2
-57792.9
-65951.4
-29194.5
-13327.4
31908.1
20433.7
-32348.2
-28546.9
-27782.1
-21155.7
-13834
-12805.9
1741.41
44700.6
72721.4
37001.3
-819.15
-19067.5
-114844
-57559.7
-55737.6
-39823.5
-21689.4
-12859.7
-7453.87
-2823.21
-751.946
1319.04
2549.39
3109.31
4626.47
4401.12
5067.45
4804.31
4516.08
4190.79
3226.59
2477.2
1211.46
-86.8428
-1471.49
-3066.04
-4512.79
-6038.7
-7428.42
-8674.9
-9825.5
-10749.9
-11556.4
-12197.4
-12701.5
-13119.7
-13426.4
-13687.5
-13897.4
-14065
-14212.7
-14336.3
-14445.7
-14524.9
-14591.4
-14648.3
-14699.7
-14753.8
-14798.5
-14826.8
-14844.4
-14859.6
-14869.2
-14877.3
-14896.1
-14926
-14956.8
-15006.2
-15033.4
-15104.6
-15201.4
-15316.7
-15495.2
-15700.1
-15956
-16242.9
-16608.9
-17016.5
-17493.7
-18036
-18618.9
-19246
-19857.6
-20535.4
-21317.5
-22082.6
-22827.4
-23579.2
-24335.7
-25077.6
-25786.5
-26441.9
-27032.9
-27524
-27905.9
-28177.4
-28321
-28335.2
-28216.3
-27983
-27717.5
-27909.2
-27226.7
-25998
-24503.8
-23728.4
-23276.9
-22330.7
-20144.1
-15335.4
-14654.3
-13294.3
-12894.4
-11653.8
-10228.9
-7920.99
-7043
-3825.07
-2789.89
-210.995
0.178472
2266.86
1677.43
3823.58
1489.28
-12.4099
965.533
-2547.63
-2286.19
-1618.49
-1703.51
-1311.81
-421.544
294.969
-777.939
-2614.15
-5386.27
-7026.91
-8027.84
-8742.93
-9283.85
-9673.53
-9941.68
-10105.2
-10166.1
-10141.1
-10055.4
-9905.09
-9783.21
-9644.37
-9589.78
-9518.38
-9419.77
-9449.59
-9521.28
-9628.12
-9760.03
-9898.79
-10098.6
-10283.5
-10484
-10897.4
-10848
-10804
-9925.86
-10029.4
-8326.39
-6961.39
-3593.62
2491.58
12366.5
19972.7
22598.7
10389
-28263.5
-57988.8
-33440.3
9233.06
54664.5
-34836.5
-34454.2
-32232.2
-26621.2
-13196.8
-7128.09
-1629.85
29914.2
91560.3
41620.4
1673.41
-29014.3
-99929.4
-50874
-33684
-32427.6
-17754.8
-11815.6
-6495.58
-3649.12
-1676.89
-572.585
11.7821
1429.55
1647.09
2322.1
2489.4
2775.13
2889.83
2829.08
2769.87
2432.79
2073.3
1507.2
820.654
43.7214
-879.512
-1833.24
-2859.51
-3900.31
-4923.68
-5937.3
-6891.67
-7800.44
-8649.86
-9435.03
-10170.3
-10846.3
-11476.3
-12061
-12599.6
-13099.1
-13556.6
-13976.1
-14353.5
-14691.6
-14993
-15257.7
-15489.5
-15687.6
-15851.3
-15985.1
-16096.9
-16191.6
-16273.7
-16351.4
-16431.1
-16517
-16604.5
-16706.9
-16830.7
-16985.8
-17175.4
-17407.8
-17678.5
-18006.9
-18380.8
-18825.3
-19335.4
-19922.9
-20598.2
-21363.2
-22239.2
-23157.7
-24118.6
-24923.3
-25698
-26464.9
-27253.8
-28037.5
-28784
-29469.9
-30066.9
-30557.3
-30912.4
-31118
-31144.6
-30979.4
-30640
-30120.2
-29336.5
-28377.5
-26833.5
-25607.1
-25082.1
-21459.8
-18762.4
-16923.9
-12917.9
-13213.2
-10631.8
-9384.37
-8286.86
-7433.17
-5499.07
-3515.95
124.897
3132.34
3257.1
2361.61
4376.71
5479.33
7947.46
7945.43
9697.15
8049.79
-2623.61
117.919
-2639.1
-1789.05
-831.683
-36.8105
-84.3319
-3664.35
-7837.06
-10105.4
-11324.1
-11775.6
-11604.3
-11650.6
-11783.5
-11857
-11815.1
-11691.3
-11531
-11322.8
-11081.8
-10841.7
-10652.7
-10449
-10248.9
-10139.5
-10111.4
-10057.9
-10126.1
-10236.3
-10386.3
-10557.9
-10724.3
-10908
-11222.6
-11513.1
-11835.9
-12097
-12242
-12397.8
-11616.5
-10458.8
-8714.53
-6400.92
-1740.29
6326.83
17615.1
25231.9
24019
-1219.88
-44996.2
-17012.2
40638.9
-9085.54
-42540.9
-34009.1
-37323.3
-26690.8
-6352.38
751.011
30383.3
72344.2
17931.1
7852.12
-43912
-81980.7
-45732.3
-30770.7
-26667.1
-16766.4
-9541.47
-6890.73
-4488.71
-3282.78
-2719.94
-1542.26
-1049.14
-587.438
-281.199
19.0293
267.669
472.017
668.388
774.173
868.204
858.246
794.458
637.752
385.609
52.5984
-385.493
-901.151
-1500.29
-2170.97
-2896.54
-3675.23
-4488.19
-5329.11
-6188.19
-7053.54
-7919.94
-8775.77
-9613.76
-10425.6
-11201.8
-11936.6
-12623.2
-13257.6
-13835.7
-14356
-14819.4
-15226.7
-15580.6
-15883.5
-16138.2
-16349.4
-16524.2
-16670
-16794.1
-16905.4
-17011.9
-17119.8
-17234.9
-17364.7
-17516
-17699.1
-17920.6
-18185.4
-18502.6
-18878.8
-19298.3
-19778.6
-20313.8
-20904.3
-21560.3
-22295.7
-23146.5
-23920.1
-24660.4
-25388.5
-26096.6
-26812.3
-27492.2
-28100
-28625.3
-29063.2
-29397.2
-29598.4
-29649.6
-29528.8
-29179.6
-28575.5
-27594.9
-26865.5
-25263.3
-24617.7
-21800.5
-18802.9
-15376.3
-12854.2
-11215.4
-8945.32
-4560.12
-3832.88
-5904.07
-4680.82
-3840.71
-2641.85
179.094
3235.61
7103.63
10609.9
13912.6
18573.5
21574.7
25291.7
27221.1
27414.6
26151.2
23465.9
-4596.31
-4880.98
-2565.53
-650.416
-493.332
-3769.77
-9659.78
-12592.4
-13590.3
-13681.5
-14510.3
-14987.3
-14439.4
-13324
-12607.1
-11505.2
-10373
-9415.12
-8980.34
-8578.65
-8252.63
-8024.85
-7891
-7847.06
-7900.69
-8083.35
-8382.72
-8567.94
-8804.41
-9147.2
-9543.15
-9876.85
-10174.2
-10493.1
-10814.8
-11324
-11841.5
-12245.9
-12459.8
-12474.1
-11929.3
-11053.4
-9603.13
-7091.47
-2809.94
5008.23
16960.3
29407.7
40268.6
17283
-8172.77
11014.4
4586.79
-35782.8
-33000.7
-36845.1
-45941.8
-20686.8
-9711.02
29886.2
36727.8
8212.39
-3171.73
-67482.1
-80969.9
-35487.8
-26162.2
-21345
-17680
-10126.6
-7073.67
-5469.67
-4493.99
-4036.18
-3144.45
-2810.68
-2499.18
-2316.63
-2128.97
-1973
-1799.52
-1641.79
-1470.01
-1319.14
-1171.71
-1054.13
-966.037
-918.778
-924.875
-985.56
-1114.08
-1310.64
-1580.16
-1925.18
-2343.7
-2837.12
-3401.65
-4033.88
-4728.93
-5478.59
-6274.4
-7104.53
-7955.94
-8814.54
-9665.01
-10493.4
-11286.5
-12033.3
-12725.2
-13356.3
-13923.7
-14427.1
-14868
-15249.1
-15574.3
-15848.4
-16077.9
-16270.2
-16433.8
-16578.1
-16713.2
-16847.6
-16988.7
-17143.5
-17320.4
-17528.9
-17774.2
-18061.7
-18397.5
-18782.4
-19205.7
-19682
-20189.9
-20728.9
-21312.2
-21881.7
-22515.9
-23120.5
-23700.5
-24329.5
-24970.7
-25514.7
-25977.3
-26340.7
-26619
-26826.9
-26935.5
-26947.5
-26827.4
-26455.5
-25878.5
-25077.6
-23332.3
-22433.7
-19814.6
-16871.7
-13733.8
-10396.4
-7258.98
-5979.58
-5741.77
-2425.82
355.189
2645.3
8068.46
13755.6
15710.3
19646.6
27455.7
34884.7
42503.9
48915.6
51546
55494.7
56400.6
61295.6
57485
59218.9
50912.6
47174.6
-8030.49
-5690.67
-2782.59
-3899.29
-7625.54
-11618.2
-14254.4
-15447.5
-16373.4
-15706.4
-12744.3
-8891.17
-6908.09
-6115.86
-5621.92
-4971.85
-4502.84
-4114.03
-3674.8
-3611.46
-3647.92
-3756.26
-4052.66
-4453.53
-4937.18
-5389.05
-5890.06
-6390.58
-6919.58
-7600.03
-8146.55
-8466.37
-8835.21
-9317.91
-9824.53
-10322.7
-10875.4
-11466.5
-11945.2
-12058
-11836.8
-11286.8
-8682.62
-6363.17
-1698.54
6030.11
18496.3
35021.6
52169.6
42021.8
22106.5
6947.66
-31128.9
-28802.1
-25714.2
-49618.4
-32453.2
-21673.7
-2935.04
20094.3
5290.03
-12627.8
-64361.4
-60048.1
-38176.9
-25036.8
-19688.9
-15451.6
-10906.3
-7789.32
-6305.37
-5494.47
-5104.82
-4359.87
-4055.21
-3916.9
-3809.81
-3754.36
-3695.96
-3639.54
-3561.51
-3470.88
-3358.8
-3235.42
-3100.81
-2963.84
-2831.16
-2709.8
-2609.71
-2537.25
-2501.83
-2510.16
-2569.01
-2685
-2862.8
-3107.37
-3421.95
-3808.57
-4267.86
-4797.82
-5394.29
-6050.1
-6755.21
-7497.17
-8261.31
-9032.1
-9793.96
-10532.3
-11234.3
-11890
-12492.2
-13037.3
-13523.9
-13953
-14327.4
-14651.1
-14929.5
-15169.1
-15377
-15561.8
-15734.1
-15902.9
-16075.1
-16257.3
-16460.2
-16695.2
-16958.5
-17254.7
-17588.1
-17951.6
-18372.1
-18835
-19291.2
-19730.9
-20254.7
-20800.6
-21440.3
-21924.2
-22368.9
-22798.4
-23193.8
-23528.7
-23804
-23997.5
-24138.6
-24230.2
-24148.3
-24016
-23889.1
-23362.7
-22506.6
-20769.9
-19474.3
-14835.5
-12541
-7739.58
-8802.28
-5082.3
-2611.09
1193.83
11108.2
16247.1
19078.6
22306.2
26631.3
32704.5
37909.1
45295
59498.1
68933.4
76253.9
80753
81886.3
85428.8
82665.7
82155.5
72678
71372.8
59476.5
56656.2
-11691.4
-5703.51
-5174.98
-8765.84
-12388.8
-14595
-15726.4
-14652.8
-11602.3
-8934.62
-6726.77
-4979.83
-3963.67
-3685.27
-3580.66
-3587.2
-3677.89
-4030.43
-4546
-4908.71
-5101.25
-5508.83
-5860.53
-6008.96
-6356.14
-6501.69
-6434.39
-6289.54
-6325.22
-6647.92
-7046.69
-7441.63
-7718.27
-8045.93
-8549.2
-9016
-9403.61
-9786.65
-10204.2
-10588.3
-10886.2
-9455.82
-6873.34
-5330.76
978.056
11908.5
27216.6
48571.1
76171
63462.7
14618
-21600.6
-30892.5
-13160.2
-27526.4
-49488
-29352.3
-21301.9
693.445
-5596.61
-20619.4
-49030.8
-41127.3
-37074.6
-22811.2
-20181.9
-15443.7
-11835.5
-8634.57
-7109.44
-6326.63
-5964.45
-5313.3
-4995.63
-4892.4
-4866.45
-4882.46
-4920.92
-4959.19
-4987.25
-4993.73
-4976.66
-4933.25
-4865.97
-4777.33
-4671.69
-4554.63
-4431.74
-4310.14
-4196.3
-4097.4
-4020.32
-3971.69
-3958.18
-3985.8
-4060.36
-4187.08
-4370.49
-4614.16
-4920.17
-5288.77
-5718
-6203.35
-6737.73
-7311.56
-7913.29
-8530.14
-9148.91
-9756.92
-10342.8
-10897.4
-11414.1
-11888.7
-12319.6
-12707
-13053.1
-13361.4
-13637.6
-13885.7
-14111.8
-14325.8
-14535.4
-14744.9
-14955.6
-15188.8
-15465.4
-15746.7
-16054.6
-16386.1
-16707.6
-17090.1
-17481
-17932.4
-18574.1
-19123.7
-19610
-19975.3
-20316.6
-20641.7
-20967.6
-21250.6
-21504.9
-21697
-21803.2
-21890.1
-22026.8
-22004.6
-21633.1
-21226.3
-20476.8
-19191.4
-15295.7
-12273.7
-7661.87
-7931.37
-3653.99
-400.371
5294.06
13554.6
19128.2
21475
25129.8
27737.1
34064.8
45052.3
49726
63972.2
73769.2
80831.4
88510.6
96078.1
97461
93018.4
93715.5
86046.6
79177.4
66754.6
62303.4
49180.7
47584.2
-13215
-6043.02
-8084.66
-11492.2
-13643.4
-14330
-13269
-11219.2
-8987.79
-6497.33
-4366.42
-3278.35
-3079.79
-3283.37
-3553.68
-3819.18
-4301.81
-4983.48
-5772.69
-6716.44
-7933.78
-9403.6
-9854.24
-10161.8
-10355.8
-10246.3
-9964.35
-9377.66
-8510.56
-7964
-7498.45
-7291.43
-7342.66
-7637.55
-8060.16
-8484.25
-8920.44
-9207.91
-9504.39
-9813.87
-8903.03
-7484.38
-6336.51
-1929
4113.23
14382
31399.6
56757.5
94446.4
49726.5
7429.21
-45342.4
-24115.4
5359.92
-26618.8
-39030.7
-35831.7
-22440.7
-14967.2
-28092.4
-39753.2
-40471.8
-28243
-23744
-18779
-15839
-12997.7
-9685.43
-7968.69
-7120.47
-6746.69
-6154.82
-5748.86
-5616.72
-5604.64
-5652.34
-5738.54
-5842.3
-5947.11
-6040.65
-6113.88
-6161.65
-6181.63
-6174.14
-6140.93
-6084.66
-6009.14
-5918.73
-5818.53
-5713.74
-5609.84
-5512.32
-5426.6
-5358.07
-5311.8
-5292.68
-5305.46
-5354.63
-5444.28
-5577.7
-5757.25
-5983.98
-6257.43
-6575.3
-6933.37
-7325.57
-7744.29
-8180.85
-8626.07
-9070.95
-9507.41
-9928.72
-10329.9
-10707.7
-11060.5
-11387.9
-11691
-11977.8
-12245.9
-12499.3
-12745.9
-12992.1
-13237.4
-13457.8
-13718.2
-13979.1
-14280
-14616.2
-15040.5
-15549
-15984.6
-16398.6
-16818.8
-17212.9
-17616.4
-18032.5
-18400.3
-18732.3
-19026.4
-19323.9
-19574
-19850.5
-20109.6
-20362
-20420.3
-20476.3
-20487.3
-19786
-18334.9
-16797
-13755.2
-9887.96
-5149.5
-4686.83
654.69
2939.4
7545.57
17671.2
20806.2
25104
29490.7
36445.3
43188.6
57253.8
61917
72795.5
92563.6
97575.6
101951
110641
101313
88103.3
76370.6
57956.3
44915.1
36153.6
28648.4
24866.5
19263.4
19042.7
-18816.1
-6701.09
-9537.67
-12036.4
-13043.2
-12419.9
-10304.8
-8484.47
-6158.75
-3815.43
-3081.85
-2932.77
-3387.84
-4390.88
-5611.11
-6605.65
-7527.08
-8482.2
-9188.85
-9892.91
-10519.1
-10991.8
-11769.3
-12227
-12366.6
-12222.1
-12108.9
-12127.1
-12047.5
-10761
-9616.62
-8813.79
-8421.57
-8421.6
-8643.66
-8874.79
-9084.11
-9367.5
-9337.95
-8955.46
-8656.69
-7113.71
-4640.07
-664.927
7054.53
19331.4
40427.9
70808.3
99579.6
28692
-7455.41
-50475.3
-17113.6
13254.9
-18166.1
-27261
-41499.2
-26260.2
-28577.4
-38752.8
-34713.3
-28424.9
-24026.7
-18502.2
-15993.1
-13440.6
-11374
-9048.11
-7921.76
-7330.73
-7046.96
-6503.41
-6241.88
-6177.63
-6206.28
-6290.2
-6410.49
-6549.69
-6693.28
-6829.25
-6948.45
-7044.62
-7114.79
-7158.52
-7176.54
-7170.22
-7142.04
-7095.21
-7033.35
-6960.39
-6880.39
-6797.25
-6714.85
-6637
-6567.27
-6509.09
-6465.9
-6441.24
-6438.5
-6460.7
-6510.52
-6590.03
-6700.66
-6842.89
-7016.1
-7218.39
-7446.66
-7696.81
-7963.94
-8242.66
-8528.55
-8816.59
-9103.2
-9386.21
-9663.23
-9932.2
-10189.5
-10440.4
-10689.9
-10940.5
-11196.6
-11463.5
-11752.1
-12131.4
-12459
-12777.5
-13108
-13465.7
-13857.2
-14222.5
-14626.4
-15039.2
-15453.5
-15882.7
-16301.2
-16740.1
-17120.6
-17471.5
-17824.1
-18180.5
-18599
-18913.9
-19222.8
-19556.2
-19619.5
-19244
-18410
-16862.7
-14570.5
-12804.5
-7043.83
-4406.44
-1868.75
454.165
4917.38
10588.5
18976.6
24167.2
29966.1
39233.1
46285.8
55030.4
65252.3
83229.7
91870.7
109204
112487
108394
93373.3
65594.1
47788
35993
27387
21413.1
16768.8
13110
10466
8445.99
7065.22
6776.54
-22201.8
-7047.58
-9569.76
-11793.4
-12381.9
-10830
-7931.7
-5891.69
-4882.54
-2866.36
-3034.19
-3944.13
-4824.31
-6426.61
-8311.73
-9440.66
-10222.4
-12456.7
-13229.2
-14492.8
-15742.4
-16906.3
-17376.4
-18229.6
-18655
-18191.1
-17359.2
-15378.8
-13743.2
-12546.1
-11051.8
-9699.63
-8927.33
-8761.78
-8915.95
-9031.17
-9023.43
-9030.47
-9031.32
-8852.16
-8290.65
-6672.02
-3534.45
1883.5
11435.4
27422.2
47227.5
78438.8
69368.9
8538.78
-24137.4
-31537.3
-10142.2
10664.9
-16825.8
-24019
-38923.7
-31418.1
-24447.3
-35044.4
-31125
-21662.1
-19918.2
-16823.1
-14135.5
-12172.3
-10604.8
-8935.76
-8103.23
-7738.17
-7376.71
-6935.07
-6737.53
-6689.02
-6722.08
-6808.36
-6931.58
-7076.95
-7231.2
-7383.19
-7524.08
-7647.1
-7748.38
-7827.24
-7883.93
-7918.63
-7932.96
-7928.92
-7908.93
-7875.64
-7831.36
-7778.28
-7718.72
-7655.02
-7589.75
-7524.86
-7462.39
-7404.89
-7354.84
-7314.53
-7286.46
-7272.71
-7275.49
-7296.27
-7336.35
-7396.3
-7475.7
-7573.66
-7688.39
-7816.6
-7960.34
-8114.84
-8278.82
-8454.36
-8637.72
-8830.8
-9040.75
-9264.12
-9499.54
-9747.96
-10009.5
-10284.9
-10574
-10856.1
-11166.3
-11490.5
-11832.5
-12202
-12615.9
-13044.9
-13479.6
-13936.6
-14377.1
-14853.1
-15321.4
-15830.3
-16352.8
-16767
-17239.1
-17589.7
-18241.9
-18510.7
-18775.9
-18466.7
-18223
-17161.1
-16071.2
-13839.8
-12132.6
-8474.6
-3223.85
-1452.2
865.525
5616.49
15275.2
21572.2
29620.3
39388.4
46393.9
58756.3
68003.7
87322.4
102150
118734
120599
103320
68314
47946.7
34472.7
24679.7
18315.8
13449.2
10054.1
7587.64
4917.24
3611.12
2002.93
1565.69
1108.2
512.909
-24855.9
-7201.86
-9514.68
-11716.4
-11229
-9061.06
-7441.93
-6660.06
-5411.97
-4531.43
-4257.61
-4304.75
-4636.49
-5390.38
-6483.92
-7765.53
-8958.81
-10036
-11632.7
-12836.4
-13649.3
-16416.9
-19056.4
-20910.8
-22787.5
-24741.9
-26270.6
-25784.8
-23425.6
-22132.2
-18778.8
-14985.1
-11709.6
-10068.7
-9155.18
-8677.16
-8471.16
-7784.09
-7843.8
-8294.08
-7720.96
-5699.46
-1941.47
4884.89
15124.4
28988
50114.8
72531.7
26796.9
957.799
-31432.9
-17841.5
-2888.81
12616.8
-15837
-22627.8
-37470.7
-32960.7
-22593.4
-27724.5
-28232.3
-19916.2
-16742.5
-15394.6
-13243.5
-11375.9
-10246.5
-9167.68
-8531.96
-8212.74
-7912.96
-7537.92
-7321.22
-7190.01
-7181.21
-7238.79
-7337.35
-7460.68
-7596.66
-7736.09
-7870.64
-7992.68
-8099.47
-8191.58
-8269.15
-8330.81
-8379.19
-8411.09
-8430.07
-8437.05
-8431.77
-8414.3
-8385.21
-8345.5
-8296.87
-8240.24
-8176.86
-8109.26
-8039.76
-7970.05
-7902.37
-7838.09
-7778.9
-7725.96
-7681.37
-7647.06
-7624.24
-7614.12
-7617.56
-7637.28
-7670.54
-7714.88
-7770.33
-7847.05
-7944.33
-8059.88
-8197.69
-8358.76
-8543.34
-8754.22
-8985.45
-9235.14
-9503.1
-9791.58
-10103.7
-10435.3
-10796.4
-11186
-11636.6
-12141.5
-12632.4
-13178.9
-13677.3
-14213.9
-14774
-15282.6
-16030.1
-16469
-17073.8
-17290.5
-17790.6
-17742.7
-17849.1
-17200.9
-16958.7
-15516.3
-14492
-11835.1
-10491.8
-3016.13
-1301.14
2608.3
8443.69
16952.9
27377.6
39210.3
47136.1
61997.3
70334.9
93470.9
107643
122047
124413
82511.8
56516
39036.8
26487.7
18463.5
13405.8
9144.86
6346.34
4289.82
2747.51
1861.87
397.424
7.74565
-392.033
-1105.23
-1290.47
-1574.05
-22731
-7984.96
-9110
-10565.8
-10135.5
-8782.58
-7696.51
-7247.38
-5911.23
-5230.28
-4937.05
-4837.96
-4924.08
-5200.74
-5599.71
-6000.72
-6372.41
-7196.13
-8219.34
-9238.65
-10223.2
-11165.6
-11890.1
-13792
-15287
-16499.2
-20770.6
-24827.9
-30817
-32425.2
-33661.4
-33354.2
-27997.7
-20657.3
-15913.3
-10711.7
-7737.5
-5875.34
-547.352
-308.586
-1216.94
1068.06
4825.99
9935.52
17195.5
27003.1
39417.2
38195.2
4375.98
-7331.1
-29866.8
-13580.1
2763.93
12318.9
-13927.2
-20249.2
-34473.4
-33254.4
-20986.6
-19537.2
-23015.5
-19438
-15340.9
-13509.2
-12194.7
-11142
-10158.2
-9300.31
-8716.4
-8361.2
-8121.86
-7802.05
-7607.6
-7606.59
-7579.92
-7587.57
-7627.78
-7692.23
-7770.88
-7863.64
-7963.75
-8059.81
-8151.09
-8236.21
-8317.13
-8389.68
-8446.11
-8498.49
-8544.61
-8584.38
-8616.84
-8640.31
-8653.53
-8655.99
-8646.51
-8623.12
-8584.33
-8531.05
-8464.59
-8386.62
-8299.55
-8206.03
-8107.88
-8005.78
-7903.84
-7805.06
-7711.99
-7626.94
-7551.64
-7486.31
-7435.97
-7402.4
-7391.55
-7398.36
-7426.32
-7477.16
-7553.03
-7655.07
-7787.18
-7953.2
-8144.33
-8359.84
-8599.47
-8873.49
-9191.01
-9534.34
-9928.93
-10359.3
-10839.5
-11451.9
-12008.7
-12651.1
-13249.8
-13776.4
-14524.8
-14927.1
-15803.3
-16105.4
-16702.2
-17014.8
-17254
-17546.5
-17322.3
-17312.6
-16311.4
-15279.4
-12480.7
-8141.54
-2276.34
-1002.98
3957.81
13248.3
23405.3
37262.8
45850.3
64166.7
71691.8
98748.1
110509
128947
126706
80479
52378.4
34814.8
22771.3
15620.7
10585.7
6772.87
4859.38
2862.06
1594.14
859.303
-273.402
-497.887
-810.369
-1451.73
-1504.56
-1718.84
-1850.53
-1981.48
-20017.6
-9551.87
-8541.51
-9598.98
-9469.42
-8665.33
-7982.54
-7607.95
-6900.4
-6524.2
-6271.8
-6043.73
-5853.42
-5668.71
-5540.6
-5565.42
-5855.68
-6071.21
-6309.97
-6616.1
-7038.58
-7453.94
-8050.65
-8833.85
-9590.95
-10299.6
-11009.9
-11643.7
-14156.5
-15394.3
-18830.2
-25519.4
-32474.1
-40730.4
-40135.7
-36708.2
-31253.6
-17818.2
-10635.2
-5462.29
-2334.35
7931.15
11411.1
15829.3
23202.7
27523.3
26140.1
12578.3
2200.16
-18835.7
-15828.6
-5993.99
12304.3
18237.4
-12440.5
-18385.4
-30333.1
-34569.6
-25038.2
-18307
-17677.3
-16680.5
-14332.9
-12942.5
-11758.9
-10717.3
-9948.54
-9303.92
-8803.49
-8472.3
-8244.23
-8011.99
-7798.43
-7669.31
-7608.11
-7583.75
-7586.87
-7609.6
-7640.88
-7686.13
-7743.72
-7803.24
-7864.67
-7927.16
-7995.31
-8066.84
-8144.33
-8223.87
-8309.23
-8400.24
-8493.08
-8582.95
-8664.95
-8734.18
-8785.8
-8816.42
-8815.94
-8785.06
-8726.37
-8642.98
-8538.83
-8418.89
-8291.09
-8142.97
-7987.26
-7829.24
-7673.23
-7522.86
-7381.07
-7250.37
-7133.44
-7033.36
-6954
-6895.73
-6860.8
-6851.62
-6870.63
-6918
-7000.21
-7112.12
-7256.56
-7440.83
-7659.78
-7923.55
-8264.77
-8637.42
-9082.06
-9606.02
-10108.8
-10827.3
-11432.2
-12102.7
-12936.2
-13380
-14459.2
-14787.9
-15767.4
-16368.4
-16789.8
-17963.2
-17673.8
-19047.5
-17797.4
-18818.5
-14693.4
-14736.5
-4533.28
-1058.38
2166.21
7525.58
14165.1
33855.6
43325.2
65091
72552
102583
112430
136130
132576
82107.2
51850.5
33436.7
21137.2
14238.8
8959.39
5982.55
3873.2
2007.02
1384.19
110.547
-154.493
-659.855
-782.816
-1017.45
-1147.45
-1341.71
-1392.91
-1576.63
-1643.46
-1766.83
-18679.9
-11605.8
-8486.6
-8790.97
-9040.45
-8641.26
-8185.08
-7919.23
-7519.58
-7305.42
-7120.75
-6936.64
-6747.92
-6545.95
-6347.69
-6175.08
-6035.05
-5892.6
-5746.61
-5611.4
-5501.63
-5635.27
-5893.24
-6108.97
-6281.02
-6527.35
-6808.38
-6963.27
-7175.44
-7390.34
-7674.79
-8111.94
-8754.64
-12671.9
-15046.6
-19960.3
-30809.7
-40030.6
-46222.6
-43728.3
-35703.1
-16961.8
-7558.04
-2024.18
936.041
4974.02
1668.21
-13188.9
-17068.2
-19313.8
-10280.1
-4402.61
15047.3
25822.2
-4863.54
-15382.4
-21246.5
-29375
-27521.7
-19602
-16684.9
-15580.7
-13696.4
-12015.5
-10913.9
-9970.02
-9273.79
-8705.63
-8259.7
-7946.41
-7712.18
-7556.97
-7331.34
-7148.38
-7024.1
-6935.35
-6870.68
-6822.8
-6782.12
-6752.67
-6741.12
-6742.36