/*--------------------------------*- C++ -*----------------------------------*\
| =========                 |                                                 |
| \\      /  F ield         | OpenFOAM: The Open Source CFD Toolbox           |
|  \\    /   O peration     | Version:  2112                                  |
|   \\  /    A nd           | Website:  www.openfoam.com                      |
|    \\/     M anipulation  |                                                 |
\*---------------------------------------------------------------------------*/
FoamFile
{
    version     2.0;
    format      ascii;
    arch        "LSB;label=32;scalar=64";
    class       surfaceScalarField;
    location    "0.16";
    object      phi;
}
// * * * * * * * * * * * * * * * * * * * * * * * * * * * * * * * * * * * * * //

dimensions      [0 3 -1 0 0 0 0];

oriented        oriented;

internalField   nonuniform List<scalar> 
24170
(
3.1057e-06
8.27064e-08
3.00007e-06
1.05631e-07
2.89257e-06
1.07502e-07
2.78432e-06
1.08245e-07
2.67952e-06
1.04799e-07
2.58183e-06
9.76874e-08
2.49259e-06
8.9246e-08
2.41199e-06
8.06026e-08
2.33975e-06
7.22333e-08
2.27545e-06
6.4302e-08
2.21826e-06
5.7188e-08
2.16787e-06
5.0388e-08
2.12329e-06
4.45893e-08
2.08443e-06
3.88558e-08
2.05065e-06
3.37774e-08
2.0213e-06
2.93541e-08
1.99939e-06
2.19106e-08
2.08527e-08
1.97853e-06
3.43196e-06
6.79992e-08
3.43688e-06
1.00705e-07
3.43579e-06
1.08596e-07
3.42963e-06
1.14398e-07
3.41783e-06
1.16605e-07
3.4013e-06
1.14217e-07
3.3815e-06
1.09043e-07
3.35954e-06
1.02569e-07
3.33631e-06
9.54626e-08
3.31258e-06
8.80312e-08
3.2889e-06
8.08681e-08
3.26574e-06
7.35457e-08
3.24334e-06
6.69942e-08
3.22211e-06
6.00847e-08
3.20193e-06
5.39569e-08
3.18379e-06
4.74943e-08
3.16579e-06
3.99088e-08
3.51009e-08
3.15154e-06
3.67309e-06
5.74241e-08
3.6812e-06
9.26005e-08
3.68645e-06
1.03345e-07
3.69086e-06
1.09982e-07
3.69444e-06
1.13032e-07
3.69677e-06
1.11882e-07
3.6979e-06
1.07918e-07
3.69792e-06
1.02547e-07
3.69699e-06
9.63885e-08
3.6952e-06
8.98246e-08
3.69283e-06
8.32392e-08
3.68985e-06
7.65188e-08
3.68669e-06
7.0159e-08
3.68316e-06
6.361e-08
3.67976e-06
5.73587e-08
3.67638e-06
5.08787e-08
3.6723e-06
4.39883e-08
3.73164e-08
3.67008e-06
3.93426e-06
4.85518e-08
3.94241e-06
8.44476e-08
3.94829e-06
9.74678e-08
3.95346e-06
1.04809e-07
3.95825e-06
1.08245e-07
3.96247e-06
1.07662e-07
3.96605e-06
1.04339e-07
3.96906e-06
9.95336e-08
3.9716e-06
9.38513e-08
3.97368e-06
8.77498e-08
3.97543e-06
8.14824e-08
3.97683e-06
7.51215e-08
3.97808e-06
6.89057e-08
3.97909e-06
6.26065e-08
3.98005e-06
5.64001e-08
3.98084e-06
5.0089e-08
3.98133e-06
4.34972e-08
3.6936e-08
3.98171e-06
4.21492e-06
4.07632e-08
4.22315e-06
7.62088e-08
4.22945e-06
9.11682e-08
4.23496e-06
9.93046e-08
4.24009e-06
1.03113e-07
4.24477e-06
1.02983e-07
4.24891e-06
1.00199e-07
4.2526e-06
9.58422e-08
4.25589e-06
9.05589e-08
4.25883e-06
8.48163e-08
4.26148e-06
7.88288e-08
4.26386e-06
7.27439e-08
4.26606e-06
6.67016e-08
4.26806e-06
6.0603e-08
4.26993e-06
5.45373e-08
4.2716e-06
4.84162e-08
4.27292e-06
4.21783e-08
3.60855e-08
4.27377e-06
4.51586e-06
3.39886e-08
4.52412e-06
6.79547e-08
4.531e-06
8.42885e-08
4.53694e-06
9.33561e-08
4.54245e-06
9.76116e-08
4.54748e-06
9.7953e-08
4.55199e-06
9.56817e-08
4.55608e-06
9.17532e-08
4.55977e-06
8.68692e-08
4.56312e-06
8.14686e-08
4.56618e-06
7.57698e-08
4.56897e-06
6.99524e-08
4.57155e-06
6.41219e-08
4.57392e-06
5.82332e-08
4.57609e-06
5.23645e-08
4.57803e-06
4.64828e-08
4.57959e-06
4.06117e-08
3.4955e-08
4.58072e-06
4.83849e-06
2.82193e-08
4.84644e-06
6.00046e-08
4.85381e-06
7.69204e-08
4.86045e-06
8.67158e-08
4.86655e-06
9.15125e-08
4.87204e-06
9.24594e-08
4.87698e-06
9.07447e-08
4.88144e-06
8.72908e-08
4.88547e-06
8.28348e-08
4.88916e-06
7.77809e-08
4.89254e-06
7.23927e-08
4.89563e-06
6.68622e-08
4.89847e-06
6.12784e-08
4.90108e-06
5.56256e-08
4.90345e-06
4.99995e-08
4.90554e-06
4.43905e-08
4.90728e-06
3.88743e-08
3.36167e-08
4.90861e-06
5.18446e-06
2.33436e-08
5.19181e-06
5.2653e-08
5.19929e-06
6.94368e-08
5.20653e-06
7.94804e-08
5.21335e-06
8.46863e-08
5.21958e-06
8.62337e-08
5.22516e-06
8.51616e-08
5.23013e-06
8.23226e-08
5.23457e-06
7.83922e-08
5.23862e-06
7.37372e-08
5.2423e-06
6.87065e-08
5.24567e-06
6.34916e-08
5.24877e-06
5.8185e-08
5.25159e-06
5.28023e-08
5.25413e-06
4.7457e-08
5.25638e-06
4.21422e-08
5.25829e-06
3.69695e-08
3.2079e-08
5.25982e-06
5.55543e-06
1.92471e-08
5.5621e-06
4.59892e-08
5.5694e-06
6.21364e-08
5.57689e-06
7.1993e-08
5.58423e-06
7.73375e-08
5.59118e-06
7.92895e-08
5.59755e-06
7.87878e-08
5.60328e-06
7.659e-08
5.6084e-06
7.3273e-08
5.61298e-06
6.91607e-08
5.61707e-06
6.4614e-08
5.62077e-06
5.97905e-08
5.62414e-06
5.48183e-08
5.62718e-06
4.97625e-08
5.62991e-06
4.47252e-08
5.63233e-06
3.97208e-08
5.63442e-06
3.4884e-08
3.0332e-08
5.63617e-06
5.95316e-06
1.58591e-08
5.95918e-06
3.99716e-08
5.96618e-06
5.51429e-08
5.97366e-06
6.45103e-08
5.98125e-06
6.97476e-08
5.98864e-06
7.18979e-08
5.99563e-06
7.17978e-08
6.00211e-06
7.01115e-08
6.00803e-06
6.73475e-08
6.01338e-06
6.38148e-08
6.01816e-06
5.98284e-08
6.02244e-06
5.55169e-08
6.02624e-06
5.10171e-08
6.02958e-06
4.642e-08
6.03255e-06
4.17594e-08
6.03516e-06
3.71077e-08
6.03744e-06
3.26064e-08
2.83667e-08
6.0394e-06
6.37957e-06
1.31002e-08
6.38504e-06
3.45044e-08
6.39169e-06
4.84884e-08
6.39904e-06
5.7167e-08
6.40667e-06
6.21131e-08
6.41427e-06
6.42989e-08
6.42162e-06
6.44479e-08
6.4286e-06
6.31304e-08
6.43515e-06
6.07989e-08
6.44121e-06
5.77558e-08
6.44677e-06
5.42691e-08
6.45181e-06
5.04771e-08
6.45632e-06
4.65046e-08
6.46029e-06
4.24538e-08
6.46372e-06
3.83257e-08
6.46665e-06
3.418e-08
6.46916e-06
3.00895e-08
2.61773e-08
6.47135e-06
5.74279e-06
1.11456e-08
5.74707e-06
3.02219e-08
5.75244e-06
4.31191e-08
5.75847e-06
5.11376e-08
5.76486e-06
5.57197e-08
5.77134e-06
5.7823e-08
5.7777e-06
5.80909e-08
5.78382e-06
5.70086e-08
5.78964e-06
5.49722e-08
5.79513e-06
5.22677e-08
5.80027e-06
4.91357e-08
5.80502e-06
4.57225e-08
5.80938e-06
4.21467e-08
5.81332e-06
3.85105e-08
5.81681e-06
3.48407e-08
5.8198e-06
3.11836e-08
5.82233e-06
2.75646e-08
2.4057e-08
5.82445e-06
7.00007e-06
9.2305e-09
7.00466e-06
2.56308e-08
7.01056e-06
3.72189e-08
7.01724e-06
4.44574e-08
7.02444e-06
4.85249e-08
7.03185e-06
5.04117e-08
7.03922e-06
5.07162e-08
7.0464e-06
4.98311e-08
7.0533e-06
4.80763e-08
7.05986e-06
4.57063e-08
7.06606e-06
4.29308e-08
7.07189e-06
3.98932e-08
7.07733e-06
3.67065e-08
7.08237e-06
3.34683e-08
7.08698e-06
3.02372e-08
7.0911e-06
2.70655e-08
7.09468e-06
2.39825e-08
2.10236e-08
7.09771e-06
8.53272e-06
7.35765e-09
8.53757e-06
2.07758e-08
8.54408e-06
3.07132e-08
8.55144e-06
3.7101e-08
8.55942e-06
4.05467e-08
8.56777e-06
4.20558e-08
8.57621e-06
4.22786e-08
8.58452e-06
4.15246e-08
8.59256e-06
4.00272e-08
8.60028e-06
3.79907e-08
8.60762e-06
3.55873e-08
8.61457e-06
3.29446e-08
8.62111e-06
3.0164e-08
8.62725e-06
2.73302e-08
8.63298e-06
2.45102e-08
8.63828e-06
2.17679e-08
8.64311e-06
1.91529e-08
1.67026e-08
8.64743e-06
1.04011e-05
5.51151e-09
1.04061e-05
1.57283e-08
1.04132e-05
2.35868e-08
1.04215e-05
2.88726e-08
1.04303e-05
3.16945e-08
1.04396e-05
3.27395e-08
1.04492e-05
3.2741e-08
1.04587e-05
3.20195e-08
1.0468e-05
3.07288e-08
1.0477e-05
2.90096e-08
1.04856e-05
2.69905e-08
1.04937e-05
2.47735e-08
1.05014e-05
2.24403e-08
1.05087e-05
2.00572e-08
1.05156e-05
1.76818e-08
1.05219e-05
1.53726e-08
1.05279e-05
1.31811e-08
1.11549e-08
1.05335e-05
1.26786e-05
3.65599e-09
1.26839e-05
1.04975e-08
1.26916e-05
1.58881e-08
1.27008e-05
1.96284e-08
1.27108e-05
2.16858e-08
1.27213e-05
2.22717e-08
1.27321e-05
2.19832e-08
1.27429e-05
2.12017e-08
1.27535e-05
2.0053e-08
1.27639e-05
1.86185e-08
1.27739e-05
1.69799e-08
1.27835e-05
1.5208e-08
1.27926e-05
1.33602e-08
1.28012e-05
1.1483e-08
1.28092e-05
9.61814e-09
1.28168e-05
7.80775e-09
1.28239e-05
6.08907e-09
4.49851e-09
1.28305e-05
1.54551e-05
1.7293e-09
1.54606e-05
4.9954e-09
1.54689e-05
7.5674e-09
1.54792e-05
9.30983e-09
1.54907e-05
1.02022e-08
1.55028e-05
1.02479e-08
1.55151e-05
9.65625e-09
1.55275e-05
8.78642e-09
1.55398e-05
7.74892e-09
1.55518e-05
6.58066e-09
1.55635e-05
5.32074e-09
1.55747e-05
4.00841e-09
1.55854e-05
2.67626e-09
1.55955e-05
1.35111e-09
1.56051e-05
5.65049e-11
1.56141e-05
-1.18644e-09
1.56225e-05
-2.36339e-09
-3.45635e-09
1.56305e-05
1.88397e-05
-3.72251e-10
1.88458e-05
-1.03051e-09
1.8855e-05
-1.67382e-09
1.88667e-05
-2.35135e-09
1.888e-05
-3.0908e-09
1.88941e-05
-3.91601e-09
1.89086e-05
-4.83904e-09
1.89232e-05
-5.76598e-09
1.89376e-05
-6.67579e-09
1.89517e-05
-7.55905e-09
1.89655e-05
-8.40889e-09
1.89787e-05
-9.21793e-09
1.89913e-05
-9.98049e-09
1.90034e-05
-1.06938e-08
1.90148e-05
-1.13583e-08
1.90256e-05
-1.19766e-08
1.90358e-05
-1.25453e-08
-1.30333e-08
1.90454e-05
2.29658e-05
-2.84983e-09
2.2973e-05
-8.18798e-09
2.2984e-05
-1.26784e-08
2.29979e-05
-1.62763e-08
2.30139e-05
-1.90421e-08
2.3031e-05
-2.10217e-08
2.30485e-05
-2.2353e-08
2.30661e-05
-2.33431e-08
2.30835e-05
-2.40921e-08
2.31005e-05
-2.46275e-08
2.31171e-05
-2.49805e-08
2.31331e-05
-2.51857e-08
2.31484e-05
-2.52749e-08
2.31629e-05
-2.52749e-08
2.31768e-05
-2.52022e-08
2.31899e-05
-2.50551e-08
2.32021e-05
-2.48103e-08
-2.4434e-08
2.32135e-05
1.68127e-05
-4.88822e-09
1.68185e-05
-1.39912e-08
1.68273e-05
-2.14533e-08
1.68382e-05
-2.71769e-08
1.68505e-05
-3.12796e-08
1.68634e-05
-3.39282e-08
1.68766e-05
-3.55596e-08
1.68898e-05
-3.66081e-08
1.6903e-05
-3.72217e-08
1.69158e-05
-3.74678e-08
1.69282e-05
-3.7419e-08
1.69402e-05
-3.71483e-08
1.69516e-05
-3.67072e-08
1.69625e-05
-3.61245e-08
1.69727e-05
-3.54148e-08
1.69822e-05
-3.4548e-08
1.69909e-05
-3.35425e-08
-3.2449e-08
1.69989e-05
1.46367e-05
-7.03353e-09
1.46427e-05
-1.99735e-08
1.46514e-05
-3.01834e-08
1.46619e-05
-3.76327e-08
1.46732e-05
-4.2647e-08
1.46851e-05
-4.57679e-08
1.46972e-05
-4.76774e-08
1.47094e-05
-4.87582e-08
1.47213e-05
-4.91929e-08
1.4733e-05
-4.91126e-08
1.47442e-05
-4.86162e-08
1.47548e-05
-4.78166e-08
1.47649e-05
-4.67708e-08
1.47743e-05
-4.54811e-08
1.47828e-05
-4.40045e-08
1.47907e-05
-4.23747e-08
1.47978e-05
-4.06831e-08
-3.9024e-08
1.48044e-05
1.27426e-05
-9.5022e-09
1.27491e-05
-2.64696e-08
1.2758e-05
-3.90639e-08
1.27681e-05
-4.77335e-08
1.27788e-05
-5.33742e-08
1.279e-05
-5.69332e-08
1.28013e-05
-5.90056e-08
1.28125e-05
-5.99532e-08
1.28234e-05
-6.00631e-08
1.28338e-05
-5.95223e-08
1.28436e-05
-5.84141e-08
1.28527e-05
-5.69058e-08
1.2861e-05
-5.51043e-08
1.28686e-05
-5.30539e-08
1.28754e-05
-5.08688e-08
1.28817e-05
-4.86804e-08
1.28876e-05
-4.65231e-08
-4.44338e-08
1.2893e-05
1.1094e-05
-1.25984e-08
1.11012e-05
-3.36761e-08
1.11103e-05
-4.80964e-08
1.11201e-05
-5.75319e-08
1.11303e-05
-6.36487e-08
1.11408e-05
-6.74407e-08
1.11512e-05
-6.93818e-08
1.11612e-05
-6.9942e-08
1.11706e-05
-6.94794e-08
1.11794e-05
-6.82668e-08
1.11874e-05
-6.64534e-08
1.11947e-05
-6.42182e-08
1.12014e-05
-6.17408e-08
1.12075e-05
-5.9165e-08
1.12131e-05
-5.65315e-08
1.12184e-05
-5.3929e-08
1.12232e-05
-5.13875e-08
-4.89328e-08
1.12277e-05
9.6594e-06
-1.67844e-08
9.66737e-06
-4.16453e-08
9.67644e-06
-5.71625e-08
9.68584e-06
-6.69334e-08
9.69534e-06
-7.31533e-08
9.70468e-06
-7.67796e-08
9.71364e-06
-7.83398e-08
9.72206e-06
-7.83618e-08
9.72981e-06
-7.72323e-08
9.73689e-06
-7.53412e-08
9.74341e-06
-7.29774e-08
9.74944e-06
-7.02529e-08
9.75501e-06
-6.73092e-08
9.76015e-06
-6.43066e-08
9.76492e-06
-6.12933e-08
9.76932e-06
-5.83333e-08
9.77339e-06
-5.54582e-08
-5.26894e-08
9.77715e-06
8.41087e-06
-2.23051e-08
8.41957e-06
-5.03458e-08
8.42827e-06
-6.58621e-08
8.43677e-06
-7.54259e-08
8.44505e-06
-8.14399e-08
8.45296e-06
-8.46914e-08
8.46046e-06
-8.58311e-08
8.46746e-06
-8.5368e-08
8.47396e-06
-8.37319e-08
8.47994e-06
-8.13248e-08
8.48546e-06
-7.84895e-08
8.49054e-06
-7.53396e-08
8.49524e-06
-7.201e-08
8.49957e-06
-6.86332e-08
8.50356e-06
-6.52814e-08
8.50723e-06
-6.20059e-08
8.51061e-06
-5.884e-08
-5.58022e-08
8.51373e-06
7.32412e-06
-2.91375e-08
7.33305e-06
-5.92782e-08
7.34097e-06
-7.37864e-08
7.34838e-06
-8.28297e-08
7.35558e-06
-8.86451e-08
7.36243e-06
-9.15415e-08
7.36885e-06
-9.22535e-08
7.3748e-06
-9.13119e-08
7.38031e-06
-8.92406e-08
7.38538e-06
-8.63967e-08
7.39003e-06
-8.31426e-08
7.39429e-06
-7.95964e-08
7.39819e-06
-7.59113e-08
7.40175e-06
-7.21958e-08
7.40501e-06
-6.85346e-08
7.40798e-06
-6.49761e-08
7.41068e-06
-6.15437e-08
-5.82706e-08
7.41315e-06
6.37805e-06
-3.71237e-08
6.38691e-06
-6.8133e-08
6.39411e-06
-8.09889e-08
6.40066e-06
-8.93789e-08
6.40698e-06
-9.49675e-08
6.41296e-06
-9.75216e-08
6.41848e-06
-9.77769e-08
6.4235e-06
-9.63312e-08
6.42806e-06
-9.37959e-08
6.43218e-06
-9.05169e-08
6.43588e-06
-8.68457e-08
6.43918e-06
-8.28986e-08
6.44211e-06
-7.88401e-08
6.44471e-06
-7.47876e-08
6.44698e-06
-7.08045e-08
6.44898e-06
-6.69789e-08
6.45072e-06
-6.32821e-08
-5.97711e-08
6.45222e-06
5.55505e-06
-4.67142e-08
5.56387e-06
-7.69516e-08
5.57025e-06
-8.73666e-08
5.5759e-06
-9.50263e-08
5.58119e-06
-1.00258e-07
5.58595e-06
-1.02284e-07
5.59001e-06
-1.01837e-07
5.59334e-06
-9.96572e-08
5.5959e-06
-9.63547e-08
5.59778e-06
-9.24013e-08
5.59902e-06
-8.80826e-08
5.59965e-06
-8.3534e-08
5.59974e-06
-7.89239e-08
5.59935e-06
-7.43995e-08
5.59852e-06
-6.99763e-08
5.59735e-06
-6.58055e-08
5.59584e-06
-6.17757e-08
-5.80874e-08
5.59416e-06
4.84108e-06
-6.01834e-08
4.84859e-06
-8.44677e-08
4.85177e-06
-9.0544e-08
4.85256e-06
-9.58142e-08
4.85029e-06
-9.79892e-08
4.84468e-06
-9.66787e-08
4.83593e-06
-9.30843e-08
4.8245e-06
-8.8231e-08
4.81082e-06
-8.26679e-08
4.79546e-06
-7.70418e-08
4.77885e-06
-7.14758e-08
4.76139e-06
-6.60738e-08
4.74342e-06
-6.0948e-08
4.72519e-06
-5.61755e-08
4.70693e-06
-5.17117e-08
4.68878e-06
-4.76551e-08
4.67088e-06
-4.38789e-08
-4.05463e-08
4.65334e-06
4.14249e-06
4.05803e-06
3.96748e-06
3.87167e-06
3.77368e-06
3.677e-06
3.58391e-06
3.49568e-06
3.41302e-06
3.33597e-06
3.2645e-06
3.19842e-06
3.13748e-06
3.0813e-06
3.02959e-06
2.98193e-06
2.93806e-06
2.89751e-06
-4.41931e-09
4.41931e-09
-4.62568e-09
2.06367e-10
8.48421e-09
-1.31099e-08
3.83561e-08
-2.98719e-08
8.35032e-08
-4.5147e-08
1.39636e-07
-5.61325e-08
2.02001e-07
-6.23654e-08
2.66722e-07
-6.47204e-08
3.31206e-07
-6.44847e-08
3.93957e-07
-6.27511e-08
4.5424e-07
-6.02828e-08
5.11813e-07
-5.75731e-08
5.66743e-07
-5.49295e-08
6.19236e-07
-5.24931e-08
6.69534e-07
-5.02984e-08
7.1787e-07
-4.83354e-08
7.64423e-07
-4.6553e-08
8.09308e-07
-4.48853e-08
8.5258e-07
-4.32722e-08
8.94236e-07
-4.16562e-08
9.3422e-07
-3.99841e-08
9.7243e-07
-3.82093e-08
1.00872e-06
-3.62929e-08
1.04292e-06
-3.42016e-08
1.07483e-06
-3.19072e-08
1.10421e-06
-2.93829e-08
1.13082e-06
-2.6601e-08
1.15435e-06
-2.35322e-08
1.17449e-06
-2.01388e-08
1.19086e-06
-1.63774e-08
1.20307e-06
-1.22059e-08
1.21061e-06
-7.53771e-09
1.213e-06
-2.3961e-09
1.20936e-06
3.64091e-09
1.1986e-06
1.07586e-08
1.17981e-06
1.87951e-08
1.1518e-06
2.8007e-08
1.11311e-06
3.86943e-08
1.06193e-06
5.11804e-08
9.96168e-07
6.57589e-08
9.13535e-07
8.26329e-08
8.11734e-07
1.01801e-07
6.88994e-07
1.2274e-07
5.44889e-07
1.44105e-07
3.81601e-07
1.63288e-07
2.0591e-07
1.75692e-07
3.32651e-08
1.72645e-07
-1.02845e-07
1.3611e-07
-1.68424e-07
6.55791e-08
-1.99052e-07
3.06281e-08
-2.96979e-07
9.79272e-08
-4.65064e-07
1.68084e-07
-5.91084e-07
1.26021e-07
-5.98014e-07
6.92922e-09
-4.91388e-07
-1.06625e-07
-2.88269e-07
-2.0312e-07
-3.4817e-08
-2.53452e-07
1.99989e-07
-2.34806e-07
3.72244e-07
-1.72255e-07
4.62704e-07
-9.04599e-08
4.71541e-07
-8.83662e-09
4.06398e-07
6.51428e-08
2.88929e-07
1.17468e-07
1.52701e-07
1.36228e-07
3.77739e-08
1.14927e-07
-2.2834e-08
6.06079e-08
-2.97125e-08
6.87844e-09
-6.53964e-08
3.56839e-08
-1.98651e-07
1.33255e-07
-4.54084e-07
2.55433e-07
-7.923e-07
3.38216e-07
-1.08626e-06
2.93964e-07
-1.33497e-06
2.48711e-07
-1.54843e-06
2.13452e-07
-1.72245e-06
1.74019e-07
-1.86747e-06
1.45023e-07
-1.98635e-06
1.18882e-07
-2.08533e-06
9.89755e-08
-2.16854e-06
8.3213e-08
-2.23964e-06
7.11018e-08
-2.30166e-06
6.20244e-08
-2.35684e-06
5.51717e-08
-2.40703e-06
5.01921e-08
-2.45361e-06
4.6582e-08
-2.49765e-06
4.40406e-08
-2.54e-06
4.23491e-08
-2.58124e-06
4.12423e-08
-2.62184e-06
4.05964e-08
-2.66208e-06
4.02406e-08
-2.70213e-06
4.00538e-08
-2.74208e-06
3.99444e-08
-2.78188e-06
3.98062e-08
-2.82148e-06
3.95914e-08
-2.86072e-06
3.92414e-08
-2.89945e-06
3.87356e-08
-2.93752e-06
3.80694e-08
-2.97477e-06
3.72501e-08
-3.01107e-06
3.63014e-08
-3.04632e-06
3.52501e-08
-3.08045e-06
3.41224e-08
-3.11339e-06
3.29462e-08
-3.14513e-06
3.17376e-08
-3.17564e-06
3.05141e-08
-3.20493e-06
2.92837e-08
-3.23297e-06
2.80471e-08
-3.25978e-06
2.6807e-08
-3.28534e-06
2.55593e-08
-3.30964e-06
2.43018e-08
-3.33267e-06
2.30294e-08
-3.35441e-06
2.17405e-08
-3.37485e-06
2.04334e-08
-3.39395e-06
1.91065e-08
-3.41171e-06
1.77591e-08
-3.4281e-06
1.63889e-08
-3.4431e-06
1.49957e-08
-3.45668e-06
1.35798e-08
-3.46882e-06
1.21403e-08
-3.47949e-06
1.06749e-08
-3.48867e-06
9.17874e-09
-3.49631e-06
7.64351e-09
-3.50236e-06
6.0491e-09
-3.50675e-06
4.38509e-09
-3.50942e-06
2.67146e-09
-3.51011e-06
6.92627e-10
-3.50891e-06
-1.20578e-09
-3.50573e-06
-3.17143e-09
-3.50038e-06
-5.3526e-09
-3.49267e-06
-7.71017e-09
-3.48236e-06
-1.03119e-08
-3.46918e-06
-1.31778e-08
-3.45283e-06
-1.63497e-08
-3.43297e-06
-1.9863e-08
-3.40922e-06
-2.37496e-08
-3.38118e-06
-2.80433e-08
-3.34841e-06
-3.27691e-08
-3.31045e-06
-3.79546e-08
-3.26683e-06
-4.3619e-08
-3.21707e-06
-4.97664e-08
-3.16067e-06
-5.63966e-08
-3.09709e-06
-6.35821e-08
-3.02565e-06
-7.14366e-08
-2.94579e-06
-7.98592e-08
-2.857e-06
-8.87928e-08
-2.7587e-06
-9.82959e-08
-2.65035e-06
-1.08354e-07
-2.53138e-06
-1.18967e-07
-2.40128e-06
-1.30106e-07
-2.25956e-06
-1.4172e-07
-2.10579e-06
-1.53763e-07
-1.93966e-06
-1.66132e-07
-1.76095e-06
-1.78714e-07
-1.56956e-06
-1.9139e-07
-1.36562e-06
-2.03934e-07
-1.14953e-06
-2.16091e-07
-9.21979e-07
-2.27553e-07
-6.8411e-07
-2.3787e-07
-4.37431e-07
-2.46678e-07
-1.83692e-07
-2.53739e-07
7.50607e-08
-2.58753e-07
3.36696e-07
-2.61635e-07
5.99076e-07
-2.6238e-07
8.60128e-07
-2.61052e-07
1.11805e-06
-2.57922e-07
1.37092e-06
-2.52873e-07
1.61782e-06
-2.46897e-07
1.85714e-06
-2.39315e-07
2.08807e-06
-2.30939e-07
2.30899e-06
-2.20919e-07
2.5192e-06
-2.10206e-07
2.71817e-06
-1.98971e-07
2.90512e-06
-1.86945e-07
3.0793e-06
-1.74186e-07
3.23912e-06
-1.5982e-07
3.38446e-06
-1.45334e-07
3.51126e-06
-1.26807e-07
3.62135e-06
-1.10088e-07
3.70203e-06
-8.06768e-08
3.75859e-06
-5.65614e-08
3.73016e-06
2.8432e-08
1.31548e-07
3.59861e-06
1.11455e-08
-6.72615e-09
4.68971e-08
-3.55453e-08
9.95626e-08
-6.57754e-08
1.60283e-07
-9.05925e-08
2.21229e-07
-1.06093e-07
2.77846e-07
-1.12749e-07
3.2897e-07
-1.1349e-07
3.75136e-07
-1.10886e-07
4.17457e-07
-1.06806e-07
4.57224e-07
-1.02518e-07
4.95549e-07
-9.86077e-08
5.33231e-07
-9.5255e-08
5.70743e-07
-9.2442e-08
6.08314e-07
-9.00633e-08
6.46017e-07
-8.80014e-08
6.83804e-07
-8.61225e-08
7.21544e-07
-8.42932e-08
7.59054e-07
-8.23958e-08
7.96114e-07
-8.03319e-08
8.32481e-07
-7.80226e-08
8.67901e-07
-7.54047e-08
9.02119e-07
-7.24269e-08
9.34873e-07
-6.9047e-08
9.65901e-07
-6.52298e-08
9.94938e-07
-6.09441e-08
1.02171e-06
-5.61556e-08
1.04593e-06
-5.08245e-08
1.06731e-06
-4.49081e-08
1.08553e-06
-3.83543e-08
1.10025e-06
-3.11059e-08
1.11115e-06
-2.31003e-08
1.11787e-06
-1.42548e-08
1.11998e-06
-4.51411e-09
1.11735e-06
6.27212e-09
1.10982e-06
1.82899e-08
1.09687e-06
3.17447e-08
1.07798e-06
4.69025e-08
1.0525e-06
6.41657e-08
1.01965e-06
8.40346e-08
9.78345e-07
1.07064e-07
9.27141e-07
1.33837e-07
8.64167e-07
1.64775e-07
7.87079e-07
1.99828e-07
6.93388e-07
2.37796e-07
5.80955e-07
2.75721e-07
4.48792e-07
3.07855e-07
2.97063e-07
3.24374e-07
1.25048e-07
3.08125e-07
-4.92133e-08
2.39841e-07
-1.77049e-07
1.58464e-07
-2.5147e-07
1.72348e-07
-3.12063e-07
2.28677e-07
-3.38573e-07
1.52531e-07
-2.98787e-07
-3.28567e-08
-1.75307e-07
-2.30105e-07
1.35367e-08
-3.91964e-07
2.04443e-07
-4.44358e-07
3.55579e-07
-3.85942e-07
4.44013e-07
-2.60689e-07
4.6362e-07
-1.10067e-07
4.20204e-07
3.45794e-08
3.29051e-07
1.56295e-07
2.02531e-07
2.43988e-07
5.58695e-08
2.8289e-07
-8.03904e-08
2.51187e-07
-2.12681e-07
1.92899e-07
-4.33835e-07
2.28033e-07
-7.70325e-07
3.72174e-07
-1.1305e-06
4.9343e-07
-1.39497e-06
5.19905e-07
-1.56897e-06
5.12213e-07
-1.72749e-06
4.52483e-07
-1.86687e-06
3.8809e-07
-1.98235e-06
3.28931e-07
-2.08142e-06
2.73089e-07
-2.16546e-06
2.29065e-07
-2.23857e-06
1.91997e-07
-2.30298e-06
1.63384e-07
-2.36063e-06
1.40857e-07
-2.4131e-06
1.23572e-07
-2.46144e-06
1.10371e-07
-2.50651e-06
1.00241e-07
-2.54888e-06
9.25562e-08
-2.58897e-06
8.66719e-08
-2.62707e-06
8.21475e-08
-2.66338e-06
7.86551e-08
-2.69802e-06
7.58877e-08
-2.73109e-06
7.36665e-08
-2.76267e-06
7.1813e-08
-2.79281e-06
7.01938e-08
-2.82158e-06
6.87225e-08
-2.84908e-06
6.73044e-08
-2.87539e-06
6.58964e-08
-2.9006e-06
6.44516e-08
-2.92481e-06
6.29465e-08
-2.94812e-06
6.13826e-08
-2.97063e-06
5.97564e-08
-2.99241e-06
5.80788e-08
-3.01351e-06
5.63591e-08
-3.034e-06
5.4606e-08
-3.05388e-06
5.28286e-08
-3.07317e-06
5.10268e-08
-3.09186e-06
4.92018e-08
-3.10992e-06
4.73477e-08
-3.12733e-06
4.54564e-08
-3.14405e-06
4.35223e-08
-3.16002e-06
4.15372e-08
-3.17522e-06
3.94951e-08
-3.18958e-06
3.73895e-08
-3.20305e-06
3.52175e-08
-3.2156e-06
3.29771e-08
-3.22716e-06
3.06672e-08
-3.23769e-06
2.82888e-08
-3.24714e-06
2.58412e-08
-3.25547e-06
2.33247e-08
-3.26263e-06
2.07406e-08
-3.26858e-06
1.80873e-08
-3.27326e-06
1.53588e-08
-3.27663e-06
1.25469e-08
-3.27863e-06
9.6395e-09
-3.27919e-06
6.61618e-09
-3.27825e-06
3.4464e-09
-3.27586e-06
2.76837e-10
-3.27177e-06
-3.39896e-09
-3.26585e-06
-7.11919e-09
-3.25791e-06
-1.11196e-08
-3.24777e-06
-1.54881e-08
-3.23523e-06
-2.02476e-08
-3.22007e-06
-2.54792e-08
-3.20201e-06
-3.1237e-08
-3.18076e-06
-3.75971e-08
-3.156e-06
-4.46266e-08
-3.12735e-06
-5.23934e-08
-3.09443e-06
-6.09628e-08
-3.05681e-06
-7.03892e-08
-3.01404e-06
-8.07317e-08
-2.96562e-06
-9.20321e-08
-2.91106e-06
-1.04327e-07
-2.84981e-06
-1.17647e-07
-2.78135e-06
-1.32049e-07
-2.7052e-06
-1.47585e-07
-2.62083e-06
-1.64229e-07
-2.52765e-06
-1.81972e-07
-2.42511e-06
-2.00837e-07
-2.31265e-06
-2.20812e-07
-2.18973e-06
-2.41887e-07
-2.05583e-06
-2.64009e-07
-1.91048e-06
-2.87065e-07
-1.75329e-06
-3.10959e-07
-1.58393e-06
-3.35483e-07
-1.40225e-06
-3.60398e-07
-1.20815e-06
-3.85487e-07
-1.00178e-06
-4.10307e-07
-7.83512e-07
-4.3436e-07
-5.54014e-07
-4.57052e-07
-3.14364e-07
-4.77519e-07
-6.60271e-08
-4.95015e-07
1.89358e-07
-5.09125e-07
4.50127e-07
-5.19522e-07
7.14383e-07
-5.25892e-07
9.80076e-07
-5.28073e-07
1.24523e-06
-5.26209e-07
1.50813e-06
-5.20821e-07
1.76724e-06
-5.11976e-07
2.02099e-06
-5.00652e-07
2.26816e-06
-4.86488e-07
2.50764e-06
-4.70411e-07
2.7386e-06
-4.51883e-07
2.96027e-06
-4.31873e-07
3.17175e-06
-4.10451e-07
3.3724e-06
-3.87597e-07
3.56131e-06
-3.63101e-07
3.73763e-06
-3.36134e-07
3.89988e-06
-3.07581e-07
4.04692e-06
-2.73852e-07
4.17573e-06
-2.38899e-07
4.28471e-06
-1.89652e-07
4.36424e-06
-1.36092e-07
4.41939e-06
-2.67259e-08
1.13586e-07
4.43736e-06
2.46525e-08
-3.13786e-08
8.44014e-08
-9.52942e-08
1.48871e-07
-1.30245e-07
2.02882e-07
-1.44603e-07
2.44184e-07
-1.47395e-07
2.76002e-07
-1.44566e-07
3.02671e-07
-1.40159e-07
3.27647e-07
-1.35862e-07
3.5302e-07
-1.32178e-07
3.79745e-07
-1.29244e-07
4.08107e-07
-1.26969e-07
4.38067e-07
-1.25215e-07
4.69434e-07
-1.2381e-07
5.01947e-07
-1.22576e-07
5.35302e-07
-1.21356e-07
5.69181e-07
-1.20001e-07
6.0327e-07
-1.18382e-07
6.37267e-07
-1.16393e-07
6.70886e-07
-1.13951e-07
7.03865e-07
-1.11001e-07
7.35957e-07
-1.07498e-07
7.66927e-07
-1.03396e-07
7.96538e-07
-9.86578e-08
8.24556e-07
-9.32478e-08
8.50746e-07
-8.71347e-08
8.74864e-07
-8.02735e-08
8.96648e-07
-7.2608e-08
9.15818e-07
-6.40787e-08
9.32075e-07
-5.46112e-08
9.45091e-07
-4.41217e-08
9.54508e-07
-3.25175e-08
9.59956e-07
-1.9703e-08
9.61063e-07
-5.6204e-09
9.57483e-07
9.85192e-09
9.48917e-07
2.68555e-08
9.35152e-07
4.55096e-08
9.16022e-07
6.60327e-08
8.9145e-07
8.87379e-08
8.61425e-07
1.1406e-07
8.25968e-07
1.4252e-07
7.85072e-07
1.74734e-07
7.38559e-07
2.11288e-07
6.85919e-07
2.52468e-07
6.25955e-07
2.97759e-07
5.5647e-07
3.45206e-07
4.73924e-07
3.90401e-07
3.73196e-07
4.25101e-07
2.46983e-07
4.34338e-07
9.48232e-08
3.92001e-07
-4.00528e-08
2.9334e-07
-8.57179e-08
2.18013e-07
-6.57956e-08
2.08755e-07
-3.34449e-08
1.20181e-07
3.02935e-08
-9.65951e-08
1.46272e-07
-3.46084e-07
2.72473e-07
-5.18164e-07
3.61086e-07
-5.32972e-07
3.99892e-07
-4.24747e-07
3.83995e-07
-2.44792e-07
3.15902e-07
-4.19739e-08
2.02309e-07
1.48173e-07
5.84298e-08
3.00174e-07
-9.99406e-08
4.02359e-07
-2.58202e-07
4.41152e-07
-4.36241e-07
4.29226e-07
-7.0441e-07
4.61068e-07
-1.05465e-06
5.7827e-07
-1.34519e-06
6.6272e-07
-1.52257e-06
6.70802e-07
-1.63972e-06
6.37064e-07
-1.71107e-06
5.83558e-07
-1.77057e-06
5.11987e-07
-1.82594e-06
4.4346e-07
-1.87787e-06
3.80855e-07
-1.92924e-06
3.24459e-07
-1.97821e-06
2.78036e-07
-2.0255e-06
2.39284e-07
-2.07049e-06
2.08381e-07
-2.11341e-06
1.83776e-07
-2.15431e-06
1.6447e-07
-2.19336e-06
1.49419e-07
-2.23081e-06
1.3769e-07
-2.26684e-06
1.28591e-07
-2.30164e-06
1.21468e-07
-2.33534e-06
1.15849e-07
-2.36805e-06
1.11365e-07
-2.39985e-06
1.07685e-07
-2.43078e-06
1.04601e-07
-2.46088e-06
1.01914e-07
-2.49018e-06
9.94857e-08
-2.51867e-06
9.72206e-08
-2.5464e-06
9.50259e-08
-2.57336e-06
9.28586e-08
-2.59958e-06
9.06731e-08
-2.62508e-06
8.84479e-08
-2.64988e-06
8.61803e-08
-2.67398e-06
8.38598e-08
-2.69739e-06
8.14914e-08
-2.72011e-06
7.90759e-08
-2.74212e-06
7.66151e-08
-2.7634e-06
7.41102e-08
-2.78393e-06
7.15553e-08
-2.80368e-06
6.89474e-08
-2.8226e-06
6.62769e-08
-2.84068e-06
6.3534e-08
-2.85787e-06
6.07105e-08
-2.87413e-06
5.77971e-08
-2.88942e-06
5.47871e-08
-2.90371e-06
5.1675e-08
-2.91695e-06
4.84593e-08
-2.92911e-06
4.51396e-08
-2.94016e-06
4.17166e-08
-2.95007e-06
3.81928e-08
-2.95879e-06
3.45675e-08
-2.96631e-06
3.084e-08
-2.97258e-06
2.701e-08
-2.97756e-06
2.30716e-08
-2.98122e-06
1.90147e-08
-2.9835e-06
1.48265e-08
-2.98435e-06
1.04885e-08
-2.9837e-06
5.97517e-09
-2.98152e-06
1.25887e-09
-2.97758e-06
-3.66292e-09
-2.97201e-06
-8.96261e-09
-2.96455e-06
-1.45863e-08
-2.95503e-06
-2.06344e-08
-2.94332e-06
-2.72007e-08
-2.92921e-06
-3.43572e-08
-2.91248e-06
-4.22072e-08
-2.89288e-06
-5.08397e-08
-2.87011e-06
-6.03613e-08
-2.84387e-06
-7.08729e-08
-2.81378e-06
-8.24767e-08
-2.77948e-06
-9.52712e-08
-2.74052e-06
-1.09342e-07
-2.69648e-06
-1.24776e-07
-2.64687e-06
-1.41638e-07
-2.59122e-06
-1.59984e-07
-2.529e-06
-1.79861e-07
-2.45973e-06
-2.0132e-07
-2.38291e-06
-2.24409e-07
-2.29799e-06
-2.49143e-07
-2.20443e-06
-2.7554e-07
-2.10165e-06
-3.03617e-07
-1.9891e-06
-3.33355e-07
-1.86625e-06
-3.64735e-07
-1.73258e-06
-3.97688e-07
-1.58761e-06
-4.32034e-07
-1.43095e-06
-4.67617e-07
-1.2623e-06
-5.04133e-07
-1.08148e-06
-5.41214e-07
-8.88441e-07
-5.78528e-07
-6.83369e-07
-6.1538e-07
-4.66691e-07
-6.51038e-07
-2.39002e-07
-6.84741e-07
-1.31189e-09
-7.15209e-07
2.44922e-07
-7.41249e-07
4.98126e-07
-7.62329e-07
7.56619e-07
-7.78014e-07
1.01851e-06
-7.8778e-07
1.28182e-06
-7.91385e-07
1.54474e-06
-7.89127e-07
1.80561e-06
-7.81698e-07
2.06296e-06
-7.69325e-07
2.315e-06
-7.52687e-07
2.56068e-06
-7.32167e-07
2.7988e-06
-7.08532e-07
3.02876e-06
-6.81849e-07
3.24968e-06
-6.52794e-07
3.46088e-06
-6.21642e-07
3.66147e-06
-5.88192e-07
3.85073e-06
-5.52364e-07
4.02772e-06
-5.13125e-07
4.19117e-06
-4.71024e-07
4.34008e-06
-4.2277e-07
4.47188e-06
-3.70694e-07
4.58608e-06
-3.03851e-07
4.67706e-06
-2.27076e-07
4.75342e-06
-1.03082e-07
5.6467e-08
4.81054e-06
5.026e-08
-8.16386e-08
1.0688e-07
-1.51915e-07
1.43289e-07
-1.66654e-07
1.64142e-07
-1.65456e-07
1.78001e-07
-1.61254e-07
1.90554e-07
-1.5712e-07
2.04186e-07
-1.53791e-07
2.19766e-07
-1.51442e-07
2.37601e-07
-1.50013e-07
2.57663e-07
-1.49305e-07
2.79745e-07
-1.49051e-07
3.03581e-07
-1.49051e-07
3.28877e-07
-1.49105e-07
3.55337e-07
-1.49037e-07
3.82692e-07
-1.48711e-07
4.10696e-07
-1.48006e-07
4.39116e-07
-1.46802e-07
4.67719e-07
-1.44995e-07
4.96276e-07
-1.42508e-07
5.24576e-07
-1.39302e-07
5.52419e-07
-1.35341e-07
5.79601e-07
-1.30578e-07
6.05912e-07
-1.24968e-07
6.31143e-07
-1.18479e-07
6.55088e-07
-1.11079e-07
6.77522e-07
-1.02708e-07
6.98197e-07
-9.3283e-08
7.16829e-07
-8.27113e-08
7.33105e-07
-7.08866e-08
7.46676e-07
-5.76929e-08
7.5716e-07
-4.30012e-08
7.64152e-07
-2.66952e-08
7.67229e-07
-8.69752e-09
7.66002e-07
1.1079e-08
7.60142e-07
3.27158e-08
7.49402e-07
5.62495e-08
7.33627e-07
8.18076e-08
7.12793e-07
1.09571e-07
6.87048e-07
1.39806e-07
6.56706e-07
1.72862e-07
6.22252e-07
2.09188e-07
5.84242e-07
2.49297e-07
5.43154e-07
2.93557e-07
4.99065e-07
3.41848e-07
4.51307e-07
3.92964e-07
3.97963e-07
4.43745e-07
3.35335e-07
4.87729e-07
2.57132e-07
5.12542e-07
1.55858e-07
4.93274e-07
4.78727e-08
4.01325e-07
-2.57085e-09
2.68456e-07
3.79412e-08
1.68243e-07
1.11076e-07
4.70455e-08
1.98779e-07
-1.84298e-07
2.95417e-07
-4.42722e-07
3.38021e-07
-5.60768e-07
3.22461e-07
-5.17412e-07
2.56201e-07
-3.58487e-07
1.43052e-07
-1.31644e-07
-7.30633e-09
1.08385e-07
-1.76352e-07
3.17219e-07
-3.44642e-07
4.68464e-07
-5.02686e-07
5.60404e-07
-6.71784e-07
6.10249e-07
-9.04371e-07
6.61813e-07
-1.18839e-06
7.45085e-07
-1.41126e-06
8.01145e-07
-1.53242e-06
7.83878e-07
-1.59166e-06
7.30036e-07
-1.62461e-06
6.70022e-07
-1.64505e-06
6.03999e-07
-1.66735e-06
5.34279e-07
-1.69291e-06
4.69028e-07
-1.72171e-06
4.09655e-07
-1.75403e-06
3.56769e-07
-1.78783e-06
3.11841e-07
-1.82258e-06
2.74039e-07
-1.85725e-06
2.43044e-07
-1.8914e-06
2.17925e-07
-1.92476e-06
1.97835e-07
-1.95725e-06
1.81903e-07
-1.98888e-06
1.69323e-07
-2.01972e-06
1.59437e-07
-2.0499e-06
1.51641e-07
-2.07951e-06
1.45458e-07
-2.10864e-06
1.405e-07
-2.13738e-06
1.36428e-07
-2.16578e-06
1.33e-07
-2.19387e-06
1.3e-07
-2.22165e-06
1.27268e-07
-2.24912e-06
1.24686e-07
-2.27624e-06
1.22152e-07
-2.30299e-06
1.19606e-07
-2.32931e-06
1.16997e-07
-2.35516e-06
1.14295e-07
-2.38047e-06
1.11492e-07
-2.40519e-06
1.08576e-07
-2.42925e-06
1.05552e-07
-2.4526e-06
1.0242e-07
-2.47516e-06
9.91845e-08
-2.4969e-06
9.58477e-08
-2.51775e-06
9.24084e-08
-2.53767e-06
8.88661e-08
-2.55661e-06
8.52155e-08
-2.57453e-06
8.14506e-08
-2.59138e-06
7.75661e-08
-2.60714e-06
7.3556e-08
-2.62177e-06
6.94163e-08
-2.63524e-06
6.51441e-08
-2.64752e-06
6.07404e-08
-2.65859e-06
5.62077e-08
-2.66842e-06
5.15492e-08
-2.677e-06
4.6768e-08