/*--------------------------------*- C++ -*----------------------------------*\
| =========                 |                                                 |
| \\      /  F ield         | OpenFOAM: The Open Source CFD Toolbox           |
|  \\    /   O peration     | Version:  2112                                  |
|   \\  /    A nd           | Website:  www.openfoam.com                      |
|    \\/     M anipulation  |                                                 |
\*---------------------------------------------------------------------------*/
FoamFile
{
    version     2.0;
    format      ascii;
    arch        "LSB;label=32;scalar=64";
    class       volVectorField;
    location    "0.38";
    object      U_0;
}
// * * * * * * * * * * * * * * * * * * * * * * * * * * * * * * * * * * * * * //

dimensions      [0 1 -1 0 0 0 0];

internalField   nonuniform List<vector> 
12225
(
(9.77665 0.0418008 0)
(9.39806 0.0775779 0)
(9.08265 0.0569259 0)
(8.91218 0.0526861 0)
(8.7004 0.0579358 0)
(8.39612 0.0516053 0)
(8.08713 0.0390294 0)
(7.81877 0.0397319 0)
(7.54785 0.059484 0)
(7.23541 0.0836551 0)
(6.87148 0.09158 0)
(6.52591 0.0814601 0)
(6.19585 0.0627904 0)
(5.94326 0.0484143 0)
(5.68067 0.0508184 0)
(5.43588 0.0625127 0)
(5.13685 0.0907415 0)
(4.69315 0.132302 0)
(10.0508 -0.0223389 0)
(10.0386 0.0898998 0)
(9.9651 0.0501973 0)
(9.91825 0.029771 0)
(9.90628 0.0586286 0)
(9.90204 0.0942472 0)
(9.88862 0.108211 0)
(9.86553 0.104555 0)
(9.83632 0.101225 0)
(9.81141 0.109025 0)
(9.77703 0.120469 0)
(9.73404 0.12624 0)
(9.66305 0.126209 0)
(9.58309 0.122437 0)
(9.47881 0.128725 0)
(9.36294 0.141959 0)
(9.2224 0.184288 0)
(9.03574 0.239329 0)
(9.91984 0.0104483 0)
(10.0043 0.0791823 0)
(10.0452 0.0761298 0)
(10.0457 0.074253 0)
(10.0524 0.0720035 0)
(10.0738 0.0625073 0)
(10.102 0.0526045 0)
(10.1185 0.0539297 0)
(10.1143 0.0721425 0)
(10.0984 0.101252 0)
(10.079 0.124252 0)
(10.0551 0.132437 0)
(10.0218 0.130509 0)
(9.97883 0.126009 0)
(9.93254 0.135044 0)
(9.88266 0.160905 0)
(9.83407 0.212737 0)
(9.78029 0.286501 0)
(10.0441 0.0596396 0)
(9.98018 0.072511 0)
(9.96465 0.0496041 0)
(9.99475 0.0288834 0)
(10.0233 0.0426522 0)
(10.0256 0.0700136 0)
(10.0092 0.0890584 0)
(9.98435 0.098784 0)
(9.96462 0.108239 0)
(9.95799 0.121217 0)
(9.9591 0.132601 0)
(9.95368 0.138466 0)
(9.9307 0.142158 0)
(9.88644 0.148064 0)
(9.82793 0.164158 0)
(9.7671 0.193626 0)
(9.71533 0.242374 0)
(9.68338 0.31421 0)
(9.90878 0.0298677 0)
(9.89114 0.0543686 0)
(9.88956 0.0641698 0)
(9.93255 0.0655554 0)
(9.97838 0.0677081 0)
(9.99754 0.0714464 0)
(9.977 0.0746529 0)
(9.9281 0.0779722 0)
(9.88124 0.0875724 0)
(9.86679 0.1064 0)
(9.8887 0.129688 0)
(9.92484 0.150305 0)
(9.94918 0.166812 0)
(9.94844 0.180636 0)
(9.92089 0.197305 0)
(9.87553 0.22294 0)
(9.82298 0.260659 0)
(9.77601 0.31898 0)
(9.99214 0.0980283 0)
(9.84949 0.0828952 0)
(9.83868 0.0406286 0)
(9.96039 0.00876843 0)
(10.069 0.0197382 0)
(10.1043 0.0626156 0)
(10.0849 0.103923 0)
(10.027 0.123457 0)
(9.95982 0.121814 0)
(9.9146 0.111334 0)
(9.9048 0.104528 0)
(9.92497 0.108637 0)
(9.95492 0.126321 0)
(9.97749 0.155508 0)
(9.98077 0.19261 0)
(9.96447 0.236674 0)
(9.92843 0.287627 0)
(9.88013 0.35033 0)
(9.81586 0.0254484 0)
(9.92332 0.0684414 0)
(10.016 0.0225586 0)
(10.0546 -0.00334953 0)
(10.0396 0.0195823 0)
(10.0183 0.0673591 0)
(10.0082 0.110443 0)
(9.99865 0.133416 0)
(9.97662 0.137892 0)
(9.94319 0.133524 0)
(9.91046 0.129564 0)
(9.89238 0.132626 0)
(9.89407 0.145941 0)
(9.91121 0.170146 0)
(9.93034 0.204823 0)
(9.94184 0.250344 0)
(9.93955 0.306894 0)
(9.92239 0.373898 0)
(9.89981 0.0740513 0)
(10.047 0.0257564 0)
(10.1128 -0.00563463 0)
(10.0632 0.00863952 0)
(10.0054 0.0367297 0)
(9.98196 0.0715759 0)
(9.98668 0.105534 0)
(9.99758 0.129459 0)
(9.9924 0.140827 0)
(9.96347 0.139633 0)
(9.92183 0.128501 0)
(9.88418 0.117005 0)
(9.86014 0.11782 0)
(9.84724 0.138319 0)
(9.84016 0.178059 0)
(9.83519 0.233929 0)
(9.82756 0.302376 0)
(9.8225 0.382064 0)
(9.78757 0.0113404 0)
(9.88131 -0.0257377 0)
(9.99906 0.00757275 0)
(10.0714 0.0369023 0)
(10.0786 0.0502534 0)
(10.0623 0.0746489 0)
(10.0554 0.107942 0)
(10.0568 0.136614 0)
(10.0598 0.155985 0)
(10.0588 0.165298 0)
(10.0391 0.165629 0)
(9.98798 0.162831 0)
(9.91329 0.165993 0)
(9.83707 0.182578 0)
(9.77548 0.214094 0)
(9.73448 0.261017 0)
(9.71401 0.317834 0)
(9.71549 0.384378 0)
(10.0005 0.085197 0)
(9.9585 -0.0505964 0)
(9.99124 -0.0807138 0)
(10.0319 -0.0150032 0)
(10.006 0.0448956 0)
(9.95175 0.0804656 0)
(9.91584 0.102333 0)
(9.90461 0.118956 0)
(9.90731 0.135041 0)
(9.91017 0.152547 0)
(9.90812 0.17279 0)
(9.90645 0.193749 0)
(9.90826 0.21101 0)
(9.91274 0.225679 0)
(9.91519 0.244957 0)
(9.91547 0.274489 0)
(9.91671 0.315712 0)
(9.91626 0.368258 0)
(9.79439 0.0893331 0)
(9.80649 -0.0449768 0)
(9.77778 -0.034336 0)
(9.76922 0.0246791 0)
(9.82657 0.080399 0)
(9.90709 0.115783 0)
(9.95621 0.135565 0)
(9.96442 0.149486 0)
(9.94872 0.160346 0)
(9.93202 0.164598 0)
(9.93145 0.15971 0)
(9.95123 0.150862 0)
(9.97798 0.150556 0)
(9.99592 0.168362 0)
(9.9991 0.20429 0)
(9.99308 0.252789 0)
(9.97945 0.3091 0)
(9.97209 0.368944 0)
(10.0668 0.0423757 0)
(9.92684 -0.0691788 0)
(9.8863 -0.0604384 0)
(9.87861 -0.0241903 0)
(9.88236 -0.00231497 0)
(9.89102 0.0286146 0)
(9.90544 0.0720591 0)
(9.9247 0.116077 0)
(9.94381 0.146892 0)
(9.95276 0.161112 0)
(9.94331 0.165947 0)
(9.91496 0.172693 0)
(9.87783 0.188278 0)
(9.8458 0.2143 0)
(9.82302 0.2494 0)
(9.81128 0.292643 0)
(9.80262 0.34101 0)
(9.79979 0.392949 0)
(9.98505 0.086032 0)
(9.87447 0.0013759 0)
(9.91439 -0.0182503 0)
(9.93646 0.0214773 0)
(9.91511 0.0683756 0)
(9.87684 0.100612 0)
(9.85187 0.119941 0)
(9.8535 0.136165 0)
(9.8715 0.153776 0)
(9.88958 0.169469 0)
(9.89969 0.180335 0)
(9.90001 0.187099 0)
(9.89314 0.193119 0)
(9.88035 0.205261 0)
(9.86541 0.227925 0)
(9.85004 0.263655 0)
(9.84018 0.309195 0)
(9.83815 0.360726 0)
(10.0002 0.0331539 0)
(10.0126 -0.0942962 0)
(9.98952 -0.105632 0)
(9.90555 -0.0288216 0)
(9.85518 0.0352863 0)
(9.86538 0.0635313 0)
(9.909 0.0775546 0)
(9.94854 0.0947569 0)
(9.96215 0.11434 0)
(9.94892 0.133133 0)
(9.92054 0.152678 0)
(9.89251 0.175381 0)
(9.87302 0.204296 0)
(9.86575 0.24016 0)
(9.86958 0.281163 0)
(9.88085 0.32465 0)
(9.89735 0.365768 0)
(9.91547 0.401902 0)
(10.0773 0.00814265 0)
(10.0071 0.00303107 0)
(9.9148 0.0693284 0)
(9.86839 0.10882 0)
(9.88554 0.0906043 0)
(9.91941 0.0581187 0)
(9.93523 0.0592558 0)
(9.9247 0.105014 0)
(9.89488 0.170542 0)
(9.86165 0.223378 0)
(9.83815 0.245583 0)
(9.82745 0.239092 0)
(9.82757 0.217476 0)
(9.8358 0.198253 0)
(9.84855 0.194934 0)
(9.86568 0.212256 0)
(9.88593 0.246708 0)
(9.912 0.293102 0)
(10.0309 0.0197591 0)
(9.93651 0.0235861 0)
(9.93371 -0.0378114 0)
(9.95236 -0.0286624 0)
(9.96397 -0.00148551 0)
(9.92912 0.0333972 0)
(9.86804 0.0814915 0)
(9.82774 0.128697 0)
(9.83741 0.156234 0)
(9.89849 0.161082 0)
(9.98603 0.157627 0)
(10.0655 0.16346 0)
(10.1107 0.186862 0)
(10.1147 0.22511 0)
(10.0875 0.268457 0)
(10.0467 0.308453 0)
(10.0073 0.339433 0)
(9.98059 0.360903 0)
(9.97241 -0.0098174 0)
(9.97248 0.0591364 0)
(10.0405 0.0374562 0)
(10.0903 0.0766074 0)
(10.0899 0.139888 0)
(10.0711 0.175031 0)
(10.0558 0.171558 0)
(10.0532 0.137084 0)
(10.0596 0.089849 0)
(10.0653 0.0557169 0)
(10.0651 0.0557219 0)
(10.0587 0.0937533 0)
(10.0497 0.157222 0)
(10.0413 0.225146 0)
(10.037 0.278863 0)
(10.0379 0.312192 0)
(10.0447 0.32647 0)
(10.0571 0.333714 0)
(9.66644 -0.039762 0)
(9.69517 -0.123761 0)
(9.74469 -0.128854 0)
(9.81586 -0.0877322 0)
(9.87804 -0.0278229 0)
(9.92175 0.0271156 0)
(9.96187 0.073204 0)
(9.99082 0.113413 0)
(9.99216 0.146181 0)
(9.96345 0.168684 0)
(9.91917 0.183701 0)
(9.8791 0.19961 0)
(9.85705 0.221903 0)
(9.85945 0.250645 0)
(9.88123 0.278257 0)
(9.91419 0.30037 0)
(9.94955 0.312338 0)
(9.98224 0.316576 0)
(10.036 -0.0567916 0)
(9.93031 -0.161044 0)
(9.94886 -0.161919 0)
(9.98305 -0.0801246 0)
(9.98569 0.0161598 0)
(9.97102 0.0755288 0)
(9.95286 0.0979926 0)
(9.93982 0.115271 0)
(9.93339 0.145642 0)
(9.93468 0.181093 0)
(9.94533 0.203811 0)
(9.96619 0.205276 0)
(9.99586 0.189139 0)
(10.0314 0.166728 0)
(10.0698 0.149481 0)
(10.1066 0.143475 0)
(10.1398 0.150001 0)
(10.1641 0.166291 0)
(10.0828 -0.000597736 0)
(10.055 -0.111152 0)
(10.0434 -0.124062 0)
(10.0558 -0.0724627 0)
(10.1387 -0.00776277 0)
(10.237 0.0524894 0)
(10.2925 0.103198 0)
(10.298 0.133126 0)
(10.2764 0.141092 0)
(10.2543 0.131858 0)
(10.2471 0.112658 0)
(10.2554 0.0925827 0)
(10.2708 0.0811004 0)
(10.2833 0.0837354 0)
(10.2892 0.101739 0)
(10.2899 0.131808 0)
(10.2894 0.169159 0)
(10.2928 0.209646 0)
(10.0169 0.00750049 0)
(10.0801 -0.14505 0)
(10.0879 -0.1997 0)
(10.0233 -0.222365 0)
(9.94778 -0.192339 0)
(9.91555 -0.090642 0)
(9.92122 0.0486068 0)
(9.95645 0.165895 0)
(10.0136 0.225609 0)
(10.0733 0.227773 0)
(10.1195 0.195155 0)
(10.1463 0.156165 0)
(10.156 0.13031 0)
(10.156 0.123838 0)
(10.1542 0.129799 0)
(10.158 0.139895 0)
(10.1701 0.145351 0)
(10.1931 0.145349 0)
(9.99233 -0.197423 0)
(10.0588 -0.114926 0)
(10.029 -0.0314556 0)
(9.93476 0.0227414 0)
(9.84563 0.0550651 0)
(9.80362 0.0564166 0)
(9.82264 0.0310682 0)
(9.90322 0.00554698 0)
(10.0243 -0.00599533 0)
(10.1471 -0.00141878 0)
(10.2388 0.0161145 0)
(10.2886 0.0405562 0)
(10.3037 0.0659148 0)
(10.3009 0.0871737 0)
(10.2948 0.101212 0)
(10.2932 0.108558 0)
(10.2976 0.111322 0)
(10.3054 0.114341 0)
(10.0131 -0.132166 0)
(9.95062 -0.109612 0)
(9.91207 -0.084559 0)
(9.9272 -0.0557634 0)
(10.0074 -0.0308965 0)
(10.0889 -0.0272055 0)
(10.1126 -0.0410354 0)
(10.0833 -0.0552307 0)
(10.0361 -0.0516589 0)
(10.0019 -0.0235565 0)
(9.99476 0.0227945 0)
(10.0152 0.0723701 0)
(10.0549 0.110973 0)
(10.103 0.131998 0)
(10.1487 0.136247 0)
(10.1856 0.129849 0)
(10.2103 0.119349 0)
(10.2245 0.111469 0)
(10.1209 0.0329332 0)
(10.1173 0.0490802 0)
(10.0213 -0.0292476 0)
(9.99701 -0.0985254 0)
(10.057 -0.0855766 0)
(10.1137 -0.030724 0)
(10.1069 0.0235411 0)
(10.05 0.0556923 0)
(9.98615 0.0562402 0)
(9.94768 0.0323889 0)
(9.94609 0.00184512 0)
(9.97638 -0.0190314 0)
(10.0272 -0.0229132 0)
(10.0864 -0.0107719 0)
(10.1432 0.0123952 0)
(10.1906 0.0403695 0)
(10.2265 0.0683258 0)
(10.2514 0.0916531 0)
(10.0693 -0.121584 0)
(9.99007 0.0383673 0)
(9.99993 0.0261605 0)
(10.0149 -0.0923799 0)
(9.99876 -0.12025 0)
(9.99431 -0.0572353 0)
(10.0126 0.0180254 0)
(10.0419 0.0523589 0)
(10.0708 0.0435821 0)
(10.0908 0.0172853 0)
(10.0962 -0.00458043 0)
(10.0909 -0.0137197 0)
(10.0851 -0.0113446 0)
(10.0889 -0.00136074 0)
(10.1074 0.0123628 0)
(10.1386 0.0273712 0)
(10.1777 0.0414017 0)
(10.2174 0.0523915 0)
(10.1316 0.0680793 0)
(10.0621 0.0806811 0)
(10.0808 -0.0390347 0)
(10.0412 -0.0973695 0)
(9.97857 -0.0780534 0)
(9.98516 -0.0364065 0)
(10.0703 -0.00164561 0)
(10.1751 0.0152122 0)
(10.2523 0.0169952 0)
(10.2854 0.0113971 0)
(10.2814 0.002771 0)
(10.2585 -0.00728852 0)
(10.2357 -0.0182672 0)
(10.2253 -0.0276672 0)
(10.2311 -0.0301451 0)
(10.25 -0.0232571 0)
(10.2762 -0.00585278 0)
(10.3015 0.0185647 0)
(9.86521 0.0223358 0)
(10.1371 0.0830428 0)
(10.2687 0.045639 0)
(10.2686 -0.0372694 0)
(10.2335 -0.0997992 0)
(10.216 -0.112374 0)
(10.211 -0.0896217 0)
(10.2042 -0.0565129 0)
(10.1983 -0.0261434 0)
(10.2002 -0.00162263 0)
(10.2091 0.0136864 0)
(10.2188 0.0167096 0)
(10.2234 0.00879644 0)
(10.2209 -0.00410174 0)
(10.2126 -0.0139062 0)
(10.2038 -0.0164612 0)
(10.1973 -0.0100478 0)
(10.1992 0.00315711 0)
(9.76578 -0.00536336 0)
(9.80478 -0.0645986 0)
(9.97749 -0.0790208 0)
(10.0939 -0.0776381 0)
(10.0838 -0.0601067 0)
(10.0351 -0.0297226 0)
(10.0259 -0.00138668 0)
(10.0576 0.0125912 0)
(10.1076 0.0121835 0)
(10.1606 0.00397903 0)
(10.208 -0.00569063 0)
(10.2445 -0.0125338 0)
(10.2679 -0.015703 0)
(10.2788 -0.0165569 0)
(10.2823 -0.0150575 0)
(10.2848 -0.0105554 0)
(10.2916 -0.00123306 0)
(10.3065 0.0108361 0)
(10.1088 0.0516396 0)
(10.1875 -0.00126441 0)
(10.2113 -0.0533108 0)
(10.1436 -0.0726356 0)
(10.0508 -0.0764975 0)
(10.0211 -0.081618 0)
(10.0657 -0.0864251 0)
(10.1401 -0.0825321 0)
(10.2021 -0.0677155 0)
(10.2258 -0.0476154 0)
(10.2082 -0.0291517 0)
(10.1701 -0.0165121 0)
(10.1411 -0.0113197 0)
(10.1398 -0.0125903 0)
(10.1686 -0.0175944 0)
(10.2193 -0.0226799 0)
(10.2815 -0.0248512 0)
(10.3459 -0.026114 0)
(9.94373 -0.0253234 0)
(9.81575 -0.0816469 0)
(9.63147 -0.062448 0)
(9.45907 -0.0337494 0)
(9.29823 -0.0261647 0)
(9.12771 -0.0401018 0)
(8.92952 -0.0558406 0)
(8.72105 -0.0550175 0)
(8.55336 -0.0348089 0)
(8.4578 -0.00692439 0)
(8.425 0.0128507 0)
(8.42504 0.0142099 0)
(8.42274 -0.00296958 0)
(8.39185 -0.0297353 0)
(8.32386 -0.054276 0)
(8.22985 -0.0681754 0)
(8.12723 -0.0678029 0)
(8.03707 -0.0579482 0)
(-0.148351 0.444994 -1.02036e-19)
(-0.39434 0.188905 1.01309e-19)
(-0.203806 -0.291838 0)
(0.220789 -0.492228 0)
(0.766094 -0.582904 0)
(1.28608 -0.576935 -9.79633e-20)
(1.77799 -0.517407 0)
(2.2158 -0.431742 0)
(2.58159 -0.315125 0)
(2.85501 -0.18379 0)
(3.032 -0.0831519 9.43919e-20)
(3.12828 0.033514 0)
(3.08665 0.183652 0)
(2.91933 0.283212 0)
(2.66144 0.406074 0)
(2.24954 0.559274 9.1011e-20)
(1.78374 0.463413 0)
(1.41005 0.190085 0)
(1.10599 0.0333038 0)
(0.894299 -0.0614258 0)
(0.835293 -0.161011 0)
(0.940271 -0.200384 0)
(1.1501 -0.217369 0)
(1.39121 -0.275465 8.55228e-20)
(1.65869 -0.121266 -8.47795e-20)
(1.81901 0.377442 8.40754e-20)
(1.738 0.608995 8.33417e-20)
(1.61398 0.188156 0)
(1.56493 -0.41296 0)
(1.53052 -0.650321 -8.10461e-20)
(1.4341 -0.378678 -8.03835e-20)
(1.07757 0.125444 0)
(0.44547 0.424764 0)
(-0.302523 0.574033 -7.87053e-20)
(-1.1511 0.728856 0)
(-2.10662 0.859508 0)
(-3.09121 0.907236 7.6541e-20)
(-4.04494 0.874449 0)
(-4.92684 0.795826 7.54601e-20)
(-5.72119 0.701124 1.5004e-19)
(-6.4242 0.605424 0)
(-7.03898 0.516103 0)
(-7.57174 0.436007 0)
(-8.03001 0.365818 0)
(-8.42148 0.305055 0)
(-8.75358 0.252717 1.45464e-19)
(-9.03264 0.207437 1.4462e-19)
(-9.26383 0.167786 1.43718e-19)
(-9.45098 0.132375 0)
(-9.59676 0.0999587 -1.41717e-19)
(-9.70289 0.0696114 0)
(-9.76989 0.040819 1.39425e-19)
(-9.79804 0.0132569 1.38163e-19)
(-9.78709 -0.0138566 0)
(-9.73843 -0.0402005 0)
(-9.65107 -0.0663463 0)
(-9.52447 -0.0924368 1.32322e-19)
(-9.35845 -0.118087 0)
(-9.15339 -0.14312 0)
(-8.90973 -0.167117 0)
(-8.62909 -0.18971 0)
(-8.31326 -0.210552 0)
(-7.96496 -0.229353 0)
(-7.58707 -0.24602 0)
(-7.18275 -0.260633 0)
(-6.75489 -0.273592 -1.16751e-19)
(-6.30548 -0.285528 0)
(-5.83531 -0.297417 0)
(-5.34318 -0.310545 1.11685e-19)
(-4.82553 -0.326463 1.10061e-19)
(-4.27597 -0.346946 0)
(-3.68519 -0.373811 -1.06923e-19)
(-3.04123 -0.408646 1.05422e-19)
(-2.33043 -0.45218 0)
(-1.53969 -0.502841 -1.02628e-19)
(-0.663135 -0.554135 0)
(0.306877 -0.590385 0)
(1.35309 -0.605285 9.89614e-20)
(2.38592 -0.611159 0)
(3.42104 -0.55752 -9.71205e-20)
(4.31439 -0.456258 0)
(5.03662 -0.366966 9.5773e-20)
(5.59076 -0.190557 9.50887e-20)
(5.82253 -0.0538537 9.42854e-20)
(5.9082 0.21396 1.86532e-19)
(5.30757 0.462761 -1.84053e-19)
(4.63723 0.782712 0)
(2.83383 1.29979 0)
(0.652938 0.477981 0)
(-0.267697 -0.144124 -1.75233e-19)
(-0.663622 -0.243321 -1.73325e-19)
(0.0904442 -0.595556 1.70913e-19)
(1.07503 -0.400836 0)
(1.69127 -0.0587895 -1.66963e-19)
(1.82717 -0.012616 -1.64964e-19)
(1.73361 -0.121128 -1.62877e-19)
(1.60135 -0.125337 0)
(1.3251 0.0307552 0)
(0.814384 0.209679 0)
(0.153787 0.307087 -1.56687e-19)
(-0.571692 0.352848 0)
(-1.32693 0.380118 0)
(-2.07178 0.363792 1.52225e-19)
(-2.75388 0.31289 0)
(-3.39376 0.287492 0)
(-4.0644 0.312034 1.48799e-19)
(-4.82311 0.366657 0)
(-5.69214 0.428049 0)
(-6.66774 0.480961 -1.4638e-19)
(-7.72123 0.511153 -1.45929e-19)
(-8.80062 0.508845 0)
(-9.84428 0.475585 1.45539e-19)
(-10.7984 0.420034 0)
(-11.6233 0.350316 -1.45269e-19)
(-12.2917 0.272181 0)
(-12.7848 0.189802 -1.44178e-19)
(-13.0902 0.106926 -1.43036e-19)
(-13.199 0.0274129 0)
(-13.11 -0.0464089 0)
(-12.8564 -0.114988 0)
(-12.4256 -0.178805 0)
(-11.8441 -0.235262 0)
(-11.1215 -0.283432 0)
(-10.2855 -0.321203 0)
(-9.35754 -0.348569 -1.1784e-19)
(-8.3669 -0.364905 1.13989e-19)
(-7.34012 -0.370495 0)
(-6.30497 -0.365682 0)
(-5.28387 -0.352116 0)
(-4.29695 -0.331627 0)
(-3.36055 -0.306776 1.98146e-19)
(-2.48512 -0.280073 0)
(-1.67528 -0.253486 -1.90526e-19)
(-0.930158 -0.228555 1.87358e-19)
(-0.244702 -0.203973 0)
(0.380748 -0.188338 0)
(0.955513 -0.16998 0)
(1.49251 -0.154319 -1.76521e-19)
(1.99046 -0.13971 -1.7411e-19)
(2.44976 -0.124869 0)
(2.86782 -0.109131 -1.69528e-19)
(3.24001 -0.0928966 -1.67327e-19)
(3.56215 -0.0769436 1.65172e-19)
(3.83345 -0.0606802 0)
(4.05791 -0.0439035 0)
(4.24411 -0.0361174 1.58785e-19)
(4.41234 -0.0492594 0)
(4.59188 -0.0613576 0)
(4.77401 -0.0365914 0)
(4.91228 -0.0130233 0)
(5.03397 -0.037882 -1.47252e-19)
(5.19424 -0.0256955 -1.44753e-19)
(5.27115 0.0447223 0)
(5.22728 0.0238808 -1.39633e-19)
(5.27087 0.034912 0)
(5.06815 0.323799 0)
(4.03806 0.526907 -1.31694e-19)
(2.69288 0.296468 0)
(1.76248 0.000887105 -1.2803e-19)
(1.25708 -0.0607251 0)
(1.00095 -0.0073389 0)
(0.878505 0.00573025 -1.20904e-19)
(0.839449 -0.0469373 0)
(0.858903 -0.10038 -1.1558e-19)
(0.895365 -0.0911061 0)
(0.922392 -0.0543153 0)
(0.975796 -0.0452503 0)
(1.12645 -0.0657042 1.05613e-19)
(1.37505 -0.0845858 0)
(1.66633 -0.0889794 -1.00746e-19)
(1.9832 -0.0910472 0)
(2.35696 -0.0614508 0)
(2.6766 0.0272134 0)
(2.72314 0.0814177 0)
(2.61244 0.0381172 0)
(2.48962 -0.00891027 0)
(2.26643 0.0202953 0)
(1.81258 0.0861777 1.66629e-19)
(1.02114 0.150982 0)
(0.108505 0.294789 0)
(-0.0980216 0.597018 3.06052e-19)
(0.137443 -0.0130462 -3.03725e-19)
(0.728782 -1.05395 0)
(1.26363 -1.57278 1.98797e-19)
(1.72259 -1.70613 0)
(2.10257 -1.62586 9.7588e-20)
(2.42501 -1.45339 -1.94276e-19)
(2.70761 -1.23953 -1.92935e-19)
(2.95048 -0.999717 0)
(3.15654 -0.72468 -1.90326e-19)
(3.31961 -0.428986 -9.4286e-20)
(3.40657 -0.121888 0)
(3.43757 0.216459 0)
(3.41337 0.506514 0)
(3.29176 0.761507 0)
(3.12735 0.994847 -9.06957e-20)
(2.94737 1.06162 0)
(2.64751 1.01883 1.78911e-19)
(2.35268 0.888005 0)
(2.11081 0.594061 0)
(1.81763 0.106695 -1.75114e-19)
(1.64765 -0.425304 0)
(1.72046 -0.675247 1.7231e-19)
(1.83295 -0.686235 -8.54001e-20)
(1.77575 -0.648799 8.47416e-20)
(1.65454 -0.473647 -8.40904e-20)
(1.49262 -0.248788 -8.3388e-20)
(1.14739 0.0884259 0)
(0.42361 0.55801 0)
(-0.548377 0.94313 8.13564e-20)
(-1.46587 1.26697 -8.05875e-20)
(-2.31562 1.58477 0)
(-3.15734 1.8489 0)
(-3.96102 2.04102 7.79183e-20)
(-4.70834 2.14099 0)
(-5.39637 2.14226 0)
(-6.01628 2.05236 -7.58902e-20)
(-6.57436 1.90145 0)
(-7.07319 1.71905 7.56794e-20)
(-7.51831 1.52744 -1.49234e-19)
(-7.9143 1.3401 0)
(-8.26736 1.16442 0)
(-8.58244 1.00386 -2.9559e-19)
(-8.86338 0.85952 -2.9419e-19)
(-9.11248 0.730615 -2.92732e-19)
(-9.33137 0.615455 1.4598e-19)
(-9.52102 0.511829 -1.4441e-19)
(-9.68213 0.417459 -4.31326e-19)
(-9.81478 0.330143 2.85885e-19)
(-9.91864 0.247646 1.41599e-19)
(-9.99331 0.168004 0)
(-10.0378 0.0902289 -1.39346e-19)
(-10.0503 0.0133378 1.38678e-19)
(-10.029 -0.0635502 0)
(-9.97027 -0.140558 0)
(-9.87326 -0.217864 0)
(-9.73716 -0.295003 -1.32231e-19)
(-9.56139 -0.371066 0)
(-9.34588 -0.445119 2.58274e-19)
(-9.0917 -0.516032 0)
(-8.80006 -0.582695 2.5128e-19)
(-8.47353 -0.644057 0)
(-8.11504 -0.699253 -2.44145e-19)
(-7.72846 -0.747853 0)
(-7.31778 -0.790032 2.37042e-19)
(-6.88692 -0.826754 -1.16916e-19)
(-6.43911 -0.859863 0)
(-5.97629 -0.892161 -2.26731e-19)
(-5.49861 -0.92739 -1.11557e-19)
(-5.00392 -0.970126 -1.09926e-19)
(-4.48742 -1.02564 0)
(-3.94137 -1.09953 -1.07175e-19)
(-3.35507 -1.19689 -1.05248e-19)
(-2.71531 -1.32039 0)
(-2.0076 -1.46658 1.02404e-19)
(-1.22003 -1.62182 -2.02879e-19)
(-0.347654 -1.75455 0)
(0.615993 -1.82969 -9.89195e-20)
(1.59231 -1.80804 0)
(2.54346 -1.63973 2.92003e-19)
(3.43157 -1.37193 0)
(4.10509 -1.08166 -2.88102e-19)
(4.75419 -0.677018 -9.51651e-20)
(5.0386 -0.246497 9.51292e-20)
(5.30972 0.319548 1.88396e-19)
(5.15291 0.921997 -1.85939e-19)
(4.9245 1.56684 0)
(4.32967 2.41311 0)
(3.16406 2.49485 0)
(1.57697 1.48983 5.24117e-19)
(0.596785 -0.124157 1.73202e-19)
(0.649827 -1.37274 -1.70743e-19)
(0.875093 -1.3432 0)
(1.09424 -0.625367 -1.67109e-19)
(0.855907 -0.0230003 1.65269e-19)
(0.270074 0.315336 1.63403e-19)
(-0.519163 0.558805 0)
(-1.35536 0.771812 0)
(-2.16731 0.926109 0)
(-2.94913 1.01647 1.55979e-19)
(-3.67998 1.04308 0)
(-4.33848 1.00133 -3.0605e-19)
(-4.9408 0.923745 -4.54815e-19)
(-5.52196 0.872454 3.00865e-19)
(-6.11652 0.885443 0)
(-6.74187 0.953151 1.48356e-19)
(-7.40538 1.04731 0)
(-8.10911 1.14151 2.93146e-19)
(-8.84589 1.21211 -1.46266e-19)
(-9.59746 1.23857 -1.46023e-19)
(-10.3363 1.20911 0)
(-11.031 1.12397 -4.36374e-19)
(-11.6534 0.991986 2.91265e-19)
(-12.1823 0.825568 1.45057e-19)
(-12.6024 0.636228 0)
(-12.9005 0.432516 1.44105e-19)
(-13.0639 0.220641 4.30153e-19)
(-13.0841 0.0056996 0)
(-12.9577 -0.207685 2.7943e-19)
(-12.6527 -0.411915 2.73867e-19)
(-12.1944 -0.601013 2.67344e-19)
(-11.5811 -0.767924 0)
(-10.8395 -0.908386 0)
(-9.98603 -1.01883 0)
(-9.04933 -1.09788 -1.18335e-19)
(-8.05366 -1.14491 -1.13898e-19)
(-7.02861 -1.16042 0)
(-5.99946 -1.14622 -2.14194e-19)
(-4.98922 -1.10631 -2.08151e-19)
(-4.01635 -1.04632 0)
(-3.09608 -0.973403 -1.98012e-19)
(-2.23691 -0.895039 -3.882e-19)
(-1.44181 -0.816602 1.90422e-19)
(-0.707612 -0.742815 1.87504e-19)
(-0.0312553 -0.673464 0)
(0.591697 -0.621367 0)
(1.1718 -0.569484 0)
(1.71848 -0.524388 1.76388e-19)
(2.23212 -0.482635 -1.74187e-19)
(2.71225 -0.440573 -3.4351e-19)
(3.15581 -0.395435 1.69414e-19)
(3.55743 -0.346052 -1.67346e-19)
(3.91124 -0.293976 -1.65069e-19)
(4.21357 -0.245043 0)
(4.46962 -0.206312 0)
(4.69832 -0.178719 1.588e-19)
(4.91133 -0.16105 0)
(5.09709 -0.155906 0)
(5.27049 -0.153113 -3.04009e-19)
(5.47763 -0.136643 0)
(5.68421 -0.123629 -1.47255e-19)
(5.83766 -0.114351 1.44648e-19)
(6.01624 -0.06042 0)
(6.15821 0.00354805 -1.39667e-19)
(6.15339 0.0598595 0)
(6.17225 0.288644 0)
(6.17498 0.686241 1.31356e-19)
(6.00471 0.905491 -2.58966e-19)
(5.52179 0.789779 1.27532e-19)
(4.71922 0.479442 0)
(3.94246 0.201553 0)
(3.46815 0.0683799 -1.20583e-19)
(3.25333 0.0492053 0)
(3.11251 0.0587168 -1.15302e-19)
(2.90431 0.0492394 0)
(2.65484 0.0198402 0)
(2.49971 -0.0457402 0)
(2.5063 -0.143266 -1.05488e-19)
(2.62635 -0.205035 0)
(2.7645 -0.21863 1.00645e-19)
(2.86429 -0.252801 0)
(2.99044 -0.286543 0)
(3.24777 -0.197511 -1.8781e-19)
(3.51611 -0.0269976 1.83448e-19)
(3.47718 0.0825952 0)
(2.9442 0.171734 0)
(2.06059 0.313925 0)
(0.970171 0.482749 -4.99725e-19)
(-0.392989 0.692912 0)
(-1.92362 0.986555 3.23624e-19)
(0.0641893 0.448056 1.10482e-22)
(0.743969 -1.42279 4.03916e-19)
(1.34278 -2.49721 0)
(1.7118 -2.68189 -3.96914e-19)
(1.875 -2.42801 0)
(1.9332 -2.07646 0)
(1.98751 -1.77514 -4.54658e-22)
(2.09381 -1.51553 1.93168e-19)
(2.24216 -1.24108 1.9235e-19)
(2.38853 -0.939324 1.90661e-19)
(2.52507 -0.59343 0)
(2.62246 -0.204466 0)
(2.6599 0.197054 -1.87071e-19)
(2.64725 0.585267 -3.70726e-19)
(2.58843 0.885065 3.67384e-19)
(2.51134 1.1642 0)
(2.47695 1.40378 3.61008e-19)
(2.42341 1.27936 -1.78903e-19)
(2.19697 1.03137 0)
(2.03173 1.03255 3.52499e-19)
(2.15471 0.823138 1.74972e-19)
(2.22225 -0.00604116 -3.4719e-19)
(1.9271 -0.638577 -1.72307e-19)
(1.41191 -0.356612 0)
(0.741272 0.358355 3.39943e-19)
(-0.0462974 0.992464 3.37294e-19)
(-0.856279 1.48818 0)
(-1.63099 1.87585 3.30416e-19)
(-2.3866 2.16134 0)
(-3.11008 2.37724 3.23678e-19)
(-3.78838 2.5981 1.59923e-19)
(-4.41896 2.80101 0)
(-4.98819 2.94811 0)
(-5.49257 3.01868 0)
(-5.93468 3.00385 0)
(-6.33013 2.90807 0)
(-6.69393 2.74554 0)
(-7.04267 2.53782 3.04094e-19)
(-7.38393 2.30691 -4.52875e-19)
(-7.72102 2.0709 0)
(-8.05093 1.84171 0)
(-8.36857 1.62543 0)
(-8.66824 1.42468 -1.28604e-21)
(-8.9462 1.24005 2.93969e-19)
(-9.19982 1.07062 5.86215e-19)
(-9.4275 0.914818 -5.83119e-19)
(-9.62818 0.770476 -2.90452e-19)
(-9.80086 0.635225 2.8762e-19)
(-9.94465 0.506501 1.03854e-21)
(-10.0587 0.381669 2.8473e-19)
(-10.1413 0.25835 0)
(-10.1903 0.134825 2.80183e-19)
(-10.2042 0.00961383 9.71524e-22)
(-10.1812 -0.117462 0)
(-10.1195 -0.24669 0)
(-10.0172 -0.376942 -2.68846e-19)
(-9.87324 -0.506736 0)
(-9.68727 -0.634539 0)
(-9.45955 -0.758458 2.59551e-19)
(-9.19111 -0.876544 5.10586e-19)
(-8.88377 -0.986674 -2.51079e-19)
(-8.54028 -1.08683 0)
(-8.16443 -1.17531 2.43937e-19)
(-7.76093 -1.25106 0)
(-7.33509 -1.31409 2.378e-19)
(-6.89227 -1.36582 2.33344e-19)
(-6.43731 -1.40927 -4.60719e-19)
(-5.97394 -1.44915 -2.2744e-19)
(-5.50446 -1.49166 0)
(-5.02952 -1.5443 4.40928e-19)
(-4.54808 -1.6156 0)
(-4.05701 -1.71489 6.42236e-19)
(-3.55033 -1.85127 4.2263e-19)
(-3.01856 -2.03083 4.16925e-19)
(-2.44738 -2.25183 -4.11496e-19)
(-1.81936 -2.49669 6.08846e-19)
(-1.12059 -2.72269 0)
(-0.344358 -2.86271 0)
(0.489099 -2.84099 -3.94784e-19)
(1.32639 -2.58628 -5.86632e-19)
(2.12706 -2.1976 0)
(2.79555 -1.77557 1.92498e-19)
(3.42498 -1.19673 0)
(3.82845 -0.550357 -5.71069e-19)
(4.11508 0.224516 1.73946e-21)
(4.14637 1.05488 -1.85212e-21)
(3.98521 1.80232 3.66162e-19)
(3.85564 2.83098 0)
(3.61468 3.43047 -3.53373e-19)
(2.5293 2.70685 -1.53944e-22)
(1.76807 0.942173 0)
(1.23992 -0.764418 0)
(0.309997 -0.691303 0)
(-0.449394 0.175564 3.34557e-19)
(-1.13866 0.772196 0)
(-1.81171 1.13766 0)
(-2.48118 1.36044 0)
(-3.11172 1.50021 0)
(-3.6851 1.57852 0)
(-4.20007 1.59773 3.11898e-19)
(-4.65121 1.55678 0)
(-5.04921 1.46964 3.05498e-19)
(-5.43035 1.37798 3.02892e-19)
(-5.83276 1.33304 -3.00486e-19)
(-6.27385 1.358 0)
(-6.75424 1.44072 -2.96214e-19)
(-7.27291 1.55394 0)
(-7.83229 1.66871 -2.92978e-19)
(-8.43469 1.75657 2.9194e-19)
(-9.07635 1.79136 8.75528e-19)
(-9.74047 1.75347 0)
(-10.393 1.63471 8.75795e-19)
(-10.991 1.44221 2.93744e-19)
(-11.4998 1.19606 0)
(-11.8998 0.91662 5.8414e-19)
(-12.1774 0.614607 5.81913e-19)
(-12.3184 0.293371 -8.65262e-19)
(-12.3113 -0.0429569 0)
(-12.147 -0.383858 -2.79625e-19)
(-11.8201 -0.713409 -2.7401e-19)
(-11.3355 -1.01804 -8.05312e-19)
(-10.7048 -1.28651 0)
(-9.94579 -1.51078 0)
(-9.08145 -1.68607 0)
(-8.13756 -1.80948 -2.37911e-19)
(-7.14285 -1.88046 0)
(-6.12727 -1.89966 0)
(-5.12065 -1.87075 2.14154e-19)
(-4.14684 -1.80059 2.08112e-19)
(-3.22597 -1.6987 0)
(-2.372 -1.57721 0)
(-1.59024 -1.44935 3.88131e-19)
(-0.879009 -1.32311 0)
(-0.229605 -1.20545 -3.74657e-19)
(0.364162 -1.10452 -3.69054e-19)
(0.911334 -1.01556 0)
(1.42879 -0.934578 0)
(1.92562 -0.863096 3.53084e-19)
(2.4059 -0.79682 -3.48335e-22)
(2.86777 -0.730101 -3.15093e-22)
(3.30221 -0.658255 0)
(3.69612 -0.579691 6.68996e-19)
(4.03918 -0.496702 0)
(4.33002 -0.415646 0)
(4.57401 -0.348242 0)
(4.78013 -0.306685 -3.174e-19)
(4.96764 -0.290431 0)
(5.15904 -0.283824 6.17513e-19)
(5.35845 -0.272468 3.03926e-19)
(5.56595 -0.257429 0)
(5.78799 -0.249871 2.94316e-19)
(5.99554 -0.231929 0)
(6.18912 -0.149146 0)
(6.42628 -0.0274156 8.37706e-19)
(6.59309 0.0731698 -5.48165e-19)
(6.59954 0.263223 0)
(6.66952 0.593265 -5.26936e-19)
(6.8646 0.824031 2.58711e-19)
(6.91339 0.851918 0)
(6.65024 0.769815 0)
(6.169 0.624947 0)
(5.57678 0.398177 7.21709e-19)
(5.01643 0.159955 0)
(4.64574 0.0623757 2.30292e-19)
(4.43405 0.11011 0)
(4.2404 0.148604 0)
(4.02683 0.0523717 0)
(3.85381 -0.128372 0)
(3.76327 -0.227159 0)
(3.69378 -0.199203 0)
(3.55895 -0.18847 3.93248e-19)
(3.44001 -0.25807 0)
(3.48537 -0.227927 1.87746e-19)
(3.58822 -0.00535771 -5.50513e-19)
(3.3646 0.297507 0)
(2.57198 0.606903 0)
(1.43268 0.880341 3.4035e-19)
(0.179848 1.11736 3.32944e-19)
(-1.20727 1.41419 -3.28072e-19)
(-2.73179 1.77741 -3.22991e-19)
(0.363422 -1.06313 -6.12491e-19)
(0.898123 -2.94825 -6.05862e-19)
(1.15892 -3.18228 -4.00992e-19)
(1.17359 -2.6201 -1.99555e-19)
(1.05706 -2.01465 0)
(0.954978 -1.71992 3.93894e-19)
(0.971332 -1.68203 -1.96013e-19)
(1.07002 -1.62978 0)
(1.1846 -1.44714 -1.92886e-19)
(1.27944 -1.14982 0)
(1.35859 -0.743515 3.81238e-19)
(1.43144 -0.26231 0)
(1.47469 0.220159 1.87677e-19)
(1.5058 0.692062 3.72021e-19)
(1.48651 1.04935 -3.68789e-19)
(1.39438 1.1502 0)
(1.35496 1.34105 -3.62389e-19)
(1.28663 1.69258 0)
(1.21498 1.45693 0)
(1.29737 0.524755 -3.53394e-19)
(1.34567 -0.135295 0)
(1.01539 0.0997834 -1.63971e-22)
(0.226747 0.783611 0)
(-0.647511 1.38937 0)
(-1.41727 1.90291 2.44048e-22)
(-2.11656 2.32691 -3.35183e-19)
(-2.75052 2.66774 -3.32141e-19)
(-3.323 2.9385 -3.28498e-19)
(-3.84359 3.15477 0)
(-4.31964 3.33211 -6.45335e-19)
(-4.75712 3.47714 0)
(-5.15532 3.5807 -3.17755e-19)
(-5.51822 3.6316 0)
(-5.8576 3.62751 0)
(-6.18696 3.56725 3.10954e-19)
(-6.51857 3.45214 0)
(-6.85571 3.28553 -3.07167e-19)
(-7.19598 3.07613 1.71506e-21)
(-7.53296 2.83793 6.05998e-19)
(-7.86095 2.58567 -6.04678e-19)
(-8.17504 2.33118 0)
(-8.47249 2.08245 0)
(-8.75163 1.84449 -2.99551e-19)
(-9.01151 1.61987 0)
(-9.25113 1.40953 -2.93512e-19)
(-9.46966 1.21296 2.91962e-19)
(-9.66634 1.02847 2.9031e-19)
(-9.84022 0.852993 0)
(-9.98998 0.682697 -2.8664e-19)
(-10.1134 0.514327 -2.84593e-19)
(-10.2072 0.34521 5.67612e-19)
(-10.2682 0.172409 -2.80056e-19)
(-10.2931 -0.00522382 -2.77559e-19)
(-10.2786 -0.188499 0)
(-10.2221 -0.374873 0)
(-10.1215 -0.562496 2.68719e-19)
(-9.9756 -0.749422 0)
(-9.78455 -0.933251 0)
(-9.54888 -1.11127 -5.17257e-19)
(-9.26986 -1.28041 -5.10172e-19)
(-8.94968 -1.43729 0)
(-8.5915 -1.57855 0)
(-8.19972 -1.70123 0)
(-7.77988 -1.80333 0)
(-7.33836 -1.88446 -4.74187e-19)
(-6.88161 -1.94635 4.6844e-19)
(-6.41537 -1.99304 4.60292e-19)
(-5.94394 -2.03067 9.08307e-19)
(-5.47029 -2.06704 0)
(-4.99665 -2.11104 1.2284e-21)
(-4.5256 -2.17266 0)
(-4.06053 -2.26361 -4.28144e-19)
(-3.60474 -2.39739 1.46022e-21)
(-3.15892 -2.58712 -4.16442e-19)
(-2.71759 -2.83978 4.10919e-19)
(-2.26498 -3.14402 1.80605e-21)
(-1.7759 -3.4525 0)
(-1.22397 -3.67189 3.99003e-19)
(-0.582041 -3.69796 3.94259e-19)
(0.129691 -3.4477 7.85095e-19)
(0.850893 -3.00768 0)
(1.48847 -2.49421 -3.88239e-19)
(2.10659 -1.80869 0)
(2.5915 -0.95103 7.65105e-19)
(2.90516 0.0596891 -3.78382e-19)
(3.05925 1.0937 3.72914e-19)
(2.91172 1.91622 -3.66729e-19)
(2.83261 2.90302 -7.22868e-19)
(2.95893 3.67935 3.53473e-19)
(2.29521 3.37073 -3.4805e-19)
(1.60975 1.44396 0)
(0.887567 -0.0569989 6.80353e-19)
(-0.339003 0.270461 0)
(-1.33586 0.935372 6.65371e-19)
(-2.06119 1.3974 -6.57655e-19)
(-2.64714 1.69322 -6.5038e-19)
(-3.13709 1.8654 6.43424e-19)
(-3.56534 1.95348 6.3676e-19)