/*--------------------------------*- C++ -*----------------------------------*\
| =========                 |                                                 |
| \\      /  F ield         | OpenFOAM: The Open Source CFD Toolbox           |
|  \\    /   O peration     | Version:  2112                                  |
|   \\  /    A nd           | Website:  www.openfoam.com                      |
|    \\/     M anipulation  |                                                 |
\*---------------------------------------------------------------------------*/
FoamFile
{
    version     2.0;
    format      ascii;
    arch        "LSB;label=32;scalar=64";
    class       surfaceScalarField;
    location    "0.04";
    object      ddtCorrDdt0(phi);
}
// * * * * * * * * * * * * * * * * * * * * * * * * * * * * * * * * * * * * * //

dimensions      [0 3 -2 0 0 0 0];

oriented        oriented;

internalField   nonuniform List<scalar> 
24170
(
2.43767e-08
-2.43769e-08
8.36158e-08
-5.92394e-08
1.66978e-07
-8.33629e-08
2.90226e-07
-1.23249e-07
4.30156e-07
-1.3993e-07
5.89029e-07
-1.58873e-07
7.8565e-07
-1.96622e-07
1.0075e-06
-2.21847e-07
1.26402e-06
-2.56522e-07
1.55384e-06
-2.89819e-07
1.90124e-06
-3.47399e-07
2.31382e-06
-4.12585e-07
2.73399e-06
-4.20169e-07
3.34358e-06
-6.09588e-07
4.21782e-06
-8.74246e-07
4.91383e-06
-6.96003e-07
6.24614e-06
-1.33231e-06
-1.65426e-06
7.9004e-06
1.29985e-08
-3.73755e-08
5.59578e-08
-1.02199e-07
1.22578e-07
-1.49984e-07
2.20348e-07
-2.21019e-07
3.37582e-07
-2.57164e-07
4.77956e-07
-2.99247e-07
6.46569e-07
-3.65235e-07
8.3673e-07
-4.12008e-07
1.07154e-06
-4.91329e-07
1.32949e-06
-5.47771e-07
1.62436e-06
-6.42275e-07
1.96631e-06
-7.54529e-07
2.42748e-06
-8.81342e-07
2.83476e-06
-1.01686e-06
3.31082e-06
-1.35031e-06
4.54723e-06
-1.93242e-06
5.34374e-06
-2.12881e-06
-2.16225e-06
5.85173e-06
1.50084e-08
-5.2384e-08
5.96798e-08
-1.46871e-07
1.293e-07
-2.19604e-07
2.27935e-07
-3.19654e-07
3.36961e-07
-3.66191e-07
4.57401e-07
-4.19688e-07
6.12159e-07
-5.19993e-07
7.80259e-07
-5.80109e-07
9.72029e-07
-6.83099e-07
1.18878e-06
-7.64522e-07
1.43266e-06
-8.86155e-07
1.69211e-06
-1.01397e-06
2.0013e-06
-1.19054e-06
2.32499e-06
-1.34055e-06
2.73215e-06
-1.75746e-06
3.22366e-06
-2.42392e-06
3.81661e-06
-2.72176e-06
-2.97858e-06
4.63293e-06
1.72043e-08
-6.95883e-08
6.62758e-08
-1.95942e-07
1.41856e-07
-2.95184e-07
2.39574e-07
-4.17372e-07
3.5685e-07
-4.83467e-07
4.94422e-07
-5.5726e-07
6.58232e-07
-6.83803e-07
8.37745e-07
-7.59621e-07
1.03897e-06
-8.84326e-07
1.25222e-06
-9.77765e-07
1.49416e-06
-1.1281e-06
1.74193e-06
-1.26174e-06
1.98494e-06
-1.43354e-06
2.27995e-06
-1.63556e-06
2.53325e-06
-2.01076e-06
2.7733e-06
-2.66398e-06
3.41472e-06
-3.36318e-06
-3.87264e-06
4.30877e-06
1.54729e-08
-8.50613e-08
7.25275e-08
-2.52997e-07
1.56893e-07
-3.79549e-07
2.56529e-07
-5.17008e-07
3.87516e-07
-6.14454e-07
5.46147e-07
-7.15892e-07
7.26228e-07
-8.63884e-07
9.25657e-07
-9.59051e-07
1.14668e-06
-1.10535e-06
1.37797e-06
-1.20905e-06
1.63522e-06
-1.38536e-06
1.8918e-06
-1.51832e-06
2.12621e-06
-1.66796e-06
2.35618e-06
-1.86553e-06
2.61467e-06
-2.26925e-06
2.97623e-06
-3.02553e-06
3.51644e-06
-3.90339e-06
-4.61176e-06
4.25556e-06
1.04867e-08
-9.5548e-08
6.63865e-08
-3.08897e-07
1.64689e-07
-4.77852e-07
2.73382e-07
-6.25701e-07
4.23967e-07
-7.65039e-07
6.10905e-07
-9.0283e-07
8.06221e-07
-1.0592e-06
1.02921e-06
-1.18204e-06
1.2724e-06
-1.34853e-06
1.52655e-06
-1.4632e-06
1.80639e-06
-1.6652e-06
2.07737e-06
-1.7893e-06
2.31616e-06
-1.90674e-06
2.53769e-06
-2.08706e-06
2.81983e-06
-2.55139e-06
3.23189e-06
-3.43759e-06
3.77637e-06
-4.44788e-06
-5.32929e-06
4.4939e-06
7.60217e-09
-1.0315e-07
4.80702e-08
-3.49365e-07
1.40952e-07
-5.70734e-07
2.62544e-07
-7.47292e-07
4.33632e-07
-9.36128e-07
6.61686e-07
-1.13088e-06
8.90875e-07
-1.28839e-06
1.15163e-06
-1.4428e-06
1.41377e-06
-1.61067e-06
1.69594e-06
-1.74538e-06
2.00193e-06
-1.97118e-06
2.29488e-06
-2.08226e-06
2.55864e-06
-2.17049e-06
2.80058e-06
-2.329e-06
3.09394e-06
-2.84474e-06
3.52914e-06
-3.87279e-06
4.1245e-06
-5.04323e-06
-6.05304e-06
4.84825e-06
6.34807e-09
-1.09498e-07
3.33237e-08
-3.7634e-07
1.05174e-07
-6.42585e-07
2.24126e-07
-8.66244e-07
3.90562e-07
-1.10256e-06
6.19576e-07
-1.3599e-06
9.02637e-07
-1.57145e-06
1.24443e-06
-1.78459e-06
1.56195e-06
-1.92818e-06
1.89723e-06
-2.08066e-06
2.22024e-06
-2.29419e-06
2.54819e-06
-2.41021e-06
2.86265e-06
-2.48495e-06
3.14444e-06
-2.61079e-06
3.44895e-06
-3.14925e-06
3.90561e-06
-4.32945e-06
4.53858e-06
-5.67621e-06
-6.7718e-06
5.25734e-06
4.22755e-09
-1.13726e-07
2.39427e-08
-3.96056e-07
8.15841e-08
-7.00227e-07
1.86859e-07
-9.71518e-07
3.33197e-07
-1.2489e-06
5.23354e-07
-1.55005e-06
7.90278e-07
-1.83837e-06
1.1494e-06
-2.14372e-06
1.57548e-06
-2.35426e-06
2.04985e-06
-2.55503e-06
2.4388e-06
-2.68314e-06
2.8316e-06
-2.80301e-06
3.23033e-06
-2.88369e-06
3.59826e-06
-2.97872e-06
3.9488e-06
-3.49979e-06
4.39992e-06
-4.78057e-06
5.01273e-06
-6.28902e-06
-7.45238e-06
5.69331e-06
1.19957e-09
-1.14926e-07
1.8701e-08
-4.13557e-07
6.86736e-08
-7.50199e-07
1.6162e-07
-1.06446e-06
2.89305e-07
-1.37659e-06
4.45999e-07
-1.70675e-06
6.54656e-07
-2.04703e-06
9.3315e-07
-2.42221e-06
1.3375e-06
-2.75861e-06
1.86481e-06
-3.08235e-06
2.41083e-06
-3.22916e-06
2.94406e-06
-3.33624e-06
3.4436e-06
-3.38323e-06
3.92353e-06
-3.45864e-06
4.42048e-06
-3.99675e-06
4.94902e-06
-5.30911e-06
5.52632e-06
-6.86632e-06
-8.02404e-06
6.09799e-06
4.04148e-09
-1.18967e-07
2.10095e-08
-4.30525e-07
6.34725e-08
-7.92662e-07
1.44802e-07
-1.14579e-06
2.60141e-07
-1.49193e-06
3.99886e-07
-1.84649e-06
5.66244e-07
-2.21339e-06
7.64629e-07
-2.6206e-06
1.05016e-06
-3.04415e-06
1.44974e-06
-3.48192e-06
2.00358e-06
-3.78299e-06
2.63079e-06
-3.96346e-06
3.25778e-06
-4.01022e-06
3.86112e-06
-4.06198e-06
4.50661e-06
-4.64223e-06
5.20491e-06
-6.00742e-06
5.83921e-06
-7.50062e-06
-8.49104e-06
6.3062e-06
8.43768e-09
-1.27405e-07
2.54939e-08
-4.47581e-07
5.56012e-08
-8.2277e-07
1.14126e-07
-1.20432e-06
2.01744e-07
-1.57954e-06
3.11275e-07
-1.95602e-06
4.39194e-07
-2.34131e-06
5.79159e-07
-2.76056e-06
7.47418e-07
-3.2124e-06
9.71529e-07
-3.70604e-06
1.32158e-06
-4.13305e-06
1.78327e-06
-4.42514e-06
2.31043e-06
-4.53739e-06
2.88703e-06
-4.63857e-06
3.54149e-06
-5.29669e-06
4.23911e-06
-6.70504e-06
4.79742e-06
-8.05893e-06
-8.8792e-06
5.18558e-06
1.39628e-08
-1.41368e-07
3.91504e-08
-4.72769e-07
6.86887e-08
-8.52308e-07
1.25593e-07
-1.26122e-06
2.13325e-07
-1.66728e-06
3.25984e-07
-2.06868e-06
4.61068e-07
-2.47639e-06
6.08669e-07
-2.90816e-06
7.67469e-07
-3.3712e-06
9.44504e-07
-3.88307e-06
1.19698e-06
-4.38552e-06
1.55788e-06
-4.78604e-06
2.03571e-06
-5.01521e-06
2.67361e-06
-5.27648e-06
3.5171e-06
-6.14017e-06
4.42813e-06
-7.61608e-06
5.04675e-06
-8.67754e-06
-9.33038e-06
5.49793e-06
1.78124e-08
-1.5918e-07
5.21135e-08
-5.07071e-07
8.81281e-08
-8.88323e-07
1.42456e-07
-1.31555e-06
2.25245e-07
-1.75007e-06
3.32616e-07
-2.17605e-06
4.64194e-07
-2.60797e-06
6.16029e-07
-3.06e-06
7.82306e-07
-3.53748e-06
9.47731e-07
-4.0485e-06
1.12257e-06
-4.56036e-06
1.33888e-06
-5.00235e-06
1.68164e-06
-5.35798e-06
2.32448e-06
-5.91932e-06
3.3342e-06
-7.14988e-06
4.27734e-06
-8.55922e-06
4.88439e-06
-9.2846e-06
-9.81471e-06
5.36872e-06
2.00047e-08
-1.79185e-07
6.41652e-08
-5.51231e-07
1.13667e-07
-9.37825e-07
1.61952e-07
-1.36384e-06
2.32982e-07
-1.8211e-06
3.29813e-07
-2.27289e-06
4.46108e-07
-2.72427e-06
5.85044e-07
-3.19893e-06
7.44446e-07
-3.69688e-06
9.01637e-07
-4.20569e-06
1.03526e-06
-4.69398e-06
1.17525e-06
-5.14234e-06
1.49276e-06
-5.67549e-06
2.2463e-06
-6.67286e-06
3.177e-06
-8.08059e-06
3.73017e-06
-9.11239e-06
4.15054e-06
-9.70497e-06
-1.02501e-05
4.58596e-06
1.97596e-08
-1.98945e-07
6.7459e-08
-5.98931e-07
1.29434e-07
-9.998e-07
1.82711e-07
-1.41711e-06
2.32043e-07
-1.87043e-06
3.05101e-07
-2.34594e-06
3.9684e-07
-2.816e-06
5.02176e-07
-3.30427e-06
6.16337e-07
-3.81104e-06
7.27937e-07
-4.31729e-06
8.52241e-07
-4.81828e-06
1.09562e-06
-5.38572e-06
1.64737e-06
-6.22724e-06
2.37249e-06
-7.39799e-06
2.74843e-06
-8.45652e-06
2.85798e-06
-9.22194e-06
3.00675e-06
-9.85374e-06
-1.04277e-05
3.18433e-06
1.57547e-08
-2.147e-07
5.5467e-08
-6.38644e-07
1.10239e-07
-1.05457e-06
1.67223e-07
-1.4741e-06
2.067e-07
-1.9099e-06
2.36759e-07
-2.376e-06
2.79873e-07
-2.85912e-06
3.32235e-07
-3.35663e-06
3.87859e-07
-3.86667e-06
4.72069e-07
-4.4015e-06
6.63956e-07
-5.01017e-06
1.05625e-06
-5.77802e-06
1.54302e-06
-6.714e-06
1.74913e-06
-7.6041e-06
1.66037e-06
-8.36776e-06
1.50285e-06
-9.06441e-06
1.32417e-06
-9.67507e-06
-1.0212e-05
1.10843e-06
5.83931e-09
-2.2054e-07
1.97137e-08
-6.52518e-07
3.78653e-08
-1.07272e-06
5.52081e-08
-1.49144e-06
6.38619e-08
-1.91856e-06
5.5609e-08
-2.36775e-06
5.01722e-08
-2.85368e-06
5.32029e-08
-3.35966e-06
8.09056e-08
-3.89437e-06
1.6131e-07
-4.4819e-06
3.05244e-07
-5.15411e-06
4.45502e-07
-5.91828e-06
4.36774e-07
-6.70527e-06
2.25676e-07
-7.393e-06
-7.31866e-08
-8.0689e-06
-4.27557e-07
-8.71004e-06
-8.25955e-07
-9.27667e-06
-9.72563e-06
-1.31228e-06
-1.32736e-08
-2.07267e-07
-4.99888e-08
-6.15804e-07
-1.05865e-07
-1.01685e-06
-1.74838e-07
-1.42247e-06
-2.4612e-07
-1.84728e-06
-3.02509e-07
-2.31136e-06
-3.521e-07
-2.80409e-06
-3.92857e-07
-3.31891e-06
-4.16895e-07
-3.87033e-06
-4.36753e-07
-4.46204e-06
-5.15794e-07
-5.07507e-06
-7.58156e-07
-5.67592e-06
-1.187e-06
-6.27643e-06
-1.65637e-06
-6.92363e-06
-2.20802e-06
-7.51725e-06
-2.8612e-06
-8.05686e-06
-3.60393e-06
-8.53394e-06
-8.88858e-06
-4.44098e-06
-2.30967e-08
-1.8417e-07
-8.39254e-08
-5.54975e-07
-1.72019e-07
-9.28755e-07
-2.71025e-07
-1.32346e-06
-3.52669e-07
-1.76563e-06
-4.22937e-07
-2.24109e-06
-5.09069e-07
-2.71796e-06
-6.10862e-07
-3.21711e-06
-7.28931e-07
-3.75227e-06
-8.81325e-07
-4.30965e-06
-1.09222e-06
-4.86417e-06
-1.37919e-06
-5.38895e-06
-1.7854e-06
-5.87022e-06
-2.37665e-06
-6.33238e-06
-3.171e-06
-6.7229e-06
-4.16764e-06
-7.06022e-06
-5.35413e-06
-7.34745e-06
-7.55998e-06
-6.68274e-06
-2.83859e-08
-1.55784e-07
-9.93418e-08
-4.84019e-07
-1.96037e-07
-8.32059e-07
-2.87703e-07
-1.2318e-06
-3.75031e-07
-1.67831e-06
-4.90582e-07
-2.12554e-06
-6.42567e-07
-2.56597e-06
-8.34342e-07
-3.02534e-06
-1.08349e-06
-3.50312e-06
-1.41366e-06
-3.97948e-06
-1.84385e-06
-4.43398e-06
-2.38027e-06
-4.85253e-06
-3.02564e-06
-5.22486e-06
-3.82425e-06
-5.53376e-06
-4.7883e-06
-5.75885e-06
-5.90963e-06
-5.93889e-06
-7.17415e-06
-6.08293e-06
-6.18545e-06
-8.54868e-06
-2.90061e-08
-1.26778e-07
-9.45597e-08
-4.18466e-07
-1.72917e-07
-7.53702e-07
-2.62081e-07
-1.14263e-06
-3.88152e-07
-1.55223e-06
-5.49673e-07
-1.96402e-06
-7.75403e-07
-2.34024e-06
-1.07753e-06
-2.72321e-06
-1.46819e-06
-3.11246e-06
-1.9598e-06
-3.48786e-06
-2.55767e-06
-3.83611e-06
-3.25508e-06
-4.15512e-06
-4.03e-06
-4.44994e-06
-4.89099e-06
-4.67277e-06
-5.89001e-06
-4.75984e-06
-6.95757e-06
-4.87133e-06
-8.09231e-06
-4.94819e-06
-5.01835e-06
-9.25941e-06
-2.37853e-08
-1.02993e-07
-6.89781e-08
-3.73273e-07
-1.36154e-07
-6.86526e-07
-2.54906e-07
-1.02388e-06
-4.27195e-07
-1.37995e-06
-6.43562e-07
-1.74765e-06
-9.62424e-07
-2.02138e-06
-1.37162e-06
-2.31402e-06
-1.8666e-06
-2.61748e-06
-2.4507e-06
-2.90376e-06
-3.12601e-06
-3.16081e-06
-3.89333e-06
-3.38779e-06
-4.75051e-06
-3.59276e-06
-5.67756e-06
-3.74571e-06
-6.62993e-06
-3.80747e-06
-7.59107e-06
-3.91019e-06
-8.53944e-06
-3.99982e-06
-4.06458e-06
-9.49322e-06
-8.97477e-09
-9.4018e-08
-4.49508e-08
-3.37297e-07
-1.29333e-07
-6.02144e-07
-2.7941e-07
-8.73805e-07
-5.12294e-07
-1.14706e-06
-8.48127e-07
-1.41182e-06
-1.22818e-06
-1.64133e-06
-1.66249e-06
-1.87972e-06
-2.15986e-06
-2.1201e-06
-2.72823e-06
-2.3354e-06
-3.3714e-06
-2.51763e-06
-4.10919e-06
-2.65001e-06
-4.95611e-06
-2.74584e-06
-5.79526e-06
-2.90656e-06
-6.50104e-06
-3.10169e-06
-7.25326e-06
-3.15797e-06
-8.00588e-06
-3.2472e-06
-3.29148e-06
-8.77898e-06
-6.12567e-09
-8.78924e-08
-5.87471e-08
-2.84676e-07
-1.61741e-07
-4.99151e-07
-3.26773e-07
-7.08773e-07
-5.94992e-07
-8.78842e-07
-9.72253e-07
-1.03456e-06
-1.31069e-06
-1.30288e-06
-1.67844e-06
-1.51197e-06
-2.1118e-06
-1.68674e-06
-2.60583e-06
-1.84137e-06
-3.15147e-06
-1.97199e-06
-3.73115e-06
-2.07032e-06
-4.33093e-06
-2.14606e-06
-4.9675e-06
-2.26999e-06
-5.62369e-06
-2.4455e-06
-6.27001e-06
-2.51165e-06
-6.93236e-06
-2.58484e-06
-2.62192e-06
-7.60191e-06
-1.91187e-08
-6.87739e-08
-8.77213e-08
-2.16073e-07
-1.93722e-07
-3.9315e-07
-3.48e-07
-5.54496e-07
-5.60624e-07
-6.66218e-07
-8.34644e-07
-7.60541e-07
-1.13966e-06
-9.97871e-07
-1.47784e-06
-1.17379e-06
-1.85779e-06
-1.30679e-06
-2.27962e-06
-1.41955e-06
-2.73753e-06
-1.51407e-06
-3.216e-06
-1.59186e-06
-3.70496e-06
-1.6571e-06
-4.22625e-06
-1.74871e-06
-4.8062e-06
-1.86555e-06
-5.37805e-06
-1.93981e-06
-5.97186e-06
-1.99103e-06
-2.02603e-06
-6.56775e-06
-2.16716e-08
-4.71025e-08
-7.8766e-08
-1.58979e-07
-1.79099e-07
-2.92817e-07
-3.21164e-07
-4.12431e-07
-4.94706e-07
-4.92677e-07
-7.01651e-07
-5.53596e-07
-9.73145e-07
-7.26378e-07
-1.28171e-06
-8.65222e-07
-1.6233e-06
-9.65203e-07
-1.99412e-06
-1.04873e-06
-2.39084e-06
-1.11735e-06
-2.80373e-06
-1.17897e-06
-3.2279e-06
-1.23293e-06
-3.67599e-06
-1.30062e-06
-4.16574e-06
-1.3758e-06
-4.67034e-06
-1.43521e-06
-5.18889e-06
-1.47248e-06
-1.5019e-06
-5.71303e-06
-1.57587e-08
-3.13442e-08
-6.51342e-08
-1.09605e-07
-1.59687e-07
-1.98265e-07
-2.93734e-07
-2.78385e-07
-4.5002e-07
-3.36392e-07
-6.23005e-07
-3.80612e-07
-8.585e-07
-4.90884e-07
-1.13487e-06
-5.88852e-07
-1.44324e-06
-6.56837e-07
-1.77913e-06
-7.12843e-07
-2.13488e-06
-7.61593e-07
-2.50747e-06
-8.06376e-07
-2.89517e-06
-8.45231e-07
-3.30518e-06
-8.90607e-07
-3.74469e-06
-9.36299e-07
-4.20482e-06
-9.75082e-07
-4.67941e-06
-9.97882e-07
-1.02026e-06
-5.16106e-06
-1.0752e-08
-2.05931e-08
-5.72987e-08
-6.30592e-08
-1.45037e-07
-1.10528e-07
-2.70345e-07
-1.53079e-07
-4.23628e-07
-1.8311e-07
-5.96378e-07
-2.07863e-07
-8.24825e-07
-2.62439e-07
-1.10439e-06
-3.09286e-07
-1.42134e-06
-3.39891e-07
-1.76644e-06
-3.67747e-07
-2.13763e-06
-3.90405e-07
-2.53343e-06
-4.10577e-07
-2.95062e-06
-4.2804e-07
-3.39452e-06
-4.46702e-07
-3.86557e-06
-4.65256e-07
-4.35997e-06
-4.80677e-07
-4.8685e-06
-4.89353e-07
-4.96772e-07
-5.39199e-06
-2.05932e-08
-8.36525e-08
-1.94181e-07
-3.47259e-07
-5.3037e-07
-7.38233e-07
-1.00067e-06
-1.30996e-06
-1.64985e-06
-2.0176e-06
-2.408e-06
-2.81858e-06
-3.24662e-06
-3.69332e-06
-4.15858e-06
-4.63925e-06
-5.12861e-06
-5.62538e-06
-1.01973e-05
1.01973e-05
-1.38923e-05
3.69503e-06
-1.34351e-05
-4.57225e-07
-1.06318e-05
-2.80327e-06
-5.82015e-06
-4.81167e-06
1.3433e-07
-5.95447e-06
6.16845e-06
-6.03412e-06
1.14625e-05
-5.29402e-06
1.55699e-05
-4.10743e-06
1.8237e-05
-2.66711e-06
1.95499e-05
-1.31288e-06
1.95687e-05
-1.87727e-08
1.82209e-05
1.3478e-06
1.56668e-05
2.55408e-06
1.16908e-05
3.97602e-06
6.42557e-06
5.26521e-06
-3.54524e-07
6.7801e-06
-8.6127e-06
8.25818e-06
-1.78265e-05
9.21376e-06
-2.78808e-05
1.00543e-05
-3.86302e-05
1.07495e-05
-4.90229e-05
1.03927e-05
-5.87975e-05
9.77453e-06
-6.77888e-05
8.9913e-06
-7.5527e-05
7.73824e-06
-8.08343e-05
5.30732e-06
-8.24544e-05
1.62011e-06
-8.02952e-05
-2.1592e-06
-7.45274e-05
-5.76782e-06
-6.49657e-05
-9.56172e-06
-5.13046e-05
-1.36611e-05
-3.41694e-05
-1.71353e-05
-1.45973e-05
-1.95721e-05
5.22227e-06
-1.98195e-05
2.33546e-05
-1.81323e-05
3.83815e-05
-1.50269e-05
4.53008e-05
-6.91933e-06
3.78874e-05
7.41337e-06
2.35804e-05
1.4307e-05
1.2196e-05
1.13844e-05
-6.61488e-05
7.83448e-05
-5.91091e-05
-7.03971e-06
8.36433e-05
-0.000142752
0.000136253
-5.26101e-05
0.000317672
-0.000181418
0.000521526
-0.000203854
0.000539553
-1.80271e-05
0.000527146
1.24074e-05
0.000501923
2.52232e-05
0.000471306
3.06166e-05
0.000437693
3.36132e-05
0.000404604
3.30888e-05
0.00037288
3.17242e-05
0.000343245
2.96353e-05
0.000315649
2.75953e-05
0.000290051
2.55979e-05
0.000265739
2.43122e-05
0.000242631
2.31078e-05
0.000220264
2.23671e-05
0.00019857
2.16944e-05
0.000177412
2.11583e-05
0.000156718
2.06939e-05
0.000136522
2.01955e-05
0.000116747
1.97756e-05
9.7281e-05
1.94657e-05
7.77853e-05
1.94957e-05
6.12375e-05
1.65478e-05
4.51054e-05
1.61321e-05
2.96719e-05
1.54336e-05
1.53437e-05
1.43281e-05
2.06024e-06
1.32835e-05
-1.01185e-05
1.21787e-05
-2.11341e-05
1.10156e-05
-3.08688e-05
9.73471e-06
-3.94499e-05
8.58113e-06
-4.68596e-05
7.40964e-06
-5.31535e-05
6.29393e-06
-5.84667e-05
5.31319e-06
-6.28363e-05
4.36959e-06
-6.63637e-05
3.52743e-06
-6.91013e-05
2.73759e-06
-7.11664e-05
2.06513e-06
-7.26742e-05
1.50779e-06
-7.37854e-05
1.11121e-06
-7.46666e-05
8.81216e-07
-7.54875e-05
8.20893e-07
-7.64794e-05
9.9187e-07
-7.78967e-05
1.41733e-06
-8.00405e-05
2.14387e-06
-8.323e-05
3.18953e-06
-8.7856e-05
4.626e-06
-9.43565e-05
6.50054e-06
-0.000103245
8.88873e-06
-0.000115091
1.18462e-05
-0.000130514
1.54231e-05
-0.000150149
1.96344e-05
-0.000174549
2.44004e-05
-0.000204248
2.9699e-05
-0.000239506
3.52579e-05
-0.000280074
4.05678e-05
-0.000325231
4.51571e-05
-0.000373867
4.86357e-05
-0.000424359
5.04922e-05
-0.000472926
4.85667e-05
-0.000517742
4.48163e-05
-0.000555171
3.74288e-05
-0.000581195
2.60242e-05
-0.00059356
1.23645e-05
-0.000591789
-1.7704e-06
-0.000575667
-1.6122e-05
-0.000547503
-2.81646e-05
-0.000509577
-3.79261e-05
-0.000465106
-4.44702e-05
-0.000417219
-4.78872e-05
-0.000367523
-4.96967e-05
-0.000319765
-4.77575e-05
-0.000276175
-4.35903e-05
-0.000236796
-3.93792e-05
-0.000200045
-3.67501e-05
-0.000166226
-3.38198e-05
-0.00013572
-3.05052e-05
-0.000108216
-2.75047e-05
-8.34617e-05
-2.47541e-05
-6.13066e-05
-2.21552e-05
-4.14461e-05
-1.98605e-05
-2.39393e-05
-1.75067e-05
-8.60217e-06
-1.53372e-05
4.73657e-06
-1.33387e-05
1.64211e-05
-1.16845e-05
2.69007e-05
-1.04797e-05
3.75374e-05
-1.06367e-05
4.71269e-05
-9.58952e-06
5.64689e-05
-9.34202e-06
6.60501e-05
-9.58115e-06
7.63125e-05
-1.02624e-05
8.75695e-05
-1.1257e-05
9.95806e-05
-1.20111e-05
0.000111476
-1.18952e-05
0.000122151
-1.06751e-05
0.000130187
-8.03636e-06
0.00013339
-3.20229e-06
0.000129754
3.63603e-06
0.000119462
1.02919e-05
0.000104701
1.47611e-05
8.73481e-05
1.73527e-05
6.82128e-05
1.91353e-05
4.82287e-05
1.99841e-05
2.90178e-05
1.92109e-05
1.22324e-05
1.67854e-05
-1.30646e-06
1.35388e-05
-1.17981e-05
1.04916e-05
-1.95658e-05
7.76768e-06
-2.44499e-05
4.88409e-06
-2.64608e-05
2.01095e-06
-2.64269e-05
-3.38992e-08
-2.55343e-05
-8.92603e-07
-2.46762e-05
-8.58158e-07
-2.43502e-05
-3.25934e-07
-2.47711e-05
4.20899e-07
-2.59108e-05
1.13968e-06
-2.75331e-05
1.62229e-06
-2.93081e-05
1.77504e-06
-3.03699e-05
1.06174e-06
-3.06405e-05
2.70583e-07
-2.98906e-05
-7.4992e-07
-2.84576e-05
-1.43295e-06
-2.67007e-05
-1.75686e-06
-2.49248e-05
-1.77591e-06
-2.34811e-05
-1.44371e-06
-2.24778e-05
-1.0033e-06
-2.23344e-05
-1.43484e-07
-2.29217e-05
5.8734e-07
-2.38231e-05
9.01414e-07
-2.45622e-05
7.39032e-07
-2.46787e-05
1.16503e-07
-2.41518e-05
-5.26924e-07
-2.29426e-05
-1.20918e-06
-2.10551e-05
-1.88754e-06
-1.81239e-05
-2.93114e-06
-3.7311e-06
-1.43928e-05
-7.40392e-06
1.76012e-05
-8.26945e-06
4.56056e-06
-5.9348e-06
-2.79187e-06
-1.94935e-06
-6.78872e-06
2.93921e-06
-9.70023e-06
8.22998e-06
-1.12452e-05
1.37247e-05
-1.15289e-05
1.91249e-05
-1.06942e-05
2.39896e-05
-8.97211e-06
2.80346e-05
-6.71212e-06
3.08206e-05
-4.0989e-06
3.20986e-05
-1.29668e-06
3.18048e-05
1.64151e-06
2.96305e-05
4.72848e-06
2.57139e-05
7.89259e-06
1.9926e-05
1.10531e-05
1.24367e-05
1.42694e-05
3.33614e-06
1.73588e-05
-7.34141e-06
1.98913e-05
-1.93039e-05
2.20169e-05
-3.19711e-05
2.34166e-05
-4.47006e-05
2.31222e-05
-5.67292e-05
2.18032e-05
-6.71813e-05
1.94434e-05
-7.49296e-05
1.54865e-05
-7.92136e-05
9.59137e-06
-8.04811e-05
2.88764e-06
-7.80482e-05
-4.59218e-06
-7.15711e-05
-1.22449e-05
-6.12958e-05
-1.9837e-05
-4.81032e-05
-2.68536e-05
-3.24703e-05
-3.27682e-05
-1.49289e-05
-3.71135e-05
3.96197e-06
-3.87104e-05
2.35628e-05
-3.77331e-05
3.88034e-05
-3.02675e-05
5.43268e-05
-2.24428e-05
5.75469e-05
4.19335e-06
3.25112e-05
3.93427e-05
9.73928e-05
-5.34971e-05
0.000254424
-7.86862e-05
0.000428103
-0.000180719
0.000564865
-0.000279514
0.000672661
-0.000160406
0.000589027
-9.7784e-05
0.0004601
-7.49275e-05
0.000435195
6.87832e-06
0.00041362
3.39817e-05
0.000383468
5.53759e-05
0.00035486
5.92246e-05
0.000327796
6.06764e-05
0.00030359
5.7295e-05
0.000281867
5.34472e-05
0.000262034
4.94689e-05
0.00024368
4.59486e-05
0.000226362
4.29168e-05
0.000209767
4.09065e-05
0.000193755
3.91204e-05
0.000178037
3.8085e-05
0.000162473
3.72577e-05
0.000146969
3.66622e-05
0.000131526
3.61378e-05
0.000116244
3.5477e-05
0.000101264
3.47561e-05
8.64694e-05
3.42599e-05
7.34905e-05
3.24747e-05
5.81133e-05
3.1925e-05
4.36349e-05
3.06104e-05
3.00195e-05
2.9049e-05
1.7041e-05
2.73067e-05
5.07936e-06
2.52451e-05
-5.91208e-06
2.31702e-05
-1.59457e-05
2.10492e-05
-2.46243e-05
1.84133e-05
-3.21354e-05
1.60922e-05
-3.8747e-05
1.40212e-05
-4.44458e-05
1.19927e-05
-4.93344e-05
1.02018e-05
-5.34108e-05
8.44601e-06
-5.66635e-05
6.78017e-06
-5.91778e-05
5.25187e-06
-6.10168e-05
3.90415e-06
-6.23077e-05
2.79863e-06
-6.31717e-05
1.97525e-06
-6.37631e-05
1.47262e-06
-6.42392e-05
1.29703e-06
-6.47834e-05
1.5361e-06
-6.56276e-05
2.26149e-06
-6.70211e-05
3.5375e-06
-6.92682e-05
5.43659e-06
-7.27139e-05
8.07179e-06
-7.77758e-05
1.15625e-05
-8.49233e-05
1.60362e-05
-9.4724e-05
2.1647e-05
-0.000107803
2.85023e-05
-0.000124839
3.66702e-05
-0.00014657
4.61316e-05
-0.000173588
5.67172e-05
-0.00020626
6.79298e-05
-0.000244644
7.89515e-05
-0.000288312
8.88253e-05
-0.000336017
9.634e-05
-0.000386784
0.000101259
-0.000439976
0.000101759
-0.000487752
9.25922e-05
-0.000526222
7.58992e-05
-0.000552824
5.26259e-05
-0.000565773
2.53132e-05
-0.00056363
-3.9128e-06
-0.000549236
-3.05164e-05
-0.00052275
-5.46509e-05
-0.000486879
-7.37971e-05
-0.000442977
-8.8372e-05
-0.000394749
-9.61152e-05
-0.000349824
-9.46217e-05
-0.000307855
-8.9726e-05
-0.000266722
-8.47235e-05
-0.000227166
-7.89352e-05
-0.000191389
-7.25273e-05
-0.000159432
-6.57772e-05
-0.00013112
-5.88167e-05
-0.000106054
-5.25705e-05
-8.37487e-05
-4.70597e-05
-6.38766e-05
-4.20272e-05
-4.64804e-05
-3.72568e-05
-3.11871e-05
-3.28e-05
-1.78596e-05
-2.86646e-05
-6.32465e-06
-2.48738e-05
3.70928e-06
-2.17184e-05
1.22179e-05
-1.89883e-05
1.85924e-05
-1.70112e-05
2.46226e-05
-1.56197e-05
2.98635e-05
-1.45829e-05
3.46001e-05
-1.43178e-05
3.9118e-05
-1.47803e-05
4.35268e-05
-1.56657e-05
4.80226e-05
-1.6507e-05
5.32343e-05
-1.71068e-05
5.96402e-05
-1.7081e-05
6.69881e-05
-1.53843e-05
7.51836e-05
-1.13978e-05
8.48342e-05
-6.01455e-06
9.56007e-05
-4.74601e-07
0.000105539
4.82326e-06
0.00011325
9.6415e-06
0.000118851
1.35344e-05
0.000122632
1.6203e-05
0.000124173
1.76701e-05
0.000122813
1.81446e-05
0.000118403
1.79495e-05
0.000111562
1.73322e-05
0.000103019
1.63113e-05
9.25875e-05
1.53151e-05
7.96037e-05
1.49948e-05
6.41844e-05
1.53854e-05
4.70983e-05
1.61936e-05
2.89748e-05
1.72653e-05
1.01356e-05
1.85132e-05
-9.22402e-06
1.97805e-05
-2.86653e-05
2.05809e-05
-4.71893e-05
2.01463e-05
-6.35303e-05
1.8116e-05
-7.59331e-05
1.34645e-05
-8.44635e-05
8.80101e-06
-8.77161e-05
2.50264e-06
-8.50959e-05
-4.05309e-06
-7.69898e-05
-9.86303e-06
-6.50068e-05
-1.37589e-05
-5.16683e-05
-1.47822e-05
-3.86773e-05
-1.39943e-05
-2.77604e-05
-1.10604e-05
-1.93681e-05
-7.80503e-06
-1.36118e-05
-4.8548e-06
-1.07727e-05
-2.10015e-06
-1.10017e-05
3.45551e-07
-1.37393e-05
2.21069e-06
-1.79408e-05
2.99228e-06
-2.26114e-05
2.78301e-06
-2.71129e-05
1.57033e-06
-5.44228e-07
-3.02998e-05
-2.67383e-06
2.0275e-05
1.54971e-06
3.37017e-07
7.75349e-06
-8.99565e-06
1.38794e-05
-1.29146e-05
1.8953e-05
-1.47738e-05
2.30425e-05
-1.53348e-05
2.65064e-05
-1.49928e-05
2.965e-05
-1.38378e-05
3.25921e-05
-1.19141e-05
3.51761e-05
-9.29615e-06
3.70734e-05
-5.9962e-06
3.78624e-05
-2.08565e-06
3.72095e-05
2.29437e-06
3.48495e-05
7.08855e-06
3.06399e-05
1.21022e-05
2.4316e-05
1.7377e-05
1.59097e-05
2.26757e-05
5.57751e-06
2.7691e-05
-6.73564e-06
3.22045e-05
-2.08596e-05
3.61408e-05
-3.66526e-05
3.92096e-05
-5.35653e-05
4.00349e-05
-6.97133e-05
3.79512e-05
-8.38347e-05
3.35647e-05
-9.46936e-05
2.63454e-05
-0.000100557
1.54552e-05
-0.000101626
3.956e-06
-9.65531e-05
-9.66491e-06
-8.52218e-05
-2.35761e-05
-6.86365e-05
-3.64223e-05
-4.81577e-05
-4.73325e-05
-2.51584e-05
-5.57675e-05
-8.42022e-07
-6.14299e-05
2.47245e-05
-6.42769e-05
5.04409e-05
-6.34495e-05
7.68332e-05
-5.66598e-05
0.000101545
-4.71541e-05
0.000139665
-3.39271e-05
0.000245703
-6.66955e-05
0.000393478
-0.000201272
0.000597101
-0.00028231
0.000646053
-0.000229671
0.000541266
-0.000174727
0.000473477
-9.26175e-05
0.000412405
-3.67121e-05
0.000331751
5.72646e-06
0.000297663
4.09667e-05
0.000277316
5.43281e-05
0.000267015
6.56769e-05
0.000259135
6.71052e-05
0.000253087
6.67238e-05
0.000246329
6.40536e-05
0.000238617
6.11585e-05
0.000229898
5.81881e-05
0.000220138
5.57089e-05
0.000208951
5.41031e-05
0.000196959
5.28988e-05
0.000183894
5.21856e-05
0.000170028
5.19506e-05
0.000155497
5.17891e-05
0.000140436
5.17236e-05
0.000125025
5.15486e-05
0.000109374
5.11283e-05
9.37801e-05
5.03494e-05
7.84676e-05
4.95724e-05
6.32668e-05
4.76755e-05
4.9092e-05
4.60998e-05
3.56048e-05
4.40976e-05
2.30321e-05
4.16217e-05
1.14213e-05
3.89175e-05
9.31575e-07
3.57348e-05
-8.3022e-06
3.24039e-05
-1.66107e-05
2.93577e-05
-2.36372e-05
2.54399e-05
-2.96029e-05
2.20579e-05
-3.49801e-05
1.93984e-05
-3.94852e-05
1.64978e-05
-4.30851e-05
1.38017e-05
-4.58407e-05
1.12015e-05
-4.78245e-05
8.76399e-06
-4.91394e-05
6.56678e-06
-4.98786e-05
4.64331e-06
-5.0148e-05
3.06804e-06
-5.00652e-05
1.89246e-06
-4.97551e-05
1.16259e-06
-4.93518e-05
8.93726e-07
-4.89975e-05
1.18183e-06
-4.8863e-05
2.12699e-06
-4.9142e-05
3.81646e-06
-5.00635e-05
6.35815e-06
-5.1899e-05
9.90732e-06
-5.4992e-05
1.46555e-05
-5.97332e-05
2.07775e-05
-6.65865e-05
2.85003e-05
-7.6117e-05
3.80328e-05
-8.90095e-05
4.95627e-05
-0.00010606
6.31818e-05
-0.000128118
7.87753e-05
-0.000155967
9.57787e-05
-0.000190035
0.00011302
-0.000230171
0.000128961
-0.000275479
0.000141648
-0.000324221
0.000150001
-0.000374353
0.000151892
-0.000422105
0.000140344
-0.000462148
0.000115943
-0.00048901
7.94879e-05
-0.00050184
3.8143e-05
-0.000500598
-5.15462e-06
-0.000485655
-4.54601e-05
-0.000460638
-7.96671e-05
-0.000428207
-0.000106228
-0.000391442
-0.000125137
-0.000352284
-0.000135273
-0.000312246
-0.00013466
-0.000272637
-0.000129335
-0.000232824
-0.000124537
-0.000194027
-0.000117732
-0.000160699
-0.000105855
-0.000132628
-9.38483e-05
-0.000107999
-8.34459e-05
-8.62038e-05
-7.43656e-05
-6.68733e-05
-6.63902e-05
-4.9832e-05
-5.90685e-05
-3.49182e-05
-5.21706e-05
-2.19625e-05
-4.57558e-05
-1.07724e-05
-3.98546e-05
-1.14985e-06
-3.44964e-05
7.04095e-06
-2.99092e-05
1.40681e-05
-2.60155e-05
1.99751e-05
-2.29182e-05
2.49249e-05
-2.05696e-05
2.91877e-05
-1.88457e-05
3.28206e-05
-1.79506e-05
3.59791e-05
-1.79389e-05
3.88351e-05
-1.85218e-05
4.16076e-05
-1.92795e-05
4.45878e-05
-2.0087e-05
4.80998e-05
-2.05929e-05
5.25936e-05
-1.9878e-05
5.86763e-05
-1.74806e-05
6.67525e-05
-1.40907e-05
7.68012e-05
-1.05233e-05
8.84178e-05
-6.79332e-06
0.000100759
-2.69947e-06
0.000112812
1.48086e-06
0.00012379
5.22522e-06
0.000133095
8.36517e-06
0.0001402
1.104e-05
0.000144445
1.37044e-05
0.000145121
1.66557e-05
0.000141811
1.96217e-05
0.000134264
2.28624e-05
0.000122292
2.69663e-05
0.000106131
3.15466e-05
8.65627e-05
3.57616e-05
6.45912e-05
3.92368e-05
4.11758e-05
4.19287e-05
1.72301e-05
4.37261e-05
-6.30776e-06
4.41188e-05
-2.84514e-05
4.22899e-05
-4.81197e-05
3.77843e-05
-6.48748e-05
3.02197e-05
-7.68906e-05
2.08168e-05
-8.39062e-05
9.51818e-06
-8.5683e-05
-2.27625e-06
-8.2489e-05
-1.30571e-05
-7.4902e-05
-2.13459e-05
-6.4455e-05
-2.52292e-05
-5.1807e-05
-2.66423e-05
-3.93095e-05
-2.35578e-05
-2.80076e-05
-1.91069e-05
-1.91618e-05
-1.37007e-05
-1.35177e-05
-7.74424e-06
-1.12456e-05
-1.92655e-06
-1.18693e-05
2.83439e-06
-1.48221e-05
5.94501e-06
-1.93969e-05
7.35781e-06
-2.51773e-05
7.35071e-06
5.34392e-06
-3.10654e-05
1.72496e-06
1.85501e-05
9.1797e-06
-7.11773e-06
1.73564e-05
-1.71724e-05
2.466e-05
-2.02182e-05
3.03694e-05
-2.04832e-05
3.476e-05
-1.97254e-05
3.82727e-05
-1.85055e-05
4.12955e-05
-1.68607e-05
4.40027e-05
-1.46214e-05
4.6245e-05
-1.15384e-05
4.76924e-05
-7.44356e-06
4.79795e-05
-2.3728e-06
4.67436e-05
3.53032e-06
4.36618e-05
1.01703e-05
3.8457e-05
1.7307e-05
3.10694e-05
2.47645e-05
2.13277e-05
3.24174e-05
8.71479e-06
4.03039e-05
-7.26834e-06
4.81876e-05
-2.65154e-05
5.53878e-05
-4.81964e-05
6.08906e-05
-7.10957e-05
6.29343e-05
-9.36397e-05
6.04951e-05
-0.000113729
5.36542e-05
-0.000129373
4.1989e-05
-0.000137867
2.39497e-05
-0.000139512
5.60047e-06
-0.000132538
-1.6639e-05
-0.000117066
-3.90482e-05
-9.39579e-05
-5.95299e-05
-6.3352e-05
-7.79384e-05
-2.71066e-05
-9.20129e-05
1.18169e-05
-0.000100353
5.03574e-05
-0.000102817
8.8862e-05
-0.000101954
0.00013408
-0.000101878
0.000184255
-9.73288e-05
0.00028863
-0.000138302
0.000460564
-0.00023863
0.000551422
-0.00029213
0.000529689
-0.000260576
0.00046418
-0.000164162
0.000376736
-8.72825e-05
0.000311744
-2.76257e-05
0.000269249
5.78245e-06
0.000240177
3.47983e-05
0.000229156
5.19884e-05
0.000223577
5.99067e-05
0.000224222
6.5032e-05
0.000225223
6.61044e-05
0.000225887
6.60596e-05
0.000224656
6.52848e-05
0.000221361
6.44534e-05
0.000215668
6.38813e-05
0.000207833
6.35436e-05
0.000197976
6.39602e-05
0.000186394
6.44809e-05
0.00017331
6.52698e-05
0.000159061
6.61991e-05
0.000143793
6.70569e-05
0.000127767
6.775e-05
0.000111222
6.80938e-05
9.44154e-05
6.79346e-05
7.74703e-05
6.72946e-05
6.11816e-05
6.5861e-05
4.44822e-05
6.43749e-05
2.85945e-05
6.19875e-05
1.35868e-05
5.91053e-05
-5.00829e-07
5.57094e-05
-1.34795e-05
5.18961e-05
-2.5255e-05
4.75103e-05
-3.56026e-05
4.27516e-05
-4.47062e-05
3.84613e-05
-5.24878e-05
3.32214e-05
-5.86895e-05
2.82596e-05
-6.36749e-05
2.43837e-05
-6.73251e-05
2.01481e-05
-6.96513e-05
1.61279e-05
-7.08546e-05
1.24048e-05
-7.11133e-05
9.02271e-06
-7.05874e-05
6.04088e-06
-6.94393e-05
3.49522e-06
-6.78276e-05
1.45638e-06
-6.58973e-05
-3.78432e-08
-6.37844e-05
-9.50346e-07
-6.16239e-05
-1.26672e-06
-5.95216e-05
-9.20447e-07
-5.76113e-05
2.16684e-07
-5.60463e-05
2.25147e-06
-5.49784e-05
5.29028e-06
-5.45653e-05
9.49427e-06
-5.5007e-05
1.50973e-05
-5.65784e-05
2.23489e-05
-5.96325e-05
3.15545e-05
-6.46551e-05
4.30554e-05