/*--------------------------------*- C++ -*----------------------------------*\
| =========                 |                                                 |
| \\      /  F ield         | OpenFOAM: The Open Source CFD Toolbox           |
|  \\    /   O peration     | Version:  2112                                  |
|   \\  /    A nd           | Website:  www.openfoam.com                      |
|    \\/     M anipulation  |                                                 |
\*---------------------------------------------------------------------------*/
FoamFile
{
    version     2.0;
    format      ascii;
    arch        "LSB;label=32;scalar=64";
    class       volScalarField;
    location    "0.04";
    object      nut;
}
// * * * * * * * * * * * * * * * * * * * * * * * * * * * * * * * * * * * * * //

dimensions      [0 2 -1 0 0 0 0];

internalField   nonuniform List<scalar> 
12225
(
6.45575e-06
1.12325e-05
1.61086e-05
1.95906e-05
2.18283e-05
2.25781e-05
2.27806e-05
2.25837e-05
2.19989e-05
2.12851e-05
2.05634e-05
1.98266e-05
1.91584e-05
1.85178e-05
1.79285e-05
1.74567e-05
1.68707e-05
1.67082e-05
0.000199642
7.6581e-05
5.00475e-05
3.98914e-05
3.50214e-05
3.22806e-05
3.0585e-05
2.949e-05
2.87457e-05
2.82808e-05
2.79862e-05
2.78793e-05
2.78664e-05
2.80552e-05
2.81716e-05
2.8579e-05
2.90104e-05
2.91558e-05
0.00211046
0.000756275
0.000468281
0.000298923
0.000212873
0.000161101
0.000133103
0.000112016
9.93686e-05
8.85008e-05
8.1743e-05
7.52932e-05
7.13222e-05
6.72384e-05
6.47813e-05
6.18876e-05
6.03441e-05
5.86299e-05
0.00338031
0.00309636
0.00209752
0.00142413
0.00108056
0.000815448
0.000680396
0.000557725
0.000492236
0.000424743
0.000388463
0.000346839
0.000324512
0.000297784
0.000283458
0.000262053
0.00025552
0.000240855
0.0037029
0.00463427
0.0047874
0.0036052
0.00295689
0.00236636
0.00204704
0.0017271
0.00154959
0.00135759
0.00125024
0.0011253
0.00105523
0.000972058
0.000924207
0.000856828
0.000834889
0.000783175
0.00425938
0.00475286
0.00548981
0.00604454
0.00522111
0.00446432
0.00399461
0.00351259
0.00321235
0.00289369
0.00269417
0.00247141
0.00233393
0.00217488
0.00207692
0.00194696
0.00189606
0.00178837
0.00504489
0.00525782
0.00537933
0.00572443
0.00594991
0.00628483
0.00595987
0.00544325
0.00508285
0.00470423
0.0044381
0.00415293
0.00395787
0.00373825
0.00359391
0.00341032
0.00332896
0.00316226
0.00597115
0.00610445
0.00572452
0.00553322
0.00554737
0.00577249
0.00616331
0.00664667
0.00676901
0.00640217
0.00612906
0.00583896
0.00562006
0.00537926
0.00521019
0.00500316
0.00489406
0.00469979
0.00715267
0.0070555
0.00638031
0.00581422
0.00548789
0.00542428
0.00562074
0.00599455
0.00645254
0.00692888
0.00733298
0.0072661
0.00705944
0.00683904
0.00667225
0.00647797
0.00635999
0.006174
0.00867975
0.00812333
0.00715682
0.00633321
0.00578439
0.00550558
0.00543036
0.00552637
0.00579229
0.00619228
0.00665418
0.00705823
0.00729208
0.00732805
0.00724452
0.00721784
0.00727218
0.00735966
0.00946681
0.00928435
0.0080242
0.00698835
0.00627231
0.00584867
0.00561458
0.00551412
0.00553807
0.00569637
0.00598634
0.00637423
0.00672391
0.00695395
0.00711082
0.00735578
0.00768647
0.00803759
0.00946645
0.00946703
0.00889251
0.0077005
0.00683275
0.00629504
0.00597576
0.005778
0.00566652
0.00565387
0.00575623
0.00597841
0.00626537
0.00655524
0.00688252
0.00736495
0.00797309
0.00860836
0.00946621
0.00946631
0.00946711
0.0084988
0.00748275
0.00681567
0.0064203
0.00617487
0.00601335
0.00592063
0.00590366
0.00598149
0.00614666
0.00639224
0.00678995
0.00744806
0.00833168
0.00922833
0.00946604
0.0094656
0.00946613
0.00939918
0.00830444
0.00748777
0.0069885
0.00669157
0.00650849
0.00639659
0.00633664
0.006326
0.00637474
0.00654689
0.00699072
0.0078415
0.00897462
0.00939745
0.00946589
0.00946511
0.00946496
0.00946579
0.00915782
0.00828684
0.00767412
0.0073084
0.00710089
0.00699277
0.00693744
0.00689805
0.00690143
0.00710555
0.00773336
0.00879741
0.00946188
0.00945633
0.00946579
0.00946468
0.00946422
0.00946435
0.00946527
0.00905266
0.00840427
0.00798072
0.00774409
0.007625
0.00756838
0.00755705
0.00768751
0.00817733
0.00907647
0.00947039
0.0094702
0.00946915
0.00946572
0.0094644
0.00946364
0.00946345
0.00946389
0.00946472
0.00901958
0.00859399
0.00834326
0.00821647
0.00819286
0.00833418
0.00876704
0.00946982
0.00947012
0.00947038
0.0094704
0.00947015
0.00946568
0.00946427
0.00946329
0.00946297
0.009463
0.0094638
0.00941798
0.00902842
0.00879333
0.00870952
0.00878597
0.0090839
0.00946859
0.009469
0.00946936
0.00946965
0.00946974
0.00946975
0.00946569
0.0094643
0.00946331
0.00946294
0.00946294
0.00946363
0.00946435
0.00916617
0.00896134
0.00890995
0.00898678
0.00918221
0.00946228
0.00946889
0.00946931
0.00946966
0.00946995
0.00947027
0.00946577
0.00946451
0.00946376
0.00946354
0.00946384
0.00946461
0.00929157
0.00891759
0.00870844
0.00863133
0.00863071
0.00866691
0.00872247
0.00879468
0.00885758
0.00887055
0.00878305
0.00850201
0.0094659
0.00946486
0.00946455
0.00946448
0.00946523
0.00938168
0.00880419
0.00841132
0.00819669
0.00808502
0.00802495
0.00798098
0.0079305
0.00786656
0.00777887
0.00765766
0.00749555
0.00723573
0.00946613
0.00946544
0.00946545
0.00946502
0.00937188
0.00864038
0.00809207
0.0077694
0.00759356
0.00749573
0.00743526
0.00738514
0.00732834
0.00726089
0.00717297
0.00706172
0.00693193
0.00673555
0.00946665
0.00946539
0.00946335
0.009212
0.00843062
0.00781689
0.00747122
0.00732284
0.00728195
0.00728712
0.00731014
0.00733128
0.00734066
0.00732251
0.00727332
0.00719662
0.00709846
0.00693428
0.00946608
0.00945914
0.00885486
0.00831928
0.00785069
0.0075422
0.00742972
0.00743726
0.00750461
0.00758975
0.00767497
0.00775371
0.00765328
0.00746931
0.00728479
0.00712445
0.00695794
0.0068226
0.00785087
0.00793393
0.00810638
0.0081004
0.00790454
0.00780397
0.00740021
0.00700429
0.00660421
0.00627483
0.00594888
0.0056828
0.0054195
0.00520614
0.00498924
0.00481799
0.0046367
0.00450147
0.00608831
0.00712302
0.00774365
0.00678332
0.00591322
0.00530257
0.00470369
0.00427608
0.0038505
0.00354966
0.00324667
0.00303302
0.00281243
0.00265782
0.00249251
0.00237856
0.00225084
0.00216579
0.00521945
0.00596079
0.00433204
0.00334643
0.00268085
0.00224677
0.00185101
0.00160195
0.00136983
0.0012264
0.00108342
0.000994894
0.000900662
0.00084255
0.000776929
0.000736842
0.000689063
0.000660311
0.00405802
0.00176703
0.00110851
0.000774219
0.000593045
0.000464731
0.000366479
0.000305488
0.000257656
0.000227744
0.000201395
0.000184538
0.000168302
0.000157856
0.000147038
0.000140093
0.000132475
0.000127596
0.000439189
0.000169989
0.000106484
7.88777e-05
6.41059e-05
5.59394e-05
5.07828e-05
4.7543e-05
4.51632e-05
4.3572e-05
4.22856e-05
4.14258e-05
4.06865e-05
4.02241e-05
3.98151e-05
3.96021e-05
3.94186e-05
3.93759e-05
6.39144e-06
1.0551e-05
1.52053e-05
1.98097e-05
2.35974e-05
2.65562e-05
2.84412e-05
2.97502e-05
3.02042e-05
3.0427e-05
3.03961e-05
3.00949e-05
2.96758e-05
2.91962e-05
2.86817e-05
2.81634e-05
2.76492e-05
2.71504e-05
3.90219e-08
3.75903e-07
6.88415e-07
1.36949e-06
2.04384e-06
2.54771e-06
2.94219e-06
3.28317e-06
3.68313e-06
4.0049e-06
4.70514e-06
5.00584e-06
5.56386e-06
5.85935e-06
6.44273e-06
6.94049e-06
7.62351e-06
8.29063e-06
9.01126e-06
9.76464e-06
1.0643e-05
1.14718e-05
1.23695e-05
1.31192e-05
1.41266e-05
1.49723e-05
1.60038e-05
1.7127e-05
1.85917e-05
2.00375e-05
2.17109e-05
2.32395e-05
2.41345e-05
2.35847e-05
2.24601e-05
2.05845e-05
1.78506e-05
1.4771e-05
1.20391e-05
1.19643e-05
1.31904e-05
2.01446e-05
2.44164e-05
2.35541e-05
2.35668e-05
3.73053e-05
5.96863e-05
6.91922e-05
7.4071e-05
7.58698e-05
7.60765e-05
7.5423e-05
7.43679e-05
7.30968e-05
7.17688e-05
7.04234e-05
6.91357e-05
6.78324e-05
6.65738e-05
6.5445e-05
6.43566e-05
6.33262e-05
6.23016e-05
6.14041e-05
6.04901e-05
5.96855e-05
5.88988e-05
5.8178e-05
5.75561e-05
5.69788e-05
5.64839e-05
5.60224e-05
5.56258e-05
5.52506e-05
5.4918e-05
5.46026e-05
5.43025e-05
5.40205e-05
5.37307e-05
5.34572e-05
5.31606e-05
5.28732e-05
5.25562e-05
5.22376e-05
5.1891e-05
5.15308e-05
5.11508e-05
5.07493e-05
5.03405e-05
4.99094e-05
4.95068e-05
4.9104e-05
4.87592e-05
4.84615e-05
4.8271e-05
4.82102e-05
4.83496e-05
4.87671e-05
4.94989e-05
5.06216e-05
5.2239e-05
5.45044e-05
5.76048e-05
6.18337e-05
6.45271e-05
6.29916e-05
6.13514e-05
5.96238e-05
5.79261e-05
5.66614e-05
5.65818e-05
5.724e-05
5.78872e-05
5.84941e-05
5.9029e-05
5.93276e-05
5.78944e-05
5.34847e-05
5.02444e-05
4.78098e-05
4.59603e-05
4.45645e-05
4.35157e-05
4.27506e-05
4.2199e-05
4.18311e-05
4.16329e-05
4.1557e-05
4.15058e-05
4.15009e-05
4.15792e-05
4.15787e-05
4.1513e-05
4.14569e-05
4.13639e-05
4.11625e-05
4.08615e-05
4.04407e-05
3.98826e-05
3.91781e-05
3.83305e-05
3.73654e-05
3.63341e-05
3.52962e-05
3.43056e-05
3.34053e-05
3.26241e-05
3.19828e-05
3.14821e-05
3.1116e-05
3.08731e-05
3.07326e-05
3.06709e-05
3.06689e-05
3.07009e-05
3.07336e-05
3.07328e-05
3.06753e-05
3.05463e-05
3.03435e-05
3.00717e-05
2.97441e-05
2.9375e-05
2.89858e-05
2.8597e-05
2.82257e-05
2.78859e-05
2.75872e-05
2.73445e-05
2.71614e-05
2.70454e-05
2.69745e-05
2.69456e-05
2.69479e-05
2.69464e-05
2.70054e-05
2.69626e-05
2.70319e-05
2.68039e-05
2.70725e-05
3.22886e-07
7.1096e-07
2.4927e-06
9.77458e-06
2.20202e-05
2.89589e-05
3.22333e-05
3.45216e-05
3.68344e-05
3.91755e-05
4.42008e-05
4.82927e-05
5.68676e-05
6.41095e-05
7.48194e-05
8.74829e-05
0.000100849
0.000118845
0.000140009
0.000167532
0.000202621
0.000237233
0.000250155
0.000261484
0.000264903
0.00026449
0.000248445
0.000224632
0.000195088
0.000162565
0.000131265
0.000103717
7.96037e-05
6.15979e-05
4.82812e-05
3.84988e-05
3.2857e-05
2.63439e-05
2.77418e-05
3.31572e-05
4.23137e-05
5.50499e-05
9.4777e-05
7.2311e-05
6.65425e-05
7.85026e-05
8.49678e-05
8.82749e-05
9.75951e-05
0.000107485
0.000119811
0.000130776
0.000145913
0.000158625
0.000175998
0.00019045
0.000209229
0.000224795
0.000243863
0.00025878
0.000276452
0.000289385
0.00030371
0.000312837
0.000321224
0.000326822
0.000331092
0.000332713
0.00033512
0.000336218
0.000337819
0.000339065
0.000340039
0.000341563
0.000342429
0.00034412
0.000345351
0.000347202
0.000349048
0.000351162
0.000353626
0.000356193
0.000359187
0.000362365
0.000365853
0.000369686
0.000373704
0.000378151
0.00038279
0.000387824
0.000392935
0.000398301
0.000403726
0.000409273
0.000414803
0.000420273
0.00042555
0.000430334
0.000435028
0.000439586
0.00044408
0.000448561
0.000453518
0.000457274
0.000428311
0.000408145
0.000396598
0.000391795
0.000392917
0.000400622
0.000414911
0.000435544
0.000462695
0.000497295
0.000536496
0.000551752
0.000551075
0.000548974
0.000543701
0.000534905
0.000522738
0.000508501
0.000492495
0.000474524
0.000456684
0.000437459
0.000417637
0.000399206
0.000378811
0.000361257
0.000343674
0.00032274
0.000300511
0.000278115
0.000255792
0.00023407
0.000213635
0.000194321
0.000175821
0.000158882
0.000144535
0.00013211
0.000120903
0.000111953
0.000106217
0.000102326
9.91603e-05
9.68232e-05
9.60592e-05
9.67274e-05
9.91103e-05
0.00010301
0.000107836
0.000113516
0.000120777
0.000128096
0.000134214
0.000138788
0.000141842
0.000143708
0.000144402
0.000144127
0.000142552
0.000139816
0.000136251
0.000131712
0.00012636
0.000120945
0.000116076
0.000112392
0.000109792
0.000108407
0.000107478
0.000107394
0.00010722
0.000108855
0.000108281
0.000108427
0.000106032
9.04447e-05
8.23961e-07
2.0869e-06
9.73622e-06
3.98062e-05
7.33774e-05
8.75366e-05
9.73356e-05
0.000105594
0.000114231
0.000124774
0.000136959
0.000151735
0.000167824
0.000187815
0.00020809
0.000235688
0.00026457
0.000305275
0.000354876
0.000411423
0.0004763
0.00054463
0.000539654
0.000518714
0.000494818
0.000471991
0.000445215
0.000416031
0.000385097
0.000349303
0.000311652
0.000270453
0.000228248
0.000183158
0.000142214
0.000101736
8.24485e-05
6.47961e-05
6.46701e-05
0.000102732
0.000136627
0.000111232
9.27193e-05
8.71538e-05
8.87252e-05
0.000100696
0.000127735
0.000158745
0.000198268
0.000227425
0.000274585
0.000309304
0.000360915
0.000398212
0.00044376
0.000480971
0.000513481
0.000541796
0.000564337
0.000583469
0.00059793
0.000609636
0.000617354
0.000623293
0.000626064
0.000627542
0.000626523
0.000624282
0.000621403
0.000618093
0.000613706
0.000608535
0.000603515
0.000598091
0.000592606
0.000587365
0.000580887
0.000569833
0.000560169
0.000551619
0.000544086
0.000537529
0.000531612
0.000526492
0.00052176
0.000517662
0.000513819
0.000510469
0.000507468
0.000504913
0.000502857
0.000501253
0.000500288
0.000499756
0.000499801
0.000499971
0.000499759
0.000497817
0.00049277
0.000482912
0.000467474
0.000446844
0.000422848
0.000397429
0.000372397
0.000349774
0.000333061
0.000326434
0.000328965
0.000339143
0.000356545
0.000381247
0.000413177
0.000452623
0.000500667
0.000557862
0.000624339
0.000704179
0.00078444
0.000799181
0.000808226
0.000811832
0.000811479
0.000807183
0.000799152
0.000789327
0.000776932
0.000762462
0.00074742
0.000729411
0.000710566
0.000691852
0.000669056
0.000644832
0.000619624
0.000591873
0.000562748
0.000532238
0.000499437
0.00046521
0.000431291
0.000398602
0.000367295
0.000337758
0.000311724
0.000290972
0.000275885
0.000265237
0.000256673
0.00024992
0.000246976
0.00025133
0.000260547
0.000273123
0.000290098
0.000311436
0.000334317
0.000356805
0.000377641
0.000396069
0.000411852
0.000425097
0.000434654
0.000439868
0.000438434
0.000430128
0.000415598
0.000394702
0.000369631
0.000344048
0.000320261
0.000300885
0.000285404
0.000275731
0.000269664
0.000267513
0.000264766
0.000264075
0.000262838
0.000230538
1.45786e-06
4.06111e-06
2.23361e-05
8.47542e-05
0.000136518
0.00016482
0.000188911
0.000210429
0.000229932
0.000247804
0.000265044
0.000282981
0.000304353
0.000329148
0.000358479
0.000396553
0.000440967
0.000482773
0.000508871
0.000524337
0.000534243
0.000531001
0.000488643
0.000452593
0.000417879
0.000394515
0.000372616
0.000359423
0.000348135
0.00033843
0.000312295
0.00028654
0.000261627
0.000234149
0.000193885
0.000156193
0.000106764
9.56629e-05
0.000143076
0.000144812
0.000122493
0.000100216
9.56244e-05
0.000107339
0.000133982
0.00018155
0.000229979
0.000288879
0.000355075
0.000420823
0.000510424
0.000573965
0.000641357
0.000687467
0.000729196
0.000759614
0.000786353
0.000808361
0.00082595
0.000840103
0.000850092
0.000858566
0.000863294
0.00086681
0.000867338
0.000866961
0.000862653
0.000856813
0.000848993
0.000838585
0.000827085
0.000813479
0.000798821
0.000783435
0.000755483
0.000724943
0.000697265
0.000672104
0.000649635
0.000629789
0.000611738
0.000595805
0.000581365
0.000568542
0.000557096
0.000546928
0.000537889
0.000529875
0.000522854
0.000516832
0.000511849
0.000507842
0.000505041
0.000503225
0.000502573
0.000502739
0.000503209
0.000502961
0.000500299
0.000492843
0.000478936
0.000459043
0.00043357
0.000404725
0.000374686
0.00034596
0.000322534
0.000305637
0.000298368
0.000300738
0.000312284
0.000332218
0.00035961
0.000394057
0.000436613
0.000489896
0.0005543
0.000629264
0.000718752
0.000824977
0.00086688
0.000889554
0.000906224
0.000917535
0.000924215
0.00092689
0.00092581
0.000921746
0.00091503
0.000906355
0.000895012
0.000881875
0.000867508
0.000850346
0.000831996
0.000812809
0.000790686
0.000767563
0.000743904
0.000718683
0.000691795
0.000664301
0.000636027
0.000606418
0.000576942
0.000550118
0.000527444
0.00050949
0.000494929
0.000482297
0.000473164
0.000473258
0.00048112
0.000495896
0.000518025
0.000546568
0.000579543
0.000614754
0.000650524
0.000686005
0.000720621
0.00075346
0.000782591
0.000806906
0.000825364
0.000833162
0.000827565
0.000811067
0.000786747
0.000754232
0.000713757
0.000676545
0.000643895
0.000619294
0.000600477
0.00059024
0.000585697
0.000583594
0.000580828
0.000525424
2.19502e-06
6.62618e-06
4.10019e-05
0.000142443
0.00020708
0.000248616
0.000286424
0.000316369
0.000337352
0.000352894
0.000368649
0.000388699
0.000413397
0.000440385
0.000474069
0.000494105
0.00049371
0.000479448
0.000459314
0.000440055
0.000424634
0.000389699
0.000354468
0.000329514
0.000310539
0.000297462
0.000286853
0.000278448
0.000272958
0.0002575
0.000237533
0.000221774
0.00020536
0.000187738
0.00016704
0.000137958
0.000126214
0.00014892
0.000148716
0.000131076
0.000104889
0.000106983
0.000130532
0.000170019
0.000229876
0.00030671
0.000381671
0.000497229
0.000596064
0.000693985
0.000763242
0.000827096
0.000878576
0.000921751
0.00095919
0.000991355
0.00102043
0.00104516
0.0010665
0.00108771
0.00110542
0.0011217
0.0011349
0.00114531
0.00115265
0.00115614
0.00115803
0.00115673
0.00115277
0.00114524
0.00113509
0.00112335
0.0011075
0.00108295
0.00103818
0.000996148
0.000956506
0.00091834
0.000882135
0.000847557
0.000815314
0.000785264
0.00075723
0.000731428
0.00070767
0.000686047
0.00066671
0.000649608
0.000634098
0.000620341
0.000608213
0.000597738
0.000588861
0.000581901
0.000577144
0.000574984
0.000574865
0.000576181
0.00057711
0.000574368
0.000562824
0.000538596
0.000501716
0.000460194
0.000415629
0.000370909
0.000334088
0.000308484
0.000295037
0.000293286
0.000302576
0.000321757
0.000349483
0.000385075
0.000429228
0.000483278
0.000548604
0.000624235
0.000709617
0.000812833
0.000937008
0.000982167
0.000999775
0.00101182
0.00101918
0.00102266
0.00102302
0.00102099
0.0010168
0.0010112
0.00100344
0.000993995
0.000982567
0.000969706
0.000954956
0.000938144
0.000920212
0.000900295
0.000878737
0.000857383
0.000836123
0.000814567
0.000792937
0.000770764
0.000748349
0.00072687
0.000707542
0.000691109
0.000677347
0.000665469
0.000658302
0.000659663
0.000667567
0.000682924
0.000705903
0.000735473
0.000769748
0.000806801
0.000845535
0.000885631
0.000927081
0.000969524
0.00101221
0.00105426
0.00109407
0.00112932
0.0011541
0.00116712
0.00116695
0.00115355
0.00113035
0.00110374
0.00107698
0.00105466
0.00103887
0.0010325
0.00103054
0.00104092
0.00104024
0.000982217
2.95333e-06
1.03689e-05
7.16817e-05
0.000227134
0.000294621
0.000342727
0.000383451
0.000407756
0.000420379
0.000432881
0.000450853
0.000472613
0.000492292
0.000506704
0.000494976
0.000463869
0.000428832
0.000396869
0.000374852
0.000359648
0.000326116
0.000301687
0.000281528
0.000264148
0.000249993
0.000238373
0.000232081
0.000230113
0.000231639
0.000232224
0.00021798
0.000204748
0.000189829
0.000173499
0.000159981
0.000153823
0.000159852
0.000151073
0.000142027
0.000111936
0.000119393
0.000150098
0.00019528
0.000276785
0.000377579
0.000492894
0.00061579
0.000728532
0.000817526
0.000894776
0.000952847
0.00100618
0.00104804
0.00108408
0.00111469
0.00114081
0.00116423
0.0011842
0.00120224
0.00121841
0.0012326
0.00124538
0.0012567
0.00126641
0.0012749
0.00128261
0.00128934
0.00129509
0.0012997
0.00130304
0.00130494
0.00130384
0.0013006
0.00127668
0.0012356
0.00119938
0.00116649
0.00113581
0.00110643
0.00107769
0.00104943
0.00102111
0.000992579
0.000963874
0.000934813
0.000905238
0.000875207
0.000845108
0.00081598
0.000788106
0.000761797
0.000737368
0.000715447
0.000696908
0.000682216
0.000670688
0.000662617
0.0006573
0.000652498
0.000644447
0.000628959
0.000602441
0.000561878
0.000507336
0.000450663
0.000396492
0.000349854
0.000313845
0.000291562
0.000284395
0.000290873
0.000309266
0.000337504
0.00037451
0.000420229
0.000477145
0.000546602
0.000627799
0.000720248
0.000823797
0.000948819
0.00107091
0.00109242
0.00110563
0.0011135
0.00111691
0.00111683
0.00111419
0.00110972
0.00110402
0.00109686
0.00108801
0.00107765
0.0010666
0.00105451
0.00103983
0.00102143
0.00100034
0.000979136
0.000958271
0.000936834
0.000914887
0.000893364
0.000872384
0.000851869
0.000832552
0.000815052
0.000800235
0.00078837
0.000779445
0.000772694
0.000773538
0.000783019
0.000798327
0.000819698
0.00084595
0.000875308
0.000906407
0.00093889
0.000973289
0.00101084
0.00105236
0.00109837
0.00114917
0.00120457
0.00126287
0.00131994
0.00136989
0.00140956
0.00143607
0.00145175
0.0014584
0.00146086
0.00146234
0.00146732
0.0014777
0.00149338
0.00150965
0.00153367
0.00148728
3.62237e-06
1.56924e-05
0.000114354
0.000327202
0.000409225
0.00045776
0.000488324
0.000495915
0.000498077
0.000507306
0.000520864
0.000530083
0.000525043
0.000488854
0.000439663
0.000399272
0.000375804
0.000363468
0.000324313
0.000295763
0.000268713
0.000240675
0.000211375
0.000188369
0.000172488
0.000163046
0.000161216
0.000163779
0.00017136
0.000186317
0.000207168
0.000219983
0.000221226
0.000213389
0.000208328
0.000190718
0.000161609
0.000149252
0.000124515
0.000125422
0.000163628
0.000212106
0.000309066
0.000443195
0.000567468
0.000697901
0.000806943
0.000896822
0.000966591
0.00102474
0.00106851
0.0011058
0.00113436
0.00115766
0.00117822
0.0011934
0.00120727
0.00121756
0.00122648
0.00123376
0.00124013
0.00124559
0.00125058
0.00125502
0.00125953
0.00126374
0.0012684
0.00127372
0.00128005
0.0012883
0.00129804
0.00130764
0.00131011
0.00127719
0.00124917
0.00122616
0.00120683
0.00118946
0.0011737
0.00115855
0.00114373
0.00112836
0.00111201
0.00109461
0.00107593
0.00105582
0.00103438
0.00101123
0.000986237
0.000959715
0.000932293
0.000904175
0.000875607
0.000846307
0.000817167
0.000789605
0.0007646
0.000743576
0.000725067
0.00070454
0.000678539
0.000645051
0.000602121
0.000542532
0.000480323
0.000422749
0.000366933
0.000319929
0.000292112
0.000284183
0.000292433
0.000313747
0.000344961
0.000384629
0.000434422
0.000497596
0.000571285
0.000655464
0.000751333
0.000858477
0.000981247
0.00113267
0.00120052
0.00120997
0.00121465
0.0012156
0.00121333
0.00120883
0.00120325
0.00119668
0.00118839
0.00117833
0.00116783
0.00115803
0.00114751
0.00113319
0.00111441
0.00109376
0.00107319
0.00105255
0.00102996
0.00100553
0.000981019
0.000957328
0.000934897
0.00091334
0.000892812
0.000874678
0.000860324
0.000851169
0.000846239
0.00084337
0.000844934
0.000858575
0.000877221
0.000899646
0.000923682
0.000947266
0.000969833
0.000992291
0.00101711
0.0010477
0.00108782
0.00113994
0.00120443
0.00127867
0.0013584
0.00143907
0.00151618
0.0015853
0.00164561
0.00169507
0.00173807
0.00177391
0.00181034
0.00184105
0.0018812
0.00190137
0.00195083
0.0019258
4.06446e-06
2.30634e-05
0.000167722
0.000432525
0.000574994
0.000607336
0.000603643
0.000583883
0.000573173
0.000573225
0.000571152
0.000551175
0.000501764
0.000437824
0.000404285
0.000399549
0.000340879
0.00030638
0.000276537
0.000239251
0.000191061
0.000152148
0.000134365
0.00012612
0.000123052
0.000124203
0.000125862
0.000129721
0.000136272
0.000148916
0.000173267
0.00020275
0.000225688
0.00024337
0.000235678
0.000186129
0.000153947
0.000145286
0.000127064
0.000168151
0.000219869
0.000316284
0.000475854
0.000606256
0.00073944
0.000849017
0.000936758
0.00100295
0.00105527
0.00109526
0.00112596
0.00115114
0.00117228
0.00118897
0.00120275
0.00121375
0.0012235
0.00123123
0.00123817
0.00124361
0.00124795
0.00125067
0.00125225
0.0012529
0.00125216
0.00124897
0.00124439
0.00123964
0.00123292
0.00122616
0.00121952
0.00117849
0.00113998
0.00111741
0.00110366
0.00109647
0.00109224
0.00109101
0.00109208
0.00109479
0.00109779
0.00110042
0.00110216
0.00110165
0.00109862
0.00109261
0.00108318
0.00107064
0.00105504
0.00103634
0.00101516
0.00099192
0.000967676
0.000943094
0.000917461
0.000889808
0.00085982
0.000827248
0.000790352
0.000751299
0.000712927
0.000675151
0.000634396
0.000577578
0.00051483
0.00044795
0.000379063
0.000322127
0.000289605
0.000282502
0.000293869
0.000318543
0.000352718
0.000396765
0.00045306
0.000519447
0.000596075
0.000683071
0.000781233
0.000891578
0.00101544
0.00116424
0.00129303
0.00130244
0.00130599
0.00130595
0.00130285
0.00129765
0.00129172
0.00128513
0.00127664
0.00126615
0.00125553
0.00124625
0.00123646
0.00122293
0.0012048
0.00118506
0.00116531
0.00114527
0.00112252
0.00109747
0.00107083
0.00104325
0.00101629
0.00099077
0.000967626
0.000945713
0.000925076
0.000908142
0.000897343
0.00089322
0.000892461
0.000894887
0.000906196
0.000921075
0.000935594
0.000948005
0.000957972
0.000967232
0.000979193
0.000998345
0.00102933
0.00107657
0.00114237
0.0012258
0.00132096
0.00142347
0.00152827
0.00163105
0.00172829
0.00181718
0.00189711
0.00196788
0.00203068
0.0020849
0.00213517
0.00217092
0.00221246
0.00222106
4.26972e-06
3.24326e-05
0.000222999
0.000525047
0.000807816
0.0008002
0.000725024
0.000669926
0.000644846
0.000629117
0.000599602
0.000542385
0.000466741
0.000413338
0.000397271
0.000335767
0.000299829
0.000268966
0.000218577
0.000155886
0.000128836
0.00012014
0.000116364
0.000115185
0.000117221
0.000118419
0.000120965
0.000126227
0.000131348
0.000139121
0.000153745
0.000187578
0.000220236
0.000240405
0.000222334
0.000164834
0.000152065
0.000132727
0.000156646
0.000218768
0.000302572
0.000470601
0.000620316
0.000745389
0.000864177
0.000947471
0.00101523
0.0010626
0.00109999
0.00112996
0.00115587
0.001176
0.00119313
0.00120828
0.00122252
0.00123693
0.00125193
0.001267
0.0012822
0.00129592
0.00130693
0.00131408
0.0013172
0.00131515
0.0013099
0.00130053
0.00128776
0.00127184
0.00125468
0.00120514
0.00114465
0.00109303
0.00104813
0.00100929
0.000980721
0.000962962
0.000953789
0.000953171
0.00095612
0.000963142
0.000972909
0.000984237
0.000996247
0.00100794
0.0010184
0.00102664
0.00103267
0.00103528
0.00103436
0.0010297
0.00102107
0.00100849
0.000992619
0.000973186
0.000950877
0.000924466
0.000895041
0.000857126
0.00080524
0.000745094
0.000704584
0.000677761
0.000651704
0.000605846
0.000538431
0.000465866
0.000383696
0.000318967
0.000289405
0.000290504
0.000309747
0.000338684
0.000376532
0.000426694
0.000486644
0.000554974
0.000632483
0.000719967
0.000818016
0.000927495
0.00105022
0.00119274
0.00136681
0.00139779
0.00139918
0.00139753
0.00139327
0.00138701
0.0013802
0.00137318
0.00136455
0.00135388
0.00134294
0.00133367
0.00132437
0.0013114
0.00129429
0.00127579
0.00125688
0.00123762
0.00121548
0.00119092
0.00116385
0.00113429
0.00110327
0.00107311
0.00104543
0.00102027
0.00099674
0.00097422
0.000953035
0.000936552
0.000928547
0.000927441
0.000928501
0.000929407
0.000931811
0.000933588
0.000933532
0.000932894
0.000934627
0.000943313
0.000963995
0.00100262
0.0010637
0.0011487
0.00125157
0.0013657
0.00148584
0.0016104
0.00173292
0.00185002
0.00195537
0.0020505
0.0021295
0.00219883
0.00224942
0.00229573
0.00232338
0.00235247
4.32312e-06
4.22175e-05
0.000271235
0.000595969
0.00088906
0.00100315
0.000834566
0.000743847
0.000704603
0.000667408
0.000607697
0.00052416
0.000446007
0.000409719
0.000351302
0.000310139
0.000275899
0.00022396
0.000154281
0.000123672
0.000116519
0.000114863
0.000114142
0.000115263
0.000117237
0.000119784
0.000122315
0.000124702
0.000126891
0.000134166
0.000150549
0.000182194
0.000217227
0.000230754
0.000192613
0.000155283
0.000146285
0.000144281
0.000203417
0.000284727
0.000426649
0.000604846
0.000733067
0.000848947
0.000942958
0.00100538
0.00105497
0.00109332
0.00112606
0.00115157
0.00117383
0.00119346
0.00121322
0.00123539
0.00126263
0.00129114
0.00131926
0.00134505
0.00136706
0.00138476
0.00139879
0.00140839
0.00141173
0.0014109
0.00140674
0.00139483
0.00137806
0.00133926
0.00126237
0.00119264
0.00112959
0.00107323
0.00102331
0.000980634
0.000944343
0.000913607
0.000892809
0.000882388
0.000878646
0.000879892
0.000884916
0.000893265
0.000903894
0.000916122
0.00092902
0.000941368
0.000952062
0.000960987
0.00096727
0.000971233
0.000972258
0.000969661
0.000963617
0.000953985
0.000941797
0.000923534
0.000896191
0.000836128
0.000762184
0.000709396
0.000677624
0.00065464
0.000620109
0.000551245
0.000488748
0.000461978
0.000376474
0.00030962
0.000292951
0.000303653
0.000327122
0.000359438
0.000403215
0.000454989
0.000514302
0.000581522
0.000657397
0.000743183
0.000839891
0.000947941
0.00106958
0.0012086
0.00137811
0.00147685
0.00148026
0.00147979
0.00147673
0.00147135
0.001465
0.00145845
0.00145058
0.00144048
0.00142963
0.00142035
0.00141159
0.00139971
0.0013836
0.00136625
0.00134862
0.00133027
0.0013095
0.0012856
0.0012588
0.00122922
0.00119699
0.00116287
0.00112967
0.0011002
0.00107392
0.00104769
0.0010199
0.000993047
0.000971342
0.000957534
0.000953006
0.000951219
0.00094499
0.000932843
0.000923767
0.000914436
0.00090703
0.000905729
0.00091574
0.000943689
0.000995329
0.00107473
0.00117907
0.00129922
0.00142603
0.00155756
0.00169274
0.00182487
0.00194382
0.00205089
0.00213618
0.0022085
0.00225521
0.00229611
0.00231501
0.00234841
4.13408e-06
4.88219e-05
0.000305005
0.000648516
0.000948214
0.00107618
0.000894554
0.000791205
0.000735283
0.000678313
0.000600071
0.000506758
0.000433938
0.000392744
0.000336342
0.000299156
0.000255635
0.000189038
0.000130898
0.00011554
0.000114911
0.000115018
0.00011472
0.000114854
0.000116877
0.000120452
0.000122528
0.000123892
0.000126528
0.00013478
0.000152878
0.000183668
0.000207764
0.000205527
0.000161915
0.000151784
0.000140827
0.00017647
0.000257679
0.000377954
0.000552762
0.000707116
0.000818629
0.000917732
0.000987217
0.00103679
0.00107931
0.00111336
0.00114104
0.00116642
0.00118936
0.00121643
0.00125002
0.00128681
0.00132221
0.00135657
0.00138735
0.00141391
0.00143641
0.00145492
0.00146938
0.00147961
0.00148382
0.00148274
0.00147928
0.00146464
0.00139263
0.00132603
0.00126406
0.00120541
0.0011482
0.00109198
0.00103735
0.00098672
0.000942104
0.000905448
0.000875307
0.000854379
0.000843276
0.000839795
0.000841799
0.000847224
0.00085529
0.000865842
0.000878893
0.000893048
0.000905834
0.00091786
0.000927966
0.000935923
0.00094182
0.000943943
0.000941483
0.000933451
0.000922322
0.000907915
0.000832009
0.000763104
0.000703441
0.000668723
0.000647801
0.00062058
0.000562566
0.000492279
0.000452686
0.000453325
0.000348513
0.000305541
0.000310317
0.000328634
0.00035458
0.000391188
0.000435982
0.000487188
0.000545187
0.000610711
0.000684265
0.000767005
0.000860574
0.000965467
0.00108329
0.00121789
0.00137713
0.00156461
0.00156674
0.00156577
0.00156266
0.0015574
0.0015509
0.00154431
0.00153697
0.00152749
0.00151676
0.00150723
0.00149878
0.00148812
0.00147337
0.00145697
0.00144057
0.00142362
0.00140425
0.00138169
0.00135604
0.00132704
0.00129457
0.00125939
0.00122298
0.0011877
0.00115497
0.00112532
0.0010955
0.00106313
0.0010304
0.00100359
0.000984106
0.000973263
0.000968301
0.000956943
0.000936433
0.000918843
0.000903496
0.000892971
0.00089262
0.000909202
0.000949288
0.0010185
0.00111747
0.00123984
0.00137018
0.00150099
0.00163419
0.00176784
0.00188683
0.0019894
0.00206965
0.0021317
0.00217088
0.00219823
0.00221152
0.00223614
3.79897e-06
5.14447e-05
0.000322418
0.000677754
0.000947739