/*--------------------------------*- C++ -*----------------------------------*\
| =========                 |                                                 |
| \\      /  F ield         | OpenFOAM: The Open Source CFD Toolbox           |
|  \\    /   O peration     | Version:  2112                                  |
|   \\  /    A nd           | Website:  www.openfoam.com                      |
|    \\/     M anipulation  |                                                 |
\*---------------------------------------------------------------------------*/
FoamFile
{
    version     2.0;
    format      ascii;
    arch        "LSB;label=32;scalar=64";
    class       volScalarField;
    location    "0.54";
    object      omegaU_0;
}
// * * * * * * * * * * * * * * * * * * * * * * * * * * * * * * * * * * * * * //

dimensions      [0 0 -1 0 0 0 0];

internalField   nonuniform List<scalar> 
12225
(
56065.9
79744.7
87665.1
89050
87880.5
85735.2
83244.6
80691.7
78227.4
75938.2
73869.6
72036.9
70433.1
69035.3
67810
66730
65728.8
64556.9
3369.06
7785.98
11847.9
15282.5
18053.2
20232.5
21929.8
23243.1
24248.6
25004.5
25556.2
25941.2
26192.2
26339.3
26411.7
26441.1
26501.9
26738.6
260.389
631.302
1203.67
1943.48
2781.13
3647.36
4486.63
5260.56
5947.47
6541.24
7045.32
7470.78
7832.91
8148.75
8435.46
8711.39
8996.05
9289.79
138.037
163.246
212.871
294.626
412.174
564.624
745.15
944.299
1151.7
1357.05
1553.54
1737.2
1906.73
2063.02
2208.83
2347.74
2483.97
2617.15
132.279
133.946
138.055
146.008
159.26
178.563
204.106
235.484
271.787
311.473
353.15
395.642
438.135
480.219
521.715
562.835
604.008
645.185
131.966
131.985
132.234
132.903
134.242
136.44
139.632
143.874
149.104
155.214
162.051
169.464
177.325
185.551
194.008
202.668
211.527
220.486
131.935
131.838
131.768
131.746
131.806
131.984
132.306
132.793
133.449
134.27
135.247
136.363
137.603
138.956
140.405
141.941
143.56
145.215
131.922
131.807
131.706
131.62
131.556
131.518
131.508
131.526
131.571
131.643
131.74
131.86
132.003
132.167
132.353
132.564
132.801
133.059
131.913
131.79
131.679
131.582
131.499
131.432
131.38
131.339
131.308
131.284
131.266
131.252
131.242
131.235
131.235
131.243
131.26
131.289
131.906
131.777
131.66
131.556
131.464
131.387
131.321
131.264
131.216
131.173
131.135
131.099
131.066
131.036
131.01
130.989
130.975
130.969
131.901
131.767
131.645
131.535
131.438
131.352
131.277
131.211
131.152
131.099
131.05
131.005
130.964
130.926
130.892
130.863
130.839
130.822
131.897
131.76
131.634
131.52
131.418
131.326
131.245
131.172
131.105
131.045
130.989
130.937
130.889
130.845
130.805
130.77
130.74
130.715
131.895
131.754
131.625
131.508
131.401
131.305
131.218
131.139
131.067
131
130.939
130.881
130.828
130.778
130.733
130.692
130.655
130.623
131.892
131.749
131.617
131.496
131.385
131.285
131.193
131.109
131.031
130.959
130.892
130.829
130.77
130.715
130.664
130.617
130.574
130.535
131.89
131.745
131.61
131.485
131.371
131.266
131.17
131.081
130.998
130.921
130.849
130.781
130.717
130.656
130.6
130.547
130.497
130.451
131.889
131.741
131.604
131.477
131.359
131.251
131.15
131.057
130.97
130.888
130.811
130.738
130.669
130.603
130.542
130.483
130.427
130.374
131.887
131.739
131.599
131.47
131.35
131.239
131.135
131.038
130.947
130.861
130.779
130.702
130.629
130.559
130.491
130.427
130.366
130.307
131.887
131.737
131.597
131.466
131.344
131.231
131.124
131.025
130.93
130.841
130.757
130.676
130.598
130.524
130.453
130.384
130.317
130.254
131.887
131.738
131.597
131.466
131.344
131.229
131.121
131.02
130.924
130.833
130.746
130.663
130.582
130.505
130.431
130.359
130.289
130.221
131.888
131.74
131.6
131.47
131.348
131.234
131.127
131.026
130.93
130.838
130.751
130.667
130.586
130.508
130.433
130.359
130.288
130.219
131.89
131.743
131.605
131.476
131.356
131.243
131.137
131.037
130.942
130.852
130.766
130.683
130.603
130.526
130.451
130.378
130.307
130.238
131.892
131.747
131.612
131.485
131.366
131.255
131.152
131.054
130.961
130.873
130.79
130.709
130.632
130.556
130.483
130.413
130.343
130.276
131.895
131.753
131.621
131.496
131.38
131.272
131.171
131.076
130.988
130.904
130.825
130.749
130.677
130.608
130.542
130.478
130.416
130.357
131.899
131.762
131.633
131.511
131.399
131.296
131.204
131.121
131.049
130.986
130.935
130.895
130.865
130.847
130.839
130.841
130.854
130.876
131.906
131.776
131.658
131.558
131.485
131.453
131.475
131.565
131.738
132.006
132.378
132.858
133.448
134.141
134.929
135.805
136.759
137.781
131.929
131.879
131.995
132.409
133.268
134.711
136.884
139.912
143.891
148.867
154.837
161.749
169.512
177.979
187.032
196.538
206.363
216.394
132.588
135.128
141.488
153.264
171.697
197.468
230.819
271.811
320.055
374.744
434.747
498.744
565.361
633.336
701.498
768.812
834.446
897.887
160.801
242.389
388.559
597.415
864.106
1176.57
1518.71
1878.51
2244.88
2607.95
2959.62
3293.73
3606.06
3894.16
4157.08
4395.46
4610.79
4806.04
1391.3
3417.94
5566.06
7623.84
9479.09
11094.6
12482.1
13666
14673.5
15530
16257.5
16874.6
17396.4
17836
18204
18510.3
18763.6
18972
36868.2
55997.8
64515.4
67720.2
68447.5
68039
67105.5
65926.9
64639.6
63315.5
61996.2
60708.6
59471.4
58297.9
57196.7
56173.4
55227.5
54362.6
996.893
1015.98
1057.48
1106.36
1160.87
1219.1
1282.09
1351.75
1427.72
1508.93
1594.95
1685.55
1780.58
1879.84
1983.04
2089.51
2197.2
2295.64
2367.56
2409.04
2416.46
2388.83
2331.06
2253.02
2164.11
2070.47
1974.99
1887.95
1831.12
1823.83
1870.74
1960.93
2077.35
2204.49
2330.37
2444.87
2535.49
2595.24
2635.78
2684.37
2781.29
2975.6
3326.19
3898.98
4756.35
5948.28
7518.77
9173.74
10787.1
12397.5
13947.6
15389.3
16686.2
17813.3
18755.4
19504.5
20060
20423.1
20598
20592.6
20414.2
20068.2
19559.4
18893
18074.3
17178.2
16244.6
15276.6
14280.3
13264.2
12237.5
11208.9
10186.7
9182.92
8210.53
7281.84
6409.45
5606.01
4883.99
4255.38
3731.31
3321.86
3035.81
2880.59
2861.68
2985.01
3219.55
3542.85
3953.18
4438.87
4987.43
5586.86
6222.85
6877.76
7534.08
8169.79
8762.56
9283.63
9671.97
9875.75
9936.68
9893.01
9781.12
9631
9461.89
9278.7
9069.07
8803.97
8444.93
7959.37
7354.11
6699.1
6138.34
5862.94
6043.12
6758.98
7971.36
9425.54
10843.8
12222.9
13474.4
14527.6
15336.4
15865.7
16089.6
16000.6
15602.6
14902.6
13912.5
12733.6
11464.1
10142.5
8810.03
7517.98
6324.5
5286.25
4459.01
3896.8
3654.08
3790.28
4326.82
5115.67
6163.39
7426.82
8851.83
10384.2
11968.9
13540.2
15036.6
16403.8
17594.6
18535
19032.7
19130.1
18874.6
18314.9
17506.3
16513
15404.4
14247.6
13098.6
11998
10970.3
10028
9176.17
8415.62
7743.64
7154.69
6640.15
6187.84
5782.56
5408.78
5055.47
4722.92
4428.59
4202.11
4070.95
4034.22
4096.81
4201.4
1567.06
1491.37
1472.69
1464.71
1458.21
1448.48
1433.66
1414
1390.55
1364.36
1336.32
1307.17
1277.64
1248.46
1220.43
1194.46
1172.02
1160.68
1171.07
1197.96
1233.59
1269.54
1299.27
1319.77
1331.03
1334.55
1336.45
1344.15
1365.71
1406.87
1465.67
1540.16
1633.08
1748.2
1888.83
2063.02
2307.02
2633.05
3035.07
3531.06
4147.16
4898.99
5771.07
6564.27
7290.75
7947.36
8505.31
8929.41
9210.63
9343.48
9323.52
9153.13
8841.94
8406.37
7868.48
7254.57
6585.17
5886.77
5195.4
4545.59
3967.14
3485.66
3121.79
2888.69
2790.6
2743.41
2703.24
2668.1
2636.66
2608.3
2583.31
2563.18
2548.92
2534.1
2515.67
2493.16
2466.15
2434.23
2397.13
2354.81
2307.58
2256.15
2201.67
2145.47
2088.87
2033.46
1987.51
1950.16
1918.61
1892.86
1872.91
1861.48
1868.23
1901.76
1947.75
2006.64
2087.7
2204.45
2386.88
2641.92
2884.62
3077.13
3208.64
3282.93
3315.27
3328.65
3346.82
3387.91
3469.47
3629.35
3866.31
4179.56
4585.16
5090.02
5665.82
6238.71
6645.51
6855.78
6895.51
6774.24
6509.69
6132.36
5644.97
5069.77
4470.26
3906.03
3430.86
3093.34
2929.88
2866.36
2825.28
2808.23
2832.57
2876.36
2918.15
2957.48
2994.09
3027.3
3055.65
3074.72
3078.64
3073.58
3065.15
3066.6
3127.56
3266.87
3441.12
3650.81
3905.86
4217.45
4598.3
5087.33
5745.57
6394.37
6935.94
7317.24
7505.4
7486.57
7269.27
6889.86
6408.33
5886.34
5370.16
4887.69
4453.41
4072.93
3745.14
3464.38
3223.01
3013.11
2827.92
2661.45
2507.81
2362.5
2225.75
2105.61
2017.1
1971.35
1968.87
1986.85
2341.39
2049.25
1919.23
1826.82
1748.81
1678.15
1612.58
1551.56
1495.02
1442.84
1394.71
1350.24
1309.04
1270.78
1235.22
1202.21
1171.7
1143.9
1120.29
1103.54
1095.76
1097.8
1109.32
1129.31
1156.79
1191.86
1237.28
1299.84
1384.57
1486.9
1602.02
1743.66
1929.9
2169.94
2476.82
2860.41
3270.78
3725.48
4252.23
4786.11
5313.38
5807.4
6229.99
6547.85
6756.7
6851.46
6830.35
6695.87
6456.99
6126
5719.61
5259.47
4771.17
4282.09
3818.44
3402.17
3049.06
2768.93
2563.86
2428.18
2350.61
2317.17
2313.68
2327.8
2348.96
2370.06
2389.93
2407.73
2422.83
2434.85
2443.6
2448.97
2450.72
2448.74
2442.76
2432.17
2416.1
2393.44
2362.96
2323.54
2274.44
2215.6
2147.84
2072.98
1993.77
1914.38
1847.5
1793.6
1748.65
1712.59
1683.52
1657.99
1631.76
1600.63
1561.13
1512.11
1454.87
1393.29
1335.74
1300
1313.59
1368.48
1451.99
1557.41
1686.41
1848.83
2058.13
2326.34
2660.35
3061.85
3523.88
4025.4
4522.09
4944.89
5213.57
5264.66
5131.02
4866.92
4512.17
4106.06
3687.9
3294.32
2953.31
2690.59
2519.82
2437.8
2428.22
2467.83
2534.06
2603.04
2671.41
2737.58
2800.05
2857.29
2908.27
2953.01
2991.5
3022.42
3041.81
3044.16
3034.24
3012.7
2981.04
2940.76
2892.96
2837.93
2775.41
2706.58
2633.72
2560.42
2492.84
2445.86
2488.61
2695.52
3035.07
3439.42
3835.7
4158.36
4363.42
4430.53
4359.74
4175.78
3918.01
3626.59
3333.48
3059.48
2814.86
2602.26
2419.96
2264.55
2132.29
2018.84
1918.62
1825.04
1732.39
1638.78
1548.65
1473.92
1430.08
1424.96
3234.68
2598.71
2299.6
2088.45
1920.68
1782.93
1668.9
1574.32
1495.57
1429.48
1373.41
1325.17
1283.05
1245.77
1212.41
1182.33
1155.17
1130.44
1108.04
1089.01
1075.13
1068.81
1072.75
1089.52
1121.34
1171.16
1244.84
1352.25
1495
1659.79
1856.92
2115.66
2442.22
2814.75
3198.26
3556.34
3920.01
4291.01
4654.01
4984.13
5259.49
5459.52
5570.3
5586.81
5512.21
5352.94
5118.9
4823.37
4483.04
4117.18
3746.92
3393.35
3074.97
2805.17
2590.85
2432.4
2325.05
2260.62
2229.41
2221.89
2229.94
2247.4
2269.94
2294.75
2318.98
2341.1
2360.04
2375.08
2385.87
2392.48
2395.31
2395.03
2392.37
2388.11
2382.72
2376.02
2367.14
2354.4
2335.39
2307.32
2267.39
2213.53
2144.98
2062.8
1970.08
1871.63
1784.17
1709.77
1646.68
1597.31
1562.32
1540.15
1527.1
1518.15
1507.71
1490.2
1461.3
1418.92
1364
1302.22
1245.54
1212.93
1220.17
1277.07
1393.18
1578.56
1841.26
2183.05
2596.64
3065.36
3559.54
4026.59
4388.12
4560.53
4499.81
4276.65
3960
3599.51
3238.28
2911.9
2645.91
2453.81
2336.81
2286.32
2286.42
2319.05
2368.43
2423.31
2479.5
2536.06
2591.5
2643.98
2691.45
2733.3
2769.82
2801.61
2829.15
2851.57
2865.51
2869.75
2865.91
2854.59
2836.83
2812.92
2782.57
2745.19
2700.84
2649.7
2591.47
2525.49
2450.86
2368.2
2286.26
2239
2260.32
2367.69
2553.8
2787.04
3021.95
3211.69
3319.14
3327.91
3245.58
3096.99
2912.57
2718.56
2532.38
2363.02
2213.49
2083.68
1972.11
1876.25
1792.29
1715.29
1640.39
1565.04
1490.75
1423.61
1372.26
1346.86
4242.92
3107.08
2575.89
2220.47
1961.22
1768.28
1623.5
1513.87
1429.67
1363.79
1311.03
1267.62
1230.91
1199.07
1170.88
1145.65
1123.09
1102.95
1085.73
1071.9
1062.6
1059.88
1066.95
1087.91
1127.61
1192.44
1292.32
1441.88
1648.36
1900.65
2211.02
2567.96
2898.63
3202.71
3498.22
3782.05
4049.84
4292.02
4495.56
4646.71
4734.25
4751.36
4696.84
4574.81
4393.46
4163.8
3899.47
3616.21
3330.86
3059.82
2817.1
2612.55
2450.89
2331.91
2251.58
2203.68
2181.3
2177.93
2188.04
2207.34
2232.62
2261.46
2291.89
2321.73
2348.62
2371.18
2388.17
2398.66
2402.2
2398.89
2389.41
2375.06
2357.83
2339.89
2323.25
2309.38
2298.69
2290.21
2281.44
2268.44
2246.26
2209.92
2155.59
2081.59
1989.54
1884.38
1785.69
1693.93
1610.37
1539.46
1484.93
1448.61
1429.77
1425.27
1429.98
1437.29
1439.98
1431.53
1407.82
1369.26
1322.67
1282.03
1269.49
1306.85
1412.23
1600.43
1879.3
2244.55
2676.78
3141.49
3586.71
3938.78
4114.3
4058.57
3818.78
3510.76
3179.29
2866.07
2601.12
2401.1
2269.39
2198.59
2174.92
2182.83
2208.7
2243.1
2280.83
2319.14
2360.8
2404.4
2447.71
2487.82
2523.3
2553.64
2579.35
2601.62
2621.38
2637.36
2647.96
2653.33
2652.93
2646.84
2635.89
2620.98
2602.78
2581.97
2559.31
2535.13
2508.79
2478.35
2440.96
2392.81
2330.65
2257.31
2190.58
2155.99
2175.71
2257.46
2388.91
2540.44
2674.68
2758.9
2775.53
2726.85
2630.2
2507.64
2377.74
2252.21
2136.61
2032.59
1939.84
1857.14
1782.4
1712.8
1645.43
1578.53
1512.56
1450.33
1396.36
1357.94
5325.62
3529.59
2715.13
2214
1885.97
1667.45
1519.46
1416.91
1343.63
1289.28
1247.3
1213.49
1185.02
1160.04
1137.38
1116.45
1097.18
1080.28
1066.64
1056.84
1051.94
1053.92
1065.97
1093.08
1142.65
1224.43
1350.36
1540.61
1816.35
2161.1
2494.73
2796.97
3072.23
3321.98
3547.13
3745.63
3912.85
4042.21
4126.66
4160.41
4140.36
4066.86
3943.94
3778.91
3581.72
3364.36
3140.11
2922.31
2722.83
2550.68
2411.06
2305.32
2231.6
2185.96
2163.51
2159.29
2168.86
2188.54
2215.42
2247.2
2281.97
2317.96
2353.47
2386.43
2415.99
2440.63
2458.74
2468.79
2469.51
2460.18
2441.02
2413.24
2379.01
2341.41
2304.15
2270.84
2244.16
2225.28
2213.28
2204.87
2194.48
2174.96
2139.28
2081.77
2000.93
1902.06
1803.57
1704.66
1609.36
1522.62
1449.66
1395.2
1361.92
1349.5
1354.75
1372.23
1394.67
1413.69
1421.48
1413.58
1392.02
1367.56
1360.32
1397.52
1502.43
1692.84
1975.91
2342.13
2761.79
3185.59
3546.02
3763.65
3774.9
3577
3275.93
2970.88
2687.93
2454.26
2282.41
2171.62
2111.8
2088.55
2087.69
2098.33
2114.16
2133.04
2155.47
2182.33
2215.68
2252.19
2288.37
2321.19
2349.2
2371.68
2389.3
2403.88
2415.4
2424.7
2431.53
2434.79
2433.75
2428.42
2419.62
2408.64
2396.8
2385.34
2375.36
2367.55
2361.9
2357.38
2351.7
2341.06
2319.67
2279.73
2221.72
2157.49
2106.96
2090.92
2120.69
2191.27
2282.16
2365.3
2415.55
2419.85
2380.34
2309.87
2224.14
2135.3
2050.13
1971.2
1898.64
1831.53
1768.47
1707.82
1648.02
1588.31
1529.27
1473
1422.72
1382.46
6419.99
3819.28
2704.22
2092.65
1742.31
1536.78
1411.78
1331.84
1277.48
1238.03
1207.6
1182.8
1161.52
1142.25
1123.9
1105.94
1088.44
1072.7
1059.58
1050.21
1046.19
1049.83
1064.62
1096.43
1155.26
1253.02
1403.83
1643.76
2009.39
2327.37
2618.97
2880.5
3106.76
3298.8
3457.7
3582.97
3672.62
3723.96
3734.69
3703.83
3632.46
3524.08
3384.68
3222.45
3047.25
2869.71
2700.16
2547.36
2417.56
2314.09
2237.5
2186.12
2156.89
2146.07
2149.83
2164.7
2187.78
2216.81
2249.98
2285.86
2323.12
2360.46
2396.52
2431.09
2463.66
2492.69
2516.43
2532.87
2539.81
2535.19
2517.96
2487.94
2446.15
2395.31
2339.86
2285.26
2236.58
2197.6
2169.95
2152.6
2141.3
2128.57
2105.73
2063.59
1996.42
1911.45
1817.57
1718.1
1618.69
1524.14
1439.39
1370.16
1321.73
1296.75
1294.6
1312.12
1343.66
1381.14
1415.04
1437.05
1444.19
1442.9
1450.7
1495.78
1604.4
1795.72
2075.16
2427.79
2815.37
3178.48
3443.31
3539.06
3435.1
3176.73
2872.02
2603.11
2381.63
2217.89
2110.54
2049.17
2019.63
2008.46
2005.72
2006.24
2009.2
2016.47
2030.57
2053.45
2083.27
2115.91
2147.23
2174.44
2195.83
2211.06
2221.77
2228.88
2234.63
2239.5
2242.77
2243.33
2240.44
2234.19
2225.55
2216.02
2207.16
2200.33
2196.61
2196.71
2200.93
2209.13
2220.45
2232.97
2242.42
2239.88
2217.37
2173.66
2116.51
2062.31
2029.81
2030.43
2061.78
2108.7
2150.39
2169.21
2157.45
2118.31
2061.69
1998.12
1934.79
1875.05
1819.44
1767.06
1716.53
1666.46
1615.89
1564.57
1513.43
1464.49
1420.97
1386.46
7436.47
3943.6
2559.41
1906.81
1589.3
1427.49
1337.91
1282.52
1244.18
1215.19
1191.97
1172.58
1155.64
1139.97
1124.57
1108.68
1092.27
1076.08
1061.31
1049.77
1043.76
1046.29
1061.44
1095.84
1161.01
1270.51
1444.82
1773.99
2108.64
2394.66
2652.63
2874.18
3055.71
3199.11
3306.63
3379.63
3418.52
3423.4
3394.76
3334.12
3244.51
3130.7
2999.15
2857.67
2714.64
2578.14
2455
2350.18
2266.44
2204.49
2163.29
2140.57
2133.27
2138.1
2151.98
2172.31
2197.16
2225.21
2255.64
2287.82
2321.17
2354.98
2388.24
2422.29
2456.16
2488.76
2518.81
2544.53
2563.38
2572.23
2568.46
2549.99
2515.67
2466.19
2404.8
2337.56
2271.27
2212.02
2164.05
2129.17
2105.95
2088.29
2067.75
2034.53
1981.07
1910.09
1823.26
1726.72
1627.02
1529.51
1438.77
1359.96
1299.16
1261.29
1248.59
1260.7
1294.46
1343.4
1397.95
1447.32
1483.77
1508.35
1534.95
1590.38
1702.74
1891.38
2159.43
2487.18
2830.47
3125.26
3300.09
3301.66
3131.61
2861.26
2586.18
2354.98
2186.72
2073.57
2005.12
1967.75
1948.15
1936.23
1926.58
1918.27
1913.59
1915.88
1927.33
1948.58
1975.31
2003.11
2028.44
2049.04
2063.78
2072.67
2077.44
2080.49
2083.11
2085.43
2086.61
2085.49
2081.47
2074.85
2066.82
2058.96
2052.77
2049.36
2049.46
2053.47
2061.65
2074.19
2091.33
2112.84
2137.05
2158.28
2167.27
2155.86
2120.91
2068.19
2012.24
1969.97
1951.56
1955.3
1969.41
1978.79
1972.29
1946.65
1905.81
1856.98
1806.66
1758.68
1714.14
1672.38
1631.92
1591.32
1549.61
1506.71
1463.64
1422.47
1386.48
1359.39
8273.43
3902.04
2326.95
1719.1
1476.15
1367.23
1307.47
1266.84
1235.19
1209.25
1187.92
1170.36
1155.48
1142.06
1128.84
1114.71
1099.06
1081.9
1064.76
1050.02
1040.72
1040.6
1054.53
1089.71
1157.96
1277.14
1503.26
1835.57
2139.54
2397.92
2624.73
2812.3
2958.73
3066.67
3139.46
3179.82
3189.74
3170.9
3125.26
3055.52
2965.49
2860.18
2745.64
2628.46
2515.07
2411.15
2321.05
2247.59
2192
2154.02
2132.08
2123.65
2125.68
2135.13
2149.44
2166.76
2186.1
2207.13
2229.92
2254.6
2281.11
2309.01
2338.43
2369.08
2400.5
2432.55
2465
2497.11
2526.84
2550.63
2564.73
2565.53
2549.86
2515.88
2463.86
2398.42
2326.31
2254.82
2189.98
2136.09
2095.34
2063.83
2034.64
2002.02
1956.9
1894.86
1816.16
1725.19
1628.17
1530.93
1438.13
1354.29
1285.16
1236.75
1213.53
1217.86
1249.42
1304.3
1374.31
1447.82
1513.23
1565.57
1613.21
1679.78
1793.78
1974.63
2223.68
2518.13
2811.05
3038.94
3138.77
3076.9
2878.3
2620.65
2380.15
2191.54
2060.84
1978.06
1931.31
1904.51
1886.66
1871.2
1856.15
1843.14
1835.57
1836.49
1846.57
1864.81
1886.24
1906.5
1924
1937.58
1945.77
1950.13
1952.32
1953.91
1955.87
1957.97
1959.1
1958.11
1954.63
1949.31
1943.52
1938.76
1936.22
1936.55
1939.95
1946.44
1956.09
1969.24
1986.55
2008.7
2035.88
2066.46
2093.64
2108.06
2100.69
2067.73
2014.63
1955.31
1905.06
1872.29
1855.09
1844.28
1829.52
1804.59
1769.1
1726.85
1682.79
1640.58
1601.75
1566
1531.98
1498.13
1463.35
1427.4
1391.24
1356.92
1327.74
1307.67
8812.16
3727.41
2069.13
1582.26
1425.28
1355.59
1308.99
1270.02
1236.04
1207.33
1184.21
1166.11
1151.76
1139.72
1128.44
1116.24
1101.1
1082.88
1063.49
1045.73
1033.2
1030.26
1042.39
1077.31
1149.35
1289.09
1529.67
1846.27
2123.22
2356.98
2557.88
2719.8
2841.78
2926.9
2979.12
3002
2998.37
2970.73
2921.68
2854.36
2772.64
2681.13
2584.96
2489.31
2399
2318.12
2249.76
2195.85
2157.05
2132.67
2120.81
2118.69
2123.21
2131.57
2141.74
2152.74
2164.53
2177.67
2192.84
2210.45
2230.33
2251.8
2275.02
2298.59
2323.13
2349.71
2379.42
2412.78
2448.79
2483.96
2513.89
2533.85
2539.29
2526.65
2493.5
2441.9
2376.85
2304.9
2232.23
2163.84
2105.98
2056.76
2013.96
1972.54
1925.62
1866.96
1794.13
1709.12
1616.73
1522.4
1430.73
1345.75
1272.48
1217.02
1185.09
1181.22
1207.92
1264.36
1344.92
1438.8
1532.06
1613.75
1684.77
1763.21
1876.49
2044.42
2268.1
2523.91
2765.46
2933.74
2976.94
2878.42
2675.52
2440.79
2233.66
2078.53
1974.91
1912.01
1875.59
1852.32
1833.43
1814.96
1797.19
1782.82
1775.02
1775.46
1783.06
1795.89
1809.32
1820.2
1829
1835.41
1839.44
1841.72
1843.48
1845.98
1849.63
1853.67
1856.71
1857.7
1856.62
1854.44
1852.61
1852.36
1854.4
1858.8
1865.3
1873.61
1883.75
1896.11
1911.4
1930.66
1955.01
1985.41
2018.56
2047.14
2061.08
2051.01
2013.69
1955.67
1890.87
1832.93
1788.22
1754.56
1725
1693.02
1655.81
1614.43
1572.01
1531.56
1494.72
1461.51
1430.79
1401.03
1370.92
1340.02
1309.02
1279.83
1255.66
1240.66
8946.22
3390.66
1846.66
1523.75
1431
1375.82
1326.34
1279.83
1238.28
1203.61
1176.44
1155.88
1140.35
1128.36
1118.35
1108.13
1093.22
1074.05
1053.06
1033.44
1019.03
1014.4
1025.8
1063.26
1141.63
1288.05
1526.91
1820.77
2074.56
2287.6
2468.71
2613.08
2720.06
2792.63
2834.98
2851.04
2844.09
2816.94
2772.39
2713.48
2643.72
2566.96
2487.29
2408.74
2335.09
2269.65
2215.07
2173.07
2144.14
2127.4
2120.68
2120.98
2125.16
2130.66
2136.01
2141.04
2146.56
2153.7
2163.3
2175.4
2189.19
2203.27
2217.29
2230.53
2244.87
2262.66
2286.21
2317.22
2355.74
2398.27
2439.9
2475.28
2498.81
2505.81
2492.49
2458.64
2408.11
2344.92
2274.07
2200.42
2128.41
2061.58
2001.27
1945.61
1890
1828.7
1757.77
1677.05
1589.65
1499.91
1411.88
1329.02
1255.46
1196.72
1158.86
1147.77
1168.38
1223.03
1309.47
1419.24
1537.96
1649.77
1746.85
1838.87
1950.24
2101.56
2295.51
2510.36
2703.16
2821.88
2826.03
2710.99
2517.54
2308.31
2129.78
1999.27
1913.77
1861.98
1830.36
1807.94
1788.06
1768.43
1750.2
1736.68
1730.09
1729.67
1732.35
1736.8
1739.93
1741.94
1743.56
1744.92
1746.14
1747.87
1751.04
1756.32
1763.43
1770.99
1777.42
1781.86
1784.66
1787.02
1790.24
1795.17
1801.9
1809.98
1818.76
1827.92
1837.5
1848.05
1860.43
1875.86
1895.83
1922.24
1954.23
1987.41
2013.48
2021.61
2002.93
1956.18
1889.93
1818.24
1752.77
1697.89
1651.31
1608.14
1564.74
1520.35
1476.48
1435.28
1398.19
1365.38
1335.94
1308.36
1281.24
1253.85
1226.53
1200.85
1179.79
1167.48
8614.89
2911.03
1721.81
1540.24
1472
1411.37
1350.55
1292.72
1241.46
1199.01
1165.76
1140.34
1121.07
1106.71
1096.1
1086.95
1071.8
1052.42
1031.72
1012.8
999.449
996.38
1009.88
1049.58
1130.79
1276.25
1502.22
1771.33
2005.46
2201.74
2368.51
2502.04
2601.42
2669.12
2709.15
2725.55
2721.78
2700.73
2665.06
2617.48
2560.82
2498.09
2432.43
2367.03
2305.09
2249.65
2203.41
2168.24
2144.78
2132.16
2128.08
2129.37
2132.8
2135.9
2137.43
2137.8
2138.49
2141.01
2146.23
2153.58
2160.91
2165.7
2168.65
2170.8
2174.9
2184
2201.16
2228.86
2268.18
2316.22
2366.35
2413.12
2450.19
2472.37
2476.29
2460.58
2425.71
2373.58
2307.03
2229.85
2147.05
2064.5
1986.96
1915.73
1848.23
1780.06
1707.37
1628.74
1545.7
1461.32
1378.69
1300.51
1229.93
1171.52
1130.94
1114.6
1129.07
1179.56
1267.5
1387.97
1528.16
1669.31
1795.01
1903.79
2014.3
2147.71
2310.06
2484.15
2632.89
2712.42
2692.06
2574.03
2396.73
2211.96
2056.45
1943.26
1868.92
1822.76
1792.95
1770.44
1750.11
1730.6
1713.41
1701.29
1694.75
1691.25
1687.85
1684.33
1679.64
1674.67
1670.52
1668.03
1667.74
1670.26
1676.18
1685.49
1697.12
1709.12
1719.81
1728.58
1736.07
1743.54
1751.97
1761.65
1772.11
1782.46
1791.93
1800.29
1807.92
1815.65
1824.61
1836.06
1851.52
1873.22
1901.54
1934.32
1965.65
1985.74
1983.37
1951.43
1891.95
1815.93
1737.02
1664.62
1601.33
1545.07
1492.73
1442.66
1395.15
1351.49
1312.78
1279.18
1249.88
1223.43
1198.33
1173.57
1149.07
1125.94
1106.72
1095.24
7789.26
2463.45
1726.38
1603.59
1529.02
1455
1381
1311.36
1249.85
1198.44
1157.07
1124.28
1098.5
1078.69
1063.67
1051.2
1038.07
1022.36
1005.56
990.542
980.95
981.398
998.045
1039.85
1120.54
1258.53
1464.73
1708.36
1925.34
2108.05
2264.59
2392.16
2489.29
2557.55
2600.38
2621.74
2625.13
2613.42
2589.01
2554.1
2510.78
2461.21
2407.66
2352.66
2299.05
2249.85
2208
2175.85
2154.49
2143.39
2140.4
2142.24
2145.47
2147.39
2146.57
2143.37
2139.56
2136.9
2136.37
2137.25
2135.92
2130.86
2124.29
2118.32
2115.69
2119.62
2133.5
2160.06
2200.03
2251.17
2308.45
2365
2413.67
2448.52
2465.51
2462.35
2438.09
2392.7
2327.29
2244.93
2151.32
2054.14
1960.51
1874.18
1794.51
1718.09
1641.62
1563.54
1484.29
1405.67
1329.69
1258.14
1193.2
1138.28
1098.21
1079.16
1088.44
1133.38
1218.95
1344.44
1500.43
1667.94
1823.71
1953.73
2067.29
2184.61
2316.21
2451.71
2561.85
2611.32
2577.14
2464.29
2305.68
2142.95
2005.52
1904.16
1836.07
1792.13
1762.42
1739.45
1719.08
1700.34
1684.46
1672.97
1665.2
1658.23
1649.82
1640.22
1629.57
1619.32
1611.11
1606.27
1605.75
1610.19
1619.77
1633.79
1650.36
1667.08
1682.28
1695.56
1707.67
1719.78
1732.53
1745.65
1758.15
1768.91
1777.26
1783.34
1787.99
1792.48
1798.05
1805.79
1816.87
1833.52
1857.23
1887.34
1920.03
1947.24
1957.56
1940.4
1891.98
1818.5
1732.84
1647.41
1569.18
1499.44
1436.58
1378.94
1326.1
1278.65
1237.29
1202.1
1172.29
1146.42
1122.88
1100.38
1078.44
1057.6
1039.77
1028.26
6635.14
2193.69
1787.98
1682.97
1596.33
1508.83
1422.07
1340.62
1268.22
1206.71
1155.95
1114.46
1080.73
1053.83
1033.19
1017.99
1006.99
995.708
984.264
974.885
970.75
976.001
996.2
1039.2
1116.36
1241.98
1424.24
1641.31
1842.09
2013.09
2161.8
2286.39
2384.71
2457.18
2506.26
2535.48
2548.29
2547.49
2535.03
2512.96
2482.78
2445.8
2403.49
2357.79
2311.13
2266.48
2226.98
2195.38
2173.37
2161
2156.62
2157.27
2159.54
2160.5
2158.49
2153.41
2146.31
2138.58
2130.89
2122.46
2111.14
2098.39
2085.69
2074.98
2068.91
2070.81
2084.37
2112.65
2156.68
2214.24
2279.78
2345.63
2403.81
2447.7
2472.57
2475.26
2453.54
2406.16
2333.7
2239.98
2132.34
2020.22
1912.01
1812.42
1721.83
1637.91
1557.88
1480.24
1404.96
1332.77
1264.56
1201.19
1143.94
1095.12
1058.48
1039.41
1045.14
1084.17
1164.3
1289.13
1453.91
1642.26
1827.41
1983.42
2106.64
2213.19
2317.8
2418.52
2495.49
2522.03
2481.06
2377.6
2237.91
2094.65
1971.56
1878.23
1813.18
1769.31
1738.6
1714.81
1694.43
1676.45
1661.42
1649.78
1640.29
1630.31
1618.38
1604.9
1590.35
1576.61
1565.95
1560.22
1560.69
1567.97
1581.8
1600.72
1622.14
1643.29
1662.52
1679.62
1695.46
1711.05
1726.74
1741.74
1754.63
1764.16
1769.98
1772.77
1773.96
1775.24
1778.03
1783.13
1790.93
1802.73
1820.96
1846.43
1877.5
1908.09
1927.57
1923.63
1887.97
1821.63
1734.78
1640.9
1550.32
1467.74
1393.69
1327.2
1267.66
1215.23
1170.28
1132.78
1101.91
1076.21
1053.96
1033.61
1014.24
995.843
979.626
968.141
5360.78
2153.75
1879.15
1773.36
1674.84
1576.07
1478.71
1387.1
1304.79
1233.82
1174.3
1124.96
1084.27
1051.26
1025.61
1007.31
996.15
988.071
981.441
977.615
979.004
988.956
1012.04
1054.6
1125.45
1235.37
1391.19
1579.98
1763.55
1923.06
2064.58
2187.26
2288.55
2367.65
2425.35
2463.18
2485.78
2496.01
2495.84
2486.78
2469.68
2445.19
2414.13
2377.77
2338.06
2297.66
2259.66
2227.04
2202.03
2185.48
2176.61
2173.23
2172.42
2171.26
2167.77
2161.12
2151.52
2139.68
2126.09
2110.67
2093.01
2074.89
2058.08
2044.76
2037.78
2040.76
2057.7
2091.82
2143.92
2211.08
2286.64
2361.73
2427.41
2476.26
2502.64
2502.19
2471.71
2410.03
2319.44
2206.49
2081.05
1953.74
1832.92
1722.89
1624.12
1534.94
1453.29
1377.72
1307.73
1243.2
1184.01
1130.19
1082.22
1041.49
1010.66
994.085
998.272
1031.9
1104.56
1223.63
1389.59
1590.91
1801.5
1986.89
2128.14
2232.72
2317.25
2388.63
2437.58
2446.28
2402.43
2309.83
2188.06
2062
1950.78
1863.2
1799.31
1754.2
1721.67
1696.59
1675.82
1658.13
1643.32
1631.06
1619.88
1607.58
1593.31
1577.49
1560.93
1545.69
1534.35
1529.27
1531.95
1542.85
1561.2
1584.8
1610.49
1635.27
1657.5
1677.22
1695.5
1713.34
1730.66
1746.11
1757.85
1764.72
1766.84
1765.55
1762.86
1760.93
1761.5
1765.35
1772.12
1781.32
1794.57
1813.86
1840.23
1870.41
1895.38
1902.23
1879.37
1822.91
1739.23
1641.18
1541.25
1447.21
1362.02
1285.96
1218.71
1160.26
1110.8
1070.2
1037.63
1011.61
990.315
971.943
955.184
939.485
925.357
914.533
4129.57
2154.73
1980.36
1873.21
1766.43
1660.71
1557.05
1459.28
1370.46
1292.66
1226.67
1171.77
1126.52
1089.73
1060.74
1039.38
1025.65
1018.75
1015.12
1015.24
1020.66
1033.73
1057.78
1097.46
1159.08
1250.4
1377.34
1534.55
1697.17
1843.35
1976.39
2096.85
2201.93
2285.4
2350.01
2397.91
2431.88
2454.21
2466.77
2470.78
2466.8
2455.07
2435.86
2409.81
2378.22
2343.15
2307.29
2273.54
2244.43
2221.57
2205.24
2194.4
2187.04
2180.8
2173.61
2164.17
2151.93
2136.99
2119.68
2100.4
2079.73
2059.48
2041.64
2028.77
2024.21
2032.11
2056.86
2101.59
2166.26
2246.42
2333.57
2417.21
2487.13
2534.65
2552.6
2535.52
2480.8
2390.25
2270.64
2132.57
1987.9
1847
1716.71
1600.02
1497.03
1406.45
1326.63
1256.13
1193.85
1138.79
1090.04
1046.98
1009.48
978.194
954.869
942.793
947.4
976.756
1041.08
1150.42
1310.17
1514.97
1743.27
1957.79
2125.46
2239.81
2314.35
2363.38
2388.94
2382.9
2337.75
2255.92
2150.87
2040.62
1940.12
1857.41
1793.93
1746.88
1711.88
1684.89
1663.11
1645.03
1629.85
1616.68
1604.02
1590.1
1574.57
1557.63
1540.37
1525.17
1514.89
1512.05
1518.11
1533.26
1556.18
1584.02
1613.12
1640.36
1664.27
1685.22
1704.59
1723.37
1741.03
1755.57
1764.79
1767.75
1765.13
1758.92
1751.67
1746.02
1744.2
1747.41
1755.15
1765.37
1776.79
1790.74
1810.46
1836.52
1862.97
1877.55
1866.4
1821.2
1743.95
1645.5
1539.27
1435.58
1339.86
1253.97
1178.3
1112.96
1058.12
1013.59
978.593
951.644
930.81
914.096
899.835
886.979
875.4
866.026
3063.23
2167.22
2085.77
1985.51
1880.28
1776.44
1674.1
1577.09
1487.37
1406.38
1335.79
1275.93
1226.01
1184.98
1151.92
1126.15
1107.33
1097.45
1093.72
1094.62
1100.91
1114.11
1136.46
1171.16
1222.56
1296.16
1397.03
1524.47
1664.4
1796.06
1919.44
2036.2
2135.49
2220
2290.55
2347.52
2391.99
2425.4
2449.19
2464.38
2471.5
2470.69
2461.98
2445.57
2422.19
2393.24
2360.79
2327.33
2295.34
2266.81
2242.83
2223.41
2207.62
2193.93
2180.68
2166.55
2150.69
2132.82
2113.07
2091.91
2070.53
2050.92
2035.34
2026.82
2029.38
2047.84
2086.85
2148.9
2232.17
2329.48
2429.51
2519.3
2586.39
2619.67
2610.52
2554.92
2455.42
2320.88
2164.2
1999.02
1837
1686.23
1551.07
1432.93
1331.43
1245.26
1172.65
1111.76
1060.73
1017.77
981.415
950.61
924.834
904.198
889.719
883.728
890.475
916.881
972.77
1069.67
1216.96
1415.84
1652.05
1891.39
2091.08
2227.96
2306.6
2344.65
2354.27
2337.07
2290.79
2217.44
2125.95
2028.93
1937.76
1859.49
1796.46
1747.56
1709.99
1680.74
1657.37
1638.24
1622.13
1607.84
1593.83
1578.64
1562.24
1544.87
1528.01
1514.28
1506.63
1507.45
1517.95
1537.89
1565.35
1596.85
1628.29
1656.53
1680.37
1700.77
1719.72
1738.28
1755.26
1767.8
1773.36
1771.22
1762.69
1750.38
1737.42
1726.94
1721.71
1723.64
1732.84
1746.84
1761.4
1774.35
1788.93
1809.22
1833.7
1852.42
1850.63
1816.4
1747.34
1651.44
1541.93
1430.88
1325.95
1230.74
1146.56
1073.93
1013.09
963.946
925.775
897.135
876.056
860.384
848.161
837.927
828.997
821.592
2405.51
2162.77
2151.56
2074.16
1991.69
1908.63
1823.55
1739.2
1657.13
1578.77
1506.41
1441.69
1385.08
1336.88
1297.11
1265.36
1240.99
1223.53
1217
1216.03
1220.52
1231.34
1249.92
1278.38
1319.61
1377.46
1455.98
1556.7
1672.86
1788.2
1899.84
2004.74
2094.7
2176.6
2249.43
2312.24
2364.74
2407.23
2440.37
2464.81
2480.99
2489.08
2489.07
2481.02
2465.28
2442.71
2414.75
2383.33
2350.58
2318.53
2288.67
2261.76
2237.79
2216.1
2195.72
2175.69
2155.26
2134.09
2112.24
2090.22
2069.78
2053.08
2042.69
2042.21
2056.34
2090.47
2149.13
2233.4
2338.52
2453.47
2563.04
2650.42
2699.31
2696.53
2636.17
2522.16
2366.91
2186.94
1998.39
1814.22
1643.2
1490.33
1357.73
1245.57
1152.77
1077.41
1017.05
969.107
931.05
900.766
876.611
857.411
842.463
831.586