/*--------------------------------*- C++ -*----------------------------------*\
| =========                 |                                                 |
| \\      /  F ield         | OpenFOAM: The Open Source CFD Toolbox           |
|  \\    /   O peration     | Version:  2112                                  |
|   \\  /    A nd           | Website:  www.openfoam.com                      |
|    \\/     M anipulation  |                                                 |
\*---------------------------------------------------------------------------*/
FoamFile
{
    version     2.0;
    format      ascii;
    arch        "LSB;label=32;scalar=64";
    class       volScalarField;
    location    "0.28";
    object      k;
}
// * * * * * * * * * * * * * * * * * * * * * * * * * * * * * * * * * * * * * //

dimensions      [0 2 -2 0 0 0 0];

internalField   nonuniform List<scalar> 
12225
(
1.1642
1.56217
1.69045
1.69572
1.65229
1.59357
1.53385
1.47918
1.43221
1.39406
1.36516
1.34552
1.33463
1.32858
1.32833
1.33468
1.3468
1.37286
0.384335
0.371897
0.345029
0.315928
0.289491
0.266748
0.247562
0.231375
0.217518
0.205385
0.194469
0.18445
0.175498
0.16963
0.165694
0.163033
0.161345
0.160525
0.366678
0.350947
0.330216
0.307354
0.284499
0.262937
0.243335
0.225961
0.210845
0.19789
0.186953
0.177976
0.170952
0.165622
0.161765
0.159237
0.157995
0.158191
0.367845
0.357834
0.346019
0.333176
0.320032
0.307159
0.294943
0.283621
0.273325
0.264119
0.256063
0.249121
0.243067
0.237904
0.233643
0.230325
0.228072
0.227241
0.368803
0.361383
0.353238
0.344623
0.335809
0.327046
0.318538
0.310437
0.302853
0.295877
0.289553
0.283827
0.278709
0.27422
0.270398
0.267315
0.265117
0.264081
0.369267
0.363028
0.356556
0.349913
0.34321
0.336567
0.330088
0.323861
0.317963
0.312449
0.307325
0.302618
0.298355
0.294571
0.291316
0.28867
0.286763
0.285789
0.369461
0.363759
0.358109
0.352494
0.346942
0.341501
0.33622
0.331146
0.326321
0.321766
0.317507
0.313571
0.309986
0.306792
0.304036
0.30179
0.300153
0.299246
0.369532
0.364057
0.358798
0.353713
0.34879
0.344035
0.339462
0.335091
0.330935
0.327012
0.323341
0.319944
0.316847
0.314083
0.311693
0.309733
0.30827
0.30737
0.369554
0.364163
0.359071
0.354237
0.349634
0.345251
0.341083
0.337128
0.333388
0.329873
0.326592
0.323559
0.320795
0.318323
0.316176
0.314391
0.313006
0.312052
0.36956
0.364194
0.359162
0.354431
0.349972
0.345769
0.341807
0.338077
0.334572
0.331293
0.328242
0.325428
0.322863
0.320562
0.318547
0.316838
0.315456
0.314411
0.36956
0.3642
0.359185
0.354487
0.350082
0.345951
0.342078
0.33845
0.335057
0.331895
0.328961
0.326257
0.32379
0.321567
0.3196
0.317897
0.316466
0.31531
0.36956
0.364199
0.359185
0.354493
0.350101
0.345989
0.342142
0.338546
0.33519
0.332067
0.329172
0.326502
0.32406
0.321848
0.31987
0.318129
0.316623
0.315356
0.369559
0.364198
0.359181
0.354487
0.350094
0.345984
0.34214
0.338549
0.335198
0.33208
0.329188
0.326517
0.324064
0.32183
0.319814
0.318012
0.316421
0.315044
0.369559
0.364196
0.359176
0.354477
0.350078
0.345961
0.342108
0.338508
0.335146
0.332013
0.329102
0.326405
0.323919
0.321639
0.319561
0.317679
0.315988
0.314494
0.36956
0.364195
0.359172
0.354467
0.35006
0.345932
0.342067
0.33845
0.335067
0.33191
0.328967
0.326232
0.323698
0.321358
0.319207
0.317238
0.315444
0.313834
0.36956
0.364196
0.359169
0.354459
0.350044
0.345905
0.342024
0.338388
0.334982
0.331795
0.328817
0.326038
0.323451
0.321048
0.318823
0.316767
0.314874
0.313158
0.369561
0.364197
0.359169
0.354454
0.35003
0.34588
0.341984
0.338328
0.334898
0.331681
0.328666
0.325844
0.323205
0.320742
0.318446
0.316311
0.314329
0.312516
0.369563
0.364198
0.359169
0.35445
0.350019
0.345858
0.341948
0.338273
0.33482
0.331575
0.328526
0.325663
0.322977
0.320459
0.318101
0.315895
0.313837
0.31194
0.369564
0.3642
0.359169
0.354446
0.350009
0.345838
0.341915
0.338223
0.334749
0.331478
0.3284
0.325502
0.322776
0.320212
0.317802
0.315538
0.313416
0.311451
0.369565
0.364201
0.359168
0.354442
0.350001
0.345823
0.34189
0.338187
0.334697
0.331409
0.328309
0.325388
0.322633
0.320038
0.317591
0.315287
0.31312
0.311105
0.369565
0.364201
0.359167
0.354439
0.349994
0.345811
0.341871
0.338159
0.334658
0.331356
0.32824
0.325299
0.322522
0.319899
0.317422
0.315081
0.312873
0.310813
0.369565
0.364201
0.359166
0.354434
0.349983
0.345791
0.341839
0.33811
0.334587
0.331257
0.328105
0.325121
0.322294
0.319612
0.317067
0.314651
0.312358
0.310205
0.369566
0.364199
0.359157
0.354412
0.349938
0.345711
0.341709
0.337915
0.334312
0.330884
0.327618
0.324502
0.321527
0.318681
0.315957
0.313347
0.310846
0.308476
0.369563
0.364182
0.359103
0.35429
0.349712
0.345341
0.341153
0.337132
0.333262
0.329534
0.325937
0.322463
0.319106
0.315859
0.312717
0.309676
0.306733
0.303916
0.369544
0.364083
0.35884
0.353762
0.348819
0.343988
0.339261
0.334632
0.330102
0.32567
0.321338
0.317106
0.312975
0.308944
0.305013
0.301181
0.297451
0.293854
0.369454
0.363682
0.357879
0.352001
0.346047
0.34004
0.334016
0.328012
0.322058
0.316182
0.310403
0.304735
0.299189
0.29377
0.288483
0.283333
0.278326
0.273497
0.369173
0.362469
0.355093
0.347096
0.338625
0.329856
0.320948
0.312027
0.303194
0.294519
0.286054
0.27783
0.269864
0.262166
0.254736
0.247577
0.240689
0.234094
0.368969
0.360111
0.348506
0.334815
0.319838
0.304246
0.288559
0.273156
0.258298
0.244155
0.230827
0.218364
0.206786
0.196095
0.186281
0.177325
0.169199
0.161878
0.378735
0.372765
0.358143
0.339003
0.31854
0.298588
0.280231
0.263987
0.249967
0.23807
0.228115
0.219903
0.213252
0.208097
0.204484
0.202251
0.201196
0.201155
0.807929
1.13317
1.35018
1.46649
1.50784
1.49952
1.46053
1.40376
1.33754
1.26703
1.19531
1.12419
1.0547
0.990322
0.936361
0.888326
0.843829
0.801753
0.0596759
0.0840556
0.0939072
0.0998373
0.104912
0.111148
0.119802
0.131805
0.147971
0.168795
0.193734
0.222009
0.252747
0.285047
0.31809
0.351218
0.38398
0.416154
0.447771
0.479145
0.510974
0.541445
0.56829
0.591536
0.61127
0.627613
0.640761
0.651041
0.658995
0.665566
0.672432
0.682658
0.700639
0.721847
0.742439
0.761088
0.777137
0.790272
0.800545
0.808328
0.813982
0.817328
0.816618
0.807686
0.783867
0.734324
0.652237
0.540706
0.415927
0.300949
0.212907
0.155988
0.123792
0.108284
0.104128
0.108583
0.120245
0.139234
0.163341
0.186662
0.205578
0.21655
0.219671
0.218205
0.215531
0.215113
0.221288
0.235766
0.252785
0.273894
0.306503
0.379964
0.554781
0.790066
0.981581
1.13641
1.25506
1.3411
1.39904
1.43346
1.44861
1.44828
1.43578
1.41389
1.38499
1.35102
1.31456
1.27673
1.23787
1.19831
1.15827
1.11793
1.0774
1.03668
0.995718
0.954359
0.912375
0.869482
0.825378
0.7798
0.732594
0.683798
0.63374
0.583224
0.534454
0.497817
0.48937
0.486167
0.483546
0.481371
0.479902
0.479406
0.480086
0.482068
0.485395
0.490021
0.495811
0.502547
0.509907
0.517565
0.525077
0.530319
0.531314
0.527106
0.517063
0.500947
0.478931
0.451568
0.419727
0.384538
0.347341
0.309646
0.273083
0.239307
0.209846
0.186017
0.169082
0.157902
0.150543
0.145605
0.142053
0.139158
0.136475
0.133801
0.131131
0.128588
0.12636
0.124632
0.123528
0.123086
0.123298
0.124099
0.125487
0.127497
0.130188
0.133635
0.137903
0.143028
0.148894
0.15506
0.160802
0.165744
0.17053
0.175428
0.177935
0.183307
0.244949
0.418768
0.547499
0.615379
0.633639
0.618656
0.584876
0.544355
0.499184
0.449976
0.396147
0.337125
0.274416
0.247232
0.109915
0.102415
0.117776
0.141428
0.175447
0.216768
0.263355
0.314817
0.369696
0.426451
0.484023
0.542031
0.60055
0.659791
0.719906
0.780886
0.842538
0.904484
0.966182
1.02693
1.08588
1.14131
1.19423
1.24427
1.2908
1.33318
1.37072
1.40275
1.42865
1.4478
1.45962
1.46347
1.4584
1.44254
1.41669
1.38204
1.33838
1.28547
1.2236
1.15428
1.08112
1.01013
0.945567
0.882548
0.815382
0.748916
0.690355
0.644184
0.609193
0.573219
0.517504
0.433934
0.336962
0.253574
0.200648
0.17709
0.173769
0.183624
0.204182
0.23381
0.262445
0.275189
0.265316
0.241107
0.219579
0.219885
0.259694
0.361096
0.529896
0.693932
0.770574
0.795251
0.828586
0.860809
0.882534
0.897898
0.91049
0.922987
0.936949
0.953078
0.971543
0.992252
1.01505
1.03985
1.06661
1.09545
1.12433
1.1527
1.18053
1.20785
1.23465
1.26089
1.28644
1.31101
1.33409
1.35489
1.37232
1.38502
1.39139
1.38979
1.37868
1.35685
1.32359
1.2787
1.22208
1.15506
1.09097
1.02611
0.960839
0.89638
0.833711
0.773547
0.71637
0.662458
0.61193
0.564781
0.520916
0.480182
0.442378
0.407299
0.374744
0.344894
0.318066
0.294088
0.272535
0.253112
0.235585
0.219756
0.205464
0.192588
0.181051
0.170828
0.161951
0.154499
0.148574
0.144252
0.141535
0.140248
0.140099
0.140758
0.141915
0.143307
0.144733
0.146038
0.147089
0.14774
0.147808
0.147049
0.14514
0.141668
0.136288
0.12896
0.119902
0.109552
0.0984823
0.087457
0.0772268
0.0684852
0.0619055
0.0580843
0.0575634
0.0613044
0.0721787
0.100042
0.16979
0.287514
0.367301
0.408523
0.441169
0.473464
0.509173
0.548092
0.588906
0.62869
0.66375
0.687754
0.691712
0.666966
0.604492
0.53522
0.165805
0.133361
0.183088
0.247467
0.319111
0.387102
0.453648
0.520777
0.588147
0.655377
0.722302
0.78899
0.855523
0.921833
0.987677
1.05269
1.11647
1.17861
1.23876
1.29655
1.35097
1.40168
1.44863
1.49129
1.52896
1.56087
1.58625
1.6044
1.61474
1.61679
1.61019
1.59466
1.56985
1.53518
1.48943
1.43748
1.37962
1.3155
1.24547
1.17067
1.09325
1.01705
0.948029
0.892328
0.849869
0.807521
0.750677
0.68413
0.626111
0.585271
0.553875
0.513387
0.449678
0.367911
0.288604
0.228786
0.192999
0.179644
0.18973
0.22212
0.26741
0.307558
0.324945
0.323426
0.334378
0.411978
0.58498
0.780804
0.847515
0.823904
0.801197
0.793961
0.804955
0.82715
0.85665
0.891872
0.9305
0.969868
1.00782
1.04332
1.07643
1.10779
1.13813
1.16786
1.197
1.22505
1.2523
1.2786
1.30391
1.32836
1.35219
1.3757
1.39916
1.42268
1.44607
1.46875
1.48965
1.50721
1.51945
1.52419
1.51928
1.50288
1.47379
1.43134
1.37463
1.30999
1.24422
1.17578
1.10608
1.03651
0.968201
0.901995
0.838488
0.778074
0.720984
0.667323
0.617102
0.570261
0.526684
0.486208
0.448646
0.413713
0.380944
0.350271
0.321582
0.29478
0.269784
0.246536
0.225007
0.205201
0.187145
0.17087
0.156388
0.143677
0.132675
0.123279
0.115362
0.108779
0.10339
0.099068
0.095691
0.0931342
0.0912636
0.0899381
0.089016
0.0883604
0.0878417
0.0873374
0.0867227
0.0858499
0.0845539
0.082689
0.0801611
0.076948
0.0731212
0.0687451
0.0639977
0.0592896
0.0553479
0.0532858
0.0547427
0.0628571
0.0860852
0.145219
0.259395
0.359623
0.385801
0.420373
0.468752
0.516505
0.556826
0.592784
0.626508
0.660553
0.692673
0.716794
0.723611
0.703604
0.648476
0.591588
0.230248
0.185918
0.289792
0.397124
0.48874
0.564994
0.638056
0.710777
0.783314
0.855629
0.927483
0.998496
1.06818
1.136
1.20149
1.26426
1.32405
1.38067
1.43394
1.48366
1.52878
1.56966
1.60607
1.63749
1.6632
1.68233
1.694
1.69739
1.69186
1.677
1.65268
1.61901
1.57624
1.52466
1.46383
1.39646
1.32773
1.25612
1.18135
1.10404
1.02555
0.947823
0.873589
0.806933
0.753384
0.717631
0.696442
0.671624
0.62821
0.579635
0.539687
0.506901
0.467932
0.413048
0.346947
0.28371
0.235614
0.209526
0.209784
0.241689
0.299356
0.36641
0.421026
0.469916
0.581591
0.763287
0.893214
0.876308
0.818805
0.777867
0.767626
0.783238
0.817339
0.862084
0.911481
0.960754
1.0063
1.04635
1.0811
1.11194
1.14044
1.16764
1.19392
1.21906
1.24252
1.26395
1.28335
1.30047
1.31525
1.328
1.33929
1.34997
1.36096
1.37312
1.38695
1.40245
1.41895
1.43503
1.44859
1.45711
1.45798
1.44885
1.428
1.39424
1.3474
1.29596
1.24002
1.1806
1.11921
1.05713
0.99541
0.934838
0.875996
0.819296
0.76502
0.713346
0.66438
0.618165
0.574698
0.533933
0.495796
0.460165
0.42682
0.395478
0.366038
0.338372
0.31238
0.287997
0.265192
0.243954
0.224287
0.206198
0.189687
0.17474
0.161319
0.149359
0.138764
0.129413
0.121172
0.113907
0.107498
0.101845
0.0968646
0.0924848
0.088638
0.0852589
0.0822842
0.0796534
0.0773081
0.0751891
0.073233
0.0713722
0.0695318
0.067627
0.0655703
0.0632874
0.0607626
0.0581888
0.0562573
0.0564752
0.0615687
0.0771234
0.117063
0.203271
0.321212
0.373597
0.396806
0.445112
0.496201
0.532868
0.557557
0.576887
0.593235
0.61126
0.630654
0.647375
0.653125
0.637846
0.597342
0.555486
0.30007
0.254685
0.410787
0.548293
0.650751
0.733075
0.811168
0.888491
0.965769
1.04272
1.11847
1.19196
1.26217
1.32831
1.38985
1.4465
1.49815
1.54475
1.58629
1.62266
1.65415
1.68217
1.7069
1.72798
1.74455
1.75546
1.75934
1.75487
1.7409
1.71669
1.68197
1.63698
1.58237
1.51902
1.44757
1.36884
1.29052
1.21216
1.13229
1.05081
0.968619
0.887663
0.810487
0.739417
0.676453
0.625232
0.591977
0.579552
0.574039
0.551808
0.516852
0.481699
0.448866
0.411697
0.366296
0.317534
0.275719
0.251911
0.255395
0.293726
0.37094
0.477435
0.595671
0.748981
0.896707
0.933778
0.873249
0.799567
0.754623
0.746147
0.767841
0.809462
0.861521
0.916267
0.968077
1.01348
1.05145
1.083
1.11014
1.13478
1.15822
1.18102
1.20318
1.22424
1.24345
1.26005
1.27321
1.28223
1.28685
1.28734
1.28456
1.27992
1.27512
1.27195
1.27189
1.27577
1.28352
1.29405
1.30532
1.3146
1.31894
1.31558
1.30241
1.27774
1.24533
1.20716
1.16408
1.11739
1.06837
1.01809
0.967401
0.91695
0.867214
0.818545
0.771203
0.725385
0.681242
0.638892
0.598421
0.559888
0.52332
0.488718
0.456033
0.425116
0.395925
0.368411
0.342507
0.318145
0.295267
0.273833
0.253826
0.23525
0.218122
0.202449
0.188215
0.175365
0.163805
0.153412
0.14405
0.135588
0.127912
0.120931
0.114574
0.108786
0.103518
0.0987227
0.0943577
0.0903802
0.0867513
0.0834363
0.0804036
0.0776205
0.075045
0.0726172
0.0702611
0.0679023
0.0655273
0.0633559
0.062212
0.0639981
0.0725365
0.0962462
0.151263
0.250344
0.345415
0.373879
0.409206
0.463096
0.50452
0.525427
0.533966
0.535855
0.535501
0.537781
0.544366
0.553153
0.556797
0.544867
0.517208
0.484995
0.37426
0.332474
0.530806
0.689382
0.801646
0.892731
0.978361
1.06225
1.14511
1.22583
1.30263
1.37377
1.43793
1.49435
1.54281
1.58351
1.61689
1.64352
1.66391
1.67846
1.69067
1.70376
1.71828
1.73366
1.74853
1.7609
1.76837
1.76839
1.75865
1.73737
1.70364
1.65748
1.59973
1.53173
1.45497
1.37025
1.28457
1.2004
1.11536
1.02872
0.940606
0.852271
0.766277
0.686027
0.614481
0.553609
0.506558
0.479346
0.476065
0.481421
0.471994
0.447495
0.418635
0.39004
0.359923
0.328259
0.301131
0.290398
0.310033
0.368526
0.481469
0.653823
0.87215
1.01223
0.968333
0.866231
0.781338
0.733575
0.725783
0.74998
0.794912
0.85
0.906837
0.959419
1.00438
1.04099
1.07048
1.09498
1.11662
1.13707
1.15742
1.17816
1.19915
1.21969
1.23866
1.25418
1.26464
1.2688
1.26603
1.25643
1.24097
1.22148
1.20048
1.18075
1.16488
1.15468
1.15082
1.15261
1.15814
1.16463
1.16892
1.16807
1.15958
1.14379
1.12193
1.09474
1.06323
1.02849
0.991503
0.953099
0.913894
0.874341
0.834759
0.795382
0.756387
0.717924
0.680135
0.643156
0.60712
0.572154
0.538376
0.505887
0.47476
0.444956
0.416528
0.389519
0.363946
0.339802
0.31707
0.295723
0.27574
0.257105
0.239808
0.223843
0.209192
0.195816
0.183649
0.172597
0.162552
0.1534
0.145037
0.137373
0.130336
0.123869
0.117921
0.112449
0.107411
0.102767
0.0984809
0.0945174
0.0908458
0.0874349
0.0842467
0.0812302
0.078324
0.0754814
0.0727462
0.0704634
0.0697292
0.0730049
0.0851935
0.116303
0.182385
0.279913
0.349828
0.374117
0.41992
0.47114
0.499938
0.508004
0.503871
0.492325
0.479375
0.46967
0.466256
0.468567
0.470092
0.461138
0.440937
0.414297
0.452338
0.413267
0.643315
0.818092
0.941615
1.04388
1.13852
1.22856
1.31357
1.39102
1.45818
1.51303
1.55471
1.58346
1.60049
1.60758
1.6068
1.60024
1.58972
1.57672
1.56899
1.57071
1.58197
1.60144
1.62686
1.65509
1.68227
1.70405
1.71605
1.71457
1.69725
1.66345
1.61402
1.5508
1.47605
1.39149
1.30311
1.21549
1.12633
1.03479
0.940628
0.844586
0.748849
0.657133
0.573858
0.502493
0.445104
0.404654
0.386294
0.392164
0.40163
0.39717
0.379517
0.358489
0.339082
0.322267
0.312253
0.321063
0.366262
0.462223
0.628182
0.890902
1.09741
1.03487
0.878661
0.771393
0.715987
0.704889
0.727969
0.773222
0.829509
0.887934
0.942209
0.988832
1.02691
1.05741
1.08224
1.10353
1.12329
1.1431
1.16398
1.18624
1.20939
1.23226
1.25308
1.26927
1.27883
1.28011
1.272
1.25428
1.22782
1.19469
1.15805
1.1217
1.08939
1.06397
1.04685
1.03771
1.03476
1.03529
1.03615
1.03436
1.0283
1.01762
1.00239
0.983096
0.960478
0.935341
0.90841
0.880254
0.851273
0.821717
0.791732
0.761397
0.73077
0.699909
0.668891
0.637822
0.606834
0.57608
0.545725
0.51594
0.486887
0.458617
0.431292
0.405039
0.379955
0.356107
0.333539
0.312273
0.292317
0.273667
0.256313
0.240237
0.225409
0.211786
0.199307
0.18789
0.177446
0.167877
0.159093
0.151012
0.143562
0.136685
0.13033
0.124452
0.119008
0.113961
0.109271
0.104905
0.10083
0.0970079
0.0933974
0.0899447
0.0865911
0.0833048
0.0801822
0.0777248
0.0773419
0.0820062
0.0975949
0.135244
0.207139
0.294777
0.346632
0.375265
0.426672
0.470996
0.489171
0.488525
0.475868
0.455633
0.434306
0.416341
0.405709
0.402909
0.402608
0.396184
0.380249
0.357056
0.533125
0.491536
0.743548
0.930982
1.0659
1.17832
1.27847
1.36735
1.4423
1.49937
1.53567
1.55047
1.54521
1.52306
1.48825
1.44541
1.39909
1.3535
1.31234
1.27856
1.26099
1.26176
1.2798
1.31334
1.35993
1.41615
1.47733
1.5374
1.58933
1.62622
1.6429
1.63712
1.60936
1.56199
1.49821
1.42078
1.33625
1.24925
1.15859
1.06366
0.964065
0.860322
0.754525
0.650678
0.554236
0.47048
0.402645
0.352259
0.321658
0.3138
0.3252
0.335019
0.331859
0.320522
0.31011
0.305577
0.312418
0.34408
0.421515
0.566235
0.803225
1.07532
1.12321
0.931146
0.780332
0.704962
0.684365
0.702357
0.745418
0.801709
0.861798
0.91898
0.969343
1.01147
1.04572
1.07346
1.09661
1.11729
1.1375
1.1588
1.18201
1.20704
1.23295
1.25805
1.27993
1.29647
1.30546
1.30489
1.29324
1.26979
1.23502
1.1909
1.14092
1.08971
1.04222
1.00229
0.972071
0.951576
0.938949
0.931783
0.927063
0.92239
0.916111
0.907331
0.895763
0.881583
0.865236
0.847257
0.828128
0.808203
0.787687
0.76665
0.745072
0.722883
0.700003
0.676375
0.651984
0.626864
0.601104
0.574836
0.548235
0.521503
0.494842
0.468408
0.442435
0.417129
0.392665
0.369186
0.346801
0.32559
0.305606
0.286877
0.269411
0.253197
0.238206
0.224394
0.211699
0.200046
0.18935
0.179525
0.170486
0.162155
0.154463
0.147349
0.14076
0.134648
0.12897
0.123685
0.118756
0.114146
0.10982
0.105735
0.101845
0.0980891
0.0944082
0.0907731
0.0873211
0.0847061
0.0846416
0.0906032
0.109325
0.151987
0.224853
0.300167
0.340742
0.375535
0.428736
0.465465
0.476299
0.470425
0.452844
0.427677
0.401051
0.377492
0.361864
0.355137
0.3535
0.348823
0.336039
0.315514
0.614634
0.561121
0.825648
1.0215
1.16462
1.28122
1.37712
1.45029
1.49599
1.51041
1.49312
1.44745
1.37946
1.29651
1.20613
1.11535
1.03054
0.957411
0.900852
0.864633
0.851534
0.859269
0.886514
0.932592
0.99691
1.07813
1.17313
1.27592
1.37733
1.46606
1.53183
1.56877
1.57578
1.55528
1.51168
1.44908
1.37536
1.29419
1.20598
1.11057
1.00751
0.897023
0.781187
0.664559
0.553822
0.456179
0.37678
0.317392
0.278229
0.260226
0.263608
0.276148
0.282901
0.280843
0.278255
0.283678
0.305626
0.359008
0.4635
0.639632
0.903195
1.11723
1.02772
0.8225
0.707578
0.667185
0.674796
0.712643
0.767381
0.828717
0.88928
0.944484
0.99212
1.03167
1.06371
1.08968
1.11164
1.13191
1.15256
1.17494
1.19946
1.22562
1.25209
1.2769
1.29789
1.31337
1.32115
1.31909
1.30541
1.27892
1.23953
1.18868
1.12979
1.06785
1.00883
0.957523
0.916429
0.886267
0.864488
0.849889
0.839189
0.830455
0.822189
0.813373
0.80348
0.792399
0.7803
0.767476
0.754207
0.740672
0.726915
0.712863
0.698354
0.683187
0.667159
0.650098
0.631886
0.612469
0.591861
0.570142
0.547457
0.524002
0.499973
0.475609
0.451197
0.427007
0.403289
0.380257
0.358092
0.336935
0.316891
0.298028
0.280383
0.263967
0.248761
0.234727
0.221808
0.209931
0.199018
0.188985
0.179751
0.171239
0.16338
0.156112
0.149378
0.143129
0.137317
0.131901
0.126842
0.122102
0.117642
0.113417
0.109372
0.105444
0.101563
0.0976964
0.0940104
0.0912948
0.0915399
0.0986852
0.120068
0.165941
0.236375
0.300307
0.335098
0.373616
0.424988
0.456336
0.463052
0.454588
0.434757
0.40709
0.377404
0.350097
0.330986
0.321601
0.318796
0.315557
0.305532
0.287434
0.704999
0.615712
0.883234
1.08218
1.22742
1.33912
1.4184
1.46073
1.46158
1.42066
1.34328
1.2387
1.11759
0.990129
0.865155
0.750258
0.651936
0.575483
0.524541
0.500921
0.497539
0.509692
0.537044
0.580903
0.643713
0.728246
0.836081
0.965262
1.10775
1.24853
1.36988
1.45916
1.51113
1.52656
1.51103
1.47079
1.41401
1.34414
1.26298
1.17097
1.06758
0.95251
0.827483
0.697549
0.570972
0.457439
0.364767
0.296013
0.250142
0.225477
0.221059
0.230598
0.241014
0.245153
0.248516
0.261658
0.296182
0.367441
0.491002
0.684929
0.941718
1.0669
0.908309
0.735709
0.659401
0.648289
0.676463
0.72712
0.788385
0.851857
0.912043
0.965762
1.01145
1.04869
1.07819
1.10173
1.12181
1.14094
1.16098
1.18281
1.20638
1.23087
1.25486
1.27644
1.29424
1.30671
1.31186
1.3077
1.29242
1.26462
1.22367
1.17031
1.10762
1.04035
0.974897
0.917257
0.868921
0.832536
0.804655
0.783373
0.766978
0.754022
0.743226
0.733545
0.724266
0.715044
0.705826
0.696714
0.687828
0.67921
0.67078
0.662347
0.653638
0.644345
0.634169
0.622844
0.610163
0.595989
0.580255
0.56297
0.544219
0.524145
0.502922
0.480829
0.458176
0.435283
0.412457
0.389981
0.368104
0.347031
0.326924
0.3079
0.290034
0.273362
0.257887
0.243583
0.2304
0.218274
0.207129
0.196884
0.18746
0.178781
0.170775
0.163379
0.156533
0.150184
0.144284
0.138787
0.133654
0.128845
0.12432
0.120032
0.115923
0.111922
0.107953
0.103973
0.100167
0.0974318
0.0979844
0.106149
0.129575
0.176949
0.243112
0.297804
0.329737
0.369557
0.416869
0.443743
0.448728
0.439626
0.419154
0.390645
0.360002
0.331458
0.309911
0.298208
0.294677
0.292875
0.285434
0.269582
0.804844
0.650234
0.912194
1.10896
1.25015
1.34923
1.40364
1.40851
1.36277
1.27249
1.14952
1.00765
0.859622
0.71593
0.585133
0.474134
0.387882
0.328714
0.296139
0.287722
0.290799
0.301683
0.320614
0.349686
0.393016
0.456733
0.548085
0.67278
0.829967
1.00594
1.17598
1.31821
1.41989
1.47664
1.49499
1.48291
1.44784
1.39423
1.32475
1.24038
1.14062
1.02446
0.892605
0.749885
0.606068
0.473982
0.365284
0.285587
0.233431
0.204417
0.194824
0.200334
0.210374
0.217197
0.224328
0.243195
0.287489
0.371332
0.505392
0.704346
0.928776
0.974925
0.802955
0.671605
0.628413
0.63975
0.682227
0.740923
0.805822
0.870267
0.930016
0.982391
1.02583
1.06003
1.08619
1.10677
1.12462
1.14209
1.1605
1.18014
1.20057
1.22089
1.23983
1.25589
1.26847
1.27609
1.27705
1.26964
1.25225
1.22352
1.1826
1.12945
1.06693
0.999416
0.932229
0.873995
0.824866
0.784725
0.752203
0.726025
0.705212
0.688839
0.675878
0.665295
0.65626
0.648268
0.641115
0.634776
0.629258
0.624498
0.620311
0.616403
0.612407
0.607931
0.602602
0.596096
0.58815
0.578569
0.567225
0.554059
0.539085
0.522347
0.504017
0.484344
0.46363
0.442213
0.420443
0.39866
0.377172
0.35625
0.336116
0.316938
0.298835
0.281878
0.266096
0.25148
0.237996
0.225586
0.21418
0.203702
0.194073
0.185216
0.177059
0.169534
0.162581
0.156141
0.150164
0.144604
0.139419
0.134568
0.130011
0.125701
0.121577
0.117567
0.113586
0.109586
0.105763
0.103082
0.103924
0.11289
0.137683
0.185183
0.246461
0.294073
0.324269
0.363079
0.405417
0.428945
0.433261
0.424371
0.404585
0.377067
0.346673
0.317536
0.294633
0.281674
0.278124
0.277927
0.272871
0.258956
0.908016
0.662521
0.913218
1.10473
1.23861
1.32256
1.352
1.32391
1.24259
1.12045
0.973776
0.81797
0.66544
0.525965
0.407413
0.315466
0.252507
0.216841
0.203408
0.20585
0.212827
0.222018
0.233121
0.247405
0.2684
0.302744
0.3607
0.454985
0.59603
0.779003
0.977649
1.16218
1.31097
1.40931
1.46426
1.48354
1.47393
1.44054
1.38673
1.31405
1.22216
1.10941
0.974918
0.82203
0.660991
0.507859
0.379389
0.285691
0.226108
0.19351
0.180977
0.182905
0.190748
0.197755
0.206921
0.230034
0.281462
0.372492
0.510008
0.702953
0.882651
0.875508
0.719968
0.625007
0.607906
0.63565
0.687728
0.751362
0.818342
0.883294
0.94249
0.993178
1.03376
1.06441
1.08713
1.10498
1.12083
1.13653
1.15272
1.16911
1.18494
1.19934
1.2115
1.22065
1.22664
1.22811
1.22374
1.21214
1.19189
1.16183
1.12143
1.06967
1.00923
0.94591
0.883928
0.827707
0.779072
0.737823
0.703005
0.673974
0.650424
0.631909
0.617617
0.606544
0.597802
0.590815
0.585315
0.581218
0.57846
0.576891
0.576225
0.576064
0.575946
0.5754
0.573998
0.571385
0.56728
0.561477
0.55383
0.544243
0.532663
0.519053
0.503555
0.486345
0.467681
0.447891
0.427337
0.406394
0.385422
0.36475
0.344656
0.325364
0.30704
0.289796
0.273691
0.258741
0.244927
0.232205
0.220512
0.209776
0.199919
0.190866
0.182542
0.174877
0.167806
0.16127
0.155215
0.149592
0.144359
0.139475
0.134898
0.130583
0.12647
0.122485
0.118542
0.114586
0.110818
0.108239
0.109323
0.118834
0.144332
0.190995
0.247538
0.289808
0.318413
0.354505
0.391708
0.412684
0.416883
0.408731
0.390379
0.364449
0.334887
0.305944
0.282817
0.26976
0.266966
0.268546
0.265551
0.25308
1.00307
0.656448
0.890528
1.07866
1.20628
1.27826
1.2895
1.23977
1.13829
1.00184
0.848567
0.693259
0.546891
0.418165
0.314347
0.240313
0.196663
0.178847
0.178946
0.188755
0.200247
0.211109
0.220118
0.227327
0.234731
0.2473
0.274683
0.332076
0.439035
0.603178
0.804459
1.01112
1.19167
1.3291
1.42107
1.47255
1.4901
1.47933
1.44415
1.38658
1.30658
1.20212
1.07068
0.912957
0.7376
0.562645
0.410528
0.298196
0.228278
0.191367
0.176312
0.175109
0.180001
0.185827
0.196055
0.222534
0.278783
0.372395
0.508367
0.686732
0.820824
0.784689
0.656862
0.590939
0.592926
0.632153
0.690389
0.756943
0.825126
0.890312
0.948759
0.997467
1.03502
1.06234
1.08224
1.09808
1.11247
1.12663
1.14051
1.15323
1.1638
1.17148
1.17601
1.1776
1.17627
1.17102
1.16089
1.14477
1.1213
1.08913
1.04912
1.00068
0.945544
0.887167
0.829934
0.777484
0.731238
0.690814
0.655566
0.625477
0.600825
0.581508
0.56684
0.555838
0.547625
0.541647
0.537662
0.535581
0.5353
0.536585
0.539043
0.542161
0.545366
0.5481
0.549877
0.550315
0.54915
0.546209
0.541386
0.534608
0.525768
0.514879
0.501962
0.487101
0.470485
0.452393
0.43317
0.4132
0.392874
0.372565
0.352602
0.333263
0.314764
0.297257
0.280837
0.265549
0.251395
0.238344
0.226345
0.21533
0.205227
0.195958
0.187448
0.179625
0.172422
0.165777
0.159634
0.153942
0.148656
0.143736
0.139142
0.134828
0.130736
0.126795
0.122917
0.119047
0.11538
0.112921
0.114174
0.123946
0.149546
0.194775
0.24712
0.285347
0.312129
0.344448
0.376647
0.395471
0.399761
0.392594
0.375907
0.351715
0.323411
0.295414
0.273099
0.261018
0.259701
0.263127
0.26169
0.249997
1.05304
0.65168
0.8461
1.0351
1.1614
1.2284
1.23243
1.17519
1.06853
0.931098
0.781305
0.632854
0.495084
0.37538
0.280393
0.214979
0.179526
0.168768
0.175442
0.191528
0.208525
0.223381
0.234204
0.240352
0.243065
0.245855
0.256272
0.288058
0.360011
0.487929
0.669655
0.878887
1.07974
1.24651
1.36965
1.45043
1.49424
1.50658
1.49159
1.45159
1.38685
1.29529
1.17323
1.01837
0.835536
0.641687
0.463689
0.32709
0.241649
0.197769
0.179287
0.174634
0.176093
0.180171
0.191175
0.22053
0.279435
0.372153
0.503118
0.661211
0.755639
0.70809
0.608595
0.566425
0.581304
0.627428
0.688875
0.756668
0.825251
0.89037
0.948105
0.995258
1.03037
1.05518
1.0732
1.08786
1.10143
1.11453
1.12649
1.13595
1.14162
1.1427
1.13922
1.13315
1.12424
1.11207
1.09617
1.07566
1.0495
1.01696
0.977689
0.931695
0.880313
0.826526
0.77417
0.726102
0.683051
0.644426
0.609947
0.580177
0.555795
0.53684
0.522638
0.512228
0.504815
0.499959
0.497514
0.497425
0.499551
0.503569
0.508974
0.515132
0.52136
0.526994
0.531461
0.534333
0.535345
0.534382
0.531433
0.526518
0.51961
0.510771
0.499928
0.487082
0.472332
0.455879
0.438013
0.419095
0.399518
0.379679
0.359946
0.340644
0.322032
0.304309
0.287604
0.271995
0.257505
0.244124
0.231811
0.220507
0.210142
0.200641
0.19193
0.183933
0.176583
0.169814
0.163569
0.157795
0.152448
0.147486
0.142869
0.138554
0.134487
0.130599
0.126803
0.123042
0.119502
0.117158
0.118486
0.128233
0.153405
0.196871
0.245696
0.280873
0.305575
0.333606
0.360993
0.377745
0.382068
0.375881
0.360786
0.338349
0.311675
0.285318
0.264746
0.254591
0.255334
0.260483
0.2599
0.248189
1.00886
0.647967
0.775601
0.967243
1.10596
1.17698
1.18306
1.12953
1.02934
0.901107
0.76257
0.626456
0.500968
0.392166
0.305224
0.243616
0.207272
0.19246
0.195716
0.211084
0.229546
0.24615
0.257982
0.263717
0.264099
0.261865
0.262942
0.279025
0.327746
0.427586
0.58505
0.783021
0.988012
1.17021
1.31446
1.41806
1.48435
1.51805
1.52309
1.50184
1.4547
1.37979
1.27296
1.12966
0.949855
0.745546
0.543859
0.378286
0.269898
0.213875
0.189657
0.180485
0.178127
0.180387
0.192229
0.223814
0.283083
0.372532
0.49578
0.630757
0.694205
0.646254
0.571973
0.547776
0.57105
0.620793
0.683384
0.751247
0.819567
0.884189
0.940969
0.986622
1.02024
1.0439
1.06123
1.07555
1.08878
1.10116
1.11163
1.11848
1.11996
1.11499
1.10442
1.09128
1.07582
1.05783
1.03707
1.01286
0.984364
0.950788
0.91164
0.867045
0.81835
0.768361
0.720378
0.676401
0.636459
0.599891
0.566878
0.538432
0.515372
0.497652
0.484524
0.47508
0.468686
0.465095
0.464289
0.46624
0.470748
0.477392
0.485576
0.494593
0.503681
0.512078
0.519089
0.52416
0.526951
0.527357
0.525471
0.521473
0.515604
0.507933
0.49841
0.486996
0.47371
0.458656
0.442041
0.42416
0.405377
0.386084
0.366668
0.347484
0.328833
0.310951
0.294007
0.278107
0.263303
0.249602
0.236979
0.225383
0.214751
0.20501
0.196085
0.187903
0.180391
0.173485
0.167125
0.161258
0.155838
0.150823
0.146175
0.141854
0.13781
0.133975
0.13027
0.126633
0.123232
0.120987
0.122286
0.131731
0.156016
0.197534
0.243534
0.276481
0.299007
0.322637
0.345402
0.359948
0.364049
0.358648
0.34494
0.324242
0.299557
0.275486
0.257483
0.25005
0.253217
0.259715
0.259083
0.246508
0.800161
0.638163
0.690153
0.846155
1.0017
1.10045
1.12858
1.09438
1.01356
0.904487
0.783986
0.664413
0.553713
0.457186
0.37865
0.320283
0.282008
0.261693
0.25738
0.263875
0.275208
0.286395
0.293696
0.295146
0.291075
0.283698
0.278227
0.285349
0.321281
0.403772
0.541794
0.724007
0.921731
1.10592
1.25932
1.37656
1.45894
1.50998
1.53298
1.53004
1.50155
1.4458
1.3587
1.23463
1.06974
0.868831
0.653055
0.458635
0.319337
0.242825
0.208676
0.193514
0.187057
0.187544
0.199999
0.232331
0.289416
0.37373
0.486376
0.597143
0.637839
0.595631
0.542625
0.531628
0.559902
0.61089
0.673155
0.740227
0.807766
0.871642
0.927624
0.972541
1.00577
1.02944
1.04697
1.06141
1.07438
1.08591
1.09481
1.09927
1.09739
1.08812
1.07268
1.05429
1.03383
1.01135
0.986675
0.9593
0.928448
0.893357
0.853589
0.809429
0.762401
0.71527
0.670805
0.630146
0.592783
0.558232
0.527167
0.500812
0.479822
0.463894
0.452183
0.4439
0.438658
0.436436
0.437316
0.441232
0.447873
0.456733
0.467209