/*--------------------------------*- C++ -*----------------------------------*\
| =========                 |                                                 |
| \\      /  F ield         | OpenFOAM: The Open Source CFD Toolbox           |
|  \\    /   O peration     | Version:  2112                                  |
|   \\  /    A nd           | Website:  www.openfoam.com                      |
|    \\/     M anipulation  |                                                 |
\*---------------------------------------------------------------------------*/
FoamFile
{
    version     2.0;
    format      ascii;
    arch        "LSB;label=32;scalar=64";
    class       volScalarField;
    location    "0.18";
    object      k;
}
// * * * * * * * * * * * * * * * * * * * * * * * * * * * * * * * * * * * * * //

dimensions      [0 2 -2 0 0 0 0];

internalField   nonuniform List<scalar> 
12225
(
0.281265
0.462486
0.625227
0.790504
0.973951
1.18628
1.43545
1.72846
2.07093
2.46856
2.92714
3.45205
4.0479
4.71815
5.46452
6.28795
7.18103
8.11448
0.083318
0.0984566
0.116773
0.138338
0.163792
0.193826
0.229217
0.271174
0.321364
0.380767
0.44963
0.527627
0.613937
0.707409
0.806732
0.911479
1.02509
1.15562
0.0752
0.0767492
0.0790651
0.0819173
0.0848302
0.0877163
0.0907564
0.0942194
0.0984335
0.103653
0.110013
0.117553
0.126246
0.136049
0.146942
0.159064
0.172739
0.188
0.0746435
0.0743908
0.0743301
0.0745076
0.0749353
0.0755063
0.0761771
0.0769229
0.0777399
0.0786325
0.0795831
0.0805408
0.0814996
0.0824573
0.0834181
0.0843992
0.0854374
0.0865175
0.0746088
0.0742379
0.073901
0.0736036
0.0733542
0.0731532
0.0729981
0.0728857
0.0728154
0.072788
0.0728013
0.0728487
0.0729229
0.0730168
0.073124
0.0732418
0.0733704
0.0735114
0.0745992
0.0742204
0.0738635
0.0735248
0.0732052
0.0729057
0.0726257
0.0723642
0.0721209
0.0718963
0.0716899
0.0715008
0.0713275
0.0711685
0.0710227
0.0708898
0.0707699
0.0706647
0.0745935
0.0742093
0.0738458
0.0735002
0.0731727
0.0728632
0.0725705
0.072293
0.07203
0.071781
0.0715456
0.071323
0.0711122
0.0709125
0.0707234
0.0705447
0.0703765
0.0702192
0.0745897
0.0742015
0.0738342
0.0734856
0.073155
0.0728421
0.0725457
0.0722642
0.0719969
0.0717432
0.0715026
0.0712742
0.0710574
0.0708513
0.0706555
0.0704698
0.0702939
0.0701276
0.074587
0.0741961
0.0738261
0.0734752
0.0731423
0.0728267
0.0725275
0.0722435
0.0719736
0.0717174
0.0714742
0.0712433
0.0710238
0.0708151
0.0706167
0.0704282
0.0702492
0.0700794
0.0745852
0.0741923
0.0738203
0.0734675
0.0731327
0.0728152
0.072514
0.072228
0.0719563
0.0716981
0.0714528
0.0712197
0.070998
0.0707871
0.0705866
0.0703957
0.0702143
0.0700417
0.0745839
0.0741895
0.0738159
0.0734616
0.0731254
0.0728064
0.0725036
0.072216
0.0719427
0.0716829
0.071436
0.0712011
0.0709777
0.070765
0.0705626
0.0703699
0.0701864
0.0700117
0.074583
0.0741875
0.0738128
0.0734574
0.0731201
0.0727999
0.0724959
0.0722071
0.0719326
0.0716716
0.0714233
0.0711872
0.0709624
0.0707483
0.0705445
0.0703503
0.0701652
0.0699888
0.0745823
0.074186
0.0738103
0.073454
0.0731158
0.0727946
0.0724896
0.0721997
0.0719242
0.0716621
0.0714127
0.0711754
0.0709494
0.0707341
0.070529
0.0703336
0.0701472
0.0699694
0.0745817
0.0741847
0.0738082
0.073451
0.0731118
0.0727897
0.0724837
0.0721928
0.0719162
0.0716531
0.0714026
0.0711642
0.070937
0.0707206
0.0705143
0.0703175
0.0701298
0.0699508
0.0745812
0.0741837
0.0738064
0.0734483
0.0731083
0.0727853
0.0724784
0.0721866
0.071909
0.0716448
0.0713933
0.0711537
0.0709254
0.0707078
0.0705003
0.0703024
0.0701135
0.0699332
0.0745809
0.0741829
0.073805
0.0734462
0.0731055
0.0727817
0.0724738
0.0721811
0.0719026
0.0716374
0.0713849
0.0711443
0.0709149
0.0706962
0.0704876
0.0702885
0.0700984
0.0699171
0.0745806
0.0741823
0.073804
0.0734447
0.0731033
0.0727787
0.0724702
0.0721766
0.0718972
0.0716312
0.0713777
0.0711361
0.0709058
0.0706861
0.0704764
0.0702763
0.0700852
0.0699028
0.0745805
0.074182
0.0738034
0.0734437
0.0731018
0.0727767
0.0724675
0.0721733
0.0718932
0.0716263
0.0713721
0.0711297
0.0708985
0.0706779
0.0704673
0.0702663
0.0700743
0.0698909
0.0745805
0.0741821
0.0738034
0.0734435
0.0731013
0.0727759
0.0724663
0.0721715
0.0718909
0.0716235
0.0713686
0.0711255
0.0708936
0.0706724
0.0704611
0.0702594
0.0700666
0.0698826
0.0745807
0.0741824
0.0738038
0.073444
0.0731019
0.0727764
0.0724667
0.0721718
0.0718909
0.0716232
0.071368
0.0711247
0.0708925
0.0706709
0.0704593
0.0702572
0.0700641
0.0698797
0.074581
0.074183
0.0738047
0.0734451
0.0731032
0.0727778
0.0724681
0.0721732
0.0718923
0.0716246
0.0713694
0.071126
0.0708937
0.0706721
0.0704605
0.0702583
0.0700652
0.0698807
0.0745814
0.0741838
0.073806
0.0734468
0.0731051
0.07278
0.0724705
0.0721757
0.0718949
0.0716273
0.0713723
0.071129
0.070897
0.0706755
0.0704641
0.0702622
0.0700693
0.069885
0.0745821
0.0741852
0.073808
0.0734493
0.073108
0.0727833
0.0724741
0.0721797
0.0718991
0.0716317
0.0713768
0.0711338
0.070902
0.0706808
0.0704697
0.0702681
0.0700755
0.0698917
0.0745831
0.0741871
0.0738108
0.0734528
0.073112
0.0727878
0.0724792
0.0721854
0.0719054
0.0716387
0.0713845
0.0711422
0.0709112
0.0706908
0.0704805
0.0702798
0.070088
0.069905
0.0745847
0.0741903
0.0738156
0.0734589
0.073119
0.0727954
0.0724874
0.072194
0.0719145
0.0716485
0.0713953
0.0711544
0.0709252
0.0707071
0.0704996
0.0703022
0.0701144
0.0699358
0.0745875
0.0741952
0.0738234
0.0734712
0.0731381
0.0728235
0.0725268
0.0722471
0.0719844
0.0717383
0.0715089
0.0712958
0.0710988
0.0709177
0.0707519
0.0706011
0.0704647
0.0703419
0.0745941
0.0742171
0.0738801
0.0735888
0.073351
0.0731732
0.0730566
0.0729957
0.0729863
0.0730262
0.0731133
0.0732451
0.0734185
0.0736303
0.0738769
0.0741546
0.0744602
0.0747912
0.0746911
0.0749697
0.0755476
0.0763204
0.077239
0.0782635
0.079364
0.0804047
0.0814
0.0824193
0.0835333
0.0848071
0.0862978
0.0880525
0.0901065
0.0924853
0.0952038
0.0982892
0.077685
0.0829846
0.0895323
0.0971304
0.105791
0.115557
0.126574
0.139129
0.153621
0.170391
0.189658
0.211567
0.236209
0.263631
0.293827
0.326748
0.362312
0.400478
0.207391
0.325308
0.427182
0.522947
0.620213
0.723627
0.835905
0.958732
1.09315
1.23987
1.3995
1.57252
1.75937
1.96039
2.17591
2.40535
2.64874
2.9066
0.716068
0.703237
0.709667
0.726412
0.752326
0.785816
0.820776
0.858669
0.89876
0.940794
0.984786
1.03081
1.07893
1.12922
1.18171
1.23642
1.29333
1.3524
1.41355
1.4767
1.54172
1.60847
1.67676
1.74639
1.81717
1.8889
1.96146
2.03476
2.10757
2.17666
2.24161
2.30185
2.35675
2.40565
2.44788
2.48283
2.50997
2.52879
2.53841
2.5375
2.52195
2.49308
2.45157
2.39841
2.33482
2.2623
2.18263
2.09777
2.00975
1.92055
1.83196
1.74551
1.66243
1.58358
1.50956
1.44068
1.3771
1.31888
1.2661
1.21892
1.17765
1.14274
1.11471
1.09394
1.08042
1.07332
1.07089
1.07064
1.07048
1.07107
1.08141
1.13299
1.31254
1.74835
2.42018
3.30972
4.40232
5.69219
7.17064
8.82013
10.6125
12.5092
14.4631
16.421
18.3275
20.1289
21.7767
23.2316
24.4651
25.4596
26.1965
26.7286
27.1089
27.3614
27.5023
27.5436
27.4973
27.3749
27.1872
26.9442
26.6546
26.3261
25.9653
25.578
25.169
24.7422
24.3008
23.8476
23.3846
22.9132
22.4343
21.9483
21.4554
20.9551
20.4463
19.9276
19.3965
18.8505
18.2864
17.7015
17.0987
16.4757
15.8304
15.1619
14.4701
13.7559
13.0216
12.27
11.5028
10.7196
9.92367
9.12507
8.33405
7.5614
6.81899
6.12007
5.47952
4.91861
4.47578
4.21486
4.40567
4.90381
5.52615
6.26491
7.10689
8.05033
9.09531
10.2433
11.4959
12.8577
14.3361
15.932
17.6459
19.4802
21.4373
23.5159
25.7087
27.9928
30.2716
32.4225
34.3903
36.1229
37.578
38.7244
39.5442
40.0323
40.1943
40.0439
39.5976
38.8712
37.8771
36.6252
35.1254
33.3926
31.4492
29.3266
27.0677
24.7151
22.3502
19.9338
0.953185
0.861419
0.811095
0.780285
0.761632
0.750347
0.74333
0.739392
0.737798
0.737944
0.739345
0.74164
0.744582
0.748015
0.751851
0.75605
0.760613
0.765565
0.770954
0.776841
0.783296
0.790396
0.798223
0.806854
0.816354
0.826743
0.837965
0.849987
0.863824
0.881492
0.902252
0.925704
0.951463
0.979125
1.00824
1.03825
1.06855
1.09844
1.12714
1.15344
1.17561
1.19278
1.20424
1.20955
1.20856
1.20136
1.18835
1.17013
1.14754
1.12154
1.09313
1.06331
1.03295
1.00279
0.973361
0.945034
0.91802
0.892422
0.868295
0.845723
0.8249
0.806232
0.790441
0.778659
0.772465
0.773853
0.785101
0.808546
0.846471
0.902067
0.984215
1.12247
1.40266
1.85577
2.45732
3.17403
3.97654
4.83913
5.73303
6.62475
7.47771
8.25512
8.92325
9.45454
9.83003
10.0412
10.0902
9.98994
9.76147
9.43223
9.03289
8.60661
8.18911
7.79438
7.42531
7.08275
6.76717
6.4787
6.2171
5.98164
5.77105
5.58378
5.41817
5.27249
5.14512
5.03452
4.9393
4.85825
4.79025
4.73424
4.68927
4.65465
4.62973
4.61388
4.60655
4.60764
4.61713
4.63522
4.66322
4.70026
4.7397
4.77984
4.8188
4.85434
4.88388
4.90461
4.91365
4.9088
4.89051
4.86508
4.84004
4.81485
4.78736
4.75561
4.71716
4.67038
4.61797
4.56405
4.51751
4.49184
4.50754
4.52429
4.53263
4.54107
4.55595
4.58233
4.62519
4.68708
4.7538
4.80822
4.85043
4.89208
4.94712
5.0288
5.14984
5.3231
5.56211
5.88006
6.32473
6.93032
7.66108
8.48592
9.37347
10.297
11.2336
12.1612
13.0533
13.8742
14.5774
15.1131
15.4449
15.5558
15.4439
15.1182
14.5946
13.8957
13.0515
12.1021
11.1085
10.1503
1.27138
1.03865
0.916333
0.842977
0.796816
0.766883
0.746775
0.732996
0.723609
0.717379
0.713432
0.71112
0.70997
0.709637
0.709875
0.710509
0.711416
0.712506
0.713709
0.714969
0.716237
0.717466
0.718611
0.719629
0.720479
0.72112
0.721506
0.721593
0.721436
0.721679
0.723209
0.72606
0.730254
0.735797
0.742659
0.750764
0.75997
0.770056
0.780714
0.791499
0.801811
0.811003
0.818442
0.823581
0.826007
0.825467
0.821886
0.81536
0.806138
0.794597
0.781191
0.766408
0.750712
0.734509
0.718113
0.701729
0.685457
0.669301
0.653207
0.63712
0.621088
0.605429
0.590994
0.579524
0.574072
0.579307
0.601355
0.64679
0.721202
0.829566
0.983029
1.22046
1.57721
2.04149
2.59265
3.19618
3.81926
4.43042
4.99748
5.48891
5.87715
6.14213
6.27411
6.27501
6.15815
5.94609
5.6673
5.35208
5.02884
4.72117
4.44609
4.21399
4.02738
3.88249
3.77357
3.69513
3.64229
3.61057
3.59578
3.59428
3.60317
3.62015
3.64346
3.67176
3.70407
3.73971
3.7782
3.81922
3.8626
3.90819
3.95597
4.00502
4.0554
4.10723
4.16058
4.21524
4.27106
4.32783
4.38523
4.44277
4.49986
4.55597
4.61054
4.66298
4.71271
4.75917
4.8018
4.84021
4.87429
4.90389
4.92818
4.94521
4.9526
4.94952
4.9333
4.89723
4.8493
4.79318
4.73144
4.66186
4.58871
4.50781
4.42419
4.3424
4.26372
4.18883
4.1189
4.05502
3.99575
3.93297
3.86729
3.80038
3.73484
3.67352
3.61957
3.57634
3.54627
3.5299
3.53468
3.58049
3.6759
3.83131
4.05412
4.34885
4.71736
5.15947
5.67136
6.24078
6.84071
7.42742
7.94958
8.36186
8.63263
8.74541
8.69693
8.49477
8.15648
7.70899
7.19491
6.6638
1.52305
1.14195
0.957273
0.852768
0.790275
0.752088
0.728645
0.714533
0.70657
0.702797
0.701958
0.703232
0.706074
0.710112
0.715083
0.720784
0.727044
0.733707
0.740621
0.747626
0.754558
0.761242
0.767501
0.773154
0.778025
0.781949
0.784776
0.786377
0.786655
0.785604
0.783889
0.781537
0.778619
0.77523
0.771474
0.767455
0.763257
0.758932
0.754492
0.749897
0.745037
0.739735
0.733775
0.726932
0.719009
0.709869
0.699452
0.687786
0.674984
0.661228
0.646746
0.631781
0.616563
0.60129
0.586108
0.571106
0.556299
0.541639
0.527022
0.512339
0.497577
0.483028
0.469658
0.45969
0.457398
0.469775
0.506209
0.576395
0.687837
0.847507
1.07387
1.38838
1.77269
2.22425
2.71794
3.22025
3.69828
4.1215
4.46311
4.70289
4.83066
4.84844
4.77049
4.62103
4.42998
4.22787
4.04129
3.88976
3.78443
3.72852
3.71871
3.74746
3.80507
3.88169
3.96888
4.06013
4.15076
4.23767
4.31906
4.39405
4.4624
4.5243
4.58023
4.63084
4.67687
4.71908
4.7582
4.79494
4.83005
4.86233
4.89212
4.92082
4.94892
4.97663
5.00405
5.03125
5.05825
5.08494
5.11126
5.13704
5.16197
5.18557
5.20721
5.22617
5.2416
5.25256
5.25797
5.25694
5.24885
5.2327
5.20651
5.16723
5.10812
5.03582
4.95272
4.85706
4.756
4.64429
4.53695
4.42814
4.31636
4.20496
4.09817
3.99801
3.90443
3.81695
3.73535
3.65945
3.58861
3.52135
3.4569
3.39496
3.33548
3.27698
3.21927
3.16421
3.11306
3.06688
3.027
2.9975
2.98085
2.98338
3.01295
3.07823
3.18804
3.35027
3.57071
3.8509
4.18532
4.55846
4.94293
5.30435
5.60862
5.8276
5.94242
5.94446
5.836
5.62913
5.34831
5.0206
1.68659
1.17991
0.956831
0.83894
0.773196
0.736155
0.715889
0.705883
0.702435
0.703392
0.707489
0.713968
0.722362
0.73235
0.743683
0.756139
0.769491
0.783507
0.797935
0.812506
0.826938
0.840934
0.854193
0.866416
0.877317
0.886628
0.894106
0.899543
0.902757
0.903589
0.902017
0.898213
0.892309
0.884503
0.875036
0.864161
0.852099
0.839016
0.825034
0.810248
0.794723
0.778494
0.76157
0.743952
0.725647
0.706686
0.687137
0.667104
0.646736
0.626218
0.605746
0.585501
0.565636
0.546273
0.527509
0.509407
0.492
0.475289
0.459244
0.44384
0.429167
0.415677
0.404654
0.399002
0.404283
0.429418
0.48584
0.584834
0.735608
0.949235
1.24021
1.57732
1.96133
2.38006
2.80766
3.21269
3.56556
3.8423
4.02737
4.11654
4.1184
4.05331
3.94974
3.83878
3.74852
3.69961
3.70318
3.7609
3.86683
4.01017
4.17815
4.35842
4.54053
4.71664
4.88152
5.03216
5.16712
5.28613
5.38964
5.47855
5.55405
5.61746
5.67016
5.71355
5.74897
5.77769
5.8009
5.81854
5.82977
5.83736
5.84226
5.84516
5.8464
5.84623
5.84477
5.84199
5.83778
5.83188
5.82441
5.81515
5.80351
5.78866
5.76964
5.74534
5.71439
5.67513
5.62494
5.56237
5.48822
5.40286
5.30477
5.19323
5.07038
4.93276
4.78721
4.62982
4.47033
4.31937
4.17058
4.02449
3.88252
3.74711
3.62085
3.50515
3.40015
3.30537
3.22016
3.14375
3.07526
3.0137
2.95835
2.90866
2.86418
2.82431
2.7886
2.75683
2.72866
2.70195
2.6772
2.65444
2.63306
2.61586
2.60684
2.61145
2.63666
2.69047
2.78122
2.91616
3.09886
3.32636
3.58659
3.85852
4.11658
4.33531
4.493
4.57425
4.57226
4.48862
4.33507
4.12469
1.76112
1.17621
0.941073
0.82528
0.765369
0.734549
0.719996
0.715081
0.716272
0.721679
0.730289
0.741532
0.755044
0.770544
0.787759
0.806403
0.826164
0.84671
0.867686
0.888716
0.909411
0.929375
0.948212
0.965542
0.981008
0.994285
1.00509
1.01318
1.01832
1.02024
1.01841
1.0131
1.00461
0.993321
0.979654
0.964017
0.946723
0.927992
0.907981
0.886832
0.864679
0.841633
0.817791
0.793248
0.768102
0.742459
0.716441
0.690188
0.663867
0.637681
0.611828
0.58648
0.561764
0.537781
0.514621
0.492368
0.47113
0.451043
0.432273
0.415027
0.399688
0.387129
0.379329
0.380325
0.397247
0.440582
0.522988
0.655464
0.848664
1.11422
1.4183
1.75592
2.11862
2.49049
2.84709
3.16105
3.40963
3.57917
3.66786
3.68677
3.65823
3.61149
3.57671
3.57914
3.63496
3.7498
3.91969
4.13386
4.37817
4.63818
4.90126
5.15751
5.39988
5.62381
5.8267
6.00736
6.16561
6.30195
6.41736
6.51316
6.59087
6.65216
6.69877
6.73244
6.75492
6.76787
6.77078
6.76424
6.75126
6.73308
6.71061
6.68494
6.65652
6.62557
6.59208
6.55574
6.51596
6.47136
6.42297
6.37118
6.31541
6.25473
6.18801
6.11409
6.03185
5.94033
5.83765
5.72213
5.59295
5.45311
5.299
5.12779
4.95125
4.75841
4.55667
4.36174
4.16675
3.97423
3.78669
3.60635
3.43525
3.27537
3.12837
2.99518
2.87585
2.76987
2.67643
2.59459
2.52334
2.46177
2.40913
2.36479
2.32824
2.29899
2.27665
2.26088
2.25131
2.24723
2.24809
2.25196
2.25577
2.25966
2.2645
2.2722
2.28609
2.31117
2.3541
2.42255
2.52379
2.66214
2.83551
3.03649
3.24825
3.44863
3.6165
3.73437
3.79039
3.77933
3.70503
3.57246
1.7554
1.15368
0.931315
0.827951
0.77768
0.753813
0.744204
0.742934
0.747086
0.755237
0.766673
0.780987
0.79787
0.817021
0.838107
0.860751
0.884547
0.909079
0.933909
0.95859
0.982663
1.00567
1.02719
1.0468
1.06413
1.07886
1.09072
1.09947
1.10488
1.10662
1.10392
1.09711
1.08677
1.07342
1.05755
1.03951
1.01959
0.998013
0.974989
0.950696
0.925286
0.8989
0.871678
0.843759
0.815282
0.786377
0.757172
0.727801
0.698406
0.669144
0.640137
0.61158
0.583611
0.556324
0.52978
0.504042
0.479274
0.455778
0.434053
0.414719
0.39869
0.387604
0.384588
0.395196
0.428399
0.49509
0.606673
0.777444
1.0103
1.28211
1.58258
1.90189
2.22833
2.54609
2.8332
3.06839
3.23796
3.33967
3.38396
3.39237
3.39304
3.41476
3.48092
3.60554
3.79181
4.03352
4.31818
4.63074
4.95651
5.28304
5.60073
5.90266
6.1841
6.44196
6.67438
6.88041
7.05983
7.21301
7.34083
7.44456
7.52583
7.58647
7.62845
7.65381
7.66476
7.66054
7.64279
7.61508
7.57874
7.5344
7.4822
7.42464
7.36243
7.29606
7.22579
7.15174
7.07387
6.99204
6.90594
6.81536
6.71992
6.61858
6.50988
6.39222
6.26463
6.12837
5.98049
5.81832
5.63786
5.45252
5.25456
5.03113
4.80971
4.58425
4.35337
4.1197
3.88636
3.65716
3.43585
3.22563
3.02899
2.84771
2.68291
2.53494
2.40346
2.28766
2.18646
2.09868
2.02311
1.95872
1.90463
1.8601
1.82454
1.7975
1.77866
1.7678
1.76477
1.76941
1.7815
1.80022
1.82424
1.852
1.88177
1.91276
1.94493
1.97964
2.01997
2.07079
2.1384
2.22914
2.34672
2.49051
2.65511
2.82853
2.99392
3.13052
3.22345
3.26303
3.247
3.17485
1.68224
1.13042
0.938972
0.852269
0.810963
0.791825
0.784574
0.784424
0.789162
0.797767
0.809725
0.824692
0.842357
0.862373
0.884339
0.907803
0.932307
0.957381
0.982556
1.00736
1.03133
1.05401
1.07499
1.09389
1.1104
1.12424
1.13521
1.14311
1.14776
1.14888
1.14605
1.13959
1.12998
1.11756
1.10253
1.0851
1.06534
1.04374
1.02069
0.996425
0.971103
0.944862
0.917848
0.890203
0.862057
0.833514
0.804647
0.775508
0.746135
0.716561
0.686435
0.656208
0.626162
0.59652
0.567585
0.539256
0.511622
0.48507
0.460662
0.439668
0.423864
0.416047
0.420954
0.445436
0.498584
0.591886
0.739732
0.932962
1.16782
1.43147
1.7132
2.00155
2.28508
2.54867
2.77437
2.94828
3.06605
3.13521
3.17435
3.20923
3.26695
3.37012
3.53252
3.7575
4.0391
4.36509
4.72069
5.09159
5.46557
5.83309
6.18706
6.52233
6.8351
7.12255
7.38264
7.61399
7.81587
7.9882
8.13148
8.24678
8.33559
8.39971
8.4411
8.46205
8.46236
8.44237
8.40775
8.36139
8.30459
8.23829
8.16339
8.08058
7.99074
7.89459
7.79264
7.68515
7.57217
7.45341
7.32863
7.19833
7.06331
6.92256
6.77414
6.61506
6.44295
6.26587
6.079
5.87937
5.65071
5.42657
5.19261
4.9477
4.69437
4.43327
4.16627
3.89669
3.62904
3.36831
3.11921
2.88549
2.66971
2.47331
2.29676
2.13977
2.00144
1.88049
1.77545
1.68489
1.60747
1.54191
1.48712
1.44218
1.40637
1.37915
1.36011
1.34911
1.34604
1.35092
1.36383
1.38501
1.41456
1.45152
1.4945
1.54203
1.59262
1.64522
1.69964
1.75704
1.82053
1.8947
1.98437
2.09302
2.2201
2.36145
2.50787
2.64521
2.75807
2.83172
2.85968
2.8371
1.57147
1.11653
0.96316
0.892603
0.857704
0.840512
0.833021
0.831561
0.834504
0.841113
0.850988
0.863821
0.879297
0.897053
0.916676
0.937701
0.959635
0.982018
1.00443
1.02644
1.04762
1.06757
1.08595
1.10245
1.11683
1.1289
1.13851
1.14554
1.14988
1.1514
1.15
1.14593
1.13937
1.13038
1.11903
1.10536
1.08937
1.0717
1.05256
1.03219
1.0107
0.988195
0.964771
0.94051
0.915474
0.889686
0.863165
0.835929
0.808036
0.779562
0.75057
0.721216
0.691666
0.662111
0.63269
0.603507
0.574751
0.546226
0.519816
0.497774
0.483635
0.481991
0.499026
0.541359
0.616022
0.730236
0.886744
1.07982
1.30323
1.54698
1.80029
2.05269
2.29318
2.50832
2.68532
2.81754
2.90835
2.97176
3.02972
3.10714
3.22615
3.40155
3.63863
3.93352
4.27568
4.65144
5.04706
5.45063
5.85266
6.24598
6.62514
6.98591
7.32476
7.63871
7.9252
8.18221
8.40829
8.60269
8.76534
8.89682
8.99821
9.07094
9.11701
9.13586
9.13016
9.10562
9.0649
9.00951
8.94051
8.85876
8.76495
8.66009
8.54545
8.42221
8.29133
8.15339
8.00862
7.8566
7.6957
7.52783
7.35584
7.17867
6.99433
6.79722
6.58207
6.36719
6.1438
5.90991
5.66387
5.4082
5.142
4.86512
4.57823
4.28274
3.98153
3.67924
3.38181
3.09543
2.82542
2.57563
2.34827
2.14412
1.96289
1.8035
1.66442
1.54383
1.43994
1.351
1.2754
1.21163
1.15843
1.11476
1.07979
1.05288
1.03358
1.02123
1.01588
1.01774
1.02704
1.04473
1.07155
1.10732
1.15149
1.20318
1.26118
1.32394
1.38995
1.45821
1.52878
1.6031
1.68411
1.77526
1.8789
1.99516
2.11983
2.24484
2.35904
2.44939
2.50581
2.52057
1.4483
1.11072
0.996744
0.940717
0.909957
0.892514
0.882689
0.877827
0.876789
0.879064
0.884352
0.892401
0.902938
0.915644
0.930152
0.94606
0.962947
0.980398
0.998021
1.01549
1.03248
1.04871
1.06386
1.07772
1.0901
1.10087
1.10992
1.11717
1.12255
1.12598
1.12773
1.1278
1.1262
1.12295
1.11805
1.11151
1.10333
1.09353
1.08203
1.06906
1.05498
1.03983
1.02362
1.00628
0.987709
0.967828
0.946623
0.92403
0.900022
0.874611
0.847843
0.819838
0.790786
0.760972
0.730784
0.700708
0.67138
0.643651
0.618487
0.598542
0.589123
0.595129
0.621798
0.674511
0.757664
0.874221
1.02412
1.20348
1.40597
1.62278
1.84454
2.06159
2.26358
2.43987
2.5827
2.69129
2.77409
2.84793
2.93438
3.05468
3.22496
3.45331
3.73924
4.07523
4.44954
4.84937
5.26306
5.68117
6.09648
6.50355
6.89808
7.27643
7.63523
7.97128
8.28147
8.56305
8.81375
9.03198
9.21692
9.36839
9.48682
9.57334
9.62752
9.65171
9.65118
9.62927
9.58817
9.52938
9.4541
9.36324
9.25726
9.13701
9.00446
8.86096
8.70776
8.54577
8.37549
8.19645
8.0019
7.80097
7.5957
7.38435
7.16555
6.93791
6.69992
6.45359
6.19804
5.93263
5.65684
5.3705
5.07317
4.76459
4.44525
4.11713
3.78446
3.45361
3.13206
2.8269
2.54365
2.28574
2.05461
1.85011
1.67101
1.51542
1.38114
1.26592
1.16755
1.08396
1.01329
0.953923
0.904493
0.863884
0.831194
0.805692
0.78656
0.773444
0.766307
0.765248
0.770519
0.783253
0.80456
0.834716
0.873827
0.921709
0.977778
1.041
1.11001
1.18332
1.25955
1.33802
1.41914
1.50445
1.59598
1.69521
1.80149
1.91112
2.01709
2.10962
2.17954
2.21803
1.32465
1.10855
1.03262
0.989591
0.961445
0.942224
0.928532
0.918702
0.912045
0.908247
0.907112
0.908466
0.912117
0.91784
0.925377
0.934437
0.944719
0.955918
0.967742
0.979916
0.992195
1.00438
1.01627
1.02767
1.03844
1.04844
1.05758
1.06577
1.07291
1.0794
1.08517
1.09008
1.0941
1.09725
1.09955
1.10099
1.10158
1.10131
1.10016
1.09815
1.09522
1.09124
1.08602
1.07927
1.0707
1.05983
1.04703
1.0322
1.01522
0.995963
0.974437
0.950862
0.925159
0.897197
0.867375
0.836484
0.805732
0.776717
0.751094
0.733653
0.727868
0.737633
0.766879
0.819318
0.897981
1.00459
1.13864
1.29701
1.47422
1.6629
1.85462
2.04046
2.21145
2.35986
2.48189
2.58057
2.66669
2.75709
2.87084
3.02475
3.22981
3.48949
3.80025
4.15341
4.53783
4.94233
5.35734
5.77549
6.1913
6.60064
7.00016
7.3868
7.75746
8.10886
8.43752
8.73997
9.0131
9.25442
9.46217
9.63512
9.77285
9.87515
9.94284
9.98092
9.99256
9.9804
9.94637
9.89194
9.81843
9.72676
9.61606
9.48764
9.34508
9.18898
9.02049
8.84058
8.65
8.44908
8.23727
8.01539
7.78469
7.54527
7.29689
7.03934
6.77238
6.49622
6.21077
5.91588
5.61118
5.29599
4.96941
4.63086
4.28103
3.92307
3.56307
3.20936
2.87078
2.55489
2.26679
2.00897
1.78171
1.58372
1.41278
1.26625
1.14134
1.03536
0.945773
0.870323
0.807034
0.754219
0.710461
0.674593
0.645668
0.622922
0.605554
0.593109
0.585447
0.582563
0.584623
0.592672
0.607981
0.631081
0.66248
0.702546
0.751376
0.808661
0.873608
0.944958
1.02116
1.10075
1.18262
1.26643
1.35267
1.44226
1.53553
1.63121
1.72567
1.81263
1.88511
1.93521
1.2133
1.10563
1.0644
1.03303
1.00663
0.984773
0.966463
0.951058
0.938266
0.927911
0.919857
0.913988
0.910193
0.90835
0.908318
0.90994
0.913041
0.917441
0.922953
0.929393
0.936587
0.944364
0.952586
0.961111
0.969797
0.978486
0.98721
0.996156
1.00542
1.01467
1.02372
1.03251
1.041
1.04919
1.05706
1.06459
1.07174
1.07849
1.08478
1.09053
1.09569
1.10012
1.1037
1.10625
1.10755
1.10735
1.10543
1.10149
1.09521
1.08625
1.07414
1.05841
1.03915
1.01682
0.991998
0.965644
0.939101
0.914087
0.892678
0.877285
0.871951
0.881225
0.907316
0.953038
1.02095
1.1125
1.22746
1.36348
1.51608
1.67898
1.84473
2.00542
2.15366
2.28401
2.39523
2.49209
2.5856
2.69096
2.82409
2.99798
3.21996
3.491
3.80646
4.15805
4.53605
4.93057
5.33348
5.7393
6.1439
6.54422
6.93773
7.32202
7.69446
8.05192
8.39079
8.70713
8.99715
9.25758
9.4857
9.67885
9.83389
9.95327
10.0413
10.1
10.131
10.1361
10.1168
10.0743
10.0099
9.92475
9.81944
9.69481
9.55229
9.393
9.21803
9.02841
8.82501
8.60853
8.37944
8.13827
7.88571
7.62232
7.34851
7.06477
6.77163
6.46954
6.15867
5.83886
5.50945
5.16917
4.81657
4.45095
4.07392
3.69049
3.30915
2.94018
2.59333
2.27587
1.99182
1.74223
1.52596
1.34053
1.18282
1.04951
0.937368
0.843405
0.764944
0.699649
0.645514
0.600837
0.564195
0.53441
0.510516
0.491732
0.477408
0.466969
0.460064
0.456609
0.45668
0.461111
0.47122
0.487624
0.511016
0.542086
0.581401
0.62926
0.685567
0.749708
0.820538
0.896524
0.976053
1.05776
1.14076
1.22476
1.30968
1.39496
1.47878
1.55748
1.62642
1.67955
1.13281
1.09898
1.08552
1.06351
1.03848
1.01448
0.992625
0.973134
0.955951
0.940927
0.927905
0.916763
0.907414
0.899788
0.893824
0.889457
0.886618
0.885217
0.885142
0.88629
0.888567
0.891896
0.896212
0.901469
0.907647
0.914753
0.922643
0.931073
0.93991
0.949054
0.958429
0.967975
0.977647
0.987401
0.997197
1.00699
1.01674
1.0264
1.03592
1.04523
1.05427
1.06295
1.07119
1.07886
1.08581
1.09187
1.09686
1.10058
1.10272
1.10285
1.10068
1.096
1.08872
1.07891
1.06686
1.05311
1.03852
1.02422
1.01171
1.00303
1.00079
1.00797
1.02996
1.06881
1.12602
1.20311
1.30033
1.41616
1.54716
1.68818
1.83284
1.97439
2.10674
2.22595
2.3319
2.42959
2.52892
2.64284
2.78455
2.96449
3.18725
3.45301
3.75733
4.09336
4.4553
4.83153
5.2115
5.59408
5.97664
6.35698
6.7333
7.1038
7.46639
7.81833
8.15605
8.47547
8.77242
9.04299
9.28297
9.48672
9.65836
9.80037
9.91387
9.99909
10.0563
10.0862
10.0895
10.0672
10.0202
9.94941
9.85563
9.73973
9.60269
9.4455
9.26917
9.07474
8.86324
8.63562
8.39282
8.13579
7.86561
7.58333
7.28996
6.98656
6.67417
6.35345
6.02453
5.6868
5.33883
4.97855
4.60411
4.2154
3.81588
3.41334
3.01889
2.64434
2.29947
1.99038
1.71937
1.48569
1.28672
1.11887
0.978282
0.861202
0.764168
0.684099
0.61831
0.564493
0.520694
0.485267
0.456829
0.43422
0.416468
0.402764
0.392447
0.384984
0.379954
0.37705
0.376255
0.378186
0.384164
0.394797
0.410837
0.433121
0.462497
0.499695
0.545168
0.598948
0.66052
0.728801
0.802261
0.879184
0.957971
1.03733
1.11635
1.19418
1.26961
1.34041
1.40365
1.45512
1.15793
1.11085
1.09345
1.07075
1.04661
1.02434
1.00469
0.987627
0.972982
0.960496
0.949927
0.941082
0.933814
0.928003
0.923538
0.920303
0.918165
0.917014
0.916775
0.917391
0.918813
0.920993
0.923886
0.927445
0.931601
0.936285
0.941457
0.947075
0.953103
0.959505
0.966254
0.973326
0.980704
0.988376
0.996336
1.00459
1.01313
1.02199
1.03118
1.04074
1.05071
1.06114
1.07208
1.08357
1.09562
1.10822
1.12131
1.13479
1.14698
1.15731
1.16535
1.17072
1.17313
1.17244
1.16871
1.16228
1.15379
1.14431
1.13529
1.12874
1.12711
1.13318
1.14979
1.18207
1.23109
1.29639
1.37859
1.47707
1.58954
1.71203
1.83933
1.96573
2.08611
2.19722
2.29911
2.39603
2.49641
2.61069
2.75158
2.93143
3.1442
3.39296
3.67424
3.98252
4.31199
4.65361
5.00067
5.35096
5.70255
6.05393
6.4038
6.7509
7.09371
7.43
7.75648
8.06926
8.364
8.6352
8.87407
9.0861
9.27339
9.43608
9.57364
9.68491
9.76906
9.82572
9.85482
9.8565
9.83107
9.77903
9.70098
9.59763
9.46981
9.31844
9.14457
8.94937
8.7341
8.50012
8.24884
7.98183
7.70081
7.40745
7.10334
6.78988
6.46817
6.13865
5.80083
5.45312
5.09304
4.7178
4.32583
3.91879
3.5032
3.09022
2.69326
2.32466
1.99307
1.70254
1.45306
1.24201
1.06541
0.918858
0.798094
0.699207
0.618734
0.553675
0.501461
0.459926
0.427242
0.401863
0.382474
0.367948
0.357308
0.349709
0.344426
0.340861
0.338543
0.337138
0.336427
0.336833
0.339674
0.345498
0.355044
0.369203
0.388968
0.415339
0.449171
0.491024
0.540997
0.598612
0.662791
0.731969
0.804334
0.878069
0.951561
1.02342
1.0923
1.1565
1.21407
1.2621
1.25872
1.12792
1.08209
1.05102
1.02773
1.0112
0.999952
0.992904
0.989388
0.98888
0.990925
0.995123
1.00112
1.0086
1.01727
1.02687
1.03716
1.04792
1.059
1.07024
1.08152
1.09275
1.10385
1.11473
1.12535
1.13561
1.14545
1.15491
1.164
1.17278
1.18131
1.18966
1.19791
1.20616
1.21452
1.22309
1.23201
1.2414
1.2514
1.26217
1.27388
1.2867
1.30082
1.31641
1.33363
1.35255
1.37315
1.39531
1.41605
1.43423
1.44903
1.45972
1.4656
1.46613
1.46097
1.45014
1.43409
1.41386
1.39117
1.36846
1.34888
1.33614
1.3341
1.34636
1.37937
1.43155
1.49846
1.57958
1.67361
1.77774
1.8879
1.99933
2.10753
2.20949
2.30503
2.39789
2.49779
2.6066
2.73733
2.89981
3.09064
3.31082
3.55805
3.82814
4.11617
4.41581
4.72244
5.0337
5.34806
5.66439
5.98174
6.2991
6.61519
6.92797
7.23448
7.53004
7.80874
8.06364
8.29623
8.51067
8.70632
8.8822
9.03669
9.16792
9.27423
9.3543
9.40714
9.43202
9.42853
9.39654
9.33619
9.24789
9.1323
8.99033
8.82315
8.63217
8.41903
8.1856
7.93389
7.66611
7.38451
7.09125
6.78817
6.47655
6.1569
5.82871
5.49037
5.13911
4.77155
4.38499
3.97948
3.55996
3.13694
2.72482
2.33824
1.98848
1.68176
1.41926
1.19854
1.01529
0.864613
0.741744
0.642363
0.562685
0.499455
0.449903
0.411705
0.38291
0.361859
0.347132
0.337492
0.331842
0.329183
0.328611
0.329319
0.330604
0.331892
0.332755
0.332941
0.332643
0.333174
0.335005
0.338828
0.345539
0.3562
0.371971
0.393993
0.423236
0.460326
0.505379
0.55789
0.616726
0.680246
0.746509
0.813531
0.879448
0.942578
1.00122
1.05379
1.09813
1.39471
1.14031
1.05682
1.01396
0.990573
0.979961
0.978201
0.983129
0.99358
1.00878
1.02811
1.05101
1.07694
1.10541
1.13592
1.16802
1.2013
1.2354
1.27002
1.30488
1.33973
1.37433
1.40847
1.44192
1.47453
1.50612
1.53655
1.56574
1.59361
1.62014
1.6454
1.66938
1.69226
1.71422
1.73546
1.75619
1.77662
1.79697
1.81745
1.83825
1.85955
1.8815
1.90426
1.92796
1.95275
1.97877
2.00617
2.03496
2.06353
2.08937
2.11112
2.12752
2.13722
2.1389
2.13131
2.11343
2.08464
2.04496
1.99528
1.93765
1.87546
1.81355
1.75796
1.7154
1.69219
1.70055
1.73662
1.78866
1.85443
1.93167
2.01707
2.10656
2.19624
2.28405
2.37142
2.45254
2.53883
2.63315
2.74399
2.8786
3.03668
3.21844
3.42246
3.64593
3.88526
4.13636
4.39608
4.66247
4.9343
5.21068
5.49066
5.77293
6.05552
6.33574
6.60938
6.87382
7.12258
7.35362
7.57387
7.78187
7.97622
8.15527
8.317
8.45915
8.57955
8.67619
8.74732
8.79146
8.80749
8.79465
8.75258
8.68133
8.58138
8.45362
8.29934
8.12023
7.91833
7.69599
7.45572
7.20006
6.93131
6.6515
6.36209
6.06363
5.75541
5.43551
5.10112
4.74877
4.37532
3.97971
3.56534
3.1416
2.72308
2.32617
1.96469
1.64692
1.37568
1.14903
0.962361
0.810219
0.687376
0.589187
0.511653
0.451366
0.405446
0.371481
0.347461
0.331691
0.322696
0.319175
0.319969
0.32398
0.330144
0.337458
0.345
0.351955
0.357637
0.36151
0.363231
0.362919
0.361808
0.360283
0.358975
0.358758
0.360724
0.366137
0.376339
0.39262
0.416045
0.447273
0.486385
0.532792
0.585254
0.642011
0.701006
0.760118
0.817347
0.870808
0.918897
0.959798
1.53215
1.1488
1.02632
0.970148
0.944459
0.936863
0.941397
0.955068
0.976335
1.00425
1.0381
1.07724
1.12105
1.16894
1.22034
1.27469
1.33144
1.39015
1.45042
1.51192
1.57434
1.63738
1.70072
1.76402
1.82691
1.88903
1.95009
2.00975
2.06776
2.12394
2.17817
2.23048
2.28096
2.32973
2.37702