/*--------------------------------*- C++ -*----------------------------------*\
| =========                 |                                                 |
| \\      /  F ield         | OpenFOAM: The Open Source CFD Toolbox           |
|  \\    /   O peration     | Version:  2112                                  |
|   \\  /    A nd           | Website:  www.openfoam.com                      |
|    \\/     M anipulation  |                                                 |
\*---------------------------------------------------------------------------*/
FoamFile
{
    version     2.0;
    format      ascii;
    arch        "LSB;label=32;scalar=64";
    class       surfaceScalarField;
    location    "0.18";
    object      phi;
}
// * * * * * * * * * * * * * * * * * * * * * * * * * * * * * * * * * * * * * //

dimensions      [0 3 -1 0 0 0 0];

oriented        oriented;

internalField   nonuniform List<scalar> 
24170
(
3.03948e-06
1.48922e-07
2.87464e-06
1.64844e-07
2.72083e-06
1.53813e-07
2.57694e-06
1.4389e-07
2.44417e-06
1.32764e-07
2.32445e-06
1.19727e-07
2.21857e-06
1.05877e-07
2.12493e-06
9.36442e-08
2.04127e-06
8.36544e-08
1.96711e-06
7.41575e-08
1.90282e-06
6.4298e-08
1.84874e-06
5.40771e-08
1.80492e-06
4.38213e-08
1.77092e-06
3.39955e-08
1.74599e-06
2.49329e-08
1.7284e-06
1.75924e-08
1.71516e-06
1.32351e-08
1.49903e-08
1.70017e-06
3.49623e-06
6.99424e-08
3.54972e-06
1.11354e-07
3.58509e-06
1.18445e-07
3.60358e-06
1.25394e-07
3.60739e-06
1.28957e-07
3.59946e-06
1.2766e-07
3.58222e-06
1.23117e-07
3.558e-06
1.17864e-07
3.52861e-06
1.13039e-07
3.49502e-06
1.07749e-07
3.45798e-06
1.01337e-07
3.41817e-06
9.38859e-08
3.37618e-06
8.58183e-08
3.33249e-06
7.76839e-08
3.28743e-06
6.99901e-08
3.24144e-06
6.35868e-08
3.1959e-06
5.87679e-08
5.33675e-08
3.15753e-06
3.67959e-06
5.28695e-08
3.6962e-06
9.47406e-08
3.71376e-06
1.00889e-07
3.73323e-06
1.05927e-07
3.75282e-06
1.09363e-07
3.7714e-06
1.09076e-07
3.7882e-06
1.0632e-07
3.80305e-06
1.03016e-07
3.81607e-06
1.00014e-07
3.82709e-06
9.67287e-08
3.83587e-06
9.25584e-08
3.84226e-06
8.74994e-08
3.84621e-06
8.18725e-08
3.8478e-06
7.60909e-08
3.84722e-06
7.05718e-08
3.8451e-06
6.5699e-08
3.84236e-06
6.15117e-08
5.59021e-08
3.83983e-06
3.93527e-06
4.29916e-08
3.94529e-06
8.47175e-08
3.95284e-06
9.33402e-08
3.96076e-06
9.80085e-08
3.96885e-06
1.01271e-07
3.97679e-06
1.0113e-07
3.9846e-06
9.85161e-08
3.99245e-06
9.51605e-08
4.00059e-06
9.18824e-08
4.00894e-06
8.83736e-08
4.01729e-06
8.42063e-08
4.02542e-06
7.93753e-08
4.03315e-06
7.4139e-08
4.04042e-06
6.88257e-08
4.04727e-06
6.3721e-08
4.05395e-06
5.90185e-08
4.06084e-06
5.46175e-08
4.99222e-08
4.06682e-06
4.215e-06
3.51165e-08
4.22463e-06
7.50878e-08
4.23159e-06
8.63867e-08
4.23818e-06
9.14164e-08
4.24461e-06
9.4842e-08
4.25056e-06
9.51749e-08
4.25606e-06
9.30124e-08
4.26135e-06
8.98799e-08
4.26665e-06
8.65728e-08
4.27205e-06
8.29754e-08
4.27745e-06
7.88043e-08
4.28276e-06
7.40697e-08
4.28791e-06
6.89932e-08
4.29289e-06
6.38436e-08
4.29778e-06
5.88279e-08
4.30273e-06
5.40651e-08
4.30794e-06
4.9409e-08
4.44141e-08
4.31345e-06
4.51535e-06
2.88557e-08
4.52442e-06
6.60198e-08
4.53154e-06
7.92624e-08
4.5382e-06
8.4757e-08
4.54477e-06
8.82702e-08
4.5509e-06
8.90414e-08
4.55654e-06
8.73788e-08
4.56185e-06
8.45702e-08
4.56704e-06
8.13828e-08
4.57217e-06
7.78387e-08
4.57721e-06
7.37698e-08
4.58208e-06
6.92017e-08
4.58675e-06
6.4324e-08
4.59124e-06
5.93545e-08
4.59562e-06
5.44487e-08
4.60001e-06
4.96704e-08
4.60453e-06
4.48905e-08
3.98285e-08
4.60911e-06
4.83769e-06
2.38897e-08
4.84605e-06
5.76589e-08
4.85327e-06
7.20416e-08
4.85997e-06
7.80537e-08
4.86664e-06
8.16007e-08
4.87299e-06
8.26911e-08
4.8789e-06
8.14653e-08
4.88451e-06
7.89658e-08
4.88996e-06
7.59267e-08
4.89533e-06
7.24753e-08
4.90056e-06
6.85369e-08
4.90561e-06
6.41528e-08
4.91045e-06
5.94835e-08
4.9151e-06
5.4705e-08
4.91961e-06
4.99359e-08
4.92407e-06
4.52129e-08
4.92851e-06
4.04547e-08
3.55046e-08
4.93283e-06
5.18356e-06
1.9912e-08
5.19116e-06
5.00585e-08
5.19836e-06
6.48444e-08
5.20508e-06
7.13307e-08
5.21179e-06
7.48868e-08
5.21831e-06
7.61765e-08
5.22446e-06
7.53088e-08
5.23033e-06
7.30956e-08
5.23604e-06
7.02186e-08
5.24164e-06
6.68825e-08
5.24708e-06
6.30875e-08
5.25235e-06
5.88894e-08
5.25741e-06
5.44258e-08
5.26227e-06
4.98408e-08
5.26698e-06
4.52293e-08
5.27157e-06
4.06224e-08
5.27604e-06
3.59788e-08
3.12298e-08
5.28032e-06
5.55457e-06
1.66783e-08
5.56141e-06
4.32197e-08
5.56848e-06
5.77772e-08
5.57522e-06
6.45878e-08
5.58197e-06
6.81344e-08
5.58862e-06
6.95257e-08
5.59499e-06
6.89372e-08
5.6011e-06
6.69864e-08
5.60704e-06
6.42822e-08
5.61284e-06
6.10801e-08
5.61849e-06
5.74393e-08
5.62395e-06
5.34296e-08
5.62921e-06
4.91714e-08
5.63426e-06
4.47859e-08
5.63914e-06
4.03543e-08
5.64385e-06
3.5911e-08
5.64838e-06
3.14445e-08
2.69467e-08
5.65266e-06
5.95245e-06
1.40036e-08
5.95858e-06
3.70947e-08
5.96543e-06
5.09235e-08
5.97217e-06
5.78424e-08
5.97896e-06
6.135e-08
5.98572e-06
6.27668e-08
5.99228e-06
6.23774e-08
5.99861e-06
6.06558e-08
6.00476e-06
5.81267e-08
6.01077e-06
5.50717e-08
6.01662e-06
5.15947e-08
6.02227e-06
4.77781e-08
6.02771e-06
4.37299e-08
6.03294e-06
3.9555e-08
6.03797e-06
3.53271e-08
6.04279e-06
3.10865e-08
6.04739e-06
2.68425e-08
2.26242e-08
6.05172e-06
6.37907e-06
1.17496e-08
6.38455e-06
3.16089e-08
6.39113e-06
4.43425e-08
6.39785e-06
5.1127e-08
6.40466e-06
5.45427e-08
6.4115e-06
5.59222e-08
6.41822e-06
5.56542e-08
6.42476e-06
5.41207e-08
6.43112e-06
5.17618e-08
6.43733e-06
4.88629e-08
6.44337e-06
4.55584e-08
6.44921e-06
4.19412e-08
6.45482e-06
3.81104e-08
6.46022e-06
3.41596e-08
6.46539e-06
3.01582e-08
6.47032e-06
2.61517e-08
6.475e-06
2.21622e-08
1.82395e-08
6.47939e-06
5.7425e-06
1.00831e-08
5.7467e-06
2.74062e-08
5.75203e-06
3.90203e-08
5.75765e-06
4.55037e-08
5.76341e-06
4.87816e-08
5.76925e-06
5.00872e-08
5.77503e-06
4.9867e-08
5.7807e-06
4.84568e-08
5.78622e-06
4.62329e-08
5.79162e-06
4.34694e-08
5.79686e-06
4.0316e-08
5.80193e-06
3.68721e-08
5.80681e-06
3.32315e-08
5.81149e-06
2.94807e-08
5.81596e-06
2.5686e-08
5.82022e-06
2.18961e-08
5.82424e-06
1.81392e-08
1.44754e-08
5.828e-06
6.99985e-06
8.38727e-09
7.00424e-06
2.30137e-08
7.01005e-06
3.32108e-08
7.0164e-06
3.91592e-08
7.02299e-06
4.21903e-08
7.02972e-06
4.33597e-08
7.03644e-06
4.31386e-08
7.04307e-06
4.18289e-08
7.04956e-06
3.9744e-08
7.0559e-06
3.71355e-08
7.06205e-06
3.41594e-08
7.068e-06
3.09194e-08
7.07373e-06
2.75045e-08
7.07922e-06
2.39941e-08
7.08445e-06
2.04515e-08
7.08942e-06
1.6927e-08
7.09411e-06
1.34512e-08
1.00894e-08
7.0985e-06
8.53256e-06
6.67543e-09
8.53709e-06
1.84788e-08
8.54334e-06
2.69678e-08
8.55039e-06
3.21052e-08
8.55785e-06
3.47339e-08
8.56553e-06
3.568e-08
8.57327e-06
3.53926e-08
8.58096e-06
3.4145e-08
8.58851e-06
3.21929e-08
8.59589e-06
2.97553e-08
8.60306e-06
2.69834e-08
8.61e-06
2.3981e-08
8.61668e-06
2.08315e-08
8.62306e-06
1.76075e-08
8.62915e-06
1.43676e-08
8.63491e-06
1.11608e-08
8.64035e-06
8.01729e-09
5.00184e-09
8.64543e-06
1.04009e-05
4.95427e-09
1.04056e-05
1.38287e-08
1.04122e-05
2.03438e-08
1.04199e-05
2.43737e-08
1.04283e-05
2.63997e-08
1.0437e-05
2.7004e-08
1.04458e-05
2.65675e-08
1.04546e-05
2.53282e-08
1.04633e-05
2.349e-08
1.04718e-05
2.1232e-08
1.04801e-05
1.86896e-08
1.04881e-05
1.59601e-08
1.04959e-05
1.31193e-08
1.05032e-05
1.02312e-08
1.05102e-05
7.34793e-09
1.05169e-05
4.51398e-09
1.05232e-05
1.75592e-09
-8.66382e-10
1.0529e-05
1.26785e-05
3.21851e-09
1.26833e-05
9.05947e-09
1.26903e-05
1.33641e-08
1.26987e-05
1.59928e-08
1.27079e-05
1.7184e-08
1.27176e-05
1.72974e-08
1.27275e-05
1.66111e-08
1.27375e-05
1.53131e-08
1.27475e-05
1.3557e-08
1.27572e-05
1.14786e-08
1.27667e-05
9.18732e-09
1.27759e-05
6.76577e-09
1.27848e-05
4.27834e-09
1.27932e-05
1.77789e-09
1.28013e-05
-6.92753e-10
1.28089e-05
-3.09687e-09
1.2816e-05
-5.41407e-09
-7.59325e-09
1.28228e-05
1.5455e-05
1.44539e-09
1.54599e-05
4.11555e-09
1.54673e-05
5.98476e-09
1.54763e-05
6.93623e-09
1.54865e-05
7.053e-09
1.54973e-05
6.50771e-09
1.55084e-05
5.45867e-09
1.55197e-05
4.02684e-09
1.55309e-05
2.31297e-09
1.5542e-05
4.06603e-10
1.55528e-05
-1.61661e-09
1.55633e-05
-3.69654e-09
1.55733e-05
-5.78564e-09
1.5583e-05
-7.84547e-09
1.55921e-05
-9.84566e-09
1.56008e-05
-1.17604e-08
1.56089e-05
-1.35775e-08
-1.52577e-08
1.56166e-05
1.88395e-05
-4.18817e-10
1.88448e-05
-1.16101e-09
1.88527e-05
-1.98676e-09
1.88627e-05
-2.97403e-09
1.88739e-05
-4.15278e-09
1.88859e-05
-5.51678e-09
1.88984e-05
-7.03641e-09
1.89111e-05
-8.67113e-09
1.89238e-05
-1.03789e-08
1.89363e-05
-1.21199e-08
1.89485e-05
-1.3858e-08
1.89604e-05
-1.55617e-08
1.89718e-05
-1.72048e-08
1.89827e-05
-1.87667e-08
1.89931e-05
-2.02323e-08
1.9003e-05
-2.15892e-08
1.90122e-05
-2.28356e-08
-2.39468e-08
1.90209e-05
2.29654e-05
-2.51017e-09
2.29714e-05
-7.16113e-09
2.29805e-05
-1.10614e-08
2.29918e-05
-1.42471e-08
2.30045e-05
-1.68905e-08
2.30182e-05
-1.91854e-08
2.30324e-05
-2.12466e-08
2.30468e-05
-2.31205e-08
2.30613e-05
-2.48304e-08
2.30756e-05
-2.63935e-08
2.30895e-05
-2.78176e-08
2.31031e-05
-2.91021e-08
2.31161e-05
-3.02439e-08
2.31286e-05
-3.12418e-08
2.31404e-05
-3.20979e-08
2.31517e-05
-3.28157e-08
2.31622e-05
-3.34054e-08
-3.3859e-08
2.31722e-05
1.68124e-05
-4.16653e-09
1.6817e-05
-1.1831e-08
1.68239e-05
-1.79708e-08
1.68323e-05
-2.2617e-08
1.68416e-05
-2.61651e-08
1.68514e-05
-2.90217e-08
1.68616e-05
-3.14005e-08
1.68718e-05
-3.33947e-08
1.68821e-05
-3.5074e-08
1.68922e-05
-3.64963e-08
1.69021e-05
-3.76951e-08
1.69117e-05
-3.86843e-08
1.69209e-05
-3.94725e-08
1.69297e-05
-4.00697e-08
1.69381e-05
-4.04887e-08
1.6946e-05
-4.07426e-08
1.69535e-05
-4.08501e-08
-4.08138e-08
1.69604e-05
1.46363e-05
-5.85894e-09
1.46409e-05
-1.65158e-08
1.46476e-05
-2.46424e-08
1.46554e-05
-3.03702e-08
1.46637e-05
-3.45106e-08
1.46724e-05
-3.77266e-08
1.46813e-05
-4.02847e-08
1.46902e-05
-4.23065e-08
1.46991e-05
-4.39136e-08
1.47078e-05
-4.5201e-08
1.47163e-05
-4.62122e-08
1.47246e-05
-4.69619e-08
1.47325e-05
-4.74613e-08
1.47402e-05
-4.77262e-08
1.47475e-05
-4.77762e-08
1.47544e-05
-4.76319e-08
1.47608e-05
-4.732e-08
-4.68518e-08
1.47669e-05
1.2742e-05
-7.74248e-09
1.27471e-05
-2.1562e-08
1.27538e-05
-3.1383e-08
1.27612e-05
-3.77394e-08
1.27688e-05
-4.21737e-08
1.27767e-05
-4.55807e-08
1.27846e-05
-4.81866e-08
1.27924e-05
-5.01384e-08
1.28001e-05
-5.16285e-08
1.28077e-05
-5.27817e-08
1.28151e-05
-5.36349e-08
1.28224e-05
-5.41913e-08
1.28294e-05
-5.4458e-08
1.28361e-05
-5.44516e-08
1.28425e-05
-5.41937e-08
1.28486e-05
-5.37082e-08
1.28543e-05
-5.30252e-08
-5.21612e-08
1.28596e-05
1.10932e-05
-9.9981e-09
1.10989e-05
-2.72779e-08
1.11059e-05
-3.83431e-08
1.11129e-05
-4.47966e-08
1.112e-05
-4.9266e-08
1.11271e-05
-5.27161e-08
1.11342e-05
-5.52406e-08
1.11411e-05
-5.70457e-08
1.11479e-05
-5.84056e-08
1.11546e-05
-5.9451e-08
1.11611e-05
-6.01898e-08
1.11675e-05
-6.06036e-08
1.11738e-05
-6.06912e-08
1.11798e-05
-6.04671e-08
1.11855e-05
-5.99535e-08
1.1191e-05
-5.91763e-08
1.11961e-05
-5.81712e-08
-5.69602e-08
1.12009e-05
9.6581e-06
-1.28787e-08
9.66473e-06
-3.39136e-08
9.67188e-06
-4.54914e-08
9.67863e-06
-5.15481e-08
9.68527e-06
-5.59014e-08
9.69178e-06
-5.92329e-08
9.69805e-06
-6.15051e-08
9.70407e-06
-6.3073e-08
9.70996e-06
-6.42915e-08
9.71577e-06
-6.52623e-08
9.72152e-06
-6.59408e-08
9.72719e-06
-6.6275e-08
9.73275e-06
-6.62496e-08
9.73816e-06
-6.58736e-08
9.74337e-06
-6.51667e-08
9.74835e-06
-6.41545e-08
9.75305e-06
-6.28755e-08
-6.13562e-08
9.75745e-06
8.40923e-06
-1.67598e-08
8.41698e-06
-4.16581e-08
8.42406e-06
-5.25755e-08
8.43041e-06
-5.78966e-08
8.43665e-06
-6.21404e-08
8.44265e-06
-6.52316e-08
8.44826e-06
-6.71158e-08
8.45356e-06
-6.83786e-08
8.45871e-06
-6.94376e-08
8.46379e-06
-7.03437e-08
8.46884e-06
-7.09857e-08
8.47383e-06
-7.12714e-08
8.47875e-06
-7.11695e-08
8.48356e-06
-7.06817e-08
8.48822e-06
-6.98241e-08
8.49268e-06
-6.86179e-08
8.49691e-06
-6.7105e-08
-6.52778e-08
8.50083e-06
7.32259e-06
-2.20635e-08
7.33156e-06
-5.06343e-08
7.33836e-06
-5.93752e-08
7.3442e-06
-6.37326e-08
7.34985e-06
-6.77912e-08
7.3551e-06
-7.0483e-08
7.3599e-06
-7.19185e-08
7.36443e-06
-7.28992e-08
7.36885e-06
-7.38573e-08
7.37328e-06
-7.47753e-08
7.37775e-06
-7.54595e-08
7.38225e-06
-7.57717e-08
7.38675e-06
-7.56669e-08
7.39121e-06
-7.51422e-08
7.3956e-06
-7.42122e-08
7.39987e-06
-7.28924e-08
7.40401e-06
-7.12401e-08
-6.9238e-08
7.40797e-06
6.37714e-06
-2.91388e-08
6.38686e-06
-6.03485e-08
6.3935e-06
-6.60186e-08
6.39942e-06
-6.96532e-08
6.4051e-06
-7.34699e-08
6.41034e-06
-7.57263e-08
6.41526e-06
-7.68385e-08
6.42009e-06
-7.77306e-08
6.42506e-06
-7.88228e-08
6.4303e-06
-8.00124e-08
6.43583e-06
-8.09977e-08
6.44165e-06
-8.15842e-08
6.44769e-06
-8.17069e-08
6.4539e-06
-8.13532e-08
6.46022e-06
-8.05305e-08
6.4666e-06
-7.92775e-08
6.47297e-06
-7.76092e-08
-7.54063e-08
6.47914e-06
5.55753e-06
-4.12025e-08
5.57009e-06
-7.29057e-08
5.58157e-06
-7.75005e-08
5.59418e-06
-8.22628e-08
5.60739e-06
-8.66846e-08
5.62073e-06
-8.90632e-08
5.634e-06
-9.01071e-08
5.64718e-06
-9.09165e-08
5.66044e-06
-9.20782e-08
5.67382e-06
-9.33977e-08
5.68725e-06
-9.44268e-08
5.70058e-06
-9.49089e-08
5.71363e-06
-9.47559e-08
5.72622e-06
-9.39491e-08
5.73819e-06
-9.24974e-08
5.74941e-06
-9.04939e-08
5.75982e-06
-8.80256e-08
-8.56035e-08
5.77002e-06
4.89247e-06
-1.06066e-07
4.94333e-06
-1.23763e-07
4.98499e-06
-1.19167e-07
5.01793e-06
-1.15195e-07
5.04224e-06
-1.11e-07
5.05891e-06
-1.05732e-07
5.06895e-06
-1.00146e-07
5.07346e-06
-9.54237e-08
5.07344e-06
-9.20621e-08
5.06946e-06
-8.94133e-08
5.06178e-06
-8.6753e-08
5.05065e-06
-8.37738e-08
5.03629e-06
-8.03936e-08
5.01895e-06
-7.66149e-08
4.99892e-06
-7.247e-08
4.97651e-06
-6.80758e-08
4.95197e-06
-6.34924e-08
-5.90631e-08
4.92543e-06
4.09661e-06
3.97285e-06
3.85368e-06
3.73849e-06
3.62749e-06
3.52175e-06
3.42161e-06
3.32618e-06
3.23412e-06
3.14471e-06
3.05796e-06
2.97418e-06
2.89379e-06
2.81717e-06
2.7447e-06
2.67663e-06
2.61313e-06
2.55407e-06
4.17127e-08
-4.17127e-08
8.96682e-08
-4.79555e-08
1.40815e-07
-5.11472e-08
1.94416e-07
-5.36005e-08
2.50074e-07
-5.56578e-08
3.08542e-07
-5.84683e-08
3.70252e-07
-6.17101e-08
4.34218e-07
-6.39663e-08
4.99243e-07
-6.50242e-08
5.64294e-07
-6.50518e-08
6.28563e-07
-6.42691e-08
6.91414e-07
-6.28501e-08
7.52332e-07
-6.09185e-08
8.10896e-07
-5.8564e-08
8.66751e-07
-5.58546e-08
9.19594e-07
-5.28435e-08
9.69168e-07
-4.95736e-08
1.01525e-06
-4.60808e-08
1.05764e-06
-4.23961e-08
1.09619e-06
-3.8547e-08
1.13075e-06
-3.4558e-08
1.1612e-06
-3.04507e-08
1.18744e-06
-2.62431e-08
1.20939e-06
-2.19473e-08
1.22695e-06
-1.75637e-08
1.24003e-06
-1.30732e-08
1.24846e-06
-8.43021e-09
1.252e-06
-3.53947e-09
1.25032e-06
1.67653e-09
1.24345e-06
6.87606e-09
1.23146e-06
1.19871e-08
1.21464e-06
1.6819e-08
1.19333e-06
2.13108e-08
1.1679e-06
2.54245e-08
1.13877e-06
2.91301e-08
1.10636e-06
3.241e-08
1.0711e-06
3.52658e-08
1.03336e-06
3.77335e-08
9.9361e-07
3.97544e-08
9.52749e-07
4.08605e-08
9.11593e-07
4.1156e-08
8.70466e-07
4.11272e-08
8.29686e-07
4.07803e-08
7.89521e-07
4.01648e-08
7.50187e-07
3.93346e-08
7.11857e-07
3.83299e-08
6.74675e-07
3.71814e-08
6.38761e-07
3.59147e-08
6.04208e-07
3.45529e-08
5.7109e-07
3.31177e-08
5.39461e-07
3.16289e-08
5.09357e-07
3.0104e-08
4.808e-07
2.85576e-08
4.53799e-07
2.70004e-08
4.28361e-07
2.5438e-08
4.04493e-07
2.38685e-08
3.82212e-07
2.22804e-08
3.61561e-07
2.06508e-08
3.42614e-07
1.8947e-08
3.25479e-07
1.71354e-08
3.10278e-07
1.52006e-08
2.971e-07
1.31781e-08
2.85901e-07
1.11989e-08
2.76362e-07
9.53929e-09
2.67704e-07
8.65791e-09
2.58517e-07
9.18699e-09
2.46678e-07
1.18397e-08
2.29462e-07
1.72161e-08
2.03883e-07
2.55781e-08
1.67158e-07
3.67255e-08
1.17157e-07
5.00011e-08
5.28307e-08
6.4326e-08
-2.59378e-08
7.87685e-08
-1.19178e-07
9.32398e-08
-2.26983e-07
1.07806e-07
-3.49517e-07
1.22534e-07
-4.87122e-07
1.37605e-07
-6.40059e-07
1.52937e-07
-8.08203e-07
1.68144e-07
-9.90872e-07
1.82669e-07
-1.18675e-06
1.95879e-07
-1.3939e-06
2.07146e-07
-1.60979e-06
2.15897e-07
-1.83147e-06
2.21673e-07
-2.05565e-06
2.2418e-07
-2.27899e-06
2.23345e-07
-2.49833e-06
2.19341e-07
-2.71091e-06
2.12576e-07
-2.91457e-06
2.03661e-07
-3.1079e-06
1.93334e-07
-3.28856e-06
1.80653e-07
-3.45392e-06
1.65362e-07
-3.60362e-06
1.49704e-07
-3.73841e-06
1.34787e-07
-3.85891e-06
1.20502e-07
-3.9658e-06
1.06891e-07
-4.05993e-06
9.41241e-08
-4.14229e-06
8.23601e-08
-4.21399e-06
7.17031e-08
-4.27619e-06
6.2198e-08
-4.33003e-06
5.38406e-08
-4.37662e-06
4.6589e-08
-4.41699e-06
4.03739e-08
-4.4521e-06
3.51075e-08
-4.48279e-06
3.0692e-08
-4.50981e-06
2.70228e-08
-4.53381e-06
2.39921e-08
-4.55531e-06
2.15037e-08
-4.57479e-06
1.94802e-08
-4.59261e-06
1.78164e-08
-4.60898e-06
1.63758e-08
-4.62405e-06
1.50692e-08
-4.63786e-06
1.38064e-08
-4.65037e-06
1.25155e-08
-4.66139e-06
1.10167e-08
-4.67059e-06
9.19531e-09
-4.6775e-06
6.91745e-09
-4.68106e-06
3.56009e-09
-4.68061e-06
-4.53494e-10
-4.67511e-06
-5.49499e-09
-4.66317e-06
-1.19482e-08
-4.64346e-06
-1.97101e-08
-4.61403e-06
-2.94285e-08
-4.57254e-06
-4.14855e-08
-4.51629e-06
-5.62555e-08
-4.44215e-06
-7.41335e-08
-4.34684e-06
-9.53143e-08
-4.2269e-06
-1.19942e-07
-4.07873e-06
-1.48166e-07
-3.89874e-06
-1.79992e-07
-3.68332e-06
-2.15423e-07
-3.42933e-06
-2.53991e-07
-3.13494e-06
-2.9439e-07
-2.79915e-06
-3.35791e-07
-2.42233e-06
-3.76815e-07
-2.00848e-06
-4.13852e-07
-1.56549e-06
-4.42991e-07
-1.10686e-06
-4.58628e-07
-6.52101e-07
-4.54758e-07
-2.11137e-07
-4.40964e-07
2.27198e-07
-4.38335e-07
6.73144e-07
-4.45946e-07
1.11907e-06
-4.45923e-07
1.55028e-06
-4.31216e-07
1.95638e-06
-4.06096e-07
2.33224e-06
-3.75862e-07
2.67549e-06
-3.43248e-07
2.98481e-06
-3.09321e-07
3.25932e-06
-2.74506e-07
3.49815e-06
-2.38834e-07
3.70223e-06
-2.04075e-07
3.87403e-06
-1.71804e-07
4.01609e-06
-1.42063e-07
4.13058e-06
-1.14486e-07
4.21917e-06
-8.85913e-08
4.28295e-06
-6.37805e-08
4.32242e-06
-3.94728e-08
4.3378e-06
-1.53811e-08
4.32899e-06
8.8108e-09
4.29657e-06
3.2425e-08
4.2454e-06
5.1165e-08
4.17828e-06
6.71196e-08
4.09819e-06
8.00947e-08
4.00777e-06
9.04168e-08
3.90935e-06
9.84215e-08
3.80471e-06
1.04641e-07
3.6949e-06
1.09806e-07
3.58034e-06
1.14562e-07
3.46116e-06
1.19185e-07
3.3376e-06
1.23555e-07
3.21024e-06
1.27365e-07
3.07992e-06
1.30317e-07
2.94772e-06
1.32205e-07
2.81464e-06
1.33071e-07
2.68152e-06
1.33126e-07
2.54874e-06
1.32781e-07
2.41596e-06
1.32782e-07
2.28022e-06
1.35735e-07
2.13129e-06
1.48933e-07
1.79428e-07
1.95186e-06
4.91392e-08
-9.08519e-08
1.02396e-07
-1.01213e-07
1.59627e-07
-1.08378e-07
2.19828e-07
-1.13801e-07
2.81968e-07
-1.17798e-07
3.44338e-07
-1.20839e-07
4.0591e-07
-1.23282e-07
4.66726e-07
-1.24782e-07
5.2685e-07
-1.25149e-07
5.86189e-07
-1.2439e-07
6.44524e-07
-1.22604e-07
7.01583e-07
-1.1991e-07
7.57079e-07
-1.16414e-07
8.10724e-07
-1.12209e-07
8.62243e-07
-1.07374e-07
9.11378e-07
-1.01979e-07
9.57889e-07
-9.60849e-08
1.00156e-06
-8.97505e-08
1.04219e-06
-8.30286e-08
1.07961e-06
-7.59691e-08
1.11367e-06
-6.86185e-08
1.14424e-06
-6.10198e-08
1.17121e-06
-5.32132e-08
1.1945e-06
-4.52349e-08
1.21405e-06
-3.71172e-08
1.22987e-06
-2.88887e-08
1.24201e-06
-2.05732e-08
1.25067e-06
-1.21938e-08
1.25613e-06
-3.78849e-09
1.25831e-06
4.69665e-09
1.25699e-06
1.33128e-08
1.25191e-06
2.19e-08
1.24284e-06
3.03738e-08
1.22964e-06
3.86223e-08
1.21225e-06
4.65263e-08
1.1907e-06
5.3961e-08
1.16516e-06
6.08031e-08
1.13596e-06
6.69332e-08
1.10351e-06
7.2208e-08
1.06794e-06
7.64233e-08
1.02956e-06
7.95362e-08
9.89065e-07
8.16258e-08
9.47106e-07
8.27395e-08
9.04317e-07
8.29534e-08
8.61276e-07
8.23758e-08
8.18481e-07
8.11253e-08
7.76345e-07
7.93168e-08
7.35204e-07
7.70562e-08
6.95318e-07
7.44386e-08
6.56887e-07
7.15483e-08
6.20058e-07
6.84584e-08
5.84931e-07
6.52309e-08
5.5157e-07
6.19185e-08
5.20006e-07
5.8564e-08
4.90246e-07
5.5198e-08
4.6228e-07
5.18344e-08
4.36096e-07
4.84651e-08
4.1169e-07
4.50569e-08
3.89082e-07
4.15549e-08
3.68316e-07
3.79013e-08
3.49443e-07
3.40738e-08
3.32471e-07
3.01496e-08
3.17275e-07
2.63951e-08
3.03442e-07
2.33723e-08
2.90073e-07
2.20268e-08
2.7558e-07
2.36795e-08
2.57603e-07
2.9817e-08
2.33167e-07
4.16522e-08
1.99095e-07
5.96506e-08
1.52501e-07
8.33186e-08
9.11454e-08
1.11357e-07
1.34095e-08
1.42062e-07
-8.21833e-08
1.74361e-07
-1.96702e-07
2.07759e-07
-3.30471e-07
2.41574e-07
-4.83522e-07
2.75585e-07
-6.5589e-07
3.09973e-07
-8.47406e-07
3.44453e-07
-1.05738e-06
3.78117e-07
-1.28438e-06
4.09666e-07
-1.52616e-06
4.37661e-07
-1.77971e-06
4.60699e-07
-2.04139e-06
4.77578e-07
-2.30714e-06
4.8742e-07
-2.57273e-06
4.89773e-07
-2.83404e-06
4.84649e-07
-3.08718e-06
4.72489e-07
-3.32868e-06
4.54074e-07
-3.55544e-06
4.30416e-07
-3.76464e-06
4.02539e-07
-3.95494e-06
3.70951e-07
-4.12616e-06
3.3658e-07
-4.27791e-06
3.01452e-07
-4.41025e-06
2.67132e-07
-4.52422e-06
2.3447e-07
-4.62139e-06
2.04055e-07
-4.70352e-06
1.7626e-07
-4.77242e-06
1.51256e-07
-4.82976e-06
1.29048e-07
-4.87709e-06
1.09531e-07
-4.91579e-06
9.25334e-08
-4.94704e-06
7.78462e-08
-4.97191e-06
6.5238e-08
-4.99127e-06
5.44674e-08
-5.00587e-06
4.52941e-08
-5.01633e-06
3.74839e-08
-5.02315e-06
3.0806e-08
-5.02669e-06
2.50466e-08
-5.02725e-06
2.00392e-08
-5.02508e-06
1.5644e-08
-5.02019e-06
1.1489e-08
-5.01254e-06
7.41889e-09
-5.00215e-06
3.41972e-09
-4.98899e-06
-6.42232e-10
-4.97287e-06
-5.1051e-09
-4.95365e-06
-1.00238e-08
-4.93071e-06
-1.60262e-08
-4.90393e-06
-2.32214e-08
-4.87249e-06
-3.18903e-08
-4.83533e-06
-4.26607e-08
-4.79119e-06
-5.60877e-08
-4.73839e-06
-7.25013e-08
-4.67529e-06
-9.25309e-08
-4.59995e-06
-1.16833e-07
-4.51011e-06
-1.46093e-07
-4.40327e-06
-1.80976e-07
-4.27666e-06
-2.21916e-07
-4.1273e-06
-2.69303e-07
-3.95171e-06
-3.23764e-07
-3.74609e-06
-3.8561e-07
-3.50725e-06
-4.54258e-07
-3.23284e-06
-5.28406e-07
-2.922e-06
-6.05226e-07
-2.57493e-06
-6.82861e-07
-2.19303e-06
-7.58713e-07
-1.77954e-06
-8.27344e-07
-1.34013e-06
-8.82398e-07
-8.81379e-07
-9.17382e-07
-4.07408e-07
-9.28729e-07
7.84119e-08
-9.26785e-07
5.67234e-07
-9.27156e-07
1.0484e-06
-9.27112e-07
1.51541e-06
-9.12939e-07
1.96225e-06
-8.78055e-07
2.38444e-06
-8.28284e-07
2.77853e-06
-7.69949e-07
3.14192e-06
-7.0664e-07
3.47284e-06
-6.40238e-07
3.77144e-06
-5.7311e-07
4.03923e-06
-5.06623e-07
4.27709e-06
-4.41937e-07
4.48509e-06
-3.79807e-07
4.66315e-06
-3.20121e-07
4.81109e-06
-2.62421e-07
4.92842e-06
-2.05926e-07
5.01457e-06
-1.49929e-07
5.0695e-06
-9.44061e-08
5.09509e-06
-4.09687e-08
5.09375e-06
1.01518e-08
5.06406e-06
6.21148e-08
5.00807e-06
1.07156e-07
4.92777e-06
1.47422e-07
4.82636e-06
1.81504e-07
4.70762e-06
2.09159e-07
4.5754e-06
2.30639e-07
4.43334e-06
2.467e-07
4.28453e-06
2.58611e-07
4.1313e-06
2.67794e-07
3.9752e-06
2.75288e-07
3.81728e-06
2.81472e-07
3.6584e-06
2.86246e-07
3.49936e-06
2.89357e-07
3.34105e-06
2.90516e-07
3.18434e-06
2.89784e-07
3.02994e-06
2.87523e-07
2.87834e-06
2.84384e-07
2.72939e-06
2.8173e-07
2.58238e-06
2.8274e-07
2.43325e-06
2.98064e-07
3.31149e-07
2.28153e-06
4.80857e-08
-1.38938e-07
1.01676e-07
-1.54803e-07
1.57482e-07
-1.64184e-07
2.14563e-07
-1.70882e-07
2.72162e-07
-1.75397e-07
3.2952e-07
-1.78197e-07
3.85897e-07
-1.79659e-07
4.41058e-07
-1.79942e-07
4.95007e-07
-1.79098e-07
5.47778e-07
-1.77162e-07
5.99346e-07
-1.74172e-07
6.4961e-07
-1.70173e-07
6.9841e-07
-1.65214e-07
7.4555e-07
-1.5935e-07
7.90819e-07
-1.52643e-07
8.34004e-07
-1.45163e-07
8.74901e-07
-1.36982e-07
9.13324e-07
-1.28174e-07
9.49111e-07
-1.18815e-07
9.82117e-07
-1.08975e-07
1.01222e-06
-9.87244e-08
1.03933e-06
-8.81254e-08
1.06335e-06
-7.72374e-08
1.08423e-06
-6.61151e-08
1.10193e-06
-5.48105e-08
1.11641e-06
-4.3375e-08
1.1277e-06
-3.18605e-08
1.13582e-06
-2.03185e-08
1.14083e-06
-8.79371e-09
1.14283e-06
2.69795e-09
1.14197e-06
1.41673e-08
1.13831e-06
2.55619e-08
1.13186e-06
3.68252e-08
1.12261e-06
4.78731e-08
1.11054e-06
5.85952e-08
1.09564e-06
6.88585e-08
1.07793e-06
7.8512e-08
1.05747e-06
8.73933e-08
1.03435e-06
9.5335e-08
1.0086e-06
1.0217e-07
9.8036e-07
1.07776e-07
9.49895e-07
1.1209e-07
9.17543e-07
1.15092e-07
8.8369e-07
1.16806e-07
8.48763e-07
1.17303e-07
8.13197e-07
1.16691e-07
7.77412e-07
1.15102e-07
7.41789e-07
1.12679e-07
7.06659e-07
1.09569e-07
6.72295e-07
1.05912e-07
6.38919e-07
1.01835e-07
6.06698e-07
9.74516e-08
5.75755e-07
9.28616e-08
5.46164e-07
8.81546e-08
5.17959e-07
8.34037e-08
4.91135e-07
7.86579e-08
4.65667e-07
7.39329e-08
4.41521e-07
6.92029e-08
4.18671e-07
6.44052e-08
3.97102e-07
5.94706e-08
3.76791e-07
5.43848e-08
3.57654e-07
4.92859e-08
3.39446e-07
4.46039e-08
3.21588e-07
4.12297e-08
3.02959e-07
4.06555e-08
2.81702e-07
4.49365e-08
2.55244e-07
5.62755e-08
2.20637e-07
7.62587e-08
1.75037e-07
1.05251e-07
1.16016e-07
1.4234e-07
4.14748e-08
1.85898e-07
-5.06663e-08
2.34203e-07
-1.62507e-07
2.86203e-07
-2.95284e-07
3.40535e-07
-4.49506e-07
3.95796e-07
-6.25503e-07
4.51582e-07
-8.23282e-07
5.07753e-07
-1.04227e-06
5.63437e-07
-1.28106e-06
6.16914e-07
-1.53732e-06
6.65928e-07
-1.8077e-06
7.08037e-07
-2.08792e-06
7.40917e-07
-2.37296e-06
7.62619e-07
-2.65733e-06
7.71791e-07
-2.93538e-06
7.67822e-07
-3.20164e-06
7.50905e-07
-3.45115e-06
7.22004e-07
-3.67983e-06
6.82749e-07
-3.88468e-06
6.35267e-07
-4.06404e-06
5.819e-07
-4.21806e-06
5.24976e-07
-4.34842e-06
4.6694e-07
-4.45719e-06
4.10218e-07
-4.5467e-06
3.56641e-07
-4.61952e-06
3.07293e-07
-4.67814e-06
2.6268e-07
-4.72478e-06
2.22894e-07
-4.76129e-06
1.87772e-07
-4.78926e-06
1.57011e-07
-4.80997e-06
1.30243e-07
-4.82451e-06
1.07079e-07
-4.8338e-06
8.71271e-08
-4.83856e-06
7.00061e-08
-4.83944e-06
5.53433e-08
-4.83693e-06
4.2783e-08
-4.83144e-06
3.19936e-08
-4.82329e-06
2.26553e-08
-4.81269e-06
1.44476e-08
-4.79982e-06
7.16557e-09
-4.785e-06
8.28412e-10
-4.76789e-06
-5.62013e-09
-4.74881e-06
-1.16583e-08
-4.72764e-06
-1.77553e-08
-4.7041e-06
-2.41845e-08
-4.67794e-06
-3.12649e-08
-4.64867e-06
-3.92862e-08
-4.61599e-06
-4.87073e-08
-4.57939e-06
-5.98273e-08
-4.53813e-06
-7.31505e-08
-4.49135e-06
-8.94411e-08
-4.43799e-06
-1.09448e-07
-4.37659e-06
-1.33895e-07
-4.30549e-06
-1.63635e-07
-4.2227e-06
-1.99625e-07
-4.12585e-06
-2.42936e-07
-4.01213e-06
-2.94701e-07
-3.87834e-06
-3.55703e-07
-3.72121e-06
-4.26434e-07
-3.5375e-06
-5.07472e-07
-3.32426e-06
-5.98853e-07
-3.07899e-06
-6.99526e-07
-2.79951e-06
-8.0789e-07
-2.48406e-06
-9.20675e-07
-2.13248e-06
-1.03444e-06
-1.74574e-06
-1.14545e-06
-1.32531e-06
-1.24777e-06
-8.75262e-07
-1.33245e-06
-4.00236e-07
-1.39241e-06
9.54369e-08
-1.4244e-06
6.02226e-07
-1.43357e-06
1.10383e-06
-1.42876e-06
1.58764e-06
-1.41093e-06
2.04888e-06
-1.37418e-06
2.48692e-06
-1.31609e-06
2.89995e-06
-1.24131e-06
3.2858e-06
-1.1558e-06
3.64304e-06
-1.06389e-06
3.9714e-06
-9.68598e-07
4.2716e-06
-8.73309e-07
4.54532e-06
-7.80335e-07
4.79309e-06
-6.89707e-07
5.01463e-06
-6.01352e-07
5.20949e-06
-5.14976e-07
5.37717e-06
-4.30105e-07
5.51741e-06
-3.46164e-07
5.63024e-06
-2.6276e-07
5.71589e-06
-1.80053e-07
5.77328e-06
-9.83667e-08
5.8004e-06
-1.69665e-08
5.79886e-06
6.36552e-08
5.76542e-06
1.406e-07
5.69961e-06
2.1323e-07
5.60112e-06
2.79996e-07
5.47114e-06
3.3914e-07
5.31274e-06
3.89036e-07
5.13104e-06
4.28405e-07
4.93282e-06
4.5683e-07
4.72547e-06
4.75143e-07
4.51543e-06
4.85322e-07
4.30723e-06
4.89678e-07
4.10342e-06
4.90059e-07
3.90517e-06
4.87598e-07
3.71307e-06
4.82625e-07
3.52736e-06
4.75486e-07
3.34819e-06
4.66694e-07
3.1756e-06
4.56975e-07
3.00933e-06
4.48001e-07
2.84904e-06
4.43027e-07
2.69542e-06
4.51687e-07
4.75771e-07
2.5508e-06
4.64766e-08
-1.85414e-07
9.43715e-08
-2.02698e-07
1.42189e-07
-2.12001e-07
1.89656e-07
-2.18349e-07
2.36606e-07
-2.22347e-07
2.82956e-07
-2.24547e-07
3.28642e-07
-2.25345e-07
3.73633e-07
-2.24933e-07
4.17905e-07
-2.2337e-07
4.61392e-07
-2.20649e-07
5.03975e-07
-2.16755e-07
5.45489e-07
-2.11687e-07
5.85743e-07
-2.05468e-07
6.24538e-07
-1.98144e-07
6.61679e-07
-1.89784e-07
6.96989e-07
-1.80473e-07
7.3031e-07
-1.70303e-07
7.61509e-07
-1.59374e-07
7.90477e-07
-1.47782e-07
8.17124e-07
-1.35622e-07
8.41381e-07
-1.22982e-07
8.63197e-07
-1.09941e-07
8.82533e-07
-9.65733e-08
8.99363e-07
-8.29444e-08
9.13669e-07
-6.9117e-08
9.25445e-07
-5.51514e-08
9.34692e-07
-4.11073e-08
9.41417e-07
-2.70436e-08
9.45636e-07
-1.30122e-08
9.47459e-07
8.75072e-10
9.46864e-07
1.47623e-08
9.44009e-07
2.8416e-08
9.38995e-07
4.18393e-08
9.31922e-07
5.49466e-08
9.22884e-07
6.76334e-08
9.11972e-07
7.977e-08
8.99283e-07
9.12017e-08
8.84914e-07
1.01762e-07
8.68957e-07
1.11292e-07
8.51485e-07
1.19642e-07
8.32569e-07
1.26692e-07
8.12304e-07
1.32356e-07
7.90813e-07
1.36583e-07
7.68254e-07
1.39365e-07
7.44822e-07
1.40735e-07
7.20744e-07
1.40769e-07
6.96261e-07
1.39585e-07
6.71614e-07
1.37327e-07
6.4702e-07
1.34162e-07
6.22669e-07
1.30263e-07
5.98714e-07
1.2579e-07
5.75284e-07
1.20881e-07
5.52471e-07
1.15675e-07
5.3032e-07
1.10305e-07
5.08829e-07
1.04894e-07
4.87947e-07
9.95407e-08
4.67579e-07
9.43007e-08
4.47613e-07
8.91692e-08
4.27937e-07
8.40811e-08
4.08446e-07
7.8961e-08
3.89015e-07
7.38164e-08
3.69423e-07
6.8877e-08
3.49243e-07
6.47843e-08
3.27657e-07
6.28158e-08
3.03275e-07
6.50378e-08
2.74068e-07
7.41436e-08
2.37598e-07
9.27455e-08
1.91438e-07
1.22419e-07
1.33324e-07
1.63365e-07
6.10674e-08
2.14596e-07
-2.76818e-08
2.74647e-07
-1.3548e-07
3.42001e-07
-2.64263e-07
4.14986e-07
-4.15117e-07
4.91389e-07
-5.88819e-07
5.69498e-07
-7.85785e-07
6.48548e-07
-1.00566e-06
7.2763e-07
-1.24702e-06
8.0479e-07
-1.50712e-06
8.77022e-07
-1.78186e-06
9.4066e-07
-2.06569e-06
9.91874e-07
-2.35194e-06
1.02716e-06
-2.63316e-06
1.04384e-06
-2.90186e-06
1.04049e-06
-3.15126e-06
1.01722e-06
-3.37606e-06
9.75707e-07
-3.57303e-06
9.18977e-07
-3.74122e-06
8.50941e-07
-3.88176e-06
7.75804e-07
-3.99735e-06
6.9749e-07
-4.09167e-06
6.19291e-07
-4.16856e-06
5.43833e-07
-4.23136e-06
4.73019e-07
-4.28268e-06
4.07959e-07
-4.32449e-06
3.49104e-07
-4.35827e-06
2.96457e-07
-4.38512e-06
2.49748e-07
-4.40591e-06
2.08563e-07
-4.42133e-06
1.72432e-07
-4.43196e-06
1.40868e-07
-4.43828e-06
1.13401e-07
-4.44074e-06
8.95827e-08
-4.43972e-06
6.89839e-08
-4.43555e-06
5.11819e-08
-4.42853e-06
3.57635e-08
-4.41888e-06
2.23439e-08
-4.40678e-06
1.0548e-08
-4.39222e-06
-1.09223e-10
-4.37537e-06
-9.6891e-09
-4.3559e-06
-1.86405e-08
-4.33423e-06
-2.72895e-08
-4.31012e-06
-3.57619e-08
-4.28345e-06
-4.44276e-08
-4.254e-06
-5.36376e-08
-4.22148e-06
-6.37799e-08
-4.18546e-06
-7.53072e-08
-4.14543e-06
-8.87415e-08
-4.10082e-06
-1.04438e-07
-4.05097e-06
-1.22994e-07
-3.99502e-06
-1.45396e-07