/*--------------------------------*- C++ -*----------------------------------*\
| =========                 |                                                 |
| \\      /  F ield         | OpenFOAM: The Open Source CFD Toolbox           |
|  \\    /   O peration     | Version:  2112                                  |
|   \\  /    A nd           | Website:  www.openfoam.com                      |
|    \\/     M anipulation  |                                                 |
\*---------------------------------------------------------------------------*/
FoamFile
{
    version     2.0;
    format      ascii;
    arch        "LSB;label=32;scalar=64";
    class       surfaceScalarField;
    location    "0.22";
    object      phi_0;
}
// * * * * * * * * * * * * * * * * * * * * * * * * * * * * * * * * * * * * * //

dimensions      [0 3 -1 0 0 0 0];

oriented        oriented;

internalField   nonuniform List<scalar> 
24170
(
2.88637e-06
3.02033e-07
2.69614e-06
1.90236e-07
2.54703e-06
1.49105e-07
2.42863e-06
1.18399e-07
2.32525e-06
1.03385e-07
2.23307e-06
9.218e-08
2.15031e-06
8.27604e-08
2.0751e-06
7.5205e-08
2.00605e-06
6.90537e-08
1.94202e-06
6.40279e-08
1.88231e-06
5.97098e-08
1.82601e-06
5.62966e-08
1.77299e-06
5.30285e-08
1.72258e-06
5.04072e-08
1.67542e-06
4.71549e-08
1.63106e-06
4.4364e-08
1.57942e-06
5.16428e-08
7.11052e-08
1.50831e-06
3.44138e-06
2.77905e-07
3.33441e-06
2.97208e-07
3.22631e-06
2.57205e-07
3.11121e-06
2.3349e-07
2.99982e-06
2.14775e-07
2.89875e-06
1.93258e-07
2.80834e-06
1.73164e-07
2.72701e-06
1.56536e-07
2.65313e-06
1.42934e-07
2.58526e-06
1.31901e-07
2.52232e-06
1.22652e-07
2.46331e-06
1.15299e-07
2.40757e-06
1.08772e-07
2.35454e-06
1.0344e-07
2.30338e-06
9.83087e-08
2.25512e-06
9.26314e-08
2.22162e-06
8.51372e-08
6.23114e-08
2.23042e-06
3.71971e-06
2.20715e-07
3.72684e-06
2.90072e-07
3.72561e-06
2.58436e-07
3.71267e-06
2.46432e-07
3.68695e-06
2.40496e-07
3.65036e-06
2.29846e-07
3.60809e-06
2.15429e-07
3.56242e-06
2.02206e-07
3.51459e-06
1.90768e-07
3.46562e-06
1.80872e-07
3.4159e-06
1.72374e-07
3.36619e-06
1.65007e-07
3.31616e-06
1.58799e-07
3.26702e-06
1.52577e-07
3.21854e-06
1.46796e-07
3.17383e-06
1.37343e-07
3.13095e-06
1.28013e-07
1.15173e-07
3.07809e-06
3.97476e-06
1.71348e-07
4.00214e-06
2.62692e-07
4.01434e-06
2.46235e-07
4.02812e-06
2.32651e-07
4.03813e-06
2.30482e-07
4.04171e-06
2.26272e-07
4.03938e-06
2.17761e-07
4.0329e-06
2.0868e-07
4.02269e-06
2.00979e-07
4.00915e-06
1.94412e-07
3.99239e-06
1.89137e-07
3.97308e-06
1.84319e-07
3.95125e-06
1.80627e-07
3.92784e-06
1.75986e-07
3.90298e-06
1.71656e-07
3.87649e-06
1.63834e-07
3.85061e-06
1.5389e-07
1.24481e-07
3.8413e-06
4.24808e-06
1.30393e-07
4.27536e-06
2.35415e-07
4.28761e-06
2.33986e-07
4.30036e-06
2.19901e-07
4.31299e-06
2.17851e-07
4.32226e-06
2.17003e-07
4.32804e-06
2.11981e-07
4.33167e-06
2.05044e-07
4.33365e-06
1.99004e-07
4.33399e-06
1.94071e-07
4.33267e-06
1.90455e-07
4.32984e-06
1.87145e-07
4.32579e-06
1.84681e-07
4.32051e-06
1.81265e-07
4.31452e-06
1.77651e-07
4.3079e-06
1.70445e-07
4.30275e-06
1.5904e-07
1.40389e-07
4.28685e-06
4.53828e-06
1.01199e-07
4.56649e-06
2.07204e-07
4.5818e-06
2.18676e-07
4.59332e-06
2.08385e-07
4.60489e-06
2.06278e-07
4.61456e-06
2.0733e-07
4.62118e-06
2.05364e-07
4.62545e-06
2.00774e-07
4.62821e-06
1.96245e-07
4.62971e-06
1.92573e-07
4.63012e-06
1.90043e-07
4.6295e-06
1.8777e-07
4.6282e-06
1.85977e-07
4.62618e-06
1.83286e-07
4.62381e-06
1.80017e-07
4.6208e-06
1.7346e-07
4.61544e-06
1.64397e-07
1.50138e-07
4.60569e-06
4.85445e-06
7.9473e-08
4.88295e-06
1.78699e-07
4.90021e-06
2.0142e-07
4.91109e-06
1.97498e-07
4.92152e-06
1.95852e-07
4.93098e-06
1.97874e-07
4.93791e-06
1.98431e-07
4.94235e-06
1.96337e-07
4.94506e-06
1.93527e-07
4.94641e-06
1.91224e-07
4.94662e-06
1.89835e-07
4.9457e-06
1.88686e-07
4.94398e-06
1.87702e-07
4.94139e-06
1.85878e-07
4.93808e-06
1.83324e-07
4.93311e-06
1.78432e-07
4.92556e-06
1.71944e-07
1.61208e-07
4.91449e-06
5.19588e-06
6.31756e-08
5.22219e-06
1.52392e-07
5.23993e-06
1.8367e-07
5.25126e-06
1.8617e-07
5.26132e-06
1.85795e-07
5.27059e-06
1.88604e-07
5.27782e-06
1.91204e-07
5.28253e-06
1.91624e-07
5.28532e-06
1.90736e-07
5.28677e-06
1.8978e-07
5.28722e-06
1.89382e-07
5.28667e-06
1.89237e-07
5.28511e-06
1.89263e-07
5.28222e-06
1.88766e-07
5.27769e-06
1.87851e-07
5.27073e-06
1.85399e-07
5.26045e-06
1.82222e-07
1.77319e-07
5.24434e-06
5.56355e-06
5.09673e-08
5.58653e-06
1.29408e-07
5.60472e-06
1.65477e-07
5.61696e-06
1.73937e-07
5.62696e-06
1.75791e-07
5.63592e-06
1.79642e-07
5.64307e-06
1.84057e-07
5.64803e-06
1.86666e-07
5.65129e-06
1.87474e-07
5.6534e-06
1.87667e-07
5.65454e-06
1.88246e-07
5.65441e-06
1.8937e-07
5.65263e-06
1.9104e-07
5.64872e-06
1.92674e-07
5.64231e-06
1.94261e-07
5.6328e-06
1.94914e-07
5.61948e-06
1.95533e-07
1.95037e-07
5.60177e-06
5.95901e-06
4.17362e-08
5.97863e-06
1.09784e-07
5.99675e-06
1.47357e-07
6.00986e-06
1.60831e-07
6.01982e-06
1.6583e-07
6.02833e-06
1.71132e-07
6.03547e-06
1.76913e-07
6.04112e-06
1.81019e-07
6.04539e-06
1.83204e-07
6.04833e-06
1.84727e-07
6.04973e-06
1.86848e-07
6.04913e-06
1.89963e-07
6.04621e-06
1.93961e-07
6.04069e-06
1.98196e-07
6.03246e-06
2.02487e-07
6.02122e-06
2.06164e-07
6.00666e-06
2.10085e-07
2.13816e-07
5.98788e-06
6.38396e-06
3.45892e-08
6.4006e-06
9.31422e-08
6.41796e-06
1.29995e-07
6.43146e-06
1.47335e-07
6.4415e-06
1.55794e-07
6.44993e-06
1.62692e-07
6.45756e-06
1.69286e-07
6.46418e-06
1.74403e-07
6.46929e-06
1.78091e-07
6.47244e-06
1.81581e-07
6.4733e-06
1.85988e-07
6.47167e-06
1.91589e-07
6.46757e-06
1.9806e-07
6.46103e-06
2.04743e-07
6.4521e-06
2.11412e-07
6.44057e-06
2.1769e-07
6.42625e-06
2.24413e-07
2.31457e-07
6.40861e-06
5.74578e-06
2.96467e-08
5.75786e-06
8.10606e-08
5.77151e-06
1.1634e-07
5.7829e-06
1.35952e-07
5.79166e-06
1.47026e-07
5.79917e-06
1.55183e-07
5.80618e-06
1.62277e-07
5.81233e-06
1.68253e-07
5.81688e-06
1.73543e-07
5.81929e-06
1.79167e-07
5.81946e-06
1.85821e-07
5.81751e-06
1.93543e-07
5.81369e-06
2.01877e-07
5.80814e-06
2.10288e-07
5.80095e-06
2.18611e-07
5.79189e-06
2.26747e-07
5.78085e-06
2.35455e-07
2.44837e-07
5.76747e-06
7.00291e-06
2.4888e-08
7.01485e-06
6.91249e-08
7.02912e-06
1.0207e-07
7.0419e-06
1.23174e-07
7.05246e-06
1.36468e-07
7.06181e-06
1.45834e-07
7.07047e-06
1.53609e-07
7.07779e-06
1.60935e-07
7.08284e-06
1.68499e-07
7.08517e-06
1.76835e-07
7.08497e-06
1.86019e-07
7.08266e-06
1.95847e-07
7.07867e-06
2.05871e-07
7.07312e-06
2.15841e-07
7.06602e-06
2.25708e-07
7.05712e-06
2.35649e-07
7.04632e-06
2.46257e-07
2.57906e-07
7.03325e-06
8.5354e-06
2.03346e-08
8.54692e-06
5.76027e-08
8.56141e-06
8.75802e-08
8.57558e-06
1.0901e-07
8.58843e-06
1.23619e-07
8.60012e-06
1.34139e-07
8.61048e-06
1.43251e-07
8.61863e-06
1.5278e-07
8.62389e-06
1.63238e-07
8.62626e-06
1.74466e-07
8.6263e-06
1.85985e-07
8.62459e-06
1.97559e-07
8.62152e-06
2.08932e-07
8.61712e-06
2.20242e-07
8.61132e-06
2.31513e-07
8.60384e-06
2.43129e-07
8.59474e-06
2.55361e-07
2.68765e-07
8.58388e-06
1.04035e-05
1.60045e-08
1.04145e-05
4.66316e-08
1.04291e-05
7.29953e-08
1.04448e-05
9.32842e-08
1.04603e-05
1.08128e-07
1.04745e-05
1.19938e-07
1.04864e-05
1.31361e-07
1.04953e-05
1.43914e-07
1.05011e-05
1.57421e-07
1.05044e-05
1.7113e-07
1.05061e-05
1.84357e-07
1.05065e-05
1.97122e-07
1.0506e-05
2.09463e-07
1.05043e-05
2.21858e-07
1.05016e-05
2.34288e-07
1.04975e-05
2.47237e-07
1.04923e-05
2.60559e-07
2.74984e-07
1.0486e-05
1.26809e-05
1.1886e-08
1.26914e-05
3.61027e-08
1.27064e-05
5.79839e-08
1.27241e-05
7.56011e-08
1.27424e-05
8.987e-08
1.2759e-05
1.03346e-07
1.27724e-05
1.17896e-07
1.27826e-05
1.33735e-07
1.27903e-05
1.49748e-07
1.27964e-05
1.64988e-07
1.28018e-05
1.79037e-07
1.28065e-05
1.92362e-07
1.28107e-05
2.05249e-07
1.28142e-05
2.18355e-07
1.2817e-05
2.31502e-07
1.28191e-05
2.45187e-07
1.28208e-05
2.58833e-07
2.73203e-07
1.28226e-05
1.54572e-05
7.87407e-09
1.54678e-05
2.54748e-08
1.54841e-05
4.16548e-08
1.55044e-05
5.535e-08
1.55255e-05
6.8734e-08
1.55447e-05
8.41978e-08
1.55606e-05
1.01934e-07
1.5574e-05
1.20382e-07
1.5586e-05
1.37718e-07
1.55977e-05
1.53278e-07
1.56096e-05
1.6722e-07
1.56215e-05
1.80439e-07
1.56334e-05
1.93332e-07
1.56452e-05
2.0654e-07
1.5657e-05
2.19681e-07
1.5669e-05
2.33196e-07
1.56815e-05
2.4632e-07
2.60243e-07
1.56945e-05
1.88419e-05
3.62001e-09
1.88539e-05
1.34436e-08
1.88731e-05
2.24479e-08
1.88971e-05
3.13875e-08
1.89221e-05
4.3774e-08
1.89453e-05
6.09893e-08
1.89663e-05
8.09423e-08
1.89861e-05
1.00488e-07
1.90062e-05
1.17638e-07
1.90272e-05
1.32311e-07
1.90491e-05
1.4527e-07
1.90719e-05
1.57669e-07
1.90953e-05
1.699e-07
1.91194e-05
1.82476e-07
1.91443e-05
1.94821e-07
1.91703e-05
2.07151e-07
1.91983e-05
2.18378e-07
2.28845e-07
1.92297e-05
2.29688e-05
-1.87635e-09
2.2985e-05
-2.74749e-09
2.30105e-05
-2.99297e-09
2.30413e-05
5.2185e-10
2.30732e-05
1.19492e-08
2.31039e-05
3.02726e-08
2.31341e-05
5.0718e-08
2.3165e-05
6.95552e-08
2.31976e-05
8.50707e-08
2.32321e-05
9.77701e-08
2.32685e-05
1.08883e-07
2.33065e-05
1.1966e-07
2.3346e-05
1.30454e-07
2.33868e-05
1.41642e-07
2.3429e-05
1.52676e-07
2.34723e-05
1.63782e-07
2.35166e-05
1.74109e-07
1.8473e-07
2.35607e-05
1.68157e-05
-6.88441e-09
1.68301e-05
-1.71484e-08
1.68528e-05
-2.57049e-08
1.68805e-05
-2.7107e-08
1.69091e-05
-1.66769e-08
1.69365e-05
2.86224e-09
1.6964e-05
2.31849e-08
1.69922e-05
4.13982e-08
1.70215e-05
5.57894e-08
1.70521e-05
6.71623e-08
1.70839e-05
7.70063e-08
1.7117e-05
8.65733e-08
1.71513e-05
9.62123e-08
1.71867e-05
1.06194e-07
1.72234e-05
1.15961e-07
1.72618e-05
1.25418e-07
1.73023e-05
1.33575e-07
1.40472e-07
1.73466e-05
1.46408e-05
-1.31384e-08
1.46578e-05
-3.41304e-08
1.46804e-05
-4.82512e-08
1.47047e-05
-5.14558e-08
1.47299e-05
-4.1924e-08
1.47568e-05
-2.39741e-08
1.47853e-05
-5.31274e-09
1.48141e-05
1.25372e-08
1.48441e-05
2.58453e-08
1.48752e-05
3.60853e-08
1.49072e-05
4.50168e-08
1.49399e-05
5.37966e-08
1.49735e-05
6.26578e-08
1.50078e-05
7.18706e-08
1.50428e-05
8.10088e-08
1.50781e-05
9.01006e-08
1.51131e-05
9.85228e-08
1.07018e-07
1.51466e-05
1.27474e-05
-2.04101e-08
1.27676e-05
-5.43065e-08
1.27955e-05
-7.61744e-08
1.28258e-05
-8.17391e-08
1.28554e-05
-7.15227e-08
1.28833e-05
-5.19022e-08
1.29092e-05
-3.11729e-08
1.29357e-05
-1.39455e-08
1.29617e-05
-2.19686e-10
1.299e-05
7.83666e-09
1.30191e-05
1.58724e-08
1.3049e-05
2.39428e-08
1.30794e-05
3.21895e-08
1.31105e-05
4.07955e-08
1.31422e-05
4.92846e-08
1.31748e-05
5.75595e-08
1.32084e-05
6.49067e-08
7.12554e-08
1.32442e-05
1.11017e-05
-3.11331e-08
1.11245e-05
-7.71327e-08
1.11502e-05
-1.01864e-07
1.11747e-05
-1.06266e-07
1.11983e-05
-9.51506e-08
1.12229e-05
-7.64515e-08
1.12493e-05
-5.75636e-08
1.12772e-05
-4.19189e-08
1.13069e-05
-2.99331e-08
1.13355e-05
-2.07072e-08
1.13641e-05
-1.27043e-08
1.13932e-05
-5.15598e-09
1.14224e-05
2.93764e-09
1.14512e-05
1.19797e-08
1.14803e-05
2.02332e-08
1.15096e-05
2.82709e-08
1.15388e-05
3.56347e-08
4.27825e-08
1.15673e-05
9.67175e-06
-4.76687e-08
9.70446e-06
-1.09846e-07
9.73594e-06
-1.33341e-07
9.76208e-06
-1.32408e-07
9.78571e-06
-1.18776e-07
9.80925e-06
-9.99897e-08
9.83312e-06
-8.14344e-08
9.85724e-06
-6.6042e-08
9.88153e-06
-5.42226e-08
9.906e-06
-4.51738e-08
9.93076e-06
-3.74679e-08
9.9555e-06
-2.99004e-08
9.98045e-06
-2.2012e-08
1.0006e-05
-1.35804e-08
1.00313e-05
-5.0704e-09
1.00568e-05
2.78557e-09
1.00826e-05
9.79713e-09
1.66564e-08
1.01088e-05
8.4232e-06
-6.55146e-08
8.45782e-06
-1.44465e-07
8.48736e-06
-1.62882e-07
8.50996e-06
-1.55015e-07
8.5318e-06
-1.4061e-07
8.55584e-06
-1.24036e-07
8.58129e-06
-1.06876e-07
8.60674e-06
-9.14978e-08
8.63165e-06
-7.91276e-08
8.65589e-06
-6.94145e-08
8.67962e-06
-6.11991e-08
8.70293e-06
-5.32087e-08
8.72602e-06
-4.51013e-08
8.74909e-06
-3.66513e-08
8.77232e-06
-2.83045e-08
8.79539e-06
-2.0285e-08
8.81834e-06
-1.31471e-08
-5.43022e-09
8.84042e-06
7.35514e-06
-1.03366e-07
7.39317e-06
-1.82503e-07
7.41708e-06
-1.86791e-07
7.43609e-06
-1.74019e-07
7.45585e-06
-1.60375e-07
7.47647e-06
-1.4465e-07
7.49731e-06
-1.27722e-07
7.51832e-06
-1.12504e-07
7.53965e-06
-1.00457e-07
7.56131e-06
-9.1071e-08
7.58305e-06
-8.29431e-08
7.60439e-06
-7.45473e-08
7.62509e-06
-6.57993e-08
7.64555e-06
-5.71124e-08
7.66597e-06
-4.8725e-08
7.68613e-06
-4.04483e-08
7.70583e-06
-3.28481e-08
-2.55161e-08
7.72592e-06
6.41599e-06
-1.49291e-07
6.46268e-06
-2.2919e-07
6.48621e-06
-2.10322e-07
6.50581e-06
-1.93624e-07
6.52752e-06
-1.82084e-07
6.54906e-06
-1.6619e-07
6.56971e-06
-1.48374e-07
6.59044e-06
-1.33234e-07
6.6104e-06
-1.20418e-07
6.62949e-06
-1.10155e-07
6.64759e-06
-1.01047e-07
6.66459e-06
-9.15404e-08
6.68122e-06
-8.24292e-08
6.69689e-06
-7.27896e-08
6.71278e-06
-6.461e-08
6.72811e-06
-5.57805e-08
6.74444e-06
-4.91797e-08
-4.10933e-08
6.76002e-06
5.60247e-06
-2.06299e-07
5.62519e-06
-2.51904e-07
5.6409e-06
-2.26032e-07
5.65327e-06
-2.05999e-07
5.65912e-06
-1.87933e-07
5.66231e-06
-1.69379e-07
5.66372e-06
-1.49781e-07
5.66356e-06
-1.33076e-07
5.66273e-06
-1.19587e-07
5.66068e-06
-1.08104e-07
5.65735e-06
-9.77177e-08
5.65345e-06
-8.76373e-08
5.64936e-06
-7.83425e-08
5.64582e-06
-6.92555e-08
5.64298e-06
-6.17661e-08
5.64082e-06
-5.36234e-08
5.63947e-06
-4.78218e-08
-3.93675e-08
5.63774e-06
4.91217e-06
-2.90864e-07
4.85608e-06
-1.95813e-07
4.7919e-06
-1.61851e-07
4.71198e-06
-1.26081e-07
4.62602e-06
-1.01975e-07
4.54308e-06
-8.64315e-08
4.46786e-06
-7.45625e-08
4.4003e-06
-6.5518e-08
4.33923e-06
-5.85161e-08
4.28385e-06
-5.27225e-08
4.23375e-06
-4.7625e-08
4.18884e-06
-4.27268e-08
4.14917e-06
-3.86669e-08
4.1136e-06
-3.36918e-08
4.08406e-06
-3.22189e-08
4.05593e-06
-2.54931e-08
4.04461e-06
-3.65014e-08
-2.52047e-08
4.03044e-06
3.91181e-06
3.716e-06
3.55415e-06
3.42807e-06
3.32609e-06
3.23966e-06
3.1651e-06
3.09958e-06
3.04106e-06
2.98834e-06
2.94072e-06
2.89799e-06
2.85932e-06
2.82563e-06
2.79341e-06
2.76792e-06
2.73142e-06
2.70621e-06
-2.88382e-07
2.88382e-07
-3.58202e-07
6.98199e-08
-9.99357e-08
-2.58267e-07
4.14435e-07
-5.14371e-07
1.07287e-06
-6.58435e-07
1.77088e-06
-6.98005e-07
2.43036e-06
-6.5948e-07
3.00672e-06
-5.76361e-07
3.47896e-06
-4.72246e-07
3.84051e-06
-3.6155e-07
4.09205e-06
-2.51539e-07
4.23673e-06
-1.44683e-07
4.27804e-06
-4.13065e-08
4.21577e-06
6.22658e-08
4.04911e-06
1.66663e-07
3.77911e-06
2.70006e-07
3.40671e-06
3.72392e-07
2.93388e-06
4.72829e-07
2.36532e-06
5.68567e-07
1.71271e-06
6.52603e-07
9.99809e-07
7.12905e-07
2.57164e-07
7.42645e-07
-4.65423e-07
7.22587e-07
-1.09738e-06
6.31956e-07
-1.55787e-06
4.60494e-07
-1.78774e-06
2.29869e-07
-1.80795e-06
2.02103e-08
-1.75874e-06
-4.92106e-08
-1.88987e-06
1.31129e-07
-2.37289e-06
4.83021e-07
-3.27039e-06
8.97502e-07
-4.46261e-06
1.19221e-06
-5.54331e-06
1.0807e-06
-6.19413e-06
6.50819e-07
-6.46099e-06
2.6686e-07
-6.46984e-06
8.85319e-09
-6.32373e-06
-1.46114e-07
-6.0786e-06
-2.4513e-07
-5.77553e-06
-3.03066e-07
-5.44507e-06
-3.30457e-07
-5.10998e-06
-3.35089e-07
-4.77451e-06
-3.35477e-07
-4.43218e-06
-3.42325e-07
-4.07717e-06
-3.55011e-07
-3.70678e-06
-3.70392e-07
-3.32058e-06
-3.86199e-07
-2.91976e-06
-4.00823e-07
-2.50652e-06
-4.13238e-07
-2.08315e-06
-4.23366e-07
-1.65084e-06
-4.3231e-07
-1.20958e-06
-4.41267e-07
-7.57218e-07
-4.52358e-07
-2.84909e-07
-4.72309e-07
2.14052e-07
-4.98961e-07
7.45125e-07
-5.31073e-07
1.30928e-06
-5.64155e-07
1.90171e-06
-5.92429e-07
2.51144e-06
-6.09734e-07
3.11287e-06
-6.01427e-07
3.67838e-06
-5.65511e-07
4.17412e-06
-4.9574e-07
4.56583e-06
-3.9171e-07
4.82056e-06
-2.54725e-07
4.91997e-06
-9.94103e-08
4.87072e-06
4.92498e-08
4.67312e-06
1.97592e-07
4.35642e-06
3.167e-07
3.97507e-06
3.81357e-07
3.53098e-06
4.44086e-07
3.07376e-06
4.57222e-07
2.58645e-06
4.87307e-07
1.88902e-06
6.97428e-07
1.11257e-06
7.76453e-07
7.28273e-07
3.84297e-07
1.00309e-06
-2.74815e-07
1.59449e-06
-5.91398e-07
1.92086e-06
-3.26373e-07
1.72705e-06
1.93805e-07
1.06661e-06
6.60448e-07
1.42342e-07
9.24264e-07
-8.65386e-07
1.00773e-06
-1.86718e-06
1.00179e-06
-2.82098e-06
9.53801e-07
-3.70018e-06
8.79203e-07
-4.49419e-06
7.94007e-07
-5.20501e-06
7.10818e-07
-5.84037e-06
6.35366e-07
-6.41028e-06
5.6991e-07
-6.92485e-06
5.1457e-07
-7.39306e-06
4.68208e-07
-7.82204e-06
4.28983e-07
-8.21672e-06
3.94671e-07
-8.57958e-06
3.62861e-07
-8.91066e-06
3.31082e-07
-9.20755e-06
2.96896e-07
-9.46545e-06
2.57898e-07
-9.67745e-06
2.11997e-07
-9.83522e-06
1.57766e-07
-9.92918e-06
9.39658e-08
-9.95048e-06
2.13019e-08
-9.89302e-06
-5.74609e-08
-9.75133e-06
-1.41695e-07
-9.5207e-06
-2.30624e-07
-9.19833e-06
-3.22374e-07
-8.78381e-06
-4.14515e-07
-8.27951e-06
-5.04301e-07
-7.69046e-06
-5.89056e-07
-7.024e-06
-6.66457e-07
-6.2894e-06
-7.346e-07
-5.49728e-06
-7.92126e-07
-4.65898e-06
-8.38294e-07
-3.78634e-06
-8.72643e-07
-2.89123e-06
-8.95107e-07
-1.98485e-06
-9.06379e-07
-1.07806e-06
-9.06796e-07
-1.83527e-07
-8.94529e-07
6.86619e-07
-8.70146e-07
1.52102e-06
-8.34405e-07
2.31315e-06
-7.92126e-07
3.05887e-06
-7.45718e-07
3.75425e-06
-6.9538e-07
4.3945e-06
-6.40256e-07
4.97364e-06
-5.79136e-07
5.48484e-06
-5.11205e-07
5.92064e-06
-4.35798e-07
6.27267e-06
-3.5203e-07
6.53446e-06
-2.61785e-07
6.70322e-06
-1.68763e-07
6.77264e-06
-6.94151e-08
6.73684e-06
3.57957e-08
6.60044e-06
1.36402e-07
6.38007e-06
2.20364e-07
6.09511e-06
2.84964e-07
5.76606e-06
3.29051e-07
5.41256e-06
3.53496e-07
5.05147e-06
3.61093e-07
4.69538e-06
3.56089e-07
4.35175e-06
3.43633e-07
4.02413e-06
3.27614e-07
3.71513e-06
3.09007e-07
3.42771e-06
2.87413e-07
3.16596e-06
2.61749e-07
2.93422e-06
2.31747e-07
2.73471e-06
1.99511e-07
2.56357e-06
1.71131e-07
2.4086e-06
1.54971e-07
2.2511e-06
1.57506e-07
2.07721e-06
1.73889e-07
1.89222e-06
1.84993e-07
1.71817e-06
1.74044e-07
1.57588e-06
1.42292e-07
1.47072e-06
1.05157e-07
1.39459e-06
7.61301e-08
1.33328e-06
6.13144e-08
1.27375e-06
5.95318e-08
1.20874e-06
6.50105e-08
1.14085e-06
6.78889e-08
1.07907e-06
6.17771e-08
1.03455e-06
4.45175e-08
1.01288e-06
2.16746e-08
1.01846e-06
-5.57767e-09
1.07627e-06
-5.78152e-08
1.25076e-06
-1.7449e-07
1.59142e-06
-3.40659e-07
2.03087e-06
-4.39452e-07
2.38455e-06
-3.53678e-07
2.54146e-06
-1.56906e-07
2.50065e-06
4.08071e-08
2.22696e-06
2.73693e-07
1.62814e-06
5.9882e-07
7.11922e-07
9.16213e-07
-3.63136e-07
1.07506e-06
-1.40143e-06
1.0383e-06
-2.29172e-06
8.90285e-07
-2.95766e-06
6.65945e-07
-3.34742e-06
3.89759e-07
-3.4382e-06
9.07715e-08
-3.24051e-06
-1.97682e-07
-2.79422e-06
-4.46288e-07
-6.4734e-07
-2.14688e-06
1.68117e-08
2.71571e-07
3.22042e-07
-2.3541e-07
8.73925e-07
-8.1015e-07
1.55282e-06
-1.19327e-06
2.23989e-06
-1.3455e-06
2.87167e-06
-1.32979e-06
3.41507e-06
-1.20287e-06
3.85794e-06
-1.01923e-06
4.20227e-06
-8.16579e-07
4.45626e-06
-6.15535e-07
4.62928e-06
-4.2456e-07
4.73009e-06
-2.4549e-07
4.76691e-06
-7.81278e-08
4.7388e-06
9.03705e-08
4.64321e-06
2.62254e-07
4.48121e-06
4.32007e-07
4.24912e-06
6.04488e-07
3.94068e-06
7.81263e-07
3.54847e-06
9.60783e-07
3.06311e-06
1.13796e-06
2.47325e-06
1.30276e-06
1.77769e-06
1.4382e-06
9.82881e-07
1.5174e-06
1.0893e-07
1.50591e-06
-7.95866e-07
1.36529e-06
-1.64603e-06
1.08003e-06
-2.36228e-06
7.36463e-07
-3.00653e-06
5.95043e-07
-3.73691e-06
8.61508e-07
-4.6051e-06
1.35121e-06
-5.36824e-06
1.66065e-06
-5.82131e-06
1.64528e-06
-6.01642e-06
1.27582e-06
-6.00874e-06
6.43138e-07
-5.81925e-06
7.73666e-08
-5.54068e-06
-2.6972e-07
-5.22074e-06
-4.66054e-07
-4.88778e-06
-5.78084e-07
-4.56901e-06
-6.2184e-07
-4.28064e-06
-6.18828e-07
-4.01251e-06
-6.03219e-07
-3.74883e-06
-5.99157e-07
-3.47847e-06
-6.12686e-07
-3.19257e-06
-6.40911e-07
-2.88451e-06
-6.78449e-07
-2.55143e-06
-7.19279e-07
-2.19429e-06
-7.57966e-07
-1.81694e-06
-7.90582e-07
-1.42479e-06
-8.15516e-07
-1.02271e-06
-8.34391e-07
-6.12768e-07
-8.5121e-07
-1.92499e-07
-8.72627e-07
2.42078e-07
-9.06886e-07
7.02227e-07
-9.59109e-07
1.20484e-06
-1.03369e-06
1.75501e-06
-1.11432e-06
2.35211e-06
-1.18953e-06
2.98707e-06
-1.24469e-06
3.62632e-06
-1.24069e-06
4.24101e-06
-1.18019e-06
4.794e-06
-1.04874e-06
5.24847e-06
-8.46183e-07
5.5774e-06
-5.83648e-07
5.77014e-06
-2.92152e-07
5.82936e-06
-9.97679e-09
5.74131e-06
2.85642e-07
5.52463e-06
5.33389e-07
5.18417e-06
7.21811e-07
4.7626e-06
8.65659e-07
4.28056e-06
9.39262e-07
3.79289e-06
9.7498e-07
3.41471e-06
1.0756e-06
2.96767e-06
1.2235e-06
2.46845e-06
8.83516e-07
2.05587e-06
1.37767e-07
1.37335e-06
9.11191e-08
3.48367e-07
6.98611e-07
-7.95092e-07
1.33726e-06
-1.91518e-06
1.78054e-06
-2.98149e-06
1.99057e-06
-3.97629e-06
2.00253e-06
-4.87463e-06
1.90013e-06
-5.66219e-06
1.74136e-06
-6.34557e-06
1.56258e-06
-6.93712e-06
1.38556e-06
-7.44958e-06
1.22328e-06
-7.89587e-06
1.08165e-06
-8.28785e-06
9.61892e-07
-8.63568e-06
8.62403e-07
-8.9475e-06
7.80019e-07
-9.22927e-06
7.1076e-07
-9.48484e-06
6.50239e-07
-9.71586e-06
5.93879e-07
-9.92183e-06
5.37057e-07
-1.01002e-05
4.75242e-07
-1.02464e-05
4.04149e-07
-1.03545e-05
3.20078e-07
-1.04167e-05
2.1999e-07
-1.0424e-05
1.01212e-07
-1.03678e-05
-3.48385e-08
-1.02421e-05
-1.83164e-07
-1.00358e-05
-3.47991e-07
-9.74281e-06
-5.23655e-07
-9.36025e-06
-7.04931e-07
-8.88844e-06
-8.8633e-07
-8.33051e-06
-1.06223e-06
-7.69231e-06
-1.22726e-06
-6.98198e-06
-1.37679e-06
-6.20954e-06
-1.50704e-06
-5.38628e-06
-1.61538e-06
-4.52404e-06
-1.70054e-06
-3.63492e-06
-1.76176e-06
-2.73081e-06
-1.79921e-06
-1.82296e-06
-1.81423e-06
-9.22245e-07
-1.80751e-06
-3.8393e-08
-1.77838e-06
8.31007e-07
-1.73955e-06
1.67393e-06
-1.67733e-06
2.48699e-06
-1.60518e-06
3.26605e-06
-1.52478e-06
4.00686e-06
-1.43619e-06
4.70465e-06
-1.33804e-06
5.35375e-06
-1.22824e-06
5.94707e-06
-1.10452e-06
6.47662e-06
-9.65347e-07
6.93581e-06
-8.11226e-07
7.31781e-06
-6.43782e-07
7.61361e-06
-4.64566e-07
7.82058e-06
-2.76377e-07
7.93884e-06
-8.2468e-08
7.95721e-06
1.18028e-07
7.86733e-06
3.10253e-07
7.66853e-06
4.83764e-07
7.37547e-06
6.22103e-07
7.01462e-06
7.14347e-07
6.61663e-06
7.59081e-07
6.20641e-06
7.66312e-07
5.79835e-06
7.51694e-07
5.39945e-06
7.26515e-07
5.0155e-06
6.92962e-07
4.65309e-06
6.49817e-07
4.31991e-06
5.94931e-07
4.02246e-06
5.29198e-07
3.76379e-06
4.58178e-07
3.54247e-06
3.9246e-07
3.35703e-06
3.4041e-07
3.20474e-06
3.0979e-07
3.07679e-06
3.01844e-07
2.95864e-06
3.03145e-07
2.83502e-06
2.97656e-07
2.6954e-06
2.81919e-07
2.53432e-06
2.66235e-07
2.3605e-06
2.49947e-07
2.19514e-06
2.2668e-07
2.05745e-06
1.97221e-07
1.94935e-06
1.73107e-07
1.86026e-06
1.56976e-07
1.78362e-06
1.38419e-07
1.72969e-06
9.84464e-08
1.71403e-06
3.73405e-08
1.72917e-06
-2.0716e-08
1.76686e-06
-9.55081e-08
1.86977e-06
-2.77406e-07
2.11898e-06
-5.89861e-07
2.51408e-06
-8.34555e-07
2.8943e-06
-7.33901e-07
3.04904e-06
-3.11648e-07
2.84379e-06
2.46058e-07
2.22857e-06
8.88914e-07
1.26511e-06
1.56229e-06
1.25535e-07
2.05579e-06
-9.75838e-07
2.17643e-06
-1.939e-06
2.00146e-06
-2.7074e-06
1.65868e-06
-3.24489e-06
1.20344e-06
-3.52347e-06
6.68333e-07
-3.52824e-06
9.55456e-08
-3.26549e-06
-4.60431e-07
-2.76682e-06
-9.44958e-07
-1.30648e-06
-2.10768e-06
3.51915e-07
-8.03441e-08
1.00882e-06
-8.92318e-07
1.73629e-06
-1.53762e-06
2.40391e-06
-1.86089e-06
2.95949e-06
-1.90108e-06
3.3843e-06
-1.75459e-06
3.69146e-06
-1.51003e-06
3.90464e-06
-1.23241e-06
4.05064e-06
-9.62581e-07
4.14835e-06
-7.13247e-07
4.20764e-06
-4.83851e-07
4.23074e-06
-2.68593e-07
4.21264e-06
-6.00244e-08
4.16373e-06
1.39279e-07
4.08884e-06
3.37146e-07
3.98184e-06
5.39002e-07
3.83973e-06
7.46603e-07
3.65809e-06
9.62898e-07
3.42827e-06
1.19061e-06
3.13766e-06
1.42857e-06
2.77098e-06
1.66943e-06
2.3091e-06
1.90009e-06
1.72915e-06
2.09735e-06
1.00925e-06
2.22581e-06
1.36479e-07
2.23806e-06
-8.69586e-07
2.08609e-06
-1.90539e-06
1.77227e-06
-2.79877e-06
1.48842e-06
-3.46843e-06
1.53117e-06
-4.03084e-06
1.91361e-06
-4.54276e-06
2.17257e-06
-4.83581e-06
1.93832e-06
-4.86655e-06
1.30656e-06
-4.78108e-06
5.57668e-07
-4.64086e-06
-6.28572e-08
-4.42209e-06
-4.88491e-07
-4.18528e-06
-7.02862e-07
-4.00583e-06
-7.57531e-07
-3.91225e-06
-7.15427e-07
-3.8777e-06
-6.53374e-07
-3.85639e-06
-6.24532e-07
-3.81562e-06
-6.39929e-07
-3.73866e-06
-6.8964e-07
-3.6166e-06
-7.62968e-07
-3.44549e-06
-8.49564e-07
-3.22625e-06
-9.38519e-07
-2.96382e-06
-1.02039e-06
-2.66613e-06
-1.08828e-06
-2.34201e-06
-1.13964e-06
-1.99886e-06
-1.17754e-06
-1.63892e-06
-1.21114e-06
-1.25691e-06
-1.25464e-06
-8.41908e-07
-1.32189e-06
-3.77227e-07
-1.42379e-06
1.46213e-07
-1.55713e-06
7.43782e-07
-1.71189e-06
1.41163e-06
-1.85739e-06
2.12882e-06
-1.96187e-06
2.85969e-06
-1.97156e-06
3.57803e-06
-1.89853e-06
4.23416e-06
-1.70487e-06
4.78577e-06
-1.39779e-06
5.21216e-06
-1.01004e-06
5.5035e-06
-5.83492e-07
5.64375e-06
-1.5023e-07
5.66198e-06
2.67412e-07
5.55729e-06
6.3808e-07
5.34576e-06
9.33343e-07
5.04563e-06
1.16579e-06
4.59758e-06
1.38731e-06
4.07579e-06
1.49677e-06
3.50859e-06
1.6428e-06
2.83319e-06
1.8989e-06
2.19314e-06
1.52356e-06
1.2191e-06
1.11181e-06
-2.27852e-07
1.53807e-06
-1.6979e-06
2.16866e-06
-2.95347e-06
2.59283e-06
-3.96238e-06
2.78945e-06
-4.76917e-06
2.79736e-06
-5.43228e-06
2.66564e-06
-5.98503e-06
2.45288e-06
-6.45023e-06
2.20656e-06
-6.84666e-06
1.95901e-06
-7.19075e-06
1.72965e-06
-7.49549e-06
1.52803e-06
-7.77104e-06
1.3572e-06
-8.0252e-06
1.21605e-06
-8.26382e-06
1.10102e-06
-8.49105e-06
1.00726e-06
-8.70949e-06
9.29196e-07
-8.92009e-06
8.60842e-07
-9.12211e-06
7.95894e-07
-9.31287e-06
7.27816e-07
-9.48761e-06
6.49984e-07
-9.63951e-06
5.56049e-07
-9.75968e-06
4.40248e-07
-9.83747e-06
2.97776e-07
-9.86222e-06
1.25967e-07
-9.82343e-06
-7.36329e-08
-9.70881e-06
-2.97779e-07
-9.51218e-06
-5.44623e-07
-9.22804e-06
-8.07796e-07
-8.85367e-06
-1.0793e-06
-8.38969e-06
-1.35032e-06
-7.84001e-06
-1.6119e-06
-7.21145e-06
-1.85583e-06
-6.5131e-06
-2.07513e-06
-5.75584e-06
-2.2643e-06
-4.95157e-06
-2.41965e-06
-4.11221e-06
-2.5399e-06
-3.24989e-06
-2.62408e-06
-2.37572e-06
-2.67338e-06
-1.49999e-06
-2.68997e-06
-6.31919e-07
-2.67558e-06
2.22748e-07
-2.63305e-06
1.05509e-06
-2.57189e-06
1.86531e-06
-2.48754e-06
2.64881e-06
-2.38868e-06
3.4026e-06
-2.27857e-06
4.12367e-06
-2.15727e-06
4.80799e-06
-2.02236e-06
5.44992e-06
-1.87017e-06
6.04279e-06
-1.69739e-06
6.57978e-06
-1.50234e-06
7.05499e-06
-1.28643e-06
7.46485e-06
-1.05365e-06
7.80815e-06
-8.07861e-07
8.08512e-06
-5.53349e-07
8.2977e-06
-2.95049e-07
8.44875e-06
-3.30187e-08
8.53214e-06
2.2686e-07
8.53205e-06
4.83854e-07
8.42902e-06
7.25134e-07
8.20865e-06
9.34718e-07
7.87373e-06
1.094e-06
7.45151e-06
1.18854e-06
6.98877e-06
1.21443e-06
6.53283e-06
1.18245e-06
6.11141e-06
1.11438e-06
5.72839e-06
1.03284e-06
5.37354e-06
9.49789e-07
5.03846e-06
8.64272e-07
4.72451e-06
7.72125e-07
4.44122e-06
6.75755e-07
4.19732e-06
5.84311e-07
3.99776e-06
5.09352e-07
3.84036e-06
4.59244e-07
3.71541e-06
4.2809e-07
3.61371e-06
3.99352e-07
3.53029e-06
3.65341e-07
3.46465e-06
3.31872e-07
3.40803e-06
3.06577e-07
3.34188e-06
2.92822e-07
3.24859e-06
2.90512e-07
3.12439e-06
2.97311e-07
2.97759e-06
3.03774e-07
2.82133e-06
2.94681e-07
2.67958e-06
2.40198e-07
2.59692e-06
1.20001e-07
2.59698e-06
-2.07788e-08
2.63482e-06
-1.33349e-07
2.66308e-06
-3.05666e-07
2.72839e-06
-6.55174e-07
2.90052e-06
-1.00669e-06
3.08799e-06
-9.2137e-07
3.05967e-06
-2.83323e-07
2.65234e-06
6.53384e-07
1.87213e-06
1.66913e-06
8.73416e-07
2.561e-06
-1.51304e-07
3.08051e-06
-1.10049e-06
3.12562e-06
-1.93924e-06
2.84021e-06
-2.638e-06
2.35744e-06
-3.15119e-06
1.71663e-06
-3.42697e-06
9.44121e-07
-3.43261e-06
1.01181e-07
-3.15862e-06
-7.34424e-07
-2.65054e-06
-1.45303e-06
-1.97042e-06
-1.9866e-06
6.19189e-07
-6.99533e-07
1.37292e-06
-1.64604e-06
2.03335e-06
-2.19806e-06
2.51352e-06
-2.34106e-06
2.82583e-06
-2.21339e-06
3.01588e-06
-1.94464e-06
3.12734e-06
-1.62149e-06
3.19291e-06
-1.29798e-06
3.23394e-06
-1.00361e-06
3.26304e-06
-7.42341e-07
3.28272e-06
-5.03532e-07
3.28932e-06
-2.75198e-07
3.28283e-06
-5.35323e-08
3.2557e-06
1.66413e-07
3.20375e-06
3.89091e-07
3.12776e-06
6.14989e-07
3.02807e-06
8.46293e-07
2.90567e-06
1.08531e-06
2.76123e-06
1.33504e-06
2.59147e-06
1.59834e-06
2.3845e-06
1.8764e-06
2.11926e-06
2.16533e-06
1.76527e-06
2.45134e-06
1.28637e-06
2.70471e-06
6.4804e-07
2.87639e-06
-1.66491e-07
2.90062e-06
-1.12015e-06
2.72593e-06
-2.03401e-06
2.40228e-06
-2.67564e-06
2.17279e-06
-2.98168e-06
2.21966e-06
-3.15679e-06
2.34768e-06
-3.35138e-06
2.13291e-06
-3.52966e-06
1.48485e-06
-3.65847e-06
6.86479e-07
-3.7389e-06
1.7574e-08
-3.79313e-06
-4.34262e-07
-3.89452e-06
-6.01468e-07
-4.10345e-06
-5.48604e-07
-4.38908e-06
-4.298e-07
-4.65705e-06
-3.85403e-07
-4.84076e-06
-4.40816e-07
-4.93396e-06
-5.46735e-07
-4.94781e-06
-6.75792e-07
-4.88943e-06
-8.21348e-07
-4.76724e-06
-9.71752e-07
-4.58977e-06
-1.11599e-06
-4.36481e-06
-1.24535e-06
-4.09913e-06
-1.35396e-06
-3.79766e-06
-1.44111e-06
-3.4622e-06
-1.51299e-06
-3.08975e-06
-1.5836e-06
-2.67253e-06
-1.67186e-06
-2.19873e-06
-1.79569e-06
-1.6593e-06
-1.96322e-06
-1.04992e-06
-2.16651e-06
-3.79893e-07
-2.38191e-06
3.31928e-07
-2.56921e-06
1.0735e-06
-2.70345e-06
1.83434e-06
-2.73239e-06
2.57945e-06
-2.64364e-06
3.25348e-06
-2.3789e-06
3.81265e-06
-1.95696e-06
4.23795e-06
-1.43534e-06
4.52641e-06
-8.71953e-07
4.69711e-06
-3.20922e-07
4.77489e-06
1.89627e-07
4.75625e-06
6.56721e-07
4.6365e-06
1.05309e-06
4.36834e-06
1.43395e-06
3.96421e-06
1.79144e-06
3.39504e-06
2.06594e-06
2.59001e-06
2.44783e-06
1.83138e-06
2.65752e-06
9.47863e-07
2.40708e-06
-4.76654e-07
2.53633e-06
-1.97789e-06
3.0393e-06
-3.20727e-06
3.39804e-06
-4.14323e-06
3.52879e-06
-4.83164e-06
3.47787e-06
-5.32871e-06
3.29442e-06
-5.69502e-06
3.03195e-06
-5.97775e-06
2.7356e-06
-6.20938e-06
2.4382e-06
-6.41157e-06
2.1612e-06
-6.59861e-06
1.91669e-06
-6.77989e-06
1.7093e-06
-6.96141e-06
1.53872e-06
-7.14688e-06
1.40152e-06
-7.33844e-06
1.29257e-06
-7.53698e-06
1.2058e-06
-7.74229e-06
1.13451e-06
-7.95293e-06
1.07148e-06
-8.1659e-06
1.00887e-06
-8.37637e-06
9.38284e-07
-8.57729e-06
8.50903e-07
-8.75922e-06
7.37984e-07
-8.91048e-06
5.91506e-07
-9.01784e-06
4.0513e-07
-9.06709e-06
1.75222e-07
-9.04628e-06
-9.44431e-08
-8.9442e-06
-3.99861e-07
-8.75218e-06
-7.36644e-07
-8.46584e-06
-1.09413e-06
-8.08451e-06
-1.46063e-06
-7.61123e-06
-1.82359e-06
-7.05262e-06
-2.17051e-06
-6.41802e-06
-2.49043e-06
-5.71876e-06
-2.7744e-06
-4.96776e-06
-3.01529e-06
-4.1785e-06
-3.20891e-06
-3.36338e-06
-3.35503e-06
-2.53517e-06
-3.4523e-06
-1.70393e-06
-3.50462e-06
-8.79574e-07
-3.51432e-06
-7.09977e-08
-3.48416e-06
7.23152e-07
-3.4272e-06
1.49221e-06
-3.34095e-06
2.23891e-06
-3.23425e-06