/*--------------------------------*- C++ -*----------------------------------*\
| =========                 |                                                 |
| \\      /  F ield         | OpenFOAM: The Open Source CFD Toolbox           |
|  \\    /   O peration     | Version:  2112                                  |
|   \\  /    A nd           | Website:  www.openfoam.com                      |
|    \\/     M anipulation  |                                                 |
\*---------------------------------------------------------------------------*/
FoamFile
{
    version     2.0;
    format      ascii;
    arch        "LSB;label=32;scalar=64";
    class       volScalarField;
    location    "0.22";
    object      s_0;
}
// * * * * * * * * * * * * * * * * * * * * * * * * * * * * * * * * * * * * * //

dimensions      [0 0 0 0 0 0 0];

internalField   nonuniform List<scalar> 
12225
(
1
1
1
1
1
1
1
1
1
1
1
1
1
1
1
1
1
1
1
1
1
1
1
1
1
1
1
1
1
1
1
1
1
1
1
1
1
1
1
1
1
1
1
1
1
1
1
1
1
1
1
1
1
1
1
1
1
1
1
1
1
1
1
1
1
1
1
1
1
1
1
1
1
1
1
1
1
1
1
1
1
1
1
1
1
1
1
1
1
1
1
1
1
1
1
1
1
1
1
1
1
1
1
1
1
1
1
1
1
1
1
1
1
1
1
1
1
1
1
1
1
1
1
1
1
1
1
1
1
1
1
1
1
1
1
1
1
1
1
1
1
1
1
1
1
1
1
1
1
1
1
1
1
1
1
1
1
1
1
1
1
1
1
1
1
1
1
1
1
1
1
1
1
1
1
1
1
1
1
1
1
1
1
1
1
1
1
1
1
1
1
1
1
1
1
1
1
1
1
1
1
1
1
1
1
1
1
1
1
1
1
1
1
1
1
1
1
1
1
1
1
1
1
1
1
1
1
1
1
1
1
1
1
1
1
1
1
1
1
1
1
1
1
1
1
1
1
1
1
1
1
1
1
1
1
1
1
1
1
1
1
1
1
1
1
1
1
1
1
1
1
1
1
1
1
1
1
1
1
1
1
1
1
1
1
1
1
1
1
1
1
1
1
1
1
1
1
1
1
1
1
1
1
1
1
1
1
1
1
1
1
1
1
1
1
1
1
1
1
1
1
1
1
1
1
1
1
1
1
1
1
1
1
1
1
1
1
1
1
1
1
1
1
1
1
1
1
1
1
1
1
1
1
1
1
1
1
1
1
1
1
1
1
1
1
1
1
1
1
1
1
1
1
1
1
1
1
1
1
1
1
1
1
1
1
1
1
1
1
1
1
1
1
1
1
1
1
1
1
1
1
1
1
1
1
1
1
1
1
1
1
1
1
1
1
1
1
1
1
1
1
1
1
1
1
1
1
1
1
1
1
1
1
1
1
1
1
1
1
1
1
1
1
1
1
1
1
1
1
1
1
1
1
1
1
1
1
1
1
1
1
1
1
1
1
1
1
1
1
1
1
1
1
1
1
1
1
1
1
1
1
1
1
1
1
1
1
1
1
1
1
1
1
1
1
1
1
1
1
1
1
1
1
1
1
1
1
1
1
1
1
1
1
1
1
1
1
1
1
1
1
1
1
1
1
1
1
1
1
1
1
1
1
1
1
1
1
1
1
1
0.990933
0.991003
0.991473
0.992758
0.993713
0.994423
0.994949
0.995121
0.995111
0.995052
0.994928
0.994687
0.994418
0.994254
0.994213
0.994248
0.994487
0.994987
0.995478
0.995896
0.996223
0.99651
0.996758
0.996945
0.997073
0.997169
0.997269
0.997387
0.997488
0.997564
0.997614
0.997656
0.997701
0.997732
0.997743
0.997745
0.997743
0.997732
0.997701
0.997621
0.997417
0.996955
0.996157
0.995684
0.995578
0.995546
0.995527
0.995474
0.995368
0.995294
0.995276
0.995272
0.995276
0.995308
0.995364
0.995384
0.99539
0.995412
0.995433
0.995452
0.995465
0.995473
0.995487
0.9955
0.995487
0.995465
0.995453
0.995451
0.995458
0.995451
0.995437
0.995411
0.99539
0.995395
0.995465
0.995601
0.995729
0.996051
0.996758
0.997148
0.997522
0.998114
0.998602
0.998974
0.999191
0.999278
0.999294
0.999301
0.999308
0.999311
0.999315
0.99932
0.999324
0.999327
0.999331
0.999332
0.999334
0.999336
0.999336
0.999337
0.999337
0.999336
0.999335
0.999334
0.999331
0.999329
0.999326
0.999323
0.99932
0.999316
0.999313
0.999311
0.999308
0.999305
0.999301
0.999295
0.999287
0.999276
0.999262
0.999244
0.99922
0.999195
0.999164
0.999128
0.999086
0.999035
0.998982
0.998916
0.998848
0.998775
0.998693
0.998607
0.998512
0.998399
0.998295
0.998193
0.998016
0.99761
0.996859
0.996112
0.995585
0.995346
0.995304
0.995353
0.995546
0.99571
0.995803
0.995856
0.995913
0.996032
0.996335
0.996995
0.997637
0.998071
0.998287
0.99836
0.998365
0.998306
0.997852
0.997079
0.996894
0.99696
0.997163
0.997311
0.997439
0.997553
0.997639
0.997679
0.997682
0.997662
0.997559
0.997342
0.997237
0.996995
0.996425
0.996256
0.996104
0.995421
0.995065
0.995086
0.991041
0.991179
0.991468
0.992128
0.993181
0.99423
0.995192
0.995887
0.996364
0.99654
0.996532
0.996435
0.996217
0.995749
0.995105
0.994995
0.995144
0.995686
0.996369
0.996642
0.996694
0.997114
0.997251
0.997312
0.997433
0.997536
0.997653
0.997785
0.99787
0.997967
0.998041
0.998079
0.99809
0.99809
0.998054
0.997966
0.997857
0.997741
0.997581
0.99734
0.99698
0.996443
0.996149
0.996111
0.996233
0.99658
0.996865
0.996977
0.997046
0.997134
0.997189
0.99721
0.997225
0.997265
0.997381
0.997446
0.997444
0.997459
0.997472
0.997502
0.997519
0.997506
0.99744
0.997286
0.9971
0.996948
0.996826
0.996748
0.996706
0.996676
0.996614
0.99655
0.99644
0.996193
0.996002
0.995917
0.995912
0.995988
0.996216
0.996342
0.996652
0.997756
0.998799
0.999157
0.999272
0.999314
0.999332
0.999344
0.999353
0.99936
0.999366
0.999374
0.99938
0.999387
0.99939
0.999392
0.999392
0.999392
0.999391
0.999387
0.99938
0.99937
0.999358
0.999343
0.999325
0.999306
0.99929
0.999275
0.999267
0.999264
0.999264
0.999275
0.999289
0.999306
0.999327
0.99935
0.999372
0.99939
0.999404
0.999413
0.999418
0.999421
0.999422
0.999423
0.999425
0.999426
0.999427
0.999426
0.99942
0.999408
0.999393
0.999375
0.999355
0.999338
0.999324
0.999312
0.999305
0.999303
0.999298
0.999259
0.999115
0.998693
0.998188
0.997843
0.997692
0.997666
0.997676
0.99774
0.997884
0.997955
0.997929
0.997617
0.996962
0.996593
0.996449
0.996417
0.996445
0.996638
0.996825
0.996844
0.996824
0.996747
0.996714
0.996722
0.996773
0.996911
0.997118
0.997392
0.997635
0.997724
0.997718
0.997664
0.997566
0.997554
0.997499
0.997263
0.996347
0.995236
0.995009
0.99504
0.991528
0.991941
0.99253
0.993137
0.993717
0.994262
0.995009
0.995651
0.996129
0.996464
0.996589
0.996579
0.996469
0.996364
0.99642
0.996706
0.996801
0.996835
0.997006
0.997092
0.99726
0.997407
0.997491
0.99763
0.997772
0.997918
0.998076
0.99824
0.998388
0.99849
0.998526
0.998536
0.998528
0.998456
0.9983
0.998106
0.997914
0.997715
0.997511
0.997401
0.997356
0.997352
0.997524
0.998053
0.998724
0.999095
0.999237
0.999306
0.999351
0.999392
0.999414
0.999422
0.999424
0.999418
0.999411
0.999379
0.999291
0.999184
0.999074
0.998978
0.998849
0.998594
0.998151
0.997665
0.997316
0.997117
0.997006
0.996991
0.997021
0.997105
0.997187
0.997185
0.997157
0.997089
0.996937
0.996799
0.996488
0.996285
0.996318
0.996462
0.997219
0.99867
0.999176
0.999285
0.999325
0.999339
0.999345
0.999351
0.999355
0.99936
0.999364
0.99937
0.999372
0.999373
0.999371
0.99936
0.999343
0.999317
0.999279
0.999226
0.999156
0.99907
0.998984
0.998909
0.998839
0.998782
0.998739
0.998707
0.998687
0.998674
0.998669
0.998677
0.998699
0.998741
0.998804
0.998893
0.999002
0.999118
0.999216
0.99929
0.999346
0.99938
0.999399
0.999408
0.999412
0.999417
0.999426
0.99944
0.999452
0.999461
0.999465
0.999466
0.999462
0.999448
0.999427
0.9994
0.999369
0.999336
0.999312
0.999303
0.999297
0.999282
0.99924
0.999159
0.999106
0.99909
0.999093
0.999128
0.999197
0.999256
0.999292
0.999291
0.999248
0.999051
0.998563
0.998005
0.99755
0.997294
0.997192
0.997165
0.99717
0.997225
0.997338
0.997368
0.997357
0.997271
0.997133
0.997085
0.997098
0.997116
0.997099
0.997049
0.996988
0.99693
0.99696
0.996931
0.996237
0.994996
0.994922
0.995103
0.993453
0.994777
0.996189
0.996771
0.997056
0.997118
0.997236
0.997223
0.997153
0.997012
0.996938
0.996936
0.997003
0.997096
0.99704
0.996978
0.996972
0.997086
0.997234
0.997396
0.997621
0.997824
0.998066
0.998329
0.998554
0.998809
0.999004
0.999184
0.999294
0.999379
0.999426
0.999457
0.999466
0.999464
0.999445
0.999398
0.999323
0.99927
0.999255
0.999262
0.999341
0.999503
0.999668
0.999756
0.999797
0.999825
0.99984
0.999858
0.999873
0.999882
0.999892
0.999896
0.999898
0.999892
0.99988
0.999857
0.999814
0.999749
0.999649
0.999516
0.999301
0.998875
0.998213
0.997432
0.996835
0.996646
0.996659
0.996797
0.997094
0.997535
0.997798
0.997886
0.997855
0.997764
0.99755
0.997233
0.997077
0.996931
0.996812
0.996965
0.998304
0.999133
0.999283
0.999322
0.999334
0.999337
0.999333
0.999327
0.999325
0.999326
0.999334
0.999336
0.99933
0.99931
0.999273
0.999211
0.999109
0.998981
0.998879
0.99878
0.998692
0.998642
0.998606
0.998571
0.998547
0.998531
0.998515
0.998501
0.99849
0.998474
0.998457
0.998437
0.998413
0.998389
0.998371
0.998359
0.998368
0.99842
0.998545
0.998743
0.998967
0.999142
0.999252
0.999316
0.999342
0.999346
0.999339
0.999331
0.999339
0.999378
0.999419
0.999447
0.999466
0.999479
0.999485
0.999487
0.999485
0.999475
0.999442
0.999386
0.999335
0.999304
0.999288
0.999279
0.999275
0.999275
0.999278
0.999294
0.999335
0.999387
0.99943
0.999459
0.999469
0.999468
0.99944
0.99927
0.998855
0.998509
0.998297
0.998219
0.998224
0.998338
0.998531
0.998573
0.998543
0.998332
0.997784
0.997354
0.997125
0.997
0.996963
0.996954
0.996929
0.996812
0.996757
0.996716
0.995956
0.994866
0.994864
0.995131
0.995874
0.997227
0.997605
0.997648
0.997662
0.997658
0.997683
0.997731
0.997625
0.997439
0.997327
0.997256
0.997204
0.997138
0.997103
0.997111
0.997233
0.997465
0.997759
0.998114
0.998377
0.998697
0.998901
0.999128
0.999239
0.999357
0.99941
0.999458
0.99948
0.999501
0.99952
0.999548
0.999592
0.999643
0.999694
0.999726
0.999742
0.999763
0.999789
0.999801
0.999812
0.999814
0.999814
0.999815
0.999825
0.999839
0.999856
0.999876
0.999894
0.999907
0.999929
0.999938
0.999955
0.999963
0.999967
0.99997
0.999966
0.999955
0.999935
0.999897
0.999813
0.999557
0.998938
0.997832
0.996933
0.996722
0.996813
0.997424
0.998284
0.998593
0.99859
0.998547
0.998523
0.998473
0.998337
0.998171
0.9979
0.997326
0.997105
0.997781
0.998983
0.999261
0.999316
0.999328
0.99933
0.999317
0.999284
0.999267
0.999265
0.999269
0.999269
0.99925
0.9992
0.999112
0.998991
0.99886
0.998766
0.998711
0.99866
0.998632
0.998618
0.998614
0.998614
0.998624
0.998651
0.998683
0.998705
0.998721
0.998727
0.998724
0.998705
0.998667
0.998608
0.998526
0.99843
0.998353
0.998286
0.99823
0.998198
0.998184
0.99824
0.998434
0.998739
0.99903
0.999202
0.999285
0.999302
0.999285
0.999239
0.999205
0.999197
0.999214
0.999267
0.999319
0.99937
0.999415
0.999447
0.999467
0.999476
0.999476
0.999466
0.999415
0.999351
0.999315
0.9993
0.999297
0.999297
0.999303
0.999319
0.99933
0.999331
0.999335
0.999371
0.999459
0.999529
0.999553
0.999541
0.999418
0.999025
0.998753
0.998683
0.998703
0.998787
0.998798
0.998719
0.9985
0.998385
0.998121
0.997582
0.997262
0.997215
0.997191
0.997058
0.996791
0.996691
0.996618
0.995651
0.994753
0.994862
0.99507
0.996652
0.997742
0.997718
0.997663
0.997636
0.997576
0.997554
0.997542
0.997469
0.99739
0.997318
0.997266
0.997237
0.997229
0.997309
0.997516
0.997931
0.998291
0.998621
0.998858
0.999093
0.999214
0.999307
0.999348
0.999363
0.999367
0.999349
0.999287
0.999157
0.999006
0.998901
0.998866
0.998865
0.998951
0.999173
0.999283
0.999335
0.999412
0.999467
0.999477
0.999474
0.999458
0.999432
0.999423
0.999431
0.999489
0.999572
0.999653
0.999721
0.999773
0.999844
0.999876
0.999928
0.999958
0.99997
0.99998
0.999985
0.999988
0.999987
0.999981
0.999966
0.999923
0.999793
0.999305
0.997868
0.997343
0.997578
0.998443
0.998812
0.998795
0.998665
0.998475
0.998473
0.99847
0.998422
0.998273
0.997874
0.997385
0.997574
0.998677
0.999201
0.999304
0.999323
0.999326
0.99931
0.999246
0.999187
0.999173
0.999169
0.999163
0.99913
0.99906
0.998956
0.998848
0.998753
0.998706
0.998684
0.998676
0.998673
0.998679
0.998727
0.998804
0.998863
0.998903
0.998928
0.998937
0.998948
0.998962
0.998975
0.998993
0.99901
0.999023
0.999028
0.999009
0.99895
0.998826
0.998655
0.998459
0.998294
0.99817
0.998086
0.998052
0.99807
0.998237
0.99861
0.99898
0.999185
0.999258
0.999255
0.999199
0.99913
0.99909
0.999073
0.999071
0.999082
0.999128
0.999207
0.999294
0.999372
0.999425
0.999451
0.999457
0.999452
0.999414
0.999352
0.999321
0.999311
0.999312
0.999319
0.999324
0.999322
0.999317
0.999318
0.999326
0.999367
0.9995
0.99959
0.999606
0.999574
0.999361
0.999043
0.998937
0.998922
0.998899
0.998786
0.998677
0.998659
0.998629
0.998488
0.998061
0.99787
0.997541
0.997093
0.996779
0.996669
0.996518
0.995348
0.994696
0.994819
0.994862
0.996917
0.997772
0.997645
0.9976
0.997573
0.997541
0.997496
0.997453
0.997412
0.997372
0.997351
0.997348
0.997424
0.997612
0.998029
0.998396
0.998757
0.998964
0.999168
0.999264
0.999323
0.99934
0.999343
0.999316
0.999247
0.999074
0.998729
0.998143
0.997398
0.996932
0.996671
0.99656
0.996528
0.996569
0.996841
0.997277
0.99768
0.998007
0.998186
0.998233
0.998232
0.998194
0.998122
0.998093
0.998119
0.998305
0.998662
0.998951
0.999228
0.999415
0.999569
0.999657
0.999793
0.999892
0.999936
0.999968
0.999982
0.999989
0.999993
0.999994
0.999993
0.999986
0.99996
0.999859
0.999187
0.998014
0.998003
0.998659
0.998918
0.998809
0.998429
0.998175
0.998154
0.998245
0.998271
0.998096
0.997696
0.997614
0.99844
0.999079
0.99928
0.999321
0.999327
0.999316
0.999254
0.999127
0.999066
0.99905
0.999044
0.999023
0.998964
0.998877
0.998782
0.99872
0.998694
0.998687
0.998689
0.998707
0.998763
0.99886
0.998907
0.99893
0.998941
0.998943
0.998941
0.998929
0.998924
0.998925
0.99894
0.998968
0.999007
0.999046
0.999085
0.999114
0.999131
0.999135
0.999102
0.999008
0.998836
0.998595
0.998319
0.998115
0.997999
0.997956
0.997971
0.998141
0.998586
0.999003
0.999205
0.999258
0.999242
0.999153
0.999077
0.99904
0.999026
0.999024
0.999029
0.999054
0.999132
0.999242
0.999339
0.999403
0.99943
0.999432
0.999424
0.999385
0.99935
0.99934
0.99934
0.999341
0.99934
0.999333
0.999325
0.999324
0.999327
0.99935
0.999471
0.999619
0.999657
0.99964
0.999498
0.999312
0.9992
0.999022
0.998836
0.998767
0.998764
0.99876
0.998715
0.998541
0.99818
0.997613
0.997079
0.996748
0.996618
0.996389
0.995066
0.994649
0.994696
0.994343
0.99702
0.997752
0.997638
0.997603
0.997579
0.997543
0.997504
0.997478
0.997467
0.997477
0.997557
0.997726
0.99811
0.998492
0.998799
0.999038
0.999194
0.999286
0.999331
0.999343
0.999343
0.999315
0.999244
0.999064
0.998699
0.997994
0.997068
0.996395
0.996048
0.99584
0.995729
0.995662
0.995608
0.995591
0.995589
0.995601
0.995656
0.995778
0.995974
0.996173
0.996236
0.996227
0.996172
0.996105
0.996083
0.996169
0.996491
0.997167
0.998029
0.998755
0.999061
0.999236
0.999476
0.999729
0.999847
0.999924
0.999963
0.999982
0.999992
0.999995
0.999997
0.999997
0.999992
0.99997
0.999803
0.998507
0.998137
0.998692
0.998953
0.998791
0.998371
0.998126
0.998039
0.998033
0.998002
0.99789
0.997782
0.998358
0.998956
0.999232
0.999312
0.999327
0.999326
0.999292
0.999195
0.999041
0.998946
0.998923
0.998915
0.998889
0.998827
0.998752
0.998707
0.998688
0.998685
0.998696
0.998728
0.998815
0.998867
0.99889
0.998897
0.998896
0.998857
0.998785
0.998701
0.998623
0.99856
0.998533
0.998548
0.998611
0.998714
0.998837
0.998962
0.99907
0.999136
0.99917
0.999188
0.999182
0.999122
0.999038
0.998891
0.998605
0.998286
0.998054
0.997929
0.997891
0.997916
0.99813
0.998668
0.9991
0.999289
0.99934
0.999328
0.999237
0.999143
0.999086
0.999056
0.999047
0.999052
0.999086
0.999179
0.999279
0.99936
0.999403
0.999412
0.999408
0.99939
0.999367
0.999353
0.999335
0.999304
0.999281
0.999287
0.999313
0.999324
0.999331
0.999356
0.999483
0.99965
0.999697
0.999688
0.999648
0.999574
0.999339
0.999006
0.998891
0.998884
0.998876
0.998831
0.998685
0.998306
0.997618
0.997034
0.996706
0.996565
0.996242
0.994879
0.994554
0.994417
0.993558
0.997105
0.997749
0.997662
0.997643
0.997622
0.997601
0.997593
0.997623
0.997715
0.997922
0.998192
0.99854
0.998804
0.999034
0.999178
0.999272
0.999313
0.999329
0.999332
0.999317
0.999261
0.999123
0.998838
0.998283
0.99742
0.996705
0.996244
0.996042
0.995956
0.995927
0.995942
0.996086
0.996178
0.996214
0.996221
0.996152
0.996047
0.996013
0.995922
0.995869
0.99583
0.995793
0.995763
0.99571
0.995615
0.995569
0.995559
0.995657
0.996063
0.997153
0.998138
0.998548
0.998823
0.999351
0.99967
0.999833
0.999921
0.999963
0.999984
0.999993
0.999997
0.999998
0.999998
0.999994
0.999961
0.999512
0.998297
0.998585
0.998958
0.998926
0.998532
0.998225
0.998082
0.998043
0.99802
0.998023
0.998375
0.998888
0.999168
0.99929
0.999327
0.999334
0.999327
0.999284
0.999164
0.998969
0.99885
0.998817
0.998804
0.99878
0.998733
0.998694
0.99868
0.998677
0.998692
0.998733
0.998798
0.998841
0.998857
0.998857
0.998806
0.998693
0.998499
0.998233
0.998046
0.997956
0.997923
0.997919
0.997957
0.998017
0.998109
0.998264
0.998496
0.998786
0.999011
0.999138
0.999196
0.999222
0.999216
0.999168
0.99911
0.999015
0.998845
0.998557
0.998236
0.998003
0.99788
0.997851
0.997897
0.99821
0.998828
0.999246
0.999438
0.999511
0.999525
0.999499
0.999388
0.999258
0.999164
0.999127
0.999128
0.999173
0.999263
0.999327
0.99937
0.999387
0.999385
0.999376
0.999352
0.999287
0.999209
0.999187
0.99921
0.999289
0.999322
0.999329
0.999335
0.999369
0.999523
0.999677
0.999735
0.999743
0.999736
0.999674
0.999393
0.999182
0.999148
0.999102
0.999001
0.998794
0.998397
0.997649
0.997021
0.996692
0.996529
0.996037
0.994739
0.994409
0.993981
0.993
0.997141
0.997777
0.997719
0.997719
0.997741
0.997763
0.997847
0.998024
0.998257
0.998511
0.998765
0.99898
0.99913
0.999213
0.999261
0.999288
0.999298
0.999281
0.999224
0.999101
0.99887
0.998431
0.99778
0.997131
0.996647
0.996337
0.996219
0.996183
0.996316
0.996811
0.997437
0.997706
0.99787
0.997956
0.998001
0.998017
0.997987
0.997959
0.997879
0.997777
0.997633
0.997423
0.997165
0.996836
0.996464
0.996064
0.995767
0.995587
0.995576
0.995868
0.996642
0.997415
0.997747
0.998501
0.999255
0.999646
0.99984
0.99993
0.99997
0.999987
0.999995
0.999998
0.999999
0.999999
0.999993
0.999917
0.998938
0.9985
0.998898
0.99899
0.998864
0.998583
0.99841
0.998322
0.998365
0.998592
0.998911
0.999131
0.999264
0.999319
0.999338
0.999342
0.999334
0.999288
0.99917
0.998967
0.998781
0.998737
0.998719
0.998707
0.998681
0.998668
0.998665
0.998679
0.998711
0.998757
0.998802
0.998821
0.998808
0.998718
0.998488
0.998046
0.997802
0.997697
0.997661
0.99766
0.99771
0.997763
0.997806
0.997853
0.997902
0.997964
0.998057
0.998232
0.998606
0.998968
0.999147
0.999223
0.99925
0.999232
0.999194
0.999147
0.999068
0.998968
0.998813
0.998531
0.998215
0.997968
0.997841
0.997824
0.997912
0.998381
0.999011
0.999393
0.999589
0.999683
0.999717
0.999717
0.999661
0.999447
0.999279
0.999229
0.999231
0.999278
0.999342
0.999367
0.999373
0.999367
0.999324
0.999219
0.999164
0.999157
0.999185
0.999285
0.999338
0.999344
0.999338
0.99934
0.999387
0.999575
0.999708
0.999761
0.999772
0.999757
0.99964
0.999544
0.999481
0.999318
0.999136
0.998965
0.998648
0.997809
0.99706
0.996697
0.996451
0.995825
0.994566
0.994183
0.993553
0.992676
0.997153
0.997819
0.997796
0.997895
0.998049
0.99815
0.998245
0.998411
0.99864
0.998867
0.999045
0.999142
0.999195
0.999223
0.999237
0.999221
0.999141
0.998965
0.998653
0.998174
0.997735
0.99727
0.9969
0.996629
0.996477
0.996405
0.996414
0.996775
0.997599
0.99812
0.998334
0.998437
0.998489
0.998514
0.998523
0.998524
0.998514
0.998504
0.998493
0.998483
0.998472
0.998458
0.998425
0.998355
0.998208
0.997915
0.997354
0.996638
0.996026
0.995814
0.996141
0.996619
0.996897
0.997382
0.998465
0.999286
0.999691
0.999871
0.999947
0.999979
0.999992
0.999997
0.999999
1
0.999999
0.999988
0.999788
0.998653
0.998705
0.998995
0.998998
0.998868
0.998796
0.998771
0.99883
0.998968
0.99912
0.999225
0.999309
0.999348
0.999357
0.999357
0.999348
0.999302
0.999195
0.998996
0.998774
0.998679
0.998671
0.998658
0.998649
0.998645
0.998655
0.998679
0.998711
0.998757
0.998783
0.998769
0.998666
0.998339
0.997836
0.997611
0.997522
0.997501
0.997541
0.997624
0.997683
0.997751
0.9978
0.997843
0.997882
0.997924
0.997973
0.998044
0.998187
0.998583
0.998983
0.999181
0.999254
0.999273
0.999251
0.999216
0.999168
0.999108
0.999069
0.999011
0.998869
0.998567
0.998189
0.997906
0.997795
0.997801
0.997985
0.998612
0.999174
0.999511
0.9997
0.999795
0.999827
0.999824
0.999759
0.999516
0.999358
0.99933
0.999338
0.999361
0.999367
0.999362
0.999316
0.999213
0.999173
0.999178
0.999241
0.999372
0.999414
0.999412
0.999375
0.999337
0.99934
0.999413
0.999626
0.999736
0.999763
0.999758
0.999709
0.99967
0.999644
0.999567
0.99934
0.999163
0.998884
0.998028
0.997139
0.996693
0.996349
0.995616
0.994433
0.993938
0.99322
0.992484
0.997189
0.997895
0.997961
0.998286
0.998484
0.998555
0.998603
0.998723
0.998905
0.999051
0.999124
0.999158
0.999171
0.999135
0.999014
0.998764
0.998368
0.997865
0.997366
0.997078
0.996857
0.996693
0.996612
0.996585
0.996558
0.99667
0.997124
0.99792
0.998318
0.998489
0.998552
0.998575
0.998582
0.998583
0.998575
0.998569
0.998552
0.998535
0.998516
0.998506
0.998504
0.998524
0.998543
0.998559
0.998569
0.998542
0.998436
0.998153
0.997487
0.9967
0.996337
0.996472
0.996695
0.996988
0.997785
0.998879
0.999503
0.999795
0.999918
0.999968
0.999988
0.999996
0.999998
1
1
0.999999
0.999975
0.999482
0.998651
0.99888
0.999041
0.999008
0.998964
0.998963
0.999028
0.9991
0.999175
0.999241
0.999311
0.999358
0.999375
0.999378
0.999371
0.999336
0.999251
0.999068
0.998804
0.998671
0.998625
0.998625
0.998624
0.99863
0.998648
0.998675
0.998709
0.998744
0.998747
0.998664
0.998354
0.99779
0.997512
0.997409
0.997386
0.997436
0.99751
0.997616
0.997732
0.997825
0.99788
0.997912
0.997931
0.997943
0.99797
0.998018
0.998093
0.998271
0.998719
0.999066
0.999232
0.999285
0.999288
0.999267
0.999244
0.999209
0.99919
0.999197
0.999199
0.999166
0.998997
0.998534
0.998062
0.997803
0.997747
0.997799
0.998164
0.998837
0.999319
0.99962
0.999795
0.999874
0.999886
0.999866
0.999746
0.999512
0.999414
0.999389
0.999382
0.999369
0.99932
0.999228
0.999209
0.999224
0.999314
0.999499
0.999572
0.999573
0.999522
0.999375
0.999311
0.999321
0.999454
0.999651
0.99971
0.999713
0.999689
0.999658
0.999638
0.999607
0.999516
0.999374
0.999115
0.998262
0.997218
0.996716
0.996287
0.99536
0.994275
0.993735
0.992964
0.992368
0.997139
0.997917
0.998013
0.998504
0.998803
0.998868
0.998899
0.998979
0.999099
0.999153
0.999168
0.999168
0.999129
0.998994
0.998732
0.998308
0.997729
0.997098
0.996755
0.996615
0.996552
0.996532
0.996589
0.996682
0.996901
0.99738
0.997933
0.99835
0.998515
0.998577
0.9986
0.998611
0.998623
0.998631
0.998635
0.998634
0.998617
0.998582
0.998529
0.998478
0.998446
0.998428
0.998466
0.998531
0.998583
0.998603
0.998596
0.998532
0.998292
0.997728
0.997149
0.996791
0.996747
0.996915
0.997558
0.998709
0.999412
0.99975
0.9999
0.999962
0.999986
0.999995
0.999998
0.999999
1
1
0.999998
0.999948
0.999208
0.998681
0.998984
0.999079
0.999053
0.999033
0.999068
0.999124
0.999176
0.999233
0.999298
0.999353
0.999376
0.999387
0.999388
0.999374
0.999324
0.999195
0.998898
0.998691
0.998617
0.998599
0.9986
0.998611
0.998637
0.998668
0.998698
0.998706
0.998655
0.998448
0.99793
0.997499
0.997334
0.99729
0.997304
0.997376
0.997499
0.997678
0.997822
0.997888
0.997928
0.997959
0.997989
0.998015
0.998021
0.998029
0.99808
0.998194
0.998513
0.998924
0.99918
0.999284
0.999305
0.999293
0.999274
0.99927
0.999278
0.999338
0.999393
0.999408
0.999412
0.999341
0.998962
0.998271
0.99785
0.997717
0.997721
0.997878
0.998467
0.999085
0.999501
0.999759
0.999886
0.999919
0.999912
0.99986
0.999675
0.999515
0.999451
0.999409
0.99933
0.999281
0.999285
0.999316
0.999426
0.999582
0.999655
0.999663
0.999635
0.99949
0.999323
0.999264
0.999287
0.999425
0.999502
0.99951
0.999516
0.999525
0.999529
0.999535
0.999525
0.999481
0.999333
0.998646
0.997362
0.996775
0.99617
0.995183
0.9941
0.99353
0.992794
0.992304
0.997017
0.99795
0.997994
0.998491
0.998915
0.999038
0.999085
0.999147
0.999215
0.999235
0.999236
0.999212
0.99914
0.999005
0.998751
0.998342
0.997776
0.997128
0.996704
0.996539
0.996494
0.996511
0.996686
0.997073
0.997565
0.997904
0.99826
0.998506
0.998596
0.998634
0.998653
0.998679
0.998705
0.998726
0.998734
0.998736
0.99873
0.998715
0.99868
0.998587
0.998463
0.998402
0.998382
0.998404
0.998508
0.998594
0.998609
0.998596
0.998517
0.998163
0.997576
0.997205
0.997079
0.997121
0.99754
0.998661
0.999383
0.999733
0.999892
0.999959
0.999985
0.999995
0.999998
0.999999
1
1
1
0.999997
0.99992
0.999076
0.998667
0.998975
0.999086
0.999089
0.999087
0.999116
0.999157
0.999197
0.999239
0.99931
0.999359
0.999382
0.999391
0.999389
0.999373
0.99931
0.999122
0.998769
0.998632
0.998589
0.998585
0.998592
0.998619
0.998652
0.998677
0.998677
0.998615
0.998297
0.997698
0.997345
0.997222
0.997187
0.997223
0.997309
0.997484
0.997699
0.997814
0.997871
0.99791
0.997948
0.997989
0.998029
0.99806
0.998081
0.998098
0.99818
0.998433
0.998851
0.999139
0.999278
0.99932
0.999322
0.999304
0.999296
0.999306
0.999369
0.999533
0.99963
0.999652
0.999651
0.999599
0.999287
0.99844
0.997902
0.997714
0.9977
0.997788
0.99823
0.998926
0.999423
0.999731
0.999884
0.999937
0.999939
0.999914
0.999839
0.999666
0.999504
0.999395
0.999379
0.99939
0.999425
0.999509
0.99963
0.999702
0.999716
0.999704
0.999618
0.999399
0.999268
0.999216
0.999215
0.999192
0.99914
0.999124
0.999128
0.999187
0.999374
0.999471
0.999471
0.999407
0.998948
0.997578
0.996855
0.996172
0.995017
0.993994
0.993387
0.99269
0.992268
0.996635
0.998096
0.997935
0.99834
0.998896
0.999064
0.999139
0.999198
0.999256
0.999273
0.999274
0.999264
0.999215
0.999109
0.998935
0.99866
0.998258
0.997718
0.997066
0.996662
0.996521
0.996512
0.996708
0.997283
0.99792
0.998238
0.998443
0.998581
0.998634
0.998661
0.998686
0.998713
0.998735
0.998747
0.99875
0.998748
0.998745
0.998739
0.998726
0.998685
0.998561
0.998423
0.998367
0.99837
0.998428
0.998549
0.998599
0.9986
0.998564
0.998416
0.997919
0.997486
0.997404
0.997495
0.997957
0.998906
0.999473
0.999761
0.999897
0.999961
0.999987
0.999996
0.999999
1
1
1
1
1
0.999996
0.999901
0.999113
0.998749
0.998917
0.999075
0.999101
0.999111
0.999125
0.999136
0.999148
0.999179
0.999247
0.999329
0.999373
0.999387
0.999383
0.999366
0.99929
0.998992
0.998701
0.998602
0.998573
0.998575
0.998595
0.998634
0.998651
0.99864
0.998535
0.998126
0.997548
0.997245
0.997136
0.997103
0.99712
0.997197
0.997405
0.99761
0.997718
0.997764
0.997807
0.997873
0.997954
0.998025
0.99807
0.998102
0.998136
0.998196
0.998409
0.998825
0.999123
0.999276
0.999327
0.999334
0.999327
0.999319
0.999325
0.999373
0.999542
0.999704
0.999796
0.999824
0.999816
0.999745
0.999364
0.998458
0.997923
0.997737
0.997723
0.997801
0.998201
0.998928
0.999446
0.999753
0.999898
0.999952
0.999959
0.999949
0.999908
0.999766
0.999596
0.99955
0.999555
0.999576
0.999606
0.999673
0.999737
0.999755
0.999748
0.9997
0.999521
0.999317
0.999229
0.999161
0.999073
0.998991
0.998949
0.998937
0.998948
0.999073
0.999346
0.999429
0.999402
0.999091
0.997806
0.99697
0.996208
0.994891
0.993864
0.993291
0.992619
0.992266
0.996326
0.998022
0.99797
0.998054
0.998669
0.999026
0.999131
0.999193
0.999253
0.99927
0.999272
0.999266
0.999239
0.999178
0.999077
0.998919
0.998684
0.998343
0.997828
0.997258
0.996819
0.996619
0.996694
0.997092
0.997834
0.998227
0.99844
0.998574
0.998636
0.99867
0.998689
0.998711
0.998728
0.998734
0.998738
0.998741
0.998741
0.998739
0.99873
0.998699
0.99859
0.998433
0.998359
0.998354
0.998407
0.998536
0.998584
0.998586
0.998559
0.998456
0.998182
0.99795
0.997898
0.997974
0.998429
0.999124
0.999564
0.999808
0.999922
0.999968
0.999988
0.999996
0.999999
1
1
1
1
1
1
0.999997
0.999924
0.999269
0.998882
0.998899
0.999038
0.999097
0.999114
0.999118
0.999117
0.999119
0.999133
0.999169
0.999245
0.999339
0.999371
0.999368
0.999352
0.999255
0.998921
0.99867
0.998586
0.998564
0.99857
0.998605
0.998625
0.998615
0.998526
0.998153
0.997572
0.997238
0.997071
0.997021
0.99702
0.997048
0.997191
0.997414
0.997508
0.99753
0.997578
0.997713
0.997877
0.998014
0.998087
0.998121
0.998157
0.998231
0.998425
0.998825
0.999121
0.999283
0.999341
0.999348
0.999339
0.999333
0.999338
0.999379
0.999533
0.999708
0.999826
0.999883
0.999893
0.999877
0.999762
0.999182
0.998355
0.997939
0.997812
0.99781
0.997906
0.998356
0.999066
0.999544
0.999809
0.999926
0.999967
0.999975
0.99997
0.999944
0.999867
0.999781
0.999735
0.999725
0.999727
0.999735
0.999767
0.999786
0.999781
0.999742
0.999621
0.999421
0.999273
0.999172
0.999071
0.998983
0.998929
0.998909
0.99891
0.998946
0.99916
0.999353
0.999361
0.999164
0.998033
0.997119
0.996295
0.994892
0.99379
0.993195
0.992604
0.992273
0.995684
0.997542
0.998034
0.998032
0.998197
0.998748
0.999054
0.999159
0.999217
0.999224
0.999203
0.999163
0.999141
0.999092
0.999003
0.998856
0.998645
0.998354
0.997941
0.997494
0.997138
0.996855
0.996758
0.996845
0.997322
0.998012
0.998349
0.998524
0.998613
0.998659
0.998682
0.998702
0.998714
0.998718
0.998726
0.998729
0.998729
0.998724
0.998709
0.998664
0.998525
0.998363
0.998318
0.998336
0.998424
0.998549
0.998584
0.998571
0.998486
0.998354
0.9982
0.998118
0.998123
0.998221
0.998627
0.999202
0.999597
0.999824
0.999935
0.999979
0.999993
0.999998
0.999999
1
1
1
1
1
1
1
0.999998
0.999938
0.999449
0.998984
0.998935
0.998978
0.999073
0.999102
0.999107
0.999107
0.999108
0.999113
0.999131
0.99918
0.999276
0.99934
0.999347
0.999329
0.999228
0.998888
0.998655
0.998577
0.99856
0.998569
0.998593
0.99859
0.998531
0.998246
0.997664
0.997281
0.997085
0.996999
0.996972
0.996974
0.99701
0.997147
0.997184
0.997202
0.997316
0.997587
0.997841
0.998011
0.998118
0.998166
0.998204
0.998282
0.99852
0.998904
0.999168
0.9993
0.999347
0.999354
0.99935
0.999345
0.999349
0.999386
0.999531
0.999706
0.999831
0.999901
0.999923
0.999919
0.999869
0.999593
0.998812
0.998279
0.998062
0.998015
0.998026
0.998151
0.998682
0.999299
0.999677
0.999872
0.999953
0.99998
0.999986
0.999983
0.999971
0.999946
0.999896
0.999843
0.99981
0.999802
0.999807
0.999816
0.999812
0.999777
0.999654
0.999525
0.999374
0.999221
0.999101
0.999017
0.998961
0.998932
0.998929
0.998945
0.999044
0.999267
0.99931
0.999194
0.998265
0.997269
0.996476
0.994936
0.993795
0.993174
0.992612
0.992292
0.993712
0.996026
0.997774
0.998029
0.998115
0.998298
0.998726
0.999037
0.999139
0.999138
0.999108
0.999021
0.998863
0.998698
0.998526
0.998325
0.998104
0.99788
0.99763
0.997388
0.997142
0.996946
0.996842
0.996844
0.996948
0.997349
0.998012
0.998353
0.998524
0.998611
0.998654
0.998682
0.998695
0.998705
0.998712
0.998712
0.998709
0.998697
0.998664
0.998574
0.998377
0.998292
0.998297
0.998348
0.998513
0.998586
0.99859
0.998554
0.998384
0.998237
0.99816
0.998156
0.998186
0.998327
0.998781
0.999333
0.999691
0.999876
0.999955
0.999985
0.999996
0.999999
1
1
1
1
1
1
1
1
1
0.999995
0.999932
0.999552
0.999078
0.998957
0.998964
0.999022
0.999078
0.999095
0.9991
0.999102
0.999106
0.999117
0.999145
0.999219
0.999308
0.999321
0.999301
0.999198
0.998858
0.99864
0.998572
0.998559
0.998563
0.998562
0.998535
0.998385
0.997871
0.997397
0.997141
0.997018
0.996972
0.99696
0.996963
0.996985
0.997013
0.99707
0.997237
0.997555
0.997837
0.998046
0.998157
0.998208
0.998256
0.998358
0.998644