/*--------------------------------*- C++ -*----------------------------------*\
| =========                 |                                                 |
| \\      /  F ield         | OpenFOAM: The Open Source CFD Toolbox           |
|  \\    /   O peration     | Version:  2112                                  |
|   \\  /    A nd           | Website:  www.openfoam.com                      |
|    \\/     M anipulation  |                                                 |
\*---------------------------------------------------------------------------*/
FoamFile
{
    version     2.0;
    format      ascii;
    arch        "LSB;label=32;scalar=64";
    class       volVectorField;
    location    "0.22";
    object      U_0;
}
// * * * * * * * * * * * * * * * * * * * * * * * * * * * * * * * * * * * * * //

dimensions      [0 1 -1 0 0 0 0];

internalField   nonuniform List<vector> 
12225
(
(10.1261 -0.0184522 0)
(9.66731 0.0952096 0)
(9.11713 0.0728443 0)
(8.74181 0.0341902 0)
(8.53132 0.01707 0)
(8.3986 0.0247958 0)
(8.23475 0.044448 0)
(7.98828 0.0615038 0)
(7.66745 0.0692648 0)
(7.33097 0.0699059 0)
(6.98809 0.0671572 0)
(6.68691 0.0629418 0)
(6.38013 0.0592951 0)
(6.13533 0.0574187 0)
(5.83125 0.0632857 0)
(5.61292 0.073857 0)
(5.15758 0.109813 0)
(5.01283 0.120913 0)
(9.85453 0.0784806 0)
(10.1101 0.133446 0)
(10.2392 0.127953 0)
(10.205 0.101131 0)
(10.0808 0.0626823 0)
(9.99336 0.044687 0)
(9.98121 0.0569585 0)
(10.0034 0.0858883 0)
(10.001 0.111266 0)
(9.96183 0.125673 0)
(9.88488 0.129037 0)
(9.8055 0.127389 0)
(9.71885 0.123975 0)
(9.65356 0.123818 0)
(9.56712 0.129959 0)
(9.49826 0.155378 0)
(9.34935 0.198876 0)
(9.26512 0.297698 0)
(9.90548 -0.0352468 0)
(9.91559 0.0398805 0)
(10.0025 0.0654989 0)
(10.0588 0.0771168 0)
(10.0497 0.0667753 0)
(10.0249 0.0507363 0)
(10.0199 0.0456951 0)
(10.0397 0.0592695 0)
(10.0697 0.0832149 0)
(10.0947 0.104759 0)
(10.1062 0.115707 0)
(10.1058 0.117429 0)
(10.0947 0.114639 0)
(10.0743 0.11362 0)
(10.047 0.123946 0)
(10.0197 0.15638 0)
(9.99918 0.220313 0)
(10.0099 0.322613 0)
(9.79275 0.100062 0)
(9.81399 0.0775903 0)
(9.90811 0.0795964 0)
(10.0394 0.0855037 0)
(10.0887 0.0649897 0)
(10.0483 0.0492838 0)
(9.96918 0.0537205 0)
(9.89942 0.0736237 0)
(9.86864 0.0977979 0)
(9.88137 0.1183 0)
(9.92259 0.130371 0)
(9.96639 0.134003 0)
(9.9899 0.13572 0)
(9.98065 0.142289 0)
(9.93942 0.157513 0)
(9.88507 0.187061 0)
(9.83383 0.232529 0)
(9.82363 0.298308 0)
(9.99508 0.0205202 0)
(10.108 0.0309986 0)
(10.2294 0.0294923 0)
(10.3 0.0465517 0)
(10.2558 0.0704256 0)
(10.1594 0.086962 0)
(10.0708 0.0929451 0)
(10.0239 0.0922341 0)
(10.0161 0.0875449 0)
(10.0271 0.0803607 0)
(10.033 0.0793746 0)
(10.0196 0.0909234 0)
(9.99052 0.112267 0)
(9.95589 0.13926 0)
(9.91728 0.172609 0)
(9.87606 0.215243 0)
(9.83244 0.264074 0)
(9.79961 0.313652 0)
(9.88065 0.026432 0)
(10.0138 -0.00215737 0)
(10.1328 0.0102141 0)
(10.1468 0.064884 0)
(10.1056 0.0976973 0)
(10.0613 0.105134 0)
(10.045 0.0965085 0)
(10.0527 0.089772 0)
(10.0616 0.0966441 0)
(10.0446 0.115414 0)
(10.0018 0.135763 0)
(9.96119 0.14989 0)
(9.92956 0.161694 0)
(9.89158 0.177555 0)
(9.84942 0.198426 0)
(9.81338 0.226383 0)
(9.79707 0.261303 0)
(9.79725 0.300164 0)
(10.2235 0.0354642 0)
(10.1731 -0.0306562 0)
(10.1073 0.0137636 0)
(10.0731 0.0791566 0)
(10.0937 0.109595 0)
(10.1466 0.109971 0)
(10.1707 0.0963364 0)
(10.1433 0.087267 0)
(10.0893 0.0913637 0)
(10.0416 0.10348 0)
(10.021 0.115278 0)
(10.013 0.127737 0)
(10.0076 0.146491 0)
(10.0065 0.173091 0)
(10.004 0.204759 0)
(9.99488 0.237473 0)
(9.98292 0.269692 0)
(9.97405 0.303011 0)
(10.0522 0.0634107 0)
(10.0504 0.00267958 0)
(10.0527 0.0339682 0)
(10.1016 0.0456433 0)
(10.1958 0.0533085 0)
(10.2603 0.0722894 0)
(10.2486 0.0987797 0)
(10.1798 0.12479 0)
(10.0861 0.143072 0)
(9.99436 0.150183 0)
(9.92116 0.151503 0)
(9.87655 0.155446 0)
(9.85803 0.166835 0)
(9.85858 0.186087 0)
(9.86766 0.211274 0)
(9.87852 0.241054 0)
(9.88079 0.271309 0)
(9.88075 0.301829 0)
(10.17 0.11312 0)
(10.0672 -0.0198698 0)
(10.0259 0.0213528 0)
(9.98378 0.0477533 0)
(9.94989 0.06474 0)
(9.94536 0.0935766 0)
(9.96412 0.124834 0)
(9.99464 0.152555 0)
(10.0253 0.171893 0)
(10.046 0.176387 0)
(10.0523 0.16698 0)
(10.0468 0.154786 0)
(10.0324 0.15138 0)
(10.0136 0.164104 0)
(9.99349 0.191846 0)
(9.97602 0.230157 0)
(9.96075 0.272147 0)
(9.94282 0.311806 0)
(10.1636 0.140877 0)
(10.0067 0.0694264 0)
(9.96494 0.0548116 0)
(9.9849 0.0461326 0)
(10.0348 0.0546273 0)
(10.0663 0.0673014 0)
(10.0678 0.080797 0)
(10.0708 0.0991532 0)
(10.093 0.119423 0)
(10.1231 0.138391 0)
(10.1392 0.156541 0)
(10.1319 0.174961 0)
(10.1043 0.193396 0)
(10.068 0.21239 0)
(10.035 0.233297 0)
(10.0098 0.257434 0)
(9.99536 0.286624 0)
(9.98441 0.321358 0)
(10.1426 0.030782 0)
(10.1437 0.0505071 0)
(10.087 0.0512655 0)
(10.0425 0.0324979 0)
(10.0504 0.0422751 0)
(10.071 0.0795771 0)
(10.0639 0.115656 0)
(10.0366 0.136511 0)
(10.0083 0.145981 0)
(9.98829 0.151949 0)
(9.98548 0.159059 0)
(10.0033 0.16964 0)
(10.0367 0.185319 0)
(10.0738 0.206811 0)
(10.1053 0.233262 0)
(10.1228 0.263658 0)
(10.126 0.297965 0)
(10.1109 0.335307 0)
(9.96162 -0.0136813 0)
(9.96811 0.0745803 0)
(9.99799 0.0853026 0)
(9.98839 0.0469849 0)
(10.0275 0.0352961 0)
(10.1111 0.0645004 0)
(10.1763 0.105296 0)
(10.197 0.135214 0)
(10.1817 0.148066 0)
(10.149 0.149481 0)
(10.1144 0.146598 0)
(10.0896 0.145377 0)
(10.0815 0.150633 0)
(10.0906 0.166447 0)
(10.112 0.195207 0)
(10.1365 0.235498 0)
(10.1567 0.286261 0)
(10.1683 0.340614 0)
(10.151 -0.0914398 0)
(10.1255 0.0271991 0)
(10.05 0.0661782 0)
(9.97796 0.0295501 0)
(9.98163 -0.00126184 0)
(10.051 0.00755302 0)
(10.1388 0.0585467 0)
(10.2033 0.123087 0)
(10.2201 0.171128 0)
(10.1925 0.194095 0)
(10.1441 0.198204 0)
(10.0931 0.192944 0)
(10.0502 0.187493 0)
(10.0188 0.190376 0)
(10.0004 0.207093 0)
(9.99607 0.23906 0)
(10.0001 0.283102 0)
(10.0193 0.337837 0)
(10.0629 -0.0991128 0)
(9.95376 0.164282 0)
(9.88348 0.163781 0)
(9.85296 0.0659381 0)
(9.8318 -0.00368456 0)
(9.81462 -0.0162834 0)
(9.81974 0.0269991 0)
(9.8581 0.0949718 0)
(9.91851 0.155766 0)
(9.97835 0.19356 0)
(10.0193 0.208289 0)
(10.0348 0.208693 0)
(10.0267 0.203884 0)
(10.0015 0.203531 0)
(9.96816 0.211326 0)
(9.93881 0.232017 0)
(9.91916 0.261575 0)
(9.91949 0.301809 0)
(9.89014 0.016178 0)
(9.9215 0.0786906 0)
(9.97901 0.0958517 0)
(10.048 0.0594337 0)
(10.0879 0.0324509 0)
(10.0885 0.0259741 0)
(10.0687 0.0296878 0)
(10.0525 0.043687 0)
(10.0573 0.0686203 0)
(10.0843 0.102053 0)
(10.1249 0.139531 0)
(10.1673 0.177111 0)
(10.2004 0.212024 0)
(10.2183 0.244779 0)
(10.219 0.273332 0)
(10.2046 0.298188 0)
(10.1833 0.317184 0)
(10.158 0.331544 0)
(10.2051 0.0228826 0)
(10.1048 0.136093 0)
(10.0657 0.0955765 0)
(10.051 0.00414058 0)
(10.0486 -0.0419402 0)
(10.0407 -0.0118123 0)
(10.0186 0.0582906 0)
(9.98619 0.119608 0)
(9.9565 0.149051 0)
(9.94639 0.150826 0)
(9.96175 0.141902 0)
(9.99897 0.138243 0)
(10.0498 0.147789 0)
(10.1077 0.173694 0)
(10.1643 0.212792 0)
(10.2138 0.258255 0)
(10.2517 0.303479 0)
(10.2775 0.338603 0)
(10.129 0.198967 0)
(10.1249 0.226142 0)
(10.1603 0.135526 0)
(10.171 0.06581 0)
(10.1139 0.0449691 0)
(10.0477 0.0617297 0)
(10.015 0.0855741 0)
(10.0142 0.0956401 0)
(10.0362 0.0902192 0)
(10.0704 0.0766688 0)
(10.1044 0.0624639 0)
(10.128 0.0552544 0)
(10.1368 0.0609199 0)
(10.1345 0.08367 0)
(10.128 0.122514 0)
(10.1241 0.171014 0)
(10.1248 0.222434 0)
(10.134 0.267537 0)
(10.3186 0.148881 0)
(10.2959 0.163016 0)
(10.3322 0.0937601 0)
(10.3259 0.0752464 0)
(10.3044 0.0905395 0)
(10.2976 0.112291 0)
(10.3015 0.118303 0)
(10.3056 0.102746 0)
(10.3015 0.0775584 0)
(10.2886 0.062932 0)
(10.2681 0.0733349 0)
(10.2406 0.110829 0)
(10.21 0.16377 0)
(10.1831 0.215952 0)
(10.1676 0.256382 0)
(10.1663 0.282952 0)
(10.1804 0.297283 0)
(10.2079 0.304012 0)
(9.99179 0.0447182 0)
(10.0153 0.1437 0)
(10.0321 0.136129 0)
(10.0857 0.0644824 0)
(10.1006 0.0202608 0)
(10.1021 0.0217081 0)
(10.1102 0.0519 0)
(10.1156 0.0879494 0)
(10.116 0.116653 0)
(10.1171 0.136735 0)
(10.1218 0.14951 0)
(10.1304 0.154597 0)
(10.1431 0.151082 0)
(10.1605 0.14082 0)
(10.1813 0.127447 0)
(10.2053 0.114029 0)
(10.2306 0.101406 0)
(10.2572 0.0932843 0)
(10.0706 -0.197033 0)
(10.0275 -0.0605105 0)
(9.99651 0.0578889 0)
(9.99495 0.0685109 0)
(9.99629 0.0752148 0)
(10.0146 0.100677 0)
(10.0632 0.117559 0)
(10.1352 0.1087 0)
(10.2099 0.0828184 0)
(10.2656 0.061421 0)
(10.2886 0.0606348 0)
(10.2803 0.0803715 0)
(10.2528 0.10966 0)
(10.2186 0.13673 0)
(10.1886 0.154274 0)
(10.1687 0.161685 0)
(10.1605 0.161854 0)
(10.164 0.160872 0)
(9.96678 0.143299 0)
(9.92448 0.127109 0)
(9.91864 0.0926888 0)
(9.97944 0.0481268 0)
(10.0235 -0.00840744 0)
(10.0461 -0.0616482 0)
(10.0711 -0.100593 0)
(10.0889 -0.109306 0)
(10.0907 -0.0733904 0)
(10.0851 0.0050166 0)
(10.083 0.100566 0)
(10.0886 0.182547 0)
(10.1034 0.230895 0)
(10.1266 0.240409 0)
(10.1565 0.217004 0)
(10.1898 0.173897 0)
(10.2245 0.123897 0)
(10.2586 0.080961 0)
(9.86198 0.0841738 0)
(9.9417 -0.00202826 0)
(10.0116 -0.0181985 0)
(10.0557 -0.00271787 0)
(10.0643 0.011114 0)
(10.0509 0.0284739 0)
(10.0159 0.0462702 0)
(9.96222 0.0584215 0)
(9.91202 0.0663561 0)
(9.89892 0.0725364 0)
(9.93664 0.0767287 0)
(10.0088 0.0801204 0)
(10.0922 0.0821432 0)
(10.168 0.0792351 0)
(10.2251 0.0696128 0)
(10.2617 0.0563411 0)
(10.2803 0.0420614 0)
(10.2904 0.0310106 0)
(10.2676 -0.102355 0)
(10.1883 -0.0550688 0)
(10.1304 0.0140755 0)
(10.1134 0.00645604 0)
(10.1073 -0.0161699 0)
(10.1128 -0.0104299 0)
(10.1339 0.0100581 0)
(10.1616 0.0170448 0)
(10.1896 0.00204226 0)
(10.2109 -0.0233154 0)
(10.2212 -0.0361822 0)
(10.224 -0.0249239 0)
(10.2215 0.00613658 0)
(10.2155 0.0434318 0)
(10.2077 0.0713105 0)
(10.2006 0.0817381 0)
(10.1956 0.0725005 0)
(10.1943 0.0484155 0)
(9.94297 -0.0974612 0)
(9.97735 0.0502772 0)
(10.089 0.0650007 0)
(10.185 0.0183109 0)
(10.19 -0.000225635 0)
(10.1419 -0.000687717 0)
(10.1094 0.00274346 0)
(10.1133 0.00912299 0)
(10.1363 0.018762 0)
(10.1568 0.0340967 0)
(10.1645 0.0538381 0)
(10.161 0.0734489 0)
(10.1584 0.0873266 0)
(10.1664 0.0922184 0)
(10.1867 0.0866765 0)
(10.2145 0.0726167 0)
(10.2448 0.052539 0)
(10.271 0.0308081 0)
(10.1111 0.000232105 0)
(10.0652 -0.11371 0)
(10.0595 -0.0951342 0)
(10.0599 -0.0484319 0)
(10.0822 0.00792011 0)
(10.1276 0.0439509 0)
(10.1728 0.0327197 0)
(10.1853 -0.00626017 0)
(10.165 -0.0363276 0)
(10.1343 -0.0431618 0)
(10.1121 -0.0320538 0)
(10.1065 -0.0125669 0)
(10.1161 0.00709012 0)
(10.1374 0.0211239 0)
(10.1686 0.0261547 0)
(10.2056 0.022007 0)
(10.2449 0.0100203 0)
(10.2799 -0.00639954 0)
(10.0617 0.0241265 0)
(10.1146 -0.00810832 0)
(10.0766 0.0304946 0)
(10.0252 0.00665938 0)
(10.0204 -0.0440922 0)
(10.064 -0.0561587 0)
(10.1214 -0.0252444 0)
(10.1531 0.0179554 0)
(10.1534 0.0499704 0)
(10.147 0.0656664 0)
(10.1595 0.0696524 0)
(10.1979 0.0656886 0)
(10.2556 0.055692 0)
(10.3214 0.0392002 0)
(10.3821 0.0175635 0)
(10.4268 -0.00542387 0)
(10.4515 -0.0261833 0)
(10.4567 -0.0399027 0)
(10.09 -0.167018 0)
(10.075 -0.118742 0)
(10.1707 -0.0156495 0)
(10.2424 0.00185596 0)
(10.174 -0.0154031 0)
(10.0273 -0.0249983 0)
(9.92059 -0.0243 0)
(9.90523 -0.0218862 0)
(9.96624 -0.02649 0)
(10.0685 -0.0394382 0)
(10.1807 -0.0569498 0)
(10.2812 -0.0719131 0)
(10.3561 -0.0767869 0)
(10.3992 -0.0696766 0)
(10.411 -0.0534122 0)
(10.3995 -0.0333216 0)
(10.3731 -0.0149655 0)
(10.3429 -0.00447183 0)
(9.74755 -0.0337196 0)
(9.65681 -0.0580303 0)
(9.72786 -0.0488508 0)
(9.87496 0.00306424 0)
(10.004 0.0465386 0)
(10.0983 0.0578995 0)
(10.177 0.0347961 0)
(10.2461 -0.00357139 0)
(10.2946 -0.0375392 0)
(10.3134 -0.0584617 0)
(10.304 -0.0628007 0)
(10.2771 -0.0519321 0)
(10.2472 -0.0326321 0)
(10.227 -0.0118115 0)
(10.2251 0.00472029 0)
(10.2406 0.0136463 0)
(10.269 0.0136728 0)
(10.3006 0.00419327 0)
(10.1292 -0.0826336 0)
(10.1219 -0.118757 0)
(10.0334 -0.100936 0)
(10.0082 -0.0844802 0)
(10.0664 -0.0814157 0)
(10.1652 -0.0825184 0)
(10.2638 -0.0824943 0)
(10.3263 -0.0780428 0)
(10.3266 -0.0679603 0)
(10.268 -0.0555646 0)
(10.1838 -0.0455759 0)
(10.1146 -0.0409826 0)
(10.0839 -0.0421483 0)
(10.0946 -0.0465888 0)
(10.1363 -0.0500973 0)
(10.1921 -0.0506039 0)
(10.2478 -0.0476072 0)
(10.2889 -0.042836 0)
(9.99994 -0.0344564 0)
(9.77871 -0.0208564 0)
(9.5578 -0.0300975 0)
(9.35221 -0.0311056 0)
(9.18981 -0.0270338 0)
(9.0266 -0.0304437 0)
(8.84624 -0.034536 0)
(8.67856 -0.0276769 0)
(8.55295 -0.0108758 0)
(8.47401 0.00385092 0)
(8.42494 0.0058837 0)
(8.37979 -0.00622257 0)
(8.31607 -0.0263223 0)
(8.2253 -0.0453718 0)
(8.11521 -0.0560105 0)
(8.00283 -0.0568073 0)
(7.89947 -0.0487398 0)
(7.81837 -0.03674 0)
(0.0397443 -0.0710622 9.03459e-21)
(0.131474 -0.0769558 -8.96632e-21)
(0.249622 -0.100455 0)
(0.422032 -0.173054 0)
(0.621632 -0.204074 0)
(0.824624 -0.203274 8.57338e-21)
(1.01687 -0.166779 0)
(1.16426 -0.0903445 0)
(1.23121 -0.0101368 0)
(1.22235 0.0507869 0)
(1.15516 0.0986197 -8.15353e-21)
(1.03906 0.124815 0)
(0.894588 0.120079 0)
(0.730077 0.110668 0)
(0.538704 0.12638 0)
(0.339923 0.200403 -7.91025e-21)
(0.168647 0.271692 0)
(0.0471197 0.221379 0)
(0.0400512 0.0515607 0)
(0.138891 -0.135578 0)
(0.248707 -0.303744 0)
(0.313179 -0.42984 0)
(0.299875 -0.437203 0)
(0.189281 -0.291678 -7.28659e-21)
(-0.037083 -0.0333998 7.17764e-21)
(-0.381932 0.231818 -7.07178e-21)
(-0.817769 0.407974 -6.96088e-21)
(-1.28335 0.473477 0)
(-1.72504 0.464167 0)
(-2.11823 0.418175 6.52593e-21)
(-2.4548 0.355102 6.35285e-21)
(-2.73092 0.2863 0)
(-2.95057 0.222038 0)
(-3.12498 0.17131 5.85018e-21)
(-3.26998 0.13921 0)
(-3.40794 0.124515 0)
(-3.56704 0.124767 -5.54669e-21)
(-3.77279 0.142546 0)
(-4.04542 0.183242 -5.54844e-21)
(-4.40077 0.254623 -1.12204e-20)
(-4.84171 0.354714 0)
(-5.34203 0.442781 0)
(-5.82927 0.442789 0)
(-6.18424 0.327353 0)
(-6.30571 0.183957 0)
(-6.2105 0.136781 -1.25298e-20)
(-6.02757 0.194842 -1.2864e-20)
(-5.84418 0.203845 -1.32219e-20)
(-5.63474 0.0536587 0)
(-5.34687 -0.141799 1.39868e-20)
(-4.9892 -0.205134 0)
(-4.62735 -0.155333 -1.47725e-20)
(-4.29083 -0.153127 -1.51343e-20)
(-3.91926 -0.258459 0)
(-3.44303 -0.359334 0)
(-2.92737 -0.349369 0)
(-2.46669 -0.309045 -1.6323e-20)
(-1.95738 -0.327882 0)
(-1.45008 -0.336704 0)
(-0.916342 -0.337051 0)
(-0.374757 -0.329821 0)
(0.16576 -0.306933 0)
(0.684538 -0.280837 0)
(1.15585 -0.247769 0)
(1.58124 -0.222246 0)
(1.96507 -0.207642 1.59147e-20)
(2.31556 -0.199129 0)
(2.63549 -0.191199 0)
(2.92449 -0.162941 -1.49966e-20)
(3.1715 -0.0926764 -1.46713e-20)
(3.3486 -0.0713858 0)
(3.47618 -0.0975124 1.40765e-20)
(3.48907 0.0773306 -1.38629e-20)
(3.23544 0.190296 0)
(2.97314 -0.100387 1.35786e-20)
(2.88211 -0.0758439 0)
(2.50709 0.461885 0)
(1.82396 0.433147 -1.35565e-20)
(1.31119 -0.0627805 0)
(1.18551 -0.254481 1.33993e-20)
(1.51612 -0.338434 0)
(2.03337 -0.459267 -1.33552e-20)
(2.38074 -0.548992 -1.32091e-20)
(2.27468 -0.282462 -1.3041e-20)
(1.39459 0.455595 -2.58784e-20)
(-0.277497 0.96042 2.53587e-20)
(-1.76729 0.8311 0)
(-2.86062 0.62145 0)
(-3.74165 0.491067 0)
(-4.46201 0.397256 1.90925e-20)
(-5.08734 0.341736 1.73916e-20)
(-5.65616 0.309464 -1.57086e-20)
(-6.19231 0.29115 0)
(-6.71184 0.280658 1.23593e-20)
(-7.22266 0.273316 1.06818e-20)
(-7.72727 0.265722 9.00574e-21)
(-8.22359 0.255905 0)
(-8.70593 0.242479 0)
(-9.16552 0.224561 0)
(-9.5916 0.201636 2.71954e-21)
(-9.97211 0.173496 0)
(-10.2943 0.140099 0)
(-10.5452 0.102064 4.94664e-22)
(-10.7129 0.0611876 0)
(-10.787 0.0187907 0)
(-10.7571 -0.0253939 1.0443e-21)
(-10.6273 -0.0692519 0)
(-10.3913 -0.113383 0)
(-10.0491 -0.156695 1.69606e-21)
(-9.60361 -0.197464 3.25816e-21)
(-9.06102 -0.234404 0)
(-8.43117 -0.266131 -7.00316e-21)
(-7.72716 -0.291541 0)
(-6.96479 -0.309833 1.10351e-20)
(-6.16155 -0.320582 0)
(-5.33525 -0.323776 1.47174e-20)
(-4.50296 -0.319798 1.62773e-20)
(-3.681 -0.309285 0)
(-2.88487 -0.293077 0)
(-2.12779 -0.272472 0)
(-1.41951 -0.248892 0)
(-0.76587 -0.223628 0)
(-0.174953 -0.198495 0)
(0.352758 -0.175625 0)
(0.823965 -0.152593 2.06475e-20)
(1.24115 -0.130936 -2.04612e-20)
(1.6059 -0.11071 0)
(1.92102 -0.0919478 0)
(2.18972 -0.0747152 0)
(2.41569 -0.0592087 0)
(2.60336 -0.0457223 -3.74738e-20)
(2.75789 -0.0343766 0)
(2.88492 -0.0250496 3.58054e-20)
(2.99018 -0.0174512 -3.49776e-20)
(3.07886 -0.0112036 0)
(3.15497 -0.00612785 0)
(3.22041 -0.00248662 0)
(3.27622 0.00266685 3.19422e-20)
(3.31366 0.0183472 3.12735e-20)
(3.30904 0.0480954 0)
(3.24569 0.0828633 3.00191e-20)
(3.11363 0.109171 2.94163e-20)
(2.92325 0.116031 -2.88175e-20)
(2.70437 0.103676 0)
(2.48556 0.0819594 0)
(2.28457 0.0604241 -2.70551e-20)
(2.10042 0.0449757 0)
(1.92205 0.0352361 0)
(1.74913 0.0264069 0)
(1.59257 0.0156991 0)
(1.46648 0.00395798 2.43391e-20)
(1.38376 -0.00365458 2.39862e-20)
(1.33791 0.00140337 0)
(1.30345 0.0167659 2.36577e-20)
(1.27251 0.0169063 0)
(1.26498 -0.00991072 0)
(1.28083 -0.0257673 2.35114e-20)
(1.27414 0.00910135 0)
(1.19912 0.0631492 2.33044e-20)
(1.07213 0.0688948 0)
(0.96018 0.0247778 0)
(0.921669 -0.0341053 2.26246e-20)
(0.961794 -0.0720261 0)
(1.06089 -0.0751273 2.22187e-20)
(1.18894 -0.0686521 0)
(1.32325 -0.0740791 0)
(1.45744 -0.0769507 0)
(1.57969 -0.04575 -2.13076e-20)
(1.63553 0.0124955 0)
(1.60712 0.0323454 2.07673e-20)
(1.61608 0.00515415 0)
(1.68201 -0.0226191 0)
(1.83044 -0.086046 0)
(2.24366 -0.066935 0)
(2.19227 0.0581563 0)
(2.03074 -0.0198214 0)
(2.32136 -0.0678862 0)
(1.66037 0.229888 -3.88762e-20)
(-0.471604 0.461121 0)
(-2.29649 0.366796 0)
(0.0605836 -0.280663 -2.71203e-20)
(0.269542 -0.394526 2.68909e-20)
(0.568548 -0.473604 0)
(0.86091 -0.58891 -1.74595e-20)
(1.10465 -0.624934 0)
(1.29833 -0.593121 -8.55562e-21)
(1.44411 -0.509612 1.67353e-20)
(1.53942 -0.317324 1.6545e-20)
(1.56523 -0.0745718 0)
(1.52083 0.126749 1.62515e-20)
(1.42166 0.280993 8.14516e-21)
(1.25563 0.389009 0)
(1.06131 0.470856 0)
(0.879378 0.549211 0)
(0.693494 0.593403 0)
(0.585366 0.495375 7.90248e-21)
(0.59305 0.27146 0)
(0.628733 0.00868419 -1.56557e-20)
(0.574947 -0.230839 0)
(0.307974 -0.282902 0)
(-0.0979195 -0.0160953 1.52318e-20)
(-0.665809 0.357802 0)
(-1.3378 0.697905 -1.47514e-20)
(-1.98774 0.948421 7.24557e-21)
(-2.56561 1.10319 -7.12631e-21)
(-3.06069 1.17329 7.01755e-21)
(-3.49476 1.16234 6.90778e-21)
(-3.87675 1.09012 0)
(-4.21326 0.980828 0)
(-4.50467 0.851352 -6.48297e-21)
(-4.75184 0.712863 6.0203e-21)
(-4.95618 0.576623 0)
(-5.12193 0.45724 0)
(-5.25848 0.371565 -5.81893e-21)
(-5.38061 0.33618 0)
(-5.50376 0.362869 0)
(-5.64104 0.455021 5.51848e-21)
(-5.8037 0.604276 0)
(-5.9919 0.786115 -5.27557e-21)
(-6.18627 0.956971 1.11693e-20)
(-6.34795 1.05244 0)
(-6.4313 0.998392 0)
(-6.4124 0.743761 2.3086e-20)
(-6.3014 0.312872 2.35669e-20)
(-6.11761 -0.171343 2.41129e-20)
(-5.87868 -0.55076 -1.22204e-20)
(-5.58572 -0.734325 1.287e-20)
(-5.23772 -0.765679 3.94285e-20)
(-4.8772 -0.751015 -2.69704e-20)
(-4.53567 -0.753879 -1.40012e-20)
(-4.18838 -0.777635 0)
(-3.7866 -0.809266 1.47879e-20)
(-3.33528 -0.843735 -1.49326e-20)
(-2.89782 -0.886737 0)
(-2.4668 -0.943708 0)
(-1.9858 -0.987482 0)
(-1.5336 -0.99017 1.63389e-20)
(-1.02158 -1.01105 0)
(-0.539915 -1.02225 -3.31075e-20)
(-0.00102675 -1.05595 0)
(0.556456 -1.0783 -3.32837e-20)
(1.1326 -1.0545 0)
(1.70125 -0.980623 3.28564e-20)
(2.23632 -0.883951 0)
(2.73118 -0.784121 -3.2049e-20)
(3.18701 -0.700041 1.56856e-20)
(3.60818 -0.637233 0)
(4.00738 -0.569993 3.03818e-20)
(4.3805 -0.497331 1.49481e-20)
(4.69592 -0.425552 1.46231e-20)
(4.99627 -0.268728 0)
(5.19145 -0.039169 1.36059e-20)
(5.1384 0.188474 1.38189e-20)
(5.03347 0.486361 0)
(4.8618 0.640954 -1.35299e-20)
(4.28313 0.572444 2.67383e-20)
(3.70409 0.642354 0)
(3.48211 0.794459 1.35097e-20)
(3.02701 0.817978 0)
(2.73248 0.115864 -4.03233e-20)
(2.84483 -0.757561 0)
(2.59192 -0.639383 4.01736e-20)
(1.47774 0.397129 1.32435e-20)
(-0.207014 1.54476 -1.28245e-20)
(-1.86994 2.23135 -2.46592e-20)
(-3.17159 2.18966 2.34463e-20)
(-4.0361 1.77142 0)
(-4.70483 1.4066 0)
(-5.25327 1.1332 0)
(-5.72637 0.942831 -5.61741e-20)
(-6.16744 0.825173 -1.73493e-20)
(-6.59147 0.756157 1.56751e-20)
(-7.01186 0.719188 0)
(-7.43162 0.699345 1.19745e-20)
(-7.85351 0.685982 -1.0665e-20)
(-8.27509 0.672116 -8.99293e-21)
(-8.69213 0.652695 0)
(-9.09779 0.623816 0)
(-9.48417 0.582516 0)
(-9.84173 0.526926 -2.71731e-21)
(-10.1601 0.456049 0)
(-10.4284 0.369585 -6.2472e-23)
(-10.6357 0.268464 -2.28406e-21)
(-10.7708 0.154443 2.90081e-21)
(-10.8251 0.0295288 0)
(-10.7916 -0.10075 1.93478e-21)
(-10.6521 -0.235897 0)
(-10.4059 -0.372097 2.3747e-23)
(-10.0511 -0.504945 8.40324e-22)
(-9.58976 -0.630042 2.44741e-21)
(-9.02829 -0.743032 0)
(-8.3763 -0.839862 2.03184e-20)
(-7.6469 -0.917144 -1.74426e-20)
(-6.85598 -0.972481 -1.10257e-20)
(-6.02141 -1.00463 0)
(-5.16188 -1.01359 -1.47054e-20)
(-4.29578 -1.00064 -4.85325e-20)
(-3.44103 -0.968107 0)
(-2.61482 -0.919093 -3.71996e-20)
(-1.83193 -0.858132 -3.89089e-20)
(-1.10357 -0.789012 -4.01427e-20)
(-0.436604 -0.713609 0)
(0.160847 -0.643043 0)
(0.693414 -0.57318 0)
(1.17074 -0.505079 2.06145e-20)
(1.59389 -0.440899 2.04442e-20)
(1.96554 -0.381199 0)
(2.28806 -0.326226 3.97376e-20)
(2.56402 -0.276161 3.90266e-20)
(2.7969 -0.231327 0)
(2.99122 -0.192245 3.7452e-20)
(3.15243 -0.159386 7.32198e-20)
(3.28677 -0.133035 -3.57866e-20)
(3.40097 -0.113075 -3.4919e-20)
(3.50134 -0.0985379 0)
(3.5932 -0.0873036 0)
(3.68012 -0.0765054 0)
(3.75898 -0.0627249 -3.19253e-20)
(3.82885 -0.0411991 3.12022e-20)
(3.90006 -0.00814891 6.11787e-20)
(3.96972 0.0370168 -2.99973e-20)
(4.02411 0.0892382 2.93358e-20)
(4.04495 0.136021 2.8783e-20)
(4.0197 0.164773 0)
(3.94697 0.173136 0)
(3.83369 0.169826 -2.69892e-20)
(3.68587 0.16792 0)
(3.5051 0.171678 0)
(3.30052 0.170785 5.0587e-20)
(3.09641 0.154342 0)
(2.92312 0.121603 2.42156e-20)
(2.80818 0.0797089 -2.39527e-20)
(2.76539 0.0409954 0)
(2.78672 0.0145866 2.35762e-20)
(2.85328 0.00420494 0)
(2.92776 0.00886153 0)
(2.94992 0.019304 -2.3476e-20)
(2.91201 0.0291346 4.68165e-20)
(2.86853 0.0436116 -2.32687e-20)
(2.85387 0.0557617 0)
(2.85566 0.0562749 0)
(2.84261 0.036147 2.2634e-20)
(2.7936 -0.00515246 0)
(2.7266 -0.0504491 2.22117e-20)
(2.67588 -0.0739165 0)
(2.66846 -0.0648697 0)
(2.6669 -0.050425 0)
(2.62298 -0.047288 2.12903e-20)
(2.55771 -0.0305525 0)
(2.53087 -0.0160954 -2.0754e-20)
(2.56525 -0.0434741 0)
(2.69349 -0.080835 0)
(2.88008 -0.180407 4.02263e-20)
(3.10008 -0.136105 -4.00755e-20)
(3.22734 0.0865914 0)
(3.15294 0.0100788 0)
(2.43286 0.237929 0)
(0.304963 1.06957 1.15963e-19)
(-2.31712 1.40291 0)
(-3.8548 1.09212 -5.61754e-20)
(0.134161 -0.688071 6.34171e-23)
(0.567254 -1.18065 -3.56753e-20)
(1.05737 -1.27555 0)
(1.45978 -1.23145 3.45375e-20)
(1.74581 -1.09501 0)
(1.92496 -0.89036 0)
(1.99534 -0.646864 -4.20539e-22)
(1.9772 -0.328163 -1.65128e-20)
(1.89441 0.051945 -1.59658e-20)
(1.76174 0.366873 -1.62269e-20)
(1.59681 0.636776 0)
(1.36816 0.841119 0)
(1.13198 0.883529 1.58225e-20)
(0.983182 0.85092 3.16366e-20)
(0.900731 0.710314 -3.16246e-20)
(0.800133 0.395558 0)
(0.543217 0.19936 -3.15113e-20)
(0.109333 0.336205 1.56575e-20)
(-0.586278 0.736172 0)
(-1.42657 1.18714 -3.06167e-20)
(-2.21934 1.52826 -1.51313e-20)
(-2.93004 1.74304 2.94462e-20)
(-3.55879 1.86952 1.46421e-20)
(-4.12354 1.92949 0)
(-4.62999 1.93869 -2.74921e-20)
(-5.08469 1.90046 -2.68151e-20)
(-5.49654 1.81239 0)
(-5.86674 1.67596 -2.54389e-20)
(-6.19384 1.4991 0)
(-6.47362 1.29433 -2.40403e-20)
(-6.70592 1.07954 -1.22689e-20)
(-6.89323 0.875899 0)
(-7.04014 0.704594 0)
(-7.15153 0.583927 0)
(-7.23109 0.527463 0)
(-7.27878 0.540695 0)
(-7.29058 0.615679 0)
(-7.26014 0.727877 -2.06548e-20)
(-7.18012 0.83732 3.15793e-20)
(-7.04368 0.893483 0)
(-6.84598 0.847049 0)
(-6.59456 0.66441 0)
(-6.31736 0.349943 -5.94537e-22)
(-6.0572 -0.0308727 -2.35792e-20)
(-5.85732 -0.362469 -4.77088e-20)
(-5.72184 -0.573586 4.89646e-20)
(-5.59561 -0.697557 2.49011e-20)
(-5.41505 -0.81178 -2.6172e-20)
(-5.15252 -0.958203 4.95334e-22)
(-4.82179 -1.11742 -2.72587e-20)
(-4.45715 -1.24954 0)
(-4.07381 -1.33997 -2.88614e-20)
(-3.66194 -1.40839 4.23181e-22)
(-3.2312 -1.48234 0)
(-2.81774 -1.55743 0)
(-2.41253 -1.60573 3.14825e-20)
(-1.96996 -1.61779 0)
(-1.54543 -1.65371 0)
(-1.0772 -1.69922 -3.22079e-20)
(-0.605063 -1.77337 -6.56094e-20)
(-0.101932 -1.85502 3.3268e-20)
(0.440003 -1.84965 0)
(0.990658 -1.74512 -3.28674e-20)
(1.51131 -1.60265 0)
(1.99653 -1.45869 -3.15039e-20)
(2.45783 -1.33435 -3.1569e-20)
(2.91048 -1.24031 6.15596e-20)
(3.37005 -1.15614 2.99169e-20)
(3.85755 -1.03882 0)
(4.35224 -0.887973 -5.72619e-20)
(4.8082 -0.676662 0)
(5.18465 -0.297851 -8.1674e-20)
(5.40288 0.164491 -5.28556e-20)
(5.54326 0.498432 -5.20502e-20)
(5.56023 0.803488 5.17773e-20)
(5.0798 1.14055 -7.8771e-20)
(4.51941 1.23096 0)
(3.98554 1.35294 0)
(3.4074 1.10864 5.3951e-20)
(3.37272 -0.0290067 8.13739e-20)
(2.64137 -0.167408 0)
(0.883149 1.15133 -2.68666e-20)
(-0.932963 2.47414 0)
(-2.44644 3.24487 7.61444e-20)
(-3.44271 3.358 1.91669e-21)
(-3.94902 2.92172 -2.32782e-21)
(-4.2513 2.34863 -4.3886e-20)
(-4.53181 1.88414 0)
(-4.81691 1.54532 3.8809e-20)
(-5.14279 1.33139 1.0598e-21)
(-5.51595 1.21394 0)
(-5.92718 1.15709 0)
(-6.37165 1.13464 0)
(-6.83771 1.12629 -2.43173e-20)
(-7.31741 1.11934 0)
(-7.8011 1.10535 0)
(-8.28145 1.07768 0)
(-8.7493 1.03153 0)
(-9.19487 0.963591 0)
(-9.60704 0.871656 -3.90335e-21)
(-9.97448 0.754512 0)
(-10.2852 0.611978 6.24624e-23)
(-10.5274 0.445075 1.78937e-21)
(-10.69 0.256089 -2.90075e-21)
(-10.7602 0.0479914 0)
(-10.7319 -0.175689 -2.97883e-21)
(-10.6005 -0.40645 0)
(-10.3588 -0.638298 -2.37386e-23)
(-10.0064 -0.864135 -2.53428e-21)
(-9.54553 -1.07701 -1.43856e-20)
(-8.98206 -1.26969 0)
(-8.32539 -1.43538 -3.76474e-20)
(-7.5884 -1.56824 -1.54105e-20)
(-6.78669 -1.66393 0)
(-5.93772 -1.71979 -4.94267e-20)
(-5.05967 -1.73495 -5.69063e-20)
(-4.1703 -1.71082 9.57751e-20)
(-3.28636 -1.65098 0)
(-2.42414 -1.56079 3.71698e-20)
(-1.5994 -1.44794 3.88824e-20)
(-0.827042 -1.32021 1.20094e-19)
(-0.125321 -1.18638 0)
(0.495441 -1.06194 0)
(1.04014 -0.941005 0)
(1.51518 -0.828167 4.11316e-20)
(1.92881 -0.722596 0)
(2.28973 -0.623271 0)
(2.60362 -0.530144 -3.97092e-20)
(2.87315 -0.4442 -3.90012e-20)
(3.09986 -0.366972 0)
(3.28628 -0.299973 0)
(3.4371 -0.244334 -7.31844e-20)
(3.55886 -0.200546 0)
(3.65905 -0.168156 6.98508e-20)
(3.74504 -0.145546 6.81504e-20)
(3.82302 -0.130005 0)
(3.89751 -0.116765 0)
(3.9715 -0.0998848 -6.36861e-20)
(4.04463 -0.0760111 -8.69214e-23)
(4.11374 -0.0428318 -8.16418e-23)
(4.17799 0.00396521 0)
(4.23685 0.063284 -1.17356e-19)
(4.28239 0.124447 0)
(4.29627 0.173995 0)
(4.25975 0.206721 0)
(4.16571 0.22891 5.39739e-20)
(4.01794 0.250892 0)
(3.8237 0.274905 -1.03322e-19)
(3.59413 0.284018 -5.056e-20)
(3.35341 0.255305 0)
(3.14834 0.185809 -4.84994e-20)
(3.03568 0.093179 0)
(3.04099 0.00693642 0)
(3.13936 -0.0473375 -1.41372e-19)
(3.28068 -0.0646034 9.41406e-20)
(3.42353 -0.0544505 0)
(3.54068 -0.0215282 9.39315e-20)
(3.60766 0.0252754 -4.67864e-20)
(3.63146 0.0671713 0)
(3.63459 0.0827535 0)
(3.60923 0.0580229 0)
(3.57022 0.0118417 -1.35715e-19)
(3.55822 -0.0148285 0)
(3.52941 -0.0192044 -4.43703e-20)
(3.40155 -0.0336444 0)
(3.25012 -0.0624671 0)
(3.2091 -0.0623938 0)
(3.21718 -0.0112891 0)
(3.12434 0.0490732 0)
(2.97504 0.0401691 0)
(2.90158 -0.0707307 -8.18744e-20)
(2.98768 -0.165534 0)
(3.11828 -0.276689 -4.02127e-20)
(3.24644 -0.269606 1.19881e-19)
(3.5007 0.0678001 0)
(3.38081 0.385052 0)
(1.88226 1.13608 -8.00775e-20)
(-0.823951 2.1804 -7.70643e-20)
(-2.74659 2.22879 6.56004e-20)
(-3.8954 1.70648 5.61055e-20)
(0.290726 -1.73822 5.34192e-20)
(0.832188 -2.54462 5.25539e-20)
(1.24908 -2.47144 3.40768e-20)
(1.55299 -2.13629 1.61994e-20)
(1.76353 -1.70597 0)
(1.87575 -1.22849 -3.19462e-20)
(1.88799 -0.709592 1.51276e-20)
(1.83537 -0.171072 0)
(1.71587 0.312879 1.59446e-20)
(1.54313 0.695018 0)
(1.38663 1.03233 -3.07919e-20)
(1.21538 1.21564 0)
(0.985494 1.12957 -1.58208e-20)
(0.728886 1.00314 -3.16451e-20)
(0.352573 1.00433 3.16543e-20)
(-0.256894 1.22738 0)
(-1.05301 1.63979 3.14102e-20)
(-1.90153 2.05331 0)
(-2.71019 2.3772 0)
(-3.42786 2.59167 3.03924e-20)
(-4.06396 2.71546 0)
(-4.63461 2.77947 -9.35238e-22)
(-5.15032 2.79796 0)
(-5.62216 2.77508 0)
(-6.0546 2.71049 1.30188e-21)
(-6.44859 2.59786 2.66959e-20)
(-6.80105 2.43177 2.44832e-20)
(-7.10776 2.21329 2.53412e-20)
(-7.36621 1.95234 0)
(-7.57727 1.66538 4.62052e-20)
(-7.7456 1.37321 0)
(-7.87709 1.09746 2.09881e-20)
(-7.97751 0.857646 0)
(-8.0505 0.668149 0)
(-8.09618 0.536805 -1.97409e-20)
(-8.11103 0.464477 0)
(-8.08749 0.443031 1.94762e-20)
(-8.01584 0.453262 1.07791e-21)
(-7.89084 0.46409 -4.05277e-20)
(-7.71549 0.436709 4.00994e-20)
(-7.50321 0.335784 0)
(-7.27819 0.145272 0)
(-7.07203 -0.120097 2.03894e-20)
(-6.90267 -0.419593 0)
(-6.75506 -0.713938 2.35372e-20)
(-6.58931 -0.979102 -2.41574e-20)
(-6.36442 -1.21116 -2.48452e-20)
(-6.06993 -1.41528 0)
(-5.72122 -1.59076 2.63861e-20)
(-5.34123 -1.7369 2.72029e-20)
(-4.94201 -1.85652 -5.46211e-20)
(-4.52216 -1.95288 2.88055e-20)
(-4.08403 -2.02981 2.9558e-20)
(-3.64385 -2.09032 0)
(-3.21572 -2.13309 0)
(-2.7945 -2.16424 -3.14283e-20)
(-2.37158 -2.19929 0)
(-1.94743 -2.23687 0)
(-1.53511 -2.30314 6.51267e-20)
(-1.12415 -2.39814 6.5479e-20)
(-0.728345 -2.49252 0)
(-0.310918 -2.48622 0)
(0.143585 -2.3227 0)
(0.593616 -2.10092 0)
(1.02141 -1.91707 6.36359e-20)
(1.44381 -1.80226 -6.21421e-20)
(1.88975 -1.74318 -6.16252e-20)
(2.37143 -1.70812 -1.20098e-19)
(2.89731 -1.65352 0)
(3.45249 -1.5035 9.63579e-22)
(3.98354 -1.1613 0)
(4.43778 -0.656203 5.40851e-20)
(4.78185 -0.163228 1.71033e-21)
(4.9883 0.409853 5.21059e-20)
(4.9404 1.2286 -5.17974e-20)
(4.75343 1.72521 1.66466e-21)
(4.52384 1.76087 0)
(3.85316 1.97691 -5.2474e-20)
(3.41684 1.5195 -5.39296e-20)
(2.78409 0.953349 -1.08655e-19)
(0.997909 1.80026 0)
(-0.940325 3.17375 5.25951e-20)
(-2.35975 3.99758 0)
(-3.24911 4.2021 -9.86759e-20)
(-3.61433 3.81508 4.83391e-20)
(-3.70052 3.15058 -4.62342e-20)
(-3.77364 2.55047 4.39042e-20)
(-3.90901 2.11629 7.98795e-20)
(-4.14551 1.8395 -3.88313e-20)
(-4.49797 1.70081 3.60993e-20)
(-4.94256 1.64776 0)
(-5.44008 1.63423 -5.89499e-20)
(-5.96301 1.63228 0)
(-6.4914 1.62822 -4.62163e-20)
(-7.01499 1.61409 3.94549e-20)
(-7.52692 1.58384 3.25159e-20)