/*--------------------------------*- C++ -*----------------------------------*\
| =========                 |                                                 |
| \\      /  F ield         | OpenFOAM: The Open Source CFD Toolbox           |
|  \\    /   O peration     | Version:  2112                                  |
|   \\  /    A nd           | Website:  www.openfoam.com                      |
|    \\/     M anipulation  |                                                 |
\*---------------------------------------------------------------------------*/
FoamFile
{
    version     2.0;
    format      ascii;
    arch        "LSB;label=32;scalar=64";
    class       volScalarField;
    location    "0.28";
    object      k;
}
// * * * * * * * * * * * * * * * * * * * * * * * * * * * * * * * * * * * * * //

dimensions      [0 2 -2 0 0 0 0];

internalField   nonuniform List<scalar> 
122250
(
572.459
258.87
178.375
150.718
144.913
125.799
78.7724
46.6477
30.0205
25.6307
25.3853
28.9123
57.3406
94.9507
107.265
107.622
100.491
100.042
626.153
182.268
145.192
126.584
140.864
132.963
90.1324
50.6061
29.1295
24.0848
22.3556
22.9957
33.3521
60.7998
77.1924
81.8727
81.5667
73.4635
577.049
189.537
197.147
120.333
117.165
110.238
68.4324
37.9035
31.692
31.3501
31.7796
32.0147
35.1619
41.3955
53.8905
62.1825
62.9188
53.5256
545.207
208.605
222.988
104.696
93.8046
74.3324
45.7584
28.2052
25.3597
28.7633
36.0146
36.8918
37.0461
39.1828
48.1854
54.2997
47.8527
29.5697
520.371
230.867
244.24
118.048
95.1653
74.6171
51.3884
31.1624
25.9551
28.4775
37.3219
40.277
39.6682
40.3604
46.7451
49.6289
38.9033
26.8748
500.39
286.38
257.93
140.721
106.034
71.9333
54.6745
38.6529
30.6552
32.0227
42.1437
49.5488
47.1188
44.0029
46.2062
46.1151
36.6895
31.0737
490.008
334.9
262.807
138.301
114.19
68.8936
49.3226
37.926
34.2906
37.3265
48.2368
53.8704
50.9498
46.6303
46.3244
44.2601
38.1942
32.1028
488.031
362.673
256.417
108.59
95.1653
62.3369
42.902
41.1016
41.6958
44.8628
52.6898
54.7478
52.7677
48.5899
45.2168
42.5313
37.223
24.6606
492.12
372.386
275.264
96.7779
92.5474
60.979
49.6754
52.4927
52.4936
49.3756
50.6977
52.0692
52.029
49.9103
43.224
41.2966
29.6035
17.6701
497.919
375.614
255.987
91.2202
85.1954
60.7281
59.5213
63.9381
62.1741
50.658
48.6993
49.5334
53.482
52.2271
44.3039
36.5833
23.2929
16.4714
497.348
395.67
241.22
90.2426
113.376
74.3609
67.9175
74.0704
67.9526
50.5357
45.1813
48.8887
55.3488
53.8773
44.1252
31.6898
21.5558
14.0241
490.601
423.615
263.004
86.7026
124.086
104.913
76.7997
70.413
61.1034
41.7155
32.205
36.1417
51.1889
51.3368
42.2194
28.0061
18.8579
11.2979
479.384
413.875
234.526
77.6998
72.1412
129.241
92.5139
61.8303
43.4115
29.4426
23.7809
25.6566
37.614
41.2022
36.6179
23.0406
14.6497
9.66065
471.933
385.248
208.931
75.2656
51.8967
112.759
86.252
56.9065
39.2259
27.6019
20.5071
19.3355
22.7354
24.4338
19.7036
12.0761
9.9394
9.02252
472.883
356.542
204.351
78.9132
41.9184
28.2828
29.4564
22.2705
14.2552
9.71669
8.646
8.9774
9.44212
9.67382
8.89147
9.33166
10.2291
9.69784
480.663
343.156
200.303
80.4832
41.8949
15.3486
8.16537
6.09548
6.87108
6.22729
6.34459
7.82769
10.7039
11.967
12.2672
11.565
9.52498
9.01629
490.188
338.605
203.224
86.7403
45.5945
20.5932
9.82821
5.67062
7.29862
6.46271
6.01786
8.6448
13.9515
10.0049
8.13346
9.48692
13.0748
17.6914
493.518
328.375
214.957
108.375
53.7351
21.9455
9.99286
5.66818
9.49154
10.3082
7.12491
6.42171
11.6227
12.4506
12.685
13.8416
14.3477
17.0948
480.819
307.582
220.938
128.338
58.0102
22.23
10.4526
5.4428
10.0398
13.6505
7.5526
6.06357
10.3138
12.7086
12.1605
13.5225
15.2868
15.0319
436.87
299.784
226.45
94.8652
42.0996
18.5061
10.7095
4.09153
7.32566
13.5871
10.9235
7.19961
8.51818
9.87575
9.41538
8.99377
7.61572
5.20157
404.049
292.136
222.771
76.2458
32.2769
17.6348
10.336
3.65948
4.46032
8.4537
9.5246
7.85767
6.97156
4.85183
3.5183
3.81584
4.50941
4.04577
385.521
291.191
211.057
67.2063
28.846
15.9514
9.60627
3.59618
3.20354
3.59674
3.84629
3.2926
2.45101
2.10229
1.94242
2.02442
2.07181
1.68038
377.365
290.543
205.717
63.3585
27.9199
14.746
7.42399
2.9854
2.53821
2.29885
2.08948
1.84553
1.5859
1.47169
1.37992
1.30917
1.20718
1.1102
380.968
285.355
211.787
62.0034
26.4361
11.5128
5.15424
3.23249
3.31276
2.66362
2.54786
2.62179
2.74945
2.61902
2.2043
1.89325
1.41677
1.19816
391.737
286.076
221.241
63.5171
24.1114
8.65665
4.88518
4.18917
5.15073
4.8923
4.73787
5.37934
7.17423
7.75141
7.33102
4.61831
2.66781
2.19981
399.528
301.543
237.326
68.0835
20.2974
8.92771
4.58125
4.50251
5.27261
5.75758
6.26718
7.36312
9.04435
9.84775
8.9786
8.31084
6.99309
5.11269
412.146
305.828
260.453
98.9818
21.6533
7.53084
4.00664
4.41005
5.04462
5.63522
5.83655
6.75417
9.01432
10.7633
9.57489
6.95343
6.72691
6.78922
432.938
238.05
259.129
164.527
32.3919
8.02686
6.76393
4.93973
5.5165
7.52927
8.04406
7.31139
7.62095
9.33615
10.6463
8.21465
4.91293
4.99281
452.916
131.479
222.098
190.46
46.6811
11.643
8.37047
6.66242
7.34213
12.0759
16.8513
15.0015
13.3246
12.4196
15.0689
15.6272
12.1716
6.99893
464.027
174.641
200.166
157.483
43.7378
73.6696
58.3348
30.1519
24.1456
26.499
44.4293
82.4962
81.5506
63.5694
63.5563
75.3401
76.5855
69.1069
582.761
208.563
157.649
118.833
132.307
118.972
88.7746
70.0803
57.9991
56.0063
58.3092
68.539
87.6143
99.3658
100.053
90.0663
71.3007
73.78
551.824
182.756
122.964
80.7546
101.033
109.978
91.163
62.6932
41.3216
36.1063
35.9547
38.7994
46.6386
53.4348
64.0575
66.9522
61.491
62.038
522.849
205.851
174.334
72.7378
85.3864
95.497
82.2412
44.8595
37.43
37.2164
39.6407
41.7178
40.0574
37.3473
44.7111
51.7624
47.8963
43.3858
493.212
267.52
198.475
72.5055
83.554
82.7795
77.0344
41.8013
28.5138
29.2194
32.5655
32.5563
31.698
36.0259
47.7279
51.7769
44.5992
35.7848
474.339
317.005
215.728
72.2764
82.7965
89.6651
83.1097
53.5484
29.543
26.4894
28.1027
32.0841
38.773
49.4601
56.6966
58.4312
52.3328
37.4571
461.872
355.547
229.434
80.3983
82.3807
89.7678
87.4057
58.9571
32.7261
27.4254
30.3223
46.3483
59.0738
65.7837
68.8509
69.1353
60.9637
43.1653
454.169
378.869
239.635
84.6169
88.5122
73.2244
53.653
44.3137
32.2621
31.2763
36.1216
59.8611
72.6917
74.8653
74.2956
72.4215
59.1361
41.0428
451.421
383.846
249.015
80.7157
88.1092
54.9197
36.3816
33.9005
36.3289
42.4562
57.5235
78.2742
84.866
83.2909
76.5872
71.7432
45.9613
30.131
452.971
384.682
250.682
73.9809
86.9236
46.4067
35.9104
41.0577
50.6417
60.8198
73.6675
84.6184
85.5346
81.5496
75.9006
63.491
32.0319
20.3444
457.218
386.818
245.011
68.211
94.041
52.8297
56.6121
63.2315
59.3965
55.7068
57.688
70.5469
78.9689
75.3196
72.8919
50.8887
24.1092
17.0753
459.559
386.07
228.124
65.6622
94.8894
84.6942
79.654
70.641
52.6465
39.5947
37.4137
41.6951
55.4781
60.9751
59.6046
39.1355
22.3394
17.7655
458.597
384.853
215.332
63.7959
61.1837
116.568
100.28
65.843
46.2649
33.4886
29.0037
31.3394
40.2229
45.4694
44.0973
30.2112
21.2375
16.5813
459.748
379.943
207.559
63.8676
41.9907
78.5429
89.6714
76.296
51.2554
36.636
28.7822
29.1219
34.396
38.0468
34.915
22.0443
17.8154
13.6816
463.517
364.385
203.412
72.699
40.4054
37.0237
55.752
49.8387
37.8686
28.1598
21.314
20.9339
23.8231
22.8015
14.0956
11.4125
12.2045
11.584
470.995
348.308
201.197
80.1386
40.6718
18.0108
16.7905
14.2438
11.8893
9.24231
8.97254
8.8443
8.86866
8.60484
8.19714
9.11205
11.5559
11.5462
481.746
341.108
200.475
83.6958
43.9873
16.6721
8.8279
6.15981
6.84044
6.66844
6.84867
7.83955
9.92592
12.0173
11.4386
11.6607
11.0482
11.0039
491.709
334.529
206.586
92.8533
49.0568
21.545
10.8609
6.05339
7.10628
6.58079
6.29283
8.00273
14.0485
16.6285
13.1671
12.1965
11.9294
13.2925
495.649
321.61
218.677
121.441
59.052
22.4553
10.6133
6.10948
8.41499
9.72167
6.26955
5.10412
9.51295
12.4907
10.6854
10.0524
10.5939
12.6753
483.855
302.282
219.036
155.359
67.6416
23.3349
10.8048
5.96654
8.8588
12.897
6.4219
4.18932
7.68497
13.4023
14.6441
15.6485
16.4224
14.771
441.396
294.479
225.774
112.434
51.6855
19.7326
10.6261
5.31377
8.39065
10.2066
5.82504
5.20838
7.93871
9.84289
10.0573
9.6951
7.1738
5.13833
407.232
287.77
219.934
86.0067
38.3004
17.6745
10.0568
4.57872
6.04002
10.1494
8.68492
6.98829
6.79567
5.86168
4.06244
4.00219
4.22497
2.91089
385.748
285.269
205.727
73.4423
32.8837
16.2576
8.96828
4.15668
3.65536
4.4166
4.62472
3.68255
2.51848
2.0661
1.79849
1.74303
1.79364
1.59041
374.946
284.023
201.836
69.0651
31.8596
14.2067
6.42344
3.94531
3.67516
3.43365
3.0041
2.53777
2.22198
1.60024
1.42663
1.31602
1.21007
1.15229
376.102
267.231
205.715
69.1535
30.5082
10.9167
5.71678
4.51338
5.88666
4.69974
4.38419
5.6308
6.10226
5.7987
4.04867
2.44587
1.74815
1.56352
387.563
220.767
207.743
73.4675
27.8818
10.3202
5.83483
4.8572
5.76096
6.23001
6.7115
7.62651
9.88532
11.1551
11.2731
10.6761
4.98326
2.59331
396.515
180.344
203.484
68.9562
29.5423
8.17101
4.70543
4.92877
4.92305
5.46772
6.51356
7.597
9.80948
11.8346
11.3886
10.2751
10.4895
9.29936
399.599
157.814
203.419
59.0755
25.8807
8.07329
4.96218
4.67199
4.54718
5.51165
6.70788
7.5959
9.65179
12.1852
12.8984
10.2028
8.9101
10.3032
395.75
125.183
210.168
66.4761
15.6738
8.40116
6.96632
5.08548
5.23552
7.94181
8.70199
8.82097
9.60792
9.73734
10.0978
9.67654
7.67314
8.72867
368.158
117.896
178.265
55.9024
17.3567
10.7199
10.0691
7.25839
7.83437
13.1991
17.3027
17.2721
12.2907
11.2511
12.4928
13.0355
13.0648
12.044
477.457
128.163
144.615
83.714
60.2427
69.5917
53.07
31.1029
27.0502
31.035
60.0788
89.0953
76.9695
54.6398
55.3053
57.398
55.5279
43.9089
598.141
294.232
164.992
123.529
128.474
110.942
101.976
96.3411
82.6861
78.0916
80.5498
91.6886
96.661
92.0653
78.5937
73.6906
65.3861
61.889
628.42
294.891
157.776
86.3713
127.315
111.523
64.0267
60.3728
55.6126
60.3423
68.9607
73.146
69.067
52.2117
40.5174
37.4028
37.8825
38.7856
550.555
358.057
201.31
76.7449
116.516
116.706
74.1991
33.172
27.5498
30.7311
38.3648
40.4913
37.9669
33.0021
32.7987
35.1678
34.7836
30.8136
494.354
406.287
220.972
74.1383
106.943
111.708
96.8571
40.6933
23.6113
20.2463
21.1492
23.7762
22.7625
24.1458
37.4695
41.3964
35.5364
32.353
467.68
404.256
225.514
70.0748
86.785
131.142
123.65
72.4932
32.5772
24.2007
24.1925
26.9405
30.1694
42.4682
54.4907
53.3417
39.566
31.9333
451.92
390.993
225.043
68.657
57.2152
123.788
121.073
72.4245
31.1991
26.6497
29.0543
40.8179
55.0571
65.9343
70.3536
65.4532
46.6971
37.8176
441.634
377.317
223.786
69.8117
44.3659
59.5983
70.5515
54.3091
27.1731
25.891
30.41
47.1617
70.2027
80.1852
80.7692
70.5227
48.9895
38.8846
435.968
364.33
223.636
68.7103
40.247
33.7582
38.0307
32.8424
24.5608
29.5051
37.9707
58.197
78.6161
87.0379
84.8049
63.0414
36.3759
29.8873
434.766
360.168
224.095
67.9667
36.9865
25.6545
29.6261
31.5858
38.6222
47.8256
52.9493
67.5595
84.6545
88.3168
82.3802
51.0534
28.1912
22.6564
437.113
360.708
223.15
65.5221
35.8691
28.8559
47.5373
57.9884
52.2144
51.5178
52.6541
57.103
72.2781
77.7241
71.2369
41.4755
24.2813
18.6325
441.154
353.518
216.775
62.3785
36.5727
41.8026
69.6029
66.3731
51.858
38.7347
36.4226
38.4139
48.804
55.5089
51.3969
31.2246
21.4376
17.468
444.043
350.138
208.682
61.9194
31.9263
42.8813
75.5696
66.5061
47.4569
34.5313
31.0147
32.2396
38.832
41.8337
35.1744
22.6897
18.927
17.152
449.865
345.315
203.702
67.0299
31.4328
20.8209
47.6584
62.7596
48.3863
33.868
26.5545
26.7457
32.2561
30.5077
18.3411
15.8328
16.9679
16.0965
458.962
340.166
199.716
74.7823
37.9908
16.678
18.9
24.1
21.9599
17.5476
14.962
14.5965
13.9751
9.7907
8.98334
11.404
14.3165
13.9045
470.678
332.37
197.202
81.732
42.0916
15.1409
10.1263
8.34746
8.61161
7.81167
8.16564
8.33336
8.04051
7.91753
8.45023
10.3122
12.8601
12.9805
483.539
326.049
199.33
88.8079
47.3655
19.9486
9.59875
6.3028
7.14871
6.72201
6.85437
7.78084
9.06064
12.2496
13.0787
12.3446
12.6029
13.2495
494.79
321.355
208.384
103.974
53.5112
21.7982
10.8819
6.26373
7.11739
6.60951
5.63022
6.01103
11.0123
17.4502
15.1594
12.574
12.391
14.0653
499.88
311.364
214.912
148.159
67.7227
22.7503
10.617
6.49039
7.70754
9.14741
5.12618
3.95136
5.61657
8.17781
8.6902
8.64214
8.95925
9.87515
487.752
296.201
215.349
173.767
79.8251
24.6217
11.2944
6.61225
7.82289
10.6786
5.0056
3.27867
4.26859
6.81753
10.0194
11.8051
12.3857
12.4175
446.27
290.239
219.515
152.046
67.9521
22.9489
11.2169
5.77178
6.37989
5.0622
3.28279
3.68606
6.74811
8.67293
8.952
8.28904
6.48894
6.10336
411.333
282.725
217.645
106.154
49.2189
19.3505
10.1618
5.35067
4.83054
4.70797
3.63075
3.88551
5.06781
5.20159
4.1222
3.68809
3.3971
2.95539
386.371
281.441
205.15
86.1895
38.8999
17.1814
8.59469
5.00803
4.19662
4.01437
3.55583
3.02984
2.49986
1.85893
1.55246
1.46242
1.53733
1.69546
372.546
279.974
202.679
79.2712
35.9753
15.2229
7.28859
4.74933
5.87882
5.12851
5.17546
5.84162
5.63032
3.01684
1.62156
1.26314
1.22107
1.55089
372.803
263.512
207.428
81.3391
33.5849
13.4297
6.11764
4.86153
5.17334
5.09646
5.61456
8.93504
9.43025
9.56072
7.9233
4.2462
2.27787
1.71905
388.956
215.491
205.623
87.142
36.9318
10.1602
6.31201
5.95444
5.96827
5.47441
5.58753
7.25014
10.3687
12.7328
13.8236
13.8513
12.167
4.70365
403.224
169.19
199.57
77.2585
34.2106
9.03235
5.74618
9.06277
8.05746
7.07729
8.5517
10.6838
11.881
15.1368
17.8661
17.3428
14.5467
13.4675
395.132
155.99
184.289
49.7156
26.7888
7.66885
7.68709
9.86214
9.93708
12.0138
15.0636
14.713
13.5665
15.0384
18.4932
18.0743
14.2579
13.256
366.975
119.27
151.177
25.6587
21.2686
8.41693
7.99857
11.8109
15.6251
22.1422
22.3531
20.2574
17.5365
17.7388
17.5603
14.9515
13.0323
14.6006
343.045
96.118
86.2284
32.5978
27.1383
11.5038
12.5453
18.7658
21.4272
27.5283
32.1388
28.9981
18.7166
17.8958
16.3267
13.9945
16.5247
23.4661
431.844
114.311
101.137
75.848
81.3185
79.7
72.3532
60.2126
56.9394
66.4664
106.978
114.339
84.3954
53.3358
52.3179
54.4087
49.5711
33.4936
587.884
199.363
149.856
123.826
126.981
114.288
95.6524
67.5028
41.9193
33.4993
32.9855
39.5913
66.0056
77.76
76.9474
65.3702
59.4136
60.7728
541.395
190.208
182.572
156.677
167.361
136.234
53.1144
48.4323
39.2831
33.1593
31.5501
34.3339
50.2265
52.9313
43.1836
29.5326
25.7789
27.9536
534.81
196.378
185.846
87.6186
146.349
123.398
71.0488
50.8442
35.5619
31.6533
32.3583
37.7509
40.5008
32.6583
24.1097
21.0913
20.6724
21.3656
503.204
218.386
190.071
84.6874
146.491
129.413
103.199
79.0501
36.9295
25.7026
26.7873
28.4926
24.5206
20.2803
20.2543
24.0273
25.6844
25.4448
474.253
288.649
216.496
95.8797
145.517
137.643
132.659
107.844
41.0368
23.0571
21.3313
19.9408
19.9049
22.3936
26.5776
29.8637
29.1428
27.5019
455.881
363.243
226.451
83.109
118.565
137.775
127.789
80.4762
33.5365
25.8599
26.1258
27.9502
34.3308
36.7338
37.5552
36.7169
32.7311
27.8845
444.004
374.769
228.575
76.5551
69.9561
120.91
120.181
73.8071
30.2757
27.2555
32.1806
45.7586
54.2007
53.6763
48.5901
39.7579
34.3777
30.7751
437.144
371.946
230.462
76.5423
51.6123
56.2539
68.1352
36.4704
18.4708
20.23
27.1433
44.5491
60.0188
62.2653
54.4763
39.5866
29.2011
24.487
435.042
368.724
231.907
82.3461
43.9381
20.6352
22.9154
20.8045
17.0078
20.7311
29.8549
48.8276
62.5744
64.9399
52.8719
31.8307
21.7834
20.9323
436.617
365.543
228.708
85.1429
38.9618
13.6346
16.9813
21.0912
21.9732
24.9289
31.8583
46.6891
57.2039
55.6244
39.7192
25.2921
20.0415
20.8581
440.557
357.875
221.554
82.3591
30.4689
12.731
17.0445
30.3219
27.6063
24.9534
25.0079
30.3788
39.5414
37.6292
25.5592
19.7504
18.5409
17.6966
444.519
360.764
217.056
76.1735
27.459
13.0553
18.5157
33.3942
28.4176
21.6891
20.9601
25.2294
31.5435
25.3782
15.5392
14.7938
16.0356
15.1619
451.945
359.679
212.978
75.486
30.0273
12.7369
12.3571
19.5088
19.6418
16.4965
14.0675
15.4595
19.149
12.4118
10.1325
12.8152
14.9301
13.7526
462.627
352.62
206.199
82.3098
39.2664
14.2737
10.0996
10.0673
10.7557
10.4098
9.84919
9.73403
8.38095
7.13105
8.00437
12.4046
14.5593
13.9001
475.225
334.6
200.511
89.186
45.9185
19.8661
9.84354
7.05984
7.6856
7.87971
8.04446
8.40993
8.15846
7.76036
8.22
10.628
13.1532
13.5898
488.432
319.552
200.587
100.722
51.4708
22.2231
10.9221
6.61358
7.11493
7.19683
7.43819
7.37821
7.5058
8.52836
12.1894
13.3899
14.0506
14.6672
500.086
309.546
205.345
127.412
59.4439
21.0287
10.0025
6.42839
6.81245
6.93883
5.34522
4.93777
7.8689
11.8254
12.599
11.6495
11.9412
11.8255
504.941
301.479
209.369
169.657
77.3428
22.9367
9.99052
6.65673
7.13156
8.29858
4.65451
3.69775
4.31716
6.04827
6.84995
6.69709
6.55314
6.21304
490.764
292.776
212.556
181.809
93.0022
25.8875
12.0923
7.26901
7.21494
8.72406
4.29689
3.21102
3.28387
3.73003
4.08125
4.32003
4.35314
4.0073
449.443
288.3
215.229
177.909
88.9386
26.2171
12.9072
6.55545
5.51893
3.5774
2.71879
3.06263
4.19648
5.32982
5.50764
4.57001
3.82618
3.43839
414.347
280.323
212.489
143.44
64.0896
21.9925
11.3007
5.83637
4.70638
3.16731
2.89142
2.98656
3.36285
3.97243
3.98407
3.03941
2.88802
2.8856
386.629
279.042
205.586
101.86
45.2438
18.3027
9.81011
5.43879
5.23981
4.35943
4.6511
4.47264
3.27799
2.37774
1.75034
1.61181
1.64506
2.11603
370.338
277.231
205.68
91.7915
39.7855
17.3107
8.89905
5.36464
5.34656
5.2264
6.02354
7.6716
7.77149
6.67314
3.08479
1.63781
1.3074
1.5207
370.935
262.335
206.818
99.5692
43.5893
17.8054
9.53976
5.8279
5.32532
5.45363
6.36618
8.72099
9.98145
10.6384
10.3784
6.98192
3.21946
1.71643
391.887
212.657
201.437
75.4503
32.1156
12.8758
9.68935
6.63259
6.75805
10.1394
11.0293
12.0025
12.1471
13.459
14.5696
14.7117
14.3172
9.20873
404.249
167.946
192.339
75.2727
49.6669
18.0971
11.3563
10.678
13.9768
18.3524
18.2096
15.1479
12.1391
12.8613
18.5809
20.3232
19.066
16.5743
383.061
151.952
168.817
51.0835
36.1073
15.3661
14.9114
12.6739
13.9881
21.2441
26.0652
23.8759
17.0278
15.4391
23.0997
26.191
25.544
20.6252
349.425
131.12
152.325
42.892
39.9856
24.4486
18.8983
20.6534
28.5384
48.6702
58.4673
53.178
32.8044
26.074
30.0178
32.299
31.8075
28.9973
338.658
111.103
129.666
57.1454
39.5084
45.5827
35.3418
38.727
50.9946
76.296
90.3493
86.4242
59.0042
46.3783
42.327
36.4718
36.3164
38.8592
371.86
112.041
88.5903
62.4362
63.8084
73.2564
74.6633
73.5969
74.2358
86.6951
117.497
113.607
72.3581
51.4464
50.4422
56.2697
68.4961
73.8151
576.19
207.435
178.185
166.797
137.337
113.297
73.8674
43.463
31.6996
26.8905
25.0649
25.9343
38.7597
56.1135
58.9465
56.3998
53.8653
56.8411
505.739
172.525
200.269
187.723
188.114
137.001
34.9306
33.1649
32.4429
25.4881
22.2617
22.1097
27.5216
40.1144
40.0331
32.1447
30.0743
33.2478
543.965
182.072
196.488
137.063
138.86
91.2018
36.347
41.0088
35.3543
26.7452
23.4925
23.8898
28.1096
31.393
26.5721
20.1892
21.4263
27.0654
533.134
202.834
213.767
137.916
122.221
64.8683
43.9974
47.0584
34.0112
25.2241
20.5062
19.7782
21.4483
22.3455
19.7748
14.2729
14.9019
19.9602
510.285
225.174
233.458
153.973
121.782
62.8587
52.6436
49.8984
30.8343
25.0217
20.7345
14.8102
14.107
16.0575
16.098
14.4185
14.5116
16.257
481.627
298.022
242.608
103.583
138.367
86.1997
79.6412
64.3813
30.0413
24.7313
24.2648
17.0451
13.741
15.0125
16.7562
16.8835
16.3729
16.6016
463.08
348.788
261.89
91.7002
106.086
146.835
137.319
80.3298
30.2155
23.8979
26.5743
23.3733
18.1557
18.7245
21.6045
21.8352
20.6663
18.685
453.951
371.074
265.041
90.0717
58.7932
91.8824
82.828
41.1937
17.2261
15.3132
25.9708
30.1255
28.0384
26.401
28.0366
27.7218
24.388
18.2875
451.411
391.381
264.801
85.8509
46.9609
44.5933
43.3289
29.3272
13.9002
10.4953
15.7292
30.7598
32.6434
32.2694
32.6061
30.6425
24.161
17.5104
452.404
391.132
256.437
90.5256
45.1244
18.8149
20.3641
17.7745
10.3277
9.55985
12.0647
24.449
30.9612
31.931
31.3171
28.3428
20.049
17.9135
454.576
386.932
238.669
97.9644
47.1347
13.5987
10.4826
8.92214
8.79658
9.62012
11.7216
17.1527
18.7728
19.1738
21.3608
20.7409
17.2024
17.2444
456.405
385.835
229.288
114.465
50.7805
13.1523
9.16086
9.12174
9.44731
10.0693
11.135
13.8683
14.417
12.8
14.4548
15.0724
14.8714
15.0205
461.615
379.369
224.212
98.7321
46.2449
15.331
9.64205
8.60789
8.93213
9.42183
9.73813
10.1114
9.6352
8.53069
11.8883
13.968
14.2701
13.7834
470.053
364.182
213.906
101.501
45.0392
19.9847
10.8564
7.50367
7.79733
8.64314
8.95668
8.56343
7.60211
7.19194
8.05316
12.6741
14.2885
13.189
481.233
341.687
204.017
107.869
51.279
21.6813
10.9542
6.94867
7.28089
7.95795
8.50348
8.29176
7.39036
7.27978
7.74158
10.0358
13.238
12.6077
493.856
316.936
199.481
129.884
56.6364
20.798
9.68078
6.58302
6.9873
7.39669
7.80809
6.54521
6.26697
7.25476
9.47236
13.3223
13.7155
14.1183
505.116
302.138
201.291
154.804
64.4444
20.145
8.96932
6.4435
6.57115
7.14048
5.86029
4.80445
6.14356
8.88924
10.0411
10.3548
11.0371
11.5236
508.733
295.469
205.384
173.563
81.278
22.8333
9.49683
6.67665
7.18729
7.44718
4.7272
4.32767
4.15607
4.99018
7.04172
8.50825
9.30021
9.35788
492.022
291.545
211.289
182.785
96.4374
25.9744
11.9497
7.66384
7.41951
7.05827
4.42344
4.42879
3.55599
3.24044
3.38433
4.32722
5.27294
5.51354
450.139
288.097
213.797
184.775
103.054
26.9342
13.3518
7.85218
6.02058
3.60246
2.86335
3.1153
3.0866
3.138
3.21703
3.19992
3.12079
2.93258
414.976
279.885
211.043
156.959
71.1887
22.109
12.2385
6.79738
4.85107
3.92617
3.39829
3.16178
3.13301
3.29407
3.12085
2.78908
2.72414
2.48376
385.877
278.235
205.841
107.185
46.9453
17.8224
10.3468
5.71915
4.70672
4.47075
5.31159
5.60718
4.91133
3.64637
2.05655
1.72626
2.10029
2.5724
367.798
272.782
207.293
97.0771
41.3692
18.488
8.94805
5.28997
4.46531
4.58528
5.34802
6.26511
6.47983
7.10437
5.1808
2.07829
1.59031
2.08087
368.257
248.025
204.446
115.679
53.5618
22.5185
8.36151
5.27386
5.67593
5.80259
6.823
7.6183
8.04021
7.89856
7.83301
7.49212
3.65423
1.92106
391.569
188.092
170.852
52.5268
33.1603
18.9164
10.2458
5.73794
5.72389
9.19556
12.1564
12.3403
12.3568
12.0605
10.0225
9.3987
10.3528
9.27441
400.391
149.336
157.974
48.7316
36.6921
17.0508
12.7982
5.43202
5.89514
10.9843
16.0818
17.8501
16.8446
14.7492
14.152
14.2596
13.6245
13.1225
372.258
133.394
129.982
37.4313
32.648
16.2555
12.4948
5.03524
5.68076
9.58918
20.8029
28.9073
28.0888
18.4845
15.1242
17.2404
19.7898
19.502
330.539
121.291
119.747
39.7249
37.353
20.3914
23.3822
18.9595
18.1071
30.9779
52.6385
50.9671
43.5076
29.1625
20.1612
22.0226
23.6035
25.477
312.561
111.54
123.671
85.942
60.0155
44.2442
37.7988
39.0378
43.6276
64.6025
79.8746
81.865
76.5743
51.1491
41.1466
39.6179
32.6861
31.4178
408.937
143.936
137.321
95.7922
78.1093
77.0837
75.8943
71.88
69.7746
71.8533
80.466
88.0406
95.2568
92.4507
75.5245
72.0363
69.7974
63.4361
588.675
212.947
173.623
148.518
122.549
85.1467
60.3033
34.6582
27.9474
26.1973
24.1558
23.9918
29.1064
53.5336
66.7196
68.8433
72.8778
81.1884
558.309
193.915
240.883
195.758
150.752
91.5578
33.1443
21.0803
19.4758
18.5032
18.7009
19.2893
21.2137
36.7504
42.5037
40.9169
45.6808
60.2926
572.843
198.986
224.992
161.59
89.5499
88.9283
38.793
27.3416
23.4467
19.4306
19.0978
19.6491
21.8917
27.1544
25.9897
25.0399
28.2242
44.8516
563.673
212.041
232.201
127.143
72.5103
51.1782
30.2959
29.1371
24.1605
18.8518
17.9734
18.9682
20.9685
22.3099
20.3127
17.9753
19.8151
28.1293
543.433
220.268
268.905
148.497
69.8213
49.9208
29.3268
32.6596
23.0686
15.1647
15.9474
17.987
19.5868
20.5632
20.3137
17.3977
16.551
18.8327
515.585
251.24
291.03
182.818
68.7564
70.215
51.0504
39.4948
18.3
12.7865
14.5598
17.6489
19.0191
19.256
20.5557
19.132
16.0511
15.1033
496.458
340.164
318.868
189.531
72.5315
77.7262
71.1617
38.8324
17.2392
12.7724
13.9318
18.2623
19.1822
19.85
21.8074
21.8042
18.0173
13.9869
488.203
394.787
321.117
190.413
77.1781
80.6393
75.8597
41.7088
19.1091
13.0863
13.0265
16.8005
21.3593
22.5434
25.6276
25.6358
21.2026
14.6711
482.094
408.617
300.001
129.834
58.8945
75.6652
76.3372
53.5527
22.638
10.998
9.28848
11.6413
20.6278
26.6511
30.5976
30.8711
25.7165
16.1548
477.629
415.177
281.26
112.854
53.8095
33.4168
41.4573
37.2929
17.9261
8.58095
7.8892
9.83755
13.6608
25.3561
30.8242
30.6642
25.0965
17.7375
475.314
412.179
283.334
116.086
63.1066
24.4494
18.1184
11.9239
7.58063
7.00018
7.49603
8.9493
9.98788
13.1886
22.8302
25.6016
23.6192
18.6331
473.494
391.897
240.042
122.879
77.1959
26.0345
12.6116
8.05009
6.94345
7.0996
8.21942
8.4236
8.50351
9.39188
14.3148
18.5887
19.3953
17.656
475.008
328.981
205.821
133.714
78.7398
25.5545
10.3928
6.96566
6.93248
7.34358
8.41388
8.15897
7.80039
8.01429
8.88652
12.378
15.0655
14.2105
477.558
315.241
198.257
141.746
66.2424
22.5637
10.145
6.8784
6.94874
7.55322
8.41167
8.06207
7.45076
7.52138
7.84292
9.21349
13.7873
12.9092
484.095
314.049
196.072
154.501
62.0981
21.565
10.4853
6.82181
7.04868
7.85062
8.37736
7.88169
6.18821
6.65658
7.64047
9.31009
13.6265
12.8585
495.985
299.925
195.144
152.114
58.915
19.3364
9.08803
6.47261
7.00048
7.74126
7.96807
6.53237
5.72995
6.72247
8.55265
12.1226
13.3671
12.3753
507.16
293.72
198.115
161.431
66.3143
19.3545
8.26951
6.3121
6.65446
7.28821
6.77723
5.33546
5.61212
7.74659
9.3086
9.64892
9.08774
9.7637
509.876
291.4
203.461
169.643
76.4234
22.2389
8.93786
6.57191
7.25944
7.21413
5.80074
5.45974
5.02505
5.17442
7.01409
9.45413
11.1339
12.3926
491.356
290.991
211.23
175.158
84.1165
24.5559
10.9365
7.54665
7.48785
6.50984
6.42073
5.32943
4.93934
3.90229
3.83298
5.85396
8.22114
9.01637
448.324
288.819
215.574
175.087
86.3809
24.2584
11.6431
7.70833
5.4275
3.87416
3.93586
4.21171
3.04366
2.49985
2.46955
2.86121
3.14741
3.18167
413.012
281.04
213.571
128.527
59.5064
19.4787
10.0348
6.10648
4.81913
4.12308
3.64899
2.63397
2.02421
1.92045
2.3154
2.57491
2.36075
1.80957
384.276
278.993
205.917
94.8708
41.8153
15.8515
8.06171
5.15306
4.17032
4.49286
5.87058
6.50255
4.98423
2.86724
2.02099
2.18257
2.63185
2.76086
364.814
273.053
206.581
89.663
38.7586
15.5735
6.62077
4.3697
4.89545
4.84473
5.67197
6.86768
7.47608
7.05908
3.86879
2.29194
2.24069
2.57631
362.042
255.181
211.785
101.616
40.5645
16.0821
6.4284
4.30226
6.34908
7.41542
8.18204
8.28906
7.98542
7.81531
7.62222
6.46342
3.04581
2.61573
381.312
205.577
206.868
92.3474
48.0573
14.9711
5.00483
3.80836
4.68925
10.0943
12.5269
12.5988
11.1527
9.78996
9.23042
8.7229
8.29985
5.96444
393.899
166.81
195.92
67.2543
44.0522
11.7612
6.25902
3.48829
4.11846
9.34654
13.696
13.97
12.2622
10.2145
10.5338
12.4919
12.9146
11.8109
371.333
143.202
157.352
30.0789
29.166
10.9349
10.8442
3.87506
4.64654
10.3084
17.4681
18.3842
14.83
10.0342
8.97668
10.8242
15.6275
17.893
344.232
126.128
118.765
33.2707
31.6435
29.8379
37.079
19.4029
8.53343
12.6401
28.921
33.0204
26.4178
13.6497
8.65916
10.195
13.6714
18.8511
313.612
122.965
122.935
70.6518
59.5217
48.4414
43.0666
32.836
20.4802
23.5078
39.0558
44.485
39.4504
26.5946
21.3296
17.5153
16.5716
18.663
429.074
168.987
184.109
123.422
77.0581
68.2036
47.1556
38.2663
37.6858
45.3919
68.9707
99.3471
115.037
115.866
100.234
60.291
48.9491
52.9147
591.111
268.344
311.873
145.834
128.131
103.462
63.0558
43.7874
33.573
29.3276
27.1009
24.9559
25.7378
35.0732
67.4185
84.5554
89.4137
106.15
629.323
270.134
306.22
239.134
141.388
101.19
33.4683
22.8739
19.7193
17.7138
16.9499
17.4617
20.2307
24.68
37.3902
38.6805
39.389
58.4372
606.847
265.989
290.646
236.539
108.151
70.2289
30.8058
21.4808
18.8989
16.3732
16.1305
17.0564
20.6721
22.137
22.665
23.0056
24.5479
30.8837
591.98
259.782
253.212
214.934
87.7082
42.172
27.505
23.8246
18.8635
13.5502
12.8167
14.2312
20.0394
22.2554
21.2048
20.1685
20.6917
23.4757
573.674
261.802
253.715
210.586
85.0757
36.667
23.9033
27.1645
21.9043
12.9618
11.1018
12.07
17.118
23.6408
23.7338
22.5409
21.4069
21.3845
553.022
272.75
270.571
248.52
110.389
41.5145
30.1418
29.4665
18.9167
9.59387
7.86987
9.91306
14.6404
22.6321
26.6329
25.2385
23.8828
21.8669
541.105
335.536
337.439
289.193
135.076
55.7594
48.8795
27.8686
12.6504
7.81821
6.73128
8.82991
14.4662
20.7544
27.9292
28.6581
27.0239
23.6698
535.348
324.722
324.939
293.852
150.328
99.6822
79.7333
32.2447
12.2881
7.3947
6.40347
7.43754
12.7124
20.7799
27.7875
30.4248
30.2136
27.386
528.992
302.372
292.961
264.182
84.4704
124.773
90.5874
34.9434
12.6392
7.10162
6.35596
6.67902
9.93791
20.2528
26.7966
30.6592
31.7656
29.8957
521.329
305.027
269.557
131.065
73.7344
102.423
83.6865
32.8084
10.6093
6.51366
6.33568
6.46747
8.14349
15.4361
21.2912
25.304
28.3077
27.3262
518.975
288.61
221.136
85.0626
83.5
78.036
63.0478
25.4327
8.87867
6.40588
6.67883
6.63646
7.46096
9.9185
15.5933
18.4255
22.1501
22.8276
512.026
275.653
167.807
79.4123
87.7478
76.8182
40.3909
16.4902
8.04869
6.86994
7.5509
7.43986
7.39124
8.79506
10.8162
13.2213
16.467
16.9626
499.705
279.964
166.767
78.984
62.6825
38.1587
18.8406
8.27564
6.73565
7.0441
8.15382
8.05044
7.42314
8.49296
9.42399
10.8759
12.9436
12.466
487.322
289.779
181.755
87.1826
55.7222
19.4221
9.73464
6.48875
6.69953
7.45554
8.6826
8.33748
7.19551
8.08174
9.95589
12.0508
15.509
15.5542
485.289
301.579
189.259
103.647
62.2142
18.0504
7.99085
6.37835
7.01292
8.21228
9.00084
8.32105
6.25111
7.0861
8.67481
10.6874
13.3504
15.5517
493.851
296.314
192.08
135.001
60.6991
18.9949
8.13326
6.34649
7.24225
8.36531
9.1078
7.05294
5.92217
6.70722
8.17328
10.1441
12.4212
12.4183
504.681
294.716
196.773
155.983
62.2691
18.839
8.13405
6.26581
7.16577
7.91378
8.12756
6.34828
5.7272
6.90428
8.71429
9.58324
9.07765
8.3474
507.443
293.165
203.731
160.77
67.7377
21.2181
8.64829
6.42564
7.51478
7.70514
7.70009
6.68499
6.10613
5.36204
5.469
8.67369
11.4043
12.1574
488.64
292.768
212.338
160.804
71.0786
23.0502
10.5268
7.12768
7.56598
7.84158
7.3285
5.85626
5.95009
5.03632
3.53442
4.18512
6.97523
8.34764
444.252
291.336
220.713
132.036
61.8195
20.3907
10.9825
6.74864
4.86835
4.69965
6.78995
6.30514
4.58913
2.87311
2.43166
2.62544
3.19224
3.28574
409.163
284.564
218.418
96.0127
44.3993
16.3226
9.24651
5.26525
4.51234
3.38255
2.93274
1.98698
1.57556
1.48677
1.83929
2.06057
1.91408
1.4825
382.788
281.765
205.878
79.5595
34.6548
13.991
7.31305
4.88713
5.04183
6.23188
6.71297
4.67447
2.75155
1.91765
1.8992
2.22761
2.26111
1.85737
363.356
275.521
206.322
78.6906
34.4377
13.0188
6.10207
4.28364
6.48293
6.99756
7.89339
7.90079
6.54678
4.2965
2.4945
2.07996
2.05449
2.13329
356.106
262.322
213.513
87.7909
36.5786
12.6067
5.22039
3.81937
5.43384
6.21802
7.29701
8.07659
7.75698
7.17608
6.14181
3.36164
2.20702
1.97914
364.481
224.136
216.438
85.7012
37.2847
11.818
4.77443
3.36356
3.68016
4.93366
7.11186
6.52366
7.12966
7.75137
7.63112
5.76671
4.20921