/*--------------------------------*- C++ -*----------------------------------*\
| =========                 |                                                 |
| \\      /  F ield         | OpenFOAM: The Open Source CFD Toolbox           |
|  \\    /   O peration     | Version:  2112                                  |
|   \\  /    A nd           | Website:  www.openfoam.com                      |
|    \\/     M anipulation  |                                                 |
\*---------------------------------------------------------------------------*/
FoamFile
{
    version     2.0;
    format      ascii;
    arch        "LSB;label=32;scalar=64";
    class       volVectorField;
    location    "0.19";
    object      U_0;
}
// * * * * * * * * * * * * * * * * * * * * * * * * * * * * * * * * * * * * * //

dimensions      [0 1 -1 0 0 0 0];

internalField   nonuniform List<vector> 
12225
(
(9.62313 0.1123 0)
(8.81406 0.174156 0)
(7.97331 0.172821 0)
(7.18656 0.153721 0)
(6.51974 0.126256 0)
(5.98982 0.0960839 0)
(5.58896 0.0682631 0)
(5.30063 0.045466 0)
(5.10309 0.0283978 0)
(4.97274 0.0166592 0)
(4.88881 0.00916137 0)
(4.83566 0.00476043 0)
(4.80256 0.00246547 0)
(4.78284 0.00122205 0)
(4.77244 0.000801683 0)
(4.77268 0.00124475 0)
(4.76345 0.0150926 0)
(4.7669 -0.0104912 0)
(10.1388 0.122914 0)
(10.367 0.184474 0)
(10.4439 0.19178 0)
(10.3874 0.190581 0)
(10.2381 0.179435 0)
(10.0289 0.158896 0)
(9.78544 0.133498 0)
(9.52843 0.107489 0)
(9.27192 0.0838915 0)
(9.02366 0.0642061 0)
(8.78765 0.0484854 0)
(8.56624 0.0361548 0)
(8.36081 0.0263254 0)
(8.17268 0.0182353 0)
(8.00141 0.0110653 0)
(7.84807 0.0059735 0)
(7.72158 0.000380473 0)
(7.63465 0.0182844 0)
(10.0378 0.0785931 0)
(10.1435 0.133909 0)
(10.2444 0.158076 0)
(10.3269 0.175778 0)
(10.3894 0.182453 0)
(10.429 0.178357 0)
(10.442 0.167863 0)
(10.4297 0.155062 0)
(10.3975 0.142882 0)
(10.3509 0.13281 0)
(10.2947 0.124895 0)
(10.2327 0.118573 0)
(10.1678 0.113059 0)
(10.1025 0.107398 0)
(10.04 0.100863 0)
(9.98277 0.0925365 0)
(9.93634 0.081704 0)
(9.89739 0.0555236 0)
(10.0198 0.0616372 0)
(10.0838 0.118883 0)
(10.1479 0.14396 0)
(10.2038 0.15869 0)
(10.2563 0.164427 0)
(10.3016 0.161451 0)
(10.3364 0.152821 0)
(10.3604 0.142024 0)
(10.3753 0.131171 0)
(10.3861 0.121729 0)
(10.3943 0.113888 0)
(10.4009 0.107284 0)
(10.407 0.101212 0)
(10.4134 0.0948009 0)
(10.421 0.0869808 0)
(10.4307 0.0764286 0)
(10.4437 0.0609008 0)
(10.4579 0.0335203 0)
(10.0122 0.0507365 0)
(10.061 0.106015 0)
(10.1132 0.131022 0)
(10.1591 0.145203 0)
(10.2023 0.151261 0)
(10.2414 0.149478 0)
(10.274 0.142783 0)
(10.3002 0.134113 0)
(10.3211 0.125417 0)
(10.3376 0.117275 0)
(10.3521 0.109732 0)
(10.3663 0.102851 0)
(10.3811 0.0961197 0)
(10.3975 0.0887216 0)
(10.4157 0.0797075 0)
(10.4357 0.0678629 0)
(10.4575 0.0515385 0)
(10.4793 0.0271453 0)
(10.0083 0.0415254 0)
(10.0467 0.0927553 0)
(10.0923 0.118157 0)
(10.1338 0.132498 0)
(10.1724 0.139024 0)
(10.2082 0.138626 0)
(10.2396 0.133553 0)
(10.2663 0.126239 0)
(10.2894 0.118351 0)
(10.3089 0.110483 0)
(10.3268 0.103088 0)
(10.3442 0.0960146 0)
(10.362 0.0887375 0)
(10.3807 0.0805204 0)
(10.4006 0.0704969 0)
(10.4217 0.0575838 0)
(10.4436 0.0403844 0)
(10.4647 0.0165528 0)
(10.0061 0.0342659 0)
(10.0364 0.0802618 0)
(10.0762 0.105212 0)
(10.1142 0.119629 0)
(10.1499 0.126575 0)
(10.1833 0.127009 0)
(10.2132 0.122922 0)
(10.2393 0.116496 0)
(10.2627 0.109385 0)
(10.2843 0.102312 0)
(10.3046 0.0952782 0)
(10.3244 0.0880995 0)
(10.3441 0.0803806 0)
(10.3643 0.0714994 0)
(10.3852 0.0606823 0)
(10.4066 0.0469955 0)
(10.4281 0.0293466 0)
(10.4485 0.00625898 0)
(10.0046 0.0284005 0)
(10.0288 0.0692168 0)
(10.0631 0.0929489 0)
(10.0977 0.106949 0)
(10.1306 0.113992 0)
(10.1617 0.115017 0)
(10.19 0.111746 0)
(10.2153 0.106068 0)
(10.2381 0.0994115 0)
(10.2595 0.0924431 0)
(10.2802 0.0852227 0)
(10.3005 0.0776106 0)
(10.3208 0.0692597 0)
(10.3413 0.0596239 0)
(10.3621 0.0480386 0)
(10.3829 0.033758 0)
(10.4032 0.0160071 0)
(10.4222 -0.00600303 0)
(10.0035 0.0235209 0)
(10.0229 0.0592773 0)
(10.0525 0.0813859 0)
(10.0836 0.0946999 0)
(10.1137 0.101611 0)
(10.1426 0.103048 0)
(10.1692 0.100454 0)
(10.1934 0.0954178 0)
(10.2154 0.0891259 0)
(10.236 0.0821801 0)
(10.2559 0.0747444 0)
(10.2755 0.0667415 0)
(10.295 0.05788 0)
(10.3147 0.0476965 0)
(10.3343 0.0356402 0)
(10.3536 0.0211409 0)
(10.3719 0.00367438 0)
(10.3888 -0.0170906 0)
(10.0028 0.0194246 0)
(10.0184 0.0502728 0)
(10.0437 0.070438 0)
(10.0715 0.0828704 0)
(10.0989 0.0894846 0)
(10.1255 0.0911493 0)
(10.1505 0.089061 0)
(10.1734 0.0845465 0)
(10.1945 0.0786066 0)
(10.2143 0.0717809 0)
(10.2333 0.0642513 0)
(10.2519 0.0559725 0)
(10.2702 0.0467185 0)
(10.2883 0.0361293 0)
(10.3061 0.0237856 0)
(10.3233 0.00928744 0)
(10.3394 -0.00769114 0)
(10.3538 -0.0272534 0)
(10.0022 0.0159453 0)
(10.0148 0.0421775 0)
(10.0364 0.0601425 0)
(10.061 0.0714754 0)
(10.0859 0.0776169 0)
(10.1104 0.0793232 0)
(10.1336 0.0775696 0)
(10.1553 0.0734524 0)
(10.1754 0.0678157 0)
(10.1943 0.0611329 0)
(10.2124 0.053579 0)
(10.2299 0.0451342 0)
(10.2469 0.0356366 0)
(10.2635 0.0248279 0)
(10.2795 0.0124175 0)
(10.2946 -0.00184464 0)
(10.3084 -0.0181271 0)
(10.3205 -0.0363853 0)
(10.0018 0.013163 0)
(10.0122 0.0355255 0)
(10.0307 0.0513042 0)
(10.0527 0.0614369 0)
(10.0754 0.0669921 0)
(10.098 0.0685797 0)
(10.1197 0.0669901 0)
(10.1401 0.0631307 0)
(10.1593 0.0577141 0)
(10.1774 0.0511556 0)
(10.1946 0.0436262 0)
(10.2111 0.035132 0)
(10.227 0.0255648 0)
(10.2423 0.0147473 0)
(10.2567 0.0024898 0)
(10.2701 -0.0113468 0)
(10.2821 -0.0268251 0)
(10.2924 -0.0438184 0)
(10.0013 0.0107703 0)
(10.01 0.0295127 0)
(10.0259 0.043035 0)
(10.0454 0.0518448 0)
(10.0661 0.056693 0)
(10.0869 0.0580355 0)
(10.1072 0.0564959 0)
(10.1264 0.0528119 0)
(10.1446 0.0475751 0)
(10.1618 0.0411444 0)
(10.1781 0.0336852 0)
(10.1936 0.0252277 0)
(10.2084 0.0157122 0)
(10.2224 0.00503131 0)
(10.2355 -0.00692028 0)
(10.2474 -0.0201957 0)
(10.2578 -0.0347814 0)
(10.2666 -0.0505 0)
(10.0009 0.00851889 0)
(10.0081 0.0233702 0)
(10.0214 0.0342579 0)
(10.0384 0.0414154 0)
(10.0569 0.0452903 0)
(10.0758 0.0461921 0)
(10.0945 0.0445717 0)
(10.1124 0.040989 0)
(10.1295 0.0359111 0)
(10.1456 0.0296356 0)
(10.1608 0.0223157 0)
(10.1753 0.0140038 0)
(10.1889 0.0046875 0)
(10.2015 -0.00567243 0)
(10.2131 -0.0171054 0)
(10.2235 -0.0295938 0)
(10.2324 -0.0430647 0)
(10.2398 -0.0573166 0)
(10.0006 0.00633326 0)
(10.0067 0.0174124 0)
(10.0175 0.0251976 0)
(10.0321 0.0302733 0)
(10.0484 0.032852 0)
(10.0654 0.0330719 0)
(10.0823 0.0311998 0)
(10.0988 0.0276164 0)
(10.1146 0.022664 0)
(10.1295 0.0165759 0)
(10.1436 0.00948647 0)
(10.1568 0.00146314 0)
(10.1691 -0.00746576 0)
(10.1804 -0.0172826 0)
(10.1906 -0.0279561 0)
(10.1996 -0.0394164 0)
(10.2071 -0.0515523 0)
(10.2133 -0.0641624 0)
(10.0005 0.00405534 0)
(10.0056 0.0113472 0)
(10.0148 0.0159299 0)
(10.0271 0.0185936 0)
(10.0413 0.0195374 0)
(10.0563 0.0187749 0)
(10.0715 0.0164191 0)
(10.0864 0.0126894 0)
(10.1008 0.0078074 0)
(10.1146 0.00193619 0)
(10.1275 -0.00481825 0)
(10.1395 -0.0123867 0)
(10.1506 -0.0207165 0)
(10.1606 -0.0297534 0)
(10.1695 -0.0394264 0)
(10.1773 -0.0496365 0)
(10.1838 -0.0602572 0)
(10.189 -0.0711058 0)
(10.0004 0.00173337 0)
(10.0049 0.00478449 0)
(10.013 0.00622968 0)
(10.0236 0.00638661 0)
(10.036 0.00542311 0)
(10.0492 0.00336032 0)
(10.0628 0.000245371 0)
(10.0764 -0.00381827 0)
(10.0895 -0.00871606 0)
(10.1021 -0.0143584 0)
(10.1139 -0.0206823 0)
(10.1249 -0.0276382 0)
(10.1349 -0.035176 0)
(10.144 -0.0432329 0)
(10.152 -0.0517265 0)
(10.1589 -0.0605514 0)
(10.1648 -0.0695832 0)
(10.1697 -0.0786708 0)
(10.0004 -0.000745366 0)
(10.0045 -0.00227471 0)
(10.0118 -0.0042336 0)
(10.0213 -0.00675709 0)
(10.0326 -0.00985875 0)
(10.0447 -0.0134917 0)
(10.0572 -0.0176172 0)
(10.0698 -0.0222004 0)
(10.082 -0.0272107 0)
(10.0938 -0.03263 0)
(10.1048 -0.0384508 0)
(10.115 -0.0446672 0)
(10.1243 -0.0512639 0)
(10.1327 -0.0582072 0)
(10.1402 -0.0654422 0)
(10.1468 -0.0728974 0)
(10.1525 -0.0804909 0)
(10.1575 -0.0881171 0)
(10.0003 -0.00349299 0)
(10.0042 -0.0101929 0)
(10.0113 -0.016132 0)
(10.0206 -0.021714 0)
(10.0317 -0.0272574 0)
(10.0436 -0.0327162 0)
(10.0558 -0.0380522 0)
(10.0681 -0.0432861 0)
(10.0801 -0.0484678 0)
(10.0916 -0.0536559 0)
(10.1023 -0.0589097 0)
(10.1122 -0.0642848 0)
(10.1213 -0.0698311 0)
(10.1294 -0.0755911 0)
(10.1367 -0.0815961 0)
(10.1431 -0.0878265 0)
(10.1487 -0.0941196 0)
(10.1536 -0.100216 0)
(10.0004 -0.00618537 0)
(10.0046 -0.0178868 0)
(10.0123 -0.0277753 0)
(10.0226 -0.0365379 0)
(10.0347 -0.0445242 0)
(10.0476 -0.0517042 0)
(10.0607 -0.0580909 0)
(10.0737 -0.0637996 0)
(10.0861 -0.0689887 0)
(10.0979 -0.0738126 0)
(10.1088 -0.078408 0)
(10.1188 -0.082893 0)
(10.1279 -0.0873659 0)
(10.136 -0.0919069 0)
(10.1431 -0.0965778 0)
(10.1493 -0.101375 0)
(10.1545 -0.106163 0)
(10.1589 -0.110824 0)
(10.0007 -0.00864079 0)
(10.0056 -0.0246577 0)
(10.0147 -0.0382212 0)
(10.0268 -0.0498571 0)
(10.0406 -0.0598354 0)
(10.0549 -0.0682547 0)
(10.0692 -0.0752504 0)
(10.0831 -0.0810717 0)
(10.0963 -0.0860023 0)
(10.1085 -0.0902942 0)
(10.1197 -0.094157 0)
(10.1298 -0.0977597 0)
(10.1388 -0.101225 0)
(10.1467 -0.104622 0)
(10.1536 -0.107985 0)
(10.1595 -0.111422 0)
(10.1644 -0.115077 0)
(10.1686 -0.118881 0)
(10.0011 -0.0113903 0)
(10.0075 -0.0321115 0)
(10.019 -0.0493269 0)
(10.0336 -0.0634154 0)
(10.0494 -0.0749699 0)
(10.0655 -0.0842471 0)
(10.0814 -0.0915022 0)
(10.0964 -0.0971294 0)
(10.1104 -0.101541 0)
(10.1231 -0.105082 0)
(10.1345 -0.108033 0)
(10.1445 -0.110621 0)
(10.1532 -0.113017 0)
(10.1608 -0.115327 0)
(10.1673 -0.117582 0)
(10.1729 -0.119839 0)
(10.1775 -0.122406 0)
(10.1813 -0.125406 0)
(10.0016 -0.014782 0)
(10.0102 -0.0408047 0)
(10.025 -0.0612156 0)
(10.0427 -0.077255 0)
(10.061 -0.0900175 0)
(10.0792 -0.0998262 0)
(10.0968 -0.107025 0)
(10.1131 -0.112159 0)
(10.1279 -0.115773 0)
(10.141 -0.118305 0)
(10.1524 -0.120119 0)
(10.1621 -0.121523 0)
(10.1704 -0.122754 0)
(10.1774 -0.123983 0)
(10.1832 -0.125313 0)
(10.1882 -0.12673 0)
(10.1924 -0.128291 0)
(10.1957 -0.13037 0)
(10.0022 -0.018927 0)
(10.0143 -0.0506439 0)
(10.0333 -0.073854 0)
(10.0544 -0.09149 0)
(10.0754 -0.105183 0)
(10.0959 -0.115181 0)
(10.1153 -0.121929 0)
(10.1329 -0.126187 0)
(10.1483 -0.128684 0)
(10.1617 -0.129963 0)
(10.173 -0.130447 0)
(10.1823 -0.130525 0)
(10.19 -0.130504 0)
(10.1961 -0.130602 0)
(10.2011 -0.130998 0)
(10.205 -0.131698 0)
(10.2083 -0.132578 0)
(10.2108 -0.133736 0)
(10.0033 -0.0242116 0)
(10.0204 -0.0622087 0)
(10.0447 -0.0875284 0)
(10.0693 -0.1061 0)
(10.093 -0.120248 0)
(10.1158 -0.130006 0)
(10.137 -0.135917 0)
(10.1558 -0.138986 0)
(10.1721 -0.140157 0)
(10.186 -0.140074 0)
(10.1974 -0.139179 0)
(10.2065 -0.137898 0)
(10.2135 -0.136593 0)
(10.2187 -0.135501 0)
(10.2225 -0.13481 0)
(10.225 -0.134582 0)
(10.2267 -0.134766 0)
(10.2278 -0.135377 0)
(10.0054 -0.0314548 0)
(10.0302 -0.075874 0)
(10.0603 -0.101704 0)
(10.0884 -0.120112 0)
(10.115 -0.134172 0)
(10.1409 -0.143551 0)
(10.165 -0.148753 0)
(10.1863 -0.150815 0)
(10.2047 -0.150625 0)
(10.2197 -0.148862 0)
(10.2316 -0.146289 0)
(10.2404 -0.143505 0)
(10.2467 -0.140896 0)
(10.2508 -0.138658 0)
(10.2531 -0.137257 0)
(10.254 -0.136662 0)
(10.2538 -0.136482 0)
(10.2532 -0.136819 0)
(10.01 -0.0407571 0)
(10.0456 -0.0884545 0)
(10.0841 -0.11497 0)
(10.1189 -0.134344 0)
(10.152 -0.148451 0)
(10.1847 -0.157098 0)
(10.2154 -0.16117 0)
(10.2426 -0.161848 0)
(10.2655 -0.16025 0)
(10.2832 -0.156868 0)
(10.2962 -0.15223 0)
(10.3048 -0.147266 0)
(10.3095 -0.142587 0)
(10.3112 -0.138535 0)
(10.3103 -0.135345 0)
(10.3082 -0.133144 0)
(10.3055 -0.131871 0)
(10.3018 -0.131613 0)
(10.0208 -0.0543944 0)
(10.08 -0.1004 0)
(10.1445 -0.125333 0)
(10.2034 -0.148432 0)
(10.2582 -0.166381 0)
(10.3085 -0.177086 0)
(10.3501 -0.18194 0)
(10.3804 -0.182218 0)
(10.399 -0.178949 0)
(10.4074 -0.173507 0)
(10.4062 -0.167004 0)
(10.3963 -0.160363 0)
(10.379 -0.154226 0)
(10.3556 -0.148997 0)
(10.3273 -0.145052 0)
(10.2951 -0.14263 0)
(10.2598 -0.141506 0)
(10.2227 -0.141734 0)
(10.0832 -0.0948193 0)
(10.2597 -0.154237 0)
(10.3699 -0.168963 0)
(10.4124 -0.18011 0)
(10.4028 -0.187084 0)
(10.348 -0.187315 0)
(10.2552 -0.181848 0)
(10.1338 -0.172109 0)
(9.99342 -0.159424 0)
(9.84138 -0.145032 0)
(9.68325 -0.129949 0)
(9.52309 -0.1151 0)
(9.36375 -0.101268 0)
(9.20709 -0.0889625 0)
(9.05409 -0.0784809 0)
(8.9053 -0.0699295 0)
(8.76065 -0.0631323 0)
(8.62119 -0.058339 0)
(9.77091 -0.0908257 0)
(9.25361 -0.154597 0)
(8.67016 -0.168199 0)
(8.07199 -0.167928 0)
(7.50558 -0.15965 0)
(6.98987 -0.145056 0)
(6.53165 -0.12669 0)
(6.13459 -0.106984 0)
(5.79906 -0.0877629 0)
(5.52149 -0.0700606 0)
(5.29594 -0.0543906 0)
(5.11564 -0.0409364 0)
(4.97344 -0.0296724 0)
(4.86235 -0.0205566 0)
(4.77579 -0.0134748 0)
(4.70814 -0.00820737 0)
(4.65376 -0.00468849 0)
(4.61089 -0.00194691 0)
(0.0066117 0.00908005 -1.25504e-21)
(0.0310171 -0.011296 1.23162e-21)
(0.0774063 -0.0384931 0)
(0.145454 -0.0668266 0)
(0.235234 -0.0921733 0)
(0.34383 -0.114058 -1.18983e-21)
(0.466931 -0.13403 0)
(0.602065 -0.149755 0)
(0.745552 -0.158871 0)
(0.891915 -0.161547 0)
(1.03676 -0.158497 1.29833e-21)
(1.17627 -0.150495 0)
(1.30693 -0.138249 0)
(1.42565 -0.12237 0)
(1.52974 -0.103365 0)
(1.61682 -0.0815945 1.5129e-21)
(1.68471 -0.0572205 0)
(1.73127 -0.0301034 0)
(1.75499 0.000315755 0)
(1.75226 0.0340811 0)
(1.72024 0.0699969 0)
(1.6589 0.106088 0)
(1.56831 0.14048 0)
(1.44902 0.170227 1.38235e-21)
(1.30392 0.189944 -1.3064e-21)
(1.13663 0.19907 1.221e-21)
(0.950814 0.201723 1.12812e-21)
(0.750875 0.199092 0)
(0.541089 0.191959 0)
(0.325989 0.181494 -8.38562e-22)
(0.110077 0.169135 -7.5252e-22)
(-0.102588 0.156387 0)
(-0.309969 0.14415 0)
(-0.511527 0.13334 -5.69136e-22)
(-0.70868 0.128486 0)
(-0.907639 0.138838 0)
(-1.11739 0.170427 5.82642e-22)
(-1.34639 0.208283 0)
(-1.591 0.232959 6.72305e-22)
(-1.83461 0.236617 1.44624e-21)
(-2.06041 0.219591 0)
(-2.25589 0.188739 0)
(-2.41622 0.153201 0)
(-2.54424 0.119639 0)
(-2.64538 0.0904714 0)
(-2.72395 0.0651431 1.54259e-21)
(-2.78161 0.0419411 1.40187e-21)
(-2.81763 0.0194656 1.19678e-21)
(-2.82916 -0.00245776 0)
(-2.81593 -0.0244901 -5.6948e-22)
(-2.77648 -0.0456525 0)
(-2.70859 -0.0664007 -3.74674e-22)
(-2.61128 -0.0867015 -9.60761e-22)
(-2.48447 -0.106189 0)
(-2.32924 -0.124412 0)
(-2.14763 -0.141031 0)
(-1.94206 -0.15564 -3.84711e-21)
(-1.71536 -0.167488 0)
(-1.47132 -0.175597 0)
(-1.21457 -0.179348 0)
(-0.949594 -0.180173 0)
(-0.680703 -0.179193 0)
(-0.410656 -0.177507 0)
(-0.142472 -0.175127 0)
(0.120339 -0.17175 0)
(0.375464 -0.168221 9.23696e-21)
(0.621465 -0.16369 0)
(0.857657 -0.15649 0)
(1.08294 -0.147532 -9.56175e-21)
(1.29663 -0.138634 -9.55235e-21)
(1.49933 -0.130349 0)
(1.69178 -0.122791 9.40205e-21)
(1.87486 -0.116096 -9.27557e-21)
(2.04989 -0.110473 0)
(2.21883 -0.105799 8.95152e-21)
(2.38363 -0.101076 0)
(2.54452 -0.094205 0)
(2.69695 -0.0789891 -8.37497e-21)
(2.83012 -0.0373771 0)
(2.90892 0.0460931 8.00748e-21)
(2.87556 0.139005 0)
(2.74785 0.179759 -7.65928e-21)
(2.58616 0.147434 -7.4969e-21)
(2.45021 0.0821805 -7.34177e-21)
(2.35506 0.0376162 -1.4351e-20)
(2.2676 0.0330908 1.39328e-20)
(2.14184 0.0520066 0)
(1.94815 0.0799175 0)
(1.67587 0.116823 0)
(1.32511 0.157875 1.05795e-20)
(0.900396 0.198537 9.08212e-21)
(0.406104 0.239975 -7.24293e-21)
(-0.151783 0.281868 0)
(-0.761203 0.320821 2.4782e-21)
(-1.40589 0.352812 -2.04543e-22)
(-2.06818 0.374943 -2.94828e-21)
(-2.72853 0.385059 0)
(-3.3676 0.382121 0)
(-3.96758 0.366537 0)
(-4.51259 0.338975 -1.27373e-20)
(-4.98946 0.299305 0)
(-5.38757 0.247374 0)
(-5.69965 0.188924 1.67729e-20)
(-5.92215 0.130583 0)
(-6.05463 0.0755578 0)
(-6.09981 0.0269867 1.68874e-20)
(-6.06656 -0.0148219 0)
(-5.97118 -0.0503881 0)
(-5.81706 -0.0824044 -1.3288e-20)
(-5.60913 -0.111795 -1.14314e-20)
(-5.35129 -0.139024 0)
(-5.04698 -0.164446 7.00027e-21)
(-4.69954 -0.188231 0)
(-4.31243 -0.210363 -1.9191e-21)
(-3.88955 -0.230577 0)
(-3.43509 -0.24834 3.41845e-21)
(-2.95371 -0.262642 6.05779e-21)
(-2.45125 -0.272464 0)
(-1.93463 -0.276877 0)
(-1.4121 -0.273462 0)
(-0.897682 -0.261715 0)
(-0.394762 -0.248905 0)
(0.104436 -0.243806 0)
(0.591394 -0.23838 0)
(1.05659 -0.221266 2.00135e-20)
(1.49014 -0.193653 -2.04316e-20)
(1.87944 -0.162503 0)
(2.22104 -0.132181 0)
(2.51374 -0.104431 0)
(2.75796 -0.0793481 0)
(2.9559 -0.0567435 -3.90097e-20)
(3.11148 -0.0370124 0)
(3.2297 -0.0208163 3.66985e-20)
(3.31586 -0.00818393 -3.54237e-20)
(3.37522 0.00131303 0)
(3.41265 0.00803147 0)
(3.43255 0.0121447 0)
(3.43879 0.0144258 3.02832e-20)
(3.4354 0.0175659 2.90818e-20)
(3.42656 0.0199609 0)
(3.4149 0.0213305 2.68953e-20)
(3.40221 0.0221237 2.59184e-20)
(3.38955 0.0228029 -2.50226e-20)
(3.37716 0.0237645 0)
(3.36467 0.0252086 0)
(3.35108 0.0273644 -2.28093e-20)
(3.335 0.0303893 0)
(3.31489 0.0339691 0)
(3.28937 0.0376391 0)
(3.25731 0.04116 0)
(3.21781 0.0445121 2.04161e-20)
(3.16994 0.0477369 2.00966e-20)
(3.11282 0.050528 0)
(3.04572 0.0524742 1.95937e-20)
(2.96836 0.0535287 0)
(2.88084 0.0535125 0)
(2.78368 0.0520227 1.91113e-20)
(2.67798 0.0487997 0)
(2.56537 0.0437459 1.89394e-20)
(2.44758 0.0371427 0)
(2.32584 0.0303556 0)
(2.2009 0.0247717 1.88717e-20)
(2.07331 0.0206999 0)
(1.94334 0.0181955 1.89054e-20)
(1.81121 0.0171861 0)
(1.67739 0.0175678 0)
(1.54254 0.0192749 0)
(1.4075 0.0220898 -1.89434e-20)
(1.27403 0.0251392 0)
(1.14652 0.0259404 1.8877e-20)
(1.03212 0.0223425 0)
(0.939805 0.016034 0)
(0.880548 0.00819715 0)
(0.861891 -0.00177061 0)
(0.887011 -0.0128733 0)
(0.954421 -0.022901 0)
(1.05576 -0.0298066 0)
(1.16775 -0.0319116 -3.90398e-20)
(1.27664 -0.0222353 0)
(1.28676 -0.00125782 0)
(0.0344194 -0.0866731 3.7627e-21)
(0.1016 -0.139821 -3.67325e-21)
(0.196914 -0.199302 0)
(0.305844 -0.261966 2.41449e-21)
(0.429134 -0.319778 0)
(0.56493 -0.366676 1.1663e-21)
(0.709234 -0.400713 -2.42842e-21)
(0.857614 -0.422082 -2.46878e-21)
(1.00608 -0.430702 0)
(1.15149 -0.426971 -2.59953e-21)
(1.2912 -0.411967 -1.26358e-21)
(1.42284 -0.387139 0)
(1.54434 -0.353985 0)
(1.65392 -0.313867 0)
(1.75003 -0.26795 0)
(1.83137 -0.21717 -1.47919e-21)
(1.89688 -0.162215 0)
(1.94583 -0.103522 3.25258e-21)
(1.9772 -0.0412195 0)
(1.99227 0.0245641 0)
(1.99107 0.093293 -3.23582e-21)
(1.97114 0.163784 0)
(1.92987 0.234637 3.06817e-21)
(1.86449 0.304252 -1.35748e-21)
(1.77175 0.370513 1.28116e-21)
(1.64847 0.431349 -1.19513e-21)
(1.4921 0.484627 -1.1021e-21)
(1.30196 0.528267 0)
(1.07892 0.560367 0)
(0.825268 0.579306 8.17178e-22)
(0.545082 0.58555 -8.8261e-22)
(0.243583 0.58147 0)
(-0.0733246 0.57087 0)
(-0.400434 0.559094 5.64173e-22)
(-0.731945 0.552026 0)
(-1.05986 0.554299 0)
(-1.37212 0.565432 -5.7368e-22)
(-1.65475 0.570892 0)
(-1.89382 0.549783 8.29809e-22)
(-2.07903 0.495662 -1.42575e-21)
(-2.20962 0.41876 0)
(-2.29682 0.336356 0)
(-2.35926 0.262882 -3.65024e-21)
(-2.41364 0.204627 -3.67049e-21)
(-2.46831 0.159477 -3.61691e-21)
(-2.52315 0.121047 1.9356e-21)
(-2.57368 0.0830931 -1.39685e-21)
(-2.61416 0.0416458 -4.02854e-21)
(-2.64057 -0.00471802 2.30804e-21)
(-2.64347 -0.0553899 5.65275e-22)
(-2.61629 -0.110667 0)
(-2.55779 -0.169193 3.70414e-22)
(-2.46584 -0.22905 -4.56569e-22)
(-2.33973 -0.287812 0)
(-2.18 -0.342702 0)
(-1.98779 -0.391448 0)
(-1.76584 -0.433638 3.78859e-21)
(-1.51775 -0.468425 0)
(-1.24831 -0.494968 -1.03695e-20)
(-0.960968 -0.51281 0)
(-0.660713 -0.521813 -1.34047e-20)
(-0.354237 -0.522812 0)
(-0.0472412 -0.516789 1.59617e-20)
(0.254478 -0.504061 0)
(0.546945 -0.485883 -1.7543e-20)
(0.826929 -0.464086 8.99447e-21)
(1.09223 -0.440809 0)
(1.34182 -0.417231 1.86192e-20)
(1.57569 -0.393595 9.37875e-21)
(1.79475 -0.370587 9.37164e-21)
(2.00014 -0.348894 0)
(2.19308 -0.328886 9.17449e-21)
(2.3748 -0.31094 9.10764e-21)
(2.54669 -0.29603 0)
(2.71055 -0.285005 -8.79207e-21)
(2.86828 -0.276627 1.71331e-20)
(3.02039 -0.26598 0)
(3.16404 -0.244 8.23274e-21)
(3.29043 -0.195423 0)
(3.39803 -0.101634 -2.35014e-20)
(3.49202 0.0320385 0)
(3.51707 0.153262 2.24411e-20)
(3.43334 0.207502 7.33425e-21)
(3.25021 0.195889 -7.26538e-21)
(3.00303 0.177291 -1.431e-20)
(2.70679 0.211157 1.39515e-20)
(2.33874 0.306736 0)
(1.86925 0.434836 0)
(1.29226 0.566685 0)
(0.621427 0.689733 -3.16279e-20)
(-0.123303 0.799585 -8.97393e-21)
(-0.915446 0.88961 7.00114e-21)
(-1.72478 0.953983 0)
(-2.52226 0.988894 1.47998e-21)
(-3.28189 0.992216 1.94028e-22)
(-3.98249 0.964984 2.79953e-21)
(-4.60817 0.91023 0)
(-5.14867 0.832379 0)
(-5.59892 0.736829 0)
(-5.95867 0.629393 1.2246e-20)
(-6.23171 0.515425 0)
(-6.42464 0.399765 -3.21303e-20)
(-6.54523 0.285797 -5.01941e-20)
(-6.60238 0.176021 3.48511e-20)
(-6.60444 0.0732441 0)
(-6.55702 -0.0200169 1.7584e-20)
(-6.46123 -0.103694 0)
(-6.30878 -0.178161 2.98091e-20)
(-6.10391 -0.24539 -1.38875e-20)
(-5.84942 -0.306402 -1.20712e-20)
(-5.54844 -0.361813 0)
(-5.20399 -0.411962 -2.12922e-20)
(-4.81917 -0.456842 9.73537e-21)
(-4.3972 -0.496061 1.85099e-21)
(-3.9415 -0.529003 0)
(-3.45574 -0.55584 -3.29831e-21)
(-2.94396 -0.576519 -1.66355e-20)
(-2.40996 -0.589344 0)
(-1.85907 -0.592882 -2.06054e-20)
(-1.29756 -0.586599 -2.50865e-20)
(-0.730936 -0.57336 -2.91549e-20)
(-0.163577 -0.562365 0)
(0.393573 -0.547689 0)
(0.928765 -0.522952 0)
(1.43643 -0.49092 1.90616e-20)
(1.90877 -0.450046 1.97887e-20)
(2.34121 -0.402577 0)
(2.72991 -0.351053 3.95908e-20)
(3.07054 -0.297475 3.92354e-20)
(3.36111 -0.245241 0)
(3.60222 -0.19723 3.79042e-20)
(3.7961 -0.154499 7.3616e-20)
(3.94681 -0.117569 -3.57635e-20)
(4.0596 -0.0865769 -3.44805e-20)
(4.14 -0.061225 0)
(4.19338 -0.0410202 0)
(4.22518 -0.0253617 0)
(4.24191 -0.0132819 -2.96939e-20)
(4.24765 -0.00537458 2.84841e-20)
(4.24451 -0.00125065 5.48619e-20)
(4.23633 0.000275099 -2.64398e-20)
(4.22583 0.000274365 2.54716e-20)
(4.21452 -0.000480351 2.46461e-20)
(4.2029 -0.00131484 0)
(4.19072 -0.00161584 0)
(4.17613 -0.000945724 -2.25459e-20)
(4.15758 0.000915805 0)
(4.13311 0.00405701 0)
(4.10057 0.00847025 4.2099e-20)
(4.05799 0.0139673 0)
(4.00389 0.0202592 2.0373e-20)
(3.93713 0.0273754 -1.99491e-20)
(3.85728 0.0355753 0)
(3.76324 0.0446648 1.95934e-20)
(3.65492 0.0541512 0)
(3.53379 0.0635826 0)
(3.40149 0.0725709 -1.89585e-20)
(3.26014 0.0807609 3.77374e-20)
(3.11214 0.087624 -1.87571e-20)
(2.96011 0.0929887 0)
(2.80639 0.0974426 0)
(2.65243 0.101323 1.84945e-20)
(2.4992 0.104412 0)
(2.3473 0.106664 1.84476e-20)
(2.1968 0.107966 0)
(2.04765 0.108144 0)
(1.89971 0.107034 0)
(1.75282 0.104262 1.86845e-20)
(1.60743 0.0989806 0)
(1.46583 0.0901199 -1.86633e-20)
(1.33415 0.0763813 0)
(1.22305 0.0560156 0)
(1.14521 0.0290845 3.7345e-20)
(1.11341 -0.0012647 -3.7532e-20)
(1.13281 -0.0315566 0)
(1.19732 -0.0566322 0)
(1.29878 -0.0712444 0)
(1.41253 -0.0696144 1.16272e-19)
(1.52225 -0.0439586 0)
(1.55619 -0.00136913 -7.78898e-20)
(0.0456217 -0.26762 7.37326e-23)
(0.137308 -0.366513 4.91117e-21)
(0.260553 -0.457129 0)
(0.394362 -0.545011 -4.83779e-21)
(0.536469 -0.621485 0)
(0.683519 -0.680047 0)
(0.83147 -0.717986 -1.36503e-22)
(0.976989 -0.735235 2.42996e-21)
(1.11756 -0.733134 2.66303e-21)
(1.25133 -0.713754 2.56393e-21)
(1.37689 -0.679417 0)
(1.49309 -0.632372 0)
(1.5989 -0.574647 -3.07694e-21)
(1.69337 -0.507989 -6.3712e-21)
(1.77564 -0.433874 6.57496e-21)
(1.84489 -0.353521 0)
(1.90041 -0.267935 6.90845e-21)
(1.94155 -0.177956 -3.23967e-21)
(1.96766 -0.0843956 0)
(1.97831 0.0122213 7.11542e-21)
(1.97329 0.111918 3.22869e-21)
(1.95239 0.214985 -6.95833e-21)
(1.91546 0.321442 -3.05922e-21)
(1.86178 0.430622 0)
(1.78962 0.541008 6.31576e-21)
(1.69631 0.650519 6.00001e-21)
(1.57864 0.756576 0)
(1.43323 0.855887 5.2521e-21)
(1.25749 0.944381 0)
(1.04888 1.01778 4.43138e-21)
(0.806151 1.07321 1.59231e-21)
(0.53162 1.10938 0)
(0.230398 1.12747 0)
(-0.0896437 1.13003 0)
(-0.415982 1.11738 0)
(-0.734888 1.08986 0)
(-1.02936 1.04303 0)
(-1.27962 0.964361 3.36314e-21)
(-1.47493 0.846289 -5.05853e-21)
(-1.62038 0.700386 0)
(-1.73739 0.554782 0)
(-1.8534 0.437107 0)
(-1.98635 0.360092 -4.20359e-22)
(-2.13863 0.31706 3.67384e-21)
(-2.30158 0.287275 7.74646e-21)
(-2.4625 0.252427 -7.51198e-21)
(-2.60917 0.203262 -3.88251e-21)
(-2.73153 0.137122 2.79642e-21)
(-2.82103 0.0547804 8.32222e-22)
(-2.87347 -0.0403291 2.4583e-21)
(-2.88549 -0.145908 0)
(-2.85352 -0.257401 6.53538e-22)
(-2.77721 -0.370244 8.76728e-22)
(-2.6573 -0.480296 0)
(-2.49542 -0.584053 0)
(-2.29253 -0.679605 4.73947e-21)
(-2.0509 -0.764413 0)
(-1.77512 -0.834962 0)
(-1.47013 -0.889702 -9.10438e-21)
(-1.14143 -0.928139 -2.24861e-20)
(-0.794867 -0.948853 1.31685e-20)
(-0.43702 -0.952085 0)
(-0.0748603 -0.939263 -1.57375e-20)
(0.283775 -0.912898 0)
(0.631766 -0.876173 -1.70094e-20)
(0.963057 -0.832057 -1.7799e-20)
(1.27266 -0.783425 3.61341e-20)
(1.5573 -0.733019 1.82358e-20)
(1.81598 -0.683441 0)
(2.04977 -0.636771 -3.67886e-20)
(2.26116 -0.594112 0)
(2.45328 -0.555683 -5.44088e-20)
(2.62944 -0.521541 -3.57503e-20)
(2.79285 -0.492647 -3.51567e-20)
(2.94639 -0.469595 3.44673e-20)
(3.09201 -0.450122 -5.06646e-20)
(3.22877 -0.426225 0)
(3.35104 -0.383333 0)
(3.44839 -0.304918 3.13182e-20)
(3.50823 -0.178087 4.61363e-20)
(3.52383 0.00210884 0)
(3.48608 0.20963 -1.48539e-20)
(3.3657 0.384061 0)
(3.134 0.490518 4.2864e-20)
(2.78238 0.570216 9.29154e-23)
(2.31306 0.697793 -7.36318e-23)
(1.73106 0.895635 -2.64023e-20)
(1.05077 1.12311 0)
(0.29869 1.33564 2.27293e-20)
(-0.493302 1.51155 1.08932e-21)
(-1.29233 1.64111 0)
(-2.06852 1.71892 0)
(-2.79816 1.74362 0)
(-3.46559 1.71785 -3.71011e-21)
(-4.06292 1.64702 0)
(-4.58859 1.53857 0)
(-5.04517 1.40077 0)
(-5.43717 1.24197 0)
(-5.76911 1.06984 0)
(-6.04432 0.890966 2.81942e-20)
(-6.26465 0.710731 0)
(-6.43065 0.533491 3.17419e-20)
(-6.54179 0.362831 3.35802e-20)
(-6.59681 0.201226 -3.45443e-20)
(-6.59459 0.0496857 0)
(-6.53533 -0.0917181 -3.37047e-20)
(-6.4199 -0.222666 0)
(-6.25129 -0.343264 -2.95578e-20)
(-6.03307 -0.453379 2.65099e-20)
(-5.7683 -0.55384 7.13938e-20)
(-5.45981 -0.645482 0)
(-5.11018 -0.728882 4.55725e-20)
(-4.72173 -0.804229 1.19247e-20)
(-4.29669 -0.871395 0)
(-3.83658 -0.929577 1.18432e-21)
(-3.34268 -0.979299 -9.24741e-21)
(-2.81889 -1.01955 3.03237e-20)
(-2.26979 -1.04885 0)
(-1.69971 -1.06484 2.04547e-20)
(-1.11328 -1.0672 2.49264e-20)
(-0.516503 -1.057 8.59546e-20)
(0.0806138 -1.03534 0)
(0.66542 -1.00022 0)
(1.22913 -0.950196 0)
(1.7643 -0.884898 3.75757e-20)
(2.26483 -0.806725 0)
(2.72578 -0.720527 0)
(3.14186 -0.630453 -3.89326e-20)
(3.51019 -0.539129 -3.85487e-20)
(3.83019 -0.448492 0)
(4.10061 -0.361211 0)
(4.32277 -0.281665 -7.23909e-20)
(4.50001 -0.212396 0)
(4.63703 -0.15359 6.79788e-20)
(4.73933 -0.104587 6.53915e-20)
(4.81258 -0.064719 0)
(4.86246 -0.0334021 0)
(4.89359 -0.0102371 -5.82644e-20)
(4.91105 0.00405384 -2.20364e-22)
(4.92061 0.0127822 -2.25152e-22)
(4.92603 0.0174217 0)
(4.92985 0.0192588 -1.00377e-19)
(4.93374 0.0197379 0)
(4.93857 0.0203036 0)
(4.94423 0.0219972 0)
(4.94997 0.0258111 4.45365e-20)
(4.95406 0.0324317 0)
(4.95389 0.0418338 -8.45722e-20)
(4.94601 0.053824 -4.16879e-20)
(4.9265 0.0681056 0)
(4.89115 0.084261 -4.03244e-20)
(4.83569 0.101795 0)
(4.75775 0.11974 0)
(4.65657 0.137052 -1.16475e-19)
(4.53236 0.153243 7.69314e-20)
(4.38644 0.167587 0)
(4.22144 0.179265 7.59588e-20)
(4.04102 0.188052 -3.78695e-20)
(3.84933 0.193941 0)
(3.64951 0.196803 0)
(3.44653 0.197243 0)
(3.24466 0.195769 -1.11925e-19)
(3.04725 0.193092 0)
(2.85659 0.190075 -3.72531e-20)
(2.67369 0.187029 0)
(2.4988 0.183949 0)
(2.3317 0.180761 0)
(2.17207 0.17694 0)
(2.02017 0.17077 0)
(1.87771 0.15907 0)
(1.74894 0.13785 -7.41138e-20)
(1.64086 0.104115 0)
(1.56127 0.0578437 -3.72463e-20)
(1.51569 0.00366901 1.12297e-19)
(1.50746 -0.0507981 0)
(1.53694 -0.0967201 0)
(1.60193 -0.125017 -7.68843e-20)
(1.6847 -0.125021 -7.75456e-20)
(1.76918 -0.0844221 7.81641e-20)
(1.78942 -0.00875636 7.7969e-20)
(0.0514982 -0.472047 -7.85097e-21)
(0.151423 -0.618142 -7.60122e-21)
(0.285394 -0.738899 -5.13554e-21)
(0.426712 -0.844561 -2.70607e-21)
(0.571424 -0.926507 0)
(0.715521 -0.980638 5.24384e-21)
(0.855365 -1.00732 -2.87102e-21)
(0.988887 -1.00912 0)
(1.11503 -0.989214 -2.63981e-21)
(1.23313 -0.950635 0)
(1.34262 -0.896091 6.18352e-21)
(1.44293 -0.827933 0)
(1.53343 -0.748195 3.06813e-21)
(1.61348 -0.658645 6.36084e-21)
(1.68243 -0.56082 -6.57169e-21)
(1.73971 -0.456047 0)
(1.78479 -0.345449 -6.91839e-21)
(1.81726 -0.229945 0)
(1.83676 -0.110261 0)
(1.84279 0.0130933 -7.14057e-21)
(1.83508 0.139592 0)
(1.81334 0.269084 -7.4836e-22)
(1.7772 0.401566 0)
(1.7263 0.537028 0)
(1.6601 0.675314 8.63152e-22)
(1.57769 0.815883 -5.99624e-21)
(1.47764 0.957465 -6.5846e-21)
(1.35773 1.09762 -5.2345e-21)
(1.21572 1.23244 0)
(1.04855 1.35691 -9.86622e-21)
(0.853132 1.46465 0)
(0.62909 1.54906 -4.72835e-21)
(0.378414 1.60467 0)
(0.107798 1.62666 0)
(-0.172402 1.61124 4.04108e-21)
(-0.451409 1.55717 0)
(-0.714863 1.45778 -3.9592e-21)
(-0.949049 1.30857 6.68886e-22)
(-1.15472 1.12297 7.70247e-21)
(-1.35109 0.939241 -8.5306e-21)
(-1.56603 0.802518 0)
(-1.81545 0.728355 0)
(-2.09646 0.696656 -5.49878e-21)
(-2.38859 0.674686 0)
(-2.66813 0.636463 -4.04184e-21)
(-2.92009 0.569729 3.95355e-21)
(-3.13422 0.472476 3.76686e-21)
(-3.30381 0.347481 0)
(-3.42469 0.199465 -3.00228e-21)
(-3.49496 0.0336748 -2.38284e-21)
(-3.51457 -0.142572 6.20761e-21)
(-3.48339 -0.323397 -6.32736e-22)
(-3.40255 -0.503199 4.77826e-22)
(-3.27333 -0.677573 0)
(-3.0981 -0.842754 0)
(-2.8802 -0.994974 -4.59692e-21)
(-2.62274 -1.1297 0)
(-2.32954 -1.24348 0)
(-2.00466 -1.3341 1.86905e-20)
(-1.65263 -1.3999 2.18307e-20)
(-1.27815 -1.43971 0)
(-0.886078 -1.45302 0)
(-0.481682 -1.44011 0)
(-0.0709912 -1.40249 0)
(0.337758 -1.34359 3.40601e-20)
(0.735581 -1.26834 -3.4666e-20)
(1.11394 -1.18195 -3.58449e-20)
(1.46507 -1.09023 -7.23341e-20)
(1.78318 -0.999183 0)
(2.06556 -0.913894 1.57028e-22)
(2.3129 -0.837652 0)
(2.52876 -0.771691 3.5918e-20)
(2.7187 -0.715798 1.50536e-22)
(2.88791 -0.670108 3.4881e-20)
(3.04084 -0.634458 -3.42121e-20)
(3.18012 -0.602926 2.43207e-22)
(3.30306 -0.561701 0)
(3.40031 -0.490587 -3.15718e-20)
(3.45747 -0.368653 -3.11848e-20)
(3.45872 -0.182737 -6.07319e-20)
(3.39215 0.0644553 0)
(3.25304 0.346982 2.89619e-20)
(3.03174 0.617295 0)
(2.70166 0.847757 -5.66401e-20)