/*--------------------------------*- C++ -*----------------------------------*\
| =========                 |                                                 |
| \\      /  F ield         | OpenFOAM: The Open Source CFD Toolbox           |
|  \\    /   O peration     | Version:  2112                                  |
|   \\  /    A nd           | Website:  www.openfoam.com                      |
|    \\/     M anipulation  |                                                 |
\*---------------------------------------------------------------------------*/
FoamFile
{
    version     2.0;
    format      ascii;
    arch        "LSB;label=32;scalar=64";
    class       surfaceScalarField;
    location    "0.14";
    object      phi;
}
// * * * * * * * * * * * * * * * * * * * * * * * * * * * * * * * * * * * * * //

dimensions      [0 3 -1 0 0 0 0];

oriented        oriented;

internalField   nonuniform List<scalar> 
24170
(
2.89696e-06
2.96291e-07
2.70747e-06
1.89492e-07
2.56027e-06
1.47199e-07
2.44397e-06
1.16296e-07
2.34314e-06
1.00827e-07
2.25423e-06
8.89131e-08
2.17559e-06
7.8637e-08
2.10558e-06
7.00177e-08
2.04292e-06
6.26567e-08
1.98635e-06
5.65648e-08
1.93485e-06
5.15009e-08
1.88688e-06
4.7971e-08
1.84171e-06
4.51712e-08
1.79763e-06
4.40851e-08
1.75283e-06
4.47982e-08
1.70656e-06
4.62654e-08
1.63186e-06
7.47026e-08
1.08018e-07
1.52384e-06
3.45052e-06
2.68037e-07
3.34624e-06
2.93775e-07
3.2408e-06
2.5264e-07
3.12837e-06
2.28719e-07
3.02002e-06
2.09176e-07
2.92263e-06
1.86305e-07
2.83677e-06
1.64498e-07
2.76115e-06
1.45639e-07
2.69441e-06
1.294e-07
2.63512e-06
1.15852e-07
2.58184e-06
1.04783e-07
2.53302e-06
9.67877e-08
2.48724e-06
9.09504e-08
2.44266e-06
8.8662e-08
2.39762e-06
8.98383e-08
2.34686e-06
9.70312e-08
2.30315e-06
1.18411e-07
1.45731e-07
2.26544e-06
3.72836e-06
2.07374e-07
3.73823e-06
2.83908e-07
3.73923e-06
2.51642e-07
3.72946e-06
2.38485e-07
3.70753e-06
2.31107e-07
3.67528e-06
2.18559e-07
3.63809e-06
2.01687e-07
3.59853e-06
1.852e-07
3.55827e-06
1.69657e-07
3.51855e-06
1.55567e-07
3.47958e-06
1.43757e-07
3.44166e-06
1.34704e-07
3.40357e-06
1.29047e-07
3.36554e-06
1.26688e-07
3.32493e-06
1.30448e-07
3.28243e-06
1.39533e-07
3.23744e-06
1.63398e-07
2.02812e-07
3.18036e-06
3.98363e-06
1.54465e-07
4.01338e-06
2.54158e-07
4.02769e-06
2.37328e-07
4.0441e-06
2.22072e-07
4.05739e-06
2.17819e-07
4.06477e-06
2.11178e-07
4.06657e-06
1.9989e-07
4.06454e-06
1.87227e-07
4.05942e-06
1.74777e-07
4.05204e-06
1.62951e-07
4.04271e-06
1.53089e-07
4.03194e-06
1.45471e-07
4.01948e-06
1.41507e-07
4.00513e-06
1.41036e-07
3.98854e-06
1.47039e-07
3.96898e-06
1.59092e-07
3.94838e-06
1.84003e-07
2.19174e-07
3.93201e-06
4.25603e-06
1.11021e-07
4.28615e-06
2.24038e-07
4.30055e-06
2.22924e-07
4.31584e-06
2.06782e-07
4.33167e-06
2.01989e-07
4.34463e-06
1.98218e-07
4.35434e-06
1.9018e-07
4.36189e-06
1.79681e-07
4.36775e-06
1.68915e-07
4.37211e-06
1.58592e-07
4.37542e-06
1.4977e-07
4.37787e-06
1.43027e-07
4.37967e-06
1.39703e-07
4.38038e-06
1.40326e-07
4.38081e-06
1.46609e-07
4.38027e-06
1.59631e-07
4.38385e-06
1.80425e-07
2.08293e-07
4.39473e-06
4.54597e-06
7.96918e-08
4.57705e-06
1.92955e-07
4.59472e-06
2.05258e-07
4.60885e-06
1.92652e-07
4.62371e-06
1.87123e-07
4.63726e-06
1.8467e-07
4.64805e-06
1.7939e-07
4.6565e-06
1.71234e-07
4.66336e-06
1.62052e-07
4.66906e-06
1.52892e-07
4.67409e-06
1.44747e-07
4.67858e-06
1.38535e-07
4.68295e-06
1.35335e-07
4.68711e-06
1.36164e-07
4.69208e-06
1.41637e-07
4.69873e-06
1.5298e-07
4.71059e-06
1.68566e-07
1.89347e-07
4.72954e-06
4.86198e-06
5.60543e-08
4.8932e-06
1.61733e-07
4.91309e-06
1.85365e-07
4.92664e-06
1.79106e-07
4.94042e-06
1.73341e-07
4.95393e-06
1.71163e-07
4.96531e-06
1.6801e-07
4.97432e-06
1.62218e-07
4.98168e-06
1.54692e-07
4.9879e-06
1.46675e-07
4.99346e-06
1.3919e-07
4.99859e-06
1.33401e-07
5.00378e-06
1.30142e-07
5.00935e-06
1.30598e-07
5.01631e-06
1.34676e-07
5.02596e-06
1.43329e-07
5.04031e-06
1.54216e-07
1.67591e-07
5.06207e-06
5.20308e-06
3.81953e-08
5.23201e-06
1.32802e-07
5.2524e-06
1.64975e-07
5.26659e-06
1.64917e-07
5.28003e-06
1.59905e-07
5.29346e-06
1.57735e-07
5.30542e-06
1.56042e-07
5.31526e-06
1.52384e-07
5.32336e-06
1.46587e-07
5.33031e-06
1.39728e-07
5.33663e-06
1.32867e-07
5.34272e-06
1.27316e-07
5.34906e-06
1.238e-07
5.35623e-06
1.23433e-07
5.36513e-06
1.25769e-07
5.37705e-06
1.31412e-07
5.39344e-06
1.37827e-07
1.45453e-07
5.41558e-06
5.57047e-06
2.46714e-08
5.59597e-06
1.07306e-07
5.61688e-06
1.4406e-07
5.63204e-06
1.49762e-07
5.64554e-06
1.46402e-07
5.65887e-06
1.44405e-07
5.67123e-06
1.43686e-07
5.68186e-06
1.41748e-07
5.69085e-06
1.37604e-07
5.69864e-06
1.31931e-07
5.70581e-06
1.25695e-07
5.71288e-06
1.20254e-07
5.72036e-06
1.16313e-07
5.72897e-06
1.14831e-07
5.73949e-06
1.15241e-07
5.75306e-06
1.17846e-07
5.77058e-06
1.20307e-07
1.22487e-07
5.79354e-06
5.9657e-06
1.42702e-08
5.9877e-06
8.53027e-08
6.00851e-06
1.23257e-07
6.02457e-06
1.33704e-07
6.03825e-06
1.32713e-07
6.05153e-06
1.31133e-07
6.06421e-06
1.30999e-07
6.07558e-06
1.3038e-07
6.08541e-06
1.27776e-07
6.09406e-06
1.23281e-07
6.1021e-06
1.17658e-07
6.11012e-06
1.12227e-07
6.11873e-06
1.07706e-07
6.1286e-06
1.04959e-07
6.14045e-06
1.03393e-07
6.15515e-06
1.03151e-07
6.1734e-06
1.0205e-07
9.99956e-08
6.19589e-06
6.39041e-06
6.03843e-09
6.40922e-06
6.64906e-08
6.42919e-06
1.03281e-07
6.44584e-06
1.17055e-07
6.45994e-06
1.18614e-07
6.4733e-06
1.17772e-07
6.48625e-06
1.18056e-07
6.49819e-06
1.18434e-07
6.50881e-06
1.17157e-07
6.51834e-06
1.13757e-07
6.52729e-06
1.087e-07
6.53632e-06
1.03204e-07
6.54599e-06
9.80339e-08
6.55696e-06
9.39917e-08
6.56978e-06
9.05717e-08
6.58511e-06
8.78221e-08
6.60328e-06
8.38721e-08
7.86924e-08
6.62459e-06
5.75096e-06
2.47594e-10
5.76473e-06
5.27226e-08
5.78061e-06
8.7401e-08
5.79482e-06
1.02845e-07
5.80707e-06
1.06362e-07
5.81854e-06
1.06301e-07
5.82972e-06
1.06882e-07
5.84029e-06
1.07866e-07
5.84991e-06
1.07536e-07
5.85865e-06
1.05018e-07
5.86689e-06
1.00461e-07
5.87516e-06
9.49333e-08
5.88396e-06
8.92307e-08
5.89379e-06
8.41599e-08
5.90502e-06
7.93439e-08
5.91801e-06
7.48317e-08
5.93284e-06
6.90411e-08
6.20065e-08
5.94953e-06
7.00854e-06
-5.4612e-09
7.02222e-06
3.90417e-08
7.03909e-06
7.05327e-08
7.05519e-06
8.67434e-08
7.06956e-06
9.19929e-08
7.083e-06
9.28638e-08
7.09612e-06
9.37585e-08
7.10872e-06
9.52685e-08
7.1204e-06
9.58542e-08
7.13114e-06
9.42784e-08
7.14129e-06
9.03132e-08
7.15141e-06
8.48116e-08
7.16204e-06
7.85945e-08
7.17369e-06
7.25104e-08
7.18666e-06
6.63756e-08
7.20119e-06
6.03006e-08
7.21719e-06
5.30449e-08
4.47177e-08
7.23448e-06
8.54123e-06
-1.10435e-08
8.55464e-06
2.56327e-08
8.57215e-06
5.30234e-08
8.5899e-06
6.8995e-08
8.60646e-06
7.54302e-08
8.62215e-06
7.71769e-08
8.63751e-06
7.83917e-08
8.65244e-06
8.03435e-08
8.66648e-06
8.18071e-08
8.67951e-06
8.12539e-08
8.69179e-06
7.80319e-08
8.70389e-06
7.27113e-08
8.71637e-06
6.61121e-08
8.72972e-06
5.91637e-08
8.74415e-06
5.19487e-08
8.75974e-06
4.47025e-08
8.77623e-06
3.65636e-08
2.77113e-08
8.79323e-06
1.04092e-05
-1.64436e-08
1.04222e-05
1.25772e-08
1.04401e-05
3.51287e-08
1.04592e-05
4.98709e-08
1.04779e-05
5.67495e-08
1.04961e-05
5.90456e-08
1.0514e-05
6.04632e-08
1.05316e-05
6.27448e-08
1.05483e-05
6.50695e-08
1.05639e-05
6.56938e-08
1.05784e-05
6.3499e-08
1.05924e-05
5.86809e-08
1.06065e-05
5.20136e-08
1.06212e-05
4.45387e-08
1.06364e-05
3.66656e-08
1.06523e-05
2.88177e-08
1.06684e-05
2.05228e-08
1.20035e-08
1.06841e-05
1.26857e-05
-2.17284e-08
1.26985e-05
-1.61679e-10
1.27166e-05
1.70176e-08
1.27369e-05
2.95744e-08
1.27575e-05
3.60968e-08
1.27782e-05
3.84152e-08
1.27989e-05
3.9726e-08
1.28195e-05
4.21488e-08
1.28393e-05
4.53111e-08
1.28576e-05
4.73553e-08
1.28744e-05
4.66597e-08
1.28902e-05
4.29259e-08
1.29054e-05
3.67688e-08
1.29206e-05
2.9337e-08
1.29359e-05
2.1376e-08
1.29512e-05
1.35674e-08
1.29658e-05
5.8617e-09
-1.27928e-09
1.29791e-05
1.54601e-05
-2.68133e-08
1.54732e-05
-1.32635e-08
1.54915e-05
-1.31535e-09
1.55131e-05
8.02915e-09
1.55356e-05
1.35717e-08
1.55586e-05
1.54001e-08
1.55822e-05
1.61182e-08
1.56061e-05
1.82792e-08
1.56293e-05
2.21201e-08
1.56508e-05
2.58407e-08
1.56701e-05
2.73188e-08
1.56874e-05
2.5617e-08
1.57032e-05
2.09699e-08
1.57181e-05
1.44763e-08
1.57323e-05
7.13687e-09
1.57461e-05
-1.50437e-10
1.57587e-05
-6.75377e-09
-1.25951e-08
1.577e-05
1.88413e-05
-3.19976e-08
1.88548e-05
-2.6739e-08
1.88747e-05
-2.1212e-08
1.88983e-05
-1.55112e-08
1.89233e-05
-1.1452e-08
1.89488e-05
-1.01544e-08
1.89751e-05
-1.01217e-08
1.9002e-05
-8.68704e-09
1.90288e-05
-4.62454e-09
1.90541e-05
5.21188e-10
1.9077e-05
4.47458e-09
1.90968e-05
5.80332e-09
1.91137e-05
4.03025e-09
1.91281e-05
9.17011e-11
1.91412e-05
-5.92304e-09
1.91527e-05
-1.17161e-08
1.91629e-05
-1.69151e-08
-2.09762e-08
1.91713e-05
2.29624e-05
-3.7887e-08
2.29778e-05
-4.20515e-08
2.30008e-05
-4.42127e-08
2.30287e-05
-4.34411e-08
2.30583e-05
-4.10436e-08
2.30878e-05
-3.96295e-08
2.31168e-05
-3.916e-08
2.31462e-05
-3.81248e-08
2.31763e-05
-3.46607e-08
2.32056e-05
-2.87994e-08
2.32325e-05
-2.23875e-08
2.32557e-05
-1.74937e-08
2.32752e-05
-1.53943e-08
2.32913e-05
-1.6085e-08
2.33043e-05
-1.88722e-08
2.33151e-05
-2.2491e-08
2.33243e-05
-2.61014e-08
-2.87489e-08
2.3332e-05
1.68077e-05
-4.29455e-08
1.68207e-05
-5.49592e-08
1.68392e-05
-6.27992e-08
1.68608e-05
-6.50209e-08
1.68835e-05
-6.37414e-08
1.69058e-05
-6.18648e-08
1.69275e-05
-6.09314e-08
1.69494e-05
-5.99706e-08
1.69718e-05
-5.70426e-08
1.69943e-05
-5.13085e-08
1.70157e-05
-4.37836e-08
1.70346e-05
-3.64164e-08
1.70502e-05
-3.10162e-08
1.70624e-05
-2.82912e-08
1.70717e-05
-2.81233e-08
1.70786e-05
-2.94723e-08
1.7084e-05
-3.14828e-08
-3.31306e-08
1.70884e-05
1.46312e-05
-4.84009e-08
1.46457e-05
-6.93867e-08
1.46659e-05
-8.30061e-08
1.46875e-05
-8.66808e-08
1.47085e-05
-8.47498e-08
1.47283e-05
-8.16049e-08
1.47465e-05
-7.9176e-08
1.47637e-05
-7.71947e-08
1.47809e-05
-7.41847e-08
1.47986e-05
-6.90364e-08
1.48168e-05
-6.19488e-08
1.48345e-05
-5.41406e-08
1.48506e-05
-4.71686e-08
1.48644e-05
-4.20292e-08
1.48754e-05
-3.91324e-08
1.4884e-05
-3.80311e-08
1.48907e-05
-3.81836e-08
-3.86231e-08
1.48961e-05
1.27379e-05
-5.49809e-08
1.27542e-05
-8.5688e-08
1.27761e-05
-1.04912e-07
1.27989e-05
-1.09473e-07
1.28205e-05
-1.06414e-07
1.28405e-05
-1.01578e-07
1.28589e-05
-9.75763e-08
1.28759e-05
-9.4211e-08
1.2892e-05
-9.02627e-08
1.29078e-05
-8.48002e-08
1.29236e-05
-7.77675e-08
1.29392e-05
-6.98026e-08
1.2954e-05
-6.19761e-08
1.29672e-05
-5.51585e-08
1.2978e-05
-4.99947e-08
1.29865e-05
-4.64508e-08
1.29926e-05
-4.42992e-08
-4.30491e-08
1.2997e-05
1.10923e-05
-6.48014e-08
1.11125e-05
-1.05952e-07
1.11338e-05
-1.2622e-07
1.11539e-05
-1.29536e-07
1.11725e-05
-1.25053e-07
1.11904e-05
-1.1941e-07
1.12074e-05
-1.14557e-07
1.1223e-05
-1.09859e-07
1.12372e-05
-1.04507e-07
1.12507e-05
-9.82314e-08
1.12641e-05
-9.11727e-08
1.12779e-05
-8.35754e-08
1.12918e-05
-7.59025e-08
1.13052e-05
-6.86085e-08
1.13175e-05
-6.22389e-08
1.13281e-05
-5.70363e-08
1.13369e-05
-5.31097e-08
-5.01651e-08
1.1344e-05
9.66149e-06
-7.89515e-08
9.6907e-06
-1.35168e-07
9.71724e-06
-1.5276e-07
9.73727e-06
-1.49562e-07
9.75416e-06
-1.41945e-07
9.77064e-06
-1.35889e-07
9.78669e-06
-1.30609e-07
9.80135e-06
-1.24517e-07
9.81425e-06
-1.17413e-07
9.82587e-06
-1.09849e-07
9.83701e-06
-1.02316e-07
9.84825e-06
-9.48127e-08
9.85972e-06
-8.73697e-08
9.87114e-06
-8.00337e-08
9.882e-06
-7.31014e-08
9.89177e-06
-6.67999e-08
9.89999e-06
-6.13304e-08
-5.68995e-08
9.90672e-06
8.41338e-06
-9.41509e-08
8.44316e-06
-1.64952e-07
8.46879e-06
-1.78387e-07
8.48774e-06
-1.68507e-07
8.5046e-06
-1.58812e-07
8.52155e-06
-1.52838e-07
8.53778e-06
-1.46831e-07
8.5523e-06
-1.39046e-07
8.56503e-06
-1.30138e-07
8.57641e-06
-1.21226e-07
8.58701e-06
-1.1292e-07
8.59728e-06
-1.05083e-07
8.6076e-06
-9.76929e-08
8.61801e-06
-9.04352e-08
8.62833e-06
-8.34224e-08
8.63817e-06
-7.66412e-08
8.64715e-06
-7.03118e-08
-6.44599e-08
8.65471e-06
7.34675e-06
-1.30051e-07
7.37974e-06
-1.97942e-07
7.39927e-06
-1.97922e-07
7.41439e-06
-1.83623e-07
7.42992e-06
-1.74341e-07
7.44516e-06
-1.68083e-07
7.45895e-06
-1.60615e-07
7.47113e-06
-1.51225e-07
7.48208e-06
-1.41089e-07
7.4923e-06
-1.3145e-07
7.50206e-06
-1.22678e-07
7.51105e-06
-1.14076e-07
7.51979e-06
-1.06434e-07
7.52838e-06
-9.90264e-08
7.53703e-06
-9.20666e-08
7.5456e-06
-8.52104e-08
7.5541e-06
-7.88142e-08
-7.22781e-08
7.56192e-06
6.4044e-06
-1.70112e-07
6.44674e-06
-2.40277e-07
6.46713e-06
-2.18315e-07
6.48423e-06
-2.00719e-07
6.50256e-06
-1.92671e-07
6.51851e-06
-1.84036e-07
6.53113e-06
-1.73236e-07
6.54195e-06
-1.62047e-07
6.55105e-06
-1.50189e-07
6.55901e-06
-1.39403e-07
6.56602e-06
-1.29696e-07
6.57224e-06
-1.20293e-07
6.57785e-06
-1.12044e-07
6.58253e-06
-1.03704e-07
6.58727e-06
-9.68037e-08
6.59124e-06
-8.91822e-08
6.59595e-06
-8.35246e-08
-7.69535e-08
6.60062e-06
5.59327e-06
-2.22966e-07
5.61018e-06
-2.57187e-07
5.62303e-06
-2.31169e-07
5.63311e-06
-2.10797e-07
5.63604e-06
-1.95607e-07
5.6339e-06
-1.8189e-07
5.62681e-06
-1.66143e-07
5.61584e-06
-1.51085e-07
5.60322e-06
-1.37561e-07
5.58931e-06
-1.25496e-07
5.57439e-06
-1.14782e-07
5.559e-06
-1.04904e-07
5.54324e-06
-9.62828e-08
5.52768e-06
-8.81445e-08
5.51259e-06
-8.17153e-08
5.49804e-06
-7.46235e-08
5.48443e-06
-6.99184e-08
-6.18206e-08
5.4693e-06
4.90143e-06
-3.01225e-07
4.84097e-06
-1.96726e-07
4.77347e-06
-1.63669e-07
4.69118e-06
-1.28512e-07
4.6016e-06
-1.0602e-07
4.51218e-06
-9.24758e-08
4.42791e-06
-8.18705e-08
4.35003e-06
-7.32087e-08
4.27859e-06
-6.61144e-08
4.21326e-06
-6.01674e-08
4.15356e-06
-5.50859e-08
4.09909e-06
-5.04293e-08
4.04957e-06
-4.67645e-08
4.00378e-06
-4.23537e-08
3.9633e-06
-4.12354e-08
3.92388e-06
-3.52084e-08
3.89962e-06
-4.56596e-08
-3.55114e-08
3.87331e-06
3.89757e-06
3.70084e-06
3.53717e-06
3.40866e-06
3.30264e-06
3.21016e-06
3.12829e-06
3.05508e-06
2.98897e-06
2.9288e-06
2.87372e-06
2.82329e-06
2.77652e-06
2.73417e-06
2.69293e-06
2.65772e-06
2.61207e-06
2.57655e-06
-4.76663e-07
4.76663e-07
-8.43417e-07
3.66754e-07
-1.07618e-06
2.32763e-07
-1.10723e-06
3.10467e-08
-9.09065e-07
-1.98162e-07
-4.93194e-07
-4.1587e-07
1.08658e-07
-6.01853e-07
8.40989e-07
-7.32331e-07
1.65443e-06
-8.13443e-07
2.50168e-06
-8.47246e-07
3.34233e-06
-8.40655e-07
4.1458e-06
-8.03462e-07
4.89048e-06
-7.44687e-07
5.56195e-06
-6.7147e-07
6.15108e-06
-5.89123e-07
6.6527e-06
-5.01626e-07
7.0645e-06
-4.11802e-07
7.38525e-06
-3.20741e-07
7.61259e-06
-2.27344e-07
7.74416e-06
-1.31569e-07
7.77611e-06
-3.19553e-08
7.70351e-06
7.26002e-08
7.51995e-06
1.83563e-07
7.21976e-06
3.00192e-07
6.79815e-06
4.2161e-07
6.24739e-06
5.50758e-07
5.56659e-06
6.808e-07
4.74325e-06
8.23339e-07
3.80096e-06
9.42294e-07
2.71959e-06
1.08136e-06
1.59636e-06
1.12323e-06
6.79941e-07
9.1642e-07
-1.03815e-07
7.83757e-07
-8.12916e-07
7.09101e-07
-1.4199e-06
6.0698e-07
-1.90225e-06
4.82349e-07
-2.1774e-06
2.7515e-07
-2.09735e-06
-8.00407e-08
-1.61933e-06
-4.78028e-07
-6.44293e-07
-9.75034e-07
6.22211e-07
-1.2665e-06
1.78528e-06
-1.16307e-06
2.54623e-06
-7.60954e-07
2.76543e-06
-2.192e-07
2.58357e-06
1.81858e-07
2.28055e-06
3.0302e-07
2.16275e-06
1.17805e-07
2.17033e-06
-7.58543e-09
2.08045e-06
8.98879e-08
1.5938e-06
4.86642e-07
5.15551e-07
1.07825e-06
-8.73738e-07
1.38929e-06
-2.31178e-06
1.43805e-06
-3.71031e-06
1.39853e-06
-5.02085e-06
1.31054e-06
-6.21988e-06
1.19903e-06
-7.29902e-06
1.07914e-06
-8.25896e-06
9.59945e-07
-9.10534e-06
8.46375e-07
-9.84576e-06
7.40417e-07
-1.0488e-05
6.42286e-07
-1.10393e-05
5.51229e-07
-1.15053e-05
4.66074e-07
-1.18909e-05
3.8558e-07
-1.21996e-05
3.08693e-07
-1.24343e-05
2.34711e-07
-1.25976e-05
1.6325e-07
-1.26918e-05
9.42359e-08
-1.27201e-05
2.82842e-08
-1.26888e-05
-3.12791e-08
-1.26022e-05
-8.66256e-08
-1.24662e-05
-1.36032e-07
-1.22861e-05
-1.80026e-07
-1.20678e-05
-2.18336e-07
-1.18171e-05
-2.50655e-07
-1.15402e-05
-2.76931e-07
-1.12429e-05
-2.97283e-07
-1.09307e-05
-3.1219e-07
-1.06084e-05
-3.22359e-07
-1.02796e-05
-3.28806e-07
-9.94679e-06
-3.32791e-07
-9.61095e-06
-3.35834e-07
-9.27127e-06
-3.39686e-07
-8.92494e-06
-3.46327e-07
-8.567e-06
-3.57939e-07
-8.19014e-06
-3.76856e-07
-7.78471e-06
-4.05432e-07
-7.33899e-06
-4.45717e-07
-6.84004e-06
-4.9895e-07
-6.27509e-06
-5.64958e-07
-5.63356e-06
-6.41528e-07
-4.90978e-06
-7.23776e-07
-4.10604e-06
-8.03743e-07
-3.23488e-06
-8.71157e-07
-2.31808e-06
-9.16801e-07
-1.38409e-06
-9.33992e-07
-4.64235e-07
-9.19853e-07
4.12661e-07
-8.76896e-07
1.2215e-06
-8.08835e-07
1.94783e-06
-7.26332e-07
2.58528e-06
-6.37458e-07
3.13429e-06
-5.49008e-07
3.59948e-06
-4.65184e-07
3.98777e-06
-3.88289e-07
4.30704e-06
-3.19274e-07
4.56526e-06
-2.5822e-07
4.76995e-06
-2.04692e-07
4.92783e-06
-1.57874e-07
5.04482e-06
-1.16998e-07
5.12601e-06
-8.11865e-08
5.17559e-06
-4.95822e-08
5.19737e-06
-2.17726e-08
5.19389e-06
3.47615e-09
5.16775e-06
2.614e-08
5.12103e-06
4.67191e-08
5.05766e-06
6.33677e-08
4.98083e-06
7.68283e-08
4.89282e-06
8.80133e-08
4.79597e-06
9.68527e-08
4.69257e-06
1.03401e-07
4.58375e-06
1.08817e-07
4.46909e-06
1.14657e-07
4.34785e-06
1.21238e-07
4.22025e-06
1.27609e-07
4.08766e-06
1.32582e-07
3.95038e-06
1.37287e-07
3.80388e-06
1.46493e-07
3.64175e-06
1.62134e-07
3.46559e-06
1.76161e-07
3.28656e-06
1.79033e-07
3.11189e-06
1.74669e-07
2.93948e-06
1.72405e-07
2.76981e-06
1.6967e-07
2.61455e-06
1.55265e-07
2.49e-06
1.24548e-07
2.39877e-06
9.12247e-08
2.32629e-06
7.24882e-08
2.26507e-06
6.12148e-08
2.22855e-06
3.65192e-08
2.23354e-06
-4.99067e-09
2.28938e-06
-5.58416e-08
2.42314e-06
-1.33753e-07
2.66516e-06
-2.42026e-07
2.96544e-06
-3.00279e-07
3.20358e-06
-2.3814e-07
3.2936e-06
-9.00227e-08
3.21486e-06
7.87416e-08
2.92254e-06
2.92322e-07
2.31525e-06
6.07287e-07
1.35347e-06
9.61787e-07
1.35699e-07
1.21777e-06
-1.13669e-06
1.27238e-06
-2.34491e-06
1.20822e-06
-3.38695e-06
1.04204e-06
-4.20426e-06
8.17316e-07
-4.76307e-06
5.58805e-07
-5.04627e-06
2.83202e-07
-5.06283e-06
1.65633e-08
-4.82319e-06
-2.39646e-07
-4.358e-06
-4.65182e-07
-3.70367e-06
-6.54332e-07
-2.90872e-06
-7.94953e-07
-2.03076e-06
-8.77964e-07
-1.13012e-06
-9.00637e-07
-2.65084e-07
-8.65034e-07
5.20257e-07
-7.85341e-07
1.20467e-06
-6.84413e-07
1.78637e-06
-5.81701e-07
2.27217e-06
-4.85795e-07
2.67135e-06
-3.9918e-07
2.98894e-06
-3.17589e-07
3.23238e-06
-2.43445e-07
3.4031e-06
-1.70721e-07
3.52337e-06
-1.20269e-07
3.58885e-06
-6.54751e-08
3.65927e-06
-7.04218e-08
3.70001e-06
-4.07458e-08
3.78475e-06
-8.47322e-08
3.87686e-06
-9.21102e-08
-1.76862e-07
4.05372e-06
6.58188e-08
4.10844e-07
7.21997e-08
3.60373e-07
1.52019e-07
1.52944e-07
3.9455e-07
-2.11485e-07
8.38934e-07
-6.42546e-07
1.45045e-06
-1.02739e-06
2.17073e-06
-1.32213e-06
2.95193e-06
-1.51353e-06
3.74278e-06
-1.6043e-06
4.51527e-06
-1.61973e-06
5.24947e-06
-1.57486e-06
5.93067e-06
-1.48466e-06
6.54932e-06
-1.36333e-06
7.09988e-06
-1.22203e-06
7.57956e-06
-1.06881e-06
7.98718e-06
-9.09247e-07
8.32217e-06
-7.46788e-07
8.58481e-06
-5.83388e-07
8.77733e-06
-4.19862e-07
8.9024e-06
-2.56633e-07
8.96499e-06
-9.45543e-08
8.96054e-06
7.70535e-08
8.88336e-06
2.60749e-07
8.73466e-06
4.48891e-07
8.5109e-06
6.45365e-07
8.20539e-06
8.56267e-07
7.81049e-06
1.07571e-06
7.32373e-06
1.31009e-06
6.72678e-06
1.53925e-06
6.04759e-06
1.76055e-06
5.22464e-06
1.94619e-06
4.11596e-06
2.0251e-06
2.91095e-06
1.98876e-06
1.83697e-06
1.78308e-06
9.90014e-07
1.45394e-06
3.59718e-07
1.11265e-06
-1.75253e-08
6.52393e-07
-1.26823e-07
2.92568e-08
2.80628e-08
-6.32914e-07
5.59611e-07
-1.50658e-06
1.39279e-06
-2.09968e-06
2.09431e-06
-1.86458e-06
2.46636e-06
-1.133e-06
2.53491e-06
-2.87748e-07
2.37825e-06
3.38517e-07
2.14084e-06
5.40425e-07
1.55547e-06
7.03173e-07
2.59962e-07
1.28793e-06
-1.55155e-06
1.9014e-06
-3.34022e-06
2.27531e-06
-4.81815e-06
2.55618e-06
-6.08252e-06
2.65366e-06
-7.23482e-06
2.59035e-06
-8.27016e-06
2.43387e-06
-9.18584e-06
2.22621e-06
-9.98598e-06
1.99918e-06
-1.06798e-05
1.77294e-06
-1.12781e-05
1.5583e-06
-1.17918e-05
1.36e-06
-1.223e-05
1.17867e-06
-1.26004e-05
1.01262e-06
-1.29083e-05
8.59176e-07
-1.31577e-05
7.1547e-07
-1.33511e-05
5.79014e-07
-1.34904e-05
4.47969e-07
-1.3577e-05
3.21271e-07
-1.3612e-05
1.98308e-07
-1.35956e-05
7.78401e-08
-1.35293e-05
-3.80373e-08
-1.3417e-05
-1.43596e-07
-1.32595e-05
-2.44141e-07
-1.30587e-05
-3.36852e-07
-1.28189e-05
-4.19764e-07
-1.25455e-05
-4.91707e-07
-1.22442e-05
-5.52004e-07
-1.19206e-05
-6.00493e-07
-1.15804e-05
-6.37565e-07
-1.12284e-05
-6.64107e-07
-1.08692e-05
-6.81576e-07
-1.05061e-05
-6.91906e-07
-1.01414e-05
-6.97546e-07
-9.7758e-06
-7.01395e-07
-9.40867e-06
-7.06816e-07
-9.03739e-06
-7.17607e-07
-8.65735e-06
-7.3798e-07
-8.26171e-06
-7.72495e-07
-7.84128e-06
-8.2586e-07
-7.38462e-06
-9.02381e-07
-6.8786e-06
-1.00497e-06
-6.30982e-06
-1.13374e-06
-5.66656e-06
-1.28479e-06
-4.94172e-06
-1.44862e-06
-4.13625e-06
-1.60921e-06
-3.26199e-06
-1.74541e-06
-2.34243e-06
-1.83637e-06
-1.40765e-06
-1.86877e-06
-4.89383e-07
-1.83812e-06
3.85271e-07
-1.75155e-06
1.19756e-06
-1.62112e-06
1.93409e-06
-1.46287e-06
2.58919e-06
-1.29255e-06
3.16276e-06
-1.12257e-06
3.65876e-06
-9.61192e-07
4.0835e-06
-8.13023e-07
4.44424e-06
-6.80013e-07
4.74836e-06
-5.62345e-07
5.00276e-06
-4.59093e-07
5.21363e-06
-3.68741e-07
5.38607e-06
-2.89441e-07
5.52453e-06
-2.19643e-07
5.63319e-06
-1.58242e-07
5.71544e-06
-1.04026e-07
5.77481e-06
-5.58941e-08
5.81381e-06
-1.2859e-08
5.83354e-06
2.69942e-08
5.83576e-06
6.11397e-08
5.82143e-06
9.11647e-08
5.79146e-06
1.17983e-07
5.74739e-06
1.4092e-07
5.69084e-06
1.59953e-07
5.62342e-06
1.76239e-07
5.54731e-06
1.90767e-07
5.46406e-06
2.04481e-07
5.37271e-06
2.18966e-07
5.27138e-06
2.33905e-07
5.16124e-06
2.47434e-07
5.04457e-06
2.63159e-07
4.91897e-06
2.8774e-07
4.77899e-06
3.16136e-07
4.62431e-06
3.33709e-07
4.4595e-06
3.39482e-07
4.28476e-06
3.47147e-07
4.09367e-06
3.60756e-07
3.88611e-06
3.62826e-07
3.67943e-06
3.31231e-07
3.49687e-06
2.73788e-07
3.33694e-06
2.32412e-07
3.18684e-06
2.11322e-07
3.05942e-06
1.63932e-07
2.97806e-06
7.63755e-08
2.96671e-06
-4.44999e-08
3.07199e-06
-2.39031e-07
3.32955e-06
-4.99582e-07
3.68373e-06
-6.54456e-07
3.97483e-06
-5.29244e-07
4.02743e-06
-1.42624e-07
3.7104e-06
3.95776e-07
2.97041e-06
1.0323e-06
1.86133e-06
1.71637e-06
5.24583e-07
2.29854e-06
-8.50771e-07
2.59312e-06
-2.14729e-06
2.5689e-06
-3.27041e-06
2.33134e-06
-4.17979e-06
1.95141e-06
-4.85167e-06
1.4892e-06
-5.27468e-06
9.81813e-07
-5.44565e-06
4.54169e-07
-5.36355e-06
-6.553e-08
-5.0451e-06
-5.58099e-07
-4.50424e-06
-1.00604e-06
-3.77847e-06
-1.3801e-06
-2.91832e-06
-1.6551e-06
-1.98264e-06
-1.81365e-06
-1.03159e-06
-1.85169e-06
-1.17001e-07
-1.77962e-06
7.25488e-07
-1.62783e-06
1.47217e-06
-1.43109e-06
2.11906e-06
-1.2286e-06
2.66939e-06
-1.03612e-06
3.13137e-06
-8.61156e-07
3.50812e-06
-6.94343e-07
3.80611e-06
-5.41433e-07
4.02173e-06
-3.86347e-07
4.17344e-06
-2.7198e-07
4.26271e-06
-1.54737e-07
4.31668e-06
-1.24396e-07
4.37714e-06
-1.01207e-07
4.38787e-06
-9.54584e-08
4.46967e-06
-1.73913e-07
-3.38855e-07
4.63166e-06
1.54125e-07
2.56719e-07
4.31017e-07
8.34811e-08
9.16643e-07
-3.32682e-07
1.57889e-06
-8.73733e-07
2.33011e-06
-1.39376e-06
3.10607e-06
-1.80335e-06
3.85955e-06
-2.0756e-06
4.56681e-06
-2.2208e-06
5.22011e-06
-2.2576e-06
5.81077e-06
-2.21039e-06
6.33759e-06
-2.10168e-06
6.80306e-06
-1.95013e-06
7.21042e-06
-1.77069e-06
7.56316e-06
-1.57477e-06
7.8648e-06
-1.37045e-06
8.1185e-06
-1.16295e-06
8.32692e-06
-9.55203e-07
8.49199e-06
-7.48461e-07
8.61477e-06
-5.42638e-07
8.69513e-06
-3.36989e-07
8.73159e-06
-1.31014e-07
8.72762e-06
8.10209e-08
8.68523e-06
3.03138e-07
8.60349e-06
5.30632e-07
8.48284e-06
7.66016e-07
8.32493e-06
1.01417e-06
8.12705e-06
1.27359e-06
7.89075e-06
1.54639e-06
7.6039e-06
1.82611e-06
7.26321e-06
2.10123e-06
6.85034e-06
2.35906e-06
6.32026e-06
2.55517e-06
5.67358e-06
2.63545e-06
4.90287e-06
2.55378e-06
4.08699e-06
2.26982e-06
3.38686e-06
1.81277e-06
2.89716e-06
1.14209e-06
2.5631e-06
3.63322e-07
2.41942e-06
-4.8924e-07
2.58005e-06
-1.66721e-06
2.81123e-06
-2.33087e-06
2.77547e-06
-1.82882e-06
2.34799e-06
-7.05526e-07
1.73273e-06
3.27512e-07
9.01425e-07
1.16982e-06
-4.60135e-07
1.90198e-06
-2.28746e-06
2.5305e-06
-4.01392e-06
3.01438e-06
-5.46459e-06
3.35207e-06
-6.69856e-06
3.50929e-06
-7.66313e-06
3.52075e-06
-8.41298e-06
3.40352e-06
-9.01996e-06
3.19732e-06
-9.526e-06
2.93992e-06
-9.96198e-06
2.66219e-06
-1.03476e-05
2.38484e-06
-1.06959e-05
2.12118e-06
-1.10141e-05
1.87656e-06
-1.1306e-05
1.65189e-06
-1.15723e-05
1.44492e-06
-1.18116e-05
1.25194e-06
-1.20213e-05
1.06888e-06
-1.21978e-05
8.92007e-07
-1.23374e-05
7.18551e-07
-1.24363e-05
5.46863e-07
-1.24914e-05
3.76427e-07
-1.2501e-05
2.07919e-07
-1.24662e-05
4.29871e-08
-1.2384e-05
-1.2018e-07
-1.22528e-05
-2.74848e-07
-1.2078e-05
-4.18898e-07
-1.18645e-05
-5.50337e-07
-1.16172e-05
-6.67154e-07
-1.13414e-05
-7.67503e-07
-1.10431e-05
-8.50259e-07
-1.07284e-05
-9.15165e-07
-1.04031e-05
-9.62871e-07
-1.00724e-05
-9.94869e-07
-9.7405e-06
-1.01345e-06
-9.4108e-06
-1.0216e-06
-9.08534e-06
-1.023e-06
-8.76482e-06
-1.02192e-06
-8.4484e-06
-1.02323e-06
-8.13359e-06
-1.03242e-06
-7.81586e-06
-1.05571e-06
-7.48847e-06
-1.09988e-06
-7.14222e-06
-1.17211e-06
-6.76514e-06
-1.27947e-06
-6.3426e-06
-1.4275e-06
-5.85826e-06
-1.61808e-06
-5.29639e-06
-1.84666e-06
-4.64508e-06
-2.09992e-06
-3.90108e-06
-2.35321e-06
-3.07423e-06
-2.57227e-06
-2.1879e-06
-2.7227e-06
-1.27562e-06
-2.78105e-06
-3.75246e-07
-2.73849e-06
4.83157e-07
-2.60995e-06
1.27599e-06
-2.41395e-06
1.99026e-06
-2.17714e-06
2.62136e-06
-1.92365e-06
3.17093e-06
-1.67214e-06
3.64448e-06
-1.43474e-06
4.0494e-06
-1.21795e-06
4.39358e-06
-1.02419e-06
4.68465e-06
-8.53417e-07
4.9298e-06
-7.04241e-07
5.13547e-06
-5.74406e-07
5.30704e-06
-4.61013e-07
5.44879e-06
-3.61399e-07
5.56445e-06
-2.73898e-07
5.65767e-06
-1.97243e-07
5.73142e-06
-1.29644e-07
5.7871e-06
-6.85406e-08
5.827e-06
-1.29126e-08
5.85363e-06
3.45169e-08
5.86804e-06
7.67569e-08
5.8709e-06
1.15119e-07
5.86221e-06
1.49609e-07
5.84345e-06
1.78713e-07
5.81647e-06
2.03223e-07
5.78183e-06
2.25406e-07
5.7402e-06
2.46108e-07
5.69323e-06
2.65939e-07
5.64095e-06
2.86185e-07
5.58066e-06
3.07718e-07
5.51285e-06
3.30971e-07
5.44508e-06
3.55513e-07
5.37862e-06
3.82595e-07
5.29548e-06
4.16847e-07
5.18371e-06
4.51251e-07
5.0649e-06
4.65954e-07
4.95904e-06
4.6662e-07
4.84035e-06
4.81515e-07
4.66936e-06
5.02216e-07
4.45124e-06
4.91918e-07
4.23804e-06
4.45604e-07
4.08413e-06
3.65232e-07
3.99669e-06
2.51376e-07
3.92527e-06
1.47797e-07
3.83943e-06
4.1341e-08
3.81553e-06
-2.15133e-07
3.93898e-06
-6.2303e-07
4.15314e-06
-8.68618e-07
4.25022e-06
-6.26323e-07
4.01856e-06
8.90399e-08
3.3664e-06
1.04793e-06
2.35173e-06
2.04697e-06
1.11385e-06
2.95425e-06
-1.9352e-07
3.6059e-06
-1.46011e-06
3.85971e-06
-2.63022e-06
3.73902e-06
-3.65179e-06
3.35291e-06
-4.49065e-06
2.79027e-06
-5.11791e-06
2.11645e-06
-5.51033e-06
1.37423e-06
-5.65428e-06
5.98118e-07
-5.54805e-06
-1.71759e-07
-5.20141e-06
-9.04738e-07
-4.6367e-06
-1.57075e-06
-3.88769e-06
-2.12911e-06
-3.00205e-06
-2.54075e-06
-2.03811e-06
-2.77759e-06
-1.05691e-06
-2.83289e-06
-1.13674e-07
-2.72285e-06
7.56073e-07
-2.49758e-06
1.53025e-06
-2.20527e-06
2.20581e-06
-1.90416e-06
2.78831e-06
-1.61862e-06
3.28617e-06
-1.35901e-06
3.70179e-06
-1.10996e-06
4.03878e-06
-8.78421e-07
4.29202e-06
-6.39591e-07
4.46395e-06
-4.43912e-07
4.56571e-06
-2.56491e-07
4.5755e-06
-1.3419e-07
4.56552e-06
-9.12291e-08
4.46756e-06
2.50657e-09
4.41656e-06
-1.22913e-07
-3.57049e-07
4.43475e-06
1.84727e-07
7.19919e-08
7.35496e-07
-4.67288e-07
1.54873e-06
-1.14592e-06
2.43828e-06
-1.76328e-06
3.27572e-06
-2.23121e-06
4.00811e-06
-2.53574e-06
4.62777e-06
-2.69526e-06
5.14245e-06
-2.73548e-06
5.56874e-06
-2.68389e-06
5.92277e-06
-2.56443e-06
6.21817e-06
-2.39708e-06
6.4661e-06
-2.19805e-06
6.6755e-06
-1.98009e-06
6.85335e-06
-1.75263e-06
7.00481e-06
-1.5219e-06
7.13332e-06
-1.29146e-06
7.24085e-06
-1.06273e-06
7.32806e-06
-8.35672e-07
7.39478e-06
-6.0936e-07
7.4403e-06
-3.82509e-07
7.46299e-06
-1.5371e-07
7.46639e-06
7.7628e-08
7.45673e-06
3.1279e-07
7.43283e-06
5.54539e-07
7.39557e-06
8.03271e-07
7.34856e-06
1.06119e-06
7.29231e-06
1.32983e-06
7.22893e-06
1.60977e-06
7.15395e-06
1.90108e-06
7.06132e-06
2.19387e-06
6.94477e-06
2.47561e-06
6.782e-06
2.71794e-06
6.53605e-06
2.88139e-06
6.15973e-06
2.93011e-06
5.66554e-06
2.764e-06
5.08703e-06
2.39129e-06
4.52395e-06
1.70517e-06
3.98966e-06
8.97612e-07
3.59586e-06
-9.54385e-08
3.34558e-06
-1.41693e-06
2.68321e-06
-1.6685e-06
1.55388e-06
-6.99487e-07
2.1387e-07
6.34487e-07
-1.20682e-06
1.7482e-06
-2.67551e-06
2.63851e-06
-4.12038e-06
3.34686e-06
-5.44005e-06
3.85018e-06
-6.53249e-06
4.10681e-06
-7.35925e-06
4.17883e-06
-7.96644e-06
4.11648e-06
-8.39442e-06
3.94873e-06
-8.69587e-06
3.70497e-06
-8.92079e-06
3.42224e-06
-9.10774e-06
3.12687e-06
-9.28422e-06
2.83867e-06
-9.46601e-06
2.56663e-06
-9.65968e-06
2.31485e-06
-9.86549e-06
2.08237e-06
-1.00795e-05
1.86595e-06
-1.02953e-05
1.6607e-06
-1.05049e-05
1.46146e-06
-1.06995e-05
1.2635e-06
-1.08706e-05
1.06309e-06
-1.10099e-05
8.57903e-07
-1.11102e-05
6.47138e-07
-1.11652e-05
4.31472e-07
-1.11707e-05
2.13377e-07
-1.11306e-05
2.90951e-09
-1.10302e-05
-2.20569e-07
-1.08771e-05
-4.27992e-07
-1.06747e-05
-6.21278e-07
-1.04281e-05
-7.96928e-07
-1.0144e-05
-9.51231e-07
-9.83021e-06
-1.08132e-06
-9.49506e-06
-1.18541e-06
-9.14717e-06
-1.26306e-06
-8.79475e-06
-1.31529e-06
-8.44518e-06
-1.34443e-06
-8.10463e-06
-1.354e-06
-7.77775e-06
-1.34848e-06
-7.46752e-06
-1.33323e-06
-7.17515e-06
-1.31429e-06
-6.90013e-06
-1.29826e-06
-6.64019e-06
-1.29236e-06
-6.39086e-06
-1.30504e-06
-6.14546e-06
-1.34528e-06
-5.8949e-06
-1.42267e-06
-5.62678e-06
-1.54759e-06
-5.32472e-06
-1.72956e-06
-4.96809e-06
-1.97471e-06
-4.53483e-06
-2.27993e-06
-4.00515e-06
-2.62959e-06
-3.36826e-06
-2.9901e-06
-2.62996e-06
-3.31057e-06
-1.81214e-06
-3.54052e-06
-9.5324e-07
-3.63994e-06
-9.60288e-08
-3.5957e-06
7.25952e-07
-3.43194e-06
1.48144e-06
-3.16944e-06
2.1573e-06
-2.853e-06
2.75032e-06
-2.51667e-06
3.26397e-06
-2.18579e-06
3.70544e-06
-1.8762e-06
4.08316e-06
-1.59568e-06
4.40531e-06
-1.34634e-06
4.67896e-06
-1.12707e-06
4.91024e-06
-9.35515e-07
5.10472e-06
-7.68888e-07
5.26759e-06
-6.2388e-07
5.40291e-06
-4.96722e-07
5.51342e-06
-3.84405e-07
5.60182e-06
-2.85641e-07
5.67137e-06
-1.992e-07
5.72532e-06
-1.2249e-07
5.76565e-06
-5.32468e-08