/*--------------------------------*- C++ -*----------------------------------*\
| =========                 |                                                 |
| \\      /  F ield         | OpenFOAM: The Open Source CFD Toolbox           |
|  \\    /   O peration     | Version:  2112                                  |
|   \\  /    A nd           | Website:  www.openfoam.com                      |
|    \\/     M anipulation  |                                                 |
\*---------------------------------------------------------------------------*/
FoamFile
{
    version     2.0;
    format      ascii;
    arch        "LSB;label=32;scalar=64";
    class       volScalarField;
    location    "0.14";
    object      s;
}
// * * * * * * * * * * * * * * * * * * * * * * * * * * * * * * * * * * * * * //

dimensions      [0 0 0 0 0 0 0];

internalField   nonuniform List<scalar> 
12225
(
1
1
1
1
1
1
1
1
1
1
1
1
1
1
1
1
1
1
1
1
1
1
1
1
1
1
1
1
1
1
1
1
1
1
1
1
1
1
1
1
1
1
1
1
1
1
1
1
1
1
1
1
1
1
1
1
1
1
1
1
1
1
1
1
1
1
1
1
1
1
1
1
1
1
1
1
1
1
1
1
1
1
1
1
1
1
1
1
1
1
1
1
1
1
1
1
1
1
1
1
1
1
1
1
1
1
1
1
1
1
1
1
1
1
1
1
1
1
1
1
1
1
1
1
1
1
1
1
1
1
1
1
1
1
1
1
1
1
1
1
1
1
1
1
1
1
1
1
1
1
1
1
1
1
1
1
1
1
1
1
1
1
1
1
1
1
1
1
1
1
1
1
1
1
1
1
1
1
1
1
1
1
1
1
1
1
1
1
1
1
1
1
1
1
1
1
1
1
1
1
1
1
1
1
1
1
1
1
1
1
1
1
1
1
1
1
1
1
1
1
1
1
1
1
1
1
1
1
1
1
1
1
1
1
1
1
1
1
1
1
1
1
1
1
1
1
1
1
1
1
1
1
1
1
1
1
1
1
1
1
1
1
1
1
1
1
1
1
1
1
1
1
1
1
1
1
1
1
1
1
1
1
1
1
1
1
1
1
1
1
1
1
1
1
1
1
1
1
1
1
1
1
1
1
1
1
1
1
1
1
1
1
1
1
1
1
1
1
1
1
1
1
1
1
1
1
1
1
1
1
1
1
1
1
1
1
1
1
1
1
1
1
1
1
1
1
1
1
1
1
1
1
1
1
1
1
1
1
1
1
1
1
1
1
1
1
1
1
1
1
1
1
1
1
1
1
1
1
1
1
1
1
1
1
1
1
1
1
1
1
1
1
1
1
1
1
1
1
1
1
1
1
1
1
1
1
1
1
1
1
1
1
1
1
1
1
1
1
1
1
1
1
1
1
1
1
1
1
1
1
1
1
1
1
1
1
1
1
1
1
1
1
1
1
1
1
1
1
1
1
1
1
1
1
1
1
1
1
1
1
1
1
1
1
1
1
1
1
1
1
1
1
1
1
1
1
1
1
1
1
1
1
1
1
1
1
1
1
1
1
1
1
1
1
1
1
1
1
1
1
1
1
1
1
1
1
1
1
1
1
1
1
1
1
1
1
1
1
1
1
1
1
1
1
1
1
1
1
1
1
1
1
1
1
1
1
1
1
1
1
0.958855
0.96268
0.969031
0.972025
0.973767
0.974552
0.974584
0.974467
0.974183
0.973674
0.972463
0.97143
0.969944
0.968245
0.965875
0.963363
0.961609
0.959335
0.953788
0.94133
0.931172
0.925896
0.924277
0.924252
0.925322
0.930635
0.949116
0.967357
0.9761
0.978375
0.978098
0.976775
0.976374
0.976642
0.977274
0.977379
0.97733
0.977307
0.977429
0.977877
0.978735
0.979867
0.980986
0.981849
0.982404
0.982783
0.983135
0.983492
0.983735
0.983835
0.983882
0.983901
0.983905
0.983887
0.983813
0.983685
0.983502
0.983259
0.98294
0.982558
0.982125
0.981676
0.981283
0.980984
0.980708
0.980267
0.979144
0.97625
0.966778
0.951093
0.94711
0.946932
0.947888
0.949781
0.95078
0.951579
0.953626
0.957845
0.961376
0.965694
0.970186
0.976585
0.986365
0.992443
0.994816
0.995322
0.995375
0.995373
0.995352
0.995328
0.995309
0.99528
0.995251
0.995223
0.995187
0.99514
0.995106
0.995099
0.995108
0.995164
0.995242
0.995268
0.995264
0.995191
0.994895
0.993934
0.991706
0.989762
0.9889
0.988196
0.987502
0.986938
0.98638
0.985905
0.985447
0.985016
0.984607
0.984224
0.983988
0.983771
0.98367
0.983616
0.983608
0.983666
0.983798
0.98393
0.984126
0.984352
0.984542
0.984736
0.984999
0.985345
0.985689
0.98609
0.986455
0.986793
0.987219
0.987674
0.988156
0.988657
0.989167
0.98966
0.99018
0.990681
0.991197
0.991721
0.992197
0.992619
0.992996
0.993363
0.99373
0.994089
0.99434
0.994449
0.994463
0.994401
0.994021
0.993129
0.990395
0.971766
0.953226
0.951727
0.951674
0.95186
0.954593
0.959471
0.961741
0.962492
0.962647
0.963468
0.964673
0.966122
0.967614
0.96898
0.970325
0.972483
0.974565
0.977028
0.979034
0.979485
0.972387
0.976633
0.980298
0.981501
0.98173
0.981677
0.98147
0.980957
0.980542
0.979721
0.977906
0.976248
0.974201
0.972876
0.971014
0.967828
0.965333
0.962758
0.956753
0.945233
0.936866
0.933873
0.933877
0.935517
0.943166
0.957377
0.968858
0.974869
0.976604
0.976904
0.976897
0.976879
0.977214
0.977935
0.978862
0.979769
0.981327
0.983688
0.985715
0.987514
0.988886
0.989633
0.990026
0.990193
0.990246
0.990244
0.990131
0.990101
0.989983
0.989676
0.989472
0.989306
0.988927
0.988483
0.988016
0.987354
0.986642
0.985816
0.984799
0.983678
0.982482
0.981541
0.981128
0.980979
0.980967
0.981403
0.981702
0.980343
0.972365
0.955569
0.949458
0.948682
0.949057
0.950779
0.953742
0.957011
0.963132
0.978482
0.988123
0.993956
0.995744
0.996324
0.996575
0.9967
0.996747
0.996759
0.996746
0.99667
0.99654
0.996425
0.996294
0.996126
0.995967
0.995769
0.995535
0.995295
0.99518
0.995134
0.995096
0.995007
0.99485
0.994705
0.994567
0.994329
0.993708
0.992326
0.989998
0.987359
0.984366
0.980974
0.979429
0.977846
0.976808
0.976263
0.975761
0.975545
0.975451
0.975433
0.975478
0.975599
0.975687
0.975799
0.975987
0.976226
0.976506
0.976871
0.977326
0.977875
0.978518
0.979178
0.979933
0.980682
0.981183
0.98156
0.981851
0.982079
0.98224
0.98236
0.982473
0.982605
0.982777
0.982943
0.983207
0.983465
0.983766
0.984276
0.984881
0.985618
0.986695
0.987966
0.98907
0.989862
0.990709
0.992064
0.993753
0.995053
0.995516
0.995423
0.994446
0.989508
0.973538
0.958652
0.953741
0.9558
0.960608
0.95954
0.951778
0.947308
0.9474
0.94956
0.95394
0.957403
0.961106
0.963582
0.965112
0.968534
0.974749
0.980268
0.98363
0.984639
0.976008
0.97999
0.981232
0.980792
0.979993
0.979088
0.978539
0.978134
0.977371
0.97538
0.971618
0.968823
0.967821
0.967358
0.966071
0.964553
0.962574
0.957861
0.950094
0.944192
0.943194
0.947743
0.96167
0.970036
0.973223
0.974661
0.975892
0.976758
0.977333
0.977764
0.978413
0.979591
0.981551
0.98347
0.985636
0.987774
0.989594
0.990443
0.991114
0.991454
0.991644
0.991746
0.991816
0.991874
0.991932
0.99199
0.992055
0.992104
0.992151
0.992184
0.99219
0.992148
0.992064
0.991966
0.991764
0.991486
0.991079
0.990427
0.989493
0.988155
0.986266
0.984021
0.981878
0.980911
0.980428
0.980266
0.980227
0.980087
0.978057
0.97058
0.963448
0.962587
0.963803
0.96621
0.970115
0.973746
0.986106
0.995161
0.996663
0.996943
0.99702
0.997058
0.997072
0.997074
0.997063
0.997018
0.99692
0.996779
0.996609
0.996397
0.996138
0.995849
0.995548
0.995259
0.99502
0.994862
0.994771
0.994641
0.994369
0.994001
0.993635
0.993405
0.993272
0.99291
0.991812
0.989424
0.98558
0.980195
0.976767
0.97529
0.974562
0.974209
0.974075
0.974046
0.974101
0.974275
0.974364
0.974449
0.974604
0.974734
0.97482
0.974942
0.975039
0.97518
0.975346
0.975569
0.975882
0.976321
0.977028
0.978048
0.979343
0.980851
0.982579
0.984204
0.985323
0.985968
0.986194
0.986103
0.985728
0.985257
0.984777
0.98428
0.983864
0.983542
0.983253
0.983003
0.982845
0.982802
0.982881
0.983245
0.984329
0.985997
0.98746
0.988341
0.989076
0.990656
0.993172
0.995141
0.995687
0.995118
0.99213
0.98272
0.964301
0.959596
0.959958
0.960344
0.962606
0.966539
0.967193
0.964697
0.960283
0.95977
0.9608
0.965448
0.968381
0.970686
0.975696
0.981008
0.984334
0.985402
0.977483
0.980534
0.978738
0.977393
0.977094
0.976956
0.976666
0.976304
0.975514
0.973015
0.968737
0.965944
0.964583
0.963751
0.962811
0.960926
0.95808
0.955172
0.954051
0.959017
0.968024
0.972488
0.974239
0.975149
0.975919
0.977024
0.978137
0.979275
0.980528
0.982506
0.98461
0.986608
0.988246
0.989763
0.990965
0.992004
0.992589
0.993059
0.993306
0.993556
0.993678
0.993771
0.993807
0.993819
0.993818
0.993766
0.993687
0.993595
0.993463
0.993341
0.993249
0.993183
0.993153
0.993144
0.993146
0.993146
0.993147
0.993105
0.993031
0.99286
0.992481
0.991444
0.989432
0.985648
0.982574
0.980765
0.979878
0.979375
0.978733
0.977362
0.974776
0.973745
0.974001
0.9762
0.981007
0.989867
0.995682
0.996561
0.996645
0.996675
0.996708
0.99671
0.99673
0.996748
0.996764
0.996771
0.996735
0.996649
0.996502
0.996284
0.996
0.995664
0.995285
0.994894
0.994557
0.994293
0.994019
0.993597
0.993049
0.992638
0.992347
0.991992
0.991496
0.990314
0.988021
0.984266
0.978981
0.97552
0.974201
0.973735
0.973603
0.973598
0.973786
0.974026
0.974152
0.974349
0.974609
0.974814
0.974937
0.975073
0.975141
0.97517
0.97518
0.975196
0.975267
0.975383
0.975563
0.975797
0.97615
0.976718
0.977809
0.979905
0.982665
0.985165
0.987629
0.989921
0.991689
0.992849
0.993417
0.99354
0.993449
0.993036
0.992401
0.991622
0.990545
0.989127
0.987515
0.985796
0.984183
0.983125
0.982763
0.982829
0.983715
0.98624
0.988
0.988848
0.989709
0.992129
0.994846
0.995749
0.995485
0.993538
0.986889
0.973399
0.965624
0.963507
0.963911
0.965138
0.968289
0.971674
0.973226
0.974245
0.975136
0.975666
0.976341
0.977923
0.980729
0.983628
0.985464
0.985938
0.977884
0.97966
0.976936
0.976763
0.976818
0.976664
0.976258
0.97582
0.974959
0.973716
0.971656
0.969737
0.968338
0.967353
0.96633
0.965776
0.96641
0.968499
0.971565
0.973638
0.974824
0.975677
0.976902
0.978272
0.980228
0.98205
0.983839
0.985815
0.987563
0.988857
0.99026
0.991289
0.992241
0.993068
0.993587
0.993976
0.994145
0.994215
0.994222
0.994152
0.993996
0.99385
0.993645
0.993374
0.992937
0.992361
0.991722
0.991083
0.990484
0.990039
0.989732
0.989596
0.989559
0.989717
0.990115
0.990427
0.990943
0.991495
0.992246
0.992936
0.993277
0.993424
0.993351
0.992699
0.990858
0.987345
0.98374
0.98185
0.980828
0.980622
0.980764
0.982009
0.985457
0.991392
0.994546
0.995129
0.995113
0.994783
0.994312
0.994093
0.994073
0.994094
0.994229
0.99446
0.994871
0.995386
0.995716
0.995881
0.995945
0.995944
0.995753
0.9954
0.994961
0.994449
0.993859
0.993208
0.992641
0.992253
0.991899
0.991464
0.991101
0.990422
0.989398
0.987724
0.984705
0.979989
0.975531
0.97396
0.973495
0.973407
0.973472
0.973771
0.974178
0.974757
0.975341
0.975825
0.976202
0.976474
0.976658
0.976793
0.976855
0.976835
0.976657
0.976299
0.975927
0.975757
0.975688
0.975789
0.976016
0.976381
0.976961
0.978108
0.981096
0.984363
0.987456
0.990246
0.992599
0.994345
0.995474
0.99607
0.996298
0.996335
0.99633
0.996264
0.996015
0.995369
0.99451
0.993649
0.992398
0.989888
0.986395
0.983861
0.983005
0.983054
0.984196
0.987116
0.988608
0.989575
0.99207
0.994834
0.995858
0.995734
0.99439
0.99049
0.981158
0.974903
0.971116
0.970917
0.971754
0.974158
0.976726
0.978299
0.979188
0.979575
0.9799
0.980873
0.983149
0.984785
0.98572
0.986159
0.977965
0.978645
0.976711
0.97688
0.976948
0.976705
0.976316
0.976007
0.975589
0.975119
0.974618
0.974239
0.973934
0.973777
0.973826
0.974014
0.974216
0.974813
0.975784
0.976984
0.978591
0.980798
0.982648
0.985091
0.986783
0.988347
0.989759
0.990797
0.991801
0.992534
0.993236
0.993717
0.994146
0.994355
0.994444
0.99446
0.994373
0.99422
0.994034
0.993629
0.992995
0.992113
0.990842
0.989223
0.987338
0.985414
0.983862
0.982598
0.981622
0.980916
0.980537
0.980406
0.980439
0.981049
0.981941
0.982881
0.983976
0.985072
0.986523
0.988104
0.990114
0.992262
0.993454
0.993895
0.994004
0.993693
0.992656
0.990878
0.989702
0.989331
0.989405
0.990837
0.99143
0.991522
0.991411
0.990958
0.989928
0.988654
0.987788
0.987594
0.987616
0.987748
0.987976
0.988409
0.989223
0.990404
0.991608
0.992805
0.993896
0.994431
0.994609
0.994617
0.994328
0.993684
0.992891
0.992313
0.991776
0.991442
0.991137
0.990824
0.99031
0.989497
0.988019
0.985585
0.981894
0.976984
0.974234
0.973455
0.973303
0.973347
0.973693
0.974476
0.975683
0.976346
0.976669
0.976881
0.977012
0.977074
0.977194
0.977355
0.977603
0.977849
0.978103
0.978236
0.977947
0.977136
0.976558
0.97629
0.976202
0.976379
0.976833
0.97766
0.979807
0.983555
0.98709
0.990166
0.992785
0.994762
0.996041
0.996715
0.996967
0.997007
0.99698
0.996832
0.996456
0.995786
0.995013
0.994441
0.994157
0.993872
0.993253
0.99103
0.986525
0.984161
0.98373
0.984105
0.98642
0.988436
0.989617
0.992397
0.995017
0.99603
0.99599
0.995246
0.992867
0.987852
0.983
0.981043
0.981043
0.981706
0.982209
0.982018
0.981676
0.981611
0.981641
0.982179
0.983962
0.985061
0.985646
0.986254
0.977951
0.978507
0.97686
0.977526
0.977796
0.97787
0.977934
0.977856
0.977673
0.977401
0.976951
0.976651
0.976454
0.976345
0.976348
0.977041
0.978074
0.979517
0.981358
0.983129
0.985151
0.986861
0.988713
0.989951
0.991095
0.992055
0.992774
0.993365
0.993853
0.994217
0.994419
0.994532
0.994575
0.994568
0.994456
0.994319
0.993961
0.993341
0.992275
0.990525
0.987976
0.98458
0.981793
0.979551
0.977677
0.976791
0.975867
0.975209
0.974902
0.974686
0.974625
0.974636
0.974903
0.975612
0.976756
0.978346
0.980241
0.98225
0.983741
0.984414
0.985123
0.986415
0.988852
0.991724
0.993503
0.994222
0.994387
0.994071
0.992611
0.990712
0.989175
0.988466
0.987555
0.986802
0.986092
0.985189
0.984171
0.983653
0.98341
0.983311
0.983309
0.983477
0.983767
0.984173
0.984853
0.985643
0.986541
0.987757
0.989163
0.990655
0.991896
0.992431
0.992568
0.992439
0.992012
0.991447
0.991069
0.990782
0.990552
0.990382
0.990067
0.989404
0.988023
0.985605
0.981888
0.976805
0.973958
0.973308
0.973239
0.97344
0.974235
0.975704
0.97642
0.976637
0.976695
0.976699
0.976555
0.976244
0.97612
0.97615
0.976735
0.977254
0.978106
0.978661
0.978954
0.978985
0.978133
0.97725
0.976856
0.976732
0.976881
0.977558
0.979315
0.983349
0.987109
0.990452
0.99317
0.995163
0.996419
0.997063
0.997275
0.997286
0.997183
0.996796
0.995719
0.994197
0.992655
0.991609
0.991501
0.991673
0.992304
0.992646
0.992297
0.989469
0.985438
0.984431
0.984634
0.986517
0.988534
0.989886
0.992936
0.995305
0.996284
0.99635
0.995986
0.994813
0.991982
0.988588
0.987202
0.987032
0.986826
0.985805
0.984116
0.983235
0.982963
0.983107
0.984177
0.98502
0.985427
0.986417
0.977754
0.978575
0.977142
0.97859
0.979658
0.980129
0.98071
0.980785
0.980552
0.980162
0.979862
0.979658
0.979609
0.979954
0.980858
0.982134
0.983686
0.98521
0.986818
0.988138
0.989644
0.990663
0.991598
0.992265
0.992981
0.993505
0.993923
0.994322
0.99451
0.994588
0.994609
0.994601
0.994524
0.994341
0.993928
0.993151
0.991713
0.989277
0.985343
0.981654
0.978848
0.97732
0.976266
0.975484
0.975103
0.974697
0.974378
0.974111
0.97369
0.973501
0.973436
0.973428
0.973532
0.973946
0.974848
0.976389
0.978668
0.981373
0.983289
0.983992
0.984326
0.984674
0.985217
0.986243
0.988144
0.99157
0.993644
0.994749
0.99506
0.995046
0.994149
0.992356
0.990291
0.988133
0.986262
0.984873
0.983702
0.982953
0.982439
0.982047
0.981734
0.981337
0.98113
0.981449
0.982165
0.983082
0.984019
0.984959
0.985865
0.986799
0.988105
0.989539
0.990461
0.990822
0.99083
0.99061
0.99038
0.990182
0.990037
0.98993
0.989802
0.989434
0.988307
0.986066
0.982556
0.977489
0.974115
0.973315
0.973232
0.973529
0.974624
0.975974
0.976391
0.976479
0.976315
0.975566
0.974256
0.973695
0.973533
0.973608
0.974156
0.974844
0.976235
0.977969
0.979097
0.979552
0.979536
0.978492
0.977515
0.977253
0.977264
0.977614
0.979165
0.983403
0.988013
0.991678
0.994398
0.996188
0.997174
0.997614
0.997705
0.99768
0.997297
0.996069
0.993083
0.989843
0.987434
0.986083
0.985541
0.985494
0.985823
0.987895
0.990535
0.990838
0.989947
0.986359
0.985072
0.985271
0.987078
0.988834
0.9904
0.993595
0.995676
0.996584
0.996817
0.996674
0.996095
0.994531
0.99198
0.990814
0.990196
0.988775
0.986418
0.984718
0.983915
0.983821
0.984274
0.984774
0.985234
0.986902
0.977524
0.978891
0.977297
0.979313
0.981471
0.982159
0.982621
0.983017
0.983173
0.983149
0.982959
0.982926
0.983292
0.984246
0.985454
0.986689
0.987911
0.98892
0.989898
0.990813
0.991507
0.991988
0.992409
0.992878
0.993363
0.993755
0.994121
0.994418
0.994516
0.994542
0.994497
0.994312
0.993896
0.993053
0.991473
0.988588
0.984438
0.98064
0.978383
0.977062
0.976444
0.976157
0.976025
0.975972
0.976012
0.976052
0.975955
0.975439
0.974871
0.973976
0.973525
0.973364
0.973344
0.973497
0.973973
0.975057
0.977193
0.980321
0.983325
0.984514
0.984878
0.984866
0.9849
0.985196
0.985758
0.986693
0.98812
0.990597
0.993085
0.995036
0.99601
0.996382
0.996445
0.996019
0.994715
0.992332
0.989325
0.986347
0.984142
0.982724
0.981792
0.980871
0.979789
0.979095
0.978706
0.979193
0.980659
0.982281
0.983865
0.985058
0.985895
0.986646
0.987791
0.98884
0.989438
0.989643
0.98961
0.989605
0.989554
0.989494
0.989472
0.989338
0.988775
0.987213
0.984323
0.979553
0.974812
0.973416
0.973222
0.973447
0.974464
0.97585
0.976207
0.97609
0.97538
0.97377
0.972942
0.97276
0.972774
0.973028
0.973419
0.973939
0.974719
0.976046
0.978455
0.979705
0.980035
0.979803
0.97842
0.977624
0.977592
0.97789
0.979259
0.983961
0.989326
0.993245
0.995928
0.997506
0.998216
0.998407
0.998403
0.998106
0.997001
0.99351
0.989073
0.986593
0.985324
0.98462
0.984064
0.98361
0.983316
0.98329
0.984127
0.987914
0.989176
0.988825
0.986553
0.985564
0.985887
0.98785
0.989326
0.991233
0.994188
0.996085
0.996911
0.997296
0.997256
0.996947
0.9958
0.993939
0.992961
0.991155
0.988521
0.98618
0.984715
0.984287
0.984356
0.984573
0.985003
0.986794
0.97738
0.979307
0.977377
0.979588
0.982723
0.983626
0.98399
0.984478
0.985395
0.985645
0.985641
0.985741
0.986376
0.987509
0.988637
0.989542
0.990162
0.990603
0.991151
0.991613
0.991843
0.992105
0.992414
0.992811
0.993234
0.993595
0.993942
0.994137
0.994173
0.994063
0.993709
0.992918
0.991399
0.98848
0.984891
0.981257
0.978908
0.977716
0.977221
0.97706
0.977045
0.977715
0.97843
0.978774
0.978912
0.978916
0.978564
0.978141
0.977575
0.976679
0.975277
0.974057
0.973631
0.973527
0.973584
0.974119
0.975573
0.978277
0.982025
0.984742
0.985912
0.986342
0.986101
0.98572
0.985687
0.98614
0.986603
0.987122
0.987981
0.989509
0.991759
0.994062
0.995982
0.997084
0.997544
0.99769
0.99742
0.996177
0.993294
0.989273
0.98544
0.982887
0.980777
0.979207
0.977391
0.975821
0.97524
0.975983
0.978942
0.981987
0.983974
0.985231
0.98609
0.986771
0.987547
0.988278
0.988714
0.988851
0.989029
0.989108
0.989092
0.989052
0.988899
0.988166
0.986392
0.982998
0.977228
0.973933
0.973257
0.973251
0.973882
0.975425
0.975991
0.975937
0.975142
0.973617
0.972737
0.972625
0.972744
0.973018
0.973389
0.973865
0.974512
0.97553
0.977544
0.979706
0.980315
0.980325
0.979486
0.978178
0.977929
0.978127
0.97948
0.984424
0.990245
0.994154
0.996642
0.998087
0.998713
0.998832
0.998738
0.998142
0.995425
0.99057
0.987375
0.98585
0.985074
0.984937
0.984926
0.98477
0.984278
0.983287
0.982695
0.983064
0.986181
0.987973
0.987759
0.986301
0.985935
0.986573
0.988733
0.990009
0.992092
0.994817
0.996507
0.997271
0.997677
0.997679
0.997434
0.996403
0.995185
0.993271
0.990479
0.98766
0.985646
0.984666
0.984452
0.984482
0.984708
0.986378
0.976301
0.980149
0.977441
0.979433
0.98334
0.984577
0.985033
0.98547
0.986472
0.987601
0.987936
0.988093
0.988583
0.989542
0.990404
0.990831
0.991082
0.991263
0.991448
0.991598
0.991747
0.99184
0.991916
0.992034
0.992254
0.992529
0.992723
0.992771
0.992557
0.99198
0.990615
0.98831
0.985314
0.982515
0.979886
0.978438
0.977802
0.977612
0.977589
0.978267
0.97933
0.979777
0.979946
0.979993
0.979953
0.979699
0.979459
0.979108
0.978633
0.978101
0.977243
0.97588
0.974236
0.973626
0.973446
0.973425
0.973921
0.975345
0.977961
0.9818
0.985199
0.986643
0.987249
0.987486
0.987323
0.987267
0.987345
0.987339
0.987565
0.988133
0.98891
0.989952
0.991298
0.993199
0.995272
0.997006
0.998038
0.998428
0.998469
0.998
0.995984
0.991421
0.986949
0.98434
0.981186
0.976944
0.973655
0.97217
0.972177
0.973965
0.979035
0.982463
0.984455
0.985578
0.986252
0.986784
0.987356
0.987959
0.98834
0.988589
0.988742
0.988798
0.988797
0.988496
0.987692
0.985853
0.982167
0.97598
0.973749
0.973286
0.973385
0.974065
0.975341
0.975697
0.975328
0.974508
0.973511
0.973203
0.97343
0.973722
0.974072
0.974478
0.974895
0.975576
0.977345
0.979711
0.98081
0.980786
0.980014
0.978519
0.978188
0.978396
0.979806
0.984959
0.990842
0.994706
0.997087
0.99841
0.998953
0.999035
0.998879
0.99778
0.993544
0.989333
0.98692
0.986213
0.98657
0.988215
0.989843
0.990336
0.990296
0.989444
0.985757
0.983158
0.983171
0.985489
0.987121
0.986938
0.986162
0.986244
0.987597
0.98956
0.990791
0.992905
0.995443
0.99693
0.997615
0.997935
0.997927
0.997675
0.99696
0.99524
0.992262
0.989086
0.986705
0.985244
0.984553
0.984349
0.984445
0.985786
0.975016
0.981366
0.977538
0.978661
0.9834
0.985453
0.985892
0.986117
0.986768
0.988041
0.989153
0.98967
0.990108
0.990882
0.991205
0.991318
0.991361
0.991377
0.991313
0.991211
0.990938
0.990478
0.989673
0.988715
0.988352
0.988256
0.988177
0.987879
0.98729
0.986363
0.984843
0.982956
0.980926
0.979309
0.978315
0.97794
0.977862
0.978027
0.978966
0.979958
0.980353
0.980531
0.980614
0.980645
0.980638
0.980458
0.980211
0.979835
0.979425
0.978949
0.978415
0.977595
0.976041
0.974254
0.973489
0.973226
0.973201
0.973583
0.974581
0.97641
0.979463
0.983646
0.986501
0.987787
0.988414
0.988899
0.989471
0.989984
0.990257
0.990344
0.990299
0.990264
0.990596
0.991421
0.992503
0.99378
0.99539
0.997063
0.998309
0.998891
0.99902
0.998769
0.997018
0.991617
0.986887
0.98459
0.981516
0.975423
0.971054
0.969999
0.970513
0.973873
0.980155
0.983302
0.984931
0.985888
0.98633
0.986735
0.987284
0.987926
0.988303
0.988456
0.98854
0.98848
0.988214
0.987406
0.985592
0.981799
0.975892
0.97391
0.973446
0.973543
0.973895
0.974633
0.975042
0.974815
0.974609
0.974454
0.974496
0.974758
0.975212
0.975655
0.976084
0.976575
0.977742
0.98021
0.98139
0.981427
0.980434
0.978814
0.97844
0.978677
0.980331
0.986014
0.991995
0.995756
0.997885
0.998926
0.999281
0.999297
0.999014
0.997243
0.992378
0.98885
0.987872
0.988159
0.990423
0.994368
0.996235
0.99693
0.997045
0.996849
0.995285
0.988544
0.984091
0.983839
0.98547
0.986544
0.986367
0.986251
0.986736
0.988849
0.990332
0.991718
0.993716
0.995978
0.99729
0.997871
0.99807
0.998039
0.997777
0.996902
0.994334
0.9906
0.987814
0.98589
0.984724
0.984275
0.984298
0.985313
0.971458
0.983363
0.97807
0.977732
0.982072
0.98566
0.98667
0.986914
0.987119
0.987892
0.989088
0.989911
0.990476
0.991234
0.991666
0.991711
0.991641
0.991428
0.991004
0.990105
0.988525
0.986366
0.983967
0.983033
0.982767
0.982663
0.982552
0.982271
0.981921
0.981519
0.980759
0.979749
0.978756
0.97815
0.977907
0.977967
0.978198
0.979261
0.980312
0.980778
0.981001
0.98121
0.981408
0.981573
0.981637
0.981646
0.981454
0.981121
0.980583
0.980072
0.979707
0.979334
0.978771
0.977532
0.975499
0.974232
0.973776
0.973681
0.974214
0.975306
0.976958
0.979143
0.981916
0.98496
0.987263
0.988683
0.989629
0.990596
0.991491
0.992403
0.993259
0.99395
0.994122
0.993726
0.993319
0.993471
0.994361
0.995422
0.996535
0.997762
0.99878
0.999268
0.999343
0.999075
0.997291
0.991171
0.986167
0.983981
0.980218
0.973996
0.970386
0.969918
0.970979
0.975895
0.981538
0.98414
0.985348
0.985995
0.986329
0.986773
0.987527
0.988052
0.988262
0.988326
0.988233
0.987975
0.987263
0.985659
0.982165
0.976657
0.974419
0.973753
0.973766
0.973869
0.974116
0.974416
0.974479
0.974527
0.974662
0.975063
0.975683
0.976194
0.976654
0.977396
0.979225
0.981336
0.982069
0.981971
0.98057
0.97892
0.97865
0.979029
0.981303
0.98777
0.993231
0.996618
0.998422
0.999271
0.999533
0.999519
0.999108
0.996702
0.991868
0.989839
0.989689
0.990719
0.994306
0.996811
0.998011
0.998525
0.998691
0.99869
0.998465
0.996803
0.989123
0.984653
0.984427
0.985626
0.986182
0.986195
0.986391
0.987805
0.989958
0.991227
0.992669
0.994505
0.996405
0.997563
0.99802
0.998134
0.998075
0.997699
0.996261
0.992417
0.989125
0.986673
0.985
0.984301
0.984258
0.984992
0.963424
0.98413
0.981904
0.977339
0.979172
0.98485
0.986721
0.987381
0.987657
0.987914
0.988666
0.989713
0.990394
0.991098
0.991744
0.991955
0.991958
0.991717
0.991102
0.990118
0.988336
0.985654
0.982345
0.979957
0.979173
0.978915
0.978788
0.978613
0.978528
0.978438
0.978225
0.977954
0.977723
0.977618
0.97778
0.978067
0.978877
0.980048
0.980691
0.980994
0.98125
0.981529
0.981823
0.981993
0.982053
0.982063
0.982011
0.981878
0.981585
0.980938
0.980253
0.97988
0.979649
0.979477
0.97913
0.978378
0.977515
0.977084
0.976907
0.97718
0.977899
0.979106
0.980786
0.982582
0.984243
0.98579
0.987342
0.988874
0.990346
0.991741
0.993069
0.994366
0.995525
0.99644
0.996997
0.996906
0.996239
0.995972
0.996285
0.99709
0.99786
0.998669
0.999299
0.999527
0.999507
0.999026
0.996557
0.989702
0.985547
0.982893
0.976948
0.971992
0.970198
0.970447
0.972452
0.978683
0.982903
0.984713
0.985599
0.986056
0.986457
0.98716
0.987816
0.988082
0.988131
0.988037
0.987805
0.987227
0.985938
0.98333
0.978722
0.975589
0.974446
0.974086
0.974117
0.974237
0.974379
0.974512
0.974755
0.975324
0.976079
0.976829
0.977421
0.978325
0.98034
0.98225
0.982728
0.982282
0.980379
0.97894
0.978812
0.979463
0.982779
0.989607
0.994405
0.997182
0.998698
0.999421
0.999634
0.999607
0.999144
0.996433
0.992433
0.99105
0.991096
0.992643
0.995818
0.997642
0.998501
0.998856
0.998999
0.99904
0.99902
0.998761
0.996505
0.988125
0.984865
0.984834
0.985707
0.986027
0.986205
0.986946
0.989287
0.990975
0.992177
0.993576
0.995266
0.996836
0.997792
0.998131
0.998176
0.998052
0.997333
0.994539
0.990611
0.987576
0.985401
0.984387
0.984248
0.984686
0.960127
0.977952
0.98508
0.979827
0.977539
0.980734
0.986028
0.987323
0.987785
0.988059
0.988392
0.989046
0.989968
0.990735
0.991512
0.991932
0.992067
0.992061
0.991691
0.990662
0.988889
0.98624
0.982875
0.979886
0.978339
0.977574
0.97715
0.976848
0.976696
0.976674
0.976669
0.976709
0.976931
0.97732
0.977646
0.978258
0.97931
0.980235
0.980797
0.981088
0.981296
0.981482
0.981712
0.9819
0.982054
0.982113
0.982102
0.982044
0.981911
0.981607
0.980885
0.980152
0.979803
0.97971
0.979735
0.979919
0.980526
0.982053
0.983573
0.984424
0.984893
0.984943
0.984649
0.984274
0.984341
0.984971
0.985674
0.986379
0.987229
0.988381
0.989911
0.99192
0.994102
0.995981
0.99736
0.998242
0.998727
0.998805
0.998446
0.998016
0.99796
0.998326
0.998881
0.999378
0.999665
0.999704
0.999494
0.99823
0.99388
0.987575
0.984619
0.980023
0.974101
0.971147
0.970722
0.971503
0.974814
0.980953
0.983843
0.985102
0.98583
0.986302
0.986885
0.987557
0.98788
0.987946
0.987872
0.987685
0.98723
0.986269
0.98454
0.981418
0.978237
0.976181
0.975297
0.975011
0.975052
0.975253
0.975712
0.97657
0.9775
0.97835
0.979032
0.980378
0.982446
0.983334
0.98329
0.982389
0.979859
0.978929
0.97904
0.980346
0.985445
0.991835
0.995828
0.998028
0.999134
0.999621
0.999743
0.9997
0.99921
0.996494
0.992893
0.991783
0.99192
0.993667
0.996517
0.99804
0.998719
0.998974
0.99908
0.999139
0.999153
0.999116
0.998674
0.99445
0.986747
0.984958
0.985108
0.985738
0.985979
0.986483
0.988334
0.99059
0.991941
0.993103
0.994521
0.996076
0.997334
0.998024
0.998222
0.9982
0.997871
0.996321
0.9923
0.988636
0.985954
0.98457
0.98426
0.98448
0.95558
0.963595
0.981798
0.984221
0.979997
0.978625
0.981396
0.986161
0.987609
0.988027
0.988289
0.988608
0.989101
0.989819
0.99067
0.991533
0.991955
0.992095
0.992091
0.991807
0.990877
0.988891
0.985677
0.981711
0.979053
0.977751
0.977067
0.976605
0.976262
0.976075
0.975997
0.976014
0.976153
0.976556
0.977289
0.978077
0.979147
0.98006
0.980666
0.981007
0.981227
0.981387
0.981551
0.981686
0.981858
0.981987
0.982005
0.981987
0.981915
0.98173
0.981191
0.980406
0.979874
0.979696
0.979696
0.97985
0.980488
0.982582
0.985437
0.987496
0.988694
0.989553
0.990203
0.990455
0.989677
0.987817
0.986739
0.98644
0.986555
0.986963
0.98745
0.988219
0.989973
0.992806
0.995604
0.997662
0.998806
0.999355
0.999598
0.999636
0.999491
0.999142
0.999023
0.999154
0.999511
0.999754
0.999823
0.999751
0.999201
0.997327
0.991744
0.987048
0.983669
0.976937
0.972712
0.971375
0.971557
0.972984
0.977607
0.982322
0.984412
0.985446
0.986138
0.986723
0.987302
0.987676
0.987767
0.987711
0.98757
0.987252
0.986532
0.985483
0.984004
0.982097
0.98032
0.979071
0.978454
0.978544
0.97886
0.979422
0.980025
0.980583
0.981313
0.9829
0.983936
0.98402
0.983559
0.981626
0.979394
0.979003
0.979462
0.981996
0.988793
0.994051
0.99713
0.998759
0.999505
0.999797
0.999859
0.999809
0.999318
0.996635
0.993303
0.992347
0.992535
0.994374
0.996961
0.998271
0.998839
0.999044
0.999126
0.99919
0.999226
0.999228
0.999133
0.99802
0.990968
0.985739
0.985002
0.985297
0.985712
0.986144
0.987442
0.990008
0.991724
0.992895
0.994122
0.995559
0.996909
0.997829
0.998226
0.998281
0.998147
0.997309
0.994253
0.989965
0.986682
0.98486
0.984252
0.9843
0.946835
0.953322
0.967649
0.981924
0.983217
0.980662
0.979961
0.98159
0.985686
0.98758
0.988124
0.988422
0.988711
0.989046
0.989528
0.990296
0.991247
0.991844
0.992054
0.992054
0.991891
0.991329
0.990068
0.987668
0.98373
0.98017
0.978223
0.977175
0.976539
0.976171
0.975988
0.975911
0.97594
0.976073
0.97643
0.977256
0.9785
0.979505
0.980233
0.980707
0.980993
0.981198
0.981377
0.981474
0.981634
0.981718
0.981707
0.981648
0.981475
0.981284
0.98105
0.980481
0.9799
0.979576
0.979491
0.979518
0.97981
0.981187
0.984926
0.98771
0.989178
0.990039
0.990874
0.991723
0.992535
0.992832
0.991515
0.989591
0.988166
0.987368
0.987247
0.9874
0.987688
0.988556
0.991444
0.99514
0.997734
0.999066
0.999624
0.999834
0.999902
0.999901
0.999815
0.999631
0.999575
0.999649
0.999826
0.999878
0.999842
0.999559
0.998479
0.995271
0.989294
0.986381
0.980739
0.974899
0.972354
0.972052
0.972626
0.974838
0.9803
0.983405
0.984927
0.98591
0.986617
0.987129
0.987469
0.987594
0.987556
0.987455
0.987202
0.986741
0.986118
0.985513
0.984575
0.983826
0.983219
0.983174
0.982995
0.982958
0.983063
0.983349
0.984056
0.984587
0.984622
0.984315
0.983213
0.980215
0.97908
0.979154
0.980416
0.985576
0.992228
0.996218
0.998271
0.999251
0.999699
0.999877
0.999908
0.999857
0.999403
0.996906
0.993745
0.992862
0.993074
0.994916
0.997239
0.998393
0.998921
0.999149
0.999228
0.999284
0.99932
0.999323
0.999296
0.99895
0.995548
0.987512
0.985194
0.985073
0.985417
0.985838
0.986752
0.989236
0.991367
0.992739
0.993925
0.995254
0.996595
0.997634
0.998198
0.998354
0.99831
0.997878
0.996052
0.991544
0.98765
0.985209
0.984149
0.98401
0.947456
0.954939
0.95797
0.971109
0.981254
0.982671
0.981532
0.980986
0.98189
0.984906
0.987335
0.988076
0.988454
0.988748
0.98898
0.989268
0.989779
0.99069
0.991543
0.991898
0.991949
0.991863
0.991585
0.990904
0.989478
0.987093
0.983782
0.98067
0.978591
0.977366
0.976663
0.976265
0.976102
0.976132
0.976268
0.976581
0.977229
0.978083
0.978921
0.979672
0.980168
0.980578
0.980844
0.980992
0.981121
0.98111
0.981049
0.980903
0.980675
0.98053
0.980412
0.980137
0.979742
0.979472
0.979384
0.979401
0.979638
0.980785
0.984388
0.987587
0.989245
0.99004
0.99075
0.991559
0.992613
0.993918
0.994831
0.994528
0.992806
0.990271
0.988406
0.987616
0.987279
0.987148
0.987551
0.990467
0.995127
0.997919
0.999227
0.999742
0.999914
0.999963
0.999971
0.999958
0.999898
0.999843
0.999841
0.999892
0.999919
0.999896
0.999721
0.999011
0.997032
0.991613
0.988031