/*--------------------------------*- C++ -*----------------------------------*\
| =========                 |                                                 |
| \\      /  F ield         | OpenFOAM: The Open Source CFD Toolbox           |
|  \\    /   O peration     | Version:  2112                                  |
|   \\  /    A nd           | Website:  www.openfoam.com                      |
|    \\/     M anipulation  |                                                 |
\*---------------------------------------------------------------------------*/
FoamFile
{
    version     2.0;
    format      ascii;
    arch        "LSB;label=32;scalar=64";
    class       surfaceScalarField;
    location    "0.15";
    object      phi_0;
}
// * * * * * * * * * * * * * * * * * * * * * * * * * * * * * * * * * * * * * //

dimensions      [0 3 -1 0 0 0 0];

oriented        oriented;

internalField   nonuniform List<scalar> 
24170
(
3.08982e-06
9.85876e-08
2.93297e-06
1.56848e-07
2.76163e-06
1.7134e-07
2.5947e-06
1.66929e-07
2.44163e-06
1.53072e-07
2.30528e-06
1.36351e-07
2.18611e-06
1.19167e-07
2.08299e-06
1.03121e-07
1.99414e-06
8.88508e-08
1.91785e-06
7.62891e-08
1.85249e-06
6.53563e-08
1.79687e-06
5.56268e-08
1.74934e-06
4.75223e-08
1.70955e-06
3.97915e-08
1.6757e-06
3.38543e-08
1.64848e-06
2.72238e-08
1.62613e-06
2.23448e-08
1.88101e-08
1.60732e-06
3.43289e-06
8.29445e-08
3.4416e-06
1.48139e-07
3.43873e-06
1.74216e-07
3.42257e-06
1.83086e-07
3.39568e-06
1.79965e-07
3.36155e-06
1.70481e-07
3.32324e-06
1.57471e-07
3.28313e-06
1.43234e-07
3.24282e-06
1.29154e-07
3.20342e-06
1.15692e-07
3.16559e-06
1.03187e-07
3.12982e-06
9.13931e-08
3.09633e-06
8.10164e-08
3.06535e-06
7.07755e-08
3.0369e-06
6.23027e-08
3.01108e-06
5.30374e-08
2.98773e-06
4.56962e-08
3.62699e-08
2.97027e-06
3.67475e-06
7.07111e-08
3.68732e-06
1.35569e-07
3.69762e-06
1.63917e-07
3.70566e-06
1.7505e-07
3.71104e-06
1.74584e-07
3.71379e-06
1.67724e-07
3.714e-06
1.57264e-07
3.71214e-06
1.45096e-07
3.70857e-06
1.32721e-07
3.70369e-06
1.2057e-07
3.69793e-06
1.08946e-07
3.69144e-06
9.78845e-08
3.68472e-06
8.77426e-08
3.67767e-06
7.7824e-08
3.67094e-06
6.90301e-08
3.66407e-06
5.99131e-08
3.65822e-06
5.15425e-08
4.19974e-08
3.65249e-06
3.93573e-06
6.0365e-08
3.9487e-06
1.22608e-07
3.9598e-06
1.5281e-07
3.96937e-06
1.65481e-07
3.97717e-06
1.66782e-07
3.98342e-06
1.61472e-07
3.98835e-06
1.52337e-07
3.99216e-06
1.41286e-07
3.99502e-06
1.29866e-07
3.99711e-06
1.18476e-07
3.99863e-06
1.07424e-07
3.99959e-06
9.69266e-08
4.00027e-06
8.70616e-08
4.00053e-06
7.75665e-08
4.00079e-06
6.87676e-08
4.00073e-06
5.99715e-08
4.00062e-06
5.16526e-08
4.32755e-08
3.99934e-06
4.21598e-06
5.15144e-08
4.22885e-06
1.09733e-07
4.24109e-06
1.4057e-07
4.2518e-06
1.54773e-07
4.26059e-06
1.5799e-07
4.26776e-06
1.54308e-07
4.27357e-06
1.46525e-07
4.2783e-06
1.36555e-07
4.28223e-06
1.2594e-07
4.28553e-06
1.15173e-07
4.2883e-06
1.04652e-07
4.29061e-06
9.46158e-08
4.29261e-06
8.50621e-08
4.29425e-06
7.59246e-08
4.29573e-06
6.72899e-08
4.29686e-06
5.88478e-08
4.29763e-06
5.08809e-08
4.32869e-08
4.29762e-06
4.51663e-06
4.39731e-08
4.52884e-06
9.75178e-08
4.54175e-06
1.27661e-07
4.55368e-06
1.42843e-07
4.56389e-06
1.47783e-07
4.5723e-06
1.45903e-07
4.57908e-06
1.39741e-07
4.58446e-06
1.31169e-07
4.58894e-06
1.21462e-07
4.59274e-06
1.11375e-07
4.59595e-06
1.01437e-07
4.59874e-06
9.18346e-08
4.60115e-06
8.26439e-08
4.60322e-06
7.3863e-08
4.60501e-06
6.54979e-08
4.60644e-06
5.74154e-08
4.60749e-06
4.98265e-08
4.27992e-08
4.60798e-06
4.83918e-06
3.7516e-08
4.8505e-06
8.61984e-08
4.86325e-06
1.14905e-07
4.87578e-06
1.30318e-07
4.88722e-06
1.36341e-07
4.89714e-06
1.35979e-07
4.90543e-06
1.31454e-07
4.91208e-06
1.2452e-07
4.91744e-06
1.16097e-07
4.92184e-06
1.06984e-07
4.92547e-06
9.78003e-08
4.9286e-06
8.87079e-08
4.93129e-06
7.99557e-08
4.9336e-06
7.15533e-08
4.93558e-06
6.35141e-08
4.9372e-06
5.57975e-08
4.93844e-06
4.85891e-08
4.20217e-08
4.93921e-06
5.18514e-06
3.19562e-08
5.19556e-06
7.57783e-08
5.2078e-06
1.02665e-07
5.2203e-06
1.17813e-07
5.23223e-06
1.24412e-07
5.24313e-06
1.25079e-07
5.25278e-06
1.21808e-07
5.26106e-06
1.16242e-07
5.26794e-06
1.09215e-07
5.27356e-06
1.01367e-07
5.27811e-06
9.32421e-08
5.28185e-06
8.49768e-08
5.28492e-06
7.68827e-08
5.2875e-06
6.89683e-08
5.28968e-06
6.13374e-08
5.29146e-06
5.40142e-08
5.29288e-06
4.71762e-08
4.09962e-08
5.2939e-06
5.55615e-06
2.71429e-08
5.56571e-06
6.62142e-08
5.57735e-06
9.10289e-08
5.58957e-06
1.05594e-07
5.60151e-06
1.12474e-07
5.61274e-06
1.13848e-07
5.62306e-06
1.11485e-07
5.63243e-06
1.06881e-07
5.64071e-06
1.00928e-07
5.64787e-06
9.4205e-08
5.65394e-06
8.71724e-08
5.65895e-06
7.99673e-08
5.66301e-06
7.28266e-08
5.66626e-06
6.57213e-08
5.66884e-06
5.87557e-08
5.67088e-06
5.19754e-08
5.6725e-06
4.55573e-08
3.9731e-08
5.67376e-06
5.95397e-06
2.29487e-08
5.96272e-06
5.74671e-08
5.97371e-06
8.00342e-08
5.98556e-06
9.37503e-08
5.99736e-06
1.00671e-07
6.00865e-06
1.02556e-07
6.01921e-06
1.00929e-07
6.02899e-06
9.70977e-08
6.03798e-06
9.1939e-08
6.04615e-06
8.60328e-08
6.0535e-06
7.98224e-08
6.05996e-06
7.3504e-08
6.06553e-06
6.72648e-08
6.07014e-06
6.11083e-08
6.07382e-06
5.5078e-08
6.07663e-06
4.91654e-08
6.07873e-06
4.34525e-08
3.81185e-08
6.08034e-06
6.38049e-06
1.92751e-08
6.38844e-06
4.951e-08
6.39878e-06
6.96962e-08
6.41022e-06
8.23145e-08
6.42185e-06
8.90404e-08
6.43314e-06
9.12589e-08
6.44382e-06
9.02489e-08
6.4538e-06
8.71225e-08
6.46306e-06
8.26747e-08
6.47163e-06
7.7461e-08
6.47956e-06
7.18982e-08
6.48684e-06
6.62211e-08
6.49349e-06
6.06179e-08
6.49943e-06
5.51655e-08
6.50459e-06
4.9917e-08
6.50888e-06
4.48819e-08
6.51224e-06
4.00861e-08
3.5566e-08
6.51479e-06
5.74359e-06
1.65165e-08
5.74972e-06
4.33832e-08
5.75797e-06
6.14509e-08
5.76731e-06
7.29656e-08
5.777e-06
7.93572e-08
5.78654e-06
8.17202e-08
5.79566e-06
8.11279e-08
5.80424e-06
7.85414e-08
5.81224e-06
7.46734e-08
5.81966e-06
7.00365e-08
5.82655e-06
6.50122e-08
5.83293e-06
5.98393e-08
5.83885e-06
5.47e-08
5.84432e-06
4.96982e-08
5.84933e-06
4.49087e-08
5.85383e-06
4.03812e-08
5.85776e-06
3.61542e-08
3.22599e-08
5.86106e-06
7.00089e-06
1.37783e-08
7.00735e-06
3.69223e-08
7.01627e-06
5.25397e-08
7.0266e-06
6.26289e-08
7.03751e-06
6.84526e-08
7.0484e-06
7.08253e-08
7.05894e-06
7.05852e-08
7.06896e-06
6.85303e-08
7.07835e-06
6.52798e-08
7.0871e-06
6.1289e-08
7.09521e-06
5.68944e-08
7.10273e-06
5.23217e-08
7.1097e-06
4.77351e-08
7.11615e-06
4.32408e-08
7.12214e-06
3.89183e-08
7.12769e-06
3.48346e-08
7.1328e-06
3.10438e-08
2.76225e-08
7.13744e-06
8.53354e-06
1.10833e-08
8.54025e-06
3.02103e-08
8.54974e-06
4.30535e-08
8.56101e-06
5.1355e-08
8.57314e-06
5.63243e-08
8.58545e-06
5.85127e-08
8.59753e-06
5.851e-08
8.60913e-06
5.69327e-08
8.62011e-06
5.42935e-08
8.63042e-06
5.09808e-08
8.64003e-06
4.72828e-08
8.64895e-06
4.3401e-08
8.65721e-06
3.94783e-08
8.66484e-06
3.5611e-08
8.67189e-06
3.18686e-08
8.67841e-06
2.83132e-08
8.68446e-06
2.49958e-08
2.19963e-08
8.69009e-06
1.04019e-05
8.37089e-09
1.0409e-05
2.31352e-08
1.0419e-05
3.30641e-08
1.04311e-05
3.92545e-08
1.04444e-05
4.30159e-08
1.04582e-05
4.47543e-08
1.04719e-05
4.48127e-08
1.04852e-05
4.36094e-08
1.04979e-05
4.15319e-08
1.051e-05
3.88889e-08
1.05214e-05
3.59136e-08
1.0532e-05
3.27754e-08
1.05419e-05
2.95948e-08
1.05511e-05
2.64544e-08
1.05595e-05
2.34113e-08
1.05673e-05
2.05142e-08
1.05745e-05
1.78006e-08
1.53262e-08
1.05812e-05
1.26796e-05
5.54421e-09
1.26872e-05
1.55272e-08
1.26979e-05
2.2407e-08
1.27109e-05
2.62638e-08
1.27254e-05
2.85181e-08
1.27406e-05
2.95144e-08
1.2756e-05
2.93998e-08
1.27712e-05
2.84105e-08
1.2786e-05
2.68003e-08
1.28001e-05
2.47841e-08
1.28134e-05
2.25284e-08
1.28261e-05
2.01585e-08
1.28379e-05
1.77654e-08
1.28489e-05
1.54136e-08
1.28592e-05
1.31482e-08
1.28687e-05
1.10049e-08
1.28775e-05
9.00826e-09
7.18976e-09
1.28856e-05
1.54562e-05
2.57261e-09
1.54644e-05
7.27411e-09
1.54763e-05
1.05152e-08
1.54906e-05
1.19553e-08
1.55066e-05
1.25669e-08
1.55235e-05
1.2572e-08
1.55409e-05
1.20365e-08
1.55582e-05
1.10699e-08
1.55752e-05
9.80152e-09
1.55916e-05
8.34559e-09
1.56074e-05
6.79188e-09
1.56223e-05
5.20861e-09
1.56364e-05
3.64626e-09
1.56497e-05
2.14137e-09
1.56621e-05
7.20473e-10
1.56737e-05
-5.95847e-10
1.56845e-05
-1.79474e-09
-2.85992e-09
1.56946e-05
1.88409e-05
-6.97599e-10
1.88501e-05
-1.96706e-09
1.88639e-05
-3.18891e-09
1.88802e-05
-4.41001e-09
1.88984e-05
-5.61535e-09
1.89178e-05
-6.81426e-09
1.89378e-05
-7.97317e-09
1.89579e-05
-9.07141e-09
1.89778e-05
-1.00935e-08
1.89972e-05
-1.10289e-08
1.90159e-05
-1.18726e-08
1.90337e-05
-1.2623e-08
1.90506e-05
-1.32806e-08
1.90666e-05
-1.38467e-08
1.90817e-05
-1.43223e-08
1.90958e-05
-1.47083e-08
1.9109e-05
-1.50064e-08
-1.52122e-08
1.91213e-05
2.29672e-05
-4.58806e-09
2.29783e-05
-1.30501e-08
2.29948e-05
-1.96823e-08
2.30146e-05
-2.41746e-08
2.30366e-05
-2.76259e-08
2.30601e-05
-3.03118e-08
2.30844e-05
-3.22525e-08
2.31088e-05
-3.35345e-08
2.3133e-05
-3.42796e-08
2.31566e-05
-3.46026e-08
2.31793e-05
-3.46017e-08
2.3201e-05
-3.43555e-08
2.32217e-05
-3.39245e-08
2.32412e-05
-3.33556e-08
2.32596e-05
-3.26854e-08
2.32768e-05
-3.19419e-08
2.32929e-05
-3.11485e-08
-3.03176e-08
2.3308e-05
1.68139e-05
-7.78072e-09
1.68227e-05
-2.19004e-08
1.68355e-05
-3.24717e-08
1.68511e-05
-3.97121e-08
1.68685e-05
-4.50392e-08
1.6887e-05
-4.88335e-08
1.6906e-05
-5.12414e-08
1.6925e-05
-5.2503e-08
1.69436e-05
-5.28764e-08
1.69615e-05
-5.25845e-08
1.69788e-05
-5.1812e-08
1.69951e-05
-5.07045e-08
1.70105e-05
-4.9369e-08
1.70251e-05
-4.78862e-08
1.70387e-05
-4.63204e-08
1.70515e-05
-4.4719e-08
1.70635e-05
-4.31147e-08
-4.15253e-08
1.70747e-05
1.46379e-05
-1.112e-08
1.46467e-05
-3.07331e-08
1.46592e-05
-4.491e-08
1.46744e-05
-5.49448e-08
1.46914e-05
-6.20671e-08
1.47093e-05
-6.67013e-08
1.47273e-05
-6.92726e-08
1.47451e-05
-7.02562e-08
1.47623e-05
-7.0068e-08
1.47787e-05
-6.90341e-08
1.47943e-05
-6.74178e-08
1.48091e-05
-6.54307e-08
1.48229e-05
-6.32207e-08
1.48359e-05
-6.08846e-08
1.48481e-05
-5.85027e-08
1.48595e-05
-5.61292e-08
1.48702e-05
-5.37672e-08
-5.14228e-08
1.48801e-05
1.27439e-05
-1.4877e-08
1.27532e-05
-3.9999e-08
1.27661e-05
-5.78869e-08
1.27817e-05
-7.04657e-08
1.27985e-05
-7.8962e-08
1.28159e-05
-8.4055e-08
1.28331e-05
-8.64632e-08
1.28498e-05
-8.69302e-08
1.28657e-05
-8.60339e-08
1.28809e-05
-8.41756e-08
1.28951e-05
-8.16718e-08
1.29085e-05
-7.87994e-08
1.2921e-05
-7.57159e-08
1.29326e-05
-7.24832e-08
1.29433e-05
-6.91949e-08
1.29531e-05
-6.5926e-08
1.29619e-05
-6.26157e-08
-5.92877e-08
1.29698e-05
1.10955e-05
-1.94097e-08
1.11058e-05
-5.03049e-08
1.11195e-05
-7.16584e-08
1.11354e-05
-8.629e-08
1.11521e-05
-9.57147e-08
1.11689e-05
-1.00877e-07
1.11853e-05
-1.02821e-07
1.1201e-05
-1.02593e-07
1.12158e-05
-1.00847e-07
1.12296e-05
-9.79955e-08
1.12423e-05
-9.44081e-08
1.1254e-05
-9.04566e-08
1.12645e-05
-8.62733e-08
1.12739e-05
-8.18764e-08
1.12822e-05
-7.74172e-08
1.12893e-05
-7.30501e-08
1.12954e-05
-6.87702e-08
-6.46022e-08
1.13008e-05
9.66081e-06
-2.50012e-08
9.67241e-06
-6.19075e-08
9.6869e-06
-8.61471e-08
9.70295e-06
-1.02343e-07
9.71946e-06
-1.12227e-07
9.7356e-06
-1.17012e-07
9.75087e-06
-1.18093e-07
9.76511e-06
-1.16834e-07
9.77812e-06
-1.13854e-07
9.78974e-06
-1.09623e-07
9.79997e-06
-1.04631e-07
9.80884e-06
-9.93279e-08
9.81646e-06
-9.3898e-08
9.82303e-06
-8.84455e-08
9.82867e-06
-8.30585e-08
9.83352e-06
-7.78941e-08
9.83779e-06
-7.30455e-08
-6.84683e-08
9.84166e-06
8.41222e-06
-3.18731e-08
8.42518e-06
-7.4863e-08
8.44019e-06
-1.01157e-07
8.45607e-06
-1.18221e-07
8.47172e-06
-1.27879e-07
8.48637e-06
-1.31665e-07
8.49963e-06
-1.31353e-07
8.51129e-06
-1.28493e-07
8.52137e-06
-1.23928e-07
8.53007e-06
-1.18323e-07
8.53758e-06
-1.12146e-07
8.54398e-06
-1.05727e-07
8.54946e-06
-9.93804e-08
8.55431e-06
-9.32974e-08
8.55867e-06
-8.74106e-08
8.56255e-06
-8.17781e-08
8.56602e-06
-7.65184e-08
-7.16039e-08
8.56916e-06
7.32586e-06
-4.04465e-08
7.33991e-06
-8.89154e-08
7.35475e-06
-1.15997e-07
7.36921e-06
-1.32684e-07
7.38277e-06
-1.41439e-07
7.39494e-06
-1.43834e-07
7.40561e-06
-1.42019e-07
7.41462e-06
-1.37504e-07
7.42229e-06
-1.31603e-07
7.42898e-06
-1.25013e-07
7.43489e-06
-1.18054e-07
7.44004e-06
-1.10872e-07
7.44453e-06
-1.03872e-07
7.44846e-06
-9.72284e-08
7.45195e-06
-9.09055e-08
7.45508e-06
-8.49006e-08
7.45784e-06
-7.92808e-08
-7.40628e-08
7.4603e-06
6.38084e-06
-5.12238e-08
6.39486e-06
-1.02935e-07
6.40843e-06
-1.29566e-07
6.42078e-06
-1.45028e-07
6.43208e-06
-1.52748e-07
6.44202e-06
-1.53771e-07
6.45069e-06
-1.50689e-07
6.45804e-06
-1.44856e-07
6.46429e-06
-1.37851e-07
6.46958e-06
-1.30303e-07
6.4741e-06
-1.22571e-07
6.47797e-06
-1.14743e-07
6.48125e-06
-1.07154e-07
6.48399e-06
-9.99656e-08
6.48625e-06
-9.3166e-08
6.48816e-06
-8.68116e-08
6.48971e-06
-8.08328e-08
-7.53157e-08
6.49097e-06
5.55874e-06
-6.44971e-08
5.57163e-06
-1.15829e-07
5.58344e-06
-1.41375e-07
5.59446e-06
-1.56043e-07
5.60402e-06
-1.62308e-07
5.6116e-06
-1.61352e-07
5.61742e-06
-1.56514e-07
5.62165e-06
-1.49084e-07
5.62436e-06
-1.40561e-07
5.62564e-06
-1.31584e-07
5.62571e-06
-1.22636e-07
5.6248e-06
-1.13832e-07
5.62305e-06
-1.0541e-07
5.62061e-06
-9.75292e-08
5.61758e-06
-9.01321e-08
5.61413e-06
-8.33613e-08
5.61033e-06
-7.70317e-08
-7.12546e-08
5.60627e-06
4.84386e-06
-8.07499e-08
4.8554e-06
-1.27368e-07
4.86148e-06
-1.47458e-07
4.86083e-06
-1.55394e-07
4.85179e-06
-1.53266e-07
4.83504e-06
-1.44596e-07
4.81249e-06
-1.3397e-07
4.78584e-06
-1.22429e-07
4.75631e-06
-1.11035e-07
4.72507e-06
-1.00347e-07
4.69296e-06
-9.05226e-08
4.66067e-06
-8.15442e-08
4.62869e-06
-7.34269e-08
4.59731e-06
-6.61536e-08
4.56679e-06
-5.96117e-08
4.53725e-06
-5.38214e-08
4.50882e-06
-4.8601e-08
-4.41958e-08
4.48176e-06
4.12193e-06
3.99456e-06
3.8471e-06
3.69171e-06
3.53844e-06
3.39384e-06
3.25987e-06
3.13744e-06
3.02641e-06
2.92606e-06
2.83554e-06
2.754e-06
2.68057e-06
2.61442e-06
2.5548e-06
2.50098e-06
2.45238e-06
2.40819e-06
-3.64673e-08
3.64673e-08
-7.82555e-08
4.17882e-08
-1.07385e-07
2.91297e-08
-1.14361e-07
6.97556e-09
-9.14046e-08
-2.29562e-08
-3.94521e-08
-5.19525e-08
3.23479e-08
-7.18e-08
1.13447e-07
-8.10989e-08
1.95832e-07
-8.23849e-08
2.74957e-07
-7.91248e-08
3.49136e-07
-7.41794e-08
4.18602e-07
-6.94657e-08
4.84712e-07
-6.61109e-08
5.49356e-07
-6.46438e-08
6.14524e-07
-6.51675e-08
6.82066e-07
-6.7542e-08
7.53614e-07
-7.15487e-08
8.304e-07
-7.67856e-08
9.13065e-07
-8.26649e-08
1.00174e-06
-8.86762e-08
1.09621e-06
-9.44647e-08
1.19594e-06
-9.97306e-08
1.3002e-06
-1.0426e-07
1.40765e-06
-1.07451e-07
1.51637e-06
-1.08724e-07
1.6238e-06
-1.07429e-07
1.72675e-06
-1.02949e-07
1.82165e-06
-9.49054e-08
1.90457e-06
-8.29163e-08
1.97148e-06
-6.69088e-08
2.01839e-06
-4.69072e-08
2.04177e-06
-2.33787e-08
2.03871e-06
3.05201e-09
2.00061e-06
3.81042e-08
1.92438e-06
7.62337e-08
1.80494e-06
1.19438e-07
1.63701e-06
1.67926e-07
1.41535e-06
2.21657e-07
1.13564e-06
2.79719e-07
7.97951e-07
3.37685e-07
4.04083e-07
3.93868e-07
-3.27594e-09
4.07359e-07
-2.75791e-07
2.72515e-07
-4.16067e-07
1.40276e-07
-4.44548e-07
2.84804e-08
-3.2543e-07
-1.19118e-07
-6.50489e-08
-2.60381e-07
1.99624e-07
-2.64673e-07
3.58648e-07
-1.59025e-07
3.99982e-07
-4.13336e-08
3.76197e-07
2.37853e-08
3.33146e-07
4.30506e-08
2.26792e-07
1.06354e-07
4.14899e-08
1.85302e-07
-9.93497e-08
1.4084e-07
-1.89825e-07
9.04757e-08
-2.49571e-07
5.9746e-08
-2.85796e-07
3.62244e-08
-2.95407e-07
9.61181e-09
-2.74193e-07
-2.12142e-08
-2.15207e-07
-5.8986e-08
-1.10737e-07
-1.0447e-07
4.59584e-08
-1.56696e-07
2.61422e-07
-2.15464e-07
5.39533e-07
-2.7811e-07
8.80325e-07
-3.40793e-07
1.27781e-06
-3.97483e-07
1.71587e-06
-4.3806e-07
2.17326e-06
-4.57389e-07
2.62983e-06
-4.56573e-07
3.06838e-06
-4.3855e-07
3.47343e-06
-4.05049e-07
3.83125e-06
-3.5782e-07
4.12833e-06
-2.97081e-07
4.34864e-06
-2.20312e-07
4.47672e-06
-1.28076e-07
4.49666e-06
-1.99376e-08
4.36935e-06
1.27309e-07
4.07736e-06
2.91984e-07
3.60931e-06
4.68051e-07
2.96881e-06
6.40498e-07
2.18391e-06
7.849e-07
1.32113e-06
8.62784e-07
5.40663e-07
7.80468e-07
-8.162e-09
5.48825e-07
-3.09089e-07
3.00927e-07
-3.79631e-07
7.05415e-08
-2.95885e-07
-8.37458e-08
-1.60695e-07
-1.3519e-07
3.17004e-08
-1.92395e-07
3.62981e-07
-3.31281e-07
6.54784e-07
-2.91803e-07
6.05387e-07
4.93974e-08
1.1953e-07
4.85856e-07
-9.08053e-07
1.02758e-06
-1.88418e-06
9.7613e-07
-2.71447e-06
8.3029e-07
-3.40549e-06
6.91018e-07
-3.97188e-06
5.66393e-07
-4.4357e-06
4.6382e-07
-4.81847e-06
3.82764e-07
-5.13857e-06
3.20106e-07
-5.41079e-06
2.72218e-07
-5.64554e-06
2.3475e-07
-5.85037e-06
2.04826e-07
-6.02973e-06
1.79361e-07
-6.18677e-06
1.57039e-07
-6.32286e-06
1.36092e-07
-6.43888e-06
1.16017e-07
-6.53482e-06
9.59473e-08
-6.61054e-06
7.57208e-08
-6.66535e-06
5.48034e-08
-6.69856e-06
3.32142e-08
-6.70847e-06
9.91037e-09
-6.695e-06
-1.34714e-08
-6.65781e-06
-3.71918e-08
-6.59557e-06
-6.22417e-08
-6.50702e-06
-8.8544e-08
-6.39083e-06
-1.16196e-07
-6.24589e-06
-1.44938e-07
-6.07146e-06
-1.74426e-07
-5.86732e-06
-2.04148e-07
-5.6339e-06
-2.33417e-07
-5.37222e-06
-2.61684e-07
-5.08392e-06
-2.88297e-07
-4.77098e-06
-3.12938e-07
-4.43587e-06
-3.3511e-07
-4.08158e-06
-3.54292e-07
-3.71102e-06
-3.70556e-07
-3.32728e-06
-3.83745e-07
-2.93381e-06
-3.93469e-07
-2.53445e-06
-3.99361e-07
-2.13332e-06
-4.01126e-07
-1.73449e-06
-3.98829e-07
-1.34204e-06
-3.92454e-07
-9.60101e-07
-3.81939e-07
-5.92493e-07
-3.67608e-07
-2.42245e-07
-3.50248e-07
8.81236e-08
-3.30369e-07
3.96441e-07
-3.08318e-07
6.81837e-07
-2.85396e-07
9.44612e-07
-2.62775e-07
1.18546e-06
-2.40852e-07
1.40536e-06
-2.19892e-07
1.60554e-06
-2.00179e-07
1.78725e-06
-1.81716e-07
1.95154e-06
-1.64293e-07
2.09927e-06
-1.47731e-07
2.23107e-06
-1.31792e-07
2.34723e-06
-1.16166e-07
2.44782e-06
-1.0059e-07
2.53271e-06
-8.48901e-08
2.60167e-06
-6.89547e-08
2.65441e-06
-5.27433e-08
2.69063e-06
-3.62168e-08
2.71006e-06
-1.94358e-08
2.71229e-06
-2.22826e-09
2.69645e-06
1.58451e-08
2.66425e-06
3.21968e-08
2.61774e-06
4.6513e-08
2.55931e-06
5.84273e-08
2.49144e-06
6.78668e-08
2.41669e-06
7.475e-08
2.3375e-06
7.91892e-08
2.25572e-06
8.17795e-08
2.17338e-06
8.23478e-08
2.09268e-06
8.0692e-08
2.01313e-06
7.95578e-08
1.92639e-06
8.67329e-08
1.81927e-06
1.07121e-07
1.68688e-06
1.32388e-07
1.53884e-06
1.48044e-07
1.39284e-06
1.46001e-07
1.26619e-06
1.26648e-07
1.16667e-06
9.95208e-08
1.09552e-06
7.11451e-08
1.04374e-06
5.17863e-08
1.01016e-06
3.35762e-08
9.6854e-07
4.1622e-08
3.813e-08
9.3041e-07
2.04368e-08
1.60305e-08
3.8574e-08
2.3651e-08
6.61343e-08
1.56937e-09
1.14321e-07
-4.12106e-08
1.76108e-07
-8.4744e-08
2.39039e-07
-1.14883e-07
2.93956e-07
-1.26717e-07
3.36734e-07
-1.23877e-07
3.67715e-07
-1.13366e-07
3.89736e-07
-1.01146e-07
4.06487e-07
-9.09301e-08
4.21805e-07
-8.47837e-08
4.39351e-07
-8.36571e-08
4.62381e-07
-8.76738e-08
4.93504e-07
-9.62901e-08
5.34653e-07
-1.08691e-07
5.86931e-07
-1.23826e-07
6.50556e-07
-1.40411e-07
7.25057e-07
-1.57166e-07
8.09511e-07
-1.73129e-07
9.02915e-07
-1.87869e-07
1.00445e-06
-2.01262e-07
1.1129e-06
-2.12709e-07
1.22648e-06
-2.21032e-07
1.34263e-06
-2.2488e-07
1.4581e-06
-2.22892e-07
1.56937e-06
-2.14228e-07
1.67236e-06
-1.97893e-07
1.76275e-06
-1.73304e-07
1.83689e-06
-1.41044e-07
1.89207e-06
-1.02095e-07
1.92612e-06
-5.74288e-08
1.9368e-06
-7.62394e-09
1.92789e-06
4.70102e-08
1.89704e-06
1.07086e-07
1.84305e-06
1.7343e-07
1.7633e-06
2.47674e-07
1.65443e-06
3.30526e-07
1.51282e-06
4.21333e-07
1.33625e-06
5.14256e-07
1.13151e-06
5.98608e-07
8.85921e-07
6.52944e-07
5.47245e-07
6.11192e-07
2.11601e-07
4.7592e-07
-2.29094e-08
2.62991e-07
-1.24482e-07
-1.75446e-08
-1.11481e-07
-2.73382e-07
-9.10065e-08
-2.85148e-07
-1.12112e-07
-1.37919e-07
-1.74796e-07
2.13505e-08
-2.54721e-07
1.03711e-07
-3.46005e-07
1.34334e-07
-4.00484e-07
1.60834e-07
-3.92003e-07
1.76821e-07
-3.98326e-07
1.47163e-07
-4.23123e-07
1.15272e-07
-4.44063e-07
8.06861e-08
-4.50564e-07
4.27257e-08
-4.37532e-07
-3.42066e-09
-3.99301e-07
-5.94448e-08
-3.3022e-07
-1.28067e-07
-2.23027e-07
-2.11663e-07
-6.73744e-08
-3.12348e-07
1.45034e-07
-4.27872e-07
4.22243e-07
-5.55319e-07
7.68047e-07
-6.86597e-07
1.16828e-06
-7.97713e-07
1.59926e-06
-8.69043e-07
2.04021e-06
-8.98343e-07
2.4747e-06
-8.91062e-07
2.8891e-06
-8.52945e-07
3.27306e-06
-7.89007e-07
3.61663e-06
-7.01391e-07
3.91031e-06
-5.90768e-07
4.14469e-06
-4.5469e-07
4.30714e-06
-2.90528e-07
4.38582e-06
-9.86116e-08
4.37953e-06
1.33595e-07
4.27393e-06
3.97589e-07
4.05864e-06
6.83338e-07
3.72627e-06
9.72869e-07
3.27618e-06
1.23499e-06
2.7204e-06
1.41856e-06
2.07143e-06
1.42944e-06
1.38991e-06
1.23035e-06
8.6493e-07
8.25906e-07
5.26983e-07
4.08489e-07
2.8256e-07
1.60678e-07
2.54233e-07
-1.06863e-07
4.48683e-07
-3.86845e-07
3.23508e-07
-2.06106e-07
-4.51711e-07
4.83416e-07
-1.63842e-06
1.23611e-06
-2.6784e-06
1.52584e-06
-3.3398e-06
1.68898e-06
-3.89915e-06
1.53548e-06
-4.38791e-06
1.31905e-06
-4.793e-06
1.09611e-06
-5.12867e-06
9.02063e-07
-5.41086e-06
7.46007e-07
-5.65069e-06
6.22594e-07
-5.85855e-06
5.27963e-07
-6.03973e-06
4.53401e-07
-6.19916e-06
3.94183e-07
-6.33879e-06
3.44455e-07
-6.46058e-06
3.0115e-07
-6.56496e-06
2.61413e-07
-6.65262e-06
2.23754e-07
-6.72349e-06
1.8689e-07
-6.77777e-06
1.50228e-07
-6.81513e-06
1.13081e-07
-6.83541e-06
7.50848e-08
-6.83782e-06
3.56201e-08
-6.82211e-06
-5.80335e-09
-6.78593e-06
-4.96477e-08
-6.72702e-06
-9.61049e-08
-6.64389e-06
-1.45365e-07
-6.53506e-06
-1.97381e-07
-6.3992e-06
-2.52052e-07
-6.23518e-06
-3.0896e-07
-6.04232e-06
-3.67284e-07
-5.82043e-06
-4.26037e-07
-5.56976e-06
-4.84089e-07
-5.29125e-06
-5.40193e-07
-4.98647e-06
-5.93074e-07
-4.65737e-06
-6.42039e-07
-4.30632e-06
-6.86165e-07
-3.93633e-06
-7.24274e-07
-3.55037e-06
-7.56521e-07
-3.15154e-06
-7.82569e-07
-2.74319e-06
-8.0182e-07
-2.32902e-06
-8.13531e-07
-1.91305e-06
-8.17099e-07
-1.49931e-06
-8.12573e-07
-1.09184e-06
-7.99918e-07
-6.94762e-07
-7.79019e-07
-3.11858e-07
-7.50512e-07
5.37747e-08
-7.1588e-07
3.99751e-07
-6.76345e-07
7.24383e-07
-6.32949e-07
1.02669e-06
-5.87699e-07
1.30644e-06
-5.42526e-07
1.5639e-06
-4.98314e-07
1.79975e-06
-4.55742e-07
2.01517e-06
-4.15601e-07
2.21144e-06
-3.7798e-07
2.38955e-06
-3.42407e-07
2.55034e-06
-3.08526e-07
2.69448e-06
-2.75924e-07
2.82231e-06
-2.44e-07
2.93394e-06
-2.12217e-07
3.0293e-06
-1.80255e-07
3.1082e-06
-1.47855e-07
3.17023e-06
-1.14775e-07
3.21497e-06
-8.09545e-08
3.24205e-06
-4.65095e-08
3.25172e-06
-1.1903e-08
3.24488e-06
2.26898e-08
3.22133e-06
5.57409e-08
3.18146e-06
8.63859e-08
3.12631e-06
1.13578e-07
3.05764e-06
1.36531e-07
2.9777e-06
1.54692e-07
2.88924e-06
1.67647e-07
2.79551e-06
1.75511e-07
2.69963e-06
1.7823e-07
2.60461e-06
1.75712e-07
2.51319e-06
1.70983e-07
2.42834e-06
1.71575e-07
2.35367e-06
1.81799e-07
2.28988e-06
1.96172e-07
2.23615e-06
2.01774e-07
2.19222e-06
1.89939e-07
2.15947e-06
1.59398e-07
2.13669e-06
1.223e-07
2.1227e-06
8.51282e-08
2.1096e-06
6.48931e-08
2.09156e-06
5.16096e-08
2.05825e-06
7.49392e-08
9.06632e-08
2.00571e-06
1.77686e-08
-1.73806e-09
7.66815e-08
-3.52619e-08
1.57346e-07
-7.90948e-08
2.29012e-07
-1.12877e-07
2.69527e-07
-1.25259e-07
2.74799e-07
-1.20155e-07
2.54192e-07
-1.0611e-07
2.20321e-07
-9.00071e-08
1.83852e-07
-7.68969e-08
1.52583e-07
-6.98771e-08
1.31664e-07
-7.00111e-08
1.23918e-07
-7.70375e-08
1.30465e-07
-9.02037e-08
1.51257e-07
-1.08465e-07
1.85599e-07
-1.30632e-07
2.32579e-07
-1.55672e-07
2.91328e-07
-1.82576e-07
3.61224e-07
-2.10307e-07
4.41747e-07
-2.37689e-07
5.32459e-07
-2.63842e-07
6.33748e-07
-2.89158e-07
7.45835e-07
-3.13349e-07
8.67644e-07
-3.34518e-07
9.96647e-07
-3.50034e-07
1.12885e-06
-3.57088e-07
1.25953e-06
-3.53564e-07
1.38351e-06
-3.38207e-07
1.49571e-06
-3.10097e-07
1.59157e-06
-2.69161e-07
1.66806e-06
-2.17532e-07
1.72326e-06
-1.57304e-07
1.75607e-06
-9.02365e-08
1.76651e-06
-1.80672e-08
1.75526e-06
5.82633e-08
1.72429e-06
1.38062e-07
1.67626e-06
2.21453e-07
1.6145e-06
3.09439e-07
1.54199e-06
4.03034e-07
1.4609e-06
5.02426e-07
1.37004e-06
6.05113e-07
1.26559e-06
7.03061e-07
1.13403e-06
7.84499e-07
9.36205e-07
8.09018e-07
6.81134e-07
7.30991e-07
4.02013e-07
5.42112e-07
1.36325e-07
2.48143e-07
-1.01765e-07
-3.52931e-08
-2.85445e-07
-1.01467e-07
-4.05248e-07
-1.81163e-08
-4.47203e-07
6.33056e-08
-4.64975e-07
1.21482e-07
-4.88649e-07
1.58009e-07
-5.12217e-07
1.84402e-07
-5.22976e-07
1.8758e-07
-5.41649e-07
1.65836e-07
-5.62313e-07
1.35936e-07
-5.78494e-07
9.68668e-08
-5.84133e-07
4.83648e-08
-5.74565e-07
-1.29892e-08
-5.4388e-07
-9.01294e-08
-4.84831e-07
-1.87116e-07
-3.884e-07
-3.08093e-07
-2.44811e-07
-4.55938e-07
-4.3113e-08
-6.2957e-07
2.19717e-07
-8.1815e-07
5.32831e-07
-9.9971e-07
8.74629e-07
-1.13951e-06
1.22893e-06
-1.22335e-06
1.58501e-06
-1.25443e-06
1.93475e-06
-1.2408e-06
2.27007e-06
-1.18826e-06
2.58387e-06
-1.10281e-06
2.87008e-06
-9.87608e-07
3.12209e-06
-8.42778e-07
3.33262e-06
-6.65214e-07
3.49302e-06
-4.50926e-07
3.59252e-06
-1.98115e-07
3.62577e-06
1.00348e-07
3.5837e-06
4.39656e-07
3.47041e-06
7.96627e-07
3.28918e-06
1.1541e-06
3.04344e-06
1.48074e-06
2.73264e-06
1.72936e-06
2.33728e-06
1.8248e-06
1.8992e-06
1.66843e-06
1.43773e-06
1.28737e-06
9.28757e-07
9.17466e-07
6.03552e-07
4.85883e-07
4.65075e-07
3.16137e-08
-5.80303e-08
1.3626e-07
-1.22414e-06
9.60005e-07
-2.44451e-06
1.70378e-06
-3.25222e-06
2.04382e-06
-3.83859e-06
2.11221e-06
-4.17673e-06
2.02712e-06
-4.43532e-06
1.79408e-06
-4.67408e-06
1.55781e-06
-4.90116e-06
1.32319e-06
-5.11933e-06
1.12022e-06
-5.32556e-06
9.52238e-07
-5.51888e-06
8.15919e-07
-5.69774e-06
7.06818e-07
-5.86198e-06
6.17649e-07
-6.01134e-06
5.43543e-07
-6.14568e-06
4.78788e-07
-6.26479e-06
4.20266e-07
-6.36828e-06
3.64906e-07
-6.45586e-06
3.11329e-07
-6.52714e-06
2.58168e-07
-6.58169e-06
2.04777e-07
-6.61903e-06
1.50422e-07
-6.63852e-06
9.45774e-08
-6.63934e-06
3.64424e-08
-6.62056e-06
-2.45894e-08
-6.58081e-06
-8.93946e-08
-6.51861e-06
-1.58299e-07
-6.43258e-06
-2.31403e-07
-6.32127e-06
-3.08688e-07
-6.1834e-06
-3.8992e-07
-6.01787e-06
-4.74493e-07
-5.8239e-06
-5.61257e-07
-5.60125e-06
-6.48686e-07
-5.35007e-06
-7.35268e-07
-5.07126e-06
-8.19e-07
-4.76634e-06
-8.97996e-07
-4.43713e-06
-9.71249e-07
-4.08577e-06
-1.03752e-06
-3.71519e-06
-1.09485e-06
-3.32834e-06
-1.14338e-06
-2.92827e-06
-1.18263e-06
-2.51831e-06
-1.21178e-06
-2.10193e-06
-1.22992e-06
-1.68289e-06
-1.23614e-06
-1.26545e-06
-1.23001e-06
-8.54072e-07
-1.2113e-06
-4.52949e-07
-1.18014e-06
-6.59489e-08
-1.13751e-06
3.03734e-07
-1.08556e-06
6.53925e-07
-1.02654e-06
9.82969e-07
-9.61993e-07
1.28983e-06
-8.94558e-07
1.57444e-06
-8.2714e-07
1.83719e-06
-7.61065e-07
2.07858e-06
-6.97134e-07
2.29957e-06
-6.36584e-07
2.50122e-06
-5.79628e-07
2.68431e-06
-5.25499e-07
2.84953e-06
-4.7375e-07
2.99757e-06
-4.23968e-07
3.12886e-06
-3.75283e-07
3.24346e-06
-3.26821e-07
3.34127e-06
-2.78064e-07
3.42203e-06
-2.28611e-07
3.48529e-06
-1.78035e-07
3.53058e-06
-1.26249e-07
3.5576e-06
-7.35249e-08
3.56622e-06
-2.05233e-08
3.55717e-06
3.17401e-08
3.53048e-06
8.24236e-08
3.48666e-06
1.30207e-07
3.42667e-06
1.73569e-07
3.35216e-06
2.11044e-07
3.26536e-06
2.41493e-07
3.16904e-06
2.63964e-07
3.06647e-06
2.78077e-07
2.96096e-06
2.83747e-07
2.85579e-06
2.80877e-07
2.75472e-06
2.72054e-07
2.66255e-06
2.63742e-07
2.58449e-06
2.59867e-07
2.52285e-06
2.57805e-07
2.47619e-06
2.48435e-07
2.44155e-06
2.24582e-07
2.41662e-06
1.84326e-07
2.40086e-06
1.38061e-07
2.39392e-06
9.20714e-08
2.39621e-06
6.25993e-08
2.40487e-06
4.29492e-08
2.42038e-06
5.94308e-08
8.61358e-08
2.42491e-06
5.29169e-08
-5.46549e-08
1.28558e-07
-1.10903e-07
1.63781e-07
-1.14317e-07
1.49402e-07
-9.84985e-08
9.99428e-08
-7.57995e-08
3.62605e-08
-5.64726e-08
-2.5467e-08
-4.43822e-08
-7.71045e-08
-3.83696e-08
-1.15817e-07
-3.8184e-08
-1.40922e-07
-4.47722e-08
-1.52498e-07
-5.84359e-08
-1.51325e-07
-7.82098e-08
-1.38516e-07
-1.03013e-07
-1.14802e-07
-1.32179e-07
-8.02429e-08
-1.65192e-07
-3.44977e-08
-2.01417e-07
2.28108e-08
-2.39884e-07
9.17873e-08
-2.79283e-07
1.72085e-07
-3.17987e-07
2.64469e-07
-3.56225e-07
3.71528e-07
-3.96218e-07
4.9421e-07
-4.3603e-07
6.30617e-07
-4.70925e-07
7.76073e-07
-4.95491e-07
9.23826e-07
-5.04841e-07
1.06639e-06
-4.96129e-07
1.19677e-06
-4.68587e-07
1.30993e-06
-4.23256e-07
1.40366e-06
-3.62891e-07
1.47687e-06
-2.90743e-07
1.52875e-06
-2.09186e-07
1.55886e-06
-1.20346e-07
1.56724e-06
-2.64461e-08
1.55427e-06
7.12351e-08
1.52211e-06
1.7022e-07
1.47435e-06
2.69216e-07
1.41521e-06
3.68583e-07
1.34855e-06
4.69687e-07
1.27822e-06
5.72757e-07
1.20625e-06
6.77091e-07
1.13043e-06
7.7888e-07
1.04485e-06
8.70078e-07
9.27324e-07
9.26541e-07
7.56103e-07
9.02211e-07
5.34634e-07
7.63581e-07
2.80213e-07
5.02564e-07
2.88117e-08
2.16109e-07
-1.75487e-07
1.02832e-07
-3.19837e-07
1.26234e-07
-4.14312e-07
1.5778e-07
-4.81113e-07
1.88283e-07
-5.36295e-07
2.1319e-07
-5.77722e-07
2.25829e-07
-6.11292e-07
2.2115e-07
-6.44881e-07
1.99425e-07
-6.74889e-07
1.65944e-07
-6.98916e-07
1.20894e-07
-7.13179e-07
6.26279e-08
-7.13558e-07
-1.26103e-08
-6.95061e-07
-1.08626e-07
-6.51888e-07
-2.3029e-07
-5.77297e-07
-3.82685e-07
-4.63387e-07
-5.69847e-07
-3.07008e-07
-7.8595e-07
-1.15337e-07
-1.00982e-06
1.00152e-07
-1.2152e-06
3.37309e-07
-1.37667e-06
5.90961e-07
-1.477e-06
8.53911e-07
-1.51738e-06
1.11795e-06
-1.50484e-06
1.37545e-06
-1.44576e-06
1.61929e-06
-1.34665e-06
1.84388e-06
-1.2122e-06
2.04504e-06
-1.04393e-06
2.21901e-06
-8.39184e-07
2.35923e-06
-5.9115e-07
2.45954e-06
-2.98427e-07
2.52064e-06
3.9253e-08
2.53466e-06
4.25631e-07
2.50237e-06
8.28922e-07
2.4287e-06
1.22776e-06
2.32173e-06
1.58771e-06
2.1811e-06
1.86999e-06
1.98119e-06
2.02471e-06
1.66004e-06
1.98958e-06
1.19237e-06
1.75504e-06
8.2075e-07
1.28908e-06
5.78974e-07
7.27659e-07
-9.41542e-08
7.04742e-07
-1.38157e-06
1.42368e-06
-2.59149e-06
2.16992e-06
-3.3811e-06
2.49339e-06
-3.83427e-06
2.49699e-06
-4.10947e-06
2.3874e-06
-4.27787e-06
2.19551e-06
-4.43371e-06
1.94992e-06
-4.59088e-06
1.71498e-06
-4.75942e-06
1.49174e-06
-4.93566e-06
1.29646e-06
-5.1134e-06
1.12998e-06
-5.28725e-06
9.89769e-07
-5.45298e-06
8.72546e-07
-5.60831e-06
7.7298e-07
-5.75138e-06
6.86619e-07
-5.8811e-06
6.085e-07
-5.99624e-06
5.35406e-07
-6.09598e-06
4.64646e-07
-6.17956e-06
3.94916e-07
-6.24644e-06
3.25044e-07
-6.29593e-06
2.54271e-07
-6.32751e-06
1.81996e-07
-6.34063e-06
1.07702e-07
-6.33456e-06
3.03715e-08
-6.30892e-06
-5.02286e-08
-6.2627e-06
-1.35621e-07
-6.19473e-06
-2.26264e-07