/*--------------------------------*- C++ -*----------------------------------*\
| =========                 |                                                 |
| \\      /  F ield         | OpenFOAM: The Open Source CFD Toolbox           |
|  \\    /   O peration     | Version:  2112                                  |
|   \\  /    A nd           | Website:  www.openfoam.com                      |
|    \\/     M anipulation  |                                                 |
\*---------------------------------------------------------------------------*/
FoamFile
{
    version     2.0;
    format      ascii;
    arch        "LSB;label=32;scalar=64";
    class       volVectorField;
    location    "0.26";
    object      U;
}
// * * * * * * * * * * * * * * * * * * * * * * * * * * * * * * * * * * * * * //

dimensions      [0 1 -1 0 0 0 0];

internalField   nonuniform List<vector> 
12225
(
(9.76178 0.105017 0)
(9.35158 0.0726714 0)
(9.08831 0.0492818 0)
(8.84191 0.0561297 0)
(8.57101 0.0737605 0)
(8.28218 0.0850188 0)
(7.99102 0.0869629 0)
(7.70479 0.0829743 0)
(7.4032 0.0769633 0)
(7.10697 0.0713187 0)
(6.79659 0.0648753 0)
(6.53605 0.0569242 0)
(6.24521 0.0502926 0)
(6.06132 0.0502428 0)
(5.71541 0.0534563 0)
(5.59953 0.0702701 0)
(5.04847 0.0948765 0)
(4.92433 0.164235 0)
(9.89572 0.025184 0)
(10.0002 0.0883019 0)
(10.1379 0.0689346 0)
(10.2037 0.0546783 0)
(10.2021 0.0544532 0)
(10.1568 0.0530655 0)
(10.1026 0.0550582 0)
(10.0576 0.0675041 0)
(10.0056 0.0844441 0)
(9.95298 0.101121 0)
(9.87923 0.108551 0)
(9.81299 0.11452 0)
(9.70258 0.111125 0)
(9.61068 0.119293 0)
(9.4364 0.130395 0)
(9.3155 0.152801 0)
(9.06812 0.213139 0)
(8.91023 0.288005 0)
(9.89375 0.0497442 0)
(9.80154 0.0342994 0)
(9.91622 -0.0023974 0)
(10.0105 0.0337693 0)
(10.0444 0.0884358 0)
(10.0353 0.120036 0)
(10.0072 0.127558 0)
(9.98108 0.124778 0)
(9.96597 0.118523 0)
(9.96886 0.113596 0)
(9.97814 0.109638 0)
(9.98611 0.112902 0)
(9.97352 0.120606 0)
(9.94237 0.141619 0)
(9.88677 0.167741 0)
(9.82327 0.210364 0)
(9.75226 0.275143 0)
(9.70098 0.374639 0)
(10.2041 0.0292146 0)
(10.0698 0.0898554 0)
(9.9602 0.0293144 0)
(9.92253 0.0267438 0)
(9.95981 0.0425862 0)
(10.002 0.0502835 0)
(10.0263 0.0556151 0)
(10.0472 0.0663093 0)
(10.0712 0.0805013 0)
(10.0914 0.0961654 0)
(10.0963 0.109262 0)
(10.0822 0.122975 0)
(10.0537 0.13765 0)
(10.0208 0.158637 0)
(9.99469 0.188214 0)
(9.97838 0.229292 0)
(9.97563 0.288 0)
(9.98871 0.37318 0)
(9.99226 0.0254959 0)
(9.85892 0.105295 0)
(9.84579 0.0361065 0)
(9.93876 0.0275447 0)
(10.0687 0.0691579 0)
(10.1421 0.111077 0)
(10.1503 0.128909 0)
(10.1329 0.124149 0)
(10.1182 0.110987 0)
(10.1105 0.102961 0)
(10.0994 0.105087 0)
(10.0756 0.117689 0)
(10.0416 0.135623 0)
(10.0089 0.157898 0)
(9.98673 0.185798 0)
(9.98122 0.22297 0)
(9.99109 0.276646 0)
(10.0224 0.348631 0)
(9.94916 0.0648459 0)
(9.98722 0.0857625 0)
(10.0191 0.0142348 0)
(10.0526 -0.0316313 0)
(10.0998 -0.0271708 0)
(10.1559 0.00660603 0)
(10.2068 0.040997 0)
(10.2395 0.064291 0)
(10.2436 0.0828747 0)
(10.2153 0.106276 0)
(10.162 0.134578 0)
(10.1006 0.162226 0)
(10.0445 0.183947 0)
(9.99997 0.200263 0)
(9.96878 0.216252 0)
(9.95491 0.239734 0)
(9.95698 0.274472 0)
(9.9823 0.326368 0)
(10.328 0.0224374 0)
(10.1299 0.0949735 0)
(10.1245 0.020632 0)
(10.1334 0.00301463 0)
(10.074 0.0409762 0)
(9.96165 0.0857994 0)
(9.87071 0.113826 0)
(9.84204 0.123216 0)
(9.86787 0.126018 0)
(9.92266 0.132288 0)
(9.9815 0.142597 0)
(10.0263 0.153981 0)
(10.0501 0.165093 0)
(10.0537 0.177581 0)
(10.0424 0.19467 0)
(10.0276 0.220798 0)
(10.0142 0.255686 0)
(10.0181 0.302057 0)
(9.72232 0.0444939 0)
(9.89949 0.108562 0)
(9.97389 0.0175213 0)
(9.95863 -0.00607621 0)
(9.92026 0.0366363 0)
(9.91406 0.0737484 0)
(9.93682 0.0747996 0)
(9.96214 0.0541478 0)
(9.97274 0.0425601 0)
(9.97254 0.0578731 0)
(9.97497 0.0967561 0)
(9.98779 0.144891 0)
(10.0063 0.19013 0)
(10.0227 0.225425 0)
(10.0274 0.249653 0)
(10.0239 0.268222 0)
(10.0169 0.285189 0)
(10.0139 0.308032 0)
(9.74118 0.00944855 0)
(9.90737 -0.00997383 0)
(10.0124 -0.00859533 0)
(9.98779 0.0189107 0)
(9.94614 0.0505344 0)
(9.95623 0.0786942 0)
(9.99361 0.100781 0)
(10.0104 0.118959 0)
(9.98832 0.130409 0)
(9.94685 0.13255 0)
(9.91552 0.128393 0)
(9.91162 0.124243 0)
(9.93968 0.127236 0)
(9.99086 0.143979 0)
(10.0459 0.174622 0)
(10.0887 0.214269 0)
(10.1073 0.257164 0)
(10.1084 0.29811 0)
(9.91362 -0.00122022 0)
(10.1267 -0.0306686 0)
(10.201 0.00908302 0)
(10.1447 0.0434834 0)
(10.0371 0.0611369 0)
(9.95834 0.0570499 0)
(9.93234 0.0458515 0)
(9.9485 0.0460793 0)
(9.9783 0.0640053 0)
(9.99035 0.0937392 0)
(9.9738 0.123236 0)
(9.93588 0.146117 0)
(9.88692 0.163959 0)
(9.8442 0.182101 0)
(9.82049 0.204754 0)
(9.82196 0.234472 0)
(9.84183 0.269116 0)
(9.87854 0.305138 0)
(9.77853 -0.156551 0)
(9.75962 -0.145255 0)
(9.85562 -0.0323893 0)
(10.0356 0.0642174 0)
(10.128 0.118185 0)
(10.0938 0.123201 0)
(9.98755 0.111262 0)
(9.88019 0.106425 0)
(9.81331 0.115915 0)
(9.79484 0.134 0)
(9.80734 0.151721 0)
(9.83021 0.164082 0)
(9.85391 0.170348 0)
(9.87584 0.174791 0)
(9.89342 0.182605 0)
(9.90829 0.198323 0)
(9.92029 0.221041 0)
(9.9338 0.250089 0)
(10.0483 -0.0872896 0)
(9.86363 -0.0615223 0)
(9.83028 -0.0919964 0)
(9.91857 -0.0487033 0)
(9.9814 0.0511842 0)
(9.97048 0.128778 0)
(9.93053 0.148613 0)
(9.91443 0.130322 0)
(9.9371 0.108798 0)
(9.98024 0.1029 0)
(10.0189 0.112063 0)
(10.0413 0.127625 0)
(10.0431 0.143558 0)
(10.026 0.16102 0)
(9.99434 0.182806 0)
(9.95951 0.210457 0)
(9.92915 0.24171 0)
(9.9115 0.273538 0)
(9.96303 0.0365821 0)
(10.0056 -0.109383 0)
(9.9797 -0.0979812 0)
(9.8948 -0.0095052 0)
(9.83575 0.0936938 0)
(9.8442 0.146905 0)
(9.90295 0.139381 0)
(9.97514 0.104065 0)
(10.0304 0.079553 0)
(10.0574 0.083332 0)
(10.059 0.109415 0)
(10.0469 0.144284 0)
(10.0302 0.178395 0)
(10.0148 0.207669 0)
(10.003 0.230998 0)
(9.99478 0.249255 0)
(9.99131 0.263593 0)
(9.9894 0.27549 0)
(9.98921 -0.0861233 0)
(9.99808 -0.0734829 0)
(9.91386 -0.0168155 0)
(9.86505 0.0480387 0)
(9.88834 0.0901412 0)
(9.95642 0.0870154 0)
(10.0228 0.0640479 0)
(10.0566 0.0505178 0)
(10.0615 0.0613115 0)
(10.0532 0.0911097 0)
(10.0438 0.123975 0)
(10.0379 0.147956 0)
(10.0351 0.161801 0)
(10.0307 0.172099 0)
(10.0242 0.186737 0)
(10.0168 0.207698 0)
(10.011 0.23545 0)
(10.0082 0.268342 0)
(9.86623 -0.046346 0)
(9.81619 -0.00112404 0)
(9.85777 -0.0460939 0)
(9.94667 -0.0263271 0)
(10.0591 0.0145447 0)
(10.136 0.056116 0)
(10.1527 0.0792016 0)
(10.1258 0.0851072 0)
(10.0863 0.0866633 0)
(10.0503 0.0955052 0)
(10.0215 0.116852 0)
(9.9992 0.150004 0)
(9.98174 0.190389 0)
(9.96876 0.229588 0)
(9.96352 0.258883 0)
(9.96618 0.277541 0)
(9.97894 0.284795 0)
(9.99855 0.286236 0)
(9.9917 0.0339265 0)
(10.0341 -0.082435 0)
(10.0394 -0.144383 0)
(9.9926 -0.109372 0)
(9.91302 -0.0407078 0)
(9.86334 0.0221557 0)
(9.85085 0.0676883 0)
(9.86428 0.103036 0)
(9.88716 0.135812 0)
(9.90328 0.165483 0)
(9.90465 0.187125 0)
(9.89744 0.196656 0)
(9.89721 0.19323 0)
(9.91375 0.181689 0)
(9.94789 0.170822 0)
(9.99428 0.16689 0)
(10.0459 0.173627 0)
(10.0934 0.1958 0)
(10.2074 -0.0795136 0)
(10.1825 0.021831 0)
(10.06 0.0912406 0)
(9.90787 0.123393 0)
(9.84794 0.148237 0)
(9.85832 0.13434 0)
(9.89291 0.083803 0)
(9.92975 0.0366474 0)
(9.96705 0.0265029 0)
(10.0044 0.0548006 0)
(10.0395 0.100293 0)
(10.0694 0.13953 0)
(10.0891 0.159459 0)
(10.0978 0.160285 0)
(10.0963 0.150522 0)
(10.09 0.141962 0)
(10.0804 0.141454 0)
(10.0741 0.155435 0)
(9.86923 0.121153 0)
(9.84269 0.0943254 0)
(9.90875 0.0630985 0)
(10.0064 0.0201132 0)
(10.1047 -0.0345437 0)
(10.1758 -0.0589552 0)
(10.1986 -0.040161 0)
(10.1782 0.00299637 0)
(10.1284 0.0468064 0)
(10.0675 0.0816595 0)
(10.0161 0.109999 0)
(9.98763 0.136499 0)
(9.98388 0.160614 0)
(9.99807 0.180555 0)
(10.0209 0.195785 0)
(10.045 0.20813 0)
(10.0667 0.218828 0)
(10.0829 0.229104 0)
(10.232 0.150357 0)
(10.1526 -0.0268711 0)
(10.1268 -0.109201 0)
(10.1055 -0.0824457 0)
(10.0921 -0.0217525 0)
(10.0777 0.0394563 0)
(10.0596 0.104604 0)
(10.0404 0.174175 0)
(10.0232 0.232171 0)
(10.0112 0.259089 0)
(10.0077 0.245322 0)
(10.0146 0.195148 0)
(10.0306 0.12732 0)
(10.0526 0.0643564 0)
(10.0781 0.0232997 0)
(10.1044 0.0101737 0)
(10.131 0.0231567 0)
(10.1563 0.0566735 0)
(9.96161 0.0470442 0)
(9.9898 0.177914 0)
(9.97556 0.105835 0)
(9.93341 0.0092174 0)
(9.92634 -0.0191663 0)
(9.97546 -0.00836803 0)
(10.0478 0.0249052 0)
(10.1235 0.0693472 0)
(10.1939 0.106292 0)
(10.252 0.121953 0)
(10.2924 0.116925 0)
(10.3128 0.10187 0)
(10.3157 0.0872701 0)
(10.3057 0.0788053 0)
(10.2879 0.0768841 0)
(10.2688 0.0806957 0)
(10.2532 0.0875703 0)
(10.2471 0.0972854 0)
(9.58701 -0.206587 0)
(9.62003 -0.0307874 0)
(9.78122 0.0597262 0)
(9.96182 0.0116361 0)
(10.0701 -0.0550157 0)
(10.0865 -0.0985854 0)
(10.0605 -0.0969058 0)
(10.0294 -0.048279 0)
(10.0098 0.0228307 0)
(10.0059 0.0855558 0)
(10.0148 0.122044 0)
(10.0323 0.131607 0)
(10.0553 0.123568 0)
(10.0826 0.109033 0)
(10.1129 0.0950107 0)
(10.1446 0.0841344 0)
(10.1766 0.0751153 0)
(10.2066 0.0668696 0)
(9.89397 -0.00924332 0)
(9.89806 -0.129237 0)
(9.98269 -0.265146 0)
(10.0809 -0.248369 0)
(10.1759 -0.141431 0)
(10.2323 -0.0200641 0)
(10.234 0.0715368 0)
(10.2034 0.120283 0)
(10.1746 0.133139 0)
(10.1662 0.120856 0)
(10.1784 0.0929409 0)
(10.2019 0.0589335 0)
(10.2265 0.0274828 0)
(10.2456 0.00314234 0)
(10.2584 -0.0125327 0)
(10.2678 -0.0191974 0)
(10.2761 -0.0171435 0)
(10.2873 -0.0070373 0)
(10.1575 -0.0303261 0)
(10.3128 -0.0908521 0)
(10.2173 -0.142579 0)
(10.0366 -0.191221 0)
(9.92929 -0.194475 0)
(9.9383 -0.135416 0)
(10.0026 -0.0489339 0)
(10.0718 0.0239162 0)
(10.1321 0.0638365 0)
(10.1769 0.0736188 0)
(10.2018 0.0672751 0)
(10.2073 0.0579429 0)
(10.198 0.0523902 0)
(10.1799 0.0512064 0)
(10.1576 0.0500992 0)
(10.1371 0.0459609 0)
(10.1225 0.0357766 0)
(10.1197 0.021704 0)
(10.3156 -0.0908703 0)
(10.2633 -0.0644186 0)
(10.1977 -0.0338691 0)
(10.1631 -0.0564067 0)
(10.1426 -0.0925079 0)
(10.1183 -0.0945113 0)
(10.0918 -0.0558632 0)
(10.0828 -0.00194543 0)
(10.1014 0.0401629 0)
(10.1387 0.0622285 0)
(10.1774 0.0693266 0)
(10.2064 0.0683218 0)
(10.2228 0.0629847 0)
(10.2289 0.0550425 0)
(10.229 0.0438678 0)
(10.2272 0.0290296 0)
(10.2259 0.0103985 0)
(10.2251 -0.010276 0)
(9.98776 -0.0067242 0)
(10.0472 0.0160769 0)
(10.107 -0.0754291 0)
(10.1132 -0.143601 0)
(10.0746 -0.133149 0)
(10.0459 -0.0808962 0)
(10.0416 -0.0268185 0)
(10.0655 0.0039008 0)
(10.1217 0.00805907 0)
(10.2011 0.00177846 0)
(10.2835 0.00223256 0)
(10.3493 0.0149326 0)
(10.3876 0.0336926 0)
(10.3978 0.049098 0)
(10.3871 0.0549424 0)
(10.3661 0.0502156 0)
(10.3426 0.0366911 0)
(10.3211 0.0188236 0)
(10.1177 -0.178969 0)
(10.1495 -0.0976509 0)
(10.1805 -0.0549039 0)
(10.127 -0.0596713 0)
(10.0226 -0.070301 0)
(9.94162 -0.0697586 0)
(9.92233 -0.0591291 0)
(9.9454 -0.0500531 0)
(9.98256 -0.0509979 0)
(10.0199 -0.054668 0)
(10.0565 -0.0460442 0)
(10.098 -0.0193435 0)
(10.1478 0.0168356 0)
(10.2038 0.0494118 0)
(10.2579 0.0671981 0)
(10.3019 0.0677299 0)
(10.3302 0.053756 0)
(10.3402 0.0303487 0)
(10.1241 -0.165736 0)
(10.0157 -0.0742923 0)
(9.93991 -0.0485844 0)
(9.98524 -0.0427736 0)
(10.0576 -0.0378745 0)
(10.1208 -0.0381395 0)
(10.168 -0.0422441 0)
(10.1957 -0.0468304 0)
(10.2019 -0.0510377 0)
(10.1898 -0.0542406 0)
(10.169 -0.0545419 0)
(10.1545 -0.0497176 0)
(10.158 -0.0398061 0)
(10.1822 -0.0263339 0)
(10.2201 -0.0120366 0)
(10.2602 0.000635421 0)
(10.2934 0.0114176 0)
(10.3107 0.0162749 0)
(10.0731 -0.114326 0)
(10.1495 -0.00100328 0)
(10.2039 -0.0353758 0)
(10.1883 -0.0951813 0)
(10.1373 -0.118456 0)
(10.0985 -0.10642 0)
(10.0947 -0.0783512 0)
(10.1138 -0.0551551 0)
(10.138 -0.0435783 0)
(10.1555 -0.0379709 0)
(10.1623 -0.0310796 0)
(10.1633 -0.0212238 0)
(10.1684 -0.0113072 0)
(10.1846 -0.00413296 0)
(10.2148 0.000776989 0)
(10.2548 0.00433483 0)
(10.3 0.00923978 0)
(10.3424 0.0125772 0)
(10.1976 -0.0834997 0)
(10.2054 -0.125063 0)
(10.2304 -0.0659697 0)
(10.2686 -0.025297 0)
(10.2616 -0.0297555 0)
(10.2295 -0.0502039 0)
(10.2096 -0.0672376 0)
(10.1978 -0.0741936 0)
(10.1766 -0.0701674 0)
(10.1413 -0.0603253 0)
(10.0988 -0.0504095 0)
(10.0622 -0.0441669 0)
(10.0439 -0.0428157 0)
(10.0495 -0.0449933 0)
(10.0786 -0.0472236 0)
(10.1248 -0.046926 0)
(10.182 -0.0428872 0)
(10.2418 -0.0376935 0)
(9.92922 -0.00899766 0)
(9.79653 0.0125468 0)
(9.6027 -0.0472197 0)
(9.41471 -0.0832416 0)
(9.20843 -0.0840102 0)
(9.00291 -0.0687162 0)
(8.81349 -0.053363 0)
(8.64073 -0.0404918 0)
(8.4957 -0.0268446 0)
(8.38938 -0.013334 0)
(8.31788 -0.00444446 0)
(8.26522 -0.00443116 0)
(8.21113 -0.0144531 0)
(8.1402 -0.0314969 0)
(8.04707 -0.0484013 0)
(7.94043 -0.0591446 0)
(7.83061 -0.0602594 0)
(7.73581 -0.0528925 0)
(-0.151686 0.327353 -1.05367e-20)
(-0.411276 0.173496 1.04716e-20)
(-0.568942 0.0438372 0)
(-0.596063 -0.110561 0)
(-0.482973 -0.258449 0)
(-0.2911 -0.360383 -1.02403e-20)
(0.02081 -0.432122 0)
(0.380315 -0.46924 0)
(0.753359 -0.396837 0)
(1.0515 -0.229259 0)
(1.1933 -0.0130834 9.91023e-21)
(1.15998 0.212917 0)
(0.98728 0.242311 0)
(0.825661 0.0965418 0)
(0.835484 -0.0766102 0)
(0.975987 -0.205693 9.74961e-21)
(1.13761 -0.28025 0)
(1.23311 -0.360314 0)
(1.24733 -0.399517 0)
(1.18385 -0.315407 0)
(1.00107 -0.0702956 0)
(0.661464 0.231733 0)
(0.205542 0.437487 0)
(-0.304964 0.507891 9.55497e-21)
(-0.829817 0.508267 -9.52906e-21)
(-1.35619 0.503793 9.51867e-21)
(-1.89369 0.498486 9.52033e-21)
(-2.44871 0.48236 0)
(-3.03303 0.477674 0)
(-3.66769 0.51118 -9.5786e-21)
(-4.36346 0.587835 -9.61674e-21)
(-5.10114 0.669712 0)
(-5.81886 0.682046 0)
(-6.42606 0.580369 -9.83671e-21)
(-6.8594 0.410097 0)
(-7.13327 0.267269 0)
(-7.31964 0.205158 9.98933e-21)
(-7.48307 0.200321 0)
(-7.64145 0.189584 9.88682e-21)
(-7.77095 0.12528 1.95412e-20)
(-7.83287 0.0127497 0)
(-7.8081 -0.100829 0)
(-7.7225 -0.171136 0)
(-7.60654 -0.185098 0)
(-7.4882 -0.149564 0)
(-7.38813 -0.0850322 1.66271e-20)
(-7.30978 -0.0104559 1.59493e-20)
(-7.24671 0.064936 1.5243e-20)
(-7.19336 0.1282 0)
(-7.14567 0.150285 -1.37964e-20)
(-7.08181 0.0967549 0)
(-6.956 -0.0295617 1.23662e-20)
(-6.73059 -0.168452 1.16551e-20)
(-6.40901 -0.253732 0)
(-6.02207 -0.279227 0)
(-5.59781 -0.287007 0)
(-5.15001 -0.303101 9.0271e-21)
(-4.68348 -0.321388 0)
(-4.20455 -0.333645 0)
(-3.71943 -0.339631 0)
(-3.23142 -0.34146 0)
(-2.73797 -0.343762 0)
(-2.23944 -0.345499 0)
(-1.74287 -0.34492 0)
(-1.24572 -0.344729 0)
(-0.739097 -0.348981 -5.71559e-21)
(-0.220764 -0.35186 0)
(0.322471 -0.331307 0)
(0.85293 -0.296865 5.28231e-21)
(1.30729 -0.263936 5.24866e-21)
(1.68393 -0.248244 0)
(2.0126 -0.240238 -5.30013e-21)
(2.28882 -0.229004 5.35012e-21)
(2.4612 -0.206098 0)
(2.53911 -0.177821 -5.49593e-21)
(2.651 -0.222266 0)
(2.95598 -0.392305 0)
(3.55501 -0.56301 5.4208e-21)
(4.3678 -0.469979 0)
(4.78412 -0.00460709 -5.38698e-21)
(4.33764 0.479348 0)
(3.60584 0.535 5.16173e-21)
(3.2127 0.231146 5.05173e-21)
(3.13694 -0.0668116 4.95007e-21)
(3.15944 -0.195454 9.76486e-21)
(3.12802 -0.166684 -9.73528e-21)
(2.97606 -0.0566639 0)
(2.70832 0.0534512 0)
(2.36325 0.125122 0)
(1.96874 0.169077 -1.02004e-20)
(1.5309 0.208841 -1.04244e-20)
(1.03397 0.256221 1.06895e-20)
(0.460072 0.307372 0)
(-0.180135 0.350825 -1.137e-20)
(-0.863508 0.373604 -1.18198e-20)
(-1.56573 0.378513 -1.23759e-20)
(-2.26323 0.370771 0)
(-2.94714 0.357581 0)
(-3.6145 0.343589 0)
(-4.26561 0.330749 -1.56127e-20)
(-4.90191 0.319376 0)
(-5.52448 0.308664 0)
(-6.13304 0.297563 1.87219e-20)
(-6.72575 0.28537 0)
(-7.29938 0.271597 0)
(-7.84971 0.256041 2.19278e-20)
(-8.37235 0.238783 0)
(-8.86303 0.219965 0)
(-9.31767 0.199728 -2.4651e-20)
(-9.73218 0.178111 -2.5337e-20)
(-10.1021 0.154925 0)
(-10.422 0.129853 2.62169e-20)
(-10.6854 0.102569 0)
(-10.8847 0.0727594 -2.62416e-20)
(-11.0111 0.0406143 0)
(-11.056 0.00688018 -2.51721e-20)
(-11.0136 -0.0279595 -2.41692e-20)
(-10.8797 -0.0646187 0)
(-10.6481 -0.102677 0)
(-10.3142 -0.141371 0)
(-9.8757 -0.179711 0)
(-9.33243 -0.216815 0)
(-8.68637 -0.251897 0)
(-7.94211 -0.284126 0)
(-7.10742 -0.312454 -7.61102e-21)
(-6.19381 -0.335625 5.34627e-21)
(-5.21698 -0.352234 0)
(-4.197 -0.360776 0)
(-3.15678 -0.359818 0)
(-2.11843 -0.348993 0)
(-1.1047 -0.32879 -4.13239e-21)
(-0.147209 -0.301677 0)
(0.726535 -0.271753 5.51655e-21)
(1.50861 -0.236268 -5.39569e-21)
(2.1897 -0.199438 0)
(2.76344 -0.163089 0)
(3.22973 -0.1287 0)
(3.59298 -0.0970361 2.08782e-21)
(3.86129 -0.0670321 1.03016e-21)
(4.04413 -0.0402678 0)
(4.15174 -0.0257253 -9.3552e-22)
(4.20845 -0.00978253 -1.785e-21)
(4.21483 0.041965 2.52561e-21)
(4.12893 0.0735109 0)
(4.02189 0.0133534 0)
(3.99343 -0.000896663 4.10021e-21)
(3.88459 0.0929673 0)
(3.61594 0.0474975 0)
(3.56769 -0.0569105 0)
(3.62495 0.18717 0)
(2.92607 0.494684 -4.76232e-21)
(1.74423 0.356771 -5.0902e-21)
(0.963426 0.0244121 0)
(0.640512 -0.172728 -5.6403e-21)
(0.619074 -0.216309 0)
(0.746707 -0.183794 0)
(0.917186 -0.132554 -4.53554e-21)
(1.08545 -0.0864762 0)
(1.23906 -0.062429 -3.83755e-21)
(1.39424 -0.0601269 0)
(1.56454 -0.0653473 0)
(1.77708 -0.060942 -2.87913e-21)
(2.01023 -0.0435498 0)
(2.29316 -0.0512953 -2.25911e-21)
(2.65039 -0.0656367 0)
(2.94918 -0.00727172 0)
(2.98791 0.0535713 0)
(2.93553 0.00610856 1.01865e-21)
(2.84216 0.0104395 0)
(2.17855 0.201279 -8.36634e-22)
(0.629616 0.425882 0)
(-1.36995 0.502076 0)
(-3.29351 0.466774 0)
(-4.9933 0.398605 0)
(-6.37229 0.305917 0)
(-7.33832 0.192542 0)
(-7.86186 0.0743142 0)
(-7.92448 -0.0348305 3.50385e-20)
(-7.52777 -0.141071 0)
(-6.73218 -0.306308 0)
(0.0751144 0.758257 3.15315e-20)
(0.140195 0.637137 -3.13522e-20)
(0.214299 0.339381 0)
(0.260285 -0.0322733 2.07483e-20)
(0.294231 -0.416583 0)
(0.312961 -0.746539 1.02349e-20)
(0.38968 -1.01555 -2.03578e-20)
(0.520244 -1.15018 -2.01699e-20)
(0.666871 -1.03522 0)
(0.827169 -0.609361 -1.99081e-20)
(0.89662 -0.172537 -9.91811e-21)
(0.875481 0.140599 0)
(0.816241 0.340558 0)
(0.854005 0.216318 0)
(0.922107 -0.219123 0)
(0.807545 -0.460667 -9.76102e-21)
(0.578009 -0.225437 0)
(0.219666 0.161996 1.9461e-20)
(-0.255175 0.504777 0)
(-0.759831 0.784484 0)
(-1.24015 1.00431 -1.93778e-20)
(-1.68865 1.16085 0)
(-2.11831 1.25502 1.92819e-20)
(-2.55732 1.30231 -9.49144e-21)
(-3.01332 1.32621 9.46528e-21)
(-3.48807 1.34826 -9.4555e-21)
(-3.99762 1.3913 -9.45754e-21)
(-4.55716 1.47549 0)
(-5.1654 1.60065 0)
(-5.79559 1.72412 9.5152e-21)
(-6.3944 1.76747 -1.01695e-20)
(-6.90154 1.65736 0)
(-7.28264 1.37971 0)
(-7.55045 1.00502 9.80196e-21)
(-7.75009 0.65551 0)
(-7.92095 0.427065 0)
(-8.06825 0.328434 -9.96967e-21)
(-8.16929 0.294056 0)
(-8.20739 0.246827 1.0238e-20)
(-8.1955 0.152596 -1.95223e-20)
(-8.16281 0.0309825 0)
(-8.12221 -0.0780639 0)
(-8.05877 -0.152025 -3.72222e-20)
(-7.96079 -0.186576 -3.61032e-20)
(-7.81485 -0.19232 -3.48698e-20)
(-7.6123 -0.190884 1.69255e-20)
(-7.3553 -0.199782 -1.5943e-20)
(-7.04859 -0.223985 -4.59289e-20)
(-6.694 -0.25952 2.92068e-20)
(-6.29505 -0.30338 1.38148e-20)
(-5.86835 -0.363402 0)
(-5.43911 -0.453641 -1.23974e-20)
(-5.01974 -0.57733 1.17237e-20)
(-4.59862 -0.713924 0)
(-4.16061 -0.829009 0)
(-3.70671 -0.902421 0)
(-3.24559 -0.939614 -9.05418e-21)
(-2.78607 -0.955992 0)
(-2.33378 -0.961227 1.62015e-20)
(-1.89256 -0.959823 0)
(-1.46243 -0.956376 1.45386e-20)
(-1.03682 -0.958694 0)
(-0.614582 -0.961901 -1.32059e-20)
(-0.197932 -0.956326 0)
(0.219161 -0.946638 1.2131e-20)
(0.663403 -0.95369 -5.9587e-21)
(1.13846 -0.98974 0)
(1.63799 -1.00621 -1.0974e-20)
(2.1685 -0.914697 -5.26447e-21)
(2.69416 -0.717008 -5.23135e-21)
(3.13534 -0.554161 0)
(3.48032 -0.466762 -5.45982e-21)
(3.79043 -0.292615 -5.33364e-21)
(4.02503 -0.0305628 0)
(4.04045 0.0271537 5.4821e-21)
(3.86834 -0.276642 -1.12269e-20)
(3.70653 -0.798412 0)
(3.69435 -1.14723 -5.41608e-21)
(3.88606 -0.848275 0)
(4.17433 0.0267883 1.63951e-20)
(4.27182 0.720749 0)
(4.21402 0.70705 -1.55577e-20)
(4.01781 0.303575 -5.04298e-21)
(3.55407 0.100607 4.88653e-21)
(2.89141 0.204762 9.68134e-21)
(2.16793 0.396534 -9.71486e-21)
(1.46698 0.536818 0)
(0.822596 0.620161 0)
(0.228612 0.672779 0)
(-0.331733 0.71852 3.08237e-20)
(-0.875511 0.772218 1.0433e-20)
(-1.41103 0.835482 -1.06802e-20)
(-1.93707 0.894033 0)
(-2.45678 0.933348 -1.15904e-20)
(-2.97541 0.944927 1.17713e-20)
(-3.49484 0.937155 1.23289e-20)
(-4.01384 0.91749 0)
(-4.5313 0.892876 0)
(-5.04553 0.867372 0)
(-5.55511 0.842668 1.55714e-20)
(-6.05904 0.818654 0)
(-6.55623 0.794234 -3.56021e-20)
(-7.04479 0.768187 -5.64452e-20)
(-7.52207 0.739273 3.99462e-20)
(-7.98475 0.706312 0)
(-8.42908 0.668682 2.23361e-20)
(-8.85123 0.6263 0)
(-9.24756 0.579342 4.80946e-20)
(-9.61462 0.528025 -2.51136e-20)
(-9.94894 0.472297 -2.58195e-20)
(-10.2466 0.411586 0)
(-10.5029 0.344918 -7.91649e-20)
(-10.7119 0.271084 5.32626e-20)
(-10.8669 0.188867 2.62392e-20)
(-10.9607 0.098282 0)
(-10.9851 -3.55989e-05 2.51752e-20)
(-10.9288 -0.105891 7.31444e-20)
(-10.7806 -0.218303 0)
(-10.5334 -0.335367 4.30235e-20)
(-10.1827 -0.454327 3.91642e-20)
(-9.72646 -0.572234 3.48388e-20)
(-9.16478 -0.686417 0)
(-8.50006 -0.794548 0)
(-7.737 -0.894181 0)
(-6.88329 -0.982134 -8.03093e-21)
(-5.95019 -1.05463 -5.34202e-21)
(-4.95296 -1.10751 0)
(-3.91114 -1.1362 -3.26575e-21)
(-2.8476 -1.13611 -2.02079e-22)
(-1.78413 -1.1058 0)
(-0.742073 -1.04632 4.1296e-21)
(0.243362 -0.967324 9.91179e-21)
(1.14827 -0.871023 -5.50892e-21)
(1.96752 -0.759976 -5.16949e-21)
(2.68671 -0.642531 0)
(3.29801 -0.524848 0)
(3.79823 -0.412036 0)
(4.18782 -0.308334 -2.08589e-21)
(4.47086 -0.217862 8.79188e-22)
(4.65783 -0.140551 -1.28799e-22)
(4.76449 -0.0736642 9.34913e-22)
(4.7862 -0.0269685 -1.93194e-21)
(4.74779 0.00478133 -2.52418e-21)
(4.73098 0.0483323 0)
(4.67387 0.0768765 0)
(4.49873 0.0722032 4.23105e-21)
(4.39541 0.122515 0)
(4.33481 0.167858 0)
(4.09479 0.0869444 -9.71115e-21)
(3.98882 0.152569 0)
(4.03865 0.505687 -5.04952e-21)
(4.0218 0.718835 5.07727e-21)
(3.95083 0.604458 0)
(3.76772 0.355797 -5.46837e-21)
(3.51668 0.146381 0)
(3.30437 0.0156658 0)
(3.14734 -0.0535345 4.52652e-21)
(3.028 -0.0846377 -8.32062e-21)
(2.95192 -0.101936 3.83187e-21)
(2.92844 -0.124393 0)
(2.92632 -0.146147 0)
(2.93172 -0.182842 -2.8747e-21)
(2.99176 -0.237353 0)
(3.20643 -0.287279 -2.31048e-21)
(3.50583 -0.296734 0)
(3.79073 -0.159768 0)
(4.0537 0.0155044 0)
(3.92832 0.0934214 -1.01768e-21)
(2.9767 0.376141 0)
(1.16238 0.940417 8.3589e-22)
(-1.05322 1.34435 0)
(-2.99126 1.36355 0)
(-4.58658 1.21662 -1.59569e-20)
(-5.92183 1.01844 2.29548e-20)
(-6.95974 0.774354 0)
(-7.68121 0.496275 0)
(-8.07333 0.204835 0)
(-8.09668 -0.0769162 -1.07007e-19)
(-7.69114 -0.344672 0)
(-6.95519 -0.678313 5.24043e-20)
(0.201092 -0.0213859 -1.53509e-22)
(0.519554 -0.029933 4.15017e-20)
(0.903131 -0.117684 0)
(1.17871 -0.221714 -4.12409e-20)
(1.31954 -0.283791 0)
(1.37584 -0.396967 0)
(1.36343 -0.674588 3.17439e-23)
(1.27801 -0.931078 2.01237e-20)
(1.07171 -0.957828 1.99759e-20)
(0.826132 -0.608331 1.99108e-20)
(0.606705 0.0285447 0)
(0.445001 0.435678 0)
(0.397599 0.258507 -1.95627e-20)
(0.356544 -0.129281 -3.89766e-20)
(0.0599593 0.0833883 3.88564e-20)
(-0.480978 0.528691 0)
(-1.03336 0.885069 3.87086e-20)
(-1.56481 1.19236 -1.93738e-20)
(-2.06116 1.43022 0)
(-2.52044 1.61713 3.86845e-20)
(-2.9463 1.76187 1.92756e-20)
(-3.34206 1.87362 -3.88352e-20)
(-3.71536 1.95404 -1.91878e-20)
(-4.08256 2.01717 0)
(-4.45878 2.08448 3.93292e-20)
(-4.85336 2.17474 3.95715e-20)
(-5.26794 2.29309 0)
(-5.68862 2.42339 4.01116e-20)
(-6.08746 2.5271 0)
(-6.43219 2.55067 4.06723e-20)
(-6.70166 2.44511 1.9691e-20)
(-6.89909 2.1941 0)
(-7.05525 1.83647 0)
(-7.21337 1.45638 0)
(-7.39757 1.13106 0)
(-7.5918 0.879644 0)
(-7.75271 0.670159 0)
(-7.8464 0.471764 4.17721e-20)
(-7.86994 0.280816 -6.14982e-20)
(-7.83986 0.103565 0)
(-7.7704 -0.0604803 0)
(-7.66896 -0.216067 0)
(-7.53565 -0.362695 -8.13785e-22)
(-7.36234 -0.495525 3.61372e-20)
(-7.14395 -0.612504 7.04776e-20)
(-6.87879 -0.712081 -6.77498e-20)
(-6.56996 -0.795815 -3.27062e-20)
(-6.2219 -0.869262 3.07156e-20)
(-5.83801 -0.939583 4.07392e-22)
(-5.42007 -1.01471 2.80939e-20)
(-4.97227 -1.10211 0)
(-4.50602 -1.20396 2.50659e-20)
(-4.03801 -1.30982 1.78324e-22)
(-3.58121 -1.39981 0)
(-3.13907 -1.46138 0)
(-2.70902 -1.49554 -1.9648e-20)
(-2.28877 -1.50759 0)
(-1.87982 -1.50273 0)
(-1.48877 -1.48321 1.67178e-20)
(-1.12116 -1.45545 3.11963e-20)
(-0.773106 -1.42821 -1.45475e-20)
(-0.442318 -1.41299 0)
(-0.13179 -1.40404 1.32084e-20)
(0.158212 -1.39656 0)
(0.446703 -1.41124 1.27695e-20)
(0.773935 -1.4661 1.16584e-20)
(1.15812 -1.55814 -2.32361e-20)
(1.56853 -1.65933 -1.1677e-20)
(2.01302 -1.66572 0)
(2.53657 -1.48232 2.20081e-20)
(3.09029 -1.22099 0)
(3.59687 -1.0736 3.27509e-20)
(4.0697 -0.962532 2.23464e-20)
(4.5749 -0.581837 2.27324e-20)
(5.01072 0.0103021 -2.28714e-20)
(5.11042 0.260365 3.37782e-20)
(4.86512 -0.114063 0)
(4.42574 -0.721879 0)
(3.98814 -0.846842 -2.21644e-20)
(3.76407 -0.272443 -3.33226e-20)
(3.65592 0.424023 0)
(3.37118 0.770838 1.04146e-20)
(2.71312 0.935143 0)
(1.82469 1.09918 -2.98006e-20)
(0.967189 1.22229 3.16043e-22)
(0.239868 1.27015 -3.55141e-22)
(-0.35807 1.26838 2.00357e-20)
(-0.849541 1.24498 0)
(-1.26291 1.22004 -2.05521e-20)
(-1.61907 1.20899 3.36134e-22)
(-1.93634 1.21973 0)
(-2.22993 1.25048 0)
(-2.51578 1.29038 0)
(-2.81137 1.325 2.28888e-20)
(-3.13213 1.34563 0)
(-3.48742 1.35224 0)
(-3.87917 1.3474 0)
(-4.30322 1.33436 0)
(-4.75232 1.31551 0)
(-5.21899 1.29244 3.19827e-20)
(-5.69675 1.26579 0)
(-6.18027 1.2355 3.5595e-20)
(-6.66492 1.20066 3.77538e-20)
(-7.14618 1.1597 -3.99398e-20)
(-7.6189 1.11112 0)
(-8.07748 1.05406 -4.42274e-20)
(-8.51628 0.98855 0)
(-8.93021 0.915162 -4.80896e-20)
(-9.31477 0.834453 4.97395e-20)
(-9.66576 0.746452 1.5494e-19)
(-9.97863 0.650362 0)
(-10.248 0.544511 1.60556e-19)
(-10.4672 0.426795 5.50419e-20)
(-10.6277 0.295119 0)
(-10.7198 0.147861 1.06669e-19)
(-10.7349 -0.0148731 1.04042e-19)
(-10.6637 -0.192754 -1.49037e-19)
(-10.4975 -0.382541 0)
(-10.2298 -0.579954 -4.30223e-20)
(-9.8565 -0.779979 -3.91591e-20)
(-9.37698 -0.977544 -1.06226e-19)
(-8.7933 -1.16812 0)
(-8.10963 -1.34796 0)
(-7.33189 -1.51326 0)
(-6.46861 -1.65888 -1.7011e-20)
(-5.53143 -1.77884 0)
(-4.53547 -1.86654 0)
(-3.4997 -1.91422 3.26322e-21)
(-2.44726 -1.91381 2.01919e-22)
(-1.39978 -1.86396 0)
(-0.37996 -1.7692 0)
(0.581595 -1.64469 -9.89993e-21)
(1.4674 -1.48573 0)
(2.27357 -1.30676 1.05455e-20)
(2.99131 -1.11645 9.20889e-21)
(3.61818 -0.922368 0)
(4.15395 -0.731371 0)
(4.5983 -0.549088 -3.72551e-21)
(4.95034 -0.379905 -2.90692e-22)
(5.20602 -0.231201 -2.90378e-22)
(5.36514 -0.106791 0)
(5.44214 0.000142692 7.71124e-21)
(5.43195 0.0799044 0)
(5.33685 0.129649 0)
(5.21256 0.16735 0)
(5.04267 0.174359 -8.32298e-21)
(4.8179 0.1874 0)
(4.67068 0.233771 1.91551e-20)
(4.52195 0.199305 9.70538e-21)
(4.26705 0.21006 0)
(4.19858 0.429317 9.80295e-21)
(4.39213 0.539704 0)
(4.60662 0.370984 0)
(4.70269 0.145802 3.28269e-20)
(4.70676 0.0266999 -2.08288e-20)
(4.68577 -0.00835644 0)
(4.64931 -0.0109152 -1.80367e-20)
(4.57585 0.00153121 8.30915e-21)
(4.47939 -0.00543287 0)
(4.39311 -0.042672 0)
(4.25604 -0.0584676 0)
(4.0123 -0.0865874 1.71863e-20)
(3.75978 -0.189725 0)
(3.65676 -0.32115 4.56522e-21)
(3.69331 -0.407425 0)
(3.88818 -0.297747 0)
(4.18743 0.0402017 0)
(3.84617 0.530055 0)
(2.28357 1.26421 0)
(0.0682864 2.00584 0)
(-1.82642 2.2547 1.2056e-20)
(-3.28539 2.10288 0)
(-4.57422 1.84093 1.59367e-20)
(-5.74529 1.54078 -7.20348e-20)
(-6.73243 1.18344 0)
(-7.4725 0.771722 0)
(-7.88212 0.323221 7.65045e-20)
(-7.90176 -0.135954 7.19684e-20)
(-7.50974 -0.58294 -6.73161e-20)
(-6.79294 -1.02823 -5.23728e-20)
(0.151486 -0.761869 -6.25053e-20)
(0.52577 -1.04731 -6.20358e-20)
(0.919509 -1.0008 -4.12408e-20)
(1.18975 -0.872884 -2.06181e-20)
(1.35672 -0.779454 0)
(1.46465 -0.786559 4.08522e-20)
(1.48364 -0.824375 -2.03515e-20)
(1.31427 -0.718853 0)
(0.910705 -0.252953 -1.99986e-20)
(0.448077 0.328982 0)
(0.134285 0.615138 3.95506e-20)
(-0.00914493 0.526184 0)
(-0.230282 0.512809 1.95567e-20)
(-0.745758 0.885576 3.88847e-20)
(-1.32284 1.28483 -3.86865e-20)
(-1.88421 1.60626 0)
(-2.4096 1.87219 -3.85073e-20)
(-2.90035 2.08722 0)
(-3.35431 2.25146 0)
(-3.78158 2.37732 -3.8512e-20)
(-4.18743 2.47089 0)
(-4.57717 2.54177 -5.66508e-22)
(-4.95439 2.5978 0)
(-5.32429 2.65303 0)
(-5.6893 2.72008 1.13064e-21)
(-6.04713 2.80284 -3.94155e-20)
(-6.38922 2.88879 -4.11725e-20)
(-6.70183 2.94949 -3.99755e-20)
(-6.97124 2.94641 0)
(-7.19089 2.84379 -8.30115e-20)
(-7.36917 2.6259 0)
(-7.53045 2.31106 -4.31583e-20)
(-7.70229 1.94947 0)
(-7.89423 1.59757 0)
(-8.08763 1.28481 4.38547e-20)
(-8.24898 1.00619 0)
(-8.35536 0.743799 -4.37648e-20)
(-8.40516 0.486889 1.76115e-21)
(-8.40466 0.234703 8.43244e-20)
(-8.35465 -0.00867064 -8.46905e-20)
(-8.25811 -0.238318 0)
(-8.12089 -0.449242 0)
(-7.94471 -0.636094 -4.06026e-20)
(-7.73146 -0.799102 0)
(-7.48149 -0.942771 -3.55254e-20)
(-7.19447 -1.07415 3.41282e-20)
(-6.87019 -1.20001 3.26593e-20)
(-6.50968 -1.32445 0)
(-6.11513 -1.44871 -2.95974e-20)
(-5.68987 -1.57283 -2.80499e-20)
(-5.23978 -1.69596 5.41897e-20)
(-4.77495 -1.81472 -2.50257e-20)
(-4.30774 -1.92117 -2.35786e-20)
(-3.84793 -2.0047 0)
(-3.39945 -2.05707 0)
(-2.96243 -2.07558 1.96205e-20)
(-2.5385 -2.06309 0)
(-2.13134 -2.02676 0)
(-1.74195 -1.97159 -3.28915e-20)
(-1.37022 -1.90487 -3.11583e-20)
(-1.01506 -1.83651 0)
(-0.684882 -1.77847 0)
(-0.381372 -1.72624 0)
(-0.100333 -1.69019 0)
(0.166563 -1.72778 -2.48871e-20)
(0.436974 -1.86927 2.47219e-20)
(0.724748 -2.02226 2.32402e-20)
(1.01602 -2.09219 4.60476e-20)
(1.30225 -2.07342 0)
(1.65082 -1.96946 6.25325e-22)
(2.09665 -1.83022 0)
(2.6023 -1.68123 -2.20377e-20)
(3.08043 -1.44861 5.54092e-22)
(3.43291 -1.0498 -2.27673e-20)
(3.65208 -0.513118 2.29169e-20)
(3.78938 -0.127478 9.45766e-23)
(3.84234 -0.138851 0)
(3.65687 -0.276984 2.21313e-20)
(3.1539 -0.105233 2.22107e-20)
(2.56367 0.45641 4.47313e-20)
(2.02166 1.11121 0)
(1.42479 1.58023 -2.14382e-20)
(0.754763 1.83372 0)
(0.12721 1.9167 4.04737e-20)
(-0.387784 1.88564 -1.98227e-20)
(-0.788119 1.7946 1.98481e-20)
(-1.09418 1.68372 -2.00061e-20)
(-1.33063 1.57588 -4.1401e-20)
(-1.52006 1.49 2.0541e-20)
(-1.68156 1.439 -2.08939e-20)
(-1.83343 1.42864 0)
(-1.99466 1.45667 4.40813e-20)
(-2.18657 1.51336 0)
(-2.42946 1.58369 4.69144e-20)