/*--------------------------------*- C++ -*----------------------------------*\
| =========                 |                                                 |
| \\      /  F ield         | OpenFOAM: The Open Source CFD Toolbox           |
|  \\    /   O peration     | Version:  2112                                  |
|   \\  /    A nd           | Website:  www.openfoam.com                      |
|    \\/     M anipulation  |                                                 |
\*---------------------------------------------------------------------------*/
FoamFile
{
    version     2.0;
    format      ascii;
    arch        "LSB;label=32;scalar=64";
    class       volScalarField;
    location    "0.051";
    object      nut;
}
// * * * * * * * * * * * * * * * * * * * * * * * * * * * * * * * * * * * * * //

dimensions      [0 2 -1 0 0 0 0];

internalField   nonuniform List<scalar> 
12225
(
1.10521e-09
0
0
0
0
0
0
0
0
0
0
0
0
0
0
0
0
0
4.13724e-10
0
0
0
0
0
0
0
0
0
0
0
0
0
0
0
0
0
3.95059e-10
0
0
0
0
0
0
0
0
0
0
0
0
0
0
0
0
0
0
0
0
0
0
0
0
0
0
0
0
0
1.35816e-10
5.22164e-10
0
0
0
0
0
0
0
0
0
1.01464e-07
1.11057e-07
1.18437e-07
1.6829e-07
1.57333e-07
7.3152e-08
1.82683e-07
1.96816e-07
1.23533e-07
2.31147e-08
0
0
0
0
0
0
0
0
1.62525e-08
3.10752e-07
4.19497e-07
4.41288e-07
5.16911e-07
8.17361e-08
0
2.7994e-08
2.41657e-08
0
0
0
0
0
0
0
0
0
0
0
9.00584e-08
7.09002e-07
9.13876e-07
6.02268e-07
1.37139e-07
0
0
0
0
0
0
3.43588e-08
1.99389e-07
0
0
1.42085e-07
0
0
0
1.75031e-07
4.85629e-07
5.16613e-07
4.98437e-07
1.25426e-07
0
0
0
0
0
0
3.16928e-07
1.88291e-07
3.84907e-07
1.02229e-06
8.9923e-08
0
0
0
1.83975e-07
5.21277e-07
5.41661e-07
0
0
0
0
0
0
0
6.86102e-07
7.62642e-07
1.00529e-06
1.2363e-06
3.75562e-07
0
0
0
0
0
0
0
0
0
0
0
0
3.1737e-07
1.32563e-06
1.85731e-06
2.01241e-06
1.91487e-06
8.01723e-07
5.44612e-07
7.17982e-07
5.47254e-07
0
0
0
0
0
0
0
0
0
3.50123e-07
9.18756e-07
1.77405e-06
1.46246e-06
8.33347e-07
4.23889e-07
8.2588e-07
1.28607e-06
1.16296e-06
1.43112e-07
0
0
0
0
0
0
0
0
1.79139e-07
2.82982e-07
9.85058e-07
8.89182e-07
2.90717e-07
0
0
0
0
1.88965e-07
0
0
0
0
0
0
0
0
1.25009e-07
1.85644e-07
6.32363e-07
5.86892e-07
2.36339e-07
0
0
0
0
0
1.13364e-07
1.24853e-07
6.08959e-08
1.78657e-08
1.7964e-08
1.10662e-08
0
0
0
0
6.98778e-07
6.55282e-07
3.3686e-07
1.4758e-07
7.66236e-09
0
0
0
0
0
0
2.31357e-08
1.02408e-07
1.50572e-07
9.42672e-08
0
0
1.42371e-07
6.80234e-07
3.80478e-07
2.52871e-07
5.47888e-07
6.21247e-07
4.86037e-07
0
0
0
0
0
0
0
1.16703e-07
1.7895e-07
1.63031e-07
0
0
3.63041e-07
4.40104e-07
2.68551e-07
8.28991e-07
9.29392e-07
9.97561e-07
0
0
0
0
6.24159e-08
4.92979e-07
4.46841e-07
4.39636e-07
7.83026e-07
9.00836e-07
1.35023e-06
1.4432e-06
1.4206e-06
1.21711e-06
7.56193e-07
2.65495e-07
0
0
9.13954e-07
1.23136e-06
3.72686e-07
0
3.71339e-08
4.9349e-07
8.29307e-07
1.10577e-06
1.52657e-06
1.73935e-06
9.99186e-07
9.6827e-07
7.79529e-07
1.01243e-06
7.60386e-07
0
0
0
9.60415e-07
2.05206e-06
2.99967e-06
3.0992e-06
2.06664e-06
1.38355e-06
1.51855e-06
1.53164e-06
1.22915e-06
7.79087e-07
6.82913e-09
1.64039e-07
6.79393e-07
9.90618e-07
6.59506e-07
0
0
1.5347e-07
6.96259e-07
8.86938e-07
8.43252e-07
5.33155e-07
2.29568e-07
5.32855e-07
9.43214e-07
1.07659e-06
9.29072e-07
6.02003e-07
3.47566e-07
1.15142e-06
1.88526e-06
1.43406e-08
0
0
0
0
5.95865e-07
7.19934e-07
4.51433e-07
7.63964e-10
1.01194e-07
3.72844e-07
5.37634e-07
4.64018e-07
1.18266e-07
0
7.73513e-07
1.46263e-06
1.74653e-06
0
0
0
0
1.98068e-07
7.34953e-07
6.57321e-07
3.95589e-07
0
0
1.37298e-07
3.07956e-07
2.63615e-07
3.83743e-07
9.28593e-07
6.34514e-07
1.59655e-06
2.45168e-08
0
1.15286e-06
0
0
0
2.19442e-08
6.88991e-07
5.24949e-07
4.45626e-08
0
0
0
0
0
0
0
1.80135e-07
1.92257e-06
6.21641e-06
6.83137e-06
5.89112e-06
0
0
0
0
1.07356e-07
1.8689e-08
0
0
0
0
0
0
2.81829e-08
7.84788e-11
0
3.58962e-06
6.58223e-06
6.67654e-06
1.31855e-06
3.79038e-07
3.12313e-07
8.60645e-08
0
0
0
0
0
0
0
0
1.00879e-06
0
0
1.37043e-06
2.26204e-06
7.18653e-07
4.51351e-07
5.27196e-07
4.23293e-07
1.53396e-07
0
9.99554e-08
1.84246e-07
0
0
0
0
0
3.60259e-08
0
1.04137e-08
3.47833e-08
2.59398e-08
1.71261e-09
0
0
0
0
0
0
0
0
0
0
0
0
0
0
0
0
0
0
0
0
0
0
0
0
0
0
0
0
0
0
0
0
0
0
0
0
0
0
0
0
0
0
0
0
0
0
0
0
0
0
0
0
0
0
0
0
0
0
0
0
0
0
0
0
0
0
0
4.73482e-06
6.1112e-06
0
0
0
9.18564e-07
4.83239e-06
5.49498e-06
6.30474e-06
8.38275e-06
1.10086e-05
1.44058e-05
1.75686e-05
1.83783e-05
1.57568e-05
1.10164e-05
5.91997e-06
1.66038e-06
0
0
0
0
0
0
0
0
0
0
0
0
0
0
0
0
0
0
0
0
0
2.09675e-07
1.6253e-06
0
9.52394e-07
1.11902e-05
2.93109e-05
3.55765e-05
3.54378e-05
3.00324e-05
2.30994e-05
1.4404e-05
5.91468e-06
0
0
0
0
0
0
0
0
0
0
0
0
0
1.50716e-05
4.88872e-05
8.41139e-05
9.21077e-05
7.17564e-05
4.32194e-05
1.99183e-05
7.48583e-06
2.40319e-06
6.02511e-07
5.69246e-08
0
0
3.87711e-08
9.60615e-08
1.46027e-07
1.90132e-07
2.30061e-07
2.66117e-07
2.96965e-07
3.22192e-07
3.39452e-07
3.48846e-07
3.46178e-07
3.36676e-07
3.11176e-07
2.83666e-07
2.46458e-07
2.06785e-07
1.62599e-07
1.24679e-07
8.49151e-08
5.11876e-08
1.87169e-08
0
0
0
0
0
0
0
0
0
0
0
0
0
0
0
0
0
0
0
0
0
0
0
0
0
0
0
0
0
0
0
0
0
0
0
3.79059e-09
6.86909e-09
8.44831e-09
8.21159e-09
6.19341e-09
2.61534e-09
0
0
0
0
0
0
0
0
0
0
0
0
0
0
0
0
0
0
0
0
0
0
0
0
0
5.92894e-10
3.105e-10
0
0
0
0
0
0
0
0
0
0
2.15821e-11
1.10237e-09
2.319e-10
1.6241e-06
4.23438e-06
0
0
0
0
3.25557e-06
9.24117e-06
1.45066e-05
1.68022e-05
8.75856e-06
2.72369e-06
1.47804e-06
2.42064e-06
3.858e-06
4.67304e-06
4.53016e-06
3.62573e-06
2.38618e-06
1.19335e-06
2.65952e-07
0
0
0
0
0
0
0
0
0
0
0
0
0
0
0
0
0
0
0
0
0
0
0
0
3.54226e-06
2.6921e-05
4.20113e-05
4.67446e-05
4.39642e-05
3.09059e-05
1.02294e-05
0
0
0
0
0
0
0
0
0
0
0
0
1.55171e-05
4.55968e-05
5.1214e-05
3.82665e-05
2.51512e-05
1.65661e-05
1.0858e-05
7.06857e-06
4.57561e-06
2.86573e-06
1.69196e-06
9.69228e-07
5.92794e-07
4.19448e-07
3.47557e-07
3.21001e-07
3.17066e-07
3.25539e-07
3.4085e-07
3.56467e-07
3.70709e-07
3.78101e-07
3.76211e-07
3.66794e-07
3.47233e-07
3.26911e-07
2.95711e-07
2.6862e-07
2.35954e-07
2.05255e-07
1.7239e-07
1.38657e-07
1.03114e-07
6.56276e-08
2.57842e-08
0
0
0
0
0
0
0
0
0
0
0
0
0
0
0
0
0
0
0
0
0
0
0
0
0
0
0
0
0
0
0
0
0
0
0
0
0
0
0
0
0
0
0
0
0
0
0
0
0
0
0
0
0
0
0
0
0
0
0
0
0
0
0
0
0
0
4.92067e-09
6.17706e-09
4.179e-09
0
0
0
0
0
0
0
4.0858e-10
2.28717e-09
2.33359e-09
8.84891e-09
0
1.4852e-05
8.73087e-06
0
0
0
0
0
1.54902e-06
3.8834e-06
4.35957e-06
2.4791e-06
6.37906e-07
0
0
0
0
0
0
0
0
0
0
0
0
0
0
0
0
0
0
9.28913e-08
1.29016e-07
7.71483e-08
0
0
0
0
0
0
0
0
0
0
0
0
0
0
0
0
0
0
0
0
0
0
0
0
0
0
0
0
0
0
9.3119e-07
8.02818e-06
7.39952e-06
5.99447e-06
4.65958e-06
3.95271e-06
3.74e-06
3.59581e-06
3.42564e-06
3.31329e-06
3.31257e-06
3.38524e-06
3.45006e-06
3.41566e-06
3.19295e-06
2.84656e-06
2.47618e-06
2.18256e-06
1.99505e-06
1.89692e-06
1.83294e-06
1.75799e-06
1.65233e-06
1.53331e-06
1.41648e-06
1.27139e-06
1.12347e-06
9.7841e-07
8.47342e-07
7.23708e-07
6.05859e-07
4.9824e-07
3.96318e-07
2.93778e-07
1.91806e-07
8.44273e-08
0
0
0
0
0
0
0
0
0
0
0
0
0
0
0
0
0
0
0
0
0
0
0
0
0
0
0
0
0
0
0
0
0
0
0
0
0
0
0
0
0
0
0
2.13334e-08
3.29188e-08
3.00223e-08
2.03314e-08
1.16139e-08
8.08332e-09
2.11057e-09
0
0
0
0
1.06982e-08
1.99102e-08
1.06136e-09
0
0
0
0
0
0
0
0
0
1.23296e-08
1.88415e-08
1.75369e-08
9.54498e-09
0
0
0
0
0
0
4.22995e-09
1.1166e-08
5.27169e-09
2.40183e-08
0
5.02615e-06
4.66977e-06
0
0
0
0
6.23696e-07
5.00078e-07
8.49848e-07
2.13237e-06
2.07327e-06
5.82915e-07
0
0
0
0
0
0
0
0
0
0
0
0
0
0
0
3.11522e-08
2.63447e-07
4.74605e-07
6.63282e-07
7.95738e-07
8.54476e-07
8.68122e-07
8.55658e-07
7.83189e-07
6.68495e-07
4.36669e-07
0
0
1.8529e-07
3.38257e-07
7.51906e-07
1.58005e-06
1.79406e-06
0
0
0
0
0
0
0
0
0
0
0
2.75451e-06
5.68723e-06
5.54108e-06
2.2403e-06
0
0
0
8.11143e-07
2.79272e-06
2.68486e-06
2.05035e-06
1.57767e-06
1.46864e-06
1.76954e-06
2.36743e-06
3.23048e-06
4.25109e-06
4.92669e-06
4.50865e-06
3.29556e-06
2.16578e-06
1.41408e-06
9.80318e-07
7.54735e-07
6.60716e-07
6.45611e-07
6.74079e-07
7.12741e-07
7.4453e-07
7.58586e-07
7.47421e-07
7.11146e-07
6.68712e-07
6.34783e-07
6.27618e-07
6.64995e-07
7.37699e-07
8.53601e-07
1.00875e-06
1.18467e-06
1.36713e-06
1.60416e-06
1.31865e-06
0
0
0
0
0
0
0
0
0
0
0
0
0
0
0
0
0
0
0
0
0
0
0
0
0
0
0
0
0
0
0
0
0
0
0
0
0
0
0
0
0
0
0
0
0
0
0
0
0
0
0
0
0
0
0
5.69909e-09
0
0
0
0
0
0
0
0
0
0
7.68725e-09
3.34705e-08
3.5362e-08
1.51591e-08
0
0
0
0
0
6.29006e-09
8.85915e-09
2.97579e-08
0
4.6603e-08
0
0
0
0
0
0
0
2.93524e-07
4.58052e-08
0
0
0
0
0
0
0
0
0
0
0
0
0
0
0
0
0
0
7.7873e-08
3.2765e-07
5.7131e-07
8.02481e-07
1.01358e-06
1.18937e-06
1.31689e-06
1.4035e-06
1.46167e-06
1.48094e-06
1.44219e-06
1.31857e-06
1.13532e-06
1.16421e-06
1.2478e-06
1.04498e-06
1.22706e-06
2.20324e-06
3.2598e-06
3.78926e-06
3.6332e-06
2.38886e-06
0
0
0
0
0
0
0
9.82604e-06
1.76549e-05
1.57949e-05
9.12349e-06
3.32415e-06
0
0
0
0
4.85393e-07
1.00414e-06
1.22614e-06
1.39732e-06
1.68144e-06
2.08477e-06
2.41338e-06
2.40851e-06
1.93647e-06
1.24514e-06
6.93178e-07
3.78529e-07
2.31496e-07
1.78319e-07
1.75711e-07
2.01128e-07
2.41717e-07
2.84855e-07
3.08135e-07
3.05302e-07
2.70818e-07
2.2425e-07
1.92987e-07
1.94724e-07
2.37434e-07
3.17129e-07
4.20687e-07
5.35074e-07
6.46184e-07
7.51121e-07
8.20972e-07
7.89909e-07
5.76216e-07
0
0
0
0
0
0
0
0
0
0
0
0
0
0
0
0
0
0
0
0
0
0
0
0
0
0
0
0
0
0
0
0
0
0
0
0
0
0
0
0
0
0
0
0
0
0
0
0
0
0
0
0
0
0
0
0
0
0
0
0
0
0
0
0
0
0
0
0
0
0
0
0
0
0
0
0
0
0
0
2.3329e-08
0
8.64591e-08
0
0
0
0
0
0
0
0
0
0
0
0
0
0
0
0
0
0
0
0
0
0
0
0
0
0
0
0
1.7294e-07
4.18181e-07
6.51595e-07
8.6647e-07
1.06544e-06
1.23673e-06
1.39129e-06
1.54142e-06
1.68105e-06
1.77729e-06
1.81393e-06
1.81259e-06
1.83569e-06
1.81748e-06
1.6457e-06
1.68822e-06
2.30304e-06
3.0874e-06
3.74024e-06
4.27404e-06
4.38308e-06
3.91835e-06
2.75645e-06
7.44124e-07
0
0
0
0
1.5669e-05
1.84993e-05
7.71779e-06
2.27611e-06
0
0
0
0
0
0
0
4.58533e-08
4.415e-07
8.0621e-07
1.09517e-06
1.21958e-06
1.05233e-06
6.51321e-07
2.96477e-07
1.20245e-07
7.34229e-08
8.71745e-08
1.22257e-07
1.6043e-07
1.92952e-07
2.04452e-07
1.86649e-07
1.47493e-07
1.00752e-07
6.59979e-08
6.22499e-08
1.02194e-07
1.90624e-07
3.12043e-07
4.21253e-07
4.62051e-07
4.25823e-07
3.85101e-07
3.9223e-07
4.50505e-07
4.09776e-07
3.93292e-08
0
0
0
0
0
0
0
0
0
0
0
0
0
0
0
0
0
0
0
0
0
0
0
0
0
0
0
0
0
0
0
0
0
0
0
0
0
0
0
0
0
0
0
0
0
0
0
0
0
0
0
0
0
0
0
0
0
0
0
0
0
0
0
0
0
0
0
0
0
0
0
0
0
0
0
0
0
0
8.22197e-08
3.31931e-07
1.70747e-07
4.10652e-07
0
0
0
0
0
0
0
0
0
0
0
0
0
0
0
0
0
0
0
0
0
0
0
0
0
0
0
5.90205e-08
3.75788e-07
6.63195e-07
9.05869e-07
1.10972e-06
1.28032e-06
1.40253e-06
1.49413e-06
1.54635e-06
1.57513e-06
1.59677e-06
1.66274e-06
1.80886e-06
2.07109e-06
2.3535e-06
2.56221e-06
2.71571e-06
2.91695e-06
3.20281e-06
3.48435e-06
3.75292e-06
3.85659e-06
3.50696e-06
2.56067e-06
1.16972e-06
0
0
0
0
0
7.77826e-06
4.86958e-06
1.97296e-06
0
0
0
0
0
0
0
0
1.35494e-07
5.55315e-07
8.91401e-07
9.57456e-07
5.7508e-07
1.00018e-07
0
0
3.42185e-08
1.17061e-07
1.66638e-07
1.77379e-07
1.51788e-07
1.05556e-07
7.06626e-08
5.35786e-08
4.6937e-08
4.90227e-08
7.51598e-08
1.36713e-07
2.2398e-07
2.99603e-07
3.05166e-07
2.40384e-07
1.61026e-07
2.02283e-07
5.13602e-07
9.61504e-07
1.06801e-06
2.91076e-07
0
0
0
1.58399e-07
0
0
0
0
0
0
0
0
0
0
0
0
0
0
0
0
0
0
0
0
0
0
0
0
0
0
0
0
0
0
0
0
0
0
0
0
0
0
0
0
0
0
3.26252e-08
4.98379e-08
5.94475e-08
1.37927e-07
2.66413e-07
3.88527e-07
4.36007e-07
3.52888e-07
1.55077e-07
0
0
0
0
0
0
0
0
0
0
0
0
0
0
0
0
0
0
0
0
0
0
0
3.04046e-07
5.98103e-07
5.4008e-07
5.41684e-07
1.29147e-07
0
0
0
0
0
0
0
0
0
0
0
0
0
0
0
0
0
0
0
0
0
0
0
0
0
9.87935e-08
4.30515e-07
7.40626e-07
1.02445e-06
1.26589e-06
1.47367e-06
1.64302e-06
1.74598e-06
1.8285e-06
1.84629e-06
1.85358e-06
1.78616e-06
1.69296e-06
1.58652e-06
1.49581e-06
1.49975e-06
1.64604e-06
1.92951e-06
2.35083e-06
2.7657e-06
3.14425e-06
3.48186e-06
3.68055e-06
3.32757e-06
2.19724e-06
6.59454e-07
0
0
0
0
0
6.61862e-06
6.4174e-06
4.13844e-06
1.23327e-06
0
0
0
0
0
0
0
2.01264e-07
6.79625e-07
1.0311e-06
7.54585e-07
0
0
0
0
8.04185e-08
1.85758e-07
2.02436e-07
1.52039e-07
7.60516e-08
3.52281e-08
3.92972e-08
5.81433e-08
6.57937e-08
6.31612e-08
7.13642e-08
1.00122e-07
1.48101e-07
2.02232e-07
2.35858e-07
2.0469e-07
1.71714e-07
4.0136e-07
9.95989e-07
1.46075e-06
1.05327e-06
0
0
0
2.86332e-06
5.93082e-06
3.70423e-06
2.27199e-06
1.17341e-06
1.94772e-07
0
0
0
0
0
0
0
0
0
0
0
0
0
0
0
0
0
0
0
0
0
0
0
0
0
0
0
0
0
0
0
0
0
0
0
0
1.09617e-07
2.38325e-07
3.36185e-07
3.99832e-07
4.47482e-07
5.37304e-07
6.91725e-07
8.99841e-07
1.08099e-06
1.17608e-06
1.15442e-06
8.35803e-07
1.67105e-07
0
0
0
0
0
0
0
0
0
0
0
0
0
0
0
0
0
0
0
0
0
1.40731e-07
5.74292e-07
5.79336e-07
4.80592e-07
1.54554e-07
0
0
0
0
0
0
0
0
0
0
0
0
0
0
0
0
0
0
0
0
0
0
7.50034e-08
1.29601e-07
0
0
0
0
1.51467e-07
6.22116e-07
1.05266e-06
1.34047e-06
1.44181e-06
1.41457e-06
1.39109e-06
1.52661e-06
1.77671e-06
1.88478e-06
1.75111e-06
1.52195e-06
1.26571e-06
1.08136e-06
9.53059e-07
9.44738e-07
1.04855e-06
1.22784e-06
1.47951e-06
1.92193e-06
2.0791e-06
1.34891e-06
4.68021e-07
2.40228e-07
8.57864e-07
1.84535e-06
2.8879e-06
4.33813e-06
4.5151e-06
3.23555e-06
2.89444e-06
2.68974e-06
1.73358e-06
6.70023e-08
0
0
0
0
0
5.15036e-07
1.17311e-06
1.42148e-06
0
0
0
0
0
1.80705e-07
2.6659e-07
2.24802e-07
1.18108e-07
2.83838e-08
5.8456e-09
3.58455e-08
6.91065e-08
7.11407e-08
4.4605e-08
8.64471e-09
0
7.44294e-08
2.5375e-07
4.17596e-07
3.79628e-07
1.90867e-07
3.39317e-07
9.15868e-07
1.25644e-06
7.76841e-07
0
0
0
1.15067e-06
1.69903e-06
8.04052e-07
7.17524e-08
0
0
0
0
0
0
0
0
0
0
0
0
0
0
0
0
0
0
0
0
0
0
0
0
0
0
0
0
0
0
0
0
0
0
0
3.34342e-08
2.17591e-07
4.57592e-07
7.00852e-07
9.26811e-07
1.13693e-06
1.25717e-06
1.28105e-06
1.31371e-06
1.44271e-06
1.64503e-06
1.83408e-06
1.96273e-06
2.00357e-06
1.95742e-06
1.69938e-06
6.0099e-07
8.33723e-08
0
0
0
0
0
1.28277e-10
1.44718e-07
2.46537e-07
0
0
0
0
0
6.38101e-07
1.54682e-06
2.3473e-06
2.48738e-06
6.6811e-07
0
0
3.23101e-07
4.60174e-07
3.30943e-07
3.70051e-08
0
0
0
0
0
0
0
0
0
0
0
0
0
0
0
0
0
0
0
6.56456e-07
1.72711e-06
2.55641e-06
2.72179e-06
1.96929e-06
4.69337e-07
0
0
0
0
3.66188e-07
1.43177e-06
2.18337e-06
2.45258e-06
2.19782e-06
1.3709e-06
1.13432e-07
0
0
1.04428e-06
1.64327e-06
1.54436e-06
1.20123e-06
9.05621e-07
6.93312e-07
5.64223e-07
4.88728e-07
4.61347e-07
3.99416e-07
5.16764e-07
1.11538e-06
2.08257e-06
3.49523e-06
4.84721e-06
5.58948e-06
5.21215e-06
3.27378e-06
8.0134e-07
2.06736e-07
4.87445e-06
5.97504e-06
4.41934e-06
2.60913e-06
2.99521e-08
0
0
0
2.87814e-07
1.22188e-06
2.21768e-06
0
0
0
0
0
4.54815e-09
3.13659e-07
3.30082e-07
2.13333e-07
7.98121e-08
0
0
1.98851e-08
6.02155e-08
6.00207e-08
9.68592e-09
0
0
8.43142e-08
4.43452e-07
7.01414e-07
4.09846e-07
0
0
6.70752e-07
1.24353e-06
1.25557e-06
7.95789e-07
0
0
0
0
0
0
0
0
0
0
0
0
0
0
0
0
0
0
0
3.79642e-07
6.95564e-08
0
0
0
0
0
0
0
0
0
0
0
0
0
0
0
0
0
0
0
1.48636e-08
5.37993e-07
9.63849e-07
1.0675e-06
1.22589e-06
1.382e-06
1.60125e-06
1.8401e-06
1.90787e-06
1.91061e-06
1.97713e-06
2.19389e-06
2.42472e-06
2.56947e-06
2.65048e-06
2.6605e-06
2.5748e-06
2.31139e-06
2.11909e-06
1.27809e-06
6.4213e-07
3.68133e-07
2.77194e-07
2.72558e-07
3.47535e-07
4.86458e-07
6.27853e-07
5.96906e-07
5.01215e-08
0
0
1.76044e-06
2.31999e-06
2.53044e-06
2.67837e-06
2.52019e-06
2.03887e-06
1.65245e-06
0
0
1.74075e-07
1.26551e-07
0
0
0
0
0
0
0
0
0
0
0
0
0
0
0
0
0
0
7.72902e-07
2.6012e-06
5.04967e-06
7.90475e-06
1.04705e-05
1.14698e-05
9.0605e-06
3.05906e-06
0
0
0
0
0
3.84771e-08
2.18783e-06
3.57162e-06
4.13469e-06
3.88527e-06
2.69935e-06
3.22806e-07
0
0
0
1.0185e-06
1.45178e-06
1.18524e-06
8.04036e-07
5.40353e-07
4.00449e-07
3.18151e-07
2.56273e-07
2.8478e-08
2.15678e-07
1.58622e-06
3.17132e-06
3.25429e-06
1.76845e-06
0
0
0
0
8.24679e-06
8.77938e-06
5.64945e-06
3.0073e-06
0
0
0
0
8.09778e-07
1.49021e-06
0
0
0
0
0
0
1.96364e-07
4.28001e-07
2.98434e-07
1.15927e-07
1.04709e-08
0
0
5.88823e-09
3.88338e-08
3.62018e-08
0
0
0
1.47844e-07
6.26968e-07
7.87192e-07
1.8696e-07
0
0
5.01437e-07
1.20268e-06
1.30125e-06
7.44451e-07
0
0
0
0
0
0
0
0
0
0
0
0
0
0
0
0
0
0
7.84658e-07
1.16407e-06
7.25083e-07
0
0
0
0
0
0
0
0
0
0
0
0
0
0
4.36228e-07
6.17316e-07
5.59995e-07
5.32608e-07
5.34839e-07
5.11483e-07
5.69669e-07
6.13091e-07
5.54211e-07
5.23032e-07
5.21938e-07
5.75744e-07
7.32995e-07
9.39609e-07
1.06773e-06
1.2158e-06
1.44636e-06
1.79162e-06
2.09171e-06
2.33807e-06
2.49832e-06
2.41695e-06
2.0671e-06
1.57202e-06
1.4922e-06
1.82662e-06
1.53279e-06
1.08693e-06
8.54076e-07
8.34648e-07
9.02138e-07
9.62467e-07
9.79824e-07
8.74316e-07
6.53386e-07
5.26926e-07
8.94726e-07
1.38271e-06
1.61499e-06
1.61359e-06
1.34585e-06
1.07876e-06
1.79132e-06
1.23321e-06
9.35777e-08
0
0
0
0
0
0
0
0
0
0
0
0
0
0
0
0
0
0
1.41266e-07
1.56693e-06
3.81858e-06
7.25074e-06
1.2095e-05
1.86879e-05
2.70798e-05
3.6112e-05
3.75899e-05
1.00011e-05
0
0
0
0
0
0
0
0
2.25161e-06
3.7398e-06
4.10209e-06
3.11108e-06
5.7018e-07
0
0
0
5.60063e-07
1.23263e-06
9.76292e-07
6.02853e-07
3.61347e-07
2.4291e-07
1.69724e-07
3.86389e-08
0
0
1.4984e-07
0
0
0
0
0
2.05095e-07
7.18918e-06
8.86151e-06
7.11155e-06
5.01584e-06
1.32562e-06
0
0
0
0
0
0
0
0
0
0
0
3.56654e-07
4.40743e-07
1.93548e-07
1.55249e-08
0
0
0
1.34511e-08
3.03486e-08
1.25633e-08
0
0
0
1.63781e-07
6.27517e-07
6.00212e-07
0
0
0
2.05859e-07
8.27973e-07
7.54548e-07
1.63024e-07
0
0
0
4.12708e-07
7.17174e-07
9.51789e-07
1.08206e-06
4.3838e-07
0
0
0
0
0
0
0
0
0
6.79029e-07
1.74326e-06
1.89224e-06
1.25823e-06
3.41633e-07
0
0
0
0
0
0
0
0
0
0
0
0
0
4.61846e-07
1.49812e-06
1.50602e-06
1.27354e-06
1.08148e-06
9.16904e-07
7.54671e-07
6.36162e-07
5.2875e-07
4.48346e-07
4.09177e-07
3.84754e-07
3.64644e-07
4.08304e-07
4.6696e-07
4.90492e-07
5.64241e-07
7.47106e-07
1.03275e-06
1.27712e-06
1.54304e-06
1.74867e-06
1.68086e-06
1.44573e-06
1.04925e-06
9.29875e-07
1.32518e-06
1.59349e-06
1.47636e-06
1.39364e-06
1.38961e-06
1.31654e-06
1.26598e-06
1.35997e-06
1.6599e-06
1.71977e-06
1.22633e-06
1.24466e-06
1.3187e-06
1.17412e-06
8.07863e-07
4.39277e-07
5.89252e-08
0
0
0
0
0
0
0
0
0
0
0
0
0
0
0
0
0
0
0
7.4317e-08
1.06913e-06
2.68877e-06
5.23327e-06
8.97274e-06
1.41988e-05
2.12751e-05
3.02817e-05
3.84965e-05
2.70884e-05
0
0
0
0
0
0
0
0
0
0
1.04842e-07
2.02002e-06
2.83563e-06
2.26799e-06
6.02693e-08
0
0
0
6.72201e-07
9.72087e-07
6.61657e-07
3.67163e-07
1.78684e-07
6.68124e-08
0
0
0
0
0
0
0
1.6698e-06
2.84765e-06
3.09912e-06
4.44644e-06
5.73136e-06
6.37105e-06
6.48376e-06
3.83208e-06
1.35543e-06
2.52939e-07
0
0
0
0
0
0
0
0
0
3.19102e-07
3.48639e-07
1.30126e-07
0
0
0
1.06522e-08
5.32881e-08
6.05255e-08
1.57025e-08
0
0
0
1.0074e-07
4.7553e-07
3.00862e-07
0
0
0
0
4.23876e-07
2.23197e-07
0
0
0
0
0
0
0
0
1.92757e-07
0
0
0
0
0
0
0
0
0
1.06157e-06
2.14164e-06
2.36908e-06
1.72634e-06
7.4298e-07
2.80229e-09
0
0
0
0
0
0
0
0
0
0
0
0
0
1.81845e-06
2.69778e-06
2.37352e-06
1.89732e-06
1.47164e-06
1.10582e-06
8.27807e-07
6.14845e-07
4.77929e-07
4.21099e-07
4.00815e-07
3.86067e-07
3.69642e-07
3.86279e-07
3.7006e-07
3.329e-07
3.4995e-07
4.65264e-07
6.10922e-07
7.4515e-07
1.02443e-06
1.26901e-06
1.26737e-06
1.07568e-06
7.29108e-07
6.72527e-07
1.024e-06
1.38553e-06
1.5805e-06
1.7409e-06
1.6754e-06
1.56758e-06
1.73495e-06
2.06136e-06
2.24617e-06
2.16844e-06
1.77799e-06
1.43425e-06
9.92e-07
4.77616e-07
0
0
0
0
0
0
0
0
0
0
0
0
0
0
0
0
0
0
0
0
0
6.05341e-08
6.82874e-07
1.70376e-06
3.25039e-06
5.37379e-06
7.93101e-06
1.01355e-05
9.76579e-06
3.01735e-06
0
0
0
0
0
0
0
0
0
0
0
0
0
1.24047e-06
1.73131e-06
1.14188e-06
0
0
0
1.47994e-07
8.53727e-07
6.23424e-07
3.31895e-07
1.47924e-07
2.88619e-08
0
0
0
0
0
0
0
2.13924e-06
3.13228e-06
2.85667e-06
3.14469e-06
4.07187e-06
4.68635e-06
3.86493e-06
2.2216e-06
1.15098e-06
5.05047e-07
0
0
0
0
0
0
0
0
0
0
1.96617e-07
1.35465e-07
3.9298e-08
3.16886e-09
1.73862e-08
6.37363e-08
1.14194e-07
1.20765e-07
5.13459e-08
0
0
0
1.52873e-08
4.27901e-07
2.29627e-07
0
0
0
0
5.52565e-07
4.69477e-07
0
0
0
0
0
0
0
0
0
0
0
0
4.62482e-07
3.48815e-07
0
0
0
1.7008e-07
1.02346e-06
1.90383e-06
2.26832e-06
1.84495e-06
1.03646e-06
4.67247e-07
2.2633e-07
1.11273e-07
0
0
0
0
0
0
0
0
0
0
0
3.4605e-07
3.33603e-06
3.67139e-06
2.94468e-06
2.20898e-06
1.59546e-06
1.13334e-06
7.96036e-07
5.67654e-07
4.45597e-07
4.01385e-07
4.00186e-07
4.11788e-07
4.40403e-07
4.52751e-07
4.06988e-07
3.36829e-07
3.34018e-07
4.07399e-07
4.57962e-07
5.961e-07
9.06196e-07
1.0482e-06
9.98978e-07
7.87382e-07
5.35608e-07
5.81312e-07
8.96252e-07
1.24325e-06
1.60948e-06
1.82613e-06
1.8554e-06
2.01693e-06
2.20473e-06
2.34474e-06
2.5512e-06
2.37846e-06
1.28074e-06
2.79357e-07
1.9866e-07
0
0
0
0
0
0
0
0
0
0
0
0
0
0
0
0
0
0
0
0
0
0
0
0
0
0
0
0
0
0
0
0
0
0
0
0
0
0
0
0
0
0
0
5.92052e-07
1.20794e-06
1.03039e-06
0
0
0
4.8251e-07
8.80632e-07
4.98122e-07
1.9409e-07
6.21971e-08
0
0
0
0
0
0
0
0
0
1.95087e-06
2.2525e-06
2.51302e-06
2.94944e-06
2.92239e-06
2.18253e-06
1.4146e-06
9.27792e-07
5.53395e-07
1.08995e-07
0
0
0
0
0
0
0
0
0
0
1.03029e-07
1.11664e-07
7.91951e-08
8.16158e-08
1.22292e-07
1.75441e-07
1.89997e-07
1.19459e-07
0
0
0
0
5.06602e-07
4.64688e-07
0
0
0
0
1.17685e-06
1.65988e-06
1.27867e-06
1.52871e-07
0
0
0
0
0
0
0
0
0
3.00749e-07
8.91145e-07
6.24344e-07
1.47957e-07
0
9.66629e-09
3.18452e-07
8.02756e-07
1.43803e-06
1.87924e-06
1.71312e-06
1.20846e-06
9.62223e-07
8.80263e-07
8.25682e-07
5.88734e-07
0
0
0
0
0
0
0
0
0
0
0
2.43246e-06
4.54422e-06
4.08253e-06
3.06368e-06
2.19113e-06
1.52773e-06
1.04573e-06
7.10302e-07
5.1249e-07
4.25225e-07
4.05114e-07
4.18196e-07
4.47901e-07
4.96858e-07
5.14378e-07
4.85004e-07
4.34458e-07
4.50024e-07
4.8738e-07
4.86098e-07
6.53876e-07
8.34754e-07
8.49516e-07
7.67231e-07
5.71342e-07
4.52647e-07
5.68578e-07
8.32168e-07
1.17967e-06
1.48824e-06
1.78641e-06
2.06896e-06
2.18114e-06
2.20855e-06
2.08193e-06
9.67386e-07
0
0
6.16103e-08
0
0
0
0
0
0
0
0
0
5.46937e-08
1.188e-06
1.11306e-06
9.78827e-07
9.15471e-07
8.40552e-07
7.43936e-07
5.84849e-07
4.0777e-07
2.2034e-07
3.51933e-09
0
0
0
0
0
0
0
0
0
0
0
0
0
0
0
0
0
0
0
0
0
0
0
4.22317e-07
8.77807e-07
7.0226e-07
0
0
0
1.12086e-06
8.72821e-07
3.30554e-07
5.30805e-08
0
0
0
0
0
0
0
0
0
0
1.98423e-07
1.49879e-06
1.70482e-06
1.75551e-06
1.66384e-06
1.36648e-06
1.0267e-06
7.65884e-07
5.68685e-07
3.12008e-07
0
0
0
0
0
0
0
0
0
0
0
1.26334e-07
1.44311e-07
1.4219e-07
1.68922e-07
2.14961e-07
2.36092e-07
1.77302e-07
0
0
0
0
4.09665e-07
6.83863e-07
0
0
0
0
1.59879e-06
3.05088e-06
3.25764e-06
2.58739e-06
1.31177e-06
1.12053e-07
0
0
0
0
0
0
1.85284e-07
9.52812e-07
1.12986e-06
7.19289e-07
3.05366e-07
1.76477e-07
2.26765e-07
2.82422e-07
5.217e-07
9.72772e-07
1.42703e-06
1.58168e-06
1.56965e-06
1.5573e-06
1.47369e-06
1.38055e-06
1.25373e-06
8.10797e-07
0
0
0
0
0
0
0
0
0
0
0
4.37741e-06
5.20916e-06
4.10455e-06
2.96231e-06
2.06765e-06
1.41253e-06
9.42454e-07
6.43405e-07
4.94178e-07
4.36199e-07
4.28662e-07
4.41423e-07
4.69927e-07
5.06717e-07
5.40845e-07
5.64398e-07
5.96906e-07
6.62645e-07
6.21159e-07
5.7273e-07
6.68127e-07
7.07461e-07
6.85788e-07
6.01201e-07
4.77375e-07
4.44385e-07
5.66011e-07
8.01614e-07
9.86523e-07
1.11673e-06
1.61885e-06
1.97529e-06
1.9547e-06
1.25651e-06
0
0
0
0
0
0
0
0
0
0
0
2.41666e-08
1.29043e-07
4.93694e-07
1.60656e-06
1.74292e-06
1.63819e-06
1.5962e-06
1.5272e-06
1.40885e-06
1.24076e-06
1.0461e-06
8.64507e-07
6.68708e-07
3.99669e-07
0
0
0
0
0
0
0
0
0
0
0
0
0
0
2.60098e-06
5.66416e-06
5.64419e-06
4.47371e-06
3.20956e-06
1.98556e-06
7.11166e-07
9.95001e-08
2.98522e-07
5.39383e-07
3.87254e-07
3.22254e-08
0
9.71451e-07
1.24062e-06
4.35487e-07
3.03817e-08
0
0
0
0
0
0
0
0
0
0
0
0
0
3.9752e-07
5.97085e-07
7.09607e-07
6.98282e-07
6.44735e-07
5.59358e-07
4.43618e-07
2.97994e-07
9.41149e-08
0
0
0
0
0
0
0
0
0
0
5.39708e-08
1.41118e-07
1.51555e-07
1.6417e-07
1.93147e-07
2.11689e-07
1.73361e-07
1.34041e-08
0
0
0
1.42362e-07
6.57207e-07
3.44537e-07
0
0
0
9.99835e-07
3.636e-06
4.73303e-06
4.7241e-06
5.06895e-06
8.10347e-06
1.69645e-05
8.18382e-08
0
0
0
0
7.49091e-07
1.16182e-06
1.08441e-06
7.19015e-07
4.52074e-07
3.33802e-07
1.87475e-07
1.33254e-07
2.8813e-07
6.22096e-07
1.06683e-06
1.51574e-06
1.90301e-06
1.96186e-06
1.85039e-06
1.76119e-06
1.71692e-06
1.53811e-06
6.9916e-07
0
0
0
0
0
0
0
0
0
0
2.40011e-06
5.6321e-06
5.09577e-06
3.77285e-06
2.67135e-06
1.85362e-06
1.25901e-06
8.48087e-07
6.08449e-07
4.90985e-07
4.42185e-07
4.32057e-07
4.40758e-07
4.59388e-07
4.99925e-07
5.6812e-07
6.44316e-07
7.42569e-07
7.86486e-07
6.46671e-07
5.7533e-07
5.91092e-07
5.97766e-07
5.90361e-07
5.32794e-07
4.37661e-07
4.36364e-07
5.53337e-07
6.16998e-07
4.31237e-07
5.63802e-07
1.45694e-06
1.67324e-06
3.77666e-07
0
0
0
0
0
0
1.49828e-07
1.99429e-07
1.43857e-07
0
0
8.012e-07
1.31391e-06
1.87301e-06
2.15569e-06
2.12406e-06
1.98605e-06
1.92858e-06
1.91006e-06
1.83658e-06
1.69433e-06
1.52729e-06
1.41336e-06
1.32111e-06
1.21002e-06
9.99298e-07
5.29039e-07
0
0
0
0
0
0
0
0
0
0
0
1.28134e-05
1.83583e-05
1.43888e-05
9.9918e-06
6.50599e-06
3.98596e-06
2.08989e-06
6.82506e-07
1.10096e-07
1.66358e-07
2.42284e-07
1.68893e-07
4.2767e-07
1.30428e-06
2.16987e-06
9.5226e-07
1.29704e-07
0
0
0
0
0
0
0
0
0
0
0
0
0
0
0
0
0
0
1.12904e-07
2.76477e-07
3.06837e-07
1.89132e-07
0
0
0
0
0
0
0
0
0
0
0
0
7.9266e-08
1.03429e-07
1.0615e-07
1.16984e-07
1.2738e-07
1.07462e-07
1.45165e-08
0
0
0
0
3.96127e-07
7.31292e-07
3.62064e-07
0
0
8.55605e-07
2.9921e-06
5.0047e-06
6.39056e-06
8.46186e-06
1.43172e-05
3.26616e-05
3.62708e-06
0
0
0
0
6.4592e-07
1.01286e-06
9.27424e-07
7.46629e-07
5.53734e-07
2.46961e-07
1.66854e-08
0
1.14614e-07
4.05279e-07
9.68849e-07
1.8053e-06
2.23567e-06
2.2216e-06
2.11143e-06
2.02742e-06
2.02093e-06
1.874e-06
9.43148e-07
0
0
0
0
0
0
0
0
0
0
0
5.10477e-06
5.86164e-06
4.55892e-06
3.29709e-06
2.34398e-06
1.65342e-06
1.14887e-06
8.0781e-07
6.03652e-07
4.87919e-07
4.33636e-07
4.25481e-07
4.42823e-07
4.78949e-07
5.54505e-07
6.46037e-07
7.31565e-07
8.0821e-07
7.43855e-07
5.70842e-07
5.27021e-07
5.39451e-07
5.72538e-07
5.7702e-07
4.91585e-07
4.17955e-07
4.27105e-07
4.08977e-07
1.10764e-07
0
2.47569e-07
1.19909e-06
0
0
0
0
0
0
0
1.88893e-07
2.6314e-07
1.78708e-07
0
0
4.64699e-06
3.01673e-06
1.92447e-06
1.55495e-06
1.75989e-06
1.94031e-06
1.9119e-06
1.88884e-06
1.83857e-06
1.7387e-06
1.60502e-06
1.48164e-06
1.41824e-06
1.38758e-06
1.32088e-06
1.14045e-06
7.46201e-07
0
0
0
0
0
0
0
0
0
0
3.254e-05
2.39664e-05
1.47967e-05
9.00311e-06
5.30767e-06
2.9126e-06
1.23062e-06
2.84464e-07
5.80193e-08
1.65172e-07
2.32715e-07
5.53323e-07
2.10544e-06
3.79704e-06
2.23038e-06
5.97801e-07
5.61666e-08
0
0
0
0
0
0
0
0
0
0
0
0
0
0
0
0
0
0
0
0
2.29758e-08
1.86997e-07
1.08283e-07
0
0
0
0
0
0
0
0
0
0
0
1.80953e-10
2.2479e-08
1.06349e-08
0
0
0
0
0
0
0
0
1.31804e-07
4.86375e-07
8.6385e-07
1.03973e-06
1.41789e-06
2.34219e-06
3.82908e-06
5.80744e-06
8.05161e-06
1.12885e-05
1.67881e-05
2.63933e-05
0
0
0
0
0
2.43237e-07
7.3489e-07
8.39364e-07
7.87824e-07
3.98521e-07
3.33059e-08
0
0
0
3.05599e-07
1.17895e-06
2.18781e-06
2.47549e-06
2.46893e-06
2.39802e-06
2.32359e-06
2.32625e-06
1.9858e-06
6.20694e-07
0
0
0
0
0
0
9.36415e-08
0
0
0
0
3.4773e-06
6.12014e-06
5.18429e-06
3.86397e-06
2.81167e-06
2.04528e-06
1.48283e-06
1.07339e-06
7.82014e-07
5.87664e-07
4.70902e-07
4.20074e-07
4.2394e-07
4.59541e-07
5.26695e-07
6.26054e-07
7.10772e-07
7.74413e-07
7.51652e-07
5.91734e-07
5.00543e-07
5.07094e-07
5.59186e-07
6.01786e-07
5.54108e-07
4.65023e-07
3.971e-07
3.19336e-07
3.28043e-08
0
0
0
0
0
0
0
0
6.12003e-08
0
0
3.2604e-08
0
0
0
8.19162e-06
9.18539e-07
4.13293e-07
3.47822e-07
4.56373e-07
1.21583e-06
1.6729e-06
1.6445e-06
1.54696e-06
1.45862e-06
1.36985e-06
1.27756e-06
1.19376e-06
1.14602e-06
1.09536e-06
1.01247e-06
8.37551e-07
5.13351e-07
0
0
0
0
0
0
0
0
1.5486e-06
9.34878e-06
1.02219e-05
7.4686e-06
4.64972e-06
2.67977e-06
1.28383e-06
4.52609e-07
1.30733e-07
2.18598e-07
3.49866e-07
5.82609e-07
2.0322e-06
5.71279e-06
4.85102e-06
1.67606e-06
4.03583e-07
7.547e-08
3.15144e-09
0
4.51613e-09
1.15671e-08
1.38027e-08
1.11745e-08
5.69068e-09
1.17565e-09
0
0
0
0
0
0
0
0
0
0
0
0
0
0
1.79102e-07
3.03546e-07
2.14146e-08
0
0
0
0
0
0
0
0
0
0
0
0
0
0
0
0
0
0
0
0
0
1.61094e-07
4.92963e-07
1.04323e-06
2.03378e-06
3.48348e-06
5.49086e-06
8.05487e-06
1.11778e-05
1.45355e-05
1.71119e-05
1.42941e-05
0
0
0
0
0
8.72337e-08
5.92784e-07
8.72035e-07
5.72311e-07
1.52695e-07
0
0
0
0
4.69225e-07
1.67386e-06
2.43121e-06
2.61648e-06
2.70457e-06
2.68222e-06
2.65241e-06
2.67942e-06
1.96373e-06
6.92312e-08
0
0
0
0
0
0
9.43209e-07
1.25491e-06
3.03293e-07
0
0
1.74299e-06
5.82675e-06
5.6179e-06
4.34164e-06
3.24458e-06
2.42917e-06
1.81013e-06
1.34615e-06
1.00787e-06
7.43929e-07
5.57972e-07
4.60756e-07
4.33069e-07
4.46293e-07
4.86085e-07
5.62311e-07
6.63013e-07
7.26752e-07
7.13838e-07
5.91839e-07
4.93088e-07
4.94397e-07
5.55227e-07
6.13106e-07
5.94509e-07
5.32042e-07
4.37593e-07
3.21532e-07
7.52435e-08
0
0
0
0
0
2.09609e-07
3.74405e-07
4.77853e-07
4.74825e-07
0
0
0
0
0
0
1.20282e-05
2.45672e-06
1.41908e-06
6.24631e-07
3.85225e-07
5.63312e-07
1.07342e-06
1.10255e-06
1.00064e-06
9.349e-07
8.97817e-07
8.62059e-07
8.15091e-07
7.60233e-07
7.06435e-07
6.42186e-07
5.43781e-07
3.9382e-07
1.64669e-07
0
0
0
0
0
0
0
5.5123e-07
2.18383e-06
2.77981e-06
2.37688e-06
1.6577e-06
1.01696e-06
5.70028e-07
2.84978e-07
3.36889e-07
5.37397e-07
7.57807e-07
1.86253e-06
6.35882e-06
8.46161e-06
3.89521e-06
1.05261e-06
3.19776e-07
1.124e-07
4.9783e-08
3.32008e-08
3.06779e-08
3.09481e-08
3.07879e-08
2.92362e-08
2.51527e-08
2.07214e-08
1.97271e-08
1.7231e-08
9.48043e-09
0
0
0
0
0
0
0
0
0
0
0
0
7.81364e-08
5.20038e-07
3.54342e-07
0
0
0
0
0
0
0
0
0
0
0
0
0
0
0
0
0
0
0
0
0
1.00193e-07
4.65915e-07
1.20646e-06
2.76817e-06
5.14728e-06
8.19635e-06
1.13881e-05
1.28959e-05
1.08739e-05
4.61644e-06
0
0
0
0
0
2.7495e-07
6.69727e-07
7.94884e-07
3.91944e-07
1.49062e-08
0
0
0
0
9.08018e-07
2.06113e-06
2.56034e-06
2.76761e-06
2.94175e-06
2.98255e-06
3.02155e-06
3.08266e-06
1.8889e-06
0
0
0
0
0
0
0
1.288e-06
2.39499e-06
2.56275e-06
1.75219e-06
4.03085e-07
1.54366e-06
5.2903e-06
5.91169e-06
4.72373e-06
3.60211e-06
2.75962e-06
2.10304e-06
1.58099e-06
1.18511e-06
8.9317e-07
6.81913e-07
5.46645e-07
4.94349e-07
4.85789e-07
4.84887e-07
5.01218e-07
5.69791e-07
6.4721e-07
6.51018e-07
5.67193e-07
4.87397e-07
4.91785e-07
5.57611e-07
6.16212e-07
6.08483e-07
5.84594e-07
5.13866e-07
3.90945e-07
1.72523e-07
0
0
0
0
0
3.37185e-07
5.73869e-07
5.97782e-07
5.48324e-07
1.33793e-07
0
0
0
0
5.40999e-07
1.72643e-05