/*--------------------------------*- C++ -*----------------------------------*\
| =========                 |                                                 |
| \\      /  F ield         | OpenFOAM: The Open Source CFD Toolbox           |
|  \\    /   O peration     | Version:  2112                                  |
|   \\  /    A nd           | Website:  www.openfoam.com                      |
|    \\/     M anipulation  |                                                 |
\*---------------------------------------------------------------------------*/
FoamFile
{
    version     2.0;
    format      ascii;
    arch        "LSB;label=32;scalar=64";
    class       volVectorField;
    location    "0.051";
    object      U_0;
}
// * * * * * * * * * * * * * * * * * * * * * * * * * * * * * * * * * * * * * //

dimensions      [0 1 -1 0 0 0 0];

internalField   nonuniform List<vector> 
12225
(
(9.71335 0.0591736 0)
(9.57528 0.0602338 0)
(9.29683 0.0751191 0)
(8.91062 0.0771255 0)
(8.5606 0.0589041 0)
(8.32566 0.038235 0)
(8.14827 0.0301677 0)
(7.95697 0.0340375 0)
(7.7011 0.0411135 0)
(7.42734 0.046312 0)
(7.12274 0.0494594 0)
(6.88289 0.0539539 0)
(6.58097 0.0622089 0)
(6.39311 0.0679877 0)
(6.01633 0.0753845 0)
(5.88221 0.0738263 0)
(5.34765 0.105749 0)
(5.27995 0.104871 0)
(10.0427 0.0579748 0)
(10.1382 0.0310551 0)
(10.1406 0.0729494 0)
(10.1016 0.0937637 0)
(10.0556 0.0789965 0)
(10.0397 0.0605008 0)
(10.0463 0.0611799 0)
(10.0636 0.0822429 0)
(10.0626 0.106694 0)
(10.0493 0.124495 0)
(9.99906 0.123987 0)
(9.95073 0.119127 0)
(9.85494 0.108352 0)
(9.78472 0.111884 0)
(9.64678 0.122848 0)
(9.56237 0.142853 0)
(9.37269 0.187602 0)
(9.28496 0.253555 0)
(10.0047 0.0493105 0)
(10.01 0.0602652 0)
(10.0688 0.0828009 0)
(10.1344 0.0896054 0)
(10.1079 0.0688743 0)
(10.0238 0.0418833 0)
(9.95266 0.0286899 0)
(9.93757 0.0329662 0)
(9.97693 0.0437748 0)
(10.0491 0.0562724 0)
(10.1181 0.0684091 0)
(10.1644 0.0869959 0)
(10.1721 0.111221 0)
(10.1491 0.139393 0)
(10.1033 0.167284 0)
(10.0558 0.193978 0)
(10.0129 0.235162 0)
(9.99871 0.289195 0)
(9.85447 -0.025345 0)
(9.96961 -0.017993 0)
(10.0533 0.0533686 0)
(10.1306 0.0989492 0)
(10.148 0.110107 0)
(10.1046 0.0993216 0)
(10.0356 0.0827012 0)
(9.98123 0.0738941 0)
(9.95672 0.07509 0)
(9.95092 0.0844637 0)
(9.94749 0.0970516 0)
(9.93965 0.112693 0)
(9.92983 0.129403 0)
(9.92254 0.145721 0)
(9.9221 0.165055 0)
(9.93051 0.188595 0)
(9.94471 0.222294 0)
(9.97187 0.267958 0)
(9.7705 -0.0251522 0)
(9.74508 0.00664161 0)
(9.91559 0.0369937 0)
(10.1096 0.0596882 0)
(10.1975 0.0728965 0)
(10.1747 0.0773862 0)
(10.1006 0.072693 0)
(10.038 0.0636068 0)
(10.0172 0.056001 0)
(10.033 0.0558524 0)
(10.0633 0.0653418 0)
(10.0885 0.0837468 0)
(10.0989 0.108024 0)
(10.095 0.135259 0)
(10.0824 0.163875 0)
(10.0693 0.192932 0)
(10.0598 0.22377 0)
(10.0575 0.25718 0)
(10.0051 -0.120639 0)
(10.0848 -0.100355 0)
(10.1166 -0.0414576 0)
(10.1148 0.0312474 0)
(10.1091 0.0898156 0)
(10.097 0.122442 0)
(10.0637 0.121128 0)
(10.0205 0.0966985 0)
(9.99084 0.0717865 0)
(9.9853 0.064341 0)
(9.99593 0.0778187 0)
(10.0101 0.105062 0)
(10.0184 0.13615 0)
(10.0226 0.16313 0)
(10.0287 0.18487 0)
(10.0429 0.203675 0)
(10.0662 0.223103 0)
(10.0936 0.248937 0)
(10.053 -0.0984144 0)
(9.9935 -0.0566177 0)
(9.9806 0.0319055 0)
(9.98135 0.069899 0)
(10.0081 0.0805568 0)
(10.0709 0.0957538 0)
(10.1395 0.107394 0)
(10.1703 0.10055 0)
(10.1473 0.0786923 0)
(10.0913 0.0589762 0)
(10.0388 0.0552822 0)
(10.0158 0.0699477 0)
(10.0272 0.0955678 0)
(10.0652 0.122497 0)
(10.114 0.14654 0)
(10.1617 0.168007 0)
(10.1943 0.190491 0)
(10.2082 0.220018 0)
(9.98492 -0.0643414 0)
(9.86639 -0.108996 0)
(9.90756 -0.0274164 0)
(9.96624 0.0313286 0)
(9.98905 0.0538924 0)
(10.0069 0.0629146 0)
(10.0404 0.0722918 0)
(10.078 0.0840685 0)
(10.0955 0.0959149 0)
(10.0784 0.105016 0)
(10.0344 0.110521 0)
(9.98519 0.113943 0)
(9.9526 0.117258 0)
(9.94701 0.12372 0)
(9.96738 0.137225 0)
(10.0036 0.160993 0)
(10.0415 0.196707 0)
(10.0711 0.242831 0)
(10.0785 0.0180334 0)
(9.97207 -0.0338743 0)
(9.94986 -0.00382428 0)
(9.93977 0.0410407 0)
(9.933 0.0665458 0)
(9.93415 0.0817793 0)
(9.94537 0.0886483 0)
(9.96144 0.0885475 0)
(9.96967 0.0889158 0)
(9.95899 0.0950992 0)
(9.93034 0.104982 0)
(9.89656 0.11278 0)
(9.87248 0.114633 0)
(9.86688 0.112049 0)
(9.88396 0.112105 0)
(9.92043 0.122871 0)
(9.9705 0.148181 0)
(10.0279 0.191985 0)
(10.2732 -0.00630651 0)
(10.2387 -0.0501669 0)
(10.0712 -0.00926373 0)
(9.90017 0.0390346 0)
(9.7974 0.0516767 0)
(9.78073 0.0504381 0)
(9.81231 0.0506185 0)
(9.85682 0.0615816 0)
(9.89993 0.0857697 0)
(9.94029 0.115349 0)
(9.97904 0.137645 0)
(10.0127 0.144059 0)
(10.0327 0.134905 0)
(10.0341 0.117876 0)
(10.0176 0.1038 0)
(9.99758 0.103652 0)
(9.98087 0.120891 0)
(9.9844 0.161098 0)
(10.0864 -0.0667606 0)
(10.1347 0.0383611 0)
(10.1619 0.136479 0)
(10.1511 0.145958 0)
(10.1197 0.112812 0)
(10.0882 0.0802945 0)
(10.0452 0.0624028 0)
(9.99556 0.0555351 0)
(9.96032 0.0548829 0)
(9.95563 0.0592156 0)
(9.98337 0.0689117 0)
(10.0318 0.0841804 0)
(10.0831 0.102788 0)
(10.1215 0.122256 0)
(10.139 0.138806 0)
(10.1356 0.153407 0)
(10.1194 0.166656 0)
(10.0969 0.184578 0)
(9.92276 -0.059258 0)
(9.87217 -0.0754561 0)
(9.84703 0.0129485 0)
(9.87403 0.0737045 0)
(9.92798 0.0889412 0)
(9.9697 0.0875664 0)
(9.97439 0.0900161 0)
(9.94681 0.0946783 0)
(9.90846 0.0958279 0)
(9.88258 0.0920978 0)
(9.88496 0.0854585 0)
(9.91811 0.0790494 0)
(9.97294 0.0763705 0)
(10.034 0.0803915 0)
(10.0903 0.0924581 0)
(10.1336 0.114165 0)
(10.1647 0.143071 0)
(10.1842 0.179989 0)
(10.0839 -0.0209346 0)
(9.94856 0.0899951 0)
(9.88597 0.117839 0)
(9.86261 0.0858102 0)
(9.87583 0.0603138 0)
(9.90506 0.0609784 0)
(9.93464 0.0806922 0)
(9.96015 0.0991819 0)
(9.97743 0.0993747 0)
(9.98414 0.0800647 0)
(9.98446 0.0535059 0)
(9.98843 0.0343532 0)
(10.0017 0.0316677 0)
(10.026 0.0468951 0)
(10.0572 0.0739372 0)
(10.0903 0.106748 0)
(10.1228 0.136856 0)
(10.1508 0.162876 0)
(10.0728 0.150694 0)
(10.0733 0.0699489 0)
(10.0397 0.0524349 0)
(9.94673 0.0711065 0)
(9.882 0.075993 0)
(9.87396 0.0633922 0)
(9.90248 0.0508962 0)
(9.94301 0.0530684 0)
(9.97632 0.0674682 0)
(9.9924 0.0815171 0)
(9.99361 0.0837119 0)
(9.99424 0.0717976 0)
(10.0075 0.0533964 0)
(10.0429 0.038609 0)
(10.1009 0.0377725 0)
(10.1734 0.0525504 0)
(10.2511 0.082093 0)
(10.3159 0.120947 0)
(9.96758 -0.0590085 0)
(9.98992 0.0701246 0)
(9.97699 0.194882 0)
(9.97209 0.178166 0)
(9.99897 0.101209 0)
(10.0424 0.0484815 0)
(10.0679 0.0397794 0)
(10.0698 0.0576075 0)
(10.0655 0.0747402 0)
(10.0725 0.0739439 0)
(10.097 0.05277 0)
(10.1335 0.0183748 0)
(10.1726 -0.0179787 0)
(10.2069 -0.0460138 0)
(10.2348 -0.0560695 0)
(10.258 -0.0452064 0)
(10.2746 -0.0125076 0)
(10.2897 0.0390279 0)
(9.96631 0.0166678 0)
(9.9111 0.0735853 0)
(9.98092 0.0792319 0)
(10.0847 0.048471 0)
(10.1539 0.0242642 0)
(10.1506 0.0169611 0)
(10.1073 0.0274064 0)
(10.0729 0.045579 0)
(10.07 0.0533975 0)
(10.0966 0.0422762 0)
(10.1367 0.0184717 0)
(10.1714 -0.00578413 0)
(10.1902 -0.0212874 0)
(10.1932 -0.0225842 0)
(10.1862 -0.00832504 0)
(10.1783 0.0199225 0)
(10.1729 0.0581728 0)
(10.1795 0.104472 0)
(9.89459 -0.0800919 0)
(10.0166 -0.037094 0)
(10.0342 -0.00519113 0)
(10.0572 0.00901752 0)
(10.0855 0.0418548 0)
(10.0861 0.0946419 0)
(10.0602 0.126163 0)
(10.0348 0.108221 0)
(10.0271 0.0545952 0)
(10.04 -0.000612422 0)
(10.0646 -0.0344126 0)
(10.0868 -0.0449725 0)
(10.0956 -0.0436719 0)
(10.0903 -0.0410186 0)
(10.0745 -0.040466 0)
(10.0585 -0.0362553 0)
(10.0456 -0.0250935 0)
(10.0464 -0.000535908 0)
(9.99458 -0.22909 0)
(10.012 -0.0477678 0)
(10.0036 0.0570772 0)
(10.0251 0.0352327 0)
(10.0801 0.0200601 0)
(10.1323 0.0501742 0)
(10.1634 0.0846665 0)
(10.1735 0.0834741 0)
(10.1653 0.0434954 0)
(10.1439 -0.0103081 0)
(10.1173 -0.0487045 0)
(10.0921 -0.0545021 0)
(10.0712 -0.0285358 0)
(10.0553 0.0152838 0)
(10.0423 0.05802 0)
(10.0312 0.0876827 0)
(10.0221 0.0990302 0)
(10.0167 0.0946273 0)
(9.93757 0.0952594 0)
(9.9531 -0.00946169 0)
(10.0179 -0.115467 0)
(10.0545 -0.151532 0)
(10.0835 -0.116612 0)
(10.1097 -0.0359231 0)
(10.1364 0.0483462 0)
(10.1701 0.0987652 0)
(10.2032 0.109748 0)
(10.2223 0.0974971 0)
(10.2234 0.0771801 0)
(10.2131 0.055606 0)
(10.1997 0.0345364 0)
(10.1872 0.0152889 0)
(10.1785 4.7617e-05 0)
(10.1735 -0.00901144 0)
(10.1735 -0.011404 0)
(10.1764 -0.00797512 0)
(9.98328 -0.0697635 0)
(10.1005 -0.0861142 0)
(10.1014 -0.104528 0)
(10.0577 -0.0815043 0)
(9.99279 -0.0415876 0)
(9.96274 -0.0197368 0)
(9.96719 -0.0184609 0)
(9.98672 -0.0271414 0)
(10.0151 -0.036269 0)
(10.0465 -0.0386651 0)
(10.0739 -0.0290765 0)
(10.0953 -0.00676253 0)
(10.1135 0.0241834 0)
(10.1321 0.0563251 0)
(10.1541 0.0807297 0)
(10.1801 0.0906993 0)
(10.2095 0.0829206 0)
(10.2391 0.0578411 0)
(10.1551 -0.165431 0)
(10.1381 -0.154721 0)
(10.0752 -0.0442036 0)
(10.0314 -0.0106922 0)
(10.0263 -0.00347588 0)
(10.0445 0.00545711 0)
(10.0573 0.00877482 0)
(10.0535 0.00240102 0)
(10.0402 -0.00794197 0)
(10.026 -0.0139972 0)
(10.0171 -0.0147086 0)
(10.0193 -0.0159844 0)
(10.0358 -0.0240817 0)
(10.066 -0.0417244 0)
(10.1032 -0.0654486 0)
(10.1409 -0.0882534 0)
(10.1705 -0.103333 0)
(10.189 -0.104036 0)
(9.89514 -0.0769494 0)
(9.8848 0.0355558 0)
(9.87296 -0.00103891 0)
(9.94294 -0.0496908 0)
(10.0207 -0.0588343 0)
(10.0688 -0.0436614 0)
(10.0844 -0.0222701 0)
(10.0697 -0.00599559 0)
(10.0411 -0.00090907 0)
(10.0181 -0.00673989 0)
(10.0118 -0.0203568 0)
(10.0245 -0.0370905 0)
(10.0482 -0.0516847 0)
(10.0703 -0.0578622 0)
(10.0785 -0.0529988 0)
(10.0675 -0.0395586 0)
(10.0384 -0.0212317 0)
(9.99833 -0.00588319 0)
(10.0691 -0.0442225 0)
(10.1522 -0.0554194 0)
(10.176 -0.0846766 0)
(10.178 -0.135445 0)
(10.1666 -0.128392 0)
(10.165 -0.0638495 0)
(10.1699 0.00662845 0)
(10.161 0.0461451 0)
(10.1352 0.0483164 0)
(10.1012 0.0218344 0)
(10.0665 -0.0186809 0)
(10.0374 -0.0578164 0)
(10.0218 -0.0812456 0)
(10.0223 -0.0814965 0)
(10.0365 -0.060001 0)
(10.0579 -0.0268809 0)
(10.0822 0.00727345 0)
(10.1042 0.029941 0)
(10.0659 0.0573018 0)
(9.98814 -0.0762232 0)
(9.92617 -0.0420653 0)
(9.89846 -0.0405598 0)
(9.85039 -0.0492986 0)
(9.82516 -0.0418415 0)
(9.85283 -0.014291 0)
(9.92127 0.0220825 0)
(10.0075 0.0505159 0)
(10.0844 0.0576954 0)
(10.1281 0.0393095 0)
(10.1313 0.00182592 0)
(10.1051 -0.0413514 0)
(10.0677 -0.0759434 0)
(10.0366 -0.0926132 0)
(10.0217 -0.0908134 0)
(10.0257 -0.0748792 0)
(10.0443 -0.0549846 0)
(9.9921 -0.0315995 0)
(10.054 0.0384304 0)
(10.1282 -0.0245024 0)
(10.1798 -0.0766792 0)
(10.1715 -0.0716914 0)
(10.1215 -0.0586496 0)
(10.0664 -0.0613495 0)
(10.0267 -0.0711604 0)
(10.0163 -0.0743717 0)
(10.0354 -0.0648436 0)
(10.0682 -0.0467592 0)
(10.0977 -0.0288233 0)
(10.1168 -0.0188996 0)
(10.1256 -0.0180944 0)
(10.1315 -0.0221717 0)
(10.1401 -0.0275063 0)
(10.1569 -0.0307448 0)
(10.1817 -0.03286 0)
(9.75747 0.00462972 0)
(9.91625 -0.113162 0)
(9.96477 -0.112615 0)
(9.94572 -0.0640928 0)
(9.91328 -0.0177197 0)
(9.91083 0.0172721 0)
(9.95016 0.0357038 0)
(10.0069 0.0361789 0)
(10.0622 0.0224759 0)
(10.1062 0.00150758 0)
(10.1304 -0.0204231 0)
(10.1311 -0.0405901 0)
(10.1137 -0.0590127 0)
(10.0885 -0.0764276 0)
(10.0675 -0.0913944 0)
(10.0607 -0.10162 0)
(10.0716 -0.106432 0)
(10.1022 -0.103706 0)
(10.1352 -0.0262686 0)
(10.0525 -0.0404826 0)
(9.96273 -0.0452665 0)
(9.92088 -0.0389394 0)
(9.93714 -0.0470928 0)
(10.0129 -0.0680161 0)
(10.1285 -0.0954162 0)
(10.2314 -0.115607 0)
(10.2878 -0.116014 0)
(10.2997 -0.0937581 0)
(10.2857 -0.0568429 0)
(10.2639 -0.0200429 0)
(10.2438 0.00247533 0)
(10.2274 0.00358169 0)
(10.2117 -0.0149266 0)
(10.1936 -0.0443965 0)
(10.1715 -0.0768057 0)
(10.1448 -0.104282 0)
(10.0687 0.0241013 0)
(10.1861 -0.0147958 0)
(10.2219 -0.0597129 0)
(10.1441 -0.0532907 0)
(10.0745 -0.0660542 0)
(10.0726 -0.0892569 0)
(10.1057 -0.0923567 0)
(10.1169 -0.0688612 0)
(10.0914 -0.0357145 0)
(10.0541 -0.0126183 0)
(10.034 -0.00669208 0)
(10.0443 -0.0138575 0)
(10.0824 -0.0271011 0)
(10.1366 -0.0419703 0)
(10.1947 -0.0550401 0)
(10.2459 -0.0639449 0)
(10.2861 -0.0669095 0)
(10.3101 -0.0633733 0)
(10.1696 -0.0349979 0)
(10.1624 -0.0658781 0)
(10.1341 -0.0106044 0)
(10.1908 0.0152788 0)
(10.286 -0.0283599 0)
(10.3303 -0.0852686 0)
(10.3084 -0.108648 0)
(10.2582 -0.0971913 0)
(10.2149 -0.0727233 0)
(10.1879 -0.0529623 0)
(10.1706 -0.0437459 0)
(10.1578 -0.0444679 0)
(10.1502 -0.0529152 0)
(10.1499 -0.0678522 0)
(10.1538 -0.0864815 0)
(10.1575 -0.104585 0)
(10.1544 -0.118376 0)
(10.1423 -0.123749 0)
(9.9266 -0.0178915 0)
(9.80696 -0.0109704 0)
(9.71374 -0.0552908 0)
(9.61613 -0.0894784 0)
(9.42401 -0.101522 0)
(9.14561 -0.0932161 0)
(8.85995 -0.0706295 0)
(8.63375 -0.0423263 0)
(8.48894 -0.0176692 0)
(8.40789 -0.00273087 0)
(8.35639 0.000296389 0)
(8.30439 -0.00764987 0)
(8.23113 -0.0231601 0)
(8.12482 -0.0415116 0)
(7.9819 -0.0563097 0)
(7.81456 -0.0630864 0)
(7.63547 -0.0593839 0)
(7.46995 -0.0478414 0)
(-0.110503 0.132908 1.34343e-19)
(-0.292145 0.0803806 -1.3329e-19)
(-0.407666 0.0459942 0)
(-0.441114 -0.0752501 0)
(-0.315782 -0.18594 0)
(-0.132561 -0.225703 1.2941e-19)
(0.0949068 -0.236453 0)
(0.326783 -0.187033 0)
(0.509575 -0.0504256 0)
(0.597024 0.121418 0)
(0.593478 0.227508 -1.24257e-19)
(0.557565 0.228516 0)
(0.519797 0.184854 0)
(0.484507 0.132815 0)
(0.445893 0.0748699 0)
(0.396766 0.00984526 -1.19468e-19)
(0.335563 -0.0550457 0)
(0.268842 -0.108026 0)
(0.206339 -0.138199 0)
(0.152277 -0.143924 0)
(0.107147 -0.133172 0)
(0.0700691 -0.116115 0)
(0.0416372 -0.0985795 0)
(0.0224897 -0.0850452 -1.12263e-19)
(0.0145259 -0.0785017 1.11373e-19)
(0.0237288 -0.0764973 -1.10486e-19)
(0.053038 -0.0789359 -1.09604e-19)
(0.102553 -0.0891374 0)
(0.178139 -0.102081 0)
(0.278141 -0.111326 1.06988e-19)
(0.396051 -0.12795 1.06124e-19)
(0.543245 -0.141754 0)
(0.706866 -0.142909 0)
(0.872067 -0.161078 1.03551e-19)
(1.06711 -0.150953 0)
(1.22931 -0.136218 0)
(1.39515 -0.135064 -1.01034e-19)
(1.5455 -0.0475185 0)
(1.59244 -0.0389893 -9.94429e-20)
(1.6775 0.109066 -1.97371e-19)
(1.49555 0.242909 0)
(1.30524 0.346463 0)
(0.827613 0.775836 0)
(-0.0453155 0.331106 0)
(-0.444621 0.0301945 0)
(-0.68325 0.238528 -1.88581e-19)
(-1.05014 0.365531 -1.86613e-19)
(-1.70321 0.502098 -1.84532e-19)
(-2.39098 0.503749 0)
(-3.01065 0.392331 1.80183e-19)
(-3.45719 0.22814 0)
(-3.66783 0.0404201 -1.7628e-19)
(-3.63834 -0.152439 -1.7465e-19)
(-3.40291 -0.342429 0)
(-2.96822 -0.517904 0)
(-2.35239 -0.671553 0)
(-1.58096 -0.798034 -1.70141e-19)
(-0.684502 -0.87905 0)
(0.289176 -0.925558 0)
(1.28325 -0.931716 0)
(2.22173 -0.86001 0)
(2.96113 -0.594043 0)
(3.29415 -0.0809275 0)
(3.23428 0.352347 0)
(3.04568 0.397901 0)
(2.86597 0.174559 1.55679e-19)
(2.70651 -0.0560159 0)
(2.5193 -0.125068 0)
(2.22318 0.00262975 -1.50665e-19)
(1.74736 0.215446 -1.49215e-19)
(1.12684 0.367274 0)
(0.44674 0.429659 1.46377e-19)
(-0.248036 0.439736 -1.44684e-19)
(-0.935243 0.432606 0)
(-1.59502 0.416591 1.40768e-19)
(-2.22217 0.395815 0)
(-2.809 0.370854 0)
(-3.35133 0.342764 -1.34869e-19)
(-3.8482 0.313701 0)
(-4.30276 0.286431 1.31039e-19)
(-4.72198 0.263485 0)
(-5.1157 0.246632 -1.27272e-19)
(-5.49518 0.236673 -1.25392e-19)
(-5.87154 0.23354 -1.23501e-19)
(-6.2545 0.236398 -2.43182e-19)
(-6.65149 0.24368 2.39311e-19)
(-7.06718 0.253198 0)
(-7.50321 0.262585 0)
(-7.95814 0.269802 0)
(-8.42775 0.273253 2.23294e-19)
(-8.90551 0.271786 2.19212e-19)
(-9.3828 0.264644 -2.15149e-19)
(-9.84939 0.251348 0)
(-10.2934 0.2316 2.07245e-19)
(-10.7018 0.205405 2.03507e-19)
(-11.0605 0.172935 1.9999e-19)
(-11.3551 0.134055 0)
(-11.571 0.0890381 0)
(-11.6952 0.0406018 0)
(-11.7181 -0.00773576 1.89314e-19)
(-11.6411 -0.0559088 0)
(-11.4624 -0.100655 0)
(-11.1874 -0.141147 -1.85588e-19)
(-10.8232 -0.177121 0)
(-10.3825 -0.206814 0)
(-9.87915 -0.22975 -1.84531e-19)
(-9.32775 -0.245985 0)
(-8.74173 -0.256348 0)
(-8.13189 -0.262254 1.84028e-19)
(-7.50566 -0.265427 1.83723e-19)
(-6.86669 -0.267627 0)
(-6.21508 -0.270254 -1.82817e-19)
(-5.54849 -0.274092 0)
(-4.86371 -0.279225 1.81569e-19)
(-4.15805 -0.285106 0)
(-3.43058 -0.290567 1.80014e-19)
(-2.68324 -0.294206 1.79095e-19)
(-1.92135 -0.294434 0)
(-1.15352 -0.290501 0)
(-0.392938 -0.282744 0)
(0.343484 -0.270935 0)
(1.04406 -0.252541 0)
(1.69985 -0.230415 0)
(2.29861 -0.205379 0)
(2.83304 -0.17848 1.64573e-19)
(3.29868 -0.150699 -1.62027e-19)
(3.6935 -0.122876 0)
(4.01742 -0.0956879 0)
(4.27175 -0.0697421 0)
(4.45909 -0.0454669 0)
(4.58257 -0.023584 -2.98277e-19)
(4.64829 -0.00421803 0)
(4.65909 0.0125233 2.88385e-19)
(4.62312 0.0253196 -2.8357e-19)
(4.55324 0.0334979 0)
(4.4618 0.0371868 0)
(4.36137 0.0368238 0)
(4.26407 0.0332281 2.6534e-19)
(4.18071 0.0270506 2.61062e-19)
(4.12031 0.0189929 0)
(4.08892 0.0106005 2.52873e-19)
(4.08839 0.0038093 2.48958e-19)
(4.11653 -0.00185492 -2.45149e-19)
(4.1676 -0.00682991 0)
(4.23339 -0.00815306 0)
(4.29883 0.00062133 -2.34242e-19)
(4.33943 0.0214158 0)
(4.33321 0.0449792 0)
(4.27781 0.0582897 0)
(4.18637 0.0553764 0)
(4.08627 0.0376442 2.16921e-19)
(4.00123 0.0215294 2.13507e-19)
(3.92524 0.0310829 0)
(3.81674 0.0699923 2.06713e-19)
(3.63624 0.109254 0)
(3.39742 0.116032 0)
(3.16067 0.0886834 1.96533e-19)
(2.97758 0.0497307 0)
(2.86062 0.0191648 1.89849e-19)
(2.79362 0.00273579 0)
(2.75336 -0.00292022 0)
(2.72334 -0.00305235 1.80007e-19)
(2.69606 -0.000933519 0)
(2.66961 0.00238164 1.73493e-19)
(2.64221 0.00667264 0)
(2.61007 0.0123738 0)
(2.56582 0.0197282 0)
(2.50419 0.0274571 -1.60582e-19)
(2.4237 0.0323086 0)
(2.33289 0.0311663 1.54178e-19)
(2.24183 0.0250762 0)
(2.16327 0.0168681 0)
(2.10068 0.0102781 0)
(2.05219 0.00627361 0)
(2.01546 0.00796868 0)
(1.9637 0.0104128 0)
(1.93076 0.021977 0)
(1.80608 0.022815 -2.58726e-19)
(1.79921 0.0527578 0)
(1.43444 0.0351803 0)
(0.0251178 0.650218 -4.03149e-19)
(0.0357413 0.508309 4.00272e-19)
(0.0636881 0.237432 0)
(0.156931 -0.0669157 -2.62839e-19)
(0.345387 -0.480888 0)
(0.571375 -0.662831 -1.29164e-19)
(0.771502 -0.714038 2.56158e-19)
(0.936305 -0.692361 2.53978e-19)
(1.07426 -0.521352 0)
(1.14412 -0.289955 2.49982e-19)
(1.11712 -0.147553 1.24071e-19)
(1.0174 -0.087201 0)
(0.913271 -0.0552898 0)
(0.798358 0.000161445 0)
(0.647185 0.0986591 0)
(0.458892 0.219426 1.19478e-19)
(0.237056 0.318898 0)
(-0.00641448 0.366811 -2.35367e-19)
(-0.254203 0.368008 0)
(-0.492339 0.338867 0)
(-0.712803 0.295456 2.29457e-19)
(-0.911667 0.246868 0)
(-1.08328 0.195651 -2.25591e-19)
(-1.22459 0.141501 1.11898e-19)
(-1.33447 0.0832164 -1.10988e-19)
(-1.4118 0.0218395 1.10095e-19)
(-1.4544 -0.0413386 1.09219e-19)
(-1.4601 -0.107366 0)
(-1.42799 -0.174815 0)
(-1.35759 -0.238691 -1.06685e-19)
(-1.2512 -0.296158 1.05787e-19)
(-1.11128 -0.350318 0)
(-0.942745 -0.39582 0)
(-0.748336 -0.419296 -1.03551e-19)
(-0.522677 -0.4248 0)
(-0.296248 -0.422742 0)
(-0.0585224 -0.373247 1.01305e-19)
(0.212726 -0.27478 0)
(0.396441 -0.183506 -9.96755e-20)
(0.659068 0.05096 1.97803e-19)
(0.834623 0.345876 0)
(0.935282 0.603821 0)
(1.03937 1.12541 3.86102e-19)
(0.905629 1.43533 3.83205e-19)
(0.360201 1.03251 3.80688e-19)
(-0.2725 0.672439 -1.88847e-19)
(-0.643138 1.08111 1.86731e-19)
(-1.05533 1.2939 5.53903e-19)
(-1.43668 1.23023 -3.64915e-19)
(-1.79742 1.00699 -1.80433e-19)
(-2.06381 0.663355 0)
(-2.20184 0.246389 1.76753e-19)
(-2.2358 -0.202874 -1.74528e-19)
(-2.14198 -0.639195 0)
(-1.93563 -1.03843 0)
(-1.61596 -1.37493 0)
(-1.21322 -1.64209 1.70044e-19)
(-0.73584 -1.82638 0)
(-0.172254 -1.90325 -3.35041e-19)
(0.453628 -1.77739 0)
(1.08682 -1.36645 -3.28857e-19)
(1.6418 -0.781018 0)
(2.05918 -0.301025 3.21896e-19)
(2.33429 -0.075548 0)
(2.4049 0.0351724 -3.14879e-19)
(2.17211 0.221681 1.5574e-19)
(1.60273 0.498239 0)
(0.814742 0.777735 3.05612e-19)
(-0.0354412 1.00664 1.51278e-19)
(-0.862399 1.16007 1.49492e-19)
(-1.63722 1.23195 0)
(-2.35015 1.24034 1.45392e-19)
(-3.0038 1.20315 1.43856e-19)
(-3.59509 1.1437 0)
(-4.12136 1.06754 -1.40016e-19)
(-4.58469 0.981729 2.75786e-19)
(-4.98939 0.891917 0)
(-5.34154 0.80395 1.34322e-19)
(-5.64938 0.723567 0)
(-5.92287 0.655832 -3.91645e-19)
(-6.17305 0.604474 0)
(-6.41114 0.571403 3.80743e-19)
(-6.64758 0.556518 1.251e-19)
(-6.89126 0.55776 -1.23227e-19)
(-7.14923 0.571357 -2.42718e-19)
(-7.42661 0.592553 2.38897e-19)
(-7.72625 0.616483 0)
(-8.04828 0.638733 0)
(-8.39062 0.655606 0)
(-8.74937 0.664229 -6.68946e-19)
(-9.11909 0.662276 -2.19014e-19)
(-9.49276 0.64777 2.14991e-19)
(-9.86184 0.618968 0)
(-10.2166 0.574373 2.06567e-19)
(-10.5459 0.51285 -2.03464e-19)
(-10.8372 0.433712 -1.99983e-19)
(-11.0773 0.336719 0)
(-11.2536 0.223056 0)
(-11.354 0.0966544 0)
(-11.3678 -0.0375741 -1.8941e-19)
(-11.2806 -0.175025 0)
(-11.0909 -0.309764 3.72081e-19)
(-10.8008 -0.435348 5.56036e-19)
(-10.42 -0.546307 -3.69408e-19)
(-9.96009 -0.638126 0)
(-9.43653 -0.708597 -1.8406e-19)
(-8.86528 -0.757922 0)
(-8.26085 -0.788763 -3.68151e-19)
(-7.63484 -0.805623 1.83757e-19)
(-6.99502 -0.813984 1.83461e-19)
(-6.34484 -0.819433 0)
(-5.6836 -0.826577 5.48098e-19)
(-5.00777 -0.838084 -3.641e-19)
(-4.3128 -0.85425 -1.81543e-19)
(-3.59463 -0.873411 0)
(-2.85142 -0.891707 -1.79984e-19)
(-2.08468 -0.904626 -5.3689e-19)
(-1.30046 -0.907577 0)
(-0.509317 -0.897102 -3.53424e-19)
(0.273774 -0.87253 -3.50429e-19)
(1.03371 -0.833608 -3.46727e-19)
(1.7559 -0.777613 0)
(2.42642 -0.709929 0)
(3.03322 -0.634172 0)
(3.56817 -0.554047 1.64276e-19)
(4.02709 -0.472715 1.61815e-19)
(4.40933 -0.392451 0)
(4.71693 -0.314749 3.13287e-19)
(4.95382 -0.24062 3.08141e-19)
(5.12454 -0.170882 0)
(5.23491 -0.106407 2.98044e-19)
(5.28882 -0.0473734 5.86068e-19)
(5.29574 0.00451108 -2.88188e-19)
(5.26343 0.0468245 -2.83256e-19)
(5.19693 0.0767455 0)
(5.10371 0.0934601 0)
(4.99479 0.0973081 0)
(4.88378 0.088891 -2.65148e-19)
(4.785 0.0697194 2.60761e-19)
(4.71101 0.0424449 5.13367e-19)
(4.67077 0.0106093 -2.52726e-19)
(4.66888 -0.0211384 2.48718e-19)
(4.70639 -0.0474799 2.45e-19)
(4.78129 -0.0655499 0)
(4.88343 -0.07246 0)
(4.99549 -0.0657462 -2.34027e-19)
(5.10223 -0.0446578 0)
(5.19061 -0.0123874 0)
(5.24879 0.0251816 4.47158e-19)
(5.27448 0.0566621 0)
(5.2608 0.071642 2.16673e-19)
(5.19876 0.0708291 -2.13254e-19)
(5.10001 0.0698781 0)
(4.99909 0.0877823 2.06444e-19)
(4.92052 0.122513 0)
(4.86505 0.14816 0)
(4.82586 0.142553 -1.96214e-19)
(4.80034 0.110695 3.857e-19)
(4.79048 0.0742501 -1.89512e-19)
(4.79506 0.0488774 0)
(4.80335 0.0373861 0)
(4.79956 0.0325287 1.79685e-19)
(4.77443 0.0289767 0)
(4.73153 0.0251089 1.73184e-19)
(4.68217 0.0224975 0)
(4.63622 0.0243163 0)
(4.59639 0.0318081 0)
(4.56022 0.0423651 1.60297e-19)
(4.52246 0.0521234 0)
(4.48014 0.0568552 -1.53896e-19)
(4.43415 0.05587 0)
(4.38555 0.04815 0)
(4.33912 0.0396904 2.88856e-19)
(4.29176 0.029957 -2.82639e-19)
(4.25667 0.0300638 0)
(4.20832 0.0274374 0)
(4.18947 0.0456849 0)
(4.10509 0.0466105 7.74684e-19)
(4.11357 0.0943692 0)
(3.90182 0.0891154 -4.92736e-19)
(0.123677 0.0784366 -2.94815e-22)
(0.32885 0.0675163 -5.33529e-19)
(0.503885 -0.180613 0)
(0.757783 -0.566843 5.24771e-19)
(0.932802 -1.03725 0)
(1.00874 -1.13694 0)
(0.954277 -1.07354 1.25854e-22)
(0.733571 -0.902542 -2.54224e-19)
(0.535096 -0.47666 -2.52509e-19)
(0.292772 0.14725 -2.50656e-19)
(0.0286911 0.530639 0)
(-0.259273 0.584888 0)
(-0.555461 0.591393 2.44628e-19)
(-0.828477 0.643647 4.84907e-19)
(-1.10883 0.702123 -4.80574e-19)
(-1.37235 0.745778 0)
(-1.62906 0.767308 -4.72095e-19)
(-1.88535 0.766869 2.34105e-19)
(-2.14681 0.746344 0)
(-2.40644 0.707915 -4.59837e-19)
(-2.65767 0.652745 -2.28139e-19)
(-2.89228 0.580881 4.51915e-19)
(-3.10097 0.493089 2.24302e-19)
(-3.27735 0.390411 0)
(-3.41553 0.274158 -4.40686e-19)
(-3.51086 0.146844 -4.37168e-19)
(-3.56313 0.0128202 0)
(-3.57112 -0.123748 -4.30286e-19)
(-3.53321 -0.259784 0)
(-3.44912 -0.392055 -4.23669e-19)
(-3.32172 -0.517206 -2.1052e-19)
(-3.15657 -0.630319 0)
(-2.95469 -0.724745 0)
(-2.71768 -0.794423 0)
(-2.45453 -0.837212 0)
(-2.16813 -0.854583 0)
(-1.85273 -0.839726 0)
(-1.52324 -0.778328 -4.00492e-19)
(-1.20424 -0.671263 5.9676e-19)
(-0.842884 -0.441755 0)
(-0.432069 -0.126181 0)
(-0.0663612 0.193116 0)
(0.373846 0.721676 2.01147e-22)
(0.897456 1.404 -3.83214e-19)
(1.11446 1.66939 -7.60085e-19)
(1.0568 1.55211 7.5394e-19)
(0.859696 1.45936 3.73791e-19)
(0.801605 1.51438 -3.69678e-19)
(0.836411 1.50806 -4.42355e-22)
(0.854814 1.28351 -3.62034e-19)
(0.881476 0.861023 0)
(0.912118 0.356801 -3.54424e-19)
(0.943261 -0.179662 -3.15927e-22)
(1.01071 -0.710036 0)
(1.09888 -1.19438 0)
(1.19982 -1.59162 3.41546e-19)
(1.30153 -1.87202 0)
(1.34432 -2.10506 0)
(1.33718 -2.35483 -3.33848e-19)
(1.31194 -2.48797 -6.62772e-19)
(1.34469 -2.27263 3.2845e-19)
(1.44955 -1.6586 0)
(1.49131 -0.838357 -3.22193e-19)
(1.30866 -0.0297123 0)
(0.880909 0.624964 -3.16021e-19)
(0.275153 1.13854 -3.12479e-19)
(-0.420582 1.52754 6.17821e-19)
(-1.12671 1.78864 3.04802e-19)
(-1.78155 1.93737 0)
(-2.36432 1.99469 -5.94668e-19)
(-2.87507 1.97699 0)
(-3.31986 1.90191 -8.69975e-19)
(-3.70628 1.7878 -5.72132e-19)
(-4.03815 1.65161 -5.64745e-19)
(-4.3189 1.50323 5.57439e-19)
(-4.55354 1.35111 -8.25857e-19)
(-4.74884 1.20333 0)
(-4.91287 1.0675 0)
(-5.0548 0.950584 5.29089e-19)
(-5.18458 0.858346 7.83391e-19)
(-5.31277 0.794641 0)
(-5.45005 0.760768 -2.54114e-19)
(-5.60667 0.755258 0)
(-5.79194 0.773991 7.40469e-19)
(-6.01338 0.810833 -5.1142e-23)
(-6.27585 0.858859 3.02941e-23)
(-6.58161 0.911573 -4.70592e-19)
(-6.93037 0.963145 0)
(-7.31934 1.0079 4.54308e-19)
(-7.74294 1.04042 3.22691e-22)
(-8.19275 1.05564 0)
(-8.65758 1.04904 0)
(-9.12413 1.01686 0)
(-9.5776 0.956229 -4.13889e-19)
(-10.0021 0.864943 0)
(-10.3807 0.741495 0)
(-10.6962 0.58547 0)
(-10.9319 0.39947 0)
(-11.0732 0.188544 0)
(-11.1087 -0.0419715 -3.76326e-19)
(-11.0315 -0.280432 0)
(-10.8404 -0.514797 -3.7208e-19)
(-10.5396 -0.733107 -3.70376e-19)
(-10.1406 -0.924041 3.69322e-19)
(-9.65895 -1.08062 0)
(-9.11302 -1.19912 3.68445e-19)
(-8.52163 -1.2803 0)
(-7.90157 -1.32926 3.68011e-19)
(-7.26572 -1.35424 -3.6762e-19)
(-6.62218 -1.36498 -1.10028e-18)
(-5.97368 -1.37149 0)
(-5.31777 -1.38225 -1.09452e-18)
(-4.64825 -1.40219 -3.62879e-19)
(-3.9577 -1.43166 0)
(-3.23905 -1.46802 -7.20977e-19)
(-2.48845 -1.50421 -7.17729e-19)
(-1.70664 -1.53213 1.07182e-18)
(-0.898347 -1.54315 0)
(-0.0733553 -1.53146 3.53106e-19)
(0.753933 -1.49126 3.49916e-19)
(1.56758 -1.42118 1.03793e-18)
(2.35072 -1.32284 0)
(3.08665 -1.20136 0)
(3.75956 -1.06341 0)
(4.3559 -0.916373 3.2779e-19)
(4.86522 -0.767232 0)
(5.28093 -0.621757 0)
(5.60102 -0.484017 -3.12865e-19)
(5.82858 -0.356344 -3.0776e-19)
(5.9712 -0.23985 0)
(6.04007 -0.135139 0)
(6.04532 -0.0444472 -5.85564e-19)
(5.99978 0.033213 0)
(5.91428 0.0971251 5.66152e-19)
(5.79889 0.14452 5.56529e-19)
(5.6639 0.172828 0)
(5.51943 0.180717 0)
(5.37614 0.167942 -5.29608e-19)
(5.24519 0.136038 -2.02777e-22)
(5.13663 0.0895595 -1.93566e-22)
(5.05843 0.0351673 0)
(5.01546 -0.0222419 -9.94549e-19)
(5.0075 -0.078573 0)
(5.03462 -0.12483 0)
(5.10181 -0.149143 0)
(5.21289 -0.140816 4.67932e-19)
(5.35792 -0.100036 0)
(5.50097 -0.0420177 -9.07827e-19)
(5.59039 0.0120973 -4.47025e-19)
(5.59937 0.0511982 0)
(5.5461 0.0821053 -4.33191e-19)
(5.46169 0.112893 0)
(5.36044 0.141582 0)
(5.24936 0.165335 -1.23826e-18)
(5.14522 0.180537 8.11864e-19)
(5.06363 0.175165 0)
(5.0065 0.138992 7.84711e-19)
(4.97198 0.0825043 -3.85627e-19)
(4.96525 0.0293975 0)
(4.99388 -0.00165013 0)
(5.05384 -0.0070023 0)
(5.12541 0.00748001 -1.07779e-18)
(5.18113 0.0291502 0)
(5.19866 0.0453744 -3.46209e-19)
(5.1738 0.0513518 0)
(5.12159 0.0509314 0)
(5.06611 0.0516105 0)
(5.02548 0.0568735 0)
(5.00648 0.0650049 0)
(5.00309 0.0707107 0)
(5.00546 0.0715332 -6.02568e-19)
(4.99955 0.0643518 0)
(4.98335 0.0559293 -2.88691e-19)
(4.95048 0.0449751 8.47419e-19)
(4.91641 0.0439364 0)
(4.86936 0.0399056 0)
(4.84156 0.0575517 -5.28121e-19)
(4.78862 0.0613214 -5.16129e-19)
(4.78219 0.109343 5.04008e-19)
(4.70707 0.120494 4.92414e-19)
(0.0707824 -0.367899 8.07678e-19)
(0.295268 -0.328322 8.01548e-19)
(0.462684 -0.661928 5.3012e-19)
(0.653987 -0.91047 2.63319e-19)
(0.401062 -1.03009 0)
(0.134909 -0.474113 -5.18485e-19)
(-0.159362 -0.0808236 2.57532e-19)
(-0.577856 0.126776 0)
(-0.915467 0.466806 2.52242e-19)
(-1.17055 0.714647 0)
(-1.36036 0.887665 -4.95796e-19)
(-1.60787 0.971053 0)
(-1.90636 1.05705 -2.43479e-19)
(-2.23743 1.15452 -4.82564e-19)
(-2.59137 1.25567 4.78171e-19)
(-2.95073 1.33698 0)
(-3.31097 1.38296 4.69556e-19)
(-3.66268 1.38789 0)
(-3.99898 1.35408 0)
(-4.31223 1.28477 4.57183e-19)
(-4.59644 1.18211 0)
(-4.84622 1.04856 -1.07387e-21)
(-5.05657 0.887543 0)
(-5.22346 0.703439 0)
(-5.34381 0.5015 1.26853e-21)
(-5.41608 0.287158 4.34992e-19)
(-5.44011 0.0655502 4.30418e-19)
(-5.4164 -0.156804 4.28265e-19)
(-5.34605 -0.375883 0)
(-5.23051 -0.586099 8.42206e-19)
(-5.07275 -0.782181 0)
(-4.87618 -0.958376 4.14527e-19)
(-4.64293 -1.10864 0)
(-4.37381 -1.22814 0)
(-4.07107 -1.31326 -4.06243e-19)
(-3.74088 -1.36026 0)
(-3.39162 -1.36583 4.01085e-19)
(-3.02688 -1.32502 1.64497e-22)
(-2.63665 -1.22749 -7.92377e-19)
(-2.19836 -1.0617 7.87737e-19)
(-1.70789 -0.838704 0)
(-1.19383 -0.585998 0)
(-0.62759 -0.205154 3.87698e-19)
(0.117219 0.431736 0)
(0.843671 0.974872 3.80704e-19)
(1.46746 1.2572 -3.76939e-19)
(1.94635 1.36852 -3.73108e-19)
(2.38006 1.37786 0)
(2.81484 1.29569 3.64729e-19)
(3.21967 1.08869 3.60375e-19)
(3.57406 0.735571 -7.15146e-19)
(3.83132 0.29286 3.52311e-19)
(4.01973 -0.198826 3.48598e-19)
(4.136 -0.696413 0)
(4.16281 -1.1119 0)
(4.11026 -1.47074 -3.3952e-19)
(3.93563 -1.75717 0)
(3.69912 -1.84546 0)
(3.38915 -1.83238 6.65533e-19)
(2.88186 -1.8274 6.61092e-19)
(2.21818 -1.58877 0)
(1.56277 -0.932525 0)
(0.966585 -0.0710536 0)
(0.38924 0.747416 0)
(-0.214788 1.42928 6.31721e-19)
(-0.817978 1.94346 -6.24016e-19)
(-1.37635 2.28147 -6.1619e-19)
(-1.86364 2.46628 -1.21683e-18)
(-2.27875 2.53026 0)
(-2.63065 2.50382 1.02408e-21)
(-2.92892 2.41041 0)
(-3.18044 2.26943 5.794e-19)
(-3.39046 2.09688 1.20989e-21)
(-3.56261 1.90673 5.6497e-19)
(-3.70084 1.71025 -5.5784e-19)
(-3.81024 1.51764 8.88813e-22)
(-3.89713 1.33833 0)
(-3.96917 1.18119 -5.36287e-19)
(-4.03528 1.05407 -5.29921e-19)
(-4.10583 0.96314 -1.04577e-18)
(-4.19295 0.912367 0)
(-4.30986 0.902814 5.08977e-19)
(-4.46969 0.932165 0)
(-4.68443 0.994979 -9.8885e-19)