/*--------------------------------*- C++ -*----------------------------------*\
| =========                 |                                                 |
| \\      /  F ield         | OpenFOAM: The Open Source CFD Toolbox           |
|  \\    /   O peration     | Version:  2112                                  |
|   \\  /    A nd           | Website:  www.openfoam.com                      |
|    \\/     M anipulation  |                                                 |
\*---------------------------------------------------------------------------*/
FoamFile
{
    version     2.0;
    format      ascii;
    arch        "LSB;label=32;scalar=64";
    class       volScalarField;
    location    "0.11";
    object      kU;
}
// * * * * * * * * * * * * * * * * * * * * * * * * * * * * * * * * * * * * * //

dimensions      [0 2 -2 0 0 0 0];

internalField   nonuniform List<scalar> 
12225
(
1.49065
2.68187
3.97384
5.45271
7.16137
9.07893
11.1258
13.191
15.1665
16.9752
18.5803
19.9774
21.1811
22.2149
23.1022
23.8835
24.4747
24.6511
0.430458
0.533303
0.682946
0.891156
1.16879
1.52693
1.97826
2.53158
3.18739
3.93341
4.74894
5.61209
6.50063
7.38894
8.24907
9.06723
9.85704
10.5031
0.38075
0.38862
0.398482
0.413988
0.439724
0.480562
0.542406
0.632147
0.75737
0.924888
1.13987
1.40679
1.73014
2.11325
2.55438
3.0505
3.59454
4.16328
0.376416
0.377178
0.377414
0.377572
0.378228
0.379902
0.383338
0.38989
0.401446
0.420305
0.449046
0.490824
0.549289
0.628813
0.734189
0.871573
1.04559
1.26185
0.375625
0.375691
0.375368
0.374756
0.373963
0.373019
0.372021
0.371176
0.370778
0.371202
0.372938
0.376366
0.382104
0.391078
0.404518
0.424171
0.452204
0.491272
0.375357
0.375385
0.375143
0.374692
0.374081
0.373322
0.372438
0.371479
0.370516
0.36963
0.368885
0.368348
0.368118
0.368339
0.369205
0.371063
0.374253
0.379005
0.375229
0.375287
0.375151
0.374867
0.37447
0.373968
0.373375
0.372711
0.372007
0.371292
0.370589
0.369916
0.369295
0.368759
0.368353
0.368137
0.368178
0.368517
0.375154
0.375228
0.375177
0.375014
0.37477
0.37445
0.374064
0.373625
0.373152
0.372661
0.372165
0.371672
0.371193
0.370741
0.370335
0.37
0.369763
0.369637
0.375103
0.375177
0.37518
0.375107
0.37497
0.374776
0.374535
0.374253
0.373945
0.373623
0.373295
0.372966
0.372644
0.372336
0.372055
0.371817
0.371633
0.37151
0.375064
0.375127
0.375161
0.375151
0.375093
0.374991
0.374851
0.37468
0.374491
0.37429
0.374085
0.373879
0.373677
0.373485
0.37331
0.373163
0.37305
0.372975
0.375032
0.375078
0.375123
0.375153
0.375155
0.375124
0.37506
0.374973
0.37487
0.374758
0.374642
0.374526
0.374413
0.374308
0.374217
0.374145
0.374096
0.374071
0.375005
0.375034
0.375077
0.375124
0.375163
0.375182
0.375178
0.375153
0.375113
0.375064
0.375012
0.37496
0.374911
0.37487
0.374841
0.374829
0.374834
0.374855
0.37498
0.37499
0.375027
0.375079
0.375138
0.375192
0.375233
0.37526
0.375276
0.375283
0.375286
0.375289
0.375294
0.375305
0.375326
0.375357
0.3754
0.375453
0.374953
0.374939
0.374965
0.375015
0.375083
0.375157
0.375231
0.375299
0.375362
0.37542
0.375474
0.375528
0.375583
0.375641
0.375704
0.375772
0.375847
0.375924
0.374926
0.374883
0.374894
0.374937
0.375003
0.375084
0.375174
0.375268
0.375362
0.375456
0.37555
0.375643
0.375737
0.375832
0.375929
0.376027
0.376125
0.37622
0.374902
0.374829
0.374818
0.374852
0.37491
0.374988
0.375081
0.375183
0.375291
0.375403
0.375517
0.375633
0.375749
0.375866
0.375982
0.376097
0.376209
0.376314
0.374882
0.374782
0.374748
0.374768
0.374819
0.37489
0.374976
0.375075
0.375182
0.375295
0.375413
0.375533
0.375654
0.375775
0.375895
0.376012
0.376124
0.376229
0.37487
0.374751
0.374699
0.374706
0.37475
0.374812
0.37489
0.37498
0.375078
0.375183
0.375292
0.375403
0.375514
0.375625
0.375733
0.375838
0.375937
0.376029
0.374869
0.374746
0.374689
0.37469
0.374729
0.374784
0.374853
0.374932
0.375018
0.375107
0.375198
0.375288
0.375377
0.375463
0.375544
0.37562
0.37569
0.375753
0.374882
0.374776
0.37473
0.374736
0.374771
0.37482
0.374878
0.374941
0.375005
0.375067
0.375124
0.375176
0.375222
0.375261
0.375294
0.37532
0.375339
0.375351
0.374903
0.374821
0.37479
0.374798
0.374824
0.374859
0.374895
0.374927
0.374951
0.374965
0.374969
0.374962
0.374946
0.374923
0.374895
0.374861
0.374822
0.374779
0.374931
0.374875
0.374854
0.374852
0.374855
0.374854
0.374841
0.374814
0.374771
0.374713
0.374642
0.374559
0.374468
0.374368
0.374264
0.374155
0.374043
0.37393
0.374965
0.374931
0.374902
0.374868
0.374821
0.374755
0.374665
0.374548
0.374407
0.374248
0.374074
0.373889
0.373696
0.373495
0.37329
0.373081
0.372871
0.372664
0.375005
0.374979
0.374918
0.37482
0.374685
0.374513
0.374306
0.374061
0.373783
0.373479
0.373156
0.372818
0.37247
0.372115
0.371757
0.371399
0.371044
0.370699
0.375055
0.375027
0.374905
0.3747
0.374423
0.374081
0.373681
0.373227
0.372729
0.372196
0.371638
0.371061
0.370473
0.369882
0.369295
0.36872
0.368164
0.367641
0.375153
0.375131
0.374928
0.374553
0.374034
0.373395
0.372659
0.371848
0.370986
0.370094
0.369185
0.368274
0.367385
0.366548
0.365797
0.365169
0.3647
0.364425
0.375441
0.375631
0.37544
0.374873
0.374033
0.373029
0.371968
0.370956
0.370108
0.369553
0.369436
0.369852
0.370961
0.373002
0.376247
0.380968
0.38743
0.39583
0.376989
0.379405
0.381289
0.382853
0.384881
0.388275
0.393968
0.402905
0.416056
0.434471
0.459329
0.491963
0.533765
0.586053
0.649912
0.726118
0.815159
0.916847
0.397399
0.430781
0.476919
0.540803
0.625983
0.73485
0.869564
1.03235
1.22564
1.45222
1.71505
2.01586
2.35535
2.73241
3.14334
3.58262
4.04379
4.51667
1.04559
1.73104
2.41874
3.1493
3.95988
4.87359
5.89939
7.03364
8.26176
9.56011
10.8988
12.2458
13.5701
14.8449
16.0499
17.1718
18.2029
19.1355
0.194436
0.198677
0.207403
0.220487
0.237745
0.258923
0.283731
0.311878
0.34309
0.377118
0.413725
0.452666
0.49366
0.537668
0.585971
0.638236
0.693945
0.752772
0.81455
0.879165
0.946502
1.01644
1.08888
1.16371
1.24085
1.32023
1.40181
1.48554
1.5714
1.65938
1.74946
1.84164
1.93588
2.03217
2.13045
2.23065
2.33269
2.43646
2.54183
2.64865
2.75675
2.86594
2.97603
3.08679
3.19801
3.30945
3.42089
3.5321
3.64284
3.7529
3.86205
3.97009
4.07683
4.18209
4.28569
4.38747
4.48731
4.58508
4.68068
4.77401
4.865
4.95359
5.03975
5.12344
5.20466
5.2834
5.35969
5.43355
5.50502
5.57416
5.64101
5.70565
5.76815
5.82859
5.88705
5.94362
5.9984
6.05146
6.10291
6.15284
6.20133
6.24847
6.29435
6.33905
6.38264
6.4252
6.46679
6.50747
6.54729
6.58629
6.6245
6.66194
6.69864
6.73457
6.76974
6.80412
6.83766
6.87032
6.90201
6.93266
6.96215
6.99036
7.01716
7.04237
7.06582
7.0873
7.1066
7.12346
7.13764
7.14884
7.15677
7.16109
7.16147
7.15753
7.14887
7.13506
7.11564
7.09014
7.05894
7.02165
6.97792
6.92746
6.86999
6.80522
6.7329
6.6528
6.56472
6.46847
6.36391
6.25096
6.12955
5.99971
5.86151
5.71511
5.56079
5.39894
5.23005
5.05477
4.87393
4.68855
4.49983
4.30918
4.11829
3.92932
3.74522
3.57008
3.41042
3.27897
3.17444
3.13709
3.1858
3.30322
3.44636
3.61789
3.80689
4.01227
4.23457
4.47447
4.73269
5.00999
5.3071
5.62449
5.96238
6.32067
6.699
7.09674
7.51304
7.9465
8.39499
8.85584
9.3261
9.80233
10.2805
10.756
11.2241
11.6794
12.1193
12.525
12.8926
13.1652
0.198753
0.202626
0.210937
0.22352
0.240164
0.260592
0.284493
0.311564
0.341526
0.374141
0.409217
0.446613
0.486286
0.528374
0.5731
0.620471
0.670357
0.722588
0.77699
0.833402
0.891658
0.951594
1.01305
1.07586
1.13989
1.205
1.27107
1.33799
1.40568
1.47406
1.54305
1.61258
1.68259
1.75301
1.82375
1.89473
1.96586
2.03705
2.10817
2.17913
2.24979
2.32004
2.38977
2.45885
2.52717
2.59463
2.66112
2.72655
2.79085
2.85393
2.91574
2.97624
3.03537
3.09311
3.14943
3.20433
3.25781
3.30986
3.36049
3.40974
3.45761
3.50414
3.54935
3.59329
3.636
3.67751
3.71787
3.75713
3.79532
3.83251
3.86872
3.90401
3.93843
3.97201
4.0048
4.03685
4.06818
4.09883
4.12885
4.15826
4.1871
4.21538
4.24314
4.2704
4.29717
4.32347
4.3493
4.37469
4.39962
4.4241
4.44812
4.47167
4.49474
4.51731
4.53935
4.56084
4.58174
4.60201
4.62162
4.6405
4.65862
4.6759
4.6923
4.70773
4.72214
4.73546
4.7476
4.75849
4.76806
4.77621
4.78287
4.78796
4.79139
4.79307
4.79293
4.79089
4.787
4.78165
4.77445
4.76528
4.75405
4.74069
4.72511
4.70721
4.6869
4.66407
4.63858
4.61028
4.57903
4.54464
4.50691
4.46562
4.42056
4.37147
4.31812
4.26026
4.19766
4.13016
4.05763
3.98005
3.89752
3.81039
3.71928
3.62521
3.52992
3.43613
3.34807
3.27259
3.21567
3.19793
3.22477
3.28001
3.33942
3.39866
3.45548
3.51016
3.56396
3.6184
3.67499
3.73518
3.8005
3.87252
3.95275
4.04259
4.14324
4.25571
4.38088
4.51937
4.67154
4.83738
5.01662
5.20867
5.41255
5.62706
5.85084
6.08282
6.32338
6.57971
6.86611
7.21429
0.207488
0.210609
0.218226
0.230089
0.245946
0.265495
0.288414
0.31439
0.343144
0.374439
0.408084
0.443937
0.48191
0.521973
0.564123
0.608326
0.654496
0.702509
0.752213
0.803445
0.856031
0.909793
0.964551
1.02013
1.07637
1.13312
1.19023
1.2476
1.3051
1.36266
1.42018
1.47759
1.53483
1.59182
1.6485
1.7048
1.76065
1.81598
1.87072
1.92481
1.97817
2.03073
2.08246
2.13329
2.18317
2.23208
2.27999
2.32688
2.37274
2.41757
2.46138
2.50417
2.54597
2.58681
2.6267
2.66569
2.70379
2.74106
2.77752
2.81321
2.84817
2.88243
2.91602
2.94899
2.98136
3.01317
3.04443
3.07519
3.10546
3.13526
3.16463
3.19358
3.22213
3.25029
3.27808
3.30552
3.33261
3.35938
3.38583
3.41197
3.43781
3.46336
3.48863
3.51361
3.53832
3.56275
3.58691
3.61079
3.63439
3.65772
3.68075
3.70349
3.72592
3.74803
3.76981
3.79124
3.8123
3.83296
3.85322
3.87304
3.89239
3.91125
3.92959
3.94738
3.96459
3.98118
3.99713
4.01239
4.02695
4.04077
4.05383
4.06609
4.07755
4.08819
4.09801
4.10704
4.11545
4.12307
4.12977
4.13545
4.14005
4.14349
4.14568
4.14652
4.14591
4.14371
4.1398
4.13402
4.1262
4.11612
4.10357
4.08833
4.07013
4.04872
4.02378
3.99504
3.96221
3.92504
3.88331
3.83689
3.78579
3.73026
3.6708
3.60832
3.54441
3.48159
3.42307
3.37264
3.33433
3.31754
3.32231
3.3381
3.35325
3.36497
3.37197
3.3741
3.37227
3.3677
3.36165
3.35526
3.34981
3.3467
3.34727
3.35274
3.36423
3.38274
3.40925
3.44471
3.48995
3.54566
3.61239
3.6905
3.78018
3.88151
3.99455
4.11965
4.25823
4.4171
4.60957
4.85747
0.219673
0.22186
0.228586
0.239525
0.254398
0.27289
0.294668
0.319415
0.346846
0.376718
0.40883
0.44302
0.479166
0.517176
0.556977
0.59849
0.641618
0.686239
0.732212
0.779379
0.827569
0.876607
0.926316
0.976522
1.02706
1.07778
1.12854
1.17923
1.22973
1.27995
1.32983
1.37928
1.42826
1.47671
1.52458
1.57183
1.61842
1.66431
1.70947
1.75387
1.79749
1.84031
1.88232
1.92353
1.96393
2.00355
2.04241
2.08052
2.11793
2.15467
2.19078
2.22631
2.26129
2.29578
2.32982
2.36344
2.39669
2.4296
2.46221
2.49454
2.52663
2.5585
2.59016
2.62164
2.65295
2.6841
2.71509
2.74593
2.77663
2.80717
2.83757
2.86781
2.8979
2.92783
2.95759
2.98719
3.01661
3.04585
3.07491
3.10379
3.13248
3.16098
3.18929
3.21741
3.24532
3.27304
3.30055
3.32786
3.35496
3.38184
3.4085
3.43493
3.46113
3.48708
3.51278
3.5382
3.56335
3.5882
3.61273
3.63692
3.66076
3.68423
3.7073
3.72994
3.75214
3.77386
3.79508
3.81577
3.83591
3.85548
3.87445
3.89282
3.91056
3.92768
3.9442
3.96009
3.97528
3.9897
4.00326
4.01587
4.02745
4.03792
4.04719
4.05514
4.06167
4.06665
4.06995
4.07143
4.07094
4.0683
4.06332
4.0558
4.04554
4.03232
4.01591
3.99608
3.97264
3.94539
3.91418
3.8789
3.83971
3.79692
3.75105
3.70276
3.65334
3.60487
3.55912
3.51697
3.4806
3.45424
3.43681
3.42275
3.40743
3.38934
3.36725
3.34068
3.31014
3.2765
3.2407
3.20363
3.16632
3.12987
3.0953
3.0635
3.03527
3.01135
2.99257
2.97984
2.97396
2.97568
2.98568
3.00459
3.03301
3.07154
3.12084
3.18188
3.25648
3.35
3.47294
3.63637
0.234295
0.235701
0.241416
0.251275
0.264996
0.282266
0.302752
0.326135
0.352127
0.380479
0.410982
0.44346
0.477766
0.51378
0.551391
0.590494
0.630975
0.672708
0.715553
0.759357
0.803959
0.849189
0.894881
0.940869
0.986998
1.03312
1.07912
1.12487
1.17027
1.21526
1.25976
1.30371
1.34708
1.38983
1.43194
1.47338
1.51416
1.55425
1.59367
1.63243
1.67052
1.70799
1.74486
1.78116
1.81694
1.85224
1.88712
1.92163
1.95583
1.98977
2.0235
2.05709
2.09058
2.12402
2.15744
2.19089
2.2244
2.25799
2.29167
2.32547
2.3594
2.39346
2.42764
2.46195
2.49638
2.53091
2.56554
2.60024
2.63499
2.66978
2.70458
2.73936
2.77411
2.80881
2.84343
2.87795
2.91235
2.94663
2.98076
3.01473
3.04854
3.08217
3.11561
3.14885
3.18189
3.21472
3.24734
3.27973
3.31189
3.34382
3.37551
3.40695
3.43813
3.46905
3.49968
3.53003
3.56006
3.58978
3.61915
3.64816
3.67678
3.705
3.73279
3.76012
3.78697
3.8133
3.83909
3.8643
3.88892
3.91291
3.93625
3.95892
3.9809
4.00219
4.02266
4.0423
4.06106
4.07887
4.09565
4.11132
4.12579
4.13897
4.15078
4.16111
4.16984
4.17684
4.182
4.18518
4.18627
4.18508
4.18147
4.17526
4.16629
4.15438
4.13932
4.12098
4.09925
4.07399
4.04505
4.01227
3.97596
3.93657
3.89464
3.85042
3.80441
3.75845
3.71321
3.66892
3.62516
3.58412
3.5454
3.50681
3.46702
3.42553
3.38149
3.33447
3.28472
3.23286
3.17963
3.12539
3.07053
3.01613
2.96298
2.91176
2.86301
2.81734
2.77557
2.73827
2.70606
2.6795
2.65924
2.64593
2.6402
2.64278
2.65446
2.67639
2.71033
2.76013
2.83384
2.93663
0.251703
0.251653
0.256156
0.264776
0.277197
0.293102
0.312161
0.334054
0.358497
0.385236
0.414056
0.44477
0.47722
0.511265
0.546775
0.583626
0.621693
0.660844
0.700937
0.741825
0.783353
0.825365
0.867703
0.910216
0.952762
0.995211
1.03745
1.07937
1.12089
1.16196
1.2025
1.2425
1.28192
1.32075
1.35899
1.39665
1.43374
1.47028
1.50631
1.54186
1.57698
1.61172
1.64613
1.68029
1.71426
1.7481
1.78188
1.81568
1.84955
1.88356
1.91777
1.95223
1.98698
2.02206
2.0575
2.09333
2.12956
2.1662
2.20324
2.2407
2.27855
2.31679
2.35539
2.39433
2.43358
2.47312
2.51291
2.55291
2.59308
2.63339
2.6738
2.71426
2.75474
2.79521
2.83562
2.87595
2.91616
2.95624
2.99616
3.03589
3.07543
3.11476
3.15386
3.19271
3.23131
3.26965
3.30771
3.34549
3.38298
3.42017
3.45705
3.49362
3.52986
3.56576
3.6013
3.63647
3.67126
3.70564
3.73959
3.77309
3.80613
3.83866
3.87066
3.9021
3.93296
3.9632
3.99278
4.02168
4.04985
4.07728
4.10393
4.12977
4.15477
4.17875
4.2017
4.2236
4.2444
4.26404
4.28244
4.29951
4.31517
4.32931
4.34185
4.35268
4.36168
4.36872
4.37368
4.37643
4.37683
4.37473
4.36998
4.36247
4.35203
4.33845
4.32147
4.30103
4.2772
4.24985
4.21882
4.18363
4.14469
4.10256
4.05797
4.01079
3.96072
3.90948
3.85686
3.80242
3.74601
3.68817
3.62925
3.56901
3.50772
3.44555
3.38211
3.31717
3.25096
3.18403
3.11698
3.05022
2.98399
2.91889
2.8555
2.79433
2.73578
2.67989
2.62651
2.57653
2.5305
2.48894
2.45267
2.422
2.39743
2.37962
2.36937
2.36776
2.37632
2.39795
2.43798
2.49919
0.271221
0.269174
0.272295
0.279541
0.290539
0.304965
0.322486
0.342787
0.365584
0.390625
0.417691
0.44659
0.477153
0.509227
0.542673
0.577355
0.613138
0.649887
0.68746
0.725714
0.764504
0.803682
0.843105
0.882638
0.922152
0.961535
1.00069
1.03952
1.07797
1.11599
1.15354
1.1906
1.22717
1.26326
1.29887
1.33405
1.36882
1.40325
1.43737
1.47126
1.50497
1.53859
1.57219
1.60585
1.63964
1.67366
1.70796
1.74263
1.77772
1.81331
1.84944
1.88616
1.9235
1.96148
2.00013
2.03944
2.07942
2.12007
2.16136
2.20328
2.24579
2.28888
2.33249
2.3766
2.42116
2.46613
2.51145
2.55708
2.60296
2.64904
2.69527
2.74159
2.78794
2.83429
2.88058
2.92677
2.97284
3.01873
3.06443
3.10991
3.15514
3.20011
3.24479
3.28917
3.33323
3.37695
3.42033
3.46335
3.506
3.54827
3.59014
3.63162
3.67268
3.71331
3.75349
3.79321
3.83244
3.87116
3.90934
3.94697
3.98402
4.02046
4.05625
4.09137
4.12577
4.15943
4.19231
4.22437
4.25557
4.28587
4.31525
4.34361
4.37079
4.39677
4.42151
4.44497
4.46711
4.48786
4.50714
4.52485
4.54091
4.55521
4.56763
4.57806
4.58636
4.59243
4.59615
4.59736
4.59588
4.59147
4.58405
4.57359
4.55994
4.54283
4.5218
4.49675
4.468
4.43542
4.39893
4.35803
4.31266
4.2629
4.21016
4.15429
4.09564
4.03393
3.96876
3.89963
3.82658
3.75055
3.67232
3.5925
3.51187
3.43096
3.34985
3.26864
3.18761
3.10726
3.02811
2.95059
2.87501
2.80181
2.73143
2.66422
2.60049
2.54009
2.48264
2.42857
2.3782
2.33158
2.28841
2.24946
2.2153
2.18682
2.16469
2.14971
2.14319
2.14731
2.16548
2.19916
0.292292
0.287757
0.289349
0.295113
0.304601
0.317464
0.333367
0.351996
0.37307
0.396342
0.42159
0.44862
0.477259
0.507348
0.538738
0.571289
0.604861
0.639317
0.674518
0.710325
0.746601
0.783212
0.820028
0.856928
0.893801
0.930551
0.967094
1.00337
1.03931
1.0749
1.11012
1.14496
1.17944
1.21357
1.2474
1.28098
1.31435
1.34759
1.38077
1.41396
1.44724
1.48071
1.51445
1.54854
1.58308
1.61814
1.6538
1.69013
1.72719
1.76504
1.80372
1.84325
1.88368
1.925
1.96722
2.01034
2.05433
2.09919
2.14487
2.19135
2.23858
2.28652
2.33513
2.38434
2.43412
2.48439
2.53511
2.58621
2.63762
2.68927
2.74111
2.79305
2.84505
2.89703
2.94895
3.00075
3.0524
3.10384
3.15505
3.20599
3.25664
3.30697
3.35696
3.40658
3.45582
3.50466
3.55308
3.60106
3.64859
3.69565
3.74224
3.78834
3.83393
3.879
3.92353
3.96749
4.01086
4.05362
4.09573
4.13718
4.17793
4.21796
4.25723
4.29569
4.33332
4.37007
4.40591
4.44079
4.47468
4.50749
4.5391
4.56942
4.59839
4.62597
4.65209
4.67671
4.69976
4.72118
4.74085
4.75871
4.77466
4.78857
4.8003
4.80968
4.81652
4.82079
4.82239
4.82116
4.81685
4.80903
4.79757
4.78266
4.76412
4.74167
4.71491
4.68345
4.64747
4.60669
4.56104
4.51102
4.4561
4.39609
4.33148
4.26242
4.18901
4.11134
4.02934
3.94298
3.85269
3.75934
3.66374
3.56667
3.46905
3.37163
3.27489
3.1792
3.085
2.99279
2.90308
2.81632
2.73292
2.65326
2.57765
2.50635
2.43947
2.37694
2.31855
2.2643
2.21421
2.16798
2.12493
2.08547
2.04995
2.01833
1.99129
1.96986
1.95544
1.94974
1.95479
1.97127
0.31452
0.306995
0.306906
0.311094
0.319006
0.330251
0.34448
0.36138
0.380675
0.40212
0.425498
0.450615
0.477296
0.505379
0.534713
0.565154
0.596563
0.628801
0.661734
0.695231
0.729162
0.763406
0.797847
0.832379
0.866909
0.901357
0.935658
0.969761
1.00363
1.03726
1.07063
1.10376
1.13669
1.16944
1.20207
1.23463
1.26721
1.29987
1.3327
1.36578
1.39921
1.43308
1.46748
1.5025
1.53822
1.57473
1.6121
1.65039
1.68966
1.72996
1.77132
1.81376
1.85731
1.90196
1.9477
1.99452
2.04239
2.09129
2.14116
2.19196
2.24365
2.29617
2.34946
2.40347
2.45813
2.51338
2.56914
2.62534
2.68192
2.73878
2.79585
2.85305
2.91031
2.96756
3.02474
3.08177
3.13863
3.19524
3.25159
3.30763
3.36333
3.41867
3.47361
3.52813
3.58222
3.63583
3.68896
3.74159
3.79368
3.84523
3.89621
3.94663
3.99645
4.04566
4.09423
4.14214
4.18936
4.23585
4.28159
4.32655
4.3707
4.41403
4.45647
4.498
4.53855
4.5781
4.6166
4.65398
4.69013
4.72497
4.75841
4.79039
4.82082
4.84964
4.87681
4.90225
4.92587
4.94755
4.96716
4.98466
4.99996
5.01295
5.02345
5.0312
5.03583
5.03744
5.03597
5.03123
5.02299
5.01081
4.99434
4.97365
4.94851
4.91852
4.88372
4.84391
4.79852
4.74727
4.69012
4.62711
4.55813
4.48328
4.40294
4.31747
4.22728
4.13271
4.03394
3.93122
3.82506
3.71614
3.60523
3.49317
3.3809
3.26932
3.1592
3.05115
2.94575
2.84357
2.74516
2.65098
2.56143
2.47683
2.39742
2.32332
2.25456
2.19104
2.13263
2.07915
2.03042
1.98609
1.94574
1.90924
1.87656
1.84719
1.82149
1.80024
1.7842
1.77467
1.77315
1.78006
0.337657
0.326582
0.32463
0.327147
0.333425
0.343011
0.355531
0.370665
0.38814
0.40772
0.429192
0.452365
0.477067
0.503136
0.530421
0.558778
0.588068
0.618158
0.648917
0.680222
0.711955
0.744005
0.77627
0.808661
0.8411
0.873522
0.90588
0.938138
0.970278
1.0023
1.0342
1.06603
1.0978
1.12958
1.16142
1.19339
1.22557
1.25804
1.2909
1.32422
1.35811
1.39266
1.42796
1.46411
1.50117
1.53924
1.57838
1.61865
1.6601
1.70277
1.7467
1.79189
1.83836
1.8861
1.93511
1.98534
2.03678
2.08938
2.1431
2.19787
2.25365
2.31036
2.36795
2.42635
2.4855
2.5453
2.6057
2.6666
2.72793
2.78958
2.85147
2.9135
2.97561
3.0377
3.0997
3.16155
3.22319
3.28457
3.34565
3.40638
3.46673
3.52667
3.58617
3.64521
3.70376
3.76178
3.81926
3.87618
3.93249
3.98817
4.04319
4.09754
4.15121
4.20419
4.25644
4.30794
4.35866
4.40855
4.45759
4.50573
4.55296
4.59923
4.64452
4.68874
4.73185
4.7738
4.81452
4.85395
4.89198
4.92852
4.96349
4.99679
5.02831
5.058
5.08581
5.11168
5.1355
5.15708
5.17614
5.19271
5.20676
5.21816
5.22671
5.23215
5.234
5.23229
5.22685
5.21741
5.20377
5.18576
5.16301
5.13507
5.10159
5.06224
5.01682
4.96506
4.90672
4.84165
4.76994
4.69177
4.60731
4.51682
4.42068
4.31938
4.21344
4.10329
3.98926
3.87174
3.75122
3.62838
3.50399
3.37894
3.25423
3.13086
3.00976
2.89173
2.7775
2.66771
2.5629
2.46352
2.36992
2.28233
2.20087
2.12554
2.05626
1.99285
1.9351
1.88274
1.83548
1.79301
1.75504
1.72139
1.69191
1.6664
1.64487
1.62747
1.61423
1.60575
1.60301
1.60615
0.36159
0.346296
0.342256
0.342986
0.347571
0.355464
0.366247
0.379591
0.395226
0.412921
0.432471
0.453694
0.476419
0.500488
0.525752
0.552071
0.579307
0.607333
0.636024
0.665267
0.694952
0.724982
0.755269
0.785736
0.816321
0.846975
0.877664
0.908366
0.939076
0.969802
1.00057
1.0314
1.06235
1.09348
1.12484
1.15652
1.18858
1.22113
1.25424
1.288
1.32252
1.35789
1.39418
1.4315
1.46992
1.50951
1.55034
1.59247
1.63594
1.68079
1.72706
1.77474
1.82385
1.87439
1.92632
1.97964
2.0343
2.09025
2.14744
2.20581
2.2653
2.32583
2.38733
2.44973
2.51295
2.57692
2.64154
2.70672
2.77237
2.83839
2.90466
2.97109
3.03759
3.10407
3.17045
3.23667
3.30264
3.36833
3.43369
3.49867
3.56323
3.62734
3.69097
3.75409
3.81668
3.87867
3.94003
4.00071
4.06071
4.12001
4.17859
4.23643
4.29351
4.34981
4.40532
4.45999
4.51378
4.56666
4.6186
4.66952
4.71941
4.76822
4.81592
4.86243
4.90769
4.95164
4.9942
5.03526
5.07475
5.11261
5.14873
5.183
5.21523
5.24531
5.27329
5.29909
5.32259
5.34357
5.36168
5.37689
5.3891
5.39816
5.40383
5.40589
5.40415
5.3982
5.3877
5.37232
5.35177
5.32573
5.29381
5.25565
5.21096
5.15953
5.10123
5.03597
4.96367
4.88436
4.79821
4.7055
4.60651
4.50155
4.39101
4.27537
4.15517
4.03091
3.90304
3.77206
3.63857
3.50332
3.36716
3.23106
3.09609
2.96334
2.83385
2.70853
2.58819
2.47349
2.36497
2.263
2.16782
2.07954
1.99812
1.92345
1.8553
1.79339
1.73737
1.68692
1.64169
1.60141
1.56587
1.53496
1.50861
1.48667
1.46901
1.45553
1.446
1.44036
1.43903
1.44169
0.386336
0.36599
0.359571
0.35837
0.361188
0.367347
0.376372
0.387913
0.4017
0.41751
0.435149
0.454441
0.475223
0.497341
0.52065
0.545012
0.570295
0.596376
0.623139
0.650478
0.678296
0.706507
0.735034
0.763815
0.792799
0.82195
0.851247
0.880681
0.910256
0.939991
0.969913
1.00006
1.03049
1.06125
1.09241
1.12404
1.15623
1.18906
1.22261
1.25697
1.29224
1.32849
1.36583
1.40433
1.44406
1.48511
1.52754
1.57139
1.61671
1.66355
1.71193
1.76186
1.81334
1.86638
1.92096
1.97705
2.03462
2.0936
2.15396
2.21561
2.27848
2.34248
2.40755
2.4736
2.54054
2.60829
2.67674
2.74581
2.81537
2.8853
2.9555
3.02586
3.09628
3.16667
3.23693
3.30701
3.37682
3.44632
3.51547
3.58421
3.6525
3.7203
3.78755
3.85419
3.92018
3.9855
4.05012
4.11403
4.1772
4.23961
4.30123
4.36203
4.422
4.48112
4.53935
4.59666
4.653
4.70836
4.76272
4.81593
4.86798
4.91884
4.96844
5.01672
5.06364
5.10912
5.15307
5.19529
5.23574
5.2744
5.31117
5.34591
5.37839
5.40846
5.43612
5.46125
5.4837
5.50326
5.5198
5.53304
5.5427
5.54853
5.55024
5.54755
5.54013
5.52761
5.50963
5.48588
5.45606
5.41992
5.37717
5.32754
5.27084
5.20696
5.13589
5.05763
4.9722
4.87968
4.7803
4.67433
4.5621
4.44391
4.32019
4.19144
4.05821
3.92108
3.78064
3.63755
3.49256
3.34655
3.20048
3.05545
2.91259
2.77308
2.638
2.50832
2.38485
2.26823
2.15891
2.05714
1.96301
1.87647
1.79732
1.7253
1.66005
1.60117
1.54827
1.50097
1.45895
1.42201
1.38994
1.36262
1.34001
1.32162
1.3071
1.2962
1.28879
1.28487
1.28451
1.28739
0.412037
0.385581
0.376412
0.373093
0.374046
0.378418
0.385657
0.395385
0.407331
0.42128
0.437047
0.454467
0.473382
0.493643
0.515109
0.537646
0.561126
0.585433
0.610458
0.636104
0.662285
0.688925
0.715963
0.743344
0.771026
0.79898
0.827199
0.855686
0.884455
0.913531
0.942946
0.972742
1.00297
1.03368
1.06495
1.09683
1.12941
1.16277
1.19698
1.23213
1.2683
1.30558
1.34406
1.3838
1.4249
1.46741
1.51141
1.55694
1.60404
1.65276
1.70312
1.75513
1.80882
1.86418
1.9212
1.97984
2.04008
2.10187
2.16515
2.22985
2.29585
2.36307
2.43141
2.5008
2.57112
2.6423
2.7142
2.78673
2.85975
2.93313
3.00675
3.08051
3.1543
3.22803
3.30162
3.37498
3.44806
3.5208
3.59316
3.66512
3.73663
3.80744
3.87757
3.94701
4.01574
4.08374
4.151
4.21749
4.28318
4.34805
4.41207
4.47522
4.53746
4.59877
4.6591
4.7184
4.77664
4.83379
4.88982
4.94468
4.99831
5.05063
5.1015
5.15094
5.1989
5.24532
5.29004
5.33287
5.37374
5.41261
5.44935
5.48382
5.51591
5.54544
5.57218
5.59593
5.61646
5.63356
5.64697
5.65639
5.66153
5.66211
5.65782
5.64839
5.6335
5.61282
5.58603
5.55285
5.51305
5.46644
5.41282
5.35198
5.28379
5.20821
5.12525
5.03496
4.93739
4.83268
4.72104
4.60278
4.47824
4.34778
4.21186
4.07103
3.92592
3.77721
3.62565
3.47205
3.31735
3.16256
3.00881
2.8573
2.70926
2.56588
2.42828
2.29739
2.17396
2.05852
1.95138
1.85262
1.76212
1.67966
1.6049
1.53741
1.47677
1.42251
1.3742
1.33153
1.29416
1.26191
1.23449
1.21126
1.19163
1.1755
1.16268
1.15299
1.14639
1.14296
1.14268
1.14539
0.438977
0.40505
0.392655
0.386981
0.385937
0.388446
0.393861
0.401769
0.411894
0.424031
0.438003
0.453653
0.470829
0.489385
0.509184
0.530092
0.551987
0.574759
0.598307
0.622544
0.647392
0.672791
0.698689
0.725046
0.75183
0.779001
0.806546
0.834486
0.862863
0.891705
0.921047
0.950928
0.981395
1.0125
1.04429
1.07684
1.11022
1.14449
1.17973
1.21602
1.25343
1.29203
1.33191
1.37314
1.41581
1.45998
1.50573
1.55308
1.60207
1.65274
1.70512
1.75923
1.8151
1.87272
1.93209
1.99318
2.05597
2.12041
2.18646
2.25409
2.32303
2.39322
2.46457
2.53699
2.61036
2.68456
2.75948
2.83498
2.91092
2.98716
3.06357
3.14007
3.21656
3.29296
3.36919
3.44515
3.5208
3.59609
3.67095
3.74527
3.81895
3.89193
3.96415
4.03561
4.10629
4.17619
4.24529
4.31357
4.381
4.44755
4.5132
4.57792
4.64168
4.70443
4.76612
4.82666
4.88601
4.9442
5.00119
5.05695
5.11139
5.16441
5.21581
5.26565
5.31386
5.36035
5.405
5.44773
5.48836
5.52672
5.56262
5.59588
5.62632
5.65372
5.67784
5.69842
5.71523
5.72805
5.73659
5.74059
5.73972
5.73372
5.7223
5.70521
5.68216
5.65287
5.61705
5.57445
5.52488
5.46816
5.40414
5.33266
5.25362
5.167
5.07283
4.97117
4.86214
4.74591
4.62272
4.49292
4.35688
4.21506
4.06798
3.91627
3.76066
3.60196
3.44106
3.27896
3.11676
2.95566
2.79691
2.64182
2.49165
2.34762
2.21079
2.08197
1.96179
1.8506
1.74851
1.65539
1.57089
1.49461
1.42608
1.36482
1.31032
1.26213
1.2198
1.18301
1.15133
1.12393
1.10021
1.07982
1.06225
1.04755
1.03568
1.02657
1.02023
1.01669
1.01593
1.01795
0.46762
0.424459
0.408235
0.399902
0.396682
0.397222
0.400757
0.406837
0.415183
0.425591
0.437894
0.451938
0.467572
0.484653
0.50304
0.522604
0.543225
0.5648
0.587236
0.610456
0.634398
0.65901
0.684257
0.710114
0.736558
0.763563
0.791098
0.819121
0.847698
0.876928
0.906839
0.937468
0.96885
1.00103
1.03404
1.06795
1.10279
1.13865
1.17559
1.21369
1.25297
1.2935
1.33535
1.3786
1.42335
1.46967
1.51767
1.56734
1.61859
1.67152
1.72618
1.7826
1.8408
1.90079
1.96255
2.02607
2.09131
2.15824
2.22679
2.29689
2.36842
2.44124
2.51524
2.59027
2.6662
2.7429
2.82021
2.89799
2.97607
3.05435
3.1327
3.21107
3.28939
3.36759
3.44558
3.52328
3.60064
3.67752
3.75382
3.82951
3.90451
3.97874
4.05212
4.12464
4.19633
4.26717
4.33717
4.4063
4.47452
4.54181
4.60814
4.67347
4.73778
4.80102
4.8631
4.92391
4.98341
5.04166
5.09859
5.15417
5.20831
5.26095
5.31202
5.36141
5.40895
5.45452
5.49798
5.53919
5.57797
5.6141
5.64739
5.67766
5.70471
5.7283
5.7482
5.76414
5.77589
5.7832
5.78583
5.78348
5.77588
5.76273
5.74378
5.71878
5.68746
5.64955
5.60479
5.55294
5.49383
5.4273
5.3532
5.27142
5.18189
5.08462
4.97967
4.86715
4.74721
4.62009
4.4861
4.34563
4.19913
4.04713
3.89025
3.72922
3.56489
3.3982
3.23021
3.0621
2.89513
2.73064
2.57002
2.41462
2.2657
2.12443
1.99175
1.86825
1.7544
1.65034
1.55592
1.47073
1.39421
1.32582
1.26504
1.21137
1.16423
1.12318
1.08764
1.0567
1.02966
1.00595
0.985082
0.966928
0.951283
0.938046
0.927154
0.918578
0.91231
0.908393
0.906837
0.907798
0.499794
0.444624
0.42365
0.412168
0.406455
0.404807
0.406328
0.410527
0.417114
0.425888
0.43668
0.449332
0.463689
0.479604
0.496934
0.515551
0.535338
0.556198
0.578054
0.600846
0.624525
0.649059
0.674431
0.700628
0.72763
0.755409
0.783936
0.813186
0.843152
0.873865
0.905435
0.937953
0.971433
1.0059
1.04138
1.07786
1.1154
1.15406
1.19393
1.23517
1.27754
1.32113
1.36604
1.41235
1.46012
1.50942
1.5603
1.61279
1.66689
1.72263
1.78004
1.83915
1.89996
1.96248
2.0267
2.09259
2.16012
2.22926
2.29995
2.37215
2.44579
2.52074
2.59679
2.67377
2.75151
2.82985
2.90862
2.98764
3.06675
3.14591
3.22508
3.3042
3.38324
3.46213
3.5408
3.61906
3.69676
3.77388
3.85039
3.92624
4.00134
4.07559
4.14887
4.22123
4.29268
4.36322
4.43286
4.50155
4.56928
4.63598
4.70164
4.7662
4.82966
4.89195
4.95304
5.01288
5.07143
5.12859
5.18428
5.23844
5.29097
5.34181
5.39084
5.43792
5.48291
5.52564
5.56598
5.60377
5.63885
5.67102
5.70005
5.72578
5.74799
5.76646
5.78094
5.79117
5.79691
5.7979
5.7939
5.78461
5.76976
5.74906
5.72225
5.68907
5.64927
5.60258
5.54877
5.48761
5.41893
5.3426
5.25852
5.1666
5.06683
4.95925
4.84398
4.72119
4.59111
4.45402
4.3103
4.16041
4.00489
3.84434
3.67948
3.51118
3.3404
3.16825
2.99594
2.82481
2.6563
2.49183
2.33287
2.1808
2.03665
1.90164
1.77649
1.66162
1.55714
1.46281
1.37819
1.30263
1.23543
1.17615
1.12418
1.07898
1.03984
1.00578
0.976
0.949844
0.926738
0.906398
0.888527
0.872907
0.859362
0.847769
0.838044
0.830144
0.824053
0.819802
0.81742
0.817228
0.533676
0.464233
0.437861
0.422894
0.414473
0.410531
0.410049
0.412497
0.417573
0.425063
0.434785
0.446565
0.460237
0.475648
0.492658
0.511141
0.530991
0.552127
0.5745
0.598065
0.622791
0.648659
0.67565
0.703734
0.732884
0.763086
0.794356
0.82663
0.859814
0.893974
0.929174
0.965485
1.00298
1.04174
1.08171
1.12266
1.1647
1.20787
1.25223
1.2978
1.34457
1.39254
1.44176
1.49227
1.54411
1.59732
1.65193
1.70795
1.76542
1.82434
1.88473
1.94659
2.00994
2.07477
2.14108
2.20883
2.27801
2.3486
2.42058
2.49397
2.56868
2.64448
2.72119
2.79862
2.87654
2.95477
3.03321
3.11163
3.18996
3.26832
3.34665
3.42487
3.50298
3.58075
3.658
3.73471
3.81082
3.8863
3.9611
4.03519
4.1085
4.18095
4.2525
4.32312
4.39278
4.46147
4.52919
4.5959
4.66156
4.7261
4.7895
4.8517
4.91269
4.97241
5.03081
5.08784
5.14342
5.19745
5.24985
5.30052
5.3494
5.39641
5.44143
5.48435
5.52499
5.56321
5.59887
5.63182
5.66188
5.68886
5.71256
5.73277
5.74928
5.76185
5.77024
5.77417
5.77338
5.76762
5.75661
5.74007
5.7177
5.68922
5.65436
5.61286
5.56448
5.50898
5.44612
5.37571
5.29763
5.21175
5.11804
5.01646
4.90707
4.78996
4.6653
4.53333
4.39432
4.24864
4.09673
3.93911
3.7764
3.60931
3.43868
3.26551
3.09092
2.91617
2.74267
2.57186
2.40535