/*--------------------------------*- C++ -*----------------------------------*\
| =========                 |                                                 |
| \\      /  F ield         | OpenFOAM: The Open Source CFD Toolbox           |
|  \\    /   O peration     | Version:  2112                                  |
|   \\  /    A nd           | Website:  www.openfoam.com                      |
|    \\/     M anipulation  |                                                 |
\*---------------------------------------------------------------------------*/
FoamFile
{
    version     2.0;
    format      ascii;
    arch        "LSB;label=32;scalar=64";
    class       surfaceScalarField;
    location    "0.12";
    object      phi;
}
// * * * * * * * * * * * * * * * * * * * * * * * * * * * * * * * * * * * * * //

dimensions      [0 3 -1 0 0 0 0];

oriented        oriented;

internalField   nonuniform List<scalar> 
24170
(
3.04171e-06
1.46691e-07
2.87809e-06
1.63624e-07
2.72834e-06
1.49746e-07
2.59086e-06
1.37484e-07
2.46907e-06
1.21793e-07
2.36597e-06
1.03098e-07
2.28011e-06
8.58626e-08
2.20892e-06
7.11853e-08
2.1525e-06
5.64171e-08
2.11145e-06
4.10542e-08
2.08506e-06
2.63931e-08
2.071e-06
1.40527e-08
2.06651e-06
4.4973e-09
2.0673e-06
-7.97018e-10
2.06941e-06
-2.10709e-09
2.06715e-06
2.26238e-09
2.04919e-06
1.79543e-08
6.2192e-08
1.987e-06
3.49421e-06
6.97312e-08
3.54752e-06
1.10316e-07
3.58154e-06
1.15724e-07
3.59772e-06
1.21305e-07
3.59754e-06
1.2197e-07
3.58348e-06
1.1716e-07
3.55823e-06
1.11114e-07
3.52347e-06
1.05947e-07
3.47959e-06
1.00291e-07
3.42705e-06
9.35931e-08
3.36675e-06
8.6698e-08
3.30023e-06
8.05714e-08
3.22916e-06
7.55695e-08
3.15595e-06
7.24118e-08
3.08302e-06
7.08202e-08
3.01229e-06
7.29937e-08
2.95346e-06
7.67873e-08
9.11616e-08
2.92449e-06
3.67888e-06
5.33674e-08
3.696e-06
9.3193e-08
3.71328e-06
9.84476e-08
3.73206e-06
1.02525e-07
3.75013e-06
1.03901e-07
3.76609e-06
1.012e-07
3.77975e-06
9.74578e-08
3.79111e-06
9.45773e-08
3.79961e-06
9.17961e-08
3.80459e-06
8.86164e-08
3.80564e-06
8.56465e-08
3.80247e-06
8.37394e-08
3.79475e-06
8.32939e-08
3.78241e-06
8.47445e-08
3.76518e-06
8.80561e-08
3.74394e-06
9.42359e-08
3.71912e-06
1.016e-07
1.12e-07
3.69828e-06
3.9355e-06
4.32591e-08
3.94552e-06
8.3173e-08
3.95285e-06
9.111e-08
3.96039e-06
9.49894e-08
3.96769e-06
9.66055e-08
3.97431e-06
9.45747e-08
3.98059e-06
9.11737e-08
3.98694e-06
8.82355e-08
3.99323e-06
8.55038e-08
3.99922e-06
8.26261e-08
4.00482e-06
8.00494e-08
4.01011e-06
7.84487e-08
4.01523e-06
7.81721e-08
4.02044e-06
7.95334e-08
4.02594e-06
8.25602e-08
4.03257e-06
8.76046e-08
4.04051e-06
9.36541e-08
9.99953e-08
4.05252e-06
4.21518e-06
3.52083e-08
4.22457e-06
7.37833e-08
4.23138e-06
8.42983e-08
4.23775e-06
8.86194e-08
4.2436e-06
9.07562e-08
4.24852e-06
8.9649e-08
4.2528e-06
8.69026e-08
4.25682e-06
8.42091e-08
4.26065e-06
8.16741e-08
4.26419e-06
7.90905e-08
4.26745e-06
7.67865e-08
4.2706e-06
7.53016e-08
4.27382e-06
7.49489e-08
4.27743e-06
7.59273e-08
4.28181e-06
7.81735e-08
4.28777e-06
8.16466e-08
4.29615e-06
8.52718e-08
8.77003e-08
4.30845e-06
4.51543e-06
2.88654e-08
4.52429e-06
6.49257e-08
4.53127e-06
7.73203e-08
4.53767e-06
8.22154e-08
4.54365e-06
8.47794e-08
4.54879e-06
8.45064e-08
4.55322e-06
8.24687e-08
4.55728e-06
8.01559e-08
4.56103e-06
7.79158e-08
4.56445e-06
7.56777e-08
4.56754e-06
7.36899e-08
4.57047e-06
7.23729e-08
4.57344e-06
7.1982e-08
4.57676e-06
7.26086e-08
4.58082e-06
7.41099e-08
4.58626e-06
7.62108e-08
4.59355e-06
7.79812e-08
7.82323e-08
4.60302e-06
4.83774e-06
2.38479e-08
4.84592e-06
5.67455e-08
4.85291e-06
7.03301e-08
4.85927e-06
7.58518e-08
4.86531e-06
7.87389e-08
4.87069e-06
7.91259e-08
4.87543e-06
7.77323e-08
4.87977e-06
7.58139e-08
4.88382e-06
7.38638e-08
4.88757e-06
7.19295e-08
4.89106e-06
7.02038e-08
4.89443e-06
6.90008e-08
4.8979e-06
6.85082e-08
4.90177e-06
6.87414e-08
4.90637e-06
6.95105e-08
4.91213e-06
7.04546e-08
4.91928e-06
7.08243e-08
6.96128e-08
4.9279e-06
5.18359e-06
1.98424e-08
5.191e-06
4.93278e-08
5.1979e-06
6.34318e-08
5.20423e-06
6.95258e-08
5.2103e-06
7.26664e-08
5.21587e-06
7.35568e-08
5.22087e-06
7.27284e-08
5.22549e-06
7.1198e-08
5.22983e-06
6.95225e-08
5.23392e-06
6.78426e-08
5.23781e-06
6.63162e-08
5.24164e-06
6.51692e-08
5.24562e-06
6.45288e-08
5.25e-06
6.43618e-08
5.25505e-06
6.44604e-08
5.26104e-06
6.44617e-08
5.26808e-06
6.37841e-08
6.17287e-08
5.27596e-06
5.55457e-06
1.66076e-08
5.56122e-06
4.26779e-08
5.56795e-06
5.67025e-08
5.57425e-06
6.32256e-08
5.58035e-06
6.65696e-08
5.58607e-06
6.78324e-08
5.59132e-06
6.74803e-08
5.5962e-06
6.63149e-08
5.60083e-06
6.48939e-08
5.60525e-06
6.34225e-08
5.60953e-06
6.20393e-08
5.6138e-06
6.09018e-08
5.61824e-06
6.00876e-08
5.62306e-06
5.95373e-08
5.62847e-06
5.90497e-08
5.63463e-06
5.83075e-08
5.64153e-06
5.68817e-08
5.43199e-08
5.64894e-06
5.95243e-06
1.39554e-08
5.95836e-06
3.6748e-08
5.96485e-06
5.02112e-08
5.97111e-06
5.69628e-08
5.97723e-06
6.04536e-08
5.98309e-06
6.19748e-08
5.98857e-06
6.19994e-08
5.99372e-06
6.11566e-08
5.99866e-06
5.99625e-08
6.00342e-06
5.86576e-08
6.00809e-06
5.73707e-08
6.01278e-06
5.62101e-08
6.01765e-06
5.52172e-08
6.02287e-06
5.4324e-08
6.02856e-06
5.33548e-08
6.03481e-06
5.20576e-08
6.04156e-06
5.01314e-08
4.73112e-08
6.04857e-06
6.37903e-06
1.1742e-08
6.38431e-06
3.14648e-08
6.39051e-06
4.40072e-08
6.39672e-06
5.07574e-08
6.40285e-06
5.43182e-08
6.40883e-06
5.5997e-08
6.41453e-06
5.6297e-08
6.41997e-06
5.57209e-08
6.42521e-06
5.472e-08
6.43033e-06
5.35443e-08
6.43538e-06
5.23171e-08
6.44047e-06
5.11148e-08
6.44574e-06
4.9956e-08
6.45128e-06
4.87769e-08
6.4572e-06
4.74372e-08
6.46351e-06
4.57522e-08
6.47011e-06
4.35224e-08
4.06131e-08
6.47681e-06
5.74246e-06
1.01208e-08
5.74648e-06
2.74376e-08
5.75148e-06
3.90072e-08
5.75667e-06
4.55749e-08
5.76186e-06
4.91197e-08
5.767e-06
5.08616e-08
5.77198e-06
5.13185e-08
5.77678e-06
5.09172e-08
5.78145e-06
5.00496e-08
5.78604e-06
4.89576e-08
5.7906e-06
4.77602e-08
5.79519e-06
4.65175e-08
5.79991e-06
4.52379e-08
5.80482e-06
4.38675e-08
5.80996e-06
4.22975e-08
5.81532e-06
4.03952e-08
5.82081e-06
3.80268e-08
3.51344e-08
5.82629e-06
6.99979e-06
8.48707e-09
7.00397e-06
2.32521e-08
7.00942e-06
3.35645e-08
7.01526e-06
3.97327e-08
7.02122e-06
4.31564e-08
7.02719e-06
4.48908e-08
7.03307e-06
4.54458e-08
7.0388e-06
4.51838e-08
7.04442e-06
4.44313e-08
7.04997e-06
4.34089e-08
7.0555e-06
4.22296e-08
7.06107e-06
4.09433e-08
7.06675e-06
3.95549e-08
7.0726e-06
3.80257e-08
7.07861e-06
3.62814e-08
7.08477e-06
3.42392e-08
7.09097e-06
3.18209e-08
2.90259e-08
7.09708e-06
8.53248e-06
6.85406e-09
8.53678e-06
1.89539e-08
8.54262e-06
2.7727e-08
8.54912e-06
3.3231e-08
8.5559e-06
3.63773e-08
8.56279e-06
3.8001e-08
8.56966e-06
3.85689e-08
8.57646e-06
3.83866e-08
8.58318e-06
3.77153e-08
8.58984e-06
3.6743e-08
8.5965e-06
3.55732e-08
8.60319e-06
3.42511e-08
8.60996e-06
3.27843e-08
8.61684e-06
3.11521e-08
8.6238e-06
2.93134e-08
8.63081e-06
2.72279e-08
8.63778e-06
2.48594e-08
2.22439e-08
8.64456e-06
1.04008e-05
5.22379e-09
1.04052e-05
1.45629e-08
1.04114e-05
2.15327e-08
1.04186e-05
2.60781e-08
1.04262e-05
2.87383e-08
1.04341e-05
3.01099e-08
1.04421e-05
3.05786e-08
1.04501e-05
3.03935e-08
1.04581e-05
2.97536e-08
1.0466e-05
2.88083e-08
1.04739e-05
2.76468e-08
1.04819e-05
2.6312e-08
1.04898e-05
2.48177e-08
1.04978e-05
2.31601e-08
1.05058e-05
2.13256e-08
1.05137e-05
1.9305e-08
1.05215e-05
1.70898e-08
1.47343e-08
1.0529e-05
1.26784e-05
3.58319e-09
1.26829e-05
1.00593e-08
1.26895e-05
1.49809e-08
1.26973e-05
1.82631e-08
1.27059e-05
2.01878e-08
1.27148e-05
2.11286e-08
1.2724e-05
2.13627e-08
1.27334e-05
2.10749e-08
1.27427e-05
2.04066e-08
1.27521e-05
1.94656e-08
1.27614e-05
1.83223e-08
1.27707e-05
1.70152e-08
1.27799e-05
1.55633e-08
1.27891e-05
1.39751e-08
1.27982e-05
1.22547e-08
1.28071e-05
1.04115e-08
1.28157e-05
8.45127e-09
6.43248e-09
1.2824e-05
1.54549e-05
1.89899e-09
1.54596e-05
5.36134e-09
1.54666e-05
7.98864e-09
1.54751e-05
9.70681e-09
1.54847e-05
1.06283e-08
1.54949e-05
1.0937e-08
1.55054e-05
1.07887e-08
1.55162e-05
1.02944e-08
1.55271e-05
9.53877e-09
1.5538e-05
8.58737e-09
1.55488e-05
7.48601e-09
1.55596e-05
6.26365e-09
1.55702e-05
4.93837e-09
1.55806e-05
3.52324e-09
1.55909e-05
2.02948e-09
1.56008e-05
4.73026e-10
1.56104e-05
-1.13785e-09
-2.74945e-09
1.56196e-05
1.88394e-05
1.00356e-10
1.88445e-05
2.73704e-10
1.88522e-05
3.11551e-10
1.88617e-05
1.69043e-10
1.88725e-05
-1.69269e-10
1.88842e-05
-6.87431e-10
1.88963e-05
-1.35418e-09
1.89087e-05
-2.14139e-09
1.89213e-05
-3.02307e-09
1.89339e-05
-3.97913e-09
1.89463e-05
-4.99421e-09
1.89587e-05
-6.05655e-09
1.89708e-05
-7.15704e-09
1.89826e-05
-8.28759e-09
1.8994e-05
-9.44029e-09
1.90051e-05
-1.06036e-08
1.90158e-05
-1.17716e-08
-1.29056e-08
1.90259e-05
2.29654e-05
-1.98146e-09
2.29713e-05
-5.64564e-09
2.29803e-05
-8.62838e-09
2.29914e-05
-1.09394e-08
2.3004e-05
-1.27429e-08
2.30175e-05
-1.4222e-08
2.30316e-05
-1.5488e-08
2.30461e-05
-1.65986e-08
2.30607e-05
-1.75948e-08
2.30752e-05
-1.85095e-08
2.30896e-05
-1.93638e-08
2.31037e-05
-2.01688e-08
2.31174e-05
-2.09312e-08
2.31308e-05
-2.16561e-08
2.31437e-05
-2.23477e-08
2.31561e-05
-2.30063e-08
2.3168e-05
-2.36355e-08
-2.42147e-08
2.31793e-05
1.68124e-05
-3.66121e-09
1.68171e-05
-1.03396e-08
1.6824e-05
-1.55582e-08
1.68324e-05
-1.93384e-08
1.68417e-05
-2.20738e-08
1.68517e-05
-2.4146e-08
1.68619e-05
-2.57577e-08
1.68724e-05
-2.70186e-08
1.68828e-05
-2.80218e-08
1.68931e-05
-2.88415e-08
1.69033e-05
-2.9522e-08
1.69132e-05
-3.00872e-08
1.69228e-05
-3.05542e-08
1.69321e-05
-3.0939e-08
1.6941e-05
-3.12568e-08
1.69495e-05
-3.15196e-08
1.69576e-05
-3.17399e-08
-3.19117e-08
1.69653e-05
1.46363e-05
-5.39599e-09
1.46411e-05
-1.51004e-08
1.46478e-05
-2.23196e-08
1.46557e-05
-2.72104e-08
1.46642e-05
-3.058e-08
1.46731e-05
-3.30409e-08
1.46822e-05
-3.48476e-08
1.46913e-05
-3.6149e-08
1.47004e-05
-3.70925e-08
1.47093e-05
-3.77862e-08
1.47181e-05
-3.82833e-08
1.47266e-05
-3.86094e-08
1.47348e-05
-3.87861e-08
1.47427e-05
-3.88388e-08
1.47503e-05
-3.8794e-08
1.47574e-05
-3.86758e-08
1.47642e-05
-3.85078e-08
-3.82969e-08
1.47706e-05
1.27421e-05
-7.34313e-09
1.27472e-05
-2.02495e-08
1.27541e-05
-2.9184e-08
1.27617e-05
-3.47698e-08
1.27696e-05
-3.84905e-08
1.27777e-05
-4.11486e-08
1.27858e-05
-4.29849e-08
1.27939e-05
-4.42018e-08
1.28018e-05
-4.50186e-08
1.28096e-05
-4.5566e-08
1.28172e-05
-4.58859e-08
1.28245e-05
-4.59898e-08
1.28317e-05
-4.58961e-08
1.28385e-05
-4.56359e-08
1.28449e-05
-4.52468e-08
1.2851e-05
-4.47661e-08
1.28567e-05
-4.42316e-08
-4.36686e-08
1.28621e-05
1.10933e-05
-9.69602e-09
1.10991e-05
-2.60756e-08
1.11062e-05
-3.62556e-08
1.11135e-05
-4.20515e-08
1.11209e-05
-4.59047e-08
1.11284e-05
-4.86242e-08
1.11357e-05
-5.03558e-08
1.11429e-05
-5.13918e-08
1.11499e-05
-5.20398e-08
1.11568e-05
-5.24379e-08
1.11635e-05
-5.25963e-08
1.117e-05
-5.24968e-08
1.11763e-05
-5.2146e-08
1.11822e-05
-5.15788e-08
1.11878e-05
-5.08439e-08
1.1193e-05
-4.9992e-08
1.11979e-05
-4.90697e-08
-4.81062e-08
1.12023e-05
9.65823e-06
-1.27118e-08
9.66499e-06
-3.28334e-08
9.67228e-06
-4.35429e-08
9.67926e-06
-4.90343e-08
9.68617e-06
-5.28203e-08
9.69298e-06
-5.5433e-08
9.69954e-06
-5.69162e-08
9.70586e-06
-5.77061e-08
9.71201e-06
-5.8188e-08
9.71805e-06
-5.84799e-08
9.72399e-06
-5.85349e-08
9.72978e-06
-5.82871e-08
9.73535e-06
-5.77242e-08
9.74066e-06
-5.68839e-08
9.74564e-06
-5.58284e-08
9.75028e-06
-5.46264e-08
9.75457e-06
-5.33606e-08
-5.21149e-08
9.75858e-06
8.40939e-06
-1.67506e-08
8.41713e-06
-4.05731e-08
8.42449e-06
-5.09013e-08
8.43127e-06
-5.58125e-08
8.43789e-06
-5.94472e-08
8.44421e-06
-6.17513e-08
8.4501e-06
-6.28009e-08
8.45564e-06
-6.32461e-08
8.46099e-06
-6.35366e-08
8.46625e-06
-6.37466e-08
8.47146e-06
-6.37394e-08
8.47655e-06
-6.33764e-08
8.48144e-06
-6.26207e-08
8.48607e-06
-6.15133e-08
8.49037e-06
-6.01279e-08
8.49429e-06
-5.8546e-08
8.49777e-06
-5.68396e-08
-5.50055e-08
8.50066e-06
7.32297e-06
-2.24409e-08
7.33156e-06
-4.91587e-08
7.33846e-06
-5.78012e-08
7.34471e-06
-6.2061e-08
7.35083e-06
-6.55694e-08
7.35654e-06
-6.74597e-08
7.36175e-06
-6.80083e-08
7.36659e-06
-6.80851e-08
7.37126e-06
-6.82102e-08
7.37593e-06
-6.8419e-08
7.38064e-06
-6.84452e-08
7.38531e-06
-6.80508e-08
7.38987e-06
-6.71779e-08
7.39423e-06
-6.58734e-08
7.39833e-06
-6.42297e-08
7.40213e-06
-6.23486e-08
7.40569e-06
-6.03972e-08
-5.84763e-08
7.40916e-06
6.37801e-06
-3.03824e-08
6.38777e-06
-5.89215e-08
6.39446e-06
-6.44872e-08
6.40051e-06
-6.8117e-08
6.40638e-06
-7.14408e-08
6.41184e-06
-7.29145e-08
6.41694e-06
-7.31115e-08
6.42185e-06
-7.29926e-08
6.4268e-06
-7.31586e-08
6.43199e-06
-7.36139e-08
6.43746e-06
-7.39097e-08
6.4431e-06
-7.36895e-08
6.44878e-06
-7.28616e-08
6.45438e-06
-7.14745e-08
6.45979e-06
-6.96345e-08
6.46492e-06
-6.74857e-08
6.46966e-06
-6.51339e-08
-6.24977e-08
6.47368e-06
5.55675e-06
-4.16717e-08
5.5703e-06
-7.24646e-08
5.58209e-06
-7.62777e-08
5.59498e-06
-8.10126e-08
5.60832e-06
-8.47827e-08
5.62154e-06
-8.61249e-08
5.63445e-06
-8.60284e-08
5.64705e-06
-8.55913e-08
5.65953e-06
-8.56372e-08
5.67204e-06
-8.61218e-08
5.68445e-06
-8.63252e-08
5.69651e-06
-8.57438e-08
5.70789e-06
-8.42461e-08
5.7183e-06
-8.18878e-08
5.72748e-06
-7.88137e-08
5.73528e-06
-7.5279e-08
5.7417e-06
-7.1554e-08
-6.80399e-08
5.74724e-06
4.88951e-06
-1.03571e-07
4.94075e-06
-1.23712e-07
4.9822e-06
-1.17718e-07
5.01501e-06
-1.13827e-07
5.03891e-06
-1.08686e-07
5.05471e-06
-1.01924e-07
5.06327e-06
-9.45832e-08
5.06549e-06
-8.78159e-08
5.06248e-06
-8.26213e-08
5.05486e-06
-7.85009e-08
5.04273e-06
-7.41966e-08
5.0261e-06
-6.91145e-08
5.00501e-06
-6.31594e-08
4.97958e-06
-5.64536e-08
4.94998e-06
-4.92151e-08
4.91652e-06
-4.18166e-08
4.87964e-06
-3.46812e-08
-2.806e-08
4.83966e-06
4.0991e-06
3.97539e-06
3.85767e-06
3.74385e-06
3.63516e-06
3.53324e-06
3.43865e-06
3.35084e-06
3.26822e-06
3.18972e-06
3.11552e-06
3.0464e-06
2.98324e-06
2.92679e-06
2.87758e-06
2.83576e-06
2.80108e-06
2.77302e-06
-8.65441e-09
8.65441e-09
-1.90408e-08
1.03864e-08
-3.0332e-08
1.12912e-08
-4.1969e-08
1.16369e-08
-5.35734e-08
1.16045e-08
-6.50629e-08
1.14895e-08
-7.65783e-08
1.15154e-08
-8.83155e-08
1.17372e-08
-1.00425e-07
1.21096e-08
-1.1299e-07
1.25645e-08
-1.26036e-07
1.30466e-08
-1.39558e-07
1.3522e-08
-1.53534e-07
1.39762e-08
-1.67945e-07
1.44106e-08
-1.82784e-07
1.48386e-08
-1.9807e-07
1.52863e-08
-2.13865e-07
1.57956e-08
-2.30212e-07
1.63464e-08
-2.47088e-07
1.68763e-08
-2.64479e-07
1.73904e-08
-2.82399e-07
1.79206e-08
-3.00879e-07
1.848e-08
-3.19949e-07
1.90698e-08
-3.39638e-07
1.96894e-08
-3.59977e-07
2.03385e-08
-3.80995e-07
2.1018e-08
-4.02725e-07
2.173e-08
-4.25202e-07
2.24769e-08
-4.48461e-07
2.32594e-08
-4.72534e-07
2.40731e-08
-4.97442e-07
2.49082e-08
-5.23194e-07
2.57518e-08
-5.49786e-07
2.65917e-08
-5.77204e-07
2.74182e-08
-6.05431e-07
2.82264e-08
-6.34446e-07
2.90155e-08
-6.64232e-07
2.9786e-08
-6.9477e-07
3.05375e-08
-7.26038e-07
3.12681e-08
-7.58013e-07
3.19752e-08
-7.90669e-07
3.26557e-08
-8.23975e-07
3.3306e-08
-8.57897e-07
3.39221e-08
-8.92397e-07
3.45001e-08
-9.27433e-07
3.5036e-08
-9.6296e-07
3.55268e-08
-9.9893e-07
3.59703e-08
-1.03529e-06
3.63645e-08
-1.072e-06
3.67071e-08
-1.109e-06
3.69958e-08
-1.14623e-06
3.72291e-08
-1.18363e-06
3.74057e-08
-1.22116e-06
3.75234e-08
-1.25873e-06
3.75778e-08
-1.2963e-06
3.75631e-08
-1.33377e-06
3.74734e-08
-1.37108e-06
3.73053e-08
-1.40814e-06
3.70658e-08
-1.44493e-06
3.6784e-08
-1.48142e-06
3.64927e-08
-1.5176e-06
3.61864e-08
-1.55344e-06
3.58395e-08
-1.58888e-06
3.54411e-08
-1.62387e-06
3.49897e-08
-1.65836e-06
3.44856e-08
-1.69229e-06
3.39291e-08
-1.72561e-06
3.33213e-08
-1.75827e-06
3.26633e-08
-1.79023e-06
3.19571e-08
-1.82144e-06
3.12046e-08
-1.85184e-06
3.04085e-08
-1.88141e-06
2.95709e-08
-1.91011e-06
2.86937e-08
-1.93789e-06
2.77786e-08
-1.96471e-06
2.68265e-08
-1.99055e-06
2.5838e-08
-2.01537e-06
2.48139e-08
-2.03912e-06
2.37564e-08
-2.06179e-06
2.26699e-08
-2.08335e-06
2.15589e-08
-2.10378e-06
2.04261e-08
-2.12305e-06
1.92738e-08
-2.14116e-06
1.81048e-08
-2.15808e-06
1.69224e-08
-2.17381e-06
1.57304e-08
-2.18834e-06
1.45329e-08
-2.20167e-06
1.33331e-08
-2.21381e-06
1.21331e-08
-2.22474e-06
1.09346e-08
-2.23448e-06
9.74182e-09
-2.24305e-06
8.5663e-09
-2.25048e-06
7.43176e-09
-2.25683e-06
6.34617e-09
-2.26211e-06
5.28425e-09
-2.26634e-06
4.22513e-09
-2.2695e-06
3.16389e-09
-2.27159e-06
2.09132e-09
-2.27259e-06
9.97177e-10
-2.27252e-06
-7.36299e-11
-2.27139e-06
-1.12177e-09
-2.26935e-06
-2.04332e-09
-2.26642e-06
-2.92624e-09
-2.26265e-06
-3.77969e-09
-2.25804e-06
-4.60882e-09
-2.25262e-06
-5.41547e-09
-2.24642e-06
-6.20081e-09
-2.23946e-06
-6.96485e-09
-2.23175e-06
-7.70596e-09
-2.22333e-06
-8.42146e-09
-2.21422e-06
-9.10863e-09
-2.20445e-06
-9.76534e-09
-2.19406e-06
-1.03904e-08
-2.18308e-06
-1.09836e-08
-2.17153e-06
-1.15459e-08
-2.15945e-06
-1.20799e-08
-2.14686e-06
-1.25906e-08
-2.13378e-06
-1.30858e-08
-2.1202e-06
-1.35776e-08
-2.10612e-06
-1.40787e-08
-2.09153e-06
-1.45886e-08
-2.07647e-06
-1.50603e-08
-2.06107e-06
-1.5398e-08
-2.04545e-06
-1.56206e-08
-2.02965e-06
-1.58065e-08
-2.01369e-06
-1.5957e-08
-1.99762e-06
-1.60693e-08
-1.98148e-06
-1.61443e-08
-1.96529e-06
-1.61873e-08
-1.94909e-06
-1.62033e-08
-1.93289e-06
-1.6195e-08
-1.91673e-06
-1.61641e-08
-1.90061e-06
-1.61129e-08
-1.88457e-06
-1.60435e-08
-1.86861e-06
-1.59568e-08
-1.85276e-06
-1.58544e-08
-1.83702e-06
-1.57413e-08
-1.82139e-06
-1.56256e-08
-1.80588e-06
-1.55156e-08
-1.79046e-06
-1.54206e-08
-1.7751e-06
-1.53528e-08
-1.75978e-06
-1.53245e-08
-1.74443e-06
-1.53456e-08
-1.72901e-06
-1.54256e-08
-1.71343e-06
-1.55778e-08
-1.69761e-06
-1.58206e-08
-1.68144e-06
-1.61738e-08
-1.66478e-06
-1.66571e-08
-1.64749e-06
-1.72928e-08
-1.62938e-06
-1.81042e-08
-1.61027e-06
-1.91118e-08
-1.58994e-06
-2.03302e-08
-1.56817e-06
-2.17745e-08
-1.5447e-06
-2.34657e-08
-1.51927e-06
-2.54278e-08
-1.49158e-06
-2.769e-08
-1.4613e-06
-3.02851e-08
-1.42805e-06
-3.32457e-08
-1.39145e-06
-3.6598e-08
-1.35109e-06
-4.03587e-08
-1.30655e-06
-4.45427e-08
-1.25739e-06
-4.91656e-08
-1.20315e-06
-5.42365e-08
-1.14339e-06
-5.97635e-08
-1.07762e-06
-6.57692e-08
-1.00531e-06
-7.23022e-08
-9.25908e-07
-7.94061e-08
-8.388e-07
-8.71087e-08
-7.43389e-07
-9.54107e-08
-6.39382e-07
-1.04007e-07
-5.27715e-07
-1.11667e-07
-4.11872e-07
-1.15843e-07
-2.96198e-07
-1.15674e-07
-1.75302e-07
-1.20896e-07
-4.39306e-08
-1.31372e-07
9.40739e-08
-1.38004e-07
2.35339e-07
-1.41265e-07
3.8216e-07
-1.4682e-07
5.3612e-07
-1.5396e-07
6.87304e-07
-1.51184e-07
-1.18303e-07
8.05607e-07
-9.84176e-09
1.84962e-08
-2.03083e-08
2.0853e-08
-3.15341e-08
2.2517e-08
-4.34788e-08
2.35816e-08
-5.60585e-08
2.41841e-08
-6.91162e-08
2.45472e-08
-8.24825e-08
2.48816e-08
-9.6048e-08
2.53028e-08
-1.09779e-07
2.58402e-08
-1.23695e-07
2.64804e-08
-1.37846e-07
2.71977e-08
-1.52293e-07
2.79693e-08
-1.67098e-07
2.87811e-08
-1.82316e-07
2.96287e-08
-1.97994e-07
3.05167e-08
-2.14164e-07
3.14566e-08
-2.3083e-07
3.24611e-08
-2.48012e-07
3.35284e-08
-2.65776e-07
3.46406e-08
-2.84179e-07
3.57929e-08
-3.03252e-07
3.69935e-08
-3.23021e-07
3.82495e-08
-3.43515e-07
3.9564e-08
-3.64764e-07
4.09376e-08
-3.86795e-07
4.23696e-08
-4.09636e-07
4.38589e-08
-4.33309e-07
4.54038e-08
-4.57834e-07
4.70013e-08
-4.83221e-07
4.86462e-08
-5.09477e-07
5.03292e-08
-5.36606e-07
5.20377e-08
-5.64611e-07
5.37566e-08
-5.9349e-07
5.54706e-08
-6.23239e-07
5.71668e-08
-6.53847e-07
5.8835e-08
-6.853e-07
6.04683e-08
-7.17575e-07
6.20613e-08
-7.50646e-07
6.36089e-08
-7.84484e-07
6.51056e-08
-8.19054e-07
6.65451e-08
-8.54319e-07
6.79208e-08
-8.90238e-07
6.92255e-08
-9.26768e-07
7.04519e-08
-9.63861e-07
7.15929e-08
-1.00147e-06
7.26415e-08
-1.03953e-06
7.35916e-08
-1.078e-06
7.4438e-08
-1.11681e-06
7.51757e-08
-1.1559e-06
7.58005e-08
-1.19522e-06
7.63081e-08
-1.23468e-06
7.66952e-08
-1.27423e-06
7.69585e-08
-1.31381e-06
7.70948e-08
-1.35333e-06
7.71009e-08
-1.39274e-06
7.69744e-08
-1.43198e-06
7.67153e-08
-1.471e-06
7.6328e-08
-1.50976e-06
7.58245e-08
-1.5482e-06
7.52243e-08
-1.58625e-06
7.45426e-08
-1.62384e-06
7.37767e-08
-1.66092e-06
7.29141e-08
-1.69743e-06
7.19478e-08
-1.73331e-06
7.08755e-08
-1.76852e-06
6.96976e-08
-1.80301e-06
6.84159e-08
-1.83672e-06
6.70327e-08
-1.86961e-06
6.55515e-08
-1.90163e-06
6.39759e-08
-1.93273e-06
6.23104e-08
-1.96288e-06
6.05593e-08
-1.99204e-06
5.87268e-08
-2.02016e-06
5.68172e-08
-2.04722e-06
5.48341e-08
-2.07317e-06
5.27813e-08
-2.098e-06
5.06623e-08
-2.12167e-06
4.84817e-08
-2.14415e-06
4.62447e-08
-2.16544e-06
4.39579e-08
-2.18551e-06
4.16278e-08
-2.20435e-06
3.92607e-08
-2.22194e-06
3.6863e-08
-2.23827e-06
3.44416e-08
-2.25335e-06
3.2004e-08
-2.26718e-06
2.95583e-08
-2.27976e-06
2.71128e-08
-2.2911e-06
2.46755e-08
-2.30123e-06
2.22543e-08
-2.31015e-06
1.98577e-08
-2.3179e-06
1.74954e-08
-2.32452e-06
1.51793e-08
-2.33e-06
1.29212e-08
-2.33438e-06
1.07213e-08
-2.33766e-06
8.56603e-09
-2.33988e-06
6.44448e-09
-2.34107e-06
4.35445e-09
-2.34128e-06
2.29703e-09
-2.34056e-06
2.83317e-10
-2.33898e-06
-1.65695e-09
-2.33656e-06
-3.54527e-09
-2.33323e-06
-5.37346e-09
-2.329e-06
-7.15124e-09
-2.3239e-06
-8.88317e-09
-2.31794e-06
-1.05713e-08
-2.31114e-06
-1.22158e-08
-2.30352e-06
-1.3816e-08
-2.29512e-06
-1.53694e-08
-2.28595e-06
-1.68726e-08
-2.27605e-06
-1.83212e-08
-2.26545e-06
-1.97108e-08
-2.25417e-06
-2.10383e-08
-2.24226e-06
-2.23016e-08
-2.22975e-06
-2.35007e-08
-2.21665e-06
-2.46373e-08
-2.20302e-06
-2.57154e-08
-2.18887e-06
-2.67414e-08
-2.17423e-06
-2.7723e-08
-2.15914e-06
-2.86678e-08
-2.14364e-06
-2.95782e-08
-2.12779e-06
-3.04402e-08
-2.11164e-06
-3.12073e-08
-2.09522e-06
-3.18222e-08
-2.07854e-06
-3.23022e-08
-2.06165e-06
-3.26978e-08
-2.04458e-06
-3.30203e-08
-2.02738e-06
-3.32741e-08
-2.01006e-06
-3.34644e-08
-1.99265e-06
-3.35984e-08
-1.97517e-06
-3.3683e-08
-1.95764e-06
-3.37236e-08
-1.94008e-06
-3.3725e-08
-1.9225e-06
-3.36924e-08
-1.90491e-06
-3.36312e-08
-1.88732e-06
-3.35465e-08
-1.86973e-06
-3.34451e-08
-1.85213e-06
-3.33376e-08
-1.83452e-06
-3.3238e-08
-1.81687e-06
-3.31619e-08
-1.79917e-06
-3.31272e-08
-1.78137e-06
-3.31546e-08
-1.76342e-06
-3.32659e-08
-1.74529e-06
-3.34821e-08
-1.72689e-06
-3.38253e-08
-1.70814e-06
-3.43216e-08
-1.68896e-06
-3.50025e-08
-1.66923e-06
-3.59019e-08
-1.64884e-06
-3.70558e-08
-1.62762e-06
-3.85042e-08
-1.60544e-06
-4.02891e-08
-1.5821e-06
-4.24489e-08
-1.55742e-06
-4.50173e-08
-1.53116e-06
-4.80297e-08
-1.5031e-06
-5.15285e-08
-1.47296e-06
-5.5562e-08
-1.44046e-06
-6.01897e-08
-1.40527e-06
-6.54736e-08
-1.36705e-06
-7.14659e-08
-1.32545e-06
-7.82059e-08
-1.28009e-06
-8.57173e-08
-1.23061e-06
-9.40193e-08
-1.17664e-06
-1.03134e-07
-1.11781e-06
-1.13073e-07
-1.05374e-06
-1.23835e-07
-9.84067e-07
-1.35437e-07
-9.0844e-07
-1.4793e-07
-8.26511e-07
-1.61335e-07
-7.38028e-07
-1.75592e-07
-6.42932e-07
-1.90507e-07
-5.41537e-07
-2.05401e-07
-4.34682e-07
-2.18522e-07
-3.22528e-07
-2.27996e-07
-2.0195e-07
-2.36253e-07
-7.16502e-08
-2.51196e-07
6.58195e-08
-2.68841e-07
2.10311e-07
-2.82496e-07
3.61897e-07
-2.92852e-07
5.20173e-07
-3.05096e-07
6.84251e-07
-3.18039e-07
8.49596e-07
-3.16528e-07
-2.77485e-07
1.00878e-06
-1.08334e-08
2.93296e-08
-2.22238e-08
3.22433e-08
-3.4072e-08
3.43653e-08
-4.6511e-08
3.60206e-08
-5.95193e-08
3.71924e-08
-7.29989e-08
3.80268e-08
-8.68426e-08
3.87253e-08
-1.00973e-07
3.94329e-08
-1.15351e-07
4.02185e-08
-1.29974e-07
4.11033e-08
-1.44863e-07
4.20872e-08
-1.60058e-07
4.31637e-08
-1.75604e-07
4.43271e-08
-1.91551e-07
4.55756e-08
-2.07945e-07
4.69115e-08
-2.24828e-07
4.83395e-08
-2.42231e-07
4.98639e-08
-2.60187e-07
5.14841e-08
-2.78741e-07
5.31952e-08
-2.97943e-07
5.49948e-08
-3.17834e-07
5.68838e-08
-3.38447e-07
5.88634e-08
-3.59816e-07
6.09331e-08
-3.81969e-07
6.30904e-08
-4.04931e-07
6.53315e-08
-4.28723e-07
6.7651e-08
-4.53362e-07
7.0042e-08
-4.78856e-07
7.24957e-08
-5.05211e-07
7.50011e-08
-5.32426e-07
7.75444e-08
-5.60498e-07
8.01094e-08
-5.8942e-07
8.26791e-08
-6.19186e-07
8.52366e-08
-6.49786e-07
8.77663e-08
-6.81205e-07
9.02544e-08
-7.13426e-07
9.26894e-08
-7.46426e-07
9.50606e-08
-7.80175e-07
9.73579e-08
-8.1464e-07
9.95712e-08
-8.49786e-07
1.0169e-07
-8.85569e-07
1.03704e-07
-9.21946e-07
1.05603e-07
-9.58869e-07
1.07375e-07
-9.96287e-07
1.0901e-07
-1.03414e-06
1.105e-07
-1.07239e-06
1.11834e-07
-1.11095e-06
1.13004e-07
-1.14978e-06
1.14005e-07
-1.18881e-06
1.14829e-07
-1.22797e-06
1.15472e-07
-1.26721e-06
1.15928e-07
-1.30644e-06
1.16195e-07
-1.34562e-06
1.1627e-07
-1.38467e-06
1.16152e-07
-1.42354e-06
1.15842e-07
-1.46217e-06
1.15344e-07
-1.5005e-06
1.14664e-07
-1.53849e-06
1.13814e-07
-1.57607e-06
1.12804e-07
-1.61317e-06
1.11644e-07
-1.64973e-06
1.10332e-07
-1.68568e-06
1.08864e-07
-1.72097e-06
1.07238e-07
-1.75555e-06
1.05455e-07
-1.78937e-06
1.03516e-07
-1.82238e-06
1.01426e-07
-1.85453e-06
9.91893e-08
-1.88579e-06
9.68111e-08
-1.91612e-06
9.42979e-08
-1.94546e-06
9.16563e-08
-1.9738e-06
8.88932e-08
-2.00108e-06
8.60153e-08
-2.0273e-06
8.3029e-08
-2.0524e-06
7.9941e-08
-2.07638e-06
7.67576e-08
-2.0992e-06
7.34856e-08
-2.12085e-06
7.01324e-08
-2.14131e-06
6.6706e-08
-2.16057e-06
6.32153e-08
-2.17861e-06
5.96693e-08
-2.19543e-06
5.60775e-08
-2.21102e-06
5.24497e-08
-2.22537e-06
4.87966e-08
-2.2385e-06
4.51295e-08
-2.2504e-06
4.14604e-08
-2.26109e-06
3.78016e-08
-2.27058e-06
3.41653e-08
-2.27889e-06
3.05636e-08
-2.28604e-06
2.70084e-08
-2.29205e-06
2.35111e-08
-2.29696e-06
2.00821e-08
-2.30076e-06
1.67286e-08
-2.30349e-06
1.34502e-08
-2.30517e-06
1.02403e-08
-2.30582e-06
7.09474e-09
-2.30548e-06
4.01467e-09
-2.30418e-06
9.99769e-10
-2.30197e-06
-1.9293e-09
-2.29885e-06
-4.77818e-09
-2.29483e-06
-7.56057e-09
-2.28993e-06
-1.02793e-08
-2.28414e-06
-1.2935e-08
-2.2775e-06
-1.5528e-08
-2.27001e-06
-1.80583e-08
-2.2617e-06
-2.05241e-08
-2.2526e-06
-2.29227e-08
-2.24271e-06
-2.52496e-08
-2.23209e-06
-2.74992e-08
-2.22074e-06
-2.96654e-08
-2.20871e-06
-3.17424e-08
-2.19603e-06
-3.37255e-08
-2.18271e-06
-3.56121e-08
-2.16881e-06
-3.74014e-08
-2.15436e-06
-3.9095e-08
-2.13937e-06
-4.06969e-08
-2.1239e-06
-4.22123e-08
-2.10798e-06
-4.36466e-08
-2.09165e-06
-4.50031e-08
-2.07494e-06
-4.62785e-08
-2.05793e-06
-4.74574e-08
-2.04063e-06
-4.85076e-08
-2.02305e-06
-4.94e-08
-2.0052e-06
-5.01475e-08
-1.98712e-06
-5.07812e-08
-1.96883e-06
-5.13145e-08
-1.95034e-06
-5.17565e-08
-1.93169e-06
-5.21156e-08
-1.91289e-06
-5.24006e-08
-1.89395e-06
-5.262e-08
-1.8749e-06
-5.27815e-08
-1.85573e-06
-5.28928e-08
-1.83646e-06
-5.29622e-08
-1.81709e-06
-5.29986e-08
-1.79763e-06
-5.30115e-08
-1.77806e-06
-5.30125e-08
-1.75838e-06
-5.30168e-08
-1.73857e-06
-5.30429e-08
-1.71862e-06
-5.31119e-08
-1.6985e-06
-5.32476e-08
-1.67818e-06
-5.34777e-08
-1.65761e-06
-5.38321e-08
-1.63675e-06
-5.4342e-08
-1.61554e-06
-5.50398e-08
-1.5939e-06
-5.59627e-08
-1.57175e-06
-5.71527e-08
-1.549e-06
-5.86556e-08
-1.52553e-06
-6.05213e-08
-1.50123e-06
-6.28056e-08
-1.47595e-06
-6.55695e-08
-1.44953e-06
-6.88706e-08
-1.42178e-06
-7.27627e-08
-1.39251e-06
-7.73027e-08
-1.36148e-06
-8.25545e-08
-1.32845e-06
-8.85902e-08
-1.29314e-06
-9.55e-08
-1.25524e-06
-1.03377e-07
-1.21441e-06
-1.12297e-07
-1.1703e-06
-1.22313e-07
-1.12256e-06
-1.33457e-07
-1.07083e-06
-1.45754e-07
-1.01472e-06
-1.59238e-07
-9.53869e-07
-1.73928e-07
-8.87879e-07
-1.89824e-07
-8.16378e-07
-2.06939e-07
-7.38987e-07
-2.25321e-07
-6.5535e-07
-2.44971e-07
-5.65192e-07
-2.6575e-07
-4.68389e-07
-2.8731e-07
-3.64936e-07
-3.08855e-07
-2.54626e-07
-3.28832e-07
-1.36357e-07
-3.46265e-07
-8.53171e-09
-3.64078e-07
1.27291e-07
-3.87018e-07
2.69635e-07
-4.11185e-07
4.1906e-07
-4.31921e-07
5.75995e-07
-4.49787e-07
7.39257e-07
-4.68359e-07
9.06471e-07
-4.85253e-07
1.07681e-06
-4.86871e-07
-4.50116e-07
1.24945e-06
-1.13887e-08
4.07182e-08
-2.33339e-08
4.41885e-08
-3.57267e-08
4.67581e-08
-4.86688e-08
4.89628e-08
-6.21647e-08
5.06882e-08
-7.61449e-08
5.2007e-08
-9.05182e-08
5.30986e-08
-1.05213e-07
5.41277e-08
-1.2019e-07
5.51954e-08
-1.35439e-07
5.63519e-08
-1.5097e-07
5.7619e-08
-1.66813e-07
5.90059e-08
-1.83003e-07
6.0517e-08
-1.99583e-07
6.21557e-08
-2.16597e-07
6.39259e-08
-2.34089e-07
6.58312e-08
-2.52099e-07
6.78739e-08
-2.70669e-07
7.0054e-08
-2.89843e-07
7.2369e-08
-3.09664e-07
7.4816e-08
-3.30172e-07
7.7392e-08
-3.51402e-07
8.00932e-08
-3.73383e-07
8.2914e-08
-3.9614e-07
8.58473e-08
-4.19692e-07
8.88841e-08
-4.44055e-07
9.20136e-08
-4.69236e-07
9.52235e-08
-4.9524e-07
9.84994e-08
-5.22064e-07
1.01825e-07
-5.49704e-07
1.05184e-07
-5.7815e-07
1.08556e-07
-6.07393e-07
1.11922e-07
-6.37419e-07
1.15263e-07
-6.68214e-07
1.18561e-07
-6.99758e-07
1.21799e-07
-7.3203e-07
1.24961e-07
-7.65001e-07
1.28032e-07
-7.98639e-07
1.30996e-07
-8.32908e-07
1.3384e-07
-8.67765e-07
1.36548e-07
-9.03167e-07
1.39106e-07
-9.39065e-07
1.415e-07
-9.75407e-07
1.43717e-07
-1.01214e-06
1.45742e-07
-1.0492e-06
1.47563e-07
-1.08654e-06
1.4917e-07
-1.12409e-06
1.50551e-07
-1.16178e-06
1.517e-07
-1.19956e-06
1.52607e-07
-1.23735e-06
1.53268e-07
-1.2751e-06
1.53678e-07
-1.31275e-06
1.53835e-07
-1.35021e-06
1.53738e-07
-1.38745e-06
1.53388e-07
-1.42439e-06
1.52787e-07
-1.46099e-06
1.51942e-07
-1.49719e-06
1.50859e-07
-1.53292e-06
1.49548e-07
-1.56813e-06
1.48017e-07
-1.60276e-06
1.46273e-07
-1.63675e-06
1.44318e-07
-1.67004e-06
1.42154e-07
-1.70258e-06
1.39783e-07
-1.73434e-06
1.37209e-07
-1.76526e-06
1.34437e-07
-1.7953e-06
1.31474e-07
-1.82444e-06
1.28326e-07
-1.85263e-06
1.25003e-07
-1.87985e-06
1.21512e-07
-1.90606e-06
1.17864e-07
-1.93123e-06
1.14068e-07
-1.95535e-06
1.10133e-07
-1.97839e-06
1.06069e-07
-2.00033e-06
1.01884e-07
-2.02116e-06
9.7587e-08
-2.04086e-06
9.31883e-08
-2.05943e-06
8.86972e-08
-2.07684e-06
8.41236e-08
-2.09311e-06
7.94786e-08
-2.10821e-06
7.47734e-08
-2.12215e-06
7.00197e-08
-2.13493e-06
6.523e-08
-2.14656e-06
6.04178e-08
-2.15702e-06
5.55972e-08
-2.16635e-06
5.0783e-08
-2.17453e-06
4.59907e-08
-2.1816e-06
4.12354e-08
-2.18757e-06
3.65321e-08
-2.19246e-06
3.18941e-08
-2.19628e-06
2.73336e-08
-2.19906e-06
2.28599e-08
-2.20081e-06
1.84791e-08
-2.20155e-06
1.41915e-08
-2.20131e-06
9.99458e-09
-2.2001e-06
5.88693e-09
-2.19795e-06
1.87019e-09
-2.1949e-06
-2.05229e-09
-2.19096e-06
-5.87523e-09
-2.18613e-06
-9.60536e-09
-2.18043e-06
-1.3254e-08
-2.17389e-06
-1.68248e-08
-2.16651e-06
-2.03177e-08
-2.1583e-06
-2.37321e-08
-2.14929e-06
-2.70662e-08
-2.1395e-06
-3.03172e-08
-2.12894e-06
-3.34802e-08