/*--------------------------------*- C++ -*----------------------------------*\
| =========                 |                                                 |
| \\      /  F ield         | OpenFOAM: The Open Source CFD Toolbox           |
|  \\    /   O peration     | Version:  2112                                  |
|   \\  /    A nd           | Website:  www.openfoam.com                      |
|    \\/     M anipulation  |                                                 |
\*---------------------------------------------------------------------------*/
FoamFile
{
    version     2.0;
    format      ascii;
    arch        "LSB;label=32;scalar=64";
    class       volScalarField;
    location    "0.42";
    object      ddt0(kU);
}
// * * * * * * * * * * * * * * * * * * * * * * * * * * * * * * * * * * * * * //

dimensions      [0 2 -3 0 0 0 0];

internalField   nonuniform List<scalar> 
12225
(
-0.000533674
-0.00535815
-0.0219961
-0.059972
-0.209009
-0.457834
-0.846244
-1.41083
-2.18078
-3.17824
-4.42014
-5.92057
-7.69172
-9.7506
-12.1773
-14.5542
-14.8121
-14.5002
0.00327814
0.0148856
0.0381859
0.0788472
0.140389
0.229717
0.354894
0.524682
0.748214
1.03546
1.39676
1.84306
2.38775
3.05313
3.72831
3.90144
4.55507
5.80508
-0.000425125
0.00107156
0.00468675
0.0107745
0.00982561
0.0107479
0.0166932
0.0318007
0.0602261
0.105276
0.168691
0.250224
0.347872
0.452056
0.332898
0.230915
0.137123
0.0459543
-6.42468e-05
-0.000444964
-0.000718318
-0.000540854
0.00112793
0.00348034
0.00611041
0.00819935
0.00857547
0.00586153
-0.00147094
-0.0151471
-0.0360873
-0.0632401
-0.0825168
-0.105846
-0.136941
-0.172242
3.54336e-07
-0.000674718
-0.00186429
-0.00361952
-0.00612762
-0.00952084
-0.0137639
-0.0187449
-0.0243878
-0.0307446
-0.0380647
-0.0413824
-0.0450436
-0.058118
-0.0720363
-0.0891274
-0.108224
-0.120571
5.37315e-05
-0.000454859
-0.00136153
-0.00274419
-0.0049306
-0.00829563
-0.0131613
-0.0198187
-0.0285601
-0.0396988
-0.0536523
-0.0707969
-0.0941799
-0.118863
-0.134306
-0.154831
-0.176027
-0.190158
9.18014e-05
-0.0002958
-0.00108319
-0.00236862
-0.00448526
-0.00782693
-0.0127374
-0.0195337
-0.0285542
-0.040182
-0.0547265
-0.0730312
-0.0956639
-0.123168
-0.142754
-0.163979
-0.183884
-0.198027
0.000110462
-0.000189799
-0.000872956
-0.00201775
-0.00390246
-0.00688929
-0.0113265
-0.0175455
-0.0258846
-0.0366292
-0.0503706
-0.0675285
-0.0887415
-0.114353
-0.133573
-0.154231
-0.174252
-0.190485
0.000114217
-0.000116391
-0.000696336
-0.0017017
-0.00338918
-0.00611532
-0.0102373
-0.0160866
-0.0239375
-0.0342411
-0.0473332
-0.0636413
-0.0836674
-0.107791
-0.135732
-0.155401
-0.174781
-0.191961
0.000106479
-7.21685e-05
-0.000564483
-0.00145433
-0.00297889
-0.00546966
-0.00926894
-0.0146653
-0.0220355
-0.0316773
-0.0439398
-0.059207
-0.0778741
-0.100314
-0.126549
-0.152887
-0.171095
-0.190525
8.93664e-05
-5.483e-05
-0.000474062
-0.00126072
-0.00263723
-0.00490894
-0.00838352
-0.0134058
-0.0202604
-0.0292529
-0.0407109
-0.0549812
-0.0724204
-0.093367
-0.118079
-0.146417
-0.174013
-0.195404
6.7411e-05
-5.90875e-05
-0.000431625
-0.00114356
-0.00240153
-0.00447782
-0.0076982
-0.0123465
-0.0187048
-0.0270577
-0.0377012
-0.0509436
-0.067115
-0.0865365
-0.109534
-0.136395
-0.167243
-0.201768
3.70771e-05
-7.65727e-05
-0.000398997
-0.00103728
-0.00218433
-0.00410737
-0.00707949
-0.0113716
-0.0172458
-0.0249638
-0.0347977
-0.0470367
-0.0619947
-0.0800113
-0.101453
-0.126729
-0.15628
-0.190721
1.0868e-06
-0.000108158
-0.000397655
-0.000980204
-0.00204201
-0.0038116
-0.00653412
-0.0104486
-0.0157851
-0.0227747
-0.031663
-0.0427192
-0.0562426
-0.0725667
-0.0920731
-0.115209
-0.142516
-0.174672
-4.05919e-05
-0.000152763
-0.000427661
-0.000982851
-0.00197182
-0.00358912
-0.00604718
-0.00955313
-0.0143034
-0.0204927
-0.0283274
-0.0380373
-0.0498868
-0.0641828
-0.0812859
-0.101614
-0.125663
-0.154005
-9.24891e-05
-0.000226164
-0.000487384
-0.000994444
-0.00189303
-0.00334594
-0.00552171
-0.00858357
-0.0126871
-0.0179873
-0.0246504
-0.0328648
-0.0428505
-0.0548648
-0.0692076
-0.0862184
-0.106291
-0.129799
-0.000149317
-0.000305026
-0.000564586
-0.00104743
-0.00187735
-0.00317663
-0.00506643
-0.00766356
-0.0110807
-0.0154323
-0.0208433
-0.0274574
-0.0354432
-0.0449979
-0.0563483
-0.0697433
-0.0854659
-0.103739
-0.000201747
-0.000384378
-0.000653654
-0.00111996
-0.00188215
-0.00302528
-0.00462536
-0.00675271
-0.00947606
-0.0128685
-0.0170142
-0.022015
-0.0279931
-0.0350927
-0.043478
-0.053325
-0.0648351
-0.0781346
-0.00023872
-0.000438135
-0.000703686
-0.00113408
-0.00180172
-0.00275579
-0.00403356
-0.00566857
-0.00769648
-0.0101599
-0.013113
-0.0166256
-0.0207851
-0.0256971
-0.0314842
-0.0382779
-0.0462349
-0.0554453
-0.000249779
-0.00044782
-0.000691057
-0.00106347
-0.00161633
-0.00237557
-0.00335608
-0.00457157
-0.00604003
-0.00778677
-0.00984712
-0.0122694
-0.0151176
-0.0184717
-0.0224289
-0.027097
-0.0326101
-0.0390563
-0.000243038
-0.000426026
-0.000634534
-0.000940951
-0.00138447
-0.00198044
-0.00273606
-0.00366026
-0.00476671
-0.0060735
-0.0076043
-0.0093916
-0.0114804
-0.0139311
-0.0168219
-0.0202459
-0.0243246
-0.0291521
-0.000228027
-0.000385643
-0.0005479
-0.000779833
-0.00111279
-0.00155522
-0.00211141
-0.00279133
-0.00360911
-0.00457837
-0.00571245
-0.00702857
-0.00855337
-0.0103282
-0.0124151
-0.0148969
-0.0178898
-0.0214996
-0.000207846
-0.000327881
-0.000428556
-0.000574248
-0.000794341
-0.00109707
-0.00149138
-0.00199423
-0.002623
-0.00338772
-0.00429093
-0.00533258
-0.00651758
-0.00786486
-0.00941734
-0.0112461
-0.0134619
-0.0161827
-0.000183292
-0.000254617
-0.000283427
-0.000330339
-0.00041318
-0.000536895
-0.000721492
-0.00100047
-0.00140297
-0.0019429
-0.00261887
-0.00341879
-0.00432771
-0.00534012
-0.00647493
-0.00778721
-0.00937994
-0.0113892
-0.000150893
-0.000154844
-0.000119541
-0.000124809
-0.000181469
-0.000290755
-0.000483001
-0.000805578
-0.00129375
-0.0019553
-0.00276774
-0.00368325
-0.00464389
-0.00560708
-0.00657412
-0.00761161
-0.00886063
-0.0105209
-0.000110741
1.04184e-05
0.000247816
0.000499011
0.000727983
0.000897206
0.00093455
0.000754746
0.000293961
-0.000478536
-0.00157181
-0.00300512
-0.00484462
-0.00721087
-0.0102354
-0.0139633
-0.0183143
-0.022927
-8.3452e-05
-6.09193e-05
-0.000114212
-0.000313523
-0.000837077
-0.00198485
-0.00381411
-0.00641942
-0.00956293
-0.0126221
-0.0147377
-0.0150616
-0.0129674
-0.00815976
-0.000658152
0.00929313
0.0213682
0.0352961
0.000217833
-9.36904e-05
-0.00131023
-0.00365018
-0.00725741
-0.0109331
-0.00665042
-0.0032636
-0.0030133
-0.00781557
-0.0191524
-0.0377881
-0.0633709
-0.0942087
-0.127304
-0.158711
-0.184055
-0.199004
-0.001633
-0.00750994
-0.0191168
-0.0387285
-0.0680508
-0.107579
-0.156734
-0.214534
-0.279918
-0.351118
-0.425222
-0.498196
-0.565129
-0.621155
-0.661849
-0.683656
-0.684609
-0.662433
2.56015e-05
0.00192605
0.0100645
0.0311609
0.0959988
0.19942
0.352466
0.564967
0.843986
1.19236
1.60699
2.0775
2.58541
3.10414
3.60061
4.03721
4.37936
4.58995
-43.3918
-39.8277
-33.0502
-27.4705
-22.3119
-18.9015
-15.6126
-12.9216
-9.1279
0.272025
22.5614
63.5073
121.159
186.235
248.58
300.985
340.709
355.63
361.257
360.304
354.717
345.991
335.321
323.072
308.776
292.558
276.412
255.068
235.521
217.541
200.741
184.791
169.36
154.093
138.509
122.243
104.765
85.4204
63.3856
37.2606
7.56943
-57.8675
-102.405
-135.879
-152.406
-156.19
-175.455
-202.376
-244.723
-322
-436.701
-477.731
-192.786
274.303
746.72
916.806
776.434
550.618
359.917
224.232
132.948
68.5741
-5.87618
-101.525
-172.658
-226.507
-230.641
-249.65
-237.995
-27.2265
202.004
261.255
159.211
92.825
69.215
99.2266
91.8592
-39.3857
-276.506
-565.299
-800.832
-645.576
-555.836
-446.345
-321.774
-194.667
-69.2718
54.8013
112.497
155.036
190.879
220.634
242.242
258.519
254.98
250.924
245.815
239.176
230.729
220.309
207.863
193.315
176.658
157.506
134.879
106.605
67.994
8.90037
-86.5188
-152.393
-201.183
-257.542
-317.249
-381.544
-450.229
-521.473
-591.434
-652.824
-679.331
-572.048
-453.566
-337.842
-211.768
-61.6331
121.824
337.628
572.379
801.316
992.686
1115.54
1148.71
1089.07
954.542
778.181
596.008
435.328
309.293
218.636
157.193
117.169
91.9454
75.7854
61.1922
47.1311
33.4577
20.5269
9.03502
-0.241844
-6.73568
-10.2486
-10.9751
-9.42523
-6.31339
-2.43259
1.49821
4.96308
7.66728
9.31742
9.21769
6.08486
-1.16824
-11.8217
-22.8898
-30.7662
-36.2649
-43.1735
-55.0201
-73.0989
-88.2381
-92.5148
-35.8286
87.3159
18.7943
-578.254
-909.312
-636.641
-300.678
35.3648
188.932
301.771
-54.7898
-30.1325
-22.478
-12.4878
5.2575
35.7559
73.6351
103.915
118.271
121.816
124.086
130.441
139.84
147.831
150.58
146.554
136.159
121.081
103.316
84.0918
64.3046
44.7799
26.3062
9.5494
-4.79639
-15.9346
-26.07
-27.6408
-27.9685
-27.1984
-25.4307
-22.8403
-19.6663
-15.6915
-13.004
-10.306
-7.74326
-5.43059
-3.37327
-1.56193
-0.0712557
1.0489
0.726682
-2.07576
-2.64292
-3.37223
-4.10938
-4.62832
-5.41084
-12.6126
-49.1232
-149.724
-292.349
-168.927
18.4625
60.1017
26.1792
79.5224
236.714
381.9
406.93
313.797
173.016
29.8511
-89.3257
-142.495
-147.52
-111.698
-52.8571
-42.7358
53.8557
106.377
128.102
49.4805
-113.729
-339.933
-507.85
-467.088
-246.506
-104.25
-26.4714
64.526
127.674
173.572
200.98
210.244
202.955
182.548
151.241
115.796
78.7704
42.9584
14.2549
-11.3123
-12.7349
-13.1183
-12.5495
-11.0372
-8.57368
-5.08938
0.259525
3.17312
6.85159
11.4329
17.0361
23.6878
31.3628
40.032
46.6892
48.222
52.2023
55.4143
57.7319
58.8583
58.075
54.7324
47.6201
33.2802
-2.87605
-134.941
-223.151
-236.762
-212.417
-170.047
-118.674
-60.7334
3.85897
74.268
146.764
214.44
268.252
301.31
311.188
300.392
274.909
241.763
206.836
173.917
144.868
120.281
100.003
83.4757
70.0417
59.1818
50.5309
43.8081
38.7157
34.8592
31.6706
28.5185
25.033
21.3368
17.856
14.8597
12.3314
10.1077
8.05392
6.15513
4.47928
3.12612
2.5019
3.88092
9.5613
20.0804
33.5343
46.8198
49.7561
34.1261
3.05412
-32.8786
-104.33
-314.797
-525.381
-282.139
21.252
151.099
193.274
141.492
47.9905
-52.0882
-66.6845
-24.6163
-9.2894
22.346
41.0303
76.1395
105.923
112.692
102.291
88.1362
77.7055
71.631
67.3968
62.3152
54.9894
45.3921
34.3008
22.7458
11.5978
1.48048
-7.22747
-14.3495
-19.9068
-24.1343
-27.2431
-29.2409
-31.3475
-32.69
-32.9688
-31.965
-29.3945
-24.9599
-21.4569
-17.2668
-12.9249
-8.193
-3.10678
2.01181
6.74249
11.6567
16.3912
21.2492
26.2251
24.9038
26.0975
25.6853
23.1433
18.2667
11.9099
3.0323
-13.1824
-45.2612
-88.9233
-118.224
-70.8163
19.1059
19.6871
-40.8065
-73.1433
35.8198
241.702
360.184
323.464
191.797
35.03
-87.8168
-123.89
-100.23
-3.30277
75.4784
46.0555
-0.762273
-119.829
-355.002
-517.017
-390.929
-142.168
26.5378
115.916
157.362
180.337
190.505
184.133
165.089
137.055
104.967
73.591
46.4459
25.1927
10.0783
0.150423
-6.00457
-9.44692
-12.0906
-14.2406
-15.9261
-17.1145
-17.6421
-17.2645
-15.9989
-13.8911
-12.5022
-10.1043
-6.82455
-2.06119
4.28104
12.2049
21.7051
29.3761
33.709
39.6313
45.4764
51.2165
56.8344
62.1665
66.7311
70.7222
70.8619
68.0297
62.4757
51.1077
19.9628
-9.0829
-29.4135
-39.8053
-40.9184
-33.477
-18.0209
4.46824
31.9048
61.0048
88.0032
109.589
123.689
129.833
128.957
122.815
113.334
102.199
90.6907
79.7286
70.0032
62.0857
55.7054
50.5571
46.5425
43.3641
40.6835
38.2432
35.9274
33.7245
31.6433
29.6929
27.8734
26.1572
24.4797
22.7654
21.0038
19.3296
18.045
17.5337
18.1808
20.4303
24.6879
29.7766
34.6203
37.0773
20.0119
-21.1093
-77.2313
-205.955
-437.875
-341.298
107.561
174.721
141.16
67.6003
-1.90872
-38.7993
-49.4896
-69.5405
-15.0167
4.32102
19.043
45.7381
79.1661
93.9528
87.5189
70.1099
52.6356
39.5704
30.5092
23.5368
17.1091
10.575
3.95098
-2.49307
-8.52665
-14.0581
-19.0758
-23.5329
-27.2864
-30.1836
-32.2511
-34.3881
-39.4813
-43.4251
-46.7277
-49.1797
-50.5788
-50.6047
-48.8508
-44.9848
-39.2823
-31.7921
-26.3284
-19.3434
-10.7872
-5.46425
1.19867
7.07658
14.3222
24.0521
30.3459
38.9694
46.8867
52.4093
53.3561
49.2308
46.851
35.5594
21.3553
5.35416
-17.8504
-59.1122
-91.3116
-37.2818
-10.7446
-44.6914
-67.3491
17.5776
173.012
255.416
206.147
89.4136
-27.7556
-92.8263
-110.152
-26.9209
118.23
78.3911
-117.032
-429.398
-655.344
-313.155
95.0784
167.604
194.841
200.215
191.204
175.938
153.135
124.47
94.5681
67.607
45.8651
29.6422
18.0833
9.98107
4.28292
0.205589
-3.17001
-7.05335
-10.0564
-12.8285
-15.4776
-18.0906
-20.6699
-23.0943
-25.0849
-26.2134
-25.8794
-22.4518
-20.4544
-16.4676
-10.4112
-2.41732
7.33445
14.1886
19.3706
24.6236
29.7736
35.0882
40.8932
48.5516
54.647
59.3617
62.4929
63.8487
63.2953
60.7829
56.1981
47.5488
35.7508
23.6277
13.3084
6.37407
3.76444
5.75579
11.9805
21.4849
32.8681
44.5017
54.8226
62.6394
67.3361
68.8946
67.7526
64.5973
60.1792
55.195
50.2233
45.6741
41.7538
38.513
35.9498
33.6504
31.3594
28.933
26.3823
23.8396
21.4775
19.4386
17.7965
16.5479
15.6293
14.9483
14.4312
14.1137
13.9069
13.6413
13.4933
13.6503
14.246
14.7388
12.885
3.99864
-18.5893
-64.4508
-138.476
-289.458
-417.564
-40.3557
187.722
146.844
76.6136
20.3872
-10.0477
-24.646
-33.8476
-62.1612
-0.915374
10.9114
14.4672
41.7429
65.9465
71.7669
61.8985
45.4858
30.0136
18.1621
9.52573
2.88827
-2.70746
-7.77353
-12.5305
-17.0674
-21.4263
-25.6416
-29.7453
-33.7097
-37.3865
-40.5846
-43.1412
-44.2763
-50.1854
-54.3601
-58.5016
-62.5922
-66.4935
-69.9437
-72.5428
-73.7889
-73.1401
-70.0538
-63.8617
-53.0681
-31.4702
-25.8643
-17.2082
-11.4535
-6.10257
1.31903
12.2888
27.273
46.3745
67.7191
88.5267
92.901
82.4862
65.5645
45.4718
28.331
18.7566
3.81248
-43.5846
-97.2238
-65.9409
-27.2207
-27.3929
-25.1131
34.1924
112.365
126.915
58.8003
-20.632
-82.6938
-117.155
-82.8254
87.0921
28.5389
-283.339
-608.328
-339.526
177.519
253.087
232.409
207.847
183.876
158.85
132.038
103.956
78.0939
57.0075
41.1358
29.6166
21.2302
14.8729
9.70762
5.22091
1.34849
-1.62712
-5.76707
-8.10246
-10.3276
-12.6554
-15.2832
-18.337
-21.8211
-25.5744
-29.2382
-32.2438
-33.8715
-33.3571
-30.0818
-23.8698
-15.0022
-4.10103
3.99415
9.94282
14.793
18.8833
22.6898
26.6616
31.1124
36.1103
41.4327
46.5925
50.9671
53.9477
55.0959
54.2556
51.5357
46.6427
40.1749
33.0268
26.1731
20.5255
16.7915
15.3447
16.159
18.8343
22.7023
26.973
30.8948
33.8908
35.641
36.0903
35.3947
33.8371
31.7456
29.4257
27.1136
24.9496
22.9753
21.1459
19.3602
17.5305
15.6269
13.6862
11.7914
10.0407
8.52256
7.29816
6.39333
5.79837
5.474
5.35955
5.37941
5.43592
5.44299
5.3473
5.12361
4.63804
3.11666
-1.56379
-13.8708
-42.6548
-98.6556
-196.422
-330.244
-295.157
131.727
172.755
102.429
48.766
18.7015
0.584653
-12.3367
-22.7489
-56.4047
10.9874
10.2961
11.7341
33.1387
49.2298
51.1083
42.2775
29.4936
17.7099
8.66849
2.14158
-2.66198
-6.43283
-9.60692
-12.4147
-14.964
-17.3161
-19.5602
-21.8446
-24.3487
-27.2194
-30.4884
-34.0677
-37.8877
-40.5809
-43.8453
-47.756
-52.4591
-58.0287
-64.4191
-71.3666
-78.2946
-84.2739
-88.1324
-88.7808
-85.6023
-78.5678
-67.6201
-52.0241
-31.6158
-26.0076
-23.826
-15.7586
-2.21586
21.5273
55.5867
93.2498
105.178
106.495
97.7017
79.3639
57.1731
38.9868
27.0454
5.87581
-52.0723
-96.2327
-75.8177
-27.4687
-4.98278
3.41366
22.8506
30.7406
-12.8643
-90.5859
-114.865
-147.249
-162.003
-18.3551
-59.4537
-342.358
-297.178
158.621
294.174
257.227
211.174
176.745
148.028
120.529
94.3203
71.4994
53.5239
40.1697
30.3847
23.0049
17.0837
12.0026
7.44077
3.24381
-0.647826
-3.76145
-6.08573
-7.35811
-8.5706
-10.0251
-12.0184
-14.7759
-18.383
-22.7257
-27.444
-31.918
-35.2924
-36.5028
-34.5915
-29.0634
-20.0458
-8.63348
-0.136928
6.10061
10.7237
14.0193
16.4636
18.596
20.9369
23.891
27.6858
32.2747
37.2822
42.0512
45.8147
47.9339
48.1083
46.4995
42.8292
38.1044
32.8675
27.6807
23.0495
19.3688
16.8718
15.5918
15.3641
15.8757
16.747
17.6184
18.218
18.3957
18.1204
17.451
16.4946
15.3676
14.1667
12.9531
11.7485
10.544
9.31838
8.06035
6.78195
5.51855
4.31941
3.23593
2.31249
1.58086
1.05739
0.742201
0.619009
0.654385
0.797268
0.981171
1.13155
1.1681
0.98399
0.296849
-1.85125
-7.97461
-23.6839
-59.0983
-127.517
-241.044
-328.753
-144.092
186.286
138.518
75.5098
46.1255
26.9388
10.7207
-3.23723
-14.695
-50.0945
19.0904
9.79401
8.71402
24.0338
34.5221
35.2382
29.0951
20.7209
13.354
8.0886
4.67354
2.44371
0.825315
-0.515172
-1.71949
-2.83817
-3.90498
-4.97956
-6.16902
-7.62934
-9.52622
-11.9591
-14.9321
-18.4154
-19.612
-21.2819
-23.5987
-26.8351
-31.3663
-37.6372
-46.0376
-56.6483
-68.8697
-81.0854
-90.7722
-95.4283
-93.9694
-87.5096
-79.1399
-71.1657
-57.6108
-44.6298
-41.4357
-34.5347
-15.2437
21.8359
64.8331
92.5241
112.497
120.192
110.381
87.1693
63.2699
46.6929
33.1058
1.87681
-68.3199
-97.6143
-69.6425
-16.5565
5.9328
-3.58211
-29.4229
-86.01
-178.338
-193.073
-213.524
-287.345
-196.344
-42.9461
-80.1846
145.579
300.136
278.065
217.604
174.08
142.402
114.781
89.5727
68.0521
51.0669
38.3226
28.8495
21.5696
15.603
10.393
5.70159
1.52001
-2.07511
-5.10996
-7.83076
-8.07663
-7.99071
-7.89672
-8.19501
-9.2961
-11.5293
-15.0512
-19.7868
-25.3785
-31.1849
-36.2964
-39.2652
-38.9744
-34.3024
-24.6855
-12.1182
-2.82628
4.94371
10.8133
14.8791
17.4958
19.1124
20.1984
21.2346
22.6978
24.9801
28.243
32.2812
36.5144
40.1565
42.4899
43.1349
41.8017
38.8946
34.9833
30.6013
26.1967
22.1118
18.5852
15.7537
13.6496
12.2068
11.2843
10.7049
10.2969
9.92663
9.51261
9.02311
8.46087
7.84443
7.193
6.51823
5.82296
5.10502
4.36324
3.60263
2.83655
2.08572
1.37532
0.731791
0.179821
-0.260274
-0.574814
-0.758722
-0.817614
-0.770024
-0.648568
-0.498907
-0.378869
-0.365986
-0.599019
-1.45007
-4.02634
-11.1928
-29.5131
-71.1206
-150.993
-266.066
-299.049
-25.0258
189.872
107.324
66.5505
50.6927
33.9018
17.1835
2.14259
-9.73021
-43.3914
24.6048
9.76274
5.96355
16.4592
23.4169
24.3892
21.5031
17.7047
14.8497
13.2866
12.5094
11.9076
11.1255
10.0807
8.83192
7.45775
6.01235
4.53503
3.05709
1.58835
0.116623
-1.3799
-2.96481
-4.75245
-5.07461
-5.3703
-5.66694
-6.11872
-7.12396
-9.43813
-14.2108
-22.7957
-36.1332
-53.6619
-72.4753
-88.0138
-96.0583
-94.5194
-85.7157
-78.8111
-76.9906
-72.4408
-67.5856
-61.7036
-51.653
-18.816
17.2787
57.8235
98.4485
129.405
137.24
118.17
88.5231
66.8122
54.1072
36.1435
-9.96079
-68.6961
-88.7735
-51.6514
-7.15871
-8.36466
-54.7166
-141.814
-266.935
-313.313
-312.626
-476.427
-128.776
203.951
271.285
309.417
296.824
230.962
176.913
141.083
112.635
87.4111
65.7593
48.3129
34.9118
24.8018
17.0289
10.7546
5.41716
0.75354
-3.27537
-6.5863
-9.04766
-10.5529
-11.3627
-10.0829
-8.42872
-6.77881
-5.66624
-5.67539
-7.28326
-10.7079
-15.8586
-22.3084
-29.3745
-36.1924
-41.0017
-42.9903
-40.0476
-27.9658
-17.5236
-6.7432
2.91867
10.7511
16.6418
20.7923
23.4995
25.0585
25.766
25.9788
26.1568
26.8133
28.3408
30.7965
33.804
36.6619
38.6257
39.0936
37.8909
35.3105
31.8246
27.9091
23.9473
20.2064
16.8545
13.9829
11.6215
9.74852
8.30176
7.19587
6.34141
5.66084
5.09651
4.61006
4.17624
3.77618
3.39334
3.01318
2.62471
2.22209
1.80486
1.37745
0.948393
0.529819
0.136876
-0.213474
-0.504515
-0.722446
-0.859262
-0.915675
-0.903744
-0.848138
-0.785457
-0.764757
-0.859897
-1.22574
-2.29568
-5.2967
-13.3586
-33.8158
-80.2929
-169.246
-283.85
-256.785
48.5387
182.916
85.8186
66.9305
54.7142
37.8053
20.4587
4.77482
-7.48108
-36.3947
28.3477
11.305
4.37117
11.096
15.9554
17.9073
18.3748
18.832
19.7753
20.7405
21.0535
20.4094
18.9127
16.8483
14.4803
11.9804
9.45848
7.01609
4.75496
2.75448
1.06181
-0.327884
-1.44956
-2.33352
-3.02028
-3.27726
-2.86538
-1.58084
0.669794
3.57731
5.98752
5.40301
-1.75
-17.8437
-40.945
-65.5021
-85.5513
-94.6505
-88.1139
-79.2684
-75.9653
-76.6288
-82.3526
-85.4628
-81.9964
-67.4267
-37.6228
8.47111
66.044
122.475
156.315
150.222
116.329
86.1251
71.5332
59.8063
30.4717
-28.0344
-71.4501
-70.6989
-30.9573
-15.9037
-63.8784
-178.694
-341.843
-413.205
-478.161
-544.404
33.3486
529.171
409.186
328.533
253.423
187.346
144.222
113.565
87.4828
64.7838
45.9426
31.0609
19.7271
11.2004
4.66861
-0.5363
-4.82568
-8.36316
-11.1479
-13.1068
-14.1561
-14.1356
-12.8686
-10.5364
-7.56369
-4.34313
-1.59374
-0.219071
-1.01825
-4.37138
-10.1073
-17.5932
-25.963
-34.278
-41.1483
-45.9748
-40.8881
-33.8753
-23.6621
-12.1544
-1.12746
8.41835
16.1977
22.3242
27.0178
30.4407
32.6557
33.682
33.6273
32.8285
31.8765
31.4302
31.8985
33.201
34.7804
35.9348
35.9415
34.5892
32.0811
28.8113
25.187
21.5316
18.0621
14.9084
12.1409
9.78851
7.84803
6.28956
5.06468
4.11681
3.39091
2.83902
2.42077
2.10135
1.84967
1.63844
1.44546
1.25456
1.0555
0.843296
0.617666
0.382856
0.147452
-0.0764651
-0.275158
-0.43596
-0.550493
-0.618
-0.648154
-0.662229
-0.692385
-0.782962
-1.0062
-1.52908
-2.8313
-6.2348
-15.0617
-37.2011
-87.5562
-183.483
-290.893
-213.708
91.9238
164.592
78.3262
70.0512
56.9614
39.6614
22.1413
6.1501
-6.82041
-29.1587
30.3267
12.546
3.85848
7.94934
11.6303
14.8427
18.4236
22.4148
25.9646
27.9773
27.9467
26.1492
23.2333
19.7865
16.1837
12.625
9.23321
6.11397
3.34768
0.949441
-1.13984
-3.03275
-4.77324
-6.25477
-7.99479
-9.30014
-9.86436
-9.31736
-7.04757
-2.37303
5.19449
14.4451
19.9492
13.4068
-7.26701
-35.216
-63.8712
-85.4273
-87.2905
-80.016
-70.6778
-74.3853
-84.0969
-95.4517
-104.249
-104.535
-87.6965
-46.1214
20.2965
99.4686
164.293
181.528
148.901
106.785
85.4254
76.1903
56.7302
10.687
-41.0292
-65.8848
-47.021
-26.9323
-69.1173
-202.124
-389.928
-449.772
-541.785
-562.851
247.39
722.409
414.233
293.579
208.395
153.393
117.981
90.1678
65.9258
45.1667
28.2929
15.3802
6.05067
-0.450558
-4.99623
-8.30625
-10.8334
-12.7935
-14.2319
-15.0619
-15.1051
-14.2964
-12.5266
-10.3224
-6.80773
-2.31117
2.29085
5.66251
6.38971
3.5247
-2.69131
-11.3505
-21.2336
-30.6217
-40.0336
-43.1992
-43.2622
-38.4226
-29.457
-18.2858
-6.89549
3.44272
12.2884
19.7386
26.086
31.5764
36.2597
39.9233
42.158
42.6066
41.3114
38.8992
36.3759
34.6165
33.8739
34.0272
34.1101
33.4152
31.7088
29.1161
25.945
22.5243
19.1149
15.8901
12.953
10.3607
8.13977
6.2919
4.79771
3.62207
2.72178
2.0525
1.57245
1.2428
1.02689
0.890423
0.802781
0.738547
0.678328
0.608849
0.522725
0.418186
0.2986
0.171475
0.0467001
-0.065976
-0.160045
-0.235547
-0.301813
-0.378448
-0.494557
-0.690934
-1.03918
-1.71681
-3.23815
-6.99219
-16.4212
-39.7486
-92.8603
-193.179
-289.575
-177.476
111.595
144.312
81.3459
73.2866
58.1302
40.6259
23.1663
7.01808
-6.78428
-21.3318
30.7004
13.8852
4.31693
6.7071
9.6843
14.0812
20.3342
27.0857
32.2025
34.2159
33.0868
29.7954
25.4709
20.8609
16.4043
12.2961
8.63631
5.46602
2.75679
0.37671
-1.88764
-4.25644
-6.9155
-9.85786
-12.6402
-15.0167
-16.7317
-17.6663
-17.186
-14.6405
-8.31827
4.19828
21.0047
29.7269
18.6303
-6.74383
-37.8099
-67.1756
-81.1453
-76.2303
-69.6957
-70.6611
-80.4431
-95.8976
-113.379
-127.285
-126.844
-98.0792
-32.6268
62.4703
158.607
208.622
186.891
132.268
97.7698
86.5018
72.7799
37.8087
-13.0261
-50.2679
-50.8579
-35.9195
-74.185
-216.844
-408.663
-451.088
-584.204
-495.239
457.554
757.87
376.519
247.105
171.599
127.079
96.0453
69.9128
47.0004
27.7598
12.8661
2.53439
-3.77857
-7.17428
-8.81973
-9.62044
-10.1669
-10.7857
-11.5717
-12.3991
-12.8317
-12.1381
-12.6057
-11.6641
-8.58515
-3.51109
2.75816
8.63656
12.0371
10.7657
4.94274
-4.60113
-16.0388
-26.3028
-35.1263
-41.3325
-43.6383
-41.1456
-34.119
-24.1991
-13.4757
-3.47185
5.18712
12.5675
19.1054
25.3501
31.7332
38.3086
44.5308
49.2865
51.3767
50.2939
46.6936
42.0868
37.8049
35.3802
33.943
32.7764
31.2506
29.0867
26.3302
23.1988
19.9384
16.7464
13.7551
11.0452
8.66296
6.6292
4.94372
3.58829
2.53211
1.7385
1.16965
0.788472
0.558232
0.442396
0.40569
0.416104
0.446832
0.477486
0.494484
0.490773
0.464995
0.42015
0.361764
0.295576
0.224783
0.147079
0.0522368
-0.0785493
-0.271856
-0.565285
-1.03009
-1.85271
-3.57118
-7.61168
-17.4566
-41.4359
-96.094
-198.215
-283.019
-151.558
113.941
127.386
84.699
81.241
59.2437
41.4662
24.0611
7.73102
-6.87573
-15.6403
32.0606
14.2307
5.49351
6.84211
9.22572
14.4148
22.8794
31.9658
38.2113
39.8347
37.4035
32.7606
27.2065
21.6924
16.7432
12.4812
8.96923
6.15885
3.86858
1.76628
-0.613611
-3.65551
-7.45217
-12.305
-16.0346
-19.1725
-21.4373
-23.2042
-23.4322
-22.3707
-19.1404
-9.88537
8.97777
28.8268
30.6469
12.7041
-15.4479
-45.6885
-66.7889
-71.8526
-68.0582
-67.566
-75.804
-92.114
-114.319
-138.359
-153.747
-142.37
-86.8199
14.9777
137.961
226.799
228.618
165.638
112.103
92.7298
81.0043
52.9708
6.31387
-35.0667
-47.8566
-40.9298
-79.2378
-225.238
-401.435
-433.64
-600.251
-364.199
598.201
699.953
327.169
205.061
143.197
105.92
77.2713
52.1461
30.2552
12.7526
0.725319
-5.80155
-8.0125
-7.59788
-6.05892
-4.49332
-3.62303
-3.81762
-5.0978
-7.20949
-9.63578
-10.9387
-13.9907
-14.7031
-12.7783
-8.10615
-1.12761
6.73607
13.1694
14.6506
10.5873
0.79423
-10.3528
-21.6103
-31.3261
-38.5689
-42.5095
-42.1503
-37.2646
-29.1108
-19.7726
-10.9968
-3.6483
2.20462
7.04349
11.7182
17.2677
24.5961
33.9407
44.3122
53.4315
58.6776
58.6778
54.1899
47.6057
41.5833
37.1164
34.0121
31.5861
29.2149
26.5785
23.6447
20.5395
17.4261
14.4419
11.6826
9.20943
7.05705
5.23858
3.74829
2.5658
1.66199
1.00438
0.559706
0.29389
0.17132
0.155233
0.209694
0.30234
0.406754
0.503736
0.581321
0.633749
0.659783
0.660655
0.637822
0.590562
0.513511
0.394802
0.215873
-0.0476608
-0.430385
-1.00307
-1.95877
-3.84881
-8.10868
-18.1803
-42.2671
-97.2158
-198.755
-274.092
-136.005
104.749
115.066
89.5683
84.5747
64.7565
43.0883
25.314
8.38822
-7.0933
-16.0255
32.2174
14.8067
6.2542
7.40952
9.31308
14.2123
23.6311
34.7524
42.9579
45.4703
42.9489
37.8029
30.6855
23.2102
17.8103
13.4148
10.0557
7.68509
6.11601
4.91528
3.18957
-0.559129
-8.05164
-14.3932
-18.3397
-21.7474
-24.2742
-26.9452
-27.3061
-26.0803
-23.4724
-16.7984
-1.19073
19.8212
30.3631
21.8684
-0.293139
-28.2419
-52.3538
-63.6851
-64.2337
-64.4146
-71.5238
-87.1405
-110.987
-141.298
-169.675
-176.755
-137.682
-38.9888
102.592
230.877
269.488
208.303
132.322
97.7748
83.7304
59.5629
17.0388
-24.3801
-42.9684
-42.688
-83.7317
-228.369
-375.128
-411.121
-585.421
-207.154
653.025
599.961
287.943
174.187
121.304
88.4597
61.0758
36.5061
15.696
0.704479
-7.28795
-9.07615
-6.80225
-2.71009
1.45939
4.49132
5.67652
4.79099
2.06498
-1.96169
-6.72464
-11.3748
-15.587
-17.6457
-17.0264
-13.4144
-6.83707
1.66104
9.74496
14.3827
12.0093
4.6609
-6.3732
-18.0925
-28.1757
-35.7873
-40.6284
-41.8683
-38.8931
-32.5416
-24.8063
-17.608
-12.078
-8.53244
-6.64356
-5.53181
-3.79806
0.353496
8.65952
21.816
38.2579
53.8816
63.8722
65.5949
60.558
52.5584
44.7255
38.4655
33.8331
30.255
27.1249
24.079
21.0068
17.9468
14.9881
12.2161
9.69623
7.47158
5.56477
3.97931
2.70283
1.71243
0.980321
0.477146
0.172307
0.0327284
0.0223512
0.103559
0.240213
0.400966
0.561547
0.705356
0.82251
0.90789
0.958812
0.972716
0.945009
0.867117
0.725252
0.500796
0.171313
-0.294839
-0.967395
-2.04284
-4.07548
-8.48607
-18.6079
-42.297
-96.2845
-195.222
-264.69
-129.262
88.4008
105.774
93.6841
87.718
68.8671
47.427
28.4087
9.00695
-7.78726
-53.1423
22.7024
14.2143
4.80032
6.15587
9.0589
13.8971
23.3074
35.5321
45.6703
50.0304
48.4773
42.5311
34.1338
26.6948
20.6182
15.7489
12.0704
9.49758
7.82973
6.67144
5.37129
2.85427
-3.80707
-12.0989
-17.44
-21.571
-25.0608
-27.6718
-28.5774
-27.3994
-24.2606
-17.8954
-4.60742
14.6343
27.5611
24.0824
6.68998
-17.783
-41.0448
-54.7209
-58.5518
-60.4484
-67.3738
-81.957
-105.532
-138.794
-176.507
-200.694
-182.02
-95.6038
54.0894
216.43
301.86
258.805
161.985
104.978
83.4686
60.3589
21.5887
-17.8221
-37.6938
-41.9641
-87.7438
-227.463
-337.865
-391.203
-539.769
-59.897
638.227
506.794
251.346
150.282
105.256
74.6426
47.8969
23.6169
3.78149
-8.1553
-11.3483
-8.2319
-1.8807
5.07571
10.7785
14.0547
14.4547
12.104
7.59275
1.71101
-4.76458
-11.7772
-16.6418
-19.5144
-19.9043
-17.3471
-11.5414
-3.35395
4.49502
10.252
11.1429
5.72035
-4.58341
-16.2686
-26.2434
-33.6133
-38.6601
-40.8499
-39.2703
-34.3507
-27.932
-22.0303
-18.005
-16.4501
-17.3231
-20.0326
-23.4054
-25.5215
-23.619
-14.6194
3.12951
27.3806
51.3244
66.2691
70.6249
65.6746
56.3844
46.8348
38.9777
33.0655
28.5661
24.8569
21.5252
18.3902
15.4176
12.6372
10.0945
7.82978
5.86954
4.22326
2.88432
1.83434
1.04893
0.501729
0.16526
0.00941858
5.79402e-05
0.09953
0.269488
0.474765
0.686604
0.884062
1.05337
1.18589
1.27554
1.31629
1.30018
1.21574
1.0474
0.776442
0.382258
-0.163719
-0.929091
-2.10966
-4.25199
-8.74139
-18.7558
-41.622
-93.4701
-188.221
-255.471
-129.615
68.0632
97.4107
95.8526
90.7809
73.0229
52.4062
32.1316
11.2129
-11.4108
-101.055
-0.260206
8.63206
1.69529
0.869708
4.97825
11.3085
20.8867
33.4109
45.1975
52.2082
52.8015
47.7309
39.7872
31.9651
25.1074
19.4609
15.0446
11.7367
9.29436
7.32667
5.29605
2.48369
-3.45428
-9.66971
-15.1569
-19.925
-23.7823
-26.4383
-27.3085
-25.9048
-22.0963
-14.8648
-1.76231
15.5344
26.7365
23.799
8.68545
-12.8869
-33.711
-46.8827
-52.1553
-55.6438
-62.896
-76.4754
-98.6843
-132.317
-175.636
-214.092
-217.365
-151.259
-5.13338
181.057
316.032
311.138
203.713
118.008
82.8805
57.9587
22.7784
-13.2539
-31.5268
-39.5403
-92.9735
-223.491
-296.889
-375.038
-469.975
54.3161
582.796
430.379
221.826
133.678
92.6868
63.3496
36.9676
13.0914
-5.04636
-13.6989
-12.8625
-5.27785
4.55019
13.311
19.4132
22.005
20.9732
17.008
10.988
3.70051
-4.07908
-12.3806
-17.3512
-20.541
-21.5801
-19.8428
-14.2088
-7.48894
-0.131796
6.1952
8.55283
4.66703
-4.80739
-16.1848
-25.6868
-32.3538
-37.0665
-39.6029
-38.7857
-34.669
-28.9083
-23.5316
-20.0464
-19.2541
-21.3572
-26.143
-33.0799
-41.0942
-47.9444
-49.6107
-40.8679
-18.376
14.5158
46.466
67.3317
73.5671
68.4626
58.0875
47.2746
38.3053
31.5292
26.4303
22.3724
18.9072
15.8028
12.9732
10.4065
8.11944
6.13174
4.45358
3.08123
1.99895
1.18421
0.612332
0.257979
0.0936346
0.0874415
0.202719
0.400148
0.64179
0.895072
1.13505
1.34435
1.51119
1.62664
1.68191
1.6664
1.5664
1.36495
1.04334
0.582767
-0.0419515
-0.894693
-2.16572
-4.38272
-8.87647
-18.6446
-40.3646
-89.0547
-178.414
-246.12
-135.515
45.7047
88.4743
95.5149
93.3428
77.5055
57.3791
35.688
12.3856
-10.9209
-130.435
-30.2324
-4.12666
-2.63325
-4.07218
-2.20465
3.80255
13.7039
26.5434
39.7299
49.7438
53.9714
52.1341
46.3263
39.0488
31.7883
25.2828
19.801
15.3319
11.6883
8.55592
5.57002
2.45366
-3.5561
-8.3747
-13.5635
-18.1813
-21.739
-23.797
-23.8274
-21.4282
-16.3009
-7.38108
6.40302
21.2
28.0141
22.5685
7.68447
-11.716
-29.3951
-40.4573
-45.8125
-50.3242
-57.8028
-70.2399
-90.3868
-122.474
-167.847
-216.642
-241.156