/*--------------------------------*- C++ -*----------------------------------*\
| =========                 |                                                 |
| \\      /  F ield         | OpenFOAM: The Open Source CFD Toolbox           |
|  \\    /   O peration     | Version:  2112                                  |
|   \\  /    A nd           | Website:  www.openfoam.com                      |
|    \\/     M anipulation  |                                                 |
\*---------------------------------------------------------------------------*/
FoamFile
{
    version     2.0;
    format      ascii;
    arch        "LSB;label=32;scalar=64";
    class       volScalarField;
    location    "0.3";
    object      fK;
}
// * * * * * * * * * * * * * * * * * * * * * * * * * * * * * * * * * * * * * //

dimensions      [0 0 0 0 0 0 0];

internalField   nonuniform List<scalar> 
12225
(
0.5
0.5
0.5
0.5
0.5
0.5
0.5
0.5
0.5
0.5
0.5
0.5
0.5
0.5
0.5
0.5
0.5
0.5
0.5
0.5
0.5
0.5
0.5
0.5
0.5
0.5
0.5
0.5
0.5
0.5
0.5
0.5
0.5
0.5
0.5
0.5
0.5
0.5
0.5
0.5
0.5
0.5
0.5
0.5
0.5
0.5
0.5
0.5
0.5
0.5
0.5
0.5
0.5
0.5
0.5
0.5
0.5
0.5
0.5
0.5
0.5
0.5
0.5
0.5
0.5
0.5
0.5
0.5
0.5
0.5
0.5
0.5
0.5
0.5
0.5
0.5
0.5
0.5
0.5
0.5
0.5
0.5
0.5
0.5
0.5
0.5
0.5
0.5
0.5
0.5
0.5
0.5
0.5
0.5
0.5
0.5
0.5
0.5
0.5
0.5
0.5
0.5
0.5
0.5
0.5
0.5
0.5
0.5
0.5
0.5
0.5
0.5
0.5
0.5
0.5
0.5
0.5
0.5
0.5
0.5
0.5
0.5
0.5
0.5
0.5
0.5
0.5
0.5
0.5
0.5
0.5
0.5
0.5
0.5
0.5
0.5
0.5
0.5
0.5
0.5
0.5
0.5
0.5
0.5
0.5
0.5
0.5
0.5
0.5
0.5
0.5
0.5
0.5
0.5
0.5
0.5
0.5
0.5
0.5
0.5
0.5
0.5
0.5
0.5
0.5
0.5
0.5
0.5
0.5
0.5
0.5
0.5
0.5
0.5
0.5
0.5
0.5
0.5
0.5
0.5
0.5
0.5
0.5
0.5
0.5
0.5
0.5
0.5
0.5
0.5
0.5
0.5
0.5
0.5
0.5
0.5
0.5
0.5
0.5
0.5
0.5
0.5
0.5
0.5
0.5
0.5
0.5
0.5
0.5
0.5
0.5
0.5
0.5
0.5
0.5
0.5
0.5
0.5
0.5
0.5
0.5
0.5
0.5
0.5
0.5
0.5
0.5
0.5
0.5
0.5
0.5
0.5
0.5
0.5
0.5
0.5
0.5
0.5
0.5
0.5
0.5
0.5
0.5
0.5
0.5
0.5
0.5
0.5
0.5
0.5
0.5
0.5
0.5
0.5
0.5
0.5
0.5
0.5
0.5
0.5
0.5
0.5
0.5
0.5
0.5
0.5
0.5
0.5
0.5
0.5
0.5
0.5
0.5
0.5
0.5
0.5
0.5
0.5
0.5
0.5
0.5
0.5
0.5
0.5
0.5
0.5
0.5
0.5
0.5
0.5
0.5
0.5
0.5
0.5
0.5
0.5
0.5
0.5
0.5
0.5
0.5
0.5
0.5
0.5
0.5
0.5
0.5
0.5
0.5
0.5
0.5
0.5
0.5
0.5
0.5
0.5
0.5
0.5
0.5
0.5
0.5
0.5
0.5
0.5
0.5
0.5
0.5
0.5
0.5
0.5
0.5
0.5
0.5
0.5
0.5
0.5
0.5
0.5
0.5
0.5
0.5
0.5
0.5
0.5
0.5
0.5
0.5
0.5
0.5
0.5
0.5
0.5
0.5
0.5
0.5
0.5
0.5
0.5
0.5
0.5
0.5
0.5
0.5
0.5
0.5
0.5
0.5
0.5
0.5
0.5
0.5
0.5
0.5
0.5
0.5
0.5
0.5
0.5
0.5
0.5
0.5
0.5
0.5
0.5
0.5
0.5
0.5
0.5
0.5
0.5
0.5
0.5
0.5
0.5
0.5
0.5
0.5
0.5
0.5
0.5
0.5
0.5
0.5
0.5
0.5
0.5
0.5
0.5
0.5
0.5
0.5
0.5
0.5
0.5
0.5
0.5
0.5
0.5
0.5
0.5
0.5
0.5
0.5
0.5
0.5
0.5
0.5
0.5
0.5
0.5
0.5
0.5
0.5
0.5
0.5
0.5
0.5
0.5
0.5
0.5
0.5
0.5
0.5
0.5
0.5
0.5
0.5
0.5
0.5
0.5
0.5
0.5
0.5
0.5
0.5
0.5
0.5
0.5
0.5
0.5
0.5
0.5
0.5
0.5
0.5
0.5
0.5
0.5
0.5
0.5
0.5
0.5
0.5
0.5
0.5
0.5
0.5
0.5
0.5
0.5
0.5
0.5
0.5
0.5
0.5
0.5
0.5
0.5
0.5
0.5
0.5
0.5
0.5
0.5
0.5
0.5
0.5
0.5
0.5
0.5
0.5
0.5
0.5
0.5
0.5
0.5
0.5
0.5
0.5
0.5
0.5
0.5
0.5
0.5
0.5
0.5
0.5
0.5
0.5
0.5
0.5
0.5
0.5
0.5
0.5
0.5
0.5
0.5
0.5
0.5
0.5
0.5
0.5
0.5
0.5
0.5
0.5
0.5
0.5
0.5
0.5
0.5
0.5
0.5
0.5
0.5
0.5
0.5
0.498769
0.496786
0.495462
0.494891
0.495116
0.496105
0.497794
0.5
0.5
0.5
0.5
0.5
0.5
0.5
0.5
0.5
0.5
0.5
0.5
0.5
0.5
0.5
0.5
0.5
0.5
0.5
0.5
0.5
0.5
0.5
0.5
0.5
0.5
0.5
0.5
0.5
0.5
0.5
0.5
0.5
0.5
0.5
0.5
0.5
0.5
0.5
0.5
0.5
0.5
0.5
0.5
0.5
0.5
0.5
0.5
0.5
0.5
0.5
0.5
0.5
0.5
0.5
0.5
0.5
0.5
0.5
0.5
0.5
0.5
0.5
0.5
0.5
0.5
0.5
0.5
0.5
0.5
0.5
0.5
0.5
0.5
0.5
0.5
0.5
0.5
0.5
0.5
0.5
0.5
0.5
0.5
0.5
0.5
0.5
0.5
0.5
0.5
0.5
0.5
0.5
0.5
0.5
0.5
0.5
0.5
0.5
0.5
0.5
0.5
0.5
0.5
0.5
0.5
0.5
0.5
0.5
0.5
0.5
0.5
0.5
0.5
0.5
0.5
0.5
0.5
0.5
0.5
0.5
0.5
0.5
0.5
0.5
0.5
0.5
0.5
0.5
0.5
0.5
0.5
0.5
0.5
0.5
0.5
0.5
0.5
0.5
0.5
0.5
0.5
0.5
0.5
0.5
0.5
0.5
0.5
0.5
0.5
0.5
0.5
0.5
0.5
0.5
0.5
0.5
0.5
0.5
0.5
0.5
0.5
0.5
0.5
0.5
0.5
0.5
0.5
0.5
0.5
0.5
0.499318
0.495522
0.492359
0.489946
0.488359
0.48762
0.487654
0.48824
0.488995
0.489451
0.489228
0.488213
0.48667
0.485105
0.484012
0.483706
0.484306
0.4858
0.488113
0.491147
0.494804
0.498997
0.5
0.5
0.5
0.5
0.5
0.5
0.5
0.5
0.5
0.5
0.5
0.5
0.5
0.5
0.5
0.5
0.5
0.5
0.5
0.5
0.5
0.5
0.5
0.5
0.5
0.5
0.5
0.5
0.5
0.5
0.5
0.5
0.5
0.5
0.5
0.5
0.5
0.5
0.5
0.5
0.5
0.5
0.5
0.5
0.5
0.5
0.5
0.5
0.5
0.5
0.5
0.5
0.5
0.5
0.5
0.5
0.5
0.5
0.5
0.5
0.5
0.5
0.5
0.5
0.5
0.5
0.5
0.5
0.5
0.5
0.5
0.5
0.5
0.5
0.5
0.5
0.5
0.5
0.5
0.5
0.5
0.5
0.5
0.5
0.5
0.5
0.5
0.5
0.5
0.5
0.5
0.5
0.5
0.5
0.5
0.5
0.5
0.5
0.5
0.5
0.5
0.5
0.5
0.5
0.5
0.5
0.5
0.5
0.5
0.5
0.5
0.5
0.5
0.5
0.5
0.5
0.5
0.5
0.5
0.5
0.5
0.5
0.5
0.5
0.5
0.5
0.5
0.5
0.5
0.5
0.5
0.5
0.5
0.5
0.5
0.5
0.5
0.5
0.5
0.5
0.5
0.5
0.5
0.5
0.5
0.5
0.5
0.5
0.5
0.5
0.5
0.5
0.5
0.5
0.5
0.5
0.5
0.497348
0.491854
0.487146
0.483423
0.480807
0.479357
0.479051
0.479734
0.481047
0.482404
0.483095
0.482564
0.480711
0.477971
0.475069
0.472663
0.471139
0.470623
0.47107
0.472366
0.474379
0.476988
0.480085
0.483576
0.487387
0.491453
0.495717
0.5
0.5
0.5
0.5
0.5
0.5
0.5
0.5
0.5
0.5
0.5
0.5
0.5
0.5
0.5
0.5
0.5
0.5
0.5
0.5
0.5
0.5
0.5
0.5
0.5
0.5
0.5
0.5
0.5
0.5
0.5
0.5
0.5
0.5
0.5
0.5
0.5
0.5
0.5
0.5
0.5
0.5
0.5
0.5
0.5
0.5
0.5
0.5
0.5
0.5
0.5
0.5
0.5
0.5
0.5
0.5
0.5
0.5
0.5
0.5
0.5
0.5
0.5
0.5
0.5
0.5
0.5
0.5
0.5
0.5
0.5
0.5
0.5
0.5
0.5
0.5
0.5
0.5
0.5
0.5
0.5
0.5
0.5
0.5
0.5
0.5
0.5
0.5
0.5
0.5
0.5
0.5
0.5
0.5
0.5
0.5
0.5
0.5
0.5
0.5
0.5
0.5
0.5
0.5
0.5
0.5
0.5
0.5
0.5
0.5
0.5
0.5
0.5
0.5
0.5
0.5
0.5
0.5
0.5
0.5
0.5
0.5
0.5
0.5
0.5
0.5
0.5
0.5
0.5
0.5
0.5
0.5
0.5
0.5
0.5
0.5
0.5
0.5
0.5
0.5
0.5
0.5
0.5
0.5
0.5
0.5
0.5
0.5
0.5
0.5
0.5
0.5
0.496088
0.488951
0.482577
0.477322
0.473386
0.470865
0.469785
0.470084
0.471546
0.473722
0.475906
0.477262
0.477127
0.475346
0.472363
0.468958
0.465876
0.463587
0.462276
0.461927
0.462436
0.463667
0.465491
0.467797
0.470489
0.473485
0.476717
0.480121
0.483644
0.487235
0.490863
0.494497
0.498115
0.5
0.5
0.5
0.5
0.5
0.5
0.5
0.5
0.5
0.5
0.5
0.5
0.5
0.5
0.5
0.5
0.5
0.5
0.5
0.5
0.5
0.5
0.5
0.5
0.5
0.5
0.5
0.5
0.5
0.5
0.5
0.5
0.5
0.5
0.5
0.5
0.5
0.5
0.5
0.5
0.5
0.5
0.5
0.5
0.5
0.5
0.5
0.5
0.5
0.5
0.5
0.5
0.5
0.5
0.5
0.5
0.5
0.5
0.5
0.5
0.5
0.5
0.5
0.5
0.5
0.5
0.5
0.5
0.5
0.5
0.5
0.5
0.5
0.5
0.5
0.5
0.5
0.5
0.5
0.5
0.5
0.5
0.5
0.5
0.5
0.5
0.5
0.5
0.5
0.5
0.5
0.5
0.5
0.5
0.5
0.5
0.5
0.5
0.5
0.5
0.5
0.5
0.5
0.5
0.5
0.5
0.5
0.5
0.5
0.5
0.5
0.5
0.5
0.5
0.5
0.5
0.5
0.5
0.5
0.5
0.5
0.5
0.5
0.5
0.5
0.5
0.5
0.5
0.5
0.5
0.5
0.5
0.5
0.5
0.5
0.5
0.5
0.5
0.5
0.5
0.5
0.5
0.5
0.5
0.5
0.5
0.494893
0.486771
0.479019
0.472313
0.467038
0.463363
0.461328
0.460898
0.461954
0.464227
0.467203
0.470106
0.472044
0.472323
0.470777
0.467837
0.464288
0.460892
0.458165
0.456338
0.455435
0.455371
0.45602
0.457257
0.458967
0.461052
0.463427
0.466018
0.468764
0.471608
0.474505
0.477417
0.480312
0.483163
0.485949
0.488654
0.491268
0.493781
0.496187
0.49848
0.5
0.5
0.5
0.5
0.5
0.5
0.5
0.5
0.5
0.5
0.5
0.5
0.5
0.5
0.5
0.5
0.5
0.5
0.5
0.5
0.5
0.5
0.5
0.5
0.5
0.5
0.5
0.5
0.5
0.5
0.5
0.5
0.5
0.5
0.5
0.5
0.5
0.5
0.5
0.5
0.5
0.499462
0.49884
0.498263
0.497736
0.497259
0.496835
0.496465
0.496151
0.495894
0.495693
0.495548
0.49546
0.495428
0.495451
0.495527
0.495656
0.495836
0.496066
0.496346
0.496674
0.497052
0.497477
0.497952
0.498475
0.499047
0.499669
0.5
0.5
0.5
0.5
0.5
0.5
0.5
0.5
0.5
0.5
0.5
0.5
0.5
0.5
0.5
0.5
0.5
0.5
0.5
0.5
0.5
0.5
0.5
0.5
0.5
0.5
0.5
0.5
0.5
0.5
0.5
0.5
0.5
0.5
0.5
0.5
0.5
0.5
0.5
0.5
0.5
0.5
0.5
0.5
0.5
0.5
0.5
0.5
0.5
0.5
0.5
0.5
0.5
0.5
0.5
0.5
0.5
0.5
0.5
0.5
0.5
0.5
0.5
0.5
0.5
0.5
0.5
0.5
0.5
0.5
0.5
0.498415
0.492438
0.484674
0.476339
0.468542
0.462037
0.457214
0.454191
0.452931
0.453327
0.455201
0.458231
0.461857
0.465267
0.467566
0.468088
0.4667
0.463837
0.460263
0.456726
0.453751
0.451592
0.450302
0.449817
0.450025
0.450805
0.452044
0.453641
0.455511
0.457578
0.459779
0.462057
0.464368
0.466671
0.468937
0.47114
0.47326
0.475283
0.477197
0.478994
0.480666
0.482207
0.483612
0.484874
0.485994
0.486968
0.487796
0.488476
0.48901
0.489399
0.489643
0.489747
0.489714
0.489547
0.489253
0.488838
0.488307
0.487669
0.486931
0.486102
0.485191
0.484206
0.483157
0.482055
0.480907
0.479724
0.478516
0.477291
0.47606
0.474829
0.473608
0.472404
0.471225
0.470077
0.468967
0.467899
0.466879
0.465911
0.465
0.464148
0.463358
0.462632
0.461972
0.461378
0.460855
0.460406
0.460033
0.459736
0.459516
0.459374
0.459309
0.45932
0.459407
0.459569
0.459803
0.460109
0.460484
0.460927
0.461435
0.462008
0.462643
0.463339
0.464094
0.464909
0.465781
0.466711
0.467697
0.46874
0.469837
0.471003
0.472231
0.473502
0.474808
0.476146
0.477514
0.478913
0.480342
0.481801
0.48329
0.484809
0.486358
0.487938
0.489548
0.491189
0.492861
0.494563
0.496297
0.498062
0.499859
0.5
0.5
0.5
0.5
0.5
0.5
0.5
0.5
0.5
0.5
0.5
0.5
0.5
0.5
0.5
0.5
0.5
0.5
0.5
0.5
0.5
0.5
0.5
0.5
0.5
0.5
0.5
0.5
0.5
0.5
0.5
0.5
0.5
0.5
0.5
0.5
0.5
0.5
0.5
0.5
0.5
0.5
0.5
0.5
0.5
0.5
0.5
0.5
0.5
0.5
0.491579
0.487176
0.481304
0.473819
0.465846
0.458543
0.452694
0.448669
0.446528
0.446166
0.447416
0.450048
0.453697
0.457766
0.461436
0.463848
0.464407
0.46304
0.460197
0.456615
0.453009
0.449884
0.447503
0.445934
0.445128
0.444987
0.445395
0.446242
0.447427
0.448864
0.450477
0.452203
0.453985
0.455777
0.457544
0.459253
0.460883
0.462414
0.463834
0.465132
0.466301
0.467334
0.468227
0.468977
0.469582
0.47004
0.470351
0.470516
0.470535
0.470412
0.470148
0.469749
0.469218
0.468563
0.467789
0.466905
0.465918
0.464838
0.463674
0.462436
0.461136
0.459783
0.458389
0.456966
0.455523
0.454072
0.452624
0.451188
0.449776
0.448395
0.447055
0.445764
0.444529
0.443356
0.44225
0.441218
0.440264
0.43939
0.4386
0.437897
0.437282
0.436756
0.43632
0.435976
0.435723
0.435562
0.435493
0.435517
0.435631
0.435835
0.436126
0.436505
0.436967
0.437512
0.438136
0.438838
0.439614
0.440463
0.441381
0.442367
0.443418
0.444531
0.445706
0.446941
0.448235
0.449587
0.450996
0.452461
0.453982
0.455565
0.457198
0.458872
0.460582
0.462324
0.464098
0.465904
0.467742
0.469611
0.471512
0.473444
0.475408
0.477403
0.47943
0.481489
0.483579
0.485701
0.487855
0.490042
0.49226
0.49451
0.496788
0.499104
0.5
0.5
0.5
0.5
0.5
0.5
0.5
0.5
0.5
0.5
0.5
0.5
0.5
0.5
0.5
0.5
0.5
0.5
0.5
0.5
0.5
0.5
0.5
0.5
0.5
0.5
0.5
0.5
0.5
0.5
0.5
0.5
0.5
0.5
0.5
0.5
0.5
0.5
0.5
0.5
0.5
0.5
0.5
0.5
0.5
0.5
0.5
0.5
0.482117
0.475771
0.470064
0.463267
0.456153
0.449789
0.444926
0.441896
0.440711
0.441224
0.443233
0.446474
0.450544
0.454825
0.458512
0.46081
0.461221
0.459745
0.456852
0.453243
0.449588
0.446365
0.443826
0.442044
0.440983
0.440553
0.440645
0.441151
0.441973
0.443025
0.444232
0.44553
0.446864
0.448191
0.449474
0.450686
0.451803
0.452812
0.453698
0.454455
0.455075
0.455556
0.455894
0.456088
0.456138
0.456045
0.455809
0.455434
0.454922
0.454278
0.453508
0.452617
0.451613
0.450505
0.449302
0.448013
0.44665
0.445223
0.443744
0.442226
0.44068
0.439119
0.437555
0.436
0.434466
0.432964
0.431505
0.430099
0.428754
0.42748
0.426283
0.42517
0.424147
0.423218
0.422387
0.421658
0.421032
0.42051
0.420095
0.419786
0.419583
0.419485
0.419493
0.419604
0.419818
0.420133
0.420547
0.421058
0.421664
0.422362
0.423149
0.424023
0.42498
0.426017
0.427131
0.428318
0.429577
0.430902
0.432293
0.433745
0.435257
0.436826
0.438452
0.440132
0.441865
0.443651
0.445489
0.447378
0.449309
0.45128
0.453285
0.455321
0.457388
0.459483
0.461607
0.463761
0.465943
0.468155
0.470397
0.472668
0.474969
0.477301
0.479662
0.482053
0.484474
0.486925
0.489406
0.491918
0.494461
0.497035
0.499643
0.5
0.5
0.5
0.5
0.5
0.5
0.5
0.5
0.5
0.5
0.5
0.5
0.5
0.5
0.5
0.5
0.5
0.5
0.5
0.5
0.5
0.5
0.5
0.5
0.5
0.5
0.5
0.5
0.5
0.5
0.5
0.5
0.5
0.5
0.5
0.5
0.5
0.5
0.5
0.5
0.5
0.5
0.5
0.5
0.5
0.5
0.5
0.5
0.5
0.476558
0.46577
0.459742
0.453775
0.447834
0.442695
0.438997
0.437018
0.436745
0.438022
0.440633
0.444292
0.44857
0.452838
0.456326
0.458325
0.458444
0.456761
0.453756
0.450096
0.446398
0.4431
0.440438
0.438485
0.437211
0.436532
0.436345
0.436547
0.437042
0.437745
0.438582
0.439492
0.440421
0.441327
0.442177
0.442944
0.443609
0.444157
0.444579
0.444868
0.44502
0.445033
0.444907
0.444642
0.44424
0.443704
0.443036
0.442242
0.441328
0.440299
0.439164
0.437931
0.436611
0.435213
0.433749
0.432231
0.430672
0.429084
0.427481
0.425875
0.42428
0.422709
0.421173
0.419685
0.418256
0.416896
0.415615
0.41442
0.413321
0.412322
0.41143
0.410648
0.409981
0.409429
0.408995
0.40868
0.408483
0.408404
0.408443
0.408597
0.408865
0.409245
0.409734
0.410331
0.411033
0.411837
0.41274
0.41374
0.414832
0.416015
0.417285
0.418638
0.420071
0.421579
0.423159
0.424808
0.42652
0.428293
0.430123
0.432007
0.433943
0.435929
0.437964
0.440046
0.442175
0.44435
0.446563
0.448798
0.45106
0.453349
0.455661
0.457996
0.460355
0.462737
0.465143
0.467573
0.470028
0.472509
0.475016
0.477549
0.480108
0.482694
0.485309
0.487951
0.49062
0.493313
0.496036
0.498789
0.5
0.5
0.5
0.5
0.5
0.5
0.5
0.5
0.5
0.5
0.5
0.5
0.5
0.5
0.5
0.5
0.5
0.5
0.5
0.5
0.5
0.5
0.5
0.5
0.5
0.5
0.5
0.5
0.5
0.5
0.5
0.5
0.5
0.5
0.5
0.5
0.5
0.5
0.5
0.5
0.5
0.5
0.5
0.5
0.5
0.5
0.5
0.5
0.5
0.5
0.5
0.5
0.476613
0.458547
0.451244
0.445897
0.44119
0.437366
0.43486
0.433882
0.434414
0.436307
0.439347
0.443235
0.44752
0.451579
0.454693
0.456256
0.455986
0.454032
0.450878
0.447146
0.443401
0.440042
0.437279
0.435182
0.433722
0.432822
0.432385
0.432311
0.432507
0.432892
0.433393
0.433951
0.434516
0.435048
0.435514
0.435892
0.436164
0.436317
0.436345
0.436242
0.436006
0.435639
0.43514
0.434513
0.433761
0.43289
0.431904
0.430811
0.429618
0.428334
0.426969
0.425533
0.424039
0.422499
0.420926
0.419333
0.417733
0.416141
0.41457
0.413033
0.411542
0.410111
0.40875
0.407471
0.406282
0.405193
0.404212
0.403344
0.402595
0.401968
0.401468
0.401095
0.400851
0.400736
0.400748
0.400888
0.401153
0.401541
0.402049
0.402675
0.403416
0.404269
0.40523
0.406297
0.407467
0.408737
0.410103
0.411563
0.413113
0.414751
0.416474
0.418277
0.420159
0.422113
0.424137
0.426225
0.428373
0.430574
0.432826
0.435124
0.437465
0.439847
0.44227
0.444733
0.447237
0.449755
0.452275
0.454808
0.457355
0.459917
0.462493
0.465083
0.467688
0.470309
0.472946
0.4756
0.478275
0.480971
0.483688
0.486427
0.489185
0.491966
0.494774
0.497613
0.5
0.5
0.5
0.5
0.5
0.5
0.5
0.5
0.5
0.5
0.5
0.5
0.5
0.5
0.5
0.5
0.5
0.5
0.5
0.5
0.5
0.5
0.5
0.5
0.5
0.5
0.5
0.5
0.5
0.5
0.5
0.5
0.5
0.5
0.5
0.5
0.5
0.5
0.5
0.5
0.5
0.5
0.5
0.5
0.5
0.5
0.5
0.5
0.5
0.5
0.5
0.5
0.5
0.5
0.5
0.5
0.483767
0.455314
0.445333
0.440004
0.436308
0.433698
0.432289
0.432198
0.433401
0.435764
0.439075
0.44302
0.44714
0.45083
0.453443
0.454479
0.453765
0.451506
0.448184
0.444373
0.440583
0.437168
0.434318
0.432094
0.430469
0.42937
0.428705
0.42838
0.428305
0.428401
0.428601
0.428846
0.429089
0.429294
0.42943
0.429477
0.429418
0.429245
0.428952
0.428535
0.427995
0.427334
0.426555
0.425662
0.424663
0.423562
0.422368
0.421089
0.419734
0.418315
0.416843
0.415331
0.413791
0.412237
0.410683
0.409144
0.407633
0.406164
0.40475
0.403403
0.402135
0.400958
0.399881
0.398914
0.398063
0.397337
0.396739
0.396275
0.395947
0.395756
0.395704
0.395789
0.396012
0.396368
0.396857
0.397474
0.398217
0.399081
0.400064
0.401161
0.402368
0.403682
0.4051
0.406618
0.408232
0.409941
0.411742
0.413631
0.415608
0.417671
0.419817
0.422044
0.424351
0.426734
0.429189
0.431709
0.434289
0.436922
0.439599
0.442316
0.445066
0.447849
0.450662
0.453498
0.456307
0.459103
0.461897
0.464692
0.467488
0.470283
0.473084
0.475889
0.4787
0.481519
0.484345
0.487175
0.490019
0.49288
0.495761
0.498666
0.5
0.5
0.5
0.5
0.5
0.5
0.5
0.5
0.5
0.5
0.5
0.5
0.5
0.5
0.5
0.5
0.5
0.5
0.5
0.5
0.5
0.5
0.5
0.5
0.5
0.5
0.5
0.5
0.5
0.5
0.5
0.5
0.5
0.5
0.5
0.5
0.5
0.5
0.5
0.5
0.5
0.5
0.5
0.5
0.5
0.5
0.5
0.5
0.5
0.5
0.5
0.5
0.5
0.5
0.5
0.5
0.5
0.5
0.5
0.5
0.498955
0.457101
0.442647
0.436329
0.433146
0.43148
0.43099
0.431642
0.433384
0.436084
0.439526
0.443386
0.4472
0.450402
0.452428
0.452892
0.451716
0.449148
0.445656
0.441768
0.437936
0.434472
0.431546
0.429208
0.427434
0.426154
0.425283
0.42473
0.424411
0.424251
0.424185
0.424158
0.424126
0.424055
0.423918
0.423695
0.423374
0.422947
0.422408
0.421758
0.420999
0.420133
0.419167
0.418106
0.416959
0.415733
0.414437
0.413082
0.411678
0.410238
0.408775
0.407301
0.405832
0.404382
0.402967
0.4016
0.400295
0.399067
0.397927
0.396887
0.395958
0.395149
0.394468
0.393921
0.393515
0.393252
0.393137
0.39317
0.393351
0.39368
0.394154
0.39477
0.395524
0.396411
0.397426
0.398565
0.399821
0.40119
0.402668
0.404249
0.405929
0.407704
0.409569
0.411522
0.41356
0.41568
0.417883
0.420165
0.422527
0.42497
0.427495
0.430104
0.432798
0.435578
0.438442
0.441384
0.444396
0.447465
0.45058
0.453734
0.456906
0.460109
0.463256
0.466336
0.469386
0.472417
0.475437
0.478445
0.481439
0.484411
0.487383
0.490351
0.493314
0.49628
0.499256
0.5
0.5
0.5
0.5
0.5
0.5
0.5
0.5
0.5
0.5
0.5
0.5
0.5
0.5
0.5
0.5
0.5
0.5
0.5
0.5
0.5
0.5
0.5
0.5
0.5
0.5
0.5
0.5
0.5
0.5
0.5
0.5
0.5
0.5
0.5
0.5
0.5
0.5
0.5
0.5
0.5
0.5
0.5
0.5
0.5
0.5
0.5
0.5
0.5
0.5
0.5
0.5
0.5
0.5
0.5
0.5
0.5
0.5
0.5
0.5
0.5
0.5
0.5
0.5
0.5
0.5
0.464514
0.443663
0.435017
0.431603
0.43048
0.430677
0.431917
0.434075
0.436997
0.440452
0.444104
0.447504
0.450136
0.451533
0.451416
0.449789
0.446931
0.443285
0.439329
0.435463
0.431961
0.42897
0.426532
0.424624
0.42318
0.422124
0.421368
0.420835
0.420453
0.420161
0.419907
0.419652
0.419361
0.419013
0.418589
0.418078
0.417473
0.416773
0.415977
0.415088
0.414114
0.41306
0.411936
0.41075
0.409513
0.408234
0.406926
0.4056
0.404267
0.402943
0.401642
0.400381
0.399174
0.398038
0.39699
0.396043
0.395211
0.39451
0.39395
0.393542
0.393291
0.393198
0.393266
0.393494
0.393883
0.394431
0.395136
0.395993
0.396997
0.398143
0.399422
0.400828
0.402352
0.403985
0.405718
0.407543
0.409457
0.411454
0.413528
0.415676
0.417893
0.420175
0.422521
0.424928
0.427397
0.429929
0.432524
0.435185
0.437915
0.44072
0.443611
0.446598
0.449689
0.452894
0.456208
0.459619
0.463107
0.466648
0.470256
0.473805
0.477212
0.480512
0.483753
0.486956
0.490133
0.493287
0.496423
0.499545
0.5
0.5
0.5
0.5
0.5
0.5
0.5
0.5
0.5
0.5
0.5
0.5
0.5
0.5
0.5
0.5
0.5
0.5
0.5
0.5
0.5
0.5
0.5
0.5
0.5
0.5
0.5
0.5
0.5
0.5
0.5
0.5
0.5
0.5
0.5
0.5
0.5
0.5
0.5
0.5
0.5
0.5
0.5
0.5
0.5
0.5
0.5
0.5
0.5
0.5
0.5
0.5
0.5
0.5
0.5
0.5
0.5
0.5
0.5
0.5
0.5
0.5
0.5
0.5
0.5
0.5
0.5
0.5
0.5
0.5
0.5
0.5
0.477736
0.448615
0.436123
0.431555
0.430482
0.431103
0.432777
0.435237
0.438277
0.441641
0.444986
0.447892
0.449908
0.450668
0.449992
0.447953
0.444841
0.441071
0.437068
0.433184
0.429657
0.426615
0.424096
0.422074
0.420492
0.419273
0.418343
0.41763
0.417068
0.416597
0.416172
0.415753
0.415313
0.414829
0.414288
0.413679
0.412996
0.412237
0.411404
0.410504
0.409543
0.408534
0.407487
0.406416
0.405335
0.404258
0.403198
0.402165
0.401167
0.400217
0.399328
0.39852
0.397809
0.397213
0.396748
0.396433
0.396286
0.396331
0.396593
0.397084
0.397795
0.398702
0.399787
0.401035
0.402439
0.403988
0.405672
0.40748
0.409401
0.411424
0.413537
0.415732
0.417997
0.420316
0.422677
0.425061
0.427471
0.429915
0.432388
0.434887
0.43741
0.439957
0.44253
0.445131
0.447765
0.450435
0.453149
0.455909
0.458721
0.461598
0.46456
0.467641
0.470856
0.474242
0.477799
0.48152
0.485365
0.489177
0.492841
0.496407
0.499878
0.5
0.5
0.5
0.5
0.5
0.5
0.5
0.5
0.5
0.5
0.5
0.5
0.5
0.5
0.5
0.5
0.5
0.5
0.5
0.5
0.5
0.5
0.5
0.5
0.5
0.5
0.5
0.5
0.5
0.5
0.5
0.5
0.5
0.5
0.5
0.5
0.5
0.5
0.5
0.5
0.5
0.5
0.5
0.5
0.5
0.5
0.5
0.5
0.5
0.5
0.5
0.5
0.5
0.5
0.5
0.5
0.5
0.5
0.5
0.5
0.5
0.5
0.5
0.5
0.5
0.5
0.5
0.5
0.5
0.5
0.5
0.5
0.5
0.5
0.5
0.5
0.5
0.5
0.5
0.496649
0.457511
0.439607
0.432874
0.431302
0.432067
0.43402
0.436674
0.439736
0.442915
0.445873
0.44823
0.449616
0.449763
0.44858
0.446188
0.442877
0.439026
0.435011
0.431135
0.427608
0.42454
0.421966
0.419864
0.418182
0.416851
0.4158
0.414961
0.414281
0.413709
0.413198
0.412718
0.412244
0.41176
0.411256
0.410721
0.410145
0.409525
0.408864
0.408173
0.407463
0.406751
0.406057
0.405401
0.404816
0.404343
0.404032
0.403864
0.403804
0.403831
0.403961
0.40421
0.404597
0.405137
0.405833
0.406702
0.407775
0.409075
0.410619
0.412403
0.41438
0.416504
0.418747
0.421088
0.423524
0.426048
0.428648
0.431311
0.434025
0.436779
0.439565
0.442379
0.445218
0.448078
0.45095
0.453769
0.45652
0.45925
0.461967
0.464673
0.467368
0.470056
0.472739
0.475422
0.478109
0.480806
0.483527
0.48627
0.489034
0.491833
0.494684
0.49762
0.5
0.5
0.5
0.5
0.5
0.5
0.5
0.5
0.5
0.5
0.5
0.5
0.5
0.5
0.5
0.5
0.5
0.5
0.5
0.5
0.5
0.5
0.5
0.5
0.5
0.5
0.5
0.5
0.5
0.5
0.5
0.5
0.5
0.5
0.5
0.5
0.5
0.5
0.5
0.5
0.5
0.5
0.5
0.5
0.5
0.5
0.5
0.5
0.5
0.5
0.5
0.5
0.5
0.5
0.5
0.5
0.5
0.5
0.5
0.5
0.5
0.5
0.5
0.5
0.5
0.5
0.5
0.5
0.5
0.5
0.5
0.5
0.5
0.5
0.5
0.5
0.5
0.5
0.5
0.5
0.5
0.5
0.5
0.5
0.5
0.5
0.5
0.5
0.5
0.479714
0.454659
0.444473
0.44172
0.442319
0.444412
0.447187
0.450209
0.453144
0.455663
0.457436
0.458179
0.457716
0.456033
0.453285
0.449759
0.445795
0.441726
0.437818
0.434254
0.431137
0.428499
0.42633
0.424585
0.423209
0.42214
0.421315
0.420673
0.420167
0.419772
0.419467
0.419243
0.419106
0.419075
0.419153
0.419256
0.419359
0.419474
0.419619
0.419817
0.420092
0.420465
0.420944
0.421582
0.422477
0.423675
0.425058
0.42654
0.428088
0.429741
0.431528
0.433469
0.43559
0.437922
0.440456
0.443157
0.445995
0.44894
0.451965
0.455021
0.458081
0.461143
0.464171
0.467187
0.47021
0.473239
0.476265
0.479277
0.48227
0.485239
0.488186
0.491113
0.494019
0.4969
0.49975
0.5
0.5
0.5
0.5
0.5
0.5
0.5
0.5
0.5
0.5
0.5
0.5
0.5
0.5
0.5
0.5
0.5
0.5
0.5
0.5
0.5
0.5
0.5
0.5
0.5
0.5
0.5
0.5
0.5
0.5
0.5
0.5
0.5
0.5
0.5
0.5
0.5
0.5
0.5
0.5
0.5
0.5
0.5
0.5
0.5
0.5
0.5
0.5
0.5
0.5
0.5
0.5
0.5
0.5
0.5
0.5
0.5
0.5
0.5
0.5
0.5
0.5
0.5
0.5
0.5
0.5
0.5
0.5
0.5
0.5
0.5
0.5
0.5
0.5
0.5
0.5
0.5
0.5
0.5
0.5
0.5
0.5
0.5
0.5
0.5
0.5
0.5
0.5
0.5
0.5
0.5
0.5
0.5
0.5
0.5
0.5
0.5
0.5
0.5
0.5
0.5
0.5
0.5
0.5
0.5
0.475541
0.444499
0.431536
0.427817
0.428218
0.430315
0.433036
0.435857
0.438431
0.440472
0.441721
0.441983
0.441165
0.439304
0.436565
0.433206
0.429524
0.4258
0.422262
0.419069
0.416306
0.414013
0.412198
0.410851
0.409954
0.409502
0.40948
0.409699
0.410094
0.410674
0.411475
0.412518
0.413828
0.415436
0.417206
0.418956
0.420739
0.422617
0.424607
0.426726
0.429006
0.431477
0.434186
0.437132
0.440243
0.443387
0.446541
0.449706
0.452815
0.455989
0.459256
0.462623
0.4661
0.469715
0.473429
0.477178
0.480919
0.484618
0.488248
0.491796
0.495252
0.498606
0.5
0.5
0.5
0.5
0.5
0.5
0.5
0.5
0.5
0.5
0.5
0.5
0.5
0.5
0.5
0.5
0.5
0.5
0.5
0.5
0.5
0.5
0.5
0.5
0.5
0.5
0.5
0.5
0.5
0.5
0.5
0.5
0.5
0.5
0.5
0.5
0.5
0.5
0.5
0.5
0.5
0.5
0.5
0.5
0.5
0.5
0.5
0.5
0.5
0.5
0.5
0.5
0.5
0.5
0.5
0.5
0.5
0.5
0.5
0.5
0.5
0.5
0.5
0.5
0.5
0.5
0.5
0.5
0.5
0.5
0.5
0.5
0.5
0.5
0.5
0.5
0.5
0.5
0.5
0.5
0.5
0.5
0.5
0.5
0.5
0.5
0.5
0.5
0.5
0.5
0.5
0.5
0.5
0.5
0.5
0.5
0.5
0.5
0.5
0.5
0.5
0.5
0.5
0.5
0.5
0.5
0.5
0.5
0.5
0.5
0.5
0.5
0.5
0.5
0.5
0.5
0.5
0.5
0.470595
0.434133
0.418849
0.414403
0.414685
0.416791
0.419459
0.422108
0.424408
0.42612
0.427055
0.427099
0.426226
0.424505
0.42208
0.419198
0.416139
0.413181
0.410575
0.408495
0.40689
0.405755
0.405174
0.405224
0.405974
0.407511
0.40972
0.411966
0.414438
0.417368
0.420837
0.424753
0.428973
0.433286
0.437546
0.441819
0.446091
0.450535
0.455104
0.459762
0.464523
0.469406
0.474469
0.479657
0.484837
0.489912
0.494822
0.499527
0.5
0.5
0.5
0.5
0.5
0.5
0.5
0.5
0.5
0.5
0.5
0.5
0.5
0.5
0.5
0.5
0.5
0.5
0.5
0.5
0.5
0.5
0.5
0.5
0.5
0.5
0.5
0.5
0.5
0.5
0.5
0.5
0.5
0.5
0.5
0.5
0.5
0.5
0.5
0.5
0.5
0.5
0.5
0.5
0.5
0.5
0.5
0.5
0.5
0.5
0.5
0.5
0.5
0.5
0.5
0.5
0.5
0.5
0.5
0.5
0.5
0.5
0.5
0.5
0.5
0.5
0.5
0.5
0.5
0.5
0.5
0.5
0.5
0.5
0.5
0.5
0.5
0.5
0.5
0.5
0.5
0.5
0.5
0.5
0.5
0.5
0.5
0.5
0.5
0.5
0.5
0.5
0.5
0.5
0.5
0.5
0.5
0.5
0.5
0.5
0.5
0.5
0.5
0.5
0.5
0.5
0.5
0.5
0.5
0.5
0.5
0.5
0.5
0.5
0.5
0.5
0.5
0.5
0.5
0.5
0.5
0.5
0.5
0.5
0.5
0.5
0.5
0.5
0.5
0.5
0.5
0.5
0.464321
0.423339
0.406406
0.401629
0.402023
0.404322
0.407143
0.409897
0.412314
0.414216
0.41543
0.415985
0.416014
0.415736
0.414831
0.413562
0.412321
0.411552
0.411655
0.412727
0.414207
0.415975
0.418449
0.421881
0.426267
0.431267
0.436424
0.441911
0.448091
0.455008
0.462625
0.470499
0.478509
0.486309
0.493866
0.5
0.5
0.5
0.5
0.5
0.5
0.5
0.5
0.5
0.5
0.5
0.5
0.5
0.5
0.5
0.5
0.5
0.5
0.5
0.5
0.5
0.5
0.5
0.5
0.5
0.5
0.5
0.5
0.5
0.5
0.5
0.5
0.5
0.5
0.5
0.5
0.5
0.5
0.5
0.5
0.5
0.5
0.5
0.5
0.5
0.5
0.5
0.5
0.5
0.5
0.5
0.5
0.5
0.5
0.5
0.5
0.5
0.5
0.5
0.5
0.5
0.5
0.5
0.5
0.5
0.5
0.5
0.5
0.5
0.5
0.5
0.5
0.5
0.5
0.5
0.5
0.5
0.5
0.5
0.5
0.5
0.5
0.5
0.5
0.5
0.5
0.5
0.5
0.5
0.5
0.5
0.5
0.5
0.5
0.5
0.5
0.5
0.5
0.5
0.5
0.5
0.5
0.5
0.5
0.5
0.5
0.5
0.5
0.5
0.5
0.5
0.5
0.5
0.5
0.5
0.5
0.5
0.5
0.5
0.5
0.5
0.5
0.5
0.5
0.5
0.5
0.5
0.5
0.5
0.5
0.5
0.5
0.5
0.5
0.5
0.5
0.5
0.5
0.5
0.5
0.5
0.5
0.5
0.5
0.5
0.456773
0.412515
0.394939
0.390626
0.391885
0.39529
0.399407
0.403587
0.407988
0.4129
0.416836
0.420447
0.424373
0.429016
0.432591
0.435721
0.438697
0.442472
0.447232
0.452734
0.458948
0.46595
0.474149
0.483596
0.494075
0.5
0.5
0.5
0.5
0.5
0.5
0.5
0.5
0.5
0.5
0.5
0.5
0.5
0.5
0.5
0.5
0.5
0.5
0.5
0.5
0.5
0.5
0.5
0.5
0.5
0.5
0.5
0.5
0.5
0.5
0.5
0.5
0.5
0.5
0.5
0.5
0.5
0.5
0.5
0.5
0.5
0.5
0.5
0.5
0.5
0.5
0.5
0.5
0.5
0.5
0.5
0.5
0.5
0.5
0.5
0.5
0.5
0.5
0.5
0.5
0.5
0.5
0.5
0.5
0.5
0.5
0.5
0.5
0.5
0.5
0.5
0.5
0.5
0.5
0.5
0.5
0.5
0.5
0.5
0.5
0.5
0.5
0.5
0.5
0.5
0.5
0.5
0.5
0.5
0.5
0.5
0.5
0.5
0.5
0.5
0.5
0.5
0.5
0.5
0.5
0.5
0.5
0.5
0.5
0.5
0.5
0.5
0.5
0.5
0.5
0.5
0.5
0.5
0.5
0.5
0.5
0.5
0.5
0.5
0.5
0.5
0.5
0.5
0.5
0.5
0.5
0.5
0.5
0.5
0.5
0.5
0.5
0.5
0.5
0.5
0.5
0.5
0.5
0.5
0.5
0.5
0.5
0.5
0.5
0.5
0.5
0.5
0.5
0.5
0.5
0.5
0.5
0.5
0.5
0.5
0.449196
0.403839
0.387861
0.386591
0.391644
0.400493
0.412022
0.422389
0.434
0.448415
0.460759
0.472678
0.484299
0.495539
0.5
0.5
0.5
0.5
0.5
0.5
0.5
0.5
0.5
0.5
0.5
0.5
0.5
0.5
0.5
0.5
0.5
0.5
0.5
0.5
0.5
0.5
0.5
0.5
0.5
0.5
0.5
0.5
0.5
0.5
0.5
0.5
0.5
0.5
0.5
0.5
0.5
0.5
0.5
0.5
0.5
0.5
0.5
0.5
0.5
0.5
0.5
0.5
0.5
0.5
0.5
0.5
0.5
0.5
0.5
0.5
0.5
0.5
0.5
0.5
0.5
0.5
0.5
0.5
0.5
0.5
0.5
0.5
0.5
0.5
0.5
0.5
0.5
0.5
0.5
0.5
0.5
0.5
0.5
0.5
0.5
0.5
0.5
0.5
0.5
0.5
0.5
0.5
0.5
0.5
0.5
0.5
0.5
0.5
0.5
0.5
0.5
0.5
0.5
0.5
0.5
0.5
0.5
0.5
0.5
0.5
0.5
0.5
0.5
0.5
0.5
0.5
0.5
0.5
0.5
0.5
0.5
0.5
0.5
0.5
0.5
0.5
0.5
0.5
0.5
0.5
0.5
0.5
0.5
0.5
0.5
0.5
0.5
0.5
0.5
0.5
0.5
0.5
0.5
0.5
0.5
0.5
0.5
0.5
0.5
0.5
0.5
0.5
0.5
0.5
0.5
0.5
0.5
0.5
0.5
0.5
0.5
0.5
0.5
0.5
0.5
0.5
0.5
0.5
0.5
0.5
0.446687
0.406532
0.399722
0.41294
0.430871
0.456056
0.488569
0.5
0.5
0.5
0.5
0.5
0.5
0.5
0.5
0.5
0.5
0.5
0.5
0.5
0.5
0.5
0.5
0.5
0.5
0.5
0.5
0.5
0.5
0.5
0.5
0.5
0.5
0.5
0.5
0.5
0.5
0.5
0.5
0.5
0.5
0.5
0.5
0.5
0.5
0.5
0.5
0.5
0.5
0.5
0.5
0.5
0.5
0.5
0.5
0.5
0.5
0.5
0.5
0.5
0.5
0.5
0.5
0.5
0.5
0.5
0.5
0.5
0.5
0.5
0.5
0.5
0.5
0.5
0.5
0.5
0.5
0.5
0.5
0.5
0.5
0.5
0.5
0.5
0.5
0.5
0.5
0.5
0.5
0.5
0.5
0.5
0.5
0.5
0.5
0.5
0.5
0.5
0.5
0.5
0.5
0.5
0.5
0.5
0.5
0.5
0.5
0.5
0.5
0.5
0.5
0.5
0.5
0.5
0.5
0.5
0.5
0.5
0.5
0.5
0.5
0.5
0.5
0.5
0.5
0.5
0.5
0.5
0.5
0.5
0.5
0.5
0.5
0.5
0.5
0.5
0.5
0.5
0.5
0.5
0.5
0.5
0.5
0.5
0.5
0.5
0.5
0.5
0.5
0.5
0.5
0.5
0.5
0.5
0.5
0.5
0.5
0.5
0.5
0.5
0.5
0.5
0.5
0.5
0.5
0.5
0.5
0.5
0.5
0.5
0.5
0.5
0.5
0.5
0.5
0.5
0.5
0.5
0.5
0.5
0.468718
0.457731
0.481148
0.5
0.5
0.5
0.5
0.5
0.5
0.5
0.5
0.5
0.5
0.5
0.5
0.5
0.5
0.5
0.5
0.5
0.5
0.5
0.5
0.5
0.5
0.5
0.5
0.5
0.5
0.5
0.5
0.5
0.5
0.5
0.5
0.5
0.5
0.5
0.5
0.5
0.5
0.5
0.5
0.5
0.5
0.5
0.5
0.5
0.5
0.5
0.5
0.5
0.5
0.5
0.5
0.5
0.5
0.5
0.5
0.5
0.5
0.5
0.5
0.5
0.5
0.5
0.5
0.5
0.5
0.5
0.5
0.5
0.5
0.5
0.5
0.5
0.5
0.5
0.5
0.5
0.5
0.5
0.5
0.5
0.5
0.5
0.5
0.5
0.5
0.5
0.5
0.5
0.5
0.5
0.5
0.5
0.5
0.5
0.5
0.5
0.5
0.5
0.5
0.5
0.5
0.5
0.5
0.5
0.5
0.5
0.5
0.5
0.5
0.5
0.5
0.5
0.5
0.5
0.5
0.5
0.5
0.5
0.5
0.5
0.5
0.5
0.5
0.5
0.5
0.5
0.5
0.5
0.5
0.5
0.5
0.5
0.5
0.5
0.5
0.5
0.5
0.5
0.5
0.5
0.5
0.5
0.5
0.5
0.5
0.5
0.5
0.5
0.5
0.5
0.5
0.5
0.5
0.5
0.5
0.5
0.5
0.5
0.5
0.5
0.5
0.5
0.5
0.5
0.5
0.5
0.5
0.5
0.5
0.5
0.5
0.5
0.5
0.5
0.5
0.5
0.5
0.5
0.5
0.5
0.5
0.5
0.5
0.5
0.5
0.5
0.5
0.5
0.5
0.5
0.5
0.5
0.5
0.5
0.5
0.5
0.5
0.5
0.5
0.5
0.5
0.5
0.5
0.5
0.5
0.5
0.5
0.5
0.5
0.5
0.5
0.5
0.5
0.5
0.5
0.5
0.5
0.5
0.5
0.5
0.5
0.5
0.5
0.5
0.5
0.5
0.5
0.5
0.5
0.5
0.5
0.5
0.5
0.5
0.5
0.5
0.5
0.5
0.5
0.5
0.5
0.5
0.5
0.5
0.5
0.5
0.5
0.5
0.5
0.5
0.5
0.5
0.5
0.5
0.5
0.5
0.5
0.5
0.5
0.5
0.5
0.5
0.5
0.5
0.5
0.5
0.5
0.5
0.5
0.5
0.5
0.5
0.5
0.5
0.5
0.5
0.5
0.5
0.5
0.5
0.5
0.5
0.5
0.5
0.5
0.5
0.5
0.5
0.5
0.5
0.5
0.5
0.5
0.5
0.5
0.5
0.5
0.5
0.5
0.5
0.5
0.5
0.5
0.5
0.5
0.5
0.5
0.5
0.5
0.5
0.5
0.5
0.5
0.5
0.5
0.5
0.5
0.5
0.5
0.5
0.5
0.5
0.5
0.5
0.5
0.5
0.5
0.5
0.5
0.5
0.5
0.5
0.5
0.5
0.5
0.5
0.5
0.5
0.5
0.5
0.5
0.5
0.5
0.5
0.5
0.5
0.5
0.5
0.5
0.5
0.5
0.5
0.5
0.5
0.5
0.5
0.5
0.5
0.5
0.5
0.5
0.5
0.5
0.5
0.5
0.5
0.5
0.5
0.5
0.5
0.5
0.5
0.5
0.5
0.5
0.5
0.5
0.5
0.5
0.5
0.5
0.5
0.5
0.5
0.5
0.5
0.5
0.5
0.5
0.5
0.5
0.5
0.5
0.5
0.5
0.5
0.5
0.5
0.5
0.5
0.5
0.5
0.5
0.5
0.5
0.5
0.5
0.5
0.5
0.5
0.5
0.5
0.5
0.5
0.5
0.5
0.5
0.5
0.5
0.5
0.5
0.5
0.5
0.5
0.5
0.5
0.5
0.5
0.5
0.5
0.5
0.5
0.5
0.5
0.5
0.5
0.5
0.5
0.5
0.5
0.5
0.5
0.5
0.5
0.5
0.5
0.5
0.5
0.5
0.5
0.5
0.5
0.5
0.5
0.5
0.5
0.5
0.5
0.5
0.5
0.5
0.5
0.5
0.5
0.5
0.5
0.5
0.5
0.5
0.5
0.5
0.5
0.5
0.5
0.5
0.5
0.5
0.5
0.5
0.5
0.5
0.5
0.5
0.5
0.5
0.5
0.5
0.5
0.5
0.5
0.5
0.5
0.5
0.5
0.5
0.5
0.5
0.5
0.5
0.5
0.5
0.5
0.5
0.5
0.5
0.5
0.5
0.5
0.5
0.5
0.5
0.5
0.5
0.5
0.5
0.5
0.5
0.5
0.5
0.5
0.5
0.5
0.5
0.5
0.5
0.5
0.5
0.5
0.5
0.5
0.5
0.5
0.5
0.5
0.5
0.5
0.5
0.5
0.5
0.5
0.5
0.5
0.5
0.5
0.5
0.5
0.5
0.5
0.5
0.5
0.5
0.5
0.5
0.5
0.5
0.5
0.5
0.5
0.5
0.5
0.5
0.5
0.5
0.5
0.5
0.5
0.5
0.5
0.5
0.5
0.5
0.5
0.5
0.5
0.5
0.5
0.5
0.5
0.5
0.5
0.5
0.5
0.5
0.5
0.5
0.5
0.5
0.5
0.5
0.5
0.5
0.5
0.5
0.5
0.5
0.5
0.5
0.5
0.5
0.5
0.5
0.5
0.5
0.5
0.5
0.5
0.5
0.5
0.5
0.5
0.5
0.5
0.5
0.5
0.5
0.5
0.5
0.5
0.5
0.5
0.5
0.5
0.5
0.5
0.5
0.5
0.5
0.5
0.5
0.5
0.5
0.5
0.5
0.5
0.5
0.5
0.5
0.5
0.5
0.5
0.5
0.5
0.5
0.5
0.5
0.5
0.5
0.5
0.5
0.5
0.5
0.5
0.5
0.5
0.5
0.5
0.5
0.5
0.5
0.5
0.5
0.5
0.5
0.5
0.5
0.5
0.5
0.5
0.5
0.5
0.5
0.5
0.5
0.5
0.5
0.5
0.5
0.5
0.5
0.5
0.5
0.5
0.5
0.5
0.5
0.5
0.5
0.5
0.5
0.5
0.5
0.5
0.5
0.5
0.5
0.5
0.5
0.5
0.5
0.5
0.5
0.5
0.5
0.5
0.5
0.5
0.5
0.5
0.5
0.5
0.5
0.5
0.5
0.5
0.5
0.5
0.5
0.5
0.5
0.5
0.5
0.5
0.5
0.5
0.5
0.5
0.5
0.5
0.5
0.5
0.5
0.5
0.5
0.5
0.5
0.5
0.5
0.5
0.5
0.5
0.5
0.5
0.5
0.5
0.5
0.5
0.5
0.5
0.5
0.5
0.5
0.5
0.5
0.5
0.5
0.5
0.5
0.5
0.5
0.5
0.5
0.5
0.5
0.5
0.5
0.5
0.5
0.5
0.5
0.5
0.5
0.5
0.5
0.5
0.5
0.5
0.5
0.5
0.5
0.5
0.5
0.5
0.5
0.5
0.5
0.5
0.5
0.5
0.5
0.5
0.5
0.5
0.5
0.5
0.5
0.5
0.5
0.5
0.5
0.5
0.5
0.5
0.5
0.5