/*--------------------------------*- C++ -*----------------------------------*\
| =========                 |                                                 |
| \\      /  F ield         | OpenFOAM: The Open Source CFD Toolbox           |
|  \\    /   O peration     | Version:  2112                                  |
|   \\  /    A nd           | Website:  www.openfoam.com                      |
|    \\/     M anipulation  |                                                 |
\*---------------------------------------------------------------------------*/
FoamFile
{
    version     2.0;
    format      ascii;
    arch        "LSB;label=32;scalar=64";
    class       volScalarField;
    location    "0.29";
    object      ddt0(omegaU);
}
// * * * * * * * * * * * * * * * * * * * * * * * * * * * * * * * * * * * * * //

dimensions      [0 0 -2 0 0 0 0];

internalField   nonuniform List<scalar> 
12225
(
-50.4081
-534.17
-1559.34
-2949.05
-4599.61
-6640.34
-9154.04
-12153.2
-15743
-20134.7
-25600.4
-32539.7
-41566.3
-53326.2
-68494.4
-87950.9
-113537
-145392
278.615
786.335
1119.46
1218.01
1304.8
1487.74
1685.3
1872.7
2129.37
2576.84
3368.81
4719.72
6815.47
9706.56
13540.8
18676
25990.2
37800.1
45.0248
226.672
490.234
779.231
1115.86
1546.95
2028.22
2556.47
3184.94
3995.35
5121.61
6767.96
9168.96
12494
17027.3
23305.4
32244.6
45183.7
5.5369
42.2353
114.226
227.332
391.013
606.444
882.163
1213.58
1655.42
2213.63
2942.02
3958.41
5447.74
7566.1
10573.5
14874.7
21102.8
30294.8
0.512814
5.98102
20.9404
49.8221
97.3365
165.826
260.81
383.781
512.927
680.966
890.316
1152.92
1747.5
2567.17
3715.8
5342.7
7659.38
10885.4
0.171418
0.198878
1.49001
5.92236
15.2944
31.5947
57.0926
94.7802
141.652
210.643
315.001
476.711
555.686
693.385
918.761
1274.98
1816.23
2594.41
0.201903
-0.250024
-1.21052
-2.18393
-2.61444
-1.79537
1.21332
7.70943
19.369
39.7997
75.1534
136.908
185.784
253.569
343.009
457.699
604.642
794.834
0.223325
-0.0971433
-1.07287
-2.6082
-4.59131
-6.82239
-8.98043
-10.6592
-11.4323
-10.6655
-7.2358
0.91971
14.1286
33.7454
59.9517
92.1616
129.978
174.831
0.22589
0.0525958
-0.691252
-1.99884
-3.85376
-6.18592
-8.84687
-11.6618
-14.5073
-17.3286
-20.06
-22.4446
-24.4465
-26.1318
-27.4406
-28.2521
-28.5324
-27.9113
0.217537
0.16541
-0.358571
-1.38696
-2.92005
-4.92023
-7.28998
-9.91172
-12.6987
-15.617
-18.6813
-21.8489
-25.1603
-28.8183
-32.9819
-37.6968
-42.9478
-48.5172
0.20916
0.246456
-0.100354
-0.884104
-2.10977
-3.75505
-5.74976
-8.00059
-10.4284
-12.9822
-15.6402
-18.3688
-21.1492
-24.0057
-26.9625
-30.0074
-33.0853
-36.0447
0.202676
0.28362
0.0542188
-0.539942
-1.50943
-2.84481
-4.49611
-6.38628
-8.44013
-10.5951
-12.7979
-14.9891
-17.1088
-19.1003
-20.8906
-22.3797
-23.4336
-23.8828
0.159979
0.253116
0.114721
-0.314426
-1.05311
-2.10217
-3.42798
-4.96829
-6.65276
-8.41142
-10.171
-11.8483
-13.3553
-14.5984
-15.4646
-15.819
-15.4973
-14.3295
0.0969397
0.194157
0.144512
-0.123541
-0.632691
-1.3889
-2.37148
-3.5327
-4.80957
-6.12971
-7.40784
-8.54404
-9.42801
-9.94053
-9.94898
-9.31124
-7.86732
-5.46753
0.07514
0.165388
0.172472
0.0402458
-0.257981
-0.734089
-1.37799
-2.15491
-3.01195
-3.88197
-4.67837
-5.29702
-5.61949
-5.51636
-4.85039
-3.48364
-1.21376
2.01952
0.0588019
0.121784
0.145858
0.10899
-0.0175698
-0.248565
-0.580887
-0.990901
-1.43994
-1.87335
-2.21831
-2.38545
-2.27022
-1.73425
-0.674411
1.02839
3.44243
6.70061
0.0329667
0.0686733
0.0915993
0.100226
0.0832368
0.0333369
-0.0474845
-0.143794
-0.227056
-0.267468
-0.221943
-0.0336352
0.363906
1.0294
2.06348
3.55254
5.5829
8.22217
0.00290501
0.0107806
0.02421
0.052216
0.102075
0.178104
0.287883
0.439337
0.640117
0.905649
1.24755
1.67825
2.21532
2.8822
3.7098
4.73564
6.00249
7.54757
-0.0288133
-0.0529035
-0.0459845
0.00465241
0.116923
0.305299
0.580987
0.947784
1.40262
1.93664
2.53659
3.18429
3.85773
4.53301
5.18837
5.81064
6.40473
7.00408
-0.0515613
-0.0994477
-0.0898822
0.00176964
0.201636
0.527187
0.985136
1.56717
2.25275
3.01418
3.81864
4.63072
5.41484
6.13704
6.76631
7.27734
7.66163
7.9549
-0.066465
-0.135101
-0.112833
0.049007
0.370186
0.860846
1.51623
2.31128
3.20665
4.15652
5.11349
6.03291
6.87778
7.62225
8.24961
8.73911
9.04515
9.10178
-0.0966078
-0.167351
-0.0918104
0.171931
0.637042
1.30922
2.17405
3.19082
4.30214
5.44372
6.54996
7.55775
8.40894
9.05208
9.44483
9.54487
9.28437
8.57895
-0.122289
-0.159784
0.00329892
0.390829
1.01332
1.87923
2.96338
4.19911
5.49504
6.74907
7.85697
8.72336
9.27191
9.45706
9.28948
8.84079
8.23688
7.70297
-0.128211
-0.10408
0.173455
0.696411
1.4614
2.46149
3.6372
4.88652
6.11304
7.25653
8.31487
9.37822
10.6667
12.5685
15.6856
20.7105
28.414
39.7182
-0.12771
-0.0313386
0.268505
0.597627
0.872974
1.17001
1.70094
2.84305
5.15497
9.39824
16.5839
27.966
45.0033
69.3212
102.8
142.56
192.026
252.427
-0.124729
-0.532272
-2.11244
-5.42224
-9.70387
-12.2816
-9.23423
3.64118
29.6978
72.2265
134.252
218.474
327.009
461.218
622.595
788.91
980.208
1196.73
-0.654632
-8.85574
-28.1827
-55.9245
-78.3329
-68.9483
-2.4651
134.5
342.529
621.485
969.888
1385.82
1867.77
2414.05
3030.92
3757.42
4569.6
5476.36
-11.3788
-80.1042
-225.301
-390.446
-437.984
-217.223
315.447
1103.78
2070.43
3152.87
4314.13
5534.38
6806.72
8132.8
9528.34
11014.7
12601.2
14308.6
-139.46
-562.599
-1106.63
-1398.75
-1035.37
75.2007
1695.1
3495.6
5264.45
6916.51
8437.19
9834.4
11121.6
12311.4
13422.2
14466.9
15444.8
16376.8
1.39484
170.212
618.634
1363.47
2205.42
2734.49
2625.13
1831.37
488.651
-1235.84
-3209.95
-5342.42
-7579.38
-9895.87
-12302.6
-14845.5
-17571.8
-20532.6
39434.3
40076.5
43576.2
48868
56270
64848.9
73749.3
83064.6
92783.7
102963
113727
125422
138532
153219
169280
186483
204721
223955
244136
265137
286707
308405
329790
351994
392564
438410
488588
540855
592994
642939
688736
727932
756783
771308
770457
756463
730084
687916
625633
541493
436079
310852
168994
17891
-128210
-247924
-318756
-323198
-251235
-114846
15786.9
66830.9
49925.5
113444
286350
130110
-545863
-1.73208e+06
-2.83315e+06
-3.01887e+06
-2.48604e+06
-2.31105e+06
-2.04407e+06
-1.71324e+06
-1.35081e+06
-987143
-645908
-343054
-79529.2
142765
322492
462525
569709
652872
720876
778993
753871
733497
722272
716127
712781
711366
711850
714074
717763
721881
725205
726661
725261
719558
704645
679387
642169
591261
525296
443469
345666
231658
100955
-42232
-193660
-363665
-474886
-589590
-702577
-810768
-910264
-1.00173e+06
-1.09242e+06
-1.18326e+06
-1.28214e+06
-1.40031e+06
-1.54449e+06
-1.69511e+06
-1.74871e+06
-1.44007e+06
-864617
-337319
181187
647277
959147
1.01116e+06
795236
461416
195614
214965
655166
1.02092e+06
759001
-419275
-1.99664e+06
-2.9437e+06
-2.62185e+06
-2.26183e+06
-1.68863e+06
-1.01454e+06
-298105
386951
980777
1.49889e+06
1.62556e+06
1.6317e+06
1.50395e+06
1.24611e+06
866361
377653
-192023
-840335
-1.20301e+06
-1.58611e+06
-1.89639e+06
-2.12765e+06
-2.27832e+06
-2.36278e+06
-2.39225e+06
-2.37758e+06
-2.32625e+06
-2.24211e+06
-2.12641e+06
-1.9769e+06
-1.78693e+06
-1.55653e+06
-1.28772e+06
-796069
-336065
89110.3
501927
910568
1.29054e+06
1.61487e+06
1.85627e+06
1.99441e+06
2.01929e+06
1.93636e+06
1.78503e+06
1.63919e+06
1.57454e+06
1.62586e+06
1.74134e+06
1.77651e+06
117292
102363
96240.3
90746
84525
77795.8
70961
64554.2
59137.7
54683.5
50931.7
47706
45057.5
43067.5
41683.7
40808.7
40330.3
40123.7
40074.4
40082.1
40103.6
40467.9
40481.3
38682.7
19895.9
937.75
-13651.5
-20912.4
-18157.9
-4359.37
20275.7
54774.5
97290.9
144275
190241
228772
255559
270937
277923
279004
274608
262988
239813
197478
126434
22604.9
-99281.3
-207528
-268916
-266824
-229163
-247866
-422384
-886078
-1.50527e+06
-1.867e+06
-1.68604e+06
-1.29074e+06
-974281
-568362
-184077
151602
454201
708550
901046
1.02496e+06
1.08067e+06
1.09326e+06
1.04583e+06
947163
810377
650448
484162
325405
183444
53189
44967.6
38953.5
33877
29079.6
24142.4
18846.8
13096.6
6923.91
418.091
-6449.25
-13827.6
-22216.8
-32670.6
-44563.4
-48651.8
-50709.7
-51884.2
-52199
-51745.1
-50686.7
-49236.1
-47595
-45699
-42832.3
-40071.4
-42111.8
-46356.4
-47482.7
-49339.7
-53745
-61448.3
-72189.5
-89180.9
-125263
-165459
-205757
-271454
-391185
-608507
-1.00549e+06
-1.32679e+06
-1.19838e+06
-903546
-529984
-86379.6
389524
698566
599064
124096
-490374
-1.11985e+06
-1.49062e+06
-1.59933e+06
-1.30829e+06
-553622
163060
598635
878803
987049
1.0206e+06
886141
620219
301855
-51316.4
-109241
-135030
-129452
-117631
-101779
-83909.5
-64095.1
-51773
-54703.4
-76600.2
-145800
-193688
-221018
-252680
-288276
-326447
-367084
-411062
-460095
-516572
-581672
-654979
-754713
-892272
-923478
-847052
-687688
-447805
-128031
258577
634182
887756
1.00164e+06
1.02673e+06
988266
897800
784701
692378
654039
636664
200489
150544
119419
94102.6
72397.3
54069
38906.5
26693
17274.1
10009.3
4490.26
686.871
-1671.01
-2937.41
-3352.97
-3102.91
-2347.72
-1227.4
138.455
1652.53
3241.27
4858.48
6469.33
8026.29
9362.56
9400.83
8630.45
6714.29
3866.39
788.989
-1649.72
-2652.18
-1736.72
963.556
4449.33
6957.18
6480.74
1291.62
-9573.86
-25963.3
-46460.9
-68618.7
-89769.5
-108491
-126558
-150597
-190736
-254309
-337675
-432748
-572536
-889499
-1.44179e+06
-1.72897e+06
-1.02176e+06
-792691
-458174
-101962
232444
522673
745175
900889
989046
1.00805e+06
965124
872134
741244
591947
440496
303832
192848
117228
72053.4
50922.4
45880.3
54747.3
60933.9
64087.2
64370.5
62070.3
57562.7
51287.8
43596.4
34770.2
25211.6
15197.4
4945.85
-5242.02
-15022.1
-23995.8
-31719.7
-37826.5
-41945.8
-43739.7
-42922.2
-39308.9
-32913
-23878.3
-12625.9
-662.469
8814.71
5376.65
6899.18
8002.53
6729.25
2415.72
-5654.12
-17604.2
-32450.8
-48380.2
-64886.2
-83836.1
-108295
-142173
-191426
-268153
-401843
-659077
-798415
-788388
-651296
-383035
-68361.4
67799.3
-166139
-713451
-1.35953e+06
-1.78721e+06
-1.52585e+06
-367353
880834
1.07791e+06
1.08544e+06
910344
645713
372601
137092
-23880.7
-106789
-136085
-143284
-140671
-128591
-107029
-76649.9
-41433.1
-4150.53
11234.6
20389.4
25561.9
24258.6
19262.1
12218.2
3733.51
-5710.2
-15888
-26890.4
-39274.1
-54234.9
-73767.2
-101065
-143533
-218019
-434934
-623621
-791911
-900126
-913450
-803469
-582140
-274660
68780.1
384743
624887
753628
763052
683130
569793
471543
398482
238810
154336
99361.5
57499.8
25695.4
1999.09
-15366
-27796.1
-36492.7
-42372.1
-45917.9
-47600.2
-47868.3
-47046.2
-45390.9
-43115.9
-40396.6
-37378.2
-34179.5
-30893.9
-27593.9
-24334.6
-21160.2
-18099.8
-15179.1
-12506.6
-10506
-8420.3
-7270.7
-7306.92
-8654.46
-11360.2
-15491.6
-21379.5
-29977.6
-42887.1
-61843.4
-87813.6
-120110
-156122
-192042
-224378
-251302
-272981
-290875
-307636
-330452
-374259
-464382
-643786
-1.02942e+06
-1.65745e+06
-1.46894e+06
-672739
-275930
-6758.07
278505
525377
715676
839131
893735
885076
820852
714716
584552
449322
327995
232922
169376
136018
126577
132670
145571
158638
169559
173890
174149
171385
166590
160372
152991
144735
136077
126918
116970
106083
94138
81070.3
66954.8
52045.5
36747
21599.8
7352.29
-5029.79
-14298.4
-19022.6
-18016.7
-10361.5
3984.03
23477.3
39844.6
47005.4
56337
60336.9
58217.2
50301.5
37708
21288.8
1446.72
-20371.1
-41897.5
-63012.1
-84930.7
-108758
-135538
-167786
-212245
-283986
-417638
-529714
-565878
-516044
-409338
-371769
-569851
-1.02288e+06
-1.5297e+06
-1.68755e+06
-951741
589211
1.41368e+06
1.14776e+06
869360
548225
279225
95018.5
-11989.9
-67189.9
-95163.3
-113124
-120763
-118599
-106118
-82087
-49566.3
-11851.9
22971.5
40776.8
53481.6
58107.6
55660.1
49073.8
40138.9
30291.6
20438.9
11039.3
2316.71
-5724.92
-13578.1
-22021.8
-31545.2
-43679.9
-62878.1
-104931
-210302
-352832
-523086
-683423
-790268
-803669
-682372
-436841
-114395
214854
478694
627701
651656
583194
474165
365077
235240
119522
48595.8
940.958
-30417.8
-50670.3
-63441.4
-71117.2
-75270.9
-76894.5
-76702
-75195.4
-72736.1
-69578.4
-65909.2
-61875.9
-57601.2
-53191.7
-48730.3
-44285
-39907.1
-35646.8
-31551.5
-27677.2
-24097.2
-21019.8
-18914.5
-17944
-17678.9
-18732.3
-21791
-27792.5
-38190.9
-54728.9
-79057.2
-112574
-154549
-201764
-249288
-292321
-328190
-357247
-382305
-406575
-431137
-455501
-481729
-526298
-650697
-1.0196e+06
-1.77277e+06
-1.18539e+06
-498938
-47793.3
235527
444196
615806
732956
791314
791317
739432
648012
533816
416331
312702
234662
186733
166336
166410
178033
192747
204069
208016
203188
191518
178651
165958
154334
144587
137325
132574
129989
129178
129617
130674
131699
132052
131083
128174
122776
114417
102614
87256.6
68762.8
48670.3
29450.4
13762.9
5160.23
7166.7
23050.9
42539.8
67056.2
93206.9
112626
121031
117147
102522
79891.3
51422.8
19110.5
-13629.8
-43772.7
-71165.5
-96759.1
-121444
-146093
-172678
-206527
-259348
-353191
-420222
-460841
-494649
-591199
-852863
-1.28513e+06
-1.64348e+06
-1.46895e+06
-346682
1.16999e+06
1.50201e+06
960975
599259
316220
138619
39556.7
-15812
-51415.8
-77001.3
-96033.6
-104930
-103555
-90772.1
-66214.9
-32796.9
8488.5
41199.1
64535.5
78805.8
83602.8
80129.2
70943.7
58793.7
45758
33134.4
21599.4
11416.8
2682.71
-4714.5
-11322.1
-17749
-24500.7
-32922.1
-46270.2
-80816.3
-144376
-247753
-390139
-549143
-683966
-743917
-671166
-460858
-160090
154551
408083
552459
577182
508378
393611
196320
60191
-15084.2
-55068.9
-75421.7
-85331
-89401
-89962.4
-88313.7
-85246.4
-81324.7
-76939.1
-72303
-67532.1
-62681.6
-57780.3
-52846.4
-47910.2
-43005.7
-38139.7
-33364.7
-28722.5
-24168.4
-19841.7
-16045
-13161.7
-11580
-11522.5
-13173.3
-17130.1
-24804.9
-38706.8
-62118.4
-98276.4
-147910
-207518
-270980
-323006
-363252
-395459
-424172
-454769
-490611
-529452
-563641
-587067
-608526
-683171
-996482
-1.60307e+06
-1.13466e+06
-427541
61739
346496
520028
632350
699195
717649
689498
621340
525871
420003
320802
241303
187644
159144
149965
151666
155808
155868
148312
132766
111486
87876.1
66465.6
48588.4
34581.4
24372.7
17929.9
15186.9
16028.1
20005
26451
34879.7
44850.8
55966.3
67975.9
80587.2
93460.2
106155
118006
127289
131973
129696
120143
103618
81165.4
56802.3
36889.8
29570.9
32779.8
55165.4
90072.2
129391
162617
180791
179764
160495
126803
83323.1
35587.7
-10274.6
-50948.3
-86192.1
-116795
-143669
-167908
-191736
-220496
-265593
-328717
-393712
-489509
-676275
-1.01233e+06
-1.45393e+06
-1.68986e+06
-1.22578e+06
126687
1.41638e+06
1.39896e+06
798145
417070
212005
101796
40076.5
-2146.37
-36221.5
-64043.6
-83818.6
-93617.6
-93112.8
-80731
-56003.9
-20215.3
22381.7
57239.3
84051
100344
105383
100713
89271.8
74183.1
57998.5
42430.6
28434.5
16382.9
6320.18
-1760.68
-8078.18
-13546.7
-18868.3
-24742
-32390.1
-45302
-72232.6
-122319
-208048
-333362
-482292
-617117
-685551
-626990
-432113
-146284
149258
382272
508154
515634
431256
121283
-7542.54
-72131.9
-92666.5
-96769.8
-95149.9
-90972.2
-85407.8
-79169.6
-72720.7
-66418
-60491.9
-55015.7
-49927.2
-45078.9
-40346.4
-35612.1
-30875.9
-26117.5
-21118.5
-15919.8
-10660.5
-5494.81
-729.729
3241.98
6068.91
7521.24
7456.82
5482.97
-383.104
-14491.1
-41888
-83736.6
-137021
-195252
-251709
-302082
-354093
-390777
-431678
-478123
-531416
-585516
-629413
-655152
-672032
-733383
-1.00428e+06
-1.39571e+06
-1.06395e+06
-450142
86032.4
396569
550998
627993
658987
652374
609440
535928
443210
346337
259590
192497
148104
123560
112229
106179
98507.2
84989.9
64744.5
39799.2
13834.9
-9417.81
-25917.6
-40361.7
-52266.7
-60878
-65190.8
-65966
-63210.9
-56965.3
-48074.2
-37475.9
-26055.8
-14560.4
-3559.15
7160.67
18020
29591.3
42841.2
59090.4
78137.5
98726.9
116846
132307
139823
135420
117997
95229.4
71586.9
55806.5
54888.6
73434.1
110758
158843
204008
232325
235438
212482
168031
109770
47030.5
-12079.3
-64087.9
-108312
-145150
-175312
-199943
-221801
-247638
-292659
-351588
-463512
-692712
-1.07983e+06
-1.5338e+06
-1.67816e+06
-1.009e+06
426210
1.46112e+06
1.25735e+06
688518
332723
172667
97166.8
48512
8931.5
-25805.2
-54951.2
-75048.7
-85625
-86000.5
-74470.4
-48964.7
-10749.5
31675.9
69991
100245
118781
124453
118878
105314
87360.1
68074.4
49601.5
33191.9
19393.1
8273.85
-319.757
-6604.66
-11196.5
-15243.2
-19538.4
-24976.6
-33012.4
-49910.7
-73750.8
-119790
-198908
-315064
-453433
-577803
-635221
-570652
-376993
-100959
176464
382562
475131
449110
11878.9
-65909.7
-106915
-104012
-94804.1
-85637.2
-76325
-67038.5
-58291.4
-50258.7
-43238.5
-37303.6
-32306.3
-27995.1
-24090.6
-20290.6
-16359.5
-12185.9
-7587.77
-2438.96
3138.87
8956.56
14781.9
20457.9
26026.7
31872.3
38710.4
46537.9
51812.5
44991.5
20463.3
-21643.8
-74384.7
-129834
-183142
-233243
-281361
-329666
-386910
-456306
-532390
-600006
-649442
-680419
-706545
-777671
-1.03589e+06
-1.19371e+06
-971575
-462834
55974.5
398856
560954
618680
626970
603460
552295
477533
388576
298234
218482
156861
115177
90284.3
76036.7
65587.5
53445.4
36844.6
16052.4
-6497.39
-27903.2
-46567.6
-63121.7
-78255.6
-92387.8
-104175
-111412
-111946
-105756
-93787.7
-77261.8
-57922.3
-37720.5
-18412.8
-1338.11
11967.6
21332.1
27849.9
31800.2
34648.9
38151.9
45310.6
57675
72583.2
96232.4
119017
135888
142176
136195
120205
100370
84882.8
81895.8
98134.7
135609
187845
240048
274582
279181
251132
195917
124300
48581.4
-22692.2
-85699.4
-139114
-182678
-216569
-241766
-262015
-288055
-336061
-441633
-677978
-1.08468e+06
-1.53958e+06
-1.62203e+06
-842869
567278
1.40138e+06
1.13982e+06
617317
305127
175497
100548
55796.9
15881.6
-19827.2
-49943.9
-70663.1
-82256.9
-83371.3
-72707.4
-46308.1
-6121.03
37224.6
80000.8
114654
136049
142620
136162
120414
99525.8
77073.3
55639.2
36786.1
21246.6
9163.3
305.492
-5706.53
-9402.85
-11923.2
-14554.9
-18188.7
-23825.8
-34447.6
-50901.6
-77865
-125676
-204669
-316734
-445495
-553440
-588592
-507646
-305166
-33425.8
223184
390514
433894
-118626
-138480
-117812
-94537.7
-79960.4
-67750.4
-55780.2
-44905.1
-35372.9
-26997.7
-20405.5
-15442.3
-11703.4
-8730.47
-6095.1
-3396.67
-255.141
3637.46
8281.47
13755.2
20518.8
28642.3
38356.6
50805.4
67805.7
90461.3
116385
135525
137294
107723
58792.8
4881.69
-48322.6
-101535
-156128
-213085
-273452
-339241
-428164
-510024
-576656
-629797
-673250
-720310
-815707
-987912
-1.02294e+06
-855140
-457929
11468.5
365163
548107
607204
603863
570197
514356
440003
354417
268370
192207
132548
91098.5
65280.9
49865.9
38922
27598.7
13285.9
-4219.59
-23624.4
-43662.6
-64325.6
-86889.6
-110716
-133432
-151838
-163296
-165631
-157321
-137515
-108813
-74983.3
-39536.4
-5354.85
25474.1
51781.4
72085.3
83432.9
90726.3
92855
91844.3
84858.2
78988.1
75148.1
76097.3
83767.9
98062.3
115994
132377
141958
141592
132085
118512
107800
107641
125289
163892
218174
272914
308149
309313
273084
206715
123567
36937.1
-45075.3
-118198
-180261
-229999
-266733
-291806
-312149
-346286
-434270
-653583
-1.0499e+06
-1.48933e+06
-1.53582e+06
-731863
587724
1.29206e+06
1.05464e+06
588271
306413
179699
114570
66796.3
20472.7
-17074.7
-49023.2
-70531.4
-83369
-85626.8
-72807.1
-47552
-8978.61
38370.4
86618.8
126809
152263
160596
153624
135670
111624
85712
61032.3
39507
22070.4
8942.71
-141.723
-5663.19
-8303.36
-9213.98
-9916.04
-11364.9
-14518.3
-21255.1
-33968
-52917.8
-84067.3
-136746
-219228
-329650
-447699
-534230
-542197
-435100
-216910
50155.4
273626
385184
-257730
-175070
-102122
-76642.4
-63363.2
-49551.2
-35975.9
-25927.6
-15244.2
-6972.91
-1414.46
2268.32
4732.85
6645.53
8620.15
11256.5
15167.5
20876.7
28776.3
39554.8
54159.2
73826.2
99932.8
132659
167984
196238
207141
201634
170027
118590
71509.2
23091.3
-30883.8
-89361.3
-151727
-217796
-289193
-370337
-458848
-522686
-584575
-646946
-720749
-796862
-850718
-860032
-728242
-423053
-30904.2
308045
509646
584556
584126
547540
490573
417911
335449
252285
177679
117933
75171
47719.4
31329.6
20728.5
11130.7
-676.394
-16022.6
-34933.5
-57260.1
-83521.3
-114546
-149632
-181109
-204483
-216119
-214515
-199323
-170845
-130171
-80604
-27559.9
23463.4
68571.1
105736
135588
160696
168275
173948
174092
169561
160999
149539
136898
125415
117967
117057
122926
132953
142720
148042
146714
139512
130290
124619
128933
150066
191422
247577
301732
332267
324620
277194
199660
106736
10686.9
-80774.5
-162846
-232267
-286597
-324996
-350680
-377386
-445350
-632823
-994105
-1.4016e+06
-1.43202e+06
-668022
527637
1.15901e+06
990614
590119
323082
193420
125459
72787.5
26156.4
-14316.1
-48835.1
-71756.9
-84684.5
-87490.5
-78753.9
-54884.1
-15351.3
35826
89896.5
136451
166991
178017
171119
151140
123792
94091.9
65763.9
41176
21520.9
7111.1
-2327.09
-7363.7
-8842.37
-8066.06
-6419.66
-4972.53
-4925.85
-7952.48
-17454.1
-32132.9
-54939
-92071.9
-151971
-239753
-348333
-452819
-513678
-487809
-347485
-112507
137199
307342
-386280
-163561
-68641.9
-62876.7
-50237.5
-34361.6
-19912.8
-8190.73
643.872
6953.35
11405.4
14638.2
17309.9
20271.1
24495.8
31001.7
40809.6
54925.6
74405.6
100190
132267
168491
203666
230229
241433
234923
214665
187460
157258
122785
81426.1
32359
-22293.7
-78761.7
-148761
-221391
-297473
-374044
-438015
-500578
-566913
-628389
-681758
-708551
-689823
-579283
-358354
-56120.4
238427
444716
541361
556836
527711
474801
406213
327592
246957
172955
111934
66646.1
36426.6
18080.1
7018.37
-1518.95
-11426.7
-25210.5
-44141.8
-68949.1
-100347
-138291
-179780
-216391
-242084
-251864
-243727
-219130
-180248
-128656
-66597.1
1601.56
68568.6
128382
178456
211179
235369
250303
257415
258115
253623
244976
232976
218409
202208
185640
170598
159493
154292
154912
158562
161190
159949
154310
146073
138659
136210
144133
169295
214764
272872
323507
344405
323694
263533
175631
74134.3
-30231.3
-129962
-219535
-294590
-352162
-392031
-421170
-473851
-623672
-932702
-1.29396e+06
-1.32049e+06
-637844
420687
1.01309e+06
933553
606602
352063
213440
136076
78916.7
30993.5
-10665.6
-46925.8
-73241.4
-89194.2
-94441.7
-86748.6
-63596.3
-23313.5
31103.5
90968.5
144321
180655
195025
188575
166602
135695
101772
69290.3
41147.7
18851.8
2840.59
-7144.36
-11738.2
-11943.2
-9050.96
-4266.44
997.581
5094.51
6232.55
909.661
-10739.1
-28875.9
-57370.5
-102619
-171421
-264447
-368684
-455110
-483975
-417010
-240776
-585.211
207921
-491144
-87860.1
-62887.9
-57829.6
-42702
-25857.4
-11135.4
819.806
9863.75
16604.5
21965.2
27003.3
32812.1
40492.9
51351.9
66610.9
87138.1
113101
143415
175283
204336
225824
236688
237237
230867
221431
210262
195376
173374
141804
99962
48610.7
-10330.5
-74287.3
-140482
-206040
-269194
-331812
-386822
-444622
-494945
-531925
-545426
-518976
-434673
-277562
-61964.2
169015
358405
471768
511572
500712
459736
399586
327117
250015
176754
114087
65534
31435.6
9681.93
-3432.39
-12350.3
-21328.1
-33745.4
-51870.1
-76968.9
-109603
-149095
-190926
-223113
-248160
-258333
-248439
-219715
-176224
-121129
-55460.5
18395.2
94512.3
163618
215405
251836
275080
288476
294853
296119
293321
287071
277834
266032
252091
236556
220197
204196
190270
180419
175802
175447
176120
174190
168027
158621
148635
141306
140067
150805
181220
232383
291451
334643
341644
305796
233132
136041
26834.8
-84936.1
-191744
-287335
-366696
-426645
-468081
-514909
-629668
-877914
-1.18215e+06
-1.20907e+06
-627579
292153
859480
871475
624130
388803
239939
150149
86962.1
36620.6
-6404.25
-45348.2
-75918.1
-95095.9
-102959
-96874.3
-73719.7
-31960.5
25863.6
91499.6
151710
194228
212259
206287
182029
147017
108187
70857.7
38561.1
13163.3
-4741.04
-15369.2
-19422.3
-17892.3
-11973.9
-3094.78
6799.4
15646.7
21457.2
21631.6
12955.1
-2038.24
-25569.6
-61984.1
-117280
-195420
-291523
-386564
-447974
-436718
-323412
-120080
99440.1
-480643
-78507.9
-64209.5
-58079.6
-41730.1
-24347.8
-8857.83
4373.04
15276.6
24435.3
32887
42036
53210.8
67430.3
85454.2
107309
131913
157015
179589
196845
207511
212615
215002
217558
221258
224437
223708
215542
197309
167510
125819
73295.3
12535.3
-52667.4
-118028
-179570
-234720
-282957
-328203
-365294
-390101
-396141
-374317
-314395
-209557
-63071.5
104708
261908
378851
442492
457792
437347
392064
329942
258990
187863
124038
72086.4
33414.2
6957.24
-10001.6
-21137.4
-30520.7
-42089
-58773.9
-82370.7
-113617
-151517
-190540
-206833
-212243
-224246
-226307
-207812
-173742
-129987
-76980.7
-12326.6
59959.7
127640
179029
209507
221219
220376
213935
207186
202759
200942
200723
200749
199845
197217
192534
185960
178191
170527
164754
162503
164117
167773
169989
167716
160342
149795
139212
131765
131595
147233
186206
244030
300793
331864
322361
271566
187842
82659.9
-33518.8
-151875
-264684
-365157
-447681
-508858
-560979
-650141
-838265
-1.07944e+06
-1.1045e+06
-626541
159658
702544
796875
631801
426439
272420
170172
98800.4
44218.3
-1397.22
-43730.2
-79217
-102025
-112229
-107468
-84459.5
-41052.6
20876.6
92688.3
160114
208954
230524
224633
197426
157441
112758
69705.7
32567
3651.71
-16286.2
-27396.6
-30374.8
-26217.4
-16304.7
-2663.51
12289
26225.9
37026
42504.5
38149.1
26402.8
6311.71
-24727.5
-71153.9
-137513
-223528
-318034
-396403
-423538
-364400
-209486
-3374.48
-432308
-74867.3
-70214.1
-64713.3
-49024.1
-30889.4
-13250
2694.43
16763.7
29616.5
42287.3
55830.4
71056.5
88285.4
107065
126088
143487
157516
167410
173977
179431
186364
196395
209300
223099
234836
241365
239728
227267
201878
162577
110145
47425.2
-20951.8
-89394.1
-152375
-205709
-247858
-278800
-297187
-300404
-284261
-243678
-174600
-77168.9
41090.6
164517
273675
352690
394513
400614
376951
330853
270367
204295
140888
86065.5
42625.7
10660.4
-11580.3
-26909.1
-38669.9
-49781.3
-65831.6
-89150.1
-117363
-149164
-176140
-180724
-157085
-161485
-171812
-176727
-171236
-156404
-136398
-106951
-59723.1
-602.332
51319.5
80543.2
82353.2
60718.1
25126.7
-12991.3
-43933.4
-62156.3
-66625.7
-59502.4
-44384.5
-24986
-4435.27
14999.8
31973.8
46063.2
57764.5
68403.4
79707.1
92865.1
107414
120862
129787
131951
127729
119575
110650
104700
109240
135629
186822
249147
298154
313305
287062
223065
129999
17615.8
-104939
-229194
-347174
-451389
-536016
-603320
-680549
-817844
-995980
-1.0131e+06
-628639
34336
547241
707500
621705
456977
307661
196383
115859
55062.2
5112.59
-41533.4
-82552.5
-109196
-121570
-117623
-94247
-48883.5
17232.2
95600.6
170803
225920
250482
243786
212507
166305
114583
64897.4
22374.3
-10229.6
-31995.8
-43013.2
-43969
-36172
-21622.7
-2963.67
17018.3
35844.8
51448.6
62014
62919.5
55292.2
38594.5
11409.8
-29169
-86985.8
-163748
-253649
-339074
-390729
-373797
-266858
-89494.1
-352060
-74722.8
-80872.6
-77383.9
-62514.1
-43744.2
-24207
-5546.11
11838.8
28273.8
44150.5
59738.3
75182
90224.5
104076
115769
124706
131181
136559
142907
152204
165541
182751
202571
223077
242015
256846
264624
262034
245849
213788
165451
102945
30866.6
-44288.4
-115298
-175333
-219403
-247295
-257901
-250740
-224553
-177955
-110703
-25456.2
70882.2
167413
251575
312698
344674
346636
322107
277622
221303
161659
105754
57865.3
19046.8
-8635.34
-29265.3
-45435.1
-59839.9
-75271.6
-94081.6
-117839
-141965
-160311
-161832
-138106
-105527
-109479
-132485
-164510
-193368
-215609
-233097
-233499
-199699
-143005
-93080
-69820.5
-80727.8
-125175
-194550
-274029
-347527
-402746
-433593
-439745
-424782
-394127
-353474
-307843
-261125
-215929
-173572
-134145
-96807
-60500.8
-25026.9
8127.38
36039.8
55863.1
66573.5
69342.4
66507.5
61507.6
61361.8
78684.2
122353
185181
245826
281562
279442
238172
163206
62179.2
-56773.4
-185284
-314907
-437040
-544875
-633718
-713395
-815828
-937901
-940687
-632406
-78231.7
398548
605701
590210
472883
339570
226011
137810
69661.4
13859.7
-37898.4
-84752
-115120
-129517
-126256
-102196
-54339.9
16667.4
102225
185166
246055
272586
263636
226671
172703
112665
55528.4
7345.89
-28755.7
-51710.8
-61619.7
-59416.2
-47008
-27263.5
-3573.33
20860.1
43580.6
62908.2
77673.6
84321.2
81834.9
69408.1
46102.9
10088
-41430.8
-110550
-194595
-281397
-347484
-361314
-296337
-154215
-250486
-80436.8
-92449.2
-92733.2
-80630
-63173.1
-43415.3
-23183.1
-3405.82
15378.6
32734.1
48346.4
61966.6
73327.7
82264.5
88965.9
94172.9
99192.4
105646
115024
128256
145520
166345
189864
215008
240465
264411
284177
296147
296120
280177
245832
193052
124747
46585.8
-33481.5
-106954
-164163
-204177
-222449
-219139
-195037
-151425
-90506.3
-16224
65127.5
145083
214229
264169
289605
289264
266380
230192
173477
118602
71417.5
30626.4
-3038.53
-28983.7
-49821.7
-67568.9
-83968.1
-100620
-117744
-134092
-144744
-143029
-123186
-89561.7
-69051.4
-88684.2
-144140
-221061
-295347
-356974
-406085
-417891
-365080
-272710
-185534
-127292
-110744
-144811
-227681
-344207
-471957
-589613
-682029
-741440
-766649
-761139
-730926
-682761
-622958
-556762
-488087
-419459
-352184
-286838
-224035
-165264
-113057
-70173
-38294.6
-17494.2
-6785.03
-3767
-1709.97
12505.2
51242.7
112857
180406
231822
251217
232999
179226
95199.3
-12918.2
-138080
-272022
-405493
-532925
-645367
-739543
-826495
-905972
-891063
-640556
-179779
256498
493478
536666
468805
361417
254309
162554
87665.8
25478.1
-30696.2
-82860.9
-117571
-134434
-132067
-107282
-56419.1
20461.4
114057
204791
270471
297144
283804
239114
175679
106133
40932.6
-12933
-51969.8
-75045.9
-82395.2
-75466.6
-57172.1
-31651.8
-3330.82
24220.4
48885.5
69802.9
86827.5
98617
101835
94966
76776.3
45753.3
-146.191
-62715.3
-140772
-225935
-299737
-334908
-304113
-197598
-143273
-84932.4
-102814
-109161
-103523
-91128.4
-73983.9
-54684.5
-34667.4
-15046.6
3295.78
19694.6
33567.5
44677.9
53192.9
59783
65543.9
71765.3
79690.7
90277.2
104047
121093
141209
164073
189361
216685
245322
273805
299549
318756
326796
319076
292237
245356
180750
104332
25581.8
-51633.5
-112751
-151720
-166557
-157804
-127711
-79877.4
-19274.6
47701.7
113441
170262
211958
239185
239094
201917
171079
121929
78271.7
39025.9
4337.69
-25237.3
-49479.1
-69633.8
-86807.2
-101724
-114614
-124514
-128978
-124070
-106245
-76430.3
-47144.4
-51135.5
-107498
-217699
-353977
-474231
-560404
-612812
-592401
-467873
-291226
-124827
9358.37
96034.6
113539
51376
-79132.4
-251402
-436048
-608642
-751844
-856291
-919716
-944850
-937186
-903220
-849378
-781419
-704178
-621487
-536585
-452181
-371127
-296519
-231280
-177530
-136390
-108422
-92697
-83170.7
-66274.5
-28421.3
32599.2
104392
167381
204990
208822
177649
114211
22680.6
-92076.1
-223391
-362191
-504628
-637608
-751620
-841189
-898467
-869288
-656920
-266897
131962
384932
471105
445915
367418
273591
183912
105261
37489.8
-23225.9
-78676.4
-116442
-135479
-134153
-108504
-53726.1
30487.4
133234
231627
300385
324491
303852
248852
173954
93661.8
19992.7
-39181.6
-80062.8