/*--------------------------------*- C++ -*----------------------------------*\
| =========                 |                                                 |
| \\      /  F ield         | OpenFOAM: The Open Source CFD Toolbox           |
|  \\    /   O peration     | Version:  2112                                  |
|   \\  /    A nd           | Website:  www.openfoam.com                      |
|    \\/     M anipulation  |                                                 |
\*---------------------------------------------------------------------------*/
FoamFile
{
    version     2.0;
    format      ascii;
    arch        "LSB;label=32;scalar=64";
    class       volVectorField;
    location    "0.29";
    object      U_0;
}
// * * * * * * * * * * * * * * * * * * * * * * * * * * * * * * * * * * * * * //

dimensions      [0 1 -1 0 0 0 0];

internalField   nonuniform List<vector> 
12225
(
(9.62253 0.111012 0)
(8.81117 0.173479 0)
(7.96806 0.172784 0)
(7.17809 0.154114 0)
(6.50728 0.12704 0)
(5.97291 0.0971552 0)
(5.56708 0.0695817 0)
(5.27314 0.0470501 0)
(5.06903 0.0302681 0)
(4.93093 0.0188863 0)
(4.83781 0.0118972 0)
(4.77358 0.00827736 0)
(4.72673 0.00717368 0)
(4.68989 0.0076744 0)
(4.65763 0.00916615 0)
(4.62966 0.0116917 0)
(4.58393 0.0294269 0)
(4.53278 0.00251245 0)
(10.1387 0.122399 0)
(10.3668 0.185235 0)
(10.4427 0.19304 0)
(10.3841 0.19201 0)
(10.2317 0.181161 0)
(10.0183 0.160969 0)
(9.76988 0.135891 0)
(9.50669 0.110274 0)
(9.24266 0.0872302 0)
(8.98537 0.0682575 0)
(8.73859 0.0534977 0)
(8.50432 0.0425324 0)
(8.2833 0.0346521 0)
(8.07605 0.0292691 0)
(7.88082 0.0255508 0)
(7.69786 0.025232 0)
(7.53104 0.0274464 0)
(7.40218 0.0581525 0)
(10.0378 0.0790819 0)
(10.143 0.135038 0)
(10.243 0.159354 0)
(10.3242 0.177259 0)
(10.385 0.184388 0)
(10.4228 0.180895 0)
(10.4332 0.171056 0)
(10.4175 0.159097 0)
(10.3807 0.147998 0)
(10.3282 0.13926 0)
(10.2644 0.133037 0)
(10.1927 0.128973 0)
(10.1156 0.126551 0)
(10.0345 0.125031 0)
(9.95191 0.124158 0)
(9.86861 0.124161 0)
(9.79023 0.125251 0)
(9.70709 0.121799 0)
(10.0197 0.0619816 0)
(10.0832 0.119862 0)
(10.1463 0.145439 0)
(10.2007 0.160683 0)
(10.2514 0.167101 0)
(10.2946 0.164916 0)
(10.3269 0.157196 0)
(10.3479 0.147512 0)
(10.3597 0.138198 0)
(10.3668 0.130656 0)
(10.3703 0.125193 0)
(10.3713 0.121729 0)
(10.3706 0.119923 0)
(10.3687 0.119242 0)
(10.3664 0.119269 0)
(10.3642 0.119573 0)
(10.3639 0.119772 0)
(10.3639 0.113518 0)
(10.0121 0.0511063 0)
(10.0605 0.107227 0)
(10.1117 0.132898 0)
(10.1561 0.147682 0)
(10.1975 0.15448 0)
(10.2343 0.15359 0)
(10.2643 0.14797 0)
(10.2873 0.140669 0)
(10.3044 0.133633 0)
(10.3165 0.127574 0)
(10.3261 0.122736 0)
(10.3344 0.119236 0)
(10.3434 0.117144 0)
(10.3536 0.116046 0)
(10.3652 0.115422 0)
(10.3782 0.114739 0)
(10.3931 0.113292 0)
(10.41 0.108898 0)
(10.0082 0.0419868 0)
(10.0462 0.0942159 0)
(10.0909 0.120402 0)
(10.1311 0.135473 0)
(10.1679 0.142877 0)
(10.2016 0.143539 0)
(10.2305 0.139712 0)
(10.2541 0.133918 0)
(10.2734 0.127863 0)
(10.2888 0.122397 0)
(10.302 0.118018 0)
(10.3141 0.11482 0)
(10.3258 0.112465 0)
(10.338 0.110484 0)
(10.3514 0.108669 0)
(10.3661 0.10667 0)
(10.3823 0.103863 0)
(10.4 0.0987965 0)
(10.006 0.0348088 0)
(10.036 0.0819169 0)
(10.0749 0.107792 0)
(10.1118 0.123107 0)
(10.1459 0.13109 0)
(10.1773 0.132757 0)
(10.2049 0.130127 0)
(10.2284 0.125498 0)
(10.2486 0.120573 0)
(10.2664 0.116128 0)
(10.2825 0.112356 0)
(10.2976 0.109325 0)
(10.3117 0.106695 0)
(10.3257 0.104257 0)
(10.3402 0.101801 0)
(10.3556 0.098953 0)
(10.3721 0.0951493 0)
(10.3897 0.0894334 0)
(10.0045 0.0290173 0)
(10.0284 0.071059 0)
(10.062 0.0958439 0)
(10.0955 0.110894 0)
(10.127 0.119129 0)
(10.1564 0.121554 0)
(10.1827 0.119935 0)
(10.2055 0.116265 0)
(10.2257 0.112037 0)
(10.244 0.107991 0)
(10.2612 0.10437 0)
(10.2777 0.101332 0)
(10.2938 0.098734 0)
(10.3098 0.0961628 0)
(10.3258 0.0932586 0)
(10.3421 0.089675 0)
(10.3589 0.084961 0)
(10.3764 0.078554 0)
(10.0035 0.0242078 0)
(10.0225 0.0613045 0)
(10.0515 0.0845845 0)
(10.0817 0.0990841 0)
(10.1106 0.107329 0)
(10.1379 0.110317 0)
(10.1628 0.109541 0)
(10.1848 0.106675 0)
(10.2045 0.102982 0)
(10.2226 0.0991635 0)
(10.2396 0.0955419 0)
(10.2562 0.0922891 0)
(10.2727 0.0893084 0)
(10.2892 0.0862631 0)
(10.3059 0.0828119 0)
(10.3228 0.078614 0)
(10.3399 0.0732692 0)
(10.3571 0.0664115 0)
(10.0027 0.0201782 0)
(10.0181 0.0524688 0)
(10.0429 0.0739174 0)
(10.0699 0.0876648 0)
(10.0963 0.0957483 0)
(10.1216 0.0991043 0)
(10.145 0.0989836 0)
(10.1661 0.0967876 0)
(10.1852 0.0935952 0)
(10.2029 0.0900464 0)
(10.2196 0.0864641 0)
(10.2357 0.0829945 0)
(10.2517 0.0795758 0)
(10.2678 0.0759883 0)
(10.2841 0.0719639 0)
(10.3007 0.0672042 0)
(10.3172 0.0613688 0)
(10.3339 0.0542153 0)
(10.0022 0.0167624 0)
(10.0146 0.0445142 0)
(10.0357 0.0638695 0)
(10.0597 0.0766432 0)
(10.0838 0.0843825 0)
(10.1071 0.0879081 0)
(10.129 0.0882529 0)
(10.1492 0.0865837 0)
(10.1677 0.0838198 0)
(10.185 0.0805274 0)
(10.2013 0.0770041 0)
(10.217 0.0733783 0)
(10.2324 0.0696155 0)
(10.2478 0.0655577 0)
(10.2633 0.0609934 0)
(10.2789 0.0556909 0)
(10.2943 0.0493973 0)
(10.3099 0.0419709 0)
(10.0018 0.0140212 0)
(10.0121 0.0379626 0)
(10.0303 0.0552306 0)
(10.0517 0.0669124 0)
(10.0737 0.0741695 0)
(10.0953 0.0776763 0)
(10.116 0.0782822 0)
(10.1352 0.0769614 0)
(10.1532 0.0744978 0)
(10.1699 0.0713898 0)
(10.1859 0.0679109 0)
(10.2012 0.0641796 0)
(10.2162 0.0601765 0)
(10.231 0.0557792 0)
(10.2456 0.0508197 0)
(10.2603 0.0451227 0)
(10.2747 0.0385063 0)
(10.289 0.0309012 0)
(10.0014 0.011613 0)
(10.01 0.0320321 0)
(10.0256 0.0471456 0)
(10.0447 0.0575947 0)
(10.0648 0.0642304 0)
(10.0849 0.0675727 0)
(10.1043 0.0683027 0)
(10.1226 0.0672198 0)
(10.1399 0.0649805 0)
(10.1562 0.0620158 0)
(10.1717 0.0585717 0)
(10.1866 0.0547577 0)
(10.2011 0.0505673 0)
(10.2153 0.0459103 0)
(10.2293 0.0406588 0)
(10.243 0.0346845 0)
(10.2564 0.0278599 0)
(10.2696 0.0201669 0)
(10.001 0.00933314 0)
(10.0081 0.0259289 0)
(10.0212 0.0385306 0)
(10.0379 0.0474193 0)
(10.056 0.0531606 0)
(10.0744 0.05613 0)
(10.0925 0.0568325 0)
(10.1099 0.0558838 0)
(10.1263 0.0538069 0)
(10.142 0.0509562 0)
(10.1569 0.047541 0)
(10.1713 0.0436584 0)
(10.1852 0.0393142 0)
(10.1988 0.0344506 0)
(10.2119 0.0289808 0)
(10.2248 0.0228208 0)
(10.2371 0.015894 0)
(10.2491 0.00821532 0)
(10.0006 0.00720807 0)
(10.0066 0.0200118 0)
(10.0174 0.0295693 0)
(10.0318 0.0364611 0)
(10.0479 0.0409769 0)
(10.0646 0.0433113 0)
(10.0813 0.0437824 0)
(10.0975 0.0428198 0)
(10.1131 0.0408107 0)
(10.128 0.0380273 0)
(10.1423 0.0346343 0)
(10.156 0.0307115 0)
(10.1692 0.0262727 0)
(10.182 0.0212876 0)
(10.1943 0.015707 0)
(10.2061 0.00948776 0)
(10.2174 0.0025974 0)
(10.2282 -0.00492858 0)
(10.0005 0.00496962 0)
(10.0055 0.013985 0)
(10.0147 0.0203433 0)
(10.027 0.0248565 0)
(10.0411 0.0277704 0)
(10.0561 0.0291321 0)
(10.0713 0.0290923 0)
(10.0863 0.0279077 0)
(10.101 0.0258305 0)
(10.1151 0.0230458 0)
(10.1286 0.0196664 0)
(10.1417 0.0157485 0)
(10.1541 0.0113059 0)
(10.166 0.0063266 0)
(10.1774 0.00079025 0)
(10.1882 -0.00531466 0)
(10.1983 -0.0119868 0)
(10.208 -0.0191792 0)
(10.0004 0.00267538 0)
(10.0049 0.00751138 0)
(10.013 0.0106716 0)
(10.0236 0.0126128 0)
(10.0361 0.013577 0)
(10.0495 0.0135821 0)
(10.0634 0.0126861 0)
(10.0773 0.0110108 0)
(10.091 0.00868554 0)
(10.1044 0.00580547 0)
(10.1172 0.00242608 0)
(10.1295 -0.0014291 0)
(10.1412 -0.00575764 0)
(10.1523 -0.0105668 0)
(10.1628 -0.0158628 0)
(10.1726 -0.0216398 0)
(10.1818 -0.0278775 0)
(10.1903 -0.0345265 0)
(10.0004 0.000189185 0)
(10.0045 0.000421267 0)
(10.0119 0.000123473 0)
(10.0216 -0.000700239 0)
(10.0331 -0.00198295 0)
(10.0455 -0.00368645 0)
(10.0585 -0.00577845 0)
(10.0716 -0.00822224 0)
(10.0847 -0.0109872 0)
(10.0974 -0.0140613 0)
(10.1096 -0.0174504 0)
(10.1213 -0.0211727 0)
(10.1324 -0.0252503 0)
(10.1428 -0.0297027 0)
(10.1526 -0.0345397 0)
(10.1617 -0.0397564 0)
(10.1701 -0.0453296 0)
(10.1778 -0.051215 0)
(10.0004 -0.00262331 0)
(10.0044 -0.00766061 0)
(10.0116 -0.0120198 0)
(10.0212 -0.016018 0)
(10.0326 -0.0199069 0)
(10.045 -0.0236483 0)
(10.0578 -0.027214 0)
(10.0708 -0.0306309 0)
(10.0837 -0.0339573 0)
(10.0962 -0.0372641 0)
(10.1082 -0.0406253 0)
(10.1196 -0.0441112 0)
(10.1303 -0.0477826 0)
(10.1404 -0.051687 0)
(10.1497 -0.0558558 0)
(10.1583 -0.0603047 0)
(10.1662 -0.0650322 0)
(10.1735 -0.070019 0)
(10.0004 -0.00540325 0)
(10.0047 -0.0156347 0)
(10.0127 -0.0240442 0)
(10.0233 -0.0313364 0)
(10.0359 -0.0378466 0)
(10.0493 -0.043538 0)
(10.0632 -0.0484214 0)
(10.077 -0.0526146 0)
(10.0904 -0.0562854 0)
(10.1034 -0.0596019 0)
(10.1156 -0.0627165 0)
(10.1271 -0.065762 0)
(10.1377 -0.0688483 0)
(10.1476 -0.0720592 0)
(10.1567 -0.0754527 0)
(10.1651 -0.0790676 0)
(10.1727 -0.0829321 0)
(10.1797 -0.0870635 0)
(10.0006 -0.00798283 0)
(10.0058 -0.0226353 0)
(10.015 -0.0348035 0)
(10.0276 -0.0451256 0)
(10.0419 -0.0538197 0)
(10.0569 -0.0609591 0)
(10.0721 -0.0666717 0)
(10.087 -0.071209 0)
(10.1013 -0.0748654 0)
(10.1148 -0.0779082 0)
(10.1273 -0.0805643 0)
(10.1389 -0.0830259 0)
(10.1496 -0.0854495 0)
(10.1593 -0.087954 0)
(10.1682 -0.0906189 0)
(10.1763 -0.0934865 0)
(10.1836 -0.096577 0)
(10.1902 -0.099899 0)
(10.0011 -0.0107443 0)
(10.0076 -0.0301696 0)
(10.0194 -0.0462156 0)
(10.0345 -0.0591994 0)
(10.051 -0.0696634 0)
(10.0679 -0.0778529 0)
(10.0848 -0.0840194 0)
(10.1009 -0.0885623 0)
(10.1161 -0.0919084 0)
(10.1302 -0.094422 0)
(10.1431 -0.0964037 0)
(10.1548 -0.0981062 0)
(10.1653 -0.0997344 0)
(10.1748 -0.101444 0)
(10.1833 -0.103339 0)
(10.1909 -0.105463 0)
(10.1977 -0.107805 0)
(10.2037 -0.110325 0)
(10.0016 -0.0141954 0)
(10.0104 -0.0390824 0)
(10.0256 -0.0584865 0)
(10.0438 -0.0735754 0)
(10.0629 -0.0854108 0)
(10.082 -0.0943073 0)
(10.1007 -0.100601 0)
(10.1183 -0.104843 0)
(10.1344 -0.107594 0)
(10.1491 -0.109315 0)
(10.1622 -0.110386 0)
(10.1737 -0.111137 0)
(10.184 -0.111828 0)
(10.1929 -0.11265 0)
(10.2008 -0.113735 0)
(10.2077 -0.115114 0)
(10.2137 -0.116721 0)
(10.2189 -0.118464 0)
(10.0023 -0.018427 0)
(10.0145 -0.0491581 0)
(10.034 -0.0715022 0)
(10.0558 -0.0883245 0)
(10.0777 -0.101249 0)
(10.0992 -0.110513 0)
(10.1198 -0.116544 0)
(10.1387 -0.120102 0)
(10.1557 -0.121937 0)
(10.1708 -0.122611 0)
(10.1839 -0.122553 0)
(10.1952 -0.122161 0)
(10.2049 -0.121753 0)
(10.213 -0.121548 0)
(10.2199 -0.121723 0)
(10.2258 -0.1223 0)
(10.2307 -0.123146 0)
(10.2347 -0.124131 0)
(10.0034 -0.0237812 0)
(10.0207 -0.0609678 0)
(10.0455 -0.0855713 0)
(10.0709 -0.103463 0)
(10.0956 -0.117 0)
(10.1195 -0.126195 0)
(10.142 -0.13156 0)
(10.1623 -0.134087 0)
(10.1803 -0.134747 0)
(10.1959 -0.134211 0)
(10.2092 -0.132916 0)
(10.2202 -0.131286 0)
(10.2292 -0.129676 0)
(10.2363 -0.128318 0)
(10.2419 -0.127386 0)
(10.2461 -0.126919 0)
(10.2493 -0.126883 0)
(10.2518 -0.127161 0)
(10.0055 -0.0310596 0)
(10.0304 -0.0748429 0)
(10.0611 -0.100148 0)
(10.0902 -0.118016 0)
(10.1179 -0.131588 0)
(10.145 -0.140524 0)
(10.1704 -0.145294 0)
(10.1933 -0.146937 0)
(10.2133 -0.146364 0)
(10.23 -0.144234 0)
(10.2436 -0.141323 0)
(10.2542 -0.138236 0)
(10.2622 -0.135355 0)
(10.268 -0.132861 0)
(10.272 -0.131191 0)
(10.2743 -0.130313 0)
(10.2756 -0.129834 0)
(10.2762 -0.129769 0)
(10.01 -0.0404529 0)
(10.0458 -0.0876174 0)
(10.0851 -0.113688 0)
(10.1209 -0.13267 0)
(10.1551 -0.146437 0)
(10.189 -0.154759 0)
(10.221 -0.158508 0)
(10.2497 -0.158843 0)
(10.274 -0.156947 0)
(10.2932 -0.153324 0)
(10.3076 -0.148445 0)
(10.3176 -0.143242 0)
(10.3238 -0.13833 0)
(10.3269 -0.13404 0)
(10.3274 -0.130577 0)
(10.3267 -0.128091 0)
(10.3252 -0.126498 0)
(10.3229 -0.125808 0)
(10.0208 -0.0544227 0)
(10.0804 -0.100146 0)
(10.1456 -0.124458 0)
(10.2055 -0.147062 0)
(10.2612 -0.164702 0)
(10.3125 -0.175124 0)
(10.3552 -0.179681 0)
(10.3867 -0.179681 0)
(10.4064 -0.176132 0)
(10.4162 -0.170452 0)
(10.4165 -0.163749 0)
(10.4083 -0.156933 0)
(10.3928 -0.150627 0)
(10.3713 -0.145223 0)
(10.3451 -0.141077 0)
(10.3152 -0.138418 0)
(10.2821 -0.137017 0)
(10.2476 -0.136886 0)
(10.0831 -0.0940662 0)
(10.2603 -0.154007 0)
(10.3713 -0.168694 0)
(10.4146 -0.179464 0)
(10.4061 -0.186164 0)
(10.353 -0.186176 0)
(10.2621 -0.180486 0)
(10.1431 -0.170523 0)
(10.0054 -0.157634 0)
(9.85626 -0.143084 0)
(9.7012 -0.12788 0)
(9.54422 -0.112952 0)
(9.3882 -0.0990694 0)
(9.23493 -0.0867065 0)
(9.0854 -0.0761431 0)
(8.94015 -0.0674891 0)
(8.79911 -0.0605707 0)
(8.66334 -0.0556177 0)
(9.77075 -0.0894585 0)
(9.2538 -0.153315 0)
(8.67216 -0.167207 0)
(8.07622 -0.167075 0)
(7.51214 -0.158974 0)
(6.99904 -0.144588 0)
(6.54367 -0.126403 0)
(6.14957 -0.106824 0)
(5.81706 -0.0877031 0)
(5.54254 -0.0700987 0)
(5.31998 -0.0545338 0)
(5.14257 -0.0411362 0)
(5.00308 -0.0299012 0)
(4.89456 -0.0208349 0)
(4.81047 -0.01378 0)
(4.74522 -0.00851086 0)
(4.69322 -0.0049654 0)
(4.65274 -0.00214608 0)
(0.0181941 -0.0278262 -1.52179e-21)
(0.0533777 -0.0436708 1.48455e-21)
(0.114353 -0.0607255 0)
(0.191416 -0.0810011 0)
(0.286826 -0.104571 0)
(0.402294 -0.127835 -1.44452e-21)
(0.536186 -0.147517 0)
(0.684027 -0.162252 0)
(0.841445 -0.170946 0)
(1.00403 -0.174244 0)
(1.16749 -0.173176 1.65024e-21)
(1.32814 -0.168466 0)
(1.48259 -0.159979 0)
(1.62817 -0.148286 0)
(1.76265 -0.134268 0)
(1.88446 -0.118746 2.11032e-21)
(1.99262 -0.102376 0)
(2.08663 -0.0856737 0)
(2.16636 -0.0690407 0)
(2.23205 -0.0527772 0)
(2.28413 -0.0370769 0)
(2.32328 -0.0219953 0)
(2.35007 -0.00744213 0)
(2.36554 0.00692238 2.75414e-21)
(2.36978 0.0214961 -2.81121e-21)
(2.36241 0.0357336 2.86435e-21)
(2.34549 0.0482858 2.91527e-21)
(2.32068 0.0577419 0)
(2.28974 0.0632786 0)
(2.25474 0.0646402 -3.05624e-21)
(2.21768 0.0620166 -3.09897e-21)
(2.18032 0.0559046 0)
(2.14406 0.0469261 0)
(2.10988 0.035818 -3.20504e-21)
(2.07817 0.0237485 0)
(2.04861 0.012522 0)
(2.02006 0.00403191 3.25414e-21)
(1.99074 -0.000421587 0)
(1.9585 -0.000231598 3.23892e-21)
(1.92118 0.00465654 6.42744e-21)
(1.87682 0.0137865 0)
(1.82386 0.0263392 0)
(1.76113 0.0415873 0)
(1.68753 0.05948 0)
(1.6013 0.080522 0)
(1.4998 0.10421 5.64157e-21)
(1.3797 0.128418 5.47118e-21)
(1.23953 0.145806 5.31514e-21)
(1.08446 0.140788 0)
(0.932841 0.0958423 -5.09201e-21)
(0.822898 0.00231269 0)
(0.806151 -0.120092 4.97046e-21)
(0.895109 -0.220844 4.92311e-21)
(1.03717 -0.253944 0)
(1.15834 -0.191646 0)
(1.15499 -0.0668327 0)
(1.00216 0.0345273 5.3263e-21)
(0.747391 0.081676 0)
(0.419375 0.114652 0)
(0.0128185 0.170933 0)
(-0.479926 0.246729 0)
(-1.05345 0.327502 0)
(-1.69203 0.402408 0)
(-2.37594 0.463904 0)
(-3.08324 0.507628 0)
(-3.79204 0.531624 -1.07225e-20)
(-4.48193 0.535762 0)
(-5.13503 0.521391 0)
(-5.7364 0.490995 1.31444e-20)
(-6.2736 0.446868 1.37221e-20)
(-6.73685 0.387056 0)
(-7.11841 0.316626 -1.43663e-20)
(-7.41355 0.243616 1.43959e-20)
(-7.6219 0.170982 0)
(-7.74464 0.102871 -1.3862e-20)
(-7.78395 0.0433629 0)
(-7.74668 -0.00490725 0)
(-7.65752 -0.0429206 1.16582e-20)
(-7.51811 -0.0750852 0)
(-7.33645 -0.102683 -9.47756e-21)
(-7.11804 -0.126504 0)
(-6.86823 -0.146969 6.97019e-21)
(-6.59186 -0.164342 5.65668e-21)
(-6.29336 -0.178789 4.33302e-21)
(-5.97666 -0.190436 6.03587e-21)
(-5.64547 -0.199346 -3.45639e-21)
(-5.30332 -0.205711 0)
(-4.95346 -0.210318 0)
(-4.59864 -0.213873 0)
(-4.24106 -0.216491 5.87443e-21)
(-3.88264 -0.218394 7.88843e-21)
(-3.52489 -0.219809 -9.76176e-21)
(-3.16896 -0.220932 0)
(-2.81571 -0.221897 1.30906e-20)
(-2.46574 -0.222711 1.4554e-20)
(-2.11961 -0.223129 1.58903e-20)
(-1.77803 -0.222505 0)
(-1.44178 -0.219712 0)
(-1.11222 -0.213227 0)
(-0.794622 -0.201408 2.0035e-20)
(-0.486344 -0.190313 0)
(-0.178923 -0.186498 0)
(0.124384 -0.181972 -2.20733e-20)
(0.419967 -0.175288 0)
(0.707052 -0.17011 0)
(0.986316 -0.168804 -2.27537e-20)
(1.25963 -0.164584 0)
(1.52622 -0.154769 0)
(1.78286 -0.143209 2.2832e-20)
(2.02843 -0.130826 2.27307e-20)
(2.26138 -0.116957 0)
(2.47964 -0.100658 -2.23834e-20)
(2.67971 -0.0793392 0)
(2.85448 -0.0476857 2.19172e-20)
(2.99045 -0.000372143 0)
(3.06208 0.0573542 2.14449e-20)
(3.04617 0.103072 2.12e-20)
(2.9632 0.114598 0)
(2.83809 0.0955914 0)
(2.69333 0.0636763 0)
(2.54816 0.0338031 0)
(2.41911 0.0109257 0)
(2.32246 -0.00715818 0)
(2.27508 -0.0213001 0)
(2.28142 -0.0275662 1.96978e-20)
(2.32147 -0.0152999 -1.95557e-20)
(2.32288 0.0171549 0)
(2.22223 0.061637 0)
(1.98111 0.107536 0)
(1.5699 0.16586 0)
(0.986074 0.235525 -3.1693e-20)
(0.267946 0.290196 0)
(-0.51628 0.320662 2.16452e-20)
(-1.29729 0.324927 -1.55593e-20)
(-2.02315 0.305985 0)
(-2.65381 0.268632 0)
(-3.16102 0.20814 0)
(-3.52427 0.132666 -1.9502e-21)
(-3.72905 0.0568424 -3.25267e-21)
(-3.76977 -0.0138531 0)
(-3.66717 -0.0764864 -1.57966e-21)
(-3.43665 -0.132314 1.19326e-21)
(-3.08957 -0.182019 -4.95757e-21)
(-2.64185 -0.223874 0)
(-2.11308 -0.254012 0)
(-1.52719 -0.265973 -1.89704e-20)
(-0.914435 -0.261325 0)
(-0.287053 -0.249167 0)
(0.346492 -0.242818 0)
(0.962004 -0.236998 0)
(1.55225 -0.228277 3.4112e-20)
(2.11097 -0.206075 3.49492e-20)
(2.62808 -0.174256 0)
(3.09932 -0.142954 3.50614e-20)
(3.52643 -0.113913 0)
(3.91182 -0.086652 0)
(4.25693 -0.0614222 3.25817e-20)
(4.56204 -0.0381957 0)
(4.82665 -0.0166402 2.99392e-20)
(5.04934 0.00353082 0)
(5.22738 0.0220547 0)
(5.35725 0.0369965 2.54927e-20)
(5.43531 0.0458236 0)
(5.45435 0.0568837 2.27234e-20)
(5.41438 0.078814 0)
(5.32019 0.0964643 0)
(5.17389 0.109181 0)
(4.97872 0.117703 -1.9021e-20)
(4.7403 0.122245 0)
(4.46729 0.122788 1.83461e-20)
(4.17051 0.11873 0)
(3.86234 0.109273 0)
(3.55512 0.0939273 0)
(3.25961 0.0721794 0)
(2.98467 0.0464474 0)
(2.73472 0.0232644 0)
(2.50666 0.00785375 0)
(2.28243 0.00434807 -3.39229e-20)
(2.0502 0.0154116 0)
(1.73895 0.0349439 0)
(0.0323634 -0.1211 4.56597e-21)
(0.0902519 -0.172672 -4.4339e-21)
(0.183705 -0.226564 0)
(0.296408 -0.283805 2.90656e-21)
(0.429073 -0.34056 0)
(0.579075 -0.392441 1.40655e-21)
(0.741888 -0.434792 -2.93056e-21)
(0.912283 -0.464876 -2.99479e-21)
(1.0864 -0.481442 0)
(1.26088 -0.484827 -3.21248e-21)
(1.4317 -0.476376 -1.58861e-21)
(1.5951 -0.457933 0)
(1.74892 -0.43165 0)
(1.89198 -0.399288 0)
(2.02298 -0.36268 0)
(2.14116 -0.323477 -2.03685e-21)
(2.24621 -0.283099 0)
(2.33814 -0.24275 4.61729e-21)
(2.4172 -0.203413 0)
(2.48394 -0.16586 0)
(2.53912 -0.130658 -5.08197e-21)
(2.5837 -0.0981791 0)
(2.61894 -0.0686016 5.33775e-21)
(2.64601 -0.0418527 -2.68972e-21)
(2.66691 -0.0176353 2.74869e-21)
(2.68418 0.00405609 -2.80333e-21)
(2.69774 0.0227401 -2.85402e-21)
(2.70754 0.0381644 0)
(2.71364 0.0502772 0)
(2.7158 0.0592131 2.99165e-21)
(2.71367 0.0653104 -3.0617e-21)
(2.70693 0.0691171 0)
(2.6953 0.0713683 0)
(2.67852 0.0729574 3.13536e-21)
(2.65643 0.0749237 0)
(2.62897 0.0783641 0)
(2.5962 0.0841156 -3.18356e-21)
(2.55832 0.0924458 0)
(2.51564 0.103085 3.27368e-21)
(2.46843 0.115506 -6.28685e-21)
(2.41698 0.129137 0)
(2.36156 0.143492 0)
(2.30247 0.158456 -1.21851e-20)
(2.2399 0.174754 -1.18723e-20)
(2.17378 0.194241 -1.15166e-20)
(2.10315 0.219302 5.62541e-21)
(2.02539 0.250729 -5.33239e-21)
(1.93573 0.283657 -1.55068e-20)
(1.82837 0.303025 9.96711e-21)
(1.69966 0.28156 4.94936e-21)
(1.5584 0.187952 0)
(1.42117 0.028118 -4.86396e-21)
(1.27802 -0.114932 4.41096e-21)
(1.07946 -0.126558 0)
(0.785617 0.0332431 0)
(0.410167 0.291336 0)
(-0.0781845 0.534524 -5.28033e-21)
(-0.694176 0.736173 0)
(-1.425 0.921382 1.12781e-20)
(-2.23687 1.09205 0)
(-3.09227 1.234 1.31009e-20)
(-3.95284 1.33401 0)
(-4.78588 1.38624 -1.59919e-20)
(-5.56497 1.3908 0)
(-6.27048 1.35182 1.95888e-20)
(-6.88954 1.27584 -1.16551e-20)
(-7.41533 1.17054 0)
(-7.8461 1.04387 -2.49957e-20)
(-8.18403 0.903413 -1.2303e-20)
(-8.4346 0.755916 -1.29413e-20)
(-8.6061 0.606846 0)
(-8.70753 0.460134 -1.52972e-20)
(-8.74862 0.318875 -1.38218e-20)
(-8.73869 0.185445 0)
(-8.68696 0.0625662 1.33993e-20)
(-8.60051 -0.046808 -2.67405e-20)
(-8.48248 -0.141762 0)
(-8.31919 -0.222888 -1.12509e-20)
(-8.1173 -0.29271 0)
(-7.87912 -0.352231 2.80415e-20)
(-7.60892 -0.402215 0)
(-7.31094 -0.44325 -2.0668e-20)
(-6.98936 -0.475964 -5.4434e-21)
(-6.64824 -0.501418 4.63168e-21)
(-6.29143 -0.520931 6.66906e-21)
(-5.92252 -0.534773 -4.13276e-21)
(-5.54432 -0.54334 0)
(-5.15929 -0.54715 0)
(-4.77049 -0.546801 0)
(-4.38077 -0.543001 -1.63123e-20)
(-3.99211 -0.536437 -7.60945e-21)
(-3.60625 -0.527727 9.41896e-21)
(-3.22451 -0.517417 0)
(-2.84787 -0.505948 1.19796e-20)
(-2.47705 -0.493615 -1.40509e-20)
(-2.11249 -0.480514 -1.5346e-20)
(-1.75442 -0.466528 0)
(-1.40263 -0.451448 0)
(-1.05635 -0.435591 0)
(-0.714559 -0.421321 -1.94862e-20)
(-0.3762 -0.413209 0)
(-0.0438773 -0.406136 4.14383e-20)
(0.279446 -0.394909 6.37445e-20)
(0.594275 -0.381219 -4.29445e-20)
(0.900878 -0.366947 0)
(1.19783 -0.353334 -2.16275e-20)
(1.48366 -0.341328 0)
(1.75791 -0.329351 -4.38746e-20)
(2.0215 -0.316263 2.17129e-20)
(2.27529 -0.301177 2.16645e-20)
(2.51986 -0.28459 0)
(2.75426 -0.265818 6.50628e-20)
(2.97717 -0.242903 -4.29767e-20)
(3.18786 -0.211773 -2.14432e-20)
(3.38657 -0.166073 0)
(3.57851 -0.101279 -2.10508e-20)
(3.76681 -0.0206566 -6.22649e-20)
(3.91375 0.0614705 0)
(3.97776 0.130097 -4.04472e-20)
(3.93391 0.174972 -4.00115e-20)
(3.7806 0.188681 -3.96775e-20)
(3.54387 0.168991 0)
(3.27742 0.120088 0)
(3.05408 0.0521833 0)
(2.9358 -0.0115318 1.95205e-20)
(2.91115 -0.0238132 1.93525e-20)
(2.89262 0.0502061 0)
(2.72698 0.1976 3.75038e-20)
(2.29029 0.387435 3.62805e-20)
(1.56239 0.590494 0)
(0.625658 0.757731 3.1207e-20)
(-0.380481 0.839998 5.24951e-20)
(-1.32868 0.838836 -2.09276e-20)
(-2.14607 0.770706 -1.33369e-20)
(-2.80324 0.659358 0)
(-3.295 0.525062 0)
(-3.63151 0.382537 0)
(-3.82746 0.238356 1.91206e-21)
(-3.90132 0.0974458 -5.15504e-21)
(-3.86758 -0.0342602 -8.02271e-21)
(-3.71758 -0.155852 1.54731e-21)
(-3.44871 -0.265198 -6.52654e-22)
(-3.07073 -0.359396 4.83968e-21)
(-2.59743 -0.434362 0)
(-2.04503 -0.48944 0)
(-1.42989 -0.524445 -1.72925e-20)
(-0.769244 -0.541543 0)
(-0.0829322 -0.550927 0)
(0.603701 -0.539487 5.90987e-20)
(1.2742 -0.513914 0)
(1.91828 -0.484154 3.27527e-20)
(2.52874 -0.453373 -3.41375e-20)
(3.10455 -0.420606 0)
(3.64602 -0.386941 3.37888e-20)
(4.15126 -0.353824 0)
(4.61939 -0.321538 0)
(5.04971 -0.290006 -3.19176e-20)
(5.44089 -0.258663 6.12181e-20)
(5.79026 -0.226762 -2.93931e-20)
(6.09344 -0.193507 0)
(6.34457 -0.157878 0)
(6.53617 -0.118917 2.51995e-20)
(6.66048 -0.0757745 0)
(6.7238 -0.0274163 2.2581e-20)
(6.71851 0.0164661 0)
(6.63318 0.0570356 0)
(6.47228 0.0960664 0)
(6.23625 0.133255 1.86975e-20)
(5.92826 0.1654 0)
(5.56276 0.189963 -1.79783e-20)
(5.15811 0.2053 0)
(4.73559 0.211177 0)
(4.31686 0.209315 3.48485e-20)
(3.92049 0.201053 -3.43878e-20)
(3.56055 0.18877 0)
(3.24359 0.177542 0)
(2.96686 0.171841 0)
(2.71177 0.176114 9.80521e-20)
(2.46507 0.19195 0)
(2.1642 0.209457 -6.23003e-20)
(0.0410087 -0.269019 8.37832e-23)
(0.118949 -0.37307 5.94117e-21)
(0.24119 -0.476512 0)
(0.384166 -0.580803 -5.81354e-21)
(0.545585 -0.675798 0)
(0.720326 -0.753278 0)
(0.901799 -0.808656 -1.50407e-22)
(1.08405 -0.840766 2.93787e-21)
(1.26301 -0.850955 3.23516e-21)
(1.43568 -0.841095 3.1528e-21)
(1.59905 -0.813758 0)
(1.75165 -0.772247 0)
(1.89272 -0.720264 -3.90218e-21)
(2.02136 -0.660933 -8.18378e-21)
(2.13716 -0.596838 8.56019e-21)
(2.24013 -0.530214 0)
(2.33047 -0.463001 9.27371e-21)
(2.40859 -0.396847 -4.57868e-21)
(2.47512 -0.333108 0)
(2.53083 -0.272867 1.01783e-20)
(2.57665 -0.216954 5.05294e-21)
(2.61363 -0.16597 -1.0659e-20)
(2.6429 -0.120316 -5.31331e-21)
(2.66562 -0.0802926 0)
(2.68297 -0.0460811 1.12438e-20)
(2.69612 -0.0173529 1.1418e-20)
(2.70658 0.00656047 0)
(2.71555 0.026494 1.17431e-20)
(2.72363 0.0430762 0)
(2.73112 0.0567939 1.20754e-20)
(2.73793 0.0681522 6.07321e-21)
(2.74364 0.0777046 0)
(2.74753 0.0860683 0)
(2.74868 0.0939311 0)
(2.74596 0.10202 0)
(2.73833 0.111041 0)
(2.72493 0.121691 0)
(2.70509 0.13467 1.31285e-20)
(2.67817 0.150513 -1.95066e-20)
(2.64352 0.169318 0)
(2.60058 0.190615 0)
(2.54886 0.213598 0)
(2.48779 0.23776 -3.41618e-22)
(2.41658 0.263622 1.17533e-20)
(2.33415 0.293155 2.30696e-20)
(2.23926 0.32954 -2.22519e-20)
(2.13109 0.37503 -1.07634e-20)
(2.00904 0.426839 1.02459e-20)
(1.8697 0.473198 -7.923e-23)
(1.70292 0.484994 9.35348e-21)
(1.49665 0.423961 0)
(1.22535 0.307386 8.76403e-21)
(0.861197 0.270352 -3.89651e-22)
(0.37264 0.440187 0)
(-0.25182 0.777933 0)
(-0.967582 1.16561 -9.7894e-21)
(-1.75353 1.53157 0)
(-2.59263 1.84318 0)
(-3.45126 2.09013 1.31543e-20)
(-4.28775 2.26239 2.60488e-20)
(-5.06742 2.3541 -1.22409e-20)
(-5.76734 2.36649 0)
(-6.37674 2.30762 1.5168e-20)
(-6.89454 2.18963 0)
(-7.32652 2.02624 2.52546e-20)
(-7.68233 1.83089 2.08467e-20)
(-7.9728 1.61559 -5.16364e-20)
(-8.20782 1.39027 -3.03351e-20)
(-8.39502 1.16263 0)
(-8.53941 0.93822 5.96228e-20)
(-8.6438 0.721016 0)
(-8.70913 0.514217 9.03168e-20)
(-8.7346 0.320035 6.14386e-20)
(-8.71833 0.139535 6.04638e-20)
(-8.65853 -0.026797 -5.85919e-20)
(-8.55535 -0.179417 8.22976e-20)
(-8.40914 -0.318865 0)
(-8.223 -0.444159 0)
(-8.00122 -0.553736 -4.40009e-20)
(-7.74735 -0.647872 -5.79904e-20)
(-7.46526 -0.727231 0)
(-7.15871 -0.7934 1.38556e-20)
(-6.8311 -0.84746 0)
(-6.48521 -0.889653 -2.73036e-20)
(-6.12485 -0.920968 9.04351e-22)
(-5.75418 -0.942875 -8.01592e-22)
(-5.37607 -0.956447 3.3167e-21)
(-4.99332 -0.962305 0)
(-4.60827 -0.961155 5.85143e-21)
(-4.22284 -0.954288 5.7423e-22)
(-3.83866 -0.942875 0)
(-3.45707 -0.927969 0)
(-3.07911 -0.910528 0)
(-2.70546 -0.891392 -2.45408e-20)
(-2.33646 -0.871239 0)
(-1.97209 -0.850535 0)
(-1.61198 -0.829508 0)
(-1.25546 -0.808221 0)
(-0.901777 -0.786824 0)
(-0.550844 -0.765918 -3.79862e-20)
(-0.204842 -0.746087 0)
(0.133267 -0.72573 -4.13317e-20)
(0.463074 -0.703308 -4.20872e-20)
(0.784388 -0.67936 4.26579e-20)
(1.09558 -0.654785 0)
(1.39387 -0.62932 4.32784e-20)
(1.6768 -0.602336 0)
(1.94328 -0.574505 4.33016e-20)
(2.19397 -0.547641 -4.31645e-20)
(2.43243 -0.52123 -1.2846e-19)
(2.6616 -0.493113 0)
(2.88171 -0.462216 -1.27142e-19)
(3.09243 -0.426448 -4.1728e-20)
(3.29487 -0.382856 0)
(3.49205 -0.328454 -8.2698e-20)
(3.68889 -0.26112 -8.20129e-20)
(3.88854 -0.177912 1.22243e-19)
(4.08918 -0.0734176 0)
(4.27652 0.0526468 4.01269e-20)
(4.40968 0.189767 3.96129e-20)
(4.43629 0.310582 1.17114e-19)
(4.3209 0.377809 0)
(4.07663 0.358903 0)
(3.77338 0.245587 0)
(3.50131 0.0917692 3.88689e-20)
(3.3013 0.0282079 0)
(3.10307 0.169388 0)
(2.74532 0.497474 -3.72057e-20)
(2.09912 0.903088 -3.59269e-20)
(1.19115 1.26358 0)
(0.181357 1.48192 0)
(-0.764097 1.51836 -5.13721e-20)
(-1.56959 1.42078 0)
(-2.22333 1.23967 2.80394e-20)
(-2.74005 1.01849 1.32435e-20)
(-3.13715 0.78389 0)
(-3.42569 0.548845 0)
(-3.6081 0.319281 8.9184e-21)
(-3.67964 0.0982583 -2.94753e-21)
(-3.63612 -0.112895 -2.78335e-21)
(-3.475 -0.312745 0)
(-3.1989 -0.496488 1.37413e-21)
(-2.81606 -0.657978 0)
(-2.33615 -0.791403 0)
(-1.77033 -0.894919 0)
(-1.13774 -0.966788 3.58195e-20)
(-0.461012 -1.00585 0)
(0.235762 -1.0129 -1.03823e-19)
(0.931886 -0.992893 -5.86845e-20)
(1.61306 -0.952722 0)
(2.26784 -0.899301 -6.56923e-20)
(2.89023 -0.83839 0)
(3.48006 -0.775802 0)
(4.03745 -0.713724 -2.01032e-19)
(4.56312 -0.653391 1.31547e-19)
(5.05799 -0.594839 0)
(5.52278 -0.536896 1.24292e-19)
(5.95748 -0.477983 -6.03912e-20)
(6.36094 -0.416405 0)
(6.73078 -0.349957 0)
(7.06372 -0.276566 0)
(7.35574 -0.195262 -1.47794e-19)
(7.59919 -0.105996 0)
(7.77647 -0.0129563 -4.47273e-20)
(7.8716 0.0732198 0)
(7.87141 0.162385 0)
(7.76055 0.249937 0)
(7.53779 0.328502 0)
(7.21021 0.393169 0)
(6.78912 0.440035 0)
(6.29567 0.466241 -7.07264e-20)
(5.75621 0.469988 0)
(5.20332 0.452088 -3.50974e-20)
(4.67139 0.417088 1.03588e-19)
(4.18605 0.372439 0)
(3.76084 0.32749 0)
(3.39646 0.293505 -6.61329e-20)
(3.075 0.282211 -6.50779e-20)
(2.78107 0.299572 6.36616e-20)
(2.45663 0.33397 6.18541e-20)
(0.052225 -0.452245 -9.53486e-21)
(0.149822 -0.622701 -9.1705e-21)
(0.300095 -0.779673 -6.15379e-21)
(0.468184 -0.925424 -3.22239e-21)
(0.648138 -1.04594 0)
(0.833302 -1.13319 6.26413e-21)
(1.01677 -1.18539 -3.46197e-21)
(1.19359 -1.20474 0)
(1.36106 -1.19546 -3.19332e-21)
(1.51726 -1.16193 0)
(1.66119 -1.10881 7.68298e-21)
(1.79278 -1.04085 0)
(1.91189 -0.962164 3.87881e-21)
(2.01859 -0.876246 8.14755e-21)
(2.11316 -0.786148 -8.53461e-21)
(2.196 -0.694523 0)
(2.26765 -0.603657 -9.2688e-21)
(2.32875 -0.515482 0)
(2.38008 -0.431601 0)
(2.4225 -0.353313 -1.0199e-20)
(2.457 -0.281619 0)
(2.48468 -0.217215 -3.15242e-22)
(2.50669 -0.160511 0)
(2.52423 -0.111661 0)
(2.53852 -0.0705668 1.64403e-22)
(2.55064 -0.0368579 -1.14574e-20)
(2.56172 -0.00984995 -1.17211e-20)
(2.57274 0.0111697 -1.17851e-20)
(2.58441 0.0271865 0)
(2.59735 0.0394087 -2.42927e-20)
(2.61196 0.0491598 0)
(2.62823 0.0578764 -1.2558e-20)
(2.64571 0.0670459 0)
(2.66355 0.0780579 0)
(2.68046 0.0920524 1.31519e-20)
(2.69482 0.109956 0)
(2.70481 0.132395 -1.3451e-20)
(2.70845 0.159584 4.42157e-22)
(2.70376 0.191264 2.66226e-20)
(2.68878 0.22677 -2.70157e-20)
(2.66137 0.265282 0)
(2.61904 0.306281 0)
(2.55869 0.350083 -1.33928e-20)
(2.47666 0.398192 0)
(2.36893 0.453258 -1.15938e-20)
(2.23167 0.516986 1.11644e-20)
(2.06404 0.588535 1.07145e-20)
(1.86655 0.666698 0)
(1.63652 0.749269 -9.80619e-21)
(1.36728 0.82248 -9.3594e-21)
(1.02741 0.850336 1.79138e-20)
(0.589433 0.874801 -8.73568e-21)
(0.0170607 1.04672 -8.70966e-21)
(-0.719196 1.41422 0)
(-1.55293 1.87409 0)
(-2.4166 2.323 9.19443e-21)
(-3.26849 2.70211 0)
(-4.07462 2.98044 0)
(-4.80601 3.14703 -2.24269e-20)
(-5.44435 3.20394 -2.49271e-20)
(-5.9854 3.16341 0)
(-6.4367 3.0438 0)
(-6.81295 2.86535 0)
(-7.13101 2.64675 0)
(-7.40584 2.40314 -4.35853e-20)
(-7.64807 2.14543 5.43154e-20)
(-7.86306 1.88079 5.12471e-20)
(-8.05139 1.61355 1.15405e-19)
(-8.21018 1.3463 0)
(-8.33474 1.0809 5.75967e-21)
(-8.42025 0.819194 0)
(-8.46283 0.56363 -6.1737e-20)
(-8.46001 0.317221 4.73919e-21)
(-8.41087 0.0830628 -6.08331e-20)
(-8.31686 -0.136334 5.88125e-20)
(-8.18107 -0.33842 3.55998e-21)
(-8.0066 -0.521095 0)
(-7.79766 -0.683615 5.14156e-20)
(-7.55848 -0.826088 4.41693e-20)
(-7.29245 -0.949976 8.10533e-20)
(-7.00257 -1.05548 0)
(-6.69182 -1.14282 -3.0995e-20)
(-6.36467 -1.21361 0)
(-6.02532 -1.26891 3.86994e-20)
(-5.67716 -1.30921 -1.34207e-20)
(-5.32296 -1.3363 8.2872e-21)
(-4.96516 -1.3518 -3.33318e-21)
(-4.60569 -1.35719 1.03036e-21)
(-4.24594 -1.35397 -5.87154e-21)