/*--------------------------------*- C++ -*----------------------------------*\
| =========                 |                                                 |
| \\      /  F ield         | OpenFOAM: The Open Source CFD Toolbox           |
|  \\    /   O peration     | Version:  2112                                  |
|   \\  /    A nd           | Website:  www.openfoam.com                      |
|    \\/     M anipulation  |                                                 |
\*---------------------------------------------------------------------------*/
FoamFile
{
    version     2.0;
    format      ascii;
    arch        "LSB;label=32;scalar=64";
    class       volScalarField;
    location    "0.51";
    object      pPrime2Mean;
}
// * * * * * * * * * * * * * * * * * * * * * * * * * * * * * * * * * * * * * //

dimensions      [0 4 -4 0 0 0 0];

internalField   nonuniform List<scalar> 
122250
(
75159.4
42504.8
23509.6
19939.5
14101.2
10152.3
8601.14
7631.14
7280.29
6942.42
6707.44
6497.95
6345.36
6218.63
6093.11
5961
5807.06
5659.78
68187.3
42229.6
23244.4
19998.2
14050
10150.9
8615.06
7627.84
7274.49
6932.56
6697.19
6486.8
6335.07
6211.57
6089.18
5961.44
5815.4
5681.02
62216.4
36828.8
23546.9
20253.8
14297.2
10308.4
8656.52
7625.67
7248.19
6914.37
6676.54
6473.35
6322.16
6201
6083.51
5964.65
5834.2
5709.69
61210.2
31236
25559.1
21311.4
14747
10581.4
8749.88
7648.53
7244.46
6910.94
6667.31
6467.24
6319.38
6196.95
6077.63
5965.86
5851.32
5740.28
62038.5
27539.5
29094.3
22954.3
15503.9
10942
8885.08
7692.27
7264.19
6917.52
6666.79
6466.05
6323.51
6196.2
6069.93
5961.25
5860.58
5763.24
62523.6
26358.2
33208.6
25250.6
16255.6
11376.3
9051.84
7759.83
7294.01
6928
6666.22
6466.64
6327.32
6194.18
6060.5
5953.65
5865.54
5779.55
62524.4
26662
36648.8
27557.6
16878.8
11866.9
9233.61
7860.97
7343.17
6959.61
6676.75
6481.24
6339.26
6203.06
6065.27
5959.41
5875.21
5797.72
62514.1
27229.2
38449.1
29124.6
17382.4
12355.8
9415.78
8005.24
7432.42
7031.12
6721.71
6511.45
6360.66
6221.66
6082.83
5972.88
5886.35
5815.92
62537.5
27423.4
37759.1
29677
17688.6
12758.1
9646.49
8199.61
7551.5
7132.77
6794.05
6554.41
6390.2
6248.99
6116.73
5999.91
5904.11
5835.06
62672.9
26782.2
35188.3
28338.3
17487.1
12843.4
9823.66
8345.07
7651.22
7212.21
6861.46
6598.03
6422.87
6278.91
6154.16
6045.08
5941.55
5863.87
62979.6
26203
31930.2
25171.7
16765.2
12431.9
9855.19
8413.57
7713.81
7270.3
6932.94
6647.19
6460.16
6316.02
6203.17
6099.61
5990.3
5902.09
62977.5
25570.6
29052.3
20815
15521.8
11655.9
9676.29
8378.92
7729.21
7297.47
6973.3
6698.17
6490.55
6344.95
6240.91
6141.72
6036.63
5945.66
62266.7
24892.8
26555.4
16020.5
13855.2
10738.1
9288.22
8198.93
7667.22
7275.04
6974.78
6715.22
6502.41
6358.76
6257.63
6164.29
6070.83
5988.3
61793.2
24433.6
24615.6
12114.6
11818
9550.49
8703.26
7939.53
7563.61
7220.37
6934.41
6694.21
6510.99
6379.28
6281.69
6193.68
6109.89
6026.36
62363.3
24462.5
23529.9
10707
10067.3
8576.89
8112.31
7629.6
7391.08
7097.71
6844.36
6639.05
6495.41
6392.87
6306.34
6216.5
6126.84
6041.66
62247.4
24739.1
23287.2
10550.5
9045.82
8086.73
7628.31
7302.47
7116.62
6896.67
6708
6556.06
6447.49
6366.17
6298.96
6218.38
6124.3
6029.53
65137.3
26987
23545.2
10484.1
8581.3
7792.77
7326.87
7078.91
6892.75
6725.76
6600.76
6486.95
6397.95
6324.7
6247.33
6162.71
6075.92
5993.28
66742.9
27765.4
22285.1
10539.1
8180.6
7689.92
7268.73
7019.64
6838.05
6681.19
6556.79
6450.14
6351.38
6258.42
6176.04
6101.21
6028.08
5962.45
66424.6
28648
22948.7
9795.31
7932.12
7441.76
7150.48
6964.78
6819.14
6678.63
6564
6443.06
6332.14
6247.96
6181.2
6121.82
6063.9
6002.91
55155.5
21104.9
18263
8369.54
7715.36
7127.49
7023.08
6879.59
6847
6720.56
6587.84
6464.21
6367.82
6282.24
6203.79
6121.74
6050.88
5992.63
49048.3
17992.1
15380.8
8012.77
7941.37
7183.5
7116.09
6933.47
6903.11
6775.29
6656.19
6527.39
6423.35
6323.96
6242.21
6169.12
6096.86
6030.45
49370.4
17903.9
15282.1
8457.87
8606.2
7521.83
7349.95
7047.85
6922.53
6743.92
6640.82
6529.84
6440.73
6356.34
6273.37
6194.1
6119.4
6046.95
47195.5
19087.4
18598.5
10624.2
9680.13
7959.48
7477.3
7024.03
6851.25
6667.71
6591.79
6496.45
6409.15
6324.06
6252.51
6182.74
6121.15
6063.86
46079.1
20135.7
22634.3
13186.7
10020.3
8125.35
7440.48
6905.79
6766.78
6616.31
6562.63
6466.52
6387.32
6318.3
6256.03
6188.49
6125.53
6074.35
45683.4
21005.2
24219.6
13516.7
9637.52
7896.93
7300.98
6805.35
6735.47
6598.13
6551.9
6465.97
6403.5
6337.02
6265.02
6197.07
6137.67
6084.03
46369.5
22354.8
23472.3
12714.5
9482.62
7719.69
7246.82
6792.78
6749.97
6599.93
6561.76
6491.63
6432
6355.27
6271.74
6193.25
6128.7
6080.23
47195.2
25187.6
21034.9
11872.8
9312.33
7656.4
7299.73
6852.8
6801
6625.68
6587.9
6514.82
6448.29
6366.46
6280.08
6194.32
6123.05
6074.8
48331.1
31111
18075.8
11487.8
9331.57
7638.83
7321.53
6880.67
6825.27
6633.44
6593.89
6518.74
6448.23
6362.74
6277.65
6196.95
6128.4
6073.62
50798.1
40221.7
17341.7
11951.8
9397.32
7686.29
7359.65
6896.97
6829.97
6629.12
6585.4
6508.66
6450.15
6367.77
6278.91
6195.52
6123.66
6058.68
54017
43574.2
18368.5
12023.6
9503.73
7717.11
7332.11
6861.16
6794.52
6604.47
6558.62
6468.47
6410.67
6336.57
6260.25
6181.4
6107.84
6043.88
75326.5
43560.2
23333.9
19923.9
14132.7
10075.1
8560.03
7624.23
7269.71
6926.77
6694.2
6502.16
6362.23
6233.12
6099.48
5952.08
5800.62
5668.79
68248.9
43499.7
22905.4
19899.8
14083.5
10066.3
8561.21
7602.49
7265.95
6924.97
6688.08
6491.05
6353.8
6231.84
6101.74
5956
5804.66
5674.8
62238.8
38275.3
23298.7
20144.6
14333.9
10214.5
8591.19
7584.53
7234.93
6901.58
6665.15
6464.04
6330.07
6220.05
6097.93
5956.72
5812.36
5691.15
61067.2
32499.6
25585
21254
14755.1
10501.4
8689.7
7594.18
7223.33
6892.02
6645.39
6442.63
6309.9
6208
6094.91
5962.86
5831.17
5721.94
61774.4
28367.2
29037.7
22817.7
15454.6
10905.5
8840.59
7651.23
7246.68
6908.47
6646.78
6433.66
6291.5
6187.61
6076.34
5956.03
5843.52
5747.17
62224.5
26514.3
33138.7
24977.6
16212.8
11403.1
9046.62
7759.24
7292.67
6935.25
6657.94
6440.22
6289.65
6177.57
6065.46
5951.37
5853.42
5770.48
62263.6
26596.1
36702.2
27177.3
16911.2
11950.3
9293.61
7911.57
7363.57
6975.69
6679.83
6460.85
6306.21
6183.02
6069.6
5958.2
5865.88
5791.55
62205.9
27415.6
38334.8
28807.3
17461.1
12477
9533.83
8086.69
7457.34
7033.92
6713.79
6481.52
6326.23
6202.7
6087.48
5977.25
5883.06
5809.63
62395.1
27784.4
37577.2
29482.9
17748.8
12903.8
9792.8
8272.62
7569.66
7110.55
6765.53
6510.55
6349.07
6226.29
6112.99
6004.93
5906.45
5830.61
62771
27111.9
35238.7
28642.7
17650.2
13002.8
9994.69
8426.19
7660.05
7177.03
6814.99
6544.64
6378.74
6254.22
6144.76
6040.43
5935.4
5854.73
63046.5
26556.9
32281.6
25602.1
16910.2
12549.3
10004.1
8480.5
7711.81
7232.56
6869.82
6593.98
6417.56
6297.96
6198.89
6095.77
5979.64
5882.2
62565.6
25604.7
29320.2
21180.8
15537.4
11708.1
9754.17
8423.54
7726.39
7264.03
6923.45
6653.95
6460.34
6340.57
6248.44
6148.03
6030.5
5925.58
61850.3
25130.7
26579.8
16387.8
13802.8
10722.1
9331.94
8263.39
7697.76
7264.63
6947.49
6686.27
6484.99
6361.9
6272.7
6173.19
6068.84
5975.53
61647.3
24245.8
24218
12383.8
11783.7
9531.1
8736.98
7989.16
7590.18
7218
6917
6666.91
6486.08
6369.45
6282.29
6190.16
6101.8
6019.65
62101.8
24732.6
22850.5
10874.2
10062.5
8594.23
8136.21
7638.26
7386.7
7088.71
6837.49
6621.03
6473.44
6376.02
6289.96
6202.55
6116.32
6034.78
61848.5
25185.2
22546.2
10631.1
9031.11
8116.76
7620.3
7313.03
7111.23
6907.08
6728.56
6568.86
6452.25
6361.09
6278.1
6198.46
6116.4
6028.77
65667.3
27134
23593.7
10715.8
8653.61
7905.35
7354.82
7100.57
6900.62
6740.93
6613.11
6495.53
6403.64
6329.97
6253.83
6172.98
6085.68
5994.42
67196.9
28183.7
22343.1
10501.3
8187.69
7717.56
7279.22
7056.29
6867.29
6708.36
6570.8
6453.39
6358.54
6267.52
6185.08
6113.11
6042.93
5976.18
65609.7
30723.6
22568.5
9860.66
7932.47
7442.73
7133.64
6957.43
6824.76
6684.53
6560.13
6439.88
6337.6
6263.03
6198.69
6131.31
6064.47
6001.86
53106.6
21072.3
18437.5
8390.61
7702.73
7093.95
7031.65
6869.17
6829.51
6704.92
6585.63
6463.64
6363.98
6277.29
6194.79
6119.7
6052.07
5994.91
48007.2
17808.8
15319.7
7875.17
7930.11
7138.79
7135.68
6941.19
6898.59
6783.13
6668.93
6536.18
6426.02
6330.21
6249.34
6172.46
6093.93
6025.28
47078.1
18197.9
14772
8457.39
8645.59
7448.87
7330.63
7042.56
6944.24
6775.62
6667.55
6542.53
6445.69
6357.32
6271.76
6187.09
6113.01
6043.26
47099.6
19323.1
18451
10852.1
9682.01
7890.11
7419.67
6985.28
6856.5
6692.72
6616.64
6511.51
6420.36
6336.98
6259.99
6180.78
6113.46
6056.5
46348.3
20551.5
22490.1
13527.7
10110.5
8097.93
7370.84
6869.71
6762.95
6620.93
6567.56
6475.02
6399.13
6323.56
6254.79
6183.6
6121.02
6067.15
45915.6
21930.4
24013.6
13968.2
9727.55
7906.67
7264.86
6776.73
6715.8
6587.59
6547.33
6461.85
6402.07
6332.41
6263.27
6198.49
6136.09
6080.91
46553.4
23242.1
23303.2
13061.7
9507.36
7741.46
7222.82
6766.98
6729.58
6590.75
6550.35
6475.07
6419.37
6342.8
6264.05
6190.95
6130.66
6086.34
47499.7
26074.1
20911.3
12249.7
9307.66
7634.58
7257.21
6814.62
6784.07
6614.03
6567.05
6487.59
6431.2
6347.85
6260.96
6178.14
6118.49
6083.45
48542.2
32164.3
18353.6
11917.1
9270.89
7571.91
7311.89
6853.05
6812.67
6619.28
6575.23
6495.3
6433.75
6346.68
6256.48
6176.87
6122.28
6085.54
50871.9
40857.2
17966.1
12580.3
9426.93
7588.9
7342.09
6886.27
6820.64
6619.61
6578.32
6490.46
6429.74
6339.37
6245.29
6168.41
6113.17
6065.57
54310.6
44019.7
19199.7
12666.7
9458.12
7572.7
7316.72
6851.36
6785.41
6586.98
6544.7
6453.04
6388.86
6307.63
6226.61
6151.58
6091.57
6046.69
74691
40984.4
22608.2
19382
14074.1
10167.7
8570.79
7649.14
7283.18
6922.41
6679.88
6493.54
6350.54
6222.95
6090.72
5951.12
5813.63
5692.11
67382.4
41495.4
22046.3
19418.3
14011.5
10147.5
8571.34
7632.58
7270.32
6917.16
6675.65
6485.67
6347.05
6229.14
6100.51
5956.41
5814.86
5693.52
61617.4
37723.3
22336.7
19801.9
14297.6
10230.8
8592.37
7614.38
7247.68
6909.74
6668.82
6466.56
6329.39
6224.85
6105.99
5961.76
5820.82
5703.47
60629.9
33139.4
24394.1
20809.1
14706.2
10476.2
8700.6
7633.81
7244.57
6915.42
6669.8
6458.45
6325.05
6227.86
6115.96
5975.71
5838.26
5729.07
61631.2
29151.6
27734.2
22227.4
15321.6
10874.1
8880.07
7698.32
7271.12
6937.71
6685.96
6463.32
6320.1
6218.52
6109.2
5978.52
5852.65
5752.97
62268.7
26904.6
31849
24199.5
16070.8
11392.7
9104.36
7804.01
7320.96
6972.68
6713
6479.92
6321.75
6211.56
6104.23
5984.15
5868.55
5779.02
62283.5
26498.6
35404.9
26386.4
16842.8
12031.2
9397.56
7951.25
7388.01
7018.2
6738.6
6497.3
6332.19
6214.45
6106.29
5994.98
5885.06
5802.04
62346.8
26894.4
37171
27993.9
17482.5
12629.2
9708.37
8117.39
7461.81
7052.59
6746.44
6501.53
6341.13
6226.97
6116.51
6010.54
5906.42
5825.5
62950.6
27199.8
36981.2
28844.4
17841.7
13091.2
9987.17
8291.71
7538.43
7085.99
6760.92
6513.49
6356.58
6244.79
6133.22
6030.43
5932.79
5852.44
63785.9
26887.7
35199.9
28058.5
17761.5
13166.9
10169.3
8446.47
7612.78
7121.83
6787.92
6542.94
6382.8
6269.79
6164.61
6065.99
5967.16
5884
64015.5
26270.3
32517.6
25199.1
16938.2
12649.2
10115.3
8515.6
7657.77
7154.45
6821.8
6578.3
6418.28
6317.67
6224.38
6120.71
6009.55
5913.86
63394.3
25554.9
29542.3
20936.8
15466.6
11755.5
9859.98
8485.09
7678.31
7180.23
6859.89
6622.83
6462.56
6361.19
6270.99
6166.91
6049.72
5944.42
61893.5
25233.7
26287.1
16202.9
13726
10789.1
9470.33
8363.61
7681.05
7200.38
6890.64
6658.31
6495.19
6386.79
6289.96
6187.64
6077.85
5981.05
61138.5
24329.7
23707.7
12406.3
11765.6
9611.92
8855.75
8086.02
7608.54
7189.55
6894.97
6667.67
6501.2
6382.72
6283.24
6189.06
6096.1
6012.9
61836.5
24714.2
22482.6
10843.1
10100.6
8626.81
8137.01
7644.61
7366.96
7075.59
6844.01
6643.68
6487.53
6367.73
6267.95
6178.02
6097.73
6026.48
62863.3
25653.5
22355.3
10389.4
9057.01
8149.06
7623.11
7318.21
7111.14
6921.07
6759.81
6599.12
6465.05
6353.28
6257.15
6172.31
6098.35
6024.6
65637.1
27625.7
23679.1
10648.8
8572.77
7946.92
7363.12
7101.64
6899.49
6739.04
6622.49
6511.62
6419.44
6334.43
6252.93
6171.97
6093.72
6004.13
65833.4
29211.6
23042.9
10628.9
8185.53
7773.14
7307.55
7092.94
6893.4
6726.43
6581.32
6456.04
6355.19
6266.07
6189.11
6119.66
6050.38
5983.55
64225.8
29085
23510.9
9985.83
7992.58
7424.63
7158.54
6970.53
6833.11
6687.27
6558.99
6442.31
6346.14
6274.48
6215.18
6145.36
6071.89
6004.8
53553.9
20730.5
19056.8
8357.06
7624.47
7065.05
7026.54
6884.05
6842.45
6716.78
6595.42
6473.38
6366.76
6274.02
6196.83
6127.29
6063.45
6008.83
47187.6
17011.4
15199.6
8012.77
7925.67
7176.48
7142.29
6933.31
6883.58
6769.52
6664.71
6537.1
6428.7
6334.39
6251.33
6169.5
6086.03
6018.58
46199.6
17655.1
14178.4
8385.95
8618.47
7474.44
7343.41
7046.66
6942.1
6770.82
6663.32
6540.08
6432.76
6334.35
6252.21
6178.8
6105.88
6040.53
47048.5
18658.1
18094.2
10905.7
9639.89
7895.51
7417.91
6988.86
6870.33
6709.59
6627.73
6512.39
6415.02
6329.11
6254.55
6183.12
6114.79
6054.11
46823.8
20194.2
22103.9
13808.8
10063.6
8081.38
7371.89
6876.63
6769.48
6636.33
6580.93
6476.4
6396.51
6320.23
6253.69
6186.28
6124.44
6064.92
46245.8
21947.4
23606.1
14067.8
9749.62
7884.87
7300.62
6805.4
6727.6
6593.93
6550.95
6458.72
6403.82
6336.73
6268.96
6204.65
6146.89
6091.78
46981.4
23467.4
22960
13087.3
9521.88
7720.27
7271.26
6786.71
6742.43
6594.08
6547.96
6469.37
6418.91
6342.55
6265.29
6199.63
6145.53
6099.78
47845.1
25863.3
20202.4
12125.3
9335.52
7641.58
7280.82
6811.28
6786.35
6609.49
6563.88
6480.74
6424.03
6343.31
6259.49
6182.84
6129.1
6096.97
48755.4
31584.8
17637.4
11851.1
9417.27
7643.74
7307.64
6842.33
6819.39
6616.46
6572.24
6484.18
6418.53
6333.19
6248.58
6176.17
6129.48
6097.2
51251.4
40020
17516.7
12490.1
9578.84
7741.27
7337.82
6870.42
6835.96
6623.22
6576.99
6482.66
6413.04
6321.31
6235.35
6170.4
6127.99
6087.45
54428.4
42622.3
18906.7
12675.5
9633.91
7713.42
7301.11
6843.55
6796.99
6589.1
6545.34
6450.64
6378.49
6287.35
6207.28
6146.79
6105.88
6068.63
73940.2
39694.9
22829
19199.1
13983.2
10208.6
8576.11
7658.57
7296.15
6912.37
6670.56
6489.94
6349.22
6224.65
6101.08
5968.78
5823.61
5685.23
66448
40406.8
22092.2
19379.8
13913.2
10201.5
8579.61
7652.3
7290.09
6919.83
6684.01
6503.22
6362.65
6236.65
6111.22
5977.01
5830.68
5700.99
60685.5
37132.9
22213.8
19851.9
14222.3
10305.8
8612.99
7645.77
7284.47
6926.54
6689.1
6501.57
6360.52
6235.46
6114.4
5984.99
5843.46
5716.53
59898.1
33010.9
24158.9
20932.5
14663
10534
8716.16
7676.4
7304.43
6954.4
6706
6502.14
6360.32
6240.61
6127.22
6001.71
5866.44
5745.94
60877.6
29405.3
27428.5
22412.2
15306.2
10852.4
8879.52
7744.33
7351.25
6996.09
6731.28
6506.06
6354.11
6236.11
6129.62
6012.95
5886.88
5775.41
61633
27036
31273.4
24377.7
16079.4
11309.6
9092.21
7839.06
7398.1
7038
6760.49
6516.69
6347.72
6231.02
6130.17
6020.36
5904.82
5804.17
62019.9
26354.1
34632.2
26614.5
16925.1
11921
9371.81
7953
7430.06
7056
6773.72
6521.65
6343.9
6224.21
6124.89
6021.59
5923.22
5832.8
62292.8
26620.7
36458.2
28201.2
17565.9
12546.2
9675.87
8079.76
7459.35
7051.31
6764.93
6519.06
6339.93
6223.5
6124.47
6024.67
5939.16
5864.71
62863.3
27082.5
36472.5
28780.9
17847.2
13025
9955.33
8223.88
7496.17
7057.98
6762.53
6523.77
6355.36
6240.76
6144.31
6050.29
5969.27
5897.42
64558.1
27319.9
35227.1
27588.4
17512.1
13120.6
10161.8
8386.06
7566.66
7098.57
6787.19
6551.2
6394.97
6279.66
6187.14
6103.75
6021.8
5937.37
65358.5
26465
32403
24782.7
16654.3
12684.3
10147.9
8505.49
7650.83
7150.54
6831.12
6593.14
6434.73
6333.51
6247.66
6161.64
6067.07
5971.54
64862.3
25300.9
29191.9
20529.3
15246
11791.9
9857.17
8487.31
7696.51
7184.18
6865.86
6639.42
6482.55
6371.98
6277.9
6183.67
6090.08
5999.49
64012.3
24852.8
26462
16041.3
13538.8
10756.9
9458.93
8369.47
7694.14
7198.41
6883.04
6660.75
6507.05
6394.57
6292.11
6189.98
6097.9
6018.05
62759.2
24165.7
24024.6
12343.1
11660.7
9629.78
8896.2
8118.48
7626.51
7184.04
6885.49
6669.83
6512.2
6392.42
6286.14
6185.76
6098.43
6023.66
62645.7
24368.4
22454.3
10800.4
9989.41
8589.4
8150.36
7669.57
7371.39
7070.81
6842.88
6654.69
6505.04
6385.94
6277.4
6174.31
6089.36
6018.29
63260.3
25764
22248.8
10172.3
8939.69
8095.12
7634.85
7308.67
7110.15
6921.39
6754.86
6597.68
6468.43
6363.04
6269.59
6174.39
6092.49
6021.94
66247.6
27625.8
23397.4
10470.6
8556.87
8000.54
7397.79
7108.17
6901.36
6742.4
6628.25
6527.92
6437.8
6343.08
6254.99
6177.39
6106.26
6018.79
66128
30586.1
23104.1
10630
8228.53
7729.32
7324.2
7093.88
6893.93
6726.32
6583.13
6456.54
6352.98
6266.48
6195.79
6123.71
6050.54
5976.71
63637.1
27963.1
23810.8
10108.7
7998.96
7448.78
7131.22
6947.7
6826.1
6687.93
6563.34
6449.48
6356.15
6281.16
6217.99
6149.38
6076.56
6007.38
53552.3
20019.5
19921.9
8421.06
7587.98
7091.23
7046.85
6914.98
6852.66
6728.5
6595.48
6470.57
6365.52
6270.14
6192.66
6124.86
6069.04
6017.98
45736.2
16766.7
15220.7
8062.14
7879.47
7180.93
7168.64
6983.06
6907.42
6766.06
6643.15
6520.28
6419.04
6327.79
6237.01
6146.66
6064.56
6001.32
45113.7
17075.9
13922.2
8417.44
8562.32
7467.6
7339.78
7064.74
6966.65
6777.04
6645.08
6521.81
6418.06
6324.1
6245.01
6177.57
6108.54
6043.6
45232.2
18309.8
18081.4
10946.2
9538.33
7827.42
7399.87
6991.03
6894.14
6725.16
6628.56
6509.26
6416.37
6336.64
6267.32
6197.87
6124.58
6057.44
45749.1
19894
22231.6
13747.4
9987.52
8023.81
7350.78
6887.07
6784.92
6639.85
6578.15
6480.14
6405.55
6332.46
6265.22
6199.43
6132.6
6069.24
45956.6
21685
23436.6
13950.2
9713.37
7865.03
7278.92
6822.1
6753.49
6604.24
6558.7
6473.52
6417.34
6348.69
6274.75
6203.56
6148.07
6095.5
47086.2
23333.3
23075.3
13086.6
9579.64
7714.88
7256.19
6816.21
6782.2
6621.57
6570.33
6484.12
6424.96
6347.07
6271.23
6206.95
6156.95
6111.89
48538.8
25855.2
20540.1
12273.1
9465.66
7728.2
7306.14
6839.42
6820.91
6649.02
6601
6505.02
6432.38
6344.67
6263.08
6195.92
6148.9
6111
49257.8
31825.3
18008.8
11920.5
9583.83
7780.62
7337.94
6852.68
6836.7
6645.74
6597.81
6500.25
6423.32
6336.12
6252.51
6187.2
6144.61
6105.56
51487.7
40757.9
18106.2
12491.1
9634.39
7821.89
7344.94
6862.6
6839.12
6628.47
6580.7
6490.15
6419.12
6332.67
6247.84
6183.98
6139.92
6094.69
54286.8
43727.7
19765.9
12681.8
9716.24
7784.26
7300.7
6809.74
6785.38
6575.69
6535.73
6448.18
6380.54
6295.78
6219.47
6161.21
6118.16
6072.85
73573.9
40135.1
23554.3
18789.5
14053.7
10107.3
8535.4
7610.8
7269.6
6891.17
6659.18
6487.14
6354.73
6230.79
6106.61
5977.26
5835.1
5683.77
66055.4
40550
22586.6
18935.1
13988.9
10112.9
8561.65
7601.98
7271.57
6904.56
6675.99
6497.65
6362.54
6241.51
6122.93
5991.5
5845.52
5698.24
60277.8
36386
22672.1
19516.6
14294.4
10251.5
8624.77
7610.92
7264.13
6908.82
6679.61
6497.59
6362.89
6243.46
6127.13
5998.61
5853.76
5715.9
59635.9
31798.5
24593
20779.9
14795.2
10513.1
8731.14
7659.02
7286.66
6938.52
6700.68
6508.9
6373.44
6253.15
6136.94
6013.04
5873.93
5741.82
60819
28365.9
27920.2
22500.2
15511.6
10868.3
8879.39
7700
7310.22
6975.25
6727.21
6521.59
6380.67
6260.89
6144.87
6025.31
5891.6
5763.51
61613.8
26511.8
31503.5
24588.3
16317.6
11355.2
9083.16
7777.51
7339.38
7005.97
6748.65
6529.32
6376.74
6256.54
6142.5
6029.17
5907.23
5790.11
62188.2
25907.7
34559.8
26814.7
17122.4
11944.1
9349.4
7913
7382.34
7023.55
6760
6532.25
6366.64
6239.95
6133.44
6033.77
5926.68
5823.14
62750.3
26134.6
36249.6
28515
17673.5
12527.3
9661.84
8086.68
7443.53
7039.5
6767.63
6541.89
6367.91
6235.23
6133.19
6040.27
5946.24
5856.48
63264.1
26597.4
36161.7
29116.2
17832.6
13009.9
9961.61
8263.43
7525.49
7076.28
6784.94
6560.33
6387.62
6253.64
6151.48
6064.01
5977.48
5893.58
64394
26646.8
34601.2
27713.8
17474
13155.1
10170.6
8436.56
7638.66
7140.58
6816.66
6586.97
6428.33
6295.19
6190.34
6115.32
6036.47
5948.24
65111.5
25937.2
31643.2
24794.5
16548.9
12687.9
10178.8
8554.01
7735.77
7199.59
6857.56
6623.04
6466.12
6342.37
6243.8
6168.56
6088.77
5999.03
64750.2
24994.1
28800.7
20776.3
15185.6
11788.5
9908.84
8511.88
7743.75
7216.6
6883.85
6663.4
6508.85
6391.44
6291.45
6204.06
6126.28
6043.4
63850.8
24740.2
26766.3
16434.3
13555.3
10758.7
9487.68
8375.19
7711.41
7215.08
6906.52
6684.26
6530.48
6415.85
6309.53
6216.76
6137.8
6059.29
62456.4
24454.1
24679.8
12495.6
11682.3
9660.67
8922.43
8140.32
7631.16
7186.15
6900.56
6689.73
6530.96
6407.24
6302.46
6217.42
6138.17
6057.48
62667.4
24665.1
23447.2
10873.3
10098.1
8681.8
8220.26
7711.47
7377.86
7064.97
6837.58
6661.15
6520.04
6403.1
6292.75
6193.23
6109.93
6035.18
63429.2
25704.7
23027.1
10299.4
9075.81
8127.35
7652.1
7287.82
7085.47
6898.64
6740.66
6599.36
6473.05
6366.46
6275.33
6190.18
6104.12
6024.57
66981
27597.2
23961.2
10656.1
8607.5
7933.76
7380.25
7081.69
6896.4
6734.24
6613.83
6517.72
6429.82
6336.16
6254.54
6183.57
6111.4
6026.91
65966
30254.1
22926.4
10739.1
8155.83
7707.34
7283.85
7072
6887.21
6726.01
6592.43
6461.96
6350.95
6264.37
6198.56
6127.33
6047.1
5967.21
64391.1
27653.4
23531.8
10065.8
7859.02
7411.81
7145.68
6958.94
6824.99
6691.77
6566.42
6448.76
6357.62
6279.76
6212.2
6144.5
6073.38
6005.01
54168.6
19853.6
19666.3
8464.26
7543.56
7090.03
7070.31
6931.6
6858.58
6736.23
6593.75
6456.33
6348.13
6260.51
6190.97
6126.29
6066.95
6016.28
46864.8
16691.2
15383.6
8003.11
7864.81
7181.82
7167.16
6978.6
6906.88
6771.26
6636.5
6502.59
6398.67
6309.94
6222.18
6134.81
6057.31
5999.46
45387.9
16934.5
14060.2
8619.92
8547.42
7464.2
7343.71
7057.11
6946.25
6766.7
6633.18
6510.25
6408.06
6319.74
6245.9
6176.17
6105.95
6042.13
45237.4
18493.1
18251.2
10940.9
9518.11
7867.04
7446.27
7025.34
6900.46
6714.79
6614.41
6505.13
6416.47
6335.74
6261.2
6192.34
6126.49
6059.89
45580.9
19833.7
22647.8
13662.4
9933.37
7996.71
7403
6930.74
6798.65
6624.95
6566.66
6481.3
6407.41
6332
6257.17
6190.11
6132.62
6076.96
46069.2
21336.9
24022.9
14025.1
9739.56
7895.94
7336.79
6863.69
6767.18
6593.7
6545.47
6464.73
6404.75
6337.07
6265.65
6198.23
6143.68
6095.18
47214.7
23241
23478.9
13304.7
9670.43
7734.39
7317.79
6862
6779.19
6604.42
6550.72
6469.39
6415.12
6339.74
6265.63
6207.38
6163.12
6117.82
48552.2
25530.7
21314.5
12453.7
9571.97
7771.23
7350.99
6873.79
6815.15
6638.43
6583.68
6490.92
6422.57
6333.79
6261.2
6210.06
6173.21
6127.63
49261
31252.3
18531.7
12049.5
9612.28
7807.84
7364.75
6865.49
6821.45
6639.74
6593.66
6501.99
6423.47
6325.53
6252.19
6204.73
6168.45
6118.53
51656.8
41414
18335.2
12666.7
9698.19
7859.91
7379.96
6858.98
6827.95
6638.39
6591.71
6496.77
6414.27
6318.65
6252.05
6202.86
6151.72
6095.89
54746.3
46658.1
20067.6
12829.9
9750.91
7820.8
7324.02
6803.43
6776.23
6586.07
6542.2
6450.2
6374.81
6288.93
6227.07
6180.69
6130.57
6070.39
73849.5
40150.1
22816.7
19025.9
14035.5
10239.5
8586.92
7613.25
7267.35
6907.26
6690.95
6511.43
6360.12
6216.01
6086.83
5978.36
5862.39
5721.22
66276
40571.7
21756.7
19067.9
13885.4
10199
8608.04
7608.33
7270.7
6913.44
6698.03
6514.54
6363.06
6225.6
6102.62
5993.18
5870.18
5725.01
60498.5
36241.7
21820.5
19477.2
14203.2
10314.3
8664.52
7608.95
7260.64
6905.85
6684.23
6503.75
6357.89
6232.27
6117.33
6000.37
5865.62
5725.73
59815.8
31568.4
23999.5
20614.7
14682.8
10564.9
8747.32
7633.46
7267.66
6926.09
6696.17
6508.84
6363.67
6244.17
6136.91
6015.65
5875.12
5740.81
60885.7
28110.6
27586.6
22332.9
15492
11009
8899.89
7682.21
7293.62
6967.64
6725.53
6522.03
6372.04
6252.42
6144.01
6021.51
5886.74
5761
61541.6
26212.5
31161.9
24484.5
16382.4
11611.5
9129.47
7766.4
7321.64
6996.64
6741.91
6527.34
6376.07
6258.53
6145.69
6023.68
5900.23
5786.36
61820.4
25653.5
34186
26903.7
17338.4
12312.9
9459.59
7911.52
7366.38
7016.44
6747.58
6533.89
6378.88
6257.96
6147.01
6037.48
5923.53
5818.54
61909.8
25976.9
35756
28776.6
17985.4
12931
9847.04
8119.27
7436.24
7034.38
6751.43
6542.68
6385.61
6256.76
6152.92
6060.12
5957.1
5859.73
62277
26621.7
35617.8
29460.1
18155.5
13347.6
10164.1
8325.02
7536.08
7073.27
6767.95
6560.22
6407.48
6273.04
6174.11
6092.83
5998.35
5904.05
63024.5
26832.3
33682.6
28018.5
17762.9
13302.2
10260.9
8464.97
7652.87
7137.49
6805.02
6594.11
6454.67
6322.33
6214.76
6131.08
6041.2
5952.82
63660.6
26301.5
30609.4
24983.7
16813.1
12677.1
10132.1
8513.19
7724.13
7196.67
6853.91
6642.55
6501.98
6370.9
6264.33
6176.97
6088.53
6008.9
63143.9
25238.8
27970.8
20876.8
15425.3
11782.2
9851.6
8470.01
7738.56
7222.94
6888.11
6681.21
6540.98
6419.97
6308.6
6211.28
6129.11
6058.99
61961.4
25224.7
25908
16474.1
13639.5
10752.2
9473.72
8380.98
7743.01
7238.3
6919.93
6705.12
6558.47
6448.11
6338.49
6238.14
6157.58
6085.1
60795.1
25062.1
24502.6
12541.4
11591
9578.2
8934.65
8181.59
7679.18
7212.21
6908.95
6699.07
6552.43
6446.15
6347.47
6255.06
6173.22
6091.7
61345.7
24679.9
24012.3
11088.4
10038.7
8636.39
8252.77
7754.31
7413.19
7076.86
6843.59
6668.93
6539.35
6431.76
6331.05
6233.01
6147.3
6068.87
62755
24603.8
23341.2
10693.8
9049.49
8092.8
7627.79
7276.52
7079.8
6905.46
6755.43
6619.66
6492.41
6380.19
6286.37
6196.68
6108.91
6030.54
65857
26409.1
23873.9
10739.4
8610.13
7867.44
7358.39
7060.68
6897.91
6753.72
6626.52
6518.09
6414.31
6317.99
6238.21
6162.04
6086.64
6011.61
66721.1
27819.3
23704.4
10491.1
8184.15
7675.84
7255.57
7051.44
6867.66
6727.87
6587.89
6451.05
6339.36
6257.68
6190.91
6117.76
6039.83
5963.14
64321.4
27419.6
23307
9844.91
7886.56
7448.49
7134.71
6945.7
6809.61
6693.95
6572.21
6446.07
6349.28
6273.71
6204.24
6137.12
6072.15
6006.33
53423.2
20546
19416.6
8450.09
7572.09
7093.99
7070.53
6916.45
6847.75
6722.07
6575.04
6437.1
6337.27
6268.12
6207.67
6143.75
6080.72
6023.24
46840.9
16887
15494.8
8085.89
7838.89
7195.44
7168.1
6976.16
6897.05
6760.26
6631.58
6501.67
6399.5
6310.46
6228.43
6143.52
6062.88
6004.08
46060.5
17155.6
14968.4
8655.6
8536.24
7483.34
7361.89
7061.89
6921.59
6740.16
6607.42
6486.47
6393.42
6320.15
6253.45
6178.81
6102.52
6038.89
45005.1
18550.7
19160.4
10966.2
9575.6
7949.67
7502.33
7063.52
6904.82
6695.47
6581.88
6479.49
6405.59
6331.62
6258.19
6187.67
6124.38
6061.14
45962.7
20093.5
23255.7
13570.6
10049.8
8011.26
7458.68
6974.16
6823.6
6619.04
6547.29
6467.79
6399.83
6323.67
6249.34
6182.38
6130.03
6078.47
46095.1
21432.7
24245.5
14103.6
9907.09
7877.03
7378.51
6893.48
6774.25
6583.53
6525.2
6446.78
6391.45
6327.23
6260.08
6197.98
6142.09
6092.5
46966.5
23384.6
23897.1
13248.5
9748.88
7774.48
7325.62
6834.49
6748.99
6578.67
6526.92
6445.48
6394.74
6332.38
6270.47
6213.82
6160.27
6107.69
48148.1
25290.4
21902.6
12256.2
9579.59
7795.5
7350.67
6850.35
6779.25
6615.8
6562.84
6471.23
6408.72
6337.91
6281.6
6231.02
6179.49
6120.86
49002.8
31085.1
19244.3
11936.1
9534.51
7778.97
7350.77
6863.08
6806.27
6638.08
6588.56
6484.87
6408.35
6334.86
6279.52
6229.41
6177.58
6114.74
51690.6
40697.1
18965.6
12704.8
9664.77
7829.41
7370.5
6877.69
6828.51
6655.73
6595.88
6480.05
6399.4
6327.73
6273.82
6216.59
6153.45
6093.95
54930.2
44632.8
20092.5
12919.5
9702.79
7805.89
7319.66
6810.82
6766.14
6592.65
6543.13
6441.67
6375.74
6303.72
6246.85
6189.18
6128.66
6070.56
73397.1
39806.9
23091.4
20096.6
13891.3
10231.7
8644.8
7668.73
7313.61
6931.56
6691.81
6488.77
6333.96
6199.69
6073.95
5975.95
5867.9
5719.81
65943.4
40422.6
22477.6
20263.5
13857.2
10219
8656.77
7657.63
7309.27
6931.96
6686.31
6481.92
6330.12
6200.58
6078.54
5986.77
5879.59
5735.78
60074.1
36614.9
22631.4
20459.7
14220.8
10367.3
8711.31
7658.44
7311.95
6931.4
6671.42
6471.43
6325.48
6203
6090.74
5991.51
5876.89
5738.1
59594.5
32146
24632.2
21346.6
14636.3
10639.4
8793.51
7689.93
7332.96
6955.38
6681.81
6477.29
6330.36
6210.12
6104.24
6000.03
5879.17
5748.08
60945
28702.4
28041.6
22871.4
15367.5
11092
8955.04
7756.97
7371.06
6995.86
6703.63
6490.21
6341.21
6220.14
6112.61
6003.67
5883.94
5760.93
61877.8
26654.2
31757.2
24924.3
16236.8
11726
9190.8
7855.32
7409.85
7026.11
6718.47
6499.27
6353.81
6234.94
6122.32
6008.37
5892.96
5778.45
61787
25940.4
34968.4
27281.1
17265.2
12476.7
9516.7
7993.84
7437.15
7042.27
6730.5
6510.65
6360.89
6242.6
6134.02
6022.85
5911.36
5803.52
61527.5
26033.6
36620.9
28996.5
18054.5
13203.5
9899.52
8166.63
7481.15
7057.54
6747.89
6535.36
6376.61
6245.18
6141.42
6040.92
5935.98
5838.06
61789.6
26366.6
36260.9
29469.7
18428.5
13691.4
10221.4
8329.41
7544.32
7077.88
6764.81
6563.32
6412.44
6272.79
6166.39
6074.62
5977.21
5884.76
62124.7
26499.7
33966.1
28106.4
18155.2
13525
10226.3
8408.23
7613.84
7110.64
6786.54
6599.17
6465.54
6331.86
6219.59
6124.83
6031.06
5941.5
62335.9
25848.5
30337.8
24963.1
17097.9
12716.2
10006.2
8420.2
7662
7156.13
6825.05
6648.71
6517.23
6387.03
6271.38
6171.76
6081.28
5999.41
61704.4
24761.8
27216.2
20564.5
15463.4
11719.9
9718.01
8380.7
7691.96
7184.71
6853.25
6674.61
6547.55
6427.47
6304.08
6194.07
6111.02
6045.56
60799
24512.7
25055.1
16080.9
13606.8
10656.7
9350.7
8282.02
7695.39
7205.84
6887.89
6690.9
6557.91
6449.44
6331.01
6221.84
6145.2
6083.45
59815.1
24197.6
23633.4
12240.1
11554.3
9524.86
8806.56
8065.59
7621.75
7188.22
6897.51
6701.94
6565.27
6456.5
6347.85
6245.85
6167.94
6098.02
60236.4
24347.7
23396.9
10803.6
9963.55
8590.74
8201.81
7714.01
7390.64
7069.77
6844.14
6684.43
6553.76
6440.06
6341.69
6250.67
6167.4
6088.31
62180.5
24717.7
22882.8
10591.9
8916.94
8054.73
7618.34
7293.14
7090.29
6917.75
6762.72
6628.89
6507.03
6398.44
6302.36
6206.81
6115.09
6028.48
64715.3
26548.8
23029.6
10716.2
8675.55
7858.75
7350.23
7080.22
6913.87
6765.17
6632.7
6519.1
6411.26
6314.61
6229.82
6145.69
6062.49
5985.07
65003.8
26906.7
23002.9
10468.4
8304.3
7651.83
7266.32
7043.03
6848.98
6710.92
6573.9
6442.94
6333.56
6251.29
6180.75
6107.39
6031.11
5958.69
62797
26698.2
22417.7
9649.33
7834.34
7420.79
7167.66
6948.72
6809.34
6684.69
6564.15
6446.55
6344.57
6267.37
6196.71
6131.46
6070.79
6006.71
54062.3
21083.2
18804.4
8536.62
7650.68
7120.32
7070.64
6895.87
6823.01
6687.21
6546.2
6425.17
6337.24
6271.65
6210.69
6154.65
6090.93
6024.67
49151.2
16970.2
15593
8009.25
7792.28
7204.86
7169.66
6980.66
6885.54
6737.66
6609.69
6481.57
6382.99
6304.22
6229.43
6154.42
6081
6023.78
46348.7
17437
15717.5
8597.69
8525.81
7525.93
7378.45
7072.77
6911.51
6718.35
6583.73
6471.42
6386.73
6316.7
6254.27
6181.07
6107.33
6046.82
45660.7
19079.4
19636.2
10829.3
9693.77
8046.25
7551.3
7097.11
6892.87
6670.11
6562.91
6474.4
6408.19
6335.01
6262.94
6189.45
6123.65
6063.79
46264.9
20693.9
23344.7
13441.3
10180.5
8066.47
7464.4
6968.27
6814.09
6608.3
6532.67
6460.81
6403.52
6330.95
6258.08
6190.98
6131.66
6080.54
46423.1
22287.7
24280.9
13809.3
9947.31
7901.02
7366.17
6866.1
6759.02
6577.19
6524.32
6453.42
6398.62
6334.11
6267.18
6201.14
6138.98
6085.55
47288.1
23963.9
23801.8
12970.4
9779.01
7770.19
7292.14
6797.4