/*--------------------------------*- C++ -*----------------------------------*\
| =========                 |                                                 |
| \\      /  F ield         | OpenFOAM: The Open Source CFD Toolbox           |
|  \\    /   O peration     | Version:  2112                                  |
|   \\  /    A nd           | Website:  www.openfoam.com                      |
|    \\/     M anipulation  |                                                 |
\*---------------------------------------------------------------------------*/
FoamFile
{
    version     2.0;
    format      ascii;
    arch        "LSB;label=32;scalar=64";
    class       volVectorField;
    location    "0.51";
    object      U_0;
}
// * * * * * * * * * * * * * * * * * * * * * * * * * * * * * * * * * * * * * //

dimensions      [0 1 -1 0 0 0 0];

internalField   nonuniform List<vector> 
122250
(
(-56.2896 1.45374 -1.52015)
(36.073 -1.81145 7.98619)
(-9.92874 -1.64623 1.51456)
(5.9121 -1.40288 5.27043)
(3.7088 -1.57836 9.85353)
(21.267 -0.0957815 13.9421)
(14.9667 2.02813 9.9847)
(3.18525 -0.0899533 4.26701)
(4.33597 -1.43381 1.95975)
(6.49127 -0.788565 1.77192)
(9.11643 -0.185934 0.596385)
(11.6088 0.224895 1.22691)
(11.1285 0.496896 6.1456)
(8.36729 0.407813 7.20072)
(6.53926 -0.215661 3.14302)
(6.71545 -0.637311 0.823133)
(5.93255 0.159331 1.93552)
(3.80863 0.656625 1.69239)
(-17.7008 -2.90198 -5.92104)
(32.7422 -4.78924 -7.90605)
(19.9545 -2.20775 -1.71309)
(-4.11897 1.31567 7.7691)
(-1.17335 -0.791196 8.57219)
(10.5439 -2.4207 5.86574)
(18.1267 2.50755 6.72654)
(19.0297 4.13378 9.00063)
(17.8451 1.48781 7.81422)
(13.7058 -0.170234 4.15483)
(10.9005 -0.795431 2.62797)
(9.54262 -0.951456 3.43925)
(11.1603 0.629184 7.62154)
(12.8469 2.58906 8.51818)
(10.1776 1.93627 4.066)
(5.94893 0.705485 1.66413)
(4.36792 0.676716 2.59375)
(4.71943 1.50034 3.53163)
(-42.5193 -3.79512 -6.60944)
(-3.82203 -8.38748 -9.82483)
(-22.7801 -2.3525 -3.80552)
(-6.02834 2.56269 6.65666)
(8.55415 -5.02855 2.4006)
(10.4008 -7.43832 -3.93884)
(11.3437 -2.61014 -2.25331)
(17.3727 1.73912 4.64073)
(17.0825 2.15012 7.45589)
(16.6764 2.20561 6.11789)
(16.2502 1.26474 4.42468)
(12.1293 -1.11757 5.06235)
(10.0918 -1.23329 8.10933)
(12.4905 1.96545 8.56392)
(11.1942 3.08518 4.28175)
(7.59337 1.98977 1.92328)
(5.10634 0.774814 2.06957)
(4.66902 0.361184 2.63993)
(-43.8136 -1.85784 -5.84081)
(-20.7444 -7.17013 -3.69361)
(-50.8182 -7.44537 -0.675841)
(21.0662 -2.81041 0.0570811)
(16.0175 -0.276634 -1.02278)
(17.0403 -3.20765 0.407321)
(9.76089 -3.14087 -2.34162)
(12.129 1.19394 1.62652)
(12.3057 2.83384 5.01221)
(13.1701 2.45065 4.84171)
(14.9042 1.32867 4.32115)
(12.741 -1.02519 6.33302)
(10.3448 -1.42877 8.25537)
(12.0152 1.98612 7.21836)
(11.319 3.92253 3.37835)
(8.80826 3.21448 1.8586)
(7.61724 1.81741 2.47647)
(7.10661 0.741456 2.74913)
(-42.762 -0.00583015 -6.44021)
(6.13622 -7.58868 -2.90987)
(-31.3685 -17.5133 12.0799)
(4.14131 -11.0499 5.04209)
(1.07775 -4.16655 -0.0191984)
(8.37496 -3.54905 0.0187666)
(6.38925 -2.6646 -0.891076)
(7.33848 1.7339 1.76673)
(7.981 2.12224 4.0656)
(10.7034 0.632223 4.09801)
(13.3717 -0.103759 5.15907)
(10.5602 -1.89595 8.44615)
(8.47502 -1.7898 9.02211)
(10.6771 2.08005 5.55219)
(10.3868 4.54911 1.90656)
(8.3887 3.78933 1.76161)
(7.95451 1.61977 3.03874)
(8.31503 0.557324 3.28628)
(-42.9947 0.256926 -7.38014)
(26.5893 -5.14386 -14.0649)
(-19.6049 -8.41466 10.2617)
(-9.88141 -4.71768 6.84148)
(-8.03565 1.96751 -7.22685)
(4.60035 -2.12078 -4.79764)
(2.13855 -1.41095 -1.43192)
(5.41793 0.898096 2.73126)
(6.33115 0.323047 4.71507)
(8.29271 -2.02157 4.70386)
(11.1654 -1.97939 5.78054)
(8.58128 -2.19051 9.01526)
(6.94429 -1.50704 8.53317)
(9.21017 2.38549 3.7179)
(8.30853 4.99923 0.817167)
(7.01782 3.76692 1.70189)
(7.52841 1.46935 2.57895)
(8.17686 0.446286 2.55862)
(-41.5791 -0.62802 -7.19404)
(21.6541 -17.3258 -9.69975)
(-24.8375 -10.7623 11.1857)
(-5.8147 -7.23295 8.74324)
(2.56973 -0.767297 -7.46042)
(6.14112 -3.58387 -5.89109)
(3.6907 -2.33711 -1.43037)
(5.54553 0.166691 2.99674)
(4.80112 -0.702559 5.37887)
(5.50454 -3.7757 4.92128)
(7.48137 -3.61387 6.47803)
(5.47234 -2.56261 9.41307)
(4.81539 -0.816626 7.56323)
(6.40333 3.34305 2.44488)
(5.38876 5.15369 0.583471)
(6.01823 3.27061 1.38684)
(7.28822 1.33442 1.7975)
(8.54059 0.206941 1.86613)
(-38.3583 -0.819984 -6.62876)
(11.4928 -16.889 -3.91072)
(-26.5137 -13.7154 18.2799)
(-3.81223 -4.93798 4.39005)
(-3.65547 -0.957659 -6.21925)
(4.95804 0.96124 -1.15918)
(1.71453 -0.00378531 2.77303)
(4.3226 0.327628 4.63851)
(2.62768 -1.53876 6.06824)
(3.83322 -4.50608 4.04276)
(4.07326 -4.71421 5.58561)
(2.55786 -2.44406 8.54551)
(2.05512 0.553187 6.07567)
(3.1408 4.33302 1.35257)
(4.22831 4.71735 -0.358814)
(6.16351 2.87965 -0.103472)
(7.9717 0.88171 0.456232)
(9.26025 -0.748093 0.72357)
(-35.9249 -0.416312 -6.42228)
(13.8164 -15.4703 -8.08151)
(-25.6111 -14.719 15.4079)
(-5.99355 -7.85318 3.12555)
(-13.0622 -2.80926 -5.4266)
(1.71188 -1.52866 2.41414)
(-2.69367 1.01485 3.92513)
(1.40719 1.0829 5.03021)
(0.249544 -2.66143 5.55052)
(3.14423 -4.66874 2.18849)
(1.63909 -5.278 3.24816)
(0.440436 -2.43524 7.00821)
(0.158624 1.37583 3.81539)
(2.32513 4.19818 -0.154028)
(4.54396 4.02462 -1.22296)
(6.60979 2.1423 -1.1253)
(8.19201 0.0493462 -0.979326)
(7.5822 -0.88823 -1.79019)
(-34.8585 -0.428501 -6.28716)
(17.6013 -16.8273 -7.97079)
(-21.8261 -11.5014 16.0979)
(-2.83039 -7.30646 5.56626)
(-8.44942 -3.87104 -6.20702)
(-5.12304 -0.806762 2.37064)
(-9.78018 0.725198 1.29271)
(1.6776 -1.61264 3.50886)
(-0.392254 -3.56381 3.66691)
(2.67202 -4.3987 0.24281)
(0.302362 -5.50302 0.347936)
(-0.094535 -3.41979 4.63161)
(-0.846018 0.520787 3.32323)
(1.12727 3.00658 0.0926894)
(3.42777 2.64865 -1.92712)
(5.7444 0.906507 -3.18315)
(5.81007 -0.541779 -4.00916)
(4.23562 -1.89426 -4.39657)
(-33.4389 -0.799793 -6.25174)
(13.9253 -17.5714 -3.21107)
(-22.3076 -9.66929 18.1082)
(-1.33271 -4.71611 4.34864)
(3.64221 -4.04717 -7.58135)
(-0.125973 -0.072518 1.0226)
(-1.4514 -0.0469249 -1.25647)
(0.408277 -2.80781 1.11077)
(-0.771616 -3.59492 1.66084)
(1.46141 -4.08634 -1.21076)
(-0.881848 -5.01549 -2.03012)
(-2.45775 -4.4171 -0.0418318)
(-2.73431 -1.38129 0.112553)
(-1.33377 0.236357 -2.68913)
(0.808125 -0.416807 -4.61595)
(1.98386 -0.944159 -5.55378)
(1.40771 -1.65885 -5.30638)
(1.90542 -2.71956 -2.97135)
(-30.3418 -0.640921 -5.63606)
(7.50199 -14.8044 -2.31571)
(-23.0477 -10.2384 19.4899)
(-5.49765 -5.13086 3.56756)
(-9.7601 -4.82125 -6.04065)
(1.07689 1.70409 -2.40639)
(0.222634 -1.01562 -2.77589)
(-1.45545 -2.11633 1.33038)
(-2.06781 -3.37992 0.690284)
(-0.35109 -3.86715 -1.5715)
(-1.38512 -4.53673 -2.89071)
(-3.19155 -5.63883 -3.28977)
(-3.67155 -4.08596 -3.09087)
(-2.71834 -3.02941 -3.92766)
(-1.41567 -2.37987 -4.06943)
(-0.862868 -2.23823 -4.04702)
(0.890098 -2.31573 -1.81023)
(1.729 -2.45584 0.228747)
(-31.8422 0.271739 -5.85525)
(5.67821 -10.42 -1.3682)
(-24.4116 -10.1436 20.9511)
(1.62728 -2.35572 1.57738)
(-13.9276 -4.38059 -3.47273)
(2.50084 -0.794497 -3.9875)
(-5.10438 -1.50421 -2.2191)
(-3.04815 -1.97871 1.7461)
(-4.08229 -3.5971 0.792362)
(-2.65213 -3.83054 -0.94023)
(-2.6807 -4.21617 -1.91405)
(-2.80091 -4.8561 -2.14443)
(-2.83207 -4.31254 -1.49958)
(-1.74476 -2.56097 -0.635333)
(-0.779337 -1.66652 -0.096872)
(0.951931 -1.18847 0.43426)
(1.12285 -1.05624 0.377694)
(0.571739 -2.76961 -0.051024)
(-32.1657 1.2118 -5.36686)
(13.7008 -7.4761 -3.29615)
(-21.8281 -10.9106 18.4648)
(4.31696 1.93154 4.08465)
(-12.3614 -2.09216 2.61856)
(6.66333 0.0140365 -2.71282)
(-3.2939 -0.517692 -2.58773)
(-2.39177 -2.56643 1.43965)
(-4.92536 -3.57441 1.46312)
(-3.93183 -3.56032 0.423849)
(-3.81622 -3.70903 0.0749194)
(-3.16058 -3.52928 0.726322)
(-2.27722 -2.51907 2.12696)
(-1.00431 -1.60775 2.60662)
(0.325582 -0.851165 2.27072)
(0.393938 -0.696554 0.621225)
(0.301202 -1.66475 0.00602303)
(0.590402 -2.64826 1.2313)
(-33.0983 1.39597 -5.69717)
(19.8683 -4.39462 -8.69738)
(-14.8865 -9.98255 16.7078)
(-1.39417 3.36651 10.1636)
(-10.9542 -1.28684 0.770268)
(5.49798 -1.37624 -3.56185)
(-1.54917 -0.0640243 -3.23302)
(-0.281589 -2.53371 0.552985)
(-4.11949 -3.23022 1.69548)
(-3.88192 -2.79054 1.12508)
(-4.14276 -2.71833 0.796223)
(-3.749 -3.02552 1.32354)
(-2.98905 -2.94277 1.73532)
(-2.19561 -2.42216 1.54536)
(-1.53869 -1.86181 0.993813)
(-0.653175 -1.74038 0.915989)
(0.277038 -1.98249 1.16892)
(0.149764 -2.76612 1.29122)
(-31.8851 0.977289 -4.89674)
(21.2619 -8.33156 -11.3843)
(-13.1292 -5.345 12.6223)
(-7.01307 1.68388 7.75372)
(-10.659 -3.13866 -0.817812)
(6.31086 1.0808 -6.17506)
(-0.765681 -1.09827 -5.66172)
(2.6219 -2.68303 -1.67988)
(-2.38813 -2.76764 1.14704)
(-3.88022 -2.5618 1.04605)
(-4.39986 -2.62339 1.02127)
(-4.26202 -2.48848 0.842276)
(-3.8963 -2.21167 0.394747)
(-2.98437 -1.91152 0.405085)
(-1.9003 -1.57119 0.869318)
(-0.899205 -1.89194 0.868575)
(-0.294017 -2.30382 0.367888)
(0.175903 -2.26556 0.768565)
(-28.5726 0.399992 -2.98945)
(15.4135 -5.97918 2.95039)
(-21.3467 -3.7464 19.7701)
(4.11784 -0.793022 8.83051)
(-5.84698 -1.66101 -3.5635)
(8.01608 3.15474 -3.82459)
(7.85245 2.3819 -3.9725)
(7.71216 -1.99673 -3.02566)
(2.62968 -2.18581 -0.181651)
(-1.90946 -0.601791 1.12259)
(-3.45934 -1.38629 1.13424)
(-3.92633 -1.91204 0.979824)
(-3.78225 -1.55686 0.722057)
(-3.31384 -1.17308 0.527317)
(-2.63967 -1.33619 0.278193)
(-2.15862 -1.74267 -0.280126)
(-1.73543 -1.9299 -0.705927)
(-1.19887 -2.10401 -0.33531)
(-29.8592 0.868802 -0.0132978)
(-3.93456 -7.84915 2.71481)
(-31.6577 -7.40181 5.1715)
(19.0793 0.39807 4.01506)
(10.5209 0.824757 3.77595)
(14.3019 1.55664 2.2409)
(14.8858 -1.10842 0.441377)
(11.4577 -2.37634 -1.28644)
(2.20473 -0.577546 -1.31882)
(-1.88817 0.328246 -0.839484)
(-3.49313 -0.0308109 0.49811)
(-4.9595 -0.707712 1.17709)
(-5.53028 -0.945417 0.845865)
(-5.1699 -0.783484 0.29792)
(-4.53525 -0.830899 -0.0352828)
(-3.82876 -1.20449 -0.154369)
(-3.11997 -1.73622 -0.252148)
(-2.42626 -2.34414 -0.36949)
(-38.3041 -0.174308 0.454288)
(34.9517 1.23887 -0.272091)
(-11.8349 -1.00544 2.06884)
(14.3519 -2.3445 0.905361)
(3.0286 1.26222 -0.874808)
(8.48509 1.68977 0.622834)
(4.75423 1.32034 1.70865)
(1.53483 3.00706 -0.499526)
(-2.86463 0.733637 -2.6493)
(-4.67717 -1.04699 -3.49092)
(-4.28258 -0.86037 -2.25492)
(-3.85401 -0.715859 -0.812138)
(-3.58723 -0.602813 0.960466)
(-3.18002 -1.01521 2.29817)
(-3.34483 -1.458 2.58451)
(-3.31989 -2.04542 2.17379)
(-3.20346 -2.62935 1.72434)
(-2.70024 -3.16625 1.18387)
(-38.6801 -3.06994 -1.16792)
(32.7129 -7.01404 2.38478)
(-10.6602 1.43423 3.24384)
(13.733 9.87014 4.15026)
(-6.6304 2.77567 8.73378)
(5.92307 7.03042 4.42008)
(1.45812 7.02713 0.404756)
(2.99921 5.76834 -1.52368)
(1.24991 2.43606 -4.04195)
(1.10751 -0.573974 -1.54613)
(1.406 -2.86379 1.00154)
(-0.190119 -3.71694 0.348323)
(-0.273894 -3.18507 0.5875)
(-0.221172 -2.52754 1.24004)
(0.14445 -1.98519 1.6468)
(0.270893 -1.32947 2.20497)
(-0.404333 -1.69068 2.60112)
(-1.18188 -2.90881 2.57753)
(-38.5823 -2.35928 -3.67114)
(27.5902 5.39676 -8.68986)
(-28.8295 6.42398 7.19474)
(18.7943 6.21142 5.5357)
(-5.14022 0.882601 -0.400359)
(8.0696 4.27034 0.444973)
(4.50248 8.15315 -0.304195)
(5.19677 7.41054 -1.22642)
(4.79329 4.75594 -0.485001)
(6.00891 1.92153 1.39477)
(8.85626 0.199047 1.07465)
(9.18138 -0.0787716 0.637289)
(7.64034 -0.0309193 0.794939)
(6.68134 -1.34721 -0.871094)
(5.61985 -3.13285 -2.73067)
(5.62305 -3.90646 -1.52883)
(5.08256 -2.19391 0.819963)
(2.73645 -1.54134 1.85032)
(-34.1337 0.478543 -4.70226)
(11.8853 4.6844 -4.64664)
(-28.3416 1.61136 14.5343)
(14.1769 -11.409 5.58195)
(0.437956 -9.83782 -1.56356)
(6.18988 -8.25326 -0.814657)
(5.86992 -1.62158 -0.218048)
(8.51313 3.35036 -0.498662)
(9.97378 4.24981 -0.0216055)
(11.3424 3.43662 0.503545)
(12.218 0.92873 0.276628)
(12.9134 -1.31891 -0.129589)
(13.1458 -1.55137 0.394601)
(12.3355 -0.826794 1.07047)
(10.3332 -0.267896 -0.36895)
(7.33537 0.0418997 -2.02297)
(5.50667 0.246886 -0.933185)
(3.24805 0.183055 0.50742)
(-38.6638 0.608894 -1.83396)
(34.7496 7.93903 -3.09814)
(-6.66313 -1.1183 0.270483)
(9.91716 -8.91958 -0.294966)
(-7.18827 -10.9203 -1.25817)
(-0.213619 -8.96077 2.32112)
(-5.2302 -5.94877 -0.203111)
(3.10194 -0.593829 -3.29756)
(6.10277 2.39265 -3.55673)
(6.96509 2.72664 -4.15229)
(7.42728 1.2304 -2.03335)
(8.02317 0.319421 1.08274)
(7.39994 1.17378 1.86569)
(5.86104 2.23772 0.157415)
(4.59834 2.82328 -1.56849)
(4.39216 1.79438 -0.996113)
(2.93195 0.866891 0.12788)
(0.790546 1.38052 0.904085)
(-38.7378 -1.47313 -0.850767)
(36.4659 1.48223 -3.38584)
(-1.80576 0.993368 -5.74483)
(5.95089 -5.21722 -1.20284)
(-9.01835 -7.74769 -0.677323)
(-2.1293 -5.59611 -4.12699)
(-5.88166 -2.55172 -6.55137)
(-0.970542 -3.23179 -5.05953)
(-0.0976561 -0.463151 -2.11996)
(2.99268 1.32862 0.28165)
(3.35404 1.47136 1.77574)
(2.55274 1.96615 1.65917)
(1.91639 2.44997 0.675228)
(2.21347 3.02788 -0.980112)
(2.68933 2.38936 -1.30084)
(2.02968 1.74143 -0.26606)
(0.134271 1.66586 0.94865)
(-0.716775 0.897695 1.00085)
(-38.352 -2.02815 -0.0542227)
(36.1699 -0.822079 -5.28206)
(-5.92295 2.11033 -8.0163)
(7.61712 -4.07461 -0.592598)
(-4.91276 -8.10167 -0.781655)
(-4.69451 -6.42098 -2.27912)
(-6.07201 -1.79654 -1.0744)
(0.87479 -1.32875 -0.0740984)
(-0.64751 0.773311 1.23434)
(0.45777 1.46421 2.16944)
(-0.70631 1.48003 1.33226)
(-0.853599 1.34145 0.575441)
(-0.334681 2.02383 -0.740403)
(-0.0431376 2.12899 -1.00937)
(-0.286959 2.1147 0.0127414)
(-1.71401 1.59417 0.982922)
(-2.72295 0.110624 1.19684)
(-2.6933 -0.756899 1.26441)
(-39.2837 -1.64492 0.952777)
(38.2895 0.198202 -0.505931)
(-5.23377 3.55404 -8.6797)
(8.09694 -3.10344 -1.29056)
(-3.81057 -5.13614 -1.39989)
(-6.04766 -2.70996 -0.764257)
(-4.44281 -0.56837 2.0476)
(-0.0543666 -0.233171 0.557494)
(-2.07719 1.15267 1.83092)
(-2.20237 1.10991 1.60067)
(-3.08867 0.711966 0.614441)
(-2.82565 0.851765 0.0234623)
(-2.38453 1.65561 -0.211094)
(-2.18712 2.04575 0.620323)
(-2.53306 2.01374 1.17652)
(-3.19719 0.733093 1.33931)
(-3.15253 -0.711672 1.67724)
(-3.40806 -1.00448 1.68874)
(-40.7616 -0.717132 2.05869)
(39.7846 4.00208 7.36233)
(-1.35943 4.49973 -7.81441)
(11.3696 -3.14848 -4.22519)
(3.19658 -5.04826 -2.42319)
(-5.18812 -5.27144 -1.67805)
(-3.35933 0.264903 1.01366)
(-2.26904 0.3738 0.739338)
(-3.46263 0.994166 1.64012)
(-3.67824 0.398443 1.32203)
(-3.98108 0.248282 1.06063)
(-3.60953 0.764285 0.767194)
(-3.46012 1.51195 0.944898)
(-3.55435 1.74733 1.2679)
(-3.71744 1.00376 1.03413)
(-3.56693 -0.241429 1.22467)
(-3.67606 -0.839031 1.42703)
(-4.07754 -0.698313 1.12325)
(-43.3347 0.0575399 3.213)
(41.6854 -1.50888 14.7537)
(14.2227 6.29404 -0.230223)
(19.3483 1.16479 -3.61389)
(11.1473 -2.51122 -2.89454)
(-3.2325 -3.9597 -2.70064)
(-3.88164 -0.0722078 0.542363)
(-2.16589 0.0958322 1.13393)
(-4.60079 0.327782 2.14602)
(-3.64861 -0.159401 1.84393)
(-4.60623 0.0601539 1.49107)
(-3.60281 0.861082 1.20252)
(-4.02812 1.33228 1.03019)
(-4.08223 1.10051 0.384187)
(-4.28423 0.351119 0.0555059)
(-4.09203 -0.315945 0.394234)
(-4.31232 -0.615257 0.566325)
(-4.18865 -0.629798 0.281862)
(-48.8991 1.02566 4.65585)
(49.7767 -6.63278 15.4838)
(15.6518 -0.594156 7.88656)
(18.3089 -0.472481 2.46084)
(11.8047 -1.21694 -1.89154)
(-2.68984 -2.24411 -2.72166)
(-5.09021 -0.753943 1.87652)
(-4.11347 -0.192606 2.26402)
(-5.81781 -0.266935 2.38424)
(-4.2591 -0.63045 1.77464)
(-5.25403 -0.107223 1.61177)
(-4.60159 0.398951 1.07225)
(-4.36494 0.694466 -0.0578931)
(-4.41325 0.67585 -0.631204)
(-4.63811 0.215467 -0.920289)
(-4.43279 -0.0441671 -0.859921)
(-4.4342 -0.149428 -0.648243)
(-4.24786 -0.115873 -0.678084)
(-37.005 2.14272 8.97193)
(41.0321 -3.49516 -4.1865)
(1.568 -0.273326 -12.5214)
(10.9903 1.54293 -8.1985)
(4.86455 0.0303325 -3.771)
(-2.62479 -0.18183 -3.4091)
(-5.28923 -0.786061 0.623278)
(-4.18816 -0.30355 1.3147)
(-3.37219 -0.272791 0.972576)
(-3.11125 -0.237745 0.0241165)
(-3.50477 -0.307365 -0.193117)
(-3.62539 -0.306455 0.644446)
(-3.64223 -0.0576158 -0.835659)
(-3.3828 0.0960469 -0.895861)
(-3.85044 -0.198023 -0.891111)
(-3.9627 -0.140674 -0.884336)
(-4.22886 -0.0189042 -0.817486)
(-4.05194 0.0930796 -0.878212)
(-61.3496 -2.52051 0.277768)
(48.6473 -4.78842 7.07003)
(24.2861 -2.26769 7.79384)
(11.2361 -0.292772 3.34691)
(-1.73947 0.248046 -1.21634)
(7.29379 1.49285 0.493168)
(-0.0660736 1.10948 3.74534)
(0.388925 -0.135881 2.94054)
(1.08823 -0.165258 1.36991)
(4.0801 -0.67896 1.22723)
(8.15578 -0.60754 1.27976)
(11.5885 0.201033 2.53973)
(10.4326 0.348586 5.10785)
(7.57658 0.000602034 4.682)
(6.67112 -0.257813 2.36285)
(6.14062 -0.00166271 1.51755)
(4.23627 0.321153 2.08723)
(3.31085 -0.359801 0.294023)
(-8.78693 -4.25874 0.942727)
(12.8604 -6.80978 1.16271)
(-14.7113 3.24734 4.55019)
(0.12466 4.5374 1.10025)
(-7.14756 1.80467 -2.67204)
(7.76989 4.10154 0.881416)
(7.89851 4.09362 7.00551)
(6.33693 2.25349 7.40147)
(4.85303 -0.00986204 6.03)
(5.84449 -1.83881 5.37057)
(6.0215 -2.16189 6.08374)
(8.43279 -0.923833 7.31136)
(11.7905 1.39935 8.6314)
(11.9438 1.98606 6.75631)
(7.83178 0.993011 2.97169)
(4.70772 0.51336 1.13536)
(4.27367 0.888645 1.57132)
(6.06127 1.50885 2.89523)
(-40.8051 -5.81499 1.49157)
(-2.51795 -1.38719 1.67766)
(-46.6789 1.22277 -0.76187)
(4.50051 3.212 1.12931)
(-13.51 0.0297451 -1.29027)
(11.2146 4.00601 1.66449)
(9.59449 4.03444 5.1138)
(7.3513 3.26824 6.83797)
(10.2061 1.10252 6.20247)
(12.7287 -0.95033 3.96651)
(10.7124 -1.45529 5.08572)
(7.94809 -0.977283 8.91185)
(9.91968 1.03717 11.0909)
(11.672 2.4692 8.10209)
(8.01128 2.16751 3.27521)
(3.59357 1.07437 1.65085)
(2.30811 -0.118554 2.22281)
(3.79249 -0.262679 3.15175)
(-43.6323 -5.89727 0.939083)
(14.0697 -9.31414 -5.31509)
(-41.4349 -1.86158 -15.8357)
(14.4583 4.20322 -2.28763)
(-4.42368 2.95284 -2.99545)
(6.61407 0.0563817 -0.546619)
(3.65651 2.59738 2.37357)
(5.48114 2.30211 4.58758)
(8.03023 -0.159187 6.00804)
(10.8416 -1.73468 5.69604)
(11.39 -2.4089 5.98558)
(9.72334 -1.41039 8.62345)
(10.6827 1.0032 10.1045)
(11.8957 3.12416 7.26952)
(8.4461 3.46702 2.96625)
(5.00823 2.1653 1.5484)
(4.3037 -0.160806 2.13993)
(3.91292 -1.32372 2.71993)
(-44.2227 -4.96045 -0.0220853)
(-16.9625 -5.09878 -8.61911)
(-36.4872 -7.67012 -21.8583)
(13.9759 1.00991 -8.68051)
(-3.36903 4.3163 -7.77539)
(6.98317 2.51068 -4.34218)
(4.07134 0.886635 -1.04537)
(5.41269 -0.343074 3.22595)
(5.38022 -1.62219 5.96954)
(7.77058 -2.33951 6.84597)
(9.21663 -2.6901 8.14354)
(8.16019 -1.54828 10.3832)
(10.3983 1.42715 9.44663)
(11.9405 4.11111 5.7932)
(8.74202 4.75063 2.39093)
(6.53803 2.7012 1.16452)
(6.86111 -0.0193506 0.984232)
(7.03429 -1.21962 1.26912)
(-44.0404 -3.89651 0.462277)
(-23.3666 -10.9213 5.41512)
(-40.3013 -7.892 -6.14847)
(15.7694 0.469906 -12.545)
(-3.95117 5.06327 -8.47116)
(8.79321 0.589831 -4.09045)
(8.61604 -0.257111 -1.90527)
(6.92287 -0.0620737 3.16936)
(4.80779 -1.90403 6.12032)
(6.67868 -3.69601 6.18706)
(7.82556 -3.97732 8.11988)
(7.15963 -1.89261 10.3335)
(10.1685 1.98747 7.9359)
(11.8198 5.28954 4.00602)
(9.43698 6.06864 1.70949)
(8.79864 3.73571 0.522497)
(9.28772 0.818454 -0.553267)
(9.21662 -0.472999 -0.776757)
(-41.5321 -2.72056 0.553686)
(-14.1001 -13.452 6.23872)
(-47.9952 -9.64179 3.61295)
(18.6873 1.37022 -3.53305)
(8.99517 5.00511 -5.66638)
(10.0543 -0.315118 -3.66714)
(7.8289 -1.6143 -1.11371)
(5.35335 -0.611997 4.32759)
(3.51016 -2.35646 6.94877)
(5.71383 -4.47152 5.36937)
(5.43141 -4.64918 7.90782)
(5.44104 -2.11001 10.019)
(9.54891 2.71191 5.94649)
(11.2823 6.56438 1.53051)
(10.2014 7.28357 0.314551)
(10.3475 4.79835 -0.331179)
(10.5794 2.03831 -1.41758)
(10.6239 0.745894 -1.84598)
(-38.5725 -2.16222 -0.082479)
(-8.76565 -13.2749 -0.0902599)
(-42.9019 -10.7942 7.91818)
(15.4667 0.163568 -2.352)
(13.495 -0.960638 -2.6933)
(16.6232 -1.00374 -5.1478)
(8.01545 -0.67558 -1.24084)
(3.67059 0.393506 5.0695)
(2.5977 -2.83331 7.17813)
(5.69382 -4.75077 3.74512)
(3.66274 -4.9583 6.42941)
(3.68544 -1.87263 8.93377)
(7.72458 3.48763 4.73036)
(9.7189 7.56384 0.852144)
(10.204 8.33025 0.350075)
(11.2 6.12949 -0.655167)
(11.9767 3.30061 -2.01266)
(12.1972 1.60018 -2.33672)
(-33.4197 -2.1183 -0.791891)
(-11.0242 -12.8733 -2.16696)
(-41.3485 -9.22756 1.95371)
(12.9576 -3.56116 10.0464)
(-16.5047 -0.328554 -0.316699)
(5.06783 1.80271 1.47763)
(-3.41068 1.59807 3.8255)
(1.60426 -0.496379 6.51493)
(2.474 -3.92254 6.00253)
(5.64206 -4.6825 1.81606)
(2.59165 -5.10903 4.29098)
(2.11146 -1.78641 7.61128)
(6.08939 3.92327 4.88759)
(8.85517 8.20923 1.80321)
(10.4655 8.61431 -0.0592094)
(11.7851 6.17811 -1.88105)
(12.6833 3.65002 -2.47075)
(12.7753 2.36254 -1.82514)
(-32.3957 -2.24061 -1.03883)
(-9.43432 -11.4483 -0.845291)
(-40.1464 -7.42793 -2.42478)
(12.6561 4.30542 -0.25049)
(-12.0041 -2.82747 -1.39753)
(3.77679 -4.73772 1.99782)
(-3.10947 0.8457 2.75541)
(1.70865 -3.64676 4.50296)
(3.33436 -4.43614 3.42892)
(5.35844 -4.31261 0.309041)
(2.17818 -4.99214 1.94288)
(-0.599046 -1.96044 5.8269)
(3.32942 3.67357 4.269)
(7.14913 7.41245 0.981141)
(9.74786 8.13183 -1.30912)
(11.4704 6.53589 -2.33825)
(12.4084 3.89972 -1.73163)
(11.3544 2.05134 -0.19687)
(-30.3435 -1.22146 -0.402937)
(-7.2117 -9.34021 3.65473)
(-40.5999 -7.13603 8.80937)
(15.443 -0.10126 -10.3865)
(15.4031 -1.30265 -4.99153)
(4.54331 -2.56772 -1.90265)
(2.58931 -0.898499 1.64942)
(0.869218 -3.29512 2.17005)
(3.86209 -3.73601 0.292478)
(5.34578 -3.46442 -0.986447)
(2.3987 -4.23675 -0.238262)
(-3.08366 -2.78321 3.29364)
(-2.41668 2.56165 3.39527)
(1.88711 6.28195 0.898508)
(5.14708 6.31974 -1.08968)
(7.0707 4.25058 -2.11226)
(6.47838 2.52247 -2.25533)
(4.953 0.885989 -2.7451)
(-34.5102 -0.342388 -0.0940548)
(-8.09157 -7.02173 -2.69562)
(-39.0858 -7.06081 6.55857)
(16.5101 -3.80985 -1.28889)
(-2.63024 -5.84631 -0.275742)
(-1.38592 -0.344373 0.277361)
(-6.50814 -1.93275 0.824357)
(0.223098 -3.11693 -0.624071)
(2.16479 -3.01195 -0.852172)
(3.79982 -2.48568 -1.15765)
(1.57161 -3.0932 -1.35309)
(-2.63451 -3.91516 0.0193517)
(-4.44671 -2.14364 -0.0411994)
(-2.77558 -0.0332328 -1.63889)
(-0.219981 0.459196 -2.83609)
(0.738931 0.162186 -3.71715)
(0.888139 -1.12003 -3.38011)
(2.22289 -2.34904 -1.65474)
(-25.8676 0.281197 -0.422607)
(-10.4371 -7.46023 -10.2231)
(-38.8935 -6.78237 0.1715)
(16.6749 -1.83535 -5.44696)
(-14.1115 -3.69747 -1.88063)
(-1.30892 -0.295877 -0.426735)
(-6.84775 -1.84695 -1.42199)
(-1.10856 -2.78666 0.75033)
(-2.11977 -2.86036 0.473223)
(-0.18537 -2.45702 -0.567396)
(-0.93328 -2.65483 -1.67734)
(-3.18874 -4.19686 -2.49436)
(-4.22451 -4.71967 -2.00371)
(-3.65124 -3.27902 -1.33363)
(-2.27853 -2.05122 -1.54689)
(-0.827422 -1.94681 -1.53863)
(0.770143 -1.89556 -0.537767)
(1.58264 -2.53979 0.437711)
(-30.7637 0.290491 -0.933848)
(-7.31981 -8.26042 -5.30114)
(-38.6206 -5.83212 1.75322)
(-0.145208 -3.26098 -2.43831)
(-19.4039 -3.87581 0.912626)
(0.999868 -2.51077 -1.66195)
(-10.6076 -1.31484 0.802146)
(-2.82212 -2.95082 1.819)
(-6.68611 -3.22098 0.440747)
(-4.4762 -3.3769 -0.254649)
(-4.79211 -3.57027 -0.942795)
(-4.47672 -4.10282 -0.948639)
(-4.16797 -3.58359 0.319271)
(-2.58649 -2.17111 1.80071)
(-1.80154 -1.0444 1.94136)
(-0.804042 -0.844926 1.80315)
(-0.430253 -1.98672 0.854671)
(0.303325 -3.33305 1.12605)
(-24.4236 -0.218708 -1.6447)
(-12.763 -5.95997 1.29549)
(-34.3556 -1.69259 5.89049)
(15.2269 7.88489 2.37887)
(-1.0564 -1.02209 0.390917)
(-4.7176 -5.30556 -0.658772)
(-9.42154 -1.17838 1.00455)
(-3.7527 -3.12962 1.22203)
(-7.39179 -2.82213 1.00662)
(-4.94986 -3.11496 0.52744)
(-5.63453 -2.81396 0.105617)
(-4.53844 -2.63245 0.406479)
(-3.93513 -2.39213 0.998891)
(-2.98738 -1.91946 1.05774)
(-2.9025 -1.93853 0.00229159)
(-2.04925 -2.68363 -0.218115)
(-0.489596 -2.54911 0.99764)
(0.161837 -2.87763 1.83748)
(-18.6287 1.01863 -1.30022)
(-10.6408 -4.98093 4.45519)
(-33.8395 -5.08708 10.1828)
(11.6296 2.90964 8.53964)
(17.2153 2.92518 2.22839)
(8.93009 1.95847 -0.615405)
(-4.74895 -3.41074 0.296806)
(-4.01874 -1.45929 1.0724)
(-6.72139 -1.59516 1.5135)
(-5.06747 -2.07944 0.991079)
(-5.59611 -2.1088 0.556122)
(-4.58337 -1.87999 -0.0633405)
(-4.73727 -1.76966 -1.10092)
(-3.87395 -1.96567 -1.27103)
(-2.81064 -2.17701 -0.691718)
(-1.69481 -1.86354 -0.123766)
(-1.10378 -1.99091 0.0807411)
(-0.215152 -2.31935 0.461624)
(-34.2081 1.8774 0.528531)
(-9.27436 -3.89198 -5.12712)
(-35.5899 -9.3677 -2.70966)
(25.3236 -0.97401 1.53627)
(-0.0123332 -2.30835 -0.99251)
(8.97487 0.90462 -1.90094)
(0.207301 -2.17804 -0.728112)
(-2.52009 -2.89075 1.42208)
(-4.49966 -0.905354 1.86682)
(-4.68723 -0.782973 1.23155)
(-5.103 -0.859485 0.496406)
(-4.64128 -0.666241 0.0138329)
(-4.54422 -0.40123 -0.47553)
(-3.96839 -0.512441 -0.625437)
(-3.48506 -0.825381 -0.74855)
(-2.78014 -1.42828 -0.873714)
(-2.22635 -1.97244 -1.05871)
(-1.52871 -2.31022 -0.770493)
(-36.2391 2.42918 3.28678)
(26.8902 2.93674 8.2516)
(-10.8699 -8.58334 -11.1546)
(11.4679 -1.21976 -10.3304)
(0.558022 1.45412 -3.86876)
(7.64353 -1.60582 -0.310491)
(9.13985 -2.88295 0.230684)
(3.35792 -2.24808 1.3834)
(-2.84156 -0.391644 1.88027)
(-3.96703 0.171369 0.750647)
(-4.29674 0.0172885 0.89849)
(-4.2985 -0.0581352 1.12988)
(-4.32667 -0.133334 0.545858)
(-4.16583 -0.513715 0.111878)
(-4.05596 -1.18785 -0.262415)
(-3.67436 -1.84014 -0.584198)
(-3.2106 -2.26003 -0.742482)
(-2.58761 -2.44521 -0.660245)
(-38.4008 -0.642937 0.312895)
(33.1026 -5.41126 -0.0215059)
(-12.8588 -2.09071 1.26571)
(15.0936 1.92774 -0.75339)
(1.41179 5.01208 -1.29297)
(6.27235 3.48697 0.679534)
(5.35396 1.94817 1.27669)
(3.7143 3.83076 1.08352)
(-0.254418 1.03428 -0.686841)
(-4.55126 -1.87588 -2.32743)
(-5.35165 -1.10557 -1.86479)
(-5.19456 -0.14548 -0.309243)
(-4.69256 -0.0593744 1.27541)
(-4.91873 -0.593532 2.35745)
(-4.96034 -1.15395 2.61035)
(-4.84256 -1.46208 2.12751)
(-4.33707 -1.8431 1.39394)
(-3.47531 -2.15764 0.41779)
(-39.3 -3.3531 -2.10799)
(34.031 -10.1801 -2.06216)
(-4.90457 -0.553281 2.49942)
(-3.4115 2.01137 -0.572253)
(-17.4244 1.02831 3.37882)
(6.92202 5.70797 -1.55424)
(-0.0331931 5.72397 -1.2515)
(4.40645 4.70569 -2.31298)
(2.80648 2.02303 -3.37413)
(-0.851237 -1.76243 -1.35004)
(-2.33948 -3.10436 0.741718)
(-3.98519 -2.66655 0.289679)
(-3.76492 -2.06642 0.423502)
(-3.48759 -1.82092 0.976786)
(-3.49682 -1.83865 1.77338)
(-3.18769 -1.98189 2.65368)
(-3.21874 -2.57789 2.88007)
(-2.80555 -2.83978 2.46321)
(-38.7998 -2.12409 -0.920959)
(3.37714 9.88739 -1.55762)
(-40.9922 14.7428 -0.905952)
(22.4904 14.4441 3.6434)
(-4.00141 8.77175 5.53959)
(8.61304 4.87087 2.54008)
(6.98 5.95642 1.26787)
(7.75863 5.62345 -1.04873)
(7.72242 4.49113 -2.83118)
(7.64889 3.67817 -2.99904)
(8.68312 4.01456 -2.45274)
(9.05146 4.20721 0.00356107)
(8.85705 2.36182 1.3967)
(7.80913 -1.03359 0.0348535)
(5.09979 -2.88418 -1.08846)
(2.87029 -2.80058 0.415222)
(1.62446 -2.15796 2.57683)
(0.184345 -2.42661 3.69435)
(-32.5758 0.754025 0.273128)
(-15.4725 -1.37352 -1.3493)
(-37.0699 -4.75641 -3.3521)
(22.4046 -4.93245 1.54036)
(10.5141 -0.0737444 3.15441)
(12.7471 -1.26156 3.22482)
(12.0716 -0.0579179 4.29485)
(12.766 1.04007 2.69936)
(12.4484 1.23705 -0.818856)
(11.7273 3.11489 -2.01134)
(11.7524 4.54664 -1.00099)
(12.3881 3.30538 0.0604746)
(12.907 0.749192 1.00312)
(12.693 -0.256064 1.41956)
(10.2405 -0.201611 -0.13464)
(6.51291 -0.316853 -1.26598)
(4.16893 -0.295021 0.379984)
(2.09443 -0.261687 2.49644)
(-38.6321 1.45325 -0.284316)
(28.2401 11.1928 -0.847178)
(-12.3541 -5.28565 1.14095)
(6.4357 -14.9615 -1.38227)
(-8.30335 -10.7757 1.20334)
(3.3473 -9.36471 2.15465)
(-0.132575 -5.42415 0.562083)
(3.37731 1.52806 -3.27092)
(5.83551 3.51756 -3.72219)
(8.49049 4.29927 -2.35489)
(9.56772 3.26477 -1.4145)
(9.81349 1.20143 0.0257607)
(8.855 0.666386 1.41662)
(6.7758 2.1105 -0.131427)
(3.93316 2.43655 -1.95421)
(3.34572 1.11383 -0.588817)
(1.89492 0.350177 1.53596)
(0.0578994 1.45611 2.5191)
(-38.7925 -1.44365 -0.605061)
(34.9318 4.26126 -1.01113)
(-9.18571 -1.64555 -2.54684)
(4.73401 -8.14049 -0.0527769)
(-11.339 -7.73091 -0.574808)
(0.310842 -3.93956 -5.97351)
(-4.66014 0.0981654 -6.89346)
(-1.0873 0.17383 -4.60036)
(-0.0960509 -0.139995 -1.95232)
(2.61987 0.821557 0.31392)
(3.09252 1.27605 1.89409)
(2.65117 1.8978 2.03845)
(2.22647 2.89032 -0.244795)
(1.69873 3.21822 -1.99309)
(2.2506 2.19582 -0.941244)
(1.33738 1.26899 1.07881)
(-0.593967 1.08084 2.19936)
(-0.624338 0.983275 1.97439)
(-38.6151 -2.26114 -0.524059)
(35.1576 1.51754 -0.29995)
(-9.77416 0.370805 -2.88384)
(6.03628 -8.21599 -1.80957)
(-8.74066 -9.61409 0.831112)
(-3.41389 -7.31365 -2.23281)
(-6.14035 -1.52721 -3.89639)
(-2.93251 -2.13797 -1.25365)
(-2.87552 -0.194711 1.45245)
(-0.709818 1.05605 2.34333)
(-1.06419 1.29532 1.98969)
(-0.156033 2.00272 0.392161)
(0.233998 2.79194 -0.921906)
(0.510137 2.24554 -0.324013)
(-0.698407 1.32559 0.949042)
(-1.98448 0.672324 1.98264)
(-2.46423 -0.350034 1.85536)
(-2.17244 -0.466752 1.33199)
(-40.0096 -2.29424 -0.212174)
(37.957 -0.16192 -0.857308)
(-5.91716 1.86247 -3.39569)
(7.97881 -7.13119 -3.34999)
(-5.5433 -6.96622 0.309543)
(-4.31339 -4.25376 -1.61857)
(-6.95761 -0.887561 -2.09749)
(-1.48443 -0.669986 0.150533)
(-4.80284 0.374556 2.53629)
(-1.40598 1.13326 2.55861)
(-2.91018 1.21339 1.47709)
(-1.87182 1.58975 0.607943)
(-1.78141 1.55157 0.164096)
(-2.66209 0.868351 0.674532)
(-3.28881 0.784706 2.06141)
(-3.75744 0.138689 2.49411)
(-3.53037 -0.55616 2.15594)
(-3.04365 -0.684178 1.61898)
(-42.33 -2.03046 0.258925)
(41.8777 -1.12561 2.99306)
(4.15657 0.556787 -2.57409)
(14.204 -6.57357 -4.21678)
(4.27139 -7.37152 -0.56679)
(-3.51714 -4.64308 0.289118)
(-4.51582 -0.633255 0.0179416)
(-2.51565 -0.227255 2.01584)
(-4.95108 0.558183 3.16657)
(-3.90841 0.625204 2.48773)
(-4.69853 0.755652 1.39059)
(-3.99523 0.58775 0.638493)
(-4.27149 0.44428 0.552606)
(-4.57908 0.526413 2.0681)
(-4.48662 0.349671 2.75296)
(-4.05445 -0.208241 2.59076)
(-3.75606 -0.563341 2.23916)
(-3.47907 -0.576862 1.64923)
(-46.1562 -1.77472 0.611765)
(45.6695 0.0665827 12.8679)
(22.4896 3.47728 4.69767)
(26.9644 -2.67722 0.114389)
(15.7792 -5.09222 -0.296358)
(-2.22906 -3.04471 1.43581)
(-3.41122 -0.039598 1.69993)
(-4.3 0.387052 2.99738)
(-5.48617 0.377554 3.0787)
(-5.26649 0.311165 2.05949)
(-5.43706 0.427684 0.801163)
(-5.23289 -0.485196 0.331872)
(-5.36838 -0.357771 1.54497)
(-4.61244 0.0471531 1.8988)
(-4.26883 0.0188363 1.58942)