/*--------------------------------*- C++ -*----------------------------------*\
| =========                 |                                                 |
| \\      /  F ield         | OpenFOAM: The Open Source CFD Toolbox           |
|  \\    /   O peration     | Version:  2112                                  |
|   \\  /    A nd           | Website:  www.openfoam.com                      |
|    \\/     M anipulation  |                                                 |
\*---------------------------------------------------------------------------*/
FoamFile
{
    version     2.0;
    format      ascii;
    arch        "LSB;label=32;scalar=64";
    class       volScalarField;
    location    "0.28";
    object      omega;
}
// * * * * * * * * * * * * * * * * * * * * * * * * * * * * * * * * * * * * * //

dimensions      [0 0 -1 0 0 0 0];

internalField   nonuniform List<scalar> 
12225
(
22143.3
31353.9
34366.6
34850.3
34363.1
33519.6
32565.8
31611.2
30711.6
29895
29170.9
28536.3
27981.3
27494.5
27062.1
26683.9
26301
25891.4
1461.38
3297.04
4938.23
6284.17
7337.82
8138.83
8736.7
9175.84
9491.56
9712
9860.37
9956.39
10016.9
10053.5
10076.3
10093.8
10134.8
10167.7
114.011
294.034
556.832
875.979
1224.02
1572.12
1898.24
2191.02
2445.77
2663.81
2850.41
3012.74
3158.05
3292.22
3419.82
3544.66
3668.99
3778.67
45.4072
62.3796
91.0659
132.791
188.321
256.862
335.3
418.371
501.955
583.008
659.992
732.486
800.67
865.026
926.117
984.264
1039.12
1086.14
40.1701
42.1954
45.9819
51.9364
60.3645
71.4973
85.3158
101.274
118.788
137.269
156.077
174.768
193.172
211.212
228.849
245.963
262.293
276.873
39.656
39.8935
40.4429
41.4099
42.8478
44.8015
47.2979
50.3225
53.8237
57.7315
61.9365
66.3372
70.8675
75.4626
80.0487
84.5406
88.8294
92.75
39.6004
39.6125
39.6747
39.8138
40.0482
40.3886
40.8463
41.4273
42.1311
42.9523
43.8817
44.9062
46.0074
47.1607
48.3348
49.4962
50.6096
51.6457
39.591
39.5741
39.5676
39.5762
39.605
39.6566
39.733
39.836
39.9668
40.1256
40.3123
40.5256
40.7627
41.0186
41.2865
41.559
41.8284
42.0881
39.5869
39.5639
39.5463
39.5347
39.5302
39.533
39.5424
39.5583
39.5804
39.6087
39.6432
39.684
39.7309
39.7836
39.8415
39.9037
39.9687
40.0346
39.5841
39.5581
39.5367
39.52
39.5084
39.5014
39.4981
39.4975
39.4991
39.5027
39.5082
39.5155
39.525
39.537
39.5515
39.5686
39.5881
39.6089
39.582
39.5538
39.5299
39.5104
39.4952
39.4842
39.4766
39.4712
39.4675
39.465
39.4636
39.4632
39.4642
39.4667
39.4709
39.4768
39.4843
39.4927
39.5806
39.5508
39.5251
39.5035
39.4859
39.4721
39.4614
39.4532
39.4468
39.4417
39.4377
39.4346
39.4325
39.4314
39.4316
39.433
39.4354
39.4385
39.5794
39.5484
39.5212
39.4979
39.4783
39.4621
39.4489
39.4381
39.4292
39.4218
39.4156
39.4106
39.4065
39.4033
39.401
39.3995
39.3987
39.3983
39.5785
39.5462
39.5176
39.4927
39.4712
39.4528
39.4372
39.4239
39.4125
39.4026
39.394
39.3867
39.3803
39.375
39.3704
39.3666
39.3632
39.3601
39.5777
39.5445
39.5146
39.4881
39.4649
39.4446
39.4268
39.4112
39.3973
39.385
39.374
39.3641
39.3552
39.3473
39.3401
39.3336
39.3276
39.3219
39.5771
39.5431
39.5122
39.4844
39.4597
39.4376
39.4179
39.4002
39.3842
39.3697
39.3563
39.344
39.3326
39.3221
39.3122
39.3029
39.2941
39.2857
39.5767
39.5422
39.5105
39.4817
39.4557
39.4322
39.4109
39.3915
39.3737
39.3571
39.3417
39.3272
39.3136
39.3006
39.2883
39.2765
39.2652
39.2544
39.5766
39.5417
39.5096
39.4802
39.4533
39.4287
39.4062
39.3854
39.366
39.3479
39.3307
39.3144
39.2988
39.2839
39.2696
39.2557
39.2424
39.2295
39.5767
39.542
39.5097
39.4801
39.4528
39.4277
39.4044
39.3828
39.3624
39.3431
39.3247
39.3071
39.2901
39.2737
39.2578
39.2423
39.2274
39.2129
39.5772
39.5428
39.511
39.4816
39.4545
39.4295
39.4062
39.3844
39.3638
39.3442
39.3254
39.3072
39.2896
39.2725
39.2558
39.2395
39.2237
39.2083
39.5778
39.5441
39.5129
39.4841
39.4575
39.4329
39.4101
39.3887
39.3684
39.3491
39.3305
39.3125
39.2949
39.2778
39.261
39.2446
39.2286
39.213
39.5787
39.5459
39.5156
39.4876
39.4618
39.438
39.4159
39.3954
39.3761
39.3577
39.3401
39.323
39.3064
39.2902
39.2743
39.2587
39.2435
39.2287
39.58
39.5484
39.5192
39.4923
39.4677
39.4453
39.4252
39.407
39.3905
39.3755
39.3619
39.3496
39.3384
39.3284
39.3194
39.3116
39.3048
39.2993
39.5819
39.5522
39.5252
39.5015
39.4822
39.4684
39.4611
39.461
39.4689
39.4855
39.5111
39.546
39.5902
39.6434
39.7054
39.7757
39.8538
39.9395
39.5859
39.5651
39.5589
39.5767
39.6293
39.7271
39.8792
40.0929
40.3733
40.7228
41.1408
41.6243
42.1681
42.7656
43.4104
44.0961
44.817
45.5679
39.6296
39.7548
40.0869
40.716
41.6893
43.0497
44.8394
47.0824
49.7813
52.9168
56.4503
60.3311
64.481
68.8362
73.3512
77.9883
82.7141
87.4963
40.5671
43.0598
48.15
56.2916
67.5522
81.7022
98.7766
118.642
140.994
165.387
191.292
218.155
245.342
272.431
299.184
325.458
351.136
376.127
60.6481
103.95
177.49
276.986
399.437
535.979
681.089
829.717
977.394
1120.39
1255.86
1381.94
1497.83
1603.35
1698.8
1784.97
1863.05
1934.74
628.781
1500.67
2395.7
3226.96
3958.36
4584.08
5109.72
5547.64
5910.87
6211.05
6458.07
6660.22
6824.55
6957.04
7062.83
7146.58
7212.52
7264.16
14582.2
22060.9
25339.8
26544.5
26793.1
26610.7
26233.3
25768.3
25268.5
24761.7
24264.1
23786
23334
22912
22521.7
22163.6
21835.7
21536.9
79.2499
78.8262
78.0728
77.1395
76.1615
75.2426
74.456
73.8541
73.4787
73.3704
73.5769
74.1582
75.1898
76.7624
78.9827
81.985
85.9947
91.4331
98.8182
108.429
120.115
133.35
147.458
161.91
176.442
190.974
205.497
220.016
234.543
249.099
263.722
278.453
293.341
308.427
323.748
339.337
355.218
371.412
387.935
404.801
422.024
439.614
457.585
475.949
494.717
513.902
533.513
553.561
574.053
594.993
616.383
638.221
660.503
683.22
706.36
729.908
753.844
778.146
802.79
827.744
852.979
878.46
904.149
930.009
955.998
982.074
1008.19
1034.31
1060.39
1086.37
1112.22
1137.89
1163.34
1188.53
1213.42
1237.97
1262.15
1285.93
1309.28
1332.17
1354.58
1376.49
1397.88
1418.74
1439.05
1458.8
1477.99
1496.6
1514.63
1532.07
1548.92
1565.18
1580.84
1595.9
1610.38
1624.26
1637.58
1650.33
1662.53
1674.2
1685.36
1696.01
1706.18
1715.9
1725.16
1734.01
1742.46
1750.51
1758.21
1765.55
1772.57
1779.26
1785.63
1791.7
1797.46
1802.91
1808.04
1812.83
1817.28
1821.34
1825
1828.24
1831.01
1833.25
1835.03
1836.31
1837.06
1837.25
1836.82
1835.73
1833.93
1831.37
1827.99
1823.73
1818.53
1812.31
1805
1796.53
1786.81
1775.75
1763.26
1749.24
1733.57
1716.13
1696.78
1675.35
1651.62
1625.4
1596.42
1564.46
1529.29
1490.71
1448.53
1402.58
1352.72
1298.87
1240.97
1179.04
1113.23
1043.77
971.091
895.767
818.598
740.62
663.135
587.732
516.298
451.004
394.211
348.452
317.152
300.972
299.933
316.186
346.286
390.288
449.733
522.397
607.447
692.49
82.4827
81.6619
80.2439
78.524
76.7456
75.0774
73.6265
72.4594
71.6186
71.134
71.0288
71.3226
72.0317
73.1685
74.742
76.7672
79.2962
82.4763
86.585
91.9505
98.7927
107.102
116.624
126.96
137.715
148.585
159.38
170.005
180.425
190.647
200.697
210.611
220.428
230.184
239.912
249.638
259.386
269.174
279.017
288.928
298.918
308.994
319.163
329.431
339.799
350.268
360.835
371.495
382.24
393.061
403.944
414.875
425.837
436.81
447.775
458.711
469.594
480.403
491.114
501.704
512.151
522.431
532.523
542.407
552.063
561.474
570.624
579.498
588.084
596.373
604.357
612.031
619.392
626.44
633.178
639.61
645.743
651.586
657.151
662.451
667.502
672.325
676.94
681.375
685.658
689.828
693.923
697.989
702.074
706.223
710.472
714.85
719.37
724.031
728.818
733.709
738.671
743.671
748.674
753.648
758.561
763.386
768.1
772.683
777.12
781.395
785.499
789.42
793.152
796.684
800.008
803.113
805.985
808.609
810.966
813.033
814.784
816.186
817.202
817.791
817.901
817.485
816.618
815.325
813.569
811.337
808.615
805.381
801.615
797.297
792.41
786.938
780.867
774.188
766.897
758.995
750.492
741.406
731.77
721.632
711.055
700.129
688.962
677.69
666.46
655.423
644.694
634.308
624.178
614.094
603.784
593.009
581.63
569.59
556.872
543.473
529.4
514.672
499.327
483.423
467.043
450.3
433.348
416.388
399.677
383.529
368.317
354.457
342.409
332.727
326.374
324.77
328.377
336.913
349.14
365.057
383.474
403.935
426.686
453.304
86.7603
85.3717
83.0397
80.2823
77.5004
74.9442
72.753
70.9989
69.7195
68.9369
68.6657
68.9129
69.6717
70.9159
72.597
74.6542
77.0447
79.7976
83.065
87.1093
92.1935
98.4368
105.735
113.803
122.293
130.907
139.442
147.788
155.905
163.79
171.465
178.962
186.31
193.541
200.681
207.753
214.774
221.761
228.724
235.674
242.618
249.559
256.501
263.444
270.384
277.317
284.235
291.128
297.983
304.788
311.525
318.178
324.73
331.161
337.453
343.587
349.545
355.31
360.865
366.195
371.287
376.129
380.709
385.021
389.059
392.818
396.297
399.497
402.421
405.075
407.465
409.603
411.498
413.166
414.62
415.877
416.954
417.872
418.649
419.308
419.869
420.357
420.796
421.211
421.627
422.069
422.557
423.112
423.747
424.47
425.283
426.18
427.15
428.177
429.241
430.319
431.388
432.424
433.407
434.317
435.138
435.857
436.466
436.956
437.325
437.571
437.695
437.699
437.589
437.369
437.048
436.632
436.133
435.562
434.933
434.26
433.559
432.846
432.136
431.462
430.89
430.456
430.057
429.658
429.23
428.747
428.187
427.532
426.772
425.9
424.914
423.813
422.599
421.273
419.84
418.307
416.685
414.986
413.228
411.43
409.62
407.825
406.077
404.41
402.854
401.431
400.153
399.008
397.966
396.979
395.995
394.973
393.889
392.732
391.496
390.176
388.769
387.274
385.693
384.028
382.288
380.486
378.652
376.824
375.053
373.409
371.984
370.861
370.132
369.964
370.557
372.394
375.428
379.381
384.05
389.454
395.18
401.149
407.392
415.049
90.1483
88.1686
84.9254
81.1722
77.4839
74.1928
71.4538
69.3207
67.8013
66.8909
66.5861
66.8831
67.7659
69.1915
71.0824
73.3354
75.8571
78.6195
81.7122
85.3401
89.7373
95.0349
101.175
107.932
115.017
122.173
129.224
136.075
142.693
149.082
155.264
161.268
167.121
172.851
178.478
184.021
189.494
194.907
200.269
205.585
210.857
216.086
221.271
226.405
231.484
236.499
241.439
246.292
251.045
255.682
260.188
264.548
268.746
272.766
276.593
280.214
283.617
286.79
289.725
292.415
294.854
297.039
298.97
300.65
302.08
303.268
304.222
304.951
305.468
305.787
305.922
305.889
305.705
305.388
304.957
304.428
303.82
303.15
302.436
301.694
300.939
300.186
299.448
298.737
298.063
297.435
296.859
296.339
295.879
295.479
295.138
294.854
294.623
294.442
294.306
294.212
294.155
294.133
294.141
294.178
294.243
294.334
294.451
294.596
294.769
294.971
295.205
295.471
295.774
296.113
296.493
296.916
297.385
297.905
298.48
299.115
299.815
300.604
301.504
302.51
303.58
304.708
305.882
307.094
308.337
309.608
310.901
312.215
313.55
314.907
316.287
317.694
319.131
320.603
322.114
323.671
325.28
326.949
328.687
330.504
332.41
334.414
336.526
338.755
341.105
343.58
346.178
348.893
351.716
354.635
357.638
360.718
363.868
367.082
370.355
373.677
377.041
380.438
383.86
387.292
390.714
394.102
397.454
400.764
404.015
407.177
410.295
413.373
416.291
419.16
421.688
423.959
426.231
428.469
430.498
432.326
433.943
435.386
436.537
437.63
92.0387
89.4923
85.456
80.8776
76.4994
72.7245
69.7065
67.4614
65.9497
65.1259
64.9591
65.4312
66.5189
68.1715
70.2967
72.7692
75.4672
78.331
81.4127
84.8758
88.9191
93.66
99.0582
104.933
111.045
117.182
123.195
129.008
134.596
139.966
145.139
150.142
155.002
159.741
164.378
168.925
173.394
177.791
182.12
186.384
190.58
194.706
198.758
202.727
206.606
210.385
214.051
217.594
220.999
224.255
227.348
230.266
232.996
235.53
237.856
239.969
241.862
243.532
244.978
246.2
247.203
247.99
248.57
248.953
249.15
249.174
249.04
248.764
248.363
247.855
247.256
246.586
245.862
245.101
244.32
243.535
242.758
242.004
241.284
240.607
239.983
239.419
238.919
238.49
238.132
237.85
237.644
237.513
237.459
237.479
237.573
237.74
237.977
238.284
238.658
239.098
239.602
240.169
240.796
241.484
242.231
243.037
243.9
244.822
245.803
246.842
247.941
249.099
250.318
251.599
252.941
254.348
255.821
257.362
258.975
260.666
262.443
264.295
266.211
268.189
270.226
272.321
274.473
276.683
278.953
281.283
283.676
286.134
288.661
291.259
293.932
296.685
299.522
302.447
305.465
308.581
311.801
315.13
318.573
322.136
325.824
329.64
333.588
337.671
341.889
346.243
350.731
355.351
360.096
364.963
369.944
375.034
380.228
385.518
390.896
396.345
401.847
407.386
412.952
418.526
424.075
429.515
434.846
440.071
445.174
449.979
454.599
459.166
463.225
466.899
469.965
472.41
474.48
476.218
477.468
478.216
478.564
478.615
478.235
477.256
92.4491
89.3679
84.7434
79.6057
74.8239
70.8462
67.8067
65.6727
64.3538
63.7644
63.8482
64.5737
65.9105
67.8009
70.1423
72.7962
75.6274
78.5627
81.6376
84.9909
88.7926
93.141
98.001
103.221
108.605
113.977
119.216
124.259
129.089
133.713
138.154
142.434
146.578
150.603
154.526
158.357
162.103
165.768
169.353
172.858
176.277
179.608
182.842
185.973
188.991
191.887
194.65
197.271
199.738
202.043
204.177
206.132
207.902
209.482
210.869
212.064
213.068
213.884
214.52
214.982
215.281
215.43
215.442
215.332
215.117
214.814
214.44
214.014
213.553
213.075
212.595
212.131
211.696
211.303
210.963
210.686
210.48
210.351
210.304
210.342
210.467
210.679
210.979
211.364
211.833
212.384
213.015
213.722
214.503
215.355
216.276
217.262
218.312
219.423
220.593
221.82
223.101
224.435
225.82
227.255
228.74
230.274
231.857
233.491
235.175
236.91
238.698
240.539
242.436
244.389
246.4
248.473
250.611
252.812
255.076
257.402
259.79
262.241
264.755
267.334
269.98
272.697
275.485
278.349
281.291
284.315
287.424
290.622
293.913
297.3
300.787
304.38
308.08
311.894
315.824
319.875
324.052
328.357
332.795
337.37
342.084
346.939
351.936
357.076
362.359
367.783
373.35
379.057
384.901
390.876
396.972
403.176
409.484
415.892
422.39
428.96
435.568
442.165
448.763
455.355
461.946
468.313
474.468
480.449
486.409
491.807
496.891
501.679
506.08
510.028
513.337
515.953
518.034
519.634
520.652
521.071
520.997
520.56
519.654
518.034
91.7153
88.088
83.1377
77.7748
72.9115
69.0041
66.1533
64.2799
63.2536
62.962
63.3341
64.33
65.9121
68.0128
70.5185
73.2817
76.1642
79.0955
82.111
85.339
88.9276
92.9554
97.3848
102.085
106.89
111.656
116.285
120.726
124.967
129.015
132.89
136.613
140.204
143.679
147.051
150.327
153.512
156.609
159.617
162.532
165.352
168.069
170.679
173.173
175.544
177.785
179.887
181.845
183.651
185.301
186.79
188.118
189.284
190.288
191.135
191.831
192.384
192.803
193.1
193.29
193.386
193.405
193.364
193.279
193.168
193.049
192.937
192.849
192.799
192.8
192.865
193.003
193.223
193.532
193.933
194.431
195.027
195.72
196.51
197.395
198.371
199.434
200.581
201.807
203.108
204.48
205.919
207.419
208.979
210.593
212.26
213.975
215.737
217.543
219.39
221.277
223.201
225.161
227.156
229.186
231.249
233.348
235.484
237.657
239.87
242.123
244.42
246.761
249.15
251.589
254.081
256.624
259.209
261.841
264.529
267.275
270.082
272.955
275.896
278.909
281.998
285.166
288.417
291.754
295.182
298.704
302.324
306.047
309.875
313.813
317.865
322.034
326.324
330.74
335.283
339.958
344.767
349.715
354.805
360.041
365.423
370.955
376.637
382.467
388.443
394.562
400.827
407.238
413.796
420.495
427.325
434.246
441.251
448.346
455.528
462.8
470.131
477.341
484.505
491.628
498.867
505.771
512.307
518.568
524.542
530.134
535.368
540.233
544.694
548.677
552.039
554.709
556.763
558.243
559.092
559.306
558.973
558.222
556.971
555.03
90.4035
86.114
81.0923
75.8408
71.1943
67.5754
65.0491
63.5053
62.7942
62.7954
63.4353
64.6703
66.4532
68.7031
71.2941
74.0744
76.9138
79.7575
82.6534
85.7267
89.1062
92.8488
96.9108
101.175
105.5
109.766
113.894
117.843
121.603
125.183
128.599
131.87
135.013
138.041
140.965
143.79
146.521
149.158
151.7
154.144
156.487
158.724
160.849
162.858
164.745
166.505
168.136
169.633
170.996
172.224
173.318
174.282
175.121
175.84
176.45
176.96
177.383
177.733
178.024
178.273
178.496
178.709
178.929
179.171
179.45
179.781
180.175
180.644
181.197
181.842
182.586
183.433
184.385
185.443
186.608
187.876
189.247
190.714
192.275
193.924
195.655
197.463
199.342
201.288
203.294
205.357
207.471
209.632
211.836
214.08
216.36
218.673
221.018
223.391
225.791
228.216
230.663
233.131
235.62
238.129
240.659
243.213
245.793
248.4
251.037
253.707
256.413
259.157
261.942
264.768
267.614
270.486
273.4
276.362
279.378
282.453
285.592
288.8
292.08
295.438
298.878
302.404
306.02
309.73
313.538
317.447
321.462
325.587
329.827
334.184
338.664
343.27
348.005
352.874
357.88
363.023
368.306
373.731
379.304
385.029
390.909
396.948
403.147
409.508
416.019
422.659
429.443
436.374
443.455
450.694
458.109
465.591
473.101
480.675
488.315
496.047
504.013
511.622
519.125
526.519
533.791
540.799
547.493
553.845
559.828
565.417
570.602
575.368
579.687
583.497
586.696
589.213
591.075
592.302
592.868
592.779
592.108
590.977
589.318
587.026
89.2901
84.0166
79.0756
74.187
69.9694
66.7715
64.6272
63.4162
62.9914
63.2407
64.0958
65.5095
67.4224
69.7375
72.3189
75.0186
77.7256
80.4113
83.1415
86.0383
89.2091
92.6881
96.4236
100.308
104.219
108.059
111.761
115.293
118.647
121.832
124.862
127.753
130.52
133.173
135.723
138.174
140.528
142.788
144.953
147.021
148.988
150.854
152.613
154.265
155.807
157.238
158.557
159.767
160.869
161.868
162.769
163.58
164.309
164.966
165.563
166.114
166.632
167.133
167.631
168.142
168.683
169.266
169.905
170.614
171.401
172.277
173.249
174.324
175.507
176.801
178.208
179.727
181.357
183.096
184.941
186.887
188.929
191.062
193.28
195.576
197.944
200.379
202.874
205.424
208.024
210.669
213.355
216.077
218.831
221.614
224.422
227.252
230.103
232.972
235.857
238.757
241.668
244.588
247.518
250.457
253.408
256.373
259.356
262.36
265.387
268.441
271.524
274.646
277.769
280.887
284.027
287.198
290.407
293.663
296.972
300.341
303.775
307.28
310.862
314.526
318.277
322.118
326.056
330.093
334.234
338.482
342.84
347.312
351.905
356.622
361.468
366.446
371.562
376.821
382.226
387.78
393.476
399.31
405.293
411.432
417.729
424.191
430.826
437.646
444.659
451.744
458.958
466.31
473.799
481.438
489.354
497.352
505.244
513.165
521.107
529.059
536.991
544.785
552.437
559.92
567.19
574.176
580.813
587.055
592.87
598.239
603.15
607.589
611.531
614.931
617.713
619.818
621.245
622.003
622.082
621.497
620.311
618.64
616.426
613.65
89.4083
82.3395
77.4775
73.0624
69.3697
66.6363
64.8683
63.9526
63.761
64.1982
65.2027
66.7209
68.6785
70.9643
73.4391
75.9698
78.475
80.9568
83.4959
86.2057
89.1701
92.4006
95.8379
99.382
102.929
106.394
109.724
112.893
115.895
118.739
121.436
124
126.445
128.781
131.016
133.155
135.201
137.157
139.022
140.798
142.483
144.077
145.58
146.992
148.313
149.546
150.695
151.764
152.759
153.687
154.557
155.378
156.161
156.918
157.66
158.401
159.156
159.939
160.762
161.641
162.588
163.613
164.727
165.937
167.25
168.672
170.207
171.858
173.626
175.512
177.513
179.63
181.856
184.19
186.625
189.157
191.779
194.486
197.271
200.128
203.05
206.032
209.067
212.151
215.28
218.447
221.651
224.885
228.146
231.43
234.733
238.054
241.389
244.738
248.097
251.466
254.841
258.219
261.597
264.977
268.362
271.756
275.163
278.587
282.03
285.503
288.973
292.405
295.834
299.271
302.724
306.202
309.713
313.268
316.874
320.539
324.27
328.074
331.958
335.926
339.986
344.141
348.398
352.762
357.237
361.825
366.52
371.332
376.268
381.331
386.528
391.861
397.336
402.96
408.744
414.701
420.816
427.038
433.403
439.921
446.594
453.427
460.428
467.628
475.184
482.656
490.23
497.922
505.728
513.642
521.676
529.76
537.849
545.937
554.003
562.018
569.938
577.712
585.295
592.644
599.712
606.433
612.746
618.607
623.984
628.858
633.217
637.049
640.336
643.045
645.122
646.517
647.22
647.233
646.559
645.225
643.291
640.871
637.919
634.487
91.9244
81.678
76.5983
72.5986
69.4099
67.1083
65.6675
64.9886
64.9684
65.5291
66.612
68.1541
70.0665
72.2297
74.5125
76.8074
79.0684
81.3263
83.6694
86.1945
88.9564
91.9473
95.1059
98.3389
101.556
104.686
107.686
110.534
113.226
115.77
118.177
120.46
122.631
124.7
126.674
128.559
130.361
132.081
133.724
135.29
136.781
138.199
139.547
140.826
142.04
143.194
144.294
145.346
146.36
147.344
148.308
149.261
150.215
151.18
152.169
153.193
154.265
155.397
156.602
157.889
159.269
160.751
162.341
164.042
165.859
167.795
169.851
172.03
174.331
176.753
179.294
181.949
184.715
187.587
190.559
193.625
196.779
200.016
203.327
206.708
210.15
213.648
217.198
220.794
224.432
228.109
231.819
235.56
239.328
243.119
246.929
250.756
254.598
258.453
262.321
266.2
270.088
273.978
277.868
281.757
285.647
289.545
293.454
297.385
301.307
305.16
308.975
312.775
316.574
320.375
324.184
328.007
331.855
335.742
339.677
343.669
347.728
351.861
356.075
360.375
364.769
369.262
373.86
378.573
383.409
388.379
393.438
398.608
403.902
409.323
414.877
420.568
426.398
432.375
438.512
444.86
451.445
458.038
464.759
471.623
478.631
485.785
493.084
500.537
508.15
515.847
523.638
531.52
539.483
547.511
555.588
563.683
571.763
579.8
587.762
595.612
603.306
610.791
618.018
624.935
631.488
637.617
643.269
648.41
653.017
657.069
660.552
663.46
665.784
667.495
668.552
668.914
668.569
667.521
665.789
663.414
660.462
657.055
653.166
648.894
98.0206
82.6101
76.6862
72.8564
70.0449
68.0838
66.8923
66.3806
66.4662
67.0829
68.1699
69.6531
71.4336
73.3939
75.4217
77.4427
79.4453
81.4809
83.6343
85.9802
88.5481
91.3121
94.2055
97.1465
100.061
102.887
105.59
108.152
110.571
112.853
115.011
117.055
118.997
120.848
122.617
124.309
125.931
127.488
128.983
130.422
131.808
133.144
134.433
135.681
136.891
138.071
139.227
140.369
141.504
142.644
143.797
144.973
146.181
147.43
148.731
150.095
151.533
153.054
154.668
156.384
158.209
160.152
162.214
164.398
166.707
169.141
171.704
174.396
177.217
180.165
183.238
186.431
189.739
193.157
196.677
200.293
203.997
207.783
211.644
215.571
219.557
223.596
227.685
231.818
235.99
240.2
244.442
248.714
253.014
257.341
261.693
266.067
270.461
274.875
279.311
283.771
288.253
292.753
297.261
301.782
306.304
310.851
315.383
319.805
324.126
328.39
332.626
336.849
341.066
345.282
349.507
353.726
357.958
362.223
366.534
370.901
375.334
379.841
384.428
389.103
393.869
398.734
403.703
408.785
413.999
419.433
424.886
430.433
436.097
441.885
447.799
453.842
460.017
466.326
472.776
479.378
486.127
492.986
499.965
507.067
514.292
521.637
529.097
536.666
544.336
552.086
559.903
567.772
575.676
583.594
591.503
599.372
607.17
614.862
622.411
629.775
636.907
643.755
650.262
656.374
662.037
667.197
671.819
675.884
679.372
682.262
684.549
686.232
687.297
687.71
687.432
686.432
684.703
682.263
679.15
675.43
671.185
666.558
661.542
656.276
108.853
85.5976
77.918
73.8475
71.201
69.4483
68.4108
67.9891
68.11
68.7109
69.725
71.0694
72.6435
74.3423
76.0809
77.8193
79.5732
81.4022
83.3788
85.5532
87.9321
90.4781
93.1246
95.797
98.43
100.978
103.414
105.723
107.903
109.963
111.912
113.763
115.528
117.218
118.842
120.407
121.922
123.392
124.823
126.223
127.595
128.944
130.275
131.592
132.9
134.205
135.516
136.841
138.19
139.574
141.001
142.478
144.013
145.615
147.294
149.062
150.928
152.9
154.985
157.19
159.521
161.984
164.578
167.306
170.167
173.166
176.306
179.588
183.011
186.572
190.269
194.098
198.051
202.123
206.304
210.584
214.953
219.399
223.913
228.484
233.106
237.77
242.472
247.206
251.967
256.751
261.557
266.384
271.234
276.109
281.016
285.96
290.943
295.953
301.009
306.117
311.287
316.52
321.783
327.135
332.448
337.596
342.574
347.438
352.212
356.924
361.602
366.262
370.912
375.56
380.264
384.92
389.572
394.254
398.98
403.763
408.61
413.529
418.526
423.605
428.773
434.032
439.387
444.843
450.408
456.097
461.877
467.754
473.735
479.824
486.024
492.334
498.756
505.29
511.936
518.696
525.565
532.537
539.606
546.769
554.023
561.359
568.77
576.247
583.778
591.345
598.933
606.522
614.09
621.614
629.063
636.408
643.61
650.633
657.433
663.967
670.187
676.037
681.462
686.404
690.819
694.678
697.963
700.654
702.718
704.124
704.874
704.966
704.368
703.046
700.972
698.136
694.557
690.28
685.377
679.947
674.101
668.009
661.678
655.302
125.565
90.9813
80.385
75.5412
72.7888
71.0877
70.0986
69.6832
69.7627
70.2715
71.1367
72.2726
73.5858
74.9924
76.4374
77.9094
79.44
81.0857
82.9004
84.911
87.1066
89.4432
91.858
94.2859
96.6716
98.975
101.175
103.265
105.249
107.132
108.924
110.64
112.291
113.891
115.448
116.971
118.467
119.945
121.412
122.877
124.346
125.824
127.315
128.823
130.354
131.912
133.503
135.135
136.818
138.565
140.381
142.275
144.253
146.327
148.513
150.828
153.292
155.916
158.7
161.641
164.737
167.988
171.387
174.937
178.63
182.475
186.473
190.627
194.932
199.385
203.98
208.709
213.564
218.533
223.606
228.772
234.015
239.299
244.628
249.991
255.373
260.758
266.142
271.517
276.879
282.227
287.561
292.885
298.207
303.536
308.896
314.335
319.868
325.418
331.068
336.865
342.819
348.972
355.081
360.946
366.605
372.099
377.45
382.688
387.841
392.936
397.995
403.031
408.049
413.059
418.079
423.104
428.146
433.222
438.341
443.513
448.745
454.04
459.403
464.837
470.344
475.928
481.59
487.332
493.158
499.07
505.064
511.141
517.301
523.545
529.874
536.287
542.785
549.365
556.027
562.769
569.587
576.477
583.433
590.449
597.519
604.632
611.78
618.948
626.124
633.288
640.42
647.497
654.492
661.376
668.116
674.673
681.007
687.073
692.822
698.207
703.175
707.674
711.648
715.055
717.856
720.047
721.61
722.499
722.662
722.065
720.689
718.521
715.544
711.748
707.143
701.763
695.673
688.966
681.757
674.187
666.398
658.578
650.748
643.139
149.259
98.9738
84.0871
77.8667
74.7099
72.8945
71.8432
71.3436
71.2983
71.6363
72.2831
73.1577
74.1816
75.2944
76.4671
77.7067
79.0481
80.5363
82.2048
84.0611
86.0827
88.2239
90.4284
92.6412
94.8179
96.9274
98.9518
100.884
102.729
104.502
106.216
107.886
109.525
111.148
112.762
114.376
115.997
117.632
119.293
120.989
122.729
124.522
126.374
128.298
130.312
132.412
134.581
136.823
139.149
141.569
144.083
146.705
149.451
152.334
155.375
158.599
162.03
165.669
169.495
173.498
177.681
182.054
186.63
191.399
196.305
201.362
206.573
211.934
217.436
223.069
228.82
234.677
240.628
246.658
252.754
258.92
265.185
271.376
277.555
283.728
289.878
295.994
302.071
308.108
314.101
320.051
325.959
331.835
337.688
343.524
349.368
355.262
361.228
367.406
373.915
380.49
386.955
393.167
399.187
405.019
410.683
416.208
421.634
427.001
432.319
437.6
442.856
448.093
453.326
458.569
463.834
469.129
474.46
479.832
485.248
490.713
496.227
501.793
507.411
513.084
518.811
524.594
530.435
536.333
542.29
548.307
554.384
560.52
566.717
572.973
579.289
585.664
592.096
598.584
605.124
611.714
618.349
625.023
631.728
638.457
645.198
651.94
658.668
665.366
672.013
678.588
685.063
691.408
697.59
703.573
709.316
714.773
719.895
724.632
728.927
732.727
735.976
738.62
740.61
741.922
742.531
742.408
741.513
739.791
737.199
733.719
729.34
724.062
717.896
710.873
703.054
694.533
685.424
675.866
666.019
656.057
646.143
636.471
627.051
618.095
182.621
110.134
89.1321
80.8213
76.9329
74.8323
73.6041
72.9188
72.6515
72.7322
73.0934
73.6656
74.3885
75.2224
76.1555
77.201
78.387
79.7418
81.2799
82.9947
84.8583
86.8283
88.8575
90.9032
92.9332
94.9267
96.8728
98.7677
100.614
102.427
104.227
106.044
107.895
109.8
111.778
113.823
115.928
118.103
120.362
122.713
125.154
127.711
130.411
133.285
136.354
139.557
142.854
146.272
149.832
153.557
157.474
161.607
165.937
170.432
175.111
179.98
185.018
190.197
195.515
200.988
206.633
212.485
218.593
224.999
231.422
237.924
244.513
251.181
257.912
264.691
271.501
278.327
285.158
291.982
298.779
305.536
312.252
318.908
325.506
332.053
338.549
344.999
351.408
357.786
364.149
370.505
376.863
383.237
389.631
396.042
402.555
409.423
416.459
423.377
429.945
436.216
442.266
448.132
453.846
459.433
464.92
470.332
475.7
481.053
486.396
491.733
497.07
502.432
507.835
513.282
518.773
524.308
529.886
535.504
541.16
546.852
552.58
558.341
564.137
569.966
575.828
581.724
587.653
593.616
599.613
605.645
611.712
617.812
623.944
630.109
636.305
642.528
648.776
655.045
661.331
667.626
673.924
680.215
686.488
692.729
698.925
705.056
711.103
717.043
722.848
728.489
733.93
739.135
744.062
748.665
752.896
756.701
760.025
762.81
764.996
766.525
767.341
767.391
766.625
765.002
762.509
759.113
754.769
749.46
743.188
735.959
727.786
718.702
708.756
698.03
686.646
674.758
662.5
650.031
637.555
625.265
613.32
601.897
590.982
580.691
223.457
122.756
94.5303
83.8032
79.0279
76.5323
75.0306
74.0777
73.5315
73.3299
73.4139
73.7237
74.2106
74.8458
75.6222
76.5498
77.6457
78.9239
80.3874
82.0242
83.8083
85.7044
87.6781
89.703
91.764
93.8568
95.9853
98.1601
100.37
102.636
104.994
107.472
110.091
112.909
115.961
119.162
122.499
126.021
129.743
133.683
137.872
142.355
147.106
152.041
157.109
162.29
167.648
173.215
179.004
185.045
191.417
198.136
205.145
212.143
219.234
226.421
233.686
241.004
248.359
255.742
263.151
270.601
278.094
285.61
293.083
300.494
307.833
315.097
322.28
329.374
336.373
343.268
350.063
356.752
363.332
369.801
376.169
382.448
388.658
394.82
400.952
407.07
413.193
419.345
425.568
431.878
438.289
444.93
451.826
458.888
465.995
472.9
479.686
486.234
492.584
498.776
504.831
510.785
516.667
522.495
528.283
534.039
539.773
545.495
551.208
556.915
562.638
568.4
574.198
580.024
585.874
591.742
597.624
603.516
609.414
615.317
621.223
627.13
633.039
638.949
644.858
650.768
656.677
662.585
668.492
674.398
680.299
686.196
692.085
697.962
703.826
709.669
715.486
721.271
727.013
732.703
738.328
743.875
749.325
754.66
759.859
764.896
769.743
774.369
778.739
782.814
786.553
789.909
792.831
795.269
797.166
798.464
799.104
799.026
798.171
796.482
793.908
790.402
785.921
780.425
773.888
766.293
757.633
747.943
737.27
725.657
713.175
699.868
685.833
671.241
656.283
641.149
625.956
610.851
596.092
581.85
568.249
555.418
543.368
532.313
270.138
136.002
99.9555
86.7289
80.9903
77.9724
76.0686
74.778
73.9445
73.4914
73.3576
73.4859
73.8325
74.3723
75.0976
76.0136
77.1282
78.4514
79.9875
81.735
83.6854
85.7981
88.0564
90.468
93.0496
95.8211
98.7891
102.006
105.389
109.034
113.027
117.403
122.2
127.485
133.142
139.06
145.322
151.944
158.915
166.262
174.102
182.456
191.198
199.816
208.424
217.007
225.586
234.176
242.781
251.425
260.133
268.878
277.602
286.216
294.702
303.054
311.263
319.321
327.226
334.973
342.568
350.025
357.358
364.565
371.637
378.569
385.362
392.021
398.554
404.97
411.276
417.478
423.587
429.595
435.523
441.39
447.217
453.023
458.827
464.663
470.567
476.557
482.642
488.869
495.434
502.247
509.24
516.269
523.286
530.341