/*--------------------------------*- C++ -*----------------------------------*\
| =========                 |                                                 |
| \\      /  F ield         | OpenFOAM: The Open Source CFD Toolbox           |
|  \\    /   O peration     | Version:  2112                                  |
|   \\  /    A nd           | Website:  www.openfoam.com                      |
|    \\/     M anipulation  |                                                 |
\*---------------------------------------------------------------------------*/
FoamFile
{
    version     2.0;
    format      ascii;
    arch        "LSB;label=32;scalar=64";
    class       volVectorField;
    location    "0.28";
    object      U;
}
// * * * * * * * * * * * * * * * * * * * * * * * * * * * * * * * * * * * * * //

dimensions      [0 1 -1 0 0 0 0];

internalField   nonuniform List<vector> 
12225
(
(9.76438 0.0674188 0)
(9.27355 0.109002 0)
(8.73472 0.118708 0)
(8.18549 0.120625 0)
(7.66191 0.116943 0)
(7.18158 0.108427 0)
(6.7559 0.0965371 0)
(6.39378 0.0826577 0)
(6.0994 0.0680531 0)
(5.87122 0.0539054 0)
(5.70296 0.0411419 0)
(5.58535 0.0303219 0)
(5.50779 0.0216686 0)
(5.45999 0.015287 0)
(5.43145 0.0112003 0)
(5.41779 0.0100831 0)
(5.39432 0.026609 0)
(5.36992 -0.00105125 0)
(10.0957 0.0741234 0)
(10.284 0.108927 0)
(10.4001 0.116896 0)
(10.451 0.125047 0)
(10.4469 0.129919 0)
(10.392 0.129384 0)
(10.2927 0.123703 0)
(10.158 0.113546 0)
(9.99732 0.0999249 0)
(9.81875 0.0842818 0)
(9.62864 0.06816 0)
(9.432 0.0528476 0)
(9.23273 0.0391963 0)
(9.034 0.0277772 0)
(8.83871 0.0184138 0)
(8.64971 0.0134847 0)
(8.47335 0.0114044 0)
(8.33206 0.0348888 0)
(10.0193 0.0415518 0)
(10.0733 0.0684585 0)
(10.1286 0.0844368 0)
(10.1827 0.101924 0)
(10.2398 0.116241 0)
(10.2956 0.125793 0)
(10.3438 0.130985 0)
(10.381 0.132482 0)
(10.4053 0.131121 0)
(10.4156 0.128089 0)
(10.4125 0.124651 0)
(10.3974 0.12179 0)
(10.3723 0.120068 0)
(10.3392 0.11962 0)
(10.2999 0.120251 0)
(10.2562 0.121388 0)
(10.2131 0.122679 0)
(10.166 0.115998 0)
(10.0104 0.0334891 0)
(10.0434 0.0654553 0)
(10.0731 0.0821478 0)
(10.0985 0.0957789 0)
(10.1258 0.105987 0)
(10.1555 0.112035 0)
(10.1859 0.11456 0)
(10.2148 0.114141 0)
(10.2413 0.111377 0)
(10.2646 0.107157 0)
(10.2848 0.10245 0)
(10.3022 0.0980206 0)
(10.3173 0.0943486 0)
(10.3309 0.0916086 0)
(10.344 0.0896491 0)
(10.3576 0.0879961 0)
(10.3727 0.0857691 0)
(10.3895 0.0762516 0)
(10.0063 0.0280737 0)
(10.0321 0.059449 0)
(10.0569 0.0756086 0)
(10.078 0.0884752 0)
(10.0997 0.0984347 0)
(10.1224 0.10457 0)
(10.1448 0.107336 0)
(10.166 0.107422 0)
(10.1857 0.105537 0)
(10.2036 0.102498 0)
(10.2195 0.0990745 0)
(10.2339 0.0958589 0)
(10.2475 0.0932305 0)
(10.261 0.0913353 0)
(10.2753 0.0899246 0)
(10.2909 0.088332 0)
(10.3085 0.0854652 0)
(10.3285 0.0787728 0)
(10.0039 0.0230495 0)
(10.0244 0.052692 0)
(10.0469 0.0694646 0)
(10.0669 0.0823528 0)
(10.0871 0.0920389 0)
(10.1077 0.0979658 0)
(10.1279 0.100659 0)
(10.1469 0.100879 0)
(10.1646 0.0992412 0)
(10.1807 0.0964203 0)
(10.1954 0.0930743 0)
(10.2089 0.0897529 0)
(10.2218 0.0867757 0)
(10.2347 0.0841396 0)
(10.2482 0.0815607 0)
(10.2628 0.0785106 0)
(10.2785 0.0740759 0)
(10.295 0.0664655 0)
(10.0026 0.0191725 0)
(10.0188 0.0464067 0)
(10.0388 0.0630907 0)
(10.0579 0.0757086 0)
(10.0771 0.0850499 0)
(10.0967 0.0908238 0)
(10.1159 0.0935772 0)
(10.134 0.0939892 0)
(10.1508 0.0926294 0)
(10.1664 0.0901201 0)
(10.1807 0.0870658 0)
(10.1941 0.0838988 0)
(10.207 0.0808469 0)
(10.2198 0.0778761 0)
(10.2329 0.0747699 0)
(10.2466 0.0710566 0)
(10.2609 0.0659632 0)
(10.2754 0.0583622 0)
(10.0018 0.0161069 0)
(10.0147 0.0408226 0)
(10.0323 0.0568827 0)
(10.0501 0.068905 0)
(10.0684 0.0778378 0)
(10.087 0.0834025 0)
(10.1052 0.0861222 0)
(10.1226 0.0866652 0)
(10.1389 0.0855589 0)
(10.1541 0.0833366 0)
(10.1682 0.0804951 0)
(10.1815 0.0773927 0)
(10.1943 0.0742223 0)
(10.2069 0.070964 0)
(10.2197 0.0673804 0)
(10.2327 0.0630725 0)
(10.2458 0.0575023 0)
(10.2589 0.0500417 0)
(10.0013 0.0135979 0)
(10.0116 0.0357582 0)
(10.027 0.050924 0)
(10.0434 0.0622053 0)
(10.0606 0.070603 0)
(10.0783 0.0759512 0)
(10.0956 0.0786179 0)
(10.1122 0.0792035 0)
(10.1279 0.0782423 0)
(10.1426 0.0762111 0)
(10.1565 0.0735161 0)
(10.1695 0.0704527 0)
(10.1821 0.0671731 0)
(10.1945 0.0636548 0)
(10.2068 0.0597118 0)
(10.2191 0.0550435 0)
(10.2313 0.049271 0)
(10.2431 0.0420481 0)
(10.001 0.0114972 0)
(10.0094 0.0311191 0)
(10.0227 0.0451815 0)
(10.0377 0.0556107 0)
(10.0537 0.0633282 0)
(10.0703 0.0683562 0)
(10.0868 0.0709528 0)
(10.1028 0.0715921 0)
(10.1179 0.0707563 0)
(10.1321 0.0688618 0)
(10.1455 0.0662643 0)
(10.1583 0.0632193 0)
(10.1706 0.0598553 0)
(10.1826 0.0561498 0)
(10.1944 0.051964 0)
(10.206 0.0470825 0)
(10.2173 0.0412549 0)
(10.2281 0.0343203 0)
(10.0008 0.00971008 0)
(10.0076 0.0268624 0)
(10.0193 0.0396513 0)
(10.033 0.0491405 0)
(10.0477 0.0561112 0)
(10.0631 0.060672 0)
(10.0787 0.0630762 0)
(10.0939 0.0637279 0)
(10.1085 0.0629898 0)
(10.1223 0.0612147 0)
(10.1354 0.0587176 0)
(10.1479 0.0557144 0)
(10.1598 0.0522939 0)
(10.1713 0.048446 0)
(10.1826 0.0440983 0)
(10.1935 0.0391111 0)
(10.204 0.0333351 0)
(10.214 0.0267224 0)
(10.0006 0.0082689 0)
(10.0065 0.0232501 0)
(10.0168 0.0347567 0)
(10.0293 0.043317 0)
(10.0429 0.0495614 0)
(10.0573 0.0536413 0)
(10.0719 0.0557756 0)
(10.0864 0.0563116 0)
(10.1004 0.0555844 0)
(10.1138 0.0538865 0)
(10.1265 0.0514694 0)
(10.1387 0.0485067 0)
(10.1504 0.0450774 0)
(10.1616 0.041192 0)
(10.1724 0.0367844 0)
(10.1827 0.0317804 0)
(10.1926 0.026119 0)
(10.2018 0.0198172 0)
(10.0005 0.0069946 0)
(10.0055 0.0198993 0)
(10.0147 0.0300525 0)
(10.0261 0.0376398 0)
(10.0388 0.0431328 0)
(10.0522 0.0466937 0)
(10.0659 0.0485141 0)
(10.0796 0.0488881 0)
(10.0929 0.0481029 0)
(10.1057 0.0464063 0)
(10.1181 0.0440084 0)
(10.1299 0.041064 0)
(10.1413 0.0376551 0)
(10.1522 0.0337835 0)
(10.1626 0.0294024 0)
(10.1725 0.0244846 0)
(10.1818 0.0189981 0)
(10.1905 0.0130009 0)
(10.0005 0.00569853 0)
(10.0047 0.0163404 0)
(10.0127 0.0248954 0)
(10.0231 0.0313124 0)
(10.0346 0.0359013 0)
(10.047 0.0388172 0)
(10.0598 0.0402211 0)
(10.0726 0.0403484 0)
(10.0851 0.0394362 0)
(10.0973 0.0376887 0)
(10.1091 0.0352754 0)
(10.1204 0.0323208 0)
(10.1313 0.0288989 0)
(10.1417 0.0250417 0)
(10.1517 0.0207478 0)
(10.1612 0.0159903 0)
(10.17 0.0107595 0)
(10.1783 0.00514157 0)
(10.0004 0.0043712 0)
(10.004 0.0125903 0)
(10.011 0.0193042 0)
(10.0202 0.0243338 0)
(10.0307 0.0278463 0)
(10.042 0.0299708 0)
(10.0538 0.0308351 0)
(10.0656 0.0306153 0)
(10.0774 0.0294954 0)
(10.0888 0.027636 0)
(10.0999 0.0251689 0)
(10.1106 0.0221936 0)
(10.1209 0.0187756 0)
(10.1307 0.014953 0)
(10.1401 0.0107457 0)
(10.149 0.00617217 0)
(10.1572 0.00125331 0)
(10.165 -0.00393325 0)
(10.0003 0.00300249 0)
(10.0034 0.00865828 0)
(10.0094 0.0132964 0)
(10.0176 0.0167072 0)
(10.0271 0.0189517 0)
(10.0374 0.0201182 0)
(10.0481 0.0202986 0)
(10.059 0.0196138 0)
(10.0699 0.0181946 0)
(10.0806 0.0161584 0)
(10.091 0.0136025 0)
(10.101 0.0106029 0)
(10.1106 0.00721579 0)
(10.1197 0.00348106 0)
(10.1284 -0.000570134 0)
(10.1366 -0.00490741 0)
(10.1442 -0.00949841 0)
(10.1513 -0.0142639 0)
(10.0003 0.00157549 0)
(10.003 0.0045212 0)
(10.0082 0.00685915 0)
(10.0155 0.00841415 0)
(10.024 0.00918369 0)
(10.0333 0.0092107 0)
(10.0431 0.00854881 0)
(10.0531 0.00726974 0)
(10.0632 0.00545402 0)
(10.0731 0.00317678 0)
(10.0827 0.00050202 0)
(10.092 -0.00251777 0)
(10.1008 -0.00584041 0)
(10.1093 -0.00943121 0)
(10.1173 -0.0132592 0)
(10.1248 -0.0172926 0)
(10.1318 -0.0214992 0)
(10.1383 -0.0258116 0)
(10.0003 5.62347e-05 0)
(10.0026 9.33828e-05 0)
(10.0073 -0.000112465 0)
(10.0139 -0.000667756 0)
(10.0216 -0.00160275 0)
(10.0302 -0.00291577 0)
(10.0392 -0.00459131 0)
(10.0485 -0.00660176 0)
(10.0578 -0.00891312 0)
(10.0669 -0.0114919 0)
(10.0759 -0.0143083 0)
(10.0845 -0.0173369 0)
(10.0927 -0.0205555 0)
(10.1005 -0.0239442 0)
(10.1078 -0.0274829 0)
(10.1147 -0.0311499 0)
(10.1211 -0.0349231 0)
(10.1271 -0.0387531 0)
(10.0002 -0.00163268 0)
(10.0025 -0.00482717 0)
(10.0069 -0.00787919 0)
(10.0132 -0.0108183 0)
(10.0205 -0.0136944 0)
(10.0286 -0.0165462 0)
(10.0371 -0.0193952 0)
(10.0459 -0.0222551 0)
(10.0547 -0.0251369 0)
(10.0634 -0.0280501 0)
(10.0718 -0.0310027 0)
(10.0799 -0.0340025 0)
(10.0876 -0.037056 0)
(10.0949 -0.0401676 0)
(10.1017 -0.043339 0)
(10.108 -0.0465676 0)
(10.1139 -0.0498489 0)
(10.1194 -0.0531561 0)
(10.0003 -0.00324832 0)
(10.0027 -0.00951856 0)
(10.0074 -0.015237 0)
(10.0138 -0.0203737 0)
(10.0214 -0.0250235 0)
(10.0296 -0.0292715 0)
(10.0382 -0.0331713 0)
(10.047 -0.0367724 0)
(10.0558 -0.0401263 0)
(10.0645 -0.0432806 0)
(10.0728 -0.046279 0)
(10.0807 -0.0491624 0)
(10.0882 -0.0519686 0)
(10.0952 -0.0547311 0)
(10.1018 -0.0574775 0)
(10.1078 -0.060229 0)
(10.1134 -0.0630016 0)
(10.1185 -0.0657911 0)
(10.0003 -0.00467659 0)
(10.003 -0.0136137 0)
(10.0083 -0.0215286 0)
(10.0154 -0.0283994 0)
(10.0234 -0.0344272 0)
(10.032 -0.0397474 0)
(10.0411 -0.0444341 0)
(10.0503 -0.0485669 0)
(10.0594 -0.0522309 0)
(10.0682 -0.055503 0)
(10.0768 -0.0584541 0)
(10.0848 -0.0611528 0)
(10.0924 -0.0636654 0)
(10.0994 -0.0660521 0)
(10.1058 -0.0683655 0)
(10.1117 -0.0706489 0)
(10.1171 -0.0729376 0)
(10.122 -0.0752458 0)
(10.0004 -0.00616024 0)
(10.0037 -0.0177518 0)
(10.0099 -0.0276563 0)
(10.0178 -0.0360094 0)
(10.0266 -0.0432139 0)
(10.0359 -0.0494459 0)
(10.0456 -0.0547854 0)
(10.0554 -0.0593413 0)
(10.065 -0.0632282 0)
(10.0744 -0.0665438 0)
(10.0833 -0.0693804 0)
(10.0917 -0.0718327 0)
(10.0995 -0.0739946 0)
(10.1066 -0.075954 0)
(10.1131 -0.0777896 0)
(10.119 -0.079569 0)
(10.1244 -0.0813489 0)
(10.1291 -0.0831645 0)
(10.0005 -0.0078144 0)
(10.0048 -0.0221379 0)
(10.0124 -0.0338029 0)
(10.0214 -0.0433931 0)
(10.031 -0.0516032 0)
(10.0413 -0.0586094 0)
(10.0518 -0.0644906 0)
(10.0624 -0.0693911 0)
(10.0727 -0.0734438 0)
(10.0827 -0.0767534 0)
(10.0922 -0.0794255 0)
(10.1011 -0.0815779 0)
(10.1092 -0.0833321 0)
(10.1167 -0.0848039 0)
(10.1233 -0.0860999 0)
(10.1293 -0.0873141 0)
(10.1345 -0.0885249 0)
(10.1391 -0.0897846 0)
(10.0007 -0.00978038 0)
(10.0066 -0.0269159 0)
(10.0159 -0.0400077 0)
(10.0263 -0.0506029 0)
(10.037 -0.0597054 0)
(10.0483 -0.0673792 0)
(10.0598 -0.0737009 0)
(10.0713 -0.0788711 0)
(10.0825 -0.0830359 0)
(10.0933 -0.0862944 0)
(10.1034 -0.088759 0)
(10.1128 -0.0905702 0)
(10.1214 -0.0918774 0)
(10.1291 -0.092823 0)
(10.1359 -0.0935435 0)
(10.1419 -0.0941645 0)
(10.1471 -0.0947959 0)
(10.1516 -0.095519 0)
(10.0011 -0.0122844 0)
(10.0094 -0.032326 0)
(10.0211 -0.0463619 0)
(10.033 -0.0576991 0)
(10.0449 -0.0676457 0)
(10.0573 -0.0759877 0)
(10.0699 -0.0827383 0)
(10.0823 -0.0881382 0)
(10.0943 -0.0923407 0)
(10.1058 -0.0954404 0)
(10.1166 -0.0975596 0)
(10.1265 -0.0988721 0)
(10.1355 -0.0995722 0)
(10.1436 -0.0998356 0)
(10.1506 -0.0998259 0)
(10.1567 -0.0996947 0)
(10.1619 -0.0995703 0)
(10.1662 -0.0995172 0)
(10.002 -0.0157215 0)
(10.0141 -0.0389936 0)
(10.0288 -0.0534838 0)
(10.0422 -0.0649785 0)
(10.0552 -0.0750349 0)
(10.0688 -0.0834589 0)
(10.0825 -0.0903376 0)
(10.096 -0.0958954 0)
(10.109 -0.100225 0)
(10.1217 -0.103384 0)
(10.1336 -0.105473 0)
(10.1447 -0.106655 0)
(10.1549 -0.107121 0)
(10.1639 -0.107085 0)
(10.1719 -0.106767 0)
(10.1788 -0.106354 0)
(10.1847 -0.106018 0)
(10.1898 -0.105828 0)
(10.0041 -0.0200897 0)
(10.0218 -0.0453836 0)
(10.0405 -0.0603818 0)
(10.0565 -0.0726879 0)
(10.0722 -0.08327 0)
(10.0886 -0.0916766 0)
(10.1054 -0.0983313 0)
(10.1221 -0.103553 0)
(10.1388 -0.10739 0)
(10.1554 -0.109879 0)
(10.1715 -0.111125 0)
(10.1869 -0.111339 0)
(10.2011 -0.110731 0)
(10.214 -0.109467 0)
(10.2253 -0.107778 0)
(10.2352 -0.105934 0)
(10.2437 -0.104108 0)
(10.2504 -0.1024 0)
(10.0095 -0.0259534 0)
(10.039 -0.0474119 0)
(10.0698 -0.0602513 0)
(10.0991 -0.0743412 0)
(10.1314 -0.0877139 0)
(10.166 -0.0990053 0)
(10.2013 -0.108488 0)
(10.2362 -0.116512 0)
(10.2697 -0.123004 0)
(10.3008 -0.127872 0)
(10.3284 -0.131147 0)
(10.3515 -0.132941 0)
(10.3699 -0.13351 0)
(10.3833 -0.133193 0)
(10.3919 -0.132346 0)
(10.3957 -0.131357 0)
(10.3952 -0.130473 0)
(10.3913 -0.130119 0)
(10.0515 -0.0520896 0)
(10.1748 -0.0841513 0)
(10.2757 -0.0938765 0)
(10.3508 -0.103766 0)
(10.4025 -0.11268 0)
(10.4316 -0.119335 0)
(10.4374 -0.123993 0)
(10.4212 -0.126781 0)
(10.3854 -0.127558 0)
(10.3324 -0.126257 0)
(10.2648 -0.122953 0)
(10.1853 -0.117873 0)
(10.0962 -0.111358 0)
(9.99977 -0.103795 0)
(9.89783 -0.0955718 0)
(9.79198 -0.0871822 0)
(9.68343 -0.0789162 0)
(9.5735 -0.0718541 0)
(9.87225 -0.0504924 0)
(9.57844 -0.0895442 0)
(9.23344 -0.104024 0)
(8.86293 -0.112284 0)
(8.4901 -0.116483 0)
(8.12439 -0.117177 0)
(7.7709 -0.115264 0)
(7.43476 -0.111291 0)
(7.12047 -0.10558 0)
(6.83129 -0.0984412 0)
(6.56945 -0.0902183 0)
(6.33619 -0.0812751 0)
(6.13179 -0.071972 0)
(5.95558 -0.0626335 0)
(5.80601 -0.0535382 0)
(5.68118 -0.0449716 0)
(5.57756 -0.0372741 0)
(5.49492 -0.030004 0)
(-0.000243611 0.000238308 -2.34413e-21)
(-0.000591048 0.000427379 2.2876e-21)
(-0.00126731 0.000692696 0)
(-0.00215948 0.00106968 0)
(-0.00340495 0.00155303 0)
(-0.00508695 0.00213589 -2.22127e-21)
(-0.00728653 0.00280511 0)
(-0.0100756 0.00354284 0)
(-0.0135136 0.00432758 0)
(-0.0176458 0.00513494 0)
(-0.0225007 0.00593872 2.13636e-21)
(-0.0280889 0.00671433 0)
(-0.0344034 0.00744851 0)
(-0.0414239 0.00816234 0)
(-0.049136 0.00895679 0)
(-0.0576249 0.010097 2.05157e-21)
(-0.0669905 0.0121047 0)
(-0.0775804 0.0142628 0)
(-0.0895361 0.0153732 0)
(-0.10237 0.0150234 0)
(-0.11557 0.0131952 0)
(-0.128615 0.0104372 0)
(-0.141197 0.00776975 0)
(-0.153349 0.00606517 1.90379e-21)
(-0.165337 0.00557824 -1.87368e-21)
(-0.177454 0.00605607 1.84386e-21)
(-0.189899 0.00708833 1.81543e-21)
(-0.202763 0.00833785 0)
(-0.216058 0.00959769 0)
(-0.229755 0.0107618 -1.74272e-21)
(-0.243805 0.0117819 -1.72274e-21)
(-0.258162 0.0126389 0)
(-0.272784 0.0133355 0)
(-0.287637 0.0138883 -1.67287e-21)
(-0.302693 0.0143205 0)
(-0.317937 0.0146565 0)
(-0.333361 0.0149203 1.63319e-21)
(-0.348967 0.0151341 0)
(-0.364762 0.0153168 1.61002e-21)
(-0.380761 0.0154845 3.19818e-21)
(-0.396983 0.0156491 0)
(-0.413448 0.015819 0)
(-0.430179 0.0159995 0)
(-0.447198 0.0161932 0)
(-0.464524 0.0164004 0)
(-0.482175 0.0166203 3.07874e-21)
(-0.500168 0.0168512 3.06034e-21)
(-0.518515 0.0170907 3.0423e-21)
(-0.537227 0.0173362 0)
(-0.55631 0.0175853 -3.00724e-21)
(-0.57577 0.0178354 0)
(-0.595608 0.018084 2.97342e-21)
(-0.615823 0.0183285 2.95693e-21)
(-0.636411 0.0185665 0)
(-0.657365 0.0187955 0)
(-0.678674 0.019013 0)
(-0.700326 0.0192166 2.89336e-21)
(-0.722304 0.0194036 0)
(-0.74459 0.0195717 0)
(-0.767162 0.0197184 0)
(-0.789996 0.0198415 0)
(-0.813062 0.0199387 0)
(-0.836332 0.020008 0)
(-0.859773 0.0200475 0)
(-0.88335 0.0200557 0)
(-0.907025 0.020031 -2.75687e-21)
(-0.930759 0.0199723 0)
(-0.954513 0.0198788 0)
(-0.978245 0.0197499 2.70988e-21)
(-1.00191 0.0195855 2.69366e-21)
(-1.02547 0.0193857 0)
(-1.04888 0.0191512 -2.66008e-21)
(-1.07209 0.0188827 2.64263e-21)
(-1.09506 0.0185815 0)
(-1.11776 0.0182492 -2.60617e-21)
(-1.14014 0.0178874 0)
(-1.16217 0.0174982 0)
(-1.1838 0.0170836 2.5469e-21)
(-1.20501 0.0166457 0)
(-1.22577 0.0161866 -2.50388e-21)
(-1.24603 0.0157084 0)
(-1.26578 0.015213 2.45775e-21)
(-1.285 0.0147022 2.43345e-21)
(-1.30365 0.0141779 2.40831e-21)
(-1.32173 0.0136419 4.76459e-21)
(-1.3392 0.0130965 -4.71081e-21)
(-1.35607 0.012544 0)
(-1.3723 0.011987 0)
(-1.3879 0.0114287 0)
(-1.40286 0.0108724 -4.47778e-21)
(-1.41717 0.0103213 -4.41501e-21)
(-1.43083 0.00977892 4.35045e-21)
(-1.44386 0.00924841 0)
(-1.45625 0.00873269 -4.21597e-21)
(-1.46802 0.0082343 -4.14609e-21)
(-1.47918 0.00775532 -4.07449e-21)
(-1.48974 0.00729731 0)
(-1.49973 0.00686127 0)
(-1.50917 0.00644768 0)
(-1.51807 0.00605657 -3.77154e-21)
(-1.52646 0.00568764 0)
(-1.53437 0.00534041 0)
(-1.5418 0.0050143 3.52811e-21)
(-1.54879 0.00470869 0)
(-1.55535 0.004423 0)
(-1.56152 0.00415664 3.27203e-21)
(-1.56729 0.003909 0)
(-1.57271 0.00367935 0)
(-1.57779 0.00346678 -3.00437e-21)
(-1.58254 0.00327006 -2.91273e-21)
(-1.58699 0.00308767 0)
(-1.59114 0.00291769 2.72599e-21)
(-1.59502 0.00275765 0)
(-1.59863 0.00260416 -2.53472e-21)
(-1.60198 0.00245217 0)
(-1.60507 0.00229353 -2.33898e-21)
(-1.6079 0.00211649 -2.23942e-21)
(-1.61045 0.0019233 0)
(-1.61274 0.00176415 0)
(-1.61477 0.00166678 0)
(-1.6165 0.00162929 0)
(-1.61793 0.0015957 0)
(-1.61905 0.00153977 0)
(-1.61986 0.00146643 0)
(-1.62033 0.00137914 -1.40213e-21)
(-1.62046 0.00127962 1.29199e-21)
(-1.62022 0.00116863 0)
(-1.61959 0.00104622 0)
(-1.61856 0.000912016 0)
(-1.61709 0.000765337 0)
(-1.61517 0.000605286 1.44208e-21)
(-1.61275 0.000430763 0)
(-1.60982 0.000240443 -9.65108e-22)
(-1.60634 3.27728e-05 7.21997e-22)
(-1.60228 -0.000194078 0)
(-1.5976 -0.000442278 0)
(-1.59225 -0.00071444 0)
(-1.58619 -0.00101375 2.83177e-22)
(-1.57938 -0.00134397 5.43083e-22)
(-1.57176 -0.00170899 0)
(-1.56327 -0.00211167 1.07388e-21)
(-1.55386 -0.00255136 1.34496e-21)
(-1.54345 -0.00302351 -1.61996e-21)
(-1.53197 -0.00352784 0)
(-1.51934 -0.00406439 0)
(-1.5055 -0.00463257 -2.46947e-21)
(-1.49035 -0.00523185 0)
(-1.4738 -0.00586227 0)
(-1.45575 -0.00652474 0)
(-1.43612 -0.0072218 0)
(-1.41478 -0.00795752 3.97225e-21)
(-1.39164 -0.00873636 4.28633e-21)
(-1.36657 -0.00956239 0)
(-1.33946 -0.0104396 4.92789e-21)
(-1.31016 -0.0113707 0)
(-1.27857 -0.0123561 0)
(-1.24453 -0.0133958 5.92246e-21)
(-1.20794 -0.0144901 0)
(-1.16866 -0.0156414 6.60479e-21)
(-1.12655 -0.016854 0)
(-1.0815 -0.0181309 0)
(-1.03336 -0.0194733 7.65053e-21)
(-0.982017 -0.0208851 0)
(-0.92734 -0.0223762 8.35645e-21)
(-0.869191 -0.0239585 0)
(-0.807424 -0.0256419 0)
(-0.741897 -0.0274427 0)
(-0.672447 -0.0293974 -9.75946e-21)
(-0.598856 -0.0315627 0)
(-0.52086 -0.0340111 1.0431e-20)
(-0.438209 -0.0367301 0)
(-0.35077 -0.0388972 0)
(-0.262659 -0.0370603 0)
(-0.178691 -0.032571 0)
(-0.0947243 -0.0312309 0)
(-0.00711814 -0.0320456 0)
(0.0824691 -0.0315025 0)
(0.167261 -0.0321982 -2.53272e-20)
(0.257281 -0.0319796 0)
(0.319261 -0.024795 0)
(-0.000535192 0.00151383 7.00588e-21)
(-0.00117401 0.00196503 -6.83732e-21)
(-0.00231494 0.00260871 0)
(-0.00365033 0.00350084 4.49101e-21)
(-0.00536578 0.00463645 0)
(-0.00753926 0.00599944 2.21105e-21)
(-0.0102505 0.00756303 -4.38759e-21)
(-0.0135717 0.00929302 -4.35292e-21)
(-0.0175662 0.0111503 0)
(-0.0222872 0.0130925 -4.28349e-21)
(-0.027778 0.0150741 -2.12458e-21)
(-0.034072 0.0170485 0)
(-0.0411924 0.0189733 0)
(-0.0491506 0.0208231 0)
(-0.0579399 0.0226117 0)
(-0.0675195 0.0244226 -2.04074e-21)
(-0.0777052 0.0264486 0)
(-0.0882976 0.0288503 4.01746e-21)
(-0.099296 0.0312927 0)
(-0.110862 0.0333492 0)
(-0.123162 0.0347516 -3.91197e-21)
(-0.136281 0.0354583 0)
(-0.150143 0.0356433 3.81234e-21)
(-0.164524 0.0355767 -1.87548e-21)
(-0.179146 0.0354744 1.84426e-21)
(-0.193805 0.0354363 -1.81316e-21)
(-0.208411 0.0354716 -1.78326e-21)
(-0.222967 0.0355509 0)
(-0.237518 0.0356418 0)
(-0.252125 0.0357225 1.70582e-21)
(-0.266846 0.0357824 -1.68467e-21)
(-0.281726 0.0358193 0)
(-0.296795 0.0358379 0)
(-0.312078 0.0358479 1.63138e-21)
(-0.327595 0.0358608 0)
(-0.343361 0.0358884 0)
(-0.359391 0.0359415 -1.59008e-21)
(-0.375699 0.0360286 0)
(-0.392297 0.0361561 1.5615e-21)
(-0.4092 0.0363276 -3.11076e-21)
(-0.426421 0.0365441 0)
(-0.443973 0.0368044 0)
(-0.461872 0.0371055 -6.08566e-21)
(-0.48013 0.037443 -6.04622e-21)
(-0.49876 0.0378114 -6.00773e-21)
(-0.517774 0.0382047 2.97861e-21)
(-0.537183 0.0386167 -2.97321e-21)
(-0.556994 0.0390411 -8.85243e-21)
(-0.577215 0.0394715 5.86169e-21)
(-0.597848 0.039902 2.92047e-21)
(-0.618896 0.0403265 0)
(-0.640358 0.0407393 -2.88682e-21)
(-0.662228 0.0411348 2.85549e-21)
(-0.6845 0.0415074 0)
(-0.707164 0.0418518 0)
(-0.730205 0.0421628 0)
(-0.753607 0.0424354 -2.80683e-21)
(-0.77735 0.0426646 0)
(-0.801411 0.042846 5.53581e-21)
(-0.825763 0.0429753 0)
(-0.850377 0.0430486 5.47472e-21)
(-0.875221 0.0430624 0)
(-0.900259 0.0430136 -5.41404e-21)
(-0.925455 0.0428995 0)
(-0.950767 0.042718 5.35325e-21)
(-0.976155 0.0424675 -2.65279e-21)
(-1.00158 0.042147 0)
(-1.02698 0.0417561 -5.26051e-21)
(-1.05233 0.0412949 -2.62285e-21)
(-1.07757 0.0407644 -2.6067e-21)
(-1.10266 0.0401661 0)
(-1.12755 0.0395022 -2.55704e-21)
(-1.15219 0.0387755 -2.55614e-21)
(-1.17655 0.0379893 0)
(-1.20057 0.0371475 2.52026e-21)
(-1.22422 0.0362545 -4.98788e-21)
(-1.24746 0.0353149 0)
(-1.27025 0.0343334 -2.46235e-21)
(-1.29255 0.0333151 0)
(-1.31435 0.0322648 7.24829e-21)
(-1.3356 0.0311875 0)
(-1.35628 0.0300878 -7.11576e-21)
(-1.37638 0.0289703 -2.35282e-21)
(-1.39587 0.0278395 2.31705e-21)
(-1.41473 0.0266999 4.58544e-21)
(-1.43296 0.0255557 -4.53526e-21)
(-1.45053 0.0244114 0)
(-1.46745 0.0232712 0)
(-1.4837 0.0221393 0)
(-1.49927 0.0210202 1.29914e-20)
(-1.51418 0.0199179 4.27714e-21)
(-1.52841 0.0188366 -4.2164e-21)
(-1.54198 0.0177804 0)
(-1.55488 0.0167531 -4.07628e-21)
(-1.56713 0.0157583 4.02402e-21)
(-1.57874 0.0147989 3.95645e-21)
(-1.58971 0.0138776 0)
(-1.60008 0.012996 0)
(-1.60985 0.012155 0)
(-1.61904 0.0113547 3.66901e-21)
(-1.62768 0.0105948 0)
(-1.63578 0.00987467 -7.02258e-21)
(-1.64337 0.00919319 -1.03007e-20)
(-1.65047 0.00854932 6.70356e-21)
(-1.6571 0.00794183 0)
(-1.66328 0.00736946 3.18314e-21)
(-1.66903 0.00683078 0)
(-1.67436 0.00632411 6.03018e-21)
(-1.67931 0.00584744 -2.92487e-21)
(-1.68388 0.00539836 -2.83613e-21)
(-1.68809 0.00497408 0)
(-1.69196 0.00457151 -7.9736e-21)
(-1.69549 0.0041874 5.12915e-21)
(-1.69868 0.00381855 2.47282e-21)
(-1.70156 0.00346201 0)
(-1.70411 0.00311512 2.28164e-21)
(-1.70634 0.00277252 6.54987e-21)
(-1.7082 0.00242274 0)
(-1.70971 0.00202928 3.96985e-21)
(-1.71089 0.00161953 3.7685e-21)
(-1.71175 0.00123946 3.56501e-21)
(-1.71226 0.000870808 0)
(-1.71239 0.000495664 0)
(-1.7121 0.000111316 0)
(-1.71139 -0.000284213 -1.36345e-21)
(-1.71024 -0.000692535 -1.25727e-21)
(-1.70861 -0.00111514 0)
(-1.70649 -0.00155349 -2.07595e-21)
(-1.70385 -0.00200895 -1.85351e-21)
(-1.70066 -0.00248278 0)
(-1.69689 -0.00297618 -1.40007e-21)
(-1.69252 -0.00349033 -2.3415e-21)
(-1.68751 -0.00402648 9.35918e-22)
(-1.68183 -0.00458594 7.04862e-22)
(-1.67544 -0.00517018 0)
(-1.6683 -0.00578085 0)
(-1.66037 -0.00641996 0)
(-1.6516 -0.00708994 -2.73684e-22)
(-1.64196 -0.00779377 5.11528e-22)
(-1.63139 -0.0085345 1.54184e-21)
(-1.61984 -0.00931482 -1.0355e-21)
(-1.60724 -0.0101364 1.27641e-21)
(-1.59354 -0.0109993 1.55965e-21)
(-1.57867 -0.011906 0)
(-1.56256 -0.0128599 0)
(-1.54512 -0.013865 -2.34144e-21)
(-1.52629 -0.0149263 0)
(-1.50595 -0.0160489 0)
(-1.484 -0.0172364 6.39744e-21)
(-1.46033 -0.0184908 0)
(-1.43483 -0.0198133 3.75446e-21)
(-1.40739 -0.0212037 -4.10259e-21)
(-1.3779 -0.0226621 0)
(-1.34624 -0.0241897 4.64629e-21)
(-1.31231 -0.0257867 0)
(-1.276 -0.02745 0)
(-1.23719 -0.029175 -5.64673e-21)
(-1.19579 -0.0309569 1.18435e-20)
(-1.15169 -0.0327922 -6.28503e-21)
(-1.1048 -0.0346797 0)
(-1.05502 -0.0366148 0)
(-1.00226 -0.0385888 7.14384e-21)
(-0.946438 -0.0405934 0)
(-0.887476 -0.0426269 7.77943e-21)
(-0.825293 -0.0446867 0)
(-0.759813 -0.0467619 0)
(-0.690979 -0.04884 0)
(-0.618752 -0.0509203 9.19296e-21)
(-0.543122 -0.052995 0)
(-0.464166 -0.0550017 -9.81988e-21)
(-0.382253 -0.0566537 0)
(-0.298066 -0.0570502 0)
(-0.212931 -0.0556981 2.12301e-20)
(-0.126314 -0.0551139 -2.18164e-20)
(-0.0363059 -0.0567778 0)
(0.0551514 -0.0577871 0)
(0.148489 -0.0568568 0)
(0.238405 -0.0542927 7.18105e-20)
(0.335986 -0.0514388 0)
(0.412485 -0.0423805 -4.96961e-20)
(-0.000702154 0.00355988 5.39176e-25)
(-0.00154263 0.00438063 9.1128e-21)
(-0.00301911 0.00558708 0)
(-0.00468805 0.00723964 -8.9752e-21)
(-0.00676918 0.00932469 0)
(-0.00933315 0.011809 0)
(-0.0124555 0.0146444 -8.20036e-25)
(-0.0162053 0.0177728 4.3474e-21)
(-0.0206429 0.0211301 4.31351e-21)
(-0.0258195 0.024649 4.27785e-21)
(-0.0317758 0.0282613 0)
(-0.0385414 0.0319007 0)
(-0.0461357 0.035508 -4.1755e-21)
(-0.0545665 0.0390402 -8.28399e-21)
(-0.0638293 0.042481 8.21875e-21)
(-0.0739003 0.0458436 0)
(-0.0847084 0.0491478 8.09385e-21)
(-0.0961253 0.0523067 -4.01441e-21)
(-0.108057 0.055089 0)
(-0.120507 0.0572438 7.89766e-21)
(-0.133532 0.0586227 3.90661e-21)
(-0.147164 0.0592682 -7.71992e-21)
(-0.161365 0.059403 -3.80472e-21)
(-0.176019 0.0593168 0)
(-0.190978 0.0592357 7.36905e-21)
(-0.20611 0.0592745 7.24809e-21)
(-0.221321 0.0594585 0)
(-0.236564 0.0597645 7.02386e-21)
(-0.251831 0.0601531 0)
(-0.267137 0.0605866 6.83172e-21)
(-0.282517 0.0610371 3.37246e-21)
(-0.298006 0.0614874 0)
(-0.313647 0.0619296 0)
(-0.329476 0.0623628 0)
(-0.345528 0.0627918 0)
(-0.361833 0.0632251 0)
(-0.378416 0.0636733 0)
(-0.395301 0.0641467 6.32461e-21)
(-0.412506 0.0646546 -9.41467e-21)
(-0.430049 0.0652041 0)
(-0.447945 0.0657998 0)
(-0.466208 0.0664431 0)
(-0.48485 0.067133 -6.59178e-24)
(-0.503882 0.0678657 6.06436e-21)
(-0.523313 0.0686358 1.20589e-20)
(-0.543153 0.0694361 -1.19839e-20)
(-0.563406 0.0702583 -5.95879e-21)
(-0.584079 0.0710936 5.91541e-21)
(-0.605173 0.0719324 7.55566e-24)
(-0.626689 0.0727652 5.85262e-21)
(-0.648625 0.0735822 0)
(-0.670975 0.0743734 5.78461e-21)
(-0.693733 0.0751291 8.34454e-24)
(-0.716886 0.0758396 0)
(-0.74042 0.0764951 0)
(-0.76432 0.0770861 -5.65391e-21)
(-0.788563 0.0776036 0)
(-0.813126 0.0780386 0)
(-0.837982 0.0783828 5.56888e-21)
(-0.863101 0.0786284 1.10565e-20)
(-0.888451 0.0787682 -5.48741e-21)
(-0.913994 0.0787959 0)
(-0.939694 0.0787058 5.42534e-21)
(-0.96551 0.0784932 0)
(-0.991399 0.0781544 5.38395e-21)
(-1.01732 0.0776865 5.33177e-21)
(-1.04322 0.0770879 -1.06215e-20)
(-1.06906 0.0763581 -5.2895e-21)
(-1.09478 0.0754979 0)
(-1.12035 0.0745093 1.04275e-20)
(-1.14572 0.0733956 0)
(-1.17083 0.0721613 1.54281e-20)
(-1.19565 0.070812 1.02227e-20)
(-1.22012 0.0693545 1.01513e-20)
(-1.24422 0.0677966 -1.0078e-20)
(-1.26789 0.0661465 1.4994e-20)
(-1.29111 0.0644133 0)
(-1.31383 0.0626063 0)
(-1.33603 0.060735 -9.76356e-21)
(-1.35768 0.0588088 -1.45091e-20)
(-1.37876 0.0568369 0)
(-1.39924 0.054828 4.74203e-21)
(-1.41911 0.0527905 0)
(-1.43835 0.0507325 -1.39619e-20)
(-1.45694 0.0486617 1.60356e-23)
(-1.47488 0.0465854 -1.54337e-23)
(-1.49215 0.0445107 9.00864e-21)
(-1.50875 0.0424447 0)
(-1.52466 0.0403939 -8.7896e-21)
(-1.53989 0.0383651 1.29405e-23)
(-1.55442 0.0363648 0)
(-1.56825 0.0343996 0)
(-1.58139 0.0324763 0)
(-1.59383 0.0306013 8.17102e-21)
(-1.60559 0.0287812 0)
(-1.61666 0.0270218 0)
(-1.62706 0.0253278 0)
(-1.63681 0.0237028 0)
(-1.64592 0.022149 0)
(-1.65441 0.0206671 7.33124e-21)
(-1.6623 0.0192571 0)
(-1.6696 0.0179181 7.01294e-21)
(-1.67635 0.0166488 6.85263e-21)
(-1.68256 0.0154476 -6.68921e-21)
(-1.68824 0.0143129 0)
(-1.69343 0.0132427 -6.35346e-21)
(-1.69814 0.0122347 0)
(-1.70239 0.0112862 -6.00663e-21)
(-1.70619 0.0103936 5.82933e-21)
(-1.70957 0.00955267 1.69592e-20)
(-1.71254 0.00875803 0)
(-1.71512 0.00800378 1.58596e-20)
(-1.71731 0.00728356 5.10695e-21)
(-1.71911 0.00659086 0)
(-1.72054 0.00591875 9.44461e-21)
(-1.72159 0.0052617 9.05913e-21)
(-1.72228 0.00462427 -1.29987e-20)
(-1.72261 0.00400435 0)
(-1.72257 0.0033529 -3.93294e-21)
(-1.72211 0.00266919 -3.73182e-21)
(-1.72122 0.00196068 -1.06003e-20)
(-1.71992 0.00123388 0)
(-1.71817 0.000495181 0)
(-1.71597 -0.00025806 0)
(-1.71329 -0.00102917 -2.71117e-21)
(-1.71011 -0.00182133 0)
(-1.70641 -0.00263743 0)
(-1.70217 -0.00348021 2.04943e-21)
(-1.69735 -0.00435219 1.82915e-21)
(-1.69195 -0.00525557 0)
(-1.68592 -0.00619241 0)
(-1.67924 -0.00716471 2.30815e-21)
(-1.67188 -0.0081745 0)
(-1.66381 -0.00922393 -1.38358e-21)
(-1.655 -0.0103154 -9.3351e-22)
(-1.6454 -0.0114514 0)
(-1.63497 -0.0126353 0)
(-1.62368 -0.013871 -5.05549e-22)
(-1.61149 -0.0151634 -2.27744e-23)
(-1.59833 -0.0165175 -2.36273e-23)
(-1.58415 -0.017938 0)
(-1.5689 -0.0194291 -5.02968e-21)
(-1.55251 -0.0209961 0)
(-1.53491 -0.0226442 0)
(-1.51602 -0.0243791 0)
(-1.49576 -0.0262072 4.62755e-21)
(-1.47405 -0.0281363 0)
(-1.45079 -0.030174 -1.13735e-20)
(-1.42588 -0.0323249 -6.27569e-21)
(-1.39923 -0.0345903 0)
(-1.37074 -0.0369686 -7.41095e-21)
(-1.34032 -0.0394569 0)
(-1.30788 -0.0420521 0)
(-1.27331 -0.0447546 -2.74229e-20)
(-1.23653 -0.047564 1.94518e-20)
(-1.19743 -0.0504741 0)
(-1.15592 -0.0534761 2.18821e-20)
(-1.11191 -0.0565605 -1.15994e-20)
(-1.0653 -0.0597205 0)
(-1.01602 -0.0629544 0)
(-0.963982 -0.0662565 0)
(-0.909095 -0.0696152 -4.22536e-20)
(-0.851283 -0.07302 0)
(-0.790471 -0.0764727 -1.53867e-20)
(-0.72658 -0.079977 0)
(-0.659528 -0.0835253 0)
(-0.589252 -0.0871065 0)
(-0.515713 -0.090725 0)
(-0.438925 -0.0943718 0)
(-0.359 -0.0979572 0)
(-0.276265 -0.101147 -3.96598e-20)
(-0.191098 -0.102995 0)
(-0.103352 -0.102867 -2.11362e-20)
(-0.0123176 -0.102835 6.52629e-20)
(0.081339 -0.104331 0)
(0.17534 -0.105323 0)
(0.271145 -0.104298 -4.6647e-20)
(0.364452 -0.102027 -4.7549e-20)
(0.46527 -0.0984145 4.8492e-20)
(0.547314 -0.087528 4.91392e-20)
(-0.000990449 0.00616789 -1.40015e-20)
(-0.00214317 0.00739123 -1.36553e-20)
(-0.004121 0.00914769 -9.03426e-21)
(-0.00626806 0.0115064 -4.48247e-21)
(-0.00884543 0.0144452 0)
(-0.0119114 0.0179171 8.82114e-21)
(-0.0155343 0.021859 -4.37645e-21)
(-0.019779 0.0261971 0)
(-0.0247046 0.0308494 -4.30575e-21)
(-0.0303619 0.0357278 0)
(-0.0367903 0.0407403 8.47611e-21)
(-0.0440156 0.0457951 0)
(-0.0520492 0.0508071 4.16921e-21)
(-0.0608893 0.0557065 8.27201e-21)
(-0.0705213 0.060448 -8.20759e-21)
(-0.0809183 0.0650132 0)
(-0.0920372 0.0693978 -8.08473e-21)
(-0.103825 0.0735677 0)
(-0.116248 0.0774112 0)
(-0.129305 0.0807488 -7.88667e-21)
(-0.143 0.083387 0)
(-0.157295 0.0852148 -3.54993e-24)
(-0.172098 0.0862809 0)
(-0.187282 0.0867703 0)
(-0.202725 0.0869105 4.23916e-24)
(-0.218321 0.0868937 -7.234e-21)
(-0.233996 0.0868498 -7.12654e-21)
(-0.24971 0.0868526 -7.01843e-21)
(-0.26545 0.0869358 0)
(-0.281227 0.0871091 -1.36731e-20)
(-0.297066 0.0873698 0)
(-0.313003 0.0877103 -6.68483e-21)
(-0.329076 0.0881227 0)
(-0.345326 0.0886012 0)
(-0.361789 0.0891428 6.49882e-21)
(-0.378503 0.089747 0)
(-0.395497 0.0904144 -6.39536e-21)
(-0.412799 0.0911468 3.77762e-24)
(-0.430432 0.0919452 1.26011e-20)
(-0.448414 0.0928098 -1.25177e-20)
(-0.466762 0.0937391 0)
(-0.485488 0.0947298 0)