/*--------------------------------*- C++ -*----------------------------------*\
| =========                 |                                                 |
| \\      /  F ield         | OpenFOAM: The Open Source CFD Toolbox           |
|  \\    /   O peration     | Version:  2112                                  |
|   \\  /    A nd           | Website:  www.openfoam.com                      |
|    \\/     M anipulation  |                                                 |
\*---------------------------------------------------------------------------*/
FoamFile
{
    version     2.0;
    format      ascii;
    arch        "LSB;label=32;scalar=64";
    class       volScalarField;
    location    "0.1";
    object      p;
}
// * * * * * * * * * * * * * * * * * * * * * * * * * * * * * * * * * * * * * //

dimensions      [0 2 -2 0 0 0 0];

internalField   nonuniform List<scalar> 
122250
(
-1.73055
-2.44488
-2.81979
-2.94035
-2.95421
-2.91536
-2.83735
-2.71481
-2.5389
-2.30032
-1.99735
-1.61577
-1.15881
-0.599156
0.0568523
0.836868
1.70933
2.66678
-1.7642
-2.41103
-2.80001
-2.94017
-2.95983
-2.9223
-2.84719
-2.7279
-2.55525
-2.32045
-2.02151
-1.64731
-1.19755
-0.656736
-0.0170128
0.724242
1.54934
2.33496
-1.9847
-2.46527
-2.81152
-2.95545
-2.97483
-2.93362
-2.85713
-2.73919
-2.56928
-2.33903
-2.04674
-1.68476
-1.25083
-0.738742
-0.138826
0.535061
1.25671
1.92042
-2.14247
-2.49369
-2.79599
-2.9504
-2.97987
-2.9399
-2.86383
-2.74916
-2.58519
-2.36373
-2.08271
-1.73782
-1.32668
-0.85174
-0.308505
0.286794
0.904825
1.47763
-2.28995
-2.54828
-2.80481
-2.96075
-2.9989
-2.96012
-2.88348
-2.77162
-2.6142
-2.4031
-2.1358
-1.811
-1.43088
-0.993557
-0.510331
0.00758316
0.53329
1.02088
-2.42684
-2.61516
-2.82342
-2.97256
-3.01798
-2.98295
-2.90756
-2.79956
-2.65017
-2.4516
-2.20119
-1.89925
-1.54402
-1.1567
-0.733012
-0.291353
0.14933
0.550011
-2.55378
-2.68997
-2.85304
-2.98989
-3.04107
-3.01219
-2.94033
-2.83749
-2.69752
-2.51347
-2.28283
-2.00731
-1.69045
-1.34507
-0.978735
-0.609622
-0.249934
0.0645309
-2.67236
-2.77043
-2.89434
-3.01547
-3.07007
-3.04868
-2.98254
-2.88635
-2.75719
-2.58954
-2.38123
-2.1348
-1.85621
-1.55399
-1.24595
-0.941592
-0.660336
-0.42644
-2.78441
-2.85494
-2.94677
-3.0508
-3.10622
-3.09271
-3.03431
-2.94666
-2.83003
-2.68063
-2.4968
-2.28178
-2.04281
-1.78919
-1.53421
-1.29156
-1.07841
-0.915258
-2.89158
-2.94244
-3.00916
-3.09665
-3.15078
-3.14501
-3.09618
-3.01927
-2.91714
-2.78767
-2.63014
-2.44843
-2.2499
-2.04392
-1.84232
-1.65911
-1.50649
-1.40604
-2.99527
-3.03225
-3.08024
-3.15323
-3.2049
-3.20646
-3.16878
-3.10498
-3.01921
-2.91124
-2.7816
-2.63427
-2.47648
-2.31722
-2.16719
-2.03815
-1.94311
-1.89657
-3.08829
-3.11653
-3.15264
-3.21494
-3.26418
-3.27219
-3.2458
-3.19582
-3.12676
-3.03999
-2.93712
-2.8218
-2.70094
-2.58309
-2.47784
-2.39521
-2.34638
-2.34224
-3.1794
-3.20172
-3.22995
-3.28415
-3.33149
-3.34594
-3.33139
-3.29629
-3.24524
-3.18067
-3.1047
-3.02103
-2.9362
-2.85804
-2.79484
-2.75496
-2.74761
-2.78109
-3.28248
-3.30076
-3.32439
-3.37286
-3.41947
-3.44165
-3.44128
-3.42449
-3.39563
-3.35748
-3.31246
-3.2645
-3.21958
-3.18435
-3.1657
-3.17028
-3.20517
-3.27625
-3.39836
-3.41502
-3.43829
-3.48455
-3.53279
-3.56475
-3.58124
-3.58649
-3.58395
-3.57636
-3.56644
-3.55802
-3.55623
-3.56642
-3.59383
-3.64329
-3.71986
-3.82725
-3.52726
-3.54539
-3.57351
-3.62215
-3.67544
-3.72028
-3.75687
-3.78791
-3.81585
-3.84292
-3.87156
-3.90521
-3.94815
-4.00442
-4.07764
-4.17103
-4.28783
-4.43028
-3.66894
-3.69115
-3.72992
-3.78662
-3.84969
-3.91148
-3.97183
-4.03214
-4.09387
-4.15857
-4.22827
-4.30577
-4.39414
-4.49597
-4.61344
-4.74837
-4.90264
-5.07719
-3.81781
-3.84741
-3.9035
-3.97491
-4.05324
-4.13693
-4.22527
-4.31827
-4.41633
-4.52018
-4.63135
-4.75187
-4.88363
-5.02801
-5.1862
-5.35927
-5.54808
-5.75294
-3.9591
-4.00054
-4.08258
-4.17541
-4.27526
-4.38655
-4.50716
-4.63523
-4.77037
-4.91313
-5.06495
-5.22695
-5.39945
-5.58249
-5.77664
-5.98248
-6.20015
-6.42926
-4.0347
-4.09109
-4.20158
-4.31998
-4.44348
-4.58127
-4.72989
-4.88615
-5.04966
-5.22127
-5.40229
-5.59303
-5.79278
-6.00101
-6.21801
-6.44411
-6.67907
-6.92188
-4.05157
-4.12331
-4.26061
-4.40368
-4.54907
-4.7085
-4.87751
-5.05294
-5.23522
-5.42588
-5.62602
-5.83513
-6.05173
-6.27502
-6.5053
-6.74283
-6.98731
-7.23761
-4.02638
-4.11594
-4.28268
-4.45277
-4.62081
-4.79937
-4.98423
-5.17387
-5.37049
-5.57576
-5.78997
-6.01194
-6.24001
-6.47334
-6.71234
-6.95746
-7.20819
-7.46332
-3.96684
-4.07791
-4.27969
-4.48041
-4.66999
-4.86355
-5.06044
-5.26169
-5.47008
-5.68626
-5.90997
-6.14049
-6.37661
-6.61709
-6.86215
-7.11257
-7.36759
-7.62526
-3.87482
-4.01701
-4.2623
-4.4968
-4.70493
-4.90821
-5.11323
-5.3241
-5.54259
-5.76796
-5.99945
-6.23618
-6.4778
-6.72316
-6.97257
-7.22671
-7.48481
-7.7456
-3.75508
-3.94142
-4.24059
-4.50978
-4.73123
-4.93917
-5.14931
-5.36734
-5.59281
-5.82398
-6.06052
-6.30265
-6.54817
-6.79741
-7.05055
-7.30797
-7.56853
-7.83016
-3.60731
-3.85889
-4.22211
-4.52228
-4.75158
-4.96233
-5.17856
-5.40481
-5.63769
-5.87417
-6.11419
-6.35735
-6.60383
-6.85456
-7.11051
-7.37053
-7.63308
-7.89594
-3.43302
-3.77935
-4.20999
-4.52913
-4.7563
-4.96791
-5.19115
-5.42513
-5.66304
-5.90198
-6.14329
-6.38822
-6.63723
-6.89124
-7.15056
-7.41401
-7.67957
-7.94525
-3.24138
-3.72966
-4.23194
-4.55529
-4.77239
-4.98324
-5.2118
-5.45093
-5.69169
-5.93141
-6.17244
-6.41701
-6.66616
-6.92053
-7.1797
-7.44346
-7.71014
-7.97759
-2.96213
-3.65567
-4.22507
-4.54967
-4.76607
-4.98356
-5.21923
-5.46293
-5.70693
-5.94983
-6.19329
-6.4395
-6.68979
-6.94604
-7.20708
-7.47491
-7.74612
-8.02865
-2.86929
-3.67936
-4.25148
-4.55705
-4.76653
-4.98424
-5.22141
-5.4654
-5.70869
-5.95023
-6.19218
-6.43657
-6.68611
-6.94136
-7.20349
-7.46879
-7.73742
-8.00029
-1.7767
-2.43162
-2.79706
-2.9404
-2.98634
-2.98489
-2.95354
-2.8884
-2.78113
-2.6231
-2.41099
-2.13359
-1.79042
-1.36789
-0.886817
-0.294775
0.357783
1.1764
-1.80806
-2.40526
-2.78333
-2.94387
-2.99428
-2.99444
-2.96544
-2.90263
-2.79774
-2.64278
-2.43408
-2.16391
-1.82875
-1.42124
-0.947207
-0.394669
0.225547
0.82029
-2.00946
-2.45667
-2.79498
-2.96004
-3.01076
-3.00674
-2.97569
-2.91353
-2.81055
-2.65906
-2.4561
-2.1965
-1.87668
-1.49068
-1.04409
-0.544559
-0.0141591
0.472883
-2.15263
-2.48213
-2.77878
-2.95374
-3.01466
-3.01164
-2.9806
-2.92121
-2.82348
-2.67968
-2.48687
-2.24199
-1.94271
-1.58557
-1.17839
-0.739488
-0.287537
0.135928
-2.28705
-2.53385
-2.78818
-2.96434
-3.0342
-3.03249
-3.00044
-2.94297
-2.85073
-2.71545
-2.5339
-2.30589
-2.02754
-1.70641
-1.34238
-0.957827
-0.57015
-0.201484
-2.41234
-2.59658
-2.80606
-2.97477
-3.05154
-3.05367
-3.02248
-2.96794
-2.88244
-2.75761
-2.59047
-2.3818
-2.13619
-1.8453
-1.52616
-1.19157
-0.861916
-0.549674
-2.5289
-2.66647
-2.8342
-2.99048
-3.07257
-3.08089
-3.05306
-3.00288
-2.92535
-2.81263
-2.66197
-2.47518
-2.25589
-2.00544
-1.73291
-1.44782
-1.17366
-0.918391
-2.63819
-2.74153
-2.87335
-3.01413
-3.09908
-3.11474
-3.09235
-3.04801
-2.97958
-2.88043
-2.74837
-2.58569
-2.39675
-2.18752
-1.96032
-1.72929
-1.50734
-1.30813
-2.74185
-2.82038
-2.92293
-3.0471
-3.13227
-3.15536
-3.14024
-3.10355
-3.04563
-2.96172
-2.85031
-2.7137
-2.55677
-2.38572
-2.20679
-2.02875
-1.86269
-1.72063
-2.84133
-2.90204
-2.98179
-3.09005
-3.17335
-3.2035
-3.19727
-3.17027
-3.12451
-3.05759
-2.96866
-2.85978
-2.73596
-2.60436
-2.47136
-2.34371
-2.23314
-2.14639
-2.93791
-2.98596
-3.04881
-3.14319
-3.22349
-3.26017
-3.26407
-3.2487
-3.21721
-3.169
-3.10356
-3.02309
-2.93364
-2.84167
-2.75338
-2.67528
-2.61542
-2.5818
-3.02476
-3.06486
-3.11709
-3.20126
-3.27866
-3.32092
-3.33483
-3.33177
-3.3151
-3.28537
-3.24236
-3.18904
-3.13127
-3.07522
-3.02658
-2.99125
-2.97615
-2.98849
-3.10998
-3.14467
-3.18991
-3.26635
-3.34139
-3.38907
-3.41356
-3.42365
-3.42275
-3.41205
-3.39221
-3.36642
-3.34004
-3.319
-3.30849
-3.31367
-3.34048
-3.39488
-3.20655
-3.23762
-3.27889
-3.34975
-3.42347
-3.47763
-3.51474
-3.54104
-3.55939
-3.57163
-3.5791
-3.58476
-3.59366
-3.61105
-3.64182
-3.69018
-3.76095
-3.8587
-3.31544
-3.34509
-3.38633
-3.4549
-3.52943
-3.59193
-3.64386
-3.68953
-3.73115
-3.77051
-3.80914
-3.85001
-3.8977
-3.95668
-4.03082
-4.12357
-4.23859
-4.37901
-3.43721
-3.46804
-3.51412
-3.58462
-3.66309
-3.73669
-3.80631
-3.87488
-3.94392
-4.01426
-4.08743
-4.16625
-4.25469
-4.35638
-4.47422
-4.61057
-4.76821
-4.94918
-3.57009
-3.60551
-3.66211
-3.73988
-3.82668
-3.91521
-4.00594
-4.10054
-4.20001
-4.30449
-4.41507
-4.53401
-4.66432
-4.8085
-4.96839
-5.14538
-5.34101
-5.55625
-3.70894
-3.75283
-3.82644
-3.91779
-4.01811
-4.12621
-4.24205
-4.36593
-4.49805
-4.63817
-4.78665
-4.94499
-5.11513
-5.29857
-5.49644
-5.70954
-5.93858
-6.18381
-3.83968
-3.8973
-3.99674
-4.1077
-4.22754
-4.36077
-4.50581
-4.66114
-4.82634
-5.00147
-5.18695
-5.38319
-5.59035
-5.8086
-6.03847
-6.28049
-6.53466
-6.80039
-3.9081
-3.98144
-4.10913
-4.24475
-4.38683
-4.54477
-4.71555
-4.89638
-5.08687
-5.28757
-5.49922
-5.72138
-5.95289
-6.19314
-6.44248
-6.70116
-6.96881
-7.24427
-3.92004
-4.00945
-4.16405
-4.32375
-4.48673
-4.66504
-4.85462
-5.05276
-5.26002
-5.47762
-5.70619
-5.94466
-6.19098
-6.44397
-6.70393
-6.97124
-7.2455
-7.52549
-3.89111
-3.99938
-4.1835
-4.36964
-4.55457
-4.75098
-4.95508
-5.16593
-5.38596
-5.61647
-5.85732
-6.10696
-6.36323
-6.6248
-6.89178
-7.16442
-7.44262
-7.72545
-3.82783
-3.95993
-4.17893
-4.39505
-4.60081
-4.81161
-5.02697
-5.24831
-5.47871
-5.71853
-5.96742
-6.22422
-6.48727
-6.75484
-7.02691
-7.30319
-7.58348
-7.86647
-3.73851
-3.89917
-4.16073
-4.40976
-4.63347
-4.85349
-5.07648
-5.30696
-5.54658
-5.79455
-6.05026
-6.31239
-6.57994
-6.85107
-7.12579
-7.4046
-7.6869
-7.97127
-3.62146
-3.82464
-4.13859
-4.42137
-4.65807
-4.88233
-5.10951
-5.34579
-5.59118
-5.84421
-6.10432
-6.37163
-6.6425
-6.91658
-7.19407
-7.47553
-7.75969
-8.04458
-3.4765
-3.74365
-4.11964
-4.43277
-4.67752
-4.90448
-5.13733
-5.38162
-5.63447
-5.89277
-6.15582
-6.42254
-6.69317
-6.9681
-7.24782
-7.53125
-7.81637
-8.10144
-3.30673
-3.66552
-4.10648
-4.43796
-4.68047
-4.90772
-5.14689
-5.39825
-5.6556
-5.91601
-6.18023
-6.44873
-6.72169
-7.00013
-7.28308
-7.56955
-7.85684
-8.14339
-3.12207
-3.61616
-4.1263
-4.4625
-4.69531
-4.92182
-5.16649
-5.42325
-5.68321
-5.94387
-6.20721
-6.47489
-6.74743
-7.02509
-7.3071
-7.59351
-7.88127
-8.16844
-2.85738
-3.54842
-4.12055
-4.45623
-4.68741
-4.9201
-5.17187
-5.43345
-5.6975
-5.96176
-6.22738
-6.4965
-6.76997
-7.04942
-7.33329
-7.62367
-7.91527
-8.21591
-2.74844
-3.55955
-4.13897
-4.45805
-4.68405
-4.91741
-5.1704
-5.43264
-5.69656
-5.95976
-6.22387
-6.49116
-6.76406
-7.04278
-7.32762
-7.61552
-7.90462
-8.18621
-1.6321
-2.2374
-2.57889
-2.71661
-2.76224
-2.76439
-2.74328
-2.69785
-2.62059
-2.50548
-2.35002
-2.1488
-1.90452
-1.61416
-1.28542
-0.89147
-0.45736
0.0700551
-1.65171
-2.20916
-2.5645
-2.71933
-2.76956
-2.77286
-2.7537
-2.71049
-2.6353
-2.52275
-2.37015
-2.1742
-1.9359
-1.65582
-1.33345
-0.965919
-0.559696
-0.187198
-1.84553
-2.26045
-2.57637
-2.73525
-2.78575
-2.78489
-2.76325
-2.72034
-2.6467
-2.53678
-2.38875
-2.2005
-1.97348
-1.70856
-1.40722
-1.07627
-0.734163
-0.438759
-1.98114
-2.28411
-2.55989
-2.72843
-2.78925
-2.78945
-2.76743
-2.72672
-2.65749
-2.554
-2.41413
-2.23786
-2.02624
-1.78224
-1.51075
-1.22335
-0.938968
-0.689473
-2.10821
-2.33365
-2.56891
-2.73848
-2.80828
-2.80983
-2.78637
-2.74682
-2.68202
-2.58573
-2.45593
-2.29267
-2.09869
-1.87914
-1.64018
-1.39406
-1.15651
-0.947125
-2.22652
-2.39364
-2.58606
-2.7482
-2.8249
-2.83031
-2.80733
-2.76977
-2.71048
-2.62309
-2.50515
-2.35801
-2.18568
-1.9919
-1.78649
-1.57968
-1.38464
-1.21599
-2.33641
-2.46028
-2.61308
-2.76303
-2.84502
-2.85666
-2.83667
-2.80238
-2.74961
-2.67262
-2.56888
-2.43985
-2.29022
-2.12529
-1.95401
-1.78559
-1.63159
-1.50327
-2.43931
-2.53169
-2.6507
-2.78558
-2.87044
-2.88941
-2.87455
-2.84481
-2.79949
-2.73421
-2.64639
-2.53754
-2.41265
-2.27825
-2.14119
-2.01106
-1.89739
-1.80911
-2.5368
-2.60655
-2.69831
-2.81718
-2.90231
-2.9287
-2.92078
-2.89728
-2.86079
-2.80864
-2.73845
-2.65165
-2.55328
-2.44979
-2.34815
-2.25631
-2.18251
-2.13394
-2.63032
-2.684
-2.75477
-2.85847
-2.94185
-2.97526
-2.97585
-2.96059
-2.93463
-2.89705
-2.84601
-2.78282
-2.7126
-2.64098
-2.57487
-2.52095
-2.48681
-2.47762
-2.72108
-2.76352
-2.819
-2.90962
-2.99019
-3.03004
-3.0404
-3.03548
-3.02188
-3.00032
-2.96983
-2.93186
-2.89036
-2.85116
-2.82053
-2.8044
-2.80886
-2.83894
-2.80268
-2.83824
-2.88437
-2.96556
-3.04347
-3.08878
-3.10886
-3.11508
-3.11468
-3.10918
-3.0986
-3.08422
-3.06978
-3.06045
-3.06194
-3.07957
-3.11861
-3.1837
-2.88278
-2.91385
-2.95409
-3.02826
-3.10409
-3.15482
-3.185
-3.20372
-3.21758
-3.22898
-3.23866
-3.24808
-3.26073
-3.28101
-3.31396
-3.36423
-3.4365
-3.53492
-2.97368
-3.00191
-3.03924
-3.10862
-3.18347
-3.24068
-3.28291
-3.3172
-3.34896
-3.38085
-3.4143
-3.4511
-3.49436
-3.54795
-3.61575
-3.70181
-3.81014
-3.94428
-3.07624
-3.10375
-3.14206
-3.20992
-3.28599
-3.35154
-3.40818
-3.46102
-3.51432
-3.57059
-3.63164
-3.6995
-3.77697
-3.86703
-3.9727
-4.09686
-4.24286
-4.41342
-3.19081
-3.22024
-3.26437
-3.33492
-3.41537
-3.49213
-3.56619
-3.641
-3.7195
-3.80399
-3.89602
-3.99769
-4.11154
-4.23985
-4.38467
-4.54797
-4.73198
-4.93885
-3.31583
-3.35042
-3.40597
-3.48454
-3.5738
-3.66568
-3.76065
-3.86071
-3.96765
-4.08338
-4.20932
-4.34727
-4.49907
-4.6661
-4.84949
-5.05029
-5.26982
-5.50865
-3.44582
-3.48944
-3.56298
-3.65591
-3.75919
-3.87094
-3.99104
-4.12002
-4.25847
-4.40718
-4.56763
-4.74137
-4.92959
-5.13284
-5.35161
-5.58628
-5.83729
-6.10469
-3.5667
-3.62471
-3.72527
-3.83859
-3.96196
-4.09922
-4.24864
-4.40892
-4.58002
-4.76242
-4.95746
-5.16606
-5.38827
-5.62364
-5.87211
-6.13372
-6.40823
-6.69489
-3.62611
-3.70085
-3.83072
-3.96941
-4.11549
-4.27789
-4.45342
-4.63945
-4.83588
-5.0434
-5.26298
-5.49516
-5.73946
-5.99499
-6.26132
-6.53812
-6.82478
-7.11997
-3.63119
-3.72274
-3.88031
-4.04367
-4.2111
-4.39419
-4.58872
-4.79224
-5.00565
-5.2301
-5.46613
-5.71335
-5.97085
-6.23772
-6.51344
-6.79769
-7.08985
-7.3885
-3.59631
-3.70735
-3.89516
-4.08542
-4.27524
-4.47675
-4.68608
-4.9026
-5.12898
-5.36632
-5.61439
-5.87212
-6.1383
-6.41235
-6.69402
-6.98306
-7.27862
-7.57943
-3.5277
-3.66308
-3.88643
-4.10717
-4.31828
-4.53466
-4.75557
-4.9828
-5.21958
-5.46601
-5.72198
-5.98683
-6.25905
-6.53802
-6.82356
-7.11577
-7.41325
-7.71392
-3.42947
-3.59763
-3.86446
-4.11866
-4.3482
-4.57426
-4.80322
-5.03991
-5.28589
-5.54029
-5.80311
-6.0733
-6.34969
-6.63155
-6.91941
-7.21338
-7.51197
-7.81334
-3.31171
-3.51912
-3.83899
-4.12752
-4.37063
-4.60137
-4.83473
-5.07709
-5.32883
-5.58877
-5.85612
-6.13136
-6.41085
-6.69523
-6.98547
-7.28149
-7.58143
-7.88301
-3.1614
-3.43438
-3.81724
-4.13669
-4.38844
-4.62233
-4.86157
-5.11207
-5.37138
-5.63661
-5.90677
-6.1809
-6.46006
-6.74511
-7.03705
-7.33441
-7.63517
-7.93699
-2.98569
-3.35272
-3.80192
-4.14027
-4.39026
-4.62469
-4.87029
-5.12794
-5.39179
-5.65902
-5.93041
-6.20651
-6.48813
-6.77599
-7.07071
-7.37036
-7.67321
-7.97666
-2.79551
-3.30015
-3.8201
-4.16375
-4.40444
-4.6382
-4.88932
-5.15244
-5.41921
-5.68682
-5.95734
-6.23266
-6.51359
-6.8002
-7.09392
-7.39337
-7.69694
-8.00128
-2.52297
-3.23139
-3.81398
-4.15691
-4.39618
-4.63629
-4.89462
-5.1626
-5.43297
-5.70393
-5.97672
-6.25338
-6.53506
-6.82316
-7.11837
-7.42131
-7.72823
-8.0458
-2.40448
-3.24093
-3.83318
-4.15936
-4.39333
-4.63453
-4.89461
-5.1634
-5.43379
-5.7038
-5.97515
-6.25004
-6.53094
-6.81797
-7.11433
-7.41493
-7.71949
-8.01819
-1.32985
-1.872
-2.1675
-2.27165
-2.28458
-2.25147
-2.19004
-2.09621
-1.96126
-1.77649
-1.5381
-1.23497
-0.869609
-0.427396
0.0807855
0.708221
1.40533
2.26793
-1.33803
-1.84254
-2.15325
-2.27437
-2.29202
-2.26031
-2.20118
-2.10992
-1.97749
-1.79602
-1.5613
-1.26566
-0.908226
-0.481005
0.0179602
0.604454
1.26306
1.89397
-1.52492
-1.89369
-2.16524
-2.2901
-2.30832
-2.27273
-2.21158
-2.12112
-1.99105
-1.8134
-1.58495
-1.30001
-0.95768
-0.552515
-0.0842583
0.443555
1.00261
1.49942
-1.65359
-1.91553
-2.14845
-2.28304
-2.31188
-2.27772
-2.2167
-2.12917
-2.00449
-1.83481
-1.61673
-1.34704
-1.02489
-0.649429
-0.224681
0.235793
0.703224
1.11374
-1.77407
-1.96297
-2.15708
-2.29277
-2.33086
-2.29851
-2.23666
-2.15113
-2.03209
-1.87133
-1.66538
-1.41282
-1.11415
-0.772291
-0.394213
0.00426792
0.396866
0.743158
-1.88629
-2.02044
-2.17351
-2.30209
-2.34742
-2.31946
-2.25877
-2.17627
-2.06418
-1.91429
-1.72306
-1.49036
-1.21875
-0.912635
-0.581397
-0.239942
0.0897887
0.380376
-1.9905
-2.0842
-2.19957
-2.31644
-2.36746
-2.34629
-2.28935
-2.21133
-2.10743
-1.97013
-1.79598
-1.58573
-1.34332
-1.07461
-0.789403
-0.501029
-0.227456
0.012023
-2.08802
-2.15249
-2.23595
-2.33842
-2.39278
-2.37957
-2.32858
-2.25654
-2.162
-2.03876
-1.88369
-1.69805
-1.48669
-1.2563
-1.01611
-0.778069
-0.556523
-0.365525
-2.18036
-2.22407
-2.28207
-2.36936
-2.42455
-2.41947
-2.37633
-2.31214
-2.22849
-2.12092
-1.9868
-1.82768
-1.64884
-1.45709
-1.26124
-1.0714
-0.899097
-0.754801
-2.26888
-2.29814
-2.33682
-2.40988
-2.46401
-2.46672
-2.43313
-2.37894
-2.30796
-2.21764
-2.10617
-1.97514
-1.82983
-1.67708
-1.52474
-1.38133
-1.25624
-1.15749
-2.35476
-2.37417
-2.39915
-2.46018
-2.5123
-2.52232
-2.49963
-2.45762
-2.40125
-2.32975
-2.24225
-2.14052
-2.02948
-1.91561
-1.80594
-1.70758
-1.62805
-1.57401
-2.43196
-2.44559
-2.46262
-2.51525
-2.56555
-2.58195
-2.57012
-2.54098
-2.4997
-2.44692
-2.38252
-2.30836
-2.22905
-2.15051
-2.07899
-2.02057
-1.9815
-1.96754
-2.50773
-2.51786
-2.53035
-2.57705
-2.62616
-2.64896
-2.64852
-2.63333
-2.60827
-2.57503
-2.53423
-2.48783
-2.44006
-2.3962
-2.36169
-2.34173
-2.34159
-2.36618
-2.59367
-2.60208
-2.61313
-2.6563
-2.70557
-2.73609
-2.7493
-2.75138
-2.74645
-2.73678
-2.7236
-2.70902
-2.69682
-2.69157
-2.69784
-2.71995
-2.76228
-2.82884
-2.69059
-2.69956
-2.71316
-2.75628
-2.80817
-2.84859
-2.87805
-2.90086
-2.92023
-2.93844
-2.9571
-2.97842
-3.00575
-3.04278
-3.09306
-3.16
-3.24716
-3.35766
-2.79856
-2.81095
-2.83215
-2.87969
-2.9377
-2.99118
-3.04017
-3.08751
-3.13549
-3.18589
-3.24018
-3.30056
-3.37002
-3.45152
-3.54765
-3.66082
-3.79369
-3.94861
-2.91605
-2.93524
-2.96987
-3.02742
-3.09629
-3.1671
-3.23943
-3.31485
-3.39498
-3.48111
-3.57447
-3.6768
-3.79038
-3.91723
-4.05908
-4.21741
-4.39392
-4.58982
-3.03775
-3.06751
-3.12236
-3.19649
-3.28175
-3.375
-3.47524
-3.58267
-3.69798
-3.82186
-3.95526
-4.09954
-4.25619
-4.42642
-4.61123
-4.81144
-5.02791
-5.26116
-3.14876
-3.19468
-3.27891
-3.37613
-3.48424
-3.60592
-3.73858
-3.88073
-4.03267
-4.19504
-4.36864
-4.55404
-4.7515
-4.96113
-5.18327
-5.41823
-5.66608
-5.92647
-3.19844
-3.26289
-3.3786
-3.50341
-3.63667
-3.78601
-3.94744
-4.11823
-4.2987
-4.48969
-4.69196
-4.90571
-5.13053
-5.36586
-5.61159
-5.86759
-6.13355
-6.40857
-3.19555
-3.27806
-3.4232
-3.57441
-3.73096
-3.90268
-4.085
-4.27544
-4.47524
-4.68552
-4.90669
-5.13843
-5.37986
-5.63008
-5.88882
-6.15597
-6.43123
-6.71355
-3.15326
-3.25631
-3.43325
-3.61293
-3.79311
-3.98496
-4.18375
-4.38893
-4.60351
-4.82827
-5.06308
-5.30736
-5.5601
-5.82028
-6.08762
-6.36209
-6.64325
-6.93007
-3.0773
-3.20588
-3.42003
-3.63177
-3.83479
-4.0429
-4.25439
-4.47149
-4.69773
-4.93257
-5.17638
-5.42924
-5.68991
-5.95685
-6.22997
-6.50941
-6.79447
-7.08356
-2.97168
-3.13437
-3.39403
-3.6408
-3.8635
-4.0823
-4.30296
-4.53063
-4.76656
-5.01016
-5.2616
-5.52065
-5.78649
-6.05748
-6.33422
-6.61689
-6.90449
-7.19576
-2.84153
-3.05007
-3.36524
-3.64773
-3.88495
-4.10927
-4.33499
-4.56861
-4.81083
-5.06104
-5.3186
-5.58215
-5.85184
-6.12599
-6.40611
-6.69191
-6.98171
-7.27341
-2.68763
-2.96085
-3.34106
-3.65551
-3.90209
-4.1302
-4.36241
-4.60471
-4.85508
-5.1109
-5.37068
-5.63534
-5.90369
-6.17936
-6.46173
-6.74956
-7.04086
-7.33351
-2.50416
-2.87528
-3.32415
-3.65815
-3.90347
-4.13259
-4.37152
-4.62125
-4.87632
-5.13413
-5.3956
-5.662
-5.93396
-6.21318
-6.49847
-6.78889
-7.08301
-7.37854
-2.30679
-2.8196
-3.34137
-3.68104
-3.91737
-4.14613
-4.39084
-4.64635
-4.90459
-5.16293
-5.42366
-5.68893
-5.96009
-6.23781
-6.52206
-6.81228
-7.10664
-7.4022
-2.0244
-2.74974
-3.33523
-3.6739
-3.909
-4.14433
-4.39647
-4.65703
-4.91897
-5.18069
-5.44365
-5.71025
-5.98224
-6.26185
-6.54811
-6.84227
-7.14055
-7.45024
-1.89621
-2.75682
-3.35434
-3.67621
-3.90605
-4.14258
-4.39669
-4.65829
-4.92032
-5.18102
-5.44238
-5.70702
-5.97825
-6.2569
-6.54421
-6.83597
-7.1318
-7.4225
-0.942306
-1.41217
-1.65015
-1.7084
-1.67487
-1.5904
-1.47101
-1.31084
-1.0998
-0.827095
-0.487155
-0.0636108
0.443573
1.05553
1.75584
2.59074
3.48272
4.49779
-0.939057
-1.38166
-1.63617
-1.71122
-1.68258
-1.59993
-1.4832
-1.32598
-1.11798
-0.849356
-0.51444
-0.1009
0.3947
0.987946
1.67385
2.46346
3.30976
4.08745
-1.11904
-1.43274
-1.64834
-1.72687
-1.69917
-1.61306
-1.49477
-1.33898
-1.13418
-0.870859
-0.544285
-0.145518
0.330014
0.892805
1.53689
2.24888
2.97818
3.5934
-1.24076
-1.45286
-1.63139
-1.71971
-1.70301
-1.61884
-1.5013
-1.34926
-1.15099
-0.897313
-0.583721
-0.204472
0.244221
0.76658
1.35291
1.97846
2.59811
3.10725
-1.35465
-1.49832
-1.63975
-1.72928
-1.72219
-1.64045
-1.52284
-1.37381
-1.18245
-0.939587
-0.640981
-0.283638
0.134159
0.61194
1.13762
1.68435
2.20809
2.64908
-1.46078
-1.55333
-1.65562
-1.73839
-1.73899
-1.66239
-1.54687
-1.40204
-1.21911
-0.989217
-0.70845
-0.375639
0.00775778
0.43852
0.904138
1.37949
1.82823
2.20714
-1.55931
-1.61428
-1.68085
-1.75246
-1.75928
-1.69032
-1.57962
-1.44062
-1.26753
-1.05253
-0.792164
-0.486775
-0.139917
0.242933
0.650374
1.06051
1.44419
1.77162
-1.65148
-1.67951
-1.71614
-1.7741
-1.78488
-1.72483
-1.62131
-1.48982
-1.32795
-1.12953
-0.891733
-0.615909
-0.307171
0.027884
0.379095
0.728464
1.05304
1.33073
-1.73871
-1.74785
-1.7609
-1.80459
-1.81698
-1.7661
-1.67184
-1.5499
-1.40096
-1.22092
-1.00768
-0.763241
-0.49352
-0.2055
0.091147
0.383091
0.652331
0.881943
-1.8223
-1.81854
-1.81407
-1.84459
-1.85682
-1.81491
-1.73173
-1.62165
-1.48762
-1.32772
-1.14076
-0.929071
-0.698553
-0.456995
-0.212902
0.0241702
0.240546
0.423036
-1.90339
-1.89113
-1.87462
-1.89429
-1.90555
-1.87224
-1.80163
-1.70573
-1.58877
-1.4507
-1.29137
-1.11334
-0.922426
-0.726019
-0.531881
-0.347686
-0.182672
-0.0470965
-1.97625
-1.95936
-1.93634
-1.94876
-1.95926
-1.93363
-1.87551
-1.79446
-1.69505
-1.57853
-1.44558
-1.29894
-1.14415
-0.987959
-0.837487
-0.699474
-0.580234
-0.48764
-2.0477
-2.02839
-2.00222
-2.0099
-2.02037
-2.00252
-1.95747
-1.89244
-1.8118
-1.7177
-1.61156
-1.4963
-1.37707
-1.25997
-1.15114
-1.0564
-0.981453
-0.930974
-2.12868
-2.10888
-2.08281
-2.08836
-2.10041
-2.09194
-2.06257
-2.01726
-1.95973
-1.89255
-1.8177
-1.73825
-1.65889
-1.58495
-1.52156
-1.47351
-1.44553
-1.44185
-2.21986
-2.20211
-2.18027
-2.1874
-2.20379
-2.20722
-2.19649
-2.17479
-2.14497
-2.10953
-2.07073
-2.03162
-1.99643
-1.96955
-1.955
-1.95653
-1.97792
-2.02248
-2.32123
-2.30849
-2.29622
-2.30971
-2.33426
-2.35312
-2.36475
-2.37094
-2.37362
-2.37476
-2.37636
-2.38128
-2.39332
-2.41611
-2.45268
-2.5057
-2.57795
-2.67194
-2.4314
-2.42693
-2.4304
-2.45614
-2.49393
-2.53284
-2.57101
-2.60912
-2.64843
-2.69042
-2.73656
-2.78904
-2.85082
-2.92467
-3.01279
-3.11694
-3.23899
-3.38047
-2.5441
-2.55259
-2.57871
-2.62352
-2.68046
-2.74494
-2.81459
-2.88884
-2.96822
-3.05356
-3.14588
-3.24673
-3.35814
-3.48201
-3.61988
-3.77286
-3.94199
-4.12801
-2.64454
-2.67154
-2.72988
-2.80086
-2.88386
-2.9802
-3.08602
-3.19934
-3.32054
-3.45037
-3.58948
-3.73845
-3.89798
-4.06876
-4.25158
-4.44709
-4.65569
-4.87744
-2.68385
-2.73152
-2.82395
-2.9252
-3.03633
-3.16339
-3.30122
-3.44671
-3.60041
-3.76322
-3.93577
-4.11838
-4.31108
-4.5138
-4.72666
-4.9497
-5.18293
-5.42581
-2.67234
-2.73978
-2.86383
-2.99368
-3.13057
-3.28172
-3.44262
-3.61029
-3.78613
-3.97124
-4.16586
-4.36994
-4.58308
-4.80474
-5.03479
-5.27326
-5.52009
-5.77459
-2.62188
-2.71148
-2.86934
-3.02958
-3.1911
-3.36462
-3.54414
-3.7286
-3.92128
-4.12289
-4.33319
-4.55219
-4.77937
-5.01392
-5.25568
-5.50472
-5.76082
-6.02309
-2.53834
-2.65485
-2.85193
-3.04606
-3.23244
-3.42403
-3.61701
-3.81485
-4.02047
-4.23372
-4.45443
-4.68382
-4.9208
-5.16411
-5.41377
-5.66995
-5.93229
-6.19961
-2.42532
-2.57744
-2.82215
-3.05306
-3.26047
-3.46349
-3.66704
-3.87626
-4.09285
-4.31724
-4.5455
-4.78223
-5.02556
-5.27426
-5.52903
-5.78994
-6.05621
-6.32674
-2.28488
-2.48735
-2.79017
-3.05833
-3.2813
-3.49068
-3.70005
-3.91575
-4.13875
-4.36724
-4.60632
-4.84892
-5.09678
-5.3496
-5.60882
-5.87377
-6.1433
-6.41593
-2.12411
-2.39331
-2.76361
-3.06489
-3.29798
-3.51189
-3.72838
-3.95343
-4.1853
-4.421
-4.66001
-4.90345
-5.15273
-5.40763
-5.6698
-5.93739
-6.20878
-6.48327
-1.93297
-2.30366
-2.74509
-3.06666
-3.29901
-3.51443
-3.73803
-3.97078
-4.20748
-4.44567
-4.6868
-4.93306
-5.18449
-5.44453
-5.70994
-5.98133
-6.25572
-6.53305
-1.72881
-2.24486
-2.76128
-3.08893
-3.31266
-3.52805
-3.75774
-3.99659
-4.23676
-4.47579
-4.71644
-4.96147
-5.21207
-5.46948
-5.73378
-6.00506
-6.28331
-6.5633
-1.43648
-2.17383
-2.75509
-3.0815
-3.30419
-3.52636
-3.76367
-4.00778
-4.2519
-4.4945
-4.73749
-4.9839
-5.2357
-5.49549
-5.76242
-6.03829
-6.31966
-6.61262
-1.29844
-2.17825
-2.774
-3.08362
-3.30112
-3.52455
-3.76397
-4.00931
-4.2536
-4.49517
-4.73651
-4.98095
-5.23203
-5.49082
-5.75873
-6.03194
-6.31034
-6.58449
-0.572002
-0.97579
-1.16574
-1.19086
-1.12832
-1.01698
-0.872632
-0.687953
-0.45343
-0.161276
0.190296
0.608871
1.08643
1.63067
2.23297
2.93727
3.69086
4.5558
-0.557203
-0.944137
-1.1519
-1.19362
-1.13606
-1.02666
-0.885045
-0.703374
-0.471865
-0.183613
0.163298
0.573242
1.04126
1.57011
2.16041
2.82559
3.53917
4.19806
-0.730297
-0.995088
-1.16414
-1.209
-1.15256
-1.03985
-0.896784
-0.716682
-0.488437
-0.205318
0.133658
0.529989
0.98148
1.48536
2.04022
2.64095
3.24967
3.76733
-0.844989
-1.01334
-1.14685
-1.20149
-1.1562
-1.04564
-0.903479
-0.727312
-0.505709
-0.232071
0.0945045
0.474754
0.901713
1.37184
1.87811
2.40445
2.91139
3.334
-0.952194
-1.05664
-1.15471
-1.21056
-1.17503
-1.06714
-0.925111
-0.752163
-0.537619
-0.274658
0.0375286
0.395308
0.798179
1.23135
1.68653
2.14501
2.57486
2.92181
-1.0521
-1.10898
-1.16976
-1.219
-1.19137
-1.0889
-0.949197
-0.780702
-0.574763
-0.324659
-0.0295483
0.308423
0.678288
1.0728
1.4774
1.87444
2.23798
2.53601
-1.14478
-1.16686
-1.19382
-1.23227
-1.21106
-1.11651
-0.981905
-0.819532
-0.623656
-0.388337
-0.112945
0.198128
0.537203
0.892148
1.24811
1.58991
1.8978
2.15105
-1.23135
-1.2287
-1.22758
-1.25292
-1.23592
-1.15057
-1.02345
-0.868944
-0.684526
-0.46569
-0.212146
0.0714735
0.376295
0.691336
1.00114
1.29286
1.55217
1.76586
-1.31316
-1.29339
-1.27047
-1.2822
-1.26714
-1.19125
-1.07369
-0.929185
-0.757966
-0.557394
-0.327691
-0.0735602
0.194715
0.47089
0.737101
0.982853
1.19793
1.37404
-1.39146
-1.36025
-1.32143
-1.32076
-1.30592
-1.23932
-1.13316
-1.00099
-0.84499
-0.664481
-0.460346
-0.237143
-0.00258511
0.231424
0.455626
0.658554
0.832284
0.971683
-1.4673
-1.42894
-1.3795
-1.36879
-1.35343
-1.2958
-1.20253
-1.08496
-0.946367
-0.787689
-0.610512
-0.419338
-0.221807
-0.0266884
0.156364
0.318835
0.45342
0.556604
-1.53534
-1.49343
-1.43868
-1.42151
-1.40585
-1.35628
-1.27581
-1.17343
-1.05272
-0.915638
-0.764312
-0.603118
-0.43899
-0.279568
-0.133602
-0.00704269
0.0929884
0.163341
-1.60198
-1.55861
-1.50184
-1.48073
-1.46556
-1.42413
-1.35704
-1.27101
-1.16945
-1.05488
-0.929905
-0.798793
-0.667849
-0.544058
-0.43375
-0.342756
-0.276009
-0.237807
-1.67737
-1.63454
-1.57908
-1.55677
-1.5438
-1.51222
-1.46111
-1.39512
-1.31718
-1.22975
-1.13565
-1.03904
-0.94558
-0.861168
-0.791116
-0.739967
-0.711759
-0.709388
-1.76202
-1.72232
-1.67244
-1.65277
-1.64492
-1.62579
-1.59366
-1.55152
-1.5019
-1.44659
-1.38828
-1.3309
-1.27939
-1.23865
-1.21277
-1.20527
-1.21938
-1.25758
-1.85567
-1.82224
-1.78342
-1.77131
-1.77256
-1.76957
-1.76024
-1.74626
-1.72954
-1.71133
-1.69354
-1.67949
-1.67354
-1.67977
-1.70131
-1.7407
-1.8003
-1.88235
-1.95656
-1.93299
-1.91158
-1.91312
-1.92878
-1.94676
-1.96458
-1.98276
-2.00282
-2.02625
-2.05369
-2.08722
-2.13016
-2.18575
-2.25641
-2.34391
-2.44991
-2.57568
-2.05866
-2.04965
-2.05269
-2.07488
-2.11115
-2.15596
-2.20619
-2.261
-2.32132
-2.3884
-2.46309
-2.54601
-2.63914
-2.74471
-2.86451
-2.99973
-3.15135
-3.32009
-2.14616
-2.15775
-2.19515
-2.2454
-2.30957
-2.3879
-2.47565
-2.57062
-2.67355
-2.7856
-2.90747
-3.03969
-3.18272
-3.33689
-3.50302
-3.68186
-3.87399
-4.0796
-2.17304
-2.20716
-2.28065
-2.36315
-2.45734
-2.56814
-2.68936
-2.8178
-2.95439
-3.10029
-3.25614
-3.42244
-3.59964
-3.78773
-3.98622
-4.19487
-4.41371
-4.64243
-2.15158
-2.20691
-2.3138
-2.42648
-2.54792
-2.68416
-2.82963
-2.98148
-3.14141
-3.31046
-3.48887
-3.677
-3.875
-4.08257
-4.29943
-4.5253
-4.75966
-5.0019
-2.09225
-2.17104
-2.31343
-2.45807
-2.60548
-2.76538
-2.93027
-3.1
-3.27773
-3.464
-3.65864
-3.86216
-4.07464
-4.29552
-4.52454
-4.76161
-5.00648
-5.25822
-2.00038
-2.10759
-2.29091
-2.47085
-2.64421
-2.82263
-3.00256
-3.18658
-3.37778
-3.57613
-3.78189
-3.99636
-4.21905
-4.44898
-4.68613
-4.93061
-5.18215
-5.43972
-1.8797
-2.02407
-2.25678
-2.47485
-2.67029
-2.8613
-3.05232
-3.24829
-3.45093
-3.66027
-3.87476
-4.09691
-4.32608
-4.56166
-4.80414
-5.05354
-5.30933
-5.57045
-1.73208
-1.92818
-2.22111
-2.47775
-2.68963
-2.88775
-3.08508
-3.28795
-3.49762
-3.71294
-3.93714
-4.16518
-4.39902
-4.63912
-4.88619
-5.13972
-5.3991
-5.66287
-1.55972
-1.82853
-2.19169
-2.48258
-2.70524
-2.9085
-3.11345
-3.32608
-3.54484
-3.76664
-3.99083
-4.21998
-4.4557
-4.69867
-4.94862
-5.2046
-5.46624
-5.73225
-1.36113
-1.7344
-2.1712
-2.48314
-2.70557
-2.91077
-3.12311
-3.34351
-3.56709
-3.7916
-4.01841
-4.25127
-4.49034
-4.73702
-4.99036
-5.24997
-5.51485
-5.78419
-1.15078
-1.67229
-2.18612
-2.50456
-2.71872
-2.92421
-3.14288
-3.36963
-3.59682
-3.82219
-4.04874
-4.28002
-4.51705
-4.76117
-5.01373
-5.27576
-5.54427
-5.81527
-0.848759
-1.6
-2.17977
-2.49672
-2.71002
-2.92248
-3.14892
-3.38109
-3.61239
-3.84141
-4.07041
-4.30295
-4.54137
-4.78847
-5.04387
-5.30942
-5.58082
-5.86515
-0.700044
-1.60174
-2.19842
-2.49859
-2.70677
-2.92058
-3.14928
-3.38283
-3.61433
-3.84223
-4.06951
-4.30004
-4.53772
-4.78378
-5.03994
-5.30256
-5.57134
-5.83712
-0.300589
-0.652054
-0.811772
-0.822907
-0.751789
-0.636848
-0.496762
-0.329103
-0.125764
0.120181
0.409644
0.752087
1.14504
1.59543
2.09803
2.69172
3.34264