/*--------------------------------*- C++ -*----------------------------------*\
| =========                 |                                                 |
| \\      /  F ield         | OpenFOAM: The Open Source CFD Toolbox           |
|  \\    /   O peration     | Version:  2112                                  |
|   \\  /    A nd           | Website:  www.openfoam.com                      |
|    \\/     M anipulation  |                                                 |
\*---------------------------------------------------------------------------*/
FoamFile
{
    version     2.0;
    format      ascii;
    arch        "LSB;label=32;scalar=64";
    class       volVectorField;
    location    "0.19";
    object      U_0;
}
// * * * * * * * * * * * * * * * * * * * * * * * * * * * * * * * * * * * * * //

dimensions      [0 1 -1 0 0 0 0];

internalField   nonuniform List<vector> 
12225
(
(9.84752 0.0346923 0)
(9.58728 0.0550915 0)
(9.32338 0.0583239 0)
(9.0617 0.0579854 0)
(8.81521 0.0563605 0)
(8.58658 0.0537171 0)
(8.37456 0.050444 0)
(8.17711 0.0472438 0)
(7.99482 0.0437721 0)
(7.82505 0.0409151 0)
(7.67078 0.0374256 0)
(7.52524 0.0355577 0)
(7.39776 0.0311568 0)
(7.2719 0.0317664 0)
(7.17191 0.0234035 0)
(7.06065 0.0315867 0)
(6.99041 0.0089984 0)
(6.89246 0.0403698 0)
(10.0151 0.044481 0)
(10.06 0.0637837 0)
(10.0738 0.0617055 0)
(10.0629 0.0602301 0)
(10.0409 0.0603915 0)
(10.0122 0.0604464 0)
(9.9781 0.0601321 0)
(9.93876 0.0593695 0)
(9.8967 0.0587741 0)
(9.85163 0.05763 0)
(9.80645 0.0570155 0)
(9.75921 0.0551595 0)
(9.71395 0.054682 0)
(9.66663 0.0517308 0)
(9.62365 0.0515893 0)
(9.57796 0.0470303 0)
(9.53919 0.0461864 0)
(9.49619 0.038943 0)
(10.0115 0.0362308 0)
(10.0432 0.0546525 0)
(10.0646 0.0563711 0)
(10.0743 0.0583354 0)
(10.0799 0.0610147 0)
(10.0841 0.0628353 0)
(10.0865 0.0636098 0)
(10.0867 0.0637693 0)
(10.0854 0.0636139 0)
(10.0825 0.0631767 0)
(10.0788 0.0624719 0)
(10.0738 0.0615227 0)
(10.0684 0.0601993 0)
(10.0619 0.0588559 0)
(10.0558 0.0566109 0)
(10.0481 0.0547494 0)
(10.0422 0.0506906 0)
(10.0323 0.0468468 0)
(10.0091 0.0306133 0)
(10.0327 0.0490499 0)
(10.0512 0.0532852 0)
(10.0617 0.0561957 0)
(10.0697 0.0590264 0)
(10.0771 0.0608855 0)
(10.0838 0.061756 0)
(10.0894 0.0620415 0)
(10.0942 0.0620429 0)
(10.0985 0.0617475 0)
(10.1023 0.0612474 0)
(10.1057 0.060426 0)
(10.1088 0.0593664 0)
(10.1116 0.0580409 0)
(10.1143 0.056129 0)
(10.1166 0.0541366 0)
(10.1191 0.0506692 0)
(10.1205 0.0477373 0)
(10.0065 0.0259788 0)
(10.0265 0.0441982 0)
(10.0422 0.0499717 0)
(10.0524 0.0535316 0)
(10.0606 0.0565102 0)
(10.0685 0.0584826 0)
(10.0757 0.0595063 0)
(10.0823 0.0599346 0)
(10.0883 0.0600271 0)
(10.0939 0.0598084 0)
(10.0992 0.0593391 0)
(10.1043 0.0585569 0)
(10.1092 0.0574999 0)
(10.114 0.0561298 0)
(10.1186 0.0542889 0)
(10.123 0.0521186 0)
(10.1273 0.0491522 0)
(10.131 0.0458224 0)
(10.0049 0.0216184 0)
(10.022 0.0395956 0)
(10.0356 0.0465491 0)
(10.0454 0.050712 0)
(10.0537 0.0538651 0)
(10.0615 0.0559405 0)
(10.0688 0.0570816 0)
(10.0755 0.0576051 0)
(10.0818 0.0577441 0)
(10.0877 0.0575486 0)
(10.0934 0.0570693 0)
(10.099 0.0562785 0)
(10.1043 0.0551883 0)
(10.1095 0.0537788 0)
(10.1145 0.0519413 0)
(10.1194 0.0497383 0)
(10.1239 0.0469247 0)
(10.128 0.043609 0)
(10.004 0.0177944 0)
(10.0183 0.0353056 0)
(10.0303 0.0431056 0)
(10.0397 0.0477614 0)
(10.048 0.0510731 0)
(10.0557 0.0532341 0)
(10.063 0.0544664 0)
(10.0697 0.0550611 0)
(10.076 0.0552314 0)
(10.0821 0.0550439 0)
(10.0879 0.0545496 0)
(10.0935 0.0537404 0)
(10.0989 0.0526243 0)
(10.1042 0.051186 0)
(10.1092 0.0493613 0)
(10.1141 0.0471689 0)
(10.1185 0.0444961 0)
(10.1225 0.0414239 0)
(10.0032 0.0145229 0)
(10.015 0.0312843 0)
(10.0259 0.039638 0)
(10.035 0.0446665 0)
(10.0431 0.0481158 0)
(10.0508 0.0503552 0)
(10.0579 0.0516653 0)
(10.0647 0.0523203 0)
(10.071 0.0525179 0)
(10.0771 0.0523369 0)
(10.0829 0.0518319 0)
(10.0885 0.0510088 0)
(10.0939 0.0498786 0)
(10.0991 0.048431 0)
(10.1041 0.0466352 0)
(10.1087 0.0444954 0)
(10.113 0.0419812 0)
(10.1169 0.0391549 0)
(10.0023 0.0117883 0)
(10.0119 0.0274977 0)
(10.022 0.0361257 0)
(10.0308 0.0414185 0)
(10.0388 0.0449846 0)
(10.0464 0.0472975 0)
(10.0535 0.0486766 0)
(10.0602 0.0493852 0)
(10.0665 0.0496094 0)
(10.0726 0.049438 0)
(10.0784 0.0489298 0)
(10.0839 0.0481025 0)
(10.0893 0.0469722 0)
(10.0944 0.0455369 0)
(10.0992 0.0437883 0)
(10.1037 0.0417325 0)
(10.1079 0.0393801 0)
(10.1117 0.0367852 0)
(10.0013 0.00957369 0)
(10.0093 0.023948 0)
(10.0185 0.032566 0)
(10.027 0.0380181 0)
(10.0349 0.041675 0)
(10.0424 0.0440528 0)
(10.0494 0.0454922 0)
(10.0561 0.0462485 0)
(10.0624 0.0465001 0)
(10.0684 0.046343 0)
(10.0742 0.0458404 0)
(10.0797 0.0450208 0)
(10.085 0.0439058 0)
(10.09 0.042503 0)
(10.0947 0.0408194 0)
(10.0991 0.0388687 0)
(10.1031 0.0366806 0)
(10.1068 0.0343071 0)
(10.0007 0.00782068 0)
(10.0072 0.0206334 0)
(10.0156 0.0289896 0)
(10.0237 0.0344824 0)
(10.0314 0.0381886 0)
(10.0387 0.0406144 0)
(10.0457 0.0421028 0)
(10.0523 0.0429009 0)
(10.0586 0.0431805 0)
(10.0646 0.0430431 0)
(10.0703 0.042556 0)
(10.0758 0.0417565 0)
(10.081 0.0406724 0)
(10.0859 0.0393205 0)
(10.0905 0.037718 0)
(10.0948 0.0358869 0)
(10.0988 0.0338648 0)
(10.1023 0.0317024 0)
(10.0004 0.00648472 0)
(10.0057 0.0178272 0)
(10.0132 0.025741 0)
(10.0209 0.0311433 0)
(10.0283 0.0348373 0)
(10.0355 0.0372791 0)
(10.0424 0.0387961 0)
(10.049 0.0396243 0)
(10.0553 0.0399285 0)
(10.0613 0.0398131 0)
(10.067 0.0393484 0)
(10.0724 0.0385784 0)
(10.0775 0.037536 0)
(10.0824 0.036245 0)
(10.0869 0.0347296 0)
(10.0912 0.0330176 0)
(10.095 0.0311483 0)
(10.0985 0.0291714 0)
(10.0003 0.00538554 0)
(10.0046 0.0152685 0)
(10.0112 0.0225876 0)
(10.0184 0.0277814 0)
(10.0256 0.0314002 0)
(10.0326 0.0338241 0)
(10.0394 0.0353501 0)
(10.0459 0.0361978 0)
(10.0521 0.0365238 0)
(10.0581 0.0364323 0)
(10.0638 0.0359959 0)
(10.0691 0.0352635 0)
(10.0742 0.0342724 0)
(10.079 0.0330521 0)
(10.0835 0.0316315 0)
(10.0877 0.0300424 0)
(10.0915 0.0283233 0)
(10.095 0.0265228 0)
(10.0002 0.00435569 0)
(10.0036 0.0126394 0)
(10.0093 0.0191301 0)
(10.0158 0.0239316 0)
(10.0227 0.0273648 0)
(10.0295 0.0297093 0)
(10.0361 0.0312103 0)
(10.0425 0.0320606 0)
(10.0487 0.0324033 0)
(10.0546 0.0323391 0)
(10.0602 0.0319407 0)
(10.0656 0.0312603 0)
(10.0706 0.0303386 0)
(10.0754 0.0292097 0)
(10.0798 0.0279057 0)
(10.0839 0.0264603 0)
(10.0877 0.0249105 0)
(10.0912 0.0233006 0)
(10.0001 0.00339002 0)
(10.0028 0.00999266 0)
(10.0076 0.0154276 0)
(10.0134 0.0196144 0)
(10.0198 0.0227005 0)
(10.0262 0.0248602 0)
(10.0327 0.0262712 0)
(10.039 0.0270871 0)
(10.045 0.0274294 0)
(10.0509 0.0273894 0)
(10.0565 0.027036 0)
(10.0617 0.0264216 0)
(10.0668 0.0255885 0)
(10.0715 0.0245728 0)
(10.0759 0.023408 0)
(10.0799 0.0221273 0)
(10.0837 0.0207651 0)
(10.0872 0.0193595 0)
(10.0001 0.0024752 0)
(10.0023 0.0073615 0)
(10.0062 0.0115424 0)
(10.0113 0.0148793 0)
(10.0171 0.0174141 0)
(10.0231 0.0192341 0)
(10.0292 0.0204472 0)
(10.0353 0.0211593 0)
(10.0413 0.0214615 0)
(10.047 0.0214276 0)
(10.0525 0.0211171 0)
(10.0577 0.0205775 0)
(10.0627 0.0198488 0)
(10.0673 0.0189658 0)
(10.0717 0.0179604 0)
(10.0758 0.016863 0)
(10.0795 0.0157038 0)
(10.083 0.0145146 0)
(10.0001 0.00158491 0)
(10.0019 0.00473388 0)
(10.0052 0.00750102 0)
(10.0096 0.00976828 0)
(10.0148 0.0115309 0)
(10.0203 0.0128192 0)
(10.0261 0.0136838 0)
(10.0319 0.0141828 0)
(10.0376 0.014372 0)
(10.0432 0.0143008 0)
(10.0486 0.0140116 0)
(10.0537 0.0135412 0)
(10.0586 0.0129216 0)
(10.0632 0.0121818 0)
(10.0675 0.0113483 0)
(10.0716 0.0104464 0)
(10.0754 0.00950021 0)
(10.0789 0.00853494 0)
(10.0001 0.000674482 0)
(10.0016 0.00202458 0)
(10.0045 0.00323237 0)
(10.0085 0.00423596 0)
(10.0132 0.00501787 0)
(10.0183 0.00557689 0)
(10.0237 0.00592302 0)
(10.0292 0.00607376 0)
(10.0347 0.00604935 0)
(10.0401 0.00587044 0)
(10.0453 0.00555726 0)
(10.0503 0.00512933 0)
(10.0551 0.00460542 0)
(10.0596 0.00400366 0)
(10.0639 0.00334159 0)
(10.0679 0.00263627 0)
(10.0716 0.00190445 0)
(10.0752 0.00116378 0)
(10.0001 -0.000328422 0)
(10.0016 -0.000957584 0)
(10.0044 -0.00149939 0)
(10.0082 -0.00194902 0)
(10.0127 -0.00232908 0)
(10.0177 -0.00266558 0)
(10.0228 -0.00298219 0)
(10.0281 -0.00329915 0)
(10.0333 -0.00363208 0)
(10.0385 -0.00399151 0)
(10.0435 -0.00438317 0)
(10.0483 -0.00480882 0)
(10.0529 -0.00526696 0)
(10.0573 -0.00575367 0)
(10.0614 -0.00626322 0)
(10.0654 -0.00678861 0)
(10.0691 -0.00732178 0)
(10.0725 -0.0078531 0)
(10.0001 -0.00135059 0)
(10.0018 -0.00395224 0)
(10.005 -0.00616823 0)
(10.0091 -0.00794518 0)
(10.0138 -0.00933934 0)
(10.0189 -0.0104253 0)
(10.024 -0.011275 0)
(10.0292 -0.0119544 0)
(10.0344 -0.012518 0)
(10.0394 -0.0130072 0)
(10.0442 -0.0134516 0)
(10.0488 -0.0138709 0)
(10.0532 -0.0142779 0)
(10.0574 -0.0146795 0)
(10.0615 -0.0150788 0)
(10.0652 -0.0154759 0)
(10.0688 -0.0158689 0)
(10.0722 -0.0162532 0)
(10.0001 -0.00236318 0)
(10.0023 -0.00677968 0)
(10.0061 -0.0103733 0)
(10.0107 -0.0131239 0)
(10.0158 -0.0151914 0)
(10.021 -0.0167313 0)
(10.0263 -0.0178757 0)
(10.0314 -0.018737 0)
(10.0365 -0.0194038 0)
(10.0413 -0.0199405 0)
(10.046 -0.0203918 0)
(10.0505 -0.020788 0)
(10.0548 -0.0211493 0)
(10.0588 -0.0214883 0)
(10.0627 -0.0218123 0)
(10.0664 -0.0221251 0)
(10.0699 -0.0224276 0)
(10.0732 -0.0227177 0)
(10.0002 -0.00355543 0)
(10.0032 -0.00986591 0)
(10.0078 -0.0146446 0)
(10.013 -0.0180889 0)
(10.0185 -0.0205734 0)
(10.0239 -0.0223616 0)
(10.0292 -0.0236456 0)
(10.0343 -0.0245787 0)
(10.0393 -0.0252755 0)
(10.0441 -0.0258153 0)
(10.0486 -0.0262505 0)
(10.053 -0.0266163 0)
(10.0571 -0.0269358 0)
(10.0611 -0.0272243 0)
(10.0648 -0.0274912 0)
(10.0684 -0.0277421 0)
(10.0718 -0.0279792 0)
(10.075 -0.0282019 0)
(10.0004 -0.00505163 0)
(10.0045 -0.0133299 0)
(10.0102 -0.0189954 0)
(10.016 -0.0228107 0)
(10.0217 -0.025478 0)
(10.0273 -0.0273562 0)
(10.0327 -0.0286713 0)
(10.0378 -0.029604 0)
(10.0427 -0.0302857 0)
(10.0473 -0.0308031 0)
(10.0518 -0.0312103 0)
(10.056 -0.0315428 0)
(10.06 -0.0318242 0)
(10.0639 -0.0320704 0)
(10.0675 -0.0322916 0)
(10.071 -0.0324944 0)
(10.0743 -0.0326817 0)
(10.0774 -0.0328531 0)
(10.0007 -0.00697476 0)
(10.0064 -0.0172024 0)
(10.0132 -0.0233547 0)
(10.0197 -0.0272185 0)
(10.0256 -0.0298899 0)
(10.0313 -0.031757 0)
(10.0367 -0.0330371 0)
(10.0418 -0.0339252 0)
(10.0466 -0.0345653 0)
(10.0512 -0.0350467 0)
(10.0555 -0.0354197 0)
(10.0596 -0.0357182 0)
(10.0636 -0.0359635 0)
(10.0673 -0.0361724 0)
(10.0708 -0.0363542 0)
(10.0742 -0.0365172 0)
(10.0774 -0.036664 0)
(10.0805 -0.0367938 0)
(10.0013 -0.00943527 0)
(10.0091 -0.0214361 0)
(10.0172 -0.0276262 0)
(10.0241 -0.031262 0)
(10.0303 -0.0338202 0)
(10.036 -0.0356183 0)
(10.0414 -0.036822 0)
(10.0465 -0.0376358 0)
(10.0512 -0.0382169 0)
(10.0557 -0.0386536 0)
(10.0599 -0.038989 0)
(10.0639 -0.0392523 0)
(10.0677 -0.0394622 0)
(10.0713 -0.0396357 0)
(10.0748 -0.0397812 0)
(10.078 -0.0399078 0)
(10.0811 -0.0400184 0)
(10.084 -0.0401115 0)
(10.0028 -0.0127659 0)
(10.0126 -0.0259759 0)
(10.0224 -0.03172 0)
(10.0299 -0.0349234 0)
(10.036 -0.0373088 0)
(10.0418 -0.0390056 0)
(10.0472 -0.0401004 0)
(10.0522 -0.0408115 0)
(10.0568 -0.0413153 0)
(10.0611 -0.0416956 0)
(10.0651 -0.0419858 0)
(10.069 -0.0422077 0)
(10.0726 -0.0423774 0)
(10.0759 -0.0425122 0)
(10.0791 -0.0426194 0)
(10.0822 -0.0427101 0)
(10.085 -0.0427853 0)
(10.0877 -0.0428419 0)
(10.0049 -0.0167265 0)
(10.0176 -0.0307239 0)
(10.0297 -0.0355181 0)
(10.0376 -0.0381709 0)
(10.0437 -0.0404038 0)
(10.0493 -0.0420037 0)
(10.0546 -0.0429692 0)
(10.0593 -0.0435477 0)
(10.0635 -0.0439465 0)
(10.0674 -0.0442421 0)
(10.071 -0.0444582 0)
(10.0743 -0.0446082 0)
(10.0773 -0.0447069 0)
(10.0801 -0.0447736 0)
(10.0827 -0.0448123 0)
(10.0851 -0.0448449 0)
(10.0873 -0.0448602 0)
(10.0893 -0.0448844 0)
(10.0069 -0.0216739 0)
(10.0258 -0.0361959 0)
(10.0408 -0.0389474 0)
(10.0488 -0.0407071 0)
(10.0541 -0.0428052 0)
(10.0588 -0.0444124 0)
(10.063 -0.0453612 0)
(10.0663 -0.0459053 0)
(10.0688 -0.0462779 0)
(10.0707 -0.046547 0)
(10.0721 -0.0467273 0)
(10.0731 -0.0468248 0)
(10.0737 -0.0468517 0)
(10.0739 -0.0468371 0)
(10.0738 -0.0467728 0)
(10.0733 -0.046708 0)
(10.0726 -0.0466081 0)
(10.0717 -0.0465505 0)
(10.0092 -0.0286344 0)
(10.0403 -0.0450686 0)
(10.0559 -0.0448273 0)
(10.0577 -0.0439495 0)
(10.054 -0.0441688 0)
(10.0479 -0.0444292 0)
(10.0397 -0.0443817 0)
(10.0293 -0.0441853 0)
(10.017 -0.0439828 0)
(10.0034 -0.0438177 0)
(9.98868 -0.043657 0)
(9.97329 -0.0434935 0)
(9.95725 -0.0432963 0)
(9.94088 -0.043112 0)
(9.92408 -0.0428762 0)
(9.90733 -0.0426898 0)
(9.89021 -0.0424369 0)
(9.87357 -0.0423177 0)
(9.91548 -0.0239367 0)
(9.77756 -0.0399553 0)
(9.63296 -0.0435641 0)
(9.48408 -0.0447145 0)
(9.34032 -0.0451524 0)
(9.20505 -0.0448592 0)
(9.07756 -0.0439616 0)
(8.95711 -0.0427126 0)
(8.84319 -0.0413211 0)
(8.73585 -0.0398796 0)
(8.63456 -0.0384306 0)
(8.53931 -0.0370542 0)
(8.44931 -0.0356939 0)
(8.36486 -0.0344091 0)
(8.28475 -0.033152 0)
(8.20998 -0.0320165 0)
(8.13837 -0.0308778 0)
(8.07244 -0.0299453 0)
(-0.0214918 0.0657728 -1.19968e-20)
(-0.0880539 0.0700059 1.19203e-20)
(-0.150072 0.0626239 0)
(-0.198168 0.0475661 0)
(-0.231732 0.0294958 0)
(-0.248594 0.0102172 -1.15645e-20)
(-0.248104 -0.00938515 0)
(-0.23022 -0.0276315 0)
(-0.195881 -0.0430219 0)
(-0.14806 -0.0534778 0)
(-0.0918073 -0.0581243 1.1109e-20)
(-0.0325605 -0.0570727 0)
(0.0243017 -0.0510039 0)
(0.0741464 -0.0409681 0)
(0.113433 -0.0280876 0)
(0.139748 -0.0127683 1.06352e-20)
(0.15093 0.00442815 0)
(0.146229 0.0237049 0)
(0.125572 0.0436421 0)
(0.0886436 0.0622095 0)
(0.0368586 0.072475 0)
(-0.0256447 0.0463444 0)
(-0.0737856 0.00201301 0)
(-0.112249 -0.000375409 1.00525e-20)
(-0.149598 0.0111977 -9.97902e-21)
(-0.172582 0.00170387 9.91103e-21)
(-0.170677 -0.0201453 9.83938e-21)
(-0.142121 -0.0463019 0)
(-0.0827715 -0.0726026 0)
(-0.00470392 -0.0830282 -9.61666e-21)
(0.0719215 -0.0709772 -9.54163e-21)
(0.129076 -0.0417262 0)
(0.156381 -0.00528035 0)
(0.161559 0.0227885 -9.34591e-21)
(0.15569 0.0326966 0)
(0.134015 -0.0155096 0)
(0.0941928 -0.09105 9.13962e-21)
(0.0482418 -0.0653571 0)
(-0.0467133 0.073684 8.9971e-21)
(-0.208502 0.133145 1.77544e-20)
(-0.359756 0.133715 0)
(-0.506925 0.128549 0)
(-0.643159 0.118626 0)
(-0.768656 0.10771 0)
(-0.882722 0.0967683 0)
(-0.986123 0.0866434 1.7243e-20)
(-1.07962 0.0771963 1.72297e-20)
(-1.16431 0.0687015 1.72192e-20)
(-1.24121 0.0614432 0)
(-1.31148 0.0552771 -1.71935e-20)
(-1.37607 0.0500891 0)
(-1.43588 0.0457281 1.71532e-20)
(-1.49165 0.0420739 1.71268e-20)
(-1.54401 0.0390047 0)
(-1.59352 0.0364247 0)
(-1.64064 0.0342574 0)
(-1.68572 0.0324531 1.69832e-20)
(-1.72904 0.0309701 0)
(-1.77099 0.0297248 0)
(-1.81174 0.0286544 0)
(-1.85148 0.0277179 0)
(-1.89031 0.0268814 0)
(-1.92835 0.026121 0)
(-1.96564 0.0254127 0)
(-2.00225 0.0247454 0)
(-2.0382 0.0241011 -1.64832e-20)
(-2.0735 0.0234741 0)
(-2.10815 0.0228531 0)
(-2.14215 0.0222347 1.62671e-20)
(-2.17548 0.0216127 1.61886e-20)
(-2.20812 0.0209854 0)
(-2.24005 0.0203501 -1.60212e-20)
(-2.27125 0.0197065 1.59318e-20)
(-2.30169 0.0190538 0)
(-2.33133 0.0183929 -1.57406e-20)
(-2.36017 0.0177242 0)
(-2.38816 0.0170489 0)
(-2.41529 0.0163682 1.54205e-20)
(-2.44154 0.0156831 0)
(-2.46688 0.0149947 -1.51831e-20)
(-2.49129 0.0143042 0)
(-2.51476 0.0136124 1.49254e-20)
(-2.53727 0.0129199 1.47887e-20)
(-2.5588 0.0122274 1.46466e-20)
(-2.57935 0.0115352 2.89982e-20)
(-2.59888 0.0108438 -2.86922e-20)
(-2.6174 0.0101534 0)
(-2.63488 0.00946441 0)
(-2.65131 0.00877687 0)
(-2.66668 0.00809091 -2.73569e-20)
(-2.68097 0.00740656 -2.69951e-20)
(-2.69416 0.00672386 2.6622e-20)
(-2.70625 0.00604285 0)
(-2.71722 0.00536361 -2.5842e-20)
(-2.72704 0.00468621 -2.54352e-20)
(-2.7357 0.00401068 -2.50174e-20)
(-2.74318 0.00333772 0)
(-2.74945 0.00267062 0)
(-2.7545 0.00201084 0)
(-2.75825 0.00133721 -2.32375e-20)
(-2.76071 0.000627099 0)
(-2.76202 -2.95897e-05 0)
(-2.76213 -0.000673009 2.17904e-20)
(-2.76104 -0.00129382 0)
(-2.75874 -0.00190767 0)
(-2.75521 -0.00251057 2.02519e-20)
(-2.75046 -0.00310662 0)
(-2.74447 -0.00369417 0)
(-2.73724 -0.00427392 -1.86283e-20)
(-2.72877 -0.00484519 -1.80695e-20)
(-2.71905 -0.00540769 0)
(-2.70809 -0.00596099 1.69277e-20)
(-2.69588 -0.00650456 0)
(-2.68242 -0.00703797 -1.57559e-20)
(-2.66772 -0.00756065 0)
(-2.65178 -0.00807216 -1.45576e-20)
(-2.6346 -0.00857199 -1.39495e-20)
(-2.61621 -0.0090597 0)
(-2.59659 -0.00953477 0)
(-2.57577 -0.00999673 0)
(-2.55376 -0.010445 0)
(-2.53056 -0.0108789 0)
(-2.50621 -0.0112973 0)
(-2.4807 -0.0116985 0)
(-2.45407 -0.0120793 -8.9375e-21)
(-2.42633 -0.0124328 8.3005e-21)
(-2.39752 -0.0127408 0)
(-2.36766 -0.0129815 0)
(-2.33681 -0.0131121 0)
(-2.30504 -0.0130461 0)
(-2.27238 -0.012963 1.02396e-20)
(-2.23875 -0.0131648 0)
(-2.20414 -0.0134438 -7.72094e-21)
(-2.16862 -0.0136456 6.47056e-21)
(-2.13224 -0.0138501 0)
(-2.09504 -0.0140283 0)
(-2.05705 -0.0141918 0)
(-2.0183 -0.0143363 -1.55463e-21)
(-1.97884 -0.0144655 -3.51918e-22)
(-1.9387 -0.0145781 0)
(-1.89791 -0.0146751 2.01554e-21)
(-1.85651 -0.0147579 3.17863e-21)
(-1.81453 -0.014826 -4.32696e-21)
(-1.77201 -0.0148808 0)
(-1.72897 -0.0149228 0)
(-1.68546 -0.014953 -7.67664e-21)
(-1.64149 -0.0149725 0)
(-1.5971 -0.0149826 0)
(-1.55231 -0.0149843 0)
(-1.50714 -0.0149785 0)
(-1.46161 -0.014966 1.29105e-20)
(-1.41574 -0.014947 1.39016e-20)
(-1.36954 -0.0149222 0)
(-1.32303 -0.0148926 1.58265e-20)
(-1.27623 -0.0148598 0)
(-1.22914 -0.0148255 0)
(-1.18176 -0.0147916 1.85698e-20)
(-1.1341 -0.0147602 0)
(-1.08613 -0.0147333 2.0304e-20)
(-1.03785 -0.0147128 0)
(-0.989229 -0.0147005 0)
(-0.940236 -0.0146982 2.27687e-20)
(-0.890837 -0.0147077 0)
(-0.840988 -0.0147303 2.43252e-20)
(-0.79064 -0.0147675 0)
(-0.739738 -0.0148202 0)
(-0.688224 -0.014889 0)
(-0.636034 -0.014974 -2.72468e-20)
(-0.583106 -0.0150745 0)
(-0.529376 -0.0151887 2.86192e-20)
(-0.474788 -0.0153136 0)
(-0.419299 -0.0154422 0)
(-0.362868 -0.0155654 0)
(-0.305607 -0.0156616 0)
(-0.247236 -0.0156929 0)
(-0.189355 -0.0156758 0)
(-0.127719 -0.0150704 0)
(-0.0777612 -0.0154338 -6.71336e-20)
(-0.00165853 -0.0111364 0)
(0.0107647 -0.00672498 0)
(0.00679172 0.156885 3.60437e-20)
(-0.0171878 0.19312 -3.58495e-20)
(-0.0423267 0.158832 0)
(-0.0587355 0.113943 2.35922e-20)
(-0.062811 0.0666878 0)
(-0.0565941 0.0181546 1.16407e-20)
(-0.037764 -0.0320292 -2.31168e-20)
(-0.00327555 -0.0830129 -2.28979e-20)
(0.0444882 -0.127357 0)
(0.100179 -0.158673 -2.23329e-20)
(0.158437 -0.173616 -1.09944e-20)
(0.214412 -0.171836 0)
(0.264013 -0.155637 0)
(0.304544 -0.12828 0)
(0.334327 -0.0934081 0)
(0.35242 -0.0544324 -1.04004e-20)
(0.359585 -0.0137714 0)
(0.356261 0.0269975 2.05827e-20)
(0.342883 0.0662396 0)
(0.320561 0.10253 0)
(0.2909 0.133876 -2.02954e-20)
(0.251506 0.152533 0)
(0.198174 0.151504 2.01427e-20)
(0.13005 0.13097 -1.00247e-20)
(0.0701066 0.0909928 9.98744e-21)
(0.0314819 0.0328977 -9.94498e-21)
(0.00822956 -0.0373943 -9.88207e-21)
(0.00597753 -0.109998 0)
(0.0360899 -0.174238 0)
(0.0723636 -0.192014 9.51991e-21)
(0.102599 -0.162822 -9.46544e-21)
(0.115658 -0.103417 0)
(0.105179 -0.0506609 0)
(0.0570062 -0.0261134 9.33437e-21)
(-0.0264335 0.0169883 0)
(-0.136815 0.129807 0)
(-0.325883 0.23078 -9.03601e-21)
(-0.507562 0.292751 0)
(-0.638364 0.330148 8.87313e-21)
(-0.754667 0.334835 -1.73254e-20)
(-0.854422 0.319683 0)
(-0.949361 0.298153 0)
(-1.03461 0.272261 -3.41144e-20)
(-1.11321 0.246309 -3.3945e-20)
(-1.1844 0.221464 -3.37987e-20)
(-1.2497 0.198885 1.69292e-20)
(-1.30965 0.178872 -1.66902e-20)
(-1.3652 0.161483 -5.00632e-20)
(-1.41697 0.146561 3.32986e-20)
(-1.46554 0.133862 1.65515e-20)
(-1.51139 0.123116 0)
(-1.55495 0.114039 -1.64495e-20)
(-1.59657 0.106373 1.64189e-20)
(-1.63654 0.0998811 0)
(-1.67512 0.0943683 0)
(-1.71251 0.089663 0)
(-1.7489 0.0856385 -1.61533e-20)
(-1.78441 0.0821929 0)
(-1.81913 0.0792144 3.20188e-20)
(-1.85315 0.0765964 0)
(-1.88652 0.0742575 3.17323e-20)
(-1.91929 0.0721297 0)
(-1.95151 0.0701604 -3.14333e-20)
(-1.98319 0.0683051 0)
(-2.01435 0.06653 3.11203e-20)
(-2.04498 0.0648063 -1.54602e-20)
(-2.07509 0.0631125 0)
(-2.10466 0.0614309 -3.06203e-20)
(-2.13366 0.0597488 -1.52412e-20)
(-2.16209 0.0580565 -1.51506e-20)
(-2.18991 0.056348 0)
(-2.21709 0.0546192 -1.49235e-20)
(-2.24362 0.0528686 -1.48609e-20)
(-2.26946 0.0510962 0)
(-2.29458 0.0493034 1.46515e-20)
(-2.31897 0.0474924 -2.90492e-20)
(-2.34258 0.045666 0)
(-2.36541 0.0438274 -1.43102e-20)
(-2.38743 0.0419798 0)
(-2.40862 0.0401263 4.21599e-20)
(-2.42895 0.0382696 0)
(-2.44842 0.036412 -4.13713e-20)
(-2.46699 0.0345555 -1.36609e-20)
(-2.48467 0.0327019 1.34949e-20)
(-2.50143 0.0308522 2.66989e-20)
(-2.51725 0.0290074 -2.63991e-20)
(-2.53213 0.0271683 0)
(-2.54604 0.0253356 0)
(-2.55898 0.0235095 0)
(-2.57093 0.0216906 7.53785e-20)
(-2.58188 0.019879 2.47852e-20)
(-2.59181 0.0180747 -2.44269e-20)
(-2.60072 0.0162776 0)
(-2.60859 0.0144876 -2.36754e-20)
(-2.61542 0.0127043 2.32972e-20)
(-2.62119 0.010927 2.29026e-20)
(-2.6259 0.00915542 0)
(-2.62955 0.00739293 0)
(-2.63215 0.00565348 0)
(-2.63372 0.00395542 2.12379e-20)
(-2.63425 0.00226853 0)
(-2.63359 0.000594614 -4.07372e-20)
(-2.63176 -0.00106687 -5.97296e-20)
(-2.62876 -0.00270867 3.8908e-20)
(-2.62456 -0.00433353 0)
(-2.61915 -0.00593928 1.85298e-20)
(-2.61253 -0.00752597 0)
(-2.60469 -0.00909186 3.50487e-20)
(-2.59562 -0.0106359 -1.70537e-20)
(-2.58532 -0.0121565 -1.65464e-20)
(-2.57379 -0.0136522 0)
(-2.56102 -0.0151215 -4.63798e-20)
(-2.54701 -0.0165629 2.98855e-20)
(-2.53177 -0.017975 1.43642e-20)
(-2.51529 -0.0193562 0)
(-2.49759 -0.020705 1.3271e-20)
(-2.47866 -0.0220201 3.82471e-20)
(-2.45852 -0.0233 0)
(-2.43716 -0.0245435 2.32939e-20)
(-2.41462 -0.0257491 2.21638e-20)
(-2.39088 -0.0269157 2.10269e-20)
(-2.36598 -0.0280418 0)
(-2.33992 -0.0291263 0)
(-2.31272 -0.0301681 0)
(-2.2844 -0.0311667 -8.27603e-21)
(-2.25499 -0.0321219 -7.57352e-21)
(-2.2245 -0.0330348 0)
(-2.19295 -0.033911 -1.29546e-20)
(-2.16036 -0.0347627 -1.1796e-20)
(-2.12672 -0.035599 0)
(-2.09203 -0.0364087 -9.35198e-21)
(-2.05638 -0.0371552 -1.66667e-20)
(-2.01983 -0.0378162 7.05373e-21)
(-1.98239 -0.0384108 6.18224e-21)
(-1.94408 -0.0389505 0)
(-1.90495 -0.0394383 0)
(-1.86501 -0.0398814 0)
(-1.82431 -0.0402777 1.42168e-21)
(-1.78288 -0.0406257 -5.9727e-22)
(-1.74076 -0.0409275 1.25867e-21)
(-1.69797 -0.0411855 -1.84455e-21)
(-1.65457 -0.0414008 2.63483e-21)
(-1.61057 -0.0415751 3.96207e-21)
(-1.56602 -0.0417106 0)
(-1.52095 -0.0418093 0)
(-1.47538 -0.0418737 -6.7649e-21)
(-1.42935 -0.0419068 0)
(-1.38288 -0.0419117 0)
(-1.336 -0.0418913 1.96817e-20)
(-1.28873 -0.0418483 0)
(-1.2411 -0.0417847 1.15904e-20)
(-1.19311 -0.0417017 -1.2766e-20)
(-1.14479 -0.0416011 0)
(-1.09615 -0.0414856 1.4289e-20)
(-1.04721 -0.0413591 0)
(-0.997979 -0.0412261 0)
(-0.948453 -0.0410919 -1.70823e-20)
(-0.898631 -0.0409617 3.55439e-20)
(-0.848505 -0.0408408 -1.86903e-20)
(-0.798058 -0.0407343 0)
(-0.747267 -0.0406474 0)
(-0.696105 -0.0405847 2.07422e-20)
(-0.644537 -0.0405508 0)
(-0.592519 -0.0405498 2.21932e-20)
(-0.540005 -0.0405855 0)
(-0.486942 -0.0406606 0)
(-0.43327 -0.0407771 0)
(-0.37893 -0.0409352 2.51504e-20)
(-0.323859 -0.0411339 0)
(-0.267995 -0.0413696 -2.64307e-20)
(-0.211279 -0.041635 0)
(-0.15367 -0.0419161 0)
(-0.0951177 -0.0421895 5.62837e-20)
(-0.0357103 -0.0424213 -5.74542e-20)
(0.0247837 -0.0425067 0)
(0.0852392 -0.042501 0)
(0.148263 -0.0415531 0)
(0.205168 -0.0413372 1.85304e-19)
(0.275114 -0.0361776 0)
(0.312684 -0.0274318 -1.2758e-19)
(0.0167393 0.0984183 -2.24973e-24)
(0.0447206 0.180328 4.77757e-20)
(0.0615553 0.163431 0)
(0.074129 0.104579 -4.71316e-20)
(0.0908298 0.0373533 0)
(0.12144 -0.0309813 0)
(0.17093 -0.106258 1.87858e-23)
(0.231554 -0.180485 2.26823e-20)
(0.295069 -0.239186 2.23955e-20)
(0.354311 -0.273115 2.20421e-20)
(0.404719 -0.280231 0)
(0.444033 -0.263645 0)
(0.472141 -0.228555 -2.12871e-20)
(0.489763 -0.180521 -4.20933e-20)
(0.498091 -0.125085 4.16525e-20)
(0.49848 -0.0664472 0)
(0.49197 -0.00752874 4.094e-20)
(0.479104 0.0491993 -2.01791e-20)
(0.460813 0.102239 0)
(0.438051 0.149324 4.01023e-20)
(0.411694 0.18797 1.98896e-20)
(0.381829 0.214404 -3.98144e-20)
(0.347685 0.224991 -1.9823e-20)
(0.308127 0.216872 0)
(0.265645 0.183525 3.94248e-20)
(0.224119 0.119697 3.92528e-20)
(0.185052 0.0320214 0)
(0.157234 -0.0757286 3.86794e-20)
(0.140147 -0.171582 0)
(0.109287 -0.193082 3.78308e-20)
(0.0542936 -0.144299 1.88837e-20)
(-0.0344782 -0.0393205 0)
(-0.14981 0.108374 0)
(-0.30241 0.245573 0)
(-0.467731 0.348027 0)
(-0.600322 0.41847 0)
(-0.717875 0.453063 0)
(-0.811748 0.466057 3.50684e-20)
(-0.885891 0.469425 -5.18496e-20)
(-0.9469 0.455724 0)
(-0.999022 0.430207 0)
(-1.04733 0.399033 0)
(-1.09247 0.365404 -2.99832e-22)
(-1.13641 0.332521 3.24927e-20)
(-1.17912 0.301674 6.46739e-20)
(-1.221 0.273781 -6.4146e-20)
(-1.26196 0.24905 -3.19108e-20)
(-1.30204 0.227485 3.15455e-20)
(-1.34119 0.208876 9.76618e-23)
(-1.37939 0.19293 3.12359e-20)
(-1.41665 0.17932 0)
(-1.45301 0.167714 3.08385e-20)
(-1.48852 0.157813 2.05204e-23)
(-1.52323 0.149356 0)
(-1.55723 0.142109 0)
(-1.59058 0.135865 -3.01042e-20)
(-1.62333 0.130452 0)
(-1.65553 0.125725 0)
(-1.68722 0.121552 2.95476e-20)
(-1.71843 0.11782 5.87979e-20)
(-1.7492 0.114431 -2.92564e-20)
(-1.77953 0.111305 0)
(-1.80944 0.108373 2.8904e-20)
(-1.83894 0.105579 0)
(-1.86803 0.102878 2.84622e-20)
(-1.89668 0.100232 2.83587e-20)
(-1.92489 0.0976112 -5.62606e-20)
(-1.95264 0.0949928 -2.78987e-20)
(-1.9799 0.0923596 0)
(-2.00664 0.0896992 5.50979e-20)
(-2.03283 0.0870038 0)
(-2.05844 0.084269 8.14668e-20)
(-2.08345 0.0814938 5.38656e-20)
(-2.10781 0.0786794 5.34366e-20)
(-2.13151 0.0758287 -5.29975e-20)
(-2.1545 0.0729462 7.88571e-20)
(-2.17678 0.070037 0)
(-2.1983 0.0671066 0)
(-2.21905 0.0641604 -5.11317e-20)
(-2.23901 0.0612036 -7.59834e-20)
(-2.25816 0.0582407 0)
(-2.27647 0.0552757 2.48297e-20)
(-2.29393 0.0523118 0)
(-2.31052 0.0493518 -7.28096e-20)
(-2.32623 0.0463978 -4.31039e-23)
(-2.34105 0.0434515 3.9438e-23)
(-2.35495 0.0405144 4.67996e-20)
(-2.36792 0.0375875 0)
(-2.37994 0.0346718 -4.55801e-20)
(-2.39101 0.0317684 -2.35926e-23)
(-2.40111 0.0288782 0)
(-2.41022 0.0260018 0)
(-2.41834 0.02314 0)
(-2.42545 0.0202933 4.22893e-20)
(-2.43153 0.0174621 0)
(-2.43658 0.0146469 0)
(-2.44059 0.0118486 0)
(-2.44354 0.00906826 0)
(-2.44541 0.00630568 0)
(-2.4462 0.00356292 3.78634e-20)
(-2.44589 0.000861458 0)
(-2.44446 -0.0018254 3.6244e-20)
(-2.44188 -0.00449885 3.54236e-20)
(-2.43814 -0.00715266 -3.45892e-20)
(-2.43325 -0.00978366 0)
(-2.42717 -0.0123877 -3.28795e-20)
(-2.41992 -0.0149622 0)
(-2.41148 -0.0175044 -3.11173e-20)
(-2.40184 -0.0200118 3.02174e-20)
(-2.391 -0.0224819 8.80553e-20)
(-2.37895 -0.0249121 0)
(-2.3657 -0.0273001 8.24995e-20)
(-2.35124 -0.0296433 2.66677e-20)
(-2.33557 -0.0319393 0)
(-2.3187 -0.0341856 4.93482e-20)
(-2.30063 -0.0363799 4.74096e-20)
(-2.28135 -0.0385198 -6.80828e-20)
(-2.26089 -0.0406031 0)
(-2.23924 -0.0426276 -2.06433e-20)
(-2.21642 -0.044591 -1.96411e-20)
(-2.19243 -0.0464913 -5.61255e-20)
(-2.1673 -0.0483261 0)
(-2.14102 -0.050093 0)
(-2.11363 -0.0517898 0)
(-2.08513 -0.0534138 -1.48104e-20)
(-2.05554 -0.0549626 0)
(-2.02489 -0.0564331 0)
(-1.9932 -0.0578238 1.14851e-20)
(-1.96048 -0.0591344 1.04594e-20)
(-1.92674 -0.0603679 0)
(-1.89201 -0.0615411 0)
(-1.85634 -0.0626608 1.47857e-20)
(-1.81977 -0.0637016 0)
(-1.78232 -0.0646545 -1.07339e-20)
(-1.74401 -0.065524 -9.00972e-21)
(-1.70487 -0.0663113 0)
(-1.66495 -0.0670234 0)
(-1.62426 -0.0676592 3.06012e-21)
(-1.58284 -0.0682183 -2.90434e-22)
(-1.54074 -0.0687027 -2.90673e-22)
(-1.49797 -0.0691152 0)
(-1.45458 -0.0694584 -9.57354e-21)
(-1.41059 -0.0697348 0)
(-1.36605 -0.0699477 0)
(-1.32099 -0.0701005 0)
(-1.27542 -0.0701973 1.22932e-20)
(-1.2294 -0.0702427 0)
(-1.18293 -0.0702415 -3.10862e-20)
(-1.13605 -0.0701988 -1.75528e-20)
(-1.08877 -0.0701188 0)
(-1.04113 -0.0700048 -2.09238e-20)
(-0.99313 -0.069859 0)
(-0.944798 -0.0696842 0)
(-0.896148 -0.0694851 -7.67627e-20)
(-0.847194 -0.0692678 5.41133e-20)
(-0.797943 -0.06904 0)
(-0.748399 -0.0688098 6.0175e-20)
(-0.698561 -0.068586 -3.18201e-20)
(-0.648419 -0.0683769 0)
(-0.597958 -0.0681908 0)
(-0.54716 -0.068036 0)
(-0.495996 -0.06792 -1.11735e-19)
(-0.444433 -0.0678502 0)
(-0.392432 -0.0678335 -4.00452e-20)
(-0.339947 -0.0678759 0)
(-0.286928 -0.067982 0)
(-0.233318 -0.0681548 0)
(-0.179059 -0.068395 0)
(-0.12409 -0.0687009 0)
(-0.0683513 -0.0690671 0)
(-0.0117842 -0.0694824 -9.64302e-20)
(0.045656 -0.0699265 0)
(0.104021 -0.0703641 -5.05858e-20)
(0.163259 -0.0707439 1.54327e-19)
(0.223542 -0.0709376 0)
(0.284125 -0.0709127 0)
(0.346694 -0.06996 -1.08647e-19)
(0.405896 -0.068935 -1.10994e-19)
(0.473501 -0.0637507 1.12666e-19)
(0.52264 -0.0534336 1.15024e-19)
(0.00173224 0.0269146 -7.21843e-20)
(0.0265912 0.0976419 -7.17287e-20)
(0.0490931 0.100799 -4.7415e-20)
(0.0831406 0.0549602 -2.34902e-20)
(0.143136 -0.0335416 0)
(0.225329 -0.146038 4.60492e-20)
(0.313549 -0.25327 -2.27385e-20)
(0.394013 -0.332913 0)
(0.4574 -0.375291 -2.20724e-20)
(0.500568 -0.380599 0)
(0.525006 -0.35516 4.30725e-20)
(0.534701 -0.307965 0)
(0.534103 -0.247693 2.08198e-20)
(0.526913 -0.18093 4.11328e-20)
(0.515599 -0.112065 -4.07039e-20)
(0.501565 -0.0437286 0)
(0.485085 0.0224389 -4.00483e-20)
(0.466562 0.0851091 0)
(0.44607 0.142954 0)
(0.423378 0.194237 -3.93541e-20)
(0.398364 0.236857 0)
(0.370704 0.267797 -1.27031e-22)
(0.339859 0.283342 0)
(0.305256 0.278744 0)
(0.26673 0.247007 -6.68869e-23)
(0.224434 0.182811 -3.89257e-20)
(0.180477 0.0882593 -3.85874e-20)
(0.137294 -0.0293632 -3.84292e-20)
(0.0704592 -0.0906194 0)
(-0.0357812 -0.0441663 -7.53659e-20)
(-0.181074 0.091966 0)
(-0.34648 0.253213 -3.70606e-20)
(-0.494265 0.384665 0)
(-0.618873 0.474022 0)
(-0.720435 0.528268 3.57423e-20)
(-0.7966 0.557868 0)
(-0.856751 0.564943 -3.4718e-20)
(-0.902645 0.556621 2.23757e-22)
(-0.939502 0.539526 6.71495e-20)
(-0.970316 0.513642 -6.63458e-20)
(-0.998733 0.48259 0)
(-1.02661 0.449138 0)
(-1.05493 0.415269 -3.19399e-20)
(-1.08426 0.382669 0)
(-1.11455 0.352208 -3.06899e-20)
(-1.14571 0.324444 3.03583e-20)
(-1.17745 0.299545 3.00558e-20)
(-1.20954 0.277499 0)
(-1.24175 0.258151 -2.95179e-20)