/*--------------------------------*- C++ -*----------------------------------*\
| =========                 |                                                 |
| \\      /  F ield         | OpenFOAM: The Open Source CFD Toolbox           |
|  \\    /   O peration     | Version:  2112                                  |
|   \\  /    A nd           | Website:  www.openfoam.com                      |
|    \\/     M anipulation  |                                                 |
\*---------------------------------------------------------------------------*/
FoamFile
{
    version     2.0;
    format      ascii;
    arch        "LSB;label=32;scalar=64";
    class       volScalarField;
    location    "0.13";
    object      k_0;
}
// * * * * * * * * * * * * * * * * * * * * * * * * * * * * * * * * * * * * * //

dimensions      [0 2 -2 0 0 0 0];

internalField   nonuniform List<scalar> 
122250
(
506.253
283.451
304.523
293.166
281.514
267.471
156.824
183.617
244.418
192.008
119.691
150.634
146.929
93.3748
69.5909
59.0858
48.0148
39.2365
362.392
220.436
218.47
156.865
79.0078
77.4198
38.7306
36.6767
75.7481
74.2188
46.8823
34.1049
46.2023
63.7478
58.4079
35.3436
30.8528
33.1471
330.463
191.321
206.332
102.704
31.3568
26.9997
15.4031
11.5409
23.6628
31.5539
24.1983
14.6975
16.0007
22.4796
20.748
16.3245
14.6678
16.2348
311.832
196.788
191.463
70.268
24.4014
11.8019
5.84969
4.1705
8.57558
12.378
8.77919
7.16825
10.248
15.281
14.8985
11.4882
9.34754
9.51618
295.498
213.051
186.883
61.6833
20.8147
9.0608
4.16417
2.16586
2.17131
3.4865
4.24199
5.80779
7.93179
9.65696
9.40966
7.6576
7.84367
9.77272
280.37
230.818
184.338
54.7549
19.3897
8.74934
3.85916
2.04404
1.56355
1.69146
2.30247
4.08312
5.55478
6.63019
7.27499
8.396
11.3947
13.3112
267.464
236.976
179.381
52.3131
19.1084
8.88537
3.8193
2.27155
1.64435
1.55954
1.80424
2.81289
4.16393
5.4986
7.40168
11.3187
13.5511
13.4548
257.598
233.867
176.81
52.216
19.4387
8.91924
4.62276
3.12932
2.25448
1.83445
1.80273
2.49775
3.7714
5.04332
6.61601
9.32815
11.1414
11.0645
251.796
227.21
174.891
53.8145
20.1909
9.30842
5.49348
4.01024
2.64562
1.82263
1.95062
2.53936
3.27288
3.93871
4.4713
5.30819
6.08535
6.0965
251.653
221.352
175.002
56.4632
21.4475
10.0003
6.19347
4.75831
2.76744
1.32794
2.07174
2.43405
2.81078
3.47096
3.98293
4.47285
4.60962
4.51774
258.874
220.776
179.745
59.4992
23.6536
11.2237
6.99332
5.30162
2.41824
1.05254
1.63507
2.00015
2.39789
3.41916
3.2153
3.7745
4.53408
4.52445
275.135
239.398
189.512
60.6004
26.5675
12.6565
7.74567
5.3036
1.82031
1.07353
1.42803
1.61524
2.21547
2.8647
1.78742
1.88432
4.05713
4.52525
302.105
263.778
198.509
61.5775
28.8363
13.6945
8.16442
4.71979
1.66021
1.26637
1.44618
1.56537
1.74027
1.64678
1.18259
1.17375
1.94951
3.14456
344.186
295.888
201.184
61.6191
30.2423
13.4513
6.91906
3.18323
2.04241
1.61506
1.28146
1.22606
1.19893
1.14395
1.06026
1.01841
1.06808
1.2104
400.609
326.908
198.02
60.6981
30.3062
11.6586
5.70437
4.53411
9.73712
8.70431
5.29169
4.06416
2.61581
1.87452
1.49064
1.29754
1.32744
1.37963
468.15
354.687
199.009
60.0298
28.5858
12.6046
16.4608
8.68552
23.9332
20.2773
14.6242
12.7129
11.7711
8.98432
5.43682
3.03452
2.2005
1.98637
545.972
373.325
227.713
70.2155
31.7049
31.9182
66.8108
46.9271
33.3378
20.8653
14.9592
13.8263
14.9644
15.5016
14.1949
10.862
4.07691
3.43626
612.868
361.623
320.01
210.722
61.7126
64.0727
70.9908
63.5331
34.3561
20.2061
11.2154
9.32313
9.55904
11.2833
13.6122
11.6292
6.88798
6.94257
619.94
338.468
335.976
245.306
91.3274
114.968
112.058
94.1824
39.8352
17.5925
18.2104
20.5056
19.006
19.1395
21.6686
22.3238
22.8003
25.1773
653.858
347.863
327.906
294.366
261.355
220.907
124.172
54.1414
23.6286
16.4139
20.0281
33.7904
35.6105
33.255
33.6295
35.0767
35.0578
35.2679
491.931
352.927
337.65
222.043
166.66
103.343
57.1753
31.7451
30.958
29.588
24.182
20.3771
22.2177
28.7535
35.8067
41.7719
42.0681
41.4171
404.373
299.215
265.072
93.3351
32.4611
24.9416
25.2107
30.3363
38.0513
32.9134
17.7088
11.3519
10.3078
10.9905
11.4495
12.8186
14.1617
15.9662
352.434
265.173
242.541
84.279
26.2776
17.6203
21.9825
34.7342
32.0329
18.3922
9.48806
5.63301
4.77429
5.36523
6.87444
10.4942
15.1602
15.5124
328.449
241.649
220.977
85.5373
28.4405
15.3467
22.3789
34.8236
32.6736
20.2486
8.73765
4.16327
3.19802
3.70568
5.57949
8.65903
12.8102
12.0683
326.303
212.23
208.565
101.418
33.5455
22.6879
34.5729
36.2948
30.7475
15.1231
7.23774
4.61387
3.25254
3.01452
2.9811
3.52766
5.96438
5.95743
344.826
169.534
201.236
108.441
47.2224
23.0671
27.1418
28.5809
18.3341
12.2161
7.86622
5.65335
3.38249
3.08102
2.81278
3.02151
3.75907
3.50869
363.01
141.168
190.788
90.1538
40.1225
21.7983
17.6749
18.4795
11.6556
13.0477
5.74298
4.04959
2.94835
3.18417
2.80652
2.94968
3.65833
3.18194
357.87
129.192
169.114
61.0969
29.2174
16.2161
11.4142
11.1535
6.12369
4.48031
3.27218
2.94092
2.92208
3.10734
2.80125
2.17718
2.68914
2.88166
341.123
103.985
110.509
35.6576
27.4193
21.6018
13.3803
6.4481
5.09408
5.00561
3.46367
2.74158
2.82781
3.37807
2.83676
2.07113
1.64725
2.0965
418.138
117.967
95.8374
42.4531
51.8764
42.4196
22.6054
7.4973
7.1016
7.09094
6.57013
6.65796
6.7541
6.5
5.45643
4.24547
3.45128
2.84762
438.292
203.908
218.733
212.576
239.584
222.187
202.473
218.544
210.006
115.666
95.0103
112.938
106.397
84.9367
75.4482
66.2698
62.5577
58.8872
332.371
156.066
160.021
76.3715
85.1204
59.599
45.4556
75.9043
73.9186
38.7208
18.7816
30.9813
62.4974
63.5463
42.5878
26.872
30.5715
31.2927
329.435
151.751
167.078
55.3845
26.7168
16.538
16.2553
27.0781
27.143
16.5779
10.0374
13.8296
27.9202
27.0367
15.0964
9.18199
10.0236
14.2564
326.745
154.473
174.324
68.8731
32.0624
14.2644
11.1361
14.4739
13.0586
6.81887
6.07593
9.7674
13.3827
12.8666
8.46833
5.54311
5.41364
6.59155
314.155
164.146
175.381
72.7906
30.6191
13.5295
6.21917
3.82404
3.59769
2.76989
2.88791
3.62429
4.31955
4.73507
4.58107
4.41617
4.85028
5.82467
295.967
180.969
178.019
78.5629
34.0267
14.2611
5.89034
2.31296
2.15555
2.34209
2.28976
2.42243
2.9108
3.44985
3.80954
4.23426
5.3773
6.5795
278.863
202.244
179.083
68.6362
25.9117
11.1842
5.63463
2.59325
2.5488
3.31062
2.59245
2.63555
2.81658
3.27539
3.74227
4.28255
5.2922
6.25147
265.562
221.122
179.077
61.2478
21.9893
10.1297
5.22698
3.61785
3.91751
3.89865
2.5324
2.67299
2.95742
3.32468
3.36194
3.77866
4.43863
5.0579
257.2
227.233
178.77
58.1227
20.1942
9.7697
5.02582
3.93293
4.55669
4.04567
2.12975
2.35779
2.93308
3.33083
2.62214
2.94264
3.75021
4.38427
255.064
226.472
179.631
57.8304
20.1347
10.0369
5.60444
4.48128
4.93936
3.0017
1.75653
2.0991
2.80844
3.32962
1.92562
2.31922
3.48248
4.05273
260.548
224.244
182.393
59.5011
22.0431
11.2789
6.68357
5.25643
5.05858
1.84718
1.42897
1.77586
2.55649
2.79334
1.44031
1.91158
3.6626
4.19795
275.179
235.288
189.742
60.3443
25.3894
13.0617
7.78551
6.05711
3.72861
1.2534
1.27554
1.46477
1.89969
1.77415
1.3032
1.43301
2.92011
4.34414
301.055
262.787
199.949
61.3381
28.188
14.4697
8.90919
6.01225
2.06805
1.15529
1.33148
1.27366
1.33516
1.41771
1.49812
1.35545
1.55355
2.17421
342.425
296.699
202.914
61.1371
29.9029
14.4752
7.87559
3.81916
1.7583
1.23833
1.16194
1.07098
1.18167
1.70705
2.28721
1.95428
1.39695
1.21394
398.064
329.05
198.369
60.2212
30.2546
12.3811
5.61996
4.59145
8.2968
4.9359
4.45597
2.40638
1.7267
1.86803
2.6181
2.65752
2.34411
2.14726
462.777
354.304
196.992
59.6352
28.8042
12.0719
12.9043
8.15191
25.6622
17.5153
12.3165
10.7468
6.63988
4.34671
3.84794
4.30598
3.42481
2.76902
532.867
370.599
207.324
59.4654
27.8728
25.3756
45.6923
31.9057
29.6221
20.1254
13.1565
12.8985
13.0049
12.2323
10.0283
5.87604
4.5697
6.03007
599.909
330.038
303.527
187.997
45.1544
38.706
39.2856
38.9942
20.5866
13.7632
8.79934
8.3489
9.18226
10.888
10.4846
7.82183
8.38572
12.9035
638.847
301.745
328.31
235.769
96.9407
119.983
107.197
45.0651
14.7184
11.3496
13.5131
16.7355
23.366
29.7396
30.4844
30.1696
31.6084
34.6534
652.093
350.157
321.987
257.402
248.271
213.903
108.034
32.2699
12.3073
8.97
13.9645
30.0582
38.3715
39.1943
40.6446
41.7589
42.1482
41.7503
498.529
363.946
333.4
243.727
134.078
71.6407
32.3539
18.0821
15.9797
14.5537
15.2917
16.5461
18.6894
20.5316
24.3847
35.2279
44.6131
46.827
406.902
304.169
259.202
96.7982
37.5653
20.615
20.9582
25.3459
21.0236
19.4073
19.1229
21.2714
22.2942
22.2171
21.6565
22.1228
22.0342
20.9991
353.265
266.394
237.81
88.4132
30.0719
14.1889
21.6028
27.288
19.1585
10.8465
7.44121
5.72616
4.7379
4.96261
6.98071
13.061
15.4314
15.1162
329.254
243.409
214.548
85.0921
28.895
13.5354
25.191
31.0127
23.6514
12.6026
7.22669
5.37779
3.67056
3.54527
4.53763
9.91691
13.0495
12.8355
326.807
212.486
204.086
90.3487
30.2024
20.7693
30.4099
27.7616
20.8424
11.3002
12.7757
11.3613
5.57608
3.86304
3.30491
5.05751
9.62029
9.43219
344.816
169.148
198.18
88.8772
38.9636
33.3868
33.9362
28.1442
28.1072
29.6898
28.953
19.3492
6.81385
4.37858
4.38923
4.20876
5.71759
4.89515
363.524
140.159
182.369
77.5364
54.0503
54.9386
27.1273
26.252
15.5584
22.3914
21.6151
12.7645
3.6564
3.58485
5.38583
3.96013
3.60058
2.96467
358.94
128.917
158.362
56.483
33.0199
15.8052
11.1669
8.85768
6.63557
7.2337
4.29192
3.26026
2.08347
2.28872
4.28928
3.73296
2.71329
2.2738
342.027
109.446
108.809
44.2067
37.116
26.8869
19.6325
6.84129
6.70961
7.24874
3.77921
2.88989
2.28716
1.95641
1.77743
2.36811
2.2791
1.93579
400.973
126.165
105.806
47.9498
56.4592
56.3848
32.1813
8.87161
9.84964
11.0584
7.47831
6.1869
5.48249
4.33497
3.96724
3.40544
2.90483
2.60317
450.666
172.029
169.153
144.013
209.698
193.197
98.9734
101.777
78.9212
76.7258
96.3197
100.467
86.3123
77.2553
69.17
61.6492
57.2681
54.6968
311.41
126.199
139.942
66.9627
70.1612
31.4385
35.6979
34.3753
18.7884
14.1188
18.5933
40.6688
62.8627
63.5489
45.8288
37.4595
42.5716
44.5712
327.599
135.014
162.076
63.5541
39.6278
15.7517
12.8018
10.9811
8.63869
7.58452
7.91337
11.4844
24.2616
28.2261
22.2174
12.3778
11.5829
16.2566
341.025
147.263
169.682
79.2989
42.6956
15.2754
8.60699
8.12616
6.46324
6.40028
6.48964
7.12036
9.44588
11.0158
9.30285
6.60495
6.21921
6.71553
341.509
153.534
173.905
90.2024
48.2115
19.0807
10.2706
7.39777
6.02378
6.23189
5.96582
5.48154
5.83857
6.51209
6.13798
5.14036
5.09587
5.5531
329.674
158.019
176.396
95.8528
49.0432
20.3285
11.601
8.36016
6.90473
5.42444
4.89394
4.51035
4.07135
4.02012
3.83254
3.70639
3.73995
3.93648
304.662
171.602
177.506
97.7059
44.6246
17.2302
8.25786
4.62163
3.90963
4.51564
5.60869
4.86636
3.63682
3.37952
3.20898
3.09085
3.04279
3.06865
282.304
198.133
181.294
78.3636
30.3316
11.2698
5.46517
4.06757
4.24762
5.63584
6.42245
4.93683
3.31777
2.96837
2.61235
2.45353
2.43055
2.59962
267.285
216.468
182.4
66.1607
21.6573
9.02339
4.27237
3.62875
4.01857
5.76952
6.40866
3.89466
2.8504
2.6301
2.01347
2.02401
2.18771
2.58794
260.791
224.972
182.942
60.7346
18.7298
9.4392
5.27741
3.99372
4.27069
6.12415
4.7579
2.49811
2.61625
2.30397
1.69175
1.75731
2.18528
2.87813
263.489
226.703
184.467
59.9915
20.7856
11.3408
7.58838
4.78535
4.98682
6.33183
2.44189
2.08395
2.35076
1.9218
1.56586
1.61427
2.58548
3.37991
275.862
233.391
188.272
60.4849
25.1289
13.7792
8.84293
5.5767
5.94742
4.01452
1.73173
1.7846
1.99108
1.77866
1.54638
1.53721
2.6269
3.7482
299.983
253.196
196.593
62.2846
28.9003
15.4538
9.47986
6.54852
4.19072
1.91278
1.67047
1.63921
1.77663
1.82893
1.97545
1.67832
1.5912
2.0814
340.024
286.916
199.906
62.4212
31.2378
15.6298
8.34978
4.61394
2.05573
1.50937
1.53185
1.62524
1.9581
2.33759
2.98029
2.15879
1.46919
1.22609
394.325
314.027
196.651
62.3729
31.8888
13.3818
5.35391
3.83657
4.6778
2.58332
2.90454
2.0613
2.30988
3.79716
4.65017
3.15033
2.07298
1.70029
457.494
333.464
196.615
63.1057
31.161
10.6099
7.14621
7.82118
18.7583
10.3731
9.2487
6.83608
4.43805
4.06827
5.50956
5.68325
4.22736
2.94739
530.021
342.903
198.505
56.2661
23.5836
16.0248
21.4819
19.1639
18.94
15.6166
10.5033
10.2509
9.96663
8.35708
6.26458
5.40679
6.63374
7.80953
615.975
221.83
182.967
65.5742
26.6828
26.051
42.8004
22.1831
11.4648
10.9666
9.28677
8.50067
7.92699
7.35873
6.68319
6.87986
9.5929
11.8636
653.064
234.252
280.508
153.122
122.361
122.596
110.777
40.7777
12.7609
11.1559
15.2968
19.6426
26.3711
27.4957
27.0672
28.4049
27.1168
21.4167
613.495
417.787
340.198
214.13
200.982
173.022
62.993
22.0351
11.154
8.07986
12.1631
20.1979
32.1912
37.0018
37.0064
29.2933
21.9939
19.3092
499.133
369.094
271.044
148.462
70.331
33.843
18.7751
15.1868
12.2498
10.5452
12.091
12.671
13.0407
14.9006
17.3004
19.3843
23.353
27.5876
409.589
306.451
258.736
97.231
34.3114
16.5269
20.2911
22.5887
15.871
17.1077
21.279
21.2219
19.7071
18.9624
18.827
18.8022
18.4064
17.8739
355.349
271.049
243.48
96.2353
34.5414
15.0903
22.4858
23.4991
15.7819
13.0936
11.5545
7.98539
5.16649
4.95679
6.8608
12.1378
14.0916
15.0328
330.431
246.779
217.925
88.7566
30.8705
15.217
26.2021
29.231
21.6264
12.2011
9.40297
7.09456
4.12596
3.62163
4.72701
9.87522
13.2626
13.2237
327.125
213.993
203.995
87.9535
34.4203
19.2597
30.2545
29.5592
19.6188
12.1844
10.2168
9.06537
5.64577
3.64599
3.61933
5.89714
9.95242
9.85924
343.723
170.14
197.275
82.5797
37.0677
30.0081
37.3193
26.9522
19.9896
16.4045
15.8545
14.1481
6.74365
4.6091
4.11853
4.67785
6.45933
6.05833
368.908
134.79
175.925
66.6824
51.5161
59.2074
63.2347
34.3977
17.8191
21.0664
22.2847
15.3973
4.96
4.47531
5.52851
4.32273
4.29645
4.24158
374.382
122.861
144.324
54.9994
41.7313
32.3383
46.9565
24.6658
12.5466
15.6744
15.1635
10.1975
2.77161
2.72735
5.37246
4.10779
3.40237
3.18282
373.139
106.002
92.2792
42.3396
34.2016
36.4737
18.7273
13.7218
14.962
12.1043
9.03558
2.96364
1.72189
2.42836
2.87183
2.91652
2.55686
2.33815
500.723
119.556
104.799
46.4009
51.7089
63.6316
40.6481
29.1331
25.0692
17.7927
10.0834
4.61659
3.98415
3.99336
3.82391
3.46105
3.02758
2.83695
349.844
141.438
131.205
103.339
122.803
155.438
144.875
130.646
98.4634
89.1014
100.495
93.7553
94.0022
87.6448
71.8426
67.2576
65.3049
63.2624
328.926
111.686
126.192
62.6986
76.4062
101.997
58.9596
45.0548
31.8913
40.4603
37.7343
37.4597
47.1554
59.7955
61.1993
60.1017
57.4836
50.8801
329.288
116.71
139.644
60.8983
68.43
62.2527
29.739
21.821
20.0328
16.6473
12.4268
16.3223
20.4624
26.414
27.2484
25.2979
24.3064
25.3609
342.761
123.994
147.456
59.1856
56.4623
20.9528
16.1248
20.4372
18.6404
12.7835
13.4549
14.8704
15.4483
15.5153
14.8603
14.3629
14.6387
15.8178
353.23
140.13
166.121
58.5846
38.2381
19.0757
18.479
18.8771
17.8272
17.3823
15.8782
14.3814
12.5272
11.8856
12.0189
12.3465
13.2971
13.5843
348.504
145.272
175.095
82.5218
32.1601
19.7105
19.9454
21.7602
20.8944
16.6106
10.3399
9.22978
8.54091
7.36097
7.25668
7.60145
8.61146
8.97194
327.436
156.215
178.556
99.5717
48.3855
17.868
12.7755
8.98828
7.01009
6.77938
7.32966
8.00938
8.07078
6.77191
5.98633
5.93989
5.91037
5.71942
298.19
180.766
180.223
98.9233
47.5197
17.3046
9.41474
6.67683
5.35082
5.48124
6.50016
7.18119
7.18513
5.79238
4.1916
3.4357
2.75699
2.37941
276.825
205.471
183.063
75.0622
31.8728
10.4419
4.65594
3.76438
3.82083
4.19204
5.44295
6.41914
6.44945
5.15872
3.12736
2.28605
2.05147
2.09588
266.075
221.573
183.947
63.8915
19.7611
7.49396
3.46408
3.78577
3.97078
4.54261
5.70114
6.2992
6.17599
4.44763
2.79522
2.02037
2.03235
2.44161
266.27
226.733
184.742
60.8607
19.551
10.1985
6.86609
6.24691
5.4915
5.7992
6.11314
6.18231
5.53208
3.90944
2.52462
1.72043
2.17446
2.82193
276.912
235.132
187.609
60.9162
25.2599
13.7479
8.91876
6.38119
6.36051
6.25374
5.89648
5.65362
4.3374
3.50015
2.19067
1.60169
2.59126
2.93525
299.825
251.117
193.996
63.3318
30.0921
15.5027
9.42872
7.0833
6.60969
5.69714
5.02292
3.89585
3.64057
2.8836
2.1025
1.77169
2.62151
3.44148
338.956
281.232
196.658
64.6337
33.1831
15.9825
8.75129
6.43426
3.53393
3.17705
2.69462
3.15904
2.95734
2.6555
2.88367
1.7643
1.43748
1.77654
392.822
304.977
194.304
66.4889
33.783
13.8299
5.52374
4.04028
2.98439
2.44663
2.43537
2.57241
2.87361
4.20559
6.62066
4.34859
1.85759
1.28043
457.302
315.073
192.503
71.6815
35.0851
10.4146
6.42162
5.89423
9.84404
5.30683
5.15093
3.98585
3.58576
4.54618
8.43304
8.7441
7.61626
4.65442
537.012
291.371
184.59
46.6101
21.9523
16.5023
23.8408
15.5032
15.2525
13.3046
9.57963
7.06166
5.74441
5.31211
5.7815
6.55295
7.56853
8.1539
619.196
197.65
96.4067
47.4924
38.4501
41.8419
52.7812
26.1041
12.5906
12.0188
12.3154
9.09884
7.12343
6.29315
6.53848
7.17198
8.30678
8.19182
638.584
188.291
150.462
136.566
118.288
108.565
100.64
54.4895
21.0635
16.7049
18.9357
22.3258
23.8729
21.717
18.9097
14.7123
10.4123
8.37562
612.036
268.192
242.069
175.071
146.982
144.157
65.1999
25.3878
13.8693
9.88719
11.1736
16.2372
19.0497
20.649
18.2185
15.6913
15.4004
14.596
505.918
351.821
269.975
153.314
74.6691
32.5484
21.8331
17.8681
14.483
10.679
10.4508
10.0967
9.54288
11.5982
13.8423
16.0062
16.8208
16.0386
412.789
316.025
280.745
114.4
39.8679
18.5629
17.9264
15.799
12.5466
14.1118
14.7837
12.9621
11.4529
11.7405
13.0189
15.2159
17.4045
18.4079
358.138
268.345
256.973
107.946
42.6436
18.287
18.8677
18.9084
15.5747
13.6093
11.8855
8.07758
5.48158
5.70059
7.7994
11.4798
13.5551
13.5191
332.353
246.141
227.716
98.9303
37.924
16.8044
23.9101
31.3647
27.7304
14.2412
7.70685
5.16612
4.54496
4.90361
7.70466
11.1699
9.34061
6.16715
327.787
218.941
208.092
95.5335
42.607
18.7868
53.1957
69.8012
58.4622
30.1643
11.8432
5.26851
4.32374
4.14377
4.3916
7.49404
8.93516
6.91681
340.596
182.07
201.068
81.5863
37.7045
26.6741
54.1899
52.5772
41.4546
18.5492
7.79516
4.25795
3.88323
5.64419
4.75167
5.00125
7.01036
6.49123
363.62
146.843
177.666
68.6273
54.252
64.0678
78.0472
48.3329
18.758
10.5784
6.95331
2.76928
2.47346
4.62708
7.0421
6.33871
6.37081
5.70493
373.305
133.266
155.39
63.8797
52.2026
49.5184
54.7502
23.2344
13.0649
11.3163
6.84116
2.37842
2.2497
2.64
3.9236
4.65028
3.95186
3.11077
376.601
117.314
97.4452
36.862
23.4852
23.2735
18.9721
16.21
7.03453
4.74454
3.72627
2.8272
3.94962
3.23142
2.71644
2.681
2.45378
2.27538
479.364
138.684
118.155
39.4026
36.4166
27.5147
26.158
26.1557
10.4281
8.15301
7.54655
6.32157
6.33858
4.92765
3.98721
3.59579
3.34121
3.28594
342.248
112.322
104.095
86.7771
90.6916
95.0458
105.918
108.335
106.428
101.444
99.9822
95.9861
97.1178
101.313
75.833
44.4497
45.9202
54.1607
315.393
95.8836
104.472
50.8029
65.7041
81.742
90.4282
93.0075
90.3093
84.8267
81.6766
73.9961
55.5327
50.7734
54.4866
50.9571
38.9206
34.9037
316.853
100.664
114.276
45.4252
51.5753
72.591
74.9631
79.9276
78.2764
73.464
66.4246
62.54
53.9116
36.3233
37.0021
42.4164
39.7492
34.9298
333.028
107.061
119.247
40.383
38.7706
50.5348
53.511
64.7391
67.106
62.8052
57.2257
54.025
48.021
31.4225
27.55
28.8106
32.6698
31.6178
348.706
120.542
140.041
40.1458
38.3381
39.615
46.5548
55.2119
55.1027
48.3621
43.1675
40.5643
35.7933
25.6929
19.5107
16.8534
17.2653
17.3074
347.879
133.487
161.742
45.6738
33.9501
27.8138
30.5164
37.1611
37.9991
34.2136
29.6262
28.2351
25.9725
19.036
12.8749
11.2549
11.1337
10.8457
331.323
145.274
174.751
71.6372
25.8446
15.0373
16.1491
21.9617
23.092
21.4755
19.2736
18.8399
17.6112
13.2774
9.88518
9.16054
8.96336
8.61806
301.308
173.795
179.342
96.8085
45.3187
14.5647
12.5507
14.5127
14.0774
12.4071
11.6394
11.497
10.4722
8.33661
6.97808
6.34872
4.96608
3.72303
278.784
205.289
182.382
75.6505
41.6826
15.6992
7.00648
6.09205
6.11242
6.57144
7.31163
7.41389
6.66146
4.7214
3.65978
2.80302
2.1497
2.09288
267.273
224.148
183.335
63.9721
23.9518
8.87387
3.90865
3.74048
4.31759
5.51756
6.00267
5.99932
5.67285
4.43729
3.46583
2.47673
2.11769
2.38906
267.062
228.862
183.627
60.8944
19.2771
8.73552
4.9923
5.37345
6.42606
6.5316
6.40499
6.17921
5.6679
4.94505
3.9788
2.2801
2.11659
2.65433
277.481
237.108
186.491
61.3571
25.2254
12.2421
7.41658
7.16644
7.40551
7.69088
7.52431
7.12027
6.14634
5.4028
3.57899
1.65049
2.15534
2.61153
300.311
253.236
192.543
64.4302
30.6957
13.8772
8.49188
7.64507
8.28869
8.33818
8.22719
7.55696
6.06039
5.14121
2.73531
1.42294
2.00248
2.29109
339.409
279.543
194.735
67.6871
34.4887
14.756
9.31056
8.62304
7.43622
7.39326
7.2208
6.63071
5.15739
4.05062
3.24198
2.07939
1.48627
1.71405
393.727
295.29
193.269
72.414
35.5527
13.7472
7.14777
5.20537
3.75421
3.71832
3.41993
3.9341
3.62088
4.73109
8.16837
7.35966
4.18286
2.2062
461.424
298.369
189.327
85.4394
41.2797
11.717
6.83712
5.60292
6.34558
4.87256
4.74516
3.89969
3.76146
5.83492
9.61325
9.6664
8.83049
6.80593
545.49
259.828
163.57
55.9652
28.1205
13.672
25.425
17.3002
16.4527
16.3299
11.9397
7.31889
5.58746
5.86153
7.74098
9.34488
8.5629
8.48055
612.102
204.231
83.9285
39.7465
35.6918
37.1505
45.3326
23.1466
19.2113
22.8774
22.5619
16.7639
11.6392
10.4685
10.3149
9.77216
8.09459
6.52628
626.309
183.088
145.481
86.9739
82.3556
69.4004
60.6697
35.2992
21.1345
22.8363
13.9251
14.159
13.5618
13.2176
11.8379
11.5192
10.1152
8.44084
611.984
230.576
237.532
136.202
87.4784
92.6213
55.3234
20.3653
16.1366
17.4796
11.4984
13.7126
15.8283
16.2478
17.2632
20.3896
23.1757
24.4743
510.463
321.374
277.33
169.483
82.4809
33.6632
22.23
18.9801
16.4127
12.1379
12.0387
11.6116
8.49508
9.72408
11.8053
15.2731
19.1017
21.4557
415.066
318.004
294.139
112.869
38.5966
16.9344
12.5982
13.6364
12.485
11.84
11.1833
8.09459
6.61423
6.91811
8.60304
12.1039
14.8591
15.1791
361.29
274.436
260.568
97.1292
37.0574
16.3119
14.7511
17.6617
17.7169
13.6137
8.42883
6.88564
6.37016
6.73274
7.67244
7.39424
7.79744
7.98679
334.63
252.417
233.648
92.7673
36.442
17.8324
24.131
40.6009
46.3693
36.4786
14.8981
7.03591
5.88819
5.72545
6.30351
6.02015
4.79476
4.28106
328.419
235.49
211.511
88.8305
48.1173
32.3951
69.6378
84.3953
71.3254
42.2807
23.1292
8.96425
5.92456
5.1198
4.61466
5.31811
5.44133
4.40281
338.448
202.862
203.359
81.1167
51.5032
70.7375
116.634
119.122
105.779
55.9952
17.6893
5.36116
4.7977
6.53779
7.64564
7.25931
6.73404
5.52346
361.056
165.219
188.857
84.7225
77.1209
62.9551
68.1707
74.3733
55.2696
24.7151
4.63384
3.16944
4.16445
5.75922
7.60624
7.59397
6.62269
4.87594
375.427
150.833
176.23
81.9445
56.5534
27.0981
23.4147
25.7178
16.2298
7.18031
2.85993
2.86859
3.81583
4.13523
3.44234
2.711
2.41808
2.21586
380.34
129.498
122.126
43.551
19.8803
13.3225
11.7181
7.37095
4.88272
3.99859
3.58604
3.69135
5.1517
5.47915
4.18595
2.68518
2.04841
2.06357
481.307
157.92
139.337
32.6818
22.8254
20.2724
18.1674
10.9808
7.18075
6.86142
7.62913
7.67172
7.96577
7.59146
6.52076
5.25479
4.5321
4.27722
340.06
132.517
121.409
86.5464
116.879
123.478
107.283
101.423
114.792
122.62
115.092
88.0291
65.9143
42.5481
25.6518
21.2848
27.3191
28.8839
330.151
104.255
116.273
51.5234
92.0477
99.2616
69.4211
46.811
53.3033
82.9049
95.1413
89.7596
65.3922
47.7026
37.1221
18.3974
12.0237
12.2645
326.934
111.49
141.607
42.4847
33.7128
30.7989
18.3964
17.7551
24.8314
51.3325
66.3606
65.5173
49.8695
31.7721
28.1547
23.6743
15.4067
9.82617
338.049
125.643
155.937
53.9494
27.1447
14.5371
12.1038
13.1825
24.299
41.5424
44.3317
41.4163
30.1313
16.9743
14.0679
13.2746
11.1343
9.27605
344.866
139.727
162.821
66.0095
33.4264
14.4853
22.6526
25.1653
32.8542
35.6544
31.3346
26.0761
19.8504
13.1048
10.4553
10.0014
9.56551
8.40484
338.92
142.983
169.808
79.9916
36.0763
13.9687
11.5839
13.9945
24.1761
27.7712
24.9565
21.1844
17.7824
13.2712
10.9426
8.70689
6.15971
5.30662
316.889
154.566
172.504
87.285
40.873
15.0099
7.6764
7.0538
11.7848
21.7118
22.5534
21.2268
18.1862
14.2615
10.4422
5.36341
3.2204
3.11268
290.799
181.55
176.216
87.7426
34.208
11.947
6.14887
4.56582
5.94135
13.2277
19.7967
19.8336
17.6763
12.8394
6.64385
2.91688
2.2253
2.20976
272.505
206.679
178.521
69.5204
24.4748
9.62228
4.62507
3.85103
4.50432
8.50034
13.6238
14.1359
12.2966
7.22362
3.67563
2.18957
2.04231
2.19138
263.977
221.641
179.563
62.341
19.7663
9.06825
4.36341
3.91625
4.26698
7.10984
10.2465
9.98363
7.28866
4.93974
3.54323
2.27809
2.19748
2.54197
265.574
226.252
180.565
61.0286
22.415
10.4422
5.75882
4.06708
4.12458
6.40218
8.46643
8.09254
5.68272
4.80174
3.92115
2.28868
2.3036
2.68276
277.2
235.261
183.805
62.4066
27.1063
11.7775
6.56559
4.18908
4.26774
6.44844
7.49592
6.41233
4.78531
5.09517
3.80922
1.74732
2.06758
2.4917
300.846
251.597
190.191
66.0471
31.467
12.8581
6.78525
4.63329
5.11142
7.2418
7.28519
5.42967
5.11521
5.42973
2.53496
1.51725
1.80615
1.96952
340.642
277.701
193.065
70.8178
35.1452
13.1633
7.35534
6.80805
8.40294
8.54021
7.68113
5.51807
5.46993
4.41526
3.42302
3.08487
1.96566
1.73222
396.018
291.692
192.745
78.0475
37.3067
13.865
8.9503
8.76803
8.01574
8.01863
7.03976
4.82542
4.35708
5.41964
8.18128
7.95144
5.69692
2.8645
467.015
291.832
187.798
101.963
45.6349
14.2947
9.72293
7.90812
6.74692
6.16795
6.08066
4.88694
4.85875
7.47764
9.65516
9.38396
8.83353
7.05156
555.762
248.397
160.216
90.5929
37.1404
15.9515
19.8056
23.8381
21.648
21.1049
17.6705
9.04034
7.63267
9.48889
12.3577
11.7509
9.69949
9.28641
622.231
211.528
107.934
48.0333
37.4246
32.3184
34.8856
25.4196
25.7435
27.9935
25.9906
21.172
16.4752
15.9546
17.0684
12.8899
8.61758
7.07378
641.089
211.683
229.823
151.575
92.5429
95.8443
49.9161
38.1408
25.9707
23.8099
24.0334
14.1893
12.4949
16.3243
21.5761
23.5374
21.6091
17.8248
592.552
258.174
255.842
137.926
68.0333
39.6686
27.9311
19.4483
19.2761
22.238
22.3188
13.887
12.7576
16.3941
20.7245
23.0548
25.4829
27.4598
497.073
337.759
267.821
139.471
71.2242
30.3377
17.9541
17.0582
15.6439
14.9908
15.7957
15.2415
14.2629
13.8052
14.3973
16.8666
23.0338
28.0351
415.298
329.777
271.127
88.1501
31.959
17.3117
11.8273
11.8346
11.7953
11.8704
12.1039
11.0823
7.2109
6.4283
8.67921
13.0654
16.283
19.5112
363.888
290.908
254.466
77.7596
22.1393
16.5539
17.9791
21.1949
23.5452
16.6217
8.4309
6.85236
6.31842
5.68975
5.27801
6.7082
9.80576
12.2978
337.747
265.091
229.053
70.9826
24.6609
25.7756
52.2469
76.69
74.1319
43.4704
17.8746
8.30316
5.24355
4.09648
4.69608
5.71239
5.50386
5.9131
330.175
249.26
206.127
65.5175
36.0012
42.5265
69.0245
83.7589
75.063
38.4215
21.3818
9.23647
4.763
4.03123
3.99142
4.61092
5.19551
4.67862
337.333
228.73
199.014
66.5911
56.0213
66.117
66.0569
92.4077
101.86
84.1695
30.4472
8.43945
4.28372
4.10395
4.9581
6.10173
6.12043
5.0767
356.724
189.997
184.352
58.9436
50.9661
27.8927
56.0714
69.5317
54.3858
40.5043
13.672
5.42036
4.57487
5.24369
8.45665
8.98263
7.19202
4.80145
384.184
162.273
164.958
65.7251
46.0053
12.4292
12.0708
19.5633
17.1193
10.9365
5.48653
4.57856
5.0333
6.58062
7.54542
6.2223
4.60052
3.73935
412.051
152.274
112.63
58.3036
25.5207
9.17773
7.17421
5.73119
6.47058
5.20703
4.29691
4.46368
5.16275
6.24973
6.58095
6.34791
5.58684
5.03137
479.569
179.069
150.303
64.965
45.3496
23.4561
10.9594
6.9926
6.48566
6.31953
6.39165
6.65221
7.02344
7.61296
7.53049
7.09614
6.73414
6.43817
405.775
175.557
176.67
133.709
180.944
171.34
77.7497
88.9908
135.48
159.172
121.568
56.4089
50.0979
30.2418
18.1493
14.8968
13.3492
7.14428
302.653
131.122
145.998
61.5945
56.4832
67.873
29.6137
19.7195
27.6159
57.2705
84.8321
96.1863
91.0832
52.8952
19.4271
8.32011
6.06788
4.7878
319.981
134.255
156.05
54.3686
31.0053
17.6685
7.88879
7.71634
9.82744
17.2875
36.7961
57.6667
55.9664
33.4789
15.072
8.27705
5.61222
4.65257
329.013
142.421
162.968
61.6826
29.1988
15.3784
8.15285
4.52513
7.51745
18.8248
28.8574
30.0175
26.2511
15.1048
9.0368
6.50886
5.03081
4.27352
326.27
145.606
167.59
74.2338
32.1435
15.7724
7.36439
3.49345
5.14587
17.4675
22.8441
21.9013
17.4361
10.5088
7.00352
5.45795
4.3325
3.59551
310.907
154.549
169.478
80.021
30.8261
13.1929
6.48426
3.10407
3.71346
13.4784
20.8392
20.5721
16.8249
10.6276
6.80151
4.51244
3.47115
2.97721
289.741
175.28
172.703
82.079
30.3737
12.4296
4.92204
2.27045
2.44058
8.66209
17.8592
18.6435
15.1662
9.16628
4.76953
2.9545
2.6243
2.58042
272.534
198.057
174.87
68.1425
23.9808
10.401
4.38722
2.03634
1.98528
5.12277
12.6259
14.2325
12.165
6.90274
3.33771
2.41152
2.27506
2.32051
261.625
215.133
175.466
61.37
21.7379
9.93808
4.72894
2.428
2.08232
3.86486
9.17943
10.4156
9.24644
5.79105
3.08004
2.40894
2.34509
2.28731
258.064
223.992
176.569
59.2282
22.2414
10.3252
5.44603
2.9317
2.30126
3.65855
8.40832
9.18792
8.10702
5.46071
3.08672
2.42283
2.69416
2.64615
262.66
226.073
177.968
60.8535
24.7602
10.8274
6.03673
3.26023
2.70448
3.91988
7.95124
8.13413
6.87969
5.03178
2.8098
2.18474
2.60291
2.72008
276.431
234.497
182.206
63.5446
28.4876
11.7237
6.45268
3.34051
3.04703
4.74101
7.13972
6.75162
5.98868
4.73529
2.20209
2.02554
2.29683
2.7649
301.546
252.643
189.049
67.474
32.0732
12.4403
6.28763
3.26496
3.42032
5.58643
6.40659
6.08532
5.86877
3.48705
1.81075
1.97789
2.09195
2.37212
342.281
278.023
192.485
72.5977
35.1647
12.595
5.92548
3.45336
4.79069
7.25362
7.00534
6.2819
4.58368
3.10374
3.83942
3.31511
2.06001
1.90905
398.555
292.06
193.256
80.0007
37.9809
13.4766
6.95471
4.64102
7.11067
7.86164
6.84207
4.71186
4.28553
6.98216
9.72469
9.44275
5.29125
2.34868
472.325
292.085
188.846
104.648
46.2408
15.8407
18.4189
7.63819
8.73752
8.16559
6.49477
4.92894
5.39078
8.82477
10.7521
11.5501
11.2229
7.35561
571.707
245.643
159.681
75.4416
32.9415
22.348
21.9496
22.4323
24.4801
22.0845
18.5081
12.1338
9.60033
10.4646
13.593
13.8007
12.819
9.92565
644.051
219.259
119.407
70.0493
61.8547
41.7265
37.6462
41.2099
39.5516
27.5061
22.281
17.6775
14.0486
14.0991
17.0553
15.1085
10.8537
9.89982
624.607
280.062
253.776
170.419
118.031
107.577
58.8676
47.7418
28.6463
20.0945
20.5278
17.9351
13.4439
15.1715
22.5071
24.3182
23.9752
22.5031
563.678
358.386
302.086
179.897
91.5096
43.1673
27.7643
20.4654
19.388
19.7841
22.9706
23.1553
16.5682
13.5603
15.8991
20.8589
23.3103
26.3585
484.127
357.465
262.115
114.806
56.5352
27.3112
20.6787
20.379
18.9443
18.796
20.4898
21.2563
19.4901
16.0639
16.1305
16.8814
18.5766
22.3671
414.129
327.182
251.794
79.4233
32.028
27.3228
16.4414
14.1722
13.2814
13.3044
14.1691
14.7404
12.7222
9.97056
11.4403
17.5066
21.6713
24.7738
364.934
297.176
240.378
67.5946
21.2084
29.9351
30.2194
25.0108
22.8944
16.178
9.36482
7.62283
7.08212
7.61877
7.04178
7.56659
8.95394
9.51049
339.031
279.947
229.745
60.7488
19.5394
34.9415
71.5899
78.8858
75.0191
45.2555
18.5924
9.62313
7.32261
6.30561
5.82972
6.28467
5.93072
5.77392
330.416
262.468
209.243
55.2735
31.5666
35.9992
54.8815
63.3648
58.1124
35.4287
19.3768
9.2034