/*--------------------------------*- C++ -*----------------------------------*\
| =========                 |                                                 |
| \\      /  F ield         | OpenFOAM: The Open Source CFD Toolbox           |
|  \\    /   O peration     | Version:  2112                                  |
|   \\  /    A nd           | Website:  www.openfoam.com                      |
|    \\/     M anipulation  |                                                 |
\*---------------------------------------------------------------------------*/
FoamFile
{
    version     2.0;
    format      ascii;
    arch        "LSB;label=32;scalar=64";
    class       surfaceScalarField;
    location    "0.36";
    object      phi;
}
// * * * * * * * * * * * * * * * * * * * * * * * * * * * * * * * * * * * * * //

dimensions      [0 3 -1 0 0 0 0];

oriented        oriented;

internalField   nonuniform List<scalar> 
24170
(
3.04086e-06
1.47544e-07
2.86619e-06
1.74677e-07
2.69324e-06
1.72941e-07
2.52212e-06
1.71121e-07
2.35817e-06
1.63958e-07
2.20634e-06
1.51821e-07
2.07005e-06
1.36296e-07
1.95153e-06
1.18517e-07
1.85198e-06
9.95508e-08
1.77147e-06
8.05069e-08
1.7091e-06
6.23725e-08
1.66316e-06
4.59375e-08
1.63147e-06
3.1692e-08
1.61161e-06
1.98644e-08
1.60114e-06
1.04658e-08
1.59719e-06
3.94729e-09
1.5949e-06
2.29057e-09
1.33404e-08
1.58156e-06
3.48903e-06
7.57669e-08
3.53952e-06
1.24186e-07
3.57134e-06
1.41117e-07
3.5846e-06
1.57861e-07
3.5801e-06
1.68464e-07
3.56029e-06
1.71625e-07
3.52808e-06
1.68509e-07
3.48646e-06
1.60136e-07
3.43834e-06
1.47672e-07
3.38628e-06
1.32563e-07
3.33239e-06
1.16268e-07
3.27821e-06
1.00113e-07
3.22485e-06
8.50546e-08
3.17305e-06
7.16626e-08
3.12335e-06
6.01659e-08
3.07645e-06
5.08549e-08
3.03543e-06
4.33039e-08
3.31772e-08
3.0156e-06
3.68046e-06
5.78233e-08
3.69915e-06
1.05492e-07
3.71876e-06
1.2151e-07
3.74125e-06
1.35372e-07
3.76442e-06
1.45295e-07
3.78669e-06
1.49352e-07
3.80672e-06
1.48479e-07
3.82328e-06
1.43571e-07
3.83571e-06
1.3525e-07
3.84388e-06
1.2439e-07
3.84803e-06
1.12121e-07
3.84866e-06
9.94807e-08
3.84648e-06
8.72354e-08
3.84229e-06
7.58517e-08
3.83694e-06
6.55155e-08
3.83174e-06
5.60525e-08
3.82838e-06
4.66666e-08
3.41155e-08
3.82744e-06
3.93625e-06
4.69664e-08
3.94804e-06
9.36945e-08
3.95799e-06
1.11563e-07
3.96876e-06
1.24602e-07
3.98044e-06
1.33619e-07
3.99285e-06
1.36934e-07
4.00588e-06
1.35458e-07
4.01913e-06
1.30322e-07
4.03202e-06
1.22359e-07
4.04404e-06
1.12364e-07
4.05496e-06
1.01201e-07
4.06474e-06
8.96997e-08
4.07352e-06
7.84549e-08
4.08159e-06
6.77846e-08
4.08939e-06
5.77178e-08
4.09752e-06
4.7918e-08
4.10658e-06
3.76086e-08
2.44256e-08
4.11627e-06
4.21536e-06
3.87376e-08
4.22583e-06
8.32179e-08
4.23499e-06
1.02409e-07
4.24436e-06
1.15231e-07
4.25416e-06
1.23821e-07
4.26415e-06
1.26937e-07
4.27424e-06
1.25369e-07
4.28428e-06
1.20283e-07
4.29407e-06
1.12571e-07
4.30343e-06
1.03004e-07
4.31229e-06
9.23405e-08
4.32071e-06
8.12838e-08
4.32883e-06
7.03296e-08
4.3369e-06
5.97118e-08
4.34524e-06
4.9384e-08
4.35417e-06
3.89803e-08
4.36407e-06
2.77117e-08
1.39706e-08
4.37453e-06
4.5156e-06
3.22199e-08
4.52528e-06
7.35427e-08
4.53444e-06
9.32538e-08
4.54387e-06
1.058e-07
4.5537e-06
1.13988e-07
4.56361e-06
1.17025e-07
4.57342e-06
1.15562e-07
4.583e-06
1.10699e-07
4.59225e-06
1.03326e-07
4.60107e-06
9.41839e-08
4.60944e-06
8.39684e-08
4.61744e-06
7.32817e-08
4.62523e-06
6.25398e-08
4.63302e-06
5.19221e-08
4.64105e-06
4.13548e-08
4.64954e-06
3.04961e-08
4.65854e-06
1.87058e-08
4.96414e-09
4.66755e-06
4.838e-06
2.69387e-08
4.84692e-06
6.46251e-08
4.85595e-06
8.42258e-08
4.86545e-06
9.62946e-08
4.8755e-06
1.03936e-07
4.88572e-06
1.06806e-07
4.89581e-06
1.05472e-07
4.90561e-06
1.00898e-07
4.91503e-06
9.39121e-08
4.92399e-06
8.52209e-08
4.93249e-06
7.54661e-08
4.94061e-06
6.51675e-08
4.94847e-06
5.46786e-08
4.95625e-06
4.41427e-08
4.96411e-06
3.34871e-08
4.97218e-06
2.24319e-08
4.98037e-06
1.05115e-08
-2.91384e-09
4.98825e-06
5.18393e-06
2.2586e-08
5.19215e-06
5.64097e-08
5.201e-06
7.53789e-08
5.21047e-06
8.68168e-08
5.2206e-06
9.38065e-08
5.23102e-06
9.63875e-08
5.2414e-06
9.50896e-08
5.25151e-06
9.07866e-08
5.26122e-06
8.42063e-08
5.27046e-06
7.59783e-08
5.27924e-06
6.66855e-08
5.28762e-06
5.6794e-08
5.29569e-06
4.66097e-08
5.30357e-06
3.62552e-08
5.31138e-06
2.56767e-08
5.31914e-06
1.46721e-08
5.32672e-06
2.93481e-09
-9.89683e-09
5.3337e-06
5.55498e-06
1.89475e-08
5.56255e-06
4.88389e-08
5.5712e-06
6.67281e-08
5.58061e-06
7.74031e-08
5.59074e-06
8.36785e-08
5.60123e-06
8.5898e-08
5.61177e-06
8.45472e-08
5.62213e-06
8.04291e-08
5.63212e-06
7.42196e-08
5.64162e-06
6.64707e-08
5.65065e-06
5.76632e-08
5.65923e-06
4.82059e-08
5.66747e-06
3.83764e-08
5.67542e-06
2.82998e-08
5.68315e-06
1.79536e-08
5.6906e-06
7.2185e-09
5.69761e-06
-4.08015e-09
-1.61044e-08
5.70382e-06
5.95286e-06
1.58598e-08
5.95984e-06
4.1858e-08
5.96828e-06
5.82925e-08
5.97761e-06
6.80708e-08
5.9877e-06
7.35866e-08
5.99821e-06
7.53934e-08
6.00881e-06
7.39448e-08
6.01929e-06
6.99476e-08
6.02948e-06
6.40353e-08
6.03923e-06
5.67184e-08
6.04848e-06
4.84123e-08
6.05724e-06
3.94506e-08
6.06555e-06
3.00602e-08
6.07348e-06
2.03692e-08
6.08103e-06
1.04026e-08
6.08813e-06
1.26178e-10
6.09458e-06
-1.05367e-08
-2.1612e-08
6.10009e-06
6.37948e-06
1.31932e-08
6.38592e-06
3.5415e-08
6.39412e-06
5.00962e-08
6.40335e-06
5.88391e-08
6.41338e-06
6.35554e-08
6.42387e-06
6.49062e-08
6.43449e-06
6.33242e-08
6.44502e-06
5.9419e-08
6.45529e-06
5.37661e-08
6.46518e-06
4.6829e-08
6.4746e-06
3.89855e-08
6.48352e-06
3.05323e-08
6.49191e-06
2.16725e-08
6.49977e-06
1.2506e-08
6.50709e-06
3.08013e-09
6.5138e-06
-6.57664e-09
6.51971e-06
-1.64516e-08
-2.6485e-08
6.52458e-06
5.74285e-06
1.11778e-08
5.74791e-06
3.03573e-08
5.75463e-06
4.33712e-08
5.76234e-06
5.11308e-08
5.77075e-06
5.51454e-08
5.77958e-06
5.60816e-08
5.78854e-06
5.43589e-08
5.79745e-06
5.05143e-08
5.80614e-06
4.50675e-08
5.81453e-06
3.84413e-08
5.82254e-06
3.09774e-08
5.83013e-06
2.29462e-08
5.83725e-06
1.45477e-08
5.84387e-06
5.89086e-09
5.84991e-06
-2.95915e-09
5.8553e-06
-1.19671e-08
5.85992e-06
-2.10779e-08
-3.01813e-08
5.86362e-06
7.00024e-06
9.09361e-09
7.00567e-06
2.49295e-08
7.01311e-06
3.59251e-08
7.02179e-06
4.24507e-08
7.03132e-06
4.56141e-08
7.04136e-06
4.60428e-08
7.05159e-06
4.41317e-08
7.06177e-06
4.03384e-08
7.07172e-06
3.51172e-08
7.08131e-06
2.88445e-08
7.09047e-06
2.18237e-08
7.09912e-06
1.42971e-08
7.10722e-06
6.44916e-09
7.1147e-06
-1.59465e-09
7.12148e-06
-9.73888e-09
7.12744e-06
-1.79238e-08
7.13243e-06
-2.60738e-08
-3.40728e-08
7.13632e-06
8.53299e-06
6.94887e-09
8.53874e-06
1.91811e-08
8.54687e-06
2.77978e-08
8.55651e-06
3.28103e-08
8.56717e-06
3.49524e-08
8.57845e-06
3.47654e-08
8.58997e-06
3.26055e-08
8.60146e-06
2.88483e-08
8.61271e-06
2.38735e-08
8.62355e-06
1.80052e-08
8.63386e-06
1.15065e-08
8.64357e-06
4.59041e-09
8.65259e-06
-2.57431e-09
8.66086e-06
-9.85881e-09
8.66828e-06
-1.71593e-08
8.67474e-06
-2.4385e-08
8.68011e-06
-3.14408e-08
-3.8213e-08
8.68425e-06
1.04014e-05
4.74608e-09
1.04074e-05
1.31577e-08
1.04162e-05
1.90512e-08
1.04267e-05
2.22549e-08
1.04385e-05
2.31886e-08
1.0451e-05
2.22669e-08
1.04638e-05
1.97882e-08
1.04766e-05
1.60464e-08
1.04892e-05
1.13404e-08
1.05012e-05
5.93502e-09
1.05127e-05
4.97963e-11
1.05234e-05
-6.13432e-09
1.05333e-05
-1.24678e-08
1.05423e-05
-1.88282e-08
1.05502e-05
-2.51111e-08
1.05571e-05
-3.12204e-08
1.05627e-05
-3.70655e-08
-4.25395e-08
1.0567e-05
1.26791e-05
2.48503e-09
1.26853e-05
6.88064e-09
1.26946e-05
9.7454e-09
1.2706e-05
1.08446e-08
1.27189e-05
1.03723e-08
1.27325e-05
8.59162e-09
1.27466e-05
5.7212e-09
1.27607e-05
1.97198e-09
1.27745e-05
-2.44076e-09
1.27877e-05
-7.31874e-09
1.28003e-05
-1.24923e-08
1.28119e-05
-1.78179e-08
1.28226e-05
-2.31736e-08
1.28323e-05
-2.84549e-08
1.28407e-05
-3.35707e-08
1.28479e-05
-3.84377e-08
1.28539e-05
-4.29817e-08
-4.71172e-08
1.28584e-05
1.54555e-05
1.47942e-10
1.54621e-05
3.19911e-10
1.54719e-05
-1.10904e-10
1.54842e-05
-1.40083e-09
1.5498e-05
-3.47745e-09
1.55129e-05
-6.2427e-09
1.55282e-05
-9.57469e-09
1.55435e-05
-1.3351e-08
1.55585e-05
-1.7443e-08
1.55729e-05
-2.17265e-08
1.55865e-05
-2.60908e-08
1.55991e-05
-3.04398e-08
1.56106e-05
-3.46899e-08
1.56209e-05
-3.8768e-08
1.563e-05
-4.26104e-08
1.56377e-05
-4.61602e-08
1.56441e-05
-4.937e-08
-5.21839e-08
1.56492e-05
1.88401e-05
-2.3533e-09
1.88471e-05
-6.67807e-09
1.88577e-05
-1.07158e-08
1.8871e-05
-1.46333e-08
1.8886e-05
-1.8509e-08
1.89021e-05
-2.2376e-08
1.89188e-05
-2.62304e-08
1.89355e-05
-3.00453e-08
1.89518e-05
-3.37833e-08
1.89675e-05
-3.74032e-08
1.89823e-05
-4.08649e-08
1.8996e-05
-4.41315e-08
1.90085e-05
-4.71702e-08
1.90196e-05
-4.99525e-08
1.90295e-05
-5.24539e-08
1.9038e-05
-5.46534e-08
1.90451e-05
-5.65365e-08
-5.80793e-08
1.9051e-05
2.29661e-05
-5.12498e-09
2.2974e-05
-1.45432e-08
2.29859e-05
-2.26285e-08
2.30007e-05
-2.94933e-08
2.30176e-05
-3.53652e-08
2.30357e-05
-4.04492e-08
2.30543e-05
-4.48716e-08
2.3073e-05
-4.87133e-08
2.30912e-05
-5.20401e-08
2.31087e-05
-5.49065e-08
2.31252e-05
-5.73549e-08
2.31405e-05
-5.94196e-08
2.31545e-05
-6.11305e-08
2.3167e-05
-6.25146e-08
2.31782e-05
-6.35958e-08
2.31879e-05
-6.43955e-08
2.31963e-05
-6.49346e-08
-6.52213e-08
2.32035e-05
1.68128e-05
-7.26692e-09
1.68189e-05
-2.05472e-08
1.68278e-05
-3.15706e-08
1.68388e-05
-4.04665e-08
1.68511e-05
-4.7674e-08
1.68642e-05
-5.3562e-08
1.68777e-05
-5.83406e-08
1.68911e-05
-6.21606e-08
1.69042e-05
-6.51631e-08
1.69168e-05
-6.74692e-08
1.69286e-05
-6.91775e-08
1.69396e-05
-7.03718e-08
1.69496e-05
-7.11274e-08
1.69586e-05
-7.15119e-08
1.69665e-05
-7.15846e-08
1.69735e-05
-7.13969e-08
1.69796e-05
-7.09945e-08
-7.04063e-08
1.69848e-05
1.46367e-05
-9.40229e-09
1.46426e-05
-2.6425e-08
1.46511e-05
-4.00604e-08
1.46612e-05
-5.06078e-08
1.46724e-05
-5.88749e-08
1.46843e-05
-6.53988e-08
1.46963e-05
-7.04347e-08
1.47084e-05
-7.41921e-08
1.47201e-05
-7.68805e-08
1.47313e-05
-7.86744e-08
1.47418e-05
-7.97139e-08
1.47516e-05
-8.01233e-08
1.47605e-05
-8.00169e-08
1.47685e-05
-7.94983e-08
1.47755e-05
-7.86587e-08
1.47817e-05
-7.75764e-08
1.4787e-05
-7.63189e-08
-7.49336e-08
1.47916e-05
1.27424e-05
-1.17092e-08
1.27486e-05
-3.25479e-08
1.2757e-05
-4.84526e-08
1.27666e-05
-6.0255e-08
1.27771e-05
-6.93442e-08
1.2788e-05
-7.63683e-08
1.27992e-05
-8.15755e-08
1.28102e-05
-8.52351e-08
1.2821e-05
-8.76205e-08
1.28312e-05
-8.89418e-08
1.28409e-05
-8.93671e-08
1.28498e-05
-8.90522e-08
1.28579e-05
-8.81455e-08
1.28652e-05
-8.67831e-08
1.28717e-05
-8.50864e-08
1.28772e-05
-8.3159e-08
1.2882e-05
-8.10891e-08
-7.89416e-08
1.2886e-05
1.10936e-05
-1.43866e-08
1.11003e-05
-3.9214e-08
1.11087e-05
-5.69128e-08
1.1118e-05
-6.95388e-08
1.11279e-05
-7.92521e-08
1.11382e-05
-8.66646e-08
1.11486e-05
-9.19741e-08
1.11589e-05
-9.55211e-08
1.11689e-05
-9.76286e-08
1.11785e-05
-9.8521e-08
1.11875e-05
-9.83821e-08
1.11958e-05
-9.73935e-08
1.12034e-05
-9.57326e-08
1.12102e-05
-9.35663e-08
1.12162e-05
-9.10449e-08
1.12213e-05
-8.82976e-08
1.12257e-05
-8.54324e-08
-8.25273e-08
1.12292e-05
9.65852e-06
-1.76931e-08
9.66596e-06
-4.6649e-08
9.67452e-06
-6.5477e-08
9.6835e-06
-7.85163e-08
9.69295e-06
-8.87039e-08
9.70268e-06
-9.63946e-08
9.71245e-06
-1.01745e-07
9.72211e-06
-1.05181e-07
9.73153e-06
-1.07047e-07
9.74057e-06
-1.07558e-07
9.74909e-06
-1.06905e-07
9.75698e-06
-1.05289e-07
9.76416e-06
-1.02912e-07
9.77057e-06
-9.99766e-08
9.77619e-06
-9.66585e-08
9.781e-06
-9.31097e-08
9.78503e-06
-8.94639e-08
-8.58183e-08
9.78832e-06
8.40967e-06
-2.20137e-08
8.41803e-06
-5.50057e-08
8.42664e-06
-7.40884e-08
8.43537e-06
-8.72407e-08
8.44448e-06
-9.78154e-08
8.45376e-06
-1.05678e-07
8.46302e-06
-1.11e-07
8.47215e-06
-1.14311e-07
8.48105e-06
-1.15951e-07
8.4896e-06
-1.16113e-07
8.49768e-06
-1.14985e-07
8.50518e-06
-1.12782e-07
8.51199e-06
-1.09725e-07
8.51806e-06
-1.06045e-07
8.52336e-06
-1.01964e-07
8.5279e-06
-9.76505e-08
8.53169e-06
-9.32499e-08
-8.88306e-08
8.5347e-06
7.32317e-06
-2.78949e-08
7.33267e-06
-6.45121e-08
7.34133e-06
-8.27425e-08
7.34987e-06
-9.57813e-08
7.35867e-06
-1.06621e-07
7.36754e-06
-1.1455e-07
7.37637e-06
-1.19829e-07
7.38512e-06
-1.23056e-07
7.39372e-06
-1.24552e-07
7.40208e-06
-1.24469e-07
7.41008e-06
-1.22988e-07
7.41763e-06
-1.20329e-07
7.42462e-06
-1.16718e-07
7.43096e-06
-1.12385e-07
7.4366e-06
-1.07603e-07
7.44154e-06
-1.02591e-07
7.4458e-06
-9.75137e-08
-9.24639e-08
7.44944e-06
6.37818e-06
-3.60125e-08
6.38932e-06
-7.56491e-08
6.39853e-06
-9.19559e-08
6.40782e-06
-1.05069e-07
6.41743e-06
-1.16232e-07
6.42714e-06
-1.24262e-07
6.43701e-06
-1.29698e-07
6.44708e-06
-1.33118e-07
6.4573e-06
-1.34773e-07
6.46758e-06
-1.3475e-07
6.47778e-06
-1.33194e-07
6.48776e-06
-1.30305e-07
6.49734e-06
-1.26303e-07
6.5064e-06
-1.21439e-07
6.51476e-06
-1.15969e-07
6.52234e-06
-1.10171e-07
6.52905e-06
-1.04222e-07
-9.83256e-08
6.53491e-06
5.55905e-06
-4.96008e-08
5.57518e-06
-9.17777e-08
5.59027e-06
-1.07041e-07
5.60737e-06
-1.22177e-07
5.62627e-06
-1.35133e-07
5.64627e-06
-1.44256e-07
5.66681e-06
-1.50239e-07
5.68741e-06
-1.53722e-07
5.7075e-06
-1.54859e-07
5.72647e-06
-1.53721e-07
5.74379e-06
-1.5051e-07
5.759e-06
-1.45515e-07
5.77177e-06
-1.39081e-07
5.78193e-06
-1.31596e-07
5.78944e-06
-1.23476e-07
5.79444e-06
-1.15168e-07
5.79715e-06
-1.06939e-07
-9.94876e-08
5.79831e-06
4.88772e-06
-1.09715e-07
4.94083e-06
-1.44883e-07
4.98507e-06
-1.51289e-07
5.01929e-06
-1.56394e-07
5.04171e-06
-1.57553e-07
5.05262e-06
-1.55159e-07
5.0529e-06
-1.50524e-07
5.04342e-06
-1.44239e-07
5.02514e-06
-1.36585e-07
4.99922e-06
-1.27794e-07
4.96685e-06
-1.18139e-07
4.92924e-06
-1.07904e-07
4.88753e-06
-9.73742e-08
4.84277e-06
-8.68371e-08
4.79586e-06
-7.65618e-08
4.74752e-06
-6.68366e-08
4.6984e-06
-5.78133e-08
-4.98296e-08
4.64874e-06
4.09296e-06
3.94808e-06
3.79679e-06
3.6404e-06
3.48284e-06
3.32768e-06
3.17716e-06
3.03292e-06
2.89633e-06
2.76854e-06
2.6504e-06
2.5425e-06
2.44512e-06
2.35829e-06
2.28172e-06
2.21489e-06
2.15707e-06
2.10725e-06
4.49438e-08
-4.49438e-08
1.03642e-07
-5.86985e-08
1.74991e-07
-7.13491e-08
2.58575e-07
-8.3584e-08
3.52555e-07
-9.39792e-08
4.5445e-07
-1.01895e-07
5.61727e-07
-1.07277e-07
6.71096e-07
-1.0937e-07
7.78486e-07
-1.07389e-07
8.7968e-07
-1.01195e-07
9.70657e-07
-9.09762e-08
1.04771e-06
-7.70512e-08
1.10745e-06
-5.97469e-08
1.14678e-06
-3.93279e-08
1.1627e-06
-1.59178e-08
1.15244e-06
1.02598e-08
1.11455e-06
3.78952e-08
1.04896e-06
6.55862e-08
9.58102e-07
9.0857e-08
8.46981e-07
1.11122e-07
7.20582e-07
1.26399e-07
5.82879e-07
1.37703e-07
4.37875e-07
1.45003e-07
2.89355e-07
1.4852e-07
1.40494e-07
1.48862e-07
-6.20274e-09
1.46696e-07
-1.48583e-07
1.4238e-07
-2.84374e-07
1.35791e-07
-4.1358e-07
1.29207e-07
-5.40737e-07
1.27157e-07
-6.74253e-07
1.33516e-07
-8.22628e-07
1.48374e-07
-9.90349e-07
1.67721e-07
-1.17749e-06
1.87141e-07
-1.38242e-06
2.04934e-07
-1.60389e-06
2.21469e-07
-1.84083e-06
2.36939e-07
-2.0916e-06
2.50772e-07
-2.35355e-06
2.61945e-07
-2.62246e-06
2.68908e-07
-2.89243e-06
2.69978e-07
-3.15625e-06
2.63819e-07
-3.40587e-06
2.49622e-07
-3.63297e-06
2.27092e-07
-3.82942e-06
1.96455e-07
-3.9879e-06
1.58482e-07
-4.1023e-06
1.14396e-07
-4.16822e-06
6.59243e-08
-4.18239e-06
1.41705e-08
-4.14848e-06
-3.39102e-08
-4.06806e-06
-8.04244e-08
-3.94342e-06
-1.24636e-07
-3.7772e-06
-1.66219e-07
-3.57249e-06
-2.04709e-07
-3.33298e-06
-2.39515e-07
-3.06256e-06
-2.70418e-07
-2.76556e-06
-2.97003e-07
-2.44701e-06
-3.18551e-07
-2.11237e-06
-3.34636e-07
-1.76741e-06
-3.44964e-07
-1.41802e-06
-3.49386e-07
-1.06997e-06
-3.48056e-07
-7.28162e-07
-3.41804e-07
-3.95567e-07
-3.32595e-07
-7.47236e-08
-3.20844e-07
2.30708e-07
-3.05432e-07
5.17755e-07
-2.87047e-07
7.8518e-07
-2.67425e-07
1.03283e-06
-2.47652e-07
1.25994e-06
-2.27111e-07
1.46584e-06
-2.05901e-07
1.65164e-06
-1.85799e-07
1.81949e-06
-1.67847e-07
1.97194e-06
-1.52454e-07
2.11178e-06
-1.39835e-07
2.24201e-06
-1.3023e-07
2.36597e-06
-1.23964e-07
2.48712e-06
-1.21148e-07
2.60828e-06
-1.21159e-07
2.72999e-06
-1.21707e-07
2.8473e-06
-1.17316e-07
2.94449e-06
-9.71893e-08
2.99274e-06
-4.82508e-08
2.97012e-06
2.2619e-08
2.88613e-06
8.39962e-08
2.77426e-06
1.11863e-07
2.66142e-06
1.12845e-07
2.54598e-06
1.15443e-07
2.40166e-06
1.44315e-07
2.2011e-06
2.00565e-07
1.93094e-06
2.70159e-07
1.58898e-06
3.41961e-07
1.18161e-06
4.07365e-07
7.19807e-07
4.61803e-07
2.13414e-07
5.06393e-07
-3.27759e-07
5.41174e-07
-8.94085e-07
5.66326e-07
-1.47442e-06
5.8033e-07
-2.05737e-06
5.8296e-07
-2.63129e-06
5.73919e-07
-3.18424e-06
5.52943e-07
-3.70453e-06
5.20293e-07
-4.1813e-06
4.76774e-07
-4.60445e-06
4.23144e-07
-4.96445e-06
3.6e-07
-5.25431e-06
2.89858e-07
-5.46981e-06
2.15503e-07
-5.60839e-06
1.38581e-07
-5.66993e-06
6.15406e-08
-5.65948e-06
-1.04468e-08
-5.58544e-06
-7.40457e-08
-5.45314e-06
-1.32294e-07
-5.26621e-06
-1.86932e-07
-5.02761e-06
-2.38601e-07
-4.74012e-06
-2.87495e-07
-4.40661e-06
-3.33502e-07
-4.03043e-06
-3.76188e-07
-3.61551e-06
-4.14917e-07
-3.16664e-06
-4.48866e-07
-2.68861e-06
-4.78035e-07
-2.18787e-06
-5.00739e-07
-1.67296e-06
-5.1491e-07
-1.15422e-06
-5.18744e-07
-6.40786e-07
-5.1343e-07
-1.32093e-07
-5.08693e-07
3.73195e-07
-5.05288e-07
8.66599e-07
-4.93403e-07
1.33535e-06
-4.68754e-07
1.76764e-06
-4.32285e-07
2.15642e-06
-3.88781e-07
2.49794e-06
-3.41524e-07
2.7908e-06
-2.92862e-07
3.03502e-06
-2.44218e-07
3.23178e-06
-1.96753e-07
3.38371e-06
-1.51936e-07
3.49488e-06
-1.11172e-07
3.5697e-06
-7.48203e-08
3.61286e-06
-4.31532e-08
3.62827e-06
-1.54091e-08
3.62033e-06
7.93642e-09
3.59473e-06
2.55996e-08
3.55564e-06
3.9087e-08
3.50714e-06
4.84991e-08
3.45191e-06
5.52343e-08
3.39174e-06
6.01709e-08
3.32781e-06
6.39271e-08
3.26084e-06
6.69712e-08
3.19118e-06
6.96607e-08
3.11889e-06
7.2285e-08
3.04386e-06
7.5037e-08
2.96591e-06
7.79481e-08
2.88505e-06
8.08622e-08
2.80152e-06
8.35227e-08
2.71576e-06
8.57607e-08
2.62834e-06
8.74207e-08
2.54006e-06
8.8281e-08
2.45171e-06
8.83499e-08
2.36385e-06
8.78623e-08
2.27681e-06
8.70357e-08
2.19073e-06
8.6083e-08
2.10529e-06
8.54362e-08
2.02038e-06
8.4919e-08
1.93543e-06
8.49449e-08
1.84943e-06
8.60013e-08
1.76115e-06
8.82839e-08
1.66949e-06
9.16535e-08
1.57445e-06
9.50408e-08
1.47849e-06
9.59568e-08
1.3879e-06
9.05932e-08
1.31271e-06
7.51913e-08
1.26432e-06
4.83914e-08
1.25133e-06
1.29888e-08
1.27677e-06
-2.54435e-08
1.3356e-06
-5.88264e-08
1.40677e-06
-7.11672e-08
1.45354e-06
-4.67755e-08
1.43619e-06
1.73555e-08
1.32973e-06
1.06454e-07
1.12763e-06
2.02103e-07
2.8634e-07
8.4129e-07
7.14739e-08
-1.16418e-07
1.59761e-07
-1.46986e-07
2.61057e-07
-1.72645e-07
3.73426e-07
-1.95953e-07
4.94264e-07
-2.14818e-07
6.1978e-07
-2.27411e-07
7.45425e-07
-2.32922e-07
8.6708e-07
-2.31025e-07
9.81312e-07
-2.21621e-07
1.08506e-06
-2.04947e-07
1.17559e-06
-1.81502e-07
1.25048e-06
-1.51942e-07
1.30774e-06
-1.17008e-07
1.3459e-06
-7.7481e-08
1.36417e-06
-3.41964e-08
1.36246e-06
1.19735e-08
1.33986e-06
6.04963e-08
1.2951e-06
1.10347e-07
1.22611e-06
1.59846e-07
1.13031e-06
2.06923e-07
1.00676e-06
2.4995e-07
8.5718e-07
2.87279e-07
6.84632e-07
3.17551e-07
4.92885e-07
3.40266e-07
2.8583e-07
3.55917e-07
6.68523e-08
3.65675e-07
-1.61654e-07
3.70886e-07
-3.97808e-07
3.71945e-07
-6.39838e-07
3.71237e-07
-8.87075e-07
3.74394e-07
-1.13918e-06
3.85621e-07
-1.3953e-06
4.04491e-07
-1.65477e-06
4.27192e-07
-1.91793e-06
4.503e-07
-2.18565e-06
4.7266e-07
-2.45818e-06
4.94001e-07
-2.73427e-06
5.13029e-07
-3.01064e-06
5.27139e-07
-3.28206e-06
5.33363e-07
-3.5423e-06
5.29147e-07
-3.78504e-06
5.12724e-07
-4.00449e-06
4.83267e-07
-4.19573e-06
4.40856e-07
-4.35522e-06
3.86587e-07
-4.48077e-06
3.22003e-07
-4.5712e-06
2.48911e-07
-4.62608e-06
1.6928e-07
-4.64533e-06
8.51726e-08
-4.63026e-06
-8.96044e-10
-4.57256e-06
-9.16126e-08
-4.47183e-06
-1.81153e-07
-4.32729e-06
-2.69176e-07
-4.1397e-06
-3.53811e-07
-3.91102e-06
-4.33391e-07
-3.64373e-06
-5.06805e-07
-3.34109e-06
-5.73059e-07
-3.00789e-06
-6.30198e-07
-2.64934e-06
-6.77109e-07
-2.27069e-06
-7.1328e-07
-1.87733e-06
-7.38329e-07
-1.4746e-06
-7.5211e-07
-1.06783e-06
-7.54824e-07
-6.62533e-07
-7.47106e-07
-2.64997e-07
-7.3013e-07
1.18206e-07
-7.04047e-07
4.82177e-07
-6.69403e-07
8.23323e-07
-6.28192e-07
1.13844e-06
-5.8254e-07
1.42538e-06
-5.34593e-07
1.68428e-06
-4.86008e-07
1.91656e-06
-4.38181e-07
2.12393e-06
-3.9317e-07
2.30872e-06
-3.52637e-07
2.47369e-06
-3.17426e-07
2.62169e-06
-2.87834e-07
2.75585e-06
-2.64388e-07
2.87997e-06
-2.4809e-07
2.99829e-06
-2.3947e-07
3.11476e-06
-2.37627e-07
3.23175e-06
-2.38693e-07
3.34836e-06
-2.3393e-07
3.46079e-06
-2.09611e-07
3.5637e-06
-1.51167e-07
3.63872e-06
-5.23971e-08
3.64879e-06
7.39252e-08
3.56881e-06
1.91846e-07
3.39992e-06
2.8173e-07
3.15156e-06
3.63799e-07
2.81875e-06
4.7713e-07
2.38674e-06
6.32573e-07
1.85349e-06
8.03411e-07
1.23729e-06
9.58164e-07
5.63737e-07
1.08091e-06
-1.43096e-07
1.16864e-06
-8.60592e-07
1.22389e-06
-1.56928e-06
1.24986e-06
-2.25282e-06
1.24987e-06
-2.89865e-06
1.22616e-06
-3.4963e-06
1.18061e-06
-4.03727e-06
1.11489e-06
-4.51495e-06
1.03063e-06
-4.92481e-06
9.30154e-07
-5.26481e-06
8.16771e-07
-5.5353e-06
6.93642e-07
-5.73906e-06
5.6376e-07
-5.8798e-06
4.30589e-07
-5.96188e-06
2.97588e-07
-5.99059e-06
1.67288e-07
-5.9707e-06
4.16482e-08
-5.90167e-06
-7.94723e-08
-5.78006e-06
-1.95654e-07
-5.60529e-06
-3.07061e-07
-5.37911e-06
-4.13117e-07
-5.10385e-06
-5.13858e-07
-4.78214e-06
-6.09204e-07
-4.41686e-06
-6.98784e-07
-4.01125e-06
-7.81799e-07
-3.5692e-06
-8.56969e-07
-3.09494e-06
-9.23126e-07
-2.59266e-06
-9.80309e-07
-2.06668e-06
-1.02672e-06
-1.52234e-06
-1.05925e-06
-9.65248e-07
-1.07584e-06
-3.99988e-07
-1.07869e-06
1.65211e-07
-1.07389e-06
7.17099e-07
-1.05718e-06
1.24677e-06
-1.02307e-06
1.74746e-06
-9.6945e-07
2.21248e-06
-8.97305e-07
2.63651e-06
-8.12807e-07
3.01576e-06
-7.20772e-07
3.34682e-06
-6.23931e-07
3.62778e-06
-5.25174e-07
3.85916e-06
-4.28128e-07
4.043e-06
-3.35781e-07
4.18221e-06
-2.50376e-07
4.28092e-06
-1.73538e-07
4.34393e-06
-1.06155e-07
4.3775e-06
-4.89855e-08
4.38954e-06
-4.10421e-09
4.37847e-06
3.66703e-08
4.35018e-06
6.73778e-08
4.3068e-06
9.18761e-08
4.25083e-06
1.11204e-07
4.18426e-06
1.26741e-07
4.10847e-06
1.39724e-07
4.02431e-06
1.51124e-07
3.93234e-06
1.61632e-07
3.83299e-06
1.71641e-07
3.72678e-06
1.81247e-07
3.61446e-06
1.9027e-07
3.49702e-06
1.98297e-07
3.37575e-06
2.04797e-07
3.25206e-06
2.09445e-07
3.12745e-06
2.12033e-07
3.00348e-06
2.1225e-07
2.88163e-06
2.10202e-07
2.76309e-06
2.06405e-07
2.64874e-06
2.01379e-07
2.53907e-06
1.95755e-07
2.4343e-06
1.90208e-07
2.33409e-06
1.85125e-07
2.23761e-06
1.81426e-07
2.14364e-06
1.79976e-07
2.05065e-06
1.81275e-07
1.95703e-06
1.85269e-07
1.8617e-06
1.90368e-07
1.76511e-06
1.92551e-07
1.67066e-06
1.85047e-07
1.58639e-06
1.59455e-07
1.52542e-06
1.09361e-07
1.50194e-06
3.6467e-08
1.52327e-06
-4.6767e-08
1.58032e-06
-1.15878e-07
1.64975e-06
-1.406e-07
1.6972e-06
-9.42199e-08
1.68338e-06
3.1176e-08
1.56825e-06
2.2158e-07
1.33322e-06
4.37138e-07
6.29595e-07
9.89961e-07
8.90095e-08
-2.05427e-07
1.98355e-07
-2.56331e-07
3.21561e-07
-2.95851e-07
4.54707e-07
-3.29098e-07
5.9324e-07
-3.53351e-07
7.32509e-07
-3.66679e-07
8.68075e-07
-3.68489e-07
9.96078e-07
-3.59028e-07
1.1134e-06
-3.38943e-07
1.21754e-06
-3.09089e-07
1.30647e-06
-2.70434e-07
1.37853e-06
-2.23999e-07
1.43234e-06
-1.70816e-07
1.46677e-06
-1.11914e-07
1.48091e-06
-4.83325e-08
1.47402e-06
1.88581e-08
1.44574e-06
8.87827e-08
1.39586e-06
1.60221e-07
1.32363e-06
2.32076e-07
1.22765e-06
3.0291e-07
1.10696e-06
3.7064e-07
9.61435e-07
4.328e-07
7.90977e-07
4.8801e-07
5.95962e-07
5.35281e-07
3.78194e-07
5.73685e-07
1.40768e-07
6.031e-07
-1.13055e-07
6.24709e-07
-3.80685e-07
6.39576e-07
-6.58466e-07
6.49017e-07
-9.41224e-07
6.57153e-07
-1.22367e-06
6.68066e-07
-1.50297e-06
6.83791e-07
-1.78059e-06
7.04813e-07
-2.06095e-06
7.30662e-07
-2.34789e-06
7.596e-07
-2.64206e-06
7.88172e-07
-2.94071e-06
8.11679e-07
-3.23893e-06
8.2536e-07
-3.53101e-06
8.25439e-07
-3.81137e-06
8.09505e-07
-4.07507e-06
7.7643e-07
-4.31794e-06
7.26128e-07
-4.53613e-06
6.59055e-07
-4.72559e-06
5.76038e-07
-4.88204e-06
4.78458e-07
-5.00141e-06
3.68278e-07
-5.08016e-06
2.48035e-07
-5.11504e-06
1.20052e-07
-5.10252e-06
-1.3414e-08
-5.04369e-06
-1.50444e-07
-4.93717e-06
-2.87672e-07
-4.78408e-06
-4.22271e-07
-4.58617e-06
-5.5172e-07
-4.34555e-06
-6.74014e-07
-4.06493e-06
-7.87425e-07
-3.74848e-06
-8.89507e-07
-3.40066e-06
-9.78012e-07
-3.02588e-06
-1.0519e-06
-2.62864e-06
-1.11051e-06
-2.2134e-06
-1.15357e-06
-1.78443e-06
-1.18108e-06
-1.34592e-06
-1.19333e-06
-9.02291e-07
-1.19074e-06
-4.58758e-07
-1.17366e-06
-2.06872e-08
-1.14212e-06
4.06274e-07
-1.09636e-06
8.15701e-07
-1.03762e-06
1.20095e-06
-9.67793e-07
1.55582e-06
-8.89461e-07
1.87575e-06
-8.05932e-07
2.15873e-06
-7.21161e-07
2.40498e-06
-6.39421e-07
2.61675e-06
-5.64411e-07
2.79788e-06
-4.98555e-07
2.95284e-06
-4.42793e-07
3.08584e-06
-3.97385e-07
3.2013e-06
-3.63559e-07
3.30506e-06
-3.43224e-07
3.40329e-06
-3.35854e-07
3.50022e-06
-3.35623e-07
3.59549e-06
-3.29207e-07
3.68256e-06
-2.96684e-07
3.74893e-06
-2.17529e-07
3.77647e-06
-7.99437e-08
3.74096e-06
1.09434e-07
3.6107e-06
3.22114e-07
3.36058e-06
5.31849e-07
2.9796e-06
7.44779e-07
2.47107e-06
9.85661e-07
1.8548e-06
1.24884e-06
1.16603e-06
1.49218e-06
4.43793e-07
1.6804e-06
-2.79786e-07
1.80449e-06
-9.81959e-07
1.87081e-06
-1.64758e-06
1.88951e-06
-2.26815e-06
1.87043e-06
-2.84003e-06
1.82174e-06
-3.36291e-06
1.74905e-06
-3.83777e-06
1.65546e-06
-4.26605e-06
1.54318e-06
-4.64848e-06
1.41305e-06
-4.98462e-06
1.26629e-06
-5.27386e-06
1.10602e-06
-5.51513e-06
9.34912e-07
-5.70706e-06
7.55687e-07
-5.84785e-06
5.71382e-07
-5.93538e-06
3.85113e-07
-5.96789e-06
1.99795e-07
-5.94413e-06
1.78948e-08
-5.86433e-06
-1.59276e-07
-5.7297e-06
-3.30284e-07
-5.5426e-06
-4.94161e-07
-5.30522e-06
-6.50491e-07
-5.01984e-06
-7.99247e-07
-4.68864e-06
-9.40403e-07
-4.31378e-06
-1.07365e-06
-3.89757e-06
-1.198e-06
-3.44229e-06
-1.31225e-06
-2.94983e-06
-1.41558e-06
-2.42432e-06
-1.50582e-06
-1.87103e-06
-1.58001e-06
-1.29548e-06
-1.63479e-06
-7.03705e-07
-1.66762e-06
-1.0381e-07
-1.67858e-06
4.90757e-07
-1.66846e-06
1.06859e-06
-1.635e-06
1.62157e-06
-1.57605e-06
2.14327e-06
-1.49115e-06
2.62888e-06
-1.38292e-06
3.07321e-06
-1.25713e-06
3.47175e-06
-1.11932e-06
3.8218e-06
-9.73983e-07
4.12281e-06
-8.26183e-07
4.37514e-06
-6.80451e-07
4.57971e-06
-5.40359e-07
4.73913e-06
-4.09794e-07
4.85754e-06
-2.91949e-07
4.93988e-06
-1.88493e-07
4.9913e-06
-1.00407e-07
5.01398e-06
-2.67829e-08
5.01733e-06
3.33263e-08
5.00336e-06
8.13406e-08
4.97537e-06
1.19864e-07
4.93573e-06
1.50847e-07
4.88611e-06
1.76361e-07
4.82749e-06
1.98344e-07
4.76011e-06
2.18505e-07
4.68353e-06
2.3821e-07
4.5968e-06
2.58369e-07
4.49872e-06
2.79333e-07
4.38813e-06
3.00853e-07
4.26433e-06
3.22105e-07
4.12733e-06
3.41791e-07
3.97832e-06
3.58455e-07
3.81968e-06
3.70672e-07
3.65473e-06
3.77207e-07
3.48733e-06
3.77599e-07
3.32159e-06
3.72141e-07
3.16136e-06
3.61612e-07
3.00955e-06
3.47563e-07
2.86784e-06
3.31919e-07
2.73666e-06
3.16307e-07
2.61548e-06
3.02609e-07
2.50308e-06
2.92374e-07
2.39783e-06
2.86527e-07
2.29791e-06
2.85186e-07
2.20195e-06
2.86324e-07
2.10976e-06
2.84745e-07
2.02317e-06
2.7164e-07
1.94663e-06
2.35994e-07
1.88696e-06
1.69033e-07
1.85228e-06
7.11408e-08
1.8471e-06
-4.15848e-08
1.86924e-06
-1.38018e-07
1.90417e-06
-1.75531e-07
1.92048e-06
-1.10532e-07
1.87377e-06
7.78909e-08
1.72445e-06
3.709e-07
1.45616e-06
7.05423e-07
1.00825e-06
1.07751e-06
1.01234e-07
-3.06661e-07
2.24227e-07
-3.79324e-07
3.61046e-07
-4.32671e-07
5.05847e-07
-4.73899e-07
6.52586e-07
-5.00089e-07
7.96029e-07
-5.10123e-07
9.32067e-07
-5.04527e-07
1.05758e-06
-4.84545e-07
1.17023e-06
-4.5159e-07
1.26822e-06
-4.07076e-07
1.35016e-06
-3.52373e-07
1.41495e-06
-2.88795e-07
1.46173e-06
-2.17596e-07
1.48979e-06
-1.39967e-07
1.4985e-06
-5.70489e-08
1.48731e-06
3.00516e-08
1.45577e-06
1.20327e-07
1.40339e-06
2.12598e-07
1.32971e-06
3.05753e-07
1.23435e-06
3.9827e-07
1.11711e-06
4.87883e-07
9.76962e-07
5.72947e-07
8.12711e-07
6.52262e-07
6.23898e-07
7.24093e-07
4.1116e-07
7.86423e-07
1.76464e-07
8.37796e-07
-7.68787e-08
8.78052e-07
-3.44896e-07
9.07593e-07
-6.23655e-07
9.27777e-07
-9.08732e-07
9.42229e-07
-1.19741e-06
9.5674e-07
-1.4912e-06
9.7758e-07
-1.79508e-06
1.0087e-06
-2.11371e-06
1.04929e-06
-2.44786e-06
1.09374e-06
-2.79373e-06
1.13405e-06
-3.14475e-06
1.1627e-06
-3.49361e-06
1.17422e-06
-3.83349e-06
1.16531e-06
-4.15832e-06
1.13434e-06
-4.46265e-06
1.08076e-06
-4.74127e-06
1.00475e-06
-4.98922e-06
9.07007e-07
-5.20194e-06
7.88755e-07
-5.37517e-06
6.51689e-07
-5.50458e-06
4.97685e-07
-5.58654e-06
3.29998e-07
-5.61869e-06
1.52203e-07
-5.59953e-06
-3.25743e-08
-5.52904e-06
-2.20942e-07
-5.40788e-06
-4.08833e-07
-5.23768e-06
-5.92466e-07
-5.02083e-06
-7.68569e-07
-4.7603e-06
-9.34546e-07
-4.46052e-06
-1.08721e-06
-4.1267e-06
-1.22333e-06
-3.76398e-06
-1.34073e-06
-3.37765e-06
-1.43822e-06
-2.97288e-06
-1.51528e-06
-2.55433e-06
-1.57212e-06
-2.12591e-06
-1.60951e-06
-1.69065e-06
-1.62858e-06
-1.25083e-06
-1.63056e-06
-8.08171e-07
-1.61633e-06
-3.64093e-07
-1.5862e-06
7.94273e-08
-1.53988e-06
5.18715e-07
-1.47691e-06
9.48122e-07
-1.3972e-06
1.36027e-06
-1.30161e-06
1.7467e-06
-1.19237e-06
2.09922e-06
-1.07368e-06
2.41141e-06
-9.51618e-07
2.68022e-06
-8.33222e-07
2.90668e-06
-7.25015e-07
3.09528e-06
-6.31394e-07
3.25141e-06
-5.53507e-07
3.37944e-06
-4.91595e-07
3.48504e-06
-4.48818e-07
3.57549e-06
-4.26304e-07
3.65613e-06
-4.16264e-07
3.72632e-06
-3.99399e-07
3.77719e-06
-3.47555e-07
3.79226e-06
-2.326e-07
3.75086e-06
-3.85413e-08
3.6302e-06
2.30092e-07
3.40361e-06
5.48707e-07
3.04439e-06
8.9107e-07
2.54134e-06
1.24783e-06
1.91572e-06
1.61128e-06
1.21898e-06
1.94559e-06
5.07108e-07
2.20405e-06
-1.80093e-07
2.3676e-06
-8.22745e-07
2.44714e-06
-1.41451e-06
2.46257e-06
-1.9577e-06
2.43271e-06
-2.45925e-06
2.37198e-06
-2.92718e-06
2.28966e-06
-3.36869e-06
2.19056e-06
-3.78771e-06
2.07448e-06
-4.18413e-06
1.93959e-06
-4.55404e-06
1.78296e-06
-4.89088e-06
1.60313e-06
-5.18791e-06
1.40305e-06
-5.43877e-06
1.18577e-06
-5.63788e-06
9.54798e-07
-5.78115e-06
7.14657e-07
-5.86622e-06
4.70186e-07
-5.89235e-06
2.25924e-07
-5.86033e-06
-1.41266e-08
-5.77217e-06
-2.4744e-07
-5.63039e-06
-4.72063e-07
-5.43768e-06
-6.86871e-07
-5.19647e-06
-8.91703e-07
-4.90887e-06
-1.08684e-06
-4.57665e-06
-1.27262e-06