/*--------------------------------*- C++ -*----------------------------------*\
| =========                 |                                                 |
| \\      /  F ield         | OpenFOAM: The Open Source CFD Toolbox           |
|  \\    /   O peration     | Version:  2112                                  |
|   \\  /    A nd           | Website:  www.openfoam.com                      |
|    \\/     M anipulation  |                                                 |
\*---------------------------------------------------------------------------*/
FoamFile
{
    version     2.0;
    format      ascii;
    arch        "LSB;label=32;scalar=64";
    class       volVectorField;
    location    "0.05";
    object      U;
}
// * * * * * * * * * * * * * * * * * * * * * * * * * * * * * * * * * * * * * //

dimensions      [0 1 -1 0 0 0 0];

internalField   nonuniform List<vector> 
12225
(
(9.75721 0.0598542 0)
(9.27771 0.094786 0)
(8.79585 0.0991151 0)
(8.33428 0.0978005 0)
(7.91984 0.0934557 0)
(7.56399 0.0865063 0)
(7.27148 0.0797825 0)
(7.02188 0.0746573 0)
(6.81755 0.0693188 0)
(6.66212 0.0621659 0)
(6.55533 0.0530373 0)
(6.4917 0.0426381 0)
(6.46282 0.0346926 0)
(6.45798 0.0309291 0)
(6.46089 0.0307654 0)
(6.46533 0.034231 0)
(6.42197 0.0609644 0)
(6.38966 0.0456885 0)
(10.1051 0.0738684 0)
(10.313 0.107199 0)
(10.4484 0.107032 0)
(10.5176 0.105448 0)
(10.537 0.10095 0)
(10.5144 0.0919071 0)
(10.4555 0.0811331 0)
(10.3657 0.0703655 0)
(10.2485 0.0578074 0)
(10.1054 0.0426364 0)
(9.93753 0.0260277 0)
(9.74817 0.00996309 0)
(9.54206 -0.00262357 0)
(9.32532 -0.0101891 0)
(9.10472 -0.0131622 0)
(8.89102 -0.00780112 0)
(8.68235 0.00690665 0)
(8.55954 0.0783657 0)
(10.0111 0.035685 0)
(10.0619 0.0540297 0)
(10.1156 0.0588054 0)
(10.1647 0.0670793 0)
(10.2136 0.0745234 0)
(10.2604 0.0793076 0)
(10.3012 0.0837939 0)
(10.3349 0.0894097 0)
(10.3614 0.09535 0)
(10.3792 0.101351 0)
(10.3866 0.108045 0)
(10.3823 0.116034 0)
(10.3655 0.124705 0)
(10.3357 0.133611 0)
(10.2921 0.142545 0)
(10.2352 0.153537 0)
(10.1668 0.164808 0)
(10.0898 0.18581 0)
(10.0062 0.0297803 0)
(10.0347 0.0583344 0)
(10.0616 0.0681292 0)
(10.0804 0.0745898 0)
(10.097 0.0784773 0)
(10.1141 0.0792317 0)
(10.1302 0.078708 0)
(10.1455 0.0782364 0)
(10.1605 0.0774941 0)
(10.1753 0.0761497 0)
(10.1891 0.0746005 0)
(10.2017 0.0736304 0)
(10.2133 0.0740912 0)
(10.2246 0.077243 0)
(10.2361 0.084027 0)
(10.2491 0.0957835 0)
(10.2647 0.111901 0)
(10.2869 0.13033 0)
(10.0045 0.0248212 0)
(10.027 0.05202 0)
(10.05 0.0607031 0)
(10.066 0.0655708 0)
(10.0787 0.0693101 0)
(10.0906 0.070998 0)
(10.1011 0.071698 0)
(10.1101 0.0726664 0)
(10.1182 0.0739211 0)
(10.1258 0.0752938 0)
(10.1327 0.0771834 0)
(10.1388 0.0802882 0)
(10.1445 0.0851269 0)
(10.1506 0.0920489 0)
(10.1578 0.10106 0)
(10.1676 0.112394 0)
(10.1814 0.12495 0)
(10.2043 0.137474 0)
(10.0032 0.0203296 0)
(10.0209 0.0455601 0)
(10.0412 0.0555709 0)
(10.0567 0.0614871 0)
(10.0691 0.0662265 0)
(10.0805 0.0689553 0)
(10.0906 0.0703473 0)
(10.0992 0.0715491 0)
(10.1068 0.0727812 0)
(10.1136 0.0739561 0)
(10.1195 0.0753481 0)
(10.1247 0.077457 0)
(10.1295 0.0806675 0)
(10.1345 0.0852818 0)
(10.1404 0.0914358 0)
(10.1485 0.0992594 0)
(10.1599 0.1078 0)
(10.1765 0.115754 0)
(10.0023 0.0167505 0)
(10.0162 0.040053 0)
(10.0338 0.0510533 0)
(10.0485 0.0573231 0)
(10.0604 0.062024 0)
(10.0712 0.0649201 0)
(10.0811 0.0665131 0)
(10.0898 0.0677862 0)
(10.0974 0.0690947 0)
(10.1044 0.0704648 0)
(10.1106 0.0721298 0)
(10.1163 0.0745019 0)
(10.1217 0.0779248 0)
(10.1275 0.0826233 0)
(10.1342 0.088606 0)
(10.1428 0.0956535 0)
(10.1539 0.102833 0)
(10.1686 0.108589 0)
(10.0017 0.0139341 0)
(10.0126 0.0350651 0)
(10.0277 0.0464072 0)
(10.0413 0.0528754 0)
(10.0526 0.0575999 0)
(10.063 0.0608129 0)
(10.0726 0.0628338 0)
(10.0811 0.0644198 0)
(10.0888 0.0659733 0)
(10.0959 0.0675985 0)
(10.1024 0.0694838 0)
(10.1085 0.0719354 0)
(10.1145 0.0751985 0)
(10.1209 0.079375 0)
(10.1282 0.0843543 0)
(10.1371 0.089793 0)
(10.1478 0.0948919 0)
(10.1609 0.0985104 0)
(10.0012 0.0116799 0)
(10.0099 0.0305508 0)
(10.0227 0.0418275 0)
(10.0352 0.0484913 0)
(10.0459 0.053282 0)
(10.0558 0.0567215 0)
(10.065 0.0590437 0)
(10.0735 0.0608314 0)
(10.0812 0.0625039 0)
(10.0883 0.0642286 0)
(10.095 0.0661691 0)
(10.1015 0.0685485 0)
(10.1079 0.0715341 0)
(10.1148 0.0751563 0)
(10.1224 0.0792619 0)
(10.1313 0.0834985 0)
(10.1416 0.0872352 0)
(10.1534 0.089647 0)
(10.0009 0.00984865 0)
(10.0078 0.026519 0)
(10.0187 0.0374081 0)
(10.03 0.044151 0)
(10.0401 0.0489465 0)
(10.0495 0.0524875 0)
(10.0584 0.0550096 0)
(10.0667 0.0569635 0)
(10.0744 0.0587431 0)
(10.0816 0.0605455 0)
(10.0885 0.0625121 0)
(10.0952 0.0647978 0)
(10.102 0.067504 0)
(10.1092 0.0706125 0)
(10.117 0.0739527 0)
(10.1258 0.077201 0)
(10.1355 0.0798657 0)
(10.1462 0.0813915 0)
(10.0007 0.00833552 0)
(10.0062 0.0229406 0)
(10.0154 0.0331929 0)
(10.0256 0.0398581 0)
(10.0351 0.044595 0)
(10.0441 0.0481558 0)
(10.0526 0.0508013 0)
(10.0608 0.0528777 0)
(10.0684 0.0547275 0)
(10.0757 0.0565526 0)
(10.0827 0.0584768 0)
(10.0897 0.0606048 0)
(10.0967 0.06299 0)
(10.1041 0.0655872 0)
(10.1119 0.0682329 0)
(10.1204 0.0706572 0)
(10.1296 0.0724964 0)
(10.1393 0.073399 0)
(10.0006 0.00714441 0)
(10.0051 0.0199775 0)
(10.0131 0.0294931 0)
(10.0223 0.0359586 0)
(10.0312 0.0405877 0)
(10.0397 0.0441049 0)
(10.048 0.0467907 0)
(10.056 0.0489222 0)
(10.0635 0.0507894 0)
(10.0709 0.0525857 0)
(10.078 0.0544215 0)
(10.0851 0.0563684 0)
(10.0922 0.0584491 0)
(10.0997 0.0606079 0)
(10.1075 0.0627008 0)
(10.1158 0.064514 0)
(10.1244 0.0657814 0)
(10.1334 0.06629 0)
(10.0005 0.00613621 0)
(10.0043 0.0173393 0)
(10.0112 0.0260023 0)
(10.0195 0.032137 0)
(10.0278 0.0365942 0)
(10.036 0.0400086 0)
(10.0439 0.0426658 0)
(10.0517 0.0447975 0)
(10.0592 0.0466431 0)
(10.0666 0.0483757 0)
(10.0737 0.0500924 0)
(10.0809 0.0518426 0)
(10.0882 0.0536298 0)
(10.0956 0.0553973 0)
(10.1033 0.0570248 0)
(10.1113 0.05835 0)
(10.1195 0.0591812 0)
(10.1279 0.0594024 0)
(10.0004 0.00512846 0)
(10.0036 0.0146118 0)
(10.0094 0.0222263 0)
(10.0168 0.0278515 0)
(10.0245 0.0320238 0)
(10.0323 0.0352477 0)
(10.0399 0.0377938 0)
(10.0475 0.0398562 0)
(10.0549 0.0416227 0)
(10.0622 0.043237 0)
(10.0694 0.0447804 0)
(10.0766 0.0462863 0)
(10.0839 0.0477473 0)
(10.0913 0.0491131 0)
(10.0988 0.0502925 0)
(10.1065 0.0511738 0)
(10.1142 0.0516307 0)
(10.122 0.0516215 0)
(10.0003 0.00412102 0)
(10.003 0.011822 0)
(10.008 0.0182076 0)
(10.0144 0.0231137 0)
(10.0215 0.0268401 0)
(10.0288 0.0297486 0)
(10.0361 0.0320702 0)
(10.0434 0.0339626 0)
(10.0507 0.035566 0)
(10.058 0.0369902 0)
(10.0651 0.038299 0)
(10.0723 0.0395151 0)
(10.0795 0.0406283 0)
(10.0868 0.0416007 0)
(10.0941 0.0423709 0)
(10.1014 0.0428721 0)
(10.1087 0.0430287 0)
(10.116 0.0428494 0)
(10.0003 0.00310864 0)
(10.0025 0.00896606 0)
(10.0067 0.0139492 0)
(10.0125 0.0179086 0)
(10.0189 0.0209895 0)
(10.0257 0.0234209 0)
(10.0327 0.0253745 0)
(10.0398 0.0269691 0)
(10.0469 0.0283022 0)
(10.054 0.0294503 0)
(10.0611 0.0304588 0)
(10.0682 0.0313433 0)
(10.0753 0.0320966 0)
(10.0823 0.0326949 0)
(10.0894 0.0331031 0)
(10.0964 0.0332883 0)
(10.1032 0.0332103 0)
(10.11 0.0329067 0)
(10.0002 0.00207285 0)
(10.0021 0.00600137 0)
(10.0058 0.00940741 0)
(10.0109 0.012187 0)
(10.0168 0.0143964 0)
(10.0232 0.0161566 0)
(10.0298 0.0175722 0)
(10.0367 0.0187192 0)
(10.0436 0.0196577 0)
(10.0505 0.0204338 0)
(10.0575 0.021075 0)
(10.0644 0.0215913 0)
(10.0713 0.0219787 0)
(10.0782 0.0222255 0)
(10.0849 0.0223151 0)
(10.0916 0.0222362 0)
(10.0981 0.0219693 0)
(10.1044 0.0215638 0)
(10.0002 0.000974471 0)
(10.0019 0.00282747 0)
(10.0053 0.00445553 0)
(10.0099 0.0058103 0)
(10.0155 0.00690142 0)
(10.0215 0.00776789 0)
(10.0279 0.00845014 0)
(10.0345 0.00898104 0)
(10.0412 0.0093864 0)
(10.048 0.00968502 0)
(10.0548 0.00988775 0)
(10.0615 0.00999779 0)
(10.0682 0.0100126 0)
(10.0748 0.00992665 0)
(10.0813 0.00973336 0)
(10.0877 0.00943127 0)
(10.0939 0.0090104 0)
(10.0999 0.0085194 0)
(10.0002 -0.000269559 0)
(10.0018 -0.000774067 0)
(10.0051 -0.00119438 0)
(10.0097 -0.00152297 0)
(10.015 -0.00179051 0)
(10.0209 -0.00203371 0)
(10.0272 -0.00227316 0)
(10.0336 -0.00251758 0)
(10.0402 -0.0027741 0)
(10.0469 -0.00305086 0)
(10.0536 -0.00335543 0)
(10.0602 -0.00369444 0)
(10.0667 -0.00407437 0)
(10.0731 -0.0045015 0)
(10.0794 -0.00498174 0)
(10.0855 -0.00551646 0)
(10.0915 -0.00611407 0)
(10.0972 -0.00673718 0)
(10.0002 -0.00148999 0)
(10.002 -0.00429614 0)
(10.0056 -0.00667898 0)
(10.0104 -0.00858179 0)
(10.016 -0.0101033 0)
(10.0221 -0.0113702 0)
(10.0284 -0.0124599 0)
(10.0349 -0.0134148 0)
(10.0416 -0.0142698 0)
(10.0482 -0.015055 0)
(10.0548 -0.0157918 0)
(10.0614 -0.0164941 0)
(10.0678 -0.0171735 0)
(10.0742 -0.0178413 0)
(10.0803 -0.0185094 0)
(10.0863 -0.0191861 0)
(10.0921 -0.0198859 0)
(10.0977 -0.0205862 0)
(10.0003 -0.00260518 0)
(10.0024 -0.00746849 0)
(10.0065 -0.0114876 0)
(10.0119 -0.0145953 0)
(10.0179 -0.0170312 0)
(10.0242 -0.0190339 0)
(10.0307 -0.0207261 0)
(10.0374 -0.0221797 0)
(10.0442 -0.0234626 0)
(10.0509 -0.0246272 0)
(10.0576 -0.0257013 0)
(10.0642 -0.0266973 0)
(10.0707 -0.0276249 0)
(10.077 -0.028497 0)
(10.0832 -0.0293289 0)
(10.0891 -0.0301348 0)
(10.0949 -0.0309338 0)
(10.1004 -0.0317173 0)
(10.0003 -0.00380665 0)
(10.003 -0.0107825 0)
(10.008 -0.0162733 0)
(10.0142 -0.0203235 0)
(10.0207 -0.0234571 0)
(10.0274 -0.0260347 0)
(10.0342 -0.0281801 0)
(10.0411 -0.0299798 0)
(10.048 -0.0315393 0)
(10.0548 -0.0329357 0)
(10.0615 -0.0342004 0)
(10.0682 -0.0353416 0)
(10.0747 -0.0363682 0)
(10.0811 -0.0372974 0)
(10.0873 -0.0381529 0)
(10.0932 -0.0389601 0)
(10.0989 -0.0397503 0)
(10.1044 -0.0405333 0)
(10.0005 -0.00519905 0)
(10.004 -0.0144354 0)
(10.0102 -0.0211821 0)
(10.0174 -0.025847 0)
(10.0246 -0.0294345 0)
(10.0316 -0.0324341 0)
(10.0388 -0.0349554 0)
(10.046 -0.0371072 0)
(10.053 -0.0390256 0)
(10.06 -0.040784 0)
(10.0668 -0.0423856 0)
(10.0736 -0.0438107 0)
(10.0803 -0.0450516 0)
(10.0868 -0.0461202 0)
(10.093 -0.0470422 0)
(10.099 -0.0478495 0)
(10.1047 -0.0485798 0)
(10.11 -0.0492499 0)
(10.0007 -0.0069154 0)
(10.0056 -0.0185774 0)
(10.0136 -0.0262952 0)
(10.0219 -0.0313065 0)
(10.0296 -0.0351203 0)
(10.037 -0.0381878 0)
(10.0444 -0.040616 0)
(10.0517 -0.0426467 0)
(10.0588 -0.0445155 0)
(10.0658 -0.046306 0)
(10.0728 -0.0479853 0)
(10.0798 -0.0494971 0)
(10.0866 -0.0508156 0)
(10.0933 -0.0519499 0)
(10.0997 -0.0529319 0)
(10.1058 -0.0538072 0)
(10.1116 -0.0546369 0)
(10.1172 -0.055487 0)
(10.001 -0.0091695 0)
(10.0081 -0.0232264 0)
(10.0182 -0.031273 0)
(10.0277 -0.0365409 0)
(10.036 -0.0410616 0)
(10.0439 -0.0448248 0)
(10.0517 -0.0477351 0)
(10.0592 -0.0501257 0)
(10.0664 -0.052325 0)
(10.0734 -0.0544215 0)
(10.0804 -0.0563294 0)
(10.0874 -0.0579368 0)
(10.0944 -0.05919 0)
(10.1011 -0.0600911 0)
(10.1075 -0.0606736 0)
(10.1136 -0.0609847 0)
(10.1193 -0.0610815 0)
(10.1243 -0.0609777 0)
(10.0017 -0.0123373 0)
(10.0119 -0.028911 0)
(10.0244 -0.0358273 0)
(10.0346 -0.0395025 0)
(10.0429 -0.0429542 0)
(10.0512 -0.0459875 0)
(10.0593 -0.048456 0)
(10.0669 -0.0507271 0)
(10.0741 -0.0531311 0)
(10.0811 -0.0557146 0)
(10.0883 -0.0583044 0)
(10.0957 -0.0607064 0)
(10.103 -0.0628206 0)
(10.1102 -0.0646392 0)
(10.1171 -0.0662177 0)
(10.1237 -0.0676341 0)
(10.13 -0.0690099 0)
(10.1361 -0.0704156 0)
(10.0029 -0.0161514 0)
(10.0179 -0.0368549 0)
(10.0338 -0.0460339 0)
(10.0449 -0.0516604 0)
(10.0537 -0.0559351 0)
(10.0626 -0.0586864 0)
(10.0717 -0.0603811 0)
(10.0803 -0.061727 0)
(10.0886 -0.0631345 0)
(10.0972 -0.0646152 0)
(10.1063 -0.0659268 0)
(10.1159 -0.0668308 0)
(10.1257 -0.0671932 0)
(10.1356 -0.066964 0)
(10.1453 -0.0661536 0)
(10.1546 -0.06482 0)
(10.1636 -0.0630607 0)
(10.1714 -0.0607955 0)
(10.0046 -0.0187822 0)
(10.0293 -0.0308964 0)
(10.056 -0.0337477 0)
(10.079 -0.039093 0)
(10.1019 -0.0452683 0)
(10.1261 -0.0503225 0)
(10.1504 -0.0546478 0)
(10.174 -0.0590855 0)
(10.197 -0.0641356 0)
(10.2199 -0.0696684 0)
(10.243 -0.0751738 0)
(10.2658 -0.0803261 0)
(10.2878 -0.0850556 0)
(10.3084 -0.0893986 0)
(10.327 -0.0934342 0)
(10.3434 -0.0972854 0)
(10.3573 -0.101112 0)
(10.3688 -0.104878 0)
(10.0549 -0.0494449 0)
(10.1822 -0.0760298 0)
(10.2841 -0.0770016 0)
(10.3597 -0.0779139 0)
(10.4168 -0.0790824 0)
(10.4581 -0.0787972 0)
(10.4839 -0.0774148 0)
(10.4955 -0.0758235 0)
(10.4951 -0.0749473 0)
(10.4847 -0.0747648 0)
(10.4654 -0.0743023 0)
(10.437 -0.0727678 0)
(10.3995 -0.0698232 0)
(10.353 -0.0654107 0)
(10.2978 -0.059616 0)
(10.2344 -0.0527793 0)
(10.1637 -0.0451959 0)
(10.0858 -0.038144 0)
(9.86861 -0.0426148 0)
(9.60498 -0.0723942 0)
(9.32723 -0.0791671 0)
(9.04702 -0.0816834 0)
(8.77966 -0.0825835 0)
(8.52997 -0.0819551 0)
(8.29782 -0.080349 0)
(8.08339 -0.0785771 0)
(7.88383 -0.077548 0)
(7.6937 -0.0774028 0)
(7.51346 -0.0774655 0)
(7.34457 -0.0770363 0)
(7.18884 -0.0757168 0)
(7.04818 -0.0733374 0)
(6.92415 -0.069866 0)
(6.81787 -0.0654217 0)
(6.72844 -0.0605421 0)
(6.65772 -0.0540892 0)
(-0.000558467 0.000856567 -2.29455e-21)
(-0.00103274 0.00116758 2.16907e-21)
(-0.00214539 0.00158285 0)
(-0.00352718 0.00211568 0)
(-0.00526675 0.00272866 0)
(-0.00742466 0.00337489 -2.16572e-21)
(-0.0100134 0.00400421 0)
(-0.0130109 0.00456868 0)
(-0.016368 0.00502761 0)
(-0.0200133 0.00535091 0)
(-0.0238585 0.00552045 2.16234e-21)
(-0.0278057 0.00553078 0)
(-0.0317553 0.00539011 0)
(-0.0356162 0.00512193 0)
(-0.0393171 0.00476676 0)
(-0.04282 0.0043846 2.12231e-21)
(-0.046136 0.00405875 0)
(-0.0493451 0.00390225 0)
(-0.0526212 0.00406544 0)
(-0.0562638 0.00473247 0)
(-0.0607289 0.00606383 0)
(-0.0666248 0.00797746 0)
(-0.0745766 0.00962891 0)
(-0.084812 0.0089682 2.00946e-21)
(-0.0967109 0.00465642 -1.97861e-21)
(-0.109557 0.000730677 1.93256e-21)
(-0.124043 0.00234726 1.87567e-21)
(-0.141586 0.00854677 0)
(-0.163062 0.0163756 0)
(-0.188656 0.0239574 -1.74162e-21)
(-0.218184 0.0305065 -1.71762e-21)
(-0.25136 0.0358871 0)
(-0.287909 0.0402795 0)
(-0.327657 0.0439885 -1.6792e-21)
(-0.370567 0.0473385 0)
(-0.41674 0.050617 0)
(-0.466405 0.0540461 1.66835e-21)
(-0.519884 0.0577761 0)
(-0.577572 0.0618916 1.67468e-21)
(-0.639902 0.0664254 3.36553e-21)
(-0.707327 0.0713731 0)
(-0.780293 0.0767079 0)
(-0.859231 0.0823976 0)
(-0.944541 0.0884298 0)
(-1.03659 0.0948559 0)
(-1.13574 0.101868 3.66026e-21)
(-1.24248 0.109944 3.75383e-21)
(-1.35759 0.120068 3.86383e-21)
(-1.48177 0.133419 0)
(-1.61559 0.144978 -4.14223e-21)
(-1.75841 0.151959 0)
(-1.90845 0.157727 4.49808e-21)
(-2.06532 0.163184 4.70302e-21)
(-2.22858 0.168017 0)
(-2.39744 0.171932 0)
(-2.57091 0.174765 0)
(-2.74784 0.176423 5.6831e-21)
(-2.92699 0.176911 0)
(-3.10708 0.176371 0)
(-3.28688 0.174948 0)
(-3.46525 0.172596 0)
(-3.641 0.169229 0)
(-3.813 0.164895 0)
(-3.98023 0.159705 0)
(-4.14181 0.153792 0)
(-4.29701 0.147309 -8.09299e-21)
(-4.44525 0.140421 0)
(-4.58613 0.133305 0)
(-4.71935 0.126139 8.66618e-21)
(-4.84477 0.119098 8.81411e-21)
(-4.96239 0.112335 0)
(-5.07229 0.105976 -9.04144e-21)
(-5.17466 0.100094 9.12062e-21)
(-5.26975 0.0947136 0)
(-5.35787 0.0898076 -9.21114e-21)
(-5.43935 0.0853187 0)
(-5.51451 0.0811783 0)
(-5.58368 0.0773214 9.18535e-21)
(-5.64716 0.0736899 0)
(-5.70525 0.0702283 -9.06938e-21)
(-5.75821 0.0668836 0)
(-5.80629 0.0636085 8.88273e-21)
(-5.8497 0.0603694 8.765e-21)
(-5.88869 0.0571579 8.63217e-21)
(-5.92349 0.0539674 1.6971e-20)
(-5.95423 0.0507281 -1.66518e-20)
(-5.98087 0.0473884 0)
(-6.00331 0.0442075 0)
(-6.0217 0.0415032 0)
(-6.03634 0.038808 -1.51165e-20)
(-6.0475 0.0361518 -1.46789e-20)
(-6.05524 0.0340644 1.42202e-20)
(-6.05907 0.0328357 0)
(-6.05945 0.0318805 -1.3235e-20)
(-6.0563 0.0306503 -1.27078e-20)
(-6.04966 0.0290216 -1.21564e-20)
(-6.03929 0.0269216 0)
(-6.02483 0.0243007 0)
(-6.00586 0.0211077 0)
(-5.9818 0.0172602 -9.67963e-21)
(-5.95191 0.0126522 0)
(-5.91529 0.00717383 0)
(-5.87084 0.000710277 7.46477e-21)
(-5.81729 -0.0068483 0)
(-5.75317 -0.0155882 0)
(-5.67674 -0.0255551 4.79594e-21)
(-5.58594 -0.0367767 0)
(-5.47838 -0.0493257 0)
(-5.35142 -0.063257 -1.46239e-21)
(-5.20218 -0.0786265 -1.59657e-22)
(-5.02767 -0.0955398 0)
(-4.82479 -0.114164 -2.78018e-21)
(-4.5904 -0.13458 0)
(-4.32151 -0.156606 6.1757e-21)
(-4.01535 -0.179899 0)
(-3.66974 -0.203881 9.97386e-21)
(-3.2834 -0.227654 1.19736e-20)
(-2.85686 -0.249671 0)
(-2.39357 -0.267522 0)
(-1.8991 -0.279942 0)
(-1.38392 -0.282293 0)
(-0.863722 -0.272553 0)
(-0.354371 -0.264025 0)
(0.15215 -0.270064 0)
(0.675079 -0.278572 2.35014e-20)
(1.20174 -0.273355 -2.35922e-20)
(1.71083 -0.256936 0)
(2.1915 -0.234784 0)
(2.63582 -0.207783 0)
(3.04134 -0.178857 0)
(3.40679 -0.149181 -4.20124e-20)
(3.73398 -0.120891 0)
(4.02622 -0.0957502 3.87328e-20)
(4.28715 -0.074188 -3.70424e-20)
(4.52006 -0.0559548 0)
(4.72752 -0.0406317 0)
(4.91176 -0.0276381 0)
(5.075 -0.016583 3.04346e-20)
(5.21944 -0.00723741 2.88845e-20)
(5.34713 0.000594323 0)
(5.45987 0.00710941 2.59429e-20)
(5.55916 0.0124994 2.45547e-20)
(5.64618 0.0169385 -2.32233e-20)
(5.72179 0.0205696 0)
(5.78658 0.0234909 0)
(5.84087 0.0257536 -1.95925e-20)
(5.88471 0.0273663 0)
(5.91782 0.0281607 0)
(5.93973 0.0285006 0)
(5.94787 0.0329249 0)
(5.94268 0.0394442 1.49655e-20)
(5.92529 0.0441521 1.43054e-20)
(5.89615 0.0468953 0)
(5.85565 0.0488756 1.3301e-20)
(5.80348 0.0511119 0)
(5.73858 0.0541962 0)
(5.65954 0.0581694 1.26282e-20)
(5.56537 0.0625313 0)
(5.45595 0.0665571 1.27017e-20)
(5.33207 0.0696803 0)
(5.19507 0.0716364 0)
(5.04663 0.0724283 1.34076e-20)
(4.88849 0.0722398 0)
(4.72241 0.0712845 1.41293e-20)
(4.55007 0.0696888 0)
(4.37317 0.0674896 0)
(4.19342 0.0646839 0)
(4.01247 0.0613033 -1.56735e-20)
(3.83187 0.0574032 0)
(3.65298 0.0530389 1.63306e-20)
(3.47706 0.048294 0)
(3.30521 0.0433034 0)
(3.13838 0.0382989 0)
(2.97725 0.0336587 0)
(2.82221 0.0299303 0)
(2.67285 0.0277041 0)
(2.5293 0.0275112 0)
(2.38602 0.0297286 -3.49386e-20)
(2.25204 0.0381666 0)
(2.05029 0.0484722 0)
(-0.00103703 0.00241231 6.79915e-21)
(-0.0017948 0.00297044 -6.42877e-21)
(-0.00343109 0.00373378 0)
(-0.00526926 0.00467549 4.26678e-21)
(-0.00741221 0.00573742 0)
(-0.00992259 0.00684203 2.13619e-21)
(-0.0128114 0.00790916 -4.27589e-21)
(-0.016062 0.00886555 -4.28076e-21)
(-0.0196394 0.00964978 0)
(-0.0234915 0.0102157 -4.28317e-21)
(-0.0275517 0.0105351 -2.14076e-21)
(-0.0317432 0.0106005 0)
(-0.0359851 0.0104278 0)
(-0.0402002 0.0100596 0)
(-0.0443253 0.00956847 0)
(-0.0483222 0.00906009 -2.10817e-21)
(-0.0521904 0.0086783 0)
(-0.0559797 0.00861182 4.17282e-21)
(-0.0598005 0.00910313 0)
(-0.0638316 0.0104545 0)
(-0.0683271 0.0130154 -4.09776e-21)
(-0.0736329 0.0171138 0)
(-0.0802347 0.0228759 4.03846e-21)
(-0.0890697 0.0299089 -1.99801e-21)
(-0.102122 0.0370991 1.9659e-21)
(-0.12066 0.0434633 -1.91645e-21)
(-0.142889 0.0495082 -1.85466e-21)
(-0.16729 0.0560191 0)
(-0.19391 0.0629785 0)
(-0.223138 0.0700557 1.71154e-21)
(-0.255306 0.077 -1.67955e-21)
(-0.290713 0.0837375 0)
(-0.329638 0.0903348 0)
(-0.372348 0.0969432 1.64592e-21)
(-0.419108 0.103751 0)
(-0.470211 0.110948 0)
(-0.526002 0.118703 -1.63357e-21)
(-0.586894 0.12715 0)
(-0.653371 0.136382 1.60325e-21)
(-0.725985 0.146451 -3.29234e-21)
(-0.80535 0.157369 0)
(-0.892121 0.169111 0)
(-0.986986 0.181622 -6.67037e-21)
(-1.09064 0.194831 -6.76284e-21)
(-1.20377 0.208664 -6.87794e-21)
(-1.32702 0.223053 3.4461e-21)
(-1.46091 0.23794 -3.66078e-21)
(-1.60557 0.253269 -1.11456e-20)
(-1.76045 0.268916 7.60509e-21)
(-1.92527 0.284278 4.0213e-21)
(-2.09994 0.298329 0)
(-2.28399 0.310984 -4.34388e-21)
(-2.47621 0.32213 4.36274e-21)
(-2.67513 0.331449 0)
(-2.87917 0.338597 0)
(-3.08665 0.343305 0)
(-3.29582 0.3454 -5.44073e-21)
(-3.50491 0.344817 0)
(-3.71218 0.341599 1.18587e-20)
(-3.91596 0.335873 0)
(-4.1147 0.327816 1.29805e-20)
(-4.30707 0.317658 0)
(-4.49199 0.305694 -1.40784e-20)
(-4.6686 0.29226 0)
(-4.83626 0.2777 1.51006e-20)
(-4.99454 0.262351 -7.80459e-21)
(-5.14321 0.246517 0)
(-5.28218 0.23046 -1.64048e-20)
(-5.4115 0.214392 -8.35397e-21)
(-5.53127 0.198478 -8.51233e-21)
(-5.64168 0.182851 0)
(-5.74292 0.167613 -8.82616e-21)
(-5.83519 0.152848 -8.86373e-21)
(-5.91872 0.138629 0)
(-5.99373 0.125019 8.99106e-21)
(-6.06047 0.112066 -1.80916e-20)
(-6.11924 0.0998042 0)
(-6.17038 0.0882521 -9.01811e-21)
(-6.21426 0.0774163 0)
(-6.25127 0.0672904 2.68272e-20)
(-6.28182 0.0578583 0)
(-6.30628 0.0490981 -2.63317e-20)
(-6.32504 0.0409871 -8.6606e-21)
(-6.33845 0.0335116 8.55745e-21)
(-6.34698 0.0266243 1.68343e-20)
(-6.35102 0.0200978 -1.65314e-20)
(-6.35047 0.0136081 0)
(-6.34522 0.00729067 0)
(-6.33631 0.000660174 0)
(-6.32455 -0.00589363 4.50137e-20)
(-6.30952 -0.012216 1.45553e-20)
(-6.2911 -0.0180604 -1.40995e-20)
(-6.26967 -0.0232167 0)
(-6.2445 -0.0279889 -1.31478e-20)
(-6.2154 -0.0327329 1.25924e-20)
(-6.18198 -0.037588 1.20424e-20)
(-6.14399 -0.042661 0)
(-6.10117 -0.0480304 0)
(-6.05323 -0.0537759 0)
(-5.99976 -0.060087 9.5722e-21)
(-5.94025 -0.0672054 0)
(-5.87399 -0.0753386 -1.64089e-20)
(-5.80016 -0.0847206 -2.22469e-20)
(-5.71771 -0.0956162 1.32596e-20)
(-5.62541 -0.108311 0)
(-5.5218 -0.12309 4.96755e-21)
(-5.4052 -0.140244 0)
(-5.27369 -0.160104 5.56629e-21)
(-5.125 -0.182982 -1.82948e-21)
(-4.95656 -0.209092 -6.14011e-22)
(-4.76536 -0.238419 0)
(-4.54816 -0.270655 7.555e-21)
(-4.30201 -0.305468 -7.98458e-21)
(-4.02391 -0.342952 -6.02267e-21)
(-3.71162 -0.382417 0)
(-3.36332 -0.422797 -9.72078e-21)
(-2.97834 -0.462773 -3.42023e-20)
(-2.55774 -0.500684 0)
(-2.10211 -0.532808 -3.03843e-20)
(-1.61406 -0.554592 -3.41824e-20)
(-1.10048 -0.563103 -3.77207e-20)
(-0.566325 -0.557798 0)
(-0.0167051 -0.548818 0)
(0.54128 -0.550666 0)
(1.09122 -0.551783 2.2366e-20)
(1.62074 -0.538587 2.2908e-20)
(2.12573 -0.511373 0)
(2.60004 -0.476351 4.41094e-20)
(3.04125 -0.438118 4.30604e-20)
(3.45015 -0.399518 0)
(3.82769 -0.362606 4.0841e-20)
(4.17624 -0.328221 7.80726e-20)
(4.49658 -0.296523 -3.78059e-20)
(4.78827 -0.266511 -3.57601e-20)
(5.05309 -0.238932 0)
(5.29285 -0.21422 0)
(5.50915 -0.192172 0)
(5.70345 -0.172557 -2.99343e-20)
(5.87727 -0.155165 2.83597e-20)
(6.03202 -0.139723 5.39471e-20)
(6.16893 -0.125913 -2.55809e-20)
(6.289 -0.113404 2.42911e-20)
(6.39303 -0.101876 2.29255e-20)
(6.48163 -0.091034 0)
(6.55523 -0.0806153 0)
(6.61408 -0.0703848 -1.95283e-20)
(6.65831 -0.0600993 0)
(6.68813 -0.0496276 0)
(6.70502 -0.0384832 3.29582e-20)
(6.71069 -0.0275042 0)
(6.7028 -0.015946 1.49699e-20)
(6.6804 -0.00420798 -1.40654e-20)
(6.64316 0.00750878 0)
(6.59037 0.0194109 1.32561e-20)
(6.52168 0.0316265 0)
(6.43719 0.04416 0)
(6.33721 0.056898 -1.2204e-20)
(6.22205 0.0695744 2.4511e-20)
(6.09209 0.0818 -1.21849e-20)
(5.94791 0.0932076 0)
(5.79038 0.10355 0)
(5.62061 0.112647 1.29694e-20)
(5.44002 0.120324 0)
(5.25037 0.126439 1.35938e-20)
(5.05372 0.130946 0)
(4.85221 0.133901 0)
(4.64798 0.13539 0)
(4.44314 0.135563 1.47285e-20)
(4.2396 0.134588 0)
(4.03903 0.132599 -1.5344e-20)
(3.84292 0.129725 0)
(3.65248 0.126073 0)
(3.46869 0.121755 3.22274e-20)
(3.29215 0.116941 -3.25844e-20)
(3.12311 0.111898 0)
(2.96095 0.106986 0)
(2.80566 0.102709 0)
(2.65235 0.0999603 1.00204e-19)
(2.51092 0.104041 0)
(2.34154 0.11321 -6.6674e-20)
(-0.00136001 0.00582808 -2.4123e-24)
(-0.00237751 0.00676561 8.56364e-21)
(-0.00453918 0.00810532 0)
(-0.00688966 0.00976996 -8.49611e-21)
(-0.00954784 0.0116451 0)
(-0.0125791 0.0135977 0)
(-0.0159866 0.0154964 7.62851e-25)
(-0.0197473 0.0172216 4.24625e-21)
(-0.0238245 0.0186698 4.24888e-21)
(-0.0281684 0.0197584 4.25072e-21)
(-0.0327169 0.0204304 0)
(-0.037399 0.0206607 0)
(-0.0421382 0.0204629 -4.23575e-21)
(-0.0468599 0.0198969 -8.44947e-21)
(-0.0515001 0.0190762 8.42171e-21)
(-0.0560179 0.0181743 0)
(-0.06041 0.0174307 8.35111e-21)
(-0.0647281 0.0171542 -4.15464e-21)
(-0.0690964 0.0177254 0)
(-0.073731 0.0195932 8.21562e-21)
(-0.078961 0.02326 4.0815e-21)
(-0.085255 0.0292399 -8.10836e-21)
(-0.0932419 0.0379482 -4.0217e-21)
(-0.103797 0.0493817 0)
(-0.118221 0.0625091 7.83093e-21)
(-0.137318 0.0754754 7.64179e-21)
(-0.160252 0.0876775 0)
(-0.186168 0.0998903 7.19038e-21)
(-0.214923 0.11251 0)
(-0.246581 0.125453 6.86995e-21)
(-0.281291 0.138555 3.38089e-21)
(-0.319312 0.151739 0)
(-0.360976 0.165054 0)
(-0.406659 0.178669 0)
(-0.456762 0.192832 0)
(-0.511722 0.207832 0)
(-0.572021 0.223962 0)
(-0.638195 0.241485 6.54074e-21)
(-0.710843 0.260617 -9.81958e-21)
(-0.790626 0.28151 0)
(-0.878249 0.304249 0)
(-0.974451 0.328853 0)
(-1.07997 0.355276 -5.22432e-23)
(-1.19549 0.383412 6.80947e-21)
(-1.32163 0.413092 1.39232e-20)
(-1.45884 0.444071 -1.42165e-20)
(-1.60731 0.475976 -7.3389e-21)
(-1.76684 0.508238 7.42105e-21)
(-1.93677 0.539918 1.65443e-22)
(-2.11631 0.569646 8.09821e-21)
(-2.30476 0.596301 0)
(-2.50114 0.619389 8.79805e-21)
(-2.70395 0.638463 2.92487e-22)
(-2.9114 0.653014 0)
(-3.12159 0.662602 0)
(-3.33257 0.66695 -1.0662e-20)
(-3.54239 0.665973 0)
(-3.74916 0.659779 0)
(-3.95111 0.64865 1.27989e-20)
(-4.14665 0.632987 2.58662e-20)
(-4.33437 0.613288 -1.30457e-20)
(-4.51317 0.59013 0)
(-4.68216 0.564143 1.41778e-20)
(-4.84071 0.53597 0)
(-4.98838 0.506231 1.61402e-20)
(-5.1249 0.475498 1.57325e-20)
(-5.25015 0.444289 -3.32103e-20)
(-5.36413 0.413047 -1.73978e-20)
(-5.46696 0.382146 0)
(-5.55885 0.35189 3.53286e-20)
(-5.64015 0.322518 0)
(-5.71125 0.294212 5.41048e-20)
(-5.77266 0.267104 3.65967e-20)
(-5.82495 0.24129 3.68259e-20)
(-5.86873 0.216836 -3.69601e-20)
(-5.90465 0.193784 5.52876e-20)
(-5.93336 0.17215 0)
(-5.95547 0.151928 0)
(-5.97158 0.133093 -3.66044e-20)
(-5.98223 0.115585 -5.43177e-20)
(-5.98792 0.09932 0)
(-5.98907 0.0842169 1.76292e-20)
(-5.98602 0.0701987 0)
(-5.97914 0.05718 -5.15824e-20)
(-5.96897 0.0451272 2.10047e-22)
(-5.956 0.0341428 -1.92917e-22)
(-5.93988 0.024405 3.24859e-20)
(-5.92096 0.0150675 0)
(-5.89916 0.00565162 -3.09365e-20)
(-5.87383 -0.00343002 1.87626e-22)
(-5.84545 -0.0121678 0)
(-5.81409 -0.0209253 0)
(-5.7797 -0.0300087 0)
(-5.74226 -0.0393259 2.61015e-20)
(-5.70173 -0.0487766 0)
(-5.65794 -0.058477 0)
(-5.61067 -0.0685835 0)
(-5.55965 -0.0792914 0)
(-5.5046 -0.0908366 0)
(-5.44478 -0.103558 1.93068e-20)
(-5.37966 -0.117719 0)
(-5.30846 -0.13359 1.62822e-20)
(-5.23032 -0.151492 1.47688e-20)
(-5.1442 -0.171792 -1.31638e-20)
(-5.04883 -0.194905 0)
(-4.94268 -0.221295 -9.62462e-21)
(-4.82397 -0.251456 0)
(-4.69062 -0.285888 -5.54074e-21)
(-4.5403 -0.325111 3.24982e-21)
(-4.37036 -0.369653 3.39478e-21)
(-4.17806 -0.419949 0)
(-3.96066 -0.4761 -1.31975e-20)
(-3.71515 -0.537138 -6.57264e-21)
(-3.43849 -0.602166 0)
(-3.1284 -0.670451 -2.83272e-20)
(-2.78267 -0.740219 -3.58248e-20)
(-2.40012 -0.809228 6.62223e-20)
(-1.98091 -0.875104 0)
(-1.52613 -0.93515 3.0514e-20)
(-1.04066 -0.982683 3.43253e-20)
(-0.528371 -1.01438 1.1224e-19)
(0.00661224 -1.029 0)
(0.555505 -1.03066 0)
(1.10175 -1.02136 0)
(1.62967 -0.997328 4.36163e-20)
(2.13297 -0.955576 0)
(2.61083 -0.898166 0)
(3.06185 -0.830462 -4.37145e-20)
(3.48592 -0.760442 -4.26949e-20)
(3.88125 -0.691704 0)
(4.24813 -0.626847 0)
(4.5866 -0.566312 -7.71106e-20)
(4.89639 -0.510391 0)
(5.18005 -0.459089 7.09876e-20)
(5.44105 -0.411694 6.73358e-20)
(5.68102 -0.367601 0)
(5.90192 -0.326843 0)
(6.1053 -0.289452 -5.86364e-20)
(6.29264 -0.255263 -4.65957e-22)
(6.46519 -0.223939 -4.30909e-22)
(6.62389 -0.195063 0)
(6.76937 -0.168199 -9.62553e-20)
(6.90193 -0.14292 0)
(7.02158 -0.118816 0)
(7.12799 -0.0955005 0)
(7.22054 -0.0726035 3.89658e-20)
(7.29825 -0.0498064 0)
(7.36 -0.0269021 -6.93633e-20)
(7.40267 -0.00396527 -3.3203e-20)
(7.42425 0.0157982 0)
(7.42515 0.034063 -3.00438e-20)
(7.40375 0.0524724 0)
(7.35838 0.0708877 0)
(7.28851 0.089044 -7.96541e-20)
(7.19492 0.106925 5.15177e-20)
(7.07967 0.124606 0)
(6.94573 0.142158 4.9825e-20)
(6.79596 0.159507 -2.50208e-20)
(6.63235 0.17634 0)
(6.45613 0.192158 0)
(6.26828 0.206402 0)
(6.06998 0.218626 -7.75955e-20)
(5.86271 0.228605 0)
(5.64822 0.236249 -2.71153e-20)
(5.42841 0.241486 0)
(5.20511 0.244232 0)
(4.98026 0.244442 0)
(4.75589 0.242288 0)
(4.53392 0.238067 0)
(4.31611 0.23206 0)
(4.10401 0.224578 -6.21285e-20)
(3.89889 0.215927 0)
(3.7017 0.206442 -3.19125e-20)
(3.51298 0.196552 9.66987e-20)
(3.33292 0.186801 0)
(3.16082 0.177804 0)
(2.99659 0.170384 -6.58319e-20)
(2.83605 0.16552 -6.60631e-20)
(2.68768 0.168385 6.61172e-20)
(2.52598 0.177498 6.59466e-20)
(-0.00188438 0.00988708 -1.35968e-20)
(-0.00320958 0.0112225 -1.28476e-20)
(-0.00606868 0.0131097 -8.50787e-21)
(-0.00909583 0.0154204 -4.22798e-21)
(-0.0124302 0.0179788 0)
(-0.0161349 0.0206013 8.4106e-21)
(-0.0201979 0.0231201 -4.20168e-21)
(-0.0245832 0.0253889 0)
(-0.0292469 0.0272836 -4.20955e-21)
(-0.0341371 0.0287051 0)
(-0.0391945 0.0295843 8.41927e-21)
(-0.0443539 0.0298896 0)
(-0.0495477 0.0296374 4.20205e-21)
(-0.0547118 0.0289033 8.38578e-21)
(-0.0597938 0.0278345 -8.36149e-21)
(-0.0647649 0.0266619 0)
(-0.0696352 0.0257109 -8.29672e-21)
(-0.0744725 0.0254103 0)
(-0.0794236 0.0262992 0)
(-0.0847387 0.0290321 -8.16767e-21)
(-0.0907999 0.0343763 0)
(-0.0981457 0.0431808 -4.28914e-25)
(-0.107474 0.0562133 0)
(-0.119632 0.0735694 0)
(-0.135526 0.0935796 1.30964e-24)
(-0.155574 0.113201 -7.60581e-21)
(-0.179432 0.131142 -7.39896e-21)
(-0.20661 0.148269 -7.19705e-21)
(-0.236906 0.16546 0)
(-0.270372 0.182982 -1.37862e-20)
(-0.30713 0.200902 0)
(-0.347395 0.219327 -6.72283e-21)
(-0.391496 0.238433 0)
(-0.439854 0.258465 0)
(-0.492953 0.279725 6.60174e-21)
(-0.551325 0.302547 0)
(-0.615549 0.327277 -6.57799e-21)
(-0.686252 0.354238 2.56141e-24)
(-0.764106 0.383702 1.31975e-20)
(-0.849817 0.415865 -1.32678e-20)
(-0.944111 0.450821 0)
(-1.0477 0.488551 0)
(-1.16122 0.528903 -6.86859e-21)
(-1.28524 0.571584 0)
(-1.42009 0.616139 -7.03889e-21)
(-1.56592 0.661925 7.19259e-21)
(-1.72252 0.708094 7.37664e-21)
(-1.88936 0.753571 0)
(-2.06552 0.797045 -7.84579e-21)
(-2.24991 0.837041 -8.1359e-21)
(-2.44126 0.872235 1.73745e-20)
(-2.638 0.901615 -8.8402e-21)
(-2.83826 0.924333 -9.25548e-21)
(-3.03996 0.939686 0)
(-3.24092 0.94719 0)
(-3.43896 0.94663 1.0733e-20)
(-3.63198 0.938069 0)
(-3.81803 0.921843 0)
(-3.99541 0.898523 -2.49176e-20)
(-4.1627 0.868867 -2.61144e-20)
(-4.3188 0.833776 0)
(-4.46297 0.794232 0)
(-4.59482 0.751252 0)
(-4.71424 0.705828 0)
(-4.82141 0.658889 -3.17239e-20)
(-4.91676 0.61127 3.35445e-20)