/*--------------------------------*- C++ -*----------------------------------*\
| =========                 |                                                 |
| \\      /  F ield         | OpenFOAM: The Open Source CFD Toolbox           |
|  \\    /   O peration     | Version:  2112                                  |
|   \\  /    A nd           | Website:  www.openfoam.com                      |
|    \\/     M anipulation  |                                                 |
\*---------------------------------------------------------------------------*/
FoamFile
{
    version     2.0;
    format      ascii;
    arch        "LSB;label=32;scalar=64";
    class       volVectorField;
    location    "0.6";
    object      U_0;
}
// * * * * * * * * * * * * * * * * * * * * * * * * * * * * * * * * * * * * * //

dimensions      [0 1 -1 0 0 0 0];

internalField   nonuniform List<vector> 
12225
(
(9.74033 0.0322878 0)
(9.48919 0.0402349 0)
(9.26978 0.0553713 0)
(8.91586 0.0808055 0)
(8.52076 0.0871223 0)
(8.17867 0.0713589 0)
(7.8965 0.0532417 0)
(7.62499 0.0497669 0)
(7.32566 0.0608757 0)
(6.99168 0.0774181 0)
(6.63373 0.0927966 0)
(6.23908 0.107828 0)
(5.81204 0.118755 0)
(5.30507 0.128326 0)
(4.79386 0.129766 0)
(4.12675 0.143741 0)
(3.60883 0.150018 0)
(2.52298 0.259245 0)
(9.87339 0.0811718 0)
(10.0099 0.0678286 0)
(10.0883 0.0718787 0)
(10.1504 0.080763 0)
(10.1797 0.0790736 0)
(10.163 0.0777467 0)
(10.1046 0.0863488 0)
(10.0114 0.103045 0)
(9.89723 0.118879 0)
(9.77197 0.126888 0)
(9.65568 0.133281 0)
(9.52903 0.146157 0)
(9.40853 0.177525 0)
(9.21892 0.218864 0)
(9.01677 0.275939 0)
(8.65569 0.326683 0)
(8.34611 0.387781 0)
(7.70744 0.453531 0)
(10.2183 -0.00103172 0)
(10.2034 0.00886487 0)
(10.2091 0.0327759 0)
(10.2133 0.0668202 0)
(10.1322 0.0960921 0)
(9.99939 0.104881 0)
(9.89695 0.101094 0)
(9.86366 0.10414 0)
(9.88645 0.120849 0)
(9.92169 0.142773 0)
(9.93695 0.166604 0)
(9.90785 0.192817 0)
(9.85402 0.230292 0)
(9.7697 0.279397 0)
(9.68179 0.343722 0)
(9.55231 0.414452 0)
(9.42383 0.496905 0)
(9.22029 0.586696 0)
(10.0387 0.00727948 0)
(10.0814 0.0482579 0)
(10.0966 0.0775683 0)
(10.1008 0.0936323 0)
(10.1144 0.117348 0)
(10.1386 0.128721 0)
(10.1429 0.121302 0)
(10.116 0.110478 0)
(10.0741 0.111119 0)
(10.029 0.124142 0)
(9.98457 0.148119 0)
(9.93682 0.182872 0)
(9.88188 0.232752 0)
(9.81964 0.295319 0)
(9.75732 0.369962 0)
(9.69334 0.453941 0)
(9.63112 0.546231 0)
(9.55962 0.644719 0)
(10.003 -0.0186813 0)
(9.95321 -0.0107147 0)
(10.0731 0.0406815 0)
(10.092 0.0747158 0)
(10.0404 0.0996671 0)
(10.0011 0.111471 0)
(9.99453 0.114677 0)
(9.99505 0.123611 0)
(9.97401 0.143292 0)
(9.92176 0.168231 0)
(9.83923 0.19648 0)
(9.7393 0.231074 0)
(9.64332 0.277169 0)
(9.56505 0.335524 0)
(9.50618 0.404646 0)
(9.46341 0.483214 0)
(9.43019 0.567971 0)
(9.40729 0.660941 0)
(10.1053 0.0575201 0)
(10.1102 0.00888886 0)
(10.1636 0.0425361 0)
(10.1381 0.0983835 0)
(10.0923 0.130986 0)
(10.0716 0.13116 0)
(10.059 0.118145 0)
(10.0261 0.119287 0)
(9.96728 0.144042 0)
(9.8888 0.184557 0)
(9.79706 0.230117 0)
(9.70093 0.274745 0)
(9.61186 0.319348 0)
(9.54002 0.369456 0)
(9.48994 0.429225 0)
(9.45769 0.500987 0)
(9.43731 0.581452 0)
(9.41992 0.670548 0)
(10.0408 -0.0257951 0)
(10.2203 -0.0225072 0)
(10.1789 0.0391084 0)
(10.0721 0.102399 0)
(10.0349 0.128012 0)
(10.0497 0.130065 0)
(10.0646 0.134286 0)
(10.0569 0.15599 0)
(10.0201 0.192011 0)
(9.95552 0.231595 0)
(9.87658 0.269022 0)
(9.79659 0.303937 0)
(9.72309 0.340129 0)
(9.66002 0.382706 0)
(9.60904 0.434983 0)
(9.57008 0.499589 0)
(9.5403 0.57558 0)
(9.51463 0.663827 0)
(9.87738 -0.0279056 0)
(9.98689 -0.0153513 0)
(10.1223 0.0941334 0)
(10.1541 0.145348 0)
(10.0978 0.138106 0)
(10.0068 0.116792 0)
(9.93234 0.110889 0)
(9.8977 0.135322 0)
(9.89572 0.187865 0)
(9.90448 0.251571 0)
(9.90269 0.309448 0)
(9.88339 0.356144 0)
(9.8485 0.396125 0)
(9.80521 0.437813 0)
(9.75587 0.486602 0)
(9.70448 0.546569 0)
(9.65046 0.618516 0)
(9.59441 0.702209 0)
(10.0517 -0.0306049 0)
(10.065 -0.0985304 0)
(10.1102 -0.022274 0)
(10.1745 0.10521 0)
(10.1796 0.183735 0)
(10.1101 0.202067 0)
(10.0088 0.189462 0)
(9.92945 0.180986 0)
(9.89213 0.194137 0)
(9.88848 0.228402 0)
(9.89983 0.274303 0)
(9.90937 0.323611 0)
(9.9063 0.373192 0)
(9.88931 0.425687 0)
(9.85997 0.485443 0)
(9.82081 0.555831 0)
(9.77414 0.639066 0)
(9.71919 0.733083 0)
(10.3108 -0.0334451 0)
(10.143 0.00199822 0)
(9.96816 0.0558965 0)
(9.90416 0.120363 0)
(9.93765 0.169054 0)
(9.98921 0.18543 0)
(10.0322 0.17745 0)
(10.0627 0.173729 0)
(10.0754 0.195781 0)
(10.0684 0.243308 0)
(10.0456 0.302505 0)
(10.0123 0.361714 0)
(9.97288 0.41712 0)
(9.93173 0.472879 0)
(9.88865 0.534363 0)
(9.84433 0.605055 0)
(9.79584 0.686587 0)
(9.74489 0.777569 0)
(10.1313 0.00453749 0)
(10.0396 0.0219134 0)
(9.87991 0.0733237 0)
(9.83495 0.113024 0)
(9.93993 0.143129 0)
(10.0745 0.158864 0)
(10.1436 0.164278 0)
(10.134 0.176284 0)
(10.0794 0.206064 0)
(10.0209 0.252263 0)
(9.9827 0.305785 0)
(9.96731 0.360539 0)
(9.96306 0.414585 0)
(9.95847 0.472618 0)
(9.9442 0.53997 0)
(9.9168 0.619733 0)
(9.87554 0.713515 0)
(9.82153 0.815363 0)
(9.99984 -0.084703 0)
(9.82914 0.0937892 0)
(9.77812 0.148215 0)
(9.85239 0.10275 0)
(9.98737 0.0725304 0)
(10.1001 0.0913796 0)
(10.154 0.138678 0)
(10.1436 0.191171 0)
(10.0835 0.240954 0)
(10.0083 0.287799 0)
(9.95227 0.332248 0)
(9.92688 0.377905 0)
(9.92603 0.428565 0)
(9.93295 0.489761 0)
(9.93658 0.564836 0)
(9.92687 0.653513 0)
(9.90624 0.754465 0)
(9.87295 0.861334 0)
(10.1186 0.0288309 0)
(10.1198 0.125505 0)
(10.199 0.0453422 0)
(10.2183 0.00187621 0)
(10.2112 0.0188254 0)
(10.1904 0.073503 0)
(10.1428 0.151083 0)
(10.0716 0.233255 0)
(9.99839 0.299082 0)
(9.94767 0.3387 0)
(9.93212 0.358893 0)
(9.94654 0.376325 0)
(9.97643 0.406755 0)
(10.0042 0.461064 0)
(10.022 0.540515 0)
(10.0244 0.640468 0)
(10.0159 0.752802 0)
(9.99872 0.867571 0)
(9.81512 -0.0191535 0)
(10.0422 0.0701525 0)
(10.1623 0.120676 0)
(10.0816 0.127753 0)
(9.96305 0.123867 0)
(9.88048 0.149513 0)
(9.852 0.204196 0)
(9.87565 0.259115 0)
(9.92803 0.29324 0)
(9.98704 0.308161 0)
(10.0407 0.318629 0)
(10.0809 0.341136 0)
(10.101 0.386123 0)
(10.1002 0.457726 0)
(10.0841 0.551753 0)
(10.0616 0.661463 0)
(10.042 0.776712 0)
(10.0335 0.888411 0)
(9.76241 0.073833 0)
(9.80698 -0.00824526 0)
(9.90917 -0.0014806 0)
(9.98473 0.077211 0)
(10.026 0.116331 0)
(10.0312 0.124068 0)
(10.022 0.141947 0)
(10.0201 0.181236 0)
(10.0259 0.226432 0)
(10.0366 0.263225 0)
(10.0539 0.294871 0)
(10.0788 0.335851 0)
(10.106 0.397935 0)
(10.1299 0.483419 0)
(10.1479 0.583783 0)
(10.1613 0.688238 0)
(10.1762 0.785195 0)
(10.1961 0.869556 0)
(10.1954 -0.0529924 0)
(10.0634 -0.050763 0)
(10.0234 -0.018836 0)
(10.0958 0.054365 0)
(10.1773 0.126168 0)
(10.204 0.182373 0)
(10.1777 0.227431 0)
(10.1387 0.261522 0)
(10.1132 0.277217 0)
(10.1041 0.273644 0)
(10.1042 0.264319 0)
(10.1065 0.270753 0)
(10.1085 0.310283 0)
(10.1141 0.387001 0)
(10.1267 0.490827 0)
(10.1523 0.605802 0)
(10.1882 0.715843 0)
(10.2397 0.812998 0)
(10.151 0.116206 0)
(10.0374 0.110994 0)
(9.99723 -0.00199715 0)
(9.99338 -0.0596049 0)
(10.0545 -0.0150191 0)
(10.1231 0.0852568 0)
(10.1646 0.181043 0)
(10.1879 0.241412 0)
(10.2056 0.269504 0)
(10.2194 0.286995 0)
(10.2242 0.314732 0)
(10.2147 0.362834 0)
(10.1908 0.427863 0)
(10.16 0.500719 0)
(10.1289 0.568031 0)
(10.1084 0.625359 0)
(10.0986 0.667762 0)
(10.107 0.702719 0)
(10.0125 0.0356955 0)
(10.07 0.046507 0)
(10.0783 -0.0140835 0)
(10.0301 -0.0252892 0)
(9.98763 0.0201994 0)
(9.97164 0.0911293 0)
(9.97838 0.162095 0)
(10.0085 0.210758 0)
(10.0491 0.229728 0)
(10.0859 0.233168 0)
(10.1166 0.245498 0)
(10.1468 0.28593 0)
(10.1815 0.357242 0)
(10.2214 0.451061 0)
(10.2647 0.551546 0)
(10.306 0.644817 0)
(10.3446 0.721531 0)
(10.3763 0.775786 0)
(10.049 -0.0443709 0)
(10.0701 0.077251 0)
(10.1079 0.100548 0)
(10.1251 0.0734446 0)
(10.1411 0.0755849 0)
(10.1403 0.0861877 0)
(10.1338 0.0957492 0)
(10.1321 0.113254 0)
(10.1254 0.142795 0)
(10.1045 0.180217 0)
(10.0744 0.22049 0)
(10.0476 0.261703 0)
(10.036 0.303802 0)
(10.0472 0.348418 0)
(10.0841 0.395039 0)
(10.1437 0.44269 0)
(10.2199 0.486708 0)
(10.306 0.526415 0)
(10.0221 0.12412 0)
(10.0443 0.0586913 0)
(10.1152 -0.0914361 0)
(10.1931 -0.0749734 0)
(10.2618 0.0163987 0)
(10.2694 0.103415 0)
(10.2391 0.174564 0)
(10.2004 0.233783 0)
(10.1713 0.282382 0)
(10.1649 0.319815 0)
(10.1816 0.343574 0)
(10.2132 0.351722 0)
(10.2496 0.345711 0)
(10.2862 0.331093 0)
(10.3214 0.315294 0)
(10.3565 0.306008 0)
(10.3909 0.305728 0)
(10.4254 0.318218 0)
(9.92997 0.0893974 0)
(10.0054 0.0471035 0)
(10.0013 -0.110712 0)
(9.97806 -0.125618 0)
(9.94946 -0.0332508 0)
(9.94109 0.0918993 0)
(9.95777 0.185742 0)
(9.99493 0.221335 0)
(10.0466 0.212312 0)
(10.1046 0.189315 0)
(10.1607 0.175601 0)
(10.2081 0.180053 0)
(10.245 0.200576 0)
(10.2746 0.230709 0)
(10.3024 0.264168 0)
(10.3311 0.297255 0)
(10.3618 0.328579 0)
(10.3928 0.357929 0)
(10.0179 0.0530609 0)
(10.0583 -0.0447999 0)
(10.0785 -0.0670225 0)
(10.0363 -0.0105318 0)
(9.99275 0.0594975 0)
(9.99884 0.111069 0)
(10.0515 0.136436 0)
(10.1263 0.14355 0)
(10.1938 0.149391 0)
(10.234 0.165765 0)
(10.2451 0.191228 0)
(10.2396 0.215533 0)
(10.2351 0.228701 0)
(10.2464 0.226593 0)
(10.2815 0.214319 0)
(10.3379 0.202088 0)
(10.4105 0.197299 0)
(10.4902 0.207412 0)
(10.0221 -0.0950754 0)
(9.98355 -0.0735057 0)
(9.93916 -0.0773201 0)
(9.92967 -0.0455438 0)
(9.98315 0.00576771 0)
(10.0655 0.0375622 0)
(10.1318 0.04646 0)
(10.1699 0.0540977 0)
(10.1956 0.0791198 0)
(10.2304 0.121828 0)
(10.2858 0.166522 0)
(10.3586 0.194295 0)
(10.4337 0.195554 0)
(10.4959 0.172886 0)
(10.5341 0.139441 0)
(10.5504 0.10997 0)
(10.5489 0.0941367 0)
(10.5418 0.100597 0)
(9.91768 0.049915 0)
(10.0107 0.0198165 0)
(10.0838 -0.0139839 0)
(10.0978 -0.0562077 0)
(10.1079 -0.0541086 0)
(10.1334 -0.00911278 0)
(10.1549 0.0472324 0)
(10.1579 0.0839147 0)
(10.151 0.092546 0)
(10.1544 0.0825589 0)
(10.1815 0.0701207 0)
(10.2305 0.06823 0)
(10.2894 0.0815595 0)
(10.3454 0.107974 0)
(10.388 0.14 0)
(10.4137 0.170445 0)
(10.4229 0.195385 0)
(10.4236 0.212083 0)
(9.94855 -0.0981219 0)
(10.0585 -0.142925 0)
(10.1121 -0.117219 0)
(10.1446 -0.0705421 0)
(10.1558 -0.0281149 0)
(10.1544 0.00259167 0)
(10.1503 0.0299667 0)
(10.1506 0.0562184 0)
(10.1591 0.0746496 0)
(10.1761 0.0820769 0)
(10.2014 0.0806591 0)
(10.234 0.0747344 0)
(10.2724 0.0684862 0)
(10.3154 0.0662806 0)
(10.3611 0.0705221 0)
(10.4069 0.0808707 0)
(10.4516 0.0945489 0)
(10.4933 0.107628 0)
(9.99633 -0.0572991 0)
(9.98814 -0.0510429 0)
(9.89321 -0.061035 0)
(9.81304 -0.0848673 0)
(9.8332 -0.0668533 0)
(9.91248 -0.00958298 0)
(9.9976 0.0462579 0)
(10.0704 0.0773689 0)
(10.1365 0.0776123 0)
(10.2054 0.0588358 0)
(10.2787 0.0363471 0)
(10.3493 0.0212071 0)
(10.4091 0.0193231 0)
(10.4536 0.0308146 0)
(10.4835 0.0528038 0)
(10.5042 0.0790404 0)
(10.5213 0.104629 0)
(10.5407 0.123582 0)
(10.1616 0.000829166 0)
(10.008 -0.0521705 0)
(9.91655 -0.0306114 0)
(9.86283 -0.0385407 0)
(9.82639 -0.07151 0)
(9.82776 -0.0774175 0)
(9.88493 -0.0506256 0)
(9.98387 -0.0220306 0)
(10.0949 -0.0113356 0)
(10.1939 -0.015605 0)
(10.2665 -0.0230945 0)
(10.3102 -0.0242061 0)
(10.333 -0.0149597 0)
(10.3483 0.00344238 0)
(10.3692 0.025853 0)
(10.4022 0.0459971 0)
(10.4489 0.0598708 0)
(10.5078 0.0652005 0)
(10.0206 0.0224749 0)
(10.0219 0.0970314 0)
(10.1596 0.00587533 0)
(10.344 -0.0588814 0)
(10.4329 -0.0715997 0)
(10.3984 -0.0608762 0)
(10.3053 -0.0465953 0)
(10.2242 -0.0401362 0)
(10.1876 -0.0397665 0)
(10.194 -0.0384391 0)
(10.2269 -0.0315894 0)
(10.2701 -0.019552 0)
(10.3153 -0.00594017 0)
(10.3595 0.0065888 0)
(10.403 0.0159734 0)
(10.4471 0.0223385 0)
(10.4925 0.0263682 0)
(10.5375 0.028623 0)
(10.0582 -0.027185 0)
(10.2641 -0.0625087 0)
(10.3776 -0.124715 0)
(10.3107 -0.125479 0)
(10.2254 -0.0725729 0)
(10.2016 -0.00969029 0)
(10.2156 0.0271659 0)
(10.2375 0.0232164 0)
(10.2598 -0.00857238 0)
(10.2807 -0.0453583 0)
(10.2955 -0.0699093 0)
(10.3026 -0.0753946 0)
(10.3063 -0.0644175 0)
(10.3144 -0.0454558 0)
(10.3343 -0.0264585 0)
(10.3689 -0.0117883 0)
(10.4168 -0.00313738 0)
(10.4737 -0.000761747 0)
(9.85254 0.0417577 0)
(9.86804 -0.0130671 0)
(9.69899 -0.019197 0)
(9.43143 -0.0383358 0)
(9.18278 -0.0571743 0)
(9.0348 -0.0604539 0)
(8.97803 -0.0520428 0)
(8.94758 -0.04606 0)
(8.88714 -0.0449034 0)
(8.77944 -0.0432794 0)
(8.64296 -0.0373713 0)
(8.51013 -0.0280513 0)
(8.4034 -0.0197357 0)
(8.32785 -0.0171186 0)
(8.27449 -0.0205753 0)
(8.23333 -0.0277536 0)
(8.19323 -0.03446 0)
(8.15506 -0.0367719 0)
(-0.319068 0.764718 -2.67382e-21)
(-0.795968 0.517555 2.70259e-21)
(-1.0842 0.199447 0)
(-1.24274 -0.110433 0)
(-1.14621 -0.345561 0)
(-0.845726 -0.580809 -2.66327e-21)
(-0.357852 -0.78077 0)
(0.299888 -0.869465 0)
(1.08485 -0.923644 0)
(1.87286 -0.925534 0)
(2.6487 -0.880381 2.56011e-21)
(3.39635 -0.803072 0)
(4.08699 -0.705521 0)
(4.69724 -0.597036 0)
(5.21849 -0.484976 0)
(5.64455 -0.373113 3.58568e-21)
(5.97803 -0.263071 0)
(6.21381 -0.153863 0)
(6.35591 -0.04435 0)
(6.39456 0.0705409 0)
(6.3283 0.194006 0)
(6.12453 0.333366 0)
(5.8108 0.482876 0)
(5.31912 0.649435 3.27597e-21)
(4.72386 0.820112 -3.01388e-21)
(3.86749 1.0128 2.76031e-21)
(2.97289 1.15374 2.5509e-21)
(1.65015 1.43507 0)
(0.350424 0.474198 0)
(-0.279638 -0.114928 -2.58608e-21)
(-1.07793 0.667428 -2.70099e-21)
(-1.86995 0.953816 0)
(-2.67347 0.759358 0)
(-3.35821 0.45789 -3.57936e-21)
(-3.7104 0.0788817 0)
(-3.61209 -0.378648 0)
(-3.10274 -0.830818 3.3472e-21)
(-2.06658 -1.30786 0)
(-0.627371 -1.57962 2.44223e-21)
(0.887245 -1.33832 4.65805e-21)
(1.95701 -0.741093 0)
(2.55652 -0.266615 0)
(2.66097 -0.275913 0)
(2.25292 0.735555 0)
(1.66891 1.20013 0)
(1.48773 -0.32223 4.48828e-21)
(1.51119 -1.33382 4.50781e-21)
(1.52056 -0.779356 4.58849e-21)
(0.850921 0.390856 0)
(-0.391852 0.915136 -4.34295e-21)
(-1.61636 0.993531 0)
(-2.83372 0.979506 4.68044e-21)
(-3.96508 0.909312 5.17823e-21)
(-4.99682 0.817584 0)
(-5.92387 0.722521 0)
(-6.7509 0.632791 0)
(-7.4856 0.551909 8.16038e-21)
(-8.13695 0.480672 0)
(-8.71372 0.418329 0)
(-9.22362 0.363638 0)
(-9.67318 0.315375 0)
(-10.0676 0.272284 0)
(-10.411 0.233279 0)
(-10.7068 0.197667 0)
(-10.9576 0.165023 0)
(-11.1657 0.134971 -1.3459e-20)
(-11.3333 0.107118 0)
(-11.462 0.0811993 0)
(-11.5537 0.0573836 1.39567e-20)
(-11.6101 0.0360784 1.39599e-20)
(-11.6336 0.0169398 0)
(-11.6269 -0.000791141 -1.37304e-20)
(-11.5931 -0.0164625 1.35045e-20)
(-11.534 -0.0308164 0)
(-11.4506 -0.0441219 -1.28531e-20)
(-11.3445 -0.0563858 0)
(-11.2167 -0.0679678 0)
(-11.0678 -0.0790291 1.14622e-20)
(-10.8983 -0.0898395 0)
(-10.7078 -0.100669 -1.03267e-20)
(-10.4957 -0.111754 0)
(-10.2609 -0.123314 9.07167e-21)
(-10.0019 -0.135466 8.40921e-21)
(-9.71701 -0.148232 7.72802e-21)
(-9.40461 -0.161489 1.4063e-20)
(-9.06352 -0.174992 -1.26465e-20)
(-8.69318 -0.188383 0)
(-8.29385 -0.201233 0)
(-7.86674 -0.213091 0)
(-7.41397 -0.22354 -6.93197e-21)
(-6.93846 -0.232243 -5.54725e-21)
(-6.44372 -0.23898 4.20478e-21)
(-5.93353 -0.243685 0)
(-5.41165 -0.246477 -1.69243e-21)
(-4.88138 -0.247641 -5.41363e-22)
(-4.34539 -0.247535 5.3045e-22)
(-3.80561 -0.246467 0)
(-3.2634 -0.244634 0)
(-2.72003 -0.242064 0)
(-2.17714 -0.238515 3.9455e-21)
(-1.63706 -0.233431 0)
(-1.10321 -0.226292 0)
(-0.580791 -0.216945 -5.5079e-21)
(-0.0788346 -0.205151 0)
(0.397037 -0.190951 0)
(0.843726 -0.174242 -6.18047e-21)
(1.25464 -0.15567 0)
(1.62498 -0.135972 0)
(1.95156 -0.115842 6.1829e-21)
(2.23315 -0.0959949 6.09547e-21)
(2.47052 -0.0774752 0)
(2.66641 -0.0617928 -5.85615e-21)
(2.82678 -0.0499428 0)
(2.96053 -0.0394794 5.58216e-21)
(3.07326 -0.0210697 0)
(3.15806 0.0172129 5.31267e-21)
(3.19872 0.0685281 5.1839e-21)
(3.19795 0.0901218 0)
(3.19807 0.0382985 0)
(3.24786 -0.0624973 0)
(3.34795 -0.117044 0)
(3.42445 -0.0676203 0)
(3.3895 0.0291726 0)
(3.24125 0.100801 0)
(3.04563 0.129739 4.36025e-21)
(2.88124 0.109402 -4.25513e-21)
(2.7978 0.0334333 0)
(2.7952 -0.0607926 0)
(2.84006 -0.104278 0)
(2.88521 -0.0815004 0)
(2.89668 -0.0416469 -7.8527e-21)
(2.86715 -0.0334769 0)
(2.85001 -0.0864633 7.65401e-21)
(2.9594 -0.151221 -7.62314e-21)
(3.1439 -0.112613 0)
(3.1845 -0.0602452 0)
(3.27389 -0.172344 0)
(3.77681 -0.213477 7.79948e-21)
(4.06719 0.0305381 8.0086e-21)
(3.60231 0.203798 0)
(3.16711 0.0807379 8.52615e-21)
(3.09653 -0.0405951 8.6961e-21)
(2.87933 0.0427704 -8.43583e-21)
(2.07815 0.264531 0)
(0.57786 0.519472 0)
(-1.45258 0.671266 -3.49488e-21)
(-3.6321 0.692155 0)
(-5.63783 0.617225 0)
(-7.30387 0.494093 0)
(-8.55292 0.35264 0)
(-9.35249 0.208943 -1.61005e-20)
(-9.7102 0.0765489 -1.71417e-20)
(-9.65637 -0.0397691 0)
(-9.25855 -0.141008 -1.44955e-20)
(-8.53833 -0.224677 0)
(-7.56441 -0.289403 0)
(-6.39202 -0.334345 -3.3938e-21)
(-5.11479 -0.351739 0)
(-3.81816 -0.341832 3.35035e-21)
(-2.56815 -0.31292 0)
(-1.4237 -0.270986 0)
(-0.416462 -0.226772 7.86507e-21)
(0.438247 -0.193108 0)
(1.16222 -0.159517 8.27485e-21)
(1.7889 -0.132968 0)
(2.33064 -0.111845 0)
(2.80552 -0.0970564 0)
(3.22746 -0.09005 -7.29475e-21)
(3.6144 -0.0830311 0)
(3.96666 -0.0676627 6.66765e-21)
(4.2734 -0.059793 0)
(4.55606 -0.0582505 0)
(4.83121 -0.0405967 0)
(5.02152 -0.045369 0)
(5.2777 -0.0459126 0)
(5.44661 -0.0401388 0)
(5.66514 -0.0350924 0)
(5.89825 -0.072525 -1.19982e-20)
(6.27717 -0.0334895 0)
(6.55224 -0.134478 0)
(0.00116735 1.34326 8.01944e-21)
(0.139419 1.01827 -8.05868e-21)
(0.208912 0.567177 0)
(0.372552 0.242936 5.39487e-21)
(0.798074 -0.400767 0)
(1.43034 -1.11319 2.6541e-21)
(2.1569 -1.70336 -5.46193e-21)
(2.9081 -2.10184 -5.50836e-21)
(3.63018 -2.30908 0)
(4.29999 -2.35335 -5.86675e-21)
(4.90958 -2.26917 -2.53826e-21)
(5.45345 -2.09635 0)
(5.9276 -1.87058 0)
(6.33036 -1.61741 0)
(6.66454 -1.35335 0)
(6.93152 -1.0865 -3.57008e-21)
(7.13761 -0.820969 0)
(7.281 -0.554569 8.59258e-21)
(7.37125 -0.28676 0)
(7.39814 -0.0100484 0)
(7.38256 0.27413 -8.56303e-21)
(7.29235 0.578347 0)
(7.14821 0.899794 8.04013e-21)
(6.90012 1.25824 -3.25868e-21)
(6.60309 1.62458 2.99472e-21)
(6.15675 2.03996 -2.73918e-21)
(5.6634 2.39007 -2.52775e-21)
(4.96338 2.80622 0)
(4.08873 2.91736 0)
(3.04161 2.67523 2.56398e-21)
(1.37869 2.119 -3.36441e-21)
(0.355468 1.59145 0)
(-0.37881 1.41783 0)
(-1.08057 1.1145 3.59262e-21)
(-1.32415 0.39565 0)
(-1.37234 -0.622967 0)
(-1.21366 -1.72134 -3.35821e-21)
(-0.587998 -2.99567 0)
(0.234709 -3.741 3.27973e-21)
(1.14414 -3.0605 -4.64278e-21)
(1.5976 -2.00376 0)
(1.95575 -0.473652 0)
(1.87637 0.66235 -1.10385e-20)
(1.42674 0.5897 -1.02912e-20)
(1.36244 -0.120545 -9.7517e-21)
(0.652669 0.478568 4.73623e-21)
(-1.16336 1.41475 -4.50976e-21)
(-2.59171 1.9007 -1.40643e-20)
(-3.69393 2.29281 9.62094e-21)
(-4.71081 2.42017 4.29788e-21)
(-5.57373 2.3609 0)
(-6.35156 2.20831 -4.63737e-21)
(-7.04323 2.01179 6.65005e-21)
(-7.65957 1.80224 0)
(-8.21038 1.59986 0)
(-8.70204 1.41273 0)
(-9.14398 1.24452 -8.12472e-21)
(-9.54136 1.09512 0)
(-9.89985 0.962697 2.0139e-20)
(-10.2225 0.844816 0)
(-10.5121 0.738662 2.27646e-20)
(-10.7703 0.641742 0)
(-10.9984 0.552097 -2.49905e-20)
(-11.1969 0.46841 0)
(-11.3661 0.389741 2.67029e-20)
(-11.5063 0.315395 -1.38917e-20)
(-11.6181 0.244974 0)
(-11.7019 0.178401 -2.81356e-20)
(-11.7585 0.115792 -1.3951e-20)
(-11.7886 0.0573732 -1.39557e-20)
(-11.7929 0.0031449 0)
(-11.7716 -0.0473574 -1.40501e-20)
(-11.7246 -0.0936691 -1.35007e-20)
(-11.6529 -0.136352 0)
(-11.5581 -0.175944 1.2849e-20)
(-11.4411 -0.212825 -2.51044e-20)
(-11.3029 -0.247647 0)
(-11.1441 -0.28102 -1.1458e-20)
(-10.9651 -0.313675 0)
(-10.7656 -0.346382 3.11431e-20)
(-10.5449 -0.379877 0)
(-10.3018 -0.414789 -2.73669e-20)
(-10.0348 -0.451498 -8.40531e-21)
(-9.74211 -0.49004 7.88744e-21)
(-9.42204 -0.530036 1.43862e-20)
(-9.07334 -0.570706 -1.29752e-20)
(-8.69544 -0.610949 0)
(-8.28865 -0.649463 0)
(-7.8543 -0.684912 0)
(-7.39469 -0.716079 2.11198e-20)
(-6.91292 -0.741997 5.54353e-21)
(-6.41268 -0.762045 -4.2019e-21)
(-5.89796 -0.776065 0)
(-5.37264 -0.784455 -1.97859e-21)
(-4.84002 -0.788129 5.40986e-22)
(-4.30256 -0.788228 -5.30082e-22)
(-3.76185 -0.785722 0)
(-3.21882 -0.781209 0)
(-2.67421 -0.774612 0)
(-2.12901 -0.765015 -3.94287e-21)
(-1.58492 -0.751033 0)
(-1.04512 -0.731402 1.00123e-20)
(-0.514636 -0.704506 1.63807e-20)
(-0.00199646 -0.670043 -1.15359e-20)
(0.487856 -0.627375 0)
(0.952476 -0.577273 -6.09769e-21)
(1.38558 -0.521065 0)
(1.78261 -0.460782 -1.24068e-20)
(2.14002 -0.399111 6.13302e-21)
(2.4563 -0.338725 6.05264e-21)
(2.73167 -0.281778 0)
(2.965 -0.230808 1.75292e-20)
(3.1527 -0.189487 -1.14091e-20)
(3.29473 -0.159431 -5.5792e-21)
(3.40183 -0.136596 0)
(3.49521 -0.115748 -5.31004e-21)
(3.59934 -0.0980441 -1.55235e-20)
(3.73089 -0.0867809 0)
(3.87413 -0.0780823 -9.85441e-21)
(3.97029 -0.0608674 -9.64099e-21)
(3.97692 -0.02746 -9.45282e-21)
(3.94529 0.0281953 0)
(3.95972 0.102106 0)
(4.02539 0.159383 0)
(4.0939 0.15001 4.3525e-21)
(4.10649 0.0788837 4.24886e-21)
(4.02748 0.0232714 0)
(3.8896 0.0221319 8.15849e-21)
(3.79256 0.0341949 8.00942e-21)
(3.83159 0.0345138 0)
(3.99057 0.0467674 7.84242e-21)
(4.15284 0.072857 1.54898e-20)
(4.26408 0.0330953 -7.64217e-21)
(4.31099 -0.070592 -7.59914e-21)
(4.26071 -0.0645838 0)
(4.16843 -0.0160562 0)
(4.10436 -0.212196 0)
(4.1386 -0.330707 -7.79419e-21)
(4.26718 0.0741574 7.8187e-21)
(4.20423 0.414257 1.63361e-20)
(3.92228 0.259182 -8.51706e-21)
(3.26809 0.225118 8.88824e-21)
(2.07405 0.664631 8.4312e-21)
(0.313037 1.26553 0)
(-1.7477 1.71443 0)
(-3.76569 1.86868 -1.39709e-21)
(-5.54407 1.77271 0)
(-7.0171 1.52202 0)
(-8.17739 1.1989 -2.14632e-20)
(-9.01756 0.844056 0)
(-9.52843 0.47846 -1.80661e-20)
(-9.71552 0.122606 1.71406e-20)
(-9.5887 -0.205362 0)
(-9.12554 -0.4957 -1.58645e-20)
(-8.37813 -0.738925 0)
(-7.37202 -0.928627 0)
(-6.18324 -1.0564 3.39067e-21)
(-4.89338 -1.10628 -2.22499e-23)
(-3.59512 -1.076 -3.34721e-21)
(-2.35428 -0.990792 0)
(-1.2274 -0.868921 0)
(-0.241029 -0.745422 7.64973e-21)
(0.601771 -0.641763 0)
(1.33086 -0.542064 8.12576e-21)
(1.97486 -0.461553 0)
(2.54612 -0.39873 0)
(3.06594 -0.348269 0)
(3.54146 -0.308174 7.29063e-21)
(3.97502 -0.277793 0)
(4.37093 -0.251924 -6.66378e-21)
(4.75156 -0.221828 0)
(5.06965 -0.208981 0)
(5.37816 -0.182305 1.18624e-20)
(5.64038 -0.166306 -1.15879e-20)
(5.87701 -0.153175 0)
(6.07826 -0.150198 0)
(6.27966 -0.159163 0)
(6.55617 -0.240524 3.56248e-20)
(6.98722 -0.209609 0)
(7.47486 -0.186987 -2.64402e-20)
(0.117246 0.739882 -1.37032e-22)
(0.28295 0.401578 1.04894e-20)
(0.632327 -0.17898 0)
(1.3811 -1.15506 -1.05859e-20)
(2.3016 -2.18872 0)
(3.20524 -3.01505 0)
(3.98876 -3.54295 -6.33737e-22)
(4.6161 -3.77707 5.46874e-21)
(5.09779 -3.76439 6.75128e-21)
(5.46855 -3.57164 5.83832e-21)
(5.75379 -3.26215 0)
(5.97128 -2.88898 0)
(6.13798 -2.49113 -8.31856e-21)
(6.26857 -2.09329 -1.73475e-20)
(6.37586 -1.70915 1.79793e-20)
(6.46652 -1.3431 0)
(6.54384 -0.993838 1.89431e-20)
(6.60543 -0.654915 -8.60637e-21)
(6.65035 -0.320075 0)
(6.6694 0.0211446 1.94061e-20)
(6.66396 0.373083 8.57764e-21)
(6.63932 0.746654 -1.88961e-20)
(6.60285 1.14386 -8.04638e-21)
(6.53946 1.5815 0)
(6.45464 2.04614 1.71377e-20)
(6.33838 2.55649 1.63692e-20)
(6.1812 3.06033 0)
(5.99086 3.56047 1.48729e-20)
(5.67707 3.96829 0)
(5.30593 4.198 1.39635e-20)
(4.59147 4.1576 5.99968e-21)
(3.77652 3.73515 0)
(2.9898 3.00486 0)
(2.28827 2.05471 0)
(1.79807 0.882406 0)
(1.66062 -0.57874 0)
(1.31444 -1.82021 0)
(1.5973 -3.3615 1.1794e-20)
(1.70373 -4.44408 -1.65556e-20)
(1.64255 -3.58564 0)
(1.2501 -2.08265 0)
(0.551683 -0.535793 0)
(0.115388 0.796299 -2.47398e-22)
(-0.819277 1.63215 1.02928e-20)
(-2.05688 2.33474 1.99095e-20)
(-3.22716 2.87167 -1.91552e-20)
(-4.33048 3.13307 -9.98534e-21)
(-5.15692 3.31578 9.41723e-21)
(-5.84073 3.41205 1.05885e-21)
(-6.36303 3.36168 1.1108e-20)
(-6.80236 3.19608 0)
(-7.18493 2.95806 1.2545e-20)
(-7.55214 2.69297 1.75179e-21)
(-7.90698 2.42449 0)
(-8.26108 2.17011 0)
(-8.60793 1.9367 -1.71292e-20)
(-8.94725 1.72654 0)
(-9.27351 1.53863 0)
(-9.58466 1.36985 2.20622e-20)
(-9.8778 1.21665 4.47424e-20)
(-10.151 1.07542 -2.27683e-20)
(-10.402 0.943378 0)
(-10.6287 0.818491 2.49977e-20)
(-10.8293 0.699304 0)
(-11.0027 0.584896 2.80538e-20)
(-11.148 0.474885 2.73507e-20)
(-11.2643 0.369303 -5.69287e-20)
(-11.3515 0.268351 -2.93787e-20)
(-11.41 0.172262 0)
(-11.4401 0.0811037 5.77325e-20)
(-11.4426 -0.00477529 0)
(-11.4187 -0.0847248 8.44041e-20)
(-11.3695 -0.15937 5.55932e-20)
(-11.2965 -0.228679 5.42995e-20)
(-11.2012 -0.293116 -5.27551e-20)
(-11.0845 -0.353404 7.61e-20)
(-10.9475 -0.410303 0)
(-10.7908 -0.46487 0)
(-10.6147 -0.518281 -4.46066e-20)
(-10.419 -0.571827 -6.30323e-20)
(-10.2028 -0.626792 0)
(-9.96488 -0.68426 1.83014e-20)
(-9.70322 -0.744921 0)
(-9.41575 -0.808844 -4.73558e-20)
(-9.10057 -0.875367 5.28875e-22)
(-8.75628 -0.943107 -5.3998e-22)
(-8.38236 -1.01012 2.33044e-20)
(-7.97935 -1.07414 0)
(-7.54891 -1.13284 -1.75796e-20)
(-7.09374 -1.18417 5.54123e-22)
(-6.61737 -1.22648 0)
(-6.1239 -1.25875 0)
(-5.61774 -1.28073 0)
(-5.10312 -1.29319 3.66837e-21)
(-4.58355 -1.29784 0)
(-4.06131 -1.29689 0)
(-3.53752 -1.29226 0)
(-3.01231 -1.28519 0)
(-2.48539 -1.27558 0)
(-1.95693 -1.26181 -7.36176e-21)
(-1.42854 -1.24158 0)
(-0.903706 -1.21244 -1.00067e-20)
(-0.387886 -1.17132 -1.08699e-20)
(0.110401 -1.11874 1.15278e-20)
(0.585765 -1.05207 0)
(1.03578 -0.974316 1.22648e-20)
(1.45609 -0.887312 0)
(1.84451 -0.7936 1.23994e-20)
(2.19885 -0.69704 -1.23054e-20)
(2.51769 -0.601596 -3.62643e-20)
(2.80262 -0.508278 0)
(3.05679 -0.415352 -3.48996e-20)
(3.2785 -0.325122 -1.13039e-20)
(3.45881 -0.24775 0)
(3.59094 -0.191462 -2.16397e-20)
(3.68091 -0.153044 -2.11168e-20)
(3.74325 -0.128836 3.09496e-20)
(3.78888 -0.124825 0)
(3.82987 -0.135552 9.85387e-21)
(3.8791 -0.131132 9.64126e-21)
(3.92741 -0.0950562 2.83119e-20)
(3.95768 -0.0516058 0)
(3.99776 -0.029838 0)
(4.11801 -0.0120076 0)
(4.32178 0.0590717 8.67723e-21)
(4.45952 0.173058 0)
(4.37867 0.216919 0)
(4.13602 0.122813 -8.15462e-21)
(3.93099 -0.0608907 -8.00776e-21)
(3.90158 -0.230179 0)
(4.05388 -0.276014 0)
(4.29872 -0.210405 -1.54843e-20)
(4.55113 -0.170117 0)
(4.75265 -0.16396 1.52025e-20)
(4.78111 -0.0439988 1.51084e-20)
(4.63717 0.0664631 0)
(4.48965 -0.121309 0)
(4.37592 -0.286669 -1.51914e-20)
(4.32709 0.0569286 -2.72929e-22)
(4.32842 0.479782 -2.51865e-22)
(3.90246 0.666995 0)
(2.64533 1.08674 -3.49219e-20)
(0.860465 1.82689 0)
(-1.01572 2.48792 0)
(-2.7521 2.84205 0)
(-4.27384 2.86197 4.86635e-21)
(-5.59828 2.61675 0)
(-6.77223 2.22023 3.14667e-20)
(-7.78549 1.74881 2.14494e-20)
(-8.57056 1.23366 0)
(-9.0566 0.69348 3.41598e-20)
(-9.21077 0.149823 0)
(-9.03726 -0.367461 0)
(-8.55356 -0.834094 9.53526e-20)
(-7.7914 -1.22679 -5.14649e-20)
(-6.79047 -1.53507 0)
(-5.60178 -1.74001 -1.81508e-20)
(-4.30848 -1.81566 2.22342e-23)
(-3.00943 -1.75381 0)
(-1.78562 -1.59919 0)
(-0.710761 -1.3915 0)
(0.187006 -1.20018 -4.58064e-20)
(0.91771 -1.03376 0)
(1.53478 -0.886858 -1.63827e-20)
(2.07929 -0.767122 0)
(2.57553 -0.673769 0)
(3.04245 -0.601848 0)
(3.49508 -0.545466 0)
(3.9447 -0.495858 0)
(4.3791 -0.45119 0)
(4.79988 -0.399704 -2.50662e-20)
(5.19782 -0.363488 0)
(5.54958 -0.319634 -1.18577e-20)
(5.87203 -0.27874 3.45173e-20)
(6.1492 -0.253697 0)
(6.38347 -0.238315 0)
(6.64443 -0.247644 -2.26505e-20)
(6.89872 -0.3778 -2.36224e-20)
(7.33538 -0.44955 2.42855e-20)
(7.92227 -0.366537 2.64209e-20)
(-0.122382 0.291305 -1.57626e-20)
(0.232383 -0.20654 -1.56097e-20)
(1.32554 -2.02087 -1.06325e-20)
(2.40165 -3.47884 -5.95537e-21)
(3.32014 -4.38241 0)
(4.00514 -4.78972 1.29543e-20)
(4.44508 -4.81566 -7.92082e-21)
(4.68255 -4.57522 0)
(4.78056 -4.1703 -6.7535e-21)
(4.80106 -3.68779 0)
(4.79125 -3.19112 1.73655e-20)
(4.78221 -2.71848 0)
(4.78992 -2.28634 8.34877e-21)
(4.81842 -1.89636 1.74148e-20)
(4.86504 -1.54252 -1.80518e-20)
(4.92506 -1.21482 0)
(4.9921 -0.901888 -1.90211e-20)
(5.06034 -0.59245 0)
(5.12435 -0.276673 0)
(5.18198 0.0560535 -1.94843e-20)
(5.23082 0.4141 0)
(5.27108 0.803474 -1.76723e-21)
(5.3039 1.21999 0)
(5.34004 1.66713 0)
(5.37695 2.14422 2.10291e-21)
(5.43349 2.65666 -1.64055e-20)
(5.49027 3.18998 -1.78817e-20)
(5.56842 3.72707 -1.48846e-20)
(5.61937 4.22502 0)
(5.65203 4.61482 -2.95261e-20)
(5.57916 4.82582 0)
(5.32002 4.70311 -1.41973e-20)
(4.89623 4.18017 0)
(4.39059 3.23538 0)
(3.79317 1.9602 1.19883e-20)
(3.34462 0.347422 0)
(2.6368 -1.20682 -9.73949e-21)
(2.30482 -3.12339 -3.11313e-21)
(1.404 -3.68646 1.92616e-20)
(0.213217 -1.95941 -1.7958e-20)
(-1.05707 0.227624 0)
(-2.12082 1.50952 0)
(-2.88362 2.60514 -9.76655e-21)
(-3.72561 3.31975 0)
(-4.49186 3.7755 -1.01186e-20)
(-5.12505 4.00276 9.943e-21)
(-5.63949 4.08694 9.94175e-21)
(-6.03511 4.08678 0)
(-6.36593 4.00201 -1.06026e-20)
(-6.64032 3.84674 -1.10939e-20)
(-6.91163 3.63864 2.64606e-20)
(-7.18248 3.39621 -1.25368e-20)
(-7.46979 3.13823 -1.35063e-20)
(-7.76276 2.8758 0)
(-8.06056 2.62029 0)
(-8.35473 2.37801 1.71266e-20)
(-8.6441 2.15229 0)
(-8.92669 1.94344 0)
(-9.20204 1.74961 -4.22074e-20)
(-9.46829 1.56845 -4.47535e-20)
(-9.72255 1.39748 0)
(-9.96165 1.23431 0)
(-10.1824 1.07692 0)
(-10.3819 0.923988 0)
(-10.5575 0.774946 -5.47931e-20)
(-10.707 0.629813 5.77499e-20)
(-10.8289 0.488843 5.69595e-20)
(-10.9223 0.352542 1.16775e-19)
(-10.9864 0.221916 0)
(-11.0216 0.0979252 1.54189e-21)
(-11.0279 -0.0190975 0)
(-11.0066 -0.129041 -5.66489e-20)
(-10.9589 -0.231921 1.30821e-21)
(-10.8861 -0.327917 -5.43293e-20)
(-10.7897 -0.417273 5.27819e-20)
(-10.6711 -0.500761 1.02514e-21)
(-10.5316 -0.579412 0)
(-10.3721 -0.654649 4.77577e-20)
(-10.1929 -0.728178 4.46232e-20)
(-9.99395 -0.801916 8.5176e-20)
(-9.77427 -0.877824 0)
(-9.53242 -0.957595 -3.781e-20)
(-9.26652 -1.04231 0)
(-8.97467 -1.13209 6.41817e-20)
(-8.65538 -1.22587 -2.89744e-20)
(-8.30799 -1.32143 2.61556e-20)
(-7.93281 -1.41578 -2.33062e-20)
(-7.53112 -1.50547 -4.23847e-20)
(-7.10511 -1.58711 1.75793e-20)
(-6.65767 -1.65773 -1.47416e-20)
(-6.19218 -1.71508 0)
(-5.71249 -1.75775 1.98955e-20)
(-5.22281 -1.78543 0)
(-4.7273 -1.7993 9.54086e-21)
(-4.22929 -1.802 -4.78176e-21)
(-3.73048 -1.79719 -3.53822e-22)
(-3.23106 -1.78813 -3.72482e-21)
(-2.72941 -1.77705 -7.4495e-21)
(-2.22333 -1.76392 0)
(-1.71123 -1.74644 -6.48171e-21)
(-1.19387 -1.7206 0)
(-0.674937 -1.68134 0)