/*--------------------------------*- C++ -*----------------------------------*\
| =========                 |                                                 |
| \\      /  F ield         | OpenFOAM: The Open Source CFD Toolbox           |
|  \\    /   O peration     | Version:  2112                                  |
|   \\  /    A nd           | Website:  www.openfoam.com                      |
|    \\/     M anipulation  |                                                 |
\*---------------------------------------------------------------------------*/
FoamFile
{
    version     2.0;
    format      ascii;
    arch        "LSB;label=32;scalar=64";
    class       volScalarField;
    location    "0.079";
    object      pMean;
}
// * * * * * * * * * * * * * * * * * * * * * * * * * * * * * * * * * * * * * //

dimensions      [0 2 -2 0 0 0 0];

internalField   nonuniform List<scalar> 
12225
(
9.16434
8.40576
7.98035
7.76972
7.61876
7.47309
7.32793
7.1895
7.06209
6.94631
6.84117
6.74429
6.65312
6.55999
6.45461
6.2921
6.02512
5.36225
8.93682
8.37754
7.97954
7.76052
7.60788
7.46403
7.31982
7.18143
7.05326
6.93693
6.8299
6.73209
6.63557
6.54194
6.4225
6.27618
5.98995
5.5547
8.8625
8.37213
7.98857
7.75763
7.60001
7.45718
7.31412
7.17522
7.0461
6.92768
6.81888
6.71592
6.6159
6.50924
6.38534
6.21324
5.95516
5.55208
8.70766
8.32424
7.97994
7.74637
7.58461
7.44349
7.30256
7.16435
7.03415
6.91435
6.80221
6.69571
6.58831
6.47479
6.33847
6.16196
5.91394
5.57444
8.62689
8.29352
7.97806
7.74429
7.576
7.43331
7.29351
7.1553
7.02399
6.90183
6.78709
6.67605
6.56332
6.44179
6.29959
6.12246
5.89381
5.61134
8.5431
8.24053
7.95667
7.73218
7.56115
7.41701
7.27847
7.14145
7.00957
6.8854
6.76762
6.65264
6.53505
6.40814
6.26313
6.09015
5.88216
5.6397
8.46882
8.19733
7.93998
7.72452
7.55114
7.40368
7.26478
7.12832
6.99607
6.87003
6.74915
6.63016
6.5083
6.37789
6.23245
6.06591
5.87515
5.66224
8.40469
8.14382
7.90719
7.70654
7.53555
7.38593
7.24638
7.11067
6.97836
6.85074
6.72728
6.60516
6.48025
6.34796
6.20383
6.04435
5.86828
5.67828
8.35291
8.09799
7.87925
7.69136
7.52329
7.3712
7.2297
7.09371
6.9612
6.83211
6.7061
6.58114
6.45393
6.32093
6.17897
6.0261
5.86226
5.69007
8.29113
8.04192
7.84003
7.66663
7.50346
7.35135
7.20911
7.073
6.94038
6.81053
6.68285
6.55588
6.42725
6.29438
6.15519
6.00869
5.85522
5.6971
8.21193
7.9949
7.81015
7.64448
7.48508
7.33312
7.18963
7.05272
6.91972
6.78897
6.6598
6.53128
6.40179
6.26948
6.13298
5.99185
5.84674
5.69931
8.1278
7.93623
7.77157
7.61677
7.46221
7.31184
7.16856
7.03143
6.89792
6.76656
6.6367
6.50747
6.37773
6.2463
6.1123
5.97557
5.83659
5.69683
8.10555
7.90551
7.7409
7.59213
7.44197
7.29286
7.14918
7.01124
6.87725
6.74552
6.61503
6.48519
6.35528
6.2246
6.09268
5.9595
5.82549
5.69167
8.01611
7.83937
7.69527
7.55761
7.41298
7.26657
7.12377
6.9858
6.85141
6.71916
6.58823
6.45812
6.32849
6.19898
6.06932
5.9395
5.80993
5.68133
7.99271
7.80208
7.65431
7.52127
7.38205
7.2382
7.0954
6.95663
6.8217
6.6893
6.55835
6.42832
6.29902
6.17043
6.04258
5.91557
5.7896
5.66504
7.94857
7.7488
7.60164
7.47614
7.34426
7.20461
7.06328
6.92465
6.78938
6.65652
6.52521
6.39514
6.26631
6.13879
6.01261
5.88784
5.76451
5.64285
7.88011
7.69107
7.55259
7.43284
7.30496
7.16758
7.02729
6.88878
6.75327
6.62014
6.48875
6.35879
6.23029
6.10336
5.97804
5.85437
5.73237
5.61217
7.82414
7.64932
7.51599
7.39641
7.26759
7.13003
6.98997
6.85139
6.71523
6.58122
6.44895
6.31825
6.18917
6.06181
5.93626
5.81253
5.69057
5.57031
7.77232
7.59162
7.46201
7.34933
7.22629
7.09143
6.95133
6.81153
6.6743
6.53963
6.4069
6.27574
6.14617
6.01831
5.89232
5.76822
5.64596
5.52541
7.86341
7.65666
7.50135
7.36873
7.23196
7.08873
6.9436
6.80048
6.6606
6.52357
6.38876
6.2558
6.12472
5.99568
5.86876
5.74399
5.62133
5.50077
7.77294
7.60869
7.47832
7.35225
7.21508
7.07051
6.925
6.78199
6.64201
6.5044
6.36871
6.23498
6.10338
5.9741
5.84711
5.72232
5.5996
5.47882
7.88364
7.6868
7.53085
7.38857
7.23956
7.08678
6.93603
6.78958
6.6468
6.50671
6.36893
6.23352
6.10066
5.9704
5.8427
5.71748
5.59461
5.47413
7.92226
7.70507
7.53421
7.38463
7.23344
7.08002
6.92885
6.78175
6.63822
6.49735
6.35896
6.22329
6.09048
5.96046
5.83309
5.70826
5.58584
5.46574
8.00411
7.77951
7.59125
7.42198
7.25696
7.09751
6.94447
6.79586
6.64986
6.50633
6.36589
6.22884
6.0951
5.9644
5.83646
5.71115
5.58846
5.46836
8.0101
7.80052
7.60436
7.42011
7.24952
7.0923
6.94172
6.79285
6.6453
6.50069
6.36005
6.22337
6.09003
5.95959
5.83188
5.70691
5.58466
5.46505
8.12964
7.88598
7.65026
7.44408
7.26788
7.11018
6.95783
6.80578
6.65535
6.50883
6.36706
6.22957
6.09561
5.96472
5.83669
5.7115
5.58909
5.46943
8.21097
7.91014
7.64276
7.43271
7.2638
7.11086
6.95816
6.80402
6.65241
6.5059
6.36455
6.22742
6.09372
5.96303
5.83524
5.71034
5.58834
5.46921
8.39747
7.99716
7.66749
7.44506
7.27988
7.12691
6.97038
6.81291
6.65973
6.51263
6.3709
6.23334
6.09919
5.96821
5.8403
5.71541
5.59338
5.47395
8.42969
7.99332
7.65166
7.43888
7.28133
7.12884
6.97055
6.81219
6.65903
6.51218
6.37054
6.23297
6.09877
5.96784
5.84001
5.71544
5.59385
5.47536
8.68909
8.03854
7.65006
7.44564
7.29181
7.13705
6.97642
6.817
6.66347
6.5164
6.37456
6.2368
6.10246
5.97144
5.84356
5.71908
5.59771
5.48018
2.74473
2.60162
2.47254
2.4385
2.51516
2.65564
2.77719
2.78035
2.60426
2.24317
1.72538
1.09885
0.427371
-0.225048
-0.808619
-1.28892
-1.63971
-1.86164
-1.95684
-1.93479
-1.82343
-1.64899
-1.45217
-1.27124
-1.14329
-1.10505
-1.1778
-1.37198
-1.6491
-1.9558
-2.27183
-2.64432
-3.1307
-3.70995
-4.32143
-4.93118
-5.51935
-6.07434
-6.66221
-7.36949
-8.15718
-8.92341
-9.62898
-10.2672
-10.8577
-11.4141
-11.8667
-12.2383
-12.4741
-12.5751
-12.7041
-12.8555
-12.9669
-13.0244
-13.0216
-12.9735
-12.8864
-12.754
-12.6373
-12.5963
-12.6168
-12.6521
-12.6574
-12.5691
-12.3612
-12.0401
-11.6293
-11.1472
-10.5935
-9.98727
-9.31238
-8.57465
-7.83042
-7.06554
-6.29307
-5.55472
-4.85312
-4.23177
-3.68542
-3.15622
-2.59389
-1.96113
-1.26689
-0.545426
0.183164
0.885088
1.62461
2.35931
3.16356
3.71132
3.70358
3.32861
2.78702
2.20802
1.7069
1.35214
1.1887
1.2439
1.53198
2.05539
2.8035
3.75138
4.86197
6.08934
7.38396
8.69859
9.99238
11.2332
12.3994
13.4809
14.4798
15.4104
16.2986
17.1773
18.0804
19.0345
20.0534
21.135
22.261
23.3978
24.5017
25.5243
26.4167
27.1392
27.671
28.0122
28.1756
28.1831
28.0602
27.8322
27.5217
27.1491
26.7325
26.2883
25.8314
25.3744
24.9278
24.4997
24.0961
23.7211
23.3767
23.0638
22.7822
22.5312
22.3095
22.1156
21.9478
21.8042
21.683
21.5825
21.5008
21.4357
21.3843
21.3425
21.3056
21.2676
21.2224
21.1688
21.1098
21.0507
20.9953
20.9443
20.8913
20.833
20.7696
20.6994
20.6286
20.5665
20.515
20.4718
20.4334
20.3978
20.363
20.3306
20.3033
20.289
20.2925
20.3225
20.395
20.5086
2.07766
1.94183
1.81669
1.74046
1.7771
1.84533
1.86181
1.74414
1.45989
1.02353
0.478206
-0.126001
-0.740785
-1.31981
-1.83182
-2.24754
-2.54563
-2.71955
-2.77488
-2.74238
-2.63188
-2.45054
-2.24898
-2.06751
-1.95034
-1.93431
-1.99875
-2.15682
-2.45939
-2.86141
-3.31139
-3.86558
-4.5143
-5.22651
-5.91618
-6.56172
-7.16679
-7.75258
-8.34547
-9.01571
-9.75812
-10.48
-11.1342
-11.6896
-12.1836
-12.6476
-13.0659
-13.5534
-13.8802
-13.9955
-14.1011
-14.1854
-14.2229
-14.1992
-14.106
-13.9641
-13.8064
-13.6489
-13.52
-13.4666
-13.4619
-13.4736
-13.4521
-13.3301
-13.0875
-12.7312
-12.2863
-11.7748
-11.1977
-10.5651
-9.8685
-9.10282
-8.32689
-7.52367
-6.72665
-6.09746
-5.55759
-5.03687
-4.49077
-3.898
-3.26291
-2.57548
-1.82691
-1.03127
-0.248248
0.487552
1.28734
1.94029
2.5497
2.91124
2.80524
2.45962
1.99203
1.50423
1.08337
0.791974
0.675131
0.764274
1.07854
1.62513
2.3967
3.36964
4.50625
5.76004
7.08005
8.41725
9.7294
10.9839
12.1594
13.2466
14.2486
15.1809
16.0708
16.9522
17.8592
18.8189
19.8458
20.9379
22.0757
23.2259
24.3448
25.3837
26.2931
27.0313
27.5754
27.925
28.0937
28.1047
27.9846
27.7587
27.4508
27.0808
26.6669
26.2253
25.7709
25.3162
24.8717
24.4455
24.0435
23.6695
23.3257
23.013
22.7315
22.4802
22.258
22.0633
21.8944
21.7492
21.6256
21.5218
21.4357
21.3648
21.3064
21.2568
21.2117
21.1659
21.1135
21.056
21.0012
20.954
20.9135
20.8736
20.8227
20.7628
20.7003
20.633
20.5678
20.5127
20.4639
20.4202
20.383
20.3528
20.3269
20.3032
20.2833
20.2677
20.2685
20.2814
20.3361
20.3727
2.33004
2.25921
2.05958
1.7658
1.43384
1.07392
0.671002
0.203099
-0.340411
-0.936063
-1.54594
-2.13533
-2.67788
-3.15439
-3.55221
-3.85645
-4.05906
-4.1586
-4.15809
-4.07905
-3.94286
-3.7642
-3.57183
-3.38972
-3.24826
-3.1884
-3.22118
-3.35478
-3.61149
-3.99591
-4.49017
-5.09117
-5.79721
-6.57734
-7.37051
-8.14842
-8.8883
-9.63494
-10.4042
-11.1988
-11.9542
-12.6411
-13.1771
-13.6284
-14.1118
-14.5832
-14.9863
-15.3765
-15.7062
-15.907
-16.0107
-16.0185
-15.9474
-15.8019
-15.5949
-15.3649
-15.1517
-14.9812
-14.8741
-14.8265
-14.8156
-14.8131
-14.7562
-14.5949
-14.3252
-13.9506
-13.487
-12.9484
-12.3334
-11.648
-10.8749
-10.0232
-9.17157
-8.40965
-7.72039
-7.08437
-6.49807
-5.92225
-5.31188
-4.65651
-3.96402
-3.21151
-2.39531
-1.54215
-0.735764
0.015137
0.738531
1.31865
1.68279
1.79819
1.68179
1.42067
1.06595
0.688304
0.348505
0.10893
0.0196276
0.122206
0.445262
1.00268
1.78939
2.78321
3.94798
5.23544
6.59125
7.96233
9.30276
10.578
11.7665
12.8596
13.8613
14.7889
15.6714
16.5453
17.447
18.4066
19.44
20.5448
21.7015
22.8757
24.0221
25.0909
26.0315
26.7994
27.3677
27.7347
27.9151
27.9343
27.8201
27.6003
27.2981
26.9342
26.5263
26.0907
25.642
25.1928
24.7534
24.332
23.9342
23.5639
23.2232
22.913
22.6331
22.3829
22.1614
21.9671
21.7982
21.6525
21.528
21.4223
21.3332
21.2583
21.1952
21.1408
21.0914
21.0429
20.9918
20.9384
20.8861
20.8373
20.7904
20.7437
20.6965
20.6482
20.5949
20.5325
20.4709
20.4189
20.3755
20.3403
20.3124
20.2895
20.2704
20.2521
20.2368
20.2209
20.2162
20.2109
20.2383
20.2283
2.19041
2.09561
1.77572
1.27726
0.65543
-0.0342014
-0.751329
-1.47309
-2.18684
-2.86893
-3.499
-4.06233
-4.54629
-4.94393
-5.25588
-5.48125
-5.61495
-5.66753
-5.64929
-5.57049
-5.44571
-5.29104
-5.12235
-4.97188
-4.86362
-4.80869
-4.81783
-4.89976
-5.06763
-5.33309
-5.71346
-6.22498
-6.87076
-7.63004
-8.46077
-9.33382
-10.2312
-11.1669
-12.1424
-13.0971
-13.9646
-14.7109
-15.3295
-15.819
-16.2797
-16.7291
-17.1316
-17.4777
-17.7487
-17.9299
-18.017
-18.0033
-17.894
-17.6968
-17.4367
-17.1632
-16.9261
-16.7495
-16.6363
-16.5722
-16.5418
-16.5145
-16.42
-16.2238
-15.9289
-15.5401
-15.0523
-14.4693
-13.7912
-13.0246
-12.1649
-11.2383
-10.3362
-9.5267
-8.80545
-8.11556
-7.45463
-6.80996
-6.14787
-5.45001
-4.70434
-3.87931
-2.98372
-2.08148
-1.27925
-0.584676
0.00798427
0.398838
0.592195
0.605749
0.496056
0.291028
0.00938943
-0.301308
-0.589853
-0.79586
-0.86633
-0.75438
-0.424221
0.145397
0.955174
1.98462
3.1948
4.53387
5.94193
7.35968
8.73646
10.0357
11.236
12.3303
13.3251
14.2408
15.1095
15.9704
16.8636
17.8214
18.8609
19.9804
21.1608
22.3653
23.5461
24.6524
25.6332
26.4412
27.0442
27.4375
27.6365
27.6686
27.5652
27.3554
27.0632
26.709
26.3105
25.8841
25.4444
25.0039
24.5728
24.159
23.7681
23.4041
23.069
22.7636
22.4878
22.2412
22.0227
21.8308
21.6636
21.5189
21.3945
21.2876
21.1959
21.1172
21.0492
20.9893
20.9349
20.8833
20.8326
20.7817
20.7316
20.6837
20.6369
20.5897
20.5404
20.4887
20.4342
20.3805
20.3291
20.2821
20.2427
20.213
20.1924
20.1779
20.1669
20.1558
20.1462
20.1311
20.1209
20.1033
20.1072
20.067
1.93009
1.67348
1.13949
0.407249
-0.425603
-1.28127
-2.12118
-2.93061
-3.7011
-4.42506
-5.09116
-5.68483
-6.19064
-6.60034
-6.91374
-7.13108
-7.2588
-7.31175
-7.30312
-7.24561
-7.15005
-7.03081
-6.90872
-6.80504
-6.73849
-6.72006
-6.75327
-6.83851
-6.98129
-7.19324
-7.49396
-7.90562
-8.44388
-9.11039
-9.89558
-10.7786
-11.7365
-12.7634
-13.8433
-14.9038
-15.8837
-16.7408
-17.4714
-18.0784
-18.593
-19.0322
-19.3973
-19.6842
-19.8897
-20.019
-20.0715
-20.0449
-19.9394
-19.7587
-19.5222
-19.2667
-19.0309
-18.8376
-18.6929
-18.5905
-18.5212
-18.4511
-18.3123
-18.0812
-17.7591
-17.3319
-16.7959
-16.1468
-15.3768
-14.4981
-13.5343
-12.5347
-11.5833
-10.7129
-9.90755
-9.12886
-8.38399
-7.66873
-6.95943
-6.23015
-5.43939
-4.55161
-3.59872
-2.68928
-1.92592
-1.31718
-0.89509
-0.669567
-0.578462
-0.596349
-0.703495
-0.893127
-1.15003
-1.43622
-1.70479
-1.89946
-1.9663
-1.85308
-1.51629
-0.928278
-0.0850481
0.993745
2.26711
3.67779
5.15768
6.63824
8.0616
9.38838
10.5985
11.6884
12.6689
13.5657
14.4155
15.2611
16.1453
17.1013
18.1469
19.2842
20.4924
21.7312
22.9495
24.0952
25.118
25.9688
26.6111
27.0359
27.2577
27.3076
27.2198
27.0249
26.747
26.4063
26.0208
25.6067
25.1791
24.7507
24.3318
23.93
23.5507
23.1973
22.8716
22.5744
22.3055
22.0641
21.8493
21.66
21.4943
21.3503
21.2252
21.1165
21.022
20.9393
20.8661
20.8005
20.7408
20.6857
20.6338
20.5839
20.5364
20.4923
20.4506
20.4093
20.3663
20.319
20.2678
20.2161
20.1664
20.1215
20.0835
20.0535
20.0333
20.0218
20.0173
20.0158
20.0169
20.0116
20.0049
19.9828
19.9671
19.9064
1.46214
1.00823
0.225413
-0.653953
-1.55862
-2.46258
-3.34551
-4.20135
-5.0305
-5.82925
-6.58184
-7.26651
-7.85893
-8.34186
-8.71036
-8.96725
-9.12429
-9.20065
-9.21516
-9.18519
-9.12512
-9.05172
-8.98243
-8.93466
-8.92372
-8.95755
-9.03716
-9.16199
-9.33398
-9.55984
-9.85193
-10.2281
-10.7087
-11.3115
-12.0429
-12.8912
-13.8486
-14.899
-16.0199
-17.1553
-18.2378
-19.2123
-20.0539
-20.7543
-21.3177
-21.754
-22.0759
-22.2954
-22.4246
-22.4763
-22.458
-22.376
-22.2363
-22.0487
-21.8284
-21.5913
-21.3567
-21.1433
-20.9624
-20.8155
-20.6977
-20.5737
-20.3881
-20.1179
-19.7482
-19.2598
-18.6336
-17.868
-16.9708
-15.9703
-14.9065
-13.8398
-12.8277
-11.8854
-10.9825
-10.105
-9.26568
-8.46586
-7.69502
-6.92856
-6.10353
-5.19701
-4.25693
-3.41306
-2.72702
-2.21253
-1.92649
-1.8103
-1.77902
-1.82382
-1.94726
-2.14465
-2.40066
-2.68305
-2.94937
-3.14726
-3.222
-3.1168
-2.7798
-2.17471
-1.29251
-0.154174
1.19734
2.69793
4.26855
5.82854
7.30992
8.66896
9.88732
10.967
11.9264
12.7986
13.6262
14.4557
15.3322
16.2888
17.345
18.5033
19.7422
21.0179
22.2744
23.4578
24.5184
25.4079
26.0871
26.543
26.7894
26.8604
26.7926
26.6169
26.3573
26.0339
25.6651
25.2678
24.8576
24.4468
24.0452
23.6598
23.2953
22.9549
22.6401
22.3516
22.0893
21.8527
21.6413
21.4541
21.2898
21.146
21.02
20.9093
20.8112
20.7239
20.6456
20.575
20.5114
20.4544
20.4028
20.3555
20.3121
20.273
20.2376
20.2038
20.1693
20.1317
20.0905
20.0468
20.0024
19.9606
19.9229
19.8889
19.8618
19.846
19.8417
19.8442
19.8531
19.8573
19.8556
19.8328
19.8054
19.7351
0.418535
-0.0787851
-0.824424
-1.641
-2.49445
-3.37467
-4.27457
-5.1839
-6.09446
-6.99026
-7.84327
-8.62634
-9.31316
-9.88666
-10.3399
-10.6766
-10.911
-11.0628
-11.152
-11.1961
-11.2112
-11.214
-11.2228
-11.2552
-11.323
-11.4321
-11.5844
-11.7804
-12.0201
-12.3046
-12.6395
-13.0371
-13.517
-14.0999
-14.8015
-15.6279
-16.5823
-17.652
-18.8006
-19.9852
-21.1403
-22.2012
-23.127
-23.8936
-24.4952
-24.9371
-25.2313
-25.3929
-25.4408
-25.394
-25.2685
-25.0819
-24.8568
-24.6139
-24.362
-24.1034
-23.8448
-23.5966
-23.3683
-23.1675
-22.9942
-22.8171
-22.5847
-22.264
-21.8208
-21.2227
-20.463
-19.5577
-18.5323
-17.423
-16.2741
-15.1379
-14.0499
-13.0151
-12.008
-11.0276
-10.0913
-9.20443
-8.36432
-7.55219
-6.71804
-5.85047
-4.97736
-4.22162
-3.59308
-3.16797
-2.98651
-2.94557
-2.96122
-3.04599
-3.20431
-3.42563
-3.69604
-3.98821
-4.26479
-4.47677
-4.56858
-4.47931
-4.1498
-3.53304
-2.61211
-1.40844
0.0300371
1.63155
3.30519
4.95636
6.50534
7.90214
9.12975
10.1964
11.1311
11.977
12.7826
13.5966
14.4662
15.4273
16.4981
17.6804
18.9514
20.264
21.5569
22.7728
23.8633
24.7828
25.4912
25.9733
26.2437
26.338
26.2936
26.1408
25.9032
25.6014
25.2541
24.8789
24.4907
24.1012
23.7192
23.3512
23.0022
22.6751
22.3715
22.0922
21.8373
21.6066
21.3997
21.2155
21.0528
20.9091
20.7815
20.6675
20.5652
20.4734
20.3914
20.319
20.2557
20.2005
20.1525
20.1102
20.0731
20.0408
20.0124
19.9862
19.9602
19.9332
19.9041
19.8728
19.8401
19.8073
19.7749
19.7417
19.709
19.681
19.6646
19.6612
19.6686
19.6758
19.6789
19.6609
19.6297
19.5551
-0.693867
-1.09183
-1.65971
-2.3544
-3.14336
-3.99566
-4.89381
-5.82846
-6.79212
-7.76217
-8.70441
-9.58532
-10.3754
-11.0559
-11.6211
-12.0767
-12.4359
-12.715
-12.9304
-13.0975
-13.2323
-13.3535
-13.4792
-13.6247
-13.7994
-14.0081
-14.2522
-14.5314
-14.845
-15.1943
-15.5855
-16.0307
-16.5504
-17.1632
-17.8899
-18.7463
-19.7388
-20.8554
-22.0591
-23.309
-24.5354
-25.6749
-26.678
-27.5099
-28.1542
-28.6064
-28.8731
-28.9702
-28.9205
-28.7507
-28.4862
-28.1587
-27.8071
-27.4607
-27.1248
-26.7967
-26.4768
-26.1674
-25.8745
-25.6088
-25.3732
-25.1358
-24.8442
-24.4433
-23.8909
-23.1576
-22.253
-21.2107
-20.0671
-18.8598
-17.6281
-16.4105
-15.2279
-14.0844
-12.9708
-11.8919
-10.8649
-9.89501
-8.98695
-8.12921
-7.29607
-6.48872
-5.70821
-5.02138
-4.43674
-4.0866
-4.00152
-4.0214
-4.08857
-4.22901
-4.4337
-4.68649
-4.97626
-5.2832
-5.57664
-5.81154
-5.93107
-5.86721
-5.55078
-4.92559
-3.96926
-2.70146
-1.17537
0.529272
2.30955
4.05591
5.67573
7.11219
8.35046
9.40488
10.3165
11.1399
11.9298
12.7344
13.6015
14.5702
15.6576
16.8639
18.1645
19.5093
20.8316
22.0705
23.1792
24.1173
24.8439
25.3456
25.6381
25.7563
25.7373
25.6102
25.3984
25.1222
24.8008
24.451
24.0868
23.7192
23.357
23.0071
22.6744
22.3617
22.0706
21.8015
21.5548
21.3301
21.1269
20.9451
20.7832
20.6388
20.5089
20.3916
20.2864
20.1936
20.1131
20.0442
19.9859
19.9368
19.8957
19.8614
19.8324
19.8081
19.7874
19.7686
19.7502
19.7316
19.7125
19.6928
19.6728
19.6527
19.6314
19.6052
19.5716
19.5342
19.5027
19.4832
19.4788
19.479
19.4789
19.4619
19.4297
19.355
-1.40035
-1.69703
-2.1623
-2.77709
-3.50565
-4.31966
-5.203
-6.14822
-7.14627
-8.16824
-9.17784
-10.1433
-11.0376
-11.8422
-12.5492
-13.1598
-13.6812
-14.124
-14.5006
-14.8249
-15.1136
-15.3849
-15.6548
-15.9347
-16.2314
-16.5472
-16.8826
-17.2384
-17.6173
-18.0257
-18.4771
-18.9906
-19.5874
-20.2876
-21.1109
-22.0731
-23.1786
-24.4092
-25.7282
-27.0916
-28.4292
-29.675
-30.7695
-31.6692
-32.3489
-32.7981
-33.0196
-33.0296
-32.854
-32.5272
-32.0873
-31.5809
-31.0622
-30.5683
-30.1032
-29.6602
-29.236
-28.8313
-28.4524
-28.1072
-27.79
-27.4691
-27.0855
-26.5792
-25.9
-25.0278
-23.986
-22.8165
-21.5597
-20.2507
-18.923
-17.6065
-16.3181
-15.0656
-13.8521
-12.6824
-11.5741
-10.5337
-9.56823
-8.67047
-7.82518
-7.04158
-6.32151
-5.6819
-5.16146
-4.88202
-4.88532
-4.9847
-5.11896
-5.32401
-5.58082
-5.86895
-6.1799
-6.50199
-6.81262
-7.07427
-7.2288
-7.19633
-6.89366
-6.2619
-5.27482
-3.94835
-2.34048
-0.540708
1.33616
3.16608
4.84611
6.31626
7.5653
8.61467
9.51535
10.3296
11.1143
11.918
12.7886
13.7673
14.8713
16.0992
17.4228
18.7888
20.1266
21.3742
22.4872
23.4294
24.164
24.6787
24.9897
25.1314
25.1387
25.0391
24.8552
24.6071
24.313
23.989
23.6485
23.3027
22.9609
22.63
22.3143
22.0163
21.7374
21.4782
21.2387
21.0191
20.8196
20.64
20.4791
20.3341
20.2034
20.0866
19.9848
19.8978
19.8247
19.7644
19.7153
19.6761
19.6451
19.6205
19.6007
19.5846
19.571
19.5584
19.5457
19.5327
19.5198
19.5079
19.4976
19.4893
19.4809
19.4666
19.4393
19.3978
19.352
19.3141
19.2898
19.2744
19.2628
19.2403
19.2054
19.1323
-1.74297
-1.98572
-2.39076
-2.95195
-3.64015
-4.43118
-5.30747
-6.2614
-7.2814
-8.34292
-9.41357
-10.4643
-11.4693
-12.4089
-13.2714
-14.0511
-14.749
-15.3691
-15.9195
-16.4128
-16.8656
-17.2945
-17.7123
-18.1274
-18.5434
-18.9614
-19.383
-19.8129
-20.2607
-20.7423
-21.2798
-21.8988
-22.6224
-23.4681
-24.452
-25.5831
-26.8575
-28.2514
-29.7297
-31.2426
-32.716
-34.0793
-35.2668
-36.2295
-36.9362
-37.372
-37.5367
-37.4442
-37.1225
-36.6152
-35.9766
-35.2675
-34.554
-33.8802
-33.2504
-32.6563
-32.0943
-31.567
-31.0784
-30.628
-30.2005
-29.7566
-29.242
-28.6004
-27.7839
-26.7799
-25.615
-24.3306
-22.9658
-21.5544
-20.127
-18.7082
-17.3142
-15.9585
-14.6528
-13.4066
-12.2365
-11.1479
-10.1474
-9.22479
-8.36788
-7.57575
-6.87938
-6.274
-5.81075
-5.60258
-5.68365
-5.85868
-6.04903
-6.30925
-6.61349
-6.93327
-7.26084
-7.59143
-7.91376
-8.19975
-8.38907
-8.38597
-8.0947
-7.45684
-6.44419
-5.06964
-3.39638
-1.52078
0.431542
2.32478
4.04983
5.54746
6.80999
7.86458
8.76677
9.58309
10.3729
11.1854
12.0671
13.0589
14.1789
15.4227
16.7582
18.1289
19.463
20.701
21.8028
22.7364
23.4694
23.9907
24.3168
24.48
24.5126
24.4402
24.2841
24.0633
23.7953
23.4957
23.1781
22.854
22.5325
22.2198
21.9201
21.6359
21.3685
21.1185
20.8865
20.6727
20.4774
20.3007
20.1414
19.9983
19.8718
19.7633
19.6723
19.5975
19.5374
19.4899
19.4535
19.4266
19.407
19.3928
19.3823
19.374
19.3665
19.3584
19.349
19.3387
19.3285
19.3197
19.3142
19.3126
19.3138
19.3112
19.2948
19.2575
19.2043
19.1488
19.1037
19.0677
19.0376
19.0025
18.9592
18.8852
-1.86142
-2.07356
-2.45672
-3.00302
-3.68629
-4.48506
-5.38356
-6.37167
-7.43646
-8.5562
-9.7018
-10.8446
-11.9589
-13.0242
-14.0258
-14.9548
-15.8076
-16.5838
-17.2877
-17.9302
-18.5281
-19.0968
-19.6477
-20.1866
-20.7141
-21.2306
-21.7394
-22.2508
-22.7832
-23.361
-24.0127
-24.765
-25.6384
-26.647
-27.8024
-29.1061
-30.5467
-32.0989
-33.7278
-35.3788
-36.9768
-38.448
-39.7219
-40.7433
-41.475
-41.8979
-42.0089
-41.8219
-41.3684
-40.6987
-39.8781
-38.9786
-38.0733
-37.2163
-36.414
-35.6567
-34.9415
-34.273
-33.6506
-33.0661
-32.4964
-31.8962
-31.221
-30.4236
-29.4665
-28.3429
-27.0743
-25.696
-24.2411
-22.7415
-21.2261
-19.7175
-18.2315
-16.7852
-15.3967
-14.0859
-12.8712
-11.7586
-10.7493
-9.82794
-8.97348
-8.18009
-7.49548
-6.92278
-6.49792
-6.33068
-6.44924
-6.66666
-6.89128
-7.18151
-7.51616
-7.85426
-8.18661
-8.51444
-8.83798
-9.13938
-9.35485
-9.37502
-9.08875
-8.43734
-7.39946
-5.98938
-4.27197
-2.34985
-0.357107
1.56795
3.31811
4.83676
6.11743
7.18848
8.10638
8.9377
9.74248
10.5709
11.4687
12.475
13.6063
14.8561
16.1875
17.5419
18.8516
20.0629
21.14
22.0542
22.7767
23.2982
23.6345
23.8157
23.8705
23.8222
23.6906
23.4938
23.2487
22.9709
22.6744
22.3706
22.0677
21.772
21.4883
21.2182
20.9625
20.7221
20.4974
20.2891
20.0982
19.9258
19.7721
19.6379
19.5246
19.4317
19.3574
19.2997
19.2564
19.2254
19.2043
19.1907
19.1827
19.1783
19.1757
19.1733
19.1695
19.1633
19.1546
19.1443
19.134
19.1253
19.1202
19.1205
19.1256
19.1304
19.1247
19.0975
19.0466
18.9813
18.9169
18.8594
18.8076
18.7538
18.6968
18.617
-1.90791
-2.11433
-2.50483
-3.07249
-3.79662
-4.65867
-5.63916
-6.71993
-7.88111
-9.09717
-10.3392
-11.5779
-12.7879
-13.9486
-15.0464
-16.0737
-17.0273
-17.905
-18.7103
-19.454
-20.1533
-20.8231
-21.4726
-22.1046
-22.7185
-23.3145
-23.8985
-24.4857
-25.1011
-25.7755
-26.5379
-27.4114
-28.413
-29.5528
-30.8375
-32.2634
-33.8161
-35.475
-37.2088
-38.9606
-40.6532
-42.2077
-43.5483
-44.6146
-45.3668
-45.7846
-45.863
-45.6159
-45.0775
-44.3029
-43.3619
-42.3312
-41.288
-40.2886
-39.3427
-38.4415
-37.5857
-36.7785
-36.0163
-35.2875
-34.5619
-33.7951
-32.9513
-31.997
-30.9076
-29.6795
-28.3287
-26.8787
-25.3565
-23.7907
-22.2079
-20.6295
-19.0724
-17.5569
-16.1078
-14.7558
-13.5216
-12.4092
-11.4129
-10.5114
-9.67405
-8.90159
-8.20622
-7.65775
-7.24425
-7.07822
-7.18452
-7.41465
-7.6513
-7.94277
-8.28135
-8.61894
-8.94127
-9.25233
-9.56489
-9.86779
-10.0955
-10.1238
-9.82918
-9.15378
-8.08573
-6.64947
-4.91236
-2.98157
-0.99139
0.926831
2.677
4.20765
5.51198
6.61327
7.56145
8.41898
9.24585
10.0945
11.0113
12.0307
13.1654
14.4065
15.7145
17.032
18.299
19.4694
20.5113
21.3969
22.1006
22.6148
22.955
23.148
23.219
23.1889
23.076
22.8978
22.6713
22.4123
22.1346
21.8487
21.5628
21.2844
21.0171
20.7614
20.5169
20.2843
20.0658
19.8635
19.6797
19.5174
19.3783
19.2634
19.1722
19.1017
19.0486
19.0106
18.9856
18.9714
18.9654
18.9649
18.9673
18.9704
18.9727
18.9731
18.9702
18.9637
18.9537
18.9416
18.9291
18.9183
18.9111
18.9098
18.9147
18.9218
18.9227
18.9062
18.8649
18.8003
18.7244
18.6477
18.5745
18.5002
18.4248
18.3342
-1.98761
-2.20748
-2.64108
-3.28051
-4.10845
-5.10043
-6.22597
-7.45383
-8.75282
-10.0918
-11.4391
-12.7649
-14.0442
-15.2583
-16.3972
-17.4572
-18.4389
-19.3438
-20.1784
-20.9565
-21.6942
-22.4038
-23.0907
-23.7566
-24.4037
-25.0368
-25.6663
-26.3096
-26.9917
-27.7407
-28.5806
-29.528
-30.5972
-31.797
-33.1331
-34.6026
-36.1922
-37.8871
-39.6593
-41.4472
-43.1733
-44.7585
-46.1275
-47.222
-48.0025
-48.4469
-48.5458
-48.3109
-47.7745
-46.9913
-46.0307
-44.9659
-43.8739
-42.8091
-41.7859
-40.797
-39.8417
-38.9225
-38.0377
-37.1753
-36.3033
-35.3856
-34.3907
-33.2976
-32.093
-30.7771
-29.3612
-27.8603
-26.2923
-24.681
-23.051
-21.4241
-19.8204
-18.2647
-16.7902
-15.4329
-14.2123
-13.1253
-12.1577
-11.2867
-10.479
-9.72374
-9.02688
-8.47222
-8.06271
-7.84634
-7.88878
-8.08983
-8.31983
-8.59402
-8.91086
-9.2265
-9.52242
-9.80459
-10.0922
-10.3754
-10.5874
-10.5948
-10.2716
-9.56159
-8.46197
-7.01023
-5.28035
-3.37965
-1.43505
0.437023
2.15675
3.6804
4.99955
6.1325
7.12006
8.01626
8.87721
9.75472
10.6925
11.7204
12.8483
14.0648
15.3316
16.5962
17.8079
18.9277
19.926
20.7745
21.4502
21.9485
22.2841
22.4805
22.5594
22.5395
22.4383
22.2731
22.0613
21.8184
21.5573
21.2875
21.0186
20.7579
20.5062
20.2619
20.0252
19.7988
19.5868
19.3935
19.2239
19.0812
18.9669
18.8803
18.8184
18.7756
18.7478
18.7317
18.7248
18.7252
18.7311
18.7404
18.7503
18.7583
18.7626
18.7626
18.758
18.749
18.7362
18.7208
18.7047
18.69
18.6791
18.6745
18.677
18.6834
18.6868
18.678
18.6486
18.594
18.5184
18.4308
18.3399
18.2456
18.1503
18.0441
-2.15952
-2.41478
-2.92879
-3.68898
-4.67361
-5.84254
-7.14842
-8.5456
-9.99027
-11.4457
-12.879
-14.2615
-15.5712
-16.7945
-17.9262
-18.9659
-19.9166
-20.7831
-21.5713
-22.2951
-22.9768
-23.6332
-24.2733
-24.9034
-25.5296
-26.1599
-26.8032
-27.4698
-28.1737
-28.9342
-29.7722
-30.7062
-31.7543
-32.9287
-34.236
-35.6732
-37.2251
-38.8814
-40.6188
-42.3761
-44.0827
-45.6641
-47.0493
-48.1813
-49.0193
-49.5369
-49.7214
-49.5794
-49.1404
-48.4528
-47.581
-46.5894
-45.5471
-44.5087
-43.4937
-42.4926
-41.5008
-40.5209
-39.554
-38.591
-37.6067
-36.5708
-35.4601
-34.263
-32.974
-31.5953
-30.1345
-28.6014
-27.009
-25.3754
-23.723
-22.0758
-20.4588
-18.9028
-17.447
-16.1276
-14.9589
-13.9273
-13.0088
-12.1748
-11.3999
-10.659
-9.95758
-9.35346
-8.91605
-8.6303
-8.5751
-8.69906
-8.88736
-9.11984
-9.3903
-9.66731
-9.9311
-10.1825
-10.4319
-10.6632
-10.8088
-10.749
-10.3698
-9.61951
-8.50083
-7.05829
-5.37099
-3.54177
-1.68231
0.112472
1.77739
3.27495
4.59496
5.75113
6.7763
7.71555
8.6179
9.52942
10.4883
11.5205
12.6333
13.8136
15.0272
16.2295
17.3787
18.4412
19.3878
20.1898
20.8277
21.3002
21.6217
21.812
21.8901
21.8729
21.7775
21.6214
21.4214
21.1924
20.9458
20.6913
20.4391
20.1941
19.9536
19.7156
19.483
19.2617
19.0585
18.8805
18.734
18.6211
18.5406
18.4888
18.4602
18.4484
18.4481
18.4549
18.4659
18.4789
18.493
18.5075
18.5205
18.5299
18.5336
18.531
18.5225
18.509
18.4918
18.4722
18.4518
18.4327
18.4178
18.4097
18.4092
18.4139
18.4179
18.4139
18.3958
18.3564
18.2918
18.2046
18.1035
17.9929
17.8781
17.7539
-2.36221
-2.66922
-3.28692
-4.18889
-5.34373
-6.69083
-8.16572
-9.71211
-11.2819
-12.835
-14.3387
-15.7654
-17.0925
-18.3078
-19.4069
-20.39
-21.2592
-22.0157
-22.6667
-23.2359
-23.7596
-24.2687
-24.7812
-25.3043
-25.8419
-26.3989
-26.9797
-27.5879
-28.2301
-28.9214
-29.6861
-30.5483
-31.5272
-32.6304
-33.8626
-35.2196
-36.685
-38.2513
-39.9045
-41.5907
-43.2479
-44.8095
-46.2092
-47.3926
-48.3168
-48.9513
-49.2794
-49.3035
-49.0459
-48.5468
-47.8612
-47.0448
-46.1503
-45.2281
-44.3033
-43.3682
-42.4132
-41.4383
-40.4454
-39.4297
-38.3763
-37.2634
-36.0798
-34.8234
-33.4926
-32.0878
-30.6128
-29.075
-27.4855
-25.8599
-24.2194
-22.5914
-21.006
-19.4986
-18.1107
-16.8742
-15.794
-14.8436
-13.9886
-13.1942
-12.4354
-11.6867
-10.9615
-10.2961
-9.77274
-9.41123
-9.23592
-9.24206
-9.35213
-9.52351
-9.7352
-9.96314
-10.1898
-10.4075
-10.6064
-10.7563
-10.793
-10.6237
-10.1611
-9.36666
-8.24717
-6.84353
-5.22985
-3.49971
-1.74588
-0.0437496
1.55267
3.00997
4.31746
5.48556
6.54063
7.5188
8.46008
9.40311
10.3803
11.4122
12.5026
13.6386
14.7919
15.9267
17.0089
18.0077
18.8934
19.6387
20.229
20.6666
20.9651
21.1413
21.2113
21.1908
21.0967
20.9465
20.756
20.5387
20.3053
20.0645
19.8263
19.5924
19.3565
19.119
18.8877
18.673
18.4845
18.3304
18.2161
18.1412
18.1001
18.0864
18.0929
18.1123
18.1385
18.167
18.1945
18.2191
18.2399
18.2562
18.2676
18.2737
18.2739
18.2673
18.2543
18.2359
18.2138
18.1897
18.1654
18.1434
18.1257
18.1145
18.1111
18.1141
18.1188
18.119
18.1101
18.0857
18.0374
17.9607
17.8596
17.7395
17.6091
17.4672
-2.3543
-2.72218
-3.44206
-4.47946
-5.79297
-7.3076
-8.95149
-10.6546
-12.3667
-14.0415
-15.6423
-17.1281
-18.4628
-19.6291
-20.6255
-21.4572
-22.1362
-22.6744
-23.0878
-23.4084
-23.6819
-23.9508
-24.2413
-24.5658
-24.9268
-25.3288
-25.7767
-26.2726
-26.8205
-27.4321
-28.1278
-28.927
-29.8401
-30.8707
-32.0216
-33.2884
-34.6537
-36.1113
-37.6573
-39.2475
-40.8304
-42.3504
-43.7506
-44.9835
-46.0077
-46.7908
-47.31
-47.5588
-47.5504
-47.3142
-46.8919
-46.3281
-45.6622
-44.9325
-44.1657
-43.3624
-42.5134
-41.6142
-40.6641
-39.6593
-38.592
-37.4548
-36.2485
-34.9802
-33.6507
-32.2581
-30.8049
-29.2972
-27.7454
-26.1639
-24.5753
-23.0098
-21.5019
-20.0885
-18.807
-17.682
-16.7128
-15.8591
-15.0714
-14.3104
-13.5511
-12.7782
-12.0035
-11.2624
-10.6371
-10.1725
-9.87576
-9.74825
-9.74739
-9.83011
-9.9679
-10.1377
-10.3193
-10.4895
-10.6175
-10.6626
-10.5734
-10.2833
-9.73201
-8.89268
-7.77496
-6.41831
-4.89011
-3.26879
-1.62706
-0.0247947
1.4931
2.8983
4.18127
5.34973
6.42341
7.42977
8.40056
9.36757
10.3565
11.3809
12.441
13.5257
14.6134
15.6765
16.6863
17.613
18.4268
19.1051
19.6392
20.0343
20.3026
20.4576
20.513
20.484
20.3878
20.2414
20.0591
19.8527
19.6308
19.4014
19.1744
18.9458
18.7077
18.4667
18.2368
18.0329
17.8667
17.7452
17.6702
17.6372
17.6379
17.6636
17.7054
17.7544
17.8044
17.8519
17.8938
17.9287
17.9549
17.9715
17.9786
17.9781
17.9716
17.9597
17.9428
17.9213
17.8962
17.8696
17.8438
17.8207
17.8017
17.7888
17.7835
17.7854
17.791
17.7952
17.7934
17.7807
17.7487
17.6882
17.5968
17.4772
17.3386
17.1831
-1.76936
-2.22507
-3.06682
-4.25242
-5.74136
-7.4536
-9.30632
-11.2122
-13.1003
-14.902
-16.5638
-18.0362
-19.2677
-20.2357
-20.9629
-21.484
-21.8372
-22.0517
-22.15
-22.1622
-22.1359
-22.1247
-22.1646
-22.274
-22.459
-22.7209
-23.0615
-23.4803
-23.9767
-24.5574
-25.2356
-26.0219
-26.918
-27.9223
-29.0367
-30.2563
-31.5569
-32.9314
-34.3854
-35.8853
-37.3907
-38.8585
-40.243
-41.5059
-42.6105
-43.5258
-44.2264
-44.6977
-44.9433
-44.9816
-44.8415
-44.5551
-44.1515
-43.655