/*--------------------------------*- C++ -*----------------------------------*\
| =========                 |                                                 |
| \\      /  F ield         | OpenFOAM: The Open Source CFD Toolbox           |
|  \\    /   O peration     | Version:  2112                                  |
|   \\  /    A nd           | Website:  www.openfoam.com                      |
|    \\/     M anipulation  |                                                 |
\*---------------------------------------------------------------------------*/
FoamFile
{
    version     2.0;
    format      ascii;
    arch        "LSB;label=32;scalar=64";
    class       volVectorField;
    location    "0.079";
    object      U_0;
}
// * * * * * * * * * * * * * * * * * * * * * * * * * * * * * * * * * * * * * //

dimensions      [0 1 -1 0 0 0 0];

internalField   nonuniform List<vector> 
12225
(
(9.87865 0.00984966 0)
(9.3443 0.0761743 0)
(9.02737 0.0540762 0)
(8.78775 0.0491701 0)
(8.53612 0.0547999 0)
(8.29008 0.056018 0)
(8.08372 0.0510876 0)
(7.91475 0.0466217 0)
(7.76279 0.0449851 0)
(7.61383 0.0466364 0)
(7.45144 0.0439951 0)
(7.31268 0.0433975 0)
(7.13655 0.0383447 0)
(7.03494 0.0396589 0)
(6.83521 0.0366669 0)
(6.78985 0.0353076 0)
(6.51132 0.0317843 0)
(6.76152 0.00980679 0)
(10.0444 0.064246 0)
(9.97565 0.0979067 0)
(10.0003 0.0675074 0)
(10.0924 0.0598397 0)
(10.141 0.0629324 0)
(10.1291 0.0565261 0)
(10.0968 0.0425412 0)
(10.0782 0.0339945 0)
(10.0879 0.0344112 0)
(10.1244 0.0414774 0)
(10.1707 0.0460933 0)
(10.2199 0.051973 0)
(10.2495 0.0562138 0)
(10.2743 0.056738 0)
(10.2672 0.0625967 0)
(10.2672 0.0644541 0)
(10.2395 0.051423 0)
(10.2826 0.0485633 0)
(9.97791 0.0406129 0)
(10.0456 0.134001 0)
(10.0527 0.0337848 0)
(10.0263 0.0069157 0)
(10.0134 0.0413226 0)
(10.0254 0.0720767 0)
(10.0572 0.0739004 0)
(10.1042 0.0582172 0)
(10.1641 0.0392871 0)
(10.2347 0.0256142 0)
(10.3074 0.016141 0)
(10.3716 0.0141548 0)
(10.4248 0.0185395 0)
(10.4663 0.0277956 0)
(10.4982 0.0400271 0)
(10.5304 0.0446994 0)
(10.5656 0.0444584 0)
(10.6001 0.0197928 0)
(9.81928 -0.0723104 0)
(10.1193 0.0178874 0)
(10.1402 0.065304 0)
(10.0159 0.0764779 0)
(9.94036 0.0658957 0)
(9.97168 0.0387532 0)
(10.0642 0.00669235 0)
(10.1624 -0.0134906 0)
(10.2378 -0.0174115 0)
(10.2835 -0.0105472 0)
(10.3032 0.000573191 0)
(10.3064 0.0131929 0)
(10.3086 0.0267018 0)
(10.3205 0.0343426 0)
(10.3475 0.0393254 0)
(10.3895 0.035845 0)
(10.4412 0.0187651 0)
(10.4933 -0.0120132 0)
(10.2649 -0.00881355 0)
(9.88835 0.085346 0)
(9.82331 0.0764459 0)
(9.92943 0.0563816 0)
(10.0033 0.0500936 0)
(10.0166 0.0401252 0)
(10.0139 0.0230924 0)
(10.0244 0.00937981 0)
(10.0485 0.00544106 0)
(10.0753 0.00687193 0)
(10.096 0.00759894 0)
(10.1094 0.0064033 0)
(10.126 0.00518269 0)
(10.1563 0.00338635 0)
(10.2058 0.00207789 0)
(10.2706 -0.00172179 0)
(10.3471 -0.0119013 0)
(10.4168 -0.0317104 0)
(9.9209 -0.00536739 0)
(9.86697 0.083561 0)
(9.87477 0.0436432 0)
(9.92831 0.0284466 0)
(9.98834 0.0408778 0)
(10.0617 0.0309347 0)
(10.1398 -0.00264278 0)
(10.1993 -0.0329266 0)
(10.2278 -0.0431673 0)
(10.2289 -0.0320213 0)
(10.2153 -0.0112649 0)
(10.2042 0.00588954 0)
(10.2115 0.0127169 0)
(10.2459 0.0045718 0)
(10.305 -0.0116683 0)
(10.3816 -0.0326381 0)
(10.4624 -0.0568698 0)
(10.5365 -0.0845148 0)
(9.90782 0.0554 0)
(9.94294 0.11006 0)
(10.0008 0.0670351 0)
(10.0658 0.0253431 0)
(10.108 0.0042752 0)
(10.1098 -0.012694 0)
(10.0773 -0.0218813 0)
(10.0296 -0.0146918 0)
(9.99288 0.00249762 0)
(9.98762 0.0166379 0)
(10.0169 0.0176452 0)
(10.0702 0.00353907 0)
(10.1337 -0.0205519 0)
(10.199 -0.0489017 0)
(10.2584 -0.0730617 0)
(10.3094 -0.0894302 0)
(10.3478 -0.0989289 0)
(10.3785 -0.103224 0)
(9.61081 0.00277864 0)
(9.85526 -0.0134646 0)
(9.95368 -0.0165323 0)
(9.96413 0.00125528 0)
(9.93873 0.0304477 0)
(9.93863 0.0424001 0)
(9.98069 0.0264845 0)
(10.0398 -0.00473667 0)
(10.0901 -0.0328853 0)
(10.1224 -0.0469866 0)
(10.1397 -0.0489255 0)
(10.1496 -0.0471081 0)
(10.1611 -0.0471817 0)
(10.1813 -0.0520843 0)
(10.2126 -0.0622256 0)
(10.2517 -0.0770524 0)
(10.2934 -0.094461 0)
(10.333 -0.114503 0)
(10.1572 -0.0368836 0)
(9.99441 -0.00363178 0)
(9.96055 0.0402897 0)
(9.97894 0.0439024 0)
(9.99432 0.0128691 0)
(10.0242 -0.0339445 0)
(10.0776 -0.0641498 0)
(10.1349 -0.0603304 0)
(10.1757 -0.0319067 0)
(10.1905 -0.00321343 0)
(10.1819 0.00640089 0)
(10.1628 -0.00933357 0)
(10.1493 -0.0449126 0)
(10.1532 -0.0872641 0)
(10.1737 -0.123908 0)
(10.2096 -0.146113 0)
(10.245 -0.153778 0)
(10.2861 -0.14884 0)
(9.76647 0.145169 0)
(9.76752 0.0309334 0)
(9.89174 -0.0275642 0)
(10.0269 -0.0203604 0)
(10.1015 0.00789864 0)
(10.1301 0.00864374 0)
(10.1394 -0.0218566 0)
(10.1386 -0.0538242 0)
(10.1319 -0.0635708 0)
(10.1245 -0.052035 0)
(10.1184 -0.034929 0)
(10.1103 -0.0267533 0)
(10.0961 -0.0352505 0)
(10.0755 -0.0566581 0)
(10.0512 -0.085622 0)
(10.0279 -0.114332 0)
(10.011 -0.140632 0)
(10.0074 -0.162219 0)
(9.64428 -0.0506124 0)
(9.71988 -0.0624299 0)
(9.69368 -0.050785 0)
(9.71825 -0.0321539 0)
(9.80181 -0.0345655 0)
(9.90267 -0.0533422 0)
(9.9758 -0.0646411 0)
(10.0062 -0.0528105 0)
(10.017 -0.0232033 0)
(10.0385 0.00621288 0)
(10.0803 0.017252 0)
(10.1338 0.00311814 0)
(10.1866 -0.0303909 0)
(10.2277 -0.0690592 0)
(10.2541 -0.102935 0)
(10.2631 -0.126594 0)
(10.2657 -0.142817 0)
(10.2613 -0.155424 0)
(9.70703 -0.0428626 0)
(9.64851 -0.0536466 0)
(9.62587 -0.0523946 0)
(9.70345 -0.0722878 0)
(9.83287 -0.0798153 0)
(9.94983 -0.076421 0)
(10.0206 -0.0734383 0)
(10.046 -0.0755397 0)
(10.0563 -0.0798698 0)
(10.0822 -0.0831368 0)
(10.1314 -0.0846552 0)
(10.1916 -0.0858524 0)
(10.2471 -0.0880433 0)
(10.2876 -0.0922081 0)
(10.3108 -0.0995577 0)
(10.3189 -0.112567 0)
(10.3221 -0.132634 0)
(10.3243 -0.162016 0)
(9.93895 0.0315874 0)
(9.81833 -0.00595553 0)
(9.82258 -0.0585656 0)
(9.84716 -0.100986 0)
(9.87466 -0.13232 0)
(9.92234 -0.137406 0)
(9.99106 -0.111786 0)
(10.0558 -0.0738853 0)
(10.1016 -0.0461993 0)
(10.1318 -0.0387241 0)
(10.1537 -0.0502536 0)
(10.1732 -0.073291 0)
(10.195 -0.0992688 0)
(10.2235 -0.120684 0)
(10.2572 -0.135271 0)
(10.2943 -0.145253 0)
(10.3272 -0.155285 0)
(10.3572 -0.170586 0)
(9.66829 0.0352101 0)
(9.71289 -0.0477493 0)
(9.80306 -0.109988 0)
(9.87906 -0.121422 0)
(9.90045 -0.128088 0)
(9.89473 -0.142083 0)
(9.88878 -0.151123 0)
(9.90118 -0.147464 0)
(9.94918 -0.13435 0)
(10.035 -0.120491 0)
(10.138 -0.112536 0)
(10.2299 -0.112096 0)
(10.2899 -0.118465 0)
(10.3114 -0.1291 0)
(10.2991 -0.142987 0)
(10.2671 -0.159316 0)
(10.2297 -0.17979 0)
(10.2032 -0.207588 0)
(9.92014 0.02786 0)
(9.96619 -0.105256 0)
(9.98597 -0.125198 0)
(9.97859 -0.123106 0)
(9.95255 -0.120329 0)
(9.91864 -0.108174 0)
(9.88452 -0.0996661 0)
(9.85916 -0.112585 0)
(9.85965 -0.148562 0)
(9.89619 -0.191209 0)
(9.96175 -0.21815 0)
(10.0389 -0.214788 0)
(10.1114 -0.182099 0)
(10.1691 -0.134746 0)
(10.2096 -0.0933297 0)
(10.2355 -0.0738946 0)
(10.2531 -0.0839087 0)
(10.2676 -0.122414 0)
(9.98094 -0.105023 0)
(9.97347 -0.190095 0)
(10.0319 -0.155386 0)
(10.0375 -0.112872 0)
(10.0288 -0.100524 0)
(10.0544 -0.101607 0)
(10.1029 -0.111079 0)
(10.1348 -0.13267 0)
(10.1285 -0.166472 0)
(10.0904 -0.204947 0)
(10.0401 -0.237261 0)
(9.99884 -0.254541 0)
(9.98081 -0.254713 0)
(9.98972 -0.243179 0)
(10.0175 -0.230846 0)
(10.0547 -0.226964 0)
(10.0897 -0.236401 0)
(10.1212 -0.259972 0)
(10.278 -0.0311445 0)
(10.1423 -0.120831 0)
(10.1159 -0.134645 0)
(10.1225 -0.124923 0)
(10.1307 -0.147478 0)
(10.1368 -0.177204 0)
(10.1421 -0.172156 0)
(10.142 -0.131804 0)
(10.1351 -0.0893098 0)
(10.1233 -0.0750888 0)
(10.1057 -0.0938373 0)
(10.0812 -0.128369 0)
(10.0519 -0.157963 0)
(10.0226 -0.170996 0)
(9.99859 -0.170509 0)
(9.9827 -0.167065 0)
(9.97606 -0.172653 0)
(9.97825 -0.196638 0)
(10.1108 -0.113294 0)
(10.0211 -0.0857361 0)
(10.0047 -0.0996599 0)
(9.98449 -0.103975 0)
(9.93944 -0.107695 0)
(9.89718 -0.106207 0)
(9.87974 -0.108973 0)
(9.89507 -0.12848 0)
(9.93815 -0.160415 0)
(9.99156 -0.18812 0)
(10.0331 -0.197545 0)
(10.0498 -0.187687 0)
(10.0444 -0.169353 0)
(10.0296 -0.157978 0)
(10.0193 -0.164739 0)
(10.0194 -0.192933 0)
(10.0315 -0.239566 0)
(10.0487 -0.296615 0)
(10.0172 -0.121549 0)
(10.006 -0.0115345 0)
(9.97481 -0.0221853 0)
(9.98235 -0.0564133 0)
(9.99089 -0.0657343 0)
(10.0036 -0.0974252 0)
(10.0139 -0.164138 0)
(10.0158 -0.230231 0)
(10.0079 -0.256952 0)
(9.99408 -0.235236 0)
(9.98067 -0.185315 0)
(9.97243 -0.13712 0)
(9.97252 -0.111946 0)
(9.98079 -0.117167 0)
(9.99431 -0.145951 0)
(10.0074 -0.186585 0)
(10.016 -0.226751 0)
(10.0161 -0.25778 0)
(10.0249 -0.178719 0)
(10.0982 -0.0820109 0)
(10.0601 -0.0643125 0)
(10.0055 -0.104877 0)
(9.96536 -0.130103 0)
(9.96202 -0.133825 0)
(9.97278 -0.126799 0)
(9.9635 -0.122126 0)
(9.92841 -0.126839 0)
(9.88215 -0.138851 0)
(9.84328 -0.15335 0)
(9.82444 -0.168933 0)
(9.82868 -0.186567 0)
(9.85084 -0.206898 0)
(9.88217 -0.228554 0)
(9.91461 -0.249903 0)
(9.94294 -0.269514 0)
(9.96499 -0.287478 0)
(10.046 -0.117239 0)
(10.0877 -0.0554153 0)
(10.0284 0.0285423 0)
(10.0186 0.024455 0)
(10.0092 -0.0420754 0)
(9.98353 -0.117901 0)
(9.96447 -0.159175 0)
(9.97289 -0.153332 0)
(10.0094 -0.122196 0)
(10.0583 -0.0968373 0)
(10.0996 -0.0966063 0)
(10.1198 -0.124261 0)
(10.1152 -0.170372 0)
(10.0894 -0.222089 0)
(10.05 -0.267735 0)
(10.0056 -0.301151 0)
(9.9617 -0.320189 0)
(9.92403 -0.325362 0)
(10.0333 -0.00443628 0)
(10.0689 -0.00103916 0)
(10.0512 0.000357094 0)
(10.0693 -0.0417694 0)
(10.097 -0.0718639 0)
(10.0981 -0.0924067 0)
(10.0717 -0.129373 0)
(10.0386 -0.181143 0)
(10.0217 -0.223428 0)
(10.0245 -0.23624 0)
(10.0307 -0.217295 0)
(10.0204 -0.179574 0)
(9.98565 -0.141102 0)
(9.93124 -0.116695 0)
(9.87109 -0.113073 0)
(9.81794 -0.127876 0)
(9.78093 -0.155068 0)
(9.76351 -0.184929 0)
(10.1362 -0.0300848 0)
(10.201 -0.0264833 0)
(10.2453 -0.00678427 0)
(10.2225 -0.0322681 0)
(10.1644 -0.0643747 0)
(10.1275 -0.0788912 0)
(10.1289 -0.0910065 0)
(10.1428 -0.109994 0)
(10.143 -0.128208 0)
(10.1205 -0.132141 0)
(10.0815 -0.115134 0)
(10.039 -0.0854672 0)
(10.0048 -0.0612182 0)
(9.98527 -0.0604159 0)
(9.98077 -0.0903767 0)
(9.98612 -0.143553 0)
(9.99565 -0.208075 0)
(10.0023 -0.266036 0)
(10.0819 0.00636927 0)
(10.002 -0.0200267 0)
(9.97728 0.00925697 0)
(9.99475 0.0258386 0)
(10.0063 -0.0112493 0)
(10.0007 -0.0776509 0)
(9.99632 -0.144332 0)
(10.0016 -0.18516 0)
(10.012 -0.187851 0)
(10.0195 -0.1589 0)
(10.0168 -0.117159 0)
(10.0024 -0.0831664 0)
(9.98016 -0.0704093 0)
(9.95689 -0.0826136 0)
(9.93569 -0.114198 0)
(9.9174 -0.153856 0)
(9.89924 -0.19138 0)
(9.88104 -0.217247 0)
(10.0488 0.0248863 0)
(10.1077 0.0255243 0)
(10.085 0.000387769 0)
(10.0941 -0.0444321 0)
(10.1065 -0.0590745 0)
(10.0937 -0.0625655 0)
(10.0577 -0.0867271 0)
(10.0086 -0.12541 0)
(9.96397 -0.150031 0)
(9.9417 -0.141134 0)
(9.94544 -0.102091 0)
(9.96359 -0.0545072 0)
(9.97908 -0.0229689 0)
(9.97983 -0.0223051 0)
(9.96106 -0.0529604 0)
(9.92503 -0.103275 0)
(9.87728 -0.16 0)
(9.82522 -0.207725 0)
(9.92803 -0.135711 0)
(9.98124 -0.0362605 0)
(10.045 0.0259082 0)
(10.0865 0.0167018 0)
(10.0781 -0.0226849 0)
(10.0536 -0.0627759 0)
(10.0391 -0.0952475 0)
(10.0295 -0.122109 0)
(10.0187 -0.142095 0)
(10.016 -0.147537 0)
(10.0313 -0.13328 0)
(10.0589 -0.104922 0)
(10.0818 -0.0755221 0)
(10.0843 -0.057613 0)
(10.0614 -0.05712 0)
(10.0182 -0.0720327 0)
(9.96389 -0.0967365 0)
(9.90807 -0.121606 0)
(10.141 -0.0403139 0)
(10.0806 -0.0807657 0)
(9.98827 -0.059098 0)
(9.97716 -0.0369421 0)
(10.0273 -0.0295092 0)
(10.0904 -0.0393988 0)
(10.1379 -0.0648127 0)
(10.1407 -0.10017 0)
(10.0853 -0.13231 0)
(9.9907 -0.14569 0)
(9.89422 -0.131458 0)
(9.8243 -0.093895 0)
(9.78974 -0.04845 0)
(9.78499 -0.0140947 0)
(9.79793 -0.00453222 0)
(9.81632 -0.0209119 0)
(9.83115 -0.0572026 0)
(9.83647 -0.0986265 0)
(10.104 -0.0506803 0)
(9.95452 0.0205237 0)
(9.86739 0.052752 0)
(9.88253 0.00998367 0)
(9.91641 -0.0724615 0)
(9.91352 -0.126177 0)
(9.8863 -0.1287 0)
(9.85534 -0.100615 0)
(9.82541 -0.0690182 0)
(9.7986 -0.0486998 0)
(9.78164 -0.0408467 0)
(9.78167 -0.040875 0)
(9.80143 -0.0457283 0)
(9.83763 -0.0552999 0)
(9.87992 -0.0704076 0)
(9.91545 -0.0896442 0)
(9.93443 -0.110067 0)
(9.93102 -0.127532 0)
(10.0298 0.0076055 0)
(10.1375 -0.0102986 0)
(10.1679 -0.0315003 0)
(10.2463 -0.0383222 0)
(10.2946 -0.0376748 0)
(10.245 -0.0357818 0)
(10.1462 -0.0433782 0)
(10.0637 -0.0651197 0)
(10.0163 -0.0914521 0)
(9.99449 -0.108947 0)
(9.98821 -0.110119 0)
(9.99276 -0.0974382 0)
(10.0031 -0.0794912 0)
(10.0127 -0.0646532 0)
(10.0121 -0.0579989 0)
(9.99628 -0.0599504 0)
(9.96294 -0.0686817 0)
(9.9178 -0.0818025 0)
(9.63881 -0.0867215 0)
(9.58381 -0.0208628 0)
(9.57135 0.0101645 0)
(9.49626 -0.0254527 0)
(9.34568 -0.0630707 0)
(9.16815 -0.0693368 0)
(9.00862 -0.0568221 0)
(8.85972 -0.0458814 0)
(8.69257 -0.0433946 0)
(8.49916 -0.0472571 0)
(8.29634 -0.0529012 0)
(8.10558 -0.0574432 0)
(7.93642 -0.0595651 0)
(7.79019 -0.0593401 0)
(7.65953 -0.0583779 0)
(7.53668 -0.0581858 0)
(7.4109 -0.0610323 0)
(7.275 -0.0667429 0)
(-0.194649 0.500498 1.18352e-20)
(-0.52509 0.313257 -1.17082e-20)
(-0.721168 0.139313 0)
(-0.83299 -0.0448726 0)
(-0.828469 -0.185421 0)
(-0.73001 -0.297554 1.1334e-20)
(-0.541443 -0.385716 0)
(-0.286492 -0.446542 0)
(0.0420343 -0.472572 0)
(0.404628 -0.472625 0)
(0.760303 -0.443059 -1.11192e-20)
(1.09737 -0.39479 0)
(1.40475 -0.338524 0)
(1.67218 -0.279213 0)
(1.89699 -0.222081 0)
(2.08344 -0.17294 -1.09063e-20)
(2.23854 -0.135008 0)
(2.36976 -0.109105 0)
(2.48502 -0.094506 0)
(2.59259 -0.0895465 0)
(2.70001 -0.0921424 0)
(2.81354 -0.100204 0)
(2.93841 -0.112123 0)
(3.07847 -0.126754 -1.11398e-20)
(3.23608 -0.142966 1.11749e-20)
(3.41284 -0.160209 -1.12026e-20)
(3.61005 -0.177779 -1.12203e-20)
(3.82838 -0.19475 0)
(4.06789 -0.211418 0)
(4.32882 -0.227486 1.11914e-20)
(4.61074 -0.241914 1.11468e-20)
(4.9126 -0.255831 0)
(5.23415 -0.268448 0)
(5.57366 -0.277787 1.08763e-20)
(5.92853 -0.287197 0)
(6.29824 -0.294577 0)
(6.67851 -0.294585 -1.03612e-20)
(7.06296 -0.294047 0)
(7.44997 -0.288425 -9.87323e-21)
(7.83068 -0.270164 -1.91818e-20)
(8.19568 -0.256739 0)
(8.54508 -0.229977 0)
(8.85746 -0.170545 0)
(9.11397 -0.130762 0)
(9.32571 -0.0813211 0)
(9.46275 0.0367375 -1.55126e-20)
(9.483 0.140206 -1.50208e-20)
(9.38561 0.276557 -1.46159e-20)
(9.09791 0.534068 0)
(8.5755 0.732184 1.404e-20)
(7.86036 0.875588 0)
(6.91651 1.09999 -1.35601e-20)
(5.7727 1.11185 -1.3129e-20)
(4.68978 0.680614 0)
(3.88409 0.0855244 0)
(3.37472 -0.330907 0)
(3.08992 -0.480782 -1.18589e-20)
(2.93547 -0.447914 0)
(2.82806 -0.347791 0)
(2.71114 -0.246954 0)
(2.55557 -0.153369 0)
(2.34585 -0.073568 0)
(2.07612 -0.00608119 0)
(1.7435 0.079173 0)
(1.29184 0.185499 0)
(0.795625 0.319632 1.63544e-20)
(0.0513792 0.730804 0)
(-1.05108 0.533468 0)
(-1.46667 -0.14148 -1.6922e-20)
(-1.82002 -0.379604 -1.68461e-20)
(-1.3702 -1.07019 0)
(-0.509793 -1.40746 1.61224e-20)
(-0.465738 -0.685266 -1.55071e-20)
(-1.50721 0.853426 0)
(-3.80082 1.43296 1.46129e-20)
(-5.3128 0.836302 0)
(-6.3728 0.77872 0)
(-7.47447 0.560892 -1.11972e-20)
(-8.11564 0.429873 0)
(-8.85043 0.380585 8.94707e-21)
(-9.38695 0.319071 0)
(-9.99583 0.362012 -6.83233e-21)
(-10.605 0.382685 -5.78577e-21)
(-11.2885 0.445779 -4.73433e-21)
(-12.0309 0.454363 -7.36138e-21)
(-12.7613 0.428871 5.31152e-21)
(-13.4105 0.340912 0)
(-13.8759 0.226774 0)
(-14.1496 0.11453 0)
(-14.2443 0.0265425 -4.15858e-22)
(-14.2171 -0.032518 -1.05772e-21)
(-14.0996 -0.0768159 1.4056e-21)
(-13.8932 -0.124199 0)
(-13.5811 -0.167448 -1.2296e-21)
(-13.1915 -0.194167 -7.89579e-22)
(-12.7507 -0.21173 -2.00031e-22)
(-12.2837 -0.216381 0)
(-11.8171 -0.210496 0)
(-11.3599 -0.203046 0)
(-10.9122 -0.196747 3.11842e-21)
(-10.4707 -0.192326 0)
(-10.0304 -0.19097 0)
(-9.586 -0.192401 -6.60707e-21)
(-9.13427 -0.195148 0)
(-8.67326 -0.198647 0)
(-8.20166 -0.202522 -1.06118e-20)
(-7.71958 -0.206251 0)
(-7.22762 -0.209748 0)
(-6.72595 -0.213165 1.45072e-20)
(-6.21326 -0.216764 1.56914e-20)
(-5.68751 -0.220549 0)
(-5.14874 -0.223701 -1.78131e-20)
(-4.60047 -0.224945 0)
(-4.04863 -0.223344 1.95219e-20)
(-3.50076 -0.218343 0)
(-2.96521 -0.209947 2.07363e-20)
(-2.45033 -0.198515 2.11508e-20)
(-1.96361 -0.184607 0)
(-1.51015 -0.169061 0)
(-1.09412 -0.152662 0)
(-0.718109 -0.135153 0)
(-0.380002 -0.121114 0)
(-0.0776854 -0.107263 0)
(0.188411 -0.0958813 0)
(0.422341 -0.0843984 2.10775e-20)
(0.630212 -0.0747541 -2.08358e-20)
(0.813578 -0.0662624 0)
(0.975455 -0.05826 0)
(1.11743 -0.0500451 0)
(1.24104 -0.0412004 0)
(1.34614 -0.0308132 -3.9031e-20)
(1.43221 -0.02037 0)
(1.49822 -0.0107516 3.79434e-20)
(1.54475 -0.00289238 -3.73929e-20)
(1.57266 0.00227429 0)
(1.58321 0.00510214 0)
(1.57922 0.00673236 0)
(1.56562 0.00827084 3.51755e-20)
(1.54685 0.00932408 3.46309e-20)
(1.52697 0.00940991 0)
(1.50977 0.00811418 3.35764e-20)
(1.49917 0.0052777 3.30734e-20)
(1.49969 0.000771546 -3.25919e-20)
(1.51775 -0.00577651 0)
(1.56252 -0.0151198 0)
(1.64585 -0.0275955 -3.13471e-20)
(1.7787 -0.0422082 0)
(1.9658 -0.0564667 0)
(2.20228 -0.0673807 0)
(2.47464 -0.0727982 0)
(2.76425 -0.0722968 3.0131e-20)
(3.05199 -0.0672828 2.98903e-20)
(3.32359 -0.0609843 0)
(3.57609 -0.0579224 2.93312e-20)
(3.82296 -0.0610162 0)
(4.08558 -0.0628917 0)
(4.35181 -0.0347549 2.83971e-20)
(4.51775 0.0535026 0)
(4.45528 0.170243 2.77054e-20)
(4.18443 0.201456 0)
(3.86651 0.0496434 0)
(3.7053 -0.227548 2.64165e-20)
(3.90208 -0.40995 0)
(4.49803 -0.209593 2.5941e-20)
(4.7987 0.299446 0)
(4.24429 0.515471 0)
(3.44052 0.222174 0)
(2.92553 -0.140499 -2.40423e-20)
(2.66815 -0.218543 0)
(2.57554 -0.112115 2.30592e-20)
(2.60482 -0.0287591 0)
(2.70754 -0.0124362 0)
(2.82949 -0.0168983 0)
(2.94444 -0.0396933 0)
(3.08468 -0.0361459 0)
(3.1208 0.0054801 0)
(3.11204 0.0212985 0)
(3.07699 -0.0210345 -4.23227e-20)
(3.08285 0.0227458 0)
(2.80177 0.0813063 0)
(0.0678972 0.883135 -3.55277e-20)
(0.153453 0.764895 3.52173e-20)
(0.271231 0.442856 0)
(0.408054 0.217857 -2.30577e-20)
(0.597851 -0.0101496 0)
(0.835096 -0.285099 -1.13231e-20)
(1.10592 -0.558608 2.24277e-20)
(1.39159 -0.79436 2.22534e-20)
(1.65751 -0.951221 0)
(1.8903 -1.01608 2.19396e-20)
(2.08582 -0.996863 1.10682e-20)
(2.24444 -0.919081 0)
(2.36575 -0.811747 0)
(2.45013 -0.696751 0)
(2.50165 -0.58853 0)
(2.52748 -0.49523 1.08905e-20)
(2.53596 -0.421008 0)
(2.53508 -0.367306 -2.16648e-20)
(2.53247 -0.333649 0)
(2.53551 -0.317951 0)
(2.55006 -0.317979 2.19541e-20)
(2.58038 -0.331376 0)
(2.62943 -0.355767 -2.21671e-20)
(2.69965 -0.388894 1.11481e-20)
(2.79322 -0.428605 -1.11845e-20)
(2.91185 -0.472873 1.12131e-20)
(3.05638 -0.519999 1.12316e-20)
(3.22749 -0.568523 0)
(3.42533 -0.617422 0)
(3.64963 -0.665727 -1.1204e-20)
(3.9001 -0.712637 1.11532e-20)
(4.1761 -0.757658 0)
(4.47663 -0.799765 0)
(4.80101 -0.837934 -1.08883e-20)
(5.14776 -0.871774 0)
(5.51429 -0.899028 0)
(5.89897 -0.916807 1.03714e-20)
(6.29826 -0.924372 0)
(6.70611 -0.918274 -9.8425e-21)
(7.11879 -0.895073 1.9197e-20)
(7.52901 -0.856539 0)
(7.92532 -0.795548 0)
(8.3079 -0.702828 3.43963e-20)
(8.66841 -0.589548 3.30674e-20)
(8.98202 -0.452604 3.17788e-20)
(9.25523 -0.266856 -1.50517e-20)
(9.5042 -0.0436948 1.50171e-20)
(9.69772 0.215298 4.30757e-20)
(9.84271 0.546423 -2.76379e-20)
(9.9606 0.911518 -1.39885e-20)
(9.98799 1.25558 0)
(9.87637 1.58778 1.34587e-20)
(9.72563 1.8327 -1.19333e-20)
(9.58682 1.85135 0)
(9.30174 1.63273 0)
(8.78593 1.29632 0)
(8.19098 0.978456 1.1729e-20)
(7.6551 0.752794 0)
(7.18009 0.634587 -2.39938e-20)
(6.74172 0.624438 0)
(6.31717 0.680207 -2.55305e-20)
(5.86341 0.768477 0)
(5.33033 0.885747 2.78634e-20)
(4.68742 1.02152 0)
(3.925 1.16275 -3.07171e-20)
(2.99186 1.30469 1.58006e-20)
(2.03527 1.57771 0)
(1.15549 1.50387 3.38353e-20)
(0.320477 1.05018 1.69583e-20)
(-1.17624 0.414623 1.68821e-20)
(-1.63098 -0.559337 0)
(-2.77641 0.228941 1.69215e-20)
(-4.21924 2.11217 1.53834e-20)
(-5.45083 2.75531 0)
(-6.65191 2.49785 -1.45052e-20)
(-7.41315 1.983 2.54824e-20)
(-8.15257 1.67339 0)
(-8.7622 1.30517 1.11574e-20)
(-9.28416 1.10561 0)
(-9.83608 0.966417 -2.61608e-20)
(-10.3202 0.91257 0)
(-10.8765 0.940228 2.00821e-20)
(-11.3966 0.99058 5.77342e-21)
(-11.9608 1.05328 -4.32098e-21)
(-12.4633 1.04149 -6.36732e-21)
(-12.9105 0.941424 4.17068e-21)
(-13.2261 0.735671 0)
(-13.4131 0.479338 0)
(-13.4866 0.230541 0)
(-13.4924 0.0314365 2.16837e-21)
(-13.4561 -0.119399 1.05886e-21)
(-13.3465 -0.254754 -1.40693e-21)
(-13.1418 -0.394426 0)
(-12.8409 -0.524834 -1.98555e-21)
(-12.4511 -0.620463 7.8999e-22)
(-12.0013 -0.672884 2.00122e-22)
(-11.5371 -0.684681 0)
(-11.0774 -0.671002 0)
(-10.6303 -0.64923 0)
(-10.1962 -0.629765 -3.11976e-21)
(-9.76735 -0.617539 0)
(-9.33583 -0.61335 1.02251e-20)
(-8.89573 -0.615419 1.93859e-20)
(-8.44364 -0.620985 -1.545e-20)
(-7.97771 -0.628 0)
(-7.49774 -0.635314 -1.03341e-20)
(-7.00472 -0.642119 0)
(-6.5006 -0.648196 -2.63199e-20)
(-5.98671 -0.654272 1.4339e-20)
(-5.46202 -0.661554 1.55442e-20)
(-4.92338 -0.67035 0)
(-4.3694 -0.678186 5.33362e-20)
(-3.8036 -0.68078 -3.73583e-20)
(-3.23303 -0.675043 -1.95293e-20)
(-2.66715 -0.658941 0)
(-2.11635 -0.632122 -2.07457e-20)
(-1.59132 -0.595873 -6.34403e-20)
(-1.10175 -0.552407 0)
(-0.653695 -0.503681 -4.32449e-20)
(-0.249468 -0.454252 -4.341e-20)
(0.108233 -0.405799 -4.33886e-20)
(0.419125 -0.359352 0)
(0.691997 -0.315912 0)
(0.928706 -0.277001 0)
(1.13322 -0.24113 2.10423e-20)
(1.31111 -0.209529 2.08156e-20)
(1.4649 -0.18192 0)
(1.59725 -0.158025 4.05892e-20)
(1.70864 -0.137012 4.0062e-20)
(1.79898 -0.11864 0)
(1.86728 -0.10183 3.90066e-20)
(1.91564 -0.0854852 7.69304e-20)
(1.94608 -0.0687302 -3.79248e-20)
(1.96086 -0.0504703 -3.73832e-20)
(1.9634 -0.029886 0)
(1.95762 -0.0102076 0)
(1.94575 0.00483167 0)
(1.92756 0.0136244 -3.51629e-20)
(1.904 0.0167045 3.46078e-20)
(1.87805 0.0152618 6.81566e-20)
(1.85354 0.0101752 -3.35655e-20)
(1.83466 0.00151749 3.30429e-20)
(1.82605 -0.0117174 3.25828e-20)
(1.8335 -0.0317038 0)
(1.86638 -0.0614877 0)
(1.93783 -0.10244 -3.12709e-20)
(2.06085 -0.151239 0)
(2.24213 -0.199839 0)
(2.47803 -0.238914 6.10126e-20)
(2.75531 -0.262012 0)
(3.05481 -0.267386 3.00641e-20)
(3.35578 -0.257616 -2.98751e-20)
(3.64082 -0.239513 0)
(3.90099 -0.224793 2.92789e-20)
(4.14118 -0.224454 0)
(4.38396 -0.23038 0)
(4.66387 -0.203781 -2.83828e-20)
(4.99423 -0.11614 5.60542e-20)
(5.31381 -0.00194327 -2.7683e-20)
(5.53207 0.100383 0)
(5.61893 0.203959 0)
(5.49788 0.224063 2.64153e-20)
(5.11974 0.00339869 0)
(4.79853 -0.261168 2.5859e-20)
(4.98549 -0.197607 0)
(5.58516 0.118748 0)
(6.33419 0.406648 0)
(6.72107 0.526219 2.39656e-20)
(6.24722 0.403388 0)
(5.34623 0.151332 -2.29974e-20)
(4.69422 -0.0404415 0)
(4.40638 -0.120097 0)
(4.37755 -0.105469 4.47165e-20)
(4.42612 -0.0801967 -4.43796e-20)
(4.42955 -0.0568565 0)
(4.40969 -0.0224066 0)
(4.45804 0.0119923 0)
(4.46336 0.0239397 1.26787e-19)
(4.39278 0.0994439 0)
(4.15201 0.137208 -8.21184e-20)
(0.0683518 0.155492 -8.87171e-23)
(0.307532 0.0295308 -4.70446e-20)
(0.644758 -0.30887 0)
(0.997832 -0.642763 4.60501e-20)
(1.34462 -0.943134 0)
(1.65591 -1.19602 0)
(1.89764 -1.3846 -1.2046e-22)
(2.04603 -1.49424 -2.21983e-20)
(2.09362 -1.50319 -2.18474e-20)
(2.06333 -1.40532 -2.19226e-20)
(1.96486 -1.22108 0)
(1.80679 -0.988063 0)
(1.61633 -0.743209 2.1339e-20)
(1.42149 -0.515639 4.26425e-20)
(1.23946 -0.324652 -4.26774e-20)
(1.07683 -0.182538 0)
(0.934244 -0.0927538 -4.29249e-20)
(0.811331 -0.0519703 2.17719e-20)
(0.710996 -0.0525676 0)
(0.636355 -0.0860951 -4.35805e-20)
(0.588699 -0.14434 -2.20715e-20)
(0.570473 -0.220107 4.40813e-20)
(0.584003 -0.307748 2.22858e-20)
(0.630393 -0.403157 0)
(0.71055 -0.503858 -4.4704e-20)
(0.824852 -0.607008 -4.48415e-20)
(0.97257 -0.711494 0)
(1.15327 -0.815133 -4.49647e-20)
(1.36545 -0.91673 0)
(1.60822 -1.01518 -4.48346e-20)
(1.87989 -1.10974 -2.24105e-20)
(2.17938 -1.19964 0)
(2.50561 -1.28372 0)
(2.85736 -1.36095 0)
(3.23328 -1.42985 0)
(3.63198 -1.48698 0)
(4.05087 -1.52946 0)
(4.48643 -1.55465 -4.04863e-20)
(4.93447 -1.55664 5.91942e-20)
(5.38867 -1.53229 0)
(5.84156 -1.48255 0)
(6.28699 -1.39878 0)
(6.72026 -1.2743 -2.88174e-22)
(7.13397 -1.11933 -3.31542e-20)
(7.52065 -0.929393 -6.33235e-20)
(7.87785 -0.696461 6.08175e-20)
(8.2028 -0.440932 2.89894e-20)
(8.49425 -0.148887 -2.85443e-20)
(8.77149 0.221285 7.66089e-22)
(9.05034 0.628771 -2.61e-20)
(9.31156 1.01677 0)
(9.55665 1.39603 -2.47212e-20)
(9.79776 1.70208 8.39275e-22)
(9.96205 1.79131 0)
(9.95688 1.64071 0)
(9.80146 1.37367 2.27704e-20)
(9.57232 1.11609 0)
(9.30847 0.946264 0)
(9.00168 0.867655 -2.15745e-20)
(8.65085 0.853076 -4.62942e-20)
(8.29175 0.936219 2.54108e-20)
(7.8899 1.12726 0)
(7.41861 1.40255 -2.77199e-20)
(6.83653 1.7361 0)
(6.13609 2.14001 -2.70659e-20)
(5.32283 2.49852 -3.1867e-20)
(4.33774 2.69386 6.35164e-20)
(3.14414 2.74052 3.21932e-20)
(1.8564 2.72882 0)
(-0.130664 2.18206 -6.83573e-20)
(-1.38706 0.897395 0)
(-2.96796 1.46854 -9.96707e-20)
(-4.40489 3.43066 -6.2312e-20)
(-5.43752 3.81634 -5.69074e-20)
(-5.95893 3.23531 5.22607e-20)
(-6.33838 2.75274 -7.35009e-20)
(-6.81664 2.30755 0)
(-7.1685 1.8928 0)
(-7.67694 1.69419 3.66897e-20)
(-8.12991 1.52514 5.03205e-20)
(-8.65539 1.4925 0)
(-9.20241 1.51096 -1.32889e-20)
(-9.76587 1.55789 0)
(-10.371 1.5882 2.60266e-20)
(-10.9353 1.51291 1.24333e-21)
(-11.4546 1.3125 -1.31488e-21)
(-11.8428 0.978603 -4.34884e-21)
(-12.1084 0.604724 0)
(-12.2546 0.27302 -1.14144e-21)
(-12.3325 0.0265072 1.15759e-21)
(-12.3682 -0.175494 0)
(-12.3462 -0.386522 0)
(-12.2183 -0.617851 0)
(-11.9589 -0.842372 3.2186e-21)
(-11.5931 -1.01445 0)
(-11.1712 -1.10282 0)
(-10.7415 -1.11498 0)
(-10.3268 -1.08616 0)
(-9.93179 -1.04707 0)
(-9.55013 -1.01678 -4.72081e-21)
(-9.1726 -1.00326 0)
(-8.7904 -1.00603 -1.02269e-20)
(-8.3955 -1.02069 -1.27775e-20)
(-7.9829 -1.04108 1.54502e-20)
(-7.54986 -1.0621 0)
(-7.09419 -1.08108 2.09472e-20)
(-6.61577 -1.0967 0)
(-6.11759 -1.10869 2.63152e-20)
(-5.60358 -1.11923 -2.88456e-20)
(-5.07508 -1.13187 -9.31843e-20)
(-4.52863 -1.14829 0)
(-3.9596 -1.16431 -1.06092e-19)
(-3.36794 -1.17112 -3.69543e-20)
(-2.75896 -1.16225 0)
(-2.14396 -1.13373 -8.03519e-20)
(-1.53528 -1.08464 -8.26142e-20)
(-0.94793 -1.01694 1.26646e-19)
(-0.395285 -0.935614 0)
(0.106669 -0.846522 4.32428e-20)
(0.55304 -0.753429 4.33721e-20)
(0.9455 -0.664565 1.29899e-19)
(1.28075 -0.578688 0)
(1.5638 -0.500792 0)
(1.79866 -0.432637 0)
(1.99102 -0.374073 4.19807e-20)
(2.1492 -0.3243 0)
(2.28157 -0.280894 0)
(2.39559 -0.240624 -4.05455e-20)
(2.49602 -0.200497 -4.00205e-20)
(2.58333 -0.158819 0)
(2.65186 -0.116313 0)
(2.69316 -0.0758282 -7.68593e-20)
(2.7012 -0.0396928 0)
(2.67704 -0.0112076 7.4701e-20)
(2.62597 0.00598443 7.35873e-20)
(2.55643 0.0172697 0)
(2.47965 0.0262103 0)
(2.4052 0.0331863 -7.02643e-20)
(2.33814 0.0382103 -1.60501e-23)
(2.27973 0.0391403 -1.99953e-23)
(2.22991 0.0339259 0)
(2.1889 0.0218354 -1.32129e-19)
(2.15827 0.00137748 0)
(2.14147 -0.0315672 0)
(2.14621 -0.0816592 0)
(2.18584 -0.151142 6.25862e-20)
(2.27525 -0.23465 0)
(2.42326 -0.318229 -1.22622e-19)
(2.62798 -0.38546 -6.09885e-20)
(2.87798 -0.424906 0)
(3.15611 -0.433191 -6.01566e-20)
(3.44159 -0.414525 0)
(3.71189 -0.380272 0)
(3.94837 -0.348856 -1.75627e-19)
(4.1459 -0.341908 1.15827e-19)
(4.32405 -0.366679 0)
(4.53549 -0.384192 1.13288e-19)
(4.84203 -0.313411 -5.60439e-20)
(5.22045 -0.130006 0)
(5.51696 0.0584779 0)
(5.63094 0.132135 0)
(5.66995 0.078663 -1.58523e-19)
(5.73437 -0.052231 0)
(5.72622 -0.165844 -5.17505e-20)
(5.7068 -0.167126 0)
(5.96698 -0.169441 0)
(6.6005 -0.208323 0)
(7.39201 -0.00792531 0)
(7.84729 0.396629 0)
(7.61026 0.611999 0)
(6.81606 0.435749 -9.0161e-20)
(5.93794 0.130311 0)
(5.374 -0.0252331 -4.46742e-20)
(5.10455 -0.0509687 1.33149e-19)
(4.93574 -0.0404618 0)
(4.83924 -0.0153477 0)
(4.83295 0.00981735 -8.56472e-20)
(4.81888 0.0166948 -8.44798e-20)
(4.76692 0.13333 8.32025e-20)
(4.60616 0.270474 8.20772e-20)
(0.073977 0.0217787 7.12876e-20)
(0.491434 -0.625504 7.05576e-20)
(0.869692 -1.08959 4.64242e-20)
(1.15232 -1.37883 2.28357e-20)
(1.32117 -1.53284 0)
(1.35484 -1.55895 -4.47369e-20)
(1.25199 -1.45353 2.19317e-20)
(1.00625 -1.2488 0)
(0.648178 -0.948731 2.19504e-20)
(0.292104 -0.598594 0)
(-0.00740026 -0.287979 -4.28377e-20)
(-0.281963 -0.0851747 0)
(-0.534386 0.0157268 -2.14184e-20)
(-0.760794 0.0591698 -4.27421e-20)
(-0.956185 0.0766714 4.27254e-20)
(-1.12382 0.0795617 0)
(-1.26495 0.0678559 4.28941e-20)
(-1.37945 0.0381166 0)
(-1.46636 -0.0130577 0)
(-1.52483 -0.0874207 4.34896e-20)
(-1.54776 -0.184167 0)
(-1.53248 -0.301991 -6.36007e-22)
(-1.47919 -0.437528 0)
(-1.3876 -0.586343 0)
(-1.25681 -0.742695 5.84089e-22)
(-1.08894 -0.902016 4.48013e-20)
(-0.884899 -1.06067 4.43908e-20)
(-0.647593 -1.21581 4.5005e-20)
(-0.38097 -1.36551 0)
(-0.085519 -1.50834 8.94707e-20)
(0.235135 -1.64449 0)
(0.579892 -1.77339 4.40978e-20)
(0.947443 -1.89432 0)
(1.33788 -2.00568 0)
(1.74956 -2.10697 -4.27215e-20)
(2.18211 -2.19411 0)
(2.63368 -2.26112 4.12132e-20)
(3.09982 -2.30198 3.07767e-22)
(3.57466 -2.31119 -7.86798e-20)
(4.05213 -2.2839 7.60002e-20)
(4.52492 -2.21653 0)
(4.98476 -2.10712 0)
(5.42624 -1.95553 3.35941e-20)
(5.84605 -1.76351 0)
(6.24175 -1.5309 3.15285e-20)
(6.61599 -1.25671 -3.02399e-20)
(6.97013 -0.944661 -2.90478e-20)
(7.29685 -0.594677 0)
(7.59897 -0.204678 2.70157e-20)
(7.89287 0.201993 2.61798e-20)
(8.17549 0.594851 -4.94614e-20)
(8.44254 0.960481 2.47931e-20)
(8.71615 1.26222 2.4162e-20)
(8.99375 1.44857 0)
(9.21502 1.51385 0)
(9.32952 1.49517 -2.2787e-20)
(9.34264 1.43136 0)
(9.28472 1.38116 0)
(9.16794 1.40969 4.54186e-20)
(8.94976 1.49122 4.62355e-20)
(8.66611 1.64139 0)
(8.34255 1.90299 0)
(7.94174 2.24776 0)
(7.47582 2.65537 0)
(6.88012 3.08437 5.74472e-20)
(6.07725 3.57177 -5.56761e-20)
(5.14804 4.09341 -6.33017e-20)
(3.95999 4.46232 -1.27606e-19)
(2.8225 4.58737 0)
(1.11615 4.20952 2.41948e-21)
(-0.301513 2.95622 0)
(-2.05032 3.02442 6.67067e-20)
(-3.30828 4.56418 1.95772e-21)
(-4.09056 4.59066 5.69739e-20)
(-4.41301 3.70917 -5.23642e-20)
(-4.81021 3.223 2.39631e-21)
(-5.26458 2.77864 0)
(-5.57103 2.38772 -3.84717e-20)
(-6.13923 2.24674 -3.6761e-20)
(-6.56424 2.09249 -6.46126e-20)
(-7.15211 2.10084 0)
(-7.70908 2.14669 2.40253e-20)
(-8.31598 2.21806 0)
(-8.93716 2.24172 -3.24965e-20)
(-9.52248 2.11045 1.2514e-20)