/*--------------------------------*- C++ -*----------------------------------*\
| =========                 |                                                 |
| \\      /  F ield         | OpenFOAM: The Open Source CFD Toolbox           |
|  \\    /   O peration     | Version:  2112                                  |
|   \\  /    A nd           | Website:  www.openfoam.com                      |
|    \\/     M anipulation  |                                                 |
\*---------------------------------------------------------------------------*/
FoamFile
{
    version     2.0;
    format      ascii;
    arch        "LSB;label=32;scalar=64";
    class       volScalarField;
    location    "0.29";
    object      omegaU;
}
// * * * * * * * * * * * * * * * * * * * * * * * * * * * * * * * * * * * * * //

dimensions      [0 0 -1 0 0 0 0];

internalField   nonuniform List<scalar> 
12225
(
55396.8
78423.2
85937.8
87139.8
85923.6
83814.2
81423.4
79028.4
76770.3
74718.4
72895.9
71295.6
69892.3
68654.1
67546.4
66564.7
65594.3
64456.3
3652.13
8217.78
12314.5
15695.5
18339.6
20346.6
21844.7
22946
23738.5
24292.9
24667.5
24911.5
25065.7
25164.6
25235.5
25305.1
25458.4
25720.8
280.855
726.202
1380.54
2180.44
3053.14
3925.52
4743.38
5478.32
6118.53
6667.22
7137.73
7548.1
7916.85
8260.58
8591.87
8922.43
9259.95
9577.48
113.541
156.497
227.808
331.875
470.538
641.699
837.896
1046.17
1256.1
1460.02
1654.39
1837.98
2011.46
2176.63
2335.51
2489.83
2640.14
2778.44
100.475
105.683
115.107
129.973
151.063
178.948
213.606
253.713
297.798
344.402
391.762
438.989
485.719
532.071
577.992
623.311
667.839
709.589
99.1459
99.7552
101.128
103.555
107.169
112.086
118.381
126.016
134.866
144.763
155.4
166.575
178.141
189.846
201.652
213.493
225.07
235.91
99.0015
99.0313
99.1858
99.5358
100.127
100.985
102.143
103.615
105.401
107.492
109.868
112.502
115.355
118.334
121.387
124.461
127.449
130.251
98.9774
98.9337
98.916
98.9371
99.0097
99.1397
99.3323
99.593
99.9249
100.33
100.809
101.361
101.98
102.654
103.364
104.091
104.814
105.515
98.9671
98.9087
98.8634
98.8338
98.8223
98.8288
98.8517
98.8906
98.9453
99.0159
99.1024
99.2054
99.3252
99.4614
99.6122
99.7753
99.9477
100.124
98.9601
98.8946
98.8402
98.7979
98.7684
98.7504
98.7412
98.7386
98.7414
98.7488
98.7605
98.7769
98.7987
98.8268
98.862
98.9048
98.9547
99.0098
98.955
98.8842
98.8239
98.7745
98.7361
98.7079
98.6878
98.6734
98.6629
98.6554
98.6504
98.6478
98.6483
98.6526
98.6617
98.6757
98.6947
98.717
98.9514
98.8768
98.8122
98.7577
98.7133
98.6781
98.6506
98.629
98.6119
98.598
98.5867
98.5777
98.5713
98.5676
98.5672
98.5703
98.5769
98.5857
98.9487
98.8709
98.8026
98.744
98.6945
98.6536
98.6199
98.592
98.5688
98.5492
98.5328
98.5191
98.508
98.4994
98.4934
98.4897
98.4883
98.4885
98.9463
98.8656
98.7939
98.7313
98.6772
98.631
98.5915
98.5576
98.5283
98.5028
98.4806
98.4613
98.4449
98.431
98.4196
98.4102
98.4024
98.3956
98.9443
98.8612
98.7865
98.7202
98.6619
98.6108
98.566
98.5266
98.4916
98.4603
98.4323
98.4072
98.3847
98.3646
98.3468
98.3309
98.3165
98.3031
98.9428
98.8578
98.7805
98.7111
98.649
98.5937
98.5443
98.5
98.4598
98.4232
98.3897
98.3589
98.3304
98.3041
98.2797
98.2569
98.2355
98.2153
98.9418
98.8554
98.7762
98.7043
98.6393
98.5805
98.5273
98.4787
98.4341
98.3928
98.3543
98.3183
98.2844
98.2524
98.2221
98.1931
98.1655
98.1391
98.9414
98.8543
98.7739
98.7004
98.6333
98.5719
98.5157
98.4638
98.4155
98.3703
98.3277
98.2873
98.2487
98.2119
98.1765
98.1424
98.1096
98.078
98.9418
98.8548
98.7743
98.7002
98.6321
98.5694
98.5114
98.4574
98.4068
98.3589
98.3133
98.2696
98.2275
98.187
98.1477
98.1096
98.0727
98.0371
98.9429
98.857
98.7774
98.704
98.6363
98.5739
98.5159
98.4617
98.4105
98.3619
98.3152
98.2703
98.2267
98.1844
98.1431
98.103
98.0639
98.0259
98.9445
98.8602
98.7821
98.7101
98.6438
98.5825
98.5257
98.4724
98.4222
98.3743
98.3283
98.2837
98.2403
98.198
98.1565
98.116
98.0763
98.0377
98.9467
98.8647
98.7887
98.7187
98.6543
98.5951
98.5404
98.4894
98.4415
98.396
98.3524
98.3102
98.2692
98.2291
98.1898
98.1513
98.1137
98.077
98.9498
98.8708
98.7975
98.7302
98.6689
98.6135
98.5634
98.5182
98.4773
98.4403
98.4067
98.3763
98.3487
98.324
98.3019
98.2825
98.2658
98.2521
98.9545
98.8798
98.8118
98.7524
98.7043
98.6701
98.6518
98.6515
98.671
98.7121
98.7756
98.862
98.9714
99.1032
99.2566
99.4306
99.624
99.8361
98.9643
98.9111
98.8934
98.9359
99.0651
99.3065
99.6826
100.212
100.907
101.774
102.812
104.013
105.364
106.848
108.45
110.154
111.945
113.81
99.0656
99.3666
100.183
101.743
104.148
107.517
111.956
117.526
124.233
132.028
140.816
150.47
160.799
171.639
182.875
194.415
206.177
218.08
101.221
107.347
119.981
140.309
168.275
203.453
245.953
295.441
351.149
411.96
476.55
543.541
611.373
678.949
745.677
811.202
875.235
937.579
148.98
256.956
440.317
689.321
995.418
1336.15
1698.31
2069.47
2438.4
2795.7
3134.27
3449.42
3739.12
4002.94
4241.6
4457.12
4652.32
4831.11
1566.56
3736.24
5966.75
8050.9
9884.7
11451
12766.2
13861.9
14770.6
15521.5
16139.5
16645.2
17056.4
17388
17653
17862.9
18028.7
18160.1
36481.6
55176.1
63362.6
66369.6
66994
66541.8
65600.1
64439.1
63190.8
61924.9
60682
59487.6
58358.1
57303.4
56328.1
55433.2
54613.8
53868.1
187.479
186.527
184.867
182.798
180.686
178.835
177.498
176.886
177.191
178.615
181.376
185.724
191.965
200.596
212.545
229.014
250.808
277.878
309.198
343.049
377.829
412.643
447.262
481.769
516.304
550.987
585.918
621.191
656.886
693.071
729.802
767.121
805.066
843.672
882.974
923.008
963.816
1005.44
1047.91
1091.28
1135.58
1180.84
1227.08
1274.34
1322.61
1371.91
1422.25
1473.62
1526
1579.39
1633.77
1689.1
1745.35
1802.48
1860.45
1919.19
1978.66
2038.78
2099.48
2160.7
2222.33
2284.31
2346.53
2408.91
2471.35
2533.76
2596.02
2658.05
2719.74
2781
2841.73
2901.83
2961.22
3019.8
3077.51
3134.26
3189.99
3244.63
3298.13
3350.44
3401.52
3451.33
3499.84
3547.03
3592.87
3637.35
3680.44
3722.13
3762.4
3801.24
3838.65
3874.63
3909.18
3942.32
3974.07
4004.45
4033.51
4061.28
4087.81
4113.13
4137.29
4160.35
4182.34
4203.31
4223.3
4242.35
4260.49
4277.76
4294.18
4309.76
4324.51
4338.43
4351.5
4363.71
4375.01
4385.35
4394.65
4402.83
4409.87
4415.7
4420.32
4423.83
4426.13
4427.13
4426.79
4425.02
4421.77
4416.94
4410.45
4402.23
4392.18
4380.2
4366.21
4350.11
4331.79
4311.14
4288.07
4262.45
4234.17
4203.1
4169.12
4132.07
4091.82
4048.18
4000.93
3949.85
3894.62
3834.92
3770.41
3700.73
3625.58
3544.67
3457.75
3364.59
3264.98
3158.76
3045.79
2926.04
2799.5
2666.3
2526.67
2380.98
2229.84
2074.05
1914.72
1753.25
1591.48
1431.68
1276.59
1129.47
994.034
874.336
774.692
701.438
657.113
640.647
655.759
701.216
773.441
861.819
193.277
191.466
188.559
184.987
181.304
177.934
175.182
173.253
172.292
172.42
173.746
176.373
180.401
185.961
193.322
203.004
215.677
231.888
251.769
274.859
300.212
326.747
353.577
380.138
406.158
431.564
456.393
480.735
504.697
528.382
551.883
575.282
598.648
622.045
645.524
669.133
692.91
716.888
741.089
765.528
790.212
815.142
840.311
865.705
891.306
917.093
943.038
969.109
995.274
1021.49
1047.73
1073.94
1100.07
1126.09
1151.93
1177.57
1202.93
1227.98
1252.66
1276.94
1300.75
1324.06
1346.83
1369.01
1390.58
1411.49
1431.73
1451.27
1470.1
1488.2
1505.56
1522.18
1538.07
1553.23
1567.69
1581.46
1594.56
1607.04
1618.94
1630.28
1641.14
1651.58
1661.67
1671.5
1681.17
1690.79
1700.47
1710.32
1720.42
1730.85
1741.61
1752.72
1764.12
1775.77
1787.57
1799.46
1811.34
1823.15
1834.79
1846.22
1857.38
1868.22
1878.7
1888.78
1898.44
1907.65
1916.38
1924.61
1932.31
1939.45
1945.99
1951.88
1957.07
1961.49
1965.08
1967.75
1969.4
1969.94
1969.31
1967.72
1965.18
1961.61
1956.98
1951.25
1944.4
1936.41
1927.25
1916.9
1905.34
1892.55
1878.52
1863.24
1846.71
1828.97
1810.02
1789.92
1768.73
1746.52
1723.41
1699.54
1675.06
1650.2
1625.19
1600.31
1575.82
1551.99
1528.95
1506.71
1485.06
1463.6
1441.85
1419.37
1395.86
1371.16
1345.19
1317.91
1289.27
1259.25
1227.83
1195
1160.77
1125.19
1088.34
1050.35
1011.43
971.871
932.066
892.533
853.925
817.036
782.769
752.097
726.116
706.748
696.51
697.233
709.662
731.342
761.808
799.803
201.326
198.055
193.402
187.868
182.262
177.19
173.038
170.025
168.279
167.876
168.868
171.278
175.095
180.282
186.846
194.958
205.008
217.492
232.739
250.652
270.645
291.852
313.432
334.764
355.498
375.498
394.768
413.383
431.451
449.077
466.36
483.386
500.225
516.938
533.572
550.166
566.748
583.336
599.941
616.562
633.194
649.825
666.435
683.002
699.497
715.892
732.152
748.243
764.128
779.769
795.128
810.165
824.841
839.12
852.963
866.335
879.203
891.536
903.307
914.492
925.069
935.023
944.341
953.016
961.043
968.425
975.168
981.284
986.787
991.698
996.042
999.849
1003.15
1005.98
1008.39
1010.4
1012.08
1013.47
1014.61
1015.57
1016.4
1017.16
1017.91
1018.7
1019.58
1020.6
1021.8
1023.2
1024.8
1026.6
1028.58
1030.69
1032.9
1035.16
1037.4
1039.6
1041.68
1043.61
1045.36
1046.89
1048.17
1049.18
1049.92
1050.37
1050.53
1050.4
1049.99
1049.29
1048.32
1047.08
1045.61
1043.92
1042.03
1039.97
1037.8
1035.54
1033.24
1031.12
1029.32
1027.59
1025.89
1024.18
1022.42
1020.56
1018.55
1016.36
1013.95
1011.3
1008.41
1005.28
1001.89
998.271
994.416
990.341
986.062
981.601
976.982
972.24
967.411
962.541
957.682
952.892
948.229
943.752
939.507
935.525
931.809
928.325
925.005
921.753
918.471
915.07
911.491
907.693
903.651
899.341
894.74
889.825
884.572
878.962
872.98
866.621
859.888
852.798
845.392
837.75
829.98
822.225
814.669
807.576
801.241
795.931
792.04
790.087
791.02
795.479
802.872
812.645
824.663
839.245
208.359
203.24
196.793
189.398
182.082
175.608
170.411
166.69
164.518
163.919
164.899
167.43
171.444
176.825
183.467
191.377
200.752
211.932
225.196
240.511
257.441
275.289
293.35
311.087
328.188
344.538
360.148
375.101
389.504
403.463
417.073
430.413
443.543
456.513
469.355
482.094
494.744
507.308
519.785
532.164
544.43
556.561
568.535
580.323
591.896
603.222
614.269
625.005
635.395
645.408
655.011
664.176
672.873
681.075
688.761
695.91
702.506
708.535
713.99
718.866
723.164
726.888
730.047
732.655
734.73
736.294
737.371
737.991
738.187
737.991
737.442
736.578
735.438
734.063
732.493
730.768
728.928
727.009
725.049
723.081
721.135
719.241
717.422
715.7
714.09
712.604
711.249
710.028
708.94
707.98
707.142
706.419
705.8
705.277
704.841
704.484
704.199
703.977
703.815
703.708
703.652
703.647
703.691
703.784
703.928
704.123
704.374
704.682
705.053
705.494
706.011
706.615
707.318
708.134
709.08
710.222
711.618
713.168
714.828
716.574
718.394
720.278
722.212
724.186
726.19
728.215
730.257
732.316
734.391
736.486
738.604
740.752
742.936
745.163
747.444
749.788
752.208
754.717
757.33
760.062
762.93
765.948
769.131
772.488
776.026
779.743
783.631
787.674
791.852
796.14
800.515
804.956
809.446
813.971
818.519
823.079
827.638
832.178
836.681
841.13
845.514
849.825
854.053
858.185
862.204
866.139
870.023
873.877
877.651
881.461
885.434
889.401
893.509
897.592
901.554
905.991
910.811
915.887
920.875
925.578
213.587
206.082
197.962
189.077
180.533
173.184
167.47
163.527
161.351
160.899
162.13
164.991
169.385
175.158
182.138
190.224
199.47
210.075
222.231
235.909
250.769
266.256
281.794
296.944
311.452
325.228
338.3
350.751
362.688
374.213
385.412
396.355
407.09
417.653
428.064
438.334
448.464
458.448
468.275
477.927
487.384
496.622
505.616
514.337
522.759
530.854
538.594
545.953
552.905
559.428
565.5
571.102
576.221
580.843
584.962
588.573
591.677
594.278
596.387
598.017
599.185
599.913
600.228
600.156
599.73
598.984
597.954
596.676
595.19
593.533
591.745
589.862
587.921
585.956
584
582.082
580.228
578.462
576.805
575.273
573.88
572.637
571.551
570.628
569.87
569.279
568.854
568.593
568.493
568.552
568.767
569.133
569.648
570.307
571.107
572.042
573.111
574.307
575.629
577.074
578.638
580.32
582.118
584.033
586.062
588.207
590.469
592.849
595.348
597.97
600.72
603.603
606.623
609.798
613.146
616.63
620.226
623.921
627.71
631.59
635.56
639.621
643.773
648.015
652.35
656.778
661.304
665.93
670.662
675.503
680.459
685.537
690.741
696.079
701.557
707.183
712.963
718.904
725.014
731.299
737.766
744.42
751.263
758.297
765.521
772.932
780.524
788.29
796.224
804.318
812.56
820.943
829.454
838.082
846.816
855.65
864.571
873.564
882.604
891.658
900.709
909.752
918.777
927.758
936.577
945.261
953.841
962.365
970.482
978.34
986.211
993.498
1000.24
1006.13
1010.99
1015.32
1019.25
1022.77
1025.45
1026.63
217.207
206.713
197.096
187.184
177.961
170.276
164.523
160.759
158.893
158.82
160.459
163.741
168.557
174.735
182.062
190.367
199.605
209.87
221.273
233.774
247.092
260.784
274.389
287.558
300.093
311.935
323.121
333.735
343.878
353.643
363.109
372.33
381.347
390.181
398.843
407.335
415.648
423.771
431.687
439.375
446.815
453.984
460.857
467.413
473.629
479.484
484.96
490.038
494.705
498.948
502.761
506.138
509.078
511.584
513.664
515.33
516.598
517.487
518.022
518.23
518.14
517.787
517.205
516.43
515.499
514.449
513.319
512.143
510.958
509.796
508.688
507.663
506.746
505.959
505.319
504.843
504.542
504.424
504.495
504.756
505.208
505.848
506.673
507.678
508.857
510.204
511.712
513.376
515.189
517.145
519.238
521.464
523.817
526.292
528.884
531.589
534.401
537.318
540.337
543.455
546.672
549.987
553.4
556.912
560.524
564.239
568.059
571.987
576.026
580.182
584.459
588.865
593.389
598.027
602.772
607.622
612.576
617.636
622.803
628.082
633.475
638.986
644.618
650.376
656.264
662.285
668.444
674.745
681.195
687.797
694.556
701.479
708.57
715.834
723.275
730.899
738.711
746.713
754.91
763.307
771.905
780.708
789.716
798.927
808.341
817.953
827.757
837.75
847.929
858.291
868.828
879.531
890.389
901.382
912.482
923.693
935.008
946.414
957.886
969.356
980.76
992.127
1003.46
1014.81
1025.83
1036.55
1047.06
1057.66
1067.48
1076.79
1085.67
1093.96
1101.55
1108.1
1113.42
1117.83
1121.5
1124.51
1126.42
1126.49
220.339
205.822
194.885
184.423
175.059
167.511
162.091
158.773
157.398
157.812
159.914
163.625
168.83
175.341
182.914
191.333
200.491
210.414
221.162
232.683
244.741
256.977
269.023
280.604
291.572
301.891
311.605
320.796
329.556
337.968
346.097
353.99
361.677
369.17
376.474
383.584
390.487
397.169
403.614
409.801
415.713
421.33
426.635
431.612
436.247
440.527
444.445
447.994
451.171
453.978
456.419
458.503
460.242
461.652
462.753
463.569
464.127
464.458
464.594
464.569
464.42
464.181
463.89
463.582
463.29
463.047
462.883
462.827
462.903
463.133
463.536
464.127
464.917
465.915
467.125
468.551
470.189
472.038
474.091
476.34
478.778
481.394
484.178
487.12
490.21
493.439
496.796
500.275
503.866
507.564
511.361
515.252
519.231
523.293
527.433
531.646
535.929
540.278
544.694
549.176
553.725
558.343
563.032
567.796
572.638
577.563
582.575
587.679
592.882
598.193
603.589
609.059
614.622
620.285
626.052
631.927
637.915
644.022
650.252
656.609
663.1
669.728
676.499
683.417
690.486
697.711
705.097
712.647
720.368
728.263
736.337
744.595
753.041
761.679
770.511
779.543
788.775
798.21
807.849
817.697
827.755
838.027
848.512
859.21
870.119
881.236
892.549
904.046
915.727
927.596
939.646
951.873
964.27
976.815
989.41
1002.08
1014.84
1027.68
1040.62
1053.57
1066.28
1078.88
1091.38
1104.06
1116.24
1127.88
1139.16
1150.1
1160.47
1170.28
1179.5
1188.05
1195.83
1202.55
1208.03
1212.45
1215.94
1218.6
1220.06
1219.66
224.607
204.252
192.092
181.5
172.443
165.389
160.537
157.793
156.959
157.861
160.393
164.473
169.977
176.698
184.37
192.747
201.694
211.204
221.304
231.935
242.898
253.895
264.633
274.894
284.57
293.643
302.16
310.198
317.839
325.155
332.202
339.017
345.622
352.025
358.227
364.218
369.989
375.525
380.812
385.834
390.579
395.034
399.188
403.035
406.569
409.789
412.697
415.297
417.598
419.612
421.354
422.843
424.101
425.153
426.027
426.753
427.365
427.895
428.379
428.851
429.345
429.894
430.527
431.274
432.16
433.207
434.436
435.864
437.504
439.366
441.458
443.783
446.342
449.134
452.155
455.397
458.852
462.51
466.36
470.39
474.586
478.935
483.426
488.045
492.781
497.625
502.565
507.593
512.701
517.88
523.126
528.431
533.79
539.199
544.651
550.143
555.671
561.233
566.83
572.464
578.139
583.857
589.624
595.446
601.329
607.278
613.3
619.403
625.577
631.779
638.035
644.37
650.796
657.323
663.957
670.707
677.579
684.58
691.715
698.991
706.412
713.985
721.715
729.605
737.659
745.883
754.279
762.852
771.606
780.546
789.677
799.002
808.526
818.251
828.181
838.319
848.667
859.222
869.983
880.949
892.127
903.521
915.131
926.96
939.01
951.282
963.764
976.397
989.192
1002.16
1015.3
1028.61
1042.11
1055.85
1069.5
1083.16
1096.86
1110.59
1124.48
1138.52
1152.01
1165.29
1178.37
1191.25
1203.74
1215.77
1227.33
1238.39
1248.86
1258.71
1267.87
1276.27
1283.8
1290.29
1295.56
1299.71
1302.79
1304.94
1305.8
1304.9
231.835
203.188
189.523
179.036
170.574
164.223
160.041
157.887
157.552
158.872
161.747
166.092
171.768
178.548
186.15
194.32
202.926
211.947
221.376
231.145
241.111
251.025
260.633
269.766
278.346
286.369
293.881
300.954
307.658
314.058
320.2
326.114
331.817
337.316
342.609
347.689
352.548
357.175
361.561
365.696
369.575
373.191
376.545
379.635
382.467
385.048
387.388
389.502
391.408
393.124
394.673
396.081
397.373
398.579
399.729
400.855
401.988
403.163
404.409
405.757
407.235
408.868
410.678
412.685
414.904
417.349
420.03
422.955
426.129
429.553
433.228
437.149
441.312
445.709
450.33
455.166
460.204
465.431
470.834
476.398
482.108
487.951
493.914
499.983
506.147
512.395
518.718
525.106
531.551
538.045
544.581
551.154
557.758
564.388
571.037
577.701
584.376
591.06
597.754
604.462
611.19
617.943
624.728
631.552
638.424
645.35
652.347
659.329
666.296
673.304
680.374
687.52
694.757
702.094
709.543
717.114
724.813
732.649
740.628
748.756
757.04
765.485
774.095
782.877
791.834
800.969
810.283
819.778
829.458
839.328
849.394
859.659
870.127
880.801
891.686
902.787
914.108
925.648
937.389
949.313
961.439
973.773
986.318
999.076
1012.06
1025.28
1038.78
1052.37
1066.05
1079.87
1093.84
1107.94
1122.2
1136.97
1151.43
1165.77
1180.07
1194.34
1208.56
1222.67
1236.52
1250.11
1263.4
1276.35
1288.87
1300.89
1312.36
1323.22
1333.41
1342.88
1351.56
1359.38
1366.26
1372.07
1376.67
1380.11
1382.41
1383.7
1383.65
1381.97
243.924
203.789
187.915
177.485
169.708
164.117
160.593
158.964
159.037
160.669
163.773
168.255
173.958
180.636
188.001
195.813
203.958
212.429
221.177
230.096
239.128
248.073
256.687
264.837
272.469
279.587
286.238
292.485
298.391
304.011
309.385
314.54
319.489
324.239
328.79
333.139
337.28
341.21
344.923
348.419
351.696
354.759
357.612
360.264
362.725
365.011
367.14
369.131
371.008
372.793
374.513
376.194
377.863
379.547
381.276
383.079
384.984
387.018
389.209
391.58
394.151
396.942
399.965
403.233
406.752
410.53
414.572
418.878
423.449
428.282
433.372
438.713
444.295
450.108
456.142
462.383
468.818
475.433
482.213
489.142
496.206
503.389
510.678
518.062
525.528
533.068
540.671
548.328
556.032
563.773
571.545
579.344
587.165
595.002
602.848
610.696
618.54
626.377
634.208
642.036
649.871
657.718
665.587
673.488
681.442
689.377
697.21
705.024
712.85
720.711
728.627
736.614
744.686
752.857
761.142
769.552
778.094
786.778
795.611
804.599
813.748
823.065
832.554
842.222
852.075
862.116
872.347
882.754
893.336
904.106
915.07
926.23
937.59
949.153
960.923
972.91
985.126
997.595
1010.28
1023.08
1036.05
1049.21
1062.57
1076.11
1089.85
1103.81
1118.25
1132.67
1147.05
1161.52
1176.08
1190.73
1205.46
1220.29
1235.05
1249.72
1264.3
1278.76
1293.07
1307.16
1320.98
1334.47
1347.58
1360.25
1372.41
1383.99
1394.92
1405.13
1414.56
1423.16
1430.88
1437.62
1443.34
1447.93
1451.34
1453.56
1454.61
1454.61
1453.23
1450.37
262.94
207.13
187.882
177.144
169.934
165.021
162.06
160.845
161.208
163.034
166.242
170.726
176.306
182.723
189.699
197.021
204.598
212.425
220.476
228.654
236.835
244.872
252.597
259.879
266.68
273.011
278.916
284.451
289.673
294.629
299.355
303.876
308.205
312.352
316.317
320.104
323.711
327.139
330.392
333.473
336.388
339.147
341.76
344.241
346.606
348.875
351.069
353.212
355.328
357.442
359.579
361.764
364.019
366.369
368.84
371.456
374.24
377.216
380.404
383.823
387.49
391.416
395.608
400.073
404.813
409.832
415.131
420.711
426.567
432.697
439.092
445.745
452.644
459.778
467.133
474.696
482.452
490.385
498.478
506.714
515.077
523.552
532.125
540.784
549.521
558.325
567.19
576.106
585.067
594.066
603.097
612.157
621.245
630.356
639.486
648.628
657.772
666.908
676.034
685.152
694.273
703.4
712.552
721.684
730.661
739.529
748.342
757.13
765.918
774.728
783.584
792.504
801.496
810.581
819.778
829.099
838.554
848.152
857.9
867.805
877.871
888.106
898.513
909.1
919.876
930.853
942.05
953.416
964.918
976.59
988.444
1000.48
1012.71
1025.12
1037.72
1050.52
1063.53
1076.86
1090.52
1104.09
1117.79
1131.65
1145.67
1159.84
1174.16
1188.62
1203.28
1218.01
1232.78
1247.6
1262.45
1277.32
1292.19
1307.02
1321.77
1336.38
1350.83
1365.08
1379.07
1392.76
1406.08
1418.98
1431.4
1443.27
1454.53
1465.1
1474.92
1483.9
1492
1499.15
1505.28
1510.35
1514.31
1517.12
1518.74
1519.18
1518.44
1516.65
1513.49
1509.01
290.95
214.168
189.904
178.188
171.232
166.804
164.249
163.309
163.836
165.733
168.919
173.267
178.578
184.592
191.055
197.794
204.746
211.907
219.253
226.696
234.104
241.335
248.251
254.759
260.829
266.474
271.735
276.661
281.303
285.704
289.898
293.908
297.75
301.436
304.971
308.362
311.612
314.73
317.721
320.597
323.368
326.047
328.647
331.185
333.68
336.153
338.628
341.128
343.679
346.304
349.027
351.865
354.839
357.968
361.275
364.781
368.504
372.465
376.68
381.164
385.932
390.99
396.343
401.992
407.939
414.186
420.736
427.588
434.739
442.183
449.913
457.917
466.184
474.698
483.445
492.406
501.563
510.895
520.38
530.001
539.737
549.572
559.491
569.483
579.54
589.656
599.826
610.043
620.304
630.607
640.951
651.338
661.771
672.254
682.793
693.392
704.047
714.731
725.434
736.137
746.871
757.578
768.034
778.237
788.313
798.31
808.244
818.13
827.993
837.864
847.78
857.773
867.805
877.913
888.124
898.454
908.915
919.515
930.259
941.154
952.204
963.412
974.783
986.32
998.032
1009.94
1022.15
1034.55
1046.96
1059.51
1072.21
1085.07
1098.1
1111.28
1124.62
1138.11
1151.77
1165.6
1179.61
1193.7
1207.9
1222.2
1236.61
1251.12
1265.72
1280.39
1295.13
1309.9
1324.68
1339.45
1354.17
1368.84
1383.4
1397.84
1412.1
1426.15
1439.93
1453.4
1466.51
1479.2
1491.42
1503.1
1514.18
1524.6
1534.28
1543.17
1551.18
1558.25
1564.32
1569.33
1573.21
1575.95
1577.52
1577.93
1577.17
1575.26
1572.19
1568.1
1562.7
1556.13
329.947
225.69
194.314
180.692
173.521
169.299
166.953
166.133
166.691
168.535
171.569
175.647
180.556
186.051
191.915
198.02
204.323
210.821
217.481
224.217
230.899
237.395
243.592
249.417
254.848
259.901
264.614
269.034
273.203
277.163
280.944
284.573
288.069
291.446
294.715
297.883
300.961
303.958
306.887
309.762
312.599
315.409
318.208
321.013
323.842
326.718
329.663
332.7
335.855
339.151
342.608
346.239
350.06
354.091
358.357
362.878
367.676
372.765
378.158
383.866
389.9
396.265
402.959
409.98
417.329
425.014
433.036
441.396
450.09
459.11
468.445
478.084
488.009
498.202
508.642
519.304
530.153
541.16
552.298
563.539
574.86
586.238
597.66
609.115
620.596
632.1
643.627
655.176
666.751
678.362
690.023
701.753
713.564
725.457
737.478
749.678
762.098
774.647
787.367
800.066
812.43
824.359
836.004
847.429
858.725
869.935
881.063
892.117
903.122
914.12
925.169
936.413
947.59
958.808
970.115
981.529
993.061
1004.72
1016.5
1028.42
1040.47
1052.65
1064.97
1077.43
1090.02
1102.77
1115.67
1128.72
1141.86
1155.11
1168.47
1181.95
1195.54
1209.24
1223.04
1236.94
1250.94
1265.03
1279.21
1293.45
1307.74
1322.08
1336.46
1350.86
1365.28
1379.68
1394.07
1408.41
1422.67
1436.84
1450.87
1464.75
1478.43
1491.88
1505.05
1517.89
1530.36
1542.4
1553.96
1564.99
1575.41
1585.17
1594.21
1602.46
1609.85
1616.34
1621.83
1626.28
1629.61
1631.79
1632.77
1632.56
1631.18
1628.65
1624.99
1620.22
1614.33
1607.47
1599.38
1590.28
381.815
242.272
201.283
184.643
176.684
172.331
169.969
169.102
169.55
171.21
173.965
177.647
182.046
186.942
192.163
197.616
203.275
209.129
215.135
221.203
227.214
233.048
238.612
243.848
248.741
253.306
257.578
261.601
265.42
269.068
272.578
275.98
279.296
282.546
285.741
288.891
292.007
295.102
298.194
301.301
304.44
307.627
310.875
314.204
317.634
321.183
324.867
328.705
332.724
336.949
341.398
346.082
351.018
356.237
361.776
367.677
373.98
380.709
387.862
395.433
403.413
411.786
420.534
429.636
439.104
448.943
459.156
469.739
480.681
491.969
503.585
515.506
527.708
540.167
552.859
565.75
578.751
591.831
604.96
618.111
631.261
644.381
657.442
670.433
683.353
696.205
709.001
721.753
734.476
747.199
759.977
772.865
785.93
799.113
812.528
826.328
840.829
855.541
869.84
883.647
897.064
910.115
922.884
935.438
947.853
960.16
972.373
984.504
996.585
1008.65
1020.75
1032.92
1045.12
1057.38
1069.7
1082.11
1094.61
1107.19
1119.86
1132.63
1145.48
1158.42
1171.45
1184.57
1197.76
1211.04
1224.4
1237.83
1251.33
1264.89
1278.5
1292.17
1305.89
1319.65
1333.45
1347.28
1361.14
1375.02
1388.91
1402.79
1416.67
1430.52
1444.33
1458.09
1471.79
1485.4
1498.9
1512.27
1525.48
1538.5
1551.29
1563.83
1576.07
1587.96
1599.47
1610.53
1621.1
1631.11
1640.52
1649.25
1657.25
1664.45
1670.78
1676.19
1680.61
1683.99
1686.26
1687.38
1687.3
1685.99
1683.47
1679.79
1674.97
1669.03
1662
1653.9
1644.73
1634.64
1623.41
1611.33
448.397
264.27
210.814
189.941
180.573
175.726
173.11
172.015
172.204
173.543
175.892
179.074
182.887
187.146
191.718
196.538
201.583
206.829
212.224
217.678
223.085
228.341
233.369
238.126
242.602
246.815
250.797
254.583
258.211
261.726
265.162
268.553
271.932
275.323
278.738
282.184
285.665
289.195
292.798
296.502
300.331
304.307
308.454
312.82
317.463
322.39
327.558
332.96
338.618
344.551
350.75
357.263
364.116
371.354
379.029
387.201
395.916
405.168
414.923
425.156
435.87
447.083
458.776
470.834
483.27
496.088
509.281
522.831
536.715
550.902
565.359
580.05
594.939
609.996
625.214
640.687
656.051
671.333
686.54
701.657
716.675
731.567
746.31
760.898
775.336
789.638
803.833
817.944
831.98
845.974
859.973
873.983
888.123
902.967
918.275
933.944
949.308
964.336
978.935
993.112
1006.96
1020.55
1033.94
1047.14
1060.2
1073.15
1086.03
1098.86
1111.68
1124.51
1137.37
1150.26
1163.2
1176.17
1189.19
1202.25
1215.35
1228.49
1241.67
1254.88
1268.13
1281.4
1294.71
1308.04
1321.39
1334.76
1348.15
1361.55
1374.96
1388.37
1401.79
1415.19
1428.59
1441.97
1455.33
1468.67
1481.96
1495.21
1508.4
1521.53
1534.58
1547.53
1560.38
1573.09
1585.66
1598.05
1610.25
1622.23
1633.94
1645.36
1656.44
1667.15
1677.43
1687.24
1696.52
1705.22
1713.27
1720.62
1727.2
1732.94
1737.78
1741.65
1744.5
1746.25
1746.87
1746.29
1744.49
1741.44
1737.13
1731.58
1724.86
1717.01
1708.03
1697.96
1686.83
1674.67
1661.5
1647.52
1632.53
1616.94
535.497
293.053
223.262
196.68
185.207
179.473
176.333
174.799
174.544
175.402
177.211
179.791
182.958
186.56
190.494
194.707
199.168
203.843
208.672
213.573
218.457
223.238
227.857
232.284
236.519
240.588
244.525
248.366
252.136
255.868
259.609
263.426
267.375
271.499
275.836
280.404
285.122
290
295.075
300.377
305.904
311.73
317.929
324.613
331.868
339.568
347.574
355.916
364.643
373.817
383.508
393.716
404.356
415.466
427.078
439.188
451.742
464.694
478.036
491.792
506.024
520.869
536.419
552.125
568.098
584.331
600.801
617.474
634.313
651.277
668.324
685.414
702.506
719.559
736.546
753.47
770.273
786.912
803.362
819.618
835.691
851.592
867.338
882.959
898.483
913.942
929.392
944.854
960.323
975.933
991.996
1008.27
1024.82
1041.17
1057.3
1073.03
1088.3
1103.02
1117.31
1131.25
1144.95
1158.49
1171.9
1185.2
1198.43
1211.65
1224.88
1238.14
1251.42
1264.74
1278.08
1291.43
1304.81
1318.18
1331.56
1344.93
1358.28
1371.63
1384.95
1398.26
1411.54
1424.79
1438.01
1451.2
1464.35
1477.46
1490.54
1503.56
1516.54
1529.46
1542.32
1555.12
1567.84
1580.48
1593.03
1605.49
1617.84
1630.07
1642.16
1654.11
1665.89
1677.48
1688.87
1700.04
1710.94
1721.57
1731.87
1741.83
1751.39
1760.51
1769.15
1777.26
1784.79
1791.67
1797.84
1803.25
1807.83
1811.51
1814.22
1815.91
1816.5
1815.94
1814.16
1811.12
1806.77
1801.1
1794.07
1785.7
1776.05
1765.17
1753.11
1739.9
1725.56
1710.14
1693.71
1676.34
1658.12
1639.3
1619.78
1600.11
635.359
324.037
236.176
203.428
189.609
182.811
178.994
176.88
176.077
176.391
177.65
179.671
182.287
185.363
188.809
192.567
196.599
200.863
205.302
209.851
214.443
219.019
223.535
227.977
232.369
236.762
241.219
245.812
250.621
255.568
260.699
266.126
271.932
278.194
285.096
292.551
300.226
308.294
316.842
325.936
335.67
346.13
357.19
368.846
380.985
393.527
406.56
420.129
434.265
449.098
465.009
481.534
498.269
515.318
532.688
550.355
568.266
586.367
604.615
622.985
641.484
660.134
678.918
697.7
716.412
735.013
753.477
771.786
789.925
807.88
825.635
843.179
860.498
877.576
894.4
910.985
927.332
943.445
959.337
975.044
990.618
1006.11
1021.59
1037.15
1052.84
1068.68
1085.02
1101.87
1119.02
1136.23
1153.17
1170.01
1186.73
1203.27
1219.48
1235.17
1250.45
1265.4
1280.09
1294.58
1308.91
1323.11
1337.21
1351.21
1365.17
1379.15
1393.14
1407.12
1421.08
1434.99
1448.86
1462.67
1476.4
1490.07
1503.65
1517.15
1530.56
1543.87
1557.09
1570.21
1583.22
1596.14
1608.95
1621.65
1634.24
1646.71
1659.06
1671.29
1683.39
1695.36
1707.18
1718.85
1730.36
1741.7
1752.85
1763.81
1774.56
1785.08
1795.35
1805.36
1815.08
1824.48
1833.55
1842.24
1850.54
1858.39
1865.76
1872.61
1878.88
1884.54
1889.51
1893.76
1897.22
1899.82
1901.5
1902.2
1901.86
1900.4
1897.76
1893.88
1888.72
1882.21
1874.32
1865.01
1854.26
1842.06
1828.43
1813.38
1796.97
1779.29
1760.42
1740.43
1719.41
1697.41
1674.55
1650.99
1626.9
1602.65
1578.24
1554.31
745.534
355.511
248.656
209.742
193.572
185.625
181.019
178.245
176.859
176.652
177.435
179.023
181.255
184.003
187.175
190.713
194.575
198.722
203.122
207.747
212.58
217.63
222.9
228.326
233.982
239.976
246.385
253.454
261.348
269.594
278.517
288.407
299.377
311.477
324.524
338.116
352.487
367.764
383.975
401.254
420.139
440.308
460.785
481.68
502.923
524.373
545.907
567.428
588.896
610.418
632.102
653.832
675.41
696.759
717.851
738.668
759.194
779.41
799.304
818.868
838.115
857.069
875.743
894.127
912.2
929.949
947.376
964.491
981.312
997.856
1014.15
1030.2
1046.04
1061.69
1077.18
1092.55
1107.76
1122.87
1137.96
1153.15
1168.5
1184.04
1199.9
1216.54
1233.71
1251.24
1268.74
1286.13
1303.5