/*--------------------------------*- C++ -*----------------------------------*\
| =========                 |                                                 |
| \\      /  F ield         | OpenFOAM: The Open Source CFD Toolbox           |
|  \\    /   O peration     | Version:  2112                                  |
|   \\  /    A nd           | Website:  www.openfoam.com                      |
|    \\/     M anipulation  |                                                 |
\*---------------------------------------------------------------------------*/
FoamFile
{
    version     2.0;
    format      ascii;
    arch        "LSB;label=32;scalar=64";
    class       volScalarField;
    location    "0.06";
    object      omegaU;
}
// * * * * * * * * * * * * * * * * * * * * * * * * * * * * * * * * * * * * * //

dimensions      [0 0 -1 0 0 0 0];

internalField   nonuniform List<scalar> 
12225
(
55402.1
78424.8
85923.4
87100.3
85846.1
83681.7
81218.5
78735.1
76374.3
74206.9
72257.3
70519
68967.2
67570.1
66291.8
65129.6
63972.1
62627.2
3657.1
8227.74
12343.3
15751
18422.6
20457.5
21983.5
23111.8
23929.8
24507.4
24901.9
25161.4
25325.8
25428.1
25494.4
25553.8
25691.6
26018.8
281.159
727.651
1387.75
2199.15
3089.22
3984.09
4828.92
5594.76
6268.84
6854.29
7364.55
7818.12
8234.06
8629.5
9017.26
9410.57
9815.61
10215.8
113.702
157.256
229.515
335.628
478.282
656.429
862.981
1084.7
1311.43
1536.21
1754.84
1966.19
2171.29
2372.38
2571.97
2772.65
2974.88
3172.29
100.504
105.826
115.611
131.209
153.46
183.101
220.298
263.791
312.319
364.242
418.581
474.793
532.729
592.511
654.345
718.357
784.162
849.385
99.1495
99.7703
101.211
103.8
107.772
113.276
120.403
129.164
139.449
150.899
163.338
176.651
190.789
205.757
221.577
238.247
255.64
273.27
99.0029
99.0307
99.1869
99.5525
100.21
101.22
102.624
104.453
106.708
109.342
112.322
115.622
119.225
123.123
127.313
131.786
136.51
141.378
98.9789
98.9328
98.9091
98.923
98.9931
99.1357
99.3637
99.6889
100.118
100.654
101.297
102.046
102.901
103.863
104.932
106.107
107.383
108.736
98.9688
98.909
98.8582
98.8192
98.7951
98.7876
98.7971
98.8246
98.8715
98.9395
99.0304
99.1467
99.2911
99.4663
99.6747
99.9182
100.198
100.511
98.962
98.8958
98.8372
98.7867
98.7445
98.7095
98.6796
98.6533
98.6292
98.6068
98.5864
98.5688
98.5553
98.5474
98.5467
98.5545
98.5719
98.6
98.9569
98.8861
98.8228
98.7667
98.7174
98.6736
98.6332
98.5943
98.5555
98.5158
98.4747
98.4324
98.3893
98.3461
98.3034
98.2617
98.2218
98.1852
98.9534
98.8792
98.8124
98.7526
98.6991
98.6505
98.605
98.5611
98.5174
98.473
98.4275
98.3808
98.3329
98.2844
98.2354
98.1863
98.1379
98.0916
98.9505
98.8735
98.8039
98.7411
98.6843
98.6322
98.5833
98.5362
98.4898
98.4432
98.3961
98.3483
98.3
98.2513
98.2026
98.1542
98.107
98.0626
98.948
98.8684
98.796
98.7304
98.6707
98.6157
98.5642
98.5148
98.4666
98.419
98.3716
98.3244
98.2773
98.2306
98.1848
98.1403
98.0982
98.06
98.9459
98.8638
98.7889
98.7208
98.6586
98.6013
98.5478
98.497
98.4481
98.4005
98.354
98.3086
98.2642
98.2213
98.1802
98.1418
98.107
98.0775
98.9441
98.86
98.7829
98.7126
98.6484
98.5893
98.5345
98.4831
98.4343
98.3878
98.3433
98.3008
98.2605
98.2227
98.188
98.1571
98.131
98.1112
98.9427
98.857
98.7782
98.7061
98.6404
98.5802
98.5248
98.4735
98.4257
98.3811
98.3395
98.3009
98.2656
98.2338
98.2061
98.1831
98.1658
98.155
98.9417
98.855
98.775
98.7019
98.6352
98.5746
98.5194
98.469
98.423
98.3811
98.3431
98.309
98.279
98.2533
98.2323
98.2164
98.2063
98.2023
98.9414
98.8544
98.7741
98.7008
98.6344
98.5745
98.5206
98.4722
98.429
98.3905
98.3566
98.3273
98.3024
98.282
98.2664
98.2555
98.2497
98.2491
98.942
98.8556
98.7763
98.7043
98.6395
98.5816
98.5302
98.4849
98.4452
98.4107
98.381
98.3559
98.3352
98.3187
98.3063
98.298
98.2937
98.2932
98.9433
98.8584
98.7808
98.7109
98.6486
98.5935
98.5455
98.5038
98.4681
98.4377
98.4123
98.3913
98.3744
98.3612
98.3515
98.345
98.3415
98.3407
98.9453
98.8627
98.7878
98.7207
98.6616
98.6104
98.5665
98.5296
98.4989
98.4739
98.4538
98.438
98.426
98.4171
98.4107
98.4066
98.4044
98.404
98.9484
98.8691
98.7976
98.7344
98.6798
98.6341
98.5969
98.5677
98.5459
98.5309
98.5217
98.5174
98.5171
98.5202
98.5261
98.5342
98.5444
98.5565
98.9531
98.8787
98.8134
98.7591
98.7188
98.6948
98.6885
98.7013
98.7337
98.7857
98.8557
98.9423
99.0442
99.1603
99.2896
99.4311
99.5841
99.748
98.9631
98.9107
98.8955
98.9402
99.0683
99.3016
99.6578
100.15
100.777
101.536
102.412
103.395
104.477
105.648
106.897
108.219
109.606
111.046
99.0634
99.3604
100.162
101.675
103.967
107.147
111.291
116.426
122.478
129.358
136.982
145.243
154.02
163.136
172.501
182.056
191.762
201.535
101.188
107.234
119.662
139.483
166.414
200.044
240.31
286.736
338.537
394.613
453.676
514.418
575.585
635.799
694.485
751.417
806.552
860.018
148.556
255.565
436.863
682.111
982.357
1314.45
1665.25
2022.62
2375.83
2716.14
3037.16
3334.78
3607.09
3854.49
4078.01
4279.7
4462.22
4629.34
1565.26
3725.42
5943.95
8013.97
9830.21
11377
12672.3
13748.3
14638.5
15372.6
15976
16469.8
16871.8
17197.1
17458.8
17668.4
17836.8
17973.7
36485
55181.2
63371.6
66389.4
67032.4
66605.8
65697.2
64577.1
63377.3
62166.6
60984.1
59853.9
58790.8
57803.6
56895.3
56066.3
55310.6
54626.4
1706.39
1715.88
1748.97
1777.01
1808.04
1845.04
1888.46
1939.16
1998.9
2060
2110.01
2142.35
2155.06
2148.42
2125.58
2094.66
2070.27
2084.84
2171.07
2350.89
2637.87
3038.75
3557.96
4201.64
4975.32
5860.88
6793.14
7681.45
8462.5
9124.15
9684.07
10160.1
10559.3
10881
11122.1
11279.5
11350.3
11332.5
11225.4
11028.9
10744.2
10374.6
9925.2
9398.89
8846.48
8275.13
7690.91
7101.68
6516.21
5943.9
5394.56
4877.59
4403.11
3981.33
3622.25
3335.63
3131.22
3019.4
3013.61
3123.09
3314.64
3588.75
3940.05
4360.89
4841.75
5370.91
5932.37
6509.55
7062.24
7466.42
7697.15
7719.36
7515.88
7135.04
6697.05
6311.66
6000.72
5718.9
5424.87
5127.37
4885.79
4777.56
4867.33
5194.05
5764.62
6560.53
7541.61
8558.71
9611.82
10685.7
11746.9
12765
13712.7
14566.8
15311
15934.1
16422.7
16765.4
16956.9
16996.2
16882.2
16614.9
16195.7
15627.7
14909.6
14111.7
13243.6
12315.3
11339.7
10332
9308.1
8283.32
7276.03
6315.89
5429.92
4645.6
3989.78
3489.59
3171.21
3060.03
3180.34
3542.13
4063.67
4751.28
5583.67
6535.27
7577.22
8679.22
9816.76
10954.7
12058.3
13096.6
14042.1
14871
15562.6
16042.9
16277.6
16309
16172.4
15897.7
15511.8
15039.7
14505.1
13929.9
13333.3
12731.8
12139.2
11566.7
11022.8
10513.7
10043.9
9615.92
9230.98
8888.78
8587.47
8323.58
8092.33
7888.16
7705.32
7538.37
7382.87
7235.78
7095.77
6963.18
6839.93
6729.01
6633.8
6557.14
6500.73
6464.51
6446.64
6443.68
6451.25
6464.38
6479.3
6490.78
6498.87
6490.42
6486.36
6410.8
3100.52
2736.84
2506.39
2321.87
2168.43
2036.06
1919.44
1816.49
1727.74
1664.73
1635.24
1636.15
1661.83
1705.23
1759.42
1820.25
1895.34
2015.18
2181.24
2414.29
2721.68
3092.8
3498.02
3895.71
4246.35
4523.3
4710.93
4801
4797.45
4717.49
4581.7
4405.43
4198.56
3969.14
3725.4
3476.45
3232.5
3004.28
2802.35
2636.56
2515.33
2444.3
2425.02
2460.41
2498.14
2536.41
2574.66
2612.36
2649.03
2684.31
2717.66
2748.79
2777.41
2803.24
2825.76
2844.11
2856.75
2860.88
2851.76
2821.22
2770.87
2698.83
2603.97
2490.47
2368.54
2249.06
2143.03
2070.64
2096.31
2305.54
2614.69
2928.82
3156.46
3251.05
3216.77
3120.12
3071.41
3153.06
3368.61
3675.89
4040.66
4448.57
4893.99
5367.61
5843.26
6237.11
6558.77
6807.26
6979.99
7074.04
7089.67
7030.7
6904.32
6721.13
6475.49
6151.6
5767.13
5346.92
4914.39
4489.26
4089.55
3732.25
3431.72
3196.83
3046.67
2912.87
2791.17
2681.06
2582.82
2498.37
2433.71
2403.77
2408.36
2416.62
2426.28
2436.92
2448.21
2459.57
2470.21
2478.67
2482.17
2479.29
2473.09
2465.88
2461.36
2467.35
2523.98
2675.2
2868.85
3080.94
3310.27
3560.24
3833.35
4130.37
4453.67
4841
5258.61
5632.03
5937.48
6167.66
6323.74
6411.08
6437.12
6410.07
6337.68
6226.28
6080.38
5903.35
5699.08
5473.89
5237.11
4999.63
4771.28
4559
4366.43
4194.51
4042.52
3908.84
3791.17
3686.62
3592.01
3504.49
3422.06
3343.93
3270.46
3203.04
3143.71
3094.63
3057.48
3032.94
3020.32
3017.66
3022.2
3030.99
3041.37
3050.82
3058.09
3060.47
3067.53
3077.61
4796.28
3753.49
3171.15
2777.56
2497.49
2286.8
2119.39
1980.5
1862.61
1762.11
1681.43
1626.15
1600.89
1608.66
1650.4
1724.5
1835.45
2026.67
2259.12
2524.12
2803.1
3060.69
3259.58
3381.45
3431.08
3421.09
3361.21
3261.41
3135
2996.58
2858.18
2727.78
2610.59
2510.3
2429.61
2370.13
2332.09
2314.26
2314.09
2328.03
2352.08
2382.34
2415.49
2449.17
2482.18
2514.21
2545
2574.23
2601.62
2626.88
2649.67
2670.19
2689.05
2706.92
2724.56
2742.67
2761.54
2780.57
2797.79
2809.12
2805.37
2776.08
2712.32
2610.27
2474.31
2318.11
2157.14
2004.03
1872.72
1789.04
1786.16
1865.03
1999.95
2154.54
2311.35
2491.16
2735.83
3064.76
3455.76
3865.93
4256.76
4603.29
4890.44
5087.6
5186.72
5203.3
5146.07
5021.63
4838.2
4605.34
4334.11
4036.74
3726.06
3414.05
3110.2
2826.76
2578.48
2375.51
2220.64
2112.22
2046.07
2015.94
2014.78
2035.94
2064.59
2095.01
2126.49
2158.53
2190.76
2222.9
2254.8
2286.44
2317.3
2346.43
2373.44
2397.87
2418.9
2435.19
2444.59
2443.83
2429.77
2407.46
2377.61
2341.16
2299.63
2254.2
2207.28
2161.43
2117.35
2076.58
2041.62
2015.18
1999.84
1997.98
2012.06
2048.73
2142.21
2291.1
2475.01
2673.84
2869.4
3047.92
3200.48
3322.57
3413.28
3474.26
3508.46
3519.03
3508.61
3479.21
3432.67
3370.94
3296.2
3210.89
3118.04
3021.6
2925.86
2834.33
2748.95
2669.98
2596.41
2526.68
2459.38
2393.7
2329.6
2267.77
2209.42
2155.94
2108.61
2068.35
2035.6
2010.29
1991.94
1979.76
1972.7
1969.92
1971
1976.4
1991.72
2020.98
6565.7
4517.05
3518.57
2939.82
2581.92
2342.38
2166.26
2024.65
1903.36
1796.82
1705.79
1634.18
1587.88
1574.68
1601.18
1671.05
1789.75
2011.53
2269.72
2522.92
2742.68
2895.84
2963.84
2956.29
2901.18
2823.39
2737.94
2654.39
2578.72
2513.78
2460.53
2419.09
2389.16
2370.15
2361.02
2360.21
2365.89
2376.32
2390.06
2405.91
2422.99
2440.74
2458.81
2477.04
2495.3
2513.01
2529.51
2544.06
2555.91
2564.37
2569.2
2570.78
2569.9
2567.83
2566.54
2568.54
2576.55
2592.96
2619.13
2654.48
2695.25
2729.36
2731.89
2687.29
2590.47
2450.16
2285.87
2116.45
1957.71
1825.65
1742.07
1726.08
1786.66
1926.14
2147.29
2457.48
2850.74
3283.32
3688.57
4019.15
4258.65
4402.69
4446.18
4406.76
4299.87
4137.3
3930.53
3691.32
3432.11
3165.67
2904.54
2660.21
2442.31
2257.73
2110.44
2001.88
1930.33
1891.2
1878.26
1885.1
1905.92
1935.84
1971.05
2008.75
2046.38
2083.29
2119.03
2153.29
2185.93
2216.81
2245.71
2272.81
2298.38
2322.59
2345.39
2366.45
2385.06
2399.83
2408.5
2407.83
2397.32
2378.3
2351.11
2316.51
2275.17
2227.64
2174.61
2116.99
2056.65
1995.77
1936.41
1880.6
1830.85
1789.94
1760.49
1745.03
1747.69
1774.7
1824.18
1893.26
1976.56
2067.17
2157.94
2242.62
2316.69
2377.63
2424.78
2458.74
2480.69
2491.89
2493.43
2486.39
2471.99
2451.77
2427.61
2401.52
2375.16
2349.39
2323.98
2297.77
2269.16
2236.69
2199.42
2157.26
2110.92
2061.89
2012.07
1963.49
1917.93
1876.77
1840.83
1810.39
1785.33
1765.3
1749.76
1738.41
1731.03
1728.25
1731.57
1744.01
8217.41
4896.82
3510.91
2837.68
2484.61
2276.44
2132.19
2014.17
1905.51
1803.5
1711.84
1634.77
1579.59
1555.56
1571.19
1632.84
1747.51
1972.03
2228.74
2459.1
2635.31
2732.16
2747.94
2709.16
2651.01
2596.95
2555.78
2526.64
2504.71
2486.26
2470.25
2457
2446.91
2440.03
2436.05
2434.5
2434.99
2437.15
2440.77
2445.89
2452.57
2460.67
2469.97
2480.14
2491.66
2503.71
2515.25
2525.11
2531.96
2534.44
2531.62
2523.03
2508.71
2489.7
2468.31
2448.29
2434.68
2433.15
2448.84
2484.78
2540.39
2609.5
2673.92
2695.7
2653.37
2547.02
2395.52
2225.06
2058.62
1915.85
1816.76
1785.35
1838.7
1993.79
2262.28
2636.33
3068.25
3472.75
3773.33
3945.34
4001.36
3965.75
3864.32
3712.57
3523.05
3307.59
3077.97
2845.88
2622.44
2417.51
2238.93
2091.86
1978.58
1898.55
1848.98
1825.52
1823.01
1836.25
1860.57
1892.16
1928.01
1965.85
2003.94
2040.76
2076.02
2109.33
2140.31
2168.47
2193.84
2216.7
2237.47
2256.7
2274.97
2292.86
2310.55
2328.05
2344.44
2358.63
2368.14
2370.4
2365.01
2351.58
2329.87
2300.08
2262.63
2218.01
2166.91
2110.51
2050.35
1987.91
1924.46
1861.14
1799.44
1741.64
1690.79
1650.52
1624.81
1617.66
1628.27
1654.57
1693.38
1740.65
1791.9
1842.7
1889.26
1928.78
1959.63
1981.3
1994.05
1998.67
1996.23
1988.08
1975.92
1961.9
1948.6
1938.68
1934.39
1937.01
1946.39
1960.78
1977.12
1991.77
2001.25
2002.92
1995.49
1979.01
1954.73
1924.7
1891.35
1856.97
1823.46
1792.21
1764.07
1739.5
1718.63
1701.55
1688.26
1679.58
1675.59
1678.34
9563.59
4900.31
3268.21
2628.45
2355.92
2216.4
2120.54
2033.16
1939.68
1839.94
1742.5
1655.04
1587.93
1551.58
1555.44
1607.22
1715.57
1934.71
2176.12
2384.58
2535.09
2612.34
2626.35
2608
2587.46
2578.27
2577.8
2576.77
2569.16
2555.09
2537.58
2519.29
2501.64
2485.19
2470.13
2456.66
2445.05
2435.57
2428.49
2424.2
2422.97
2424.88
2429.74
2437.1
2447.55
2460.03
2473.42
2486.52
2497.92
2505.93
2508.74
2504.46
2491.46
2469.02
2438
2401.55
2365.73
2339.15
2331.66
2351.66
2403.09
2483.21
2579.99
2664.77
2688.37
2628.86
2499.73
2334.02
2166.01
2022.92
1927.75
1908.41
1983.74
2169.84
2469.27
2849.78
3233.81
3526.97
3676.29
3691.13
3616.05
3489.39
3326.29
3138.56
2936.94
2731.72
2532.72
2348.7
2186.74
2051.75
1946.15
1869.99
1821.32
1796.68
1791.76
1802.02
1823.22
1851.67
1884.4
1919.13
1954.14
1988.12
2019.95
2050.22
2078.79
2105.05
2128.67
2149.52
2167.69
2183.47
2197.48
2210.35
2222.83
2235.49
2248.54
2262.43
2275.71
2288.25
2296.48
2300.16
2298.03
2289.2
2273.21
2250.02
2219.88
2183.15
2140.36
2092.25
2039.7
1983.53
1924.36
1862.71
1799.24
1734.98
1671.86
1612.85
1562.24
1526.07
1508.29
1508.96
1525.82
1554.93
1591.53
1630.84
1668.61
1701.49
1727.21
1744.48
1752.91
1752.75
1744.73
1730.01
1710.18
1687.31
1663.95
1643.04
1627.59
1620.25
1622.82
1635.76
1657.89
1686.42
1717.39
1746.45
1769.73
1784.4
1788.93
1783.24
1768.49
1746.7
1720.36
1692.01
1663.82
1637.45
1613.89
1593.71
1577.04
1564.58
1556.14
1553.99
10504
4637.82
2965.57
2464.63
2302.09
2229.01
2171.84
2107.5
2026.66
1928.76
1823.27
1720.36
1634.02
1578.63
1566.1
1605.28
1710.4
1915.73
2136.52
2327.1
2466.95
2548.15
2584.61
2603.04
2622.16
2642.7
2654.17
2649.1
2629.02
2600.06
2567.64
2534.71
2502.47
2471.42
2442.08
2415.15
2391.41
2371.59
2356.48
2346.67
2342.35
2343.4
2349.4
2359.73
2373.22
2388.86
2405.84
2423.48
2441.02
2457.5
2471.38
2480.27
2481.17
2470.9
2447.04
2409.51
2362.17
2314.03
2278.75
2271.5
2303.78
2378.98
2489.51
2613.17
2707.6
2714.86
2623.25
2468.81
2301.09
2159.97
2074.24
2072.52
2172.17
2378.05
2673.94
3004.8
3283.65
3436.35
3448.05
3359.28
3225.72
3065.55
2889.48
2706.81
2526.08
2355.13
2200.65
2067.69
1959.34
1876.69
1819.09
1784.52
1769.81
1770.99
1783.97
1804.92
1830.58
1858.45
1886.8
1914.64
1941.57
1967.54
1992.94
2018.25
2042.53
2065.04
2085.13
2102.42
2116.86
2128.79
2138.73
2147.41
2155.74
2164.54
2173.77
2184.56
2194.46
2203.21
2209.61
2212.34
2210.24
2202.6
2189.16
2170.04
2145.61
2116.33
2082.67
2045.08
2003.89
1959.25
1911.05
1858.98
1802.75
1742.32
1678.27
1612.18
1546.98
1487.71
1441.48
1412.56
1402.45
1409.77
1430.89
1460.92
1494.77
1527.9
1556.73
1578.78
1592.56
1597.43
1593.44
1581.16
1561.64
1536.42
1507.48
1477.24
1448.48
1424.1
1406.83
1398.84
1401.24
1413.73
1434.43
1460.08
1486.58
1509.94
1526.97
1535.38
1534.14
1523.65
1505.4
1481.65
1454.92
1427.56
1401.36
1377.55
1356.68
1339.42
1325.84
1317.8
10975.8
4260.3
2723.88
2398.28
2325.85
2293.19
2256.14
2205.15
2136.13
2046.62
1936.13
1818.19
1712.56
1638.08
1609.11
1636.79
1741.6
1924.96
2125.51
2303.36
2440.72
2534.24
2596.55
2644.72
2684.72
2709.24
2708.88
2684.29
2644.25
2597.35
2548.71
2500.55
2453.91
2409.76
2369.23
2333.65
2304.45
2282.75
2269.03
2263.12
2264.35
2271.72
2284.1
2300.37
2317.37
2334.46
2351.45
2368.47
2385.9
2404.1
2423.01
2441.63
2457.43
2466.11
2462.11
2440.37
2398.82
2342.14
2283.77
2244.15
2244.26
2297.32
2403.64
2548.09
2695.09
2785.19
2760.1
2634.98
2472.46
2332.76
2254.17
2262.53
2369.97
2566.68
2818.56
3059.87
3215.48
3245.6
3167.44
3035.92
2884.8
2723.12
2559.01
2399.46
2250.63
2117.54
2003.81
1911.46
1841.02
1791.81
1762.3
1749.95
1751.26
1762.31
1779.44
1799.6
1820.59
1841.29
1861.56
1882
1903.52
1926.71
1952.16
1978.03
2002.86
2025.43
2044.73
2060.14
2071.68
2079.93
2085.71
2090.14
2094.3
2099.39
2104.88
2110.99
2117.1
2122.16
2124.88
2124.1
2119.03
2109.33
2095.12
2076.89
2055.28
2030.93
2004.35
1975.85
1945.49
1913
1877.74
1838.76
1794.94
1745.2
1688.88
1626.1
1558.25
1488.48
1422.79
1367.75
1328.36
1307.16
1303.82
1315.49
1337.79
1365.8
1394.98
1421.55
1442.73
1456.67
1462.35
1459.42
1448.13
1429.23
1403.96
1373.98
1341.38
1308.56
1278.12
1252.61
1234.17
1224.18
1222.89
1229.23
1240.85
1254.47
1266.58
1274.04
1274.86
1268.12
1254.01
1233.69
1209.02
1182.2
1155.29
1129.97
1107.31
1088.16
1072.67
1061.65
10978.7
3864.41
2579.18
2407.75
2387.93
2371.87
2342.37
2298.15
2236.64
2154.07
2044.49
1922.2
1808.14
1723.76
1686.2
1710.43
1808.54
1969.03
2149.46
2315.47
2451.05
2553.96
2631.84
2691.23
2729.36
2738.52
2716.88
2672.06
2614.97
2553.77
2492.63
2433.53
2378.06
2328.29
2286.39
2254.25
2232.94
2222.4
2221.62
2228.96
2242.54
2260.5
2281.08
2302
2320.62
2336.48
2349.48
2360.02
2369.11
2378.43
2389.94
2405.26
2424.47
2445.06
2461.22
2464.19
2444.51
2397.75
2330.7
2263.65
2225.01
2240.04
2321.65
2465.65
2645.75
2808.63
2879.27
2817.03
2673.43
2531.95
2450.24
2452.37
2542.97
2700.09
2879.7
3019.7
3068.66
3017.84
2899.86
2757.54
2610
2462.32
2320.42
2189.04
2071.88
1971.45
1889.07
1824.94
1778.57
1749.22
1735.25
1733.82
1741.33
1754.19
1769.34
1784.78
1799.71
1814.58
1830.66
1849.48
1872.13
1898.7
1927.37
1955.66
1981.59
2003.61
2020.68
2032.44
2039.3
2042.42
2043
2042.5
2042.16
2042.68
2044.2
2046.37
2048.27
2048.67
2046.31
2040.33
2030.34
2016.52
1999.5
1980.13
1959.37
1938.03
1916.65
1895.46
1874.31
1852.67
1829.6
1803.79
1773.64
1737.36
1693.29
1640.25
1578.16
1508.46
1434.96
1363.7
1301.05
1252.36
1220.79
1206.77
1208.28
1221.62
1242.45
1266.47
1289.99
1310.08
1324.6
1332.15
1331.97
1323.9
1308.29
1286
1258.33
1226.98
1193.99
1161.56
1131.91
1106.94
1087.94
1075.34
1068.63
1066.29
1065.99
1065.26
1061.81
1054.05
1041.28
1023.68
1002.13
978.018
952.886
928.188
905.085
884.471
866.847
852.664
10560.3
3437.04
2519.16
2455.67
2458.69
2447.16
2419.84
2378.94
2321.9
2244.37
2141.46
2026
1916.23
1833.81
1797.47
1819.75
1905.98
2044.11
2202.86
2353.96
2482.57
2584.9
2662.7
2715.24
2737.17
2725.09
2683.72
2623.71
2555.37
2485.47
2417.79
2355.07
2300.3
2256.48
2225.84
2209.22
2205.86
2213.83
2230.55
2253.31
2279.52
2306.97
2333.86
2357.79
2378.19
2394.27
2405.14
2410.22
2409.77
2405.4
2400.34
2398.87
2405.01
2420.72
2443.87
2466.39
2474.31
2452.64
2395.7
2316.26
2243.98
2213.73
2252.4
2370.09
2555.5
2768.68
2935.94
2976.98
2885.84
2745.55
2645.03
2620.81
2672.28
2770.05
2869.1
2919.87
2894.26
2801.45
2673.47
2537.08
2402.07
2273.09
2154.95
2050.22
1959.81
1884.34
1823.76
1777.49
1745.5
1727.48
1721.66
1725.01
1734.06
1745.69
1757.77
1769.48
1781.36
1794.95
1812.03
1833.86
1860.52
1890.59
1920.92
1949.15
1973.11
1991.5
2003.58
2009.67
2010.44
2007.58
2002.87
1997.81
1993.49
1990.48
1988.67
1987.28
1985.06
1980.6
1972.76
1961.05
1945.6
1927.14
1906.75
1885.68
1865.09
1845.9
1828.65
1813.46
1799.99
1787.5
1774.86
1760.6
1742.94
1719.81
1689
1648.46
1596.76
1533.82
1461.53
1384.13
1307.59
1238.3
1181.68
1141.07
1117.33
1109.07
1113.32
1126.36
1144.36
1163.88
1182.02
1196.51
1205.66
1208.35
1204.01
1192.62
1174.67
1151.11
1123.29
1092.9
1061.79
1031.79
1004.49
980.984
961.687
946.283
933.847
923.076
912.371
900.355
886.071
869.077
849.48
827.838
805.05
782.148
760.106
739.742
721.62
706.108
9767.65
3093.7
2525.98
2514.37
2524.68
2514.22
2487.47
2448.19
2394.79
2323.87
2233.54
2133.46
2037.84
1965.22
1932.52
1950.88
2022.94
2137.9
2272.27
2403.21
2516.86
2607.36
2672.15
2707.44
2709.29
2678.69
2623.5
2554.5
2480.69
2408.09
2341.01
2283.41
2239
2210.35
2198.12
2201.02
2216.33
2240.65
2270.56
2302.99
2335.49
2366.22
2393.86
2419.45
2443.82
2465.58
2482.54
2492.03
2491.67
2480.66
2461.28
2439.32
2422.24
2416.81
2427.05
2451.46
2478.49
2486.2
2454
2380.79
2290.24
2220.16
2207.84
2277.31
2434.28
2660.26
2898.91
3058.41
3071.89
2963.76
2837.72
2768.17
2764.54
2795.34
2820.07
2803.02
2731.86
2621.08
2494.85
2369.2
2250.69
2142.81
2047.62
1965.21
1895.26
1837.12
1789.88
1753.4
1729.2
1717.24
1715.36
1720.5
1729.46
1739.71
1749.99
1760.52
1772.69
1788.31
1808.75
1834.21
1863.42
1893.45
1921.51
1945.32
1963.39
1975.12
1979.83
1979.11
1974.17
1966.5
1957.83
1949.62
1942.84
1937.79
1933.91
1929.96
1924.33
1915.56
1902.79
1885.99
1865.85
1843.59
1820.68
1798.6
1778.63
1761.71
1748.33
1738.45
1731.54
1726.64
1722.46
1717.45
1709.85
1697.63
1678.52
1650.1
1610.11
1557.19
1491.56
1415.49
1333.65
1252.16
1177.29
1114.25
1066.27
1034.37
1017.6
1013.58
1019.21
1031.19
1046.37
1062.04
1075.91
1086.12
1091.26
1090.44
1083.33
1070.08
1051.36
1028.22
1002.04
974.342
946.651
920.254
896.04
874.386
855.153
837.779
821.446
805.281
788.52
770.634
751.417
730.984
709.755
688.351
667.461
647.738
629.67
613.653
8706.85
2941.57
2551.26
2566.02
2582.26
2573.81
2548.03
2510.44
2461.34
2399
2323.14
2241.03
2162.84
2102.7
2074.62
2087.97
2144.36
2234.99
2342.34
2448.29
2540.28
2611.21
2656.52
2672.22
2656.57
2613.13
2550.36
2477.97
2403.96
2334.35
2274.19
2227.91
2198.52
2186.82
2191.19
2208.27
2233.75
2263.35
2293.73
2322.91
2350.29
2376.04
2400.27
2427.6
2458.38
2491.12
2523.2
2550.47
2567.37
2568.23
2550.33
2517.71
2480.2
2449.06
2433.4
2439.34
2464.8
2490.94
2486.98
2433.99
2343.36
2249.1
2192.11
2206.23
2309.24
2502.59
2759.85
3013.39
3165.6
3156.08
3035.91
2914.55
2845.38
2808.15
2768.89
2702.34
2603.59
2485.42
2364.25
2250.22
2147.76
2058.49
1982.13
1917.25
1862.37
1816
1776.88
1745.94
1725.36
1715.44
1714.48
1719.7
1728.17
1737.81
1747.9
1759.2
1773.41
1792.15
1815.94
1843.64
1872.23
1897.55
1918.27
1933.15
1941.95
1944.79
1942.34
1935.74
1926.27
1915.41
1904.73
1895.49
1888.37
1883.16
1878.75
1873.42
1865.35
1853.25
1836.74
1816.29
1793.09
1768.74
1744.91
1723.17
1704.86
1690.88
1681.62
1676.87
1675.84
1677.32
1679.83
1681.79
1681.54
1677.3
1667.03
1648.39
1618.88
1576.34
1519.67
1449.32
1368.35
1281.84
1195.97
1116.73
1048.9
995.435
957.281
933.741
922.928
922.279
928.969
940.217
953.484
966.521
977.383
984.49
986.734
983.523
974.789
960.946
942.818
921.518
898.308
874.419
850.893
828.444
807.398
787.703
769.021
750.866
732.727
714.183
694.978
675.073
654.66
634.117
613.926
594.587
576.509
560.036
7547.84
2824.14
2566.46
2603.72
2628.54
2624.94
2602.09
2567.4
2523.39
2470.05
2408.18
2343.09
2281.66
2233.77
2209.86
2217.25
2257.19
2323.18
2402.48
2481.18
2548.47
2597.21
2622.53
2621.21
2593.07
2542.46
2477.19
2405.77
2335.57
2272.78
2222.64
2188.92
2173.02
2173.61
2187.02
2208.14
2231.69
2253.76
2272.67
2289.01
2304.82
2322.78
2345.21
2374.69
2410.74
2452.9
2499.84
2548.23
2591.76
2620.97
2625.64
2603
2560.31
2511.8
2471.12
2449.38
2454.04
2477.19
2489.11
2457.9
2380.35
2279.97
2194.1
2158.05
2198.99
2332.48
2557.32
2840.99
3105.61
3247.41
3216.26
3079.63
2945.76
2841.04
2744.64
2638.43
2519.25
2395.75
2278.43
2173.74
2084.11
2009.28
1947.29
1895.5
1851.44
1812.99
1778.86
1750.53
1730.66
1720.31
1718.44
1722.77
1730.72
1740.48
1751.6
1764.83
1781.53
1802.54
1827.12
1852.67
1875.44
1892.63
1903.5
1908.11
1907.11
1901.44
1892.23
1880.75
1868.31
1856.25
1845.82
1837.84
1832.44
1828.76
1825.1
1819.36
1809.8
1795.57
1776.8
1754.46
1730.09
1705.43
1682.21
1662.08
1646.41
1636.11
1631.44
1631.91
1636.41
1643.38
1651.14
1658.09
1662.77
1663.76
1659.45
1647.83
1626.47
1592.94
1545.13
1482.18
1405.55
1319.01
1227.99
1138.58
1056.33
985.443
928.401
886.002
857.671
841.874
836.492
839.125
847.302
858.67
871.029
882.39
891.086
895.885
896.048
891.349
882.034
868.733
852.342
833.873
814.304
794.445
774.842
755.747
737.144
718.831
700.524
681.948
662.915
643.379
623.464
603.446
583.702
564.635
546.598
529.88
6387.95
2716.23
2563.57
2621.64
2659.06
2664.79
2648.56
2619.22
2581.47
2536.96
2487.58
2437.04
2389.69
2351.9
2330.77
2331.64
2355.6
2398.33
2451
2503.38
2546.73
2574.71
2582.92
2568.91
2533.18
2479.81
2415.52
2347.73
2283.33
2228.38
2187.69
2163.93
2156.92
2163.7
2179.09
2196.9
2211.99
2221.93
2227.45
2231.63
2238.6
2252.18
2275.68
2305.65
2342.14
2386.5
2439.58
2500.35
2564.22
2621.7
2657.44
2660.99
2632.61
2583.53
2529.49
2484.59
2461.63
2463.67
2470.94
2451.73
2388.93
2292.02
2190.64
2119.58
2107.86
2176.63
2338.83
2590.01
2892.32
3161.14
3290.61
3238.14
3081.96
2919.43
2768.87
2624.49
2483.93
2351.67
2233.69
2133.53
2051.71
1986.41
1934.35
1891.86
1855.57
1822.68
1791.83
1764.53
1743.74
1731.35
1727.2
1729.69
1736.7
1746.62
1758.84
1773.65
1791.65
1812.77
1835.47
1856.55
1871.72
1878.93
1878.89
1872.85
1862.37
1849.04
1834.32
1819.61
1806.14
1794.96
1786.86
1782.04
1779.87
1778.76
1776.52
1770.97
1760.74
1745.51
1725.85
1703.04
1678.76
1654.78
1632.97
1615.15
1602.82
1596.89
1597.39
1603.4
1613.29
1625.06
1636.8
1646.94
1654.34
1658.11
1657.22
1650.21
1634.91
1608.77
1568.91
1513.58
1442.86
1359.17
1267.03
1172.16
1080.37
996.601
924.369
865.637
820.971
789.844
770.966
762.553
762.542
768.732
778.903
790.906
802.758
812.77
819.665
822.646
821.401
816.06
807.093
795.186
781.113
765.604
749.249
732.441
715.362
698.027
680.348
662.209
643.533
624.332
604.745
585.03
565.529
546.607
528.593
511.743
5318.77
2614.93
2537.04
2613.41
2667.45
2688.11
2684.09
2664.64
2635.96
2600.83
2562.81
2524.44
2488.35
2458.31
2438.79
2433.38
2443.21
2465.76
2495.34
2524.77
2547.42
2558.06
2553.01
2530.37
2490.67
2437.29
2375.74
2312.41
2253.61
2205.03
2170.93
2153.17
2150.74
2159.84
2174.38
2187.63
2195.01
2195.57
2191.72
2188.85
2193.74
2208.9
2233
2260.65
2293.29
2333.61
2384.3
2446.49
2517.76
2590.17
2650.17
2682.57
2678.57
2642.41
2587.96
2530.42
2484.6
2460.58
2449.69
2425.42
2366.31
2272.77
2165.29
2073.82
2025.23
2040.18
2135.63
2321.34
2590.56
2902.09
3168.25
3284.37
3212.45
3042.84
2853.32
2671.03
2503.66
2355.29
2229.05
2126.18
2045.53
1983.96
1937.13
1900.39
1869.5
1840.9
1812.8
1786.17
1763.92
1748.58
1741.01
1740.5
1745.52
1754.59
1766.76
1781.67
1799.03
1818
1836.59
1851.47
1858.31
1856.11
1846.2
1830.86
1812.62
1793.58
1775.44
1759.61
1747.16
1738.75
1734.57
1734.06
1735.75
1737.43
1736.63
1731.43
1720.94
1705.3
1685.41
1662.64
1638.69
1615.52
1595.31
1580.22
1571.95
1571.28
1577.76
1589.79
1604.99
1620.85
1635.22
1646.66
1654.44
1658.35
1658.21
1653.34
1642.15
1622.03
1589.55
1542.02
1478.28
1399.47
1309.06
1212.26
1114.87
1022.24
938.583
866.711
808.071
762.986
730.931
710.776
700.977
699.705
704.951
714.613
726.602
738.974
750.074
758.651
763.911
765.507
763.474
758.122
749.929
739.43
727.128
713.43
698.617
682.853
666.217
648.751
630.509
611.6
592.217
572.645
553.229
534.331
516.278
499.319
4415.64
2522.05
2484.56
2573.41
2645.72
2685.92
2700.3
2697.28
2683.33
2661.93
2637.47
2611.79
2586.43
2563.44
2545.44
2535.1
2533.67
2539.98
2550.59
2560.94
2566.43
2563.13
2547.95
2518.85
2476.6
2424.1
2365.8
2307
2253.22
2209.48
2179.42
2164.39
2163.08
2171.53
2183.69
2193.54
2197.49
2195.6
2190.95
2188.37
2192.13
2204.79
2224.39
2247.37
2274.34
2308.19
2352.62
2410.55
2481.8
2560.61
2634.46
2686.55
2703.38
2682.92
2634.46
2571.6
2509.65
2462.09
2427.44
2386.07
2318.2
2221.08
2109.39
2006.82
1936.38
1914.26
1954.6
2072.43
2274.55
2552.15
2862.59
3119.83
3222.97
3149.52
2980.43
2781.27
2587.63
2415.42
2270.86
2155.2
2066.6
2001.11
1953.56
1918.38
1890.36
1865.06
1839.76
1814.4
1791.16
1772.78
1761
1756.13
1757.42
1763.62
1773.56
1786.22
1800.52
1814.98
1827.39
1834.59
1833.15
1823.23
1806.43
1785.29
1762.58
1740.82
1721.99
1707.44
1697.95
1693.74
1694.32
1698.34
1703.61
1707.48
1707.61
1702.48
1691.66
1675.58
1655.24
1632.05
1607.89
1585.16
1566.63
1554.92
1551.81
1557.66
1571.18
1589.75
1610.14
1629.32
1644.99
1655.9
1661.8
1663.17
1660.78
1655.03
1645.29
1629.26
1603.33
1563.95
1508.59
1436.88
1351.05
1255.52
1155.92
1057.88
966.153
884.205
814.181
757.084
713.032
681.49
661.442
651.51
650.032
655.131
664.796
677.011
689.908
701.912
711.841
718.932
722.802
723.374
720.783
715.296
707.237
696.933
684.682
670.736
655.308
638.589
620.773
602.08
582.786
563.222
543.761
524.778
506.608
489.51
3718.17
2438.71
2404.03
2494.92
2584.46
2647.36
2685.4
2704.83
2711.2
2708.89
2701.31
2690.33
2677.01
2662.3
2647.67
2635.19
2626.68
2622.6
2621.24
2619.32
2612.83
2599.33
2576.87
2544.02
2500.93
2449.8
2394.23
2338.61
2287.64
2245.68
2215.98
2199.91
2196.5
2202.31
2212.12
2220.76
2225.16
2225.24
2223.3
2222.52
2225.4
2233.91
2246.58
2262.74
2283.38
2311.15
2349.94
2403.42
2472.56
2552.87
2632.59
2694.72
2723.88
2714.28
2670.58
2603.19
2526.95
2456.96
2395.54
2328.78
2241.77
2133.05
2014.88
1905.83
1823.59
1779.45
1781.45
1842.37
1975.16
2185.33
2462.9
2766.42
3014.62
3109.96
3051.15
2897.64
2708.2
2521.3
2356.44
2221.12
2116.09
2038.33
1982.75
1943.35
1914.15
1889.83
1866.56
1842.9
1819.81
1799.51
1784.08
1774.6
1771.06
1772.68
1778.26
1786.43
1795.61
1803.92
1809
1808.04
1799.12
1783.15
1761.86
1737.93
1714.21
1693.19
1676.72
1665.91
1661.21
1662.3
1668.02
1676.25
1684.3
1689.45
1689.71
1684.06
1672.32
1654.96
1632.93
1607.86
1582.28
1559.48
1543.09
1536.13
1540.13
1554.48
1576.56
1602.48
1628.2
1650.31
1666.5
1675.73
1678.07
1674.57
1666.88
1656.65
1644.59
1629.39
1607.7
1575.36
1528.6
1465.41
1386.48
1295.16
1196.62
1096.58
1000.23
911.595
833.366
767.08
713.344
672.086
642.734
624.336
615.617
615.018
620.742
630.857
643.44
656.742
669.315
680.077
688.296
693.538
695.603
694.46
690.207
683.03
673.178
660.94
646.622
630.543
613.026
594.41
575.056
555.358
535.723
516.546
498.177
480.885
3280.84
2383.31
2318.69
2395.78
2494.19
2577.17
2640.42
2686.6
2719.49
2741.63
2755.56
2763.06
2764.93
2761.5
2753.4
2742.38
2731.11
2720.85
2710.7
2700.39
2686.94
2667.49
2640.45
2605.02
2561.4
2511.22
2457.29
2403.19
2352.89
2310.19
2278.11
2258.26
2250.24
2251.53
2257.94
2265.14
2270.17
2272.27
2272.44
2272.46
2274.11
2278.95
2286.24
2296.87
2312.6
2336.41
2372.37
2424.29
2493.18
2574.26
2655.47
2719.59
2751.08
2742.71
2696.02
2619.06
2526.94
2435.43
2347.76
2253.82
2144.25
2021.06
1895.99
1783.98
1697.66
1644.06
1626.51
1652.18
1733.22
1880.73
2098.4
2374.43
2668.08
2896.45
2985.87
2941.45
2809.05
2639.34
2468.72
2317.23
2193.12
2097.5
2027.4
1977.65
1942.23
1915.25
1891.9
1869.33
1846.98
1825.97
1808.06
1794.6
1786.14