/*--------------------------------*- C++ -*----------------------------------*\
| =========                 |                                                 |
| \\      /  F ield         | OpenFOAM: The Open Source CFD Toolbox           |
|  \\    /   O peration     | Version:  2112                                  |
|   \\  /    A nd           | Website:  www.openfoam.com                      |
|    \\/     M anipulation  |                                                 |
\*---------------------------------------------------------------------------*/
FoamFile
{
    version     2.0;
    format      ascii;
    arch        "LSB;label=32;scalar=64";
    class       volScalarField;
    location    "0.06";
    object      omega;
}
// * * * * * * * * * * * * * * * * * * * * * * * * * * * * * * * * * * * * * //

dimensions      [0 0 -1 0 0 0 0];

internalField   nonuniform List<scalar> 
12225
(
22160.8
31369.9
34369.4
34840.1
34338.4
33472.7
32487.4
31494
30549.7
29682.8
28902.9
28207.6
27586.9
27028
26516.7
26051.8
25588.8
25050.9
1462.84
3291.1
4937.31
6300.39
7369.06
8183.02
8793.41
9244.7
9571.9
9802.96
9960.77
10064.6
10130.3
10171.3
10197.8
10221.5
10276.6
10407.5
112.463
291.061
555.099
879.661
1235.69
1593.64
1931.57
2237.9
2507.54
2741.72
2945.82
3127.25
3293.62
3451.8
3606.91
3764.23
3926.24
4086.31
45.4807
62.9022
91.8059
134.251
191.313
262.571
345.192
433.879
524.571
614.483
701.937
786.478
868.516
948.953
1028.79
1109.06
1189.95
1268.91
40.2014
42.3304
46.2444
52.4835
61.384
73.2405
88.1193
105.516
124.928
145.697
167.432
189.917
213.091
237.004
261.738
287.343
313.665
339.754
39.6598
39.9081
40.4845
41.5201
43.1087
45.3104
48.1611
51.6657
55.7797
60.3596
65.3351
70.6602
76.3155
82.3027
88.6307
95.2987
102.256
109.308
39.6012
39.6123
39.6747
39.821
40.084
40.488
41.0494
41.7813
42.6831
43.7366
44.9287
46.2487
47.69
49.2494
50.9253
52.7143
54.604
56.5512
39.5915
39.5731
39.5636
39.5692
39.5972
39.6543
39.7455
39.8756
40.0474
40.2617
40.5187
40.8182
41.1603
41.545
41.9727
42.4428
42.9531
43.4944
39.5875
39.5636
39.5433
39.5277
39.5181
39.515
39.5188
39.5298
39.5486
39.5758
39.6122
39.6587
39.7164
39.7865
39.8699
39.9673
40.0791
40.2043
39.5848
39.5583
39.5349
39.5147
39.4978
39.4838
39.4719
39.4613
39.4517
39.4427
39.4346
39.4275
39.4221
39.419
39.4187
39.4218
39.4288
39.44
39.5828
39.5545
39.5291
39.5067
39.487
39.4694
39.4533
39.4377
39.4222
39.4063
39.3899
39.373
39.3557
39.3384
39.3213
39.3047
39.2887
39.2741
39.5813
39.5517
39.525
39.5011
39.4796
39.4602
39.442
39.4244
39.407
39.3892
39.371
39.3523
39.3332
39.3137
39.2941
39.2745
39.2551
39.2366
39.5802
39.5494
39.5216
39.4964
39.4737
39.4529
39.4333
39.4145
39.3959
39.3773
39.3584
39.3393
39.32
39.3005
39.281
39.2617
39.2428
39.225
39.5792
39.5473
39.5184
39.4922
39.4683
39.4463
39.4257
39.4059
39.3867
39.3676
39.3487
39.3297
39.3109
39.2923
39.2739
39.2561
39.2393
39.224
39.5783
39.5455
39.5156
39.4883
39.4635
39.4405
39.4191
39.3988
39.3792
39.3602
39.3416
39.3234
39.3057
39.2885
39.2721
39.2567
39.2428
39.231
39.5776
39.544
39.5132
39.4851
39.4594
39.4357
39.4138
39.3932
39.3737
39.3551
39.3373
39.3203
39.3042
39.2891
39.2752
39.2628
39.2524
39.2445
39.5771
39.5428
39.5113
39.4825
39.4562
39.4321
39.4099
39.3894
39.3703
39.3524
39.3358
39.3204
39.3062
39.2935
39.2824
39.2732
39.2663
39.262
39.5767
39.542
39.51
39.4807
39.4541
39.4298
39.4078
39.3876
39.3692
39.3524
39.3372
39.3236
39.3116
39.3013
39.2929
39.2866
39.2825
39.2809
39.5766
39.5417
39.5096
39.4803
39.4538
39.4298
39.4082
39.3889
39.3716
39.3562
39.3427
39.3309
39.321
39.3128
39.3065
39.3022
39.2999
39.2996
39.5768
39.5423
39.5105
39.4817
39.4558
39.4326
39.4121
39.394
39.3781
39.3643
39.3524
39.3424
39.3341
39.3275
39.3225
39.3192
39.3175
39.3173
39.5773
39.5434
39.5123
39.4844
39.4594
39.4374
39.4182
39.4015
39.3872
39.3751
39.3649
39.3565
39.3498
39.3445
39.3406
39.338
39.3366
39.3363
39.5781
39.5451
39.5151
39.4883
39.4647
39.4441
39.4266
39.4118
39.3996
39.3895
39.3815
39.3752
39.3704
39.3668
39.3643
39.3627
39.3618
39.3616
39.5794
39.5476
39.519
39.4938
39.4719
39.4536
39.4388
39.4271
39.4184
39.4123
39.4087
39.407
39.4069
39.4081
39.4104
39.4137
39.4178
39.4226
39.5812
39.5515
39.5253
39.5037
39.4875
39.4779
39.4754
39.4805
39.4935
39.5143
39.5423
39.5769
39.6177
39.6641
39.7158
39.7724
39.8336
39.8992
39.5853
39.5643
39.5582
39.5761
39.6273
39.7206
39.8631
40.0599
40.311
40.6142
40.9648
41.3582
41.7909
42.259
42.7589
43.2875
43.8424
44.4183
39.6254
39.7442
40.0646
40.6698
41.5869
42.8588
44.5162
46.5704
48.9913
51.7432
54.7926
58.0972
61.6079
65.2544
69.0004
72.8226
76.7046
80.6139
40.4754
42.8937
47.865
55.7933
66.5656
80.0176
96.124
114.694
135.415
157.845
181.47
205.767
230.234
254.32
277.794
300.567
322.621
344.007
59.4223
102.226
174.745
272.844
392.943
525.781
666.1
809.046
950.33
1086.46
1214.87
1333.91
1442.84
1541.8
1631.2
1711.88
1784.89
1851.74
626.104
1490.17
2377.58
3205.59
3932.09
4550.82
5068.91
5499.33
5855.39
6149.03
6390.39
6587.92
6748.71
6878.84
6983.51
7067.36
7134.71
7189.47
14594
22072.5
25348.6
26555.8
26812.9
26642.3
26278.9
25830.8
25350.9
24866.6
24393.7
23941.5
23516.3
23121.4
22758.1
22426.5
22124.2
21850.6
682.557
686.354
699.59
710.806
723.215
738.015
755.386
775.663
799.562
823.999
844.003
856.942
862.022
859.37
850.23
837.863
828.109
833.934
868.43
940.355
1055.15
1215.5
1423.18
1680.65
1990.13
2344.35
2717.25
3072.58
3385
3649.66
3873.63
4064.06
4223.74
4352.38
4448.84
4511.81
4540.11
4533
4490.15
4411.56
4297.69
4149.85
3970.08
3759.56
3538.59
3310.05
3076.36
2840.67
2606.48
2377.56
2157.82
1951.04
1761.24
1592.53
1448.9
1334.25
1252.49
1207.76
1205.45
1249.24
1325.86
1435.5
1576.02
1744.36
1936.7
2148.36
2372.95
2603.82
2824.9
2986.57
3078.86
3087.74
3006.35
2854.02
2678.82
2524.66
2400.29
2287.56
2169.95
2050.95
1954.32
1911.02
1946.93
2077.62
2305.85
2624.21
3016.64
3423.48
3844.73
4274.26
4698.76
5105.99
5485.1
5826.71
6124.39
6373.64
6569.06
6706.14
6782.78
6798.48
6752.89
6645.97
6478.28
6251.1
5963.82
5644.7
5297.46
4926.1
4535.87
4132.8
3723.24
3313.33
2910.41
2526.36
2171.97
1858.24
1595.91
1395.83
1268.48
1224.01
1272.14
1416.85
1625.47
1900.51
2233.47
2614.11
3030.89
3471.69
3926.7
4381.88
4823.34
5238.63
5616.83
5948.41
6225.03
6417.17
6511.04
6523.62
6468.96
6359.09
6204.7
6015.87
5802.06
5571.97
5333.32
5092.72
4855.7
4626.68
4409.11
4205.5
4017.56
3846.37
3692.39
3555.51
3434.99
3329.43
3236.93
3155.27
3082.13
3015.35
2953.15
2894.31
2838.31
2785.27
2735.97
2691.61
2653.52
2622.86
2600.29
2585.8
2578.65
2577.47
2580.5
2585.75
2591.72
2596.31
2599.55
2596.17
2594.55
2564.32
1240.21
1094.74
1002.56
928.747
867.37
814.424
767.778
726.596
691.095
665.89
654.095
654.459
664.73
682.093
703.769
728.102
758.137
806.072
872.496
965.716
1088.67
1237.12
1399.21
1558.28
1698.54
1809.32
1884.37
1920.4
1918.98
1886.99
1832.68
1762.17
1679.42
1587.65
1490.16
1390.58
1293
1201.71
1120.94
1054.62
1006.13
977.72
970.007
984.166
999.255
1014.56
1029.87
1044.94
1059.61
1073.72
1087.07
1099.52
1110.96
1121.3
1130.3
1137.64
1142.7
1144.35
1140.7
1128.49
1108.35
1079.53
1041.59
996.188
947.416
899.622
857.211
828.255
838.525
922.217
1045.88
1171.53
1262.58
1300.42
1286.71
1248.05
1228.57
1261.22
1347.44
1470.35
1616.26
1779.43
1957.59
2147.05
2337.3
2494.84
2623.51
2722.91
2792
2829.62
2835.87
2812.28
2761.73
2688.45
2590.2
2460.64
2306.85
2138.77
1965.76
1795.7
1635.82
1492.9
1372.69
1278.73
1218.67
1165.15
1116.47
1072.42
1033.13
999.349
973.482
961.51
963.344
966.646
970.512
974.768
979.283
983.828
988.083
991.47
992.87
991.715
989.238
986.353
984.543
986.938
1009.59
1070.08
1147.54
1232.38
1324.11
1424.09
1533.34
1652.15
1781.47
1936.4
2103.45
2252.81
2374.99
2467.06
2529.49
2564.43
2574.85
2564.03
2535.07
2490.51
2432.15
2361.34
2279.63
2189.55
2094.84
1999.85
1908.51
1823.6
1746.57
1677.8
1617.01
1563.54
1516.47
1474.65
1436.8
1401.8
1368.83
1337.57
1308.18
1281.22
1257.49
1237.85
1222.99
1213.18
1208.13
1207.07
1208.88
1212.4
1216.55
1220.33
1223.24
1224.19
1227.01
1231.04
1918.51
1501.4
1268.46
1111.02
998.994
914.721
847.757
792.199
745.043
704.845
672.571
650.461
640.356
643.465
660.158
689.799
734.181
810.669
903.649
1009.65
1121.24
1224.28
1303.83
1352.58
1372.43
1368.44
1344.48
1304.56
1254
1198.63
1143.27
1091.11
1044.23
1004.12
971.846
948.052
932.836
925.706
925.636
931.211
940.833
952.935
966.197
979.669
992.872
1005.69
1018
1029.69
1040.65
1050.75
1059.87
1068.08
1075.62
1082.77
1089.82
1097.07
1104.62
1112.23
1119.12
1123.65
1122.15
1110.43
1084.93
1044.11
989.724
927.244
862.854
801.613
749.089
715.616
714.464
746.01
799.979
861.818
924.542
996.463
1094.33
1225.9
1382.3
1546.37
1702.7
1841.32
1956.17
2035.04
2074.69
2081.32
2058.43
2008.65
1935.28
1842.14
1733.64
1614.7
1490.43
1365.62
1244.08
1130.7
1031.39
950.206
888.255
844.888
818.429
806.377
805.913
814.374
825.838
838.006
850.597
863.414
876.304
889.159
901.919
914.575
926.921
938.574
949.375
959.147
967.56
974.077
977.836
977.532
971.909
962.982
951.044
936.466
919.852
901.682
882.912
864.571
846.941
830.633
816.646
806.071
799.935
799.194
804.822
819.491
856.884
916.442
990.003
1069.54
1147.76
1219.17
1280.19
1329.03
1365.31
1389.7
1403.38
1407.61
1403.44
1391.68
1373.07
1348.38
1318.48
1284.36
1247.22
1208.64
1170.35
1133.73
1099.58
1067.99
1038.56
1010.67
983.751
957.479
931.839
907.108
883.768
862.378
843.445
827.34
814.238
804.114
796.774
791.904
789.081
787.967
788.4
790.561
796.69
808.394
2626.28
1806.82
1407.43
1175.93
1032.77
936.954
866.504
809.86
761.345
718.729
682.316
653.672
635.153
629.871
640.474
668.418
715.9
804.613
907.888
1009.17
1097.07
1158.34
1185.54
1182.52
1160.47
1129.36
1095.18
1061.76
1031.49
1005.51
984.211
967.634
955.664
948.06
944.408
944.085
946.356
950.529
956.025
962.365
969.197
976.297
983.526
990.817
998.12
1005.2
1011.8
1017.62
1022.36
1025.75
1027.68
1028.31
1027.96
1027.13
1026.62
1027.42
1030.62
1037.19
1047.65
1061.79
1078.1
1091.74
1092.76
1074.92
1036.19
980.062
914.348
846.581
783.082
730.26
696.829
690.432
714.664
770.457
858.915
982.994
1140.29
1313.33
1475.43
1607.66
1703.46
1761.08
1778.47
1762.7
1719.95
1654.92
1572.21
1476.53
1372.84
1266.27
1161.82
1064.09
976.924
903.091
844.177
800.752
772.132
756.482
751.304
754.04
762.367
774.334
788.42
803.498
818.551
833.316
847.613
861.317
874.37
886.725
898.284
909.123
919.352
929.035
938.157
946.58
954.025
959.932
963.4
963.134
958.928
951.321
940.442
926.604
910.067
891.058
869.844
846.797
822.66
798.308
774.562
752.24
732.339
715.974
704.196
698.014
699.076
709.88
729.671
757.304
790.624
826.867
863.174
897.049
926.677
951.054
969.912
983.495
992.277
996.755
997.373
994.557
988.797
980.708
971.045
960.606
950.063
939.757
929.592
919.107
907.665
894.675
879.77
862.902
844.369
824.756
804.83
785.395
767.171
750.707
736.331
724.157
714.133
706.12
699.903
695.363
692.413
691.301
692.626
697.605
3286.96
1958.73
1404.36
1135.07
993.843
910.578
852.875
805.667
762.206
721.398
684.734
653.91
631.837
622.225
628.477
653.138
699.003
788.813
891.496
983.639
1054.12
1092.87
1099.17
1083.66
1060.4
1038.78
1022.31
1010.65
1001.89
994.505
988.1
982.799
978.764
976.013
974.419
973.801
973.995
974.861
976.308
978.358
981.027
984.268
987.986
992.057
996.664
1001.48
1006.1
1010.04
1012.79
1013.78
1012.65
1009.21
1003.48
995.879
987.324
979.317
973.873
973.26
979.534
993.913
1016.16
1043.8
1069.57
1078.28
1061.35
1018.81
958.208
890.025
823.447
766.342
726.704
714.139
735.481
797.516
904.911
1054.53
1227.3
1389.1
1509.33
1578.14
1600.55
1586.3
1545.73
1485.03
1409.22
1323.04
1231.19
1138.35
1048.98
967.006
895.572
836.746
791.431
759.42
739.59
730.208
729.206
734.5
744.229
756.864
771.206
786.34
801.575
816.306
830.409
843.733
856.125
867.389
877.537
886.679
894.987
902.682
909.989
917.142
924.221
931.221
937.774
943.453
947.255
948.162
946.004
940.633
931.949
920.033
905.051
887.203
866.766
844.205
820.139
795.164
769.784
744.454
719.776
696.656
676.316
660.21
649.924
647.064
651.308
661.829
677.353
696.261
716.759
737.081
755.705
771.512
783.853
792.519
797.619
799.468
798.494
795.233
790.367
784.76
779.441
775.473
773.755
774.805
778.558
784.311
790.849
796.71
800.498
801.169
798.197
791.605
781.891
769.882
756.539
742.786
729.384
716.884
705.628
695.8
687.452
680.622
675.305
671.834
670.234
671.337
3825.44
1960.12
1307.28
1051.38
942.367
886.56
848.218
813.262
775.871
735.978
697
662.016
635.173
620.631
622.175
642.89
686.229
773.883
870.449
953.83
1014.03
1044.94
1050.54
1043.2
1034.98
1031.31
1031.12
1030.71
1027.66
1022.04
1015.03
1007.71
1000.66
994.075
988.051
982.663
978.02
974.229
971.398
969.678
969.189
969.951
971.894
974.841
979.018
984.011
989.369
994.61
999.169
1002.37
1003.5
1001.78
996.584
987.61
975.2
960.621
946.291
935.659
932.662
940.665
961.234
993.284
1032
1065.91
1075.35
1051.55
999.891
933.608
866.402
809.169
771.098
763.363
793.495
867.935
987.706
1139.91
1293.53
1410.79
1470.52
1476.45
1446.42
1395.75
1330.52
1255.42
1174.77
1092.69
1013.09
939.478
874.695
820.699
778.459
747.995
728.527
718.672
716.703
720.809
729.288
740.668
753.761
767.653
781.657
795.247
807.98
820.087
831.515
842.02
851.468
859.809
867.075
873.386
878.991
884.14
889.131
894.198
899.417
904.973
910.285
915.302
918.592
920.063
919.212
915.679
909.283
900.01
887.951
873.26
856.146
836.9
815.879
793.412
769.743
745.086
719.695
693.992
668.742
645.138
624.898
610.427
603.318
603.584
610.327
621.971
636.613
652.337
667.443
680.597
690.882
697.793
701.164
701.098
697.891
692.004
684.074
674.926
665.582
657.217
651.036
648.098
649.127
654.305
663.157
674.569
686.957
698.581
707.894
713.759
715.571
713.295
707.395
698.68
688.145
676.802
665.529
654.981
645.554
637.484
630.816
625.832
622.457
621.597
4201.61
1855.13
1186.23
985.854
920.834
891.606
868.737
842.998
810.665
771.505
729.308
688.144
653.608
631.45
626.442
642.111
684.159
766.292
854.609
930.84
986.781
1019.26
1033.84
1041.21
1048.86
1057.08
1061.67
1059.64
1051.61
1040.02
1027.06
1013.88
1000.99
988.57
976.832
966.062
956.565
948.637
942.593
938.667
936.941
937.361
939.758
943.894
949.289
955.544
962.338
969.393
976.409
983.001
988.554
992.106
992.466
988.359
978.816
963.803
944.867
925.611
911.499
908.598
921.513
951.59
995.802
1045.27
1083.04
1085.94
1049.3
987.523
920.437
863.987
829.697
829.008
868.866
951.221
1069.58
1201.92
1313.46
1374.54
1379.22
1343.71
1290.29
1226.22
1155.79
1082.72
1010.43
942.051
880.261
827.074
783.735
750.677
727.637
713.81
707.926
708.398
713.588
721.968
732.233
743.379
754.718
765.858
776.63
787.017
797.177
807.3
817.012
826.016
834.05
840.967
846.745
851.517
855.493
858.966
862.294
865.816
869.508
873.823
877.786
881.283
883.845
884.936
884.097
881.041
875.663
868.015
858.243
846.532
833.069
818.031
801.555
783.701
764.422
743.593
721.099
696.928
671.309
644.873
618.792
595.083
576.593
565.025
560.979
563.908
572.355
584.368
597.908
611.16
622.692
631.511
637.023
638.974
637.376
632.463
624.657
614.568
602.991
590.897
579.393
569.639
562.731
559.535
560.496
565.493
573.773
584.033
594.633
603.975
610.79
614.15
613.656
609.46
602.159
592.658
581.968
571.023
560.544
551.019
542.672
535.769
530.337
527.12
4390.3
1704.12
1089.55
959.313
930.341
917.274
902.456
882.058
854.453
818.646
774.454
727.275
685.026
655.233
643.643
654.717
696.642
769.983
850.206
921.345
976.286
1013.7
1038.62
1057.89
1073.89
1083.7
1083.55
1073.72
1057.7
1038.94
1019.48
1000.22
981.562
963.902
947.693
933.458
921.78
913.101
907.614
905.249
905.74
908.687
913.64
920.148
926.947
933.784
940.579
947.388
954.36
961.642
969.205
976.65
982.973
986.444
984.846
976.149
959.529
936.855
913.507
897.658
897.704
918.928
961.457
1019.24
1078.04
1114.08
1104.04
1053.99
988.985
933.104
901.668
905.011
947.988
1026.67
1127.42
1223.95
1286.19
1298.24
1266.98
1214.37
1153.92
1089.25
1023.6
959.786
900.251
847.018
801.524
764.585
736.407
716.724
704.922
699.981
700.503
704.925
711.778
719.839
728.237
736.518
744.626
752.801
761.407
770.685
780.863
791.212
801.144
810.172
817.892
824.056
828.673
831.971
834.283
836.055
837.72
839.758
841.95
844.397
846.84
848.862
849.951
849.642
847.612
843.731
838.049
830.757
822.112
812.37
801.739
790.341
778.198
765.2
751.095
735.504
717.975
698.082
675.55
650.439
623.302
595.391
569.115
547.102
531.344
522.865
521.528
526.197
535.115
546.322
557.99
568.618
577.091
582.669
584.94
583.768
579.251
571.692
561.584
549.594
536.552
523.424
511.249
501.044
493.669
489.671
489.154
491.694
496.34
501.788
506.633
509.615
509.943
507.249
501.605
493.475
483.607
472.88
462.117
451.986
442.925
435.264
429.068
424.661
4391.47
1545.76
1031.67
963.099
955.173
948.748
936.946
919.258
894.658
861.627
817.798
768.88
723.258
689.504
674.479
684.174
723.417
787.613
859.785
926.187
980.421
1021.58
1052.73
1076.49
1091.75
1095.41
1086.75
1068.82
1045.99
1021.51
997.054
973.412
951.224
931.314
914.557
901.7
893.175
888.962
888.648
891.583
897.018
904.201
912.432
920.8
928.246
934.59
939.791
944.007
947.646
951.371
955.978
962.104
969.789
978.023
984.488
985.675
977.803
959.102
932.279
905.46
890.004
896.016
928.661
986.261
1058.3
1123.45
1151.71
1126.81
1069.37
1012.78
980.097
980.949
1017.19
1080.04
1151.88
1207.88
1227.46
1207.14
1159.94
1103.02
1044
984.927
928.166
875.616
828.752
788.581
755.626
729.974
711.427
699.686
694.1
693.527
696.533
701.675
707.736
713.91
719.885
725.832
732.265
739.793
748.851
759.478
770.947
782.265
792.635
801.445
808.271
812.975
815.719
816.968
817.201
817
816.863
817.07
817.681
818.55
819.309
819.466
818.525
816.131
812.136
806.61
799.798
792.053
783.749
775.211
766.66
758.184
749.726
741.068
731.84
721.518
709.457
694.945
677.314
656.099
631.265
603.384
573.984
545.481
520.418
500.944
488.317
482.709
483.31
488.65
496.98
506.589
515.995
524.031
529.841
532.862
532.79
529.559
523.316
514.4
503.332
490.794
477.595
464.626
452.766
442.777
435.176
430.136
427.45
426.515
426.395
426.102
424.724
421.62
416.513
409.473
400.853
391.207
381.155
371.275
362.034
353.789
346.739
341.066
4224.12
1374.81
1007.66
982.27
983.478
978.865
967.935
951.576
928.762
897.748
856.584
810.4
766.493
733.524
718.989
727.901
762.393
817.643
881.143
941.583
993.027
1033.96
1065.08
1086.09
1094.87
1090.04
1073.49
1049.48
1022.15
994.19
967.115
942.028
920.12
902.592
890.338
883.689
882.346
885.532
892.221
901.322
911.808
922.789
933.545
943.117
951.277
957.708
962.057
964.089
963.906
962.16
960.137
959.55
962.006
968.288
977.547
986.556
989.725
981.056
958.28
926.506
897.591
885.492
900.962
948.034
1022.2
1107.47
1174.38
1190.79
1154.33
1098.22
1058.01
1048.32
1068.91
1108.02
1147.64
1167.95
1157.7
1120.58
1069.39
1014.83
960.827
909.235
861.98
820.088
783.922
753.738
729.502
710.996
698.2
690.993
688.665
690.005
693.623
698.277
703.11
707.792
712.545
717.979
724.81
733.546
744.208
756.237
768.368
779.662
789.243
796.598
801.433
803.869
804.174
803.03
801.149
799.123
797.396
796.194
795.467
794.912
794.024
792.238
789.106
784.42
778.241
770.855
762.7
754.271
746.035
738.359
731.459
725.383
719.996
715
709.944
704.241
697.176
687.924
675.601
659.383
638.703
613.529
584.611
553.65
523.035
495.322
472.673
456.429
446.932
443.627
445.329
450.544
457.746
465.551
472.806
478.603
482.263
483.338
481.603
477.048
469.868
460.443
449.318
437.161
424.716
412.717
401.797
392.393
384.675
378.513
373.539
369.23
364.948
360.142
354.428
347.631
339.792
331.135
322.02
312.859
304.042
295.897
288.648
282.443
3907.06
1237.48
1010.39
1005.75
1009.87
1005.69
994.988
979.275
957.916
929.549
893.416
853.385
815.136
786.088
773.007
780.35
809.178
855.16
908.909
961.286
1006.74
1042.95
1068.86
1082.98
1083.72
1071.47
1049.4
1021.8
992.277
963.238
936.405
913.363
895.599
884.14
879.25
880.409
886.532
896.262
908.223
921.194
934.197
946.487
957.543
967.779
977.529
986.233
993.016
996.813
996.668
992.264
984.514
975.726
968.895
966.723
970.821
980.585
991.398
994.482
981.599
952.315
916.097
888.065
883.136
910.925
973.713
1064.1
1159.56
1223.36
1228.75
1185.5
1135.09
1107.27
1105.82
1118.14
1128.03
1121.21
1092.74
1048.43
997.942
947.681
900.275
857.123
819.047
786.086
758.103
734.85
715.953
701.358
691.682
686.898
686.143
688.201
691.785
695.884
699.997
704.208
709.074
715.325
723.5
733.685
745.367
757.381
768.606
778.127
785.357
790.049
791.933
791.646
789.666
786.601
783.134
779.847
777.138
775.117
773.564
771.985
769.734
766.225
761.117
754.397
746.34
737.435
728.271
719.438
711.451
704.684
699.331
695.378
692.615
690.657
688.984
686.981
683.94
679.053
671.409
660.038
644.044
622.876
596.625
566.195
533.46
500.863
470.916
445.698
426.508
413.75
407.039
405.432
407.686
412.475
418.55
424.818
430.366
434.448
436.503
436.177
433.331
428.032
420.543
411.287
400.814
389.737
378.661
368.102
358.416
349.754
342.061
335.112
328.579
322.112
315.408
308.254
300.567
292.394
283.902
275.34
266.984
259.095
251.868
245.461
3482.74
1176.63
1020.51
1026.41
1032.9
1029.52
1019.21
1004.18
984.537
959.599
929.257
896.412
865.134
841.082
829.849
835.188
857.742
893.996
936.935
979.317
1016.11
1044.48
1062.61
1068.89
1062.63
1045.25
1020.14
991.186
961.582
933.74
909.677
891.162
879.408
874.726
876.478
883.31
893.5
905.342
917.491
929.165
940.114
950.415
960.109
971.039
983.351
996.449
1009.28
1020.19
1026.95
1027.29
1020.13
1007.08
992.078
979.624
973.362
975.738
985.921
996.377
994.793
973.595
937.343
899.642
876.844
882.491
923.695
1001.04
1103.94
1205.36
1266.24
1262.43
1214.36
1165.82
1138.15
1123.26
1107.56
1080.94
1041.44
994.168
945.7
900.087
859.105
823.397
792.851
766.901
744.948
726.4
710.75
698.375
690.143
686.174
685.791
687.878
691.27
695.124
699.161
703.681
709.362
716.861
726.377
737.457
748.892
759.019
767.308
773.259
776.78
777.916
776.936
774.297
770.509
766.166
761.892
758.198
755.349
753.263
751.499
749.367
746.138
741.301
734.694
726.516
717.238
707.496
697.963
689.269
681.943
676.351
672.648
670.746
670.334
670.926
671.932
672.717
672.617
670.921
666.814
659.357
647.55
630.537
607.869
579.729
547.34
512.738
478.386
446.69
419.562
398.174
382.913
373.496
369.171
368.912
371.588
376.087
381.393
386.608
390.953
393.796
394.694
393.409
389.916
384.379
377.127
368.607
359.323
349.768
340.357
331.378
322.959
315.081
307.609
300.346
293.091
285.673
277.991
270.029
261.864
253.647
245.57
237.835
230.604
224.015
3019.13
1129.66
1026.58
1041.49
1051.42
1049.98
1040.84
1026.96
1009.35
988.021
963.274
937.236
912.662
893.509
883.945
886.901
902.875
929.271
960.991
992.472
1019.39
1038.88
1049.01
1048.48
1037.23
1016.99
990.878
962.306
934.228
909.113
889.054
875.566
869.209
869.444
874.807
883.255
892.678
901.502
909.068
915.604
921.928
929.111
938.083
949.877
964.296
981.158
999.935
1019.29
1036.7
1048.39
1050.26
1041.2
1024.12
1004.72
988.449
979.752
981.617
990.877
995.642
983.162
952.139
911.986
877.641
863.221
879.596
932.992
1022.93
1136.4
1242.24
1298.96
1286.5
1231.85
1178.31
1136.42
1097.85
1055.37
1007.7
958.299
911.371
869.495
833.643
803.712
778.915
758.199
740.578
725.194
711.542
700.212
692.263
688.122
687.377
689.108
692.286
696.193
700.639
705.933
712.614
721.017
730.848
741.067
750.178
757.052
761.399
763.245
762.844
760.578
756.892
752.299
747.325
742.501
738.326
735.138
732.977
731.504
730.039
727.746
723.922
718.229
710.721
701.783
692.036
682.17
672.884
664.832
658.564
654.444
652.575
652.765
654.562
657.351
660.455
663.235
665.107
665.503
663.781
659.134
650.589
637.175
618.052
592.872
562.221
527.603
491.197
455.432
422.531
394.177
371.361
354.401
343.069
336.75
334.597
335.65
338.921
343.468
348.412
352.956
356.435
358.354
358.419
356.54
352.813
347.493
340.937
333.549
325.722
317.778
309.937
302.299
294.857
287.532
280.209
272.779
265.166
257.352
249.386
241.378
233.481
225.854
218.639
211.952
2555.18
1086.49
1025.43
1048.66
1063.62
1065.92
1059.42
1047.69
1032.59
1014.78
995.033
974.817
955.876
940.759
932.31
932.654
942.24
959.334
980.401
1001.35
1018.69
1029.89
1033.17
1027.57
1013.27
991.923
966.21
939.093
913.333
891.352
875.077
865.573
862.769
865.481
871.636
878.761
884.794
888.771
890.982
892.654
895.439
900.874
910.274
922.259
936.857
954.598
975.832
1000.14
1025.69
1048.68
1062.98
1064.4
1053.04
1033.41
1011.8
993.835
984.652
985.467
988.376
980.692
955.572
916.808
876.254
847.833
843.144
870.653
935.531
1036
1156.93
1264.46
1316.24
1295.26
1232.78
1167.77
1107.55
1049.8
993.571
940.668
893.475
853.411
820.686
794.564
773.741
756.744
742.23
729.07
716.733
705.812
697.497
692.538
690.88
691.875
694.681
698.649
703.535
709.459
716.659
725.107
734.188
742.622
748.686
751.57
751.557
749.141
744.95
739.615
733.728
727.842
722.454
717.985
714.744
712.817
711.947
711.504
710.608
708.387
704.298
698.204
690.341
681.218
671.504
661.914
653.19
646.059
641.127
638.756
638.954
641.36
645.315
650.024
654.72
658.777
661.738
663.242
662.889
660.086
653.964
643.506
627.566
605.432
577.143
543.668
506.812
468.865
432.149
398.64
369.748
346.255
328.388
315.938
308.386
305.021
305.017
307.493
311.561
316.363
321.103
325.108
327.866
329.058
328.56
326.424
322.837
318.075
312.445
306.241
299.7
292.976
286.145
279.211
272.139
264.884
257.413
249.733
241.898
234.012
226.211
218.643
211.437
204.697
2127.51
1045.97
1014.81
1045.36
1066.98
1075.24
1073.64
1065.85
1054.38
1040.33
1025.12
1009.78
995.338
983.325
975.514
973.354
977.283
986.306
998.135
1009.91
1018.97
1023.22
1021.21
1012.15
996.269
974.917
950.297
924.962
901.443
882.012
868.373
861.267
860.294
863.938
869.753
875.05
878.004
878.228
876.688
875.541
877.494
883.561
893.201
904.259
917.314
933.444
953.72
978.596
1007.1
1036.07
1060.07
1073.03
1071.43
1056.96
1035.19
1012.17
993.84
984.233
979.875
970.17
946.525
909.107
866.115
829.527
810.09
816.074
854.251
928.536
1036.22
1160.83
1267.3
1313.75
1284.98
1217.13
1141.33
1068.41
1001.46
942.115
891.621
850.471
818.211
793.583
774.851
760.157
747.799
736.36
725.119
714.469
705.569
699.432
696.405
696.201
698.209
701.836
706.705
712.668
719.613
727.201
734.635
740.587
743.325
742.442
738.48
732.344
725.048
717.43
710.175
703.845
698.864
695.501
693.829
693.623
694.3
694.97
694.653
692.57
688.377
682.122
674.163
665.057
655.475
646.207
638.124
632.088
628.78
628.512
631.105
635.915
641.997
648.34
654.088
658.662
661.776
663.34
663.284
661.337
656.861
648.81
635.819
616.808
591.314
559.787
523.625
484.905
445.947
408.894
375.433
346.685
323.228
305.195
292.372
284.31
280.391
279.882
281.98
285.845
290.641
295.589
300.03
303.46
305.564
306.203
305.39
303.249
299.971
295.772
290.851
285.372
279.447
273.141
266.487
259.5
252.204
244.64
236.887
229.058
221.292
213.733
206.511
199.728
1766.26
1008.82
993.826
1029.36
1058.29
1074.37
1080.12
1078.91
1073.33
1064.77
1054.99
1044.72
1034.57
1025.37
1018.18
1014.04
1013.47
1015.99
1020.23
1024.38
1026.57
1025.25
1019.18
1007.54
990.638
969.641
946.321
922.801
901.287
883.793
871.769
865.754
865.233
868.612
873.478
877.415
878.995
878.239
876.381
875.35
876.85
881.915
889.756
898.946
909.738
923.277
941.05
964.221
992.72
1024.24
1053.78
1074.62
1081.35
1073.17
1053.78
1028.64
1003.86
984.837
970.976
954.428
927.28
888.431
843.757
802.729
774.554
765.703
781.84
828.973
909.82
1020.86
1145.03
1247.93
1289.19
1259.81
1192.17
1112.51
1035.05
966.17
908.344
862.078
826.639
800.445
781.424
767.353
756.143
746.023
735.905
725.759
716.464
709.111
704.399
702.454
702.967
705.45
709.426
714.487
720.207
725.993
730.955
733.837
733.261
729.292
722.571
714.115
705.031
696.328
688.797
682.977
679.181
677.496
677.729
679.337
681.442
682.993
683.042
680.994
676.666
670.232
662.094
652.819
643.154
634.065
626.653
621.966
620.722
623.064
628.473
635.901
644.057
651.726
657.995
662.361
664.72
665.268
664.313
662.013
658.116
651.703
641.333
625.578
603.436
574.753
540.42
502.209
462.369
423.153
386.461
353.682
325.672
302.833
285.213
272.596
264.577
260.604
260.013
262.052
265.918
270.804
275.963
280.765
284.736
287.573
289.121
289.35
288.313
286.118
282.895
278.773
273.873
268.294
262.123
255.436
248.309
240.832
233.114
225.289
217.504
209.911
202.643
195.804
1487.27
975.485
961.613
997.968
1033.78
1058.94
1074.16
1081.93
1084.48
1083.55
1080.52
1076.13
1070.8
1064.92
1059.07
1054.07
1050.67
1049.04
1048.5
1047.73
1045.13
1039.73
1030.75
1017.61
1000.37
979.919
957.691
935.444
915.056
898.273
886.394
879.964
878.598
880.923
884.847
888.303
890.064
890.097
889.321
889.006
890.16
893.563
898.631
905.097
913.352
924.461
939.977
961.366
989.026
1021.15
1053.04
1077.89
1089.55
1085.71
1068.23
1041.28
1010.78
982.784
958.216
931.512
896.708
853.218
805.95
762.333
729.434
711.779
712.581
736.949
790.066
874.131
985.158
1106.57
1205.85
1243.98
1220.46
1159.06
1083.28
1008.52
942.577
888.447
846.435
815.333
793.099
777.34
765.66
755.931
746.624
737.16
727.924
719.805
713.631
709.839
708.425
709.071
711.303
714.571
718.246
721.566
723.6
723.215
719.65
713.259
704.745
695.174
685.683
677.276
670.688
666.365
664.483
664.921
667.207
670.502
673.718
675.78
675.884
673.622
668.929
661.984
653.171
643.145
632.911
623.792
617.234
614.452
616.052
621.792
630.622
640.994
651.281
660.122
666.601
670.291
671.226
669.826
666.753
662.659
657.836
651.756
643.081
630.143
611.439
586.166
554.594
518.064
478.647
438.633
400.094
364.638
333.347
306.832
285.338
268.834
257.094
249.734
246.247
246.007
248.297
252.343
257.376
262.697
267.726
272.031
275.318
277.415
278.241
277.784
276.083
273.212
269.271
264.376
258.649
252.217
245.21
237.764
230.023
222.143
214.289
206.618
199.271
192.354
1312.34
953.325
927.477
958.313
997.676
1030.87
1056.17
1074.64
1087.8
1096.65
1102.23
1105.23
1105.97
1104.6
1101.36
1096.95
1092.45
1088.34
1084.28
1080.15
1074.78
1066.99
1056.18
1042.01
1024.56
1004.49
982.915
961.278
941.156
924.075
911.245
903.303
900.098
900.612
903.178
906.056
908.07
908.906
908.974
908.983
909.642
911.581
914.497
918.749
925.04
934.564
948.948
969.717
997.27
1029.71
1062.19
1087.84
1100.43
1097.09
1078.41
1047.62
1010.78
974.172
939.104
901.527
857.699
808.425
758.398
713.591
679.063
657.625
650.602
660.874
693.289
752.291
839.36
949.772
1067.23
1158.58
1194.35
1176.58
1123.62
1055.74
987.488
926.891
877.247
839.001
810.961
791.061
776.892
766.099
756.76
747.732