/*--------------------------------*- C++ -*----------------------------------*\
| =========                 |                                                 |
| \\      /  F ield         | OpenFOAM: The Open Source CFD Toolbox           |
|  \\    /   O peration     | Version:  2112                                  |
|   \\  /    A nd           | Website:  www.openfoam.com                      |
|    \\/     M anipulation  |                                                 |
\*---------------------------------------------------------------------------*/
FoamFile
{
    version     2.0;
    format      ascii;
    arch        "LSB;label=32;scalar=64";
    class       volScalarField;
    location    "0.034";
    object      nut;
}
// * * * * * * * * * * * * * * * * * * * * * * * * * * * * * * * * * * * * * //

dimensions      [0 2 -1 0 0 0 0];

internalField   nonuniform List<scalar> 
12225
(
2.51948e-09
0
0
0
0
0
0
0
0
0
0
0
0
0
0
0
0
0
1.00901e-09
0
0
0
0
0
0
0
0
0
0
0
0
0
0
0
0
0
9.90475e-10
0
0
0
0
5.35877e-11
5.73029e-10
3.98565e-10
0
0
0
0
0
0
0
0
0
0
1.4117e-08
9.75578e-09
5.94794e-09
0
1.41085e-09
5.76963e-09
7.9105e-09
5.41481e-09
7.75774e-10
0
0
0
0
0
0
0
0
0
4.05622e-07
7.63795e-07
3.26078e-07
0
0
0
0
3.40104e-07
4.44485e-07
3.43182e-07
0
0
0
0
0
9.91043e-09
9.59913e-09
1.11105e-08
2.72253e-07
1.07568e-06
1.49985e-07
0
0
0
0
2.62063e-07
4.96028e-07
0
0
0
0
0
0
0
0
0
0
6.5075e-07
0
0
0
0
0
0
0
0
0
0
0
2.39462e-07
4.19486e-07
0
0
0
0
0
0
0
0
0
0
0
0
0
0
0
3.77986e-07
1.15597e-06
1.1418e-06
2.36953e-07
0
0
0
0
0
0
0
0
0
0
0
0
0
4.57947e-07
5.35847e-07
5.85258e-07
4.03803e-07
1.67713e-07
0
0
0
0
0
0
0
0
0
0
0
0
0
3.15302e-07
1.51384e-07
5.44436e-08
1.21488e-08
9.79495e-09
6.78714e-09
2.47229e-09
0
0
0
0
0
0
0
0
0
0
0
0
0
0
0
0
0
0
1.32e-06
1.35709e-06
9.89643e-08
0
0
0
0
0
0
0
0
0
0
0
0
0
0
0
1.39194e-06
1.2261e-06
7.30576e-07
0
0
0
0
0
0
0
0
0
0
1.0018e-07
0
0
0
0
1.00095e-06
1.51766e-06
8.85363e-07
1.44418e-07
2.28444e-07
1.28798e-08
0
0
0
0
0
0
0
2.03854e-07
1.63412e-07
0
0
0
0
0
6.12833e-08
6.16041e-08
6.51756e-07
1.32158e-06
1.35677e-07
0
0
0
0
0
0
0
2.33876e-07
0
0
0
0
0
0
0
3.67175e-09
3.41629e-07
4.19115e-07
5.51682e-07
7.21379e-07
7.12872e-07
4.88644e-07
1.57257e-07
0
0
1.29035e-07
0
0
0
2.22776e-07
0
0
0
1.42627e-07
5.33947e-07
8.53399e-07
1.24237e-06
1.29701e-06
1.00379e-06
4.85485e-07
0
0
0
0
0
0
0
1.14837e-06
1.10243e-06
1.30843e-06
2.77598e-06
1.52385e-06
6.4709e-07
8.60327e-07
1.64802e-06
2.38415e-06
1.87785e-06
0
0
0
0
4.4747e-06
3.03423e-06
6.06929e-07
0
4.99567e-07
0
0
0
2.34439e-06
1.66349e-06
1.03852e-06
6.71636e-07
2.3159e-07
0
0
0
0
0
0
0
0
0
2.98908e-07
0
0
0
0
7.69324e-07
0
0
0
0
0
0
0
0
0
0
0
0
7.57904e-08
5.43142e-08
0
0
1.80109e-06
3.39252e-06
2.04254e-06
7.50463e-07
0
0
0
1.45514e-07
2.22244e-07
1.95357e-07
1.13563e-07
0
0
0
0
9.08027e-07
2.48272e-06
2.60094e-06
2.9058e-06
2.2764e-06
9.77481e-07
1.50243e-07
0
0
2.42504e-07
5.58698e-07
7.61504e-07
8.39753e-07
7.75619e-07
5.1327e-07
3.56841e-08
0
5.47108e-07
1.01029e-06
1.89589e-06
1.8849e-06
2.02421e-06
8.79522e-07
0
0
0
0
0
5.12116e-07
8.13989e-07
8.27201e-07
5.37634e-07
2.22506e-08
0
0
1.01374e-07
3.5414e-07
9.86107e-07
1.15031e-06
5.07402e-07
0
0
0
0
0
0
2.74441e-07
5.88458e-07
2.60581e-07
0
0
0
0
0
0
0
0
0
0
5.22433e-08
0
0
0
0
0
9.60265e-08
0
0
0
0
0
8.31285e-07
0
0
0
0
0
0
0
0
0
0
0
0
0
0
0
0
0
4.26324e-08
4.45907e-08
4.2205e-08
1.0152e-09
0
0
0
0
0
0
0
0
0
0
0
0
0
0
0
0
3.01153e-10
0
0
0
0
0
0
0
0
0
0
0
0
0
4.18518e-10
1.01566e-09
0
0
0
0
0
0
0
0
0
0
0
0
0
0
0
0
0
0
0
0
0
0
0
0
0
0
0
0
0
0
0
0
0
0
0
0
0
4.96745e-06
1.14042e-05
0
0
0
0
7.29114e-07
2.651e-06
2.38721e-06
1.14702e-06
6.137e-09
0
0
0
0
0
0
0
0
2.24719e-08
0
0
1.32223e-07
1.06012e-06
1.27118e-06
4.78861e-07
4.88905e-06
1.55628e-05
2.77718e-05
1.87534e-05
0
0
0
3.7057e-06
4.28507e-06
0
0
0
0
6.82104e-06
3.80462e-05
3.58882e-05
1.09744e-05
2.61732e-06
4.55099e-07
0
0
7.49983e-08
2.03723e-07
2.90019e-07
3.30351e-07
3.38391e-07
3.24611e-07
2.97079e-07
2.653e-07
2.30875e-07
1.96068e-07
1.62394e-07
1.34714e-07
1.0482e-07
8.32504e-08
5.96397e-08
4.17626e-08
2.52311e-08
9.90162e-09
0
0
0
0
0
0
0
0
0
0
0
0
0
0
0
0
0
0
0
0
0
0
0
0
0
0
0
0
0
0
0
0
0
0
0
0
0
0
0
0
0
0
0
0
0
0
0
0
0
0
0
0
0
0
0
0
0
0
0
0
0
0
0
0
0
0
0
0
0
0
0
0
0
0
0
0
0
0
0
0
0
0
0
0
0
0
0
0
0
0
0
0
0
0
0
0
0
0
0
0
0
0
0
0
0
0
0
0
0
0
0
0
0
0
0
0
0
0
0
0
0
2.68967e-06
4.07945e-06
3.94254e-06
2.718e-06
1.2359e-06
1.19679e-07
0
0
0
0
0
0
1.44396e-07
1.71307e-07
3.70618e-08
0
2.55902e-07
1.07533e-06
0
0
4.36595e-07
5.03843e-06
1.08799e-05
1.84734e-05
7.36278e-06
0
0
9.09714e-06
6.23563e-06
1.06564e-06
0
0
0
0
0
4.1365e-06
3.97974e-06
2.07154e-06
8.4371e-07
3.23063e-07
1.89809e-07
2.05087e-07
2.49371e-07
2.70703e-07
2.75603e-07
2.59522e-07
2.43709e-07
2.20331e-07
2.02102e-07
1.82607e-07
1.66034e-07
1.5015e-07
1.34558e-07
1.18347e-07
1.01911e-07
8.34445e-08
6.37894e-08
4.19563e-08
1.81141e-08
0
0
0
0
0
0
0
0
0
0
0
0
0
0
0
0
0
0
0
0
0
0
0
0
0
0
0
0
0
0
0
0
0
0
0
0
0
0
0
0
0
0
0
0
0
0
0
0
0
0
0
0
0
0
0
0
0
0
0
0
0
0
0
0
0
0
0
0
0
0
0
0
0
0
0
0
0
0
0
0
0
0
0
0
0
0
0
0
0
0
0
0
0
0
0
0
0
0
0
0
0
0
0
0
0
0
0
0
0
0
0
0
0
0
5.03449e-06
4.29638e-06
2.766e-06
2.06266e-06
1.49041e-06
1.65674e-06
2.62745e-06
3.4764e-06
3.81548e-06
3.6346e-06
3.02675e-06
2.04309e-06
7.51836e-07
0
0
0
0
1.58538e-07
1.17239e-06
1.89776e-06
2.00687e-06
1.47207e-06
5.68302e-07
4.11321e-07
1.53831e-06
0
0
2.38684e-06
5.74147e-06
8.83979e-06
1.42787e-05
1.22557e-05
0
0
0
0
0
0
0
0
0
0
1.13955e-06
1.64744e-06
1.02921e-06
7.36723e-07
7.00437e-07
7.57726e-07
8.50124e-07
9.15865e-07
9.38355e-07
9.25714e-07
8.84095e-07
8.28885e-07
7.67839e-07
7.09966e-07
6.5201e-07
5.9937e-07
5.47934e-07
4.95496e-07
4.39749e-07
3.79343e-07
3.13479e-07
2.41033e-07
1.62756e-07
7.79712e-08
0
0
0
0
0
0
0
0
0
0
0
0
0
0
0
0
0
0
0
0
0
0
0
0
0
0
0
0
0
0
0
0
0
0
0
0
0
0
0
0
0
0
0
0
0
0
0
0
0
0
0
0
0
0
0
0
0
8.01016e-10
1.35494e-09
1.40582e-09
1.24096e-09
1.01377e-09
7.84543e-10
5.63785e-10
3.18779e-10
0
0
0
0
0
0
0
0
0
0
0
0
0
0
0
0
0
0
0
0
0
0
0
0
0
0
0
0
0
0
0
0
0
0
0
0
0
0
0
0
0
0
0
0
0
0
0
0
0
9.17502e-06
4.67865e-06
3.50366e-06
3.24516e-06
2.51697e-06
2.44349e-06
2.97941e-06
3.36728e-06
2.92964e-06
1.97577e-06
1.15622e-06
1.14232e-06
2.88803e-06
6.97686e-06
2.51631e-06
0
0
0
0
0
0
0
2.48756e-07
6.60201e-07
3.92271e-06
4.93433e-06
4.15224e-06
6.8627e-06
5.79596e-06
3.46188e-06
1.12249e-06
0
0
0
0
0
1.84559e-07
9.51946e-07
0
0
4.24344e-07
0
4.00448e-07
6.79097e-07
7.39119e-07
1.08676e-06
1.45725e-06
1.67672e-06
1.67191e-06
1.4977e-06
1.25396e-06
1.01665e-06
8.21711e-07
6.72649e-07
5.59834e-07
4.81525e-07
4.27323e-07
3.92321e-07
3.74039e-07
3.71862e-07
3.87169e-07
4.14378e-07
4.38389e-07
4.26885e-07
3.30888e-07
1.28791e-07
0
0
0
0
0
0
0
0
0
0
0
0
0
0
0
0
0
3.69761e-09
7.35432e-09
8.63574e-09
6.94163e-09
2.82372e-09
0
0
0
0
0
0
0
0
0
0
0
0
0
0
0
0
0
0
0
0
0
0
0
0
0
0
0
0
0
0
0
0
0
0
0
0
0
1.34242e-08
8.28124e-08
1.39054e-07
1.75008e-07
1.83719e-07
1.71644e-07
1.52029e-07
1.31432e-07
1.10847e-07
9.02858e-08
7.01299e-08
5.18751e-08
3.7093e-08
2.62323e-08
1.86467e-08
1.32437e-08
9.05764e-09
5.60229e-09
2.75557e-09
5.20214e-10
0
0
0
0
0
0
0
0
0
0
0
0
0
0
0
0
0
0
0
0
0
0
0
0
0
0
0
0
0
0
0
7.28024e-11
0
1.30516e-10
0
7.49416e-06
5.09279e-06
2.56778e-06
1.7521e-06
1.93031e-06
2.4792e-06
1.38751e-06
0
0
0
0
9.74117e-07
1.62094e-06
2.80942e-09
0
0
0
0
0
0
0
2.04462e-06
4.09625e-06
6.63233e-06
1.02361e-05
1.07298e-05
6.44103e-06
2.54147e-06
1.90238e-07
0
0
0
0
0
0
0
5.7526e-07
1.46672e-06
6.2523e-07
8.16931e-07
7.03131e-07
3.66168e-07
1.06702e-06
1.45678e-06
1.56072e-06
1.41945e-06
1.20611e-06
9.76576e-07
7.76611e-07
6.03835e-07
4.63062e-07
3.51302e-07
2.61294e-07
1.88838e-07
1.36747e-07
9.97002e-08
7.89821e-08
7.52525e-08
9.20008e-08
1.34066e-07
2.04713e-07
2.98938e-07
3.9644e-07
4.53554e-07
3.99989e-07
1.68912e-07
0
0
0
0
0
0
0
0
0
0
0
1.98403e-08
2.59964e-08
2.17156e-08
1.1751e-08
5.21635e-12
0
0
0
0
0
0
0
0
0
0
0
0
0
0
0
0
0
0
0
0
0
0
0
0
0
0
0
0
0
0
0
0
0
0
0
0
0
0
0
0
0
0
0
0
0
0
0
0
0
0
0
0
0
0
0
0
0
0
0
0
0
0
0
3.62931e-08
3.80494e-08
2.30867e-08
9.19639e-09
1.19761e-09
0
0
0
0
0
7.06929e-11
2.89606e-10
4.77309e-10
6.80636e-10
9.20731e-10
1.18033e-09
1.45464e-09
1.67428e-09
1.76155e-09
1.73589e-09
1.56421e-09
1.2954e-09
9.52281e-10
7.04684e-10
3.40321e-10
2.38683e-10
0
0
0
0
0
1.69285e-10
0
1.50413e-10
0
2.3692e-06
2.7298e-06
2.14422e-06
2.13728e-06
2.33996e-06
0
0
0
0
0
0
0
0
0
0
0
0
0
0
4.97959e-07
3.51235e-06
5.30503e-06
5.49063e-06
4.96635e-06
4.40041e-06
3.77668e-06
2.51192e-06
1.92105e-07
0
0
0
0
0
0
0
0
0
0
1.43848e-07
1.07694e-06
1.55298e-06
1.76694e-06
1.742e-06
1.64766e-06
1.53891e-06
1.40877e-06
1.2512e-06
1.06362e-06
8.75747e-07
6.9688e-07
5.3401e-07
3.88512e-07
2.72657e-07
1.8745e-07
1.29438e-07
9.97096e-08
9.67011e-08
1.21219e-07
1.76067e-07
2.6402e-07
3.88275e-07
5.49497e-07
7.35909e-07
8.97824e-07
9.03111e-07
4.99078e-07
0
0
0
0
0
0
0
0
0
0
0
0
0
0
0
0
0
0
0
0
0
0
0
0
0
0
0
0
0
0
0
0
0
0
0
0
0
0
0
0
0
0
0
0
0
0
0
0
0
0
0
0
0
0
0
0
0
0
0
0
0
0
0
0
0
0
0
0
0
0
0
0
0
0
0
0
0
0
0
0
0
0
3.60408e-08
9.85596e-08
1.46682e-07
1.8532e-07
2.07887e-07
2.17213e-07
2.14869e-07
2.01353e-07
1.76709e-07
1.40183e-07
8.91279e-08
2.55947e-08
0
0
0
0
0
0
0
0
0
0
0
0
0
0
2.26143e-09
0
1.79961e-09
0
0
0
1.80629e-07
4.77128e-07
1.10639e-06
2.6623e-06
0
0
0
0
0
0
0
0
0
0
0
0
0
0
0
7.25139e-06
1.17242e-05
1.16723e-05
9.4903e-06
6.59064e-06
4.04832e-06
2.32386e-06
1.01913e-06
0
0
0
0
0
0
0
0
0
0
0
4.33604e-08
1.20411e-06
1.63703e-06
1.72167e-06
1.67685e-06
1.63897e-06
1.5722e-06
1.46265e-06
1.30101e-06
1.10572e-06
9.06046e-07
7.06143e-07
5.2113e-07
3.73143e-07
2.6273e-07
1.89516e-07
1.49541e-07
1.3746e-07
1.47058e-07
1.74938e-07
2.22196e-07
2.95708e-07
4.1343e-07
6.07107e-07
9.15855e-07
1.3612e-06
1.86802e-06
1.87428e-06
0
0
0
0
0
0
0
0
0
0
0
0
0
0
0
0
0
0
0
0
0
0
0
0
0
0
0
0
0
0
0
0
0
0
0
0
0
0
0
0
0
0
0
0
0
0
0
0
0
0
0
0
0
0
0
0
0
0
0
0
0
0
0
0
0
0
0
0
0
0
0
0
0
0
0
0
0
0
0
0
0
0
3.36914e-08
1.18401e-07
1.74852e-07
2.18479e-07
2.51671e-07
2.684e-07
2.68672e-07
2.52854e-07
2.21827e-07
1.76842e-07
1.19662e-07
5.29353e-08
0
0
0
0
0
0
0
0
0
0
0
0
0
0
0
0
0
0
0
0
0
3.13815e-08
3.25948e-07
2.43042e-06
0
0
0
0
0
0
0
0
0
0
0
0
0
1.98304e-06
2.23552e-05
2.90253e-05
2.74262e-05
2.28071e-05
1.77557e-05
1.25434e-05
7.54993e-06
3.58844e-06
1.16004e-06
0
0
0
0
0
0
0
0
0
0
0
1.14535e-06
1.7756e-06
1.80915e-06
1.72112e-06
1.65877e-06
1.60819e-06
1.51863e-06
1.39016e-06
1.22558e-06
1.03089e-06
8.25839e-07
6.28893e-07
4.65469e-07
3.39989e-07
2.50497e-07
1.91001e-07
1.55104e-07
1.34124e-07
1.19237e-07
1.07125e-07
1.03768e-07
1.31259e-07
2.37448e-07
4.9842e-07
1.01391e-06
1.90579e-06
3.29089e-06
5.27555e-06
6.00549e-06
0
0
0
0
0
6.55959e-08
1.89651e-07
2.33854e-07
2.33817e-07
1.98124e-07
1.21559e-07
0
0
0
0
0
0
0
0
0
0
0
0
0
0
0
0
0
0
0
0
0
0
0
0
0
0
0
0
0
0
0
0
0
0
0
0
0
0
0
0
0
0
0
0
0
0
0
0
0
0
0
0
0
0
0
0
0
0
0
0
0
0
0
0
0
0
0
0
0
0
4.07055e-08
1.57989e-07
2.2114e-07
2.59648e-07
2.86158e-07
3.01906e-07
3.03629e-07
2.88383e-07
2.55792e-07
2.07074e-07
1.44457e-07
7.0832e-08
0
0
0
0
0
0
0
0
0
0
0
0
0
0
0
0
0
0
0
0
0
0
1.5158e-07
9.96725e-07
0
0
0
0
0
0
0
0
0
0
0
0
2.79388e-05
5.59466e-05
5.37832e-05
4.71428e-05
3.91665e-05
3.22703e-05
2.5742e-05
1.84834e-05
1.10961e-05
5.36741e-06
1.8665e-06
0
0
0
0
0
0
0
0
0
0
1.54368e-06
3.0362e-06
2.69657e-06
1.99735e-06
1.56898e-06
1.35265e-06
1.22e-06
1.11554e-06
1.00912e-06
8.86306e-07
7.51597e-07
6.09918e-07
4.75212e-07
3.62337e-07
2.69628e-07
1.96536e-07
1.4028e-07
9.67877e-08
5.84134e-08
1.99921e-08
0
0
2.50259e-08
2.55573e-07
8.13089e-07
1.83628e-06
3.2389e-06
4.88055e-06
6.98334e-06
9.78247e-06
1.78697e-06
0
0
0
5.79628e-07
9.43796e-07
1.02826e-06
9.85261e-07
8.72842e-07
7.35436e-07
6.21108e-07
5.22606e-07
4.31377e-07
3.2622e-07
1.91331e-07
1.11191e-08
0
0
0
0
0
0
0
0
0
0
0
0
0
0
0
0
0
0
0
0
0
0
0
0
0
0
0
0
0
0
0
0
0
0
0
0
0
0
0
0
0
0
0
0
0
0
0
0
0
0
0
0
0
0
0
0
0
0
0
0
0
0
0
0
0
0
1.59105e-07
2.38274e-07
2.65393e-07
2.78156e-07
2.87222e-07
2.91951e-07
2.8512e-07
2.5958e-07
2.13912e-07
1.51341e-07
7.63964e-08
0
0
0
0
0
0
0
0
0
0
0
0
0
0
0
0
0
0
0
0
0
0
2.87074e-08
0
0
0
0
0
0
0
0
0
0
0
1.2518e-06
6.06374e-05
6.78583e-05
6.3922e-05
5.65452e-05
4.81231e-05
4.13561e-05
3.61349e-05
3.14634e-05
2.53668e-05
1.65923e-05
8.19161e-06
3.03875e-06
4.28613e-07
0
0
0
0
0
0
0
0
0
1.27253e-06
2.37094e-06
7.04942e-07
2.04944e-07
8.37778e-08
8.98929e-08
1.46412e-07
2.3377e-07
3.13142e-07
3.57498e-07
3.5904e-07
3.28095e-07
2.79035e-07
2.20854e-07
1.6104e-07
1.05557e-07
5.86958e-08
1.96839e-08
0
0
0
0
1.53612e-07
6.13572e-07
1.51194e-06
2.84158e-06
4.19697e-06
5.34573e-06
6.25943e-06
6.63422e-06
3.70126e-06
0
0
0
0
3.67836e-07
8.99169e-07
1.00932e-06
8.9566e-07
6.35189e-07
3.40941e-07
6.81877e-08
0
0
0
0
0
0
0
0
0
0
0
0
0
0
0
0
0
0
0
0
0
0
0
0
0
0
0
0
0
0
0
0
0
0
0
0
0
0
0
0
0
0
0
0
0
0
0
0
0
0
0
0
0
0
0
0
0
0
0
0
0
0
0
0
0
0
0
0
0
0
7.74857e-08
2.33387e-07
2.63637e-07
2.62864e-07
2.5848e-07
2.5366e-07
2.44142e-07
2.24848e-07
1.9069e-07
1.3807e-07
7.23631e-08
0
0
0
0
0
0
0
0
0
0
0
0
0
0
0
0
0
0
0
0
0
0
0
0
0
9.03364e-08
9.29484e-07
1.90589e-06
3.47339e-06
6.71424e-06
3.48363e-06
1.08036e-06
4.12633e-06
2.24766e-05
4.92584e-05
5.41717e-05
5.65225e-05
5.3661e-05
4.73841e-05
4.17094e-05
3.7615e-05
3.53269e-05
3.46203e-05
3.31203e-05
2.32015e-05
1.23085e-05
6.34786e-06
3.65871e-06
1.3917e-06
0
0
0
0
0
0
0
0
0
0
0
0
0
0
0
0
0
0
0
2.85291e-08
5.66531e-08
5.34558e-08
3.38215e-08
1.16772e-08
0
0
0
0
6.3067e-09
1.07178e-07
3.69203e-07
9.40608e-07
1.91761e-06
3.12502e-06
4.12726e-06
4.78437e-06
4.89802e-06
4.10576e-06
1.34229e-06
0
0
0
0
0
0
5.62407e-07
9.17094e-07
8.11608e-07
4.72125e-07
5.93503e-08
0
0
0
0
0
0
0
0
0
0
0
0
0
0
0
0
0
0
0
0
0
0
0
0
0
0
0
0
0
0
0
0
0
0
0
0
0
0
0
0
0
0
0
0
0
0
0
0
0
0
0
0
0
0
0
0
0
0
0
0
0
0
0
0
0
0
0
0
0
0
0
1.59534e-07
2.43401e-07
2.37541e-07
2.16203e-07
1.93756e-07
1.692e-07
1.3772e-07
9.66685e-08
5.28647e-08
2.20952e-08
0
0
0
0
0
0
0
0
0
0
0
0
0
0
0
0
0
0
0
0
0
0
0
1.40944e-06
3.47994e-06
3.11634e-06
3.19219e-06
3.90352e-06
5.89695e-06
1.14365e-05
1.44829e-05
1.1961e-05
1.6571e-05
2.82276e-05
3.75266e-05
4.07266e-05
4.2005e-05
3.93856e-05
3.35119e-05
2.71068e-05
2.09653e-05
1.61165e-05
1.2895e-05
1.2099e-05
1.31225e-05
1.27038e-05
1.01148e-05
5.31891e-06
2.39243e-06
6.56404e-07
0
0
0
0
0
0
0
0
0
0
0
0
0
0
0
0
0
0
0
0
0
0
0
0
0
0
3.04994e-08
8.45597e-08
1.62042e-07
3.49993e-07
7.96746e-07
1.54407e-06
2.41354e-06
3.13134e-06
3.4418e-06
3.07396e-06
1.79762e-06
0
0
0
0
0
0
0
0
4.36818e-07
9.25e-07
9.10588e-07
5.28232e-07
2.27522e-08
0
0
0
0
0
0
0
0
0
0
0
0
0
0
0
0
0
0
0
0
0
0
0
0
0
0
0
0
0
0
0
0
0
0
0
0
0
0
0
0
0
0
0
0
0
0
0
0
0
0
0
0
0
6.04567e-07
1.2868e-06
3.51592e-07
0
0
0
0
2.12325e-09
0
0
0
0
0
0
6.45539e-09
0
0
0
1.87176e-07
2.0476e-07
1.70634e-07
1.27799e-07
7.9086e-08
1.77271e-08
0
0
0
0
0
0
0
0
0
0
0
0
0
0
0
0
0
0
0
0
0
0
0
0
0
0
0
2.67937e-06
3.09797e-06
3.25717e-06
3.7742e-06
5.12674e-06
7.79928e-06
8.79395e-06
8.68491e-06
1.13663e-05
1.7094e-05
2.29694e-05
2.58062e-05
2.50642e-05
2.11917e-05
1.5604e-05
1.00955e-05
5.29632e-06
2.46738e-06
1.12306e-06
7.85135e-07
3.10838e-07
0
0
2.6094e-06
3.19724e-06
2.81553e-06
2.36428e-06
8.95986e-07
0
0
0
0
0
0
0
0
0
0
0
0
0
0
0
0
0
0
0
0
0
0
1.59018e-08
6.07948e-08
1.15019e-07
1.34313e-07
7.51595e-08
0
1.25308e-08
3.28815e-07
8.61173e-07
1.33388e-06
1.44123e-06
8.89848e-07
0
0
0
0
0
0
0
0
0
0
1.7752e-07
7.16494e-07
8.24159e-07
5.83351e-07
8.93454e-08
0
0
0
0
0
0
0
0
0
0
0
9.72606e-10
0
0
0
0
0
0
0
0
0
0
0
0
0
0
0
0
0
0
0
0
0
0
0
0
0
0
0
0
0
0
0
0
0
0
0
0
0
0
0
2.1282e-08
2.33049e-07
3.74413e-07
3.84831e-07
3.2506e-07
0
0
0
0
0
0
0
0
0
0
1.54382e-08
5.54711e-08
0
0
2.53478e-08
1.52808e-07
1.24526e-07
6.98096e-08
8.31741e-09
0
0
0
0
0
5.73773e-09
5.12677e-08
0
0
0
0
0
0
0
0
0
0
0
0
0
0
0
0
0
0
0
0
0
3.90834e-07
1.93925e-06
2.70447e-06
3.29844e-06
4.18936e-06
5.32572e-06
5.28009e-06
4.78946e-06
5.80938e-06
8.76807e-06
1.23918e-05
1.35715e-05
1.1026e-05
6.82442e-06
3.40177e-06
1.22364e-06
1.2468e-07
0
0
0
0
0
8.80003e-07
2.76236e-06
4.25145e-06
6.64611e-06
6.20913e-06
7.92068e-07
0
0
0
0
0
0
0
0
0
0
0
0
0
0
0
0
0
0
0
0
0
0
7.1804e-08
1.61067e-07
2.20069e-07
1.80355e-07
0
0
0
0
0
0
0
0
0
0
0
0
0
0
0
0
0
0
0
2.52281e-07
4.46587e-07
4.82691e-07
3.9394e-07
0
0
0
0
0
0
0
0
0
0
0
0
0
0
0
0
0
0
0
0
0
5.93646e-08
6.47855e-08
4.41117e-08
2.75792e-08
1.68736e-08
7.23772e-09
0
0
0
0
0
0
0
0
0
0
5.32517e-08
8.45452e-08
4.48144e-08
0
0
0
0
0
0
0
0
0
0
0
1.16129e-07
1.18949e-07
7.70649e-08
2.45134e-08
2.29476e-07
3.52748e-07
7.48006e-08
0
0
0
0
0
0
0
0
0
3.304e-08
8.22254e-08
0
0
4.46653e-08
7.5812e-08
2.20737e-08
0
0
0
0
0
0
0
3.59423e-07
5.87912e-08
0
0
0
0
0
0
0
0
0
0
0
0
0
0
0
0
0
0
0
0
0
3.4055e-07
1.93593e-06
2.96589e-06
3.89635e-06
4.75432e-06
4.54902e-06
3.51828e-06
3.29692e-06
4.50152e-06
6.53353e-06
6.60842e-06
3.69412e-06
1.24029e-06
4.96762e-07
6.2835e-07
9.48872e-07
1.13006e-06
1.03212e-06
6.57843e-07
3.43916e-07
7.41494e-07
1.79581e-06
3.43363e-06
6.55264e-06
6.99322e-06
2.35001e-06
3.38492e-07
0
0
0
0
0
0
0
0
0
0
0
0
0
0
0
0
0
0
0
0
0
0
6.09008e-08
2.74683e-07
4.66988e-07
5.27822e-07
2.88955e-07
0
0
0
0
0
0
0
0
0
0
0
0
0
0
0
0
0
0
3.68807e-07
3.16931e-07
0
0
0
0
0
0
0
0
0
0
0
0
0
0
0
0
0
0
0
0
0
0
0
1.02689e-07
1.55714e-07
1.29489e-07
8.83989e-08
6.01461e-08
4.37121e-08
2.79366e-08
5.66187e-09
0
0
0
0
0
0
0
8.06998e-09
7.60774e-08
1.22995e-07
1.4202e-07
1.19825e-07
0
0
0
0
0
0
0
0
0
1.73977e-07
3.39822e-07
1.15768e-07
0
0
2.79058e-08
3.44044e-07
2.6743e-07
1.73973e-07
0
0
0
0
0
0
0
0
0
3.85416e-08
1.17734e-07
3.49201e-08
0
9.82935e-09
0
0
0
0
0
0
0
0
0
2.91137e-07
6.76017e-11
0
0
0
0
0
0
0
0
0
0
0
0
0
0
0
0
0
0
0
0
0
5.87765e-07
2.30736e-06
3.77285e-06
5.07592e-06
5.51822e-06
4.86616e-06
4.34264e-06
4.92166e-06
6.50692e-06
4.2008e-06
0
0
0
6.11367e-07
1.13645e-06
1.27015e-06
1.10162e-06
8.58315e-07
8.76904e-07
1.35287e-06
2.51061e-06
4.86175e-06
5.77901e-06
3.1146e-06
1.18803e-06
2.59483e-07
0
0
0
0
0
0
0
0
0
0
0
0
0
0
0
0
0
0
0
0
0
0
0
2.57964e-07
6.10083e-07
9.10375e-07
9.02517e-07
3.92566e-07
0
0
0
0
0
0
0
0
0
0
0
0
0
0
0
0
0
1.01412e-07
7.71656e-07
6.25669e-08
0
0
0
0
0
0
0
0
0
0
0
0
0
0
0
0
0
0
0
0
0
0
8.22048e-08
1.62786e-07
1.62844e-07
1.25584e-07
8.53503e-08
5.92802e-08
4.77274e-08
3.26683e-08
0
0
0
0
0
0
2.36919e-08
3.95401e-08
5.28264e-08
6.34122e-08
7.2376e-08
8.19807e-08
4.96339e-09
0
0
0
0
0
0
0
7.60982e-08
1.32426e-07
2.74402e-07
2.98543e-07
0
0
0
2.72322e-07
2.4098e-07
3.29152e-07
7.59068e-07
4.95115e-07
7.2492e-08
0
0
0
0
0
0
0
6.76575e-08
2.18657e-07
2.00628e-07
2.64938e-08
0
0
0
0
0
0
0
0
0
0
1.49463e-07
0
0
0
0
0
0
0
0
0
0
0
0
0
0
0
0
0
0
0
0
0
0
3.37315e-07
1.73252e-06
2.9064e-06
3.46405e-06
3.24458e-06
2.75934e-06
2.26455e-06
9.15299e-07
0
0
0
0
0
0
1.06679e-07
2.48174e-07
4.67714e-07
9.07042e-07
1.71436e-06
3.05539e-06
3.84284e-06
2.75953e-06
1.50146e-06
7.24767e-07
2.25874e-07
0
0
0
0
0
0
0
0
0
0
0
0
0
0
0
0
0
0
0
0
4.41893e-08
6.16719e-08
7.77554e-08
1.96772e-07
4.69509e-07
8.49211e-07
1.11468e-06
1.04092e-06
4.90509e-07
0
0
0
0
0
0
0
0
0
0
0
0
0
5.10092e-07
6.81354e-08
0
0
3.70775e-07
5.84189e-07
0
0
0
0
0
0
0
0
0
0
0
0
0
0
0
0
0
0
0
0
0
4.74893e-08
1.43147e-07
1.60807e-07
1.66342e-07
1.50587e-07
1.164e-07
7.28204e-08
4.51422e-08
4.13674e-08
3.11808e-08
0
0
0
0
0
4.24899e-08
1.69412e-08
0
0
0
0
5.59406e-09
0
0
0
0
0
0
0
8.83366e-08
8.08723e-08
5.90523e-08
1.69459e-07
0
0
0
1.77589e-07
1.64539e-07
3.48099e-07
8.75973e-07
7.70653e-07
4.21502e-07
1.12852e-07
0
0
0
0
1.22276e-08
2.60523e-08
2.1792e-08
1.7591e-07
3.22676e-07
2.24477e-07
1.84816e-07
0
0
0
0
0
0
0
0
0
5.12888e-08
3.48966e-08
0
0
0
0
0
0
0
0
0
0
0
0
0
0
0
0
0
0
0
0
0
0
0
2.43105e-07
5.58149e-07
5.08816e-07
2.13447e-07
0
0
0
0
0
0
4.07434e-09
2.46508e-07
3.85496e-07
5.47813e-07
8.29532e-07
1.2803e-06
1.90326e-06
2.34152e-06
2.0301e-06
1.37324e-06
8.35631e-07
4.58376e-07
1.88232e-07
0
0
0
0
0
0
0
0
2.56794e-08
5.85623e-08
2.88602e-08
0
0
0
0
0
0
0
0
0
5.73562e-08
1.86009e-07
2.46006e-07
2.78544e-07
3.5446e-07
5.42517e-07
7.90191e-07
9.85077e-07
9.62645e-07
6.02811e-07
0
0
0
0
0
0
0
0
0
0
0
0
4.34308e-07
7.64569e-07
0
0
0
4.42961e-07
1.13449e-07
0
0
0
0
0
0
0
0
0
0
0
0
1.28997e-08
1.93652e-07
1.61145e-07
3.93247e-08
0
0
0
0
5.30399e-08
2.19934e-07
2.63682e-07
2.38295e-07
2.15892e-07
1.81448e-07
1.30517e-07
6.93732e-08
3.61123e-08
4.12477e-08
3.76539e-08
0
0
0
0
6.03567e-08
4.0839e-08
0
0
0
0
0
0
0
0
0
0
0
0
0
1.69488e-08
0
0
0
5.83751e-08
2.82105e-07
1.35951e-07
9.0259e-08
2.40364e-07
7.8364e-07
2.86885e-07
1.15887e-07
1.42961e-07
0
0
0
2.06674e-08
2.8006e-08
4.61615e-08
5.34312e-08
6.66304e-08
2.91886e-07
1.63484e-07
2.75979e-08
2.19516e-08
0
0
0
0
0
0
0
0
0
4.34307e-08
0
0
0
0
0
0
0
0
0
0
0
0
0
0
0
0
0
0
0
0
0
0
0
0
0
0
0
0
0
0
0
5.27475e-07
1.05792e-06
1.28097e-06
1.27647e-06
1.17778e-06
1.1053e-06
1.15243e-06
1.30061e-06
1.4285e-06
1.36217e-06
1.05532e-06
7.3535e-07
4.76557e-07
2.86683e-07
1.5141e-07
2.34212e-08
0
0
0
0
0
0
0
4.3769e-08
7.98575e-08
7.85031e-08
3.20396e-08
0
0
0
0
0
0
0
0
0
6.74847e-08
1.83484e-07
2.66856e-07
3.09988e-07
3.42463e-07
4.10887e-07
5.11833e-07
5.91556e-07
6.01071e-07
4.78505e-07
1.44774e-07
0
0
0
0
0
0
0
0
0
0
0
3.79336e-07
7.2156e-08
0
0
4.05409e-07
4.76617e-07
1.77129e-07
0
0
0
0
0
0
0
0
0
0
0
2.28904e-07
4.12794e-07
3.61181e-07
1.95867e-07
2.85498e-08
0
0
0
0
2.16961e-07
3.51822e-07
3.49774e-07
3.07794e-07
2.60177e-07
2.08053e-07
1.44543e-07
7.20817e-08
3.85814e-08
5.08716e-08
5.94469e-08
2.82138e-08
0
0
7.6827e-08
1.12293e-07
3.66637e-08
0
0
0
0
3.80967e-08
0
0
0
0
0
0
0
0
0
0
0
0
5.23796e-08
3.7012e-08
4.26791e-08
6.0104e-08
4.77678e-07
1.90769e-08
0
0
0
0
9.21035e-08
9.4075e-08
6.42048e-08
5.11496e-08
6.41297e-08
6.68425e-08
1.2061e-07
1.04391e-07
0
0
0
0
0
0
0
0
0
0
0
0
0
0
0
0
0
0
0
0
0
0
0
0
0
0
0
0
0
0
0
0
0
0
0
0
0
0
1.6469e-08
0
0
0
1.69471e-07
1.13826e-06
1.57621e-06
1.53586e-06
1.35539e-06
1.19175e-06
1.05009e-06
9.72401e-07
9.40242e-07
8.95555e-07
7.64102e-07
5.85934e-07
4.19831e-07
2.95556e-07
2.05271e-07
1.29822e-07
3.32669e-08
0
0
0
0
0
0
0
2.32726e-08
6.23054e-08
8.69676e-08
8.19073e-08
3.8916e-08
0
0
0
0
0
0
0
0
0
0
6.31444e-08
1.40991e-07
1.85432e-07
2.0223e-07
2.15389e-07
2.14366e-07
2.14689e-07
2.33063e-07
2.64487e-07
3.18532e-07
4.53327e-07
7.48265e-07
1.01907e-06
3.59374e-08
0
0
0
0
0
0
1.27586e-08
0
0
5.5885e-07
8.44459e-07
4.10662e-07
0
0
9.69935e-07
1.50955e-06
0
0
0
0
0
0
0
0
3.05458e-07
4.75818e-07
4.42552e-07
3.03672e-07
1.77932e-07
6.14763e-08
0
0
0
1.09408e-07
3.11043e-07
3.83057e-07
3.74183e-07
3.32029e-07
2.68217e-07
2.17633e-07
1.51401e-07
8.22432e-08
5.4503e-08
7.02622e-08
9.26095e-08
9.86544e-08
9.54717e-08
1.23963e-07
1.60911e-07
1.27812e-07
5.18201e-08
0
0
0
8.64563e-08
1.37876e-07
9.84871e-08
0
0
0
0
0
0
0
0
0
0
0
0
0
1.99539e-08
8.97547e-08
0
0
0
0
1.16047e-07
1.67404e-07
1.61208e-07
1.3168e-07
8.64277e-08
5.5971e-08
6.36399e-08
6.19537e-08
4.03115e-08
0
0
0
0
0
0
0
0
0
0
0
0
0
0
0
0
0
0
0
0
0
0
0
0
0
0
0
0
0
0
0
0
0
0
3.06461e-07
7.25178e-07
1.13811e-06
1.49104e-06
1.86982e-06
1.22136e-06
0
0
0
6.78484e-07
1.21002e-06
1.07795e-06
7.35784e-07
5.98093e-07
5.62665e-07
5.28651e-07
5.10653e-07
4.83434e-07
4.14115e-07
3.2087e-07
2.2764e-07
1.80169e-07
1.50245e-07
9.09166e-08
5.17878e-09
0
0
0
0
0
0
0
2.80987e-08
6.9606e-08
1.27172e-07
1.78258e-07
1.67508e-07
9.40456e-08
1.30676e-08
0
0
0
0
0
0
0
0
0
0
0
0
2.26418e-08
3.55982e-08
4.43323e-08
7.3437e-08
1.74119e-07
3.89022e-07
7.94967e-07
1.641e-06
3.14752e-06
5.74116e-06
0
0
0
0
0
0
0
0
1.63622e-08
1.04262e-06
1.15633e-06
3.49404e-07
0
0
0
3.46306e-06
2.87759e-06
3.82834e-07
0
0
0
0
0
0
2.01098e-07
4.21524e-07
4.13296e-07
3.00424e-07
2.236e-07
1.88909e-07
1.49468e-07
7.86176e-08
2.20222e-08
4.81854e-08
1.98e-07
3.39635e-07
3.89406e-07
3.83567e-07
3.23783e-07
2.67116e-07
2.18462e-07
1.56661e-07
9.98732e-08
7.99922e-08
9.87586e-08
1.32457e-07
1.57765e-07
1.72563e-07
1.8347e-07
1.67769e-07
1.17234e-07
5.90071e-08
3.37776e-09
0
1.29439e-07
2.18504e-07
2.3871e-07
1.92782e-07
3.91832e-08
0
0
0
0
0
0
0
0
0
0
0
2.06416e-08
4.95156e-08
0
0
0
0
7.00066e-08
1.44208e-07
1.79237e-07
1.91652e-07
1.59793e-07
7.35663e-08
9.7931e-09
1.10198e-09
0
0
0
0
0
0
4.9998e-08
0
0
0
0
0
0
0
0
0
0
0
0
0
0
0
0
0
0
0
0
0
0
0
0
0
0
0
3.51748e-07
8.93282e-07
1.22236e-06
1.16982e-06
8.94451e-07
2.1106e-07
0
0
0
0
0
4.4033e-07
4.70431e-07
1.8482e-07
2.85527e-09
9.00091e-08
2.024e-07
2.5932e-07
2.7813e-07
2.26691e-07
1.42811e-07
7.54204e-08
7.82099e-08
9.39657e-08
5.05233e-08
0
0
0
0
0
1.04025e-08
6.67717e-09
0
0
8.41813e-09
1.14301e-07
3.94689e-07
5.65302e-07
3.88645e-07
1.81654e-07
3.75763e-08
0
0
0
0
0
0
0
0
0
0
0
0
0
0
1.70905e-08
1.78548e-07
4.59726e-07
9.08936e-07
1.72566e-06
3.02783e-06
4.52776e-06
1.86163e-06
0
0
0
0
0
0
0
0
1.17431e-06
1.15921e-06
1.56129e-07
0
0
0
1.05698e-06
1.82084e-06
4.04853e-07
5.99189e-08
0
0
0
0
0
1.47212e-07
2.65734e-07
2.90479e-07
2.42014e-07
2.05886e-07
2.14449e-07
2.35445e-07
2.12566e-07
1.53807e-07
1.1541e-07
1.55498e-07
2.73927e-07
3.58828e-07
3.93579e-07
3.72225e-07
3.10448e-07
2.60768e-07
2.15911e-07
1.62752e-07
1.1842e-07
1.08912e-07
1.38328e-07
1.82777e-07
2.13631e-07
2.21697e-07
2.00236e-07
1.51766e-07
9.47625e-08
4.3654e-08
1.45203e-08
1.54029e-07
2.69999e-07
3.05465e-07
3.0732e-07
2.59217e-07
7.74261e-08
0
0
0
0
0
0
0
0
0
1.28526e-08
3.01811e-08
5.79022e-08
2.08686e-07
0
0
0
7.85435e-08
7.29009e-08
1.39355e-07
2.08622e-07
2.30112e-07
1.54321e-07
0
0
0
0
1.52832e-07
4.79024e-08
0
0
2.59628e-08
3.914e-08
0
0
0
0
0
0
0
0
0
0
0
0
0
0
0
0
0
0
0
0
0
0
0
0
0
0
2.01342e-07
5.6866e-07
5.64957e-07
2.61538e-07
0
0
0
0
0
0
0
5.99391e-08
2.96831e-07
1.27507e-07
0
0
0
8.91605e-08
9.55398e-08
4.26359e-08
0
0
0
4.38643e-08
2.78187e-08
0
1.19161e-08
3.39441e-08
1.18141e-08
0
0
0
0
0
0
0
0
9.53068e-07
7.44992e-07
2.77729e-07
1.81739e-08
0
0
0
0
0
0
0
0
0
0
0
0
0
0
0
1.2678e-07
4.60798e-07
9.52128e-07
1.68851e-06
2.68732e-06
3.38453e-06
1.44318e-06
0
0
0
0
0
0
0
0
1.05285e-06
1.03175e-06
0
0
0
0
0
9.94697e-07
3.56117e-07
1.05875e-07
4.65106e-08
3.00739e-08
2.13772e-08
2.68632e-08
5.74721e-08
1.15456e-07
1.62137e-07
1.81968e-07
1.76113e-07
1.72574e-07
1.98728e-07
2.48874e-07
2.72571e-07
2.43279e-07
1.94214e-07
1.76769e-07
2.30101e-07
3.114e-07
3.717e-07
3.96668e-07
3.55397e-07
2.98393e-07
2.56129e-07
2.18221e-07
1.72618e-07
1.40565e-07
1.50856e-07
2.05231e-07
2.60064e-07
2.80103e-07
2.58436e-07
1.99638e-07
1.2287e-07
5.26245e-08
1.35327e-08
1.28151e-07
2.71511e-07
3.28082e-07
3.49167e-07
3.46703e-07
2.8203e-07
0
0
0
0
0
0
0
0
4.07462e-08
4.98903e-08
5.07179e-08
8.01536e-08
7.00382e-07
2.53865e-07
8.54115e-08
6.52165e-08
1.21972e-07
2.92271e-08
6.05523e-08
1.7571e-07
2.57979e-07
2.63723e-07
3.35511e-08
0
0
0
2.15443e-07
2.20249e-07
1.00458e-07
1.31993e-08
1.26155e-08
5.96328e-08
0
0
0
0
0
0
0
0
0
0
0
0
0
0
0
0
0
0
0
0
0
0
0
0
0
0
0
7.68194e-08
1.54237e-08
0
0
0
0
0
0
0
0
0
2.68863e-07
2.54142e-07
8.33878e-08
0
0
2.98595e-08
1.75439e-08
0
0
0
0
0
3.02633e-09
0
0
1.28133e-08
0
0
0
0
0
0
0
0
0
0
1.08658e-06
3.57862e-07
0
0
0
0
0
0
0
0
0
0
0
0
0
0
0
0
5.6514e-08
4.21943e-07
9.86089e-07
1.77769e-06
2.74947e-06
3.28419e-06
1.20975e-06
0
0
0
0
0
0
0
0
6.49425e-07
7.5021e-07
0
0
0
0
0
0
1.89006e-07
1.30197e-07
9.30861e-08
8.16896e-08
7.23836e-08
6.74055e-08
7.65822e-08
1.01345e-07
1.3173e-07
1.49231e-07
1.56223e-07
1.62334e-07
1.81428e-07
2.2779e-07
2.81845e-07
2.89679e-07
2.56514e-07
2.20149e-07
2.26291e-07
2.82089e-07
3.46159e-07
3.97795e-07
3.96568e-07
3.4134e-07
2.93454e-07
2.62346e-07
2.29153e-07
1.91207e-07
1.81505e-07
2.306e-07
3.03223e-07
3.3609e-07
3.19715e-07
2.5786e-07
1.53791e-07
2.90882e-08
0
4.37443e-08
2.00299e-07
2.96383e-07
3.44007e-07
3.58687e-07
3.26861e-07
1.20332e-07
0
0
0
0
0
0
3.79812e-08
1.11647e-07
9.93332e-08
8.6157e-08
1.43136e-07
1.16752e-06
5.12599e-07
3.18226e-07
2.64046e-07
1.73987e-07
2.71857e-08
0
9.59874e-08
2.35541e-07
3.13236e-07
3.04007e-07
0
0
0
1.34641e-07
1.95462e-07
1.28298e-07
4.86897e-08
1.35739e-08
2.64652e-08
0
0
0
0
0
0
0
0
0
0
0
0
0
0
0
0
0
0
0
0
0
0
0
0
0
0
0
0
0
0
0
0
0
0
0
0
0
0
2.66438e-07
2.68835e-07
1.19931e-07
1.4972e-08
0
0
0
0
0
0
0
0
0
0
0
3.14855e-10
0
0
0
0
0
0
0
0
0
0
0
1.62249e-07
0
0
0
0
0
0
0
0
0
0
0
0
0
0
0
0
6.12762e-08
4.49547e-07
1.05628e-06
1.94615e-06
3.17563e-06
3.9623e-06
1.42364e-06
0
0
0
0
0
0
0
0
2.00659e-07
4.43059e-07
0
0
0
0
0
0
0
1.34823e-07
1.22366e-07
1.07416e-07
9.64012e-08
8.64359e-08
8.61393e-08
9.86633e-08
1.20005e-07
1.39564e-07
1.54569e-07
1.66981e-07
1.76269e-07
2.02052e-07
2.6064e-07
2.99149e-07
2.9331e-07
2.66819e-07
2.55898e-07
2.82821e-07
3.3268e-07
3.92465e-07
4.25473e-07
3.86179e-07
3.34213e-07
3.01333e-07
2.79425e-07
2.50508e-07
2.28496e-07
2.55716e-07
3.20589e-07
3.52251e-07
3.472e-07
3.00111e-07
1.8754e-07
0
0
0
7.09191e-08
2.09927e-07
2.99505e-07
3.3279e-07
2.96351e-07
1.6033e-07
0
0
0
0
0
0
1.18728e-07
1.72082e-07
1.51181e-07
1.34045e-07
2.55265e-07
1.40691e-06
6.4531e-07
5.36976e-07
5.45287e-07
2.16674e-07
4.3545e-08
0
0
1.66563e-07
2.89378e-07
3.57037e-07
0
0
0
0
1.17542e-07
1.08279e-07
4.77108e-08
9.18396e-09
5.3589e-09
0
0
0
0
0
0
0
0
0
0
0
0
0
0
0
0
0
0
0
0
0
0
0
0
0
0
0
0
0
0
0
0
0
0
0
0
0
2.33448e-07
4.59268e-07
2.92079e-07
7.48028e-08
0
0
0
0
0
0
0
0
0
0
0
0
6.81568e-09
7.92474e-09
0
0
0
0
0
0
0
0
0
0
1.93296e-07
0
0
0
0
0
0
0
0
0
0
0
0
0
0
0
0
1.28936e-07
5.57328e-07
1.16482e-06
2.10499e-06
3.52496e-06
4.75768e-06
2.41728e-06
0
0
0
0
0
0
0
0
0
1.07873e-07
0
0
0
0
0
0
0
1.7536e-07
1.65186e-07
1.28679e-07
1.08327e-07
9.46442e-08
8.97403e-08
9.75431e-08
1.14586e-07
1.36065e-07
1.56078e-07
1.71626e-07
1.75126e-07
1.81828e-07
2.17565e-07
2.79808e-07
3.07859e-07
3.06542e-07
3.02442e-07
3.07464e-07
3.34819e-07
3.87448e-07
4.37678e-07
4.23609e-07
3.73871e-07
3.36665e-07
3.19058e-07
3.00815e-07
2.76952e-07
2.74827e-07
2.98653e-07
3.12275e-07
3.19075e-07
3.04507e-07
2.22187e-07
0
0
0
0
8.22096e-08
2.14978e-07
2.7691e-07
2.25941e-07
7.18347e-08
0
0
0
0
0
9.01798e-08
1.93546e-07
2.19426e-07
1.97442e-07
1.88248e-07
4.17832e-07
1.21685e-06
5.99236e-07
5.46142e-07
8.08977e-07
1.87074e-07
4.51084e-08
0
0
4.1044e-08
2.15357e-07
2.61388e-07
0
0
0
0
0
5.18678e-08
2.92895e-08
0
0
0
0
0
0
0
0
0
0
0
0
0
0
0
0
0
0
0
0
0
0
0
0
0
0
0
0
0
0
0
0
0
1.88867e-07