/*--------------------------------*- C++ -*----------------------------------*\
| =========                 |                                                 |
| \\      /  F ield         | OpenFOAM: The Open Source CFD Toolbox           |
|  \\    /   O peration     | Version:  2112                                  |
|   \\  /    A nd           | Website:  www.openfoam.com                      |
|    \\/     M anipulation  |                                                 |
\*---------------------------------------------------------------------------*/
FoamFile
{
    version     2.0;
    format      ascii;
    arch        "LSB;label=32;scalar=64";
    class       volScalarField;
    location    "0.16";
    object      nut;
}
// * * * * * * * * * * * * * * * * * * * * * * * * * * * * * * * * * * * * * //

dimensions      [0 2 -1 0 0 0 0];

internalField   nonuniform List<scalar> 
12225
(
5.44253e-06
8.85187e-06
1.18525e-05
1.48663e-05
1.81862e-05
2.2005e-05
2.64558e-05
3.16366e-05
3.76171e-05
4.4442e-05
5.21301e-05
6.0674e-05
7.00437e-05
8.01918e-05
9.1063e-05
0.000102563
0.000114782
0.000127568
4.54996e-05
2.36352e-05
1.84987e-05
1.7003e-05
1.6988e-05
1.78049e-05
1.91943e-05
2.10193e-05
2.31819e-05
2.5598e-05
2.81945e-05
3.09152e-05
3.37284e-05
3.66351e-05
3.96676e-05
4.2934e-05
4.69197e-05
5.24572e-05
0.000378533
0.000141353
0.000108248
7.44736e-05
5.44511e-05
4.33842e-05
3.68784e-05
3.29299e-05
3.05396e-05
2.91531e-05
2.84455e-05
2.8223e-05
2.83713e-05
2.88253e-05
2.95501e-05
3.05394e-05
3.18149e-05
3.3352e-05
0.00124178
0.00093353
0.000531046
0.00035551
0.000261153
0.0002097
0.000182543
0.000148889
0.000124408
0.000107182
9.4575e-05
8.50305e-05
7.75793e-05
7.16095e-05
6.67346e-05
6.27034e-05
5.93692e-05
5.66959e-05
0.00146214
0.00142018
0.00124249
0.00108225
0.000893619
0.000733164
0.000613009
0.000530119
0.000473955
0.00043823
0.000387156
0.000345334
0.000311576
0.000283696
0.000260251
0.000240262
0.000223123
0.000208632
0.00151266
0.00150332
0.00148302
0.00144855
0.00130975
0.00116939
0.00106724
0.000993935
0.000940648
0.000904972
0.000886896
0.000879834
0.00084353
0.000791043
0.000743895
0.000701407
0.000663284
0.000577404
0.00151436
0.00151333
0.0015107
0.00150539
0.00145002
0.00133104
0.00125343
0.00120487
0.0011774
0.00116738
0.00117157
0.00117955
0.00117957
0.0011565
0.00109923
0.00100826
0.000898984
0.000804494
0.00151437
0.00151409
0.00151374
0.00151314
0.00151208
0.0014518
0.00137243
0.00132185
0.00129418
0.00128456
0.00128421
0.00128262
0.00127051
0.00123714
0.00117615
0.00109125
0.000994462
0.000914431
0.00151427
0.00151396
0.00151375
0.00151364
0.0015136
0.00151355
0.00149038
0.00143657
0.00140249
0.00138374
0.00137288
0.00135938
0.00133356
0.00128986
0.00122784
0.00115288
0.00107285
0.00100644
0.00151418
0.00151379
0.00151352
0.00151337
0.00151335
0.00151343
0.00151356
0.0015137
0.00150655
0.00148338
0.00146573
0.00144524
0.00141298
0.00136404
0.00130093
0.00122998
0.00115839
0.00110113
0.00151412
0.00151366
0.00151332
0.0015131
0.00151299
0.00151298
0.00151306
0.00151318
0.00151333
0.00151349
0.00151366
0.00151382
0.00149212
0.00144548
0.00138558
0.00131996
0.00125612
0.00120641
0.00151408
0.00151357
0.00151318
0.00151289
0.00151271
0.00151262
0.00151261
0.00151266
0.00151275
0.00151286
0.00151299
0.00151313
0.00151329
0.00151347
0.00146533
0.00140989
0.00135551
0.00131316
0.00151404
0.0015135
0.00151306
0.00151272
0.00151247
0.00151232
0.00151224
0.00151221
0.00151222
0.00151227
0.00151234
0.00151244
0.00151255
0.00151269
0.00151285
0.00149386
0.00145153
0.00141829
0.00151401
0.00151344
0.00151295
0.00151256
0.00151226
0.00151204
0.00151189
0.00151179
0.00151173
0.00151171
0.00151171
0.00151174
0.00151179
0.00151187
0.00151197
0.00151209
0.00151222
0.00151236
0.00151399
0.00151338
0.00151286
0.00151243
0.00151207
0.00151179
0.00151157
0.00151141
0.00151128
0.00151119
0.00151113
0.00151109
0.00151107
0.00151108
0.0015111
0.00151115
0.0015112
0.00151127
0.00151397
0.00151334
0.00151279
0.00151231
0.00151191
0.00151158
0.00151131
0.00151108
0.0015109
0.00151074
0.00151061
0.00151051
0.00151042
0.00151035
0.0015103
0.00151026
0.00151023
0.00151021
0.00151396
0.00151331
0.00151273
0.00151223
0.00151179
0.00151142
0.0015111
0.00151083
0.00151058
0.00151037
0.00151019
0.00151002
0.00150987
0.00150973
0.00150961
0.00150949
0.00150938
0.00150929
0.00151395
0.0015133
0.0015127
0.00151218
0.00151172
0.00151132
0.00151096
0.00151064
0.00151036
0.0015101
0.00150986
0.00150964
0.00150943
0.00150924
0.00150905
0.00150887
0.0015087
0.00150853
0.00151396
0.0015133
0.00151271
0.00151218
0.0015117
0.00151128
0.00151091
0.00151057
0.00151025
0.00150996
0.00150969
0.00150943
0.00150917
0.00150893
0.00150869
0.00150846
0.00150823
0.00150801
0.00151397
0.00151333
0.00151275
0.00151222
0.00151176
0.00151134
0.00151096
0.00151062
0.0015103
0.00151
0.00150971
0.00150943
0.00150916
0.00150889
0.00150863
0.00150837
0.00150811
0.00150786
0.00151399
0.00151337
0.0015128
0.0015123
0.00151185
0.00151145
0.00151108
0.00151075
0.00151044
0.00151015
0.00150987
0.0015096
0.00150933
0.00150906
0.00150879
0.00150852
0.00150826
0.00150799
0.00151402
0.00151342
0.00151288
0.00151241
0.00151198
0.0015116
0.00151126
0.00151096
0.00151068
0.00151041
0.00151016
0.0015099
0.00150965
0.00150939
0.00150913
0.00150886
0.00150859
0.00150832
0.00151405
0.0015135
0.00151299
0.00151254
0.00151215
0.0015118
0.00151149
0.0015112
0.00151093
0.00151065
0.00151037
0.00151005
0.00150971
0.00150933
0.0015089
0.00150843
0.00150792
0.00150736
0.00151411
0.00151359
0.00151311
0.00151264
0.00151216
0.00151164
0.00151101
0.00151022
0.00150922
0.00150795
0.00150639
0.0015045
0.00150227
0.0014997
0.0014968
0.00149359
0.00149008
0.0014863
0.00151415
0.00151348
0.0015124
0.00151055
0.00150757
0.0015031
0.00149679
0.00148841
0.00147779
0.00146495
0.00144998
0.00143311
0.00141463
0.00139486
0.00137413
0.00135272
0.00133088
0.00130883
0.00151289
0.00150707
0.00149383
0.00147027
0.00143599
0.00139096
0.00133602
0.0012731
0.0012049
0.00113439
0.00106426
0.000996651
0.000933246
0.000874835
0.000821494
0.000773017
0.000729086
0.000689336
0.00148116
0.00139614
0.0012497
0.00107012
0.000787206
0.000601317
0.000485558
0.000408112
0.000354375
0.00031695
0.000291305
0.00027459
0.000251349
0.000226648
0.000206522
0.000189874
0.000175924
0.000164106
0.00088588
0.000319547
0.000214705
0.000175181
0.000157459
0.000118613
9.41902e-05
7.79431e-05
6.66963e-05
5.86885e-05
5.28732e-05
4.85934e-05
4.54139e-05
4.30431e-05
4.12796e-05
3.99788e-05
3.90358e-05
3.83733e-05
9.96678e-05
4.48533e-05
3.05055e-05
2.47278e-05
2.21011e-05
2.09583e-05
2.06593e-05
2.09095e-05
2.15546e-05
2.25025e-05
2.36908e-05
2.50722e-05
2.66075e-05
2.82626e-05
3.0007e-05
3.1815e-05
3.36673e-05
3.55505e-05
5.37152e-06
8.39344e-06
1.09997e-05
1.34367e-05
1.58724e-05
1.83001e-05
2.09156e-05
2.37869e-05
2.69501e-05
3.04286e-05
3.42384e-05
3.83898e-05
4.28874e-05
4.77301e-05
5.29114e-05
5.84189e-05
6.42395e-05
7.0341e-05
0.000355519
0.000357858
0.000363991
0.000372444
0.000382962
0.00039449
0.000377598
0.00034488
0.000319864
0.000301679
0.000288072
0.000277757
0.000269998
0.000264355
0.00026055
0.000258396
0.000257765
0.00025857
0.00026076
0.000264315
0.000269238
0.000275554
0.000283319
0.000292665
0.000303696
0.000315779
0.000329184
0.000343972
0.000360286
0.000379149
0.000401359
0.000413077
0.000416228
0.000417633
0.000417248
0.000415024
0.000410934
0.00040498
0.0003972
0.000387674
0.00037654
0.000364024
0.000350455
0.000336278
0.000322013
0.000307982
0.000294484
0.000282513
0.000272023
0.000263092
0.000255755
0.000249748
0.000244419
0.000238909
0.000232472
0.000223
0.000210269
0.000199794
0.000192073
0.000186552
0.000178186
0.000171026
0.000165124
0.000160436
0.000156893
0.000154451
0.000153114
0.000152951
0.000154071
0.000156556
0.000160349
0.000165459
0.000172173
0.000181137
0.000193538
0.000206616
0.00021834
0.000245234
0.00030091
0.000397552
0.000531541
0.000674564
0.000760402
0.000824136
0.000881427
0.000935767
0.000989137
0.0010429
0.00109769
0.00115329
0.00120883
0.00126298
0.0013142
0.00136088
0.00140152
0.00143491
0.00146029
0.00147753
0.00148705
0.00148972
0.00148658
0.00147865
0.00146677
0.00145158
0.00143348
0.00141274
0.00138958
0.00135634
0.00132292
0.00128997
0.00125701
0.00122384
0.0011903
0.00115624
0.00112159
0.00108635
0.00105058
0.00101443
0.000978054
0.000941667
0.000905466
0.000869683
0.000834576
0.000799861
0.00076611
0.000736642
0.000711142
0.000689237
0.000670608
0.000654959
0.000642019
0.000631515
0.000623182
0.000616853
0.000612468
0.000609958
0.00060927
0.000610707
0.000614936
0.000623211
0.000637772
0.000662549
0.000704825
0.000779318
0.00091415
0.001049
0.00100245
0.000990624
0.00100533
0.00102584
0.00103168
0.00091606
0.000839715
0.000797206
0.000776273
0.00077078
0.000777822
0.00079571
0.000823137
0.000859032
0.000902252
0.00095147
0.00100517
0.00106173
0.00111938
0.00117497
0.00122635
0.00127655
0.00132674
0.00137798
0.00143132
0.00148757
0.00154729
0.0016107
0.00167747
0.00174712
0.00181772
0.00189103
0.00195762
0.00204917
0.000375409
0.000374384
0.000378386
0.000384529
0.000391723
0.000399038
0.000405852
0.000411917
0.000417233
0.000421827
0.000425725
0.000428956
0.000431557
0.000433572
0.000435044
0.000436019
0.000436546
0.000436673
0.000436454
0.000435945
0.000435207
0.000434305
0.000433303
0.000432219
0.000430755
0.000427724
0.00042357
0.000419176
0.000415239
0.000412004
0.000409451
0.000407431
0.000405606
0.000403705
0.000401477
0.000398683
0.000395103
0.000390541
0.000384832
0.000377857
0.000369547
0.000359918
0.000349087
0.000337289
0.000324859
0.000312074
0.000298672
0.000285608
0.000273014
0.00026099
0.000249806
0.000239623
0.00023034
0.000221658
0.000213298
0.000205167
0.000197447
0.000190375
0.000184153
0.000178934
0.000174757
0.000171539
0.00016911
0.000167268
0.000165823
0.000164631
0.000163628
0.000162854
0.000162518
0.00016294
0.000164435
0.000167408
0.000172491
0.000180713
0.000193667
0.000213828
0.000245318
0.000294379
0.000365679
0.000453734
0.000542552
0.000619329
0.000682286
0.0007361
0.000784621
0.000830183
0.000874378
0.000918235
0.000962008
0.00100515
0.00104649
0.00108449
0.00111742
0.00114353
0.00116121
0.00116921
0.00116682
0.00115402
0.00113143
0.00110023
0.00106195
0.00101829
0.000970975
0.000921786
0.000873042
0.000827335
0.00078627
0.000750267
0.000719035
0.000691707
0.000667382
0.000645308
0.000624883
0.000605643
0.000587265
0.000569565
0.000552538
0.000536379
0.000521503
0.000508681
0.000499249
0.000495234
0.000499555
0.000515107
0.000539813
0.000567983
0.000599331
0.000633986
0.000672306
0.000714873
0.000762462
0.000815869
0.000875348
0.000938996
0.000999552
0.00104143
0.00105471
0.00105864
0.00106157
0.0010634
0.00106374
0.00106234
0.00105918
0.00105435
0.00104829
0.00104109
0.00103901
0.00104539
0.00105601
0.00106766
0.00107713
0.00108356
0.0010865
0.00107334
0.00100957
0.000909855
0.00081883
0.000745945
0.000688561
0.000643371
0.000608219
0.000581915
0.000563798
0.0005533
0.000550196
0.000556271
0.000573659
0.000596744
0.000622339
0.000649472
0.000678344
0.000709931
0.000745764
0.000787835
0.00083862
0.000901447
0.000980859
0.00108498
0.00122896
0.00142812
0.000395591
0.00039254
0.00039749
0.000404891
0.000412473
0.000419127
0.000424531
0.000428804
0.000432222
0.000435046
0.00043746
0.000439572
0.000441437
0.000443078
0.000444497
0.000445687
0.000446639
0.000447342
0.000447788
0.000447974
0.000447902
0.000447581
0.000447027
0.000446263
0.000445312
0.000444121
0.000442583
0.000440543
0.000437922
0.000434715
0.000430992
0.000426874
0.00042246
0.000417814
0.000412955
0.000407838
0.000402358
0.000396365
0.000389683
0.000382141
0.000373596
0.000363973
0.000353295
0.000341705
0.000329449
0.000316742
0.00030322
0.000289689
0.000276354
0.000263317
0.00025092
0.000239479
0.000229107
0.00021974
0.000211286
0.000203762
0.000197377
0.000192247
0.000188463
0.000186027
0.000184785
0.000184447
0.000184646
0.000185005
0.000185187
0.000184935
0.000184098
0.000182683
0.000181075
0.00017966
0.000178977
0.000179762
0.000183248
0.00019148
0.000207325
0.000233945
0.00027403
0.000328881
0.000396016
0.000467486
0.000533914
0.000590688
0.000638541
0.000680131
0.000717734
0.00075305
0.00078733
0.000821165
0.000854315
0.0008858
0.000914156
0.000937695
0.000954738
0.000963817
0.000963906
0.00095463
0.000936418
0.000910519
0.000878862
0.00084378
0.000807672
0.000772681
0.000740512
0.000712443
0.000689281
0.000671227
0.000657915
0.000648705
0.000642957
0.000640194
0.000640175
0.000642903
0.000648612
0.00065774
0.000670867
0.000688605
0.000711412
0.000739537
0.00077339
0.000812829
0.000855689
0.000897939
0.000934449
0.000960791
0.000985046
0.00100688
0.00102608
0.00104259
0.00105643
0.00106767
0.00107639
0.00108271
0.00108682
0.0010885
0.00108727
0.00108281
0.00107577
0.00106773
0.0010594
0.00105092
0.00104229
0.00103365
0.00102572
0.00101834
0.00101159
0.00100533
0.000999835
0.000996229
0.000993736
0.000991941
0.000986451
0.000973504
0.000965284
0.000961654
0.00096516
0.000979734
0.00100193
0.0010006
0.000998718
0.000995415
0.000989622
0.000979799
0.000963258
0.000939434
0.000910104
0.000876256
0.00083906
0.000806634
0.000781174
0.000762198
0.000748431
0.000738674
0.000732219
0.000729092
0.000730246
0.000737798
0.000755342
0.000788941
0.000850457
0.000956668
0.000367491
0.000400624
0.000410923
0.000420929
0.000428349
0.000433083
0.000435984
0.000437973
0.000439677
0.000441424
0.000443336
0.00044542
0.000447632
0.000449905
0.00045217
0.000454358
0.000456406
0.000458258
0.000459865
0.000461186
0.000462188
0.000462843
0.00046313
0.000463037
0.000462561
0.000461747
0.000460714
0.00045941
0.000457748
0.000455609
0.000452861
0.000449384
0.000445086
0.00043993
0.000433931
0.000427146
0.000419641
0.000411461
0.000402609
0.000393048
0.000382724
0.000371601
0.000359707
0.000347161
0.000334151
0.000320667
0.000306636
0.000292797
0.000279139
0.000265822
0.000253229
0.000241729
0.000231498
0.000222541
0.000214842
0.000208536
0.00020408
0.000201813
0.00020178
0.00020371
0.000206992
0.00021087
0.00021463
0.000217702
0.000219688
0.000220356
0.000219647
0.000217858
0.000215455
0.00021288
0.000210842
0.000210462
0.000213652
0.000223263
0.000242684
0.000274518
0.000318951
0.000373068
0.000431414
0.000487785
0.000537816
0.000580331
0.000616409
0.000647788
0.000676138
0.000702915
0.00072913
0.000755067
0.000780212
0.000803449
0.000823371
0.000838565
0.000847871
0.000850604
0.000846742
0.00083703
0.000822956
0.000806555
0.000790078
0.000775596
0.000764661
0.000758118
0.000756113
0.000758269
0.000763903
0.000772243
0.000782618
0.000794593
0.000808022
0.000823015
0.000839867
0.000858968
0.000880698
0.000905306
0.000932776
0.000962672
0.000994064
0.0010256
0.00105584
0.00108345
0.00110753
0.00112797
0.00114372
0.00115757
0.0011699
0.00118032
0.00118839
0.00119395
0.00119678
0.00119663
0.00119332
0.00117835
0.00114939
0.0011223
0.00109722
0.00107429
0.00105332
0.00103365
0.00101527
0.000998202
0.000981259
0.000963155
0.000945672
0.00092594
0.000905026
0.000888382
0.000873086
0.000855246
0.000835795
0.000817679
0.000802063
0.000787608
0.000774306
0.000765742
0.000766222
0.000777661
0.00080037
0.000836206
0.000887915
0.000955126
0.00100317
0.00103063
0.00105679
0.00107986
0.00109833
0.00111078
0.00111423
0.0011076
0.00109539
0.00108118
0.00106702
0.00105363
0.00104082
0.00102795
0.00101437
0.000999913
0.000985347
0.000973664
0.000969851
0.000986759
0.000322675
0.000406712
0.000424323
0.000435788
0.00044076
0.000441971
0.000442081
0.000442544
0.000443834
0.000445938
0.000448677
0.000451856
0.000455306
0.000458891
0.0004625
0.000466039
0.000469427
0.000472591
0.00047547
0.000478014
0.000480176
0.000481917
0.000483202
0.000484
0.000484287
0.000484059
0.000483346
0.00048214
0.000480431
0.000478197
0.000475378
0.000471874
0.000467545
0.000462233
0.000455801
0.000448164
0.000439315
0.000429323
0.000418311
0.000406418
0.000393778
0.000380515
0.000366762
0.000352685
0.000338193
0.000323573
0.000309319
0.000295373
0.00028178
0.000268779
0.000256782
0.000246177
0.000237187
0.000229934
0.000224598
0.000221554
0.000221403
0.000224907
0.00023125
0.000239215
0.000247435
0.000254808
0.00026064
0.000264587
0.00026655
0.000266599
0.000265012
0.000262309
0.000258793
0.000255178
0.000252503
0.000252342
0.000256961
0.000269181
0.000291554
0.000324871
0.000367131
0.000414158
0.000461304
0.00050494
0.000543176
0.000575761
0.000603474
0.000627555
0.000649411
0.00067034
0.000691184
0.000712084
0.000732521
0.00075156
0.000768179
0.000781552
0.000791297
0.000797639
0.000801483
0.000804337
0.000808072
0.000814535
0.000825116
0.000840417
0.000860129
0.000883173
0.000908051
0.000933234
0.000957491
0.000980052
0.00100063
0.00101936
0.0010366
0.00105285
0.00106862
0.00108431
0.00110014
0.00111621
0.00113238
0.00114845
0.00116419
0.00117949
0.00119449
0.00120961
0.00122544
0.00124163
0.00125731
0.00127256
0.00128651
0.00129822
0.00129769
0.00127132
0.00124527
0.00121988
0.00119503
0.00117081
0.00114737
0.00112455
0.00110267
0.00108148
0.00106021
0.00103773
0.00101596
0.00099493
0.000972786
0.000948637
0.000926232
0.000903325
0.00088074
0.00085976
0.000838797
0.000815928
0.000792089
0.000768892
0.000746835
0.000725093
0.000704507
0.000687934
0.000677526
0.000674432
0.000680426
0.000698241
0.000729834
0.000776792
0.000841424
0.000923997
0.000969369
0.00100578
0.00104255
0.00107773
0.00110936
0.00113514
0.00115409
0.00116726
0.00117596
0.0011813
0.00118396
0.00118416
0.00118162
0.00117579
0.00116591
0.00115184
0.00111227
0.0010382
0.000292649
0.000417734
0.000440683
0.000450018
0.000450429
0.000448375
0.000447273
0.000447938
0.000450097
0.000453269
0.000457061
0.000461212
0.000465557
0.000469985
0.000474409
0.000478751
0.000482934
0.000486887
0.000490552
0.000493876
0.000496809
0.000499303
0.000501312
0.000502795
0.000503711
0.00050398
0.000503439
0.000502115
0.000500053
0.000497305
0.000493907
0.000489849
0.000485052
0.000479365
0.000472579
0.000464474
0.000454887
0.000443767
0.000431207
0.00041743
0.00040274
0.000387367
0.000371332
0.000355572
0.000340281
0.000325466
0.000311242
0.000297627
0.000284751
0.000272966
0.000262774
0.000254676
0.00024911
0.000246493
0.000247187
0.000251296
0.000258391
0.000267759
0.000278852
0.00028956
0.000298476
0.00030503
0.000309126
0.000310926
0.00031071
0.000308845
0.000305811
0.000301903
0.000297741
0.000294238
0.000292653
0.000294652
0.00030223
0.000317275
0.000340736
0.000371832
0.000408073
0.000446183
0.000483193
0.000517099
0.000546937
0.000572588
0.000594568
0.000613858
0.000631684
0.000649198
0.000667131
0.000685643
0.000704418
0.000722924
0.000740715
0.000757694
0.00077428
0.000791458
0.000810665
0.000833489
0.000861236
0.000894482
0.000932776
0.000974641
0.00101788
0.00106009
0.00109917
0.00113362
0.00116271
0.00118637
0.00120503
0.00121939
0.00123027
0.00123849
0.00124481
0.00124984
0.00125413
0.00125817
0.00126242
0.00126744
0.00127385
0.00128242
0.00129397
0.00130927
0.00132882
0.0013493
0.00137084
0.00139217
0.00138681
0.00137317
0.0013574
0.00134013
0.00132237
0.00130464
0.00128689
0.00126899
0.0012503
0.00122974
0.0012091
0.00118788
0.0011653
0.00113888
0.00111387
0.00108868
0.0010627
0.00103573
0.00100787
0.000979182
0.000950328
0.000921572
0.000891946
0.000860507
0.000827939
0.000795337
0.000763043
0.000731238
0.000701321
0.000675484
0.000655318
0.000641893
0.000636321
0.00063959
0.000652819
0.000677791
0.000717627
0.000774496
0.000849963
0.00090927
0.000945007
0.000983503
0.00102261
0.00106026
0.00109384
0.00112244
0.00114604
0.00116514
0.00118036
0.00119226
0.00120119
0.00120724
0.0012101
0.00120928
0.00120283
0.00112716
0.000272208
0.000434972
0.000458677
0.000462856
0.000459314
0.000456153
0.000455559
0.000457113
0.000459962
0.00046349
0.000467364
0.000471434
0.000475637
0.000479936
0.00048429
0.000488636
0.000492894
0.00049699
0.000500861
0.000504445
0.000507677
0.000510488
0.000512809
0.000514579
0.000515726
0.000516063
0.000515298
0.000513597
0.000511089
0.000507887
0.000504065
0.000499639
0.000494547
0.00048863
0.000481584
0.000473055
0.000462849
0.000450809
0.000437013
0.00042178
0.0004056
0.000388997
0.000372365
0.000356195
0.00034084
0.000326394
0.000312912
0.000300532
0.000289598
0.000280703
0.000274604
0.000272062
0.000273658
0.000279516
0.000289016
0.000300731
0.000312816
0.000323645
0.000332286
0.000338812
0.000343281
0.0003457
0.000346211
0.0003451
0.000342724
0.000339457
0.000335632
0.000331762
0.000328564
0.000326972
0.000328139
0.000333345
0.000343777
0.000360141
0.00038227
0.000408993
0.000438438
0.000468575
0.000497675
0.000524533
0.0005485
0.000569448
0.000587758
0.000604254
0.000620009
0.000636044
0.000653062
0.000671362
0.000690957
0.000711817
0.000734118
0.000758429
0.000785765
0.000817459
0.000854845
0.0008988
0.000949303
0.00100517
0.00106417
0.00112338
0.00117985
0.00123107
0.00127531
0.00131171
0.00134014
0.00136107
0.00137528
0.00138377
0.00138758
0.00138774
0.00138526
0.00138108
0.00137617
0.00137152
0.00136824
0.00136761
0.00137101
0.00137993
0.00139571
0.00141928
0.00144546
0.00147407
0.0015039
0.00151333
0.00150972
0.00150426
0.00149656
0.00148588
0.00147296
0.0014587
0.00144345
0.00142624
0.0014066
0.0013824
0.00135836
0.00133328
0.00130665
0.00127835
0.00124867
0.00121758
0.00118499
0.00115082
0.00111482
0.00107724
0.00103845
0.000998829
0.000958025
0.000915631
0.000872272
0.000829085
0.000786976
0.000746771
0.000709824
0.000677809
0.000651976
0.000633069
0.000621582
0.000617836
0.000622344
0.00063615
0.000660382
0.000696721
0.000748421
0.0008163
0.000861464
0.00089144
0.000926017
0.000963365
0.00100106
0.0010364
0.00106811
0.00109577
0.00111951
0.00113974
0.00115694
0.00117147
0.00118346
0.00119284
0.00119848
0.00116609
0.000260955
0.000456372
0.000475147
0.00047441
0.000469642
0.000467089
0.000467141
0.000468748
0.000471061
0.00047366
0.000476416
0.000479335
0.000482456
0.000485803
0.000489365
0.00049308
0.000496852
0.000500587
0.000504201
0.00050761
0.000510716
0.000513412
0.000515586
0.000517127
0.000517907
0.000517738
0.000516613
0.000514714
0.000512122
0.000508889
0.00050503
0.000500516
0.000495245
0.000489028
0.000481586
0.000472591
0.000461797
0.000449117
0.000434709
0.000418989
0.000402545
0.000385994
0.000369841
0.00035448
0.00034021
0.000327233
0.000315793
0.000306318
0.000299488
0.000296162
0.00029712
0.000302679
0.000312343
0.000324732
0.00033793
0.000350096
0.000359976
0.000367068
0.000371476
0.000373616
0.000373945
0.000372869
0.000370733
0.000367823
0.000364422
0.000360865
0.000357571
0.000355066
0.000353996
0.00035509
0.000359095
0.000366677
0.000378273
0.000393928
0.000413203
0.00043522
0.000458837
0.000482873
0.00050628
0.000528254
0.000548308
0.000566336
0.00058265
0.00059795
0.000613163
0.000629214
0.000646835
0.000666526
0.000688665
0.000713692
0.000742298
0.000775492
0.000814518
0.000860572
0.000914376
0.000975733
0.00104328
0.00111455
0.00118641
0.00125562
0.00131939
0.00137566
0.00142322
0.00146158
0.00149084
0.00151148
0.0015243
0.00153026
0.00153047
0.0015261
0.0015184
0.0015087
0.00149842
0.00148917
0.00148279
0.00148139
0.00148726
0.00150252
0.00152857
0.00155886
0.00159129
0.00162605
0.00166172
0.00169644
0.00170979
0.00170551
0.00169516
0.00167837
0.00165783
0.00163421
0.00160967
0.00158311
0.00155441
0.00152405
0.00149256
0.00145997
0.00142608
0.0013908
0.00135383
0.0013152
0.00127475
0.00123225
0.00118765
0.00114115
0.00109311
0.00104398
0.000993901
0.000942937
0.000891843
0.000841831
0.00079405
0.00074952
0.000709438
0.000675093
0.000647423
0.000626919
0.000613801
0.000608151
0.000610133
0.000620109
0.000638644
0.000666847
0.000705818
0.000757749
0.000806573
0.000822255
0.000844075
0.000871428
0.000903233
0.00093674
0.000969816
0.00100109
0.00102991
0.00105615
0.00107995
0.00110153
0.00112101
0.00113812
0.00112903
0.00110424
0.000263634
0.00048019
0.000491073
0.000486963
0.000482014
0.000479722
0.000479374
0.000479841
0.000480511
0.000481221
0.000482037
0.00048309
0.000484494
0.000486314
0.000488558
0.000491173
0.000494056
0.000497058
0.000500061
0.000502964
0.000505649
0.000507982
0.000509827
0.000511049
0.000511506
0.000511033
0.000509775
0.000507826
0.000505224
0.000501966
0.000498012
0.000493278
0.000487633
0.000480893
0.000472837
0.000463255
0.000452027
0.000439201
0.000425038
0.000409993
0.000394629
0.000379509
0.000365115
0.000351837
0.000340035
0.000330106
0.00032257
0.000318107
0.000317436
0.000321032
0.000328749
0.000339623
0.000352035
0.00036421
0.000374734
0.000382827
0.000388311
0.000391395
0.00039246
0.000391916
0.000390151
0.000387539
0.000384445
0.000381229
0.000378245
0.000375838
0.000374356
0.000374167
0.000375657
0.000379208
0.000385157
0.000393748
0.000405075
0.000419029
0.000435287
0.000453335
0.000472532
0.000492193
0.000511666
0.000530411
0.000548079
0.000564595
0.000580218
0.000595522
0.000611295
0.000628388
0.000647583
0.000669572
0.000695033
0.000724753
0.000759723
0.000801111
0.000850068
0.00090738
0.00097306
0.00104604
0.00112416
0.00120448
0.00128379
0.00135917
0.00142832
0.00148965
0.00154224
0.00158568
0.0016199
0.00164516
0.00166193
0.00167097
0.00167325
0.00167001
0.00166267
0.0016529
0.00164258
0.0016339
0.00162943
0.00163212
0.00164506
0.00167011
0.00169965
0.00172915
0.001761
0.00179399
0.00182664
0.00185751
0.00188477
0.00190542
0.00189945
0.00186202
0.00182173
0.00178015
0.00173814
0.0016952
0.0016518
0.00160869
0.00156592
0.00152351
0.00148109
0.00143812
0.0013942
0.00134912
0.00130257
0.00125425
0.00120407
0.00115219
0.00109894
0.00104486
0.000990337
0.000935797
0.000882076
0.000830342
0.000781732
0.000737238
0.000697843
0.000664488
0.000637834
0.000618213
0.000605758
0.000600533
0.000602676
0.000612481
0.000630355
0.000657117
0.000694037
0.000741795
0.000775953
0.000778882
0.000786533
0.000799178
0.00081716
0.00083947
0.000864496
0.000890824
0.000917501
0.000944036
0.000970223
0.000995882
0.00101348
0.000984916
0.000967521
0.000953136
0.000288746
0.000504175
0.00050615
0.000499821
0.000494713
0.000491927
0.000490259
0.00048876
0.000487096
0.000485332
0.000483684
0.000482371
0.000481558
0.000481337
0.000481736
0.000482718
0.000484193
0.000486029
0.000488069
0.000490146
0.000492144
0.000493923
0.000495323
0.000496175
0.000496311
0.000495661
0.000494411
0.000492507
0.000489916
0.000486592
0.00048247
0.000477462
0.000471459
0.00046434
0.000455996
0.000446365
0.000435478
0.000423499
0.000410732
0.000397597
0.000384572
0.000372142
0.000360762
0.000350875
0.000342947
0.000337503
0.000335092
0.000336166
0.000340842
0.000348683
0.000358645
0.000369317
0.000379322
0.000387663
0.000393854
0.000397836
0.000399821
0.000400138
0.000399153
0.00039724
0.000394777
0.000392139
0.000389684
0.000387732
0.000386557
0.000386381
0.00038739
0.000389744
0.000393583
0.000399029
0.000406178
0.000415088
0.000425758
0.000438116
0.000451999
0.000467164
0.000483291
0.000500013
0.000516953
0.00053377
0.000550234
0.000566294
0.000582145
0.000598238
0.000615229
0.000633892
0.000655033
0.000679467
0.000708052
0.000741752
0.000781654
0.00082888
0.00088435
0.000948452
0.00102071
0.00109965
0.0011829
0.00126759
0.00135086
0.0014303
0.00150408
0.00157102
0.00163035
0.00168161
0.00172453
0.00175899
0.00178505
0.00180306
0.00181368
0.00181798
0.0018174
0.00181377
0.00180935
0.00180689
0.00180954
0.00182059
0.00184256
0.00186661
0.00188561
0.00190675
0.00192873
0.001949
0.00196679
0.00198113
0.00199106
0.00199571
0.00199424
0.00197726
0.00191063
0.00184468
0.00178136
0.0017203
0.00166211
0.00160706
0.00155497
0.00150541
0.0014576
0.00141066
0.00136387
0.00131667
0.00126856
0.00121914
0.00116825
0.00111598
0.00106266
0.0010088
0.00095497
0.000901776
0.000850094
0.000801
0.000755522
0.000714507
0.000678682
0.000648662
0.000624872
0.000607553
0.000596869
0.000593009
0.000596278
0.000607126
0.0006261
0.000654101
0.000692946
0.000743437
0.000758015
0.000753463
0.000751662
0.000753098
0.000758421
0.000768116
0.000781565
0.000798034
0.00081687
0.000837634
0.000859971
0.000883173
0.000853386
0.000814362
0.000792539
0.000777716
0.000359736
0.000524303
0.000519032
0.000511608
0.000506173
0.000502305
0.00049877
0.000494893
0.00049059
0.000486096
0.000481721
0.000477727
0.000474298
0.000471547
0.000469524
0.000468235
0.000467632
0.000467617
0.000468058
0.000468804
0.000469692
0.000470545
0.000471224
0.000471556
0.000471386
0.000470912
0.000469912
0.000468268
0.000465913
0.000462791
0.00045885
0.000454034
0.000448293
0.000441591
0.000433926
0.000425346
0.000415972
0.00040601
0.000395751
0.000385551
0.000375811
0.000366949
0.000359393
0.000353574
0.000349914
0.000348782
0.000350387
0.000354644
0.00036108
0.000368856
0.000376953
0.00038443
0.000390623
0.000395217
0.000398186
0.000399698
0.000400012
0.000399428
0.000398257
0.000396813
0.000395399
0.000394294
0.00039374
0.000393936
0.000395032
0.000397138
0.000400329
0.00040465
0.000410128
0.000416778
0.000424605
0.000433611
0.000443787
0.000455107
0.000467514
0.000480921
0.000495206
0.000510207
0.000525737
0.000541612
0.000557693
0.000573948
0.000590511
0.000607715
0.000626087
0.000646304
0.000669142
0.000695443
0.000726122
0.000762176
0.000804663
0.000854577
0.000912638
0.000979012
0.00105305
0.00113323
0.00121735
0.00130288
0.00138739
0.00146891
0.00154602
0.00161784
0.00168379
0.0017433
0.001796
0.00184155
0.00187963
0.0019101
0.00193316
0.00194945
0.00196015
0.00196698
0.0019722
0.001979
0.00199108
0.00200897
0.00202646
0.00203431
0.0020394
0.00204289
0.00204401
0.00204198
0.00203641
0.00202726
0.00201473
0.00199906
0.00198016
0.00195675
0.00187943
0.00179254
0.00171332
0.0016414
0.00157638
0.00151753
0.00146388
0.0014144
0.00136794
0.00132331
0.00127947
0.00123561
0.00119107
0.00114537
0.00109834
0.00105002
0.00100074
0.00095104
0.000901562
0.000853066
0.000806471
0.000762783
0.000722875
0.000687367
0.00065669
0.000631136
0.000610925
0.000596276
0.000587498
0.000585026
0.000589455
0.000601518
0.000621979
0.000651916
0.000693635
0.000747972
0.000744132
0.000736516
0.000730471
0.000726392
0.000724667
0.000726063
0.000730639
0.000738272
0.000748806
0.00076213
0.000778055
0.00079579
0.000751269
0.000698194
0.000666899
0.000642778
0.000531834
0.000536531
0.000528308
0.000520829