/*--------------------------------*- C++ -*----------------------------------*\
| =========                 |                                                 |
| \\      /  F ield         | OpenFOAM: The Open Source CFD Toolbox           |
|  \\    /   O peration     | Version:  2112                                  |
|   \\  /    A nd           | Website:  www.openfoam.com                      |
|    \\/     M anipulation  |                                                 |
\*---------------------------------------------------------------------------*/
FoamFile
{
    version     2.0;
    format      ascii;
    arch        "LSB;label=32;scalar=64";
    class       volScalarField;
    location    "0.34";
    object      pMean;
}
// * * * * * * * * * * * * * * * * * * * * * * * * * * * * * * * * * * * * * //

dimensions      [0 2 -2 0 0 0 0];

internalField   nonuniform List<scalar> 
12225
(
3.56736
2.93455
2.59808
2.46281
2.39527
2.34175
2.29425
2.25839
2.23952
2.24048
2.26182
2.30521
2.37025
2.45926
2.56467
2.67718
2.75409
2.69985
3.3163
2.90439
2.59673
2.4526
2.38337
2.33145
2.28465
2.24845
2.22852
2.22808
2.24705
2.28747
2.34694
2.42965
2.5226
2.62598
2.67606
2.61872
3.25553
2.89933
2.60449
2.44899
2.37447
2.32284
2.27645
2.23922
2.21741
2.21393
2.22911
2.26265
2.31388
2.38009
2.45468
2.51848
2.53606
2.43751
3.11155
2.84746
2.59246
2.43638
2.35742
2.30641
2.26143
2.22399
2.20016
2.19347
2.20354
2.23001
2.27002
2.32064
2.37137
2.40531
2.39245
2.29637
3.0313
2.81384
2.58796
2.43272
2.34685
2.29323
2.2484
2.21017
2.18382
2.17282
2.17714
2.1951
2.22353
2.25742
2.28702
2.29705
2.26718
2.17952
2.92953
2.75645
2.56568
2.4188
2.32868
2.27234
2.22768
2.18928
2.16065
2.14524
2.14316
2.15232
2.16885
2.18701
2.19798
2.18967
2.14868
2.06404
2.85006
2.70609
2.54318
2.40614
2.31312
2.25271
2.20668
2.16734
2.13608
2.1157
2.10641
2.10596
2.11026
2.11361
2.10833
2.08524
2.03483
1.94985
2.76231
2.64628
2.51017
2.38554
2.29235
2.22835
2.18024
2.13954
2.10548
2.07997
2.06326
2.05316
2.04563
2.03541
2.01596
1.9803
1.92158
1.83513
2.68502
2.59003
2.47487
2.36244
2.27085
2.20348
2.15228
2.10933
2.07206
2.04113
2.0167
1.99686
1.97787
1.955
1.92288
1.8762
1.80997
1.72131
2.61733
2.52911
2.43089
2.33163
2.2437
2.17413
2.11965
2.07374
2.03283
1.99642
1.96432
1.93494
1.90511
1.87076
1.82741
1.77102
1.69809
1.60673
2.54778
2.47189
2.38794
2.29912
2.21473
2.14332
2.08515
2.03553
1.99041
1.94825
1.90851
1.86986
1.82967
1.78455
1.73099
1.66588
1.58674
1.4923
2.47766
2.41337
2.34188
2.26178
2.18119
2.10948
2.0487
1.99553
1.9462
1.89876
1.85233
1.80572
1.75683
1.70291
1.64106
1.5689
1.4846
1.38729
2.42131
2.36439
2.30007
2.22572
2.14789
2.07561
2.01199
1.95484
1.9008
1.84781
1.79478
1.74058
1.68345
1.62127
1.55178
1.47317
1.38405
1.28386
2.33516
2.29571
2.24311
2.17584
2.10204
2.03049
1.96444
1.90291
1.84362
1.7846
1.72453
1.66232
1.59671
1.52613
1.44898
1.36388
1.26988
1.1666
2.30076
2.24156
2.18372
2.12062
2.05067
1.97868
1.90871
1.84164
1.77601
1.70996
1.6421
1.57151
1.49721
1.41812
1.33311
1.24136
1.14229
1.03578
2.22663
2.163
2.10722
2.04978
1.98408
1.91254
1.8396
1.76723
1.69495
1.62148
1.54564
1.46662
1.38372
1.29636
1.20393
1.10596
1.00208
0.892322
2.13818
2.08439
2.03403
1.97803
1.91146
1.83746
1.76017
1.68176
1.60239
1.52116
1.43714
1.34973
1.25857
1.16342
1.06397
0.960078
0.851576
0.738584
2.02969
1.99521
1.9546
1.89982
1.8309
1.75312
1.67119
1.58713
1.50097
1.4121
1.32003
1.22456
1.1257
1.02346
0.91781
0.808796
0.696437
0.580984
1.96086
1.91756
1.87349
1.81772
1.74675
1.66502
1.57739
1.48657
1.39322
1.29708
1.19786
1.09551
0.990165
0.882063
0.771384
0.658309
0.542957
0.425541
1.98844
1.92493
1.86039
1.78861
1.7061
1.61554
1.52043
1.42271
1.3227
1.22007
1.11463
1.00658
0.896281
0.78405
0.670084
0.554571
0.437709
0.319811
1.91664
1.88019
1.82932
1.75734
1.66905
1.57299
1.474
1.37326
1.27032
1.1646
1.05609
0.945229
0.832476
0.718209
0.602663
0.486033
0.368452
0.250082
1.99349
1.92806
1.85403
1.76722
1.66885
1.5651
1.4601
1.35441
1.24696
1.13705
1.02481
0.910811
0.795567
0.679387
0.562423
0.444831
0.32682
0.208743
2.03321
1.94557
1.85393
1.75655
1.65234
1.54546
1.43848
1.33095
1.2215
1.10958
0.995642
0.880376
0.764242
0.647439
0.530075
0.412296
0.294271
0.176168
2.0835
2.00055
1.89598
1.77939
1.66206
1.54968
1.44046
1.3304
1.21749
1.10215
0.985551
0.868408
0.750912
0.633049
0.514846
0.39648
0.278205
0.160356
2.11756
2.02387
1.90309
1.77307
1.65071
1.53892
1.43062
1.31965
1.20491
1.08806
0.970657
0.853197
0.73555
0.617568
0.499326
0.381069
0.26307
0.145544
2.23946
2.10349
1.94152
1.79019
1.66282
1.55068
1.44037
1.32578
1.2077
1.08864
0.969921
0.851526
0.733073
0.614393
0.495617
0.377007
0.258785
0.141175
2.28591
2.11882
1.9332
1.77699
1.65472
1.54658
1.43612
1.31978
1.20053
1.08121
0.962541
0.844175
0.725678
0.606993
0.488289
0.369846
0.251925
0.134795
2.44656
2.19842
1.95734
1.78725
1.66722
1.55914
1.44536
1.32583
1.20484
1.0847
0.965488
0.846599
0.727639
0.608623
0.489744
0.371263
0.253319
0.135938
2.47704
2.19292
1.94174
1.78137
1.66814
1.56011
1.44459
1.32418
1.20309
1.083
0.963692
0.844641
0.7255
0.60639
0.487459
0.369175
0.251555
0.134998
2.72113
2.23575
1.93986
1.78727
1.67749
1.56715
1.44935
1.32796
1.2065
1.08615
0.966591
0.847315
0.727988
0.608765
0.489751
0.371559
0.254176
0.138624
-1.903
-2.05514
-2.20968
-2.28029
-2.23541
-2.1238
-2.03241
-2.04795
-2.22398
-2.56318
-3.03442
-3.58888
-4.17039
-4.72885
-5.22828
-5.64468
-5.95585
-6.15869
-6.25219
-6.24168
-6.15332
-6.01246
-5.84946
-5.67449
-5.52008
-5.41315
-5.38279
-5.45651
-5.62623
-5.8754
-6.18394
-6.55325
-7.00326
-7.53341
-8.11663
-8.7394
-9.36999
-9.9906
-10.5973
-11.2034
-11.8209
-12.473
-13.1268
-13.7348
-14.2965
-14.7847
-15.1839
-15.4985
-15.7351
-15.9265
-16.1035
-16.254
-16.3871
-16.4992
-16.5621
-16.5412
-16.439
-16.2982
-16.164
-16.0775
-16.046
-16.085
-16.1804
-16.2763
-16.3595
-16.487
-16.6823
-16.884
-17.1067
-17.2929
-17.4356
-17.5417
-17.5933
-17.6238
-17.629
-17.5772
-17.449
-17.2251
-16.9091
-16.5284
-16.0689
-15.5354
-14.9453
-14.292
-13.5821
-12.8361
-12.0546
-11.2364
-10.3672
-9.46419
-8.52243
-7.59221
-6.71874
-5.88795
-5.0867
-4.30603
-3.52085
-2.70444
-1.83769
-0.912814
0.0580596
1.07029
2.10184
3.14782
4.1451
5.0533
5.90141
6.71428
7.4916
8.22627
8.92819
9.55042
10.0792
10.5702
11.0599
11.5694
12.123
12.7404
13.4278
14.1802
14.9834
15.8086
16.6223
17.4026
18.1398
18.827
19.4568
20.0217
20.5154
20.9313
21.2623
21.5015
21.6483
21.7111
21.6907
21.5779
21.3685
21.0707
20.7056
20.3065
19.9225
19.5956
19.3433
19.163
19.0392
18.9506
18.8823
18.8298
18.791
18.7604
18.7408
18.75
18.7965
18.8716
18.9584
19.0375
19.089
19.0959
19.048
18.9408
18.7706
18.5229
18.2351
17.9607
17.7165
17.543
17.4681
17.491
17.5968
17.7592
17.9515
18.151
18.3289
18.4526
18.4843
18.4413
18.3775
18.3573
18.4551
18.7333
-2.64325
-2.79925
-2.97884
-3.10886
-3.10951
-3.06853
-3.06803
-3.17736
-3.42851
-3.81098
-4.28876
-4.81327
-5.34204
-5.83506
-6.26267
-6.60149
-6.84739
-7.01682
-7.09602
-7.08379
-7.0064
-6.88457
-6.74427
-6.61262
-6.50126
-6.43377
-6.43893
-6.53583
-6.71754
-6.97313
-7.32089
-7.77338
-8.33246
-8.98955
-9.6729
-10.346
-11.0155
-11.6757
-12.2888
-12.8807
-13.4678
-14.0845
-14.7201
-15.3021
-15.8323
-16.3031
-16.6784
-16.9682
-17.1858
-17.3553
-17.5275
-17.6883
-17.8282
-17.9303
-17.9407
-17.8639
-17.7213
-17.5377
-17.3637
-17.2359
-17.1613
-17.1506
-17.2313
-17.3711
-17.4933
-17.6189
-17.8001
-17.9848
-18.1722
-18.3628
-18.5089
-18.6252
-18.6768
-18.6902
-18.6587
-18.5592
-18.3805
-18.1052
-17.7362
-17.3025
-16.8005
-16.2419
-15.6556
-15.0076
-14.2907
-13.5265
-12.7181
-11.8709
-10.9881
-10.0958
-9.17285
-8.24674
-7.36272
-6.51068
-5.68841
-4.88525
-4.07696
-3.23551
-2.34109
-1.38734
-0.390677
0.641084
1.66147
2.67047
3.63679
4.53781
5.40373
6.24562
7.06534
7.81269
8.50159
9.11071
9.6411
10.1448
10.6472
11.1723
11.7438
12.3808
13.0873
13.8581
14.6772
15.5158
16.3426
17.1377
17.891
18.5942
19.2389
19.8173
20.322
20.7453
21.0794
21.3167
21.4562
21.5054
21.4665
21.3333
21.1037
20.7876
20.4104
20.0092
19.6326
19.3183
19.0782
18.9069
18.7886
18.7037
18.6387
18.5888
18.5523
18.5256
18.5142
18.5345
18.5914
18.6739
18.7643
18.8435
18.8925
18.8938
18.8358
18.7109
18.514
18.2433
17.949
17.6773
17.4411
17.2819
17.2212
17.2557
17.3727
17.5438
17.7429
17.9485
18.1318
18.2565
18.2886
18.2447
18.1879
18.1562
18.2286
18.3074
-2.53225
-2.63673
-2.92675
-3.28787
-3.66241
-4.03217
-4.41685
-4.83795
-5.30269
-5.79971
-6.30649
-6.79434
-7.23904
-7.62681
-7.96046
-8.21748
-8.38952
-8.48732
-8.51269
-8.4811
-8.40171
-8.30061
-8.18247
-8.06549
-7.97532
-7.9213
-7.93115
-8.01585
-8.18752
-8.45665
-8.84553
-9.35396
-9.97475
-10.6876
-11.4567
-12.2332
-12.9828
-13.7022
-14.3927
-15.0598
-15.7127
-16.3666
-16.9895
-17.5552
-18.0455
-18.4517
-18.7732
-19.0151
-19.2061
-19.3564
-19.4845
-19.6004
-19.689
-19.7287
-19.6943
-19.5984
-19.4535
-19.2638
-19.0714
-18.9218
-18.8515
-18.8616
-18.9174
-19.0043
-19.1158
-19.2376
-19.3986
-19.5813
-19.7522
-19.9059
-20.0491
-20.1735
-20.2369
-20.2322
-20.1505
-19.9841
-19.7376
-19.4037
-18.9872
-18.5119
-17.998
-17.438
-16.8343
-16.1723
-15.4367
-14.6379
-13.786
-12.911
-12.0305
-11.1367
-10.2265
-9.3083
-8.40404
-7.52207
-6.66615
-5.8262
-4.982
-4.10862
-3.18714
-2.21112
-1.19108
-0.152609
0.862063
1.83192
2.76362
3.67181
4.56964
5.45353
6.30447
7.07434
7.75685
8.35916
8.90729
9.43142
9.95327
10.5005
11.0974
11.7601
12.4913
13.2841
14.1212
14.9768
15.8256
16.6496
17.4346
18.1683
18.8401
19.4413
19.9642
20.4009
20.7412
20.975
21.099
21.1172
21.0351
20.8587
20.5959
20.2596
19.8754
19.4819
19.1229
18.8267
18.601
18.4396
18.3279
18.2477
18.186
18.1375
18.1018
18.0822
18.0884
18.1299
18.2047
18.3003
18.3997
18.4838
18.534
18.5317
18.4612
18.313
18.083
17.7901
17.495
17.2309
17.0095
16.8676
16.8247
16.8742
16.9971
17.1707
17.3768
17.591
17.7807
17.9056
17.9428
17.9117
17.8678
17.8315
17.8762
17.8737
-2.75779
-2.90332
-3.31049
-3.87945
-4.53573
-5.21648
-5.88327
-6.52071
-7.12163
-7.67851
-8.18224
-8.6277
-9.01959
-9.34964
-9.61769
-9.8197
-9.95625
-10.0359
-10.0602
-10.0436
-9.99436
-9.92446
-9.84753
-9.77302
-9.71961
-9.69853
-9.72388
-9.80527
-9.9557
-10.1901
-10.5284
-10.9891
-11.5847
-12.2899
-13.0676
-13.8855
-14.7079
-15.5167
-16.3169
-17.1012
-17.8595
-18.5994
-19.2832
-19.8737
-20.3606
-20.7377
-21.019
-21.222
-21.3671
-21.474
-21.5542
-21.6154
-21.6553
-21.6569
-21.6095
-21.5099
-21.3583
-21.1761
-21.0037
-20.8699
-20.8037
-20.7952
-20.8282
-20.8974
-20.9924
-21.1107
-21.2716
-21.4342
-21.5804
-21.7029
-21.8146
-21.9092
-21.9474
-21.9103
-21.7893
-21.5816
-21.2995
-20.9474
-20.5233
-20.0381
-19.5081
-18.9423
-18.3143
-17.6089
-16.8291
-15.992
-15.1166
-14.2304
-13.343
-12.4461
-11.533
-10.6099
-9.69035
-8.78442
-7.89755
-7.02326
-6.1454
-5.24259
-4.29708
-3.30134
-2.26673
-1.22522
-0.216883
0.739159
1.66883
2.59475
3.52473
4.44432
5.3149
6.09617
6.78356
7.39774
7.96372
8.50349
9.04259
9.6113
10.2343
10.9246
11.6822
12.4982
13.3552
14.232
15.1089
15.9684
16.7933
17.5667
18.2744
18.9059
19.4536
19.9085
20.2581
20.4882
20.5895
20.5634
20.4235
20.1913
19.8861
19.5253
19.1349
18.7521
18.413
18.1377
17.9294
17.7801
17.6756
17.6006
17.5433
17.4982
17.4676
17.4613
17.4898
17.5558
17.6525
17.7659
17.8784
17.9709
18.025
18.0207
17.9385
17.7658
17.5051
17.1968
16.9035
16.6525
16.455
16.3391
16.3171
16.3793
16.5085
16.6888
16.9001
17.1145
17.3002
17.4197
17.4639
17.4469
17.4113
17.369
17.3832
17.337
-3.07902
-3.37663
-3.98864
-4.76166
-5.59056
-6.41369
-7.20284
-7.93688
-8.6047
-9.2062
-9.74645
-10.2259
-10.6435
-10.9957
-11.2814
-11.5023
-11.6656
-11.7769
-11.8445
-11.8741
-11.8746
-11.8572
-11.834
-11.8201
-11.8267
-11.865
-11.9389
-12.0525
-12.2121
-12.4319
-12.7333
-13.1308
-13.6413
-14.2618
-14.972
-15.746
-16.5584
-17.3944
-18.2484
-19.1105
-19.9521
-20.7526
-21.4805
-22.106
-22.6132
-22.9973
-23.2696
-23.4469
-23.554
-23.6148
-23.6489
-23.6661
-23.6675
-23.6467
-23.5961
-23.4977
-23.3463
-23.173
-23.0137
-22.8958
-22.8309
-22.8143
-22.8331
-22.884
-22.9683
-23.0937
-23.2405
-23.3783
-23.4893
-23.577
-23.6546
-23.7104
-23.7114
-23.6409
-23.4905
-23.263
-22.9724
-22.6263
-22.2192
-21.7577
-21.2409
-20.664
-20.011
-19.2681
-18.4479
-17.5763
-16.6797
-15.7764
-14.8731
-13.9591
-13.0313
-12.0964
-11.1635
-10.2412
-9.33516
-8.44134
-7.54573
-6.62724
-5.66746
-4.66014
-3.6172
-2.57171
-1.56139
-0.598495
0.34996
1.30795
2.27604
3.22734
4.11427
4.90901
5.6129
6.24674
6.82879
7.38168
7.93634
8.52551
9.17458
9.89347
10.6788
11.5189
12.3979
13.2993
14.2076
15.1063
15.976
16.7956
17.5462
18.2146
18.7923
19.2695
19.6318
19.8598
19.9362
19.8604
19.656
19.3611
19.0082
18.6189
18.2195
17.8438
17.5212
17.2649
17.074
16.9385
16.8442
16.7784
16.7297
16.6916
16.6688
16.6764
16.7255
16.815
16.9346
17.0684
17.1973
17.3019
17.3639
17.3619
17.2725
17.0803
16.7977
16.4822
16.1929
15.9554
15.7814
15.6911
15.6928
15.7755
15.9223
16.1168
16.3369
16.5531
16.7317
16.8424
16.8872
16.8779
16.8462
16.7979
16.7809
16.7003
-3.66113
-4.11896
-4.89678
-5.75949
-6.64646
-7.52587
-8.37489
-9.17678
-9.92192
-10.6059
-11.2275
-11.7879
-12.2851
-12.7147
-13.0747
-13.3674
-13.5991
-13.7796
-13.9149
-14.0109
-14.0753
-14.1217
-14.1651
-14.2206
-14.2997
-14.4077
-14.5452
-14.7123
-14.9133
-15.1581
-15.464
-15.8452
-16.3188
-16.8895
-17.5439
-18.2658
-19.043
-19.8667
-20.7237
-21.603
-22.4687
-23.2858
-24.0178
-24.6407
-25.1392
-25.5109
-25.7643
-25.915
-25.9837
-25.9926
-25.9647
-25.9157
-25.854
-25.7843
-25.6968
-25.5736
-25.4179
-25.2592
-25.1202
-25.0157
-24.9501
-24.9175
-24.9141
-24.944
-25.0168
-25.1295
-25.2563
-25.3699
-25.4508
-25.5016
-25.5308
-25.5392
-25.5028
-25.4056
-25.2421
-25.0161
-24.7365
-24.4079
-24.0282
-23.5867
-23.0821
-22.5027
-21.8309
-21.0671
-20.2257
-19.3339
-18.4187
-17.4968
-16.5729
-15.6402
-14.6985
-13.7522
-12.8081
-11.8745
-10.9574
-10.0542
-9.15225
-8.23065
-7.2697
-6.26228
-5.22028
-4.17276
-3.14888
-2.15842
-1.17258
-0.171443
0.837898
1.82073
2.7303
3.55005
4.28242
4.94112
5.5404
6.10653
6.67623
7.28546
7.95933
8.70486
9.51547
10.3777
11.2778
12.2033
13.1419
14.0781
14.9915
15.858
16.6543
17.3633
17.9743
18.4766
18.8535
19.0801
19.131
19.0047
18.7358
18.3804
17.9806
17.5615
17.1503
16.7782
16.4686
16.2289
16.0546
15.9338
15.852
15.7982
15.7608
15.7322
15.7187
15.7404
15.8092
15.9217
16.065
16.2207
16.3676
16.4859
16.5573
16.5599
16.4676
16.2642
15.973
15.6606
15.3792
15.1556
15.0042
14.9395
14.9671
15.0756
15.2474
15.4639
15.6993
15.9209
16.0952
16.2006
16.2475
16.2448
16.2125
16.1554
16.1106
16.0064
-4.67136
-5.14873
-5.86865
-6.67148
-7.52213
-8.39958
-9.28136
-10.1451
-10.9744
-11.7575
-12.4859
-13.1553
-13.7618
-14.3015
-14.7731
-15.1781
-15.523
-15.8141
-16.0552
-16.2512
-16.4103
-16.5482
-16.6837
-16.8326
-17.0044
-17.2004
-17.4201
-17.6613
-17.9274
-18.2262
-18.5708
-18.9765
-19.4584
-20.0211
-20.6573
-21.36
-22.1244
-22.9435
-23.8017
-24.6752
-25.5264
-26.3214
-27.0272
-27.6201
-28.0881
-28.4292
-28.6494
-28.7605
-28.7751
-28.7092
-28.588
-28.435
-28.2687
-28.106
-27.9496
-27.7812
-27.6061
-27.4468
-27.3122
-27.2033
-27.1209
-27.0621
-27.03
-27.0382
-27.0948
-27.1763
-27.2673
-27.3504
-27.4059
-27.4267
-27.423
-27.3968
-27.332
-27.2141
-27.0419
-26.8189
-26.5506
-26.2368
-25.8709
-25.4423
-24.9431
-24.3606
-23.6803
-22.9087
-22.0606
-21.1601
-20.2347
-19.3025
-18.3677
-17.4275
-16.4815
-15.5315
-14.5822
-13.6422
-12.7186
-11.8119
-10.9117
-9.99637
-9.04386
-8.04588
-7.01053
-5.95776
-4.91044
-3.88005
-2.84817
-1.80095
-0.751249
0.264012
1.20553
2.06274
2.83429
3.52484
4.14578
4.72774
5.31311
5.94189
6.63814
7.40652
8.23804
9.11932
10.038
10.9845
11.9489
12.917
13.8685
14.7782
15.6185
16.368
17.0128
17.5402
17.931
18.1558
18.1829
18.0107
17.6867
17.281
16.8409
16.3944
15.9701
15.5976
15.2963
15.0692
14.9091
14.8017
14.7318
14.69
14.6654
14.6489
14.647
14.6839
14.7721
14.9065
15.0727
15.2494
15.4132
15.5435
15.6232
15.6309
15.5397
15.3347
15.0479
14.7476
14.4788
14.2708
14.1423
14.104
14.1588
14.2949
14.4943
14.7356
14.9897
15.2227
15.4012
15.51
15.5651
15.5714
15.5392
15.4726
15.4011
15.2746
-5.62603
-6.02297
-6.59311
-7.29272
-8.09451
-8.96471
-9.87265
-10.7928
-11.7054
-12.5938
-13.4443
-14.2487
-14.9994
-15.6893
-16.3138
-16.8714
-17.365
-17.7986
-18.1741
-18.4952
-18.7721
-19.0229
-19.2675
-19.5197
-19.7863
-20.0686
-20.3664
-20.6793
-21.012
-21.3726
-21.7738
-22.2315
-22.7587
-23.3591
-24.0315
-24.7746
-25.5831
-26.4381
-27.3206
-28.2025
-29.0473
-29.8212
-30.4929
-31.0426
-31.4624
-31.7501
-31.91
-31.9518
-31.8841
-31.718
-31.4787
-31.198
-30.9049
-30.6269
-30.3717
-30.1294
-29.9043
-29.7093
-29.5453
-29.4088
-29.2968
-29.2083
-29.1512
-29.1316
-29.1522
-29.1988
-29.2572
-29.3094
-29.3377
-29.335
-29.2979
-29.2264
-29.13
-28.9947
-28.8161
-28.5949
-28.3311
-28.0234
-27.6635
-27.2407
-26.7474
-26.1683
-25.491
-24.7256
-23.8854
-22.9896
-22.0639
-21.1303
-20.1982
-19.2654
-18.3284
-17.3857
-16.4395
-15.497
-14.5675
-13.6568
-12.7588
-11.8517
-10.9111
-9.92528
-8.89546
-7.8333
-6.75778
-5.68312
-4.60376
-3.51337
-2.42739
-1.37974
-0.399698
0.502929
1.31959
2.04695
2.69413
3.29523
3.89754
4.54522
5.26137
6.04834
6.89688
7.79383
8.727
9.68901
10.6724
11.6644
12.6461
13.591
14.4681
15.252
15.9261
16.4752
16.8767
17.098
17.1048
16.8968
16.5331
16.0916
15.6213
15.1522
14.7148
14.3403
14.0451
13.8282
13.6803
13.5842
13.5242
13.4932
13.4822
13.4799
13.4915
13.5433
13.6494
13.8031
13.9892
14.1844
14.3623
14.5022
14.5888
14.6023
14.5165
14.319
14.0471
13.7661
13.5147
13.3247
13.2197
13.2076
13.2896
13.4533
13.6795
13.9446
14.2177
14.4659
14.656
14.7768
14.8468
14.8662
14.8365
14.763
14.6706
14.5255
-6.1534
-6.46729
-6.95164
-7.59411
-8.36822
-9.24042
-10.1802
-11.1617
-12.1625
-13.1616
-14.1419
-15.0924
-16.0029
-16.8628
-17.6638
-18.3989
-19.0649
-19.6613
-20.1895
-20.6547
-21.0682
-21.4469
-21.8075
-22.1612
-22.5143
-22.8721
-23.239
-23.6184
-24.0174
-24.446
-24.9202
-25.4577
-26.0688
-26.7548
-27.5123
-28.3365
-29.2224
-30.1489
-31.0867
-32.0007
-32.8572
-33.6226
-34.2653
-34.7691
-35.1293
-35.3431
-35.4156
-35.3578
-35.1766
-34.8828
-34.5051
-34.0839
-33.6566
-33.2534
-32.8821
-32.5403
-32.2363
-31.9772
-31.7591
-31.5787
-31.4297
-31.3047
-31.2127
-31.1663
-31.1564
-31.1676
-31.1907
-31.2082
-31.2025
-31.1633
-31.0909
-30.9919
-30.8659
-30.7046
-30.5083
-30.2786
-30.0132
-29.7064
-29.35
-28.9344
-28.4532
-27.8887
-27.2292
-26.4849
-25.664
-24.7812
-23.8615
-22.9335
-22.0099
-21.0915
-20.1721
-19.2456
-18.3087
-17.3657
-16.4285
-15.5096
-14.6103
-13.7114
-12.7844
-11.8113
-10.7858
-9.71219
-8.60643
-7.48714
-6.36149
-5.23169
-4.1142
-3.03729
-2.01938
-1.07121
-0.209442
0.556176
1.23272
1.85594
2.47641
3.14201
3.87554
4.67736
5.539
6.44765
7.39043
8.36185
9.35611
10.3628
11.3645
12.3338
13.2372
14.0467
14.7433
15.3085
15.7162
15.9324
15.9245
15.6945
15.3085
14.8464
14.3567
13.8717
13.4258
13.0521
12.7638
12.5564
12.4184
12.3306
12.2773
12.2545
12.2564
12.2688
12.2945
12.3603
12.482
12.6516
12.8533
13.0625
13.2509
13.3979
13.4897
13.5091
13.4322
13.25
13.0002
12.7441
12.5151
12.346
12.265
12.2783
12.3864
12.575
12.8241
13.1093
13.3992
13.6628
13.8683
14.0061
14.0952
14.1321
14.111
14.0363
13.9302
13.7722
-6.30409
-6.56725
-7.00404
-7.61689
-8.38577
-9.28028
-10.2689
-11.3233
-12.4176
-13.5296
-14.6411
-15.7399
-16.8126
-17.8465
-18.8302
-19.7521
-20.6032
-21.3791
-22.0796
-22.7076
-23.2714
-23.7846
-24.2619
-24.7153
-25.1523
-25.5807
-26.0115
-26.4569
-26.9276
-27.4346
-27.9932
-28.6189
-29.3222
-30.1031
-30.9556
-31.8737
-32.846
-33.8485
-34.8491
-35.8081
-36.6869
-37.4525
-38.076
-38.5417
-38.8432
-38.9778
-38.9514
-38.7782
-38.4683
-38.0341
-37.5098
-36.9429
-36.3735
-35.8332
-35.3353
-34.8855
-34.4929
-34.1609
-33.8837
-33.651
-33.4544
-33.2914
-33.1684
-33.0926
-33.052
-33.0305
-33.0212
-33.0069
-32.9694
-32.8979
-32.7922
-32.6582
-32.4963
-32.3067
-32.0907
-31.8478
-31.5746
-31.2652
-30.9118
-30.5067
-30.0428
-29.5006
-28.8703
-28.1595
-27.37
-26.5081
-25.5976
-24.6754
-23.7607
-22.8572
-21.9582
-21.051
-20.1241
-19.1785
-18.2295
-17.297
-16.3924
-15.5004
-14.5882
-13.6282
-12.6061
-11.5201
-10.3846
-9.22264
-8.05298
-6.88612
-5.73958
-4.63672
-3.58568
-2.59768
-1.69559
-0.894209
-0.187885
0.458833
1.09784
1.77956
2.52718
3.34018
4.21045
5.12599
6.07266
7.04614
8.04217
9.05321
10.0639
11.0453
11.9624
12.7873
13.4978
14.072
14.481
14.6916
14.6753
14.4374
14.0451
13.576
13.0782
12.5868
12.1401
11.772
11.4926
11.2945
11.1644
11.0826
11.034
11.0176
11.0309
11.0582
11.0987
11.1782
11.3125
11.4934
11.7047
11.9218
12.1154
12.2656
12.3604
12.3858
12.3214
12.1611
11.94
11.7135
11.5115
11.3655
11.3076
11.3446
11.4753
11.6844
11.9521
12.2528
12.5561
12.8333
13.055
13.2108
13.319
13.3747
13.367
13.2981
13.1881
13.0247
-6.17586
-6.40981
-6.831
-7.44332
-8.22849
-9.16025
-10.2091
-11.3461
-12.5437
-13.7774
-15.0266
-16.275
-17.5063
-18.7063
-19.862
-20.9599
-21.9885
-22.9404
-23.8123
-24.6032
-25.317
-25.9636
-26.5548
-27.1032
-27.6208
-28.12
-28.615
-29.122
-29.6565
-30.2315
-30.8598
-31.5551
-32.3299
-33.1864
-34.1163
-35.1088
-36.1489
-37.2124
-38.2656
-39.2649
-40.1688
-40.9412
-41.5544
-41.9923
-42.2447
-42.3083
-42.1932
-41.9174
-41.4955
-40.9424
-40.2948
-39.6043
-38.9112
-38.2472
-37.6314
-37.0759
-36.5934
-36.187
-35.8499
-35.5684
-35.3282
-35.1262
-34.97
-34.8658
-34.7976
-34.7488
-34.7125
-34.6719
-34.6074
-34.5065
-34.3694
-34.203
-34.0108
-33.7946
-33.555
-33.2924
-33.0054
-32.69
-32.3398
-31.9469
-31.5029
-30.9894
-30.397
-29.7293
-28.982
-28.1514
-27.2554
-26.3369
-25.4239
-24.5274
-23.6407
-22.7452
-21.8217
-20.8679
-19.903
-18.9547
-18.0414
-17.1515
-16.2498
-15.2991
-14.2768
-13.1771
-12.0144
-10.8156
-9.60826
-8.40893
-7.23697
-6.11278
-5.03764
-4.02076
-3.08858
-2.25861
-1.52507
-0.854662
-0.196784
0.499823
1.25885
2.07939
2.95335
3.86935
4.81295
5.78044
6.76899
7.77399
8.7816
9.76211
10.6804
11.5086
12.2236
12.7999
13.2066
13.4129
13.396
13.1636
12.7788
12.3145
11.8196
11.3325
10.8932
10.5352
10.2667
10.0781
9.95506
9.87788
9.83357
9.82346
9.8474
9.88976
9.94537
10.037
10.1799
10.3665
10.5804
10.7972
10.9893
11.1382
11.2341
11.2667
11.2194
11.0872
10.8999
10.7063
10.533
10.4102
10.3736
10.4313
10.5809
10.8063
11.0878
11.3999
11.7133
12.0017
12.2377
12.4091
12.5327
12.6045
12.6121
12.5545
12.4502
12.2901
-5.87737
-6.10295
-6.53082
-7.16414
-7.98907
-8.98293
-10.1158
-11.3547
-12.6675
-14.0255
-15.4052
-16.7869
-18.153
-19.4885
-20.781
-22.0173
-23.1857
-24.2789
-25.2917
-26.2214
-27.0696
-27.8399
-28.5404
-29.1809
-29.7734
-30.3336
-30.8809
-31.4346
-32.0122
-32.6292
-33.3007
-34.0384
-34.8544
-35.7536
-36.725
-37.7537
-38.8219
-39.9059
-40.9753
-41.99
-42.9051
-43.6836
-44.2954
-44.7204
-44.9431
-44.9615
-44.7892
-44.4474
-43.9556
-43.3331
-42.6183
-41.8611
-41.0978
-40.3571
-39.6626
-39.0303
-38.4781
-38.0109
-37.6208
-37.291
-37.0056
-36.7635
-36.5736
-36.4399
-36.3453
-36.2733
-36.2164
-36.1565
-36.0713
-35.9457
-35.7797
-35.5817
-35.3569
-35.1114
-34.8496
-34.5752
-34.2858
-33.9745
-33.6327
-33.2521
-32.8253
-32.3399
-31.786
-31.1636
-30.4633
-29.6679
-28.7882
-27.8718
-26.9571
-26.062
-25.1787
-24.2823
-23.3499
-22.3786
-21.3929
-20.4265
-19.5014
-18.6067
-17.7055
-16.7553
-15.7272
-14.6124
-13.4267
-12.1996
-10.9635
-9.74004
-8.55034
-7.41239
-6.32542
-5.29608
-4.34871
-3.50109
-2.74599
-2.05269
-1.37491
-0.663692
0.10473
0.929334
1.80176
2.71104
3.64416
4.59775
5.57128
6.56119
7.55435
8.52102
9.42712
10.2469
10.9568
11.5286
11.9306
12.1356
12.1266
11.9108
11.5441
11.0944
10.6129
10.1408
9.71599
9.37134
9.11511
8.93616
8.81995
8.7485
8.71022
8.70785
8.74202
8.79827
8.86799
8.96908
9.11596
9.30175
9.5102
9.71842
9.90211
10.0459
10.1426
10.1847
10.1595
10.0601
9.90887
9.74751
9.60142
9.50073
9.48351
9.55903
9.7237
9.96199
10.2533
10.5725
10.8923
11.1885
11.4357
11.6186
11.7522
11.8352
11.8563
11.8127
11.7214
11.5738
-5.49418
-5.72528
-6.1787
-6.85881
-7.75307
-8.83715
-10.0756
-11.428
-12.8549
-14.3224
-15.8051
-17.2826
-18.7376
-20.1567
-21.5292
-22.8454
-24.098
-25.2829
-26.3948
-27.4272
-28.3775
-29.2431
-30.0262
-30.7334
-31.3753
-31.9712
-32.5455
-33.1211
-33.7189
-34.3561
-35.0477
-35.8003
-36.623
-37.5215
-38.4859
-39.4999
-40.5465
-41.6045
-42.6501
-43.6483
-44.5593
-45.3427
-45.9648
-46.3994
-46.6254
-46.641
-46.4615
-46.1112
-45.6127
-44.9883
-44.2762
-43.5207
-42.7538
-42.0002
-41.2857
-40.6278
-40.0474
-39.5495
-39.1244
-38.7557
-38.4312
-38.1537
-37.9332
-37.7736
-37.6563
-37.5641
-37.4883
-37.4096
-37.3053
-37.1588
-36.9691
-36.7442
-36.4907
-36.2181
-35.9361
-35.6541
-35.3712
-35.0762
-34.7546
-34.3929
-33.9832
-33.5218
-32.9992
-32.4144
-31.7543
-30.991
-30.1314
-29.2229
-28.3092
-27.4139
-26.5291
-25.6221
-24.6691
-23.6703
-22.6567
-21.6666
-20.7244
-19.8164
-18.9045
-17.9453
-16.9071
-15.78
-14.5797
-13.3352
-12.0795
-10.8403
-9.64179
-8.50035
-7.41554
-6.38989
-5.44312
-4.58979
-3.82017
-3.10563
-2.40683
-1.6811
-0.905124
-0.0796612
0.786342
1.68235
2.59813
3.53176
4.48383
5.45068
6.41843
7.35895
8.24116
9.04158
9.73666
10.297
10.6915
10.8976
10.9027
10.712
10.3716
9.9458
9.48833
9.03952
8.63539
8.30679
8.06365
7.89452
7.78612
7.7228
7.69378
7.70023
7.74273
7.80969
7.89067
7.99747
8.1433
8.32174
8.51733
8.71019
8.88065
9.0174
9.11589
9.17087
9.17128
9.10603
8.98764
8.85398
8.73245
8.65312
8.65361
8.74502
8.92243
9.16983
9.46596
9.78698
10.1086
10.4094
10.6643
10.8542
10.9921
11.0804
11.1111
11.0811
11.0072
10.8796
-5.06897
-5.31734
-5.81406
-6.56173
-7.54716
-8.73747
-10.0871
-11.5468
-13.0711
-14.6235
-16.1768
-17.7106
-19.2091
-20.6622
-22.0634
-23.4074
-24.6897
-25.9062
-27.0492
-28.1103
-29.0865
-29.9774
-30.7847
-31.5139
-32.1741
-32.7837
-33.3655
-33.9417
-34.5323
-35.1562
-35.8298
-36.5582
-37.3489
-38.2086
-39.1303
-40.0983
-41.0954
-42.103
-43.1018
-44.0641
-44.9569
-45.7421
-46.3842
-46.8499
-47.1145
-47.175
-47.0457
-46.7497
-46.3111
-45.7544
-45.1154
-44.4317
-43.7277
-43.0278
-42.3545
-41.7274
-41.1671
-40.6778
-40.249
-39.8667
-39.5241
-39.2278
-38.9892
-38.812
-38.6764
-38.5644
-38.4681
-38.3697
-38.2473
-38.0868
-37.8843
-37.6446
-37.3746
-37.0853
-36.7896
-36.5031
-36.229
-35.9553
-35.6625
-35.3288
-34.9409
-34.499
-33.9976
-33.4329
-32.7972
-32.0646
-31.2322
-30.344
-29.4377
-28.5429
-27.6507
-26.7262
-25.7443
-24.7108
-23.6616
-22.6412
-21.6738
-20.7436
-19.8116
-18.8372
-17.7889
-16.656
-15.4509
-14.2001
-12.9352
-11.69
-10.4922
-9.35872
-8.28873
-7.27997
-6.34552
-5.49558
-4.71832
-3.98541
-3.26599
-2.52618
-1.74471
-0.921286
-0.0650475
0.813271
1.70617
2.6141
3.5382
4.47364
5.40614
6.31008
7.15851
7.92973
8.60003
9.14099
9.52418
9.73171
9.75465
9.59486
9.28829
8.89459
8.46892
8.05002
7.67117
7.36075
7.13072
6.97197
6.87298
6.82085
6.80395
6.81945
6.8676
6.94056
7.02817
7.13621
7.27557
7.44102
7.61853
7.79244
7.94847
8.0792
8.18201
8.25215
8.27822
8.24198
8.14826
8.03579
7.93753
7.87919
7.89708
8.0034
8.19101
8.44367
8.74032
9.05908
9.37887
9.68087
9.93923
10.1305
10.2662
10.3538
10.3898
10.3717
10.3168
10.2133
-4.55953
-4.83282
-5.38542
-6.21247
-7.29692
-8.59436
-10.0521
-11.6138
-13.2297
-14.8605
-16.4772
-18.0578
-19.5855
-21.048
-22.4354
-23.7423
-24.9668
-26.11
-27.1718
-28.1519
-29.0544
-29.8836
-30.6442
-31.3404
-31.9786
-32.5697
-33.1305
-33.6793
-34.2347
-34.8186
-35.4498
-36.1346
-36.8777
-37.6862
-38.5559
-39.4717
-40.4177
-41.3761
-42.3299
-43.2578
-44.1312
-44.9152
-45.5776
-46.0866
-46.4167
-46.5617
-46.5323
-46.346
-46.0251
-45.5947
-45.0869
-44.5314
-43.9467
-43.355
-42.7761
-42.2273
-41.7291
-41.2851
-40.885
-40.5196
-40.188
-39.8987
-39.6613
-39.4792
-39.334
-39.2084
-39.096
-38.984
-38.8525
-38.6901
-38.4893
-38.2501
-37.9787
-37.6866
-37.3877
-37.1011
-36.8342
-36.5771
-36.3093
-36.0051
-35.6428
-35.2176
-34.7302
-34.1764
-33.5549
-32.8513
-32.0577
-31.2022
-30.3142
-29.42
-28.5139
-27.5645
-26.5477
-25.4752
-24.3877
-23.3326
-22.3329
-21.3724
-20.4144
-19.422
-18.3645
-17.2297
-16.0277
-14.7805
-13.5193
-12.2807
-11.0948
-9.98043
-8.93619
-7.95434
-7.03989
-6.19741
-5.41567
-4.66801
-3.92991
-3.17684
-2.39199
-1.57354
-0.729737
0.128432
0.99438
1.87089
2.75999
3.65558
4.54339
5.40165
6.20756
6.94035
7.57637
8.08964
8.457
8.66466
8.70599
8.57986
8.31211
7.95636
7.56719
7.18251
6.83143
6.54048
6.32405
6.17702
6.09013
6.05168
6.04816
6.0721
6.12282
6.19641
6.28504
6.38996
6.51896
6.66797
6.82561
6.98088
7.12459
7.25224
7.3612
7.44569
7.49177
7.47402
7.39508
7.3001
7.22294
7.18625
7.22227
7.34249
7.53832
7.79394
8.08879
8.40254
8.71731
9.01665
9.27261
9.45935
9.58714
9.66964
9.7075
9.69959
9.66267
9.58435
-3.84682
-4.15764
-4.775
-5.68913
-6.87899
-8.29149
-9.86851
-11.5479
-13.2743
-15
-16.6874
-18.3048
-19.8256
-21.2312
-22.5116
-23.6678
-24.7117
-25.6619
-26.5346
-27.3392
-28.0834
-28.7744
-29.4188
-30.0216
-30.5877
-31.125
-31.6451
-32.1621
-32.6917
-33.2508
-33.8546
-34.5066
-35.2103
-35.9732
-36.7944
-37.664
-38.5682
-39.4907
-40.4131
-41.3179
-42.1793
-42.9669
-43.6552
-44.2198
-44.638
-44.899
-45.0066
-44.9718
-44.8136
-44.5564
-44.226
-43.8438
-43.4225
-42.9797
-42.5357
-42.1036
-41.7003
-41.3311
-40.9895
-40.6711
-40.3792
-40.1217
-39.9061
-39.735
-39.5946
-39.4698
-39.353
-39.236
-39.1069
-38.9552
-38.7712
-38.5492
-38.2924
-38.0111
-37.7187
-37.4356
-37.1729
-36.9233
-36.6685
-36.3828
-36.043
-35.6389
-35.1684
-34.6263
-34.0182
-33.3421
-32.5934
-31.7816
-30.9237
-30.0323
-29.1081
-28.1244
-27.0687
-25.9573
-24.8342
-23.745
-22.7097
-21.7144
-20.7272
-19.7153
-18.6488
-17.5152
-16.3219
-15.0891
-13.8459
-12.6271
-11.4634
-10.3762
-9.36424
-8.41506
-7.52407
-6.68985
-5.90318
-5.14292
-4.38869
-3.62441
-2.83855
-2.02849
-1.20056
-0.365582
0.469718
1.30897
2.15534
3.00231
3.83654
4.6404
5.39457
6.07882
6.67051
7.14802
7.49459
7.69925
7.7561
7.66273
7.4367
7.12343
6.77421
6.42603
6.10472
5.83552
5.63498
5.50202
5.42855
5.40349
5.41219
5.44314
5.49381
5.56367
5.64879
5.74785
5.86484
5.99698
6.13634
6.27628
6.41139
6.53839
6.65302
6.7472
6.80193
6.79315
6.72172
6.64207
6.58614
6.5735
6.62905
6.76316
6.96644
7.22312
7.51386
7.81999
8.12703
8.41931
8.66707
8.84445
8.96179
9.03757
9.07607
9.07833
9.05881
9.00477
-2.87674
-3.24219
-3.9398
-4.94858
-6.24574
-7.77633
-9.47438
-11.2676
-13.0881
-14.8733
-16.5701
-18.1399
-19.5533
-20.7974
-21.8734
-22.7918
-23.5813
-24.2788
-24.9151
-25.5037