/*--------------------------------*- C++ -*----------------------------------*\
| =========                 |                                                 |
| \\      /  F ield         | OpenFOAM: The Open Source CFD Toolbox           |
|  \\    /   O peration     | Version:  2112                                  |
|   \\  /    A nd           | Website:  www.openfoam.com                      |
|    \\/     M anipulation  |                                                 |
\*---------------------------------------------------------------------------*/
FoamFile
{
    version     2.0;
    format      ascii;
    arch        "LSB;label=32;scalar=64";
    class       volScalarField;
    location    "0.34";
    object      pPrime2Mean;
}
// * * * * * * * * * * * * * * * * * * * * * * * * * * * * * * * * * * * * * //

dimensions      [0 4 -4 0 0 0 0];

internalField   nonuniform List<scalar> 
12225
(
1.48556e+06
1.46356e+06
1.44062e+06
1.41811e+06
1.39622e+06
1.37496e+06
1.35435e+06
1.33437e+06
1.31497e+06
1.29612e+06
1.27774e+06
1.25977e+06
1.2421e+06
1.22461e+06
1.20711e+06
1.18932e+06
1.1707e+06
1.14992e+06
1.48561e+06
1.4636e+06
1.44065e+06
1.41814e+06
1.39624e+06
1.37499e+06
1.35438e+06
1.33439e+06
1.315e+06
1.29615e+06
1.27779e+06
1.25983e+06
1.24218e+06
1.22471e+06
1.20726e+06
1.18956e+06
1.17117e+06
1.15114e+06
1.48572e+06
1.46369e+06
1.44071e+06
1.4182e+06
1.3963e+06
1.37504e+06
1.35443e+06
1.33445e+06
1.31507e+06
1.29623e+06
1.27789e+06
1.25995e+06
1.24234e+06
1.22494e+06
1.20759e+06
1.19009e+06
1.17212e+06
1.15332e+06
1.48591e+06
1.46383e+06
1.44083e+06
1.41829e+06
1.39638e+06
1.37513e+06
1.35452e+06
1.33455e+06
1.31518e+06
1.29637e+06
1.27805e+06
1.26016e+06
1.24261e+06
1.22531e+06
1.20812e+06
1.1909e+06
1.17349e+06
1.15592e+06
1.4862e+06
1.46403e+06
1.44099e+06
1.41844e+06
1.39652e+06
1.37526e+06
1.35466e+06
1.3347e+06
1.31535e+06
1.29656e+06
1.27829e+06
1.26046e+06
1.243e+06
1.22583e+06
1.20886e+06
1.192e+06
1.17521e+06
1.15872e+06
1.48655e+06
1.46431e+06
1.44122e+06
1.41863e+06
1.3967e+06
1.37543e+06
1.35484e+06
1.3349e+06
1.31557e+06
1.29683e+06
1.27861e+06
1.26086e+06
1.24352e+06
1.22653e+06
1.20981e+06
1.19335e+06
1.1772e+06
1.16163e+06
1.48702e+06
1.46467e+06
1.44152e+06
1.41889e+06
1.39694e+06
1.37567e+06
1.35508e+06
1.33516e+06
1.31587e+06
1.29718e+06
1.27903e+06
1.26139e+06
1.24419e+06
1.2274e+06
1.21098e+06
1.19494e+06
1.17939e+06
1.16458e+06
1.48761e+06
1.46514e+06
1.4419e+06
1.41923e+06
1.39724e+06
1.37597e+06
1.35539e+06
1.33549e+06
1.31625e+06
1.29762e+06
1.27956e+06
1.26204e+06
1.24501e+06
1.22845e+06
1.21234e+06
1.19674e+06
1.18174e+06
1.16755e+06
1.48832e+06
1.46571e+06
1.44238e+06
1.41964e+06
1.39763e+06
1.37634e+06
1.35577e+06
1.33591e+06
1.31672e+06
1.29817e+06
1.28021e+06
1.26283e+06
1.24599e+06
1.22967e+06
1.2139e+06
1.19871e+06
1.1842e+06
1.17055e+06
1.48919e+06
1.46641e+06
1.44296e+06
1.42015e+06
1.3981e+06
1.3768e+06
1.35624e+06
1.33642e+06
1.31729e+06
1.29882e+06
1.28099e+06
1.26376e+06
1.24713e+06
1.23107e+06
1.21562e+06
1.20083e+06
1.18677e+06
1.17355e+06
1.4902e+06
1.46725e+06
1.44367e+06
1.42077e+06
1.39866e+06
1.37735e+06
1.35681e+06
1.33702e+06
1.31796e+06
1.29959e+06
1.2819e+06
1.26484e+06
1.24842e+06
1.23263e+06
1.2175e+06
1.20307e+06
1.1894e+06
1.17656e+06
1.49129e+06
1.46817e+06
1.44444e+06
1.42144e+06
1.39928e+06
1.37794e+06
1.35742e+06
1.33768e+06
1.31869e+06
1.30042e+06
1.28285e+06
1.26596e+06
1.24974e+06
1.2342e+06
1.21935e+06
1.20522e+06
1.19187e+06
1.17933e+06
1.49256e+06
1.46922e+06
1.44531e+06
1.4222e+06
1.39997e+06
1.37862e+06
1.35811e+06
1.33841e+06
1.3195e+06
1.30133e+06
1.2839e+06
1.26718e+06
1.25116e+06
1.23586e+06
1.22127e+06
1.20742e+06
1.19435e+06
1.18207e+06
1.49436e+06
1.47062e+06
1.44645e+06
1.42319e+06
1.40088e+06
1.3795e+06
1.359e+06
1.33936e+06
1.32054e+06
1.3025e+06
1.28523e+06
1.26871e+06
1.25292e+06
1.23786e+06
1.22355e+06
1.21e+06
1.1972e+06
1.18518e+06
1.49683e+06
1.47247e+06
1.44794e+06
1.42447e+06
1.40205e+06
1.38063e+06
1.36016e+06
1.34058e+06
1.32187e+06
1.30398e+06
1.28689e+06
1.27059e+06
1.25505e+06
1.24027e+06
1.22624e+06
1.21297e+06
1.20046e+06
1.18868e+06
1.49985e+06
1.47478e+06
1.44982e+06
1.42609e+06
1.40354e+06
1.38207e+06
1.36162e+06
1.34213e+06
1.32354e+06
1.30581e+06
1.28893e+06
1.27286e+06
1.25758e+06
1.24308e+06
1.22934e+06
1.21635e+06
1.2041e+06
1.19256e+06
1.5034e+06
1.47754e+06
1.45207e+06
1.42805e+06
1.40535e+06
1.38384e+06
1.36342e+06
1.34401e+06
1.32557e+06
1.30803e+06
1.29136e+06
1.27553e+06
1.26052e+06
1.24629e+06
1.23282e+06
1.2201e+06
1.20809e+06
1.19677e+06
1.5074e+06
1.48055e+06
1.45454e+06
1.43024e+06
1.40741e+06
1.38588e+06
1.36552e+06
1.34623e+06
1.32794e+06
1.3106e+06
1.29416e+06
1.27857e+06
1.26381e+06
1.24984e+06
1.23662e+06
1.22414e+06
1.21235e+06
1.20122e+06
1.51063e+06
1.48304e+06
1.45673e+06
1.43232e+06
1.40949e+06
1.38802e+06
1.36778e+06
1.34864e+06
1.33054e+06
1.31341e+06
1.29719e+06
1.28184e+06
1.26732e+06
1.25358e+06
1.24059e+06
1.22832e+06
1.21672e+06
1.20576e+06
1.50988e+06
1.48333e+06
1.45752e+06
1.4334e+06
1.41079e+06
1.38952e+06
1.36944e+06
1.35048e+06
1.33255e+06
1.3156e+06
1.29955e+06
1.28438e+06
1.27002e+06
1.25645e+06
1.24361e+06
1.23148e+06
1.22e+06
1.20916e+06
1.50856e+06
1.48284e+06
1.45757e+06
1.43381e+06
1.41146e+06
1.39038e+06
1.37047e+06
1.35165e+06
1.33386e+06
1.31703e+06
1.3011e+06
1.28604e+06
1.2718e+06
1.25832e+06
1.24558e+06
1.23353e+06
1.22213e+06
1.21135e+06
1.50697e+06
1.48207e+06
1.45732e+06
1.43391e+06
1.41181e+06
1.39091e+06
1.37115e+06
1.35246e+06
1.33477e+06
1.31804e+06
1.30221e+06
1.28723e+06
1.27306e+06
1.25966e+06
1.24698e+06
1.23498e+06
1.22364e+06
1.21291e+06
1.50563e+06
1.48131e+06
1.45699e+06
1.43387e+06
1.41198e+06
1.39124e+06
1.3716e+06
1.35301e+06
1.33541e+06
1.31875e+06
1.30298e+06
1.28807e+06
1.27395e+06
1.2606e+06
1.24797e+06
1.23601e+06
1.2247e+06
1.214e+06
1.50446e+06
1.48063e+06
1.45665e+06
1.43378e+06
1.41206e+06
1.39145e+06
1.3719e+06
1.35339e+06
1.33585e+06
1.31924e+06
1.30353e+06
1.28865e+06
1.27458e+06
1.26126e+06
1.24866e+06
1.23673e+06
1.22545e+06
1.21477e+06
1.50345e+06
1.48007e+06
1.45637e+06
1.43369e+06
1.41209e+06
1.39157e+06
1.3721e+06
1.35364e+06
1.33614e+06
1.31958e+06
1.3039e+06
1.28905e+06
1.275e+06
1.26171e+06
1.24913e+06
1.23722e+06
1.22596e+06
1.21529e+06
1.50269e+06
1.47965e+06
1.45616e+06
1.4336e+06
1.4121e+06
1.39165e+06
1.37223e+06
1.3538e+06
1.33634e+06
1.3198e+06
1.30414e+06
1.28932e+06
1.27529e+06
1.26201e+06
1.24944e+06
1.23755e+06
1.2263e+06
1.21564e+06
1.50217e+06
1.47935e+06
1.45601e+06
1.43354e+06
1.4121e+06
1.39169e+06
1.3723e+06
1.35391e+06
1.33647e+06
1.31995e+06
1.3043e+06
1.28949e+06
1.27547e+06
1.2622e+06
1.24965e+06
1.23776e+06
1.22651e+06
1.21586e+06
1.50184e+06
1.47916e+06
1.45591e+06
1.4335e+06
1.4121e+06
1.39172e+06
1.37235e+06
1.35397e+06
1.33654e+06
1.32003e+06
1.3044e+06
1.2896e+06
1.27558e+06
1.26232e+06
1.24977e+06
1.23789e+06
1.22665e+06
1.216e+06
1.50161e+06
1.47905e+06
1.45585e+06
1.43348e+06
1.4121e+06
1.39174e+06
1.37238e+06
1.354e+06
1.33658e+06
1.32008e+06
1.30445e+06
1.28965e+06
1.27564e+06
1.26239e+06
1.24984e+06
1.23796e+06
1.22672e+06
1.21607e+06
1.50151e+06
1.47901e+06
1.45583e+06
1.43347e+06
1.4121e+06
1.39174e+06
1.37239e+06
1.35402e+06
1.3366e+06
1.3201e+06
1.30447e+06
1.28967e+06
1.27567e+06
1.26241e+06
1.24986e+06
1.23799e+06
1.22675e+06
1.2161e+06
972284
972206
972050
971812
971492
971091
970608
970041
969389
968647
967815
966892
965877
964769
963569
962275
960889
959409
957836
956171
954413
952564
950624
948595
946477
944271
941978
939599
937134
934584
931948
929230
926429
923549
920591
917557
914449
911268
908017
904694
901300
897833
894296
890688
887011
883264
879449
875569
871624
867617
863548
859418
855228
850981
846677
842322
837916
833459
828950
824388
819772
815105
810388
805623
800811
795952
791046
786096
781103
776067
770989
765866
760703
755496
750246
744958
739636
734283
728898
723481
718032
712548
707031
701480
695896
690282
684636
678961
673257
667525
661766
655981
650171
644339
638486
632613
626722
620811
614879
608923
602942
596934
590900
584841
578761
572663
566554
560436
554309
548170
542020
535855
529678
523488
517284
511065
504829
498575
492305
486018
479715
473399
467073
460739
454402
448062
441721
435381
429042
422705
416372
410042
403716
397392
391073
384758
378447
372142
365841
359543
353246
346950
340654
334363
328078
321806
315549
309310
303087
296883
290696
284528
278378
272246
266135
260045
253981
247944
241936
235957
230008
224090
218207
212359
206544
200766
195027
189330
183678
178075
172523
167025
161581
156190
150857
145589
140394
135282
130271
125403
972636
972558
972401
972162
971841
971439
970954
970384
969727
968981
968144
967216
966196
965083
963878
962579
961186
959700
958121
956449
954684
952828
950880
948842
946716
944502
942201
939814
937342
934784
932143
929420
926615
923730
920766
917727
914613
911426
908168
904840
901440
897968
894423
890809
887126
883374
879555
875671
871721
867709
863633
859497
855302
851048
846740
842380
837970
833509
828998
824434
819818
815149
810431
805665
800853
795994
791086
786137
781143
776105
771024
765898
760730
755522
750273
744988
739668
734315
728930
723513
718062
712577
707058
701504
695920
690304
684658
678983
673278
667545
661784
655998
650189
644357
638505
632634
626743
620833
614901
608946
602964
596956
590921
584861
578780
572684
566577
560460
554333
548195
542044
535880
529705
523516
517313
511093
504856
498602
492329
486040
479735
473418
467089
460755
454416
448075
441733
435391
429050
422713
416379
410049
403722
397400
391081
384767
378459
372155
365855
359557
353260
346963
340667
334374
328089
321816
315558
309318
303096
296891
290704
284535
278385
272253
266140
260050
253985
247948
241940
235961
230012
224095
218213
212364
206549
200771
195031
189333
183681
178077
172525
167026
161581
156190
150856
145587
140390
135275
130257
125365
973341
973262
973104
972866
972545
972140
971650
971073
970408
969654
968808
967871
966841
965718
964502
963191
961786
960287
958693
957006
955226
953354
951390
949335
947192
944961
942643
940239
937751
935180
932526
929790
926974
924078
921106
918057
914934
911738
908470
905131
901719
898236
894681
891056
887362
883600
879772
875879
871921
867899
863816
859670
855465
851202
846885
842515
838094
833625
829106
824537
819917
815245
810524
805756
800940
796078
791170
786217
781221
776180
771094
765964
760792
755581
750333
745048
739728
734375
728989
723569
718115
712628
707106
701550
695963
690346
684699
679022
673315
667580
661818
656032
650222
644391
638539
632669
626780
620871
614940
608985
603005
596997
590961
584899
578818
572723
566616
560499
554372
548234
542085
535924
529751
523563
517360
511141
504903
498647
492372
486080
479772
473451
467120
460783
454442
448098
441754
435410
429067
422728
416392
410061
403734
397413
391096
384785
378479
372178
365880
359583
353286
346988
340690
334395
328108
321833
315575
309334
303111
296906
290719
284549
278397
272264
266150
260059
253993
247955
241946
235967
230018
224102
218221
212373
206558
200779
195039
189340
183686
178082
172528
167028
161582
156189
150855
145584
140384
135263
130231
125309
974407
974327
974168
973927
973603
973192
972695
972108
971432
970665
969805
968853
967807
966667
965432
964102
962677
961157
959543
957834
956031
954136
952149
950072
947905
945650
943308
940882
938371
935778
933104
930349
927515
924603
921616
918553
915418
912209
908928
905575
902148
898650
895079
891439
887730
883953
880110
876202
872230
868195
864098
859940
855720
851441
847108
842723
838289
833808
829279
824701
820074
815398
810672
805900
801080
796214
791301
786344
781344
776300
771210
766075
760900
755687
750437
745150
739828
734472
729081
723657
718200
712708
707183
701625
696036
690416
684766
679087
673377
667639
661876
656087
650277
644445
638595
632726
626838
620931
615001
609047
603066
597058
591022
584960
578878
572782
566674
560556
554429
548293
542145
535986
529815
523629
517428
511208
504970
498711
492433
486136
479824
473500
467166
460825
454480
448133
441785
435437
429092
422749
416411
410079
403752
397432
391119
384812
378510
372213
365917
359622
353324
347025
340724
334426
328136
321859
315600
309358
303135
296929
290741
284569
278416
272281
266165
260073
254005
247965
241955
235976
230029
224114
218234
212386
206571
200791
195049
189349
183694
178088
172533
167031
161582
156188
150853
145580
140376
135247
130201
125247
975838
975757
975595
975350
975018
974599
974090
973490
972799
972014
971136
970163
969095
967931
966670
965314
963861
962313
960669
958931
957098
955173
953156
951049
948852
946567
944196
941741
939202
936582
933881
931102
928245
925312
922304
919224
916071
912845
909546
906174
902728
899209
895619
891959
888229
884432
880569
876642
872651
868597
864480
860301
856061
851762
847407
843002
838551
834055
829513
824925
820289
815605
810874
806094
801268
796395
791476
786514
781509
776460
771366
766229
761051
755835
750582
745293
739966
734605
729208
723778
718314
712816
707287
701726
696134
690511
684859
679176
673463
667722
661956
656165
650353
644521
638671
632804
626917
621011
615083
609130
603150
597142
591104
585042
578959
572860
566750
560631
554503
548367
542221
536064
529895
523711
517512
511293
505054
498792
492510
486209
479893
473564
467225
460880
454530
448178
441826
435474
429124
422778
416438
410104
403778
397460
391150
384848
378552
372259
365966
359672
353374
347072
340769
334468
328175
321896
315635
309392
303168
296961
290771
284597
278442
272304
266187
260092
254022
247981
241970
235990
230044
224131
218251
212403
206588
200807
195064
189362
183705
178096
172539
167034
161583
156188
150851
145575
140366
135229
130167
125186
977645
977561
977394
977141
976799
976367
975843
975226
974514
973707
972804
971804
970707
969511
968218
966828
965340
963756
962076
960301
958431
956469
954414
952269
950035
947713
945306
942816
940243
937589
934856
932046
929159
926198
923164
920058
916882
913632
910310
906913
903442
899899
896284
892599
888846
885025
881138
877186
873170
869091
864948
860743
856478
852154
847776
843349
838877
834364
829807
825204
820556
815862
811121
806332
801498
796616
791691
786722
781710
776657
771560
766420
761239
756020
750763
745468
740137
734768
729365
723927
718455
712951
707416
701850
696254
690628
684972
679286
673569
667825
662056
656263
650449
644616
638766
632899
627015
621111
615185
609233
603254
597245
591207
585142
579056
572954
566841
560719
554591
548455
542310
536154
529987
523806
517608
511391
505151
498887
492601
486295
479974
473641
467297
460947
454592
448234
441877
435520
429166
422815
416472
410137
403811
397495
391190
384894
378603
372315
366025
359732
353434
347130
340824
334520
328224
321943
315680
309436
303210
297002
290809
284633
278475
272335
266215
260117
254045
248001
241989
236010
230064
224152
218272
212425
206609
200828
195083
189379
183719
178108
172546
167038
161584
156186
150847
145568
140354
135208
130131
125126
979841
979752
979576
979311
978955
978506
977962
977322
976584
975748
974813
973778
972644
971410
970077
968645
967115
965488
963764
961944
960030
958023
955923
953733
951455
949090
946641
944108
941494
938799
936026
933175
930249
927251
924182
921043
917835
914555
911203
907778
904279
900708
897066
893353
889572
885724
881809
877828
873782
869672
865498
861262
856966
852613
848209
843758
839265
834731
830154
825535
820871
816164
811412
806614
801770
796881
791947
786971
781952
776892
771790
766645
761459
756234
750972
745671
740332
734957
729545
724100
718621
713110
707569
701998
696397
690766
685106
679415
673695
667947
662174
656378
650562
644728
638877
633012
627129
621228
615305
609356
603377
597367
591327
585259
579169
573063
566946
560821
554690
548553
542408
536253
530087
523908
517712
511496
505255
498989
492700
486390
480065
473727
467379
461024
454664
448301
441937
435575
429216
422861
416515
410178
403853
397540
391240
384949
378663
372378
366092
359800
353502
347196
340888
334581
328283
322000
315735
309489
303262
297051
290856
284677
278515
272371
266248
260148
254074
248028
242014
236035
230090
224178
218299
212451
206635
200852
195106
189400
183737
178122
172557
167045
161587
156186
150843
145560
140339
135184
130094
125068
982436
982340
982154
981874
981499
981027
980456
979785
979014
978141
977167
976090
974911
973631
972250
970769
969189
967511
965735
963863
961896
959836
957684
955443
953113
950697
948197
945614
942950
940206
937383
934484
931511
928467
925355
922176
918930
915615
912230
908773
905244
901643
897970
894227
890415
886533
882584
878568
874485
870336
866124
861851
857520
853136
848702
844225
839707
835150
830552
825913
821234
816513
811749
806941
802088
797191
792249
787264
782236
777167
772057
766905
761712
756479
751208
745898
740551
735168
729749
724296
718810
713293
707746
702169
696562
690925
685259
679563
673838
668087
662310
656511
650692
644856
639005
633140
627260
621362
615441
609494
603516
597505
591463
585391
579295
573184
567061
560932
554798
548659
542511
536355
530190
524012
517819
511603
505361
499094
492801
486488
480159
473818
467467
461108
454743
448375
442006
435638
429274
422916
416566
410228
403903
397593
391297
385010
378728
372447
366163
359873
353574
347268
340957
334648
328349
322064
315797
309549
303320
297106
290908
284725
278559
272412
266287
260184
254107
248060
242045
236065
230120
224208
218329
212480
206664
200880
195132
189423
183758
178140
172572
167055
161593
156187
150840
145551
140324
135159
130055
125012
985447
985343
985142
984843
984443
983943
983339
982631
981818
980900
979878
978750
977519
976184
974747
973208
971570
969832
967995
966063
964035
961914
959701
957399
955008
952533
949973
947331
944609
941808
938929
935975
932948
929853
926692
923467
920178
916824
913402
909911
906349
902714
899008
895230
891380
887459
883469
879408
875279
871085
866828
862513
858143
853723
849258
844752
840206
835623
831002
826344
821646
816910
812133
807314
802451
797544
792593
787599
782562
777484
772364
767201
761997
756754
751472
746152
740796
735403
729977
724517
719026
713503
707949
702365
696750
691106
685432
679729
673998
668242
662462
656660
650838
644999
639146
633281
627403
621507
615589
609644
603666
597654
591609
585532
579431
573314
567185
561050
554911
548768
542617
536458
530292
524115
517922
511706
505464
499194
492899
486584
480252
473909
467556
461194
454826
448453
442080
435708
429340
422978
416625
410286
403961
397653
391360
385076
378797
372518
366235
359945
353646
347339
341027
334718
328417
322131
315862
309613
303381
297165
290963
284776
278607
272457
266328
260223
254144
248095
242080
236099
230154
224242
218361
212512
206695
200909
195159
189449
183782
178160
172588
167068
161601
156191
150839
145544
140308
135133
130017
124958
988890
988776
988558
988236
987808
987272
986628
985875
985013
984042
982962
981775
980482
979083
977580
975975
974269
972462
970558
968556
966459
964268
961984
959611
957150
954604
951975
949266
946478
943611
940669
937653
934567
931415
928200
924924
921587
918188
914726
911196
907596
903924
900179
896360
892466
888500
884461
880350
876169
871923
867617
863255
858842
854384
849883
845344
840768
836156
831510
826828
822111
817357
812565
807732
802858
797940
792978
787973
782926
777836
772704
767529
762313
757057
751762
746430
741063
735662
730228
724763
719267
713739
708180
702587
696962
691307
685623
679910
674172
668410
662626
656820
650995
645152
639296
633430
627552
621658
615743
609799
603821
597807
591758
585677
579570
573446
567310
561169
555025
548875
542720
536558
530390
524211
518017
511800
505556
499285
492989
486671
480338
473994
467641
461278
454908
448533
442156
435781
429409
423044
416690
410349
404025
397718
391426
385143
378865
372587
366304
360014
353714
347406
341094
334784
328483
322197
315927
309676
303442
297223
291018
284828
278655
272501
266370
260263
254183
248133
242116
236135
230189
224277
218395
212544
206725
200938
195187
189475
183805
178181
172607
167083
161612
156198
150839
145538
140294
135109
129981
124907
992791
992665
992428
992080
991617
991041
990349
989543
988623
987589
986443
985187
983821
982348
980769
979087
977303
975418
973435
971354
969177
966905
964540
962085
959543
956917
954210
951424
948560
945620
942606
939520
936366
933149
929872
926537
923145
919696
916186
912612
908969
905254
901464
897599
893657
889641
885549
881384
877150
872850
868492
864082
859623
855122
850582
846005
841395
836751
832076
827368
822627
817853
813042
808194
803304
798373
793399
788381
783320
778216
773070
767881
762650
757380
752071
746727
741349
735940
730501
725031
719531
713998
708432
702829
697193
691524
685827
680103
674355
668586
662796
656987
651157
645310
639450
633580
627702
621809
615894
609950
603971
597954
591900
585814
579702
573572
567431
561283
555132
548977
542816
536650
530479
524298
518101
511882
505636
499363
493065
486746
480413
474070
467718
461356
454985
448609
442231
435853
429479
423112
416756
410415
404090
397783
391490
385207
378928
372649
366365
360074
353773
347465
341153
334843
328543
322257
315987
309733
303497
297276
291068
284875
278699
272544
266411
260303
254222
248171
242154
236172
230225
224310
218427
212574
206753
200965
195212
189499
183828
178202
172624
167098
161624
156205
150842
145533
140281
135086
129946
124860
997187
997047
996788
996407
995905
995281
994534
993667
992680
991575
990353
989017
987567
986007
984339
982565
980688
978710
976634
974460
972191
969827
967371
964825
962192
959476
956679
953805
950855
947830
944733
941566
938335
935043
931693
928289
924831
921320
917752
914123
910429
906664
902825
898910
894919
890852
886709
882491
878204
873852
869443
864983
860477
855930
851347
846730
842083
837404
832696
827959
823192
818393
813561
808692
803785
798837
793846
788812
783735
778615
773453
768248
763001
757715
752391
747034
741646
736229
730784
725311
719808
714271
708697
703084
697432
691748
686036
680300
674542
668765
662969
657155
651320
645467
639600
633725
627844
621950
616034
610087
604104
598083
592026
585936
579820
573686
567538
561385
555228
549067
542902
536732
530557
524372
518171
511949
505699
499424
493125
486806
480474
474133
467782
461422
455053
448677
442299
435921
429546
423178
416821
410478
404152
397844
391549
385264
378982
372700
366414
360121
353819
347511
341200
334891
328592
322307
316036
309782
303543
297320
291111
284916
278739
272582
266448
260340
254259
248208
242189
236206
230257
224341
218455
212600
206777
200988
195234
189519
183847
178220
172641
167111
161635
156212
150844
145529
140269
135065
129914
124815
1.00213e+06
1.00197e+06
1.00168e+06
1.00127e+06
1.00072e+06
1.00004e+06
999230
998293
997230
996041
994729
993297
991747
990081
988305
986421
984433
982343
980156
977873
975497
973028
970467
967817
965081
962262
959364
956390
953341
950220
947029
943772
940452
937073
933638
930151
926614
923027
919387
915691
911935
908112
904219
900253
896212
892095
887903
883636
879300
874900
870443
865936
861384
856793
852166
847508
842821
838105
833362
828592
823795
818968
814109
809217
804287
799319
794309
789256
784161
779022
773842
768619
763355
758053
752714
747344
741945
736520
731069
725591
720084
714542
708960
703334
697668
691968
686243
680495
674728
668943
663142
657321
651478
645616
639741
633858
627970
622071
616151
610199
604211
598186
592126
586035
579917
573779
567627
561469
555308
549143
542974
536800
530621
524431
518225
511997
505744
499467
493167
486849
480518
474178
467830
461472
455105
448732
442356
435979
429604
423236
416879
410535
404207
397896
391598
385309
379023
372737
366447
360152
353849
347541
341231
334924
328627
322342
316072
309817
303578
297353
291143
284948
278771
272614
266480
260372
254291
248240
242221
236236
230285
224366
218478
212621
206796
201005
195251
189536
183863
178235
172654
167123
161644
156218
150845
145525
140258
135045
129884
124774
1.00767e+06
1.0075e+06
1.00718e+06
1.00672e+06
1.00612e+06
1.00537e+06
1.00449e+06
1.00347e+06
1.00231e+06
1.00102e+06
999600
998051
996377
994584
992677
990661
988539
986317
983998
981585
979079
976484
973800
971029
968176
965241
962230
959144
955985
952756
949459
946098
942676
939198
935667
932086
928458
924784
921061
917287
913458
909569
905616
901594
897500
893333
889093
884781
880400
875958
871459
866909
862315
857682
853015
848317
843591
838837
834057
829252
824421
819563
814675
809754
804798
799805
794773
789699
784582
779424
774225
768984
763703
758385
753031
747647
742237
736802
731344
725860
720346
714797
709206
703568
697888
692176
686440
680684
674910
669119
663310
657480
651627
645754
639866
633972
628074
622166
616238
610279
604286
598258
592196
586103
579985
573845
567692
561531
555367
549199
543028
536851
530666
524470
518258
512025
505768
499488
493187
486870
480541
474204
467858
461503
455140
448770
442397
436022
429650
423283
416926
410581
404251
397935
391633
385338
379047
372756
366463
360165
353861
347553
341244
334940
328645
322362
316092
309838
303599
297374
291164
284969
278793
272637
266505
260398
254317
248266
242247
236260
230307
224385
218494
212635
206809
201017
195262
189547
183874
178246
172665
167133
161651
156222
150844
145518
140244
135024
129854
124735
1.0139e+06
1.0137e+06
1.01335e+06
1.01283e+06
1.01216e+06
1.01134e+06
1.01036e+06
1.00923e+06
1.00796e+06
1.00654e+06
1.00499e+06
1.00329e+06
1.00147e+06
999528
997464
995289
993007
990624
988144
985572
982911
980165
977336
974426
971438
968372
965232
962019
958736
955385
951970
948494
944962
941377
937742
934060
930334
926566
922753
918893
914983
911020
906999
902914
898763
894544
890256
885900
881480
876999
872462
867875
863244
858574
853869
849134
844369
839578
834761
829920
825053
820161
815239
810287
805301
800281
795223
790126
784987
779809
774590
769332
764035
758701
753332
747935
742513
737068
731601
726108
720586
715027
709425
703777
698086
692365
686623
680862
675083
669286
663468
657627
651762
645875
639974
634067
628155
622233
616292
610325
604326
598294
592231
586139
580021
573883
567730
561569
555403
549234
543061
536880
530690
524488
518269
512029
505768
499486
493185
486869
480542
474207
467863
461512
455153
448788
442419
436048
429679
423314
416958
410612
404279
397959
391650
385350
379053
372757
366459
360158
353854
347546
341240
334938
328645
322364
316097
309843
303605
297381
291172
284980
278805
272651
266521
260415
254336
248285
242265
236277
230321
224398
218505
212644
206816
201024
195269
189554
183881
178253
172672
167139
161656
156223
150841
145510
140230
135002
129825
124697
1.02112e+06
1.02089e+06
1.02048e+06
1.01989e+06
1.01913e+06
1.01819e+06
1.01709e+06
1.01583e+06
1.0144e+06
1.01282e+06
1.01109e+06
1.00922e+06
1.00721e+06
1.00507e+06
1.00281e+06
1.00043e+06
997945
995361
992684
989920
987073
984147
981144
978067
974918
971699
968409
965053
961630
958144
954599
950998
947346
943645
939899
936108
932277
928406
924496
920543
916545
912499
908401
904245
900030
895753
891415
887015
882554
878035
873462
868840
864175
859470
854730
849958
845157
840329
835475
830596
825692
820761
815803
810816
805797
800745
795659
790537
785376
780176
774938
769662
764349
759000
753617
748207
742772
737317
731839
726336
720803
715233
709621
703963
698265
692538
686791
681026
675243
669438
663611
657759
651880
645979
640065
634143
628214
622275
616319
610340
604334
598298
592234
586142
580027
573892
567741
561582
555417
549247
543071
536886
530690
524480
518254
512009
505743
499459
493158
486843
480518
474185
467845
461497
455143
448783
442419
436053
429688
423327
416972
410626
404290
397965
391650
385343
379041
372740
366438
360135
353830
347524
341219
334921
328630
322352
316086
309835
303598
297377
291170
284980
278808
272657
266529
260425
254347
248297
242277
236288
230331
224405
218510
212648
206820
201027
195272
189558
183885
178258
172676
167143
161658
156222
150835
145499
140213
134979
129795
124660
1.02912e+06
1.02885e+06
1.02836e+06
1.02767e+06
1.02678e+06
1.02569e+06
1.02442e+06
1.02297e+06
1.02135e+06
1.01957e+06
1.01762e+06
1.01552e+06
1.01327e+06
1.01089e+06
1.00839e+06
1.00577e+06
1.00305e+06
1.00024e+06
997340
994363
991310
988185
984992
981735
978413
975029
971583
968076
964510
960886
957207
953479
949705
945888
942029
938130
934194
930221
926212
922163
918074
913940
909760
905530
901247
896909
892517
888069
883566
879010
874402
869748
865050
860314
855542
850738
845903
841040
836150
831234
826293
821325
816330
811307
806254
801170
796056
790908
785724
780504
775247
769955
764626
759263
753868
748445
742999
737532
732042
726528
720984
715403
709781
704115
698412
692681
686931
681162
675372
669560
663723
657860
651970
646058
640132
634195
628249
622291
616319
610327
604312
598271
592206
586116
580004
573873
567727
561570
555405
549234
543054
536864
530662
524445
518212
511961
505692
499407
493106
486793
480470
474139
467802
461459
455110
448755
442397
436036
429676
423319
416965
410619
404281
397952
391633
385320
379013
372707
366402
360097
353792
347488
341186
334890
328603
322327
316065
309816
303582
297362
291159
284971
278803
272655
266529
260427
254351
248303
242283
236294
230335
224408
218512
212649
206820
201027
195273
189558
183887
178260
172679
167145
161658
156218
150828
145487
140195
134955
129765
124623
1.03718e+06
1.03685e+06
1.03627e+06
1.03545e+06
1.0344e+06
1.03312e+06
1.03165e+06
1.02998e+06
1.02812e+06
1.02609e+06
1.02389e+06
1.02154e+06
1.01904e+06
1.0164e+06
1.01364e+06
1.01078e+06
1.00782e+06
1.00478e+06
1.00167e+06
998484
995234
991921
988550
985122
981638
978100
974508
970861
967161
963408
959607
955761
951875
947951
943989
939990
935958
931891
927790
923653
919477
915261
911003
906701
902352
897954
893507
889011
884465
879871
875230
870544
865816
861051
856251
851417
846553
841660
836739
831791
826816
821815
816787
811732
806648
801535
796393
791221
786017
780778
775505
770197
764855
759481
754075
748642
743185
737705
732204
726677
721122
715531
709900
704230
698524
692789
687034
681259
675462
669642
663797
657925
652027
646106
640170
634222
628261
622288
616301
610296
604272
598227
592160
586071
579962
573835
567692
561537
555372
549198
543015
536819
530610
524387
518148
511894
505623
499338
493038
486726
480405
474077
467743
461403