/*--------------------------------*- C++ -*----------------------------------*\
| =========                 |                                                 |
| \\      /  F ield         | OpenFOAM: The Open Source CFD Toolbox           |
|  \\    /   O peration     | Version:  2112                                  |
|   \\  /    A nd           | Website:  www.openfoam.com                      |
|    \\/     M anipulation  |                                                 |
\*---------------------------------------------------------------------------*/
FoamFile
{
    version     2.0;
    format      ascii;
    arch        "LSB;label=32;scalar=64";
    class       volScalarField;
    location    "0.19";
    object      omega;
}
// * * * * * * * * * * * * * * * * * * * * * * * * * * * * * * * * * * * * * //

dimensions      [0 0 -1 0 0 0 0];

internalField   nonuniform List<scalar> 
12225
(
42121.9
58610.9
63488.9
63883.6
62685.9
61003.2
59251.7
57579.9
56029.7
54598.2
53273.4
52047.8
50918.6
49886.4
48941.7
48116.4
47146.2
46168.1
4963.15
10354.6
14702.6
17926.6
20269.4
22001.8
23336.3
24408.4
25283.2
25982.3
26493.1
26787.8
26835.4
26616.9
26140.3
25462.3
24587.3
23577.5
528.059
1517.88
2671.69
3894.17
5101.11
6228.05
7251.44
8215.46
9150.23
10070.2
10970.2
11830
12620
13311.5
13883.2
14335.1
14673.9
14888.8
141.535
323.979
545.764
800.857
1082.56
1396.56
1767.62
2166.49
2582.09
3016.15
3471.32
3947.14
4426.83
4907.42
5395.21
5891
6392.19
6896.61
67.211
122.452
185.106
255.341
332.406
418.234
518.338
627.693
743.704
866.221
995.679
1132.6
1293.93
1483.56
1686.96
1902.16
2130.04
2369.47
44.3249
68.4183
94.43
121.511
150.589
181.524
214.996
250.703
288.328
327.765
369.004
412.128
461.278
517.207
576.656
638.863
703.666
769.893
36.1994
47.3453
60.7599
74.8284
88.8199
103.01
117.912
133.345
149.263
165.66
182.511
199.809
217.925
237.092
257.16
278
299.462
320.959
33.3285
38.1293
45.0214
53.1299
61.4011
69.6679
77.7326
85.7118
93.8266
102.145
110.607
119.186
127.91
136.817
145.904
155.294
164.946
174.504
32.3007
34.3073
37.5109
41.764
46.6981
51.9584
57.1346
62.2429
67.2664
72.2532
77.2598
82.2984
87.373
92.4871
97.6316
102.746
107.809
112.686
31.9224
32.7532
34.1678
36.1797
38.7265
41.7128
44.987
48.4143
51.7993
55.0843
58.3096
61.4969
64.6561
67.7904
70.8919
73.8687
76.6922
79.3235
31.7793
32.1197
32.7268
33.6261
34.8209
36.3066
38.0588
40.02
42.0871
44.1682
46.2163
48.2151
50.1614
52.0534
53.8862
55.6397
57.2974
58.8322
31.7279
31.8802
32.1603
32.5861
33.1681
33.9136
34.8238
35.8842
37.0572
38.2933
39.5487
40.7947
42.015
43.2
44.3425
45.4363
46.4748
47.4378
31.7042
31.7701
31.8935
32.0862
32.3561
32.7094
33.1504
33.6771
34.2789
34.9375
35.6317
36.3423
37.0543
37.7566
38.4409
39.1018
39.735
40.3275
31.6918
31.7149
31.7627
31.8396
31.9502
32.098
32.2852
32.5124
32.7773
33.0749
33.3986
33.7406
34.0936
34.4514
34.8083
35.1604
35.5042
35.8316
31.6859
31.6889
31.7037
31.7303
31.7709
31.8266
31.8982
31.986
32.0896
32.2079
32.3392
32.4812
32.6317
32.7882
32.9486
33.1108
33.2729
33.4307
31.683
31.6776
31.6785
31.6856
31.699
31.7191
31.7459
31.7793
31.819
31.8647
31.916
31.9722
32.0326
32.0965
32.163
32.2315
32.3009
32.3696
31.6816
31.6727
31.6683
31.6681
31.6718
31.6795
31.6909
31.7057
31.7236
31.7444
31.7678
31.7934
31.821
31.8502
31.8805
31.9117
31.9433
31.9744
31.681
31.6708
31.6645
31.6621
31.663
31.667
31.6739
31.6833
31.695
31.7087
31.7241
31.741
31.7591
31.7782
31.798
31.8184
31.8392
31.8599
31.6811
31.6714
31.666
31.6653
31.6686
31.6753
31.6855
31.6989
31.7152
31.7343
31.7561
31.7805
31.8074
31.8365
31.8679
31.9014
31.9368
31.9737
31.6829
31.6788
31.6842
31.6994
31.7228
31.7548
31.7958
31.8461
31.9065
31.9772
32.0587
32.1512
32.2543
32.3675
32.49
32.6206
32.758
32.9003
31.6893
31.7094
31.7589
31.8347
31.9351
32.0632
32.2215
32.4119
32.6364
32.8962
33.1911
33.517
33.868
34.238
34.6217
35.0144
35.412
35.8086
31.7157
31.8338
32.0449
32.3376
32.7155
33.1814
33.7391
34.3857
35.1149
35.9205
36.7902
37.6823
38.5731
39.4572
40.3312
41.1928
42.0395
42.8629
31.8202
32.2887
33.0448
34.0606
35.3031
36.7506
38.3903
40.1374
41.933
43.7569
45.5837
47.3722
49.1174
50.8287
52.5103
54.1643
55.7889
57.3686
32.2268
33.8826
36.3585
39.363
42.7124
46.3104
50.0733
53.8569
57.593
61.2572
64.8327
68.3798
71.927
75.47
79.0074
82.5371
86.0535
89.5275
33.8966
39.3336
46.1716
53.7651
61.8333
70.1783
78.6104
87.1576
95.8094
104.491
113.158
121.808
130.527
139.39
148.409
157.573
166.858
176.204
40.7967
56.8137
75.3325
95.9882
118.288
141.822
166.244
191.293
216.76
242.482
268.358
294.502
322.34
352.361
383.816
416.257
449.507
483.425
68.7269
121.77
191.209
271.363
359.32
453.293
551.538
652.433
754.618
857.119
959.458
1062.47
1176.01
1303.37
1438.79
1579.21
1723.64
1871.29
223.793
517.406
930.665
1404.92
1906.68
2415.32
2915.5
3397.27
3855.7
4290.23
4703.68
5100.26
5478.57
5843.85
6205.65
6568.06
6931.57
7293.86
2336.3
5185.23
7751.33
9903.09
11644.7
13033.6
14144.7
15047.2
15797
16436.1
16995.1
17495.1
17948.3
18360.8
18735.4
19070.9
19364.8
19610.6
27850.3
41504.5
47138.8
48998.1
49198.6
48692
47896.4
47001
46096.5
45226.8
44411.2
43654.4
42954.2
42304.3
41696.6
41124.3
40579.4
40059.3
188.866
190.933
195.409
202.207
211.303
222.642
236.133
251.662
269.107
288.361
309.499
332.66
357.593
383.876
411.283
439.712
469.096
499.387
530.55
562.563
595.418
629.114
663.653
699.043
735.291
772.405
810.391
849.254
888.996
929.617
971.113
1013.48
1056.71
1100.79
1145.7
1191.44
1237.97
1285.28
1333.33
1382.11
1431.57
1481.69
1532.42
1583.72
1635.55
1687.86
1740.6
1793.72
1847.17
1900.88
1954.81
2008.88
2063.04
2117.23
2171.37
2225.41
2279.28
2332.91
2386.24
2439.21
2491.74
2543.78
2595.26
2646.11
2696.28
2745.71
2794.33
2842.08
2888.9
2934.74
2979.54
3023.24
3065.77
3107.1
3147.16
3185.9
3223.27
3259.22
3293.7
3326.67
3358.07
3387.87
3416.02
3442.46
3467.16
3490.06
3511.11
3530.25
3547.44
3562.61
3575.69
3586.62
3595.32
3601.72
3605.71
3607.2
3606.05
3602.1
3595.16
3585.5
3573.34
3558.63
3541.3
3521.31
3498.62
3473.2
3445.02
3414.05
3380.27
3343.65
3304.19
3261.87
3216.68
3168.62
3117.69
3063.91
3007.29
2947.85
2885.62
2820.66
2753.01
2682.73
2609.9
2534.63
2457.01
2377.17
2295.27
2211.47
2125.98
2039
1950.81
1861.66
1771.89
1681.83
1591.86
1502.39
1413.84
1326.67
1241.36
1158.39
1078.23
1001.35
928.226
859.261
794.843
735.311
680.955
632.022
588.719
551.216
519.655
494.413
476.197
463.474
455.115
451.206
451.962
457.262
466.911
481.503
502.563
530.337
564.49
605.035
652.021
705.469
765.368
831.664
904.239
982.915
1067.44
1157.5
1252.69
1352.56
1456.56
1563.97
1674.22
1785.76
1902.68
2000.38
191.762
193.031
196.57
202.258
210.07
219.925
231.692
245.215
260.326
276.866
294.692
313.673
333.642
354.398
375.765
397.615
419.86
442.437
465.306
488.44
511.824
535.45
559.316
583.418
607.757
632.328
657.129
682.153
707.392
732.834
758.468
784.278
810.247
836.358
862.59
888.921
915.329
941.789
968.277
994.766
1021.23
1047.64
1073.97
1100.19
1126.27
1152.18
1177.9
1203.39
1228.62
1253.57
1278.21
1302.51
1326.45
1350
1373.15
1395.85
1418.11
1439.89
1461.17
1481.95
1502.2
1521.91
1541.06
1559.65
1577.66
1595.07
1611.89
1628.1
1643.69
1658.66
1672.99
1686.68
1699.73
1712.14
1723.89
1734.98
1745.42
1755.2
1764.32
1772.78
1780.57
1787.69
1794.14
1799.91
1805
1809.39
1813.09
1816.08
1818.35
1819.89
1820.68
1820.73
1820.01
1818.51
1816.22
1813.13
1809.24
1804.58
1799.46
1793.86
1787.53
1780.42
1772.54
1763.85
1754.36
1744.05
1732.9
1720.92
1708.09
1694.38
1679.8
1664.33
1647.95
1630.66
1612.42
1593.24
1573.08
1551.95
1529.82
1506.69
1482.53
1457.33
1431.1
1403.81
1375.48
1346.09
1315.67
1284.22
1251.76
1218.33
1183.97
1148.73
1112.69
1075.92
1038.54
1000.67
962.438
924.016
885.582
847.339
809.505
772.317
736.021
700.875
667.139
635.075
604.939
576.981
551.442
528.55
508.544
491.753
478.608
468.986
462.553
459.388
459.628
463.179
469.941
480.126
493.96
511.423
532.305
556.475
583.818
614.196
647.45
683.39
721.8
762.443
805.06
849.384
895.14
942.054
989.869
1038.36
1087.46
1137.48
1190.7
1251.69
199.199
198.495
200.314
204.377
210.61
218.888
229.022
240.798
253.997
268.41
283.839
300.101
317.022
334.433
352.191
370.179
388.311
406.529
424.791
443.074
461.362
479.65
497.933
516.209
534.477
552.732
570.97
589.184
607.365
625.503
643.584
661.595
679.521
697.345
715.05
732.619
750.034
767.275
784.324
801.163
817.773
834.136
850.233
866.047
881.561
896.759
911.626
926.148
940.311
954.103
967.514
980.535
993.157
1005.37
1017.18
1028.58
1039.55
1050.11
1060.25
1069.97
1079.28
1088.18
1096.66
1104.74
1112.41
1119.69
1126.57
1133.07
1139.19
1144.93
1150.3
1155.31
1159.96
1164.27
1168.24
1171.87
1175.18
1178.18
1180.86
1183.23
1185.31
1187.09
1188.59
1189.79
1190.71
1191.35
1191.7
1191.78
1191.58
1191.1
1190.36
1189.34
1188.07
1186.54
1184.78
1182.79
1180.6
1178.33
1176.07
1173.61
1170.87
1167.84
1164.5
1160.86
1156.91
1152.64
1148.04
1143.1
1137.82
1132.19
1126.18
1119.8
1113.03
1105.86
1098.27
1090.24
1081.76
1072.82
1063.39
1053.46
1043
1032
1020.45
1008.31
995.564
982.204
968.207
953.557
938.243
922.254
905.586
888.239
870.219
851.541
832.231
812.322
791.864
770.919
749.565
727.895
706.024
684.082
662.219
640.601
619.413
598.85
579.125
560.454
543.063
527.183
513.066
500.987
491.229
483.803
478.686
475.984
475.731
477.85
482.297
489.16
498.524
510.323
524.37
540.492
558.52
578.279
599.577
622.211
645.97
670.644
696.022
721.905
748.108
774.471
800.868
827.24
853.687
880.731
909.889
944.468
212.698
207.58
206.597
208.313
212.517
218.976
227.403
237.504
248.994
261.612
275.12
289.309
303.991
319.005
334.215
349.514
364.822
380.082
395.257
410.324
425.271
440.091
454.781
469.34
483.767
498.058
512.211
526.218
540.073
553.767
567.29
580.631
593.778
606.719
619.441
631.932
644.18
656.171
667.895
679.339
690.492
701.345
711.888
722.113
732.012
741.579
750.809
759.699
768.246
776.448
784.305
791.82
798.994
805.832
812.338
818.518
824.379
829.929
835.176
840.129
844.796
849.187
853.311
857.179
860.799
864.18
867.333
870.266
872.989
875.51
877.838
879.982
881.951
883.753
885.397
886.891
888.242
889.458
890.545
891.509
892.356
893.088
893.711
894.228
894.64
894.952
895.167
895.287
895.317
895.26
895.123
894.913
894.638
894.309
893.939
893.544
893.143
892.882
892.583
892.18
891.648
890.976
890.16
889.194
888.072
886.789
885.338
883.712
881.904
879.906
877.71
875.306
872.684
869.834
866.746
863.407
859.805
855.928
851.761
847.29
842.499
837.374
831.897
826.052
819.822
813.189
806.137
798.648
790.706
782.296
773.405
764.021
754.137
743.747
732.853
721.462
709.587
697.251
684.488
671.343
657.873
644.151
630.265
616.32
602.435
588.747
575.408
562.588
550.46
539.219
529.075
520.216
512.83
506.947
502.739
500.255
499.496
500.404
502.956
507.218
513.234
520.926
530.13
540.684
552.433
565.222
578.886
593.261
608.181
623.487
639.028
654.67
670.297
685.816
701.173
716.38
731.576
747.235
764.309
784.65
234.176
221.004
215.771
214.243
215.883
220.23
226.831
235.269
245.172
256.213
268.112
280.626
293.553
306.726
320.009
333.298
346.518
359.614
372.552
385.31
397.876
410.246
422.417
434.39
446.162
457.734
469.102
480.264
491.214
501.946
512.455
522.732
532.77
542.561
552.099
561.375
570.383
579.116
587.569
595.737
603.615
611.202
618.494
625.49
632.191
638.598
644.712
650.538
656.08
661.343
666.334
671.061
675.532
679.757
683.746
687.508
691.056
694.399
697.55
700.519
703.318
705.956
708.446
710.795
713.015
715.114
717.101
718.983
720.77
722.467
724.083
725.625
727.098
728.509
729.865
731.17
732.431
733.652
734.837
735.989
737.11
738.204
739.272
740.316
741.337
742.336
743.316
744.279
745.227
746.164
747.095
748.025
748.96
749.907
750.875
751.871
752.976
754.116
755.217
756.249
757.201
758.065
758.836
759.508
760.077
760.538
760.885
761.112
761.213
761.181
761.009
760.69
760.217
759.582
758.776
757.791
756.618
755.248
753.67
751.874
749.849
747.584
745.066
742.284
739.223
735.872
732.218
728.246
723.944
719.3
714.301
708.936
703.195
697.07
690.555
683.65
676.356
668.682
660.643
652.259
643.561
634.59
625.4
616.058
606.64
597.235
587.956
578.927
570.271
562.135
554.689
548.013
542.273
537.507
533.852
531.39
530.118
529.992
531.001
533.208
536.657
541.28
546.943
553.51
560.854
568.853
577.383
586.319
595.543
604.939
614.405
623.85
633.199
642.401
651.436
660.338
669.239
678.505
688.715
700.839
264.24
238.845
227.704
221.953
220.463
222.389
227.021
233.769
242.144
251.739
262.219
273.307
284.778
296.453
308.193
319.892
331.476
342.893
354.109
365.104
375.869
386.397
396.69
406.748
416.571
426.16
435.515
444.636
453.52
462.165
470.567
478.725
486.634
494.291
501.694
508.841
515.729
522.359
528.729
534.841
540.695
546.295
551.644
556.745
561.605
566.228
570.623
574.797
578.758
582.516
586.081
589.464
592.676
595.729
598.633
601.4
604.043
606.573
609
611.336
613.59
615.771
617.89
619.953
621.968
623.943
625.882
627.793
629.68
631.548
633.401
635.244
637.08
638.913
640.747
642.585
644.43
646.284
648.148
650.024
651.913
653.814
655.727
657.652
659.59
661.541
663.505
665.483
667.477
669.489
671.521
673.577
675.66
677.776
679.93
682.138
684.406
686.666
688.884
691.044
693.137
695.157
697.099
698.959
700.731
702.411
703.993
705.472
706.842
708.098
709.233
710.242
711.117
711.853
712.444
712.883
713.163
713.277
713.219
712.98
712.553
711.929
711.099
710.055
708.786
707.285
705.541
703.547
701.291
698.765
695.959
692.865
689.476
685.782
681.78
677.466
672.838
667.899
662.657
657.122
651.31
645.244
638.96
632.503
625.92
619.265
612.624
606.093
599.744
593.678
588.06
582.908
578.279
574.223
570.867
568.298
566.525
565.518
565.273
565.851
567.302
569.58
572.582
576.201
580.338
584.902
589.802
594.951
600.265
605.664
611.078
616.445
621.718
626.868
631.889
636.821
641.771
647.005
652.863
659.858
303.684
261.132
242.179
231.172
225.994
225.209
227.737
232.757
239.632
247.862
257.046
266.867
277.074
287.473
297.918
308.299
318.541
328.593
338.423
348.011
357.349
366.433
375.264
383.845
392.178
400.266
408.112
415.717
423.083
430.21
437.1
443.753
450.169
456.351
462.299
468.016
473.504
478.767
483.81
488.636
493.251
497.663
501.877
505.902
509.745
513.416
516.925
520.281
523.495
526.577
529.541
532.395
535.153
537.826
540.425
542.961
545.444
547.886
550.295
552.68
555.049
557.409
559.767
562.129
564.499
566.882
569.281
571.699
574.139
576.603
579.093
581.611
584.158
586.737
589.349
591.995
594.676
597.393
600.147
602.936
605.759
608.614
611.5
614.416
617.361
620.333
623.332
626.358
629.411
632.492
635.602
638.743
641.916
645.124
648.368
651.661
654.953
658.215
661.427
664.578
667.662
670.673
673.605
676.455
679.216
681.885
684.456
686.923
689.283
691.528
693.653
695.653
697.522
699.255
700.846
702.291
703.585
704.722
705.697
706.504
707.139
707.593
707.862
707.937
707.813
707.483
706.941
706.181
705.197
703.982
702.529
700.834
698.89
696.691
694.234
691.515
688.532
685.287
681.785
678.031
674.032
669.8
665.361
660.752
655.998
651.12
646.193
641.309
636.508
631.855
627.43
623.248
619.32
615.685
612.452
609.702
607.454
605.694
604.426
603.706
603.584
604.04
605
606.383
608.113
610.123
612.35
614.733
617.216
619.744
622.269
624.752
627.161
629.48
631.712
633.892
636.103
638.53
641.364
644.897
353.17
287.77
258.899
241.588
232.204
228.454
228.765
232.024
237.419
244.337
252.309
260.971
270.045
279.32
288.64
297.891
306.996
315.903
324.581
333.012
341.188
349.108
356.773
364.188
371.358
378.287
384.98
391.443
397.679
403.693
409.487
415.068
420.438
425.603
430.567
435.336
439.917
444.316
448.54
452.598
456.497
460.246
463.855
467.333
470.689
473.935
477.081
480.138
483.116
486.028
488.884
491.694
494.471
497.224
499.963
502.699
505.44
508.194
510.969
513.771
516.607
519.48
522.395
525.355
528.363
531.421
534.529
537.688
540.899
544.162
547.477
550.843
554.261
557.732
561.256
564.832
568.463
572.146
575.881
579.667
583.499
587.376
591.293
595.25
599.243
603.271
607.332
611.426
615.55
619.705
623.891
628.107
632.355
636.633
640.935
645.234
649.503
653.722
657.879
661.966
665.975
669.901
673.738
677.482
681.127
684.67
688.105
691.427
694.631
697.711
700.661
703.476
706.15
708.679
711.059
713.284
715.353
717.26
719.003
720.577
721.978
723.201
724.241
725.093
725.751
726.212
726.473
726.529
726.376
726.011
725.43
724.628
723.603
722.35
720.867
719.151
717.199
715.015
712.603
709.967
707.108
704.024
700.742
697.301
693.711
689.991
686.185
682.35
678.52
674.738
671.041
667.432
663.901
660.476
657.239
654.261
651.569
649.163
647.052
645.288
643.918
642.939
642.305
641.955
641.835
641.895
642.091
642.382
642.729
643.098
643.458
643.781
644.051
644.258
644.409
644.534
644.693
645.014
645.596
646.629
413.06
318.518
277.499
252.879
238.835
231.918
229.932
231.413
235.345
240.993
247.813
255.395
263.432
271.693
280.012
288.273
296.393
304.32
312.025
319.488
326.705
333.673
340.398
346.884
353.139
359.17
364.983
370.586
375.985
381.188
386.201
391.031
395.685
400.17
404.495
408.667
412.696
416.591
420.36
424.013
427.561
431.014
434.381
437.674
440.903
444.078
447.211
450.311
453.391
456.459
459.527
462.605
465.701
468.826
471.988
475.194
478.452
481.768
485.147
488.594
492.112
495.702
499.368
503.109
506.926
510.818
514.785
518.826
522.939
527.121
531.372
535.69
540.074
544.523
549.038
553.619
558.266
562.978
567.754
572.591
577.485
582.432
587.427
592.467
597.548
602.669
607.826
613.017
618.24
623.494
628.776
634.087
639.424
644.773
650.097
655.381
660.609
665.767
670.845
675.834
680.727
685.518
690.203
694.776
699.233
703.569
707.779
711.859
715.803
719.606
723.263
726.766
730.111
733.293
736.308
739.153
741.827
744.326
746.648
748.79
750.751
752.525
754.11
755.5
756.691
757.682
758.47
759.055
759.434
759.605
759.567
759.315
758.85
758.17
757.273
756.158
754.816
753.257
751.489
749.513
747.329
744.94
742.362
739.615
736.71
733.666
730.51
727.276
723.992
720.682
717.362
714.027
710.661
707.278
703.936
700.695
697.583
694.611
691.793
689.173
686.795
684.67
682.77
681.055
679.485
678.022
676.638
675.303
673.992
672.685
671.36
670.003
668.604
667.16
665.681
664.191
662.734
661.396
660.219
659.352
483.362
352.991
297.572
264.731
245.658
235.433
231.106
230.808
233.299
237.715
243.434
249.999
257.072
264.406
271.826
279.206
286.463
293.545
300.42
307.071
313.493
319.685
325.654
331.405
336.948
342.291
347.443
352.413
357.21
361.843
366.321
370.654
374.849
378.918
382.87
386.715
390.464
394.127
397.716
401.241
404.714
408.145
411.544
414.923
418.291
421.659
425.038
428.437
431.866
435.335
438.854
442.43
446.072
449.788
453.584
457.467
461.44
465.509
469.677
473.945
478.314
482.784
487.354
492.02
496.783
501.639
506.586
511.62
516.739
521.939
527.215
532.567
537.992
543.488
549.057
554.699
560.414
566.204
572.068
578.002
584.003
590.064
596.181
602.347
608.559
614.814
621.107
627.436
633.797
640.186
646.601
653.038
659.482
665.866
672.188
678.438
684.605
690.675
696.638
702.486
708.211
713.808
719.272
724.598
729.782
734.82
739.708
744.441
749.015
753.424
757.664
761.728
765.609
769.302
772.804
776.114
779.231
782.154
784.882
787.413
789.746
791.88
793.813
795.535
797.045
798.345
799.433
800.31
800.976
801.43
801.672
801.699
801.513
801.114
800.503
799.678
798.639
797.389
795.934
794.275
792.416
790.361
788.118
785.699
783.116
780.383
777.517
774.541
771.473
768.33
765.116
761.82
758.428
754.945
751.408
747.863
744.339
740.85
737.416
734.074
730.862
727.799
724.872
722.055
719.321
716.643
714
711.372
708.743
706.1
703.432
700.731
697.994
695.222
692.426
689.627
686.856
684.171
681.579
679.216
563.737
390.699
318.703
276.855
252.48
238.867
232.188
230.131
231.213
234.438
239.103
244.705
250.88
257.363
263.968
270.566
277.069
283.423
289.596
295.571
301.343
306.914
312.288
317.474
322.481
327.32
332.001
336.535
340.932
345.202
349.357
353.407
357.363
361.236
365.04
368.784
372.482
376.147
379.789
383.421
387.055
390.701
394.37
398.072
401.816
405.611
409.467
413.393
417.399
421.492
425.68
429.972
434.372
438.888
443.523
448.282
453.167
458.18
463.322
468.591
473.986
479.502
485.134
490.878
496.728
502.68
508.729
514.872
521.103
527.416
533.807
540.271
546.806
553.412
560.087
566.835
573.657
580.559
587.541
594.605
601.745
608.956
616.229
623.56
630.941
638.369
645.838
653.344
660.883
668.446
676.029
683.609
691.08
698.453
705.727
712.895
719.945
726.864
733.639
740.263
746.728
753.03
759.164
765.126
770.914
776.523
781.951
787.195
792.25
797.113
801.779
806.245
810.497
814.531
818.345
821.941
825.319
828.479
831.422
834.148
836.657
838.95
841.032
842.878
844.496
845.889
847.059
848.005
848.73
849.236
849.523
849.591
849.443
849.08
848.502
847.712
846.709
845.496
844.078
842.458
840.639
838.626
836.424
834.043
831.49
828.778
825.918
822.926
819.816
816.597
813.269
809.822
806.241
802.528
798.705
794.805
790.853
786.868
782.868
778.885
774.955
771.094
767.304
763.57
759.873
756.195
752.52
748.836
745.132
741.4
737.635
733.834
730
726.137
722.255
718.374
714.515
710.719
706.97
703.401
653.598
431.093
340.493
288.999
259.146
242.121
233.118
229.341
229.059
231.137
234.799
239.497
244.839
250.546
256.422
262.331
268.185
273.926
279.521
284.955
290.22
295.318
300.255
305.041
309.685
314.198
318.593
322.881
327.073
331.182
335.219
339.196
343.125
347.02
350.894
354.762
358.637
362.534
366.466
370.447
374.49
378.605
382.802
387.087
391.469
395.954
400.55
405.266
410.107
415.083
420.199
425.461
430.872
436.438
442.159
448.036
454.071
460.261
466.604
473.096
479.729
486.496
493.384
500.385
507.49
514.691
521.982
529.358
536.813
544.338
551.929
559.578
567.284
575.044
582.858
590.73
598.668
606.68
614.777
622.964
631.242
639.608
648.051
656.562
665.132
673.754
682.422
691.127
699.87
708.636
717.361
725.916
734.319
742.58
750.697
758.664
766.472
774.109
781.551
788.794
795.834
802.668
809.293
815.705
821.903
827.886
833.653
839.202
844.529
849.632
854.51
859.169
863.578
867.731
871.636
875.296
878.711
881.885
884.819
887.516
889.975
892.199
894.187
895.934
897.44
898.707
899.737
900.533
901.097
901.431
901.54
901.424
901.087
900.53
899.756
898.767
897.564
896.15
894.531
892.708
890.687
888.471
886.067
883.48
880.718
877.789
874.705
871.476
868.111
864.617
860.993
857.23
853.318
849.254
845.05
840.73
836.316
831.824
827.274
822.691
818.104
813.533
808.983
804.45
799.922
795.387
790.835
786.256
781.645
776.997
772.311
767.59
762.837
758.059
753.267
748.477
743.706
738.983
734.276
729.72
752.304
473.622
362.578
300.948
265.536
245.133
233.867
228.435
226.85
227.845
230.568
234.431
239.017
244.035
249.279
254.608
259.931
265.188
270.345
275.385
280.301
285.096
289.775
294.348
298.824
303.218
307.541
311.807
316.029
320.217
324.382
328.537
332.695
336.871
341.081
345.342
349.672
354.087
358.605
363.243
368.018
372.941
378.02
383.254
388.643
394.188
399.895
405.767
411.811
418.033
424.436
431.024
437.8
444.762
451.91
459.24
466.748
474.43
482.277
490.283
498.436
506.717
515.106
523.586
532.141
540.761
549.439
558.167
566.941
575.755
584.604
593.477
602.369
611.277
620.202
629.149
638.13
647.168
656.289
665.504
674.842
684.303
693.873
703.531
713.264
723.057
732.905
742.785
752.728
762.527
772.084
781.422
790.553
799.483
808.214
816.74
825.063
833.177
841.022
848.611
855.948
863.031
869.859
876.432
882.75
888.814
894.626
900.186
905.492
910.543
915.335
919.868
924.132
928.123
931.843
935.295
938.48
941.402
944.066
946.475
948.63
950.535
952.188
953.59
954.74
955.642
956.297
956.709
956.88
956.816
956.52
955.996
955.247
954.276
953.086
951.679
950.059
948.228
946.192
943.953
941.517
938.888
936.071
933.072
929.898
926.556
923.054
919.401
915.604
911.668
907.594
903.375
899.002
894.472
889.792
884.98
880.052
875.022
869.906
864.727
859.507
854.266
849.012
843.747
838.466
833.161
827.827
822.457
817.048
811.602
806.119
800.604
795.061
789.5
783.929
778.363
772.815
767.308
761.801
756.426
859.432
517.791
384.638
312.531
271.568
247.881
234.456
227.466
224.672
224.675
226.555
229.684
233.627
238.076
242.822
247.717
252.668
257.612
262.515
267.36
272.141
276.862
281.528
286.149
290.737
295.306
299.869
304.445
309.047
313.683
318.358
323.077
327.852
332.702
337.646
342.708
347.908
353.271
358.82
364.582
370.588
376.863
383.418
390.217
397.235
404.46
411.887
419.517
427.352
435.395
443.649
452.115
460.789
469.669
478.746
488.011
497.452
507.057
516.813
526.708
536.732
546.853
557.023
567.213
577.405
587.582
597.733
607.846
617.931
627.999
638.051
648.061
658.019
667.918
677.759
687.55
697.314
707.094
716.961
726.91
737.062
747.438
757.986
768.655
779.431
790.271
801.208
812.11
822.702
832.999
843.002
852.724
862.172
871.353
880.269
888.917
897.293
905.388
913.186
920.683
927.882
934.783
941.389
947.702
953.725
959.461
964.916
970.091
974.987
979.602
983.936
987.986
991.75
995.227
998.417
1001.32
1003.95
1006.31
1008.39
1010.21
1011.77
1013.07
1014.11
1014.89
1015.42
1015.7
1015.72
1015.51
1015.04
1014.35
1013.42
1012.26
1010.88
1009.28
1007.47
1005.44
1003.2
1000.75
998.099
995.253
992.213
988.986
985.575
981.988
978.228
974.304
970.221
965.988
961.61
957.092
952.435
947.636
942.687
937.586
932.34
926.96
921.456
915.84
910.125
904.328
898.468
892.563
886.623
880.654
874.657
868.628
862.564
856.463
850.328
844.16
837.964
831.743
825.503
819.252
812.999
806.757
800.537
794.357
788.172
782.108
975.186
563.255
406.426
323.627
277.222
250.417
234.999
226.61
222.76
221.926
223.124
225.692
229.175
233.257
237.722
242.421
247.255
252.162
257.107
262.075
267.069
272.097
277.169
282.29
287.467
292.722
298.084
303.574
309.212
315.009
320.938
326.957
333.071
339.31
345.708
352.295
359.104
366.164
373.508
381.185
389.259
397.833
407.036
416.594
426.415
436.457
446.699
457.127
467.739
478.539
489.529
500.706
512.062
523.587
535.266
547.079
559.002
571.009
583.07
595.166
607.304
619.366
631.334
643.2
654.953
666.582
678.07
689.359
700.497
711.506
722.378
733.09
743.626
753.976
764.14
774.132
783.985
793.768
803.604
813.663
824.196
835.169
846.395
857.742
869.255
880.757
891.951
902.764
913.206
923.286
933.012
942.395
951.443
960.167
968.57
976.652
984.41
991.84
998.938
1005.7
1012.14
1018.25
1024.05
1029.53
1034.71
1039.58
1044.16
1048.45
1052.45
1056.16
1059.58
1062.71
1065.55
1068.1
1070.36
1072.34
1074.04
1075.47
1076.64
1077.54
1078.18
1078.57
1078.71
1078.6
1078.23
1077.62
1076.77
1075.67
1074.34
1072.78
1071
1069
1066.79
1064.36
1061.73
1058.89
1055.85
1052.61
1049.18
1045.56
1041.76
1037.78
1033.63
1029.3
1024.82
1020.18
1015.38
1010.44
1005.36
1000.15
994.803
989.32
983.702
977.948
972.06
966.042
959.901
953.645
947.284
940.833
934.307
927.722
921.091
914.422
907.721
900.989
894.224
887.431
880.616
873.781
866.93
860.065
853.193
846.321
839.458
832.615
825.803
819.038
812.271
805.622
1106.47
611.792
428.595
334.587
282.784
253.049
235.864
226.318
221.668
220.272
221.085
223.415
226.791
230.89
235.493
240.458
245.686
251.106
256.674
262.388
268.286
274.42
280.827
287.458
294.26
301.264
308.545
316.176
324.203
332.653
341.625
350.578
359.534
368.606
377.871
387.386
397.195
407.334
417.822
428.713
440.095
452.124
464.777
477.635
490.704
503.973
517.451
531.08
544.815
558.668
572.632
586.696
600.84
615.043
629.28
643.523
657.737
671.884
685.908
699.718
713.316
726.688
739.833
752.771
765.511
778.061
790.428
802.629
814.663
826.494
838.092
849.45
860.552
871.382
881.934
892.22
902.266
912.147
922.006
932.063
942.713
953.749
965.006
976.145
986.87
997.145
1007.01
1016.46
1025.52
1034.2
1042.5
1050.44
1058.02
1065.26
1072.16
1078.72
1084.94
1090.83
1096.38
1101.6
1106.51
1111.09
1115.38
1119.37
1123.06
1126.47
1129.6
1132.46
1135.04
1137.35
1139.38
1141.13
1142.62
1143.83
1144.77
1145.45
1145.88
1146.05
1145.98
1145.67
1145.12
1144.34
1143.32
1142.07
1140.58
1138.86
1136.92
1134.75
1132.37
1129.79
1126.99
1124
1120.81
1117.42
1113.85
1110.08
1106.13
1101.99
1097.68
1093.19
1088.53
1083.72
1078.74
1073.61
1068.33
1062.91
1057.34
1051.64
1045.81
1039.86
1033.78
1027.57
1021.24
1014.79
1008.2
1001.49
994.665
987.721
980.672
973.53
966.31
959.029
951.698
944.33
936.931
929.508
922.072
914.626
907.172
899.711
892.245
884.78
877.321
869.876
862.455
855.068
847.726
840.445
833.176
826.022
1240.63
656.99
448.186
344.226
288.056
256.223
237.992
227.966
223.19
221.924
223.084
225.963
230.073
235.07
240.763
247.068
253.937
261.24
268.787
276.599
284.866
293.915
304.208
315.239
326.214
337.1
348.109
359.438
371.25
383.78
396.865
409.697
422.694
435.98
449.587
463.544
477.884
492.622
507.628
522.933
538.519
554.278
569.914
585.636
601.491
617.488
633.61
649.818
666.06
682.301
698.505
714.642
730.68
746.59
762.341
777.906
793.257
808.363
823.203
837.772
852.066
866.017
879.557
892.765
905.686
918.345
930.776
943.053
955.135
966.981
978.57
989.894
1000.94
1011.69
1022.15
1032.35
1042.31
1052.13
1062.08
1072.45
1082.66
1092.33
1101.36
1109.91
1118.01
1125.7
1132.99
1139.91
1146.48
1152.7
1158.58
1164.12
1169.34
1174.24
1178.82
1183.09
1187.05
1190.71
1194.07
1197.16
1199.98
1202.53
1204.83
1206.88
1208.69
1210.24
1211.56
1212.64
1213.48
1214.07
1214.43
1214.54
1214.42
1214.06
1213.48
1212.67
1211.65
1210.41
1208.96
1207.31
1205.44
1203.37
1201.09
1198.6
1195.9
1193.01
1189.92
1186.63
1183.16
1179.5
1175.67
1171.66
1167.48
1163.12
1158.6
1153.9
1149.04
1144.02
1138.84
1133.51
1128.03
1122.41
1116.65
1110.76
1104.73
1098.58
1092.3
1085.9
1079.39
1072.76
1066.03
1059.18
1052.21
1045.13
1037.93
1030.62
1023.19
1015.65
1008.01
1000.29
992.487
984.627
976.719
968.775
960.804
952.812
944.811
936.805
928.796
920.787
912.784
904.794
896.823
888.883
880.983
873.137
865.354
857.654
849.974
842.42
1376.93
698.578
465.593
353.431
294.351
261.684
243.604
234.314
230.685
230.881
233.851
238.971
245.727
253.508
262.228
272.169
283.927
297.247
310.354
323.308
336.744
351.546
368.182
385.109
401.585
417.981
434.519
451.322
468.449
485.86
503.122
520.909
539.297
558.168
577.434
597.023
616.869
636.905
657.051
677.244
697.418
717.476
737.301
756.889
776.232
795.312
814.103
832.573
850.688
868.417
885.737
902.624
919.064
935.041
950.543
965.562
980.092
994.139
1007.74
1021
1033.89
1046.37
1058.47
1070.18
1081.51
1092.46
1103.05
1113.31
1123.25
1132.86
1142.14
1151.13
1159.8
1168.15
1176.22
1184.22
1192.13
1200.19
1208.15
1215.72
1222.56
1228.77
1234.47
1239.72
1244.58
1249.1
1253.29
1257.17
1260.77
1264.08
1267.12
1269.87
1272.36