/*--------------------------------*- C++ -*----------------------------------*\
| =========                 |                                                 |
| \\      /  F ield         | OpenFOAM: The Open Source CFD Toolbox           |
|  \\    /   O peration     | Version:  2112                                  |
|   \\  /    A nd           | Website:  www.openfoam.com                      |
|    \\/     M anipulation  |                                                 |
\*---------------------------------------------------------------------------*/
FoamFile
{
    version     2.0;
    format      ascii;
    arch        "LSB;label=32;scalar=64";
    class       surfaceScalarField;
    location    "0.03";
    object      ddtCorrDdt0(phi);
}
// * * * * * * * * * * * * * * * * * * * * * * * * * * * * * * * * * * * * * //

dimensions      [0 3 -2 0 0 0 0];

oriented        oriented;

internalField   nonuniform List<scalar> 
24170
(
-2.63172e-08
2.63199e-08
-5.82282e-08
3.19158e-08
-4.09559e-08
-1.72673e-08
6.78002e-08
-1.08752e-07
2.88088e-07
-2.20283e-07
6.05321e-07
-3.1723e-07
9.61507e-07
-3.56183e-07
1.25785e-06
-2.96344e-07
1.35636e-06
-9.84994e-08
1.09383e-06
2.62527e-07
2.85295e-07
8.08541e-07
-1.28602e-06
1.57132e-06
-3.90435e-06
2.61833e-06
-7.9381e-06
4.03376e-06
-1.38761e-05
5.93799e-06
-2.24767e-05
8.60059e-06
-3.52527e-05
1.2776e-05
1.93001e-05
-5.45528e-05
-2.07804e-08
4.71033e-08
-1.00352e-07
1.11492e-07
-2.28705e-07
1.11091e-07
-3.88279e-07
5.08259e-08
-5.49954e-07
-5.86041e-08
-6.8657e-07
-1.8061e-07
-7.89048e-07
-2.53702e-07
-8.74609e-07
-2.1078e-07
-1.00137e-06
2.82609e-08
-1.26566e-06
5.2682e-07
-1.80397e-06
1.34686e-06
-2.79788e-06
2.56523e-06
-4.50689e-06
4.32733e-06
-7.27222e-06
6.79909e-06
-1.15771e-05
1.02429e-05
-1.8182e-05
1.52055e-05
-2.82793e-05
2.28732e-05
3.57707e-05
-4.47498e-05
-2.0842e-08
6.79483e-08
-8.98343e-08
1.80489e-07
-2.00962e-07
2.22224e-07
-3.64373e-07
2.14241e-07
-5.97317e-07
1.74344e-07
-9.12623e-07
1.34699e-07
-1.31467e-06
1.48348e-07
-1.79602e-06
2.70578e-07
-2.35968e-06
5.91917e-07
-3.02162e-06
1.18876e-06
-3.8234e-06
2.14864e-06
-4.84099e-06
3.58281e-06
-6.23249e-06
5.71884e-06
-8.22048e-06
8.78709e-06
-1.10962e-05
1.31187e-05
-1.53194e-05
1.94287e-05
-2.12225e-05
2.87763e-05
4.2562e-05
-2.80139e-05
-2.68664e-08
9.48177e-08
-9.7565e-08
2.51192e-07
-2.03468e-07
3.28131e-07
-3.45108e-07
3.55885e-07
-5.35865e-07
3.65105e-07
-7.92789e-07
3.91627e-07
-1.12957e-06
4.85137e-07
-1.5608e-06
7.01802e-07
-2.10578e-06
1.13691e-06
-2.78183e-06
1.86482e-06
-3.61192e-06
2.97873e-06
-4.6165e-06
4.58739e-06
-5.80329e-06
6.90563e-06
-7.24083e-06
1.02246e-05
-8.97728e-06
1.48551e-05
-1.09522e-05
2.14036e-05
-1.27692e-05
3.05933e-05
4.35245e-05
-1.37317e-05
-3.04609e-08
1.25282e-07
-1.07158e-07
3.27894e-07
-2.18367e-07
4.39344e-07
-3.60711e-07
4.98234e-07
-5.34479e-07
5.38877e-07
-7.54206e-07
6.11358e-07
-1.04156e-06
7.7249e-07
-1.41364e-06
1.07389e-06
-1.87824e-06
1.6015e-06
-2.45456e-06
2.44114e-06
-3.16741e-06
3.69159e-06
-4.03705e-06
5.45703e-06
-5.05609e-06
7.92467e-06
-6.22386e-06
1.13924e-05
-7.56253e-06
1.61938e-05
-8.91302e-06
2.27541e-05
-9.76988e-06
3.14502e-05
4.3245e-05
-9.49039e-06
-3.2185e-08
1.5747e-07
-1.13878e-07
4.09592e-07
-2.29632e-07
5.55103e-07
-3.75346e-07
6.43951e-07
-5.51531e-07
7.15065e-07
-7.63037e-07
8.22867e-07
-1.01242e-06
1.02187e-06
-1.32405e-06
1.38553e-06
-1.70374e-06
1.98119e-06
-2.15606e-06
2.89347e-06
-2.68994e-06
4.22547e-06
-3.33201e-06
6.09911e-06
-4.14657e-06
8.73923e-06
-5.04097e-06
1.22868e-05
-5.92617e-06
1.7079e-05
-6.60396e-06
2.34319e-05
-6.59146e-06
3.14377e-05
4.17804e-05
-5.12676e-06
-3.28792e-08
1.90353e-07
-1.17191e-07
4.93908e-07
-2.35239e-07
6.73154e-07
-3.81662e-07
7.90379e-07
-5.57954e-07
8.91361e-07
-7.66133e-07
1.03105e-06
-1.00487e-06
1.26062e-06
-1.2841e-06
1.66476e-06
-1.61233e-06
2.30942e-06
-1.99351e-06
3.27466e-06
-2.42859e-06
4.66054e-06
-2.92298e-06
6.5935e-06
-3.46669e-06
9.28294e-06
-3.9942e-06
1.28143e-05
-4.34614e-06
1.74309e-05
-4.22882e-06
2.33145e-05
-3.46399e-06
3.06729e-05
3.96654e-05
-1.34901e-06
-3.28707e-08
2.23227e-07
-1.17691e-07
5.78733e-07
-2.35108e-07
7.90576e-07
-3.77955e-07
9.33229e-07
-5.45412e-07
1.05882e-06
-7.3814e-07
1.22378e-06
-9.61493e-07
1.48397e-06
-1.21275e-06
1.91602e-06
-1.49284e-06
2.58951e-06
-1.8007e-06
3.58252e-06
-2.12818e-06
4.98803e-06
-2.45395e-06
6.91927e-06
-2.69771e-06
9.5267e-06
-2.79446e-06
1.29111e-05
-2.57656e-06
1.7213e-05
-1.75005e-06
2.2488e-05
-8.15531e-08
2.90044e-05
3.65818e-05
3.00199e-06
-3.2135e-08
2.55365e-07
-1.15172e-07
6.61775e-07
-2.28387e-07
9.03795e-07
-3.62513e-07
1.06736e-06
-5.13834e-07
1.21015e-06
-6.80266e-07
1.39021e-06
-8.6233e-07
1.66604e-06
-1.05358e-06
2.10727e-06
-1.24687e-06
2.7828e-06
-1.42999e-06
3.76564e-06
-1.57991e-06
5.13795e-06
-1.65301e-06
6.99237e-06
-1.5603e-06
9.43399e-06
-1.18955e-06
1.25403e-05
-3.48755e-07
1.63723e-05
1.1834e-06
2.09559e-05
3.75337e-06
2.64344e-05
3.2495e-05
7.84024e-06
-3.05245e-08
2.85893e-07
-1.09065e-07
7.40319e-07
-2.13755e-07
1.00849e-06
-3.3313e-07
1.18674e-06
-4.60294e-07
1.33731e-06
-5.89223e-07
1.51915e-06
-7.14145e-07
1.79096e-06
-8.23621e-07
2.21675e-06
-9.01441e-07
2.86062e-06
-9.23372e-07
3.78758e-06
-8.5117e-07
5.06575e-06
-6.23656e-07
6.76486e-06
-1.41355e-07
8.95169e-06
7.31012e-07
1.16679e-05
2.19007e-06
1.49132e-05
4.45144e-06
1.86945e-05
7.8761e-06
2.30098e-05
2.75675e-05
1.28036e-05
-2.78817e-08
3.13778e-07
-9.87314e-08
8.11172e-07
-1.89869e-07
1.09963e-06
-2.87583e-07
1.28445e-06
-3.81572e-07
1.4313e-06
-4.61429e-07
1.59901e-06
-5.15109e-07
1.84464e-06
-5.24656e-07
2.2263e-06
-4.64774e-07
2.80074e-06
-2.99795e-07
3.6226e-06
2.19303e-08
4.74402e-06
5.75392e-07
6.21139e-06
1.46788e-06
8.0592e-06
2.84178e-06
1.0294e-05
4.87607e-06
1.28789e-05
7.78435e-06
1.57862e-05
1.19344e-05
1.88598e-05
2.19902e-05
1.75118e-05
-2.06364e-08
3.34417e-07
-7.16461e-08
8.62186e-07
-1.3388e-07
1.16187e-06
-1.93952e-07
1.34453e-06
-2.40471e-07
1.47782e-06
-2.61192e-07
1.61973e-06
-2.41239e-07
1.82469e-06
-1.60191e-07
2.14525e-06
9.77777e-09
2.63077e-06
3.06394e-07
3.32598e-06
7.81313e-07
4.2691e-06
1.50476e-06
5.48795e-06
2.56965e-06
6.9943e-06
4.09156e-06
8.77213e-06
6.19472e-06
1.07757e-05
9.04543e-06
1.29355e-05
1.29368e-05
1.49684e-05
1.69214e-05
1.80056e-05
-1.91889e-08
3.53608e-07
-6.48697e-08
9.07869e-07
-1.14957e-07
1.21196e-06
-1.52476e-07
1.38205e-06
-1.6152e-07
1.48687e-06
-1.24181e-07
1.58239e-06
-1.84135e-08
1.71892e-06
1.84789e-07
1.94204e-06
5.23689e-07
2.29187e-06
1.04834e-06
2.80132e-06
1.82414e-06
3.49331e-06
2.93534e-06
4.37675e-06
4.4875e-06
5.44214e-06
6.60353e-06
6.65609e-06
9.42655e-06
7.95272e-06
1.30979e-05
9.26422e-06
1.77505e-05
1.03158e-05
1.1018e-05
2.36539e-05
-1.45907e-08
3.68201e-07
-4.5643e-08
9.38923e-07
-6.88146e-08
1.23513e-06
-6.30934e-08
1.37633e-06
-7.13595e-09
1.43091e-06
1.23845e-07
1.45141e-06
3.60398e-07
1.48237e-06
7.41421e-07
1.56102e-06
1.31653e-06
1.71676e-06
2.14799e-06
1.96986e-06
3.31305e-06
2.32826e-06
4.90643e-06
2.78336e-06
7.0396e-06
3.30896e-06
9.8377e-06
3.85799e-06
1.34357e-05
4.35473e-06
1.79895e-05
4.71043e-06
2.35119e-05
4.79335e-06
4.56274e-06
2.99672e-05
-5.08443e-09
3.73287e-07
-7.72072e-09
9.41561e-07
1.72102e-08
1.2102e-06
9.44905e-08
1.29905e-06
2.51178e-07
1.27422e-06
5.19301e-07
1.18328e-06
9.38004e-07
1.06367e-06
1.55562e-06
9.43406e-07
2.43168e-06
8.40699e-07
3.63766e-06
7.63873e-07
5.25572e-06
7.10199e-07
7.38256e-06
6.56507e-07
1.01239e-05
5.67636e-07
1.35893e-05
3.92536e-07
1.78842e-05
5.98897e-08
2.30942e-05
-4.99591e-07
2.92847e-05
-1.39712e-06
-2.67021e-06
3.65176e-05
1.12769e-08
3.62011e-07
5.50254e-08
8.97813e-07
1.54374e-07
1.11085e-06
3.36076e-07
1.11734e-06
6.31479e-07
9.78821e-07
1.07818e-06
7.36581e-07
1.72132e-06
4.20521e-07
2.6146e-06
5.01299e-08
3.82154e-06
-3.66246e-07
5.41863e-06
-8.33214e-07
7.47634e-06
-1.34751e-06
1.00812e-05
-1.94836e-06
1.33166e-05
-2.66774e-06
1.72485e-05
-3.53936e-06
2.19715e-05
-4.6631e-06
2.75023e-05
-6.03045e-06
3.38417e-05
-7.73646e-06
-9.80654e-06
4.0978e-05
3.5351e-08
3.26661e-07
1.44558e-07
7.88608e-07
3.43321e-07
9.1209e-07
6.55916e-07
8.04751e-07
1.11358e-06
5.21159e-07
1.75428e-06
9.58785e-08
2.62244e-06
-4.47633e-07
3.76796e-06
-1.0954e-06
5.24209e-06
-1.84037e-06
7.14101e-06
-2.73214e-06
9.46057e-06
-3.66706e-06
1.22938e-05
-4.78163e-06
1.56849e-05
-6.05884e-06
1.96733e-05
-7.52774e-06
2.42304e-05
-9.22016e-06
2.93609e-05
-1.11609e-05
3.50067e-05
-1.33823e-05
-1.58884e-05
4.10885e-05
6.37307e-08
2.62933e-07
2.50296e-07
6.02046e-07
5.57529e-07
6.0486e-07
9.99051e-07
3.63231e-07
1.5971e-06
-7.68843e-08
2.38036e-06
-6.87377e-07
3.38216e-06
-1.44943e-06
4.63884e-06
-2.35207e-06
6.19026e-06
-3.39178e-06
8.03066e-06
-4.57254e-06
1.02532e-05
-5.88962e-06
1.28328e-05
-7.36121e-06
1.57722e-05
-8.9982e-06
1.90547e-05
-1.08103e-05
2.26399e-05
-1.28053e-05
2.6464e-05
-1.49851e-05
3.04256e-05
-1.73438e-05
-1.9873e-05
3.44102e-05
9.12574e-08
1.71681e-07
3.37912e-07
3.55397e-07
7.13368e-07
2.2941e-07
1.20952e-06
-1.32918e-07
1.82767e-06
-6.95019e-07
2.57412e-06
-1.43382e-06
3.4574e-06
-2.33271e-06
4.48533e-06
-3.37999e-06
5.66117e-06
-4.56761e-06
6.9784e-06
-5.88975e-06
8.4314e-06
-7.34261e-06
9.9952e-06
-8.925e-06
1.16305e-05
-1.06335e-05
1.32834e-05
-1.24632e-05
1.48839e-05
-1.44058e-05
1.63481e-05
-1.64493e-05
1.75807e-05
-1.85763e-05
-2.07726e-05
1.84803e-05
5.96802e-08
1.12007e-07
2.17187e-07
1.97897e-07
4.3874e-07
7.86524e-09
7.0441e-07
-3.9858e-07
1.00061e-06
-9.91208e-07
1.31661e-06
-1.74982e-06
1.64261e-06
-2.6587e-06
1.96787e-06
-3.70524e-06
2.27891e-06
-4.87863e-06
2.55839e-06
-6.16923e-06
2.78427e-06
-7.56849e-06
2.92768e-06
-9.0684e-06
2.95417e-06
-1.066e-05
2.82388e-06
-1.23329e-05
2.49215e-06
-1.40741e-05
1.9108e-06
-1.58679e-05
1.02944e-06
-1.76949e-05
-1.9541e-05
-2.02197e-07
4.40476e-08
6.79659e-08
1.555e-07
8.64524e-08
2.97484e-07
-1.3411e-07
4.45331e-07
-5.46417e-07
5.79865e-07
-1.12573e-06
6.84385e-07
-1.85433e-06
7.4282e-07
-2.71712e-06
7.38285e-07
-3.7007e-06
6.52078e-07
-4.79242e-06
4.63008e-07
-5.98015e-06
1.46972e-07
-7.25245e-06
-3.23235e-07
-8.59819e-06
-9.76962e-07
-1.00063e-05
-1.84484e-06
-1.1465e-05
-2.95826e-06
-1.29606e-05
-4.34844e-06
-1.44777e-05
-6.04505e-06
-1.59983e-05
-1.75105e-05
-8.0756e-06
3.06067e-08
3.73654e-08
1.03365e-07
1.3702e-08
1.82382e-07
-2.1312e-07
2.42326e-07
-6.06353e-07
2.62736e-07
-1.14613e-06
2.25609e-07
-1.81719e-06
1.1362e-07
-2.60513e-06
-9.1076e-08
-3.49599e-06
-4.07484e-07
-4.476e-06
-8.56225e-07
-5.5314e-06
-1.45938e-06
-6.64928e-06
-2.24085e-06
-7.81671e-06
-3.22484e-06
-9.02229e-06
-4.43414e-06
-1.02557e-05
-5.88984e-06
-1.15049e-05
-7.6111e-06
-1.27565e-05
-9.61426e-06
-1.39952e-05
-1.52111e-05
-1.19136e-05
2.01898e-08
1.71811e-08
6.3603e-08
-2.97048e-08
9.72393e-08
-2.46749e-07
9.70533e-08
-6.06159e-07
4.36656e-08
-1.09274e-06
-7.9775e-08
-1.69374e-06
-2.89394e-07
-2.3955e-06
-6.01543e-07
-3.18384e-06
-1.03329e-06
-4.04425e-06
-1.60299e-06
-4.96168e-06
-2.3298e-06
-5.92246e-06
-3.23504e-06
-6.91146e-06
-4.3367e-06
-7.92062e-06
-5.65169e-06
-8.94067e-06
-7.19536e-06
-9.96125e-06
-8.97966e-06
-1.09722e-05
-1.10121e-05
-1.19627e-05
-1.29245e-05
-1.32987e-05
1.25108e-08
4.67483e-09
3.47888e-08
-5.19774e-08
3.74789e-08
-2.49433e-07
-1.51205e-09
-5.67162e-07
-9.88333e-08
-9.95409e-07
-2.68707e-07
-1.52386e-06
-5.24934e-07
-2.13926e-06
-8.81303e-07
-2.82746e-06
-1.35203e-06
-3.57351e-06
-1.9523e-06
-4.36141e-06
-2.69827e-06
-5.17649e-06
-3.61565e-06
-5.99407e-06
-4.71318e-06
-6.82308e-06
-5.99837e-06
-7.65547e-06
-7.48411e-06
-8.4755e-06
-9.17952e-06
-9.27677e-06
-1.10898e-05
-1.00524e-05
-1.07951e-05
-1.32192e-05
6.95963e-09
-2.28118e-09
1.47448e-08
-5.97582e-08
-2.00811e-09
-2.32675e-07
-6.32409e-08
-5.05924e-07
-1.81667e-07
-8.76977e-07
-3.67899e-07
-1.33762e-06
-6.33372e-07
-1.87378e-06
-9.89255e-07
-2.47157e-06
-1.44702e-06
-3.11574e-06
-2.01818e-06
-3.79024e-06
-2.71173e-06
-4.48294e-06
-3.5432e-06
-5.16259e-06
-4.52782e-06
-5.83845e-06
-5.67227e-06
-6.51102e-06
-6.99281e-06
-7.15495e-06
-8.49322e-06
-7.77635e-06
-1.01806e-05
-8.36502e-06
-8.91276e-06
-1.2063e-05
3.0767e-09
-5.35504e-09
2.06741e-09
-5.87453e-08
-2.41308e-08
-2.06473e-07
-8.96542e-08
-4.40396e-07
-2.03759e-07
-7.62868e-07
-3.75638e-07
-1.16574e-06
-6.16228e-07
-1.63319e-06
-9.34195e-07
-2.1536e-06
-1.33784e-06
-2.7121e-06
-1.83594e-06
-3.29213e-06
-2.435e-06
-3.88388e-06
-3.1254e-06
-4.47219e-06
-3.93706e-06
-5.02678e-06
-4.89513e-06
-5.55295e-06
-6.01164e-06
-6.03844e-06
-7.28556e-06
-6.50242e-06
-8.72018e-06
-6.9304e-06
-7.31187e-06
-1.03211e-05
1.41929e-09
-6.77208e-09
-1.66702e-09
-5.5656e-08
-2.66323e-08
-1.81505e-07
-7.95263e-08
-3.87498e-07
-1.68927e-07
-6.73464e-07
-3.04297e-07
-1.03036e-06
-4.89994e-07
-1.44749e-06
-7.26604e-07
-1.91698e-06
-1.01486e-06
-2.42384e-06
-1.35937e-06
-2.94761e-06
-1.77143e-06
-3.47181e-06
-2.27533e-06
-3.96829e-06
-2.88266e-06
-4.41945e-06
-3.5953e-06
-4.8403e-06
-4.41989e-06
-5.21385e-06
-5.38135e-06
-5.54096e-06
-6.48286e-06
-5.82888e-06
-6.08735e-06
-7.70739e-06
2.27594e-09
-9.04559e-09
6.46769e-09
-5.98443e-08
4.17747e-09
-1.79211e-07
-6.34088e-09
-3.76976e-07
-2.6009e-08
-6.53792e-07
-4.57328e-08
-1.01064e-06
-5.73205e-08
-1.4359e-06
-6.53392e-08
-1.90896e-06
-8.48673e-08
-2.40431e-06
-1.40453e-07
-2.89202e-06
-2.65776e-07
-3.34648e-06
-4.92426e-07
-3.74164e-06
-8.50501e-07
-4.06138e-06
-1.37627e-06
-4.31454e-06
-2.08563e-06
-4.50448e-06
-2.97652e-06
-4.65007e-06
-4.04751e-06
-4.75788e-06
-4.82346e-06
-5.31139e-06
2.58633e-08
-3.4906e-08
7.83617e-08
-1.12339e-07
1.43768e-07
-2.44614e-07
1.9476e-07
-4.27963e-07
1.97876e-07
-6.56904e-07
1.07551e-07
-9.20307e-07
-1.32048e-07
-1.19629e-06
-5.71351e-07
-1.46965e-06
-1.25123e-06
-1.72442e-06
-2.20044e-06
-1.94281e-06
-3.43473e-06
-2.11219e-06
-4.95367e-06
-2.22269e-06
-6.74268e-06
-2.27236e-06
-8.78271e-06
-2.27451e-06
-1.10462e-05
-2.24101e-06
-1.35103e-05
-2.18595e-06
-1.61534e-05
-2.11477e-06
-2.02651e-06
-1.89503e-05
-3.49057e-08
-1.47244e-07
-3.91858e-07
-8.1982e-07
-1.47672e-06
-2.39703e-06
-3.59332e-06
-5.06298e-06
-6.7874e-06
-8.7302e-06
-1.08424e-05
-1.30651e-05
-1.53374e-05
-1.7612e-05
-1.9853e-05
-2.20389e-05
-2.41537e-05
-2.61802e-05
-1.81991e-05
1.81991e-05
-4.90632e-05
3.08641e-05
-0.000100359
5.12959e-05
-0.000157533
5.71736e-05
-0.000223749
6.62164e-05
-0.000281523
5.77741e-05
-0.000320506
3.89827e-05
-0.000341055
2.05492e-05
-0.000343611
2.5555e-06
-0.0003316
-1.20109e-05
-0.00030885
-2.27499e-05
-0.000278094
-3.07559e-05
-0.000240876
-3.72181e-05
-0.00019751
-4.33656e-05
-0.000147351
-5.01596e-05
-8.92871e-05
-5.80637e-05
-2.21828e-05
-6.71042e-05
5.5598e-05
-7.77808e-05
0.000159771
-0.000104173
0.000261347
-0.000101575
0.000365366
-0.000104019
0.000465002
-9.96366e-05
0.000550966
-8.59638e-05
0.000611034
-6.00674e-05
0.000631621
-2.05875e-05
0.000602764
2.8857e-05
0.0005233
7.94647e-05
0.00041034
0.00011296
0.00029857
0.00011177
0.000208652
8.99175e-05
0.000107816
0.000100836
-2.36775e-05
0.000131494
-0.000159262
0.000135585
-0.000322265
0.000163002
-0.000474812
0.000152548
-0.000529318
5.4506e-05
-0.000435571
-9.37478e-05
-0.000225947
-0.000209623
1.82593e-05
-0.000244207
0.000248329
-0.00023007
0.000334542
-8.62129e-05
0.00036018
-2.5638e-05
0.000408538
-4.83583e-05
0.000521289
-0.000112751
0.00069056
-0.000169271
0.000890976
-0.000200415
0.00109104
-0.000200063
0.00126949
-0.000178455
0.00141161
-0.000142113
0.00150757
-9.59674e-05
0.00155495
-4.73741e-05
0.0015557
-7.50276e-07
0.00151484
4.08566e-05
0.00143916
7.56842e-05
0.00133613
0.000103024
0.00121286
0.000123273
0.00107543
0.000137431
0.000929354
0.000146075
0.000779584
0.00014977
0.000628791
0.000150793
0.000480178
0.000148613
0.000337383
0.000142795
0.000201756
0.000135627
7.45445e-05
0.000127211
-4.31828e-05
0.000117727
-0.000150461
0.000107278
-0.000246656
9.61956e-05
-0.00033204
8.53839e-05
-0.00040562
7.35797e-05
-0.000466209
6.05893e-05
-0.000520766
5.45571e-05
-0.000553841
3.30747e-05
-0.000579033
2.51915e-05
-0.000597753
1.87201e-05
-0.000611803
1.40508e-05
-0.000622448
1.06449e-05
-0.000630817
8.3688e-06
-0.000637898
7.08122e-06
-0.000644519
6.6204e-06
-0.000651281
6.76192e-06
-0.000658459
7.17876e-06
-0.000665875
7.41592e-06
-0.000672889
7.01399e-06
-0.000678768
5.87846e-06
-0.000682128
3.36064e-06
-0.000681195
-9.33799e-07
-0.000674207
-6.98787e-06
-0.000659686
-1.45209e-05
-0.000636518
-2.31677e-05
-0.000603927
-3.25908e-05
-0.000561923
-4.20047e-05
-0.000512539
-4.93838e-05
-0.000463284
-4.92552e-05
-0.00041964
-4.36437e-05
-0.000380571
-3.9069e-05
-0.000338934
-4.1637e-05
-0.000294689
-4.42449e-05
-0.0002509
-4.37892e-05
-0.000209369
-4.1531e-05
-0.000170462
-3.8906e-05
-0.000134709
-3.57531e-05
-0.000102473
-3.22362e-05
-7.385e-05
-2.8623e-05
-4.86632e-05
-2.51868e-05
-2.66169e-05
-2.20463e-05
-7.37135e-06
-1.92456e-05
9.461e-06
-1.68323e-05
2.43973e-05
-1.49363e-05
3.79986e-05
-1.36012e-05
5.18985e-05
-1.38999e-05
6.6175e-05
-1.42765e-05
8.04374e-05
-1.42625e-05
9.20408e-05
-1.16034e-05
0.00010148
-9.43952e-06
0.000107836
-6.35599e-06
0.000111037
-3.20091e-06
0.000111277
-2.40261e-07
0.000109048
2.22947e-06
0.000105001
4.04744e-06
9.97742e-05
5.22633e-06
9.38805e-05
5.89374e-06
8.76545e-05
6.22597e-06
8.12715e-05
6.383e-06
7.47998e-05
6.47165e-06
6.82583e-05
6.54148e-06
6.16577e-05
6.60067e-06
5.50192e-05
6.63849e-06
4.83699e-05
6.64922e-06
4.17308e-05
6.63917e-06
3.51085e-05
6.6222e-06
2.85587e-05
6.5499e-06
2.2374e-05
6.18462e-06
1.67334e-05
5.64059e-06
1.14545e-05
5.279e-06
6.41912e-06
5.03534e-06
1.60377e-06
4.81536e-06
-2.96026e-06
4.56404e-06
-7.20137e-06
4.24112e-06
-1.10935e-05
3.89208e-06
-1.46473e-05
3.55389e-06
-1.78641e-05
3.21673e-06
-2.07244e-05
2.86035e-06
-2.31952e-05
2.47075e-06
-2.52413e-05
2.04615e-06
-2.68389e-05
1.59763e-06
-2.79848e-05
1.14586e-06
-2.87009e-05
7.16075e-07
-2.90366e-05
3.35754e-07
-2.90603e-05
2.36786e-08
-2.87653e-05
-2.94981e-07
-2.82263e-05
-5.38949e-07
-2.75208e-05
-7.05508e-07
-2.67062e-05
-8.14642e-07
-2.58358e-05
-8.70302e-07
-2.49654e-05
-8.70472e-07
-2.41519e-05
-8.13511e-07
-2.34447e-05
-7.07117e-07
-2.28741e-05
-5.70688e-07
-2.24597e-05
-4.14374e-07
-2.22076e-05
-2.52136e-07
-2.21103e-05
-9.73048e-08
-2.21498e-05
3.9486e-08
-2.23e-05
1.50253e-07
-2.253e-05
2.2995e-07
-2.28069e-05
2.7686e-07
-2.3099e-05
2.92081e-07
-2.33779e-05
2.78913e-07
-2.36199e-05
2.41974e-07
-2.3806e-05
1.86131e-07
-2.39214e-05
1.15434e-07
-2.3953e-05
3.15948e-08
-2.38873e-05
-6.57258e-08
-2.37004e-05
-1.86946e-07
-2.33645e-05
-3.35829e-07
-2.28447e-05
-5.19764e-07
-2.20873e-05
-7.57464e-07
-2.09603e-05
-1.12694e-06
-1.94498e-05
-1.51051e-06
-1.70593e-05
-2.39051e-06
-2.39504e-06
-1.46643e-05
-8.14639e-06
2.63455e-05
-3.20042e-05
5.47219e-05
-7.25369e-05
9.18286e-05
-0.000135999
0.000120636
-0.000186098
0.000116316
-0.000217322
8.89979e-05
-0.00023118
5.28404e-05
-0.00022937
1.87398e-05
-0.000218525
-8.29019e-06
-0.000202739
-2.7797e-05
-0.000183876
-4.16125e-05
-0.000162335
-5.22967e-05
-0.000137664
-6.18889e-05
-0.000109632
-7.13981e-05
-7.80614e-05
-8.17302e-05
-4.27967e-05
-9.33284e-05
-4.02351e-06
-0.000105877
3.65299e-05
-0.000118334
6.66268e-05
-0.00013427
0.000113892
-0.000148841
0.00017409
-0.000164217
0.000248883
-0.00017443
0.000338146
-0.000175227
0.00043875
-0.000160671
0.000543357
-0.000125195
0.000638883
-6.66686e-05
0.000707724
1.06233e-05
0.000727067
9.36165e-05
0.000674034
0.000164804
0.000547635
0.000216316
0.000393141
0.000255331
0.000241302
0.000283332
6.83477e-05
0.000308539
-0.000102607
0.000333957
-0.000234304
0.000284246
-0.000242634
6.28355e-05
-0.000108914
-0.000227467
0.000109364
-0.000427902
0.000333152
-0.000467995
0.000504566
-0.000401484
0.000722308
-0.000303955
0.00098809
-0.00029142
0.00128274
-0.000343013
0.00155629
-0.000386297
0.00176053
-0.000373507
0.00187983
-0.00031972
0.00191851
-0.000238739
0.00188362
-0.000143567
0.00178574
-4.42389e-05
0.00163925
5.05226e-05
0.00145835
0.000133533
0.00125692
0.000200676
0.00104724
0.000250533
0.00083924
0.000283688
0.000640258
0.000302005
0.000455346
0.000308185
0.000287615
0.000305163
0.000138324
0.000295366
7.24181e-06
0.000280853
-0.000105643
0.000263677
-0.000201801
0.000244771
-0.000283539
0.000224534
-0.000351933
0.000204021
-0.00040828
0.000183559
-0.00045405
0.000163498
-0.000491162
0.000144389
-0.00052117
0.000126204
-0.000543001
0.000107215
-0.00055447
8.50486e-05
-0.000570085
7.62043e-05
-0.000578932
6.34046e-05
-0.000595275
4.94174e-05
-0.000608154
3.80701e-05
-0.000617751
2.83172e-05
-0.00062409
2.03903e-05
-0.000627927
1.44817e-05
-0.000630139
1.05802e-05
-0.000631644
8.58647e-06
-0.0006333
8.27601e-06
-0.0006358
9.26265e-06
-0.000639598
1.09769e-05
-0.000644862
1.26796e-05
-0.000651178
1.33302e-05
-0.000657036
1.1736e-05
-0.000660918
7.24332e-06
-0.000661003
-8.48726e-07
-0.000655428
-1.25633e-05
-0.000642838
-2.71113e-05
-0.0006227
-4.33048e-05
-0.000595398
-5.98929e-05
-0.000562076
-7.53276e-05
-0.000523759
-8.77005e-05
-0.000477753
-9.52607e-05
-0.00043368
-8.77171e-05
-0.000384781
-8.79684e-05
-0.000337428
-8.89896e-05
-0.000292575
-8.90982e-05
-0.00025036
-8.60036e-05
-0.000212698
-7.91931e-05
-0.000178586
-7.3018e-05
-0.000147366
-6.69727e-05
-0.000118971
-6.0631e-05
-9.33108e-05
-5.42835e-05
-7.0248e-05
-4.82496e-05
-4.96082e-05
-4.2686e-05
-3.1206e-05
-3.76477e-05
-1.48799e-05
-3.31585e-05
-5.49506e-07
-2.92667e-05
1.18421e-05
-2.59929e-05
2.10858e-05
-2.31436e-05
2.77645e-05
-2.09552e-05
3.34586e-05
-1.99566e-05
3.82894e-05
-1.64341e-05
4.56744e-05
-1.68246e-05
5.34729e-05
-1.41545e-05
6.17343e-05
-1.14623e-05
6.99497e-05
-8.45571e-06
7.7557e-05
-5.37784e-06
8.39864e-05
-2.38192e-06
8.88015e-05
4.11237e-07
9.17401e-05
2.95514e-06
9.26956e-05
5.27044e-06
9.16748e-05
7.40384e-06
8.87564e-05
9.39002e-06
8.40671e-05
1.12307e-05
7.77734e-05
1.28944e-05
7.00859e-05
1.4326e-05
6.12857e-05
1.54494e-05
5.1763e-05
1.61618e-05
4.20214e-05
1.63638e-05
3.24393e-05
1.6132e-05
2.29271e-05
1.56968e-05
1.32903e-05
1.52774e-05
3.686e-06
1.48833e-05
-5.65356e-06
1.43749e-05
-1.46035e-05
1.37653e-05
-2.30626e-05
1.30232e-05
-3.09271e-05
1.21056e-05
-3.81678e-05
1.11328e-05
-4.47929e-05
1.01789e-05
-5.08059e-05
9.22976e-06
-5.61907e-05
8.24517e-06
-6.09026e-05
7.18267e-06
-6.48788e-05
6.02229e-06
-6.80612e-05
4.78009e-06
-7.04212e-05
3.50587e-06
-7.19747e-05
2.26956e-06
-7.27919e-05
1.15301e-06
-7.30013e-05
2.32999e-07
-7.25814e-05
-7.14772e-07
-7.16843e-05
-1.43611e-06
-7.04431e-05
-1.94668e-06
-6.89587e-05
-2.29904e-06
-6.73233e-05
-2.50569e-06
-6.56286e-05
-2.5652e-06
-6.39706e-05
-2.47149e-06
-6.24429e-05
-2.23477e-06
-6.11059e-05
-1.90776e-06
-6.00047e-05
-1.51554e-06
-5.91656e-05
-1.09123e-06
-5.85922e-05
-6.70758e-07
-5.82673e-05
-2.85401e-07
-5.81588e-05
4.17561e-08
-5.82238e-05
2.94943e-07
-5.84138e-05
4.66775e-07
-5.86793e-05
5.57576e-07
-5.89746e-05
5.74265e-07
-5.9261e-05
5.28326e-07
-5.9508e-05
4.33159e-07
-5.9694e-05
3.01364e-07
-5.98035e-05
1.41183e-07
-5.98267e-05
-4.26093e-08
-5.97452e-05
-2.6844e-07
-5.95415e-05
-5.39472e-07
-5.92e-05
-8.61304e-07
-5.86877e-05
-1.26976e-06
-5.79157e-05
-1.89892e-06
-5.68375e-05
-2.58873e-06
-5.51001e-05
-4.12787e-06
-4.15235e-06
-5.33428e-05
2.01798e-06
2.43275e-05
-2.85774e-05
8.53173e-05
-8.01123e-05
0.000143364
-0.000115493
0.000156016
-0.000127954
0.000128777
-0.00012186
8.29043e-05
-0.000107461
3.84411e-05
-9.32892e-05
4.56809e-06
-8.36073e-05
-1.79721e-05
-7.85285e-05
-3.28757e-05
-7.58708e-05
-4.42703e-05
-7.29559e-05
-5.52115e-05
-6.7452e-05
-6.73928e-05
-5.74611e-05
-8.1389e-05
-4.19491e-05
-9.72423e-05
-2.05022e-05
-0.000114775
7.06393e-06
-0.000133444
4.09933e-05
-0.000152264
7.61248e-05
-0.000169402
0.000114915
-0.000187631
0.000151381
-0.000200683
0.000188936
-0.000211985
0.000231974
-0.000218264
0.000287119
-0.000215816
0.000360802
-0.000198879
0.000454362
-0.000160229
0.000559018
-9.40328e-05
0.000652874
-2.39156e-07
0.000705556
0.000112122
0.000694942
0.00022693
0.000622324
0.000327948
0.000500185
0.000405471
0.000341048
0.000467677
0.000249068
0.000425937
0.000175238
0.000358075
0.000251602
-1.35284e-05
0.00044999
-0.000425855
0.000703326
-0.000681238
0.000903942
-0.000668611
0.00112338
-0.000620922
0.00140754
-0.000588116
0.00168521
-0.00056909
0.00187023
-0.000528026
0.00192773
-0.000443805
0.00187769
-0.000323463
0.00174418
-0.000186209
0.00155242
-4.69788e-05
0.00132575
8.30984e-05
0.00108739
0.000194121
0.000856657
0.00028126
0.000647024
0.000343165
0.000466154
0.000381547
0.000316555
0.000400132
0.000196736
0.000403507
0.000102538
0.000396204
2.85761e-05
0.000382146
-3.05854e-05
0.000364325
-7.98812e-05
0.000344662
-0.000123361
0.000324333
-0.000163637
0.000303953
-0.000202485
0.000283618
-0.000241038
0.000263087
-0.000279451
0.000242434
-0.000317735
0.000221842
-0.000355487
0.00020125
-0.000391715
0.000180618
-0.000426198
0.000160686
-0.000446336
0.000127353
-0.000479923
0.000118635
-0.000503389
9.96707e-05
-0.000521385
8.1401e-05
-0.000535636
6.36678e-05
-0.000545359
4.77929e-05
-0.000551393
3.43515e-05
-0.000554479
2.34765e-05
-0.000555379
1.53816e-05
-0.000554973
1.01738e-05
-0.000554247
7.86134e-06
-0.000554198
8.22704e-06
-0.000555697
1.07612e-05
-0.000559353
1.4633e-05
-0.000565356
1.86819e-05
-0.000573367
2.13418e-05
-0.000582304
2.06726e-05
-0.000590369
1.53081e-05
-0.000595204
3.98698e-06
-0.000594525
-1.32429e-05
-0.000586661
-3.49749e-05
-0.000570951
-5.90153e-05
-0.000547554
-8.32893e-05
-0.0005181
-0.000104782
-0.000484737
-0.000121063
-0.000447926
-0.000132072
-0.000400983
-0.000134661
-0.000354567
-0.000134384
-0.000311088
-0.000132468
-0.000271274
-0.000128912
-0.000234082
-0.000123195
-0.000199491
-0.000113785
-0.000168614
-0.000103894
-0.000140931
-9.46563e-05
-0.000115749
-8.58122e-05
-9.27372e-05
-7.72955e-05
-7.17872e-05
-6.91996e-05
-5.28043e-05
-6.16689e-05
-3.56772e-05
-5.47749e-05
-2.03048e-05
-4.85309e-05
-6.63338e-06
-4.29381e-05
5.40215e-06
-3.80284e-05
1.59513e-05
-3.36928e-05
2.48587e-05
-2.98625e-05
3.14737e-05
-2.65716e-05
3.81478e-05
-2.31083e-05
4.24049e-05
-2.10816e-05
4.65398e-05
-1.82893e-05
5.08659e-05
-1.57885e-05
5.5369e-05
-1.29588e-05
6.00583e-05
-1.00671e-05
6.48215e-05
-7.14514e-06
6.94443e-05
-4.21161e-06
7.36624e-05
-1.26298e-06
7.72087e-05
1.72413e-06
7.9837e-05
4.77558e-06
8.13308e-05
7.89624e-06
8.15108e-05
1.10506e-05
8.02459e-05
1.41594e-05
7.7464e-05
1.71079e-05
7.31724e-05
1.9741e-05
6.74574e-05
2.18768e-05
6.03069e-05
2.35143e-05
5.16322e-05
2.48067e-05
4.18713e-05
2.54577e-05
3.16341e-05
2.55146e-05
2.11914e-05
2.5326e-05
1.0713e-05
2.48534e-05
3.69022e-07
2.41092e-05
-9.74853e-06
2.31408e-05
-1.96474e-05
2.20045e-05
-2.92814e-05
2.07668e-05
-3.85289e-05
1.94264e-05
-4.726e-05
1.79609e-05
-5.53419e-05
1.63271e-05
-6.26411e-05
1.44819e-05
-6.90361e-05
1.24173e-05
-7.44306e-05
1.01746e-05
-7.87629e-05
7.83818e-06
-8.20112e-05
5.51789e-06
-8.42124e-05
3.35423e-06
-8.55632e-05
1.5838e-06
-8.58847e-05
-3.93325e-07
-8.54083e-05
-1.91247e-06
-8.42839e-05
-3.07109e-06
-8.26524e-05
-3.93046e-06
-8.06813e-05
-4.47679e-06
-7.85411e-05
-4.70544e-06
-7.63872e-05
-4.62543e-06
-7.43724e-05
-4.24949e-06
-7.25821e-05
-3.69811e-06
-7.10795e-05
-3.01818e-06
-6.98942e-05
-2.27648e-06
-6.90274e-05
-1.53759e-06
-6.84594e-05
-8.53416e-07
-6.81538e-05
-2.63855e-07
-6.80639e-05
2.05037e-07
-6.81383e-05
5.41216e-07
-6.83263e-05
7.45535e-07
-6.85818e-05
8.29768e-07
-6.8867e-05
8.13502e-07
-6.91539e-05
7.20087e-07
-6.94249e-05
5.72348e-07
-6.96707e-05
3.86977e-07
-6.98899e-05
1.76624e-07
-7.00693e-05
-8.91213e-08
-7.0204e-05
-4.04702e-07
-7.03065e-05
-7.58864e-07
-7.03554e-05
-1.22082e-06
-7.03473e-05
-1.90697e-06
-7.01816e-05
-2.75444e-06
-6.99786e-05
-4.33095e-06
-4.97841e-06
-6.91525e-05
-1.9054e-05
4.33815e-05
-6.73827e-05
0.000133646
-9.32038e-05
0.000169185
-8.34334e-05
0.000146245
-5.21066e-05
9.745e-05
-2.00779e-05
5.08755e-05
-1.80547e-07
1.85438e-05
4.62087e-06
-2.33334e-07
-2.03328e-06
-1.1318e-05
-1.44096e-05
-2.04994e-05
-2.73595e-05
-3.13204e-05
-3.73537e-05
-4.52173e-05
-4.24601e-05
-6.22865e-05
-4.17792e-05
-8.20699e-05
-3.50413e-05
-0.00010398
-2.23693e-05
-0.000127447
-3.95782e-06
-0.000151855
2.02164e-05
-0.000176438
5.09736e-05
-0.000200159
8.72853e-05
-0.000223943
0.000128062
-0.00024146
0.00017081
-0.000254733
0.000213506
-0.000260961
0.000256424
-0.000258733
0.000303857
-0.000246312
0.000363381
-0.000219752
0.000441095
-0.000171747
0.000534413
-9.35573e-05
0.00062758
1.89544e-05
0.000696003
0.000158507
0.000718982
0.00030497
0.000691454
0.000432998
0.000628856
0.000530275
0.000516912
0.000537881
0.000652118
0.000222869
0.000858696
-0.000220106
0.00109893
-0.000666087
0.00128481
-0.000867117
0.00147479
-0.000858593
0.00165467
-0.000800808
0.00178532
-0.000718758
0.00181637
-0.000600141
0.00173293
-0.000444592
0.00155629
-0.000267159
0.00132264
-8.98138e-05
0.00106498
7.1452e-05
0.000811871
0.000206126
0.000585499
0.000309471
0.00039915
0.00038047
0.000257595
0.000422814
0.000158258
0.000442502
9.35974e-05
0.000446207
5.37523e-05
0.000439977
2.88083e-05
0.000428451
1.03513e-05
0.000414661
-7.75514e-06
0.000400253
-2.92659e-05
0.000385835
-5.59543e-05
0.00037135
-8.80921e-05
0.000356471
-0.000124937
0.000340797
-0.000165216
0.000323897
-0.000207526
0.000305398
-0.000250437
0.000285344
-0.00029242
0.000263825
-0.000331912
0.000240742
-0.000369092
0.000217798
-0.000394656
0.00018625
-0.000431428
0.000164125
-0.000453144
0.000140351
-0.000470339
0.000116865
-0.000483288
9.43506e-05
-0.000492555
7.29347e-05
-0.000498164
5.34018e-05
-0.000500344
3.65311e-05
-0.000499701
2.2834e-05
-0.000496947
1.26275e-05
-0.000492943
6.17013e-06
-0.000488757
3.67535e-06
-0.000485568
5.03764e-06
-0.000484528
9.72088e-06
-0.000486599
1.67042e-05
-0.00049225
2.43326e-05
-0.000501241
3.0333e-05
-0.000512673
3.21046e-05
-0.000524432
2.70673e-05
-0.000533536
1.3091e-05
-0.000537028
-9.75107e-06
-0.000532838
-3.91649e-05
-0.000520221
-7.16322e-05
-0.000498959
-0.000104551
-0.000470377
-0.000133364
-0.000435082
-0.000156358
-0.00039924
-0.000167914
-0.000358861
-0.000175039
-0.000317812
-0.000175434
-0.000278742
-0.000171538
-0.000242909
-0.000164745
-0.000210105
-0.000155999
-0.000179376
-0.000144513