/*--------------------------------*- C++ -*----------------------------------*\
| =========                 |                                                 |
| \\      /  F ield         | OpenFOAM: The Open Source CFD Toolbox           |
|  \\    /   O peration     | Version:  2112                                  |
|   \\  /    A nd           | Website:  www.openfoam.com                      |
|    \\/     M anipulation  |                                                 |
\*---------------------------------------------------------------------------*/
FoamFile
{
    version     2.0;
    format      ascii;
    arch        "LSB;label=32;scalar=64";
    class       volScalarField;
    location    "0.1";
    object      nut;
}
// * * * * * * * * * * * * * * * * * * * * * * * * * * * * * * * * * * * * * //

dimensions      [0 2 -1 0 0 0 0];

internalField   nonuniform List<scalar> 
122250
(
0.000546449
0.000130186
0
0
0
0
0
3.15482e-05
1.41862e-05
0
8.93947e-06
8.66067e-06
0
0
0
0
0
1.7751e-05
0.00121898
0.000331613
0
0
0
0
0
5.34621e-06
9.85621e-07
0
0
0
0
0
0
0
0
3.07448e-05
0.00227214
0
0
0
0
0
0
0
6.19831e-05
0
0
0
0
0
0
0
0
3.09138e-05
0.00308069
0
0
0
0
0
0.000194398
8.43816e-05
0.000122263
4.42129e-05
0
0
0
0
1.09272e-05
2.4973e-05
8.33275e-06
0
0.00372602
0
0
0
0
0
0.000304652
0.0001415
8.46789e-05
3.52049e-05
0
0
1.34854e-06
1.0914e-05
5.32629e-05
5.28359e-05
1.60689e-05
0
0.00467056
0
0
0
0
0
0.000336408
0.000185199
9.95653e-05
3.68131e-05
0
2.53734e-05
1.35299e-05
0
2.40061e-05
2.27859e-05
1.27134e-05
9.77848e-06
0.00591207
0
0
0
0
0
0.000368492
0.000226066
0.000123623
5.381e-05
1.73671e-05
1.46616e-05
3.48296e-06
0
6.70069e-06
8.77357e-06
2.07979e-05
1.70102e-05
0.00715187
0
0
0
0
4.68393e-05
0.000423596
0.000259686
0.000143027
7.16559e-05
3.82761e-05
1.66166e-05
8.89506e-06
1.21987e-05
1.60155e-05
0
1.0462e-05
4.97465e-06
0.00802809
0
0
0
0
0.000362053
0.000490442
0.000284709
0.000154013
8.37962e-05
4.96727e-05
2.07876e-05
1.38977e-05
1.48979e-05
8.64696e-06
0
0
0
0.00851312
0
0
0
0.000111385
0.000709834
0.000536208
0.000288726
0.000152314
8.4523e-05
4.81521e-05
2.07803e-05
1.66806e-05
7.64126e-06
0
0
0
0
0.00901305
0
0
0.000157572
0.000961831
0.000840369
0.000520682
0.000257754
0.000127223
6.63973e-05
3.74708e-05
2.15186e-05
2.59808e-05
4.06072e-06
0
0
0
0
0.00969471
0
0
0.00161774
0.00109592
0.000765187
0.000411962
0.000186027
7.61929e-05
2.95306e-05
2.32264e-05
2.90464e-05
4.03412e-05
2.5895e-05
0
0
0
0
0.0115752
0
0
0.0015617
0.00101919
0.000592626
0.000289544
0.000127327
5.5435e-05
1.13765e-05
2.60322e-05
3.1659e-05
2.93905e-05
1.4186e-05
9.70243e-07
0
0
0
0.0134728
0
0.000535146
0.00161003
0.000816487
0.00039262
0.000199757
8.19162e-05
6.72327e-05
1.41907e-05
1.57744e-05
2.03792e-05
2.58026e-05
3.94791e-06
0
2.37699e-06
0
0
0.0145014
0
0.00179572
0.00211799
0.000742265
0.000359236
0.000203913
9.78894e-05
0.000123386
4.15449e-05
0
2.29036e-05
4.73902e-05
3.25725e-05
1.73708e-05
2.54622e-05
5.52682e-05
7.3313e-05
0.0144867
0
0.00139842
0.00295319
0.00104993
0.000603629
0.000283262
0.000109226
4.21711e-05
4.09317e-05
8.76546e-05
8.78851e-05
7.08589e-05
8.75023e-05
8.09084e-05
8.49873e-05
0.000102348
0.000106677
0.0146019
0
0.00114788
0.00218457
0.00187995
0.000516433
0.000299656
0
5.0221e-05
0.000133696
0.000182325
0.000145776
7.37644e-05
5.91008e-05
0.000104457
0.000127226
0.000122618
9.27768e-05
0.0156393
0
0.00303697
0.00300528
0.00051708
0
3.10293e-05
0
0.000156693
0.000406091
0.000164805
7.30522e-05
0.000127717
0.000195882
0.000140802
4.07728e-05
0
0
0.0152086
0
0
0.00313038
0.000899174
0.000419481
0.000261884
0
0.000355146
0.00036577
0.000136004
6.70589e-05
0.000131702
0.000230667
0.000224452
0.000153953
8.78289e-05
7.44378e-05
0.0151146
0
0
0.00216745
0.00100482
0.000419926
0.000333861
9.62449e-05
0.000226645
0.000119753
3.26703e-05
6.58967e-05
9.23655e-05
0.000107021
0.000144781
0.000122175
7.58323e-05
5.90411e-05
0.015242
0
0.00102852
0.00295315
0.000894436
0.00037989
0.000251016
8.29149e-05
0.00014415
8.01662e-05
0
5.30594e-05
7.17857e-05
5.73878e-05
5.68896e-05
2.8873e-05
6.23987e-06
3.16187e-05
0.0141947
0
0.00106201
0.00371149
0.0009616
0.000230054
0.000161314
8.48006e-05
9.51568e-05
1.65381e-05
0
3.68547e-06
8.39789e-05
7.10289e-05
3.42874e-05
2.04337e-05
6.2287e-05
0.000101403
0.0133685
0
0.00101497
0.00337862
0.000660696
4.11913e-05
9.90084e-05
0.000128063
0.000106185
7.31669e-05
5.0333e-05
9.5995e-05
0.000113695
8.17057e-05
7.00116e-05
5.99554e-05
4.14584e-05
5.63251e-05
0.0125118
0
0.00162003
0.00263764
0.000390321
0.000101232
8.96936e-05
8.74796e-05
0.000105093
6.56047e-05
6.3067e-05
0.000109947
8.28001e-05
8.78227e-05
0.000100578
0.000106806
0.000120797
0.000138284
0.0106288
0
0.00165839
0.0013061
0.000255945
0.000194748
0.000115073
2.73563e-05
4.28358e-05
3.19237e-05
8.35338e-05
9.98218e-05
0.00011251
0.000131489
0.000143491
0.000134082
0.000136265
0.00014314
0.0076978
0
0
0
0.000133948
0
0.000133414
0
0
0
2.64938e-05
6.59479e-05
7.94857e-05
6.33058e-05
5.80156e-05
5.45038e-05
7.12012e-05
9.11762e-05
0.00520349
0
0
0
0
0
0
0
2.3391e-06
0
0
2.87543e-05
2.35787e-06
0
7.55438e-05
0.00010228
9.4888e-05
8.10847e-05
0.00321388
0
0
0
0
0
0
0
9.19777e-05
0
0
3.5436e-05
8.17149e-05
0
1.85486e-05
3.8314e-05
2.26663e-05
1.93835e-05
0.00126165
0.000624421
3.12084e-05
0
0
0
0
0
5.50877e-06
0
1.37592e-06
2.90689e-05
4.99731e-05
0
0
0
0
0
0.000423225
0.000212047
3.02919e-05
0
0
0
0
1.90926e-05
1.54815e-05
0
8.28362e-06
2.27493e-05
1.25904e-05
0
0
0
0
5.01171e-06
0.000346117
0.000138929
9.16928e-06
0
0
0
0
6.44193e-05
2.94993e-05
0
0
0
0
0
0
0
1.10593e-05
4.55937e-05
0.00093167
0.000361167
6.47207e-07
0
0
0
0
2.48532e-05
8.528e-06
0
0
0
0
0
0
0
6.18253e-05
9.41537e-05
0.00228074
0
0
0
0
0
0
0
1.39759e-05
0
0
0
0
0
0
0.000174585
0.000245235
0.000110763
0.0030857
0
0
0
0
0
8.13318e-05
1.47595e-05
3.66082e-05
2.59909e-05
0
0
0
0
2.66663e-05
0.000210023
0.00015267
2.93672e-05
0.00381962
0
0
0
0
0
0.000163513
6.49085e-05
4.78433e-05
1.95707e-05
0
0
0
1.23623e-05
4.28187e-05
0.000103388
3.79255e-05
0
0.00490493
0
0
0
0
0
0.00020062
9.8103e-05
7.01903e-05
3.59757e-05
0
1.12178e-05
7.70184e-06
3.80464e-05
4.21334e-05
2.32345e-05
0
0
0.00625414
0
0
0
0
0
0.000229648
0.000134893
9.07628e-05
5.52847e-05
3.54184e-05
2.56815e-05
1.0362e-05
1.3253e-05
1.77892e-05
2.15285e-06
0
2.7219e-06
0.00747322
0
0
0
0
4.04709e-05
0.000276953
0.000168418
0.000106637
7.17973e-05
5.6302e-05
3.63248e-05
2.94661e-05
2.94491e-05
1.40474e-05
4.07696e-06
5.60294e-07
0
0.00824107
0
0
0
0
0.000294058
0.000342388
0.000192863
0.00011248
7.65894e-05
6.50002e-05
4.57429e-05
4.34416e-05
3.71392e-05
1.35091e-05
2.07289e-05
8.06108e-06
0
0.00870808
0
0
0
0.000262989
0.000522467
0.000370248
0.00019256
0.000107104
7.02419e-05
6.06336e-05
4.71673e-05
4.69129e-05
2.76568e-05
0
1.4877e-05
1.27487e-05
0
0.00927667
0
0
0.000850873
0.000712784
0.000591018
0.000343503
0.000168802
9.0536e-05
5.28346e-05
4.63594e-05
4.51254e-05
4.76538e-05
3.45766e-06
0
0
9.63158e-06
1.03848e-05
0.00999195
0
0
0.00120201
0.000785929
0.000503075
0.000256518
0.000124628
6.92236e-05
3.35637e-05
3.43589e-05
4.16464e-05
4.60396e-05
0
0
0
1.4052e-05
1.91365e-05
0.011751
0
0
0.00133777
0.000739929
0.000379022
0.000181543
9.26254e-05
6.83917e-05
2.82347e-05
3.43716e-05
3.95812e-05
3.79544e-05
0
0
1.32207e-06
5.28359e-08
0
0.0133752
0
0.000801213
0.00165683
0.000661571
0.000281538
0.000136945
7.52973e-05
8.45756e-05
3.47969e-05
2.33675e-05
2.87282e-05
4.71457e-05
2.2709e-05
1.11343e-05
0
0
0
0.0143715
0
0.0020626
0.00246694
0.000752569
0.000367382
0.000174657
0.000103914
0.000121312
0
0
0
0
4.5233e-06
2.16288e-05
0
0
0
0.0149369
0
0.0029208
0.00365122
0.00133085
0.000735931
0.000259568
0.000145125
1.45237e-05
0
0
0
0
0
4.33347e-05
6.8621e-05
7.50969e-05
9.09878e-05
0.0153804
0
0.00330848
0.00447237
0.00183244
0.000555922
0.000189497
0.000104187
0
0.000110875
0.000175077
0.000149874
8.91621e-05
0.000190289
0.000230381
0.000145996
9.28364e-05
9.65986e-05
0.0156913
0
0.00337456
0.00401732
0.00115986
0.000588526
0.000376088
0.000109392
7.19067e-05
0.000163671
0.000121311
0.000136616
0.000173708
0.000216106
0.000205141
0.000135006
7.61108e-05
3.31527e-05
0.0155846
0
0
0.00354198
0.00112748
0.000638768
0.000396025
1.78414e-05
8.06713e-05
0.000162319
3.92984e-05
1.95946e-05
0.00020213
0.000276011
0.000204056
0.000166346
0.000142926
0.000108906
0.0147754
0
0
0.00271319
0.00110525
0.000476137
0.000309688
0.000151335
0.000226945
0.000114428
4.96118e-05
3.24982e-05
6.05889e-05
8.05478e-05
9.06735e-05
6.9596e-05
5.60717e-05
6.20259e-05
0.0150691
0
0.000107282
0.00421803
0.00100803
0.000233635
0.000197862
6.73825e-05
0.000122304
0.000148318
0.000138469
2.94197e-05
5.87337e-05
4.88177e-05
4.48488e-05
4.50957e-05
6.4916e-05
8.90049e-05
0.014177
0
0.000387822
0.0047652
0.00107782
0.000157294
0.000104588
7.04124e-05
8.48108e-05
0.000113101
9.89804e-05
4.07648e-05
5.80762e-05
5.31497e-05
5.75012e-05
5.77396e-05
7.90768e-05
0.000116927
0.0134192
0
0.000614965
0.00371887
0.000583297
2.56729e-05
0.000119204
0.000121418
8.51508e-05
6.1705e-05
7.52867e-05
0.00012012
0.000117163
0.00010903
9.3704e-05
7.0198e-05
3.68265e-05
4.77172e-05
0.0126184
0
0.00129613
0.00274894
0.000332696
9.7272e-05
0.000160739
0.000132284
9.58169e-05
2.03145e-05
0
5.91954e-05
7.75517e-05
9.69743e-05
9.9532e-05
9.15695e-05
8.86034e-05
9.58312e-05
0.0108054
0
0.00129436
0.0010585
0.000262181
0.000182617
0.000193954
8.87068e-05
2.22978e-05
0
0
6.80708e-05
0.000128052
0.000160429
0.000158765
0.000133596
0.000115455
0.00011286
0.00782063
0
0
0
0.000156103
0
0.00018692
6.05626e-05
6.64429e-05
3.42998e-05
8.8137e-06
2.58952e-05
8.44018e-05
0.000133591
0.000149387
0.00012242
7.32726e-05
4.05597e-05
0.00511326
0
0
0
0
0
0
8.60656e-05
5.44811e-05
1.14588e-05
0
0
0
7.87477e-05
0.00013096
7.65726e-05
0
0
0.0031068
0
0
0
0
0
0
0.000132715
0.000126691
0
0
0
0
2.11426e-05
4.28386e-05
0
0
0
0.00122323
0.000533122
7.96049e-06
0
0
0
0
0
1.98251e-05
0
0
0
0
0
0
0
0
0
0.000423011
0.00018364
2.65048e-05
0
7.19381e-05
0
0
1.35056e-05
8.59789e-06
0
0
0
0
0
0
0
0
0
0.000295915
0.000212912
5.46273e-05
0
0
0
0
7.98241e-05
1.0549e-05
0
0
9.88035e-06
0
0
7.81234e-06
1.82509e-05
2.03604e-05
3.22518e-05
0.000858755
0.000436269
6.38312e-05
0
0
0
0
0
0
0
0
0
0
0
6.98738e-06
5.27045e-05
6.25068e-05
3.73881e-05
0.00243147
0
0
0
0
0
0
0
0
0
0
0
0
0
1.90603e-05
0.000167109
0.000127932
2.86426e-05
0.00336749
0
0
0
5.23444e-06
0
2.19573e-05
0
0
0
8.42988e-06
0
0
2.45696e-05
4.94973e-05
0.000128013
3.92267e-05
0
0.00442929
0
0
0
6.67107e-05
0
8.43822e-05
0
3.61003e-05
2.88287e-05
1.25066e-05
2.74897e-06
2.36344e-05
9.02609e-05
7.52216e-05
0
0
0
0.00585183
0
0
0
5.40567e-05
0
9.73726e-05
2.86387e-05
4.90038e-05
3.42257e-05
0
1.03143e-05
2.3232e-05
9.15084e-05
5.68267e-05
0
0
1.28623e-05
0.00741465
0
0
4.95447e-05
2.56001e-05
0
8.68212e-05
3.61284e-05
4.46808e-05
4.75935e-05
1.48331e-05
2.87467e-05
2.71624e-05
4.4727e-05
4.07698e-05
1.42955e-05
4.83316e-06
1.29328e-05
0.00858727
0
0
0.000454844
6.39328e-07
5.34653e-06
8.70917e-05
5.15605e-05
4.43559e-05
5.69104e-05
5.01153e-05
5.08036e-05
4.58869e-05
2.70997e-05
1.38904e-05
1.0925e-05
2.44189e-06
0
0.00924235
0
4.86339e-05
0.000878478
8.73424e-05
0.000108176
0.000119612
7.3797e-05
4.60181e-05
5.21746e-05
6.74885e-05
6.48981e-05
5.97661e-05
2.5372e-05
1.07144e-06
1.89368e-05
1.8598e-05
0
0.00973417
0
0
0.00123982
0.000283013
0.000228113
0.000155793
8.95469e-05
4.97969e-05
4.06922e-05
6.17314e-05
6.57231e-05
6.32332e-05
3.24132e-05
3.01498e-06
3.30282e-05
2.85496e-05
8.21718e-06
0.0104224
0
0
0.00147114
0.00047717
0.000299826
0.000165912
9.24873e-05
5.28279e-05
3.24835e-05
5.16555e-05
6.28296e-05
6.42611e-05
3.94581e-05
1.08905e-05
4.71748e-05
4.53814e-05
2.66616e-05
0.0110614
0
0.00040608
0.00150145
0.00053738
0.000273205
0.000135991
8.09878e-05
5.41131e-05
2.60323e-05
3.91673e-05
5.285e-05
5.61111e-05
2.1103e-05
3.70226e-06
3.81454e-05
4.93349e-05
4.76132e-05
0.0124044
0
0.000758087
0.00182715
0.000573258
0.000235173
0.000111681
7.81962e-05
5.91947e-05
3.32285e-05
3.51787e-05
4.11705e-05
4.50599e-05
1.88554e-05
3.08472e-05
4.89066e-05
4.84462e-05
4.4753e-05
0.0134697
0
0.00159506
0.00263299
0.000696537
0.00027511
0.000133602
8.39897e-05
7.13764e-05
4.26897e-05
2.01863e-05
2.72511e-05
4.4865e-05
2.48198e-05
3.4701e-05
3.58748e-05
1.95482e-05
0
0.0142054
0
0.00261126
0.00366224
0.00110137
0.000577625
0.000212336
4.43177e-05
2.1412e-05
0
0
0
1.58647e-05
0
0
0
0
0
0.0147728
0
0.00289704
0.00443864
0.00172871
0.000589373
0.0002445
5.72335e-05
0
0
0
0
0
0
0
0
0
3.79358e-05
0.0152575
0
0.00285285
0.00509523
0.00207599
0.000574688
0.000141897
0
0
0
7.82444e-05
8.0473e-05
5.16629e-05
7.21765e-05
0.000122245
0.000134703
0.000104088
7.41382e-05
0.0154896
0
0.00295093
0.00440931
0.00148713
0.000561848
0.000378967
0.000150973
1.45765e-05
0.000120131
0.000172848
0.00016032
9.87284e-05
0.000103104
0.000145659
0.000138567
0.000118908
7.17369e-05
0.0156011
0
0
0.00292354
0.00117291
0.00057696
0.000137479
0
0
7.29083e-05
5.19492e-05
5.24108e-06
7.88092e-05
0.000129441
8.93475e-05
8.05376e-05
8.87331e-05
7.31323e-05
0.0143711
0
0
0.00120797
0.00082831
0.000489144
0.000413044
8.22763e-05
6.61243e-05
9.50184e-05
6.68535e-05
1.69847e-05
1.17956e-05
4.28667e-05
8.0142e-05
8.25942e-05
7.03495e-05
6.39896e-05
0.0149277
0
0.000655519
0.00304309
0.000709018
0.000228144
0.000175015
0
7.69771e-05
0.000141818
0.000102791
2.06132e-05
0
0
4.43251e-05
9.4075e-05
9.61237e-05
9.98276e-05
0.0141855
0
0.000428423
0.00416418
0.000785954
7.62437e-05
4.83805e-05
5.63531e-05
7.0243e-05
0.0001215
0.000104646
2.58202e-05
4.96407e-05
8.31382e-05
0.000107409
0.00010693
6.88023e-05
7.73971e-05
0.0133922
0
0.000634019
0.00346937
0.00048993
8.02193e-05
0.000104047
0.000115087
8.13419e-05
5.84549e-05
7.94568e-05
9.93061e-05
0.000136549
0.000140615
9.4487e-05
6.97027e-05
0
0
0.0125688
0
0.00114031
0.00268195
0.000308498
0.000118813
0.000147713
0.000128187
0.000114697
5.2801e-05
1.88125e-05
0
4.92668e-05
6.73152e-05
4.09112e-05
2.59993e-05
1.72557e-05
2.52474e-05
0.0110628
0
0.00113616
0.00125327
0.000241494
0.000179503
0.000184262
9.93677e-05
0.000100609
0
4.37247e-07
0
3.45686e-05
5.56732e-05
3.26022e-05
4.89325e-06
0
0
0.00846791
0
0
0
0.000230757
0.000105043
0.000225396
7.27318e-05
5.60441e-05
4.15377e-05
4.61911e-05
8.09753e-05
0.000137263
0.000113995
6.75176e-05
7.11017e-06
0
0
0.00556814
0
0
0
0
0
0
4.83947e-05
3.86615e-05
3.84903e-05
6.33469e-07
1.12337e-06
7.24892e-05
9.19579e-05
5.43338e-05
0
0
0
0.0032568
0
0
0
0
0
0
0
5.897e-05
3.70626e-05
9.83855e-06
0
2.51019e-05
0.00014561
0.000107896
4.42639e-05
0
0
0.00107227
0.000603481
9.07988e-05
0
0
0
0
0
0
0
1.84527e-05
0
0
0
2.32232e-05
0
0
0
0.000470015
0.000257712
7.63726e-05
0
5.02598e-06
0
0
0
0
0
8.27184e-06
0
0
0
9.95578e-06
0
0
0
0.000272136
0.00015604
4.68143e-05
0
0
0
0
3.31382e-05
0
0
0
0
1.1531e-06
1.30574e-05
2.23405e-05
6.71184e-06
0
0
0.000741057
0.000321533
4.87907e-05
0
0
0
0
0
0
0
0
0
0
6.09272e-06
2.76766e-05
3.78718e-05
0
0
0.00211477
0
0
0
0
0
0
0
0
0
0
0
0
0
3.11058e-05
5.12714e-05
6.41953e-06
0
0.00299261
0
0
0
0
0
0
0
0
0
5.90869e-05
2.99698e-05
0
9.84556e-06
4.3366e-05
4.53828e-05
2.84649e-05
1.88125e-05
0.00406099
0
0
0
0
0
2.67146e-05
0
0
3.86814e-05
6.37527e-05
4.08258e-05
7.6578e-06
0
4.40383e-05
6.91765e-06
0
5.40764e-05
0.00573369
0
0
0
2.5004e-05
0
2.76312e-05
0
0
1.96069e-05
4.05503e-05
4.53206e-05
2.51061e-05
1.50104e-05
3.57578e-05
9.69684e-06
2.75511e-05
5.92165e-05
0.00784721
0
5.3506e-05
0.000221771
9.7357e-05
0
2.24834e-05
0
0
1.53833e-05
1.26418e-05
2.74096e-05
1.74975e-05
2.15927e-05
5.65813e-05
4.75462e-05
4.2981e-05
5.22138e-05
0.00951282
0
0.000970317
0.000994524
0.000156867
1.8706e-05
2.50882e-05
0
1.988e-05
4.45831e-05
1.16995e-05
2.11718e-05
1.43575e-05
3.99803e-06
1.37044e-05
1.52638e-05
1.05217e-05
1.85671e-05
0.0103279
0
0.00132043
0.00150747
0.000248747
7.12315e-05
4.54251e-05
2.18555e-05
4.64245e-05
5.25864e-05
3.73539e-05
3.63176e-05
2.28583e-05
0
0
1.82502e-06
1.53139e-05
7.99279e-06
0.0108047
0
0.00130022
0.00178872
0.000360141
0.000126816
5.59662e-05
3.34068e-05
4.22001e-05
3.2133e-05
3.62426e-05
4.53145e-05
3.17561e-05
0
0
2.72886e-07
1.11296e-05
0
0.0114175
0
0.00123034
0.00200513
0.000461946
0.000162237
5.39588e-05
3.08802e-05
2.90558e-05
1.40866e-05
2.92148e-05
4.69505e-05
4.03496e-05
1.23452e-05
0
1.49375e-05
2.04005e-05
4.64841e-06
0.0117778
0
0.00148393
0.00204555
0.00050901
0.000156479
3.56989e-05
2.70284e-05
3.64546e-05
2.88125e-05
2.22922e-05
3.38427e-05
3.07493e-05
1.7642e-05
9.76072e-06
4.39892e-05
5.15789e-05
3.09437e-05
0.0127458
0
0.00176279
0.00258205
0.00065488
0.000198183
4.80101e-05
6.43022e-05
8.59864e-05
7.30208e-05
4.48743e-05
2.55658e-05
1.81493e-05
1.05327e-05
2.27593e-05
7.15403e-05
9.21444e-05
7.38454e-05
0.0134975
0
0.00247077
0.00347287
0.00100556
0.000296971
5.53542e-05
1.56202e-05
6.4936e-05
6.99039e-05
6.49296e-05
4.9701e-05
3.92086e-05
1.78736e-05
1.0042e-05
7.75583e-06
4.43888e-06
1.25241e-05
0.0140297
0
0.00281453
0.00324585
0.0015251
0.000252717
9.06492e-05
2.71574e-05
4.67911e-05
2.14761e-05
5.46011e-05
7.98721e-05
6.82833e-05
4.23056e-05
3.63967e-05
1.78089e-05
0
0
0.0148376
0
0.0029882
0.0048226
0.00207435
0
6.63494e-05
9.06578e-07
1.57218e-05
3.83911e-05
0.000110638
0.000104087
9.06438e-05
5.73933e-05
2.48597e-05
0
0
0
0.0153634
0
0.00304209
0.00514511
0.00171213
0.000586987
0
0
0
3.04121e-06
7.70294e-05
7.51462e-05
6.57875e-05
5.00564e-05
6.44857e-05
7.09447e-05
6.05299e-05
4.74146e-05
0.0153253
0
0.00332467
0.00364756
0.00135539
0.000597866
5.88649e-05
2.79759e-06
0
2.78653e-05
9.19286e-05
0.000108085
8.01599e-05
7.81005e-05
0.000102298
8.83018e-05
7.69778e-05
6.54084e-05
0.0148315
0
0
0.000566197
0.000990263
0
0
0
0
0
2.4833e-05
4.55434e-05
7.84179e-05
7.05362e-05
3.34162e-05
3.00476e-05
3.69717e-05
1.9465e-05
0.0132232
0
0
0
0.000612118
0.00063663
0.000188741
0
0
0
2.66537e-05
3.02905e-05
4.1439e-05
4.72368e-05
4.35208e-05
6.42494e-05
7.75035e-05
6.47134e-05
0.0145914
0
0.00189933
0.00226974
0.000833237
0.000402394
0.000277116
0
0
5.51697e-05
5.23102e-05
3.75338e-05
9.65779e-06
0
0
2.16068e-05
5.87545e-05
7.96842e-05
0.0141164
0
0.000923269
0.00269519
0.000597715
0.000174278
0.000140581
3.40337e-05
4.67006e-05
9.60893e-05
7.99175e-05
5.7091e-05
6.87208e-05
9.18846e-05
0.000105821
0.0001072
7.3219e-05
4.40035e-05
0.0131892
0
0.000520456
0.00241025
0.000564074
0.000265763
0.000170385
0.000128243
9.35941e-05
0.000115016
0.0001101
0.000102624
0.000131881
0.000105452
7.0962e-05
7.3995e-05
2.1522e-06
0
0.0122217
0
0.00055406
0.00186698
0.000349134
0.000264178
0.000221203
0.000155926
0.000126058
0.000141599
8.75557e-05
5.11481e-05
6.28498e-05
4.64194e-05
4.29683e-05
3.3459e-05
1.42236e-06
0
0.0109301
0
0.000271037
0.000719776
0.000107976
0.00017548
0.000233479
0.000140089
0.000150277
8.10314e-05
7.26541e-05
7.95247e-05
6.79135e-05
3.72092e-05
1.61812e-05
0
0
3.70542e-05
0.00890465
0
0
0
0.000100506
0.000136844
0.00021709
0.000105716
0.000128199
9.33883e-07
6.45989e-05
0.000114416
8.92808e-05
5.31599e-05
2.10278e-05
0
0
0
0.00627433
0
0
0
0.000116243
0
0.000164221
3.4403e-05
0
0
1.30965e-05
4.35037e-05
3.07908e-05
5.59987e-05
3.98752e-05
2.6139e-05
2.24848e-05
0
0.00361662
0
0
0
0
0
0
0
0
1.47255e-05
2.79851e-05
7.05844e-05
0.000132198
0.000117531
3.79788e-05
6.20655e-05
0.000119653
9.41223e-05
0.00111847
0.0005742
7.48559e-05
0
0
0
0
0
0
0
2.34527e-05
4.41236e-05
2.25662e-05
7.14222e-06
0
0
8.57576e-06
1.41456e-05
0.000524379
0.000317307
6.08385e-05
0
0
0
0
0
0
0
7.88893e-06
2.17021e-05
1.29948e-05
1.04835e-05
0
0
2.04665e-06
6.63729e-06
0.000322064
0.000137513
4.6763e-05
0
0
0
0
0
0
0
0
0
0
0
0
0
0
1.72162e-05
0.000868267
0.000300533
5.34757e-05
0
0
0
0
0
0
0
0
0
0
0
0
0
0
0
0.00202451
0
0
0
0
0
0
0
0
0
1.96227e-05
0
0
0
0
4.86106e-07
0
0
0.00283207
0
0
0
0
0
0
0
0
3.98025e-05
0.000140797
4.03003e-05
0
0
0
1.54886e-05
4.76712e-05
6.91845e-05
0.00386473
0
0
0
0
0
0
0
0
6.24253e-05
0.000136276
6.94357e-05
0
0
0
0
3.42684e-05
0.000112232
0.00554779
0
0
0
0
0
0
0
1.66103e-05
3.55178e-05
0.000105097
8.42917e-05
3.91596e-05
0
0
0
6.11055e-05
0.000119041
0.00783281
0
0.000520216
0.000242867
1.66888e-05
0
8.73528e-06
0
0
0
5.08958e-05
5.56552e-05
4.78458e-05
3.6396e-05
2.82636e-05
3.28934e-05
8.7306e-05
0.000117055
0.0097461
0
0.00169423
0.00114498
0.000132453
0
2.46698e-05
2.88615e-07
3.55262e-05
0
2.4357e-05
4.08005e-05
3.40852e-05
2.20608e-05
4.85047e-05
5.733e-05
5.65377e-05
8.0118e-05
0.0107046
0
0.00214768
0.00170571
0.00024625
0
3.80661e-05
3.26169e-05
7.68087e-05
6.53837e-05
2.40128e-05
2.03971e-05
1.36589e-05
0
0
4.10073e-05
1.55651e-05
0
0.0112004
0
0.00224891
0.00199822
0.000350069
0
2.03125e-05
2.41526e-05
6.65655e-05
5.72955e-05
2.42278e-05
3.34191e-06
1.46173e-05
0
0
3.3848e-05
2.83728e-05
0
0.0117553
0
0.00235536
0.00220349
0.000453417
0
0
0
4.15221e-05
4.6027e-05
3.75589e-05
2.70987e-05
3.11151e-05
2.31168e-05
1.10794e-05
3.59106e-05
3.45132e-05
1.26754e-05
0.0119461
0
0.00265846
0.0019538
0.00050186
9.96702e-06
0
0
7.4581e-05
7.04529e-05
3.98963e-05
3.08588e-05
2.7526e-05
3.24155e-05
1.8996e-05
4.41595e-05
4.56155e-05
2.81125e-05
0.0127469
0
0.0030215
0.00171789
0.000591625
6.59036e-05
0
0
0.00012126
0.000150142
9.15539e-05
4.80661e-05
2.90559e-05
1.17886e-05
0
0
0
2.36333e-06
0.0131294
0
0.0029989
0.000836174
0.000788942
0
0
0
8.06775e-05
0.000101955
8.97825e-05
9.00375e-05
5.86726e-05
2.60539e-05
8.7412e-06
0
0
0
0.0129558
0
0.0020935
0
0.000151762
0
0
1.13323e-05
0.000159119
9.24573e-05
4.18394e-05
0.000109574
0.000119476
8.5462e-05
8.13454e-05
7.08593e-05
5.24211e-05
3.38639e-05
0.0146023
0
0.00272185
0.00159867
0.00144863
0
0
0
3.32899e-05
4.0024e-05
0.000126355
0.000153372
0.00014442
0.00010929
7.80763e-05
3.68322e-05
1.05993e-06
0
0.0156392
0
0.00400206
0.00439016
0.00168357
0
0
0
0
3.20083e-05
0.000115107
9.5345e-05
8.71714e-05
6.62273e-05
3.14344e-05
0
1.20681e-06
6.98945e-05
0.0146956
0
0.0034993
0.000201164
0.000601056
0.000113894
0
0
3.12276e-05
2.39787e-05
4.00894e-05
0
0
3.89574e-05
0.000118289
0.000108586
7.68867e-05
6.74501e-05
0.0122548
0
0
0
0
0
0
0
4.23862e-05
1.00426e-06
6.85214e-05
9.94203e-05
0.000124419
0.000105877
4.32611e-05
5.73695e-05
8.18122e-05
7.8963e-05
0.0108924
0
0
0
0
0
0
0
0
0
0
6.87371e-05
0.000125095
9.88629e-05
3.55549e-05
2.1607e-05
7.65703e-05
7.60588e-05
0.0137585
0
0.00107501
0.000366592
0.00143887
0.00058397
0.000194249
0
0
2.39858e-05
7.70486e-05
8.651e-05
7.2096e-05
0
0
0
2.53754e-05
7.62936e-05
0.0138607
0
0.00037719
0.00208147
0.000856186
0.000384811
0.000332469
0.000120064
9.95695e-05
0.000113088
0.000108235
9.17298e-05
7.77862e-05
5.84631e-05
6.53392e-05
6.74722e-05
8.27191e-05
6.18111e-05
0.0126915
0
0
0.00185471
0.000905779
0.000543383
0.000319788
0.000174029
0.000117652
0.000140442
0.000142944
0.000114224
5.01158e-05
0
0.000104481
0.000112226
1.41356e-05
0
0.0114531
0
0
0.00110103
0.000602981
0.000601397
0.000408387
0.000233498
0.000145554
0.000147166
0.000136237
0.000107549
8.14769e-05
8.22448e-06
6.04496e-05
6.2323e-05
0
0
0.010114
0
0
0
0
0.000376933
0.000391074
0.000215267
0.000144245
0.000100672
9.94789e-05
0.000123255
0.000121693
5.64776e-05
1.76885e-05
0
0
0
0.00836296
0
0
0
0
0.000132136
0.000322152
0.000160656
0.000129736
4.4191e-05
6.61572e-05
0.00011847
0.000119488
7.75934e-05
3.3762e-05
0
0
0
0.00638644
0
0
0
0
1.09387e-05
0.000222283
9.54294e-05
0.000128727
0
0
4.05076e-05
7.24654e-05
3.7812e-05
4.35338e-05
6.25062e-05
9.06311e-05
0.000112193
0.00409025
0
0
0
0
0
4.48189e-05
0
0
0
0
5.93859e-06
5.2651e-05
3.26151e-05
3.8556e-05
0.000134062
0.000234044
0.000226452
0.00144626
0.000455449
0
0
0
0
0
0
0
0
0
0
1.94829e-05
1.46274e-05
0
0
3.54471e-05
5.12012e-05
0.000529968
0.000324002
1.56678e-05
0
0
0
0
0
0
0
0
0
2.31049e-05
3.05173e-05
0
0
0
5.99146e-07
0.000250278
9.52767e-05
2.01135e-05
0
0
0
0
0
1.62867e-06
4.03841e-06
0
0
0
0
0
0
0
2.59615e-06
0.000658142
0.000247188
2.21486e-05
0
0
0
0
0
0
0
0
0
0
0
0
0
1.15128e-06
1.13657e-05
0.00191932
0
0
0
0
0
0
0
0
0
0
0
0
0
0
2.68787e-05
8.49821e-05
7.7443e-05
0.00277009
0
0
0
0
0
0
0
0
0
4.51961e-05
6.82516e-05
0
0
0
0.000171722
0.000175151
0.000112498
0.00381579
0
0
0
0
0
0
0
0
0
0.00011772
0.000156282
2.87305e-05
0
0
9.49505e-05
0.000150223
6.9052e-05
0.00553044
0
0
0
0
0
0
0
2.6784e-05
1.90419e-05
0.000102014
0.000157603
0.000135196
8.28249e-06
0
0
5.92021e-06
5.90682e-05
0.00789436
0
0.000771121
0.00021124
0
0
0
0
2.19365e-05
1.34956e-05
6.63724e-05
0.000120315
0.000154782
7.55266e-05
0
0
0
6.87506e-05
0.00986904
0
0.00208459
0.00113075
0.000113551
0
6.40343e-05
1.23398e-06
1.35285e-05
0
3.50497e-05
0.000111826
0.000127657
6.05947e-05
1.2107e-05
0
0
0
0.0108375
0
0.00260073
0.0017661
0.000244365
0
8.1936e-05
3.35291e-05
4.94698e-05
6.93064e-06
2.40503e-05
6.82543e-05
5.42782e-05
2.57598e-05
1.23843e-05
0
0
0
0.0112913
0
0.00279913
0.00208562
0.000353242
0
4.16478e-05
8.13512e-06
4.68544e-05
3.36406e-05
1.32345e-05
2.62381e-05
1.76715e-05
1.09245e-05
0
0
0
0
0.0117871
0
0.00306465
0.00213469
0.000424769
0
0
0
5.88355e-05
5.66229e-05
3.66537e-05
1.4184e-05
1.88771e-05
2.66314e-05
1.15748e-06
0
0
0
0.0119024
0
0.00346267
0.00133354
0.000434143
1.23776e-05
2.94265e-05
0
7.39364e-05
0.000122571
7.65499e-05
3.80294e-05
3.61495e-05
2.52875e-05
0
0
0
0
0.012516
0
0.00367957
0.000544369
0.000486833
9.41511e-06
0
0
8.85071e-07
0.000195407
0.000171525
7.2131e-05
4.04512e-05
9.54815e-06
0
0
0
0
0.0122628
0
0.00293394
0
8.4943e-05
0
0
0
0.00013261
0.000151532
6.4587e-05
4.39007e-05
5.46384e-05
1.76009e-05
0
0
0
0
0.0115317
0
0.00208953
0
0
0
0
0
0.000620059
0.000373441
0
0
7.29782e-05
0.000117548
0.000106893
9.33334e-05
9.5417e-05
9.1811e-05
0.0131229
0
0.000672076
0
0
0
0
0
0.000354332
0.000219065
0.000163825
0.000184988
0.000202955
0.00016999
0.000125664
9.17215e-05
7.54243e-05
6.71789e-05
0.0150698
0
0.00289234
0.00321574
0.000635461
0
0
0
0
9.34601e-05
0.000177412
0.00014485
0.000125894
0.00010945
9.32861e-05
6.21893e-05
3.01141e-05
4.88992e-05
0.012821
0
0.00102629
0
0
0
0
0
0.000188275
0.00020172
0.000152853
0
0
0.000162533
0.000231684
0.000212604
0.000160616
0.000133466
0.00873001
0
0
0
0
0
0
1.18429e-05
0.000221117
0.000198016
0.00026873
0.000246562
0.000231961
0.000222917
0.000144335
0.000140379
0.000181804
0.000209539
0.00840281
0
0
0
0
0
0
0
0
0
0.000112797
0.00024555
0.000365413
0.000309836
0.000152693
9.49445e-05
0.000165818
0.0001714
0.0120191
0
0
0
0.00156177
0.000373532
1.06621e-05
0
0
0
0.000166191
0.000200458
0.000135999
1.33629e-05
0
1.33533e-05
0.000113644
0.000156626
0.013486
0
0
0.00178676
0.00124476
0.000631252
0.00052234
0.000131692
5.0981e-05
0.000128129
0.000172158
0.000132225
8.61796e-05
3.85873e-06
6.72494e-05
0.000112055
0.000121611
0.000131083
0.0124334
0
0
0.00233995
0.00127224
0.000793681
0.000471208
0.000229213
0.000141847
0.000136134
0.000135132
0.000122405
7.05424e-05
0.000102883
0.000125307
0.0001041
1.36442e-05
0
0.0111595
0
0
0.00217533
0.00112269
0.000887198
0.000563322
0.00028536
0.000162228
0.000155964
0.000120871
9.19912e-05
2.25512e-05
3.99715e-05
6.49444e-05
5.76516e-05
7.12339e-06
0
0.00989344
0
0
0
0
0.000647761
0.000535189
0.000269147
0.000147034
0.000119377
0.000102677
8.55496e-05
0
2.40199e-05
5.74589e-05
4.21088e-05
0
0
0.00850857
0
0
0
0
4.23404e-05
0.00045697
0.000224101
0.000146085
7.66396e-05
1.8789e-05
5.12084e-05
0
0
2.95932e-05
4.01399e-05
0
0
0.00700401
0
0
0
0
0
0.000298585
0.000162695
0.000171678
0
0
5.98655e-05
0
0
1.37626e-05
6.91905e-05
4.56277e-05
2.77989e-06
0.00506768
0
0
0
0
0
0.000137088
0
0
0
0
3.4104e-05
2.41663e-05
0
6.62327e-06
0.000125799
0.000166992
9.68084e-05
0.00180658
7.05691e-05
7.13682e-05
0
0
0
0
0
0
0
0
0
0
0
0
6.35041e-05
0.000122573
5.94685e-05
0.000488296
0.000384071
3.99653e-05
0
0
0
0
0
0
0
0
0
0
0
0
3.24102e-05
2.85328e-05
6.61361e-06
0.000248757
7.97476e-05
8.23198e-06
0
0
0
0
0
1.69728e-05
6.23033e-06
0
0
0
0
0
0
0
0
0.000663451
0.000226883
0
0
0
0
0
0
5.00705e-05
1.60011e-05
0
0
0
0
0
0
0
0
0.00194438
0
0
0
0
0
0
0
0
0
0
0
0
0
0
0
2.87265e-05
4.55708e-05
0.00281998
0
0
0
0
0
0
0
0
0
0
0
0
0
0
4.64484e-05
0.000204296
0.00015506
0.0039026
0
0
0
0
0
0
0
0.000140419
0
0
4.24593e-05
9.96417e-05
1.61627e-05
0
0.000109125
0.000266301
0.000139909
0.00563606
0
0
0
2.32337e-06
0
0
9.09324e-05
0.00016334
0
0
0.000118011
0.000282824
0.000198913
8.82882e-06
0
0.000250121
0.000152941
0.0079882
0
0.00073601
0.000243188
8.21599e-05
0
0
4.04853e-05
7.29042e-05
3.89467e-06
0
0.000122458
0.000239599
0.000174615
3.41799e-05
0
8.38393e-05
0.000164794
0.00993564
0
0.00201532
0.00107639
0.000188507
0
0
0
3.09682e-05
0
0
0.000128182
0.000201482
0.000147698
2.52755e-05
0
0
8.3723e-05
0.0108776
0
0.00253315
0.00175366
0.000316513
0
6.88113e-05
0
2.85428e-05
0
0
0.000101745
0.00012456
6.89285e-05
0
0
0
0
0.0113025
0
0.00273317
0.00215198
0.000484768
0
2.86781e-05
2.34131e-06
6.59322e-05
2.6091e-05
9.47598e-06
5.15368e-05
4.96807e-05
2.60823e-05
0
0
0
0
0.0117941
0
0.00299352
0.00235207
0.000684929
0
1.71049e-05
1.70873e-05
0.000129212
8.0032e-05
4.65644e-05
2.9312e-05
1.76103e-05
9.97392e-06
1.24502e-05
0
0
0
0.0119296
0
0.00341357
0.00180353
0.000756843
0
7.42168e-05
0
8.22385e-05
0.000136106
0.000108675
4.34212e-05
4.12974e-06
0
0
0
0
0
0.0126982
0
0.00387923
0.00131354
0.000796593
0
4.981e-05
4.09271e-05
5.4974e-05
9.69731e-05
0.000228544
8.02639e-05
1.21295e-06
0
0
0
0
0
0.012728
0
0.00410312
0.000370204
0.000387848
0
0
0
0.000144782
6.36951e-05
0
0
0
0
0
0
0
0
0.0113934
0
0.00253932
0
0
0
0
0
0.000192931
0.00010841
0
0
0
0
5.87192e-07
3.08313e-05
2.84631e-05
8.72811e-05
0.0111471
0
0
0
0
0
0
0
0.000107162
9.21038e-05
0.000125707
0.000166015
0.000200655
0.000210927
0.000209152
0.000130898
8.13241e-05
0.000111966
0.0119975
0
0
0
0
0
0
0
0
2.02163e-05
0.00036453
0.000456337
0.000458262
0.000409229
0.00037246
0.000314939
0.000214289
0.000144101
0.00990879
0
0
0
0
0
0
0
0.000201967
0.000364196
0.000323777
0.000133128
0.000266105
0.000352913
0.000365945
0.000355984
0.000299659
0.000205565
0.00643128
0.000513904
0
0
0
0
0
0
0.000296539
0.000348381
0.000422702
0.000340847
0.000267682
0.000289366
0.000271154
0.000254844
0.000278616
0.000270021
0.00696069