/*--------------------------------*- C++ -*----------------------------------*\
| =========                 |                                                 |
| \\      /  F ield         | OpenFOAM: The Open Source CFD Toolbox           |
|  \\    /   O peration     | Version:  2112                                  |
|   \\  /    A nd           | Website:  www.openfoam.com                      |
|    \\/     M anipulation  |                                                 |
\*---------------------------------------------------------------------------*/
FoamFile
{
    version     2.0;
    format      ascii;
    arch        "LSB;label=32;scalar=64";
    class       volScalarField;
    location    "0.24";
    object      omega_0;
}
// * * * * * * * * * * * * * * * * * * * * * * * * * * * * * * * * * * * * * //

dimensions      [0 0 -1 0 0 0 0];

internalField   nonuniform List<scalar> 
1580
(
1082.35
1084.56
1089.96
1093.97
1104.29
1111.5
1130.91
1143.61
49.29
67.6061
87.3953
107.861
130.72
151.739
182.035
195.615
39.962
41.4928
44.3261
48.7145
55.3398
63.167
75.0806
85.9725
39.6342
39.7602
40.1267
40.9574
42.6759
45.3856
49.9479
56.3792
39.6128
39.6201
39.6576
39.7868
40.1709
41.1172
43.0148
46.9704
39.6116
39.6145
39.6362
39.7224
39.9893
40.768
42.3586
45.9884
39.6256
39.703
39.9334
40.5166
41.6789
43.9824
47.508
53.5259
39.938
41.3656
44.0389
48.4638
54.864
64.2291
75.5474
91.6774
53.8037
80.5527
109.277
140.463
173.304
211.881
250.402
303.806
2209.83
2224.76
2244.25
2272.1
2308.21
2359.46
2424.87
2515.68
323.823
507.518
687.172
836.987
958.389
1059.78
1147.03
1223.3
1290.49
1349.73
1401.87
1447.59
1487.57
1527.62
1567.83
1603.9
1636.12
1664.82
1691.02
1714.07
1733.08
1748.41
1759.96
1767.44
1770.66
1770.94
1769.27
1764.58
1756.3
1745.73
1732.48
1717.26
1700.15
1681.49
1661.49
1640.37
1618.34
1595.61
1572.41
1548.9
1525.26
1501.62
1478.19
1455.4
1434.45
1417.74
1403.73
1390.3
1380.03
1350.4
356.569
478.768
634.905
739.693
806
848.833
877.987
898.031
912.506
923.644
932.891
940.989
948.249
955.704
963.39
970.928
978.774
987.931
1000.35
1014.18
1025.5
1035.06
1042.64
1047.81
1050.62
1051.82
1051.7
1049.4
1045.35
1039.74
1032.65
1024.26
1014.71
1004.15
992.704
980.371
967.357
953.879
940.063
926.011
911.812
897.535
883.275
869.127
855.255
842.012
829.436
817.625
806.808
796.529
372.306
440.73
565.042
639.865
683.92
712.567
733.309
750.499
767.975
786.916
806.744
826.662
846.046
866.984
889.746
912.058
933.887
955.568
976.955
996.515
1013.24
1027.25
1038.54
1047.05
1052.97
1056.26
1057.31
1056.1
1052.48
1046.7
1039.03
1029.67
1018.82
1006.68
993.442
979.333
964.578
949.318
933.683
917.793
901.743
885.62
869.547
853.617
837.913
822.593
807.847
793.618
780.62
767.633
371.293
412.966
520.119
582.233
618.264
643.38
665.801
690.41
720.384
754.688
789.435
822.372
852.062
883.452
917.979
951.915
984.608
1015.36
1043.48
1068.45
1089.76
1107.36
1121.36
1131.79
1138.82
1142.53
1143.24
1141.29
1136.26
1128.56
1118.65
1106.76
1093.13
1078.02
1061.67
1044.41
1026.47
1008.01
989.177
970.124
950.95
931.793
912.788
894.033
875.569
857.575
840.168
823.304
807.73
791.783
368.175
393.473
491.2
546.457
578.8
603.63
631.944
669.809
717.928
765.983
813.255
856.84
895.913
936.445
980.042
1021.65
1060.37
1095.63
1127
1154.18
1176.91
1195.23
1209.31
1219.19
1225.1
1227.23
1226.13
1221.85
1214.12
1203.68
1190.9
1176.04
1159.39
1141.23
1121.87
1101.73
1080.96
1059.7
1038.14
1016.41
994.654
973.064
951.718
930.72
910.08
890.046
870.572
851.779
834.172
816.299
363.499
380.144
472.024
523.435
554.582
582.246
620.867
673.984
738.142
802.717
863.252
915.448
959.607
1003.48
1050.56
1095.1
1136.26
1173.04
1204.98
1231.93
1253.88
1270.8
1283.09
1290.79
1294.3
1293.94
1290.3
1283.01
1272.55
1259.41
1243.97
1226.53
1207.39
1186.82
1165.16
1142.77
1119.8
1096.42
1072.79
1049.08
1025.44
1002.15
979.136
956.549
934.394
912.945
892.001
871.884
852.821
833.726
358.891
371.212
458.803
508.36
540.482
573.767
624.203
692.106
775.599
853.741
921.624
976.958
1021.89
1066.12
1114.59
1160.04
1201.43
1237.65
1268.34
1293.55
1313.46
1327.91
1337.59
1342.58
1343.44
1340.65
1334.25
1324.47
1311.72
1296.41
1278.96
1259.65
1238.77
1216.59
1193.45
1169.59
1145.21
1120.49
1095.58
1070.65
1045.84
1021.37
997.212
973.545
950.388
927.988
906.042
885.046
864.992
845.12
353.813
365.308
449.365
498.232
533.063
573.802
636.363
721.225
820.962
907.676
979.736
1036.17
1081.22
1125.34
1174.52
1220.02
1260.46
1295.1
1323.7
1346.55
1363.99
1375.76
1382.82
1385.21
1383.72
1378.54
1369.79
1357.93
1343.28
1326.21
1307.18
1286.44
1264.28
1240.95
1216.79
1191.98
1166.72
1141.18
1115.5
1089.83
1064.28
1038.99
1013.98
989.484
965.48
942.255
919.414
897.665
876.719
856.195
350.458
361.295
442.118
491.284
530.615
579.15
657.106
757.486
867.975
960.485
1035.9
1094.42
1141.08
1185.74
1234.76
1279.29
1317.83
1350.06
1375.9
1395.87
1410.46
1419.31
1423.63
1423.41
1419.55
1411.84
1400.87
1387.01
1370.52
1351.78
1331.28
1309.24
1285.96
1261.67
1236.69
1211.22
1185.42
1159.43
1133.37
1107.36
1081.49
1055.83
1030.41
1005.44
980.778
956.857
933.216
910.736
888.846
867.697
349.475
350.965
422.167
476.604
533.639
608.163
723.322
856.023
980.774
1080.26
1158.84
1218.81
1265.77
1308.97
1352.69
1390.07
1420.52
1444.44
1462.02
1474.22
1481.59
1483.56
1481.75
1476.13
1466.77
1454.36
1439.11
1421.48
1401.56
1379.79
1356.45
1331.94
1306.57
1280.57
1254.2
1227.63
1200.96
1174.28
1147.68
1121.24
1095.02
1069.05
1043.33
1018.02
992.911
968.448
944.168
920.924
898.104
876.084
340.177
336.28
413.934
506.936
634.499
811.801
1000.26
1169.89
1287.78
1368.32
1423.21
1458.88
1485.37
1512.49
1534.46
1550
1560.39
1566.43
1568.04
1566.47
1561.78
1553.12
1541.65
1527.55
1510.99
1492.2
1471.17
1448.19
1423.65
1398.01
1371.52
1344.47
1317.07
1289.6
1262.15
1234.76
1207.5
1180.4
1153.53
1126.93
1100.62
1074.63
1048.92
1023.6
998.448
973.839
949.333
925.669
902.356
879.656
329.967
348.43
499.088
767.002
1076.46
1368.09
1552.76
1644.78
1681.45
1698.15
1702.11
1702.73
1702.4
1700.73
1695.41
1687.48
1677.42
1665.68
1652.22
1637.27
1620.86
1602.42
1582.23
1560.56
1537.34
1512.37
1486.06
1458.73
1431.03
1402.88
1374.43
1345.85
1317.31
1288.9
1260.73
1232.86
1205.32
1178.13
1151.3
1124.84
1098.76
1073.06
1047.66
1022.64
997.79
973.385
949.023
925.268
901.804
878.668
321.657
529.53
1045.36
1631.54
1980.62
2106.91
2116.8
2095.97
2051.64
2004.52
1960.89
1925.02
1894.1
1863.13
1831.9
1802.05
1772.97
1744.9
1717.51
1690.4
1663.28
1635.63
1607.38
1578.63
1549.03
1518.99
1488.89
1458.57
1428.13
1397.79
1367.67
1337.9
1308.55
1279.63
1251.17
1223.19
1195.71
1168.72
1142.2
1116.14
1090.5
1065.27
1040.35
1015.79
991.391
967.344
943.3
919.643
896.213
872.852
339.658
1374.32
2347.79
2648.86
2655.08
2609.08
2514.21
2420.16
2331.71
2250.4
2177.95
2114.19
2058.27
2002.95
1948.38
1898.1
1852.09
1809.59
1769.58
1731.27
1694.17
1657.72
1621.79
1586.31
1551.5
1517.32
1483.61
1450.42
1417.77
1385.76
1354.42
1323.8
1293.9
1264.69
1236.14
1208.25
1180.99
1154.34
1128.26
1102.69
1077.58
1052.89
1028.52
1004.48
980.575
956.929
933.259
909.762
886.428
862.913
578.678
2875.36
3239.02
3174.66
3023.53
2877.56
2738.96
2614.26
2502.73
2403.04
2314.85
2236.93
2168.39
2098.95
2030.5
1967.73
1910.29
1857.1
1807.13
1759.62
1714.13
1670.09
1628.27
1588.05
1549.07
1511.21
1474.49
1438.9
1404.35
1370.87
1338.4
1306.96
1276.46
1246.89
1218.22
1190.36
1163.27
1136.89
1111.15
1085.99
1061.34
1037.15
1013.29
989.739
966.322
943.057
919.762
896.415
873.202
849.562
1525.62
1854.47
2094.23
2254.24
2344.48
2379.33
2377.85
2357.35
2322.68
2281.32
2237.48
2193.17
2150.15
2102.61
2049.72
1995.03
1939.26
1883.36
1828.11
1773.96
1721.33
1670.57
1621.61
1574.56
1529.48
1486.32
1445.09
1405.72
1368.12
1332.24
1297.9
1265.09
1233.56
1203.41
1174.56
1146.83
1120.12
1094.34
1069.36
1045.18
1021.67
998.701
976.147
953.871
931.753
909.571
887.395
864.687
842.197
818.863
259.114
331.726
426.457
511.621
599.62
693.089
780.928
859.373
926.088
981.36
1025.68
1060.75
1087.48
1110.77
1128.25
1141.6
1152.23
1158.62
1162.97
1162.7
1161.01
1157.39
1150.81
1142.3
1132.09
1120.63
1108.02
1094.56
1080.46
1065.86
1050.94
1035.73
1020.42
1004.93
989.263
973.594
957.908
942.328
926.772
911.389
896.114
880.772
865.415
849.671
833.857
817.019
800.204
781.43
763.313
742.327
99.4073
123.593
142.785
178.292
213.503
249.016
283.94
317.851
349.831
379.612
405.9
428.662
448.561
468.491
488.778
506.986
523.826
538.952
552.669
564.63
575.195
584.653
592.916
600.198
606.533
612.107
617.04
621.42
625.446
629.117
632.696
636.18
639.71
643.271
646.745
650.101
653.198
656.045
658.375
660.245
661.014
660.673
659.619
657.264
654.079
648.187
642.367
632.039
623.447
606.065
62.1621
71.5491
78.1625
90.5306
103.371
116.107
128.476
140.373
151.648
162.233
172.83
183.564
193.798
204.821
216.478
227.632
238.184
248.092
257.315
265.859
273.708
280.965
287.647
293.867
299.664
305.157
310.393
315.493
320.492
325.523
330.576
335.827
341.201
346.902
352.779
358.996
365.367
371.983
378.694
385.388
392.084
398.686
404.934
410.566
415.42
418.939
421.167
420.822
418.822
409.498
50.9474
56.2391
60.6684
66.0612
71.8984
77.8413
83.6984
89.3633
94.7784
99.8977
104.956
110.072
115.02
120.471
126.503
132.501
138.384
144.128
149.682
155.06
160.224
165.227
170.035
174.734
179.275
183.779
188.161
192.588
196.913
201.367
205.716
210.276
214.703
219.423
223.958
228.866
233.508
238.6
243.315
248.555
253.28
258.614
263.347
268.769
273.425
278.7
282.798
287.236
290.334
293.39
50.1552
54.6912
58.9565
63.259
67.6152
71.9415
76.1822
80.278
84.2131
87.9577
91.5355
94.9716
98.2812
101.944
106.091
110.346
114.689
119.117
123.606
128.17
132.777
137.46
142.171
146.972
151.785
156.709
161.621
166.673
171.673
176.848
181.909
187.193
192.274
197.645
202.696
208.132
213.095
218.584
223.405
228.95
233.588
239.232
243.68
249.548
253.863
260.197
264.55
271.824
276.779
288.749
60.004
66.0306
71.7562
77.1928
82.4221
87.4279
92.2543
96.8612
101.294
105.538
109.614
113.509
117.256
121.382
126.081
130.942
135.996
141.238
146.689
152.354
158.244
164.367
170.718
177.311
184.115
191.161
198.378
205.821
213.366
221.116
228.871
236.816
244.64
252.663
260.415
268.423
275.985
283.934
291.221
299.136
306.12
314.139
320.895
329.362
336.151
345.862
353.416
366.305
376.797
408.785
105.804
118.311
130.293
141.52
152.185
162.154
171.638
180.527
189.008
196.951
204.557
211.686
218.557
225.945
234.423
243.161
252.315
261.724
271.596
281.767
292.44
303.391
314.817
326.446
338.474
350.578
362.962
375.226
387.656
399.785
411.988
423.722
435.48
446.656
457.903
468.499
479.259
489.311
499.621
509.217
519.183
528.592
538.51
548.389
558.902
570.869
583.339
601.697
619.418
682.189
336.998
372.205
409.087
443.766
476.41
505.82
533.141
557.691
580.539
601.19
620.484
638.065
654.52
671.928
690.971
709.671
728.043
746.462
766.104
785.594
805.822
825.299
845.066
863.591
881.938
898.673
914.74
928.705
942.115
953.373
964.348
973.136
982.044
988.988
996.814
1002.69
1010.12
1015.16
1022.4
1026.58
1033.81
1037.49
1045.27
1049.7
1059.68
1066.78
1082.81
1099.41
1128.72
1229.33
2591.91
2639.32
2678.87
2710.28
2736.79
2757.75
2775.74
2789.78
2801.98
2811.25
2819.42
2825.36
2830.69
2834.83
2839
2841.13
2842.93
2842.6
2841.02
2837.18
2832.07
2824.56
2815.79
2804.47
2791.94
2776.71
2759.08
2740.03
2719.82
2698.1
2674.66
2648.54
2621.05
2591.69
2561.22
2529.02
2496.06
2461.52
2426.63
2390.27
2353.99
2316.28
2279.05
2240.31
2202.29
2162.67
2123.35
2082.95
2040.18
1998.81
1418.5
1490.83
1559.01
1624.86
1692.93
1764.93
1837.83
1936.79
2024.9
2182.74
791.745
792.006
799.418
802.046
814.663
814.166
832.729
828.795
859.8
857.753
758.037
749.251
745.857
739.625
738.02
730.921
729.883
721.081
724.462
711.796
779.283
764.968
756.027
742.983
736.924
723.648
718.147
702.884
698.765
678.451
801.419
783.519
771.406
754.643
746.315
728.534
720.399
700.76
693.49
668.015
817.01
796.754
782.72
763.878
754.264
733.656
724.052
701.359
692.406
663.712
827.115
805.365
790.167
770.129
759.672
737.217
726.768
702.023
692.135
661.363
836.939
813.774
797.47
776.264
764.872
740.64
729.367
702.516
691.86
659.023
847.033
822.315
804.629
781.887
769.075
743.152
731.002
702.289
690.872
655.797
853.872
827.516
808.146
784.215
770.222
743.357
730.434
700.453
688.432
651.589
856.352
828.776
808.055
782.935
767.639
740.162
726.688
696.224
683.798
645.908
854.398
825.634
803.446
777.384
760.936
733.203
719.375
688.986
676.383
638.385
847.87
818.197
794.735
767.958
750.426
722.628
708.44
678.447
665.839
628.627
837.459
807.164
782.612
755.3
736.66
708.861
694.027
664.682
652.081
616.229
823.832
793.176
767.684
739.974
720.156
692.362
676.538
647.99
635.307
601.109
793.046
762.142
735.105
706.795
685.169
657.732
640.693
613.683
601.197
569.642
720.329
692.912
666.495
639.988
618.48
594.647
578.371
556.122
545.273
518.449
594.58
577.949
558.269
539.91
522.746
507.834
495.916
484.025
477.802
461.927
412.691
410.455
405.238
400.855
396.014
394.787
393.533
394.339
394.276
392.027
298.767
303.091
308.574
314.507
319.77
326.409
331.405
340.286
344.572
356.673
292.537
297.359
307.122
314.25
325.024
334.297
345.021
358.149
365.614
385.882
407.469
411.634
427.55
435.572
454.25
462.439
481.552
491.727
505.214
523.862
663.456
667.87
687.045
695.411
716.669
723.239
747.022
751.807
772.698
788.234
1190.38
1183.07
1184.14
1182.6
1192
1193.91
1223.08
1221.68
1261.54
1268.31
1982.69
2010.32
2048.4
2111.37
2178.37
2271.21
2380.44
2518.09
2684.09
2939.13
)
;

boundaryField
{
    inlet
    {
        type            inletOutlet;
        inletValue      uniform 39.6133;
        value           uniform 39.6133;
    }
    outlet
    {
        type            zeroGradient;
    }
    upperWall
    {
        blending        binomial2;
        n               2;
        beta1           0.075;
        type            omegaWallFunction;
        value           nonuniform List<scalar> 
68
(
2209.83
2224.76
2244.25
2272.1
2308.21
2359.46
2424.87
2515.68
2591.91
2639.32
2678.87
2710.28
2736.79
2757.75
2775.74
2789.78
2801.98
2811.25
2819.42
2825.36
2830.69
2834.83
2839
2841.13
2842.93
2842.6
2841.02
2837.18
2832.07
2824.56
2815.79
2804.47
2791.94
2776.71
2759.08
2740.03
2719.82
2698.1
2674.66
2648.54
2621.05
2591.69
2561.22
2529.02
2496.06
2461.52
2426.63
2390.27
2353.99
2316.28
2279.05
2240.31
2202.29
2162.67
2123.35
2082.95
2040.18
1998.81
1982.69
2010.32
2048.4
2111.37
2178.37
2271.21
2380.44
2518.09
2684.09
2939.13
)
;
    }
    lowerWall
    {
        blending        binomial2;
        n               2;
        beta1           0.075;
        type            omegaWallFunction;
        value           nonuniform List<scalar> 
83
(
1082.35
1084.56
1089.96
1093.97
1104.29
1111.5
1130.91
1143.61
323.823
356.569
372.306
371.293
368.175
363.499
358.891
353.813
350.458
349.475
340.177
329.967
321.657
339.658
578.678
323.823
507.518
687.172
836.987
958.389
1059.78
1147.03
1223.3
1290.49
1349.73
1401.87
1447.59
1487.57
1527.62
1567.83
1603.9
1636.12
1664.82
1691.02
1714.07
1733.08
1748.41
1759.96
1767.44
1770.66
1770.94
1769.27
1764.58
1756.3
1745.73
1732.48
1717.26
1700.15
1681.49
1661.49
1640.37
1618.34
1595.61
1572.41
1548.9
1525.26
1501.62
1478.19
1455.4
1434.45
1417.74
1403.73
1390.3
1380.03
1350.4
1418.5
1490.83
1559.01
1624.86
1692.93
1764.93
1837.83
1936.79
2024.9
2182.74
)
;
    }
    frontAndBack
    {
        type            empty;
    }
}


// ************************************************************************* //
