/*--------------------------------*- C++ -*----------------------------------*\
| =========                 |                                                 |
| \\      /  F ield         | OpenFOAM: The Open Source CFD Toolbox           |
|  \\    /   O peration     | Version:  2112                                  |
|   \\  /    A nd           | Website:  www.openfoam.com                      |
|    \\/     M anipulation  |                                                 |
\*---------------------------------------------------------------------------*/
FoamFile
{
    version     2.0;
    format      ascii;
    arch        "LSB;label=32;scalar=64";
    class       volScalarField;
    location    "0.17";
    object      nut;
}
// * * * * * * * * * * * * * * * * * * * * * * * * * * * * * * * * * * * * * //

dimensions      [0 2 -1 0 0 0 0];

internalField   nonuniform List<scalar> 
12225
(
5.44177e-06
8.85089e-06
1.18527e-05
1.48701e-05
1.81942e-05
2.20165e-05
2.64706e-05
3.16556e-05
3.76404e-05
4.4469e-05
5.21592e-05
6.07031e-05
7.00696e-05
8.02086e-05
9.10625e-05
0.000102527
0.000114731
0.000127228
4.5482e-05
2.36002e-05
1.84868e-05
1.70038e-05
1.69931e-05
1.78125e-05
1.92024e-05
2.10257e-05
2.31837e-05
2.55912e-05
2.81729e-05
3.08709e-05
3.36525e-05
3.64989e-05
3.94179e-05
4.24699e-05
4.60229e-05
5.00367e-05
0.000415591
0.000139616
0.000106291
7.42156e-05
5.43703e-05
4.33605e-05
3.68799e-05
3.29434e-05
3.0558e-05
2.91716e-05
2.84599e-05
2.82288e-05
2.83626e-05
2.87909e-05
2.94712e-05
3.03836e-05
3.1526e-05
3.27977e-05
0.00114038
0.000857963
0.000518015
0.000353707
0.000261662
0.000210227
0.00018303
0.000149042
0.000124632
0.00010746
9.49163e-05
8.5429e-05
7.80388e-05
7.21445e-05
6.73623e-05
6.34455e-05
6.02465e-05
5.77586e-05
0.00144634
0.00142281
0.0012603
0.00108413
0.000888919
0.000724261
0.000603011
0.000521038
0.000466
0.00043057
0.000389352
0.000347656
0.000314238
0.000286843
0.000264033
0.000244883
0.000228774
0.000215679
0.00151274
0.00150366
0.00148344
0.00144548
0.00130432
0.00116142
0.00105559
0.000982157
0.00092905
0.000891542
0.00086856
0.000854806
0.000841455
0.000797578
0.000751485
0.000710638
0.000649638
0.000589882
0.00151437
0.00151339
0.00151081
0.00150557
0.00144791
0.00132306
0.00123883
0.00118707
0.00115598
0.00113937
0.00113309
0.001128
0.00111272
0.00107885
0.00102158
0.000945687
0.000862445
0.000796338
0.00151437
0.00151411
0.00151379
0.00151321
0.00151217
0.00144093
0.00135415
0.00129896
0.0012671
0.00125092
0.00124181
0.00123013
0.00120664
0.00116687
0.001109
0.00103809
0.000964521
0.000909705
0.00151427
0.00151397
0.00151378
0.00151369
0.00151365
0.00151362
0.00147248
0.00141404
0.00137515
0.00134999
0.0013311
0.00131051
0.00128011
0.00123573
0.00117882
0.00111523
0.00105206
0.00100533
0.00151418
0.0015138
0.00151354
0.0015134
0.00151339
0.00151348
0.00151362
0.00151379
0.00148212
0.00145265
0.00142816
0.00140126
0.00136527
0.00131788
0.0012617
0.00120253
0.0011464
0.00110563
0.00151412
0.00151367
0.00151333
0.00151312
0.00151301
0.00151302
0.00151311
0.00151325
0.00151342
0.0015136
0.00151379
0.00149064
0.00145482
0.00140932
0.00135639
0.00130238
0.00125299
0.00121804
0.00151407
0.00151358
0.00151318
0.0015129
0.00151273
0.00151265
0.00151266
0.00151272
0.00151283
0.00151296
0.00151311
0.00151327
0.00151344
0.00149164
0.00144747
0.00140214
0.00136061
0.00133162
0.00151404
0.0015135
0.00151306
0.00151273
0.00151249
0.00151234
0.00151227
0.00151226
0.00151229
0.00151235
0.00151244
0.00151255
0.00151268
0.00151283
0.00151299
0.00149398
0.00146249
0.00144071
0.00151401
0.00151344
0.00151295
0.00151257
0.00151227
0.00151206
0.00151191
0.00151182
0.00151177
0.00151176
0.00151178
0.00151182
0.00151189
0.00151197
0.00151207
0.00151219
0.00151231
0.00151243
0.00151399
0.00151338
0.00151286
0.00151243
0.00151208
0.0015118
0.00151159
0.00151143
0.00151131
0.00151122
0.00151117
0.00151113
0.00151112
0.00151113
0.00151115
0.00151119
0.00151123
0.00151128
0.00151397
0.00151334
0.00151278
0.00151231
0.00151192
0.00151159
0.00151132
0.00151109
0.00151091
0.00151076
0.00151063
0.00151052
0.00151044
0.00151036
0.0015103
0.00151026
0.00151022
0.00151018
0.00151396
0.00151331
0.00151273
0.00151223
0.00151179
0.00151142
0.0015111
0.00151083
0.00151058
0.00151037
0.00151018
0.00151001
0.00150985
0.00150971
0.00150958
0.00150945
0.00150933
0.00150922
0.00151395
0.0015133
0.0015127
0.00151218
0.00151172
0.00151131
0.00151096
0.00151064
0.00151035
0.00151009
0.00150985
0.00150962
0.0015094
0.0015092
0.001509
0.00150881
0.00150863
0.00150845
0.00151396
0.0015133
0.00151271
0.00151218
0.0015117
0.00151128
0.0015109
0.00151056
0.00151024
0.00150994
0.00150966
0.00150939
0.00150913
0.00150888
0.00150863
0.00150839
0.00150815
0.00150793
0.00151397
0.00151333
0.00151275
0.00151222
0.00151176
0.00151134
0.00151096
0.00151061
0.00151028
0.00150998
0.00150968
0.00150939
0.00150911
0.00150884
0.00150857
0.0015083
0.00150803
0.00150778
0.00151399
0.00151337
0.00151281
0.0015123
0.00151185
0.00151144
0.00151108
0.00151074
0.00151042
0.00151013
0.00150984
0.00150956
0.00150928
0.001509
0.00150873
0.00150845
0.00150818
0.00150791
0.00151402
0.00151342
0.00151289
0.00151241
0.00151198
0.0015116
0.00151126
0.00151094
0.00151066
0.00151038
0.00151012
0.00150986
0.0015096
0.00150933
0.00150906
0.00150879
0.00150851
0.00150823
0.00151406
0.0015135
0.001513
0.00151255
0.00151215
0.0015118
0.00151148
0.00151119
0.00151091
0.00151062
0.00151032
0.00151
0.00150965
0.00150925
0.00150882
0.00150834
0.00150781
0.00150725
0.00151411
0.0015136
0.00151312
0.00151265
0.00151216
0.00151163
0.00151098
0.00151018
0.00150916
0.00150787
0.00150628
0.00150436
0.0015021
0.0014995
0.00149657
0.00149332
0.00148977
0.00148595
0.00151415
0.00151347
0.00151238
0.00151051
0.00150748
0.00150295
0.00149656
0.00148808
0.00147736
0.0014644
0.00144931
0.00143231
0.0014137
0.0013938
0.00137294
0.0013514
0.00132943
0.00130727
0.00151278
0.00150677
0.00149328
0.00146952
0.00143487
0.00138949
0.00133425
0.00127109
0.00120271
0.00113206
0.00106186
0.000994215
0.000930837
0.000872463
0.000819165
0.000770742
0.000726874
0.000687193
0.00147838
0.00139253
0.00124594
0.00106713
0.000800655
0.000607932
0.000488383
0.000409774
0.000355646
0.000317947
0.000292106
0.000275314
0.000250498
0.000225898
0.000205849
0.000189261
0.000175361
0.000163592
0.000991211
0.000310529
0.000206609
0.000170771
0.000156271
0.00011838
9.40335e-05
7.78357e-05
6.66201e-05
5.86326e-05
5.28315e-05
4.85621e-05
4.53904e-05
4.30259e-05
4.12677e-05
3.99714e-05
3.90322e-05
3.83727e-05
9.93446e-05
4.47163e-05
3.04387e-05
2.47077e-05
2.20985e-05
2.09637e-05
2.06697e-05
2.09239e-05
2.15725e-05
2.25238e-05
2.37154e-05
2.51e-05
2.66384e-05
2.82964e-05
3.00434e-05
3.18535e-05
3.37065e-05
3.55853e-05
5.37181e-06
8.39433e-06
1.10016e-05
1.34415e-05
1.58808e-05
1.83114e-05
2.093e-05
2.38054e-05
2.69735e-05
3.04576e-05
3.42737e-05
3.84322e-05
4.29376e-05
4.77888e-05
5.29793e-05
5.84966e-05
6.43277e-05
7.04409e-05
0.000304094
0.000306717
0.000313891
0.000323787
0.000335571
0.000347876
0.00031864
0.000292006
0.000273413
0.000260108
0.00025038
0.000243366
0.000238568
0.000235683
0.000234533
0.000235012
0.000237068
0.000240688
0.000245886
0.000252735
0.000261396
0.000271701
0.000283278
0.00029625
0.000310767
0.000327726
0.000348361
0.000360837
0.000362059
0.000361506
0.000359122
0.000354868
0.000348762
0.000340883
0.000331378
0.00032046
0.000308392
0.000295463
0.000281934
0.000267826
0.000253072
0.000239545
0.000228055
0.000219023
0.000212417
0.000207908
0.000200628
0.000179728
0.000165308
0.000157628
0.000154501
0.000154585
0.00015697
0.000160826
0.000165421
0.000170153
0.000174764
0.000179612
0.000185716
0.00019478
0.000209486
0.000233022
0.000267696
0.000313412
0.000367295
0.000425034
0.000482756
0.000537987
0.000589455
0.000635009
0.000664575
0.000684766
0.000703516
0.000721992
0.000741333
0.000762536
0.00078635
0.000813187
0.000843087
0.000875738
0.000910537
0.000946677
0.000983248
0.00101936
0.00105428
0.00108752
0.00111896
0.0011488
0.00117752
0.00120574
0.00123409
0.00126301
0.0012927
0.00132304
0.00135358
0.00138358
0.00141207
0.00143793
0.00145999
0.00147713
0.00148836
0.0014929
0.00149022
0.00148007
0.0014624
0.00143723
0.00139279
0.00134517
0.00130026
0.00125802
0.00121788
0.00117955
0.00114272
0.00110707
0.0010723
0.00103814
0.00100434
0.000970713
0.000937109
0.000903446
0.000869694
0.00083586
0.000801846
0.000767453
0.000733707
0.000701245
0.000670302
0.000641186
0.000614269
0.000589959
0.00056866
0.000550668
0.000536379
0.000526937
0.000523835
0.000529446
0.000547819
0.000586599
0.000661979
0.000812184
0.00111193
0.00141155
0.00132545
0.00101973
0.000850938
0.000766249
0.000724619
0.000707416
0.000705271
0.000712986
0.000727603
0.000747721
0.000772561
0.0008011
0.000832347
0.000865615
0.000900561
0.000937091
0.000975273
0.00101524
0.00105706
0.0011007
0.00114593
0.00119219
0.00123839
0.00128158
0.00132113
0.00135688
0.00138904
0.00141807
0.00144457
0.00146912
0.00149223
0.00151436
0.0015359
0.00155728
0.00157855
0.00160145
0.0016222
0.00166474
0.000325937
0.000325814
0.000331739
0.000340471
0.000350354
0.000360243
0.000369368
0.000377413
0.000384258
0.000389871
0.000394278
0.000397549
0.000399779
0.00040108
0.000401571
0.000401375
0.000400612
0.000399405
0.000397871
0.000396126
0.00039428
0.000392047
0.000389065
0.000385537
0.000381739
0.000377939
0.000374376
0.000371132
0.000367882
0.000364339
0.000360234
0.00035533
0.000349436
0.00034242
0.000334217
0.000324824
0.000314289
0.000302682
0.000290056
0.000276332
0.000260763
0.00024487
0.000230025
0.000216719
0.0002051
0.000195212
0.000187177
0.000181072
0.000176961
0.000174861
0.000174685
0.000176144
0.00017912
0.000183655
0.000189911
0.000198168
0.000208923
0.00022294
0.000241025
0.000264055
0.000292703
0.000326897
0.000365341
0.000405628
0.000445099
0.000481807
0.000514837
0.000544002
0.000569457
0.000591522
0.000610706
0.000627852
0.000643896
0.000659858
0.000676734
0.000695374
0.000716358
0.000739921
0.000765932
0.000793918
0.000823142
0.000852698
0.000881631
0.000909072
0.000934371
0.000957195
0.000977574
0.000995861
0.00101262
0.00102845
0.00104385
0.00105902
0.0010738
0.00108764
0.00109961
0.00110846
0.00111272
0.0011108
0.00110113
0.00108233
0.00105336
0.00101379
0.000963933
0.000905151
0.000841456
0.000780719
0.000727991
0.000684214
0.000649001
0.000621294
0.000599921
0.000583977
0.000572747
0.000565681
0.000562364
0.000562514
0.000566007
0.000572924
0.000583585
0.000598595
0.00061887
0.000645654
0.000680406
0.000723329
0.00077387
0.000832324
0.000899678
0.000976795
0.00106379
0.0011582
0.00124961
0.00130967
0.00132876
0.00134364
0.00135655
0.00136692
0.00137424
0.00137816
0.00137869
0.00137668
0.0013745
0.00137889
0.00138121
0.00137876
0.00137222
0.00136248
0.00135043
0.00133725
0.00132415
0.0013118
0.00128884
0.00122051
0.00112761
0.00103472
0.000951455
0.000880097
0.000820387
0.000771314
0.000731746
0.000700628
0.000677045
0.000660315
0.000650111
0.000646022
0.000647682
0.000658114
0.000675832
0.000699919
0.000729611
0.000764434
0.000804171
0.000848761
0.00089822
0.000952597
0.00101198
0.00107665
0.00114729
0.00122648
0.00131906
0.00142947
0.000349136
0.000347715
0.000355655
0.000367049
0.000378855
0.000389474
0.000398193
0.000404913
0.000409836
0.000413246
0.000415417
0.000416585
0.000416947
0.000416667
0.000415882
0.000414709
0.000413248
0.00041159
0.000409817
0.000408006
0.000406234
0.000404557
0.000402763
0.000400809
0.000398606
0.000396057
0.000393104
0.000389738
0.00038592
0.000381568
0.000376571
0.000370793
0.000364095
0.00035636
0.000347506
0.000337502
0.000326353
0.00031409
0.000300724
0.000286165
0.00026959
0.000252258
0.00023582
0.000220848
0.000207512
0.000195844
0.000185997
0.000178232
0.000172749
0.000169621
0.000168887
0.000170493
0.00017448
0.000181109
0.000190849
0.000204483
0.000222679
0.000245589
0.000272787
0.000303269
0.000335806
0.000369271
0.000402635
0.000434888
0.000465125
0.000492709
0.000517305
0.000538824
0.00055737
0.000573261
0.000587058
0.000599559
0.000611718
0.000624515
0.0006388
0.000655161
0.000673834
0.000694683
0.000717233
0.000740749
0.000764331
0.000787037
0.000808013
0.000826625
0.000842565
0.000855901
0.000867036
0.00087659
0.000885223
0.000893449
0.000901495
0.000909223
0.000916128
0.000921396
0.000924014
0.00092291
0.000917113
0.000905942
0.00088918
0.00086724
0.000841258
0.000813087
0.00078516
0.000760388
0.000742408
0.000734599
0.000738089
0.000751781
0.00077329
0.000799674
0.000828405
0.00085837
0.000889541
0.00092175
0.000954782
0.000988553
0.001023
0.00105796
0.001093
0.0011274
0.00116009
0.00118973
0.00121427
0.00123759
0.00125934
0.00127919
0.00129686
0.00131201
0.00132426
0.00133313
0.00133821
0.00133955
0.0013388
0.00133754
0.00133603
0.00133435
0.00133288
0.00133195
0.00132078
0.0012835
0.00125481
0.00125371
0.00128223
0.00132161
0.00135109
0.00134974
0.00134656
0.00134188
0.00133642
0.00133076
0.00132444
0.00131388
0.00129702
0.00127408
0.00124628
0.00121518
0.00118228
0.00114887
0.00111593
0.00108419
0.00105401
0.00102438
0.000991143
0.000952087
0.00090955
0.000865883
0.000826477
0.00079416
0.000770382
0.000755691
0.000750115
0.000753434
0.000765349
0.000785586
0.000813974
0.000850531
0.000895653
0.000950764
0.00101968
0.0011077
0.000334851
0.000361159
0.000374976
0.000390293
0.000403231
0.000412526
0.000418341
0.000421417
0.000422559
0.000422417
0.000421461
0.000420012
0.000418286
0.000416431
0.000414546
0.000412697
0.000410925
0.000409256
0.000407704
0.00040628
0.000404998
0.000403884
0.000402963
0.000402241
0.000401667
0.000401127
0.000400446
0.000399399
0.000397726
0.000395155
0.000391435
0.000386364
0.000379804
0.000371698
0.00036206
0.00035097
0.000338543
0.000324897
0.000310104
0.000293953
0.000275932
0.000257759
0.000240586
0.000225051
0.000211314
0.00019936
0.000189288
0.00018135
0.000175852
0.000173119
0.000173552
0.000177657
0.000185897
0.000198697
0.000216421
0.000238873
0.000265379
0.000294796
0.000325616
0.000356453
0.000386413
0.000415061
0.000442135
0.000467331
0.000490282
0.000510645
0.000528193
0.0005429
0.000554996
0.000565008
0.000573733
0.000582156
0.0005913
0.000602056
0.000615019
0.000630399
0.000648003
0.000667289
0.000687466
0.000707601
0.000726745
0.000744051
0.000758903
0.000771019
0.000780506
0.000787826
0.000793683
0.000798839
0.000803927
0.000809314
0.000815027
0.000820777
0.000826035
0.000830166
0.000832585
0.000832934
0.00083126
0.000828176
0.000824958
0.000823538
0.000826336
0.000835915
0.000854483
0.000883369
0.000922622
0.000970558
0.00102365
0.0010775
0.00112811
0.00117292
0.00121093
0.00124245
0.00126834
0.00128946
0.00130656
0.00132027
0.00133102
0.00133914
0.00134481
0.00134815
0.00134929
0.00134811
0.00134568
0.00134226
0.00133794
0.0013328
0.00132694
0.00132041
0.00131329
0.00130564
0.00129759
0.00128931
0.00128097
0.0012727
0.00126504
0.00125789
0.00121077
0.00116877
0.00113832
0.00111932
0.00111647
0.00113452
0.00116701
0.00120067
0.00123207
0.00126603
0.0013022
0.00131437
0.00131352
0.00131074
0.00130633
0.00130049
0.00129334
0.00128495
0.00127546
0.00126507
0.00125406
0.00124273
0.00123143
0.00122045
0.00121006
0.00120028
0.00119053
0.00117999
0.00116821
0.00115353
0.00113437
0.00111093
0.00108439
0.00105667
0.00103001
0.00100656
0.000988068
0.000975724
0.000970197
0.000971782
0.00098062
0.000997153
0.00102256
0.00106035
0.00030037
0.00037207
0.00039406
0.000412187
0.000423037
0.000427451
0.00042765
0.00042558
0.000422499
0.000419119
0.000415823
0.000412817
0.000410212
0.000408063
0.000406378
0.000405133
0.000404279
0.000403746
0.00040346
0.000403345
0.000403347
0.000403482
0.000403887
0.000404511
0.000405289
0.000406132
0.000406904
0.000407402
0.000407339
0.000406354
0.000404042
0.000400015
0.000393975
0.000385779
0.000375455
0.000363184
0.000349223
0.000333835
0.000316955
0.000298553
0.000279737
0.000261237
0.000244022
0.000228655
0.000215256
0.000203815
0.000194502
0.000187772
0.000184332
0.000185078
0.000190928
0.000202487
0.000219705
0.000241722
0.000267199
0.000294804
0.000323327
0.000351724
0.000379218
0.000405365
0.000429992
0.000453019
0.000474287
0.000493509
0.000510337
0.000524481
0.000535849
0.00054463
0.000551348
0.00055682
0.000562068
0.000568152
0.000575996
0.000586223
0.000599061
0.000614322
0.000631464
0.000649684
0.000668043
0.000685581
0.000701434
0.000714953
0.000725804
0.000734034
0.000740063
0.000744591
0.000748442
0.000752381
0.000756971
0.000762492
0.000768956
0.000776182
0.000783926
0.000792042
0.000800658
0.000810342
0.000822223
0.000838023
0.000859911
0.000890135
0.000930421
0.000981261
0.00104134
0.00110743
0.00117497
0.00123909
0.0012958
0.00134283
0.00137968
0.00140708
0.00142634
0.00143889
0.00144599
0.0014487
0.00144787
0.00144419
0.00143815
0.00143022
0.00142071
0.00140992
0.00139792
0.00138509
0.00137168
0.00135781
0.0013436
0.00132908
0.00131426
0.00129909
0.00128351
0.00126746
0.00125106
0.00123452
0.00121783
0.00117158
0.0011116
0.0010592
0.00101601
0.000983458
0.000962455
0.000953512
0.000957911
0.000976743
0.00100617
0.00103928
0.00107403
0.00111135
0.00115094
0.0011916
0.00123192
0.0012693
0.00127641
0.00127592
0.00127304
0.00126818
0.00126171
0.00125405
0.00124558
0.0012367
0.0012278
0.00121925
0.00121141
0.00120465
0.00119925
0.00119548
0.00119351
0.00119336
0.00119401
0.0011945
0.00119374
0.00119086
0.00118544
0.00117768
0.00116839
0.00115878
0.00115018
0.0011438
0.00114058
0.00114126
0.00114617
0.00115711
0.000275272
0.000386081
0.000415173
0.000432046
0.000436555
0.000433731
0.000427964
0.000421622
0.000415706
0.000410598
0.000406444
0.000403304
0.000401186
0.000400052
0.000399815
0.000400339
0.000401458
0.000402983
0.000404729
0.000406524
0.000408252
0.000409984
0.000411781
0.000413525
0.000415127
0.00041653
0.000417667
0.000418427
0.000418611
0.000417902
0.000415867
0.000412009
0.000405872
0.000397168
0.000385858
0.000372109
0.000355774
0.000337962
0.000319312
0.000300064
0.000280932
0.000262717
0.000246161
0.000231678
0.000219412
0.000209573
0.00020276
0.000200062
0.000202831
0.000212137
0.000228059
0.000249379
0.000274077
0.000300213
0.000326456
0.000352083
0.000376739
0.000400265
0.000422586
0.000443655
0.000463367
0.000481511
0.000497763
0.000511747
0.000523157
0.000531879
0.000538093
0.000542315
0.000545355
0.000548222
0.00055196
0.000557484
0.000565427
0.000576061
0.000589271
0.000604601
0.000621333
0.000638594
0.000655459
0.000671061
0.000684697
0.00069593
0.000704664
0.000711168
0.000716027
0.000720031
0.000724017
0.000728724
0.000734698
0.000742271
0.000751615
0.00076285
0.000776185
0.000792079
0.000811379
0.000835395
0.000865861
0.000904682
0.000953441
0.00101271
0.0010814
0.00115646
0.0012333
0.00130687
0.00137287
0.00142859
0.00147305
0.0015066
0.0015303
0.00154541
0.00155318
0.00155477
0.00155122
0.00154347
0.00153236
0.0015186
0.0015028
0.00148555
0.00146722
0.00144799
0.0014282
0.00140815
0.00138801
0.00136786
0.0013477
0.00132288
0.00129158
0.00125781
0.00122129
0.00118124
0.00113766
0.00109186
0.00104457
0.0009973
0.000951501
0.000909005
0.000872484
0.000843185
0.000823474
0.000813178
0.00081349
0.000825488
0.000847698
0.000876649
0.000909904
0.000946753
0.00098693
0.00102989
0.00107339
0.00111551
0.00115485
0.00119059
0.00122176
0.00123301
0.0012321
0.00122888
0.00122386
0.00121752
0.00121031
0.00120264
0.00119494
0.00118764
0.00118114
0.00117587
0.00117229
0.00117082
0.00117174
0.00117516
0.00118088
0.00118838
0.00119691
0.00120564
0.00121387
0.00122117
0.00122749
0.00123309
0.00123842
0.00124405
0.00125017
0.0012578
0.000256742
0.000404779
0.000437262
0.000447897
0.000443886
0.00043452
0.000424652
0.000415928
0.000408747
0.000403187
0.000399268
0.000396982
0.000396271
0.000397006
0.000398982
0.00040193
0.000405547
0.000409519
0.000413552
0.000417393
0.000420879
0.000424079
0.000426676
0.000428636
0.000429998
0.000430839
0.000431219
0.000431128
0.000430442
0.000428881
0.000425944
0.000420907
0.000413344
0.000402945
0.000389727
0.000374016
0.000356241
0.000337146
0.000317617
0.00029827
0.000279743
0.000262715
0.000247765
0.000235334
0.000225913
0.000220361
0.000220012
0.000226251
0.000239643
0.000259231
0.000282742
0.000307644
0.000332133
0.000355392
0.000377303
0.000398046
0.000417831
0.000436764
0.000454816
0.000471811
0.000487449
0.000501346
0.000513102
0.000522412
0.000529168
0.000533547
0.000536041
0.000537422
0.00053864
0.000540678
0.000544404
0.000550447
0.000559122
0.000570414
0.000584003
0.000599323
0.00061564
0.000632128
0.000647964
0.000662423
0.000674965
0.000685323
0.000693555
0.000700041
0.000705428
0.000710514
0.000716124
0.000722998
0.000731742
0.000742833
0.000756689
0.000773775
0.000794729
0.000820467
0.00085223
0.000891506
0.000939771
0.000998015
0.00106613
0.00114241
0.00122346
0.00130474
0.00138168
0.00145067
0.00150957
0.00155768
0.00159514
0.0016225
0.00164041
0.00164954
0.0016507
0.00164487
0.00163316
0.00161676
0.00159665
0.00157352
0.00152373
0.00147321
0.00142604
0.00138218
0.00134185
0.0013046
0.00126981
0.00123667
0.00120433
0.00117211
0.0011396
0.00110677
0.00107409
0.0010421
0.00101094
0.000979176
0.000944622
0.000908728
0.000869965
0.000828894
0.000791228
0.000758389
0.000732491
0.000715095
0.000707555
0.000710627
0.000723629
0.000744593
0.000771671
0.00080389
0.00084052
0.000880224
0.000921376
0.000962607
0.00100327
0.00104175
0.00107685
0.00110777
0.00113427
0.00115644
0.00117469
0.0011813
0.00117846
0.0011743
0.00116927
0.00116379
0.00115828
0.00115316
0.00114885
0.00114577
0.00114445
0.00114546
0.00114922
0.00115599
0.0011657
0.00117806
0.00119251
0.00120837
0.00122498
0.00124177
0.00125833
0.00127448
0.00128997
0.001305
0.000243801
0.000427889
0.000457544
0.000458873
0.000447561
0.000434119
0.000422132
0.000412318
0.000404728
0.000399356
0.000396201
0.000395202
0.000396209
0.00039898
0.000403189
0.000408431
0.000414289
0.000420354
0.000426256
0.000431677
0.000436341
0.000439849
0.000441945
0.00044299
0.000443241
0.000442872
0.000441962
0.000440477
0.000438248
0.000434942
0.000430058
0.000422989
0.000413298
0.000400837
0.000385803
0.000368701
0.000350201
0.000331064
0.000312101
0.000294007
0.000277428
0.000263034
0.000251542
0.000243808
0.000240948
0.000244215
0.00025441
0.000271096
0.000292362
0.000315562
0.000338432
0.00035976
0.00037933
0.00039748
0.00041468
0.000431281
0.000447421
0.000463022
0.000477837
0.000491495
0.00050357
0.000513654
0.000521453
0.000526865
0.000530055
0.000531475
0.000531824
0.000531965
0.000532797
0.000535128
0.000539575
0.000546496
0.000555979
0.000567857
0.000581741
0.000597073
0.000613184
0.000629355
0.000644891
0.000659202
0.000671879
0.000682763
0.000691981
0.000699942
0.000707279
0.00071476
0.000723186
0.00073332
0.00074585
0.000761409
0.000780628
0.000804224
0.000833068
0.000868222
0.00091087
0.000962124
0.00102265
0.00109221
0.00116925
0.00125083
0.00133312
0.00141218
0.00148491
0.0015494
0.00160481
0.00165087
0.00168734
0.00171384
0.0017299
0.00173527
0.00173023
0.00171579
0.00168041
0.00161606
0.00155254
0.00149154
0.00143429
0.00138109
0.00133262
0.00128891
0.00124951
0.00121375
0.00118086
0.00115003
0.00112065
0.00109244
0.00106542
0.00103971
0.00101515
0.000992111
0.000970638
0.000947653
0.000918324
0.000883942
0.000843778
0.000799736
0.000755513
0.000714727
0.000680635
0.000655206
0.000639517
0.000633929
0.000637911
0.000650167
0.000669319
0.000694372
0.000724462
0.000758395
0.000794784
0.000832343
0.000869723
0.000905659
0.000939215
0.000969983
0.000997562
0.00102168
0.00104244
0.00106024
0.00107577
0.0010899
0.00110354
0.00111771
0.00112445
0.0011223
0.00112004
0.00111794
0.0011166
0.00111661
0.00111857
0.00112302
0.00113039
0.00114089
0.00115452
0.00117103
0.00118997
0.00121075
0.00123275
0.00125539
0.00127808
0.00130043
0.000236682
0.000452391
0.000473397
0.000466372
0.000450703
0.000435199
0.000422098
0.000411708
0.000404033
0.000399045
0.000396662
0.000396723
0.000398966
0.000403043
0.00040853
0.000414962
0.000421853
0.000428733
0.000435159
0.000440699
0.000444882
0.000447391
0.000448622
0.000448834
0.000448198
0.000446803
0.000444655
0.000441655
0.000437593
0.000432145
0.000424913
0.00041552
0.000403774
0.000389769
0.000373891
0.000356742
0.000339027
0.000321482
0.000304854
0.00028989
0.000277386
0.000268259
0.000263561
0.00026438
0.000271493
0.000284816
0.000303024
0.000323822
0.000344823
0.000364402
0.000381998
0.000397863
0.000412601
0.000426786
0.000440777
0.000454665
0.000468314
0.000481416
0.000493561
0.000504311
0.000513262
0.000520131
0.000524815
0.00052745
0.000528419
0.000528328
0.000527929
0.000528023
0.000529351
0.000532511
0.000537905
0.000545719
0.00055593
0.000568328
0.00058255
0.000598111
0.000614447
0.00063096
0.000647081
0.000662329
0.000676379
0.000689117
0.00070067
0.000711402
0.000721877
0.000732792
0.000744902
0.000758967
0.000775724
0.000795895
0.000820223
0.000849511
0.000884642
0.000926551
0.000976098
0.00103383
0.00109965
0.0011725
0.00125026
0.00132994
0.00140834
0.00148275
0.00155142
0.00161356
0.00166884
0.00171679
0.0017564
0.00178599
0.00180374
0.00180828
0.00177779
0.00171641
0.0016509
0.00158465
0.00152057
0.00145967
0.00140259
0.00135057
0.00130423
0.00126324
0.00122707
0.00119492
0.00116606
0.00113961
0.00111495
0.00109187
0.00107037
0.00105011
0.00102951
0.00100979
0.000990022
0.000966851
0.000937196
0.000899119
0.000852412
0.000799833
0.000746164
0.000696404
0.000654201
0.000621432
0.000598734
0.000586001
0.000582563
0.000587339
0.000599192
0.000617177
0.000640436
0.000667933
0.000698486
0.000730835
0.00076363
0.000795628
0.000825892
0.000853697
0.000878556
0.000900341
0.000919258
0.000935729
0.000950597
0.000964541
0.000978452
0.000993273
0.00100997
0.0010293
0.00105178
0.00107666
0.00108322
0.00108482
0.00108721
0.00109102
0.00109683
0.00110511
0.00111624
0.0011304
0.00114757
0.00116749
0.00118974
0.0012138
0.00123905
0.00126486
0.000240637
0.000478354
0.000487515
0.000473702
0.000455126
0.000438119
0.000424026
0.000413019
0.000405062
0.000400029
0.000397712
0.000397841
0.000400088
0.000404068
0.000409352
0.000415465
0.000421903
0.000428148
0.000433697
0.000438074
0.00044092
0.00044263
0.000443277
0.000442916
0.000441577
0.000439257
0.000435901
0.000431396
0.000425568
0.000418213
0.000409147
0.000398278
0.000385687
0.000371667
0.0003567
0.000341397
0.000326444
0.000312579
0.0003006
0.000291387
0.000285895
0.000285077
0.000289657
0.000299759
0.000314585
0.000332425
0.000351152
0.000368965
0.000384904
0.000398908
0.000411499
0.000423368
0.000435086
0.000446961
0.000459035
0.00047113
0.000482914
0.000493977
0.000503888
0.000512262
0.000518823
0.000523453
0.000526233
0.000527458
0.000527612
0.000527316
0.000527253
0.000528085
0.00053038
0.00053457
0.000540925
0.000549553
0.000560413
0.00057333
0.000588016
0.000604092
0.000621114
0.000638608
0.000656115
0.000673235
0.000689687
0.000705349
0.00072029
0.000734775
0.000749247
0.000764278
0.000780527
0.000798692
0.000819486
0.000843632
0.000871866
0.000904949
0.000943648
0.000988671
0.00104054
0.00109937
0.00116468
0.00123514
0.00130873
0.00138294
0.00145541
0.00152442
0.00158915
0.00164945
0.00170532
0.00175621
0.00180047
0.00183538
0.00185611
0.00182163
0.00177708
0.00172598
0.00167058
0.00161372
0.00155635
0.00149909
0.00144426
0.00139346
0.00134772
0.00130739
0.00127223
0.00124122
0.00121428
0.00119023
0.00116808
0.00114725
0.00112735
0.00110797
0.00108853
0.00106842
0.00104615
0.00101899
0.000983601
0.000937081
0.000879701
0.000815613
0.000751133
0.00069212
0.000642287
0.00060314
0.000574766
0.000556557
0.000547564
0.00054668
0.000552833
0.000565118
0.000582736
0.000604809
0.000630276
0.000657915
0.000686404
0.000714457
0.000741015
0.000765268
0.000786697
0.000805174
0.000820922
0.000834363
0.000846069
0.000856772
0.000867372
0.00087885
0.000892285
0.000909043
0.000928989
0.000953437
0.000982625
0.0010161
0.00105088
0.00105727
0.00106345
0.00107097
0.00108035
0.00109206
0.00110641
0.00112355
0.00114338
0.00116564
0.00118992
0.00121563
0.000262473
0.000503337
0.000499778
0.000481031
0.000460406
0.000442005
0.000426754
0.000414832
0.00040611
0.000400283
0.00039699
0.000395889
0.000396652
0.00039894
0.000402402
0.000406636
0.000411185
0.000415565
0.000419312
0.000422027
0.00042407
0.000425244
0.00042543
0.000424568
0.000422619
0.000419548
0.000415307
0.000409837
0.000403078
0.000395001
0.000385636
0.000375116
0.000363703
0.000351794
0.000339905
0.000328648
0.000318707
0.000310835
0.000305828
0.000304469
0.000307376
0.000314786
0.000326312
0.000340856
0.000356811
0.000372543
0.00038689
0.000399423
0.000410374
0.000420347
0.000430005
0.000439847
0.000450123
0.000460843
0.000471821
0.000482742
0.000493225
0.000502873
0.000511329
0.000518321
0.000523703
0.000527489
0.000529859
0.000531154
0.000531838
0.00053245
0.00053354
0.000535622
0.000539124
0.000544372
0.000551582
0.000560857
0.000572201
0.000585522
0.000600641
0.000617306
0.000635203
0.000653979
0.000673275
0.000692758
0.000712163
0.000731331
0.00075024
0.000769015
0.000787929
0.000807382
0.00082787
0.000849957
0.00087425
0.000901383
0.000932009
0.000966778
0.00100631
0.00105112
0.00110152
0.00115746
0.00121837
0.0012831
0.00135001
0.00141723
0.00148297
0.00154602
0.00160611
0.00166342
0.00171814
0.00176963
0.00181587
0.00183562
0.00182307
0.00180278
0.00177717
0.00174633
0.00170932
0.00166624
0.00161954
0.00157158
0.00152396
0.0014782
0.00143558
0.00139693
0.00136263
0.00133256
0.0013061
0.00128244
0.00126063
0.00123971
0.00121892
0.00119776
0.00117581
0.00115228
0.00112534
0.00109167
0.00104692
0.000988136
0.000916821
0.000839163
0.000763098
0.000694972
0.000638161
0.000593537
0.000560569
0.000538161
0.00052507
0.000520066
0.00052204
0.000530074
0.000543408
0.000561276
0.00058273
0.000606689
0.000631921
0.000657116
0.000681042
0.000702674
0.000721306
0.000736662
0.000748903
0.000758514
0.000766185
0.000772781
0.00077928
0.000786708
0.000795996
0.000808043
0.000822736
0.000841806
0.000866822
0.000898164
0.000935621
0.000977809
0.00102086
0.00103637
0.00104553
0.00105588
0.00106796
0.00108219
0.00109881
0.00111789
0.00113929
0.00116264
0.000320621
0.000523909
0.000509834
0.000488062
0.000465817
0.000445782
0.000428936
0.000415661
0.000405684
0.000398426