/*--------------------------------*- C++ -*----------------------------------*\
| =========                 |                                                 |
| \\      /  F ield         | OpenFOAM: The Open Source CFD Toolbox           |
|  \\    /   O peration     | Version:  2112                                  |
|   \\  /    A nd           | Website:  www.openfoam.com                      |
|    \\/     M anipulation  |                                                 |
\*---------------------------------------------------------------------------*/
FoamFile
{
    version     2.0;
    format      ascii;
    arch        "LSB;label=32;scalar=64";
    class       surfaceScalarField;
    location    "0.17";
    object      phi;
}
// * * * * * * * * * * * * * * * * * * * * * * * * * * * * * * * * * * * * * //

dimensions      [0 3 -1 0 0 0 0];

oriented        oriented;

internalField   nonuniform List<scalar> 
24170
(
3.03967e-06
1.48739e-07
2.86465e-06
1.75019e-07
2.69144e-06
1.73206e-07
2.52247e-06
1.68973e-07
2.36315e-06
1.59323e-07
2.21906e-06
1.44089e-07
2.09402e-06
1.25037e-07
1.98999e-06
1.04028e-07
1.90727e-06
8.2726e-08
1.8446e-06
6.26681e-08
1.79954e-06
4.50534e-08
1.76892e-06
3.06199e-08
1.74935e-06
1.95794e-08
1.73796e-06
1.13807e-08
1.73231e-06
5.6586e-09
1.72957e-06
2.73382e-09
1.72407e-06
5.50263e-09
8.90005e-09
1.71517e-06
3.48777e-06
7.82152e-08
3.535e-06
1.27795e-07
3.56297e-06
1.45232e-07
3.57149e-06
1.60456e-07
3.5611e-06
1.69714e-07
3.53425e-06
1.70933e-07
3.49401e-06
1.65282e-07
3.44344e-06
1.54598e-07
3.38544e-06
1.40727e-07
3.32247e-06
1.2563e-07
3.25651e-06
1.1102e-07
3.18907e-06
9.80558e-08
3.12146e-06
8.71882e-08
3.05461e-06
7.82309e-08
2.98938e-06
7.08951e-08
2.92673e-06
6.53828e-08
2.8715e-06
6.07348e-08
5.07321e-08
2.82966e-06
3.6815e-06
5.92305e-08
3.70039e-06
1.08902e-07
3.71947e-06
1.26157e-07
3.74038e-06
1.39544e-07
3.76124e-06
1.48859e-07
3.78013e-06
1.52037e-07
3.79567e-06
1.49741e-07
3.80688e-06
1.43396e-07
3.81313e-06
1.34471e-07
3.81438e-06
1.24379e-07
3.81102e-06
1.14379e-07
3.80373e-06
1.05348e-07
3.79324e-06
9.76745e-08
3.7802e-06
9.12779e-08
3.76519e-06
8.5898e-08
3.74953e-06
8.10445e-08
3.73471e-06
7.55522e-08
6.42519e-08
3.7212e-06
3.93649e-06
4.81285e-08
3.94872e-06
9.6674e-08
3.95894e-06
1.15931e-07
3.96964e-06
1.28843e-07
3.98108e-06
1.37423e-07
3.99288e-06
1.40238e-07
4.00453e-06
1.38087e-07
4.01547e-06
1.32457e-07
4.0253e-06
1.2464e-07
4.03387e-06
1.1581e-07
4.04127e-06
1.06985e-07
4.04771e-06
9.89088e-08
4.05346e-06
9.19248e-08
4.05878e-06
8.59553e-08
4.06402e-06
8.06556e-08
4.06968e-06
7.53838e-08
4.07595e-06
6.92852e-08
5.98105e-08
4.08039e-06
4.21555e-06
3.9701e-08
4.22629e-06
8.59416e-08
4.23558e-06
1.06642e-07
4.24474e-06
1.19683e-07
4.2542e-06
1.2796e-07
4.26368e-06
1.30753e-07
4.27287e-06
1.28898e-07
4.28151e-06
1.23817e-07
4.28944e-06
1.16712e-07
4.2966e-06
1.08653e-07
4.30305e-06
1.0053e-07
4.30902e-06
9.29379e-08
4.31482e-06
8.6131e-08
4.32073e-06
8.00436e-08
4.32702e-06
7.43636e-08
4.33387e-06
6.85345e-08
4.34132e-06
6.18314e-08
5.28055e-08
4.34833e-06
4.51574e-06
3.30514e-08
4.52563e-06
7.60484e-08
4.53491e-06
9.73616e-08
4.54404e-06
1.10551e-07
4.55332e-06
1.18678e-07
4.56253e-06
1.21544e-07
4.57139e-06
1.20041e-07
4.5797e-06
1.15504e-07
4.58736e-06
1.09055e-07
4.59435e-06
1.0166e-07
4.60078e-06
9.41004e-08
4.60684e-06
8.6878e-08
4.61276e-06
8.02107e-08
4.61878e-06
7.40244e-08
4.6251e-06
6.80472e-08
4.63178e-06
6.18529e-08
4.63875e-06
5.48661e-08
4.62833e-08
4.64527e-06
4.83805e-06
2.77256e-08
4.84712e-06
6.69731e-08
4.85632e-06
8.81613e-08
4.86562e-06
1.0125e-07
4.87507e-06
1.09236e-07
4.88442e-06
1.12185e-07
4.89344e-06
1.11021e-07
4.90194e-06
1.07007e-07
4.90981e-06
1.01181e-07
4.91708e-06
9.43986e-08
4.92383e-06
8.73417e-08
4.93026e-06
8.04566e-08
4.93653e-06
7.394e-08
4.94282e-06
6.77291e-08
4.94927e-06
6.15943e-08
4.95592e-06
5.52125e-08
4.9626e-06
4.81823e-08
4.00863e-08
4.9688e-06
5.18393e-06
2.33801e-08
5.1922e-06
5.87027e-08
5.20117e-06
7.91907e-08
5.21054e-06
9.18727e-08
5.22017e-06
9.96116e-08
5.22972e-06
1.02639e-07
5.23895e-06
1.01791e-07
5.24771e-06
9.82471e-08
5.2559e-06
9.2989e-08
5.26352e-06
8.67739e-08
5.27067e-06
8.01966e-08
5.27747e-06
7.36505e-08
5.2841e-06
6.73093e-08
5.29069e-06
6.11417e-08
5.29731e-06
5.49749e-08
5.30396e-06
4.85677e-08
5.31048e-06
4.16586e-08
3.40615e-08
5.3165e-06
5.55495e-06
1.97691e-08
5.56248e-06
5.11661e-08
5.57115e-06
7.05244e-08
5.58047e-06
8.25507e-08
5.59022e-06
8.98629e-08
5.59996e-06
9.28991e-08
5.6094e-06
9.23555e-08
5.61839e-06
8.92545e-08
5.62687e-06
8.45096e-08
5.63483e-06
7.8814e-08
5.64233e-06
7.26906e-08
5.6495e-06
6.64868e-08
5.65645e-06
6.03572e-08
5.66329e-06
5.42985e-08
5.67007e-06
4.81962e-08
5.67675e-06
4.1889e-08
5.68319e-06
3.52215e-08
2.81414e-08
5.68911e-06
5.95283e-06
1.67166e-08
5.95972e-06
4.42765e-08
5.96806e-06
6.21791e-08
5.97724e-06
7.3372e-08
5.987e-06
8.01096e-08
5.99689e-06
8.30062e-08
6.00656e-06
8.26832e-08
6.01581e-06
8.00054e-08
6.02457e-06
7.57534e-08
6.03283e-06
7.05491e-08
6.04066e-06
6.48638e-08
6.04814e-06
5.90077e-08
6.05537e-06
5.31253e-08
6.06243e-06
4.72396e-08
6.06934e-06
4.12882e-08
6.07605e-06
3.51796e-08
6.08243e-06
2.88379e-08
2.2284e-08
6.08829e-06
6.37944e-06
1.40915e-08
6.38576e-06
3.79568e-08
6.39379e-06
5.41483e-08
6.4028e-06
6.43629e-08
6.41247e-06
7.04399e-08
6.4224e-06
7.30744e-08
6.43224e-06
7.28416e-08
6.44176e-06
7.04865e-08
6.45084e-06
6.66756e-08
6.45944e-06
6.19449e-08
6.4676e-06
5.67068e-08
6.47538e-06
5.12262e-08
6.48286e-06
4.56408e-08
6.49011e-06
3.99958e-08
6.49712e-06
3.4273e-08
6.50386e-06
2.84421e-08
6.51022e-06
2.24829e-08
1.6453e-08
6.51605e-06
5.74281e-06
1.21145e-08
5.74775e-06
3.30212e-08
5.7543e-06
4.75942e-08
5.76178e-06
5.68791e-08
5.76987e-06
6.23548e-08
5.77824e-06
6.47051e-08
5.78661e-06
6.44706e-08
5.79479e-06
6.23047e-08
5.80267e-06
5.87978e-08
5.81019e-06
5.44204e-08
5.81737e-06
4.95355e-08
5.82421e-06
4.43811e-08
5.83076e-06
3.90923e-08
5.83704e-06
3.37167e-08
5.84306e-06
2.82538e-08
5.84879e-06
2.27125e-08
5.85416e-06
1.7108e-08
1.15199e-08
5.8591e-06
7.00019e-06
1.00796e-08
7.00548e-06
2.77317e-08
7.01271e-06
4.03649e-08
7.02111e-06
4.8481e-08
7.03026e-06
5.3202e-08
7.0398e-06
5.51665e-08
7.04941e-06
5.48616e-08
7.05887e-06
5.28407e-08
7.06806e-06
4.96137e-08
7.07689e-06
4.55856e-08
7.08536e-06
4.10651e-08
7.09348e-06
3.62653e-08
7.10125e-06
3.13203e-08
7.10867e-06
2.62913e-08
7.11573e-06
2.11991e-08
7.12238e-06
1.60617e-08
7.12858e-06
1.09057e-08
5.82379e-09
7.13428e-06
8.53294e-06
7.98951e-09
8.53854e-06
2.21318e-08
8.54642e-06
3.24843e-08
8.55573e-06
3.91637e-08
8.56599e-06
4.29502e-08
8.57675e-06
4.44021e-08
8.58767e-06
4.39389e-08
8.59851e-06
4.20078e-08
8.60909e-06
3.90296e-08
8.61933e-06
3.53426e-08
8.6292e-06
3.12036e-08
8.63866e-06
2.67967e-08
8.64774e-06
2.22442e-08
8.65641e-06
1.7619e-08
8.66464e-06
1.29675e-08
8.67238e-06
8.3214e-09
8.67958e-06
3.71214e-09
-7.76624e-10
8.68618e-06
1.04014e-05
5.83886e-09
1.04072e-05
1.62566e-08
1.04157e-05
2.39841e-08
1.0426e-05
2.89322e-08
1.04373e-05
3.15794e-08
1.04494e-05
3.23663e-08
1.04617e-05
3.16332e-08
1.0474e-05
2.97204e-08
1.04861e-05
2.69534e-08
1.04978e-05
2.36001e-08
1.05091e-05
1.98659e-08
1.052e-05
1.59024e-08
1.05305e-05
1.18166e-08
1.05404e-05
7.68187e-09
1.05498e-05
3.55107e-09
1.05587e-05
-5.32763e-10
1.05669e-05
-4.52994e-09
-8.36705e-09
1.05745e-05
1.2679e-05
3.6147e-09
1.26852e-05
1.01026e-08
1.26943e-05
1.4877e-08
1.27054e-05
1.7781e-08
1.27179e-05
1.90582e-08
1.27313e-05
1.9006e-08
1.27451e-05
1.78712e-08
1.27589e-05
1.58902e-08
1.27726e-05
1.32905e-08
1.27859e-05
1.02655e-08
1.27988e-05
6.96638e-09
1.28112e-05
3.5077e-09
1.2823e-05
-2.43756e-11
1.28343e-05
-3.56854e-09
1.28449e-05
-7.07378e-09
1.28549e-05
-1.04994e-08
1.28642e-05
-1.38097e-08
-1.69449e-08
1.28727e-05
1.54555e-05
1.28557e-09
1.5462e-05
3.59765e-09
1.54718e-05
5.09578e-09
1.54839e-05
5.63272e-09
1.54977e-05
5.28774e-09
1.55125e-05
4.20761e-09
1.55279e-05
2.53015e-09
1.55434e-05
3.88958e-10
1.55587e-05
-2.08568e-09
1.55738e-05
-4.77996e-09
1.55883e-05
-7.60265e-09
1.56023e-05
-1.0483e-08
1.56157e-05
-1.33663e-08
1.56283e-05
-1.62103e-08
1.56402e-05
-1.89804e-08
1.56514e-05
-2.16471e-08
1.56618e-05
-2.41858e-08
-2.65527e-08
1.56714e-05
1.88401e-05
-1.22383e-09
1.88472e-05
-3.46915e-09
1.88579e-05
-5.62683e-09
1.88714e-05
-7.80029e-09
1.88867e-05
-1.0034e-08
1.89032e-05
-1.23348e-08
1.89205e-05
-1.46873e-08
1.89379e-05
-1.70638e-08
1.89553e-05
-1.94334e-08
1.89722e-05
-2.17681e-08
1.89887e-05
-2.40454e-08
1.90044e-05
-2.62481e-08
1.90194e-05
-2.83628e-08
1.90336e-05
-3.03789e-08
1.90469e-05
-3.22869e-08
1.90593e-05
-3.40773e-08
1.90709e-05
-3.57417e-08
-3.72549e-08
1.90816e-05
2.29662e-05
-4.0935e-09
2.29744e-05
-1.16238e-08
2.29867e-05
-1.80066e-08
2.30022e-05
-2.33039e-08
2.30199e-05
-2.77118e-08
2.3039e-05
-3.14182e-08
2.30589e-05
-3.45452e-08
2.3079e-05
-3.71794e-08
2.30989e-05
-3.93992e-08
2.31185e-05
-4.12749e-08
2.31373e-05
-4.28654e-08
2.31552e-05
-4.42197e-08
2.31723e-05
-4.53792e-08
2.31883e-05
-4.63774e-08
2.32032e-05
-4.72402e-08
2.32171e-05
-4.79861e-08
2.323e-05
-4.86281e-08
-4.9162e-08
2.32419e-05
1.6813e-05
-6.35621e-09
1.68193e-05
-1.79604e-08
1.68288e-05
-2.74763e-08
1.68405e-05
-3.49842e-08
1.68536e-05
-4.08908e-08
1.68678e-05
-4.55488e-08
1.68824e-05
-4.91687e-08
1.68971e-05
-5.19145e-08
1.69117e-05
-5.39459e-08
1.69258e-05
-5.54049e-08
1.69393e-05
-5.64096e-08
1.69522e-05
-5.70594e-08
1.69642e-05
-5.74392e-08
1.69755e-05
-5.76192e-08
1.69859e-05
-5.76547e-08
1.69955e-05
-5.75869e-08
1.70043e-05
-5.74461e-08
-5.72428e-08
1.70124e-05
1.46368e-05
-8.62586e-09
1.46431e-05
-2.42139e-08
1.46522e-05
-3.65585e-08
1.46631e-05
-4.59121e-08
1.46753e-05
-5.30422e-08
1.46882e-05
-5.8466e-08
1.47014e-05
-6.24446e-08
1.47147e-05
-6.52084e-08
1.47278e-05
-6.69935e-08
1.47404e-05
-6.80032e-08
1.47524e-05
-6.8405e-08
1.47637e-05
-6.8344e-08
1.47742e-05
-6.79471e-08
1.47839e-05
-6.73206e-08
1.47928e-05
-6.65491e-08
1.48009e-05
-6.56971e-08
1.48082e-05
-6.48118e-08
-6.39171e-08
1.48149e-05
1.27426e-05
-1.10757e-08
1.27491e-05
-3.07386e-08
1.27581e-05
-4.55897e-08
1.27686e-05
-5.64044e-08
1.27801e-05
-6.45178e-08
1.27922e-05
-7.05576e-08
1.28045e-05
-7.47828e-08
1.28168e-05
-7.74881e-08
1.28288e-05
-7.89822e-08
1.28403e-05
-7.95158e-08
1.28512e-05
-7.92958e-08
1.28614e-05
-7.85093e-08
1.28708e-05
-7.73252e-08
1.28793e-05
-7.58858e-08
1.28871e-05
-7.4306e-08
1.28941e-05
-7.26747e-08
1.29003e-05
-7.10577e-08
-6.94929e-08
1.29059e-05
1.10938e-05
-1.39005e-08
1.11008e-05
-3.78215e-08
1.111e-05
-5.47435e-08
1.11202e-05
-6.66103e-08
1.11312e-05
-7.55061e-08
1.11427e-05
-8.20384e-08
1.11543e-05
-8.64167e-08
1.11658e-05
-8.90069e-08
1.1177e-05
-9.01795e-08
1.11877e-05
-9.02159e-08
1.11978e-05
-8.93533e-08
1.12071e-05
-8.782e-08
1.12156e-05
-8.58279e-08
1.12233e-05
-8.35571e-08
1.12301e-05
-8.1154e-08
1.12362e-05
-7.87336e-08
1.12415e-05
-7.63812e-08
-7.41466e-08
1.12461e-05
9.65868e-06
-1.73685e-08
9.66657e-06
-4.5712e-08
9.67592e-06
-6.40855e-08
9.68592e-06
-7.66115e-08
9.69654e-06
-8.61293e-08
9.70753e-06
-9.30272e-08
9.71857e-06
-9.74585e-08
9.72944e-06
-9.98757e-08
9.73995e-06
-1.00694e-07
9.74995e-06
-1.00208e-07
9.75927e-06
-9.86783e-08
9.76783e-06
-9.63762e-08
9.77556e-06
-9.35577e-08
9.78244e-06
-9.04394e-08
9.78849e-06
-8.72022e-08
9.79374e-06
-8.39905e-08
9.79827e-06
-8.09122e-08
-7.80281e-08
9.80216e-06
8.40984e-06
-2.18543e-08
8.41881e-06
-5.46788e-08
8.42834e-06
-7.36236e-08
8.43816e-06
-8.64258e-08
8.44844e-06
-9.64155e-08
8.45894e-06
-1.03527e-07
8.46937e-06
-1.07888e-07
8.47956e-06
-1.10064e-07
8.48937e-06
-1.105e-07
8.49864e-06
-1.09484e-07
8.50725e-06
-1.07288e-07
8.51511e-06
-1.04231e-07
8.52216e-06
-1.00608e-07
8.52838e-06
-9.66595e-08
8.53378e-06
-9.26045e-08
8.53841e-06
-8.86195e-08
8.54233e-06
-8.48337e-08
-8.12783e-08
8.54558e-06
7.32327e-06
-2.78405e-08
7.33363e-06
-6.50354e-08
7.34339e-06
-8.33818e-08
7.35295e-06
-9.59946e-08
7.36281e-06
-1.06276e-07
7.37278e-06
-1.13489e-07
7.38263e-06
-1.17739e-07
7.39227e-06
-1.19711e-07
7.40162e-06
-1.19846e-07
7.41054e-06
-1.18403e-07
7.41889e-06
-1.1564e-07
7.42656e-06
-1.11904e-07
7.43348e-06
-1.07527e-07
7.4396e-06
-1.02778e-07
7.44492e-06
-9.79241e-08
7.44949e-06
-9.31858e-08
7.45338e-06
-8.87294e-08
-8.46568e-08
7.45676e-06
6.37838e-06
-3.61566e-08
6.39042e-06
-7.70736e-08
6.4008e-06
-9.37629e-08
6.411e-06
-1.06197e-07
6.42149e-06
-1.16759e-07
6.43208e-06
-1.24078e-07
6.44269e-06
-1.28354e-07
6.45334e-06
-1.30356e-07
6.46392e-06
-1.30434e-07
6.4743e-06
-1.28777e-07
6.48428e-06
-1.25623e-07
6.49365e-06
-1.21269e-07
6.50219e-06
-1.16065e-07
6.50979e-06
-1.10387e-07
6.51645e-06
-1.0458e-07
6.52221e-06
-9.89494e-08
6.52711e-06
-9.36247e-08
-8.86187e-08
6.53107e-06
5.56042e-06
-5.11132e-08
5.57666e-06
-9.33125e-08
5.59199e-06
-1.09094e-07
5.60929e-06
-1.23496e-07
5.6281e-06
-1.35567e-07
5.64746e-06
-1.43438e-07
5.66689e-06
-1.4779e-07
5.68588e-06
-1.49342e-07
5.70378e-06
-1.48336e-07
5.71997e-06
-1.44972e-07
5.73394e-06
-1.39591e-07
5.74535e-06
-1.32678e-07
5.75406e-06
-1.24771e-07
5.76002e-06
-1.1635e-07
5.76329e-06
-1.07852e-07
5.76404e-06
-9.97001e-08
5.76263e-06
-9.22114e-08
-8.60395e-08
5.76005e-06
4.88814e-06
-1.11646e-07
4.93907e-06
-1.44247e-07
4.98086e-06
-1.50881e-07
5.01192e-06
-1.54556e-07
5.03107e-06
-1.54718e-07
5.0388e-06
-1.51165e-07
5.03578e-06
-1.44774e-07
5.02285e-06
-1.3641e-07
5.00106e-06
-1.26544e-07
4.97163e-06
-1.15538e-07
4.93582e-06
-1.03785e-07
4.89486e-06
-9.17137e-08
4.84983e-06
-7.97453e-08
4.80172e-06
-6.82361e-08
4.75134e-06
-5.74763e-08
4.69939e-06
-4.7753e-08
4.64638e-06
-3.9196e-08
-3.194e-08
4.59228e-06
4.09103e-06
3.94678e-06
3.7959e-06
3.64135e-06
3.48663e-06
3.33546e-06
3.19069e-06
3.05428e-06
2.92774e-06
2.8122e-06
2.70841e-06
2.6167e-06
2.53695e-06
2.46872e-06
2.41124e-06
2.36349e-06
2.32429e-06
2.29235e-06
2.8039e-08
-2.8039e-08
6.00479e-08
-3.20089e-08
9.41813e-08
-3.41334e-08
1.29935e-07
-3.57533e-08
1.67013e-07
-3.70785e-08
2.05858e-07
-3.88447e-08
2.46713e-07
-4.08556e-08
2.88867e-07
-4.21537e-08
3.31393e-07
-4.25262e-08
3.73462e-07
-4.20691e-08
4.14377e-07
-4.09146e-08
4.53538e-07
-3.91608e-08
4.9041e-07
-3.68718e-08
5.24501e-07
-3.40909e-08
5.55351e-07
-3.08507e-08
5.82529e-07
-2.71776e-08
6.05623e-07
-2.3094e-08
6.2424e-07
-1.86176e-08
6.37996e-07
-1.37558e-08
6.46491e-07
-8.49484e-09
6.49311e-07
-2.81976e-09
6.46087e-07
3.2237e-09
6.36695e-07
9.39221e-09
6.21199e-07
1.54963e-08
5.99764e-07
2.14341e-08
5.72649e-07
2.71155e-08
5.40649e-07
3.20004e-08
5.05182e-07
3.54667e-08
4.6714e-07
3.80415e-08
4.26729e-07
4.0411e-08
3.84229e-07
4.25006e-08
3.40019e-07
4.42093e-08
2.94547e-07
4.54719e-08
2.48304e-07
4.62434e-08
2.01812e-07
4.64926e-08
1.55609e-07
4.62026e-08
1.10237e-07
4.53722e-08
6.62208e-08
4.40159e-08
2.40581e-08
4.21626e-08
-1.57903e-08
3.98484e-08
-5.28995e-08
3.71092e-08
-8.68296e-08
3.393e-08
-1.17131e-07
3.03012e-08
-1.43388e-07
2.62569e-08
-1.65262e-07
2.18749e-08
-1.82692e-07
1.74296e-08
-1.96177e-07
1.34851e-08
-2.05736e-07
9.55923e-09
-2.10674e-07
4.93783e-09
-2.10993e-07
3.18349e-10
-2.07457e-07
-3.53574e-09
-2.01624e-07
-5.83248e-09
-1.94986e-07
-6.6388e-09
-1.88842e-07
-6.1439e-09
-1.84184e-07
-4.65807e-09
-1.81668e-07
-2.51552e-09
-1.81541e-07
-1.26901e-10
-1.84155e-07
2.61419e-09
-1.89344e-07
5.18889e-09
-1.96792e-07
7.44786e-09
-2.05867e-07
9.07491e-09
-2.15697e-07
9.82966e-09
-2.25459e-07
9.76282e-09
-2.34665e-07
9.20593e-09
-2.432e-07
8.53498e-09
-2.51171e-07
7.9706e-09
-2.58752e-07
7.58108e-09
-2.66144e-07
7.39203e-09
-2.73618e-07
7.47416e-09
-2.81574e-07
7.95535e-09
-2.90129e-07
8.55552e-09
-2.99286e-07
9.15672e-09
-3.09367e-07
1.00815e-08
-3.20825e-07
1.14581e-08
-3.34111e-07
1.32855e-08
-3.49638e-07
1.55267e-08
-3.67761e-07
1.81237e-08
-3.88767e-07
2.1006e-08
-4.12871e-07
2.41034e-08
-4.40233e-07
2.73622e-08
-4.70994e-07
3.07613e-08
-5.05317e-07
3.43232e-08
-5.43435e-07
3.81178e-08
-5.85694e-07
4.22584e-08
-6.32584e-07
4.68907e-08
-6.84762e-07
5.21774e-08
-7.43041e-07
5.82791e-08
-8.08377e-07
6.5336e-08
-8.81826e-07
7.34487e-08
-9.64487e-07
8.26618e-08
-1.05744e-06
9.29485e-08
-1.16163e-06
1.04199e-07
-1.27784e-06
1.16209e-07
-1.40652e-06
1.28678e-07
-1.54772e-06
1.41203e-07
-1.70102e-06
1.53292e-07
-1.8654e-06
1.64381e-07
-2.03926e-06
1.73866e-07
-2.22042e-06
1.81157e-07
-2.40616e-06
1.85739e-07
-2.5934e-06
1.87239e-07
-2.7789e-06
1.85504e-07
-2.95957e-06
1.80667e-07
-3.13275e-06
1.73184e-07
-3.29657e-06
1.63815e-07
-3.45014e-06
1.53574e-07
-3.59201e-06
1.41864e-07
-3.71984e-06
1.27834e-07
-3.83324e-06
1.13394e-07
-3.93359e-06
1.00357e-07
-4.02255e-06
8.89552e-08
-4.10183e-06
7.92783e-08
-4.17322e-06
7.13947e-08
-4.23843e-06
6.52056e-08
-4.29888e-06
6.04546e-08
-4.35565e-06
5.67649e-08
-4.40928e-06
5.36368e-08
-4.45973e-06
5.04454e-08
-4.50621e-06
4.64759e-08
-4.54714e-06
4.09328e-08
-4.58003e-06
3.28906e-08
-4.60153e-06
2.15038e-08
-4.60959e-06
8.05417e-09
-4.59974e-06
-9.8492e-09
-4.57018e-06
-2.95609e-08
-4.51878e-06
-5.13951e-08
-4.44249e-06
-7.62922e-08
-4.33817e-06
-1.04322e-07
-4.20303e-06
-1.35133e-07
-4.03478e-06
-1.6825e-07
-3.83177e-06
-2.03016e-07
-3.59321e-06
-2.38561e-07
-3.31904e-06
-2.7417e-07
-3.01004e-06
-3.08993e-07
-2.66807e-06
-3.41971e-07
-2.29642e-06
-3.71655e-07
-1.90025e-06
-3.96164e-07
-1.48694e-06
-4.13313e-07
-1.06877e-06
-4.18168e-07
-6.64144e-07
-4.04629e-07
-2.90431e-07
-3.73712e-07
5.99455e-08
-3.50377e-07
4.0906e-07
-3.49114e-07
7.56241e-07
-3.47182e-07
1.08528e-06
-3.29035e-07
1.3861e-06
-3.0082e-07
1.65627e-06
-2.70172e-07
1.8963e-06
-2.40032e-07
2.10781e-06
-2.11509e-07
2.29294e-06
-1.85128e-07
2.45359e-06
-1.60655e-07
2.59118e-06
-1.37593e-07
2.70768e-06
-1.16491e-07
2.80588e-06
-9.82061e-08
2.88883e-06
-8.29471e-08
2.95921e-06
-7.03761e-08
3.01912e-06
-5.99129e-08
3.0702e-06
-5.10856e-08
3.11357e-06
-4.33633e-08
3.14982e-06
-3.62508e-08
3.17916e-06
-2.93426e-08
3.20149e-06
-2.23301e-08
3.21626e-06
-1.47676e-08
3.2234e-06
-7.13765e-09
3.22223e-06
1.16244e-09
3.21175e-06
1.04871e-08
3.19348e-06
1.827e-08
3.16781e-06
2.56689e-08
3.1353e-06
3.25046e-08
3.09659e-06
3.87165e-08
3.05229e-06
4.42932e-08
3.0031e-06
4.91969e-08
2.94966e-06
5.34405e-08
2.89252e-06
5.71309e-08
2.83204e-06
6.04813e-08
2.76804e-06
6.39996e-08
2.69951e-06
6.853e-08
2.62188e-06
7.76334e-08
2.51997e-06
1.0191e-07
1.4938e-07
2.37059e-06
3.30712e-08
-6.11102e-08
6.8697e-08
-6.76347e-08
1.06989e-07
-7.24257e-08
1.47289e-07
-7.60533e-08
1.88887e-07
-7.86768e-08
2.3062e-07
-8.05771e-08
2.71721e-07
-8.19565e-08
3.12118e-07
-8.25509e-08
3.51765e-07
-8.21736e-08
3.90472e-07
-8.07755e-08
4.27934e-07
-7.83769e-08
4.63789e-07
-7.50156e-08
4.97646e-07
-7.07293e-08
5.29109e-07
-6.55536e-08
5.57784e-07
-5.95258e-08
5.83294e-07
-5.26876e-08
6.05288e-07
-4.50876e-08
6.23452e-07
-3.67818e-08
6.37531e-07
-2.78343e-08
6.47354e-07
-1.83183e-08
6.52862e-07
-8.3281e-09
6.5412e-07
1.96611e-09
6.50824e-07
1.26876e-08
6.42804e-07
2.35168e-08
6.29902e-07
3.43358e-08
6.12112e-07
4.49064e-08
5.89244e-07
5.48683e-08
5.60839e-07
6.38709e-08
5.26996e-07
7.18845e-08
4.8842e-07
7.89875e-08
4.45786e-07
8.51347e-08
3.99758e-07
9.02366e-08
3.51024e-07
9.42064e-08
3.00305e-07
9.69627e-08
2.48363e-07
9.84343e-08
1.95995e-07
9.85706e-08
1.44014e-07
9.73531e-08
9.32283e-08
9.48018e-08
4.4414e-08
9.0977e-08
-1.70925e-09
8.59717e-08
-4.44582e-08
7.98581e-08
-8.32286e-08
7.27005e-08
-1.17541e-07
6.46132e-08
-1.47023e-07
5.57392e-08
-1.71413e-07
4.62648e-08
-1.90468e-07
3.64852e-08
-2.03784e-07
2.68002e-08
-2.11642e-07
1.74182e-08
-2.15218e-07
8.51358e-09
-2.15637e-07
7.36623e-10
-2.14115e-07
-5.05749e-09
-2.11466e-07
-8.48102e-09
-2.087e-07
-9.40511e-09
-2.06725e-07
-8.11886e-09
-2.06252e-07
-5.13063e-09
-2.07776e-07
-9.91881e-10
-2.11524e-07
3.62081e-09
-2.17211e-07
8.30144e-09
-2.24634e-07
1.26117e-08
-2.33318e-07
1.61323e-08
-2.42786e-07
1.85428e-08
-2.52657e-07
1.97008e-08
-2.62635e-07
1.97407e-08
-2.7246e-07
1.90304e-08
-2.81921e-07
1.79962e-08
-2.9092e-07
1.69697e-08
-2.99496e-07
1.6157e-08
-3.07796e-07
1.56922e-08
-3.16015e-07
1.56929e-08
-3.24315e-07
1.62561e-08
-3.33106e-07
1.73461e-08
-3.42932e-07
1.89823e-08
-3.54212e-07
2.13621e-08
-3.67364e-07
2.46095e-08
-3.82821e-07
2.87434e-08
-4.01001e-07
3.37063e-08
-4.22263e-07
3.93858e-08
-4.46898e-07
4.56412e-08
-4.75132e-07
5.2337e-08
-5.07149e-07
5.93795e-08
-5.43136e-07
6.67484e-08
-5.8333e-07
7.4517e-08
-6.28071e-07
8.28587e-08
-6.77851e-07
9.20387e-08
-7.33352e-07
1.02391e-07
-7.95463e-07
1.14289e-07
-8.65283e-07
1.28098e-07
-9.44085e-07
1.44138e-07
-1.03327e-06
1.62629e-07
-1.13426e-06
1.83653e-07
-1.24842e-06
2.07116e-07
-1.37694e-06
2.32715e-07
-1.52066e-06
2.59926e-07
-1.67997e-06
2.87987e-07
-1.85467e-06
3.15908e-07
-2.04388e-06
3.42503e-07
-2.24594e-06
3.66438e-07
-2.45841e-06
3.86336e-07
-2.67815e-06
4.00899e-07
-2.90147e-06
4.09059e-07
-3.12435e-06
4.10117e-07
-3.34269e-06
4.03848e-07
-3.55255e-06
3.90529e-07
-3.75025e-06
3.70876e-07
-3.9324e-06
3.45968e-07
-4.096e-06
3.17178e-07
-4.23971e-06
2.85574e-07
-4.36436e-06
2.52486e-07
-4.47138e-06
2.20407e-07
-4.56236e-06
1.91345e-07
-4.63947e-06
1.66065e-07
-4.70496e-06
1.44762e-07
-4.76076e-06
1.272e-07
-4.80836e-06
1.12799e-07
-4.84867e-06
1.00767e-07
-4.88211e-06
9.02008e-08
-4.90858e-06
8.01127e-08
-4.92755e-06
6.94113e-08
-4.93808e-06
5.70082e-08
-4.93907e-06
4.19255e-08
-4.92935e-06
2.3164e-08
-4.90736e-06
-4.82934e-10
-4.87293e-06
-2.63794e-08
-4.82366e-06
-5.91179e-08
-4.75564e-06
-9.75791e-08
-4.66566e-06
-1.41375e-07
-4.5514e-06
-1.90548e-07
-4.41083e-06
-2.44899e-07
-4.24209e-06
-3.03865e-07
-4.04364e-06
-3.66702e-07
-3.8139e-06
-4.3276e-07
-3.5512e-06
-5.01256e-07
-3.25516e-06
-5.70209e-07
-2.92748e-06
-6.36674e-07
-2.57103e-06
-6.98425e-07
-2.18985e-06
-7.52836e-07
-1.78987e-06
-7.96146e-07
-1.37812e-06
-8.25059e-07
-9.62354e-07
-8.33934e-07
-5.49401e-07
-8.17581e-07
-1.42366e-07
-7.80748e-07
2.55866e-07
-7.48608e-07
6.38526e-07
-7.31775e-07
1.00017e-06
-7.08827e-07
1.33732e-06
-6.66187e-07
1.64753e-06
-6.11027e-07
1.92951e-06
-5.52153e-07
2.18303e-06
-4.93551e-07
2.40899e-06
-4.3747e-07
2.60906e-06
-3.85193e-07
2.78529e-06
-3.36885e-07
2.94049e-06
-2.92797e-07
3.07728e-06
-2.53277e-07
3.19764e-06
-2.1857e-07
3.30318e-06
-1.88491e-07
3.39533e-06
-1.62525e-07
3.47543e-06
-1.40005e-07
3.54455e-06
-1.20215e-07
3.60352e-06
-1.02324e-07
3.65275e-06
-8.54852e-08
3.69232e-06
-6.8917e-08
3.72194e-06
-5.19418e-08
3.74127e-06
-3.41063e-08
3.75009e-06
-1.59544e-08
3.74911e-06
2.14374e-09
3.73782e-06
2.17817e-08
3.71638e-06
3.97051e-08
3.68527e-06
5.67801e-08
3.64502e-06
7.27572e-08
3.59635e-06
8.73876e-08
3.54009e-06
1.0055e-07
3.47717e-06
1.1212e-07
3.40854e-06
1.22069e-07
3.33511e-06
1.30559e-07
3.25759e-06
1.38003e-07
3.17632e-06
1.45269e-07
3.0908e-06
1.54048e-07
3.00007e-06
1.68368e-07
2.89809e-06
2.03888e-07
2.6282e-07
2.78465e-06
3.25915e-08
-9.37016e-08
6.8961e-08
-1.04004e-07
1.07092e-07
-1.10557e-07
1.46309e-07
-1.1527e-07
1.86047e-07
-1.18414e-07
2.25729e-07
-1.20259e-07
2.6478e-07
-1.21008e-07
3.02934e-07
-1.20704e-07
3.40072e-07
-1.19312e-07
3.76074e-07
-1.16777e-07
4.10751e-07
-1.13054e-07
4.43845e-07
-1.0811e-07
4.75043e-07
-1.01927e-07
5.04001e-07
-9.45111e-08
5.30363e-07
-8.58877e-08
5.53782e-07
-7.61071e-08
5.73936e-07
-6.5241e-08
5.90535e-07
-5.33815e-08
6.03341e-07
-4.06395e-08
6.12166e-07
-2.71435e-08
6.16877e-07
-1.30393e-08
6.17326e-07
1.51716e-09
6.13616e-07
1.6398e-08
6.057e-07
3.14324e-08
5.93586e-07
4.64498e-08
5.77254e-07
6.12387e-08
5.56581e-07
7.55413e-08
5.3136e-07
8.90918e-08
5.01556e-07
1.01689e-07
4.67366e-07
1.13177e-07
4.29108e-07
1.23392e-07
3.87198e-07
1.32147e-07
3.42151e-07
1.39253e-07
2.94592e-07
1.44522e-07
2.45238e-07
1.47789e-07
1.94888e-07
1.4892e-07
1.44403e-07
1.47839e-07
9.46665e-08
1.44538e-07
4.65584e-08
1.39085e-07
9.16567e-10
1.31613e-07
-4.15328e-08
1.22307e-07
-8.01825e-08
1.1135e-07
-1.14492e-07
9.89227e-08
-1.44027e-07
8.52744e-08
-1.68494e-07
7.07319e-08
-1.87735e-07
5.57257e-08
-2.0175e-07
4.08153e-08
-2.10988e-07
2.66566e-08
-2.16487e-07
1.40122e-08
-2.1952e-07
3.76954e-09
-2.2129e-07
-3.28764e-09
-2.22973e-07
-6.79756e-09
-2.25471e-07
-6.90745e-09
-2.2939e-07
-4.20004e-09
-2.35008e-07
4.875e-10
-2.42295e-07
6.29497e-09
-2.51069e-07
1.23956e-08
-2.60917e-07
1.81492e-08
-2.71373e-07
2.30672e-08
-2.82054e-07
2.68136e-08
-2.92723e-07
2.92114e-08
-3.03285e-07
3.02635e-08
-3.13716e-07
3.01708e-08
-3.23969e-07
2.92839e-08
-3.33971e-07
2.79983e-08
-3.43664e-07
2.66629e-08
-3.53059e-07
2.55519e-08
-3.62253e-07
2.48859e-08
-3.71419e-07
2.48591e-08
-3.80804e-07
2.56409e-08
-3.90821e-07
2.73628e-08
-4.02009e-07
3.01709e-08
-4.14882e-07
3.42352e-08
-4.29928e-07
3.96555e-08
-4.47613e-07
4.64284e-08
-4.68359e-07
5.44518e-08
-4.92524e-07
6.35507e-08
-5.20402e-07
7.35194e-08
-5.52238e-07
8.41733e-08
-5.88261e-07
9.54023e-08
-6.28726e-07
1.07213e-07
-6.73963e-07
1.19755e-07
-7.24433e-07
1.33328e-07
-7.80763e-07
1.48369e-07
-8.4379e-07
1.65419e-07
-9.1457e-07
1.85069e-07
-9.9437e-07
2.07898e-07
-1.08463e-06
2.34396e-07
-1.18688e-06
2.64885e-07
-1.30268e-06
2.99446e-07
-1.43342e-06
3.37859e-07
-1.58026e-06
3.79553e-07
-1.7439e-06
4.2357e-07
-1.92446e-06
4.68549e-07
-2.12129e-06
5.12736e-07
-2.33282e-06
5.54027e-07
-2.55645e-06
5.90069e-07
-2.78854e-06
6.18432e-07
-3.02448e-06
6.36839e-07
-3.25888e-06
6.43453e-07
-3.48592e-06
6.37157e-07
-3.69986e-06
6.17794e-07
-3.89561e-06
5.86272e-07
-4.06925e-06
5.44513e-07
-4.21857e-06
4.95291e-07
-4.34327e-06
4.41875e-07
-4.44516e-06
3.87469e-07
-4.52763e-06
3.34957e-07
-4.59403e-06
2.86807e-07
-4.6472e-06
2.44512e-07
-4.68964e-06
2.0851e-07
-4.72344e-06
1.78561e-07
-4.75019e-06
1.53951e-07
-4.77102e-06
1.33621e-07
-4.78656e-06
1.16315e-07
-4.79711e-06
1.00748e-07
-4.80262e-06
8.56209e-08
-4.80271e-06
6.94972e-08
-4.79663e-06
5.09363e-08
-4.78332e-06
2.86158e-08
-4.76156e-06
1.39809e-09
-4.72994e-06
-3.21009e-08
-4.68468e-06
-7.16398e-08
-4.62454e-06
-1.19261e-07
-4.54698e-06
-1.75138e-07
-4.44919e-06
-2.39162e-07
-4.32851e-06
-3.11232e-07
-4.18239e-06
-3.91012e-07
-4.00843e-06
-4.77826e-07
-3.80447e-06
-5.70662e-07
-3.5689e-06
-6.68331e-07
-3.30095e-06
-7.69208e-07
-3.00088e-06
-8.70275e-07
-2.67042e-06
-9.67133e-07
-2.31235e-06
-1.05649e-06
-1.93036e-06
-1.13483e-06
-1.52945e-06
-1.19706e-06
-1.11557e-06
-1.23893e-06
-6.93171e-07
-1.25634e-06
-2.65482e-07
-1.24527e-06
1.63383e-07
-1.20961e-06
5.80262e-07
-1.16549e-06
9.70003e-07
-1.12152e-06
1.32938e-06
-1.0682e-06
1.66218e-06
-9.9899e-07
1.96924e-06
-9.18083e-07
2.24951e-06
-8.3243e-07
2.50286e-06
-7.46894e-07
2.73029e-06
-6.64899e-07
2.93372e-06
-5.88629e-07
3.1155e-06
-5.18665e-07
3.27835e-06
-4.55643e-07
3.42473e-06
-3.9966e-07
3.55648e-06
-3.50324e-07
3.675e-06
-3.07003e-07
3.78145e-06
-2.68977e-07
3.87688e-06
-2.3544e-07
3.96214e-06
-2.05471e-07
4.0378e-06
-1.77987e-07
4.10418e-06
-1.5186e-07
4.16131e-06
-1.26046e-07
4.20906e-06
-9.96936e-08
4.24725e-06
-7.22982e-08
4.27516e-06
-4.38662e-08
4.29161e-06
-1.43034e-08
4.29659e-06
1.68011e-08
4.28863e-06
4.76679e-08
4.26706e-06
7.83419e-08
4.23161e-06
1.08214e-07
4.18247e-06
1.36529e-07
4.12042e-06
1.62592e-07
4.04674e-06
1.85802e-07
3.96301e-06
2.058e-07
3.87095e-06
2.22621e-07
3.77213e-06
2.36817e-07
3.66779e-06
2.49616e-07
3.55833e-06
2.635e-07
3.44403e-06
2.82672e-07
3.32641e-06
3.21512e-07
3.78936e-07
3.21029e-06
3.21467e-08
-1.25848e-07
6.58917e-08
-1.37749e-07
1.00142e-07
-1.44807e-07
1.34577e-07
-1.49705e-07
1.68989e-07
-1.52827e-07
2.03242e-07
-1.54512e-07
2.372e-07
-1.54965e-07
2.70728e-07
-1.54233e-07
3.03669e-07
-1.52253e-07
3.3581e-07
-1.48918e-07
3.66872e-07
-1.44117e-07
3.96526e-07
-1.37764e-07
4.24409e-07
-1.29811e-07
4.5015e-07
-1.20252e-07
4.73388e-07
-1.09126e-07
4.9379e-07
-9.65085e-08
5.1106e-07
-8.2511e-08
5.2495e-07
-6.72721e-08
5.35264e-07
-5.09535e-08
5.41856e-07
-3.3735e-08
5.44627e-07
-1.58104e-08
5.43542e-07
2.60193e-09
5.38588e-07
2.13525e-08
5.29822e-07
4.01978e-08
5.17319e-07
5.89528e-08
5.01153e-07
7.74047e-08
4.81366e-07
9.5328e-08
4.57967e-07
1.12491e-07
4.30985e-07
1.28671e-07
4.0051e-07
1.43653e-07
3.66698e-07
1.57203e-07
3.29784e-07
1.69062e-07
2.90091e-07
1.78946e-07
2.4805e-07
1.86563e-07
2.04205e-07
1.91633e-07
1.59206e-07
1.93919e-07
1.13796e-07
1.93249e-07
6.87802e-08
1.89554e-07
2.4987e-08
1.82878e-07
-1.67772e-08
1.73378e-07
-5.57715e-08
1.61302e-07
-9.1333e-08
1.46912e-07
-1.22898e-07
1.30488e-07
-1.50049e-07
1.12425e-07
-1.72573e-07
9.32558e-08
-1.90517e-07
7.36701e-08
-2.04253e-07
5.45515e-08
-2.14565e-07
3.69688e-08
-2.2264e-07
2.20872e-08
-2.29833e-07
1.0962e-08
-2.3735e-07
4.22963e-09
-2.46046e-07
1.89836e-09
-2.56245e-07
3.29195e-09
-2.67858e-07
7.41272e-09
-2.8054e-07
1.31693e-08
-2.93804e-07
1.9559e-08
-3.0722e-07
2.58112e-08
-3.20455e-07
3.13842e-08
-3.33303e-07
3.59156e-08
-3.45681e-07
3.91912e-08
-3.57603e-07
4.11333e-08
-3.69144e-07
4.18054e-08
-3.80385e-07
4.14116e-08
-3.91364e-07
4.02623e-08
-4.02079e-07
3.87134e-08
-4.12529e-07
3.71132e-08
-4.2276e-07
3.5783e-08
-4.32897e-07
3.50222e-08
-4.43155e-07
3.51179e-08
-4.53857e-07
3.63425e-08
-4.65439e-07
3.89448e-08
-4.78419e-07
4.31509e-08
-4.93323e-07
4.91388e-08
-5.10654e-07
5.69872e-08
-5.30878e-07
6.66522e-08
-5.54404e-07
7.79779e-08
-5.81586e-07
9.07327e-08
-6.12733e-07
1.04667e-07
-6.48136e-07
1.19576e-07
-6.881e-07
1.35366e-07
-7.32984e-07
1.52097e-07
-7.83244e-07
1.70015e-07
-8.39469e-07
1.89553e-07
-9.02417e-07
2.11316e-07
-9.7303e-07
2.36033e-07
-1.05245e-06
2.64484e-07
-1.14197e-06
2.97418e-07
-1.243e-06
3.35435e-07
-1.35701e-06
3.78887e-07
-1.48532e-06
4.27765e-07
-1.62908e-06
4.8161e-07
-1.78895e-06
5.39429e-07
-1.96501e-06
5.99629e-07
-2.15645e-06
6.59985e-07
-2.36136e-06
7.17653e-07
-2.5766e-06
7.69268e-07
-2.79771e-06
8.11174e-07
-3.01907e-06
8.39796e-07
-3.23437e-06
8.52142e-07
-3.43728e-06
8.46355e-07
-3.62227e-06
8.22154e-07
-3.78549e-06
7.8101e-07
-3.92516e-06
7.25946e-07
-4.04167e-06
6.61019e-07
-4.13705e-06
5.90676e-07
-4.21428e-06
5.19097e-07
-4.27652e-06
4.49713e-07
-4.32668e-06
3.85118e-07
-4.36698e-06
3.27112e-07
-4.39909e-06
2.76613e-07
-4.42431e-06
2.33734e-07
-4.44372e-06
1.97971e-07
-4.45815e-06
1.68379e-07
-4.46816e-06
1.43639e-07
-4.47402e-06
1.2217e-07