/*--------------------------------*- C++ -*----------------------------------*\
| =========                 |                                                 |
| \\      /  F ield         | OpenFOAM: The Open Source CFD Toolbox           |
|  \\    /   O peration     | Version:  2112                                  |
|   \\  /    A nd           | Website:  www.openfoam.com                      |
|    \\/     M anipulation  |                                                 |
\*---------------------------------------------------------------------------*/
FoamFile
{
    version     2.0;
    format      ascii;
    arch        "LSB;label=32;scalar=64";
    class       volScalarField;
    location    "0.48";
    object      p;
}
// * * * * * * * * * * * * * * * * * * * * * * * * * * * * * * * * * * * * * //

dimensions      [0 2 -2 0 0 0 0];

internalField   nonuniform List<scalar> 
12225
(
0.152732
-0.816012
-1.1224
-1.2769
-1.51605
-1.79049
-2.05295
-2.29538
-2.51294
-2.69923
-2.85357
-2.98265
-3.0977
-3.21067
-3.33286
-3.46354
-3.62916
-3.6911
-0.255151
-0.851453
-1.1271
-1.27731
-1.49185
-1.73949
-1.97766
-2.1979
-2.39576
-2.56536
-2.70588
-2.82342
-2.9288
-3.03414
-3.1517
-3.29614
-3.49497
-3.90019
-0.422658
-0.823293
-1.13
-1.31075
-1.52747
-1.77289
-2.00961
-2.22862
-2.4272
-2.60172
-2.75201
-2.88319
-3.00426
-3.1252
-3.25665
-3.4102
-3.61119
-3.8997
-0.590561
-0.901386
-1.18787
-1.3626
-1.56095
-1.7876
-2.00786
-2.21175
-2.39807
-2.56404
-2.70917
-2.8375
-2.95693
-3.07654
-3.20582
-3.35558
-3.53898
-3.76308
-0.738843
-0.981294
-1.23725
-1.41088
-1.60024
-1.8143
-2.0233
-2.21806
-2.39818
-2.56096
-2.70595
-2.83746
-2.96252
-3.08857
-3.22314
-3.37436
-3.54899
-3.75102
-0.863209
-1.04955
-1.28166
-1.45681
-1.63936
-1.84142
-2.0401
-2.2267
-2.4002
-2.55831
-2.70118
-2.83296
-2.95927
-3.08609
-3.21959
-3.36504
-3.5253
-3.69825
-0.975144
-1.11674
-1.32358
-1.49565
-1.67099
-1.86184
-2.05107
-2.23008
-2.39742
-2.55163
-2.69316
-2.82521
-2.9521
-3.07892
-3.21052
-3.34975
-3.49725
-3.64896
-1.07811
-1.18628
-1.36738
-1.53247
-1.69967
-1.87961
-2.05919
-2.23031
-2.39139
-2.54141
-2.68061
-2.81143
-2.93746
-3.06274
-3.19057
-3.32259
-3.45856
-3.59394
-1.17279
-1.25641
-1.41361
-1.56969
-1.72805
-1.89733
-2.06731
-2.23051
-2.38515
-2.53036
-2.66629
-2.79487
-2.91895
-3.0415
-3.16485
-3.28982
-3.41553
-3.5375
-1.2596
-1.32528
-1.46118
-1.60688
-1.75598
-1.91456
-2.07506
-2.23055
-2.37879
-2.51902
-2.65136
-2.77717
-2.89855
-3.01767
-3.13611
-3.25406
-3.37037
-3.48116
-1.33902
-1.39157
-1.50895
-1.64348
-1.78317
-1.93116
-2.08208
-2.22973
-2.37155
-2.50677
-2.63526
-2.75782
-2.87593
-2.99117
-3.10442
-3.21554
-3.3234
-3.42487
-1.4054
-1.44914
-1.55197
-1.67605
-1.80709
-1.94583
-2.08804
-2.2283
-2.36407
-2.49441
-2.61898
-2.73817
-2.85297
-2.96433
-3.07275
-3.17802
-3.27909
-3.37337
-1.46553
-1.50276
-1.59296
-1.70692
-1.82955
-1.95952
-2.09341
-2.22652
-2.35622
-2.48143
-2.60171
-2.71721
-2.82842
-2.93572
-3.03934
-3.13901
-3.2339
-3.32205
-1.52679
-1.55848
-1.63659
-1.73967
-1.85298
-1.97354
-2.09841
-2.22359
-2.34644
-2.46572
-2.58082
-2.6916
-2.79814
-2.90058
-2.99885
-3.09248
-3.18094
-3.26287
-1.58621
-1.61322
-1.68038
-1.77234
-1.87573
-1.98645
-2.10183
-2.21845
-2.33375
-2.4463
-2.55534
-2.66044
-2.76138
-2.85803
-2.95018
-3.03745
-3.11946
-3.1952
-1.63937
-1.6625
-1.72023
-1.80153
-1.8949
-1.99579
-2.10159
-2.20935
-2.31661
-2.42183
-2.52406
-2.62269
-2.71729
-2.80755
-2.89318
-2.97386
-3.04936
-3.11909
-1.67971
-1.69975
-1.74986
-1.82181
-1.90588
-1.99755
-2.09427
-2.19338
-2.29259
-2.39028
-2.48538
-2.57714
-2.66501
-2.74861
-2.82764
-2.90188
-2.97121
-3.03533
-1.69748
-1.71535
-1.76007
-1.82497
-1.90162
-1.98573
-2.07481
-2.16646
-2.25847
-2.34923
-2.4376
-2.52277
-2.60414
-2.68132
-2.75403
-2.82215
-2.88562
-2.94439
-1.67777
-1.69461
-1.73692
-1.79843
-1.87105
-1.95071
-2.03509
-2.12188
-2.20895
-2.29468
-2.37791
-2.45784
-2.53386
-2.60559
-2.67285
-2.73556
-2.79377
-2.84761
-1.61412
-1.63217
-1.6771
-1.74115
-1.81543
-1.8961
-1.9811
-2.0681
-2.15489
-2.23984
-2.32181
-2.39996
-2.47369
-2.54267
-2.60675
-2.66595
-2.7204
-2.77038
-1.53572
-1.55636
-1.60709
-1.67708
-1.75598
-1.84054
-1.92913
-2.01927
-2.10859
-2.19548
-2.27878
-2.35759
-2.4313
-2.49958
-2.56232
-2.61962
-2.67168
-2.71891
-1.44323
-1.46859
-1.529
-1.6078
-1.69312
-1.78347
-1.87772
-1.97296
-2.06669
-2.15733
-2.2437
-2.32479
-2.39992
-2.46876
-2.53123
-2.5875
-2.63785
-2.68287
-1.34029
-1.37359
-1.44827
-1.53778
-1.63012
-1.72729
-1.82851
-1.93006
-2.02941
-2.12511
-2.21585
-2.30044
-2.37806
-2.44837
-2.51129
-2.56702
-2.61593
-2.65868
-1.22878
-1.27518
-1.36933
-1.47009
-1.56923
-1.67396
-1.78281
-1.89112
-1.99669
-2.09827
-2.19431
-2.2833
-2.3643
-2.43687
-2.50095
-2.55678
-2.60485
-2.64617
-1.10943
-1.17779
-1.29671
-1.40655
-1.51123
-1.62433
-1.74143
-1.85659
-1.96846
-2.07611
-2.17759
-2.27102
-2.35536
-2.43019
-2.49533
-2.55091
-2.59739
-2.63565
-0.981359
-1.08533
-1.23525
-1.34883
-1.45355
-1.5719
-1.69541
-1.81657
-1.9349
-2.04964
-2.15838
-2.25848
-2.34848
-2.42807
-2.49707
-2.55559
-2.60435
-2.6454
-0.838964
-0.985976
-1.1727
-1.29165
-1.39886
-1.52178
-1.64921
-1.77388
-1.8963
-2.01565
-2.12904
-2.23365
-2.32741
-2.40912
-2.47823
-2.53498
-2.58001
-2.61509
-0.682031
-0.877881
-1.08318
-1.20634
-1.33087
-1.47166
-1.61217
-1.74905
-1.8845
-2.01708
-2.1432
-2.26013
-2.36565
-2.45752
-2.53474
-2.5977
-2.64856
-2.69119
-0.529725
-0.898335
-1.0913
-1.17746
-1.29415
-1.43406
-1.56993
-1.7022
-1.83517
-1.96697
-2.09321
-2.21009
-2.31446
-2.4036
-2.47603
-2.53157
-2.57189
-2.59892
-0.0953345
-0.810926
-1.0516
-1.13879
-1.27242
-1.43087
-1.58351
-1.73234
-1.88213
-2.0305
-2.17264
-2.30447
-2.42267
-2.52446
-2.60828
-2.67344
-2.72195
-2.74994
-4.52994
-4.54428
-4.5467
-4.54864
-4.55111
-4.55354
-4.55577
-4.55788
-4.55992
-4.56198
-4.56416
-4.56656
-4.56912
-4.57151
-4.5737
-4.57594
-4.57831
-4.58081
-4.58343
-4.58618
-4.58909
-4.59215
-4.59537
-4.59877
-4.60233
-4.60608
-4.61
-4.6141
-4.61839
-4.62286
-4.62752
-4.63236
-4.63737
-4.64256
-4.64792
-4.65345
-4.65912
-4.66494
-4.67089
-4.67695
-4.6831
-4.68933
-4.6956
-4.7019
-4.70818
-4.71443
-4.7206
-4.72665
-4.73254
-4.73822
-4.74364
-4.74876
-4.75351
-4.75785
-4.7617
-4.76502
-4.76773
-4.76977
-4.77108
-4.77159
-4.77124
-4.76995
-4.76767
-4.76432
-4.75983
-4.75415
-4.74721
-4.73894
-4.72929
-4.71819
-4.70559
-4.69143
-4.67566
-4.65824
-4.6391
-4.61822
-4.59554
-4.57104
-4.54468
-4.51643
-4.48626
-4.45416
-4.4201
-4.38407
-4.34605
-4.30604
-4.26403
-4.22001
-4.17399
-4.12597
-4.07595
-4.02395
-3.96998
-3.91404
-3.85617
-3.79636
-3.73464
-3.67103
-3.60554
-3.53818
-3.46895
-3.39787
-3.32493
-3.25012
-3.17343
-3.09484
-3.01432
-2.93184
-2.84736
-2.76085
-2.67225
-2.58152
-2.4886
-2.39345
-2.29603
-2.19625
-2.09413
-1.9897
-1.88263
-1.77292
-1.6606
-1.54564
-1.42798
-1.30757
-1.18437
-1.0583
-0.929326
-0.79738
-0.662405
-0.524337
-0.383113
-0.238668
-0.0909396
0.0601334
0.214608
0.372535
0.533957
0.698906
0.867416
1.0395
1.21517
1.39442
1.57722
1.76355
1.95336
2.1466
2.34321
2.54315
2.74635
2.95276
3.16233
3.37499
3.59065
3.80925
4.03068
4.25482
4.48157
4.71078
4.9423
5.17596
5.41154
5.64884
5.88761
6.12762
6.36859
6.61023
6.85226
7.09437
7.33628
7.57764
7.81809
8.05719
8.29433
8.52851
8.75949
8.97294
9.1766
9.37984
9.60367
9.78049
-4.50926
-4.53021
-4.53128
-4.53163
-4.53292
-4.53433
-4.53567
-4.537
-4.53835
-4.53974
-4.54113
-4.54249
-4.54376
-4.54512
-4.54677
-4.54867
-4.55076
-4.55298
-4.55535
-4.55785
-4.56049
-4.56326
-4.56618
-4.56923
-4.57243
-4.57578
-4.57928
-4.58294
-4.58676
-4.59075
-4.59491
-4.59923
-4.60373
-4.6084
-4.61323
-4.61822
-4.62337
-4.62867
-4.63411
-4.63967
-4.64535
-4.65111
-4.65695
-4.66284
-4.66875
-4.67465
-4.68051
-4.68629
-4.69195
-4.69746
-4.70275
-4.70779
-4.71251
-4.71688
-4.72081
-4.72426
-4.72717
-4.72945
-4.73106
-4.73193
-4.73198
-4.73114
-4.72935
-4.72654
-4.72264
-4.71759
-4.71131
-4.70375
-4.69484
-4.68452
-4.67273
-4.65942
-4.64453
-4.628
-4.6098
-4.58987
-4.56817
-4.54466
-4.51931
-4.49207
-4.46292
-4.43183
-4.39878
-4.36374
-4.32671
-4.28765
-4.24657
-4.20346
-4.15831
-4.11112
-4.06189
-4.01064
-3.95736
-3.90207
-3.84479
-3.78553
-3.7243
-3.66113
-3.59603
-3.52901
-3.46008
-3.38926
-3.31654
-3.24192
-3.16538
-3.08692
-3.00652
-2.92413
-2.83973
-2.75327
-2.66472
-2.57403
-2.48112
-2.38597
-2.28852
-2.18861
-2.0863
-1.98178
-1.87493
-1.76563
-1.65373
-1.53916
-1.4219
-1.3019
-1.17912
-1.0535
-0.925014
-0.793594
-0.659186
-0.521734
-0.381176
-0.237454
-0.090506
0.0597262
0.213297
0.370258
0.530652
0.694516
0.861866
1.03271
1.20707
1.38492
1.56625
1.75103
1.93923
2.1308
2.32568
2.52381
2.72512
2.92954
3.13701
3.34746
3.5608
3.77696
3.99581
4.21726
4.44116
4.66738
4.89575
5.12609
5.35819
5.5918
5.8267
6.0626
6.29922
6.53627
6.77341
7.01035
7.24673
7.48223
7.71647
7.94908
8.1797
8.40785
8.63658
8.86816
9.09747
9.30839
9.53523
9.71389
-4.51258
-4.53758
-4.54056
-4.54086
-4.54215
-4.54362
-4.54499
-4.54632
-4.54768
-4.54909
-4.55056
-4.55209
-4.55367
-4.5553
-4.55705
-4.55892
-4.56092
-4.56306
-4.56533
-4.56776
-4.57033
-4.57306
-4.57595
-4.579
-4.58222
-4.5856
-4.58916
-4.59289
-4.59681
-4.6009
-4.60517
-4.60962
-4.61426
-4.61906
-4.62405
-4.6292
-4.6345
-4.63996
-4.64556
-4.65128
-4.65711
-4.66303
-4.66901
-4.67503
-4.68106
-4.68708
-4.69304
-4.69891
-4.70465
-4.71021
-4.71554
-4.7206
-4.72532
-4.72966
-4.73356
-4.73695
-4.73977
-4.74196
-4.74344
-4.74417
-4.74405
-4.74304
-4.74106
-4.73804
-4.73392
-4.72863
-4.72211
-4.71429
-4.70512
-4.69452
-4.68246
-4.66885
-4.65367
-4.63684
-4.61833
-4.59809
-4.57607
-4.55224
-4.52655
-4.49899
-4.46952
-4.43811
-4.40474
-4.3694
-4.33207
-4.29273
-4.25138
-4.20802
-4.16263
-4.11521
-4.06577
-4.01432
-3.96086
-3.9054
-3.84796
-3.78855
-3.7272
-3.66392
-3.59873
-3.53164
-3.46267
-3.39181
-3.31908
-3.24447
-3.16797
-3.08957
-3.00924
-2.92695
-2.84267
-2.75636
-2.66798
-2.57749
-2.48483
-2.38999
-2.29299
-2.19359
-2.0918
-1.98725
-1.88026
-1.77078
-1.65878
-1.54419
-1.42695
-1.30701
-1.18431
-1.05882
-0.930462
-0.799195
-0.66496
-0.527698
-0.387347
-0.243846
-0.0971347
0.0528453
0.206149
0.362827
0.522922
0.68647
0.853495
1.02401
1.19802
1.37551
1.55648
1.74088
1.92868
2.11983
2.31429
2.51199
2.71287
2.91687
3.12393
3.33396
3.5469
3.76266
3.98114
4.20222
4.42578
4.6517
4.8798
5.10993
5.34187
5.5754
5.81028
6.04627
6.2831
6.52047
6.75808
6.99564
7.23286
7.46942
7.70503
7.93943
8.17252
8.40414
8.63634
8.8688
9.09632
9.30755
9.53586
9.70928
-4.5119
-4.53645
-4.54067
-4.5413
-4.54261
-4.54399
-4.54523
-4.54644
-4.54768
-4.54898
-4.55037
-4.55184
-4.55342
-4.5551
-4.55691
-4.55886
-4.56094
-4.56317
-4.56554
-4.56806
-4.57074
-4.57357
-4.57656
-4.57971
-4.58303
-4.58653
-4.5902
-4.59405
-4.59808
-4.6023
-4.6067
-4.61128
-4.61605
-4.621
-4.62613
-4.63143
-4.63689
-4.64251
-4.64827
-4.65415
-4.66014
-4.66622
-4.67236
-4.67855
-4.68474
-4.69091
-4.69703
-4.70304
-4.70892
-4.71461
-4.72006
-4.72523
-4.73006
-4.73449
-4.73846
-4.74191
-4.74477
-4.74699
-4.7485
-4.74922
-4.7491
-4.74806
-4.74604
-4.74297
-4.73879
-4.73343
-4.72683
-4.71892
-4.70966
-4.69897
-4.6868
-4.67309
-4.65779
-4.64086
-4.62223
-4.60188
-4.57974
-4.55579
-4.52999
-4.50231
-4.47271
-4.44118
-4.40769
-4.37222
-4.33476
-4.2953
-4.25382
-4.21033
-4.16481
-4.11727
-4.0677
-4.01613
-3.96254
-3.90697
-3.84942
-3.78991
-3.72846
-3.66509
-3.59982
-3.53267
-3.46364
-3.39275
-3.32
-3.24539
-3.16891
-3.09053
-3.01025
-2.92803
-2.84382
-2.7576
-2.66932
-2.57892
-2.48635
-2.39154
-2.29438
-2.19512
-2.09347
-1.98937
-1.88279
-1.77368
-1.66202
-1.54774
-1.43082
-1.31119
-1.18881
-1.06364
-0.935628
-0.804709
-0.670833
-0.533939
-0.393964
-0.250847
-0.104523
0.0450675
0.197982
0.354274
0.513986
0.677155
0.843807
1.01395
1.1876
1.36473
1.54534
1.7294
1.91686
2.10768
2.30182
2.49922
2.69982
2.90356
3.11039
3.32022
3.533
3.74864
3.96705
4.18812
4.41174
4.63779
4.86612
5.09657
5.32893
5.563
5.79853
6.0353
6.27303
6.51144
6.75021
6.98905
7.22766
7.46569
7.70283
7.93877
8.17336
8.40627
8.63844
8.86818
9.09393
9.30541
9.53569
9.70351
-4.51357
-4.53722
-4.54275
-4.54425
-4.54592
-4.54741
-4.54866
-4.54983
-4.55102
-4.55228
-4.55362
-4.55507
-4.55664
-4.55832
-4.56014
-4.56209
-4.56418
-4.56642
-4.56881
-4.57136
-4.57406
-4.57693
-4.57996
-4.58316
-4.58655
-4.59011
-4.59385
-4.59779
-4.60191
-4.60622
-4.61073
-4.61543
-4.62031
-4.62539
-4.63064
-4.63607
-4.64167
-4.64742
-4.65332
-4.65934
-4.66547
-4.67169
-4.67797
-4.68428
-4.6906
-4.69689
-4.70311
-4.70923
-4.71519
-4.72095
-4.72646
-4.73167
-4.73652
-4.74096
-4.74492
-4.74834
-4.75115
-4.7533
-4.75472
-4.75533
-4.75509
-4.75391
-4.75173
-4.74849
-4.74413
-4.73859
-4.7318
-4.7237
-4.71423
-4.70334
-4.69097
-4.67706
-4.66157
-4.64443
-4.62562
-4.60507
-4.58275
-4.55862
-4.53264
-4.50479
-4.47503
-4.44334
-4.4097
-4.37408
-4.33649
-4.2969
-4.2553
-4.2117
-4.16608
-4.11844
-4.06879
-4.01714
-3.96348
-3.90784
-3.85023
-3.79066
-3.72917
-3.66577
-3.60048
-3.53332
-3.4643
-3.39344
-3.32074
-3.2462
-3.1698
-3.09154
-3.01139
-2.92931
-2.84528
-2.75924
-2.67116
-2.58097
-2.48863
-2.39411
-2.29729
-2.1982
-2.09673
-1.99284
-1.88648
-1.77762
-1.6662
-1.55219
-1.43553
-1.31618
-1.1941
-1.06923
-0.941525
-0.810931
-0.677391
-0.540841
-0.401218
-0.258456
-0.112489
0.0367472
0.189312
0.345261
0.504642
0.667492
0.833837
1.00369
1.17706
1.35393
1.5343
1.71813
1.90538
2.09602
2.28998
2.48722
2.68767
2.89127
3.09798
3.30772
3.52043
3.73603
3.95443
4.17553
4.39922
4.62538
4.85389
5.08456
5.31721
5.5516
5.78751
6.02471
6.26293
6.50185
6.74117
6.98057
7.21975
7.45836
7.69606
7.93255
8.16763
8.4009
8.6328
8.86129
9.08689
9.2986
9.53085
9.69276
-4.51603
-4.53813
-4.54451
-4.5469
-4.54899
-4.55062
-4.55191
-4.55307
-4.55424
-4.55547
-4.5568
-4.55824
-4.5598
-4.5615
-4.56334
-4.56532
-4.56745
-4.56973
-4.57216
-4.57476
-4.57752
-4.58045
-4.58356
-4.58684
-4.59031
-4.59397
-4.59782
-4.60186
-4.6061
-4.61053
-4.61517
-4.62
-4.62502
-4.63024
-4.63564
-4.64122
-4.64697
-4.65287
-4.65892
-4.66509
-4.67136
-4.67772
-4.68413
-4.69057
-4.697
-4.70338
-4.70969
-4.71587
-4.72189
-4.72768
-4.7332
-4.7384
-4.74322
-4.7476
-4.75147
-4.75479
-4.75748
-4.75948
-4.76072
-4.76115
-4.76069
-4.75929
-4.75689
-4.75341
-4.74881
-4.74302
-4.73598
-4.72764
-4.71794
-4.70682
-4.69423
-4.68012
-4.66443
-4.64711
-4.62812
-4.60741
-4.58495
-4.56068
-4.53458
-4.50662
-4.47676
-4.44498
-4.41126
-4.37559
-4.33794
-4.29831
-4.25669
-4.21306
-4.16743
-4.11978
-4.07012
-4.01846
-3.9648
-3.90915
-3.85153
-3.79197
-3.73048
-3.66709
-3.60182
-3.53469
-3.46573
-3.39493
-3.32231
-3.24787
-3.1716
-3.09349
-3.0135
-2.9316
-2.84776
-2.76192
-2.67405
-2.58409
-2.49199
-2.3977
-2.30114
-2.20226
-2.10101
-1.99734
-1.8912
-1.78255
-1.67136
-1.55756
-1.44113
-1.32202
-1.20018
-1.07556
-0.948119
-0.817797
-0.684537
-0.548273
-0.408938
-0.266466
-0.120785
0.0281713
0.180467
0.33616
0.495302
0.657932
0.824076
0.993748
1.16695
1.34369
1.52394
1.70767
1.89484
2.0854
2.27931
2.47649
2.67688
2.88043
3.08708
3.29678
3.50946
3.72504
3.94346
4.16457
4.3883
4.61453
4.84313
5.07393
5.30673
5.5413
5.77741
6.01482
6.25326
6.49242
6.73197
6.9716
7.21099
7.44981
7.68774
7.92447
8.15979
8.39325
8.62505
8.85299
9.07877
9.29049
9.52445
9.6803
-4.51958
-4.54005
-4.54699
-4.55025
-4.55278
-4.55459
-4.55593
-4.5571
-4.55826
-4.55948
-4.56079
-4.56222
-4.56379
-4.5655
-4.56735
-4.56935
-4.57151
-4.57382
-4.5763
-4.57894
-4.58176
-4.58476
-4.58793
-4.5913
-4.59485
-4.5986
-4.60255
-4.60671
-4.61106
-4.61562
-4.62038
-4.62534
-4.63051
-4.63586
-4.6414
-4.64712
-4.65301
-4.65905
-4.66523
-4.67152
-4.67791
-4.68438
-4.69089
-4.69741
-4.70391
-4.71034
-4.71668
-4.72288
-4.72888
-4.73463
-4.7401
-4.74522
-4.74993
-4.75418
-4.7579
-4.76105
-4.76355
-4.76534
-4.76636
-4.76656
-4.76586
-4.76422
-4.76157
-4.75785
-4.75301
-4.747
-4.73975
-4.73122
-4.72134
-4.71006
-4.69733
-4.68309
-4.66729
-4.64989
-4.63082
-4.61005
-4.58754
-4.56324
-4.53712
-4.50913
-4.47927
-4.44749
-4.41379
-4.37813
-4.3405
-4.3009
-4.2593
-4.2157
-4.17009
-4.12246
-4.07282
-4.02117
-3.96751
-3.91186
-3.85424
-3.79468
-3.73319
-3.66981
-3.60456
-3.53746
-3.46854
-3.39781
-3.32527
-3.25094
-3.17479
-3.09681
-3.01698
-2.93526
-2.85161
-2.76597
-2.67832
-2.58858
-2.4967
-2.4026
-2.30624
-2.20755
-2.10649
-2.003
-1.89704
-1.78857
-1.67754
-1.56393
-1.44768
-1.32875
-1.2071
-1.08269
-0.955461
-0.825364
-0.692336
-0.556311
-0.417219
-0.274987
-0.129542
0.0191875
0.17127
0.326768
0.485736
0.648216
0.814232
0.983796
1.15692
1.33359
1.5138
1.6975
1.88465
2.07521
2.26911
2.46629
2.66666
2.87018
3.07681
3.28647
3.49912
3.71469
3.9331
4.15422
4.37796
4.60423
4.83288
5.06375
5.29666
5.53135
5.76759
6.00514
6.24371
6.483
6.72271
6.96249
7.20201
7.44097
7.67907
7.91598
8.15149
8.38509
8.61685
8.84442
9.07039
9.28191
9.51731
9.66726
-4.52401
-4.54282
-4.55011
-4.55416
-4.55713
-4.55912
-4.56053
-4.56172
-4.56288
-4.56409
-4.5654
-4.56684
-4.56841
-4.57013
-4.572
-4.57403
-4.57622
-4.57857
-4.58109
-4.58379
-4.58667
-4.58973
-4.59298
-4.59643
-4.60008
-4.60393
-4.60798
-4.61224
-4.61671
-4.62139
-4.62628
-4.63137
-4.63667
-4.64215
-4.64782
-4.65367
-4.65967
-4.66582
-4.67211
-4.67849
-4.68497
-4.6915
-4.69806
-4.70462
-4.71114
-4.71758
-4.72389
-4.73004
-4.73598
-4.74165
-4.747
-4.75199
-4.75656
-4.76065
-4.76419
-4.76715
-4.76945
-4.77104
-4.77185
-4.77184
-4.77094
-4.7691
-4.76626
-4.76237
-4.75738
-4.75123
-4.74387
-4.73524
-4.72528
-4.71395
-4.70118
-4.68692
-4.67112
-4.65372
-4.63467
-4.61393
-4.59145
-4.56718
-4.5411
-4.51316
-4.48334
-4.45161
-4.41795
-4.38234
-4.34475
-4.30519
-4.26362
-4.22006
-4.17447
-4.12686
-4.07722
-4.02556
-3.97188
-3.9162
-3.85855
-3.79896
-3.73745
-3.67406
-3.6088
-3.54171
-3.47282
-3.40214
-3.32967
-3.25543
-3.1794
-3.10156
-3.02188
-2.94033
-2.85686
-2.77143
-2.68398
-2.59443
-2.50274
-2.40882
-2.31262
-2.21409
-2.11317
-2.00982
-1.904
-1.79566
-1.68477
-1.57128
-1.45517
-1.33639
-1.21489
-1.09064
-0.963583
-0.833673
-0.700845
-0.565025
-0.426141
-0.284116
-0.138874
0.00966343
0.161569
0.31691
0.475747
0.638125
0.804064
0.973571
1.14666
1.32332
1.50354
1.68726
1.87444
2.06503
2.25896
2.45617
2.65656
2.86007
3.06668
3.27633
3.48895
3.70448
3.92288
4.144
4.36776
4.59406
4.82275
5.05367
5.28664
5.52144
5.75782
5.99549
6.23417
6.47358
6.71342
6.95333
7.19298
7.43207
7.6703
7.90735
8.14299
8.37667
8.60837
8.83567
9.06178
9.27299
9.50956
9.65397
-4.52934
-4.54654
-4.55401
-4.55873
-4.56212
-4.56429
-4.56577
-4.56699
-4.56815
-4.56937
-4.57068
-4.57212
-4.5737
-4.57544
-4.57732
-4.57938
-4.58159
-4.58398
-4.58655
-4.5893
-4.59223
-4.59536
-4.59869
-4.60221
-4.60595
-4.60989
-4.61404
-4.61841
-4.62299
-4.62778
-4.63279
-4.63799
-4.6434
-4.64899
-4.65476
-4.6607
-4.6668
-4.67303
-4.67937
-4.68582
-4.69233
-4.69889
-4.70546
-4.712
-4.7185
-4.72489
-4.73114
-4.73721
-4.74305
-4.7486
-4.75383
-4.75868
-4.7631
-4.76703
-4.77042
-4.77321
-4.77535
-4.77678
-4.77745
-4.77729
-4.77625
-4.77429
-4.77134
-4.76737
-4.76232
-4.75613
-4.74875
-4.74012
-4.73019
-4.71889
-4.70617
-4.69197
-4.67624
-4.65891
-4.63994
-4.61927
-4.59687
-4.57268
-4.54667
-4.5188
-4.48904
-4.45737
-4.42376
-4.3882
-4.35066
-4.31113
-4.2696
-4.22606
-4.18048
-4.13288
-4.08322
-4.03152
-3.9778
-3.92206
-3.86435
-3.80471
-3.74315
-3.67972
-3.61444
-3.54735
-3.47847
-3.40782
-3.33542
-3.26127
-3.18534
-3.10764
-3.02811
-2.94673
-2.86345
-2.77821
-2.69093
-2.60155
-2.51001
-2.41624
-2.32018
-2.22177
-2.12097
-2.01772
-1.91199
-1.80374
-1.69293
-1.57954
-1.46352
-1.34483
-1.22345
-1.09932
-0.972393
-0.842634
-0.709972
-0.574326
-0.435619
-0.293773
-0.148704
-0.000331445
0.151426
0.306641
0.465379
0.627694
0.793602
0.963099
1.1362
1.31291
1.49318
1.67697
1.86422
2.05488
2.24887
2.44613
2.64657
2.85011
3.05673
3.26637
3.47896
3.69447
3.91282
4.13395
4.35775
4.58408
4.81282
5.0438
5.27683
5.51173
5.74823
5.98603
6.22484
6.46437
6.70431
6.94434
7.1841
7.42329
7.66163
7.89878
8.13449
8.36817
8.59977
8.82684
9.05302
9.26383
9.50128
9.64066
-4.53553
-4.5512
-4.55872
-4.56399
-4.56775
-4.5701
-4.57166
-4.57291
-4.57408
-4.57529
-4.5766
-4.57804
-4.57963
-4.58137
-4.58327
-4.58533
-4.58757
-4.58999
-4.5926
-4.59539
-4.59837
-4.60156
-4.60495
-4.60855
-4.61236
-4.61638
-4.62062
-4.62508
-4.62976
-4.63464
-4.63974
-4.64504
-4.65052
-4.6562
-4.66204
-4.66804
-4.67418
-4.68044
-4.68681
-4.69325
-4.69976
-4.70629
-4.71283
-4.71933
-4.72576
-4.73208
-4.73825
-4.74421
-4.74994
-4.75537
-4.76048
-4.7652
-4.7695
-4.77331
-4.77659
-4.77928
-4.78131
-4.78265
-4.78323
-4.783
-4.7819
-4.77989
-4.77692
-4.77294
-4.76791
-4.76176
-4.75445
-4.74591
-4.73607
-4.72488
-4.71227
-4.69819
-4.68257
-4.66536
-4.6465
-4.62594
-4.60363
-4.57953
-4.5536
-4.5258
-4.49611
-4.46451
-4.43096
-4.39545
-4.35796
-4.31847
-4.27698
-4.23346
-4.18789
-4.14028
-4.0906
-4.03885
-3.98505
-3.92923
-3.87145
-3.81173
-3.75011
-3.68662
-3.6213
-3.55419
-3.48532
-3.41471
-3.34237
-3.2683
-3.19249
-3.11492
-3.03555
-2.95434
-2.87123
-2.78615
-2.69902
-2.60979
-2.51838
-2.42473
-2.32876
-2.23043
-2.12969
-2.02649
-1.92081
-1.8126
-1.70183
-1.58848
-1.47251
-1.35388
-1.23256
-1.1085
-0.981668
-0.85202
-0.719488
-0.583979
-0.445417
-0.303716
-0.158791
-0.0105517
0.141087
0.296205
0.454874
0.617156
0.783071
0.952611
1.12579
1.30259
1.48297
1.66688
1.85424
2.045
2.23908
2.4364
2.63691
2.84053
3.04718
3.25683
3.46942
3.6849
3.90322
4.12434
4.34817
4.57454
4.80333
5.03438
5.26749
5.50248
5.73908
5.97699
6.21592
6.45557
6.69562
6.93574
7.17559
7.41486
7.65326
7.89045
8.12615
8.35976
8.5912
8.81801
9.04414
9.25451
9.4925
9.62748
-4.54258
-4.55681
-4.56426
-4.56996
-4.57403
-4.57656
-4.57819
-4.57946
-4.58063
-4.58183
-4.58313
-4.58455
-4.58613
-4.58786
-4.58976
-4.59183
-4.59407
-4.59651
-4.59913
-4.60195
-4.60497
-4.60819
-4.61163
-4.61528
-4.61915
-4.62324
-4.62755
-4.63208
-4.63683
-4.64178
-4.64694
-4.65229
-4.65783
-4.66354
-4.66941
-4.67542
-4.68156
-4.6878
-4.69413
-4.70054
-4.70699
-4.71346
-4.71993
-4.72635
-4.7327
-4.73893
-4.745
-4.75086
-4.75647
-4.7618
-4.7668
-4.77144
-4.77565
-4.77939
-4.78261
-4.78525
-4.78725
-4.78856
-4.78913
-4.78888
-4.78778
-4.78578
-4.78285
-4.77894
-4.774
-4.76797
-4.7608
-4.75241
-4.74273
-4.7317
-4.71926
-4.70533
-4.68986
-4.67279
-4.65406
-4.63362
-4.61142
-4.58741
-4.56156
-4.53383
-4.50421
-4.47266
-4.43917
-4.40372
-4.36628
-4.32685
-4.2854
-4.24191
-4.19638
-4.14877
-4.09907
-4.04727
-3.99338
-3.93747
-3.8796
-3.8198
-3.75811
-3.69456
-3.62919
-3.56205
-3.49319
-3.42262
-3.35034
-3.27635
-3.20065
-3.12321
-3.04399
-2.96294
-2.87998
-2.79503
-2.70803
-2.61891
-2.5276
-2.43402
-2.3381
-2.2398
-2.13907
-2.03587
-1.93017
-1.82193
-1.71115
-1.59778
-1.4818
-1.36318
-1.24188
-1.11786
-0.991071
-0.861485
-0.729034
-0.59362
-0.455162
-0.313572
-0.168755
-0.0206153
0.130939
0.285993
0.444622
0.606886
0.772829
0.942465
1.11577
1.29272
1.47326
1.65734
1.84487
2.03577
2.22996
2.42738
2.62798
2.83167
3.03836
3.24802
3.46062
3.67609
3.8944
4.11551
4.33934
4.56573
4.79456
5.02567
5.25886
5.49393
5.73062
5.96864
6.20767
6.44741
6.68754
6.92772
7.16762
7.40692
7.64532
7.88248
8.1181
8.35154
8.58273
8.80923
9.03517
9.24503
9.48321
9.61448
-4.55047
-4.56338
-4.57066
-4.57666
-4.58099
-4.58365
-4.58534
-4.58661
-4.58776
-4.58893
-4.59019
-4.59158
-4.59312
-4.59482
-4.59668
-4.59873
-4.60096
-4.60338
-4.60599
-4.60881
-4.61184
-4.61509
-4.61855
-4.62223
-4.62613
-4.63026
-4.63461
-4.63918
-4.64396
-4.64895
-4.65414
-4.65951
-4.66505
-4.67075
-4.67659
-4.68256
-4.68864
-4.69481
-4.70105
-4.70736
-4.7137
-4.72008
-4.72645
-4.73278
-4.73904
-4.74518
-4.75115
-4.75692
-4.76242
-4.76766
-4.77259
-4.77718
-4.78136
-4.78509
-4.78832
-4.79097
-4.793
-4.79435
-4.79496
-4.79476
-4.79371
-4.79176
-4.78891
-4.78513
-4.78035
-4.77452
-4.76755
-4.75937
-4.74991
-4.73909
-4.72684
-4.7131
-4.69779
-4.68087
-4.66228
-4.64196
-4.61985
-4.59591
-4.57011
-4.54244
-4.51286
-4.48137
-4.44794
-4.41254
-4.37516
-4.33579
-4.2944
-4.25097
-4.20549
-4.15792
-4.10823
-4.05637
-4.00239
-3.94639
-3.88846
-3.82861
-3.76688
-3.70327
-3.63785
-3.57068
-3.5018
-3.43124
-3.359
-3.28509
-3.2095
-3.13219
-3.05311
-2.97219
-2.88937
-2.80454
-2.71763
-2.62857
-2.5373
-2.44373
-2.3478
-2.24947
-2.14868
-2.0454
-1.93961
-1.83129
-1.72042
-1.60697
-1.49092
-1.37225
-1.25092
-1.1269
-1.00013
-0.870558
-0.738125
-0.602757
-0.464365
-0.322849
-0.178107
-0.0300357
0.121466
0.276491
0.435116
0.5974
0.763403
0.933161
1.10663
1.28377
1.46451
1.64879
1.83651
2.0276
2.22196
2.4195
2.62019
2.82393
3.03066
3.24034
3.45292
3.66838
3.88667
4.10775
4.33156
4.55795
4.7868
5.01795
5.25119
5.48633
5.72308
5.96116
6.20026
6.44006
6.68022
6.92042
7.16032
7.39959
7.63792
7.87496
8.11038
8.34355
8.5744
8.8005
9.02609
9.23536
9.47333
9.60166
-4.55916
-4.57089
-4.57794
-4.58413
-4.58864
-4.5914
-4.59311
-4.59435
-4.59544
-4.59654
-4.59772
-4.59903
-4.60049
-4.60211
-4.6039
-4.60588
-4.60805
-4.61042
-4.613
-4.61579
-4.61879
-4.62202
-4.62547
-4.62915
-4.63306
-4.63719
-4.64154
-4.64612
-4.65091
-4.6559
-4.66107
-4.66641
-4.6719
-4.67753
-4.68329
-4.68916
-4.69512
-4.70115
-4.70724
-4.71338
-4.71959
-4.72584
-4.7321
-4.73835
-4.74452
-4.75059
-4.75648
-4.76214
-4.76754
-4.77269
-4.77759
-4.78219
-4.78641
-4.7902
-4.79351
-4.79626
-4.79839
-4.79984
-4.80057
-4.80048
-4.79949
-4.79758
-4.79484
-4.79126
-4.78674
-4.78118
-4.77448
-4.76657
-4.75736
-4.74678
-4.73475
-4.72119
-4.70604
-4.68926
-4.67079
-4.65056
-4.62851
-4.60458
-4.57876
-4.55108
-4.52151
-4.49004
-4.45665
-4.4213
-4.38398
-4.34467
-4.30335
-4.26001
-4.21461
-4.16712
-4.11747
-4.06554
-4.0114
-3.95533
-3.8974
-3.83759
-3.77591
-3.71225
-3.6467
-3.57944
-3.51051
-3.43995
-3.36777
-3.29396
-3.21849
-3.14132
-3.06237
-2.98159
-2.89888
-2.81415
-2.7273
-2.63826
-2.54696
-2.45332
-2.3573
-2.25885
-2.15792
-2.05449
-1.94854
-1.84006
-1.72902
-1.61541
-1.49923
-1.38044
-1.25903
-1.13496
-1.00817
-0.87858
-0.746137
-0.610788
-0.472434
-0.330967
-0.186278
-0.0382519
0.11322
0.26824
0.426893
0.589244
0.755349
0.92524
1.09888
1.27622
1.45718
1.64168
1.82963
2.02092
2.21545
2.41313
2.61391
2.8177
3.02445
3.23411
3.44666
3.66208
3.88032
4.10135
4.32511
4.55147
4.7803
5.01145
5.24471
5.47987
5.71665
5.95475
6.19386
6.43366
6.67381
6.91396
7.15379
7.39294
7.63111
7.86792
8.10305
8.33583
8.56621
8.79179
9.01684
9.22545
9.4628
9.58896
-4.56866
-4.57938
-4.58615
-4.59243
-4.59704
-4.59982
-4.60148
-4.60263
-4.6036
-4.60456
-4.6056
-4.60676
-4.60808
-4.60956
-4.61123
-4.61309
-4.61515
-4.61742
-4.61991
-4.62262
-4.62555
-4.62872
-4.63213
-4.63577
-4.63964
-4.64374
-4.64807
-4.65261
-4.65737
-4.66233
-4.66745
-4.67271
-4.6781
-4.6836
-4.68921
-4.69491
-4.70068
-4.7065
-4.71234
-4.71823
-4.72423
-4.73033
-4.7365
-4.74268
-4.74881
-4.75485
-4.76072
-4.76632
-4.7716
-4.77669
-4.78169
-4.78645
-4.79087
-4.79488
-4.79842
-4.80142
-4.80381
-4.80551
-4.80646
-4.80651
-4.80543
-4.8032
-4.80027
-4.7968
-4.79249
-4.78715
-4.78067
-4.77296
-4.76395
-4.75356
-4.7417
-4.72825
-4.71318
-4.69647
-4.67807
-4.6579
-4.63585
-4.61183
-4.5859
-4.55814
-4.52858
-4.49716
-4.46384
-4.4286
-4.39141
-4.35227
-4.31114
-4.268
-4.22282
-4.17558
-4.1261
-4.07403
-4.0196
-3.96349
-3.90569
-3.846
-3.78426
-3.72037
-3.65456
-3.58718
-3.51828
-3.44782
-3.37577
-3.30212
-3.22683
-3.14984
-3.07106
-2.99041
-2.90778
-2.8231
-2.73627
-2.64719
-2.55578
-2.46201
-2.36583
-2.26718
-2.16604
-2.06238
-1.9562
-1.84747
-1.7362
-1.62238
-1.506
-1.38705
-1.2655
-1.14131
-1.01445
-0.884824
-0.752378
-0.617042
-0.47872
-0.337297
-0.192655
-0.0446703
0.106776
0.261796
0.420484
0.582914
0.749137
0.919175
1.093
1.27055
1.45174
1.63647
1.82464
2.01613
2.21083
2.40864
2.6095
2.81332
3.02006
3.22968
3.44217
3.6575
3.87565
4.0966
4.32026
4.54654
4.77532
5.00642
5.23964
5.47477
5.71152
5.94958
6.18865
6.42838
6.66844
6.90847
7.14813
7.38708
7.62498
7.86145
8.09616
8.32844
8.55821
8.78314
9.00744
9.21531
9.45157
9.57635
-4.579
-4.58893
-4.59542
-4.60169
-4.6063
-4.609
-4.6105
-4.61144
-4.61218
-4.6129
-4.6137
-4.61462
-4.6157
-4.61696
-4.61842
-4.62009
-4.62197
-4.62409
-4.62643
-4.62901
-4.63183
-4.6349
-4.63823
-4.6418
-4.64561
-4.64964
-4.65389
-4.65838
-4.66308
-4.66798
-4.67299
-4.67808
-4.68325
-4.68852
-4.69389
-4.69935
-4.70489
-4.71047
-4.71603
-4.72167
-4.72757
-4.73374
-4.74005
-4.74639
-4.7527
-4.75889
-4.76481
-4.77015
-4.77463
-4.77895
-4.7837
-4.78842
-4.7928
-4.79681
-4.80042
-4.80354
-4.80606
-4.80793
-4.8091
-4.80947
-4.80892
-4.80742
-4.80503
-4.8017
-4.79733
-4.79184
-4.78516
-4.77721
-4.76794
-4.75727
-4.74513
-4.73142
-4.71611
-4.69917
-4.68055
-4.66019
-4.63794
-4.61368
-4.58751
-4.55959
-4.52993
-4.49848
-4.4652
-4.43006
-4.39302
-4.35408
-4.31321
-4.27038
-4.22556
-4.17874
-4.12979
-4.07863
-4.02524
-3.96975
-3.91226
-3.85274
-3.79098
-3.72669
-3.6604
-3.59291
-3.52416
-3.45393
-3.38217
-3.30881
-3.23377
-3.15698
-3.07835
-2.99777
-2.91517
-2.83047
-2.74358
-2.6544
-2.56286
-2.46891
-2.3725
-2.2736
-2.17219
-2.06824
-1.96175
-1.85274
-1.74119
-1.62711
-1.5105
-1.39134
-1.26962
-1.14531
-1.01835
-0.888681
-0.756229
-0.620915
-0.482634
-0.341268
-0.196686
-0.0487561
0.102653
0.257663
0.416377
0.578877
0.745213
0.915402
1.08941
1.26717
1.44859
1.63356
1.82195
2.01363
2.20849
2.40641
2.60732
2.81115
3.01785
3.2274
3.43978
3.655
3.87302
4.09382
4.31735
4.54351
4.77217
5.00317
5.23631
5.47134
5.70799
5.94595
6.18489
6.42448
6.66436
6.90418
7.14358
7.38221
7.61972
7.85573
8.08989
8.32152
8.55054
8.77466
8.99801
9.20505
9.43972
9.56383
-4.59069
-4.60013
-4.60632
-4.61248
-4.61691
-4.61933
-4.62047
-4.62101
-4.62133
-4.62163
-4.62203
-4.62257
-4.62329
-4.62422
-4.62537
-4.62676
-4.6284
-4.63029
-4.63244
-4.63484
-4.63748
-4.64041
-4.64362
-4.6471
-4.65079
-4.65465
-4.65872
-4.66307
-4.6677
-4.67259
-4.67759
-4.68256
-4.68762
-4.69284
-4.69813
-4.70348
-4.70885
-4.71395
-4.71837
-4.72247
-4.72727
-4.73297
-4.7391
-4.74538
-4.75167
-4.75794
-4.76405
-4.76982
-4.77521
-4.78039
-4.78533
-4.78978
-4.79363
-4.79698
-4.79991
-4.80238
-4.8043
-4.80563
-4.80637
-4.8065
-4.8061
-4.80508
-4.80294
-4.79943
-4.7947
-4.78878
-4.78164
-4.77322
-4.76345
-4.75228
-4.73964
-4.72551
-4.70982
-4.6925
-4.67352
-4.65284
-4.63034
-4.60586
-4.57949
-4.55143
-4.52169
-4.49022
-4.45703
-4.42207
-4.38529
-4.34666
-4.30613
-4.26369