/*--------------------------------*- C++ -*----------------------------------*\
| =========                 |                                                 |
| \\      /  F ield         | OpenFOAM: The Open Source CFD Toolbox           |
|  \\    /   O peration     | Version:  2112                                  |
|   \\  /    A nd           | Website:  www.openfoam.com                      |
|    \\/     M anipulation  |                                                 |
\*---------------------------------------------------------------------------*/
FoamFile
{
    version     2.0;
    format      ascii;
    arch        "LSB;label=32;scalar=64";
    class       surfaceScalarField;
    location    "0.24";
    object      phi_0;
}
// * * * * * * * * * * * * * * * * * * * * * * * * * * * * * * * * * * * * * //

dimensions      [0 3 -1 0 0 0 0];

oriented        oriented;

internalField   nonuniform List<scalar> 
24170
(
2.89084e-06
3.02771e-07
2.70108e-06
1.89758e-07
2.55377e-06
1.47315e-07
2.43849e-06
1.15279e-07
2.33973e-06
9.87615e-08
2.25371e-06
8.60205e-08
2.17859e-06
7.51214e-08
2.11247e-06
6.61179e-08
2.05404e-06
5.8423e-08
2.00242e-06
5.16246e-08
1.95722e-06
4.5203e-08
1.91766e-06
3.95591e-08
1.88392e-06
3.37334e-08
1.85496e-06
2.89679e-08
1.83128e-06
2.36718e-08
1.81174e-06
1.95479e-08
1.78192e-06
2.98154e-08
4.91591e-08
1.73276e-06
3.44596e-06
2.79472e-07
3.3394e-06
2.96323e-07
3.23297e-06
2.53747e-07
3.12104e-06
2.27212e-07
3.01455e-06
2.0525e-07
2.9203e-06
1.80265e-07
2.83855e-06
1.56871e-07
2.76759e-06
1.37084e-07
2.70573e-06
1.20284e-07
2.65188e-06
1.0547e-07
2.60518e-06
9.19076e-08
2.56522e-06
7.95169e-08
2.53118e-06
6.77679e-08
2.50286e-06
5.72873e-08
2.47903e-06
4.75018e-08
2.46005e-06
3.85294e-08
2.45913e-06
3.07413e-08
1.97183e-08
2.48857e-06
3.72458e-06
2.23021e-07
3.73187e-06
2.89032e-07
3.73212e-06
2.53502e-07
3.72198e-06
2.37352e-07
3.70083e-06
2.26398e-07
3.67101e-06
2.10083e-07
3.63789e-06
1.89995e-07
3.60351e-06
1.7146e-07
3.56898e-06
1.54817e-07
3.53539e-06
1.39057e-07
3.50345e-06
1.23847e-07
3.47435e-06
1.08616e-07
3.4482e-06
9.39206e-08
3.42629e-06
7.92001e-08
3.40802e-06
6.57731e-08
3.39449e-06
5.2052e-08
3.38464e-06
4.05965e-08
2.55609e-08
3.37879e-06
3.97983e-06
1.74375e-07
4.00743e-06
2.61435e-07
4.02095e-06
2.39983e-07
4.03697e-06
2.21332e-07
4.05037e-06
2.13001e-07
4.05898e-06
2.01469e-07
4.0636e-06
1.85371e-07
4.06597e-06
1.69091e-07
4.06635e-06
1.54435e-07
4.06494e-06
1.40473e-07
4.06186e-06
1.26924e-07
4.05795e-06
1.1253e-07
4.05382e-06
9.80537e-08
4.05026e-06
8.27586e-08
4.04781e-06
6.82221e-08
4.04735e-06
5.25124e-08
4.05064e-06
3.73027e-08
1.94719e-08
4.05673e-06
4.25344e-06
1.34025e-07
4.28091e-06
2.33959e-07
4.2945e-06
2.26395e-07
4.30952e-06
2.06313e-07
4.32546e-06
1.97064e-07
4.33931e-06
1.87616e-07
4.35119e-06
1.73494e-07
4.36235e-06
1.57925e-07
4.37304e-06
1.43753e-07
4.38281e-06
1.30705e-07
4.39167e-06
1.18061e-07
4.39962e-06
1.04574e-07
4.40712e-06
9.05615e-08
4.41434e-06
7.55321e-08
4.42211e-06
6.04506e-08
4.43037e-06
4.42554e-08
4.4401e-06
2.75693e-08
8.11775e-09
4.45146e-06
4.54375e-06
1.05458e-07
4.5722e-06
2.05504e-07
4.58891e-06
2.09687e-07
4.60278e-06
1.92447e-07
4.61784e-06
1.81999e-07
4.63246e-06
1.73e-07
4.64554e-06
1.60411e-07
4.65754e-06
1.45926e-07
4.66892e-06
1.32376e-07
4.67962e-06
1.20007e-07
4.68969e-06
1.07985e-07
4.69911e-06
9.5152e-08
4.70828e-06
8.13902e-08
4.7173e-06
6.65212e-08
4.72671e-06
5.10385e-08
4.73629e-06
3.46719e-08
4.74669e-06
1.71713e-08
-1.65248e-09
4.75646e-06
4.86012e-06
8.42464e-08
4.88896e-06
1.76669e-07
4.90775e-06
1.90892e-07
4.92106e-06
1.79137e-07
4.93522e-06
1.67842e-07
4.94993e-06
1.58289e-07
4.96353e-06
1.46807e-07
4.9758e-06
1.33658e-07
4.98722e-06
1.20956e-07
4.99799e-06
1.09235e-07
5.00822e-06
9.77567e-08
5.01793e-06
8.54388e-08
5.02743e-06
7.1893e-08
5.03683e-06
5.71226e-08
5.04653e-06
4.13347e-08
5.0563e-06
2.49061e-08
5.06563e-06
7.84068e-09
-1.06759e-08
5.07465e-06
5.20168e-06
6.83898e-08
5.22836e-06
1.49989e-07
5.24755e-06
1.71706e-07
5.26142e-06
1.65263e-07
5.27522e-06
1.54046e-07
5.28984e-06
1.43661e-07
5.304e-06
1.32652e-07
5.31694e-06
1.20714e-07
5.32883e-06
1.09066e-07
5.33992e-06
9.81525e-08
5.35042e-06
8.72568e-08
5.36043e-06
7.54226e-08
5.37017e-06
6.21568e-08
5.37969e-06
4.76011e-08
5.38907e-06
3.19565e-08
5.39863e-06
1.53456e-08
5.40849e-06
-2.01895e-09
-1.92633e-08
5.41707e-06
5.56941e-06
5.6556e-08
5.5928e-06
1.26601e-07
5.61241e-06
1.52088e-07
5.62723e-06
1.50443e-07
5.64123e-06
1.40052e-07
5.65585e-06
1.29041e-07
5.6703e-06
1.18202e-07
5.68371e-06
1.07296e-07
5.69597e-06
9.68102e-08
5.70732e-06
8.6801e-08
5.71807e-06
7.65125e-08
5.7284e-06
6.5087e-08
5.73846e-06
5.20995e-08
5.74843e-06
3.76264e-08
5.75822e-06
2.21673e-08
5.76735e-06
6.22208e-09
5.77615e-06
-1.08218e-08
-2.75241e-08
5.78441e-06
5.96486e-06
4.76308e-08
5.98493e-06
1.0653e-07
6.00448e-06
1.32543e-07
6.02021e-06
1.34712e-07
6.03441e-06
1.25851e-07
6.0489e-06
1.14546e-07
6.06346e-06
1.0365e-07
6.0772e-06
9.35484e-08
6.08981e-06
8.42039e-08
6.10146e-06
7.51521e-08
6.11244e-06
6.55278e-08
6.12297e-06
5.45625e-08
6.13309e-06
4.19781e-08
6.14281e-06
2.79088e-08
6.15228e-06
1.26983e-08
6.16159e-06
-3.09483e-09
6.16995e-06
-1.91748e-08
-3.52766e-08
6.1777e-06
6.38973e-06
4.07129e-08
6.40682e-06
8.94369e-08
6.4256e-06
1.13767e-07
6.44187e-06
1.1844e-07
6.45641e-06
1.11311e-07
6.47089e-06
1.00065e-07
6.48549e-06
8.9048e-08
6.49949e-06
7.95569e-08
6.51242e-06
7.12733e-08
6.52435e-06
6.32233e-08
6.53554e-06
5.43377e-08
6.5462e-06
4.39013e-08
6.55647e-06
3.17086e-08
6.56633e-06
1.80406e-08
6.57574e-06
3.29292e-09
6.58455e-06
-1.19061e-08
6.59255e-06
-2.71694e-08
-4.23326e-08
6.5996e-06
5.7505e-06
3.59176e-08
5.76295e-06
7.69848e-08
5.77786e-06
9.88521e-08
5.79175e-06
1.04554e-07
5.80435e-06
9.87102e-08
5.81667e-06
8.77457e-08
5.829e-06
7.67221e-08
5.84091e-06
6.76414e-08
5.85204e-06
6.01437e-08
5.86234e-06
5.29246e-08
5.87197e-06
4.4706e-08
5.8811e-06
3.47695e-08
5.88983e-06
2.29859e-08
5.89808e-06
9.78937e-09
5.90582e-06
-4.44865e-09
5.9129e-06
-1.89902e-08
5.91927e-06
-3.35375e-08
-4.77635e-08
5.9247e-06
7.00803e-06
3.12961e-08
7.02041e-06
6.46076e-08
7.03626e-06
8.2995e-08
7.052e-06
8.88178e-08
7.0667e-06
8.40116e-08
7.08092e-06
7.3523e-08
7.09504e-06
6.26064e-08
7.10875e-06
5.39245e-08
7.12168e-06
4.72175e-08
7.13369e-06
4.0916e-08
7.14489e-06
3.35065e-08
7.15542e-06
2.4233e-08
7.16534e-06
1.3074e-08
7.17462e-06
5.01443e-10
7.18321e-06
-1.30298e-08
7.19094e-06
-2.67221e-08
7.19773e-06
-4.03255e-08
-5.34244e-08
7.20339e-06
8.54067e-06
2.68639e-08
8.5528e-06
5.2477e-08
8.56928e-06
6.65232e-08
8.58662e-06
7.14712e-08
8.60346e-06
6.71788e-08
8.61975e-06
5.7228e-08
8.63579e-06
4.65645e-08
8.65141e-06
3.83029e-08
8.66625e-06
3.23792e-08
8.6801e-06
2.70656e-08
8.69297e-06
2.06339e-08
8.70495e-06
1.22582e-08
8.71607e-06
1.95485e-09
8.7264e-06
-9.83235e-09
8.73571e-06
-2.23397e-08
8.74395e-06
-3.49581e-08
8.75099e-06
-4.73635e-08
-5.91528e-08
8.75671e-06
1.04086e-05
2.2586e-08
1.04204e-05
4.06206e-08
1.04373e-05
4.96911e-08
1.04559e-05
5.28154e-08
1.04747e-05
4.83841e-08
1.04931e-05
3.88123e-08
1.05112e-05
2.84948e-08
1.05288e-05
2.06728e-08
1.05457e-05
1.5502e-08
1.05615e-05
1.12456e-08
1.05762e-05
6.00198e-09
1.05896e-05
-1.20812e-09
1.0602e-05
-1.04032e-08
1.06132e-05
-2.09899e-08
1.0623e-05
-3.22353e-08
1.06316e-05
-4.35094e-08
1.06387e-05
-5.44649e-08
-6.47185e-08
1.06443e-05
1.26851e-05
1.83419e-08
1.26968e-05
2.88661e-08
1.27139e-05
3.25985e-08
1.27337e-05
3.30612e-08
1.27541e-05
2.79261e-08
1.27745e-05
1.84492e-08
1.27946e-05
8.37744e-09
1.28143e-05
9.4739e-10
1.28334e-05
-3.57258e-09
1.28514e-05
-6.7203e-09
1.28679e-05
-1.05657e-08
1.2883e-05
-1.62341e-08
1.28964e-05
-2.38588e-08
1.29083e-05
-3.28565e-08
1.29186e-05
-4.24961e-08
1.29272e-05
-5.21285e-08
1.29341e-05
-6.13879e-08
-6.99199e-08
1.29393e-05
1.54594e-05
1.38956e-08
1.54715e-05
1.68368e-08
1.54892e-05
1.48703e-08
1.55102e-05
1.209e-08
1.55321e-05
5.96292e-09
1.55541e-05
-3.52649e-09
1.5576e-05
-1.35209e-08
1.55979e-05
-2.09911e-08
1.56195e-05
-2.51037e-08
1.56399e-05
-2.71907e-08
1.56587e-05
-2.93407e-08
1.56754e-05
-3.29755e-08
1.569e-05
-3.84561e-08
1.57025e-05
-4.53525e-08
1.5713e-05
-5.297e-08
1.57215e-05
-6.06607e-08
1.57282e-05
-6.8021e-08
-7.47204e-08
1.5733e-05
1.88405e-05
8.80267e-09
1.88537e-05
3.63079e-09
1.88732e-05
-4.60481e-09
1.88963e-05
-1.10364e-08
1.89204e-05
-1.81067e-08
1.89441e-05
-2.72196e-08
1.89675e-05
-3.69626e-08
1.89912e-05
-4.46927e-08
1.90151e-05
-4.89717e-08
1.90383e-05
-5.04272e-08
1.90599e-05
-5.08908e-08
1.90789e-05
-5.20379e-08
1.90952e-05
-5.46951e-08
1.91086e-05
-5.87988e-08
1.91195e-05
-6.38211e-08
1.9128e-05
-6.91577e-08
1.91343e-05
-7.43697e-08
-7.92403e-08
1.91389e-05
2.29613e-05
2.14504e-09
2.29773e-05
-1.2365e-08
2.30006e-05
-2.79048e-08
2.30285e-05
-3.89294e-08
2.3057e-05
-4.6597e-08
2.30838e-05
-5.40041e-08
2.3109e-05
-6.22319e-08
2.31342e-05
-6.98701e-08
2.31601e-05
-7.48317e-08
2.31863e-05
-7.6606e-08
2.32114e-05
-7.60285e-08
2.3234e-05
-7.46699e-08
2.32532e-05
-7.38759e-08
2.32687e-05
-7.42691e-08
2.32807e-05
-7.58028e-08
2.32896e-05
-7.81323e-08
2.32961e-05
-8.0815e-08
-8.34028e-08
2.33002e-05
1.68069e-05
-4.09693e-09
1.68211e-05
-2.65528e-08
1.68407e-05
-4.75028e-08
1.68631e-05
-6.12757e-08
1.68855e-05
-6.90395e-08
1.69059e-05
-7.44134e-08
1.69237e-05
-8.00318e-08
1.694e-05
-8.61887e-08
1.69566e-05
-9.13472e-08
1.69739e-05
-9.39718e-08
1.69917e-05
-9.37713e-08
1.70086e-05
-9.16411e-08
1.70237e-05
-8.89165e-08
1.70361e-05
-8.66455e-08
1.70456e-05
-8.53237e-08
1.70524e-05
-8.49747e-08
1.7057e-05
-8.53593e-08
-8.6391e-08
1.70599e-05
1.46307e-05
-1.10342e-08
1.4647e-05
-4.2873e-08
1.46683e-05
-6.88633e-08
1.46907e-05
-8.3682e-08
1.47121e-05
-9.03832e-08
1.47314e-05
-9.37381e-08
1.47479e-05
-9.6551e-08
1.47618e-05
-1.00056e-07
1.47741e-05
-1.03661e-07
1.47862e-05
-1.06049e-07
1.47988e-05
-1.06344e-07
1.48117e-05
-1.04573e-07
1.48242e-05
-1.01454e-07
1.48355e-05
-9.79166e-08
1.48449e-05
-9.47032e-08
1.48522e-05
-9.22593e-08
1.48575e-05
-9.06556e-08
-8.96604e-08
1.48607e-05
1.27377e-05
-1.93819e-08
1.27569e-05
-6.2035e-08
1.27805e-05
-9.24592e-08
1.28034e-05
-1.06638e-07
1.28246e-05
-1.11558e-07
1.28436e-05
-1.1275e-07
1.28603e-05
-1.13277e-07
1.28744e-05
-1.1411e-07
1.28858e-05
-1.15115e-07
1.28955e-05
-1.15727e-07
1.29045e-05
-1.15359e-07
1.29136e-05
-1.13668e-07
1.29229e-05
-1.10712e-07
1.29319e-05
-1.06906e-07
1.294e-05
-1.0281e-07
1.29467e-05
-9.89484e-08
1.29516e-05
-9.56034e-08
-9.31677e-08
1.29551e-05
1.10922e-05
-3.08543e-08
1.11157e-05
-8.55473e-08
1.11396e-05
-1.16379e-07
1.11607e-05
-1.27712e-07
1.1179e-05
-1.2983e-07
1.11959e-05
-1.29636e-07
1.12118e-05
-1.29205e-07
1.1226e-05
-1.28331e-07
1.12377e-05
-1.2679e-07
1.12467e-05
-1.24766e-07
1.12538e-05
-1.22428e-07
1.12598e-05
-1.19708e-07
1.12656e-05
-1.16474e-07
1.12714e-05
-1.12741e-07
1.12773e-05
-1.08703e-07
1.1283e-05
-1.0466e-07
1.12883e-05
-1.00874e-07
-9.73162e-08
1.12925e-05
9.66282e-06
-4.78175e-08
9.69497e-06
-1.17696e-07
9.72368e-06
-1.45096e-07
9.74461e-06
-1.48637e-07
9.76109e-06
-1.46309e-07
9.77619e-06
-1.44735e-07
9.79037e-06
-1.43385e-07
9.80299e-06
-1.40951e-07
9.8136e-06
-1.37399e-07
9.82214e-06
-1.33309e-07
9.82882e-06
-1.29109e-07
9.83394e-06
-1.24828e-07
9.83791e-06
-1.20445e-07
9.84116e-06
-1.15993e-07
9.84406e-06
-1.116e-07
9.84674e-06
-1.07338e-07
9.84916e-06
-1.03292e-07
-9.97335e-08
9.85157e-06
8.41567e-06
-6.65449e-08
8.4498e-06
-1.5183e-07
8.4777e-06
-1.72994e-07
8.49737e-06
-1.68308e-07
8.51399e-06
-1.62923e-07
8.52984e-06
-1.60581e-07
8.54421e-06
-1.57755e-07
8.55635e-06
-1.53099e-07
8.56634e-06
-1.47387e-07
8.57456e-06
-1.41531e-07
8.58133e-06
-1.35875e-07
8.58674e-06
-1.30242e-07
8.59103e-06
-1.24728e-07
8.59435e-06
-1.19312e-07
8.59695e-06
-1.14206e-07
8.59898e-06
-1.09364e-07
8.60051e-06
-1.04829e-07
-1.00362e-07
8.60114e-06
7.34847e-06
-1.05175e-07
7.38588e-06
-1.89244e-07
7.40745e-06
-1.94567e-07
7.42314e-06
-1.83992e-07
7.43858e-06
-1.7837e-07
7.45309e-06
-1.75092e-07
7.46546e-06
-1.70124e-07
7.47564e-06
-1.63275e-07
7.48404e-06
-1.55784e-07
7.49113e-06
-1.48621e-07
7.49717e-06
-1.41923e-07
7.50196e-06
-1.35033e-07
7.5059e-06
-1.28667e-07
7.50912e-06
-1.22533e-07
7.51186e-06
-1.16946e-07
7.51405e-06
-1.11547e-07
7.51584e-06
-1.06627e-07
-1.01288e-07
7.51677e-06
6.41041e-06
-1.52056e-07
6.45603e-06
-2.34863e-07
6.47784e-06
-2.16368e-07
6.49536e-06
-2.01518e-07
6.51328e-06
-1.96294e-07
6.52815e-06
-1.89954e-07
6.5391e-06
-1.81078e-07
6.54771e-06
-1.71882e-07
6.55397e-06
-1.62045e-07
6.55842e-06
-1.53071e-07
6.56132e-06
-1.44824e-07
6.56287e-06
-1.3658e-07
6.56345e-06
-1.29249e-07
6.56273e-06
-1.21813e-07
6.5616e-06
-1.15812e-07
6.55917e-06
-1.09116e-07
6.55682e-06
-1.0428e-07
-9.8706e-08
6.55424e-06
5.59817e-06
-2.10449e-07
5.61948e-06
-2.56174e-07
5.63314e-06
-2.30034e-07
5.64361e-06
-2.11982e-07
5.64622e-06
-1.98903e-07
5.6428e-06
-1.8654e-07
5.6337e-06
-1.71978e-07
5.61997e-06
-1.58151e-07
5.60368e-06
-1.45755e-07
5.58522e-06
-1.34614e-07
5.56502e-06
-1.24622e-07
5.54379e-06
-1.15353e-07
5.5218e-06
-1.07256e-07
5.4996e-06
-9.96143e-08
5.47748e-06
-9.36873e-08
5.45545e-06
-8.70902e-08
5.4341e-06
-8.29244e-08
-7.50595e-08
5.41045e-06
4.90861e-06
-2.9639e-07
4.85101e-06
-1.98567e-07
4.78502e-06
-1.6405e-07
4.70268e-06
-1.2964e-07
4.61182e-06
-1.08042e-07
4.52027e-06
-9.49857e-08
4.43311e-06
-8.48264e-08
4.35161e-06
-7.66449e-08
4.27582e-06
-6.99675e-08
4.20556e-06
-6.43508e-08
4.14048e-06
-5.95433e-08
4.08026e-06
-5.51339e-08
4.02467e-06
-5.16639e-08
3.97252e-06
-4.74697e-08
3.9253e-06
-4.64599e-08
3.87894e-06
-4.07331e-08
3.84702e-06
-5.10105e-08
-4.14802e-08
3.81345e-06
3.91003e-06
3.71146e-06
3.54741e-06
3.41777e-06
3.30973e-06
3.21474e-06
3.12992e-06
3.05327e-06
2.98331e-06
2.91895e-06
2.85941e-06
2.80428e-06
2.75261e-06
2.70514e-06
2.65868e-06
2.61795e-06
2.56694e-06
2.52546e-06
-1.3617e-07
1.3617e-07
-2.28005e-07
9.18347e-08
-2.61447e-07
3.34418e-08
-2.43552e-07
-1.78943e-08
-1.84831e-07
-5.8721e-08
-9.63273e-08
-8.8504e-08
8.59538e-09
-1.04923e-07
1.18718e-07
-1.10123e-07
2.24625e-07
-1.05906e-07
3.17791e-07
-9.3166e-08
3.90554e-07
-7.27634e-08
4.35393e-07
-4.48386e-08
4.44677e-07
-9.28406e-09
4.13963e-07
3.07134e-08
3.39437e-07
7.45264e-08
2.1998e-07
1.19457e-07
6.10189e-08
1.58961e-07
-1.19613e-07
1.80632e-07
-2.86355e-07
1.66742e-07
-3.95175e-07
1.0882e-07
-4.37854e-07
4.26793e-08
-4.65275e-07
2.7421e-08
-5.36197e-07
7.09216e-08
-6.58788e-07
1.22591e-07
-8.25534e-07
1.66746e-07
-1.06237e-06
2.36839e-07
-1.3949e-06
3.3253e-07
-1.80718e-06
4.12276e-07
-2.24528e-06
4.381e-07
-2.66788e-06
4.22604e-07
-3.08622e-06
4.18334e-07
-3.51721e-06
4.30996e-07
-3.95826e-06
4.4105e-07
-4.407e-06
4.48737e-07
-4.86277e-06
4.55766e-07
-5.3202e-06
4.57434e-07
-5.77273e-06
4.52528e-07
-6.21348e-06
4.40754e-07
-6.6344e-06
4.20916e-07
-7.02694e-06
3.92546e-07
-7.38261e-06
3.55661e-07
-7.69285e-06
3.1024e-07
-7.94961e-06
2.56766e-07
-8.14596e-06
1.96348e-07
-8.27615e-06
1.3019e-07
-8.33607e-06
5.99168e-08
-8.32441e-06
-1.16574e-08
-8.24216e-06
-8.22452e-08
-8.09197e-06
-1.50192e-07
-7.87732e-06
-2.14654e-07
-7.60288e-06
-2.7444e-07
-7.27394e-06
-3.28941e-07
-6.89638e-06
-3.77553e-07
-6.47633e-06
-4.20057e-07
-6.01988e-06
-4.56448e-07
-5.53307e-06
-4.86808e-07
-5.02182e-06
-5.11253e-07
-4.49193e-06
-5.29891e-07
-3.94907e-06
-5.42861e-07
-3.39868e-06
-5.50387e-07
-2.84591e-06
-5.52764e-07
-2.29567e-06
-5.50245e-07
-1.75252e-06
-5.43148e-07
-1.22049e-06
-5.32032e-07
-7.02804e-07
-5.17684e-07
-2.0268e-07
-5.00125e-07
2.76219e-07
-4.78898e-07
7.28509e-07
-4.52291e-07
1.14656e-06
-4.18055e-07
1.52313e-06
-3.76566e-07
1.85594e-06
-3.32812e-07
2.15249e-06
-2.9655e-07
2.43296e-06
-2.8047e-07
2.72929e-06
-2.96324e-07
3.07582e-06
-3.4653e-07
3.49588e-06
-4.20061e-07
3.99131e-06
-4.9543e-07
4.53884e-06
-5.47535e-07
5.08629e-06
-5.47447e-07
5.56584e-06
-4.79548e-07
5.95707e-06
-3.91235e-07
6.26777e-06
-3.10701e-07
6.33348e-06
-6.57072e-08
5.8896e-06
4.43883e-07
5.01998e-06
8.6962e-07
4.12257e-06
8.97406e-07
3.49232e-06
6.3025e-07
3.16626e-06
3.26057e-07
3.11459e-06
5.16773e-08
3.31702e-06
-2.02433e-07
3.61876e-06
-3.01738e-07
3.80536e-06
-1.86604e-07
3.84512e-06
-3.97581e-08
3.8242e-06
2.09184e-08
3.77176e-06
5.24442e-08
3.62432e-06
1.47439e-07
3.29197e-06
3.32347e-07
2.71225e-06
5.79725e-07
1.87471e-06
8.37536e-07
8.29229e-07
1.04548e-06
-3.40319e-07
1.16955e-06
-1.5621e-06
1.22178e-06
-2.78084e-06
1.21874e-06
-3.96212e-06
1.18127e-06
-5.08611e-06
1.12399e-06
-6.13996e-06
1.05385e-06
-7.11269e-06
9.7273e-07
-7.99235e-06
8.79665e-07
-8.76505e-06
7.72703e-07
-9.41538e-06
6.50321e-07
-9.92725e-06
5.11878e-07
-1.0285e-05
3.5774e-07
-1.04726e-05
1.87594e-07
-1.04834e-05
1.08506e-08
-1.03037e-05
-1.79722e-07
-9.93109e-06
-3.72626e-07
-9.36186e-06
-5.69234e-07
-8.60123e-06
-7.60622e-07
-7.66837e-06
-9.32867e-07
-6.59786e-06
-1.07051e-06
-5.43612e-06
-1.16173e-06
-4.23358e-06
-1.20255e-06
-3.03671e-06
-1.19687e-06
-1.88375e-06
-1.15296e-06
-8.0258e-07
-1.08117e-06
1.86843e-07
-9.89423e-07
1.08065e-06
-8.93811e-07
1.86792e-06
-7.8727e-07
2.55222e-06
-6.84295e-07
3.13875e-06
-5.86535e-07
3.63228e-06
-4.93521e-07
4.03659e-06
-4.04314e-07
4.35463e-06
-3.18043e-07
4.58841e-06
-2.33778e-07
4.74085e-06
-1.52442e-07
4.81701e-06
-7.61538e-08
4.81807e-06
-1.05929e-09
4.75308e-06
6.49877e-08
4.62921e-06
1.23866e-07
4.46293e-06
1.66282e-07
4.269e-06
1.93927e-07
4.06007e-06
2.08928e-07
3.84704e-06
2.13039e-07
3.63938e-06
2.07654e-07
3.44577e-06
1.93614e-07
3.27498e-06
1.70784e-07
3.13663e-06
1.38349e-07
3.04066e-06
9.59695e-08
2.99482e-06
4.58406e-08
3.00166e-06
-6.84019e-09
3.0553e-06
-5.36358e-08
3.14394e-06
-8.86383e-08
3.2542e-06
-1.10257e-07
3.3757e-06
-1.21508e-07
3.50206e-06
-1.26352e-07
3.62977e-06
-1.27711e-07
3.75675e-06
-1.26982e-07
3.88126e-06
-1.24513e-07
4.00194e-06
-1.20677e-07
4.11819e-06
-1.16247e-07
4.23e-06
-1.11815e-07
4.33816e-06
-1.08158e-07
4.44455e-06
-1.06392e-07
4.54973e-06
-1.05179e-07
4.6508e-06
-1.01071e-07
4.74491e-06
-9.41131e-08
4.82817e-06
-8.32578e-08
4.88513e-06
-5.69596e-08
4.89241e-06
-7.2845e-09
4.83664e-06
5.57714e-08
4.68695e-06
1.49697e-07
4.39867e-06
2.88274e-07
3.98049e-06
4.18185e-07
3.51955e-06
4.60935e-07
3.10193e-06
4.17627e-07
2.75846e-06
3.43467e-07
2.49873e-06
2.59731e-07
2.34639e-06
1.52336e-07
2.24754e-06
9.88502e-08
5.79957e-08
2.18955e-06
3.63696e-08
9.98005e-08
1.04817e-07
2.33877e-08
2.08757e-07
-7.04984e-08
3.35298e-07
-1.44436e-07
4.67573e-07
-1.90996e-07
5.91042e-07
-2.11973e-07
6.9557e-07
-2.09451e-07
7.77596e-07
-1.92149e-07
8.37443e-07
-1.65753e-07
8.75462e-07
-1.31184e-07
8.92048e-07
-8.93498e-08
8.8746e-07
-4.02505e-08
8.60032e-07
1.81442e-08
8.00516e-07
9.02291e-08
7.0242e-07
1.72622e-07
5.57994e-07
2.63883e-07
3.59259e-07
3.57696e-07
1.01479e-07
4.38413e-07
-2.11069e-07
4.7929e-07
-5.55445e-07
4.53195e-07
-9.07114e-07
3.94349e-07
-1.26844e-06
3.88742e-07
-1.63985e-06
4.42335e-07
-2.00708e-06
4.89828e-07
-2.39343e-06
5.53086e-07
-2.82065e-06
6.64067e-07
-3.23157e-06
7.43442e-07
-3.56972e-06
7.50433e-07
-3.87636e-06
7.44738e-07
-4.21203e-06
7.58277e-07
-4.57391e-06
7.80215e-07
-4.94282e-06
7.99903e-07
-5.32113e-06
8.19364e-07
-5.70925e-06
8.36855e-07
-6.10005e-06
8.46565e-07
-6.48904e-06
8.46422e-07
-6.87014e-06
8.33629e-07
-7.23607e-06
8.06685e-07
-7.58019e-06
7.6503e-07
-7.89529e-06
7.07649e-07
-8.17442e-06
6.34794e-07
-8.41088e-06
5.46703e-07
-8.59814e-06
4.44023e-07
-8.73043e-06
3.28639e-07
-8.80341e-06
2.03172e-07
-8.81463e-06
7.11316e-08
-8.7595e-06
-6.67849e-08
-8.63604e-06
-2.05702e-07
-8.44523e-06
-3.41006e-07
-8.18998e-06
-4.69901e-07
-7.87485e-06
-5.89572e-07
-7.50587e-06
-6.97927e-07
-7.08959e-06
-7.93826e-07
-6.63272e-06
-8.76926e-07
-6.14182e-06
-9.47352e-07
-5.62318e-06
-1.00545e-06
-5.08287e-06
-1.05156e-06
-4.52672e-06
-1.08604e-06
-3.96027e-06
-1.10931e-06
-3.38868e-06
-1.12198e-06
-2.81646e-06
-1.12499e-06
-2.24736e-06
-1.11935e-06
-1.68446e-06
-1.10605e-06
-1.1301e-06
-1.08639e-06
-5.84608e-07
-1.06317e-06
-4.75107e-08
-1.03722e-06
4.81729e-07
-1.00814e-06
9.9911e-07
-9.69672e-07
1.49386e-06
-9.12809e-07
1.94946e-06
-8.32158e-07
2.35203e-06
-7.35389e-07
2.70121e-06
-6.45724e-07
3.01588e-06
-5.95146e-07
3.33113e-06
-6.11566e-07
3.68716e-06
-7.0256e-07
4.11288e-06
-8.45789e-07
4.61406e-06
-9.96606e-07
5.17286e-06
-1.10633e-06
5.76729e-06
-1.14188e-06
6.36752e-06
-1.07978e-06
6.86776e-06
-8.91472e-07
7.15282e-06
-5.95758e-07
7.31949e-06
-2.32385e-07
7.50264e-06
2.60736e-07
7.48608e-06
8.8618e-07
6.96531e-06
1.41817e-06
5.99059e-06
1.60498e-06
4.92936e-06
1.38729e-06
4.19791e-06
7.83132e-07
4.04531e-06
-4.98328e-08
4.31186e-06
-5.68295e-07
4.59593e-06
-4.70672e-07
4.61341e-06
-5.72402e-08
4.31874e-06
3.15588e-07
3.7813e-06
5.8989e-07
3.04849e-06
8.80251e-07
2.1335e-06
1.24734e-06
1.05863e-06
1.65459e-06
-1.27712e-07
2.02388e-06
-1.35444e-06
2.27221e-06
-2.57185e-06
2.38696e-06
-3.74732e-06
2.39725e-06
-4.86446e-06
2.33588e-06
-5.91317e-06
2.22998e-06
-6.88676e-06
2.09759e-06
-7.7794e-06
1.94648e-06
-8.58428e-06
1.77762e-06
-9.29293e-06
1.58832e-06
-9.89478e-06
1.37455e-06
-1.03778e-05
1.13332e-06
-1.07305e-05
8.64563e-07
-1.09422e-05
5.6952e-07
-1.10012e-05
2.46555e-07
-1.08916e-05
-9.87508e-08
-1.06122e-05
-4.59087e-07
-1.01421e-05
-8.42726e-07
-9.47652e-06
-1.23485e-06
-8.62187e-06
-1.61528e-06
-7.59973e-06
-1.955e-06
-6.44865e-06
-2.2216e-06
-5.2196e-06
-2.39078e-06
-3.96644e-06
-2.45571e-06
-2.73697e-06
-2.42634e-06
-1.56789e-06
-2.32205e-06
-4.82349e-07
-2.16671e-06
5.1451e-07
-1.98628e-06
1.42107e-06
-1.80037e-06
2.24059e-06
-1.60679e-06
2.97474e-06
-1.41844e-06
3.62611e-06
-1.23791e-06
4.19677e-06
-1.06418e-06
4.687e-06
-8.94547e-07
5.09437e-06
-7.25411e-07
5.41496e-06
-5.54372e-07
5.64355e-06
-3.81033e-07
5.77515e-06
-2.07754e-07
5.81584e-06
-4.1744e-08
5.77234e-06
1.0848e-07
5.66252e-06
2.33687e-07
5.49973e-06
3.29077e-07
5.29876e-06
3.94892e-07
5.0729e-06
4.3479e-07
4.83444e-06
4.51504e-07
4.59578e-06
4.46308e-07
4.36922e-06
4.20175e-07
4.16728e-06
3.7273e-07
4.00305e-06
3.02572e-07
3.8898e-06
2.09224e-07
3.83805e-06
9.75887e-08
3.84781e-06
-1.65989e-08
3.90801e-06
-1.1384e-07
4.0035e-06
-1.8413e-07
4.11979e-06
-2.26544e-07
4.24674e-06
-2.48452e-07
4.37882e-06
-2.5844e-07
4.51356e-06
-2.6245e-07
4.64967e-06
-2.63092e-07
4.78602e-06
-2.60857e-07
4.92121e-06
-2.55865e-07
5.05389e-06
-2.48927e-07
5.18335e-06
-2.41284e-07
5.30987e-06
-2.34669e-07
5.4342e-06
-2.30724e-07
5.5565e-06
-2.27479e-07
5.67634e-06
-2.2091e-07
5.79151e-06
-2.09283e-07
5.89366e-06
-1.85415e-07
5.97324e-06
-1.36539e-07
6.02458e-06
-5.86242e-08
6.0262e-06
5.41515e-08
5.96005e-06
2.15845e-07
5.81282e-06
4.35507e-07
5.52586e-06
7.05151e-07
5.02631e-06
9.60481e-07
4.36481e-06
1.07913e-06
3.71132e-06
9.96961e-07
3.20327e-06
7.67774e-07
2.88188e-06
4.7373e-07
2.72079e-06
2.59944e-07
1.44117e-07
2.63466e-06
6.34808e-08
3.63197e-08
2.33113e-07
-1.46244e-07
4.36964e-07
-2.7435e-07
6.27408e-07
-3.34879e-07
7.80792e-07
-3.4438e-07
8.88035e-07
-3.19217e-07
9.51572e-07
-2.72987e-07
9.76359e-07
-2.16936e-07
9.69371e-07
-1.58765e-07
9.41617e-07
-1.0343e-07
9.04189e-07
-5.19219e-08
8.61738e-07
2.20025e-09
8.13727e-07
6.61547e-08
7.56893e-07
1.47063e-07
6.8077e-07
2.48746e-07
5.71486e-07
3.73167e-07
4.11305e-07
5.17877e-07
1.80306e-07
6.69412e-07
-1.36829e-07
7.96424e-07
-5.41467e-07
8.57834e-07
-9.97042e-07
8.49923e-07
-1.44993e-06
8.4163e-07
-1.87289e-06
8.65298e-07
-2.27879e-06
8.95729e-07
-2.68019e-06
9.54477e-07
-3.04729e-06
1.03117e-06
-3.34599e-06
1.04215e-06
-3.601e-06
1.00544e-06
-3.86691e-06
1.01065e-06
-4.17111e-06
1.06248e-06
-4.5065e-06
1.1156e-06
-4.86799e-06
1.16139e-06
-5.25575e-06
1.20713e-06
-5.66307e-06
1.24417e-06
-6.0809e-06
1.2644e-06
-6.50255e-06
1.26807e-06
-6.92083e-06
1.25191e-06
-7.32738e-06
1.21324e-06
-7.71389e-06
1.15154e-06
-8.07176e-06
1.06552e-06
-8.39197e-06
9.54997e-07
-8.66575e-06
8.20482e-07
-8.88484e-06
6.63113e-07
-9.04164e-06
4.85443e-07
-9.12979e-06
2.91326e-07
-9.14437e-06
8.5703e-08
-9.08486e-06
-1.26289e-07
-8.95143e-06
-3.3913e-07
-8.74583e-06
-5.46608e-07
-8.47197e-06
-7.43757e-07
-8.13539e-06
-9.26157e-07
-7.74266e-06
-1.09065e-06
-7.30114e-06
-1.23535e-06
-6.81853e-06
-1.35954e-06
-6.30244e-06
-1.46344e-06
-5.76018e-06
-1.54771e-06
-5.19882e-06
-1.61293e-06
-4.62522e-06
-1.65963e-06
-4.04598e-06
-1.68855e-06
-3.467e-06
-1.70095e-06
-2.89316e-06
-1.69883e-06
-2.32821e-06
-1.6843e-06
-1.7748e-06
-1.65946e-06
-1.23413e-06
-1.62706e-06
-7.06627e-07
-1.59068e-06
-1.87078e-07
-1.55677e-06
3.34652e-07
-1.52987e-06
8.68039e-07
-1.50306e-06
1.41125e-06
-1.45602e-06
1.94451e-06
-1.36542e-06
2.43814e-06
-1.22902e-06
2.87357e-06
-1.08115e-06
3.26099e-06
-9.82565e-07
3.63836e-06
-9.88942e-07
4.0495e-06
-1.11369e-06
4.51892e-06
-1.31521e-06
5.05078e-06
-1.52847e-06
5.63759e-06
-1.69315e-06
6.24141e-06
-1.74571e-06
6.80878e-06
-1.64714e-06
7.32869e-06
-1.41138e-06
7.76687e-06
-1.03393e-06
8.02635e-06
-4.91866e-07
8.12425e-06
1.62836e-07
8.14958e-06
8.60848e-07
8.02898e-06
1.53878e-06
7.55069e-06
2.08326e-06
6.6525e-06
2.28548e-06
5.63486e-06
1.80077e-06
4.92533e-06
6.59695e-07
4.64343e-06
-2.86394e-07
4.4729e-06
-3.0014e-07
4.12268e-06
2.92978e-07
3.50698e-06
9.31289e-07
2.67307e-06
1.4238e-06
1.69718e-06
1.85614e-06
6.43497e-07
2.30102e-06
-4.39235e-07
2.73732e-06
-1.49964e-06
3.08429e-06
-2.5241e-06
3.29667e-06
-3.51771e-06
3.38056e-06
-4.48497e-06
3.36451e-06
-5.42257e-06
3.27348e-06
-6.3214e-06
3.12881e-06
-7.17067e-06
2.94686e-06
-7.96044e-06
2.73625e-06
-8.68097e-06
2.49815e-06
-9.32062e-06
2.22796e-06
-9.86529e-06
1.91921e-06
-1.02993e-05
1.56737e-06
-1.06066e-05
1.17181e-06
-1.0772e-05
7.34913e-07
-1.07834e-05
2.57936e-07
-1.0634e-05
-2.48114e-07
-1.03054e-05
-7.87668e-07
-9.7906e-06
-1.35753e-06
-9.08255e-06
-1.9429e-06
-8.18369e-06
-2.51413e-06
-7.11465e-06
-3.02405e-06
-5.91815e-06
-3.41809e-06
-4.65353e-06
-3.6554e-06
-3.38351e-06
-3.72573e-06
-2.1623e-06
-3.64755e-06
-1.02662e-06
-3.45773e-06
-3.24522e-09
-3.19008e-06
9.38211e-07
-2.92774e-06
1.77726e-06
-2.63942e-06
2.53288e-06
-2.36241e-06
3.21635e-06
-2.10191e-06
3.83716e-06
-1.85872e-06
4.40273e-06
-1.62975e-06
4.91766e-06
-1.40947e-06
5.38326e-06
-1.19102e-06
5.79652e-06
-9.67625e-07
6.14949e-06
-7.34002e-07
6.43006e-06
-4.88328e-07
6.62237e-06
-2.34049e-07
6.71241e-06
1.84343e-08
6.69475e-06
2.51353e-07
6.57905e-06
4.44777e-07
6.38791e-06
5.86028e-07
6.15068e-06
6.72022e-07
5.89492e-06
7.07262e-07
5.64124e-06
6.99992e-07
5.40362e-06
6.57796e-07
5.19214e-06
5.84208e-07
5.01613e-06
4.78581e-07
4.88591e-06
3.39444e-07
4.8104e-06
1.73102e-07
4.79346e-06
3.33232e-10
4.82742e-06
-1.47794e-07
4.89637e-06
-2.53086e-07
4.9848e-06
-3.14965e-07
5.08234e-06
-3.45994e-07
5.18416e-06
-3.60265e-07
5.28894e-06
-3.67224e-07
5.39667e-06
-3.70829e-07
5.50786e-06
-3.72046e-07
5.62279e-06
-3.70792e-07
5.74094e-06
-3.6708e-07
5.86222e-06
-3.62562e-07
5.98659e-06
-3.59037e-07
6.11302e-06
-3.57159e-07
6.24215e-06
-3.56606e-07
6.37394e-06
-3.52702e-07
6.50509e-06
-3.40429e-07
6.63439e-06
-3.14714e-07
6.75664e-06
-2.58793e-07
6.85994e-06
-1.6192e-07
6.93765e-06
-2.35627e-08
6.96744e-06
1.86053e-07
6.92667e-06
4.76283e-07
6.80257e-06
8.29244e-07
6.52562e-06
1.23744e-06
5.98012e-06
1.62462e-06
5.1777e-06
1.79938e-06
4.32002e-06
1.62546e-06
3.62792e-06
1.16582e-06
3.18599e-06
7.01878e-07
4.1431e-07
2.9158e-06
1.27165e-07
-9.08451e-08
3.18685e-07
-3.37764e-07
4.98594e-07
-4.54258e-07
6.34316e-07
-4.70601e-07
7.18434e-07
-4.28498e-07
7.55294e-07
-3.56076e-07
7.55728e-07
-2.73421e-07
7.32595e-07
-1.93803e-07
6.98358e-07
-1.24528e-07
6.63313e-07
-6.83848e-08
6.3308e-07
-2.16896e-08
6.10351e-07
2.49294e-08
5.92269e-07
8.42371e-08
5.70815e-07
1.68517e-07
5.38282e-07
2.81279e-07
4.85458e-07
4.25991e-07
3.95912e-07
6.07423e-07
2.43819e-07
8.21506e-07
2.24252e-09
1.038e-06
-3.44315e-07
1.20439e-06
-7.69434e-07
1.27504e-06
-1.21081e-06
1.283e-06
-1.62212e-06
1.27661e-06
-1.99911e-06
1.27273e-06
-2.35388e-06
1.30924e-06
-2.67928e-06
1.35657e-06
-2.9592e-06
1.32206e-06
-3.22149e-06
1.26774e-06
-3.52643e-06
1.31559e-06
-3.88676e-06
1.4228e-06
-4.28061e-06
1.50945e-06
-4.70267e-06
1.58345e-06
-5.15186e-06
1.65632e-06
-5.61913e-06
1.71145e-06
-6.09617e-06
1.74143e-06
-6.57491e-06
1.74681e-06
-7.04562e-06
1.72262e-06
-7.49831e-06
1.66593e-06
-7.92317e-06
1.5764e-06
-8.31076e-06
1.45311e-06
-8.652e-06
1.29624e-06
-8.93897e-06
1.10746e-06
-9.16527e-06
8.89411e-07
-9.32548e-06
6.45652e-07
-9.41487e-06
3.8072e-07
-9.42864e-06
9.94668e-08
-9.3701e-06
-1.84824e-07
-9.23959e-06
-4.69643e-07
-9.03674e-06
-7.49454e-07
-8.76313e-06
-1.01737e-06
-8.42177e-06
-1.26752e-06
-8.01729e-06
-1.49514e-06
-7.55574e-06
-1.6969e-06
-7.04484e-06
-1.87044e-06
-6.49322e-06
-2.01507e-06
-5.90978e-06
-2.13114e-06
-5.30392e-06
-2.21879e-06
-4.68535e-06
-2.2782e-06
-4.06346e-06
-2.31044e-06
-3.44667e-06
-2.31775e-06
-2.84195e-06
-2.30355e-06
-2.25464e-06
-2.27162e-06
-1.68827e-06
-2.22583e-06
-1.14609e-06
-2.16924e-06
-6.31717e-07
-2.10505e-06
-1.47902e-07
-2.04059e-06
3.14975e-07
-1.99275e-06
7.78901e-07
-1.96698e-06
1.26857e-06
-1.94569e-06
1.78681e-06
-1.88366e-06
2.30551e-06
-1.74771e-06
2.79044e-06
-1.56609e-06
3.23788e-06
-1.43e-06
3.68312e-06
-1.43418e-06
4.16913e-06
-1.5997e-06
4.70429e-06
-1.85038e-06
5.26191e-06
-2.08608e-06
5.82936e-06
-2.26059e-06
6.41989e-06
-2.33624e-06
7.00296e-06
-2.23021e-06
7.51246e-06
-1.92088e-06
7.94405e-06
-1.46553e-06
8.28214e-06
-8.29952e-07
8.43425e-06
1.07269e-08
8.41676e-06
8.78332e-07
8.33038e-06
1.62516e-06
8.06052e-06
2.35312e-06
7.42362e-06
2.92238e-06
6.50825e-06
2.71615e-06
5.60596e-06
1.56198e-06
4.86152e-06
4.58042e-07
4.20678e-06
3.54597e-07
3.4849e-06
1.01487e-06
2.64647e-06
1.76972e-06
1.71736e-06
2.3529e-06
7.42838e-07
2.83066e-06
-2.3074e-07
3.2746e-06
-1.16844e-06
3.67503e-06
-2.0664e-06
3.98224e-06
-2.94692e-06
4.1772e-06
-3.82857e-06
4.26221e-06
-4.70548e-06
4.24142e-06
-5.55645e-06
4.12445e-06
-6.36306e-06
3.93541e-06
-7.11511e-06
3.69891e-06
-7.80819e-06
3.42933e-06
-8.43843e-06
3.1284e-06
-8.99858e-06
2.78811e-06
-9.47638e-06
2.39701e-06
-9.85502e-06
1.94601e-06
-1.01165e-05
1.4333e-06
-1.0245e-05
8.63404e-07
-1.02336e-05
2.46569e-07
-1.00593e-05
-4.22412e-07