/*--------------------------------*- C++ -*----------------------------------*\
| =========                 |                                                 |
| \\      /  F ield         | OpenFOAM: The Open Source CFD Toolbox           |
|  \\    /   O peration     | Version:  2112                                  |
|   \\  /    A nd           | Website:  www.openfoam.com                      |
|    \\/     M anipulation  |                                                 |
\*---------------------------------------------------------------------------*/
FoamFile
{
    version     2.0;
    format      ascii;
    arch        "LSB;label=32;scalar=64";
    class       surfaceScalarField;
    location    "0.2";
    object      ddtCorrDdt0(phi);
}
// * * * * * * * * * * * * * * * * * * * * * * * * * * * * * * * * * * * * * //

dimensions      [0 3 -2 0 0 0 0];

oriented        oriented;

internalField   nonuniform List<scalar> 
25468
(
6.35262e-06
-6.35262e-06
7.8769e-06
-1.52427e-06
2.00847e-06
5.86844e-06
-1.12832e-05
1.32917e-05
-1.92163e-05
7.93313e-06
2.54033e-05
-4.46196e-05
7.47952e-05
-4.93919e-05
6.11299e-05
1.36653e-05
4.57226e-06
5.65576e-05
-6.29122e-05
6.74845e-05
-0.000106616
4.37036e-05
-8.18275e-05
-2.47883e-05
1.08145e-05
-9.2642e-05
8.19137e-05
-7.10992e-05
8.23788e-05
-4.65037e-07
5.18271e-05
3.05517e-05
1.54644e-05
3.63627e-05
-2.43901e-05
3.98545e-05
-5.82611e-05
3.3871e-05
-6.07001e-05
2.43907e-06
-2.34419e-05
-3.72582e-05
1.4063e-05
-3.75049e-05
2.35406e-05
-9.47767e-06
1.71322e-05
6.40847e-06
8.65771e-06
8.47451e-06
3.59704e-06
5.06069e-06
3.31735e-07
3.26533e-06
-2.78148e-06
3.11324e-06
-4.08745e-06
1.30599e-06
-1.37335e-06
-2.71408e-06
5.38348e-06
-6.7568e-06
1.36852e-05
-8.30171e-06
2.01569e-05
-6.47169e-06
2.18945e-05
-1.73749e-06
1.87723e-05
3.12218e-06
1.08991e-05
7.8733e-06
9.97568e-07
9.90151e-06
-8.37982e-06
9.3774e-06
-1.86241e-05
1.02443e-05
1.30215e-05
-3.16456e-05
-3.87755e-06
-2.47507e-06
-4.81156e-06
-5.90247e-07
-8.34837e-07
1.89173e-06
1.08528e-05
1.60407e-06
1.54894e-05
3.29654e-06
-4.5712e-06
-2.4559e-05
-1.57357e-05
-3.82273e-05
-6.96912e-06
4.89869e-06
-3.81137e-06
5.33999e-05
-2.3693e-06
6.60424e-05
4.06792e-06
3.72664e-05
1.0126e-06
-2.17329e-05
-1.57592e-05
-7.58701e-05
-8.29206e-06
-7.85663e-05
2.57905e-05
-3.45476e-05
4.27402e-05
1.36021e-05
3.15815e-05
4.75214e-05
8.08401e-06
6.33521e-05
-1.11843e-05
5.31393e-05
-2.79848e-05
1.92397e-05
-4.73863e-05
-1.78567e-05
-5.18895e-05
-3.30016e-05
-3.29601e-05
-2.84071e-05
-6.19201e-06
-2.03596e-05
1.61712e-05
-1.38887e-05
2.94143e-05
-8.18236e-06
3.35712e-05
-8.91596e-07
3.1357e-05
5.32749e-06
2.60247e-05
6.63833e-06
1.92238e-05
4.0868e-06
1.14696e-05
9.97404e-07
3.65825e-06
-4.90294e-07
-2.81796e-06
4.55457e-09
-7.01459e-06
2.45918e-06
-9.3544e-06
5.46202e-06
-1.00355e-05
8.55448e-06
-1.07531e-05
1.06191e-05
-1.43581e-05
1.29824e-05
-1.42743e-05
1.01606e-05
7.37298e-06
-8.62579e-06
-1.70838e-06
-7.66679e-07
-1.74302e-06
-5.55601e-07
9.74056e-07
-8.25337e-07
3.98319e-06
-1.40505e-06
5.87703e-06
1.40272e-06
-5.53039e-06
-1.31515e-05
-2.01163e-05
-2.36414e-05
-1.86068e-05
3.38924e-06
-8.81846e-07
3.56749e-05
2.34573e-05
4.17033e-05
3.63887e-05
2.4335e-05
2.18736e-05
-7.21783e-06
-7.73357e-06
-4.62629e-05
-2.56063e-05
-6.06935e-05
-2.50914e-05
-3.50625e-05
-1.6064e-05
4.57481e-06
-4.21163e-06
3.5669e-05
9.34965e-06
4.97908e-05
1.56113e-05
4.68777e-05
5.82644e-06
2.90245e-05
-1.1456e-05
-5.74246e-07
-1.92042e-05
-2.52534e-05
-1.23354e-05
-3.52758e-05
3.14402e-06
-3.5839e-05
1.97457e-05
-3.04904e-05
3.19867e-05
-2.04233e-05
3.81068e-05
-7.01171e-06
3.67691e-05
6.6652e-06
2.62581e-05
1.71494e-05
7.7898e-06
2.25551e-05
-1.41446e-05
2.29319e-05
-3.4345e-05
1.97101e-05
-4.86624e-05
1.4322e-05
-5.48852e-05
8.68196e-06
-5.34316e-05
4.00848e-06
-4.55646e-05
6.8751e-07
-3.3564e-05
-1.38142e-06
-1.76734e-05
-2.90821e-06
-3.09143e-06
-4.42144e-06
-3.94342e-06
8.22498e-06
-4.63257e-07
-3.03418e-07
-5.70246e-07
-4.48603e-07
-5.56163e-08
-1.33996e-06
3.31973e-07
-1.79263e-06
2.63684e-06
-9.02139e-07
-1.6058e-06
-8.90889e-06
-1.22533e-05
-1.29939e-05
-1.3123e-05
4.25901e-06
-1.55527e-06
2.41072e-05
1.2682e-05
2.74661e-05
2.23195e-05
1.46976e-05
2.36898e-05
-8.58812e-06
9.91392e-06
-3.2487e-05
-1.37997e-05
-3.69798e-05
-3.04454e-05
-1.84168e-05
-3.21342e-05
6.26365e-06
-2.13458e-05
2.48806e-05
-4.49468e-06
3.29397e-05
1.34944e-05
2.88886e-05
2.91085e-05
1.34104e-05
3.50033e-05
-6.46898e-06
2.86065e-05
-1.88566e-05
1.52199e-05
-2.18892e-05
3.12536e-07
-2.09316e-05
-1.23827e-05
-1.77951e-05
-2.07633e-05
-1.20427e-05
-2.39203e-05
-3.85472e-06
-2.2381e-05
5.12596e-06
-1.77042e-05
1.24726e-05
-1.16841e-05
1.6535e-05
-5.87714e-06
1.7125e-05
-1.36591e-06
1.51989e-05
1.14945e-06
1.18067e-05
1.7709e-06
8.06054e-06
1.20855e-06
4.57086e-06
4.78289e-07
1.4178e-06
5.13153e-07
-1.41627e-06
1.36033e-06
-3.75537e-06
2.67304e-06
-5.73413e-06
-7.18395e-06
5.91358e-06
-5.71899e-08
-2.46223e-07
-2.32683e-07
-2.73102e-07
-2.48194e-07
-1.32444e-06
-7.88061e-08
-1.962e-06
1.0735e-06
-2.05443e-06
-1.63681e-06
-6.19856e-06
-8.00151e-06
-6.62918e-06
-8.38837e-06
4.64589e-06
-7.27379e-07
1.64462e-05
9.21874e-06
1.752e-05
1.63094e-05
7.60691e-06
1.53811e-05
-7.6598e-06
3.1242e-06
-2.023e-05
-1.26859e-05
-2.11697e-05
-2.12602e-05
-9.8424e-06
-1.99731e-05
4.9765e-06
-1.1053e-05
1.59606e-05
2.13496e-06
1.97518e-05
1.53137e-05
1.57099e-05
2.25345e-05
6.18967e-06
2.01997e-05
-4.13416e-06
1.22382e-05
-1.08951e-05
3.79201e-06
-1.3443e-05
-3.81022e-06
-1.33293e-05
-1.05082e-05
-1.10971e-05
-1.56728e-05
-6.87806e-06
-1.81294e-05
-1.39808e-06
-1.70679e-05
4.06442e-06
-1.27877e-05
8.1924e-06
-6.69216e-06
1.04395e-05
-5.29974e-07
1.09628e-05
4.54099e-06
1.0128e-05
8.01775e-06
8.32995e-06
1.01205e-05
5.9578e-06
1.13329e-05
3.35847e-06
1.19751e-05
7.75692e-07
1.20985e-05
-1.53967e-06
1.17748e-05
-3.43163e-06
1.10712e-05
-5.03055e-06
-6.32419e-06
1.02114e-05
-7.84342e-09
-2.38374e-07
-2.54762e-08
-2.55461e-07
-1.3399e-07
-1.21591e-06
-1.75486e-07
-1.9205e-06
1.09926e-07
-2.33983e-06
-1.75569e-06
-4.33294e-06
-5.19053e-06
-3.19432e-06
-4.91282e-06
4.3682e-06
2.26837e-07
1.13066e-05
6.59852e-06
1.11483e-05
1.01048e-05
4.10064e-06
7.94989e-06
-5.50485e-06
2.65563e-07
-1.25457e-05
-8.28055e-06
-1.26236e-05
-1.24073e-05
-5.71561e-06
-1.0789e-05
3.35819e-06
-4.77307e-06
9.94473e-06
3.12053e-06
1.18582e-05
9.66366e-06
9.1668e-06
1.22764e-05
3.57697e-06
1.06765e-05
-2.53428e-06
6.75114e-06
-6.96971e-06
2.1318e-06
-8.82368e-06
-2.6639e-06
-8.53359e-06
-7.07902e-06
-6.68194e-06
-1.02574e-05
-3.69971e-06
-1.14584e-05
-1.96973e-07
-1.05024e-05
3.10843e-06
-7.91077e-06
5.60076e-06
-4.42434e-06
6.95308e-06
-6.5607e-07
7.19456e-06
2.94879e-06
6.52314e-06
6.06202e-06
5.21674e-06
8.46798e-06
3.55187e-06
1.00414e-05
1.78502e-06
1.07144e-05
1.02729e-07
1.05522e-05
-1.3774e-06
9.72246e-06
-2.60191e-06
8.27509e-06
-3.58317e-06
-4.29001e-06
6.24091e-06
-1.28817e-08
-2.25485e-07
5.82227e-08
-3.26555e-07
-9.26551e-08
-1.06502e-06
-2.49096e-07
-1.76405e-06
-3.3122e-07
-2.25769e-06
-1.58717e-06
-3.07697e-06
-3.41166e-06
-1.36981e-06
-2.88118e-06
3.83774e-06
4.94968e-07
7.93048e-06
4.33023e-06
7.31307e-06
6.00393e-06
2.42696e-06
4.27689e-06
-3.77779e-06
-2.56585e-07
-8.01217e-06
-5.04132e-06
-7.83886e-06
-7.25217e-06
-3.50474e-06
-6.01132e-06
2.11736e-06
-2.22494e-06
6.15836e-06
2.3674e-06
7.26585e-06
5.97613e-06
5.55809e-06
7.45482e-06
2.09829e-06
6.58385e-06
-1.6633e-06
4.01301e-06
-4.39886e-06
7.22729e-07
-5.53339e-06
-2.54397e-06
-5.26688e-06
-5.23413e-06
-3.99177e-06
-6.88428e-06
-2.04954e-06
-7.23602e-06
1.54782e-07
-6.32097e-06
2.1934e-06
-4.43969e-06
3.7195e-06
-2.02175e-06
4.53516e-06
5.22395e-07
4.65044e-06
2.84859e-06
4.19697e-06
4.71255e-06
3.35279e-06
5.9742e-06
2.29025e-06
6.60284e-06
1.1564e-06
6.65531e-06
5.02831e-08
6.23393e-06
-9.56019e-07
5.44972e-06
-1.81768e-06
4.41765e-06
-2.5511e-06
-3.1122e-06
3.23985e-06
6.56097e-11
-2.25543e-07
4.54199e-08
-3.71898e-07
-1.12895e-07
-9.06695e-07
-2.97876e-07
-1.57905e-06
-5.08808e-07
-2.04675e-06
-1.35682e-06
-2.22895e-06
-2.31549e-06
-4.11121e-07
-1.76568e-06
3.28794e-06
4.4431e-07
5.7205e-06
2.76605e-06
4.99135e-06
3.63464e-06
1.55839e-06
2.44604e-06
-2.58918e-06
-2.96927e-07
-5.26919e-06
-3.06031e-06
-5.07545e-06
-4.24446e-06
-2.32057e-06
-3.35849e-06
1.2314e-06
-1.00753e-06
3.80741e-06
1.72366e-06
4.53467e-06
3.79997e-06
3.48179e-06
4.55708e-06
1.34118e-06
3.8563e-06
-9.62503e-07
2.11217e-06
-2.65473e-06
-1.75942e-08
-3.40362e-06
-2.0108e-06
-3.27367e-06
-3.52782e-06
-2.47473e-06
-4.33415e-06
-1.2432e-06
-4.33255e-06
1.53197e-07
-3.58971e-06
1.45058e-06
-2.30498e-06
2.43479e-06
-7.5573e-07
2.98592e-06
7.98377e-07
3.09635e-06
2.16139e-06
2.83397e-06
3.21239e-06
2.30181e-06
3.89212e-06
1.61053e-06
4.18747e-06
8.61065e-07
4.14412e-06
9.36464e-08
3.81351e-06
-6.25396e-07
3.26628e-06
-1.27044e-06
2.56586e-06
-1.85067e-06
-2.2943e-06
1.74797e-06
8.41768e-09
-2.33951e-07
2.42524e-08
-3.87719e-07
-1.26719e-07
-7.55711e-07
-3.40904e-07
-1.36485e-06
-6.01532e-07
-1.78611e-06
-1.17373e-06
-1.65674e-06
-1.63853e-06
5.36929e-08
-1.13427e-06
2.78369e-06
3.43335e-07
4.24291e-06
1.78002e-06
3.55468e-06
2.25282e-06
1.0856e-06
1.4616e-06
-1.79794e-06
-1.99745e-07
-3.60782e-06
-1.7915e-06
-3.48368e-06
-2.4237e-06
-1.68836e-06
-1.84724e-06
6.5495e-07
-4.38897e-07
2.39907e-06
1.14827e-06
2.94751e-06
2.30048e-06
2.32959e-06
2.64511e-06
9.96552e-07
2.14745e-06
-4.6483e-07
1.07425e-06
-1.58152e-06
-2.00285e-07
-2.12908e-06
-1.36863e-06
-2.10531e-06
-2.21801e-06
-1.62534e-06
-2.61156e-06
-8.49621e-07
-2.51092e-06
5.25708e-08
-1.98604e-06
9.25713e-07
-1.16548e-06
1.61426e-06
-2.05518e-07
2.02598e-06
7.5111e-07
2.13974e-06
1.59777e-06
1.98733e-06
2.2682e-06
1.6314e-06
2.72255e-06
1.15619e-06
2.955e-06
6.28627e-07
2.99695e-06
5.17088e-08
2.89026e-06
-5.18687e-07
2.6417e-06
-1.02187e-06
2.19142e-06
-1.40037e-06
-1.66702e-06
1.56414e-06
7.55316e-09
-2.41494e-07
2.75263e-08
-4.07678e-07
-9.09711e-08
-6.37198e-07
-3.80259e-07
-1.07555e-06
-7.01353e-07
-1.465e-06
-1.12072e-06
-1.23736e-06
-1.27607e-06
2.09053e-07
-7.20209e-07
2.22785e-06
3.22146e-07
3.20057e-06
1.23509e-06
2.64174e-06
1.49013e-06
8.30573e-07
9.5814e-07
-1.26593e-06
-6.72103e-08
-2.58246e-06
-1.0163e-06
-2.53459e-06
-1.39295e-06
-1.31169e-06
-1.0646e-06
3.26602e-07
-2.51628e-07
1.58611e-06
6.60987e-07
2.0349e-06
1.31316e-06
1.67742e-06
1.49702e-06
8.12698e-07
1.20248e-06
-1.70282e-07
5.76225e-07
-9.55255e-07
-1.76846e-07
-1.37599e-06
-8.73992e-07
-1.40815e-06
-1.38005e-06
-1.11927e-06
-1.60966e-06
-6.19994e-07
-1.53766e-06
-1.94071e-08
-1.19644e-06
5.8451e-07
-6.54455e-07
1.07229e-06
9.47229e-10
1.37059e-06
6.80059e-07
1.46065e-06
1.3065e-06
1.36091e-06
1.82687e-06
1.11104e-06
2.22853e-06
7.54539e-07
2.52578e-06
3.31385e-07
2.66448e-06
-8.69749e-08
2.61341e-06
-4.67603e-07
2.38236e-06
-7.90816e-07
1.99889e-06
-1.0169e-06
-1.16055e-06
1.49242e-06
-9.16787e-09
-2.32314e-07
8.88029e-09
-4.25711e-07
-5.9336e-08
-5.68965e-07
-3.52994e-07
-7.81876e-07
-8.03347e-07
-1.01463e-06
-1.25643e-06
-7.84265e-07
-1.20261e-06
1.55248e-07
-4.2364e-07
1.44889e-06
4.63553e-07
2.31338e-06
1.11776e-06
1.98755e-06
1.25705e-06
6.91296e-07
8.07775e-07
-8.16644e-07
7.17771e-09
-1.78185e-06
-7.29335e-07
-1.79806e-06
-1.05442e-06
-9.86597e-07
-8.67511e-07
1.39697e-07
-3.12409e-07
1.03101e-06
3.42752e-07
1.37974e-06
8.39954e-07
1.18023e-06
1.02365e-06
6.29014e-07
8.70693e-07
-1.73129e-08
4.63677e-07
-5.48224e-07
-6.6455e-08
-8.45841e-07
-5.92617e-07
-8.8197e-07
-1.02022e-06
-6.91649e-07
-1.29113e-06
-3.49067e-07
-1.35484e-06
4.43276e-08
-1.15763e-06
3.87315e-07
-7.21283e-07
6.35965e-07
-1.24033e-07
7.7336e-07
5.40875e-07
7.95756e-07
1.18779e-06
7.14008e-07
1.74969e-06
5.49156e-07
2.1774e-06
3.26845e-07
2.43852e-06
7.02837e-08
2.5182e-06
-1.66645e-07
2.41688e-06
-3.66267e-07
2.14711e-06
-5.21033e-07
1.75663e-06
-6.26408e-07
-6.86092e-07
1.28218e-06
-2.57716e-08
-2.0653e-07
-3.77961e-08
-4.1367e-07
-1.18579e-07
-4.88166e-07
-3.7615e-07
-5.2429e-07
-8.21647e-07
-5.69118e-07
-1.21279e-06
-3.9311e-07
-1.1404e-06
8.28707e-08
-4.21525e-07
7.30022e-07
5.6749e-07
1.32438e-06
1.34579e-06
1.20925e-06
1.51345e-06
5.23644e-07
9.85728e-07
-2.88907e-07
2.59178e-08
-8.22031e-07
-8.9256e-07
-8.79576e-07
-1.35407e-06
-5.25078e-07
-1.21037e-06
-3.99891e-09
-6.00004e-07
4.20662e-07
1.78843e-07
6.00906e-07
8.25566e-07
5.33521e-07
1.14588e-06
3.08712e-07
1.08831e-06
4.02829e-08
7.20361e-07
-1.8026e-07
1.74519e-07
-2.99978e-07
-4.04395e-07
-3.03035e-07
-8.92367e-07
-2.03654e-07
-1.19961e-06
-4.18023e-08
-1.27825e-06
1.2299e-07
-1.12331e-06
2.32395e-07
-7.68273e-07
2.8095e-07
-2.71563e-07
2.7667e-07
2.9342e-07
2.30792e-07
8.52555e-07
1.54891e-07
1.34128e-06
6.0446e-08
1.70954e-06
-4.1394e-08
1.91956e-06
-1.3972e-07
1.97451e-06
-2.21582e-07
1.88889e-06
-2.80639e-07
1.68354e-06
-3.15672e-07
1.38594e-06
-3.28791e-07
-3.2248e-07
1.02233e-06
-4.70115e-08
-1.59503e-07
-1.32392e-07
-3.28272e-07
-2.54684e-07
-3.65857e-07
-4.61713e-07
-3.17246e-07
-8.11986e-07
-2.18832e-07
-1.08185e-06
-1.23235e-07
-9.85959e-07
-1.30112e-08
-3.91356e-07
1.35428e-07
6.08606e-07
3.24427e-07
1.43962e-06
3.78246e-07
1.63751e-06
3.2577e-07
1.09734e-06
2.51277e-07
8.77544e-08
1.87567e-07
-9.14996e-07
1.23187e-07
-1.48311e-06
4.30456e-08
-1.43658e-06
-5.05124e-08
-8.78006e-07
-1.37894e-07
-8.50752e-08
-1.92006e-07
6.40681e-07
-1.92215e-07
1.08589e-06
-1.3647e-07
1.16824e-06
-4.20488e-08
9.23068e-07
6.49399e-08
4.61887e-07
1.6123e-07
-7.25207e-08
2.314e-07
-5.43163e-07
2.67015e-07
-8.48567e-07
2.63629e-07
-9.45013e-07
2.19462e-07
-8.51663e-07
1.39071e-07
-6.08417e-07
3.77288e-08
-2.64966e-07
-6.67578e-08
1.25309e-07
-1.5946e-07
5.1078e-07
-2.30557e-07
8.46716e-07
-2.75469e-07
1.09946e-06
-2.9412e-07
1.24935e-06
-2.89594e-07
1.29421e-06
-2.6642e-07
1.24249e-06
-2.28901e-07
1.10803e-06
-1.81201e-07
9.06471e-07
-1.27223e-07
-6.99e-08
6.53901e-07
-5.71324e-08
-1.02355e-07
-1.69253e-07
-2.16134e-07
-3.0013e-07
-2.34965e-07
-4.32487e-07
-1.84874e-07
-5.62711e-07
-8.85961e-08
-6.22117e-07
-6.3818e-08
-5.10721e-07
-1.24397e-07
-1.74971e-07
-2.00312e-07
3.44438e-07
-1.94969e-07
7.65112e-07
-4.24149e-08
8.60339e-07
2.30559e-07
5.99517e-07
5.12115e-07
1.22571e-07
6.64531e-07
-3.61998e-07
6.07776e-07
-6.79399e-07
3.60467e-07
-7.49165e-07
1.92765e-08
-5.92743e-07
-2.94291e-07
-2.99894e-07
-4.84828e-07
2.02446e-08
-5.12325e-07
2.78129e-07
-3.94324e-07
4.22933e-07
-1.86821e-07
4.45248e-07
4.26565e-08
3.69637e-07
2.36874e-07
2.41206e-07
3.59863e-07
1.09741e-07
3.98512e-07
1.42216e-08
3.5918e-07
-2.80985e-08
2.61813e-07
-2.12422e-08
1.32244e-07
2.09908e-08
-4.47533e-09
8.22726e-08
-1.28012e-07
1.47408e-07
-2.24569e-07
2.03832e-07
-2.86956e-07
2.42185e-07
-3.13799e-07
2.56355e-07
-3.08269e-07
2.43213e-07
-2.76432e-07
2.02303e-07
-2.25491e-07
1.35839e-07
-1.6242e-07
4.79605e-08
-9.33075e-08
-5.62326e-08
-2.3017e-08
4.49177e-08
-1.7104e-07
-4.08194e-08
-6.15204e-08
-1.20148e-07
-1.3679e-07
-1.96948e-07
-1.5815e-07
-2.41441e-07
-1.40368e-07
-2.2206e-07
-1.07965e-07
-1.81774e-07
-1.04092e-07
-1.59347e-07
-1.46813e-07
-1.6993e-07
-1.89716e-07
-1.93113e-07
-1.71771e-07
-1.97225e-07
-3.82862e-08
-1.46872e-07
1.80226e-07
-2.43795e-08
3.89644e-07
1.41421e-07
4.98754e-07
2.83598e-07
4.65624e-07
3.35835e-07
3.08258e-07
2.68654e-07
8.64887e-08
1.01653e-07
-1.27258e-07
-1.08623e-07
-2.74518e-07
-2.94119e-07
-3.26793e-07
-4.00552e-07
-2.87855e-07
-4.02202e-07
-1.85134e-07
-3.0329e-07
-5.6218e-08
-1.30015e-07
6.36363e-08
8.02804e-08
1.49604e-07
2.88578e-07
1.9025e-07
4.61266e-07
1.86528e-07
5.74837e-07
1.48276e-07
6.17573e-07
8.95412e-08
5.88718e-07
2.44117e-08
4.96331e-07
-3.55953e-08
3.54416e-07
-8.26254e-08
1.80013e-07
-1.12526e-07
-9.44188e-09
-1.24319e-07
-1.98295e-07
-1.19392e-07
-3.74073e-07
-1.00633e-07
-5.27877e-07
-7.16685e-08
-6.53991e-07
-3.62886e-08
-7.49246e-07
1.96283e-09
-8.12329e-07
4.00788e-08
7.56447e-08
-8.43045e-07
-2.31452e-08
-3.83625e-08
-6.79272e-08
-9.19949e-08
-1.09332e-07
-1.16732e-07
-1.31209e-07
-1.1848e-07
-1.30654e-07
-1.08508e-07
-1.35606e-07
-9.91279e-08
-1.88794e-07
-9.36107e-08
-3.01867e-07
-7.66275e-08
-4.38163e-07
-3.54567e-08
-5.00811e-07
2.43817e-08
-4.13147e-07
9.25849e-08
-1.73448e-07
1.49971e-07
1.46005e-07
1.7933e-07
4.37206e-07
1.74453e-07
6.05112e-07
1.40385e-07
6.026e-07
8.90342e-08
4.41242e-07
3.41358e-08
1.79476e-07
-1.27152e-08
-1.02867e-07
-4.44131e-08
-3.31737e-07
-5.89474e-08
-4.58256e-07
-5.85767e-08
-4.66307e-07
-4.81289e-08
-3.69545e-07
-3.30874e-08
-2.01861e-07
-1.80429e-08
-5.72028e-09
-5.8547e-09
1.78388e-07
2.45461e-09
3.19422e-07
7.27602e-09
3.99226e-07
9.76986e-09
4.12386e-07
1.12824e-08
3.63855e-07
1.29656e-08
2.65663e-07
1.55944e-08
1.33651e-07
1.95118e-08
-1.53645e-08
2.47201e-08
-1.65671e-07
3.09362e-08
-3.03986e-07
3.77031e-08
-4.20103e-07
4.44667e-08
-5.07012e-07
5.06361e-08
-5.60673e-07
5.56393e-08
-5.79545e-07
5.89634e-08
6.01495e-08
-5.6404e-07
-1.34749e-08
-2.48775e-08
-3.89042e-08
-6.65547e-08
-6.5385e-08
-9.02403e-08
-8.84606e-08
-9.53932e-08
-1.10786e-07
-8.61711e-08
-1.41343e-07
-6.8557e-08
-1.87823e-07
-4.71165e-08
-2.41183e-07
-2.32502e-08
-2.79251e-07
2.62898e-09
-2.74548e-07
1.96999e-08
-2.11649e-07
2.97089e-08
-9.75958e-08
3.59428e-08
3.96888e-08
4.20719e-08
1.64278e-07
4.98922e-08
2.46169e-07
5.85235e-08
2.70107e-07
6.51262e-08
2.37694e-07
6.65803e-08
1.63931e-07
6.108e-08
7.07013e-08
4.88485e-08
-2.00329e-08
3.1819e-08
-9.13824e-08
1.28048e-08
-1.34238e-07
-5.24184e-09
-1.47468e-07
-1.9826e-08
-1.36191e-07
-2.92902e-08
-1.09064e-07
-3.2953e-08
-7.55379e-08
-3.10432e-08
-4.37431e-08
-2.44921e-08
-1.92925e-08
-1.46553e-08
-4.9547e-09
-3.03138e-09
-9.31708e-10
8.96506e-09
-6.12843e-09
2.08121e-08
-1.6281e-08
2.96837e-08
-2.84905e-08
3.69474e-08
-3.92201e-08
4.16821e-08
-4.53383e-08
4.3836e-08
-4.43886e-08
4.35303e-08
-3.47469e-08
4.10063e-08
-1.56755e-08
3.65784e-08
1.27133e-08
3.05835e-08
2.33781e-08
4.94916e-08
-3.06092e-10
-2.4561e-08
7.26294e-09
-7.41116e-08
2.17638e-08
-1.04728e-07
3.50651e-08
-1.0868e-07
3.64158e-08
-8.75064e-08
1.89571e-08
-5.10817e-08
-1.49555e-08
-1.31858e-08
-5.34089e-08
1.52227e-08
-8.06327e-08
2.98741e-08
-9.50197e-08
3.41099e-08
-1.03968e-07
3.86817e-08
-1.05378e-07
3.7379e-08
-9.15082e-08
2.82305e-08
-5.80528e-08
1.6466e-08
-8.23227e-09
8.73324e-09
4.8094e-08
8.83102e-09
9.78329e-08
1.68731e-08
1.29013e-07
2.99319e-08
1.34501e-07
4.33923e-08
1.14358e-07
5.19943e-08
7.6066e-08
5.11284e-08
3.08192e-08
4.00362e-08
-1.0768e-08
2.17917e-08
-4.15344e-08
1.50591e-09
-5.86766e-08
-1.57821e-08
-6.31226e-08
-2.65695e-08
-5.81271e-08
-2.94613e-08
-4.77441e-08
-2.50134e-08
-3.56015e-08
-1.51505e-08
-2.41617e-08
-2.45262e-09
-1.38185e-08
1.04894e-08
-5.64309e-09
2.15273e-08
2.09068e-09
2.92311e-08
1.08619e-08
3.29269e-08
2.20786e-08
3.26339e-08
3.67188e-08
2.89032e-08
5.5121e-08
2.26159e-08
7.69233e-08
1.47866e-08
1.01123e-07
6.39235e-09
-1.74203e-09
1.26251e-07
7.36475e-09
-3.19158e-08
3.5972e-08
-1.02707e-07
8.07976e-08
-1.49541e-07
1.2576e-07
-1.5363e-07
1.49575e-07
-1.11308e-07
1.38133e-07
-3.96251e-08
9.40087e-08
3.09546e-08
3.50902e-08
7.41579e-08
-1.82175e-08
8.31996e-08
-5.85309e-08
7.44422e-08
-8.82891e-08
6.846e-08
-1.02203e-07
5.13142e-08
-9.12693e-08
1.73186e-08
-5.01448e-08
-2.46357e-08
1.45742e-08
-5.59622e-08
8.23965e-08
-5.89673e-08
1.29037e-07
-2.97433e-08
1.39265e-07
1.97291e-08
1.14554e-07
6.81279e-08
7.02739e-08
9.6299e-08
2.2247e-08
9.91796e-08
-1.765e-08
7.99571e-08
-4.32337e-08
4.73988e-08
-5.36252e-08
1.192e-08
-5.16944e-08
-1.76911e-08
-4.21833e-08
-3.60598e-08
-3.00375e-08
-4.15872e-08
-1.92356e-08
-3.57965e-08
-1.21997e-08
-2.21687e-08
-9.71705e-09
-4.91876e-09
-1.12158e-08
1.20035e-08
-1.52394e-08
2.55651e-08
-1.9945e-08
3.39497e-08
-2.35791e-08
3.65729e-08
-2.4818e-08
3.38835e-08
-2.29526e-08
2.70473e-08
-1.79254e-08
1.75972e-08
-1.02486e-08
7.11742e-09
-8.48862e-10
-3.00106e-09
-1.16853e-08
9.09941e-09
8.68602e-09
-4.05914e-08
5.43328e-08
-1.48342e-07
1.37202e-07
-2.32398e-07
2.30837e-07
-2.47252e-07
2.88936e-07
-1.69393e-07
2.7284e-07
-2.35145e-08
1.79402e-07
1.24407e-07
4.62094e-08
2.07367e-07
-7.18508e-08
2.01277e-07
-1.36402e-07
1.39011e-07
-1.32675e-07
6.47509e-08
-8.9709e-08
8.36824e-09
-4.74411e-08
-2.49288e-08
-1.77513e-08
-5.43043e-08
9.414e-09
-8.31054e-08
3.37873e-08
-8.3318e-08
4.79672e-08
-4.39002e-08
4.9642e-08
1.80777e-08
5.53695e-08
6.2424e-08
9.69813e-08
5.47109e-08
1.54842e-07
4.13427e-08
1.98068e-07
3.67546e-08
2.02966e-07
4.25232e-08
1.6176e-07
5.31486e-08
8.16743e-08
6.24165e-08
-2.02117e-08
6.58475e-08
-1.23249e-07
6.14703e-08
-2.08769e-07
4.9743e-08
-2.63767e-07
3.28484e-08
-2.82405e-07
1.37368e-08
-2.65668e-07
-4.71693e-09
-2.19832e-07
-2.02555e-08
-1.54394e-07
-3.14744e-08
-7.99784e-08
-3.78295e-08
-6.58711e-09
-3.94958e-08
5.76273e-08
-3.71562e-08
1.07012e-07
-3.17777e-08
1.38554e-07
-2.4416e-08
1.51621e-07
-1.60603e-08
-7.53272e-09
1.47474e-07
2.60248e-09
-4.31842e-08
5.71457e-08
-2.02875e-07
1.84595e-07
-3.59835e-07
3.54011e-07
-4.16658e-07
4.81787e-07
-2.97157e-07
4.79953e-07
-2.16683e-08
3.22355e-07
2.82017e-07
7.42446e-08
4.5549e-07
-1.42482e-07
4.18016e-07
-2.21087e-07
2.17631e-07
-1.31661e-07
-2.46609e-08
3.15951e-08
-1.54873e-07
1.3384e-07
-1.27158e-07
9.69494e-08
-1.73979e-08
-6.42693e-08
7.81293e-08
-2.61972e-07
1.14401e-07
-3.88973e-07
8.3117e-08
-3.73653e-07
2.77368e-09
-2.03846e-07
-1.07366e-07
6.27505e-08
-2.1187e-07
3.30019e-07
-2.2591e-07
5.09786e-07
-1.42996e-07
5.58574e-07
-6.24901e-09
4.75025e-07
1.36713e-07
2.90636e-07
2.4682e-07
5.54987e-08
3.00999e-07
-1.77257e-07
2.94239e-07
-3.63912e-07
2.36412e-07
-4.77067e-07
1.46015e-07
-5.07054e-07
4.3736e-08
-4.59542e-07
-5.22183e-08
-3.51162e-07
-1.28625e-07
-2.04569e-07
-1.78058e-07
-4.38312e-08
-1.98558e-07
1.09269e-07
-1.92588e-07
2.3772e-07
-1.656e-07
3.30471e-07
-1.24522e-07
3.8248e-07
-7.64199e-08
3.93907e-07
-2.74824e-08
1.75002e-08
3.68878e-07
-1.59895e-08
-2.71866e-08
2.58596e-08
-2.44715e-07
1.88987e-07
-5.22954e-07
4.55868e-07
-6.83528e-07
7.04643e-07
-5.45922e-07
7.62959e-07
-7.99751e-08
5.39811e-07
5.05176e-07
1.2597e-07
8.69342e-07
-2.35131e-07
7.79128e-07
-3.36155e-07
3.18667e-07
-1.73416e-07
-1.87388e-07
1.0295e-07
-4.31227e-07
2.99562e-07
-3.23759e-07
2.49972e-07
3.22044e-08
-7.99373e-08
4.08051e-07
-5.18836e-07
5.53313e-07
-8.02155e-07
3.66448e-07
-7.47511e-07
-5.1857e-08
-3.98873e-07
-4.55992e-07
2.52316e-08
-6.35962e-07
4.047e-07
-6.05366e-07
6.61702e-07
-3.99986e-07
7.42043e-07
-8.65779e-08
6.3833e-07
2.40438e-07
3.90794e-07
4.94368e-07
6.96893e-08
6.22114e-07
-2.48479e-07
6.12418e-07
-5.01198e-07
4.8914e-07
-6.50231e-07
2.95058e-07
-6.82424e-07
7.59381e-08
-6.05692e-07
-1.28941e-07
-4.43208e-07
-2.91101e-07
-2.27066e-07
-3.94192e-07
7.8996e-09
-4.33516e-07
2.29533e-07
-4.14215e-07
4.12394e-07
-3.48454e-07
5.39975e-07
-2.52096e-07
6.05074e-07
-1.41513e-07
6.08676e-07
-3.10793e-08
6.85021e-08
5.57679e-07
-3.89986e-08
1.18184e-08
-3.33624e-08
-2.50344e-07
1.34158e-07
-6.90467e-07
4.9365e-07
-1.04301e-06
9.25613e-07
-9.77877e-07
1.12217e-06
-2.76528e-07
8.20482e-07
8.06875e-07
8.61878e-08
1.60365e-06
-6.2264e-07
1.48796e-06
-8.23391e-07
5.19428e-07
-4.56545e-07
-5.54224e-07
1.50195e-07
-1.03796e-06
5.78863e-07
-7.52417e-07
5.74918e-07
3.61598e-08
1.40065e-07
8.42916e-07
-5.08288e-07
1.20168e-06
-1.0393e-06
8.9747e-07
-1.17182e-06
8.06782e-08
-8.12306e-07
-8.15499e-07
-8.77672e-08
-1.36049e-06
7.24601e-07
-1.41772e-06
1.34526e-06
-1.02064e-06
1.58805e-06
-3.29357e-07
1.39521e-06
4.33291e-07
8.37503e-07
1.05208e-06
7.84884e-08
1.38114e-06
-6.85529e-07
1.37644e-06
-1.29166e-06
1.09528e-06
-1.64659e-06
6.50003e-07
-1.72302e-06
1.52371e-07
-1.54171e-06
-3.10246e-07
-1.15446e-06
-6.78337e-07
-6.31243e-07
-9.17406e-07
-4.92956e-08
-1.01546e-06
5.17188e-07
-9.80691e-07
1.00622e-06
-8.37482e-07
1.37412e-06
-6.1999e-07
1.59759e-06
-3.64977e-07
1.6721e-06
-1.05587e-07
1.31786e-07
1.60883e-06
-4.59632e-08
5.77864e-08
-6.24435e-08
-2.33858e-07
4.03594e-08
-7.93265e-07
4.29631e-07
-1.43228e-06
1.15063e-06
-1.69887e-06
1.69085e-06
-8.1674e-07
1.34397e-06
1.15376e-06
-1.98833e-08
2.96751e-06
-1.51501e-06
2.9831e-06
-1.94772e-06
9.52147e-07
-1.04966e-06
-1.45228e-06
4.72025e-07
-2.55964e-06
1.63228e-06
-1.91266e-06
1.77944e-06
-1.10992e-07
8.55968e-07
1.7664e-06
-6.85222e-07
2.74288e-06
-2.09587e-06
2.30813e-06
-2.67094e-06
6.5576e-07
-2.12353e-06
-1.3629e-06
-6.45701e-07
-2.83831e-06
1.21903e-06
-3.28244e-06
2.83598e-06
-2.63758e-06
3.6757e-06
-1.16907e-06
3.48617e-06
6.22823e-07
2.34217e-06
2.1961e-06
5.7346e-07
3.14985e-06
-1.34554e-06
3.29545e-06
-2.95604e-06
2.70579e-06
-3.95839e-06
1.65236e-06
-4.24444e-06
4.38425e-07
-3.8573e-06
-6.97371e-07
-2.92917e-06
-1.60647e-06
-1.63907e-06
-2.2075e-06
-1.87257e-07
-2.46726e-06
1.22763e-06
-2.39557e-06
2.43384e-06
-2.04368e-06
3.30895e-06
-1.4951e-06
3.79287e-06
-8.48897e-07
3.88662e-06
-1.99328e-07
3.81334e-07
3.63708e-06
-4.95302e-08
1.0732e-07
3.53515e-08
-3.18736e-07
-6.71814e-08
-6.90728e-07
1.61119e-07
-1.66057e-06
1.35362e-06
-2.89137e-06
2.76553e-06
-2.22864e-06
2.64218e-06
1.27711e-06
2.42571e-08
5.58544e-06
-3.45267e-06
6.46004e-06
-4.65379e-06
2.15327e-06
-2.62552e-06
-3.48053e-06
1.08133e-06
-6.26648e-06
4.2613e-06
-5.09261e-06
5.17003e-06
-1.01972e-06
3.15089e-06
3.78555e-06
-8.80275e-07
6.77406e-06
-4.7676e-06
6.19547e-06
-6.55441e-06
2.44258e-06
-5.65522e-06
-2.26208e-06
-2.58775e-06
-5.90577e-06
1.59675e-06
-7.46694e-06
5.5775e-06
-6.61831e-06
7.99e-06
-3.58157e-06
8.02827e-06
5.84567e-07
5.86224e-06
4.36213e-06
2.36601e-06
6.64609e-06
-1.44952e-06
7.11099e-06
-4.79237e-06
6.04864e-06
-7.18063e-06
4.04062e-06
-8.41157e-06
1.66938e-06
-8.46847e-06
-6.40472e-07
-7.43243e-06
-2.6425e-06
-5.46673e-06
-4.17319e-06
-2.82796e-06
-5.10603e-06
1.45668e-07
-5.3692e-06
3.08452e-06
-4.98253e-06
5.6518e-06
-4.06236e-06
7.59673e-06
-2.79382e-06
8.77815e-06
-1.38074e-06
-2.15801e-09
9.16165e-06
3.03165e-08
7.70063e-08
3.56595e-07
-6.45011e-07
-2.40414e-07
-9.3716e-08
-5.1289e-07
-1.3881e-06
1.46518e-06
-4.86943e-06
4.70555e-06
-5.46901e-06
5.61237e-06
3.70301e-07
9.8048e-07
1.02173e-05
-6.96916e-06
1.44097e-05
-1.06385e-05
5.82259e-06
-6.88953e-06
-7.22947e-06
1.01776e-06
-1.41738e-05
8.9253e-06
-1.30002e-05
1.35058e-05
-5.60021e-06
1.13765e-05
5.91485e-06
1.84634e-06
1.63042e-05
-9.86702e-06
1.79088e-05
-1.69584e-05
9.53397e-06
-1.67626e-05
-2.45789e-06
-1.05038e-05
-1.21645e-05
-4.57699e-07
-1.7513e-05
1.06843e-05
-1.77603e-05
1.9482e-05
-1.23792e-05
2.23519e-05
-2.28538e-06
1.75637e-05
9.15041e-06
7.1997e-06
1.70101e-05
-4.06852e-06
1.83792e-05
-1.24752e-05
1.44553e-05
-1.69182e-05
8.48367e-06
-1.80731e-05
2.82426e-06
-1.69138e-05
-1.79977e-06
-1.39635e-05
-5.59277e-06
-9.39271e-06
-8.74397e-06
-3.50908e-06
-1.09896e-05
2.90892e-06
-1.17872e-05
8.7623e-06
-1.08359e-05
1.30584e-05
-8.3585e-06
1.52917e-05
-5.02711e-06
1.54882e-05
-1.57719e-06
1.44835e-06
1.40377e-05
5.14257e-07
-4.37249e-07
8.20374e-07
-9.51125e-07
-1.02302e-06
1.74968e-06
-1.95415e-06
-4.5696e-07
2.2171e-06
-9.04068e-06
8.56277e-06
-1.18147e-05
1.02432e-05
-1.31015e-06
2.22837e-06
1.82322e-05
-1.22588e-05
2.88969e-05
-2.00198e-05
1.35835e-05
-1.39331e-05
-1.33161e-05
3.28686e-07
-2.84355e-05
1.41872e-05
-2.68587e-05
2.3186e-05
-1.4599e-05
2.50676e-05
4.03326e-06
1.44298e-05
2.6942e-05
-7.36499e-06
3.97036e-05
-2.76176e-05
2.97866e-05
-3.67016e-05
6.62609e-06
-3.29632e-05
-1.59029e-05
-1.87727e-05
-3.17035e-05
8.68025e-07
-3.7401e-05
2.12746e-05
-3.27859e-05
3.9426e-05
-2.04367e-05
4.96901e-05
-1.11368e-06
4.51864e-05
2.15137e-05
2.695e-05
3.66157e-05
3.38948e-06
3.80158e-05
-1.78461e-05
2.97193e-05
-3.33722e-05
1.83503e-05
-4.28352e-05
7.66325e-06
-4.67623e-05
-1.66559e-06
-4.5335e-05
-1.01713e-05
-3.84854e-05
-1.78392e-05
-2.66447e-05
-2.3628e-05
-1.11969e-05
-2.62837e-05
5.60656e-06
-2.51619e-05
2.13409e-05
-2.07615e-05
3.4056e-05
-1.42922e-05
-7.08222e-06
4.25866e-05
1.81359e-06
-2.25083e-06
7.41965e-07
1.20497e-07
-5.09526e-06
7.58691e-06
-6.33837e-06
7.86156e-07
6.1315e-06
-2.15105e-05
2.17467e-05
-2.74299e-05
2.00263e-05
4.10289e-07
-3.81348e-06
4.2072e-05
-3.00312e-05
5.51146e-05
-3.67821e-05
2.03344e-05
-2.0203e-05
-2.98952e-05
1.03497e-05
-5.89883e-05
4.16076e-05
-5.81166e-05
5.23082e-05
-2.52995e-05
3.01152e-05
2.62262e-05
-1.03272e-05
6.73845e-05
-4.16689e-05
7.10453e-05
-4.96954e-05
3.78131e-05
-4.00033e-05
-3.06597e-06
-2.24547e-05
-3.34515e-05
2.36299e-06
-5.65212e-05
3.32956e-05
-6.83336e-05
5.74462e-05
-5.69365e-05
5.74424e-05
-2.04329e-05
3.14552e-05
2.48735e-05
-5.03837e-06
5.80073e-05
-3.29006e-05
6.44779e-05
-4.22726e-05
4.73878e-05
-3.60027e-05
2.34494e-05
-2.25872e-05
4.93485e-06
-9.53166e-06
-5.39229e-06
3.08127e-07
-1.15054e-05
7.97049e-06
-1.78336e-05
1.50677e-05
-2.49365e-05
2.10975e-05
-2.96578e-05
2.389e-05
-2.90761e-05
2.1845e-05
-2.31169e-05
1.51077e-05
-1.40242e-05
5.31114e-06
-4.49564e-06
3.8593e-06
-5.63037e-06
5.47893e-06
-7.72976e-06
-2.39473e-07
5.8389e-06
-1.65517e-05
2.38992e-05
-1.6754e-05
9.88378e-07
6.63295e-06
-4.48974e-05
3.58346e-05
-5.66316e-05
4.29708e-05
-6.72585e-06
6.34939e-06
7.86933e-05
-4.30338e-05
0.000104498
-5.5663e-05
3.29636e-05
-3.69466e-05
-4.86115e-05
-9.28701e-06
-8.66479e-05
2.42523e-05
-9.16558e-05
6.0103e-05
-6.11502e-05
7.28535e-05
1.34757e-05
3.36277e-05
0.00010661
-2.65374e-05
0.00013121
-5.27536e-05
6.40294e-05
-4.43641e-05
-1.14555e-05
-2.78481e-05
-4.99675e-05
-1.91489e-05
-6.52204e-05
-1.28322e-05
-7.46502e-05
9.17491e-06
-7.89436e-05
4.49581e-05
-5.62161e-05
6.02149e-05
9.61672e-06
3.22406e-05
8.59816e-05
-1.22162e-05
0.000108935
-3.94254e-05
7.4597e-05
-4.31862e-05
2.72102e-05
-3.08326e-05
-7.41866e-06
-1.46681e-05
-2.15569e-05
-2.23789e-06
-2.39355e-05
6.58883e-06
-2.66604e-05
1.5759e-05
-3.41066e-05
2.7839e-05
-4.17379e-05
4.10461e-05
-4.22832e-05
5.01675e-05
-3.22383e-05
5.07331e-05
-1.45898e-05
4.16169e-05
4.62058e-06
2.08866e-05
2.45896e-05
-7.72976e-06
-1.89085e-06
2.20083e-05
2.29967e-05
-2.19007e-05
-7.85323e-05
-8.52582e-05
-6.56484e-06
9.7933e-05
0.000130897
8.22851e-05
-4.36281e-06
-9.60186e-05
-0.000157169
-0.000143693
-3.70829e-05
9.41276e-05
0.000158157
0.000146701
9.67339e-05
3.15136e-05
-4.31366e-05
-0.00012208
-0.000178296