/*--------------------------------*- C++ -*----------------------------------*\
| =========                 |                                                 |
| \\      /  F ield         | OpenFOAM: The Open Source CFD Toolbox           |
|  \\    /   O peration     | Version:  2112                                  |
|   \\  /    A nd           | Website:  www.openfoam.com                      |
|    \\/     M anipulation  |                                                 |
\*---------------------------------------------------------------------------*/
FoamFile
{
    version     2.0;
    format      ascii;
    arch        "LSB;label=32;scalar=64";
    class       surfaceScalarField;
    location    "0.2";
    object      phi_0;
}
// * * * * * * * * * * * * * * * * * * * * * * * * * * * * * * * * * * * * * //

dimensions      [0 3 -1 0 0 0 0];

oriented        oriented;

internalField   nonuniform List<scalar> 
24170
(
3.10673e-06
8.1673e-08
3.01241e-06
9.43233e-08
2.92787e-06
8.45436e-08
2.84861e-06
7.92546e-08
2.77365e-06
7.4965e-08
2.70337e-06
7.02794e-08
2.63801e-06
6.5355e-08
2.57749e-06
6.05192e-08
2.52149e-06
5.60005e-08
2.46985e-06
5.16407e-08
2.42222e-06
4.76344e-08
2.37855e-06
4.36685e-08
2.33858e-06
3.99735e-08
2.30199e-06
3.6585e-08
2.26949e-06
3.25002e-08
2.23887e-06
3.06169e-08
2.21613e-06
2.27386e-08
2.43469e-08
2.19179e-06
3.43441e-06
6.45076e-08
3.44e-06
8.87412e-08
3.43911e-06
8.54283e-08
3.4345e-06
8.38683e-08
3.42636e-06
8.31012e-08
3.41555e-06
8.10868e-08
3.40289e-06
7.80204e-08
3.38896e-06
7.44514e-08
3.37411e-06
7.08504e-08
3.3587e-06
6.70524e-08
3.34293e-06
6.33997e-08
3.32712e-06
5.94759e-08
3.31131e-06
5.57821e-08
3.29599e-06
5.19047e-08
3.28068e-06
4.78102e-08
3.26704e-06
4.42655e-08
3.25178e-06
3.79987e-08
3.66371e-08
3.23949e-06
3.67379e-06
5.32387e-08
3.68276e-06
7.97669e-08
3.68736e-06
8.08311e-08
3.69049e-06
8.07315e-08
3.69262e-06
8.09711e-08
3.69381e-06
7.98998e-08
3.69423e-06
7.75973e-08
3.69401e-06
7.46727e-08
3.69328e-06
7.15818e-08
3.69206e-06
6.82784e-08
3.6905e-06
6.49529e-08
3.68856e-06
6.14175e-08
3.68646e-06
5.7886e-08
3.68413e-06
5.42344e-08
3.68164e-06
5.02964e-08
3.67942e-06
4.64893e-08
3.67573e-06
4.16837e-08
3.76977e-08
3.67467e-06
3.934e-06
4.46266e-08
3.94228e-06
7.14865e-08
3.94736e-06
7.5748e-08
3.95107e-06
7.70254e-08
3.95426e-06
7.77818e-08
3.95703e-06
7.71324e-08
3.95941e-06
7.52185e-08
3.96145e-06
7.26293e-08
3.96325e-06
6.97756e-08
3.96484e-06
6.6698e-08
3.96628e-06
6.35106e-08
3.96755e-06
6.0147e-08
3.96874e-06
5.66895e-08
3.96985e-06
5.31314e-08
3.97085e-06
4.9291e-08
3.97187e-06
4.54731e-08
3.97252e-06
4.1028e-08
3.64921e-08
3.97373e-06
4.21429e-06
3.74631e-08
4.22185e-06
6.39297e-08
4.22698e-06
7.06154e-08
4.23087e-06
7.31329e-08
4.23434e-06
7.43131e-08
4.23752e-06
7.39549e-08
4.2404e-06
7.23343e-08
4.24303e-06
6.99978e-08
4.24549e-06
6.73189e-08
4.2478e-06
6.43874e-08
4.25002e-06
6.12956e-08
4.25213e-06
5.80314e-08
4.25418e-06
5.46381e-08
4.25619e-06
5.11289e-08
4.25809e-06
4.73908e-08
4.25999e-06
4.35738e-08
4.26167e-06
3.93485e-08
3.49966e-08
4.26316e-06
4.51534e-06
3.12091e-08
4.52226e-06
5.70134e-08
4.52735e-06
6.55222e-08
4.53142e-06
6.90641e-08
4.53509e-06
7.06374e-08
4.53851e-06
7.05416e-08
4.54166e-06
6.91828e-08
4.54459e-06
6.70704e-08
4.54735e-06
6.45518e-08
4.55e-06
6.17464e-08
4.55254e-06
5.87466e-08
4.55501e-06
5.5568e-08
4.5574e-06
5.22466e-08
4.55973e-06
4.87972e-08
4.56196e-06
4.51627e-08
4.56412e-06
4.14131e-08
4.56605e-06
3.74202e-08
3.33347e-08
4.56771e-06
4.83825e-06
2.5678e-08
4.84461e-06
5.06542e-08
4.84968e-06
6.04491e-08
4.85394e-06
6.48088e-08
4.85782e-06
6.67535e-08
4.86145e-06
6.69172e-08
4.86482e-06
6.58081e-08
4.86798e-06
6.39092e-08
4.87098e-06
6.15506e-08
4.87386e-06
5.8872e-08
4.87663e-06
5.59729e-08
4.87931e-06
5.2887e-08
4.88191e-06
4.96528e-08
4.88442e-06
4.62872e-08
4.88681e-06
4.27723e-08
4.88907e-06
3.91475e-08
4.89111e-06
3.5383e-08
3.15682e-08
4.89288e-06
5.18437e-06
2.08917e-08
5.19028e-06
4.47371e-08
5.19539e-06
5.53483e-08
5.19984e-06
6.03551e-08
5.20394e-06
6.26495e-08
5.20778e-06
6.3075e-08
5.21138e-06
6.22104e-08
5.21477e-06
6.05226e-08
5.21799e-06
5.83298e-08
5.22107e-06
5.57876e-08
5.22404e-06
5.30034e-08
5.22691e-06
5.00255e-08
5.22966e-06
4.68981e-08
5.2323e-06
4.36434e-08
5.23481e-06
4.02694e-08
5.23715e-06
3.68069e-08
5.23926e-06
3.32723e-08
2.97338e-08
5.24109e-06
5.55531e-06
1.69167e-08
5.56087e-06
3.91767e-08
5.56604e-06
5.01843e-08
5.5707e-06
5.56927e-08
5.57503e-06
5.83135e-08
5.57911e-06
5.90012e-08
5.58294e-06
5.83789e-08
5.58656e-06
5.69039e-08
5.59e-06
5.48857e-08
5.5933e-06
5.24932e-08
5.59646e-06
4.9841e-08
5.59949e-06
4.69903e-08
5.6024e-06
4.39915e-08
5.60517e-06
4.08743e-08
5.60778e-06
3.76632e-08
5.61019e-06
3.43896e-08
5.61238e-06
3.10911e-08
2.78275e-08
5.61428e-06
5.95294e-06
1.3748e-08
5.95818e-06
3.394e-08
5.9634e-06
4.49699e-08
5.96826e-06
5.08312e-08
5.97283e-06
5.37409e-08
5.97715e-06
5.46835e-08
5.98123e-06
5.43005e-08
5.98509e-06
5.30409e-08
5.98877e-06
5.12078e-08
5.99228e-06
4.89802e-08
5.99564e-06
4.64788e-08
5.99886e-06
4.37762e-08
6.00192e-06
4.09285e-08
6.00482e-06
3.79738e-08
6.00754e-06
3.49464e-08
6.01004e-06
3.18819e-08
6.01231e-06
2.88258e-08
2.58317e-08
6.01431e-06
6.37933e-06
1.12339e-08
6.38418e-06
2.90829e-08
6.38938e-06
3.97742e-08
6.39441e-06
4.58041e-08
6.39921e-06
4.89388e-08
6.40378e-06
5.01151e-08
6.40811e-06
4.99636e-08
6.41223e-06
4.8921e-08
6.41616e-06
4.72832e-08
6.4199e-06
4.52358e-08
6.42348e-06
4.29048e-08
6.42688e-06
4.03716e-08
6.43011e-06
3.76978e-08
6.43316e-06
3.49285e-08
6.436e-06
3.21045e-08
6.43862e-06
2.92648e-08
6.44099e-06
2.64559e-08
2.3726e-08
6.44309e-06
5.7426e-06
9.47219e-09
5.74635e-06
2.53241e-08
5.75067e-06
3.54574e-08
5.75501e-06
4.14674e-08
5.75923e-06
4.47211e-08
5.76328e-06
4.60637e-08
5.76715e-06
4.60948e-08
5.77083e-06
4.52334e-08
5.77435e-06
4.3767e-08
5.7777e-06
4.18832e-08
5.7809e-06
3.97107e-08
5.78393e-06
3.73368e-08
5.7868e-06
3.48268e-08
5.7895e-06
3.22306e-08
5.79201e-06
2.95919e-08
5.79433e-06
2.6952e-08
5.79643e-06
2.43548e-08
2.18466e-08
5.79831e-06
6.99984e-06
7.78659e-09
7.00377e-06
2.13933e-08
7.00857e-06
3.06618e-08
7.01358e-06
3.6452e-08
7.01857e-06
3.97363e-08
7.02341e-06
4.12178e-08
7.02807e-06
4.14335e-08
7.03254e-06
4.07717e-08
7.0368e-06
3.95053e-08
7.04086e-06
3.78195e-08
7.04473e-06
3.58442e-08
7.04839e-06
3.36702e-08
7.05186e-06
3.1366e-08
7.0551e-06
2.89849e-08
7.05812e-06
2.65727e-08
7.0609e-06
2.4171e-08
7.06344e-06
2.18206e-08
1.95633e-08
7.06572e-06
8.53244e-06
6.19598e-09
8.53645e-06
1.73811e-08
8.54166e-06
2.54566e-08
8.54734e-06
3.07638e-08
8.55315e-06
3.39267e-08
8.5589e-06
3.54753e-08
8.56448e-06
3.58519e-08
8.56985e-06
3.53956e-08
8.575e-06
3.43539e-08
8.57992e-06
3.29024e-08
8.5846e-06
3.11676e-08
8.58903e-06
2.92408e-08
8.5932e-06
2.71916e-08
8.59711e-06
2.50746e-08
8.60075e-06
2.29358e-08
8.6041e-06
2.08155e-08
8.60718e-06
1.87504e-08
1.67763e-08
8.60996e-06
1.04007e-05
4.69774e-09
1.04047e-05
1.33628e-08
1.04103e-05
1.99313e-08
1.04166e-05
2.44513e-08
1.04232e-05
2.72759e-08
1.04299e-05
2.87612e-08
1.04366e-05
2.92336e-08
1.0443e-05
2.8963e-08
1.04492e-05
2.81573e-08
1.04551e-05
2.69716e-08
1.04608e-05
2.55212e-08
1.04661e-05
2.38927e-08
1.04711e-05
2.21527e-08
1.04759e-05
2.03541e-08
1.04803e-05
1.85405e-08
1.04843e-05
1.67488e-08
1.04881e-05
1.50111e-08
1.33569e-08
1.04915e-05
1.26782e-05
3.26496e-09
1.26822e-05
9.36194e-09
1.2688e-05
1.4156e-08
1.26949e-05
1.75797e-08
1.27023e-05
1.98047e-08
1.27101e-05
2.10388e-08
1.27178e-05
2.14907e-08
1.27254e-05
2.13477e-08
1.27328e-05
2.07636e-08
1.27399e-05
1.98596e-08
1.27467e-05
1.873e-08
1.27532e-05
1.74481e-08
1.27592e-05
1.60719e-08
1.2765e-05
1.46478e-08
1.27703e-05
1.32136e-08
1.27752e-05
1.18009e-08
1.27798e-05
1.04361e-08
9.14247e-09
1.2784e-05
1.54546e-05
1.84339e-09
1.54587e-05
5.31336e-09
1.54647e-05
8.10848e-09
1.54721e-05
1.01542e-08
1.54804e-05
1.15127e-08
1.54892e-05
1.22783e-08
1.54981e-05
1.25549e-08
1.5507e-05
1.24444e-08
1.55157e-05
1.2037e-08
1.55242e-05
1.14079e-08
1.55323e-05
1.06193e-08
1.554e-05
9.72192e-09
1.55473e-05
8.75735e-09
1.55542e-05
7.7599e-09
1.55607e-05
6.75784e-09
1.55667e-05
5.77467e-09
1.55723e-05
4.82986e-09
3.94048e-09
1.55775e-05
1.88391e-05
3.39143e-10
1.88434e-05
1.00542e-09
1.885e-05
1.56262e-09
1.88582e-05
1.97657e-09
1.88675e-05
2.23468e-09
1.88774e-05
2.33643e-09
1.88877e-05
2.29193e-09
1.8898e-05
2.11834e-09
1.89082e-05
1.83577e-09
1.89181e-05
1.46524e-09
1.89277e-05
1.02757e-09
1.89369e-05
5.42654e-10
1.89456e-05
2.88002e-11
1.89539e-05
-4.96619e-10
1.89617e-05
-1.01917e-09
1.8969e-05
-1.52558e-09
1.89758e-05
-2.00448e-09
-2.44574e-09
1.89822e-05
2.29651e-05
-1.43469e-09
2.29702e-05
-4.07828e-09
2.29779e-05
-6.13524e-09
2.29875e-05
-7.60731e-09
2.29983e-05
-8.61257e-09
2.30099e-05
-9.27131e-09
2.30219e-05
-9.68446e-09
2.3034e-05
-9.93335e-09
2.30459e-05
-1.00788e-08
2.30575e-05
-1.01625e-08
2.30687e-05
-1.0211e-08
2.30795e-05
-1.02399e-08
2.30898e-05
-1.02568e-08
2.30996e-05
-1.02646e-08
2.31088e-05
-1.02629e-08
2.31175e-05
-1.02495e-08
2.31258e-05
-1.02213e-08
-1.01744e-08
2.31335e-05
1.68122e-05
-2.97197e-09
1.68165e-05
-8.3042e-09
1.68226e-05
-1.23039e-08
1.68301e-05
-1.50418e-08
1.68383e-05
-1.68056e-08
1.68468e-05
-1.78545e-08
1.68556e-05
-1.83953e-08
1.68642e-05
-1.85909e-08
1.68727e-05
-1.8562e-08
1.68809e-05
-1.83924e-08
1.68889e-05
-1.81374e-08
1.68964e-05
-1.78325e-08
1.69037e-05
-1.74996e-08
1.69106e-05
-1.71516e-08
1.69171e-05
-1.67953e-08
1.69233e-05
-1.6434e-08
1.69291e-05
-1.60684e-08
-1.56972e-08
1.69347e-05
1.46363e-05
-4.70791e-09
1.46408e-05
-1.27945e-08
1.4647e-05
-1.84739e-08
1.4654e-05
-2.21174e-08
1.46616e-05
-2.43184e-08
1.46692e-05
-2.5512e-08
1.46768e-05
-2.60106e-08
1.46843e-05
-2.60496e-08
1.46915e-05
-2.57967e-08
1.46985e-05
-2.53644e-08
1.47052e-05
-2.48251e-08
1.47116e-05
-2.42252e-08
1.47177e-05
-2.35938e-08
1.47235e-05
-2.2949e-08
1.4729e-05
-2.23014e-08
1.47342e-05
-2.16568e-08
1.47391e-05
-2.10179e-08
-2.03845e-08
1.47438e-05
1.27423e-05
-6.83617e-09
1.27472e-05
-1.77679e-08
1.27535e-05
-2.47518e-08
1.27603e-05
-2.88789e-08
1.27672e-05
-3.12036e-08
1.2774e-05
-3.23353e-08
1.27806e-05
-3.26644e-08
1.27871e-05
-3.24782e-08
1.27932e-05
-3.19754e-08
1.27992e-05
-3.12843e-08
1.28048e-05
-3.04839e-08
1.28102e-05
-2.96246e-08
1.28154e-05
-2.87375e-08
1.28203e-05
-2.7843e-08
1.28249e-05
-2.69528e-08
1.28293e-05
-2.60742e-08
1.28335e-05
-2.52105e-08
-2.43616e-08
1.28375e-05
1.10936e-05
-9.55144e-09
1.10992e-05
-2.33237e-08
1.11055e-05
-3.10975e-08
1.11119e-05
-3.52628e-08
1.11182e-05
-3.74529e-08
1.11242e-05
-3.83826e-08
1.113e-05
-3.84653e-08
1.11356e-05
-3.80181e-08
1.11409e-05
-3.72591e-08
1.11459e-05
-3.63225e-08
1.11507e-05
-3.52862e-08
1.11553e-05
-3.41991e-08
1.11596e-05
-3.30918e-08
1.11638e-05
-3.19848e-08
1.11677e-05
-3.08898e-08
1.11714e-05
-2.98151e-08
1.1175e-05
-2.87637e-08
-2.77353e-08
1.11784e-05
9.6587e-06
-1.3036e-08
9.66487e-06
-2.94897e-08
9.67118e-06
-3.74163e-08
9.67712e-06
-4.11965e-08
9.68273e-06
-4.30701e-08
9.68807e-06
-4.37199e-08
9.69312e-06
-4.35163e-08
9.6979e-06
-4.27917e-08
9.70242e-06
-4.178e-08
9.70671e-06
-4.06148e-08
9.71079e-06
-3.93662e-08
9.71467e-06
-3.80785e-08
9.71836e-06
-3.67792e-08
9.72186e-06
-3.5489e-08
9.72519e-06
-3.42185e-08
9.72835e-06
-3.29767e-08
9.73135e-06
-3.17665e-08
-3.05867e-08
9.73421e-06
8.40979e-06
-1.74731e-08
8.41659e-06
-3.62878e-08
8.42279e-06
-4.3621e-08
8.42823e-06
-4.66308e-08
8.43323e-06
-4.80771e-08
8.43793e-06
-4.84146e-08
8.44232e-06
-4.79061e-08
8.44642e-06
-4.68961e-08
8.45028e-06
-4.56386e-08
8.45393e-06
-4.42607e-08
8.45738e-06
-4.28203e-08
8.46066e-06
-4.13533e-08
8.46376e-06
-3.9884e-08
8.4667e-06
-3.84325e-08
8.46949e-06
-3.70086e-08
8.47214e-06
-3.56213e-08
8.47465e-06
-3.42734e-08
-3.29655e-08
8.47702e-06
7.32297e-06
-2.31542e-08
7.33042e-06
-4.37467e-08
7.33644e-06
-4.96384e-08
7.34135e-06
-5.15386e-08
7.34578e-06
-5.25031e-08
7.34988e-06
-5.25193e-08
7.35367e-06
-5.16931e-08
7.35716e-06
-5.03895e-08
7.36041e-06
-4.88906e-08
7.36346e-06
-4.73104e-08
7.36633e-06
-4.56917e-08
7.36904e-06
-4.40586e-08
7.37159e-06
-4.24326e-08
7.37399e-06
-4.08339e-08
7.37625e-06
-3.92698e-08
7.37838e-06
-3.77536e-08
7.38039e-06
-3.62796e-08
-3.48596e-08
7.38228e-06
6.37741e-06
-3.04986e-08
6.3857e-06
-5.20355e-08
6.39143e-06
-5.53721e-08
6.39581e-06
-5.59179e-08
6.39968e-06
-5.63755e-08
6.4032e-06
-5.60297e-08
6.40635e-06
-5.48458e-08
6.40918e-06
-5.32263e-08
6.41177e-06
-5.14737e-08
6.41414e-06
-4.96826e-08
6.41633e-06
-4.78775e-08
6.41834e-06
-4.60741e-08
6.4202e-06
-4.42864e-08
6.4219e-06
-4.25408e-08
6.42347e-06
-4.08331e-08
6.42491e-06
-3.91956e-08
6.42623e-06
-3.76027e-08
-3.60744e-08
6.42745e-06
5.55544e-06
-4.04763e-08
5.5647e-06
-6.12932e-08
5.56988e-06
-6.05477e-08
5.57367e-06
-5.97123e-08
5.5768e-06
-5.9503e-08
5.57932e-06
-5.85554e-08
5.58132e-06
-5.6846e-08
5.5829e-06
-5.48042e-08
5.58413e-06
-5.27014e-08
5.58506e-06
-5.0611e-08
5.58572e-06
-4.8536e-08
5.58614e-06
-4.64982e-08
5.58634e-06
-4.44906e-08
5.58636e-06
-4.25564e-08
5.58619e-06
-4.06629e-08
5.58587e-06
-3.88805e-08
5.5854e-06
-3.71306e-08
-3.55674e-08
5.5849e-06
4.84336e-06
-5.62274e-08
4.85122e-06
-6.91575e-08
4.85368e-06
-6.30071e-08
4.85396e-06
-5.99893e-08
4.85222e-06
-5.77666e-08
4.84882e-06
-5.51529e-08
4.84419e-06
-5.22201e-08
4.83866e-06
-4.92674e-08
4.83241e-06
-4.64492e-08
4.82559e-06
-4.37928e-08
4.81832e-06
-4.12735e-08
4.81073e-06
-3.89067e-08
4.80289e-06
-3.66515e-08
4.79489e-06
-3.4554e-08
4.78677e-06
-3.25451e-08
4.77861e-06
-3.07137e-08
4.77044e-06
-2.89589e-08
-2.74137e-08
4.76228e-06
4.14645e-06
4.07729e-06
4.01428e-06
3.95429e-06
3.89653e-06
3.84138e-06
3.78916e-06
3.73989e-06
3.69344e-06
3.64965e-06
3.60837e-06
3.56947e-06
3.53281e-06
3.49826e-06
3.46572e-06
3.435e-06
3.40604e-06
3.37863e-06
-5.3069e-08
5.3069e-08
-1.18266e-07
6.51971e-08
-1.75035e-07
5.67685e-08
-2.18263e-07
4.32281e-08
-2.45927e-07
2.76638e-08
-2.5681e-07
1.08834e-08
-2.5064e-07
-6.16984e-09
-2.28135e-07
-2.25055e-08
-1.90583e-07
-3.75519e-08
-1.41541e-07
-4.90414e-08
-8.60138e-08
-5.55275e-08
-2.94427e-08
-5.65711e-08
2.30667e-08
-5.25095e-08
6.71678e-08
-4.41011e-08
9.97062e-08
-3.25384e-08
1.18412e-07
-1.8706e-08
1.21569e-07
-3.1571e-09
1.08936e-07
1.26338e-08
8.02985e-08
2.8637e-08
3.64121e-08
4.38865e-08
-1.72245e-08
5.36366e-08
-6.57141e-08
4.84895e-08
-1.04923e-07
3.92088e-08
-1.40006e-07
3.50831e-08
-1.6587e-07
2.58636e-08
-1.71443e-07
5.57304e-09
-1.51661e-07
-1.97813e-08
-1.04643e-07
-4.70188e-08
-3.34237e-08
-7.12188e-08
4.4515e-08
-7.79387e-08
1.10182e-07
-6.56674e-08
1.49982e-07
-3.97997e-08
1.63872e-07
-1.38903e-08
1.66078e-07
-2.20506e-09
1.56262e-07
9.81531e-09
1.27258e-07
2.90045e-08
8.91481e-08
3.81096e-08
1.9565e-08
6.95831e-08
-1.1474e-07
1.34305e-07
-2.79776e-07
1.65036e-07
-4.42635e-07
1.62859e-07
-5.98019e-07
1.55384e-07
-7.4236e-07
1.4434e-07
-8.74725e-07
1.32366e-07
-9.95074e-07
1.20349e-07
-1.10409e-06
1.09018e-07
-1.20274e-06
9.86494e-08
-1.2921e-06
8.9359e-08
-1.37337e-06
8.12653e-08
-1.4477e-06
7.4329e-08
-1.51612e-06
6.84212e-08
-1.57954e-06
6.34227e-08
-1.63874e-06
5.9201e-08
-1.69438e-06
5.56366e-08
-1.747e-06
5.26231e-08
-1.79707e-06
5.00663e-08
-1.84496e-06
4.78905e-08
-1.891e-06
4.60441e-08
-1.93551e-06
4.45041e-08
-1.9787e-06
4.31936e-08
-2.02075e-06
4.20506e-08
-2.06179e-06
4.10386e-08
-2.1019e-06
4.01154e-08
-2.14116e-06
3.92595e-08
-2.17961e-06
3.8444e-08
-2.21726e-06
3.76541e-08
-2.25413e-06
3.68733e-08
-2.29023e-06
3.60914e-08
-2.32552e-06
3.52987e-08
-2.36001e-06
3.4489e-08
-2.39367e-06
3.36571e-08
-2.42647e-06
3.28e-08
-2.45839e-06
3.19157e-08
-2.48939e-06
3.10038e-08
-2.51945e-06
3.00644e-08
-2.54855e-06
2.90985e-08
-2.57666e-06
2.81076e-08
-2.60375e-06
2.70932e-08
-2.62981e-06
2.60574e-08
-2.65481e-06
2.50018e-08
-2.67874e-06
2.39283e-08
-2.70158e-06
2.28381e-08
-2.72331e-06
2.17328e-08
-2.74393e-06
2.06131e-08
-2.76341e-06
1.948e-08
-2.78174e-06
1.83339e-08
-2.79891e-06
1.71753e-08
-2.81492e-06
1.60042e-08
-2.82974e-06
1.48208e-08
-2.84336e-06
1.36249e-08
-2.85578e-06
1.24162e-08
-2.86698e-06
1.11945e-08
-2.87693e-06
9.9589e-09
-2.88564e-06
8.70859e-09
-2.89308e-06
7.44232e-09
-2.89924e-06
6.15845e-09
-2.9041e-06
4.85392e-09
-2.90762e-06
3.52614e-09
-2.9098e-06
2.17811e-09
-2.91058e-06
7.75763e-10
-2.90998e-06
-6.00632e-10
-2.90812e-06
-1.8596e-09
-2.90497e-06
-3.15084e-09
-2.90051e-06
-4.45493e-09
-2.89475e-06
-5.76105e-09
-2.88768e-06
-7.07279e-09
-2.87929e-06
-8.38745e-09
-2.86958e-06
-9.7051e-09
-2.85856e-06
-1.10241e-08
-2.84622e-06
-1.23433e-08
-2.83256e-06
-1.36615e-08
-2.81758e-06
-1.49771e-08
-2.80129e-06
-1.62889e-08
-2.78369e-06
-1.75953e-08
-2.7648e-06
-1.8895e-08
-2.74461e-06
-2.01864e-08
-2.72315e-06
-2.1468e-08
-2.70041e-06
-2.27385e-08
-2.67641e-06
-2.39961e-08
-2.65117e-06
-2.52397e-08
-2.6247e-06
-2.64675e-08
-2.59703e-06
-2.7678e-08
-2.56816e-06
-2.88694e-08
-2.53812e-06
-3.00399e-08
-2.50693e-06
-3.11872e-08
-2.47462e-06
-3.23081e-08
-2.44123e-06
-3.33943e-08
-2.40679e-06
-3.44412e-08
-2.37134e-06
-3.5441e-08
-2.33498e-06
-3.63653e-08
-2.29771e-06
-3.72648e-08
-2.25944e-06
-3.82697e-08
-2.22019e-06
-3.92548e-08
-2.18005e-06
-4.01382e-08
-2.13906e-06
-4.09948e-08
-2.09725e-06
-4.18079e-08
-2.05466e-06
-4.25865e-08
-2.01134e-06
-4.33256e-08
-1.96731e-06
-4.40262e-08
-1.92262e-06
-4.46882e-08
-1.87731e-06
-4.53122e-08
-1.83141e-06
-4.5897e-08
-1.78497e-06
-4.64438e-08
-1.73802e-06
-4.6953e-08
-1.69059e-06
-4.74256e-08
-1.64273e-06
-4.78624e-08
-1.59446e-06
-4.82642e-08
-1.54583e-06
-4.86314e-08
-1.49687e-06
-4.89637e-08
-1.44761e-06
-4.926e-08
-1.39809e-06
-4.95187e-08
-1.34835e-06
-4.97394e-08
-1.29843e-06
-4.99231e-08
-1.24836e-06
-5.00728e-08
-1.19816e-06
-5.01925e-08
-1.14788e-06
-5.02869e-08
-1.09751e-06
-5.03611e-08
-1.04709e-06
-5.04199e-08
-9.96626e-07
-5.04687e-08
-9.46114e-07
-5.05126e-08
-8.95557e-07
-5.05569e-08
-8.44951e-07
-5.06059e-08
-7.94288e-07
-5.06623e-08
-7.43561e-07
-5.07271e-08
-6.92759e-07
-5.08022e-08
-6.41869e-07
-5.08899e-08
-5.90876e-07
-5.09938e-08
-5.39758e-07
-5.11174e-08
-4.88495e-07
-5.12633e-08
-4.37064e-07
-5.14309e-08
-3.85448e-07
-5.16155e-08
-3.33646e-07
-5.18026e-08
-2.81679e-07
-5.19671e-08
-2.29618e-07
-5.20607e-08
-1.77662e-07
-5.19556e-08
-1.25932e-07
-5.17307e-08
-7.58698e-08
-5.00619e-08
-2.56479e-08
-5.02219e-08
1.54613e-08
-4.11092e-08
-2.889e-08
4.43513e-08
-5.83527e-09
5.89043e-08
-3.06352e-08
8.9997e-08
-5.35554e-08
7.96888e-08
-6.58371e-08
5.55098e-08
-6.57832e-08
2.76099e-08
-5.4769e-08
-1.30805e-10
-2.99268e-08
-3.1012e-08
8.92273e-09
-6.13551e-08
5.86753e-08
-8.73045e-08
1.14511e-07
-1.04877e-07
1.71241e-07
-1.12258e-07
2.24195e-07
-1.09525e-07
2.69775e-07
-9.80898e-08
3.05521e-07
-7.98465e-08
3.30073e-07
-5.70903e-08
3.43191e-07
-3.18246e-08
3.45697e-07
-5.66237e-09
3.37723e-07
2.0607e-08
3.20765e-07
4.55956e-08
2.96508e-07
6.81436e-08
2.63631e-07
8.65135e-08
2.15016e-07
9.7104e-08
1.55152e-07
9.90733e-08
9.93232e-08
9.09115e-08
5.60252e-08
6.91616e-08
2.83969e-08
3.32014e-08
2.07629e-08
-1.21473e-08
3.75512e-08
-6.38071e-08
7.17169e-08
-1.05384e-07
1.06088e-07
-1.12309e-07
1.28183e-07
-8.77633e-08
1.29657e-07
-4.12731e-08
9.87772e-08
1.69894e-08
3.02875e-08
6.62846e-08
-7.62495e-08
1.16352e-07
-2.30785e-07
1.8354e-07
-4.25079e-07
2.32403e-07
-6.12377e-07
2.56881e-07
-7.5291e-07
2.74838e-07
-8.67032e-07
2.79159e-07
-9.7354e-07
2.69367e-07
-1.07207e-06
2.53916e-07
-1.16237e-06
2.34636e-07
-1.24478e-06
2.14775e-07
-1.31992e-06
1.95492e-07
-1.38866e-06
1.77756e-07
-1.45188e-06
1.61872e-07
-1.51047e-06
1.47946e-07
-1.56511e-06
1.3591e-07
-1.6164e-06
1.25615e-07
-1.66484e-06
1.16865e-07
-1.71087e-06
1.09453e-07
-1.75485e-06
1.03182e-07
-1.79709e-06
9.78745e-08
-1.83784e-06
9.33783e-08
-1.87733e-06
8.95529e-08
-1.91573e-06
8.62859e-08
-1.95317e-06
8.34875e-08
-1.98974e-06
8.10779e-08
-2.02552e-06
7.89696e-08
-2.06056e-06
7.70924e-08
-2.09491e-06
7.539e-08
-2.12861e-06
7.38111e-08
-2.16167e-06
7.23168e-08
-2.19409e-06
7.0872e-08
-2.22589e-06
6.945e-08
-2.25704e-06
6.80277e-08
-2.28754e-06
6.65877e-08
-2.31736e-06
6.51157e-08
-2.34647e-06
6.36015e-08
-2.37485e-06
6.20379e-08
-2.40247e-06
6.04202e-08
-2.4293e-06
5.87463e-08
-2.45531e-06
5.70156e-08
-2.48048e-06
5.52293e-08
-2.50477e-06
5.33898e-08
-2.52816e-06
5.15001e-08
-2.55063e-06
4.95636e-08
-2.57216e-06
4.75839e-08
-2.59272e-06
4.55646e-08
-2.6123e-06
4.35089e-08
-2.63088e-06
4.14196e-08
-2.64845e-06
3.92991e-08
-2.66499e-06
3.71493e-08
-2.68048e-06
3.49719e-08
-2.69491e-06
3.2768e-08
-2.70828e-06
3.05387e-08
-2.72056e-06
2.82846e-08
-2.73174e-06
2.60063e-08
-2.74182e-06
2.37042e-08
-2.75078e-06
2.13787e-08
-2.75862e-06
1.903e-08
-2.76532e-06
1.66581e-08
-2.77087e-06
1.42629e-08
-2.77527e-06
1.18444e-08
-2.77852e-06
9.40247e-09
-2.7806e-06
6.93821e-09
-2.78153e-06
4.45341e-09
-2.78131e-06
1.95449e-09
-2.78e-06
-5.31589e-10
-2.77749e-06
-3.10615e-09
-2.77372e-06
-5.63446e-09
-2.76869e-06
-8.18456e-09
-2.76238e-06
-1.07561e-08
-2.7548e-06
-1.33425e-08
-2.74593e-06
-1.59413e-08
-2.73577e-06
-1.85486e-08
-2.72432e-06
-2.11623e-08
-2.71156e-06
-2.37795e-08
-2.69751e-06
-2.63975e-08
-2.68215e-06
-2.90137e-08
-2.66551e-06
-3.16253e-08
-2.64756e-06
-3.42294e-08
-2.62834e-06
-3.68232e-08
-2.60783e-06
-3.94036e-08
-2.58605e-06
-4.19677e-08
-2.563e-06
-4.45126e-08
-2.53871e-06
-4.70352e-08
-2.51317e-06
-4.95325e-08
-2.48641e-06
-5.20015e-08
-2.45844e-06
-5.4439e-08
-2.42927e-06
-5.68417e-08
-2.39894e-06
-5.92061e-08
-2.36745e-06
-6.15286e-08
-2.33483e-06
-6.38054e-08
-2.3011e-06
-6.6032e-08
-2.2663e-06
-6.8203e-08
-2.23042e-06
-7.03155e-08
-2.1935e-06
-7.23659e-08
-2.15551e-06
-7.43483e-08
-2.11649e-06
-7.62876e-08
-2.07654e-06
-7.82188e-08
-2.03571e-06
-8.00882e-08
-1.99398e-06
-8.18629e-08
-1.95141e-06
-8.35645e-08
-1.90803e-06
-8.51929e-08
-1.86387e-06
-8.67499e-08
-1.81896e-06
-8.82296e-08
-1.77336e-06
-8.9632e-08
-1.72709e-06
-9.09577e-08
-1.68019e-06
-9.22066e-08
-1.63271e-06
-9.33781e-08
-1.58468e-06
-9.44733e-08
-1.53614e-06
-9.54933e-08
-1.48713e-06
-9.64397e-08
-1.43768e-06
-9.73142e-08
-1.38782e-06
-9.81187e-08
-1.3376e-06
-9.88543e-08
-1.28704e-06
-9.95211e-08
-1.23618e-06
-1.00117e-07
-1.18506e-06
-1.0064e-07
-1.13371e-06
-1.01087e-07
-1.08218e-06
-1.01461e-07
-1.03048e-06
-1.01767e-07
-9.78662e-07
-1.02013e-07
-9.2674e-07
-1.02209e-07
-8.74738e-07
-1.02363e-07
-8.22673e-07
-1.02485e-07
-7.70556e-07
-1.02586e-07
-7.18392e-07
-1.02676e-07
-6.66184e-07
-1.02765e-07
-6.13927e-07
-1.02862e-07
-5.61617e-07
-1.02972e-07
-5.09246e-07
-1.03098e-07
-4.56806e-07
-1.03243e-07
-4.04284e-07
-1.03412e-07
-3.51664e-07
-1.03613e-07
-2.98929e-07
-1.03853e-07
-2.46055e-07
-1.04137e-07
-1.93021e-07
-1.04465e-07
-1.39809e-07
-1.04828e-07
-8.64098e-08
-1.05202e-07
-3.28396e-08
-1.05537e-07
2.08569e-08
-1.05757e-07
7.45437e-08
-1.05642e-07
1.28019e-07
-1.05206e-07
1.80916e-07
-1.02959e-07
2.32024e-07
-1.0133e-07
2.81653e-07
-9.07374e-08
-7.11171e-08
3.2388e-07
3.08993e-08
2.80051e-08
5.4828e-08
6.60683e-08
6.97717e-08
6.47451e-08
8.45187e-08
4.07628e-08
1.07446e-07
4.68299e-09
1.4641e-07
-3.9095e-08
1.9906e-07
-8.36617e-08
2.60071e-07
-1.22367e-07
3.22054e-07
-1.49287e-07
3.7878e-07
-1.61603e-07
4.26162e-07
-1.59639e-07
4.62409e-07
-1.45773e-07
4.87399e-07
-1.2308e-07
5.01967e-07
-9.44142e-08
5.07264e-07
-6.23874e-08
5.04463e-07
-2.90244e-08
4.94625e-07
4.17578e-09
4.78506e-07
3.67263e-08
4.57253e-07
6.68483e-08
4.31889e-07
9.35077e-08
4.03126e-07
1.15277e-07
3.7019e-07
1.3004e-07
3.33495e-07
1.35768e-07
2.94521e-07
1.29886e-07
2.54996e-07
1.08687e-07
2.17961e-07
7.02362e-08
1.88225e-07
1.75894e-08
1.69014e-07
-4.45963e-08
1.46419e-07
-8.279e-08
1.04203e-07
-7.00934e-08
2.74771e-08
-1.1037e-08
-8.48046e-08
7.10085e-08
-2.29349e-07
1.61534e-07
-4.00229e-07
2.37164e-07
-5.73259e-07
2.89383e-07
-7.15737e-07
3.26018e-07
-8.29468e-07
3.46134e-07
-9.25317e-07
3.5273e-07
-1.00198e-06
3.515e-07
-1.06386e-06
3.41038e-07
-1.11868e-06
3.24187e-07
-1.169e-06
3.04234e-07
-1.21703e-06
2.8267e-07
-1.26355e-06
2.61298e-07
-1.309e-06
2.40933e-07
-1.35345e-06
2.22209e-07
-1.39693e-06
2.0535e-07
-1.43941e-06
1.9043e-07
-1.48088e-06
1.77377e-07
-1.52132e-06
1.66055e-07
-1.56075e-06
1.56294e-07
-1.5992e-06
1.47908e-07
-1.63674e-06
1.40722e-07
-1.67343e-06
1.34569e-07
-1.70935e-06
1.29294e-07
-1.74456e-06
1.24758e-07
-1.77911e-06
1.2084e-07
-1.81306e-06
1.17434e-07
-1.84643e-06
1.14448e-07
-1.87925e-06
1.11793e-07
-1.91155e-06
1.09392e-07
-1.94334e-06
1.0718e-07
-1.97463e-06
1.051e-07
-2.00541e-06
1.03102e-07
-2.03569e-06
1.01147e-07
-2.06544e-06
9.91991e-08
-2.09464e-06
9.72308e-08
-2.12327e-06
9.52195e-08
-2.15131e-06
9.31476e-08
-2.17871e-06
9.10024e-08
-2.20544e-06
8.8775e-08
-2.23148e-06
8.64603e-08
-2.25679e-06
8.4056e-08
-2.28134e-06
8.15627e-08
-2.30509e-06
7.89829e-08
-2.32802e-06
7.63207e-08
-2.35011e-06
7.35812e-08
-2.37131e-06
7.07699e-08
-2.39162e-06
6.78927e-08
-2.41101e-06
6.49549e-08
-2.42946e-06
6.19615e-08
-2.44696e-06
5.89166e-08
-2.46349e-06
5.5824e-08
-2.47902e-06
5.26865e-08
-2.49356e-06
4.95066e-08
-2.50708e-06
4.62859e-08
-2.51956e-06
4.30261e-08
-2.53101e-06
3.97283e-08
-2.54139e-06
3.63935e-08
-2.55071e-06
3.30228e-08
-2.55895e-06
2.9617e-08
-2.5661e-06
2.61769e-08
-2.57214e-06
2.27028e-08
-2.57707e-06
1.9195e-08
-2.58088e-06
1.56538e-08
-2.58356e-06
1.20795e-08
-2.5851e-06
8.47287e-09
-2.58548e-06
4.83556e-09
-2.58469e-06
1.16837e-09
-2.5827e-06
-2.51904e-09
-2.57956e-06
-6.25017e-09
-2.57519e-06
-1.00049e-08
-2.56959e-06
-1.37871e-08
-2.56275e-06
-1.75945e-08
-2.55467e-06
-2.14239e-08
-2.54534e-06
-2.52715e-08
-2.53475e-06
-2.91329e-08
-2.52291e-06
-3.30044e-08
-2.50981e-06
-3.68819e-08
-2.49544e-06
-4.07615e-08
-2.47982e-06
-4.46392e-08
-2.46293e-06
-4.85107e-08
-2.44479e-06
-5.2372e-08
-2.4254e-06
-5.62186e-08
-2.40475e-06
-6.00461e-08
-2.38287e-06
-6.38502e-08
-2.35976e-06
-6.76262e-08
-2.33542e-06
-7.13698e-08
-2.30988e-06
-7.50766e-08
-2.28314e-06
-7.87419e-08
-2.25522e-06
-8.23611e-08
-2.22613e-06
-8.59293e-08
-2.19589e-06
-8.94415e-08
-2.16453e-06
-9.28926e-08
-2.13206e-06
-9.62772e-08
-2.0985e-06
-9.95901e-08
-2.06388e-06
-1.02826e-07
-2.02821e-06
-1.05982e-07
-1.99152e-06
-1.09056e-07
-1.95382e-06
-1.12045e-07
-1.91515e-06
-1.14959e-07
-1.87556e-06
-1.17806e-07
-1.83509e-06
-1.2056e-07
-1.79375e-06
-1.23201e-07
-1.75158e-06
-1.25735e-07
-1.70861e-06
-1.28164e-07
-1.66487e-06
-1.30488e-07
-1.62041e-06
-1.32698e-07
-1.57525e-06
-1.34793e-07
-1.52943e-06
-1.36775e-07
-1.48299e-06
-1.38642e-07
-1.43598e-06
-1.40395e-07
-1.38842e-06
-1.42034e-07
-1.34035e-06
-1.4356e-07
-1.29181e-06
-1.44977e-07
-1.24284e-06
-1.46286e-07
-1.19347e-06
-1.4749e-07
-1.14373e-06
-1.48592e-07
-1.09366e-06
-1.49593e-07
-1.04329e-06
-1.5049e-07
-9.92648e-07
-1.51279e-07
-9.41777e-07
-1.51957e-07
-8.90711e-07
-1.52527e-07
-8.39482e-07
-1.52996e-07
-7.88119e-07
-1.53376e-07
-7.36648e-07
-1.5368e-07
-6.85089e-07
-1.53921e-07
-6.33459e-07
-1.54114e-07
-5.81771e-07
-1.54274e-07
-5.30032e-07
-1.54416e-07
-4.78243e-07
-1.54554e-07
-4.26403e-07
-1.54702e-07
-3.74508e-07
-1.54867e-07
-3.22552e-07
-1.55054e-07
-2.70528e-07
-1.55267e-07
-2.18423e-07
-1.55517e-07
-1.66224e-07
-1.55812e-07
-1.13912e-07
-1.56165e-07
-6.1465e-08
-1.56584e-07
-8.86081e-09
-1.57069e-07
4.39205e-08
-1.57609e-07
9.68918e-08
-1.58173e-07
1.50049e-07
-1.58694e-07
2.03361e-07
-1.5907e-07
2.56758e-07
-1.59039e-07
3.10052e-07
-1.585e-07
3.63207e-07
-1.56115e-07
4.15132e-07
-1.53255e-07
4.67037e-07
-1.42642e-07
-1.21614e-07
5.17534e-07
1.4429e-08
1.3576e-08
3.9241e-08
4.12564e-08
6.8908e-08
3.5078e-08
1.16662e-07
-6.99106e-09
1.86723e-07
-6.53785e-08
2.71306e-07
-1.23678e-07
3.57495e-07
-1.69851e-07
4.33179e-07
-1.9805e-07
4.913e-07
-2.07408e-07
5.30057e-07
-2.00361e-07
5.51368e-07
-1.8095e-07
5.58909e-07
-1.53314e-07
5.56582e-07
-1.20753e-07
5.47686e-07
-8.55175e-08
5.34391e-07
-4.90926e-08
5.17875e-07
-1.25087e-08
4.98462e-07
2.35893e-08
4.76844e-07
5.8344e-08
4.52878e-07
9.08144e-08
4.26502e-07
1.19883e-07
3.97603e-07
1.44176e-07
3.65796e-07
1.61848e-07
3.309e-07
1.70664e-07
2.93022e-07
1.67764e-07
2.52349e-07
1.4936e-07
2.10459e-07
1.12126e-07
1.70038e-07
5.80105e-08
1.14068e-07
1.13734e-08
2.07461e-08
1.05317e-08
-1.14729e-07
6.53812e-08
-2.8111e-07
1.55345e-07
-4.54994e-07
2.44892e-07
-6.07337e-07
3.13877e-07
-7.31163e-07
3.6099e-07
-8.30679e-07
3.88899e-07
-9.07464e-07
4.02803e-07
-9.66331e-07
4.05001e-07
-1.01285e-06
3.9925e-07
-1.04989e-06
3.88543e-07
-1.08174e-06
3.72887e-07
-1.11167e-06
3.54118e-07
-1.14123e-06
3.33793e-07
-1.17155e-06
3.12987e-07
-1.20291e-06
2.92654e-07
-1.23532e-06
2.73348e-07
-1.26858e-06
2.55464e-07
-1.30241e-06
2.39184e-07
-1.33656e-06
2.24575e-07
-1.37078e-06
2.11602e-07
-1.4049e-06
2.00179e-07
-1.4388e-06
1.90186e-07
-1.47238e-06
1.81487e-07
-1.50559e-06
1.73939e-07
-1.53842e-06
1.67398e-07
-1.57086e-06
1.61727e-07
-1.60289e-06
1.56797e-07
-1.63455e-06
1.52491e-07
-1.66582e-06
1.48705e-07
-1.69671e-06
1.45341e-07
-1.72723e-06
1.4231e-07
-1.75737e-06
1.39534e-07
-1.78713e-06
1.36942e-07
-1.8165e-06
1.34471e-07
-1.84547e-06
1.32068e-07
-1.87401e-06
1.29688e-07
-1.9021e-06
1.2729e-07
-1.92971e-06
1.24842e-07
-1.95681e-06
1.2232e-07
-1.98336e-06
1.19702e-07
-2.00934e-06
1.16974e-07
-2.03469e-06
1.14127e-07
-2.05938e-06
1.11156e-07
-2.08339e-06
1.08059e-07
-2.10666e-06
1.04839e-07
-2.12918e-06
1.01499e-07
-2.1509e-06
9.80474e-08
-2.17181e-06
9.44906e-08
-2.19188e-06
9.08371e-08
-2.21108e-06
8.70949e-08
-2.2294e-06
8.32717e-08
-2.24681e-06
7.93742e-08
-2.2633e-06
7.54079e-08
-2.27886e-06
7.13778e-08
-2.29346e-06
6.72875e-08
-2.30709e-06
6.314e-08
-2.31974e-06
5.89377e-08
-2.3314e-06
5.46823e-08
-2.34205e-06
5.03754e-08
-2.35167e-06
4.60183e-08
-2.36026e-06
4.16126e-08
-2.3678e-06
3.71595e-08
-2.37429e-06
3.26604e-08
-2.3797e-06
2.81158e-08
-2.38403e-06
2.35263e-08
-2.38727e-06
1.88918e-08
-2.3894e-06
1.42127e-08
-2.39042e-06
9.48923e-09
-2.39031e-06
4.72271e-09
-2.38905e-06
-8.63555e-11
-2.38664e-06
-4.9342e-09
-2.38306e-06
-9.8261e-09
-2.37831e-06
-1.47573e-08
-2.37237e-06
-1.97266e-08
-2.36523e-06
-2.47291e-08
-2.3569e-06
-2.97608e-08
-2.34735e-06
-3.48168e-08
-2.33659e-06
-3.9892e-08
-2.32462e-06
-4.49813e-08
-2.31142e-06