/*--------------------------------*- C++ -*----------------------------------*\
| =========                 |                                                 |
| \\      /  F ield         | OpenFOAM: The Open Source CFD Toolbox           |
|  \\    /   O peration     | Version:  2112                                  |
|   \\  /    A nd           | Website:  www.openfoam.com                      |
|    \\/     M anipulation  |                                                 |
\*---------------------------------------------------------------------------*/
FoamFile
{
    version     2.0;
    format      ascii;
    arch        "LSB;label=32;scalar=64";
    class       volScalarField;
    location    "0.04";
    object      s;
}
// * * * * * * * * * * * * * * * * * * * * * * * * * * * * * * * * * * * * * //

dimensions      [0 0 0 0 0 0 0];

internalField   nonuniform List<scalar> 
12225
(
1
1
1
1
1
1
1
1
1
1
1
1
1
1
1
1
1
1
1
1
1
1
1
1
1
1
1
1
1
1
1
1
1
1
1
1
1
1
1
1
1
1
1
1
1
1
1
1
1
1
1
1
1
1
1
1
1
1
1
1
1
1
1
1
1
1
1
1
1
1
1
1
1
1
1
1
1
1
1
1
1
1
1
1
1
1
1
1
1
1
1
1
1
1
1
1
1
1
1
1
1
1
1
1
1
1
1
1
1
1
1
1
1
1
1
1
1
1
1
1
1
1
1
1
1
1
1
1
1
1
1
1
1
1
1
1
1
1
1
1
1
1
1
1
1
1
1
1
1
1
1
1
1
1
1
1
1
1
1
1
1
1
1
1
1
1
1
1
1
1
1
1
1
1
1
1
1
1
1
1
1
1
1
1
1
1
1
1
1
1
1
1
1
1
1
1
1
1
1
1
1
1
1
1
1
1
1
1
1
1
1
1
1
1
1
1
1
1
1
1
1
1
1
1
1
1
1
1
1
1
1
1
1
1
1
1
1
1
1
1
1
1
1
1
1
1
1
1
1
1
1
1
1
1
1
1
1
1
1
1
1
1
1
1
1
1
1
1
1
1
1
1
1
1
1
1
1
1
1
1
1
1
1
1
1
1
1
1
1
1
1
1
1
1
1
1
1
1
1
1
1
1
1
1
1
1
1
1
1
1
1
1
1
1
1
1
1
1
1
1
1
1
1
1
1
1
1
1
1
1
1
1
1
1
1
1
1
1
1
1
1
1
1
1
1
1
1
1
1
1
1
1
1
1
1
1
1
1
1
1
1
1
1
1
1
1
1
1
1
1
1
1
1
1
1
1
1
1
1
1
1
1
1
1
1
1
1
1
1
1
1
1
1
1
1
1
1
1
1
1
1
1
1
1
1
1
1
1
1
1
1
1
1
1
1
1
1
1
1
1
1
1
1
1
1
1
1
1
1
1
1
1
1
1
1
1
1
1
1
1
1
1
1
1
1
1
1
1
1
1
1
1
1
1
1
1
1
1
1
1
1
1
1
1
1
1
1
1
1
1
1
1
1
1
1
1
1
1
1
1
1
1
1
1
1
1
1
1
1
1
1
1
1
1
1
1
1
1
1
1
1
1
1
1
1
1
1
1
1
1
1
1
1
1
1
1
1
1
1
1
1
1
1
1
1
1
1
1
1
1
1
1
1
1
1
1
1
1
1
1
0.411488
0.440701
0.423577
0.411583
0.412706
0.425524
0.45168
0.466558
0.479677
0.491243
0.50024
0.50719
0.51282
0.517757
0.522397
0.526956
0.531747
0.536702
0.541461
0.546695
0.553164
0.559937
0.565329
0.570579
0.578964
0.590476
0.602319
0.614903
0.634015
0.650255
0.601178
0.334913
0.352605
0.407688
0.440816
0.459242
0.468297
0.479908
0.494887
0.507994
0.523305
0.536461
0.541001
0.521935
0.50235
0.457778
0.419715
0.416645
0.423082
0.424513
0.432542
0.595894
0.855551
0.864226
0.860624
0.859451
0.85887
0.858103
0.857636
0.857591
0.857635
0.857859
0.858199
0.858269
0.858236
0.857963
0.857254
0.856091
0.854702
0.853344
0.852254
0.851259
0.850321
0.849717
0.849086
0.848766
0.848698
0.848693
0.848856
0.849342
0.850064
0.850797
0.851619
0.852811
0.854217
0.855267
0.856025
0.856928
0.858037
0.859465
0.861187
0.863078
0.8649
0.866794
0.868983
0.871241
0.873573
0.875968
0.878148
0.88048
0.88275
0.885044
0.887132
0.88923
0.891206
0.893098
0.894865
0.896482
0.897942
0.899191
0.899954
0.900148
0.899806
0.898668
0.896899
0.894523
0.89164
0.888738
0.886061
0.883827
0.882054
0.880548
0.879371
0.878575
0.878064
0.877548
0.876556
0.873946
0.870019
0.866534
0.863674
0.861507
0.860068
0.859264
0.858813
0.858326
0.857404
0.855348
0.850267
0.838721
0.821522
0.800621
0.778278
0.753917
0.722436
0.676149
0.608953
0.52011
0.4156
0.306519
0.205579
0.123306
0.0650485
0.0298069
0.0118226
0.00409296
0.00125744
0.000345201
8.43243e-05
3.24211e-05
1.52303e-05
6.96123e-06
3.14366e-06
1.39889e-06
6.13323e-07
2.65273e-07
1.13367e-07
4.79479e-08
2.0098e-08
8.35646e-09
3.44737e-09
1.41015e-09
5.71139e-10
2.28461e-10
8.99593e-11
3.46993e-11
1.30395e-11
4.72182e-12
1.65739e-12
-2.22582e-09
0.37816
0.414263
0.398457
0.405551
0.428777
0.470603
0.497161
0.513574
0.522236
0.524288
0.526762
0.529946
0.531541
0.532409
0.53413
0.537335
0.540179
0.542044
0.544571
0.547768
0.550942
0.553146
0.555289
0.559739
0.565505
0.572421
0.579982
0.591043
0.600841
0.627617
0.631375
0.603792
0.480032
0.390037
0.370906
0.389676
0.393365
0.391167
0.398033
0.435581
0.500493
0.554618
0.57417
0.574022
0.533382
0.521682
0.491031
0.496797
0.642592
0.748677
0.788692
0.833775
0.857582
0.852033
0.84373
0.840049
0.836164
0.832816
0.829812
0.826209
0.823731
0.82024
0.816342
0.81092
0.804224
0.797382
0.790612
0.78385
0.776632
0.769791
0.763056
0.756929
0.752022
0.747583
0.743618
0.740032
0.738573
0.738169
0.738128
0.738082
0.738232
0.738602
0.740139
0.743033
0.747209
0.750753
0.753142
0.755003
0.757287
0.761154
0.767095
0.773885
0.78048
0.787126
0.794205
0.801427
0.80893
0.816237
0.822787
0.829249
0.836528
0.8429
0.84967
0.856401
0.863322
0.87032
0.877466
0.885202
0.893356
0.901495
0.909461
0.916863
0.92304
0.927887
0.931899
0.935026
0.937086
0.937596
0.936646
0.932395
0.925695
0.91817
0.910152
0.903024
0.898132
0.895567
0.894943
0.895456
0.899265
0.905593
0.909081
0.910316
0.910429
0.909974
0.90728
0.898693
0.890129
0.884558
0.881879
0.881207
0.881404
0.883444
0.892827
0.908114
0.917048
0.919269
0.918756
0.915564
0.907281
0.889795
0.847848
0.779023
0.71905
0.6839
0.648218
0.568115
0.450956
0.343745
0.260435
0.19518
0.142628
0.100636
0.0682359
0.0444094
0.0277557
0.0166803
0.00965106
0.00538442
0.00289933
0.00150922
0.000759509
0.000370263
0.000174525
7.97985e-05
3.51676e-05
1.5043e-05
6.14991e-06
2.41761e-06
9.59474e-07
1.51852e-07
0.259404
0.311099
0.420877
0.496031
0.53073
0.535046
0.533601
0.529788
0.524167
0.514375
0.504684
0.498211
0.491778
0.484982
0.484953
0.486095
0.489021
0.495262
0.50197
0.509004
0.517783
0.52513
0.531836
0.540551
0.547033
0.55559
0.562386
0.573907
0.581624
0.595346
0.620892
0.624885
0.613195
0.560282
0.431758
0.390382
0.362106
0.326142
0.297136
0.332111
0.40469
0.519173
0.577243
0.608054
0.643582
0.745936
0.792946
0.78557
0.814718
0.82793
0.834492
0.83725
0.836302
0.827558
0.825644
0.824723
0.823684
0.82244
0.821025
0.818069
0.812615
0.804503
0.795593
0.784562
0.770459
0.75305
0.733083
0.71303
0.69449
0.680399
0.671396
0.666516
0.664014
0.661784
0.6591
0.656743
0.655139
0.654634
0.654527
0.654511
0.654522
0.654671
0.655152
0.656425
0.658845
0.662121
0.665374
0.668137
0.671197
0.675391
0.680742
0.687007
0.694103
0.702178
0.710944
0.720507
0.731172
0.74313
0.75566
0.767869
0.78049
0.791289
0.800967
0.809992
0.818747
0.827285
0.835718
0.843739
0.851896
0.860389
0.869313
0.87902
0.890492
0.903332
0.916374
0.928894
0.93945
0.946929
0.952078
0.95555
0.957451
0.957689
0.955976
0.947972
0.932743
0.916845
0.903984
0.897027
0.894962
0.895248
0.899128
0.913464
0.928834
0.939278
0.944996
0.946922
0.946948
0.945139
0.934952
0.908661
0.889808
0.881006
0.878947
0.879465
0.884461
0.902218
0.918643
0.931191
0.944214
0.955306
0.959456
0.959296
0.957178
0.953151
0.946819
0.929426
0.902643
0.8871
0.876062
0.856119
0.806625
0.680879
0.529929
0.391792
0.278151
0.190567
0.126102
0.0806763
0.0498935
0.0298571
0.0172691
0.00967392
0.00523311
0.00274584
0.00138697
0.000680922
0.000319284
0.000145562
6.32504e-05
2.42214e-05
0.356405
0.533822
0.56476
0.560231
0.547131
0.525378
0.490797
0.451526
0.418503
0.387146
0.365586
0.345884
0.334299
0.325102
0.323471
0.324858
0.329228
0.336424
0.349919
0.36734
0.386817
0.403061
0.423582
0.447202
0.462433
0.488679
0.504303
0.526239
0.548927
0.561514
0.5876
0.612124
0.619118
0.614936
0.588458
0.518544
0.43768
0.379768
0.344442
0.351055
0.387617
0.509286
0.583747
0.717157
0.823359
0.82793
0.82711
0.827467
0.830671
0.831304
0.830843
0.825489
0.82341
0.824677
0.82525
0.825147
0.824377
0.821375
0.815992
0.808087
0.79676
0.779665
0.756505
0.729757
0.70347
0.681291
0.660971
0.651407
0.647802
0.645946
0.644432
0.643789
0.643575
0.643491
0.643452
0.643327
0.642823
0.642386
0.642315
0.642316
0.642415
0.64277
0.6434
0.64466
0.646604
0.649298
0.652839
0.656695
0.660792
0.66498
0.66921
0.673495
0.67763
0.681914
0.686582
0.691663
0.696931
0.702542
0.708785
0.716478
0.726004
0.738006
0.752557
0.768494
0.785082
0.801446
0.816808
0.829331
0.840272
0.850275
0.85931
0.867653
0.875249
0.882694
0.890705
0.899526
0.910207
0.923703
0.938136
0.950858
0.95918
0.964268
0.96727
0.968526
0.9683
0.965207
0.952542
0.928754
0.908945
0.897352
0.893217
0.892957
0.894889
0.905558
0.929012
0.947807
0.960262
0.966264
0.967596
0.966857
0.961034
0.936239
0.904339
0.886839
0.880639
0.880312
0.883682
0.900047
0.92482
0.941806
0.951942
0.959625
0.967993
0.975684
0.980047
0.981026
0.980965
0.980799
0.980382
0.979236
0.976482
0.97041
0.957018
0.922899
0.814707
0.613181
0.434541
0.294728
0.192322
0.121222
0.0738199
0.0435136
0.0247903
0.0136934
0.00730036
0.00377734
0.00187781
0.000903771
0.000418763
0.000174763
0.603248
0.592606
0.568955
0.519734
0.456041
0.395652
0.355845
0.327663
0.307438
0.291743
0.280569
0.271076
0.265361
0.259656
0.257073
0.257142
0.258263
0.261259
0.266932
0.279393
0.297274
0.316514
0.339943
0.36071
0.379886
0.404018
0.425408
0.443315
0.469599
0.498525
0.51758
0.559756
0.598606
0.613017
0.612379
0.60306
0.580922
0.537246
0.478253
0.480244
0.504848
0.570326
0.654146
0.812979
0.835621
0.835413
0.830829
0.828085
0.826845
0.821463
0.819331
0.819177
0.824803
0.82639
0.826592
0.824973
0.820583
0.811597
0.793609
0.765917
0.728762
0.688223
0.664186
0.653283
0.648646
0.646975
0.646645
0.647282
0.649148
0.651143
0.653874
0.656787
0.659059
0.661291
0.66393
0.665784
0.666855
0.667762
0.66837
0.668739
0.669703
0.671633
0.673538
0.67796
0.683924
0.691338
0.701413
0.711822
0.723483
0.734099
0.740992
0.743967
0.742858
0.736128
0.728233
0.721633
0.715756
0.71168
0.709722
0.710606
0.71334
0.717834
0.723803
0.731111
0.739768
0.75111
0.766129
0.785517
0.807123
0.828699
0.848273
0.863784
0.875405
0.88472
0.892494
0.898833
0.904099
0.909424
0.916907
0.926863
0.940626
0.954651
0.96502
0.970956
0.974114
0.975166
0.97471
0.97099
0.955671
0.929462
0.909814
0.898578
0.894051
0.893364
0.894403
0.901079
0.924542
0.949697
0.965715
0.973154
0.974663
0.973527
0.964746
0.931638
0.900346
0.885268
0.880874
0.881203
0.88708
0.910061
0.934197
0.950469
0.961892
0.970245
0.976521
0.981741
0.986313
0.989864
0.992109
0.993147
0.993398
0.993337
0.992758
0.9904
0.982498
0.957656
0.874645
0.665606
0.465577
0.310303
0.198061
0.121763
0.0723089
0.0416224
0.0231735
0.0125078
0.00651401
0.00327423
0.0015962
0.000705552
0.586102
0.5482
0.487555
0.413738
0.369434
0.33983
0.317483
0.299921
0.28667
0.275964
0.26714
0.259423
0.253972
0.248857
0.245693
0.244587
0.244467
0.245082
0.247715
0.252039
0.261671
0.282434
0.306613
0.330804
0.35363
0.377546
0.398511
0.410879
0.426786
0.446752
0.465408
0.484622
0.525428
0.579934
0.603526
0.608361
0.606717
0.59877
0.575913
0.558282
0.562199
0.589359
0.692472
0.826886
0.838247
0.834806
0.827831
0.820031
0.813417
0.81143
0.813198
0.82241
0.8263
0.826571
0.824606
0.816691
0.797284
0.760304
0.698114
0.656467
0.638607
0.632062
0.631009
0.634319
0.642504
0.649219
0.663171
0.67886
0.688152
0.699057
0.708643
0.719388
0.726175
0.732048
0.739201
0.743587
0.746229
0.747863
0.7487
0.750544
0.753802
0.760686
0.76741
0.781125
0.799478
0.820382
0.845479
0.867397
0.884769
0.895303
0.901301
0.904066
0.904452
0.899465
0.888678
0.869523
0.84449
0.816397
0.788041
0.764254
0.749309
0.739358
0.734167
0.733583
0.736524
0.742063
0.749656
0.758987
0.770278
0.784541
0.802393
0.824208
0.848041
0.870743
0.890211
0.904334
0.914212
0.920346
0.922288
0.923201
0.926688
0.936276
0.948469
0.961966
0.972179
0.97751
0.979589
0.979665
0.977589
0.967378
0.942839
0.921505
0.907122
0.89979
0.897559
0.897536
0.899167
0.908171
0.935634
0.959837
0.973251
0.977847
0.977877
0.973714
0.951116
0.912557
0.891088
0.882961
0.881929
0.884332
0.898971
0.929009
0.950324
0.964131
0.973135
0.979444
0.984255
0.988196
0.991466
0.994002
0.995656
0.996442
0.996624
0.996554
0.995944
0.993226
0.983063
0.947516
0.821418
0.596746
0.408936
0.2674
0.167449
0.10084
0.0585199
0.0328279
0.0178083
0.00931539
0.00474341
0.00220274
0.581722
0.519933
0.44435
0.383352
0.35258
0.329951
0.310945
0.296684
0.287093
0.280381
0.274921
0.270651
0.267647
0.265737
0.265538
0.265259
0.265794
0.267895
0.271767
0.281712
0.305626
0.329808
0.345758
0.36003
0.375152
0.391068
0.403858
0.412308
0.423763
0.435151
0.445107
0.453954
0.47091
0.505697
0.553521
0.588791
0.605188
0.607016
0.602072
0.587667
0.59314
0.611523
0.709196
0.832734
0.838535
0.831265
0.81539
0.806112
0.804394
0.805855
0.816302
0.824474
0.825741
0.823986
0.81329
0.7833
0.716257
0.647792
0.624178
0.61787
0.620054
0.638635
0.648914
0.666991
0.702186
0.72735
0.746164
0.775193
0.804014
0.819743
0.835127
0.845956
0.850966
0.85566
0.860979
0.864368
0.868776
0.871409
0.873184
0.876309
0.880415
0.88965
0.898166
0.909915
0.921393
0.930306
0.936886
0.939048
0.939531
0.939645
0.940309
0.941932
0.945391
0.949169
0.953362
0.95669
0.957748
0.953359
0.941824
0.919878
0.887467
0.852236
0.81856
0.791444
0.77471
0.764874
0.760994
0.762151
0.768494
0.778202
0.790464
0.804787
0.82043
0.837519
0.856753
0.879258
0.902461
0.921537
0.933361
0.939561
0.940411
0.939001
0.939817
0.946798
0.959604
0.971755
0.979493
0.982454
0.982739
0.98079
0.970014
0.945988
0.926424
0.91291
0.90526
0.902404
0.902157
0.903253
0.909793
0.933723
0.959818
0.97499
0.980838
0.981337
0.978525
0.961783
0.921968
0.897239
0.887157
0.885328
0.886482
0.894967
0.923196
0.949303
0.966051
0.976579
0.983241
0.987694
0.990964
0.993532
0.995521
0.996902
0.997656
0.997903
0.997898
0.997621
0.99614
0.990053
0.967245
0.884719
0.671641
0.469027
0.312557
0.199526
0.122333
0.0721537
0.0409646
0.0223089
0.011808
0.00573057
0.578738
0.499319
0.416358
0.376138
0.35178
0.334022
0.325758
0.328948
0.341282
0.351125
0.357103
0.362864
0.369016
0.376387
0.383596
0.389928
0.398301
0.411567
0.416652
0.416758
0.416677
0.420562
0.422257
0.429711
0.433157
0.433916
0.435221
0.438114
0.441578
0.445682
0.450154
0.456145
0.469094
0.498739
0.541474
0.582338
0.605631
0.612247
0.610587
0.610337
0.62206
0.619252
0.741736
0.83573
0.837279
0.821391
0.80225
0.798044
0.798368
0.806721
0.820509
0.824348
0.82389
0.814592
0.781624
0.700169
0.626033
0.604379
0.600813
0.610706
0.645507
0.681116
0.699134
0.711468
0.730089
0.752784
0.781063
0.813806
0.839012
0.861126
0.885566
0.896675
0.902414
0.907932
0.911591
0.914749
0.918391
0.923124
0.929425
0.934634
0.938562
0.942554
0.946361
0.948684
0.949141
0.948753
0.94633
0.940302
0.930472
0.918934
0.91192
0.909558
0.917593
0.928623
0.942416
0.956345
0.966918
0.97432
0.978731
0.980952
0.979273
0.972621
0.959153
0.937058
0.905225
0.870897
0.83905
0.814815
0.801946
0.797337
0.79872
0.807185
0.8197
0.833896
0.848655
0.863435
0.878936
0.897775
0.920524
0.939763
0.950746
0.955285
0.954872
0.952438
0.953172
0.959983
0.972107
0.980947
0.984673
0.985132
0.983381
0.972728
0.947298
0.927609
0.915297
0.909172
0.907259
0.907303
0.909342
0.919538
0.946003
0.967684
0.980275
0.985074
0.985464
0.983119
0.969421
0.932155
0.906715
0.895906
0.893809
0.894698
0.900346
0.922089
0.949559
0.968127
0.979684
0.986669
0.99095
0.993724
0.995669
0.997072
0.998004
0.998499
0.998655
0.998647
0.998428
0.997244
0.992254
0.97304
0.90246
0.701951
0.494706
0.333335
0.215212
0.133422
0.0796129
0.0455506
0.0253302
0.0129386
0.57335
0.477849
0.411673
0.389572
0.387069
0.389987
0.403794
0.427906
0.445502
0.454526
0.46033
0.46622
0.471583
0.477427
0.483184
0.487475
0.490849
0.496767
0.504972
0.510074
0.512443
0.514117
0.515534
0.515923
0.515509
0.514718
0.512669
0.510707
0.502313
0.493112
0.488085
0.488231
0.495209
0.518431
0.554554
0.589792
0.612257
0.624885
0.632032
0.636835
0.633158
0.632006
0.779238
0.836851
0.834289
0.808417
0.793365
0.791475
0.794778
0.809114
0.822303
0.824033
0.819416
0.794932
0.720537
0.615691
0.579992
0.573483
0.579097
0.612243
0.661345
0.687809
0.69903
0.706827
0.716884
0.732222
0.754929
0.782321
0.807323
0.837487
0.870134
0.891457
0.902162
0.91164
0.917399
0.921108
0.924887
0.929786
0.937092
0.943782
0.948321
0.951121
0.95188
0.951534
0.948082
0.93762
0.915973
0.887236
0.86593
0.853904
0.843481
0.833836
0.82676
0.833357
0.853995
0.890092
0.925705
0.954158
0.972968
0.98325
0.988332
0.990809
0.991744
0.990744
0.986848
0.979098
0.965857
0.944792
0.916667
0.889672
0.869273
0.857468
0.853898
0.856319
0.8636
0.871177
0.879758
0.890594
0.904267
0.922
0.942663
0.958061
0.965664
0.967394
0.965672
0.964254
0.965855
0.97418
0.982926
0.98673
0.987179
0.985471
0.974762
0.950033
0.932353
0.922596
0.918678
0.917977
0.918637
0.923442
0.941272
0.962906
0.978094
0.986673
0.989812
0.990007
0.988347
0.979525
0.951443
0.927316
0.916125
0.913387
0.913992
0.918052
0.932628
0.955019
0.971841
0.982874
0.989575
0.993535
0.995906
0.997375
0.998301
0.998845
0.999095
0.999153
0.999126
0.998876
0.997638
0.992491
0.972613
0.899127
0.696601
0.492813
0.333551
0.216318
0.134869
0.0805518
0.0467445
0.0251036
0.571238
0.472047
0.426622
0.425416
0.428498
0.440794
0.455007
0.465299
0.474648
0.482085
0.487145
0.492529
0.497576
0.503139
0.51049
0.518121
0.522856
0.526132
0.529645
0.535165
0.542531
0.549167
0.555775
0.562445
0.56829
0.572183
0.575928
0.58041
0.586383
0.588654
0.59144
0.592151
0.593594
0.599097
0.611559
0.626238
0.641522
0.650409
0.651442
0.646989
0.634618
0.657397
0.806884
0.836599
0.828508
0.796386
0.786023
0.785514
0.792976
0.813986
0.823083
0.822845
0.808469
0.759895
0.658754
0.570965
0.548956
0.547638
0.564
0.606215
0.65131
0.66575
0.668023
0.663207
0.658452
0.657161
0.65793
0.667327
0.691132
0.721351
0.763608
0.809294
0.845625
0.88162
0.902039
0.912295
0.919023
0.924461
0.931738
0.939998
0.943126
0.943789
0.942616
0.934592
0.915857
0.887087
0.863453
0.854355
0.849456
0.84306
0.834287
0.819996
0.797364
0.781797
0.776017
0.784268
0.816064
0.870884
0.922425
0.958611
0.978768
0.988772
0.993311
0.995427
0.996425
0.996605
0.995833
0.993357
0.988673
0.981082
0.97119
0.96048
0.95057
0.942382
0.936004
0.929317
0.921056
0.913529
0.911548
0.915825
0.929663
0.94706
0.963737
0.973361
0.976579
0.976219
0.974403
0.974482
0.978276
0.985587
0.988783
0.98906
0.987261
0.976415
0.956361
0.944
0.938516
0.937122
0.937203
0.938737
0.946418
0.963273
0.977021
0.986528
0.99186
0.993826
0.993977
0.993203
0.989591
0.977765
0.962313
0.951718
0.946356
0.945372
0.946434
0.951603
0.965315
0.977917
0.986687
0.992205
0.995468
0.997354
0.998439
0.999046
0.99935
0.999461
0.999471
0.99942
0.999083
0.997547
0.991315
0.967428
0.879159
0.666707
0.471782
0.319063
0.207145
0.12869
0.0776157
0.0434925
0.569911
0.47223
0.440039
0.436648
0.442248
0.459732
0.471559
0.476715
0.484966
0.493856
0.500433
0.509498
0.51953
0.528981
0.542068
0.555581
0.566052
0.575491
0.582748
0.588774
0.594309
0.598176
0.600695
0.602605
0.605796
0.610632
0.615772
0.623374
0.631876
0.640798
0.646238
0.649001
0.650777
0.652161
0.654593
0.657431
0.660184
0.659834
0.656035
0.647194
0.640687
0.719988
0.823628
0.835381
0.816979
0.786162
0.779394
0.779917
0.790345
0.813886
0.823657
0.822885
0.805968
0.746467
0.62022
0.538364
0.526797
0.525304
0.536285
0.577487
0.599313
0.591631
0.551277
0.525751
0.514083
0.511342
0.526
0.53375
0.544924
0.566935
0.601564
0.645708
0.698403
0.762874
0.825051
0.859617
0.885366
0.898074
0.90569
0.911283
0.914813
0.915556
0.911064
0.895382
0.875423
0.862278
0.857275
0.854781
0.851438
0.845759
0.837142
0.821751
0.791022
0.764298
0.751797
0.747228
0.750987
0.766404
0.817847
0.891323
0.941106
0.969707
0.985156
0.992848
0.996316
0.997793
0.99846
0.998706
0.998596
0.997866
0.996274
0.993928
0.991187
0.988731
0.986859
0.985157
0.98226
0.975484
0.95969
0.943841
0.937657
0.939846
0.95329
0.969514
0.979573
0.983318
0.983519
0.982313
0.98194
0.983444
0.98844
0.990834
0.990979
0.98947
0.981059
0.968031
0.961005
0.95859
0.958298
0.958574
0.960139
0.966568
0.977596
0.986159
0.991956
0.995277
0.996639
0.996855
0.996666
0.99576
0.99348
0.987606
0.979699
0.973553
0.970409
0.970024
0.97126
0.976879
0.985207
0.991102
0.994867
0.997116
0.998399
0.999106
0.999471
0.999631
0.999672
0.999665
0.999571
0.999077
0.996957
0.988548
0.956704
0.839879
0.623429
0.438542
0.295661
0.190513
0.119064
0.0693071
0.570487
0.474416
0.44678
0.445112
0.455137
0.474595
0.483349
0.491494
0.508094
0.528263
0.550836
0.578045
0.599822
0.618187
0.639066
0.648069
0.652487
0.654471
0.655184
0.655242
0.651609
0.646127
0.642459
0.638657
0.633016
0.629229
0.628066
0.629667
0.63446
0.642037
0.649808
0.654944
0.658323
0.660671
0.662007
0.66261
0.662584
0.660303
0.655977
0.650104
0.669181
0.786501
0.830443
0.83334
0.809304
0.777853
0.772223
0.773141
0.785295
0.811893
0.823887
0.823981
0.808815
0.753086
0.630047
0.51395
0.477433
0.477097
0.483342
0.493525
0.485642
0.449878
0.392395
0.352607
0.33451
0.327494
0.327282
0.351158
0.37781
0.43084
0.473078
0.518007
0.56419
0.606936
0.667389
0.721259
0.790021
0.827517
0.855043
0.866764
0.873603
0.87748
0.87838
0.873256
0.86689
0.861645
0.859138
0.856991
0.853363
0.845596
0.834586
0.817073
0.774872
0.736262
0.72567
0.725994
0.728199
0.72918
0.741499
0.794166
0.876988
0.930175
0.962767
0.981471
0.99135
0.9961
0.998176
0.999019
0.999383
0.999531
0.99953
0.999339
0.998758
0.997964
0.997145
0.996459
0.9959
0.995091
0.993313
0.987718
0.971021
0.958543
0.956466
0.961495
0.975692
0.984827
0.988189
0.988498
0.987738
0.987367
0.988093
0.991127
0.992747
0.992858
0.992095
0.988145
0.981308
0.977192
0.975628
0.975408
0.975507
0.976127
0.978988
0.985906
0.991506
0.99516
0.997275
0.998286
0.998603
0.998615
0.998503
0.99807
0.996849
0.993001
0.98806
0.985208
0.984346
0.984601
0.986658
0.991446
0.994957
0.997149
0.998434
0.999155
0.99954
0.999724
0.999791
0.9998
0.999775
0.999611
0.998851
0.995732
0.983629
0.938436
0.784945
0.572652
0.400085
0.266832
0.172429
0.103923
0.572539
0.484895
0.46485
0.464767
0.477096
0.501586
0.529098
0.565598
0.606057
0.635065
0.662961
0.693961
0.723769
0.756597
0.776292
0.790881
0.80102
0.804853
0.806126
0.801803
0.787396
0.771155
0.757012
0.745375
0.728631
0.710583
0.697059
0.679976
0.667939
0.662151
0.659925
0.660385
0.661755
0.6635
0.663997
0.664012
0.663345
0.661617
0.661409
0.674182
0.757026
0.81855
0.833069
0.829032
0.791821
0.770372
0.766456
0.76677
0.777525
0.805894
0.823386
0.826192
0.817369
0.773052
0.663636
0.525935
0.462132
0.428172
0.411397
0.402335
0.383566
0.344893
0.294907
0.264363
0.250566
0.244311
0.242891
0.253971
0.267577
0.292286
0.330335
0.380228
0.435782
0.505594
0.572329
0.628221
0.671608
0.71051
0.756299
0.799795
0.833689
0.849902
0.8584
0.862193
0.86219
0.860453
0.857555
0.853346
0.846065
0.829618
0.80721
0.784913
0.750148
0.716566
0.699643
0.697155
0.701675
0.708017
0.715118
0.739411
0.810717
0.880339
0.92957
0.961564
0.980512
0.990779
0.995896
0.99824
0.999229
0.99962
0.999781
0.99984
0.999837
0.999754
0.999536
0.999272
0.99904
0.998844
0.998533
0.997826
0.995474
0.985371
0.973236
0.970051
0.972062
0.981849
0.989213
0.991657
0.991842
0.991312
0.991116
0.991671
0.993587
0.994481
0.99456
0.994319
0.993355
0.990921
0.988484
0.98683
0.986045
0.985862
0.985965
0.987116
0.991053
0.994802
0.997133
0.998455
0.99913
0.999423
0.999505
0.9995
0.999402
0.998917
0.996963
0.994068
0.99257
0.992223
0.992333
0.993282
0.995701
0.997506
0.998613
0.999253
0.999605
0.999785
0.999861
0.99988
0.999875
0.999821
0.999544
0.998358
0.99366
0.975792
0.910054
0.721161
0.521055
0.359193
0.239634
0.149167
0.582708
0.513098
0.495627
0.496327
0.519663
0.563523
0.61267
0.684251
0.747777
0.783267
0.834341
0.858323
0.870394
0.878725
0.882364
0.884343
0.885097
0.885207
0.883271
0.878161
0.870737
0.858909
0.843519
0.827215
0.812833
0.794886
0.779076
0.765723
0.751712
0.732631
0.717422
0.701435
0.687816
0.68041
0.676586
0.674872
0.675121
0.680783
0.702263
0.759909
0.810231
0.82955
0.832855
0.817583
0.777332
0.760754
0.758086
0.759112
0.766527
0.791311
0.819541
0.826304
0.825551
0.806227
0.739277
0.583144
0.476269
0.427371
0.393549
0.365678
0.338587
0.306567
0.270655
0.241126
0.225261
0.215894
0.21179
0.214786
0.226762
0.241351
0.272289
0.323437
0.376395
0.419687
0.467178
0.537767
0.614071
0.662019
0.691161
0.711409
0.736516
0.770267
0.799733
0.819478
0.830348
0.833631
0.830508
0.821834
0.807469
0.784449
0.767912
0.760519
0.745316
0.714673
0.696287
0.690361
0.690022
0.691934
0.698513
0.717929
0.772036
0.838203
0.894996
0.9377
0.965999
0.982737
0.991752
0.996274
0.998407
0.999344
0.999727
0.999873
0.999929
0.999945
0.999941
0.9999
0.999824
0.999762
0.999696
0.999563
0.99921
0.997737
0.990608
0.981926
0.979719
0.981015
0.987799
0.9927
0.994104
0.994131
0.993738
0.993682
0.994217
0.995666
0.996368
0.996531
0.99651
0.996361
0.995971
0.994918
0.993537
0.992535
0.992064
0.992012
0.992521
0.994691
0.996981
0.998379
0.999165
0.999572
0.999757
0.999817
0.999818
0.999761
0.999428
0.99816
0.996879
0.996382
0.996337
0.996489
0.997244
0.998322
0.99903
0.99946
0.999708
0.999844
0.999908
0.99993
0.99993
0.999914
0.999813
0.999362
0.997538
0.990499
0.964226
0.868112
0.659165
0.469798
0.323282
0.207502
0.586755
0.527406
0.521406
0.554017
0.6339
0.711372
0.771344
0.82992
0.857793
0.877997
0.890569
0.894927
0.896537
0.897007
0.897029
0.896643
0.896553
0.896562
0.896632
0.896507
0.895513
0.89344
0.889008
0.878598
0.861099
0.836041
0.816389
0.807715
0.797113
0.787806
0.777791
0.766528
0.755355
0.742674
0.734479
0.730659
0.735043
0.755033
0.784743
0.81408
0.828941
0.833806
0.832206
0.813575
0.776762
0.757379
0.751113
0.750055
0.754077
0.767213
0.801868
0.822926
0.826766
0.822846
0.799214
0.727077
0.562783
0.457029
0.404279
0.368809
0.339067
0.308665
0.276414
0.247014
0.228948
0.218407
0.212315
0.212252
0.214613
0.223707
0.247209
0.29714
0.361463
0.408099
0.444545
0.485032
0.530832
0.60368
0.668737
0.696929
0.709387
0.71667
0.72581
0.736355
0.747344
0.75649
0.758007
0.757397
0.756754
0.756653
0.756534
0.755156
0.746255
0.717823
0.697322
0.689869
0.688546
0.689134
0.69285
0.70625
0.749867
0.817668
0.876278
0.92177
0.954011
0.974834
0.987111
0.99378
0.997156
0.998768
0.999493
0.999798
0.999918
0.999963
0.999979
0.999982
0.999977
0.999963
0.999949
0.999924
0.999861
0.999617
0.998295
0.992392
0.987353
0.986459
0.987776
0.992601
0.995233
0.995826
0.995747
0.995525
0.995576
0.996185
0.997267
0.997841
0.99808
0.998144
0.998138
0.998064
0.997753
0.996842
0.996035
0.995644
0.995583
0.995846
0.997079
0.99839
0.999162
0.999586
0.999802
0.999897
0.999923
0.999919
0.999864
0.999561
0.998875
0.998506
0.998427
0.998455
0.998653
0.999131
0.999482
0.999702
0.999833
0.999909
0.999947
0.999962
0.999964
0.999958
0.999922
0.999753
0.999053
0.996313
0.985949
0.947764
0.814188
0.600102
0.425683
0.281494
0.602123
0.568221
0.58332
0.664703
0.748273
0.811092
0.852615
0.879018
0.889953
0.894832
0.896409
0.896601
0.895932
0.894421
0.892549
0.891061
0.890621
0.890604
0.892082
0.894389
0.895937
0.898951
0.904623
0.907725
0.908867
0.908895
0.890449
0.866771
0.836218
0.819882
0.80928
0.804086
0.800994
0.799091
0.796458
0.794608
0.798775
0.809692
0.822762
0.831814
0.835782
0.836758
0.832862
0.815632
0.78167
0.759151
0.750647
0.746717
0.745811
0.750221
0.765007
0.800309
0.82125
0.82451
0.8207
0.801006
0.74345
0.615943
0.481011
0.409039
0.362667
0.327417
0.297354
0.268977
0.247604
0.234769
0.225581
0.225399
0.227849
0.235413
0.251396
0.288543
0.37637
0.447766
0.476113
0.492777
0.517984
0.554403
0.613199
0.680892
0.713458
0.723624
0.724941
0.726296
0.730146
0.73441
0.73819
0.742387
0.748052
0.753228
0.755613
0.755404
0.751471
0.72964
0.704416
0.692054
0.688836
0.688947
0.691565
0.702054
0.739793
0.810207
0.87048
0.91702
0.950106
0.971759
0.984909
0.99233
0.996269
0.99826
0.999223
0.99967
0.999867
0.999948
0.99998
0.999991
0.999994
0.999995
0.999994
0.99999
0.99998
0.999939
0.999695
0.998179
0.993634
0.991424
0.991312
0.992857
0.995797
0.996924
0.997083
0.996981
0.996925
0.997051
0.997732
0.99848
0.998879
0.999063
0.999127
0.999132
0.999098
0.9989
0.998337
0.997892
0.997703
0.997689
0.997848
0.998536
0.999213
0.999605
0.999813
0.999915
0.999956
0.999964
0.999957
0.999897
0.999667
0.999474
0.999421
0.999425
0.999479
0.999648
0.999789
0.999877
0.999929
0.99996
0.999976
0.999983
0.999984
0.999982
0.999968
0.999905
0.999639
0.998585
0.99454
0.979426
0.924581
0.750796
0.547909
0.373086
0.616237
0.614358
0.636724
0.726095
0.808719
0.849923
0.879133
0.89067
0.894457
0.89528
0.895083
0.891828
0.888685
0.886467
0.884782
0.88414
0.883859
0.883252
0.882505
0.880791
0.878797
0.877322
0.876885
0.886384
0.903341
0.923556
0.933647
0.936024
0.931032
0.896127
0.855829
0.827109
0.81619
0.81323
0.816347
0.820845
0.823218
0.828272
0.833939
0.836838
0.838197
0.838509
0.835004
0.822562
0.798749
0.769871
0.754682
0.747858
0.744635
0.743993
0.747561
0.760158
0.790575
0.815985
0.820974
0.818652
0.806325
0.770747
0.699305
0.582738
0.47398
0.402656
0.35612
0.321744
0.294348
0.277917
0.264719
0.264764
0.268632
0.280544
0.305919
0.36806
0.45507
0.531936
0.582024
0.587377
0.578371
0.57216
0.588355
0.648719
0.705621
0.736231
0.74961
0.752641
0.752262
0.751201
0.751578
0.753013
0.756731
0.76066
0.763047
0.762814
0.757302
0.736353
0.71171
0.697307
0.691139
0.690304
0.691902
0.701316
0.737855
0.811477
0.873575
0.918913
0.950461
0.971442
0.98447
0.991974
0.996023
0.998099
0.999118
0.999604
0.999829
0.999928
0.999971
0.999989
0.999996
0.999998
0.999999
0.999999
0.999998
0.999992
0.999946
0.999626
0.997771
0.995279
0.994594
0.994802
0.99633
0.997648
0.998006
0.998015
0.997972
0.997995
0.998242
0.998862
0.999273
0.999485
0.999577
0.999604
0.999603
0.999568
0.999395
0.999104
0.998927
0.99887
0.998878
0.998998
0.999368
0.999665
0.999836
0.999925
0.999967
0.999981
0.999982
0.999972
0.999916
0.999841
0.999816
0.999816
0.99983
0.999881
0.999929
0.999958
0.999975
0.999985
0.999991
0.999993
0.999993
0.999993
0.999988
0.999964
0.999863
0.999456
0.997874
0.991871
0.969671
0.887884
0.6875
0.482858
0.631922
0.643751
0.677475
0.755331
0.829919
0.864213
0.886258
0.89311
0.894807
0.894841
0.892682
0.890101
0.889033
0.888731
0.890517
0.892471
0.893206
0.89339
0.892973
0.891591
0.887716
0.88135
0.871642
0.860251
0.854764
0.856114
0.89708
0.934687
0.955152
0.96131
0.961804
0.931185
0.870361
0.8292
0.817758
0.81946
0.825551
0.830145
0.834843
0.837174
0.83843
0.838761
0.837469
0.832135
0.819455
0.800995
0.775443
0.756698
0.747718
0.744207
0.743392
0.745559
0.75486
0.779071
0.808479
0.816814
0.815757
0.810148
0.793913
0.756398
0.699028
0.616707
0.535325
0.477195
0.425217
0.391113
0.370658
0.372647
0.383778
0.410046