/*--------------------------------*- C++ -*----------------------------------*\
| =========                 |                                                 |
| \\      /  F ield         | OpenFOAM: The Open Source CFD Toolbox           |
|  \\    /   O peration     | Version:  2112                                  |
|   \\  /    A nd           | Website:  www.openfoam.com                      |
|    \\/     M anipulation  |                                                 |
\*---------------------------------------------------------------------------*/
FoamFile
{
    version     2.0;
    format      ascii;
    arch        "LSB;label=32;scalar=64";
    class       volVectorField;
    location    "0.29";
    object      U;
}
// * * * * * * * * * * * * * * * * * * * * * * * * * * * * * * * * * * * * * //

dimensions      [0 1 -1 0 0 0 0];

internalField   nonuniform List<vector> 
12225
(
(9.83695 0.0199436 0)
(9.54502 0.0412307 0)
(9.24944 0.0453722 0)
(8.94444 0.0463563 0)
(8.64235 0.0467109 0)
(8.35461 0.0464375 0)
(8.0764 0.0460496 0)
(7.80605 0.0458129 0)
(7.53884 0.0459625 0)
(7.27735 0.046317 0)
(7.01247 0.0474763 0)
(6.75301 0.0486622 0)
(6.47747 0.0519044 0)
(6.2101 0.054005 0)
(5.90124 0.0623864 0)
(5.61027 0.0644314 0)
(5.22798 0.0882558 0)
(4.88372 0.0857631 0)
(10.0178 0.0484479 0)
(10.0796 0.0750614 0)
(10.1114 0.0771762 0)
(10.1121 0.0791896 0)
(10.0935 0.0825186 0)
(10.0633 0.0856202 0)
(10.0223 0.0884827 0)
(9.97151 0.0918683 0)
(9.90994 0.0955137 0)
(9.8396 0.100314 0)
(9.75794 0.105508 0)
(9.66787 0.112852 0)
(9.56336 0.121026 0)
(9.44922 0.13298 0)
(9.31414 0.147565 0)
(9.16509 0.168278 0)
(8.98563 0.19887 0)
(8.78021 0.238861 0)
(10.0028 0.0375979 0)
(10.035 0.0622236 0)
(10.0602 0.0638872 0)
(10.0704 0.0664864 0)
(10.0728 0.0716529 0)
(10.0721 0.0769045 0)
(10.0687 0.0819906 0)
(10.0614 0.0876193 0)
(10.0497 0.0939849 0)
(10.0331 0.101553 0)
(10.0117 0.110434 0)
(9.9841 0.121348 0)
(9.95131 0.134903 0)
(9.90995 0.151929 0)
(9.8633 0.174821 0)
(9.80461 0.204008 0)
(9.74327 0.246768 0)
(9.66976 0.302052 0)
(10.002 0.0295385 0)
(10.0255 0.0555468 0)
(10.0457 0.0611757 0)
(10.0537 0.0659442 0)
(10.0537 0.0728417 0)
(10.0505 0.0797482 0)
(10.0453 0.0862554 0)
(10.0372 0.0931539 0)
(10.0258 0.100875 0)
(10.0107 0.109877 0)
(9.99207 0.12048 0)
(9.96939 0.133234 0)
(9.94292 0.149111 0)
(9.91164 0.16862 0)
(9.87661 0.19446 0)
(9.83742 0.226699 0)
(9.79702 0.271121 0)
(9.75918 0.325667 0)
(10.0014 0.0240823 0)
(10.0193 0.0511564 0)
(10.0368 0.0603045 0)
(10.0447 0.0662797 0)
(10.0448 0.0736885 0)
(10.0413 0.0813536 0)
(10.0357 0.0887486 0)
(10.0274 0.0965622 0)
(10.0158 0.105374 0)
(10.0007 0.115647 0)
(9.98208 0.127785 0)
(9.95994 0.142306 0)
(9.93408 0.160139 0)
(9.90458 0.181941 0)
(9.87157 0.209672 0)
(9.83654 0.243973 0)
(9.80045 0.287634 0)
(9.76812 0.33978 0)
(10.001 0.0201668 0)
(10.0145 0.0469446 0)
(10.0292 0.0585936 0)
(10.0367 0.0656348 0)
(10.0371 0.0735598 0)
(10.0338 0.08215 0)
(10.0284 0.0907758 0)
(10.0204 0.0999005 0)
(10.0093 0.110157 0)
(9.99501 0.12202 0)
(9.97745 0.135948 0)
(9.95667 0.152426 0)
(9.9326 0.17232 0)
(9.90554 0.196318 0)
(9.8757 0.225816 0)
(9.84456 0.261588 0)
(9.81306 0.304741 0)
(9.7847 0.355288 0)
(10.0007 0.0172509 0)
(10.0108 0.0428907 0)
(10.0228 0.0564443 0)
(10.0297 0.0648947 0)
(10.0304 0.073657 0)
(10.0274 0.0832952 0)
(10.0222 0.0932207 0)
(10.0147 0.103697 0)
(10.0043 0.115357 0)
(9.99097 0.128726 0)
(9.97467 0.144286 0)
(9.95555 0.162533 0)
(9.93363 0.18421 0)
(9.90932 0.210017 0)
(9.88296 0.240891 0)
(9.85586 0.277567 0)
(9.82898 0.320349 0)
(9.80479 0.36941 0)
(10.0005 0.0150484 0)
(10.008 0.0392596 0)
(10.0175 0.0542448 0)
(10.0237 0.0642534 0)
(10.0247 0.0739854 0)
(10.022 0.0845834 0)
(10.0172 0.0956836 0)
(10.0102 0.107433 0)
(10.0007 0.120425 0)
(9.98843 0.135225 0)
(9.97357 0.15232 0)
(9.95629 0.172208 0)
(9.9367 0.195494 0)
(9.91527 0.222835 0)
(9.89241 0.254833 0)
(9.86927 0.292091 0)
(9.84669 0.334531 0)
(9.82643 0.382197 0)
(10.0004 0.0133806 0)
(10.0059 0.0361728 0)
(10.0134 0.052131 0)
(10.0187 0.0636112 0)
(10.0199 0.0743527 0)
(10.0177 0.0858442 0)
(10.0133 0.0980332 0)
(10.0069 0.111024 0)
(9.99835 0.12533 0)
(9.98741 0.141523 0)
(9.97417 0.160071 0)
(9.9589 0.181456 0)
(9.94178 0.206157 0)
(9.92333 0.234749 0)
(9.90396 0.267594 0)
(9.88467 0.305153 0)
(9.86613 0.347153 0)
(9.84965 0.393591 0)
(10.0003 0.0121135 0)
(10.0044 0.033622 0)
(10.0101 0.0501562 0)
(10.0147 0.0629061 0)
(10.016 0.0746676 0)
(10.0143 0.0870371 0)
(10.0105 0.100254 0)
(10.0049 0.114436 0)
(9.99738 0.130004 0)
(9.98786 0.1475 0)
(9.97641 0.167367 0)
(9.96331 0.190055 0)
(9.9488 0.215936 0)
(9.93339 0.24549 0)
(9.91749 0.278909 0)
(9.90195 0.316534 0)
(9.88728 0.357996 0)
(9.8745 0.40333 0)
(10.0002 0.011139 0)
(10.0032 0.0315361 0)
(10.0077 0.0483578 0)
(10.0115 0.0621463 0)
(10.013 0.0748958 0)
(10.0118 0.0881243 0)
(10.0087 0.10229 0)
(10.004 0.117563 0)
(9.99771 0.134285 0)
(9.98976 0.152949 0)
(9.98023 0.173959 0)
(9.96944 0.197728 0)
(9.95764 0.224532 0)
(9.94532 0.254761 0)
(9.93286 0.288478 0)
(9.92099 0.325951 0)
(9.91008 0.366742 0)
(9.90096 0.41099 0)
(10.0001 0.0104238 0)
(10.0025 0.0299337 0)
(10.0061 0.0468433 0)
(10.0094 0.0613901 0)
(10.0109 0.0749848 0)
(10.0103 0.0889714 0)
(10.0079 0.103932 0)
(10.0042 0.120102 0)
(9.99916 0.13777 0)
(9.99276 0.157374 0)
(9.98512 0.179271 0)
(9.97654 0.203835 0)
(9.96729 0.231261 0)
(9.95783 0.261871 0)
(9.9485 0.295626 0)
(9.93993 0.332766 0)
(9.93239 0.372787 0)
(9.9266 0.415956 0)
(10.0001 0.00986607 0)
(10.002 0.0286197 0)
(10.0049 0.0454647 0)
(10.0078 0.0605407 0)
(10.0094 0.0748549 0)
(10.0094 0.0895319 0)
(10.0079 0.10519 0)
(10.0053 0.122122 0)
(10.0015 0.14059 0)
(9.99677 0.160971 0)
(9.99109 0.183569 0)
(9.98478 0.208716 0)
(9.97809 0.236535 0)
(9.97148 0.267299 0)
(9.96521 0.30088 0)
(9.95985 0.337518 0)
(9.95559 0.37664 0)
(9.95306 0.418633 0)
(10.0001 0.00933943 0)
(10.0016 0.0273289 0)
(10.004 0.0439854 0)
(10.0066 0.0594425 0)
(10.0085 0.0744055 0)
(10.0093 0.089757 0)
(10.0088 0.106086 0)
(10.0075 0.123727 0)
(10.0054 0.142918 0)
(10.0026 0.163979 0)
(9.99926 0.187143 0)
(9.9956 0.212696 0)
(9.99187 0.240687 0)
(9.98849 0.271348 0)
(9.98566 0.304462 0)
(9.98389 0.34029 0)
(9.98327 0.37817 0)
(9.98436 0.418642 0)
(10.0001 0.00882242 0)
(10.0014 0.0260142 0)
(10.0036 0.042343 0)
(10.0061 0.057975 0)
(10.0084 0.0734104 0)
(10.0101 0.0893124 0)
(10.011 0.10619 0)
(10.0113 0.124384 0)
(10.0112 0.144107 0)
(10.0107 0.165623 0)
(10.0101 0.189084 0)
(10.0095 0.214731 0)
(10.0091 0.242529 0)
(10.0093 0.27269 0)
(10.0103 0.304901 0)
(10.0124 0.339471 0)
(10.0157 0.375627 0)
(10.0208 0.414087 0)
(10.0001 0.00827342 0)
(10.0013 0.0245568 0)
(10.0035 0.0403498 0)
(10.0063 0.0558601 0)
(10.0093 0.0714615 0)
(10.0121 0.0876418 0)
(10.0147 0.104802 0)
(10.017 0.123252 0)
(10.0193 0.143163 0)
(10.0216 0.164748 0)
(10.024 0.188079 0)
(10.0268 0.213347 0)
(10.0301 0.240441 0)
(10.0342 0.269557 0)
(10.0392 0.300297 0)
(10.0455 0.333028 0)
(10.0531 0.36686 0)
(10.0622 0.40269 0)
(10.0001 0.00760988 0)
(10.0015 0.0227177 0)
(10.004 0.0376303 0)
(10.0074 0.0525907 0)
(10.0114 0.067894 0)
(10.0158 0.083893 0)
(10.0203 0.100874 0)
(10.025 0.119081 0)
(10.03 0.138634 0)
(10.0354 0.159692 0)
(10.0412 0.182254 0)
(10.0477 0.206464 0)
(10.055 0.23214 0)
(10.0632 0.259471 0)
(10.0724 0.287992 0)
(10.083 0.318116 0)
(10.0947 0.348868 0)
(10.1081 0.381282 0)
(10.0001 0.00668644 0)
(10.0018 0.0200776 0)
(10.005 0.0335271 0)
(10.0094 0.0473011 0)
(10.0149 0.0616355 0)
(10.0211 0.0767719 0)
(10.028 0.0928832 0)
(10.0354 0.110133 0)
(10.0434 0.128576 0)
(10.0522 0.148318 0)
(10.0617 0.169293 0)
(10.072 0.191599 0)
(10.0833 0.215005 0)
(10.0956 0.239682 0)
(10.109 0.265134 0)
(10.1237 0.291788 0)
(10.1395 0.318647 0)
(10.1567 0.346794 0)
(10.0001 0.00527862 0)
(10.0024 0.0159813 0)
(10.0066 0.0269898 0)
(10.0125 0.0385849 0)
(10.0199 0.0509433 0)
(10.0285 0.0641932 0)
(10.038 0.0783943 0)
(10.0484 0.0936235 0)
(10.0597 0.109878 0)
(10.0719 0.127206 0)
(10.0851 0.1455 0)
(10.0993 0.164808 0)
(10.1144 0.184885 0)
(10.1307 0.205868 0)
(10.1479 0.227285 0)
(10.1663 0.249526 0)
(10.1857 0.271678 0)
(10.2062 0.294741 0)
(10.0002 0.00361387 0)
(10.0032 0.011116 0)
(10.0085 0.0191787 0)
(10.016 0.0281025 0)
(10.0253 0.0379948 0)
(10.0359 0.0488555 0)
(10.0476 0.0606392 0)
(10.0605 0.0733574 0)
(10.0743 0.0869727 0)
(10.0893 0.101489 0)
(10.1052 0.116777 0)
(10.1221 0.132845 0)
(10.1401 0.149461 0)
(10.159 0.166725 0)
(10.1788 0.184226 0)
(10.1997 0.202289 0)
(10.2213 0.220136 0)
(10.2439 0.23862 0)
(10.0002 0.00193468 0)
(10.0039 0.0062475 0)
(10.0103 0.0114636 0)
(10.0192 0.0179071 0)
(10.03 0.0255575 0)
(10.0422 0.034246 0)
(10.0556 0.0438401 0)
(10.0701 0.0543235 0)
(10.0858 0.0656428 0)
(10.1025 0.0777659 0)
(10.1202 0.0905477 0)
(10.139 0.103971 0)
(10.1586 0.117827 0)
(10.1792 0.132185 0)
(10.2006 0.146691 0)
(10.223 0.161611 0)
(10.246 0.176288 0)
(10.2698 0.191436 0)
(10.0003 0.000119304 0)
(10.0047 0.00108169 0)
(10.0124 0.00351304 0)
(10.0228 0.00770367 0)
(10.0351 0.0133449 0)
(10.0485 0.0200427 0)
(10.0632 0.0276238 0)
(10.0791 0.0360851 0)
(10.0961 0.0453571 0)
(10.1142 0.0553601 0)
(10.1333 0.0659341 0)
(10.1533 0.0770435 0)
(10.1741 0.0885031 0)
(10.1959 0.100361 0)
(10.2184 0.112319 0)
(10.2417 0.124586 0)
(10.2656 0.136624 0)
(10.2902 0.149013 0)
(10.0003 -0.00188958 0)
(10.0057 -0.00444782 0)
(10.015 -0.00457938 0)
(10.027 -0.00224866 0)
(10.0405 0.00167479 0)
(10.055 0.006558 0)
(10.0708 0.0123013 0)
(10.0877 0.0189537 0)
(10.1059 0.026416 0)
(10.125 0.0345544 0)
(10.145 0.0432 0)
(10.1659 0.0523072 0)
(10.1877 0.0617093 0)
(10.2103 0.071434 0)
(10.2336 0.0812305 0)
(10.2575 0.0912623 0)
(10.2821 0.101088 0)
(10.3071 0.111172 0)
(10.0004 -0.00417721 0)
(10.0073 -0.0104264 0)
(10.0185 -0.0127295 0)
(10.0322 -0.0117676 0)
(10.0467 -0.00926533 0)
(10.062 -0.0059864 0)
(10.0786 -0.0018525 0)
(10.0965 0.00323031 0)
(10.1155 0.00910195 0)
(10.1354 0.0155899 0)
(10.1562 0.0225332 0)
(10.1778 0.029899 0)
(10.2002 0.0375371 0)
(10.2233 0.045457 0)
(10.2471 0.0534521 0)
(10.2716 0.0616468 0)
(10.2965 0.0696967 0)
(10.3218 0.0779625 0)
(10.0006 -0.00687194 0)
(10.0094 -0.0168492 0)
(10.0232 -0.0207372 0)
(10.0384 -0.0207541 0)
(10.0537 -0.0195165 0)
(10.0696 -0.0176138 0)
(10.0869 -0.01475 0)
(10.1056 -0.0109004 0)
(10.1253 -0.0063259 0)
(10.1458 -0.00124366 0)
(10.1671 0.00422217 0)
(10.1892 0.0100116 0)
(10.2121 0.016042 0)
(10.2357 0.0222903 0)
(10.2599 0.0285886 0)
(10.2847 0.035014 0)
(10.31 0.0413302 0)
(10.3357 0.0478026 0)
(10.0008 -0.0102621 0)
(10.0126 -0.0235728 0)
(10.0292 -0.0281235 0)
(10.0458 -0.028986 0)
(10.0615 -0.0292039 0)
(10.078 -0.028665 0)
(10.096 -0.0268726 0)
(10.1153 -0.0239937 0)
(10.1355 -0.0204055 0)
(10.1564 -0.0163374 0)
(10.178 -0.0118887 0)
(10.2005 -0.00713164 0)
(10.2237 -0.00213991 0)
(10.2475 0.00304115 0)
(10.272 0.00828135 0)
(10.297 0.0136253 0)
(10.3224 0.0188373 0)
(10.3481 0.0241581 0)
(10.0011 -0.0149565 0)
(10.017 -0.0304864 0)
(10.0366 -0.0341185 0)
(10.054 -0.0354765 0)
(10.07 -0.0372471 0)
(10.0871 -0.0381963 0)
(10.1059 -0.0377121 0)
(10.1259 -0.0361827 0)
(10.1465 -0.0340326 0)
(10.1679 -0.0314483 0)
(10.19 -0.0284952 0)
(10.2128 -0.0252237 0)
(10.2364 -0.0217227 0)
(10.2606 -0.0180417 0)
(10.2854 -0.0142691 0)
(10.3106 -0.0104043 0)
(10.3362 -0.00663925 0)
(10.3623 -0.00277929 0)
(10.0018 -0.0221027 0)
(10.0241 -0.0390492 0)
(10.0471 -0.0402497 0)
(10.0655 -0.0408018 0)
(10.0826 -0.0425849 0)
(10.1014 -0.0434898 0)
(10.1221 -0.0429731 0)
(10.1437 -0.041587 0)
(10.1657 -0.0397376 0)
(10.1883 -0.0375845 0)
(10.2114 -0.0351613 0)
(10.2351 -0.0325404 0)
(10.2594 -0.0297383 0)
(10.284 -0.0268611 0)
(10.3091 -0.0238711 0)
(10.3345 -0.0209573 0)
(10.3602 -0.0180037 0)
(10.3861 -0.0153142 0)
(10.0094 -0.0328163 0)
(10.0546 -0.0542573 0)
(10.0903 -0.0573313 0)
(10.1135 -0.0597252 0)
(10.1312 -0.062737 0)
(10.1471 -0.0645155 0)
(10.161 -0.0647942 0)
(10.1726 -0.0641596 0)
(10.1821 -0.0629437 0)
(10.1903 -0.0613803 0)
(10.1977 -0.0594736 0)
(10.2049 -0.0574367 0)
(10.212 -0.0551265 0)
(10.2195 -0.05288 0)
(10.2272 -0.0503551 0)
(10.2357 -0.0480888 0)
(10.2443 -0.0456189 0)
(10.2545 -0.0436379 0)
(9.90678 -0.0119755 0)
(9.75334 -0.0286463 0)
(9.58845 -0.0346739 0)
(9.40355 -0.0384325 0)
(9.21571 -0.0410134 0)
(9.03504 -0.0421089 0)
(8.86452 -0.0420796 0)
(8.70375 -0.0413635 0)
(8.5534 -0.0401994 0)
(8.41391 -0.0387683 0)
(8.28489 -0.0372087 0)
(8.16654 -0.0355283 0)
(8.05742 -0.0338728 0)
(7.95849 -0.0320963 0)
(7.86668 -0.0305494 0)
(7.78544 -0.0286534 0)
(7.70764 -0.0275774 0)
(7.6426 -0.0254185 0)
(-0.284347 0.122613 -5.12505e-20)
(-0.660954 -0.106757 5.05277e-20)
(-1.01109 -0.186257 0)
(-0.952204 -0.383834 0)
(-0.62427 -0.662765 0)
(-0.0586168 -0.892689 -4.52107e-20)
(0.632195 -1.00199 0)
(1.38587 -1.01723 0)
(2.14271 -0.952277 0)
(2.85619 -0.836899 0)
(3.49228 -0.692558 4.01082e-20)
(4.01683 -0.535886 0)
(4.41908 -0.374309 0)
(4.67795 -0.213279 0)
(4.81833 -0.0527786 0)
(4.80663 0.1076 4.19257e-20)
(4.67913 0.267222 0)
(4.36223 0.43378 0)
(3.97284 0.578091 0)
(3.32373 0.762645 0)
(2.69062 0.815462 0)
(1.65397 1.14132 0)
(0.394215 0.506044 0)
(-0.15721 -0.553319 5.38626e-20)
(-0.7448 -0.459226 -5.4041e-20)
(-1.03299 -0.398158 5.40884e-20)
(-1.14579 -0.423071 5.43193e-20)
(-1.10202 -0.55231 0)
(-0.832296 -0.709191 0)
(-0.297038 -0.924269 -4.98572e-20)
(0.216243 -0.729807 -4.66646e-20)
(0.776934 -0.518485 0)
(1.2062 -0.447935 0)
(1.60937 -0.0821051 -4.11611e-20)
(1.71614 -0.307643 0)
(1.39667 -1.2754 0)
(1.57969 -1.00778 4.03032e-20)
(0.455395 0.74037 0)
(-1.29308 1.19108 3.32878e-20)
(-2.56369 1.09184 6.68433e-20)
(-3.77167 1.00281 0)
(-4.83981 0.893058 0)
(-5.78327 0.786033 0)
(-6.62118 0.686604 0)
(-7.35855 0.597103 0)
(-8.00533 0.517431 9.16824e-20)
(-8.56962 0.446458 9.61326e-20)
(-9.05906 0.382903 1.00136e-19)
(-9.48 0.325497 0)
(-9.83756 0.273183 -1.06628e-19)
(-10.1359 0.225183 0)
(-10.3785 0.180871 1.11004e-19)
(-10.568 0.13984 1.12391e-19)
(-10.7069 0.101915 0)
(-10.7978 0.0670707 0)
(-10.8426 0.0356013 0)
(-10.8432 0.00764219 1.12161e-19)
(-10.8072 -0.0174888 0)
(-10.7349 -0.0403682 0)
(-10.6305 -0.0609417 0)
(-10.4963 -0.0795433 0)
(-10.3349 -0.0962275 0)
(-10.1488 -0.111302 0)
(-9.93984 -0.125087 0)
(-9.70938 -0.138003 0)
(-9.45808 -0.150547 -8.34485e-20)
(-9.18571 -0.163224 0)
(-8.89122 -0.176515 0)
(-8.57265 -0.19079 6.7537e-20)
(-8.22738 -0.206207 6.1308e-20)
(-7.85235 -0.222641 0)
(-7.44492 -0.239578 -4.68707e-20)
(-7.00422 -0.256014 3.84234e-20)
(-6.53235 -0.27041 0)
(-6.03462 -0.281042 -1.86224e-20)
(-5.51821 -0.286417 0)
(-4.99135 -0.286116 0)
(-4.4663 -0.28127 -1.66228e-20)
(-3.94966 -0.272321 0)
(-3.44805 -0.259959 3.68572e-20)
(-2.96676 -0.245192 0)
(-2.50937 -0.228906 -5.29273e-20)
(-2.07824 -0.211841 -5.93875e-20)
(-1.67457 -0.194611 -6.48641e-20)
(-1.29862 -0.17765 -1.38867e-19)
(-0.949903 -0.161209 1.46366e-19)
(-0.627363 -0.145459 0)
(-0.329766 -0.130904 0)
(-0.0581448 -0.117866 0)
(0.189885 -0.105015 1.59755e-19)
(0.417603 -0.0932274 1.57953e-19)
(0.624783 -0.0823479 -1.55866e-19)
(0.812601 -0.0722706 0)
(0.982324 -0.0629304 1.51222e-19)
(1.13507 -0.0542852 1.48806e-19)
(1.27185 -0.0462627 1.46395e-19)
(1.39358 -0.038843 0)
(1.50122 -0.0320542 0)
(1.59559 -0.0257447 0)
(1.67732 -0.019848 1.37354e-19)
(1.74716 -0.0145604 0)
(1.80595 -0.00969707 0)
(1.85437 -0.00490206 -1.31619e-19)
(1.89267 -0.00057977 0)
(1.92159 0.00252567 0)
(1.9427 0.00485324 -1.26897e-19)
(1.9573 0.00752978 0)
(1.96548 0.00943029 0)
(1.96864 0.00869242 1.23112e-19)
(1.96906 0.00816021 1.2202e-19)
(1.96564 0.0109959 0)
(1.95738 0.0123834 -1.20092e-19)
(1.94819 0.00738225 0)
(1.94259 0.00430231 1.1847e-19)
(1.93718 0.0144663 0)
(1.9248 0.0308618 1.17071e-19)
(1.90468 0.0313586 1.1642e-19)
(1.88879 0.00248595 0)
(1.90337 -0.0471879 0)
(1.97705 -0.0925076 0)
(2.13055 -0.122348 0)
(2.35562 -0.119453 0)
(2.54533 -0.0460359 0)
(2.60578 0.0374482 0)
(2.66924 -0.0516795 1.10566e-19)
(2.90356 -0.227865 -1.11989e-19)
(2.8453 -0.0410347 0)
(1.39317 0.507373 0)
(-0.835846 0.75475 0)
(-2.72722 0.671698 0)
(-4.3175 0.555218 -7.91925e-22)
(-5.67931 0.463418 0)
(-6.86044 0.393393 -1.6769e-19)
(-7.88778 0.333175 2.4296e-19)
(-8.76266 0.272164 0)
(-9.46117 0.203133 0)
(-9.94033 0.124965 0)
(-10.1674 0.0405515 -3.83778e-19)
(-10.1165 -0.0444925 -3.65932e-19)
(-9.82026 -0.124311 0)
(-9.2827 -0.194864 -2.73468e-19)
(-8.55756 -0.246927 -1.95723e-19)
(-7.70017 -0.278688 1.12634e-19)
(-6.76943 -0.290901 0)
(-5.81724 -0.287456 0)
(-4.88413 -0.272971 -1.06891e-19)
(-3.99945 -0.252121 0)
(-3.17941 -0.228758 0)
(-2.43134 -0.20548 0)
(-1.75463 -0.184243 0)
(-1.14456 -0.164813 2.61288e-19)
(-0.590932 -0.149823 2.67714e-19)
(-0.0817288 -0.137348 0)
(0.39067 -0.128106 2.62485e-19)
(0.837088 -0.119102 0)
(1.26405 -0.111725 0)
(1.67365 -0.105388 2.28151e-19)
(2.06785 -0.0997721 0)
(2.44821 -0.0944575 2.04551e-19)
(2.81538 -0.0890105 0)
(3.16963 -0.0835323 0)
(3.511 -0.0789708 1.72754e-19)
(3.8444 -0.0756411 0)
(4.17637 -0.0719538 1.55837e-19)
(4.50848 -0.0683016 0)
(4.8419 -0.0701318 0)
(5.18557 -0.0716155 0)
(5.53513 -0.0534162 -1.35727e-19)
(5.83959 -0.0336334 0)
(6.09964 -0.0528063 1.32636e-19)
(6.37348 0.00256022 0)
(6.28421 0.265114 0)
(5.24369 0.467267 0)
(3.69655 0.280958 0)
(2.61872 -0.0542739 0)
(2.17914 -0.215919 0)
(2.17684 -0.18514 0)
(2.35287 -0.0915383 -3.08737e-19)
(2.41165 0.0165112 0)
(2.10045 0.0913665 0)
(0.0648321 1.18985 1.58154e-19)
(0.00616691 0.999469 -1.59825e-19)
(-0.136307 0.820849 0)
(0.54425 -0.274817 1.02855e-19)
(1.28582 -1.29572 0)
(2.04585 -1.98983 3.70249e-20)
(2.78384 -2.34349 -7.43936e-20)
(3.47956 -2.41622 -6.66469e-20)
(4.11134 -2.28653 0)
(4.65919 -2.03106 -6.5225e-20)
(5.11496 -1.70691 -2.6082e-20)
(5.4697 -1.35245 0)
(5.72798 -0.986677 0)
(5.88498 -0.618787 0)
(5.96237 -0.253136 0)
(5.94264 0.114949 -3.33809e-20)
(5.86987 0.475676 0)
(5.68148 0.852355 7.51714e-20)
(5.46206 1.20149 0)
(5.10684 1.58592 0)
(4.73862 1.86984 -6.93649e-20)
(4.2688 2.19261 0)
(3.6312 2.31205 7.57449e-20)
(3.12458 2.09253 -4.22854e-20)
(2.29331 1.65 4.63863e-20)
(1.41576 1.0215 -5.04427e-20)
(1.05864 0.22552 -5.38257e-20)
(0.716687 -0.393799 0)
(0.796243 -0.810889 0)
(1.40964 -1.77319 4.45931e-20)
(1.70972 -2.04565 -4.34215e-20)
(1.84513 -1.5504 0)
(1.83074 -1.64646 0)
(1.52084 -0.76348 4.2594e-20)
(-0.403212 1.19558 0)
(-2.34415 2.1228 0)
(-3.55994 2.52508 -2.80723e-20)
(-4.66381 2.82599 0)
(-5.53731 2.70721 3.15524e-20)
(-6.26838 2.51974 -3.51428e-20)
(-6.9476 2.27424 0)
(-7.56774 2.02821 0)
(-8.12644 1.78784 -1.26346e-19)
(-8.63163 1.5669 -1.38715e-19)
(-9.08089 1.36675 -1.5112e-19)
(-9.48105 1.18662 8.8576e-20)
(-9.83343 1.02447 -8.09883e-20)
(-10.1415 0.877406 -2.71416e-19)
(-10.4069 0.742923 1.93803e-19)
(-10.6314 0.618718 9.66043e-20)
(-10.8163 0.502981 0)
(-10.9625 0.39438 -1.0368e-19)
(-11.0709 0.292035 1.12999e-19)
(-11.1422 0.195528 0)
(-11.1775 0.1048 0)
(-11.178 0.0202355 0)
(-11.1458 -0.0577291 -1.08817e-19)
(-11.0774 -0.129175 0)
(-10.9773 -0.194296 2.14382e-19)
(-10.8462 -0.253035 0)
(-10.6874 -0.305763 2.02987e-19)
(-10.5033 -0.352856 0)
(-10.2963 -0.395084 -1.88889e-19)
(-10.0685 -0.43344 0)
(-9.82131 -0.469202 1.72504e-19)
(-9.55536 -0.503852 -8.31101e-20)
(-9.27043 -0.538965 0)
(-8.96527 -0.576055 -1.43659e-19)
(-8.63765 -0.616345 -6.45709e-20)
(-8.28441 -0.660479 -5.83824e-20)
(-7.90183 -0.708223 0)
(-7.4864 -0.758179 -4.88201e-20)
(-7.03622 -0.807445 -3.59774e-20)
(-6.55266 -0.851439 0)
(-6.04114 -0.884693 1.71956e-20)
(-5.51008 -0.902591 -1.73638e-20)
(-4.96832 -0.903311 0)
(-4.42612 -0.8889 1.62788e-20)
(-3.89514 -0.861986 0)
(-3.38099 -0.825211 -1.06313e-19)
(-2.8891 -0.781199 0)
(-2.42285 -0.732927 1.54655e-19)
(-1.98405 -0.682591 5.85132e-20)
(-1.57346 -0.632017 -6.28042e-20)
(-1.19086 -0.58248 -1.35086e-19)
(-0.835423 -0.534805 1.42926e-19)
(-0.505944 -0.4893 0)
(-0.201606 -0.446355 0)
(0.0780923 -0.407827 0)
(0.33588 -0.370574 -4.69238e-19)
(0.573845 -0.33603 -1.55227e-19)
(0.792296 -0.304061 1.53298e-19)
(0.992518 -0.274441 0)
(1.17583 -0.246958 1.48104e-19)
(1.34336 -0.221408 -1.46579e-19)
(1.49613 -0.197635 -1.44239e-19)
(1.6351 -0.175531 0)
(1.76117 -0.154985 0)
(1.87504 -0.13578 0)
(1.97731 -0.117781 -1.35318e-19)
(2.06862 -0.101082 0)
(2.14943 -0.0857311 2.6241e-19)
(2.22045 -0.0714777 3.8836e-19)
(2.28234 -0.0579989 -2.55416e-19)
(2.33527 -0.0455938 0)
(2.37876 -0.0351983 -1.24516e-19)
(2.41409 -0.0267982 0)
(2.44368 -0.0190484 -2.43942e-19)
(2.46757 -0.0117383 1.20698e-19)
(2.48255 -0.00599625 1.19613e-19)
(2.49078 -0.0017207 0)
(2.49856 0.00211611 3.53266e-19)
(2.50424 0.00487474 -2.33753e-19)
(2.50294 0.00423997 -1.16163e-19)
(2.50317 -0.000415372 0)
(2.52272 -0.00496468 -1.14561e-19)
(2.56299 -0.00324562 -3.41074e-19)
(2.60539 -0.00201562 0)
(2.64022 -0.028024 -2.23727e-19)
(2.69208 -0.0996337 -2.21371e-19)
(2.80856 -0.193436 -2.18804e-19)
(2.9793 -0.217712 0)
(3.14059 -0.123837 0)
(3.35128 -0.0788303 0)
(3.44496 -0.114184 1.07285e-19)
(2.63197 0.300918 1.12078e-19)
(0.605713 1.27867 0)
(-1.75977 1.92584 1.72851e-19)
(-3.52647 1.91037 1.17209e-19)
(-4.79365 1.63452 0)
(-5.82426 1.36311 7.38139e-22)
(-6.7091 1.15166 -2.03141e-19)
(-7.50064 0.990027 1.62156e-19)
(-8.21195 0.848204 2.61799e-19)
(-8.82802 0.700959 0)
(-9.32569 0.526185 0)
(-9.66305 0.317871 0)
(-9.80182 0.0817497 3.96897e-19)
(-9.71672 -0.167224 -4.07332e-19)
(-9.36782 -0.4083 -6.91395e-19)
(-8.78744 -0.620413 2.73049e-19)
(-8.01191 -0.77795 -2.14552e-19)
(-7.11054 -0.872383 -1.11946e-19)
(-6.14206 -0.907819 0)
(-5.16184 -0.895804 0)
(-4.21039 -0.851049 -1.02015e-19)
(-3.31499 -0.787021 0)
(-2.49103 -0.715303 0)
(-1.74508 -0.643754 4.55516e-19)
(-1.07484 -0.578244 0)
(-0.475878 -0.518822 2.5963e-19)
(0.0642783 -0.473933 -2.6703e-19)
(0.555561 -0.436092 0)
(1.01068 -0.407607 2.5137e-19)
(1.43772 -0.383657 0)
(1.84427 -0.363785 0)
(2.23471 -0.346606 -2.22476e-19)
(2.61119 -0.331157 4.19343e-19)
(2.97452 -0.316841 -2.00026e-19)
(3.32548 -0.303267 0)
(3.66636 -0.29071 0)
(4.00044 -0.280504 1.66694e-19)
(4.33073 -0.274583 0)
(4.66107 -0.273129 1.50254e-19)
(4.99958 -0.273914 0)
(5.3523 -0.274761 0)
(5.70771 -0.277529 0)
(6.07007 -0.271781 1.33398e-19)
(6.45621 -0.238687 0)
(6.77885 -0.193237 -1.3051e-19)
(7.03834 -0.114055 0)
(7.3779 0.138642 0)
(7.55372 0.56986 2.57938e-19)
(7.43936 0.868158 -2.42918e-19)
(6.97224 0.796646 0)
(5.90564 0.431226 0)
(4.65207 0.0997431 0)
(3.81237 -0.00446108 8.97751e-19)
(3.33989 0.112051 0)
(2.78585 0.312037 -5.61829e-19)
(0.0317751 0.614567 -5.6546e-22)
(-0.0292418 0.949458 2.11789e-19)
(0.860262 -0.692334 0)
(1.90895 -2.34786 -1.76541e-19)
(2.82306 -3.42819 0)
(3.54963 -3.91861 0)
(4.11338 -3.96373 -1.40639e-20)
(4.54433 -3.7167 5.00324e-20)
(4.86974 -3.30087 6.97857e-20)
(5.1133 -2.80241 5.73577e-20)
(5.29568 -2.27499 0)
(5.42631 -1.74795 0)
(5.5158 -1.2349 -9.22206e-20)
(5.56245 -0.73918 -1.95733e-19)
(5.57723 -0.262343 2.06572e-19)
(5.54556 0.203813 0)
(5.4834 0.660498 1.95195e-19)
(5.38035 1.12067 -7.68695e-20)
(5.2576 1.57137 0)
(5.10109 2.03367 1.64732e-19)
(4.91938 2.44429 6.31681e-20)
(4.72569 2.821 -1.44498e-19)
(4.47036 3.01835 -6.09386e-20)
(4.13672 3.03941 0)
(3.701 2.71905 1.40436e-19)
(3.11019 2.20503 1.54128e-19)
(2.71959 1.40912 0)
(2.29017 0.539598 1.51881e-19)
(2.15113 -0.655853 0)
(2.16533 -1.61773 1.41922e-19)
(1.75973 -1.81051 8.91711e-20)
(0.0943589 0.417573 0)
(-1.8214 2.10596 0)
(-3.08465 2.92154 0)
(-4.34799 3.64584 0)
(-5.2146 3.8527 0)
(-5.93434 3.9264 0)
(-6.48765 3.89243 9.97574e-20)
(-6.92008 3.69274 -1.43289e-19)
(-7.31912 3.42155 0)
(-7.6928 3.10354 0)
(-8.07125 2.78391 0)
(-8.43984 2.47692 -2.46649e-20)
(-8.80224 2.19229 1.31095e-19)
(-9.14708 1.9312 3.0984e-19)
(-9.4716 1.69248 -3.34276e-19)
(-9.77066 1.4734 -1.86634e-19)
(-10.0415 1.27092 1.81963e-19)
(-10.2817 1.08204 1.32715e-20)
(-10.4895 0.90423 2.13487e-19)
(-10.6634 0.735493 0)
(-10.8022 0.574456 2.26441e-19)
(-10.905 0.420337 1.01407e-20)
(-10.9714 0.27291 0)
(-11.0013 0.1323 0)
(-10.9953 -0.00118017 -2.36836e-19)
(-10.9545 -0.126426 0)
(-10.8809 -0.24218 0)
(-10.7767 -0.347687 2.28859e-19)
(-10.6442 -0.442845 4.31656e-19)
(-10.4862 -0.527737 -2.0332e-19)
(-10.3052 -0.603124 0)
(-10.1037 -0.670167 1.88285e-19)
(-9.88398 -0.730586 0)
(-9.64737 -0.786568 1.79285e-19)
(-9.39458 -0.840706 1.61545e-19)
(-9.12519 -0.895845 -3.11911e-19)
(-8.83749 -0.954793 -1.50565e-19)
(-8.52842 -1.01994 0)
(-8.19353 -1.09276 2.46205e-19)
(-7.82736 -1.17317 0)
(-7.42418 -1.25888 2.81705e-19)
(-6.97966 -1.34482 1.61731e-19)
(-6.49322 -1.42298 1.27073e-19)
(-5.97045 -1.48354 -8.86944e-20)
(-5.42256 -1.51767 6.28065e-20)
(-4.86242 -1.52056 0)
(-4.30055 -1.49391 0)
(-3.75301 -1.44541 9.0641e-20)
(-3.22703 -1.38015 1.99457e-19)
(-2.72771 -1.30302 0)
(-2.25853 -1.21965 -1.01142e-19)
(-1.81992 -1.13361 0)
(-1.41215 -1.04797 3.71823e-19)
(-1.03402 -0.964605 3.72206e-21)
(-0.684096 -0.884837 -3.36858e-21)
(-0.360188 -0.80946 -2.94693e-19)
(-0.062368 -0.739493 0)
(0.210903 -0.674476 3.05763e-19)
(0.463296 -0.61342 2.23877e-21)
(0.695528 -0.556919 0)
(0.90879 -0.504689 0)
(1.10444 -0.45644 0)
(1.28378 -0.41185 -2.93094e-19)
(1.44803 -0.370539 0)
(1.59826 -0.332234 0)
(1.73547 -0.296751 0)
(1.86058 -0.263858 0)
(1.97442 -0.233139 0)
(2.07768 -0.204274 -2.6715e-19)
(2.17092 -0.177376 0)
(2.25474 -0.152549 -2.60332e-19)
(2.32981 -0.129331 -2.56831e-19)
(2.39652 -0.107167 2.53529e-19)
(2.45491 -0.086249 0)
(2.50492 -0.0675687 2.47519e-19)
(2.547 -0.0518184 0)
(2.58169 -0.0382296 2.423e-19)
(2.60905 -0.0251677 -2.40015e-19)
(2.62807 -0.0128976 -7.13216e-19)
(2.63904 -0.00390072 0)
(2.6447 0.00145728 -7.01963e-19)
(2.64743 0.00482337 -2.32058e-19)
(2.64682 0.00368688 0)
(2.64413 -0.00706164 -4.58942e-19)
(2.64738 -0.0235219 -4.56058e-19)
(2.65988 -0.0336758 6.79984e-19)
(2.67282 -0.0437133 0)
(2.68897 -0.0925325 2.22956e-19)
(2.7425 -0.210788 2.2013e-19)
(2.86299 -0.353083 6.50519e-19)
(3.03231 -0.40892 0)
(3.21894 -0.332956 0)
(3.25543 -0.110237 0)
(2.55964 0.51454 2.09983e-19)
(0.753166 1.66953 0)
(-1.43824 2.75135 0)
(-2.96732 3.066 -1.60782e-19)
(-3.82996 2.76996 -1.13021e-19)
(-4.50153 2.33796 0)
(-5.16147 1.98088 0)
(-5.86548 1.72411 2.04057e-19)
(-6.60837 1.53143 0)
(-7.35798 1.35161 -5.05773e-19)
(-8.06411 1.14218 -6.69657e-19)
(-8.66357 0.875618 0)
(-9.08941 0.54164 0)
(-9.28076 0.150279 9.19237e-19)
(-9.20185 -0.272815 -5.53258e-20)
(-8.84468 -0.689696 -4.98231e-20)
(-8.23215 -1.05389 0)
(-7.41085 -1.32358 8.46303e-19)
(-6.45649 -1.48109 0)
(-5.43892 -1.53625 0)
(-4.41714 -1.50942 0)
(-3.43277 -1.42695 2.07646e-19)
(-2.51349 -1.31191 0)
(-1.67418 -1.18391 -7.81273e-19)
(-0.921924 -1.05551 -4.57475e-19)
(-0.25217 -0.936669 0)
(0.334218 -0.836601 -5.17063e-19)
(0.848759 -0.753276 0)
(1.31006 -0.687687 0)
(1.72531 -0.637135 -1.45863e-18)
(2.1062 -0.597857 9.32989e-19)
(2.46262 -0.566375 0)
(2.80109 -0.539617 8.52197e-19)
(3.12538 -0.515458 -4.09793e-19)
(3.43725 -0.492811 0)
(3.73825 -0.471662 0)
(4.03059 -0.453112 0)
(4.31703 -0.439211 -9.84348e-19)
(4.60117 -0.431328 0)
(4.88857 -0.429651 -2.99407e-19)
(5.18398 -0.433922 0)
(5.49448 -0.440996 0)
(5.82466 -0.446361 0)
(6.16048 -0.441411 0)
(6.50446 -0.400745 0)
(6.86593 -0.32493 0)
(7.1597 -0.224822 -5.02813e-19)
(7.4067 0.0146596 0)
(7.77227 0.443742 -2.56989e-19)
(8.22734 0.81461 6.99079e-19)
(8.43086 0.946015 0)
(7.97091 0.899403 0)
(6.83808 0.718432 -5.18263e-19)
(5.4644 0.501522 -5.70102e-19)
(4.33958 0.461885 5.82151e-19)
(3.44023 0.633594 5.4394e-19)
(-0.186643 1.09737 -3.15421e-19)
(0.830816 -1.17562 -2.89581e-19)
(1.96418 -3.36824 -1.73626e-19)
(2.89639 -4.57789 -7.74885e-20)
(3.52093 -4.95049 0)
(3.87103 -4.80468 1.40431e-19)
(4.05871 -4.3916 -9.05208e-20)
(4.17531 -3.86252 0)
(4.26527 -3.29268 -7.50428e-20)
(4.34274 -2.71644 0)
(4.41014 -2.14733 2.19864e-19)
(4.46207 -1.58968 0)
(4.49477 -1.04594 1.10406e-19)
(4.50265 -0.515064 2.39375e-19)
(4.48793 0.00163558 -2.58156e-19)
(4.45149 0.507996 0)
(4.39542 1.00069 -2.35957e-19)
(4.32722 1.47866 0)
(4.24668 1.93729 0)
(4.1716 2.38152 -1.89195e-19)
(4.06387 2.78904 0)
(3.95103 3.14087 -2.06586e-20)
(3.78658 3.43447 0)
(3.60605 3.48275 0)
(3.32353 3.29947 1.45028e-21)
(2.8986 2.85186 -1.49813e-19)
(2.50808 1.97216 -1.32824e-19)
(1.89998 1.26549 -1.53016e-19)
(1.81584 -0.93337 0)
(0.442118 -0.325157 -2.85568e-19)
(-1.64146 2.01647 0)
(-3.06311 3.2238 -1.17207e-19)
(-4.30903 4.04701 0)
(-5.13496 4.47577 0)
(-5.80312 4.72254 9.72994e-20)
(-6.25225 4.72391 0)
(-6.65534 4.63263 -1.05987e-19)
(-6.97951 4.45935 2.15949e-20)
(-7.28805 4.2142 2.17771e-19)
(-7.58263 3.92835 -2.5936e-19)
(-7.87044 3.61546 0)
(-8.15734 3.2966 0)
(-8.43663 2.98069 -1.85538e-19)
(-8.70842 2.67603 0)
(-8.96763 2.3855 -1.63442e-19)
(-9.2121 2.11025 1.76174e-19)
(-9.4391 1.84952 1.88416e-19)
(-9.64631 1.60176 0)
(-9.8316 1.36513 -2.10652e-19)
(-9.99264 1.13791 -2.20384e-19)
(-10.1273 0.918801 4.8743e-19)
(-10.2336 0.707073 -2.36637e-19)
(-10.3099 0.502746 -2.43028e-19)
(-10.355 0.306483 0)
(-10.3686 0.11873 0)
(-10.3508 -0.0600902 2.50685e-19)
(-10.3033 -0.2263 0)
(-10.228 -0.379957 0)
(-10.1278 -0.519789 -4.668e-19)
(-10.0052 -0.645574 -4.51868e-19)
(-9.86343 -0.757361 0)
(-9.70519 -0.856012 0)
(-9.53303 -0.943121 0)
(-9.34889 -1.02105 0)
(-9.15396 -1.09295 -3.59411e-19)
(-8.94843 -1.16268 3.48487e-19)
(-8.73118 -1.23469 3.1612e-19)
(-8.49948 -1.31355 5.98399e-19)
(-8.24873 -1.40348 0)
(-7.97214 -1.50748 1.62206e-20)
(-7.66079 -1.6262 0)
(-7.30436 -1.75654 -1.8639e-19)
(-6.89322 -1.89041 2.21857e-20)
(-6.42246 -2.01455 -1.20263e-19)
(-5.89646 -2.11245 8.3257e-20)
(-5.33024 -2.16954 2.03626e-20)
(-4.7451 -2.178 0)
(-4.16002 -2.13817 -2.94453e-20)
(-3.58454 -2.06019 -8.91454e-20)
(-3.04091 -1.95984 -2.46221e-19)
(-2.52875 -1.84295 0)
(-2.05361 -1.71894 1.86906e-19)
(-1.61364 -1.59311 0)
(-1.20805 -1.46961 -4.82611e-19)
(-0.834491 -1.35074 2.63598e-19)
(-0.490675 -1.23799 -2.79688e-19)
(-0.174333 -1.13215 2.92656e-19)
(0.116047 -1.03478 5.898e-19)
(0.382855 -0.943447 -2.99399e-19)
(0.628556 -0.858828 2.98563e-19)
(0.854199 -0.780715 0)
(1.06127 -0.708656 -5.83182e-19)
(1.25119 -0.642214 0)
(1.42525 -0.580951 -5.71008e-19)
(1.58466 -0.524369 5.64005e-19)