/*--------------------------------*- C++ -*----------------------------------*\
| =========                 |                                                 |
| \\      /  F ield         | OpenFOAM: The Open Source CFD Toolbox           |
|  \\    /   O peration     | Version:  2112                                  |
|   \\  /    A nd           | Website:  www.openfoam.com                      |
|    \\/     M anipulation  |                                                 |
\*---------------------------------------------------------------------------*/
FoamFile
{
    version     2.0;
    format      ascii;
    arch        "LSB;label=32;scalar=64";
    class       volScalarField;
    location    "0.054";
    object      s;
}
// * * * * * * * * * * * * * * * * * * * * * * * * * * * * * * * * * * * * * //

dimensions      [0 0 0 0 0 0 0];

internalField   nonuniform List<scalar> 
12225
(
1
1
1
1
1
1
1
1
1
1
1
1
1
1
1
1
1
1
1
1
1
1
1
1
1
1
1
1
1
1
1
1
1
1
1
1
1
1
1
1
1
1
1
1
1
1
1
1
1
1
1
1
1
1
1
1
1
1
1
1
1
1
1
1
1
1
1
1
1
1
1
1
1
1
1
1
1
1
1
1
1
1
1
1
1
1
1
1
1
1
1
1
1
1
1
1
1
1
1
1
1
1
1
1
1
1
1
1
1
1
1
1
1
1
1
1
1
1
1
1
1
1
1
1
1
1
1
1
1
1
1
1
1
1
1
1
1
1
1
1
1
1
1
1
1
1
1
1
1
1
1
1
1
1
1
1
1
1
1
1
1
1
1
1
1
1
1
1
1
1
1
1
1
1
1
1
1
1
1
1
1
1
1
1
1
1
1
1
1
1
1
1
1
1
1
1
1
1
1
1
1
1
1
1
1
1
1
1
1
1
1
1
1
1
1
1
1
1
1
1
1
1
1
1
1
1
1
1
1
1
1
1
1
1
1
1
1
1
1
1
1
1
1
1
1
1
1
1
1
1
1
1
1
1
1
1
1
1
1
1
1
1
1
1
1
1
1
1
1
1
1
1
1
1
1
1
1
1
1
1
1
1
1
1
1
1
1
1
1
1
1
1
1
1
1
1
1
1
1
1
1
1
1
1
1
1
1
1
1
1
1
1
1
1
1
1
1
1
1
1
1
1
1
1
1
1
1
1
1
1
1
1
1
1
1
1
1
1
1
1
1
1
1
1
1
1
1
1
1
1
1
1
1
1
1
1
1
1
1
1
1
1
1
1
1
1
1
1
1
1
1
1
1
1
1
1
1
1
1
1
1
1
1
1
1
1
1
1
1
1
1
1
1
1
1
1
1
1
1
1
1
1
1
1
1
1
1
1
1
1
1
1
1
1
1
1
1
1
1
1
1
1
1
1
1
1
1
1
1
1
1
1
1
1
1
1
1
1
1
1
1
1
1
1
1
1
1
1
1
1
1
1
1
1
1
1
1
1
1
1
1
1
1
1
1
1
1
1
1
1
1
1
1
1
1
1
1
1
1
1
1
1
1
1
1
1
1
1
1
1
1
1
1
1
1
1
1
1
1
1
1
1
1
1
1
1
1
1
1
1
1
1
1
1
1
1
1
1
1
1
1
1
1
1
1
1
1
1
1
1
1
1
1
1
1
1
1
1
1
1
0.662697
0.661278
0.661791
0.662932
0.662353
0.6627
0.667025
0.676818
0.683982
0.689353
0.696601
0.703985
0.708042
0.710742
0.715804
0.721438
0.726076
0.728298
0.728494
0.726772
0.720725
0.711272
0.69272
0.664291
0.629309
0.591738
0.557018
0.529615
0.519074
0.519621
0.535387
0.581652
0.644356
0.662724
0.665762
0.666028
0.665344
0.662507
0.656146
0.645481
0.634498
0.631526
0.631134
0.631319
0.631927
0.632558
0.632756
0.632775
0.632523
0.631974
0.631737
0.631688
0.631994
0.632061
0.63204
0.633144
0.63417
0.636174
0.638389
0.642173
0.646367
0.650915
0.655246
0.658871
0.661555
0.664158
0.668815
0.680041
0.701226
0.719257
0.726752
0.727923
0.72761
0.727656
0.732258
0.762705
0.829861
0.860053
0.861585
0.849101
0.840387
0.839367
0.84027
0.842844
0.846926
0.851596
0.853163
0.853204
0.852365
0.850274
0.847318
0.844193
0.841104
0.837751
0.833995
0.830026
0.826033
0.822163
0.818571
0.815237
0.812014
0.808896
0.806382
0.804686
0.80327
0.802431
0.801817
0.801635
0.80186
0.802993
0.804097
0.806017
0.807933
0.810206
0.813149
0.816169
0.819615
0.82311
0.82661
0.829568
0.831932
0.833703
0.835055
0.836165
0.836925
0.837598
0.838265
0.839047
0.840051
0.841341
0.842917
0.844707
0.846709
0.848946
0.851238
0.853157
0.854631
0.856682
0.861476
0.872571
0.883565
0.892127
0.897982
0.901663
0.904145
0.906178
0.907819
0.908836
0.909348
0.909908
0.911203
0.913802
0.916221
0.9177
0.918191
0.918172
0.917599
0.915171
0.907386
0.891893
0.877504
0.869729
0.865383
0.860489
0.855707
0.851814
0.846639
0.836248
0.811881
0.742518
0.562673
0.364629
0.207969
0.10475
0.0472747
0.0194265
0.00735726
0.00254147
0.000983328
-0.0260522
0.702724
0.704937
0.698665
0.6921
0.68359
0.674541
0.66997
0.668478
0.6688
0.673076
0.678199
0.682547
0.69211
0.703226
0.712729
0.719847
0.724415
0.726728
0.726499
0.714631
0.628637
0.525551
0.497917
0.484332
0.466378
0.453146
0.449265
0.44969
0.465299
0.508048
0.575967
0.635036
0.65195
0.655009
0.654319
0.649572
0.642165
0.633965
0.62715
0.626149
0.629451
0.637841
0.648874
0.660355
0.672358
0.681683
0.68511
0.68584
0.683164
0.673952
0.664571
0.65587
0.648313
0.643007
0.638173
0.632411
0.625751
0.619333
0.614186
0.609955
0.606857
0.605559
0.605677
0.607807
0.612945
0.616636
0.619558
0.625162
0.643218
0.703478
0.739194
0.742316
0.736139
0.733106
0.740838
0.802269
0.850612
0.850106
0.843465
0.841467
0.841626
0.844648
0.85012
0.852337
0.853025
0.853008
0.851307
0.848939
0.84516
0.838098
0.828115
0.815334
0.798903
0.783286
0.773914
0.765005
0.755711
0.750811
0.746887
0.742552
0.740532
0.739466
0.739084
0.73906
0.740512
0.742235
0.74399
0.74636
0.748364
0.749991
0.75065
0.750575
0.749086
0.746299
0.744275
0.742378
0.740732
0.739659
0.739303
0.740449
0.742466
0.744817
0.747486
0.750259
0.752848
0.75546
0.758154
0.761049
0.764287
0.768078
0.772727
0.778513
0.785367
0.79365
0.804642
0.818738
0.832772
0.840524
0.841229
0.836448
0.832183
0.832729
0.839932
0.865623
0.885121
0.895364
0.900693
0.903658
0.906139
0.908936
0.911548
0.913156
0.913492
0.913128
0.911703
0.91098
0.911033
0.912579
0.918436
0.920666
0.920556
0.919404
0.917956
0.916395
0.912735
0.905451
0.896287
0.888159
0.88329
0.879756
0.872076
0.85983
0.831947
0.785902
0.729488
0.694086
0.675409
0.647974
0.61352
0.522193
0.750048
0.737211
0.714962
0.707845
0.704408
0.695845
0.692422
0.687227
0.685495
0.685553
0.685949
0.687596
0.695221
0.708411
0.716325
0.720173
0.719294
0.696702
0.59284
0.493575
0.44689
0.435271
0.431148
0.42759
0.426076
0.42627
0.431867
0.446813
0.474919
0.52826
0.606304
0.64497
0.655967
0.659804
0.662258
0.667316
0.678225
0.69717
0.72516
0.75634
0.791295
0.826931
0.858537
0.88353
0.901189
0.908956
0.911382
0.911035
0.902834
0.883068
0.855703
0.828052
0.805397
0.788572
0.775671
0.753462
0.725764
0.698359
0.677234
0.658494
0.638133
0.621507
0.611208
0.60627
0.604782
0.604795
0.605976
0.610135
0.622625
0.679818
0.753502
0.764289
0.757901
0.765164
0.818835
0.846306
0.846049
0.842316
0.843601
0.845021
0.851886
0.856075
0.856994
0.856744
0.853421
0.849306
0.844203
0.834173
0.81846
0.791793
0.765855
0.753551
0.74405
0.738814
0.736237
0.733836
0.731464
0.729377
0.725243
0.720167
0.716429
0.712267
0.709357
0.708412
0.710184
0.715036
0.721636
0.730515
0.738872
0.748074
0.75663
0.76441
0.77011
0.773993
0.772456
0.766436
0.757126
0.745586
0.735208
0.727775
0.723905
0.721751
0.721103
0.721654
0.723457
0.725861
0.728749
0.731911
0.735122
0.738299
0.741601
0.74528
0.74932
0.753381
0.756896
0.761017
0.769065
0.791467
0.830248
0.85545
0.860455
0.856414
0.834287
0.820997
0.821605
0.835612
0.867581
0.883482
0.890557
0.893743
0.896366
0.901114
0.908156
0.914571
0.917787
0.918406
0.917751
0.914174
0.911912
0.911935
0.913817
0.921724
0.932735
0.941218
0.946912
0.949679
0.950322
0.949852
0.945975
0.931498
0.915677
0.906876
0.899829
0.89601
0.890804
0.885927
0.874977
0.860106
0.850508
0.821447
0.737793
0.695746
0.664715
0.659416
0.656966
0.646489
0.646817
0.645602
0.646386
0.654106
0.67563
0.68918
0.699917
0.706204
0.70105
0.667778
0.581912
0.498773
0.453254
0.439628
0.43527
0.434563
0.434548
0.435563
0.438619
0.444396
0.456178
0.479341
0.518878
0.577031
0.64268
0.67606
0.691328
0.713896
0.757105
0.816119
0.873196
0.912232
0.936076
0.957301
0.970119
0.976675
0.983331
0.986386
0.987744
0.988234
0.988265
0.986949
0.983237
0.977375
0.968837
0.957983
0.948474
0.94245
0.935432
0.912085
0.859902
0.805349
0.770325
0.747897
0.706412
0.659664
0.629732
0.61447
0.608815
0.607806
0.608544
0.61313
0.63249
0.71613
0.795569
0.813219
0.818248
0.833397
0.843003
0.84328
0.840407
0.843777
0.848939
0.858373
0.862484
0.863146
0.862081
0.857363
0.850376
0.841338
0.827011
0.799843
0.765075
0.749231
0.739846
0.734869
0.732268
0.729869
0.725913
0.718516
0.708259
0.692543
0.67155
0.650261
0.635418
0.627645
0.624076
0.62256
0.622145
0.624172
0.628997
0.638395
0.65245
0.672717
0.697309
0.726078
0.75574
0.779881
0.795692
0.805628
0.811401
0.813644
0.810167
0.800106
0.785879
0.771784
0.759671
0.750423
0.744255
0.741183
0.740428
0.740689
0.741845
0.743256
0.744957
0.747032
0.7498
0.753588
0.757996
0.761331
0.762117
0.761686
0.762601
0.773959
0.825057
0.859329
0.863173
0.857085
0.831321
0.812821
0.81111
0.8173
0.832941
0.8389
0.839415
0.839768
0.843592
0.860251
0.884895
0.90505
0.917512
0.922026
0.921984
0.918002
0.914872
0.915086
0.918504
0.930308
0.94281
0.951853
0.95688
0.958634
0.958711
0.957301
0.949124
0.932258
0.921854
0.91775
0.916954
0.917141
0.917051
0.916147
0.912809
0.898388
0.710688
0.640579
0.607164
0.581737
0.569706
0.557377
0.555875
0.573262
0.589806
0.615828
0.641351
0.652821
0.647527
0.615008
0.554412
0.496888
0.467332
0.455178
0.451013
0.449832
0.459784
0.473902
0.491909
0.510984
0.532137
0.555016
0.58657
0.6287
0.678925
0.738178
0.791982
0.845953
0.897109
0.945237
0.973868
0.986156
0.991531
0.993831
0.99489
0.996056
0.996609
0.997297
0.997626
0.998097
0.998342
0.998502
0.998573
0.998568
0.998328
0.997915
0.997208
0.996259
0.995174
0.994068
0.992092
0.984509
0.948505
0.874191
0.817134
0.790794
0.772762
0.727484
0.666163
0.629507
0.615499
0.613407
0.61769
0.649638
0.75929
0.829367
0.84415
0.84171
0.840466
0.841188
0.840627
0.838221
0.841073
0.849381
0.861674
0.869535
0.870969
0.870352
0.86592
0.856496
0.843894
0.827025
0.798893
0.760675
0.743186
0.735292
0.731352
0.728944
0.725838
0.718091
0.703006
0.674807
0.631239
0.609835
0.601118
0.598354
0.598002
0.601854
0.605823
0.606996
0.605917
0.602644
0.601042
0.600979
0.603833
0.608522
0.617035
0.630264
0.651932
0.68846
0.736249
0.775515
0.802906
0.818688
0.826635
0.830488
0.83181
0.830868
0.826998
0.821512
0.814479
0.805825
0.796645
0.788649
0.781835
0.776212
0.771872
0.768546
0.766296
0.765665
0.766644
0.771838
0.777823
0.77963
0.775644
0.766419
0.767196
0.784103
0.838628
0.863279
0.862078
0.841802
0.814185
0.796175
0.789085
0.787106
0.785733
0.78538
0.787564
0.797752
0.821975
0.854139
0.887458
0.912266
0.923281
0.924974
0.922724
0.915783
0.913345
0.913837
0.918623
0.933546
0.946772
0.954921
0.95864
0.959343
0.958496
0.952227
0.937342
0.929046
0.926751
0.927044
0.930279
0.93315
0.933229
0.929234
0.702312
0.619802
0.584822
0.550326
0.536379
0.5252
0.519584
0.520445
0.529698
0.537377
0.541329
0.537461
0.519825
0.499809
0.481837
0.473247
0.470683
0.476263
0.498188
0.539076
0.604699
0.659883
0.714022
0.755187
0.791341
0.824094
0.850962
0.882865
0.911171
0.937012
0.961767
0.978049
0.988956
0.993764
0.995549
0.995993
0.996029
0.995961
0.996011
0.996105
0.996457
0.996814
0.997309
0.997869
0.998338
0.998699
0.998993
0.9993
0.999479
0.999608
0.999674
0.999692
0.999633
0.999462
0.998885
0.996021
0.972391
0.894856
0.827149
0.791717
0.780168
0.761133
0.711206
0.659872
0.635386
0.6322
0.652823
0.762112
0.841584
0.855245
0.849791
0.844099
0.840735
0.837615
0.834855
0.835396
0.843564
0.85638
0.872867
0.878183
0.878844
0.877006
0.869618
0.855967
0.836728
0.810102
0.770548
0.744473
0.734845
0.730498
0.727957
0.723893
0.713928
0.690803
0.643485
0.611037
0.601144
0.599284
0.603535
0.618728
0.645383
0.674213
0.687149
0.691464
0.680113
0.658395
0.630642
0.616604
0.610181
0.608319
0.611369
0.617087
0.627019
0.642809
0.671541
0.714338
0.753362
0.78566
0.80982
0.82505
0.832823
0.835983
0.836922
0.836975
0.836514
0.834994
0.830933
0.824221
0.817265
0.810672
0.804561
0.799225
0.79369
0.787073
0.781412
0.779357
0.78056
0.789439
0.795683
0.794032
0.77994
0.774647
0.78201
0.825631
0.860392
0.864238
0.850153
0.811836
0.790809
0.77793
0.772345
0.771637
0.774451
0.78467
0.798312
0.823183
0.858052
0.892674
0.917637
0.928423
0.929748
0.926744
0.91757
0.912957
0.91232
0.913526
0.920825
0.938362
0.951286
0.957762
0.959273
0.958456
0.951697
0.937958
0.931288
0.929853
0.930508
0.934819
0.938645
0.93845
0.69144
0.600688
0.558857
0.530894
0.518623
0.511451
0.50802
0.506624
0.505915
0.505419
0.503785
0.501101
0.496779
0.493938
0.491878
0.504599
0.538876
0.607484
0.686237
0.767937
0.820441
0.865445
0.893626
0.918551
0.935747
0.951473
0.962882
0.973036
0.981615
0.986195
0.989566
0.990847
0.991229
0.991083
0.98973
0.98888
0.988271
0.987852
0.987704
0.987829
0.988483
0.989449
0.990997
0.992832
0.994533
0.995959
0.997187
0.998227
0.998953
0.999457
0.999704
0.999821
0.999868
0.999882
0.999768
0.998834
0.988723
0.928962
0.839895
0.7912
0.776078
0.761011
0.717873
0.670208
0.649232
0.653717
0.731017
0.837146
0.861419
0.85622
0.848583
0.841572
0.834801
0.830864
0.830281
0.835606
0.846957
0.866833
0.883733
0.887336
0.887306
0.883816
0.874082
0.856903
0.831634
0.795063
0.754767
0.738206
0.732015
0.729062
0.725857
0.717381
0.694978
0.647778
0.614083
0.605507
0.605118
0.618936
0.663117
0.742898
0.789711
0.806854
0.812019
0.811802
0.800332
0.78094
0.741502
0.685507
0.653706
0.640202
0.633726
0.630659
0.632387
0.642424
0.664768
0.704248
0.741692
0.771887
0.794778
0.811562
0.823263
0.830672
0.834575
0.836112
0.836414
0.836203
0.834676
0.829462
0.823286
0.818084
0.813568
0.809512
0.806395
0.803884
0.800372
0.796007
0.793566
0.793807
0.801369
0.80957
0.808304
0.792704
0.783188
0.787097
0.821286
0.860194
0.867142
0.857809
0.818687
0.788308
0.775637
0.773046
0.774583
0.784747
0.817199
0.84398
0.864801
0.889258
0.913758
0.929901
0.935392
0.935305
0.930309
0.919448
0.915167
0.914834
0.91631
0.924563
0.942837
0.954972
0.960066
0.960755
0.959184
0.94972
0.936185
0.929937
0.928694
0.929565
0.934768
0.938631
0.684133
0.588245
0.547869
0.525589
0.51606
0.511447
0.508289
0.506653
0.505826
0.505617
0.506057
0.50868
0.515306
0.533563
0.572271
0.650161
0.733496
0.808153
0.861356
0.902667
0.93261
0.951978
0.963812
0.973683
0.978584
0.983159
0.985452
0.986719
0.987224
0.987325
0.987201
0.986146
0.98508
0.984275
0.983894
0.983596
0.983269
0.982931
0.982524
0.982236
0.982105
0.982094
0.982466
0.98343
0.985484
0.988545
0.992153
0.994683
0.996719
0.998269
0.999183
0.99963
0.999837
0.999907
0.999923
0.99978
0.998235
0.983128
0.885273
0.801968
0.772374
0.75658
0.710731
0.671967
0.663397
0.692228
0.808345
0.862912
0.862925
0.854289
0.842812
0.832087
0.82698
0.825736
0.827424
0.836283
0.854578
0.88076
0.894403
0.89762
0.896979
0.890814
0.878852
0.860854
0.832776
0.787472
0.747218
0.734793
0.73102
0.729134
0.725041
0.710194
0.67387
0.628152
0.612353
0.609922
0.625955
0.690005
0.79035
0.827051
0.839266
0.841637
0.839898
0.834624
0.828071
0.818091
0.797875
0.754228
0.696296
0.670825
0.662366
0.662619
0.663872
0.670273
0.684907
0.717594
0.75226
0.778506
0.797379
0.811304
0.821491
0.828151
0.831711
0.833035
0.833105
0.832452
0.830022
0.825501
0.821196
0.817512
0.814312
0.811604
0.809659
0.808576
0.807745
0.806266
0.80487
0.804513
0.806008
0.8172
0.823667
0.821108
0.800795
0.788805
0.791892
0.823208
0.863714
0.874076
0.86785
0.834646
0.797795
0.786358
0.786405
0.79419
0.825849
0.869233
0.90075
0.922899
0.938288
0.94661
0.948767
0.948528
0.946454
0.93722
0.926835
0.92415
0.924629
0.928474
0.941625
0.955038
0.961978
0.963822
0.963424
0.959226
0.94448
0.932261
0.927056
0.926249
0.927818
0.934438
0.681994
0.585752
0.54769
0.531337
0.523301
0.519025
0.517093
0.516571
0.519203
0.525733
0.539177
0.56476
0.613453
0.681211
0.759654
0.816627
0.871033
0.913548
0.943674
0.95974
0.973425
0.979723
0.983446
0.985441
0.986278
0.986575
0.98647
0.986298
0.985592
0.984829
0.984219
0.983949
0.983738
0.983646
0.983602
0.983579
0.983519
0.983407
0.983051
0.982493
0.98182
0.981274
0.980834
0.980592
0.980465
0.981046
0.983044
0.987818
0.99219
0.995487
0.997857
0.999025
0.999604
0.999855
0.999934
0.999942
0.999676
0.99607
0.950432
0.832401
0.772356
0.755236
0.706757
0.674897
0.678361
0.748471
0.847399
0.868431
0.861607
0.84835
0.831231
0.823344
0.820753
0.820407
0.824081
0.835163
0.854539
0.887752
0.905059
0.906382
0.905737
0.899671
0.886566
0.866315
0.837633
0.790241
0.745714
0.733922
0.730811
0.729607
0.726241
0.712315
0.675643
0.629224
0.616032
0.620879
0.665157
0.774772
0.830981
0.847513
0.851069
0.850711
0.842507
0.837069
0.831059
0.823843
0.811159
0.778052
0.715067
0.68266
0.672201
0.674561
0.685494
0.710303
0.742283
0.776312
0.803681
0.819421
0.826842
0.829162
0.831026
0.833082
0.834165
0.83405
0.833672
0.832227
0.826762
0.818413
0.811995
0.808348
0.807471
0.807729
0.808442
0.80899
0.810053
0.811243
0.811392
0.811413
0.812268
0.820383
0.835714
0.838097
0.831903
0.803561
0.79195
0.79568
0.828892
0.870815
0.885618
0.882028
0.859192
0.835814
0.834395
0.840573
0.866549
0.902987
0.930363
0.949446
0.960481
0.964785
0.965334
0.964828
0.962704
0.955283
0.948455
0.946826
0.94716
0.948993
0.955157
0.962681
0.967016
0.968302
0.968132
0.965897
0.955049
0.938004
0.928996
0.926337
0.9266
0.930403
0.681192
0.589798
0.560298
0.549273
0.545162
0.544037
0.548026
0.557353
0.576396
0.609802
0.657195
0.711247
0.767576
0.821065
0.870744
0.909884
0.937866
0.960617
0.974098
0.980572
0.984538
0.98611
0.986704
0.986808
0.986434
0.986025
0.98515
0.984199
0.983389
0.982752
0.982413
0.982279
0.982255
0.982498
0.982855
0.983349
0.983808
0.984418
0.984697
0.984823
0.984786
0.984083
0.982752
0.981158
0.980088
0.979499
0.979179
0.980213
0.984534
0.99064
0.995308
0.997895
0.999129
0.999679
0.9999
0.999958
0.999941
0.999215
0.987834
0.888675
0.785078
0.75706
0.721043
0.683537
0.690059
0.775727
0.858798
0.870522
0.858294
0.836581
0.822696
0.817746
0.81587
0.815638
0.819695
0.831309
0.851191
0.885028
0.908322
0.917161
0.913777
0.908336
0.896067
0.876881
0.846814
0.799053
0.747662
0.731345
0.730073
0.730167
0.730504
0.718514
0.685499
0.636747
0.624622
0.637468
0.703591
0.805015
0.844308
0.854949
0.857209
0.855693
0.84349
0.832787
0.826425
0.822208
0.812859
0.784824
0.72258
0.688291
0.679798
0.682396
0.697183
0.736547
0.792278
0.827623
0.843965
0.851937
0.855508
0.855602
0.854493
0.850949
0.847252
0.844601
0.8425
0.839368
0.831549
0.820399
0.811305
0.804861
0.80096
0.799487
0.799673
0.801705
0.806818
0.813164
0.817766
0.81975
0.821634
0.827076
0.844842
0.853358
0.852426
0.836439
0.801999
0.793266
0.798829
0.837994
0.880349
0.902375
0.902403
0.899053
0.899902
0.905069
0.921052
0.941718
0.958248
0.969918
0.976431
0.978732
0.978891
0.978117
0.97441
0.96822
0.965188
0.964828
0.965399
0.967885
0.971052
0.973029
0.973861
0.973962
0.97366
0.971933
0.964648
0.946452
0.933578
0.928497
0.928122
0.930387
0.681889
0.607138
0.590579
0.587185
0.602053
0.621183
0.632402
0.661782
0.698157
0.738332
0.778236
0.824989
0.861481
0.899576
0.929366
0.953218
0.969127
0.978556
0.983908
0.986044
0.986878
0.987045
0.986721
0.986236
0.985092
0.983583
0.981797
0.980032
0.978344
0.976605
0.974844
0.973579
0.972924
0.972735
0.974301
0.976562
0.978746
0.981733
0.983646
0.984901
0.985423
0.985584
0.985518
0.984747
0.982621
0.979862
0.978515
0.977719
0.978214
0.983454
0.99075
0.995944
0.998351
0.999385
0.999793
0.999945
0.999975
0.999892
0.997658
0.965187
0.83042
0.758985
0.734513
0.694395
0.697001
0.774972
0.858051
0.871195
0.859204
0.835271
0.819213
0.813663
0.812552
0.811967
0.814745
0.823082
0.842419
0.875789
0.905302
0.919066
0.923879
0.918992
0.907364
0.887517
0.862281
0.815761
0.755663
0.731812
0.727194
0.728984
0.732628
0.732885
0.709649
0.655548
0.632545
0.639374
0.692475
0.792221
0.839283
0.855676
0.862666
0.8587
0.841769
0.820295
0.812796
0.809613
0.803764
0.78148
0.723099
0.689999
0.687682
0.695149
0.725346
0.787
0.828956
0.848514
0.857997
0.862623
0.864498
0.864731
0.864281
0.862596
0.860028
0.85802
0.856395
0.853786
0.847267
0.833061
0.819806
0.809383
0.802117
0.798132
0.796726
0.796704
0.798178
0.80613
0.819196
0.826597
0.830309
0.836577
0.854672
0.868091
0.869799
0.864432
0.830686
0.798911
0.793466
0.801939
0.850234
0.893246
0.917667
0.930259
0.937711
0.946838
0.958399
0.969316
0.978009
0.983966
0.987099
0.98803
0.987971
0.986851
0.982399
0.978017
0.976318
0.976207
0.976868
0.979051
0.980344
0.980558
0.980222
0.979488
0.978499
0.976327
0.969816
0.952324
0.938055
0.931742
0.930851
0.932343
0.694085
0.632145
0.627383
0.650982
0.673682
0.692362
0.721695
0.756723
0.786375
0.824487
0.857448
0.889213
0.916322
0.939964
0.959658
0.972584
0.98097
0.984881
0.986649
0.98715
0.987207
0.986828
0.985838
0.984055
0.981332
0.977763
0.97307
0.967624
0.961916
0.956812
0.953085
0.951105
0.950315
0.950477
0.952397
0.956113
0.961637
0.968983
0.976246
0.981263
0.984181
0.985446
0.985785
0.98569
0.984987
0.982729
0.978741
0.976826
0.975881
0.976645
0.984211
0.992715
0.997023
0.998914
0.999629
0.999888
0.999972
0.999978
0.999672
0.993377
0.919802
0.783582
0.739456
0.709065
0.706758
0.764668
0.852392
0.870522
0.863148
0.837904
0.819899
0.812891
0.809735
0.808983
0.810042
0.814693
0.82775
0.856716
0.890893
0.915502
0.925586
0.926879
0.921546
0.906745
0.87927
0.841839
0.774709
0.736598
0.724459
0.725093
0.730564
0.738244
0.734306
0.707167
0.653277
0.647789
0.667891
0.737192
0.810853
0.84168
0.850522
0.84483
0.823902
0.804311
0.803265
0.801224
0.792852
0.757031
0.705231
0.690066
0.692359
0.709745
0.767925
0.829546
0.851201
0.860752
0.866293
0.869682
0.870359
0.869646
0.868652
0.866911
0.864775
0.863141
0.861857
0.860188
0.85676
0.848209
0.83478
0.822062
0.810926
0.802369
0.797623
0.796263
0.796534
0.799917
0.815287
0.830694
0.837438
0.84396
0.86152
0.880512
0.886428
0.884898
0.868433
0.817325
0.794554
0.79305
0.806981
0.86474
0.909556
0.936492
0.954644
0.967326
0.977069
0.984215
0.989065
0.991995
0.993353
0.993656
0.993513
0.992321
0.988118
0.984682
0.983454
0.983389
0.983978
0.985532
0.986112
0.985973
0.984667
0.983229
0.982045
0.979691
0.973052
0.955436
0.941122
0.934939
0.934183
0.93573
0.707565
0.660449
0.659024
0.681008
0.730194
0.759852
0.788112
0.813777
0.85114
0.877178
0.902831
0.927441
0.945538
0.961467
0.973441
0.981288
0.985167
0.98674
0.987221
0.987254
0.986787
0.985259
0.982558
0.977902
0.971704
0.964226
0.95665
0.950515
0.945413
0.941888
0.939563
0.938419
0.93801
0.938591
0.939951
0.942326
0.945393
0.950833
0.960519
0.971236
0.979435
0.983667
0.985366
0.98572
0.985342
0.98388
0.979564
0.97626
0.974614
0.973691
0.977918
0.988388
0.9949
0.998053
0.999344
0.999792
0.999946
0.999985
0.999959
0.998985
0.983787
0.865359
0.750309
0.714711
0.710702
0.739663
0.834453
0.867472
0.866673
0.846983
0.823424
0.813809
0.808684
0.806971
0.807269
0.809156
0.815922
0.836864
0.865061
0.899198
0.921497
0.929029
0.928424
0.922751
0.90607
0.877401
0.809226
0.751851
0.727758
0.720026
0.72296
0.734287
0.742204
0.738696
0.71701
0.675704
0.67717
0.692302
0.727141
0.771868
0.790324
0.786271
0.78417
0.788831
0.793848
0.7929
0.780356
0.732579
0.697883
0.694171
0.703311
0.740483
0.818438
0.850932
0.861191
0.867355
0.872487
0.873401
0.872602
0.870625
0.869297
0.867806
0.866176
0.864954
0.863702
0.862191
0.859204
0.853241
0.845783
0.837481
0.827631
0.815566
0.804779
0.79901
0.797894
0.79937
0.810879
0.835888
0.849442
0.855982
0.868786
0.889349
0.900207
0.901044
0.894087
0.8534
0.804712
0.79064
0.792854
0.817824
0.886251
0.929682
0.956149
0.973978
0.984756
0.990966
0.994349
0.996032
0.996689
0.996793
0.996644
0.995601
0.992043
0.989233
0.988248
0.988191
0.988643
0.989641
0.989894
0.989605
0.987825
0.986063
0.984768
0.982264
0.975065
0.957977
0.945776
0.941173
0.940967
0.943074
0.726257
0.681434
0.676907
0.720809
0.769407
0.792537
0.829288
0.859498
0.883494
0.91213
0.929972
0.948428
0.961475
0.972763
0.979638
0.984563
0.986591
0.9873
0.987446
0.987185
0.986127
0.983525
0.978335
0.970751
0.962197
0.953827
0.94676
0.94158
0.93776
0.935431
0.934098
0.933442
0.933204
0.933731
0.934946
0.937349
0.940328
0.943808
0.95041
0.961517
0.972661
0.9804
0.984268
0.985335
0.985343
0.984126
0.979786
0.974631
0.972196
0.971777
0.974782
0.985193
0.992888
0.996994
0.998882
0.999636
0.999893
0.999976
0.999989
0.999885
0.997344
0.966564
0.820159
0.729654
0.71187
0.720085
0.791199
0.855923
0.865719
0.860251
0.835064
0.817639
0.809637
0.805651
0.804861
0.805402
0.807899
0.817591
0.845086
0.873163
0.90495
0.924758
0.9308
0.930107
0.924513
0.909519
0.87391
0.790838
0.74268
0.723242
0.717006
0.720594
0.735079
0.742665
0.743705
0.737062
0.72128
0.712515
0.718872
0.733201
0.746809
0.759073
0.772701
0.78513
0.786466
0.780057
0.747208
0.704549
0.694366
0.698465
0.725559
0.803997
0.853262
0.865801
0.868137
0.873319
0.87464
0.874007
0.871221
0.865671
0.863066
0.86229
0.86169
0.861598
0.861553
0.861858
0.860501
0.859072
0.859575
0.858261
0.853757
0.843062
0.824625
0.809889
0.803764
0.803628
0.81045
0.836747
0.857039
0.865666
0.878866
0.898565
0.911566
0.914324
0.91097
0.88549
0.823166
0.793071
0.787725
0.795286
0.840657
0.910515
0.950748
0.973336
0.986549
0.993379
0.996546
0.997878
0.998333
0.998397
0.998282
0.997496
0.994722
0.992443
0.991642
0.991589
0.9919
0.992461
0.992536
0.992135
0.990071
0.988198
0.986893
0.984393
0.976941
0.962388
0.953401
0.950751
0.951065
0.954181
0.738827
0.713144
0.693258
0.727463
0.794167
0.829842
0.849378
0.884171
0.907099
0.928044
0.94494
0.959709
0.96896
0.978136
0.982596
0.985943
0.987192
0.987553
0.987538
0.986845
0.98454
0.979861
0.972442
0.963764
0.95492
0.947108
0.94108
0.936977
0.934214
0.932586
0.931716
0.931373
0.931469
0.931871
0.932746
0.934799
0.938503
0.941684
0.946867
0.95742
0.96964
0.978756
0.983599
0.985058
0.985038
0.983977
0.9788
0.972053
0.969072
0.969283
0.973172
0.983907
0.992083
0.99657
0.998669
0.999533
0.999851
0.999958
0.99999
0.999987
0.999687
0.994238
0.943352
0.793478
0.723635
0.717053
0.736138
0.816362
0.85788
0.859835
0.853027
0.829306
0.813577
0.806674
0.802632
0.801348
0.801675
0.804728
0.817697
0.852493
0.881667
0.91001
0.926762
0.93238
0.931927
0.927567
0.913587
0.876523
0.79009
0.741839
0.72178
0.715124
0.716876
0.725246
0.740042
0.747414
0.747924
0.749574
0.750229
0.753794
0.763205
0.769802
0.780271
0.780361
0.774363
0.750502
0.707547
0.695745
0.697328
0.715821
0.783046
0.856656
0.871477
0.87191
0.8731
0.875353
0.874963
0.871693
0.859957
0.84598
0.83969
0.83877
0.839531
0.844771
0.855461
0.863472
0.873808
0.884624
0.902481
0.90642
0.903601
0.894402
0.872275
0.839379
0.819781
0.814728
0.817993
0.841188
0.863702
0.87285
0.885456
0.907459
0.924091
0.92949
0.928127
0.911929
0.84898
0.800457
0.785547
0.786446
0.806343
0.876516
0.93677
0.969337
0.985705
0.993717
0.997277
0.998652
0.999097
0.999171
0.999101
0.998579
0.996572
0.994761
0.994114
0.994063
0.994253
0.99452
0.994508
0.99397
0.991639
0.989719
0.988466
0.986103
0.979046
0.968635
0.963193
0.962116
0.96286
0.967038
0.74697
0.737827
0.736754
0.731626
0.78655
0.839726
0.868063
0.895837
0.921521
0.939975
0.954372
0.966989
0.974125
0.980762
0.984166
0.98636
0.987308
0.987641
0.987619
0.986959
0.984823
0.980224
0.972856
0.964251
0.955469
0.947656
0.941554
0.937346
0.934527
0.932825
0.931825
0.931337
0.931327
0.93158
0.932335
0.934016
0.938041
0.941485
0.946282
0.956411
0.968864
0.978342
0.983414
0.984976
0.98491
0.983343
0.9764
0.969153
0.967483
0.968258
0.972734
0.983667
0.991955
0.996512
0.998637
0.999514
0.999841
0.999953
0.999988
0.999996
0.999977
0.999352
0.990277
0.919178
0.782681
0.728922
0.72916
0.755231
0.828069
0.853899
0.853712
0.847021
0.825089
0.810757
0.803401
0.798071
0.796935
0.797278
0.80092
0.815359
0.853321
0.887966
0.91404
0.928236
0.933798
0.933941
0.930925
0.91962
0.889038
0.813186
0.752807
0.72553
0.716043
0.714128
0.717671
0.727736
0.738782
0.745728
0.753725
0.758145
0.766082
0.769402
0.766235
0.75493
0.727618
0.703133
0.694434
0.695754
0.711142
0.766653
0.863793
0.885524
0.878596
0.873834
0.875083
0.875879
0.873498
0.860603
0.827629
0.806933
0.802884
0.806937
0.82037
0.841329
0.864722
0.895828
0.929402
0.954832
0.971182
0.975046
0.973725
0.967778
0.951405
0.90286
0.856052
0.837463
0.836487
0.850624
0.877643
0.889018
0.898082
0.91689
0.935035
0.943392
0.943694
0.934734
0.883494
0.815316
0.787817
0.783456
0.791688
0.84093
0.915249
0.960093
0.982913
0.993092
0.997303
0.998915
0.999434
0.999541
0.99951
0.9992
0.997862
0.996464
0.995943
0.995892
0.995994
0.996097
0.996029
0.99532
0.992729
0.990878
0.989704
0.987391
0.981206
0.975246
0.97286
0.972756
0.974153
0.97893
0.756944
0.747912
0.755809
0.752128
0.775604
0.832132
0.867508
0.894762
0.921253
0.940607
0.954662
0.96717
0.974737
0.980689
0.984118
0.986234
0.987226
0.987622
0.987636
0.987268
0.98579
0.981947
0.975134
0.967009
0.95854
0.950736
0.944364
0.939717
0.936517
0.934596
0.9332
0.932742
0.932881
0.933438
0.934705
0.936918
0.941862
0.946055
0.952082
0.962976
0.97452
0.981968
0.98464
0.985076
0.984639
0.981885
0.973237
0.967253
0.966409
0.967907
0.974861
0.986791
0.994302
0.997819
0.999208
0.999718
0.9999
0.999966
0.999989
0.999997
0.999999
0.99997
0.999091
0.986316
0.902582
0.787753
0.746276
0.751336
0.785565
0.834205
0.849827
0.849006
0.84211
0.821533
0.807107
0.798752
0.791542
0.790622
0.791255
0.795067
0.808222
0.84532
0.886816
0.913892
0.928735
0.934464
0.935965
0.934117
0.926368
0.90435
0.85125
0.777837
0.73778
0.721632
0.714541
0.712865
0.713683
0.716805
0.721044
0.726875
0.726085
0.722118
0.713153
0.702025
0.696642
0.693437
0.696981
0.715239
0.76908
0.873759
0.902298
0.896192
0.878842
0.873604
0.87606
0.876012
0.867232
0.828547
0.797129
0.790653
0.792758
0.802277
0.829127
0.877634
0.93196
0.969596
0.984291
0.990115
0.992299
0.992311
0.991915
0.990806
0.987495
0.975923
0.93163
0.884265
0.869795
0.871726
0.889227
0.904762
0.912815
0.927493
0.944384
0.954531
0.956447
0.952204
0.920995
0.839104
0.794337
0.783405
0.78619
0.815496
0.894135
0.949037
0.97817
0.991597
0.996981
0.998923
0.999564
0.999718
0.999714
0.999552
0.99873
0.997689
0.997278
0.997229
0.997276
0.9973
0.99717
0.996172
0.993478
0.992047
0.990785
0.987939
0.983988
0.981386
0.980694
0.980917
0.98293
0.987288
0.812981
0.766621
0.763598
0.768743
0.778869
0.807405
0.859245
0.889624
0.917326
0.938435
0.953045
0.965837
0.973953
0.979959
0.98365
0.985848
0.986987
0.987528
0.987616
0.987504
0.986886
0.985019
0.980192
0.972645
0.9649
0.957403
0.950833
0.945262
0.941278
0.938974
0.937038
0.936731
0.937046
0.938102
0.939831
0.94334
0.948411
0.952468
0.960059
0.971441
0.979968
0.98399
0.985104
0.984997
0.983685
0.977773
0.968451
0.965005
0.96539
0.969239
0.981067
0.992243
0.99723
0.999061
0.999695
0.999904
0.99997
0.99999
0.999997
0.999999
1
0.999999
0.999957
0.998815
0.982744
0.88722
0.796972
0.771335
0.780692
0.81394
0.83937
0.846434
0.844743
0.836557
0.816596
0.801844
0.792811
0.78466
0.782407
0.783082
0.786384
0.797558
0.82828
0.87892
0.91053
0.927888
0.934615
0.937258
0.936503
0.931973
0.918216
0.888849