/*--------------------------------*- C++ -*----------------------------------*\
| =========                 |                                                 |
| \\      /  F ield         | OpenFOAM: The Open Source CFD Toolbox           |
|  \\    /   O peration     | Version:  2112                                  |
|   \\  /    A nd           | Website:  www.openfoam.com                      |
|    \\/     M anipulation  |                                                 |
\*---------------------------------------------------------------------------*/
FoamFile
{
    version     2.0;
    format      ascii;
    arch        "LSB;label=32;scalar=64";
    class       volScalarField;
    location    "0.13";
    object      ddt0(kU);
}
// * * * * * * * * * * * * * * * * * * * * * * * * * * * * * * * * * * * * * //

dimensions      [0 2 -3 0 0 0 0];

internalField   nonuniform List<scalar> 
12225
(
0.000148204
-0.000448671
0.000388767
-0.000630019
0.00071707
0.00402228
0.00457645
-0.0894003
0.0852454
-0.00771905
0.0555032
-0.0765487
0.0547495
0.0329177
-0.139673
0.0485511
0.241802
-0.133094
-0.00120794
0.00184491
0.00364287
-0.0168277
0.0100201
0.233009
-0.747743
0.482482
0.898993
-1.4805
3.37243
-3.27678
-2.18632
4.05571
-2.84463
0.973474
1.16935
-0.51102
-0.00028712
-0.000335965
0.00331999
-0.0106338
0.0265164
-0.0157139
-0.0609587
0.114526
-0.118108
0.0622644
0.0899493
-0.219706
0.255849
-0.138282
-0.0779239
0.338795
-0.227507
-0.428482
-0.000115948
-0.000193293
0.00122777
-0.00367463
0.0104789
-0.0108248
-0.00146391
0.0173598
-0.0303029
0.0244329
-0.00813183
-0.00599261
0.0121064
-0.0296867
0.0673014
0.0251685
-0.202633
0.00585181
-5.39395e-05
-7.80057e-05
0.000476445
-0.00118737
0.00401416
-0.00390151
0.000677826
0.00286661
-0.00681941
0.00534945
-0.00303932
0.00311902
-0.00283391
-0.00781915
0.026885
0.00687384
-0.0775973
0.00815503
-2.49339e-05
-2.72826e-05
0.000211198
-0.000351561
0.00167274
-0.00143938
0.000158834
0.000508881
-0.00181174
0.00124801
-0.000637149
0.00135895
-0.000949545
-0.00294919
0.0088625
0.0105782
-0.0496633
0.0086413
-1.0448e-05
-6.45666e-06
0.000105316
-6.50541e-05
0.00073898
-0.000572559
-4.37275e-05
6.1121e-05
-0.000550244
0.000351899
-5.56166e-05
0.000521318
-6.03184e-05
-0.00118161
0.00342111
0.00444902
-0.0210073
0.00448293
-3.93386e-06
1.39252e-06
5.79702e-05
2.34642e-05
0.000337822
-0.000241895
-7.46092e-05
-1.90326e-05
-0.000172972
0.000134599
6.42093e-05
0.000246806
0.000103698
-0.000414145
0.00152009
0.000608803
-0.00585945
0.00215995
-1.35062e-06
3.55431e-06
3.38434e-05
4.04881e-05
0.000157652
-0.000105627
-5.75559e-05
-2.15889e-05
-4.66719e-05
7.28164e-05
7.58505e-05
0.000141432
8.49214e-05
-9.09875e-05
0.000603081
-0.000141685
-0.001263
0.000876725
-5.78355e-07
3.02599e-06
1.95209e-05
3.45678e-05
7.44434e-05
-4.6263e-05
-3.51729e-05
-1.14272e-05
-3.59346e-06
4.78479e-05
6.05544e-05
8.16765e-05
4.70251e-05
1.19947e-07
0.000183579
-0.00014835
-0.000262355
0.000230951
-5.91859e-07
1.86339e-06
1.06142e-05
2.34168e-05
3.48566e-05
-1.99522e-05
-1.87177e-05
-3.67752e-06
8.14905e-06
3.06868e-05
3.75401e-05
3.76192e-05
1.16537e-05
-1.01959e-05
3.69219e-06
-0.000127983
-0.000145835
-9.13267e-05
-6.4535e-07
7.68272e-07
5.35076e-06
1.41657e-05
1.69118e-05
-9.68241e-06
-1.02525e-05
-1.18269e-06
6.92562e-06
1.57179e-05
1.48624e-05
4.36269e-06
-2.07507e-05
-4.69178e-05
-7.85124e-05
-0.000153984
-0.000196561
-0.00025278
-6.77851e-07
-1.36056e-07
1.96169e-06
7.11794e-06
7.3219e-06
-5.22515e-06
-6.51188e-06
-2.29614e-06
7.94333e-07
8.78413e-07
-6.71764e-06
-2.38891e-05
-5.15474e-05
-8.56459e-05
-0.000132297
-0.000196742
-0.000263305
-0.000354673
-6.77462e-07
-8.56871e-07
-3.56775e-07
1.87115e-06
1.37223e-06
-4.327e-06
-6.35331e-06
-6.50865e-06
-8.71381e-06
-1.5346e-05
-2.89931e-05
-5.15072e-05
-8.33547e-05
-0.000124446
-0.000178092
-0.000244898
-0.000324901
-0.000426753
-6.22922e-07
-1.2937e-06
-1.76897e-06
-1.52618e-06
-2.53566e-06
-5.8364e-06
-8.98869e-06
-1.28442e-05
-1.96806e-05
-3.14316e-05
-4.98383e-05
-7.63624e-05
-0.000111745
-0.000156858
-0.000213338
-0.000281851
-0.000364069
-0.00046274
-5.07504e-07
-1.38056e-06
-2.39208e-06
-3.3615e-06
-5.09291e-06
-8.29273e-06
-1.28296e-05
-1.94395e-05
-2.95421e-05
-4.44784e-05
-6.54685e-05
-9.35554e-05
-0.000129463
-0.000173905
-0.000227583
-0.000290838
-0.000364208
-0.00044757
-3.43688e-07
-1.16681e-06
-2.38835e-06
-4.02107e-06
-6.45433e-06
-1.02245e-05
-1.57636e-05
-2.37276e-05
-3.49626e-05
-5.03058e-05
-7.04911e-05
-9.60959e-05
-0.000127488
-0.000164879
-0.000208262
-0.000257327
-0.000311508
-0.000369105
-1.60085e-07
-7.761e-07
-1.961e-06
-3.82647e-06
-6.56958e-06
-1.04893e-05
-1.59116e-05
-2.32139e-05
-3.27997e-05
-4.50264e-05
-6.0148e-05
-7.82833e-05
-9.93786e-05
-0.000123194
-0.000149285
-0.000176951
-0.000205193
-0.000232328
4.38177e-09
-3.77476e-07
-1.39449e-06
-3.16227e-06
-5.66109e-06
-8.86029e-06
-1.27527e-05
-1.73526e-05
-2.26708e-05
-2.86805e-05
-3.52901e-05
-4.23196e-05
-4.94786e-05
-5.63502e-05
-6.23698e-05
-6.6883e-05
-6.90399e-05
-6.72794e-05
9.75819e-08
-1.73982e-07
-1.06978e-06
-2.61852e-06
-4.58169e-06
-6.67604e-06
-8.65863e-06
-1.03494e-05
-1.15941e-05
-1.22142e-05
-1.20221e-05
-1.08021e-05
-8.28159e-06
-4.13229e-06
2.03389e-06
1.06564e-05
2.23338e-05
3.82679e-05
1.35015e-07
-1.25672e-07
-9.71398e-07
-2.32055e-06
-3.81599e-06
-5.08532e-06
-5.75243e-06
-5.61493e-06
-4.54836e-06
-2.27096e-06
1.40778e-06
6.6031e-06
1.35348e-05
2.24368e-05
3.35209e-05
4.70573e-05
6.34275e-05
8.35121e-05
1.40423e-07
-1.56923e-07
-9.88048e-07
-2.13653e-06
-3.24477e-06
-4.05127e-06
-3.89089e-06
-2.63084e-06
-6.14239e-07
2.9085e-06
8.20025e-06
1.48682e-05
2.32412e-05
3.36017e-05
4.59079e-05
6.02405e-05
7.69169e-05
9.66826e-05
1.21124e-07
-2.08842e-07
-1.05165e-06
-1.97045e-06
-2.66124e-06
-3.61124e-06
-3.00488e-06
-5.27197e-07
9.03196e-07
4.29481e-06
1.08364e-05
1.72324e-05
2.5005e-05
3.5054e-05
4.71986e-05
6.00616e-05
7.37578e-05
9.1248e-05
8.22351e-08
-2.40665e-07
-1.14674e-06
-1.83011e-06
-1.52202e-06
-3.96802e-06
-3.57353e-06
2.93011e-06
5.82102e-07
1.17836e-06
1.2901e-05
1.66402e-05
2.17405e-05
2.86275e-05
4.53552e-05
5.787e-05
5.72638e-05
6.93473e-05
3.10857e-08
-2.9945e-07
-1.27362e-06
-2.10668e-06
1.69923e-06
-5.63375e-06
-8.74542e-06
1.411e-05
-8.05508e-07
-1.46094e-05
2.34887e-05
1.47132e-05
2.09055e-05
-4.44795e-06
5.01323e-05
0.00010356
9.99042e-06
-1.53448e-05
-5.3805e-08
-6.07256e-07
-1.09344e-06
-4.46897e-06
1.12494e-05
-8.99648e-06
-3.09373e-05
5.18225e-05
2.4986e-06
-8.03141e-05
7.80452e-05
-9.86526e-06
9.95031e-05
-0.000165194
-4.79246e-05
0.000623677
-0.000151517
-0.000528217
-1.43105e-07
-1.0811e-06
8.97729e-08
-1.45937e-05
3.81064e-05
-1.26491e-05
-0.00010895
0.000167688
4.17323e-05
-0.000338133
0.000347353
-0.000312786
0.000654887
0.000221878
-0.00328668
0.00585685
-0.000314585
-0.00412749
-2.87733e-07
-1.74362e-06
5.24232e-06
-4.3693e-05
9.84439e-05
-2.03293e-05
-0.000304429
0.000472867
0.000165273
-0.00114823
0.00158495
-0.00192797
-0.00216551
0.0292675
-0.0618545
0.0525893
0.0199
-0.0341028
-1.22605e-06
3.88387e-06
3.8745e-07
-5.66336e-06
-4.81769e-05
-9.96457e-05
-0.000184162
0.00109598
-0.000817079
-0.000760058
0.00218346
-0.00182478
0.000430773
-0.0289299
-0.332746
-1.38901
2.18931
-0.192861
-4.8187e-06
2.87068e-06
1.07584e-07
3.60608e-06
-1.55149e-05
6.5109e-06
-3.1823e-05
4.32447e-06
-5.54085e-07
-3.684e-05
-0.0383912
0.193499
-0.159258
0.00137893
-0.0162913
0.0107307
0.0195213
-0.0136452
-0.00196958
-0.00290757
-0.000625142
-0.0141357
-0.0409042
-0.105037
-0.180452
-0.251961
-0.298114
-0.388715
-0.467842
-0.524182
-0.578313
-0.620501
-0.638676
-0.685976
-0.69746
-0.711596
-0.729063
-0.749648
-0.774366
-0.808624
-0.858324
-0.931151
-1.04019
-1.15954
-0.87017
-0.114869
0.0913998
0.00956237
-0.125364
0.0354753
0.0372463
-0.216531
-0.534185
-0.549472
-0.534139
-0.398188
-0.191357
0.915798
2.29456
0.886767
-0.235721
-0.580993
-1.15262
-1.45015
-1.82392
-2.14196
-2.35776
-2.5589
-2.7387
-2.89057
-3.02796
-3.14844
-3.25453
-3.35255
-3.43824
-3.51727
-3.58336
-3.64936
-3.70628
-3.75964
-3.80986
-3.8557
-3.90045
-3.94178
-3.98286
-4.02171
-4.06066
-4.09845
-4.1366
-4.17432
-4.21267
-4.2511
-4.29036
-4.33013
-4.37086
-4.41245
-4.45512
-4.49889
-4.54386
-4.59013
-4.63775
-4.68685
-4.73753
-4.78995
-4.84425
-4.90056
-4.95902
-5.01975
-5.08283
-5.14833
-5.21634
-5.28693
-5.3602
-5.43618
-5.51475
-5.59575
-5.67917
-5.76519
-5.85377
-5.94436
-6.03587
-6.12453
-6.22366
-6.3242
-6.42585
-6.5318
-6.63722
-6.746
-6.85428
-6.96411
-7.07317
-7.18213
-7.28952
-7.39537
-7.49857
-7.59867
-7.69466
-7.78573
-7.87093
-7.94922
-8.01927
-8.07933
-8.12782
-8.16459
-8.1913
-8.20839
-8.20925
-8.17835
-8.09734
-8.03552
-7.9427
-7.84348
-7.70631
-7.52727
-7.31492
-7.18202
-6.94048
-6.69305
-6.43088
-6.14514
-5.80255
-5.46795
-5.14618
-4.7329
-4.34892
-3.94498
-3.52582
-3.09034
-2.64165
-2.18495
-1.7295
-1.28529
-0.866231
-1.2212
-3.96161
-6.81434
-6.85118
-6.73472
-6.60308
-6.49946
-6.37009
-6.24713
-6.11132
-6.03786
-5.89579
-5.7128
-5.76395
-5.6697
-5.39444
-5.48124
-5.63896
-5.69539
-5.84341
-5.89265
-5.9844
-6.15666
-6.26242
-6.91146
0.00530573
0.00355457
0.00679608
-0.00217789
-0.10576
-0.276405
-0.610792
-0.832437
-1.07993
-1.24377
-1.33742
-1.36686
-1.38674
-1.36481
-1.30727
-1.28498
-1.24963
-1.21414
-1.18769
-1.17076
-1.17991
-1.21866
-1.28398
-1.35344
-1.45301
-1.41537
-1.30597
-0.737727
-0.329952
-0.184118
0.0997094
0.542089
1.37099
0.0375319
-1.27507
-1.49747
-1.84526
-0.112774
1.08886
1.21316
0.980492
0.683631
-0.210446
-0.425065
-1.00322
-1.45187
-1.97175
-2.61653
-3.11485
-3.64587
-4.09116
-4.51384
-4.88267
-5.217
-5.51376
-5.78307
-6.02553
-6.2416
-6.42827
-6.60551
-6.76223
-6.90521
-7.0383
-7.15966
-7.27434
-7.38134
-7.48368
-7.58142
-7.67633
-7.76888
-7.86014
-7.95065
-8.04113
-8.13202
-8.22384
-8.31691
-8.41161
-8.50817
-8.60685
-8.70781
-8.8112
-8.91717
-9.02583
-9.13735
-9.25189
-9.36964
-9.49085
-9.61575
-9.74461
-9.87771
-10.0153
-10.1577
-10.305
-10.4576
-10.6157
-10.7796
-10.9492
-11.1246
-11.3061
-11.4946
-11.6906
-11.8939
-12.1069
-12.3242
-12.5303
-12.7544
-12.9791
-13.214
-13.4532
-13.6995
-13.9506
-14.2069
-14.4674
-14.7315
-14.9986
-15.2679
-15.5386
-15.8096
-16.0797
-16.3471
-16.6103
-16.8671
-17.1154
-17.3526
-17.5767
-17.7878
-17.9883
-18.1818
-18.3693
-18.5495
-18.7289
-18.7927
-18.8516
-18.8769
-18.867
-18.8168
-18.7204
-18.5955
-18.4045
-18.1722
-17.9118
-17.5997
-17.1586
-16.6891
-16.3712
-15.723
-15.1425
-14.5181
-13.8511
-13.1327
-12.3623
-11.5427
-10.685
-9.80471
-8.91294
-8.1038
-7.58358
-6.92587
-6.0706
-5.17959
-4.28731
-3.42035
-2.58576
-1.79691
-1.05817
-0.362967
0.333639
1.00038
1.64008
1.82784
1.65948
1.80634
2.02371
2.29072
2.4417
2.65936
2.68006
2.67521
2.50048
1.74241
0.00509413
0.00200764
-0.0119614
-0.101616
-0.323995
-0.740956
-1.09223
-1.3542
-1.54674
-1.66074
-1.70533
-1.67403
-1.65666
-1.59408
-1.5418
-1.45358
-1.42239
-1.37875
-1.31502
-1.28951
-1.28009
-1.29813
-1.34976
-1.45164
-1.57252
-1.70288
-1.78986
-1.65932
-1.36863
-0.615462
-0.11183
0.484852
2.5815
0.123069
-2.03936
-1.57336
-0.913489
1.23052
2.15949
1.26179
1.3431
0.87503
0.138126
-0.722618
-1.69534
-2.68468
-3.57695
-4.34203
-5.03789
-5.67774
-6.24684
-6.76115
-7.21951
-7.62982
-8.00013
-8.33312
-8.63466
-8.90296
-9.14752
-9.36991
-9.57293
-9.75938
-9.93196
-10.0925
-10.2433
-10.386
-10.5224
-10.6538
-10.7817
-10.9071
-11.0311
-11.1547
-11.2786
-11.4035
-11.53
-11.6587
-11.79
-11.9242
-12.0617
-12.2026
-12.3472
-12.4955
-12.6478
-12.804
-12.9643
-13.1288
-13.2977
-13.471
-13.6491
-13.8319
-14.0197
-14.2126
-14.4108
-14.6142
-14.8231
-15.0374
-15.2573
-15.4826
-15.7135
-15.9499
-16.1924
-16.4406
-16.696
-16.9541
-17.2189
-17.4904
-17.7675
-18.0509
-18.3396
-18.6334
-18.9315
-19.2332
-19.5373
-19.8432
-20.1496
-20.4559
-20.7612
-21.0645
-21.3646
-21.6595
-21.9473
-22.2254
-22.4911
-22.7412
-22.9729
-23.1844
-23.376
-23.5476
-23.6961
-23.8153
-23.8985
-23.9282
-23.9163
-23.8592
-23.7583
-23.6114
-23.4135
-23.163
-22.8391
-22.4518
-22.0293
-21.4922
-20.858
-20.3306
-19.6289
-18.8205
-17.9689
-17.0735
-16.1311
-15.1309
-14.068
-12.9442
-11.7681
-10.5666
-9.36646
-8.20821
-7.13317
-5.97654
-4.76117
-3.52498
-2.28111
-1.06788
0.0962646
1.19975
2.23216
3.18487
4.0873
4.99795
5.85064
6.43554
6.886
7.30228
7.67092
8.01738
8.20494
8.45403
8.36184
8.50703
8.20302
7.67481
-0.0128068
-0.0165987
-0.104403
-0.363608
-0.887438
-1.2993
-1.64142
-1.83331
-1.92649
-1.93262
-1.84285
-1.72148
-1.56928
-1.43403
-1.38092
-1.30691
-1.22283
-1.19786
-1.18199
-1.18303
-1.20304
-1.24464
-1.31215
-1.4109
-1.54649
-1.69406
-1.78062
-1.79264
-1.60061
-1.28652
-0.332601
1.81169
3.88288
-1.8468
-3.09889
-1.57185
2.1295
2.53815
1.83075
1.71383
1.05693
0.0847835
-1.00378
-2.05507
-3.06346
-4.02203
-4.88623
-5.68232
-6.414
-7.08741
-7.70297
-8.26641
-8.78056
-9.25006
-9.67971
-10.0702
-10.426
-10.7506
-11.0475
-11.3193
-11.569
-11.7993
-12.0127
-12.2116
-12.3982
-12.5746
-12.7427
-12.9042
-13.0608
-13.2138
-13.3646
-13.5143
-13.6639
-13.8143
-13.9664
-14.1208
-14.2781
-14.4389
-14.6035
-14.7723
-14.9455
-15.1232
-15.3055
-15.4926
-15.6843
-15.8809
-16.0822
-16.2885
-16.4998
-16.716
-16.9374
-17.1638
-17.3954
-17.6321
-17.874
-18.121
-18.3731
-18.6303
-18.8925
-19.1596
-19.4316
-19.708
-19.9902
-20.2777
-20.5703
-20.8672
-21.1686
-21.4742
-21.7836
-22.0963
-22.4115
-22.7283
-23.0453
-23.3614
-23.6751
-23.9852
-24.2911
-24.592
-24.8866
-25.1734
-25.4501
-25.7142
-25.9623
-26.1907
-26.3951
-26.5725
-26.722
-26.8435
-26.9349
-26.9913
-27.0071
-26.974
-26.886
-26.7406
-26.5415
-26.2911
-25.9862
-25.6162
-25.1695
-24.639
-23.9709
-23.3988
-22.6279
-21.8362
-20.9512
-19.9514
-18.8718
-17.7406
-16.5615
-15.32
-14.0064
-12.623
-11.1753
-9.70319
-8.23735
-6.8019
-5.39276
-3.93763
-2.45945
-0.983132
0.52093
1.99079
3.39571
4.72494
5.96778
7.10235
8.12261
9.16587
10.1783
10.9902
11.6275
12.1493
12.5853
12.9572
13.17
13.3885
13.2777
13.3659
12.9786
12.4863
-0.0101292
-0.0743664
-0.3119
-0.978658
-1.62029
-2.02009
-2.22083
-2.17602
-1.99669
-1.77103
-1.59011
-1.46036
-1.31814
-1.24358
-1.1269
-1.03844
-0.978489
-0.950402
-0.950504
-0.976368
-1.02662
-1.10054
-1.19787
-1.31737
-1.46508
-1.62586
-1.73555
-1.77915
-1.66522
-1.40073
0.0168338
5.09971
0.279482
-2.71024
-2.69642
1.04851
2.90029
2.07131
1.77088
1.08034
0.0518685
-1.06805
-2.14856
-3.15938
-4.11341
-5.0102
-5.84442
-6.62685
-7.36043
-8.04754
-8.68951
-9.28997
-9.84977
-10.3684
-10.8485
-11.2921
-11.7014
-12.0785
-12.426
-12.746
-13.0412
-13.314
-13.5669
-13.8024
-14.0228
-14.2304
-14.4273
-14.6154
-14.7967
-14.9727
-15.145
-15.315
-15.484
-15.6531
-15.8234
-15.9958
-16.171
-16.3498
-16.5327
-16.7202
-16.9126
-17.11
-17.3127
-17.5207
-17.7339
-17.9524
-18.176
-18.4049
-18.639
-18.8783
-19.1229
-19.3726
-19.6275
-19.8874
-20.1524
-20.4222
-20.697
-20.9765
-21.2607
-21.5495
-21.8427
-22.1399
-22.4414
-22.7473
-23.0568
-23.3693
-23.6847
-24.0025
-24.3224
-24.644
-24.9665
-25.289
-25.6101
-25.928
-26.2407
-26.5468
-26.8454
-27.1358
-27.4173
-27.6882
-27.9465
-28.1896
-28.4142
-28.6158
-28.7891
-28.9287
-29.0328
-29.1023
-29.1369
-29.1331
-29.0857
-28.986
-28.8231
-28.5904
-28.2909
-27.9305
-27.51
-27.0224
-26.452
-25.7122
-25.0233
-24.1839
-23.2697
-22.2842
-21.2045
-19.9963
-18.6889
-17.3216
-15.9073
-14.4242
-12.8516
-11.1963
-9.46129
-7.70957
-5.97976
-4.26666
-2.57474
-0.856863
0.864205
2.53948
4.27172
5.9739
7.58922
9.10991
10.5283
11.8264
12.9302
14.0085
15.1599
16.0988
16.8289
17.3991
17.8533
18.1944
18.391
18.5301
18.4056
18.3375
17.9696
17.3037
-0.0402504
-0.277599
-0.88095
-1.94035
-2.39848
-2.3855
-2.15473
-1.96119
-1.77264
-1.59659
-1.40419
-1.27998
-1.11119
-0.938129
-0.840076
-0.760561
-0.711437
-0.69509
-0.710964
-0.757756
-0.833789
-0.936874
-1.06433
-1.21322
-1.38422
-1.56447
-1.70579
-1.76557
-1.64692
-1.18173
1.65879
3.95292
-0.860844
-1.91706
-0.816836
2.17102
2.57282
1.79527
1.16103
0.164452
-0.955815
-2.03565
-3.03997
-3.97973
-4.86702
-5.7074
-6.50492
-7.26503
-7.99058
-8.68283
-9.3429
-9.97081
-10.5638
-11.1224
-11.6467
-12.1371
-12.5942
-13.0192
-13.4133
-13.7783
-14.1161
-14.4289
-14.7189
-14.9886
-15.2403
-15.4762
-15.6988
-15.91
-16.1121
-16.3068
-16.4959
-16.6812
-16.8641
-17.046
-17.2282
-17.4118
-17.5979
-17.7874
-17.9809
-18.1792
-18.3828
-18.5919
-18.8066
-19.0272
-19.2535
-19.4854
-19.7229
-19.966
-20.2145
-20.4686
-20.728
-20.9929
-21.263
-21.5383
-21.8187
-22.1039
-22.394
-22.6888
-22.9881
-23.292
-23.5999
-23.9115
-24.2266
-24.5449
-24.8656
-25.1882
-25.5123
-25.8373
-26.1628
-26.4883
-26.8133
-27.1372
-27.4584
-27.7749
-28.0843
-28.3842
-28.6733
-28.9514
-29.2177
-29.4706
-29.7081
-29.9277
-30.1264
-30.2996
-30.4411
-30.5427
-30.6005
-30.6165
-30.592
-30.5242
-30.4081
-30.2349
-29.9916
-29.6653
-29.2568
-28.7755
-28.2254
-27.6062
-26.8255
-26.0527
-25.1182
-24.0927
-22.989
-21.7967
-20.4957
-19.0441
-17.4846
-15.8658
-14.2022
-12.4697
-10.6183
-8.66229
-6.60004
-4.51982
-2.53808
-0.523617
1.44869
3.42993
5.40143
7.27712
9.19083
11.1252
12.9331
14.6216
16.1873
17.6303
18.8684
19.7759
21.0963
22.104
22.8641
23.4299
23.8502
24.0998
24.2302
24.2447
24.0844
23.8071
23.4754
22.5546
-0.544138
-0.884138
-2.08395
-2.5181
-2.3816
-2.22329
-2.04297
-1.84231
-1.6344
-1.40236
-1.24211
-1.01266
-0.843167
-0.705782
-0.597671
-0.52234
-0.481693
-0.476774
-0.507371
-0.572469
-0.670544
-0.799136
-0.954965
-1.13404
-1.33103
-1.52728
-1.68118
-1.76062
-1.60875
-0.420578
2.79508
2.88303
-0.549517
-1.3369
0.860302
2.38366
2.13128
1.32267
0.417535
-0.665619
-1.74904
-2.75172
-3.67889
-4.54888
-5.3748
-6.16527
-6.92557
-7.66029
-8.37392
-9.06649
-9.73555
-10.3801
-10.998
-11.5878
-12.148
-12.6775
-13.1756
-13.6423
-14.078
-14.4834
-14.8599
-15.2092
-15.5331
-15.8339
-16.1138
-16.3751
-16.6202
-16.8512
-17.0704
-17.2799
-17.4816
-17.6774
-17.8691
-18.0583
-18.2467
-18.4355
-18.6261
-18.8196
-19.0169
-19.2188
-19.4262
-19.6393
-19.8586
-20.084
-20.3156
-20.5532
-20.7968
-21.0461
-21.3012
-21.5621
-21.8287
-22.1009
-22.3787
-22.6619
-22.9503
-23.2438
-23.5422
-23.8453
-24.1531
-24.4653
-24.7817
-25.1016
-25.4245
-25.7499
-26.077
-26.405
-26.7334
-27.0614
-27.3884
-27.7138
-28.037
-28.358
-28.6756
-28.9877
-29.2914
-29.5832
-29.8613
-30.1254
-30.3748
-30.6078
-30.8218
-31.0142
-31.1823
-31.3226
-31.4287
-31.4889
-31.4964
-31.4539
-31.3641
-31.224
-31.0274
-30.7662
-30.4284
-29.9929
-29.4594
-28.8322
-28.1509
-27.3033
-26.45
-25.4361
-24.3012
-23.0653
-21.7439
-20.3188
-18.7588
-17.014
-15.1492
-13.2564
-11.3231
-9.33402
-7.18903
-4.91603
-2.50113
0.00379507
2.19137
4.56631
6.84345
9.09903
11.336
13.4815
15.4052
17.6406
19.6217
21.45
23.1314
24.6751
26.1391
27.6176
28.9806
29.9187
30.6164
31.0949
31.3951
31.4708
31.4588
31.2558
30.9799
30.3738
29.9832
28.5697
-0.87495
-1.49472
-2.43929
-2.43582
-2.34426
-2.16828
-1.936
-1.6949
-1.45164
-1.21012
-0.986016
-0.796365
-0.635199
-0.5028
-0.4033
-0.340202
-0.311379
-0.319284
-0.364001
-0.444929
-0.560958
-0.710567
-0.892071
-1.10665
-1.3388
-1.55892
-1.71082
-1.66469
-1.19342
0.564668
3.25053
2.10524
-0.528011
0.0186094
1.76122
2.2042
1.63744
0.751517
-0.250202
-1.31166
-2.32241
-3.24811
-4.10431
-4.91061
-5.68121
-6.42494
-7.14817
-7.85807
-8.55655
-9.24127
-9.91138
-10.5648
-11.1989
-11.8108
-12.3982
-12.9586
-13.4902
-13.9919
-14.463
-14.9035
-15.3141
-15.6957
-16.0498
-16.3783
-16.6831
-16.9666
-17.2309
-17.4785
-17.7114
-17.9319
-18.1422
-18.3443
-18.5402
-18.7319
-18.9211
-19.1097
-19.299
-19.4904
-19.6851
-19.8841
-20.0884
-20.2986
-20.5152
-20.7382
-20.9676
-21.2034
-21.4454
-21.6933
-21.9472
-22.207
-22.4728
-22.7446
-23.0223
-23.3057
-23.5945
-23.8886
-24.1877
-24.4918
-24.8005
-25.1139
-25.4316
-25.753
-26.0772
-26.4036
-26.7312
-27.0592
-27.3869
-27.7131
-28.0371
-28.3578
-28.6747
-28.988
-29.2968
-29.5996
-29.8932
-30.1731
-30.4364
-30.6829
-30.9123
-31.122
-31.3081
-31.4672
-31.5968
-31.6944
-31.7554
-31.7647
-31.7129
-31.6027
-31.4381
-31.2138
-30.9205
-30.5508
-30.095
-29.5227
-28.8441
-28.0271
-27.1966
-26.2002
-25.1079
-23.8426
-22.4641
-20.9942
-19.4318
-17.753
-15.9087
-13.8362
-11.5616
-9.35965
-7.12466
-4.84883
-2.40618
0.175291
2.89661
5.91455
8.22498
11.0893
13.7047
16.244
18.7493
21.2587
23.9037
26.6278
28.7504
30.692
32.458
34.0603
35.5157
36.6862
36.842
37.2709
37.8579
38.2346
38.4351
38.3723
38.2581
37.8741
37.5311
36.6708
36.2524
34.6232
-0.848822
-1.97549
-2.48284
-2.55238
-2.40338
-2.14788
-1.84792
-1.58732
-1.27714
-1.03207
-0.820609
-0.64136
-0.493488
-0.376714
-0.292628
-0.237893
-0.220137
-0.240943
-0.300509
-0.398619
-0.534709
-0.706622
-0.909305
-1.12813
-1.3639
-1.58402
-1.73004
-1.35809
-0.710428
1.45051
3.1057
1.44061
0.180903
1.16173
2.03185
1.84954
1.12091
0.2029
-0.787555
-1.78126
-2.71199
-3.56461
-4.35496
-5.10217
-5.82032
-6.5187
-7.20688
-7.88982
-8.56703
-9.23841
-9.90257
-10.557
-11.1986
-11.8238
-12.4295
-13.0124
-13.5696
-14.0989
-14.599
-15.0688
-15.5083
-15.9177
-16.298
-16.6504
-16.9768
-17.2792
-17.5597
-17.8206
-18.0641
-18.2924
-18.5076
-18.7121
-18.908
-19.0977
-19.2832
-19.4666
-19.6495
-19.8335
-20.0199
-20.2101
-20.4051
-20.606
-20.8132
-21.0269
-21.2472
-21.4741
-21.7071
-21.946
-22.1909
-22.4417
-22.6988
-22.9622
-23.2317
-23.5073
-23.7886
-24.0754
-24.3673
-24.6642
-24.966
-25.2726
-25.5838
-25.8989
-26.217
-26.5372
-26.8585
-27.18
-27.5007
-27.8193
-28.1347
-28.4455
-28.7509
-29.0502
-29.343
-29.6288
-29.9049
-30.1658
-30.4078
-30.6307
-30.8345
-31.0153
-31.1675
-31.2856
-31.3657
-31.4064
-31.4061
-31.3463
-31.2201
-31.029
-30.7772
-30.4556
-30.0486
-29.5481
-28.9425
-28.1868
-27.3095
-26.3678
-25.3186
-24.1387
-22.798
-21.2314
-19.5321
-17.7993
-15.9682
-14.0146
-11.8864
-9.52414
-6.72718
-4.15551
-1.55559
1.1051
3.84134
6.75964
9.72936
13.1418
16.7187
20.2994
23.3084
26.2406
29.0995
31.8993
34.2637
35.4168
37.4232
39.3724
41.1294
42.7066
44.0675
45.0085
45.593
46.6999
47.2252
47.4363
47.3316
46.9675
46.637
45.9264
45.4084
44.0686
43.6527
41.6259
-0.884991
-2.27464
-2.75967
-2.72192
-2.48516
-2.15108
-1.81343
-1.47533
-1.19585
-0.951491
-0.743836
-0.570574
-0.429432
-0.322921
-0.250661
-0.208191
-0.204358
-0.23782
-0.307791
-0.414302
-0.557756
-0.736527
-0.945667
-1.17577
-1.4078
-1.60548
-1.67522
-1.15899
0.223314
2.29098
2.63514
1.30975
1.06645
1.77596
1.92523
1.42032
0.625505
-0.271136
-1.1978
-2.10509
-2.95391
-3.73583
-4.46341
-5.15337
-5.8198
-6.47437
-7.1263
-7.77764
-8.42952
-9.08189
-9.73324
-10.3809
-11.0214
-11.6512
-12.2665
-12.8646
-13.4384
-13.9876
-14.5096
-15.0026
-15.4657
-15.8982
-16.3004
-16.673
-17.0174
-17.3354
-17.629
-17.9004
-18.1516
-18.3847
-18.6018
-18.8052
-18.9973
-19.1811
-19.3588
-19.5328
-19.7051
-19.8772
-20.0507
-20.227
-20.4075
-20.5934
-20.7854
-20.9839
-21.1889
-21.4003
-21.6174
-21.8402
-22.0685
-22.3027
-22.5432
-22.7901
-23.0435
-23.3032
-23.5689
-23.8403
-24.1169
-24.3986
-24.6851
-24.9765
-25.2729
-25.5736
-25.8774
-26.1833
-26.4903
-26.7976
-27.104
-27.408
-27.708
-28.0023
-28.2889
-28.5665
-28.8347
-29.0935
-29.3418
-29.5731
-29.784
-29.9743
-30.1447
-30.2897
-30.4008
-30.4698
-30.4898
-30.458
-30.3748
-30.2172
-29.9972
-29.7097
-29.3559
-28.9232
-28.3878
-27.7429
-26.9564
-25.9343
-24.8749
-23.7293
-22.4679
-21.0789
-19.4938
-17.6412
-15.502
-13.459
-11.3018
-9.01228
-6.54512
-3.95472
-0.750916
2.32753
5.47572
8.80484
12.9792
16.4953
20.0317
23.638
27.3556
29.3999
32.4482
35.5754
38.5971
41.4843
43.9252
46.7897
49.1491
51.1827
52.9274
54.4807
55.7364
56.5524
57.2414
57.7904
58.1067
58.0179
57.6658
56.8981
56.3154
55.2058
54.5214
52.6745
52.1685
49.6527
-0.912701
-2.58153
-2.99613
-2.91863
-2.60724
-2.19691
-1.7864
-1.42218
-1.11023
-0.875948
-0.687768
-0.534105
-0.412881
-0.32351
-0.265693
-0.238778
-0.239171
-0.278268
-0.355789
-0.471029
-0.62198
-0.807397
-1.02728
-1.26207
-1.47965
-1.6019
-1.08964
-0.663033
1.20088
2.5846
2.23494
1.58945
1.70285
1.91485
1.62241
0.97141
0.175486
-0.663307
-1.50323
-2.31652
-3.08161
-3.79252
-4.45714
-5.0858
-5.70013
-6.31023
-6.9229
-7.53978
-8.1623
-8.79036
-9.42243
-10.0558
-10.6871
-11.3126
-11.9309
-12.5587
-13.1194
-13.6778
-14.2137
-14.7233
-15.2049
-15.6558
-16.0759
-16.4648
-16.8236
-17.1538
-17.4574
-17.7363
-17.9925
-18.2278
-18.4439
-18.6432
-18.8285
-19.0031
-19.1697
-19.331
-19.4892
-19.6462
-19.8033
-19.9619
-20.1238
-20.2904
-20.4626
-20.6409
-20.8255
-21.0156
-21.2108
-21.4107
-21.6157
-21.8261
-22.0425
-22.2654
-22.495
-22.7311
-22.9733
-23.2214
-23.4748
-23.7331
-23.9962
-24.2642
-24.5372
-24.8146
-25.0952
-25.378
-25.662
-25.9464
-26.23
-26.5113
-26.7884
-27.0589
-27.32
-27.569
-27.8042
-28.0257
-28.2335
-28.4197
-28.5869
-28.7334
-28.8601
-28.9593
-29.0199
-29.0309
-28.982
-28.8653
-28.676
-28.3781
-28.0417
-27.6408
-27.163
-26.5981
-25.9122
-25.1195
-24.1488
-22.7878
-21.529
-20.0942
-18.6186
-16.9546
-15.0903
-12.9893
-10.4256
-7.98751
-5.31637
-2.49236
0.533796
4.55384
8.07934
11.8076
15.6759
19.6262
22.2526
25.9314
29.8006
33.7053
37.501
41.5199
45.1483
48.5791
51.7982
54.8302
57.5732
60.2134
62.5473
64.5434
66.159
67.56
68.6689
69.2979
69.6909
69.9694
70.052
69.6201
68.9709
67.7467
66.9549
65.4835
64.6695
62.4229
61.6911
58.7495
-1.02578
-2.90573
-3.30149
-3.16941
-2.76347
-2.26956
-1.77752
-1.39529
-1.08938
-0.842167
-0.655044
-0.517833
-0.419055
-0.352763
-0.316803
-0.309053
-0.319936
-0.368623
-0.456825
-0.582357
-0.739333
-0.922029
-1.11762
-1.31035
-1.43125
-1.11961
-0.824115
0.158719
1.95054
2.51192
2.14218
1.9258
1.93686
1.74109
1.22425
0.529238
-0.226509
-0.987729
-1.73262
-2.44894
-3.12649
-3.76293
-4.37282
-4.97399
-5.55243
-6.12533
-6.69973
-7.27952
-7.86681
-8.46212
-9.06457
-9.67201
-10.2813
-10.8884
-11.4889
-12.0759
-12.6293
-13.1859
-13.7264
-14.2445
-14.7416
-15.2058
-15.6403
-16.0416
-16.4105
-16.7492
-17.0592
-17.3425
-17.6008
-17.8358
-18.0489
-18.2422
-18.4186
-18.5811
-18.7335
-18.8792
-19.0211
-19.161
-19.2997
-19.4384
-19.5789
-19.7229
-19.8714
-20.0252
-20.1843
-20.3484
-20.5167
-20.6888
-20.8649
-21.0457
-21.2319
-21.4245
-21.6237
-21.8295
-22.0415
-22.2592
-22.4822
-22.7101
-22.9424
-23.1794
-23.421
-23.6667
-23.9154
-24.1661
-24.4181
-24.6706
-24.9224
-25.1721
-25.4176
-25.6564
-25.8851
-26.0993
-26.2954
-26.4713
-26.6256
-26.7446
-26.8537
-26.9438
-27.0141
-27.0538
-27.0495
-26.9892
-26.8608
-26.652
-26.3432
-25.8616
-25.389
-24.8555
-24.2167
-23.4845
-22.5932
-21.6159
-20.4703
-18.8826
-17.2355
-15.501
-13.659
-11.54
-9.22549
-6.68152
-3.85103
-0.0418839
3.41194
7.02847
10.7645
13.55
17.3519
21.4032
25.5958
29.8293
34.4064
38.7803
43.0649
47.1894
51.1568
55.1396
58.8859
62.4043
65.6473
68.6418
71.3898
73.7998
75.9978
77.8521
79.1913
80.3885
81.3166
81.6413
81.575
81.6155
81.3929
80.5118
79.3962
77.6393
76.5208
74.8368
73.7865
71.3369
70.1164
67.1785
-1.10114
-3.26175
-3.65253
-3.4814
-2.94765
-2.31999
-1.78671
-1.34652
-1.01636
-0.788427
-0.633996
-0.527344
-0.454488
-0.409302
-0.389318
-0.387904
-0.415114
-0.479069
-0.578012
-0.705914
-0.855599
-1.0172
-1.16798
-1.24882
-0.953565
-0.676548
-0.089082
1.43295
2.25349
2.3996
2.21717
2.05619
1.82463
1.38538
0.778441
0.0975972
-0.595132
-1.27171
-1.92315
-2.54709
-3.13705
-3.71411
-4.26573
-4.78603
-5.30164
-5.81764
-6.33831
-6.86772
-7.40825
-7.96075
-8.52468
-9.09829
-9.67886
-10.2631
-10.849
-11.4413
-12.0249
-12.5833
-13.119
-13.6274
-14.0932
-14.5579
-15.008
-15.4186
-15.7937
-16.1354
-16.4467
-16.7297
-16.9861
-17.2172
-17.4239
-17.6079
-17.7719
-17.9195
-18.0551
-18.1832
-18.3076
-18.43
-18.5503
-18.6689
-18.7874
-18.9074
-19.0302
-19.1569
-19.2882
-19.4238
-19.5624
-19.7032
-19.8467
-19.9939
-20.1457
-20.3031
-20.467
-20.6375
-20.8139
-20.9956
-21.1824
-21.3739
-21.5697
-21.7701
-21.9733
-22.1797
-22.3886
-22.5994
-22.8111
-23.0231
-23.2342
-23.4429
-23.6471
-23.8446
-24.0323
-24.2053
-24.3573
-24.4838
-24.5766
-24.6036
-24.6421
-24.6631
-24.6601
-24.6222
-24.5307
-24.3745
-24.1407
-23.8118
-23.3688
-22.7458
-22.1132
-21.3913
-20.4977
-19.528
-18.2913
-17.1039
-15.5271
-13.8542
-11.8746
-9.62035
-6.53989
-3.69036
-0.652199
2.60332
6.05899
8.78563
12.4997
16.5206
20.6667
25.1696
29.5401
33.9596
38.4673
42.9774
47.6177
52.1953
56.5957
60.7662
64.7441
68.613
72.2648
75.7067
78.8112
81.6481
84.2286
86.3094
88.2513
89.8464
90.7143
91.5642
92.1965
91.985
91.1596
90.9793
90.1569
88.4828
86.5281
84.1451
81.8804
79.0957
76.6001
73.7594
71.2525
68.8054
-1.14755
-3.64927
-4.08421
-3.88214
-3.22573
-2.4709
-1.75532
-1.27374
-0.979954
-0.790642
-0.665898
-0.581927
-0.526294
-0.493205
-0.481036
-0.486832
-0.526156
-0.598324
-0.696406
-0.81027
-0.926862
-1.02111
-1.0352
-0.836635
-0.67728
-0.280246
0.796847
1.97076
2.35283
2.38081
2.19924
1.90219
1.47184
0.917614
0.296527
-0.338715
-0.95837
-1.55182
-2.12007
-2.63051
-3.14153
-3.62762
-4.0969
-4.55686
-5.01243
-5.47028
-5.93541
-6.41163
-6.90131
-7.40545
-7.92371
-8.45464
-8.99648
-9.54678
-10.1014
-10.6566
-11.2032
-11.7453
-12.2747
-12.7895
-13.2961
-13.7664
-14.2005
-14.6067
-14.9778
-15.3131
-15.6172
-15.8923
-16.14
-16.3613
-16.5576
-16.7295
-16.8794
-17.0112
-17.1297
-17.2401
-17.3475
-17.4539
-17.558
-17.6598
-17.7576
-17.8541
-17.9509
-18.0498
-18.1523
-18.2587
-18.3669
-18.4753
-18.5849
-18.6969
-18.8126
-18.9331
-19.0596
-19.1921
-19.3297
-19.4719
-19.6184
-19.7694
-19.9247
-20.0858
-20.2453
-20.4065
-20.5701
-20.735
-20.9002
-21.0648
-21.2273
-21.386
-21.5385
-21.6823
-21.8169
-21.9381
-22.0345
-22.0982
-22.1214
-22.0691
-22.0257
-21.945
-21.8265
-21.6774
-21.4529
-21.1456
-20.7402
-20.2289
-19.5862
-18.8586
-18.0381
-17.0802
-15.7886
-14.5636
-12.8939
-10.568
-8.47126
-6.14994
-3.5688
-0.759305
1.56709
4.69222
8.1326
11.7655
15.5175
19.776
24.0694
28.4785
32.9583
37.5653
42.1289
46.7167
51.3245
55.9114
60.5127
65.0311
69.3836
73.5025
77.3885
81.1032
84.5282
87.7552
90.5613
93.0373
95.304
96.8587
98.3461
99.5069
99.6575
99.7227
99.9714
98.6924
96.9345
94.496
91.5316
88.2963
85.1956
82.2421
78.9571
75.3636
71.7943
68.7138
65.3958
63.2844
-1.25144
-4.06327
-4.57453
-4.35331
-3.55779
-2.64326
-1.87883
-1.39739
-1.06854
-0.871566
-0.749496
-0.675733
-0.631147
-0.603817
-0.594298
-0.602708
-0.642673
-0.706015
-0.781348
-0.852092
-0.894432
-0.853758
-0.815689
-0.657362
-0.291842
0.525501
1.80633
2.19436
2.34293
2.23471
1.92061
1.47388
0.93655
0.352559
-0.238146
-0.807447
-1.34361
-1.84586