# y+ ()       
# Time        	patch         	min           	max           	average       
0.4           	upperWall	1.182762e+01	5.579629e+01	3.456965e+01
0.4           	lowerWall	6.756607e-02	3.755661e+01	5.982879e+00
