/*--------------------------------*- C++ -*----------------------------------*\
| =========                 |                                                 |
| \\      /  F ield         | OpenFOAM: The Open Source CFD Toolbox           |
|  \\    /   O peration     | Version:  2112                                  |
|   \\  /    A nd           | Website:  www.openfoam.com                      |
|    \\/     M anipulation  |                                                 |
\*---------------------------------------------------------------------------*/
FoamFile
{
    version     2.0;
    format      ascii;
    arch        "LSB;label=32;scalar=64";
    class       volVectorField;
    location    "0.37";
    object      ddt0(U);
}
// * * * * * * * * * * * * * * * * * * * * * * * * * * * * * * * * * * * * * //

dimensions      [0 1 -2 0 0 0 0];

internalField   nonuniform List<vector> 
12225
(
(2.05608e-05 -9.79936e-06 0)
(0.000148263 -2.63892e-05 0)
(0.00040035 -4.3442e-05 0)
(0.000786584 -6.23446e-05 0)
(0.00130167 -8.01961e-05 0)
(0.00193905 -9.54644e-05 0)
(0.00269044 -0.000106683 0)
(0.0035442 -0.000113964 0)
(0.00448717 -0.000119004 0)
(0.00551267 -0.000126238 0)
(0.00662989 -0.000142659 0)
(0.00786412 -0.000178192 0)
(0.00926103 -0.000255344 0)
(0.0109249 -0.000385169 0)
(0.0127747 -0.000643131 0)
(0.0154784 -0.000472879 0)
(0.0178098 -0.00102426 0)
(0.0251935 0.00128125 0)
(-6.99886e-06 -1.59568e-05 0)
(1.22751e-06 -4.6428e-05 0)
(6.269e-05 -8.42785e-05 0)
(0.000203266 -0.000132217 0)
(0.000444245 -0.00018659 0)
(0.000804111 -0.000247841 0)
(0.00129975 -0.000313795 0)
(0.00194509 -0.000383331 0)
(0.00275177 -0.000456099 0)
(0.00373317 -0.000535993 0)
(0.00490955 -0.000629817 0)
(0.00630601 -0.000746269 0)
(0.00795135 -0.000908949 0)
(0.00990904 -0.00112984 0)
(0.0122496 -0.00146636 0)
(0.0151484 -0.00166227 0)
(0.0183535 -0.00233355 0)
(0.0236667 -0.00193934 0)
(-6.03034e-07 -1.7195e-05 0)
(4.2046e-05 -5.65335e-05 0)
(0.000125872 -0.000107167 0)
(0.00024195 -0.000168271 0)
(0.000385134 -0.000235903 0)
(0.000559317 -0.000313589 0)
(0.000779928 -0.00040265 0)
(0.00107264 -0.000503322 0)
(0.00146208 -0.000616408 0)
(0.00197866 -0.000749093 0)
(0.00265667 -0.000910977 0)
(0.00353377 -0.00110933 0)
(0.00465036 -0.00136664 0)
(0.00609124 -0.00170357 0)
(0.00792472 -0.00214184 0)
(0.0103322 -0.00276859 0)
(0.0132738 -0.00367696 0)
(0.0178204 -0.00481055 0)
(1.92358e-06 -2.17639e-05 0)
(3.62157e-05 -7.50122e-05 0)
(0.000133016 -0.000132989 0)
(0.000282206 -0.000203674 0)
(0.000479732 -0.000286138 0)
(0.000715925 -0.000380452 0)
(0.000987919 -0.00048788 0)
(0.0012991 -0.000613907 0)
(0.00165901 -0.000762813 0)
(0.00208687 -0.000941424 0)
(0.00257058 -0.00116556 0)
(0.00314611 -0.00144494 0)
(0.00383108 -0.00181997 0)
(0.0046503 -0.00231479 0)
(0.00562787 -0.002992 0)
(0.00682183 -0.00386886 0)
(0.00820174 -0.00516187 0)
(0.00990924 -0.00690932 0)
(4.86842e-06 -2.73778e-05 0)
(4.20887e-05 -9.15729e-05 0)
(0.000125819 -0.000167054 0)
(0.000253939 -0.00026111 0)
(0.000443115 -0.000354865 0)
(0.000683681 -0.000463286 0)
(0.000974797 -0.000587526 0)
(0.00131927 -0.000734269 0)
(0.00172473 -0.000906412 0)
(0.00219708 -0.00111583 0)
(0.00276289 -0.00137147 0)
(0.00340424 -0.00168414 0)
(0.00416725 -0.00206918 0)
(0.00490974 -0.00261321 0)
(0.00577023 -0.00333224 0)
(0.00671373 -0.00429597 0)
(0.00787258 -0.00554698 0)
(0.00900245 -0.00729591 0)
(5.29097e-06 -3.36424e-05 0)
(4.91105e-05 -0.000108666 0)
(0.000136066 -0.000199769 0)
(0.000252505 -0.000305776 0)
(0.000413999 -0.000415742 0)
(0.000640064 -0.000545067 0)
(0.000918126 -0.00069206 0)
(0.00125013 -0.000864255 0)
(0.00164245 -0.00106514 0)
(0.00209772 -0.00130815 0)
(0.00263278 -0.00160478 0)
(0.00323878 -0.00196799 0)
(0.00394676 -0.00244094 0)
(0.00477957 -0.00302387 0)
(0.00565272 -0.0037643 0)
(0.00652605 -0.00472264 0)
(0.00733886 -0.0060368 0)
(0.00810313 -0.00782754 0)
(4.9386e-06 -4.16726e-05 0)
(5.07532e-05 -0.000130726 0)
(0.000142114 -0.000228882 0)
(0.000260781 -0.000342431 0)
(0.000397482 -0.000488182 0)
(0.000599001 -0.000635994 0)
(0.000853766 -0.000805852 0)
(0.00116082 -0.00100473 0)
(0.0015229 -0.00123525 0)
(0.00194098 -0.00151402 0)
(0.00242311 -0.00185186 0)
(0.00297429 -0.00225944 0)
(0.00358237 -0.00276888 0)
(0.00430622 -0.00337759 0)
(0.00506385 -0.00416191 0)
(0.00585036 -0.00515777 0)
(0.00652646 -0.00648042 0)
(0.00705969 -0.00812932 0)
(4.5306e-06 -5.00285e-05 0)
(4.93031e-05 -0.000154327 0)
(0.000139135 -0.000267135 0)
(0.000266076 -0.000391818 0)
(0.000402638 -0.000546786 0)
(0.000564906 -0.000724877 0)
(0.000791563 -0.000914139 0)
(0.00106635 -0.00113783 0)
(0.00139152 -0.00139878 0)
(0.00176477 -0.00171265 0)
(0.00219236 -0.00208836 0)
(0.00267547 -0.00253602 0)
(0.00319551 -0.00309454 0)
(0.00375404 -0.0037808 0)
(0.00434009 -0.00461315 0)
(0.0049404 -0.00561572 0)
(0.00548553 -0.0068382 0)
(0.00586589 -0.00832579 0)
(4.19091e-06 -5.84228e-05 0)
(4.6657e-05 -0.000178667 0)
(0.000132984 -0.000306863 0)
(0.000258117 -0.000444416 0)
(0.000412143 -0.000599898 0)
(0.000564478 -0.00079437 0)
(0.000747853 -0.00101628 0)
(0.000976056 -0.00127719 0)
(0.00126 -0.00155411 0)
(0.00158542 -0.00189123 0)
(0.00195468 -0.00229719 0)
(0.00236968 -0.00277924 0)
(0.00281447 -0.00336477 0)
(0.00327284 -0.00406459 0)
(0.00372864 -0.00489981 0)
(0.00415926 -0.00588831 0)
(0.0045187 -0.00705887 0)
(0.00473066 -0.00842261 0)
(3.89609e-06 -6.67964e-05 0)
(4.35564e-05 -0.000203359 0)
(0.000124997 -0.000347356 0)
(0.000243652 -0.000501234 0)
(0.000395482 -0.000671392 0)
(0.000568429 -0.000864527 0)
(0.000751296 -0.00110756 0)
(0.000939998 -0.00137917 0)
(0.00115293 -0.00169219 0)
(0.00142131 -0.00206883 0)
(0.00171143 -0.00251586 0)
(0.00205519 -0.00301008 0)
(0.00242007 -0.00360409 0)
(0.00279258 -0.00430786 0)
(0.00314518 -0.00513745 0)
(0.00344833 -0.00609859 0)
(0.00366077 -0.00720262 0)
(0.00373607 -0.00844257 0)
(3.60218e-06 -7.50836e-05 0)
(4.01474e-05 -0.000228032 0)
(0.000115585 -0.000388071 0)
(0.000225631 -0.000558926 0)
(0.000367006 -0.00074567 0)
(0.000536984 -0.000954959 0)
(0.000726914 -0.00119408 0)
(0.000932175 -0.00147021 0)
(0.00113303 -0.00181427 0)
(0.00135839 -0.00220946 0)
(0.00156847 -0.00265616 0)
(0.00178893 -0.00318854 0)
(0.00203939 -0.0038299 0)
(0.00231548 -0.00452883 0)
(0.00256507 -0.00533299 0)
(0.00276162 -0.00624429 0)
(0.00286341 -0.00726668 0)
(0.00284082 -0.00838693 0)
(3.31664e-06 -8.25803e-05 0)
(3.67237e-05 -0.000250314 0)
(0.000105781 -0.000424933 0)
(0.000206479 -0.000610919 0)
(0.000335369 -0.000813046 0)
(0.00049116 -0.00103761 0)
(0.000668652 -0.00129338 0)
(0.000866315 -0.00158261 0)
(0.00107606 -0.00191683 0)
(0.00129166 -0.00230642 0)
(0.00150659 -0.00275504 0)
(0.00169118 -0.00331149 0)
(0.00183706 -0.00393432 0)
(0.00196599 -0.00464694 0)
(0.0020913 -0.00546407 0)
(0.00219008 -0.00632313 0)
(0.00219957 -0.00726312 0)
(0.00210139 -0.00827633 0)
(3.04712e-06 -8.97758e-05 0)
(3.31199e-05 -0.000271699 0)
(9.51593e-05 -0.000460326 0)
(0.000185507 -0.000660615 0)
(0.000300514 -0.00087727 0)
(0.000438691 -0.00111631 0)
(0.000596736 -0.00138566 0)
(0.00077269 -0.00168873 0)
(0.000962162 -0.00203676 0)
(0.00115632 -0.00243633 0)
(0.00135342 -0.0028868 0)
(0.00153812 -0.00340133 0)
(0.00169126 -0.00399336 0)
(0.00177282 -0.00470759 0)
(0.00177947 -0.0054755 0)
(0.00173194 -0.00629936 0)
(0.00164478 -0.00719721 0)
(0.00147112 -0.00813242 0)
(2.70414e-06 -9.74235e-05 0)
(2.86206e-05 -0.000294638 0)
(8.18059e-05 -0.000498238 0)
(0.000159024 -0.000713543 0)
(0.000256542 -0.000945196 0)
(0.000372363 -0.00119896 0)
(0.000503747 -0.00148181 0)
(0.000647875 -0.00179863 0)
(0.000801095 -0.00215716 0)
(0.0009567 -0.00256262 0)
(0.00110986 -0.00301664 0)
(0.00125119 -0.00352932 0)
(0.00137113 -0.00409994 0)
(0.00144822 -0.00473093 0)
(0.0014638 -0.00542661 0)
(0.00138068 -0.00621152 0)
(0.0012267 -0.00703375 0)
(0.0009911 -0.00787467 0)
(2.22755e-06 -0.000105162 0)
(2.29428e-05 -0.000317893 0)
(6.50999e-05 -0.00053652 0)
(0.000125895 -0.000766516 0)
(0.000201708 -0.00101238 0)
(0.000290107 -0.00127955 0)
(0.000388322 -0.00157421 0)
(0.000493028 -0.00190144 0)
(0.000600306 -0.00226651 0)
(0.000704548 -0.00267355 0)
(0.000799898 -0.00312479 0)
(0.000879078 -0.00362412 0)
(0.000933706 -0.00417093 0)
(0.000952301 -0.00476722 0)
(0.000926192 -0.00540476 0)
(0.000842204 -0.00607799 0)
(0.000685717 -0.00678359 0)
(0.00044882 -0.00751084 0)
(1.57476e-06 -0.000112244 0)
(1.58411e-05 -0.00033905 0)
(4.45029e-05 -0.000571091 0)
(8.51966e-05 -0.000813696 0)
(0.000134674 -0.00107104 0)
(0.000190315 -0.00134804 0)
(0.000249256 -0.00165007 0)
(0.000308021 -0.00198165 0)
(0.000362541 -0.00234644 0)
(0.000407858 -0.00274711 0)
(0.00043848 -0.00318484 0)
(0.000448266 -0.0036603 0)
(0.000430413 -0.00417229 0)
(0.000377527 -0.00471858 0)
(0.00028276 -0.00529366 0)
(0.000139284 -0.00589326 0)
(-5.85536e-05 -0.00650888 0)
(-0.000314505 -0.00713058 0)
(7.6326e-07 -0.000117571 0)
(7.27444e-06 -0.000354456 0)
(1.98414e-05 -0.000595529 0)
(3.66644e-05 -0.000845772 0)
(5.52374e-05 -0.00110884 0)
(7.31068e-05 -0.00138894 0)
(8.75157e-05 -0.00169054 0)
(9.52702e-05 -0.00201722 0)
(9.26431e-05 -0.00237137 0)
(7.5495e-05 -0.00275414 0)
(3.94333e-05 -0.00316549 0)
(-2.01754e-05 -0.00360437 0)
(-0.000107966 -0.00406849 0)
(-0.00022839 -0.00455428 0)
(-0.000385338 -0.00505681 0)
(-0.000581788 -0.00557024 0)
(-0.000819325 -0.00608749 0)
(-0.00109977 -0.0066027 0)
(-5.38316e-08 -0.000118797 0)
(-2.16477e-06 -0.000357859 0)
(-7.89997e-06 -0.000600032 0)
(-1.81862e-05 -0.00084942 0)
(-3.42509e-05 -0.00110891 0)
(-5.7916e-05 -0.00138185 0)
(-9.14213e-05 -0.00167176 0)
(-0.000137345 -0.0019812 0)
(-0.000198418 -0.00231145 0)
(-0.000277561 -0.00266254 0)
(-0.000377787 -0.00303352 0)
(-0.000501928 -0.00342254 0)
(-0.000652519 -0.00382686 0)
(-0.000831642 -0.00424299 0)
(-0.00104069 -0.00466671 0)
(-0.00128033 -0.00509337 0)
(-0.0015499 -0.00551799 0)
(-0.00184985 -0.00593703 0)
(-1.3318e-06 -0.000112974 0)
(-1.37351e-05 -0.000340176 0)
(-3.95141e-05 -0.000569448 0)
(-7.86374e-05 -0.000803783 0)
(-0.000130894 -0.00104515 0)
(-0.000197107 -0.001296 0)
(-0.000278619 -0.00155888 0)
(-0.000376899 -0.0018355 0)
(-0.000493461 -0.00212634 0)
(-0.00062982 -0.00243085 0)
(-0.000787368 -0.00274774 0)
(-0.000967223 -0.00307507 0)
(-0.00117012 -0.00341039 0)
(-0.00139634 -0.00375087 0)
(-0.00164561 -0.0040934 0)
(-0.00191714 -0.00443479 0)
(-0.00220919 -0.00477182 0)
(-0.0025216 -0.00510259 0)
(-2.18676e-06 -0.000101878 0)
(-2.2216e-05 -0.000305961 0)
(-6.32953e-05 -0.000510916 0)
(-0.000124403 -0.000719147 0)
(-0.000203905 -0.000932041 0)
(-0.000301608 -0.0011514 0)
(-0.000417965 -0.00137913 0)
(-0.000553484 -0.00161637 0)
(-0.000708676 -0.00186324 0)
(-0.000884026 -0.00211908 0)
(-0.00107988 -0.00238263 0)
(-0.00129632 -0.00265227 0)
(-0.00153309 -0.00292612 0)
(-0.00178957 -0.00320211 0)
(-0.00206472 -0.0034781 0)
(-0.00235718 -0.00375201 0)
(-0.00266491 -0.00402181 0)
(-0.00298739 -0.00428655 0)
(-2.65494e-06 -8.93583e-05 0)
(-2.75718e-05 -0.0002682 0)
(-7.8802e-05 -0.000447641 0)
(-0.000154469 -0.000629595 0)
(-0.000251823 -0.000815022 0)
(-0.000369905 -0.00100527 0)
(-0.000508499 -0.00120177 0)
(-0.00066743 -0.0014053 0)
(-0.000846538 -0.00161576 0)
(-0.00104568 -0.00183246 0)
(-0.00126459 -0.00205429 0)
(-0.0015028 -0.0022799 0)
(-0.00175956 -0.00250783 0)
(-0.00203384 -0.00273653 0)
(-0.00232426 -0.00296452 0)
(-0.00262923 -0.00319035 0)
(-0.00294669 -0.00341272 0)
(-0.0032759 -0.00363111 0)
(-3.02706e-06 -7.64099e-05 0)
(-3.16587e-05 -0.000229373 0)
(-9.04628e-05 -0.000383 0)
(-0.000176799 -0.000538763 0)
(-0.000287066 -0.000697329 0)
(-0.000419696 -0.000859735 0)
(-0.000573916 -0.00102703 0)
(-0.000749013 -0.00119968 0)
(-0.000944355 -0.00137744 0)
(-0.00115938 -0.00155961 0)
(-0.00139349 -0.0017452 0)
(-0.00164591 -0.00193309 0)
(-0.00191568 -0.00212216 0)
(-0.0022016 -0.00231133 0)
(-0.00250217 -0.00249957 0)
(-0.00281575 -0.00268598 0)
(-0.00314027 -0.00286972 0)
(-0.00347495 -0.00305054 0)
(-3.3102e-06 -6.37438e-05 0)
(-3.48202e-05 -0.000191511 0)
(-9.93592e-05 -0.000320265 0)
(-0.00019358 -0.000451082 0)
(-0.000313235 -0.000584501 0)
(-0.000456235 -0.000721317 0)
(-0.000621294 -0.000862202 0)
(-0.000807269 -0.00100734 0)
(-0.00101319 -0.00115638 0)
(-0.00123824 -0.00130858 0)
(-0.00148162 -0.00146301 0)
(-0.00174248 -0.00161872 0)
(-0.00201983 -0.00177483 0)
(-0.00231246 -0.00193062 0)
(-0.00261891 -0.00208547 0)
(-0.00293749 -0.00223885 0)
(-0.00326619 -0.00239034 0)
(-0.00360408 -0.00253992 0)
(-3.55297e-06 -5.17235e-05 0)
(-3.74017e-05 -0.000155864 0)
(-0.00010628 -0.000261513 0)
(-0.000206177 -0.000369281 0)
(-0.000332298 -0.000479838 0)
(-0.000481989 -0.000593877 0)
(-0.000653546 -0.000711555 0)
(-0.000845588 -0.000832692 0)
(-0.00105695 -0.000956762 0)
(-0.00128669 -0.00108294 0)
(-0.00153394 -0.00121031 0)
(-0.0017979 -0.00133796 0)
(-0.00207774 -0.00146529 0)
(-0.00237232 -0.00159193 0)
(-0.00268026 -0.00171757 0)
(-0.00300001 -0.00184204 0)
(-0.00332961 -0.0019653 0)
(-0.00366828 -0.00208756 0)
(-3.8137e-06 -4.04334e-05 0)
(-3.94957e-05 -0.000122977 0)
(-0.000111077 -0.000207615 0)
(-0.000214076 -0.000294326 0)
(-0.000343125 -0.000383774 0)
(-0.000495131 -0.000477112 0)
(-0.000668209 -0.000574275 0)
(-0.000861049 -0.000674817 0)
(-0.00107248 -0.000778012 0)
(-0.00130149 -0.000882883 0)
(-0.00154719 -0.000988419 0)
(-0.00180901 -0.00109348 0)
(-0.00208628 -0.00119755 0)
(-0.00237793 -0.00130066 0)
(-0.00268264 -0.00140275 0)
(-0.00299908 -0.00150388 0)
(-0.00332549 -0.00160432 0)
(-0.00366127 -0.00170437 0)
(-4.09191e-06 -2.97903e-05 0)
(-4.02639e-05 -9.28173e-05 0)
(-0.000111551 -0.000159137 0)
(-0.000213323 -0.000228635 0)
(-0.000339144 -0.000303317 0)
(-0.000488386 -0.000381402 0)
(-0.000658985 -0.000462622 0)
(-0.000849221 -0.000546677 0)
(-0.00105754 -0.000632722 0)
(-0.00128263 -0.000719622 0)
(-0.00152332 -0.000806273 0)
(-0.00177908 -0.00089148 0)
(-0.00204865 -0.000974977 0)
(-0.00233198 -0.00105655 0)
(-0.00262787 -0.00113641 0)
(-0.00293532 -0.00121508 0)
(-0.00325267 -0.00129319 0)
(-0.00358009 -0.00137135 0)
(-3.60392e-06 -2.11979e-05 0)
(-3.70108e-05 -6.8834e-05 0)
(-0.000104808 -0.000121003 0)
(-0.000201528 -0.000176654 0)
(-0.000318822 -0.000236232 0)
(-0.000461372 -0.000300508 0)
(-0.000625361 -0.000367297 0)
(-0.00080742 -0.00043652 0)
(-0.00100487 -0.000507481 0)
(-0.00121575 -0.000579005 0)
(-0.00143878 -0.000650155 0)
(-0.00167332 -0.000718915 0)
(-0.00191664 -0.000786047 0)
(-0.00217216 -0.000851923 0)
(-0.00244019 -0.000915449 0)
(-0.00272069 -0.000977352 0)
(-0.00301247 -0.00103834 0)
(-0.00331711 -0.00109979 0)
(-5.62933e-07 -1.54421e-05 0)
(-2.7423e-05 -4.95809e-05 0)
(-8.68055e-05 -8.83372e-05 0)
(-0.000170911 -0.000132605 0)
(-0.000278513 -0.000179749 0)
(-0.000397763 -0.000230528 0)
(-0.000527373 -0.00028521 0)
(-0.000668033 -0.00034358 0)
(-0.000821757 -0.000404381 0)
(-0.000991578 -0.000465877 0)
(-0.001182 -0.000526231 0)
(-0.00139626 -0.000584285 0)
(-0.00164311 -0.000637788 0)
(-0.00192221 -0.000686762 0)
(-0.00223574 -0.000732042 0)
(-0.00258465 -0.000775056 0)
(-0.00296771 -0.000817215 0)
(-0.00338224 -0.000861147 0)
(3.93771e-06 -1.32547e-05 0)
(7.88516e-08 -3.9324e-05 0)
(-3.06855e-05 -6.83037e-05 0)
(-9.63718e-05 -0.000101578 0)
(-0.000204464 -0.000139355 0)
(-0.000359751 -0.000181933 0)
(-0.000568941 -0.00022819 0)
(-0.00083652 -0.000276095 0)
(-0.00116467 -0.000323442 0)
(-0.00155389 -0.000367948 0)
(-0.00200304 -0.000407477 0)
(-0.00250908 -0.000439521 0)
(-0.00306703 -0.000462665 0)
(-0.00367119 -0.000477032 0)
(-0.00431578 -0.000483339 0)
(-0.00499534 -0.00048334 0)
(-0.00570513 -0.000479317 0)
(-0.00644258 -0.000473501 0)
(-1.30611e-05 -8.70057e-06 0)
(-9.68369e-05 -2.38074e-05 0)
(-0.000260499 -3.93904e-05 0)
(-0.000503744 -5.58805e-05 0)
(-0.000820774 -7.22342e-05 0)
(-0.00120938 -8.83831e-05 0)
(-0.00166677 -0.000103371 0)
(-0.0021864 -0.000115964 0)
(-0.00275793 -0.000124939 0)
(-0.00336796 -0.00012927 0)
(-0.00400087 -0.000128321 0)
(-0.00463945 -0.00012191 0)
(-0.00526605 -0.000110664 0)
(-0.00586573 -9.60329e-05 0)
(-0.00642754 -7.91593e-05 0)
(-0.0069443 -6.11268e-05 0)
(-0.00741426 -4.27126e-05 0)
(-0.0078345 -2.64887e-05 0)
(-0.00557301 -0.0167786 1.97773e-21)
(0.000610264 0.00198512 -3.27721e-21)
(-0.00757644 0.0292522 0)
(-0.0256245 0.0556268 0)
(-0.0466436 0.0770323 0)
(-0.0718967 0.0897651 4.31907e-21)
(-0.0984925 0.0944711 0)
(-0.124385 0.0932946 0)
(-0.148451 0.0883118 0)
(-0.170093 0.0809215 0)
(-0.188906 0.0718293 -2.52278e-21)
(-0.20443 0.0617006 0)
(-0.216633 0.0529103 0)
(-0.227584 0.0525375 0)
(-0.237566 0.0735291 0)
(-0.253931 0.0668487 -1.23781e-21)
(-0.270523 0.0354453 0)
(-0.278319 0.0250995 0)
(-0.286703 0.0231876 0)
(-0.296375 0.0213874 0)
(-0.306523 0.019728 0)
(-0.317199 0.0190278 0)
(-0.328683 0.0191296 0)
(-0.341097 0.0196589 -7.81679e-22)
(-0.354441 0.0203833 7.60577e-22)
(-0.368656 0.0211732 -7.41115e-22)
(-0.383646 0.0219414 -7.2274e-22)
(-0.399292 0.0226273 0)
(-0.415461 0.0231953 0)
(-0.432017 0.0236295 6.71027e-22)
(-0.448823 0.0239278 6.54405e-22)
(-0.465754 0.0240955 0)
(-0.482689 0.0241416 0)
(-0.499518 0.0240759 6.05648e-22)
(-0.516139 0.0239076 0)
(-0.532458 0.0236443 0)
(-0.548386 0.0232919 -5.58665e-22)
(-0.56384 0.0228549 0)
(-0.578743 0.0223361 -5.28699e-22)
(-0.593018 0.0217371 -1.02848e-21)
(-0.606592 0.0210585 0)
(-0.619392 0.0203001 0)
(-0.631349 0.0194611 0)
(-0.642391 0.0185405 0)
(-0.652448 0.0175369 0)
(-0.661447 0.016449 -8.75556e-22)
(-0.669317 0.0152755 -8.544e-22)
(-0.675986 0.0140157 -8.34746e-22)
(-0.681381 0.0126693 0)
(-0.685429 0.0112367 8.00347e-22)
(-0.688058 0.00971957 0)
(-0.689196 0.00812052 -7.73178e-22)
(-0.688775 0.00644375 -7.62565e-22)
(-0.686728 0.00469508 0)
(-0.682996 0.00288207 0)
(-0.677522 0.00101415 0)
(-0.670261 -0.000897373 -7.42331e-22)
(-0.661175 -0.00283937 0)
(-0.650238 -0.00479694 0)
(-0.637439 -0.00675357 0)
(-0.62278 -0.00869129 0)
(-0.606278 -0.0105909 0)
(-0.587972 -0.0124325 0)
(-0.567917 -0.0141958 0)
(-0.546187 -0.0158608 0)
(-0.522879 -0.0174085 8.4396e-22)
(-0.498106 -0.0188214 0)
(-0.472001 -0.0200844 0)
(-0.444715 -0.0211851 -9.18902e-22)
(-0.41641 -0.0221143 -9.46713e-22)
(-0.387264 -0.0228668 0)
(-0.357459 -0.0234411 1.00458e-21)
(-0.327185 -0.0238397 -1.0339e-21)
(-0.296633 -0.0240693 0)
(-0.265989 -0.0241399 1.09148e-21)
(-0.235433 -0.0240643 0)
(-0.205137 -0.0238565 0)
(-0.175257 -0.0235307 -1.17033e-21)
(-0.145934 -0.0230997 0)
(-0.117296 -0.0225747 1.215e-21)
(-0.0894492 -0.0219654 0)
(-0.062484 -0.0212813 -1.25218e-21)
(-0.0364715 -0.0205328 -1.26798e-21)
(-0.0114631 -0.0197328 -1.28205e-21)
(0.012509 -0.0188962 -2.58918e-21)
(0.0354317 -0.0180391 2.61179e-21)
(0.0573081 -0.0171768 0)
(0.0781544 -0.016322 0)
(0.0979945 -0.015482 0)
(0.116854 -0.0146586 2.69727e-21)
(0.134755 -0.0138481 2.72296e-21)
(0.151708 -0.0130426 -2.75127e-21)
(0.167714 -0.0122327 0)
(0.18276 -0.0114103 2.81209e-21)
(0.19682 -0.0105699 2.84183e-21)
(0.209868 -0.00971045 2.86936e-21)
(0.221873 -0.00883474 0)
(0.232812 -0.00794839 0)
(0.242667 -0.00705918 0)
(0.251432 -0.00617651 2.93916e-21)
(0.259114 -0.00531108 0)
(0.265732 -0.00447433 0)
(0.271323 -0.00367776 -2.93482e-21)
(0.275938 -0.00293225 0)
(0.279645 -0.00224754 0)
(0.282527 -0.00163193 -2.87913e-21)
(0.284678 -0.00109215 0)
(0.286204 -0.00063334 0)
(0.287219 -0.000259119 2.78503e-21)
(0.287844 2.83321e-05 2.74879e-21)
(0.288197 0.000228107 0)
(0.288401 0.000338603 -2.67373e-21)
(0.28857 0.000355383 0)
(0.288798 0.000280824 2.59938e-21)
(0.289171 0.000146386 0)
(0.289828 5.71787e-05 2.52946e-21)
(0.290695 0.000209063 2.4954e-21)
(0.291833 0.000183307 0)
(0.293737 0.000202533 0)
(0.296061 -0.000175427 0)
(0.298781 -0.00050451 0)
(0.301977 -0.000820585 0)
(0.305668 -0.00114054 0)
(0.309866 -0.00146432 0)
(0.314569 -0.00178962 2.27271e-21)
(0.319769 -0.00211304 -2.24617e-21)
(0.325449 -0.00243003 0)
(0.331582 -0.00273539 0)
(0.33813 -0.00302336 0)
(0.345044 -0.00328749 0)
(0.352266 -0.00352131 -4.22263e-21)
(0.359723 -0.00371931 0)
(0.367334 -0.00387757 4.10939e-21)
(0.375012 -0.00399411 -4.05005e-21)
(0.382668 -0.00406815 0)
(0.390207 -0.004097 0)
(0.39753 -0.00406708 0)
(0.404548 -0.00395399 3.78591e-21)
(0.411192 -0.00378241 3.71216e-21)
(0.417401 -0.00359143 0)
(0.423121 -0.00338564 3.55384e-21)
(0.428314 -0.00316673 3.46825e-21)
(0.432951 -0.002937 -3.37742e-21)
(0.437019 -0.00269697 0)
(0.44051 -0.00244723 0)
(0.443425 -0.00219009 -3.06657e-21)
(0.445769 -0.00193025 0)
(0.447551 -0.00167367 0)
(0.448781 -0.00142399 0)
(0.449463 -0.00117917 0)
(0.44959 -0.000932917 2.41001e-21)
(0.449144 -0.000678239 2.26033e-21)
(0.448097 -0.000410185 0)
(0.446414 -0.00012719 1.94578e-21)
(0.444061 0.000170034 0)
(0.441006 0.000481496 0)
(0.437213 0.000809349 1.4412e-21)
(0.432641 0.00115388 0)
(0.427253 0.00151453 1.08734e-21)
(0.421013 0.00189493 0)
(0.413868 0.00230588 0)
(0.405735 0.00276551 5.37479e-22)
(0.396491 0.00328851 0)
(0.38599 0.00388395 1.60004e-22)
(0.374067 0.00456133 0)
(0.360533 0.00533771 0)
(0.345144 0.00624259 0)
(0.327595 0.00729412 6.28901e-22)
(0.307566 0.00849394 0)
(0.284739 0.00985319 -1.04828e-21)
(0.258751 0.0114041 0)
(0.229187 0.0131705 0)
(0.195638 0.0150404 0)
(0.158415 0.0163537 0)
(0.119948 0.0166295 0)
(0.0796996 0.0196129 0)
(0.0367068 0.0212385 0)
(-0.00694196 0.0184013 5.61792e-21)
(-0.0603903 0.0189662 0)
(-0.100203 0.013267 0)
(-0.0405644 0.0191165 -6.03333e-21)
(-0.0517837 0.0299263 1.02024e-20)
(-0.0723125 0.0348797 0)
(-0.0900606 0.0371068 -9.48149e-21)
(-0.0981271 0.038294 0)
(-0.105536 0.0379391 -4.61997e-21)
(-0.113216 0.0359783 8.59067e-21)
(-0.121773 0.0328861 7.75515e-21)
(-0.131544 0.029237 0)
(-0.142586 0.025388 6.11368e-21)
(-0.154883 0.0213611 2.65142e-21)
(-0.168528 0.0169972 0)
(-0.183675 0.0125192 0)
(-0.199536 0.00949866 0)
(-0.21177 0.0111918 0)
(-0.221393 0.0171512 1.49121e-21)
(-0.233935 0.0192813 0)
(-0.249891 0.0207788 -2.61023e-21)
(-0.266088 0.0228213 0)
(-0.281962 0.0249417 0)
(-0.297931 0.0270061 2.2202e-21)
(-0.314164 0.0291072 0)
(-0.330666 0.0312332 -2.06608e-21)
(-0.347453 0.0332786 9.8522e-22)
(-0.364552 0.0351341 -9.58719e-22)
(-0.381975 0.0367217 9.34113e-22)
(-0.399707 0.0379949 9.10682e-22)
(-0.417712 0.0389322 0)
(-0.435938 0.0395306 0)
(-0.45432 0.0398002 -8.43429e-22)
(-0.472783 0.0397595 8.52203e-22)
(-0.491246 0.0394314 0)
(-0.509624 0.0388404 0)
(-0.52783 0.0380105 -7.55278e-22)
(-0.545777 0.036964 0)
(-0.563378 0.0357211 0)
(-0.580548 0.0342996 6.89769e-22)
(-0.597204 0.0327146 0)
(-0.613262 0.0309789 -6.7561e-22)
(-0.628641 0.0291034 1.25211e-21)
(-0.643258 0.027097 0)
(-0.657034 0.0249668 0)
(-0.669888 0.0227191 2.31417e-21)
(-0.681737 0.0203586 2.23592e-21)
(-0.6925 0.0178896 2.15996e-21)
(-0.702095 0.0153158 -1.06554e-21)
(-0.71044 0.0126405 9.87018e-22)
(-0.717452 0.00986729 2.90292e-21)
(-0.723048 0.00700016 -1.8839e-21)
(-0.727146 0.00404374 -8.9527e-22)
(-0.729668 0.0010038 0)
(-0.730534 -0.00211244 8.43808e-22)
(-0.729672 -0.00529596 -8.42739e-22)
(-0.727014 -0.00853567 0)
(-0.722498 -0.0118182 0)
(-0.716071 -0.0151276 0)
(-0.70769 -0.0184455 7.56016e-22)
(-0.697325 -0.0217512 0)
(-0.684959 -0.0250216 -1.47575e-21)
(-0.670591 -0.0282312 0)
(-0.654236 -0.0313528 -1.45821e-21)
(-0.63593 -0.0343577 0)
(-0.615727 -0.0372157 1.46507e-21)
(-0.593701 -0.0398966 0)
(-0.569948 -0.0423704 -1.49595e-21)
(-0.544585 -0.0446084 7.46963e-22)
(-0.517749 -0.0465841 0)
(-0.489595 -0.0482742 1.58288e-21)
(-0.460296 -0.0496592 8.25807e-22)
(-0.430037 -0.0507244 8.47028e-22)
(-0.399017 -0.0514606 0)
(-0.36744 -0.0518643 8.60562e-22)
(-0.335516 -0.0519377 9.16754e-22)
(-0.303452 -0.0516897 0)
(-0.271455 -0.0511346 -9.64586e-22)
(-0.239721 -0.0502928 1.9445e-21)
(-0.208435 -0.0491895 0)
(-0.177763 -0.0478546 1.0314e-21)
(-0.147854 -0.0463214 0)
(-0.118831 -0.044626 -3.18027e-21)
(-0.0907911 -0.0428061 0)
(-0.0638014 -0.0408995 3.27811e-21)
(-0.0379016 -0.0389434 1.11594e-21)
(-0.0131047 -0.0369722 -1.10188e-21)
(0.0105993 -0.0350167 -2.22818e-21)
(0.0332377 -0.0331022 2.25134e-21)
(0.0548488 -0.0312471 0)
(0.075475 -0.029462 0)
(0.0951567 -0.0277488 0)
(0.113926 -0.0261015 -7.1526e-21)
(0.131802 -0.0245075 -2.4306e-21)
(0.148788 -0.0229503 2.46448e-21)
(0.16487 -0.0214128 0)
(0.180021 -0.0198803 2.50036e-21)
(0.194202 -0.0183437 -2.57423e-21)
(0.207372 -0.0168007 -2.60868e-21)
(0.219492 -0.0152551 0)
(0.230532 -0.0137153 0)
(0.240474 -0.0121931 0)
(0.249313 -0.0107023 -2.70708e-21)
(0.25706 -0.00925915 0)
(0.263742 -0.00788086 5.43397e-21)
(0.269405 -0.00658526 8.15924e-21)
(0.274113 -0.0053895 -5.42409e-21)
(0.277943 -0.00430926 0)
(0.280991 -0.00335806 -2.67919e-21)
(0.283364 -0.00254667 0)
(0.285179 -0.00188254 -5.27615e-21)
(0.286562 -0.00136916 2.60566e-21)
(0.28764 -0.00100548 2.5757e-21)
(0.288541 -0.00078477 0)
(0.289385 -0.000694412 7.55582e-21)
(0.290288 -0.000715424 -4.97044e-21)
(0.291344 -0.000809728 -2.45858e-21)
(0.292649 -0.000967247 0)
(0.294448 -0.00146019 -2.39905e-21)
(0.296426 -0.00218591 -7.10237e-21)
(0.298687 -0.00254374 0)
(0.301377 -0.00284496 -4.62773e-21)
(0.304604 -0.00329905 -4.57913e-21)
(0.308433 -0.00376976 -4.53218e-21)
(0.312797 -0.0042474 0)
(0.317692 -0.00472368 0)
(0.323112 -0.0051904 0)
(0.329048 -0.00563936 2.16931e-21)
(0.33548 -0.00606216 2.15634e-21)
(0.342379 -0.00645006 0)
(0.349704 -0.00679416 4.20807e-21)
(0.357406 -0.00708509 4.16053e-21)
(0.36542 -0.00731283 0)
(0.373673 -0.00746758 4.07375e-21)
(0.382076 -0.00754109 8.02895e-21)
(0.390536 -0.00752745 -3.97214e-21)
(0.398949 -0.00742349 -3.90293e-21)
(0.407211 -0.00722868 0)
(0.415217 -0.00694494 0)
(0.422872 -0.00657455 0)
(0.43008 -0.00611535 -3.67934e-21)
(0.436754 -0.00558495 3.60655e-21)
(0.442829 -0.00501 7.08088e-21)
(0.44826 -0.00440607 -3.46878e-21)
(0.453012 -0.00378688 3.3912e-21)
(0.457067 -0.0031635 3.30874e-21)
(0.460418 -0.00254691 0)
(0.46307 -0.0019454 0)
(0.46503 -0.0013635 -3.03328e-21)
(0.466304 -0.000801987 0)
(0.466894 -0.00025847 0)
(0.466793 0.000272807 5.38079e-21)
(0.465986 0.000800362 0)
(0.46445 0.00133287 2.44326e-21)
(0.462157 0.00187734 -2.28589e-21)
(0.459076 0.00243823 0)
(0.455173 0.00301678 2.02533e-21)
(0.450416 0.0036121 0)
(0.444776 0.00422439 0)
(0.438221 0.00485572 -1.53134e-21)
(0.430721 0.00550524 2.78529e-21)
(0.422248 0.0061713 -1.20652e-21)
(0.412773 0.00685832 0)
(0.40226 0.00758129 0)
(0.390643 0.00836486 7.68309e-22)
(0.377827 0.00922858 0)
(0.363695 0.0101848 4.38119e-22)
(0.348107 0.0112466 0)
(0.330904 0.0124368 0)
(0.311888 0.013789 0)
(0.290823 0.0153204 -3.44534e-22)
(0.267464 0.0170284 0)
(0.241571 0.0189172 7.17176e-22)
(0.212913 0.0209948 0)
(0.181323 0.0232204 0)
(0.146787 0.0253622 -2.46215e-21)
(0.109745 0.0267285 2.87028e-21)
(0.0712243 0.026813 0)
(0.0326465 0.0267655 0)
(-0.00727497 0.0270169 0)
(-0.0545994 0.0309218 -1.4037e-20)
(-0.109416 0.0323669 0)
(-0.157051 0.0266942 1.07941e-20)
(-0.0434451 0.119169 -1.73898e-25)
(-0.0584284 0.101837 -1.25417e-20)
(-0.077253 0.0880493 0)
(-0.0954561 0.0820551 1.84483e-20)
(-0.103461 0.0813811 0)
(-0.109889 0.0828858 0)
(-0.115909 0.0841921 -4.24015e-23)
(-0.122219 0.0843078 -7.58495e-21)
(-0.12938 0.0831102 -6.70505e-21)
(-0.13768 0.0808356 -5.96064e-21)
(-0.147249 0.0777964 0)
(-0.158207 0.0743257 0)
(-0.170687 0.0709276 4.06642e-21)
(-0.184509 0.0684354 7.24629e-21)
(-0.198529 0.0674403 -6.51612e-21)
(-0.211993 0.0662063 0)
(-0.226029 0.0639906 -5.43934e-21)
(-0.241409 0.0626432 2.54727e-21)
(-0.257545 0.0623589 0)
(-0.274184 0.062727 -4.50343e-21)
(-0.291312 0.0635821 -2.1662e-21)
(-0.308879 0.0648691 4.14291e-21)
(-0.326803 0.0664706 2.01443e-21)
(-0.345017 0.068218 0)
(-0.363475 0.0699445 -3.77482e-21)
(-0.38214 0.0715107 -3.67304e-21)
(-0.400975 0.072811 0)
(-0.419938 0.073772 -3.48147e-21)
(-0.438983 0.0743487 0)
(-0.458053 0.074519 -3.29647e-21)
(-0.477088 0.0742783 -1.61678e-21)
(-0.496018 0.0736344 0)
(-0.51477 0.0726027 0)
(-0.533266 0.0712028 0)
(-0.551425 0.0694558 0)
(-0.569165 0.0673826 0)
(-0.5864 0.0650026 0)
(-0.603045 0.0623331 -2.57054e-21)
(-0.619015 0.0593891 3.74052e-21)
(-0.634223 0.0561832 0)
(-0.648581 0.0527259 0)
(-0.662004 0.0490256 0)
(-0.674404 0.0450893 -3.26817e-23)
(-0.685693 0.0409227 -2.10213e-21)
(-0.695785 0.036531 -4.01962e-21)
(-0.704593 0.0319189 3.87301e-21)
(-0.712032 0.0270916 1.85029e-21)
(-0.718017 0.0220549 -1.81473e-21)
(-0.722465 0.0168161 3.09927e-23)
(-0.725294 0.0113846 -1.66005e-21)
(-0.726428 0.0057723 0)
(-0.725793 -5.50882e-06 -1.55255e-21)
(-0.723321 -0.00592963 2.89167e-23)
(-0.718951 -0.0119765 0)
(-0.71263 -0.0181178 0)
(-0.704316 -0.0243204 1.39328e-21)
(-0.693979 -0.0305462 0)
(-0.681599 -0.0367527 0)
(-0.667175 -0.0428929 -1.30743e-21)
(-0.65072 -0.048916 -2.64475e-21)
(-0.632266 -0.0547677 1.34079e-21)
(-0.611861 -0.0603913 0)
(-0.589576 -0.0657283 -1.35176e-21)
(-0.565503 -0.07072 0)
(-0.539754 -0.0753093 -1.36131e-21)
(-0.512462 -0.0794419 -1.41317e-21)
(-0.48378 -0.083069 2.87324e-21)
(-0.453881 -0.086148 1.47e-21)
(-0.422952 -0.088645 0)
(-0.391195 -0.0905354 -3.12963e-21)
(-0.358822 -0.0918055 0)
(-0.32605 -0.0924527 -4.99104e-21)
(-0.2931 -0.0924864 -3.43528e-21)
(-0.26019 -0.0919277 -3.5406e-21)
(-0.22753 -0.0908089 3.64493e-21)
(-0.195319 -0.0891733 -5.60798e-21)
(-0.163739 -0.0870735 0)
(-0.13295 -0.0845702 0)
(-0.103087 -0.0817309 4.0261e-21)
(-0.0742535 -0.0786274 6.14734e-21)
(-0.0465246 -0.0753339 0)
(-0.0199418 -0.0719238 -2.11302e-21)
(0.00548391 -0.0684669 0)
(0.0297686 -0.065026 6.55104e-21)
(0.0529508 -0.0616537 -1.92577e-23)
(0.0750844 -0.0583896 1.63253e-23)
(0.0962316 -0.0552579 -4.53181e-21)
(0.116456 -0.0522665 0)
(0.135813 -0.0494071 4.63969e-21)
(0.154347 -0.0466567 -7.00926e-24)
(0.172084 -0.0439818 0)
(0.189028 -0.0413438 0)
(0.20516 -0.0387052 0)
(0.220444 -0.0360366 -5.00031e-21)
(0.234826 -0.0333213 0)
(0.248252 -0.0305586 0)
(0.260672 -0.0277613 0)
(0.272045 -0.0249516 0)
(0.282348 -0.0221574 0)
(0.291571 -0.0194108 -5.37582e-21)
(0.299723 -0.0167469 0)
(0.306831 -0.0142027 -5.40637e-21)
(0.31294 -0.011815 -5.40696e-21)
(0.318115 -0.00961809 5.39512e-21)
(0.322437 -0.00764286 0)
(0.326001 -0.00591518 5.33725e-21)