/*--------------------------------*- C++ -*----------------------------------*\
| =========                 |                                                 |
| \\      /  F ield         | OpenFOAM: The Open Source CFD Toolbox           |
|  \\    /   O peration     | Version:  2112                                  |
|   \\  /    A nd           | Website:  www.openfoam.com                      |
|    \\/     M anipulation  |                                                 |
\*---------------------------------------------------------------------------*/
FoamFile
{
    version     2.0;
    format      ascii;
    arch        "LSB;label=32;scalar=64";
    class       volScalarField;
    location    "0.27";
    object      ddt0(kU);
}
// * * * * * * * * * * * * * * * * * * * * * * * * * * * * * * * * * * * * * //

dimensions      [0 2 -3 0 0 0 0];

internalField   nonuniform List<scalar> 
12225
(
1.67707e-08
-1.6062e-07
-1.09862e-06
-3.37498e-06
-6.41205e-06
-6.07835e-06
7.24692e-06
5.0048e-05
0.000144802
0.000314589
0.000573271
0.000914826
0.00131673
0.00165036
0.00190576
0.00245108
0.00314552
0.0028098
8.55987e-08
4.63751e-07
1.36621e-06
3.13073e-06
6.42737e-06
1.26609e-05
2.44453e-05
4.57407e-05
8.17407e-05
0.000138762
0.000224735
0.00034928
0.000518391
0.000772815
0.0010653
0.000896632
0.000240691
-0.00589463
2.37247e-09
5.86917e-08
2.3008e-07
6.2536e-07
1.35312e-06
2.66788e-06
5.03253e-06
9.21329e-06
1.6291e-05
2.77588e-05
4.58076e-05
7.35747e-05
0.000114837
0.000172967
0.00024484
0.000251575
0.000111298
-0.00137143
-6.09312e-10
-1.67252e-09
1.57994e-08
7.53173e-08
2.06571e-07
4.43597e-07
8.4427e-07
1.49517e-06
2.54022e-06
4.18842e-06
6.74184e-06
1.07076e-05
1.6794e-05
2.56013e-05
3.71428e-05
4.25124e-05
2.70882e-05
-0.000134643
2.61853e-10
-8.14343e-09
-2.18028e-08
-3.46496e-08
-3.98884e-08
-2.94187e-08
6.55916e-09
7.69003e-08
1.96947e-07
3.90173e-07
7.11707e-07
1.21659e-06
2.00566e-06
3.16844e-06
4.7763e-06
6.19563e-06
6.142e-06
-4.07241e-06
9.83818e-10
-5.8383e-09
-1.85586e-08
-3.38036e-08
-5.05537e-08
-6.75935e-08
-8.29248e-08
-9.5482e-08
-1.05036e-07
-1.11062e-07
-1.0867e-07
-9.46782e-08
-6.18793e-08
-1.10523e-08
4.28094e-08
-9.29941e-09
-3.86351e-07
-1.84492e-06
1.57022e-09
-3.30878e-09
-1.41973e-08
-2.87479e-08
-4.64392e-08
-6.67871e-08
-8.8516e-08
-1.10941e-07
-1.34561e-07
-1.60527e-07
-1.90092e-07
-2.25028e-07
-2.68647e-07
-3.30999e-07
-4.36531e-07
-6.47974e-07
-1.08392e-06
-1.96575e-06
1.96049e-09
-1.3699e-09
-1.05682e-08
-2.36868e-08
-3.98577e-08
-5.86197e-08
-7.89981e-08
-1.00424e-07
-1.23502e-07
-1.49756e-07
-1.81254e-07
-2.21004e-07
-2.74299e-07
-3.5272e-07
-4.79944e-07
-7.03426e-07
-1.10206e-06
-1.77678e-06
2.18954e-09
1.42939e-10
-7.31367e-09
-1.87143e-08
-3.30971e-08
-5.00919e-08
-6.8995e-08
-8.92895e-08
-1.11486e-07
-1.37122e-07
-1.68447e-07
-2.08627e-07
-2.6274e-07
-3.40179e-07
-4.57496e-07
-6.42114e-07
-9.33038e-07
-1.36215e-06
2.29799e-09
1.28786e-09
-4.52168e-09
-1.42021e-08
-2.68256e-08
-4.20191e-08
-5.92173e-08
-7.79206e-08
-9.84864e-08
-1.22305e-07
-1.51505e-07
-1.88942e-07
-2.38725e-07
-3.07403e-07
-4.04951e-07
-5.45046e-07
-7.43218e-07
-1.0021e-06
2.31209e-09
2.09283e-09
-2.24858e-09
-1.02487e-08
-2.10845e-08
-3.43537e-08
-4.958e-08
-6.6311e-08
-8.47741e-08
-1.06124e-07
-1.32191e-07
-1.65279e-07
-2.08286e-07
-2.65104e-07
-3.40576e-07
-4.39609e-07
-5.64827e-07
-7.07592e-07
2.26348e-09
2.59525e-09
-5.51694e-10
-7.05294e-09
-1.62212e-08
-2.76421e-08
-4.08885e-08
-5.55345e-08
-7.16706e-08
-9.01748e-08
-1.12479e-07
-1.40263e-07
-1.75306e-07
-2.19482e-07
-2.7435e-07
-3.40235e-07
-4.14358e-07
-4.8619e-07
2.15161e-09
2.84324e-09
6.7181e-10
-4.46607e-09
-1.20421e-08
-2.16503e-08
-3.2885e-08
-4.5323e-08
-5.89288e-08
-7.42882e-08
-9.24112e-08
-1.1437e-07
-1.41012e-07
-1.7278e-07
-2.09278e-07
-2.48705e-07
-2.86612e-07
-3.14261e-07
1.96972e-09
2.89997e-09
1.61491e-09
-2.12631e-09
-7.96149e-09
-1.55195e-08
-2.4403e-08
-3.41931e-08
-4.47331e-08
-5.63195e-08
-6.95258e-08
-8.48476e-08
-1.02379e-07
-1.2161e-07
-1.41117e-07
-1.58431e-07
-1.69516e-07
-1.68444e-07
1.70916e-09
2.74005e-09
2.19076e-09
-2.22751e-10
-4.29634e-09
-9.69395e-09
-1.60141e-08
-2.28261e-08
-2.98775e-08
-3.7214e-08
-4.50385e-08
-5.33989e-08
-6.1888e-08
-6.94763e-08
-7.44837e-08
-7.43831e-08
-6.72684e-08
-4.98686e-08
1.35494e-09
2.34493e-09
2.3802e-09
1.25723e-09
-9.73965e-10
-4.05695e-09
-7.61169e-09
-1.12279e-08
-1.46095e-08
-1.76484e-08
-2.03229e-08
-2.24713e-08
-2.34798e-08
-2.22835e-08
-1.65488e-08
-6.47857e-09
7.69656e-09
2.8471e-08
8.87085e-10
1.60884e-09
1.87417e-09
1.59234e-09
8.58909e-10
-1.25041e-10
-1.02165e-09
-1.48908e-09
-1.27684e-09
-2.69225e-10
1.5658e-09
4.17759e-09
7.71113e-09
1.16563e-08
1.91262e-08
3.40966e-08
5.53621e-08
7.83903e-08
3.5228e-10
6.98851e-10
1.07135e-09
1.57655e-09
2.31403e-09
3.2841e-09
4.78387e-09
7.06149e-09
1.02894e-08
1.46212e-08
2.02456e-08
2.75292e-08
3.68092e-08
4.90626e-08
6.20726e-08
7.47043e-08
9.11221e-08
1.1306e-07
-2.5821e-10
-2.56548e-10
2.72988e-10
1.46847e-09
3.42325e-09
6.27186e-09
9.91424e-09
1.42856e-08
1.93568e-08
2.51586e-08
3.18154e-08
3.95408e-08
4.85909e-08
5.92011e-08
7.16273e-08
8.58659e-08
1.01421e-07
1.18195e-07
-7.01975e-10
-9.79671e-10
-3.19972e-10
1.49874e-09
4.42958e-09
8.38242e-09
1.31825e-08
1.86165e-08
2.45111e-08
3.08364e-08
3.77182e-08
4.538e-08
5.40284e-08
6.37506e-08
7.45112e-08
8.59983e-08
9.8335e-08
1.11424e-07
-9.89214e-10
-1.35341e-09
-4.38394e-10
1.91451e-09
5.56797e-09
1.03065e-08
1.58578e-08
2.18887e-08
2.81432e-08
3.45728e-08
4.1336e-08
4.86796e-08
5.68102e-08
6.58124e-08
7.56382e-08
8.61403e-08
9.71611e-08
1.08475e-07
-1.149e-09
-1.35275e-09
1.29367e-10
3.28544e-09
7.74532e-09
1.32037e-08
1.93334e-08
2.57372e-08
3.21412e-08
3.85504e-08
4.51976e-08
5.23817e-08
6.03115e-08
6.90331e-08
7.84333e-08
8.82941e-08
9.83676e-08
1.08442e-07
-1.20878e-09
-1.05487e-09
1.19271e-09
5.19656e-09
1.03729e-08
1.63501e-08
2.2739e-08
2.91001e-08
3.52081e-08
4.11714e-08
4.73108e-08
5.3963e-08
6.13432e-08
6.94841e-08
7.8248e-08
8.73991e-08
9.66568e-08
1.05822e-07
-1.16309e-09
-4.26985e-10
2.73454e-09
7.64888e-09
1.37405e-08
2.06896e-08
2.79859e-08
3.50523e-08
4.16569e-08
4.79885e-08
5.44447e-08
6.13988e-08
6.90588e-08
7.7418e-08
8.62856e-08
9.53773e-08
1.04383e-07
1.13095e-07
-9.79857e-10
6.58708e-10
4.73081e-09
9.86878e-09
1.55408e-08
2.16501e-08
2.78148e-08
3.3613e-08
3.90191e-08
4.43883e-08
5.01641e-08
5.67053e-08
6.4222e-08
7.27521e-08
8.21889e-08
9.23496e-08
1.02965e-07
1.13842e-07
-6.75702e-10
2.42089e-09
8.85487e-09
1.67024e-08
2.48915e-08
3.26257e-08
3.88772e-08
4.28919e-08
4.46531e-08
4.45296e-08
4.24806e-08
3.93514e-08
3.57323e-08
3.14274e-08
2.61719e-08
1.97709e-08
1.19669e-08
2.48461e-09
-3.12459e-10
1.52281e-09
2.3331e-09
-4.28907e-10
-8.73493e-09
-2.58003e-08
-5.35437e-08
-9.39903e-08
-1.49938e-07
-2.27804e-07
-3.39958e-07
-4.91637e-07
-6.8928e-07
-9.43627e-07
-1.26459e-06
-1.66281e-06
-2.15316e-06
-2.75485e-06
1.86357e-09
-6.69702e-09
-3.78765e-08
-1.02711e-07
-2.13372e-07
-4.01801e-07
-6.71992e-07
-1.0637e-06
-1.64112e-06
-2.49378e-06
-3.73099e-06
-5.49132e-06
-7.92239e-06
-1.11697e-05
-1.53884e-05
-2.07701e-05
-2.7593e-05
-3.6226e-05
-3.214e-08
-1.69591e-07
-4.69387e-07
-9.80222e-07
-1.77218e-06
-2.97391e-06
-4.83302e-06
-7.76483e-06
-1.24057e-05
-1.9545e-05
-3.01035e-05
-4.5086e-05
-6.55523e-05
-9.26194e-05
-0.000127536
-0.000171908
-0.00022814
-0.000298736
-2.4231e-09
5.72842e-08
3.3222e-07
1.00491e-06
2.13319e-06
3.43113e-06
3.98612e-06
1.86776e-06
-6.07736e-06
-2.41504e-05
-5.89499e-05
-0.000118672
-0.000213279
-0.000354076
-0.000552836
-0.000820595
-0.00116553
-0.00158887
-0.332998
-0.320989
-0.298278
-0.265556
-0.223896
-0.17496
-0.120681
-0.0632004
-0.00475933
0.0524874
0.106649
0.15622
0.200134
0.237735
0.268693
0.292969
0.310886
0.323305
0.331603
0.336828
0.338212
0.334166
0.325038
0.314037
0.302288
0.287868
0.269883
0.249701
0.228492
0.206775
0.184899
0.163229
0.142105
0.121799
0.102507
0.0843541
0.0674157
0.051726
0.0372831
0.0240551
0.0119858
0.0010016
-0.0089833
-0.0180603
-0.0263215
-0.0338566
-0.0407503
-0.0470796
-0.0529134
-0.058312
-0.0633263
-0.067997
-0.0723548
-0.0764214
-0.0802117
-0.083734
-0.0869896
-0.0899745
-0.092694
-0.0951263
-0.0972002
-0.0988618
-0.100075
-0.10081
-0.101041
-0.100746
-0.0999034
-0.0984957
-0.0965076
-0.0939268
-0.0907429
-0.0869488
-0.0825407
-0.07752
-0.0718935
-0.0656754
-0.0588881
-0.0515633
-0.0437408
-0.0354658
-0.0267896
-0.0177703
-0.00847225
0.00103534
0.0106799
0.0203883
0.0300916
0.0397312
0.0492665
0.0586805
0.0679789
0.0771787
0.0862532
0.0951018
0.10359
0.111617
0.119152
0.123893
0.12771
0.130742
0.133021
0.134588
0.135497
0.135818
0.135633
0.135038
0.134144
0.13307
0.13194
0.130877
0.130002
0.129425
0.129247
0.129557
0.130431
0.131931
0.134103
0.13698
0.140589
0.144965
0.150171
0.156288
0.16323
0.170968
0.179495
0.18881
0.198908
0.209774
0.221398
0.23377
0.246882
0.260714
0.275235
0.290397
0.306127
0.322316
0.33882
0.355461
0.372016
0.38822
0.403783
0.418402
0.431768
0.443564
0.453488
0.461276
0.466703
0.469595
0.469834
0.467368
0.46222
0.45444
0.444123
0.431415
0.4165
0.399601
0.380984
0.360988
0.339983
0.318353
0.296475
0.274708
0.253386
0.232808
0.213234
0.194883
0.177945
0.162603
0.149114
0.137948
0.129855
0.12619
0.132189
0.137581
0.166016
0.20372
0.241619
0.269846
0.283908
0.299499
-0.334737
-0.322936
-0.300181
-0.267409
-0.225871
-0.177539
-0.124612
-0.0693913
-0.0141499
0.03905
0.0885031
0.132944
0.171557
0.203936
0.229991
0.24986
0.263827
0.272318
0.275982
0.275763
0.272781
0.267922
0.260509
0.249065
0.234808
0.218819
0.20154
0.183276
0.16437
0.14518
0.126045
0.107252
0.0890315
0.0715587
0.0549601
0.0393288
0.0247292
0.0111989
-0.00124905
-0.0126233
-0.0229508
-0.0322732
-0.0406425
-0.0481175
-0.0547591
-0.0606266
-0.0657757
-0.0702573
-0.0741178
-0.0773994
-0.0801412
-0.0823775
-0.0841375
-0.0854458
-0.0863236
-0.0867872
-0.086844
-0.0864875
-0.0856929
-0.0844566
-0.0828055
-0.0807506
-0.0783013
-0.0754689
-0.0722669
-0.0687108
-0.0648171
-0.0606042
-0.0560919
-0.0513011
-0.0462549
-0.0409787
-0.035501
-0.0298534
-0.0240706
-0.0181903
-0.0122523
-0.00629741
-0.000366075
0.00550058
0.0112614
0.0168762
0.0223073
0.0275195
0.0324822
0.0371706
0.0415687
0.0456719
0.0494901
0.053047
0.0563735
0.059497
0.0624295
0.0651692
0.0677102
0.0700252
0.0704181
0.0716227
0.0728197
0.0739741
0.0751319
0.0763506
0.0776912
0.0792152
0.0809836
0.0830552
0.0854838
0.0883167
0.0915938
0.0953474
0.0996015
0.104372
0.109665
0.115481
0.121814
0.128654
0.135989
0.143812
0.152111
0.160869
0.170034
0.179507
0.189297
0.199374
0.2097
0.220234
0.230935
0.241759
0.252659
0.263585
0.274482
0.285288
0.295932
0.306334
0.316415
0.326098
0.335305
0.343959
0.351989
0.359334
0.36594
0.371767
0.376782
0.380967
0.384316
0.386833
0.388532
0.389437
0.389572
0.388959
0.387607
0.38552
0.382691
0.37909
0.374668
0.369356
0.363067
0.355703
0.34716
0.337339
0.326148
0.313525
0.299451
0.283968
0.267199
0.249366
0.2308
0.211967
0.193491
0.176223
0.161289
0.15028
0.146664
0.15005
0.17005
0.19952
0.2305
0.255041
0.269085
0.279789
-0.341743
-0.327226
-0.303688
-0.270466
-0.228896
-0.181128
-0.129546
-0.0765422
-0.0243651
0.0250517
0.0702052
0.110064
0.144044
0.171948
0.193882
0.210168
0.22125
0.227635
0.229871
0.228574
0.224414
0.217993
0.209556
0.19894
0.186707
0.173319
0.15906
0.144181
0.12894
0.113577
0.0983104
0.0833225
0.0687626
0.0547539
0.0413979
0.0287768
0.016954
0.00597418
-0.00413548
-0.0133642
-0.0217153
-0.0292044
-0.0358565
-0.0417042
-0.046785
-0.0511399
-0.0548108
-0.0578393
-0.0602646
-0.0621217
-0.063442
-0.0642554
-0.064592
-0.0644807
-0.0639476
-0.0630154
-0.0617032
-0.0600272
-0.0580048
-0.0556624
-0.0530305
-0.0501325
-0.0469893
-0.043622
-0.040052
-0.0363007
-0.0323894
-0.0283395
-0.024173
-0.0199125
-0.0155825
-0.0112092
-0.00681997
-0.00244372
0.00189028
0.0061531
0.0103173
0.014358
0.0182525
0.02198
0.0255229
0.028867
0.0320022
0.0349218
0.037623
0.0401074
0.042381
0.0444538
0.0463386
0.0480468
0.049584
0.0509491
0.0521451
0.0531929
0.0541447
0.053927
0.0547219
0.0558631
0.0571505
0.0585706
0.0601454
0.0619039
0.0638743
0.0660831
0.0685535
0.0713056
0.0743545
0.07771
0.0813774
0.085357
0.0896449
0.0942329
0.0991091
0.104258
0.109664
0.115308
0.121176
0.127253
0.133522
0.139952
0.146494
0.153098
0.159749
0.166417
0.173065
0.179657
0.18616
0.192547
0.19879
0.204861
0.210732
0.21638
0.221786
0.226934
0.231813
0.236417
0.24075
0.244825
0.248671
0.252329
0.255845
0.259256
0.262596
0.265893
0.269166
0.272421
0.275652
0.278839
0.281955
0.28496
0.287801
0.29042
0.292753
0.294719
0.296221
0.297151
0.297384
0.296771
0.295141
0.292312
0.288098
0.282319
0.274811
0.265455
0.254197
0.241085
0.226315
0.21027
0.193568
0.177142
0.162237
0.150451
0.144203
0.145832
0.159641
0.182583
0.207907
0.229809
0.244314
0.254743
-0.34654
-0.329739
-0.305327
-0.271431
-0.22953
-0.181952
-0.131319
-0.0801713
-0.0307535
0.0151322
0.0562012
0.0916787
0.121235
0.144897
0.162949
0.175853
0.184164
0.188474
0.189372
0.187424
0.183141
0.176934
0.169118
0.159969
0.149846
0.139043
0.127771
0.116209
0.10452
0.0928497
0.0813226
0.0700431
0.0591008
0.0485752
0.038537
0.0290477
0.0201581
0.0119076
0.00432437
-0.00257432
-0.00878112
-0.0142976
-0.0191331
-0.023304
-0.0268323
-0.029745
-0.0320724
-0.033847
-0.0351023
-0.0358722
-0.0361911
-0.0360947
-0.0356194
-0.0348015
-0.0336755
-0.032274
-0.0306283
-0.0287687
-0.0267255
-0.0245281
-0.0222035
-0.0197749
-0.0172634
-0.0146885
-0.0120683
-0.00941993
-0.00675947
-0.00410188
-0.00146143
0.00114826
0.00371412
0.0062236
0.00866469
0.0110263
0.0132984
0.0154727
0.0175429
0.0195056
0.02136
0.0231088
0.0247579
0.0263159
0.027793
0.0292
0.0305476
0.0318443
0.0330953
0.0343
0.0354492
0.0365238
0.037497
0.0383428
0.039049
0.039602
0.0399607
0.0412684
0.0429863
0.044902
0.046966
0.0491671
0.0515033
0.0539742
0.0565775
0.0593088
0.0621613
0.0651259
0.0681915
0.0713455
0.0745743
0.0778639
0.0812007
0.0845713
0.0879635
0.0913657
0.094768
0.0981618
0.10154
0.104898
0.108229
0.111523
0.114766
0.117948
0.121064
0.124109
0.127071
0.129941
0.132713
0.13538
0.137939
0.140389
0.142729
0.144967
0.147117
0.149194
0.151219
0.153217
0.155218
0.157257
0.159372
0.1616
0.163978
0.166536
0.169303
0.172304
0.175551
0.179039
0.182742
0.186619
0.190614
0.194655
0.198659
0.202537
0.206203
0.209572
0.212558
0.215082
0.217062
0.218405
0.219007
0.218759
0.217538
0.21522
0.211675
0.206779
0.200429
0.192561
0.183205
0.17253
0.160903
0.149041
0.13791
0.128767
0.123126
0.123954
0.133929
0.151614
0.172216
0.1916
0.206794
0.218285
-0.350476
-0.331316
-0.305887
-0.271322
-0.2291
-0.181591
-0.131624
-0.0819151
-0.0347415
0.00820517
0.0458418
0.0776316
0.103477
0.123602
0.138441
0.148554
0.154554
0.15706
0.156665
0.153919
0.14931
0.143244
0.136055
0.128041
0.119482
0.110605
0.10158
0.0925376
0.0835848
0.0748076
0.0662753
0.0580422
0.0501539
0.0426532
0.03558
0.0289705
0.0228554
0.0172595
0.0122009
0.00769147
0.00373626
0.000334144
-0.00252234
-0.00484676
-0.00665855
-0.00798249
-0.00884809
-0.00928871
-0.00934081
-0.00904321
-0.00843641
-0.00756197
-0.00646161
-0.00517617
-0.00374491
-0.00220502
-0.000591419
0.00106347
0.00273024
0.00438292
0.00599944
0.00756142
0.00905379
0.0104645
0.011784
0.0130055
0.0141243
0.0151385
0.0160482
0.0168557
0.0175647
0.0181802
0.0187081
0.0191553
0.0195301
0.0198422
0.0201032
0.0203266
0.0205288
0.0207279
0.0209439
0.0211972
0.0215073
0.0218907
0.0223594
0.0229191
0.0235673
0.0242915
0.0250677
0.025861
0.0266306
0.0273376
0.0279543
0.028452
0.0300665
0.0320871
0.0343084
0.0366902
0.0391974
0.0418073
0.0445021
0.0472641
0.0500741
0.0529101
0.0557478
0.0585618
0.0613264
0.0640166
0.0666098
0.0690861
0.0714294
0.0736275
0.0756727
0.0775613
0.079294
0.0808752
0.0823127
0.083617
0.0848004
0.0858758
0.0868566
0.0877557
0.088586
0.0893586
0.0900836
0.0907703
0.091427
0.0920622
0.092684
0.0933004
0.0939199
0.0945539
0.0952176
0.0959302
0.0967148
0.0975988
0.0986136
0.0997923
0.101168
0.102775
0.104643
0.106801
0.10927
0.112065
0.115189
0.118627
0.122351
0.126315
0.130454
0.134687
0.138915
0.143032
0.146927
0.150491
0.153616
0.15621
0.158194
0.159499
0.160073
0.159878
0.158872
0.157026
0.154313
0.15071
0.146199
0.140759
0.134423
0.127293
0.119594
0.111825
0.104514
0.0985143
0.0945771
0.0945618
0.100976
0.113244
0.128342
0.143864
0.158183
0.170242
-0.353257
-0.331799
-0.305269
-0.270143
-0.227795
-0.180465
-0.131107
-0.0826157
-0.0373195
0.00318176
0.0379874
0.0667736
0.0896421
0.106977
0.119325
0.127312
0.131577
0.13274
0.131376
0.128014
0.12312
0.117101
0.1103
0.103013
0.0954868
0.0879171
0.0804489
0.0731892
0.0662158
0.0595847
0.0533336
0.0474849
0.042056
0.0370629
0.03252
0.0284393
0.0248299
0.0216977
0.0190446
0.0168682
0.0151616
0.0139126
0.0131038
0.0127124
0.0127099
0.0130633
0.0137349
0.0146836
0.0158654
0.0172349
0.0187456
0.0203518
0.0220086
0.023674
0.0253086
0.0268769
0.028347
0.0296915
0.0308874
0.0319167
0.0327664
0.0334281
0.0338982
0.0341768
0.0342673
0.0341761
0.0339124
0.033488
0.0329172
0.0322162
0.0314019
0.0304915
0.0295025
0.0284526
0.0273605
0.0262459
0.02513
0.0240355
0.0229868
0.0220099
0.0211312
0.020376
0.0197661
0.0193176
0.019038
0.018926
0.0189709
0.0191549
0.0194557
0.0198511
0.0203264
0.0208791
0.0215193
0.0222435
0.0240269
0.0261663
0.0284968
0.0309777
0.0335761
0.036265
0.0390195
0.0418139
0.0446201
0.0474053
0.0501337
0.0527675
0.0552692
0.0576037
0.0597397
0.0616515
0.06332
0.0647328
0.0658849
0.0667783
0.0674217
0.0678302
0.0680243
0.0680287
0.0678713
0.0675816
0.067189
0.0667213
0.0662044
0.0656621
0.0651164
0.0645853
0.0640841
0.0636251
0.0632189
0.0628748
0.0626018
0.0624101
0.0623122
0.0623228
0.0624603
0.0627468
0.0632086
0.0638764
0.064784
0.0659677
0.0674644
0.069309
0.0715303
0.0741487
0.0771719
0.0805907
0.0843732
0.088471
0.0928123
0.0973041
0.101834
0.106276
0.110497
0.114353
0.11771
0.120443
0.122446
0.123642
0.123987
0.123478
0.122121
0.119953
0.117029
0.113413
0.109196
0.104439
0.0992276
0.0936516
0.0879461
0.0824828
0.0775575
0.0733804
0.0701423
0.0689441
0.0717408
0.0785398
0.0876601
0.0980046
0.109162
0.119611
-0.355018
-0.33121
-0.30359
-0.268139
-0.226006
-0.179148
-0.130542
-0.0832316
-0.0396059
-0.0011915
0.0312699
0.0576379
0.0781787
0.0934005
0.103929
0.110426
0.113534
0.113857
0.111947
0.108303
0.103369
0.0975361
0.0911444
0.0844798
0.0777762
0.0712166
0.064938
0.0590391
0.0535887
0.0486305
0.0441863
0.0402637
0.036864
0.0339844
0.0316189
0.0297583
0.0283906
0.0275006
0.0270696
0.0270753
0.0274909
0.0282853
0.0294228
0.0308635
0.032564
0.0344775
0.0365553
0.038747
0.0410018
0.0432695
0.0455012
0.0476506
0.0496753
0.0515375
0.0532045
0.0546487
0.0558481
0.0567854
0.0574485
0.0578308
0.0579312
0.0577539
0.0573081
0.0566063
0.0556644
0.0545001
0.0531332
0.0515855
0.0498805
0.0480431
0.0460974
0.0440661
0.0419699
0.0398298
0.0376673
0.0355052
0.0333674
0.0312798
0.0292699
0.0273672
0.025602
0.0240032
0.022595
0.0213919
0.0203958
0.019595
0.0189682
0.0184906
0.0181423
0.0179153
0.0178221
0.0179097
0.0182966
0.0192493
0.0209775
0.0230307
0.0253031
0.0277461
0.0303225
0.0330021
0.0357565
0.0385569
0.0413702
0.0441561
0.0468674
0.0494537
0.0518644
0.0540518
0.055974
0.0575969
0.0588958
0.0598553
0.0604706
0.0607464
0.0606972
0.0603459
0.0597232
0.0588656
0.0578138
0.0566104
0.0552979
0.0539159
0.0525008
0.0510869
0.0497043
0.048377
0.0471237
0.0459584
0.0448917
0.0439317
0.0430848
0.0423575
0.0417579
0.0412966
0.0409875
0.0408487
0.0409045
0.0411844
0.0417258
0.0425708
0.043765
0.0453539
0.0473799
0.0498782
0.0528729
0.0563673
0.0603289
0.0647202
0.0694655
0.0744599
0.0795712
0.0846454
0.0895179
0.0939917
0.0979106
0.101102
0.103424
0.104769
0.105083
0.104352
0.102647
0.100028
0.0966108
0.0925164
0.0879202
0.0830207
0.0779382
0.0728424
0.0679328
0.063456
0.0595792
0.0562211
0.0532136
0.051104
0.0512424
0.0538868
0.0581766
0.0637065
0.070809
0.0781354
-0.355788
-0.329553
-0.300969
-0.265537
-0.224035
-0.178019
-0.130405
-0.0843394
-0.0422775
-0.00569412
0.0248002
0.049217
0.0679543
0.0816133
0.0908725
0.0964088
0.0988578
0.0987991
0.0967548
0.0931917
0.0885261
0.0831268
0.077316
0.0713665
0.0655023
0.0599014
0.0546993
0.0499958
0.045859
0.0423295
0.0394252
0.0371485
0.0354912
0.0344378
0.0339661
0.0340489
0.034654
0.0357447
0.0372798
0.0392138
0.0414972
0.0440766
0.0468959
0.0498971
0.0530214
0.0562101
0.0594059
0.0625529
0.0655976
0.0684895
0.0711819
0.0736334
0.0758088
0.0776802
0.0792265
0.0804334
0.0812918
0.0817968
0.081948
0.0817494
0.0812103
0.0803453
0.0791733
0.0777166
0.0759991
0.0740457
0.0718815
0.0695326
0.0670277
0.0643969
0.0616683
0.058864
0.0560019
0.0530996
0.0501763
0.0472532
0.0443532
0.041501
0.0387243
0.0360541
0.0335245
0.0311699
0.0290199
0.027091
0.0253792
0.0238593
0.0224922
0.0212403
0.0200803
0.0190055
0.0180077
0.0170291
0.0158647
0.0186475
0.0204428
0.0223871
0.0245753
0.0269639
0.0295112
0.032186
0.0349585
0.0378006
0.0406791
0.0435474
0.0463465
0.0490106
0.0514729
0.0536704
0.0555478
0.0570605
0.0581759
0.0588744
0.0591491
0.0590065
0.0584651
0.057555
0.0563158
0.0547948
0.0530446
0.0511203
0.0490763
0.0469631
0.0448265
0.04271
0.0406504
0.0386767
0.0368092
0.035063
0.0334479
0.0319699
0.0306321
0.0294372
0.0283893
0.0274951
0.0267659
0.0262179
0.0258752
0.0257659
0.0259321
0.0264253
0.0273029
0.0286256
0.0304539
0.0328437
0.0358433
0.0394796
0.0437023
0.0485066
0.0538178
0.0595215
0.0654648
0.0714649
0.0773345
0.0827463
0.0875635
0.0915451
0.0944957
0.0962671
0.0968037
0.0959369
0.0939273
0.0908115
0.086753
0.081954
0.0766622
0.0711118
0.0655262
0.0601387
0.0551686
0.0508139
0.0471749
0.0440892
0.0412621
0.0388635
0.0377056
0.038056
0.0394727
0.041804
0.0456242
0.0499915
-0.355506
-0.326836
-0.297546
-0.262561
-0.222131
-0.177335
-0.130964
-0.0862387
-0.045676
-0.0107236
0.0181069
0.0409462
0.0582943
0.0708207
0.0792372
0.0842262
0.0864088
0.0863378
0.0845031
0.0813384
0.0772287
0.0725152
0.0674964
0.0624272
0.05752
0.0529472
0.0488439
0.0453109
0.0424178
0.0402065
0.0386956
0.0378858
0.0377637
0.0383045
0.0394738
0.0412288
0.0435195
0.0462894
0.0494759
0.053012
0.056827
0.0608478
0.0650011
0.0692145
0.0734185
0.0775477
0.0815415
0.0853437
0.0889026
0.0921711
0.095108
0.0976791
0.0998589
0.101631
0.10299
0.103936
0.104473
0.10461
0.104353
0.103714
0.102708
0.101355
0.0996818
0.097715
0.0954832
0.0930134
0.0903313
0.087463
0.0844397
0.0812982
0.0780717
0.0747784
0.0714264
0.0680245
0.0645863
0.0611288
0.057671
0.0542334
0.0508402
0.0475212
0.0443125
0.0412554
0.0383888
0.0357367
0.0332934
0.031017
0.028845
0.0267258
0.0246549
0.0227001
0.0210202
0.0199012
0.0198418
0.0208817
0.0222588
0.0240389
0.0261525
0.0284971
0.0310208
0.0336969
0.0364951
0.0393922
0.0423615
0.045353
0.0482941
0.0510996
0.0536802
0.0559545
0.0578518
0.0593158
0.0603059
0.0607976
0.0607829
0.06027
0.0592828
0.0578592
0.0560492
0.0539119
0.0515127
0.0489195
0.0461986
0.043411
0.0406104
0.0378485
0.0351658
0.0325936
0.0301517
0.0278531
0.0257045
0.0237078
0.021862
0.0201649
0.018616
0.0172189
0.015983
0.0149248
0.0140775
0.0134633
0.013132
0.0131477
0.0135847
0.0145242
0.01605
0.0182454
0.0211931
0.0249706
0.0294663
0.0347368
0.0407131
0.0472729
0.0542439
0.061413
0.0686382
0.0752704
0.0812991
0.0863842
0.090262
0.0927281
0.0936514
0.0929838
0.0908003
0.0872191
0.0824493
0.076761
0.0704698
0.0638956
0.0573498
0.0511329
0.045509
0.0406811
0.0367365
0.0335337
0.0307788
0.0284312
0.0268966
0.0263396
0.0264948
0.0272598
0.0291399
0.031593
-0.354065
-0.323082
-0.293477
-0.25941
-0.220474
-0.177238
-0.132333
-0.0890302
-0.0499113
-0.0164196
0.0110001
0.032566
0.0488531
0.0605791
0.0684762
0.0732256
0.0754319
0.0756211
0.0742512
0.0717232
0.0683901
0.0645632
0.0605142
0.056477
0.0526497
0.0491958
0.046246
0.0438995
0.042226
0.0412688
0.0410472
0.0415613
0.042794
0.044714
0.0472778
0.0504306
0.0541084
0.0582387
0.0627421
0.0675347
0.07253
0.0776412
0.0827831
0.0878748
0.0928416
0.0976171
0.102143
0.106367
0.110242
0.113725
0.116781
0.119381
0.121507
0.123155
0.124333
0.125059
0.125353
0.125232
0.124708
0.123793
0.122504
0.120865
0.118903
0.11665
0.114136
0.111386
0.108421
0.105263
0.10194
0.0985048
0.0950046
0.0914514
0.0878334
0.0841452
0.0803939
0.076593
0.0727563
0.0688978
0.0650337
0.0611872
0.0573912
0.0536894
0.0501299
0.046749
0.0435445
0.0404603
0.0373982
0.0342659
0.0310277
0.0277438
0.0245519
0.0216063
0.0241774
0.025035
0.0261279
0.0277816
0.0298616
0.0321792
0.0346785
0.0373545
0.0401714
0.0431128
0.046171
0.0492962
0.0523979
0.05537
0.0580815
0.0604287
0.0623254
0.0637041
0.0645174
0.0647382
0.0643598
0.0633957
0.061879
0.05986
0.0574036
0.0545853
0.0514871
0.0481924
0.0447815
0.0413252
0.0378841
0.0345159
0.0312607
0.0281465
0.0251862
0.0223841
0.0197374
0.0172383
0.0148757
0.0126389
0.0105201
0.00851764
0.00663741
0.00489268
0.00335115
0.0020205
0.00096365
0.000263826
1.9162e-05
0.00033924
0.00134019
0.00313953
0.00585942
0.00967894
0.0143962
0.0201273
0.0268188
0.034342
0.0425034
0.0510464
0.0596759
0.0679693
0.0756105
0.0822159
0.0874386
0.0909954
0.0926885
0.0924342
0.090263
0.0863162
0.0808425
0.0741763
0.0667115
0.0588634
0.0510381
0.0436146
0.0369182
0.0311862
0.026525
0.0228447
0.0198982
0.0175512
0.0159474
0.0151317
0.0148961
0.0151189
0.0161268
0.0176596
-0.351359
-0.318361
-0.288928
-0.256243
-0.219166
-0.177769
-0.134507
-0.0926822
-0.054948
-0.0227661
0.00345617
0.0239965
0.039482
0.0506623
0.0582803
0.0630113
0.0654425
0.0660758
0.0653393
0.0636008
0.0611825
0.058366
0.0553955
0.052483
0.0498091
0.0475244
0.0457512
0.0445838
0.0440893
0.04431
0.0452649
0.0469528
0.0493541
0.0524333
0.056141
0.0604153
0.0651831
0.0703613
0.0758597
0.0815839
0.0874384
0.0933288
0.0991641
0.10486
0.110339
0.11554
0.120411
0.124907
0.128986
0.132608
0.135739
0.138352
0.140431
0.14198
0.14302
0.143592
0.143736
0.143477
0.142823
0.141782
0.140369
0.138607
0.136528
0.134165
0.13155
0.128708
0.12565
0.122377
0.118908
0.115324
0.111709
0.108066
0.104344
0.100517
0.0965937
0.0925894
0.0885167
0.0843825
0.0801925
0.0759578
0.0716998
0.0674525
0.0632609
0.0591667
0.0551738
0.0512346
0.0472317
0.0430378
0.038552
0.0338666
0.0291782
0.0308801
0.0310861
0.0311173
0.0318084
0.0333633
0.0354755
0.0377913
0.0402717
0.0429726
0.0458308
0.0488295
0.0520025
0.0552995
0.0586016
0.0618097
0.0646792
0.067083
0.0689233
0.0701245
0.070635
0.0704286
0.0695049
0.0678893
0.0656317
0.062804
0.0594958
0.0558091
0.0518519
0.0477317
0.0435484
0.0393878
0.0353185
0.031392
0.0276589
0.0241307
0.020803
0.0176596
0.0146754
0.0118194
0.00905844
0.00636169
0.00370437
0.00107189
-0.00153942
-0.00414851
-0.00659427
-0.00891021
-0.0110062
-0.0127701
-0.0140676
-0.0147466
-0.0146434
-0.0135916
-0.01143
-0.00800173
-0.00329953
0.00274519
0.0100973
0.0186325
0.0281388
0.0383177
0.048795
0.0591225
0.0688362
0.0774522
0.0845155
0.0896399
0.09254
0.0930637
0.0912045
0.0871062
0.0810519
0.0734398
0.0647494
0.0554978
0.0461952
0.0373109
0.0292429
0.0222784
0.0165599
0.0120501
0.00855759
0.00591937
0.00413222
0.00315318
0.00279032
0.00289453
0.00362182
0.0048536
-0.347345
-0.312802
-0.28407
-0.253175
-0.218236
-0.178879
-0.137384
-0.0970672
-0.0606578
-0.0296552
-0.00445456
0.0152576
0.0301419
0.0409672
0.0484791
0.0533429
0.0561279
0.0573126
0.0572986
0.0564249
0.0549811
0.0532184
0.0513578
0.0495877
0.0480684
0.0469364
0.0463025
0.0462529
0.0468496
0.0481315
0.0501159
0.0527997
0.0561619
0.0601652
0.0647585
0.069878
0.075447
0.0813775
0.0875741
0.0939384
0.100373
0.106782
0.113074
0.119164
0.124975
0.130447
0.13554
0.140219
0.144445
0.148182
0.151392
0.154045
0.15612
0.157617
0.158567
0.15904
0.159113
0.158818
0.158142
0.15708
0.155644
0.153858
0.151755
0.149373
0.146749
0.143918
0.140885
0.137617
0.134088
0.13043
0.126772
0.123121
0.11935
0.115418
0.11135
0.107182
0.102933
0.098607
0.0941993
0.0897095
0.0851436
0.0805122
0.0758311
0.0711144
0.0663243
0.0614956
0.0565322
0.0514073
0.0457556
0.0397806
0.0409807
0.0404658
0.0394062
0.0386367
0.0388539
0.0403236
0.0425134
0.0448302
0.0473072
0.0501295
0.0531532
0.0563231
0.0597569
0.0633855
0.0669901
0.0707156
0.0738936
0.0764176
0.0781946
0.079145
0.0792156
0.0783847
0.0766636
0.0740977
0.0707647
0.0667715
0.062248
0.0573395
0.0521977
0.0469705
0.0417937
0.0367826
0.0320335
0.0275347
0.0234247
0.0196656
0.0162235
0.0130468
0.0100698
0.00721794
0.00441368
0.00158335
-0.00133651
-0.00439282
-0.00761066
-0.0109923
-0.0144757
-0.0180108
-0.0214914
-0.0247693
-0.0276591
-0.0299441
-0.0313861
-0.0317375
-0.030759
-0.0282332
-0.024018
-0.0180145
-0.0102213
-0.000746986
0.0101826
0.0222235
0.0349235
0.0477395
0.0600728
0.0713015
0.0808291
0.0881341
0.0928145
0.094628
0.0935161
0.0896126
0.083231
0.0748354
0.0649976
0.0543437
0.0434955
0.0330215
0.0233983
0.0149693
0.00791807
0.00225303
-0.00216663
-0.00549974
-0.00781751
-0.00920436
-0.0098315
-0.00985442
-0.00922936
-0.00803928
-0.342114
-0.306601
-0.279067
-0.250281
-0.217656
-0.180451
-0.140787
-0.101985
-0.0668462
-0.0369203
-0.0126078
0.00642296
0.0208518
0.0314559
0.0389772
0.0440676
0.0472765
0.0490589
0.0497911
0.0497857
0.0493053
0.0485726
0.0477797
0.047094
0.0466588
0.0465927
0.0469938
0.047939
0.0494831
0.0516603
0.0544849
0.0579525
0.0620413
0.0667152
0.0719256
0.0776117
0.0836981
0.0900961
0.0967098
0.103443
0.110204
0.116904
0.123459
0.129784
0.135793
0.141424
0.146642
0.151423
0.155736
0.159547
0.162827
0.165542
0.167661
0.169161
0.170055
0.170463
0.170511
0.170241
0.169595
0.168543
0.167095
0.165281
0.163136
0.16069
0.157974
0.15508
0.152039
0.148801
0.145273
0.141671
0.137937
0.134196
0.130254
0.126083
0.121754
0.117338
0.112867
0.108343
0.103757
0.0991018
0.0943773
0.0895687
0.0846471
0.0795725
0.0739366
0.0682054
0.0621128
0.0567005
0.0501748
0.0515285
0.0511256
0.0497967
0.0482013
0.0468605
0.0465749
0.0478252
0.0499216
0.0521079
0.0545904
0.0577112
0.0611964
0.0648539
0.068943
0.0733316
0.0772596
0.0823655
0.0862343
0.0891345
0.0910069
0.0917679
0.0913614
0.0897702
0.0870206
0.083184
0.0783763
0.0727538
0.0665049
0.05984
0.0529782
0.0461338
0.0395041
0.0332568
0.0275162
0.0223565
0.0178315
0.0139311
0.0105995
0.00774412
0.00524381
0.00295827
0.000737071
-0.0015703
-0.0041041
-0.00698383
-0.010298
-0.0140964