/*--------------------------------*- C++ -*----------------------------------*\
| =========                 |                                                 |
| \\      /  F ield         | OpenFOAM: The Open Source CFD Toolbox           |
|  \\    /   O peration     | Version:  2112                                  |
|   \\  /    A nd           | Website:  www.openfoam.com                      |
|    \\/     M anipulation  |                                                 |
\*---------------------------------------------------------------------------*/
FoamFile
{
    version     2.0;
    format      ascii;
    arch        "LSB;label=32;scalar=64";
    class       volScalarField;
    location    "0.27";
    object      omegaU_0;
}
// * * * * * * * * * * * * * * * * * * * * * * * * * * * * * * * * * * * * * //

dimensions      [0 0 -1 0 0 0 0];

internalField   nonuniform List<scalar> 
12225
(
52304.8
72146.3
78124
78988.2
78103.3
76678.6
75150.8
73618.2
72126.4
70706.2
69374.2
68134.7
66982.4
65894
64839.6
63861.8
62760.1
61375.1
4125.67
8502.51
12131.4
15015.7
17300.3
19167.1
20805
22347.3
23839.4
25288.3
26688.8
28028.3
29281.5
30426.3
31427.3
32244
32861.5
33112.6
538.695
987.807
1643.24
2392.04
3171.43
3939.54
4694.36
5457.15
6236.19
7037.8
7871.8
8751.3
9686.83
10688
11753.7
12876.9
14046.6
15244
398.81
422.863
476.917
560.758
681.522
839.809
1026.06
1227.1
1443.32
1675.28
1923.49
2190.67
2484.86
2818.45
3203.5
3653.77
4180.5
4800.9
394.983
394.655
396.256
400.932
410.665
427.135
450.374
478.83
512.375
550.921
596.635
653.333
721.314
799.456
888.915
994.027
1119.98
1272.99
394.899
393.728
392.674
391.812
391.29
391.287
391.963
393.431
395.798
399.154
403.881
410.602
419.547
430.566
443.734
459.576
478.729
501.986
394.888
393.692
392.546
391.451
390.412
389.44
388.542
387.731
387.02
386.425
385.968
385.686
385.627
385.839
386.38
387.328
388.776
390.819
394.879
393.679
392.531
391.432
390.379
389.372
388.407
387.483
386.598
385.753
384.947
384.181
383.458
382.782
382.163
381.61
381.138
380.755
394.872
393.667
392.518
391.418
390.367
389.361
388.398
387.475
386.591
385.743
384.931
384.152
383.406
382.695
382.02
381.384
380.79
380.238
394.867
393.659
392.507
391.408
390.357
389.353
388.393
387.474
386.594
385.752
384.946
384.174
383.436
382.732
382.063
381.43
380.833
380.272
394.874
393.674
392.53
391.439
390.397
389.402
388.451
387.541
386.67
385.838
385.041
384.279
383.552
382.858
382.198
381.572
380.98
380.419
394.909
393.741
392.628
391.567
390.554
389.586
388.661
387.776
386.93
386.121
385.347
384.608
383.901
383.228
382.586
381.976
381.396
380.846
394.942
393.806
392.723
391.69
390.705
389.764
388.864
388.005
387.183
386.397
385.645
384.927
384.241
383.586
382.962
382.367
381.801
381.262
394.973
393.865
392.809
391.802
390.842
389.925
389.049
388.213
387.413
386.649
385.918
385.22
384.553
383.916
383.309
382.729
382.177
381.653
394.99
393.899
392.859
391.868
390.923
390.02
389.159
388.337
387.551
386.801
386.084
385.4
384.749
384.128
383.537
382.975
382.439
381.928
394.995
393.908
392.871
391.884
390.941
390.043
389.187
388.372
387.597
386.858
386.155
385.485
384.847
384.239
383.659
383.107
382.581
382.079
394.988
393.896
392.859
391.873
390.936
390.045
389.198
388.392
387.624
386.894
386.198
385.536
384.904
384.303
383.729
383.182
382.661
382.164
394.992
393.906
392.875
391.894
390.962
390.076
389.233
388.431
387.667
386.941
386.248
385.589
384.96
384.361
383.79
383.245
382.725
382.229
394.99
393.902
392.868
391.885
390.951
390.062
389.217
388.412
387.646
386.917
386.221
385.559
384.927
384.324
383.75
383.201
382.677
382.178
394.978
393.88
392.835
391.842
390.897
389.998
389.142
388.327
387.551
386.811
386.105
385.433
384.791
384.178
383.593
383.034
382.501
381.991
394.963
393.845
392.779
391.765
390.799
389.879
389.003
388.167
387.37
386.61
385.884
385.192
384.53
383.898
383.294
382.717
382.165
381.638
394.927
393.774
392.673
391.622
390.617
389.656
388.738
387.862
387.025
386.226
385.462
384.733
384.036
383.369
382.732
382.122
381.539
380.981
394.866
393.655
392.498
391.392
390.334
389.321
388.351
387.422
386.533
385.681
384.867
384.089
383.345
382.634
381.953
381.303
380.68
380.084
394.841
393.605
392.422
391.289
390.204
389.165
388.17
387.216
386.301
385.425
384.585
383.781
383.011
382.275
381.573
380.903
380.264
379.654
394.846
393.61
392.422
391.28
390.185
389.139
388.143
387.2
386.312
385.484
384.721
384.032
383.419
382.886
382.435
382.065
381.779
381.576
394.851
393.63
392.511
391.553
390.831
390.414
390.365
390.743
391.61
393.046
395.306
398.509
402.468
407.114
412.393
418.259
424.677
431.612
395.119
395.524
399.044
407.59
421.011
439.003
461.402
488.095
519.078
554.653
597.587
648.238
703.483
762.235
823.899
888.118
954.659
1023.26
423.304
503.479
646.324
855.655
1096.99
1355.13
1622.84
1896.66
2176.33
2462.5
2753.06
3047.22
3346.21
3649.07
3954.65
4262.17
4571.51
4883.17
1910.61
3959.1
5886.04
7569.63
9008.57
10231.2
11281.3
12207.5
13055.5
13855.4
14620.7
15357
16066.6
16750.5
17409.3
18044
18656.2
19245.4
34898.1
51342.1
58076.3
60444
60979.2
60766
60250.5
59618
58942.9
58248
57544.5
56839.8
56140.8
55454.8
54788.8
54149.4
53538.7
52961.8
188.264
194.543
208.028
226.898
249.866
275.59
302.999
331.431
360.568
390.303
420.64
451.629
483.345
515.874
549.303
583.715
619.19
655.811
693.67
732.874
773.557
815.89
860.001
905.66
952.569
1000.68
1050.04
1100.63
1152.31
1204.95
1258.41
1312.59
1367.48
1423.09
1479.46
1536.63
1594.57
1653.25
1712.61
1772.58
1833.07
1894.02
1955.33
2016.94
2078.78
2140.79
2202.93
2265.11
2327.27
2389.34
2451.26
2513
2574.5
2635.74
2696.71
2757.46
2818.12
2878.93
2940.38
3002.2
3063.3
3123.38
3182.32
3240.03
3296.46
3351.53
3405.21
3457.45
3508.21
3557.49
3605.23
3651.4
3695.96
3738.85
3780.02
3819.41
3856.98
3892.73
3926.68
3958.82
3989.12
4017.55
4044.11
4068.79
4091.62
4112.62
4131.85
4149.33
4165.15
4179.43
4192.41
4204.5
4215.37
4224.36
4231.32
4236.15
4238.75
4239.39
4238.33
4235.61
4231.3
4225.42
4217.99
4209.02
4198.49
4186.37
4172.68
4157.44
4140.72
4122.56
4103.03
4082.14
4059.95
4036.46
4011.71
3985.72
3958.55
3930.34
3901.36
3872.25
3844.13
3817.97
3790.92
3762.77
3733.47
3702.97
3671.17
3637.88
3603.01
3566.47
3528.22
3488.19
3446.33
3402.58
3356.84
3308.95
3258.76
3206.17
3151.02
3093.18
3032.55
2969.07
2902.7
2833.37
2761.04
2685.78
2607.66
2526.81
2443.39
2357.6
2269.7
2179.84
2088.13
1994.68
1899.58
1802.9
1704.77
1605.5
1505.55
1405.48
1305.92
1207.63
1111.41
1018.15
928.788
844.259
765.478
693.294
628.463
571.636
523.364
484.184
455.051
435.734
424.042
419.344
421.943
431.495
447.853
472.204
196.242
197.924
207.176
221.695
240.076
260.853
282.893
305.529
328.468
351.642
375.088
398.879
423.093
447.801
473.062
498.924
525.424
552.591
580.44
608.976
638.185
668.029
698.421
729.321
760.701
792.537
824.815
857.52
890.633
924.129
957.973
992.137
1026.6
1061.32
1096.27
1131.39
1166.66
1202.03
1237.45
1272.88
1308.26
1343.53
1378.65
1413.56
1448.19
1482.49
1516.38
1549.83
1582.78
1615.2
1647.05
1678.3
1708.91
1738.84
1768.03
1796.42
1823.91
1850.33
1875.4
1899.21
1922.15
1944.25
1965.5
1985.89
2005.44
2024.15
2042.01
2059.04
2075.24
2090.59
2105.09
2118.73
2131.52
2143.46
2154.55
2164.8
2174.25
2182.88
2190.72
2197.77
2204.06
2209.61
2214.45
2218.59
2222.06
2224.87
2227.05
2228.62
2229.61
2230.03
2229.88
2229.1
2227.62
2225.46
2222.61
2219.13
2215.26
2211.11
2206.47
2201.3
2195.61
2189.41
2182.69
2175.48
2167.78
2159.6
2150.95
2141.81
2132.18
2122.04
2111.39
2100.21
2088.5
2076.25
2063.48
2050.18
2036.37
2022.01
2007.02
1991.16
1973.89
1954.65
1934.89
1914.67
1894
1872.9
1851.45
1829.72
1807.76
1785.59
1763.23
1740.67
1717.9
1694.92
1671.74
1648.41
1624.97
1601.41
1577.74
1553.97
1530.04
1505.9
1481.47
1456.66
1431.4
1405.57
1379.09
1351.86
1323.76
1294.69
1264.52
1233.18
1200.6
1166.73
1131.55
1095.08
1057.36
1018.44
978.372
937.255
895.234
852.509
809.345
766.071
723.085
680.854
639.898
600.784
564.105
530.467
500.478
474.795
454.268
439.414
430.225
426.55
428.655
436.343
449.665
469.685
217.111
208.445
211.431
221.409
236.197
253.833
272.854
292.41
312.127
331.905
351.771
371.794
392.044
412.581
433.447
454.671
476.268
498.239
520.574
543.253
566.243
589.507
613.001
636.69
660.544
684.54
708.658
732.881
757.188
781.557
805.96
830.362
854.726
879.008
903.162
927.144
950.91
974.415
997.616
1020.47
1042.93
1064.95
1086.5
1107.54
1128.03
1147.94
1167.26
1185.95
1204.01
1221.4
1238.09
1254.05
1269.27
1283.75
1297.46
1310.39
1322.55
1333.94
1344.58
1354.54
1363.9
1372.67
1380.86
1388.49
1395.58
1402.12
1408.13
1413.6
1418.53
1422.93
1426.79
1430.13
1432.97
1435.32
1437.21
1438.68
1439.72
1440.36
1440.57
1440.39
1439.83
1438.91
1437.65
1436.06
1434.14
1431.88
1429.26
1426.29
1422.92
1419.12
1414.8
1409.83
1404.37
1398.72
1392.93
1387.07
1381.41
1375.67
1369.77
1363.69
1357.41
1350.92
1344.22
1337.33
1330.25
1323.01
1315.59
1307.98
1300.15
1292.07
1283.72
1275.08
1266.15
1256.93
1247.42
1237.62
1227.55
1217.21
1206.58
1195.61
1184.23
1172.49
1160.56
1148.48
1136.26
1123.94
1111.56
1099.19
1086.88
1074.63
1062.46
1050.4
1038.48
1026.71
1015.1
1003.68
992.447
981.437
970.68
960.211
950.042
940.158
930.523
921.088
911.79
902.542
893.245
883.791
874.073
863.983
853.419
842.303
830.579
818.194
805.108
791.293
776.722
761.338
745.077
727.887
709.737
690.629
670.599
649.73
628.157
606.077
583.759
561.548
539.862
519.189
500.072
483.137
469.099
458.49
451.674
448.855
450.151
455.494
465.096
480.043
248.712
223.751
218.567
223.361
234.708
249.856
266.826
284.472
302.274
320.064
337.837
355.646
373.547
391.586
409.793
428.182
446.755
465.502
484.404
503.438
522.572
541.776
561.018
580.268
599.495
618.668
637.761
656.744
675.589
694.261
712.729
730.957
748.906
766.535
783.8
800.66
817.073
833.001
848.405
863.251
877.504
891.136
904.121
916.437
928.069
939.004
949.237
958.765
967.59
975.719
983.161
989.935
996.066
1001.58
1006.51
1010.89
1014.74
1018.1
1021.01
1023.5
1025.59
1027.3
1028.65
1029.65
1030.3
1030.63
1030.64
1030.34
1029.75
1028.89
1027.78
1026.43
1024.88
1023.13
1021.21
1019.13
1016.9
1014.53
1012.03
1009.4
1006.65
1003.8
1000.83
997.75
994.554
991.231
987.769
984.152
980.363
976.381
972.184
967.752
963.228
958.782
954.457
950.471
946.528
942.565
938.562
934.508
930.392
926.208
921.951
917.622
913.222
908.753
904.211
899.588
894.874
890.059
885.141
880.12
874.998
869.78
864.464
859.049
853.539
847.933
842.233
836.439
830.565
824.637
818.688
812.733
806.779
800.836
794.917
789.039
783.213
777.449
771.757
766.158
760.672
755.316
750.103
745.045
740.154
735.441
730.912
726.569
722.41
718.424
714.604
710.941
707.418
704.001
700.64
697.28
693.86
690.315
686.581
682.606
678.353
673.792
668.903
663.668
658.061
652.032
645.522
638.467
630.808
622.498
613.506
603.822
593.467
582.498
571.018
559.185
547.226
535.443
524.174
513.851
504.947
497.761
492.959
490.675
490.989
493.906
499.692
509.266
292.615
244.429
228.805
227.535
235.294
248.187
263.537
279.81
296.294
312.736
329.093
345.394
361.683
377.993
394.344
410.741
427.182
443.651
460.128
476.589
493.004
509.345
525.581
541.68
557.61
573.339
588.838
604.077
619.022
633.636
647.884
661.737
675.16
688.117
700.572
712.491
723.841
734.592
744.718
754.198
763.013
771.152
778.609
785.384
791.484
796.922
801.718
805.897
809.485
812.514
815.019
817.036
818.602
819.751
820.519
820.938
821.04
820.853
820.403
819.714
818.804
817.693
816.398
814.934
813.318
811.567
809.696
807.721
805.66
803.528
801.341
799.113
796.856
794.581
792.297
790.012
787.731
785.46
783.203
780.963
778.742
776.541
774.358
772.19
770.032
767.878
765.722
763.557
761.377
759.178
756.959
754.72
752.541
750.515
748.694
747.025
745.375
743.717
742.043
740.346
738.622
736.867
735.078
733.254
731.393
729.495
727.557
725.576
723.549
721.474
719.351
717.18
714.963
712.702
710.399
708.057
705.68
703.271
700.835
698.379
695.911
693.441
690.975
688.517
686.072
683.646
681.247
678.882
676.558
674.28
672.053
669.882
667.774
665.739
663.784
661.916
660.143
658.468
656.891
655.409
654.02
652.718
651.497
650.35
649.267
648.231
647.222
646.219
645.197
644.128
642.983
641.737
640.37
638.864
637.206
635.381
633.371
631.146
628.672
625.908
622.813
619.351
615.488
611.201
606.481
601.338
595.801
589.926
583.825
577.677
571.615
565.875
560.789
556.403
553.15
551.289
550.883
551.917
554.599
559.573
348.073
269.92
241.446
233.16
237.072
247.763
261.684
276.837
292.287
307.681
322.936
338.06
353.082
368.028
382.91
397.731
412.482
427.151
441.714
456.149
470.428
484.521
498.398
512.027
525.381
538.43
551.146
563.496
575.45
586.975
598.044
608.629
618.705
628.242
637.215
645.601
653.38
660.537
667.06
672.945
678.194
682.815
686.822
690.238
693.089
695.409
697.232
698.596
699.54
700.104
700.325
700.241
699.886
699.294
698.496
697.52
696.392
695.136
693.773
692.323
690.803
689.23
687.62
685.988
684.349
682.714
681.098
679.511
677.963
676.463
675.021
673.641
672.33
671.092
669.93
668.847
667.845
666.925
666.088
665.332
664.658
664.064
663.545
663.098
662.718
662.4
662.14
661.931
661.77
661.655
661.584
661.556
661.614
661.806
662.153
662.532
662.909
663.273
663.617
663.937
664.228
664.488
664.714
664.905
665.058
665.172
665.248
665.284
665.28
665.236
665.152
665.03
664.872
664.679
664.453
664.198
663.915
663.609
663.283
662.939
662.581
662.211
661.832
661.446
661.058
660.671
660.29
659.92
659.563
659.224
658.906
658.613
658.348
658.115
657.917
657.757
657.637
657.558
657.519
657.519
657.556
657.629
657.733
657.865
658.019
658.188
658.363
658.535
658.694
658.827
658.923
658.971
658.96
658.881
658.725
658.486
658.153
657.713
657.148
656.435
655.548
654.465
653.168
651.638
649.861
647.839
645.579
643.08
640.397
637.686
634.983
632.373
629.914
627.584
625.635
624.331
623.738
623.82
624.667
626.639
414.951
299.854
256.018
239.77
239.55
248.015
260.585
274.734
289.278
303.763
318.061
332.161
346.083
359.845
373.459
386.924
400.231
413.366
426.309
439.036
451.522
463.74
475.66
487.258
498.507
509.383
519.859
529.908
539.505
548.625
557.246
565.349
572.917
579.932
586.38
592.251
597.539
602.243
606.37
609.931
612.944
615.435
617.433
618.974
620.096
620.839
621.246
621.355
621.206
620.837
620.283
619.576
618.748
617.828
616.839
615.807
614.752
613.694
612.648
611.632
610.659
609.741
608.892
608.121
607.437
606.85
606.367
605.992
605.731
605.588
605.565
605.663
605.882
606.223
606.685
607.267
607.967
608.783
609.713
610.753
611.901
613.15
614.497
615.935
617.458
619.059
620.733
622.472
624.272
626.127
628.035
629.993
632.025
634.156
636.335
638.508
640.657
642.776
644.858
646.897
648.889
650.83
652.719
654.553
656.331
658.053
659.72
661.331
662.889
664.393
665.846
667.249
668.604
669.912
671.176
672.398
673.58
674.724
675.832
676.905
677.946
678.954
679.931
680.88
681.804
682.706
683.59
684.459
685.315
686.162
687.002
687.837
688.671
689.505
690.34
691.179
692.022
692.871
693.727
694.589
695.457
696.329
697.203
698.077
698.949
699.813
700.668
701.512
702.342
703.156
703.949
704.719
705.459
706.16
706.812
707.413
707.959
708.447
708.871
709.225
709.486
709.65
709.708
709.648
709.455
709.131
708.679
708.104
707.432
706.726
706.012
705.306
704.56
703.701
702.853
702.222
701.879
701.788
701.943
702.489
492.682
333.746
272.077
246.99
242.368
248.547
259.78
272.966
286.657
300.291
313.696
326.845
339.751
352.429
364.889
377.13
389.146
400.921
412.437
423.675
434.611
445.222
455.484
465.376
474.878
483.968
492.626
500.831
508.564
515.808
522.552
528.782
534.492
539.676
544.33
548.457
552.064
555.164
557.776
559.924
561.638
562.954
563.908
564.543
564.9
565.02
564.943
564.706
564.346
563.895
563.385
562.843
562.295
561.765
561.274
560.841
560.483
560.213
560.046
559.992
560.062
560.264
560.607
561.097
561.739
562.539
563.499
564.621
565.907
567.357
568.968
570.739
572.667
574.748
576.978
579.354
581.871
584.524
587.306
590.213
593.238
596.372
599.61
602.941
606.359
609.853
613.416
617.037
620.711
624.429
628.187
631.984
635.835
639.715
643.577
647.398
651.169
654.881
658.527
662.099
665.592
669.002
672.327
675.564
678.714
681.778
684.756
687.652
690.467
693.203
695.864
698.45
700.965
703.41
705.789
708.102
710.352
712.54
714.668
716.738
718.749
720.704
722.603
724.449
726.245
727.994
729.699
731.364
732.992
734.585
736.147
737.68
739.187
740.67
742.13
743.569
744.987
746.386
747.768
749.136
750.489
751.827
753.151
754.46
755.754
757.03
758.282
759.514
760.726
761.921
763.099
764.261
765.41
766.537
767.625
768.678
769.693
770.669
771.609
772.516
773.357
774.146
774.885
775.568
776.19
776.749
777.242
777.675
778.06
778.422
778.778
779.117
779.374
779.463
779.43
779.414
779.478
779.605
779.726
779.87
580.275
371.045
289.261
254.57
245.296
249.108
258.982
271.205
284.055
296.856
309.393
321.626
333.563
345.218
356.6
367.711
378.546
389.092
399.334
409.256
418.839
428.063
436.913
445.37
453.421
461.048
468.237
474.975
481.25
487.053
492.379
497.226
501.594
505.486
508.911
511.881
514.413
516.529
518.257
519.63
520.683
521.455
521.989
522.324
522.501
522.559
522.534
522.461
522.371
522.292
522.251
522.272
522.376
522.583
522.911
523.375
523.987
524.759
525.699
526.817
528.119
529.611
531.298
533.184
535.273
537.566
540.064
542.768
545.675
548.783
552.087
555.584
559.267
563.131
567.168
571.373
575.737
580.253
584.912
589.706
594.623
599.656
604.792
610.021
615.331
620.711
626.148
631.63
637.146
642.686
648.243
653.817
659.417
664.951
670.417
675.807
681.11
686.315
691.412
696.394
701.253
705.984
710.585
715.054
719.393
723.604
727.691
731.658
735.508
739.246
742.876
746.4
749.823
753.147
756.375
759.51
762.555
765.51
768.379
771.163
773.864
776.483
779.022
781.481
783.865
786.176
788.42
790.6
792.719
794.781
796.789
798.747
800.657
802.525
804.352
806.139
807.886
809.594
811.267
812.909
814.522
816.106
817.664
819.197
820.708
822.202
823.657
825.083
826.484
827.861
829.219
830.558
831.893
833.216
834.494
835.744
836.965
838.156
839.316
840.446
841.537
842.593
843.616
844.608
845.569
846.498
847.393
848.259
849.1
849.929
850.752
851.555
852.282
852.861
853.302
853.691
854.072
854.447
854.715
854.865
676.337
411.178
307.306
262.362
248.207
249.553
258.02
269.256
281.254
293.22
304.898
316.234
327.233
337.909
348.274
358.332
368.08
377.511
386.612
395.369
403.769
411.801
419.453
426.713
433.569
440.011
446.031
451.621
456.777
461.497
465.782
469.637
473.07
476.092
478.719
480.97
482.869
484.444
485.728
486.756
487.568
488.203
488.701
489.102
489.444
489.762
490.091
490.459
490.894
491.42
492.062
492.838
493.769
494.871
496.16
497.647
499.342
501.255
503.392
505.759
508.362
511.204
514.289
517.621
521.199
525.025
529.098
533.416
537.975
542.771
547.798
553.047
558.51
564.18
570.046
576.101
582.333
588.733
595.29
601.993
608.828
615.784
622.848
630.006
637.244
644.546
651.895
659.274
666.667
674.06
681.444
688.822
696.078
703.22
710.248
717.153
723.923
730.544
737.006
743.297
749.41
755.34
761.083
766.642
772.019
777.217
782.243
787.105
791.808
796.361
800.767
805.034
809.165
813.165
817.038
820.788
824.419
827.933
831.335
834.627
837.812
840.893
843.872
846.746
849.52
852.198
854.787
857.29
859.711
862.055
864.325
866.525
868.661
870.736
872.757
874.728
876.64
878.494
880.3
882.06
883.778
885.457
887.098
888.705
890.282
891.856
893.367
894.84
896.282
897.696
899.084
900.448
901.793
903.117
904.412
905.68
906.922
908.137
909.325
910.484
911.612
912.71
913.779
914.82
915.835
916.825
917.792
918.74
919.673
920.598
921.517
922.418
923.256
923.981
924.587
925.124
925.622
926.094
926.426
926.604
779.168
453.604
326.05
270.306
251.047
249.813
256.805
267.015
278.137
289.256
300.074
310.524
320.61
330.348
339.752
348.828
357.579
366.001
374.087
381.826
389.205
396.215
402.857
409.125
415.012
420.51
425.616
430.329
434.648
438.578
442.125
445.3
448.116
450.59
452.741
454.595
456.178
457.522
458.662
459.633
460.476
461.229
461.931
462.62
463.332
464.1
464.953
465.92
467.022
468.283
469.722
471.358
473.208
475.29
477.616
480.198
483.044
486.161
489.555
493.232
497.195
501.448
505.995
510.836
515.971
521.398
527.116
533.118
539.401
545.956
552.774
559.842
567.148
574.681
582.429
590.381
598.524
606.846
615.335
623.98
632.767
641.686
650.723
659.865
669.094
678.392
687.737
697.106
706.471
715.809
725.104
734.236
743.134
751.855
760.399
768.759
776.921
784.87
792.593
800.078
807.319
814.311
821.054
827.552
833.811
839.835
845.633
851.219
856.602
861.792
866.798
871.628
876.287
880.782
885.12
889.305
893.342
897.238
900.995
904.62
908.117
911.491
914.751
917.881
920.887
923.777
926.559
929.236
931.815
934.298
936.692
939.001
941.229
943.382
945.467
947.507
949.464
951.345
953.164
954.926
956.635
958.294
959.906
961.473
962.999
964.491
965.938
967.343
968.711
970.044
971.345
972.615
973.856
975.068
976.251
977.405
978.529
979.625
980.691
981.729
982.736
983.713
984.659
985.575
986.462
987.322
988.157
988.972
989.772
990.562
991.345
992.109
992.824
993.453
993.986
994.452
994.867
995.254
995.49
995.58
886.895
497.863
345.413
278.391
253.811
249.87
255.308
264.44
274.653
284.907
294.86
304.434
313.631
322.47
330.968
339.135
346.976
354.493
361.682
368.539
375.055
381.22
387.027
392.477
397.581
402.339
406.746
410.804
414.518
417.894
420.945
423.684
426.128
428.298
430.216
431.909
433.406
434.74
435.945
437.059
438.12
439.166
440.237
441.369
442.597
443.953
445.465
447.157
449.049
451.162
453.512
456.119
458.998
462.168
465.643
469.434
473.549
477.993
482.772
487.892
493.358
499.176
505.347
511.87
518.741
525.955
533.505
541.382
549.575
558.072
566.856
575.909
585.212
594.747
604.497
614.447
624.58
634.883
645.344
655.954
666.708
677.603
688.635
699.798
711.079
722.457
733.908
745.396
756.885
768.327
779.526
790.302
800.779
810.998
820.956
830.647
840.06
849.176
857.984
866.476
874.649
882.501
890.036
897.266
904.206
910.855
917.22
923.323
929.182
934.809
940.216
945.412
950.407
955.207
959.821
964.256
968.518
972.615
976.552
980.336
983.974
987.474
990.866
994.099
997.185
1000.14
1002.97
1005.69
1008.29
1010.78
1013.17
1015.47
1017.67
1019.79
1021.83
1023.79
1025.67
1027.47
1029.21
1030.87
1032.47
1034.02
1035.5
1036.93
1038.31
1039.64
1040.93
1042.16
1043.36
1044.51
1045.62
1046.69
1047.72
1048.72
1049.68
1050.6
1051.49
1052.35
1053.17
1053.96
1054.72
1055.44
1056.13
1056.78
1057.4
1057.98
1058.54
1059.07
1059.58
1060.07
1060.55
1061.01
1061.43
1061.78
1062.05
1062.27
1062.42
1062.56
1062.54
1062.39
997.712
543.572
365.332
286.62
256.516
249.743
253.538
261.531
270.795
280.161
289.243
297.949
306.283
314.265
321.914
329.245
336.264
342.977
349.384
355.484
361.273
366.747
371.897
376.716
381.206
385.38
389.26
392.845
396.14
399.155
401.902
404.399
406.666
408.726
410.603
412.325
413.922
415.427
416.876
418.306
419.756
421.267
422.877
424.627
426.554
428.691
431.066
433.699
436.608
439.808
443.314
447.142
451.309
455.834
460.732
466.014
471.686
477.753
484.22
491.099
498.401
506.133
514.298
522.89
531.897
541.303
551.09
561.239
571.728
582.533
593.627
604.98
616.561
628.343
640.298
652.4
664.625
676.954
689.379
701.9
714.528
727.288
740.212
753.328
766.633
780.124
793.764
807.491
821.284
834.68
847.44
859.693
871.543
883.026
894.142
904.887
915.247
925.209
934.767
943.926
952.692
961.067
969.062
976.7
984.031
991.017
997.657
1004
1010.06
1015.86
1021.41
1026.73
1031.82
1036.69
1041.36
1045.83
1050.1
1054.2
1058.12
1061.87
1065.46
1068.9
1072.19
1075.34
1078.35
1081.21
1083.95
1086.56
1089.04
1091.42
1093.68
1095.84
1097.9
1099.86
1101.73
1103.52
1105.22
1106.84
1108.38
1109.85
1111.25
1112.57
1113.83
1115.03
1116.17
1117.25
1118.27
1119.24
1120.15
1121.02
1121.83
1122.6
1123.32
1124
1124.63
1125.22
1125.76
1126.26
1126.72
1127.15
1127.52
1127.86
1128.16
1128.42
1128.63
1128.81
1128.95
1129.06
1129.14
1129.2
1129.24
1129.25
1129.22
1129.13
1128.98
1128.78
1128.52
1128.24
1127.8
1127.26
1110.15
590.371
385.729
294.984
259.183
249.465
251.529
258.315
266.583
275.035
283.237
291.088
298.587
305.757
312.619
319.187
325.472
331.48
337.213
342.674
347.861
352.774
357.408
361.758
365.819
369.592
373.092
376.348
379.387
382.209
384.829
387.267
389.547
391.695
393.738
395.707
397.631
399.546
401.488
403.498
405.618
407.892
410.366
413.086
416.101
419.457
423.191
427.306
431.804
436.689
441.97
447.656
453.761
460.297
467.274
474.695
482.563
490.886
499.672
508.945
518.732
529.055
539.925
551.334
563.234
575.582
588.34
601.463
614.905
628.617
642.542
656.644
670.876
685.19
699.537
713.875
728.167
742.388
756.532
770.621
784.705
798.869
813.233
827.946
843.005
858.485
874.32
890.299
905.572
920.075
933.871
947.055
959.727
971.922
983.632
994.858
1005.57
1015.76
1025.47
1034.71
1043.5
1051.86
1059.81
1067.36
1074.55
1081.39
1087.9
1094.1
1100.01
1105.65
1111.02
1116.15
1121.04
1125.71
1130.15
1134.39
1138.43
1142.29
1145.96
1149.46
1152.79
1155.96
1158.99
1161.87
1164.6
1167.2
1169.66
1172
1174.22
1176.32
1178.3
1180.18
1181.95
1183.63
1185.21
1186.69
1188.09
1189.41
1190.64
1191.79
1192.86
1193.85
1194.78
1195.63
1196.42
1197.14
1197.8
1198.39
1198.92
1199.39
1199.8
1200.15
1200.44
1200.69
1200.87
1201.01
1201.09
1201.12
1201.09
1201.02
1200.9
1200.72
1200.5
1200.23
1199.9
1199.54
1199.12
1198.67
1198.18
1197.66
1197.1
1196.52
1195.89
1195.21
1194.47
1193.68
1192.84
1191.98
1190.96
1189.87
1223.45
637.961
406.466
303.432
261.821
249.075
249.326
254.832
262.051
269.559
276.876
283.885
290.583
296.991
303.129
309.013
314.652
320.053
325.221
330.156
334.864
339.346
343.602
347.633
351.438
355.019
358.381
361.54
364.525
367.382
370.136
372.803
375.417
378.016
380.642
383.335
386.114
389.007
392.054
395.299
398.792
402.58
406.717
411.265
416.303
421.942
428.343
435.365
442.921
450.987
459.549
468.6
478.139
488.162
498.652
509.553
520.873
532.656
544.919
557.687
570.987
584.837
599.247
614.246
629.687
645.474
661.588
677.973
694.573
711.341
728.226
745.162
762.069
778.883
795.533
811.955
828.093
843.898
859.347
874.481
889.389
904.234
919.223
934.49
950.682
967.684
984.446
1000.41
1015.57
1029.9
1043.44
1056.35
1068.73
1080.57
1091.85
1102.56
1112.62
1122.08
1131.04
1139.52
1147.56
1155.18
1162.41
1169.27
1175.79
1181.99
1187.88
1193.49
1198.81
1203.88
1208.7
1213.27
1217.62
1221.76
1225.68
1229.4
1232.93
1236.28
1239.46
1242.47
1245.32
1248.01
1250.56
1252.98
1255.25
1257.39
1259.41
1261.31
1263.09
1264.75
1266.31
1267.75
1269.1
1270.35
1271.49
1272.55
1273.51
1274.39
1275.18
1275.88
1276.51
1277.05
1277.52
1277.92
1278.24
1278.48
1278.66
1278.76
1278.79
1278.75
1278.64
1278.46
1278.22
1277.91
1277.54
1277.1
1276.6
1276.03
1275.41
1274.72
1273.97
1273.15
1272.28
1271.35
1270.36
1269.31
1268.21
1267.05
1265.85
1264.6
1263.31
1261.98
1260.6
1259.17
1257.68
1256.14
1254.55
1252.94
1251.17
1249.37
1342.99
688.299
428.251
312.225
264.53
248.586
246.871
250.961
257.025
263.518
269.911
276.068
281.98
287.665
293.139
298.416
303.508
308.42
313.157
317.723
322.127
326.382
330.503
334.505
338.406
342.229
345.986
349.661
353.27
356.865
360.496
364.223
368.1
372.217
376.698
381.725
387.144
392.858
398.913
405.351
412.238
419.626
427.562
436.104
445.342
455.47
466.637
478.397
490.549
503.163
516.292
529.939
544.088
558.708
573.763
589.228
605.123
621.437
638.148
655.244
672.708
690.518
708.644
727.06
745.717
764.555
783.521
802.557
821.616
840.661
859.657
878.527
897.2
915.614
933.705
951.418
968.708
985.524
1001.82
1017.65
1033.08
1048.34
1064.44
1081.08
1097.45
1112.86
1127.37
1140.98
1153.69
1165.59
1176.76
1187.32
1197.36
1206.86
1215.85
1224.34
1232.44
1240.17
1247.53
1254.52
1261.15
1267.45
1273.45
1279.16
1284.6
1289.77
1294.68
1299.36
1303.79
1308
1311.98
1315.75
1319.32
1322.7
1325.88
1328.88
1331.72
1334.38
1336.89
1339.24
1341.45
1343.53
1345.46
1347.27
1348.96
1350.52
1351.97
1353.3
1354.53
1355.64
1356.65
1357.57
1358.38
1359.09
1359.7
1360.23
1360.65
1360.99
1361.23
1361.39
1361.46
1361.45
1361.36
1361.18
1360.92
1360.58
1360.16
1359.66
1359.09
1358.43
1357.69
1356.88
1355.99
1355.02
1353.98
1352.86
1351.66
1350.39
1349.04
1347.62
1346.13
1344.56
1342.92
1341.21
1339.43
1337.59
1335.67
1333.69
1331.65
1329.54
1327.38
1325.17
1322.9
1320.57
1318.18
1315.73
1313.22
1310.7
1308.01
1305.33
1457.44
733.671
447.212
319.736
266.852
248.161
244.692
247.49
252.522
258.154
263.796
269.217
274.546
279.752
284.843
289.846
294.788
299.698
304.581
309.38
314.125
318.877
323.703
328.684
333.923
339.565
345.822
352.088
358.345
364.787
371.541
378.684
386.353
394.685
403.97
414.461
425.532
437.081
449.321
462.076
475.472
489.538
504.276
519.662
535.621
551.901
568.39
585.226
602.517
620.347
638.701
657.545
676.818
696.446
716.377
736.628
757.144
777.815
798.574
819.386
840.225
861.064
881.877
902.635
923.29
943.779
964.031
983.956
1003.52
1022.7
1041.5
1059.88
1077.83
1095.32
1112.37
1128.96
1145.15
1160.91
1176.14
1191.19
1206.3
1221.74
1236.58
1250.64
1263.59
1275.46
1286.43
1296.64
1306.22
1315.21
1323.63
1331.54
1338.97
1345.95
1352.51
1358.7
1364.66
1370.38
1375.85
1381.09
1386.13
1390.96
1395.57
1399.97
1404.16
1408.13
1411.9
1415.47
1418.83
1422
1424.99
1427.79
1430.41
1432.86
1435.15
1437.29
1439.27
1441.1
1442.8
1444.36
1445.79
1447.1
1448.28
1449.36
1450.31
1451.16
1451.9
1452.53
1453.06
1453.49
1453.83
1454.06
1454.19
1454.23
1454.17
1454.01
1453.75
1453.4
1452.95
1452.41
1451.77
1451.04
1450.21
1449.3
1448.28
1447.18
1445.99
1444.71
1443.33
1441.87
1440.31
1438.67
1436.94
1435.11
1433.2
1431.2
1429.11
1426.93
1424.66
1422.3
1419.86
1417.34
1414.73
1412.03
1409.26
1406.4
1403.46
1400.44
1397.34
1394.17
1390.93
1387.62
1384.24
1380.79
1377.26
1373.67
1370.01
1366.33
1362.47
1358.66
1568.31
773.882
463.096
325.973
269.015
248.205
243.4
245.331
249.915
255.607
262.001
265.985
271.475
277.161
282.964
288.972
295.37
302.505
310.679
318.547
326.276
334.241
342.692
351.821
361.843
373.209
386.169
398.898
411.719
425.075
439.202
454.32
470.6
487.695
505.677
524.153
543.3
563.315
584.168
605.717
627.863
650.509
673.545
696.874
720.4
744.033
767.856
791.98
816.491
841.186
865.895
890.484
914.831
938.828
962.399
985.481
1008.05
1030.07
1051.52
1072.41
1092.75
1112.54
1131.81
1150.57
1168.81
1186.51
1203.62
1219.97
1235.65
1250.76
1265.35
1279.44
1293.07
1306.32
1319.22
1331.8
1344.34
1356.92
1369.37
1381.46
1393.28
1404.82
1415.53
1425.4
1434.53
1442.97
1450.81
1458.18