/*--------------------------------*- C++ -*----------------------------------*\
| =========                 |                                                 |
| \\      /  F ield         | OpenFOAM: The Open Source CFD Toolbox           |
|  \\    /   O peration     | Version:  2112                                  |
|   \\  /    A nd           | Website:  www.openfoam.com                      |
|    \\/     M anipulation  |                                                 |
\*---------------------------------------------------------------------------*/
FoamFile
{
    version     2.0;
    format      ascii;
    arch        "LSB;label=32;scalar=64";
    class       volVectorField;
    location    "0.27";
    object      U_0;
}
// * * * * * * * * * * * * * * * * * * * * * * * * * * * * * * * * * * * * * //

dimensions      [0 1 -1 0 0 0 0];

internalField   nonuniform List<vector> 
12225
(
(9.75728 0.0598278 0)
(9.27814 0.0947139 0)
(8.79699 0.098997 0)
(8.33648 0.0976275 0)
(7.92344 0.0932234 0)
(7.56927 0.0862177 0)
(7.27869 0.0794466 0)
(7.03118 0.0742884 0)
(6.82903 0.0689284 0)
(6.67581 0.0617492 0)
(6.57125 0.0525776 0)
(6.50979 0.0420502 0)
(6.48345 0.0342984 0)
(6.481 0.0306091 0)
(6.48659 0.0301755 0)
(6.49591 0.0331795 0)
(6.45848 0.0589943 0)
(6.43514 0.0436738 0)
(10.1051 0.0738217 0)
(10.313 0.107064 0)
(10.4486 0.106799 0)
(10.518 0.105095 0)
(10.538 0.100465 0)
(10.5161 0.0912865 0)
(10.4582 0.0803834 0)
(10.3698 0.0694981 0)
(10.2543 0.0568324 0)
(10.1133 0.0415538 0)
(9.94795 0.02483 0)
(9.76152 0.00859697 0)
(9.55872 -0.00402826 0)
(9.34604 -0.0117406 0)
(9.13035 -0.0152288 0)
(8.92133 -0.0107152 0)
(8.71796 0.00256513 0)
(8.60227 0.0722716 0)
(10.0112 0.0356357 0)
(10.0621 0.0538786 0)
(10.1159 0.0585358 0)
(10.1653 0.0666701 0)
(10.2145 0.073956 0)
(10.2618 0.0785688 0)
(10.303 0.0828739 0)
(10.3373 0.0882973 0)
(10.3646 0.0940323 0)
(10.3835 0.0998116 0)
(10.3923 0.106258 0)
(10.3898 0.113967 0)
(10.3753 0.122187 0)
(10.3483 0.130478 0)
(10.3084 0.138626 0)
(10.256 0.14862 0)
(10.1933 0.158464 0)
(10.1225 0.176906 0)
(10.0062 0.0297147 0)
(10.0349 0.0581338 0)
(10.062 0.0677814 0)
(10.0812 0.0740775 0)
(10.0983 0.0777818 0)
(10.116 0.0783344 0)
(10.1328 0.0775879 0)
(10.1488 0.0768658 0)
(10.1648 0.0758365 0)
(10.1806 0.0741521 0)
(10.1955 0.072186 0)
(10.2095 0.0706801 0)
(10.2227 0.0704407 0)
(10.2358 0.0727194 0)
(10.2493 0.0783457 0)
(10.2647 0.0885215 0)
(10.2829 0.102441 0)
(10.3083 0.117817 0)
(10.0045 0.0247357 0)
(10.0272 0.0517591 0)
(10.0504 0.0602557 0)
(10.0668 0.06492 0)
(10.08 0.0684365 0)
(10.0926 0.0698803 0)
(10.1038 0.0703122 0)
(10.1136 0.0709843 0)
(10.1228 0.0719071 0)
(10.1316 0.0729001 0)
(10.1398 0.0743436 0)
(10.1474 0.0769093 0)
(10.1549 0.0810709 0)
(10.163 0.0871211 0)
(10.1723 0.0949644 0)
(10.1844 0.104736 0)
(10.2006 0.115192 0)
(10.2256 0.125005 0)
(10.0032 0.0202236 0)
(10.021 0.0452393 0)
(10.0416 0.0550264 0)
(10.0575 0.0607012 0)
(10.0704 0.0651765 0)
(10.0824 0.067615 0)
(10.0933 0.0686856 0)
(10.1027 0.0695281 0)
(10.1113 0.0703516 0)
(10.1192 0.0710518 0)
(10.1265 0.0718792 0)
(10.1332 0.0732995 0)
(10.1397 0.0756482 0)
(10.1466 0.0791755 0)
(10.1546 0.0839522 0)
(10.1649 0.0900269 0)
(10.1786 0.0963732 0)
(10.1973 0.101514 0)
(10.0023 0.0166235 0)
(10.0163 0.0396702 0)
(10.0342 0.0504059 0)
(10.0492 0.0563913 0)
(10.0616 0.0607817 0)
(10.0731 0.0633362 0)
(10.0837 0.0645502 0)
(10.0931 0.0653981 0)
(10.1018 0.0662226 0)
(10.1098 0.0670329 0)
(10.1174 0.0680384 0)
(10.1245 0.0696207 0)
(10.1315 0.0720835 0)
(10.139 0.075607 0)
(10.1477 0.080145 0)
(10.1582 0.0854108 0)
(10.1714 0.0904132 0)
(10.1879 0.0935285 0)
(10.0017 0.0137854 0)
(10.0127 0.034618 0)
(10.0281 0.0456528 0)
(10.042 0.0517929 0)
(10.0538 0.0561603 0)
(10.0648 0.0589807 0)
(10.075 0.0605654 0)
(10.0844 0.0616607 0)
(10.093 0.0626556 0)
(10.1012 0.0636359 0)
(10.1089 0.0647667 0)
(10.1163 0.0663244 0)
(10.1238 0.068518 0)
(10.1318 0.0714082 0)
(10.1409 0.0748382 0)
(10.1514 0.0784167 0)
(10.1639 0.0813141 0)
(10.1786 0.0823659 0)
(10.0012 0.0115089 0)
(10.01 0.0300373 0)
(10.0231 0.0409629 0)
(10.0359 0.0472534 0)
(10.0471 0.0516389 0)
(10.0575 0.0546328 0)
(10.0674 0.0564595 0)
(10.0766 0.0576901 0)
(10.0852 0.0587291 0)
(10.0933 0.0597258 0)
(10.1012 0.0608211 0)
(10.1089 0.062211 0)
(10.1167 0.0640315 0)
(10.125 0.066279 0)
(10.1341 0.0687671 0)
(10.1445 0.0711137 0)
(10.1563 0.0726774 0)
(10.1694 0.072632 0)
(10.0009 0.00965497 0)
(10.0079 0.0259378 0)
(10.019 0.0364308 0)
(10.0307 0.0427541 0)
(10.0412 0.0470951 0)
(10.0511 0.050137 0)
(10.0607 0.0521044 0)
(10.0697 0.0534356 0)
(10.0782 0.0545094 0)
(10.0863 0.055505 0)
(10.0942 0.0565428 0)
(10.1021 0.0577537 0)
(10.1101 0.0592129 0)
(10.1186 0.0608759 0)
(10.1277 0.0625491 0)
(10.1378 0.063892 0)
(10.1487 0.0644141 0)
(10.1605 0.0635706 0)
(10.0007 0.00811895 0)
(10.0063 0.022291 0)
(10.0158 0.032102 0)
(10.0262 0.0383008 0)
(10.0362 0.0425338 0)
(10.0456 0.0455421 0)
(10.0547 0.0475747 0)
(10.0635 0.0489648 0)
(10.0719 0.0500399 0)
(10.08 0.0509847 0)
(10.088 0.0519044 0)
(10.096 0.0528829 0)
(10.1041 0.0539527 0)
(10.1125 0.0550496 0)
(10.1215 0.0559955 0)
(10.1311 0.0565136 0)
(10.1413 0.0562487 0)
(10.1519 0.0548648 0)
(10.0006 0.00690675 0)
(10.0053 0.0192651 0)
(10.0134 0.0282977 0)
(10.0229 0.0342541 0)
(10.0322 0.0383344 0)
(10.0411 0.0412511 0)
(10.0499 0.0432722 0)
(10.0585 0.0446617 0)
(10.0668 0.045695 0)
(10.0748 0.0465496 0)
(10.0828 0.0473193 0)
(10.0908 0.0480585 0)
(10.0989 0.0487737 0)
(10.1073 0.0493959 0)
(10.1161 0.049773 0)
(10.1252 0.0496906 0)
(10.1347 0.0488947 0)
(10.1445 0.047189 0)
(10.0005 0.00587819 0)
(10.0044 0.0165661 0)
(10.0114 0.0247058 0)
(10.02 0.0302902 0)
(10.0287 0.0341555 0)
(10.0372 0.0369236 0)
(10.0457 0.0388676 0)
(10.054 0.040206 0)
(10.0622 0.0411644 0)
(10.0702 0.0419013 0)
(10.0781 0.0424996 0)
(10.086 0.0429948 0)
(10.0941 0.0433783 0)
(10.1023 0.0435848 0)
(10.1108 0.0434909 0)
(10.1195 0.0429378 0)
(10.1284 0.0417477 0)
(10.1374 0.0398201 0)
(10.0004 0.00484814 0)
(10.0037 0.013772 0)
(10.0097 0.020819 0)
(10.0173 0.025849 0)
(10.0253 0.0293827 0)
(10.0334 0.0319116 0)
(10.0414 0.0336937 0)
(10.0495 0.03491 0)
(10.0574 0.0357358 0)
(10.0653 0.0363022 0)
(10.0731 0.0366788 0)
(10.081 0.0368885 0)
(10.0889 0.0369162 0)
(10.0969 0.0367071 0)
(10.105 0.0361711 0)
(10.1132 0.0352026 0)
(10.1215 0.0336898 0)
(10.1297 0.0316043 0)
(10.0003 0.00381746 0)
(10.003 0.0109127 0)
(10.0082 0.016685 0)
(10.0148 0.0209496 0)
(10.0222 0.0239903 0)
(10.0297 0.0261555 0)
(10.0373 0.0276637 0)
(10.0451 0.0286607 0)
(10.0528 0.0292752 0)
(10.0604 0.0296069 0)
(10.0681 0.0297106 0)
(10.0757 0.0296021 0)
(10.0834 0.0292672 0)
(10.0911 0.0286671 0)
(10.0988 0.0277441 0)
(10.1065 0.026439 0)
(10.114 0.0246897 0)
(10.1215 0.0225149 0)
(10.0003 0.00278294 0)
(10.0025 0.00799032 0)
(10.0069 0.0123162 0)
(10.0127 0.0155904 0)
(10.0194 0.0179418 0)
(10.0264 0.0195864 0)
(10.0336 0.0206842 0)
(10.0409 0.021343 0)
(10.0483 0.021651 0)
(10.0557 0.0216765 0)
(10.0631 0.0214589 0)
(10.0704 0.02101 0)
(10.0778 0.0203214 0)
(10.0851 0.0193711 0)
(10.0923 0.0181292 0)
(10.0994 0.0165709 0)
(10.1063 0.0146669 0)
(10.1131 0.0124611 0)
(10.0002 0.0017298 0)
(10.0022 0.00497404 0)
(10.0059 0.00768971 0)
(10.0111 0.00975229 0)
(10.0171 0.0112012 0)
(10.0235 0.0121454 0)
(10.0303 0.0126792 0)
(10.0372 0.0128697 0)
(10.0443 0.0127692 0)
(10.0513 0.0124179 0)
(10.0584 0.0118399 0)
(10.0654 0.0110436 0)
(10.0723 0.0100258 0)
(10.0791 0.00877791 0)
(10.0858 0.00728894 0)
(10.0924 0.00555434 0)
(10.0987 0.00356641 0)
(10.1048 0.00137576 0)
(10.0002 0.000621238 0)
(10.0019 0.00177172 0)
(10.0053 0.00269394 0)
(10.0099 0.00331896 0)
(10.0154 0.00364194 0)
(10.0215 0.00369001 0)
(10.0278 0.00349388 0)
(10.0343 0.00307895 0)
(10.041 0.00246556 0)
(10.0477 0.00166892 0)
(10.0543 0.000698098 0)
(10.0609 -0.000443629 0)
(10.0674 -0.00175693 0)
(10.0738 -0.00324377 0)
(10.08 -0.00490562 0)
(10.0859 -0.00673848 0)
(10.0917 -0.00874175 0)
(10.0972 -0.010869 0)
(10.0002 -0.000611133 0)
(10.0018 -0.00179454 0)
(10.005 -0.00289537 0)
(10.0095 -0.0039248 0)
(10.0147 -0.0049259 0)
(10.0205 -0.00594558 0)
(10.0265 -0.00701245 0)
(10.0328 -0.00814094 0)
(10.0391 -0.00934191 0)
(10.0454 -0.0106256 0)
(10.0517 -0.0120001 0)
(10.0579 -0.0134711 0)
(10.064 -0.0150431 0)
(10.0699 -0.0167189 0)
(10.0756 -0.0185002 0)
(10.0811 -0.0203838 0)
(10.0864 -0.0223714 0)
(10.0914 -0.0244293 0)
(10.0002 -0.00180051 0)
(10.002 -0.00522454 0)
(10.0054 -0.00822627 0)
(10.0101 -0.0107644 0)
(10.0155 -0.0129495 0)
(10.0213 -0.0149158 0)
(10.0273 -0.0167462 0)
(10.0334 -0.0184874 0)
(10.0396 -0.020177 0)
(10.0458 -0.0218467 0)
(10.0519 -0.0235178 0)
(10.0579 -0.0252032 0)
(10.0637 -0.0269125 0)
(10.0693 -0.0286544 0)
(10.0747 -0.0304374 0)
(10.0798 -0.0322665 0)
(10.0848 -0.0341501 0)
(10.0894 -0.0360702 0)
(10.0003 -0.00288133 0)
(10.0023 -0.00829361 0)
(10.0063 -0.0128618 0)
(10.0114 -0.0165323 0)
(10.0172 -0.0195541 0)
(10.0232 -0.0221725 0)
(10.0293 -0.0245144 0)
(10.0355 -0.0266554 0)
(10.0417 -0.0286651 0)
(10.0479 -0.0305969 0)
(10.0539 -0.0324782 0)
(10.0598 -0.0343204 0)
(10.0655 -0.0361315 0)
(10.071 -0.0379222 0)
(10.0763 -0.0397051 0)
(10.0813 -0.0414919 0)
(10.086 -0.043297 0)
(10.0905 -0.0451162 0)
(10.0003 -0.00404572 0)
(10.0029 -0.0114965 0)
(10.0077 -0.0174621 0)
(10.0137 -0.0219989 0)
(10.0199 -0.0256388 0)
(10.0262 -0.0287477 0)
(10.0325 -0.0314534 0)
(10.0389 -0.0338445 0)
(10.0452 -0.0360277 0)
(10.0513 -0.0380805 0)
(10.0573 -0.0400335 0)
(10.0632 -0.0418938 0)
(10.0688 -0.0436688 0)
(10.0743 -0.0453738 0)
(10.0795 -0.0470305 0)
(10.0844 -0.0486622 0)
(10.089 -0.0502966 0)
(10.0933 -0.0519477 0)
(10.0005 -0.0054011 0)
(10.0039 -0.0150389 0)
(10.01 -0.0221875 0)
(10.0169 -0.0272647 0)
(10.0236 -0.031281 0)
(10.0303 -0.0347301 0)
(10.0369 -0.0377245 0)
(10.0435 -0.0403745 0)
(10.0499 -0.0428173 0)
(10.0561 -0.045126 0)
(10.0622 -0.047303 0)
(10.0682 -0.0493275 0)
(10.0739 -0.0511904 0)
(10.0794 -0.0529021 0)
(10.0846 -0.0544869 0)
(10.0894 -0.0559755 0)
(10.0939 -0.0574032 0)
(10.098 -0.0587914 0)
(10.0007 -0.00708216 0)
(10.0055 -0.0190757 0)
(10.0133 -0.0271262 0)
(10.0213 -0.0324803 0)
(10.0286 -0.0366525 0)
(10.0355 -0.0400965 0)
(10.0424 -0.0429206 0)
(10.0491 -0.0453678 0)
(10.0555 -0.0476738 0)
(10.0618 -0.0499215 0)
(10.0679 -0.0520769 0)
(10.074 -0.0540824 0)
(10.0799 -0.0559109 0)
(10.0855 -0.0575697 0)
(10.0908 -0.0590897 0)
(10.0957 -0.0605152 0)
(10.1003 -0.0619054 0)
(10.1046 -0.0633288 0)
(10.001 -0.00930366 0)
(10.008 -0.0236276 0)
(10.0179 -0.0319418 0)
(10.0271 -0.0374856 0)
(10.035 -0.0422958 0)
(10.0424 -0.0463648 0)
(10.0496 -0.049598 0)
(10.0565 -0.0523288 0)
(10.0629 -0.0548848 0)
(10.0691 -0.0573538 0)
(10.0753 -0.0596484 0)
(10.0814 -0.0616553 0)
(10.0874 -0.0633195 0)
(10.093 -0.0646423 0)
(10.0983 -0.0656569 0)
(10.1032 -0.0664108 0)
(10.1075 -0.0669611 0)
(10.1113 -0.067326 0)
(10.0017 -0.0124411 0)
(10.0118 -0.0292249 0)
(10.0241 -0.0363553 0)
(10.0339 -0.0402523 0)
(10.0419 -0.0439363 0)
(10.0496 -0.0472148 0)
(10.0571 -0.0499426 0)
(10.0641 -0.0524868 0)
(10.0705 -0.0551765 0)
(10.0768 -0.0580567 0)
(10.0831 -0.0609524 0)
(10.0895 -0.0636671 0)
(10.0958 -0.0660985 0)
(10.1019 -0.0682372 0)
(10.1076 -0.0701373 0)
(10.113 -0.0718764 0)
(10.118 -0.0735755 0)
(10.1227 -0.0753074 0)
(10.0029 -0.0162268 0)
(10.0178 -0.0370828 0)
(10.0335 -0.046421 0)
(10.0442 -0.0522174 0)
(10.0526 -0.0566723 0)
(10.061 -0.0596145 0)
(10.0695 -0.0615121 0)
(10.0774 -0.0630728 0)
(10.085 -0.0647058 0)
(10.0928 -0.0664215 0)
(10.1011 -0.0679753 0)
(10.1098 -0.0691266 0)
(10.1187 -0.06974 0)
(10.1276 -0.0697652 0)
(10.1363 -0.0692129 0)
(10.1445 -0.0681428 0)
(10.1523 -0.0666531 0)
(10.159 -0.0646666 0)
(10.0046 -0.0188343 0)
(10.0291 -0.0310522 0)
(10.0557 -0.0340142 0)
(10.0784 -0.0394841 0)
(10.101 -0.0457996 0)
(10.1247 -0.0510074 0)
(10.1487 -0.0554981 0)
(10.1718 -0.0601124 0)
(10.1943 -0.06535 0)
(10.2167 -0.0710802 0)
(10.2391 -0.0767896 0)
(10.2613 -0.0821478 0)
(10.2826 -0.0870811 0)
(10.3024 -0.0916227 0)
(10.3201 -0.0958503 0)
(10.3355 -0.0998878 0)
(10.3483 -0.103896 0)
(10.3586 -0.107846 0)
(10.0549 -0.0494928 0)
(10.1822 -0.0761669 0)
(10.2841 -0.0772331 0)
(10.3595 -0.0782515 0)
(10.4163 -0.0795384 0)
(10.4573 -0.0793842 0)
(10.4826 -0.078142 0)
(10.4935 -0.0766952 0)
(10.4923 -0.0759643 0)
(10.481 -0.0759253 0)
(10.4605 -0.0756009 0)
(10.4308 -0.0741938 0)
(10.3917 -0.0713605 0)
(10.3435 -0.06704 0)
(10.2864 -0.0613166 0)
(10.2209 -0.0545319 0)
(10.1479 -0.0469847 0)
(10.0676 -0.0399605 0)
(9.86856 -0.0426419 0)
(9.60465 -0.0724699 0)
(9.32634 -0.0792927 0)
(9.04533 -0.0818643 0)
(8.7769 -0.0828238 0)
(8.52591 -0.0822606 0)
(8.29222 -0.0807227 0)
(8.07603 -0.0790175 0)
(7.87452 -0.0780497 0)
(7.68229 -0.0779571 0)
(7.49982 -0.0780605 0)
(7.32864 -0.0776571 0)
(7.17058 -0.0763466 0)
(7.02762 -0.0739592 0)
(6.90135 -0.0704645 0)
(6.79293 -0.0659861 0)
(6.70148 -0.0610636 0)
(6.62889 -0.0545676 0)
(-0.00584335 0.0106354 -2.59594e-21)
(-0.0102485 0.0120359 2.43806e-21)
(-0.0196657 0.0129948 0)
(-0.0293788 0.0137793 0)
(-0.0394564 0.0143307 0)
(-0.0499784 0.0146664 -2.39086e-21)
(-0.0608794 0.0148558 0)
(-0.0720876 0.014974 0)
(-0.0835723 0.015078 0)
(-0.0953287 0.015203 0)
(-0.107365 0.0153665 2.30477e-21)
(-0.119696 0.0155739 0)
(-0.132341 0.0158238 0)
(-0.14532 0.016112 0)
(-0.158654 0.0164343 0)
(-0.172365 0.0167886 2.22054e-21)
(-0.186474 0.0171766 0)
(-0.201006 0.0176082 0)
(-0.215989 0.0181084 0)
(-0.231468 0.0187304 0)
(-0.247521 0.0195826 0)
(-0.264243 0.0208506 0)
(-0.281748 0.022177 0)
(-0.300054 0.0230566 2.11785e-21)
(-0.319034 0.0236208 -2.10871e-21)
(-0.338631 0.0241403 2.09954e-21)
(-0.358867 0.0247137 2.09047e-21)
(-0.379779 0.0253498 0)
(-0.401395 0.0260378 0)
(-0.42374 0.0267593 -2.06446e-21)
(-0.44683 0.0274879 -2.05626e-21)
(-0.470669 0.0281949 0)
(-0.495249 0.0288578 0)
(-0.520553 0.0294639 -2.03306e-21)
(-0.546559 0.0300128 0)
(-0.573241 0.0305129 0)
(-0.600577 0.0309724 2.01152e-21)
(-0.628543 0.0313951 0)
(-0.657113 0.0317809 1.99794e-21)
(-0.686259 0.0321279 3.98276e-21)
(-0.715948 0.0324333 0)
(-0.746144 0.0326933 0)
(-0.776809 0.0329041 0)
(-0.807897 0.0330616 0)
(-0.839363 0.0331626 0)
(-0.871156 0.0332059 3.90928e-21)
(-0.903224 0.0331919 3.89762e-21)
(-0.935513 0.0331207 3.88602e-21)
(-0.967971 0.0329916 0)
(-1.00054 0.0328038 -3.86276e-21)
(-1.03317 0.0325586 0)
(-1.06579 0.0322577 3.83902e-21)
(-1.09837 0.0319001 3.82681e-21)
(-1.13082 0.03148 0)
(-1.16311 0.0309886 0)
(-1.19515 0.0304184 0)
(-1.22689 0.0297695 3.77425e-21)
(-1.25827 0.0290651 0)
(-1.28923 0.0283687 0)
(-1.31978 0.027738 0)
(-1.34991 0.0271513 0)
(-1.37961 0.026559 0)
(-1.40885 0.0259463 0)
(-1.43758 0.0253129 0)
(-1.46578 0.0246597 0)
(-1.49341 0.0239872 -3.61551e-21)
(-1.52045 0.0232965 0)
(-1.54687 0.0225891 0)
(-1.57264 0.0218673 3.54495e-21)
(-1.59773 0.021134 3.51906e-21)
(-1.62212 0.0203922 0)
(-1.6458 0.0196445 -3.46354e-21)
(-1.66873 0.0188926 3.43385e-21)
(-1.6909 0.018137 0)
(-1.71228 0.0173771 -3.37046e-21)
(-1.73287 0.0166108 0)
(-1.75264 0.0158363 0)
(-1.77158 0.0150548 3.26515e-21)
(-1.78966 0.0142714 0)
(-1.80687 0.0134908 -3.18797e-21)
(-1.82321 0.0127142 0)
(-1.83867 0.0119415 3.1052e-21)
(-1.85323 0.0111726 3.06173e-21)
(-1.8669 0.0104074 3.01689e-21)
(-1.87967 0.00964637 5.94138e-21)
(-1.89154 0.00888968 -5.84631e-21)
(-1.9025 0.0081356 0)
(-1.91256 0.00738017 0)
(-1.92171 0.00661862 0)
(-1.92994 0.00585032 -5.44024e-21)
(-1.93726 0.00509006 -5.33255e-21)
(-1.94368 0.00437591 5.22252e-21)
(-1.94921 0.00371834 0)
(-1.95384 0.00306901 -4.99581e-21)
(-1.95756 0.00239521 -4.87933e-21)
(-1.96036 0.0017243 -4.76089e-21)
(-1.96217 0.00110918 0)
(-1.96307 0.000547477 0)
(-1.96315 1.32252e-05 0)
(-1.96243 -0.000499165 -4.26841e-21)
(-1.96093 -0.000990034 0)
(-1.95866 -0.00146028 0)
(-1.95565 -0.00191031 3.88172e-21)
(-1.95189 -0.00234093 0)
(-1.94741 -0.00275415 0)
(-1.94223 -0.00315377 3.4829e-21)
(-1.93635 -0.00354378 0)
(-1.92978 -0.0039262 0)
(-1.92253 -0.00430122 -3.07436e-21)
(-1.9146 -0.00466824 -2.93641e-21)
(-1.90602 -0.00502657 0)
(-1.89679 -0.00537597 2.65833e-21)
(-1.8869 -0.00571667 0)
(-1.87637 -0.00604953 -2.37785e-21)
(-1.86521 -0.00637697 0)
(-1.8534 -0.00670387 -2.09555e-21)
(-1.84095 -0.00703939 -1.9539e-21)
(-1.82784 -0.00739939 0)
(-1.81405 -0.00780213 0)
(-1.79957 -0.00824821 0)
(-1.78437 -0.00868318 0)
(-1.76847 -0.00900526 0)
(-1.75204 -0.0092339 0)
(-1.73508 -0.00944655 0)
(-1.7176 -0.0096432 -8.16801e-22)
(-1.69963 -0.00982003 6.74887e-22)
(-1.68118 -0.00997694 0)
(-1.66227 -0.0101187 0)
(-1.6429 -0.0102511 0)
(-1.62308 -0.0103771 0)
(-1.60283 -0.0104977 -5.98204e-23)
(-1.58214 -0.0106136 0)
(-1.56101 -0.0107252 6.17348e-22)
(-1.53946 -0.0108316 -8.94395e-22)
(-1.51749 -0.0109317 0)
(-1.49509 -0.0110272 0)
(-1.47227 -0.0111216 0)
(-1.44902 -0.0112177 1.98927e-21)
(-1.42533 -0.0113188 2.25927e-21)
(-1.40119 -0.0114301 0)
(-1.37657 -0.011557 2.79429e-21)
(-1.35146 -0.0117022 3.05917e-21)
(-1.32582 -0.0118662 -3.3222e-21)
(-1.29963 -0.0120509 0)
(-1.27286 -0.0122602 0)
(-1.24548 -0.0124972 -4.09949e-21)
(-1.21745 -0.0127637 0)
(-1.18872 -0.0130612 0)
(-1.15926 -0.0133906 0)
(-1.12901 -0.0137511 0)
(-1.09794 -0.0141374 5.35034e-21)
(-1.066 -0.0145427 5.59293e-21)
(-1.03318 -0.0149633 0)
(-0.999429 -0.015396 6.06959e-21)
(-0.964741 -0.0158379 0)
(-0.92909 -0.0162889 0)
(-0.892454 -0.0167533 6.76091e-21)
(-0.854808 -0.0172353 0)
(-0.816129 -0.0177354 7.20364e-21)
(-0.776396 -0.0182529 0)
(-0.735593 -0.0187867 0)
(-0.693711 -0.0193354 7.83499e-21)
(-0.650747 -0.0198969 0)
(-0.606707 -0.0204695 8.22979e-21)
(-0.561602 -0.0210535 0)
(-0.515448 -0.0216527 0)
(-0.468255 -0.0222771 0)
(-0.420015 -0.022946 -8.93658e-21)
(-0.370689 -0.0236893 0)
(-0.320212 -0.0245426 9.22974e-21)
(-0.268489 -0.0255169 0)
(-0.215416 -0.0262838 0)
(-0.163005 -0.02477 0)
(-0.114804 -0.0207253 0)
(-0.0692596 -0.0182557 0)
(-0.0227931 -0.0183727 0)
(0.0241489 -0.0180265 0)
(0.0694372 -0.0173813 -2.01755e-20)
(0.115027 -0.0184585 0)
(0.149548 -0.0163182 0)
(-0.0079516 0.0218894 7.692e-21)
(-0.011549 0.0248623 -7.2261e-21)
(-0.0220109 0.0271421 0)
(-0.0323487 0.0288477 4.77759e-21)
(-0.0429487 0.0301615 0)
(-0.0540451 0.0311875 2.36704e-21)
(-0.0656209 0.0320105 -4.70056e-21)
(-0.077616 0.0327051 -4.66834e-21)
(-0.0899959 0.0333297 0)
(-0.102743 0.0339258 -4.59933e-21)
(-0.115849 0.0345214 -2.28418e-21)
(-0.129319 0.0351345 0)
(-0.143165 0.0357767 0)
(-0.157408 0.0364551 0)
(-0.172076 0.0371744 0)
(-0.187202 0.0379384 -2.20018e-21)
(-0.202827 0.0387513 0)
(-0.218991 0.039619 4.33405e-21)
(-0.23574 0.0405511 0)
(-0.253116 0.0415613 0)
(-0.271146 0.0426689 -4.24849e-21)
(-0.289807 0.043895 0)
(-0.309083 0.0452215 4.1956e-21)
(-0.329038 0.046558 -2.0897e-21)
(-0.349761 0.0478621 2.07773e-21)
(-0.37129 0.0491496 -2.06604e-21)
(-0.393622 0.0504422 -2.05463e-21)
(-0.416749 0.0517488 0)
(-0.440662 0.0530673 0)
(-0.465354 0.0543887 2.02195e-21)
(-0.490818 0.0556995 -1.99961e-21)
(-0.517045 0.0569841 0)
(-0.544025 0.058227 0)
(-0.571743 0.0594154 1.98208e-21)
(-0.600183 0.0605402 0)
(-0.629322 0.0615954 0)
(-0.659131 0.0625766 -1.95505e-21)
(-0.689575 0.063479 0)
(-0.720617 0.0642972 1.9239e-21)
(-0.752216 0.0650255 -3.86085e-21)
(-0.784325 0.0656578 0)
(-0.816896 0.0661885 0)
(-0.849877 0.0666121 -7.60197e-21)
(-0.883214 0.066924 -7.57364e-21)
(-0.916851 0.0671207 -7.54611e-21)
(-0.950728 0.0672 3.74472e-21)
(-0.984785 0.0671611 -3.76136e-21)
(-1.01896 0.0670045 -1.12157e-20)
(-1.05319 0.0667312 7.44196e-21)
(-1.08742 0.0663429 3.72283e-21)
(-1.12158 0.0658415 0)
(-1.15561 0.0652295 -3.69741e-21)
(-1.18946 0.0645093 3.65722e-21)
(-1.22305 0.0636837 0)
(-1.25635 0.0627564 0)
(-1.28931 0.0617333 0)
(-1.32188 0.0606236 -3.63098e-21)
(-1.35404 0.0594418 0)
(-1.38575 0.058209 7.1804e-21)
(-1.41697 0.0569418 0)
(-1.44765 0.0556399 7.11859e-21)
(-1.47774 0.0542967 0)
(-1.50723 0.0529111 -7.05076e-21)
(-1.53609 0.0514858 0)
(-1.56427 0.0500245 6.97603e-21)
(-1.59177 0.048531 -3.45861e-21)
(-1.61855 0.0470091 0)
(-1.64458 0.0454624 -6.84923e-21)
(-1.66986 0.0438943 -3.40957e-21)
(-1.69435 0.0423081 -3.38479e-21)
(-1.71803 0.0407067 0)
(-1.74089 0.0390925 -3.31739e-21)
(-1.76292 0.0374678 -3.30326e-21)
(-1.78408 0.0358347 0)
(-1.80437 0.0341955 3.24263e-21)
(-1.82378 0.0325524 -6.40938e-21)
(-1.84228 0.0309083 0)
(-1.85987 0.0292665 -3.14186e-21)
(-1.87654 0.0276302 0)
(-1.89229 0.0260025 9.19556e-21)
(-1.90709 0.0243866 0)
(-1.92096 0.0227855 -8.95922e-21)
(-1.93388 0.0212027 -2.94709e-21)
(-1.94586 0.0196415 2.89858e-21)
(-1.9569 0.0181048 5.71002e-21)
(-1.967 0.0165951 -5.62028e-21)
(-1.97617 0.0151141 0)
(-1.98442 0.0136626 0)
(-1.99175 0.0122414 0)
(-1.99818 0.0108507 1.57149e-20)
(-2.00372 0.00948907 5.13592e-21)
(-2.00839 0.00815165 -5.03043e-21)
(-2.01217 0.00683006 0)
(-2.0151 0.00551502 -4.81549e-21)
(-2.01718 0.00420412 4.70125e-21)
(-2.01845 0.00291503 4.58749e-21)
(-2.019 0.00167926 0)
(-2.0188 0.000519311 0)
(-2.01778 -0.000582917 0)
(-2.01594 -0.00164066 4.11369e-21)
(-2.0133 -0.0026586 0)
(-2.00986 -0.00363948 -7.7435e-21)
(-2.00564 -0.00458491 -1.12348e-20)
(-2.00065 -0.00549627 7.24059e-21)
(-1.9949 -0.00637484 0)
(-1.98841 -0.00722184 3.37033e-21)
(-1.98119 -0.00803835 0)
(-1.97325 -0.00882547 6.20638e-21)
(-1.96461 -0.00958456 -2.97906e-21)
(-1.95528 -0.0103173 -2.84688e-21)
(-1.94526 -0.0110257 0)
(-1.93457 -0.0117118 -7.70614e-21)
(-1.92321 -0.012378 4.87409e-21)
(-1.91118 -0.0130267 2.29252e-21)
(-1.8985 -0.0136604 0)
(-1.88517 -0.0142819 2.02034e-21)
(-1.87118 -0.0148938 5.67224e-21)
(-1.85655 -0.0154971 0)
(-1.84129 -0.0160908 3.24232e-21)
(-1.82542 -0.0166684 2.96894e-21)
(-1.80897 -0.0172107 2.69544e-21)
(-1.79195 -0.0176914 0)
(-1.77436 -0.0181203 0)
(-1.75622 -0.0185213 0)
(-1.73754 -0.0188977 -8.13124e-22)
(-1.71834 -0.019252 -6.50492e-22)
(-1.69863 -0.0195868 0)
(-1.67842 -0.0199045 -7.8224e-22)
(-1.65772 -0.020207 -5.10747e-22)
(-1.63654 -0.0204956 0)
(-1.61487 -0.0207717 5.76382e-23)
(-1.59273 -0.0210368 5.96974e-22)
(-1.57012 -0.0212925 -5.947e-22)
(-1.54704 -0.0215398 -8.03764e-22)
(-1.52348 -0.0217801 0)
(-1.49946 -0.0220161 0)
(-1.47496 -0.022251 0)
(-1.44998 -0.0224883 -1.91474e-21)
(-1.42451 -0.022731 2.11327e-21)
(-1.39853 -0.0229819 4.80196e-21)
(-1.37204 -0.0232431 -2.68755e-21)
(-1.34501 -0.0235154 2.87817e-21)
(-1.31743 -0.0237997 3.19317e-21)
(-1.28928 -0.0240973 0)
(-1.26054 -0.0244106 0)
(-1.23117 -0.0247415 -3.8674e-21)
(-1.20117 -0.0250919 0)
(-1.17049 -0.0254629 0)
(-1.13912 -0.0258546 9.23558e-21)
(-1.10702 -0.0262655 0)
(-1.07418 -0.0266928 5.04214e-21)
(-1.04056 -0.0271329 -5.34582e-21)
(-1.00615 -0.0275834 0)
(-0.970932 -0.0280419 5.70613e-21)
(-0.934882 -0.0285068 0)
(-0.897985 -0.0289776 0)
(-0.860221 -0.0294536 -6.42371e-21)
(-0.821577 -0.0299333 1.31563e-20)
(-0.78204 -0.0304135 -6.82192e-21)
(-0.741602 -0.0308897 0)
(-0.700259 -0.0313574 0)
(-0.658014 -0.0318111 7.26466e-21)
(-0.614872 -0.0322437 0)
(-0.570849 -0.032648 7.58923e-21)
(-0.525967 -0.0330182 0)
(-0.480253 -0.033351 0)
(-0.433736 -0.0336473 0)
(-0.386444 -0.0339113 8.28136e-21)
(-0.338409 -0.0341451 0)
(-0.289692 -0.0343263 -8.5204e-21)
(-0.240468 -0.0343264 0)
(-0.191086 -0.0337208 0)
(-0.14228 -0.0320117 1.74641e-20)
(-0.0944578 -0.0302432 -1.76475e-20)
(-0.0464561 -0.03015 0)
(0.00172181 -0.0304257 0)
(0.0500431 -0.0299487 0)
(0.0975603 -0.0284626 5.60483e-20)
(0.14677 -0.0267189 0)
(0.188821 -0.0226919 -3.84828e-20)
(-0.00897717 0.0430833 6.40028e-25)
(-0.0128526 0.0473918 9.74214e-21)
(-0.0238651 0.0507866 0)
(-0.0348516 0.0535815 -9.57325e-21)
(-0.0459283 0.0558797 0)
(-0.0574918 0.0577673 0)
(-0.069573 0.0593362 -3.70189e-24)
(-0.0821205 0.0606835 4.68062e-21)
(-0.0951049 0.0618972 4.65173e-21)
(-0.108512 0.0630499 4.6147e-21)
(-0.122336 0.0641973 0)
(-0.136581 0.0653811 0)
(-0.151255 0.0666316 -4.51681e-21)
(-0.16638 0.0679711 -8.96762e-21)
(-0.181979 0.069416 8.90293e-21)
(-0.198082 0.0709798 0)
(-0.214723 0.0726741 8.77786e-21)
(-0.231936 0.07451 -4.35474e-21)
(-0.249754 0.0764981 0)
(-0.268208 0.0786461 8.60118e-21)
(-0.287314 0.0809536 4.26781e-21)
(-0.307074 0.083399 -8.49007e-21)
(-0.327487 0.0859176 -4.21266e-21)
(-0.348578 0.088432 0)
(-0.370389 0.0909118 8.33211e-21)
(-0.392951 0.0933647 8.28165e-21)
(-0.416272 0.095803 0)
(-0.440351 0.0982296 8.1839e-21)
(-0.46518 0.100637 0)
(-0.490748 0.103008 8.09032e-21)
(-0.51704 0.105323 4.01549e-21)
(-0.544041 0.107558 0)
(-0.571732 0.109691 0)
(-0.600094 0.111706 0)
(-0.629105 0.113588 0)
(-0.658737 0.115326 0)
(-0.688959 0.116912 0)
(-0.719732 0.118335 7.76216e-21)
(-0.751015 0.119587 -1.15816e-20)
(-0.782762 0.120659 0)
(-0.814924 0.12154 0)
(-0.847448 0.122223 0)
(-0.88028 0.122699 -1.73475e-23)
(-0.913363 0.122963 7.54727e-21)
(-0.946639 0.123011 1.50527e-20)
(-0.980048 0.122841 -1.49948e-20)
(-1.01353 0.122454 -7.47789e-21)
(-1.04703 0.121851 7.43256e-21)
(-1.08048 0.121035 1.74243e-23)
(-1.11383 0.120012 7.39546e-21)
(-1.14701 0.118787 0)
(-1.17997 0.11737 7.34131e-21)
(-1.21267 0.115767 1.65706e-23)
(-1.24505 0.113988 0)
(-1.27707 0.112047 0)
(-1.30868 0.109958 -7.23001e-21)
(-1.33986 0.107741 0)
(-1.37058 0.105421 0)
(-1.40079 0.103021 7.15326e-21)
(-1.43045 0.100559 1.42142e-20)
(-1.45952 0.0980362 -7.06061e-21)
(-1.48797 0.09545 0)
(-1.51576 0.092802 6.98968e-21)
(-1.54288 0.0900967 0)
(-1.5693 0.0873397 6.93405e-21)
(-1.595 0.0845371 6.87034e-21)
(-1.61996 0.081695 -1.36737e-20)
(-1.64417 0.0788196 -6.80046e-21)
(-1.6676 0.0759169 0)
(-1.69024 0.0729923 1.3384e-20)
(-1.71208 0.0700509 0)
(-1.7331 0.0670972 1.97442e-20)
(-1.75328 0.0641352 1.30532e-20)
(-1.77262 0.0611683 1.29332e-20)
(-1.79111 0.0581999 -1.28083e-20)
(-1.80873 0.0552335 1.90107e-20)
(-1.82548 0.0522731 0)
(-1.84134 0.0493235 0)
(-1.85631 0.0463902 -1.22577e-20)
(-1.87038 0.0434787 -1.81548e-20)
(-1.88354 0.0405942 0)
(-1.8958 0.0377419 5.88979e-21)
(-1.90715 0.0349269 0)
(-1.91759 0.0321542 -1.71746e-20)
(-1.92713 0.0294282 9.88324e-24)
(-1.93576 0.0267527 -9.64914e-24)
(-1.94351 0.0241304 1.09098e-20)
(-1.95038 0.0215629 0)
(-1.95637 0.0190519 -1.05238e-20)
(-1.96151 0.0165994 9.00227e-24)
(-1.96579 0.0142083 0)
(-1.96924 0.0118811 0)
(-1.97185 0.00961612 0)
(-1.97364 0.00741113 9.47329e-21)
(-1.97462 0.00526913 0)
(-1.9748 0.00318832 0)
(-1.9742 0.00116821 0)
(-1.97279 -0.000793934 0)
(-1.97058 -0.00269647 0)
(-1.96758 -0.00453823 8.10305e-21)
(-1.96379 -0.00631885 0)
(-1.95922 -0.00803763 7.60615e-21)
(-1.9539 -0.00969463 7.35903e-21)
(-1.94782 -0.0112909 -7.10941e-21)
(-1.941 -0.0128284 0)
(-1.93347 -0.0143099 -6.60335e-21)
(-1.92522 -0.0157381 0)
(-1.91629 -0.0171159 -6.08931e-21)
(-1.90667 -0.018446 5.82971e-21)
(-1.89638 -0.0197309 1.67329e-20)
(-1.88543 -0.0209735 0)
(-1.87383 -0.0221767 1.51555e-20)
(-1.86159 -0.0233435 4.80653e-21)
(-1.84871 -0.0244773 0)
(-1.83521 -0.0255818 8.52084e-21)
(-1.82109 -0.0266609 7.9871e-21)
(-1.80637 -0.027718 -1.11629e-20)
(-1.79105 -0.0287547 0)
(-1.77516 -0.0297687 -3.17436e-21)
(-1.75871 -0.0307481 -2.90613e-21)
(-1.74174 -0.0316682 -7.94596e-21)
(-1.72423 -0.0325047 0)
(-1.70618 -0.033266 0)
(-1.6876 -0.0339739 0)
(-1.66849 -0.0346365 -1.59883e-21)
(-1.64887 -0.0352586 0)
(-1.62875 -0.0358445 0)
(-1.60814 -0.0363987 7.64546e-22)
(-1.58703 -0.0369251 4.99102e-22)
(-1.56544 -0.0374269 0)
(-1.54337 -0.0379067 0)
(-1.52082 -0.0383671 -5.83046e-22)
(-1.49781 -0.0388101 0)
(-1.47432 -0.0392377 1.62582e-21)
(-1.45037 -0.0396524 2.10492e-21)
(-1.42595 -0.0400579 0)
(-1.40105 -0.0404593 0)
(-1.37568 -0.0408615 -3.63817e-21)
(-1.34983 -0.0412697 -3.97878e-23)
(-1.32349 -0.0416888 -4.00849e-23)
(-1.29665 -0.0421229 0)
(-1.26931 -0.0425747 -1.13089e-20)
(-1.24144 -0.0430462 0)
(-1.21305 -0.0435399 0)
(-1.18411 -0.0440586 0)
(-1.15461 -0.044605 7.60476e-21)
(-1.12454 -0.0451814 0)
(-1.09387 -0.0457891 -1.69998e-20)
(-1.06259 -0.0464277 -8.99912e-21)
(-1.03068 -0.0470942 0)
(-0.998118 -0.0477836 -9.89904e-21)
(-0.964894 -0.0484901 0)
(-0.930989 -0.0492082 0)
(-0.896385 -0.0499334 -3.35215e-20)
(-0.861067 -0.0506632 2.31611e-20)
(-0.825018 -0.0513959 0)
(-0.788219 -0.0521307 2.47858e-20)
(-0.750657 -0.0528651 -1.28171e-20)
(-0.712317 -0.0535945 0)
(-0.673187 -0.0543128 0)
(-0.633259 -0.0550138 0)
(-0.592526 -0.0556907 -4.27706e-20)
(-0.550983 -0.0563348 0)
(-0.508632 -0.0569384 -1.49286e-20)
(-0.465474 -0.0574967 0)
(-0.421518 -0.0580106 0)
(-0.376773 -0.0584875 0)
(-0.331254 -0.0589411 0)
(-0.284991 -0.0593811 0)
(-0.23806 -0.0597821 0)
(-0.190643 -0.0599952 -3.37242e-20)
(-0.142997 -0.0595421 0)
(-0.0951239 -0.0578244 -1.73965e-20)
(-0.0466438 -0.0557168 5.30687e-20)
(0.00259933 -0.0549099 0)
(0.0518732 -0.0548265 0)
(0.101389 -0.0541342 -3.69185e-20)
(0.150564 -0.05256 -3.73672e-20)
(0.202273 -0.050929 3.78509e-20)
(0.247256 -0.0467958 3.8204e-20)
(-0.00977311 0.0639004 -1.57953e-20)
(-0.0142826 0.0684751 -1.47471e-20)
(-0.0257454 0.0723229 -9.65594e-21)
(-0.0373186 0.075881 -4.80176e-21)
(-0.0488761 0.0790302 0)
(-0.0608984 0.0817643 9.50334e-21)
(-0.0734544 0.0841417 -4.72661e-21)
(-0.0865067 0.08625 0)
(-0.100034 0.0881809 -4.66219e-21)
(-0.114029 0.0900175 0)
(-0.128486 0.0918295 9.19649e-21)
(-0.143407 0.093673 0)
(-0.1588 0.0955918 4.53056e-21)
(-0.17468 0.0976194 8.99608e-21)
(-0.191063 0.0997809 -8.93202e-21)
(-0.207973 0.102094 0)
(-0.225433 0.104571 -8.80723e-21)
(-0.243465 0.10722 0)
(-0.26209 0.11004 0)
(-0.281325 0.113027 -8.62851e-21)
(-0.301179 0.116168 0)
(-0.321657 0.119435 -4.22649e-24)
(-0.342764 0.122787 0)
(-0.364515 0.126178 0)
(-0.38693 0.129576 5.14145e-24)
(-0.410024 0.132964 -8.29883e-21)
(-0.433802 0.136327 -8.25327e-21)
(-0.458259 0.139651 -8.1971e-21)
(-0.483384 0.14292 0)
(-0.509163 0.146112 -1.62062e-20)
(-0.535576 0.149204 0)
(-0.562604 0.152172 -8.0146e-21)
(-0.590225 0.154991 0)
(-0.618412 0.157642 0)
(-0.647139 0.160105 7.88589e-21)
(-0.676371 0.162362 0)
(-0.706072 0.164397 -7.8064e-21)
(-0.7362 0.166195 1.0809e-23)
(-0.766709 0.167742 1.54522e-20)
(-0.797551 0.169023 -1.53923e-20)
(-0.828673 0.170028 0)
(-0.860022 0.170745 0)
(-0.891541 0.171168 -7.60843e-21)
(-0.923173 0.171289 0)
(-0.954861 0.171106 -7.51886e-21)