/*--------------------------------*- C++ -*----------------------------------*\
| =========                 |                                                 |
| \\      /  F ield         | OpenFOAM: The Open Source CFD Toolbox           |
|  \\    /   O peration     | Version:  2112                                  |
|   \\  /    A nd           | Website:  www.openfoam.com                      |
|    \\/     M anipulation  |                                                 |
\*---------------------------------------------------------------------------*/
FoamFile
{
    version     2.0;
    format      ascii;
    arch        "LSB;label=32;scalar=64";
    class       volScalarField;
    location    "0.22";
    object      p;
}
// * * * * * * * * * * * * * * * * * * * * * * * * * * * * * * * * * * * * * //

dimensions      [0 2 -2 0 0 0 0];

internalField   nonuniform List<scalar> 
122250
(
1595.04
-503.952
19.8659
-70.4401
15.2101
14.0352
43.721
59.9529
43.769
14.8634
18.9855
28.8878
18.7811
7.91805
2.33247
-2.01167
-3.69519
3.13845
1534.14
-565.138
-7.59563
-96.4662
-10.179
-5.68077
29.5938
53.32
39.191
6.98392
9.67629
17.2263
12.1025
6.27257
2.55744
-2.35566
-5.05785
0.424377
1486.06
-613.477
-16.7182
-114.923
-52.6137
-30.4696
13.2437
39.5651
32.8805
16.5797
8.86998
2.6069
1.95925
3.7641
1.88674
-3.57395
-5.61446
-0.694052
1467.58
-633.299
4.0933
-88.3542
-85.8255
-67.778
-8.29882
23.937
29.1276
33.1132
18.5045
-7.19318
-7.03984
0.583716
0.387077
-4.69205
-7.02415
-3.93325
1443.38
-635.685
68.1548
-79.1396
-103.239
-93.0082
-25.441
9.53101
27.6563
52.5894
35.5892
-7.90676
-14.631
-5.61118
-3.40882
-8.68045
-12.6644
-11.3254
1418.38
-635.172
113.373
-71.1393
-105.605
-100.486
-33.5517
3.61418
36.8492
70.4127
43.5768
-9.4775
-23.8811
-13.9405
-7.99219
-11.7802
-19.6347
-21.5423
1401.8
-650.784
129.816
-58.3972
-93.046
-100.107
-31.0119
15.4973
51.185
65.5011
33.4882
-17.6191
-32.7665
-23.2935
-20.1664
-26.6828
-32.9692
-32.3587
1382.77
-700.165
107.541
-71.7528
-84.2768
-102.574
-31.8947
10.0857
47.4109
49.2075
19.3333
-23.8324
-36.9531
-30.1126
-31.0793
-39.2946
-40.0687
-36.669
1356.79
-742.45
82.7201
-90.7879
-76.5995
-106.522
-48.4283
-25.3412
25.2059
31.4113
8.60645
-22.7378
-36.5563
-34.8574
-33.1579
-34.1208
-35.7011
-35.3221
1321.3
-752.275
80.1163
-111.461
-72.1335
-104.011
-80.5785
-60.5545
8.74706
24.0477
5.15294
-18.1419
-34.4755
-38.9653
-37.7166
-36.6992
-35.8687
-33.4907
1281.48
-741.213
70.1778
-134.332
-68.3648
-85.97
-77.9473
-57.6061
5.53012
24.4462
5.62521
-13.8444
-31.9221
-42.2654
-46.6265
-48.4137
-43.7279
-34.7131
1244.99
-718.284
56.8511
-153.452
-66.0744
-54.2737
-28.1122
-22.3493
14.1817
21.1537
1.99645
-16.9738
-33.7516
-46.2658
-54.4492
-56.5601
-50.2476
-36.0938
1220.91
-677.14
60.521
-130.821
-57.4616
-40.7516
9.2391
-5.54742
12.0195
12.224
-3.8005
-24.6895
-42.8632
-58.0734
-65.0996
-62.4442
-50.0787
-32.9002
1217.13
-619.599
101.48
-68.9204
-50.9677
-41.3754
30.7227
0.40498
5.43255
-0.377209
-14.9023
-37.2509
-59.863
-75.2232
-74.1067
-61.4954
-43.0831
-21.4593
1200.53
-616.091
131.054
-73.3226
-27.3927
-17.6068
13.1475
-9.0537
5.29749
-7.97471
-23.3836
-46.1837
-65.1155
-67.6349
-59.096
-36.6751
-14.3628
-1.08058
1187.14
-649.653
134.315
-95.5569
-3.37761
-6.65544
13.0025
-6.11744
-0.973475
-17.4556
-30.2032
-43.9424
-49.6874
-44.2901
-31.4918
-16.1394
-1.18922
4.79845
1160.68
-657.568
225.257
-132.243
21.5433
-15.4588
11.6103
-5.1255
-2.3258
-16.4518
-25.6431
-34.6308
-35.5879
-30.1686
-16.73
-3.56112
3.42075
4.88862
1167.32
-639.079
269.518
-141.203
34.2967
-20.9279
9.80929
-0.976036
1.26873
-6.44811
-12.6355
-18.5344
-19.46
-15.8091
-8.96975
-2.87884
-0.162215
1.47882
1163.01
-630.216
306.568
-132.139
28.5125
-8.34441
12.4994
6.16572
5.84753
2.47508
-0.162426
-3.42055
-4.8593
-4.20912
-2.47702
-1.12198
0.122527
0.894775
1150.63
-611.514
314.95
-117.835
26.6699
1.91578
13.58
13.8182
12.0317
9.66036
7.48789
5.02131
3.45554
2.63299
2.40113
2.42503
2.5285
2.62089
1146.7
-609.249
309.469
-102.95
28.2675
6.37537
13.7976
14.2259
13.4302
12.307
10.2359
7.8083
6.31217
5.23231
4.62473
4.34293
4.3436
4.44207
1152.12
-625.313
289.452
-94.974
33.575
7.74704
15.6878
13.5739
14.2397
11.9377
10.3315
8.38498
7.24027
6.27454
5.8382
5.68807
5.73125
5.92608
1159.77
-646.081
258.428
-88.3918
37.8789
7.07974
18.2139
12.4601
15.3776
11.4228
10.4009
8.35453
6.79515
5.75771
6.13177
6.84929
7.15973
7.52581
1162.25
-665.143
218.103
-80.6985
39.4388
5.84506
20.4196
12.0757
15.9281
10.8703
10.8948
8.11834
5.96914
4.13253
5.19563
7.87172
9.17595
9.17808
1156.34
-687.9
167.117
-72.4435
36.3868
4.24284
22.2485
11.9096
16.4168
11.4573
11.4239
6.91028
4.33472
3.28142
4.80591
5.80104
5.54341
6.65626
1164.41
-723.37
107.168
-63.7673
32.4253
4.25091
20.1875
11.9861
17.4704
13.11
12.1996
7.06899
4.40154
3.86301
5.49214
5.88772
4.21372
3.57411
1187.46
-737.442
44.5278
-74.255
31.3452
-1.80035
21.4142
10.1455
17.7005
16.2598
13.6982
7.35541
5.0658
4.93393
6.59565
6.89192
5.4496
4.26716
1179.71
-732.766
-9.98585
-77.734
35.1424
-6.72367
25.5883
8.48845
17.2437
17.569
14.1724
7.89765
5.63994
5.94675
7.72392
8.16432
6.80619
4.98137
1172.12
-808.086
-71.0786
-83.4291
42.9498
5.93598
26.5054
8.53912
17.5386
16.6235
14.1621
8.71582
5.92366
5.84029
7.85276
9.11639
8.27223
6.20656
1165.49
-802.453
-55.491
-75.1144
49.4519
4.18503
25.4416
8.00738
17.8781
17.0306
14.4964
9.49664
6.3632
5.62914
7.67021
9.07056
8.59981
7.08962
1313.81
-461.216
180.075
-24.4313
11.9755
-12.2903
44.8582
82.3959
69.3159
28.4905
-2.49779
-5.46767
-2.91891
-3.7389
-2.86362
-1.27779
-1.0188
3.51638
1392.45
-569.763
35.2947
-103.05
-35.4298
-29.1738
39.8231
83.5701
70.774
28.1068
-8.30974
-9.17452
-4.8434
-4.41885
-3.02653
-1.23992
-1.34283
1.1653
1446.21
-692.284
-76.9336
-170.077
-100.082
-68.046
19.2952
74.7674
71.2374
31.4443
0.439425
-10.3235
-5.4791
-4.98499
-4.68138
-3.11442
-3.71952
-2.01754
1488.61
-743.092
-102.145
-168.748
-129.094
-108.19
-7.03443
57.7036
61.367
33.0312
6.9163
-6.82727
-5.81995
-7.46023
-6.7871
-3.97437
-5.7774
-6.35071
1467.22
-751.356
-64.7247
-169.381
-131.376
-133.16
-25.6337
37.5446
46.2184
31.0679
14.2577
-2.29804
-7.16569
-10.0248
-7.17029
-4.87233
-11.3811
-16.2302
1422.25
-708.02
16.3369
-158.18
-129.051
-146.198
-36.0366
22.0375
38.0482
31.8878
17.5656
-0.81428
-10.8659
-12.7376
-8.07087
-9.18615
-22.0583
-29.2909
1394.28
-665.599
101.059
-127.216
-123.227
-148.575
-36.9838
19.4171
40.8133
36.7129
21.6726
-3.6386
-18.0088
-18.1519
-13.1092
-18.8843
-33.3161
-39.7874
1377.46
-657.885
138.353
-111.697
-111.678
-144.28
-29.6676
11.4799
33.7886
33.6074
23.934
-4.99922
-25.4034
-26.6859
-22.0082
-27.5451
-37.5053
-40.0185
1356.2
-676.19
142.58
-106.981
-95.871
-129.882
-33.6767
-17.8633
20.605
28.6727
23.9005
-3.12023
-30.8378
-36.5097
-30.8109
-29.2084
-33.5359
-36.7288
1331.9
-695.445
132.101
-116.17
-95.6628
-101.252
-49.1665
-59.6646
2.98006
21.0277
17.675
-4.69162
-32.3421
-41.7604
-35.5516
-31.9599
-33.0787
-33.8647
1306.47
-703.727
114.183
-135.901
-89.9997
-84.6893
-45.7577
-76.4357
-21.164
5.18566
4.21043
-7.95056
-31.03
-45.0305
-44.4644
-41.1594
-38.1187
-31.3496
1279.01
-698.399
99.8911
-153.241
-71.7194
-66.6344
-12.2116
-32.8131
-15.9519
1.12662
-7.40719
-23.8564
-38.1977
-50.9615
-58.7114
-59.0023
-47.6012
-31.905
1255.11
-684.207
99.4053
-141.191
-52.3844
-49.1829
22.9958
0.491861
-1.39126
2.20487
-13.4489
-33.4453
-50.1046
-68.0171
-81.5234
-81.09
-60.6049
-36.5256
1236.97
-660.44
147.918
-84.489
-36.0177
-33.4926
43.2673
17.3569
14.7675
0.0104689
-20.7864
-52.2772
-86.0253
-111.642
-118.103
-106.381
-66.5019
-26.1938
1215.36
-631.115
197.031
-79.0689
-11.7845
2.47103
22.7026
-0.917163
13.15
-8.62918
-32.9731
-69.2606
-99.4624
-117.671
-101.459
-55.2013
-11.8148
5.93735
1185.04
-620.293
200.758
-111.385
10.2589
-6.63687
14.0999
-4.80553
1.77129
-19.8529
-37.4557
-62.4386
-69.2225
-58.1972
-36.2259
-15.8307
1.01652
8.62423
1165.18
-638.518
248.446
-133.814
22.1181
-16.9972
9.11238
-7.23379
-3.43069
-18.7524
-29.2177
-40.7255
-41.7458
-35.161
-19.833
-3.69276
6.00387
7.706
1165.35
-650.4
295.683
-136.513
34.899
-19.6364
8.48205
-0.334442
1.10447
-6.63
-13.3984
-19.6789
-20.8112
-17.8697
-10.7584
-3.27105
0.741507
2.52077
1162.62
-627.737
305.508
-131.646
27.6572
-8.10022
11.8296
6.17658
5.10029
2.23078
-0.0544818
-3.30296
-4.91218
-4.47176
-2.43646
-0.707198
0.40914
1.05009
1150.43
-611.078
313.705
-117.737
26.6306
1.25924
13.0396
14.6564
12.5396
9.68493
7.32884
4.88117
3.21589
2.31926
2.12804
2.22763
2.46786
2.62188
1146.73
-609.945
307.89
-103.412
29.3835
6.08225
13.7873
14.5938
14.1449
12.335
10.288
8.01832
6.31571
5.16503
4.51259
4.26501
4.26168
4.37071
1152.95
-627.247
286.378
-95.2443
35.8824
7.1952
15.7795
13.5572
14.3152
12.0832
10.6791
8.60401
6.99189
5.84982
5.32987
5.21257
5.33232
5.61333
1160.29
-647.851
251.133
-87.4201
40.8495
6.14645
18.4549
12.3891
15.1561
11.5544
10.8633
8.53925
6.4064
4.84719
4.82855
5.47358
6.1239
6.78883
1157.23
-666.501
200.147
-76.9854
42.8699
4.1425
21.5888
12.4631
15.6595
11.2207
11.5404
7.41294
4.99812
3.56426
4.60196
5.99115
7.08406
8.5464
1141.41
-697.338
127.01
-64.232
37.4035
-0.0735976
20.0901
12.016
17.0644
12.2576
11.7451
6.32234
3.90561
3.09843
4.70766
6.63246
7.39404
7.30481
1163.3
-766.001
34.715
-56.0361
34.5719
-1.84128
23.6331
15.1411
18.6399
16.14
12.9622
6.48689
3.58328
2.69339
4.30127
6.37127
7.2274
7.18177
1235.36
-756.937
-75.0039
-69.2987
23.724
-5.99363
26.3555
8.46916
20.5057
21.2347
14.7626
6.61672
3.317
2.65758
4.24769
6.48375
7.61614
7.64523
1258.25
-643.974
-106.366
-106.517
23.2141
-9.42014
29.225
10.6233
19.5835
20.2789
15.0807
7.67891
3.84384
2.78432
5.02473
7.66821
8.55081
7.99755
1228.67
-628.396
-82.6143
-119.525
51.8113
2.84122
31.487
11.6968
18.4154
18.5217
14.8412
7.88019
3.00136
3.25999
6.45542
9.55002
10.2215
9.15312
1208.21
-592.985
-17.1301
-109.698
65.0292
-2.09891
31.9227
14.4981
17.9733
17.0782
14.3418
8.09555
4.10884
4.14088
7.19238
9.86393
10.0936
8.92505
1250.47
-465.832
38.692
-202.409
-41.0663
-38.2104
50.6173
79.385
61.3621
30.2437
3.66282
-8.11247
-11.6239
-12.3332
-6.79384
0.421999
2.77913
4.42014
1332.59
-510.403
-16.9755
-209.76
-64.1358
-49.2273
50.4928
81.9969
60.0353
26.6058
-0.0719421
-11.5432
-13.465
-13.4979
-8.15724
-2.29244
-0.204155
1.79785
1400.59
-606.509
-95.5639
-212.543
-90.8207
-66.428
41.6965
76.1735
55.5985
25.8038
1.00606
-12.807
-15.6346
-15.757
-10.9359
-4.8613
-3.67722
-3.25906
1450.99
-709.095
-129.712
-212.747
-130.998
-96.1385
24.8923
60.8876
46.7542
25.2262
5.25237
-12.1505
-17.0464
-17.6118
-13.0161
-5.93019
-5.79238
-8.13543
1419.46
-762.08
-98.7552
-195.694
-146.967
-129.449
6.49272
42.1347
33.1602
22.3738
9.17293
-9.53691
-16.6595
-17.1398
-10.9072
-6.36787
-9.42696
-14.5106
1377.09
-722.821
-29.2816
-180.004
-150.463
-144.552
1.91664
33.9661
26.8632
19.3117
9.34982
-7.82373
-16.0961
-17.0481
-13.3025
-10.8555
-15.9574
-22.1388
1381.26
-687.124
48.6495
-157.419
-140.235
-147.833
10.139
32.3282
32.2507
29.465
11.5154
-10.417
-18.0807
-17.7116
-16.555
-17.9478
-23.9684
-29.5224
1382.58
-669.525
95.0271
-121.882
-107.712
-134.399
18.9169
20.811
28.4816
32.2673
18.9996
-5.59294
-18.4432
-19.2724
-18.3366
-22.15
-29.7674
-35.736
1369.35
-674.299
127.086
-99.4144
-71.8488
-97.6708
21.8585
2.17667
18.0016
28.969
22.546
-0.0891983
-18.4844
-23.1871
-20.9827
-23.8494
-30.4696
-35.4606
1352.8
-684.185
146.236
-108.191
-68.0416
-54.6272
18.5907
-14.2987
5.97707
23.2402
20.2427
0.461477
-19.7947
-28.82
-28.1648
-27.2347
-29.4052
-33.152
1333.25
-689.802
156.401
-110.994
-83.7683
-69.7345
14.9412
-18.842
-2.87713
16.693
15.0817
-4.92731
-24.989
-36.5715
-39.3949
-38.196
-35.1667
-31.4461
1308.72
-691.653
163.385
-97.8487
-65.4855
-81.105
9.58843
-4.0238
8.08363
10.8433
5.70704
-13.2554
-32.8989
-47.5392
-56.3129
-55.7716
-45.3357
-33.3959
1284.8
-685.075
166.199
-90.6584
-33.3319
-35.3356
23.5685
24.7097
33.482
5.95734
-19.4141
-34.1864
-46.8032
-62.3647
-75.5563
-70.6033
-51.9184
-30.8238
1258.79
-674.419
179.778
-88.0896
-21.4446
-25.7931
39.362
32.3141
29.2824
-6.76164
-43.5808
-68.7737
-85.9045
-94.5392
-93.2353
-66.8092
-36.2701
-4.81905
1229.87
-653.822
200.827
-101.279
-7.47473
-2.33187
24.4564
11.2046
16.1432
-22.4164
-62.5897
-102.051
-119.013
-109.702
-74.6404
-15.0966
27.5164
32.7879
1197.14
-642.735
218.904
-124.331
6.41243
-6.89047
18.6304
-2.97045
0.400242
-27.1583
-57.3145
-84.5191
-83.564
-60.0279
-25.8973
0.673512
13.9758
17.5996
1173.82
-642.294
256.026
-135.94
23.9909
-14.786
9.38368
-8.1245
-4.24295
-20.7927
-34.0129
-47.3563
-48.0204
-36.6712
-18.5022
-2.17024
7.35733
10.4214
1167.5
-636.38
281.739
-137.768
36.2422
-17.4459
7.69043
0.0977046
0.931169
-6.53697
-13.7257
-20.2329
-22.0939
-19.0295
-11.3221
-3.25751
1.66701
3.46038
1162.26
-628.848
306.378
-131.939
27.2431
-8.13249
9.64252
6.13378
5.55101
2.71778
0.0979613
-2.9919
-4.57605
-4.03391
-1.78969
-0.147311
0.671762
0.996535
1150.17
-611.631
312.86
-117.99
27.1534
0.234003
12.1198
13.6835
13.046
9.9466
7.28038
4.75974
3.02822
2.18582
2.07971
2.26502
2.51599
2.67869
1146.83
-610.672
306.525
-103.964
30.6025
5.79429
13.8218
15.0643
14.9012
12.3085
10.3713
8.01693
6.32045
5.23632
4.46559
4.14802
4.05436
4.10525
1153.28
-627.883
283.741
-95.0392
37.3218
6.80522
15.9914
13.6532
13.9933
12.2973
10.9375
8.63119
6.75085
5.46843
4.80917
4.64313
4.72749
4.9705
1158.23
-645.432
245.854
-86.4764
41.7555
5.25663
19.0012
12.3734
14.5632
11.5679
10.9645
8.50379
6.09933
4.35737
4.15553
4.73245
5.2323
5.41351
1148.52
-660.332
185.352
-75.2141
43.4436
3.30898
21.6179
11.9468
15.2548
11.2074
11.0134
7.20761
4.48038
3.00255
3.81005
5.06286
5.79134
6.13492
1133.95
-699.211
83.353
-61.6919
36.3066
-1.6975
22.0556
12.7079
16.5369
12.4967
11.5604
6.06657
2.82067
1.85982
3.49723
5.45793
6.20877
6.51459
1176.76
-743.985
-27.2883
-58.3517
31.4102
1.1213
22.558
10.2074
20.0249
16.1761
14.3071
5.9557
1.98679
1.40605
3.61489
6.14268
6.42739
5.76808
1254.58
-637.711
-62.6391
-87.1662
16.7412
-12.7445
17.0431
4.92985
16.0741
17.1196
14.8385
6.58298
1.93504
1.16801
3.79346
6.73059
7.08576
6.18643
1274.7
-464.43
-0.684722
-139.184
23.392
-20.1654
26.5756
11.3499
17.3631
20.8724
20.1102
9.45646
1.92065
0.962826
5.09013
8.68612
9.04957
7.75004
1263.94
-357.745
72.8499
-120.365
54.0462
-12.5357
37.8931
14.5192
14.1434
15.513
15.3604
9.83471
4.02297
3.19627
7.70899
11.9227
12.3206
9.99496
1245.8
-306.782
139.03
-106.436
32.2076
-17.2855
40.9141
10.5455
13.8842
13.6614
13.8619
10.0381
5.17554
4.00446
7.30309
11.1197
11.9857
10.4256
1284.62
-585.665
-65.0406
-217.404
-53.7886
-33.0148
49.4857
52.6089
46.9892
30.5831
13.9258
-0.53665
-10.1004
-13.5503
-10.8114
-3.73641
-1.42147
-2.37651
1323.5
-591.658
-67.2874
-257.393
-60.666
-35.2595
51.3656
55.0344
45.0847
28.2935
11.959
-2.4099
-12.8283
-16.2994
-13.7768
-6.75638
-4.44785
-5.32924
1397.83
-598.693
-55.5226
-263.042
-81.9083
-42.9716
42.7082
45.7949
40.4541
26.1585
10.2682
-5.2282
-16.5155
-20.4804
-17.4231
-9.21401
-5.15351
-5.2637
1421.93
-672.416
-75.6455
-212.025
-104.303
-65.6176
35.3099
38.754
37.2484
26.4191
9.31657
-8.15192
-19.2459
-22.579
-20.1029
-11.4967
-6.64626
-7.54533
1365.89
-729.038
-77.4588
-106.867
-101.915
-91.6243
39.044
34.5724
34.6341
27.7798
9.78057
-9.98296
-21.8041
-24.1531
-21.537
-14.0558
-9.55752
-10.1715
1338.6
-700.461
-14.6061
-96.3432
-87.2253
-80.3205
50.3832
36.8469
33.3405
27.6198
10.2107
-11.3555
-25.6562
-28.4172
-25.8523
-18.6332
-13.8946
-13.9
1366.9
-677.625
72.4334
-120.483
-66.8881
-68.9103
54.437
39.0192
32.5
26.6636
8.95931
-14.2639
-27.2352
-27.3129
-28.7001
-27.2228
-22.1476
-19.1049
1366.09
-663.373
112.476
-94.767
-17.1549
-58.9279
51.3208
21.1708
20.7899
23.0174
8.92915
-13.7165
-26.4802
-22.763
-23.2253
-26.6983
-28.097
-27.0378
1360.14
-672.157
135.121
-81.2968
-21.5332
-19.2954
52.9548
0.594169
-2.66174
9.1604
4.89694
-12.2708
-25.4334
-22.0015
-20.4883
-25.2705
-30.5551
-30.6388
1351.88
-680.24
153.054
-90.4185
-32.0672
5.26337
61.6461
-3.88865
-11.4445
-2.17558
-5.16559
-14.7734
-25.7455
-27.2362
-27.6002
-31.0821
-35.5115
-38.6843
1337.81
-684.967
164.272
-83.7713
-19.8493
-21.8566
54.6983
-7.21956
-11.9144
-5.25944
-11.2916
-22.6133
-31.3397
-37.6843
-42.5664
-43.9846
-42.6483
-42.552
1315.75
-699.655
175.48
-86.2254
-14.3733
-36.4061
32.4559
-8.37292
-4.11584
-5.29496
-16.2804
-31.1452
-40.4987
-49.559
-58.1466
-55.926
-45.2529
-37.7266
1292.6
-691.236
171.612
-89.1938
-15.2026
-31.6751
25.0053
3.64839
15.6018
-2.02138
-26.4956
-43.3667
-49.8696
-57.5821
-64.3618
-55.129
-37.9752
-25.5441
1264.16
-683.705
182.423
-97.6211
-8.86428
-15.6968
27.9264
18.6252
20.9662
-13.8929
-45.0336
-62.3252
-65.639
-63.8332
-54.8648
-30.7658
-8.33401
7.0564
1234.42
-659.293
189.987
-120.329
-1.44138
-2.294
15.7539
10.4174
10.0888
-31.0141
-65.4302
-83.5361
-77.5666
-59.4374
-26.5817
16.7841
43.0701
41.3628
1200.54
-664.509
233.046
-131.675
9.12907
-8.47169
17.7857
-5.98048
-7.79492
-34.8648
-63.1479
-83.4131
-73.4569
-39.8525
-2.9216
18.867
24.5048
22.2297
1178.33
-641.177
247.141
-143.874
27.0252
-14.8848
11.3835
-7.0535
-4.90273
-22.3778
-36.7529
-47.9047
-45.357
-31.041
-13.1764
0.888264
8.995
11.4056
1166.48
-656.65
301.372
-137.05
37.9924
-13.1696
8.95602
-0.199865
0.13385
-8.11131
-14.9146
-20.6431
-22.3071
-18.8627
-11.4507
-3.26614
1.76569
3.49377
1162.37
-629.369
305.962
-132.504
27.4327
-7.69529
8.64988
5.85137
6.70485
3.29503
0.225019
-2.67713
-3.99797
-3.22899
-1.09604
0.324882
0.877925
0.992523
1150.53
-612.419
312.705
-118.326
28.3181
-0.272531
11.4518
12.989
13.5743
10.9219
7.67718
4.8962
3.04288
2.2317
2.19081
2.35738
2.5464
2.64085
1147.63
-611.49
306.041
-104.233
31.8432
5.48842
13.8766
15.4197
15.4993
12.4908
10.3083
8.17144
6.33331
5.1586
4.38583
4.00812
3.86953
3.84969
1153.31
-627.896
282.765
-94.7866
37.9252
6.63747
16.2606
13.7734
14.4973
12.6624
10.8907
8.61574
6.74275
5.27499
4.64592
4.59207
4.66443
4.72846
1155.57
-643.728
244.382
-87.162
41.4568
4.45854
19.6637
12.5947
14.3052
11.4153
10.6737
8.31131
6.20619
4.62592
4.32338
5.10647
5.63431
5.02132
1141.47
-660.097
179.454
-76.7793
44.5584
2.38699
22.3166
12.6101
16.1954
11.0281
10.3422
7.08774
4.73793
3.19678
3.39406
4.98681
5.77805
5.19331
1130.38
-711.593
65.0328
-76.9331
34.2102
-0.329252
25.2185
13.5156
16.4755
11.571
10.2471
5.84262
3.76788
1.99463
2.33498
5.06501
7.48108
7.06498
1183.17
-731.557
-41.7073
-71.5669
33.4334
6.41295
28.9676
10.8209
16.9743
12.8338
11.3713
6.45402
3.85411
1.68382
2.93577
6.24133
7.81151
7.23047
1254.19
-586.189
-37.9098
-137.209
10.2797
-4.62967
30.0683
8.69504
13.186
10.2725
10.8882
6.93321
3.40998
0.0564869
2.98134
8.88662
10.1364
7.83291
1276.29
-393.737
69.4714
-181.103
26.8173
16.0484
30.2079
6.91399
9.78644
11.362
12.2083
8.60487
5.35624
3.27371
5.91057
12.4456
12.734
9.24583
1275.14
-235.303
196.818
-174.909
30.3548
32.9276
29.8089
11.2934
8.45393
4.08662
4.24284
7.25559
6.50324
2.41908
5.8486
13.4673
14.7587
10.7988
1265
-136.197
305.149
-141.426
43.1377
38.8984
32.2158
14.7415
15.4403
9.16187
4.90232
6.03626
5.39187
4.0014
6.77934
11.2666
12.5035
10.9057
1294.84
-609.324
27.378
-103.042
-18.0075
-23.1148
46.2569
40.3604
35.7159
27.6138
16.698
2.45487
-7.05504
-8.56276
-8.98613
-8.08209
-8.61432
-7.25163
1279.51
-604.383
9.15101
-155.359
-23.6875
-22.3276
48.8197
41.2103
34.4957
25.4718
16.1985
1.88728
-10.6406
-12.464
-11.178
-9.62685
-10.0029
-6.28059
1336.65
-598.302
12.6404
-207.73
-45.8374
-30.49
42.9873
38.9319
32.1434
23.2226
14.9346
3.76917
-11.2972
-17.3872
-13.7921
-8.33969
-5.74713
-2.51919
1489.18
-637.684
-6.26459
-160.869
-55.5579
-42.3546
42.4812
34.5855
28.13
21.4781
11.4613
3.10475
-8.74657
-18.9608
-17.7069
-10.4406
-5.82825
-3.73981
1407
-705.963
-5.15409
-76.5355
-45.379
-50.1559
48.3108
33.2837
25.2492
19.6839
10.4619
-0.378219
-9.88025
-18.8171
-20.5426
-14.5607
-8.15446
-4.35319
1309.54
-684.159
39.7774
-93.3103
-48.4318
-46.1004
63.7864
39.0282
28.1866
19.7555
10.8194
-2.09818
-12.9838
-20.2755
-22.7969
-17.5936
-12.7318
-8.77472
1328.39
-659.919
78.3098
-87.6811
-56.7857
-44.2174
85.6775
37.8737
28.3917
23.8138
11.1412
-4.79219
-16.276
-22.1822
-25.6298
-23.1015
-16.3794
-11.7301
1352.49
-681.011
69.3661
-82.5218
-72.5626
-52.776
85.1342
25.1126
14.27
18.3709
9.81305
-7.48101
-18.6843
-22.4863
-26.6079
-28.9347
-25.7028
-16.3669
1356.59
-690.313
75.0321
-89.5358
-72.9239
-77.9786
62.3481
5.1594
-10.6295
-0.587121
-0.299933
-11.2436
-20.616
-22.7981
-27.7829
-36.6631
-40.7017
-31.7813
1342.74
-696.278
91.2465
-100.755
-58.9767
-88.5463
31.2115
-9.23038
-27.2442
-24.7685
-20.3354
-21.8871
-25.5233
-26.9808
-32.061
-43.0741
-50.7752
-46.0618
1333.02
-695.832
103.399
-99.7426
-56.2059
-81.2476
11.9095
-25.3825
-31.4758
-32.5924
-40.7275
-40.6335
-38.7376
-38.5582
-40.7424
-47.0961
-53.5258
-53.5821
1322.74
-697.139
114.908
-108.272
-48.24
-47.544
26.0756
-37.1029
-26.2354
-27.3643
-46.2759
-59.5941
-57.9434
-53.4778
-52.2731
-50.2358
-47.4593
-43.3233
1302.83
-694.302
128.919
-119.783
-27.6856
-10.1879
54.1832
-16.6425
-10.6434
-17.588
-40.2724
-61.6178
-66.3125
-64.1113
-62.2696
-55.9019
-43.5751
-29.5113
1271.19
-688.368
149.64
-110.717
2.9487
14.0245
51.5806
4.54948
-0.175847
-23.8946
-43.696
-59.7921
-62.4725
-61.5416
-58.3827
-43.2354
-20.3103
0.409503
1238.36
-674.652
167.249
-119.325
12.7399
9.27722
22.6566
1.11651
-4.96362
-37.6789
-62.6575
-77.0366
-73.0762
-56.841
-24.262
17.4847
39.4527
30.7026
1204.61
-670.137
203.598
-132.644
15.454
-2.93673
21.1025
-7.2427
-9.74267
-33.8282
-57.0177
-76.3572
-69.4784
-36.1926
-1.77139
15.7407
19.6662
18.2512
1178.26
-660.979
246.495
-147.387
28.0098
-14.5043
12.2795
-6.91807
-6.26041
-23.3735
-36.2957
-45.7309
-43.3601
-28.6294
-12.0118
0.419761
6.74578
8.23211
1169.77
-642.367
278.169
-143.371
39.1
-12.668
11.349
-1.50151
-1.01496
-8.42321
-14.6713
-19.9755
-21.2582
-17.3885
-10.3167
-3.72615
0.354557
2.17591
1162.63
-632.165
306.987
-132.859
28.0993
-8.18104
9.01844
4.57071
6.59723
3.33175
0.0746275
-2.67462
-3.61101
-2.75017
-0.935513
0.267438
0.761441
0.857096
1151.47
-613.696
312.934
-117.677
29.6509
0.18651
11.4637
11.8658
12.9731
11.6073
7.78328
5.07482
3.19858
2.37198
2.28614
2.30531
2.30327
2.33496
1148.86
-612.259
306.534
-103.868
32.7303
5.48535
13.9413
15.2839
15.8385
13.0621
10.191
8.5019
6.45756
5.02357
4.31074
3.87824
3.67446
3.59504
1153.23
-627.238
284.004
-94.8063
37.5833
6.79358
16.5791
13.7187
14.8813
12.7798
10.6328
8.43867
6.80718
5.30657
4.79995
4.72972
4.67033
4.63268
1154.63
-642.717
247.036
-87.5087
40.581
4.2948
19.9425
13.1614
15.0085
11.704
10.351
8.3175
7.02022
5.57254
4.89526
5.03979
4.95006
4.50474
1142
-662.14
185.588
-80.3323
43.6074
4.45151
23.6707
13.052
16.6343
11.2611
9.45015
7.31706
6.70198
5.25392
4.5761
4.83905
4.21277
2.61449
1137.32
-718.895
66.7568
-72.6928
26.8394
0.164243
28.5132
14.2411
17.2268
11.1357
10.014
8.17487
7.76937
5.96294
4.73042
4.98389
5.17027
3.9112
1198.1
-714.975
-37.5545
-82.1141
35.1897
8.02713
28.6477
14.6726
17.7809
11.2888
9.32145
8.05484
7.94781
6.2804
5.45357
6.10388
6.47278
5.48732
1253.03
-578.8
-28.9213
-107.352
-3.10821
-12.5739
33.9532
26.0479
19.5014
10.0481
8.21658
9.31064
9.94169
6.32639
5.37452
7.71358
8.11378
6.57572
1266.32
-399.153
65.7773
-151.581
29.1543
11.0812
38.8012
31.7597
20.3888
8.08122
5.12953
11.7138
16.0596
10.3127
6.14866
8.04031
8.69215
6.82528
1244.86
-295.949
179.339
-156.123
-0.310113
-19.3337
35.4939
34.982
22.4378
11.98
10.3676
14.7227
13.0682
4.56467
2.71822
6.96106
8.58674
7.40832
1228.43
-243.29
229.958
-169.814
18.1037
27.8794
37.3283
35.6861
24.3176
12.8595
10.9185
13.8304
12.3752
6.51051
5.30847
7.55695
8.81928
8.49073
1262.16
-639.37
76.1005
-61.7437
-10.0528
-36.9398
34.1243
32.1106
30.7921
21.06
9.21328
1.82523
-1.21283
-2.93619
-4.99965
-5.46336
-2.96731
2.09609
1258.62
-631.355
78.8275
-88.1027
-14.4883
-37.022
36.0555
33.338
31.7086
20.8408
6.08546
-1.93707
-4.29813
-5.26402
-5.82784
-5.90526
-2.40793
4.34069
1269.03
-645.683
71.9844
-139.513
-27.0046
-39.6914
37.1875
37.1318
35.5892
21.5073
4.60962
-4.1932
-6.14436
-7.34641
-6.45181
-5.08417
-1.54553
3.27286
1332.52
-672.869
77.4548
-140.997
-44.5975
-44.5696
35.285
35.0056
35.3094
22.1628
6.19786
-5.76171
-7.55504
-8.74045
-9.16324
-5.60094
-1.38492
2.37141
1324.63
-684.157
48.2317
-94.4551
-56.1407
-46.7626
29.3695
30.1123
31.3828
19.4577
5.26143
-7.67171
-11.2906
-8.76939
-9.17689
-6.89534
-1.31513
5.72124
1333.68
-713.489
-26.3759
-109.681
-73.1307
-47.1145
26.2449
18.6114
20.8122
13.1143
0.572615
-9.36395
-14.3874
-13.8434
-9.63127
-7.30842
-3.18942
4.03594
1382.31
-722.525
-27.7265
-175.846
-96.7432
-76.7502
28.9625
11.8564
13.3782
9.2797
0.685619
-8.01065
-15.8437
-19.2992
-17.9659
-12.7707
-2.17903
5.18935
1420.76
-723.878
-42.4282
-196.309
-83.9589
-100.281
24.6137
12.1168
9.90243
6.46432
3.63646
-9.24312
-19.6954
-25.2844
-29.8511
-31.5517
-17.7252
2.15337
1403.73
-719.814
-39.2041
-135.54
-52.6718
-106.473
7.06885
4.80976
6.93691
2.48431
-7.00009
-17.2392
-24.0392
-29.5198
-39.7404
-49.3178
-46.2401
-27.2275
1357.37
-706.827
-14.3034
-125.805
-39.3104
-110.752
-21.5821
-4.43803
0.87664
-2.7217
-16.0376
-28.0665
-28.4621
-27.7435
-39.4454
-55.1346
-56.6854
-38.6392
1331.72
-691.08
-5.29192
-127.655
-36.6065
-97.2136
-14.8289
2.69347
0.335318
-8.06807
-23.8314
-41.8004
-41.8723
-32.8065
-38.2016
-50.4623
-53.6127
-38.0891
1327.42
-684.58
18.4763
-147.566
-45.7582
-56.9766
22.2567
15.5055
0.854229
-12.8013
-36.4798
-58.8564
-64.2199
-53.6951
-47.2874
-45.413
-35.8409
-24.9995
1314.18
-680.874
61.776
-179.793
-42.8111
-6.40125
60.5709
23.3493
1.46526
-15.637
-33.1035
-57.6508
-76.0912
-72.2011
-55.3891
-38.2496
-25.9306
-14.7245
1284.9
-674.22
111.704
-146.898
5.30618
30.2493
64.1393
17.1565
-1.71428
-25.2572
-40.5157
-51.6467
-64.3837
-70.9591
-57.4437
-30.95
-8.34551
1.6308
1251.05
-667.851
126.107
-125.412
21.5141
11.9245
29.1773
4.04412
-11.6178
-41.6662
-61.0581
-69.4492
-65.0781
-51.5762
-25.1843
0.510102
9.44472
5.5287
1213.16
-672.82
163.315
-127.164
10.4181
-5.81161
21.81
-6.25072
-11.7207
-33.06
-49.4014
-58.9338
-54.4117
-35.2611
-14.7525
0.358982
8.60164
11.0548
1178.99
-668.911
223.889
-147.402
26.042
-16.4486
13.5329
-7.17581
-6.4651
-23.1192
-34.6993
-42.1898
-39.5645
-28.1002
-14.6609
-2.96108
3.13282
3.58619
1168.53
-660.358
283.938
-143.995
36.4345
-16.4042
12.6555
-2.51973
-0.643163
-6.97638
-12.7187
-17.6915
-18.9735
-15.471
-9.29365
-4.03428
-1.49939
0.313794
1162.99
-631.732
304.415
-133.179
29.2922
-9.77995
9.08307
3.11948
6.23647
3.4611
-0.431833
-2.63048
-3.32935
-2.75072
-1.16633
-0.145929
0.408043
0.691199
1152.26
-614.666
313.483
-116.953
30.2717
0.657853
11.3044
10.304
11.9149
11.7345
7.70173
5.32733
3.4884
2.57815
2.29468
2.14306
2.17224
2.27898
1149.47
-612.583
308.055
-104.229
32.528
5.61328
13.8039
14.6386
15.4984
13.5279
10.538
8.62425
6.57586
5.13286
4.38805
3.85576
3.58669
3.48277
1152.91
-626.126
286.701
-95.5394
36.2878
7.09469
16.3447
13.7216
14.7869
12.5171
10.349
8.15883
6.82903
5.62566
5.15437
4.88333
4.7162
4.6874
1156.05
-642.088
252.193
-88.1233
39.7245
5.73987
19.2065
13.4475
15.7157
11.7365
9.9126
7.61834
6.95349
5.80767
4.99044
4.7114
4.64291
4.33422
1148.42
-661.638
199.835
-82.5576
39.7031
3.90751
23.3427
12.4169
16.7488
11.1141
9.28088
6.45022
7.03966
5.97748
4.79877
4.58283
4.1147
2.94879
1131.83
-698.818
113.816
-67.7043
33.0203
1.416
19.6676
13.2117
17.3625
11.7959
10.3422
7.59859
7.76637
7.00632
5.6688
5.26315
5.06284
4.15039
1157.47
-750.048
21.817
-77.9932
21.6393
7.81722
28.5035
15.1181
18.3108
12.7752
11.9709
9.16053
8.4789
7.6834
6.42752
6.186
6.27543
5.57487
1222.71
-716.863
-37.1347
-87.2986
13.7559
0.158625
23.9049
15.7911
18.5535
13.2778
13.083
11.4441
9.6962
7.01907
6.3699
7.13814
7.33547
6.52558
1237.01
-609.928
-11.8267
-117.514
8.33404
-0.315778
31.5539
19.0169
19.0269
14.1079
13.4982
13.5247
11.9457
8.54373
6.83892
8.01745
8.06962
7.3203
1208.5
-515.915
46.9136
-125.46
24.5874
5.28629
35.722
16.2203
19.1655
14.7582
13.4281
12.6847
11.0668
7.99475
7.34433
8.56262
8.46086
8.01068
1190.56
-433.197
116.507
-120.875
12.5578
3.8411
39.2148
22.5636
19.8778
14.8382
12.4089
11.7459
10.7361
8.39341
7.98517
8.5039
8.51234
8.43936
1323.44
-662.815
-70.9949
-82.3997
-32.0254
-68.2403
4.28919
12.5715
24.8944
19.0247
6.97976
0.626665
-4.4143
-8.60307
-9.63398
-7.48116
-2.95952
3.14291
1298.85
-639.614
-55.0474
-92.0278
-31.819
-73.2631
1.92343
8.84112
22.8906
18.1551
5.84754
-1.96894
-6.6717
-9.89332
-10.8302
-8.85511
-2.84175
3.92115
1299.01
-647.911
-66.8174
-115.076
-34.6925
-71.8984
1.30624
5.33187
21.151
17.2313
3.95752
-5.56468
-9.64725
-12.7214
-13.5585
-8.78254
-3.63397
2.2549
1363.88
-702.791
-119.206
-142.131
-35.1218
-70.5827
2.56582
1.80773
16.7181
14.3373
4.45131
-7.54552
-14.3625
-13.6914
-16.5017
-14.8759
-5.9291
2.57179
1467.27
-750.327
-126.426
-152.505
-57.7767
-61.7673
9.43095
2.00898
12.6147
10.3125
2.28688
-9.55429
-18.4271
-22.0334
-19.4705
-17.3561
-11.9577
-1.68401
1544.87
-730.934
-150.403
-163.943
-46.5966
-54.8181
11.7131
2.21914
10.1298
6.40074
-2.08915
-11.4228
-19.4588
-24.2953
-22.9605
-18.691
-14.1404
-7.61829
1581.27
-623.165
-113.763
-187.168
-27.693
-59.025
12.3377
6.28112
9.09233
3.30422
-2.86281
-11.7867
-20.3583
-24.9858
-26.9837
-21.8697
-15.1578
-8.83845
1578.36
-562.821
-101.618
-186.389
15.4542
-64.324
6.25244
6.20275
11.3619
2.90085
-3.16685
-14.3524
-25.1382
-30.0219
-30.2119
-27.188
-17.9575
-9.92309
1551.79
-548.737
-84.8753
-164.582
18.8432
-75.8544
-10.2426
1.07208
16.1224
6.3343
-6.77126
-20.8484
-31.4857
-37.2023
-41.6718
-36.0807
-24.0462
-11.2098
1485.01
-561.28
-45.3138
-155.298
12.4246
-83.3666
-42.6892
-3.07853
15.282
9.73865
-9.66179
-28.1691
-38.4239
-41.6447
-40.6734
-38.9567
-28.0163
-12.6366
1394.59
-608.759
-47.3306
-178.666
14.2235
-63.4776
-32.0087
0.00381483
11.6877
7.28239
-11.7698
-34.8846
-46.9932
-50.3407
-46.9469
-39.956
-26.3218
-9.65585
1345.93
-642.443
-70.8026
-170.948
-1.03415
-27.1332
-1.00687
6.06547
6.1808
-0.180734
-16.7266
-37.8868
-52.0734
-56.6708
-53.7417
-43.2128
-24.6089
-3.57994
1315.38
-651.779
-25.2582
-216.855
-61.3141
-3.52409
35.261
14.5134
0.962657
-11.0331
-21.5838