/*--------------------------------*- C++ -*----------------------------------*\
| =========                 |                                                 |
| \\      /  F ield         | OpenFOAM: The Open Source CFD Toolbox           |
|  \\    /   O peration     | Version:  2112                                  |
|   \\  /    A nd           | Website:  www.openfoam.com                      |
|    \\/     M anipulation  |                                                 |
\*---------------------------------------------------------------------------*/
FoamFile
{
    version     2.0;
    format      ascii;
    arch        "LSB;label=32;scalar=64";
    class       volScalarField;
    location    "0.09";
    object      k;
}
// * * * * * * * * * * * * * * * * * * * * * * * * * * * * * * * * * * * * * //

dimensions      [0 2 -2 0 0 0 0];

internalField   nonuniform List<scalar> 
12225
(
0.535035
0.804695
0.988842
1.09681
1.15179
1.17077
1.16759
1.15727
1.1374
1.11286
1.08936
1.0631
1.04169
1.01625
0.999167
0.974959
0.96298
0.937398
0.378389
0.385973
0.391209
0.394513
0.396567
0.398246
0.399327
0.401719
0.404257
0.408828
0.413325
0.421094
0.427109
0.438976
0.445902
0.460831
0.469429
0.484465
0.375173
0.374422
0.372408
0.368422
0.363725
0.358072
0.352473
0.3466
0.341174
0.336064
0.33147
0.327597
0.324205
0.321737
0.319593
0.318546
0.317815
0.318006
0.375056
0.374581
0.373494
0.371397
0.368926
0.365774
0.362584
0.358877
0.355403
0.351537
0.348123
0.344363
0.341267
0.337767
0.335112
0.331998
0.329867
0.327156
0.375065
0.374811
0.374217
0.373072
0.371708
0.36998
0.368185
0.36609
0.364059
0.361769
0.359668
0.357309
0.355274
0.352925
0.351051
0.348762
0.347135
0.344907
0.37507
0.374926
0.374563
0.373863
0.373016
0.371967
0.37085
0.369571
0.368285
0.366867
0.365503
0.364018
0.362652
0.361145
0.359838
0.358331
0.35715
0.355625
0.375059
0.374974
0.374735
0.374272
0.373701
0.373009
0.372257
0.371413
0.370542
0.369603
0.368667
0.367678
0.366723
0.365715
0.364779
0.363766
0.362894
0.361851
0.375038
0.374985
0.37482
0.374497
0.374092
0.373608
0.373075
0.372485
0.371865
0.371207
0.370538
0.369842
0.369152
0.368443
0.367756
0.367044
0.366389
0.365654
0.375014
0.374975
0.374855
0.374622
0.374326
0.373975
0.373584
0.373153
0.372698
0.372217
0.371723
0.371214
0.370702
0.370181
0.369667
0.369146
0.368647
0.36811
0.374992
0.37495
0.374856
0.374685
0.374465
0.374204
0.373911
0.373589
0.373247
0.372886
0.372513
0.372129
0.371741
0.371348
0.370956
0.370562
0.370176
0.369772
0.374971
0.374916
0.374836
0.374708
0.374542
0.374346
0.374124
0.37388
0.373618
0.373343
0.373057
0.372763
0.372464
0.372161
0.371857
0.371553
0.371251
0.37094
0.374953
0.374881
0.374805
0.374701
0.374572
0.374419
0.374246
0.374055
0.373849
0.373632
0.373406
0.373172
0.372934
0.372693
0.372449
0.372204
0.37196
0.371711
0.374938
0.374846
0.374767
0.374679
0.374575
0.374456
0.374321
0.374171
0.37401
0.373839
0.37366
0.373475
0.373284
0.37309
0.372894
0.372696
0.372498
0.372295
0.374924
0.374809
0.37472
0.374638
0.374554
0.374461
0.374359
0.374247
0.374125
0.373995
0.373858
0.373715
0.373568
0.373416
0.373262
0.373105
0.372946
0.372785
0.374913
0.374773
0.374668
0.374583
0.374508
0.374434
0.374358
0.374275
0.374187
0.374092
0.373992
0.373885
0.373774
0.373659
0.37354
0.373419
0.373294
0.373167
0.374905
0.374743
0.374618
0.374522
0.374445
0.374379
0.374318
0.374257
0.374193
0.374126
0.374054
0.373977
0.373896
0.37381
0.37372
0.373627
0.37353
0.373431
0.374899
0.374721
0.374577
0.374465
0.374379
0.37431
0.374253
0.374201
0.374151
0.3741
0.374047
0.37399
0.373929
0.373864
0.373794
0.373721
0.373644
0.373564
0.374896
0.374708
0.374551
0.374425
0.374326
0.374248
0.374185
0.374131
0.374081
0.374034
0.373985
0.373935
0.373881
0.373824
0.373763
0.373698
0.37363
0.373559
0.374896
0.374705
0.374544
0.374412
0.374304
0.374216
0.374141
0.374074
0.374012
0.373951
0.373891
0.373828
0.373763
0.373695
0.373624
0.37355
0.373474
0.373395
0.374898
0.374716
0.374561
0.374432
0.374321
0.374222
0.37413
0.374041
0.373952
0.373862
0.37377
0.373676
0.373578
0.373478
0.373376
0.373271
0.373165
0.373058
0.374904
0.374735
0.374591
0.374463
0.374343
0.374226
0.374107
0.373986
0.37386
0.373731
0.373597
0.37346
0.37332
0.373177
0.373032
0.372886
0.372739
0.372593
0.374914
0.374763
0.374625
0.374488
0.374344
0.374193
0.374031
0.373861
0.373682
0.373497
0.373305
0.373109
0.372909
0.372706
0.372502
0.372298
0.372093
0.371891
0.374929
0.374796
0.374652
0.374487
0.374298
0.374089
0.373862
0.373619
0.373363
0.373096
0.372821
0.37254
0.372254
0.371965
0.371675
0.371385
0.371095
0.370811
0.37495
0.374827
0.374656
0.374436
0.37417
0.37387
0.373539
0.373184
0.372808
0.372417
0.372012
0.371599
0.37118
0.370758
0.370334
0.369911
0.369489
0.369078
0.374972
0.374844
0.374616
0.374298
0.373899
0.373445
0.372938
0.372395
0.371815
0.371214
0.37059
0.369956
0.369311
0.368664
0.368013
0.36737
0.366723
0.366102
0.374988
0.374833
0.3745
0.373995
0.373337
0.372597
0.371751
0.370855
0.369885
0.368892
0.367852
0.366809
0.36574
0.364685
0.363613
0.362578
0.361519
0.36053
0.37501
0.374774
0.374223
0.373313
0.372084
0.370729
0.369135
0.367495
0.365679
0.363879
0.361961
0.360104
0.358168
0.356329
0.354433
0.352671
0.350842
0.349202
0.375129
0.374769
0.373789
0.371935
0.3694
0.3667
0.363451
0.360272
0.356713
0.353394
0.34984
0.346609
0.343268
0.340261
0.337266
0.334534
0.331957
0.329511
0.376923
0.37984
0.381432
0.381364
0.380883
0.379895
0.378235
0.376657
0.374965
0.373632
0.372528
0.371797
0.371619
0.371826
0.372314
0.37323
0.374951
0.375997
0.459539
0.609323
0.730002
0.821266
0.887079
0.932657
0.962748
0.981438
0.991688
0.996076
0.995463
0.993219
0.988629
0.98242
0.975391
0.967871
0.960124
0.952294
0.00115609
0.00501638
0.0081702
0.011618
0.015318
0.0211593
0.0277757
0.0350128
0.0420559
0.0500647
0.0574673
0.0641734
0.0700264
0.0745513
0.0781761
0.0808595
0.082912
0.0841635
0.0850746
0.0851581
0.0849527
0.084525
0.0838429
0.0827791
0.0812527
0.0790642
0.0760902
0.0719576
0.0663645
0.0583739
0.0467278
0.0250384
0.00652457
0.00531184
0.00656941
0.00828027
0.0106193
0.0157282
0.0244493
0.0289603
0.0264918
0.0221713
0.0162555
0.0154912
0.0246175
0.0855544
0.15903
0.208994
0.249905
0.284845
0.315297
0.3424
0.366531
0.388335
0.408122
0.426192
0.442823
0.458173
0.472473
0.485821
0.498402
0.510292
0.521643
0.532503
0.54298
0.553117
0.56303
0.572739
0.582328
0.591829
0.601292
0.610762
0.620261
0.629837
0.639501
0.64929
0.659215
0.669298
0.679548
0.689975
0.700587
0.711384
0.722365
0.733525
0.744855
0.756341
0.767969
0.779718
0.791563
0.803478
0.815432
0.82739
0.839316
0.851171
0.862914
0.874504
0.885898
0.897064
0.90798
0.918632
0.929016
0.939158
0.949156
0.958903
0.968148
0.976915
0.985149
0.992768
0.999755
1.00605
1.0116
1.01636
1.02026
1.02325
1.02532
1.0265
1.0266
1.02567
1.02378
1.02074
1.01661
1.01135
1.00489
0.99695
0.986964
0.975892
0.963356
0.949381
0.934164
0.917733
0.900101
0.881352
0.862001
0.841812
0.820978
0.803661
0.798146
0.800414
0.80317
0.805271
0.806604
0.806754
0.806031
0.804694
0.802506
0.798942
0.795291
0.791677
0.788045
0.784372
0.780723
0.777186
0.77373
0.770309
0.767014
0.763705
0.760429
0.757276
0.754143
0.750763
0.747591
0.743508
0.739727
0.734642
0.729634
0.722721
0.71623
0.707061
0.698081
0.684342
0.671233
0.650919
0.632231
0.602902
0.57736
0.536695
0.500736
0.445705
0.400586
0.309501
0.00157443
0.00230568
0.00387515
0.00720451
0.0162371
0.0349971
0.0569419
0.0786607
0.0991742
0.116351
0.130186
0.140827
0.14811
0.152451
0.154944
0.155807
0.155532
0.154643
0.152876
0.150473
0.147866
0.144465
0.140372
0.135463
0.129674
0.122719
0.114612
0.10474
0.0935852
0.0798552
0.0659258
0.0479008
0.0288568
0.0156761
0.00954143
0.00872772
0.0146285
0.0343044
0.0705074
0.0916924
0.0850334
0.0689078
0.0582532
0.0888312
0.128784
0.176218
0.242404
0.29955
0.357673
0.415203
0.474031
0.532597
0.588723
0.640452
0.688819
0.733062
0.773934
0.811354
0.84585
0.877595
0.906984
0.934269
0.959755
0.983616
1.00609
1.02735
1.04766
1.06713
1.08595
1.10426
1.12217
1.13983
1.15732
1.17477
1.19224
1.20983
1.22762
1.24566
1.26402
1.28275
1.3019
1.3215
1.3416
1.3622
1.38333
1.405
1.42722
1.44997
1.47326
1.49705
1.52132
1.54605
1.57119
1.59668
1.62248
1.64852
1.67473
1.70103
1.72734
1.75356
1.77957
1.80524
1.83051
1.85571
1.88071
1.90561
1.93022
1.95449
1.97835
2.0017
2.02444
2.04649
2.06774
2.08806
2.10734
2.12549
2.14238
2.15791
2.17201
2.18449
2.19534
2.20452
2.21211
2.21852
2.22263
2.2244
2.22422
2.22071
2.2146
2.20591
2.19449
2.17999
2.16168
2.14005
2.1157
2.0893
2.06132
2.03084
1.99788
1.96274
1.92523
1.88538
1.84358
1.79988
1.75587
1.71204
1.66811
1.62414
1.58022
1.53659
1.4935
1.45114
1.40958
1.36886
1.32914
1.29043
1.2529
1.21636
1.18093
1.14635
1.1135
1.08085
1.05027
1.01991
0.991164
0.963035
0.936802
0.908597
0.883347
0.853903
0.82946
0.798843
0.774792
0.743464
0.719422
0.688246
0.663403
0.632874
0.610665
0.548743
0.000848146
0.00104506
0.00354165
0.0123958
0.0326971
0.0589574
0.0845644
0.107746
0.127486
0.144633
0.157751
0.166914
0.172899
0.176766
0.178693
0.179263
0.179064
0.178439
0.177287
0.175861
0.1742
0.172271
0.170048
0.16741
0.164143
0.159912
0.154305
0.14674
0.13656
0.123246
0.105816
0.0861099
0.0649045
0.0445984
0.0282174
0.0202969
0.0240221
0.048058
0.113989
0.156544
0.153706
0.140214
0.140723
0.184243
0.25164
0.331744
0.425642
0.519883
0.620585
0.715137
0.805743
0.887243
0.962444
1.0318
1.09573
1.15453
1.20877
1.25883
1.30521
1.34827
1.3884
1.42591
1.4611
1.49419
1.5255
1.55525
1.58365
1.6109
1.63719
1.66266
1.68749
1.71181
1.73575
1.75944
1.78297
1.80644
1.82995
1.85356
1.87736
1.90139
1.9257
1.95034
1.97535
2.00074
2.02654
2.05275
2.07937
2.10641
2.13385
2.16166
2.18984
2.21833
2.24711
2.27614
2.30538
2.33478
2.3643
2.3939
2.42353
2.45315
2.48271
2.5122
2.54156
2.57071
2.59959
2.62812
2.65622
2.68378
2.7107
2.73688
2.76221
2.78657
2.80982
2.83183
2.85246
2.87155
2.88897
2.90455
2.91819
2.92958
2.9386
2.94523
2.94869
2.94992
2.94833
2.94339
2.93499
2.92265
2.90646
2.88684
2.86391
2.83766
2.80735
2.77288
2.73479
2.69427
2.65076
2.60374
2.55205
2.49705
2.43949
2.3798
2.31844
2.25578
2.19249
2.12909
2.06594
2.00341
1.94172
1.88116
1.82193
1.76403
1.7076
1.65275
1.5996
1.54817
1.49851
1.45054
1.40436
1.35958
1.31675
1.27495
1.23516
1.19623
1.15936
1.12285
1.08921
1.05468
1.02417
0.990109
0.961848
0.927453
0.900538
0.865513
0.838737
0.803386
0.775671
0.738709
0.715191
0.662416
0.000716342
0.00288623
0.0130305
0.0389943
0.0765104
0.111744
0.140959
0.163322
0.178396
0.186185
0.189912
0.190939
0.19069
0.189894
0.18873
0.187567
0.186385
0.185231
0.184138
0.183159
0.182286
0.181434
0.180575
0.179592
0.178266
0.176261
0.173121
0.168259
0.160918
0.15055
0.135887
0.117455
0.0964348
0.0752484
0.0577479
0.0465819
0.0542845
0.10838
0.216654
0.230294
0.205024
0.200084
0.24129
0.327761
0.423907
0.534724
0.650257
0.762919
0.872639
0.97527
1.07221
1.16236
1.24684
1.32583
1.39969
1.46873
1.53333
1.59382
1.65051
1.70371
1.75369
1.80071
1.84505
1.88696
1.92669
1.96447
2.0005
2.035
2.06816
2.10017
2.13118
2.16138
2.19091
2.21989
2.24847
2.27676
2.30485
2.33284
2.36082
2.38884
2.41698
2.44528
2.47379
2.50254
2.53155
2.56084
2.59042
2.62028
2.65044
2.68086
2.71154
2.74244
2.77354
2.8048
2.83619
2.86767
2.8992
2.93074
2.96224
2.99366
3.02493
3.05598
3.08676
3.11716
3.14709
3.17647
3.20518
3.23312
3.26018
3.28622
3.31111
3.3347
3.35684
3.37732
3.39596
3.41255
3.42695
3.43894
3.44843
3.45496
3.45781
3.45808
3.45417
3.44699
3.43618
3.42135
3.40228
3.37851
3.34949
3.31591
3.27825
3.23738
3.19245
3.14225
3.08754
3.02768
2.96396
2.89735
2.8272
2.75468
2.68043
2.60501
2.52895
2.45263
2.37653
2.30122
2.22715
2.1547
2.08409
2.01556
1.94923
1.88492
1.82275
1.76288
1.70537
1.65017
1.59724
1.54645
1.49789
1.45119
1.40663
1.36367
1.32283
1.28326
1.24597
1.20934
1.17555
1.14143
1.1109
1.07842
1.05085
1.01927
0.993823
0.962459
0.937764
0.905932
0.880691
0.845111
0.821308
0.769043
0.00221095
0.0117242
0.0390742
0.0919321
0.138606
0.171787
0.191007
0.199682
0.203228
0.202606
0.200173
0.197009
0.193892
0.190906
0.188113
0.185649
0.183659
0.18221
0.181297
0.180898
0.180925
0.181129
0.181584
0.182175
0.182639
0.182535
0.181683
0.17939
0.174674
0.167141
0.15587
0.14049
0.121851
0.102253
0.0855961
0.0789702
0.0998655
0.205061
0.285733
0.284382
0.268787
0.292764
0.3811
0.486418
0.603037
0.725214
0.845457
0.960877
1.07163
1.17686
1.27714
1.37244
1.46313
1.54936
1.6313
1.70908
1.78287
1.85281
1.91906
1.98177
2.04114
2.09736
2.15063
2.20117
2.24916
2.29483
2.33838
2.38
2.41991
2.45829
2.49534
2.53122
2.5661
2.60015
2.63351
2.6663
2.69865
2.73067
2.76246
2.79409
2.82565
2.85719
2.88877
2.92043
2.95221
2.98413
3.01621
3.04845
3.08086
3.11344
3.14617
3.17904
3.21201
3.24505
3.27812
3.31118
3.34419
3.3771
3.40985
3.44239
3.47463
3.50651
3.53793
3.5688
3.59901
3.62845
3.65697
3.68443
3.71071
3.73562
3.75906
3.78084
3.80075
3.81853
3.83388
3.84647
3.85614
3.86272
3.86563
3.86586
3.8617
3.85298
3.83896
3.82071
3.79814
3.77054
3.73782
3.70007
3.6567
3.60668
3.55078
3.4884
3.42078
3.34753
3.2697
3.1876
3.10213
3.01436
2.92791
2.84125
2.75406
2.66682
2.58006
2.49426
2.40983
2.32729
2.24703
2.16943
2.09466
2.02291
1.95422
1.88798
1.82446
1.76379
1.70595
1.65087
1.59848
1.54857
1.50132
1.45636
1.41377
1.37318
1.3349
1.29827
1.26409
1.23101
1.20088
1.17089
1.14407
1.11645
1.09284
1.06693
1.04582
1.02074
1.00101
0.97562
0.955835
0.926281
0.905849
0.86113
0.0185589
0.0386774
0.0987917
0.159997
0.19459
0.210738
0.216631
0.216364
0.213052
0.206993
0.200801
0.194457
0.188502
0.183377
0.179302
0.176342
0.174461
0.173586
0.173586
0.17406
0.175222
0.176941
0.178965
0.18105
0.182901
0.184458
0.18517
0.184674
0.182464
0.177419
0.168745
0.156022
0.13972
0.12206
0.107712
0.109775
0.163865
0.287881
0.337107
0.335011
0.339997
0.409358
0.516839
0.634555
0.758494
0.881751
1.00069
1.11502
1.22522
1.3314
1.4339
1.53287
1.62843
1.72063
1.80945
1.89486
1.9768
2.05528
2.1303
2.20191
2.27019
2.33522
2.39714
2.45608
2.51221
2.56569
2.61671
2.66545
2.71212
2.7569
2.8
2.84159
2.88186
2.92098
2.95911
2.99639
3.03298
3.06898
3.10452
3.13968
3.17457
3.20924
3.24377
3.27822
3.31261
3.347
3.38141
3.41584
3.45032
3.48483
3.51939
3.55397
3.58855
3.62309
3.65756
3.69191
3.72608
3.76001
3.79364
3.82688
3.85966
3.8919
3.92352
3.9544
3.98441
4.01341
4.04122
4.06763
4.09243
4.11538
4.13643
4.15541
4.17206
4.18609
4.19707
4.20436
4.20729
4.20695
4.20223
4.19335
4.17973
4.16061
4.13486
4.10327
4.06646
4.02283
3.9722
3.91428
3.84885
3.77555
3.69533
3.6086
3.51665
3.42402
3.32797
3.22825
3.1257
3.02145
2.91507
2.80772
2.70098
2.59579
2.493
2.3934
2.29753
2.20588
2.11879
2.03659
1.95932
1.88696
1.81938
1.75586
1.69623
1.64041
1.58809
1.53919
1.49339
1.45059
1.41049
1.37265
1.33712
1.30375
1.27273
1.24341
1.2165
1.19088
1.16801
1.14587
1.12642
1.1068
1.09001
1.07202
1.05795
1.0415
1.0291
1.01244
0.999719
0.979008
0.963713
0.929961
0.0477907
0.0839062
0.16337
0.205243
0.224201
0.230627
0.22967
0.224419
0.215073
0.205109
0.195181
0.186218
0.178745
0.17297
0.168878
0.166333
0.165163
0.165163
0.16583
0.167371
0.169583
0.172295
0.175363
0.17861
0.18181
0.184452
0.186366
0.187125
0.186336
0.183263
0.17665
0.166028
0.151742
0.135996
0.125245
0.141728
0.224723
0.330377
0.36951
0.380998
0.422879
0.518251
0.635162
0.758025
0.88213
1.00295
1.11929
1.23178
1.3411
1.44764
1.55172
1.65346
1.75292
1.85002
1.9446
2.03648
2.1255
2.21153
2.29446
2.3742
2.45073
2.52404
2.59416
2.66118
2.72519
2.78631
2.8447
2.90051
2.95393
3.00515
3.05434
3.10171
3.14744
3.19171
3.23469
3.27655
3.31743
3.35748
3.39681
3.43555
3.47378
3.51159
3.54906
3.58625
3.62322
3.66001
3.69665
3.73317
3.76957
3.80588
3.84207
3.87816
3.91412
3.94991
3.98551
4.02086
4.05591
4.09057
4.12474
4.15833
4.1912
4.22334
4.25463
4.28499
4.31424
4.34222
4.36871
4.39344
4.4161
4.43618
4.4538
4.46883
4.48091
4.48988
4.49454
4.49566
4.49157
4.48247
4.46777
4.44735
4.42124
4.38873
4.34868
4.30053
4.24328
4.17768
4.10344
4.02106
3.93123
3.83796
3.73889
3.63369
3.52331
3.40619
3.28403
3.15823
3.02998
2.9005
2.77081
2.6421
2.51577
2.39292
2.27459
2.16191
2.05546
1.95569
1.863
1.77767
1.69959
1.62844
1.56381
1.50516
1.45204
1.40414
1.36092
1.32209
1.28716
1.25584
1.22769
1.20213
1.17889
1.15797
1.13936
1.12226
1.10731
1.09385
1.08202
1.07091
1.0622
1.05383
1.04814
1.04125
1.03655
1.02991
1.02503
1.01779
1.013
1.00345
0.994646
0.973931
0.0673156
0.130404
0.202037
0.235116
0.247318
0.247172
0.240549
0.228315
0.214208
0.200283
0.18779
0.177485
0.169625
0.1641
0.160626
0.158864
0.158506
0.159094
0.160582
0.162843
0.165691
0.169002
0.172649
0.176466
0.180223
0.183601
0.186035
0.187157
0.186639
0.183851
0.177734
0.167994
0.155226
0.142327
0.139464
0.174835
0.268756
0.357913
0.397917
0.430339
0.502884
0.611275
0.731562
0.854306
0.975599
1.09303
1.20653
1.317
1.42524
1.53172
1.63677
1.74051
1.84293
1.94383
2.04301
2.14021
2.23517
2.32767
2.41748
2.50442
2.58836
2.66922
2.74694
2.82153
2.89302
2.96147
3.027
3.08973
3.14981
3.20741
3.26271
3.31588
3.36713
3.41663
3.46455
3.51107
3.55635
3.60053
3.64375
3.68613
3.72777
3.76878
3.80922
3.84918
3.8887
3.92786
3.96669
4.00522
4.04347
4.08145
4.11916
4.15658
4.19368
4.23046
4.26691
4.30298
4.3386
4.37368
4.4081
4.44169
4.47422
4.50575
4.53619
4.56542
4.59324
4.61944
4.64379
4.66598
4.68565
4.70223
4.71561
4.72566
4.73157
4.73361
4.73089
4.72302
4.70975
4.69038
4.66363
4.62907
4.58588
4.53407
4.47285
4.4026
4.32342
4.23754
4.14534
4.04535
3.93793
3.82208
3.69838
3.56795
3.43155
3.28969
3.14347
2.99406
2.84289
2.69128
2.54083
2.39292
2.24923
2.1111
1.97968
1.85646
1.7418
1.63612
1.54003
1.4537
1.37689
1.30909
1.24968
1.19793
1.1531
1.11448
1.08136
1.05313
1.02933
1.00931
0.992803
0.979472
0.968544
0.960331
0.95452
0.950105
0.948183
0.948257
0.949145
0.951193
0.955209
0.959633
0.965893
0.971963
0.979719
0.986718
0.994378
0.999043
1.00274
1.0021
1.00023
0.993278
0.0824562
0.171173
0.239046
0.26511
0.270292
0.263778
0.249481
0.231581
0.213098
0.195709
0.18139
0.170486
0.162836
0.157917
0.155191
0.154153
0.154368
0.155495
0.157459
0.160067
0.163203
0.16675
0.170578
0.174521
0.178358
0.181797
0.184453
0.185713
0.185128
0.182087
0.175828
0.166158
0.154105
0.146087
0.154489
0.208475
0.303651
0.380607
0.425315
0.482227
0.573973
0.687057
0.806337
0.925891
1.04308
1.15674
1.26723
1.37548
1.4823
1.58822
1.69356
1.79844
1.90277
2.00635
2.10894
2.21023
2.30991
2.40767
2.5032
2.59626
2.68664
2.77415
2.85869
2.94017
3.01856
3.09388
3.16618
3.23553
3.30206
3.3659
3.42722
3.48617
3.54295
3.59771
3.65064
3.70191
3.75168
3.8001
3.84732
3.89345
3.93861
3.98289
4.02638
4.06916
4.11129
4.15284
4.19384
4.23435
4.27441
4.31403
4.35321
4.39188
4.42996
4.46754
4.50461
4.54113
4.57703
4.61219
4.64649
4.67974
4.71168
4.74233
4.77153
4.79911
4.82482
4.8484
4.86957
4.88799
4.90333
4.91536
4.92327
4.9267
4.92547
4.91901
4.90636
4.88689
4.85987
4.82446
4.78029
4.727
4.66458
4.59356
4.51609
4.43019
4.33556
4.23203
4.11884
3.99704
3.86712
3.72917
3.58373
3.43152
3.27332
3.11002
2.94287
2.77317
2.60266
2.43289
2.26592
2.10347
1.94748
1.79964
1.66107
1.53353
1.41819
1.31563
1.22554
1.14705
1.07924
1.02122
0.97209
0.93088
0.896623
0.868404
0.845443
0.826968
0.812479
0.801354
0.79311
0.7878
0.784233
0.783581
0.784287
0.786393
0.791011
0.79752
0.805884
0.815728
0.827804
0.841161
0.856878
0.873348
0.891963
0.910533
0.930109
0.949173
0.966807
0.980204
0.989114
0.990121
0.0934638
0.208676
0.273599
0.295032
0.294725
0.281279
0.260343
0.236402
0.213182
0.193315
0.177351
0.16588
0.158323
0.153821
0.151618
0.15102
0.15153
0.152941
0.155068
0.157776
0.160957
0.164489
0.168224
0.171981
0.175541
0.178635
0.18087
0.181748
0.180806
0.17724
0.170534
0.160546
0.151835
0.150926
0.175134
0.243762
0.332417
0.400446
0.456953
0.533432
0.634202
0.746702
0.862056
0.976659
1.08895
1.19846
1.30561
1.41124
1.51612
1.62079
1.7256
1.83063
1.93578
2.04087
2.14562
2.24971
2.35279
2.4545
2.5545
2.65247
2.74815
2.84129
2.9317
3.01924
3.10382
3.1854
3.26395
3.33951
3.41216
3.482
3.54916
3.61379
3.67605
3.73608
3.79406
3.85015
3.90451
3.95728
4.00861
4.05862
4.10742
4.1551
4.20176
4.24749
4.29235
4.33639
4.37962
4.42214
4.46402
4.50529
4.54592
4.58587
4.62501
4.66343
4.7011
4.73796
4.77391
4.80883
4.84259
4.87503
4.90606
4.9354
4.96283
4.98808
5.0109
5.03091
5.04777
5.06108
5.07045
5.0753
5.07533
5.0696
5.05766
5.03863
5.01213
4.97756
4.93468
4.88326
4.8243
4.75727
4.68133
4.59658
4.50205
4.39804
4.28474
4.16213
4.03032
3.88971
3.74068
3.58365
3.41915
3.2479
3.07085
2.88916
2.70439
2.51813
2.33252
2.14964
1.97183
1.80151
1.64044
1.49165
1.35755
1.23846
1.13453
1.04528
0.969499
0.905745
0.852702
0.809041
0.773531
0.745035
0.722476
0.704932
0.691535
0.681637
0.674528
0.669976
0.667143
0.666572
0.667047
0.668621
0.672004
0.676333
0.682109
0.689194
0.69796
0.708225
0.720618
0.734821
0.75192
0.771031
0.793472
0.817831
0.844541
0.873126
0.901196
0.929111
0.95301
0.971088
0.104038
0.244796
0.31063
0.328456
0.323
0.302725
0.274528
0.244099
0.215902
0.192781
0.175667
0.163667
0.155684
0.150938
0.148841
0.148298
0.148751
0.150105
0.152159
0.15476
0.157769
0.161057
0.164467
0.167793
0.170802
0.173202
0.174376
0.174427
0.172518
0.16813
0.161121
0.15425
0.152166
0.160852
0.202455
0.277951
0.356925
0.423417
0.493239
0.581337
0.683989
0.792586
0.902166
1.01069
1.1174
1.22217
1.3254
1.42779
1.52996
1.63251
1.73581
1.83992
1.94475
2.05012
2.15575
2.26131
2.36643
2.47074
2.57387
2.67547
2.77524
2.87286
2.96808
3.06073
3.15066
3.23776
3.32194
3.40319
3.48153
3.55703
3.62978
3.69991
3.76754
3.8328
3.89584
3.9568
4.01583
4.07306
4.12864
4.18267
4.23527
4.28652
4.33648
4.38528
4.43301
4.4797
4.52535
4.57007
4.61393
4.65693
4.69907
4.74034
4.78072
4.8201
4.8584
4.89551
4.93132
4.96569
4.99845
5.02942
5.05839
5.08509
5.10924
5.13055
5.14873
5.16334
5.17396
5.18007
5.18132
5.17695
5.16651
5.14936
5.1251
5.09332
5.05428
5.00799
4.9535
4.89043
4.81831
4.73649
4.64514
4.54428
4.43371
4.31351
4.18371
4.04441
3.89581
3.73827
3.57219
3.39808
3.21659
3.02862
2.83536
2.63834
2.43943
2.24087
2.04504
1.85512
1.67319
1.50386
1.34995
1.21298
1.09401
0.992071
0.90614
0.834982
0.777228
0.731202
0.695228
0.667576
0.646618
0.631051
0.619585
0.611416
0.605666
0.601965
0.599696
0.598871
0.599045
0.599875
0.601786
0.604387
0.607842
0.611976
0.617077
0.623031
0.630216
0.638611
0.648672
0.660385
0.674587
0.690929
0.710662
0.733338
0.759448
0.789785
0.821771
0.85783
0.890126
0.926723
0.113524
0.281164
0.350281
0.366297
0.356119
0.32897
0.293398
0.256355
0.222968
0.196107
0.176463
0.163202
0.154681
0.14931
0.1463
0.145289
0.145365
0.146321
0.147988
0.150209
0.152822
0.155653
0.158508
0.161181
0.163424
0.164727
0.165077
0.164181
0.161482
0.157077
0.153035
0.15181
0.156739
0.180503
0.236144
0.309647
0.382203
0.453045
0.532868
0.625243
0.725246
0.827856
0.93047
1.0321
1.13248
1.23169
1.33002
1.42842
1.52773
1.62796
1.72922
1.83157
1.93498
2.03931
2.14433
2.24975
2.35523
2.46044
2.565
2.66858
2.77084
2.87149
2.9703
3.06702
3.16137
3.25317
3.34227
3.4286
3.51213
3.59288
3.67088
3.74626
3.81912
3.88953
3.9576
4.02346
4.08721
4.14899
4.20891
4.26707
4.32358
4.37852
4.43191
4.48394
4.53468
4.5842
4.63258
4.67981
4.72589
4.77079
4.81451
4.857
4.89817
4.93792
4.97614
5.01269
5.04746
5.08028
5.11097
5.13931
5.16508
5.18799
5.20772
5.22394
5.23622
5.24413
5.24722
5.24508
5.23727
5.22333
5.20333
5.17681
5.14301
5.1015
5.05191
4.99357
4.92636
4.85001
4.76414
4.66845
4.56285
4.44734
4.32191
4.18664
4.04158
3.88684
3.72277
3.54969
3.36811
3.17865
2.98214
2.77978
2.573
2.36396
2.15475
1.94887
1.74852
1.5593
1.3849
1.22848
1.09155
0.97385
0.875217
0.794751
0.731125
0.682233
0.645703
0.618991
0.599837
0.586327
0.576832
0.57039
0.565951
0.563148
0.561448
0.560635
0.56067
0.561078
0.562095
0.563616
0.56561
0.56801
0.570954
0.574355
0.578446
0.583151
0.588753
0.595298
0.603084
0.612207
0.623222
0.636133
0.651715
0.670307
0.691815
0.718443
0.746951
0.783474
0.816753
0.862544
0.12172
0.318776
0.393095
0.40876
0.394697
0.361234
0.31879
0.275501
0.236902
0.205797
0.182734
0.166697
0.156018
0.149163
0.144969
0.142722
0.141876
0.141887
0.142766
0.144256
0.146162
0.148294
0.150424
0.152332
0.15368
0.154224
0.154225
0.153256
0.151607
0.150756
0.151326
0.155506
0.171122
0.211983
0.272909
0.34253
0.414304
0.49072
0.575166
0.666415
0.760955
0.856245
0.95111
1.04523
1.13868
1.23173
1.32559
1.41993
1.51486
1.61083
1.70819
1.80709
1.90753
2.00939
2.11249
2.21655
2.32126
2.42629
2.53128
2.63588
2.73973
2.84247
2.9437
3.04313
3.1406
3.2359
3.32886
3.41933
3.50722
3.59254
3.67538
3.75574
3.83361
3.90903
3.98205
4.05275
4.12121
4.18751
4.25176
4.31401
4.37447
4.4332
4.49029
4.54579
4.59974
4.65219
4.70315
4.75262
4.80056
4.84693
4.89172
4.93485
4.97624
5.01577
5.05328
5.08865
5.12176
5.15241
5.18038
5.20545
5.22737
5.24584
5.26055
5.27114
5.27726
5.27861
5.27516
5.26586
5.25052
5.2288
5.20024
5.16415
5.12016
5.06783
5.00677
4.93659
4.85704
4.76789
4.66886
4.55974
4.44044
4.31097
4.17144
4.02194
3.8626
3.69357
3.5152
3.32791
3.13234
2.92928
2.71979
2.50547
2.2881
2.07076
1.85597
1.64886
1.45461
1.27778
1.12083
0.984834
0.870444
0.777801
0.706029
0.652574
0.614329
0.587833
0.569862
0.557828
0.549827
0.544577
0.541049
0.538966
0.537705
0.53726
0.537346
0.537693
0.538478
0.5395
0.540748
0.542209
0.54392
0.54588
0.548207
0.550864
0.55405
0.557738
0.562125
0.56729
0.573393
0.580612
0.589177
0.59941
0.611448
0.626364
0.643138
0.665205
0.687895
0.720294
0.748795
0.794071
0.126919
0.355148
0.437253
0.454551
0.438625
0.400597
0.353007
0.304989
0.261949
0.226269
0.198598
0.178319
0.163872
0.153753
0.146908
0.142518
0.140122
0.139106
0.13886
0.139171
0.140119
0.141424
0.142896
0.144376
0.145717
0.146853
0.147849
0.148762
0.149955
0.15206
0.157061
0.170797
0.202058
0.25303
0.314937
0.38407
0.45836
0.537759
0.621546
0.707875
0.795054
0.882099
0.968633
1.05475
1.1408
1.2273
1.31403
1.40166
1.49059
1.5812
1.67367
1.76807
1.86444
1.96268
2.06264
2.16408
2.26671
2.37023
2.47429
2.57856
2.6827
2.78634
2.88913
2.99073
3.09086
3.18929
3.28579
3.38015
3.47221
3.56189
3.64909
3.73385
3.81622
3.89621
3.97377
4.04892
4.12168
4.19232
4.26082
4.32726
4.39171
4.45423
4.51485
4.5736
4.63048
4.68551
4.7387
4.79005
4.83949
4.88698
4.93249
4.97595
5.01725
5.05625
5.09282
5.12678
5.15795
5.18616
5.21123
5.23297
5.25112
5.26541
5.27553
5.28116
5.28186
5.27773
5.26733
5.25063
5.22734
5.19702
5.15918
5.11329
5.05891
4.99563
4.92305
4.8409
4.74898
4.64712
4.53515
4.41295
4.28047
4.13776
3.98495
3.82221
3.64964
3.4674
3.27591
3.07572
2.86765
2.65274
2.43252
2.20893
1.98472
1.76376
1.55209
1.35524
1.17765
1.02181
0.888938
0.780952
0.697656
0.63696
0.595194
0.567813
0.550128
0.538738
0.531496
0.526854
0.523906
0.522274
0.521365
0.521232
0.521368
0.521748
0.522459
0.523282
0.524228
0.525265
0.5264
0.527633
0.529017
0.530567
0.532384
0.534474
0.536986
0.539939
0.543455
0.547659
0.552587
0.55853
0.5654
0.573847
0.583339
0.595607
0.608633
0.626855
0.644442
0.671783
0.694729
0.734079
0.128935
0.387639
0.47932
0.500805
0.486645
0.447293
0.39823
0.349212
0.30461
0.265669
0.233064
0.207416
0.187594
0.172305
0.16087
0.152672
0.147076
0.143674
0.142087
0.141522
0.141502
0.142195
0.143382
0.144858
0.146506
0.148299
0.150392
0.153142
0.157467
0.165368
0.180483
0.208489
0.25412
0.30943
0.37358
0.44423
0.519218
0.596606
0.674876
0.753298
0.831751
0.909993
0.987839
1.06554
1.14359
1.22167
1.30042
1.38058
1.4625
1.54652
1.63282
1.7215
1.8126
1.90606
2.00175
2.09946
2.19893
2.29984
2.40189
2.50476
2.60812
2.71162
2.81487
2.91749
3.01918
3.1197
3.21883
3.31627
3.41179
3.50522
3.59645
3.68542
3.77207
3.85643
3.93841
4.01796
4.09508
4.16979
4.24218
4.31235
4.38035
4.4462
4.5099
4.57147
4.6309
4.68821
4.74337
4.79634
4.84707
4.89549
4.94156
4.98519
5.02629
5.06469
5.10023
5.13274
5.16205
5.18796
5.21026
5.22872
5.2431
5.25312
5.25847
5.25878
5.25423
5.24316
5.22552
5.20102
5.16924
5.12975
5.08209
5.0258
4.96048
4.88577
4.80139
4.70714
4.60291
4.48863
4.3642
4.22959
4.08474
3.92971
3.76462
3.58962
3.40479
3.21035
3.00683
2.79504
2.57609
2.35143
2.12337
1.89421
1.66941
1.45526
1.25766
1.08127
0.928409
0.802546
0.703985
0.632524
0.585104
0.555583
0.536939
0.525333
0.518221
0.513816
0.511142
0.509687
0.508954
0.508901
0.50903
0.509387
0.509944
0.510561
0.511258
0.511968
0.512712
0.513506
0.514362
0.515288
0.516351
0.51757
0.519017
0.520719
0.522765
0.525216
0.528128
0.53169
0.535826
0.540975
0.546762
0.554162
0.56205
0.572683
0.5832
0.598638
0.612544
0.635337
0.65398
0.686493
0.12695
0.410043
0.514207
0.543051
0.537539
0.506347
0.464322
0.420074
0.377457
0.338039
0.302424
0.272147
0.246806
0.225081
0.207211
0.193063
0.182209
0.174258
0.168805
0.165112
0.163329
0.162699
0.162721
0.164206
0.16688
0.170726
0.176328
0.184546
0.196984
0.216165
0.245185
0.286444
0.338101
0.397225
0.462481
0.531687
0.602374
0.672506
0.741322
0.810108
0.879582
0.948528
1.01672
1.08523
1.15413
1.2239
1.29404
1.36532
1.43871
1.51476
1.59356
1.6752
1.75973
1.84717
1.93741
2.03027
2.12548
2.22276
2.32176
2.42218
2.52369
2.62603
2.72879
2.83151
2.9338
3.03534
3.13597
3.23548
3.3335
3.42978
3.52416
3.61654
3.7068
3.79488
3.88064
3.96402
4.04496
4.12346
4.19958
4.27335
4.34476
4.4138
4.48044
4.54467
4.60645
4.66576
4.72259
4.77689
4.8286
4.87768
4.92403
4.96758
5.0082
5.04573
5.08
5.11079
5.13791
5.16111
5.18016
5.19481
5.20481
5.20986
5.20973
5.20466
5.19273
5.17401
5.14816
5.11475
5.07339
5.0237
4.96529
4.89781
4.82096
4.73449
4.6382
4.53201
4.41587
4.28977
4.15363
4.00742
3.85106
3.68451
3.50787
3.32132
3.12496
2.91916
2.70465
2.48286
2.25512
2.02386
1.79201
1.56558
1.35078
1.15479
0.981727
0.836538
0.721253
0.6361
0.581444
0.548012
0.527653
0.515208
0.507846
0.503461
0.500911
0.499526
0.498819
0.498664
0.498719
0.498885
0.499159
0.499469
0.499806
0.500125
0.500489
0.50082
0.501177
0.501608
0.502105
0.502682
0.50342
0.504327
0.505434
0.506789
0.508436
0.5105
0.512968
0.516106
0.519723
0.524407
0.529538
0.536378
0.543365
0.553146
0.562336
0.576097
0.587875
0.607175
0.622896
0.649674
0.119894
0.417491
0.53044
0.571076
0.579297
0.567034
0.542853
0.513647
0.482546
0.451089
0.420737
0.392677
0.367917
0.345818
0.325563
0.307836
0.292785
0.280346
0.270319
0.262891
0.258004
0.255684
0.254999
0.256547
0.261414
0.269053