/*--------------------------------*- C++ -*----------------------------------*\
| =========                 |                                                 |
| \\      /  F ield         | OpenFOAM: The Open Source CFD Toolbox           |
|  \\    /   O peration     | Version:  2112                                  |
|   \\  /    A nd           | Website:  www.openfoam.com                      |
|    \\/     M anipulation  |                                                 |
\*---------------------------------------------------------------------------*/
FoamFile
{
    version     2.0;
    format      ascii;
    arch        "LSB;label=32;scalar=64";
    class       volScalarField;
    location    "0.09";
    object      omega_0;
}
// * * * * * * * * * * * * * * * * * * * * * * * * * * * * * * * * * * * * * //

dimensions      [0 0 -1 0 0 0 0];

internalField   nonuniform List<scalar> 
12225
(
37527.3
40233
41980.6
42972.2
43468.4
43638.5
43610
43517.8
43339
43117.7
42904.4
42665.1
42468.8
42234.3
42076.6
41851.3
41739.1
41499.6
2589.97
6031.61
8562.87
10432.3
11778
12739.4
13397.6
13865.3
14198
14422.4
14589.9
14698.7
14776.4
14843.1
14868.6
14920.9
14928.5
15048.9
353.32
924.634
1440.03
1916.41
2328.31
2710.87
3023.44
3317.62
3546.28
3772.66
3937.62
4113.83
4230.46
4371.54
4452.19
4569.65
4613.08
4754.51
119.872
272.524
419.915
564.993
695.294
826.248
937.201
1052.33
1143.28
1243.58
1316.53
1404.02
1461.02
1538.09
1582.66
1648.89
1678.42
1758.86
66.3043
127.419
186.98
246.755
301.452
357.082
405.62
456.484
498.396
544.502
579.966
621.794
651.014
689.302
712.927
747.382
765.692
803.558
48.3238
78.7239
108.532
138.636
166.672
194.905
220.308
246.365
268.948
292.827
312.579
334.508
351.364
371.778
385.661
404.809
415.992
435.711
42.5766
57.9549
74.9445
92.1045
108.368
124.558
139.512
154.495
168.027
181.79
193.883
206.539
217.14
228.937
237.891
249.213
256.174
268.009
40.7422
48.2869
58.424
68.8836
79.0234
89.0735
98.5551
107.906
116.599
125.209
133.089
141.001
148.047
155.382
161.508
168.509
173.434
180.746
40.0942
43.667
49.6555
56.2029
62.7605
69.301
75.5892
81.7532
87.5958
93.3036
98.6596
103.913
108.77
113.619
117.941
122.511
126.127
130.871
39.8297
41.4805
44.8365
48.9291
53.2128
57.5633
61.8316
66.0278
70.0654
73.994
77.7386
81.3742
84.808
88.1624
91.2697
94.4017
97.085
100.304
39.709
40.4593
42.1976
44.6872
47.4498
50.3439
53.2556
56.1504
58.977
61.7367
64.3977
66.9774
69.4452
71.836
74.0982
76.3218
78.3249
80.5851
39.6565
40.0163
40.9226
42.4416
44.2496
46.2204
48.2608
50.3245
52.3708
54.3853
56.3476
58.2569
60.0993
61.8834
63.5906
65.2526
66.7925
68.4677
39.63
39.7904
40.2281
41.0864
42.2142
43.5095
44.9009
46.3432
47.8017
49.2567
50.6912
52.0975
53.4665
54.7972
56.0816
57.3288
58.5074
59.7581
39.616
39.6728
39.8525
40.2496
40.8652
41.625
42.485
43.4105
44.3738
45.3556
46.3409
47.3198
48.2841
49.2295
50.1509
51.0485
51.9105
52.8097
39.6078
39.62
39.6764
39.8188
40.0931
40.4709
40.9317
41.4556
42.0246
42.624
43.2418
43.869
44.4982
45.1241
45.7425
46.3506
46.9439
47.5571
39.6043
39.5974
39.6065
39.6427
39.7277
39.8759
40.0769
40.324
40.6094
40.9253
41.2643
41.6202
41.9874
42.3616
42.7391
43.1169
43.4925
43.8805
39.604
39.5884
39.5795
39.5821
39.5969
39.6328
39.6981
39.7888
39.904
40.0413
40.198
40.3712
40.558
40.7558
40.9619
41.1744
41.3913
41.6175
39.604
39.5866
39.5722
39.5626
39.5617
39.5667
39.5815
39.6115
39.6566
39.7161
39.7897
39.8764
39.9751
40.0845
40.2033
40.3299
40.4632
40.6034
39.6039
39.5872
39.5743
39.5706
39.5756
39.5916
39.6247
39.6762
39.7446
39.8294
39.9294
40.0431
40.1688
40.3049
40.4497
40.6017
40.7592
40.9183
39.6039
39.5966
39.6053
39.6393
39.7166
39.8479
40.0241
40.2403
40.4903
40.7678
41.0667
41.3817
41.7082
42.0424
42.3809
42.721
43.0606
43.3899
39.6102
39.6339
39.7208
39.9209
40.2583
40.6978
41.2182
41.7986
42.4211
43.071
43.7368
44.4094
45.082
45.7494
46.4077
47.0539
47.687
48.287
39.6302
39.7855
40.1867
40.9424
41.9216
43.0516
44.2764
45.5537
46.8544
48.1572
49.4484
50.7176
51.9587
53.1665
54.3395
55.4733
56.5755
57.6006
39.7085
40.3657
41.806
43.8387
46.1485
48.5902
51.0834
53.5689
56.0199
58.4111
60.7361
62.9824
65.1528
67.2385
69.2498
71.17
73.0412
74.7444
40.0218
42.3549
46.3992
51.0062
55.8295
60.6504
65.4081
70.0188
74.4929
78.7823
82.92
86.8659
90.6672
94.2748
97.7633
101.035
104.274
107.132
41.2492
48.5878
58.1063
67.9272
77.7229
87.1721
96.3643
105.089
113.533
121.487
129.19
136.398
143.411
149.91
156.318
162.114
168.064
173.06
46.1932
66.6999
88.9419
110.645
131.825
151.753
171.138
189.105
206.671
222.733
238.596
252.872
267.208
279.81
292.843
303.835
315.856
325.212
65.9204
125.8
185.607
241.653
295.703
345.356
393.784
437.167
480.192
517.645
555.787
587.848
621.734
648.966
679.262
702.183
729.533
748.596
166.89
402.776
620.403
816.829
1000.93
1164.71
1319.86
1453.02
1582.04
1688.37
1795.77
1879.74
1969.85
2035.76
2112.24
2163.58
2229.35
2269.08
1158.1
2665.3
3852.29
4825.01
5631.72
6285.64
6819.77
7243.53
7590.11
7861.53
8088.4
8260.1
8415.31
8522.88
8633.37
8696.88
8782.32
8812.39
23121.7
24533.2
25613.9
26401.8
26955.7
27332.7
27578.8
27730.5
27813.4
27848.8
27843.9
27825.8
27788.7
27738.5
27681.6
27620.5
27557.4
27493.6
11477.4
2574.93
2614.69
2658.18
2704.65
2774.64
2851.44
2932.84
3010.35
3095.59
3172.58
3241.23
3300.31
3345.94
3382.75
3410.47
3432.2
3446.42
3457.5
3460.95
3461.71
3460.45
3456.83
3449.7
3438.28
3420.65
3395.51
3359.16
3308.28
3232.94
3118.68
2892.63
2673.53
2659.12
2675.69
2698.51
2727.82
2787.3
2887.21
2944.82
2924.04
2882.68
2818.97
2813.49
2913.31
3526.3
4161.8
4546.78
4838.92
5076.56
5275.66
5447.75
5597.32
5729.91
5848.38
5955.22
6052.55
6141.65
6224.12
6300.7
6372.57
6440.25
6504.64
6566.1
6625.24
6682.35
6738.01
6792.4
6845.92
6898.8
6951.24
7003.52
7055.71
7108.07
7160.65
7213.62
7267.03
7320.97
7375.5
7430.64
7486.43
7542.86
7599.93
7657.6
7715.83
7774.55
7833.7
7893.18
7952.89
8012.7
8072.49
8132.13
8191.44
8250.29
8308.52
8365.97
8422.48
8477.92
8532.22
8585.37
8637.44
8688.55
8739.09
8788.23
8835.54
8880.74
8923.87
8964.52
9002.64
9038.01
9070.49
9099.89
9125.99
9148.52
9167.28
9182.44
9194.03
9201.11
9204.56
9203.54
9198.06
9187.94
9172.82
9151.37
9122.09
9087.7
9047
9000.2
8947.71
8889.54
8825.6
8756.23
8683.74
8606.25
8526.35
8464.91
8463.95
8488.44
8513.85
8536.21
8554.91
8568.54
8578.6
8585.9
8588.86
8586.13
8583.73
8581.54
8579.37
8577.16
8575.29
8574.08
8573.28
8572.85
8573.09
8573.25
8573.93
8575.12
8576.24
8576.71
8577.49
8574.33
8572.38
8563.89
8555.56
8537.96
8521.86
8492.24
8461.66
8407.26
8353.52
8262.23
8175.9
8031.77
7903.83
7684.37
7488.92
7170.83
6881.32
6254.16
11482.6
2604.11
1565.03
1550.9
1823.61
1831.69
1778.97
1670.25
1555.05
1438.82
1332.85
1244.06
1167.73
1106.16
1058.18
1022.06
995.393
977.932
966.339
964.552
967.8
989.082
1038.6
1120.83
1232.33
1374.79
1549.74
1755.94
1989.95
2214.97
2420.28
2504.92
2459.34
2374.89
2061.63
1392.87
1071.58
1061.6
1181.43
1266.63
1307.28
1586.06
2392.1
2951.28
3192.12
3445.65
3584.08
3549.87
3409.9
3276.97
3139.2
3025.75
2924.78
2844.66
2778
2726.18
2684.88
2653.48
2629.58
2612.26
2600.35
2593.5
2589.72
2587.92
2587.82
2591.74
2597.01
2603.94
2612.18
2621.47
2631.74
2642.71
2654.36
2666.47
2678.98
2691.75
2704.71
2717.73
2730.74
2743.64
2756.34
2768.75
2780.8
2792.39
2803.45
2813.9
2823.67
2832.68
2840.87
2848.19
2854.6
2860.07
2864.58
2868.14
2870.8
2872.62
2873.72
2874.3
2874.59
2874.99
2876.09
2878.81
2884.5
2889.56
2894.59
2898.6
2902.21
2905.18
2907.61
2909.51
2910.9
2911.8
2912.25
2912.24
2911.95
2911.33
2910.41
2909.17
2907.69
2905.98
2904.06
2901
2896.88
2891.13
2882.7
2874.11
2864.89
2855.13
2844.73
2833.58
2821.7
2809.07
2795.81
2782.03
2768.8
2758.61
2754.62
2752.81
2750.81
2748.1
2744.58
2740.51
2736.02
2730.92
2723.52
2712.56
2699.46
2687.27
2675.94
2665.37
2655.57
2646.53
2638.28
2630.98
2624.39
2618.74
2614.25
2612.01
2611.22
2611.2
2612.27
2616.82
2621.35
2629.36
2642.16
2650.12
2677.21
2722.84
2786.23
2861.27
2954.85
3056.15
3180.79
3310.9
3468.72
3640.19
3837.78
4084.33
4307.09
4825.57
11473.8
2813.95
2327.68
2435.28
2284.54
1981.86
1696.98
1456.04
1252.42
1081.9
951.221
852.807
785.04
736.159
699.821
672.323
651.457
635.852
625.063
617.687
616.763
619.669
628.379
647.059
679.276
728.633
801.291
903.564
1046.21
1230.74
1453.14
1653.43
1856.97
1908.15
1860.06
1665.29
1441.16
1351.64
1521.57
1799.94
2098.67
2377.06
2624.41
2775.07
2808.88
2715.19
2496.21
2386.34
2209.45
2105.47
2002.04
1932.95
1875.28
1834.17
1802.32
1779.25
1762.18
1750.17
1741.92
1737.09
1734.74
1733.87
1733.83
1735.84
1739.01
1743.15
1747.99
1753.44
1759.39
1765.73
1772.4
1779.31
1786.41
1793.62
1800.91
1808.21
1815.49
1822.69
1829.78
1836.71
1843.45
1849.96
1856.21
1862.17
1867.81
1873.1
1878.03
1882.59
1886.75
1890.53
1893.93
1896.96
1899.64
1902.01
1904.12
1906.01
1907.77
1909.46
1911.17
1912.98
1915
1917.3
1919.84
1921.94
1924.05
1925.93
1927.73
1929.45
1931.12
1932.77
1934.43
1936.12
1937.88
1939.73
1941.71
1943.8
1946
1948.29
1950.68
1953.12
1955.56
1957.79
1959.78
1961.46
1962.9
1964.32
1965.61
1966.75
1967.48
1967.68
1967.37
1966.41
1964.73
1962.34
1959.43
1956.6
1953.9
1950.34
1945.65
1939.61
1932.19
1923.65
1913.99
1903.16
1891.05
1877.51
1862.85
1847.56
1831.95
1816.19
1800.37
1784.61
1769.1
1753.98
1739.38
1725.39
1712.11
1699.75
1688.39
1678.11
1668.85
1660.98
1654.74
1649.74
1647.2
1647.08
1649.11
1655.83
1667.86
1690.07
1714.83
1755.27
1795.05
1861.61
1919.94
2025.96
2113.8
2284.87
2428.16
2814.83
11472.3
4054.76
3559.49
2846.24
2233.22
1715.89
1322.64
1053.42
884.052
778.67
707.921
656.971
618.35
588.096
563.843
544.185
528.297
515.685
506.168
499.459
496.163
496.755
499.857
507.276
521.452
543.777
577.653
627.19
700.981
802.703
953.96
1120.77
1305.43
1456.32
1542.47
1567.72
1529.75
1619.12
1972.18
2206.68
2278.05
2333.99
2377.55
2267.91
2146.23
2024.58
1872.1
1771.97
1666.07
1601.87
1544.56
1506.07
1476.04
1454.94
1439.6
1429.06
1422.01
1417.94
1416.04
1415.43
1415.82
1417.73
1420.4
1423.88
1427.93
1432.42
1437.27
1442.41
1447.78
1453.32
1459
1464.77
1470.6
1476.46
1482.33
1488.17
1493.96
1499.69
1505.32
1510.85
1516.25
1521.51
1526.62
1531.56
1536.33
1540.91
1545.31
1549.52
1553.56
1557.42
1561.12
1564.67
1568.1
1571.42
1574.67
1577.89
1581.1
1584.33
1587.62
1590.99
1594.45
1598.03
1601.69
1605.34
1609.11
1612.98
1617.01
1621.21
1625.62
1630.25
1635.13
1640.27
1645.7
1651.43
1657.47
1663.8
1670.41
1677.29
1684.39
1691.7
1699.15
1706.63
1714.04
1721.35
1728.57
1735.67
1742.62
1749.48
1755.84
1761.42
1766.21
1770.09
1772.93
1774.6
1775.02
1774.51
1772.76
1768.97
1763.4
1756.02
1746.8
1735.79
1723.07
1708.57
1692.44
1674.85
1656.02
1636.21
1615.73
1594.78
1573.5
1552.23
1531.17
1510.42
1490.16
1470.44
1451.36
1433.07
1415.52
1398.92
1383.38
1368.75
1355.78
1343.93
1333.54
1325.83
1318.81
1315.24
1315.44
1317.92
1324
1338.15
1352.21
1382.53
1407.94
1461.84
1505.41
1597.19
1673.96
1885.33
11491.3
6086.24
3830.39
2512.38
1692.71
1206.29
955.297
811.652
720.743
658.1
611.454
574.878
545.385
520.923
500.368
483.083
468.694
456.981
447.828
441.185
437.039
436.555
438.015
442.268
451.114
465.22
486.18
516.474
561.013
623.708
719.972
847.517
998.791
1158.09
1302.11
1428.12
1549.19
1838.87
2115.56
2185.12
2171.63
2076.53
1931.7
1839.65
1726.84
1620.42
1517.62
1447.04
1385.32
1344.24
1311.51
1288.94
1272.62
1261.63
1254.46
1250.56
1248.91
1248.55
1249.53
1251.73
1254.7
1258.39
1262.58
1267.16
1272.04
1277.14
1282.41
1287.81
1293.3
1298.87
1304.47
1310.1
1315.74
1321.38
1327
1332.59
1338.15
1343.66
1349.12
1354.52
1359.85
1365.11
1370.3
1375.41
1380.44
1385.4
1390.28
1395.09
1399.85
1404.55
1409.22
1413.87
1418.51
1423.17
1427.86
1432.6
1437.42
1442.34
1447.39
1452.57
1457.91
1463.43
1469.13
1475.03
1481.18
1487.59
1494.31
1501.35
1508.74
1516.5
1524.63
1533.13
1542.03
1551.32
1560.98
1570.98
1581.28
1591.89
1602.74
1613.8
1625.03
1636.39
1647.62
1658.63
1669.36
1679.72
1689.64
1699.18
1708.05
1715.83
1722.51
1728
1732.1
1734.71
1735.63
1735.09
1732.63
1727.65
1720.56
1711.3
1699.84
1686.05
1670.18
1652.56
1633.09
1611.91
1589.3
1565.56
1541.04
1515.97
1490.6
1465.24
1440.1
1415.27
1390.93
1367.11
1343.98
1321.56
1299.91
1279.32
1259.82
1241.33
1224.4
1208.58
1194.31
1182.08
1170.88
1162.59
1155.86
1152.12
1152.3
1154.65
1160.07
1172.87
1185.64
1213.7
1237.48
1288.32
1330.52
1444.19
11695.6
6280.43
3109.83
1769.11
1208.67
945.598
801.684
711.84
649.391
602.191
564.682
533.49
506.946
484.2
464.762
448.303
434.581
423.423
414.711
408.356
404.308
403.14
404.057
407.179
413.905
424.87
440.988
463.991
496.912
543.637
614.031
714.784
842.454
993.521
1162.58
1341.59
1593.38
1915.56
2065.97
2069.08
1908.16
1742.98
1638.99
1552.26
1458.39
1375.39
1306.64
1257.56
1218.78
1191.69
1171.82
1158.4
1149.62
1144.8
1142.75
1142.35
1143.56
1146.12
1149.64
1153.89
1158.67
1163.84
1169.29
1174.94
1180.72
1186.58
1192.49
1198.42
1204.36
1210.3
1216.23
1222.13
1228.02
1233.88
1239.72
1245.53
1251.31
1257.08
1262.82
1268.53
1274.23
1279.91
1285.57
1291.22
1296.86
1302.49
1308.14
1313.79
1319.47
1325.19
1330.95
1336.78
1342.69
1348.69
1354.8
1361.04
1367.44
1374.01
1380.78
1387.76
1394.98
1402.45
1410.21
1418.28
1426.7
1435.47
1444.63
1454.19
1464.17
1474.58
1485.41
1496.65
1508.29
1520.33
1532.75
1545.49
1558.42
1571.39
1584.48
1597.65
1610.87
1624.2
1637.29
1649.89
1661.99
1673.47
1684.18
1693.84
1702.56
1710.37
1716.85
1721.95
1725.38
1727.2
1727.06
1725.25
1720.85
1714.08
1704.99
1693.45
1679.44
1662.73
1643.41
1621.74
1597.86
1572.07
1544.76
1516.44
1487.52
1458.3
1429.05
1399.92
1371.1
1342.82
1315.2
1288.36
1262.44
1237.45
1213.51
1190.85
1169.39
1149.25
1130.68
1113.35
1097.79
1083.97
1071.53
1061.8
1054.02
1047.84
1045.81
1046.32
1048.57
1054.93
1062.67
1079.94
1094.64
1126.02
1151.17
1216.25
12045.7
5049.22
2211.49
1349.01
1006.53
835.819
735.142
666.855
615.383
573.744
538.737
508.861
483.273
461.455
443.018
427.616
414.921
404.63
396.523
390.506
386.586
385.054
385.656
388.219
393.953
403.5
417.545
437.484
465.608
505.68
565.541
652.398
765.413
905.877
1087.93
1344.72
1647.43
1880.95
1940.64
1834.19
1641.08
1514.42
1432.07
1355.5
1280.98
1218.66
1170.45
1135.4
1109.28
1091.05
1078.62
1071.02
1067.36
1066.21
1066.79
1069.23
1072.97
1077.69
1083.1
1089.02
1095.28
1101.76
1108.38
1115.07
1121.77
1128.46
1135.11
1141.71
1148.26
1154.74
1161.16
1167.54
1173.86
1180.14
1186.39
1192.61
1198.82
1205.02
1211.21
1217.41
1223.62
1229.85
1236.11
1242.39
1248.73
1255.11
1261.56
1268.08
1274.68
1281.38
1288.19
1295.13
1302.22
1309.46
1316.87
1324.48
1332.31
1340.37
1348.69
1357.28
1366.17
1375.38
1384.93
1394.86
1405.19
1415.92
1427.07
1438.65
1450.63
1462.97
1475.67
1488.73
1502.1
1515.78
1529.73
1543.99
1558.44
1572.91
1587.24
1601.37
1615.17
1628.4
1641.17
1653.43
1664.87
1675.37
1684.8
1692.83
1699.52
1704.92
1708.74
1711.13
1711.56
1710.5
1707.3
1701.57
1693.49
1682.93
1669.63
1653.37
1634.21
1611.83
1586.42
1558.49
1528.17
1495.9
1462.36
1428.32
1394.18
1360.2
1326.61
1293.69
1261.71
1230.95
1201.46
1173.4
1146.76
1121.65
1098.03
1075.97
1055.37
1036.55
1019.51
1003.99
990.641
978.876
968.723
961.669
955.97
952.937
953.044
954.649
958.118
965.868
972.999
988.07
999.675
1023.81
1041.31
1083.78
12273.4
4017.27
1783.17
1169.59
920.79
790.054
707.663
647.914
600.266
560.168
525.702
496.047
470.747
449.406
431.62
416.968
405.03
395.421
387.834
382.098
378.274
376.601
377.044
379.474
384.978
394.139
407.682
427.017
454.463
493.8
550.461
629.171
734.727
880.61
1091.37
1369.73
1657.93
1783.14
1760.07
1602.69
1442.31
1349.55
1280.91
1216.87
1158.58
1111.41
1075.88
1050.11
1031.68
1019.29
1011.83
1008.41
1007.53
1008.71
1011.79
1016.34
1021.96
1028.35
1035.29
1042.6
1050.14
1057.8
1065.5
1073.18
1080.8
1088.33
1095.77
1103.09
1110.3
1117.41
1124.42
1131.34
1138.19
1144.99
1151.74
1158.46
1165.16
1171.86
1178.58
1185.31
1192.08
1198.9
1205.77
1212.71
1219.73
1226.84
1234.06
1241.39
1248.85
1256.45
1264.22
1272.16
1280.29
1288.63
1297.18
1305.98
1315.05
1324.39
1334.05
1344.02
1354.33
1365
1376.04
1387.44
1399.21
1411.37
1423.91
1436.81
1450.09
1463.76
1477.78
1492.04
1506.49
1521.04
1535.61
1550.05
1564.28
1578.26
1591.99
1605.2
1617.76
1629.51
1640.26
1649.94
1658.47
1665.79
1671.84
1676.64
1680.14
1682.41
1682.98
1682.11
1679.37
1674.19
1666.75
1656.74
1643.86
1627.79
1608.3
1584.98
1558.09
1527.22
1492.73
1455.57
1415.69
1373.93
1331.7
1289.92
1249.06
1209.59
1172.03
1136.67
1103.43
1072.26
1042.88
1015.32
989.428
965.247
942.789
922.082
903.042
885.948
870.885
857.991
848.095
840.779
836.2
835.978
837.02
840.529
845.878
855.275
863.65
877.779
888.799
907.576
920.75
944.583
959.675
993.573
12447.8
3314.95
1576.57
1093.27
887.912
775.515
699.73
642.649
595.848
555.77
521.086
491.276
465.984
444.807
427.284
412.95
401.389
392.207
385.059
379.768
376.425
375.088
375.807
378.836
384.862
394.423
408.473
428.509
456.894
497.129
553.726
631.623
738.552
892.262
1121.85
1430.05
1613.88
1646.52
1567.5
1414.13
1296.59
1225.44
1168.16
1115.92
1070.16
1033.68
1006.48
987.031
973.686
965.431
961.506
960.425
961.549
964.78
969.655
975.783
982.841
990.566
998.751
1007.23
1015.87
1024.57
1033.26
1041.88
1050.38
1058.75
1066.97
1075.03
1082.94
1090.7
1098.34
1105.86
1113.29
1120.64
1127.94
1135.2
1142.44
1149.68
1156.94
1164.23
1171.57
1178.98
1186.46
1194.03
1201.71
1209.51
1217.45
1225.54
1233.78
1242.22
1250.85
1259.7
1268.78
1278.09
1287.66
1297.5
1307.62
1318.04
1328.78
1339.86
1351.29
1363.05
1375.15
1387.58
1400.35
1413.46
1426.89
1440.58
1454.51
1468.6
1482.75
1496.9
1511.02
1525.08
1538.92
1552.4
1565.38
1577.69
1589.2
1599.84
1609.57
1618.37
1626.21
1633.02
1638.71
1643.26
1646.57
1648.69
1649.42
1648.77
1646.51
1641.9
1635.15
1625.9
1613.83
1598.46
1579.51
1556.35
1528.91
1496.56
1459.72
1418.05
1372.31
1323.82
1274.29
1225.74
1178.93
1133.74
1089.98
1047.78
1007.4
969.107
933.048
899.47
868.411
840.031
814.363
791.301
770.973
753.128
737.618
724.673
713.8
705.425
699.424
695.96
695.93
697.508
701.397
709.826
719.477
735.713
751.55
774.548
793.997
820.92
840.359
869.843
886.28
919.93
12573.3
2964.6
1491.94
1068.21
880.202
776.08
706.927
651.977
604.249
562.071
525.364
494.11
468
446.486
428.937
414.749
403.394
394.459
387.636
382.665
379.501
378.271
379.027
382.398
388.918
399.271
414.448
435.971
466.049
507.693
564.994
644.481
758.441
930.123
1185.48
1424.13
1515.13
1500.43
1394.74
1271.4
1186.82
1130.02
1082.57
1040.22
1003.89
975.056
953.659
938.63
928.795
923.594
921.791
922.285
925.1
929.786
935.948
943.248
951.399
960.164
969.35
978.798
988.382
998.002
1007.58
1017.06
1026.4
1035.57
1044.56
1053.36
1061.98
1070.42
1078.71
1086.87
1094.91
1102.86
1110.73
1118.56
1126.37
1134.18
1142.01
1149.87
1157.8
1165.8
1173.89
1182.09
1190.42
1198.9
1207.54
1216.35
1225.35
1234.55
1243.98
1253.64
1263.55
1273.7
1284.11
1294.79
1305.75
1316.99
1328.52
1340.34
1352.45
1364.84
1377.48
1390.37
1403.47
1416.74
1430.16
1443.7
1457.33
1470.94
1484.43
1497.71
1510.67
1523.22
1535.27
1546.76
1557.61
1567.69
1576.91
1585.22
1592.61
1599.11
1604.73
1609.35
1612.92
1615.26
1616.36
1616.03
1614.33
1610.49
1604.56
1596.33
1585.45
1571.43
1553.98
1532.32
1506.22
1474.72
1437.84
1395
1346.44
1293.67
1239.53
1184.86
1130.43
1076.53
1023.13
970.533
919.235
870.007
823.593
780.614
741.579
706.767
676.238
649.82
627.461
608.636
593.231
580.882
571.1
564.061
559.179
556.175
556.016
557.022
559.89
565.969
573.07
584.238
596.023
614.302
632.112
658.439
682.639
717.555
745.691
785.239
809.492
848.328
12693
2844.22
1469.38
1066.87
897.074
802.585
734.18
676.337
624.767
579.033
539.483
506.095
478.386
455.691
437.327
422.638
411.037
402.057
395.354
390.698
388.199
387.441
388.674
392.808
400.384
412.187
429.283
453.085
485.449
529.103
589.011
675.556
807.453
1011.51
1261.39
1384.68
1404.68
1355.68
1255.94
1165.07
1102.38
1056.14
1016.92
982.466
953.221
929.977
912.737
900.832
893.565
890.294
889.735
891.55
895.491
901.16
908.208
916.335
925.282
934.831
944.798
955.032
965.407
975.821
986.195
996.465
1006.59
1016.53
1026.27
1035.81
1045.15
1054.29
1063.27
1072.09
1080.78
1089.36
1097.86
1106.3
1114.72
1123.13
1131.56
1140.03
1148.57
1157.19
1165.92
1174.76
1183.74
1192.88
1202.19
1211.68
1221.35
1231.23
1241.32
1251.63
1262.15
1272.89
1283.86
1295.05
1306.47
1318.12
1329.99
1342.08
1354.35
1366.79
1379.37
1392.08
1404.88
1417.73
1430.6
1443.42
1456.15
1468.73
1481.04
1493.01
1504.54
1515.53
1525.94
1535.71
1544.81
1553.14
1560.63
1567.22
1572.9
1577.65
1581.46
1584.16
1585.78
1585.87
1584.79
1581.87
1576.87
1569.81
1560.37
1548.13
1532.73
1513.51
1490.07
1461.37
1426.95
1385.92
1337.77
1284.01
1226.59
1166.93
1105.91
1042.93
978.307
913.182
848.933
787.348
729.816
677.526
631.168
590.813
556.452
527.478
503.33
483.335
467.114
454.137
443.984
436.599
431.445
428.338
427.884
428.575
430.75
435.5
441.415
450.086
459.542
472.776
486.154
505.228
523.502
549.915
573.996
610.012
640.125
685.691
718.857
768.533
12799.6
2820
1471.99
1094.17
933.942
842.967
774.429
714.18
659.097
609.56
566.358
529.637
499.005
473.89
453.664
437.645
425.205
415.816
409.081
405.027
403.325
403.171
405.778
411.495
420.763
434.348
453.342
479.231
514.411
563.23
633.586
738.899
896.974
1102.04
1251.12
1302.18
1293.1
1230.81
1151.38
1085.69
1037.46
999.381
966.813
938.489
914.569
895.47
881.245
871.531
865.929
863.759
864.085
866.746
871.38
877.65
885.252
893.916
903.406
913.518
924.078
934.937
945.97
957.072
968.156
979.153
990.015
1000.7
1011.19
1021.47
1031.54
1041.41
1051.1
1060.63
1070.02
1079.28
1088.46
1097.56
1106.63
1115.69
1124.77
1133.89
1143.06
1152.32
1161.68
1171.16
1180.75
1190.48
1200.35
1210.37
1220.54
1230.87
1241.37
1252.04
1262.88
1273.89
1285.06
1296.41
1307.91
1319.57
1331.38
1343.33
1355.39
1367.53
1379.74
1391.99
1404.23
1416.42
1428.53
1440.51
1452.32
1463.91
1475.18
1486.04
1496.43
1506.22
1515.35
1523.8
1531.51
1538.4
1544.4
1549.45
1553.49
1556.48
1558.4
1559.06
1558.51
1556.57
1552.54
1546.73
1538.85
1528.55
1515.45
1499.07
1478.84
1454
1423.53
1386.53
1341.55
1289.36
1231.09
1168.64
1102.3
1031.28
956.391
879.297
802.595
729.163
661.308
601.015
548.931
504.977
468.386
437.786
412.385
390.861
372.578
357.471
345.154
335.611
328.385
323.555
320.796
320.714
321.712
324.492
328.998
335.473
342.85
352.729
363.151
377.11
391.169
410.465
429.028
455.076
478.444
513.111
541.701
586.892
619.935
676.185
12891.3
2815.24
1498.98
1136.53
984.961
898.402
830.509
768.797
711.142
658.315
611.37
570.623
535.762
506.566
482.909
464.221
449.859
439.256
431.911
428.003
426.528
426.719
430.695
438.04
449.26
465.334
487.705
518.676
562.207
624.585
714.888
842.551
1002.92
1145.01
1209.41
1217.41
1190.06
1134.31
1075.73
1027.24
988.878
957.114
929.754
906.093
886.154
870.137
858.111
849.912
845.27
843.658
844.534
847.615
852.592
859.166
867.065
876.044
885.886
896.397
907.409
918.774
930.366
942.073
953.801
965.476
977.041
988.456
999.686
1010.71
1021.53
1032.15
1042.6
1052.87
1063.01
1073.01
1082.91
1092.74
1102.51
1112.25
1121.98
1131.75
1141.56
1151.42
1161.34
1171.32
1181.37
1191.5
1201.73
1212.06
1222.5
1233.05
1243.73
1254.54
1265.47
1276.51
1287.66
1298.92
1310.29
1321.76
1333.34
1345
1356.73
1368.51
1380.3
1392.09
1403.85
1415.52
1427.07
1438.45
1449.61
1460.4
1470.73
1480.54
1489.8
1498.49
1506.41
1513.53
1519.79
1525.12
1529.48
1532.82
1535.01
1536.13
1536
1534.81
1531.95
1527.31
1520.9
1512.5
1501.72
1488.14
1471.18
1450.31
1424.35
1392.49
1352.58
1304.39
1247.96
1185.03
1115.77
1039.21
956.113
868.579
780.305
695.374
617.712
550.115
493.247
446.735
408.534
376.582
349.257
325.564
305.876
289.177
275.474
265.242
257.217
251.801
248.556
246.934
247.048
248.037
250.384
254.26
258.862
265.327
272.285
281.489
290.759
303.339
315.692
332.935
349.638
373.698
395.883
428.863
456.134
498.875
529.99
584.135
12949.5
2826.76
1538.15
1191.6
1049.07
968.26
903.531
843.724
787.025
733.774
684.963
641.198
601.76
566.638
537.174
513.496
495.261
482.085
473.222
468.777
467.162
467.985
474.018
484.189
499.608
521.78
552.78
595.782
654.952
734.866
837.837
957.003
1068.96
1128.48
1146.38
1141.34
1110.3
1066.91
1023.74
986.327
954.868
928.001
904.732
884.673
867.786
854.15
843.806
836.688
832.631
831.332
832.374
835.52
840.591
847.257
855.277
864.425
874.497
885.304
896.679
908.479
920.569
932.824
945.143
957.443
969.668
981.772
993.721
1005.49
1017.06
1028.44
1039.65
1050.71
1061.61
1072.37
1083.01
1093.52
1103.94
1114.3
1124.63
1134.94
1145.25
1155.57
1165.9
1176.24
1186.62
1197.03
1207.49
1217.99
1228.56
1239.18
1249.89
1260.68
1271.55
1282.51
1293.53
1304.63
1315.81
1327.07
1338.39
1349.78
1361.21
1372.65
1384.08
1395.46
1406.74
1417.88
1428.83
1439.52
1449.89
1459.9
1469.43
1478.36
1486.4
1493.51
1499.88
1505.39
1509.93
1513.44
1515.99
1517.5
1517.77
1517.16
1515.31
1511.8
1506.8
1500.07
1491.33
1480.3
1466.41
1449.09
1427.51
1400.73
1366.83
1324.45
1272.44
1211.55
1142.23
1063.11
974.658
879.051
780.357
684.242
596.469
521.107
459.284
410.024
369.933
336.325
307.224
282.824
262.551
245.965
232.996
223.722
217.355
213.475
210.886
209.836
209.938
210.575
212.043
214.321
216.936
220.537
224.251
229.334
234.324
241.362
247.984
257.639
266.545
279.979
292.385
311.899
329.594
358.134
382.823
422.554
452.129
502.408
12972.1
2841.91
1584.89
1254.49
1122.25
1050.44
993.358
940.817
891.184
843.952
799.121
757.762
717.121
677.056
640.779
610.089
585.595
567.712
556.22
550.715
548.963
551.656
561.814
577.6
600.606
631.713
672.553
724.553
788.474
862.973
942.529
1016.36
1066.44
1087.09
1090.53
1080.28
1055.33
1024.09
992.873
964.058
938.328
915.679
895.86
878.686
864.116
852.213
843.025
836.553
832.739
831.46
832.349
835.232
840.132
846.673
854.635
863.806
873.986
884.988
896.632
908.753
921.194
933.825
946.554
959.305
972.023
984.664
997.189
1009.57
1021.79
1033.83
1045.71
1057.44
1069.03
1080.46
1091.75
1102.91
1113.95
1124.89
1135.74
1146.51
1157.21
1167.86
1178.46
1189.02
1199.55
1210.07
1220.59
1231.11
1241.64
1252.2
1262.81
1273.47
1284.19
1294.96
1305.79
1316.67
1327.61
1338.59
1349.62
1360.68
1371.74
1382.78
1393.74
1404.58
1415.25
1425.67
1435.78
1445.51
1454.78
1463.52
1471.63
1479
1485.62
1491.27
1495.72
1499.26
1501.9
1503.53
1504.38
1504.13
1503.02
1500.57
1496.75
1491.48
1484.55
1475.62
1464.31
1450.15
1432.35
1409.97
1381.99
1346.08
1300.52
1244.25
1177.54
1098.89
1008.13
907.235
799.983
693.247
594.605
510.352
442.339
389.401
347.005
311.438
280.911
255.997
235.238
219.102
207.832
200.138
195.42
192.471
191.081
191.169
191.782
193.238
195.196
197.642
200.216
203.313
206.247
209.765
213.04
217.237
220.802
226.086
230.478
237.311
242.793
252.236
259.872
273.949
285.421
307.18
325.319
359.031
385.683
431.571
12950.8
2843.95
1613.4
1306.21
1193.33
1138.73
1098.98
1062.4
1027.4
994.166
962.62
933.436
901.979
865.737
829.679
796.417
767.157
742.629
723.875
712.292
707.187
706.154
713.125
727.994
749.935
779.228
815.579
858.337
905.946
955.647
1003.36
1044.57
1068.01
1075.31
1075.12
1064.43
1045.62
1021.93
995.608
969.473
945.317
923.936
905.392
889.439
875.923
864.913
856.432
850.473
847.027
846.076
847.154
850.225
855.336
862.095
870.285
879.703
890.173
901.512
913.524
926.01
938.804
951.748
964.801
977.914
991.036
1004.13
1017.18
1030.12
1042.91
1055.54
1068.01
1080.32
1092.46
1104.41
1116.16
1127.71
1139.09
1150.29
1161.34
1172.25
1183.04
1193.71
1204.27
1214.73
1225.11
1235.43
1245.71
1255.96
1266.2
1276.44
1286.7
1297
1307.34
1317.71
1328.11
1338.53
1348.98
1359.44
1369.9
1380.32
1390.69
1400.94
1411.02
1420.88
1430.44
1439.63
1448.38
1456.59
1464.21
1471.16
1477.38
1482.77
1487.32
1491.01
1493.94
1495.73
1496.54
1496.43
1495.63
1493.76
1491.03
1486.99
1481.46
1474.24
1465.06
1453.37
1438.65
1420.09
1396.57
1366.52
1328.29
1278.76
1216.93
1141.2
1050.58
946.767
833.033
716.586
606.725
512.321
436.859
379.335
334.271
296.63
264.574
238.607
217.418
202.005
191.509
184.921
181.123
178.996
178.999
179.634
181.205
183.664
186.295
189.167
192.212
195.746
199.348
203.449
207.584
212.197
216.434
221.221
224.994
229.756
233.095
238.048
241.4
247.053
250.905
258.785
264.899
278.188
289.388
313.292
332.811
372.138
12871.7
2828.41
1617.77
1328.92
1240.45
1208.87
1194.3
1183.55
1172.48
1161.3
1150.79
1141.35
1133.67
1121.86
1104.99
1085.96
1066.44
1047.48
1029.97
1014.6
1002.06
993.446
989.505
988.468
992.17
1002.05
1016.39
1035.44
1057.14
1079.26
1098.91
1110.12
1113.67
1114.37
1109.32
1096.98
1078.94
1057.53
1034.75
1011.71
989.472
969.192
951.534
936.585
924.108
914.028
906.259
900.692
897.44
896.913
898.316
901.753
907.173
914.168
922.482
931.903
942.373
953.768
965.827
978.211
990.689
1003.25
1015.96
1028.8
1041.69
1054.63
1067.54
1080.35
1093.02
1105.52
1117.84
1129.97
1141.88
1153.55
1164.96
1176.12
1187.03
1197.71
1208.19
1218.51
1228.66
1238.67
1248.53
1258.27
1267.9
1277.45
1286.94
1296.39
1305.81
1315.22
1324.63
1334.07
1343.52
1352.98
1362.44
1371.88
1381.29
1390.65
1399.94
1409.12
1418.15
1426.96
1435.5
1443.7
1451.49
1458.81
1465.58
1471.74
1477.24
1482.04
1486.1
1489.38
1491.89
1493.59
1494.59
1494.87
1494.55
1493.52
1491.32
1488
1483.45
1477.56
1469.9
1460.2
1447.97
1432.43
1412.72
1387.59
1354.95
1313.06
1259.07
1189.2
1101.2
996.551
878.457
753.729
632.952
527.312
443.22
379.675
331.404
291.268
257.115
229.166
207.061
191.363
180.744
174.573
171.083
169.727
170.096
171.21
173.784
176.36
179.566
183.119
187.322
192.109
197.478
203.466
209.707
216.529
223.364
230.311
236.697
242.944
247.694
252.091
254.364
256.242
256.862
258.203
259.083
261.805
264.659
270.784
276.22
288.606
300.69
327.144
12818.8
2816.69
1607.72
1328.95
1255.55
1242.4
1251.21
1267.4
1283.11
1297.68
1312.03
1327.36
1343.81
1361.73
1376.86
1388.4
1396.86
1403.19
1407.42
1409.35
1409.8
1408.62
1405.49
1400.41
1393.55
1385.35
1375.25
1363.42
1350.53
1337.5
1324.28
1307.96
1291.3
1275.44
1257.28
1236.37
1213.36
1189.38
1165.55
1141.82
1118.65
1096.84
1077.12
1060.05
1045.88
1034.36
1025.28
1018.47
1014.04
1012.37
1012.86
1015.02
1019.29
1024.94
1031.57
1038.85
1047.21
1056.85
1067.22
1077.96
1088.76
1099.55
1110.59
1121.84
1133.11
1144.29
1155.39
1166.4
1177.31
1188.08
1198.7
1209.13
1219.33
1229.3
1239.02
1248.51
1257.79
1266.86
1275.76
1284.51
1293.1
1301.54
1309.85
1318.04
1326.14
1334.17
1342.15
1350.09
1358.02