/*--------------------------------*- C++ -*----------------------------------*\
| =========                 |                                                 |
| \\      /  F ield         | OpenFOAM: The Open Source CFD Toolbox           |
|  \\    /   O peration     | Version:  2112                                  |
|   \\  /    A nd           | Website:  www.openfoam.com                      |
|    \\/     M anipulation  |                                                 |
\*---------------------------------------------------------------------------*/
FoamFile
{
    version     2.0;
    format      ascii;
    arch        "LSB;label=32;scalar=64";
    class       volSymmTensorField;
    location    "0.09";
    object      turbulenceProperties:R;
}
// * * * * * * * * * * * * * * * * * * * * * * * * * * * * * * * * * * * * * //

dimensions      [0 2 -2 0 0 0 0];

internalField   nonuniform List<symmTensor> 
12885
(
(0.752253 -0.340818 -0 0.715803 -0 0.733908)
(0.31471 -0.145877 -0 0.312688 -0 0.313769)
(0.254224 -0.118104 -0 0.253739 -0 0.254002)
(0.252817 -0.117504 -0 0.252569 -0 0.252707)
(0.252582 -0.117415 -0 0.252424 -0 0.252513)
(0.252636 -0.117447 -0 0.252505 -0 0.252579)
(0.252656 -0.117456 -0 0.252528 -0 0.2526)
(0.25259 -0.117427 -0 0.252469 -0 0.252537)
(0.252661 -0.117456 -0 0.252522 -0 0.2526)
(0.252413 -0.11735 -0 0.252313 -0 0.252371)
(0.252686 -0.117485 -0 0.252627 -0 0.252657)
(0.252868 -0.117507 -0 0.252524 -0 0.252718)
(0.252052 -0.117129 -0 0.251711 -0 0.251911)
(0.253308 -0.117776 -0 0.253252 -0 0.253287)
(0.253367 -0.117799 -0 0.253294 -0 0.253334)
(0.253482 -0.117859 -0 0.253435 -0 0.253461)
(0.253654 -0.117932 -0 0.253575 -0 0.253619)
(0.253837 -0.118013 -0 0.253744 -0 0.253795)
(0.254024 -0.118106 -0 0.253957 -0 0.253993)
(0.254248 -0.118213 -0 0.254192 -0 0.254223)
(0.254523 -0.118338 -0 0.254457 -0 0.254494)
(0.25484 -0.118489 -0 0.254786 -0 0.254817)
(0.255205 -0.118672 -0 0.255211 -0 0.255208)
(0.255653 -0.1189 -0 0.25575 -0 0.255696)
(0.256295 -0.119187 -0 0.256343 -0 0.256312)
(0.257189 -0.119595 -0 0.257193 -0 0.257198)
(0.258171 -0.120085 -0 0.258334 -0 0.258237)
(0.259659 -0.120808 -0 0.259972 -0 0.259777)
(0.267853 -0.124507 -0 0.267667 -0 0.267749)
(0.267135 -0.124042 -0 0.266314 -0 0.266825)
(0.267294 -0.123308 -0 0.263277 -0 0.265071)
(0.134502 -0.00426199 -0 0.134341 -0 0.134406)
(0.00314538 -1.84738e-05 -0 0.0031452 -0 0.00314531)
(0.00165492 -2.97198e-07 -0 0.00165492 -0 0.00165492)
(4.48855e-05 -6.19146e-08 -0 4.48853e-05 -0 4.48854e-05)
(9.27135e-08 -2.07691e-15 -0 9.27135e-08 -0 9.27135e-08)
(1.17145e-08 -1.25612e-17 -0 1.17145e-08 -0 1.17145e-08)
(3.89004e-10 -1.34479e-20 -0 3.89004e-10 -0 3.89004e-10)
(4.02296e-11 -9.47653e-23 -0 4.02296e-11 -0 4.02296e-11)
(8.25768e-13 -3.60784e-26 -0 8.25768e-13 -0 8.25768e-13)
(0.651955 -0.293316 -0 0.612733 -0 0.631898)
(0.309887 -0.142829 -0 0.30456 -0 0.307191)
(0.25469 -0.118046 -0 0.253068 -0 0.253848)
(0.253139 -0.117498 -0 0.252244 -0 0.252677)
(0.252794 -0.117412 -0 0.252211 -0 0.252495)
(0.25281 -0.117443 -0 0.252327 -0 0.252563)
(0.252825 -0.117453 -0 0.252354 -0 0.252585)
(0.252753 -0.117424 -0 0.2523 -0 0.252524)
(0.252846 -0.117453 -0 0.252333 -0 0.252584)
(0.252546 -0.117347 -0 0.252172 -0 0.252361)
(0.2528 -0.117484 -0 0.252512 -0 0.25265)
(0.25341 -0.117498 -0 0.251947 -0 0.252711)
(0.251091 -0.116467 -0 0.249863 -0 0.250458)
(0.253299 -0.117762 -0 0.253208 -0 0.253245)
(0.25348 -0.117803 -0 0.253178 -0 0.253362)
(0.253553 -0.117857 -0 0.253359 -0 0.253456)
(0.253766 -0.11793 -0 0.25346 -0 0.253613)
(0.253955 -0.118012 -0 0.253635 -0 0.25378)
(0.254114 -0.118106 -0 0.253881 -0 0.253977)
(0.254329 -0.118213 -0 0.25412 -0 0.254217)
(0.254621 -0.118339 -0 0.254367 -0 0.254492)
(0.254923 -0.11849 -0 0.254711 -0 0.254815)
(0.255213 -0.118672 -0 0.255205 -0 0.255207)
(0.255556 -0.118899 -0 0.255829 -0 0.255703)
(0.256249 -0.119178 -0 0.256353 -0 0.256289)
(0.257259 -0.119617 -0 0.257207 -0 0.257254)
(0.258145 -0.12007 -0 0.258263 -0 0.258236)
(0.260096 -0.120912 -0 0.25989 -0 0.260095)
(0.271717 -0.12596 -0 0.270019 -0 0.270924)
(0.269515 -0.124826 -0 0.267414 -0 0.268431)
(0.270937 -0.124658 -0 0.265536 -0 0.267962)
(0.0200077 -0.000209266 -0 0.0199975 -0 0.0200025)
(0.000757004 -4.17844e-06 -0 0.000756902 -0 0.000756964)
(0.000437462 -1.54803e-06 -0 0.000437435 -0 0.000437448)
(6.66676e-16 -2.0991e-18 -0 6.66658e-16 -0 6.66666e-16)
(2.37091e-08 -3.12966e-14 -0 2.37091e-08 -0 2.37091e-08)
(2.94094e-09 -1.79038e-13 -0 2.94094e-09 -0 2.94094e-09)
(9.5981e-11 -1.9815e-13 -0 9.59825e-11 -0 9.59817e-11)
(3.95658e-12 -1.47862e-24 -0 3.95658e-12 -0 3.95658e-12)
(2.30554e-13 -3.34615e-27 9.91616e-48 2.30554e-13 -0 2.30554e-13)
(0.498733 -0.222805 -0 0.462688 -0 0.480723)
(0.293811 -0.134559 -0 0.285147 -0 0.289616)
(0.255414 -0.117918 -0 0.251852 -0 0.253583)
(0.253763 -0.117506 -0 0.251681 -0 0.252691)
(0.253236 -0.117426 -0 0.251845 -0 0.25252)
(0.253179 -0.117457 -0 0.252029 -0 0.252589)
(0.253183 -0.117468 -0 0.252068 -0 0.252617)
(0.253095 -0.11744 -0 0.25203 -0 0.25256)
(0.253227 -0.11747 -0 0.252031 -0 0.252623)
(0.252839 -0.117365 -0 0.251956 -0 0.252404)
(0.253203 -0.117513 -0 0.252195 -0 0.252755)
(0.254315 -0.117439 -0 0.250889 -0 0.252549)
(0.246531 -0.113998 -0 0.24383 -0 0.24516)
(0.253047 -0.117668 -0 0.253054 -0 0.253045)
(0.253603 -0.117874 -0 0.253454 -0 0.25342)
(0.253744 -0.117901 -0 0.253396 -0 0.253515)
(0.254101 -0.117978 -0 0.253303 -0 0.253748)
(0.254346 -0.118068 -0 0.25341 -0 0.253981)
(0.254469 -0.118172 -0 0.253763 -0 0.254174)
(0.254674 -0.118293 -0 0.254088 -0 0.254421)
(0.255003 -0.118434 -0 0.254382 -0 0.25471)
(0.255321 -0.118603 -0 0.254794 -0 0.255066)
(0.255557 -0.118805 -0 0.25544 -0 0.255489)
(0.255788 -0.119061 -0 0.256346 -0 0.256006)
(0.256681 -0.119354 -0 0.256675 -0 0.25667)
(0.258582 -0.120136 -0 0.258028 -0 0.258465)
(0.259596 -0.120494 -0 0.258606 -0 0.259188)
(0.264959 -0.122639 -0 0.262651 -0 0.263643)
(0.269113 -0.124133 -0 0.26523 -0 0.26662)
(0.273729 -0.126282 -0 0.26908 -0 0.272065)
(0.27549 -0.1274 -0 0.272105 -0 0.274422)
(0.0201044 -0.000109181 -0 0.0201026 -0 0.0201029)
(6.66709e-16 -3.48581e-18 -0 6.66626e-16 -0 6.66665e-16)
(6.66707e-16 -3.48923e-18 -0 6.6663e-16 -0 6.66663e-16)
(6.66693e-16 -3.4792e-18 -0 6.66642e-16 -0 6.66665e-16)
(6.66681e-16 -3.47369e-18 -0 6.66653e-16 -0 6.66666e-16)
(6.66671e-16 -3.46575e-18 -0 6.66662e-16 -0 6.66667e-16)
(6.6666e-16 -3.45875e-18 -0 6.66675e-16 -0 6.66665e-16)
(8.0883e-13 -2.71393e-26 -0 8.0883e-13 -0 8.0883e-13)
(3.46285e-14 -1.11217e-28 -2.15928e-49 3.46285e-14 -0 3.46285e-14)
(0.348965 -0.155157 -0 0.321125 -0 0.334942)
(0.270781 -0.123191 -0 0.259365 -0 0.265493)
(0.256619 -0.117727 -0 0.249942 -0 0.253274)
(0.254981 -0.11752 -0 0.250536 -0 0.252812)
(0.254198 -0.117462 -0 0.251011 -0 0.252682)
(0.253982 -0.117498 -0 0.251381 -0 0.252734)
(0.253924 -0.117515 -0 0.251525 -0 0.25275)
(0.253779 -0.117492 -0 0.25158 -0 0.252686)
(0.253965 -0.117527 -0 0.251554 -0 0.252762)
(0.253445 -0.117428 -0 0.251616 -0 0.252566)
(0.254203 -0.117627 -0 0.251784 -0 0.252937)
(0.253285 -0.116398 -0 0.247681 -0 0.25021)
(0.206018 -0.0119883 -0 0.205523 -0 0.205781)
(0.250632 -0.11625 -0 0.249229 -0 0.250153)
(0.2546 -0.118258 -0 0.253956 -0 0.254401)
(0.254406 -0.118072 -0 0.253457 -0 0.2539)
(0.254649 -0.118141 -0 0.253583 -0 0.253974)
(0.254769 -0.118258 -0 0.253981 -0 0.254208)
(0.255001 -0.118395 -0 0.254328 -0 0.254513)
(0.255381 -0.118558 -0 0.254598 -0 0.254915)
(0.255898 -0.118749 -0 0.254878 -0 0.255351)
(0.256349 -0.118974 -0 0.255374 -0 0.255857)
(0.256722 -0.11924 -0 0.256119 -0 0.256451)
(0.257396 -0.119672 -0 0.257263 -0 0.257418)
(0.258774 -0.120135 -0 0.257986 -0 0.258308)
(0.267049 -0.123807 -0 0.265324 -0 0.266401)
(0.267586 -0.123702 -0 0.264679 -0 0.265866)
(0.256185 -0.0917974 -0 0.25311 -0 0.254235)
(0.164138 -0.0295151 -0 0.162829 -0 0.163401)
(0.181381 -0.0108947 -0 0.180815 -0 0.181073)
(0.275725 -0.112742 -0 0.273325 -0 0.275046)
(0.0232897 -0.000121605 -0 0.0232898 -0 0.0232903)
(6.66682e-16 -3.49652e-18 -0 6.66649e-16 -0 6.66669e-16)
(6.6669e-16 -3.4994e-18 -0 6.66643e-16 -0 6.66667e-16)
(6.66688e-16 -3.49913e-18 -0 6.66645e-16 -0 6.66667e-16)
(6.66684e-16 -3.49817e-18 -0 6.66649e-16 -0 6.66667e-16)
(6.6668e-16 -3.48707e-18 -0 6.66654e-16 -0 6.66666e-16)
(1.54755e-15 -8.06303e-18 -0 1.5475e-15 -0 1.54752e-15)
(7.72809e-15 -1.94944e-29 -0 7.72809e-15 -0 7.72809e-15)
(9.82462e-16 -3.22319e-31 -0 9.82462e-16 -0 9.82462e-16)
(0.275139 -0.123722 -0 0.258514 -0 0.266359)
(0.261496 -0.118809 -0 0.249651 -0 0.256328)
(0.25789 -0.117641 -0 0.248594 -0 0.25308)
(0.256853 -0.117559 -0 0.249201 -0 0.252794)
(0.256133 -0.117554 -0 0.249726 -0 0.252837)
(0.255769 -0.117592 -0 0.250145 -0 0.252962)
(0.255641 -0.117641 -0 0.250436 -0 0.25308)
(0.25536 -0.117634 -0 0.250666 -0 0.253057)
(0.255553 -0.117703 -0 0.250805 -0 0.253168)
(0.255245 -0.117773 -0 0.25125 -0 0.253439)
(0.257171 -0.118374 -0 0.252191 -0 0.254512)
(0.177225 -0.00481394 -0 0.176965 -0 0.177085)
(0.0190348 -1.87643e-05 -0 0.0190339 -0 0.0190344)
(0.163656 -0.0035449 -0 0.16349 -0 0.16357)
(0.248861 -0.095077 -0 0.245297 -0 0.247016)
(0.257179 -0.118711 -0 0.253508 -0 0.255283)
(0.256323 -0.118612 -0 0.253724 -0 0.25524)
(0.255907 -0.118658 -0 0.254254 -0 0.255398)
(0.256169 -0.118756 -0 0.25456 -0 0.255454)
(0.256626 -0.118932 -0 0.254882 -0 0.255813)
(0.257212 -0.119142 -0 0.255249 -0 0.256222)
(0.25766 -0.119369 -0 0.255699 -0 0.256787)
(0.25869 -0.119801 -0 0.25654 -0 0.25771)
(0.264167 -0.122168 -0 0.26146 -0 0.262603)
(0.269731 -0.124758 -0 0.266896 -0 0.268317)
(0.243217 -0.106659 -0 0.240267 -0 0.241792)
(0.260659 -0.0986797 -0 0.257538 -0 0.258872)
(0.0339008 -0.000907906 -0 0.0338714 -0 0.033886)
(0.199931 -0.0327587 -0 0.199045 -0 0.199705)
(0.0261144 -0.00217596 -0 0.0260562 -0 0.0260825)
(0.0707193 -0.00160941 -0 0.070673 -0 0.0706903)
(0.00413734 -2.12254e-05 -0 0.00413682 -0 0.00413717)
(0.00243743 -1.24686e-05 -0 0.00243713 -0 0.00243728)
(6.66708e-16 -3.40276e-18 -0 6.66627e-16 -0 6.66665e-16)
(6.66706e-16 -3.40256e-18 -0 6.66628e-16 -0 6.66666e-16)
(6.66702e-16 -3.38869e-18 -0 6.6663e-16 -0 6.66667e-16)
(6.66703e-16 -3.38195e-18 -0 6.6663e-16 -0 6.66667e-16)
(6.66703e-16 -3.37223e-18 -0 6.66629e-16 -0 6.66668e-16)
(6.66667e-16 -6.38099e-32 -0 6.66667e-16 -0 6.66667e-16)
(6.66667e-16 -1.06114e-32 -0 6.66667e-16 -0 6.66667e-16)
(0.237264 -0.116567 -0 0.275366 -0 0.25036)
(0.254806 -0.118073 -0 0.251787 -0 0.255346)
(0.257764 -0.117741 -0 0.249175 -0 0.253189)
(0.257646 -0.117675 -0 0.248851 -0 0.253224)
(0.257516 -0.11768 -0 0.248951 -0 0.253263)
(0.257603 -0.117676 -0 0.249006 -0 0.2531)
(0.257964 -0.117904 -0 0.249602 -0 0.253584)
(0.257509 -0.11782 -0 0.249604 -0 0.253443)
(0.257716 -0.118036 -0 0.25028 -0 0.253908)
(0.262239 -0.120062 -0 0.254536 -0 0.258215)
(0.255422 -0.119923 -0 0.247669 -0 0.251524)
(0.0017917 -8.72827e-08 -0 0.0017917 -0 0.0017917)
(9.8392e-05 -2.74047e-10 -0 9.8392e-05 -0 9.8392e-05)
(0.0021192 -1.32369e-07 -0 0.00211919 -0 0.00211919)
(0.0332463 -3.78785e-05 -0 0.0332442 -0 0.0332453)
(0.168448 -0.00254992 -0 0.168309 -0 0.168375)
(0.248289 -0.0531448 -0 0.245417 -0 0.246791)
(0.257481 -0.134833 -0 0.250294 -0 0.253607)
(0.259674 -0.11937 -0 0.253953 -0 0.256722)
(0.25835 -0.118919 -0 0.2532 -0 0.255851)
(0.25873 -0.119166 -0 0.253848 -0 0.256398)
(0.259236 -0.119306 -0 0.254109 -0 0.25655)
(0.263912 -0.122039 -0 0.258355 -0 0.260818)
(0.229231 -0.0363863 -0 0.227604 -0 0.228319)
(0.08877 -0.0408327 -0 0.0868876 -0 0.0878451)
(0.202976 -0.0934005 -0 0.198818 -0 0.200939)
(0.0026494 -5.84538e-06 -0 0.00264915 -0 0.00264927)
(0.00287015 -8.53354e-07 -0 0.00287012 -0 0.00287013)
(0.0471451 -0.000105446 -0 0.0471415 -0 0.047143)
(0.147864 -0.00341474 -0 0.14775 -0 0.147804)
(0.064756 -0.000240264 -0 0.0647477 -0 0.064752)
(0.0258597 -9.55054e-05 -0 0.0258562 -0 0.025858)
(0.0216575 -8.00359e-05 -0 0.0216544 -0 0.0216559)
(0.00343261 -1.27063e-05 -0 0.0034321 -0 0.00343235)
(0.00266092 -9.85172e-06 -0 0.00266051 -0 0.00266071)
(0.00529293 -1.95996e-05 -0 0.00529214 -0 0.00529254)
(6.66719e-16 -2.46847e-18 -0 6.66615e-16 -0 6.66666e-16)
(6.66718e-16 -2.46859e-18 -0 6.66614e-16 -0 6.66667e-16)
(6.66667e-16 -4.35596e-33 -0 6.66667e-16 -0 6.66667e-16)
(6.66667e-16 -8.60951e-34 -0 6.66667e-16 -0 6.66667e-16)
(0.1613 -0.0637699 -0 0.355034 -0 0.240506)
(0.171229 -0.0837968 -0 0.301834 -0 0.287703)
(0.257724 -0.117803 -0 0.250763 -0 0.252003)
(0.260771 -0.117639 -0 0.247152 -0 0.25238)
(0.259069 -0.117721 -0 0.248255 -0 0.252977)
(0.238403 -0.00296535 -0 0.23822 -0 0.23832)
(0.114465 -0.000102736 -0 0.114459 -0 0.114462)
(0.23829 -0.00425248 -0 0.238014 -0 0.238164)
(0.255747 -0.0497702 -0 0.252489 -0 0.254169)
(0.163895 -0.00567862 -0 0.163529 -0 0.163732)
(0.0230244 -6.85092e-06 -0 0.023024 -0 0.0230243)
(1.76134e-06 -4.32473e-14 -0 1.76134e-06 -0 1.76134e-06)
(2.54119e-07 -5.60276e-16 -0 2.54119e-07 -0 2.54119e-07)
(6.44322e-06 -3.44609e-13 -0 6.44322e-06 -0 6.44322e-06)
(7.96556e-05 -5.54003e-11 -0 7.96556e-05 -0 7.96556e-05)
(0.00110045 -1.11825e-08 -0 0.00110045 -0 0.00110045)
(0.0276828 -8.21613e-06 -0 0.0276824 -0 0.0276826)
(0.0683835 -6.36319e-05 -0 0.0683802 -0 0.0683818)
(0.222349 -0.00497809 -0 0.222061 -0 0.222213)
(0.259436 -0.118795 -0 0.251754 -0 0.255627)
(0.264891 -0.12126 -0 0.256709 -0 0.260785)
(0.266018 -0.126008 -0 0.258218 -0 0.262141)
(0.0546495 -0.00141085 -0 0.0545746 -0 0.0546156)
(0.0711105 -0.000335021 -0 0.0710932 -0 0.0711045)
(0.19796 -0.00654412 -0 0.197627 -0 0.197808)
(0.208339 -0.0957828 -0 0.203717 -0 0.206078)
(0.00149605 -2.62261e-08 -0 0.00149605 -0 0.00149605)
(0.000223568 -7.03088e-10 -0 0.000223568 -0 0.000223568)
(0.00121149 -2.32931e-08 -0 0.00121149 -0 0.00121149)
(0.0924602 -0.000718645 -0 0.0924364 -0 0.0924468)
(0.0732909 -0.000105622 -0 0.0732874 -0 0.0732891)
(0.0520948 -7.42448e-05 -0 0.0520922 -0 0.0520935)
(0.0129232 -1.84875e-05 -0 0.0129225 -0 0.0129229)
(0.0119535 -1.71811e-05 -0 0.0119528 -0 0.0119532)
(0.0464082 -0.000203307 -0 0.0463993 -0 0.0464036)
(0.0982514 -0.000522423 -0 0.0982275 -0 0.0982393)
(0.0196867 -2.86021e-05 -0 0.0196853 -0 0.0196859)
(0.000331808 -4.83798e-07 -0 0.000331785 -0 0.000331797)
(0.00152532 -3.88219e-07 -0 0.0015253 -0 0.00152531)
(0.000311853 -1.80374e-24 -0 0.000311853 -0 0.000311853)
(0.146639 -0.0322423 -0 0.36859 -0 0.239476)
(0.166434 0.0837233 -0 0.316732 -0 0.276149)
(0.243997 0.114658 -0 0.275598 -0 0.240246)
(0.28829 -0.027902 -0 0.242499 -0 0.229117)
(0.254548 -0.00438336 -0 0.25436 -0 0.254778)
(0.00175973 -6.93264e-10 -0 0.00175973 -0 0.00175973)
(0.000153458 -7.27019e-12 -0 0.000153458 -0 0.000153458)
(0.000461987 -3.04483e-10 -0 0.000461987 -0 0.000461987)
(0.0531208 -5.23396e-06 -0 0.0531211 -0 0.053121)
(0.00132274 -1.04954e-09 -0 0.00132274 -0 0.00132274)
(6.12063e-05 -3.27021e-12 -0 6.12063e-05 -0 6.12063e-05)
(5.7586e-09 -2.57393e-20 -0 5.7586e-09 -0 5.7586e-09)
(6.47109e-10 -3.70388e-22 -0 6.47109e-10 -0 6.47109e-10)
(1.81316e-09 -3.33433e-20 -0 1.81316e-09 -0 1.81316e-09)
(2.07264e-07 -6.01155e-17 -0 2.07264e-07 -0 2.07264e-07)
(4.85181e-06 -2.52253e-14 -0 4.85181e-06 -0 4.85181e-06)
(7.06434e-05 -5.32618e-12 -0 7.06434e-05 -0 7.06434e-05)
(0.000236737 -6.45291e-11 -0 0.000236737 -0 0.000236737)
(0.0059758 -4.34035e-08 -0 0.00597579 -0 0.00597579)
(0.120812 -4.73337e-05 -0 0.120811 -0 0.120811)
(0.127436 -0.000228489 -0 0.127436 -0 0.127434)
(0.0284741 -0.000326068 -0 0.0284705 -0 0.0284724)
(0.0217561 -1.35061e-06 -0 0.0217561 -0 0.0217561)
(0.0300239 -2.05136e-06 -0 0.0300239 -0 0.0300239)
(4.55323e-05 -3.6914e-12 -0 4.55323e-05 -0 4.55323e-05)
(0.00860242 -1.44058e-07 -0 0.00860242 -0 0.00860242)
(0.00175538 -5.8332e-09 -0 0.00175539 -0 0.00175538)
(0.00212623 -1.00014e-08 -0 0.00212623 -0 0.00212623)
(0.174884 -0.0829256 -0 0.181385 -0 0.179189)
(0.165284 -0.000967667 -0 0.165423 -0 0.165391)
(0.16613 -0.000212592 -0 0.16613 -0 0.166124)
(0.0330404 -6.59121e-06 -0 0.0330405 -0 0.0330403)
(0.041708 -8.37688e-06 -0 0.0417082 -0 0.041708)
(0.0627283 -1.27017e-05 -0 0.0627284 -0 0.0627283)
(0.0302587 -3.15311e-06 -0 0.0302588 -0 0.0302587)
(0.0432362 -1.34375e-05 -0 0.0432361 -0 0.0432361)
(0.0139764 -2.90465e-06 -0 0.0139763 -0 0.0139763)
(0.00349454 -7.34387e-07 -0 0.00349452 -0 0.00349453)
(4.59574e-05 -7.10402e-09 -0 4.59572e-05 -0 4.59573e-05)
(6.66667e-16 -1.77616e-20 -0 6.66666e-16 -0 6.66667e-16)
(0.153774 -0.0448582 -0 0.363992 -0 0.235198)
(0.16533 0.0828216 -0 0.326854 -0 0.270282)
(0.188956 0.100722 -0 0.304048 -0 0.267107)
(0.244764 0.0236533 -0 0.263649 -0 0.2519)
(0.026432 6.24497e-08 -0 0.0264321 -0 0.026432)
(1.27684e-06 1.36205e-16 -0 1.27684e-06 -0 1.27684e-06)
(1.76201e-08 2.11369e-19 -0 1.76201e-08 -0 1.76201e-08)
(7.22636e-05 6.41938e-15 -0 7.22636e-05 -0 7.22636e-05)
(0.00792891 6.69806e-09 -0 0.00792892 -0 0.00792891)
(0.000188042 8.59208e-14 -0 0.000188042 -0 0.000188042)
(9.79403e-08 6.39795e-19 -0 9.79403e-08 -0 9.79403e-08)
(1.30081e-11 1.0877e-26 -0 1.30081e-11 -0 1.30081e-11)
(2.03269e-12 2.8948e-28 -0 2.03269e-12 -0 2.03269e-12)
(7.11413e-11 3.76287e-25 -0 7.11413e-11 -0 7.11413e-11)
(1.02864e-09 8.09637e-23 -0 1.02864e-09 -0 1.02864e-09)
(2.32201e-09 3.42723e-21 -0 2.32201e-09 -0 2.32201e-09)
(2.26258e-07 4.4466e-18 -0 2.26258e-07 -0 2.26258e-07)
(5.51599e-07 1.24125e-17 -0 5.51599e-07 -0 5.51599e-07)
(1.33341e-05 6.46377e-15 -0 1.33341e-05 -0 1.33341e-05)
(9.54806e-05 2.10957e-12 -0 9.54807e-05 -0 9.54806e-05)
(0.0233708 1.51878e-08 -0 0.0233709 -0 0.0233709)
(0.0103414 2.04553e-09 -0 0.0103414 -0 0.0103414)
(0.00231514 8.09936e-11 -0 0.00231514 -0 0.00231514)
(1.01867e-05 1.60229e-15 -0 1.01867e-05 -0 1.01867e-05)
(2.16514e-06 2.99984e-17 -0 2.16514e-06 -0 2.16514e-06)
(8.5156e-07 9.18545e-18 -0 8.5156e-07 -0 8.5156e-07)
(2.02397e-07 1.8614e-19 -0 2.02397e-07 -0 2.02397e-07)
(9.9439e-07 5.69085e-17 -0 9.9439e-07 -0 9.9439e-07)
(0.0325728 0.0158219 -0 0.0482155 -0 0.0362204)
(0.113792 0.0448834 -0 0.193246 -0 0.124005)
(0.122063 2.41467e-07 -0 0.122064 -0 0.122064)
(0.0584961 4.42141e-08 -0 0.0584963 -0 0.0584963)
(0.0139051 8.97743e-09 -0 0.0139051 -0 0.0139051)
(0.00699993 4.28684e-09 -0 0.00699993 -0 0.00699993)
(0.0221686 1.25375e-08 -0 0.0221687 -0 0.0221687)
(0.0134335 5.80023e-09 -0 0.0134335 -0 0.0134335)
(0.0498914 2.73711e-08 -0 0.0498915 -0 0.0498915)
(0.0268932 2.03032e-09 -0 0.0268932 -0 0.0268932)
(0.00629326 -3.41342e-10 -0 0.00629327 -0 0.00629327)
(0.000196972 -4.72797e-11 -0 0.000196972 -0 0.000196972)
(0.219818 -0.0264016 -0 0.29765 -0 0.246784)
(0.111651 9.51574e-05 -0 0.111981 -0 0.111833)
(0.161117 0.000135336 -0 0.161303 -0 0.161235)
(0.00205472 6.05524e-10 -0 0.00205472 -0 0.00205472)
(3.92469e-05 1.5529e-12 -0 3.92469e-05 -0 3.92469e-05)
(5.99593e-10 4.67999e-23 -0 5.99593e-10 -0 5.99593e-10)
(5.10953e-11 6.21706e-25 -0 5.10953e-11 -0 5.10953e-11)
(4.28978e-10 3.34326e-23 -0 4.28978e-10 -0 4.28978e-10)
(4.30576e-10 5.62908e-15 -0 4.3058e-10 -0 4.30578e-10)
(2.08096e-09 6.66505e-22 -0 2.08096e-09 -0 2.08096e-09)
(2.2389e-10 6.97736e-24 -0 2.2389e-10 -0 2.2389e-10)
(2.38755e-09 7.97442e-22 -0 2.38755e-09 -0 2.38755e-09)
(2.41515e-11 8.31902e-26 -0 2.41515e-11 -0 2.41515e-11)
(8.68685e-10 1.10187e-22 -0 8.68685e-10 -0 8.68685e-10)
(1.39781e-08 2.90108e-20 -0 1.39781e-08 -0 1.39781e-08)
(8.49054e-06 1.06608e-14 -0 8.49054e-06 -0 8.49054e-06)
(1.22705e-08 1.96896e-20 -0 1.22705e-08 -0 1.22705e-08)
(8.59241e-10 2.87029e-22 -0 8.59241e-10 -0 8.59241e-10)
(5.08308e-08 5.90107e-19 -0 5.08308e-08 -0 5.08308e-08)
(0.000863573 1.07067e-10 -0 0.000863573 -0 0.000863573)
(0.00112702 1.74521e-10 -0 0.00112702 -0 0.00112702)
(1.30195e-05 2.32432e-14 -0 1.30195e-05 -0 1.30195e-05)
(2.94841e-06 1.11079e-15 -0 2.94841e-06 -0 2.94841e-06)
(3.1222e-08 1.29306e-19 -0 3.1222e-08 -0 3.1222e-08)
(7.23484e-09 5.94677e-21 -0 7.23484e-09 -0 7.23484e-09)
(3.35902e-08 1.49677e-19 -0 3.35902e-08 -0 3.35902e-08)
(6.32307e-06 8.04539e-15 -0 6.32307e-06 -0 6.32307e-06)
(0.156529 0.0813424 -0 0.220183 -0 0.186897)
(0.126907 0.0668761 -0 0.221148 -0 0.182716)
(0.0482211 0.0253151 -0 0.0775493 -0 0.0629761)
(0.0739556 2.98273e-06 -0 0.073957 -0 0.0739558)
(0.0180478 2.18318e-07 -0 0.0180479 -0 0.0180479)
(6.66664e-16 8.15136e-21 -0 6.66669e-16 -0 6.66667e-16)
(6.66664e-16 8.09758e-21 -0 6.66669e-16 -0 6.66667e-16)
(0.00032571 3.92987e-09 -0 0.000325713 -0 0.000325711)
(0.000181116 2.17352e-09 -0 0.000181118 -0 0.000181117)
(0.000617061 7.36597e-09 -0 0.000617066 -0 0.000617063)
(0.00605555 7.19208e-08 -0 0.0060556 -0 0.00605557)
(0.0228252 2.69471e-07 -0 0.0228254 -0 0.0228253)
(0.005287 6.21155e-08 -0 0.00528704 -0 0.00528702)
(0.108858 -4.72711e-07 -0 0.108859 -0 0.108858)
(0.012405 7.40336e-09 -0 0.0124055 -0 0.0124053)
(1.15041e-06 1.36899e-14 -0 1.15041e-06 -0 1.15041e-06)
(1.11082e-08 6.52112e-21 -0 1.11082e-08 -0 1.11082e-08)
(1.39862e-09 1.47092e-22 -0 1.39862e-09 -0 1.39862e-09)
(9.74619e-14 1.45233e-30 -0 9.74619e-14 -0 9.74619e-14)
(4.15502e-12 1.2027e-29 -0 4.15502e-12 -0 4.15502e-12)
(3.24569e-11 5.3622e-28 -0 3.24569e-11 -0 3.24569e-11)
(0.00299993 2.46565e-07 -0 0.00300025 -0 0.00300009)
(1.36959e-10 1.69557e-26 -0 1.36959e-10 -0 1.36959e-10)
(3.87264e-13 1.00893e-29 -0 3.87264e-13 -0 3.87264e-13)
(4.86639e-12 1.55645e-27 -0 4.86639e-12 -0 4.86639e-12)
(7.31375e-11 3.56143e-25 -0 7.31375e-11 -0 7.31375e-11)
(9.73463e-10 6.43216e-23 -0 9.73463e-10 -0 9.73463e-10)
(1.58602e-08 1.74175e-20 -0 1.58602e-08 -0 1.58602e-08)
(5.49874e-09 2.09394e-21 -0 5.49874e-09 -0 5.49874e-09)
(2.03028e-11 2.89848e-26 -0 2.03028e-11 -0 2.03028e-11)
(2.62769e-12 8.45626e-28 -0 2.62769e-12 -0 2.62769e-12)
(3.87999e-08 2.70208e-22 -0 3.87999e-08 -0 3.87999e-08)
(1.58535e-07 2.38582e-18 -0 1.58535e-07 -0 1.58535e-07)
(1.2608e-06 1.22362e-16 -0 1.2608e-06 -0 1.2608e-06)
(3.15633e-08 6.5345e-20 -0 3.15633e-08 -0 3.15633e-08)
(7.63839e-09 4.59578e-21 -0 7.63839e-09 -0 7.63839e-09)
(4.91337e-11 1.44567e-25 -0 4.91337e-11 -0 4.91337e-11)
(1.19745e-11 1.3155e-26 -0 1.19745e-11 -0 1.19745e-11)
(4.82612e-11 2.97779e-25 -0 4.82612e-11 -0 4.82612e-11)
(0.146843 0.0700068 -0 0.241056 -0 0.173006)
(3.65525e-15 7.07599e-34 -0 3.65525e-15 -0 3.65525e-15)
(0.0187968 0.00998341 -0 0.0301159 -0 0.0253505)
(0.0402952 0.0205562 -0 0.0638195 -0 0.0495415)
(0.00712026 1.73108e-07 -0 0.00712049 -0 0.00712037)
(0.0306536 2.19293e-07 -0 0.0306539 -0 0.0306538)
(0.0070862 5.14461e-08 -0 0.00708627 -0 0.00708624)
(6.66664e-16 4.86215e-21 -0 6.6667e-16 -0 6.66667e-16)
(9.49258e-05 6.93973e-10 -0 9.49266e-05 -0 9.49262e-05)
(2.39516e-06 1.75226e-11 -0 2.39518e-06 -0 2.39517e-06)
(6.66664e-16 4.8746e-21 -0 6.6667e-16 -0 6.66667e-16)
(6.66664e-16 4.87354e-21 -0 6.6667e-16 -0 6.66667e-16)
(0.000136836 1.00038e-09 -0 0.000136837 -0 0.000136837)
(6.66667e-16 7.05665e-23 1.82315e-42 6.66667e-16 -0 6.66667e-16)
(0.0938522 -1.41475e-07 -0 0.0938524 -0 0.0938523)
(1.07967e-08 -5.85666e-15 -0 1.07967e-08 -0 1.07967e-08)
(5.38673e-08 1.82676e-20 -0 5.38673e-08 -0 5.38673e-08)
(5.57352e-13 6.1677e-30 -0 5.57352e-13 -0 5.57352e-13)
(2.31859e-13 9.37082e-31 -0 2.31859e-13 -0 2.31859e-13)
(6.66667e-16 6.32915e-37 -0 6.66667e-16 -0 6.66667e-16)
(6.66667e-16 1.51934e-37 -0 6.66667e-16 -0 6.66667e-16)
(6.66667e-16 8.60289e-37 -0 6.66667e-16 -0 6.66667e-16)
(0.0454927 0.0175292 -0 0.105405 -0 0.0734109)
(6.66667e-16 3.76626e-35 -0 6.66667e-16 -0 6.66667e-16)
(6.66667e-16 9.14059e-36 -0 6.66667e-16 -0 6.66667e-16)
(6.07776e-15 7.16419e-34 -0 6.07776e-15 -0 6.07776e-15)
(4.03768e-14 6.75352e-32 -0 4.03768e-14 -0 4.03768e-14)
(4.16757e-13 7.80725e-30 -0 4.16757e-13 -0 4.16757e-13)
(5.30457e-12 1.50855e-27 -0 5.30457e-12 -0 5.30457e-12)
(1.98345e-11 2.65716e-26 -0 1.98345e-11 -0 1.98345e-11)
(2.47882e-15 7.32412e-34 -0 2.47882e-15 -0 2.47882e-15)
(2.30405e-15 1.69711e-34 -0 2.30405e-15 -0 2.30405e-15)
(3.18648e-14 2.70967e-32 -0 3.18648e-14 -0 3.18648e-14)
(2.86652e-09 1.58194e-24 -0 2.86652e-09 -0 2.86652e-09)
(2.09386e-08 2.7005e-22 -0 2.09386e-08 -0 2.09386e-08)
(1.05037e-07 1.0119e-22 -0 1.05037e-07 -0 1.05037e-07)
(2.31879e-12 5.28347e-28 -0 2.31879e-12 -0 2.31879e-12)
(2.1053e-14 1.7457e-32 -0 2.1053e-14 -0 2.1053e-14)
(6.81427e-15 1.20068e-33 -0 6.81427e-15 -0 6.81427e-15)
(2.77173e-14 2.89338e-32 -0 2.77173e-14 -0 2.77173e-14)
(6.66667e-16 1.40883e-36 -0 6.66667e-16 -0 6.66667e-16)
(6.93777e-16 7.17194e-37 -0 6.93777e-16 -0 6.93777e-16)
(6.66667e-16 3.87939e-36 -0 6.66667e-16 -0 6.66667e-16)
(0.119578 0.0273875 -0 0.236848 -0 0.137353)
(4.93711e-14 9.04568e-32 -0 4.93711e-14 -0 4.93711e-14)
(0.0380537 9.93296e-08 -0 0.0380541 -0 0.0380539)
(0.00891941 2.46335e-08 -0 0.00891947 -0 0.00891944)
(0.00525968 2.02226e-08 -0 0.00525971 -0 0.00525969)
(0.0196014 1.20685e-07 -0 0.0196016 -0 0.0196015)
(0.000539866 1.5363e-09 -0 0.000539869 -0 0.000539867)
(0.000127244 3.63991e-10 -0 0.000127245 -0 0.000127244)
(6.66665e-16 1.91617e-21 -0 6.66669e-16 -0 6.66667e-16)
(6.66665e-16 1.9271e-21 -0 6.66669e-16 -0 6.66667e-16)
(6.66665e-16 1.93624e-21 -7.17606e-41 6.66669e-16 -0 6.66667e-16)
(0.0894359 5.89849e-08 -0 0.089436 -0 0.0894359)
(6.66666e-16 1.44226e-22 -0 6.66667e-16 -0 6.66667e-16)
(3.05543e-09 -2.07611e-18 -0 3.05543e-09 -0 3.05543e-09)
(1.6295e-13 -1.9303e-31 -0 1.6295e-13 -0 1.6295e-13)
(6.13866e-15 -9.54524e-34 -0 6.13866e-15 -0 6.13866e-15)
(1.43307e-15 -1.85753e-35 -0 1.43307e-15 -0 1.43307e-15)
(6.66667e-16 -1.9282e-36 -0 6.66667e-16 -0 6.66667e-16)
(6.66667e-16 -1.16043e-35 -0 6.66667e-16 -0 6.66667e-16)
(0.0768408 -0.017099 -0 0.201723 -0 0.139115)
(0.0789437 -0.0136285 -0 0.198649 -0 0.126414)
(1.90607e-14 -2.23727e-33 -0 1.90607e-14 -0 1.90607e-14)
(4.65129e-15 -5.83773e-33 -0 4.65129e-15 -0 4.65129e-15)
(3.77849e-09 -1.17082e-16 -0 3.77849e-09 -0 3.77849e-09)
(1.64194e-08 -1.8917e-21 -0 1.64194e-08 -0 1.64194e-08)
(7.04503e-08 -2.76994e-20 -0 7.04503e-08 -0 7.04503e-08)
(1.52479e-08 -4.08281e-16 -0 1.52479e-08 -0 1.52479e-08)
(1.85261e-11 -1.13524e-25 -0 1.85261e-11 -0 1.85261e-11)
(7.76071e-11 -1.04399e-25 -0 7.76071e-11 -0 7.76071e-11)
(0.000238207 -1.18617e-12 -0 0.000238207 -0 0.000238207)
(5.32144e-05 -2.4047e-19 -0 5.32144e-05 -0 5.32144e-05)
(1.96592e-06 -8.91232e-18 -0 1.96592e-06 -0 1.96592e-06)
(8.02111e-06 -1.64785e-16 -0 8.02111e-06 -0 8.02111e-06)
(5.63066e-11 -6.05346e-26 -0 5.63066e-11 -0 5.63066e-11)
(1.27994e-11 -1.90678e-16 -0 1.28033e-11 -0 1.28014e-11)
(0.028842 -6.69182e-20 -0 0.028842 -0 0.028842)
(0.0717517 -0.00272305 -0 0.171961 -0 0.102733)
(0.0147945 -0.000439803 -0 0.0393212 -0 0.0256058)
(0.00017352 -2.85499e-25 -0 0.00017352 -0 0.00017352)
(5.62924e-05 -1.22211e-11 -0 5.62931e-05 -0 5.62928e-05)
(9.80982e-16 -6.26816e-36 -0 9.80982e-16 -0 9.80982e-16)
(6.66667e-16 -3.69301e-37 -0 6.66667e-16 -0 6.66667e-16)
(0.000206922 -5.38963e-13 -0 0.000206922 -0 0.000206922)
(0.012572 2.77402e-10 -0 0.0125721 -0 0.0125721)
(0.0492034 1.25662e-09 -0 0.0492036 -0 0.0492035)
(0.0116145 5.18667e-11 -0 0.0116145 -0 0.0116145)
(2.06371e-06 4.32349e-14 -0 2.06372e-06 -0 2.06371e-06)
(6.66663e-16 6.422e-23 -0 6.6667e-16 -0 6.66667e-16)
(6.66661e-16 1.25178e-22 -0 6.66672e-16 -0 6.66667e-16)
(6.66645e-16 6.34941e-22 -0 6.66688e-16 -0 6.66667e-16)
(6.66667e-16 5.13968e-37 7.34474e-54 6.66667e-16 -0 6.66667e-16)
(0.0770729 1.96283e-07 -0 0.0770732 -0 0.077073)
(6.66664e-16 4.44699e-22 -0 6.6667e-16 -0 6.66667e-16)
(6.66667e-16 -4.39749e-24 -0 6.66667e-16 -0 6.66667e-16)
(6.66667e-16 -3.5332e-36 -0 6.66667e-16 -0 6.66667e-16)
(6.66667e-16 -7.30623e-38 -0 6.66667e-16 -0 6.66667e-16)
(6.66667e-16 -4.02199e-37 -0 6.66667e-16 -0 6.66667e-16)
(1.50874e-15 -3.78503e-34 -0 1.50874e-15 -0 1.50874e-15)
(0.00115563 -0.000587837 -0 0.00210341 -0 0.00161344)
(0.0233371 -0.0119714 -0 0.0414834 -0 0.0321099)
(0.0275013 -0.0141049 -0 0.0489659 -0 0.0378996)
(0.00726394 -3.7438e-07 -0 0.00726452 -0 0.00726424)
(6.66661e-16 -7.17188e-21 -0 6.66672e-16 -0 6.66667e-16)
(6.66662e-16 -6.02863e-21 -0 6.66671e-16 -0 6.66667e-16)
(5.18534e-10 -5.28686e-16 -0 5.18535e-10 -0 5.18534e-10)
(2.06226e-09 -2.71632e-17 -0 2.06226e-09 -0 2.06226e-09)
(6.66667e-16 -4.25147e-23 -0 6.66667e-16 -0 6.66667e-16)
(6.66664e-16 -4.79664e-21 -0 6.6667e-16 -0 6.66667e-16)
(7.21809e-09 -1.67121e-14 -0 7.21811e-09 -0 7.2181e-09)
(6.91662e-06 -2.06726e-11 -0 6.91664e-06 -0 6.91663e-06)
(7.8212e-06 -6.01656e-14 -0 7.8212e-06 -0 7.8212e-06)
(3.32311e-12 -2.85483e-27 -0 3.32311e-12 -0 3.32311e-12)
(0.0244809 -0.0126812 -0 0.0400261 -0 0.0315575)
(1.17369e-08 -1.52134e-20 -0 1.17369e-08 -0 1.17369e-08)
(2.59812e-09 -7.8065e-15 -0 2.59813e-09 -0 2.59812e-09)
(6.66666e-16 -2.78893e-22 -0 6.66667e-16 -0 6.66667e-16)
(0.00181998 -1.78885e-17 -0 0.00181998 -0 0.00181998)
(0.0017615 -1.08053e-09 -0 0.0017615 -0 0.0017615)
(0.0167827 -5.52369e-08 -0 0.0167828 -0 0.0167828)
(0.00593945 -1.92093e-08 -0 0.00593947 -0 0.00593946)
(0.00135599 -2.08024e-25 -0 0.00135599 -0 0.00135599)
(6.66667e-16 -2.553e-38 -0 6.66667e-16 -0 6.66667e-16)
(6.66667e-16 -6.62423e-41 -0 6.66667e-16 -0 6.66667e-16)
(6.66667e-16 -7.1998e-40 -0 6.66667e-16 -0 6.66667e-16)
(0.000301215 -4.19483e-13 -0 0.000301215 -0 0.000301215)
(1.46575e-05 -8.76643e-14 -0 1.46575e-05 -0 1.46575e-05)
(3.40863e-06 -1.45103e-27 -0 3.40863e-06 -0 3.40863e-06)
(6.66667e-16 -4.41726e-40 -0 6.66667e-16 -0 6.66667e-16)
(6.66667e-16 -7.7805e-43 -0 6.66667e-16 -0 6.66667e-16)
(6.66667e-16 -3.27813e-45 -0 6.66667e-16 -0 6.66667e-16)
(6.66667e-16 -8.40607e-38 -4.21305e-56 6.66667e-16 -0 6.66667e-16)
(0.0633734 3.97875e-07 -0 0.0633742 -0 0.0633737)
(6.66659e-16 -1.06478e-21 -0 6.66674e-16 -0 6.66667e-16)
(6.66667e-16 -7.35403e-24 -0 6.66667e-16 -0 6.66667e-16)
(6.66667e-16 -1.09939e-38 -0 6.66667e-16 -0 6.66667e-16)
(6.66667e-16 -4.24062e-41 -0 6.66667e-16 -0 6.66667e-16)
(6.66667e-16 -1.3236e-40 -0 6.66667e-16 -0 6.66667e-16)
(0.00514811 -0.00263943 -0 0.00708441 -0 0.00594079)
(0.00189518 -0.000981722 -0 0.00260768 -0 0.00223572)
(0.00170426 -0.000883934 -0 0.00232758 -0 0.00201506)
(0.00598871 -0.00310221 -0 0.00811455 -0 0.00705321)