/*--------------------------------*- C++ -*----------------------------------*\
| =========                 |                                                 |
| \\      /  F ield         | OpenFOAM: The Open Source CFD Toolbox           |
|  \\    /   O peration     | Version:  2112                                  |
|   \\  /    A nd           | Website:  www.openfoam.com                      |
|    \\/     M anipulation  |                                                 |
\*---------------------------------------------------------------------------*/
FoamFile
{
    version     2.0;
    format      ascii;
    arch        "LSB;label=32;scalar=64";
    class       volScalarField;
    location    "0.33";
    object      s_0;
}
// * * * * * * * * * * * * * * * * * * * * * * * * * * * * * * * * * * * * * //

dimensions      [0 0 0 0 0 0 0];

internalField   nonuniform List<scalar> 
122250
(
0.999911
0.999831
0.999819
0.99981
0.999791
0.999774
0.999744
0.999722
0.999717
0.999732
0.999752
0.999767
0.999775
0.999777
0.999776
0.999769
0.999735
0.999708
0.999889
0.99984
0.999853
0.999851
0.999792
0.999738
0.999741
0.999698
0.999709
0.99974
0.99977
0.999774
0.999706
0.999698
0.999731
0.99974
0.999713
0.999687
0.999892
0.999845
0.99986
0.99987
0.99981
0.999717
0.999717
0.999707
0.999733
0.999736
0.999748
0.999657
0.999429
0.999375
0.999484
0.999627
0.999636
0.999622
0.999898
0.999848
0.999859
0.999875
0.999861
0.999729
0.999717
0.99975
0.999769
0.999732
0.999631
0.99949
0.999315
0.999233
0.999225
0.999364
0.99948
0.999498
0.999916
0.999853
0.999857
0.999874
0.999884
0.999759
0.999745
0.999775
0.999759
0.999684
0.999488
0.999172
0.999137
0.999243
0.999243
0.99923
0.999286
0.9994
0.999968
0.999859
0.99986
0.999879
0.999893
0.999796
0.999775
0.999768
0.999616
0.99942
0.999154
0.999051
0.99913
0.999447
0.999511
0.999394
0.99936
0.999396
0.999992
0.999877
0.999875
0.999899
0.999907
0.99982
0.999774
0.999679
0.999231
0.999076
0.999037
0.999075
0.999346
0.999562
0.999607
0.999576
0.999461
0.999447
0.999999
0.999896
0.999898
0.999933
0.999934
0.999827
0.999757
0.999462
0.999102
0.999051
0.999133
0.999333
0.999522
0.999565
0.99953
0.999576
0.999589
0.99957
1
0.999942
0.999952
0.999967
0.999962
0.999828
0.999741
0.999485
0.99933
0.999337
0.999392
0.999521
0.999495
0.999189
0.998857
0.998927
0.999298
0.999529
0.999978
0.999964
0.999969
0.999972
0.999964
0.999808
0.99975
0.999689
0.999571
0.999372
0.999335
0.999258
0.998912
0.998239
0.998019
0.99803
0.998169
0.998573
0.999967
0.999803
0.999819
0.999915
0.999946
0.999812
0.999804
0.999716
0.998867
0.998462
0.998438
0.998404
0.998231
0.997978
0.997854
0.997869
0.99805
0.998276
0.999932
0.999702
0.999703
0.99982
0.999919
0.999847
0.99982
0.999571
0.998089
0.997995
0.998006
0.998122
0.998133
0.997978
0.997811
0.997808
0.997991
0.998245
0.999846
0.999689
0.999679
0.999748
0.99986
0.999853
0.9998
0.999102
0.99799
0.997904
0.99788
0.998012
0.998108
0.997997
0.997787
0.99777
0.997919
0.998238
0.999744
0.999704
0.999684
0.999765
0.9998
0.999822
0.999129
0.998393
0.99801
0.997876
0.997816
0.997951
0.998068
0.997979
0.997732
0.997708
0.997871
0.998239
0.999706
0.999732
0.999776
0.999756
0.999769
0.999398
0.998886
0.998989
0.998109
0.997843
0.997753
0.997923
0.997975
0.997763
0.99753
0.997583
0.997851
0.998173
0.999695
0.999613
0.999578
0.999576
0.999556
0.999406
0.99962
0.999457
0.998091
0.997762
0.997674
0.997857
0.997744
0.997268
0.997289
0.997519
0.997856
0.998139
0.999793
0.999842
0.99984
0.999775
0.999795
0.999814
0.999829
0.999657
0.998285
0.997547
0.997361
0.997512
0.997287
0.99703
0.997238
0.997631
0.997917
0.998189
0.999915
0.999943
0.999949
0.999925
0.999901
0.999858
0.999692
0.999475
0.998027
0.99741
0.997249
0.997149
0.997117
0.996992
0.997276
0.997585
0.998008
0.998431
0.999949
0.999953
0.999968
0.999966
0.999953
0.999922
0.999911
0.999948
0.999913
0.998973
0.997651
0.997002
0.99669
0.996752
0.997171
0.997651
0.998255
0.99865
0.999977
0.999979
0.999977
0.999971
0.999941
0.999845
0.999802
0.999866
0.999881
0.999603
0.99962
0.998981
0.996894
0.996428
0.996566
0.996787
0.997257
0.997718
0.999998
0.999974
0.999944
0.999927
0.999906
0.99986
0.999669
0.999537
0.999669
0.999781
0.999649
0.99961
0.998846
0.996816
0.996699
0.996629
0.996758
0.99696
0.999994
0.999817
0.999754
0.99974
0.999712
0.99967
0.999508
0.999413
0.999561
0.999723
0.999509
0.999514
0.99892
0.997035
0.99723
0.997124
0.99691
0.996825
0.99994
0.999588
0.99957
0.999528
0.999606
0.999618
0.9995
0.999473
0.999738
0.999702
0.999269
0.999305
0.999153
0.997466
0.997328
0.997426
0.997343
0.997146
0.999722
0.999502
0.999496
0.999384
0.999548
0.999558
0.999535
0.999672
0.999777
0.999447
0.998562
0.998622
0.998879
0.998452
0.997716
0.997399
0.997347
0.997338
0.999617
0.999473
0.999458
0.999377
0.999516
0.999488
0.999676
0.999712
0.999454
0.998116
0.997262
0.99774
0.998646
0.998654
0.998278
0.997482
0.997232
0.997283
0.999558
0.99944
0.999395
0.999427
0.99947
0.999532
0.999613
0.999474
0.997794
0.996996
0.996905
0.997414
0.99843
0.998553
0.998246
0.997393
0.99712
0.99722
0.99951
0.99942
0.999374
0.999479
0.999422
0.99936
0.999111
0.998946
0.99716
0.997233
0.99745
0.997118
0.997526
0.998004
0.997797
0.997109
0.997014
0.997202
0.999484
0.999422
0.99937
0.999435
0.999347
0.999091
0.998405
0.99814
0.997191
0.997872
0.998
0.997771
0.9972
0.997122
0.99702
0.996984
0.997054
0.997402
0.999437
0.9994
0.999337
0.999316
0.999177
0.998665
0.99812
0.997765
0.997579
0.997593
0.997493
0.997262
0.997108
0.997079
0.997083
0.997146
0.997433
0.997682
0.999416
0.99933
0.999236
0.999204
0.999203
0.998922
0.998807
0.997979
0.997987
0.997928
0.997892
0.997856
0.997799
0.997792
0.997832
0.997975
0.998069
0.998065
0.999866
0.999809
0.999803
0.999767
0.999732
0.999715
0.99972
0.999774
0.999795
0.999803
0.999809
0.999808
0.999796
0.999789
0.999772
0.99975
0.999704
0.999671
0.999862
0.99982
0.999839
0.999826
0.999785
0.999761
0.999734
0.999789
0.999784
0.99975
0.999755
0.999774
0.999767
0.999694
0.999628
0.999603
0.999564
0.99955
0.999861
0.999828
0.999848
0.99985
0.999812
0.999777
0.999764
0.999813
0.999802
0.999718
0.999657
0.999668
0.999594
0.999429
0.999356
0.99938
0.999405
0.999429
0.999867
0.999828
0.999845
0.999857
0.999853
0.999777
0.999763
0.999802
0.999783
0.999717
0.999537
0.999474
0.999352
0.99917
0.999125
0.999144
0.999199
0.999311
0.999882
0.99983
0.999838
0.999859
0.999865
0.999747
0.999768
0.999766
0.99971
0.999652
0.999459
0.999107
0.998971
0.998983
0.999069
0.99912
0.999183
0.999302
0.999903
0.999834
0.999839
0.999863
0.999871
0.999722
0.99974
0.999657
0.999483
0.999366
0.999121
0.998956
0.998942
0.999025
0.999287
0.999404
0.999396
0.999397
0.999965
0.999843
0.999849
0.999875
0.999876
0.999708
0.999615
0.999334
0.999037
0.999006
0.998965
0.99895
0.999032
0.999263
0.999443
0.999553
0.999578
0.999547
0.999993
0.999864
0.999868
0.999886
0.999886
0.999668
0.999372
0.999003
0.998893
0.998883
0.998897
0.998973
0.999174
0.999336
0.999438
0.999538
0.999607
0.999607
0.999999
0.999919
0.999916
0.999916
0.999909
0.999602
0.999302
0.99897
0.99888
0.998844
0.998875
0.999024
0.999212
0.999162
0.999063
0.999158
0.99945
0.999622
0.999923
0.999918
0.999916
0.999915
0.99991
0.999514
0.999322
0.99927
0.998952
0.998851
0.998884
0.99902
0.998866
0.998423
0.998264
0.998312
0.998562
0.999099
0.999856
0.99985
0.999878
0.999904
0.999902
0.999488
0.999524
0.999583
0.998636
0.9984
0.99842
0.998427
0.99827
0.998042
0.997969
0.998008
0.998207
0.998607
0.999831
0.999683
0.999757
0.999878
0.999877
0.999428
0.99967
0.99925
0.998029
0.997957
0.998013
0.99812
0.998086
0.997941
0.997842
0.997851
0.997988
0.998154
0.999748
0.999638
0.999665
0.999809
0.999792
0.999525
0.999612
0.998399
0.997958
0.997895
0.997947
0.998014
0.997979
0.997847
0.997779
0.997786
0.997916
0.998094
0.999698
0.999631
0.999661
0.999789
0.999605
0.999568
0.998679
0.998157
0.997993
0.997944
0.997952
0.997942
0.997887
0.997738
0.997703
0.997727
0.997894
0.998094
0.999673
0.999629
0.999675
0.999653
0.99925
0.999156
0.99841
0.998333
0.998082
0.998042
0.997993
0.997834
0.997668
0.997462
0.997472
0.997659
0.997939
0.998235
0.999668
0.999576
0.99943
0.999182
0.998933
0.99883
0.998936
0.99854
0.998042
0.997972
0.997986
0.997516
0.997236
0.997022
0.997247
0.997698
0.99814
0.998491
0.999822
0.999836
0.999805
0.999681
0.999544
0.999307
0.999282
0.998725
0.997798
0.997561
0.997692
0.996997
0.996834
0.996796
0.997281
0.997825
0.998216
0.99855
0.999922
0.999934
0.999941
0.999915
0.999899
0.999868
0.999696
0.999471
0.998655
0.997574
0.996984
0.996731
0.996698
0.996595
0.996953
0.997364
0.997789
0.998312
0.999949
0.999954
0.999964
0.99995
0.999928
0.999918
0.999921
0.999937
0.999911
0.999549
0.997514
0.996817
0.996503
0.996451
0.996637
0.996968
0.997747
0.998634
0.999981
0.999971
0.999972
0.999957
0.999883
0.999815
0.99982
0.99992
0.999685
0.998424
0.998718
0.997878
0.996503
0.99642
0.996487
0.996671
0.997225
0.997928
0.999999
0.999984
0.999957
0.999927
0.99987
0.999764
0.999659
0.999686
0.999856
0.999277
0.998704
0.998863
0.997408
0.996655
0.996815
0.996685
0.996632
0.996954
0.999994
0.999838
0.999794
0.999801
0.999796
0.999727
0.999649
0.999699
0.999842
0.999147
0.998401
0.998717
0.997453
0.996875
0.99723
0.997206
0.996887
0.996771
0.999946
0.999606
0.999598
0.999659
0.999759
0.999722
0.999713
0.999818
0.999833
0.998776
0.998166
0.998543
0.997809
0.996919
0.996995
0.997253
0.997223
0.99699
0.999761
0.999531
0.999521
0.999615
0.99972
0.999728
0.999817
0.999853
0.999588
0.998094
0.997712
0.998134
0.998131
0.997571
0.997219
0.997076
0.997128
0.997126
0.999672
0.999512
0.999513
0.999627
0.999692
0.999745
0.999762
0.999551
0.997994
0.997127
0.996985
0.997443
0.998026
0.998012
0.9978
0.997261
0.997109
0.9971
0.999588
0.999507
0.999526
0.999642
0.999674
0.999697
0.999455
0.998693
0.997092
0.997007
0.997182
0.997196
0.997792
0.998007
0.997833
0.9972
0.997019
0.997075
0.999541
0.999523
0.999562
0.999625
0.999546
0.999092
0.998323
0.998213
0.99702
0.997915
0.998313
0.99796
0.997305
0.997425
0.997318
0.996939
0.99691
0.997008
0.999511
0.999528
0.999561
0.999566
0.999444
0.999156
0.998399
0.997887
0.997553
0.998055
0.998458
0.998565
0.998015
0.997227
0.997057
0.997069
0.997126
0.997254
0.99948
0.999508
0.999525
0.999313
0.999109
0.998879
0.998316
0.99776
0.997735
0.997951
0.997926
0.99791
0.997767
0.997422
0.997433
0.997467
0.997475
0.997539
0.999469
0.999479
0.999475
0.999295
0.999244
0.999212
0.999139
0.998186
0.997848
0.997859
0.997903
0.997894
0.997868
0.997896
0.998025
0.998089
0.998117
0.998139
0.99986
0.999799
0.9998
0.999762
0.999746
0.999794
0.999834
0.999833
0.999806
0.999778
0.999797
0.999812
0.999812
0.999801
0.999758
0.999696
0.999635
0.999604
0.999853
0.999811
0.99983
0.999822
0.999805
0.999804
0.999831
0.999836
0.999798
0.999688
0.999615
0.999662
0.999745
0.999747
0.999654
0.999569
0.999531
0.999503
0.999848
0.999819
0.999834
0.999836
0.999807
0.999806
0.99979
0.99982
0.999815
0.999739
0.999553
0.999544
0.999621
0.999593
0.999491
0.999408
0.999374
0.999394
0.999852
0.999819
0.999832
0.999846
0.999816
0.999762
0.999698
0.99975
0.999772
0.999747
0.999549
0.999283
0.999243
0.999168
0.999083
0.99911
0.999194
0.999331
0.999862
0.999819
0.999825
0.999847
0.999815
0.999674
0.999552
0.999664
0.999702
0.999685
0.999474
0.999021
0.998885
0.998877
0.998917
0.999036
0.999203
0.999379
0.999881
0.999821
0.999824
0.999843
0.999772
0.999461
0.999322
0.999531
0.999526
0.999491
0.999185
0.998928
0.998842
0.998881
0.99899
0.999206
0.999399
0.999507
0.999909
0.999825
0.999827
0.999841
0.999718
0.999203
0.999109
0.999189
0.999094
0.999139
0.999019
0.998916
0.998936
0.999111
0.999307
0.999449
0.999562
0.999622
0.999977
0.999838
0.999834
0.999846
0.999712
0.999051
0.998967
0.998918
0.998866
0.998921
0.998921
0.998938
0.999021
0.999199
0.999357
0.999479
0.999585
0.999645
0.999997
0.999881
0.999863
0.999873
0.999754
0.999038
0.998959
0.99885
0.998777
0.998809
0.998822
0.998898
0.999035
0.999161
0.999237
0.99935
0.999518
0.99964
0.99992
0.999889
0.999882
0.999885
0.999791
0.999134
0.99896
0.998826
0.998689
0.998653
0.998653
0.998787
0.998889
0.998832
0.998851
0.998965
0.999193
0.999453
0.999833
0.999842
0.999865
0.999879
0.99974
0.999184
0.998945
0.99884
0.998511
0.998358
0.998349
0.998456
0.998383
0.998352
0.998474
0.998754
0.998952
0.999153
0.999781
0.999702
0.999754
0.999838
0.999485
0.999158
0.999036
0.998618
0.998302
0.998078
0.998088
0.998069
0.998001
0.997985
0.998048
0.99831
0.998466
0.998562
0.999694
0.999631
0.999691
0.999808
0.999207
0.999152
0.998999
0.998434
0.998309
0.998059
0.998062
0.997983
0.997802
0.997798
0.997844
0.997979
0.998197
0.998385
0.999641
0.999622
0.999679
0.999596
0.999251
0.998978
0.998581
0.998476
0.998429
0.998171
0.998091
0.997967
0.997682
0.997645
0.997713
0.997802
0.997957
0.998098
0.999622
0.999587
0.999618
0.999464
0.99917
0.998718
0.998579
0.998629
0.998425
0.998278
0.99816
0.998005
0.997589
0.99738
0.997418
0.997704
0.997956
0.998156
0.999638
0.999559
0.999443
0.999183
0.998948
0.998815
0.998843
0.998638
0.998213
0.998198
0.998174
0.998036
0.997503
0.996996
0.997238
0.997719
0.998135
0.998604
0.999827
0.999789
0.999713
0.999611
0.999492
0.999223
0.999091
0.998666
0.997871
0.997614
0.997812
0.997659
0.996917
0.996766
0.997244
0.997717
0.998236
0.998849
0.99992
0.999914
0.999904
0.999866
0.999864
0.999636
0.999107
0.999092
0.998265
0.997433
0.996952
0.996565
0.996488
0.996582
0.996723
0.99684
0.997275
0.998098
0.999948
0.999949
0.999949
0.999934
0.999926
0.999926
0.999912
0.999906
0.999867
0.999479
0.997113
0.996477
0.996369
0.996425
0.99644
0.996564
0.997075
0.998443
0.99998
0.999965
0.999955
0.999933
0.999886
0.999846
0.999919
0.99994
0.998984
0.997048
0.996956
0.996571
0.996336
0.996485
0.99646
0.996624
0.997086
0.99811
0.999998
0.999978
0.999943
0.999931
0.99988
0.999839
0.999862
0.999905
0.999736
0.997751
0.997203
0.996998
0.996439
0.996658
0.996813
0.996928
0.996733
0.997037
0.999994
0.999844
0.99977
0.999793
0.999846
0.999863
0.999892
0.99991
0.999772
0.998128
0.997219
0.997425
0.99656
0.996596
0.996849
0.997324
0.997037
0.996791
0.999946
0.999613
0.999602
0.999667
0.999791
0.999844
0.999891
0.999904
0.999637
0.997767
0.997392
0.997698
0.996763
0.996491
0.99664
0.997071
0.997128
0.996905
0.999765
0.999539
0.999526
0.999653
0.99975
0.999833
0.999866
0.999851
0.999004
0.997158
0.997385
0.997717
0.997488
0.99677
0.996665
0.996793
0.997009
0.996814
0.999681
0.999522
0.999527
0.999665
0.99974
0.999794
0.999634
0.999067
0.997272
0.996841
0.997063
0.997468
0.997611
0.997522
0.99706
0.99698
0.997043
0.996935
0.999588
0.999519
0.999543
0.999675
0.999707
0.999672
0.998971
0.997583
0.996987
0.997215
0.997934
0.997767
0.997506
0.997542
0.997425
0.997071
0.997054
0.997148
0.999551
0.999544
0.99958
0.999662
0.999629
0.999302
0.99794
0.99732
0.997091
0.997484
0.99829
0.998585
0.998388
0.997547
0.997175
0.996916
0.996925
0.997166
0.999524
0.999556
0.999603
0.999624
0.999488
0.999283
0.997911
0.997369
0.997478
0.998008
0.99853
0.998699
0.998689
0.998236
0.997284
0.99693
0.996956
0.997178
0.999502
0.999559
0.999584
0.999486
0.998978
0.998752
0.998241
0.997954
0.99817
0.998526
0.998691
0.998736
0.998723
0.998427
0.997475
0.997079
0.99713
0.997358
0.999492
0.999529
0.999543
0.99949
0.999357
0.99934
0.999283
0.998987
0.998234
0.998237
0.99839
0.998431
0.998428
0.998425
0.998225
0.997863
0.99782
0.997863
0.999867
0.999788
0.999783
0.99976
0.999786
0.999791
0.999839
0.999839
0.999803
0.999755
0.999752
0.999781
0.999794
0.999788
0.999735
0.999666
0.999609
0.999587
0.999855
0.999796
0.999801
0.999775
0.999748
0.999718
0.9998
0.99984
0.999801
0.999692
0.999577
0.99953
0.999585
0.999693
0.999711
0.99966
0.999568
0.999499
0.999846
0.9998
0.999805
0.999772
0.999749
0.999705
0.999734
0.999826
0.999828
0.99977
0.99957
0.999313
0.999303
0.999431
0.999526
0.999524
0.99944
0.999428
0.999849
0.999806
0.999815
0.999771
0.999724
0.999661
0.999592
0.999735
0.999788
0.999768
0.999603
0.999138
0.998954
0.998983
0.999084
0.999157
0.999241
0.999372
0.99986
0.999808
0.999821
0.999779
0.999632
0.999514
0.999435
0.99962
0.999718
0.999711
0.999548
0.999014
0.998798
0.998802
0.99887
0.999013
0.9992
0.99939
0.999877
0.999811
0.999824
0.999799
0.999552
0.999352
0.999296
0.999443
0.999588
0.99959
0.999355
0.998928
0.998753
0.998756
0.998828
0.998981
0.999186
0.999439
0.999902
0.999816
0.999825
0.999831
0.999542
0.99931
0.999265
0.999202
0.999299
0.999312
0.999131
0.998902
0.998771
0.998829
0.998976
0.999225
0.999454
0.999612
0.999969
0.999828
0.999831
0.99986
0.999609
0.999415
0.999381
0.999139
0.999031
0.999029
0.998981
0.998906
0.998961
0.999192
0.999402
0.999535
0.999628
0.999685
0.999995
0.999865
0.999865
0.999876
0.999688
0.999594
0.999591
0.999191
0.998931
0.998904
0.998879
0.998909
0.999016
0.999298
0.999505
0.999603
0.999662
0.999702
0.999945
0.999895
0.999895
0.999886
0.999714
0.999679
0.999619
0.999235
0.998875
0.998794
0.99873
0.998794
0.998944
0.99926
0.99949
0.999598
0.999654
0.999694
0.999874
0.99984
0.999874
0.999872
0.99967
0.999718
0.999484
0.999201
0.998838
0.998614
0.998393
0.998429
0.998524
0.998863
0.999305
0.999533
0.999598
0.999636
0.999786
0.999655
0.999753
0.999826
0.999496
0.999569
0.999121
0.999112
0.998825
0.998517
0.998218
0.998112
0.998014
0.998132
0.998639
0.99918
0.999408
0.999432
0.999714
0.999528
0.999642
0.999792
0.999415
0.999326
0.999016
0.999114
0.998845
0.998527
0.998207
0.998072
0.997844
0.997858
0.998072
0.998548
0.998937
0.999183
0.999629
0.999459
0.99965
0.99963
0.999577
0.999124
0.998765
0.999108
0.998869
0.998647
0.99828
0.998118
0.997813
0.997694
0.997794
0.998024
0.998222
0.998405
0.999591
0.99943
0.999377
0.999205
0.999162
0.998784
0.998733
0.998838
0.998782
0.998795
0.998446
0.998253
0.997901
0.997473
0.99743
0.99772
0.997986
0.998291
0.999708
0.999536
0.999333
0.999078
0.998868
0.998672
0.998641
0.99854
0.998618
0.99882
0.998517
0.998295
0.997957
0.997138
0.997223
0.997676
0.997972
0.99852
0.999831
0.999742
0.999427
0.99935
0.999371
0.999267
0.999009
0.998053
0.997785
0.997856
0.997868
0.997749
0.997095
0.996823
0.997189
0.99769
0.99817
0.999184
0.999912
0.99991
0.9999
0.999897
0.9999
0.999819
0.999403
0.998603
0.997501
0.997103
0.996772
0.996662
0.996462
0.996661
0.996898
0.996906
0.997402
0.998124
0.999947
0.999952
0.999951
0.999953
0.999942
0.999888
0.999525
0.999139
0.99902
0.998051
0.996484
0.996408
0.996401
0.996517
0.996465
0.996576
0.99705
0.99812
0.999978
0.999971
0.999944
0.999955
0.999946
0.999929
0.999942
0.999679
0.99725
0.996518
0.996464
0.996537
0.996579
0.996613
0.996514
0.996657
0.99708
0.997921
0.999998
0.999985
0.999943
0.999934
0.999931
0.999921
0.999928
0.999928
0.99945
0.996932
0.996492
0.996424
0.99659
0.996649
0.996771
0.99693
0.996973
0.997041
0.999994
0.999855
0.999778
0.999815
0.999865
0.999874
0.999918
0.999921
0.999643
0.997914
0.996603
0.996575
0.996473
0.996577
0.996667
0.997173
0.997223
0.997192
0.99995
0.999618
0.999606
0.999672
0.99976
0.99983
0.999902
0.999897
0.999403
0.997529
0.996762
0.996838
0.996434
0.996422
0.996591
0.997065
0.997053
0.996898
0.999782
0.999543
0.999529
0.999619
0.99971
0.999827
0.999875
0.999794
0.998231
0.996978
0.997147
0.997216
0.996792
0.996484
0.996481
0.99679
0.996905
0.996808
0.9997
0.999525
0.999522
0.999633
0.999719
0.999799
0.999604
0.998876
0.996977
0.996724
0.997106
0.997344
0.997422
0.997176
0.996603
0.996633
0.996825
0.996837
0.999619
0.999521
0.999534
0.999649
0.999676
0.999536
0.998595
0.997417
0.996882
0.996873
0.997537
0.997923
0.997879
0.997484
0.9969
0.996769
0.996875
0.997002
0.999588
0.999539
0.999562
0.999645
0.999643
0.999497
0.998589
0.997268
0.997115
0.997098
0.99743
0.998333
0.99853
0.99819
0.997159
0.996846
0.996989
0.997192
0.999565
0.999549
0.9996
0.999629
0.999526
0.998955
0.997705
0.997358
0.997779
0.997856
0.998132
0.99852
0.998637
0.998526
0.997669
0.997007
0.99712
0.997352
0.999545
0.999549
0.999579
0.999492
0.999262
0.999106
0.99889
0.998246
0.998446
0.998585
0.9987
0.998816
0.998792
0.998407
0.997456
0.997019
0.99723
0.997486
0.999532
0.999523
0.999536
0.999485
0.999391
0.9993
0.999311
0.99936
0.999328
0.999104
0.998975
0.998935
0.998845
0.99835
0.997332
0.997121
0.997261
0.997489
0.999888
0.999813
0.999811
0.999845
0.99986
0.999859
0.999856
0.999847
0.999812
0.999755
0.999736
0.99976
0.999769
0.999764
0.999712
0.99966
0.999628
0.999604
0.999859
0.999811
0.999808
0.999812
0.999797
0.999828
0.99986
0.99986
0.999839
0.999749
0.999606
0.999486
0.999462
0.999516
0.999661
0.999708
0.999692
0.999609
0.999855
0.999809
0.999804
0.999813
0.999827
0.999831
0.99983
0.999843
0.99984
0.999799
0.999655
0.999303
0.99917
0.99919
0.999342
0.999461
0.999461
0.99947
0.999857
0.999807
0.999801
0.999795
0.999869
0.999815
0.999619
0.999692
0.999777
0.999782
0.999699
0.99926
0.998984
0.999007
0.999132
0.999269
0.999342
0.999414
0.999862
0.999807
0.999809
0.999767
0.999759
0.999819
0.999542
0.999479
0.999672
0.999719
0.999621
0.999159
0.998879
0.998928
0.999082
0.999223
0.999303
0.999383
0.999878
0.999809
0.999824
0.999789
0.999679
0.999804
0.999532
0.999401
0.999545
0.999601
0.999473
0.999043
0.998755
0.998739
0.998816
0.998958
0.99908
0.999276
0.999908
0.999814
0.999827
0.999837
0.999667
0.999791
0.999559
0.999413
0.999327
0.999354
0.999243
0.998938
0.998697
0.998659
0.9987
0.998823
0.998987
0.999209
0.999976
0.999829
0.999836
0.999857
0.999666
0.999807
0.999734
0.999525
0.999228
0.999097
0.999019
0.998872
0.99869
0.998651
0.998696
0.99878
0.999034
0.999324
0.999997
0.999864
0.999866
0.999869
0.999712
0.999804
0.999829
0.999752
0.99931
0.998997
0.998913
0.998843
0.998811
0.998908
0.999101
0.999186
0.999308
0.999434
0.999995
0.999931
0.99993
0.999891
0.999731
0.999815
0.999854
0.99981
0.999444
0.998976
0.998835
0.998818
0.998851
0.99903
0.999253
0.999374
0.999456
0.999553
0.999968
0.999784
0.999874
0.999875
0.999729
0.999813
0.999844
0.99981
0.999491
0.998998
0.998673
0.998629
0.998718
0.998949
0.999212
0.999399
0.999529
0.999638
0.999869
0.9996
0.999679
0.999802
0.999721
0.999799
0.999802
0.999731
0.999477
0.999091
0.998593
0.998363
0.998287
0.998392
0.998697
0.999102
0.999399
0.999522
0.999767
0.999564
0.999675
0.999801
0.999736
0.999765
0.999755
0.999718
0.999593
0.9993
0.998707
0.998358
0.998175
0.998136
0.998196
0.998471
0.998901
0.999211
0.999713
0.999543
0.999679
0.999731
0.999738
0.999753
0.999648
0.999693
0.999661
0.999547
0.999075
0.998546
0.998222
0.998015
0.997965
0.998026
0.998275
0.998653
0.999717
0.999434
0.999437
0.999535
0.999449
0.999599
0.99953
0.999679
0.99965
0.999631
0.999365
0.998778
0.99834
0.997883
0.997644
0.99771
0.99797
0.998367
0.999692
0.999479
0.999375
0.999394
0.999529
0.999342
0.999316
0.999613
0.999684
0.999701
0.999413
0.998733
0.998319
0.997487
0.997335
0.997561
0.99797
0.998596
0.999775
0.999677
0.999442
0.99936
0.999169
0.998892
0.998634
0.998231
0.99888
0.999024
0.998492
0.99794
0.997228
0.99695
0.997163
0.997606
0.99822
0.999225
0.999908
0.999914
0.999894
0.999845
0.999769
0.999394
0.998545
0.997932
0.998244
0.997895
0.997377
0.996798
0.996665
0.996787
0.997084
0.99732
0.997984
0.998424
0.999943
0.999961
0.999964
0.999959
0.999952
0.999833
0.998719
0.99734
0.997113
0.996817
0.996511
0.996653
0.996733
0.996717
0.996613
0.996716
0.997129
0.997834
0.999977
0.999976
0.999961
0.999968
0.999972
0.999956
0.999781
0.99833
0.996664
0.996548
0.996614
0.996624
0.996665
0.99673
0.996729
0.996774
0.997066
0.997513
0.999998
0.999986
0.999952
0.999961
0.999969
0.999964
0.999958
0.99995
0.999415
0.997061
0.996411
0.996428
0.996564
0.996626
0.99686
0.996913
0.997026
0.997102
0.999995
0.999856
0.999802
0.999829
0.999911
0.999932
0.999935
0.999933
0.999785
0.998746
0.996937
0.99637
0.996365
0.996753
0.996714
0.99703
0.997285
0.997303
0.999955
0.999638
0.999616
0.999659
0.999792
0.999835
0.999884
0.999909
0.999564
0.998388
0.996682
0.996406
0.996307
0.996516
0.9967
0.997031
0.997261
0.997143
0.999793
0.99957
0.99954
0.999605
0.999699
0.99979
0.999874
0.99982
0.998336
0.997197
0.996676
0.996539
0.996388
0.996365
0.996444
0.996777
0.997111
0.997058
0.999716
0.999555
0.999527
0.999619
0.999705
0.999776
0.999782
0.999413
0.997147
0.996746
0.996791
0.99687
0.996984
0.996749
0.996488
0.996515
0.996639
0.996889
0.999646
0.999549
0.999531
0.999635
0.999685
0.999631
0.999023
0.998105
0.997066
0.996761
0.997053
0.997575
0.997663
0.997278
0.996653
0.996522
0.996551
0.996918
0.999616
0.999554
0.999551
0.999641
0.999638
0.999335
0.997952
0.997741
0.997869
0.997123
0.997042
0.997622
0.998273
0.998079
0.996999
0.996573
0.996599
0.997143
0.999589
0.999554
0.999589
0.999629
0.999524
0.998957
0.997928
0.997864
0.998432
0.998018
0.997474
0.99774
0.998325
0.998355
0.997792
0.996825
0.996883
0.997365
0.999568
0.999528
0.999528
0.999313
0.998883
0.998653
0.998277
0.99871
0.998899
0.998722
0.998245
0.998388
0.998604
0.998375
0.997494
0.99704
0.997237
0.997573
0.999563
0.999519
0.9995
0.99938
0.999359
0.999068
0.999069
0.999246
0.999264
0.999118
0.999052
0.998937
0.998783
0.998544
0.997593
0.997323
0.997454
0.997647
0.999908
0.999868
0.999883
0.999897
0.999893
0.999888
0.999887
0.999864
0.999831
0.999768
0.999703
0.999701
0.999714
0.999722
0.999725
0.999689
0.99965
0.999632
0.999886
0.999854
0.99984
0.999883
0.999882
0.999872
0.999873
0.999871
0.999872
0.999843
0.999705
0.999493
0.999419
0.999419
0.999468
0.999586
0.999628
0.99963
0.99987
0.999837
0.999821
0.999869
0.999879
0.999819
0.999748
0.999756
0.999817
0.999834
0.999771
0.999462
0.999369
0.999379
0.999438
0.99952
0.999571
0.9996
0.999865
0.999822
0.999809
0.999825
0.999884
0.999824
0.9996
0.999564
0.999719
0.99977
0.999725
0.999459
0.999448
0.999508
0.999585
0.99963
0.999655
0.999659
0.999867
0.999817
0.999814
0.99981
0.999871
0.999869
0.99959
0.999466
0.999617
0.999694
0.999618
0.99942
0.999446
0.999523
0.999593
0.999629
0.999637
0.999626
0.999881
0.999816
0.999824
0.999822
0.999828
0.999867
0.999652
0.999475
0.999475
0.999555
0.999508
0.999418
0.999327
0.999362
0.99946
0.999498
0.999481
0.999397
0.999917
0.999819
0.999826
0.999843
0.999824
0.999856
0.999796
0.999587
0.999413
0.999358
0.999367
0.999277
0.998898
0.998826
0.998903
0.998965
0.998984
0.999042
0.999979
0.999832
0.999842
0.999852
0.999828
0.999855
0.99985
0.999802
0.999492
0.999308
0.999168
0.998988
0.998667
0.998536
0.998528
0.998536
0.998592
0.998847
0.999997
0.999873
0.999884
0.999878
0.999832
0.999852
0.99986
0.999852
0.999745
0.99941
0.999082
0.998877
0.998607
0.998485
0.998457
0.998441
0.998492
0.998788
0.999997
0.999943
0.999947
0.999936
0.999878
0.999886
0.999885
0.999869
0.999821
0.999645
0.99908
0.998795
0.998589
0.998553
0.998641
0.998682
0.998671
0.998813
0.999964
0.999739
0.9998
0.999896
0.999882
0.999887
0.999883
0.999855
0.999819
0.99974
0.999185
0.998664
0.998559
0.998572
0.998694
0.998857
0.998923
0.999018
0.999805
0.999628
0.999641
0.99973
0.999844
0.999859
0.999803
0.999769
0.999775
0.999755
0.999407
0.998693
0.998444
0.99845
0.998577
0.99883
0.999004
0.999234
0.999671
0.99964
0.999681
0.99977
0.999793
0.999761
0.999747
0.999771
0.999793
0.999791
0.999688
0.999059
0.998459
0.998261
0.998259
0.998467
0.998825
0.999056
0.999627
0.999678
0.999737
0.999766
0.999759
0.999762
0.99979
0.999817
0.999823
0.99982
0.999792
0.999551
0.998741
0.998192
0.998056
0.998078
0.998302
0.998748
0.999588
0.999538
0.999607
0.999726
0.999711
0.999758
0.999769
0.999811
0.999836
0.999842
0.999829
0.999651
0.998898
0.998117
0.997808
0.997803
0.997947
0.998365
0.999623
0.999545
0.999559
0.99962
0.99962
0.999374
0.999605
0.999811
0.999858
0.999864
0.999799
0.999198
0.998528
0.997735
0.997548
0.997646
0.997913
0.998563
0.999785
0.999772
0.999794
0.999547
0.999286
0.998881
0.998766
0.999299
0.999693
0.999733
0.999124
0.998352
0.997659
0.9974
0.99743
0.997676
0.998112
0.998933
0.999904
0.999907
0.999876
0.999805
0.999633
0.99934
0.998681
0.9986
0.99948
0.99903
0.998377
0.997487
0.99725
0.99736
0.997499
0.998004
0.998308
0.9985
0.999934
0.999956
0.999968
0.999953
0.999924
0.999742
0.998625
0.9974
0.996952
0.99675
0.996801
0.99702
0.997215
0.997232
0.996929
0.996929
0.997151
0.997642
0.999971
0.999975
0.999973
0.999971
0.999974
0.999969
0.99989
0.998897
0.996881
0.996685
0.996608
0.996544
0.996585
0.996777
0.996932
0.996939
0.997049
0.997314
0.999998
0.999979
0.999958
0.99996
0.999972
0.999969
0.999956
0.999955
0.99984
0.998582
0.997002
0.996566
0.996601
0.996612
0.996933
0.997042
0.997065
0.997163
0.999996
0.999848
0.999798
0.9998
0.99986
0.999921
0.999919
0.999911
0.99989
0.999572
0.998607
0.997555
0.997198
0.997506
0.996879
0.997093
0.997372
0.997405
0.999962
0.999648
0.999605
0.999615
0.99967
0.999791
0.999832
0.999897
0.999837
0.99933
0.998173
0.996992
0.996806
0.997241
0.997008
0.997154
0.997456
0.997457
0.999812
0.999574
0.999534
0.999534
0.999626
0.999736
0.999842
0.999886
0.999216
0.997924
0.996997
0.996535
0.996414
0.996542
0.996651
0.996784
0.997124
0.99727
0.999703
0.999552
0.99951
0.999504
0.999652
0.999752
0.999821
0.999783
0.998339
0.997538
0.996682
0.996547
0.996529
0.996475
0.996421
0.996425
0.996507
0.996829
0.999646
0.999536
0.999497
0.999528
0.999667
0.999678
0.999443
0.999379
0.998497
0.9979
0.996658
0.996698
0.996957
0.996838
0.996533
0.996473
0.996563
0.99731
0.9996
0.999526
0.999504
0.999558
0.999551
0.998979
0.998296
0.998465
0.998949
0.998762
0.996776
0.996844
0.997662
0.997804
0.997093
0.996715
0.997049
0.997877
0.999579
0.999522
0.999514
0.999537
0.99935
0.998815
0.99847
0.998264
0.99854
0.99865
0.997388
0.997439
0.997951
0.998251
0.998042
0.997511
0.997859
0.998136
0.999556
0.9995
0.99947
0.999293
0.998977
0.99888
0.998805
0.998802
0.99866
0.998481
0.99814
0.99806
0.99819
0.998263
0.997979
0.998011
0.998251
0.998254
0.999548
0.999496
0.999461
0.999378
0.999423
0.999399
0.99921
0.999167
0.999129
0.999063
0.998749
0.998329
0.998262
0.998399
0.998302
0.998138
0.998189
0.998192
0.999911
0.999869
0.999867
0.999898
0.999898
0.999887
0.999888
0.999881
0.999834
0.999771
0.999703
0.999682
0.999686
0.999693
0.999697
0.999681
0.99966
0.999652
0.999894
0.999852
0.999833
0.999882
0.999893
0.99985
0.999797
0.999854
0.999875
0.999853
0.999726
0.999595
0.999554
0.999549
0.999569
0.999627
0.99966
0.999675
0.999885