/*--------------------------------*- C++ -*----------------------------------*\
| =========                 |                                                 |
| \\      /  F ield         | OpenFOAM: The Open Source CFD Toolbox           |
|  \\    /   O peration     | Version:  2112                                  |
|   \\  /    A nd           | Website:  www.openfoam.com                      |
|    \\/     M anipulation  |                                                 |
\*---------------------------------------------------------------------------*/
FoamFile
{
    version     2.0;
    format      ascii;
    arch        "LSB;label=32;scalar=64";
    class       volScalarField;
    location    "0.12";
    object      p;
}
// * * * * * * * * * * * * * * * * * * * * * * * * * * * * * * * * * * * * * //

dimensions      [0 2 -2 0 0 0 0];

internalField   nonuniform List<scalar> 
122250
(
-6.09535
-6.71521
-7.0663
-7.22323
-7.32469
-7.41835
-7.50935
-7.59658
-7.67996
-7.76008
-7.83457
-7.90321
-7.96195
-8.01727
-8.06593
-8.12623
-8.17711
-8.252
-6.31009
-6.74674
-7.06956
-7.23389
-7.33597
-7.4271
-7.51657
-7.60329
-7.68645
-7.76618
-7.84054
-7.90882
-7.96877
-8.02374
-8.07535
-8.13138
-8.18962
-8.25785
-6.4088
-6.7497
-7.05525
-7.23328
-7.34127
-7.43163
-7.51998
-7.60673
-7.69022
-7.77009
-7.84416
-7.91225
-7.97302
-8.02981
-8.084
-8.14139
-8.2015
-8.2643
-6.51993
-6.79062
-7.06443
-7.24407
-7.35608
-7.44474
-7.53015
-7.61526
-7.69819
-7.77752
-7.85125
-7.91905
-7.98098
-8.03907
-8.09525
-8.15245
-8.21127
-8.26855
-6.62221
-6.83346
-7.07013
-7.24575
-7.36354
-7.4534
-7.53679
-7.62023
-7.70266
-7.78193
-7.85572
-7.92361
-7.98624
-8.04524
-8.10224
-8.15916
-8.2165
-8.27289
-6.71442
-6.88037
-7.08276
-7.25119
-7.37366
-7.46587
-7.54764
-7.62882
-7.7101
-7.78897
-7.86263
-7.93039
-7.99329
-8.05283
-8.11038
-8.16719
-8.2238
-8.2797
-6.79837
-6.93097
-7.10261
-7.25986
-7.38405
-7.47844
-7.55903
-7.63775
-7.71731
-7.7954
-7.86877
-7.93636
-7.99933
-8.05914
-8.11692
-8.17342
-8.22916
-8.28377
-6.87532
-6.98329
-7.12801
-7.27158
-7.39458
-7.49078
-7.57088
-7.64738
-7.725
-7.8021
-7.87511
-7.94253
-8.00543
-8.06525
-8.12289
-8.1788
-8.23342
-8.28635
-6.94609
-7.03573
-7.15766
-7.28661
-7.40602
-7.50324
-7.58333
-7.658
-7.73356
-7.80936
-7.88176
-7.94884
-8.01145
-8.07096
-8.12814
-8.18326
-8.23657
-8.28773
-7.01136
-7.08726
-7.19035
-7.30504
-7.41903
-7.51608
-7.59617
-7.66934
-7.74284
-7.8171
-7.88861
-7.9551
-8.01717
-8.07612
-8.13259
-8.18667
-8.23852
-8.2879
-7.0717
-7.13719
-7.2249
-7.32641
-7.4339
-7.52961
-7.60938
-7.68112
-7.75257
-7.82513
-7.89553
-7.96123
-8.02259
-8.08077
-8.1363
-8.18916
-8.23945
-8.28698
-7.12284
-7.18115
-7.25763
-7.34817
-7.44896
-7.54239
-7.62164
-7.69234
-7.76207
-7.83295
-7.90205
-7.96675
-8.02722
-8.08452
-8.13906
-8.19074
-8.23958
-8.28539
-7.17017
-7.22272
-7.29007
-7.37133
-7.46556
-7.55583
-7.63371
-7.70312
-7.77125
-7.8406
-7.90845
-7.97213
-8.03166
-8.088
-8.14147
-8.1919
-8.23925
-8.28337
-7.21994
-7.26748
-7.32638
-7.39817
-7.4852
-7.57178
-7.64809
-7.71616
-7.78258
-7.85006
-7.91611
-7.97815
-8.03627
-8.09131
-8.14349
-8.19249
-8.23825
-8.28063
-7.27062
-7.31362
-7.36543
-7.42933
-7.50937
-7.59104
-7.66389
-7.7294
-7.79393
-7.85982
-7.92429
-7.98476
-8.0414
-8.09505
-8.14577
-8.19321
-8.23726
-8.27786
-7.32035
-7.36018
-7.40618
-7.46161
-7.53447
-7.61194
-7.68202
-7.74518
-7.80768
-7.8715
-7.9336
-7.9917
-8.04631
-8.09828
-8.14747
-8.1934
-8.23597
-8.27514
-7.36562
-7.40353
-7.44439
-7.49301
-7.56117
-7.63504
-7.70099
-7.76037
-7.82032
-7.88236
-7.94272
-7.99899
-8.0519
-8.10238
-8.15018
-8.1948
-8.23614
-8.2743
-7.40104
-7.43814
-7.47593
-7.52176
-7.58641
-7.65551
-7.71785
-7.77518
-7.83333
-7.89323
-7.95134
-8.00552
-8.05667
-8.10579
-8.15255
-8.19643
-8.23727
-8.27525
-7.41878
-7.45563
-7.49492
-7.54269
-7.60373
-7.66862
-7.7295
-7.78588
-7.84228
-7.90042
-7.95724
-8.01042
-8.06073
-8.10934
-8.15592
-8.19987
-8.24111
-8.27985
-7.4059
-7.44241
-7.48912
-7.54229
-7.60304
-7.66776
-7.72992
-7.7874
-7.84386
-7.90142
-7.95776
-8.01091
-8.06141
-8.11028
-8.15733
-8.20199
-8.24432
-8.28443
-7.37411
-7.41445
-7.47103
-7.53064
-7.59342
-7.66023
-7.72487
-7.78408
-7.84116
-7.89875
-7.95535
-8.00907
-8.06019
-8.10958
-8.15722
-8.20264
-8.24591
-8.28724
-7.33034
-7.37651
-7.44438
-7.51221
-7.5795
-7.6499
-7.71751
-7.77839
-7.83603
-7.89397
-7.95126
-8.0059
-8.05777
-8.10767
-8.15587
-8.20207
-8.24626
-8.28868
-7.2767
-7.33176
-7.4131
-7.49117
-7.56472
-7.63944
-7.70964
-7.77142
-7.82933
-7.8879
-7.94623
-8.00179
-8.05424
-8.10459
-8.15332
-8.20024
-8.24524
-8.28851
-7.2142
-7.28218
-7.38035
-7.46966
-7.54984
-7.62971
-7.70287
-7.76517
-7.82304
-7.8821
-7.94115
-7.99716
-8.04979
-8.10029
-8.1493
-8.19664
-8.24219
-8.28612
-7.14198
-7.22981
-7.35079
-7.45199
-7.537
-7.62013
-7.69493
-7.75803
-7.8172
-7.8779
-7.9381
-7.99464
-8.04756
-8.09837
-8.14776
-8.1955
-8.24135
-8.28549
-7.06028
-7.17764
-7.32599
-7.4387
-7.52828
-7.61369
-7.68802
-7.75026
-7.80982
-7.87119
-7.93153
-7.98796
-8.04091
-8.09194
-8.14161
-8.18962
-8.23586
-8.28052
-6.96764
-7.12928
-7.30936
-7.42938
-7.52165
-7.60957
-7.68426
-7.74701
-7.80794
-7.8702
-7.93062
-7.98694
-8.03996
-8.09115
-8.14092
-8.18896
-8.23515
-8.27971
-6.85758
-7.07643
-7.29275
-7.41829
-7.51241
-7.60224
-7.67714
-7.74018
-7.80163
-7.86393
-7.92414
-7.98049
-8.03378
-8.08528
-8.13524
-8.18333
-8.22961
-8.27453
-6.77665
-7.07094
-7.30461
-7.41906
-7.50968
-7.60041
-7.67594
-7.73942
-7.80093
-7.86283
-7.92266
-7.97889
-8.0323
-8.08387
-8.13382
-8.18165
-8.22753
-8.27153
-6.55867
-7.02796
-7.30098
-7.41412
-7.50559
-7.59743
-7.67299
-7.73622
-7.79731
-7.85873
-7.91825
-7.97449
-8.02813
-8.07995
-8.1301
-8.17796
-8.22375
-8.26697
-5.96894
-6.58391
-6.92924
-7.08189
-7.1814
-7.27512
-7.36796
-7.45911
-7.54873
-7.63807
-7.725
-7.81102
-7.89228
-7.98023
-8.07164
-8.1953
-8.32442
-8.5041
-6.18423
-6.61611
-6.93331
-7.09347
-7.1936
-7.28482
-7.37619
-7.46684
-7.55624
-7.64509
-7.73188
-7.81706
-7.89953
-7.98544
-8.07983
-8.19383
-8.32785
-8.48593
-6.28275
-6.61872
-6.91865
-7.09246
-7.19844
-7.28888
-7.3791
-7.46975
-7.55939
-7.64827
-7.7345
-7.81909
-7.9016
-7.98808
-8.08227
-8.19235
-8.31789
-8.4502
-6.3939
-6.65969
-6.92795
-7.10339
-7.21338
-7.30208
-7.38937
-7.47831
-7.56734
-7.65547
-7.74115
-7.82486
-7.90775
-7.99361
-8.08661
-8.19057
-8.30526
-8.42158
-6.49617
-6.70246
-6.93351
-7.10495
-7.2207
-7.31059
-7.39579
-7.48299
-7.57142
-7.65929
-7.7447
-7.82787
-7.91037
-7.9952
-8.08554
-8.18394
-8.28974
-8.3992
-6.58835
-6.74927
-6.94603
-7.11031
-7.23077
-7.32296
-7.40649
-7.49132
-7.57846
-7.66569
-7.75056
-7.8329
-7.9145
-7.99784
-8.0854
-8.17883
-8.27803
-8.38026
-6.67227
-6.79978
-6.96576
-7.11887
-7.24105
-7.33538
-7.41763
-7.49986
-7.58511
-7.67127
-7.75537
-7.83677
-7.9172
-7.9988
-8.0834
-8.17207
-8.2648
-8.35917
-6.74917
-6.852
-6.99099
-7.13041
-7.25143
-7.34753
-7.42916
-7.50902
-7.59211
-7.67695
-7.76016
-7.84055
-7.91962
-7.99922
-8.08069
-8.16468
-8.25114
-8.33817
-6.81987
-6.90431
-7.02043
-7.14521
-7.26268
-7.35976
-7.44123
-7.51906
-7.59984
-7.68301
-7.76502
-7.84419
-7.92165
-7.99902
-8.07728
-8.15672
-8.23726
-8.31758
-6.88506
-6.95569
-7.05288
-7.16335
-7.27544
-7.37232
-7.45364
-7.52973
-7.60814
-7.68933
-7.76981
-7.84748
-7.92312
-7.99812
-8.07316
-8.14824
-8.22325
-8.29734
-6.94528
-7.00544
-7.08714
-7.18438
-7.28999
-7.38548
-7.46631
-7.54073
-7.6168
-7.69582
-7.77449
-7.85041
-7.92404
-7.99655
-8.06838
-8.13935
-8.20932
-8.27764
-6.99629
-7.04917
-7.11951
-7.20579
-7.30477
-7.39792
-7.47797
-7.55108
-7.62512
-7.70202
-7.77875
-7.85281
-7.92444
-7.99462
-8.06358
-8.13104
-8.19678
-8.2603
-7.04348
-7.0905
-7.15154
-7.22847
-7.32099
-7.41096
-7.48945
-7.56102
-7.63315
-7.70803
-7.78282
-7.85495
-7.92453
-7.99239
-8.05862
-8.12283
-8.18475
-8.24396
-7.09303
-7.13488
-7.18727
-7.2548
-7.34028
-7.4264
-7.50294
-7.57284
-7.6429
-7.71539
-7.78763
-7.85722
-7.92423
-7.98936
-8.05255
-8.1133
-8.17134
-8.22628
-7.14342
-7.18053
-7.22553
-7.28524
-7.36387
-7.44483
-7.51766
-7.58484
-7.65269
-7.72291
-7.79263
-7.85951
-7.92374
-7.98596
-8.04597
-8.10326
-8.15751
-8.20845
-7.19274
-7.22624
-7.26499
-7.3168
-7.38864
-7.46497
-7.53447
-7.59891
-7.66423
-7.73166
-7.79816
-7.86171
-7.92272
-7.98177
-8.03854
-8.09244
-8.14321
-8.19068
-7.23734
-7.26814
-7.3018
-7.34798
-7.41512
-7.48668
-7.55156
-7.61237
-7.67498
-7.73988
-7.80358
-7.86409
-7.92206
-7.97814
-8.03193
-8.08285
-8.13068
-8.17538
-7.27168
-7.30068
-7.33198
-7.37733
-7.44052
-7.50621
-7.56684
-7.62526
-7.68559
-7.74767
-7.80829
-7.8658
-7.92094
-7.97443
-8.02579
-8.07446
-8.12026
-8.16326
-7.28764
-7.31506
-7.34934
-7.39733
-7.45625
-7.51728
-7.5766
-7.63421
-7.69259
-7.75233
-7.81087
-7.86648
-7.91982
-7.97169
-8.02164
-8.06914
-8.11408
-8.15657
-7.27306
-7.30002
-7.34307
-7.39677
-7.4547
-7.51539
-7.57613
-7.63485
-7.69317
-7.75205
-7.80968
-7.86474
-7.91766
-7.96911
-8.0188
-8.06623
-8.11147
-8.15455
-7.24006
-7.27138
-7.32511
-7.38522
-7.44487
-7.50769
-7.57104
-7.63147
-7.6902
-7.74882
-7.80643
-7.8618
-7.91503
-7.9666
-8.01645
-8.06419
-8.10987
-8.15367
-7.19607
-7.23354
-7.2988
-7.36696
-7.43091
-7.49722
-7.56367
-7.62602
-7.68535
-7.7441
-7.80212
-7.85808
-7.91173
-7.9635
-8.01356
-8.06177
-8.10808
-8.15269
-7.14293
-7.18949
-7.26794
-7.34584
-7.41602
-7.48696
-7.55627
-7.61947
-7.67881
-7.738
-7.79696
-7.85383
-7.908
-7.96005
-8.01044
-8.05912
-8.10602
-8.15125
-7.08105
-7.14069
-7.23574
-7.32424
-7.40069
-7.47707
-7.5499
-7.61385
-7.67303
-7.73245
-7.79188
-7.84899
-7.90314
-7.95516
-8.00568
-8.05468
-8.10202
-8.14781
-7.00932
-7.08902
-7.20657
-7.3064
-7.38763
-7.46777
-7.5425
-7.60701
-7.66716
-7.72815
-7.78883
-7.8465
-7.90087
-7.95313
-8.00398
-8.05328
-8.10084
-8.14673
-6.92823
-7.03772
-7.18175
-7.29198
-7.37838
-7.46208
-7.53674
-7.60003
-7.6602
-7.72171
-7.78241
-7.83977
-7.894
-7.94637
-7.99743
-8.04697
-8.09485
-8.14123
-6.83626
-6.99043
-7.16539
-7.28138
-7.37067
-7.45787
-7.5332
-7.59682
-7.65829
-7.72077
-7.78161
-7.83887
-7.89315
-7.94569
-7.99687
-8.04644
-8.09425
-8.14047
-6.72596
-6.93834
-7.14899
-7.26987
-7.36197
-7.45174
-7.52696
-7.59038
-7.65208
-7.71442
-7.77491
-7.83204
-7.8865
-7.93929
-7.99063
-8.04025
-8.08817
-8.1348
-6.64647
-6.93361
-7.15967
-7.2692
-7.35904
-7.45036
-7.52624
-7.59011
-7.65194
-7.71395
-7.77404
-7.83106
-7.88563
-7.93853
-7.9899
-8.03928
-8.0868
-8.13251
-6.42734
-6.88989
-7.15491
-7.26353
-7.35487
-7.44729
-7.52292
-7.58633
-7.64753
-7.70882
-7.76845
-7.82536
-7.88011
-7.93324
-7.98482
-8.03423
-8.08166
-8.12657
-5.78764
-6.39198
-6.72518
-6.86726
-6.95816
-7.04454
-7.13106
-7.21711
-7.30328
-7.3909
-7.47765
-7.56385
-7.64419
-7.72518
-7.79703
-7.88409
-7.9573
-8.06197
-6.00262
-6.42392
-6.72888
-6.87838
-6.96991
-7.05384
-7.1389
-7.22446
-7.31035
-7.39746
-7.48398
-7.56956
-7.65131
-7.73156
-7.80734
-7.8881
-7.97099
-8.06098
-6.10128
-6.42675
-6.71441
-6.87757
-6.97501
-7.05824
-7.14221
-7.22777
-7.3139
-7.40096
-7.48693
-7.57203
-7.65438
-7.73635
-7.81482
-7.89605
-7.98008
-8.06776
-6.21245
-6.46776
-6.7237
-6.88849
-6.98996
-7.07151
-7.15258
-7.23645
-7.32192
-7.40819
-7.49354
-7.57788
-7.66106
-7.74386
-7.82444
-7.90481
-7.9871
-8.06942
-6.31478
-6.51065
-6.72938
-6.89016
-6.99744
-7.08023
-7.15926
-7.2414
-7.32625
-7.41218
-7.4972
-7.58105
-7.66427
-7.74738
-7.82892
-7.90886
-7.98951
-8.07139
-6.40703
-6.55761
-6.74204
-6.89566
-7.00769
-7.09285
-7.17023
-7.24999
-7.33353
-7.41874
-7.50313
-7.58617
-7.66878
-7.75163
-7.83387
-7.91369
-7.9932
-8.07387
-6.49106
-6.60829
-6.76194
-6.90439
-7.0182
-7.10556
-7.18169
-7.25887
-7.34049
-7.42457
-7.50807
-7.59015
-7.67182
-7.75409
-7.83624
-7.91575
-7.99376
-8.07184
-6.5681
-6.6607
-6.78739
-6.91615
-7.02886
-7.11808
-7.19364
-7.26844
-7.34788
-7.43056
-7.51303
-7.59403
-7.67453
-7.75562
-7.83687
-7.91586
-7.99216
-8.06709
-6.639
-6.71324
-6.81707
-6.93124
-7.04048
-7.13076
-7.20619
-7.27895
-7.35606
-7.43702
-7.51815
-7.5978
-7.67679
-7.7561
-7.83567
-7.91375
-7.9883
-8.06005
-6.70443
-6.76488
-6.84981
-6.94972
-7.0537
-7.14387
-7.21916
-7.29018
-7.36492
-7.44383
-7.52331
-7.60129
-7.67846
-7.75566
-7.83298
-7.90916
-7.98204
-8.05084
-6.76494
-6.81494
-6.88442
-6.97116
-7.0688
-7.15766
-7.23247
-7.30186
-7.37426
-7.45093
-7.52846
-7.60451
-7.67956
-7.75441
-7.82895
-7.9024
-7.9733
-8.0397
-6.81627
-6.85898
-6.91711
-6.99305
-7.08426
-7.17083
-7.24481
-7.31288
-7.3833
-7.45782
-7.53328
-7.60729
-7.68016
-7.75263
-7.82448
-7.89496
-7.96316
-8.02765
-6.86382
-6.90069
-6.94951
-7.0162
-7.10118
-7.18469
-7.25711
-7.32366
-7.3922
-7.46465
-7.53802
-7.60995
-7.68059
-7.75058
-7.81969
-7.88711
-7.95225
-8.01398
-6.91385
-6.94551
-6.98567
-7.04327
-7.12155
-7.20121
-7.27153
-7.33642
-7.40298
-7.473
-7.54371
-7.61292
-7.68081
-7.74785
-7.81377
-7.87781
-7.93938
-7.99774
-6.96488
-6.99177
-7.02452
-7.07462
-7.14641
-7.22091
-7.28752
-7.34991
-7.4144
-7.4821
-7.55009
-7.61637
-7.6812
-7.74501
-7.80743
-7.86775
-7.92548
-7.98014
-7.015
-7.03803
-7.06447
-7.10773
-7.17339
-7.2429
-7.30584
-7.36567
-7.42779
-7.49262
-7.55725
-7.62008
-7.68153
-7.74193
-7.80081
-7.85748
-7.91152
-7.96258
-7.06051
-7.08029
-7.10218
-7.14168
-7.20279
-7.2665
-7.32465
-7.38147
-7.4413
-7.50356
-7.5652
-7.62482
-7.68298
-7.74006
-7.79552
-7.84878
-7.89951
-7.94754
-7.09571
-7.11308
-7.13405
-7.17436
-7.23114
-7.2883
-7.34245
-7.3973
-7.45498
-7.51439
-7.57292
-7.62949
-7.68476
-7.73908
-7.79188
-7.84261
-7.891
-7.93702
-7.11222
-7.12739
-7.15336
-7.19785
-7.24989
-7.30194
-7.35499
-7.40951
-7.46572
-7.52302
-7.57952
-7.63422
-7.68764
-7.74019
-7.79132
-7.84057
-7.8878
-7.93301
-7.09798
-7.11301
-7.14966
-7.20011
-7.25032
-7.30199
-7.35698
-7.41313
-7.46959
-7.52617
-7.58188
-7.63616
-7.68926
-7.7414
-7.7922
-7.84125
-7.88861
-7.93421
-7.06487
-7.08505
-7.13323
-7.18994
-7.24167
-7.29575
-7.35377
-7.41197
-7.46904
-7.52548
-7.58125
-7.63591
-7.68936
-7.74163
-7.79256
-7.84183
-7.88956
-7.93577
-7.02148
-7.04819
-7.10793
-7.17236
-7.22833
-7.28621
-7.34777
-7.4082
-7.46602
-7.52271
-7.57898
-7.63431
-7.68823
-7.74073
-7.7919
-7.84162
-7.88991
-7.93686
-6.96935
-7.00538
-7.07789
-7.15139
-7.21349
-7.2765
-7.34156
-7.40315
-7.46097
-7.51805
-7.57539
-7.63178
-7.6863
-7.73905
-7.79045
-7.84068
-7.88953
-7.93706
-6.90844
-6.95765
-7.04632
-7.12969
-7.19781
-7.26682
-7.33615
-7.39875
-7.45624
-7.5134
-7.57124
-7.628
-7.68253
-7.73526
-7.78687
-7.83742
-7.88675
-7.93483
-6.83752
-6.90696
-7.01706
-7.11108
-7.18441
-7.258
-7.32963
-7.39263
-7.45089
-7.50966
-7.56891
-7.62632
-7.6811
-7.73411
-7.78608
-7.83696
-7.88649
-7.93467
-6.75716
-6.8567
-6.99271
-7.09556
-7.1744
-7.25305
-7.32528
-7.38682
-7.44479
-7.50401
-7.56326
-7.62029
-7.67488
-7.728
-7.7802
-7.83134
-7.88122
-7.92989
-6.66611
-6.81043
-6.97645
-7.08368
-7.1657
-7.24886
-7.32195
-7.38352
-7.44269
-7.50303
-7.56256
-7.61952
-7.6742
-7.72754
-7.77992
-7.83112
-7.88096
-7.92951
-6.55499
-6.75765
-6.95905
-7.07112
-7.15747
-7.24425
-7.31711
-7.37809
-7.4373
-7.4974
-7.55646
-7.6132
-7.668
-7.7216
-7.77417
-7.82545
-7.87541
-7.92437
-6.47663
-6.75446
-6.96889
-7.0689
-7.1539
-7.24269
-7.31603
-7.37737
-7.43678
-7.49659
-7.55526
-7.61186
-7.66679
-7.72053
-7.77319
-7.82428
-7.87387
-7.92195
-6.25755
-6.71029
-6.9637
-7.06348
-7.15104
-7.24113
-7.314
-7.3747
-7.43333
-7.49228
-7.55034
-7.60676
-7.66184
-7.71584
-7.76875
-7.81992
-7.86947
-7.91678
-5.58683
-6.17661
-6.49217
-6.61713
-6.69159
-6.76118
-6.83001
-6.89761
-6.96478
-7.03327
-7.10115
-7.17018
-7.23669
-7.3133
-7.39772
-7.5171
-7.63977
-7.80865
-5.80184
-6.20865
-6.49592
-6.6283
-6.70347
-6.77071
-6.83819
-6.90536
-6.97235
-7.0403
-7.10798
-7.17606
-7.24367
-7.31795
-7.40536
-7.51504
-7.64341
-7.79279
-5.90057
-6.21164
-6.48156
-6.62764
-6.70878
-6.77546
-6.84198
-6.90929
-6.97663
-7.04466
-7.11177
-7.17925
-7.24681
-7.32143
-7.40852
-7.51422
-7.63509
-7.7598
-6.01184
-6.25286
-6.49104
-6.63875
-6.72403
-6.78917
-6.85295
-6.91871
-6.98557
-7.05297
-7.11956
-7.18618
-7.25417
-7.32812
-7.41365
-7.51349
-7.6249
-7.73812
-6.11431
-6.29603
-6.49702
-6.64072
-6.73192
-6.79848
-6.86042
-6.92464
-6.99109
-7.05839
-7.12482
-7.19101
-7.2588
-7.33172
-7.41419
-7.50875
-7.61266
-7.72125
-6.20675
-6.34332
-6.51008
-6.64664
-6.74272
-6.81185
-6.87235
-6.93444
-6.99984
-7.06671
-7.13279
-7.19831
-7.26548
-7.3371
-7.41633
-7.50614
-7.60445
-7.7073
-6.29105
-6.39439
-6.53046
-6.65593
-6.75393
-6.82548
-6.88499
-6.94478
-7.0086
-7.07471
-7.14029
-7.2051
-7.27142
-7.34146
-7.41758
-7.50254
-7.59496
-7.69076
-6.36848
-6.44726
-6.55647
-6.66839
-6.76549
-6.83915
-6.89837
-6.95612
-7.01816
-7.0833
-7.14833
-7.21245
-7.27774
-7.34615
-7.41922
-7.49898
-7.58525
-7.67418
-6.43986
-6.50035
-6.58685
-6.68436
-6.77823
-6.85324
-6.91262
-6.96871
-7.0289
-7.09282
-7.15706
-7.22035
-7.28439
-7.35107
-7.42121
-7.49578
-7.57581
-7.65826
-6.50589
-6.55268
-6.62042
-6.70389
-6.7928
-6.86802
-6.92761
-6.98238
-7.04073
-7.10321
-7.1664
-7.22865
-7.29129
-7.35605
-7.42333
-7.49332
-7.56701
-7.64309
-6.56714
-6.60356
-6.65603
-6.72659
-6.8095
-6.88375
-6.94324
-6.99689
-7.05352
-7.11443
-7.17632
-7.23736
-7.2985
-7.36117
-7.42572
-7.49174
-7.55952
-7.62911
-6.61926
-6.64849
-6.68975
-6.74986
-6.82679
-6.89908
-6.95802
-7.01081
-7.0661
-7.12553
-7.18605
-7.24576
-7.30542
-7.36616
-7.42823
-7.49111
-7.55459
-7.61833
-6.66773
-6.69122
-6.72331
-6.7745
-6.84567
-6.91531
-6.97307
-7.0249
-7.07899
-7.13704
-7.19616
-7.25448
-7.31262
-7.37149
-7.43114
-7.49107
-7.55085
-7.61007
-6.71895
-6.73733
-6.76097
-6.80365
-6.86878
-6.93493
-6.9909
-7.04166
-7.09459
-7.1511
-7.20848
-7.26504
-7.32133
-7.37806
-7.4351
-7.49186
-7.54802
-7.60305
-6.77156
-6.78532
-6.80178
-6.83761
-6.89698
-6.95844
-7.01135
-7.06058
-7.11245
-7.16753
-7.22309
-7.27771
-7.33198
-7.38643
-7.44078
-7.49447
-7.54713
-7.59833
-6.82369
-6.83356
-6.84411
-6.87465
-6.92887
-6.98534
-7.03488
-7.08262
-7.13336
-7.18673
-7.24017
-7.29267
-7.34484
-7.39702
-7.44882
-7.49966
-7.54923
-7.59722
-6.87176
-6.87806
-6.88504
-6.91398
-6.96437
-7.01473
-7.06013
-7.10646
-7.15638
-7.20834
-7.25994
-7.31053
-7.36078
-7.41092
-7.46048
-7.50898
-7.55614
-7.60179
-6.90983
-6.91346
-6.92138
-6.95327
-6.99955
-7.04346
-7.08599
-7.13167
-7.1808
-7.23131
-7.28127
-7.33037
-7.37924
-7.42801
-7.47616
-7.52325
-7.56907
-7.61353
-6.9291
-6.93053
-6.94609
-6.98424
-7.0256
-7.06446
-7.10704
-7.15413
-7.20345
-7.25327
-7.30262
-7.35137
-7.39993
-7.44838
-7.49621
-7.54307
-7.58885
-7.63352
-6.91695
-6.91863
-6.94722
-6.99212
-7.03149
-7.07065
-7.11635
-7.16623
-7.21687
-7.26707
-7.3168
-7.36633
-7.41575
-7.46489
-7.51337
-7.56095
-7.60769
-7.65347
-6.8846
-6.89268
-6.93397
-6.98533
-7.02637
-7.06862
-7.11817
-7.17087
-7.2228
-7.27352
-7.324
-7.37464
-7.42515
-7.47514
-7.52444
-7.57289
-7.6206
-7.66751
-6.84263
-6.85768
-6.91077
-6.96982
-7.01537
-7.06199
-7.11583
-7.17145
-7.22462
-7.27598
-7.32746
-7.3793
-7.43081
-7.48152
-7.53155
-7.58081
-7.62953
-7.67755
-6.79214
-6.81676
-6.88241
-6.95009
-7.00188
-7.05431
-7.11242
-7.16967
-7.22309
-7.27518
-7.32824
-7.3815
-7.43408
-7.48549
-7.53617
-7.58632
-7.63578
-7.68459
-6.73273
-6.77067
-6.85216
-6.92914
-6.98684
-7.04591
-7.10915
-7.16777
-7.22078
-7.27289
-7.32645
-7.38064
-7.43347
-7.48507
-7.5361
-7.58694
-7.63723
-7.68687
-6.66308
-6.72149
-6.82388
-6.91071
-6.97385
-7.03843
-7.10446
-7.16336
-7.21701
-7.27091
-7.32631
-7.38135
-7.43464
-7.48671
-7.53835
-7.58967
-7.64032
-7.69017
-6.58386
-6.67286
-6.80049
-6.89452
-6.96344
-7.03458
-7.10198
-7.15923
-7.21232
-7.26669
-7.32219
-7.37684
-7.42998
-7.48227
-7.5343
-7.58602
-7.63715
-7.68765
-6.49378
-6.62794
-6.78493
-6.88207
-6.95441
-7.03094
-7.09935
-7.15633
-7.21056
-7.26626
-7.32226
-7.37698
-7.43032
-7.48296
-7.53531
-7.58722
-7.63843
-7.68889
-6.38245
-6.57604
-6.76758
-6.86884
-6.94687
-7.02804
-7.09603
-7.15199
-7.20607
-7.26145
-7.31688
-7.3713
-7.42476
-7.47771
-7.53034
-7.58241
-7.63383
-7.68478
-6.3056
-6.57358
-6.77606
-6.86493
-6.94271
-7.02656
-7.09497
-7.15124
-7.20563
-7.26082
-7.31591
-7.37021
-7.42385
-7.47702
-7.52982
-7.58179
-7.63292
-7.68306
-6.08589
-6.52929
-6.77069
-6.85979
-6.94086
-7.02613
-7.0938
-7.14922
-7.20266
-7.2568
-7.31115
-7.36519
-7.41896
-7.47242
-7.52554
-7.57765
-7.62878
-7.67821
-5.42798
-6.00351
-6.30093
-6.40685
-6.46101
-6.50763
-6.54992
-6.58691
-6.61905
-6.64708
-6.66881
-6.68381
-6.68942
-6.69277
-6.69338
-6.7101
-6.72498
-6.76979
-5.64304
-6.03568
-6.30478
-6.41814
-6.47309
-6.5175
-6.55863
-6.59541
-6.62757
-6.65542
-6.67718
-6.69211
-6.69909
-6.70274
-6.7064
-6.72024
-6.74327
-6.7858
-5.74184
-6.03883
-6.29061
-6.41771
-6.47876
-6.52279
-6.56322
-6.60041
-6.63333
-6.66173
-6.68364
-6.69897
-6.70751
-6.71405
-6.72178
-6.73874
-6.76627
-6.80835
-5.85328
-6.08029
-6.30035
-6.42913
-6.49444
-6.53717
-6.57515
-6.6112
-6.64407
-6.67252
-6.69471
-6.71064
-6.72142
-6.73077
-6.74231
-6.76119
-6.7902
-6.82953
-5.95596
-6.12386
-6.30684
-6.43157
-6.50293
-6.54738
-6.5839
-6.61887
-6.65191
-6.68106
-6.70416
-6.72128
-6.73416
-6.7461
-6.76051
-6.78134
-6.81116
-6.85024
-6.0486
-6.17165
-6.32059
-6.43816
-6.51454
-6.5619
-6.59741
-6.63078
-6.66346
-6.69314
-6.71718
-6.73548
-6.75025
-6.76462
-6.7817
-6.80449
-6.83504
-6.87341
-6.13324
-6.22322
-6.34169
-6.44829
-6.52679
-6.57693
-6.61194
-6.64364
-6.67561
-6.70568
-6.73072
-6.75039
-6.76708
-6.78381
-6.80322
-6.82752
-6.85826
-6.89531
-6.21121
-6.27663
-6.36847
-6.46181
-6.53969
-6.59234
-6.6276
-6.65801
-6.6892
-6.71963
-6.7458
-6.76703
-6.78568
-6.80457
-6.82591
-6.85133
-6.88202
-6.91771
-6.28327
-6.3304
-6.39973
-6.47907
-6.5541
-6.60856
-6.64458
-6.67418
-6.70465
-6.73534
-6.76261
-6.78542
-6.80594
-6.82676
-6.84972
-6.87603
-6.90657
-6.94101
-6.35013
-6.38358
-6.43433
-6.5001
-6.57067
-6.62588
-6.66279
-6.69201
-6.72192
-6.75279
-6.78104
-6.80537
-6.82766
-6.85025
-6.87463
-6.90161
-6.93187
-6.96513
-6.41235
-6.43552
-6.47119
-6.52457
-6.58972
-6.64456
-6.68212
-6.71128
-6.7409
-6.77196
-6.80109
-6.82683
-6.85079
-6.87498
-6.90057
-6.92811
-6.95808
-6.99027
-6.46555
-6.4816
-6.50624
-6.54968
-6.60955
-6.66307
-6.70079
-6.73013
-6.7598
-6.79111
-6.82095
-6.84786
-6.87324
-6.89881
-6.92543
-6.95347
-6.98326
-7.01463
-6.5152
-6.52569
-6.54134
-6.57635
-6.6312
-6.68277
-6.72013
-6.74967
-6.77964
-6.81132
-6.84183
-6.86983
-6.89654
-6.92339
-6.95099
-6.97952
-7.00923
-7.03998
-6.56796
-6.57353
-6.58101
-6.60826
-6.65805
-6.70691
-6.74333
-6.77313
-6.80373
-6.83599
-6.86722
-6.89633
-6.92443
-6.95263
-6.98128
-7.01043
-7.04024
-7.07059
-6.62262
-6.62385
-6.62451
-6.64567
-6.69084
-6.73605
-6.77068
-6.80075
-6.83239
-6.8655
-6.89757
-6.92788
-6.95747
-6.98716
-7.01707
-7.0471
-7.07735
-7.10771
-6.67733
-6.67474
-6.67024
-6.68787
-6.72922
-6.76999
-6.80238
-6.833
-6.86602
-6.90014
-6.93318
-6.96486
-6.99616
-7.02758
-7.059
-7.09026
-7.12142
-7.1524
-6.72869
-6.72246
-6.71555
-6.73409
-6.77272
-6.80783
-6.83765
-6.8694
-6.90431
-6.93977
-6.97408
-7.00746
-7.04077
-7.07421
-7.10754
-7.14059
-7.17336
-7.20584
-6.77046
-6.76162
-6.75776
-6.78176
-6.81703
-6.84622
-6.87493
-6.90886
-6.94585
-6.98283
-7.01883
-7.05442
-7.09028
-7.12638
-7.16233
-7.19796
-7.23327
-7.26826
-6.79411
-6.78323
-6.79008
-6.82274
-6.85333
-6.87826
-6.90917
-6.94715
-6.98713
-7.02633
-7.06485
-7.10354
-7.14276
-7.18227
-7.22165
-7.26078
-7.29967
-7.33832
-6.78441
-6.77498
-6.79742
-6.83789
-6.86682
-6.8933
-6.92911
-6.97171
-7.01498
-7.05669
-7.09792
-7.13984
-7.18243
-7.22517
-7.26777
-7.3102
-7.35257
-7.39476
-6.75357
-6.75198
-6.78851
-6.83582
-6.86683
-6.89734
-6.9382
-6.98485
-7.03058
-7.07401
-7.11736
-7.16192
-7.20719
-7.25238
-7.29737
-7.34224
-7.38716
-7.43202
-6.71401
-6.72014
-6.76913
-6.82394
-6.85955
-6.8951
-6.94119
-6.99168
-7.03945
-7.08422
-7.12966
-7.17639
-7.22372
-7.27069
-7.31754
-7.36432
-7.41127
-7.45824
-6.66591
-6.6823
-6.7434
-6.80633
-6.84836
-6.89047
-6.94173
-6.99446
-7.04292
-7.08923
-7.13761
-7.1857
-7.23465
-7.28306
-7.3319
-7.37994
-7.42839
-7.47682
-6.60895
-6.63908
-6.71549
-6.78689
-6.83471
-6.88413
-6.94137
-6.99589
-7.04406
-7.09051
-7.13799
-7.1893
-7.23928
-7.28839
-7.3369
-7.38698
-7.43699
-7.48699
-6.54147
-6.59157
-6.68832
-6.76875
-6.82232
-6.87833
-6.93905
-6.99387
-7.04265
-7.09117
-7.14182
-7.19366
-7.24447
-7.29446
-7.34443
-7.39502
-7.44566
-7.49612
-6.46282
-6.5433
-6.66468
-6.75159
-6.81141
-6.87559
-6.93862
-6.99177
-7.03981
-7.08884
-7.13987
-7.19134
-7.24209
-7.29248
-7.34321
-7.39445
-7.44587
-7.49728
-6.37319
-6.49889
-6.64919
-6.73838
-6.80221
-6.8727
-6.93693
-6.98957
-7.03872
-7.08934
-7.14117
-7.19291
-7.24404
-7.29501
-7.34631
-7.39795
-7.44964
-7.50119
-6.2617
-6.44903
-6.63257
-6.72459
-6.7953
-6.87154
-6.93528
-6.9865
-7.03532
-7.08555
-7.13676
-7.18815
-7.23942
-7.29079
-7.34252
-7.39448
-7.44651
-7.49871
-6.18627
-6.44634
-6.63915
-6.71884
-6.79035
-6.87011
-6.93428
-6.98578
-7.03506
-7.08523
-7.13618
-7.1875
-7.23902
-7.29073
-7.34275
-7.39472
-7.44657
-7.49807
-5.96585
-6.4021
-6.6335
-6.71383
-6.7895
-6.87088
-6.93406
-6.98447
-7.0326
-7.08155
-7.13164
-7.18262
-7.23426
-7.2863
-7.33871
-7.39089
-7.44281
-7.49366
-5.36901
-5.93766
-6.22561
-6.32091
-6.36285
-6.39423
-6.41724
-6.42975
-6.43127
-6.41942
-6.39049
-6.33699
-6.25588
-6.13877
-5.991
-5.8009
-5.58182
-5.32926
-5.58411
-5.96989
-6.2295
-6.33227
-6.3751
-6.40442
-6.42644
-6.43902
-6.44083
-6.42948
-6.40101
-6.34945
-6.27053
-6.15987
-6.01686
-5.84365
-5.64258
-5.46151
-5.68298
-5.97315
-6.21545
-6.33199
-6.38105
-6.41015
-6.43175
-6.44505
-6.44817
-6.43815
-6.4111
-6.36202
-6.28785
-6.18637
-6.05786
-5.90858
-5.74647
-5.6084
-5.79454
-6.01476
-6.22537
-6.34366
-6.3971
-6.42513
-6.44453
-6.45715
-6.46077
-6.45188
-6.42641
-6.38069
-6.31265
-6.2218
-6.10921
-5.98213
-5.85078
-5.73827
-5.89738
-6.05857
-6.23215
-6.34646
-6.4061
-6.43609
-6.45437
-6.46643
-6.47092
-6.4639
-6.44106
-6.39956
-6.33835
-6.25803
-6.16075
-6.05338
-5.94567
-5.85168
-5.99024
-6.10666
-6.2463
-6.35355
-6.4184
-6.45159
-6.46924
-6.48027
-6.48522
-6.48008
-6.46018
-6.42317
-6.36904
-6.29924
-6.21653
-6.12672
-6.03804
-5.96017
-6.07519
-6.15862
-6.2679
-6.36433
-6.4315
-6.46781
-6.48538
-6.49542
-6.50065
-6.49741
-6.48079
-6.4487
-6.40195
-6.34252
-6.27327
-6.19886
-6.12596
-6.062
-6.15355
-6.2125
-6.29528
-6.37864
-6.44545
-6.48466
-6.50299
-6.51249
-6.51806
-6.51686
-6.50387
-6.47711
-6.43785
-6.38834
-6.3313
-6.27047
-6.21126
-6.15925
-6.22612
-6.26685
-6.32726
-6.39686
-6.46118
-6.50263
-6.5223
-6.53179
-6.5379
-6.53882
-6.52962
-6.50831
-6.4764
-6.43623
-6.39026
-6.34155
-6.29429
-6.25254
-6.2936
-6.32075
-6.36274
-6.41905
-6.47933
-6.52204
-6.54323
-6.55326
-6.56019
-6.56325
-6.55783
-6.54196
-6.51717
-6.48576
-6.44988
-6.4119
-6.37502
-6.34216
-6.35656
-6.37355
-6.40066
-6.44492
-6.50025
-6.54314
-6.56566
-6.57667
-6.58481
-6.59016
-6.58848
-6.5779
-6.5599
-6.53663
-6.50987
-6.48142
-6.45372
-6.42887
-6.41057
-6.42056
-6.43682
-6.47154
-6.52216
-6.5643
-6.5876
-6.59977
-6.60942
-6.617
-6.61866
-6.61274
-6.60066
-6.58433
-6.56517
-6.54456
-6.5244
-6.50629
-6.46114
-6.46574
-6.47321
-6.49988
-6.54605
-6.58684
-6.61054
-6.62402
-6.63547
-6.64539
-6.65028
-6.64878
-6.64227
-6.63235
-6.62014
-6.60666
-6.59336
-6.58147
-6.5151
-6.51494
-6.51455
-6.53414
-6.57602
-6.61469
-6.63819
-6.65317
-6.66704
-6.67983
-6.68838
-6.6917
-6.69112
-6.68795
-6.68294
-6.67683
-6.6707
-6.66544
-6.57134
-6.56707
-6.5602
-6.5745
-6.61266
-6.64846
-6.67126
-6.68815
-6.70509
-6.72114
-6.7336
-6.74202
-6.74768
-6.75151
-6.75394
-6.75541
-6.7567
-6.7584
-6.62807
-6.62007
-6.60861
-6.62092
-6.65638
-6.68811
-6.70966
-6.72908
-6.74984
-6.76963
-6.78635
-6.80023
-6.8124
-6.82337
-6.8333
-6.84242
-6.85127
-6.86026
-6.68195
-6.67026
-6.65739
-6.67302
-6.70719
-6.73344
-6.75326
-6.77596
-6.80116
-6.82501
-6.84628
-6.86588
-6.88472
-6.90291
-6.92038
-6.93725
-6.95388
-6.97054
-6.72668
-6.71199
-6.70419
-6.72801
-6.75923
-6.77973
-6.80016
-6.82745
-6.85731
-6.88548
-6.9117
-6.93736
-6.9631
-6.98867
-7.01379
-7.03855
-7.06317
-7.08781
-6.75354
-6.73697
-6.74277
-6.77734
-6.80382
-6.82064
-6.84518
-6.87894
-6.91429
-6.9473
-6.97901
-7.01118
-7.04411
-7.0772
-7.11007
-7.14281
-7.1756
-7.20846
-6.74685
-6.73215
-6.75559
-6.79878
-6.8237
-6.84298
-6.87387
-6.91387
-6.95423
-6.99161
-7.02805
-7.06569
-7.1044
-7.14329
-7.18207
-7.22093
-7.26007
-7.29936
-6.71698
-6.71253
-6.75128
-6.80126
-6.82818
-6.85208
-6.88901
-6.93413
-6.97796
-7.01809
-7.05783
-7.09944
-7.14223
-7.18501
-7.2277
-7.27059
-7.31391
-7.35751
-6.68036
-6.68363
-6.73439
-6.79168
-6.82352
-6.85318
-6.89628
-6.94614
-6.99275
-7.03492
-7.07743
-7.12217
-7.16794
-7.21343
-7.25884
-7.30463
-7.35095
-7.39763
-6.63351
-6.64664
-6.70989
-6.77549
-6.81386
-6.85083
-6.90007
-6.95275
-7.0003
-7.0442
-7.08971
-7.13717
-7.18527
-7.23283
-7.28044
-7.32847
-7.37703
-7.42587
-6.57738
-6.60398
-6.68257
-6.75648
-6.80083
-6.84604
-6.90217
-6.95702
-7.00445
-7.04914
-7.09577
-7.14503
-7.19405
-7.24261
-7.29174
-7.34175
-7.39241
-7.44349
-6.5101
-6.55737
-6.65634
-6.73869
-6.78906
-6.84184
-6.90206
-6.95717
-7.00503
-7.05171
-7.10091
-7.15209
-7.20283
-7.25272
-7.30274
-7.35377
-7.40533
-7.45699
-6.43297
-6.5111
-6.63404
-6.72105
-6.77778
-6.84012
-6.90344
-6.95683
-7.00373
-7.05093
-7.10059
-7.15152
-7.20215
-7.25258
-7.30354
-7.35543
-7.40792
-7.46076
-6.34387
-6.46813
-6.61981
-6.70807
-6.769
-6.83828
-6.90277
-6.95527
-7.00323
-7.05221
-7.10289
-7.15424
-7.20538
-7.25652
-7.30825
-7.36073
-7.41363
-7.46674
-6.23239
-6.41919
-6.603
-6.69331
-6.76244
-6.83866
-6.90273
-6.95345
-7.00085
-7.04933
-7.0993
-7.15021
-7.20146
-7.25307
-7.30533
-7.35823
-7.41159
-7.46547
-6.15825
-6.41668
-6.60871
-6.68624
-6.75707
-6.83744
-6.90178
-6.95269
-7.00068
-7.04926
-7.09903
-7.14991
-7.20146
-7.25348
-7.30614
-7.35915
-7.41241
-7.46569
-5.9372
-6.37294
-6.6026
-6.6813
-6.7572
-6.8394
-6.90254
-6.9521
-6.99873
-7.0459
-7.09467
-7.14513
-7.19677
-7.24915
-7.30226
-7.35554
-7.40893
-7.46161
-5.43523
-6.01019
-6.30581
-6.40906
-6.45901
-6.49858
-6.53036
-6.55307
-6.56689
-6.57089
-6.56191
-6.53572
-6.48975
-6.42322
-6.33884
-6.24105
-6.12745
-6.01275
-5.65031
-6.04236
-6.30962
-6.42033
-6.47119
-6.50876
-6.53956
-6.5623
-6.57637
-6.58064
-6.57195
-6.54685
-6.50268
-6.43986