/*--------------------------------*- C++ -*----------------------------------*\
| =========                 |                                                 |
| \\      /  F ield         | OpenFOAM: The Open Source CFD Toolbox           |
|  \\    /   O peration     | Version:  2112                                  |
|   \\  /    A nd           | Website:  www.openfoam.com                      |
|    \\/     M anipulation  |                                                 |
\*---------------------------------------------------------------------------*/
FoamFile
{
    version     2.0;
    format      ascii;
    arch        "LSB;label=32;scalar=64";
    class       volScalarField;
    location    "0.12";
    object      s_0;
}
// * * * * * * * * * * * * * * * * * * * * * * * * * * * * * * * * * * * * * //

dimensions      [0 0 0 0 0 0 0];

internalField   nonuniform List<scalar> 
122250
(
0.996416
0.983007
0.98181
0.987661
0.988376
0.988689
0.988784
0.988298
0.985179
0.973173
0.953495
0.95466
0.942121
0.933985
0.914924
0.898217
0.872966
0.867278
0.98915
0.979959
0.979866
0.986035
0.987416
0.988588
0.989092
0.989173
0.988683
0.9827
0.97628
0.980046
0.981101
0.979947
0.970151
0.924813
0.868276
0.86145
0.983236
0.979063
0.981289
0.986268
0.987174
0.988136
0.989004
0.98932
0.98912
0.983447
0.97999
0.981069
0.98179
0.981789
0.980221
0.964973
0.895163
0.869752
0.986806
0.985901
0.984241
0.981478
0.984186
0.98696
0.988565
0.988456
0.983909
0.979975
0.978291
0.979291
0.980563
0.981312
0.980641
0.967865
0.884905
0.859331
0.991395
0.989423
0.987296
0.979431
0.979896
0.984036
0.987425
0.987053
0.978914
0.969665
0.96985
0.973913
0.979119
0.981087
0.980147
0.957627
0.835005
0.823488
0.990773
0.991707
0.988556
0.982189
0.976196
0.98104
0.980899
0.981474
0.979561
0.97074
0.967751
0.970088
0.978198
0.981308
0.979047
0.936072
0.784773
0.770565
0.991282
0.99206
0.991557
0.990977
0.976684
0.97568
0.978415
0.983178
0.983033
0.978942
0.970324
0.970769
0.978324
0.981557
0.975148
0.88587
0.745398
0.727495
0.991931
0.991024
0.992788
0.991832
0.988178
0.985919
0.986047
0.988544
0.989421
0.985952
0.974218
0.973248
0.97949
0.981836
0.959368
0.807728
0.732581
0.72308
0.992869
0.989594
0.992965
0.990762
0.985753
0.983771
0.981659
0.981532
0.987331
0.987987
0.9809
0.97817
0.982533
0.983174
0.935866
0.782883
0.751178
0.754622
0.994231
0.988514
0.992924
0.99255
0.98765
0.974412
0.979234
0.977831
0.981248
0.986376
0.985056
0.983805
0.986067
0.984769
0.912812
0.785503
0.793842
0.807612
0.994021
0.986761
0.99244
0.993905
0.987548
0.976118
0.971969
0.976137
0.974597
0.978549
0.982704
0.984694
0.987649
0.983992
0.877093
0.789638
0.799157
0.803127
0.994006
0.988493
0.992402
0.994184
0.981202
0.978862
0.970151
0.976225
0.97161
0.972119
0.977185
0.98459
0.987743
0.974926
0.832382
0.818517
0.866508
0.894222
0.995367
0.995304
0.99634
0.991776
0.978688
0.975583
0.978866
0.979977
0.974352
0.972892
0.977244
0.985982
0.98679
0.916936
0.836317
0.934196
0.971233
0.988569
0.995645
0.996791
0.996821
0.991548
0.982612
0.976397
0.978014
0.980343
0.984521
0.984192
0.985675
0.985629
0.939947
0.850933
0.910457
0.977737
0.987576
0.993851
0.996595
0.997275
0.996928
0.994598
0.997415
0.99607
0.986615
0.975006
0.973771
0.970971
0.945249
0.915062
0.877543
0.885564
0.956037
0.981809
0.98619
0.991167
0.996985
0.998314
0.998255
0.995601
0.997779
0.998936
0.996836
0.983084
0.973921
0.959465
0.935483
0.909864
0.903649
0.944268
0.964922
0.978479
0.981617
0.985968
0.998612
0.99877
0.99924
0.998949
0.999237
0.999387
0.996636
0.990653
0.979404
0.967299
0.962403
0.958112
0.961585
0.973072
0.979828
0.98202
0.984243
0.988857
0.999888
0.999413
0.999473
0.999561
0.99964
0.999495
0.998404
0.997912
0.994276
0.989182
0.984679
0.981456
0.979945
0.981011
0.983021
0.987882
0.993164
0.994268
0.999975
0.99955
0.999692
0.999847
0.999848
0.998713
0.997269
0.99717
0.996801
0.995365
0.993149
0.990744
0.988975
0.989491
0.992794
0.994339
0.99336
0.992544
0.999994
0.999866
0.999906
0.999959
0.999788
0.997728
0.99787
0.997698
0.997537
0.997479
0.997784
0.997501
0.99702
0.996739
0.996406
0.995833
0.995698
0.995955
0.999999
0.999972
0.999973
0.999971
0.999929
0.99872
0.998675
0.998424
0.997779
0.997821
0.998601
0.998636
0.99823
0.997907
0.997459
0.99698
0.997078
0.997722
1
0.999976
0.999963
0.999914
0.99992
0.999605
0.998859
0.998935
0.998925
0.998619
0.998621
0.9985
0.997993
0.997484
0.997323
0.997633
0.998598
0.999014
1
0.999885
0.999892
0.999854
0.999842
0.999794
0.999056
0.999051
0.99927
0.999346
0.999325
0.999296
0.999034
0.997904
0.997662
0.998455
0.999048
0.99921
0.999997
0.999827
0.999755
0.999747
0.999758
0.999748
0.999489
0.99919
0.999302
0.999335
0.999315
0.99929
0.999183
0.998814
0.998824
0.99915
0.999321
0.999372
0.999983
0.999723
0.999691
0.999657
0.999649
0.999658
0.999649
0.999436
0.999366
0.99936
0.999343
0.999329
0.999303
0.999238
0.99927
0.99937
0.999406
0.999415
0.999925
0.999618
0.999616
0.999624
0.999633
0.999632
0.999628
0.999522
0.999415
0.999423
0.999414
0.99938
0.999342
0.999332
0.999364
0.999417
0.99944
0.999455
0.99976
0.999591
0.999594
0.999599
0.999613
0.999615
0.999608
0.999494
0.999392
0.999415
0.999446
0.999438
0.999413
0.999405
0.999427
0.999462
0.999474
0.999481
0.999703
0.999585
0.999586
0.999589
0.999603
0.999587
0.999574
0.999461
0.999386
0.999408
0.999447
0.999449
0.999447
0.999447
0.999468
0.999499
0.999513
0.999519
0.999686
0.999585
0.999586
0.999592
0.999594
0.999574
0.999455
0.999402
0.999393
0.999408
0.999444
0.99946
0.999462
0.999467
0.999488
0.99951
0.999514
0.99951
0.999732
0.999585
0.999586
0.999591
0.999592
0.999587
0.999488
0.999394
0.99939
0.999402
0.999433
0.999446
0.99945
0.999465
0.999488
0.999492
0.999481
0.999458
0.992444
0.983442
0.984976
0.988388
0.9885
0.988602
0.988799
0.989072
0.988174
0.968802
0.946316
0.949664
0.938515
0.936738
0.911376
0.890639
0.873405
0.869495
0.987304
0.9842
0.98809
0.989666
0.989103
0.989243
0.989537
0.989558
0.989202
0.982609
0.960381
0.967241
0.978193
0.979061
0.970055
0.925338
0.883563
0.873618
0.986014
0.985215
0.989318
0.990448
0.988481
0.988644
0.989459
0.989837
0.989645
0.986107
0.971418
0.972659
0.97982
0.982019
0.981708
0.974942
0.928546
0.891752
0.986536
0.986327
0.989449
0.989868
0.986372
0.987202
0.988867
0.988875
0.988231
0.984381
0.972456
0.972083
0.977431
0.980729
0.981616
0.979752
0.952665
0.901579
0.990796
0.98665
0.9908
0.988599
0.984099
0.985313
0.987499
0.98654
0.975038
0.970818
0.96796
0.96807
0.973276
0.978548
0.980269
0.978265
0.932161
0.868887
0.994462
0.987431
0.993903
0.990694
0.983301
0.982731
0.981338
0.982701
0.975778
0.961319
0.95938
0.961671
0.971261
0.97834
0.979539
0.973186
0.880151
0.801928
0.993516
0.989857
0.994288
0.992806
0.986735
0.987379
0.98543
0.984639
0.981194
0.964242
0.957403
0.96064
0.972096
0.97893
0.978971
0.957828
0.80743
0.745267
0.991779
0.991266
0.993874
0.992483
0.98781
0.983708
0.978083
0.983592
0.984265
0.973676
0.962308
0.964846
0.974514
0.979413
0.976808
0.915751
0.758038
0.729377
0.992012
0.991136
0.993668
0.992915
0.986754
0.97964
0.970099
0.972472
0.981446
0.979125
0.972926
0.973467
0.978006
0.980197
0.968744
0.846395
0.753606
0.742706
0.993566
0.991759
0.99432
0.995093
0.988743
0.978108
0.971844
0.95981
0.9684
0.976254
0.975646
0.976263
0.980481
0.980664
0.936855
0.797184
0.775527
0.77738
0.995063
0.992105
0.995579
0.995911
0.989107
0.978086
0.978544
0.950952
0.951517
0.962088
0.970067
0.975544
0.982171
0.97757
0.863249
0.784883
0.79045
0.809326
0.996054
0.993429
0.996182
0.996656
0.989277
0.981005
0.979427
0.948725
0.941731
0.948014
0.962614
0.976269
0.982612
0.954186
0.813386
0.795468
0.815036
0.822396
0.996824
0.996066
0.996919
0.997101
0.989183
0.976719
0.979505
0.969455
0.953797
0.952554
0.964193
0.97993
0.979699
0.880955
0.831032
0.885218
0.929088
0.933197
0.996495
0.996594
0.997382
0.996396
0.990524
0.976679
0.978514
0.980912
0.978182
0.973716
0.978553
0.979782
0.920639
0.868079
0.922243
0.967327
0.984152
0.990489
0.996648
0.996951
0.998043
0.99534
0.994198
0.994598
0.987575
0.976035
0.981445
0.974349
0.941833
0.919593
0.908932
0.93842
0.960733
0.983472
0.987645
0.992134
0.997005
0.998167
0.998431
0.995296
0.995782
0.996958
0.995284
0.984921
0.975166
0.957489
0.924866
0.912988
0.949996
0.973021
0.974309
0.982468
0.984501
0.98652
0.999477
0.998972
0.999038
0.998379
0.998948
0.998107
0.994202
0.988516
0.978577
0.963259
0.951228
0.947755
0.963929
0.97457
0.976594
0.980393
0.982587
0.987727
0.999742
0.998844
0.999122
0.999121
0.999171
0.999287
0.998694
0.997258
0.994065
0.989064
0.983822
0.979188
0.976874
0.977451
0.978448
0.980945
0.988236
0.993809
0.999833
0.998912
0.999154
0.999692
0.999808
0.998858
0.99754
0.997296
0.997015
0.996395
0.994706
0.991086
0.986889
0.983285
0.985893
0.992663
0.994015
0.99402
0.999943
0.999421
0.999594
0.999874
0.999831
0.997905
0.998284
0.997966
0.9976
0.997031
0.996975
0.997206
0.99604
0.995314
0.995987
0.996121
0.996109
0.996219
0.999983
0.999781
0.999882
0.999952
0.99993
0.999105
0.998792
0.998745
0.998245
0.997305
0.997373
0.997883
0.997987
0.997737
0.997489
0.997022
0.997
0.997188
0.999994
0.999975
0.999957
0.999915
0.999921
0.999671
0.999028
0.998953
0.999033
0.998528
0.997823
0.99762
0.99759
0.997427
0.997425
0.997655
0.998407
0.998841
0.999998
0.999955
0.999938
0.99985
0.999842
0.999788
0.999037
0.999197
0.99931
0.999291
0.999122
0.998694
0.998046
0.997614
0.99778
0.998635
0.999117
0.999284
0.999995
0.999897
0.999873
0.999815
0.999768
0.999748
0.999313
0.999309
0.999346
0.999333
0.999242
0.999108
0.998889
0.998693
0.998867
0.999167
0.999254
0.999291
0.999978
0.999741
0.999777
0.999761
0.999701
0.999684
0.999582
0.999396
0.999392
0.999366
0.999316
0.999299
0.999269
0.999263
0.99932
0.999398
0.999435
0.99945
0.999885
0.999627
0.99968
0.999684
0.999664
0.999648
0.99963
0.999553
0.999514
0.999414
0.99937
0.999376
0.99939
0.999406
0.999451
0.999491
0.999508
0.999513
0.999703
0.999586
0.999637
0.999638
0.999629
0.999625
0.999626
0.999608
0.999549
0.99951
0.999505
0.999502
0.99949
0.999488
0.999493
0.999503
0.999506
0.999507
0.999657
0.999583
0.999624
0.999624
0.999639
0.999599
0.999541
0.999531
0.999495
0.999487
0.999498
0.999504
0.9995
0.999498
0.999499
0.999506
0.99951
0.999507
0.999644
0.999599
0.999624
0.999628
0.999635
0.999585
0.999481
0.999409
0.999404
0.999421
0.999459
0.999461
0.999458
0.999467
0.999489
0.999498
0.999496
0.999478
0.999663
0.999602
0.999615
0.999612
0.999616
0.999612
0.999571
0.999456
0.999402
0.999406
0.999424
0.999428
0.99944
0.999461
0.999478
0.99948
0.999475
0.999453
0.991937
0.98448
0.98803
0.988137
0.987626
0.987243
0.987138
0.987756
0.988103
0.980109
0.945227
0.943758
0.933497
0.91316
0.837056
0.827082
0.821459
0.833744
0.987729
0.986185
0.989664
0.989485
0.988803
0.989362
0.989699
0.989446
0.988886
0.985036
0.957141
0.954266
0.963494
0.952962
0.911371
0.903745
0.875167
0.861876
0.987472
0.988685
0.990046
0.990541
0.987784
0.987288
0.988793
0.989925
0.989602
0.986607
0.960606
0.950422
0.968543
0.97633
0.977171
0.966749
0.909096
0.882689
0.987301
0.988074
0.989178
0.990176
0.987227
0.986272
0.986215
0.987048
0.988408
0.985901
0.966122
0.948775
0.963908
0.977312
0.980478
0.974959
0.910616
0.878664
0.989353
0.98637
0.989021
0.989948
0.989131
0.986282
0.985242
0.98027
0.9751
0.977896
0.967077
0.955344
0.965911
0.977214
0.979963
0.970355
0.850901
0.841601
0.993385
0.986482
0.990335
0.990666
0.989246
0.986842
0.98502
0.982404
0.962669
0.96087
0.959487
0.958532
0.967994
0.977166
0.978992
0.957327
0.794866
0.765008
0.99387
0.987817
0.991244
0.991226
0.988894
0.986797
0.986606
0.985961
0.964182
0.949912
0.951574
0.957558
0.967245
0.976308
0.977302
0.935344
0.763906
0.730421
0.992515
0.989817
0.992069
0.991003
0.989298
0.982994
0.979068
0.983861
0.971234
0.941871
0.942677
0.954214
0.96525
0.974712
0.973508
0.883905
0.753399
0.732023
0.991599
0.990818
0.993803
0.992212
0.989922
0.978362
0.953571
0.972346
0.965977
0.940977
0.943751
0.954554
0.965533
0.97383
0.958729
0.809396
0.757595
0.750292
0.991891
0.99171
0.994739
0.993264
0.989578
0.971334
0.943408
0.947725
0.94972
0.94134
0.947193
0.956068
0.968328
0.970897
0.883408
0.782309
0.781369
0.789322
0.993715
0.993532
0.995975
0.995188
0.986821
0.970664
0.956349
0.904902
0.917988
0.928942
0.947186
0.961505
0.971442
0.939915
0.82901
0.829011
0.871044
0.89626
0.995788
0.995191
0.996905
0.996662
0.986881
0.979642
0.980224
0.898713
0.905254
0.921608
0.950038
0.968625
0.959223
0.876173
0.861126
0.920551
0.920286
0.916298
0.997257
0.996371
0.99763
0.997477
0.988003
0.978374
0.98267
0.93935
0.916406
0.925233
0.960315
0.96882
0.913677
0.87603
0.936041
0.94454
0.945004
0.933111
0.998034
0.996812
0.998083
0.996684
0.98708
0.984292
0.983314
0.982018
0.96778
0.951185
0.968479
0.933609
0.893381
0.932986
0.963092
0.96689
0.980809
0.983313
0.998189
0.997105
0.998277
0.994028
0.990093
0.990456
0.987745
0.980067
0.982723
0.96215
0.922378
0.908643
0.935441
0.970635
0.972184
0.98277
0.989259
0.992729
0.998977
0.998072
0.998511
0.995366
0.992268
0.989956
0.992362
0.984405
0.979296
0.958131
0.922357
0.924844
0.971169
0.984154
0.982103
0.983094
0.988081
0.988481
0.999703
0.998572
0.99855
0.998104
0.997703
0.995713
0.994082
0.990481
0.983473
0.963945
0.94636
0.955292
0.974853
0.981414
0.981365
0.981363
0.982258
0.984577
0.999114
0.998538
0.99865
0.998544
0.99885
0.999021
0.997956
0.997152
0.996706
0.992178
0.985739
0.984878
0.980855
0.980738
0.981114
0.982061
0.982974
0.987032
0.999185
0.99869
0.998853
0.999327
0.999635
0.998828
0.998032
0.997833
0.997747
0.997374
0.995896
0.995057
0.991675
0.9847
0.984311
0.98775
0.993023
0.994275
0.999641
0.99921
0.999319
0.999749
0.999815
0.998233
0.998462
0.998494
0.998149
0.997331
0.996714
0.996685
0.996048
0.993973
0.994292
0.995516
0.995988
0.996148
0.999854
0.999544
0.99968
0.999909
0.999902
0.999076
0.99909
0.998943
0.99873
0.997618
0.996832
0.996821
0.997084
0.996963
0.9969
0.996699
0.996736
0.996776
0.999931
0.999717
0.999871
0.99991
0.999904
0.999536
0.99917
0.998984
0.999012
0.998945
0.997832
0.997022
0.997
0.997007
0.997204
0.997689
0.998322
0.998647
0.999966
0.999845
0.999902
0.999848
0.999854
0.999775
0.999292
0.999185
0.999254
0.999295
0.999093
0.998446
0.997874
0.997714
0.998116
0.998705
0.999077
0.99923
0.999968
0.999818
0.999873
0.99981
0.999793
0.999756
0.999354
0.999319
0.999339
0.9993
0.99912
0.998928
0.998799
0.99879
0.998902
0.998967
0.998964
0.998989
0.999947
0.999746
0.999812
0.999768
0.999739
0.999727
0.999415
0.999405
0.9994
0.999309
0.999181
0.999176
0.999205
0.999221
0.999239
0.9993
0.999354
0.999383
0.999839
0.999671
0.999753
0.999699
0.999692
0.999692
0.999532
0.999509
0.999464
0.999336
0.999221
0.999239
0.999288
0.999354
0.999418
0.99948
0.999505
0.999508
0.999704
0.99961
0.999676
0.999646
0.999696
0.999688
0.999619
0.999604
0.999575
0.999527
0.999512
0.999508
0.999491
0.999482
0.999486
0.999504
0.999508
0.999507
0.999662
0.999589
0.999653
0.999648
0.999689
0.999674
0.999623
0.999584
0.999568
0.999565
0.999542
0.999512
0.999506
0.999508
0.999514
0.999514
0.999509
0.999494
0.999643
0.999601
0.999637
0.999649
0.999671
0.99964
0.999596
0.999506
0.999442
0.999445
0.999452
0.999451
0.999467
0.999484
0.999487
0.999488
0.999484
0.999471
0.999614
0.99961
0.999637
0.999645
0.99966
0.999654
0.99964
0.999589
0.99945
0.999416
0.999418
0.999429
0.999491
0.999503
0.999493
0.999485
0.999476
0.999451
0.992233
0.984783
0.988941
0.988887
0.987983
0.987146
0.985961
0.9856
0.983838
0.972567
0.920456
0.903937
0.868717
0.806987
0.783512
0.793176
0.762974
0.757648
0.988207
0.984916
0.988564
0.989563
0.989359
0.990054
0.990089
0.988864
0.985512
0.976405
0.91819
0.874991
0.860325
0.845303
0.88667
0.87383
0.852671
0.826766
0.987497
0.988085
0.989908
0.99085
0.986886
0.989645
0.989128
0.989745
0.987645
0.978866
0.915895
0.843012
0.864237
0.933354
0.953961
0.904863
0.87592
0.856469
0.987883
0.988896
0.989867
0.99115
0.986531
0.987471
0.985783
0.986957
0.986772
0.978734
0.920257
0.83922
0.868262
0.957373
0.960956
0.879875
0.832612
0.844948
0.989779
0.987842
0.988585
0.989767
0.988837
0.987183
0.985569
0.976176
0.982019
0.976856
0.94478
0.861188
0.899089
0.966082
0.959409
0.839174
0.770524
0.798392
0.991603
0.987118
0.988583
0.989144
0.988028
0.985913
0.985515
0.97494
0.962218
0.969169
0.954156
0.917822
0.938059
0.970695
0.952142
0.80538
0.744593
0.74912
0.993065
0.987688
0.988438
0.98875
0.980542
0.977919
0.981148
0.974894
0.94975
0.953437
0.953023
0.941553
0.952251
0.970713
0.930434
0.78189
0.741612
0.740028
0.993138
0.988418
0.98862
0.988374
0.975852
0.966285
0.966269
0.966763
0.940757
0.928904
0.939622
0.941531
0.953876
0.967064
0.876073
0.762196
0.744687
0.744301
0.992892
0.989496
0.990501
0.989142
0.980168
0.953475
0.950504
0.950104
0.914226
0.896612
0.913919
0.934292
0.957888
0.944757
0.816803
0.75892
0.756937
0.761185
0.993142
0.990679
0.992126
0.990732
0.980635
0.933485
0.909591
0.91363
0.884082
0.879732
0.91125
0.928382
0.958873
0.877194
0.80086
0.790104
0.814213
0.832154
0.994967
0.993662
0.995263
0.993608
0.97683
0.909303
0.875892
0.859813
0.857909
0.869861
0.917651
0.938207
0.914835
0.854055
0.844912
0.886412
0.897729
0.897373
0.997273
0.996284
0.997196
0.996017
0.980177
0.95833
0.954404
0.850206
0.85898
0.869153
0.914075
0.928228
0.88574
0.862695
0.919795
0.936582
0.939725
0.939821
0.99885
0.997569
0.998198
0.997536
0.988407
0.980687
0.983524
0.889914
0.876692
0.883514
0.901976
0.901544
0.886992
0.916808
0.951248
0.959255
0.954746
0.949239
0.999585
0.998524
0.998872
0.995454
0.98638
0.985512
0.98526
0.980042
0.922559
0.879898
0.896737
0.895076
0.909366
0.953511
0.96465
0.967837
0.971422
0.970389
0.999768
0.998678
0.999113
0.991135
0.988781
0.989713
0.986734
0.985522
0.974029
0.901582
0.899414
0.919141
0.965983
0.978353
0.974126
0.978109
0.987651
0.990641
0.999927
0.99877
0.999188
0.993769
0.990319
0.988306
0.990161
0.989338
0.983401
0.941969
0.910559
0.937538
0.97424
0.987727
0.98744
0.981796
0.987315
0.989797
0.998854
0.998374
0.998746
0.997345
0.996187
0.996812
0.997578
0.997588
0.995615
0.98325
0.950871
0.958422
0.976796
0.988219
0.990534
0.987151
0.985481
0.9855
0.998674
0.998465
0.998537
0.998646
0.998813
0.998787
0.998405
0.998406
0.998266
0.996074
0.990202
0.990798
0.988274
0.987031
0.988033
0.99057
0.989629
0.986728
0.998852
0.998676
0.998749
0.999199
0.999081
0.998693
0.998486
0.998429
0.998425
0.998273
0.997347
0.996669
0.995942
0.992187
0.987688
0.988416
0.990306
0.992404
0.999327
0.99919
0.99923
0.999428
0.999438
0.998818
0.998933
0.998665
0.998499
0.998108
0.997244
0.996624
0.996253
0.99485
0.992404
0.992771
0.994135
0.994919
0.999583
0.999499
0.999524
0.999797
0.99959
0.999351
0.999357
0.999166
0.99882
0.998509
0.997409
0.996703
0.996549
0.996234
0.995755
0.995519
0.995602
0.995725
0.999694
0.999616
0.999677
0.999868
0.999705
0.999387
0.999221
0.999077
0.999027
0.999161
0.998852
0.997936
0.997182
0.997163
0.997334
0.997562
0.998101
0.998484
0.99975
0.999647
0.999736
0.999828
0.999742
0.999539
0.999249
0.999141
0.999148
0.999248
0.999216
0.999014
0.998653
0.998588
0.99866
0.99879
0.999019
0.999139
0.999764
0.999657
0.999758
0.999781
0.999704
0.999642
0.999379
0.999277
0.999295
0.999278
0.999087
0.998941
0.998803
0.998741
0.998665
0.998636
0.998661
0.998748
0.999762
0.999661
0.999747
0.999729
0.999682
0.999684
0.999441
0.999423
0.999387
0.999255
0.999037
0.998975
0.998946
0.998975
0.999039
0.999135
0.999198
0.9992
0.999725
0.999659
0.999725
0.999683
0.999672
0.999683
0.999491
0.999495
0.999477
0.999355
0.999119
0.999084
0.999102
0.999201
0.99936
0.999466
0.999498
0.999503
0.999678
0.999649
0.999685
0.999655
0.999654
0.999684
0.999579
0.999598
0.999588
0.999546
0.999422
0.999345
0.999345
0.999368
0.999434
0.999486
0.999498
0.9995
0.99964
0.999602
0.999663
0.999614
0.999605
0.999681
0.999616
0.999611
0.999596
0.99957
0.999555
0.999521
0.999497
0.999498
0.999509
0.999509
0.999504
0.999495
0.999628
0.999587
0.999623
0.999579
0.999613
0.999676
0.999642
0.999614
0.99955
0.999479
0.999462
0.999466
0.999487
0.999507
0.999503
0.99948
0.999472
0.99948
0.999618
0.999584
0.999602
0.999599
0.999645
0.99966
0.999645
0.999622
0.999544
0.999446
0.999434
0.999457
0.999513
0.999522
0.999492
0.99947
0.999453
0.999438
0.993367
0.989002
0.990372
0.989037
0.989032
0.988279
0.986008
0.981937
0.959539
0.909066
0.899679
0.892316
0.861018
0.800632
0.776641
0.764548
0.722109
0.718628
0.98975
0.985523
0.987307
0.989873
0.991077
0.99114
0.990687
0.986164
0.970641
0.929869
0.89296
0.848226
0.79256
0.761672
0.782879
0.80809
0.808997
0.78044
0.989712
0.986195
0.987162
0.990988
0.990851
0.990487
0.990314
0.987118
0.973444
0.940818
0.894494
0.811722
0.788481
0.826372
0.827012
0.802287
0.811809
0.800363
0.992117
0.986986
0.98715
0.990847
0.988912
0.987444
0.984785
0.98522
0.973874
0.9418
0.903906
0.811958
0.796986
0.848766
0.816036
0.764816
0.787986
0.792867
0.993716
0.986945
0.986974
0.988877
0.983865
0.983647
0.972469
0.98158
0.971223
0.939752
0.911968
0.833105
0.831875
0.852153
0.793454
0.750712
0.755744
0.760381
0.99524
0.987521
0.987413
0.988085
0.971098
0.976802
0.961302
0.974347
0.962284
0.933915
0.910923
0.857839
0.862554
0.845269
0.781653
0.743404
0.740567
0.740758
0.997012
0.988317
0.987611
0.988206
0.955364
0.967826
0.948449
0.958203
0.949264
0.927311
0.903883
0.87281
0.86832
0.827613
0.762306
0.735194
0.73305
0.733211
0.998191
0.98934
0.987965
0.988534
0.949261
0.959145
0.943232
0.941946
0.935995
0.916515
0.894443
0.876719
0.859289
0.815802
0.755324
0.735143
0.732559
0.732988
0.998669
0.990348
0.988851
0.988829
0.944741
0.935781
0.931567
0.915578
0.902788
0.89077
0.883581
0.874474
0.826326
0.807638
0.762288
0.748159
0.745082
0.748413
0.99897
0.991503
0.990192
0.989606
0.916189
0.881744
0.878772
0.870946
0.870598
0.86381
0.868432
0.854879
0.833463
0.816836
0.816771
0.824173
0.812467
0.820079
0.999432
0.994171
0.993072
0.991367
0.901858
0.864027
0.856137
0.830723
0.843384
0.851416
0.851431
0.850054
0.854121
0.85819
0.891608
0.887882
0.870539
0.86464
0.99975
0.996342
0.996158
0.994386
0.915503
0.907261
0.938619
0.834969
0.829312
0.84053
0.849643
0.855463
0.865095
0.901073
0.9231
0.925725
0.908574
0.9152
0.999903
0.99806
0.998067
0.996862
0.955858
0.974804
0.978532
0.867619
0.838149
0.839796
0.854644
0.86722
0.887236
0.917763
0.934979
0.952827
0.941012
0.943753
0.999966
0.999026
0.998987
0.994961
0.974113
0.985618
0.988355
0.958054
0.859111
0.851592
0.872688
0.906448
0.938274
0.950141
0.955245
0.966488
0.96133
0.960361
0.999966
0.99971
0.999216
0.99022
0.989629
0.994027
0.990744
0.984133
0.941
0.871192
0.881468
0.9525
0.973839
0.979462
0.978307
0.975029
0.980996
0.983293
0.999985
0.999834
0.99934
0.991315
0.992309
0.994482
0.994936
0.99504
0.989492
0.948436
0.917566
0.953448
0.979258
0.989982
0.989771
0.983701
0.983796
0.987989
0.998438
0.998141
0.998121
0.995268
0.995396
0.995655
0.996899
0.998102
0.998076
0.995962
0.978503
0.977775
0.985571
0.992612
0.993664
0.992644
0.988684
0.987255
0.998517
0.998489
0.998534
0.998579
0.998464
0.998575
0.998591
0.998576
0.998021
0.996106
0.993791
0.993777
0.994453
0.993696
0.993703
0.99433
0.994182
0.992657
0.998724
0.998759
0.998803
0.99893
0.998882
0.998768
0.998389
0.998335
0.998379
0.998294
0.997954
0.99713
0.996953
0.99668
0.995045
0.99122
0.99076
0.99129
0.999244
0.999284
0.999322
0.999442
0.999426
0.999416
0.999357
0.999099
0.998668
0.998417
0.997827
0.997015
0.996549
0.995966
0.993875
0.99274
0.99226
0.992142
0.999529
0.999558
0.999591
0.999726
0.999706
0.999638
0.99941
0.999143
0.998842
0.998859
0.998664
0.99758
0.996551
0.996179
0.99507
0.994495
0.994252
0.994231
0.999642
0.999677
0.999699
0.999859
0.999832
0.999472
0.998886
0.998916
0.99892
0.999067
0.999166
0.999082
0.998517
0.997721
0.997307
0.997389
0.997874
0.998348
0.999671
0.999687
0.999717
0.999771
0.999719
0.999259
0.9989
0.998941
0.999033
0.99917
0.999161
0.999042
0.998874
0.998745
0.998662
0.998701
0.998857
0.999019
0.999683
0.999684
0.999697
0.999696
0.999625
0.999473
0.999432
0.999331
0.999314
0.999285
0.99903
0.998728
0.998632
0.998545
0.998463
0.998481
0.998569
0.998714
0.999694
0.999675
0.999688
0.999686
0.999667
0.999625
0.999515
0.999441
0.999399
0.999284
0.998976
0.998758
0.998737
0.998862
0.999005
0.999074
0.999049
0.999015
0.999687
0.999674
0.999687
0.999685
0.999682
0.999651
0.999521
0.99948
0.999466
0.999383
0.999098
0.998993
0.999029
0.99919
0.999383
0.999475
0.999503
0.999505
0.999674
0.999668
0.999674
0.999641
0.999624
0.999624
0.999533
0.999518
0.999529
0.999491
0.999268
0.999174
0.999184
0.999263
0.999403
0.999474
0.999498
0.999505
0.999635
0.999642
0.999653
0.999606
0.99956
0.999608
0.999569
0.999578
0.999584
0.999573
0.999504
0.999413
0.999401
0.99942
0.999489
0.999512
0.999512
0.999511
0.999607
0.999591
0.999611
0.999552
0.99954
0.999583
0.999617
0.999607
0.99958
0.99956
0.999531
0.999492
0.999489
0.999501
0.99952
0.99952
0.999513
0.999493
0.999698
0.999573
0.999582
0.999562
0.999557
0.999563
0.999576
0.999578
0.999556
0.999518
0.999517
0.999528
0.999534
0.99954
0.99954
0.999531
0.999509
0.999468
0.994414
0.993537
0.989572
0.98762
0.988952
0.988552
0.985646
0.967948
0.90911
0.89049
0.896201
0.895836
0.895137
0.87456
0.83333
0.724727
0.709201
0.694383
0.996037
0.989953
0.988372
0.990321
0.991234
0.991637
0.990409
0.972983
0.920995
0.900853
0.905577
0.898154
0.879506
0.820559
0.786132
0.727174
0.717627
0.705225
0.997702
0.989445
0.990234
0.992486
0.990262
0.99048
0.989449
0.96845
0.92816
0.909534
0.911835
0.894259
0.836304
0.807487
0.777573
0.712196
0.719194
0.717198
0.998635
0.989337
0.990039
0.992315
0.984633
0.985043
0.986606
0.967821
0.932
0.920331
0.913675
0.866484
0.824561
0.808784
0.739063
0.70193
0.720072
0.722438
0.999087
0.988973
0.989179
0.990969
0.975617
0.973268
0.980194
0.966236
0.934166
0.925179
0.911513
0.856114
0.821828
0.807503
0.732603
0.706522
0.719624
0.718943
0.999449
0.989643
0.989662
0.990289
0.959232
0.955449
0.960196
0.961981
0.9345
0.924303
0.904304
0.850356
0.826278
0.811312
0.736611
0.704772
0.718203
0.715381
0.999703
0.991238
0.99069
0.989381
0.947964
0.949043
0.952971
0.957045
0.931636
0.911575
0.882632
0.851527
0.843413
0.829694
0.760651
0.698441
0.703546
0.707751
0.99984
0.992915
0.992063
0.987967
0.941871
0.949002
0.954867
0.954506
0.918647
0.878161
0.860262
0.850168
0.850286
0.839045
0.793765
0.706164
0.698607
0.70817
0.999905
0.99373
0.992329
0.985612
0.93288
0.939861
0.945583
0.948252
0.898519
0.868687
0.855993
0.849745
0.85897
0.855646
0.833316
0.743357
0.713779
0.72206
0.999923
0.994316
0.992892
0.980513
0.882291
0.876474
0.87317
0.906659
0.877805
0.85889
0.853167
0.850533
0.865232
0.881312
0.883485
0.823304
0.781621
0.778485
0.999905
0.995481
0.994838
0.974388
0.875539
0.87028
0.873599
0.84189
0.853763
0.853611
0.842406
0.852649
0.864962
0.878304
0.908528
0.896585
0.852375
0.867249
0.999837
0.997073
0.996971
0.977432
0.897143
0.905262
0.941545
0.834752
0.834765
0.841903
0.84018
0.855879
0.865946
0.865392
0.905002
0.942681
0.909977
0.936491
0.99972
0.998441
0.998116
0.987642
0.946035
0.952518
0.978765
0.892324
0.860203
0.8496
0.847579
0.865736
0.873756
0.867999
0.893903
0.952631
0.949535
0.961232
0.999608
0.998217
0.998086
0.983818
0.975041
0.978875
0.988932
0.950188
0.891963
0.902368
0.900582
0.902005
0.909114
0.910311
0.920469
0.962004
0.96492
0.965901
0.999458
0.999285
0.997237
0.988952
0.995982
0.995671
0.993607
0.983721
0.938996
0.900637
0.926026
0.954944
0.965904
0.968129
0.96872
0.97372
0.97624
0.976445
0.999797
0.999485
0.997338
0.992603
0.99782
0.996647
0.993043
0.992709
0.986961
0.95249
0.957039
0.977502
0.989783
0.990873
0.989332
0.983727
0.981482
0.983364
0.998915
0.998502
0.998593
0.997777
0.998619
0.998485
0.99775
0.997674
0.997652
0.996863
0.993296
0.993156
0.994501
0.994594
0.993992
0.992857
0.990506
0.987787
0.998571
0.998537
0.998642
0.998763
0.998541
0.997917
0.998177
0.997465
0.996565
0.995988
0.994238
0.993448
0.99455
0.995212
0.995607
0.99553
0.994923
0.994107
0.998846
0.998722
0.998898
0.998885
0.998623
0.997964
0.998114
0.998307
0.99837
0.998241
0.997652
0.996544
0.9966
0.997023
0.996943
0.995748
0.993619
0.992294
0.99933
0.999254
0.999429
0.999641
0.999426
0.998948
0.998961
0.998868
0.998711
0.998463
0.997975
0.997272
0.996516
0.99639
0.995766
0.994045
0.992727
0.992173
0.999587
0.999515
0.999664
0.999661
0.998911
0.998147
0.998374
0.998901
0.99891
0.998983
0.998968
0.998588
0.996928
0.996212
0.995325
0.994526
0.994053
0.994146
0.99969
0.999624
0.999675
0.999433
0.998701
0.998241
0.998483
0.998805
0.998956
0.999019
0.999085
0.999121
0.998941
0.998053
0.997317
0.99737
0.997867
0.998369
0.999736
0.999644
0.999676
0.999542
0.998873
0.998621
0.998715
0.998813
0.999051
0.999027
0.998842
0.998719
0.998614
0.998491
0.998439
0.998551
0.998775
0.998917
0.999754
0.999654
0.999677
0.99965
0.999178
0.999184
0.999118
0.999235
0.999289
0.999143
0.99875
0.998495
0.998299
0.998235
0.99818
0.998277
0.998533
0.998762
0.999762
0.999669
0.999666
0.999644
0.999388
0.99942
0.999329
0.99937
0.999375
0.999272
0.998822
0.998608
0.998609
0.998808
0.998985
0.999019
0.998963
0.998938
0.99973
0.999661
0.999646
0.999641
0.99953
0.999578
0.999414
0.999382
0.999385
0.99932
0.999033
0.998975
0.999035
0.999217
0.999391
0.999477
0.999507
0.999506
0.99969
0.999632
0.999626
0.999643
0.999596
0.999578
0.999444
0.999418
0.999422
0.999392
0.999284
0.999274
0.999292
0.999348
0.999426
0.999475
0.999501
0.99951
0.999664
0.999593
0.999621
0.999629
0.999584
0.999534
0.999493
0.999499
0.999533
0.999536
0.999508
0.999478
0.999477
0.99948
0.999499
0.999511
0.999515
0.999516
0.999635
0.999579
0.999598
0.999544
0.999529
0.999524
0.999543
0.999564
0.999564
0.99956
0.999554
0.999545
0.999536
0.999523
0.99951
0.999506
0.999507
0.999504
0.999592
0.999576
0.999583
0.999541
0.999522
0.999493
0.999494
0.999501
0.999522
0.999529
0.999534
0.999536
0.999534
0.999507
0.99948
0.99948
0.999493
0.999501
0.997801
0.991981
0.986216
0.985934
0.986519
0.985722
0.982458
0.906644
0.886819
0.89095
0.893146
0.888271
0.886717
0.885014
0.851873
0.744083
0.721634
0.702691
0.99858
0.98395
0.98441
0.988374
0.986849
0.988611
0.984935
0.916236
0.90015
0.91594
0.919386
0.901472
0.895332
0.899667
0.838921
0.697657
0.675445
0.686676