/*--------------------------------*- C++ -*----------------------------------*\
| =========                 |                                                 |
| \\      /  F ield         | OpenFOAM: The Open Source CFD Toolbox           |
|  \\    /   O peration     | Version:  2112                                  |
|   \\  /    A nd           | Website:  www.openfoam.com                      |
|    \\/     M anipulation  |                                                 |
\*---------------------------------------------------------------------------*/
FoamFile
{
    version     2.0;
    format      ascii;
    arch        "LSB;label=32;scalar=64";
    class       volVectorField;
    location    "0.12";
    object      U;
}
// * * * * * * * * * * * * * * * * * * * * * * * * * * * * * * * * * * * * * //

dimensions      [0 1 -1 0 0 0 0];

internalField   nonuniform List<vector> 
122250
(
(9.83849 0.03789 0.0488912)
(9.55009 0.0539789 0.0547475)
(9.255 0.0527134 0.0576108)
(8.95602 0.0521528 0.0588801)
(8.66369 0.0521564 0.0597019)
(8.38244 0.0515208 0.0604677)
(8.11407 0.0504483 0.0612188)
(7.8565 0.0495072 0.061947)
(7.61063 0.0486902 0.0626526)
(7.37204 0.0478797 0.0633433)
(7.14723 0.0464719 0.0640004)
(6.92644 0.0450874 0.0646293)
(6.72714 0.0433229 0.0651971)
(6.51834 0.0441735 0.0657778)
(6.34146 0.043164 0.066345)
(6.12436 0.0483994 0.0670926)
(5.97341 0.0416582 0.0678241)
(5.72791 0.0560785 0.0690775)
(10.0173 0.0548523 0.0506604)
(10.0842 0.0792226 0.0550152)
(10.1266 0.0768529 0.0576243)
(10.144 0.0772008 0.0589318)
(10.1462 0.0800054 0.0597342)
(10.1379 0.0821408 0.060454)
(10.122 0.0835745 0.0611667)
(10.0988 0.0845442 0.0618638)
(10.071 0.0858537 0.0625396)
(10.0375 0.0865676 0.0631978)
(10.0022 0.0877344 0.0638238)
(9.96069 0.0875395 0.0644168)
(9.92019 0.088884 0.0649628)
(9.8702 0.0889196 0.0655005)
(9.82553 0.0925914 0.066057)
(9.76508 0.0934326 0.0667098)
(9.71927 0.0985259 0.0674519)
(9.64866 0.098872 0.068693)
(10.0031 0.03205 0.0514723)
(10.0383 0.0536116 0.0550518)
(10.07 0.0539454 0.0575188)
(10.0914 0.0551166 0.0589391)
(10.107 0.0592571 0.0597891)
(10.1203 0.0632703 0.0605009)
(10.1329 0.0663489 0.0612017)
(10.1444 0.0688147 0.0618959)
(10.1555 0.0711952 0.0625705)
(10.1656 0.0731713 0.0632249)
(10.1754 0.0748924 0.0638424)
(10.1837 0.0760955 0.0644265)
(10.1911 0.0777426 0.0649694)
(10.1963 0.080306 0.0655097)
(10.2012 0.0841247 0.0660678)
(10.2039 0.0888866 0.066701)
(10.2075 0.0929084 0.0674053)
(10.2082 0.0971133 0.0685303)
(10.0026 0.0274496 0.0523829)
(10.0301 0.0547866 0.0553992)
(10.0564 0.0604305 0.0576049)
(10.0749 0.0619675 0.0590391)
(10.0877 0.0654946 0.0599228)
(10.098 0.0693703 0.0606207)
(10.1076 0.0723912 0.0612977)
(10.1171 0.0745155 0.0619785)
(10.1266 0.076342 0.0626485)
(10.1363 0.0776754 0.063298)
(10.146 0.0788687 0.063912)
(10.1555 0.0797765 0.0644914)
(10.1644 0.0813703 0.0650407)
(10.1728 0.0837144 0.0655836)
(10.1804 0.0872959 0.0661448)
(10.1882 0.0909623 0.066752)
(10.1954 0.0942997 0.0674066)
(10.2033 0.096037 0.0684428)
(10.002 0.0224072 0.0532204)
(10.0241 0.0480716 0.0557608)
(10.047 0.0548579 0.05766)
(10.065 0.0559582 0.0590613)
(10.078 0.0585171 0.0599928)
(10.0881 0.0621722 0.0607007)
(10.0972 0.0653879 0.061361)
(10.1061 0.0677055 0.0620279)
(10.1151 0.0694585 0.0626936)
(10.1243 0.0707336 0.063342)
(10.1334 0.0717679 0.0639555)
(10.1424 0.072786 0.0645332)
(10.1507 0.074306 0.065084)
(10.1585 0.0767515 0.0656266)
(10.1655 0.0800366 0.0661807)
(10.1724 0.0836029 0.0667644)
(10.1789 0.0866252 0.0673771)
(10.186 0.0885373 0.0683813)
(10.0017 0.0181721 0.0539749)
(10.0195 0.0417907 0.0561547)
(10.0392 0.0505184 0.0577714)
(10.0564 0.0531171 0.0591135)
(10.0698 0.0560169 0.0600839)
(10.08 0.0599157 0.0608112)
(10.0889 0.0635577 0.061458)
(10.0976 0.0662423 0.0621059)
(10.1064 0.0680894 0.0627618)
(10.1156 0.069295 0.0634061)
(10.1247 0.0701796 0.064017)
(10.1336 0.0711482 0.0645909)
(10.1419 0.0726713 0.0651392)
(10.1497 0.0751649 0.065678)
(10.1566 0.0784246 0.0662231)
(10.1634 0.0819335 0.0667864)
(10.1698 0.084779 0.0673694)
(10.1766 0.086451 0.0683421)
(10.0014 0.014962 0.0546616)
(10.0161 0.0364191 0.0565782)
(10.0329 0.0464689 0.0579413)
(10.049 0.0503646 0.0591914)
(10.0624 0.0534419 0.060176)
(10.0728 0.0571481 0.0609212)
(10.0815 0.0607254 0.061558)
(10.0899 0.0634042 0.0621853)
(10.0986 0.0650841 0.0628265)
(10.1077 0.0659963 0.0634633)
(10.1169 0.0665613 0.06407)
(10.1258 0.0673493 0.0646394)
(10.1341 0.0688215 0.0651833)
(10.1419 0.0713415 0.0657163)
(10.1489 0.0745796 0.0662503)
(10.1556 0.0779307 0.066793)
(10.1619 0.0804461 0.0673464)
(10.1685 0.0816005 0.0682815)
(10.0012 0.0125189 0.0552906)
(10.0136 0.0316627 0.0570149)
(10.0278 0.0421827 0.058156)
(10.0425 0.0470844 0.0592932)
(10.0558 0.0504376 0.0602683)
(10.0662 0.0540032 0.0610284)
(10.0749 0.0574861 0.0616608)
(10.0831 0.060143 0.0622692)
(10.0916 0.0617174 0.0628937)
(10.1007 0.0624319 0.0635212)
(10.1099 0.062796 0.0641228)
(10.1188 0.0634932 0.0646876)
(10.1271 0.0649969 0.0652256)
(10.1348 0.0676076 0.0657506)
(10.1418 0.0708789 0.0662714)
(10.1484 0.0741356 0.0667927)
(10.1546 0.0764326 0.0673161)
(10.1611 0.0771512 0.0682142)
(10.0011 0.0106084 0.0558688)
(10.0117 0.0274502 0.0574516)
(10.0237 0.037837 0.0584048)
(10.037 0.0434953 0.0594215)
(10.0499 0.0472682 0.0603672)
(10.0604 0.0508307 0.0611357)
(10.0689 0.0542323 0.0617674)
(10.077 0.0568397 0.0623601)
(10.0854 0.0583008 0.0629667)
(10.0944 0.0588107 0.0635821)
(10.1035 0.0589569 0.0641765)
(10.1124 0.0595354 0.0647348)
(10.1207 0.0610498 0.0652652)
(10.1284 0.0637617 0.0657798)
(10.1354 0.0671027 0.0662858)
(10.1419 0.0703338 0.0667854)
(10.148 0.0724292 0.0672795)
(10.1543 0.07277 0.0681426)
(10.001 0.00908032 0.0564017)
(10.0103 0.0237551 0.0578801)
(10.0204 0.0335813 0.0586779)
(10.0324 0.0397243 0.0595769)
(10.0447 0.0439976 0.0604782)
(10.0551 0.0476942 0.0612451)
(10.0636 0.050994 0.0618765)
(10.0715 0.0534147 0.0624559)
(10.0798 0.0546425 0.0630444)
(10.0887 0.0548988 0.0636454)
(10.0979 0.0548366 0.0642299)
(10.1067 0.0553223 0.0647798)
(10.115 0.0568692 0.0653006)
(10.1226 0.0596929 0.0658032)
(10.1295 0.0631131 0.0662931)
(10.1359 0.0663143 0.0667709)
(10.1419 0.0682206 0.0672366)
(10.148 0.0682349 0.0680667)
(10.0009 0.00782267 0.0568935)
(10.0092 0.020522 0.0582943)
(10.0179 0.02957 0.0589652)
(10.0287 0.0358775 0.0597556)
(10.0402 0.0405184 0.0606035)
(10.0504 0.0443943 0.0613594)
(10.0588 0.0476692 0.0619875)
(10.0665 0.0499161 0.0625544)
(10.0747 0.0508589 0.0631249)
(10.0836 0.0507848 0.0637101)
(10.0928 0.0504471 0.0642827)
(10.1016 0.0508059 0.0648223)
(10.1098 0.0523906 0.065332)
(10.1174 0.0553646 0.0658214)
(10.1242 0.0589188 0.0662945)
(10.1305 0.0621463 0.0667506)
(10.1363 0.0639227 0.0671896)
(10.1422 0.0636437 0.0679882)
(10.0009 0.00684419 0.0573062)
(10.0084 0.0177828 0.0586538)
(10.0161 0.0260129 0.0592315)
(10.0258 0.0324719 0.0599313)
(10.0367 0.0374754 0.060724)
(10.0466 0.0413748 0.0614607)
(10.0549 0.0443659 0.0620833)
(10.0625 0.0462584 0.0626404)
(10.0706 0.0469045 0.0631956)
(10.0795 0.0466129 0.0637652)
(10.0886 0.0461391 0.0643245)
(10.0973 0.046468 0.0648523)
(10.1055 0.0481263 0.0653501)
(10.113 0.0512505 0.0658262)
(10.1198 0.0549466 0.0662834)
(10.1261 0.0582431 0.0667202)
(10.1318 0.0599717 0.0671359)
(10.1375 0.0595136 0.0679074)
(10.0008 0.00604002 0.0576957)
(10.0078 0.015478 0.0590019)
(10.0147 0.0225922 0.0595038)
(10.0235 0.0287016 0.0601269)
(10.0335 0.0340765 0.0608659)
(10.0429 0.0385164 0.0615766)
(10.0511 0.0416775 0.0621873)
(10.0588 0.0432533 0.0627329)
(10.067 0.0433194 0.0632737)
(10.0759 0.0424604 0.0638288)
(10.085 0.0416001 0.0643751)
(10.0937 0.0417863 0.0648908)
(10.1018 0.0435109 0.0653764)
(10.1092 0.0468302 0.0658391)
(10.1159 0.0507328 0.0662808)
(10.1221 0.0541595 0.0666993)
(10.1277 0.0559023 0.0670935)
(10.1331 0.0553246 0.0678402)
(10.0008 0.00517156 0.0581043)
(10.0073 0.0128616 0.0593755)
(10.0133 0.0192516 0.0598072)
(10.0213 0.0253463 0.0603528)
(10.0308 0.0304696 0.0610335)
(10.0398 0.0342152 0.0617132)
(10.0476 0.0366137 0.0623096)
(10.0551 0.0377198 0.062843)
(10.0632 0.0376899 0.0633684)
(10.0722 0.0369727 0.0639061)
(10.0813 0.0363123 0.0644345)
(10.0901 0.0366814 0.0649332)
(10.0981 0.038569 0.0654026)
(10.1056 0.0420621 0.065849)
(10.1122 0.0461275 0.0662731)
(10.1183 0.0496663 0.0666718)
(10.1237 0.0514542 0.0670437)
(10.1288 0.0508079 0.0677657)
(10.0007 0.00449818 0.0585182)
(10.007 0.0104559 0.0597582)
(10.0127 0.0148199 0.0601304)
(10.0194 0.0200489 0.0606115)
(10.0274 0.0261621 0.0612353)
(10.0357 0.0315498 0.0618737)
(10.0439 0.0345478 0.0624407)
(10.0523 0.0347643 0.0629525)
(10.0611 0.0330842 0.063461)
(10.0703 0.0308535 0.0639829)
(10.0792 0.0292652 0.0644945)
(10.0874 0.0293304 0.0649757)
(10.0949 0.0313614 0.0654278)
(10.102 0.0352622 0.0658566)
(10.1086 0.0398466 0.066262)
(10.1146 0.0438767 0.0666402)
(10.1198 0.046091 0.0669898)
(10.1246 0.045683 0.0676878)
(10.0009 0.00339355 0.0589228)
(10.0073 0.00708588 0.0601415)
(10.0106 0.0119285 0.0604642)
(10.0144 0.0180226 0.0608781)
(10.0235 0.0224483 0.0614445)
(10.0372 0.0242118 0.0620465)
(10.0521 0.0242386 0.062588)
(10.0651 0.0237168 0.0630783)
(10.0753 0.023217 0.0635678)
(10.0829 0.0228465 0.0640696)
(10.0885 0.0227532 0.0645585)
(10.0931 0.0235702 0.0650165)
(10.0975 0.0257333 0.0654474)
(10.1024 0.0294869 0.0658568)
(10.1074 0.0339717 0.0662429)
(10.1125 0.0380625 0.0666014)
(10.1172 0.0405622 0.0669309)
(10.1214 0.0404844 0.0676085)
(10.0011 0.0019841 0.0592894)
(10.0053 0.00622197 0.060495)
(10.0084 0.0102033 0.0607757)
(10.0171 0.0108548 0.0611383)
(10.0323 0.00889352 0.0616659)
(10.0488 0.00780864 0.0622333)
(10.062 0.00958979 0.0627387)
(10.0712 0.0135037 0.0631986)
(10.0776 0.0175112 0.0636665)
(10.0824 0.0200975 0.0641506)
(10.0862 0.0210264 0.0646209)
(10.0897 0.0213625 0.0650591)
(10.0935 0.022245 0.0654707)
(10.0982 0.0245987 0.0658621)
(10.1034 0.0281128 0.0662304)
(10.1089 0.0318063 0.0665715)
(10.114 0.0345415 0.0668839)
(10.1184 0.0350066 0.0675457)
(10.0001 0.00249113 0.0595737)
(10.0046 0.00410828 0.0607733)
(10.0129 -0.000549395 0.0610312)
(10.026 -0.00586957 0.0613786)
(10.0405 -0.00728937 0.0618755)
(10.0524 -0.00442496 0.0623994)
(10.061 0.00108384 0.0628729)
(10.0675 0.00728707 0.0633147)
(10.0732 0.0125038 0.0637657)
(10.0784 0.0157376 0.0642293)
(10.0827 0.0167806 0.0646776)
(10.0863 0.0165164 0.065095)
(10.0901 0.0161275 0.065488)
(10.0945 0.0168791 0.0658633)
(10.0998 0.019194 0.0662177)
(10.1056 0.0224805 0.0665466)
(10.1115 0.0259028 0.0668487)
(10.1166 0.0279152 0.0675025)
(9.99931 0.00276639 0.0597112)
(10.0069 -0.00512231 0.0609048)
(10.0185 -0.0168385 0.0611806)
(10.0305 -0.02125 0.0615468)
(10.0407 -0.0192131 0.0620115)
(10.0494 -0.0142703 0.0624992)
(10.0567 -0.00806329 0.0629617)
(10.063 -0.00128337 0.0633966)
(10.069 0.00512296 0.0638328)
(10.0747 0.0100296 0.0642795)
(10.0797 0.0125156 0.064714)
(10.0836 0.0126436 0.0651195)
(10.0871 0.0112541 0.0655017)
(10.0909 0.00970755 0.0658684)
(10.0956 0.0093604 0.0662165)
(10.1012 0.010558 0.0665411)
(10.1075 0.0132265 0.0668414)
(10.114 0.0163614 0.067496)
(9.99934 0.00111157 0.0595987)
(10.0079 -0.0159242 0.0607863)
(10.0194 -0.0299853 0.0611284)
(10.0292 -0.0320823 0.0615405)
(10.0375 -0.0278076 0.0620002)
(10.0453 -0.0217256 0.0624861)
(10.0522 -0.0152557 0.06296)
(10.0582 -0.00868585 0.0634045)
(10.064 -0.00243157 0.0638411)
(10.0702 0.00284578 0.0642822)
(10.0761 0.00633982 0.0647109)
(10.0813 0.00755735 0.0651138)
(10.0858 0.00661782 0.065495)
(10.0899 0.00413939 0.0658611)
(10.0941 0.00144501 0.0662101)
(10.0988 -0.00034426 0.0665374)
(10.1043 -0.000558073 0.0668436)
(10.1108 0.00124937 0.0675062)
(9.99927 -0.00099019 0.0593346)
(10.0072 -0.0236046 0.0605512)
(10.0181 -0.0383409 0.0609781)
(10.0267 -0.0392268 0.0614434)
(10.0341 -0.0341894 0.0619187)
(10.0416 -0.0277617 0.0624221)
(10.0487 -0.0209795 0.062917)
(10.0547 -0.01426 0.0633757)
(10.0604 -0.00826926 0.0638166)
(10.0664 -0.00357152 0.0642571)
(10.0727 -0.00045212 0.0646868)
(10.079 0.000964281 0.0650933)
(10.085 0.000772691 0.0654781)
(10.0906 -0.00084045 0.0658467)
(10.0957 -0.00338766 0.0661985)
(10.1005 -0.00602074 0.0665301)
(10.1052 -0.00826001 0.0668419)
(10.1103 -0.00913381 0.0675126)
(9.99914 -0.00287174 0.058977)
(10.0058 -0.0294087 0.0602368)
(10.0161 -0.0447748 0.0607577)
(10.0242 -0.0448812 0.0612902)
(10.0311 -0.0393171 0.061802)
(10.0384 -0.0327884 0.0623346)
(10.0455 -0.0259813 0.0628546)
(10.0517 -0.0192067 0.0633282)
(10.0576 -0.0132631 0.063774)
(10.0639 -0.00891972 0.0642164)
(10.0704 -0.00648777 0.0646509)
(10.0771 -0.00583838 0.0650636)
(10.0838 -0.00659628 0.065453)
(10.0906 -0.0082584 0.0658242)
(10.0972 -0.0103695 0.066179)
(10.1034 -0.0123918 0.0665155)
(10.1091 -0.0141279 0.0668334)
(10.1145 -0.0151916 0.0675119)
(9.9993 -0.00413835 0.0585418)
(10.005 -0.033383 0.0598683)
(10.0146 -0.049808 0.0604989)
(10.0224 -0.0496555 0.0611139)
(10.0291 -0.0437038 0.0616773)
(10.036 -0.0370011 0.062247)
(10.0428 -0.0302347 0.0627896)
(10.049 -0.0237301 0.0632704)
(10.0553 -0.0181904 0.0637174)
(10.0622 -0.0142596 0.0641642)
(10.0696 -0.0122427 0.0646067)
(10.0771 -0.0120445 0.0650268)
(10.0844 -0.0132861 0.0654206)
(10.0916 -0.0154073 0.0657947)
(10.0987 -0.0178289 0.0661529)
(10.1056 -0.0200128 0.0664941)
(10.1121 -0.0217171 0.0668176)
(10.1184 -0.022662 0.0675021)
(9.99976 -0.00530912 0.0580346)
(10.0056 -0.0362606 0.0594597)
(10.0145 -0.0534134 0.0602279)
(10.0215 -0.0531558 0.060933)
(10.0277 -0.0470732 0.0615498)
(10.0345 -0.0404994 0.0621633)
(10.0411 -0.0341362 0.0627326)
(10.0472 -0.0282024 0.0632187)
(10.0536 -0.0232391 0.0636648)
(10.0612 -0.0198043 0.0641144)
(10.0696 -0.0181848 0.0645617)
(10.0781 -0.0182547 0.0649846)
(10.0864 -0.0195885 0.0653789)
(10.0944 -0.02163 0.0657533)
(10.1021 -0.0239015 0.0661131)
(10.1094 -0.0259794 0.0664572)
(10.1163 -0.0277207 0.0667848)
(10.123 -0.0288877 0.067474)
(10.0004 -0.00709952 0.0574473)
(10.0073 -0.0393613 0.0590269)
(10.0159 -0.0565918 0.0599817)
(10.0216 -0.0559353 0.0607826)
(10.0269 -0.0492827 0.0614392)
(10.0333 -0.0425204 0.0620817)
(10.0398 -0.0368051 0.0626656)
(10.0462 -0.0321123 0.0631573)
(10.0534 -0.0284645 0.0636126)
(10.062 -0.0261488 0.0640754)
(10.0713 -0.0254037 0.0645323)
(10.0807 -0.0261 0.0649595)
(10.0898 -0.0278126 0.0653557)
(10.0986 -0.0300311 0.0657323)
(10.107 -0.0323289 0.0660948)
(10.1149 -0.0343766 0.0664417)
(10.1223 -0.0360532 0.0667712)
(10.1293 -0.0372059 0.0674618)
(10.0013 -0.00965395 0.0567825)
(10.0112 -0.0416074 0.0585954)
(10.0193 -0.0580556 0.0597721)
(10.0233 -0.0579136 0.0606633)
(10.0274 -0.0515917 0.0613602)
(10.0331 -0.0447502 0.0620269)
(10.0391 -0.0391126 0.0626086)
(10.0454 -0.0346707 0.0630916)
(10.0533 -0.0312601 0.0635485)
(10.063 -0.0291475 0.0640159)
(10.0736 -0.0285658 0.0644734)
(10.0842 -0.0293207 0.0648986)
(10.0944 -0.0309422 0.0652942)
(10.104 -0.0329446 0.065672)
(10.113 -0.0349875 0.0660364)
(10.1214 -0.0368188 0.0663853)
(10.1291 -0.0383718 0.0667176)
(10.1364 -0.0395125 0.0674121)
(10.0025 -0.0140276 0.0560277)
(10.0171 -0.0457698 0.0581947)
(10.0246 -0.0594428 0.0596297)
(10.0255 -0.0588288 0.060575)
(10.0282 -0.0532611 0.0612949)
(10.0338 -0.0478314 0.0619863)
(10.0401 -0.0441159 0.062572)
(10.0473 -0.0416694 0.0630582)
(10.0563 -0.0400479 0.0635259)
(10.0673 -0.0393906 0.0640007)
(10.0791 -0.0398149 0.0644588)
(10.0907 -0.0410918 0.0648828)
(10.1018 -0.0428241 0.0652788)
(10.1122 -0.0446719 0.0656578)
(10.1218 -0.0464229 0.0660229)
(10.1307 -0.0479519 0.0663719)
(10.1389 -0.0492343 0.0667037)
(10.1464 -0.050218 0.0673972)
(10.0036 -0.016384 0.0551258)
(10.0264 -0.0429073 0.0577538)
(10.0346 -0.0539032 0.0594855)
(10.0319 -0.0545402 0.0604737)
(10.0327 -0.0502042 0.0612128)
(10.0382 -0.0453945 0.0619224)
(10.0454 -0.0419475 0.0625083)
(10.0542 -0.0395937 0.0629946)
(10.0656 -0.0381006 0.0634648)
(10.0792 -0.0376457 0.0639388)
(10.0937 -0.0382029 0.0643941)
(10.108 -0.0394739 0.0648173)
(10.1214 -0.0410515 0.0652148)
(10.1338 -0.0426974 0.0655958)
(10.145 -0.0442353 0.0659621)
(10.155 -0.0456562 0.0663113)
(10.1642 -0.0469008 0.0666435)
(10.1724 -0.0480343 0.0673406)
(10.0111 -0.0371433 0.0544637)
(10.0625 -0.0623862 0.0576991)
(10.083 -0.0636135 0.0595657)
(10.0812 -0.0604137 0.0604611)
(10.0804 -0.0566791 0.0611761)
(10.0832 -0.0540001 0.0618956)
(10.0863 -0.0527646 0.0624867)
(10.0901 -0.0524823 0.0629766)
(10.0955 -0.0528629 0.0634478)
(10.102 -0.0538308 0.0639191)
(10.1081 -0.0551487 0.0643718)
(10.1125 -0.0565422 0.064795)
(10.1146 -0.0577466 0.0651946)
(10.1147 -0.0587381 0.0655778)
(10.1123 -0.0594779 0.0659459)
(10.1084 -0.0601191 0.066295)
(10.1025 -0.0606305 0.0666261)
(10.0963 -0.0612193 0.0673147)
(9.91271 -0.0271276 0.0526696)
(9.75398 -0.0456346 0.0573346)
(9.5608 -0.0502559 0.0595388)
(9.36119 -0.0500692 0.0604394)
(9.18435 -0.0471625 0.0611783)
(9.02839 -0.0439736 0.0619213)
(8.88482 -0.0417312 0.0625265)
(8.74992 -0.0405237 0.0630292)
(8.62169 -0.0401015 0.0635127)
(8.49827 -0.0401305 0.0639968)
(8.37802 -0.0402515 0.0644653)
(8.26085 -0.0402343 0.064908)
(8.14683 -0.0399868 0.06533)
(8.03714 -0.0395859 0.0657367)
(7.93106 -0.0391138 0.0661289)
(7.82999 -0.0386968 0.0665014)
(7.73159 -0.0383428 0.0668559)
(7.63894 -0.0381533 0.0674716)
(9.83839 0.0378165 -0.00124691)
(9.54949 0.0537064 -0.00133049)
(9.25385 0.0522482 -0.001404)
(8.95458 0.0515415 -0.00146503)
(8.6623 0.0514303 -0.00150836)
(8.38113 0.0507232 -0.00153817)
(8.11285 0.0495872 -0.00155647)
(7.85504 0.0485842 -0.00156119)
(7.60948 0.0476649 -0.00154956)
(7.37043 0.0468234 -0.00151855)
(7.14691 0.0452353 -0.00146796)
(6.92538 0.0439071 -0.00139558)
(6.7304 0.0415583 -0.00130657)
(6.52085 0.04288 -0.00120087)
(6.35537 0.0399273 -0.00110537)
(6.13836 0.0470732 -0.000995243)
(6.01399 0.0336375 -0.000903337)
(5.77292 0.0539735 -0.000783259)
(10.0172 0.0549035 -0.00124654)
(10.0836 0.0793255 -0.00132893)
(10.1255 0.0770103 -0.00140183)
(10.1425 0.0774148 -0.00146218)
(10.1446 0.0802895 -0.0015048)
(10.1364 0.082492 -0.00153361)
(10.1209 0.0840815 -0.00155098)
(10.098 0.085122 -0.00155498)
(10.0707 0.0866221 -0.00154294)
(10.0373 0.0872918 -0.00151187)
(10.0028 0.0886785 -0.00146122)
(9.96152 0.0881621 -0.00138951)
(9.92303 0.0896882 -0.00129951)
(9.87408 0.0888941 -0.0011953)
(9.83448 0.0923971 -0.00109575)
(9.77763 0.0913037 -0.000994008)
(9.7428 0.0940932 -0.000892743)
(9.6816 0.0889236 -0.000807617)
(10.003 0.0320385 -0.00124704)
(10.0377 0.0535017 -0.0013298)
(10.0689 0.053749 -0.00140284)
(10.0899 0.0548364 -0.0014633)
(10.1053 0.0588966 -0.00150594)
(10.1188 0.0628579 -0.00153447)
(10.1317 0.0659515 -0.00155162)
(10.1437 0.068458 -0.00155563)
(10.1552 0.0709061 -0.00154391)
(10.1658 0.0729285 -0.00151348)
(10.1762 0.0746256 -0.00146382)
(10.1852 0.0757262 -0.00139322)
(10.1939 0.0770043 -0.00130397)
(10.2009 0.0791525 -0.00120005)
(10.2086 0.0817288 -0.00109994)
(10.2153 0.0849778 -0.0010018)
(10.2243 0.0849398 -0.000903363)
(10.231 0.0839259 -0.000805734)
(10.0025 0.0274528 -0.00124711)
(10.0295 0.0547411 -0.00132965)
(10.0553 0.0603223 -0.00140262)
(10.0734 0.0617916 -0.00146303)
(10.0861 0.0652625 -0.00150567)
(10.0965 0.0690961 -0.00153407)
(10.1065 0.0721655 -0.00155114)
(10.1164 0.0743629 -0.00155535)
(10.1263 0.076336 -0.00154402)
(10.1364 0.0777433 -0.00151461)
(10.1467 0.0789918 -0.00146606)
(10.157 0.0797577 -0.00139738)
(10.1669 0.0810727 -0.00130947)
(10.177 0.0827489 -0.00120747)
(10.187 0.0852221 -0.00110683)
(10.1983 0.0867538 -0.00101137)
(10.2098 0.0869052 -0.000914783)
(10.2223 0.0830215 -0.000816541)
(10.0019 0.0224084 -0.00124712)
(10.0235 0.0479935 -0.00132968)
(10.0459 0.0546631 -0.00140289)
(10.0635 0.0556398 -0.00146329)
(10.0764 0.0580882 -0.0015058)
(10.0867 0.0616714 -0.00153408)
(10.0961 0.0649077 -0.00155117)
(10.1054 0.0673249 -0.00155566)
(10.1147 0.069238 -0.00154486)
(10.1244 0.0706427 -0.00151658)
(10.1341 0.0717305 -0.00146966)
(10.1437 0.0726268 -0.0014033)
(10.153 0.073796 -0.00131805)
(10.1622 0.0755497 -0.0012185)
(10.1714 0.0776205 -0.0011173)
(10.1812 0.0792038 -0.00102243)
(10.1913 0.0791355 -0.000926496)
(10.2025 0.0768606 -0.000826375)
(10.0016 0.0181701 -0.00124707)
(10.0189 0.0416886 -0.00132965)
(10.0381 0.0502818 -0.00140297)
(10.0549 0.0527319 -0.00146325)
(10.0682 0.0554967 -0.00150549)
(10.0786 0.059309 -0.00153368)
(10.0878 0.0629721 -0.00155093)
(10.0968 0.0657823 -0.00155586)
(10.1061 0.0678291 -0.00154573)
(10.1157 0.0692112 -0.00151877)
(10.1253 0.0701715 -0.00147388)
(10.1348 0.0710278 -0.00141033)
(10.144 0.0722088 -0.00132866)
(10.153 0.0739955 -0.00123235)
(10.1618 0.0760919 -0.00113051)
(10.171 0.0776896 -0.00103565)
(10.1804 0.0778289 -0.000941347)
(10.1906 0.075767 -0.00084431)
(10.0013 0.0149572 -0.00124691)
(10.0155 0.036296 -0.0013295)
(10.0317 0.0461882 -0.00140294)
(10.0475 0.049897 -0.00146318)
(10.0608 0.0527888 -0.00150515)
(10.0714 0.0563761 -0.00153329)
(10.0804 0.0599686 -0.00155081)
(10.0892 0.0628024 -0.00155627)
(10.0983 0.0647349 -0.00154693)
(10.1078 0.0658832 -0.00152144)
(10.1174 0.0665693 -0.00147895)
(10.1268 0.0672618 -0.00141863)
(10.1359 0.0683773 -0.00134109)
(10.1447 0.0701692 -0.00124827)
(10.1532 0.0722572 -0.00114771)
(10.1619 0.073819 -0.00105281)
(10.1706 0.0738987 -0.000961042)
(10.18 0.0716972 -0.000869411)
(10.0011 0.0125121 -0.00124661)
(10.013 0.0315163 -0.00132926)
(10.0266 0.041846 -0.0014029)
(10.041 0.0465138 -0.00146314)
(10.0542 0.0496311 -0.00150476)
(10.0649 0.0530504 -0.00153272)
(10.0738 0.0565534 -0.00155056)
(10.0824 0.0594044 -0.0015567)
(10.0913 0.0612845 -0.00154835)
(10.1007 0.0622906 -0.00152452)
(10.1103 0.0628216 -0.0014848)
(10.1196 0.0634559 -0.0014282)
(10.1285 0.0646287 -0.00135518)
(10.1371 0.0665402 -0.00126718)
(10.1453 0.0687171 -0.00116967)
(10.1535 0.0703206 -0.00107445)
(10.1617 0.070417 -0.000985135)
(10.1703 0.0681799 -0.000899579)
(10.001 0.0105997 -0.0012462)
(10.0111 0.0272754 -0.00132897)
(10.0225 0.0374341 -0.00140284)
(10.0355 0.0428095 -0.00146305)
(10.0484 0.0462961 -0.00150417)
(10.059 0.0496787 -0.00153195)
(10.068 0.0530992 -0.0015503)
(10.0763 0.0559421 -0.00155729)
(10.0851 0.0577834 -0.00155003)
(10.0944 0.0586666 -0.00152798)
(10.1038 0.0590437 -0.00149121)
(10.113 0.0595976 -0.00143876)
(10.1218 0.0607981 -0.0013707)
(10.1302 0.0628283 -0.00128872)
(10.1381 0.0651289 -0.00119622)
(10.1459 0.0668455 -0.00110146)
(10.1534 0.0669961 -0.00101385)
(10.1614 0.0648024 -0.000934227)
(10.0009 0.00906881 -0.00124564)
(10.0096 0.0235505 -0.0013286)
(10.0193 0.0331072 -0.00140279)
(10.0309 0.0389044 -0.00146296)
(10.0432 0.0428238 -0.00150344)
(10.0538 0.0463033 -0.00153095)
(10.0627 0.0496385 -0.0015499)
(10.0709 0.0523618 -0.00155789)
(10.0795 0.0540591 -0.00155192)
(10.0887 0.0547703 -0.00153191)
(10.098 0.0549984 -0.00149829)
(10.1071 0.0555049 -0.00145023)
(10.1157 0.05678 -0.00138742)
(10.1239 0.0589839 -0.00131172)
(10.1315 0.0614496 -0.00122547)
(10.1389 0.0632749 -0.00113423)
(10.1459 0.0634531 -0.00104748)
(10.1533 0.0612509 -0.000972801)
(10.0008 0.00780956 -0.00124497)
(10.0085 0.0202763 -0.00132815)
(10.0167 0.0290016 -0.00140263)
(10.0271 0.0349123 -0.00146275)
(10.0388 0.0391404 -0.00150263)
(10.0492 0.0427416 -0.00153002)
(10.058 0.0460371 -0.00154958)
(10.0661 0.0486455 -0.00155841)
(10.0745 0.0501792 -0.00155364)
(10.0836 0.0507022 -0.00153585)
(10.0928 0.0507725 -0.00150567)
(10.1017 0.0512202 -0.0014623)
(10.1101 0.0525553 -0.0014052)
(10.118 0.0549157 -0.00133598)
(10.1253 0.0575519 -0.00125726)
(10.1324 0.0595203 -0.00117213)
(10.139 0.0597945 -0.00108706)
(10.1458 0.057666 -0.00101485)
(10.0008 0.00682959 -0.00124415)
(10.0078 0.017514 -0.00132776)
(10.0148 0.0253437 -0.00140271)
(10.0242 0.0312929 -0.00146219)
(10.0352 0.0358107 -0.00150088)
(10.0454 0.0394415 -0.00152836)
(10.0542 0.0425211 -0.00154922)
(10.0622 0.0448709 -0.00155919)
(10.0705 0.0462038 -0.00155548)
(10.0794 0.0465924 -0.00153962)
(10.0885 0.0465967 -0.00151259)
(10.0973 0.0470803 -0.00147344)
(10.1055 0.0485522 -0.00142167)
(10.1132 0.0511311 -0.00135857)
(10.1203 0.0539823 -0.00128681)
(10.1271 0.0561219 -0.00120895)
(10.1333 0.0564871 -0.00112895)
(10.1396 0.0543958 -0.00105772)
(10.0007 0.00601809 -0.00124337)
(10.0071 0.0151542 -0.00132731)
(10.0134 0.0218415 -0.0014031)
(10.0219 0.027386 -0.00146241)
(10.0322 0.0321366 -0.00149976)
(10.042 0.0361519 -0.0015268)
(10.0506 0.0393635 -0.00154848)
(10.0587 0.0415327 -0.00155936)
(10.0671 0.0425277 -0.00155677)
(10.0759 0.0425869 -0.00154314)
(10.0848 0.042363 -0.00151957)
(10.0933 0.0427696 -0.00148476)
(10.1013 0.0443099 -0.00143824)
(10.1088 0.0470748 -0.00138137)
(10.1157 0.0501582 -0.00131641)
(10.1222 0.0525302 -0.00124593)
(10.1282 0.053092 -0.0011723)
(10.134 0.0511548 -0.00110564)
(10.0007 0.00516567 -0.00124246)
(10.0066 0.0125115 -0.00132722)
(10.012 0.018264 -0.00140384)
(10.0197 0.0236187 -0.00146159)
(10.0295 0.0281305 -0.0014969)
(10.039 0.0315826 -0.00152463)
(10.0474 0.0341826 -0.00154847)
(10.0552 0.0360152 -0.00156072)
(10.0635 0.0370179 -0.00155927)
(10.0723 0.0372932 -0.00154789)
(10.0811 0.0373301 -0.00152782)
(10.0895 0.0379829 -0.00149747)
(10.0972 0.0397546 -0.00145645)
(10.1045 0.042762 -0.00140632)
(10.1111 0.0460724 -0.00134904)
(10.1173 0.0486331 -0.00128655)
(10.1229 0.0493373 -0.00122098)
(10.1282 0.0474904 -0.00116124)
(10.0006 0.0044678 -0.00124112)
(10.0062 0.0099888 -0.00132684)
(10.0112 0.0137214 -0.00140479)
(10.0179 0.0181254 -0.00146097)
(10.0265 0.0232435 -0.00149422)
(10.0354 0.0278827 -0.00152294)
(10.0441 0.0309766 -0.00154784)
(10.0527 0.032279 -0.00155983)
(10.0615 0.0322301 -0.00155909)
(10.0703 0.0315475 -0.00155078)
(10.0787 0.0310167 -0.00153537)
(10.0863 0.0315197 -0.00151054)
(10.0935 0.0334414 -0.00147596)
(10.1003 0.0368014 -0.00143335)
(10.1066 0.0405768 -0.00138444)
(10.1126 0.0436348 -0.00133076)
(10.1179 0.0448434 -0.00127382)
(10.1227 0.0434171 -0.00122221)
(10.0007 0.00344337 -0.00123959)
(10.0063 0.00665201 -0.00132814)
(10.0093 0.0101852 -0.00140817)
(10.0139 0.0148979 -0.00145762)
(10.0235 0.0184747 -0.00148653)
(10.0367 0.0201421 -0.00151859)
(10.0506 0.0209477 -0.00154713)
(10.0626 0.0218997 -0.00155997)
(10.0722 0.0230985 -0.00156063)
(10.0795 0.0241773 -0.00155562)
(10.085 0.0250356 -0.00154425)
(10.0896 0.0262579 -0.00152387)
(10.0941 0.0283574 -0.00149488)
(10.0989 0.0316682 -0.0014593)
(10.1039 0.035454 -0.00141857)
(10.109 0.0386808 -0.00137365)
(10.1136 0.0402646 -0.0013257)
(10.1179 0.0392693 -0.00128324)
(10.0009 0.00227172 -0.00123863)
(10.0045 0.00507034 -0.00133268)
(10.0076 0.00695714 -0.00141026)
(10.0164 0.0069287 -0.00144719)
(10.0309 0.00536703 -0.00147552)
(10.046 0.00487359 -0.00151656)
(10.0582 0.00728839 -0.00154787)
(10.0669 0.0120799 -0.00155755)
(10.0733 0.0172261 -0.00155717)
(10.0782 0.0209935 -0.00155534)
(10.0821 0.0229002 -0.00154915)
(10.0856 0.0238464 -0.00153445)
(10.0894 0.0249293 -0.0015119)
(10.094 0.0270881 -0.00148384)
(10.0991 0.030094 -0.00145138)
(10.1043 0.0330803 -0.001415)
(10.1092 0.0350282 -0.00137553)
(10.1134 0.0347376 -0.00134161)
(10 0.00259788 -0.00123954)
(10.0038 0.0020035 -0.00134021)
(10.0115 -0.00393927 -0.00140891)
(10.0242 -0.00895503 -0.00143104)
(10.0379 -0.0100614 -0.00146274)
(10.0488 -0.00726796 -0.00151114)
(10.0569 -0.00160935 -0.00154403)
(10.0633 0.00539799 -0.00155342)
(10.0689 0.0119317 -0.00155445)
(10.0739 0.0165765 -0.00155552)
(10.078 0.0187955 -0.00155289)
(10.0814 0.0193342 -0.00154211)
(10.085 0.0193722 -0.00152419)
(10.0893 0.0202057 -0.00150186)
(10.0944 0.0222719 -0.00147607)
(10.0999 0.025036 -0.00144693)
(10.1055 0.0277262 -0.00141495)
(10.1104 0.0289006 -0.00138876)
(9.99928 0.00264632 -0.00124454)
(10.0053 -0.00752337 -0.00135327)
(10.0162 -0.0201028 -0.00140757)
(10.028 -0.0241839 -0.00142047)
(10.0377 -0.0220391 -0.00145685)
(10.0454 -0.0172984 -0.00150895)
(10.0522 -0.0109689 -0.00154038)
(10.0582 -0.00336209 -0.00154723)
(10.0639 0.00444124 -0.00154714)
(10.0693 0.0108825 -0.00154967)
(10.0739 0.0146574 -0.00155006)
(10.0775 0.0156557 -0.00154283)
(10.0807 0.014723 -0.00152907)
(10.0844 0.0133084 -0.00151192)
(10.089 0.0128358 -0.00149219)
(10.0944 0.0137185 -0.0014694)
(10.1005 0.0159347 -0.00144381)
(10.1067 0.0185201 -0.00142416)
(9.99913 0.000927142 -0.00125007)
(10.0058 -0.0185767 -0.00135802)
(10.0169 -0.0335499 -0.00139887)
(10.0266 -0.0353372 -0.00140945)
(10.0342 -0.0309352 -0.00145217)
(10.041 -0.0250167 -0.00150515)
(10.0471 -0.0183665 -0.00153387)
(10.0526 -0.0108641 -0.00153854)
(10.0581 -0.00307386 -0.0015377)
(10.0638 0.00384858 -0.00154086)
(10.0693 0.00865667 -0.00154248)
(10.0741 0.0107012 -0.00153689)
(10.0784 0.0101575 -0.00152523)
(10.0823 0.00780651 -0.0015108)
(10.0863 0.00508951 -0.00149439)
(10.0909 0.00317669 -0.00147531)
(10.0963 0.00275181 -0.00145361)
(10.1027 0.00421431 -0.00143801)
(9.9989 -0.00115354 -0.00125543)
(10.0048 -0.0263244 -0.00135799)
(10.0154 -0.0420678 -0.00139202)
(10.0239 -0.0426136 -0.00140331)
(10.0305 -0.0372893 -0.00144812)
(10.0369 -0.0308977 -0.00149982)
(10.043 -0.0239274 -0.00152631)
(10.0484 -0.0163204 -0.00152966)
(10.0535 -0.00882849 -0.00152887)
(10.059 -0.00247226 -0.0015327)
(10.0649 0.0020158 -0.00153519)
(10.0708 0.00429851 -0.00153036)
(10.0766 0.0044791 -0.00151981)
(10.082 0.00288283 -0.00150695)
(10.087 0.000168377 -0.00149243)
(10.0917 -0.00269948 -0.00147556)
(10.0964 -0.00516928 -0.00145617)
(10.1016 -0.00625683 -0.00144314)
(9.9987 -0.00294991 -0.00125383)
(10.0032 -0.0321149 -0.00135352)
(10.0131 -0.048645 -0.00138639)
(10.021 -0.0483977 -0.00139976)
(10.0271 -0.0424027 -0.0014457)
(10.0331 -0.0357505 -0.00149653)
(10.0391 -0.0286599 -0.00152065)
(10.0446 -0.0210177 -0.00152171)
(10.0499 -0.013681 -0.00152016)
(10.0556 -0.00780436 -0.00152441)
(10.0616 -0.00409208 -0.0015277)
(10.068 -0.00262246 -0.00152387)
(10.0746 -0.00301782 -0.00151448)
(10.0813 -0.00465982 -0.00150281)
(10.0878 -0.00695483 -0.00148954)
(10.0939 -0.00924651 -0.00147407)
(10.0996 -0.0112715 -0.00145613)
(10.1049 -0.0125963 -0.00144452)
(9.99892 -0.00406987 -0.00124765)
(10.0025 -0.0359511 -0.00134547)
(10.0114 -0.0536833 -0.00138124)