/*--------------------------------*- C++ -*----------------------------------*\
| =========                 |                                                 |
| \\      /  F ield         | OpenFOAM: The Open Source CFD Toolbox           |
|  \\    /   O peration     | Version:  2112                                  |
|   \\  /    A nd           | Website:  www.openfoam.com                      |
|    \\/     M anipulation  |                                                 |
\*---------------------------------------------------------------------------*/
FoamFile
{
    version     2.0;
    format      ascii;
    arch        "LSB;label=32;scalar=64";
    class       volVectorField;
    location    "0.047";
    object      UMean;
}
// * * * * * * * * * * * * * * * * * * * * * * * * * * * * * * * * * * * * * //

dimensions      [0 1 -1 0 0 0 0];

internalField   nonuniform List<vector> 
12225
(
(9.84486 0.0445045 0)
(9.56464 0.0595145 0)
(9.27287 0.0569224 0)
(8.97341 0.0551759 0)
(8.68126 0.0542305 0)
(8.4021 0.053271 0)
(8.13722 0.0515452 0)
(7.88381 0.0505294 0)
(7.64245 0.0483817 0)
(7.40922 0.0484587 0)
(7.18708 0.0454083 0)
(6.96979 0.0483408 0)
(6.76119 0.0425816 0)
(6.55422 0.0530955 0)
(6.34699 0.039264 0)
(6.1457 0.0686708 0)
(5.92091 0.0287633 0)
(5.73059 0.0944968 0)
(10.0211 0.0521187 0)
(10.0932 0.0759048 0)
(10.1364 0.0740407 0)
(10.1504 0.0743511 0)
(10.1487 0.0771655 0)
(10.1385 0.0791563 0)
(10.1216 0.0807275 0)
(10.0987 0.0813025 0)
(10.0696 0.0830137 0)
(10.0361 0.083258 0)
(9.99702 0.0862602 0)
(9.95547 0.085966 0)
(9.9078 0.0920204 0)
(9.85946 0.0910787 0)
(9.80237 0.103457 0)
(9.74671 0.100654 0)
(9.67915 0.116816 0)
(9.60742 0.0946318 0)
(9.9983 0.0265082 0)
(10.0414 0.051796 0)
(10.0748 0.0523279 0)
(10.0933 0.0535686 0)
(10.1057 0.057645 0)
(10.1174 0.0617661 0)
(10.1296 0.0644595 0)
(10.1411 0.0671617 0)
(10.1521 0.0688403 0)
(10.1612 0.0719389 0)
(10.1705 0.0732257 0)
(10.1778 0.0780425 0)
(10.1872 0.0794474 0)
(10.194 0.0879984 0)
(10.207 0.0902645 0)
(10.2172 0.102547 0)
(10.2399 0.101749 0)
(10.2569 0.0932901 0)
(9.98892 0.0306509 0)
(10.0198 0.0598779 0)
(10.0468 0.0635012 0)
(10.0625 0.0637722 0)
(10.0721 0.066574 0)
(10.0809 0.0696473 0)
(10.0908 0.0720837 0)
(10.1011 0.073645 0)
(10.1114 0.0755183 0)
(10.1213 0.0769792 0)
(10.1312 0.079389 0)
(10.1413 0.0813805 0)
(10.1527 0.0850731 0)
(10.1656 0.0885198 0)
(10.1822 0.0935553 0)
(10.2035 0.0973304 0)
(10.2316 0.0959798 0)
(10.2653 0.0856431 0)
(9.97066 0.0183683 0)
(9.99584 0.0413926 0)
(10.0195 0.0483837 0)
(10.0351 0.0499251 0)
(10.0454 0.0525569 0)
(10.0542 0.0561406 0)
(10.0633 0.0590994 0)
(10.0728 0.0615009 0)
(10.0821 0.0634316 0)
(10.0913 0.0655797 0)
(10.1006 0.0676087 0)
(10.1103 0.0701334 0)
(10.1211 0.0727642 0)
(10.1338 0.0758684 0)
(10.1492 0.0787192 0)
(10.1687 0.0793527 0)
(10.1919 0.0756887 0)
(10.2176 0.0607081 0)
(9.99087 0.024188 0)
(10.0133 0.0464371 0)
(10.0335 0.055058 0)
(10.0471 0.0569486 0)
(10.0561 0.0587646 0)
(10.0633 0.0616224 0)
(10.0708 0.0643916 0)
(10.0787 0.066461 0)
(10.087 0.068063 0)
(10.0953 0.0695023 0)
(10.1037 0.0709874 0)
(10.1127 0.0726066 0)
(10.1229 0.0742398 0)
(10.1347 0.075728 0)
(10.149 0.0761693 0)
(10.1657 0.0742086 0)
(10.185 0.0673681 0)
(10.2041 0.0525643 0)
(10.0027 0.0104857 0)
(10.0229 0.030869 0)
(10.0414 0.0414394 0)
(10.0548 0.0452845 0)
(10.0644 0.0476251 0)
(10.0724 0.0505866 0)
(10.0804 0.0536403 0)
(10.0889 0.0561198 0)
(10.0975 0.0579982 0)
(10.1062 0.0595427 0)
(10.115 0.060991 0)
(10.1242 0.062337 0)
(10.1343 0.0635036 0)
(10.1456 0.0639965 0)
(10.1587 0.0632281 0)
(10.1732 0.0597517 0)
(10.1889 0.0522347 0)
(10.2038 0.0390107 0)
(9.99615 0.0208111 0)
(10.0147 0.0356705 0)
(10.0311 0.045919 0)
(10.0434 0.0503263 0)
(10.0534 0.0523733 0)
(10.0622 0.0545321 0)
(10.0707 0.056952 0)
(10.0796 0.0590186 0)
(10.0886 0.0605295 0)
(10.0975 0.0616784 0)
(10.1065 0.0626201 0)
(10.1157 0.0633069 0)
(10.1257 0.0635491 0)
(10.1365 0.0628829 0)
(10.1484 0.0607165 0)
(10.1612 0.0560496 0)
(10.1738 0.0480802 0)
(10.1856 0.0359368 0)
(9.98653 0.00587891 0)
(10.0052 0.0223562 0)
(10.0196 0.0329176 0)
(10.0302 0.0381478 0)
(10.0397 0.0410058 0)
(10.0486 0.0435156 0)
(10.0573 0.0460955 0)
(10.0662 0.0483814 0)
(10.0752 0.0501377 0)
(10.0843 0.0513709 0)
(10.0934 0.0521769 0)
(10.1027 0.0525113 0)
(10.1124 0.052209 0)
(10.1228 0.0508848 0)
(10.1337 0.0480812 0)
(10.1449 0.0431255 0)
(10.1556 0.0355483 0)
(10.1651 0.024947 0)
(9.99117 0.0132808 0)
(10.0082 0.0280721 0)
(10.021 0.0370714 0)
(10.0303 0.0420021 0)
(10.0389 0.0448446 0)
(10.0473 0.0469499 0)
(10.0554 0.048868 0)
(10.0636 0.0505495 0)
(10.0719 0.051838 0)
(10.0805 0.0526674 0)
(10.0892 0.0530517 0)
(10.0981 0.0529003 0)
(10.1073 0.052009 0)
(10.1169 0.0500504 0)
(10.1266 0.046668 0)
(10.1363 0.0414581 0)
(10.1452 0.0341739 0)
(10.1527 0.0247545 0)
(9.98249 0.00160598 0)
(9.9969 0.0169179 0)
(10.0084 0.0251024 0)
(10.0172 0.030272 0)
(10.0258 0.0337333 0)
(10.0343 0.0363002 0)
(10.0425 0.0384334 0)
(10.0503 0.0402167 0)
(10.0581 0.0415547 0)
(10.0662 0.04237 0)
(10.0745 0.0425882 0)
(10.0832 0.0421256 0)
(10.0921 0.0408536 0)
(10.1012 0.0385751 0)
(10.1102 0.0350491 0)
(10.1188 0.0300821 0)
(10.1266 0.0235402 0)
(10.133 0.0155527 0)
(9.99776 0.00874648 0)
(10.0092 0.0202655 0)
(10.018 0.0279233 0)
(10.0249 0.032858 0)
(10.032 0.0360307 0)
(10.0394 0.0382701 0)
(10.0468 0.0400288 0)
(10.0542 0.0413964 0)
(10.0617 0.0422838 0)
(10.0694 0.0425736 0)
(10.0772 0.0422414 0)
(10.085 0.0412755 0)
(10.0929 0.0395973 0)
(10.1006 0.0370516 0)
(10.108 0.0334647 0)
(10.115 0.0287146 0)
(10.121 0.0227682 0)
(10.126 0.0157799 0)
(9.98546 0.00532284 0)
(9.99752 0.0123447 0)
(10.0065 0.01979 0)
(10.0136 0.0250679 0)
(10.0213 0.0283448 0)
(10.0296 0.0304833 0)
(10.0379 0.0320773 0)
(10.0458 0.0333388 0)
(10.0533 0.0341925 0)
(10.0607 0.034508 0)
(10.0681 0.0342121 0)
(10.0755 0.0332564 0)
(10.0829 0.0315524 0)
(10.0901 0.0290232 0)
(10.0969 0.025557 0)
(10.1032 0.0211684 0)
(10.1084 0.0158472 0)
(10.1127 0.0098557 0)
(9.97424 0.00548439 0)
(9.98713 0.0134335 0)
(9.99493 0.0198435 0)
(10.0001 0.0242254 0)
(10.006 0.0270369 0)
(10.0129 0.0290451 0)
(10.0202 0.0306959 0)
(10.0275 0.0319765 0)
(10.0347 0.0326723 0)
(10.042 0.0326671 0)
(10.0494 0.0319372 0)
(10.0568 0.0305544 0)
(10.0642 0.0285431 0)
(10.0713 0.0259338 0)
(10.0779 0.022658 0)
(10.0839 0.0187736 0)
(10.0889 0.0142428 0)
(10.0931 0.00931874 0)
(9.98951 0.00229718 0)
(10.0021 0.00800316 0)
(10.0096 0.0130277 0)
(10.0138 0.0169644 0)
(10.0187 0.019687 0)
(10.0249 0.021486 0)
(10.0316 0.0226957 0)
(10.0385 0.023414 0)
(10.0452 0.0236164 0)
(10.0518 0.0232843 0)
(10.0583 0.0224274 0)
(10.0647 0.0210647 0)
(10.0707 0.0191641 0)
(10.0763 0.0167405 0)
(10.0814 0.0137557 0)
(10.0859 0.0103358 0)
(10.0898 0.00648846 0)
(10.0926 0.00251865 0)
(9.99402 0.0029823 0)
(10.0057 0.00824897 0)
(10.0122 0.0125038 0)
(10.0158 0.0154355 0)
(10.0202 0.0174626 0)
(10.0258 0.018925 0)
(10.0321 0.0199048 0)
(10.0385 0.0203873 0)
(10.0449 0.0203476 0)
(10.0511 0.0198159 0)
(10.0574 0.0188331 0)
(10.0634 0.0174564 0)
(10.0692 0.0156929 0)
(10.0746 0.0135864 0)
(10.0793 0.0111187 0)
(10.0834 0.00839915 0)
(10.0868 0.00543034 0)
(10.0895 0.00244178 0)
(9.9889 -0.000101073 0)
(10.0018 0.00396149 0)
(10.0089 0.00647634 0)
(10.0123 0.00807649 0)
(10.0162 0.00919621 0)
(10.0214 0.0100325 0)
(10.0273 0.0105281 0)
(10.0332 0.0105599 0)
(10.039 0.0100843 0)
(10.0446 0.00920051 0)
(10.0498 0.00802198 0)
(10.0548 0.00666341 0)
(10.0594 0.00513818 0)
(10.0636 0.00348429 0)
(10.0674 0.00164505 0)
(10.0708 -0.000287482 0)
(10.0736 -0.00236544 0)
(10.0759 -0.0043603 0)
(9.98937 -0.00415491 0)
(9.99882 -0.000996893 0)
(10.0038 0.00120416 0)
(10.0061 0.00296413 0)
(10.0092 0.00419029 0)
(10.0139 0.00477017 0)
(10.0194 0.00480091 0)
(10.025 0.00448067 0)
(10.0305 0.00396107 0)
(10.0359 0.00331378 0)
(10.041 0.00251034 0)
(10.0459 0.0015293 0)
(10.0507 0.000323147 0)
(10.0553 -0.00104389 0)
(10.0596 -0.00256222 0)
(10.0635 -0.00405741 0)
(10.0672 -0.00555374 0)
(10.0704 -0.00679655 0)
(9.99721 0.00493517 0)
(10.0086 0.00130858 0)
(10.0139 -0.000972761 0)
(10.0161 -0.00258284 0)
(10.0191 -0.00382886 0)
(10.0236 -0.00484618 0)
(10.029 -0.00577174 0)
(10.0345 -0.00671686 0)
(10.0397 -0.00775812 0)
(10.0448 -0.00890692 0)
(10.0496 -0.0101717 0)
(10.0543 -0.0115083 0)
(10.0588 -0.0129022 0)
(10.063 -0.0142606 0)
(10.067 -0.0155769 0)
(10.0706 -0.0167218 0)
(10.0739 -0.0177765 0)
(10.0769 -0.0185681 0)
(10.007 -0.00710626 0)
(10.0201 -0.00617161 0)
(10.0274 -0.00736057 0)
(10.0307 -0.00880435 0)
(10.0342 -0.00977801 0)
(10.0387 -0.0104647 0)
(10.0438 -0.011233 0)
(10.0488 -0.0122362 0)
(10.0537 -0.0134043 0)
(10.0583 -0.0145845 0)
(10.0628 -0.015692 0)
(10.067 -0.0166931 0)
(10.0711 -0.0176238 0)
(10.0748 -0.0184731 0)
(10.0784 -0.0192789 0)
(10.0817 -0.0199736 0)
(10.0847 -0.0206263 0)
(10.0876 -0.0211181 0)
(9.98719 -0.00630601 0)
(9.99459 -0.00889103 0)
(9.99795 -0.0118819 0)
(10.0001 -0.0146913 0)
(10.0042 -0.0170263 0)
(10.0097 -0.018911 0)
(10.0156 -0.0205275 0)
(10.0211 -0.0220202 0)
(10.0261 -0.0234412 0)
(10.0306 -0.0247609 0)
(10.035 -0.0259586 0)
(10.0392 -0.0270232 0)
(10.0435 -0.0279964 0)
(10.0476 -0.0288736 0)
(10.0516 -0.0296988 0)
(10.0554 -0.0304317 0)
(10.059 -0.0311451 0)
(10.0624 -0.0317513 0)
(9.99622 0.00120219 0)
(10.0074 -0.00793327 0)
(10.014 -0.0132675 0)
(10.0176 -0.0166958 0)
(10.0217 -0.0192952 0)
(10.0264 -0.0212046 0)
(10.0314 -0.0224714 0)
(10.0361 -0.0233583 0)
(10.0405 -0.0242041 0)
(10.0446 -0.0251966 0)
(10.0485 -0.0263563 0)
(10.0521 -0.0275678 0)
(10.0557 -0.0287191 0)
(10.0591 -0.0296986 0)
(10.0624 -0.0305057 0)
(10.0656 -0.0311248 0)
(10.0687 -0.0316666 0)
(10.0718 -0.0321079 0)
(9.97486 -0.00758491 0)
(9.98864 -0.0163536 0)
(9.99699 -0.0222302 0)
(10.0015 -0.0258327 0)
(10.0058 -0.0280973 0)
(10.0106 -0.0298899 0)
(10.0157 -0.0315997 0)
(10.0207 -0.0332103 0)
(10.0256 -0.0345944 0)
(10.0304 -0.0357326 0)
(10.0348 -0.0367273 0)
(10.0389 -0.0376667 0)
(10.0426 -0.0386028 0)
(10.046 -0.0395186 0)
(10.0491 -0.0404138 0)
(10.052 -0.0412313 0)
(10.0549 -0.0420067 0)
(10.0577 -0.0426824 0)
(9.98393 -0.00323482 0)
(9.99737 -0.0118296 0)
(10.0066 -0.0194647 0)
(10.0128 -0.0238216 0)
(10.0188 -0.025922 0)
(10.0248 -0.0274568 0)
(10.0303 -0.0291072 0)
(10.0355 -0.0307154 0)
(10.0404 -0.0320364 0)
(10.045 -0.0330574 0)
(10.0494 -0.0339081 0)
(10.0535 -0.0346858 0)
(10.0572 -0.0354372 0)
(10.0607 -0.0361485 0)
(10.0639 -0.0368431 0)
(10.0669 -0.0375015 0)
(10.0698 -0.0381771 0)
(10.0725 -0.0388222 0)
(9.99438 -0.0121336 0)
(10.0069 -0.0256745 0)
(10.0172 -0.0336636 0)
(10.025 -0.0368668 0)
(10.0317 -0.0383827 0)
(10.0375 -0.0399725 0)
(10.0429 -0.0417101 0)
(10.0482 -0.0431726 0)
(10.0533 -0.0442263 0)
(10.0581 -0.0449966 0)
(10.0626 -0.0456435 0)
(10.0668 -0.0462595 0)
(10.0707 -0.0468863 0)
(10.0744 -0.0475212 0)
(10.0779 -0.0481749 0)
(10.0812 -0.0488291 0)
(10.0843 -0.049498 0)
(10.0873 -0.0501383 0)
(9.99629 -0.00293961 0)
(10.0125 -0.0208451 0)
(10.0271 -0.027503 0)
(10.0375 -0.0294511 0)
(10.045 -0.0310687 0)
(10.051 -0.0332493 0)
(10.0566 -0.0353621 0)
(10.0622 -0.0369608 0)
(10.0676 -0.0381081 0)
(10.0727 -0.039022 0)
(10.0773 -0.0398364 0)
(10.0816 -0.0405788 0)
(10.0857 -0.0412657 0)
(10.0896 -0.041909 0)
(10.0934 -0.0425448 0)
(10.0969 -0.0431776 0)
(10.1003 -0.0438371 0)
(10.1034 -0.0444923 0)
(10.0145 -0.0168857 0)
(10.036 -0.040377 0)
(10.0534 -0.0460263 0)
(10.0637 -0.0462139 0)
(10.0701 -0.047055 0)
(10.0754 -0.0488068 0)
(10.0807 -0.0503638 0)
(10.0862 -0.0513152 0)
(10.0914 -0.0518409 0)
(10.096 -0.052221 0)
(10.1001 -0.0526049 0)
(10.1039 -0.053038 0)
(10.1074 -0.0535169 0)
(10.1108 -0.0540329 0)
(10.1142 -0.0545666 0)
(10.1175 -0.0551047 0)
(10.1207 -0.0556285 0)
(10.1236 -0.056127 0)
(9.98344 -0.00954765 0)
(10.0158 -0.0292076 0)
(10.0397 -0.0330013 0)
(10.0516 -0.0336029 0)
(10.0581 -0.0356532 0)
(10.0639 -0.0381913 0)
(10.0704 -0.0400974 0)
(10.0772 -0.0413499 0)
(10.0837 -0.0422713 0)
(10.0899 -0.0430837 0)
(10.0957 -0.0438498 0)
(10.1013 -0.0446154 0)
(10.1066 -0.0453666 0)
(10.1114 -0.0461432 0)
(10.1159 -0.0468916 0)
(10.1199 -0.0476442 0)
(10.1235 -0.048334 0)
(10.1267 -0.0490191 0)
(9.96442 -0.0387182 0)
(10.0155 -0.0575493 0)
(10.0517 -0.0560537 0)
(10.07 -0.0548381 0)
(10.0795 -0.0558909 0)
(10.086 -0.0571595 0)
(10.0908 -0.0579038 0)
(10.0934 -0.0583265 0)
(10.0936 -0.0586579 0)
(10.0915 -0.0589822 0)
(10.0875 -0.059262 0)
(10.0821 -0.0595083 0)
(10.0753 -0.0596848 0)
(10.0676 -0.0598574 0)
(10.0586 -0.0599723 0)
(10.0492 -0.0601374 0)
(10.0385 -0.0602823 0)
(10.0281 -0.0605689 0)
(9.89067 -0.0265456 0)
(9.74452 -0.0430229 0)
(9.58545 -0.0427323 0)
(9.41589 -0.0420556 0)
(9.24848 -0.0423078 0)
(9.08879 -0.0424284 0)
(8.93714 -0.0421633 0)
(8.79251 -0.0416578 0)
(8.65405 -0.0410492 0)
(8.52155 -0.0404283 0)
(8.39472 -0.0398291 0)
(8.27366 -0.039279 0)
(8.15776 -0.0387557 0)
(8.04737 -0.0382758 0)
(7.94131 -0.0377889 0)
(7.84075 -0.0373426 0)
(7.74328 -0.0368753 0)
(7.65198 -0.0365009 0)
(-0.141966 0.284417 3.5308e-21)
(-0.311927 0.117009 -3.48811e-21)
(-0.379752 -0.0140206 0)
(-0.360397 -0.131095 0)
(-0.223397 -0.243823 0)
(-0.000209518 -0.333244 3.38411e-21)
(0.297559 -0.389965 0)
(0.641285 -0.411772 0)
(0.999703 -0.405273 0)
(1.34861 -0.377184 0)
(1.67088 -0.332691 -3.15113e-21)
(1.95454 -0.277666 0)
(2.19062 -0.216703 0)
(2.37205 -0.153167 0)
(2.49537 -0.0892773 0)
(2.55998 -0.0265196 -2.64722e-21)
(2.56568 0.034152 0)
(2.51414 0.0918396 0)
(2.40624 0.145832 0)
(2.24658 0.194547 0)
(2.03626 0.237123 0)
(1.78836 0.271486 0)
(1.50209 0.293984 0)
(1.20429 0.289908 -2.5677e-21)
(0.887232 0.286801 2.56582e-21)
(0.580722 0.190839 -2.55077e-21)
(0.312724 0.0900261 -2.52566e-21)
(0.0228816 0.0676488 0)
(-0.276252 0.00844046 0)
(-0.564375 0.0670534 2.38207e-21)
(-0.893442 0.254327 2.32546e-21)
(-1.27607 0.315006 0)
(-1.65618 0.292026 0)
(-2.01224 0.245852 2.06325e-21)
(-2.31882 0.198504 0)
(-2.57394 0.148601 0)
(-2.77758 0.0794997 -1.75811e-21)
(-2.91853 0.0141623 0)
(-3.01546 0.00787654 -1.5738e-21)
(-3.11845 0.0519833 -2.92986e-21)
(-3.24697 0.0908814 0)
(-3.4114 0.111988 0)
(-3.60313 0.130829 0)
(-3.81377 0.136241 0)
(-3.95138 0.0483184 0)
(-4.07264 0.0252074 -2.00856e-21)
(-4.18374 -0.0511276 -1.94051e-21)
(-4.31999 -0.0870287 -1.85909e-21)
(-4.45101 0.0520004 0)
(-4.69571 0.197398 1.77646e-21)
(-4.95057 0.181983 0)
(-5.15669 0.167224 -1.61755e-21)
(-5.35702 0.148767 -1.51196e-21)
(-5.52515 0.131687 0)
(-5.6739 0.110983 0)
(-5.78227 0.0826134 0)
(-5.87103 0.0455679 -1.11896e-21)
(-5.94441 0.0528124 0)
(-6.04475 0.0870305 0)
(-6.12757 0.0675326 0)
(-6.16674 0.0417638 0)
(-6.18079 0.0202438 0)
(-6.1642 0.000325123 0)
(-6.12473 -0.0165551 0)
(-6.06227 -0.0314672 0)
(-5.98039 -0.0441547 7.52603e-22)
(-5.88049 -0.0551373 0)
(-5.76475 -0.0644879 0)
(-5.63485 -0.0725228 -1.02644e-21)
(-5.49228 -0.0794251 -1.16587e-21)
(-5.33847 -0.085392 0)
(-5.17427 -0.0905731 1.50261e-21)
(-5.00076 -0.0951009 -1.69443e-21)
(-4.81871 -0.0990556 0)
(-4.62886 -0.102551 2.11129e-21)
(-4.43179 -0.105652 0)
(-4.228 -0.108449 0)
(-4.01786 -0.111003 -2.78345e-21)
(-3.80163 -0.113406 0)
(-3.57945 -0.115695 3.24065e-21)
(-3.35138 -0.117938 0)
(-3.11742 -0.120157 -3.69264e-21)
(-2.87753 -0.122359 -3.91421e-21)
(-2.63166 -0.124481 -4.13166e-21)
(-2.37981 -0.126503 -8.68827e-21)
(-2.12218 -0.128317 9.10141e-21)
(-1.85915 -0.129778 0)
(-1.59141 -0.130767 0)
(-1.31991 -0.131097 0)
(-1.04604 -0.1306 1.05847e-20)
(-0.771641 -0.129137 1.08962e-20)
(-0.498828 -0.126606 -1.11764e-20)
(-0.229828 -0.122992 0)
(0.0332377 -0.118383 1.16316e-20)
(0.288441 -0.112898 1.18038e-20)
(0.534143 -0.106763 1.19396e-20)
(0.769105 -0.100202 0)
(0.992453 -0.093539 0)
(1.20372 -0.0870469 0)
(1.4031 -0.0807181 1.21683e-20)
(1.59112 -0.0747924 0)
(1.76841 -0.0693239 0)
(1.9358 -0.0643779 -1.21026e-20)
(2.0942 -0.0599226 0)
(2.24459 -0.0559942 0)
(2.38786 -0.0525065 -1.192e-20)
(2.52488 -0.0494208 0)
(2.65629 -0.0466358 0)
(2.78256 -0.044085 1.16665e-20)
(2.90392 -0.0416754 1.15702e-20)
(3.02047 -0.0392958 0)
(3.13216 -0.0368833 -1.13623e-20)
(3.23881 -0.0344165 0)
(3.34021 -0.0318893 1.11357e-20)
(3.43616 -0.0293044 0)
(3.52652 -0.0266801 1.08936e-20)
(3.61122 -0.0240901 1.07681e-20)
(3.69025 -0.0215272 0)
(3.76362 -0.0190645 0)
(3.83141 -0.0166747 0)
(3.89365 -0.0143457 0)
(3.95042 -0.0120684 0)
(4.0017 -0.00982804 0)
(4.04748 -0.00761322 0)
(4.08769 -0.0054159 9.73384e-21)
(4.12224 -0.00323404 -9.60694e-21)
(4.15108 -0.00107484 0)
(4.17419 0.00104422 0)
(4.19158 0.00309805 0)
(4.20339 0.00505502 0)
(4.20982 0.00687706 -1.79955e-20)
(4.21118 0.00852851 0)
(4.2079 0.0099847 1.75396e-20)
(4.20041 0.0112348 -1.73196e-20)
(4.18922 0.0122821 0)
(4.1748 0.0131363 0)
(4.15763 0.0138182 0)
(4.13809 0.0143614 1.64917e-20)
(4.11653 0.0147891 1.62965e-20)
(4.09322 0.0150961 0)
(4.06844 0.0152938 1.5918e-20)
(4.04238 0.0154435 1.5734e-20)
(4.01511 0.0155871 -1.5553e-20)
(3.98671 0.0156838 0)
(3.95733 0.0156122 0)
(3.92731 0.0152393 -1.50247e-20)
(3.89722 0.0145201 0)
(3.86764 0.0135623 0)
(3.83901 0.0125781 0)
(3.81144 0.0117549 0)
(3.78483 0.0111553 1.41823e-20)
(3.75897 0.0107176 1.40186e-20)
(3.73374 0.0103319 0)
(3.70909 0.00991932 1.3695e-20)
(3.68506 0.00946495 0)
(3.66168 0.0090022 0)
(3.63896 0.00856824 1.32185e-20)
(3.61686 0.0081777 0)
(3.59531 0.0078163 1.29067e-20)
(3.57433 0.00745286 0)
(3.55392 0.00704579 0)
(3.53427 0.00655413 1.24472e-20)
(3.51544 0.00595263 0)
(3.49783 0.00526102 1.21469e-20)
(3.48133 0.00455643 0)
(3.46636 0.0039291 0)
(3.45214 0.00348855 0)
(3.43916 0.00323755 -1.15656e-20)
(3.42567 0.0032899 0)
(3.41277 0.00344604 1.12866e-20)
(3.39745 0.00408383 0)
(3.38189 0.00452045 0)
(3.36169 0.00613877 0)
(3.33879 0.00661443 0)
(3.31025 0.0106157 0)
(3.26834 0.0102879 0)
(3.22917 0.0213284 0)
(3.13143 0.0173693 -2.06799e-20)
(3.08964 0.0539929 0)
(2.80042 0.043981 0)
(0.00572085 0.577819 -1.05385e-20)
(0.0462219 0.331446 1.04231e-20)
(0.0830869 0.0709385 0)
(0.217076 -0.192041 -6.75845e-21)
(0.448105 -0.509685 0)
(0.74876 -0.780681 -3.38728e-21)
(1.07814 -0.9628 6.53426e-21)
(1.40389 -1.05047 6.42292e-21)
(1.70792 -1.05509 0)
(1.98047 -0.993972 6.0777e-21)
(2.21517 -0.885817 3.15499e-21)
(2.40804 -0.747274 0)
(2.55614 -0.591578 0)
(2.65917 -0.428033 0)
(2.718 -0.263272 0)
(2.73318 -0.101581 2.65127e-21)
(2.70735 0.0539317 0)
(2.64256 0.201906 -4.75771e-21)
(2.54144 0.340544 0)
(2.40616 0.468245 0)
(2.23985 0.577678 4.76854e-21)
(2.04532 0.66755 0)
(1.82911 0.727625 -4.84389e-21)
(1.58877 0.774019 2.57426e-21)
(1.34423 0.777975 -2.57276e-21)
(1.04937 0.774721 2.55801e-21)
(0.679402 0.834167 2.53306e-21)
(0.222666 0.91912 0)
(-0.285615 0.974093 0)
(-0.787962 0.946159 -2.38835e-21)
(-1.24175 0.88961 2.02684e-21)
(-1.6144 0.86172 0)
(-1.95726 0.826812 0)
(-2.27172 0.755775 -2.06736e-21)
(-2.54712 0.645542 0)
(-2.80128 0.523651 0)
(-3.03856 0.404862 1.76376e-21)
(-3.25257 0.290753 0)
(-3.44761 0.225064 -1.1197e-21)
(-3.64752 0.247026 2.94261e-21)
(-3.82887 0.325885 0)
(-4.02222 0.399522 0)
(-4.2184 0.442249 3.89255e-21)
(-4.39707 0.34647 3.70092e-21)
(-4.6398 0.277523 3.53304e-21)
(-4.88518 0.3187 -1.36581e-21)
(-5.11692 0.369884 1.95021e-21)
(-5.43161 0.444201 4.96506e-21)
(-5.60977 0.454118 -2.9519e-21)
(-5.76042 0.458678 -1.78819e-21)
(-5.89167 0.414259 0)
(-5.99521 0.379235 1.62731e-21)
(-6.09353 0.330337 -8.77456e-22)
(-6.1682 0.279702 0)
(-6.23469 0.218308 0)
(-6.28639 0.168899 0)
(-6.35802 0.161511 1.12601e-21)
(-6.41061 0.159245 0)
(-6.42965 0.123519 -1.5383e-21)
(-6.41731 0.065137 0)
(-6.3816 0.0120763 -1.28697e-21)
(-6.32928 -0.0378453 0)
(-6.2588 -0.0821403 1.13895e-21)
(-6.17437 -0.121559 0)
(-6.07567 -0.156419 -1.17494e-21)
(-5.96475 -0.187246 5.1835e-22)
(-5.84162 -0.214533 0)
(-5.70735 -0.23869 1.62502e-21)
(-5.56204 -0.26007 1.02679e-21)
(-5.4064 -0.278958 1.16617e-21)
(-5.24075 -0.295631 0)
(-5.06598 -0.310296 1.36544e-21)
(-4.88264 -0.323219 1.69469e-21)
(-4.69147 -0.334584 0)
(-4.49298 -0.344638 -2.11155e-21)
(-4.2877 -0.353575 4.55862e-21)
(-4.07603 -0.361629 0)
(-3.8583 -0.36899 2.78361e-21)
(-3.63472 -0.375857 0)
(-3.40543 -0.382382 -9.6284e-21)
(-3.17045 -0.388733 0)
(-2.92974 -0.394963 1.09843e-20)
(-2.6832 -0.40111 3.91399e-21)
(-2.4308 -0.407071 -4.03826e-21)
(-2.17253 -0.412722 -8.50258e-21)
(-1.90855 -0.417828 8.91839e-21)
(-1.63921 -0.422028 0)
(-1.36508 -0.424878 0)
(-1.08707 -0.425859 0)
(-0.806628 -0.424462 -3.16024e-20)
(-0.525669 -0.420228 -1.08949e-20)
(-0.246378 -0.412883 1.11751e-20)
(0.0289215 -0.402347 0)
(0.298079 -0.388823 1.15369e-20)
(0.559196 -0.372702 -1.18021e-20)
(0.810682 -0.354615 -1.19378e-20)
(1.05138 -0.335324 0)
(1.28047 -0.315753 0)
(1.4977 -0.296454 0)
(1.70343 -0.277806 -1.21661e-20)
(1.89825 -0.26025 0)
(2.08285 -0.244037 2.42322e-20)
(2.25809 -0.229307 3.62589e-20)
(2.42488 -0.216061 -2.40591e-20)
(2.58416 -0.204289 0)
(2.73687 -0.193841 -1.18812e-20)
(2.88382 -0.184533 0)
(3.02565 -0.176115 -2.34768e-20)
(3.16277 -0.168327 1.16327e-20)
(3.29542 -0.160886 1.15381e-20)
(3.42365 -0.153498 0)
(3.54738 -0.146013 3.40534e-20)
(3.6664 -0.138356 -2.24725e-20)
(3.78048 -0.130538 -1.11333e-20)
(3.88946 -0.122611 0)
(3.99315 -0.114646 -1.08911e-20)
(4.09154 -0.106816 -3.22762e-20)
(4.1846 -0.0991522 0)
(4.27241 -0.0917069 -2.0999e-20)
(4.35508 -0.0844883 -2.07401e-20)
(4.43268 -0.0774617 -2.04805e-20)
(4.50525 -0.0705866 0)
(4.57282 -0.0638126 0)
(4.63534 -0.0570986 0)
(4.69278 -0.0504204 9.71946e-21)
(4.74506 -0.0437831 9.60423e-21)
(4.79216 -0.0372161 0)
(4.83405 -0.0307735 1.87011e-20)
(4.87076 -0.0245281 1.84579e-20)
(4.90241 -0.0185676 0)
(4.92918 -0.0129895 1.79899e-20)
(4.95137 -0.00787961 3.55079e-20)
(4.96937 -0.00329477 -1.75339e-20)
(4.98366 0.000743351 -1.7305e-20)
(4.99476 0.00423678 0)
(5.00313 0.0072069 0)
(5.00919 0.00970067 0)
(5.01331 0.0117906 -1.64855e-20)
(5.01581 0.0135549 1.62849e-20)
(5.01695 0.0150432 3.21933e-20)
(5.0169 0.0163048 -1.59115e-20)
(5.01582 0.017403 1.57237e-20)
(5.01386 0.0183905 1.55462e-20)
(5.01115 0.0192762 0)
(5.0077 0.0200107 0)
(5.00338 0.0204928 -1.50159e-20)
(4.99802 0.0206211 0)
(4.99152 0.0203719 0)
(4.98395 0.0198315 2.90133e-20)
(4.97554 0.0191442 0)
(4.96659 0.0184347 1.41749e-20)
(4.95747 0.0177699 -1.40114e-20)
(4.94847 0.0171631 0)
(4.93976 0.0165924 1.36878e-20)
(4.93138 0.016034 0)
(4.92332 0.0154852 0)
(4.91548 0.0149571 -1.32114e-20)
(4.90782 0.0144554 2.61099e-20)
(4.90027 0.0139711 -1.28996e-20)
(4.89282 0.013481 0)
(4.88551 0.0129584 0)
(4.87838 0.0123705 1.24403e-20)
(4.87146 0.0117064 0)
(4.86478 0.0109504 1.21402e-20)
(4.85829 0.0101687 0)
(4.85196 0.00937883 0)
(4.84566 0.00879276 0)
(4.83927 0.00834043 1.15588e-20)
(4.83262 0.00842856 0)
(4.82529 0.00856084 -1.12799e-20)
(4.81733 0.0097587 0)
(4.80734 0.0104384 0)
(4.79675 0.0135963 2.17579e-20)
(4.78068 0.0145714 -2.15054e-20)
(4.76599 0.0221322 0)
(4.73599 0.0226963 0)
(4.71631 0.0419587 0)
(4.65227 0.0410667 6.19284e-20)
(4.63196 0.0977102 0)
(4.48702 0.103575 -4.06012e-20)
(0.0549296 0.278251 -2.52914e-23)
(0.151124 0.0695619 -1.39169e-20)
(0.348132 -0.309549 0)
(0.678917 -0.797431 1.35184e-20)
(1.04719 -1.23217 0)
(1.387 -1.53035 0)
(1.67299 -1.67743 -3.34681e-22)
(1.90055 -1.69011 -6.43079e-21)
(2.07529 -1.59767 -5.76455e-21)
(2.20494 -1.43146 -6.08443e-21)
(2.29608 -1.21937 0)
(2.35367 -0.982952 0)
(2.38139 -0.737064 4.84402e-21)
(2.3817 -0.491005 9.32948e-21)
(2.35588 -0.250873 -9.0418e-21)
(2.30441 -0.0212068 0)
(2.2292 0.19388 -8.69478e-21)
(2.13263 0.39231 4.75959e-21)
(2.01733 0.572416 0)
(1.88541 0.735251 -8.66811e-21)
(1.73765 0.879397 -4.77204e-21)
(1.57398 1.00223 8.84147e-21)
(1.39695 1.10173 4.84897e-21)
(1.21376 1.12758 0)
(0.985646 1.19641 -9.05145e-21)
(0.677458 1.35962 -9.0392e-21)
(0.332529 1.54013 0)
(-0.0337424 1.67516 -8.85421e-21)
(-0.401293 1.73166 0)
(-0.764108 1.71436 -8.42611e-21)
(-1.13884 1.63303 -4.36989e-21)
(-1.50295 1.51772 0)
(-1.83771 1.39226 0)
(-2.13848 1.2523 0)
(-2.41868 1.10703 0)
(-2.69359 0.968444 0)
(-2.94024 0.818334 0)
(-3.18056 0.682912 -4.97279e-21)
(-3.40639 0.608397 7.20615e-21)
(-3.65652 0.623121 0)
(-3.90159 0.68917 0)
(-4.18538 0.723148 0)
(-4.44335 0.731125 -9.05488e-22)
(-4.73246 0.787242 -3.70787e-21)
(-5.06409 0.781114 -6.20807e-21)
(-5.31777 0.745656 5.90492e-21)
(-5.53772 0.71902 2.38002e-21)
(-5.71578 0.670349 -3.10106e-21)
(-5.81673 0.614126 8.56835e-22)
(-5.90054 0.569184 -1.96614e-21)
(-5.95335 0.510947 0)
(-5.99869 0.457624 -1.70341e-21)
(-6.03299 0.393675 8.12562e-22)
(-6.06158 0.333167 0)
(-6.09588 0.280662 0)
(-6.13752 0.249403 1.27025e-21)
(-6.17118 0.218169 0)
(-6.1697 0.163559 0)
(-6.14088 0.0889577 -3.75195e-22)
(-6.09613 0.0118001 -1.70495e-21)
(-6.04085 -0.0598314 1.27792e-21)
(-5.97429 -0.126422 0)
(-5.89698 -0.186045 -1.12881e-21)
(-5.80844 -0.239964 0)
(-5.70851 -0.288419 -4.2962e-22)
(-5.59721 -0.332237 -1.26095e-21)
(-5.47469 -0.371879 2.19418e-21)
(-5.3414 -0.407771 1.03161e-21)
(-5.19775 -0.440191 0)
(-5.04439 -0.469326 -3.82068e-21)
(-4.88194 -0.495363 0)
(-4.71112 -0.518473 -8.15484e-21)
(-4.53259 -0.538926 -6.11599e-21)
(-4.347 -0.55699 -6.97746e-21)
(-4.15488 -0.57298 7.86867e-21)
(-3.95671 -0.587226 -1.33324e-20)
(-3.75285 -0.600072 0)
(-3.54356 -0.611857 0)
(-3.32897 -0.62291 1.15533e-20)
(-3.10912 -0.633501 1.88568e-20)
(-2.88392 -0.643885 0)
(-2.65313 -0.654159 -7.289e-21)
(-2.4165 -0.664327 0)
(-2.17373 -0.674295 2.42039e-20)
(-1.92462 -0.683779 2.98058e-22)
(-1.66908 -0.692403 -2.95253e-22)
(-1.40723 -0.699603 -1.85297e-20)
(-1.13953 -0.704574 0)
(-0.86685 -0.706374 2.00623e-20)
(-0.590723 -0.704118 2.4524e-22)
(-0.313292 -0.696993 0)
(-0.0371199 -0.684525 0)
(0.235062 -0.666553 0)
(0.500686 -0.643447 -2.31639e-20)
(0.757556 -0.615991 0)
(1.00386 -0.58535 0)
(1.23838 -0.55299 0)
(1.46053 -0.520317 0)
(1.67036 -0.488202 0)
(1.86841 -0.457419 -2.41945e-20)
(2.05546 -0.428572 0)
(2.2324 -0.401955 -2.42295e-20)
(2.40023 -0.377809 -2.4156e-20)
(2.55996 -0.35611 2.40568e-20)
(2.71261 -0.336828 0)
(2.85916 -0.319759 2.37971e-20)
(3.0005 -0.304605 0)
(3.13726 -0.291004 2.34749e-20)
(3.26984 -0.278398 -2.3295e-20)
(3.39839 -0.266334 -6.92149e-20)
(3.52286 -0.25433 0)
(3.643 -0.242176 -6.79866e-20)
(3.75852 -0.229715 -2.23876e-20)
(3.86915 -0.216948 0)
(3.97469 -0.204076 -4.39312e-20)
(4.07498 -0.191257 -4.34457e-20)
(4.16999 -0.178627 6.44574e-20)
(4.25987 -0.166335 0)
(4.34468 -0.154394 2.09971e-20)
(4.42454 -0.142826 2.07383e-20)
(4.49955 -0.131582 6.13818e-20)
(4.56979 -0.120583 0)
(4.63528 -0.109743 0)
(4.69598 -0.0989906 0)
(4.75184 -0.088293 1.94099e-20)
(4.80281 -0.0776592 0)
(4.84882 -0.0671393 0)
(4.88985 -0.0568181 -1.87003e-20)
(4.92592 -0.0468109 -1.84572e-20)
(4.95708 -0.0372629 0)
(4.98347 -0.0283391 0)
(5.00532 -0.0202087 -3.55068e-20)
(5.02297 -0.0130114 0)
(5.0369 -0.00681572 3.46179e-20)
(5.0477 -0.00159357 3.41768e-20)
(5.05602 0.00276079 0)
(5.06246 0.00638221 0)
(5.0675 0.00937805 -3.29554e-20)
(5.07143 0.0118156 -7.713e-24)
(5.07446 0.0137893 -6.75693e-24)
(5.07674 0.0154096 0)
(5.07841 0.016766 -6.28949e-20)
(5.07958 0.0179149 0)
(5.08038 0.0189027 0)
(5.08096 0.0197672 0)
(5.08137 0.0204976 3.00322e-20)
(5.08149 0.0210263 0)
(5.08106 0.0212939 -5.86942e-20)
(5.07983 0.0213088 -2.90118e-20)
(5.07768 0.0211212 0)
(5.0747 0.0207619 -2.83483e-20)
(5.07116 0.0202299 0)
(5.06744 0.0195272 0)
(5.06386 0.0186912 -8.21212e-20)
(5.06065 0.0177965 5.41076e-20)
(5.05793 0.0169272 0)
(5.05568 0.0161485 5.28421e-20)
(5.05381 0.0154795 -2.61079e-20)
(5.05215 0.0148935 0)
(5.05053 0.0143218 0)
(5.04885 0.0136979 0)
(5.04707 0.0129593 -7.46357e-20)
(5.04526 0.0121142 0)
(5.04338 0.011163 -2.42779e-20)
(5.0415 0.0102384 0)
(5.03945 0.00936232 0)
(5.03734 0.00883064 0)
(5.03482 0.00850843 0)
(5.0322 0.00891545 0)
(5.02868 0.00941425 0)
(5.02507 0.0112374 -4.45598e-20)
(5.01949 0.0126054 0)
(5.01403 0.0168014 -2.17555e-20)
(5.00431 0.0191314 6.44906e-20)
(4.99569 0.0282548 0)
(4.97789 0.0320396 0)
(4.96436 0.0531148 -4.1586e-20)
(4.93184 0.0615055 -4.12561e-20)
(4.9134 0.115397 4.07836e-20)
(4.86373 0.144227 4.05936e-20)
(-0.0237545 0.0850834 2.10678e-20)
(0.202386 -0.342163 2.08681e-20)
(0.630472 -1.09471 1.36021e-20)
(1.03602 -1.67623 6.42898e-21)
(1.3592 -2.01459 0)
(1.58072 -2.13525 -1.21371e-20)
(1.71031 -2.08764 5.36638e-21)
(1.77028 -1.92327 0)
(1.78665 -1.68905 5.76785e-21)
(1.78092 -1.42201 0)
(1.76548 -1.14545 -9.48143e-21)
(1.74433 -0.869313 0)
(1.71616 -0.596444 -4.84213e-21)
(1.67726 -0.328856 -9.32472e-21)
(1.62352 -0.0698167 9.03645e-21)
(1.55232 0.177757 0)
(1.46415 0.411314 8.6889e-21)
(1.36015 0.628571 0)
(1.24251 0.828148 0)
(1.11501 1.00766 8.66408e-21)
(0.981049 1.16797 0)
(0.842984 1.29587 -7.78909e-22)
(0.704874 1.38954 0)
(0.519756 1.5217 0)
(0.281562 1.71643 8.29541e-22)
(0.0191804 1.91516 9.04811e-21)
(-0.236966 2.07474 8.14003e-21)
(-0.484136 2.17922 8.86541e-21)
(-0.731152 2.22621 0)
(-0.985352 2.22047 1.6135e-20)
(-1.25988 2.16301 0)
(-1.55635 2.05726 7.14573e-21)
(-1.86356 1.92338 0)
(-2.17251 1.77759 0)
(-2.4763 1.61639 -5.87626e-21)
(-2.77111 1.44007 0)
(-3.04342 1.25065 4.89115e-21)
(-3.30717 1.09585 6.10285e-22)
(-3.55951 1.02906 -8.32233e-21)
(-3.83157 1.0785 6.56175e-21)
(-4.12467 1.17458 0)
(-4.42544 1.25801 0)
(-4.71258 1.27609 1.22208e-21)
(-4.96649 1.24228 0)
(-5.19604 1.15507 2.6735e-21)
(-5.37481 1.048 -2.51513e-21)
(-5.51688 0.937579 -2.37965e-21)
(-5.61081 0.822239 0)
(-5.67518 0.72827 2.0929e-21)
(-5.72564 0.650826 1.95912e-21)
(-5.75306 0.576478 -1.81679e-21)
(-5.77298 0.504187 1.69489e-21)
(-5.78383 0.431977 1.57281e-21)
(-5.79711 0.374038 0)
(-5.81156 0.324431 0)
(-5.81908 0.27248 -1.26094e-21)
(-5.80311 0.201407 0)
(-5.76275 0.113405 0)
(-5.7111 0.0217157 1.88365e-21)
(-5.65221 -0.0660543 1.68207e-21)
(-5.58566 -0.149062 0)
(-5.51031 -0.226746 0)
(-5.42617 -0.298553 0)
(-5.33219 -0.364955 0)
(-5.22841 -0.425937 1.56436e-21)
(-5.11444 -0.481927 -9.66868e-22)
(-4.99048 -0.533177 -2.16486e-21)
(-4.85669 -0.579917 -4.50072e-21)
(-4.71348 -0.622344 0)
(-4.56143 -0.660614 6.28802e-22)
(-4.40125 -0.694864 0)
(-4.23377 -0.725306 5.27152e-21)
(-4.05981 -0.752243 4.96158e-22)
(-3.88007 -0.776039 6.95714e-21)