/*--------------------------------*- C++ -*----------------------------------*\
| =========                 |                                                 |
| \\      /  F ield         | OpenFOAM: The Open Source CFD Toolbox           |
|  \\    /   O peration     | Version:  2112                                  |
|   \\  /    A nd           | Website:  www.openfoam.com                      |
|    \\/     M anipulation  |                                                 |
\*---------------------------------------------------------------------------*/
FoamFile
{
    version     2.0;
    format      ascii;
    arch        "LSB;label=32;scalar=64";
    class       volScalarField;
    location    "0.13";
    object      nut;
}
// * * * * * * * * * * * * * * * * * * * * * * * * * * * * * * * * * * * * * //

dimensions      [0 2 -1 0 0 0 0];

internalField   nonuniform List<scalar> 
122250
(
4.74214e-05
4.4335e-05
4.16366e-05
3.90478e-05
3.66026e-05
3.43388e-05
3.2248e-05
3.03187e-05
2.85091e-05
2.68242e-05
2.52023e-05
2.37022e-05
2.21945e-05
2.08666e-05
1.93861e-05
1.82359e-05
1.66283e-05
1.56111e-05
1.92026e-05
1.85165e-05
1.78992e-05
1.7257e-05
1.65984e-05
1.59462e-05
1.53089e-05
1.46879e-05
1.40852e-05
1.35055e-05
1.2954e-05
1.24231e-05
1.19208e-05
1.14143e-05
1.09602e-05
1.04536e-05
1.01112e-05
9.58525e-06
2.03912e-05
1.95963e-05
1.89011e-05
1.82087e-05
1.75085e-05
1.68191e-05
1.61504e-05
1.55023e-05
1.48721e-05
1.42641e-05
1.36785e-05
1.31194e-05
1.25775e-05
1.20537e-05
1.1539e-05
1.10334e-05
1.05589e-05
1.00951e-05
2.19075e-05
2.10572e-05
2.02767e-05
1.9515e-05
1.8758e-05
1.8016e-05
1.72981e-05
1.66052e-05
1.5935e-05
1.52892e-05
1.4669e-05
1.40741e-05
1.3501e-05
1.29441e-05
1.24029e-05
1.18727e-05
1.13717e-05
1.08958e-05
2.34556e-05
2.25218e-05
2.16703e-05
2.08506e-05
2.00454e-05
1.92558e-05
1.84897e-05
1.77503e-05
1.70366e-05
1.63499e-05
1.56902e-05
1.50571e-05
1.44466e-05
1.38549e-05
1.3281e-05
1.27251e-05
1.21933e-05
1.16931e-05
2.51309e-05
2.41255e-05
2.32094e-05
2.23285e-05
2.14669e-05
2.06223e-05
1.98015e-05
1.90088e-05
1.8245e-05
1.75107e-05
1.68056e-05
1.61283e-05
1.5475e-05
1.48435e-05
1.42309e-05
1.36407e-05
1.30734e-05
1.2537e-05
2.69288e-05
2.58435e-05
2.48543e-05
2.3904e-05
2.29789e-05
2.20745e-05
2.11957e-05
2.03474e-05
1.95308e-05
1.87467e-05
1.79941e-05
1.72706e-05
1.65727e-05
1.58986e-05
1.52462e-05
1.46179e-05
1.40145e-05
1.34406e-05
2.88574e-05
2.76851e-05
2.66183e-05
2.55945e-05
2.46015e-05
2.36334e-05
2.26937e-05
2.17868e-05
2.09143e-05
2.00768e-05
1.92728e-05
1.84997e-05
1.7754e-05
1.70345e-05
1.6339e-05
1.56696e-05
1.50266e-05
1.44141e-05
3.09256e-05
2.96604e-05
2.85113e-05
2.74095e-05
2.63438e-05
2.53073e-05
2.43018e-05
2.33317e-05
2.2399e-05
2.15042e-05
2.06455e-05
1.98197e-05
1.90231e-05
1.82551e-05
1.75134e-05
1.67997e-05
1.61142e-05
1.54598e-05
3.31431e-05
3.17792e-05
3.05423e-05
2.93573e-05
2.82132e-05
2.71028e-05
2.6027e-05
2.49895e-05
2.39926e-05
2.30365e-05
2.21189e-05
2.12363e-05
2.03852e-05
1.95647e-05
1.87737e-05
1.80129e-05
1.72817e-05
1.6583e-05
3.55205e-05
3.40518e-05
3.27213e-05
3.14474e-05
3.02188e-05
2.90284e-05
2.78771e-05
2.67681e-05
2.57032e-05
2.46819e-05
2.37013e-05
2.27578e-05
2.18481e-05
2.09712e-05
2.01268e-05
1.93155e-05
1.85359e-05
1.77898e-05
3.19771e-05
3.06503e-05
2.94493e-05
2.82997e-05
2.71921e-05
2.61206e-05
2.50854e-05
2.40891e-05
2.31327e-05
2.22153e-05
2.13343e-05
2.04867e-05
1.96696e-05
1.88824e-05
1.81248e-05
1.73978e-05
1.66996e-05
1.60308e-05
3.89796e-05
3.73576e-05
3.58905e-05
3.44866e-05
3.31345e-05
3.18276e-05
3.05672e-05
2.9356e-05
2.81941e-05
2.70794e-05
2.60082e-05
2.4977e-05
2.39828e-05
2.30252e-05
2.21038e-05
2.12201e-05
2.03727e-05
1.9561e-05
4.75158e-05
4.55338e-05
4.37416e-05
4.20264e-05
4.03757e-05
3.87834e-05
3.72506e-05
3.5779e-05
3.43665e-05
3.30089e-05
3.17023e-05
3.04445e-05
2.92338e-05
2.80697e-05
2.69514e-05
2.58798e-05
2.48528e-05
2.38699e-05
5.79216e-05
5.5503e-05
5.33108e-05
5.12089e-05
4.91974e-05
4.72723e-05
4.54221e-05
4.36321e-05
4.18935e-05
4.02083e-05
3.85848e-05
3.70313e-05
3.55502e-05
3.41396e-05
3.27937e-05
3.15085e-05
3.02779e-05
2.9099e-05
7.06086e-05
6.76483e-05
6.49685e-05
6.24184e-05
5.99852e-05
5.76371e-05
5.53535e-05
5.3134e-05
5.09889e-05
4.89294e-05
4.6963e-05
4.50913e-05
4.33104e-05
4.16133e-05
3.99918e-05
3.84401e-05
3.69523e-05
3.55242e-05
8.60709e-05
8.2451e-05
7.91982e-05
7.6108e-05
7.31293e-05
7.02234e-05
6.73972e-05
6.46774e-05
6.20798e-05
5.96053e-05
5.72475e-05
5.49982e-05
5.28496e-05
5.07947e-05
4.88265e-05
4.694e-05
4.51302e-05
4.33917e-05
0.000104916
0.000100508
9.65649e-05
9.27859e-05
8.91072e-05
8.55289e-05
8.20888e-05
7.88086e-05
7.56843e-05
7.27032e-05
6.98538e-05
6.71284e-05
6.4521e-05
6.20258e-05
5.96351e-05
5.73424e-05
5.51419e-05
5.30254e-05
0.000127889
0.000122531
0.000117736
0.000113099
0.000108583
0.000104234
0.000100088
9.61388e-05
9.23661e-05
8.87551e-05
8.52969e-05
8.19858e-05
7.8817e-05
7.57836e-05
7.28766e-05
7.00867e-05
6.74068e-05
6.48255e-05
9.36233e-05
8.97088e-05
8.62026e-05
8.28041e-05
7.9509e-05
7.6357e-05
7.33577e-05
7.04924e-05
6.77449e-05
6.51082e-05
6.25792e-05
6.01561e-05
5.78366e-05
5.56164e-05
5.34887e-05
5.14457e-05
4.94824e-05
4.75888e-05
8.15047e-05
7.81008e-05
7.5056e-05
7.211e-05
6.92638e-05
6.65467e-05
6.39568e-05
6.14751e-05
5.909e-05
5.67974e-05
5.45959e-05
5.24844e-05
5.0462e-05
4.85257e-05
4.66704e-05
4.48891e-05
4.31769e-05
4.15246e-05
7.09555e-05
6.79967e-05
6.53555e-05
6.28081e-05
6.03524e-05
5.8007e-05
5.57665e-05
5.36159e-05
5.15472e-05
4.95567e-05
4.76414e-05
4.58002e-05
4.40339e-05
4.23414e-05
4.0719e-05
3.91617e-05
3.76657e-05
3.62225e-05
6.17729e-05
5.92042e-05
5.69127e-05
5.47125e-05
5.25968e-05
5.05729e-05
4.8633e-05
4.67672e-05
4.49726e-05
4.32459e-05
4.15817e-05
3.99771e-05
3.84333e-05
3.69513e-05
3.55304e-05
3.41672e-05
3.28584e-05
3.15966e-05
5.37808e-05
5.1555e-05
4.95668e-05
4.76636e-05
4.58391e-05
4.40938e-05
4.24158e-05
4.07988e-05
3.92434e-05
3.77458e-05
3.62988e-05
3.48993e-05
3.35492e-05
3.22514e-05
3.10062e-05
2.98111e-05
2.86636e-05
2.75587e-05
4.6825e-05
4.49005e-05
4.31769e-05
4.1531e-05
3.99604e-05
3.84554e-05
3.70012e-05
3.55989e-05
3.4253e-05
3.29571e-05
3.17014e-05
3.04813e-05
2.92992e-05
2.81585e-05
2.70616e-05
2.60092e-05
2.50015e-05
2.4035e-05
4.07725e-05
3.91081e-05
3.76052e-05
3.61808e-05
3.48326e-05
3.35358e-05
3.22775e-05
3.1064e-05
2.98998e-05
2.87772e-05
2.76863e-05
2.66228e-05
2.55885e-05
2.45869e-05
2.3622e-05
2.26963e-05
2.18105e-05
2.09619e-05
3.55187e-05
3.41002e-05
3.27981e-05
3.15575e-05
3.03863e-05
2.92634e-05
2.81752e-05
2.71259e-05
2.61189e-05
2.51466e-05
2.41993e-05
2.32714e-05
2.23642e-05
2.14809e-05
2.06279e-05
1.98089e-05
1.90275e-05
1.82816e-05
3.08924e-05
2.96638e-05
2.85528e-05
2.74878e-05
2.64788e-05
2.55178e-05
2.45894e-05
2.36906e-05
2.2823e-05
2.19827e-05
2.11617e-05
2.0354e-05
1.95579e-05
1.87771e-05
1.80186e-05
1.72903e-05
1.65972e-05
1.59406e-05
2.70326e-05
2.60236e-05
2.50815e-05
2.41322e-05
2.32194e-05
2.23591e-05
2.15377e-05
2.07454e-05
1.99779e-05
1.92287e-05
1.84914e-05
1.77606e-05
1.70393e-05
1.63302e-05
1.56482e-05
1.49926e-05
1.43826e-05
1.37971e-05
4.99702e-05
4.70128e-05
4.44171e-05
4.2008e-05
3.98334e-05
3.78401e-05
3.59623e-05
3.41715e-05
3.24556e-05
3.08164e-05
2.92638e-05
2.78113e-05
2.64571e-05
2.51997e-05
2.40226e-05
2.29246e-05
2.18873e-05
2.08993e-05
4.42194e-05
4.15299e-05
3.9163e-05
3.68614e-05
3.46653e-05
3.2615e-05
3.07161e-05
2.89579e-05
2.73182e-05
2.5787e-05
2.43441e-05
2.29912e-05
2.17087e-05
2.05095e-05
1.93339e-05
1.82407e-05
1.71257e-05
1.60982e-05
8.01845e-07
1.62115e-06
2.43188e-06
3.10955e-06
3.63929e-06
4.0479e-06
4.35591e-06
4.57667e-06
4.73349e-06
4.84202e-06
4.92578e-06
4.9783e-06
5.01747e-06
5.01979e-06
5.03515e-06
4.99307e-06
5.00505e-06
4.93962e-06
9.44548e-08
1.18146e-07
1.12069e-07
7.88955e-08
1.5722e-07
2.77923e-07
4.06515e-07
5.34424e-07
6.54411e-07
7.63636e-07
8.64968e-07
9.60791e-07
1.05342e-06
1.14536e-06
1.23511e-06
1.32552e-06
1.40763e-06
1.49872e-06
2.0118e-07
1.8636e-07
1.76767e-07
1.78752e-07
1.75733e-07
1.63938e-07
1.49019e-07
1.34898e-07
1.23767e-07
1.18332e-07
1.2188e-07
1.34424e-07
1.54324e-07
1.84915e-07
2.21933e-07
2.72247e-07
3.20125e-07
3.7917e-07
1.67693e-07
1.37624e-07
1.18575e-07
1.17325e-07
1.19483e-07
1.18022e-07
1.14677e-07
1.12608e-07
1.12281e-07
1.13925e-07
1.19514e-07
1.2978e-07
1.45809e-07
1.67462e-07
1.95607e-07
2.29179e-07
2.67068e-07
3.02846e-07
1.64248e-07
1.51725e-07
1.37989e-07
1.38042e-07
1.41806e-07
1.40448e-07
1.34709e-07
1.30031e-07
1.28314e-07
1.29754e-07
1.35198e-07
1.4524e-07
1.6042e-07
1.8161e-07
2.09756e-07
2.42528e-07
2.79018e-07
3.13703e-07
1.66156e-07
1.61501e-07
1.47487e-07
1.43189e-07
1.43402e-07
1.40735e-07
1.34758e-07
1.29881e-07
1.28261e-07
1.30301e-07
1.36668e-07
1.47919e-07
1.64363e-07
1.86536e-07
2.1451e-07
2.47103e-07
2.81047e-07
3.15366e-07
1.72001e-07
1.69999e-07
1.57044e-07
1.50235e-07
1.48449e-07
1.4581e-07
1.41253e-07
1.37747e-07
1.37115e-07
1.39765e-07
1.46224e-07
1.57418e-07
1.73531e-07
1.95097e-07
2.22233e-07
2.5358e-07
2.85922e-07
3.1813e-07
1.81183e-07
1.79564e-07
1.68307e-07
1.60356e-07
1.57331e-07
1.54744e-07
1.50766e-07
1.47347e-07
1.46363e-07
1.48723e-07
1.55078e-07
1.66508e-07
1.82898e-07
2.03993e-07
2.29979e-07
2.60124e-07
2.90746e-07
3.21246e-07
1.93087e-07
1.91094e-07
1.81009e-07
1.72399e-07
1.68205e-07
1.6533e-07
1.61634e-07
1.58183e-07
1.56752e-07
1.58597e-07
1.64465e-07
1.75546e-07
1.91821e-07
2.12613e-07
2.37016e-07
2.65216e-07
2.94373e-07
3.23104e-07
2.07319e-07
2.04645e-07
1.95503e-07
1.86769e-07
1.80893e-07
1.76371e-07
1.72285e-07
1.69509e-07
1.69e-07
1.71411e-07
1.77234e-07
1.87732e-07
2.03306e-07
2.23023e-07
2.45503e-07
2.70953e-07
2.97913e-07
3.25218e-07
1.87499e-07
1.8462e-07
1.76851e-07
1.69233e-07
1.64169e-07
1.60643e-07
1.57106e-07
1.5375e-07
1.51734e-07
1.52273e-07
1.5636e-07
1.6514e-07
1.78838e-07
1.95795e-07
2.14095e-07
2.33729e-07
2.54279e-07
2.75944e-07
2.30056e-07
2.25748e-07
2.17669e-07
2.09425e-07
2.02158e-07
1.95985e-07
1.91204e-07
1.88506e-07
1.88104e-07
1.89967e-07
1.94537e-07
2.0309e-07
2.16744e-07
2.34172e-07
2.53116e-07
2.73099e-07
2.93535e-07
3.15738e-07
2.83579e-07
2.77724e-07
2.66856e-07
2.57035e-07
2.50369e-07
2.44914e-07
2.38797e-07
2.32601e-07
2.28898e-07
2.2961e-07
2.34576e-07
2.43585e-07
2.57312e-07
2.75575e-07
2.95638e-07
3.16748e-07
3.37724e-07
3.60245e-07
3.49933e-07
3.41955e-07
3.2871e-07
3.18034e-07
3.12214e-07
3.06606e-07
2.95949e-07
2.84018e-07
2.79705e-07
2.8309e-07
2.88653e-07
2.96321e-07
3.09121e-07
3.27918e-07
3.4938e-07
3.70906e-07
3.91434e-07
4.12587e-07
4.32859e-07
4.22114e-07
4.07237e-07
3.97632e-07
3.90255e-07
3.7639e-07
3.59449e-07
3.49397e-07
3.48022e-07
3.50644e-07
3.55817e-07
3.66965e-07
3.85199e-07
4.07081e-07
4.28105e-07
4.46103e-07
4.61196e-07
4.76613e-07
5.36149e-07
5.23272e-07
5.07822e-07
4.93483e-07
4.77278e-07
4.62905e-07
4.49626e-07
4.37699e-07
4.33037e-07
4.36004e-07
4.42937e-07
4.5388e-07
4.69595e-07
4.87601e-07
5.04007e-07
5.17442e-07
5.28218e-07
5.39465e-07
6.63662e-07
6.48589e-07
6.30292e-07
6.10659e-07
5.96585e-07
5.83097e-07
5.64373e-07
5.48818e-07
5.43294e-07
5.4472e-07
5.48633e-07
5.55857e-07
5.68101e-07
5.83239e-07
5.96578e-07
6.05484e-07
6.1056e-07
6.15729e-07
8.19388e-07
8.00784e-07
7.79456e-07
7.65623e-07
7.52503e-07
7.30209e-07
7.08522e-07
6.93816e-07
6.85285e-07
6.81058e-07
6.79616e-07
6.82311e-07
6.91044e-07
7.03429e-07
7.13507e-07
7.1733e-07
7.14987e-07
7.11627e-07
6.03142e-07
5.90765e-07
5.79883e-07
5.76823e-07
5.63711e-07
5.45365e-07
5.33575e-07
5.24468e-07
5.14943e-07
5.07626e-07
5.0388e-07
5.0395e-07
5.08295e-07
5.15304e-07
5.20588e-07
5.20879e-07
5.15486e-07
5.08304e-07
5.25987e-07
5.15867e-07
5.12533e-07
5.15289e-07
5.02023e-07
4.85588e-07
4.77393e-07
4.70053e-07
4.5922e-07
4.49002e-07
4.42771e-07
4.40795e-07
4.42946e-07
4.48041e-07
4.52207e-07
4.51834e-07
4.45791e-07
4.37225e-07
4.57224e-07
4.50164e-07
4.51226e-07
4.5729e-07
4.45066e-07
4.2987e-07
4.23931e-07
4.19017e-07
4.09224e-07
3.9808e-07
3.89978e-07
3.8578e-07
3.85208e-07
3.87722e-07
3.90394e-07
3.8968e-07
3.84307e-07
3.76577e-07
3.97285e-07
3.93384e-07
3.96689e-07
4.06847e-07
3.98585e-07
3.85931e-07
3.81796e-07
3.7732e-07
3.66629e-07
3.53674e-07
3.43595e-07
3.37764e-07
3.35741e-07
3.3701e-07
3.39535e-07
3.40381e-07
3.37019e-07
3.30745e-07
3.46635e-07
3.46049e-07
3.49076e-07
3.57808e-07
3.50323e-07
3.41259e-07
3.40679e-07
3.38878e-07
3.30285e-07
3.1817e-07
3.06483e-07
2.971e-07
2.91042e-07
2.8863e-07
2.88481e-07
2.88235e-07
2.85403e-07
2.80848e-07
3.05273e-07
3.03862e-07
3.09868e-07
3.24736e-07
3.23444e-07
3.17365e-07
3.14727e-07
3.10332e-07
3.02511e-07
2.92112e-07
2.81081e-07
2.71705e-07
2.65422e-07
2.62058e-07
2.5978e-07
2.56854e-07
2.52436e-07
2.4804e-07
2.74547e-07
2.61727e-07
2.49335e-07
2.609e-07
2.75508e-07
2.82264e-07
2.8225e-07
2.78731e-07
2.73841e-07
2.65163e-07
2.52625e-07
2.39788e-07
2.29733e-07
2.229e-07
2.18246e-07
2.14946e-07
2.12389e-07
2.10941e-07
2.74285e-07
2.74989e-07
2.67171e-07
2.73243e-07
2.82027e-07
2.83615e-07
2.76964e-07
2.70996e-07
2.68762e-07
2.6486e-07
2.56419e-07
2.44648e-07
2.32558e-07
2.19682e-07
2.06616e-07
1.93884e-07
1.84193e-07
1.78171e-07
1.93597e-07
1.88584e-07
2.17841e-07
2.2115e-07
2.26094e-07
2.36462e-07
2.34895e-07
2.29573e-07
2.31654e-07
2.42392e-07
2.59444e-07
2.84946e-07
3.1701e-07
3.51364e-07
3.80285e-07
4.03866e-07
4.19997e-07
4.34935e-07
6.39747e-07
1.13968e-06
1.68184e-06
2.13492e-06
2.4802e-06
2.75936e-06
2.99904e-06
3.21423e-06
3.4102e-06
3.57625e-06
3.69774e-06
3.76214e-06
3.77412e-06
3.74008e-06
3.68251e-06
3.60735e-06
3.53863e-06
3.46674e-06
4.44395e-05
4.20104e-05
3.98632e-05
3.784e-05
3.59897e-05
3.42784e-05
3.26575e-05
3.11045e-05
2.96098e-05
2.8176e-05
2.68118e-05
2.55286e-05
2.43243e-05
2.31995e-05
2.21397e-05
2.11492e-05
2.02077e-05
1.93152e-05
4.419e-05
4.14919e-05
3.91213e-05
3.6819e-05
3.46245e-05
3.2575e-05
3.06804e-05
2.89229e-05
2.72929e-05
2.5763e-05
2.43449e-05
2.29975e-05
2.1775e-05
2.05842e-05
1.95512e-05
1.84833e-05
1.76834e-05
1.66878e-05
7.66672e-07
1.58278e-06
2.39036e-06
3.06774e-06
3.59842e-06
4.00862e-06
4.31704e-06
4.54008e-06
4.69532e-06
4.80695e-06
4.88149e-06
4.93731e-06
4.94857e-06
4.95395e-06
4.89473e-06
4.85662e-06
4.70786e-06
4.6662e-06
3.89185e-08
7.19331e-08
6.1236e-08
8.61955e-09
1.03141e-07
2.31254e-07
3.62193e-07
4.92336e-07
6.12333e-07
7.22943e-07
8.20824e-07
9.15214e-07
9.96885e-07
1.07857e-06
1.13677e-06
1.19778e-06
1.21636e-06
1.2498e-06
1.39504e-07
1.21783e-07
1.10594e-07
1.09891e-07
1.07119e-07
9.79132e-08
8.60972e-08
7.36252e-08
6.36778e-08
5.85707e-08
6.18656e-08
7.25686e-08
8.65168e-08
1.0644e-07
1.24518e-07
1.50394e-07
1.67941e-07
1.97599e-07
9.47027e-08
6.11437e-08
4.3989e-08
4.02276e-08
4.05466e-08
4.27826e-08
4.56968e-08
4.90328e-08
5.27638e-08
5.67692e-08
6.29922e-08
7.15187e-08
8.33262e-08
9.69512e-08
1.1304e-07
1.30681e-07
1.49582e-07
1.67689e-07
7.89396e-08
6.40372e-08
5.15052e-08
4.96181e-08
5.14164e-08
5.26317e-08
5.24288e-08
5.38494e-08
5.75033e-08
6.2825e-08
7.00584e-08
7.92208e-08
9.05556e-08
1.04206e-07
1.19541e-07
1.36504e-07
1.52984e-07
1.71197e-07
6.72355e-08
6.13895e-08
4.90496e-08
4.44686e-08
4.31077e-08
4.2719e-08
4.30931e-08
4.59811e-08
5.12476e-08
5.81218e-08
6.67338e-08
7.70238e-08
8.92873e-08
1.0371e-07
1.19089e-07
1.35395e-07
1.51226e-07
1.67537e-07
5.8372e-08
5.62023e-08
4.55021e-08
3.97181e-08
3.72177e-08
3.71389e-08
3.9584e-08
4.4718e-08
5.18223e-08
6.00512e-08
6.94338e-08
8.00355e-08
9.2317e-08
1.06791e-07
1.22154e-07
1.37764e-07
1.52829e-07
1.67437e-07
5.18533e-08
5.09989e-08
4.28771e-08
3.69652e-08
3.42427e-08
3.48494e-08
3.86152e-08
4.48237e-08
5.27504e-08
6.17056e-08
7.16375e-08
8.27011e-08
9.52457e-08
1.09615e-07
1.24753e-07
1.39853e-07
1.53903e-07
1.67555e-07
4.71268e-08
4.68376e-08
4.09674e-08
3.54002e-08
3.26061e-08
3.38063e-08
3.86658e-08
4.57322e-08
5.42791e-08
6.36279e-08
7.36774e-08
8.48878e-08
9.76882e-08
1.12032e-07
1.26835e-07
1.41318e-07
1.54654e-07
1.6749e-07
4.36585e-08
4.37474e-08
4.01139e-08
3.53852e-08
3.21905e-08
3.32339e-08
3.87692e-08
4.70219e-08
5.68407e-08
6.70815e-08
7.7369e-08
8.83922e-08
1.00764e-07
1.14407e-07
1.28349e-07
1.42053e-07
1.54751e-07
1.67029e-07
3.47749e-08
3.50579e-08
3.31615e-08
2.98729e-08
2.78508e-08
2.97635e-08
3.49357e-08
4.17097e-08
4.94836e-08
5.74831e-08
6.57697e-08
7.54163e-08
8.64446e-08
9.8318e-08
1.09817e-07
1.20822e-07
1.31019e-07
1.41078e-07
3.76826e-08
3.80386e-08
3.82444e-08
3.62346e-08
3.37169e-08
3.50826e-08
4.12001e-08
5.03006e-08
6.09323e-08
7.12384e-08
8.05189e-08
9.03668e-08
1.01558e-07
1.13799e-07
1.2593e-07
1.37513e-07
1.48409e-07
1.59589e-07
4.1196e-08
4.25301e-08
4.23553e-08
4.06338e-08
4.11285e-08
4.67152e-08
5.48976e-08
6.30161e-08
7.22991e-08
8.24549e-08
9.14282e-08
9.99578e-08
1.10284e-07
1.22684e-07
1.36217e-07
1.49968e-07
1.62902e-07
1.76089e-07
4.46351e-08
4.57501e-08
4.42336e-08
4.69903e-08
5.85453e-08
7.07849e-08
7.41427e-08
7.24984e-08
7.69143e-08
8.54549e-08
9.10456e-08
9.63659e-08
1.07925e-07
1.25577e-07
1.44884e-07
1.63173e-07
1.79472e-07
1.94268e-07
4.72016e-08
4.72944e-08
5.43855e-08
7.03537e-08
8.16391e-08
7.92159e-08
7.09692e-08
6.96467e-08
7.47698e-08
7.93635e-08
8.55349e-08
1.02173e-07
1.29349e-07
1.58375e-07
1.82236e-07
1.99724e-07
2.12973e-07
2.24006e-07
4.84944e-08
5.35402e-08
7.50602e-08
8.77422e-08
8.29423e-08
7.89544e-08
7.41673e-08
6.39194e-08
6.56641e-08
8.22089e-08
1.03851e-07
1.30903e-07
1.62618e-07
1.92803e-07
2.16235e-07
2.31689e-07
2.41882e-07
2.4981e-07
4.56684e-08
6.40626e-08
9.21001e-08
9.39264e-08
9.63438e-08
1.01041e-07
8.85406e-08
7.49474e-08
8.5601e-08
1.08717e-07
1.31555e-07
1.58957e-07
1.93369e-07
2.27798e-07
2.54764e-07
2.71473e-07
2.80067e-07
2.83944e-07
3.43858e-08
7.76556e-08
1.06389e-07
1.2346e-07
1.40001e-07
1.36624e-07
1.2245e-07
1.16251e-07
1.28159e-07
1.48219e-07
1.69381e-07
1.97948e-07
2.36496e-07
2.76022e-07
3.06109e-07
3.22533e-07
3.27319e-07
3.24822e-07
1.88271e-08
5.96258e-08
8.49714e-08
1.11623e-07
1.19867e-07
1.15089e-07
1.12119e-07
1.10498e-07
1.11736e-07
1.1827e-07
1.29527e-07
1.47947e-07
1.74574e-07
2.03194e-07
2.25339e-07
2.36795e-07
2.38021e-07
2.32326e-07
2.57743e-08
5.77427e-08
8.71506e-08
1.1922e-07
1.24428e-07
1.18987e-07
1.18168e-07
1.17583e-07
1.14715e-07
1.1392e-07
1.18326e-07
1.30182e-07
1.50614e-07
1.74944e-07
1.95006e-07
2.05857e-07
2.06849e-07
2.00529e-07
3.5816e-08
6.00862e-08
8.98128e-08
1.23235e-07
1.2629e-07
1.18539e-07
1.17623e-07
1.18745e-07
1.15576e-07
1.11017e-07
1.1061e-07
1.17245e-07
1.31362e-07
1.4973e-07
1.65781e-07
1.74817e-07
1.75731e-07
1.70047e-07
4.58107e-08
6.46967e-08
9.19747e-08
1.2592e-07
1.30324e-07
1.22496e-07
1.21929e-07
1.23298e-07
1.18259e-07
1.0914e-07
1.03209e-07
1.04955e-07
1.14931e-07
1.30208e-07
1.44979e-07
1.54304e-07
1.56032e-07
1.51226e-07
5.65139e-08
7.19165e-08
9.43948e-08
1.22431e-07
1.2449e-07
1.17146e-07
1.19878e-07
1.24689e-07
1.21753e-07
1.12236e-07
1.02166e-07
9.68965e-08
9.88011e-08
1.0655e-07
1.16043e-07
1.23404e-07
1.26095e-07
1.24038e-07
6.93771e-08
7.69256e-08
9.80029e-08
1.28599e-07
1.34014e-07
1.27932e-07
1.28342e-07
1.30885e-07
1.28401e-07
1.20183e-07
1.10262e-07
1.03677e-07
1.02744e-07
1.06176e-07
1.10593e-07
1.13404e-07
1.13572e-07
1.11552e-07
8.57807e-08
7.4718e-08
7.22624e-08
9.4909e-08
1.12458e-07
1.21239e-07
1.2494e-07
1.27555e-07
1.26943e-07
1.19809e-07
1.08288e-07
9.79007e-08
9.19266e-08
8.97405e-08
8.95376e-08
9.02939e-08
9.13938e-08
9.23351e-08
1.27765e-07
1.28471e-07
1.24053e-07
1.33638e-07
1.44489e-07
1.49547e-07
1.4814e-07
1.47963e-07
1.49733e-07
1.47886e-07
1.41059e-07
1.31321e-07
1.21304e-07
1.09977e-07
9.77809e-08
8.61444e-08
7.84654e-08
7.47618e-08
7.41977e-08
8.27013e-08
1.15954e-07
1.12194e-07
1.08499e-07
1.15588e-07
1.1688e-07
1.16695e-07
1.24759e-07
1.42203e-07
1.67057e-07
2.00491e-07
2.38623e-07
2.76564e-07
3.07501e-07
3.32496e-07
3.50039e-07
3.65823e-07
5.72022e-07
1.07187e-06
1.61155e-06
2.06682e-06
2.41604e-06
2.69857e-06
2.94107e-06
3.15869e-06
3.3555e-06
3.51929e-06
3.63561e-06
3.69373e-06
3.70056e-06
3.66382e-06
3.60631e-06
3.53331e-06
3.46809e-06
3.39972e-06
4.43895e-05
4.19523e-05
3.98049e-05
3.77808e-05
3.59234e-05
3.42023e-05
3.25728e-05
3.10137e-05
2.95157e-05
2.80817e-05
2.67203e-05
2.54422e-05
2.4244e-05
2.31256e-05
2.20718e-05
2.10872e-05
2.01509e-05
1.92632e-05
4.4189e-05
4.14809e-05
3.90951e-05
3.67782e-05
3.45645e-05
3.24971e-05
3.05723e-05
2.87908e-05
2.71082e-05
2.55471e-05
2.40282e-05
2.26449e-05
2.12195e-05
1.99927e-05
1.85416e-05
1.74857e-05
1.58083e-05
1.49321e-05
7.66487e-07
1.58435e-06
2.39295e-06
3.07118e-06
3.60406e-06
4.01628e-06
4.33042e-06
4.5561e-06
4.72555e-06
4.84028e-06
4.95083e-06
5.00669e-06
5.10486e-06
5.10503e-06
5.24394e-06
5.17228e-06
5.49043e-06
5.35105e-06
3.72516e-08
7.09351e-08
6.04361e-08
9.14695e-09
1.0776e-07
2.36526e-07
3.7194e-07
5.03781e-07
6.32989e-07
7.47403e-07
8.64795e-07
9.68841e-07
1.09226e-06
1.19681e-06
1.3445e-06
1.4611e-06
1.67665e-06
1.84297e-06
1.38761e-07
1.20574e-07
1.0981e-07
1.1093e-07
1.10081e-07
1.04537e-07
9.6972e-08
9.3682e-08
9.4989e-08
1.04578e-07
1.21294e-07
1.47333e-07
1.81774e-07
2.27563e-07
2.85375e-07
3.58977e-07
4.52129e-07
5.59907e-07
9.38672e-08
5.88109e-08
4.20734e-08
4.10069e-08
4.54726e-08
5.29412e-08
6.1319e-08
7.21752e-08
8.47771e-08
9.97441e-08
1.17662e-07
1.40972e-07
1.69522e-07
2.04663e-07
2.46207e-07
2.94274e-07
3.51414e-07
4.10554e-07
7.8207e-08
6.20008e-08
4.94452e-08
5.01991e-08
5.66833e-08
6.42155e-08
7.11946e-08
8.13315e-08
9.46374e-08
1.10948e-07
1.30319e-07
1.54616e-07
1.84024e-07
2.19497e-07
2.61109e-07
3.0724e-07
3.58669e-07
4.11468e-07
6.66209e-08
5.96868e-08
4.69472e-08
4.51408e-08
4.944e-08
5.70059e-08
6.57052e-08
7.73006e-08
9.18667e-08
1.09413e-07
1.30453e-07
1.5635e-07
1.87433e-07
2.23637e-07
2.64776e-07
3.09466e-07
3.55236e-07
4.02929e-07
5.79131e-08
5.48386e-08
4.35936e-08
4.0741e-08
4.47821e-08
5.38398e-08
6.53364e-08
7.9269e-08
9.56065e-08
1.14438e-07
1.36479e-07
1.63057e-07
1.94582e-07
2.30756e-07
2.7031e-07
3.12895e-07
3.54573e-07
3.96227e-07
5.15844e-08
5.00706e-08
4.14436e-08
3.85993e-08
4.31682e-08
5.38103e-08
6.71699e-08
8.22732e-08
9.92688e-08
1.18691e-07
1.41516e-07
1.69034e-07
2.0117e-07
2.37274e-07
2.75458e-07
3.15351e-07
3.54052e-07
3.91003e-07
4.70456e-08
4.64107e-08
4.03101e-08
3.80913e-08
4.31918e-08
5.49352e-08
6.96228e-08
8.56031e-08
1.03024e-07
1.22721e-07
1.45851e-07
1.73749e-07
2.06126e-07
2.41752e-07
2.78508e-07
3.15806e-07
3.51526e-07
3.85715e-07
4.37908e-08
4.39311e-08
4.04653e-08
3.93729e-08
4.44036e-08
5.61067e-08
7.1546e-08
8.88722e-08
1.07645e-07
1.28241e-07
1.51719e-07
1.79441e-07
2.11257e-07
2.45758e-07
2.80678e-07
3.15493e-07
3.48497e-07
3.80089e-07
3.50381e-08
3.56606e-08
3.43161e-08
3.45056e-08
3.96222e-08
5.0278e-08
6.35501e-08
7.78794e-08
9.32468e-08
1.10242e-07
1.30049e-07
1.53796e-07
1.80943e-07
2.09834e-07
2.38237e-07
2.65764e-07
2.9153e-07
3.16221e-07
3.81988e-08
3.92994e-08
4.05077e-08
4.27005e-08
4.8432e-08
5.98579e-08
7.526e-08
9.2923e-08
1.12024e-07
1.32302e-07
1.54654e-07
1.80595e-07
2.1002e-07
2.41329e-07
2.7194e-07
3.01303e-07
3.28584e-07
3.54887e-07
4.19809e-08
4.44917e-08
4.62571e-08
5.01015e-08
5.96752e-08
7.51867e-08
9.28831e-08
1.11042e-07
1.30608e-07
1.51842e-07
1.74842e-07
2.01156e-07
2.31478e-07
2.64805e-07
2.98253e-07
3.3061e-07
3.60568e-07
3.89555e-07
4.56594e-08
4.89447e-08
5.15024e-08
5.97356e-08
7.69618e-08
9.73621e-08
1.14602e-07
1.30692e-07
1.49352e-07
1.68717e-07
1.87894e-07
2.11317e-07
2.42163e-07
2.78952e-07
3.17185e-07
3.54172e-07
3.88068e-07
4.19921e-07
4.87941e-08
5.26509e-08
6.19746e-08
8.08483e-08
1.0112e-07
1.15786e-07
1.27117e-07
1.39951e-07
1.55172e-07
1.72459e-07
1.95544e-07
2.29663e-07
2.733e-07
3.19674e-07
3.6251e-07
4.00004e-07
4.32153e-07
4.60985e-07
5.08763e-08
5.87411e-08
8.02047e-08
1.00331e-07
1.13682e-07
1.27977e-07
1.37229e-07
1.423e-07
1.5563e-07
1.80362e-07
2.13751e-07
2.56145e-07
3.04852e-07
3.53557e-07
3.96439e-07
4.32271e-07
4.61915e-07
4.88044e-07
4.84893e-08
6.63076e-08
9.74858e-08
1.14359e-07
1.32699e-07
1.47548e-07
1.48482e-07
1.50139e-07
1.68277e-07
1.98379e-07
2.34828e-07
2.8003e-07
3.32527e-07
3.84887e-07
4.29767e-07
4.64938e-07
4.91523e-07
5.12961e-07
3.59173e-08
7.56205e-08
1.14672e-07
1.44593e-07
1.67818e-07
1.73667e-07
1.71451e-07
1.75903e-07
1.95335e-07
2.245e-07
2.5982e-07
3.0585e-07
3.61713e-07
4.17955e-07
4.64565e-07
4.98109e-07
5.19911e-07
5.3433e-07
1.53715e-08
5.63124e-08
8.90504e-08
1.19615e-07
1.31822e-07
1.32746e-07
1.34777e-07
1.38567e-07
1.4639e-07
1.60051e-07
1.7972e-07
2.08138e-07
2.44757e-07
2.82578e-07
3.13363e-07
3.33574e-07
3.43828e-07
3.47532e-07
2.11804e-08
5.45755e-08
8.82739e-08
1.21117e-07
1.29663e-07
1.29387e-07
1.32399e-07
1.35142e-07
1.37005e-07
1.4248e-07
1.54209e-07
1.74115e-07
2.02103e-07
2.32681e-07
2.5806e-07
2.74103e-07
2.80542e-07
2.80206e-07
3.20204e-08
5.73571e-08
8.95585e-08
1.22855e-07
1.28453e-07
1.25093e-07
1.27329e-07
1.30564e-07
1.3028e-07
1.30503e-07
1.36161e-07
1.49398e-07
1.69687e-07
1.92889e-07
2.12549e-07
2.25126e-07
2.29659e-07
2.27847e-07
4.27042e-08
6.28515e-08
9.06775e-08
1.23321e-07
1.30085e-07
1.25535e-07
1.277e-07
1.30932e-07
1.28199e-07
1.23041e-07
1.22671e-07
1.30228e-07
1.45133e-07
1.64117e-07
1.81544e-07
1.9309e-07
1.96983e-07
1.94791e-07
5.40052e-08
7.04347e-08
9.34746e-08
1.18953e-07
1.22244e-07
1.17966e-07
1.22397e-07
1.28321e-07
1.27241e-07
1.20845e-07
1.15551e-07
1.15625e-07
1.22057e-07
1.33215e-07
1.45256e-07
1.54156e-07
1.57897e-07
1.57342e-07
6.75575e-08
7.56479e-08
9.56642e-08
1.23731e-07
1.2957e-07
1.27592e-07
1.30365e-07
1.33446e-07
1.31757e-07
1.25918e-07
1.19965e-07
1.18227e-07
1.21595e-07
1.27941e-07
1.34027e-07
1.37967e-07
1.39562e-07
1.3907e-07
8.45067e-08
7.42089e-08
6.97322e-08
9.05213e-08
1.07469e-07
1.17599e-07
1.23643e-07
1.27317e-07
1.27009e-07
1.2121e-07
1.12617e-07
1.06186e-07
1.0397e-07
1.0465e-07
1.06652e-07
1.09489e-07
1.12365e-07
1.14309e-07
1.26463e-07
1.28946e-07
1.23979e-07
1.32592e-07
1.42777e-07
1.47607e-07
1.47788e-07
1.49037e-07
1.51365e-07
1.49979e-07
1.44342e-07
1.36543e-07
1.28714e-07
1.19449e-07
1.09348e-07
1.00145e-07
9.51253e-08
9.32544e-08
7.23019e-08
8.19004e-08
1.15997e-07
1.12505e-07
1.05998e-07
1.09499e-07
1.1092e-07
1.13528e-07
1.24845e-07
1.45423e-07
1.7338e-07
2.09069e-07
2.47701e-07
2.84578e-07
3.13836e-07
3.37457e-07
3.54024e-07
3.6904e-07
5.71307e-07
1.07121e-06
1.61199e-06
2.07144e-06
2.42496e-06
2.71049e-06
2.95541e-06
3.17512e-06
3.37218e-06
3.53288e-06
3.64314e-06
3.69408e-06
3.69463e-06
3.65369e-06
3.59438e-06
3.5213e-06
3.45724e-06
3.39035e-06
4.43876e-05
4.19462e-05
3.97975e-05
3.77672e-05
3.58953e-05
3.41575e-05
3.25137e-05
3.09434e-05
2.94369e-05
2.79978e-05
2.66347e-05
2.53576e-05
2.41621e-05
2.30469e-05
2.19968e-05
2.10162e-05
2.00836e-05
1.91998e-05
4.41884e-05
4.14695e-05
3.90691e-05
3.6736e-05
3.4505e-05
3.24169e-05
3.04699e-05
2.86605e-05
2.69504e-05
2.5352e-05
2.38027e-05
2.23708e-05
2.09244e-05
1.9627e-05
1.819e-05
1.70355e-05
1.54832e-05
1.44737e-05
7.66582e-07
1.58607e-06
2.39565e-06
3.07486e-06
3.60936e-06
4.024e-06
4.34079e-06
4.57043e-06
4.74359e-06
4.86559e-06
4.97956e-06
5.04654e-06
5.14145e-06
5.16267e-06
5.27278e-06
5.22725e-06
5.44378e-06
5.35271e-06
3.57677e-08
6.98441e-08
5.94452e-08
4.04045e-09
1.08442e-07
2.39349e-07
3.76015e-07
5.1036e-07
6.40731e-07
7.58661e-07
8.76791e-07
9.85628e-07
1.10794e-06
1.21707e-06
1.35482e-06
1.46835e-06
1.64727e-06
1.80221e-06
1.38238e-07
1.19441e-07
1.0854e-07
1.09523e-07
1.0804e-07
1.00322e-07
8.93471e-08
8.02041e-08
7.32985e-08
7.15129e-08
7.64277e-08
9.05325e-08
1.14096e-07
1.48363e-07
1.93521e-07
2.51696e-07
3.18791e-07
4.07407e-07
9.33212e-08
5.64133e-08
3.88447e-08
3.744e-08
4.06387e-08
4.58729e-08
5.14067e-08
5.80087e-08
6.40689e-08
6.84415e-08
7.21099e-08
7.70455e-08
8.43846e-08
9.51748e-08
1.09146e-07
1.26845e-07
1.41946e-07
1.60748e-07
7.77538e-08
5.99828e-08
4.56744e-08
4.54596e-08
5.02324e-08
5.486e-08
5.77769e-08
6.2584e-08
6.83948e-08
7.36497e-08
7.86517e-08
8.53594e-08
9.44472e-08
1.06827e-07
1.21037e-07
1.36705e-07
1.47924e-07
1.53705e-07
6.63213e-08
5.8016e-08
4.25747e-08
3.90991e-08
4.11583e-08
4.54695e-08
4.9976e-08
5.62433e-08
6.32983e-08
7.00079e-08
7.70876e-08
8.64067e-08
9.81244e-08
1.12403e-07
1.27194e-07
1.41722e-07
1.52397e-07
1.54836e-07
5.781e-08
5.35586e-08
3.87161e-08
3.31138e-08
3.42976e-08
4.01966e-08
4.77403e-08
5.60847e-08
6.43005e-08
7.1923e-08
8.01832e-08
9.11199e-08
1.04673e-07
1.19944e-07
1.34943e-07
1.4765e-07
1.56653e-07
1.58889e-07
5.17002e-08
4.9287e-08
3.64357e-08
2.9559e-08
3.06532e-08
3.83646e-08
4.80022e-08
5.73066e-08
6.58396e-08
7.40277e-08
8.36054e-08
9.64009e-08
1.11932e-07
1.28109e-07
1.4293e-07
1.54556e-07
1.61389e-07
1.63419e-07
4.74211e-08
4.62191e-08
3.55107e-08
2.81762e-08
2.92713e-08
3.82752e-08
4.92488e-08
5.90205e-08
6.76201e-08
7.62144e-08
8.69898e-08
1.01593e-07
1.19063e-07
1.36382e-07
1.50945e-07
1.616e-07
1.67072e-07
1.67747e-07
4.44305e-08
4.44498e-08
3.63362e-08
2.93847e-08
2.97919e-08
3.87633e-08
5.0607e-08
6.14801e-08
7.09773e-08
8.02884e-08
9.18246e-08
1.07296e-07
1.25669e-07
1.43452e-07
1.57704e-07
1.67341e-07
1.7202e-07
1.72409e-07
3.57893e-08
3.65895e-08
3.14193e-08
2.66416e-08
2.77916e-08
3.57247e-08
4.5244e-08
5.35621e-08
6.10588e-08
6.91545e-08
8.00078e-08
9.48384e-08
1.12057e-07
1.28083e-07
1.40089e-07
1.47428e-07
1.50441e-07
1.50155e-07
3.93354e-08
4.10017e-08
3.78947e-08
3.45424e-08
3.56571e-08
4.36855e-08
5.45335e-08
6.4938e-08
7.46672e-08
8.47902e-08
9.74287e-08
1.14346e-07
1.34072e-07
1.52565e-07
1.66307e-07
1.74221e-07
1.77117e-07
1.76518e-07
4.35205e-08
4.70057e-08
4.43481e-08
4.20326e-08
4.6446e-08
5.79433e-08
7.00661e-08
7.94621e-08
8.772e-08
9.67099e-08
1.08067e-07
1.24083e-07
1.44585e-07
1.65435e-07
1.82265e-07
1.92952e-07
1.98074e-07
1.99378e-07
4.76789e-08
5.27066e-08
5.12275e-08
5.26006e-08
6.33482e-08
7.76602e-08
8.78284e-08
9.44594e-08
1.0134e-07
1.07732e-07
1.14692e-07
1.28309e-07
1.51007e-07
1.76895e-07
1.99404e-07
2.14932e-07
2.23907e-07
2.27518e-07
5.15671e-08
5.86126e-08
6.17449e-08
7.1656e-08
8.59085e-08
9.61706e-08
1.0063e-07
1.02269e-07
1.03535e-07
1.06768e-07
1.20198e-07
1.50044e-07
1.89405e-07
2.2631e-07
2.53709e-07
2.69616e-07
2.76727e-07