/*--------------------------------*- C++ -*----------------------------------*\
| =========                 |                                                 |
| \\      /  F ield         | OpenFOAM: The Open Source CFD Toolbox           |
|  \\    /   O peration     | Version:  2112                                  |
|   \\  /    A nd           | Website:  www.openfoam.com                      |
|    \\/     M anipulation  |                                                 |
\*---------------------------------------------------------------------------*/
FoamFile
{
    version     2.0;
    format      ascii;
    arch        "LSB;label=32;scalar=64";
    class       volScalarField;
    location    "0.017";
    object      pPrime2Mean;
}
// * * * * * * * * * * * * * * * * * * * * * * * * * * * * * * * * * * * * * //

dimensions      [0 4 -4 0 0 0 0];

internalField   nonuniform List<scalar> 
12225
(
2.41429e+07
2.37572e+07
2.33603e+07
2.29771e+07
2.26088e+07
2.22545e+07
2.19133e+07
2.1584e+07
2.12658e+07
2.09573e+07
2.06574e+07
2.03646e+07
2.00771e+07
1.97929e+07
1.95089e+07
1.92204e+07
1.89191e+07
1.85837e+07
2.41432e+07
2.37574e+07
2.33605e+07
2.29773e+07
2.2609e+07
2.22548e+07
2.19136e+07
2.15844e+07
2.12662e+07
2.09578e+07
2.06581e+07
2.03654e+07
2.00783e+07
1.97946e+07
1.95113e+07
1.92244e+07
1.89266e+07
1.86023e+07
2.41436e+07
2.37579e+07
2.33609e+07
2.29777e+07
2.26095e+07
2.22553e+07
2.19142e+07
2.15852e+07
2.12671e+07
2.0959e+07
2.06595e+07
2.03674e+07
2.00809e+07
1.97982e+07
1.95166e+07
1.92328e+07
1.89416e+07
1.86371e+07
2.41445e+07
2.37587e+07
2.33616e+07
2.29784e+07
2.26103e+07
2.22562e+07
2.19153e+07
2.15864e+07
2.12687e+07
2.0961e+07
2.0662e+07
2.03706e+07
2.00851e+07
1.9804e+07
1.95251e+07
1.92458e+07
1.89637e+07
1.86789e+07
2.41464e+07
2.37598e+07
2.33626e+07
2.29795e+07
2.26114e+07
2.22575e+07
2.19168e+07
2.15883e+07
2.1271e+07
2.09638e+07
2.06656e+07
2.03752e+07
2.00913e+07
1.98123e+07
1.95368e+07
1.92634e+07
1.89913e+07
1.87241e+07
2.4148e+07
2.37613e+07
2.3364e+07
2.29809e+07
2.2613e+07
2.22594e+07
2.1919e+07
2.15909e+07
2.12742e+07
2.09677e+07
2.06705e+07
2.03815e+07
2.00995e+07
1.98233e+07
1.95521e+07
1.92851e+07
1.90232e+07
1.87708e+07
2.41503e+07
2.37632e+07
2.33659e+07
2.29828e+07
2.26151e+07
2.22618e+07
2.19218e+07
2.15943e+07
2.12783e+07
2.09728e+07
2.06769e+07
2.03896e+07
2.011e+07
1.98372e+07
1.95707e+07
1.93106e+07
1.90584e+07
1.88184e+07
2.41533e+07
2.37657e+07
2.33682e+07
2.29853e+07
2.26178e+07
2.22649e+07
2.19254e+07
2.15986e+07
2.12835e+07
2.09793e+07
2.06849e+07
2.03997e+07
2.01228e+07
1.98538e+07
1.95924e+07
1.93393e+07
1.90962e+07
1.88663e+07
2.41565e+07
2.37687e+07
2.33711e+07
2.29883e+07
2.26212e+07
2.22687e+07
2.19299e+07
2.1604e+07
2.129e+07
2.09872e+07
2.06947e+07
2.04119e+07
2.01381e+07
1.98732e+07
1.96172e+07
1.93709e+07
1.91358e+07
1.89144e+07
2.41609e+07
2.37724e+07
2.33747e+07
2.29921e+07
2.26253e+07
2.22734e+07
2.19355e+07
2.16105e+07
2.12979e+07
2.09967e+07
2.07064e+07
2.04262e+07
2.01559e+07
1.98953e+07
1.96447e+07
1.94047e+07
1.91768e+07
1.89627e+07
2.41655e+07
2.37767e+07
2.3379e+07
2.29966e+07
2.26303e+07
2.22791e+07
2.19421e+07
2.16184e+07
2.13072e+07
2.1008e+07
2.072e+07
2.04428e+07
2.01761e+07
1.99199e+07
1.96745e+07
1.94405e+07
1.9219e+07
1.90111e+07
2.41704e+07
2.37813e+07
2.33836e+07
2.30015e+07
2.26357e+07
2.22853e+07
2.19492e+07
2.16268e+07
2.13172e+07
2.10199e+07
2.07343e+07
2.046e+07
2.01967e+07
1.99446e+07
1.97038e+07
1.94748e+07
1.92585e+07
1.90554e+07
2.4175e+07
2.37864e+07
2.33888e+07
2.3007e+07
2.26418e+07
2.22922e+07
2.19573e+07
2.16362e+07
2.13284e+07
2.10331e+07
2.075e+07
2.04786e+07
2.02188e+07
1.99706e+07
1.97342e+07
1.95099e+07
1.92981e+07
1.90992e+07
2.41823e+07
2.37931e+07
2.33955e+07
2.30142e+07
2.26499e+07
2.23014e+07
2.19678e+07
2.16485e+07
2.13428e+07
2.105e+07
2.07699e+07
2.05019e+07
2.0246e+07
2.00021e+07
1.97703e+07
1.95508e+07
1.93437e+07
1.9149e+07
2.41926e+07
2.38018e+07
2.34043e+07
2.30237e+07
2.26603e+07
2.23132e+07
2.19815e+07
2.16643e+07
2.13611e+07
2.10714e+07
2.07946e+07
2.05305e+07
2.02789e+07
2.00397e+07
1.98127e+07
1.9598e+07
1.93954e+07
1.92049e+07
2.42022e+07
2.38122e+07
2.34154e+07
2.30358e+07
2.26738e+07
2.23285e+07
2.19989e+07
2.16843e+07
2.13841e+07
2.10978e+07
2.08249e+07
2.05651e+07
2.03181e+07
2.00836e+07
1.98614e+07
1.96514e+07
1.94532e+07
1.92666e+07
2.42126e+07
2.38246e+07
2.34292e+07
2.3051e+07
2.26909e+07
2.23477e+07
2.20207e+07
2.17091e+07
2.14123e+07
2.11298e+07
2.08611e+07
2.06057e+07
2.03633e+07
2.01336e+07
1.99161e+07
1.97105e+07
1.95165e+07
1.93335e+07
2.42272e+07
2.38403e+07
2.34463e+07
2.30699e+07
2.27119e+07
2.23712e+07
2.20471e+07
2.17388e+07
2.14458e+07
2.11673e+07
2.09028e+07
2.06519e+07
2.0414e+07
2.01887e+07
1.99756e+07
1.97741e+07
1.95838e+07
1.94042e+07
2.42457e+07
2.38597e+07
2.3467e+07
2.30924e+07
2.27366e+07
2.23986e+07
2.20776e+07
2.17728e+07
2.14834e+07
2.12089e+07
2.09486e+07
2.07019e+07
2.04682e+07
2.0247e+07
2.00378e+07
1.98399e+07
1.96529e+07
1.94762e+07
2.42647e+07
2.38777e+07
2.34853e+07
2.31118e+07
2.27576e+07
2.24217e+07
2.2103e+07
2.18007e+07
2.15141e+07
2.12424e+07
2.0985e+07
2.07412e+07
2.05104e+07
2.02919e+07
2.00852e+07
1.98897e+07
1.97048e+07
1.953e+07
2.4277e+07
2.38896e+07
2.34977e+07
2.31251e+07
2.27721e+07
2.24375e+07
2.21203e+07
2.18197e+07
2.15349e+07
2.1265e+07
2.10094e+07
2.07673e+07
2.05382e+07
2.03214e+07
2.01162e+07
1.99221e+07
1.97385e+07
1.95648e+07
2.42833e+07
2.38976e+07
2.35066e+07
2.31348e+07
2.27827e+07
2.24492e+07
2.21331e+07
2.18337e+07
2.155e+07
2.12814e+07
2.1027e+07
2.07862e+07
2.05582e+07
2.03425e+07
2.01384e+07
1.99452e+07
1.97624e+07
1.95895e+07
2.42885e+07
2.39032e+07
2.35128e+07
2.31417e+07
2.27904e+07
2.24576e+07
2.21423e+07
2.18437e+07
2.1561e+07
2.12932e+07
2.10396e+07
2.07997e+07
2.05725e+07
2.03575e+07
2.01541e+07
1.99616e+07
1.97793e+07
1.96069e+07
2.42915e+07
2.39068e+07
2.35171e+07
2.31466e+07
2.27958e+07
2.24636e+07
2.21489e+07
2.18509e+07
2.15687e+07
2.13015e+07
2.10485e+07
2.08091e+07
2.05825e+07
2.0368e+07
2.01651e+07
1.9973e+07
1.97911e+07
1.9619e+07
2.42919e+07
2.39089e+07
2.35199e+07
2.31499e+07
2.27995e+07
2.24677e+07
2.21534e+07
2.18558e+07
2.1574e+07
2.13072e+07
2.10547e+07
2.08156e+07
2.05894e+07
2.03753e+07
2.01726e+07
1.99808e+07
1.97992e+07
1.96273e+07
2.42927e+07
2.39103e+07
2.35218e+07
2.31521e+07
2.2802e+07
2.24705e+07
2.21564e+07
2.18591e+07
2.15776e+07
2.13111e+07
2.10588e+07
2.082e+07
2.0594e+07
2.03801e+07
2.01777e+07
1.99861e+07
1.98047e+07
1.96329e+07
2.42935e+07
2.39113e+07
2.3523e+07
2.31535e+07
2.28036e+07
2.24723e+07
2.21584e+07
2.18612e+07
2.15799e+07
2.13136e+07
2.10615e+07
2.08228e+07
2.0597e+07
2.03832e+07
2.01809e+07
1.99894e+07
1.98082e+07
1.96365e+07
2.42941e+07
2.39118e+07
2.35237e+07
2.31544e+07
2.28046e+07
2.24733e+07
2.21596e+07
2.18625e+07
2.15813e+07
2.13151e+07
2.10631e+07
2.08245e+07
2.05988e+07
2.03851e+07
2.01829e+07
1.99915e+07
1.98103e+07
1.96387e+07
2.4294e+07
2.39121e+07
2.35241e+07
2.31549e+07
2.28051e+07
2.24739e+07
2.21603e+07
2.18632e+07
2.15821e+07
2.13159e+07
2.10639e+07
2.08255e+07
2.05998e+07
2.03862e+07
2.0184e+07
1.99926e+07
1.98114e+07
1.96398e+07
2.42941e+07
2.39122e+07
2.35243e+07
2.31551e+07
2.28054e+07
2.24742e+07
2.21605e+07
2.18635e+07
2.15824e+07
2.13162e+07
2.10643e+07
2.08258e+07
2.06002e+07
2.03866e+07
2.01844e+07
1.9993e+07
1.98119e+07
1.96403e+07
1.5706e+07
1.57048e+07
1.57023e+07
1.56984e+07
1.56933e+07
1.56868e+07
1.5679e+07
1.56697e+07
1.5659e+07
1.5647e+07
1.56334e+07
1.56185e+07
1.5602e+07
1.55841e+07
1.55647e+07
1.55438e+07
1.55214e+07
1.54976e+07
1.54722e+07
1.54453e+07
1.5417e+07
1.53871e+07
1.53558e+07
1.5323e+07
1.52888e+07
1.52531e+07
1.5216e+07
1.51775e+07
1.51376e+07
1.50963e+07
1.50536e+07
1.50096e+07
1.49642e+07
1.49175e+07
1.48695e+07
1.48203e+07
1.47697e+07
1.47179e+07
1.46649e+07
1.46106e+07
1.45551e+07
1.44985e+07
1.44406e+07
1.43817e+07
1.43216e+07
1.42604e+07
1.41981e+07
1.41347e+07
1.40703e+07
1.40049e+07
1.39386e+07
1.38712e+07
1.38029e+07
1.37337e+07
1.36635e+07
1.35925e+07
1.35206e+07
1.34479e+07
1.33744e+07
1.33e+07
1.32249e+07
1.3149e+07
1.30723e+07
1.29949e+07
1.29168e+07
1.28379e+07
1.27584e+07
1.26781e+07
1.25972e+07
1.25156e+07
1.24334e+07
1.23506e+07
1.22671e+07
1.2183e+07
1.20983e+07
1.20131e+07
1.19273e+07
1.18409e+07
1.17539e+07
1.16665e+07
1.15784e+07
1.14899e+07
1.14009e+07
1.13114e+07
1.12214e+07
1.11309e+07
1.10399e+07
1.09485e+07
1.08567e+07
1.07644e+07
1.06717e+07
1.05786e+07
1.04851e+07
1.03911e+07
1.02968e+07
1.02021e+07
1.01071e+07
1.00116e+07
9.91587e+06
9.81975e+06
9.72329e+06
9.62651e+06
9.52941e+06
9.43201e+06
9.33431e+06
9.23632e+06
9.13804e+06
9.0395e+06
8.94069e+06
8.84163e+06
8.74232e+06
8.64278e+06
8.54301e+06
8.44303e+06
8.34284e+06
8.24245e+06
8.14187e+06
8.04112e+06
7.9402e+06
7.83913e+06
7.7379e+06
7.63654e+06
7.53506e+06
7.43345e+06
7.33175e+06
7.22995e+06
7.12807e+06
7.02611e+06
6.9241e+06
6.82205e+06
6.71995e+06
6.61784e+06
6.51572e+06
6.41359e+06
6.31149e+06
6.20942e+06
6.10739e+06
6.00542e+06
5.90352e+06
5.8017e+06
5.69999e+06
5.5984e+06
5.49694e+06
5.39562e+06
5.29447e+06
5.1935e+06
5.09273e+06
4.99217e+06
4.89184e+06
4.79177e+06
4.69196e+06
4.59243e+06
4.49321e+06
4.39432e+06
4.29577e+06
4.19758e+06
4.09978e+06
4.00239e+06
3.90543e+06
3.80892e+06
3.71288e+06
3.61735e+06
3.52233e+06
3.42787e+06
3.33398e+06
3.24069e+06
3.14804e+06
3.05605e+06
2.96475e+06
2.87418e+06
2.78439e+06
2.6954e+06
2.60727e+06
2.52005e+06
2.43382e+06
2.34865e+06
2.26467e+06
2.18203e+06
2.10104e+06
2.02233e+06
1.57117e+07
1.57104e+07
1.57079e+07
1.57041e+07
1.56989e+07
1.56924e+07
1.56845e+07
1.56751e+07
1.56644e+07
1.56523e+07
1.56387e+07
1.56236e+07
1.56071e+07
1.55891e+07
1.55696e+07
1.55486e+07
1.55261e+07
1.55021e+07
1.54767e+07
1.54497e+07
1.54212e+07
1.53913e+07
1.53598e+07
1.53269e+07
1.52926e+07
1.52568e+07
1.52196e+07
1.5181e+07
1.51409e+07
1.50995e+07
1.50567e+07
1.50126e+07
1.49671e+07
1.49203e+07
1.48722e+07
1.48228e+07
1.47722e+07
1.47202e+07
1.46671e+07
1.46127e+07
1.45572e+07
1.45004e+07
1.44425e+07
1.43835e+07
1.43233e+07
1.4262e+07
1.41996e+07
1.41362e+07
1.40717e+07
1.40063e+07
1.39398e+07
1.38724e+07
1.3804e+07
1.37347e+07
1.36645e+07
1.35935e+07
1.35215e+07
1.34488e+07
1.33752e+07
1.33008e+07
1.32256e+07
1.31497e+07
1.3073e+07
1.29955e+07
1.29173e+07
1.28384e+07
1.27589e+07
1.26786e+07
1.25977e+07
1.25161e+07
1.24338e+07
1.23509e+07
1.22674e+07
1.21833e+07
1.20986e+07
1.20134e+07
1.19275e+07
1.18411e+07
1.17542e+07
1.16667e+07
1.15787e+07
1.14901e+07
1.14011e+07
1.13115e+07
1.12215e+07
1.1131e+07
1.10401e+07
1.09487e+07
1.08568e+07
1.07645e+07
1.06718e+07
1.05787e+07
1.04852e+07
1.03912e+07
1.02969e+07
1.02022e+07
1.01071e+07
1.00117e+07
9.91592e+06
9.8198e+06
9.72334e+06
9.62656e+06
9.52946e+06
9.43205e+06
9.33434e+06
9.23635e+06
9.13807e+06
9.03952e+06
8.94071e+06
8.84165e+06
8.74234e+06
8.6428e+06
8.54303e+06
8.44304e+06
8.34285e+06
8.24246e+06
8.14189e+06
8.04113e+06
7.94021e+06
7.83913e+06
7.73791e+06
7.63655e+06
7.53506e+06
7.43346e+06
7.33175e+06
7.22995e+06
7.12807e+06
7.02612e+06
6.92411e+06
6.82205e+06
6.71996e+06
6.61784e+06
6.51572e+06
6.4136e+06
6.31149e+06
6.20942e+06
6.10739e+06
6.00542e+06
5.90352e+06
5.80171e+06
5.69999e+06
5.5984e+06
5.49694e+06
5.39562e+06
5.29447e+06
5.1935e+06
5.09273e+06
4.99217e+06
4.89184e+06
4.79177e+06
4.69196e+06
4.59243e+06
4.49321e+06
4.39432e+06
4.29577e+06
4.19758e+06
4.09978e+06
4.00239e+06
3.90543e+06
3.80892e+06
3.71288e+06
3.61734e+06
3.52233e+06
3.42787e+06
3.33398e+06
3.24069e+06
3.14803e+06
3.05604e+06
2.96474e+06
2.87417e+06
2.78437e+06
2.69538e+06
2.60724e+06
2.52002e+06
2.43377e+06
2.34859e+06
2.26457e+06
2.18188e+06
2.10077e+06
2.02169e+06
1.57231e+07
1.57218e+07
1.57192e+07
1.57153e+07
1.57101e+07
1.57035e+07
1.56955e+07
1.56861e+07
1.56752e+07
1.56629e+07
1.56492e+07
1.5634e+07
1.56173e+07
1.55991e+07
1.55794e+07
1.55582e+07
1.55355e+07
1.55113e+07
1.54856e+07
1.54584e+07
1.54297e+07
1.53995e+07
1.53679e+07
1.53347e+07
1.53002e+07
1.52641e+07
1.52267e+07
1.51878e+07
1.51475e+07
1.51059e+07
1.50629e+07
1.50185e+07
1.49728e+07
1.49258e+07
1.48775e+07
1.48279e+07
1.4777e+07
1.47249e+07
1.46716e+07
1.4617e+07
1.45613e+07
1.45043e+07
1.44463e+07
1.4387e+07
1.43267e+07
1.42652e+07
1.42027e+07
1.41391e+07
1.40745e+07
1.40089e+07
1.39423e+07
1.38747e+07
1.38062e+07
1.37368e+07
1.36665e+07
1.35954e+07
1.35233e+07
1.34505e+07
1.33768e+07
1.33023e+07
1.32271e+07
1.3151e+07
1.30742e+07
1.29967e+07
1.29185e+07
1.28395e+07
1.27599e+07
1.26795e+07
1.25985e+07
1.25169e+07
1.24346e+07
1.23517e+07
1.22681e+07
1.2184e+07
1.20993e+07
1.20139e+07
1.19281e+07
1.18416e+07
1.17546e+07
1.16671e+07
1.15791e+07
1.14905e+07
1.14014e+07
1.13119e+07
1.12218e+07
1.11313e+07
1.10404e+07
1.09489e+07
1.08571e+07
1.07648e+07
1.0672e+07
1.05789e+07
1.04853e+07
1.03914e+07
1.02971e+07
1.02023e+07
1.01073e+07
1.00118e+07
9.91603e+06
9.8199e+06
9.72344e+06
9.62664e+06
9.52954e+06
9.43212e+06
9.33441e+06
9.23641e+06
9.13813e+06
9.03958e+06
8.94076e+06
8.84169e+06
8.74238e+06
8.64284e+06
8.54306e+06
8.44308e+06
8.34288e+06
8.24249e+06
8.14191e+06
8.04116e+06
7.94023e+06
7.83915e+06
7.73793e+06
7.63656e+06
7.53508e+06
7.43347e+06
7.33176e+06
7.22996e+06
7.12808e+06
7.02613e+06
6.92411e+06
6.82206e+06
6.71996e+06
6.61785e+06
6.51572e+06
6.4136e+06
6.3115e+06
6.20942e+06
6.10739e+06
6.00542e+06
5.90352e+06
5.80171e+06
5.7e+06
5.5984e+06
5.49694e+06
5.39563e+06
5.29448e+06
5.19351e+06
5.09273e+06
4.99217e+06
4.89185e+06
4.79177e+06
4.69196e+06
4.59243e+06
4.49321e+06
4.39432e+06
4.29577e+06
4.19758e+06
4.09978e+06
4.00239e+06
3.90543e+06
3.80892e+06
3.71288e+06
3.61734e+06
3.52233e+06
3.42786e+06
3.33397e+06
3.24068e+06
3.14802e+06
3.05603e+06
2.96472e+06
2.87415e+06
2.78434e+06
2.69534e+06
2.60719e+06
2.51995e+06
2.43368e+06
2.34845e+06
2.26438e+06
2.18159e+06
2.10028e+06
2.02069e+06
1.57403e+07
1.5739e+07
1.57363e+07
1.57323e+07
1.5727e+07
1.57203e+07
1.57121e+07
1.57025e+07
1.56915e+07
1.5679e+07
1.5665e+07
1.56495e+07
1.56326e+07
1.56141e+07
1.55941e+07
1.55726e+07
1.55496e+07
1.55251e+07
1.5499e+07
1.54715e+07
1.54424e+07
1.54119e+07
1.53799e+07
1.53464e+07
1.53115e+07
1.52751e+07
1.52373e+07
1.51981e+07
1.51574e+07
1.51154e+07
1.50721e+07
1.50274e+07
1.49813e+07
1.4934e+07
1.48854e+07
1.48355e+07
1.47843e+07
1.47319e+07
1.46783e+07
1.46234e+07
1.45674e+07
1.45102e+07
1.44519e+07
1.43924e+07
1.43318e+07
1.42701e+07
1.42073e+07
1.41435e+07
1.40787e+07
1.40128e+07
1.3946e+07
1.38783e+07
1.38096e+07
1.374e+07
1.36695e+07
1.35982e+07
1.3526e+07
1.3453e+07
1.33792e+07
1.33046e+07
1.32292e+07
1.3153e+07
1.30761e+07
1.29985e+07
1.29202e+07
1.28411e+07
1.27614e+07
1.26809e+07
1.25999e+07
1.25181e+07
1.24358e+07
1.23528e+07
1.22692e+07
1.2185e+07
1.21002e+07
1.20148e+07
1.19289e+07
1.18424e+07
1.17553e+07
1.16678e+07
1.15797e+07
1.14911e+07
1.1402e+07
1.13124e+07
1.12223e+07
1.11318e+07
1.10408e+07
1.09493e+07
1.08574e+07
1.07651e+07
1.06723e+07
1.05792e+07
1.04856e+07
1.03916e+07
1.02973e+07
1.02026e+07
1.01075e+07
1.0012e+07
9.9162e+06
9.82006e+06
9.72358e+06
9.62678e+06
9.52966e+06
9.43224e+06
9.33452e+06
9.23651e+06
9.13822e+06
9.03966e+06
8.94084e+06
8.84176e+06
8.74244e+06
8.64289e+06
8.54312e+06
8.44312e+06
8.34292e+06
8.24253e+06
8.14195e+06
8.04119e+06
7.94026e+06
7.83918e+06
7.73795e+06
7.63659e+06
7.5351e+06
7.43349e+06
7.33178e+06
7.22998e+06
7.12809e+06
7.02614e+06
6.92413e+06
6.82207e+06
6.71997e+06
6.61785e+06
6.51573e+06
6.41361e+06
6.3115e+06
6.20943e+06
6.1074e+06
6.00543e+06
5.90352e+06
5.80171e+06
5.7e+06
5.59841e+06
5.49694e+06
5.39563e+06
5.29448e+06
5.19351e+06
5.09273e+06
4.99218e+06
4.89185e+06
4.79177e+06
4.69196e+06
4.59243e+06
4.49321e+06
4.39432e+06
4.29577e+06
4.19758e+06
4.09978e+06
4.00239e+06
3.90543e+06
3.80891e+06
3.71288e+06
3.61734e+06
3.52232e+06
3.42785e+06
3.33396e+06
3.24067e+06
3.148e+06
3.056e+06
2.96469e+06
2.87411e+06
2.78429e+06
2.69528e+06
2.60711e+06
2.51985e+06
2.43354e+06
2.34826e+06
2.26411e+06
2.18119e+06
2.09963e+06
2.01953e+06
1.57633e+07
1.5762e+07
1.57593e+07
1.57552e+07
1.57497e+07
1.57428e+07
1.57344e+07
1.57246e+07
1.57133e+07
1.57005e+07
1.56862e+07
1.56704e+07
1.56531e+07
1.56342e+07
1.56138e+07
1.55919e+07
1.55685e+07
1.55435e+07
1.5517e+07
1.5489e+07
1.54595e+07
1.54284e+07
1.53959e+07
1.5362e+07
1.53265e+07
1.52897e+07
1.52514e+07
1.52117e+07
1.51706e+07
1.51281e+07
1.50843e+07
1.50392e+07
1.49927e+07
1.49449e+07
1.48958e+07
1.48455e+07
1.4794e+07
1.47412e+07
1.46871e+07
1.46319e+07
1.45755e+07
1.4518e+07
1.44593e+07
1.43995e+07
1.43385e+07
1.42765e+07
1.42134e+07
1.41493e+07
1.40842e+07
1.40181e+07
1.3951e+07
1.3883e+07
1.3814e+07
1.37442e+07
1.36735e+07
1.3602e+07
1.35296e+07
1.34564e+07
1.33824e+07
1.33076e+07
1.3232e+07
1.31557e+07
1.30786e+07
1.30009e+07
1.29224e+07
1.28432e+07
1.27633e+07
1.26828e+07
1.26016e+07
1.25198e+07
1.24373e+07
1.23542e+07
1.22705e+07
1.21862e+07
1.21014e+07
1.20159e+07
1.19299e+07
1.18434e+07
1.17563e+07
1.16686e+07
1.15805e+07
1.14918e+07
1.14027e+07
1.13131e+07
1.12229e+07
1.11324e+07
1.10413e+07
1.09498e+07
1.08579e+07
1.07655e+07
1.06727e+07
1.05795e+07
1.0486e+07
1.0392e+07
1.02976e+07
1.02028e+07
1.01077e+07
1.00122e+07
9.91643e+06
9.82026e+06
9.72377e+06
9.62695e+06
9.52982e+06
9.43239e+06
9.33466e+06
9.23663e+06
9.13834e+06
9.03977e+06
8.94094e+06
8.84185e+06
8.74253e+06
8.64297e+06
8.54319e+06
8.44319e+06
8.34298e+06
8.24258e+06
8.142e+06
8.04123e+06
7.9403e+06
7.83922e+06
7.73799e+06
7.63662e+06
7.53512e+06
7.43352e+06
7.3318e+06
7.23e+06
7.12811e+06
7.02616e+06
6.92414e+06
6.82208e+06
6.71998e+06
6.61787e+06
6.51574e+06
6.41362e+06
6.31151e+06
6.20943e+06
6.1074e+06
6.00543e+06
5.90353e+06
5.80172e+06
5.7e+06
5.59841e+06
5.49695e+06
5.39563e+06
5.29448e+06
5.19351e+06
5.09274e+06
4.99218e+06
4.89185e+06
4.79177e+06
4.69196e+06
4.59243e+06
4.49321e+06
4.39432e+06
4.29577e+06
4.19758e+06
4.09978e+06
4.00239e+06
3.90542e+06
3.80891e+06
3.71287e+06
3.61733e+06
3.52231e+06
3.42784e+06
3.33394e+06
3.24065e+06
3.14798e+06
3.05598e+06
2.96466e+06
2.87407e+06
2.78423e+06
2.6952e+06
2.60701e+06
2.51971e+06
2.43336e+06
2.34802e+06
2.26377e+06
2.18069e+06
2.09886e+06
2.01831e+06
1.57924e+07
1.5791e+07
1.57882e+07
1.5784e+07
1.57783e+07
1.57711e+07
1.57625e+07
1.57524e+07
1.57408e+07
1.57276e+07
1.57129e+07
1.56967e+07
1.56789e+07
1.56595e+07
1.56386e+07
1.56161e+07
1.55921e+07
1.55666e+07
1.55395e+07
1.55109e+07
1.54808e+07
1.54491e+07
1.5416e+07
1.53814e+07
1.53454e+07
1.53079e+07
1.5269e+07
1.52287e+07
1.5187e+07
1.5144e+07
1.50996e+07
1.50538e+07
1.50068e+07
1.49585e+07
1.49089e+07
1.48581e+07
1.4806e+07
1.47527e+07
1.46982e+07
1.46425e+07
1.45857e+07
1.45277e+07
1.44686e+07
1.44083e+07
1.4347e+07
1.42845e+07
1.4221e+07
1.41565e+07
1.4091e+07
1.40245e+07
1.39571e+07
1.38888e+07
1.38195e+07
1.37494e+07
1.36784e+07
1.36066e+07
1.3534e+07
1.34605e+07
1.33863e+07
1.33113e+07
1.32355e+07
1.3159e+07
1.30818e+07
1.30038e+07
1.29252e+07
1.28458e+07
1.27658e+07
1.26851e+07
1.26038e+07
1.25218e+07
1.24392e+07
1.2356e+07
1.22722e+07
1.21878e+07
1.21029e+07
1.20173e+07
1.19312e+07
1.18446e+07
1.17574e+07
1.16697e+07
1.15815e+07
1.14928e+07
1.14036e+07
1.13139e+07
1.12237e+07
1.11331e+07
1.1042e+07
1.09504e+07
1.08585e+07
1.07661e+07
1.06732e+07
1.058e+07
1.04864e+07
1.03924e+07
1.0298e+07
1.02032e+07
1.0108e+07
1.00125e+07
9.9167e+06
9.82052e+06
9.72401e+06
9.62717e+06
9.53003e+06
9.43257e+06
9.33483e+06
9.23679e+06
9.13848e+06
9.0399e+06
8.94106e+06
8.84197e+06
8.74263e+06
8.64306e+06
8.54327e+06
8.44327e+06
8.34306e+06
8.24265e+06
8.14206e+06
8.04129e+06
7.94035e+06
7.83926e+06
7.73803e+06
7.63666e+06
7.53516e+06
7.43355e+06
7.33183e+06
7.23002e+06
7.12814e+06
7.02618e+06
6.92416e+06
6.8221e+06
6.72e+06
6.61788e+06
6.51575e+06
6.41363e+06
6.31152e+06
6.20944e+06
6.10741e+06
6.00544e+06
5.90354e+06
5.80172e+06
5.70001e+06
5.59841e+06
5.49695e+06
5.39564e+06
5.29448e+06
5.19351e+06
5.09274e+06
4.99218e+06
4.89185e+06
4.79177e+06
4.69196e+06
4.59244e+06
4.49321e+06
4.39432e+06
4.29577e+06
4.19758e+06
4.09978e+06
4.00239e+06
3.90542e+06
3.8089e+06
3.71286e+06
3.61732e+06
3.5223e+06
3.42783e+06
3.33393e+06
3.24063e+06
3.14795e+06
3.05594e+06
2.96461e+06
2.87401e+06
2.78416e+06
2.69511e+06
2.60689e+06
2.51955e+06
2.43315e+06
2.34774e+06
2.26337e+06
2.18012e+06
2.09803e+06
2.01707e+06
1.58278e+07
1.58263e+07
1.58233e+07
1.58189e+07
1.5813e+07
1.58056e+07
1.57966e+07
1.57861e+07
1.57741e+07
1.57604e+07
1.57452e+07
1.57284e+07
1.57101e+07
1.56901e+07
1.56685e+07
1.56454e+07
1.56207e+07
1.55944e+07
1.55666e+07
1.55373e+07
1.55064e+07
1.5474e+07
1.54401e+07
1.54048e+07
1.5368e+07
1.53298e+07
1.52901e+07
1.52491e+07
1.52067e+07
1.51629e+07
1.51178e+07
1.50714e+07
1.50237e+07
1.49747e+07
1.49245e+07
1.4873e+07
1.48203e+07
1.47665e+07
1.47114e+07
1.46552e+07
1.45978e+07
1.45393e+07
1.44796e+07
1.44189e+07
1.4357e+07
1.42941e+07
1.42301e+07
1.41651e+07
1.40992e+07
1.40323e+07
1.39644e+07
1.38957e+07
1.38261e+07
1.37556e+07
1.36843e+07
1.36121e+07
1.35392e+07
1.34655e+07
1.3391e+07
1.33157e+07
1.32397e+07
1.31629e+07
1.30855e+07
1.30073e+07
1.29285e+07
1.28489e+07
1.27687e+07
1.26879e+07
1.26064e+07
1.25243e+07
1.24415e+07
1.23582e+07
1.22743e+07
1.21897e+07
1.21046e+07
1.2019e+07
1.19328e+07
1.18461e+07
1.17588e+07
1.1671e+07
1.15827e+07
1.14939e+07
1.14046e+07
1.13149e+07
1.12246e+07
1.11339e+07
1.10428e+07
1.09512e+07
1.08592e+07
1.07667e+07
1.06738e+07
1.05806e+07
1.04869e+07
1.03929e+07
1.02984e+07
1.02036e+07
1.01084e+07
1.00129e+07
9.91704e+06
9.82083e+06
9.72429e+06
9.62743e+06
9.53027e+06
9.4328e+06
9.33503e+06
9.23698e+06
9.13865e+06
9.04006e+06
8.9412e+06
8.8421e+06
8.74275e+06
8.64318e+06
8.54338e+06
8.44336e+06
8.34314e+06
8.24273e+06
8.14213e+06
8.04135e+06
7.94041e+06
7.83932e+06
7.73808e+06
7.6367e+06
7.5352e+06
7.43358e+06
7.33187e+06
7.23005e+06
7.12816e+06
7.0262e+06
6.92418e+06
6.82211e+06
6.72002e+06
6.61789e+06
6.51576e+06
6.41364e+06
6.31153e+06
6.20945e+06
6.10742e+06
6.00545e+06
5.90354e+06
5.80173e+06
5.70002e+06
5.59842e+06
5.49696e+06
5.39564e+06
5.29449e+06
5.19352e+06
5.09274e+06
4.99218e+06
4.89185e+06
4.79178e+06
4.69196e+06
4.59244e+06
4.49322e+06
4.39432e+06
4.29577e+06
4.19758e+06
4.09978e+06
4.00238e+06
3.90542e+06
3.8089e+06
3.71286e+06
3.61731e+06
3.52229e+06
3.42781e+06
3.33391e+06
3.2406e+06
3.14792e+06
3.0559e+06
2.96456e+06
2.87394e+06
2.78408e+06
2.695e+06
2.60675e+06
2.51937e+06
2.43291e+06
2.34741e+06
2.26293e+06
2.17951e+06
2.09717e+06
2.01586e+06
1.58696e+07
1.5868e+07
1.58649e+07
1.58602e+07
1.5854e+07
1.58463e+07
1.58369e+07
1.58259e+07
1.58134e+07
1.57992e+07
1.57833e+07
1.57659e+07
1.57468e+07
1.5726e+07
1.57037e+07
1.56798e+07
1.56542e+07
1.56271e+07
1.55984e+07
1.55681e+07
1.55364e+07
1.55031e+07
1.54683e+07
1.5432e+07
1.53943e+07
1.53552e+07
1.53147e+07
1.52728e+07
1.52295e+07
1.51849e+07
1.5139e+07
1.50918e+07
1.50433e+07
1.49935e+07
1.49425e+07
1.48904e+07
1.4837e+07
1.47824e+07
1.47267e+07
1.46699e+07
1.46119e+07
1.45527e+07
1.44925e+07
1.44311e+07
1.43687e+07
1.43052e+07
1.42407e+07
1.41751e+07
1.41086e+07
1.40412e+07
1.39729e+07
1.39036e+07
1.38336e+07
1.37627e+07
1.3691e+07
1.36185e+07
1.35452e+07
1.34712e+07
1.33963e+07
1.33208e+07
1.32445e+07
1.31675e+07
1.30898e+07
1.30114e+07
1.29323e+07
1.28525e+07
1.27721e+07
1.26911e+07
1.26094e+07
1.25271e+07
1.24442e+07
1.23607e+07
1.22766e+07
1.21919e+07
1.21067e+07
1.20209e+07
1.19346e+07
1.18478e+07
1.17604e+07
1.16725e+07
1.15841e+07
1.14952e+07
1.14058e+07
1.1316e+07
1.12257e+07
1.11349e+07
1.10437e+07
1.0952e+07
1.086e+07
1.07675e+07
1.06745e+07
1.05812e+07
1.04875e+07
1.03934e+07
1.02989e+07
1.02041e+07
1.01089e+07
1.00133e+07
9.91742e+06
9.82118e+06
9.72462e+06
9.62774e+06
9.53055e+06
9.43305e+06
9.33527e+06
9.2372e+06
9.13885e+06
9.04024e+06
8.94137e+06
8.84225e+06
8.7429e+06
8.64331e+06
8.54349e+06
8.44347e+06
8.34324e+06
8.24282e+06
8.14221e+06
8.04143e+06
7.94048e+06
7.83938e+06
7.73814e+06
7.63675e+06
7.53525e+06
7.43363e+06
7.3319e+06
7.23009e+06
7.12819e+06
7.02623e+06
6.92421e+06
6.82214e+06
6.72004e+06
6.61791e+06
6.51578e+06
6.41365e+06
6.31154e+06
6.20947e+06
6.10743e+06
6.00546e+06
5.90355e+06
5.80174e+06
5.70002e+06
5.59843e+06
5.49696e+06
5.39565e+06
5.29449e+06
5.19352e+06
5.09275e+06
4.99219e+06
4.89186e+06
4.79178e+06
4.69197e+06
4.59244e+06
4.49322e+06
4.39432e+06
4.29577e+06
4.19758e+06
4.09978e+06
4.00238e+06
3.90541e+06
3.80889e+06
3.71285e+06
3.6173e+06
3.52228e+06
3.4278e+06
3.33389e+06
3.24057e+06
3.14789e+06
3.05585e+06
2.9645e+06
2.87387e+06
2.78398e+06
2.69488e+06
2.60659e+06
2.51917e+06
2.43264e+06
2.34706e+06
2.26246e+06
2.17887e+06
2.09629e+06
2.01467e+06
1.59182e+07
1.59164e+07
1.59131e+07
1.59082e+07
1.59017e+07
1.58935e+07
1.58836e+07
1.58721e+07
1.58589e+07
1.5844e+07
1.58274e+07
1.58091e+07
1.57891e+07
1.57675e+07
1.57442e+07
1.57193e+07
1.56927e+07
1.56646e+07
1.56348e+07
1.56035e+07
1.55707e+07
1.55364e+07
1.55005e+07
1.54632e+07
1.54245e+07
1.53843e+07
1.53427e+07
1.52998e+07
1.52556e+07
1.521e+07
1.51631e+07
1.51149e+07
1.50655e+07
1.50149e+07
1.49631e+07
1.491e+07
1.48559e+07
1.48006e+07
1.47441e+07
1.46866e+07
1.46279e+07
1.45681e+07
1.45072e+07
1.44451e+07
1.4382e+07
1.43179e+07
1.42527e+07
1.41865e+07
1.41194e+07
1.40513e+07
1.39824e+07
1.39127e+07
1.38421e+07
1.37707e+07
1.36986e+07
1.36257e+07
1.3552e+07
1.34776e+07
1.34024e+07
1.33265e+07
1.32499e+07
1.31726e+07
1.30946e+07
1.30159e+07
1.29366e+07
1.28566e+07
1.27759e+07
1.26947e+07
1.26128e+07
1.25303e+07
1.24472e+07
1.23635e+07
1.22792e+07
1.21944e+07
1.2109e+07
1.20231e+07
1.19367e+07
1.18497e+07
1.17622e+07
1.16742e+07
1.15857e+07
1.14967e+07
1.14072e+07
1.13173e+07
1.12269e+07
1.1136e+07
1.10447e+07
1.0953e+07
1.08609e+07
1.07683e+07
1.06753e+07
1.0582e+07
1.04882e+07
1.0394e+07
1.02995e+07
1.02046e+07
1.01094e+07
1.00138e+07
9.91785e+06
9.82158e+06
9.72499e+06
9.62808e+06
9.53086e+06
9.43334e+06
9.33554e+06
9.23744e+06
9.13908e+06
9.04045e+06
8.94156e+06
8.84243e+06
8.74306e+06
8.64345e+06
8.54363e+06
8.44359e+06
8.34335e+06
8.24292e+06
8.14231e+06
8.04152e+06
7.94056e+06
7.83945e+06
7.7382e+06
7.63681e+06
7.5353e+06
7.43368e+06
7.33195e+06
7.23013e+06
7.12823e+06
7.02626e+06
6.92423e+06
6.82216e+06
6.72006e+06
6.61793e+06
6.5158e+06
6.41367e+06
6.31156e+06
6.20948e+06
6.10744e+06
6.00547e+06
5.90356e+06
5.80175e+06
5.70003e+06
5.59843e+06
5.49697e+06
5.39565e+06
5.2945e+06
5.19353e+06
5.09275e+06
4.99219e+06
4.89186e+06
4.79178e+06
4.69197e+06
4.59244e+06
4.49322e+06
4.39432e+06
4.29577e+06
4.19758e+06
4.09977e+06
4.00238e+06
3.90541e+06
3.80889e+06
3.71284e+06
3.61729e+06
3.52226e+06
3.42778e+06
3.33386e+06
3.24054e+06
3.14785e+06
3.0558e+06
2.96444e+06
2.87379e+06
2.78388e+06
2.69475e+06
2.60642e+06
2.51895e+06
2.43235e+06
2.34668e+06
2.26196e+06
2.17821e+06
2.09542e+06
2.01353e+06
1.59739e+07
1.5972e+07
1.59684e+07
1.59632e+07
1.59562e+07
1.59475e+07
1.5937e+07
1.59248e+07
1.59108e+07
1.58951e+07
1.58776e+07
1.58583e+07
1.58373e+07
1.58146e+07
1.57902e+07
1.57641e+07
1.57364e+07
1.5707e+07
1.56761e+07
1.56435e+07
1.56094e+07
1.55739e+07
1.55368e+07
1.54982e+07
1.54583e+07
1.54169e+07
1.53742e+07
1.53301e+07
1.52847e+07
1.5238e+07
1.519e+07
1.51408e+07
1.50904e+07
1.50388e+07
1.4986e+07
1.4932e+07
1.4877e+07
1.48209e+07
1.47636e+07
1.47052e+07
1.46458e+07
1.45852e+07
1.45236e+07
1.44608e+07
1.43969e+07
1.4332e+07
1.42661e+07
1.41991e+07
1.41313e+07
1.40626e+07
1.3993e+07
1.39227e+07
1.38516e+07
1.37797e+07
1.3707e+07
1.36337e+07
1.35595e+07
1.34847e+07
1.34092e+07
1.33329e+07
1.32559e+07
1.31783e+07
1.31e+07
1.3021e+07
1.29413e+07
1.28611e+07
1.27802e+07
1.26986e+07
1.26165e+07
1.25338e+07
1.24505e+07
1.23666e+07
1.22822e+07
1.21972e+07
1.21116e+07
1.20255e+07
1.19389e+07
1.18518e+07
1.17642e+07
1.1676e+07
1.15874e+07
1.14983e+07
1.14087e+07
1.13187e+07
1.12282e+07
1.11373e+07
1.10459e+07
1.09541e+07
1.08619e+07
1.07692e+07
1.06762e+07
1.05828e+07
1.04889e+07
1.03947e+07
1.03002e+07
1.02052e+07
1.01099e+07
1.00143e+07
9.91833e+06
9.82202e+06
9.7254e+06
9.62846e+06
9.53121e+06
9.43367e+06
9.33583e+06
9.23772e+06
9.13933e+06
9.04068e+06
8.94178e+06
8.84262e+06
8.74324e+06
8.64362e+06
8.54378e+06
8.44373e+06
8.34348e+06
8.24304e+06
8.14241e+06
8.04161e+06
7.94065e+06
7.83953e+06
7.73827e+06
7.63688e+06
7.53536e+06
7.43373e+06
7.332e+06
7.23017e+06
7.12827e+06
7.0263e+06
6.92427e+06
6.82219e+06
6.72008e+06
6.61796e+06
6.51582e+06
6.41369e+06
6.31158e+06
6.20949e+06
6.10746e+06
6.00548e+06
5.90357e+06
5.80176e+06
5.70004e+06
5.59844e+06
5.49698e+06
5.39566e+06
5.29451e+06
5.19353e+06
5.09276e+06
4.9922e+06
4.89187e+06
4.79179e+06
4.69197e+06
4.59244e+06
4.49322e+06
4.39432e+06
4.29577e+06
4.19758e+06
4.09977e+06
4.00237e+06
3.9054e+06
3.80888e+06
3.71283e+06
3.61728e+06
3.52225e+06
3.42776e+06
3.33384e+06
3.24051e+06
3.14781e+06
3.05575e+06
2.96437e+06
2.8737e+06
2.78377e+06
2.6946e+06
2.60624e+06
2.51871e+06
2.43205e+06
2.34629e+06
2.26146e+06
2.17755e+06
2.09457e+06
2.01244e+06
1.60372e+07
1.60351e+07
1.60313e+07
1.60256e+07
1.60181e+07
1.60088e+07
1.59976e+07
1.59845e+07
1.59696e+07
1.59528e+07
1.59342e+07
1.59138e+07
1.58915e+07
1.58676e+07
1.58418e+07
1.58144e+07
1.57852e+07
1.57545e+07
1.57221e+07
1.56881e+07
1.56526e+07
1.56156e+07
1.55771e+07
1.55372e+07
1.54958e+07
1.54531e+07
1.54091e+07
1.53637e+07
1.5317e+07
1.5269e+07
1.52198e+07
1.51694e+07
1.51178e+07
1.50651e+07
1.50113e+07
1.49563e+07
1.49003e+07
1.48432e+07
1.4785e+07
1.47258e+07
1.46654e+07
1.4604e+07
1.45415e+07
1.44778e+07
1.44131e+07
1.43474e+07
1.42806e+07
1.42129e+07
1.41443e+07
1.40749e+07
1.40046e+07
1.39336e+07
1.38619e+07
1.37894e+07
1.37162e+07
1.36424e+07
1.35678e+07
1.34925e+07
1.34165e+07
1.33398e+07
1.32625e+07
1.31845e+07
1.31058e+07
1.30265e+07
1.29466e+07
1.2866e+07
1.27848e+07
1.2703e+07
1.26206e+07
1.25377e+07
1.24541e+07
1.237e+07
1.22854e+07
1.22002e+07
1.21144e+07
1.20282e+07
1.19414e+07
1.18541e+07
1.17663e+07
1.16781e+07
1.15893e+07
1.15001e+07
1.14104e+07
1.13203e+07
1.12297e+07
1.11386e+07
1.10472e+07
1.09553e+07
1.0863e+07
1.07703e+07
1.06772e+07
1.05837e+07
1.04898e+07
1.03955e+07
1.03009e+07
1.02059e+07
1.01106e+07
1.00149e+07
9.91886e+06
9.82251e+06
9.72585e+06
9.62887e+06
9.53159e+06
9.43402e+06
9.33616e+06
9.23802e+06