/*--------------------------------*- C++ -*----------------------------------*\
| =========                 |                                                 |
| \\      /  F ield         | OpenFOAM: The Open Source CFD Toolbox           |
|  \\    /   O peration     | Version:  2112                                  |
|   \\  /    A nd           | Website:  www.openfoam.com                      |
|    \\/     M anipulation  |                                                 |
\*---------------------------------------------------------------------------*/
FoamFile
{
    version     2.0;
    format      ascii;
    arch        "LSB;label=32;scalar=64";
    class       volScalarField;
    location    "0.06";
    object      s;
}
// * * * * * * * * * * * * * * * * * * * * * * * * * * * * * * * * * * * * * //

dimensions      [0 0 0 0 0 0 0];

internalField   nonuniform List<scalar> 
12225
(
1
1
1
1
1
1
1
1
1
1
1
1
1
1
1
1
1
1
1
1
1
1
1
1
1
1
1
1
1
1
1
1
1
1
1
1
1
1
1
1
1
1
1
1
1
1
1
1
1
1
1
1
1
1
1
1
1
1
1
1
1
1
1
1
1
1
1
1
1
1
1
1
1
1
1
1
1
1
1
1
1
1
1
1
1
1
1
1
1
1
1
1
1
1
1
1
1
1
1
1
1
1
1
1
1
1
1
1
1
1
1
1
1
1
1
1
1
1
1
1
1
1
1
1
1
1
1
1
1
1
1
1
1
1
1
1
1
1
1
1
1
1
1
1
1
1
1
1
1
1
1
1
1
1
1
1
1
1
1
1
1
1
1
1
1
1
1
1
1
1
1
1
1
1
1
1
1
1
1
1
1
1
1
1
1
1
1
1
1
1
1
1
1
1
1
1
1
1
1
1
1
1
1
1
1
1
1
1
1
1
1
1
1
1
1
1
1
1
1
1
1
1
1
1
1
1
1
1
1
1
1
1
1
1
1
1
1
1
1
1
1
1
1
1
1
1
1
1
1
1
1
1
1
1
1
1
1
1
1
1
1
1
1
1
1
1
1
1
1
1
1
1
1
1
1
1
1
1
1
1
1
1
1
1
1
1
1
1
1
1
1
1
1
1
1
1
1
1
1
1
1
1
1
1
1
1
1
1
1
1
1
1
1
1
1
1
1
1
1
1
1
1
1
1
1
1
1
1
1
1
1
1
1
1
1
1
1
1
1
1
1
1
1
1
1
1
1
1
1
1
1
1
1
1
1
1
1
1
1
1
1
1
1
1
1
1
1
1
1
1
1
1
1
1
1
1
1
1
1
1
1
1
1
1
1
1
1
1
1
1
1
1
1
1
1
1
1
1
1
1
1
1
1
1
1
1
1
1
1
1
1
1
1
1
1
1
1
1
1
1
1
1
1
1
1
1
1
1
1
1
1
1
1
1
1
1
1
1
1
1
1
1
1
1
1
1
1
1
1
1
1
1
1
1
1
1
1
1
1
1
1
1
1
1
1
1
1
1
1
1
1
1
1
1
1
1
1
1
1
1
1
1
1
1
1
1
1
1
1
1
1
1
1
1
1
1
1
1
1
1
1
1
1
1
1
1
1
1
1
1
1
1
1
1
1
1
1
1
1
1
1
1
1
1
1
1
1
1
1
1
1
1
1
1
1
1
1
1
1
1
0.616033
0.591985
0.605581
0.617492
0.621747
0.626296
0.633381
0.636831
0.641929
0.649088
0.654105
0.65813
0.658975
0.658488
0.657076
0.653504
0.650296
0.647374
0.64202
0.638428
0.631165
0.624919
0.615702
0.594918
0.577386
0.573282
0.577478
0.601997
0.66339
0.700275
0.702004
0.695636
0.702427
0.712248
0.716051
0.741081
0.86887
0.944657
0.954659
0.958277
0.960701
0.962496
0.963872
0.965057
0.966069
0.96698
0.967843
0.96861
0.969343
0.97
0.970648
0.971309
0.971882
0.97242
0.973035
0.973622
0.974141
0.974565
0.975034
0.975381
0.975661
0.975923
0.976152
0.976351
0.976461
0.976637
0.976724
0.97682
0.976946
0.977029
0.977086
0.977097
0.977039
0.976902
0.976666
0.97633
0.975833
0.975091
0.974155
0.972948
0.971413
0.969572
0.967406
0.964858
0.961952
0.958689
0.955065
0.9511
0.946826
0.942263
0.937426
0.932346
0.927013
0.921352
0.915445
0.909618
0.904328
0.900525
0.898765
0.898178
0.8972
0.893807
0.890471
0.888176
0.88293
0.864766
0.785039
0.687097
0.649349
0.640678
0.639587
0.639218
0.638941
0.64201
0.658314
0.719683
0.780679
0.791644
0.77513
0.759388
0.765508
0.773668
0.780665
0.786319
0.790548
0.794725
0.798936
0.802968
0.807052
0.811331
0.814335
0.815749
0.816216
0.814558
0.811307
0.806216
0.799846
0.7928
0.786652
0.781763
0.777857
0.775339
0.774063
0.773594
0.773494
0.773542
0.773789
0.774375
0.775433
0.776977
0.779009
0.781617
0.785173
0.789973
0.796622
0.806642
0.820893
0.838864
0.858495
0.873673
0.879987
0.880985
0.879223
0.870222
0.863712
0.863032
0.869507
0.885624
0.874804
0.738377
0.372467
0.195698
0.147372
0.131934
0.117737
0.103457
0.0893679
0.0727674
0.0611046
0.0706455
0.627638
0.620612
0.6336
0.642293
0.651159
0.665817
0.676903
0.693829
0.708798
0.716544
0.719928
0.72002
0.719643
0.71818
0.716886
0.714861
0.710562
0.706028
0.696461
0.686666
0.675433
0.661066
0.648347
0.629824
0.604008
0.586536
0.575479
0.569393
0.569594
0.577013
0.591022
0.60737
0.6647
0.799001
0.88004
0.914885
0.947145
0.961696
0.96732
0.973048
0.9772
0.980446
0.983436
0.985562
0.987487
0.989089
0.990451
0.991736
0.992674
0.99354
0.994136
0.994715
0.995101
0.995351
0.995526
0.99561
0.995651
0.995724
0.995831
0.995995
0.996143
0.996353
0.996541
0.996778
0.996993
0.997213
0.997401
0.997576
0.997793
0.997968
0.998163
0.99828
0.998516
0.998699
0.998808
0.999006
0.999168
0.999286
0.999444
0.999537
0.999632
0.9997
0.999751
0.999788
0.999815
0.999835
0.999848
0.999848
0.999837
0.999814
0.999779
0.999732
0.999672
0.999592
0.99948
0.99933
0.999117
0.998827
0.998542
0.998345
0.99829
0.997886
0.997566
0.997234
0.994409
0.982121
0.946457
0.862965
0.780503
0.712591
0.656711
0.624534
0.619725
0.62551
0.639764
0.676902
0.747981
0.773837
0.764643
0.763548
0.785614
0.813437
0.836133
0.853667
0.866638
0.880665
0.890654
0.903112
0.911165
0.91897
0.925114
0.932559
0.936739
0.9406
0.942192
0.941912
0.937935
0.929767
0.916906
0.899541
0.879572
0.859615
0.84185
0.82739
0.815599
0.805276
0.795507
0.786255
0.778182
0.771706
0.766579
0.76188
0.756032
0.746958
0.733896
0.716958
0.699886
0.688909
0.685224
0.687338
0.706948
0.770244
0.831885
0.874714
0.899127
0.907713
0.909475
0.908912
0.900864
0.856383
0.621629
0.334304
0.276583
0.332833
0.453046
0.524393
0.564701
0.580329
0.596715
0.536999
0.634723
0.638792
0.642525
0.649719
0.664923
0.694838
0.719748
0.736717
0.735764
0.733244
0.727785
0.72271
0.717859
0.712453
0.711431
0.710426
0.70813
0.705213
0.698446
0.690945
0.682682
0.67396
0.665379
0.651553
0.63486
0.614489
0.590355
0.574126
0.570606
0.577665
0.639858
0.804624
0.879421
0.931798
0.952549
0.967464
0.975378
0.979839
0.982419
0.98419
0.98552
0.986199
0.986711
0.98693
0.987018
0.986887
0.986112
0.985303
0.984071
0.982927
0.981669
0.980709
0.979925
0.979397
0.979156
0.979081
0.979361
0.979772
0.98049
0.981219
0.98227
0.983339
0.984505
0.985672
0.986637
0.9877
0.988514
0.989616
0.990552
0.991436
0.992326
0.992932
0.993933
0.994756
0.99537
0.996188
0.996866
0.99754
0.998103
0.998563
0.99896
0.999248
0.999468
0.999626
0.999737
0.999814
0.999866
0.999903
0.99993
0.999948
0.999962
0.999971
0.999978
0.999983
0.999986
0.999989
0.99999
0.99999
0.999987
0.999982
0.999973
0.999955
0.999913
0.999803
0.999424
0.997797
0.990783
0.96414
0.93774
0.905604
0.820554
0.708067
0.676346
0.68088
0.699323
0.743326
0.768209
0.768197
0.762842
0.790794
0.834803
0.853668
0.866932
0.878216
0.88767
0.897181
0.905154
0.914535
0.923382
0.930987
0.937135
0.947824
0.953235
0.961319
0.967463
0.973024
0.97725
0.979814
0.980903
0.980651
0.979211
0.97723
0.975142
0.973296
0.971613
0.969879
0.967627
0.964801
0.961788
0.957534
0.950858
0.943468
0.936377
0.928884
0.920784
0.908639
0.884559
0.84525
0.787043
0.710768
0.649694
0.628461
0.629199
0.641707
0.689272
0.805102
0.872887
0.904713
0.916756
0.9129
0.859952
0.648183
0.559979
0.593184
0.736147
0.833279
0.876475
0.90154
0.920398
0.933942
0.638434
0.639125
0.646596
0.670118
0.721789
0.75865
0.758475
0.751879
0.735055
0.710125
0.675657
0.652321
0.636527
0.628511
0.629806
0.634531
0.645062
0.654889
0.664915
0.671392
0.671214
0.668797
0.663221
0.650996
0.635421
0.613219
0.58585
0.57451
0.588932
0.736458
0.869013
0.926944
0.953036
0.96878
0.975721
0.980034
0.981957
0.982882
0.983312
0.98347
0.982903
0.980978
0.978168
0.973878
0.970392
0.966594
0.963682
0.961253
0.959315
0.958081
0.956965
0.956422
0.955864
0.955601
0.955472
0.955437
0.955549
0.955704
0.956074
0.956525
0.957216
0.958138
0.959337
0.960949
0.962865
0.965084
0.967705
0.970211
0.973063
0.975788
0.978359
0.980973
0.983146
0.985328
0.987577
0.989736
0.991705
0.993579
0.995132
0.996481
0.997449
0.998223
0.998756
0.99913
0.999392
0.999575
0.999701
0.999789
0.999852
0.999895
0.999925
0.999947
0.999963
0.999974
0.999983
0.999988
0.999992
0.999993
0.999994
0.999994
0.999993
0.99999
0.999982
0.999956
0.999866
0.999508
0.997897
0.989734
0.975292
0.965248
0.945418
0.884473
0.803375
0.770549
0.759565
0.761205
0.767401
0.764256
0.772064
0.826522
0.848145
0.855852
0.863646
0.869391
0.874392
0.881806
0.889202
0.896823
0.91072
0.921083
0.928652
0.943514
0.950152
0.96052
0.967672
0.974366
0.979859
0.984294
0.987562
0.989448
0.99019
0.990325
0.990354
0.990408
0.99041
0.990183
0.989396
0.987495
0.98533
0.981165
0.972337
0.961945
0.953046
0.946869
0.943275
0.941928
0.941945
0.941748
0.940097
0.933126
0.90751
0.819834
0.712192
0.647497
0.630254
0.636912
0.683523
0.819723
0.892201
0.915164
0.910707
0.841155
0.746527
0.748959
0.824239
0.905375
0.930713
0.933339
0.927582
0.925511
0.63154
0.638136
0.668677
0.746738
0.781476
0.778882
0.762546
0.713415
0.6369
0.579805
0.556939
0.549005
0.548316
0.549121
0.55108
0.555419
0.565195
0.581434
0.595301
0.616048
0.63158
0.643566
0.647423
0.644055
0.630267
0.597065
0.580203
0.603811
0.774435
0.900987
0.945677
0.965129
0.97426
0.978603
0.98039
0.981148
0.98138
0.980727
0.978347
0.973737
0.968469
0.963483
0.960219
0.957823
0.956189
0.954871
0.954064
0.95351
0.953034
0.952794
0.952541
0.952419
0.952285
0.95222
0.952155
0.95208
0.951891
0.95159
0.951318
0.950964
0.950684
0.950473
0.950193
0.950054
0.949987
0.949978
0.950249
0.950965
0.952046
0.953614
0.955911
0.958954
0.962929
0.967282
0.972058
0.977243
0.981676
0.986086
0.989783
0.99279
0.995088
0.996767
0.99786
0.998595
0.999069
0.999378
0.99958
0.999714
0.999801
0.999863
0.999906
0.999936
0.999955
0.999969
0.999978
0.999985
0.99999
0.999993
0.999995
0.999995
0.999995
0.999995
0.999992
0.999983
0.99995
0.999837
0.999402
0.997549
0.989466
0.976438
0.966821
0.948085
0.899397
0.828376
0.786278
0.772775
0.764362
0.763871
0.800641
0.838154
0.847131
0.84714
0.840139
0.833744
0.832264
0.845471
0.85244
0.86724
0.875615
0.895095
0.903999
0.922513
0.935238
0.948771
0.960478
0.970178
0.978172
0.984103
0.98823
0.990937
0.992467
0.993006
0.993059
0.993012
0.992768
0.992026
0.99042
0.987251
0.980504
0.967494
0.943785
0.917973
0.900221
0.891802
0.890816
0.891372
0.89364
0.900617
0.917168
0.935253
0.945447
0.945578
0.935351
0.894027
0.765246
0.675147
0.661706
0.677784
0.776972
0.883747
0.911561
0.903916
0.853783
0.841989
0.872375
0.925966
0.937072
0.9289
0.899404
0.890101
0.631735
0.650528
0.728201
0.791837
0.797166
0.780565
0.702474
0.584423
0.541219
0.529947
0.531181
0.535051
0.539498
0.542074
0.543511
0.54643
0.551482
0.559494
0.569262
0.584883
0.608464
0.63193
0.637341
0.629475
0.601866
0.588033
0.619182
0.790389
0.911956
0.954095
0.969726
0.976184
0.978761
0.979647
0.979895
0.979117
0.976189
0.969932
0.964959
0.960502
0.95823
0.956496
0.955679
0.955203
0.954971
0.954859
0.954825
0.955172
0.955414
0.955711
0.955961
0.956154
0.956261
0.956314
0.956327
0.956304
0.956303
0.956296
0.956242
0.956018
0.955534
0.954789
0.95391
0.952629
0.951242
0.949914
0.948846
0.948297
0.947908
0.947778
0.94796
0.94846
0.949559
0.951303
0.954031
0.958029
0.964544
0.972383
0.980172
0.986314
0.99106
0.994293
0.996484
0.997826
0.998649
0.999148
0.999456
0.999647
0.999771
0.999849
0.999899
0.999932
0.999954
0.999968
0.999978
0.999985
0.99999
0.999993
0.999996
0.999997
0.999997
0.999997
0.999996
0.999992
0.999978
0.99993
0.999768
0.999154
0.996796
0.987148
0.972223
0.959086
0.931048
0.858631
0.803969
0.774892
0.760488
0.766341
0.81733
0.838541
0.83838
0.808701
0.782547
0.777029
0.785307
0.802076
0.809152
0.823696
0.831452
0.846035
0.860425
0.880128
0.900644
0.918667
0.938606
0.954431
0.968573
0.979236
0.986441
0.990624
0.992702
0.993566
0.993747
0.993641
0.993096
0.991508
0.987022
0.975357
0.948578
0.909323
0.88191
0.868625
0.867139
0.86899
0.872134
0.873403
0.873786
0.873877
0.874611
0.879471
0.901568
0.934063
0.947991
0.947837
0.93485
0.871954
0.731878
0.692057
0.701296
0.782351
0.885875
0.908907
0.901869
0.892719
0.903849
0.934687
0.93686
0.909018
0.87222
0.87029
0.631785
0.662437
0.762237
0.809022
0.803246
0.749191
0.60814
0.541165
0.524818
0.525702
0.534491
0.547314
0.551767
0.551303
0.549757
0.549876
0.552921
0.560094
0.570439
0.587992
0.609075
0.617828
0.612045
0.602244
0.599129
0.632226
0.801315
0.916557
0.957238
0.971411
0.976447
0.978141
0.97859
0.978465
0.976068
0.970179
0.96425
0.960475
0.957985
0.956583
0.955929
0.955613
0.955493
0.955455
0.955543
0.955636
0.955772
0.955833
0.955901
0.95593
0.955939
0.955926
0.955889
0.955878
0.955878
0.956083
0.956321
0.956578
0.95703
0.957403
0.957704
0.957986
0.958206
0.958275
0.958194
0.957504
0.956247
0.953903
0.951444
0.949157
0.947924
0.947479
0.947412
0.947839
0.948761
0.950313
0.952822
0.957079
0.965266
0.976736
0.98472
0.99066
0.994473
0.99679
0.998153
0.998922
0.999358
0.999608
0.999757
0.999845
0.999898
0.999932
0.999954
0.999969
0.999979
0.999986
0.99999
0.999994
0.999996
0.999998
0.999998
0.999998
0.999998
0.999996
0.99999
0.999967
0.999887
0.9996
0.998507
0.994068
0.979567
0.965422
0.939254
0.870561
0.815315
0.773723
0.758258
0.775365
0.82292
0.83645
0.806513
0.746478
0.724514
0.719822
0.72691
0.735139
0.747353
0.760995
0.770279
0.779379
0.793985
0.814868
0.840706
0.868484
0.896779
0.922414
0.946133
0.965331
0.979188
0.987627
0.991861
0.993532
0.993975
0.993911
0.993117
0.989738
0.97822
0.941672
0.898983
0.872774
0.862431
0.861303
0.864834
0.879312
0.891423
0.893856
0.892753
0.888204
0.877779
0.871524
0.870487
0.874569
0.9017
0.936124
0.945678
0.941029
0.904607
0.772639
0.718043
0.726915
0.808741
0.891404
0.909576
0.913868
0.921473
0.938751
0.938195
0.90558
0.86015
0.85715
0.631808
0.672728
0.783728
0.82003
0.805792
0.723621
0.582912
0.53265
0.523254
0.528922
0.54453
0.557972
0.562906
0.56406
0.562711
0.561895
0.564345
0.571272
0.582119
0.594209
0.602001
0.602318
0.603332
0.60888
0.649257
0.810482
0.91876
0.958169
0.971672
0.976079
0.977364
0.977688
0.976752
0.973298
0.965774
0.961226
0.958462
0.956931
0.956148
0.955776
0.955601
0.955475
0.955402
0.955322
0.955179
0.954809
0.954232
0.953357
0.95225
0.95136
0.9504
0.949816
0.949528
0.949439
0.949721
0.950063
0.950732
0.951325
0.95211
0.953208
0.954328
0.955468
0.957146
0.958307
0.958935
0.95928
0.959382
0.959304
0.958639
0.957135
0.954048
0.9507
0.948502
0.947768
0.947982
0.948774
0.949981
0.951967
0.955757
0.963898
0.97697
0.985909
0.991804
0.995376
0.997466
0.998638
0.999258
0.99958
0.999752
0.999849
0.999907
0.999941
0.999962
0.999976
0.999984
0.999989
0.999993
0.999995
0.999997
0.999998
0.999999
0.999999
0.999999
0.999998
0.999996
0.999986
0.999947
0.999797
0.999207
0.99684
0.988503
0.974654
0.945337
0.877053
0.823315
0.772526
0.756718
0.776029
0.822871
0.830098
0.757494
0.69811
0.680952
0.676921
0.680289
0.681211
0.685355
0.687082
0.691474
0.70191
0.717887
0.738798
0.762868
0.800131
0.836431
0.873731
0.90889
0.939735
0.963648
0.979663
0.988604
0.992655
0.993942
0.994001
0.993225
0.989117
0.971542
0.923508
0.885156
0.8663
0.861658
0.864475
0.884491
0.920399
0.942708
0.952864
0.954048
0.948754
0.927345
0.898085
0.879124
0.87023
0.869038
0.87647
0.912486
0.934629
0.933395
0.904625
0.784847
0.738583
0.751343
0.837419
0.898999
0.913792
0.924872
0.939202
0.939243
0.910179
0.858467
0.849008
0.63225
0.68308
0.80242
0.831162
0.809213
0.716436
0.57929
0.532933
0.525686
0.531129
0.547018
0.561558
0.567104
0.568955
0.570343
0.572104
0.575196
0.58054
0.587287
0.594424
0.598947
0.604262
0.619616
0.672743
0.825213
0.920577
0.95816
0.971297
0.975437
0.976536
0.97679
0.975329
0.970405
0.963648
0.95979
0.957779
0.95665
0.956096
0.955748
0.955486
0.955287
0.955024
0.954558
0.953632
0.951941
0.950426
0.948759
0.94742
0.946514
0.945657
0.94517
0.944823
0.944701
0.944699
0.945071
0.945602
0.946195
0.947159
0.947891
0.948751
0.949577
0.95042
0.951599
0.953226
0.955627
0.957976
0.959236
0.959711
0.959821
0.959695
0.95909
0.957635
0.954121
0.950456
0.948932
0.948775
0.949531
0.950767
0.952933
0.957981
0.96975
0.981592
0.989591
0.994347
0.996984
0.99841
0.99917
0.999564
0.999764
0.999869
0.999926
0.999957
0.999974
0.999983
0.999989
0.999993
0.999995
0.999997
0.999998
0.999999
0.999999
0.999999
0.999999
0.999999
0.999998
0.999994
0.999974
0.999892
0.999543
0.998176
0.99398
0.983243
0.953508
0.886158
0.830771
0.773934
0.755608
0.774277
0.821146
0.813375
0.724485
0.667414
0.651622
0.64883
0.651206
0.648781
0.644288
0.636893
0.634162
0.641479
0.663343
0.685033
0.707657
0.730966
0.765608
0.8126
0.857492
0.901487
0.938041
0.964728
0.981296
0.989878
0.993312
0.993954
0.993378
0.989202
0.970163
0.920144
0.883142
0.870423
0.870339
0.877077
0.902488
0.934753
0.958279
0.973112
0.98006
0.981113
0.978454
0.964934
0.933872
0.905094
0.883058
0.872651
0.873239
0.890982
0.920323
0.919501
0.888593
0.779519
0.754588
0.774847
0.863841
0.906184
0.922945
0.93832
0.940254
0.920496
0.86306
0.846396
0.633612
0.692919
0.811891
0.839015
0.81825
0.726521
0.598769
0.549266
0.533978
0.533054
0.547561
0.562918
0.569049
0.570938
0.572989
0.57607
0.579367
0.584518
0.590881
0.59803
0.608837
0.635267
0.709031
0.846835
0.924099
0.958084
0.97075
0.974755
0.97577
0.975989
0.974432
0.968884
0.962572
0.959322
0.957347
0.956414
0.955861
0.955463
0.955121
0.954725
0.954039
0.952974
0.951431
0.949695
0.94839
0.946855
0.94521
0.943587
0.942297
0.940982
0.940121
0.939624
0.939448
0.939689
0.940389
0.941592
0.942734
0.944238
0.945829
0.947025
0.948002
0.948877
0.949679
0.950363
0.95125
0.952875
0.956198
0.958652
0.959564
0.959825
0.959716
0.959322
0.95823
0.955303
0.952119
0.950652
0.950257
0.950714
0.952314
0.955957
0.966423
0.979522
0.988591
0.993955
0.996832
0.998343
0.999141
0.999565
0.999782
0.999886
0.999938
0.999965
0.99998
0.999988
0.999993
0.999995
0.999997
0.999998
0.999999
0.999999
0.999999
1
1
1
0.999999
0.999997
0.999985
0.999933
0.9997
0.998795
0.995937
0.987888
0.961599
0.898795
0.840713
0.777353
0.75539
0.769863
0.816106
0.798753
0.696539
0.643266
0.630488
0.630721
0.632569
0.627915
0.618805
0.608243
0.605047
0.613002
0.636369
0.659676
0.682792
0.699266
0.715959
0.749757
0.798268
0.852106
0.901945
0.941543
0.968474
0.98403
0.991389
0.993627
0.99347
0.989947
0.971337
0.921022
0.891659
0.884112
0.884481
0.889342
0.90819
0.939028
0.962649
0.978032
0.986348
0.98971
0.990194
0.989282
0.984825
0.973578
0.956433
0.925243
0.892688
0.884299
0.889541
0.907868
0.904638
0.858443
0.772675
0.766442
0.8013
0.88307
0.915393
0.935399
0.940494
0.930391
0.875923
0.848052
0.63612
0.704853
0.82411
0.845884
0.826116
0.752707
0.632589
0.578114
0.556509
0.548621
0.558858
0.574221
0.579399
0.579518
0.580353
0.584458
0.588472
0.595134
0.605655
0.624811
0.666354
0.758311
0.86745
0.929762
0.958532
0.970248
0.974151
0.975128
0.975314
0.973865
0.968337
0.961935
0.958786
0.957073
0.956137
0.955696
0.955361
0.955009
0.954565
0.9538
0.952626
0.950997
0.948941
0.94703
0.944695
0.941443
0.938349
0.935274
0.932612
0.930488
0.929054
0.92838
0.928188
0.929087
0.930126
0.932154
0.934587
0.937189
0.940239
0.943506
0.945907
0.947903
0.948959
0.949682
0.950352
0.951059
0.952523
0.955574
0.95812
0.959255
0.959614
0.959481
0.958964
0.957166
0.954291
0.952505
0.952075
0.952059
0.952609
0.955542
0.965234
0.978808
0.988325
0.993923
0.996918
0.998443
0.99921
0.999598
0.999798
0.999899
0.999949
0.999973
0.999985
0.999992
0.999995
0.999997
0.999998
0.999999
0.999999
1
1
1
1
1
1
0.999998
0.999992
0.999959
0.999809
0.999217
0.99723
0.99103
0.967806
0.91084
0.853525
0.784108
0.75599
0.764813
0.80561
0.792849
0.697555
0.628565
0.612372
0.613054
0.620748
0.617047
0.605797
0.589193
0.582764
0.582167
0.604387
0.632116
0.659616
0.680547
0.693078
0.706286
0.744837
0.798892
0.858219
0.910745
0.949805
0.974473
0.987591
0.992795
0.993565
0.99155
0.977048
0.936024
0.908426
0.899257
0.898692
0.901165
0.913918
0.94396
0.966771
0.981076
0.988994
0.992624
0.993819
0.993952
0.993712
0.992603
0.989318
0.983472
0.969637
0.92546
0.902754
0.90255
0.902384
0.890616
0.822334
0.772333
0.776188
0.829044
0.895969
0.928275
0.939258
0.935823
0.895797
0.853309
0.639762
0.716262
0.830974
0.852987
0.835828
0.767493
0.674358
0.626836
0.603751
0.595407
0.606727
0.617837
0.614591
0.609921
0.60841
0.613549
0.621096
0.637302
0.671141
0.73359
0.818086
0.88737
0.9364
0.959734
0.969886
0.97359
0.974597
0.974783
0.973546
0.968519
0.961996
0.958752
0.957143
0.95627
0.955736
0.955425
0.955023
0.954441
0.95344
0.951677
0.949577
0.947396
0.944996
0.941741
0.937252
0.932835
0.928887
0.925438
0.922846
0.920968
0.919733
0.919139
0.918917
0.919706
0.921498
0.92381
0.926076
0.929413
0.932492
0.936328
0.940956
0.945002
0.94782
0.949297
0.9501
0.950654
0.951555
0.953596
0.956459
0.958342
0.959081
0.959246
0.959045
0.957844
0.955257
0.953353
0.952856
0.953037
0.953976
0.956907
0.966118
0.980114
0.989801
0.995178
0.997801
0.998989
0.99951
0.999749
0.999866
0.999929
0.999964
0.999982
0.999991
0.999995
0.999997
0.999998
0.999999
0.999999
1
1
1
1
1
1
1
0.999999
0.999996
0.999976
0.999879
0.999469
0.997954
0.992778
0.971373
0.919668
0.868045
0.794505
0.757537
0.760288
0.793814
0.78906
0.706103
0.629599
0.602558
0.599401
0.604325
0.609094
0.601796
0.57549
0.550863
0.535831
0.548847
0.579852
0.613962
0.645934
0.669871
0.684291
0.706399
0.751394
0.81268
0.8752
0.926406
0.961417
0.981693
0.991097
0.993605
0.993105
0.986408
0.955265
0.923729
0.911598
0.91009
0.912242
0.924788
0.953118
0.973126
0.984825
0.991065
0.994062
0.995218
0.995454
0.995411
0.99507
0.993469
0.988231
0.984721
0.978623
0.951767
0.91877
0.90921
0.900796
0.871241
0.790742
0.77108
0.785454
0.853134
0.912508
0.935308
0.936484
0.917122
0.864281
0.643755
0.727735
0.842241
0.861837
0.852897
0.80915
0.736698
0.701646
0.686708
0.685544
0.708516
0.714623
0.712741
0.709
0.703202
0.711327
0.729057
0.763941
0.813984
0.86342
0.910105
0.943892
0.961538
0.969773
0.973072
0.974101
0.974326
0.973376
0.969082
0.962497
0.95904
0.95726
0.956245
0.955676
0.955264
0.954836
0.954203
0.953121
0.951356
0.949326
0.946944
0.944145
0.940555
0.935528
0.929699
0.92514
0.920835
0.917675
0.914681
0.911783
0.909351
0.907635
0.906922
0.9079
0.910837
0.91493
0.920582
0.92501
0.928891
0.932367
0.936485
0.941148
0.945401
0.948417
0.949935
0.950587
0.951319
0.952886
0.955738
0.957916
0.958882
0.959027
0.958893
0.958002
0.955733
0.954327
0.953914
0.954126
0.955361
0.959633
0.972173
0.98519
0.992957
0.996821
0.998574
0.999344
0.999692
0.999854
0.99993
0.999965
0.999981
0.999989
0.999994
0.999997
0.999998
0.999999
1
1
1
1
1
1
1
1
1
1
0.999997
0.999985
0.99992
0.999624
0.998405
0.993801
0.973933
0.921199
0.878518
0.808592
0.760726
0.75763
0.781913
0.783886
0.724562
0.636264
0.603074
0.592493
0.593136
0.597736
0.595151
0.576758
0.524129
0.481865
0.477677
0.500067
0.533441
0.575695
0.621157
0.653521
0.67663
0.712157
0.769398
0.837586
0.899673
0.945454
0.973783
0.98826
0.993242
0.993488
0.990065
0.969087
0.935705
0.92124
0.919011
0.921175
0.934611
0.960573
0.977881
0.987701
0.992736
0.995076
0.995981
0.996156
0.996105
0.995577
0.993942
0.987264
0.98049
0.978857
0.975648
0.961617
0.928663
0.914837
0.894406
0.828442
0.776441
0.772822
0.796658
0.878429
0.925044
0.934889
0.92742
0.884614
0.648493
0.73675
0.849753
0.869957
0.863325
0.836021
0.809435
0.797457
0.795444
0.821068
0.831327
0.824655
0.815871
0.812
0.811777
0.825779
0.84385
0.872603
0.901002
0.930267
0.949453
0.96371
0.969899
0.972639
0.973622
0.973881
0.973225
0.969689
0.963323
0.95946
0.957531
0.956383
0.955781
0.955442
0.955045
0.954548
0.953701
0.952058
0.950026
0.947732
0.944973
0.941489
0.936771
0.930457
0.924498
0.919473
0.914522
0.910392
0.905975
0.901422
0.897757
0.895653
0.894733
0.895659
0.897968
0.902052
0.909005
0.918106
0.925401
0.930391
0.934621
0.939421
0.944157
0.947754
0.949809
0.950755
0.951328
0.952689
0.955489
0.957745
0.958812
0.958994
0.958813
0.957875
0.955948
0.955073
0.955119
0.955726
0.957984
0.964528
0.978554
0.988946
0.994995
0.997811
0.999028
0.999555
0.99979
0.9999
0.999954
0.999979
0.99999
0.999995
0.999998
0.999999
0.999999
1
1
1
1
1
1
1
1
1
1
1
0.999999
0.999992
0.999951
0.999744
0.998763
0.994523
0.975596
0.918763
0.885911
0.822876
0.766713
0.755291
0.770503
0.779028
0.75139
0.656678
0.608131
0.592722
0.589209
0.590526
0.589876
0.579252
0.529493
0.468894
0.451798
0.453894
0.466544
0.490958
0.539988
0.60124
0.641843
0.677253
0.729371
0.799514
0.870584
0.927052
0.964022
0.984164
0.992265
0.993511
0.991485
0.976618
0.944574
0.929406
0.926805
0.928783
0.941402
0.965053
0.980725
0.989633
0.994141
0.996191
0.996838
0.99687
0.996524
0.995479
0.992883
0.984436
0.970497
0.96704
0.967784
0.966735
0.959572
0.93679
0.916298
0.869991
0.791894
0.766504
0.772245
0.823095
0.903326
0.929546
0.928796
0.90473
0.653934
0.745871
0.854915
0.878842
0.880424
0.867259
0.861753
0.861927
0.875759
0.886294
0.885085
0.880399
0.87852
0.880256
0.88453
0.899887
0.912336
0.927614
0.944464
0.957495
0.964713
0.970213
0.972318
0.973183
0.973449
0.973048
0.970272
0.964781
0.960224
0.958008
0.956789
0.955978
0.955525
0.955261
0.954817
0.95402
0.9527
0.950769
0.948583
0.946125
0.943105
0.93893
0.933396
0.926203
0.919524
0.913858
0.908604
0.904321
0.900456
0.896837
0.89389
0.8922
0.892069
0.892803
0.894725
0.897726
0.903994
0.913911
0.923567
0.929575
0.934002
0.938822
0.943734
0.947568
0.949925
0.95108
0.9518
0.953141
0.955784
0.957881
0.958854
0.959022
0.95879
0.957623
0.956281
0.95613
0.956435
0.957831
0.962092
0.97345
0.986224
0.994285
0.997641
0.999004
0.999574
0.999815
0.999916
0.999961
0.99998
0.99999
0.999995
0.999998
0.999999
0.999999
1
1
1
1
1
1
1
1
1
1
1
1
0.999999
0.999996
0.999971
0.999824
0.999028
0.995045
0.976176
0.914196
0.88231
0.835891
0.775323
0.754077
0.759259
0.774061
0.764659
0.698718
0.623257
0.596607
0.589537
0.589228
0.588887
0.583026
0.544401
0.477148
0.450445
0.446144
0.449782
0.46182
0.487115
0.538924
0.597457
0.642422
0.692215
0.762098
0.840108
0.906828
0.952797
0.979121
0.9908
0.993438
0.992169
0.980891
0.951676
0.936899
0.934384
0.936474
0.949538
0.971308
0.985045
0.992472
0.996042
0.997311
0.997479
0.99727
0.99642
0.993816
0.98816
0.977296
0.961594
0.952333
0.952165
0.957634
0.958184
0.953956
0.940492
0.90892
0.823263
0.771013
0.762977
0.780172
0.855579
0.915047
0.926176
0.917191
0.660327
0.754405
0.856966
0.884243
0.888929
0.885915
0.885314
0.89197
0.911821
0.917361
0.916958
0.916172
0.917897
0.922977
0.928134
0.939255
0.946013
0.95305
0.962817
0.967382
0.970297
0.972151
0.972832
0.973063
0.972883
0.971086
0.966679
0.961734
0.95877
0.957273
0.956329
0.955726
0.955335
0.955017
0.95458
0.953715
0.952239
0.950268
0.948176
0.94613
0.943264
0.939208
0.933852
0.926752
0.919906
0.914072
0.908742
0.904386
0.900704
0.897554
0.894782
0.893309
0.8933
0.893691
0.894771
0.897238
0.902835
0.913009
0.923269
0.930424
0.935151
0.939902
0.944833
0.948662
0.95083
0.95169
0.952386
0.953961
0.956781
0.958677
0.959183
0.959124
0.958655
0.957398
0.95704
0.957215
0.958197
0.961312
0.969946
0.984206
0.993197
0.997109
0.998776
0.999479
0.99978
0.999909
0.999962
0.999983
0.999992
0.999996
0.999998
0.999999
1
1
1
1
1
1
1
1
1
1
1
1
1
1
1
0.999998
0.999984
0.999889
0.999308
0.996019
0.97882
0.911104
0.871005
0.845114
0.789156
0.755536
0.753633
0.764382
0.763511
0.73966
0.660919
0.610686
0.594135
0.590938
0.590272
0.586872
0.567104
0.501349
0.459338
0.44776
0.448068
0.455329
0.472979
0.510907
0.562353
0.607653
0.657776
0.725933
0.808817
0.885069
0.940336
0.973312
0.988961
0.993365
0.992793
0.984352
0.958191
0.943781
0.941448
0.943845
0.958007
0.977554
0.988845
0.994631
0.997046
0.997667
0.997626
0.997045
0.994722
0.987809
0.972704
0.963341
0.955109
0.9452
0.941613
0.942673
0.951095
0.95254
0.949288
0.933803
0.87498
0.787124
0.756156
0.757834
0.792182
0.885686
0.918752
0.917345
0.668232
0.76522
0.857342
0.88723
0.900041
0.904597
0.90507
0.912493
0.928909
0.934137
0.935574
0.936794
0.940358
0.944365
0.950538
0.957093
0.960001
0.964052
0.968858
0.970758
0.971986
0.972596
0.972784
0.972752
0.971557
0.968143
0.963776
0.959962
0.958012
0.956914
0.956153
0.955636
0.955302
0.954993
0.954599
0.953794
0.952377
0.950449
0.948385
0.946461
0.944076
0.940449
0.935698
0.929186
0.922323
0.916278
0.910871
0.906325
0.902678
0.900153
0.897575
0.896554
0.896715
0.897499
0.899436
0.90355
0.911254
0.922004
0.930788
0.935181
0.938543
0.943067
0.947466
0.950353
0.951698
0.952377
0.953296
0.955614
0.958067
0.959192
0.959342
0.959119
0.958189
0.957592
0.957666
0.958372
0.960887
0.967619
0.982605
0.992509
0.996885
0.998724
0.999482
0.999789
0.999913
0.999964
0.999984
0.999993
0.999997
0.999998
0.999999
1
1
1
1
1
1
1
1
1
1
1
1
1
1
1
1
0.999999
0.999992
0.999938
0.99956
0.997144
0.983394
0.917968
0.857463
0.839084
0.800809
0.759667
0.749577
0.754151
0.760808
0.754326
0.7201
0.646584
0.610392
0.599234
0.597126
0.595424
0.586324
0.544074
0.48427
0.458743
0.455192
0.45813
0.470586
0.503181
0.551499
0.590537
0.629121
0.69417
0.779207
0.863283
0.927287
0.966895
0.986706
0.993209
0.993339
0.987463
0.964412
0.949725
0.94725
0.949603
0.963161
0.980514
0.990506
0.995538
0.997464
0.997747
0.997473
0.995749
0.989804
0.974054
0.958796
0.951169
0.948197
0.942716
0.936895
0.936081
0.938631
0.948362
0.948961
0.943918
0.916519
0.823985
0.761608
0.749463
0.762351
0.835609
0.901462
0.913676
0.677474
0.782087
0.857676
0.885412
0.902589
0.914307
0.918722
0.924089
0.937008
0.943358
0.945493
0.947685
0.952295
0.95541
0.959782
0.964577
0.966135
0.968369
0.970841
0.971795
0.972367
0.972592
0.972655
0.972075
0.970127
0.966846
0.962875
0.959725
0.95799
0.956932
0.956184
0.955663
0.95533
0.955025
0.954678
0.954028
0.952775
0.950978
0.948951
0.947111
0.945643
0.943146
0.939792
0.934446
0.928076
0.92147
0.916004
0.911127
0.907457
0.905102
0.902835
0.902672
0.903228
0.904884
0.908623
0.914707
0.923095
0.930931
0.935142
0.937864
0.941948
0.946668
0.950263
0.95198
0.952677
0.953285
0.954608
0.957432
0.959262
0.959634
0.95947
0.958733
0.957957
0.95794
0.958422
0.960493
0.966433
0.980883
0.991742
0.99657
0.998601
0.999437
0.999775
0.99991
0.999963
0.999985
0.999993
0.999997
0.999999
0.999999
1
1
1
1
1
1
1
1
1
1
1
1
1
1
1
1
1
1
0.999997
0.999969
0.999756
0.998222
0.988518
0.934798
0.851437
0.826185
0.807754
0.76771
0.747721
0.747376
0.755057
0.75381
0.742097
0.699968
0.648856
0.62331
0.614521
0.611056
0.603187
0.578393
0.521106
0.48287
0.474129
0.476509
0.485703
0.50607
0.549777
0.587398
0.61561
0.668815
0.753616
0.84367
0.915125
0.960674
0.984289
0.992809
0.99355
0.98914
0.968743
0.953773
0.951165
0.953558
0.967031
0.983327
0.992331
0.996489
0.997734
0.997746
0.996862
0.992609
0.978272
0.961331
0.951814
0.947423
0.945875
0.943429
0.937008
0.933215
0.933437
0.939415