/*--------------------------------*- C++ -*----------------------------------*\
| =========                 |                                                 |
| \\      /  F ield         | OpenFOAM: The Open Source CFD Toolbox           |
|  \\    /   O peration     | Version:  2112                                  |
|   \\  /    A nd           | Website:  www.openfoam.com                      |
|    \\/     M anipulation  |                                                 |
\*---------------------------------------------------------------------------*/
FoamFile
{
    version     2.0;
    format      ascii;
    arch        "LSB;label=32;scalar=64";
    class       surfaceScalarField;
    location    "0.17";
    object      phi;
}
// * * * * * * * * * * * * * * * * * * * * * * * * * * * * * * * * * * * * * //

dimensions      [0 3 -1 0 0 0 0];

oriented        oriented;

internalField   nonuniform List<scalar> 
3067
(
5.07993e-05
7.40329e-10
5.07964e-05
2.88574e-09
5.07901e-05
6.22397e-09
5.07776e-05
1.25027e-08
5.07588e-05
1.8815e-08
5.07233e-05
3.55798e-08
5.06918e-05
3.14859e-08
9.40358e-08
5.05977e-05
2.03204e-05
3.03798e-10
2.03219e-05
1.43338e-09
2.03244e-05
3.70546e-09
2.03291e-05
7.80301e-09
2.03344e-05
1.35717e-08
2.03458e-05
2.41647e-08
2.03469e-05
3.03101e-08
6.89157e-08
2.03721e-05
2.03201e-05
1.61947e-10
2.03208e-05
7.6606e-10
2.03225e-05
2.05512e-09
2.03258e-05
4.47117e-09
2.03311e-05
8.2691e-09
2.03406e-05
1.46127e-08
2.03502e-05
2.08052e-08
4.93085e-08
2.03698e-05
2.03201e-05
5.90158e-11
2.03206e-05
2.78834e-10
2.03219e-05
7.50485e-10
2.03247e-05
1.63961e-09
2.033e-05
3.04153e-09
2.03391e-05
5.45201e-09
2.03519e-05
8.00956e-09
2.74194e-08
2.03738e-05
2.03201e-05
-3.55211e-11
2.03205e-05
-1.70244e-10
2.03218e-05
-4.73064e-10
2.03245e-05
-1.10145e-09
2.03298e-05
-2.29477e-09
2.03393e-05
-3.96463e-09
2.03536e-05
-6.35892e-09
3.64334e-09
2.03774e-05
2.03201e-05
-1.3559e-10
2.03206e-05
-6.45756e-10
2.03219e-05
-1.76966e-09
2.03248e-05
-4.00668e-09
2.03304e-05
-7.96073e-09
2.03403e-05
-1.38579e-08
2.03557e-05
-2.17531e-08
-2.15574e-08
2.03809e-05
2.54002e-05
-2.87721e-10
2.54009e-05
-1.36976e-09
2.54028e-05
-3.72504e-09
2.54071e-05
-8.2476e-09
2.5415e-05
-1.58471e-08
2.54282e-05
-2.70624e-08
2.54484e-05
-4.20117e-08
-5.44064e-08
2.54813e-05
2.54002e-05
-5.19241e-10
2.54014e-05
-2.53708e-09
2.54044e-05
-6.73116e-09
2.54102e-05
-1.40126e-08
2.54195e-05
-2.52201e-08
2.54338e-05
-4.1365e-08
2.54548e-05
-6.29526e-08
-8.7376e-08
2.54878e-05
2.54013e-05
-1.83037e-09
2.5405e-05
-6.20815e-09
2.54111e-05
-1.28379e-08
2.54197e-05
-2.25999e-08
2.54309e-05
-3.64574e-08
2.54454e-05
-5.58234e-08
2.54641e-05
-8.17209e-08
-1.11347e-07
2.54881e-05
2.53982e-05
2.5392e-05
2.53791e-05
2.53565e-05
2.53201e-05
2.52642e-05
2.51825e-05
2.50712e-05
-8.33617e-07
8.33617e-07
-2.26933e-06
1.43572e-06
-4.11873e-06
1.8494e-06
-6.09786e-06
1.97913e-06
-7.96255e-06
1.86468e-06
-9.60409e-06
1.64155e-06
-1.10068e-05
1.40271e-06
-1.21884e-05
1.18162e-06
-1.31745e-05
9.86036e-07
-1.39898e-05
8.15372e-07
-1.46575e-05
6.6767e-07
-1.51988e-05
5.41341e-07
-1.56341e-05
4.35212e-07
-1.60762e-05
4.42192e-07
-1.64187e-05
3.42411e-07
-1.6663e-05
2.44357e-07
-1.68098e-05
1.4683e-07
-1.68568e-05
4.69963e-08
-1.68138e-05
-4.30705e-08
-1.66911e-05
-1.22635e-07
-1.64892e-05
-2.01979e-07
-1.62098e-05
-2.79379e-07
-1.58567e-05
-3.53092e-07
-1.54342e-05
-4.22462e-07
-1.49469e-05
-4.87304e-07
-1.43997e-05
-5.47185e-07
-1.37984e-05
-6.01376e-07
-1.31489e-05
-6.49484e-07
-1.24571e-05
-6.91774e-07
-1.17291e-05
-7.28017e-07
-1.09712e-05
-7.5787e-07
-1.01896e-05
-7.81641e-07
-9.38968e-06
-7.99889e-07
-8.57644e-06
-8.1324e-07
-7.75429e-06
-8.22153e-07
-6.92732e-06
-8.26965e-07
-6.09896e-06
-8.28362e-07
-5.27179e-06
-8.2717e-07
-4.44768e-06
-8.24109e-07
-3.62772e-06
-8.1996e-07
-2.81235e-06
-8.15375e-07
-2.00164e-06
-8.10708e-07
-1.19502e-06
-8.06615e-07
-3.91204e-07
-8.0382e-07
4.11851e-07
-8.03055e-07
1.21542e-06
-8.03567e-07
2.0213e-06
-8.05884e-07
2.82593e-06
-8.04634e-07
3.63503e-06
-8.09099e-07
-7.22961e-07
4.35799e-06
-7.89976e-07
1.62359e-06
-1.72321e-06
2.36895e-06
-2.69895e-06
2.82514e-06
-3.57906e-06
2.85924e-06
-4.29153e-06
2.57715e-06
-4.84799e-06
2.19801e-06
-5.29086e-06
1.84558e-06
-5.6538e-06
1.54455e-06
-5.95321e-06
1.28545e-06
-6.19746e-06
1.05962e-06
-6.39216e-06
8.62371e-07
-6.54346e-06
6.92641e-07
-6.65687e-06
5.48622e-07
-6.75595e-06
5.41272e-07
-6.81468e-06
4.0114e-07
-6.83279e-06
2.62473e-07
-6.81091e-06
1.24947e-07
-6.75795e-06
-5.96373e-09
-6.65944e-06
-1.41579e-07
-6.51469e-06
-2.67385e-07
-6.32609e-06
-3.90585e-07
-6.09485e-06
-5.10612e-07
-5.82284e-06
-6.25101e-07
-5.51253e-06
-7.32772e-07
-5.16666e-06
-8.33177e-07
-4.78804e-06
-9.2581e-07
-4.37953e-06
-1.00988e-06
-3.94449e-06
-1.08453e-06
-3.48657e-06
-1.14969e-06
-3.00939e-06
-1.2052e-06
-2.51656e-06
-1.2507e-06
-2.01155e-06
-1.28665e-06
-1.49758e-06
-1.31386e-06
-9.77499e-07
-1.33332e-06
-4.53753e-07
-1.3459e-06
7.14659e-08
-1.35218e-06
5.96302e-07
-1.3532e-06
1.11938e-06
-1.35025e-06
1.63978e-06
-1.34451e-06
2.15694e-06
-1.33712e-06
2.67071e-06
-1.32915e-06
3.18126e-06
-1.32126e-06
3.68928e-06
-1.31464e-06
4.196e-06
-1.31054e-06
4.70322e-06
-1.31027e-06
5.21294e-06
-1.31328e-06
5.72864e-06
-1.32159e-06
6.25279e-06
-1.32878e-06
6.78741e-06
-1.34372e-06
-1.29106e-06
7.35551e-06
-4.09715e-07
2.03331e-06
-8.08178e-07
2.76742e-06
-1.17409e-06
3.19105e-06
-1.45861e-06
3.14376e-06
-1.66225e-06
2.78078e-06
-1.82245e-06
2.35821e-06
-1.96735e-06
1.99048e-06
-2.10138e-06
1.67858e-06
-2.2193e-06
1.40337e-06
-2.31613e-06
1.15644e-06
-2.38917e-06
9.35412e-07
-2.43948e-06
7.42955e-07
-2.47017e-06
5.7931e-07
-2.48641e-06
5.57515e-07
-2.47845e-06
3.93182e-07
-2.446e-06
2.30019e-07
-2.38828e-06
6.72272e-08
-2.30118e-06
-9.30606e-08
-2.19071e-06
-2.5205e-07
-2.0524e-06
-4.05696e-07
-1.88863e-06
-5.54356e-07
-1.70137e-06
-6.9787e-07
-1.4923e-06
-8.34172e-07
-1.26305e-06
-9.62017e-07
-1.01532e-06
-1.08091e-06
-7.50839e-07
-1.19029e-06
-4.71353e-07
-1.28937e-06
-1.7876e-07
-1.37712e-06
1.24635e-07
-1.45309e-06
4.36573e-07
-1.51714e-06
7.55209e-07
-1.56933e-06
1.07876e-06
-1.6102e-06
1.40545e-06
-1.64055e-06
1.73371e-06
-1.66158e-06
2.06224e-06
-1.67442e-06
2.39003e-06
-1.67998e-06
2.71641e-06
-1.67957e-06
3.04084e-06
-1.67468e-06
3.36291e-06
-1.66658e-06
3.68238e-06
-1.65659e-06
3.99923e-06
-1.64599e-06
4.31375e-06
-1.63578e-06
4.62676e-06
-1.62765e-06
4.93939e-06
-1.62317e-06
5.25319e-06
-1.62407e-06
5.5701e-06
-1.63019e-06
5.89321e-06
-1.64471e-06
6.22531e-06
-1.66088e-06
6.57004e-06
-1.68844e-06
-1.66979e-06
6.94877e-06
-1.68667e-07
2.20198e-06
-3.05632e-07
2.90438e-06
-4.15499e-07
3.30092e-06
-4.78822e-07
3.20708e-06
-5.13673e-07
2.81564e-06
-5.46947e-07
2.39149e-06
-5.87945e-07
2.03148e-06
-6.30231e-07
1.72087e-06
-6.64193e-07
1.43733e-06
-6.851e-07
1.17735e-06
-6.91774e-07
9.42087e-07
-6.85981e-07
7.37161e-07
-6.70458e-07
5.63788e-07
-6.38131e-07
5.25188e-07
-5.91302e-07
3.46353e-07
-5.29654e-07
1.68371e-07
-4.52591e-07
-9.8361e-09
-3.59452e-07
-1.862e-07
-2.51331e-07
-3.60171e-07
-1.28478e-07
-5.28549e-07
7.81154e-09
-6.90646e-07
1.55711e-07
-8.4577e-07
3.14308e-07
-9.92768e-07
4.82889e-07
-1.1306e-06
6.6032e-07
-1.25834e-06
8.45461e-07
-1.37543e-06
1.0373e-06
-1.4812e-06
1.23465e-06
-1.57448e-06
1.43603e-06
-1.65446e-06
1.64021e-06
-1.72132e-06
1.84638e-06
-1.7755e-06
2.05364e-06
-1.81746e-06
2.26113e-06
-1.84803e-06
2.46797e-06
-1.86843e-06
2.67341e-06
-1.87987e-06
2.87727e-06
-1.88384e-06
3.07955e-06
-1.88185e-06
3.28007e-06
-1.8752e-06
3.47866e-06
-1.86517e-06
3.6752e-06
-1.85313e-06
3.86968e-06
-1.84047e-06
4.06256e-06
-1.82866e-06
4.25464e-06
-1.81972e-06
4.44678e-06
-1.81532e-06
4.6401e-06
-1.81739e-06
4.83655e-06
-1.82664e-06
5.03778e-06
-1.84594e-06
5.24758e-06
-1.87068e-06
5.46582e-06
-1.90668e-06
-1.91521e-06
5.71124e-06
-5.31875e-08
2.25516e-06
-8.22129e-08
2.9334e-06
-9.52744e-08
3.31398e-06
-8.30335e-08
3.19484e-06
-6.34346e-08
2.79604e-06
-5.29153e-08
2.38097e-06
-5.13427e-08
2.0299e-06
-5.0379e-08
1.71991e-06
-4.29185e-08
1.42987e-06
-2.66894e-08
1.16112e-06
-2.35942e-09
9.17757e-07
2.77511e-08
7.07051e-07
6.16904e-08
5.29848e-07
1.10891e-07
4.75987e-07
1.68579e-07
2.88665e-07
2.34753e-07
1.02196e-07
3.09524e-07
-8.4607e-08
3.93224e-07
-2.69899e-07
4.85274e-07
-4.52221e-07
5.85085e-07
-6.28361e-07
6.91801e-07
-7.97361e-07
8.04617e-07
-9.58586e-07
9.22797e-07
-1.11095e-06
1.04538e-06
-1.25319e-06
1.17147e-06
-1.38443e-06
1.30031e-06
-1.50427e-06
1.43132e-06
-1.61222e-06
1.56366e-06
-1.70682e-06
1.69647e-06
-1.78727e-06
1.8293e-06
-1.85415e-06
1.96177e-06
-1.90797e-06
2.09348e-06
-1.94918e-06
2.22413e-06
-1.97868e-06
2.35357e-06
-1.99787e-06
2.48189e-06
-2.00818e-06
2.6091e-06
-2.01105e-06
2.73502e-06
-2.00777e-06
2.85952e-06
-1.99971e-06
2.98259e-06
-1.98823e-06
3.1041e-06
-1.97465e-06
3.22402e-06
-1.96039e-06
3.34291e-06
-1.94756e-06
3.46147e-06
-1.93828e-06
3.58024e-06
-1.93408e-06
3.70001e-06
-1.93716e-06
3.82259e-06
-1.94922e-06
3.94853e-06
-1.97187e-06
4.08166e-06
-2.00381e-06
4.21987e-06
-2.0449e-06
-2.07399e-06
4.37865e-06
-4.82857e-09
2.25999e-06
4.61696e-09
2.92396e-06
2.38143e-08
3.29478e-06
5.65958e-08
3.16206e-06
8.92017e-08
2.76343e-06
1.12897e-07
2.35727e-06
1.31008e-07
2.01179e-06
1.5032e-07
1.70059e-06
1.74797e-07
1.40539e-06
2.0485e-07
1.13107e-06
2.38739e-07
8.83869e-07
2.74139e-07
6.71651e-07
3.10102e-07
4.93885e-07
3.58187e-07
4.27903e-07
4.11243e-07
2.35608e-07
4.69987e-07
4.34525e-08
5.34465e-07
-1.49085e-07
6.04122e-07
-3.39556e-07
6.78111e-07
-5.26211e-07
7.55839e-07
-7.06088e-07
8.36727e-07
-8.78249e-07
9.2039e-07
-1.04225e-06
1.00628e-06
-1.19684e-06
1.09358e-06
-1.34049e-06
1.1817e-06
-1.47255e-06
1.27023e-06
-1.59281e-06
1.3588e-06
-1.70078e-06
1.4468e-06
-1.79482e-06
1.53389e-06
-1.87436e-06
1.61995e-06
-1.94021e-06
1.70481e-06
-1.99282e-06
1.78832e-06
-2.03269e-06
1.87042e-06
-2.06078e-06
1.95123e-06
-2.07869e-06
2.03105e-06
-2.08801e-06
2.10993e-06
-2.08992e-06
2.18771e-06
-2.08555e-06
2.26439e-06
-2.07638e-06
2.34002e-06
-2.06386e-06
2.4148e-06
-2.04943e-06
2.48911e-06
-2.0347e-06
2.5633e-06
-2.02175e-06
2.63741e-06
-2.01239e-06
2.71171e-06
-2.00838e-06
2.78681e-06
-2.01226e-06
2.86422e-06
-2.02663e-06
2.94391e-06
-2.05157e-06
3.02911e-06
-2.08901e-06
3.1175e-06
-2.13329e-06
-2.17709e-06
3.2206e-06
1.09184e-08
2.24907e-06
3.18768e-08
2.903e-06
5.79793e-08
3.26868e-06
9.11857e-08
3.12886e-06
1.22552e-07
2.73206e-06
1.47489e-07
2.33234e-06
1.69803e-07
1.98948e-06
1.94277e-07
1.67612e-06
2.2259e-07
1.37708e-06
2.54017e-07
1.09964e-06
2.86523e-07
8.51363e-07
3.18226e-07
6.39947e-07
3.49239e-07
4.62872e-07
3.90299e-07
3.86843e-07
4.34982e-07
1.90925e-07
4.83334e-07
-4.89994e-09
5.35243e-07
-2.00994e-07
5.89922e-07
-3.94235e-07
6.46598e-07
-5.82886e-07
7.04803e-07
-7.64293e-07
7.64146e-07
-9.37592e-07
8.24316e-07
-1.10242e-06
8.84967e-07
-1.25749e-06
9.45685e-07
-1.4012e-06
1.00616e-06
-1.53302e-06
1.06618e-06
-1.65283e-06
1.12547e-06
-1.76007e-06
1.18369e-06
-1.85304e-06
1.24076e-06
-1.93142e-06
1.29664e-06
-1.99609e-06
1.35124e-06
-2.04743e-06
1.40456e-06
-2.086e-06
1.4566e-06
-2.11282e-06
1.50749e-06
-2.12958e-06
1.55741e-06
-2.13792e-06
1.60643e-06
-2.13894e-06
1.65455e-06
-2.13368e-06
1.70185e-06
-2.12368e-06
1.74841e-06
-2.11042e-06
1.79448e-06
-2.0955e-06
1.84049e-06
-2.08071e-06
1.88664e-06
-2.0679e-06
1.93296e-06
-2.05871e-06
1.97984e-06
-2.05526e-06
2.02761e-06
-2.06003e-06
2.07712e-06
-2.07614e-06
2.1282e-06
-2.10266e-06
2.18321e-06
-2.14402e-06
2.24045e-06
-2.19053e-06
-2.24433e-06
2.30768e-06
1.52344e-08
2.23384e-06
3.82657e-08
2.87997e-06
6.60723e-08
3.24088e-06
9.97576e-08
3.09517e-06
1.3287e-07
2.69895e-06
1.62495e-07
2.30271e-06
1.92298e-07
1.95968e-06
2.25964e-07
1.64245e-06
2.63845e-07
1.3392e-06
3.04442e-07
1.05904e-06
3.45406e-07
8.10399e-07
3.85569e-07
5.99784e-07
4.25601e-07
4.2284e-07
4.79186e-07
3.33259e-07
5.3781e-07
1.32301e-07
6.0103e-07
-6.81194e-08
6.68692e-07
-2.68657e-07
7.4011e-07
-4.65653e-07
8.14626e-07
-6.57402e-07
8.91855e-07
-8.41522e-07
9.71484e-07
-1.01722e-06
1.05321e-06
-1.18414e-06
1.13672e-06
-1.341e-06
1.22173e-06
-1.48621e-06
1.30798e-06
-1.61927e-06
1.39527e-06
-1.74011e-06
1.48325e-06
-1.84805e-06
1.57159e-06
-1.94138e-06
1.66027e-06
-2.0201e-06
1.7492e-06
-2.08502e-06
1.83828e-06
-2.13651e-06
1.92748e-06
-2.1752e-06
2.01682e-06
-2.20216e-06
2.10643e-06
-2.21919e-06
2.19644e-06
-2.22793e-06
2.28694e-06
-2.22944e-06
2.37803e-06
-2.22477e-06
2.46981e-06
-2.21547e-06
2.56247e-06
-2.20308e-06
2.65633e-06
-2.18935e-06
2.75192e-06
-2.17631e-06
2.84966e-06
-2.16564e-06
2.94997e-06
-2.15901e-06
3.05379e-06
-2.15909e-06
3.16162e-06
-2.16785e-06
3.27443e-06
-2.18895e-06
3.3924e-06
-2.22063e-06
3.51884e-06
-2.27047e-06
3.65239e-06
-2.32407e-06
-2.39422e-06
3.80228e-06
1.45509e-08
2.21929e-06
3.54957e-08
2.85903e-06
6.09481e-08
3.21542e-06
9.13997e-08
3.06472e-06
1.22393e-07
2.66796e-06
1.52374e-07
2.27273e-06
1.84637e-07
1.92741e-06
2.21663e-07
1.60543e-06
2.62703e-07
1.29816e-06
3.06003e-07
1.01574e-06
3.49693e-07
7.66709e-07
3.9319e-07
5.56288e-07
4.36975e-07
3.79054e-07
4.95132e-07
2.75102e-07
5.58026e-07
6.94067e-08
6.25196e-07
-1.35289e-07
6.96421e-07
-3.39882e-07
7.71133e-07
-5.40365e-07
8.48822e-07
-7.35091e-07
9.29192e-07
-9.21891e-07
1.01199e-06
-1.10002e-06
1.09694e-06
-1.26909e-06
1.18378e-06
-1.42785e-06
1.27229e-06
-1.57472e-06
1.36223e-06
-1.70921e-06
1.45342e-06
-1.8313e-06
1.54549e-06
-1.94013e-06
1.63823e-06
-2.03412e-06
1.7316e-06
-2.11348e-06
1.82548e-06
-2.17891e-06
1.9198e-06
-2.23082e-06
2.01451e-06
-2.26991e-06
2.10964e-06
-2.2973e-06
2.20533e-06
-2.31487e-06
2.30165e-06
-2.32425e-06
2.39868e-06
-2.32647e-06
2.49654e-06
-2.32263e-06
2.59535e-06
-2.31428e-06
2.69531e-06
-2.30303e-06
2.79668e-06
-2.29073e-06
2.89988e-06
-2.27951e-06
3.00534e-06
-2.2711e-06
3.11365e-06
-2.26731e-06
3.22574e-06
-2.27118e-06
3.34231e-06
-2.28443e-06
3.4645e-06
-2.31113e-06
3.59305e-06
-2.34918e-06
3.73111e-06
-2.40853e-06
3.87814e-06
-2.4711e-06
-2.55653e-06
4.04046e-06
1.24556e-07
2.09473e-06
2.74537e-07
2.70904e-06
4.24919e-07
3.06504e-06
5.76911e-07
2.91273e-06
7.18822e-07
2.52605e-06
8.57517e-07
2.13404e-06
1.01061e-06
1.77432e-06
1.17983e-06
1.43621e-06
1.35269e-06
1.12529e-06
1.51988e-06
8.48557e-07
1.6786e-06
6.07985e-07
1.82796e-06
4.06934e-07
1.96859e-06
2.38416e-07
2.14103e-06
1.02669e-07
2.31052e-06
-1.00084e-07
2.4758e-06
-3.00569e-07
2.63586e-06
-4.9994e-07
2.78933e-06
-6.93839e-07
2.93543e-06
-8.81194e-07
3.07404e-06
-1.0605e-06
3.20497e-06
-1.23095e-06
3.32794e-06
-1.39205e-06
3.44277e-06
-1.54268e-06
3.54945e-06
-1.6814e-06
3.64798e-06
-1.80773e-06
3.73821e-06
-1.92154e-06
3.81998e-06
-2.02189e-06
3.89354e-06
-2.10767e-06
3.95922e-06
-2.17916e-06
4.01721e-06
-2.2369e-06
4.06785e-06
-2.28147e-06
4.11152e-06
-2.31358e-06
4.14871e-06
-2.33449e-06
4.18001e-06
-2.34617e-06
4.20583e-06
-2.35007e-06
4.22656e-06
-2.34719e-06
4.24258e-06
-2.33865e-06
4.25429e-06
-2.32599e-06
4.26212e-06
-2.31086e-06
4.26654e-06
-2.29515e-06
4.26803e-06
-2.281e-06
4.26719e-06
-2.27026e-06
4.26478e-06
-2.2649e-06
4.26169e-06
-2.2681e-06
4.25878e-06
-2.28151e-06
4.25723e-06
-2.30959e-06
4.25794e-06
-2.34989e-06
4.26329e-06
-2.41388e-06
4.27354e-06
-2.48134e-06
-2.57542e-06
4.29242e-06
1.90235e-07
1.9045e-06
4.03089e-07
2.49619e-06
5.99001e-07
2.86913e-06
8.01552e-07
2.71018e-06
1.02125e-06
2.30635e-06
1.27153e-06
1.88375e-06
1.55335e-06
1.4925e-06
1.8464e-06
1.14316e-06
2.12665e-06
8.45048e-07
2.37971e-06
5.95492e-07
2.60018e-06
3.8752e-07
2.79205e-06
2.15062e-07
2.96145e-06
6.90196e-08
3.15503e-06
-9.09142e-08
3.33314e-06
-2.7819e-07
3.49782e-06
-4.65253e-07
3.64982e-06
-6.51939e-07
3.78918e-06
-8.33198e-07
3.91656e-06
-1.00857e-06
4.03289e-06
-1.17683e-06
4.13876e-06
-1.33682e-06
4.23444e-06
-1.48774e-06
4.32027e-06
-1.62851e-06
4.39661e-06
-1.75774e-06
4.46374e-06
-1.87486e-06
4.52198e-06
-1.97978e-06
4.57172e-06
-2.07164e-06
4.61344e-06
-2.14939e-06
4.64755e-06
-2.21327e-06
4.67449e-06
-2.26383e-06
4.69481e-06
-2.30179e-06
4.70909e-06
-2.32786e-06
4.71795e-06
-2.34335e-06
4.7221e-06
-2.35032e-06
4.722e-06
-2.34998e-06
4.718e-06
-2.3432e-06
4.71049e-06
-2.33113e-06
4.69981e-06
-2.31532e-06
4.68641e-06
-2.29746e-06
4.67075e-06
-2.27949e-06
4.65327e-06
-2.26351e-06
4.63452e-06
-2.25152e-06
4.61521e-06
-2.24558e-06
4.59612e-06
-2.24901e-06
4.57817e-06
-2.26356e-06
4.56269e-06
-2.29411e-06
4.55086e-06
-2.33806e-06
4.54477e-06
-2.4078e-06
4.54578e-06
-2.48235e-06
-2.587e-06
4.55736e-06
2.41999e-07
1.6625e-06
5.00975e-07
2.23721e-06
7.41321e-07
2.62878e-06
1.05417e-06
2.39733e-06
1.45535e-06
1.90517e-06
1.89773e-06
1.44138e-06
2.32932e-06
1.06091e-06
2.71979e-06
7.52684e-07
3.06156e-06
5.03284e-07
3.35638e-06
3.00672e-07
3.60767e-06
1.36229e-07
3.82265e-06
7.92465e-11
4.00336e-06
-1.11689e-07
4.19834e-06
-2.85894e-07
4.37047e-06
-4.50319e-07
4.52303e-06
-6.17813e-07
4.65691e-06
-7.85824e-07
4.77383e-06
-9.50117e-07
4.87589e-06
-1.11063e-06
4.9647e-06
-1.26564e-06
5.04138e-06
-1.4135e-06
5.10677e-06
-1.55314e-06
5.16153e-06
-1.68326e-06
5.20618e-06
-1.80239e-06
5.24136e-06
-1.91004e-06
5.26782e-06
-2.00624e-06
5.28614e-06
-2.08996e-06
5.29687e-06
-2.16012e-06
5.30065e-06
-2.21704e-06
5.29816e-06
-2.26135e-06
5.29017e-06
-2.2938e-06
5.27732e-06
-2.31501e-06
5.26032e-06
-2.32635e-06
5.23992e-06
-2.32991e-06
5.21652e-06
-2.32657e-06
5.1904e-06
-2.31708e-06
5.16188e-06
-2.30262e-06
5.13132e-06
-2.28476e-06
5.09914e-06
-2.26528e-06
5.06578e-06
-2.24613e-06
5.03166e-06
-2.2294e-06
4.9973e-06
-2.21715e-06
4.96332e-06
-2.2116e-06
4.93045e-06
-2.21614e-06
4.8996e-06
-2.23271e-06
4.87208e-06
-2.26659e-06
4.84927e-06
-2.31524e-06
4.83313e-06
-2.39166e-06
4.82565e-06
-2.47486e-06
-2.59125e-06
4.8299e-06
2.79127e-07
1.38337e-06
5.83963e-07
1.93238e-06
1.01724e-06
2.19551e-06
1.65755e-06
1.75702e-06
2.33149e-06
1.23122e-06
2.92245e-06
8.50413e-07
3.41148e-06
5.71886e-07
3.81116e-06
3.5301e-07
4.1386e-06
1.75841e-07
4.41169e-06
2.75861e-08
4.64397e-06
-9.60547e-08
4.84186e-06
-1.97809e-07
5.00878e-06
-2.78611e-07
5.19072e-06
-4.67834e-07
5.34964e-06
-6.09244e-07
5.48429e-06
-7.52461e-07
5.59569e-06
-8.97219e-07
5.68786e-06
-1.04229e-06
5.76371e-06
-1.18648e-06
5.82502e-06
-1.32695e-06
5.8731e-06
-1.46158e-06
5.90908e-06
-1.58912e-06
5.93392e-06
-1.7081e-06
5.94857e-06
-1.81704e-06
5.95404e-06
-1.91551e-06
5.95112e-06
-2.00332e-06
5.94049e-06
-2.07933e-06
5.92297e-06
-2.14261e-06
5.89954e-06
-2.19361e-06
5.87108e-06
-2.23289e-06
5.83844e-06
-2.26116e-06
5.80228e-06
-2.27885e-06
5.76328e-06
-2.28735e-06
5.72205e-06
-2.28868e-06
5.67888e-06
-2.2834e-06
5.634e-06
-2.2722e-06
5.58772e-06
-2.25634e-06
5.54037e-06
-2.23741e-06
5.49237e-06
-2.21727e-06
5.44413e-06
-2.1979e-06
5.39605e-06
-2.18132e-06
5.34856e-06
-2.16967e-06
5.30227e-06
-2.16531e-06
5.25785e-06
-2.17172e-06
5.21622e-06
-2.19108e-06
5.17862e-06
-2.22899e-06
5.14657e-06
-2.28319e-06
5.12196e-06
-2.36705e-06
5.10721e-06
-2.46011e-06
-2.58878e-06
5.10474e-06
1.95681e-07
1.18769e-06
1.02874e-06
1.09932e-06
2.01135e-06
1.21289e-06
2.94263e-06
8.25747e-07
3.69278e-06
4.81064e-07
4.26441e-06
2.78784e-07
4.70396e-06
1.32338e-07
5.04957e-06
7.40474e-09
5.32395e-06
-9.85427e-08
5.54534e-06
-1.938e-07
5.7259e-06
-2.76616e-07
5.87513e-06
-3.47044e-07
6.00138e-06
-4.04863e-07
6.14129e-06
-6.07738e-07
6.26217e-06
-7.30126e-07
6.36259e-06
-8.52881e-07
6.44407e-06
-9.787e-07
6.50813e-06
-1.10635e-06
6.55603e-06
-1.23437e-06
6.58905e-06
-1.35997e-06
6.60864e-06
-1.48117e-06
6.61614e-06
-1.59662e-06
6.61285e-06
-1.70481e-06
6.60015e-06
-1.80434e-06
6.57904e-06
-1.89441e-06
6.55017e-06
-1.97445e-06
6.51445e-06
-2.04361e-06
6.47314e-06
-2.1013e-06
6.42736e-06
-2.14782e-06
6.37803e-06
-2.18357e-06
6.32593e-06
-2.20906e-06
6.27162e-06
-2.22454e-06
6.21557e-06
-2.2313e-06
6.15813e-06
-2.23124e-06
6.09952e-06
-2.2248e-06
6.04001e-06
-2.21269e-06
5.97992e-06
-2.19624e-06
5.91955e-06
-2.17705e-06
5.8593e-06
-2.15701e-06
5.7995e-06
-2.1381e-06
5.7405e-06
-2.12232e-06
5.68269e-06
-2.11186e-06
5.62664e-06
-2.10926e-06
5.57301e-06
-2.11809e-06
5.52274e-06
-2.14081e-06
5.477e-06
-2.18325e-06
5.43746e-06
-2.24364e-06
5.40591e-06
-2.3355e-06
5.38514e-06
-2.43934e-06
-2.58044e-06
5.3768e-06
1.41508e-06
-2.27393e-07
2.65137e-06
-1.36967e-07
3.82818e-06
3.60846e-08
4.7179e-06
-6.3974e-08
5.35441e-06
-1.55453e-07
5.8095e-06
-1.76298e-07
6.14636e-06
-2.04528e-07
6.40016e-06
-2.46395e-07
6.59733e-06
-2.95713e-07
6.7495e-06
-3.45967e-07
6.86719e-06
-3.94312e-07
6.95891e-06
-4.38756e-07
7.03059e-06
-4.76544e-07
7.10387e-06
-6.81018e-07
7.16287e-06
-7.8913e-07
7.2089e-06
-8.98911e-07
7.24355e-06
-1.01335e-06
7.2653e-06
-1.12811e-06
7.27389e-06
-1.24296e-06
7.27011e-06
-1.3562e-06
7.25526e-06
-1.46631e-06
7.2307e-06
-1.57207e-06
7.19769e-06
-1.6718e-06
7.15752e-06
-1.76417e-06
7.11118e-06
-1.84806e-06
7.05934e-06
-1.92261e-06
7.00283e-06
-1.98709e-06
6.94268e-06
-2.04115e-06
6.87982e-06
-2.08497e-06
6.81497e-06
-2.11871e-06
6.74867e-06
-2.14276e-06
6.68134e-06
-2.15721e-06
6.61308e-06
-2.16304e-06
6.54398e-06
-2.16214e-06
6.47432e-06
-2.15514e-06
6.40443e-06
-2.14281e-06
6.33462e-06
-2.12643e-06
6.26516e-06
-2.10759e-06
6.19631e-06
-2.08817e-06
6.12834e-06
-2.07013e-06
6.06152e-06
-2.0555e-06
5.99623e-06
-2.04657e-06
5.93301e-06
-2.04603e-06
5.8725e-06
-2.05758e-06
5.81567e-06
-2.08398e-06
5.76363e-06
-2.13121e-06
5.71823e-06
-2.19824e-06
5.68102e-06
-2.29828e-06
5.65531e-06
-2.41364e-06
-2.56695e-06
5.64182e-06
4.95706e-05
7.99753e-07
4.85529e-05
8.80736e-07
4.75724e-05
1.01653e-06
4.64717e-05
1.03671e-06
4.53537e-05
9.6257e-07
4.4324e-05
8.53446e-07
4.33795e-05
7.39907e-07
4.25049e-05
6.28229e-07
4.16898e-05
5.19399e-07
4.0929e-05
4.14877e-07
4.02181e-05
3.16518e-07
3.95533e-05
2.26045e-07
3.89337e-05
1.43054e-07
3.81786e-05
7.41445e-08
3.74318e-05
-4.23344e-08
3.66835e-05
-1.50621e-07
3.59415e-05
-2.71341e-07
3.52073e-05
-3.93905e-07
3.44813e-05
-5.16998e-07
3.37643e-05
-6.39143e-07
3.30562e-05
-7.58289e-07
3.23569e-05
-8.72773e-07
3.16662e-05
-9.81042e-07
3.09838e-05
-1.08181e-06
3.031e-05
-1.17424e-06
2.96451e-05
-1.25773e-06
2.89894e-05
-1.3314e-06
2.83428e-05
-1.3945e-06
2.77049e-05
-1.44704e-06
2.70753e-05
-1.48914e-06
2.64538e-05
-1.5213e-06
2.58403e-05
-1.54368e-06
2.52345e-05
-1.55727e-06
2.46357e-05
-1.56331e-06
2.40432e-05
-1.56268e-06
2.34573e-05
-1.55686e-06
2.28781e-05
-1.54728e-06
2.23058e-05
-1.53525e-06
2.17403e-05
-1.52262e-06
2.11815e-05
-1.51133e-06
2.06299e-05
-1.50395e-06
2.00864e-05
-1.50305e-06
1.95524e-05
-1.51206e-06
1.9029e-05
-1.53419e-06
1.85191e-05
-1.57409e-06
1.80244e-05
-1.63648e-06
1.75509e-05
-1.72478e-06
1.70993e-05
-1.84663e-06
1.66825e-05
-1.99689e-06
-2.18209e-06
1.62977e-05
2.0541e-05
6.30861e-07
2.07346e-05
6.87042e-07
2.09607e-05
7.9045e-07
2.11594e-05
8.38085e-07
2.13159e-05
8.06035e-07
2.144e-05
7.29345e-07
2.15399e-05
6.39971e-07
2.16187e-05
5.49423e-07
2.16783e-05
4.59784e-07
2.17211e-05
3.72077e-07
2.17498e-05
2.87848e-07
2.17671e-05
2.08764e-07
2.17735e-05
1.36641e-07
2.17638e-05
8.38612e-08
2.17273e-05
-5.87606e-09
2.16954e-05
-1.18714e-07
2.16448e-05
-2.20718e-07
2.15802e-05
-3.29286e-07
2.15032e-05
-4.39993e-07
2.14138e-05
-5.4979e-07
2.13128e-05
-6.57245e-07
2.1201e-05
-7.61013e-07
2.10797e-05
-8.59688e-07
2.09499e-05
-9.52091e-07
2.0813e-05
-1.03726e-06
2.06697e-05
-1.1145e-06
2.05215e-05
-1.18312e-06
2.03695e-05
-1.2425e-06
2.02149e-05
-1.29249e-06
2.00589e-05
-1.33312e-06
1.99024e-05
-1.36476e-06
1.97464e-05
-1.38773e-06
1.95923e-05
-1.40316e-06
1.94413e-05
-1.4123e-06
1.92942e-05
-1.41558e-06
1.91512e-05
-1.41388e-06
1.90125e-05
-1.4086e-06
1.88783e-05
-1.401e-06
1.87489e-05
-1.39321e-06
1.86245e-05
-1.38692e-06
1.85053e-05
-1.38477e-06
1.83913e-05
-1.38908e-06
1.82836e-05
-1.40432e-06
1.81824e-05
-1.43297e-06
1.80906e-05
-1.48234e-06
1.80093e-05
-1.55518e-06
1.79463e-05
-1.66181e-06
1.79036e-05
-1.80391e-06
1.78985e-05
-1.99181e-06
-2.21493e-06
1.79314e-05
2.05254e-05
4.75169e-07
2.06939e-05
5.18577e-07
2.08878e-05
5.9656e-07
2.1086e-05
6.39932e-07
2.12684e-05
6.23606e-07
2.14302e-05
5.67485e-07
2.15735e-05
4.96678e-07
2.17e-05
4.22929e-07
2.18105e-05
3.49334e-07
2.19055e-05
2.77055e-07
2.19857e-05
2.07651e-07
2.20514e-05
1.43096e-07
2.21039e-05
8.40696e-08
2.21587e-05
2.90703e-08
2.22064e-05
-5.35711e-08
2.22317e-05
-1.43978e-07
2.22477e-05
-2.36709e-07
2.22493e-05
-3.30946e-07
2.22366e-05
-4.27203e-07
2.22102e-05
-5.23406e-07
2.21707e-05
-6.17817e-07
2.21188e-05
-7.09119e-07
2.20553e-05
-7.96097e-07
2.19809e-05
-8.77689e-07
2.18966e-05
-9.52985e-07
2.18034e-05
-1.02127e-06
2.17022e-05
-1.08197e-06
2.15943e-05
-1.13459e-06
2.14807e-05
-1.17889e-06
2.13624e-05
-1.21487e-06
2.12405e-05
-1.24279e-06
2.11158e-05
-1.2631e-06
2.09892e-05
-1.27655e-06
2.08611e-05
-1.28416e-06
2.07323e-05
-1.28676e-06
2.06035e-05
-1.28511e-06
2.04754e-05
-1.2805e-06
2.03485e-05
-1.27412e-06
2.02235e-05
-1.2682e-06
2.01008e-05
-1.2642e-06
1.99809e-05
-1.2649e-06
1.98636e-05
-1.27178e-06
1.97498e-05
-1.29051e-06
1.96389e-05
-1.32211e-06
1.9534e-05
-1.37743e-06
1.94344e-05
-1.4555e-06
1.93492e-05
-1.57668e-06
1.92781e-05
-1.73282e-06
1.9244e-05
-1.95764e-06
-2.21298e-06
1.9242e-05
2.05303e-05
3.18672e-07
2.06932e-05
3.55693e-07
2.08725e-05
4.172e-07
2.1058e-05
4.54468e-07
2.12346e-05
4.47015e-07
2.13952e-05
4.06921e-07
2.15393e-05
3.52524e-07
2.16682e-05
2.94009e-07
2.17827e-05
2.34901e-07
2.1883e-05
1.76677e-07
2.19699e-05
1.20818e-07
2.20444e-05
6.85591e-08
2.21075e-05
2.10089e-08
2.21733e-05
-3.67396e-08
2.22292e-05
-1.09466e-07
2.22719e-05
-1.86658e-07
2.23025e-05
-2.67347e-07
2.2321e-05
-3.49489e-07
2.23267e-05
-4.32883e-07
2.23197e-05
-5.16406e-07
2.23005e-05
-5.98573e-07
2.22695e-05
-6.78135e-07
2.22274e-05
-7.54044e-07
2.21751e-05
-8.25381e-07
2.21135e-05
-8.91343e-07
2.20435e-05
-9.51279e-07
2.19662e-05
-1.00467e-06
2.18827e-05
-1.05112e-06
2.17942e-05
-1.09036e-06
2.17017e-05
-1.12241e-06
2.16064e-05
-1.14744e-06
2.15091e-05
-1.16584e-06
2.14108e-05
-1.17818e-06
2.13119e-05
-1.18526e-06
2.1213e-05
-1.1879e-06
2.11147e-05
-1.18683e-06
2.10174e-05
-1.1832e-06
2.09213e-05
-1.17803e-06
2.08265e-05
-1.17339e-06
2.07327e-05
-1.17039e-06
2.06402e-05
-1.17233e-06
2.05481e-05
-1.17973e-06
2.04571e-05
-1.19953e-06
2.03656e-05
-1.23061e-06
2.02762e-05
-1.288e-06
2.01861e-05
-1.36544e-06
2.0105e-05
-1.49551e-06
2.00287e-05
-1.65656e-06
1.99833e-05
-1.9122e-06
-2.19371e-06
1.9964e-05
2.05365e-05
1.5959e-07
2.06985e-05
1.93642e-07
2.08712e-05
2.44514e-07
2.1048e-05
2.77692e-07
2.12178e-05
2.77241e-07
2.13741e-05
2.50639e-07
2.15154e-05
2.11139e-07
2.16424e-05
1.67024e-07
2.17556e-05
1.2171e-07
2.18555e-05
7.68318e-08
2.19425e-05
3.3772e-08
2.20175e-05
-6.43572e-09
2.20813e-05
-4.27879e-08
2.21499e-05
-1.05374e-07
2.22082e-05
-1.67694e-07
2.22552e-05
-2.3365e-07
2.22903e-05
-3.02538e-07
2.23138e-05
-3.72919e-07
2.23251e-05
-4.44174e-07
2.23242e-05
-5.15532e-07
2.23115e-05
-5.8585e-07
2.22874e-05
-6.54024e-07
2.22525e-05
-7.19153e-07
2.22075e-05
-7.80454e-07
2.21535e-05
-8.37256e-07
2.20912e-05
-8.8898e-07
2.20217e-05
-9.35188e-07
2.19461e-05
-9.75524e-07
2.18655e-05
-1.0098e-06
2.17811e-05
-1.03798e-06
2.16939e-05
-1.06023e-06
2.16049e-05
-1.07683e-06
2.1515e-05
-1.08827e-06
2.14248e-05
-1.09514e-06
2.13352e-05
-1.09823e-06
2.12464e-05
-1.0981e-06
2.11591e-05
-1.09587e-06
2.10733e-05
-1.09227e-06
2.09893e-05
-1.08932e-06
2.09065e-05
-1.08758e-06
2.08249e-05
-1.09081e-06
2.07436e-05
-1.09838e-06
2.06627e-05
-1.1186e-06
2.05796e-05
-1.14757e-06
2.04966e-05
-1.20502e-06
2.04089e-05
-1.27774e-06
2.03263e-05
-1.41291e-06
2.02413e-05
-1.57157e-06
2.01855e-05
-1.85633e-06
-2.15725e-06
2.0149e-05
2.05421e-05
-1.62348e-09
2.0704e-05
3.17982e-08
2.08723e-05
7.62252e-08
2.10427e-05
1.07258e-07
2.1207e-05
1.12913e-07
2.13596e-05
9.80302e-08
2.14986e-05
7.21863e-08
2.16238e-05
4.18411e-08
2.17356e-05
9.87399e-09
2.18345e-05
-2.20621e-08
2.1921e-05
-5.2684e-08
2.19957e-05
-8.11622e-08
2.20596e-05
-1.06674e-07
2.2129e-05
-1.74767e-07
2.21883e-05
-2.27057e-07
2.22369e-05
-2.82239e-07
2.22741e-05
-3.39676e-07
2.22996e-05
-3.98421e-07
2.23132e-05
-4.57844e-07
2.2315e-05
-5.17342e-07
2.23052e-05
-5.76024e-07
2.22842e-05
-6.32955e-07
2.22524e-05
-6.87398e-07
2.22106e-05
-7.38702e-07
2.21597e-05
-7.86331e-07
2.21005e-05
-8.29783e-07
2.2034e-05
-8.68714e-07
2.19613e-05
-9.0281e-07
2.18835e-05
-9.31956e-07
2.18016e-05
-9.56067e-07
2.17167e-05
-9.75322e-07
2.16297e-05
-9.89883e-07
2.15417e-05
-1.00022e-06
2.14532e-05
-1.00669e-06
2.13651e-05
-1.01006e-06
2.12776e-05
-1.01068e-06
2.11914e-05
-1.00968e-06
2.11066e-05
-1.0074e-06
2.10232e-05
-1.00593e-06
2.09407e-05
-1.00514e-06
2.08592e-05
-1.00929e-06
2.07771e-05
-1.01628e-06
2.06946e-05
-1.03608e-06
2.06082e-05
-1.06114e-06
2.05199e-05
-1.11677e-06
2.04224e-05
-1.18025e-06
2.03267e-05
-1.31723e-06
2.02192e-05
-1.46408e-06
2.01427e-05
-1.77976e-06
-2.08517e-06
2.00706e-05
2.55153e-05
-3.56129e-08
2.55565e-05
-9.4108e-09
2.56098e-05
2.285e-08
2.56713e-05
4.58083e-08
2.5733e-05
5.1244e-08
2.57889e-05
4.21021e-08
2.58362e-05
2.48508e-08
2.58738e-05
4.24223e-09
2.5902e-05
-1.83024e-08
2.59207e-05
-4.07238e-08
2.59303e-05
-6.23292e-08
2.59316e-05
-8.24347e-08
2.59252e-05
-1.00305e-07
2.59064e-05
-1.55998e-07
2.58755e-05
-1.96135e-07
2.58314e-05
-2.38107e-07
2.57735e-05
-2.81755e-07
2.57015e-05
-3.26451e-07
2.56155e-05
-3.71859e-07
2.55157e-05
-4.17511e-07
2.54023e-05
-4.62674e-07
2.5276e-05
-5.06637e-07
2.51375e-05
-5.48852e-07
2.49876e-05
-5.88814e-07
2.48274e-05
-6.26112e-07
2.46579e-05
-6.60333e-07
2.44804e-05
-6.91211e-07
2.42961e-05
-7.18474e-07
2.41062e-05
-7.4204e-07
2.39119e-05
-7.61791e-07
2.37144e-05
-7.77866e-07
2.35149e-05
-7.90313e-07
2.33142e-05
-7.9952e-07
2.31131e-05
-8.05657e-07
2.29125e-05
-8.09391e-07
2.27126e-05
-8.10854e-07
2.25141e-05
-8.1113e-07
2.23168e-05
-8.1015e-07
2.2121e-05
-8.1008e-07
2.19258e-05
-8.10005e-07
2.17313e-05
-8.14697e-07
2.15353e-05
-8.20344e-07
2.13381e-05
-8.38832e-07
2.11349e-05
-8.57966e-07
2.09278e-05
-9.09684e-07
2.07059e-05
-9.58304e-07
2.04813e-05
-1.09266e-06
2.02306e-05
-1.21337e-06
2.00136e-05
-1.56275e-06
-1.84483e-06
1.97732e-05
2.53043e-05
1.47868e-07
2.51374e-05
1.57503e-07
2.49898e-05
1.70372e-07
2.48588e-05
1.76889e-07
2.47378e-05