/*--------------------------------*- C++ -*----------------------------------*\
| =========                 |                                                 |
| \\      /  F ield         | OpenFOAM: The Open Source CFD Toolbox           |
|  \\    /   O peration     | Version:  2112                                  |
|   \\  /    A nd           | Website:  www.openfoam.com                      |
|    \\/     M anipulation  |                                                 |
\*---------------------------------------------------------------------------*/
FoamFile
{
    version     2.0;
    format      ascii;
    arch        "LSB;label=32;scalar=64";
    class       surfaceScalarField;
    location    "0.07";
    object      phi;
}
// * * * * * * * * * * * * * * * * * * * * * * * * * * * * * * * * * * * * * //

dimensions      [0 3 -1 0 0 0 0];

oriented        oriented;

internalField   nonuniform List<scalar> 
24170
(
3.08392e-06
1.04486e-07
2.94936e-06
1.34556e-07
2.82327e-06
1.26094e-07
2.70373e-06
1.19543e-07
2.59088e-06
1.1285e-07
2.48682e-06
1.04058e-07
2.39222e-06
9.45981e-08
2.30639e-06
8.58321e-08
2.2284e-06
7.7992e-08
2.15736e-06
7.10381e-08
2.09245e-06
6.49102e-08
2.03293e-06
5.95138e-08
1.97822e-06
5.47153e-08
1.92787e-06
5.03461e-08
1.88165e-06
4.62206e-08
1.83963e-06
4.20186e-08
1.80129e-06
3.83441e-08
3.43129e-08
1.76698e-06
3.48141e-06
4.03295e-08
3.51641e-06
9.95559e-08
3.53869e-06
1.03807e-07
3.54893e-06
1.09303e-07
3.54826e-06
1.13521e-07
3.53912e-06
1.13203e-07
3.52331e-06
1.10409e-07
3.50233e-06
1.06805e-07
3.47749e-06
1.02834e-07
3.44984e-06
9.8694e-08
3.42018e-06
9.45615e-08
3.38916e-06
9.05351e-08
3.35726e-06
8.66179e-08
3.32489e-06
8.27179e-08
3.29241e-06
7.87035e-08
3.26019e-06
7.42308e-08
3.22896e-06
6.95733e-08
6.21573e-08
3.20112e-06
3.66906e-06
3.3782e-08
3.68409e-06
8.45309e-08
3.69845e-06
8.94415e-08
3.7135e-06
9.42548e-08
3.728e-06
9.902e-08
3.74082e-06
1.00386e-07
3.75168e-06
9.95508e-08
3.76062e-06
9.78675e-08
3.76768e-06
9.57662e-08
3.77297e-06
9.3404e-08
3.77662e-06
9.09146e-08
3.77878e-06
8.83744e-08
3.77962e-06
8.57764e-08
3.77932e-06
8.30182e-08
3.77806e-06
7.9964e-08
3.77607e-06
7.62253e-08
3.77385e-06
7.17954e-08
6.48172e-08
3.77119e-06
3.92913e-06
3.00409e-08
3.9403e-06
7.33585e-08
3.94699e-06
8.27532e-08
3.95324e-06
8.80044e-08
3.95947e-06
9.27885e-08
3.96521e-06
9.46443e-08
3.97055e-06
9.42128e-08
3.9756e-06
9.28174e-08
3.98034e-06
9.10241e-08
3.98475e-06
8.89983e-08
3.98883e-06
8.68379e-08
3.99261e-06
8.45944e-08
3.99614e-06
8.22431e-08
3.99949e-06
7.96709e-08
4.00274e-06
7.67079e-08
4.00595e-06
7.30179e-08
4.00939e-06
6.83513e-08
6.17082e-08
4.0125e-06
4.21128e-06
2.58902e-08
4.22015e-06
6.44833e-08
4.22547e-06
7.74386e-08
4.23015e-06
8.33257e-08
4.2348e-06
8.81344e-08
4.23899e-06
9.04592e-08
4.24264e-06
9.05558e-08
4.24586e-06
8.96019e-08
4.24867e-06
8.82111e-08
4.25111e-06
8.65556e-08
4.25324e-06
8.47147e-08
4.2551e-06
8.27306e-08
4.25677e-06
8.05745e-08
4.25831e-06
7.81335e-08
4.25979e-06
7.52242e-08
4.26126e-06
7.1548e-08
4.26283e-06
6.67819e-08
6.01245e-08
4.26441e-06
4.51272e-06
2.22529e-08
4.52017e-06
5.70408e-08
4.52574e-06
7.18649e-08
4.53053e-06
7.85362e-08
4.5351e-06
8.35659e-08
4.53912e-06
8.64367e-08
4.5425e-06
8.71775e-08
4.54532e-06
8.67815e-08
4.54766e-06
8.58746e-08
4.54956e-06
8.46543e-08
4.55107e-06
8.31982e-08
4.55226e-06
8.1545e-08
4.55317e-06
7.96669e-08
4.55384e-06
7.74573e-08
4.55433e-06
7.47399e-08
4.55463e-06
7.12475e-08
4.55473e-06
6.66754e-08
6.03267e-08
4.55453e-06
4.83572e-06
1.9254e-08
4.84229e-06
5.04667e-08
4.84805e-06
6.61113e-08
4.85293e-06
7.3655e-08
4.85747e-06
7.90196e-08
4.86151e-06
8.23988e-08
4.86492e-06
8.37711e-08
4.86775e-06
8.39539e-08
4.87006e-06
8.35609e-08
4.8719e-06
8.28146e-08
4.8733e-06
8.17952e-08
4.87431e-06
8.0539e-08
4.87495e-06
7.9023e-08
4.87526e-06
7.71539e-08
4.87522e-06
7.47775e-08
4.87479e-06
7.1671e-08
4.87387e-06
6.7604e-08
6.20464e-08
4.87215e-06
5.1821e-06
1.67382e-08
5.18794e-06
4.46196e-08
5.1936e-06
6.0457e-08
5.19849e-06
6.87669e-08
5.20304e-06
7.44625e-08
5.20717e-06
7.82731e-08
5.2107e-06
8.02375e-08
5.21365e-06
8.10078e-08
5.21605e-06
8.11554e-08
5.21795e-06
8.09189e-08
5.21936e-06
8.03842e-08
5.22031e-06
7.95882e-08
5.22082e-06
7.85172e-08
5.22087e-06
7.7099e-08
5.22044e-06
7.52136e-08
5.21941e-06
7.26963e-08
5.21761e-06
6.94067e-08
6.4967e-08
5.21469e-06
5.55348e-06
1.45913e-08
5.55866e-06
3.94461e-08
5.56409e-06
5.50255e-08
5.56897e-06
6.38894e-08
5.57354e-06
6.98877e-08
5.57774e-06
7.40728e-08
5.58139e-06
7.65873e-08
5.58446e-06
7.79409e-08
5.58697e-06
7.86432e-08
5.58895e-06
7.89421e-08
5.5904e-06
7.89322e-08
5.59133e-06
7.8655e-08
5.59174e-06
7.81099e-08
5.59159e-06
7.72512e-08
5.5908e-06
7.60001e-08
5.58924e-06
7.42552e-08
5.58669e-06
7.19642e-08
6.88883e-08
5.58276e-06
5.95162e-06
1.27457e-08
5.9562e-06
3.48695e-08
5.96136e-06
4.98591e-08
5.96621e-06
5.90467e-08
5.97078e-06
6.53137e-08
5.97502e-06
6.98297e-08
5.97877e-06
7.28447e-08
5.98195e-06
7.47619e-08
5.98457e-06
7.60223e-08
5.98663e-06
7.68747e-08
5.98814e-06
7.74243e-08
5.98908e-06
7.772e-08
5.98941e-06
7.77768e-08
5.98908e-06
7.75775e-08
5.988e-06
7.70863e-08
5.98599e-06
7.62623e-08
5.98283e-06
7.5128e-08
7.35527e-08
5.97816e-06
6.37841e-06
1.11483e-08
6.38247e-06
3.08051e-08
6.38736e-06
4.49763e-08
6.39213e-06
5.42688e-08
6.3967e-06
6.07531e-08
6.40097e-06
6.55582e-08
6.40479e-06
6.90201e-08
6.40808e-06
7.14727e-08
6.41081e-06
7.32888e-08
6.41298e-06
7.47088e-08
6.41456e-06
7.58472e-08
6.41551e-06
7.67625e-08
6.41581e-06
7.7486e-08
6.41535e-06
7.80283e-08
6.41405e-06
7.83933e-08
6.41172e-06
7.85908e-08
6.40815e-06
7.86977e-08
7.86523e-08
6.40305e-06
5.74203e-06
9.94781e-09
5.74513e-06
2.77129e-08
5.74903e-06
4.10725e-08
5.753e-06
5.02953e-08
5.75685e-06
5.69094e-08
5.76048e-06
6.19271e-08
5.76377e-06
6.57257e-08
5.76664e-06
6.86037e-08
5.76905e-06
7.08826e-08
5.77097e-06
7.27882e-08
5.77238e-06
7.44403e-08
5.77323e-06
7.5906e-08
5.77349e-06
7.72294e-08
5.77308e-06
7.84423e-08
5.77189e-06
7.95754e-08
5.76981e-06
8.06712e-08
5.76668e-06
8.18341e-08
8.30436e-08
5.76228e-06
6.99938e-06
8.71846e-09
7.00261e-06
2.44848e-08
7.00684e-06
3.68471e-08
7.01129e-06
4.58396e-08
7.01569e-06
5.25161e-08
7.01989e-06
5.77284e-08
7.02375e-06
6.18659e-08
7.02715e-06
6.51958e-08
7.03005e-06
6.79874e-08
7.03239e-06
7.04463e-08
7.03414e-06
7.26946e-08
7.03524e-06
7.48075e-08
7.03562e-06
7.68415e-08
7.03522e-06
7.88463e-08
7.03392e-06
8.08756e-08
7.03159e-06
8.29952e-08
7.02811e-06
8.53237e-08
8.78667e-08
7.02328e-06
8.5321e-06
7.46987e-09
8.53543e-06
2.11516e-08
8.53995e-06
3.2325e-08
8.5449e-06
4.08918e-08
8.54989e-06
4.75239e-08
8.55473e-06
5.28847e-08
8.55926e-06
5.73405e-08
8.56333e-06
6.11278e-08
8.56685e-06
6.44662e-08
8.56976e-06
6.75343e-08
8.572e-06
7.04509e-08
8.57352e-06
7.32961e-08
8.57422e-06
7.61344e-08
8.57404e-06
7.90274e-08
8.57288e-06
8.20408e-08
8.57062e-06
8.52499e-08
8.56718e-06
8.87676e-08
9.26063e-08
8.56244e-06
1.04005e-05
6.20499e-09
1.04039e-05
1.77199e-08
1.04087e-05
2.7509e-08
1.04142e-05
3.54248e-08
1.04199e-05
4.18584e-08
1.04255e-05
4.72805e-08
1.04308e-05
5.19996e-08
1.04357e-05
5.62165e-08
1.04401e-05
6.01035e-08
1.04438e-05
6.38058e-08
1.04468e-05
6.74301e-08
1.04491e-05
7.10534e-08
1.04505e-05
7.47403e-08
1.04509e-05
7.85523e-08
1.04504e-05
8.25528e-08
1.04489e-05
8.68092e-08
1.04462e-05
9.14081e-08
9.63558e-08
1.04425e-05
1.26781e-05
4.9109e-09
1.26817e-05
1.4146e-08
1.26868e-05
2.23416e-08
1.26929e-05
2.935e-08
1.26994e-05
3.53744e-08
1.2706e-05
4.07112e-08
1.27124e-05
4.55854e-08
1.27184e-05
5.01503e-08
1.2724e-05
5.45302e-08
1.2729e-05
5.88305e-08
1.27333e-05
6.31337e-08
1.27368e-05
6.7502e-08
1.27396e-05
7.19871e-08
1.27415e-05
7.66363e-08
1.27426e-05
8.14946e-08
1.27428e-05
8.66056e-08
1.27422e-05
9.20157e-08
9.7718e-08
1.27408e-05
1.54545e-05
3.54536e-09
1.54584e-05
1.03019e-08
1.54641e-05
1.66393e-08
1.5471e-05
2.24332e-08
1.54786e-05
2.77667e-08
1.54865e-05
3.27904e-08
1.54945e-05
3.7631e-08
1.55023e-05
4.23792e-08
1.55097e-05
4.71055e-08
1.55167e-05
5.18676e-08
1.55231e-05
5.67103e-08
1.55289e-05
6.16667e-08
1.55341e-05
6.67617e-08
1.55388e-05
7.20148e-08
1.55428e-05
7.74409e-08
1.55464e-05
8.30501e-08
1.55495e-05
8.8845e-08
9.48069e-08
1.55524e-05
1.88392e-05
2.01195e-09
1.88436e-05
5.90888e-09
1.88502e-05
9.9869e-09
1.88585e-05
1.41563e-08
1.88678e-05
1.84186e-08
1.88778e-05
2.27953e-08
1.88882e-05
2.73046e-08
1.88986e-05
3.19587e-08
1.89089e-05
3.67641e-08
1.89191e-05
4.17215e-08
1.8929e-05
4.68263e-08
1.89386e-05
5.20697e-08
1.89479e-05
5.74396e-08
1.8957e-05
6.29209e-08
1.89659e-05
6.84941e-08
1.89748e-05
7.41379e-08
1.89839e-05
7.98199e-08
8.55164e-08
1.89931e-05
2.29653e-05
8.05547e-11
2.29708e-05
3.73919e-10
2.29793e-05
1.51168e-09
2.299e-05
3.4583e-09
2.30023e-05
6.12856e-09
2.30157e-05
9.39561e-09
2.30298e-05
1.31503e-08
2.30445e-05
1.73124e-08
2.30594e-05
2.18104e-08
2.30746e-05
2.6574e-08
2.30899e-05
3.15393e-08
2.31053e-05
3.6651e-08
2.31209e-05
4.18587e-08
2.31367e-05
4.71143e-08
2.31528e-05
5.237e-08
2.31693e-05
5.75815e-08
2.31865e-05
6.26972e-08
6.76963e-08
2.32043e-05
1.68123e-05
-1.55864e-09
1.6817e-05
-4.2565e-09
1.6824e-05
-5.54161e-09
1.68329e-05
-5.39433e-09
1.6843e-05
-4.01823e-09
1.68541e-05
-1.70506e-09
1.68659e-05
1.33842e-09
1.68783e-05
4.97982e-09
1.6891e-05
9.09527e-09
1.6904e-05
1.35594e-08
1.69173e-05
1.82629e-08
1.69308e-05
2.3118e-08
1.69446e-05
2.80529e-08
1.69587e-05
3.30017e-08
1.69732e-05
3.7901e-08
1.69881e-05
4.27005e-08
1.70034e-05
4.73485e-08
5.18272e-08
1.70193e-05
1.46362e-05
-3.23587e-09
1.4641e-05
-8.96556e-09
1.4648e-05
-1.26281e-08
1.46568e-05
-1.41416e-08
1.46667e-05
-1.39201e-08
1.46775e-05
-1.24735e-08
1.46889e-05
-1.00939e-08
1.47008e-05
-6.95424e-09
1.47132e-05
-3.23021e-09
1.47258e-05
9.04749e-10
1.47388e-05
5.31229e-09
1.4752e-05
9.87976e-09
1.47655e-05
1.45361e-08
1.47793e-05
1.91759e-08
1.47935e-05
2.37395e-08
1.4808e-05
2.81666e-08
1.4823e-05
3.23982e-08
3.64212e-08
1.48384e-05
1.27419e-05
-4.99997e-09
1.27468e-05
-1.3897e-08
1.27541e-05
-1.98546e-08
1.27627e-05
-2.27832e-08
1.27723e-05
-2.35501e-08
1.27827e-05
-2.28834e-08
1.27937e-05
-2.10683e-08
1.28051e-05
-1.83124e-08
1.28167e-05
-1.48793e-08
1.28286e-05
-1.09996e-08
1.28408e-05
-6.83385e-09
1.28532e-05
-2.55857e-09
1.28658e-05
1.90085e-09
1.28787e-05
6.27663e-09
1.28919e-05
1.05692e-08
1.29054e-05
1.46909e-08
1.29191e-05
1.86437e-08
2.23988e-08
1.29332e-05
1.10928e-05
-6.85407e-09
1.10981e-05
-1.92042e-08
1.11056e-05
-2.73273e-08
1.1114e-05
-3.12241e-08
1.11232e-05
-3.2738e-08
1.11331e-05
-3.27943e-08
1.11435e-05
-3.1505e-08
1.11543e-05
-2.90758e-08
1.11653e-05
-2.58713e-08
1.11765e-05
-2.21804e-08
1.11878e-05
-1.81858e-08
1.11993e-05
-1.40273e-08
1.1211e-05
-9.78701e-09
1.12228e-05
-5.57964e-09
1.12348e-05
-1.40716e-09
1.12471e-05
2.41203e-09
1.12596e-05
6.11521e-09
9.56188e-09
1.12725e-05
9.65714e-06
-8.77814e-09
9.66287e-06
-2.49375e-08
9.67065e-06
-3.5104e-08
9.67898e-06
-3.95546e-08
9.68775e-06
-4.15054e-08
9.69698e-06
-4.20294e-08
9.70654e-06
-4.10682e-08
9.71634e-06
-3.8867e-08
9.72632e-06
-3.58582e-08
9.73648e-06
-3.23357e-08
9.74677e-06
-2.84781e-08
9.75717e-06
-2.44315e-08
9.76771e-06
-2.0319e-08
9.77837e-06
-1.62438e-08
9.78924e-06
-1.22786e-08
9.80017e-06
-8.5193e-09
9.81124e-06
-4.95183e-09
-1.6522e-09
9.82245e-06
8.40753e-06
-1.09596e-08
8.41378e-06
-3.11816e-08
8.42125e-06
-4.25751e-08
8.4293e-06
-4.76048e-08
8.438e-06
-5.02029e-08
8.44703e-06
-5.10593e-08
8.45609e-06
-5.01305e-08
8.46513e-06
-4.7907e-08
8.4742e-06
-4.49266e-08
8.48332e-06
-4.14621e-08
8.49251e-06
-3.76686e-08
8.50178e-06
-3.36927e-08
8.51112e-06
-2.96664e-08
8.52057e-06
-2.56909e-08
8.53014e-06
-2.18469e-08
8.53982e-06
-1.81967e-08
8.54966e-06
-1.47933e-08
-1.16745e-08
8.55968e-06
7.31969e-06
-1.33657e-08
7.32782e-06
-3.93106e-08
7.33418e-06
-4.89338e-08
7.34066e-06
-5.40825e-08
7.34824e-06
-5.77903e-08
7.35652e-06
-5.93326e-08
7.36501e-06
-5.86257e-08
7.37358e-06
-5.6475e-08
7.38218e-06
-5.35308e-08
7.3908e-06
-5.00747e-08
7.39941e-06
-4.62796e-08
7.40803e-06
-4.23106e-08
7.41666e-06
-3.83057e-08
7.42534e-06
-3.43671e-08
7.43407e-06
-3.05739e-08
7.44285e-06
-2.69779e-08
7.45165e-06
-2.35958e-08
-2.03212e-08
7.4603e-06
6.37006e-06
-1.33645e-08
6.38248e-06
-5.17278e-08
6.39052e-06
-5.69762e-08
6.39765e-06
-6.12109e-08
6.40506e-06
-6.51984e-08
6.41276e-06
-6.70357e-08
6.42063e-06
-6.64966e-08
6.42876e-06
-6.45998e-08
6.43711e-06
-6.1885e-08
6.4456e-06
-5.85571e-08
6.45413e-06
-5.48145e-08
6.46268e-06
-5.08567e-08
6.47121e-06
-4.68385e-08
6.47972e-06
-4.2873e-08
6.48819e-06
-3.90477e-08
6.49665e-06
-3.54335e-08
6.50514e-06
-3.20882e-08
-2.90638e-08
6.51388e-06
5.5414e-06
-9.29536e-09
5.55314e-06
-6.3468e-08
5.56536e-06
-6.91987e-08
5.58018e-06
-7.60285e-08
5.59542e-06
-8.04439e-08
5.61047e-06
-8.20817e-08
5.62466e-06
-8.06907e-08
5.63805e-06
-7.79934e-08
5.65069e-06
-7.45187e-08
5.66254e-06
-7.04074e-08
5.6736e-06
-6.58749e-08
5.68389e-06
-6.11515e-08
5.69347e-06
-5.64122e-08
5.70238e-06
-5.17865e-08
5.7107e-06
-4.73692e-08
5.71855e-06
-4.32761e-08
5.72597e-06
-3.95158e-08
-3.63172e-08
5.73323e-06
4.87637e-06
-5.80552e-08
4.90589e-06
-9.29866e-08
4.93294e-06
-9.62529e-08
4.95638e-06
-9.94724e-08
4.97534e-06
-9.94016e-08
4.98915e-06
-9.58935e-08
4.99792e-06
-8.94587e-08
5.00206e-06
-8.21271e-08
5.00226e-06
-7.47253e-08
4.99935e-06
-6.74907e-08
4.99406e-06
-6.05877e-08
4.98705e-06
-5.41397e-08
4.97884e-06
-4.82093e-08
4.96988e-06
-4.28214e-08
4.96049e-06
-3.79817e-08
4.95094e-06
-3.37274e-08
4.94149e-06
-3.00621e-08
-2.74732e-08
4.93264e-06
4.14462e-06
4.05163e-06
3.95538e-06
3.85591e-06
3.75651e-06
3.66061e-06
3.57116e-06
3.48903e-06
3.4143e-06
3.34681e-06
3.28622e-06
3.23208e-06
3.18388e-06
3.14105e-06
3.10307e-06
3.06934e-06
3.03928e-06
3.01181e-06
-2.98984e-07
2.98984e-07
-4.9835e-07
1.99366e-07
-4.60122e-07
-3.82277e-08
-1.98665e-07
-2.61457e-07
2.14097e-07
-4.12762e-07
6.87777e-07
-4.7368e-07
1.15187e-06
-4.64094e-07
1.56222e-06
-4.10347e-07
1.89436e-06
-3.32142e-07
2.13503e-06
-2.40666e-07
2.27649e-06
-1.41467e-07
2.31389e-06
-3.73959e-08
2.23973e-06
7.41611e-08
2.055e-06
1.84729e-07
1.76953e-06
2.85466e-07
1.40165e-06
3.67886e-07
9.80519e-07
4.21129e-07
5.47827e-07
4.32692e-07
1.58012e-07
3.89815e-07
-1.28827e-07
2.86839e-07
-2.70804e-07
1.41977e-07
-2.79183e-07
8.37832e-09
-2.11539e-07
-6.76433e-08
-1.78257e-07
-3.32822e-08
-2.43361e-07
6.51038e-08
-4.31043e-07
1.87683e-07
-7.31709e-07
3.00666e-07
-1.11153e-06
3.79825e-07
-1.52867e-06
4.17136e-07
-1.94441e-06
4.15739e-07
-2.32944e-06
3.85036e-07
-2.66633e-06
3.36889e-07
-2.94909e-06
2.82757e-07
-3.17995e-06
2.30859e-07
-3.36508e-06
1.85126e-07
-3.51092e-06
1.4584e-07
-3.622e-06
1.11087e-07
-3.70025e-06
7.82432e-08
-3.74544e-06
4.51883e-08
-3.75598e-06
1.05398e-08
-3.73356e-06
-2.24157e-08
-3.67568e-06
-5.7882e-08
-3.58059e-06
-9.50891e-08
-3.44652e-06
-1.34068e-07
-3.27209e-06
-1.74426e-07
-3.05661e-06
-2.15489e-07
-2.8002e-06
-2.56406e-07
-2.50401e-06
-2.9619e-07
-2.17028e-06
-3.33727e-07
-1.80249e-06
-3.67794e-07
-1.40542e-06
-3.97064e-07
-9.85386e-07
-4.20039e-07
-5.50633e-07
-4.34753e-07
-1.11169e-07
-4.39464e-07
3.2343e-07
-4.34599e-07
7.40396e-07
-4.16966e-07
1.1241e-06
-3.83708e-07
1.45889e-06
-3.34787e-07
1.72973e-06
-2.70837e-07
1.92325e-06
-1.93517e-07
2.02848e-06
-1.05236e-07
2.04182e-06
-1.33378e-08
1.9593e-06
8.25206e-08
1.81052e-06
1.48778e-07
1.62755e-06
1.82973e-07
1.44191e-06
1.85637e-07
1.27847e-06
1.63441e-07
1.15071e-06
1.27764e-07
1.05841e-06
9.22966e-08
9.91518e-07
6.68913e-08
9.43259e-07
4.82587e-08
9.24009e-07
1.92501e-08
9.58824e-07
-3.48149e-08
1.05555e-06
-9.67234e-08
1.18005e-06
-1.24506e-07
1.26038e-06
-8.03299e-08
1.23415e-06
2.62284e-08
1.07615e-06
1.58002e-07
7.66388e-07
3.09765e-07
2.83878e-07
4.8251e-07
-3.58639e-07
6.42517e-07
-1.1045e-06
7.45859e-07
-1.88963e-06
7.85129e-07
-2.66151e-06
7.71878e-07
-3.38392e-06
7.22417e-07
-4.0361e-06
6.52178e-07
-4.6098e-06
5.73704e-07
-5.10548e-06
4.95671e-07
-5.52853e-06
4.23049e-07
-5.88655e-06
3.5802e-07
-6.18748e-06
3.00933e-07
-6.43858e-06
2.511e-07
-6.64595e-06
2.07374e-07
-6.81445e-06
1.68496e-07
-6.94773e-06
1.33277e-07
-7.04843e-06
1.00701e-07
-7.11841e-06
6.99814e-08
-7.159e-06
4.05922e-08
-7.17135e-06
1.23479e-08
-7.16008e-06
-1.12667e-08
-7.12809e-06
-3.1994e-08
-7.07636e-06
-5.17306e-08
-7.005e-06
-7.13538e-08
-6.91366e-06
-9.1341e-08
-6.80177e-06
-1.11893e-07
-6.66863e-06
-1.33135e-07
-6.51348e-06
-1.55154e-07
-6.33547e-06
-1.78013e-07
-6.13372e-06
-2.01748e-07
-5.90735e-06
-2.26368e-07
-5.65551e-06
-2.51845e-07
-5.3774e-06
-2.78102e-07
-5.0724e-06
-3.05004e-07
-4.74006e-06
-3.3234e-07
-4.38025e-06
-3.59813e-07
-3.99322e-06
-3.87024e-07
-3.57975e-06
-4.13471e-07
-3.1412e-06
-4.38549e-07
-2.67965e-06
-4.61557e-07
-2.1979e-06
-4.81741e-07
-1.69953e-06
-4.98373e-07
-1.18876e-06
-5.10767e-07
-6.70518e-07
-5.18247e-07
-1.49749e-07
-5.20769e-07
3.68802e-07
-5.18551e-07
8.79012e-07
-5.1021e-07
1.37451e-06
-4.95502e-07
1.85007e-06
-4.75558e-07
2.30115e-06
-4.51076e-07
2.72393e-06
-4.22785e-07
3.11532e-06
-3.9139e-07
3.47288e-06
-3.57559e-07
3.7948e-06
-3.21915e-07
4.07984e-06
-2.85042e-07
4.32732e-06
-2.47479e-07
4.53705e-06
-2.09729e-07
4.70931e-06
-1.72258e-07
4.84485e-06
-1.35544e-07
4.94464e-06
-9.97902e-08
5.01001e-06
-6.53706e-08
5.0408e-06
-3.07929e-08
5.03312e-06
7.68877e-09
4.98329e-06
4.9823e-08
4.89486e-06
8.8433e-08
4.77265e-06
1.22206e-07
4.62175e-06
1.50901e-07
4.44748e-06
1.7427e-07
4.25587e-06
1.91611e-07
4.05387e-06
2.01997e-07
3.84925e-06
2.04621e-07
3.65011e-06
1.99144e-07
3.4641e-06
1.86005e-07
3.29752e-06
1.66583e-07
3.15451e-06
1.43012e-07
3.03673e-06
1.17776e-07
2.94352e-06
9.32173e-08
2.87237e-06
7.1147e-08
2.81972e-06
5.26485e-08
2.78163e-06
3.80941e-08
2.75432e-06
2.73043e-08
2.73456e-06
1.97649e-08
2.71973e-06
1.48271e-08
2.70788e-06
1.18536e-08
2.69758e-06
1.02997e-08
2.68783e-06
9.74539e-09
2.67794e-06
9.89394e-09
2.66738e-06
1.05595e-08
2.65573e-06
1.16448e-08
2.64261e-06
1.31256e-08
2.62757e-06
1.50414e-08
2.61007e-06
1.74959e-08
2.5894e-06
2.06663e-08
2.56457e-06
2.48338e-08
2.53415e-06
3.04164e-08
2.49601e-06
3.81447e-08
2.447e-06
4.90041e-08
2.38194e-06
6.50604e-08
2.29468e-06
8.7264e-08
2.16462e-06
1.30057e-07
1.70243e-07
1.99438e-06
-3.95054e-08
3.3849e-07
9.97726e-08
6.00876e-08
4.37883e-07
-3.76338e-07
8.77264e-07
-7.00838e-07
1.32182e-06
-8.5732e-07
1.72297e-06
-8.74826e-07
2.06259e-06
-8.03718e-07
2.33639e-06
-6.84144e-07
2.54516e-06
-5.40915e-07
2.69133e-06
-3.86833e-07
2.7774e-06
-2.27535e-07
2.80547e-06
-6.54678e-08
2.77923e-06
1.00404e-07
2.69347e-06
2.7049e-07
2.53659e-06
4.42347e-07
2.29639e-06
6.08084e-07
1.96448e-06
7.5304e-07
1.54163e-06
8.55539e-07
1.04261e-06
8.88833e-07
5.02351e-07
8.27098e-07
-1.42624e-08
6.58591e-07
-4.27728e-07
4.21844e-07
-7.79607e-07
2.84236e-07
-1.13541e-06
3.22523e-07
-1.52319e-06
4.52882e-07
-1.92281e-06
5.87306e-07
-2.30257e-06
6.80418e-07
-2.63785e-06
7.15109e-07
-2.914e-06
6.93291e-07
-3.12889e-06
6.30621e-07
-3.29186e-06
5.48006e-07
-3.41897e-06
4.63998e-07
-3.52654e-06
3.90334e-07
-3.6265e-06
3.30816e-07
-3.72423e-06
2.82862e-07
-3.81936e-06
2.40963e-07
-3.90793e-06
1.99663e-07
-3.98474e-06
1.55049e-07
-4.04449e-06
1.04935e-07
-4.08246e-06
4.8512e-08
-4.0897e-06
-1.5171e-08
-4.06244e-06
-8.51432e-08
-3.99697e-06
-1.60562e-07
-3.89079e-06
-2.40245e-07
-3.74239e-06
-3.22827e-07
-3.55111e-06
-4.06765e-07
-3.31718e-06
-4.90343e-07
-3.0417e-06
-5.71671e-07
-2.72674e-06
-6.48683e-07
-2.37539e-06
-7.19141e-07
-1.99184e-06
-7.80622e-07
-1.5814e-06
-8.30478e-07
-1.15029e-06
-8.65855e-07
-7.05826e-07
-8.83934e-07
-2.58352e-07
-8.82072e-07
1.81663e-07
-8.56981e-07
6.03333e-07
-8.05377e-07
9.94748e-07
-7.26202e-07
1.34418e-06
-6.20273e-07
1.64162e-06
-4.90958e-07
1.8808e-06
-3.44415e-07
2.05724e-06
-1.89776e-07
2.17432e-06
-3.45606e-08
2.2183e-06
1.04799e-07
2.18997e-06
2.11306e-07
2.10279e-06
2.72812e-07
1.97824e-06
2.87991e-07
1.84099e-06
2.65018e-07
1.71394e-06
2.19348e-07
1.61177e-06
1.69062e-07
1.53536e-06
1.24663e-07
1.47577e-06
7.88489e-08
1.41924e-06
2.17134e-08
1.33989e-06
-1.73746e-08
1.19498e-06
2.03981e-08
9.19466e-07
1.95188e-07
4.53979e-07
4.91715e-07
-2.29134e-07
8.41115e-07
-1.08569e-06
1.16632e-06
-2.0105e-06
1.40732e-06
-2.90354e-06
1.53555e-06
-3.70674e-06
1.54905e-06
-4.39249e-06
1.47088e-06
-4.95425e-06
1.33364e-06
-5.40044e-06
1.16861e-06
-5.74796e-06
9.99702e-07
-6.01613e-06
8.41873e-07
-6.22278e-06
7.02317e-07
-6.3825e-06
5.82777e-07
-6.50636e-06
4.81879e-07
-6.60229e-06
3.96861e-07
-6.67583e-06
3.24636e-07
-6.73083e-06
2.62373e-07
-6.77003e-06
2.07697e-07
-6.79548e-06
1.58727e-07
-6.8088e-06
1.14023e-07
-6.81133e-06
7.25123e-08
-6.80418e-06
3.34398e-08
-6.78784e-06
-3.99136e-09
-6.75841e-06
-4.06902e-08
-6.71256e-06
-7.78496e-08
-6.6487e-06
-1.15586e-07
-6.56603e-06
-1.54028e-07
-6.46394e-06
-1.9343e-07
-6.34181e-06
-2.34026e-07
-6.19893e-06
-2.7601e-07
-6.03455e-06
-3.19537e-07
-5.84784e-06
-3.6472e-07
-5.63796e-06
-4.11632e-07
-5.40404e-06
-4.60287e-07
-5.14525e-06
-5.10632e-07
-4.86083e-06
-5.62519e-07
-4.55016e-06
-6.15684e-07
-4.21278e-06
-6.69715e-07
-3.84856e-06
-7.24032e-07
-3.45773e-06
-7.77853e-07
-3.04101e-06
-8.30191e-07
-2.59971e-06
-8.79851e-07
-2.1358e-06
-9.25468e-07
-1.65196e-06
-9.65583e-07
-1.15157e-06
-9.98758e-07
-6.38661e-07
-1.02368e-06
-1.17388e-07
-1.03952e-06
4.06941e-07
-1.0451e-06
9.27619e-07
-1.03923e-06
1.4389e-06
-1.02149e-06
1.93571e-06
-9.92316e-07
2.4131e-06
-9.52944e-07
2.86671e-06
-9.04686e-07
3.29284e-06
-8.48912e-07
3.68844e-06
-7.86997e-07
4.05115e-06
-7.20262e-07
4.37918e-06
-6.49948e-07
4.67134e-06
-5.77201e-07
4.92694e-06
-5.03082e-07
5.14579e-06
-4.28581e-07
5.32816e-06
-3.54629e-07
5.47473e-06
-2.82111e-07
5.58674e-06
-2.11796e-07
5.66571e-06
-1.44342e-07
5.71547e-06
-8.05575e-08
5.74372e-06
-2.05605e-08
5.75741e-06
3.61307e-08
5.75646e-06
8.93854e-08
5.74046e-06
1.38212e-07
5.70926e-06
1.82098e-07
5.66298e-06
2.20549e-07
5.60184e-06
2.52755e-07
5.52626e-06
2.77569e-07
5.43721e-06
2.93675e-07
5.3364e-06
2.99955e-07
5.22641e-06
2.95995e-07
5.11051e-06
2.82484e-07
4.99225e-06
2.61268e-07
4.87502e-06
2.35008e-07
4.76163e-06
2.06605e-07
4.65415e-06
1.7863e-07
4.55385e-06
1.52947e-07
4.46133e-06
1.30611e-07
4.37667e-06
1.11967e-07
4.29957e-06
9.68667e-08
4.22951e-06
8.48889e-08
4.16584e-06
7.55195e-08
4.10788e-06
6.82655e-08
4.05491e-06
6.27137e-08
4.00625e-06
5.85504e-08
3.96125e-06
5.55612e-08
3.91927e-06
5.36201e-08
3.87972e-06
5.26808e-08
3.84199e-06
5.27736e-08
3.80547e-06
5.40118e-08
3.76953e-06
5.66092e-08
3.73344e-06
6.09272e-08
3.69634e-06
6.75129e-08
3.65714e-06
7.73427e-08
3.61449e-06
9.16546e-08
3.56586e-06
1.13689e-07
3.50872e-06
1.44405e-07
3.43513e-06
2.03645e-07
2.68632e-07
3.33674e-06
1.65652e-07
1.72838e-07
6.13173e-07
-3.87433e-07
1.13476e-06
-8.97927e-07
1.58357e-06
-1.14965e-06
1.91713e-06
-1.19088e-06
2.15286e-06
-1.11056e-06
2.32046e-06
-9.71317e-07
2.44241e-06
-8.06087e-07
2.53064e-06
-6.29154e-07
2.58944e-06
-4.45626e-07
2.61875e-06
-2.5685e-07
2.61629e-06
-6.30009e-08
2.58091e-06
1.35775e-07
2.51178e-06
3.39628e-07
2.40554e-06
5.48581e-07
2.25339e-06
7.60237e-07
2.03977e-06
9.66664e-07
1.74452e-06
1.15079e-06
1.3494e-06
1.28395e-06
8.48947e-07
1.32755e-06
2.63822e-07
1.24372e-06
-3.4925e-07
1.03492e-06
-9.175e-07
8.52486e-07
-1.43387e-06
8.38896e-07
-1.89731e-06
9.16324e-07
-2.28895e-06
9.78938e-07
-2.5895e-06
9.80967e-07
-2.79995e-06
9.25567e-07
-2.94394e-06
8.37281e-07
-3.05608e-06
7.42754e-07
-3.16781e-06
6.59738e-07
-3.29833e-06
5.94515e-07
-3.45272e-06
5.44728e-07
-3.6255e-06
5.03595e-07
-3.8061e-06
4.63466e-07
-3.98326e-06
4.18122e-07
-4.14725e-06
3.6365e-07
-4.29041e-06
2.98207e-07
-4.40675e-06
2.21276e-07
-4.49128e-06
1.33045e-07
-4.54074e-06
3.42841e-08
-4.55155e-06
-7.43329e-08
-4.5215e-06
-1.90607e-07
-4.4487e-06
-3.13047e-07
-4.3319e-06
-4.39627e-07
-4.17057e-06
-5.68097e-07
-3.96492e-06
-6.9599e-07
-3.71597e-06
-8.20617e-07
-3.42559e-06
-9.39067e-07
-3.09653e-06
-1.0482e-06
-2.73251e-06
-1.14464e-06
-2.33823e-06
-1.22476e-06
-1.9193e-06
-1.28478e-06
-1.48242e-06
-1.32082e-06
-1.03551e-06
-1.32898e-06
-5.86996e-07
-1.30549e-06
-1.45308e-07
-1.24707e-06
2.79965e-07
-1.15148e-06
6.78175e-07
-1.01848e-06
1.03862e-06
-8.51402e-07
1.35146e-06
-6.57254e-07
1.6086e-06
-4.46917e-07
1.8074e-06
-2.33366e-07
1.94526e-06
-3.30556e-08
2.0149e-06
1.4167e-07
2.01933e-06
2.6838e-07
1.96742e-06
3.39901e-07
1.87495e-06
3.57487e-07
1.76084e-06
3.33456e-07
1.64154e-06
2.88366e-07
1.52371e-06
2.42487e-07
1.39675e-06
2.05815e-07
1.22556e-06
1.92901e-07
9.49207e-07
2.58977e-07
4.88533e-07
4.81072e-07
-1.86408e-07
8.70129e-07
-1.02506e-06
1.33037e-06
-1.92076e-06
1.73682e-06
-2.76568e-06
2.01124e-06
-3.4862e-06
2.12784e-06
-4.05235e-06
2.1017e-06
-4.47292e-06
1.96963e-06
-4.7772e-06
1.77516e-06
-4.99999e-06
1.55643e-06
-5.17175e-06
1.34037e-06
-5.31426e-06
1.14221e-06
-5.44046e-06
9.68076e-07
-5.55657e-06
8.18426e-07
-5.6646e-06
6.90811e-07
-5.76444e-06
5.81717e-07
-5.85513e-06
4.87551e-07
-5.93559e-06
4.0509e-07
-6.00484e-06
3.31623e-07
-6.06208e-06
2.64945e-07
-6.10665e-06
2.03289e-07
-6.13787e-06
1.45245e-07
-6.15504e-06
8.96832e-08
-6.15726e-06
3.56612e-08
-6.14359e-06
-1.76591e-08
-6.11311e-06
-7.11764e-08
-6.06551e-06
-1.25447e-07
-6.00039e-06
-1.80707e-07
-5.91717e-06
-2.37251e-07
-5.81523e-06
-2.95363e-07
-5.69394e-06
-3.55322e-07
-5.55257e-06
-4.17375e-07
-5.39038e-06
-4.81734e-07
-5.20653e-06
-5.48562e-07
-5.0002e-06
-6.17963e-07
-4.77053e-06
-6.89963e-07
-4.51667e-06
-7.64488e-07
-4.23786e-06
-8.41332e-07
-3.93343e-06
-9.20114e-07
-3.6029e-06
-1.00024e-06
-3.24608e-06
-1.08085e-06
-2.86312e-06
-1.16082e-06
-2.45464e-06
-1.23867e-06
-2.02186e-06
-1.31263e-06
-1.56666e-06
-1.38067e-06
-1.0916e-06
-1.44063e-06
-5.99998e-07
-1.49036e-06
-9.56733e-08
-1.528e-06
4.16189e-07
-1.55138e-06
9.29609e-07
-1.55852e-06
1.4389e-06
-1.54852e-06
1.93856e-06
-1.52115e-06
2.42348e-06
-1.47723e-06
2.88885e-06
-1.41831e-06
3.33045e-06
-1.34628e-06
3.7447e-06
-1.26316e-06
4.12871e-06
-1.171e-06
4.48021e-06
-1.07176e-06
4.79753e-06
-9.67275e-07
5.07956e-06
-8.59228e-07
5.32566e-06
-7.49178e-07
5.53566e-06
-6.38583e-07
5.70985e-06
-5.28823e-07
5.84896e-06
-4.2122e-07
5.95421e-06
-3.1704e-07
6.02729e-06
-2.17429e-07
6.07028e-06
-1.23541e-07
6.08626e-06
-3.65473e-08
6.07949e-06
4.29019e-08
6.05437e-06
1.14509e-07
6.01482e-06
1.77761e-07
5.96451e-06
2.32412e-07
5.90667e-06
2.78384e-07
5.84389e-06
3.15533e-07
5.77789e-06
3.43575e-07
5.70945e-06
3.62108e-07
5.63863e-06
3.70776e-07
5.56507e-06
3.69555e-07
5.48849e-06
3.59068e-07
5.40901e-06
3.40744e-07
5.32732e-06
3.167e-07
5.24453e-06
2.89392e-07
5.16198e-06
2.61181e-07
5.08094e-06
2.33984e-07
5.00247e-06
2.09089e-07
4.92727e-06
1.87165e-07
4.85575e-06
1.68379e-07
4.78807e-06
1.52571e-07
4.72418e-06
1.3941e-07
4.66393e-06
1.28519e-07
4.60709e-06
1.1955e-07
4.55342e-06
1.12227e-07
4.50262e-06
1.06356e-07
4.45441e-06
1.01835e-07
4.40844e-06
9.86446e-08
4.36436e-06
9.6852e-08
4.32176e-06
9.66203e-08
4.28014e-06
9.8228e-08
4.23894e-06
1.0212e-07
4.19751e-06
1.08951e-07
4.15502e-06
1.19828e-07
4.11052e-06
1.36158e-07
4.06288e-06
1.61325e-07
4.01039e-06
1.96896e-07
3.95454e-06
2.59491e-07
3.33823e-07
3.88935e-06
3.79131e-07
-2.06294e-07
9.80877e-07
-9.89178e-07
1.45174e-06
-1.36879e-06
1.73349e-06
-1.4314e-06
1.88669e-06
-1.34408e-06
1.97637e-06
-1.20024e-06
2.04058e-06
-1.03553e-06
2.09407e-06
-8.59578e-07
2.13876e-06
-6.73839e-07
2.17148e-06
-4.78348e-07
2.18802e-06
-2.73389e-07
2.18457e-06
-5.95525e-08
2.15791e-06
1.62435e-07
2.10532e-06
3.92216e-07
2.02452e-06
6.2938e-07
1.91185e-06
8.7291e-07
1.759e-06
1.11951e-06
1.55005e-06
1.35974e-06
1.26179e-06
1.57221e-06
8.70661e-07
1.71868e-06
3.67366e-07
1.74701e-06
-2.21083e-07
1.62336e-06
-8.06771e-07
1.43817e-06
-1.32796e-06
1.36009e-06
-1.76222e-06
1.35058e-06
-2.10013e-06
1.31684e-06
-2.3475e-06
1.22834e-06
-2.53213e-06
1.11019e-06
-2.69396e-06
9.99119e-07
-2.86694e-06
9.15732e-07
-3.068e-06
8.60792e-07
-3.29768e-06
8.24196e-07
-3.54673e-06
7.93783e-07
-3.80274e-06
7.596e-07
-4.05422e-06
7.14944e-07
-4.2921e-06
6.56008e-07
-4.50954e-06
5.81091e-07
-4.70115e-06
4.89811e-07
-4.86239e-06
3.82518e-07
-4.98938e-06
2.60031e-07
-5.07866e-06
1.23571e-07
-5.12764e-06
-2.53548e-08
-5.1339e-06
-1.84349e-07
-5.09573e-06
-3.5122e-07
-5.01203e-06
-5.2332e-07
-4.88239e-06
-6.97738e-07
-4.70706e-06
-8.71322e-07
-4.48699e-06
-1.04069e-06
-4.22383e-06
-1.20223e-06
-3.91996e-06
-1.35207e-06
-3.5785e-06
-1.48609e-06
-3.20337e-06
-1.5999e-06
-2.79933e-06
-1.68883e-06
-2.37206e-06
-1.74809e-06
-1.92819e-06
-1.77285e-06
-1.47514e-06
-1.75854e-06
-1.02088e-06
-1.70133e-06
-5.7367e-07
-1.59868e-06
-1.42078e-07
-1.45008e-06
2.64189e-07
-1.25767e-06
6.34471e-07
-1.02754e-06
9.58428e-07
-7.70874e-07
1.228e-06
-5.02933e-07
1.43626e-06
-2.41318e-07
1.58126e-06
-3.33593e-09
1.65848e-06
1.91165e-07
1.67143e-06
3.26946e-07
1.62816e-06
4.00757e-07
1.53953e-06
4.22088e-07
1.41536e-06
4.12537e-07
1.25675e-06
4.01094e-07
1.04095e-06
4.21613e-07
7.09217e-07
5.24637e-07
1.88199e-07
7.79995e-07
-5.39611e-07
1.20888e-06
-1.38644e-06
1.71696e-06
-2.2172e-06
2.16113e-06
-2.92753e-06
2.44715e-06
-3.46722e-06
2.55093e-06
-3.83833e-06
2.49895e-06
-4.07622e-06
2.33959e-06
-4.22832e-06
2.12173e-06
-4.33723e-06
1.88407e-06
-4.43246e-06
1.65166e-06
-4.52957e-06
1.43748e-06
-4.63359e-06
1.24623e-06
-4.74342e-06
1.07791e-06
-4.85535e-06
9.30353e-07
-4.96516e-06
8.00623e-07
-5.06916e-06
6.85717e-07
-5.16447e-06
5.82863e-07
-5.249e-06
4.89617e-07
-5.32126e-06
4.03887e-07
-5.38022e-06
3.23901e-07
-5.42511e-06
2.48178e-07
-5.45534e-06
1.75478e-07
-5.47041e-06
1.04755e-07
-5.46985e-06
3.5099e-08
-5.45326e-06
-3.42498e-08
-5.42037e-06
-1.04072e-07
-5.37091e-06
-1.74904e-07
-5.30447e-06
-2.47144e-07
-5.22054e-06
-3.21179e-07
-5.11854e-06
-3.97366e-07
-4.99782e-06
-4.76043e-07
-4.85768e-06
-5.57514e-07
-4.69737e-06
-6.42041e-07
-4.5161e-06
-7.29836e-07
-4.31302e-06
-8.21038e-07
-4.0873e-06
-9.15685e-07
-3.8381e-06
-1.01369e-06
-3.56463e-06
-1.11481e-06
-3.26619e-06
-1.21855e-06
-2.94228e-06
-1.32415e-06
-2.5926e-06
-1.43053e-06
-2.21724e-06
-1.53618e-06
-1.81672e-06
-1.63918e-06
-1.39217e-06
-1.73718e-06
-9.45387e-07