/*--------------------------------*- C++ -*----------------------------------*\
| =========                 |                                                 |
| \\      /  F ield         | OpenFOAM: The Open Source CFD Toolbox           |
|  \\    /   O peration     | Version:  2112                                  |
|   \\  /    A nd           | Website:  www.openfoam.com                      |
|    \\/     M anipulation  |                                                 |
\*---------------------------------------------------------------------------*/
FoamFile
{
    version     2.0;
    format      ascii;
    arch        "LSB;label=32;scalar=64";
    class       volScalarField;
    location    "0.42";
    object      nut;
}
// * * * * * * * * * * * * * * * * * * * * * * * * * * * * * * * * * * * * * //

dimensions      [0 2 -1 0 0 0 0];

internalField   nonuniform List<scalar> 
12225
(
5.44253e-06
8.85186e-06
1.18524e-05
1.48661e-05
1.81856e-05
2.2004e-05
2.64539e-05
3.16333e-05
3.76115e-05
4.44332e-05
5.21163e-05
6.06532e-05
7.0013e-05
8.01471e-05
9.09975e-05
0.000102469
0.000114641
0.000127348
4.55011e-05
2.36367e-05
1.84998e-05
1.70037e-05
1.6988e-05
1.78039e-05
1.91914e-05
2.10135e-05
2.31716e-05
2.55806e-05
2.81661e-05
3.08698e-05
3.36565e-05
3.6522e-05
3.94902e-05
4.26414e-05
4.64382e-05
5.12378e-05
0.000378401
0.000141363
0.00010826
7.4505e-05
5.44796e-05
4.34104e-05
3.69026e-05
3.29523e-05
3.05595e-05
2.91695e-05
2.84567e-05
2.82263e-05
2.83622e-05
2.8797e-05
2.94916e-05
3.04303e-05
3.16204e-05
3.29656e-05
0.00124197
0.000932723
0.000530687
0.000355305
0.00026106
0.00020967
0.000182538
0.000149165
0.000124689
0.000107473
9.48891e-05
8.53722e-05
7.7956e-05
7.20302e-05
6.72093e-05
6.32488e-05
5.99968e-05
5.74403e-05
0.00146212
0.00142026
0.00123931
0.00107844
0.00089003
0.000730198
0.000610603
0.000527991
0.000471976
0.000436156
0.000388658
0.000346942
0.00031346
0.000285935
0.000262932
0.000243521
0.000227032
0.000213489
0.00151266
0.00150334
0.0014831
0.00144876
0.00130235
0.00116116
0.00105823
0.000983783
0.000928971
0.00089099
0.00086895
0.000855875
0.000842858
0.000795736
0.000749333
0.000708013
0.000635383
0.000561778
0.00151436
0.00151333
0.00151071
0.00150543
0.00144209
0.0013211
0.00124157
0.00119043
0.00115942
0.00114434
0.0011413
0.00113961
0.00112777
0.00109571
0.00103607
0.000953385
0.000859442
0.000783527
0.00151437
0.00151409
0.00151375
0.00151315
0.00151211
0.00144207
0.00135992
0.00130596
0.00127446
0.0012596
0.00125244
0.00124296
0.00122118
0.00118115
0.0011193
0.00104097
0.000957895
0.000893379
0.00151427
0.00151396
0.00151376
0.00151366
0.00151362
0.00151358
0.00147838
0.00142109
0.00138267
0.00135869
0.00134149
0.0013221
0.00129194
0.00124594
0.00118503
0.00111513
0.00104385
0.000988925
0.00151418
0.00151379
0.00151352
0.00151338
0.00151337
0.00151345
0.00151359
0.00151375
0.00148884
0.00146066
0.00143768
0.00141192
0.00137589
0.0013265
0.00126636
0.00120157
0.00113877
0.00109182
0.00151412
0.00151366
0.00151332
0.0015131
0.001513
0.001513
0.00151309
0.00151322
0.00151339
0.00151356
0.00151374
0.00149948
0.00146373
0.00141655
0.00136011
0.00130129
0.00124655
0.00120689
0.00151408
0.00151357
0.00151318
0.00151289
0.00151271
0.00151264
0.00151264
0.0015127
0.0015128
0.00151292
0.00151307
0.00151322
0.0015134
0.00149702
0.00145028
0.00140122
0.00135562
0.00132326
0.00151404
0.0015135
0.00151306
0.00151272
0.00151248
0.00151233
0.00151225
0.00151224
0.00151226
0.00151232
0.00151241
0.00151251
0.00151264
0.00151279
0.00151295
0.00149372
0.00145952
0.0014357
0.00151401
0.00151344
0.00151295
0.00151256
0.00151227
0.00151205
0.0015119
0.00151181
0.00151176
0.00151174
0.00151175
0.00151179
0.00151185
0.00151193
0.00151203
0.00151215
0.00151227
0.00151239
0.00151399
0.00151338
0.00151286
0.00151243
0.00151207
0.0015118
0.00151158
0.00151142
0.0015113
0.00151121
0.00151115
0.00151111
0.0015111
0.0015111
0.00151112
0.00151116
0.0015112
0.00151125
0.00151397
0.00151334
0.00151279
0.00151231
0.00151192
0.00151158
0.00151131
0.00151109
0.0015109
0.00151075
0.00151062
0.00151051
0.00151042
0.00151034
0.00151028
0.00151023
0.00151019
0.00151015
0.00151396
0.00151331
0.00151273
0.00151223
0.00151179
0.00151142
0.0015111
0.00151082
0.00151058
0.00151037
0.00151018
0.00151
0.00150984
0.0015097
0.00150956
0.00150944
0.00150931
0.0015092
0.00151395
0.0015133
0.00151271
0.00151218
0.00151172
0.00151131
0.00151096
0.00151064
0.00151035
0.00151009
0.00150984
0.00150962
0.0015094
0.00150919
0.001509
0.0015088
0.00150862
0.00150844
0.00151396
0.0015133
0.00151271
0.00151218
0.0015117
0.00151128
0.0015109
0.00151056
0.00151024
0.00150994
0.00150966
0.0015094
0.00150914
0.00150888
0.00150864
0.0015084
0.00150816
0.00150793
0.00151397
0.00151333
0.00151275
0.00151222
0.00151176
0.00151134
0.00151096
0.00151061
0.00151029
0.00150998
0.00150969
0.0015094
0.00150913
0.00150885
0.00150858
0.00150831
0.00150805
0.00150779
0.00151399
0.00151337
0.00151281
0.0015123
0.00151185
0.00151144
0.00151108
0.00151074
0.00151043
0.00151013
0.00150985
0.00150957
0.00150929
0.00150902
0.00150875
0.00150847
0.0015082
0.00150794
0.00151402
0.00151342
0.00151289
0.00151241
0.00151198
0.0015116
0.00151126
0.00151095
0.00151066
0.00151039
0.00151013
0.00150987
0.00150962
0.00150935
0.00150909
0.00150882
0.00150854
0.00150827
0.00151406
0.0015135
0.00151299
0.00151254
0.00151214
0.00151179
0.00151148
0.00151119
0.00151091
0.00151063
0.00151034
0.00151002
0.00150967
0.00150929
0.00150886
0.00150839
0.00150787
0.00150731
0.00151411
0.00151359
0.00151311
0.00151264
0.00151216
0.00151163
0.001511
0.0015102
0.00150919
0.00150792
0.00150635
0.00150445
0.00150221
0.00149963
0.00149672
0.0014935
0.00148998
0.00148619
0.00151415
0.00151348
0.0015124
0.00151055
0.00150756
0.00150308
0.00149676
0.00148835
0.00147772
0.00146484
0.00144984
0.00143293
0.00141441
0.0013946
0.00137383
0.00135239
0.00133052
0.00130845
0.00151289
0.00150707
0.00149382
0.00147024
0.00143592
0.00139085
0.00133585
0.00127285
0.00120457
0.00113398
0.00106378
0.000996118
0.000932673
0.000874235
0.000820882
0.000772409
0.000728494
0.000688772
0.00148117
0.00139612
0.00124963
0.00106999
0.000787368
0.00060135
0.000485511
0.000408012
0.000354242
0.000316795
0.000291135
0.000274406
0.00025112
0.000226436
0.000206327
0.000189696
0.000175763
0.000163963
0.000885689
0.000319603
0.000214728
0.000175185
0.000157415
0.000118574
9.41549e-05
7.79112e-05
6.66674e-05
5.86624e-05
5.28498e-05
4.85724e-05
4.53952e-05
4.30265e-05
4.12649e-05
3.99658e-05
3.90243e-05
3.8363e-05
9.96652e-05
4.4852e-05
3.05042e-05
2.47266e-05
2.21e-05
2.09575e-05
2.06588e-05
2.09094e-05
2.1555e-05
2.25034e-05
2.36923e-05
2.50743e-05
2.66102e-05
2.82658e-05
3.00106e-05
3.18189e-05
3.36712e-05
3.5554e-05
5.37152e-06
8.39345e-06
1.09997e-05
1.34368e-05
1.58725e-05
1.83003e-05
2.09159e-05
2.37875e-05
2.69509e-05
3.04297e-05
3.424e-05
3.8392e-05
4.28902e-05
4.77337e-05
5.29157e-05
5.84239e-05
6.42454e-05
7.03475e-05
0.000437213
0.00048303
0.000551824
0.000622605
0.000685619
0.000738397
0.000781791
0.000817661
0.000847834
0.000873755
0.000896453
0.000916607
0.000934646
0.000950563
0.000952413
0.000954423
0.000958484
0.000963494
0.000968879
0.000974564
0.000980577
0.000986913
0.000993537
0.0010004
0.00100744
0.0010146
0.00102185
0.00102913
0.0010364
0.00104362
0.00105076
0.00105778
0.00106466
0.00107138
0.00107791
0.00108423
0.00109033
0.00109619
0.00110179
0.00110714
0.00111221
0.001117
0.0011215
0.00112572
0.00112964
0.00113328
0.00113662
0.00113967
0.00114243
0.00114491
0.00114711
0.00114903
0.0011507
0.0011521
0.00115325
0.00115416
0.00115484
0.0011553
0.00115554
0.00115557
0.00115541
0.00115506
0.00115452
0.00115382
0.00115296
0.00115194
0.00115077
0.00114947
0.00114804
0.00114649
0.00114483
0.00114306
0.00114121
0.00113928
0.00113727
0.0011352
0.00113309
0.00113093
0.00112874
0.00112654
0.00112432
0.00112209
0.00111986
0.00111763
0.0011154
0.00111318
0.00111097
0.00110875
0.00110654
0.00110433
0.00110212
0.00109991
0.00109769
0.00109546
0.00109322
0.00109097
0.00108869
0.00108638
0.00108404
0.00108165
0.00107921
0.0010767
0.00107413
0.00107147
0.00106873
0.00106589
0.00106294
0.00105987
0.00105669
0.00105336
0.0010499
0.0010463
0.00104253
0.00103861
0.0010345
0.00103021
0.00102578
0.00102119
0.00101639
0.00101145
0.00100639
0.00100121
0.000995921
0.000990533
0.000985044
0.000979461
0.000973786
0.000968026
0.000962187
0.000956276
0.000950301
0.000944271
0.000938199
0.000932096
0.000925978
0.000919864
0.000913772
0.000907726
0.00090175
0.000895872
0.000890125
0.000884541
0.000879157
0.000874008
0.000869127
0.000864544
0.000860287
0.00085638
0.00085285
0.000849729
0.000847056
0.000844878
0.000843248
0.000842227
0.000841882
0.00084229
0.000843539
0.000845737
0.000849014
0.000853526
0.000859464
0.00086706
0.000876608
0.000888485
0.000903187
0.000921364
0.000943895
0.000971999
0.00100743
0.00105276
0.00111196
0.00119141
0.00130198
0.00146377
0.00172475
0.00216908
0.00231472
0.00228665
0.00228183
0.00230589
0.000398317
0.000475724
0.000545011
0.000615425
0.000677317
0.000728419
0.000769769
0.00080337
0.000831154
0.000854653
0.000874973
0.000892878
0.000908898
0.000923428
0.000936804
0.000949339
0.000961326
0.000972941
0.00098429
0.000995434
0.00100641
0.00101722
0.00102788
0.00103836
0.00104867
0.00105878
0.00106869
0.00107837
0.00108783
0.00109704
0.00110602
0.00111475
0.00112323
0.00113145
0.00113943
0.00114715
0.00115461
0.00116183
0.0011688
0.00117553
0.00118201
0.00118825
0.00119426
0.00120004
0.00120558
0.00121091
0.00121602
0.00122091
0.0012256
0.00123008
0.00123436
0.00123845
0.00124234
0.00124605
0.00124957
0.00125292
0.00125608
0.00125907
0.00126188
0.00126452
0.00126698
0.00126926
0.00127136
0.00127328
0.00127502
0.00127656
0.0012779
0.00127903
0.00127994
0.00128061
0.00128104
0.00128119
0.00128105
0.00128059
0.00127977
0.00127855
0.00127689
0.00127473
0.00127202
0.00126868
0.00126468
0.00125998
0.00125455
0.00124842
0.00124162
0.00123421
0.00122628
0.00121793
0.00120925
0.00120034
0.00119131
0.00118222
0.00117317
0.00116419
0.00115535
0.00114668
0.00113821
0.00112995
0.00112193
0.00111414
0.00110659
0.00109929
0.00109225
0.00108546
0.00107894
0.00107269
0.00106674
0.0010611
0.00105579
0.00105084
0.00104629
0.00104217
0.00103853
0.0010354
0.00103286
0.00103096
0.00102974
0.00102925
0.00102939
0.00103009
0.00103137
0.00103327
0.00103581
0.00103901
0.00104289
0.00104747
0.00105277
0.00105882
0.00106562
0.00107319
0.00108153
0.00109065
0.00110051
0.00111112
0.00112242
0.00113435
0.00114684
0.00115979
0.00117305
0.00118647
0.00119984
0.00121294
0.00122555
0.00123746
0.00124855
0.00125882
0.00126843
0.00127776
0.00128725
0.00129739
0.00130856
0.00132104
0.00133502
0.00135065
0.00136808
0.00138747
0.00140901
0.00143288
0.0014593
0.00148851
0.00152075
0.00155628
0.00159538
0.00163833
0.00168537
0.0017367
0.00179242
0.00185247
0.00191651
0.00198376
0.00205287
0.00212159
0.00218659
0.0022432
0.00228523
0.00230434
0.00229078
0.00227254
0.00227002
0.00228863
0.000235706
0.000458504
0.00053309
0.000605774
0.000667952
0.000718205
0.00075809
0.0007899
0.000815737
0.000837241
0.000855599
0.000871642
0.000885958
0.000898978
0.000911039
0.000922411
0.000933302
0.000943855
0.000954161
0.000964274
0.000974223
0.000984019
0.000993661
0.00100315
0.00101246
0.0010216
0.00103056
0.00103932
0.00104789
0.00105626
0.00106443
0.0010724
0.00108018
0.00108776
0.00109515
0.00110235
0.00110938
0.00111622
0.0011229
0.00112942
0.00113578
0.00114198
0.00114805
0.00115397
0.00115976
0.00116543
0.00117098
0.00117641
0.00118173
0.00118694
0.00119205
0.00119707
0.00120198
0.00120679
0.0012115
0.00121612
0.00122063
0.00122503
0.00122932
0.00123349
0.00123752
0.00124142
0.00124516
0.00124874
0.00125213
0.00125531
0.00125827
0.00126099
0.00126343
0.00126557
0.00126739
0.00126884
0.0012699
0.00127054
0.00127072
0.0012704
0.00126957
0.00126818
0.00126623
0.00126371
0.00126063
0.00125701
0.00125289
0.00124833
0.0012434
0.00123819
0.00123278
0.00122727
0.00122175
0.00121631
0.00121102
0.00120596
0.00120118
0.00119673
0.00119264
0.00118896
0.0011857
0.00118288
0.0011805
0.00117859
0.00117714
0.00117615
0.00117564
0.0011756
0.00117603
0.00117694
0.00117832
0.00118019
0.00118253
0.00118535
0.00118866
0.00119246
0.00119674
0.00120152
0.00120679
0.00121261
0.00121889
0.00122554
0.00123275
0.00124053
0.0012489
0.00125788
0.00126749
0.00127773
0.0012886
0.0013001
0.00131224
0.00132498
0.00133832
0.00135223
0.00136668
0.00138163
0.00139703
0.00141282
0.00142892
0.00144526
0.00146172
0.00147822
0.00149462
0.00151082
0.00152671
0.00154217
0.00155714
0.0015716
0.00158559
0.00159923
0.0016127
0.00162625
0.00164012
0.00165454
0.00166967
0.00168563
0.00170248
0.00172028
0.00173907
0.00175892
0.00177986
0.00180197
0.00182528
0.00184986
0.00187574
0.00190297
0.00193156
0.0019615
0.00199275
0.00202521
0.0020587
0.00209292
0.00212742
0.00216154
0.00219442
0.00222488
0.00225142
0.00227232
0.00228554
0.00228848
0.00227864
0.00226795
0.00226657
0.00227766
0.000174175
0.00043277
0.000516816
0.000594279
0.000658091
0.00070828
0.000747287
0.000777855
0.000802305
0.000822385
0.000839347
0.000854061
0.000867139
0.000879021
0.000890035
0.000900429
0.000910386
0.000920033
0.000929455
0.000938703
0.000947807
0.000956779
0.000965624
0.000974341
0.000982927
0.000991378
0.000999692
0.00100787
0.00101591
0.00102381
0.00103158
0.00103923
0.00104676
0.00105417
0.00106148
0.00106869
0.00107581
0.00108285
0.00108983
0.00109674
0.0011036
0.00111043
0.00111722
0.00112399
0.00113075
0.0011375
0.00114426
0.00115103
0.00115782
0.00116463
0.00117146
0.00117833
0.00118523
0.00119216
0.00119912
0.00120611
0.00121312
0.00122015
0.00122719
0.00123423
0.00124125
0.00124824
0.00125519
0.00126207
0.00126887
0.00127557
0.00128214
0.00128856
0.00129481
0.00130087
0.00130672
0.00131233
0.00131769
0.00132278
0.00132761
0.00133215
0.00133641
0.0013404
0.00134414
0.00134764
0.00135095
0.00135409
0.00135711
0.00136005
0.00136297
0.0013659
0.00136889
0.00137199
0.00137522
0.00137862
0.00138222
0.00138604
0.00139009
0.00139438
0.00139893
0.00140374
0.00140882
0.00141419
0.00141984
0.00142578
0.00143203
0.00143859
0.00144546
0.00145267
0.0014602
0.00146807
0.00147628
0.00148482
0.00149371
0.00150293
0.00151249
0.00152235
0.00153252
0.00154299
0.00155363
0.00156431
0.00157525
0.0015865
0.00159808
0.00160998
0.0016222
0.00163473
0.00164755
0.00166066
0.00167403
0.00168764
0.00170147
0.00171548
0.00172964
0.00174392
0.00175829
0.00177268
0.00178707
0.0018014
0.00181561
0.00182966
0.00184349
0.00185705
0.00187029
0.00188317
0.00189568
0.0019078
0.00191955
0.00193096
0.00194209
0.00195303
0.00196386
0.00197467
0.00198557
0.0019966
0.00200781
0.00201923
0.00203088
0.00204275
0.00205486
0.00206722
0.00207982
0.00209269
0.0021058
0.00211917
0.00213278
0.00214664
0.00216071
0.00217494
0.00218927
0.0022036
0.00221783
0.00223178
0.0022452
0.00225776
0.00226916
0.00227898
0.00228669
0.00229192
0.00229419
0.00229244
0.00228583
0.00227952
0.0022778
0.00228191
0.000138967
0.000402622
0.000498124
0.000582189
0.000648761
0.000699552
0.000738151
0.000767899
0.000791383
0.000810471
0.000826464
0.000840258
0.000852476
0.000863559
0.000873829
0.000883525
0.000892819
0.000901835
0.000910657
0.000919339
0.000927913
0.000936397
0.000944801
0.00095313
0.000961387
0.000969572
0.000977691
0.000985746
0.000993745
0.00100169
0.0010096
0.00101748
0.00102533
0.00103318
0.00104103
0.0010489
0.0010568
0.00106475
0.00107276
0.00108085
0.00108903
0.00109732
0.00110573
0.00111428
0.00112299
0.00113188
0.00114094
0.00115021
0.00115968
0.00116938
0.00117932
0.00118949
0.00119991
0.00121059
0.00122151
0.00123269
0.00124413
0.0012558
0.00126772
0.00127986
0.00129221
0.00130476
0.00131748
0.00133036
0.00134337
0.0013565
0.0013697
0.00138297
0.00139627
0.00140958
0.00142287
0.00143612
0.00144932
0.00146245
0.00147548
0.00148841
0.00150123
0.00151393
0.00152651
0.00153896
0.0015513
0.00156352
0.00157563
0.00158762
0.00159951
0.00161128
0.00162295
0.0016345
0.00164595
0.00165728
0.0016685
0.00167959
0.00169057
0.00170144
0.00171219
0.00172283
0.00173338
0.00174385
0.00175426
0.00176462
0.00177495
0.00178527
0.0017956
0.00180596
0.00181636
0.00182682
0.00183734
0.00184794
0.00185861
0.00186936
0.00188018
0.00189107
0.0019019
0.00191255
0.00192316
0.00193382
0.00194454
0.00195533
0.00196618
0.00197707
0.001988
0.00199893
0.00200986
0.00202077
0.00203163
0.00204242
0.00205313
0.00206372
0.00207418
0.00208447
0.00209458
0.00210448
0.00211414
0.00212354
0.00213265
0.00214146
0.00214995
0.0021581
0.0021659
0.00217336
0.00218048
0.00218727
0.00219375
0.00219996
0.00220591
0.00221166
0.00221724
0.00222267
0.002228
0.00223322
0.00223835
0.0022434
0.00224835
0.00225322
0.00225801
0.00226272
0.00226737
0.00227193
0.0022764
0.00228077
0.00228504
0.00228922
0.00229333
0.00229731
0.0023011
0.00230465
0.00230796
0.002311
0.0023136
0.00231558
0.00231696
0.00231766
0.00231748
0.00231648
0.00231463
0.00231139
0.00230636
0.00230161
0.00229891
0.00229816
0.000118265
0.000371476
0.00047823
0.000569813
0.000639943
0.000691862
0.000730427
0.00075967
0.000782493
0.000800894
0.00081622
0.000829388
0.000841025
0.000851576
0.00086136
0.000870612
0.000879503
0.000888159
0.000896664
0.000905078
0.000913438
0.000921768
0.000930083
0.000938394
0.000946709
0.000955036
0.000963385
0.000971765
0.000980187
0.000988666
0.000997217
0.00100585
0.0010146
0.00102346
0.00103248
0.00104165
0.00105102
0.0010606
0.00107041
0.00108049
0.00109085
0.00110153
0.00111254
0.00112391
0.00113568
0.00114786
0.00116048
0.00117356
0.00118712
0.00120118
0.00121576
0.00123086
0.00124651
0.00126269
0.00127942
0.00129668
0.00131447
0.00133278
0.00135158
0.00137085
0.00139056
0.00141068
0.00143117
0.00145199
0.00147309
0.00149442
0.00151594
0.0015376
0.00155934
0.00158112
0.00160289
0.0016246
0.0016462
0.00166765
0.0016889
0.00170991
0.00173065
0.00175109
0.00177118
0.0017909
0.00181022
0.00182913
0.00184759
0.00186559
0.00188312
0.00190016
0.0019167
0.00193274
0.00194827
0.00196329
0.00197781
0.00199183
0.00200536
0.00201841
0.00203101
0.00204317
0.00205492
0.00206628
0.0020773
0.00208798
0.00209838
0.00210852
0.00211843
0.00212813
0.00213766
0.00214703
0.00215627
0.00216539
0.0021744
0.00218332
0.00219209
0.00220052
0.00220873
0.00221681
0.0022248
0.0022327
0.00224051
0.00224822
0.00225581
0.00226328
0.00227061
0.0022778
0.00228483
0.00229168
0.00229834
0.00230481
0.00231106
0.00231709
0.00232287
0.0023284
0.00233367
0.00233866
0.00234336
0.00234776
0.00235186
0.00235566
0.00235915
0.00236233
0.00236521
0.00236781
0.00237011
0.00237215
0.00237392
0.00237545
0.00237674
0.00237783
0.00237872
0.00237944
0.00237999
0.00238039
0.00238063
0.00238069
0.00238059
0.00238031
0.00237986
0.00237927
0.00237858
0.00237776
0.00237678
0.00237563
0.00237431
0.00237285
0.00237136
0.00236975
0.00236797
0.00236593
0.00236373
0.00236146
0.00235898
0.00235604
0.00235289
0.00234959
0.00234607
0.00234243
0.00233869
0.00233453
0.00232965
0.002325
0.00232124
0.00231758
0.000104715
0.000341359
0.000457985
0.00055734
0.000631537
0.000684985
0.000723806
0.000752781
0.000775163
0.000793088
0.000807958
0.000820705
0.000831964
0.000842183
0.000851681
0.000860696
0.000869401
0.000877924
0.000886354
0.000894755
0.000903171
0.000911631
0.000920157
0.000928766
0.000937471
0.000946287
0.000955231
0.000964318
0.000973568
0.000983002
0.000992642
0.00100251
0.00101264
0.00102306
0.0010338
0.00104488
0.00105635
0.00106824
0.00108059
0.00109342
0.00110678
0.00112071
0.00113524
0.00115041
0.00116625
0.0011828
0.00120008
0.00121813
0.00123696
0.00125659
0.00127704
0.0012983
0.00132038
0.00134326
0.00136693
0.00139136
0.00141652
0.00144236
0.00146883
0.00149587
0.00152343
0.00155144
0.00157981
0.00160848
0.00163736
0.00166638
0.00169544
0.00172449
0.00175343
0.00178219
0.00181069
0.00183888
0.00186668
0.00189402
0.00192086
0.00194714
0.0019728
0.0019978
0.00202211
0.00204568
0.00206849
0.0020905
0.00211171
0.0021321
0.00215165
0.00217037
0.00218825
0.00220531
0.00222154
0.00223698
0.00225163
0.00226551
0.00227866
0.0022911
0.00230287
0.00231398
0.00232449
0.00233444
0.00234385
0.00235278
0.00236125
0.00236932
0.00237701
0.00238437
0.00239141
0.00239819
0.00240472
0.00241102
0.00241717
0.00242288
0.00242825
0.00243341
0.00243837
0.00244317
0.0024478
0.00245226
0.00245655
0.00246066
0.00246458
0.0024683
0.00247183
0.00247515
0.00247825
0.00248114
0.00248381
0.00248624
0.00248844
0.0024904
0.00249212
0.00249358
0.00249478
0.00249571
0.00249638
0.00249678
0.0024969
0.00249676
0.00249635
0.00249568
0.00249477
0.00249363
0.00249225
0.00249066
0.00248885
0.00248683
0.00248461
0.00248219
0.00247959
0.00247682
0.0024739
0.00247086
0.00246768
0.00246434
0.00246084
0.00245715
0.00245328
0.00244925
0.0024452
0.00244107
0.00243682
0.00243243
0.00242784
0.00242308
0.00241844
0.00241377
0.00240901
0.00240397
0.00239885
0.00239387
0.00238881
0.00238362
0.00237835
0.00237305
0.00236778
0.00236265
0.00235767
0.00235264
0.00234733
0.00234224
0.00233754
0.00233226
9.55127e-05
0.000313418
0.000437886
0.00054476
0.000623294
0.00067856
0.000717865
0.000746756
0.000768858
0.000786461
0.000801023
0.000813498
0.000824529
0.000834566
0.000843935
0.000852877
0.000861569
0.000870142
0.000878693
0.000887291
0.000895983
0.000904807
0.000913789
0.000922953
0.00093232
0.000941912
0.000951752
0.000961865
0.000972277
0.000983021
0.000994128
0.00100563
0.00101758
0.00103
0.00104294
0.00105644
0.00107056
0.00108533
0.00110081
0.00111703
0.00113406
0.00115192
0.00117067
0.00119035
0.00121099
0.00123263
0.00125528
0.00127897
0.00130371
0.0013295
0.00135632
0.00138416
0.00141299
0.00144275
0.00147341
0.00150489
0.00153713
0.00157004
0.00160353
0.0016375
0.00167187
0.00170651
0.00174133
0.00177622
0.00181107
0.00184579
0.00188027
0.00191443
0.00194816
0.0019814
0.00201405
0.00204605
0.00207733
0.00210784
0.0021375
0.00216628
0.00219413
0.00222101
0.00224689
0.00227173
0.00229552
0.00231824
0.00233987
0.00236042
0.00237989
0.00239828
0.00241561
0.00243189
0.00244715
0.00246142
0.00247473
0.00248711
0.00249861
0.00250926
0.0025191
0.00252817
0.00253651
0.00254419
0.00255124
0.0025577
0.00256363
0.00256906
0.00257403
0.00257858
0.00258276
0.00258662
0.00259022
0.0025934
0.00259607
0.00259852
0.00260073
0.00260271
0.00260448
0.00260606
0.00260744
0.00260862
0.0026096
0.00261037
0.00261094
0.00261129
0.00261143
0.00261135
0.00261106
0.00261056
0.00260984
0.00260891
0.00260776
0.00260641
0.00260484
0.00260305
0.00260104
0.00259881
0.00259634
0.00259365
0.00259072
0.00258756
0.00258418
0.00258057
0.00257677
0.00257279
0.00256865
0.00256434
0.00255986
0.00255522
0.00255041
0.00254543
0.00254028
0.00253496
0.00252953
0.00252405
0.00251849
0.00251282
0.00250702
0.00250107
0.00249493
0.00248854
0.0024823
0.00247604
0.00246972
0.00246332
0.00245673
0.00244987
0.00244333
0.00243682
0.00243031
0.00242374
0.00241716
0.00241061
0.00240407
0.00239752
0.00239098
0.0023845
0.00237815
0.00237201
0.0023661
0.0023603
0.00235445
0.00234884
0.00234343
0.00233727
8.90353e-05
0.000288134
0.000418231
0.000532033
0.000614977
0.000672257
0.000712222
0.00074117
0.000763113
0.000780506
0.000794869
0.000807178
0.000818089
0.000828059
0.000837418
0.000846413
0.000855226
0.000863995
0.000872821
0.000881778
0.00089092
0.00090029
0.000909922
0.000919846
0.000930089
0.000940682
0.000951656
0.000963045
0.000974886
0.00098722
0.00100009
0.00101354
0.00102763
0.0010424
0.00105791
0.00107422
0.00109137
0.00110943
0.00112845
0.00114848
0.00116957
0.00119176
0.0012151
0.00123963
0.00126535
0.00129231
0.00132049
0.0013499
0.00138052
0.00141232
0.00144525
0.00147926
0.00151428
0.00155023
0.001587
0.00162451
0.00166263
0.00170126
0.00174027
0.00177954
0.00181894
0.00185835
0.00189764
0.00193669
0.0019754
0.00201365
0.00205135
0.00208841
0.00212474
0.00216026
0.00219492
0.00222863
0.00226136
0.00229304
0.00232364
0.00235311
0.00238143
0.00240856
0.00243448
0.00245918
0.00248263
0.00250482
0.00252576
0.00254545
0.00256389
0.00258111
0.00259711
0.00261192
0.00262558
0.00263811
0.00264957
0.00265998
0.0026694
0.00267787
0.00268544
0.00269216
0.00269807
0.00270324
0.00270773
0.00271158
0.00271483
0.00271753
0.00271973
0.00272148
0.00272287
0.0027238
0.00272414
0.00272417
0.00272393
0.00272342
0.00272268
0.00272172
0.00272055
0.00271918
0.00271761
0.00271584
0.00271387
0.00271169
0.00270931
0.00270674
0.00270396
0.00270099
0.00269782
0.00269445
0.0026909
0.00268716
0.00268324
0.00267916
0.00267492
0.00267052
0.00266594
0.00266118
0.00265625
0.00265113
0.00264582
0.00264033
0.00263464
0.00262876
0.00262269
0.0026165
0.00261023
0.00260386
0.00259737
0.00259077
0.00258405
0.00257721
0.00257022
0.00256304
0.00255571
0.00254848
0.00254123
0.00253392
0.00252654
0.00251907
0.00251143
0.00250335
0.00249565
0.00248797
0.00248029
0.00247259
0.00246484
0.00245704
0.00244932
0.00244165
0.00243402
0.00242642
0.00241886
0.00241134
0.00240388
0.00239648
0.00238915
0.00238194
0.00237489
0.00236807
0.00236151
0.00235514
0.00234886
0.00234285
0.00233699
0.00233043
8.43911e-05
0.000265599
0.00039919
0.000519113
0.000606384
0.000665795
0.000706548
0.000735661
0.000757535
0.000774797
0.000789037
0.000801258
0.000812129
0.000822114
0.000831553
0.000840696
0.000849733
0.000858807
0.000868024
0.000877463
0.000887186
0.00089724
0.000907665
0.000918499
0.000929777
0.000941537
0.000953819
0.000966666
0.000980124
0.000994245
0.00100908
0.00102469
0.00104114
0.00105848
0.00107678
0.0010961
0.0011165
0.00113805
0.00116078
0.00118476
0.00121002
0.0012366
0.00126453
0.00129383
0.00132449
0.00135651
0.00138988
0.00142455
0.00146047
0.00149759
0.0015358
0.00157503
0.00161516
0.00165607
0.00169763
0.00173972
0.00178219
0.0018249
0.00186773
0.00191052
0.00195315
0.00199549
0.00203741
0.00207879
0.00211952
0.00215952
0.00219868
0.00223693
0.0022742
0.00231043
0.00234556
0.00237956
0.00241237
0.00244396
0.0024743
0.00250337
0.00253115
0.00255762
0.00258276
0.00260656
0.00262902
0.00265011
0.00266986
0.00268825
0.0027053
0.00272103
0.00273545
0.00274858
0.00276047
0.00277112
0.00278059
0.00278892
0.00279616
0.00280236
0.00280758
0.00281185
0.00281525
0.00281783
0.00281968
0.00282086
0.00282141
0.0028214
0.00282091
0.00281988
0.0028182
0.00281609
0.0028137
0.00281098
0.00280798
0.00280473
0.00280126
0.00279758
0.00279372
0.00278967
0.00278544
0.00278103
0.00277643
0.00277166
0.00276671
0.00276159
0.0027563
0.00275085
0.00274523
0.00273946
0.00273353
0.00272744
0.0027212
0.00271484
0.0027084
0.00270187
0.00269522
0.00268846
0.00268157
0.00267456
0.00266741
0.00266013
0.0026527
0.0026451
0.0026373
0.00262938
0.00262152
0.00261362
0.00260567
0.00259765
0.00258957
0.00258142
0.00257319
0.0025647
0.00255603
0.00254762
0.00253924
0.00253084
0.00252242
0.00251396
0.00250544
0.00249681
0.00248823
0.00247968
0.00247115
0.00246263
0.00245414
0.00244567
0.00243725
0.00242889
0.0024206
0.00241239
0.00240425
0.00239619
0.00238822
0.00238035
0.00237259
0.00236498
0.00235756
0.00235037
0.00234345
0.00233677
0.00233025
0.00232406
0.00231798
0.00231136
8.10297e-05
0.000245701
0.000380865
0.000505977
0.000597371
0.000658956
0.000700583
0.000729937
0.000751803
0.000768988
0.000783157
0.000795343
0.000806229
0.00081629
0.000825871
0.000835232
0.000844567
0.000854024
0.000863714
0.000873724
0.000884118
0.000894951
0.000906268
0.000918114
0.000930531
0.000943564
0.000957261
0.000971675
0.00098686
0.00100288
0.00101979
0.00103766
0.00105656
0.00107655
0.0010977
0.00112008
0.00114375
0.00116875
0.00119514
0.00122296
0.00125222
0.00128294
0.00131514
0.00134879
0.00138388
0.00142037
0.00145821
0.00149732
0.00153764
0.00157904
0.00162143
0.00166466
0.00170859
0.00175308
0.00179798
0.00184313
0.00188838
0.00193358
0.00197859
0.00202328
0.0020675
0.00211114
0.00215408
0.00219622
0.00223745
0.0022777
0.00231689
0.00235497
0.00239188
0.00242758
0.00246203
0.0024952
0.00252706
0.0025576
0.0025868
0.00261465
0.00264115
0.0026663
0.00269008
0.0027125
0.00273353
0.00275317
0.00277142
0.00278828
0.00280376
0.00281788
0.00283064
0.00284206
0.00285217
0.00286098
0.00286851
0.00287481
0.00287991
0.00288387
0.00288673
0.00288854
0.00288937
0.0028893
0.00288844
0.00288687
0.00288476
0.00288199
0.00287853
0.0028746
0.00287034
0.00286568
0.00286069
0.00285539
0.00284984
0.00284406
0.00283807
0.0028319
0.00282559
0.00281914
0.00281254
0.0028058
0.00279892
0.0027919
0.00278475
0.00277748
0.00277009
0.00276258
0.00275497
0.00274725
0.00273943
0.00273148
0.00272339
0.00271518
0.00270703
0.00269887
0.00269067
0.00268241
0.00267409
0.00266571
0.00265726
0.00264873
0.00264013
0.00263141
0.00262242
0.00261331
0.00260442
0.00259555
0.00258668
0.00257779
0.00256889
0.00255998
0.00255105
0.00254207
0.00253303
0.00252403
0.00251506
0.00250611
0.00249715
0.00248819
0.00247923
0.00247026
0.00246129
0.00245235
0.00244344
0.00243457
0.00242574
0.00241697
0.00240827
0.00239964
0.0023911
0.00238266
0.00237431
0.00236607
0.00235795
0.00234995
0.00234209
0.00233439
0.0023269
0.00231965
0.00231265
0.00230592
0.0022994
0.00229323
0.00228718
0.00228074
7.8599e-05
0.000228237
0.000363335
0.000492647
0.000587857
0.000651587
0.000694129
0.000723769
0.000745663
0.000762801
0.000776928
0.000789112
0.000800049
0.000810226
0.000819995
0.000829621
0.000839304
0.000849197
0.000859417
0.000870053
0.000881176
0.000892844
0.00090511
0.000918022
0.00093163
0.000945986
0.000961144
0.000977163
0.000994105
0.00101204
0.00103103
0.00105115
0.00107247
0.00109506
0.00111899
0.00114431
0.00117109
0.00119935
0.00122913
0.00126045
0.00129331
0.0013277
0.00136359
0.00140094
0.00143971
0.00147981
0.00152118
0.00156372
0.00160731
0.00165182
0.00169711
0.00174302
0.00178936
0.00183599
0.00188272
0.00192939
0.00197584
0.00202191
0.00206746
0.00211238
0.00215654
0.00219984
0.00224218
0.00228349
0.00232367
0.00236268
0.00240047
0.002437
0.00247223
0.00250615
0.00253874
0.00256997
0.00259985
0.00262836
0.00265552
0.00268133
0.00270581
0.00272897
0.00275082
0.00277135
0.00279055
0.00280841
0.00282491
0.00284006
0.00285386
0.0028663
0.0028774
0.00288715
0.00289558
0.00290269
0.00290847
0.00291294
0.0029161
0.00291799
0.00291864
0.00291811
0.00291643
0.00291373
0.00291028
0.00290589