/*--------------------------------*- C++ -*----------------------------------*\
| =========                 |                                                 |
| \\      /  F ield         | OpenFOAM: The Open Source CFD Toolbox           |
|  \\    /   O peration     | Version:  2112                                  |
|   \\  /    A nd           | Website:  www.openfoam.com                      |
|    \\/     M anipulation  |                                                 |
\*---------------------------------------------------------------------------*/
FoamFile
{
    version     2.0;
    format      ascii;
    arch        "LSB;label=32;scalar=64";
    class       surfaceScalarField;
    location    "0.1";
    object      ddtCorrDdt0(phi);
}
// * * * * * * * * * * * * * * * * * * * * * * * * * * * * * * * * * * * * * //

dimensions      [0 3 -2 0 0 0 0];

oriented        oriented;

internalField   nonuniform List<scalar> 
24170
(
5.03807e-08
-5.03757e-08
1.65777e-07
-1.15387e-07
3.43644e-07
-1.77856e-07
5.81064e-07
-2.3741e-07
8.7003e-07
-2.88956e-07
1.2041e-06
-3.34058e-07
1.58308e-06
-3.78971e-07
2.01501e-06
-4.31919e-07
2.52207e-06
-5.07055e-07
3.1475e-06
-6.25422e-07
3.92825e-06
-7.80736e-07
4.88795e-06
-9.59686e-07
6.07321e-06
-1.18525e-06
7.557e-06
-1.48378e-06
9.43774e-06
-1.88073e-06
1.18804e-05
-2.44267e-06
1.52484e-05
-3.36796e-06
-5.01991e-06
2.02683e-05
-1.65588e-09
-4.87142e-08
3.02206e-08
-1.47254e-07
1.0358e-07
-2.51205e-07
2.32538e-07
-3.66357e-07
4.28025e-07
-4.84434e-07
6.96337e-07
-6.02361e-07
1.04303e-06
-7.25659e-07
1.47433e-06
-8.63207e-07
2.00292e-06
-1.03563e-06
2.66418e-06
-1.28667e-06
3.49751e-06
-1.61405e-06
4.53045e-06
-1.99261e-06
5.80703e-06
-2.46183e-06
7.39843e-06
-3.07517e-06
9.41644e-06
-3.89874e-06
1.19935e-05
-5.01976e-06
1.54243e-05
-6.79872e-06
-9.80077e-06
2.02052e-05
1.60324e-08
-6.47412e-08
6.69039e-08
-1.98116e-07
1.45737e-07
-3.30028e-07
2.50619e-07
-4.7123e-07
3.81777e-07
-6.15582e-07
5.47138e-07
-7.67712e-07
7.52828e-07
-9.31338e-07
1.00787e-06
-1.11824e-06
1.32825e-06
-1.356e-06
1.75002e-06
-1.70844e-06
2.31611e-06
-2.18013e-06
3.05558e-06
-2.73208e-06
4.01777e-06
-3.424e-06
5.27848e-06
-4.33587e-06
6.93951e-06
-5.55975e-06
9.15149e-06
-7.23173e-06
1.18418e-05
-9.48903e-06
-1.23226e-05
1.43637e-05
1.61058e-08
-8.08417e-08
7.2211e-08
-2.54213e-07
1.7044e-07
-4.28248e-07
3.10444e-07
-6.11224e-07
4.87093e-07
-7.92222e-07
6.96342e-07
-9.76951e-07
9.40941e-07
-1.17593e-06
1.22331e-06
-1.4006e-06
1.52619e-06
-1.65887e-06
1.87128e-06
-2.05352e-06
2.30011e-06
-2.60896e-06
2.81424e-06
-3.2462e-06
3.4344e-06
-4.04415e-06
4.18418e-06
-5.08564e-06
5.09154e-06
-6.4671e-06
6.15982e-06
-8.3e-06
7.39184e-06
-1.0721e-05
-1.3842e-05
8.91123e-06
2.11278e-08
-1.01964e-07
7.63236e-08
-3.094e-07
1.68223e-07
-5.20139e-07
3.02587e-07
-7.4558e-07
4.86646e-07
-9.76272e-07
7.15284e-07
-1.20558e-06
9.88914e-07
-1.44955e-06
1.30733e-06
-1.71901e-06
1.68201e-06
-2.03354e-06
2.09596e-06
-2.46746e-06
2.54356e-06
-3.05655e-06
3.0592e-06
-3.76182e-06
3.66564e-06
-4.65058e-06
4.36975e-06
-5.78975e-06
5.16824e-06
-7.26558e-06
6.04874e-06
-9.18049e-06
6.95139e-06
-1.16237e-05
-1.45771e-05
7.68646e-06
2.56327e-08
-1.27591e-07
8.92149e-08
-3.72974e-07
1.85843e-07
-6.16758e-07
3.09952e-07
-8.69681e-07
4.83159e-07
-1.14947e-06
7.12719e-07
-1.43513e-06
9.89937e-07
-1.72676e-06
1.31722e-06
-2.04629e-06
1.7029e-06
-2.41921e-06
2.14968e-06
-2.91423e-06
2.61805e-06
-3.52491e-06
3.13724e-06
-4.28101e-06
3.72634e-06
-5.23967e-06
4.3866e-06
-6.45e-06
5.10527e-06
-7.98424e-06
5.86255e-06
-9.93776e-06
6.58464e-06
-1.23458e-05
-1.51025e-05
7.11007e-06
2.75348e-08
-1.5512e-07
9.95484e-08
-4.44979e-07
2.07894e-07
-7.25094e-07
3.40084e-07
-1.00186e-06
4.96166e-07
-1.30554e-06
7.06112e-07
-1.64507e-06
9.75159e-07
-1.9958e-06
1.29931e-06
-2.37043e-06
1.68266e-06
-2.80255e-06
2.14251e-06
-3.37408e-06
2.63588e-06
-4.01828e-06
3.16279e-06
-4.80791e-06
3.73313e-06
-5.80999e-06
4.34329e-06
-7.06016e-06
4.97093e-06
-8.61186e-06
5.58075e-06
-1.05476e-05
6.07254e-06
-1.28375e-05
-1.53247e-05
6.29474e-06
2.82314e-08
-1.83346e-07
1.04165e-07
-5.20904e-07
2.19679e-07
-8.40599e-07
3.70214e-07
-1.15239e-06
5.37885e-07
-1.47321e-06
7.25567e-07
-1.83274e-06
9.66049e-07
-2.23627e-06
1.27541e-06
-2.67978e-06
1.66836e-06
-3.19548e-06
2.10959e-06
-3.81531e-06
2.5984e-06
-4.50707e-06
3.12355e-06
-5.33306e-06
3.67034e-06
-6.35677e-06
4.22454e-06
-7.61436e-06
4.75236e-06
-9.13967e-06
5.17558e-06
-1.09708e-05
5.39857e-06
-1.30605e-05
-1.5378e-05
5.4519e-06
2.82883e-08
-2.11628e-07
1.05731e-07
-5.98338e-07
2.24831e-07
-9.59691e-07
3.8259e-07
-1.31014e-06
5.73596e-07
-1.6642e-06
7.83389e-07
-2.04253e-06
1.02382e-06
-2.4767e-06
1.31179e-06
-2.96774e-06
1.67192e-06
-3.55561e-06
2.07703e-06
-4.22041e-06
2.52818e-06
-4.95821e-06
3.01098e-06
-5.81586e-06
3.50271e-06
-6.8485e-06
3.97573e-06
-8.08736e-06
4.38503e-06
-9.54897e-06
4.64203e-06
-1.12278e-05
4.65603e-06
-1.30745e-05
-1.52275e-05
4.50549e-06
2.79329e-08
-2.39554e-07
1.05248e-07
-6.75644e-07
2.24802e-07
-1.07924e-06
3.8356e-07
-1.46889e-06
5.79955e-07
-1.86059e-06
8.10711e-07
-2.27328e-06
1.06973e-06
-2.73571e-06
1.36121e-06
-3.25921e-06
1.67903e-06
-3.87342e-06
2.02881e-06
-4.57018e-06
2.41478e-06
-5.34417e-06
2.82234e-06
-6.22341e-06
3.22468e-06
-7.25083e-06
3.58718e-06
-8.44985e-06
3.86363e-06
-9.8254e-06
3.99698e-06
-1.13611e-05
3.93345e-06
-1.3011e-05
-1.48891e-05
3.59508e-06
2.71892e-08
-2.66736e-07
1.02777e-07
-7.51222e-07
2.19847e-07
-1.1963e-06
3.74875e-07
-1.62391e-06
5.66366e-07
-2.05207e-06
7.92436e-07
-2.49934e-06
1.04618e-06
-2.98945e-06
1.32433e-06
-3.53735e-06
1.61572e-06
-4.1648e-06
1.91863e-06
-4.87309e-06
2.233e-06
-5.65853e-06
2.54825e-06
-6.53865e-06
2.83845e-06
-7.54101e-06
3.06795e-06
-8.67934e-06
3.1941e-06
-9.95155e-06
3.17419e-06
-1.13412e-05
2.98011e-06
-1.28169e-05
-1.44028e-05
2.49382e-06
2.2135e-08
-2.88864e-07
8.31976e-08
-8.12275e-07
1.77847e-07
-1.29094e-06
3.02458e-07
-1.74851e-06
4.54842e-07
-2.20445e-06
6.32669e-07
-2.67715e-06
8.30511e-07
-3.18728e-06
1.04287e-06
-3.74969e-06
1.25945e-06
-4.38138e-06
1.4731e-06
-5.08673e-06
1.67949e-06
-5.86491e-06
1.86816e-06
-6.72732e-06
2.01753e-06
-7.69038e-06
2.09852e-06
-8.76032e-06
2.0776e-06
-9.93062e-06
1.92032e-06
-1.11839e-05
1.59536e-06
-1.24919e-05
-1.38476e-05
1.04013e-06
2.36527e-08
-3.1251e-07
8.91567e-08
-8.77769e-07
1.90041e-07
-1.39181e-06
3.21679e-07
-1.88014e-06
4.80483e-07
-2.36324e-06
6.62486e-07
-2.85915e-06
8.60906e-07
-3.38569e-06
1.06766e-06
-3.95644e-06
1.27039e-06
-4.5841e-06
1.45758e-06
-5.27391e-06
1.61945e-06
-6.02677e-06
1.74069e-06
-6.84855e-06
1.79654e-06
-7.74622e-06
1.75534e-06
-8.71911e-06
1.58147e-06
-9.75675e-06
1.23771e-06
-1.08402e-05
6.88268e-07
-1.19425e-05
-1.30441e-05
-1.15149e-07
2.39641e-08
-3.36466e-07
9.00947e-08
-9.43891e-07
1.9087e-07
-1.49258e-06
3.20369e-07
-2.00963e-06
4.73207e-07
-2.51607e-06
6.43102e-07
-3.02903e-06
8.21086e-07
-3.56367e-06
9.96161e-07
-4.13151e-06
1.15374e-06
-4.74167e-06
1.27834e-06
-5.39849e-06
1.35418e-06
-6.10261e-06
1.3607e-06
-6.85506e-06
1.27006e-06
-7.65558e-06
1.04901e-06
-8.49805e-06
6.61428e-07
-9.36916e-06
7.05714e-08
-1.02493e-05
-7.58515e-07
-1.11134e-05
-1.19401e-05
-1.86251e-06
2.2077e-08
-3.58535e-07
8.1991e-08
-1.00379e-06
1.71421e-07
-1.582e-06
2.83088e-07
-2.12128e-06
4.09528e-07
-2.6425e-06
5.41743e-07
-3.16124e-06
6.68075e-07
-3.68999e-06
7.74374e-07
-4.2378e-06
8.43386e-07
-4.81068e-06
8.55897e-07
-5.41099e-06
7.91092e-07
-6.03779e-06
6.24375e-07
-6.68833e-06
3.26264e-07
-7.35746e-06
-1.36092e-07
-8.03569e-06
-7.96532e-07
-8.70871e-06
-1.68764e-06
-9.35817e-06
-2.83847e-06
-9.96255e-06
-1.05046e-05
-4.27397e-06
1.66685e-08
-3.75194e-07
5.93971e-08
-1.04651e-06
1.19582e-07
-1.64217e-06
1.89184e-07
-2.19088e-06
2.58737e-07
-2.71205e-06
3.16604e-07
-3.2191e-06
3.48479e-07
-3.72186e-06
3.37373e-07
-4.22668e-06
2.63577e-07
-4.73687e-06
1.05231e-07
-5.25264e-06
-1.61304e-07
-5.77125e-06
-5.62043e-07
-6.28759e-06
-1.12537e-06
-6.79412e-06
-1.88056e-06
-7.28049e-06
-2.85566e-06
-7.7336e-06
-4.07541e-06
-8.13841e-06
-5.55924e-06
-8.47871e-06
-8.74363e-06
-7.32023e-06
7.80608e-09
-3.82991e-07
1.67175e-08
-1.05541e-06
2.04181e-08
-1.64586e-06
1.34575e-08
-2.1839e-06
-1.42404e-08
-2.68434e-06
-7.67423e-08
-3.15658e-06
-1.90673e-07
-3.60792e-06
-3.74545e-07
-4.0428e-06
-6.48722e-07
-4.46268e-06
-1.03513e-06
-4.86622e-06
-1.55672e-06
-5.24965e-06
-2.23708e-06
-5.60722e-06
-3.09972e-06
-5.93147e-06
-4.16669e-06
-6.21351e-06
-5.4569e-06
-6.44339e-06
-6.98446e-06
-6.61085e-06
-8.75731e-06
-6.70584e-06
-6.72369e-06
-1.07772e-05
-1.04123e-08
-3.72568e-07
-5.47366e-08
-1.01108e-06
-1.34684e-07
-1.5659e-06
-2.55318e-07
-2.06326e-06
-4.26987e-07
-2.51266e-06
-6.62335e-07
-2.92122e-06
-9.75935e-07
-3.29431e-06
-1.38418e-06
-3.63454e-06
-1.90491e-06
-3.94194e-06
-2.5565e-06
-4.21463e-06
-3.35696e-06
-4.44918e-06
-4.32323e-06
-4.64093e-06
-5.47026e-06
-4.78443e-06
-6.80994e-06
-4.87382e-06
-8.34999e-06
-4.90332e-06
-1.00931e-05
-4.86775e-06
-1.20361e-05
-4.76278e-06
-4.5886e-06
-1.41712e-05
-4.73937e-08
-3.25162e-07
-1.68921e-07
-8.89539e-07
-3.63402e-07
-1.37141e-06
-6.34998e-07
-1.79165e-06
-9.88628e-07
-2.15901e-06
-1.43192e-06
-2.47792e-06
-1.97455e-06
-2.75166e-06
-2.62708e-06
-2.98199e-06
-3.39997e-06
-3.16905e-06
-4.30296e-06
-3.31162e-06
-5.34447e-06
-3.40765e-06
-6.53081e-06
-3.45459e-06
-7.86552e-06
-3.44971e-06
-9.34879e-06
-3.39054e-06
-1.09769e-05
-3.27516e-06
-1.27421e-05
-3.10255e-06
-1.46323e-05
-2.87264e-06
-2.58808e-06
-1.66328e-05
-4.61727e-08
-2.78977e-07
-1.6517e-07
-7.70529e-07
-3.50724e-07
-1.18584e-06
-6.03072e-07
-1.53929e-06
-9.22028e-07
-1.84004e-06
-1.307e-06
-2.09293e-06
-1.75829e-06
-2.30036e-06
-2.2771e-06
-2.46317e-06
-2.86475e-06
-2.58138e-06
-3.52191e-06
-2.65444e-06
-4.24814e-06
-2.68141e-06
-5.04157e-06
-2.66115e-06
-5.89873e-06
-2.59254e-06
-6.8144e-06
-2.47487e-06
-7.7815e-06
-2.30804e-06
-8.7912e-06
-2.09284e-06
-9.83296e-06
-1.83087e-06
-1.52539e-06
-1.08956e-05
-4.32303e-08
-2.35735e-07
-1.62571e-07
-6.51175e-07
-3.48196e-07
-1.0002e-06
-5.94539e-07
-1.29293e-06
-8.97697e-07
-1.53687e-06
-1.25466e-06
-1.73595e-06
-1.66304e-06
-1.89197e-06
-2.12054e-06
-2.00566e-06
-2.62464e-06
-2.07727e-06
-3.17227e-06
-2.1068e-06
-3.75946e-06
-2.09422e-06
-4.38121e-06
-2.03938e-06
-5.03163e-06
-1.94211e-06
-5.70386e-06
-1.80262e-06
-6.39013e-06
-1.62176e-06
-7.08184e-06
-1.40113e-06
-7.76972e-06
-1.14298e-06
-8.50554e-07
-8.44455e-06
-4.04376e-08
-1.95287e-07
-1.52461e-07
-5.39138e-07
-3.2561e-07
-8.27038e-07
-5.52585e-07
-1.06594e-06
-8.27785e-07
-1.26166e-06
-1.14644e-06
-1.41728e-06
-1.50433e-06
-1.53406e-06
-1.89744e-06
-1.61254e-06
-2.32151e-06
-1.65318e-06
-2.77196e-06
-1.65634e-06
-3.24329e-06
-1.62287e-06
-3.72926e-06
-1.55339e-06
-4.22322e-06
-1.44814e-06
-4.71821e-06
-1.30762e-06
-5.20691e-06
-1.13305e-06
-5.68167e-06
-9.26357e-07
-6.13464e-06
-6.89992e-07
-4.26889e-07
-6.5583e-06
-3.7035e-08
-1.58241e-07
-1.39128e-07
-4.37033e-07
-2.958e-07
-6.70354e-07
-4.99272e-07
-8.6246e-07
-7.43146e-07
-1.01777e-06
-1.02191e-06
-1.13851e-06
-1.33073e-06
-1.22524e-06
-1.66498e-06
-1.27827e-06
-2.01995e-06
-1.29819e-06
-2.39086e-06
-1.28542e-06
-2.77143e-06
-1.24229e-06
-3.15525e-06
-1.16956e-06
-3.5359e-06
-1.06748e-06
-3.90698e-06
-9.36526e-07
-4.26196e-06
-7.78056e-07
-4.59418e-06
-5.94129e-07
-4.89707e-06
-3.8709e-07
-1.59458e-07
-5.16449e-06
-3.35626e-08
-1.24669e-07
-1.25038e-07
-3.45546e-07
-2.64252e-07
-5.31127e-07
-4.43716e-07
-6.82983e-07
-6.56654e-07
-8.0482e-07
-8.97578e-07
-8.9757e-07
-1.16186e-06
-9.60942e-07
-1.44504e-06
-9.95082e-07
-1.74264e-06
-1.00058e-06
-2.05099e-06
-9.77061e-07
-2.36259e-06
-9.3068e-07
-2.67118e-06
-8.60962e-07
-2.97174e-06
-7.66904e-07
-3.2591e-06
-6.49153e-07
-3.52755e-06
-5.09594e-07
-3.77094e-06
-3.50732e-07
-3.98344e-06
-1.74576e-07
1.69949e-08
-4.15989e-06
-3.02947e-08
-9.43653e-08
-1.10992e-07
-2.64838e-07
-2.32663e-07
-4.09444e-07
-3.88659e-07
-5.26975e-07
-5.72158e-07
-6.21308e-07
-7.78272e-07
-6.91445e-07
-1.0033e-06
-7.35898e-07
-1.24328e-06
-7.55099e-07
-1.49363e-06
-7.50212e-07
-1.7502e-06
-7.20482e-07
-2.0092e-06
-6.71663e-07
-2.26526e-06
-6.04897e-07
-2.51386e-06
-5.1829e-07
-2.74899e-06
-4.14019e-07
-2.96492e-06
-2.9365e-07
-3.15634e-06
-1.59299e-07
-3.31854e-06
-1.23708e-08
1.45892e-07
-3.44742e-06
-2.69101e-08
-6.74473e-08
-9.60123e-08
-1.95725e-07
-1.99647e-07
-3.05799e-07
-3.31147e-07
-3.95464e-07
-4.8639e-07
-4.66055e-07
-6.61682e-07
-5.16142e-07
-8.53878e-07
-5.4369e-07
-1.0592e-06
-5.49768e-07
-1.27297e-06
-5.36433e-07
-1.48895e-06
-5.04484e-07
-1.70908e-06
-4.51528e-07
-1.93017e-06
-3.83797e-07
-2.14529e-06
-3.0316e-07
-2.34728e-06
-2.12019e-07
-2.53019e-06
-1.10722e-07
-2.69029e-06
8.03914e-10
-2.8246e-06
1.2195e-07
2.51893e-07
-2.93058e-06
-2.16391e-08
-4.5801e-08
-7.81562e-08
-1.39198e-07
-1.64274e-07
-2.19671e-07
-2.72087e-07
-2.8764e-07
-4.00696e-07
-3.37434e-07
-5.48852e-07
-3.67975e-07
-7.12499e-07
-3.80033e-07
-8.88296e-07
-3.7396e-07
-1.07388e-06
-3.50839e-07
-1.26859e-06
-3.09767e-07
-1.46761e-06
-2.5249e-07
-1.66395e-06
-1.87447e-07
-1.85253e-06
-1.14572e-07
-2.03064e-06
-3.3896e-08
-2.19632e-06
5.49672e-08
-2.34691e-06
1.51404e-07
-2.47912e-06
2.54173e-07
3.62513e-07
-2.58973e-06
-1.28537e-08
-3.2938e-08
-5.58669e-08
-9.61722e-08
-1.23001e-07
-1.52524e-07
-2.11775e-07
-1.98852e-07
-3.18478e-07
-2.30719e-07
-4.38683e-07
-2.47757e-07
-5.72735e-07
-2.45969e-07
-7.21884e-07
-2.24799e-07
-8.86544e-07
-1.86167e-07
-1.06415e-06
-1.32146e-07
-1.24967e-06
-6.69569e-08
-1.43905e-06
1.94482e-09
-1.62589e-06
7.22771e-08
-1.80318e-06
1.43408e-07
-1.96312e-06
2.1491e-07
-2.09821e-06
2.86514e-07
-2.20212e-06
3.5809e-07
4.30402e-07
-2.27e-06
-3.87247e-10
-3.25393e-08
-2.35127e-08
-7.30323e-08
-7.22597e-08
-1.03762e-07
-1.48611e-07
-1.22485e-07
-2.5234e-07
-1.26976e-07
-3.82199e-07
-1.17884e-07
-5.31816e-07
-9.63374e-08
-6.9218e-07
-6.44216e-08
-8.52935e-07
-2.53971e-08
-1.00266e-06
1.75971e-08
-1.1304e-06
6.07928e-08
-1.22818e-06
9.97339e-08
-1.28911e-06
1.33223e-07
-1.30745e-06
1.6176e-07
-1.27864e-06
1.86117e-07
-1.19931e-06
2.07198e-07
-1.06659e-06
2.25384e-07
2.42432e-07
-8.78608e-07
-3.25382e-08
-1.05569e-07
-2.0933e-07
-3.31813e-07
-4.58787e-07
-5.76669e-07
-6.73005e-07
-7.37425e-07
-7.6282e-07
-7.45221e-07
-6.84426e-07
-5.8469e-07
-4.51465e-07
-2.89703e-07
-1.03583e-07
1.03618e-07
3.29005e-07
5.71441e-07
2.17476e-06
-2.17475e-06
4.73078e-06
-2.55601e-06
7.33091e-06
-2.60012e-06
1.00342e-05
-2.7033e-06
1.27313e-05
-2.69703e-06
1.50575e-05
-2.32621e-06
1.68176e-05
-1.76007e-06
1.79799e-05
-1.1623e-06
1.85991e-05
-6.1917e-07
1.87553e-05
-1.562e-07
1.85241e-05
2.3113e-07
1.79619e-05
5.62249e-07
1.70974e-05
8.64566e-07
1.59282e-05
1.16922e-06
1.44194e-05
1.50879e-06
1.25029e-05
1.91646e-06
1.00768e-05
2.42614e-06
7.00352e-06
3.07329e-06
3.10537e-06
3.89817e-06
-1.84659e-06
4.95198e-06
-8.15649e-06
6.30991e-06
-1.62011e-05
8.04466e-06
-2.63725e-05
1.01714e-05
-3.95496e-05
1.31772e-05
-5.47074e-05
1.51578e-05
-7.16379e-05
1.69305e-05
-9.02431e-05
1.86052e-05
-0.000110382
2.01389e-05
-0.000131796
2.14143e-05
-0.000154087
2.22908e-05
-0.000175951
2.18644e-05
-0.000196619
2.06681e-05
-0.000216233
1.96136e-05
-0.000234221
1.79881e-05
-0.000250053
1.58315e-05
-0.000263528
1.34756e-05
-0.000274666
1.11378e-05
-0.000283553
8.88748e-06
-0.000290379
6.82542e-06
-0.000295471
5.09189e-06
-0.000299234
3.76295e-06
-0.000302052
2.81799e-06
-0.000304215
2.16326e-06
-0.000305869
1.65428e-06
-0.000306995
1.12588e-06
-0.000307462
4.67546e-07
-0.000307039
-4.23157e-07
-0.000305468
-1.57172e-06
-0.000302161
-3.30608e-06
-0.000297064
-5.09765e-06
-0.000290228
-6.83579e-06
-0.000281691
-8.53746e-06
-0.000271609
-1.00814e-05
-0.000260291
-1.13179e-05
-0.000248209
-1.20826e-05
-0.000236034
-1.21746e-05
-0.000224705
-1.13294e-05
-0.000215593
-9.11109e-06
-0.000210924
-4.66902e-06
-0.000212469
1.54463e-06
-0.000216981
4.51171e-06
-0.000220014
3.03281e-06
-0.000219582
-4.31379e-07
-0.000212193
-7.38919e-06
-0.000193971
-1.82219e-05
-0.000163215
-3.07562e-05
-0.000121478
-4.17369e-05
-7.32727e-05
-4.82052e-05
-2.79253e-05
-4.53473e-05
7.95927e-06
-3.58846e-05
3.70868e-05
-2.91275e-05
6.62728e-05
-2.9186e-05
0.000104376
-3.81035e-05
0.00016491
-6.05342e-05
0.000248277
-8.33662e-05
0.000340706
-9.24297e-05
0.000436731
-9.60248e-05
0.000536061
-9.93303e-05
0.000632808
-9.67463e-05
0.000718049
-8.52414e-05
0.000785876
-6.78273e-05
0.000833502
-4.76255e-05
0.000860895
-2.73934e-05
0.000870027
-9.13222e-06
0.000863912
6.11565e-06
0.00084543
1.84817e-05
0.000816833
2.85972e-05
0.000780517
3.63164e-05
0.000738858
4.16582e-05
0.000690163
4.86949e-05
0.000635256
5.49076e-05
0.000576966
5.82893e-05
0.000514826
6.2141e-05
0.000448986
6.58391e-05
0.000380089
6.8897e-05
0.000309309
7.07801e-05
0.000237222
7.20873e-05
0.000163491
7.37315e-05
9.14587e-05
7.20318e-05
3.62433e-05
5.52154e-05
-1.95055e-05
5.57488e-05
-6.82357e-05
4.87302e-05
-0.000113936
4.57006e-05
-0.000158259
4.43232e-05
-0.000201855
4.35956e-05
-0.000244899
4.30443e-05
-0.000287295
4.23958e-05
-0.000328624
4.13289e-05
-0.000367627
3.90028e-05
-0.000402152
3.45251e-05
-0.000431825
2.96728e-05
-0.00045432
2.24957e-05
-0.000465914
1.15938e-05
-0.000465634
-2.80493e-07
-0.000452539
-1.30946e-05
-0.000426203
-2.63366e-05
-0.000387533
-3.86692e-05
-0.000338017
-4.95166e-05
-0.000279625
-5.83921e-05
-0.000216667
-6.29581e-05
-0.000159515
-5.71513e-05
-0.000113408
-4.61077e-05
-7.34227e-05
-3.9985e-05
-3.91502e-05
-3.42724e-05
-1.31794e-05
-2.59708e-05
2.55506e-06
-1.57345e-05
8.89673e-06
-6.34169e-06
7.96433e-06
9.32377e-07
1.61296e-06
6.35136e-06
-8.46985e-06
1.00828e-05
-2.14121e-05
1.29423e-05
-3.64409e-05
1.50287e-05
-5.20181e-05
1.55772e-05
-6.62108e-05
1.41926e-05
-7.74284e-05
1.12176e-05
-8.45559e-05
7.12749e-06
-8.69129e-05
2.35701e-06
-8.40861e-05
-2.8268e-06
-7.60886e-05
-7.9975e-06
-6.3003e-05
-1.30857e-05
-4.23474e-05
-2.06556e-05
-2.44657e-05
-1.78817e-05
-4.76511e-06
-1.97006e-05
1.51584e-05
-1.99235e-05
3.51656e-05
-2.00072e-05
5.49705e-05
-1.98049e-05
7.4201e-05
-1.92306e-05
9.21839e-05
-1.79829e-05
0.00010729
-1.5106e-05
0.000118064
-1.07746e-05
0.000122123
-4.05855e-06
0.000116926
5.19639e-06
0.00010134
1.55869e-05
7.88709e-05
2.24686e-05
6.06271e-05
1.82437e-05
6.371e-05
-3.08299e-06
0.000102382
-3.86719e-05
0.000177858
-7.54766e-05
0.000278484
-0.000100626
0.000388879
-0.000110394
0.000491552
-0.000102673
0.000573678
-8.21268e-05
0.000633782
-6.01037e-05
0.00067739
-4.36084e-05
0.000683798
-6.40733e-06
0.00063507
4.87274e-05
0.000542761
9.23092e-05
0.000403726
0.000139035
0.000225536
0.00017819
3.06064e-05
0.000194929
-0.000153729
0.000184336
-0.000319007
0.000165277
-0.000455586
0.000136579
-0.00057057
0.000114984
-0.000658044
8.74737e-05
-0.00069746
3.94168e-05
-0.000702384
4.92364e-06
-0.00067888
-2.35043e-05
-0.000626549
-5.23312e-05
-8.04708e-05
-0.000546078
1.59825e-06
-3.77299e-06
3.18383e-06
-4.14157e-06
4.66169e-06
-4.07796e-06
5.689e-06
-3.73061e-06
6.2459e-06
-3.25391e-06
6.5192e-06
-2.5995e-06
6.61957e-06
-1.86043e-06
6.60444e-06
-1.14715e-06
6.51226e-06
-5.26972e-07
6.37225e-06
-1.61802e-08
6.19938e-06
4.0401e-07
5.98926e-06
7.72391e-07
5.71581e-06
1.13803e-06
5.3311e-06
1.55393e-06
4.76689e-06
2.07301e-06
3.93778e-06
2.74558e-06
2.74626e-06
3.61768e-06
1.09012e-06
4.72944e-06
-1.12304e-06
6.11134e-06
-3.95233e-06
7.78128e-06
-7.39171e-06
9.74931e-06
-1.13607e-05
1.20137e-05
-1.56974e-05
1.4508e-05
-2.01883e-05
1.76681e-05
-2.61835e-05
2.1153e-05
-3.43155e-05
2.50625e-05
-4.48883e-05
2.9178e-05
-5.81836e-05
3.34342e-05
-7.44183e-05
3.76491e-05
-9.36869e-05
4.15594e-05
-0.000116576
4.47537e-05
-0.000143046
4.71376e-05
-0.000172048
4.86157e-05
-0.000202939
4.88787e-05
-0.000234912
4.78052e-05
-0.000266937
4.55001e-05
-0.000297918
4.21191e-05
-0.000326853
3.78225e-05
-0.000352867
3.28392e-05
-0.000375226
2.74506e-05
-0.00039337
2.19076e-05
-0.000406938
1.63859e-05
-0.000415763
1.09881e-05
-0.000419864
5.7552e-06
-0.000419439
7.00847e-07
-0.000414837
-4.13436e-06
-0.00040657
-8.69029e-06
-0.000395208
-1.29331e-05
-0.000381662
-1.6852e-05
-0.000366325
-2.04351e-05
-0.000349476
-2.36849e-05
-0.00033182
-2.61937e-05
-0.000313806
-2.80949e-05
-0.00029591
-2.92141e-05
-0.000278644
-2.93483e-05
-0.00026254
-2.8279e-05
-0.000248107
-2.57626e-05
-0.000235692
-2.15254e-05
-0.000225188
-1.51733e-05
-0.000216368
-7.27525e-06
-0.000211031
-8.2548e-07
-0.000208719
7.20487e-07
-0.000205243
-3.90707e-06
-0.000196494
-1.61381e-05
-0.000179027
-3.56889e-05
-0.000150604
-5.91788e-05
-0.000111809
-8.05322e-05
-6.58587e-05
-9.41555e-05
-1.22227e-05
-9.89833e-05
5.12625e-05
-9.93698e-05
0.000125035
-0.0001029
0.000215823
-0.000119973
0.000332559
-0.00015484
0.000473392
-0.000201368
0.00062678
-0.000236754
0.000783329
-0.000248978
0.000927097
-0.000239793
0.00104009
-0.00021232
0.00111218
-0.000168842
0.0011421
-0.000115159
0.00113398
-5.97082e-05
0.00109531
-8.95128e-06
0.00103462
3.3292e-05
0.000959804
6.56852e-05
0.000877192
8.87279e-05
0.000791599
0.000104075
0.000706488
0.000113708
0.000623603
0.000119201
0.000543162
0.000122099
0.000467245
0.000124612
0.00039565
0.000126502
0.000327118
0.000126822
0.000262812
0.000126446
0.00020345
0.000125202
0.000149444
0.000122902
0.000100814
0.00011941
5.81802e-05
0.000114721
2.23093e-05
0.000109602
-6.46451e-06
0.000100806
-4.49275e-05
9.36783e-05
-8.07902e-05
9.16115e-05
-0.000119581
8.75207e-05
-0.000157882
8.40016e-05
-0.000195335
8.17769e-05
-0.000232328
8.05881e-05
-0.000269215
7.99318e-05
-0.00030608
7.926e-05
-0.000342244
7.74932e-05
-0.000376286
7.30452e-05
-0.000407618
6.58574e-05
-0.000434015
5.60697e-05
-0.000453616
4.2096e-05
-0.000464972
2.29502e-05
-0.000462675
-2.5775e-06
-0.000445379
-3.03907e-05
-0.000413979
-5.77362e-05
-0.000370012
-8.26363e-05
-0.000316508
-0.000103021
-0.000257791
-0.000117109
-0.000199097
-0.000121652
-0.000142601
-0.000113647
-8.90463e-05
-9.96626e-05
-4.25632e-05
-8.64681e-05
-7.21583e-06
-6.96198e-05
1.59396e-05
-4.91263e-05
2.94271e-05
-2.9222e-05
3.46553e-05
-1.157e-05
3.26172e-05
2.97048e-06
2.42564e-05
1.47122e-05
9.99797e-06
2.43412e-05
-8.42666e-06
3.13669e-05
-2.83292e-05
3.49312e-05
-4.75743e-05
3.48224e-05
-6.45167e-05
3.1135e-05
-7.79779e-05
2.46787e-05
-8.71077e-05
1.62573e-05
-9.12197e-05
6.46898e-06
-8.98449e-05
-4.20158e-06
-8.3129e-05
-1.47134e-05
-7.30056e-05
-2.32092e-05
-6.34499e-05
-3.02113e-05
-4.32834e-05
-3.80481e-05
-2.21261e-05
-4.0858e-05
8.29307e-07
-4.2879e-05
2.42248e-05
-4.34027e-05
4.73832e-05
-4.29634e-05
6.93093e-05
-4.11567e-05
8.91653e-05
-3.78389e-05
0.000106398
-3.23392e-05
0.000119625
-2.40008e-05
0.000127299
-1.17328e-05
0.000127217
5.27863e-06
0.000116891
2.59128e-05
9.61981e-05
4.31613e-05
7.29954e-05
4.14464e-05
6.65489e-05
3.36341e-06
0.000100984
-7.31073e-05
0.000189197
-0.000163689
0.000319612
-0.000231041
0.000461802
-0.000252584
0.000589387
-0.000230258
0.000691321
-0.000184061
0.000762007
-0.00013079
0.000789622
-7.12232e-05
0.000756204
2.70107e-05
0.000661871
0.000143059
0.000521292
0.000232888
0.000358103
0.000302224
0.000185465
0.000350828
1.71042e-05
0.00036329
-0.000156411
0.000357851
-0.000323471
0.000332337
-0.000476551
0.00028966
-0.000601591
0.000240023
-0.000688209
0.000174092
-0.000745516
9.67231e-05
-0.000764455
2.38627e-05
-0.000748604
-3.93551e-05
-0.00070014
-0.000100795
-0.000151787
-0.000628824
2.91192e-07
-4.06417e-06
4.02703e-07
-4.25306e-06
3.32407e-07
-4.00765e-06
4.71239e-08
-3.44531e-06
-4.85401e-07
-2.72137e-06
-1.10072e-06
-1.98416e-06
-1.62508e-06
-1.33606e-06
-1.94362e-06
-8.28596e-07
-2.0018e-06
-4.68775e-07
-1.78852e-06
-2.29452e-07
-1.32388e-06
-6.06166e-08
-6.52487e-07
1.01016e-07
1.6088e-07
3.24677e-07
1.03454e-06
6.80285e-07
1.87252e-06
1.23505e-06
2.56678e-06
2.05133e-06
2.99964e-06
3.18483e-06
3.04647e-06
4.68262e-06
2.578e-06
6.57981e-06
1.46464e-06
8.89466e-06
-4.14968e-07
1.16289e-05
-3.17209e-06
1.47708e-05
-6.92201e-06
1.8258e-05
-1.12073e-05
2.19534e-05
-1.64875e-05
2.64332e-05
-2.25255e-05
3.11006e-05
-2.95393e-05
3.61918e-05
-3.77325e-05
4.16273e-05
-4.74325e-05
4.73491e-05
-5.90936e-05
5.32206e-05
-7.33274e-05
5.89875e-05
-9.05831e-05
6.43934e-05
-0.000111159
6.91916e-05
-0.000135364
7.30835e-05
-0.000163065
7.55061e-05
-0.000193704
7.61391e-05
-0.000226481
7.48971e-05
-0.00026044
7.17813e-05
-0.000294478
6.68768e-05
-0.000327391
6.03641e-05
-0.00035797
5.24862e-05
-0.000385102
4.3518e-05
-0.000407861
3.37471e-05
-0.000425568
2.34619e-05
-0.000437828
1.29611e-05
-0.00044453
2.56815e-06
-0.000445837
-7.38369e-06
-0.000442075
-1.66947e-05
-0.000433702
-2.52254e-05
-0.00042136
-3.27773e-05
-0.000405291
-3.97535e-05
-0.000386417
-4.50674e-05
-0.000365498
-4.90146e-05
-0.000343314
-5.13982e-05
-0.000320587
-5.20745e-05
-0.000297946
-5.09199e-05
-0.000275887
-4.78215e-05
-0.000255006
-4.24067e-05
-0.000236204
-3.39754e-05
-0.000219948
-2.35317e-05
-0.000206226
-1.4547e-05
-0.000194155
-1.13505e-05
-0.000180424
-1.76384e-05
-0.000160816
-3.57462e-05
-0.000131517
-6.49879e-05
-9.01503e-05
-0.000100545
-3.66292e-05
-0.000134053
3.11489e-05
-0.000161934
0.000107888
-0.000175723
0.000200728
-0.000192209
0.000317093
-0.000219266
0.000466476
-0.000269356
0.000640483
-0.000328846
0.000818899
-0.000379784
0.000977052
-0.000394907
0.00109751
-0.000369439
0.00116658
-0.000308865
0.00117888
-0.000224611
0.00114105
-0.000131018
0.00106745
-4.15545e-05
0.000973754
3.39849e-05
0.000873637
9.11651e-05
0.000776909
0.00013002
0.000689151
0.000153444
0.00061239
0.000165488
0.000546199
0.000170266
0.000488773
0.000171134
0.000437548
0.000170427
0.000389951
0.000169695
0.000344863
0.0001697
0.000301311
0.000170055
0.000257964
0.000170168
0.000214656
0.000169755
0.00017153
0.000168327
0.000128868
0.000165565
8.69586e-05
0.000161319
4.60151e-05
0.000155665
6.7754e-06
0.000148842
-3.35405e-05
0.000141122
-7.38093e-05
0.000133947
-0.000110094
0.000127897
-0.00014486
0.000122287
-0.000178944
0.000118085
-0.000212881
0.000115714
-0.000247379
0.000115086
-0.000283101
0.000115654
-0.000320048
0.000116207
-0.00035692
0.000114366
-0.000393743
0.000109868
-0.000430186
0.0001023
-0.000460404
8.62868e-05
-0.000480623
6.23158e-05
-0.000488007
3.0334e-05
-0.000480221
-1.03639e-05
-0.000456421
-5.41905e-05
-0.000417071
-9.70862e-05
-0.000364373
-0.000135334
-0.000302579
-0.000164815
-0.000236372
-0.000183316
-0.0001702
-0.000187823
-0.000105693
-0.000178154
-4.66797e-05
-0.000158676
5.33988e-07
-0.000133682
3.48078e-05
-0.000103894
5.74889e-05
-7.18074e-05
7.00746e-05
-4.18077e-05
7.32429e-05
-1.47383e-05
6.79306e-05
8.28283e-06
5.5562e-05
2.70807e-05
3.81692e-05
4.1734e-05
1.82733e-05
5.12627e-05
-2.10031e-06
5.53048e-05
-2.15958e-05
5.43179e-05
-3.93594e-05
4.88986e-05
-5.48761e-05
4.01954e-05
-6.76242e-05
2.90053e-05
-7.71888e-05
1.60336e-05
-8.33705e-05
1.98007e-06
-8.55875e-05
-1.24964e-05
-8.19316e-05
-2.68651e-05
-6.99575e-05
-4.21855e-05
-5.83189e-05
-4.96867e-05
-3.56247e-05
-6.35521e-05
-6.89436e-06
-7.16094e-05
2.60413e-05
-7.63384e-05
5.97741e-05
-7.66962e-05
9.1166e-05
-7.25486e-05
0.000117638
-6.43109e-05
0.000137852
-5.25536e-05
0.000151572
-3.77203e-05
0.000159156
-1.93173e-05
0.000160605
3.83011e-06
0.000155195
3.13224e-05
0.000142938
5.54186e-05
0.000129347
5.50372e-05
0.00013046
2.25066e-06
0.000168728
-0.000111376
0.000256381
-0.000251342
0.000382015
-0.000356675
0.000516702
-0.000387272
0.000636045
-0.000349601
0.000728556
-0.000276571
0.000787834
-0.000190068
0.00079146
-7.48493e-05
0.000729212
8.92587e-05
0.000634764
0.000237508
0.000498402
0.00036925
0.000344153
0.000456474
0.000182043
0.000512938
5.22866e-06
0.000540104
-0.000166495
0.000529574
-0.000334157
0.0005
-0.000488834
0.000444338
-0.000619835
0.000371023
-0.000723802
0.000278059
-0.000791797
0.000164719
-0.000816793
4.88584e-05
-0.000801147
-5.50013e-05
-0.000755094
-0.000146848
-0.000213508
-0.000693374
-7.06885e-07
-3.35727e-06
-1.74053e-06
-3.2194e-06
-2.89052e-06
-2.85765e-06
-4.05008e-06
-2.28573e-06
-5.07227e-06
-1.69917e-06
-5.79357e-06
-1.26285e-06
-6.08483e-06
-1.04479e-06
-5.8677e-06
-1.04571e-06
-5.11261e-06
-1.22386e-06
-3.83304e-06
-1.50901e-06
-2.07926e-06
-1.81438e-06
6.95085e-08
-2.04774e-06
2.51373e-06
-2.11953e-06
5.14099e-06
-1.94696e-06
7.83088e-06
-1.45483e-06
1.04574e-05
-5.75198e-07
1.28899e-05
7.52406e-07
1.49935e-05
2.57903e-06
1.66309e-05
4.94236e-06
1.76636e-05
7.86203e-06
1.79555e-05
1.13371e-05
1.73784e-05
1.53479e-05
1.57809e-05
1.98555e-05
1.29401e-05
2.47942e-05
9.05462e-06
3.03187e-05
4.01572e-06
3.61395e-05
-2.17584e-06
4.23834e-05
-9.54271e-06
4.89942e-05
-1.81096e-05
5.5916e-05
-2.79377e-05
6.30487e-05
-3.91952e-05
7.0245e-05
-5.22399e-05
7.74381e-05
-6.76725e-05
8.46242e-05
-8.58382e-05
9.12491e-05
-0.000106857
9.65249e-05
-0.00013069
9.99717e-05
-0.000157313
0.000101521
-0.000186525
0.000100993
-0.000217883
9.82354e-05
-0.000250706
9.31868e-05
-0.000284098
8.58784e-05
-0.000317028
7.64481e-05
-0.000348415
6.5134e-05
-0.000377205
5.22518e-05
-0.000402436
3.81921e-05
-0.000423343
2.34753e-05
-0.00043942
8.69286e-06
-0.000450312
-5.80245e-06
-0.000455808
-1.97288e-05
-0.000456406
-3.21795e-05
-0.000451251
-4.49087e-05
-0.000441167
-5.51509e-05
-0.000426572
-6.36104e-05
-0.000408009
-6.99612e-05
-0.000386102
-7.3981e-05
-0.000361471
-7.55509e-05
-0.000334406
-7.48867e-05
-0.000305043
-7.17694e-05
-0.000275147
-6.38718e-05
-0.000246661
-5.20174e-05
-0.000219877
-4.13312e-05
-0.000192917
-3.83101e-05
-0.000162294
-4.82617e-05
-0.000124235
-7.38049e-05
-7.56537e-05
-0.000113569
-1.44168e-05
-0.000161782
5.99941e-05
-0.000208464
0.000146722
-0.000248662
0.000253348
-0.000282348
0.000382611
-0.000321472
0.000534731
-0.000371387
0.000726018
-0.000460643
0.000907718
-0.000510546
0.0010492
-0.00052127
0.00113134
-0.000477043
0.00114675
-0.00038485
0.0011013
-0.000263416
0.00101199
-0.000135295
0.000900935
-1.9965e-05
0.00078863
7.07509e-05
0.000689133
0.000133482
0.00060893
0.000171368
0.000548151
0.000190799
0.000502994
0.000198601
0.000468123
0.000200359
0.000438476
0.000199913
0.000410122
0.000199487
0.000380437
0.000200111
0.000348036
0.000202097
0.00031256
0.000205177
0.000274073
0.000208542
0.000232888