/*--------------------------------*- C++ -*----------------------------------*\
| =========                 |                                                 |
| \\      /  F ield         | OpenFOAM: The Open Source CFD Toolbox           |
|  \\    /   O peration     | Version:  2112                                  |
|   \\  /    A nd           | Website:  www.openfoam.com                      |
|    \\/     M anipulation  |                                                 |
\*---------------------------------------------------------------------------*/
FoamFile
{
    version     2.0;
    format      ascii;
    arch        "LSB;label=32;scalar=64";
    class       volScalarField;
    location    "0.1";
    object      p;
}
// * * * * * * * * * * * * * * * * * * * * * * * * * * * * * * * * * * * * * //

dimensions      [0 2 -2 0 0 0 0];

internalField   nonuniform List<scalar> 
12225
(
1.58729
0.613996
0.318292
0.172259
-0.0577147
-0.319544
-0.566879
-0.791964
-0.989083
-1.15082
-1.27546
-1.36842
-1.43952
-1.49891
-1.55629
-1.60749
-1.67856
-1.60763
1.17425
0.580164
0.313414
0.171443
-0.0336937
-0.268666
-0.491637
-0.694428
-0.871787
-1.01696
-1.12811
-1.21022
-1.27289
-1.32675
-1.38267
-1.44898
-1.56327
-1.86054
1.00969
0.6095
0.309256
0.136522
-0.0710404
-0.304402
-0.52651
-0.728523
-0.907112
-1.05788
-1.17966
-1.27636
-1.35569
-1.42624
-1.49776
-1.58007
-1.70697
-1.92627
0.840461
0.529616
0.249977
0.0838226
-0.105017
-0.319599
-0.525234
-0.712205
-0.87912
-1.02241
-1.14068
-1.23686
-1.31787
-1.39212
-1.4696
-1.561
-1.68934
-1.86785
0.691185
0.449536
0.199798
0.0343593
-0.145851
-0.34809
-0.542638
-0.72075
-0.8816
-1.02221
-1.14186
-1.2432
-1.33221
-1.41638
-1.50442
-1.60539
-1.73451
-1.90188
0.565994
0.380837
0.154363
-0.0129729
-0.187203
-0.377943
-0.56262
-0.733003
-0.887475
-1.0239
-1.1421
-1.24494
-1.3377
-1.42686
-1.51982
-1.62392
-1.74934
-1.89968
0.45284
0.312547
0.11101
-0.053787
-0.221156
-0.401559
-0.577744
-0.741411
-0.890834
-1.02442
-1.14197
-1.24679
-1.34368
-1.43806
-1.53598
-1.64297
-1.76521
-1.9024
0.348287
0.24148
0.0652105
-0.0930742
-0.252155
-0.422337
-0.589885
-0.746829
-0.891395
-1.02205
-1.13905
-1.24567
-1.3459
-1.44411
-1.54499
-1.65232
-1.7694
-1.89394
0.251639
0.16941
0.0166048
-0.133011
-0.283418
-0.443167
-0.601775
-0.75175
-0.89103
-1.01839
-1.1346
-1.24232
-1.34462
-1.44493
-1.54674
-1.65246
-1.76337
-1.87709
0.16242
0.0981182
-0.0337838
-0.173429
-0.31504
-0.464409
-0.614032
-0.757007
-0.891008
-1.01524
-1.13044
-1.23845
-1.34168
-1.44277
-1.54417
-1.64737
-1.75271
-1.85815
0.0800997
0.028864
-0.0848971
-0.213856
-0.346624
-0.486186
-0.627045
-0.763136
-0.892088
-1.01321
-1.1269
-1.23446
-1.33774
-1.43863
-1.53877
-1.639
-1.73927
-1.83763
0.0105528
-0.0319591
-0.131521
-0.250539
-0.375257
-0.506378
-0.639593
-0.769609
-0.894018
-1.01208
-1.12395
-1.23054
-1.33317
-1.43319
-1.53165
-1.62897
-1.72491
-1.8176
-0.0531961
-0.0892846
-0.176577
-0.286031
-0.402993
-0.526216
-0.652227
-0.776449
-0.896441
-1.01136
-1.12115
-1.22638
-1.3279
-1.42659
-1.52309
-1.61751
-1.70951
-1.79756
-0.119228
-0.149908
-0.225557
-0.324809
-0.433305
-0.54818
-0.666527
-0.784464
-0.899558
-1.01081
-1.11796
-1.2212
-1.32097
-1.41773
-1.51176
-1.603
-1.69111
-1.77492
-0.184955
-0.211135
-0.276367
-0.365325
-0.464949
-0.571313
-0.681799
-0.793128
-0.902931
-1.01004
-1.11395
-1.21455
-1.31191
-1.40616
-1.49733
-1.58526
-1.66968
-1.7498
-0.246356
-0.268895
-0.325336
-0.40464
-0.495534
-0.593648
-0.696469
-0.801177
-0.905506
-1.00814
-1.10836
-1.20577
-1.30019
-1.3915
-1.47958
-1.56426
-1.64533
-1.72234
-0.297326
-0.317065
-0.366641
-0.437766
-0.520873
-0.611612
-0.707529
-0.806111
-0.905205
-1.00338
-1.09976
-1.19375
-1.28497
-1.37317
-1.45816
-1.53978
-1.61792
-1.69236
-0.32848
-0.346368
-0.391406
-0.456815
-0.53419
-0.619392
-0.710055
-0.803851
-0.898707
-0.993133
-1.08613
-1.17699
-1.26523
-1.35052
-1.43266
-1.51153
-1.5871
-1.6593
-0.324849
-0.342128
-0.385727
-0.449167
-0.524317
-0.607207
-0.695603
-0.787257
-0.880101
-0.9726
-1.06368
-1.15258
-1.23876
-1.32186
-1.4017
-1.47822
-1.55142
-1.62143
-0.275217
-0.293992
-0.340922
-0.407981
-0.486141
-0.571623
-0.662427
-0.756236
-0.85087
-0.944747
-1.03676
-1.12608
-1.21213
-1.29457
-1.37324
-1.44812
-1.51931
-1.58703
-0.206648
-0.228177
-0.281397
-0.355107
-0.43876
-0.529176
-0.624731
-0.722908
-0.821369
-0.918511
-1.01318
-1.10449
-1.1918
-1.27476
-1.35322
-1.42724
-1.49695
-1.5627
-0.121566
-0.147966
-0.211235
-0.294247
-0.384969
-0.481933
-0.583968
-0.688093
-0.79182
-0.893596
-0.992214
-1.08665
-1.1762
-1.26047
-1.33935
-1.41293
-1.48144
-1.54539
-0.0240904
-0.0585678
-0.136382
-0.23043
-0.328644
-0.433017
-0.542596
-0.653617
-0.763556
-0.870975
-0.974532
-1.07301
-1.16555
-1.25174
-1.33146
-1.40484
-1.47217
-1.53402
0.0835077
0.0357728
-0.0617085
-0.167227
-0.272641
-0.385005
-0.502602
-0.620766
-0.737327
-0.851011
-0.960223
-1.06349
-1.15979
-1.24854
-1.32961
-1.40325
-1.4699
-1.53043
0.200125
0.130247
0.00797149
-0.106786
-0.218201
-0.33936
-0.46548
-0.590731
-0.713812
-0.833688
-0.948363
-1.05607
-1.15577
-1.24687
-1.32898
-1.40223
-1.4671
-1.52433
0.326355
0.220357
0.0673816
-0.0509521
-0.162622
-0.289269
-0.42191
-0.553228
-0.682815
-0.809801
-0.931713
-1.04603
-1.15115
-1.24664
-1.33242
-1.40852
-1.47559
-1.53551
0.468072
0.317827
0.128126
0.0047579
-0.109265
-0.24024
-0.376511
-0.511088
-0.644539
-0.775914
-0.902333
-1.02087
-1.12928
-1.22641
-1.31196
-1.3861
-1.44918
-1.50281
0.62543
0.42713
0.218232
0.0897311
-0.04228
-0.191237
-0.340691
-0.487675
-0.634314
-0.778985
-0.918092
-1.04879
-1.16899
-1.27661
-1.37056
-1.45111
-1.52026
-1.58167
0.773354
0.404447
0.210179
0.118671
-0.00593762
-0.15414
-0.299023
-0.441532
-0.585788
-0.729676
-0.868792
-0.999353
-1.11828
-1.22294
-1.3118
-1.38464
-1.44304
-1.48883
1.21228
0.489479
0.248847
0.156382
0.014482
-0.152333
-0.313937
-0.47293
-0.633862
-0.794121
-0.948928
-1.09425
-1.22684
-1.34401
-1.44418
-1.52659
-1.59318
-1.63977
-3.93817
-3.88436
-3.89524
-3.91365
-3.95456
-4.03142
-4.14197
-4.28372
-4.45853
-4.66631
-4.90437
-5.16848
-5.45334
-5.75277
-6.06001
-6.36802
-6.66972
-6.95816
-7.22666
-7.46883
-7.6786
-7.85016
-7.97668
-8.05807
-8.09986
-8.10376
-8.06731
-7.98896
-7.8692
-7.70962
-7.51071
-7.2729
-7.00165
-6.705
-6.38892
-6.05825
-5.7179
-5.3725
-5.02589
-4.68102
-4.33983
-4.00316
-3.67091
-3.34214
-3.01541
-2.68916
-2.36184
-2.03277
-1.70226
-1.37123
-1.0414
-0.715068
-0.395977
-0.0877379
0.206127
0.482428
0.738563
0.972845
1.18545
1.37588
1.53519
1.65559
1.73928
1.78868
1.80608
1.79903
1.77975
1.76396
1.75635
1.74805
1.73193
1.69813
1.63086
1.50262
1.27048
0.892683
0.325634
-0.478197
-1.55074
-2.90204
-4.52127
-6.37412
-8.40647
-10.5511
-12.7353
-14.8892
-16.9523
-18.8767
-20.6269
-22.1776
-23.5054
-24.6027
-25.4735
-26.1184
-26.5386
-26.7347
-26.7062
-26.4515
-25.9718
-25.2661
-24.3026
-23.053
-21.517
-19.6896
-17.5681
-15.1555
-12.4634
-9.51638
-6.35377
-3.02905
0.395344
3.85147
7.26037
10.5402
13.6155
16.4179
18.8906
20.9941
22.712
24.0559
25.0388
25.7037
26.1231
26.3148
26.3035
26.141
25.856
25.4808
25.0452
24.5722
24.0763
23.5704
23.0699
22.586
22.1263
21.6963
21.3002
20.9417
20.6235
20.3496
20.1231
19.9568
19.8229
19.7303
19.6793
19.6643
19.6791
19.7159
19.7679
19.8259
19.8797
19.9213
19.9472
19.9594
19.9622
19.9528
19.911
19.7976
19.5675
19.1742
18.5767
17.7399
16.653
15.3279
13.781
12.0921
10.4639
9.1027
8.1976
7.85944
8.1572
9.08175
10.5462
12.388
14.4314
16.5062
18.4644
20.1567
21.6252
22.6469
-4.07995
-4.02014
-4.05024
-4.09655
-4.1672
-4.26937
-4.40179
-4.56405
-4.756
-4.97607
-5.22124
-5.48741
-5.76955
-6.06195
-6.35845
-6.65271
-6.93842
-7.2095
-7.46032
-7.68598
-7.88232
-8.04608
-8.17629
-8.26736
-8.31042
-8.30206
-8.24331
-8.13642
-7.98407
-7.79027
-7.56124
-7.30255
-7.01629
-6.70531
-6.37532
-6.03229
-5.68164
-5.32819
-4.97594
-4.6279
-4.28599
-3.95094
-3.62239
-3.29901
-2.97887
-2.65976
-2.33965
-2.01721
-1.6921
-1.36567
-1.03979
-0.717316
-0.401639
-0.0968364
0.192978
0.463859
0.7121
0.934321
1.12791
1.29014
1.42368
1.53421
1.62129
1.68218
1.71793
1.73403
1.73933
1.74025
1.74235
1.75764
1.77937
1.78754
1.75563
1.65961
1.47581
1.15711
0.639463
-0.136325
-1.20721
-2.58771
-4.26724
-6.20499
-8.33569
-10.5793
-12.8522
-15.0773
-17.1897
-19.1394
-20.892
-22.4277
-23.7436
-24.8374
-25.7044
-26.347
-26.7684
-26.9702
-26.9511
-26.7061
-26.2238
-25.4968
-24.5246
-23.3039
-21.812
-20.0372
-17.973
-15.6198
-12.9859
-10.0916
-6.97262
-3.67952
-0.272805
3.17876
6.59834
9.90176
13.0088
15.8479
18.3608
20.5109
22.2843
23.6873
24.7273
25.432
25.832
25.9968
25.9877
25.8399
25.5784
25.2315
24.8261
24.3847
23.9261
23.4633
23.008
22.5716
22.1605
21.7804
21.4359
21.1297
20.8627
20.6287
20.42
20.2023
20.0414
19.9181
19.8249
19.762
19.7257
19.7119
19.7144
19.7291
19.7517
19.777
19.8009
19.8217
19.839
19.8485
19.8338
19.7627
19.5925
19.281
18.7833
18.0436
17.0001
15.6343
14.0128
12.2571
10.5768
9.15547
8.15239
7.71501
7.91197
8.75634
10.1799
12.045
14.1346
16.2609
18.2782
20.0339
21.5471
22.5673
-4.18025
-4.10478
-4.14256
-4.19677
-4.27588
-4.39019
-4.53873
-4.71936
-4.9301
-5.16814
-5.42977
-5.71047
-6.00508
-6.30796
-6.61316
-6.91468
-7.20657
-7.48318
-7.73919
-7.96977
-8.17053
-8.33758
-8.46754
-8.55722
-8.60483
-8.60812
-8.56681
-8.48089
-8.35056
-8.17676
-7.96125
-7.70629
-7.41484
-7.09142
-6.74197
-6.37325
-5.99203
-5.60442
-5.21571
-4.83013
-4.45072
-4.07921
-3.71608
-3.36068
-3.0116
-2.6669
-2.32484
-1.98428
-1.64481
-1.30697
-0.972396
-0.644856
-0.327187
-0.022834
0.264425
0.530937
0.773356
0.988705
1.17476
1.3304
1.45545
1.55122
1.61858
1.65849
1.67475
1.67565
1.67407
1.68525
1.69626
1.72657
1.76356
1.78763
1.76762
1.6645
1.44042
1.0223
0.345263
-0.651662
-1.99453
-3.66893
-5.62333
-7.77946
-10.0473
-12.3388
-14.5778
-16.7048
-18.6772
-20.4669
-22.0575
-23.4414
-24.6186
-25.5915
-26.3613
-26.9296
-27.2969
-27.4627
-27.4241
-27.1763
-26.7098
-26.0051
-25.0559
-23.8522
-22.3794
-20.6247
-18.5798
-16.2415
-13.6147
-10.7172
-7.58706
-4.27489
-0.837111
2.65889
6.13419
9.50366
12.6822
15.5922
18.1725
20.3828
22.2051
23.6412
24.7051
25.4184
25.8311
25.9896
25.9592
25.7867
25.5041
25.1388
24.7152
24.254
23.776
23.2999
22.8376
22.3969
21.9818
21.5954
21.2413
20.9214
20.6359
20.3851
20.1723
20.0244
19.9077
19.8157
19.7533
19.7155
19.697
19.6934
19.7014
19.7184
19.742
19.7694
19.7988
19.8306
19.8646
19.8936
19.8946
19.8306
19.6586
19.3318
18.8001
18.0142
16.9197
15.4939
13.8116
11.9939
10.2718
8.83834
7.84764
7.42816
7.65587
8.52899
9.98476
11.8941
14.0307
16.2141
18.2768
20.0584
21.5607
22.5724
-4.37762
-4.27412
-4.32924
-4.40154
-4.49852
-4.63083
-4.7969
-4.99435
-5.22102
-5.47386
-5.74887
-6.04132
-6.34589
-6.65687
-6.96837
-7.27456
-7.56983
-7.84891
-8.10698
-8.33964
-8.54294
-8.71328
-8.84734
-8.9421
-8.99436
-9.0023
-8.96442
-8.87999
-8.74907
-8.57252
-8.35201
-8.08993
-7.78922
-7.45383
-7.08822
-6.69786
-6.28986
-5.87076
-5.4463
-5.02146
-4.60029
-4.18586
-3.78016
-3.38426
-2.99854
-2.62186
-2.25266
-1.89059
-1.53563
-1.18825
-0.848833
-0.521331
-0.207996
0.0881123
0.363573
0.615071
0.839535
1.03405
1.1964
1.32684
1.42749
1.50067
1.54832
1.57317
1.58079
1.58066
1.58449
1.59904
1.64714
1.70457
1.76031
1.78677
1.74127
1.56554
1.19008
0.538755
-0.445196
-1.78407
-3.45404
-5.3916
-7.51079
-9.72191
-11.9454
-14.1182
-16.1947
-18.143
-19.9413
-21.5746
-23.0324
-24.3081
-25.3985
-26.3021
-27.0188
-27.5483
-27.8903
-28.0423
-28.0001
-27.7571
-27.3043
-26.6273
-25.7133
-24.5475
-23.1141
-21.3986
-19.39
-17.0812
-14.474
-11.5855
-8.4536
-5.12321
-1.64358
1.91473
5.46412
8.91519
12.179
15.1726
17.8288
20.1018
21.9718
23.4387
24.5181
25.2416
25.6598
25.8246
25.7945
25.6169
25.3286
24.9591
24.5337
24.0727
23.594
23.1164
22.6539
22.2146
21.8058
21.4316
21.0927
20.7895
20.5234
20.2967
20.1103
19.9565
19.8265
19.7384
19.6828
19.6534
19.6457
19.6538
19.6722
19.6961
19.7233
19.7537
19.7879
19.827
19.8714
19.9138
19.9303
19.8792
19.7092
19.3673
18.8026
17.969
16.8028
15.2909
13.5243
11.6509
9.88458
8.42142
7.41912
7.0024
7.24224
8.14036
9.62592
11.5868
13.7755
16.0131
18.1268
19.9449
21.4561
22.4705
-4.57166
-4.44103
-4.51093
-4.60021
-4.71408
-4.86296
-5.04523
-5.25862
-5.50085
-5.76856
-6.05743
-6.36235
-6.67774
-6.99775
-7.31653
-7.62844
-7.92825
-8.2112
-8.47301
-8.70983
-8.91815
-9.09466
-9.23623
-9.3398
-9.40242
-9.4215
-9.39483
-9.32088
-9.19888
-9.02892
-8.81207
-8.55053
-8.24653
-7.90123
-7.51861
-7.10644
-6.67235
-6.2224
-5.76225
-5.29711
-4.83159
-4.36964
-3.91456
-3.46892
-3.03422
-2.61088
-2.19944
-1.80113
-1.417
-1.04829
-0.696889
-0.363951
-0.0512055
0.238575
0.502624
0.738442
0.943717
1.11559
1.253
1.35764
1.43352
1.4835
1.51133
1.52277
1.52625
1.53281
1.55289
1.59326
1.65508
1.72234
1.76736
1.74628
1.59648
1.23747
0.589429
-0.402043
-1.7482
-3.41302
-5.32431
-7.39482
-9.54152
-11.6967
-13.8103
-15.8469
-17.7806
-19.5915
-21.2634
-22.7826
-24.1387
-25.3245
-26.3359
-27.1713
-27.8307
-28.3147
-28.6233
-28.7541
-28.7022
-28.4609
-28.0193
-27.3643
-26.4811
-25.3529
-23.9625
-22.2935
-20.3316
-18.0656
-15.4955
-12.6396
-9.52348
-6.18177
-2.66629
0.950411
4.5812
8.13037
11.4991
14.5948
17.3435
19.6949
21.6245
23.1316
24.2353
24.9735
25.3985
25.5661
25.5344
25.3531
25.0617
24.6913
24.268
23.8128
23.3435
22.876
22.4218
21.9889
21.5854
21.2176
20.8882
20.5956
20.3383
20.1177
19.9337
19.7867
19.6797
19.6051
19.5612
19.5444
19.5498
19.5716
19.604
19.6421
19.6835
19.7278
19.7755
19.828
19.8855
19.94
19.9667
19.9207
19.7451
19.3817
18.7802
17.8845
16.6295
15.0309
13.184
11.2463
9.42956
7.92828
6.90874
6.48883
6.73714
7.6544
9.15547
11.1843
13.4085
15.7025
17.8685
19.7312
21.2668
22.298
-4.718
-4.601
-4.67757
-4.77855
-4.90591
-5.06757
-5.26263
-5.48908
-5.74431
-6.02457
-6.32513
-6.64052
-6.96489
-7.29223
-7.61677
-7.93315
-8.23658
-8.52289
-8.78843
-9.02998
-9.24454
-9.42922
-9.58109
-9.69718
-9.77433
-9.80947
-9.79983
-9.74315
-9.63783
-9.48311
-9.2794
-9.02808
-8.72796
-8.37872
-7.98809
-7.5651
-7.11543
-6.64475
-6.15866
-5.66226
-5.16024
-4.65691
-4.15614
-3.66137
-3.17488
-2.69961
-2.23874
-1.7941
-1.36875
-0.967335
-0.592362
-0.242906
0.0784696
0.369519
0.628056
0.852377
1.0423
1.19594
1.30912
1.38744
1.44273
1.47856
1.49975
1.5145
1.53274
1.56507
1.61191
1.67961
1.75511
1.81131
1.80371
1.66482
1.31329
0.666435
-0.329909
-1.67996
-3.33841
-5.22729
-7.25969
-9.3589
-11.4666
-13.5417
-15.5552
-17.485
-19.3121
-21.0193
-22.5915
-24.016
-25.2832
-26.387
-27.3247
-28.096
-28.7017
-29.1432
-29.4207
-29.5319
-29.4717
-29.2345
-28.809
-28.1801
-27.3317
-26.2462
-24.9053
-23.2909
-21.3865
-19.1798
-16.6681
-13.8601
-10.7711
-7.4308
-3.89092
-0.2211
3.49084
7.14299
10.6272
13.8404
16.6994
19.1452
21.1464
22.7027
23.8379
24.595
25.0303
25.2038
25.1743
24.9934
24.7029
24.3355
23.9179
23.4713
23.0133
22.5585
22.1183
21.7005
21.3104
20.9529
20.6348
20.3568
20.1157
19.9115
19.745
19.6158
19.5199
19.4557
19.4221
19.4153
19.4307
19.4633
19.5081
19.5607
19.6182
19.6796
19.7447
19.8136
19.8848
19.9491
19.981
19.9341
19.7468
19.356
18.7083
17.7369
16.4018
14.7255
12.7999
10.7946
8.92154
7.38245
6.34314
5.91732
6.17315
7.10477
8.63996
10.6776
12.9636
15.3162
17.5358
19.4426
20.9995
22.048
-4.76154
-4.69744
-4.77407
-4.87897
-5.01435
-5.18454
-5.38894
-5.62549
-5.89114
-6.18175
-6.49219
-6.81661
-7.14881
-7.48267
-7.81248
-8.13318
-8.44049
-8.73083
-9.0012
-9.249
-9.47175
-9.66699
-9.83205
-9.96406
-10.0599
-10.1164
-10.1303
-10.0987
-10.0192
-9.88982
-9.7098
-9.47809
-9.19247
-8.85518
-8.47389
-8.05539
-7.60528
-7.12944
-6.63336
-6.1218
-5.59922
-5.0699
-4.53802
-4.0075
-3.4815
-2.96315
-2.4559
-1.96421
-1.4952
-1.05675
-0.645971
-0.263789
0.0857032
0.398595
0.671616
0.902553
1.09225
1.24483
1.35541
1.42773
1.48117
1.52508
1.5649
1.60949
1.66759
1.73864
1.83209
1.9307
2.00992
2.02587
1.91163
1.58283
0.955122
-0.0267253
-1.36658
-3.01542
-4.89149
-6.90721
-8.98857
-11.0818
-13.1506
-15.1694
-17.118
-18.9779
-20.732
-22.3645
-23.8613
-25.2116
-26.4074
-27.4443
-28.321
-29.0383
-29.5972
-29.9997
-30.2496
-30.3465
-30.2835
-30.0511
-29.6381
-29.031
-28.2142
-27.1704
-25.8808
-24.3267
-22.4902
-20.358
-17.9215
-15.1793
-12.1432
-8.83679
-5.30205
-1.60238
2.17571
5.92456
9.52849
12.8728
15.8595
18.417
20.5073
22.1281
23.3067
24.0916
24.5445
24.7295
24.7082
24.534
24.2504
23.8915
23.4844
23.0506
22.6073
22.1684
21.7448
21.3444
20.9728
20.6336
20.3307
20.0677
19.8439
19.6578
19.5092
19.3966
19.3181
19.2712
19.2533
19.2604
19.2885
19.3332
19.3903
19.4562
19.5283
19.6055
19.6871
19.7717
19.8555
19.9269
19.9596
19.9068
19.7038
19.2848
18.5863
17.5481
16.146
14.3926
12.3912
10.3232
8.39819
6.8219
5.75936
5.32714
5.58258
6.52105
8.08018
10.1383
12.4758
14.8826
17.1525
19.1012
20.6795
21.7461
-4.68269
-4.6805
-4.75985
-4.86472
-5.00483
-5.18121
-5.39278
-5.63737
-5.91172
-6.21137
-6.5308
-6.86369
-7.20349
-7.54386
-7.87915
-8.2046
-8.5164
-8.81155
-9.08767
-9.34276
-9.5749
-9.78209
-9.96207
-10.1123
-10.2298
-10.3118
-10.3547
-10.3552
-10.3098
-10.2157
-10.0707
-9.87181
-9.61836
-9.31471
-8.96589
-8.57671
-8.15308
-7.70072
-7.22465
-6.72907
-6.21746
-5.69278
-5.15779
-4.61562
-4.07015
-3.52666
-2.9921
-2.47212
-1.96755
-1.47921
-1.01242
-0.570822
-0.160347
0.211185
0.536447
0.810365
1.03334
1.21536
1.36237
1.47803
1.57641
1.67071
1.76997
1.88448
2.02597
2.15851
2.30521
2.43476
2.50116
2.43853
2.16185
1.58397
0.643607
-0.667764
-2.30265
-4.17723
-6.2007
-8.297
-10.4121
-12.5104
-14.5673
-16.5633
-18.4806
-20.302
-22.0114
-23.5944
-25.0392
-26.3365
-27.48
-28.4667
-29.2964
-29.9698
-30.4902
-30.8667
-31.1015
-31.1874
-31.1186
-30.8844
-30.4755
-29.8813
-29.0877
-28.0784
-26.8351
-25.3391
-23.5718
-21.5173
-19.165
-16.5106
-13.5579
-10.3214
-6.83143
-3.14082
0.671036
4.49416
8.20748
11.6831
14.8061
17.4894
19.6851
21.3873
22.6248
23.4513
23.9332
24.1397
24.135
23.9751
23.7051
23.3605
22.9689
22.5519
22.1265
21.7065
21.3024
20.922
20.571
20.2535
19.9716
19.7276
19.5236
19.3589
19.2319
19.1409
19.0835
19.0565
19.0568
19.0808
19.1244
19.1834
19.2539
19.3328
19.418
19.5083
19.6028
19.6992
19.7916
19.8663
19.8956
19.8325
19.6126
19.1661
18.423
17.3346
15.8719
14.049
11.9818
9.85917
7.89149
6.28117
5.19498
4.7508
5.00045
5.94522
7.52149
9.59901
11.9739
14.4242
16.7353
18.7187
20.3147
21.3971
-4.46438
-4.53523
-4.61449
-4.71904
-4.8623
-5.04319
-5.26022
-5.51128
-5.79307
-6.10089
-6.42878
-6.76992
-7.11729
-7.46431
-7.80533
-8.1358
-8.45232
-8.7524
-9.03428
-9.29656
-9.53795
-9.75704
-9.95216
-10.1213
-10.2621
-10.3718
-10.4471
-10.4845
-10.4802
-10.4312
-10.3345
-10.1872
-9.98862
-9.74288
-9.45624
-9.1332
-8.77677
-8.39051
-7.97803
-7.54208
-7.08525
-6.61039
-6.12103
-5.62121
-5.11493
-4.60555
-4.09419
-3.57667
-3.04489
-2.4982
-1.94439
-1.39624
-0.867243
-0.371586
0.0781061
0.472941
0.810417
1.10573
1.37048
1.60186
1.81042
2.01568
2.22634
2.44755
2.67227
2.923
3.14424
3.2988
3.32415
3.13561
2.64204
1.77411
0.51264
-1.10115
-2.98284
-5.03594
-7.17763
-9.34878
-11.5111
-13.6391
-15.713
-17.7151
-19.6283
-21.4367
-23.1257
-24.6829
-26.0983
-27.3641
-28.4749
-29.4285
-30.2248
-30.8684
-31.3708
-31.7371
-31.9584
-32.0258
-31.9411
-31.6945
-31.2797
-30.6875
-29.9051
-28.9176
-27.7083
-26.2598
-24.5548
-22.5772
-20.3144
-17.7587
-14.9087
-11.7709
-8.36421
-4.7289
-0.928267
2.92852
6.72183
10.3113
13.5637
16.3749
18.6846
20.4804
21.7907
22.6726
23.1969
23.4369
23.4599
23.3237
23.0749
22.7503
22.3785
21.9814
21.5765
21.1774
20.7947
20.4362
20.1078
19.8138
19.5555
19.3342
19.1534
19.0133
18.9113
18.845
18.8117
18.8081
18.8305
18.8751
18.9375
19.0135
19.0995
19.1924
19.2901
19.3915
19.4952
19.5985
19.6942
19.767
19.7885
19.7124
19.4759
19.0045
18.2295
17.1036
15.5915
13.7148
11.5968
9.43041
7.42811
5.79118
4.68565
4.22828
4.47462
5.42259
7.004
9.08989
11.4862
13.965
16.3039
18.3106
19.9172
21.0112
-4.122
-4.27373
-4.35409
-4.45478
-4.59867
-4.78172
-5.00198
-5.25733
-5.54438
-5.85828
-6.1928
-6.54067
-6.89441
-7.24712
-7.59299
-7.92758
-8.24774
-8.55146
-8.8375
-9.1051
-9.35365
-9.58247
-9.7906
-9.97675
-10.1392
-10.2759
-10.3841
-10.4609
-10.5035
-10.5092
-10.4759
-10.4013
-10.2843
-10.1279
-9.93745
-9.71644
-9.46945
-9.20204
-8.91771
-8.6193
-8.30909
-7.98792
-7.65434
-7.30395
-6.92915
-6.5195
-6.06302
-5.54861
-4.97036
-4.33345
-3.65118
-2.93968
-2.21706
-1.50283
-0.814847
-0.166079
0.43128
0.971226
1.45908
1.89834
2.30233
2.69309
3.08013
3.46488
3.8395
4.19008
4.47261
4.62429
4.5611
4.18859
3.42693
2.24214
0.663386
-1.2273
-3.32627
-5.53953
-7.798
-10.057
-12.288
-14.4702
-16.5854
-18.6168
-20.5484
-22.3657
-24.0563
-25.6096
-27.0168
-28.2713
-29.3679
-30.3042
-31.0841
-31.7202
-32.2195
-32.5728
-32.7731
-32.8219
-32.7123
-32.4452
-32.0144
-31.4119
-30.6269
-29.6469
-28.4575
-27.0433
-25.3889
-23.4789
-21.3008
-18.8448
-16.1055
-13.084
-9.78972
-6.24821
-2.51099
1.33365
5.1641
8.83307
12.1919
15.1186
17.5387
19.431
20.8213
21.768
22.3455
22.63
22.6915
22.5888
22.3697
22.0717
21.724
21.3496
20.9666
20.5892
20.2283
19.8923
19.5871
19.3172
19.0836
18.888
18.7343
18.6217
18.5476
18.5093
18.5035
18.5266
18.5745
18.643
18.7275
18.8236
18.9274
19.0358
19.1464
19.2579
19.3683
19.4746
19.5689
19.6351
19.645
19.5545
19.3017
18.8116
18.0164
16.8655
15.3219
13.4114
11.2613
9.06645
7.04103
5.38673
4.26971
3.80571
4.04668
4.98662
6.55921
8.63966
11.0399
13.5288
15.8781
17.8933
19.5006
20.5998
-3.71447
-3.94001
-4.01615
-4.10831
-4.24827
-4.42941
-4.64928
-4.90535
-5.19367
-5.50907
-5.84545
-6.19544
-6.55128
-6.90578
-7.25291
-7.58812
-7.9084
-8.212
-8.49815
-8.76667
-9.01765
-9.25118
-9.46714
-9.66525
-9.84492
-10.0051
-10.1445
-10.2618
-10.3556
-10.4249
-10.4693
-10.4887
-10.4836
-10.4562
-10.41
-10.3519
-10.2901
-10.2303
-10.175
-10.1244
-10.0744
-10.0162
-9.9353
-9.81224
-9.62463
-9.34977
-8.96809
-8.46774
-7.84772
-7.11407
-6.27559
-5.34582
-4.34477
-3.29787
-2.23344
-1.17896
-0.161489
0.786828
1.64751
2.4252
3.14053
3.81201
4.44683
5.04121
5.58043
6.037
6.35479
6.45385
6.23886
5.62066
4.54736
3.02958
1.14071
-1.01019
-3.31404
-5.68669
-8.0724
-10.4366
-12.7562
-15.0122
-17.1876
-19.2665
-21.2346
-23.0795
-24.7903
-26.3583
-27.7759
-29.0368
-30.1352
-31.072
-31.858
-32.5007
-32.993
-33.3289
-33.5092
-33.5349
-33.4027
-33.111
-32.6567
-32.0341
-31.2352
-30.2504
-29.068
-27.6751
-26.0578
-24.2035
-22.1007
-19.7385
-17.1093
-14.21
-11.043
-7.62133
-3.98084
-0.192809
3.62842
7.33378
10.7639
13.781
16.2957
18.2769
19.746
20.7609
21.3973
21.7337
21.8415
21.7803
21.5982
21.333
21.0144
20.6659
20.3065
19.9513
19.612
19.2978
19.0151
18.7683
18.5601
18.3932
18.2687
18.1858
18.142
18.1343
18.1591
18.2121
18.2889
18.3846
18.4943
18.6134
18.7377
18.8635
18.9883
19.1099
19.2261
19.333
19.4227
19.4793
19.4753
19.3687
19.101
18.6004
17.7964
16.6331
15.0766
13.157
10.999
8.79616
6.76362
5.10419
3.9834
3.51312
3.74169
4.6627
6.21335
8.27334
10.6586
13.1368
15.4763
17.4827
19.0785
20.1751
-3.33027
-3.60478
-3.66919
-3.74887
-3.87803
-4.04911
-4.26043
-4.50966
-4.79166
-5.09961
-5.4278
-5.76972
-6.11785
-6.46499
-6.80495
-7.13296
-7.44585
-7.74195
-8.02074
-8.28254
-8.52807
-8.75824
-8.97399
-9.17634
-9.36612
-9.54396
-9.7106
-9.86694
-10.0143
-10.1544
-10.2898
-10.4237
-10.5607
-10.7058
-10.865
-11.0452
-11.2532
-11.493
-11.764
-12.0596
-12.3658
-12.6612
-12.9175
-13.1016
-13.1797
-13.1196
-12.8912
-12.4704
-11.8482
-11.0231
-9.99859
-8.78791
-7.41541
-5.91529
-4.33028
-2.70971
-1.10743
0.42336
1.84505
3.14138
4.31688
5.38325
6.34382
7.18967
7.8996
8.44117
8.74803
8.73234
8.30128
7.38661
5.97487
4.12117
1.9331
-0.466403
-2.97042
-5.50711
-8.03115
-10.5144
-12.9365
-15.2798
-17.5284
-19.6681
-21.6865
-23.573
-25.3187
-26.9161
-28.3589
-29.6404
-30.7573
-31.7158
-32.5215
-33.1686
-33.653
-33.9767
-34.1413
-34.1465
-33.9914
-33.6747
-33.1942
-32.547
-31.7284
-30.7316
-29.5476
-28.1656
-26.5741
-24.763
-22.7229
-20.4435
-17.9158
-15.1347
-12.0975
-8.80793
-5.28649
-1.58611
2.18831
5.88775
9.3484
12.4218
15.0057
17.0592
18.5981
19.6777
20.3738
20.7651
20.9234
20.9084
20.7681
20.5403
20.2547
19.9353
19.6017
19.2698
18.9525
18.6598
18.399
18.1751
17.992
17.8531
17.7591
17.7079
17.6965
17.7218
17.7797
17.8656
17.9743
18.1005
18.2386
18.3837
18.531
18.6765
18.8169
18.9496
19.0717
19.1789
19.2628
19.3082
19.2893
19.1667
18.8864
18.3812
17.5797
16.4208
14.8726
12.9672
10.825
8.63639
6.6153
4.96324
3.84343
3.36422
3.57349
4.46725
5.98534
8.01063
10.3618
12.8073
15.1149
17.0934
18.664
19.7488
-3.04712
-3.32519
-3.36985
-3.43871
-3.5581
-3.71982
-3.92128
-4.15658
-4.41779
-4.6998
-5.00059
-5.31581
-5.63837
-5.96143
-6.27881
-6.58548
-6.87796
-7.15434
-7.41405
-7.65765
-7.88637
-8.10192
-8.30638
-8.50224
-8.69223
-8.87912
-9.06626
-9.25759
-9.45786
-9.67277
-9.90906
-10.1746
-10.4783
-10.8299
-11.2391
-11.7147
-12.2632
-12.8858
-13.5773
-14.3228
-15.0973
-15.8654
-16.5823
-17.197
-17.658
-17.9175
-17.9257
-17.6362
-17.03
-16.1037
-14.856
-13.3005
-11.466
-9.39648
-7.15227
-4.80949
-2.4543
-0.170608
1.97456
3.93843
5.70353
7.26718
8.62446
9.75754
10.6378
11.2312
11.4785
11.2958
10.6062
9.37367
7.62498
5.45216
2.98611
0.350768
-2.34634
-5.04836
-7.71605
-10.325
-12.8565
-15.2942
-17.6235
-19.8322
-21.9097
-23.8474
-25.6381
-27.2756
-28.7542
-30.0691
-31.222
-32.2149
-33.0399
-33.6927
-34.1764
-34.4936
-34.6469
-34.6357
-34.46
-34.1202
-33.6151
-32.9438
-32.1047
-31.0934
-29.9032
-28.5255
-26.9517
-25.1733
-23.1826
-20.9717
-18.5317
-15.8567
-12.9425
-9.78679
-6.39749
-2.80929
0.888848
4.54824
8.00023
11.0918
13.7134
15.8157
17.4085
18.5439
19.2953
19.7404
19.9499
19.9827
19.8863
19.6979
19.4475
19.1593
18.8534
18.5463
18.2518
17.9811
17.7428
17.5427
17.3852
17.2735
17.2087
17.1894
17.2126
17.2737
17.3672
17.4886
17.6322
17.7918
17.9614
18.1353
18.3083
18.4757
18.6337
18.7791
18.9083
19.0164
19.0953
19.1302
19.0974
18.9606
18.6706
18.1651
17.375
16.2378
14.72
12.8505
10.7461
8.59319
6.60193
4.97077
3.85959
3.37267
3.55582
4.41184
5.88697
7.8641
10.1629
12.5538
14.8073
16.7382
18.269
19.3322
-2.88011
-3.12773
-3.15903
-3.23168
-3.34835
-3.50017
-3.68462
-3.89633
-4.12616
-4.36809
-4.62329
-4.89108
-5.16599
-5.44237
-5.71497
-5.97923
-6.23171
-6.47028
-6.69416
-6.90385
-7.10088
-7.28757
-7.46705
-7.64341
-7.82164
-8.00697
-8.20578
-8.42561
-8.67542
-8.96567
-9.30836
-9.71697
-10.2061
-10.791
-11.4861
-12.3038
-13.2518
-14.3307
-15.5305
-16.8279
-18.1841
-19.5431
-20.8342
-21.9765
-22.8883
-23.4984
-23.7454
-23.5782
-22.9755
-21.9322
-20.4517
-18.5458
-16.2349
-13.5544
-10.5683
-7.38117
-4.13178
-0.964517
2.00581
4.70817
7.11264
9.21013
10.99
12.4255
13.4766
14.1012
14.2621
13.8957
12.9506
11.4236
9.37523
6.92402
4.21355
1.37263
-1.50608
-4.36632
-7.1739
-9.90672
-12.5471
-15.0797
-17.4919
-19.7729
-21.9141
-23.9086
-25.7505
-27.4352
-28.9579
-30.3173
-31.5137
-32.5391
-33.3849
-34.0516
-34.5423
-34.858
-35.0063
-34.9831
-34.7909
-34.4313
-33.9055
-33.2143
-32.3574
-31.3327
-30.1353
-28.759
-27.1983
-25.4481
-23.499
-21.3421
-18.9722
-16.3857
-13.5777
-10.5428
-7.28208
-3.82487
-0.240161
3.3451
6.75491
9.82742
12.452
14.5755
16.2024
17.3802
18.179
18.6734
18.9318
19.0114
18.9583
18.8095
18.5945
18.338
18.0603
17.7789
17.5083
17.2606
17.0454
16.8699
16.7391
16.6561
16.6216
16.6348
16.6927
16.7903
16.9228
17.0828
17.2639
17.4598
17.6639
17.8696
18.071
18.2628
18.4406
18.6006
18.7387
18.8497
18.9253
18.952
18.9079
18.7603
18.4647
17.9642
17.1938
16.0919
14.6235
12.8133
10.7713
8.67562
6.73109
5.13295
4.03759
3.5462
3.70367
4.51606
5.93404
7.84451
10.0707
12.3852
14.5629
16.4277
17.9047
18.936
-2.82642
-3.0715
-3.11026
-3.18047
-3.28352
-3.41609
-3.57658
-3.75699
-3.94674
-4.14159
-4.34318
-4.55023
-4.75901
-4.96628
-5.16911
-5.36487
-5.5515
-5.72762
-5.89274
-6.04741
-6.19326
-6.33313
-6.47119
-6.61273
-6.76517
-6.93628
-7.13561
-7.37462
-7.66682
-8.02794
-8.47585
-9.03041
-9.71289
-10.545
-11.5475
-12.7378
-14.127
-15.7159
-17.4896
-19.4126
-21.4231
-23.4316
-25.3248
-26.9788
-28.2756
-29.1203
-29.4582
-29.2713
-28.5808
-27.3905
-25.7239
-23.5896
-20.9747
-17.8589
-14.251
-10.2431
-6.03477
-1.88665
1.97701
5.42718
8.42492
10.9823
13.1137
14.8045
16.0126
16.6858
16.783
16.2676
15.1202
13.3654
11.0887
8.42473
5.52295
2.51139
-0.520982
-3.52
-6.45333
-9.29924
-12.0405
-14.6627
-17.1544
-19.5065
-21.7117
-23.7643
-25.6599
-27.3953
-28.9681
-30.3753
-31.6104
-32.6655
-33.5361
-34.2228
-34.7277
-35.0537
-35.1982
-35.1685
-34.9659
-34.5931
-34.0527
-33.3468
-32.4764
-31.4415
-30.2388
-28.8661
-27.3214
-25.5967
-23.6806
-21.5664
-19.2536
-16.7404
-14.0221
-11.0916
-7.94797
-4.61758
-1.16643
2.30212
5.63184
8.65151
11.2447
13.3599
14.9984
16.2027
17.0382
17.5749
17.8776
18.0008
17.9888
17.8776
17.6967
17.4708
17.2209
16.9651
16.7186
16.4946
16.3034
16.1533
16.05
15.9969
15.9954
16.0441
16.1388
16.2751
16.4474
16.6486
16.8709
17.1063
17.3477
17.5882
17.8209
18.0398
18.2398
18.4166
18.5659
18.6823
18.7576
18.7793
18.7278
18.5739
18.2778
17.7884
17.0461
15.9922
14.5911
12.8628
10.9065
8.88883
7.00719
5.45202
4.37687
3.88286
4.01751
4.78639
6.13969
7.96781
10.0975
12.3095
14.3895
16.1701
17.5802
18.5688
-2.92693
-3.16205
-3.20547
-3.2673
-3.36011
-3.47477
-3.60469
-3.74483
-3.89022
-4.03673
-4.18089
-4.31953
-4.45018
-4.5713
-4.68217
-4.78288
-4.87415
-4.95715
-5.03345
-5.10498
-5.17438
-5.24542
-5.32314
-5.4122
-5.52235
-5.66426
-5.85082
-6.09746
-6.42239
-6.8467
-7.3944
-8.09214
-8.96849
-10.0528
-11.373
-12.9527
-14.8067
-16.934
-19.3095
-21.8742
-24.528
-27.1304
-29.5133
-31.5071
-32.972
-33.8228
-34.0403
-33.6647
-32.7669
-31.4051
-29.6147
-27.4028
-24.7287
-21.4976
-17.6011
-13.0274
-7.97641
-2.84719
1.94748
6.14698
9.66787
12.5477
14.8667
16.6784
17.9786
18.7084
18.7951
18.2042
16.9431
15.0597
12.6531
9.86304
6.83931
3.70908
0.561952
-2.54668
-5.58311
-8.52452
-11.3533
-14.0554
-16.6199
-19.0386
-21.3049
-23.414
-25.3624
-27.1474
-28.7683
-30.2204
-31.4941
-32.5819
-33.4797
-34.1883
-34.7104
-35.0471
-35.1996
-35.1717
-34.9666
-34.5883
-34.0407
-33.327
-32.4486
-31.4075
-30.2072
-28.846
-27.3167
-25.6092
-23.718
-21.6417
-19.3804
-16.9333
-14.2963
-11.4621
-8.4282
-5.21582
-1.89311
1.43127
4.6343
7.56538
10.0951
12.1715
13.7971
15.0099
15.869
16.439
16.7796
16.9416
16.9671
16.8907
16.7416
16.5446
16.3211
16.09
15.8676
15.6676
15.5016
15.3784
15.3044
15.2837
15.3174
15.4042
15.5406
15.7208
15.9371
16.1824