/*--------------------------------*- C++ -*----------------------------------*\
| =========                 |                                                 |
| \\      /  F ield         | OpenFOAM: The Open Source CFD Toolbox           |
|  \\    /   O peration     | Version:  2112                                  |
|   \\  /    A nd           | Website:  www.openfoam.com                      |
|    \\/     M anipulation  |                                                 |
\*---------------------------------------------------------------------------*/
FoamFile
{
    version     2.0;
    format      ascii;
    arch        "LSB;label=32;scalar=64";
    class       volScalarField;
    location    "0.11";
    object      omega;
}
// * * * * * * * * * * * * * * * * * * * * * * * * * * * * * * * * * * * * * //

dimensions      [0 0 -1 0 0 0 0];

internalField   nonuniform List<scalar> 
12225
(
5753.33
8260.42
9141.83
9327.96
9234.69
9031.28
8785.71
8527.54
8271.68
8026.72
7797.9
7588.29
7399.35
7231.11
7082.33
6950.49
6832.92
6719.73
343.351
778.681
1192.35
1554.46
1856.28
2102.83
2304.53
2471.23
2610.62
2728.39
2828.71
2914.7
2988.8
3053.08
3109.09
3159.11
3209.3
3277.41
48.9607
79.8895
130.191
198.126
278.189
363.765
449.463
531.385
606.935
674.627
733.87
784.738
827.782
863.931
894.539
921.657
949.266
982.886
39.7235
40.9841
44.1745
50.1661
59.5101
72.1989
87.8301
105.732
125.059
144.922
164.506
183.156
200.424
216.086
230.162
242.931
255.064
267.247
39.497
39.4292
39.4774
39.7441
40.3539
41.4087
42.9686
45.0446
47.5935
50.5254
53.7209
57.0518
60.4004
63.6758
66.826
69.8466
72.776
75.647
39.4901
39.3742
39.2686
39.1796
39.1189
39.0996
39.1337
39.2299
39.392
39.6172
39.8965
40.217
40.5641
40.9243
41.2873
41.6474
42.0011
42.3389
39.4883
39.3694
39.2569
39.1509
39.0522
38.9619
38.8806
38.8088
38.747
38.6952
38.6527
38.6184
38.5909
38.5687
38.5507
38.5365
38.5264
38.5206
39.487
39.3671
39.2536
39.1462
39.045
38.9499
38.8606
38.7769
38.6984
38.6249
38.5561
38.4916
38.431
38.374
38.3205
38.2708
38.2254
38.185
39.4862
39.3654
39.2512
39.1431
39.041
38.9448
38.8542
38.7688
38.6884
38.6126
38.5412
38.4737
38.4099
38.3496
38.2927
38.2391
38.1889
38.1417
39.4856
39.3644
39.2496
39.1411
39.0384
38.9415
38.8501
38.7639
38.6825
38.6056
38.533
38.4644
38.3994
38.3379
38.2796
38.2244
38.1718
38.1213
39.4864
39.3658
39.2516
39.1435
39.0412
38.9445
38.8531
38.7668
38.6852
38.6081
38.5352
38.4662
38.4008
38.3388
38.28
38.224
38.1703
38.1184
39.4893
39.3713
39.2595
39.1535
39.0531
38.9581
38.8682
38.7832
38.7027
38.6266
38.5546
38.4863
38.4217
38.3604
38.3021
38.2465
38.1932
38.1418
39.4931
39.3787
39.2702
39.1673
39.0698
38.9774
38.8899
38.807
38.7285
38.6542
38.5838
38.5171
38.4538
38.3938
38.3368
38.2824
38.2305
38.1806
39.497
39.3863
39.2811
39.1814
39.0867
38.997
38.912
38.8313
38.755
38.6826
38.614
38.5489
38.4872
38.4287
38.3732
38.3203
38.27
38.222
39.5001
39.3921
39.2896
39.1922
39.0998
39.0121
38.9289
38.8501
38.7753
38.7043
38.6371
38.5733
38.5128
38.4555
38.4011
38.3494
38.3004
38.254
39.5021
39.396
39.2951
39.1993
39.1083
39.0219
38.9399
38.8621
38.7882
38.7182
38.6517
38.5887
38.5289
38.4722
38.4184
38.3675
38.3193
38.274
39.5033
39.3984
39.2985
39.2036
39.1134
39.0277
38.9463
38.869
38.7956
38.7259
38.6598
38.597
38.5375
38.481
38.4275
38.3768
38.329
38.2839
39.5041
39.3998
39.3006
39.2061
39.1164
39.031
38.9498
38.8727
38.7994
38.7297
38.6636
38.6007
38.5411
38.4844
38.4307
38.3798
38.3316
38.2861
39.5039
39.3995
39.3
39.2053
39.1152
39.0295
38.9479
38.8703
38.7965
38.7262
38.6595
38.5959
38.5355
38.478
38.4234
38.3715
38.3222
38.2754
39.5027
39.3972
39.2966
39.2008
39.1096
39.0227
38.94
38.8612
38.7862
38.7148
38.6467
38.5818
38.52
38.4611
38.405
38.3515
38.3006
38.252
39.5003
39.3925
39.2897
39.1917
39.0983
39.0093
38.9245
38.8437
38.7666
38.6931
38.6229
38.556
38.4921
38.4311
38.3729
38.3173
38.2642
38.2134
39.4954
39.3828
39.2755
39.1731
39.0755
38.9824
38.8936
38.8089
38.728
38.6508
38.5771
38.5066
38.4394
38.3751
38.3136
38.2548
38.1986
38.1449
39.4883
39.369
39.2553
39.1469
39.0434
38.9448
38.8507
38.7609
38.6752
38.5933
38.5152
38.4406
38.3695
38.3016
38.2369
38.1753
38.1166
38.0608
39.4854
39.3634
39.2469
39.1358
39.03
38.9291
38.833
38.7413
38.6541
38.5711
38.4924
38.4182
38.3487
38.2841
38.225
38.172
38.1258
38.0872
39.4859
39.3641
39.2478
39.1368
39.0316
38.9325
38.8403
38.7562
38.682
38.6201
38.5738
38.547
38.5444
38.5719
38.6357
38.743
38.9009
39.1168
39.487
39.3679
39.2598
39.1692
39.107
39.0883
39.1313
39.2577
39.4927
39.8644
40.4035
41.1431
42.1181
43.3639
44.9159
46.8068
49.0657
51.7134
39.5031
39.5026
39.7362
40.3644
41.5684
43.5075
46.3169
50.1153
55.0039
61.0659
68.3692
76.9671
86.8965
98.1754
110.799
124.74
139.937
156.308
41.026
47.3495
59.3715
77.8051
102.592
132.907
167.791
206.36
247.83
291.539
336.958
383.676
431.379
479.822
528.798
578.129
627.625
677.201
149.337
343.299
558.184
771.47
969.745
1147.66
1305.49
1445.69
1571.14
1684.63
1788.56
1884.88
1975.15
2060.54
2141.75
2219.21
2293.13
2363.6
3775.06
5776.54
6697.07
7058.91
7152.38
7119.12
7024.83
6899.81
6758.26
6606.99
6449.3
6286.84
6120.5
5950.84
5778.3
5603.36
5426.37
5248.45
390.6
413.369
417.872
418.752
420.508
424.537
430.846
438.594
444.813
444.674
434.853
412.913
380.155
346.742
332.86
363.185
461.82
648.056
934.2
1295.2
1566.03
1792.88
1984.14
2139.29
2259.6
2347.32
2405
2435.28
2440.69
2423.69
2386.49
2330.92
2258.43
2170.27
2067.55
1953.83
1840.5
1727.42
1614.6
1502.48
1391.68
1282.87
1176.72
1073.93
975.21
881.281
792.858
710.659
635.386
567.717
508.285
457.671
416.384
384.855
363.423
352.375
352.027
363.061
382.937
409.706
443.623
484.16
530.646
582.409
638.898
699.675
764.551
833.988
909.848
996.234
1098.56
1216.75
1331.31
1404.5
1438.98
1450.37
1452.39
1449.87
1438.86
1411.18
1361.35
1298.93
1244.07
1203.19
1169.51
1150.43
1152.74
1175.31
1205.85
1226.57
1225.59
1201.64
1165.16
1120.43
1061.82
1015.5
1041.12
1196.19
1480.59
1799.89
2037.04
2228.54
2374.89
2476.98
2537.3
2558.62
2543.54
2494.26
2412.6
2299.85
2155.99
1997.83
1829.96
1655.21
1477.5
1301.35
1131.77
974.347
835.162
720.651
637.509
592.772
594.815
656.33
757.323
897.309
1073.31
1279.39
1508.18
1750.99
1999.59
2250.35
2495.33
2668.08
2750.39
2743.2
2654.6
2504.11
2316.86
2115.4
1915.95
1729.05
1561.45
1417.11
1297.33
1200.9
1124.79
1065.25
1018.62
981.799
952.275
928.113
907.857
890.429
874.992
860.83
847.235
833.434
818.566
801.691
781.792
757.802
728.897
695.463
660.743
630.843
610.871
601.78
604.672
619.681
647.098
688.313
746.642
826.535
926.527
1022.82
1059.2
1000.73
862.457
719.03
809.981
564.657
469.798
424.384
396.297
374.877
356.747
340.26
331.387
338.476
366.942
423.749
520.61
670.938
873.005
1032.01
1127.8
1202.33
1261.9
1301.48
1310.31
1292.49
1249.79
1185.2
1102.89
1007.72
904.906
799.76
697.608
603.367
521.302
454.644
405.493
374.703
361.792
362.228
362.542
362.513
362.008
360.938
359.26
356.941
353.917
350.087
345.534
340.316
334.444
327.936
320.829
313.203
305.193
296.993
288.843
281.001
273.699
267.088
261.272
256.398
252.846
250.037
247.862
246.367
245.58
245.493
246.103
247.438
249.61
252.943
258.23
267.012
281.96
307.801
353.326
426.464
498.781
552.935
589.35
616.544
638.051
653.427
659.156
645.239
602.073
542.802
497.001
470.016
457.565
456.419
463.326
471.636
475.307
485.969
527.428
624.239
796.106
1012.81
1192.42
1276.96
1285.67
1247.1
1168.41
1064.81
947.054
825.168
707.824
602.153
513.7
446.313
402.096
381.214
384.248
390.858
397.967
405.511
413.485
421.968
431.01
440.253
449.579
458.745
467.323
474.657
479.613
480.818
478.456
472.903
464.008
451.535
438.675
425.971
414.108
406.045
418.41
517.219
673.042
831.955
962.751
1054.11
1107.71
1127.52
1117.39
1080.77
1022.49
949.666
870.741
793.459
723.293
662.993
613.072
572.677
540.374
514.655
494.2
477.992
465.34
455.847
449.325
445.683
444.832
446.613
450.742
456.711
463.624
470.105
474.462
474.99
470.166
459.104
437.766
407.747
372.955
338.059
309.286
295.007
300.988
328.323
377.661
436.753
483.107
496.902
1116.97
584.52
471.547
443.926
437.034
434.923
433.956
464.675
511.895
566
652.481
761.139
866.014
953.749
1012.13
1036.19
1035.99
1019.41
988.358
943.005
884.282
815.638
740.924
664.704
591.702
526.137
471.155
428.451
398.167
379.075
368.991
365.305
365.499
367.499
369.621
371.128
371.899
371.853
370.964
369.256
366.8
363.697
360.041
355.897
351.265
346.066
340.149
333.313
325.364
316.182
305.783
294.368
282.321
270.162
258.456
247.66
238.046
230.067
224.077
219.138
215.149
212.083
209.926
208.657
208.247
208.676
209.94
212.072
215.173
219.425
225.1
232.503
241.72
252.35
263.651
275.402
289.048
308.537
340.81
384.939
431.322
474.281
506.897
516.484
495.03
455.374
424.382
413.477
412.178
415.197
434.532
490.113
605.598
785.365
979.502
1090.07
1077.91
1005.06
902.889
787.523
672.579
569.479
485.357
423.112
381.84
358.146
347.536
345.542
348.407
353.382
359.175
365.318
371.749
378.43
385.372
392.625
400.266
408.367
416.942
425.877
434.851
443.243
449.77
452.807
452.622
449.365
443.229
434.639
424.126
412.188
399.174
385.293
370.717
357.101
359.145
387.268
435.658
492.659
548.719
598.249
637.895
664.705
675.695
669.371
646.852
611.878
569.7
525.545
483.427
445.701
413.266
386.03
363.391
344.58
328.883
315.765
304.91
296.218
289.757
285.693
284.217
285.439
289.193
294.771
300.759
305.28
306.553
303.546
296.529
282.466
262.382
239.566
219.984
212.468
224.287
256.679
311.517
387.534
444.094
437.787
1128.84
531.378
493.712
506.063
527.887
561.928
609.39
646.514
689.811
741.498
797.43
846.722
879.753
892.055
883.932
858.888
822.007
776.518
724.508
668.165
610.36
554.524
503.915
461.166
427.805
404.063
389.037
381.085
378.288
378.831
381.249
384.496
387.912
391.11
393.298
394.442
394.376
392.98
390.219
386.175
381.07
375.252
369.149
363.179
357.631
352.556
347.709
342.565
336.433
328.608
318.541
306.026
291.33
275.208
258.758
243.099
228.999
217.725
208.818
201.382
195.329
190.592
187.123
184.895
183.892
184.105
185.524
188.137
191.934
196.927
203.133
210.51
218.893
227.928
237.104
245.998
254.733
264.578
278.514
301.661
336.179
377.264
419.484
454.779
471.417
465.703
448.72
437.35
439.157
451.571
490.605
587.259
751.928
926.715
1000.48
953.491
856.266
742.373
628.646
526.877
445.563
387.724
351.238
331.124
321.951
319.293
320.144
322.755
326.283
330.405
335.165
340.325
345.763
351.41
357.273
363.446
370.092
377.414
385.578
394.637
404.421
414.312
422.716
427.993
430.441
429.806
426.253
420.279
412.52
403.57
393.886
383.709
373.001
361.424
348.804
338.262
334.686
340.852
356.37
378.68
404.245
429.292
450.069
463.122
466.007
457.949
440.082
415.053
386.164
356.46
328.136
302.404
279.676
259.853
242.605
227.566
214.453
203.113
193.519
185.745
179.915
176.185
174.564
174.754
176.003
177.118
176.719
173.594
168.069
161.54
154.13
148.157
147.813
159.61
189.133
237.461
305.939
383.724
417.602
380.409
961.173
546.848
567.551
588.83
615.339
644.92
671.479
698.562
726.106
751.108
769.515
777.047
771.428
752.898
723.563
686.353
644.235
599.668
555.018
512.751
475.239
444.336
421.008
405.25
396.234
392.633
392.97
395.891
400.309
405.435
410.729
415.815
420.403
423.987
426.695
428.282
428.424
426.758
422.946
416.772
408.258
397.779
386.11
374.343
363.65
354.936
348.515
343.962
340.211
335.842
329.39
319.618
305.887
288.511
268.781
248.629
229.988
215.135
202.648
192.128
183.465
176.544
171.276
167.615
165.555
165.112
166.307
169.138
173.576
179.561
187.008
195.785
205.672
216.312
227.208
237.862
247.994
257.756
268.218
282.008
303.123
332.779
368.056
404.021
434.213
453.366
461.837
465.81
480.434
514.198
584.883
712.294
866.981
937.908
882.325
778.626
664.369
555.832
463.554
393.897
347.606
320.414
306.219
299.706
297.332
297.177
298.398
300.688
303.915
308.151
312.937
317.994
323.117
328.203
333.273
338.48
344.1
350.503
358.029
366.938
377.246
388.281
397.66
405.029
409.681
411.18
409.634
405.558
399.633
392.503
384.669
376.452
367.987
359.177
349.614
338.763
327.311
317.211
310.652
309.196
313.145
321.318
331.386
340.515
345.997
345.781
338.876
325.557
307.209
285.832
263.439
241.599
221.277
202.893
186.501
171.975
159.151
147.897
138.145
129.874
123.097
117.818
113.992
111.461
109.891
108.753
107.416
105.335
102.324
99.6895
98.9029
101.996
112.866
136.96
178.518
238.056
313.346
380.883
385.349
332.783
779.214
608.092
625.267
635.553
647.353
658.667
670.684
681.7
689.76
692.756
688.836
676.857
656.868
630.029
598.248
563.764
528.858
495.664
466.11
441.711
423.342
411.124
404.505
402.484
403.875
407.534
412.507
418.086
423.788
429.303
434.427
439.007
442.902
446.485
450.207
453.756
456.664
458.305
457.899
454.564
447.455
436.042
420.496
402.029
382.855
365.573
352.182
343.315
338.153
334.968
331.658
325.99
315.954
300.531
280.202
257.274
235.661
217.411
201.382
187.706
176.317
167.079
159.87
154.612
151.29
149.943
150.637
153.432
158.356
165.381
174.407
185.239
197.551
210.814
224.273
237.105
248.75
259.138
268.734
278.935
292.62
312.688
339.336
369.983
401.873
433.43
462.801
489.725
526.811
593.9
691.254
813.785
891.168
845.727
742.099
629.255
523.894
435.641
370.22
327.662
303.101
290.147
283.635
280.44
279.115
279.198
280.627
283.384
287.315
292.191
297.328
302.395
307.155
311.506
315.521
319.446
323.697
328.833
335.335
343.768
354.276
365.097
375.56
384.598
391.099
394.465
394.73
392.405
388.191
382.724
376.457
369.657
362.461
354.921
346.963
338.255
328.344
317.345
305.976
295.347
286.761
281.234
278.832
278.455
278.279
276.394
271.309
262.272
249.405
233.581
216.088
198.221
180.994
165.031
150.614
137.794
126.506
116.645
108.113
100.828
94.7175
89.7125
85.7311
82.6663
80.3689
78.6445
77.289
76.1679
75.3452
75.3364
77.7371
85.0836
101.35
131.919
180.634
247.127
322.276
372.271
352.2
299.536
667.66
645.867
649.921
644.947
643.652
643.623
643.06
640.624
635.137
625.591
611.369
592.405
569.305
543.281
515.972
489.191
464.666
443.798
427.496
416.071
409.25
406.307
406.26
408.08
410.864
413.944
416.915
419.612
422.046
424.333
426.637
429.118
431.891
435.971
441.277
447.528
454.343
461.2
467.361
471.771
472.978
469.207
458.778
441.004
417.298
391.48
368.349
351.168
340.253
333.95
330.048
326.096
319.233
307.028
288.265
264.911
242.365
221.197
202.117
185.567
171.617
160.175
151.105
144.304
139.737
137.458
137.581
140.251
145.593
153.673
164.452
177.726
193.029
209.513
225.979
241.163
254.206
265.007
274.12
282.606
292.468
306.28
325.511
350.059
379.918
417.419
462.911
514.47
583.085
676.155
779.004
854.499
831.099
731.706
619.936
515.435
427.327
361.434
318.329
293.396
280.168
273.316
269.649
267.753
267.246
268.143
270.477
274.143
278.857
284.106
289.285
294.006
298.001
301.183
303.697
305.915
308.432
312.01
317.26
325.194
334.654
345.567
356.871
367.139
375.09
379.994
381.825
381.099
378.534
374.753
370.138
364.842
358.878
352.242
344.976
337.113
328.517
318.88
308.096
296.273
283.811
271.6
260.789
252.017
244.945
238.478
231.331
222.492
211.505
198.524
184.187
169.348
154.814
141.182
128.796
117.785
108.14
99.7757
92.5797
86.4385
81.2485
76.917
73.3609
70.5042
68.2761
66.6152
65.4852
64.9149
65.08
66.5072
70.5025
79.7449
98.7499
133.154
186.784
257.523
327.97
358.636
323.361
278.868
687.499
649.157
643.386
632.439
624.598
616.799
607.902
597.366
584.743
569.668
552.046
532.163
510.751
488.929
468.023
449.307
433.755
421.881
413.69
408.733
406.234
405.269
404.951
404.588
403.771
402.384
400.553
398.571
396.827
395.75
395.745
397.122
400.02
404.986
411.612
419.669
428.911
439.071
449.799
460.512
470.138
476.799
477.702
469.76
451.313
424.294
394.671
369.341
351.295
339.421
331.509
325.627
318.995
308.473
291.409
270.2
247.165
224.186
202.866
184.023
167.928
154.581
143.88
135.72
130.054
126.939
126.537
129.089
134.854
144.05
156.756
172.771
191.398
211.3
230.662
247.747
261.568
272.22
280.596
287.849
295.553
305.866
320.454
340.388
367.866
408.45
465.163
534.89
627.547
740.251
826.836
831.12
739.894
628.509
523.06
432.576
363.082
316.467
289.112
274.664
267.371
263.557
261.493
260.673
261.123
262.952
266.136
270.449
275.483
280.784
285.786
289.995
293.09
294.971
295.851
296.229
296.935
298.909
303.062
309.54
318.61
329.7
341.598
352.761
361.803
367.91
371.023
371.668
370.593
368.419
365.476
361.813
357.305
351.792
345.217
337.699
329.481
320.502
310.591
299.523
287.022
273.087
258.44
244.311
231.61
220.398
210.038
199.68
188.672
176.773
164.162
151.296
138.718
126.893
116.126
106.557
98.1957
90.9706
84.771
79.4779
74.9813
71.1884
68.0257
65.439
63.3942
61.881
60.9241
60.611
61.164
63.1372
67.8657
78.1654
98.8636
135.964
193.349
266.083
329.423
342.784
301.157
266.903
849.377
631.684
622.078
609.736
598.644
586.794
573.803
559.725
544.542
528.206
510.85
492.888
475.028
458.172
443.206
430.793
421.216
414.334
409.634
406.343
403.602
400.65
396.974
392.387
387.003
381.151
375.283
369.913
365.566
362.731
361.803
363.032
366.789
372.59
380.196
389.34
399.763
411.268
423.753
437.15
451.177
464.775
475.377
478.718
470.436
449.354
419.969
390.917
367.982
351.17
338.244
328.211
318.988
307.357
292
272.029
248.954
225.056
202.292
181.843
164.199
149.438
137.491
128.274
121.75
117.98
117.171
119.662
125.882
136.251
151.017
169.966
192.081
215.385
237.312
255.692
269.671
279.762
287.226
293.415
299.803
308.225
320.375
337.738
363.722
406.231
470.49
553.817
665.174
782.897
831.785
768.34
651.606
543.457
449.011
373.777
321.155
289.276
272.329
264.074
260.013
257.759
256.477
256.143
256.987
259.175
262.674
267.222
272.333
277.695
282.608
286.451
288.874
289.744
289.317
288.192
287.45
288.067
290.963
296.825
305.768
317.131
329.563
341.425
351.284
358.299
362.397
364.128
364.278
363.487
362.058
359.978
357.027
352.905
347.371
340.41
332.33
323.355
313.605
303.006
291.175
277.547
262.001
245.36
228.989
213.9
200.309
187.821
175.861
164.006
152.133
140.389
129.069
118.482
108.854
100.297
92.8194
86.3551
80.8013
76.0449
71.9815
68.5253
65.6133
63.2066
61.2906
59.8786
59.0201
58.826
59.54
61.7374
66.7908
77.6436
99.4579
138.598
198.806
271.917
327.274
327.342
285.531
260.165
1086.1
607.135
593.535
582.553
570.867
557.889
543.904
529.334
514.371
499.127
483.839
468.928
454.972
442.572
432.185
423.981
417.778
413.058
409.062
404.949
400.002
393.796
386.282
377.731
368.607
359.448
350.808
343.239
337.283
333.427
332.048
333.365
337.721
344.351
352.956
363.163
374.595
386.945
400.068
414.084
429.366
446.004
462.601
474.761
476.008
462.225
436.25
407.504
383.367
364.212
347.477
333.225
320.257
306.802
290.616
270.596
247.487
223.201
199.695
178.313
159.718
144.096
131.404
121.551
114.501
110.328
109.277
111.793
118.494
130.051
146.922
168.899
194.592
221.223
245.371
264.602
278.472
288.017
294.71
299.941
305.244
312.322
323.052
339.286
364.887
408.99
478.205
571.486
694.55
801.228
802.527
694.898
575.502
475.759
393.482
332.743
293.982
272.703
262.452
257.723
255.115
253.174
251.684
250.967
251.442
253.388
256.808
261.369
266.645
272.162
277.095
280.722
282.753
283.058
281.91
279.958
278.419
278.272
280.65
286.389
295.609
307.502
320.546
333.03
343.529
351.209
355.998
358.481
359.503
359.735
359.482
358.711
357.182
354.535
350.374
344.455
336.858
327.845
317.804
307.039
295.452
282.41
267.188
249.852
231.54
213.728
197.377
182.68
169.332
156.904
145.105
133.858
123.252
113.443
104.565
96.6837
89.7884
83.8123
78.6581
74.2217
70.4077
67.1399
64.3651
62.0556
60.2093
58.8528
58.0485
57.919
58.7178
61.0296
66.2455
77.3851
99.8217
140.313
202.324
274.837
322.696
313.985
275.27
256.313
1370.24
584.327
563.354
555.064
544.359
532.023
518.866
505.501
492.211
479.173
466.635
454.95
444.52
435.686
428.597
423.121
418.808
414.924
410.589
404.99
397.621
388.421
377.745
366.187
354.377
342.883
332.209
322.853
315.337
310.196
307.953
309.084
314.065
321.625
331.259
342.509
354.946
368.154
381.818
395.877
410.87
427.674
446.655
464.455
473.345
466.233
444.002
416.655
393.196
373.559
355.543
338.342
322.002
305.608
287.427
266.356
242.798
218.296
194.589
172.956
154.074
138.178
125.263
115.243
108.064
103.795
102.708
105.344
112.519
125.196
144.125
169.179
198.556
228.527
254.783
274.813
288.762
298.104
304.299
308.594
312.575
318.06
327.424
343.059
368.951
414.6
487.076
587.26
713.73
796.351
753.161
626.889
512.734
422.672
352.359
304.31
276.294
262.403
256.266
253.163
250.616
247.935
245.406
243.661
243.334
244.829
248.138
252.708
258.207
263.75
268.618
272.024
273.805
273.906
272.608
270.76
269.178
269.035
271.61
277.848
287.835
300.576
314.372
327.479
338.517
346.659
351.835
354.688
356.144
356.922
357.342
357.401
356.915
355.573
352.928
348.503
341.973
333.411
323.197
311.951
300.067
287.224
272.509
255.314
236.208
216.69
198.205
181.501
166.634
153.301
141.154
129.975
119.693
110.33
101.924
94.4835
87.9678
82.3012
77.3889
73.1347
69.4536
66.2791
63.5679
61.3011
59.4859
58.1574
57.3865
57.3023
58.1613
60.5452
65.8389
77.0836
99.7738
140.917
203.859
275.16
316.839
303.427
268.953
254.022
1665.29
581.883
536.523
530.202
520.908
509.879
498.27
486.795
475.743
465.264
455.54
446.802
439.297
433.205
428.536
425.037
422.131
418.949
414.5
407.959
398.956
387.704
374.877
361.314
347.747
334.69
322.483
311.378
301.64
293.799
289.259
290.817
297.403
306.237
316.805
328.749
341.756
355.458
369.49
383.594
398.145
413.821
432.371
452.013
465.285
463.444
445.947
421.632
398.77
378.698
359.442
340.3
321.486
302.426
281.888
259.191
234.845
210.205
186.726
165.465
146.979
131.457
118.886
109.178
102.272
98.2229
97.3136
100.156
107.756
121.412
142.27
170.394
203.584
237.09
265.653
286.735
301.087
310.496
316.264
319.464
321.665
325.059
332.824
347.896
374.266
421.415
496.034
600.263
721.57
772.959
696.57
568.337
463.62
381.868
322.08
284.543
264.603
255.726
251.848
249.003
245.561
241.493
237.514
234.558
233.455
234.651
237.992
242.654
248.078
253.295
257.872
260.946
262.567
262.719
261.895
260.61
259.68
260.29
263.789
271.162
282.388
296.26
310.941
324.715
336.24
344.652
349.876
352.654
354.027
354.765
355.215
355.454
355.439
355.008
353.779
351.089
346.192
338.825
329.065
317.551
305.138
292.062
277.601
260.757
241.467
220.96
200.914
182.519
166.198
151.836
139.113
127.737
117.522
108.376
100.248
93.0818
86.805
81.327
76.5525
72.3921
68.7701
65.6301
62.9374
60.6808
58.8745
57.5603
56.8143
56.7691
57.6795
60.1136
65.4249
76.6208
99.2297
140.435
203.503
273.264
310.532
295.677
265.409
252.653
1816.54
710.187
534.394
511.525
501.767
491.661
481.438
471.779
462.924
454.923
447.812
441.646
436.516
432.514
429.652
427.723
426.174
424.093
420.38
414.101
404.851
392.925
379.174
364.641
350.209
336.459
323.71
312.137
301.905
293.237
286.394
286.536
292.909
301.949
312.418
324.013
336.55
349.761
363.342
377.035
390.763
405.306
422.219
441.095
456.126
458.233
444.566
422.509
400.383
379.822
359.318
338.558
317.717
296.203
273.206
248.67
223.469
198.895
176.095
155.804
138.364
123.849
112.192
103.28
97.0339
93.4955
92.9474
96.0554
103.993
118.408
140.933
171.976
209.102
246.543
277.861
300.263
315.062
324.36
329.39
331.162
331.298
332.579
338.855
353.312
380.054
428.563
504.429
609.656
718.257
737.54
641.548
519.844
424.253
351.392
300.967
271.212
256.822
251.103
248.219
244.808
240.017
234.374
228.966
224.995
223.388
224.447
227.729
232.475
237.445
241.988
246.119
248.773
250.322
250.868
250.706
250.33
250.535
252.486
257.523
266.558
279.377
294.558
310.224
324.734
336.713
345.171
350.039
352.224
352.914
352.925
352.654
352.324
352.11
352.066
351.958
350.999
348.129
342.687
334.264
323.16
310.431
296.934
282.425
265.844
246.616
225.561
204.394
184.626
167.009
151.634
138.251
126.538
116.234
107.154
99.1646
92.1542
86.0143
80.6395
75.9323
71.8083
68.2
65.0592
62.3591
60.0951
58.2867
56.9806
56.2569
56.2491
57.2061
59.6742
64.9523
75.9609
98.172
138.86
201.309
269.478
304.233
290.345
263.816
251.959
1771.49
887.745
597.039
516.786
491.934
478.781
468.464
459.767
452.508
446.523
441.632
437.666
434.523
432.185
430.675
429.908
429.5
428.675
426.381
421.607
413.789
403.05
390.138
376.102
361.942
348.399
335.942
324.868
315.445
308.007
303.134
302.651
305.849
311.823
319.841
329.401
340.127
351.673
363.736
376.092
388.664
401.99
417.399
434.914
449.683
453.024
441.379
421.124
399.652
378.262
356.168
333.625
310.622
286.46
260.855
234.5
208.667
184.556
162.952
144.218
128.423
115.483
105.245
97.5522
92.3013
89.5177
89.4766
92.8717
101.005
115.848
139.58
173.174
214.267
256.169
290.844
314.691
329.534
338.099
341.874
342.043
340.422
340.263
345.514
359.242
386.168
435.787
511.953
614.836
705.351
696.559
592.687
480.545
393.491
328.881
286.029
262.133
251.593
247.774
245.163
240.905
234.681
227.627
221.065
216.39
214.508
215.377
218.341
223.244
227.337
231.101
234.391
236.951
238.727
239.762
240.364
241.067
242.686
246.367
253.368
264.403
278.978
295.521
312.248
327.587
339.963
348.154
352.16
353.157
352.488
351.009
349.225
347.59
346.545
346.37
346.994
347.568
346.892
343.917
337.684
327.893
315.438
301.656
286.944
270.468
251.348
229.987
208.009
187.14
168.415
152.117
138.08
125.98
115.502
106.39
98.4455
91.5045
85.4283
80.0973
75.4109
71.2879
67.667
64.5069
61.7868
59.5074
57.6927
56.3932
55.6915
55.7206
56.7208
59.2089
64.4097
75.108
96.6291
136.245
197.392
264.056
298.078
286.868
263.63
251.895
1491.23
1012.62
708.066
567.007
506.647
478.693
462.806
452.162
444.641
439.386
435.831
433.49
431.975
431.058
430.67
430.792
431.253
431.564
430.914
428.375
423.25
415.357
405.098
393.282
380.84
368.599
357.19
347.065
338.581
332.043
327.771
326.785
328.352
332.013
337.394
344.213
352.212
361.129
370.741
380.914
391.641
403.411
417.358
433.353
446.683
449.186
437.89
418.768
397.508
374.742
350.632
325.873
300.14
272.872
244.581
216.718
190.781
167.717
147.882
131.247
117.604
106.691
98.2558
92.0915
88.0689
86.2005
86.7493
90.4081
98.5454
113.384
137.661
173.132
217.959
264.841
303.69
329.153
343.402
350.411
352.528
351.358
348.9
348.269
352.865
365.637
392.741
443.099
518.419
615.551
685.347
655.192
551.539
449.247
370.004
312.502
275.561
255.886
247.87
245.103
242.463
237.558
230.506
222.545
215.281
210.28
208.402
209.188
211.564
214.965
218.407
221.658
224.63
227.148
229.124
230.636
232.018
233.868
237.053
242.702
251.907
265.054
281.347
299.222
317.115
333.386
345.999
353.446
355.963
355.099
352.332
348.584
344.573
341.057
338.732
338.048
339.038
340.856
342.327
342.083
338.649
331.018
319.594
305.923
291.047
274.57
255.528
233.982
211.403
189.655
170.002
152.9
138.265
125.779
115.092
105.893
97.9301
91.0003
84.9388
79.6132
74.9195
70.7783
67.1326
63.9458
61.2019
58.9057
57.085
55.793
55.1143
55.1802
56.22
58.7158
63.8027
74.0869
94.6604
132.695
191.907
257.168
291.96
284.638
264.48
252.5
924.919
999.291
807.747
655.401
561.519
507.252
475.439
455.857
443.403
435.609
431.094
428.867
428.123
428.25
428.877
429.836
431.025
432.223
432.981
432.663
430.64
426.527
420.331
412.433
403.457
394.092
384.974
376.628
369.47
363.824
360.093
358.223
357.835
358.901
361.355
365.095
369.978
375.844
382.591
390.204
398.793
408.916
421.535
435.952
446.943
447.006
434.831
416.082
394.103
369.207
342.599
314.953
285.726
255.025
224.374
195.753
170.542
149.248
131.761
117.685
106.558
97.9585
91.5432
87.059
84.3623
83.4604
84.6035
88.4565
96.3785
110.723
134.706
171.014
218.86
271.038
315.276
343.117
356.373
361.057
361.272
359.391
357.183
356.841
360.832
372.626
400.342
450.81
523.772
611.65
660.03
615.439
516.841
423.987
351.958
300.509
268.152
251.432
244.985
242.814
240.218
235.161
227.92
219.816
212.557
207.643
205.593
205.662
207.151
209.827
212.669
215.43
218.046
220.42
222.485
224.363
226.46
229.47
234.326
242.095
253.582
268.742
286.579
305.781
325.026
342.272
354.739
360.74
361.015
357.551
351.934
345.239
338.511
332.825
329.051
327.701
328.829
331.605
334.996
337.456
337.095
332.226
322.551
309.51
294.669
278.174
259.171
237.491
214.447
191.983
171.553
153.761
138.593
125.745
114.837
105.521
97.5035
90.5487
84.4718
79.1295
74.4141
70.2466
66.5726
63.359
60.593
58.2826
56.4585
55.1765
54.5223
54.6247
55.7006
58.1929
63.1349
72.9177
92.3171
128.302
184.978
248.86
285.59
283.057
266.057
253.828
394.174
882.09
847.609
739.8
640.381
565.817
514.057
479.219
456.144
441.241
432.146
427.207
425.149
424.943
425.814
427.252
428.969
430.767
432.408
433.549
433.781
432.747
430.265
426.387
421.381
415.651
409.656
403.842
398.606
394.276
391.346
389.092
387.623
387.012
387.301
388.504
390.618
393.656
397.707
402.926
409.59
418.392
429.969
442.518
449.918
446.095
432.208
412.637
388.319
360.254
330.299
298.665
265.175
231.198
199.162
171.06
147.757
129.174
114.732
103.712
95.4448
89.3848
85.1234
82.3871
81.0365
81.0882
82.7818
86.7294
94.1979
107.511
130.192
165.893
215.432
272.854
324.399
356.919
369.783
371.496
369.244
366.554
364.687
364.569
367.907
379.502
408.465
458.201
527.679
604.94
635.44
583.36
491.308
406.245
340.002
293.007
263.684
248.655
242.96
241.105
238.785
234.138
227.416
219.906
213.226
208.647
206.425
205.916
206.88
208.724
210.823
212.992
215.149
217.2
219.138
221.201
223.949
228.206
234.941
245.026
258.797
275.764
295.014
315.741
336.63
354.702
366.253
369.78
366.864
359.93
350.696
340.533
330.858
322.967
317.78
315.768
316.935
320.607
325.838
330.882
333.535
331.571
324.013
312.002
297.432
280.967
261.977
240.191
216.798
193.791
172.762
154.433
138.843
125.696
114.596
105.165
97.0823
90.0895
83.986
78.6203
73.8811
69.6892
65.9916
62.7571
59.9754
57.657
55.8348
54.5666
53.9389
54.0781
55.1877
57.6706
62.4537
71.6925
89.7829
123.386
177.005
239.355
278.713
281.572
268.033
255.871
448.946
639.681
827.062
806.908
731.458
649.783
580.228
526.93
488.368
461.598
443.826
432.769
426.606
423.875
423.405
424.309
425.973
428.005
430.139
432.139
433.76
434.757
434.93
434.182
432.534
430.124
427.174
423.957
420.755
417.83
415.439
413.13
411.06
409.383
408.24
407.765
408.097
409.408
411.925
415.901
421.752
430.194
441.134
451.209
453.881
445.85
429.946
407.81
379.652
347.83
313.923
277.926
240.823
205.188
173.625
147.552
127.126
111.725
100.427
92.3153
86.6105
82.719
80.2261
78.8766
78.5592
79.3119
81.3667
85.2702
92.1392
104.103
124.69
158.229
207.234
268.104
327.666
368.207
383.4
382.644
377.42
373.402
371.486
371.268
374.33
386.989
417.256
465.284
530.432
596.848
613.422
558.305
472.73
394.056