/*--------------------------------*- C++ -*----------------------------------*\
| =========                 |                                                 |
| \\      /  F ield         | OpenFOAM: The Open Source CFD Toolbox           |
|  \\    /   O peration     | Version:  2112                                  |
|   \\  /    A nd           | Website:  www.openfoam.com                      |
|    \\/     M anipulation  |                                                 |
\*---------------------------------------------------------------------------*/
FoamFile
{
    version     2.0;
    format      ascii;
    arch        "LSB;label=32;scalar=64";
    class       volScalarField;
    location    "0.19";
    object      pPrime2Mean;
}
// * * * * * * * * * * * * * * * * * * * * * * * * * * * * * * * * * * * * * //

dimensions      [0 4 -4 0 0 0 0];

internalField   nonuniform List<scalar> 
122250
(
2.18024e+06
2.14418e+06
2.10943e+06
2.07701e+06
2.04601e+06
2.01607e+06
1.98711e+06
1.95907e+06
1.9319e+06
1.9055e+06
1.87976e+06
1.85455e+06
1.82969e+06
1.80499e+06
1.78014e+06
1.75466e+06
1.72705e+06
1.70055e+06
2.24279e+06
2.20566e+06
2.16734e+06
2.13139e+06
2.09712e+06
2.06417e+06
2.03241e+06
2.00177e+06
1.97218e+06
1.94352e+06
1.91567e+06
1.88848e+06
1.86178e+06
1.83532e+06
1.80885e+06
1.78192e+06
1.75345e+06
1.72503e+06
2.25626e+06
2.21901e+06
2.17991e+06
2.14299e+06
2.10784e+06
2.07408e+06
2.04159e+06
2.01028e+06
1.98007e+06
1.95085e+06
1.92249e+06
1.89484e+06
1.86771e+06
1.84088e+06
1.81412e+06
1.78704e+06
1.75884e+06
1.73082e+06
2.24701e+06
2.21088e+06
2.17239e+06
2.13583e+06
2.10099e+06
2.06757e+06
2.03541e+06
2.00444e+06
1.97454e+06
1.94563e+06
1.91756e+06
1.8902e+06
1.86341e+06
1.837e+06
1.81076e+06
1.7844e+06
1.75735e+06
1.73132e+06
2.24058e+06
2.20531e+06
2.16712e+06
2.13054e+06
2.09599e+06
2.06289e+06
2.03105e+06
2.0004e+06
1.97082e+06
1.94221e+06
1.91445e+06
1.88741e+06
1.86098e+06
1.835e+06
1.8093e+06
1.78368e+06
1.75778e+06
1.73364e+06
2.23684e+06
2.20215e+06
2.1636e+06
2.12709e+06
2.09279e+06
2.05996e+06
2.02839e+06
1.99801e+06
1.96869e+06
1.94033e+06
1.91284e+06
1.8861e+06
1.86e+06
1.83442e+06
1.80923e+06
1.78432e+06
1.75947e+06
1.73691e+06
2.23424e+06
2.19992e+06
2.16078e+06
2.12462e+06
2.09062e+06
2.05804e+06
2.02671e+06
1.99653e+06
1.96741e+06
1.93927e+06
1.91201e+06
1.88554e+06
1.85975e+06
1.83456e+06
1.8099e+06
1.7857e+06
1.76181e+06
1.74057e+06
2.23231e+06
2.19804e+06
2.15872e+06
2.12293e+06
2.08912e+06
2.05672e+06
2.02557e+06
1.99557e+06
1.96665e+06
1.93871e+06
1.91168e+06
1.88548e+06
1.86002e+06
1.83525e+06
1.81113e+06
1.78763e+06
1.7646e+06
1.74446e+06
2.2307e+06
2.19638e+06
2.15715e+06
2.12155e+06
2.08789e+06
2.05566e+06
2.02469e+06
1.99488e+06
1.96614e+06
1.93842e+06
1.91164e+06
1.88573e+06
1.86063e+06
1.8363e+06
1.81272e+06
1.78989e+06
1.76763e+06
1.74843e+06
2.22942e+06
2.19501e+06
2.15588e+06
2.12037e+06
2.08686e+06
2.0548e+06
2.024e+06
1.99438e+06
1.96585e+06
1.93837e+06
1.91185e+06
1.88625e+06
1.86152e+06
1.83765e+06
1.81461e+06
1.79241e+06
1.77082e+06
1.75242e+06
2.23237e+06
2.19725e+06
2.15805e+06
2.12233e+06
2.08879e+06
2.05672e+06
2.02595e+06
1.99638e+06
1.96794e+06
1.94057e+06
1.91422e+06
1.88884e+06
1.8644e+06
1.84089e+06
1.81829e+06
1.79659e+06
1.77552e+06
1.7577e+06
2.23743e+06
2.20092e+06
2.1622e+06
2.12586e+06
2.09218e+06
2.06004e+06
2.02923e+06
1.99965e+06
1.97123e+06
1.94392e+06
1.91768e+06
1.89246e+06
1.86823e+06
1.845e+06
1.82273e+06
1.80139e+06
1.78072e+06
1.76329e+06
2.23563e+06
2.19878e+06
2.16048e+06
2.12421e+06
2.09074e+06
2.05885e+06
2.02828e+06
1.99896e+06
1.97082e+06
1.9438e+06
1.91788e+06
1.89302e+06
1.8692e+06
1.84639e+06
1.82458e+06
1.80368e+06
1.7834e+06
1.76657e+06
2.2281e+06
2.19143e+06
2.15324e+06
2.11796e+06
2.08509e+06
2.05374e+06
2.02371e+06
1.99491e+06
1.96729e+06
1.94082e+06
1.91545e+06
1.89117e+06
1.86794e+06
1.84575e+06
1.82456e+06
1.80424e+06
1.78443e+06
1.76851e+06
2.22205e+06
2.18486e+06
2.14709e+06
2.11264e+06
2.08033e+06
2.04952e+06
2.02002e+06
1.99175e+06
1.96468e+06
1.93877e+06
1.91398e+06
1.89029e+06
1.86768e+06
1.84611e+06
1.82552e+06
1.80575e+06
1.78635e+06
1.77141e+06
2.21664e+06
2.17808e+06
2.14126e+06
2.10741e+06
2.07569e+06
2.04547e+06
2.01655e+06
1.98887e+06
1.9624e+06
1.93709e+06
1.91292e+06
1.88986e+06
1.86788e+06
1.84694e+06
1.82697e+06
1.80771e+06
1.78867e+06
1.77477e+06
2.21035e+06
2.16978e+06
2.13428e+06
2.10115e+06
2.07016e+06
2.04064e+06
2.01241e+06
1.98542e+06
1.95964e+06
1.93503e+06
1.91156e+06
1.8892e+06
1.86791e+06
1.84764e+06
1.82828e+06
1.80952e+06
1.79082e+06
1.77809e+06
2.1995e+06
2.15649e+06
2.12323e+06
2.09114e+06
2.06114e+06
2.03256e+06
2.00525e+06
1.97915e+06
1.95425e+06
1.93051e+06
1.90791e+06
1.88639e+06
1.86591e+06
1.8464e+06
1.82775e+06
1.80954e+06
1.79121e+06
1.7799e+06
2.19466e+06
2.14894e+06
2.11789e+06
2.08646e+06
2.05712e+06
2.0292e+06
2.00253e+06
1.97709e+06
1.95284e+06
1.92977e+06
1.90781e+06
1.88693e+06
1.86706e+06
1.84813e+06
1.82998e+06
1.8121e+06
1.79387e+06
1.78379e+06
2.20937e+06
2.16724e+06
2.13292e+06
2.10068e+06
2.07065e+06
2.04219e+06
2.01509e+06
1.98931e+06
1.96479e+06
1.9415e+06
1.91937e+06
1.89835e+06
1.87839e+06
1.85939e+06
1.84124e+06
1.82356e+06
1.80582e+06
1.79455e+06
2.22022e+06
2.17968e+06
2.14417e+06
2.11126e+06
2.08068e+06
2.05176e+06
2.02429e+06
1.9982e+06
1.97343e+06
1.94992e+06
1.92761e+06
1.90644e+06
1.88634e+06
1.86723e+06
1.849e+06
1.83131e+06
1.8136e+06
1.80162e+06
2.22425e+06
2.1856e+06
2.14932e+06
2.11615e+06
2.08533e+06
2.05621e+06
2.02859e+06
2.00239e+06
1.97754e+06
1.95398e+06
1.93162e+06
1.91043e+06
1.89031e+06
1.87121e+06
1.85299e+06
1.83537e+06
1.81782e+06
1.8054e+06
2.22832e+06
2.19112e+06
2.15419e+06
2.12077e+06
2.08971e+06
2.0604e+06
2.03261e+06
2.00628e+06
1.98132e+06
1.95766e+06
1.93523e+06
1.91397e+06
1.89381e+06
1.87466e+06
1.85642e+06
1.83884e+06
1.82141e+06
1.80856e+06
2.23243e+06
2.1962e+06
2.15877e+06
2.12506e+06
2.09376e+06
2.06424e+06
2.03628e+06
2.0098e+06
1.98471e+06
1.96094e+06
1.93842e+06
1.91707e+06
1.89684e+06
1.87763e+06
1.85936e+06
1.84177e+06
1.82442e+06
1.81119e+06
2.23679e+06
2.20104e+06
2.1635e+06
2.12932e+06
2.09776e+06
2.06801e+06
2.03987e+06
2.01321e+06
1.98798e+06
1.96407e+06
1.94143e+06
1.91998e+06
1.89965e+06
1.88036e+06
1.86202e+06
1.84442e+06
1.82711e+06
1.81352e+06
2.24208e+06
2.20625e+06
2.16931e+06
2.1343e+06
2.10227e+06
2.07224e+06
2.04386e+06
2.017e+06
1.99157e+06
1.9675e+06
1.9447e+06
1.9231e+06
1.90264e+06
1.88323e+06
1.86477e+06
1.8471e+06
1.82979e+06
1.81585e+06
2.25022e+06
2.21365e+06
2.17681e+06
2.1419e+06
2.10941e+06
2.07891e+06
2.05011e+06
2.02286e+06
1.99708e+06
1.97267e+06
1.94955e+06
1.92766e+06
1.90692e+06
1.88723e+06
1.86853e+06
1.8507e+06
1.83328e+06
1.81895e+06
2.26378e+06
2.22552e+06
2.18769e+06
2.15243e+06
2.11954e+06
2.08857e+06
2.05931e+06
2.03165e+06
2.00548e+06
1.98073e+06
1.95731e+06
1.93514e+06
1.91414e+06
1.89414e+06
1.87507e+06
1.85686e+06
1.8391e+06
1.82431e+06
2.26072e+06
2.22169e+06
2.18381e+06
2.14895e+06
2.11639e+06
2.08571e+06
2.05671e+06
2.02928e+06
2.00334e+06
1.97878e+06
1.95553e+06
1.93353e+06
1.91268e+06
1.89289e+06
1.87406e+06
1.85607e+06
1.83855e+06
1.824e+06
2.20981e+06
2.1707e+06
2.13551e+06
2.1034e+06
2.07334e+06
2.04495e+06
2.01808e+06
1.99262e+06
1.96851e+06
1.94566e+06
1.92402e+06
1.90352e+06
1.88407e+06
1.86561e+06
1.84806e+06
1.83125e+06
1.81475e+06
1.80174e+06
2.2959e+06
2.23843e+06
2.20355e+06
2.16592e+06
2.12934e+06
2.09416e+06
2.06033e+06
2.02777e+06
1.99638e+06
1.96605e+06
1.93665e+06
1.90802e+06
1.87997e+06
1.8523e+06
1.82471e+06
1.79677e+06
1.76762e+06
1.73524e+06
2.21796e+06
2.1686e+06
2.13732e+06
2.10394e+06
2.07138e+06
2.03993e+06
2.00957e+06
1.98022e+06
1.95182e+06
1.92427e+06
1.89746e+06
1.87125e+06
1.84549e+06
1.81996e+06
1.79442e+06
1.76848e+06
1.74164e+06
1.71272e+06
2.22837e+06
2.17955e+06
2.14736e+06
2.1134e+06
2.08032e+06
2.0484e+06
2.01759e+06
1.98783e+06
1.95904e+06
1.93114e+06
1.904e+06
1.8775e+06
1.85148e+06
1.82573e+06
1.80005e+06
1.77415e+06
1.74772e+06
1.7208e+06
2.23566e+06
2.18639e+06
2.15377e+06
2.11936e+06
2.08586e+06
2.05356e+06
2.02241e+06
1.99234e+06
1.96328e+06
1.93513e+06
1.90777e+06
1.88108e+06
1.85492e+06
1.82913e+06
1.80351e+06
1.77785e+06
1.75209e+06
1.72658e+06
2.23846e+06
2.18878e+06
2.15612e+06
2.12148e+06
2.08784e+06
2.05543e+06
2.02419e+06
1.99405e+06
1.96494e+06
1.93675e+06
1.90938e+06
1.88272e+06
1.85664e+06
1.831e+06
1.80565e+06
1.78049e+06
1.75559e+06
1.73153e+06
2.23953e+06
2.1893e+06
2.15668e+06
2.122e+06
2.08835e+06
2.05595e+06
2.02474e+06
1.99464e+06
1.96557e+06
1.93745e+06
1.91017e+06
1.88363e+06
1.85771e+06
1.83232e+06
1.80735e+06
1.78278e+06
1.7588e+06
1.73605e+06
2.23979e+06
2.18886e+06
2.15638e+06
2.12183e+06
2.08825e+06
2.05591e+06
2.02477e+06
1.99475e+06
1.96578e+06
1.93776e+06
1.91061e+06
1.88424e+06
1.85856e+06
1.83349e+06
1.80897e+06
1.78505e+06
1.76199e+06
1.74038e+06
2.23974e+06
2.18792e+06
2.15579e+06
2.12138e+06
2.08787e+06
2.05562e+06
2.02457e+06
1.99466e+06
1.96581e+06
1.93794e+06
1.91098e+06
1.88483e+06
1.85943e+06
1.83473e+06
1.81072e+06
1.78747e+06
1.76526e+06
1.74463e+06
2.23966e+06
2.18684e+06
2.15512e+06
2.12083e+06
2.08742e+06
2.05527e+06
2.02435e+06
1.99458e+06
1.96588e+06
1.93818e+06
1.91143e+06
1.88554e+06
1.86047e+06
1.83618e+06
1.81269e+06
1.79009e+06
1.76867e+06
1.74888e+06
2.23987e+06
2.18596e+06
2.15459e+06
2.12043e+06
2.08713e+06
2.0551e+06
2.02431e+06
1.99468e+06
1.96616e+06
1.93866e+06
1.91213e+06
1.88652e+06
1.8618e+06
1.83794e+06
1.81497e+06
1.79299e+06
1.77227e+06
1.75321e+06
2.24035e+06
2.1853e+06
2.15417e+06
2.12014e+06
2.08697e+06
2.05507e+06
2.02443e+06
1.99496e+06
1.96662e+06
1.93933e+06
1.91306e+06
1.88776e+06
1.8634e+06
1.83997e+06
1.81751e+06
1.79611e+06
1.77601e+06
1.75757e+06
2.24035e+06
2.18447e+06
2.15356e+06
2.11959e+06
2.08656e+06
2.05483e+06
2.02435e+06
1.99507e+06
1.96693e+06
1.93987e+06
1.91387e+06
1.88887e+06
1.86487e+06
1.84185e+06
1.81985e+06
1.79895e+06
1.77937e+06
1.76145e+06
2.2404e+06
2.18211e+06
2.15216e+06
2.11842e+06
2.08559e+06
2.05406e+06
2.0238e+06
1.99474e+06
1.96685e+06
1.94008e+06
1.91438e+06
1.88972e+06
1.8661e+06
1.84351e+06
1.82196e+06
1.80153e+06
1.78245e+06
1.76504e+06
2.23935e+06
2.17749e+06
2.14893e+06
2.11578e+06
2.08329e+06
2.05209e+06
2.02216e+06
1.99346e+06
1.96593e+06
1.93954e+06
1.91425e+06
1.89004e+06
1.86689e+06
1.84481e+06
1.82379e+06
1.8039e+06
1.78538e+06
1.76859e+06
2.23756e+06
2.17098e+06
2.14437e+06
2.11193e+06
2.0799e+06
2.04915e+06
2.01967e+06
1.99142e+06
1.96437e+06
1.93847e+06
1.9137e+06
1.89003e+06
1.86745e+06
1.84594e+06
1.82551e+06
1.8062e+06
1.78829e+06
1.77219e+06
2.23564e+06
2.16306e+06
2.13888e+06
2.10728e+06
2.07584e+06
2.04564e+06
2.01671e+06
1.98901e+06
1.96252e+06
1.9372e+06
1.91303e+06
1.88997e+06
1.86801e+06
1.84712e+06
1.82731e+06
1.8086e+06
1.79133e+06
1.77598e+06
2.23335e+06
2.15353e+06
2.13229e+06
2.10172e+06
2.07099e+06
2.04145e+06
2.01317e+06
1.98613e+06
1.96029e+06
1.93564e+06
1.91213e+06
1.88975e+06
1.86846e+06
1.84824e+06
1.82906e+06
1.81097e+06
1.79437e+06
1.77983e+06
2.22996e+06
2.14181e+06
2.12426e+06
2.09492e+06
2.06503e+06
2.03627e+06
2.00875e+06
1.98246e+06
1.95738e+06
1.93348e+06
1.91072e+06
1.88907e+06
1.86849e+06
1.84896e+06
1.83043e+06
1.81298e+06
1.79706e+06
1.7834e+06
2.23154e+06
2.13459e+06
2.12089e+06
2.09251e+06
2.06318e+06
2.03496e+06
2.00797e+06
1.98224e+06
1.95772e+06
1.9344e+06
1.91221e+06
1.89113e+06
1.8711e+06
1.85209e+06
1.83405e+06
1.81704e+06
1.80162e+06
1.78864e+06
2.23496e+06
2.15083e+06
2.1315e+06
2.10196e+06
2.07218e+06
2.04366e+06
2.01648e+06
1.99061e+06
1.96602e+06
1.94265e+06
1.92046e+06
1.89939e+06
1.87941e+06
1.86045e+06
1.84247e+06
1.82553e+06
1.81004e+06
1.79663e+06
2.2403e+06
2.16215e+06
2.14043e+06
2.1101e+06
2.07989e+06
2.05104e+06
2.02361e+06
1.99754e+06
1.9728e+06
1.94931e+06
1.92703e+06
1.9059e+06
1.88585e+06
1.86685e+06
1.84883e+06
1.83183e+06
1.81619e+06
1.80246e+06
2.24295e+06
2.17014e+06
2.14652e+06
2.11565e+06
2.08514e+06
2.05608e+06
2.02847e+06
2.00227e+06
1.97742e+06
1.95386e+06
1.93152e+06
1.91033e+06
1.89025e+06
1.87121e+06
1.85317e+06
1.83613e+06
1.82039e+06
1.80642e+06
2.2451e+06
2.1769e+06
2.15163e+06
2.12028e+06
2.08952e+06
2.06025e+06
2.03248e+06
2.00615e+06
1.98119e+06
1.95754e+06
1.93512e+06
1.91387e+06
1.89373e+06
1.87465e+06
1.85657e+06
1.83948e+06
1.82365e+06
1.80947e+06
2.24702e+06
2.18278e+06
2.15605e+06
2.12427e+06
2.09326e+06
2.06381e+06
2.03588e+06
2.00942e+06
1.98435e+06
1.9606e+06
1.9381e+06
1.91678e+06
1.89658e+06
1.87744e+06
1.85931e+06
1.84217e+06
1.82624e+06
1.81186e+06
2.24872e+06
2.1878e+06
2.15981e+06
2.12763e+06
2.09642e+06
2.0668e+06
2.03873e+06
2.01215e+06
1.98697e+06
1.96313e+06
1.94055e+06
1.91915e+06
1.89889e+06
1.8797e+06
1.86151e+06
1.84432e+06
1.8283e+06
1.81375e+06
2.24989e+06
2.19172e+06
2.16279e+06
2.13015e+06
2.09875e+06
2.06901e+06
2.04084e+06
2.01417e+06
1.98891e+06
1.96499e+06
1.94235e+06
1.9209e+06
1.90058e+06
1.88134e+06
1.86311e+06
1.84588e+06
1.82979e+06
1.8151e+06
2.24944e+06
2.19346e+06
2.16379e+06
2.13112e+06
2.09966e+06
2.06986e+06
2.04165e+06
2.01494e+06
1.98965e+06
1.9657e+06
1.94303e+06
1.92155e+06
1.90122e+06
1.88196e+06
1.86371e+06
1.84647e+06
1.83035e+06
1.81562e+06
2.24328e+06
2.18917e+06
2.15918e+06
2.12682e+06
2.09569e+06
2.06619e+06
2.03826e+06
2.01181e+06
1.98676e+06
1.96304e+06
1.94059e+06
1.91932e+06
1.89918e+06
1.88007e+06
1.86193e+06
1.84478e+06
1.82872e+06
1.81414e+06
2.22813e+06
2.17476e+06
2.14546e+06
2.11389e+06
2.08349e+06
2.05467e+06
2.02737e+06
2.00151e+06
1.97701e+06
1.9538e+06
1.93183e+06
1.911e+06
1.89128e+06
1.87258e+06
1.85486e+06
1.83808e+06
1.82235e+06
1.80809e+06
2.30685e+06
2.24408e+06
2.21144e+06
2.17581e+06
2.14154e+06
2.10912e+06
2.07851e+06
2.04959e+06
2.02225e+06
1.99641e+06
1.97198e+06
1.94888e+06
1.92703e+06
1.90636e+06
1.88681e+06
1.86832e+06
1.85091e+06
1.83454e+06
2.24332e+06
2.19919e+06
2.1631e+06
2.12787e+06
2.09381e+06
2.06099e+06
2.02936e+06
1.99882e+06
1.96931e+06
1.94071e+06
1.91291e+06
1.88577e+06
1.85914e+06
1.8328e+06
1.80648e+06
1.77978e+06
1.75201e+06
1.72122e+06
2.2369e+06
2.19349e+06
2.15766e+06
2.12276e+06
2.08903e+06
2.05653e+06
2.02517e+06
1.99491e+06
1.96565e+06
1.93729e+06
1.90972e+06
1.8828e+06
1.85638e+06
1.83025e+06
1.80418e+06
1.77779e+06
1.75051e+06
1.72086e+06
2.23475e+06
2.19175e+06
2.15597e+06
2.12118e+06
2.08755e+06
2.05515e+06
2.02391e+06
1.99374e+06
1.96458e+06
1.93631e+06
1.90884e+06
1.88203e+06
1.85572e+06
1.82975e+06
1.80389e+06
1.77784e+06
1.75122e+06
1.7235e+06
2.23438e+06
2.19151e+06
2.15573e+06
2.12094e+06
2.08734e+06
2.05496e+06
2.02375e+06
1.99363e+06
1.9645e+06
1.93629e+06
1.90888e+06
1.88214e+06
1.85595e+06
1.83014e+06
1.80453e+06
1.77892e+06
1.75313e+06
1.72723e+06
2.2345e+06
2.19157e+06
2.15581e+06
2.12101e+06
2.08742e+06
2.05506e+06
2.02388e+06
1.99379e+06
1.96471e+06
1.93655e+06
1.90921e+06
1.88258e+06
1.85653e+06
1.83093e+06
1.80564e+06
1.78056e+06
1.7557e+06
1.7314e+06
2.23464e+06
2.19154e+06
2.15579e+06
2.12102e+06
2.08744e+06
2.05512e+06
2.02398e+06
1.99395e+06
1.96493e+06
1.93686e+06
1.90962e+06
1.88313e+06
1.85726e+06
1.83192e+06
1.80703e+06
1.78256e+06
1.75864e+06
1.7357e+06
2.23463e+06
2.19126e+06
2.15556e+06
2.12084e+06
2.08732e+06
2.05506e+06
2.02398e+06
1.99403e+06
1.96511e+06
1.93714e+06
1.91004e+06
1.88372e+06
1.85809e+06
1.83307e+06
1.80864e+06
1.78482e+06
1.7618e+06
1.74e+06
2.2345e+06
2.19074e+06
2.15515e+06
2.12051e+06
2.08706e+06
2.05488e+06
2.02389e+06
1.99404e+06
1.96524e+06
1.93741e+06
1.91048e+06
1.88438e+06
1.85902e+06
1.83438e+06
1.81045e+06
1.78729e+06
1.76513e+06
1.74429e+06
2.23427e+06
2.19007e+06
2.15459e+06
2.12005e+06
2.08669e+06
2.05461e+06
2.02374e+06
1.99402e+06
1.96536e+06
1.93771e+06
1.91099e+06
1.88513e+06
1.8601e+06
1.83587e+06
1.81246e+06
1.78995e+06
1.76857e+06
1.74856e+06
2.23401e+06
2.1893e+06
2.15393e+06
2.1195e+06
2.08627e+06
2.0543e+06
2.02357e+06
1.994e+06
1.96552e+06
1.93807e+06
1.91158e+06
1.88602e+06
1.86134e+06
1.83754e+06
1.81465e+06
1.79278e+06
1.7721e+06
1.7528e+06
2.23368e+06
2.18838e+06
2.15312e+06
2.11883e+06
2.08573e+06
2.05392e+06
2.02335e+06
1.99396e+06
1.96568e+06
1.93847e+06
1.91225e+06
1.88701e+06
1.86271e+06
1.83936e+06
1.81699e+06
1.79571e+06
1.77567e+06
1.75699e+06
2.23314e+06
2.18721e+06
2.15207e+06
2.11793e+06
2.08499e+06
2.05336e+06
2.02297e+06
1.99378e+06
1.96573e+06
1.93876e+06
1.91282e+06
1.8879e+06
1.86397e+06
1.84104e+06
1.81915e+06
1.79839e+06
1.77888e+06
1.76072e+06
2.23236e+06
2.18541e+06
2.15056e+06
2.11664e+06
2.08391e+06
2.05248e+06
2.02232e+06
1.99337e+06
1.96556e+06
1.93887e+06
1.91325e+06
1.88867e+06
1.86513e+06
1.84262e+06
1.82121e+06
1.80093e+06
1.78192e+06
1.76424e+06
2.23091e+06
2.18238e+06
2.14802e+06
2.11448e+06
2.08205e+06
2.05093e+06
2.02108e+06
1.99244e+06
1.96498e+06
1.93865e+06
1.91342e+06
1.88927e+06
1.8662e+06
1.8442e+06
1.8233e+06
1.80357e+06
1.7851e+06
1.76795e+06
2.22868e+06
2.178e+06
2.14431e+06
2.11131e+06
2.07931e+06
2.04859e+06
2.01914e+06
1.99093e+06
1.96391e+06
1.93804e+06
1.91331e+06
1.88967e+06
1.86714e+06
1.8457e+06
1.82538e+06
1.80624e+06
1.78837e+06
1.7718e+06
2.2258e+06
2.17237e+06
2.13955e+06
2.10722e+06
2.07576e+06
2.04557e+06
2.01664e+06
1.98895e+06
1.96246e+06
1.93715e+06
1.91299e+06
1.88995e+06
1.86802e+06
1.8472e+06
1.8275e+06
1.80897e+06
1.79173e+06
1.77577e+06
2.22237e+06
2.16559e+06
2.13384e+06
2.10233e+06
2.07154e+06
2.04196e+06
2.01365e+06
1.98658e+06
1.96072e+06
1.93604e+06
1.91252e+06
1.89013e+06
1.86886e+06
1.84869e+06
1.82964e+06
1.81175e+06
1.79514e+06
1.77984e+06
2.21875e+06
2.15812e+06
2.12771e+06
2.09714e+06
2.06709e+06
2.0382e+06
2.01056e+06
1.98416e+06
1.95898e+06
1.93498e+06
1.91214e+06
1.89043e+06
1.86983e+06
1.85031e+06
1.83189e+06
1.81462e+06
1.79865e+06
1.784e+06
2.21892e+06
2.15475e+06
2.12561e+06
2.09572e+06
2.06617e+06
2.03777e+06
2.01062e+06
1.98472e+06
1.96006e+06
1.93659e+06
1.91429e+06
1.89311e+06
1.87303e+06
1.85401e+06
1.83607e+06
1.81926e+06
1.80375e+06
1.78959e+06
2.22347e+06
2.16452e+06
2.13362e+06
2.10301e+06
2.07314e+06
2.04457e+06
2.01732e+06
1.9914e+06
1.96676e+06
1.94334e+06
1.92112e+06
1.90004e+06
1.88005e+06
1.86114e+06
1.84329e+06
1.82655e+06
1.81103e+06
1.79674e+06
2.22884e+06
2.17287e+06
2.14112e+06
2.10995e+06
2.07973e+06
2.05089e+06
2.02347e+06
1.99741e+06
1.97267e+06
1.94919e+06
1.92692e+06
1.90581e+06
1.8858e+06
1.86687e+06
1.849e+06
1.83221e+06
1.81658e+06
1.80213e+06
2.23286e+06
2.17941e+06
2.14705e+06
2.11544e+06
2.08493e+06
2.05588e+06
2.02829e+06
2.0021e+06
1.97726e+06
1.9537e+06
1.93138e+06
1.91021e+06
1.89017e+06
1.8712e+06
1.85328e+06
1.83643e+06
1.82071e+06
1.80612e+06
2.23612e+06
2.18484e+06
2.15196e+06
2.11998e+06
2.08922e+06
2.05997e+06
2.03222e+06
2.0059e+06
1.98096e+06
1.95732e+06
1.93492e+06
1.9137e+06
1.8936e+06
1.87458e+06
1.85661e+06
1.83968e+06
1.82387e+06
1.80916e+06
2.23882e+06
2.18938e+06
2.15603e+06
2.12371e+06
2.09273e+06
2.06331e+06
2.03541e+06
2.00898e+06
1.98394e+06
1.96021e+06
1.93774e+06
1.91645e+06
1.8963e+06
1.87723e+06
1.8592e+06
1.84222e+06
1.82631e+06
1.81148e+06
2.24094e+06
2.19304e+06
2.15928e+06
2.12667e+06
2.0955e+06
2.06594e+06
2.03793e+06
2.0114e+06
1.98627e+06
1.96247e+06
1.93992e+06
1.91858e+06
1.89837e+06
1.87925e+06
1.86117e+06
1.84413e+06
1.82815e+06
1.81322e+06
2.24241e+06
2.1957e+06
2.16162e+06
2.12878e+06
2.09747e+06
2.0678e+06
2.0397e+06
2.0131e+06
1.98791e+06
1.96405e+06
1.94147e+06
1.92008e+06
1.89982e+06
1.88066e+06
1.86254e+06
1.84546e+06
1.82943e+06
1.81443e+06
2.2431e+06
2.19726e+06
2.16293e+06
2.12998e+06
2.09859e+06
2.06887e+06
2.04072e+06
2.01408e+06
1.98885e+06
1.96497e+06
1.94235e+06
1.92093e+06
1.90067e+06
1.88148e+06
1.86334e+06
1.84622e+06
1.83015e+06
1.81513e+06
2.24345e+06
2.198e+06
2.1635e+06
2.13051e+06
2.09911e+06
2.06936e+06
2.0412e+06
2.01455e+06
1.98931e+06
1.96541e+06
1.94279e+06
1.92137e+06
1.9011e+06
1.8819e+06
1.86375e+06
1.84662e+06
1.83052e+06
1.81549e+06
2.24571e+06
2.20002e+06
2.16538e+06
2.13226e+06
2.10074e+06
2.0709e+06
2.04265e+06
2.01591e+06
1.99059e+06
1.96663e+06
1.94394e+06
1.92247e+06
1.90213e+06
1.88289e+06
1.86469e+06
1.84751e+06
1.83135e+06
1.81622e+06
2.25578e+06
2.20899e+06
2.17391e+06
2.14029e+06
2.10828e+06
2.07798e+06
2.04931e+06
2.02218e+06
1.9965e+06
1.97221e+06
1.9492e+06
1.92744e+06
1.90683e+06
1.88734e+06
1.8689e+06
1.85149e+06
1.83509e+06
1.81962e+06
2.23536e+06
2.1952e+06
2.15826e+06
2.12306e+06
2.08927e+06
2.05674e+06
2.02538e+06
1.99511e+06
1.96584e+06
1.93746e+06
1.90987e+06
1.88293e+06
1.85648e+06
1.83032e+06
1.8042e+06
1.77769e+06
1.75011e+06
1.71956e+06
2.23458e+06
2.19451e+06
2.15761e+06
2.12245e+06
2.0887e+06
2.05621e+06
2.02489e+06
1.99466e+06
1.96542e+06
1.93708e+06
1.90953e+06
1.88264e+06
1.85624e+06
1.83015e+06
1.80412e+06
1.77777e+06
1.75051e+06
1.72079e+06
2.23381e+06
2.19384e+06
2.15696e+06
2.12185e+06
2.08814e+06
2.0557e+06
2.02443e+06
1.99424e+06
1.96505e+06
1.93677e+06
1.90927e+06
1.88244e+06
1.85613e+06
1.83016e+06
1.8043e+06
1.77827e+06
1.7516e+06
1.72368e+06
2.23326e+06
2.19334e+06
2.15649e+06
2.12141e+06
2.08774e+06
2.05534e+06
2.02411e+06
1.99398e+06
1.96484e+06
1.93662e+06
1.90919e+06
1.88245e+06
1.85625e+06
1.83045e+06
1.80485e+06
1.77925e+06
1.75342e+06
1.72733e+06
2.2329e+06
2.19297e+06
2.15614e+06
2.12109e+06
2.08745e+06
2.05509e+06
2.02392e+06
1.99383e+06
1.96476e+06
1.93661e+06
1.90928e+06
1.88265e+06
1.85661e+06
1.83102e+06
1.80576e+06
1.7807e+06
1.75581e+06
1.73135e+06
2.23262e+06
2.19262e+06
2.15581e+06
2.1208e+06
2.08721e+06
2.0549e+06
2.02378e+06
1.99377e+06
1.96477e+06
1.93671e+06
1.90949e+06
1.88301e+06
1.85717e+06
1.83186e+06
1.807e+06
1.78256e+06
1.75861e+06
1.73555e+06
2.23235e+06
2.19223e+06
2.15544e+06
2.12048e+06
2.08694e+06
2.0547e+06
2.02365e+06
1.99372e+06
1.96483e+06
1.93688e+06
1.90981e+06
1.88351e+06
1.8579e+06
1.83292e+06
1.80852e+06
1.78474e+06
1.76171e+06
1.73981e+06
2.23203e+06
2.19174e+06
2.15498e+06
2.12008e+06
2.08661e+06
2.05445e+06
2.0235e+06
1.99368e+06
1.96491e+06
1.9371e+06
1.9102e+06
1.88412e+06
1.8588e+06
1.83419e+06
1.81029e+06
1.78717e+06
1.76499e+06
1.74407e+06
2.23163e+06
2.19112e+06
2.1544e+06
2.11957e+06
2.0862e+06
2.05414e+06
2.02331e+06
1.99361e+06
1.96499e+06
1.93736e+06
1.91067e+06
1.88485e+06
1.85984e+06
1.83565e+06
1.81227e+06
1.78981e+06
1.76841e+06
1.74831e+06
2.23113e+06
2.19036e+06
2.15367e+06
2.11894e+06
2.08568e+06
2.05375e+06
2.02306e+06
1.99352e+06
1.96507e+06
1.93766e+06
1.9112e+06
1.88567e+06
1.86102e+06
1.83726e+06
1.81442e+06
1.79259e+06
1.7719e+06
1.7525e+06
2.23049e+06
2.18939e+06
2.15273e+06
2.11813e+06
2.08501e+06
2.05324e+06
2.02271e+06
1.99337e+06
1.96513e+06
1.93795e+06
1.91177e+06
1.88656e+06
1.8623e+06
1.83899e+06
1.81669e+06
1.79545e+06
1.7754e+06
1.75663e+06
2.22967e+06
2.18818e+06
2.15158e+06
2.11712e+06
2.08417e+06
2.05257e+06
2.02224e+06
1.99309e+06
1.96508e+06
1.93815e+06
1.91226e+06
1.88738e+06
1.86349e+06
1.84061e+06
1.81879e+06
1.79808e+06
1.77856e+06
1.7603e+06
2.2286e+06
2.1866e+06
2.1501e+06
2.11582e+06
2.08307e+06
2.05168e+06
2.02156e+06
1.99265e+06
1.9649e+06
1.93825e+06
1.91267e+06
1.88813e+06
1.86463e+06
1.84219e+06
1.82083e+06
1.80061e+06
1.7816e+06
1.7638e+06
2.22696e+06
2.18419e+06
2.14786e+06
2.11386e+06
2.08139e+06
2.05028e+06
2.02047e+06
1.99187e+06
1.96444e+06
1.93815e+06
1.91296e+06
1.88884e+06
1.86581e+06
1.84386e+06
1.82302e+06
1.80335e+06
1.78487e+06
1.76757e+06
2.22456e+06
2.18074e+06
2.14464e+06
2.11104e+06
2.07896e+06
2.04824e+06
2.01882e+06
1.99062e+06
1.96362e+06
1.93777e+06
1.91305e+06
1.88945e+06
1.86695e+06
1.84556e+06
1.8253e+06
1.8062e+06
1.78829e+06
1.77153e+06
2.22138e+06
2.1762e+06
2.14043e+06
2.10735e+06
2.07577e+06
2.04554e+06
2.0166e+06
1.98892e+06
1.96244e+06
1.93713e+06
1.91297e+06
1.88995e+06
1.86804e+06
1.84726e+06
1.82763e+06
1.80914e+06
1.79183e+06
1.77563e+06
2.21761e+06
2.17077e+06
2.13541e+06
2.10296e+06
2.07198e+06
2.04234e+06
2.01399e+06
1.9869e+06
1.96102e+06
1.93633e+06
1.9128e+06
1.89042e+06
1.86916e+06
1.84903e+06
1.83002e+06
1.81217e+06
1.79547e+06
1.77985e+06
2.21395e+06
2.16526e+06
2.1304e+06
2.09865e+06
2.06833e+06
2.03933e+06
2.01161e+06
1.98514e+06
1.9599e+06
1.93586e+06
1.91298e+06
1.89124e+06
1.87062e+06
1.85112e+06
1.83274e+06
1.81549e+06
1.79938e+06
1.78432e+06
2.21362e+06
2.16343e+06
2.12901e+06
2.09775e+06
2.06788e+06
2.03933e+06
2.01207e+06
1.98608e+06
1.96134e+06
1.93781e+06
1.91544e+06
1.89422e+06
1.87411e+06
1.8551e+06
1.83719e+06
1.82039e+06
1.80472e+06
1.79007e+06
2.21847e+06
2.17051e+06
2.13559e+06
2.10392e+06
2.07383e+06
2.04517e+06
2.01788e+06
1.99192e+06
1.96724e+06
1.94381e+06
1.92156e+06
1.90046e+06
1.88049e+06
1.86161e+06
1.84381e+06
1.8271e+06
1.81146e+06
1.79681e+06
2.22382e+06
2.1774e+06
2.14222e+06
2.11017e+06
2.07979e+06
2.05092e+06
2.02349e+06
1.99742e+06
1.97268e+06
1.9492e+06
1.92694e+06
1.90583e+06
1.88586e+06
1.86697e+06
1.84916e+06
1.83241e+06
1.81671e+06
1.80196e+06
2.22833e+06
2.1832e+06
2.14787e+06
2.1155e+06
2.08486e+06
2.05579e+06
2.02819e+06
2.00201e+06
1.97717e+06
1.95362e+06
1.9313e+06
1.91015e+06
1.89014e+06
1.87121e+06
1.85335e+06
1.83654e+06
1.82076e+06
1.80592e+06
2.23203e+06
2.18802e+06
2.15255e+06
2.11991e+06
2.08905e+06
2.05978e+06
2.03204e+06
2.00573e+06
1.9808e+06
1.95717e+06
1.93478e+06
1.91357e+06
1.89351e+06
1.87453e+06
1.85661e+06
1.83973e+06
1.82387e+06
1.80894e+06
2.23504e+06
2.19197e+06
2.15636e+06
2.12349e+06
2.09242e+06
2.063e+06
2.03512e+06
2.00871e+06
1.98368e+06
1.95997e+06
1.93751e+06
1.91625e+06
1.89613e+06
1.87709e+06
1.85912e+06
1.84218e+06
1.82624e+06
1.81122e+06
2.23741e+06
2.19509e+06
2.15936e+06
2.12628e+06
2.09505e+06
2.0655e+06
2.03751e+06
2.011e+06
1.98589e+06
1.96212e+06
1.9396e+06
1.91828e+06
1.8981e+06
1.87903e+06
1.861e+06
1.844e+06
1.828e+06
1.81292e+06
2.23916e+06
2.19742e+06
2.16159e+06
2.12835e+06
2.097e+06
2.06735e+06
2.03927e+06
2.01269e+06
1.98752e+06
1.96369e+06
1.94112e+06
1.91976e+06
1.89954e+06
1.88042e+06
1.86236e+06
1.84531e+06
1.82926e+06
1.81412e+06
2.24051e+06
2.19913e+06
2.16321e+06
2.12986e+06
2.09842e+06
2.06869e+06
2.04055e+06
2.01392e+06
1.9887e+06
1.96483e+06
1.94222e+06
1.92082e+06
1.90057e+06
1.88142e+06
1.86332e+06
1.84624e+06
1.83014e+06
1.81497e+06
2.24179e+06
2.20056e+06
2.16454e+06
2.13111e+06
2.0996e+06
2.0698e+06
2.04161e+06
2.01493e+06
1.98967e+06
1.96575e+06
1.94311e+06
1.92168e+06
1.9014e+06
1.88221e+06
1.86408e+06
1.84696e+06
1.83083e+06
1.81561e+06
2.24341e+06
2.20211e+06
2.16601e+06
2.13249e+06
2.10089e+06
2.07102e+06
2.04276e+06
2.01601e+06
1.9907e+06
1.96673e+06
1.94404e+06
1.92257e+06
1.90224e+06
1.88302e+06
1.86485e+06
1.84769e+06
1.83151e+06
1.81624e+06
2.24521e+06
2.20374e+06
2.16755e+06
2.13394e+06
2.10226e+06
2.07231e+06
2.04397e+06
2.01716e+06
1.99178e+06
1.96775e+06
1.945e+06
1.92348e+06
1.90311e+06
1.88384e+06
1.86563e+06
1.84843e+06
1.8322e+06
1.81687e+06
2.23334e+06
2.19456e+06
2.15736e+06
2.12209e+06
2.08832e+06
2.05585e+06
2.02455e+06
1.99434e+06
1.96511e+06
1.93679e+06
1.90924e+06
1.88234e+06
1.85594e+06
1.82983e+06
1.80375e+06
1.77729e+06
1.74974e+06
1.71921e+06
2.23315e+06
2.19438e+06
2.1572e+06
2.12193e+06
2.08818e+06
2.05572e+06
2.02444e+06
1.99424e+06
1.96503e+06
1.93672e+06
1.90919e+06
1.88232e+06
1.85596e+06
1.8299e+06
1.8039e+06
1.77758e+06
1.75032e+06
1.72059e+06
2.23283e+06
2.19409e+06
2.15692e+06
2.12168e+06
2.08794e+06
2.05551e+06
2.02425e+06
1.99408e+06
1.96491e+06
1.93663e+06
1.90915e+06
1.88233e+06
1.85604e+06
1.83009e+06
1.80425e+06
1.77823e+06
1.75156e+06
1.72358e+06
2.23248e+06
2.19375e+06
2.15659e+06
2.12137e+06
2.08767e+06
2.05527e+06
2.02405e+06
1.99392e+06
1.9648e+06
1.93658e+06
1.90916e+06
1.88243e+06
1.85624e+06
1.83045e+06
1.80486e+06
1.77928e+06
1.75343e+06
1.72728e+06
2.23212e+06
2.19338e+06
2.15624e+06
2.12105e+06
2.08739e+06
2.05503e+06
2.02386e+06
1.99378e+06
1.96472e+06
1.93658e+06
1.90925e+06
1.88263e+06
1.8566e+06
1.83102e+06
1.80577e+06
1.78073e+06
1.75581e+06
1.7313e+06
2.23177e+06
2.19299e+06
2.15586e+06
2.12071e+06
2.08709e+06
2.05479e+06
2.02368e+06
1.99368e+06
1.96469e+06
1.93664e+06
1.90943e+06
1.88295e+06
1.85712e+06
1.83182e+06
1.80699e+06
1.78255e+06
1.75859e+06
1.73548e+06
2.2314e+06
2.19255e+06
2.15544e+06
2.12033e+06
2.08678e+06
2.05454e+06
2.0235e+06
1.99359e+06
1.96471e+06
1.93677e+06
1.9097e+06
1.88342e+06
1.85782e+06
1.83286e+06
1.80848e+06
1.7847e+06
1.76166e+06
1.73971e+06
2.23099e+06
2.19204e+06
2.15494e+06
2.11989e+06
2.08641e+06
2.05425e+06
2.02331e+06
1.99351e+06
1.96475e+06
1.93696e+06
1.91007e+06
1.884e+06
1.85869e+06
1.8341e+06
1.81022e+06
1.78711e+06
1.76492e+06
1.74396e+06
2.23051e+06
2.19141e+06
2.15433e+06
2.11935e+06
2.08596e+06
2.05391e+06
2.02309e+06
1.99341e+06
1.9648e+06
1.93719e+06
1.91051e+06
1.8847e+06
1.85972e+06
1.83553e+06
1.81218e+06
1.78973e+06
1.76832e+06
1.74818e+06
2.22991e+06
2.19064e+06
2.15356e+06
2.11868e+06
2.0854e+06
2.05348e+06
2.0228e+06
1.99328e+06
1.96485e+06
1.93745e+06
1.91101e+06
1.88549e+06
1.86087e+06
1.83713e+06
1.8143e+06
1.79249e+06
1.77178e+06
1.75236e+06
2.22914e+06
2.18965e+06
2.15258e+06
2.11781e+06
2.08468e+06
2.05291e+06
2.02241e+06
1.99308e+06
1.96486e+06
1.9377e+06
1.91154e+06
1.88635e+06
1.86211e+06
1.83882e+06
1.81654e+06
1.79532e+06
1.77526e+06
1.75645e+06
2.2282e+06
2.18845e+06
2.15142e+06
2.11677e+06
2.0838e+06
2.05221e+06
2.0219e+06
1.99278e+06
1.96479e+06
1.93787e+06
1.912e+06
1.88714e+06
1.86328e+06
1.84042e+06
1.81862e+06
1.79793e+06
1.7784e+06
1.7601e+06
2.22704e+06
2.18696e+06
2.14996e+06
2.11548e+06
2.0827e+06
2.05132e+06
2.02123e+06
1.99234e+06
1.9646e+06
1.93797e+06
1.9124e+06
1.88789e+06
1.86442e+06
1.84199e+06
1.82066e+06
1.80046e+06
1.78144e+06
1.7636e+06
2.22532e+06
2.18477e+06
2.14785e+06
2.1136e+06
2.08109e+06
2.04999e+06
2.02019e+06
1.9916e+06
1.96419e+06
1.93792e+06
1.91274e+06
1.88865e+06
1.86563e+06
1.84371e+06
1.8229e+06
1.80324e+06
1.78474e+06
1.76739e+06
2.22288e+06
2.18168e+06
2.14487e+06
2.11095e+06
2.0788e+06
2.04807e+06
2.01865e+06
1.99047e+06
1.96348e+06
1.93764e+06
1.91293e+06
1.88934e+06
1.86686e+06
1.84549e+06
1.82525e+06
1.80617e+06
1.78823e+06
1.7714e+06
2.21964e+06
2.1776e+06
2.14094e+06
2.10746e+06
2.07578e+06
2.04553e+06
2.0166e+06
1.98891e+06
1.96243e+06
1.93712e+06
1.91297e+06
1.88995e+06
1.86806e+06
1.8473e+06
1.82768e+06
1.80921e+06
1.79186e+06
1.77556e+06