/*--------------------------------*- C++ -*----------------------------------*\
| =========                 |                                                 |
| \\      /  F ield         | OpenFOAM: The Open Source CFD Toolbox           |
|  \\    /   O peration     | Version:  2112                                  |
|   \\  /    A nd           | Website:  www.openfoam.com                      |
|    \\/     M anipulation  |                                                 |
\*---------------------------------------------------------------------------*/
FoamFile
{
    version     2.0;
    format      ascii;
    arch        "LSB;label=32;scalar=64";
    class       volVectorField;
    location    "0.19";
    object      U;
}
// * * * * * * * * * * * * * * * * * * * * * * * * * * * * * * * * * * * * * //

dimensions      [0 1 -1 0 0 0 0];

internalField   nonuniform List<vector> 
122250
(
(9.7542 0.128592 -0.0647093)
(9.35787 0.121078 -0.0576672)
(9.03031 0.0928063 -0.0522791)
(8.74445 0.0741204 -0.049239)
(8.48112 0.0618976 -0.047208)
(8.23696 0.052665 -0.0455633)
(8.01807 0.0447803 -0.0440071)
(7.82178 0.0383642 -0.0424869)
(7.65038 0.0326607 -0.0410507)
(7.4965 0.0288017 -0.039672)
(7.3671 0.0236741 -0.0382839)
(7.25306 0.0206964 -0.0367593)
(7.17404 0.0142577 -0.0350077)
(7.11751 0.0160388 -0.0328381)
(7.07209 0.00925455 -0.0302602)
(7.04426 0.0163896 -0.0271219)
(6.97229 0.00868321 -0.0238128)
(6.97425 0.0292079 -0.0207526)
(10.0385 0.0528666 -0.0643361)
(10.1131 0.0709097 -0.0579511)
(10.1599 0.0630605 -0.052433)
(10.1843 0.0626365 -0.0491959)
(10.1855 0.0678965 -0.04709)
(10.1645 0.0723817 -0.0454145)
(10.1308 0.0746677 -0.0438381)
(10.0895 0.0747482 -0.0422955)
(10.0464 0.0742544 -0.040834)
(10.002 0.0728838 -0.0394337)
(9.96341 0.0715564 -0.0380155)
(9.92442 0.0678112 -0.0364693)
(9.90028 0.063759 -0.0346642)
(9.88419 0.0597836 -0.032477)
(9.88454 0.0582754 -0.0298186)
(9.87706 0.0566019 -0.0267076)
(9.88026 0.0628804 -0.0232022)
(9.87122 0.0726454 -0.0197482)
(10.0162 0.0644276 -0.0625946)
(10.083 0.0955736 -0.057594)
(10.1639 0.0811685 -0.0524311)
(10.2404 0.0724514 -0.0491439)
(10.3036 0.0756046 -0.0470147)
(10.3532 0.0812691 -0.0453645)
(10.3941 0.0846021 -0.0438066)
(10.429 0.0855044 -0.0422634)
(10.4596 0.084968 -0.0407894)
(10.4869 0.0842853 -0.0393656)
(10.5147 0.0823256 -0.0379133)
(10.5399 0.0798728 -0.0363112)
(10.5707 0.0752278 -0.0344345)
(10.6073 0.0725237 -0.0321506)
(10.6518 0.0698381 -0.0293939)
(10.6906 0.0701628 -0.0261468)
(10.7334 0.07476 -0.0225384)
(10.7634 0.0828609 -0.0190808)
(10.0133 0.0488385 -0.0612875)
(10.0698 0.0733415 -0.0574014)
(10.1476 0.0577429 -0.0526069)
(10.2216 0.0493076 -0.0492202)
(10.2822 0.0550998 -0.0469894)
(10.3324 0.064358 -0.0453347)
(10.3778 0.0707417 -0.0437928)
(10.4209 0.073844 -0.0422426)
(10.4617 0.0754832 -0.040736)
(10.5012 0.0765213 -0.039268)
(10.5415 0.0769465 -0.0377546)
(10.5808 0.0764021 -0.0360764)
(10.6245 0.0747996 -0.0340976)
(10.6762 0.0729586 -0.031694)
(10.7327 0.0729106 -0.0288037)
(10.7884 0.0730468 -0.0254195)
(10.8423 0.0793988 -0.0216619)
(10.8929 0.0855308 -0.0178224)
(10.012 0.0405163 -0.0600678)
(10.0624 0.0649201 -0.0569763)
(10.1361 0.0528627 -0.0525692)
(10.206 0.0452406 -0.0491793)
(10.2627 0.051059 -0.0468698)
(10.3097 0.0614356 -0.0452051)
(10.3531 0.0694216 -0.0436846)
(10.3951 0.0739599 -0.0421342)
(10.4356 0.0766397 -0.0405952)
(10.4755 0.0786551 -0.0390746)
(10.5162 0.0799614 -0.0374921)
(10.5565 0.0805612 -0.0357255)
(10.6012 0.0800782 -0.0336363)
(10.6549 0.079224 -0.0311079)
(10.7133 0.0791837 -0.0280836)
(10.7723 0.0808259 -0.0245522)
(10.8296 0.0851395 -0.0205714)
(10.8872 0.0953084 -0.0162729)
(10.011 0.0345741 -0.0589334)
(10.058 0.053343 -0.0564499)
(10.1277 0.0411675 -0.0524633)
(10.1931 0.0351892 -0.0491506)
(10.2461 0.0420372 -0.0467709)
(10.2905 0.0535495 -0.0450654)
(10.3319 0.0630669 -0.0435473)
(10.3726 0.0690481 -0.0419934)
(10.4125 0.0728613 -0.040418)
(10.452 0.0758158 -0.0388344)
(10.4926 0.0779833 -0.0371702)
(10.5327 0.0796698 -0.0353029)
(10.5772 0.0804464 -0.0330955)
(10.6312 0.080509 -0.0304368)
(10.6903 0.0812198 -0.0272695)
(10.7506 0.083201 -0.0235729)
(10.8104 0.0877706 -0.0193445)
(10.8711 0.0967329 -0.014659)
(10.0106 0.0295556 -0.0578863)
(10.0558 0.0420346 -0.0558642)
(10.1212 0.0306977 -0.0522657)
(10.1815 0.0275388 -0.0490668)
(10.231 0.0354311 -0.0466441)
(10.2733 0.0473763 -0.0448845)
(10.3131 0.0578631 -0.0433506)
(10.3526 0.0650991 -0.0417872)
(10.3917 0.0700224 -0.0401726)
(10.431 0.0739172 -0.0385183)
(10.4714 0.0769591 -0.0367606)
(10.5114 0.079698 -0.0347837)
(10.5557 0.0816482 -0.0324524)
(10.6098 0.0826924 -0.029659)
(10.6695 0.0838248 -0.0263445)
(10.731 0.0860197 -0.0224769)
(10.7928 0.0899276 -0.0180237)
(10.8563 0.0968172 -0.0130211)
(10.0108 0.0249997 -0.0569128)
(10.0559 0.0298237 -0.0552333)
(10.1166 0.0195029 -0.0519734)
(10.1712 0.019892 -0.0489221)
(10.2172 0.0293462 -0.0464896)
(10.2578 0.0416277 -0.0446697)
(10.2963 0.0527237 -0.0430999)
(10.3347 0.0609762 -0.0415167)
(10.3731 0.0668992 -0.0398596)
(10.412 0.0716585 -0.0381296)
(10.4522 0.075447 -0.0362675)
(10.4921 0.0790008 -0.0341796)
(10.5361 0.0819173 -0.031723)
(10.5901 0.0836734 -0.0287965)
(10.6502 0.0849595 -0.0253398)
(10.7127 0.0868577 -0.0213151)
(10.776 0.0894034 -0.0166765)
(10.842 0.093981 -0.0114321)
(10.0116 0.0206077 -0.0560044)
(10.0559 0.018317 -0.0545801)
(10.1117 0.00953939 -0.0515974)
(10.1612 0.0132237 -0.0487058)
(10.2045 0.0239843 -0.0462939)
(10.2438 0.0363352 -0.0444182)
(10.2813 0.0476777 -0.0427973)
(10.3186 0.0566615 -0.0411812)
(10.3563 0.0634141 -0.039477)
(10.3947 0.0689038 -0.03767)
(10.4347 0.0732989 -0.0357083)
(10.4745 0.077458 -0.0335005)
(10.518 0.0811521 -0.0309206)
(10.5717 0.0833998 -0.0278688)
(10.6319 0.084547 -0.0242848)
(10.6951 0.0856423 -0.0201311)
(10.7594 0.0863499 -0.0153582)
(10.8271 0.0879318 -0.00996641)
(10.0127 0.0159783 -0.0551548)
(10.0563 0.00678702 -0.0539165)
(10.1074 -0.000240928 -0.051151)
(10.1523 0.0066646 -0.0484166)
(10.1929 0.0187771 -0.0460516)
(10.2311 0.031257 -0.0441281)
(10.2677 0.0426734 -0.0424452)
(10.3041 0.0521256 -0.0407823)
(10.341 0.0594992 -0.0390248)
(10.3789 0.0655643 -0.0371401)
(10.4186 0.0704366 -0.0350786)
(10.4583 0.0749864 -0.0327561)
(10.5013 0.0792283 -0.0300614)
(10.5542 0.0817079 -0.0268993)
(10.6142 0.082386 -0.023213)
(10.6775 0.0822361 -0.0189698)
(10.7423 0.0806497 -0.0141256)
(10.8106 0.0787144 -0.00868612)
(10.0141 0.010784 -0.0543667)
(10.0569 -0.00399038 -0.0532535)
(10.1036 -0.00881378 -0.0506443)
(10.1443 0.000768629 -0.0480535)
(10.1824 0.0138454 -0.0457566)
(10.2194 0.026395 -0.0437946)
(10.2552 0.037766 -0.0420451)
(10.2908 0.0474461 -0.0403239)
(10.327 0.0552045 -0.0385066)
(10.3643 0.0616546 -0.036545)
(10.4036 0.0668631 -0.0343886)
(10.4431 0.0716113 -0.0319619)
(10.4854 0.0761494 -0.0291673)
(10.5372 0.0785848 -0.025918)
(10.5965 0.0784638 -0.022163)
(10.6595 0.076685 -0.0178782)
(10.724 0.072446 -0.0130315)
(10.7919 0.0667407 -0.00763963)
(10.0159 0.00507381 -0.053702)
(10.0577 -0.0136077 -0.0526583)
(10.1004 -0.0157204 -0.0501373)
(10.1377 -0.00428633 -0.0476541)
(10.1737 0.00937853 -0.045424)
(10.2096 0.02193 -0.0434371)
(10.2448 0.0331854 -0.0416283)
(10.2798 0.0428817 -0.0398468)
(10.3154 0.0507661 -0.0379704)
(10.3521 0.057359 -0.0359408)
(10.3909 0.0627112 -0.0337064)
(10.4301 0.0674567 -0.0311988)
(10.4717 0.0720256 -0.028334)
(10.5221 0.0741484 -0.0250329)
(10.5803 0.0729969 -0.0212529)
(10.6423 0.069406 -0.0169798)
(10.7058 0.0625061 -0.0121954)
(10.7725 0.0532525 -0.00692795)
(10.0179 -0.00121357 -0.0531606)
(10.058 -0.0220283 -0.0521179)
(10.097 -0.0214082 -0.0496333)
(10.1314 -0.00897166 -0.0472304)
(10.1655 0.00495264 -0.0450594)
(10.2002 0.0174743 -0.0430576)
(10.2347 0.0285835 -0.0411943)
(10.269 0.0381491 -0.0393504)
(10.304 0.0459511 -0.0374125)
(10.3401 0.0524894 -0.0353182)
(10.3782 0.0578677 -0.0330152)
(10.4169 0.062512 -0.0304417)
(10.4574 0.0669861 -0.0275274)
(10.5061 0.0686447 -0.0242005)
(10.5627 0.0663374 -0.0204287)
(10.6233 0.0608474 -0.0162079)
(10.6851 0.0512977 -0.011534)
(10.7498 0.0387748 -0.00644716)
(10.0206 -0.0110754 -0.0526722)
(10.0575 -0.0312223 -0.0515477)
(10.0925 -0.0267624 -0.0490426)
(10.1245 -0.0138196 -0.0466988)
(10.1567 -1.56315e-05 -0.0445779)
(10.1901 0.0123319 -0.0425701)
(10.2237 0.0231865 -0.0406546)
(10.2573 0.0324472 -0.0387426)
(10.2916 0.0399396 -0.0367366)
(10.3269 0.0461917 -0.0345754)
(10.364 0.051433 -0.0322089)
(10.402 0.0558114 -0.0295834)
(10.4411 0.0600005 -0.0266419)
(10.4873 0.0609191 -0.0233267)
(10.5414 0.0571529 -0.0196118)
(10.5997 0.0494059 -0.015505)
(10.6591 0.0369921 -0.0110167)
(10.7206 0.0209672 -0.00620041)
(10.0219 -0.0216184 -0.0523972)
(10.0548 -0.0388005 -0.0509825)
(10.0866 -0.0315485 -0.0483665)
(10.1169 -0.0189291 -0.0460502)
(10.1474 -0.00565238 -0.0439661)
(10.1792 0.00638304 -0.0419567)
(10.2118 0.0168254 -0.0399949)
(10.2446 0.0255485 -0.0380155)
(10.2779 0.032453 -0.0359412)
(10.3122 0.0381065 -0.0337186)
(10.348 0.0429544 -0.0313037)
(10.3851 0.0468045 -0.0286529)
(10.4222 0.0502647 -0.0257245)
(10.4648 0.0504468 -0.0224748)
(10.5154 0.0450339 -0.0188847)
(10.5704 0.0348638 -0.0149724)
(10.626 0.0194563 -0.0107629)
(10.683 0.000100409 -0.00631931)
(10.0228 -0.0354559 -0.0524465)
(10.051 -0.0457176 -0.0503671)
(10.0797 -0.0361274 -0.0475906)
(10.1084 -0.024396 -0.0452817)
(10.1371 -0.0120584 -0.0432174)
(10.1673 -0.000550946 -0.041209)
(10.1986 0.00927973 -0.0392124)
(10.2304 0.0171833 -0.0371762)
(10.2627 0.0232026 -0.0350454)
(10.2957 0.0279371 -0.0327798)
(10.3298 0.0320733 -0.0303461)
(10.3651 0.0351784 -0.0277122)
(10.4 0.0372433 -0.0248507)
(10.4381 0.036766 -0.0217365)
(10.4835 0.0299583 -0.0183568)
(10.5337 0.0173678 -0.0147348)
(10.5843 -0.000750852 -0.0109021)
(10.6356 -0.0226892 -0.00693665)
(10.0194 -0.0550595 -0.0507344)
(10.0433 -0.0495201 -0.0492069)
(10.0709 -0.0407274 -0.0466223)
(10.0984 -0.0304209 -0.0443716)
(10.1256 -0.0192214 -0.0423347)
(10.154 -0.00865068 -0.0403369)
(10.1839 0.000256639 -0.0383223)
(10.2144 0.00706569 -0.0362522)
(10.2453 0.0119235 -0.0340922)
(10.2766 0.0155068 -0.0318189)
(10.3084 0.0186387 -0.0294125)
(10.3411 0.0210204 -0.0268541)
(10.3736 0.0216345 -0.024128)
(10.4069 0.0201775 -0.0212276)
(10.4451 0.0125506 -0.018152)
(10.4885 -0.00178925 -0.0149143)
(10.5331 -0.0217623 -0.0115509)
(10.5774 -0.0453476 -0.00815052)
(10.0097 -0.0627222 -0.049512)
(10.0318 -0.054502 -0.0479309)
(10.0598 -0.0466578 -0.0455199)
(10.0866 -0.0373986 -0.0433343)
(10.1122 -0.0273765 -0.0413421)
(10.1389 -0.0179346 -0.0393756)
(10.1672 -0.0102805 -0.0373691)
(10.196 -0.00488583 -0.0352986)
(10.225 -0.00148351 -0.0331536)
(10.2542 0.000747858 -0.0309259)
(10.2834 0.00263645 -0.0286086)
(10.3126 0.0041431 -0.0261957)
(10.3419 0.0038534 -0.0236826)
(10.3706 0.000868216 -0.021072)
(10.4005 -0.00685908 -0.0183689)
(10.4352 -0.0211063 -0.0155895)
(10.4722 -0.0416086 -0.0127623)
(10.5086 -0.0655543 -0.0099883)
(9.9991 -0.070938 -0.0476308)
(10.02 -0.0620416 -0.0465578)
(10.0471 -0.054098 -0.044341)
(10.0727 -0.0456007 -0.0422445)
(10.0968 -0.0366892 -0.040311)
(10.1215 -0.0283529 -0.0383983)
(10.1476 -0.0219476 -0.0364308)
(10.1744 -0.01793 -0.0344066)
(10.2009 -0.0158624 -0.0323321)
(10.2273 -0.0147572 -0.030213)
(10.2535 -0.0137789 -0.0280501)
(10.2792 -0.0129926 -0.0258474)
(10.3045 -0.013644 -0.0236103)
(10.3294 -0.0173658 -0.021345)
(10.3533 -0.0252319 -0.0190627)
(10.3773 -0.0379831 -0.0167811)
(10.4038 -0.056306 -0.0145183)
(10.4316 -0.078313 -0.0123693)
(9.99022 -0.0780626 -0.0466)
(10.0101 -0.0689867 -0.0456328)
(10.0362 -0.061108 -0.0435065)
(10.0607 -0.0532295 -0.0414645)
(10.0835 -0.0452446 -0.039572)
(10.1067 -0.0378597 -0.0377039)
(10.1312 -0.0323439 -0.035793)
(10.1563 -0.0292541 -0.0338357)
(10.181 -0.0280834 -0.0318472)
(10.2053 -0.0277174 -0.0298457)
(10.2291 -0.0272142 -0.0278372)
(10.2522 -0.0266583 -0.0258285)
(10.2745 -0.0272347 -0.0238293)
(10.2959 -0.0305349 -0.021849)
(10.3163 -0.0380541 -0.0198953)
(10.3356 -0.0495512 -0.0179823)
(10.3538 -0.0648511 -0.0161274)
(10.3729 -0.0831164 -0.014429)
(9.98375 -0.0833238 -0.04607)
(10.003 -0.0741535 -0.045123)
(10.0281 -0.0662923 -0.0430198)
(10.0516 -0.0588491 -0.0409928)
(10.0734 -0.0515293 -0.0391146)
(10.0956 -0.0447947 -0.0372687)
(10.1189 -0.039756 -0.0353963)
(10.1428 -0.0371148 -0.0334908)
(10.1663 -0.0363448 -0.0315714)
(10.189 -0.0362676 -0.0296576)
(10.2111 -0.0358586 -0.0277598)
(10.2324 -0.0351295 -0.0258891)
(10.2528 -0.0352367 -0.0240535)
(10.2721 -0.037758 -0.0222632)
(10.2901 -0.0440695 -0.0205266)
(10.3069 -0.0543736 -0.0188522)
(10.3223 -0.0679409 -0.0172515)
(10.3363 -0.0832282 -0.0158319)
(9.97854 -0.0877977 -0.0458286)
(9.99715 -0.0784026 -0.0448679)
(10.0214 -0.0704824 -0.0427464)
(10.044 -0.0634393 -0.0407045)
(10.0651 -0.0567637 -0.0388153)
(10.0865 -0.0506072 -0.0369666)
(10.109 -0.0458917 -0.0351095)
(10.1321 -0.0434324 -0.0332457)
(10.1546 -0.0427826 -0.0313869)
(10.1763 -0.0427876 -0.029545)
(10.1973 -0.0423617 -0.0277335)
(10.2175 -0.0414071 -0.0259613)
(10.2366 -0.0409449 -0.024245)
(10.2545 -0.0424975 -0.0225929)
(10.271 -0.0474645 -0.0210115)
(10.2859 -0.0560382 -0.0195076)
(10.2993 -0.0678043 -0.0180905)
(10.3112 -0.0812436 -0.0168664)
(9.97438 -0.0917058 -0.0458276)
(9.99245 -0.0819074 -0.0448161)
(10.0158 -0.0738311 -0.0426338)
(10.0375 -0.067126 -0.0405515)
(10.058 -0.061041 -0.0386321)
(10.079 -0.0554287 -0.0367607)
(10.1012 -0.0510598 -0.0348983)
(10.1238 -0.0487469 -0.0330595)
(10.1458 -0.0481226 -0.0312463)
(10.1667 -0.0480667 -0.0294592)
(10.1868 -0.0474803 -0.0277128)
(10.2062 -0.0461963 -0.0260197)
(10.2247 -0.0451299 -0.0243935)
(10.2419 -0.0457015 -0.0228424)
(10.2577 -0.0493085 -0.0213705)
(10.2717 -0.0562238 -0.0199865)
(10.2839 -0.0660966 -0.0187004)
(10.2942 -0.0775895 -0.0176179)
(9.97108 -0.0952167 -0.0460458)
(9.98866 -0.0848671 -0.0449321)
(10.0111 -0.0766348 -0.0426352)
(10.032 -0.0702354 -0.0404864)
(10.052 -0.0645331 -0.0385241)
(10.0729 -0.0592735 -0.0366232)
(10.0948 -0.0551968 -0.0347516)
(10.1172 -0.053067 -0.0329252)
(10.139 -0.0525487 -0.0311354)
(10.1597 -0.052571 -0.0293765)
(10.1795 -0.0520579 -0.0276673)
(10.1985 -0.05075 -0.0260229)
(10.2166 -0.0493782 -0.0244562)
(10.2334 -0.0491868 -0.0229747)
(10.2487 -0.0515064 -0.0215831)
(10.2623 -0.0567276 -0.0202878)
(10.2738 -0.0646572 -0.0190965)
(10.2833 -0.0742089 -0.0181163)
(9.96851 -0.098405 -0.0464639)
(9.98552 -0.0871622 -0.0451914)
(10.007 -0.0792939 -0.0427121)
(10.0272 -0.073526 -0.0404611)
(10.047 -0.0679428 -0.0384391)
(10.0679 -0.0624263 -0.0365156)
(10.0898 -0.0579819 -0.0346512)
(10.1121 -0.0554032 -0.032848)
(10.1339 -0.0543875 -0.0310841)
(10.1545 -0.0539487 -0.0293501)
(10.1741 -0.0530928 -0.0276694)
(10.193 -0.051505 -0.0260596)
(10.2112 -0.0497383 -0.0245332)
(10.2283 -0.0488317 -0.0230971)
(10.2439 -0.0499822 -0.0217575)
(10.2575 -0.0536166 -0.0205209)
(10.2689 -0.0596609 -0.0193943)
(10.2777 -0.0672701 -0.018485)
(9.9666 -0.101383 -0.0470326)
(9.98252 -0.0878749 -0.0455689)
(10.0027 -0.0810663 -0.0428651)
(10.0228 -0.0779177 -0.0404573)
(10.0431 -0.074556 -0.03832)
(10.0643 -0.0705304 -0.0363391)
(10.0864 -0.0669767 -0.0344686)
(10.1089 -0.0647043 -0.0326813)
(10.1309 -0.0635664 -0.0309357)
(10.1517 -0.0628605 -0.0292202)
(10.1714 -0.0618343 -0.0275624)
(10.1903 -0.0601472 -0.0259804)
(10.2086 -0.0581468 -0.0244852)
(10.226 -0.0566074 -0.023084)
(10.242 -0.0565423 -0.0217843)
(10.2561 -0.0583939 -0.0205936)
(10.2677 -0.0622093 -0.0195215)
(10.2766 -0.0674714 -0.0186747)
(9.96534 -0.105944 -0.0476472)
(9.97954 -0.086128 -0.0459854)
(9.99701 -0.0745059 -0.0431405)
(10.0166 -0.06918 -0.0406632)
(10.0378 -0.0652319 -0.0384276)
(10.0601 -0.0616592 -0.0363802)
(10.0832 -0.0589013 -0.034484)
(10.1067 -0.0571921 -0.0326871)
(10.1296 -0.0562913 -0.0309354)
(10.1509 -0.0557412 -0.0292191)
(10.171 -0.0550482 -0.0275676)
(10.1903 -0.0538677 -0.0259948)
(10.2092 -0.0523781 -0.02451)
(10.2274 -0.0510268 -0.0231206)
(10.2445 -0.0506817 -0.0218365)
(10.2595 -0.0516558 -0.0206652)
(10.2718 -0.0541477 -0.019619)
(10.2806 -0.0575056 -0.0188116)
(9.96574 -0.118263 -0.0482307)
(9.98306 -0.104817 -0.0460497)
(10.0003 -0.0997312 -0.0429169)
(10.0202 -0.0951666 -0.0404317)
(10.0421 -0.0897861 -0.0382032)
(10.0646 -0.0848732 -0.0361783)
(10.0876 -0.0809047 -0.0343088)
(10.1107 -0.0776983 -0.0325308)
(10.1325 -0.0751729 -0.030793)
(10.152 -0.0730243 -0.0290926)
(10.1696 -0.0710161 -0.027459)
(10.1862 -0.0686553 -0.0259033)
(10.2023 -0.066121 -0.0244332)
(10.218 -0.0632331 -0.0230598)
(10.2327 -0.0610164 -0.0217967)
(10.2452 -0.0593465 -0.020651)
(10.255 -0.0591777 -0.0196291)
(10.2608 -0.0594464 -0.0188349)
(9.99267 -0.0819199 -0.050458)
(10.0131 -0.0591621 -0.0470368)
(10.0217 -0.0598058 -0.0433961)
(10.0234 -0.0619994 -0.0406156)
(10.0184 -0.0616748 -0.0382518)
(10.0087 -0.0612287 -0.0361865)
(9.99662 -0.0608315 -0.0342961)
(9.98318 -0.0602978 -0.032501)
(9.96822 -0.0597636 -0.030755)
(9.95166 -0.0594075 -0.0290518)
(9.93459 -0.0591306 -0.027413)
(9.91783 -0.0589428 -0.025846)
(9.90222 -0.0585102 -0.0243628)
(9.88703 -0.0578195 -0.0229749)
(9.87237 -0.056726 -0.0217113)
(9.85586 -0.0555511 -0.0205696)
(9.8395 -0.054802 -0.0195715)
(9.81913 -0.0545169 -0.0187349)
(9.78509 -0.153741 -0.0527486)
(9.437 -0.131159 -0.0464609)
(9.14312 -0.108211 -0.0432901)
(8.89564 -0.0923145 -0.0405681)
(8.67886 -0.0791181 -0.0382261)
(8.48616 -0.0686127 -0.0362051)
(8.31447 -0.0598354 -0.0343422)
(8.1619 -0.0521693 -0.0325663)
(8.02571 -0.0458009 -0.0308421)
(7.90318 -0.0407399 -0.0291593)
(7.79107 -0.037155 -0.0275353)
(7.68785 -0.0340043 -0.0259819)
(7.59179 -0.0314971 -0.0245055)
(7.50423 -0.0275797 -0.0231303)
(7.42478 -0.0249907 -0.0218682)
(7.35411 -0.0194955 -0.0207569)
(7.29169 -0.0198149 -0.0197887)
(7.23163 -0.0135765 -0.0190911)
(9.76634 0.12307 -0.00889931)
(9.36771 0.119887 -0.0105115)
(9.02559 0.0951662 -0.012228)
(8.71612 0.0787152 -0.0140052)
(8.41876 0.0679741 -0.0159953)
(8.13271 0.0595047 -0.0181992)
(7.86759 0.0521946 -0.0207141)
(7.62241 0.0463689 -0.02375)
(7.39785 0.0418227 -0.0275417)
(7.18322 0.0387202 -0.0323748)
(6.99165 0.0371962 -0.0384353)
(6.79246 0.0395194 -0.0461409)
(6.61702 0.0416216 -0.0556)
(6.38825 0.0505454 -0.066966)
(6.22287 0.051305 -0.0793048)
(5.94147 0.0776808 -0.090189)
(5.80658 0.0615495 -0.093044)
(5.3651 0.118629 -0.0914508)
(10.0363 0.05031 -0.0088819)
(10.1013 0.0673035 -0.010485)
(10.1406 0.0599442 -0.0122094)
(10.1568 0.0612847 -0.0139848)
(10.144 0.06886 -0.0159629)
(10.1024 0.0755394 -0.018148)
(10.0427 0.0799508 -0.0206411)
(9.971 0.082772 -0.0236363)
(9.89298 0.0865571 -0.0273693)
(9.80679 0.0894088 -0.0321087)
(9.71917 0.0959466 -0.0380222)
(9.6257 0.103019 -0.0454804)
(9.53358 0.118909 -0.0545681)
(9.42045 0.132175 -0.0654841)
(9.31937 0.156932 -0.0770773)
(9.18602 0.177238 -0.0876212)
(9.08495 0.209104 -0.0912603)
(8.88875 0.228645 -0.0935714)
(10.0143 0.0614379 -0.00893898)
(10.0626 0.0923403 -0.0104952)
(10.1229 0.0795552 -0.0122141)
(10.1789 0.0732173 -0.013979)
(10.219 0.0792471 -0.0159462)
(10.2428 0.0877974 -0.0181179)
(10.2562 0.0942798 -0.0205877)
(10.2627 0.0993009 -0.0235352)
(10.2633 0.104716 -0.0271932)
(10.2584 0.110984 -0.0318096)
(10.2483 0.120165 -0.0375232)
(10.2378 0.133129 -0.0446153)
(10.2237 0.152244 -0.0531271)
(10.2041 0.175825 -0.0631435)
(10.1851 0.205373 -0.0735703)
(10.1644 0.240498 -0.0830247)
(10.1527 0.278358 -0.0885353)
(10.1138 0.318794 -0.0923754)
(10.0118 0.0467551 -0.00896304)
(10.0512 0.070192 -0.0104757)
(10.1079 0.0559606 -0.0121886)
(10.1594 0.0497096 -0.013951)
(10.194 0.0582138 -0.0159073)
(10.2144 0.0705891 -0.0180564)
(10.2282 0.0807618 -0.0204981)
(10.2387 0.0889032 -0.0233914)
(10.2463 0.0974411 -0.026956)
(10.2509 0.107353 -0.0314207)
(10.2531 0.120589 -0.0368951)
(10.2578 0.137839 -0.0435566)
(10.2622 0.161524 -0.0514218)
(10.2651 0.190709 -0.0604722)
(10.2719 0.226173 -0.0698193)
(10.2859 0.266775 -0.0782752)
(10.3092 0.311456 -0.0844239)
(10.3337 0.362628 -0.0884843)
(10.0106 0.039009 -0.00897617)
(10.0458 0.062512 -0.0104472)
(10.0986 0.0527494 -0.0121513)
(10.1454 0.048291 -0.0139109)
(10.176 0.057369 -0.0158523)
(10.1935 0.0714932 -0.0179712)
(10.2053 0.0841919 -0.0203752)
(10.2147 0.094934 -0.023204)
(10.2222 0.105825 -0.0266565)
(10.2274 0.118318 -0.0309416)
(10.2313 0.134235 -0.0361414)
(10.2383 0.154285 -0.0423449)
(10.2459 0.180619 -0.0495599)
(10.2525 0.212735 -0.0577142)
(10.263 0.250737 -0.0661053)
(10.283 0.293424 -0.073728)
(10.3124 0.341253 -0.0797644)
(10.3528 0.396096 -0.0841411)
(10.0099 0.0335291 -0.00897869)
(10.0424 0.0512266 -0.010415)
(10.0909 0.0417181 -0.0121052)
(10.133 0.0395366 -0.013859)
(10.1605 0.0499622 -0.0157846)
(10.176 0.0655708 -0.0178669)
(10.1865 0.0804691 -0.0202237)
(10.1955 0.0936565 -0.022975)
(10.2034 0.106821 -0.0262974)
(10.2098 0.121692 -0.03038)
(10.2157 0.140033 -0.0352808)
(10.2254 0.162564 -0.0410149)
(10.236 0.190959 -0.0475892)
(10.2456 0.225379 -0.0549254)
(10.2589 0.265139 -0.0624563)
(10.2822 0.309642 -0.0693532)
(10.3156 0.358854 -0.0750267)
(10.3627 0.414297 -0.0794735)
(10.0098 0.0286978 -0.00897023)
(10.0409 0.0400466 -0.0103747)
(10.0847 0.0321046 -0.0120445)
(10.1218 0.0335227 -0.0137896)
(10.1464 0.0454605 -0.0156975)
(10.1606 0.0619788 -0.0177389)
(10.1704 0.0785868 -0.0200379)
(10.1791 0.0940284 -0.0226979)
(10.1876 0.109435 -0.0258729)
(10.1956 0.126489 -0.0297326)
(10.2037 0.146959 -0.0343172)
(10.2161 0.171516 -0.0395765)
(10.2301 0.201471 -0.0455294)
(10.2432 0.237402 -0.052114)
(10.2597 0.278153 -0.0588551)
(10.2866 0.323258 -0.0650781)
(10.3242 0.371989 -0.0703003)
(10.377 0.425339 -0.0745608)
(10.0101 0.0244658 -0.00894786)
(10.0406 0.0285977 -0.0103265)
(10.0798 0.0221332 -0.0119722)
(10.1119 0.027434 -0.0137027)
(10.1339 0.0412972 -0.0155883)
(10.1472 0.0587276 -0.0175838)
(10.1566 0.0767038 -0.0198152)
(10.1654 0.0940573 -0.0223705)
(10.1746 0.111419 -0.025383)
(10.1842 0.130287 -0.0290015)
(10.1945 0.152433 -0.0332229)
(10.2098 0.178498 -0.0380441)
(10.2271 0.209404 -0.0434022)
(10.2436 0.246048 -0.049287)
(10.2635 0.286891 -0.0552973)
(10.2938 0.331364 -0.0608729)
(10.3352 0.378008 -0.0656009)
(10.3923 0.42747 -0.0695436)
(10.0109 0.0204297 -0.00890892)
(10.0411 0.0178762 -0.0102652)
(10.076 0.0129807 -0.0118846)
(10.1033 0.0219292 -0.0135953)
(10.1229 0.0376916 -0.0154581)
(10.1356 0.0558837 -0.0173991)
(10.145 0.0748274 -0.0195538)
(10.154 0.0936507 -0.0219921)
(10.1641 0.112606 -0.0248285)
(10.1754 0.132927 -0.0281934)
(10.188 0.156324 -0.0320879)
(10.2059 0.1834 -0.0364364)
(10.2265 0.214629 -0.0412276)
(10.2465 0.251165 -0.0464567)
(10.2695 0.291135 -0.0517869)
(10.3028 0.333776 -0.0567428)
(10.3472 0.377012 -0.0609647)
(10.4071 0.421265 -0.0645446)
(10.0128 0.0153482 -0.00885065)
(10.0433 0.00662897 -0.010189)
(10.0733 0.00445549 -0.0117787)
(10.096 0.0168692 -0.0134636)
(10.1132 0.0343256 -0.01529)
(10.1256 0.0531968 -0.0171803)
(10.1352 0.0728494 -0.0192519)
(10.1448 0.0927323 -0.0215635)
(10.1558 0.11287 -0.0242133)
(10.1688 0.134231 -0.027312)
(10.1836 0.158425 -0.0308571)
(10.204 0.186016 -0.0347672)
(10.2277 0.216991 -0.0390241)
(10.2509 0.25267 -0.0436384)
(10.2769 0.290927 -0.0483351)
(10.3127 0.330746 -0.0527034)
(10.3591 0.369601 -0.0564317)
(10.4202 0.407834 -0.0596385)
(10.0146 0.00992293 -0.00876485)
(10.044 -0.00310339 -0.01009)
(10.0699 -0.00253907 -0.0116555)
(10.0892 0.0123432 -0.0133092)
(10.1048 0.0310436 -0.0150674)
(10.1169 0.0505341 -0.0169245)
(10.127 0.0706921 -0.0189083)
(10.1373 0.0912143 -0.0210868)
(10.1495 0.112062 -0.0235444)
(10.1642 0.134011 -0.0263679)
(10.1811 0.158529 -0.0295651)
(10.2037 0.186132 -0.0330564)
(10.2301 0.216276 -0.0368135)
(10.2564 0.250341 -0.0408534)
(10.2848 0.28602 -0.0449614)
(10.3224 0.322118 -0.0487799)
(10.37 0.355796 -0.0520405)
(10.431 0.387554 -0.0548789)
(10.0167 0.00386075 -0.00864913)
(10.0447 -0.0119974 -0.00997259)
(10.067 -0.00842999 -0.0115221)
(10.0837 0.00836787 -0.013143)
(10.0981 0.0279632 -0.01483)
(10.1099 0.0480085 -0.0166543)
(10.1205 0.0685057 -0.0185524)
(10.1316 0.0893099 -0.0206045)
(10.1448 0.110434 -0.0228839)
(10.1609 0.132548 -0.0254514)
(10.1796 0.156963 -0.0283345)
(10.2038 0.184155 -0.031457)
(10.2323 0.21308 -0.0347882)
(10.261 0.245126 -0.0383357)
(10.2913 0.277888 -0.041942)
(10.3299 0.31006 -0.0452913)
(10.3775 0.338638 -0.0481476)
(10.4373 0.364407 -0.0506566)
(10.019 -0.00321912 -0.00847469)
(10.0449 -0.0198713 -0.00982276)
(10.064 -0.0130461 -0.011369)
(10.079 0.0047538 -0.0129599)
(10.0923 0.0247202 -0.0145875)
(10.1041 0.0451537 -0.0163602)
(10.1152 0.0658266 -0.0181697)
(10.1272 0.0866002 -0.0200944)
(10.1416 0.107589 -0.022198)
(10.1592 0.12943 -0.0245212)
(10.1794 0.1533 -0.0271012)
(10.205 0.179651 -0.029875)
(10.2353 0.206957 -0.0328114)
(10.2661 0.236574 -0.0359008)
(10.2979 0.266046 -0.0390472)
(10.3369 0.294001 -0.0419684)
(10.3839 0.317432 -0.0444528)
(10.4417 0.337432 -0.046652)
(10.0211 -0.0117665 -0.00821606)
(10.0441 -0.0273996 -0.00960983)
(10.0605 -0.0174277 -0.011163)
(10.074 0.000841404 -0.0127234)
(10.0866 0.0208492 -0.0142917)
(10.0984 0.0414809 -0.0159872)
(10.1101 0.06213 -0.0176915)
(10.1232 0.0825432 -0.0194708)
(10.1389 0.102958 -0.0213806)
(10.1579 0.124058 -0.0234422)
(10.1798 0.146868 -0.0256875)
(10.2065 0.171839 -0.0280828)
(10.2383 0.196891 -0.0305949)
(10.2711 0.223382 -0.0332047)
(10.304 0.248782 -0.0358766)
(10.3428 0.271736 -0.0383593)
(10.3884 0.289371 -0.0404603)
(10.443 0.303133 -0.0423341)
(10.0234 -0.024073 -0.00785787)
(10.0423 -0.0345565 -0.00930864)
(10.0563 -0.0214219 -0.0108924)
(10.0689 -0.00341202 -0.012422)
(10.081 0.01623 -0.0139199)
(10.0928 0.0366863 -0.0155164)
(10.1052 0.0569533 -0.0170988)
(10.1195 0.0765748 -0.0187182)
(10.1365 0.0958744 -0.0204202)
(10.1568 0.115659 -0.0222109)
(10.1801 0.136769 -0.0241037)
(10.2075 0.159702 -0.0260985)
(10.2402 0.181964 -0.0281721)
(10.2748 0.2043 -0.0302769)
(10.3082 0.224796 -0.03247)
(10.3458 0.24207 -0.034523)
(10.3888 0.25347 -0.0362475)
(10.439 0.260777 -0.0377984)
(10.0237 -0.0390854 -0.00783142)
(10.0379 -0.0396007 -0.00894753)
(10.0509 -0.0252538 -0.0105611)
(10.0633 -0.0083344 -0.0120443)
(10.0752 0.0105493 -0.0134586)
(10.0872 0.0303433 -0.0149344)
(10.1004 0.049722 -0.0163782)
(10.1157 0.0680165 -0.0178271)
(10.1338 0.0855875 -0.0193138)
(10.1551 0.103414 -0.0208337)
(10.1794 0.122163 -0.0223872)
(10.207 0.142302 -0.0239662)
(10.2396 0.161467 -0.0255628)
(10.2749 0.178657 -0.0271964)
(10.3085 0.193414 -0.0289083)
(10.3439 0.204615 -0.0305482)
(10.383 0.209774 -0.0319343)
(10.4274 0.210881 -0.0331888)
(10.0197 -0.0553412 -0.00801554)
(10.031 -0.0427892 -0.00882868)
(10.0442 -0.0298464 -0.0102479)
(10.0568 -0.0142184 -0.0116101)
(10.0689 0.00348199 -0.0129073)
(10.0814 0.021984 -0.0142349)
(10.0951 0.0398398 -0.0155268)
(10.1112 0.0562063 -0.0168009)
(10.13 0.0714424 -0.0180742)
(10.1518 0.0866939 -0.0193374)
(10.1763 0.102568 -0.0205818)
(10.2036 0.119153 -0.0217969)
(10.2345 0.134688 -0.0229685)
(10.269 0.146564 -0.0241488)
(10.3023 0.154924 -0.0253539)
(10.3349 0.159945 -0.0265807)
(10.3688 0.159418 -0.0276564)
(10.4063 0.155171 -0.0286518)
(10.0103 -0.0599134 -0.00731917)
(10.0213 -0.0480797 -0.00862808)
(10.0357 -0.035949 -0.00989767)
(10.049 -0.0216572 -0.0111165)
(10.0615 -0.00560176 -0.0122674)
(10.0744 0.0110063 -0.0134265)
(10.0886 0.0267668 -0.0145548)
(10.1049 0.0407038 -0.0156607)
(10.1239 0.0531591 -0.0167348)
(10.1452 0.0653519 -0.0177691)
(10.1689 0.0780144 -0.0187538)
(10.1948 0.0907828 -0.019682)
(10.2228 0.102158 -0.0205403)
(10.2542 0.109682 -0.0213188)
(10.2864 0.11192 -0.0220716)
(10.3165 0.110593 -0.0228702)
(10.3449 0.105151 -0.0236465)
(10.3747 0.0968696 -0.0244139)
(10.0002 -0.067647 -0.00735676)
(10.0109 -0.0556387 -0.00837651)
(10.0258 -0.0440693 -0.0094858)
(10.0394 -0.0312424 -0.0105605)
(10.0522 -0.017214 -0.0115625)
(10.0655 -0.00299422 -0.0125329)
(10.0798 0.0101268 -0.0134995)
(10.0959 0.0212017 -0.0144444)
(10.114 0.0306282 -0.0153469)
(10.134 0.0396605 -0.0161907)
(10.1557 0.0491629 -0.0169735)
(10.1791 0.0586448 -0.0176877)
(10.2039 0.0664032 -0.018329)
(10.23 0.0705733 -0.018894)
(10.2575 0.0689721 -0.0193807)
(10.2854 0.0625424 -0.0198244)
(10.3102 0.0526514 -0.0202361)
(10.333 0.0415774 -0.0207407)
(9.99119 -0.0745203 -0.00717358)
(10.0018 -0.0628218 -0.00810655)
(10.0164 -0.0518353 -0.00912099)
(10.0299 -0.0402938 -0.0101013)
(10.0424 -0.0280339 -0.0110043)
(10.0554 -0.0159027 -0.0118601)
(10.0694 -0.00501517 -0.0126932)
(10.0845 0.00378139 -0.0135211)
(10.1013 0.0108662 -0.0143205)
(10.1196 0.0175628 -0.0150526)
(10.1392 0.0248215 -0.015717)
(10.16 0.0322243 -0.0163133)
(10.1816 0.0380709 -0.0168375)
(10.2041 0.040432 -0.0172904)
(10.2267 0.0377327 -0.0176749)
(10.2496 0.02987 -0.0179933)
(10.2721 0.0178433 -0.0182661)
(10.2922 0.00490551 -0.0185697)
(9.98472 -0.0797125 -0.0069896)
(9.99508 -0.068283 -0.00788298)
(10.0094 -0.0577742 -0.0088502)
(10.0225 -0.0472582 -0.00977993)
(10.0347 -0.0363975 -0.0106274)
(10.0475 -0.0257638 -0.0114178)
(10.0612 -0.0163986 -0.0121644)
(10.0757 -0.00907669 -0.012923)
(10.0914 -0.00346242 -0.0136585)
(10.1085 0.00174238 -0.0143285)
(10.1267 0.00759076 -0.0149269)
(10.1457 0.0138236 -0.0154576)
(10.1654 0.0188403 -0.0159204)
(10.1853 0.0207232 -0.0163159)
(10.2052 0.0178074 -0.0166471)
(10.2246 0.0103758 -0.0169184)
(10.2434 -0.00114678 -0.0171291)
(10.2615 -0.0144139 -0.017383)
(9.97951 -0.0841149 -0.0067989)
(9.9896 -0.072758 -0.00767547)
(10.0035 -0.0625864 -0.00862512)
(10.0161 -0.0529924 -0.00953092)
(10.028 -0.0434402 -0.0103474)
(10.0406 -0.0341274 -0.0111024)
(10.0541 -0.0259536 -0.011814)
(10.0681 -0.0196394 -0.0125102)
(10.0831 -0.0149809 -0.0131899)
(10.0992 -0.0108075 -0.0138194)
(10.1164 -0.00601426 -0.0143774)
(10.1343 -0.000688806 -0.0148679)
(10.1526 0.00375054 -0.0152938)
(10.1708 0.00555546 -0.0156559)
(10.1886 0.00315547 -0.0159561)
(10.2059 -0.00345629 -0.0161992)
(10.2222 -0.0137211 -0.0163893)
(10.2373 -0.0258316 -0.0166237)
(9.97533 -0.087872 -0.00657908)
(9.9851 -0.0763545 -0.00746493)
(9.99833 -0.0663857 -0.00842932)
(10.0103 -0.0576189 -0.00933636)