/*--------------------------------*- C++ -*----------------------------------*\
| =========                 |                                                 |
| \\      /  F ield         | OpenFOAM: The Open Source CFD Toolbox           |
|  \\    /   O peration     | Version:  2112                                  |
|   \\  /    A nd           | Website:  www.openfoam.com                      |
|    \\/     M anipulation  |                                                 |
\*---------------------------------------------------------------------------*/
FoamFile
{
    version     2.0;
    format      ascii;
    arch        "LSB;label=32;scalar=64";
    class       volVectorField;
    location    "0.54";
    object      ddtCorrDdt0(U);
}
// * * * * * * * * * * * * * * * * * * * * * * * * * * * * * * * * * * * * * //

dimensions      [0 1 -2 0 0 0 0];

internalField   nonuniform List<vector> 
12225
(
(-0.109752 0.0558596 0)
(-0.844323 0.166503 0)
(-2.46503 0.317063 0)
(-5.30803 0.53047 0)
(-9.72652 0.816489 0)
(-16.1562 1.18482 0)
(-25.0922 1.64055 0)
(-37.0034 2.17208 0)
(-52.1859 2.70684 0)
(-70.5291 3.08758 0)
(-91.257 3.06956 0)
(-112.719 2.36241 0)
(-132.432 0.72853 0)
(-147.233 -1.90156 0)
(-153.959 -5.14651 0)
(-150.553 -8.73028 0)
(-140.639 -14.4972 0)
(-90.4682 -20.9198 0)
(0.0528832 0.0867093 0)
(0.132871 0.2787 0)
(0.0373863 0.564862 0)
(-0.426462 1.0013 0)
(-1.5947 1.63097 0)
(-3.93177 2.51435 0)
(-8.05312 3.71128 0)
(-14.7406 5.25446 0)
(-24.9127 7.10018 0)
(-39.5143 9.0879 0)
(-59.3008 10.9057 0)
(-84.5148 12.096 0)
(-114.578 12.1131 0)
(-147.828 10.4743 0)
(-181.683 6.91128 0)
(-212.635 1.61358 0)
(-240.576 -6.33985 0)
(-251.323 -18.5425 0)
(-0.0228379 0.0779712 0)
(-0.176401 0.271781 0)
(-0.435479 0.572107 0)
(-0.716369 1.04136 0)
(-0.902223 1.75267 0)
(-0.907869 2.80484 0)
(-0.72977 4.29776 0)
(-0.411582 6.32876 0)
(-0.245633 8.94836 0)
(-0.788447 12.0889 0)
(-2.9574 15.4984 0)
(-8.01337 18.7114 0)
(-17.3945 21.0737 0)
(-32.3708 21.8639 0)
(-53.6486 20.4573 0)
(-81.0397 16.6953 0)
(-114.312 9.56803 0)
(-150.935 4.70677 0)
(-0.0220744 0.102841 0)
(-0.216068 0.348619 0)
(-0.622411 0.686626 0)
(-1.23124 1.16878 0)
(-1.96722 1.85142 0)
(-2.72442 2.80445 0)
(-3.31264 4.11532 0)
(-3.48552 5.87329 0)
(-2.85446 8.15049 0)
(-1.029 10.9638 0)
(2.24625 14.2147 0)
(6.88498 17.6574 0)
(12.2426 20.8854 0)
(17.0044 23.3682 0)
(19.3023 24.5423 0)
(17.038 24.0942 0)
(8.59199 21.6053 0)
(-7.40195 20.5907 0)
(-0.0200416 0.130546 0)
(-0.198461 0.436765 0)
(-0.582714 0.840508 0)
(-1.17719 1.39026 0)
(-1.95484 2.13412 0)
(-2.87609 3.12515 0)
(-3.86249 4.42082 0)
(-4.78405 6.0678 0)
(-5.42257 8.07956 0)
(-5.475 10.4112 0)
(-4.56529 12.9437 0)
(-2.29995 15.4856 0)
(1.62476 17.7922 0)
(7.25865 19.6117 0)
(14.247 20.753 0)
(21.7652 21.1835 0)
(28.7562 21.0372 0)
(33.9326 21.0958 0)
(-0.0183234 0.157149 0)
(-0.18168 0.51813 0)
(-0.533123 0.978694 0)
(-1.07289 1.58712 0)
(-1.77393 2.38771 0)
(-2.59939 3.42562 0)
(-3.49013 4.74706 0)
(-4.35191 6.37937 0)
(-5.05674 8.31052 0)
(-5.45286 10.4714 0)
(-5.38253 12.7196 0)
(-4.70493 14.8431 0)
(-3.31294 16.5894 0)
(-1.13592 17.7225 0)
(1.85358 18.1092 0)
(5.73514 17.7818 0)
(10.4498 16.9105 0)
(16.6478 15.6945 0)
(-0.0165613 0.182702 0)
(-0.164687 0.597658 0)
(-0.483215 1.11649 0)
(-0.969719 1.78554 0)
(-1.59478 2.64327 0)
(-2.31835 3.72482 0)
(-3.08145 5.06167 0)
(-3.79677 6.66654 0)
(-4.35373 8.51678 0)
(-4.63459 10.5402 0)
(-4.53999 12.6037 0)
(-4.01998 14.517 0)
(-3.09989 16.0565 0)
(-1.87576 17.008 0)
(-0.50473 17.2198 0)
(0.957948 16.6608 0)
(2.43228 15.3297 0)
(4.45892 13.2852 0)
(-0.0147589 0.207335 0)
(-0.147182 0.674931 0)
(-0.432098 1.24948 0)
(-0.865692 1.97367 0)
(-1.41805 2.87987 0)
(-2.04869 3.99407 0)
(-2.7012 5.33544 0)
(-3.29697 6.90444 0)
(-3.74103 8.66849 0)
(-3.93734 10.5522 0)
(-3.81039 12.4332 0)
(-3.32965 14.1501 0)
(-2.53099 15.5228 0)
(-1.51891 16.3814 0)
(-0.465638 16.6069 0)
(0.472583 16.1404 0)
(1.15377 14.9199 0)
(1.5485 12.8662 0)
(-0.012945 0.230774 0)
(-0.129492 0.74857 0)
(-0.38043 1.37564 0)
(-0.760978 2.15083 0)
(-1.2418 3.10065 0)
(-1.78385 4.24241 0)
(-2.33556 5.5843 0)
(-2.82919 7.11654 0)
(-3.18707 8.79982 0)
(-3.33572 10.5591 0)
(-3.2233 12.2836 0)
(-2.83755 13.8361 0)
(-2.21802 15.07 0)
(-1.45998 15.8522 0)
(-0.697814 16.0898 0)
(-0.101542 15.7251 0)
(0.200838 14.715 0)
(-0.00373899 12.9476 0)
(-0.0111372 0.252682 0)
(-0.111833 0.817553 0)
(-0.328884 1.49366 0)
(-0.656984 2.31561 0)
(-1.06831 3.30396 0)
(-1.52653 4.46792 0)
(-1.98599 5.80641 0)
(-2.39021 7.30186 0)
(-2.67826 8.9114 0)
(-2.79712 10.5633 0)
(-2.71582 12.1598 0)
(-2.43841 13.5863 0)
(-2.01095 14.7259 0)
(-1.52406 15.4754 0)
(-1.09429 15.7669 0)
(-0.871759 15.5581 0)
(-0.981507 14.8272 0)
(-1.64928 13.5037 0)
(-0.00935479 0.272793 0)
(-0.0944413 0.88085 0)
(-0.278208 1.60159 0)
(-0.555261 2.46519 0)
(-0.900108 3.48646 0)
(-1.28011 4.66756 0)
(-1.65624 5.99999 0)
(-1.98312 7.46086 0)
(-2.21499 9.00648 0)
(-2.31629 10.5708 0)
(-2.27265 12.0699 0)
(-2.09998 13.4105 0)
(-1.8486 14.5021 0)
(-1.60388 15.2684 0)
(-1.47068 15.663 0)
(-1.58684 15.6616 0)
(-2.06135 15.2662 0)
(-3.1078 14.4587 0)
(-0.00781112 0.28961 0)
(-0.0791746 0.933718 0)
(-0.233542 1.69141 0)
(-0.465782 2.58877 0)
(-0.753131 3.63573 0)
(-1.06698 4.82888 0)
(-1.37466 6.1545 0)
(-1.64034 7.5868 0)
(-1.83056 9.0833 0)
(-1.92296 10.5847 0)
(-1.91482 12.0197 0)
(-1.8293 13.3137 0)
(-1.71775 14.3976 0)
(-1.65871 15.2172 0)
(-1.74721 15.7427 0)
(-2.10156 15.9702 0)
(-2.81709 15.9212 0)
(-4.08025 15.6082 0)
(-0.00637369 0.304069 0)
(-0.0647599 0.979601 0)
(-0.191163 1.76961 0)
(-0.380955 2.69612 0)
(-0.61447 3.7647 0)
(-0.867458 4.96741 0)
(-1.11356 6.28683 0)
(-1.32579 7.69584 0)
(-1.48142 9.1545 0)
(-1.56886 10.6107 0)
(-1.59406 12.0057 0)
(-1.58454 13.281 0)
(-1.59012 14.3864 0)
(-1.681 15.2866 0)
(-1.94063 15.9682 0)
(-2.46426 16.4396 0)
(-3.33539 16.7393 0)
(-4.69987 16.8997 0)
(-0.00480909 0.317936 0)
(-0.0491941 1.02407 0)
(-0.145527 1.84552 0)
(-0.289925 2.79991 0)
(-0.466475 3.88852 0)
(-0.656041 5.0995 0)
(-0.839137 6.41279 0)
(-0.997706 7.80143 0)
(-1.11906 9.22967 0)
(-1.20102 10.6542 0)
(-1.25607 12.0293 0)
(-1.31366 13.3133 0)
(-1.41941 14.4739 0)
(-1.6334 15.4932 0)
(-2.02245 16.3727 0)
(-2.66235 17.132 0)
(-3.60758 17.8177 0)
(-4.96699 18.4738 0)
(-0.00316564 0.330095 0)
(-0.0329481 1.06332 0)
(-0.0979622 1.91249 0)
(-0.195186 2.89086 0)
(-0.312929 3.9959 0)
(-0.437652 5.21286 0)
(-0.55682 6.52053 0)
(-0.660672 7.89386 0)
(-0.745109 9.30287 0)
(-0.81503 10.7141 0)
(-0.886676 12.0952 0)
(-0.988334 13.4198 0)
(-1.15878 14.6719 0)
(-1.44513 15.848 0)
(-1.89635 16.9595 0)
(-2.56505 18.0346 0)
(-3.48133 19.116 0)
(-4.71644 20.2465 0)
(-0.00152305 0.338987 0)
(-0.0166072 1.09237 0)
(-0.0498942 1.96204 0)
(-0.0991517 2.95743 0)
(-0.157029 4.0732 0)
(-0.215516 5.29313 0)
(-0.268395 6.59647 0)
(-0.31274 7.96164 0)
(-0.350762 9.36543 0)
(-0.39157 10.7843 0)
(-0.452033 12.198 0)
(-0.556388 13.5934 0)
(-0.734414 14.9665 0)
(-1.01914 16.3237 0)
(-1.44207 17.682 0)
(-2.03445 19.0679 0)
(-2.80668 20.5208 0)
(-3.80267 22.0709 0)
(5.67256e-05 0.342625 0)
(-0.000521466 1.10485 0)
(-0.00191858 1.98285 0)
(-0.00224876 2.9831 0)
(0.00192717 4.09876 0)
(0.0137813 5.31386 0)
(0.034557 6.60986 0)
(0.0624823 7.9697 0)
(0.0917971 9.37718 0)
(0.112146 10.8176 0)
(0.108763 12.2804 0)
(0.0634173 13.7616 0)
(-0.0438672 15.2646 0)
(-0.233124 16.7999 0)
(-0.520923 18.3842 0)
(-0.922238 20.0398 0)
(-1.43507 21.7924 0)
(-2.0832 23.6683 0)
(0.00159977 0.338244 0)
(0.0155361 1.09227 0)
(0.046602 1.96067 0)
(0.0971918 2.94812 0)
(0.168088 4.04777 0)
(0.25918 5.24519 0)
(0.368687 6.5247 0)
(0.492524 7.87397 0)
(0.62394 9.28294 0)
(0.753548 10.7435 0)
(0.869985 12.2515 0)
(0.961003 13.808 0)
(1.01494 15.4192 0)
(1.02182 17.0952 0)
(0.975273 18.8489 0)
(0.870589 20.6948 0)
(0.714336 22.6467 0)
(0.495539 24.7221 0)
(0.00371753 0.320778 0)
(0.0357981 1.03744 0)
(0.105639 1.86265 0)
(0.216781 2.80074 0)
(0.368154 3.84693 0)
(0.55735 4.99045 0)
(0.781842 6.21893 0)
(1.0381 7.52378 0)
(1.32 8.89991 0)
(1.61968 10.3435 0)
(1.92955 11.8526 0)
(2.24271 13.4286 0)
(2.553 15.0758 0)
(2.85567 16.8009 0)
(3.14863 18.6115 0)
(3.43134 20.5156 0)
(3.71033 22.5179 0)
(3.98185 24.63 0)
(0.00593939 0.293262 0)
(0.0546543 0.952922 0)
(0.159753 1.70862 0)
(0.327672 2.56901 0)
(0.557576 3.53403 0)
(0.845361 4.59344 0)
(1.18749 5.73425 0)
(1.58276 6.95308 0)
(2.02662 8.24776 0)
(2.51018 9.61501 0)
(3.02486 11.0547 0)
(3.56442 12.5687 0)
(4.12547 14.1591 0)
(4.70721 15.8298 0)
(5.31013 17.5842 0)
(5.93426 19.4232 0)
(6.58218 21.344 0)
(7.25149 23.3556 0)
(0.00956052 0.256193 0)
(0.0724036 0.852445 0)
(0.206225 1.53558 0)
(0.425903 2.30897 0)
(0.721761 3.1793 0)
(1.08274 4.14459 0)
(1.51235 5.17561 0)
(2.01487 6.29274 0)
(2.58118 7.49554 0)
(3.20361 8.77324 0)
(3.87783 10.1242 0)
(4.59657 11.5502 0)
(5.35565 13.0497 0)
(6.1536 14.6202 0)
(6.98545 16.2637 0)
(7.84762 17.9851 0)
(8.7447 19.7822 0)
(9.68061 21.6593 0)
(0.017173 0.25017 0)
(0.108508 0.757806 0)
(0.268097 1.34146 0)
(0.52284 2.02878 0)
(0.874521 2.8145 0)
(1.2905 3.72866 0)
(1.79506 4.64525 0)
(2.41352 5.63738 0)
(3.10297 6.71937 0)
(3.85097 7.8841 0)
(4.66139 9.1317 0)
(5.52522 10.4325 0)
(6.43205 11.8029 0)
(7.38547 13.2657 0)
(8.395 14.812 0)
(9.45855 16.4222 0)
(10.5663 18.0877 0)
(11.7142 19.8191 0)
(9.60159e-06 0.216861 0)
(0.0681598 0.653482 0)
(0.260289 1.15514 0)
(0.561438 1.74413 0)
(1.00295 2.41244 0)
(1.46385 3.08884 0)
(1.98209 3.97437 0)
(2.68308 4.91732 0)
(3.48008 5.89869 0)
(4.35388 6.92086 0)
(5.27054 8.09627 0)
(6.23745 9.34247 0)
(7.30872 10.6246 0)
(8.45533 11.9448 0)
(9.62384 13.3292 0)
(10.815 14.7914 0)
(12.0595 16.3161 0)
(13.3623 17.908 0)
(0.00655765 0.158326 0)
(0.0965378 0.542925 0)
(0.301121 0.98221 0)
(0.613772 1.48246 0)
(0.993976 2.05332 0)
(1.57656 2.6506 0)
(2.30418 3.43907 0)
(3.03546 4.29598 0)
(3.84144 5.1916 0)
(4.83747 6.1786 0)
(5.93364 7.1141 0)
(6.98397 8.15667 0)
(8.07502 9.32414 0)
(9.26736 10.5794 0)
(10.5619 11.8943 0)
(11.9117 13.2606 0)
(13.3031 14.6426 0)
(14.7346 16.1173 0)
(0.00964876 0.135382 0)
(0.109381 0.449825 0)
(0.332804 0.807557 0)
(0.681498 1.22751 0)
(1.1456 1.72444 0)
(1.75955 2.35591 0)
(2.49097 2.95074 0)
(3.29224 3.63037 0)
(4.22389 4.4013 0)
(5.17905 5.26848 0)
(6.22024 6.10827 0)
(7.46532 7.05155 0)
(8.79642 8.11209 0)
(10.1562 9.25078 0)
(11.5388 10.441 0)
(12.9292 11.6838 0)
(14.4203 13.0357 0)
(16.0114 14.3708 0)
(0.0109114 0.108077 0)
(0.116758 0.360156 0)
(0.352508 0.657785 0)
(0.724852 1.00989 0)
(1.22673 1.4256 0)
(1.86901 1.91655 0)
(2.64243 2.4362 0)
(3.52072 3.03214 0)
(4.50596 3.70584 0)
(5.5769 4.41457 0)
(6.76639 5.2927 0)
(8.07354 6.21897 0)
(9.42212 7.17691 0)
(10.8123 8.18423 0)
(12.2788 9.262 0)
(13.8581 10.4171 0)
(15.434 11.6779 0)
(16.9885 12.9299 0)
(0.0128581 0.0800752 0)
(0.130308 0.26798 0)
(0.383795 0.498251 0)
(0.777806 0.779355 0)
(1.30421 1.11524 0)
(1.95991 1.51196 0)
(2.73269 1.9529 0)
(3.59264 2.45516 0)
(4.52706 3.02593 0)
(5.51861 3.66112 0)
(6.56649 4.38719 0)
(7.67063 5.14793 0)
(8.80852 5.9677 0)
(9.95402 6.88023 0)
(11.0879 7.87462 0)
(12.2089 8.92559 0)
(13.2783 9.9725 0)
(14.3205 11.126 0)
(0.0138309 0.0543344 0)
(0.120792 0.181878 0)
(0.332811 0.348185 0)
(0.629115 0.568536 0)
(0.977596 0.851628 0)
(1.35335 1.20812 0)
(1.74451 1.63172 0)
(2.11516 2.13046 0)
(2.44909 2.71605 0)
(2.75761 3.38177 0)
(3.04596 4.13674 0)
(3.32849 4.97253 0)
(3.60682 5.89035 0)
(3.87121 6.89432 0)
(4.12492 7.98133 0)
(4.38178 9.14451 0)
(4.65176 10.3648 0)
(4.90762 11.6666 0)
(-0.025591 0.0599898 0)
(-0.0773686 0.187342 0)
(-0.0784508 0.351105 0)
(0.0218041 0.564628 0)
(0.27922 0.833731 0)
(0.765638 1.16262 0)
(1.5312 1.55297 0)
(2.64862 2.00563 0)
(4.19045 2.51891 0)
(6.21631 3.08945 0)
(8.77824 3.72343 0)
(11.9209 4.41799 0)
(15.6727 5.17258 0)
(20.0534 5.99628 0)
(25.0841 6.88908 0)
(30.7856 7.83388 0)
(37.1599 8.81521 0)
(44.2422 9.8273 0)
(0.0580528 0.0394727 0)
(0.452059 0.118315 0)
(1.27733 0.214241 0)
(2.61421 0.332675 0)
(4.51441 0.469878 0)
(7.04591 0.627465 0)
(10.2805 0.808098 0)
(14.2689 1.0124 0)
(19.0414 1.23573 0)
(24.6057 1.47059 0)
(30.9713 1.71423 0)
(38.1452 1.96534 0)
(46.1281 2.22813 0)
(54.9296 2.5088 0)
(64.5554 2.80131 0)
(74.9885 3.0933 0)
(86.1704 3.37857 0)
(98.0693 3.64939 0)
(-9.59281 40.1008 -8.83021e-19)
(-48.7447 47.0807 9.37657e-19)
(-148.298 59.637 0)
(-202.802 78.5052 0)
(-249.943 29.062 0)
(-264.668 -21.5971 1.33002e-18)
(-229.17 -66.1358 0)
(-156.084 -100.136 0)
(-61.3797 -124.652 0)
(50.3857 -141.876 0)
(157.914 -158.355 -1.88633e-18)
(303.108 -164.954 0)
(438.718 -149.12 0)
(553.529 -105.9 0)
(637.723 -31.2186 0)
(672.874 76.3305 -2.06e-18)
(634.384 201.979 0)
(498.3 307.157 0)
(282.913 311.848 0)
(59.1101 199.201 0)
(-153.563 119.913 0)
(-353.626 108.289 0)
(-465.936 5.7414 0)
(-403.218 -132.458 -1.75972e-18)
(-223.087 -194.874 1.79187e-18)
(-1.44491 -127.108 -2.0137e-18)
(222.645 51.8246 -2.10737e-18)
(358.618 154.898 0)
(502.822 0.336212 0)
(751.534 -327.91 2.16966e-18)
(1077.78 -478.551 2.75992e-18)
(1334.19 -419.732 0)
(1506.63 -343.074 0)
(1607.32 -243.889 1.76724e-18)
(1633.93 -138.957 0)
(1598.42 -46.6328 0)
(1517.22 25.1373 -2.19955e-18)
(1404.79 76.464 0)
(1271.94 110.273 -2.19786e-18)
(1126.63 129.866 -4.22999e-18)
(975.588 138.64 0)
(821.892 143.941 0)
(665.468 149.92 0)
(505.073 156.544 0)
(341.3 161.762 0)
(175.521 161.618 -2.70891e-18)
(4.07658 150.476 -2.07e-18)
(-156.218 119.789 -1.84259e-18)
(-282.838 98.4503 0)
(-398.887 84.7969 9.90735e-19)
(-500.307 73.8261 0)
(-591.461 64.9304 -4.53908e-19)
(-670.476 56.395 -2.87706e-19)
(-738.042 48.0943 0)
(-794.153 39.9656 0)
(-839.134 32.1299 0)
(-873.469 24.7447 -1.27822e-19)
(-897.778 17.9086 0)
(-912.641 11.6488 0)
(-918.598 5.6896 0)
(-915.963 0.0111914 0)
(-904.993 -5.42181 0)
(-885.936 -10.5722 0)
(-859.195 -15.3068 0)
(-825.491 -19.425 0)
(-785.934 -22.7001 1.56656e-18)
(-742.005 -24.9516 0)
(-695.411 -26.1237 0)
(-647.859 -26.323 -2.23231e-18)
(-600.872 -25.8004 -2.42308e-18)
(-555.785 -24.9178 0)
(-513.668 -24.0909 2.74419e-18)
(-474.762 -23.5537 -2.87368e-18)
(-439.268 -22.8953 0)
(-407.915 -19.5715 3.04123e-18)
(-365.237 -13.6437 0)
(-340.013 -20.9571 0)
(-329.41 -15.2448 -2.96113e-18)
(-302.399 -12.0723 0)
(-277.326 -13.8696 2.98932e-18)
(-251.222 -17.8181 0)
(-223.494 -19.2084 -2.97995e-18)
(-195.399 -18.5898 -2.96532e-18)
(-167.823 -17.0188 -2.94536e-18)
(-141.511 -15.1667 -5.84218e-18)
(-116.926 -13.3821 5.78669e-18)
(-94.1738 -11.9404 0)
(-73.0412 -11.1986 0)
(-52.3709 -11.1302 0)
(-31.9451 -12.2353 5.52627e-18)
(-9.70149 -15.4736 5.46118e-18)
(18.7408 -17.2482 -5.43818e-18)
(49.3 -20.3141 0)
(85.3803 -26.0929 5.26247e-18)
(127.989 -31.8722 5.13947e-18)
(177.03 -34.5716 5.05196e-18)
(230.487 -31.2493 0)
(282.019 -18.2793 0)
(320.298 2.67018 0)
(333.939 24.0027 4.93938e-18)
(316.618 40.8851 0)
(267.213 53.832 0)
(191.473 59.3093 -4.58061e-18)
(102.178 46.526 0)
(39.5723 33.3772 0)
(13.1963 19.6711 -4.00021e-18)
(6.17907 12.0641 0)
(12.0034 5.11783 0)
(17.8169 -4.11824 3.9731e-18)
(12.0551 -10.7566 3.92072e-18)
(-11.4098 -9.17674 0)
(-49.308 0.895571 -3.74168e-18)
(-94.731 16.6452 0)
(-150.499 35.838 3.52321e-18)
(-241.182 56.1969 0)
(-402.398 65.4015 3.27695e-18)
(-629.203 23.3991 3.1576e-18)
(-795.441 -111.496 0)
(-642.482 -244.759 0)
(-80.7421 -136.731 0)
(290.622 128.47 0)
(253.997 206.874 0)
(198.286 44.7641 0)
(444.382 -121.53 0)
(946.413 -195.967 3.62599e-18)
(1478.58 -232.84 -4.31998e-18)
(1902.46 -231.874 0)
(2187.92 -175.141 0)
(2340.72 -96.0803 0)
(2361.89 -28.5374 0)
(2268.72 27.8855 -2.89733e-17)
(2084.07 71.11 0)
(1819.71 109.756 2.40081e-17)
(1486.21 140.824 -2.10406e-17)
(1092.49 159.39 0)
(655.974 167.309 0)
(174.725 159.37 0)
(-257.456 146.221 4.6394e-18)
(-675.905 136.947 6.35529e-19)
(-1068.28 123.128 0)
(-1417.89 102.9 -6.00589e-18)
(-1706.95 76.3218 -8.1949e-18)
(-1918.84 45.59 9.56212e-18)
(-2051.54 18.1195 0)
(-2117.58 4.18793 0)
(-2090.89 -33.3319 1.57272e-18)
(-1989.19 -40.1818 0)
(-1860.13 -45.6896 0)
(-1714.42 -43.9561 0)
(-1573.77 -36.542 0)
(-1456.26 -27.9667 4.95233e-18)
(-1372 -21.9045 5.43855e-18)
(-1323.05 -17.3981 0)
(-1303.61 -13.0301 5.84347e-18)
(-1303.87 -7.96383 0)
(-1312.45 -28.7147 0)
(-1263.78 -150.743 6.045e-18)
(-849.648 -320.916 0)
(-124.465 -319.571 6.90979e-18)
(563.845 -95.064 0)
(991.93 201.943 0)
(1031.28 398.256 9.47538e-18)
(744.25 392.338 0)
(365.94 157.915 5.98623e-18)
(119.571 -159.616 0)
(34.0936 -265.303 0)
(-2.13504 -104.329 0)
(2.79557 5.49655 -6.5619e-18)
(194.023 -37.006 0)
(622.082 -108.151 1.04875e-17)
(1147.41 -138.48 0)
(1612.47 -129.522 0)
(1940.98 -89.4138 0)
(2091.59 -27.6438 0)
(2040.1 47.6417 0)
(1743.67 103.65 0)
(1220.93 134.473 0)
(581.056 142.098 -3.07272e-17)
(4.84825 103.108 0)
(-330.893 47.2965 0)
(27.6961 89.3306 -1.83976e-18)
(-87.3719 192.628 2.69663e-18)
(-165.023 300.661 0)
(-209.858 233.562 -3.3069e-18)
(-187.453 79.9293 0)
(-131.587 -70.6059 -1.27413e-18)
(-61.5466 -182.649 3.78018e-18)
(13.376 -253.35 3.87989e-18)
(89.3813 -294.178 0)
(162.291 -317.369 3.8795e-18)
(238.889 -329.688 1.87632e-18)
(303.649 -338.177 0)
(387.265 -334.663 0)
(480.119 -300.856 0)
(581.114 -218.353 0)
(679.122 -72.6807 1.91009e-18)
(747.213 134.819 0)
(745.536 360.523 -3.76116e-18)
(636.621 524.743 0)
(480.022 571.67 0)
(315.22 592.756 4.19988e-18)
(-8.82919 593.995 0)
(-11.0574 107.034 -4.01937e-18)
(235.487 -342.09 2.01291e-18)
(625.403 -652.843 -1.94655e-18)
(886.484 -756.038 2.22192e-18)
(1246.37 -692.415 1.97852e-18)
(1626.25 -714.737 0)
(1857.84 -720.735 0)
(1939.8 -649.06 -1.37007e-18)
(1925.31 -501.076 1.56772e-18)
(1831.81 -313.857 0)
(1681.1 -122.896 0)
(1495.91 47.435 -1.62584e-18)
(1293.81 181.918 0)
(1089.67 276.133 0)
(894.168 333.312 2.15092e-18)
(713.722 360.908 0)
(551.481 367.507 -2.03863e-18)
(406.76 361.522 4.33311e-18)
(276.343 350.314 0)
(157.206 339.705 0)
(48.138 332.338 6.61434e-18)
(-49.2157 326.91 6.07766e-18)
(-131.867 319.021 5.57733e-18)
(-206.842 300.788 -2.43518e-18)
(-299.775 274.002 2.11031e-18)
(-387.321 259.161 3.59248e-18)
(-469.147 239.629 -1.46634e-18)
(-556.5 218.167 -9.94263e-19)
(-643.167 194.876 0)
(-721.512 170.952 4.60596e-19)
(-790.379 146.397 -1.72221e-20)
(-847.89 121.902 0)
(-893.831 98.0925 0)
(-928.474 75.493 0)
(-952.48 54.4056 1.34899e-19)
(-966.724 34.9151 0)
(-971.782 16.8637 -4.04047e-19)
(-968.067 -0.0183017 0)
(-956.129 -15.9986 -8.87457e-19)
(-936.088 -31.1476 0)
(-908.168 -45.5039 1.5852e-18)
(-872.802 -58.6547 0)
(-830.869 -69.9986 -2.46527e-18)
(-783.841 -78.8792 1.3983e-18)
(-733.698 -84.7932 0)
(-682.677 -87.5575 3.88639e-18)
(-632.88 -87.305 2.20487e-18)
(-585.93 -84.332 2.3947e-18)
(-542.915 -79.0801 0)
(-504.429 -72.3297 2.66455e-18)
(-470.716 -64.5933 2.84314e-18)
(-441.681 -55.7902 0)
(-416.294 -45.8659 -3.00288e-18)
(-390.378 -36.9128 5.89768e-18)
(-370.755 -48.3124 0)
(-357.252 -45.6946 2.93977e-18)
(-340.003 -43.7603 0)
(-320.056 -42.1556 -8.92208e-18)
(-299.222 -41.6312 0)
(-277.821 -42.0272 8.86341e-18)
(-254.855 -42.0315 2.93991e-18)
(-230.649 -41.035 -2.91404e-18)
(-206.047 -39.0573 -5.77995e-18)
(-181.954 -36.4731 5.72543e-18)
(-159.114 -33.7721 0)
(-137.975 -31.5226 0)
(-119.214 -30.1382 0)
(-102.628 -30.4092 -1.63965e-17)
(-89.0045 -33.4786 -5.40414e-18)
(-81.1814 -37.5977 5.38018e-18)
(-71.5415 -42.2209 0)
(-60.5615 -48.9462 5.10861e-18)
(-49.4475 -56.425 -5.08703e-18)
(-34.8856 -63.6476 -4.99413e-18)
(-15.8337 -67.9923 0)
(7.27491 -64.0507 0)
(32.0776 -46.715 0)
(52.649 -15.4364 -4.82568e-18)
(61.2409 24.0326 0)
(53.4739 60.6201 9.17993e-18)
(31.546 78.9901 1.32036e-17)
(27.5896 70.1605 -8.59727e-18)
(23.8468 48.0332 0)
(19.8945 10.698 -4.16463e-18)
(36.6448 -17.1389 0)
(73.2394 -23.1156 -7.80417e-18)
(114.228 -2.58813 3.83894e-18)
(143.563 35.8101 3.78347e-18)
(150.837 69.089 0)
(133.732 80.2893 1.08828e-17)
(98.1968 77.1336 -7.04894e-18)
(52.1647 88.2124 -3.41532e-18)
(-11.2408 144.538 0)
(-131.025 243.014 -3.19271e-18)
(-352.168 291.59 -9.32259e-18)
(-645.041 118.902 0)
(-852.39 -303.371 -6.62272e-18)
(-751.133 -615.559 -8.55801e-18)
(-102.078 -444.442 -6.99435e-18)
(709.064 -112.944 0)
(1339.31 -159.291 0)
(1915.46 -490.448 0)
(2551.31 -642.783 4.81473e-18)
(2988.18 -534.226 4.11103e-18)
(3093.29 -335.049 0)
(2961.29 -137.823 2.0971e-17)
(2701.55 25.7783 2.87818e-17)
(2387.61 139.101 0)
(2051.32 220.519 2.83629e-17)
(1712.76 280.112 5.29957e-17)
(1378.33 327.502 -2.37478e-17)
(1044.86 368.51 -2.25377e-17)
(709.935 401.635 0)
(369.46 423.33 0)
(28.0609 421.907 0)
(-382.626 415.124 -4.53324e-18)
(-795.941 397.163 6.91224e-19)
(-1191.95 363.076 -6.20568e-18)
(-1549.02 312.282 6.00925e-18)
(-1848.36 246.92 -8.30124e-18)
(-2073.57 171.879 -9.48515e-18)
(-2214 94.0324 0)
(-2301.57 19.6648 0)
(-2287.48 -47.4766 1.79215e-18)
(-2187.79 -92.9198 0)
(-2072.84 -120.286 0)
(-1933.23 -127.232 5.82382e-18)
(-1792.94 -114.939 0)
(-1672.02 -88.7442 4.94973e-18)
(-1584.22 -55.571 -5.39276e-18)
(-1536.34 -23.3697 0)
(-1529.53 1.03233 5.77315e-18)
(-1556.42 11.4042 0)
(-1586.4 -7.093 0)
(-1600.9 -94.7595 -6.01404e-18)
(-1782.59 -263.876 1.12678e-17)
(-1988.78 -439.187 -7.11671e-18)
(-1803.65 -513.735 0)
(-1297.98 -439.225 0)
(-606.592 -270.164 9.11713e-18)
(282.541 -78.5866 0)
(1447.66 143.749 5.32037e-18)
(2375.52 319.563 0)
(2318.18 308.486 0)
(1477.45 167.749 0)
(672.829 -65.8538 6.19306e-18)
(556.055 -294.141 0)
(1163.01 -407.442 -1.03315e-17)
(1894.62 -379.706 0)
(2291.41 -270.394 0)
(2361.84 -145.985 2.92924e-17)
(2225.06 -3.54541 -3.72741e-17)
(1951.1 177.958 0)
(1519.64 294.297 0)
(990.833 374.006 0)
(428.198 346.414 1.04524e-16)
(-156.319 319.034 0)
(-531.885 204.541 -3.2695e-17)
(-7.01124 157.096 -4.99995e-18)
(-158.884 467.972 -1.18923e-17)
(-175.487 406.286 0)
(-101.084 160.894 8.4605e-18)
(4.4566 -90.1168 0)
(101.27 -264.505 0)
(174.125 -357.967 4.92976e-19)
(224.727 -399.165 -4.021e-18)
(263.734 -417.316 -4.13659e-18)
(300.003 -428.43 -4.06608e-18)
(344.74 -438.668 0)
(383.714 -442.394 0)
(420.344 -445.108 2.90568e-18)
(470.495 -431.577 5.16033e-18)
(534.042 -372.616 -4.58459e-18)
(612.402 -233.848 0)
(700.93 10.1037 -4.55052e-18)
(780.1 351.052 3.73022e-18)
(818.697 675.43 0)
(775.452 791.023 -8.93953e-18)
(461.641 1009.43 -4.47524e-18)
(545.207 869.518 7.33429e-18)
(1132.07 -469.757 4.50041e-18)
(1518.43 -1451.88 0)
(1718.89 -1234.94 -6.56864e-18)
(1837.82 -1131.48 -6.28891e-18)
(1904.87 -999.699 0)
(1882.43 -824.507 -6.68768e-18)
(1757.11 -609.852 0)
(1545.64 -373.054 -7.59925e-18)
(1287.95 -135.375 -3.37777e-18)
(1022.16 85.5239 0)
(778.366 271.429 0)
(576.359 407.611 0)
(424.339 492.174 0)
(320.683 532.025 0)
(256.45 538.869 0)
(218.73 525.867 -8.47125e-18)
(193.762 504.509 1.25547e-17)
(169.303 482.738 0)
(136.218 464.759 0)
(88.7892 451.385 0)
(25.5934 441.188 -9.62291e-19)
(-52.3756 431.636 -6.20893e-18)
(-148.915 418.96 -1.03943e-17)
(-255.615 401.731 9.07171e-18)
(-340.501 392.789 2.69851e-18)
(-438.992 392.245 -1.52357e-18)
(-555.719 376.643 4.30536e-19)
(-656.843 349.64 -6.4885e-19)
(-744.701 315.249 0)
(-819.611 275.786 -1.23509e-19)
(-881.588 233.932 3.76192e-19)
(-930.676 191.584 0)
(-967.417 150.397 0)
(-992.792 111.541 -1.41711e-19)
(-1008.09 75.6226 0)
(-1014.63 42.7027 0)
(-1013.5 12.3725 6.83757e-20)
(-1005.27 -15.8146 -7.33849e-19)
(-989.975 -42.5594 8.983e-19)
(-966.903 -68.1594 0)
(-935.07 -92.3046 -1.58347e-18)
(-893.945 -114.071 0)
(-843.46 -131.995 -1.83662e-18)
(-784.677 -144.529 -2.92001e-18)
(-719.926 -150.61 6.30309e-18)
(-652.765 -150.177 3.44126e-18)
(-587.548 -144.339 0)
(-528.638 -134.938 -9.08163e-18)
(-479.351 -123.492 0)
(-440.792 -111.454 -1.59051e-17)
(-411.747 -99.2234 -1.12077e-17)
(-388.809 -86.8381 -1.17275e-17)
(-368.686 -74.3275 1.15561e-17)
(-347.961 -63.2377 -1.74323e-17)
(-329.764 -58.548 0)
(-316.115 -55.0916 0)
(-304.64 -55.4121 1.18074e-17)
(-294.716 -58.8698 1.76968e-17)
(-284.769 -62.7177 0)
(-273.442 -66.0171 -5.87054e-18)
(-259.902 -67.9451 0)
(-243.27 -67.8452 1.7396e-17)
(-223.775 -65.6404 1.33838e-20)
(-202.536 -61.7929 -1.12437e-20)
(-181.015 -57.0738 -1.12793e-17)
(-160.508 -52.2624 0)
(-141.902 -48.0571 1.10144e-17)
(-125.496 -44.6345 2.36114e-20)
(-111.244 -41.4821 0)
(-99.343 -40.1271 0)
(-92.0533 -41.9922 0)
(-89.5755 -48.2278 -1.02893e-17)
(-89.3238 -55.8555 0)
(-93.4988 -63.1657 0)
(-101.662 -67.3699 0)
(-110.958 -63.9068 0)
(-117 -47.8576 0)
(-115.473 -17.3327 -9.46026e-18)
(-104.53 23.6304 0)
(-85.3835 63.9822 -9.07376e-18)
(-61.8001 86.9994 -8.65773e-18)
(-37.3208 82.9946 8.46656e-18)
(-22.0641 50.2369 0)
(-14.8941 10.0322 7.87169e-18)
(-11.7403 -25.5261 0)
(-10.6596 -50.7981 7.67714e-18)
(-3.14909 -58.8672 -7.57086e-18)
(17.8099 -43.7732 -2.23565e-17)
(53.712 -9.76571 0)
(95.9874 31.6653 -2.13234e-17)
(128.929 73.9672 -6.82542e-18)
(146.344 119.976 0)
(151.27 199.703 -1.29755e-17)
(117.333 346.267 -1.2633e-17)
(-16.362 480.852 1.81997e-17)
(-238.34 350.226 0)
(-395.867 -184.898 6.30731e-18)
(-307.888 -800.238 8.35989e-18)
(205.349 -1001.61 1.91943e-17)
(1222.55 -848.722 0)
(2300.12 -856.112 0)
(3001.21 -1009.16 0)
(3244.18 -883.473 1.24792e-17)
(3111.64 -507.946 0)
(2791.77 -151.086 0)
(2464.52 97.5048 -2.11629e-17)
(2190.01 255.397 -2.82434e-17)
(1974.13 350.482 0)
(1789.87 414.284 0)
(1604.94 467.874 -5.26741e-17)
(1391.56 520.168 0)
(1130.95 572.447 4.33306e-17)
(815.573 621.458 3.60755e-17)
(445.61 661.283 0)
(38.5797 685.439 0)
(-392.11 692.968 -9.95762e-18)
(-827.207 669.193 -1.65598e-20)
(-1243.87 614.962 -3.15252e-19)
(-1620.93 531.08 0)
(-1937.58 421.482 3.31298e-17)
(-2175.54 293.578 0)
(-2323.63 156.252 0)
(-2398.32 18.3912 0)
(-2371.87 -67.7978 -3.12127e-18)
(-2263.52 -157.157 0)
(-2123.89 -204.449 -4.34949e-18)
(-1962.75 -215.497 -5.68269e-18)
(-1804.42 -195.498 0)
(-1669.05 -153.132 -9.6918e-18)
(-1572.16 -99.1875 0)
(-1521.53 -43.7616 0)
(-1516.62 3.45899 -3.47112e-17)
(-1550.16 27.9525 2.35252e-17)
(-1615.13 10.482 0)
(-1705.72 -51.7326 2.40254e-17)
(-1812.16 -154.677 -1.09568e-17)
(-1952.22 -296.717 0)
(-2187.13 -434.1 0)
(-2299.34 -509.658 0)
(-2081.18 -556.433 -5.69793e-17)
(-1481.79 -664.695 0)
(-387.037 -748.467 -1.18938e-17)
(1159.27 -533.242 0)
(2638.77 63.4814 0)
(3343.33 629.903 0)
(2814.31 515.25 0)
(1742.13 -213.467 0)
(1489.12 -712.01 0)
(1943.6 -632.245 -5.06892e-17)
(2207.8 -325.653 0)
(2184.61 -98.692 -2.8874e-17)
(2117.93 86.6595 1.14703e-16)
(1983.22 316.274 0)
(1640.82 502.09 0)
(1064.52 634.603 -9.15528e-17)
(398.293 627.281 -7.37579e-17)
(-237.807 557.371 3.53293e-17)
(-703.748 362.145 3.23039e-17)
(-102.988 434.332 2.14359e-17)
(-104.411 531.268 2.06434e-17)
(-1.30484 205.53 1.17654e-17)
(140.694 -147.896 5.6229e-18)
(260.068 -364.164 0)
(329.159 -446.055 -9.76339e-18)
(356.793 -456.042 4.61989e-18)
(366.71 -451.457 0)
(378.472 -459.339 4.42321e-18)
(397.736 -478.631 0)
(426.554 -502.97 -7.87121e-18)
(437.507 -527.01 0)
(459.409 -537.661 -3.02406e-18)
(502.636 -526.949 -5.32958e-18)
(560.757 -477.495 4.70118e-18)
(632.909 -351.484 0)
(719.515 -121.136 4.64268e-18)
(798.277 188.876 0)
(807.811 603.908 0)
(646.26 1259.49 9.16203e-18)
(765.075 1060.75 0)
(1746 -864.547 1.14724e-18)
(2074.9 -1437.15 0)
(2052.37 -1420.61 0)
(1953.67 -1211.52 -1.39489e-18)
(1796.31 -992.63 6.03942e-18)
(1565.93 -721.03 8.0776e-18)
(1284.05 -419.377 6.9145e-18)
(982.968 -128.92 0)
(696.333 122.58 1.71587e-17)
(452.788 320.302 0)
(270.97 458.764 9.28185e-18)
(157.858 537.945 0)
(107.83 566.661 0)
(105.311 560.614 -9.02889e-18)
(130.193 537.347 0)
(162.311 512.184 8.56241e-18)
(185.071 495.631 3.25941e-19)
(187.225 492.545 -1.59767e-17)
(163.029 502.865 1.45682e-17)
(111.574 523.161 0)
(35.6785 548.467 0)
(-60.6483 574.04 4.02118e-18)
(-174.221 595.265 0)
(-294.705 609.715 4.90119e-18)
(-395.917 618.326 -3.6782e-18)
(-492.08 605.527 -2.76435e-18)
(-593.728 567.972 0)
(-680.792 526.121 1.07365e-18)
(-753.194 477.101 6.74396e-19)
(-810.154 421.614 4.82678e-19)
(-852.103 361.688 1.18774e-19)
(-880.459 300.003 -5.44911e-20)
(-897.241 239.208 0)
(-904.954 181.588 0)
(-906.346 128.767 1.87021e-19)
(-904.136 81.4749 0)
(-900.638 39.447 0)
(-897.306 1.51387 2.80891e-19)
(-894.345 -34.073 6.78943e-19)
(-890.598 -69.1217 0)
(-883.784 -104.924 0)
(-871.075 -141.368 0)
(-849.807 -177.086 0)
(-818.134 -209.391 4.26474e-18)
(-775.268 -234.75 -4.43544e-18)
(-721.379 -249.508 -6.25166e-18)
(-657.357 -250.83 -1.38411e-17)
(-585.09 -237.815 0)
(-508.978 -212.668 4.88294e-19)
(-435.875 -180.473 0)
(-374.501 -147.755 1.05222e-17)
(-332.607 -121.68 4.11629e-20)
(-311.713 -104.494 1.17441e-17)
(-305.77 -94.0371 -1.17109e-17)
(-304.924 -87.0345 -9.16439e-20)
(-301.725 -81.5775 0)
(-292.051 -74.8748 -1.16647e-17)
(-276.373 -68.5319 -1.16698e-17)
(-258.938 -65.141 -2.33161e-17)
(-243.966 -66.0402 0)
(-233.29 -70.1769 1.16017e-17)
(-226.034 -75.8312 0)
(-219.627 -80.7954 -2.30141e-17)
(-211.307 -83.1864 1.14374e-17)
(-199.531 -82.1625 -1.13415e-17)
(-184.484 -78.0934 1.12315e-17)
(-167.594 -72.1508 2.21946e-17)
(-150.665 -65.7237 -1.09766e-17)
(-135.185 -59.9475 1.08328e-17)
(-121.879 -55.5833 0)
(-110.838 -53.239 -2.09495e-17)
(-102.337 -52.7395 0)
(-96.4902 -52.8209 -2.03559e-17)
(-94.4597 -53.9547 2.02018e-17)
(-96.5233 -55.0282 1.99634e-17)
(-102.467 -54.0227 -1.97324e-17)
(-111.621 -48.6026 -1.9449e-17)
(-121.023 -36.5067 0)
(-125.837 -16.9195 -9.37301e-18)
(-121.019 7.78965 0)
(-103.797 31.0429 0)
(-75.9344 43.9416 -1.75545e-17)
(-44.4866 41.3148 0)
(-19.8407 22.768 0)
(-7.98152 -0.986145 -1.62478e-17)
(-7.59046 -24.097 0)
(-15.3281 -38.029 0)
(-24.1479 -37.1764 0)
(-28.0122 -22.8201 2.9529e-17)
(-27.5041 -0.227911 0)
(-23.7873 24.229 2.82549e-17)
(-19.5228 45.0791 1.37044e-17)
(-7.214 69.2368 1.30744e-17)
(35.6117 144.562 3.10165e-19)
(83.8848 341.105 1.25806e-17)
(50.9054 570.928 -2.39335e-17)
(-42.0861 465.439 -1.17228e-17)
(-7.08875 -224.254 0)
(311.829 -1135.5 -5.15943e-18)
(999.035 -1645.27 -2.20331e-17)
(2033.73 -1643.92 0)
(2955.91 -1479.21 0)
(3235.66 -1215.63 0)
(2969.71 -739.679 5.22748e-18)
(2556.42 -242.128 0)
(2248.63 86.1666 0)
(2083.42 267.785 0)
(2007.8 367.286 0)
(1951.53 437.223 1.0786e-16)
(1861.52 508.655 0)
(1710.67 591.81 -1.05154e-16)
(1491.67 684.141 0)
(1206.64 778.32 -8.90212e-17)