/*--------------------------------*- C++ -*----------------------------------*\
| =========                 |                                                 |
| \\      /  F ield         | OpenFOAM: The Open Source CFD Toolbox           |
|  \\    /   O peration     | Version:  2112                                  |
|   \\  /    A nd           | Website:  www.openfoam.com                      |
|    \\/     M anipulation  |                                                 |
\*---------------------------------------------------------------------------*/
FoamFile
{
    version     2.0;
    format      ascii;
    arch        "LSB;label=32;scalar=64";
    class       surfaceScalarField;
    location    "0.54";
    object      ddtCorrDdt0(phi);
}
// * * * * * * * * * * * * * * * * * * * * * * * * * * * * * * * * * * * * * //

dimensions      [0 3 -2 0 0 0 0];

oriented        oriented;

internalField   nonuniform List<scalar> 
24170
(
-1.47925e-07
1.47911e-07
-5.33734e-07
3.85781e-07
-1.24952e-06
7.15754e-07
-2.41071e-06
1.16117e-06
-4.14943e-06
1.73869e-06
-6.61369e-06
2.46424e-06
-9.95755e-06
3.34383e-06
-1.43004e-05
4.34283e-06
-1.96681e-05
5.3677e-06
-2.59117e-05
6.24356e-06
-3.26335e-05
6.72172e-06
-3.91604e-05
6.52689e-06
-4.45924e-05
5.43196e-06
-4.7944e-05
3.35165e-06
-4.84264e-05
4.82367e-07
-4.55315e-05
-2.89491e-06
-3.72988e-05
-8.23273e-06
-1.72648e-05
-2.00341e-05
3.71265e-08
1.10769e-07
2.86367e-08
3.94243e-07
-6.87376e-08
8.13098e-07
-3.49405e-07
1.44181e-06
-9.54584e-07
2.34384e-06
-2.06835e-06
3.57798e-06
-3.93048e-06
5.20594e-06
-6.83116e-06
7.24348e-06
-1.10864e-05
9.6229e-06
-1.69831e-05
1.21402e-05
-2.46859e-05
1.44246e-05
-3.41305e-05
1.59714e-05
-4.49312e-05
1.62326e-05
-5.63708e-05
1.47913e-05
-6.73853e-05
1.14968e-05
-7.68757e-05
6.59549e-06
-8.45512e-05
-5.57225e-07
-4.28223e-06
-9.75338e-05
-3.22758e-08
1.43026e-07
-1.13411e-07
4.75349e-07
-2.13503e-07
9.13161e-07
-2.98172e-07
1.52645e-06
-3.34386e-07
2.38003e-06
-3.05813e-07
3.54938e-06
-2.19661e-07
5.11976e-06
-1.37404e-07
7.1612e-06
-2.13065e-07
9.69854e-06
-7.16163e-07
1.26433e-05
-2.04465e-06
1.5753e-05
-4.69206e-06
1.86188e-05
-9.15489e-06
2.06954e-05
-1.57936e-05
2.143e-05
-2.46904e-05
2.03935e-05
-3.56996e-05
1.76047e-05
-4.91997e-05
1.29429e-05
1.03381e-05
-6.38201e-05
-4.29746e-08
1.85982e-07
-1.66839e-07
5.99183e-07
-3.68298e-07
1.11459e-06
-6.32457e-07
1.79058e-06
-9.27354e-07
2.6749e-06
-1.19519e-06
3.81719e-06
-1.34774e-06
5.27228e-06
-1.25898e-06
7.07241e-06
-7.74612e-07
9.21415e-06
2.33809e-07
1.16349e-05
1.79955e-06
1.41873e-05
3.77761e-06
1.66407e-05
5.77728e-06
1.86957e-05
7.17055e-06
2.00368e-05
7.16375e-06
2.04003e-05
5.01599e-06
1.97524e-05
-8.75801e-08
1.80464e-05
1.65727e-05
-6.32212e-06
-4.2119e-08
2.2808e-07
-1.66844e-07
7.23879e-07
-3.75252e-07
1.32297e-06
-6.64528e-07
2.07982e-06
-1.0242e-06
3.03455e-06
-1.42996e-06
4.22292e-06
-1.83519e-06
5.67749e-06
-2.16554e-06
7.40273e-06
-2.31031e-06
9.3589e-06
-2.12397e-06
1.14485e-05
-1.44328e-06
1.35065e-05
-1.21897e-07
1.53193e-05
1.91003e-06
1.66638e-05
4.58299e-06
1.73638e-05
7.62835e-06
1.73549e-05
1.06569e-05
1.67238e-05
1.30766e-05
1.56267e-05
1.44028e-05
1.52465e-05
-4.11788e-08
2.69238e-07
-1.6395e-07
8.4662e-07
-3.67575e-07
1.52656e-06
-6.47989e-07
2.36021e-06
-9.94407e-07
3.38094e-06
-1.38532e-06
4.61381e-06
-1.78382e-06
6.07597e-06
-2.13882e-06
7.7577e-06
-2.38642e-06
9.60647e-06
-2.45511e-06
1.15172e-05
-2.27703e-06
1.33284e-05
-1.79703e-06
1.48393e-05
-9.78554e-07
1.58453e-05
1.97677e-07
1.61875e-05
1.74206e-06
1.58105e-05
3.67677e-06
1.47891e-05
6.04484e-06
1.32586e-05
1.14285e-05
9.01906e-06
-3.99674e-08
3.09184e-07
-1.59552e-07
9.66174e-07
-3.56962e-07
1.72394e-06
-6.26237e-07
2.62946e-06
-9.54175e-07
3.70885e-06
-1.31687e-06
4.97648e-06
-1.67688e-06
6.43595e-06
-1.98525e-06
8.06604e-06
-2.18612e-06
9.80732e-06
-2.22608e-06
1.15571e-05
-2.06908e-06
1.31714e-05
-1.71052e-06
1.44807e-05
-1.18338e-06
1.53181e-05
-5.50013e-07
1.55541e-05
1.28476e-07
1.5132e-05
8.31134e-07
1.40864e-05
1.62703e-06
1.24627e-05
1.03249e-05
2.7306e-06
-3.82741e-08
3.47437e-07
-1.53147e-07
1.08102e-06
-3.42277e-07
1.91304e-06
-5.98325e-07
2.88548e-06
-9.06492e-07
4.01699e-06
-1.24172e-06
5.31168e-06
-1.56714e-06
6.76135e-06
-1.8366e-06
8.33548e-06
-2.00017e-06
9.97087e-06
-2.01293e-06
1.15699e-05
-1.84772e-06
1.30062e-05
-1.50728e-06
1.41402e-05
-1.03109e-06
1.48419e-05
-4.91949e-07
1.5015e-05
1.95512e-08
1.46205e-05
4.32064e-07
1.36739e-05
6.97753e-07
1.2197e-05
1.01706e-05
8.52035e-07
-3.61069e-08
3.83522e-07
-1.44748e-07
1.18963e-06
-3.23168e-07
2.09143e-06
-5.62954e-07
3.12523e-06
-8.48351e-07
4.30236e-06
-1.1543e-06
5.6176e-06
-1.44596e-06
7.05298e-06
-1.68185e-06
8.57135e-06
-1.81972e-06
1.01087e-05
-1.82466e-06
1.15748e-05
-1.6793e-06
1.28608e-05
-1.39257e-06
1.38535e-05
-1.00384e-06
1.44531e-05
-5.7926e-07
1.45904e-05
-2.03589e-07
1.42448e-05
4.28852e-08
1.34274e-05
7.31503e-08
1.21667e-05
1.04477e-05
-2.04032e-07
-3.34522e-08
4.16952e-07
-1.3435e-07
1.2905e-06
-2.99656e-07
2.25671e-06
-5.20286e-07
3.34584e-06
-7.80112e-07
4.56216e-06
-1.05489e-06
5.89235e-06
-1.31274e-06
7.31081e-06
-1.51772e-06
8.77631e-06
-1.63578e-06
1.02267e-05
-1.64206e-06
1.1581e-05
-1.52908e-06
1.27478e-05
-1.31297e-06
1.36374e-05
-1.03566e-06
1.41758e-05
-7.61209e-07
1.43159e-05
-5.66325e-07
1.40499e-05
-5.34095e-07
1.33951e-05
-7.58118e-07
1.23907e-05
1.10473e-05
-1.35771e-06
-3.03195e-08
4.47249e-07
-1.22014e-07
1.38216e-06
-2.71958e-07
2.40662e-06
-4.70832e-07
3.54468e-06
-7.02751e-07
4.79405e-06
-9.4506e-07
6.13464e-06
-1.16957e-06
7.5353e-06
-1.34639e-06
8.9531e-06
-1.44951e-06
1.03298e-05
-1.46335e-06
1.15948e-05
-1.38896e-06
1.26734e-05
-1.24847e-06
1.34969e-05
-1.08595e-06
1.40133e-05
-9.64289e-07
1.41942e-05
-9.57211e-07
1.40428e-05
-1.14686e-06
1.35847e-05
-1.62395e-06
1.28678e-05
1.19243e-05
-2.50099e-06
-2.29767e-08
4.70203e-07
-9.23588e-08
1.45151e-06
-2.05696e-07
2.51993e-06
-3.55252e-07
3.69421e-06
-5.28248e-07
4.96702e-06
-7.07283e-07
6.31365e-06
-8.71799e-07
7.69979e-06
-1.00133e-06
9.08261e-06
-1.07989e-06
1.04084e-05
-1.10061e-06
1.16155e-05
-1.06983e-06
1.26426e-05
-1.00963e-06
1.34367e-05
-9.57809e-07
1.39614e-05
-9.65502e-07
1.42019e-05
-1.09164e-06
1.41689e-05
-1.40057e-06
1.38937e-05
-1.96221e-06
1.34294e-05
1.28176e-05
-2.85551e-06
-2.29859e-08
4.93168e-07
-9.23582e-08
1.52086e-06
-2.05497e-07
2.63304e-06
-3.54001e-07
3.84269e-06
-5.2446e-07
5.13746e-06
-6.99414e-07
6.48858e-06
-8.59378e-07
7.85974e-06
-9.86428e-07
9.20965e-06
-1.06865e-06
1.04906e-05
-1.10448e-06
1.16514e-05
-1.10617e-06
1.26442e-05
-1.10141e-06
1.34319e-05
-1.1327e-06
1.39927e-05
-1.25451e-06
1.43237e-05
-1.52831e-06
1.44427e-05
-2.01959e-06
1.43849e-05
-2.79497e-06
1.42047e-05
1.39461e-05
-3.92356e-06
-2.13885e-08
5.14535e-07
-8.59345e-08
1.58538e-06
-1.91083e-07
2.73817e-06
-3.28283e-07
3.97987e-06
-4.84399e-07
5.29355e-06
-6.43273e-07
6.64744e-06
-7.88198e-07
8.00465e-06
-9.05638e-07
9.32707e-06
-9.89407e-07
1.05743e-05
-1.04438e-06
1.17063e-05
-1.08897e-06
1.26888e-05
-1.15582e-06
1.34987e-05
-1.29032e-06
1.41272e-05
-1.54737e-06
1.45807e-05
-1.98652e-06
1.48818e-05
-2.66745e-06
1.50658e-05
-3.64446e-06
1.51817e-05
1.52696e-05
-4.96797e-06
-1.75827e-08
5.32095e-07
-7.07829e-08
1.63856e-06
-1.57315e-07
2.82468e-06
-2.69241e-07
4.09177e-06
-3.94947e-07
5.41924e-06
-5.21235e-07
6.77371e-06
-6.36013e-07
8.1194e-06
-7.31793e-07
9.42283e-06
-8.09213e-07
1.06517e-05
-8.79751e-07
1.17768e-05
-9.67059e-07
1.27761e-05
-1.10654e-06
1.36382e-05
-1.34306e-06
1.43637e-05
-1.72734e-06
1.4965e-05
-2.31067e-06
1.54651e-05
-3.1405e-06
1.58956e-05
-4.25435e-06
1.62956e-05
1.66948e-05
-5.67961e-06
-1.09938e-08
5.43066e-07
-4.43662e-08
1.6719e-06
-9.82403e-08
2.87853e-06
-1.66117e-07
4.15963e-06
-2.39214e-07
5.49231e-06
-3.08867e-07
6.84334e-06
-3.69036e-07
8.17955e-06
-4.19157e-07
9.47293e-06
-4.66658e-07
1.06992e-05
-5.28447e-07
1.18386e-05
-6.31008e-07
1.28786e-05
-8.08982e-07
1.38161e-05
-1.10233e-06
1.4657e-05
-1.55249e-06
1.54151e-05
-2.19789e-06
1.61105e-05
-3.06919e-06
1.67669e-05
-4.18531e-06
1.74116e-05
1.8064e-05
-5.55451e-06
-9.4661e-10
5.43988e-07
-3.19808e-09
1.67413e-06
-5.07616e-09
2.88038e-06
-1.91809e-09
4.15644e-06
1.13093e-08
5.47906e-06
3.77469e-08
6.81688e-06
7.69421e-08
8.14033e-06
1.23021e-07
9.42682e-06
1.63279e-07
1.06589e-05
1.77946e-07
1.18239e-05
1.41236e-07
1.29153e-05
2.33553e-08
1.3934e-05
-2.06631e-07
1.4887e-05
-5.77443e-07
1.57859e-05
-1.11197e-06
1.6645e-05
-1.82454e-06
1.74795e-05
-2.71648e-06
1.83036e-05
1.91306e-05
-3.78311e-06
1.3915e-08
5.30044e-07
5.85348e-08
1.62948e-06
1.36231e-07
2.80265e-06
2.50905e-07
4.04174e-06
4.04375e-07
5.32556e-06
5.94733e-07
6.62649e-06
8.16081e-07
7.91895e-06
1.05805e-06
9.18481e-06
1.30523e-06
1.04117e-05
1.53782e-06
1.15913e-05
1.73342e-06
1.27197e-05
1.86937e-06
1.3798e-05
1.92543e-06
1.48309e-05
1.88596e-06
1.58254e-05
1.74173e-06
1.67892e-05
1.491e-06
1.77301e-05
1.14161e-06
1.86529e-05
1.95657e-05
7.06484e-07
4.12969e-08
4.88709e-07
1.64436e-07
1.5063e-06
3.74413e-07
2.59263e-06
6.76157e-07
3.73995e-06
1.06791e-06
4.93376e-06
1.54418e-06
6.15016e-06
2.09795e-06
7.36513e-06
2.71761e-06
8.56511e-06
3.38616e-06
9.7431e-06
4.0864e-06
1.0891e-05
4.80199e-06
1.2004e-05
5.51746e-06
1.30825e-05
6.22035e-06
1.4128e-05
6.90282e-06
1.51428e-05
7.56271e-06
1.61293e-05
8.20443e-06
1.70884e-05
8.83963e-06
1.80177e-05
1.89228e-05
9.48244e-06
4.69758e-08
4.41695e-07
1.82126e-07
1.3711e-06
4.14536e-07
2.36017e-06
7.49317e-07
3.40512e-06
1.18515e-06
4.49789e-06
1.71428e-06
5.62098e-06
2.33533e-06
6.74403e-06
3.04364e-06
7.85675e-06
3.82383e-06
8.96286e-06
4.66262e-06
1.00521e-05
5.5486e-06
1.1118e-05
6.47367e-06
1.21573e-05
7.43458e-06
1.3167e-05
8.43029e-06
1.41471e-05
9.46142e-06
1.50981e-05
1.05296e-05
1.60202e-05
1.16378e-05
1.69094e-05
1.77696e-05
1.2791e-05
6.0702e-08
3.80955e-07
2.01093e-07
1.23067e-06
4.68647e-07
2.09258e-06
8.46464e-07
3.02725e-06
1.32757e-06
4.01673e-06
1.90251e-06
5.04599e-06
2.58894e-06
6.05756e-06
3.37274e-06
7.0729e-06
4.24209e-06
8.09347e-06
5.1932e-06
9.10098e-06
6.21252e-06
1.00987e-05
7.29205e-06
1.10778e-05
8.43299e-06
1.2026e-05
9.6265e-06
1.29535e-05
1.08652e-05
1.38594e-05
1.2152e-05
1.47333e-05
1.34944e-05
1.5567e-05
1.63674e-05
1.48966e-05
9.19773e-08
2.88943e-07
2.30372e-07
1.09223e-06
5.0982e-07
1.81309e-06
8.98959e-07
2.63807e-06
1.39349e-06
3.52215e-06
1.94911e-06
4.49033e-06
2.701e-06
5.30562e-06
3.52721e-06
6.24664e-06
4.43494e-06
7.1857e-06
5.43243e-06
8.10344e-06
6.50038e-06
9.03066e-06
7.62848e-06
9.94965e-06
8.81405e-06
1.08404e-05
1.00645e-05
1.1703e-05
1.13854e-05
1.25385e-05
1.2768e-05
1.33506e-05
1.42039e-05
1.41312e-05
1.48789e-05
1.56923e-05
1.59199e-08
2.72991e-07
1.949e-07
9.13217e-07
4.57866e-07
1.55008e-06
8.61137e-07
2.23476e-06
1.43146e-06
2.95178e-06
1.84399e-06
4.07776e-06
2.61979e-06
4.52977e-06
3.43137e-06
5.43502e-06
4.35264e-06
6.26439e-06
5.35848e-06
7.09757e-06
6.37143e-06
8.01767e-06
7.52747e-06
8.79357e-06
8.76297e-06
9.60488e-06
1.00363e-05
1.04297e-05
1.13433e-05
1.12315e-05
1.2698e-05
1.19958e-05
1.41139e-05
1.27153e-05
1.3411e-05
1.55818e-05
3.89421e-08
2.34021e-07
1.99393e-07
7.52731e-07
4.48562e-07
1.30087e-06
7.88403e-07
1.89488e-06
1.19176e-06
2.54839e-06
1.952e-06
3.31748e-06
2.55706e-06
3.92468e-06
3.32271e-06
4.66933e-06
4.17594e-06
5.41112e-06
5.27717e-06
5.99631e-06
6.19523e-06
7.09957e-06
7.27933e-06
7.70943e-06
8.39486e-06
8.48931e-06
9.58897e-06
9.23555e-06
1.08597e-05
9.96071e-06
1.21787e-05
1.06768e-05
1.35569e-05
1.13371e-05
1.20268e-05
1.4941e-05
4.31298e-08
1.90865e-07
1.89184e-07
6.06645e-07
4.31926e-07
1.0581e-06
7.71353e-07
1.55542e-06
1.21514e-06
2.10457e-06
1.81065e-06
2.72193e-06
2.42784e-06
3.30745e-06
3.16393e-06
3.93321e-06
3.98584e-06
4.58917e-06
4.73864e-06
5.24348e-06
5.81207e-06
6.02609e-06
6.84232e-06
6.67915e-06
7.96539e-06
7.36621e-06
9.12728e-06
8.07362e-06
1.03091e-05
8.77885e-06
1.14738e-05
9.51204e-06
1.28283e-05
9.98252e-06
1.07235e-05
1.41316e-05
4.12587e-08
1.49583e-07
1.73606e-07
4.74268e-07
3.9887e-07
8.32799e-07
7.17829e-07
1.23642e-06
1.13322e-06
1.68914e-06
1.66095e-06
2.19417e-06
2.26072e-06
2.70765e-06
2.94282e-06
3.25108e-06
3.69825e-06
3.83371e-06
4.51203e-06
4.42967e-06
5.45573e-06
5.08236e-06
6.40861e-06
5.72624e-06
7.40642e-06
6.36837e-06
8.45943e-06
7.02059e-06
9.5651e-06
7.67316e-06
1.07589e-05
8.31822e-06
1.18459e-05
8.89543e-06
9.52702e-06
1.30424e-05
4.15918e-08
1.0797e-07
1.65645e-07
3.50186e-07
3.73902e-07
6.24512e-07
6.66113e-07
9.44178e-07
1.04195e-06
1.31327e-06
1.50134e-06
1.73476e-06
2.02034e-06
2.18862e-06
2.59068e-06
2.68071e-06
3.20641e-06
3.21795e-06
3.85259e-06
3.78346e-06
4.5443e-06
4.39062e-06
5.25663e-06
5.01388e-06
5.98126e-06
5.64371e-06
6.70869e-06
6.29314e-06
7.42659e-06
6.95523e-06
8.13104e-06
7.61375e-06
8.78547e-06
8.24096e-06
8.87368e-06
9.43877e-06
3.36311e-08
7.43132e-08
1.27246e-07
2.56537e-07
2.69736e-07
4.81987e-07
4.47126e-07
7.66751e-07
6.47165e-07
1.1132e-06
8.61815e-07
1.52008e-06
1.07243e-06
1.97798e-06
1.26655e-06
2.48656e-06
1.4452e-06
3.03926e-06
1.60893e-06
3.6197e-06
1.7695e-06
4.23002e-06
1.92586e-06
4.8575e-06
2.0742e-06
5.49535e-06
2.21765e-06
6.14966e-06
2.36019e-06
6.81266e-06
2.50803e-06
7.46587e-06
2.65275e-06
8.0962e-06
8.70677e-06
2.81962e-06
-2.94751e-08
1.03758e-07
-3.72642e-08
2.64289e-07
-1.21334e-08
4.56817e-07
7.37179e-08
6.80859e-07
2.53554e-07
9.33326e-07
5.58102e-07
1.21549e-06
1.01469e-06
1.52135e-06
1.6578e-06
1.84341e-06
2.52141e-06
2.17561e-06
3.63102e-06
2.51006e-06
5.01173e-06
2.84927e-06
6.67973e-06
3.18947e-06
8.6451e-06
3.52995e-06
1.09197e-05
3.87508e-06
1.35135e-05
4.21876e-06
1.64325e-05
4.54683e-06
1.96796e-05
4.84912e-06
5.11343e-06
2.32729e-05
1.03755e-07
3.68041e-07
8.24854e-07
1.50571e-06
2.43903e-06
3.65452e-06
5.17587e-06
7.01927e-06
9.19488e-06
1.17049e-05
1.45542e-05
1.77437e-05
2.12736e-05
2.51487e-05
2.93674e-05
3.39143e-05
3.87634e-05
4.38768e-05
-3.60804e-05
3.60803e-05
-0.000100608
6.45272e-05
-0.000191219
9.06116e-05
-0.000278348
8.71285e-05
-0.000310006
3.16586e-05
-0.000286501
-2.35059e-05
-0.000218529
-6.79722e-05
-0.00012074
-9.77886e-05
-4.04823e-06
-0.000116692
0.000124802
-0.00012885
0.000261557
-0.000136755
0.000417836
-0.000156279
0.000556138
-0.000138302
0.000667225
-0.000111087
0.000731317
-6.40918e-05
0.000725963
5.35329e-06
0.000629732
9.62318e-05
0.000442588
0.000187143
0.00019588
0.000246709
-5.08562e-05
0.000246736
-0.000253649
0.000202793
-0.00047504
0.00022139
-0.000509802
3.47618e-05
-0.000360528
-0.000149274
-0.000111543
-0.000248985
0.000143107
-0.000254651
0.000311903
-0.000168795
0.00047842
-0.000166517
0.000706978
-0.000228559
0.00102021
-0.000313231
0.00133064
-0.00031043
0.00156646
-0.00023582
0.00172166
-0.000155204
0.00179323
-7.15636e-05
0.00178969
3.5413e-06
0.00172624
6.345e-05
0.00161945
0.000106788
0.00148389
0.000135555
0.00132946
0.00015443
0.00116472
0.000164738
0.000995617
0.000169106
0.000823742
0.000171875
0.000648135
0.000175607
0.000467987
0.000180148
0.000284649
0.000183338
0.00010078
0.00018387
-8.481e-05
0.00018559
-0.000239381
0.000154571
-0.000373574
0.000134193
-0.000494079
0.000120505
-0.000600014
0.000105935
-0.000692894
9.28792e-05
-0.000772912
8.0018e-05
-0.00084023
6.73186e-05
-0.000895086
5.48559e-05
-0.000937927
4.28408e-05
-0.000969364
3.14366e-05
-0.000990097
2.07326e-05
-0.0010008
1.07078e-05
-0.00100196
1.15206e-06
-0.000993892
-8.065e-06
-0.000976924
-1.69674e-05
-0.000951396
-2.55284e-05
-0.000917909
-3.3487e-05
-0.000877443
-4.04662e-05
-0.000831399
-4.6044e-05
-0.000781519
-4.98801e-05
-0.000729686
-5.18327e-05
-0.000677704
-5.1982e-05
-0.000627146
-5.05589e-05
-0.000579232
-4.79132e-05
-0.000534619
-4.46133e-05
-0.000493664
-4.09555e-05
-0.000457125
-3.65392e-05
-0.000427482
-2.96425e-05
-0.00040758
-1.99021e-05
-0.000370596
-3.69844e-05
-0.00033972
-3.08762e-05
-0.000311858
-2.7862e-05
-0.000284208
-2.76501e-05
-0.000255042
-2.91661e-05
-0.000224892
-3.01508e-05
-0.000194834
-3.00582e-05
-0.000165788
-2.90459e-05
-0.000138393
-2.73948e-05
-0.000112956
-2.54375e-05
-8.93879e-05
-2.35681e-05
-6.70555e-05
-2.23323e-05
-4.50528e-05
-2.20026e-05
-2.15609e-05
-2.34917e-05
4.61248e-06
-2.61732e-05
3.61223e-05
-3.15098e-05
7.18174e-05
-3.56953e-05
0.000113512
-4.16944e-05
0.000162063
-4.85514e-05
0.000215881
-5.38189e-05
0.000270568
-5.46873e-05
0.000317087
-4.65198e-05
0.000343947
-2.6861e-05
0.000342331
1.61512e-06
0.0003085
3.38302e-05
0.000244518
6.39812e-05
0.00016468
7.98371e-05
6.98601e-05
9.48195e-05
2.73984e-05
4.24609e-05
8.42435e-06
1.89733e-05
7.53325e-06
8.90378e-07
1.43171e-05
-6.78455e-06
1.58431e-05
-1.52654e-06
1.44257e-06
1.44e-05
-3.0692e-05
3.21342e-05
-7.5926e-05
4.52335e-05
-0.000129705
5.37791e-05
-0.000203462
7.37558e-05
-0.000327285
0.000123823
-0.000525636
0.000198351
-0.000740558
0.000214922
-0.000757762
1.72041e-05
-0.000389889
-0.000367873
0.00011384
-0.00050373
0.000316152
-0.000202312
0.000241885
7.42665e-05
0.000308921
-6.70365e-05
0.000702475
-0.000393554
0.00123894
-0.000536468
0.00172854
-0.000489594
0.00209978
-0.000371241
0.0023322
-0.000232424
0.00240554
-7.33384e-05
0.00236441
4.11258e-05
0.00222263
0.000141782
0.00199263
0.000230004
0.00168659
0.000306036
0.00131519
0.000371397
0.000891788
0.000423406
0.000432436
0.000459353
-3.22544e-05
0.000464691
-0.000463306
0.000431052
-0.000873002
0.000409697
-0.00124796
0.000374954
-0.00157085
0.000322891
-0.00182513
0.000254283
-0.00199891
0.000173782
-0.00209107
9.21556e-05
-0.00212663
3.5564e-05
-0.0020386
-8.80279e-05
-0.00192288
-0.000115719
-0.00178095
-0.000141938
-0.00163376
-0.00014719
-0.00150195
-0.000131807
-0.00139929
-0.000102661
-0.00133121
-6.80818e-05
-0.00129568
-3.55234e-05
-0.00128492
-1.07661e-05
-0.00128793
3.01094e-06
-0.00125891
-2.90206e-05
-0.00102998
-0.000228931
-0.00048994
-0.000540035
0.000198087
-0.000688027
0.00074324
-0.000545153
0.000987534
-0.000244295
0.000895903
9.16313e-05
0.000566858
0.000329045
0.000217191
0.000349667
5.92853e-05
0.000157905
3.07313e-05
2.8554e-05
2.17842e-05
8.94719e-06
8.39043e-05
-6.21202e-05
0.000369391
-0.000285487
0.000836735
-0.000467344
0.00131282
-0.000476089
0.00169404
-0.000381217
0.00195178
-0.00025774
0.00204166
-8.98772e-05
0.00184018
0.000201477
0.00143406
0.000406118
0.000898767
0.000535298
0.000284237
0.000614529
-0.000162886
0.000447123
0.000267601
-0.000430487
-3.11442e-05
6.72244e-05
-0.000113625
0.000147008
-0.000213798
0.000190784
-0.000228611
0.000101941
-0.000187656
-9.29685e-06
-0.000113374
-9.77875e-05
-2.77125e-05
-0.000153634
5.90807e-05
-0.000184582
0.000143792
-0.000201403
0.000225644
-0.000210702
0.000302035
-0.000213146
0.000399127
-0.000253372
0.000489826
-0.000229
0.000594989
-0.00021625
0.000703351
-0.000172454
0.000791391
-8.26865e-05
0.000827606
6.00168e-05
0.000774993
0.000239756
0.000634809
0.000386892
0.00045626
0.000425285
0.000188309
0.000470743
-5.2834e-05
0.000462534
9.29141e-05
-0.000110986
0.000529509
-0.000585869
0.000844514
-0.000563989
0.00119788
-0.000608017
0.00158526
-0.000556172
0.00192192
-0.00050318
0.00212994
-0.000436581
0.00216461
-0.000347896
0.00208656
-0.000232386
0.00194837
-9.76312e-05
0.00176053
3.26341e-05
0.00154498
0.000143988
0.00132022
0.000228306
0.00109964
0.000284024
0.000892027
0.000314405
0.000701948
0.000325635
0.000531746
0.000324632
0.000379335
0.000317149
0.000240942
0.000307499
0.000114652
0.000298164
4.56124e-07
0.000289803
-0.000101319
0.000281922
-0.000190162
0.000272181
-0.000259048
0.000252755
-0.000392016
0.000318558
-0.000471147
0.000233702
-0.000564091
0.000227137
-0.000658642
0.000215055
-0.000749103
0.000196396
-0.000829913
0.000173689
-0.000898875
0.00014898
-0.000955104
0.000123547
-0.00099866
9.84119e-05
-0.00103013
7.43072e-05
-0.00105034
5.16478e-05
-0.00106012
3.05171e-05
-0.00106011
1.06946e-05
-0.00105087
-8.09091e-06
-0.00103274
-2.61919e-05
-0.00100597
-4.37353e-05
-0.000970916
-6.05837e-05
-0.000928263
-7.61406e-05
-0.000879268
-8.94611e-05
-0.000825789
-9.95231e-05
-0.000770121
-0.000105548
-0.000714656
-0.000107297
-0.00066147
-0.000105168
-0.000612016
-0.000100014
-0.000567232
-9.26967e-05
-0.000527561
-8.42846e-05
-0.000493104
-7.54132e-05
-0.000463509
-6.61339e-05
-0.000436715
-5.64365e-05
-0.000407059
-4.95588e-05
-0.000393679
-5.03644e-05
-0.000375792
-4.87632e-05
-0.000355178
-4.84762e-05
-0.000332942
-4.98866e-05
-0.000310095
-5.2013e-05
-0.000286008
-5.42373e-05
-0.000260461
-5.56058e-05
-0.000234071
-5.54364e-05
-0.000207782
-5.36837e-05
-0.000182471
-5.07483e-05
-0.000158791
-4.72483e-05
-0.000137292
-4.3831e-05
-0.000118261
-4.10338e-05
-0.000102613
-3.9139e-05
-9.04265e-05
-3.83598e-05
-8.14352e-05
-4.05012e-05
-6.94438e-05
-4.76868e-05
-5.84692e-05
-5.26694e-05
-4.45269e-05
-6.24941e-05
-2.68653e-05
-7.14811e-05
-5.1122e-06
-7.6441e-05
1.96152e-05
-7.12479e-05
4.3419e-05
-5.06655e-05
5.91346e-05
-1.41013e-05
6.06131e-05
3.2351e-05
4.89006e-05
7.56929e-05
3.0737e-05
9.79999e-05
3.00826e-05
9.5473e-05
2.21192e-05
5.04235e-05
2.82295e-05
1.28622e-05
5.65269e-05
-2.74077e-05
9.72581e-05
-4.75164e-05
0.000134
-3.82693e-05
0.00015402
-5.62026e-06
0.000149662
3.64915e-05
0.000121084
7.38114e-05
7.65735e-05
9.82892e-05
1.957e-05
0.000130759
-6.89904e-05
0.000212383
-0.000238172
0.000367533
-0.000512845
0.000489594
-0.000796859
0.000301218
-0.000848273
-0.000316459
-0.000422314
-0.000929689
0.000343742
-0.000968367
0.00105312
-0.000635109
0.0016593
-0.000673219
0.00229276
-0.00102702
0.00283706
-0.00108076
0.00310956
-0.000762094
0.00310232
-0.000364004
0.00289466
-2.4762e-05
0.00260523
0.000216088
0.00226882
0.000377541
0.00192164
0.000488962
0.00157684
0.000574799
0.00123635
0.000646525
0.000897003
0.000710748
0.000554676
0.000765733
0.000211024
0.000803005
-0.000173538
0.000849253
-0.000586667
0.000844181
-0.0009959
0.00081893
-0.00137633
0.000755386
-0.00170774
0.000654298
-0.00197326
0.000519808
-0.00216035
0.000360867
-0.00225726
0.000189071
-0.00222936
7.66531e-06
-0.0022263
-9.10953e-05
-0.00212959
-0.000212428
-0.00199598
-0.000275548
-0.00185177
-0.000291396
-0.00171805
-0.000265529
-0.00161131
-0.000209406
-0.0015417
-0.000137692
-0.00151292
-6.43014e-05
-0.00152089
-2.7998e-06
-0.0015442
2.63279e-05
-0.00156388
-9.34193e-06
-0.00166093
-0.000131883
-0.00184563
-0.000355339
-0.00186512
-0.00066853
-0.00153421
-0.000876063
-0.000934186
-0.000844323
-0.000129764
-0.00071279
0.000870643
-0.000671362
0.00183125
-0.000610945
0.00223643
-0.000247274
0.00186304
0.000401947
0.00106981
0.000802183
0.00057939
0.000428295
0.000803398
-0.000509494
0.00145545
-0.00111939
0.00199535
-0.001016
0.00221398
-0.000599847
0.00219041
-0.000234163
0.00199054
0.000109995
0.00163821
0.000553806
0.0012174
0.000826926
0.000721022
0.00103167
0.000130834
0.00120472
-0.000334334
0.000912291
0.000598793
-0.000665526
-8.33896e-05
0.000150614
-0.000194958
0.000258576
-0.000161499
0.000157325
-5.79842e-05
-1.57341e-06
5.82945e-05
-0.000125576
0.00015491
-0.000194403
0.000224588
-0.000223312
0.00027475
-0.000234744
0.00031711
-0.000243763
0.000361367
-0.00025496
0.000417613
-0.000269393
0.000445435
-0.000281193
0.00050317
-0.000286736
0.000567801
-0.000280881
0.00064681
-0.000251463
0.000738059
-0.000173935
0.000827085
-2.901e-05
0.000893521
0.00017332
0.00088835
0.000392063
0.000691878
0.000621757
0.000523752
0.000638869
0.00097897
7.31621e-06
0.00146664
-0.000598653
0.00179391
-0.000913142
0.00200966
-0.00077974
0.00209114
-0.000689501
0.00210382
-0.000568852
0.00201992
-0.000419276
0.00183706
-0.000253717
0.00157807
-8.89132e-05
0.00128466
6.10311e-05
0.00100043
0.000186599
0.000752177
0.000280883
0.000555327
0.000340838
0.000413382
0.000370251
0.000320267
0.000377139
0.000263729
0.000370943
0.000228844
0.00036052
0.000201319
0.000352156
0.00016933
0.000349138
0.000124834
0.000351995
6.38514e-05
0.000359147
-1.45422e-05
0.000368197
-0.000109407
0.000376788
-0.000217803
0.000380577
-0.000345273
0.000380224
-0.000412969
0.000386254
-0.000548426
0.000369159
-0.000667689
0.000346401
-0.000770743
0.000318109
-0.000859473
0.000285126
-0.000934095
0.000248311
-0.000994481
0.000209367
-0.00104093
0.000169997
-0.00107429
0.000131766
-0.00109581
9.5833e-05
-0.00110696
6.27969e-05
-0.00110908
3.26399e-05
-0.00110316
4.76713e-06
-0.00108954
-2.17077e-05
-0.0010679
-4.78331e-05
-0.00103735
-7.42833e-05
-0.000997075
-0.00010086
-0.000946684
-0.000126531
-0.000886699
-0.000149446
-0.000818924
-0.000167299
-0.000746555
-0.000177917
-0.00067394
-0.000179913
-0.000605872
-0.000173237
-0.000546492
-0.000159394
-0.000498223
-0.000140966
-0.00046117
-0.000121338
-0.000432615
-0.000103968
-0.000408627
-9.01221e-05
-0.000385378
-7.96854e-05
-0.000364125
-7.08128e-05
-0.00034814
-6.63487e-05
-0.000334429
-6.2475e-05
-0.00032259
-6.03153e-05
-0.000311602
-6.08749e-05
-0.000299936
-6.36794e-05
-0.000286365
-6.78077e-05
-0.000269927
-7.20446e-05
-0.000250335
-7.50279e-05
-0.000228301
-7.5718e-05
-0.000205211
-7.38381e-05
-0.000182558
-6.99019e-05
-0.000161509
-6.48797e-05
-0.000142685
-5.9858e-05
-0.000126203
-5.56202e-05
-0.000112094
-5.24689e-05
-0.000101495
-5.11006e-05
-9.69845e-05
-5.21974e-05
-9.47429e-05
-5.49113e-05
-9.69158e-05
-6.03218e-05
-0.000103549
-6.4848e-05
-0.000112909
-6.70822e-05
-0.000121168
-6.299e-05
-0.000123536
-4.82977e-05
-0.000116605
-2.10331e-05
-9.98898e-05
1.5635e-05
-7.63084e-05
5.21106e-05
-5.25708e-05
7.42614e-05
-2.85033e-05
7.14047e-05
-2.02575e-05
4.21769e-05
-1.45361e-05
7.13995e-06
-1.28638e-05
-2.90807e-05
-8.01507e-06
-5.23658e-05
7.37345e-06
-5.36584e-05
3.76439e-05
-3.58912e-05
7.92776e-05
-5.14262e-06
0.000117665
3.54241e-05
0.000141969
7.39846e-05
0.0001521
0.000120628
0.000141136
0.000223346
6.35441e-05
0.000445125
-0.000125889
0.000679027
-0.00034817
0.000523499
-0.000383075
-0.000281555
-2.97095e-05
-0.00128305
0.000772853
-0.00177093
0.00180576
-0.00166802
0.00270727
-0.00157472
0.00320583
-0.00152559
0.00325873
-0.00113366
0.00302528
-0.00052865
0.00269133
-3.00489e-05
0.00238272
0.000283849
0.00213023
0.000468578
0.00192286
0.000584906
0.00173199
0.000679831
0.00152762
0.000779172
0.00128578
0.000888366
0.000993684
0.00100284
0.000647852
0.00111157
0.000251134
0.00119972
-0.000169068
0.00126946
-0.000608453
0.00128357
-0.00103825
0.00124873
-0.00143874
0.00115588
-0.00178859
0.00100415
-0.00206858
0.000799798
-0.00226384
0.000556128
-0.00236601
0.000291242
-0.00238227
2.39273e-05
-0.00231354
-0.000159822
-0.0021918
-0.000334173
-0.00203598
-0.000431365
-0.00187215
-0.000455227
-0.00172227
-0.000415405
-0.00160394
-0.000327734
-0.00152841
-0.000213227
-0.0014989
-9.3813e-05
-0.00151109
9.39589e-06
-0.0015569
7.21379e-05
-0.00162999
6.37457e-05
-0.00172389
-3.79877e-05
-0.00184623
-0.000232994
-0.002036
-0.000478761
-0.00220099
-0.000711073
-0.00213423
-0.000911076
-0.00171766
-0.00112936
-0.000894038
-0.00149499
0.000361992
-0.00186697
0.00182132
-0.0017066
0.00290397
-0.00068071
0.00299052
0.000715639
0.00219125
0.00122756
0.00153082
0.000150942
0.00163615
-0.00122472
0.00198414
-0.00136399
0.00208896
-0.000704663
0.00203665
-0.00018186
0.00193534
0.000211305
0.00175371
0.00073544
0.00131199
0.00126864
0.00070768
0.00163598
9.92846e-05
0.00181311
-0.000449622
0.0014612
0.000949457
-0.000800286
-0.000113234
0.000263848
-7.43896e-05
0.000219732
7.54597e-05
7.47601e-06
0.000229473
-0.000155587
0.000334168
-0.00023027
0.000386319
-0.000246555
0.000406322
-0.000243315
0.000418615
-0.000247037
0.000436868
-0.000262016
0.000462459
-0.000280551
0.000482886
-0.00028982
0.000503818
-0.000302125
0.000542523
-0.000325441
0.000600578
-0.000338936
0.000677051
-0.000327936
0.000771282
-0.000268167
0.000861179
-0.000118906
0.000886813
0.000147686
0.000773216
0.00050566
0.00081786
0.000577112
0.00138571
7.10172e-05
0.00210084
-0.000707817
0.00235257
-0.000850375
0.00222991
-0.000790491
0.00209166
-0.000641485
0.00187409
-0.000471931
0.00158766
-0.000282418
0.00126172
-9.33445e-05
0.00093451
7.3498e-05
0.000640075
0.000205522
0.000403554
0.000297552
0.000239154
0.000350999
0.000148031
0.000372006
0.000118333
0.000370536
0.000130294
0.00035829
0.00016164
0.000345793
0.000191952
0.00034063
0.000205804
0.000346669
0.000193789
0.000364171
0.000152225
0.000390703
8.19497e-05
0.00042227
-1.33343e-05
0.000454431
-0.000127889
0.000482751
-0.000254388
0.000503287
-0.000391843
0.000518032
-0.000479507
0.000467888
-0.000597888
0.000504636
-0.00070117
0.00047244
-0.000788694
0.000433925
-0.00085949
0.000388905
-0.000913376
0.000339011
-0.000951482
0.000286418
-0.000975689
0.000233573
-0.0009885
0.000182809
-0.000992807
0.000136073
-0.000991616
9.46415e-05
-0.000987692
5.88727e-05
-0.000983119
2.80668e-05
-0.000978874
5.22427e-07
-0.000974468
-2.61136e-05
-0.000968079
-5.4223e-05
-0.000956945
-8.54171e-05
-0.000938049
-0.000119756
-0.000908877
-0.000155703
-0.000867914
-0.00019041
-0.000814754
-0.000220458
-0.000749994
-0.000242677
-0.000675296
-0.000254611
-0.000594082
-0.00025445
-0.000512438
-0.000241039
-0.000438902
-0.000214501
-0.000382361
-0.00017788
-0.000347666
-0.000138663
-0.000332647
-0.000105141
-0.000329522
-8.28105e-05
-0.000326779
-7.35566e-05
-0.000319911
-7.32166e-05
-0.000306194
-7.6192e-05
-0.000288145
-7.83647e-05
-0.000270495
-7.85249e-05
-0.000256444
-7.77303e-05
-0.000246581
-7.76708e-05
-0.000239053
-7.95734e-05
-0.000230965
-8.31155e-05
-0.000220004
-8.66791e-05
-0.000205455
-8.83877e-05
-0.000188197
-8.716e-05
-0.00016996
-8.31162e-05
-0.000152508
-7.73098e-05
-0.000137046
-7.10825e-05
-0.00012395
-6.55645e-05
-0.000113359
-6.16918e-05
-0.000105739
-5.9817e-05
-0.000101257
-5.93937e-05
-0.000101454
-6.01253e-05
-0.000105504
-6.07991e-05
-0.000113584
-5.90021e-05
-0.0001234
-5.31756e-05
-0.000130837
-4.08612e-05
-0.000130608
-2.12628e-05
-0.000118594
3.62062e-06
-9.43611e-05
2.78764e-05
-6.28098e-05
4.27093e-05
-3.2774e-05
4.13681e-05
-1.51325e-05
2.45346e-05
-8.45762e-06
4.64327e-07
-1.22495e-05
-2.52896e-05
-2.12451e-05
-4.33708e-05
-2.73832e-05
-4.75209e-05
-2.83624e-05
-3.49125e-05
-2.71528e-05
-6.35266e-06
-2.21347e-05
3.04057e-05
-1.41266e-05
6.59761e-05
1.36739e-05
9.28269e-05
6.26832e-05
0.000174337
7.72439e-05
0.000430564
7.32846e-06
0.000748942