/*--------------------------------*- C++ -*----------------------------------*\
| =========                 |                                                 |
| \\      /  F ield         | OpenFOAM: The Open Source CFD Toolbox           |
|  \\    /   O peration     | Version:  2112                                  |
|   \\  /    A nd           | Website:  www.openfoam.com                      |
|    \\/     M anipulation  |                                                 |
\*---------------------------------------------------------------------------*/
FoamFile
{
    version     2.0;
    format      ascii;
    arch        "LSB;label=32;scalar=64";
    class       volScalarField;
    location    "0.54";
    object      k;
}
// * * * * * * * * * * * * * * * * * * * * * * * * * * * * * * * * * * * * * //

dimensions      [0 2 -2 0 0 0 0];

internalField   nonuniform List<scalar> 
12225
(
1.24918
1.83434
2.19017
2.42738
2.56903
2.64347
2.67566
2.67414
2.64086
2.57504
2.47505
2.33972
2.16954
1.96757
1.7403
1.49734
1.24522
1.07486
0.408439
0.462322
0.517624
0.573393
0.628784
0.685131
0.745443
0.812649
0.889027
0.976111
1.07493
1.18589
1.30872
1.44244
1.58532
1.73458
1.88779
2.04276
0.375808
0.382401
0.391766
0.401587
0.407434
0.41001
0.411117
0.413106
0.41849
0.429771
0.449406
0.47981
0.523364
0.582442
0.659415
0.756572
0.876182
1.02132
0.373118
0.371569
0.371028
0.371852
0.373921
0.376484
0.379116
0.381316
0.382246
0.381844
0.380582
0.379511
0.380259
0.384932
0.395977
0.416032
0.447849
0.494879
0.373062
0.371139
0.369324
0.36768
0.36627
0.365126
0.364255
0.363642
0.363215
0.362869
0.362487
0.361963
0.361267
0.360512
0.360071
0.360633
0.36338
0.369849
0.373033
0.371087
0.3692
0.367403
0.36571
0.364129
0.362672
0.361346
0.360142
0.359027
0.357942
0.356803
0.35553
0.354087
0.352511
0.350926
0.349562
0.348766
0.373012
0.371063
0.369176
0.367373
0.365664
0.364049
0.362538
0.361146
0.359885
0.358768
0.357794
0.356946
0.356177
0.355405
0.354524
0.353422
0.352033
0.350325
0.372999
0.371052
0.369171
0.367374
0.36567
0.36406
0.362552
0.361157
0.35989
0.358767
0.357803
0.357013
0.356405
0.355978
0.355714
0.355564
0.355378
0.355072
0.372989
0.371045
0.369172
0.367384
0.365689
0.364089
0.36259
0.361204
0.359942
0.358819
0.357852
0.357058
0.356454
0.356058
0.355891
0.355938
0.35609
0.356319
0.372982
0.371041
0.369176
0.367397
0.365711
0.364121
0.362633
0.361257
0.360003
0.358887
0.357922
0.357127
0.356517
0.356115
0.355944
0.356008
0.356205
0.356528
0.372977
0.371037
0.369179
0.367409
0.365732
0.364152
0.362674
0.361307
0.360062
0.358951
0.357989
0.357192
0.356577
0.356164
0.355978
0.356033
0.356223
0.356542
0.372972
0.371034
0.369181
0.367418
0.365748
0.364176
0.362707
0.361348
0.360109
0.359002
0.358041
0.357241
0.356618
0.356191
0.355984
0.35602
0.356194
0.356493
0.372969
0.371029
0.36918
0.367423
0.36576
0.364195
0.362733
0.361381
0.360148
0.359045
0.358084
0.35728
0.356647
0.356204
0.355971
0.355971
0.356125
0.356397
0.372964
0.371024
0.369178
0.367425
0.365768
0.364211
0.362757
0.361412
0.360185
0.359085
0.358123
0.357313
0.356667
0.356202
0.355936
0.355887
0.35602
0.356263
0.37296
0.371017
0.369172
0.367424
0.365773
0.364223
0.362777
0.36144
0.360219
0.359123
0.358161
0.357343
0.356682
0.356191
0.355884
0.355777
0.355887
0.35611
0.372954
0.371008
0.369163
0.367417
0.365772
0.364229
0.362791
0.361463
0.36025
0.359158
0.358196
0.357372
0.356695
0.356175
0.355823
0.355649
0.355668
0.355873
0.372947
0.370996
0.369148
0.367403
0.365763
0.364227
0.362798
0.361479
0.360274
0.359189
0.358227
0.357396
0.356702
0.356151
0.35575
0.355504
0.355423
0.355501
0.372938
0.370979
0.369127
0.367383
0.365747
0.364219
0.3628
0.361493
0.360299
0.359221
0.358262
0.357426
0.356715
0.356132
0.355681
0.355361
0.355179
0.355125
0.372926
0.370958
0.369101
0.367358
0.365727
0.364208
0.362801
0.361507
0.360326
0.359257
0.358303
0.357462
0.356735
0.356121
0.355619
0.355229
0.354949
0.354772
0.372915
0.370941
0.369082
0.367342
0.365718
0.36421
0.362816
0.361535
0.360366
0.359308
0.358358
0.357515
0.356777
0.35614
0.355602
0.35516
0.35481
0.354545
0.372909
0.370932
0.369076
0.367343
0.365729
0.364233
0.362853
0.361586
0.360429
0.35938
0.358435
0.357591
0.356844
0.356191
0.355626
0.355147
0.354748
0.354422
0.372907
0.370931
0.369082
0.367359
0.365757
0.364275
0.362911
0.36166
0.36052
0.359486
0.358554
0.357718
0.356975
0.356319
0.355744
0.355247
0.35482
0.354459
0.372908
0.370939
0.369102
0.367391
0.365803
0.364335
0.362983
0.361743
0.36061
0.35958
0.358648
0.35781
0.357059
0.356391
0.3558
0.355279
0.354825
0.35443
0.372914
0.370955
0.369132
0.367438
0.36587
0.364428
0.363105
0.361895
0.360792
0.35979
0.358883
0.358066
0.357332
0.356674
0.356087
0.355565
0.355103
0.354693
0.372925
0.370983
0.36917
0.367477
0.365903
0.36445
0.363115
0.361894
0.360779
0.359767
0.358852
0.358025
0.357281
0.356614
0.356015
0.35548
0.355002
0.354575
0.372945
0.371041
0.369293
0.367679
0.366195
0.36484
0.363609
0.362496
0.361499
0.36061
0.359822
0.359127
0.358515
0.357978
0.357508
0.357098
0.356741
0.356429
0.372972
0.371073
0.3694
0.368016
0.366995
0.366392
0.366216
0.366425
0.36696
0.367611
0.368318
0.369043
0.369755
0.370434
0.371066
0.37164
0.372151
0.3726
0.37353
0.374896
0.377838
0.381782
0.386225
0.390632
0.394558
0.396728
0.397282
0.39647
0.394576
0.39188
0.388635
0.385059
0.381337
0.377625
0.374049
0.370753
0.387126
0.411265
0.438785
0.467408
0.495461
0.521444
0.545466
0.568166
0.590202
0.612129
0.634358
0.657176
0.680774
0.70527
0.730742
0.757249
0.784862
0.81367
0.989985
1.45578
1.77705
2.01446
2.19849
2.32129
2.41339
2.49008
2.55911
2.62455
2.68855
2.75236
2.81668
2.88189
2.94818
3.0156
3.08388
3.15322
2.2628
2.56925
3.22804
4.35887
5.3967
5.60961
5.65866
5.68797
5.74345
5.85653
6.05635
6.32688
6.56328
6.7513
6.85185
6.69336
6.01109
4.63999
2.77583
1.53531
1.53999
1.9962
2.42811
2.58811
2.58628
2.33945
1.95243
1.69606
1.8014
2.58394
4.37377
7.12171
9.41247
11.3978
13.1473
14.6158
15.7777
16.6292
17.1825
17.4594
17.485
17.2877
16.9789
16.5982
16.1588
15.6709
15.1418
14.5752
13.9727
13.3853
12.8164
12.2605
11.7146
11.1767
10.6459
10.1217
9.60454
9.09513
8.5948
8.10527
7.62847
7.16645
6.72118
6.29446
5.88789
5.50281
5.14047
4.80214
4.48933
4.20414
3.94963
3.73057
3.55451
3.43375
3.38922
3.4609
3.73812
4.14952
4.66525
5.19636
5.75756
6.35428
6.98154
7.63078
8.29175
8.95376
9.60678
10.2413
10.8448
11.3959
11.8439
12.0609
11.9788
11.5712
10.854
9.8276
8.50407
6.96324
5.39625
4.06183
3.14362
2.65306
2.48118
2.49484
2.57009
2.61654
2.62595
2.61601
2.60474
2.60757
2.63592
2.69354
2.77802
2.88481
3.02205
3.2153
3.50657
3.94051
4.51457
5.07296
5.34046
5.33667
5.1375
4.78573
4.34951
3.99063
3.99768
4.44653
5.16861
5.87261
6.42245
6.7681
6.86207
6.70432
6.4295
6.07554
5.67063
5.24263
4.84295
4.48991
4.19814
3.9848
3.87369
3.89791
4.21079
4.91311
5.92946
7.24216
8.81665
10.5876
12.4825
14.4455
16.5721
18.9863
21.8254
25.2859
29.5328
34.0332
37.2207
38.443
37.0171
32.6261
26.0844
19.3266
13.8702
10.0465
7.64407
6.23287
5.33892
4.6199
3.96017
3.40974
3.04345
2.88412
2.93507
3.01121
3.00548
2.91441
2.81254
2.83114
2.17577
2.64895
5.56574
5.93252
5.61168
5.16213
4.71852
4.30887
3.94546
3.63769
3.39115
3.23525
3.23329
3.36995
3.60472
3.85586
3.98988
3.86606
3.46255
2.96891
2.45344
2.31547
2.72374
2.82977
2.98766
4.27191
6.19213
7.41613
7.91931
8.21234
8.46862
8.67127
8.67846
8.50371
8.1654
7.68507
7.09226
6.42186
5.71071
4.99487
4.30818
3.67995
3.13359
2.68102
2.32727
2.0717
1.90905
1.83134
1.83717
1.85611
1.87873
1.90414
1.93156
1.96038
1.99003
2.01991
2.04933
2.07745
2.10371
2.12983
2.15547
2.18039
2.20451
2.2275
2.24915
2.26931
2.28797
2.30543
2.32217
2.33886
2.35624
2.37447
2.39318
2.4117
2.42903
2.44435
2.4552
2.46283
2.46686
2.46693
2.46081
2.44862
2.43654
2.42832
2.42701
2.43517
2.45507
2.48891
2.53929
2.60996
2.71384
2.91618
3.21354
3.55159
3.882
4.15673
4.32999
4.37435
4.30163
4.16712
4.04338
3.9847
4.00419
4.05999
4.07763
4.02756
3.90972
3.72344
3.47162
3.16909
2.84245
2.51874
2.21694
1.95044
1.73354
1.58209
1.50312
1.47894
1.4757
1.50542
1.65147
1.86828
2.23363
2.78983
3.38091
3.78559
3.9291
3.87726
3.72109
3.49465
3.2282
2.95373
2.70247
2.50036
2.36042
2.28356
2.26423
2.29138
2.32267
2.34856
2.36452
2.36689
2.35389
2.32638
2.28842
2.24722
2.21363
2.18722
2.1708
2.16879
2.18374
2.21754
2.27265
2.35357
2.47268
2.6725
3.09654
4.19834
6.87854
10.3421
13.4661
15.9626
17.9157
19.22
18.992
16.3107
11.9214
7.86834
5.27033
3.93017
3.30885
3.01387
2.85079
2.74688
2.67968
2.65323
2.67659
2.73646
2.79896
2.87324
2.18896
7.69627
7.76291
6.51838
5.37334
4.52376
3.8937
3.4088
3.02997
2.73759
2.51989
2.36627
2.29576
2.31688
2.43568
2.63332
2.85364
3.02016
3.08297
3.03953
3.08788
3.66188
5.28778
7.38148
7.66226
7.51847
7.50201
7.31926
6.98947
6.60565
6.19361
5.73773
5.22372
4.66845
4.09421
3.52726
2.99505
2.52189
2.12504
1.81239
1.58245
1.42612
1.32972
1.27806
1.25724
1.2561
1.26674
1.28563
1.3078
1.33277
1.36036
1.39045
1.42294
1.4577
1.49462
1.53349
1.574
1.61567
1.65774
1.69913
1.73826
1.77342
1.80661
1.83669
1.8626
1.88354
1.89923
1.91004
1.91713
1.9225
1.92946
1.94045
1.95565
1.97421
1.99406
2.01301
2.02786
2.04074
2.05098
2.05753
2.05913
2.05138
2.03464
2.01318
1.99017
1.9683
1.94988
1.93676
1.93035
1.93169
1.94175
1.96165
1.99521
2.06082
2.16441
2.29793
2.44663
2.58694
2.69538
2.75962
2.78184
2.77236
2.74209
2.70169
2.66414
2.6436
2.63356
2.62856
2.62104
2.6011
2.55567
2.46827
2.32871
2.13982
1.92292
1.721
1.5828
1.52094
1.4991
1.49258
1.58536
1.93894
2.58224
3.28526
3.68205
3.64308
3.35034
3.04184
2.76518
2.53736
2.36983
2.26414
2.21367
2.20634
2.22835
2.26752
2.31456
2.36263
2.40622
2.43971
2.45693
2.45202
2.42067
2.36099
2.28009
2.1945
2.11702
2.0454
1.98195
1.93014
1.89414
1.87466
1.87119
1.88255
1.9078
1.94803
2.00989
2.1121
2.31367
2.83689
3.95815
5.44894
7.17677
9.26697
11.6792
13.645
13.8046
11.524
8.1453
5.49256
4.02589
3.33032
2.97643
2.73649
2.53142
2.37505
2.30849
2.31254
2.33109
2.35697
8.93581
9.76329
7.39147
5.59733
4.48216
3.73678
3.17789
2.73765
2.39023
2.1202
1.91907
1.78585
1.73643
1.76559
1.8767
2.07312
2.34323
2.65919
3.06004
3.8709
5.71293
8.60059
8.81535
7.89508
7.11868
6.49751
5.95945
5.42724
4.90289
4.39431
3.89775
3.40929
2.9352
2.49163
2.09569
1.76121
1.49527
1.29695
1.15858
1.06853
1.01431
0.98477
0.971373
0.968325
0.972174
0.981068
0.994056
1.01082
1.03015
1.05206
1.0766
1.10384
1.1339
1.16693
1.20311
1.24264
1.28567
1.33229
1.38242
1.43572
1.49148
1.54841
1.60464
1.65763
1.7044
1.74193
1.76777
1.78053
1.78022
1.76811
1.75022
1.73592
1.7293
1.73237
1.7428
1.756
1.77005
1.78388
1.79665
1.80792
1.81689
1.81981
1.81752
1.81039
1.79907
1.78483
1.76952
1.75528
1.7442
1.73809
1.73828
1.74566
1.76077
1.78402
1.81761
1.866
1.92638
1.99346
2.05897
2.1129
2.14747
2.16014
2.15423
2.1369
2.11531
2.09352
2.0729
2.04994
2.02134
1.98397
1.93628
1.88007
1.8161
1.74413
1.66768
1.60262
1.57334
1.58892
1.63511
1.71521
1.934
2.40906
3.05801
3.49922
3.47089
3.13192
2.79473
2.54253
2.3643
2.25235
2.19464
2.17787
2.19022
2.22251
2.26824
2.3227
2.38193
2.44306
2.50262
2.55358
2.58769
2.59619
2.57143
2.50941
2.41232
2.29521
2.18471
2.08161
1.99215
1.92104
1.8706
1.84125
1.83207
1.84138
1.86744
1.90916
1.96597
2.03667
2.11802
2.20645
2.32374
2.61372
3.29295
4.49257
6.30803
8.61714
10.8471
11.8025
10.4424
7.67317
5.33434
3.96758
3.22676
2.78004
2.46126
2.23756
2.13529
2.11318
2.09176
2.02967
16.1112
9.63126
6.20176
4.69516
3.85241
3.2335
2.74254
2.35022
2.03243
1.76985
1.55917
1.43156
1.42292
1.50547
1.65942
1.88921
2.24173
2.88819
4.22067
6.39442
8.38842
8.56813
7.44015
6.33722
5.48924
4.81529
4.24278
3.72817
3.2562
2.8193
2.41542
2.04896
1.72866
1.46249
1.25344
1.09877
0.991114
0.920623
0.877227
0.852234
0.839114
0.833558
0.833083
0.836479
0.843297
0.853484
0.867146
0.882284
0.898593
0.915941
0.934265
0.953624
0.974242
0.99653
1.02109
1.04872
1.08034
1.11691
1.15934
1.20829
1.26393
1.32569
1.39193
1.45972
1.52493
1.5827
1.62837
1.65837
1.67095
1.66651
1.64771
1.62019
1.59307
1.57617
1.57064
1.57552
1.58738
1.60185
1.61531
1.62601
1.63395
1.63991
1.64452
1.64776
1.64903
1.64765
1.64347
1.63711
1.62994
1.62376
1.62044
1.62174
1.62902
1.6432
1.66461
1.69314
1.72972
1.77263
1.81699
1.85888
1.89472
1.92239
1.94191
1.95493
1.96341
1.96835
1.9693
1.96444
1.95137
1.92812
1.8937
1.84858
1.79522
1.73956
1.69338
1.67369
1.6925
1.75169
1.85667
2.03428
2.34963
2.80888
3.23913
3.32289
3.04519
2.69569
2.45503
2.29497
2.19371
2.13521
2.10867
2.10733
2.12677
2.16384
2.21594
2.2803
2.3534
2.43267
2.51568
2.59489
2.66057
2.701
2.70361
2.65766
2.5584
2.41722
2.27616
2.14274
2.0252
1.93054
1.8619
1.81957
1.8021
1.80713
1.83202
1.87428
1.9316
2.0012
2.07794
2.15278
2.21645
2.27729
2.42586
2.87855
3.85164
5.45907
7.63005
9.85193
10.7683
9.37869
6.90737
4.94854
3.74282
3.0098
2.56033
2.29941
2.21032
2.20097
2.17066
2.06381
19.8668
8.11287
5.17481
4.23931
3.6008
3.06743
2.63473
2.27573
1.96953
1.70087
1.52175
1.48157
1.53487
1.66932
1.90146
2.31257
3.05078
4.28988
5.99196
7.44052
7.61671
6.69748
5.56984
4.66902
3.98
3.42788
2.95991
2.54776
2.18067
1.85638
1.57707
1.34593
1.16418
1.02939
0.935679
0.8751
0.839206
0.820364
0.812525
0.81147
0.814644
0.820787
0.829508
0.840886
0.855127
0.872293
0.890481
0.907365
0.922198
0.934337
0.943372
0.949237
0.952286
0.953356
0.953781
0.955381
0.960384
0.971264
0.990505
1.02031
1.06227
1.11703
1.18381
1.25986
1.34022
1.41799
1.48576
1.53753
1.57033
1.58458
1.58138
1.5603
1.5255
1.48916
1.46051
1.44486
1.44389
1.45477
1.47192
1.48941
1.50319
1.51209
1.51741
1.52125
1.52506
1.52904
1.53253
1.53472
1.53523
1.53444
1.53332
1.53332
1.53596
1.54263
1.55439
1.57168
1.59428
1.6217
1.65364
1.68718
1.71926
1.74826
1.77353
1.79528
1.81411
1.83051
1.84435
1.8547
1.86005
1.85873
1.84957
1.83216
1.80719
1.78079
1.76651
1.7813
1.83456
1.93599
2.11144
2.37895
2.68684
2.99066
3.13836
2.98558
2.66625
2.41196
2.25004
2.13804
2.05846
2.00458
1.97454
1.96741
1.98207
2.01719
2.07121
2.14205
2.22679
2.32245
2.42848
2.53832
2.64247
2.72793
2.77832
2.77533
2.70286
2.5581
2.39065
2.22626
2.07685
1.95394
1.86285
1.80424
1.77605
1.77484
1.79674
1.83776
1.89386
1.96059
2.03253
2.10288
2.16512
2.21752
2.27816
2.43879
2.88629
3.8414
5.44879
7.65801
9.71247
10.0311
8.31721
6.14886
4.5366
3.46902
2.78184
2.43198
2.33716
2.34526
2.33106
2.2216
20.1794
6.31303
4.72803
4.2299
3.6682
3.17019
2.77483
2.43543
2.14087
1.94164
1.89583
1.89327
1.99523
2.22412
2.63574
3.31008
4.29566
5.47191
6.39122
6.50677
5.83461
4.88264
4.03711
3.3855
2.87608
2.45818
2.10229
1.7959
1.5358
1.32173
1.15323
1.02813
0.942079
0.888902
0.861519
0.852927
0.856976
0.868823
0.885092
0.903813
0.924175
0.946144
0.97003
0.996118
1.02447
1.05472
1.08066
1.10104
1.11438
1.11943
1.11541
1.10211
1.08002
1.05041
1.01544
0.978196
0.942666
0.913486
0.895387
0.892506
0.907884
0.943277
0.998942
1.07317
1.16133
1.2551
1.34312
1.41387
1.4597
1.48303
1.49237
1.48963
1.47559
1.45144
1.42071
1.39136
1.37171
1.36647
1.37507
1.39268
1.41262
1.4292
1.43969
1.44461
1.44637
1.44745
1.44925
1.45191
1.45488
1.45748
1.45943
1.46096
1.46281
1.46599
1.47159
1.4805
1.49322
1.50969
1.52936
1.5516
1.57572
1.60006
1.62339
1.64538
1.66604
1.68552
1.70392
1.72101
1.73616
1.74838
1.75664
1.76056
1.76123
1.76321
1.78035
1.83103
1.92844
2.09317
2.35303
2.65657
2.8698
2.96852
2.90183
2.66235
2.39733
2.2186
2.09024
1.98496
1.89921
1.83548
1.79562
1.77973
1.78701
1.81643
1.867
1.93757
2.02665
2.13109
2.2521
2.3855
2.52383
2.65528
2.76262
2.82264
2.80793
2.69454
2.51692
2.3275
2.14561
1.99079
1.87298
1.79441
1.75265
1.74299
1.75984
1.79719
1.84884
1.90866
1.97104
2.03127
2.08644
2.13776
2.19353
2.28629
2.51311
3.0597
4.15134
5.9471
8.21466
9.72679
9.22587
7.35968
5.47906
4.04311
3.07765
2.60233
2.47736
2.49991
2.51072
2.40824
18.77
5.02398
4.78977
4.43634
3.87666
3.4139
3.07016
2.80134
2.59731
2.50216
2.44813
2.5016
2.69214
3.04662
3.58732
4.29022
5.01954
5.50806
5.50663
5.01452
4.27802
3.55611
2.96523
2.50222
2.12906
1.8199
1.56257
1.35244
1.18728
1.06459
0.980858
0.931452
0.910753
0.912591
0.930756
0.959505
0.994039
1.03096
1.06854
1.10653
1.14564
1.18662
1.22964
1.27378
1.31705
1.35636
1.38711
1.40862
1.41887
1.41624
1.39964
1.36868
1.32366
1.26561
1.19637
1.11892
1.038
0.960396
0.89436
0.847682
0.825692
0.830806
0.863234
0.922328
1.00587
1.10775
1.21569
1.31235
1.37765
1.40652
1.41217
1.40914
1.40567
1.39992
1.38798
1.36911
1.34782
1.33155
1.32628
1.33351
1.35004
1.37
1.38757
1.39912
1.40409
1.40426
1.40221
1.40001
1.39873
1.3985
1.39899
1.39984
1.40088
1.40231
1.40463
1.40849
1.41453
1.42321
1.43464
1.44859
1.46458
1.48217
1.50091
1.51971
1.53814
1.55602
1.57336
1.59035
1.60714
1.62378
1.64034
1.65732
1.67716
1.70545
1.75477
1.84547
1.99694
2.23634
2.56798
2.84087
2.91307
2.83386
2.65235
2.4138
2.20828
2.0608
1.9335
1.81864
1.72274
1.65067
1.60361
1.58067
1.58048
1.60194
1.64447
1.70802
1.79283
1.89666
2.02129
2.16549
2.32492
2.49104
2.6492
2.77618
2.83833
2.79275
2.63573
2.43617
2.22695
2.03937
1.89162
1.78968
1.7316
1.71137
1.72128
1.75279
1.79711
1.84619
1.89406
1.93798
1.97878
2.02116
2.0746
2.15615
2.31179
2.65768
3.39648
4.76252
6.81387
8.87151
9.52279
8.36961
6.4709
4.71874
3.46295
2.82326
2.63935
2.66709
2.70869
2.62545
16.8115
4.4996
5.02157
4.67274
4.16873
3.75843
3.46632
3.2656
3.14029
3.0803
3.08303
3.20705
3.4599
3.828
4.25641
4.63416
4.81861
4.71086
4.32313
3.76773
3.18442
2.6693
2.25049
1.91441
1.64206
1.4226
1.2504
1.12168
1.03278
0.979719
0.958052
0.96271
0.987991
1.02774
1.07584
1.12702
1.17788
1.2273
1.27612
1.32598
1.37814
1.43265
1.4882
1.54235
1.59196
1.63131
1.66291
1.68432
1.69303
1.68691
1.66453
1.62556
1.5707
1.50125
1.41842
1.32284
1.21566
1.10107
0.988687
0.892318
0.824473
0.791343
0.791802
0.823768
0.886725
0.979495
1.09418
1.21461
1.31031
1.36262
1.37496
1.36871
1.35932
1.35392
1.35142
1.3473
1.33871
1.3271
1.31735
1.31462
1.32118
1.33537
1.35278
1.36849
1.37895
1.38296
1.38139
1.37628
1.36974
1.36335
1.35795
1.3538
1.35079
1.3488
1.34778
1.34791
1.34954
1.35309
1.35889
1.3671
1.37761
1.39011
1.40411
1.41916
1.43427
1.4489
1.46284
1.47628
1.48985
1.50462
1.52216
1.54491
1.57711
1.62725
1.70943
1.84453
2.05633
2.36979
2.73995
2.9416
2.87275
2.67274
2.44767
2.2365
2.0627
1.9141
1.77578
1.65168
1.55071
1.47589
1.42628
1.39958
1.3936
1.40699
1.43954
1.49214
1.56638
1.66217
1.78038
1.92259
2.0875
2.2706
2.46196
2.64284
2.78073
2.82326
2.72435
2.53805
2.31395
2.09717
1.91839
1.79056
1.71375
1.68107
1.68238
1.70614
1.74067
1.77603
1.8063
1.83072
1.85316
1.88072
1.92387
1.99779
2.13082
2.38889
2.92387
3.95904
5.68058
7.83099
9.29633
9.03136
7.40156
5.46625
3.94571
3.111
2.82713
2.83334
2.9023
2.85273
14.5267
4.64296
5.26057
4.93623
4.47595
4.10847
3.8592
3.71073
3.6543
3.61868
3.66638
3.79605
3.98203
4.17233
4.29566
4.2854
4.10953
3.78336
3.35721
2.8958
2.45933
2.0844
1.77846
1.53392
1.34228
1.19754
1.09478
1.02952
0.997515
0.994492
1.01573
1.0557
1.10799
1.16595
1.22386
1.27841
1.32926
1.37826
1.42793
1.47998
1.53461
1.59061
1.6458
1.69754
1.74331
1.78341
1.81899
1.84677
1.86289
1.86346
1.84532
1.80704
1.74972
1.67693
1.59307
1.5003
1.39667
1.27825
1.14608
1.012
0.89733
0.821145
0.785359
0.785177
0.818626
0.888356
0.991814
1.11874
1.23749
1.31743
1.35641
1.36398
1.35628
1.34676
1.34161
1.34043
1.33976
1.33688
1.33181
1.32713
1.32623
1.33107
1.34104
1.35328
1.3642
1.37087
1.37188
1.36741
1.35873
1.34764
1.33587
1.32471
1.31492
1.30683
1.30049
1.29591
1.29319
1.29251
1.29415
1.29831
1.30507
1.31422
1.32532
1.33781
1.35068
1.36305
1.37431
1.38432
1.39374
1.40423
1.41872
1.44189
1.48083
1.54646
1.65664
1.83553
2.1075
2.48554
2.86403
2.98736
2.80651
2.53572
2.30064
2.11039
1.94202
1.77645
1.62708
1.49943
1.39954
1.32727
1.27946
1.25237
1.24304
1.24985
1.27282
1.31353
1.37451
1.45796
1.56374
1.69522
1.85343
2.03725
2.24169
2.45452
2.65004
2.77782
2.76342
2.61809
2.39792
2.16052
1.95247
1.7976
1.70037
1.65375
1.64518
1.65982
1.68299
1.70326
1.7154
1.72088
1.72595
1.73877
1.76886
1.8299
1.94709
2.16019
2.58031
3.39086
4.80608
6.81908
8.72271
9.29258
8.16466
6.23082
4.51226
3.47506
3.05695
3.00643
3.08293
3.06961
12.3259
4.86133
5.49346
5.21358
4.79434
4.45968
4.24156
4.12131
4.03415
3.99875
4.00734
4.03478
4.04525
4.00123
3.87677
3.66618
3.38131
3.04256
2.67515
2.31015
1.97843
1.69867
1.47465
1.30237
1.17616
1.09043
1.04003
1.0204
1.0273
1.05627
1.10199
1.15802
1.21737
1.27393
1.3242
1.36803
1.40779
1.44656
1.48658
1.52872
1.57271
1.61773
1.66284
1.70693
1.7482
1.79343
1.84061
1.88591
1.92421
1.94929
1.95454
1.93432
1.88621
1.81327
1.72437
1.62935
1.53191
1.42603
1.30276
1.15958
1.01393
0.899025
0.827275
0.795311
0.798869
0.842062
0.925278
1.04075
1.16443
1.26795
1.33486
1.36619
1.37384
1.371
1.36658
1.36433
1.36413
1.36418
1.36291
1.36005
1.35675
1.35477
1.35549
1.35892
1.36357
1.36719
1.3676
1.36346
1.35445
1.34128
1.32534
1.30827
1.29155
1.27629
1.26312
1.25238
1.24423
1.23883
1.23636
1.23699
1.24079
1.24763
1.25708
1.26847
1.28077
1.2928
1.30353
1.31233
1.31947
1.32662
1.33753
1.35872
1.40013
1.4758
1.60644
1.82087
2.14491
2.57158
2.95004
3.01036
2.75432
2.4437
2.20577
2.01959
1.83995
1.65762
1.49675
1.37082
1.27649
1.21041
1.16737
1.14236
1.13171
1.13364
1.14838
1.17806
1.22585
1.29561
1.38689
1.50389
1.64897
1.82328
2.02562
2.24972
2.47861
2.67164
2.74615
2.66497
2.47039
2.22522
1.99265
1.81119
1.69262
1.63108
1.61178
1.61648
1.62763
1.63291
1.6285
1.61832
1.61024
1.61238
1.63209
1.67964
1.77649
1.95722
2.30103
2.95933
4.12926
5.92284
7.97306
9.18613
8.68056
6.94084
5.12502
3.91031
3.34764
3.21257
3.26418
3.27175
10.2554
5.01096
5.71263
5.5007
5.11583
4.78868
4.55203
4.37647
4.23608
4.12928
4.03023
3.91524
3.7666
3.57731
3.35061
3.0939
2.81283
2.51297
2.20685
1.91554
1.65998
1.45175
1.2923
1.1776
1.10191
1.05953
1.04544
1.05531
1.08491
1.1294
1.18275
1.23803
1.28874
1.33066
1.36302
1.38793
1.40871
1.42815
1.44791
1.46879
1.49133
1.51625
1.5445
1.57716
1.6175
1.66815
1.72702
1.79128
1.85637
1.91555
1.95996
1.97943
1.96465
1.91139
1.82641
1.7255
1.62368
1.52233
1.41338
1.28041
1.12631
0.987994
0.888559
0.83022
0.809673
0.827452
0.88831
0.989112
1.11051
1.22462
1.31083
1.36418
1.39182
1.40432
1.40968
1.41196
1.41273
1.41243
1.41095
1.40799
1.40339
1.39744
1.39096
1.38491
1.37977
1.37513
1.3698
1.36228
1.35136
1.33652
1.31809
1.29715
1.27516
1.25363
1.23377
1.21644
1.20218
1.19134
1.1842
1.18097
1.18175
1.18644
1.19466
1.2057
1.21852
1.23175
1.24401
1.2542
1.26194
1.26841
1.27739
1.29644
1.33777
1.41836
1.56189
1.80051
2.16217
2.62509
3.00923
3.03522
2.7376
2.4021
2.15487
1.9569
1.75792
1.56144
1.39481
1.26808
1.18155
1.12339
1.08653
1.06488
1.05425
1.05268
1.06062
1.08059
1.1165
1.1731
1.2503
1.35249
1.48275
1.64347
1.83575
2.05761
2.29937
2.53247
2.68117
2.67476
2.52516
2.28732
2.03744
1.83133
1.6913
1.61432
1.58388
1.57833
1.57753
1.56892
1.55068
1.52908
1.51288
1.50924
1.52304
1.56055
1.63785
1.78818
2.07047
2.61365
3.59229
5.15833
7.17179
8.79553
8.91227
7.52479
5.73124
4.39292
3.70044
3.47076
3.46506
3.46685
8.32709
5.05415
5.8796
5.7611
5.39934
5.04493
4.74651
4.47976
4.25463
4.04653
3.837
3.61622
3.38375
3.14463
2.90282
2.65689
2.40273
2.14171
1.88564
1.65257
1.45738
1.30633
1.19815
1.1277
1.08892
1.07623
1.08494
1.11096
1.1501
1.19722
1.24608
1.2901
1.32412
1.34605
1.35705
1.36025
1.35892
1.35551
1.35163
1.34869
1.34836
1.35279
1.36437
1.38543
1.42373
1.47467
1.53726
1.61046
1.69178
1.77576
1.85372
1.914
1.94309
1.92822
1.86761
1.77384
1.6683
1.56222
1.45982
1.34149
1.20303
1.06235
0.945608
0.867365
0.828706
0.83007
0.876218
0.96583
1.08183
1.19758
1.29237
1.3598
1.40433
1.43371
1.45367
1.46663
1.47333
1.47463
1.47195
1.46658
1.4591
1.44943
1.4375
1.42373
1.40903
1.39427
1.37976
1.36499
1.34894
1.33062
1.30945
1.28562
1.26
1.23387
1.20864
1.18551
1.16544
1.14911
1.13702
1.12955
1.12692
1.12914
1.13591
1.1466
1.16019
1.17524
1.19021
1.20358
1.21438
1.223
1.23255
1.25058
1.29057
1.37199
1.52114
1.77301
2.1582
2.64874
3.04954
3.07501
2.76475
2.41063
2.14336
1.9218
1.69989
1.48984
1.31844
1.19512
1.11228
1.06049
1.03011
1.01245
1.00279
0.998913
1.0013
1.0129
1.03818
1.08274
1.14707
1.23565
1.35195
1.499
1.67905
1.89265
2.13486
2.3872
2.58663
2.65185
2.55985
2.34393
2.08543
1.85781
1.69685
1.60434
1.56263
1.54688
1.53462
1.51365
1.48443
1.45535
1.43528
1.4297
1.44098
1.47192
1.5339
1.65632
1.88586
2.33255
3.1556
4.51274
6.3929
8.21858
8.8673
7.92799
6.27624
4.88611
4.09571
3.77758
3.69454
3.66387
6.55075
4.93773
5.93902
5.94644
5.60864
5.20977
4.81917
4.47108
4.15596
3.85949
3.57412
3.29995
3.04097
2.79882
2.56884
2.34215
2.11298
1.88519
1.67164
1.48706
1.34101
1.23553
1.16712
1.12979
1.11725
1.12402
1.14568
1.17846
1.21838
1.26051
1.29897
1.3281
1.34416
1.34663
1.33783
1.32129
1.30024
1.27696
1.25312
1.23031
1.21071
1.19758
1.19563
1.2104
1.24587
1.29429
1.35396
1.42596
1.51049
1.60405
1.69911
1.78406
1.84482
1.86499
1.83615
1.76464
1.66756
1.56425
1.46206
1.35355
1.23005
1.09879
0.981484
0.896106
0.848348
0.840903
0.879527
0.963652
1.07649
1.19132
1.28801
1.36121
1.41561
1.45771
1.4912
1.51645
1.53236
1.53858
1.53651
1.52863
1.51703
1.50264
1.48545
1.46535
1.44281
1.41888
1.39471
1.37092
1.34738
1.32336
1.29806
1.27102
1.24241
1.21297
1.18386
1.15633
1.13151
1.11037
1.09368
1.08202
1.0758
1.07521
1.08012
1.09004
1.10406
1.12082
1.1387
1.156
1.1713
1.1842
1.19675
1.21552
1.25399
1.3332
1.48162
1.73641
2.13171
2.64172
3.07254
3.13203
2.83615
2.46805
2.17133
1.91778
1.67033
1.44504
1.26722
1.14413
1.06463
1.01798
0.992102
0.97785
0.970233
0.965314
0.963352
0.967565
0.982987
1.01604
1.06856
1.14487
1.24895
1.38413
1.55314
1.75757
1.99529
2.25426
2.48111
2.60661
2.57621
2.39377
2.13555
1.89029
1.7094
1.60152
1.54865
1.52291
1.49984
1.46795
1.43021
1.39667
1.37571
1.37046
1.38062
1.40647
1.45599
1.55463
1.74025
2.10458
2.79505
3.96659
5.6727
7.54322
8.58728
8.12263
6.71446
5.35081
4.50259
4.11139
3.94748
3.8663
4.93612
4.6136
5.83492
6.01357
5.72528
5.28214
4.82789
4.40518
4.01648
3.65916
3.33296
3.04012
2.7808
2.54915
2.33398
2.12454
1.91744
1.7191
1.54167
1.39633
1.28872
1.21831
1.1804
1.16837
1.17546
1.19585
1.22513
1.25985
1.2966
1.3312
1.35859
1.37401
1.37479
1.36136
1.33667
1.3046
1.26837
1.23002
1.19058
1.15071
1.11206
1.07999
1.06655
1.08815
1.12459
1.17205
1.22662
1.29244
1.37179
1.46325
1.56072
1.653
1.72597
1.76598
1.76343
1.71713
1.63716
1.5403
1.43877
1.33348
1.21994
1.10172
0.994205
0.912766
0.864593
0.855129
0.891914
0.974773
1.08667
1.20081
1.29763
1.37284
1.43191
1.48124
1.52364
1.55829
1.58261
1.59474
1.595
1.58577
1.57013
1.55036
1.52739
1.50133
1.47231
1.441
1.40862
1.37634
1.34485
1.31408
1.28352
1.25254
1.22087
1.18873
1.15683
1.12619
1.09791
1.07307
1.05259
1.03726
1.02768
1.02424
1.02701
1.0357
1.04961
1.06751
1.08787
1.10896
1.12914
1.14742
1.16478
1.18627
1.22406
1.29932
1.44202
1.69073
2.08334
2.60376
3.07482
3.20017
2.94677
2.57311
2.24225
1.95073
1.67402
1.42942
1.24071
1.11299
1.03364
0.989473
0.966885
0.9563
0.951318
0.946662
0.941487
0.938615
0.944266
0.965671
1.0068
1.0718
1.16543
1.29117
1.45191
1.64888
1.88213
2.14002
2.38023
2.55136
2.57915
2.43727
2.18727
1.92843
1.72887
1.60594
1.54211
1.50665
1.47333
1.43168
1.38717
1.35124
1.33121
1.32734
1.33634
1.3566
1.39409
1.4714
1.6217
1.91801
2.4943
3.50186
5.02422
6.8364
8.13179
8.10898
7.01527
5.7537
4.89002
4.4442
4.20857
4.07082
3.51005
4.05749
5.52317
5.91862
5.74458
5.31592
4.81653
4.32937
3.88234
3.48417
3.13776
2.8425
2.59223
2.3747
2.17545
1.98418
1.79939
1.62789
1.48001
1.36419
1.28422
1.23915
1.22451
1.23357
1.25865
1.29259
1.3302
1.36665
1.40014
1.4278
1.44574
1.45021
1.43925
1.41371
1.37686
1.33283
1.28516
1.23606
1.18664
1.13781
1.09165
1.05342
1.03688
1.05219
1.08244
1.12093
1.16746
1.22477
1.29511
1.3784
1.47006
1.56001
1.63441
1.67975
1.68682
1.6537
1.5871
1.49947
1.40192
1.29897
1.19127
1.08404
0.989264
0.917687
0.875279
0.86941
0.908872
0.992848
1.10392
1.21661
1.31324
1.39037
1.45306
1.50691
1.55422
1.5939
1.62308
1.63915
1.64139
1.63142
1.61234
1.58726
1.55823
1.52614
1.49126
1.45401
1.41527
1.37622
1.3379
1.30082
1.2649
1.22973
1.19491
1.16033
1.12632
1.09355
1.06297
1.03556
1.01231
0.994102
0.981688
0.975634
0.976231
0.983407
0.996678
1.01504
1.03713
1.06132
1.08594
1.10971
1.13275
1.15855
1.19708
1.26803
1.40144
1.63662
2.01459
2.53397
3.049
3.26919
3.09226
2.72939
2.36543
2.03122
1.71902
1.44784
1.24054
1.10122
1.01688
0.971774
0.950839
0.943346
0.941322
0.938357
0.931162
0.921106
0.916612
0.92604
0.955443
1.00976
1.09455
1.21321
1.36898
1.56127
1.79312
2.04311
2.29347
2.4969
2.57511
2.47625
2.2406
1.972
1.75507
1.61743
1.54283
1.4979
1.45474
1.4041
1.35395
1.31691
1.29887
1.2968
1.30407
1.31745
1.34209
1.39814
1.51858
1.7597
2.23856
3.10098
4.44461
6.13898
7.56025
7.90836
7.16425
6.07065
5.23376
4.75249
4.45959
4.26962
2.25309
3.24229
4.98059
5.63367
5.67609
5.33913
4.83308
4.30236
3.81062
3.38169
3.0214
2.726
2.48421
2.2796
2.09599
1.92289
1.7583
1.60737
1.478
1.37977
1.3158
1.28423
1.2823
1.30457
1.34323
1.38957
1.43603
1.47742
1.51175
1.53699
1.55059
1.54999
1.53382
1.50293
1.46033
1.41005
1.35596
1.30096
1.24714
1.19654
1.15206
1.11813
1.10259
1.10349
1.11645
1.13982
1.17419
1.22126
1.28231
1.35643
1.43854
1.51857
1.58327
1.62044
1.62297
1.59054
1.52879
1.44661
1.35226
1.25125
1.14851
1.05212
0.971589
0.912733
0.880173
0.882802
0.928969
1.01534
1.12403
1.23289
1.32822
1.40774
1.475
1.53341
1.58399
1.6256
1.65587
1.67253
1.67458
1.66301
1.64046
1.61023
1.57512
1.53686
1.49627
1.45379
1.41001
1.36585
1.3223
1.2801
1.23957
1.20059
1.16284
1.12611
1.09047
1.05629
1.02427
0.995245
0.970135
0.949844
0.935203
0.926911
0.925448
0.93097
0.943328
0.961771
0.98513
1.01191
1.04051
1.06952
1.09854
1.12978
1.17095
1.23913
1.36296
1.5814
1.9371
2.44274
2.99129
3.31571
3.24438
2.91662
2.531
2.15693
1.80653
1.50282
1.26937
1.11107
1.01553
0.965191
0.943327
0.93738
0.937768
0.936616
0.927953
0.912101
0.896371
0.891912
0.909275
0.953442
1.03077
1.14426
1.29785
1.4897
1.71481
1.96524
2.22333
2.44993
2.5703
2.51392
2.29679
2.02151
1.78814
1.6359
1.55052
1.49614
1.44328
1.38396
1.32873
1.29131
1.27597
1.27605
1.28133
1.28688
1.2978
1.33304
1.42659
1.62377
2.023
2.76092
3.94123
5.49172
6.94078
7.56413
7.16169
6.2815
5.51119
5.01557
4.68407
4.45388
1.4308
2.37026
4.30885