/*--------------------------------*- C++ -*----------------------------------*\
| =========                 |                                                 |
| \\      /  F ield         | OpenFOAM: The Open Source CFD Toolbox           |
|  \\    /   O peration     | Version:  2112                                  |
|   \\  /    A nd           | Website:  www.openfoam.com                      |
|    \\/     M anipulation  |                                                 |
\*---------------------------------------------------------------------------*/
FoamFile
{
    version     2.0;
    format      ascii;
    arch        "LSB;label=32;scalar=64";
    class       volScalarField;
    location    "0.54";
    object      kU_0;
}
// * * * * * * * * * * * * * * * * * * * * * * * * * * * * * * * * * * * * * //

dimensions      [0 2 -2 0 0 0 0];

internalField   nonuniform List<scalar> 
12225
(
0.124918
0.183434
0.219018
0.242739
0.25691
0.264361
0.267593
0.267461
0.26416
0.257616
0.247665
0.234189
0.217233
0.197097
0.174418
0.150147
0.124933
0.107552
0.0408438
0.0462317
0.0517612
0.057337
0.0628743
0.0685064
0.0745339
0.0812493
0.0888802
0.09758
0.107452
0.118536
0.130808
0.144168
0.158445
0.173364
0.188678
0.204167
0.0375808
0.0382401
0.0391765
0.0401586
0.0407431
0.0410005
0.0411103
0.0413074
0.0418425
0.0429653
0.0449209
0.0479502
0.0522912
0.058181
0.065857
0.0755483
0.0874816
0.101962
0.0373118
0.0371569
0.0371028
0.0371852
0.037392
0.0376482
0.0379113
0.0381316
0.0382249
0.0381848
0.0380583
0.0379499
0.0380214
0.0384832
0.0395793
0.0415733
0.0447405
0.0494236
0.0373062
0.0371139
0.0369324
0.036768
0.0366271
0.0365126
0.0364255
0.0363642
0.0363215
0.0362871
0.036249
0.0361967
0.036127
0.0360512
0.0360062
0.0360605
0.036332
0.0369735
0.0373033
0.0371087
0.03692
0.0367403
0.036571
0.0364129
0.0362671
0.0361344
0.036014
0.0359025
0.0357941
0.0356804
0.0355534
0.0354094
0.0352519
0.0350934
0.0349565
0.0348759
0.0373012
0.0371063
0.0369176
0.0367373
0.0365663
0.0364048
0.0362537
0.0361144
0.0359883
0.0358764
0.035779
0.0356941
0.0356172
0.0355403
0.0354527
0.0353432
0.035205
0.0350349
0.0372999
0.0371052
0.036917
0.0367374
0.0365669
0.0364059
0.0362551
0.0361155
0.0359888
0.0358763
0.0357797
0.0357006
0.0356398
0.0355971
0.0355708
0.035556
0.0355378
0.0355078
0.0372989
0.0371045
0.0369172
0.0367384
0.0365688
0.0364088
0.0362589
0.0361202
0.0359939
0.0358815
0.0357847
0.0357051
0.0356446
0.035605
0.0355883
0.035593
0.0356084
0.0356315
0.0372982
0.0371041
0.0369176
0.0367396
0.036571
0.036412
0.0362632
0.0361254
0.036
0.0358883
0.0357917
0.035712
0.035651
0.0356107
0.0355936
0.0355999
0.0356197
0.0356521
0.0372976
0.0371037
0.0369179
0.0367408
0.0365731
0.0364151
0.0362673
0.0361305
0.0360059
0.0358947
0.0357984
0.0357186
0.035657
0.0356156
0.0355969
0.0356024
0.0356213
0.0356533
0.0372972
0.0371033
0.0369181
0.0367417
0.0365747
0.0364175
0.0362705
0.0361345
0.0360106
0.0358998
0.0358036
0.0357234
0.035661
0.0356183
0.0355975
0.0356011
0.0356185
0.0356483
0.0372968
0.0371029
0.036918
0.0367422
0.0365759
0.0364194
0.0362732
0.0361379
0.0360145
0.0359041
0.0358079
0.0357274
0.035664
0.0356196
0.0355962
0.0355961
0.0356114
0.0356387
0.0372964
0.0371024
0.0369177
0.0367424
0.0365767
0.036421
0.0362755
0.036141
0.0360182
0.0359081
0.0358119
0.0357307
0.035666
0.0356194
0.0355927
0.0355877
0.0356009
0.0356252
0.037296
0.0371017
0.0369172
0.0367423
0.0365772
0.0364221
0.0362775
0.0361438
0.0360216
0.0359119
0.0358156
0.0357337
0.0356676
0.0356183
0.0355876
0.0355767
0.0355876
0.0356098
0.0372954
0.0371008
0.0369162
0.0367416
0.0365771
0.0364227
0.0362789
0.0361461
0.0360247
0.0359155
0.0358192
0.0357367
0.0356688
0.0356167
0.0355814
0.0355638
0.0355657
0.035586
0.0372947
0.0370995
0.0369147
0.0367403
0.0365762
0.0364225
0.0362796
0.0361477
0.0360271
0.0359185
0.0358223
0.0357391
0.0356696
0.0356143
0.0355741
0.0355493
0.0355412
0.0355488
0.0372938
0.0370979
0.0369127
0.0367383
0.0365746
0.0364218
0.0362799
0.0361491
0.0360296
0.0359217
0.0358258
0.0357421
0.0356709
0.0356125
0.0355671
0.0355351
0.0355167
0.0355111
0.0372926
0.0370958
0.0369101
0.0367357
0.0365726
0.0364207
0.03628
0.0361505
0.0360323
0.0359254
0.0358298
0.0357456
0.0356728
0.0356113
0.035561
0.0355218
0.0354936
0.0354757
0.0372915
0.037094
0.0369082
0.0367342
0.0365718
0.0364209
0.0362814
0.0361533
0.0360364
0.0359304
0.0358354
0.0357509
0.035677
0.0356131
0.0355592
0.0355148
0.0354796
0.035453
0.0372909
0.0370932
0.0369076
0.0367342
0.0365728
0.0364232
0.0362851
0.0361584
0.0360426
0.0359376
0.035843
0.0357585
0.0356837
0.0356182
0.0355616
0.0355134
0.0354733
0.0354405
0.0372907
0.0370931
0.0369082
0.0367358
0.0365756
0.0364274
0.0362909
0.0361658
0.0360517
0.0359482
0.0358548
0.0357712
0.0356967
0.0356309
0.0355733
0.0355233
0.0354805
0.0354441
0.0372908
0.0370939
0.0369101
0.0367391
0.0365803
0.0364334
0.0362981
0.036174
0.0360607
0.0359576
0.0358643
0.0357803
0.035705
0.0356381
0.0355787
0.0355265
0.0354809
0.0354412
0.0372914
0.0370955
0.0369132
0.0367437
0.036587
0.0364426
0.0363103
0.0361892
0.0360788
0.0359785
0.0358877
0.0358058
0.0357322
0.0356663
0.0356074
0.035555
0.0355085
0.0354673
0.0372925
0.0370983
0.036917
0.0367476
0.0365902
0.0364449
0.0363114
0.0361891
0.0360776
0.0359763
0.0358845
0.0358017
0.0357272
0.0356602
0.0356002
0.0355464
0.0354984
0.0354555
0.0372945
0.0371041
0.0369293
0.0367679
0.0366194
0.0364838
0.0363606
0.0362493
0.0361495
0.0360605
0.0359815
0.0359118
0.0358505
0.0357966
0.0357494
0.0357082
0.0356724
0.035641
0.0372972
0.0371073
0.03694
0.0368016
0.0366995
0.0366391
0.0366216
0.0366425
0.0366959
0.0367611
0.0368318
0.0369043
0.0369756
0.0370435
0.0371066
0.037164
0.037215
0.0372598
0.037353
0.0374896
0.0377838
0.0381783
0.0386226
0.0390634
0.0394559
0.0396728
0.039728
0.0396466
0.0394572
0.0391876
0.0388632
0.038506
0.0381343
0.0377639
0.0374074
0.0370793
0.0387127
0.0411267
0.043879
0.0467418
0.0495476
0.0521468
0.05455
0.0568212
0.0590265
0.0612211
0.0634464
0.0657312
0.0680944
0.0705482
0.0731003
0.0757567
0.0785245
0.0814128
0.0989985
0.145578
0.177705
0.201445
0.219847
0.232125
0.241331
0.248995
0.255893
0.262429
0.26882
0.27519
0.281608
0.288114
0.294725
0.301445
0.30825
0.315157
0.225828
0.256735
0.323265
0.436316
0.540045
0.560764
0.56552
0.568398
0.573953
0.585324
0.605426
0.632314
0.655773
0.674339
0.683992
0.666911
0.596854
0.457816
0.271594
0.151873
0.1552
0.201307
0.243514
0.258541
0.257637
0.23157
0.193099
0.168936
0.182689
0.266582
0.4536
0.731054
0.956198
1.15321
1.32627
1.4711
1.58533
1.66862
1.72225
1.74843
1.74967
1.7286
1.69707
1.65834
1.61372
1.56425
1.51072
1.4536
1.393
1.33431
1.2775
1.22203
1.16758
1.11396
1.06106
1.00884
0.957324
0.906584
0.856748
0.807988
0.760495
0.714473
0.670117
0.627609
0.587108
0.548751
0.512664
0.478978
0.447851
0.419496
0.394232
0.372545
0.355212
0.343493
0.339512
0.347608
0.376079
0.417808
0.469676
0.522902
0.579162
0.638927
0.701681
0.76656
0.832534
0.898542
0.963593
1.02674
1.08672
1.14132
1.18519
1.20539
1.19542
1.15309
1.08006
0.976206
0.842854
0.688394
0.532439
0.40086
0.311279
0.264011
0.247889
0.249725
0.257139
0.261484
0.262171
0.261023
0.259881
0.26023
0.26319
0.269123
0.277774
0.288686
0.302754
0.322677
0.352762
0.397349
0.455376
0.509583
0.533535
0.531187
0.509827
0.473705
0.430409
0.39775
0.404381
0.454223
0.528441
0.597484
0.650565
0.682217
0.688028
0.669838
0.640811
0.604184
0.562772
0.519702
0.479938
0.445055
0.416539
0.396158
0.386421
0.391145
0.427126
0.501652
0.606417
0.74055
0.899908
1.07785
1.26724
1.46344
1.67735
1.92109
2.2088
2.56085
2.9925
3.44071
3.74768
3.85366
3.68859
3.22614
2.55783
1.88509
1.34997
0.979001
0.747917
0.612198
0.524766
0.453341
0.388406
0.335607
0.301776
0.289091
0.296067
0.303494
0.302079
0.292368
0.28229
0.284598
0.21686
0.268189
0.557923
0.593414
0.560889
0.515758
0.471314
0.430322
0.394
0.363274
0.33869
0.323367
0.323426
0.337281
0.360805
0.385645
0.398325
0.384886
0.343874
0.294601
0.243399
0.232839
0.274423
0.281939
0.303418
0.438928
0.631545
0.746516
0.794547
0.823053
0.84855
0.86795
0.867366
0.848801
0.814027
0.765274
0.705512
0.638216
0.567043
0.495573
0.427147
0.364652
0.310414
0.265615
0.230776
0.205823
0.190173
0.182942
0.183994
0.185908
0.188178
0.190716
0.193447
0.19631
0.199251
0.202212
0.205127
0.207913
0.210526
0.213127
0.215684
0.218175
0.220592
0.222905
0.225093
0.227141
0.229049
0.230846
0.232577
0.234306
0.236102
0.237974
0.239883
0.24176
0.243503
0.245029
0.246097
0.246841
0.247218
0.247191
0.246532
0.245296
0.244096
0.243304
0.24322
0.244096
0.246155
0.249616
0.254739
0.261907
0.27251
0.293189
0.32318
0.357
0.389874
0.416983
0.433775
0.437634
0.429962
0.416456
0.404363
0.398952
0.401296
0.406918
0.408457
0.40314
0.39098
0.371876
0.346155
0.315409
0.282392
0.249828
0.219611
0.193105
0.171792
0.157252
0.150003
0.147965
0.147742
0.151365
0.166845
0.189866
0.228999
0.286625
0.345194
0.383149
0.394987
0.388175
0.371517
0.348015
0.320847
0.293251
0.268361
0.248722
0.235451
0.228544
0.227375
0.230377
0.233442
0.235882
0.237253
0.237214
0.235629
0.23264
0.22869
0.224601
0.221272
0.218684
0.217167
0.217137
0.21882
0.222397
0.22812
0.236463
0.248779
0.269773
0.315308
0.435712
0.717425
1.06604
1.37568
1.62187
1.81408
1.9363
1.89317
1.60093
1.15375
0.757938
0.510904
0.385356
0.327481
0.299894
0.28452
0.274655
0.268263
0.266026
0.268772
0.274991
0.281251
0.288686
0.220491
0.772571
0.77643
0.651259
0.536723
0.451835
0.388884
0.340449
0.302636
0.273484
0.251816
0.2366
0.229701
0.231995
0.244051
0.263886
0.28579
0.302129
0.308037
0.303579
0.310682
0.372729
0.542853
0.747694
0.766467
0.752791
0.750211
0.730219
0.696512
0.657836
0.616408
0.570484
0.518791
0.46313
0.405753
0.349293
0.296461
0.249635
0.21048
0.179732
0.1572
0.141956
0.132626
0.127696
0.125783
0.125778
0.126889
0.128803
0.131015
0.133496
0.136229
0.139204
0.142412
0.145845
0.149489
0.153328
0.15733
0.161449
0.165608
0.169699
0.173564
0.177045
0.180334
0.183321
0.185904
0.18801
0.189616
0.190762
0.191564
0.192218
0.193052
0.194288
0.195927
0.197875
0.199921
0.201843
0.203344
0.204639
0.205657
0.206288
0.206408
0.205573
0.203846
0.201663
0.199349
0.197173
0.195363
0.194101
0.193522
0.193723
0.194802
0.196868
0.200337
0.207085
0.217601
0.231059
0.245935
0.259849
0.270478
0.27666
0.278676
0.27758
0.274461
0.270395
0.266701
0.264731
0.263791
0.263327
0.262551
0.260467
0.255727
0.246643
0.232236
0.212903
0.190986
0.171027
0.157851
0.152254
0.150295
0.150063
0.161389
0.20012
0.26709
0.336222
0.371351
0.363295
0.332748
0.302033
0.274614
0.252278
0.236086
0.226105
0.221593
0.221285
0.22378
0.227866
0.232635
0.237412
0.241657
0.244794
0.24621
0.245337
0.241791
0.235442
0.227177
0.218689
0.211017
0.203953
0.197732
0.192771
0.18941
0.187699
0.187574
0.188912
0.191622
0.19584
0.202303
0.213075
0.234842
0.292811
0.410324
0.562609
0.739069
0.952977
1.19595
1.38248
1.37553
1.12698
0.787645
0.532419
0.394628
0.32954
0.295967
0.272455
0.252191
0.237331
0.23153
0.232416
0.234274
0.236648
0.904204
0.977888
0.738645
0.559115
0.447709
0.373181
0.31727
0.273265
0.238575
0.211647
0.191634
0.178495
0.173754
0.176898
0.188269
0.20818
0.235405
0.267205
0.308471
0.393566
0.586071
0.871366
0.877986
0.786197
0.708593
0.646673
0.592646
0.539206
0.486776
0.435994
0.386415
0.337673
0.290472
0.246448
0.207289
0.174329
0.148213
0.128804
0.11531
0.106564
0.101327
0.0984995
0.09724
0.0969808
0.0973862
0.0982818
0.0995787
0.101219
0.103108
0.105248
0.10765
0.110324
0.113284
0.116549
0.120137
0.124068
0.128355
0.133003
0.138003
0.143313
0.148858
0.154508
0.160073
0.165302
0.169903
0.173585
0.176114
0.177367
0.177353
0.176203
0.174562
0.173336
0.172902
0.173414
0.174613
0.176019
0.177478
0.178893
0.180192
0.181337
0.182242
0.182524
0.182263
0.181501
0.180317
0.178852
0.177298
0.175877
0.174797
0.174235
0.174318
0.175129
0.176719
0.179127
0.182588
0.187524
0.193629
0.200363
0.206884
0.212191
0.215532
0.216685
0.216012
0.214242
0.212079
0.209906
0.207829
0.205496
0.202585
0.198769
0.193912
0.188215
0.181742
0.174458
0.166779
0.160431
0.157887
0.159863
0.164824
0.173659
0.197909
0.2484
0.313458
0.353249
0.345559
0.310068
0.277178
0.252605
0.235397
0.224738
0.219396
0.218043
0.219512
0.222909
0.227598
0.233117
0.239054
0.245173
0.251047
0.255955
0.259057
0.259485
0.256513
0.249824
0.239751
0.228068
0.217165
0.207055
0.198379
0.191575
0.186844
0.18421
0.183569
0.184748
0.187574
0.191945
0.197805
0.205027
0.213272
0.222257
0.234778
0.267082
0.339867
0.466115
0.654303
0.889132
1.10744
1.18412
1.02605
0.744584
0.51862
0.388995
0.318676
0.275577
0.244572
0.223314
0.21422
0.212531
0.210029
0.203282
1.62107
0.963079
0.61948
0.469089
0.384792
0.322778
0.273621
0.234423
0.202697
0.176478
0.155451
0.143048
0.142605
0.151198
0.166864
0.190206
0.226399
0.293825
0.432711
0.652115
0.84533
0.853185
0.737942
0.628746
0.544662
0.477727
0.420731
0.369479
0.322501
0.279041
0.238921
0.202609
0.170982
0.144798
0.12431
0.109206
0.09873
0.0918973
0.087712
0.0853191
0.0840777
0.0835644
0.0835352
0.083871
0.0845272
0.0854977
0.086793
0.0882158
0.0897547
0.0914044
0.0931661
0.0950517
0.0970878
0.0993171
0.101799
0.10461
0.107835
0.111562
0.115872
0.12082
0.126414
0.13259
0.139179
0.145891
0.152319
0.157989
0.162446
0.165348
0.16652
0.166005
0.164095
0.161404
0.158877
0.157457
0.157161
0.15785
0.159162
0.160662
0.162014
0.163076
0.163873
0.164486
0.164966
0.165298
0.165411
0.16524
0.16478
0.164106
0.163367
0.162749
0.162443
0.162619
0.163411
0.164905
0.167126
0.17006
0.173799
0.178145
0.182607
0.186795
0.190355
0.193088
0.195008
0.196286
0.197115
0.197585
0.197642
0.197096
0.195707
0.193282
0.189731
0.185115
0.179698
0.174116
0.169619
0.167954
0.170261
0.176714
0.187942
0.207045
0.240293
0.287286
0.327993
0.331688
0.301311
0.267121
0.243928
0.22848
0.218735
0.213143
0.210677
0.210694
0.212768
0.216594
0.221911
0.228438
0.235789
0.243791
0.25209
0.259899
0.266215
0.269847
0.26955
0.264317
0.253813
0.23958
0.225697
0.212622
0.201234
0.192174
0.185716
0.181862
0.180455
0.181256
0.184002
0.188447
0.194362
0.201461
0.209201
0.21665
0.222925
0.229248
0.246137
0.29578
0.399479
0.567215
0.78956
1.00785
1.0794
0.920552
0.671824
0.482754
0.367141
0.296971
0.253969
0.229627
0.222051
0.221446
0.217837
0.206296
1.99309
0.809826
0.517043
0.423743
0.359698
0.306211
0.262903
0.22707
0.196572
0.16976
0.152464
0.148828
0.154525
0.168274
0.192177
0.234671
0.310908
0.437878
0.609156
0.748727
0.758743
0.663655
0.551416
0.462431
0.394246
0.339504
0.293029
0.252091
0.215672
0.183569
0.156005
0.133281
0.115485
0.102344
0.09325
0.0874054
0.0839734
0.0822022
0.0814971
0.0814416
0.0817814
0.0823888
0.0832226
0.0842913
0.0856214
0.0872282
0.0888918
0.0904297
0.0917791
0.0928864
0.0937192
0.0942768
0.0945977
0.0947642
0.0949054
0.0951949
0.0958443
0.0970876
0.0991584
0.102262
0.106546
0.112065
0.118733
0.126278
0.134205
0.141843
0.148482
0.153561
0.1568
0.158204
0.157809
0.15557
0.152013
0.148445
0.145759
0.144446
0.144599
0.145873
0.147676
0.149428
0.150761
0.151608
0.152127
0.15253
0.152942
0.153363
0.153715
0.153918
0.153944
0.15384
0.153715
0.153719
0.154008
0.15472
0.155954
0.15775
0.160079
0.162889
0.166136
0.169522
0.172743
0.175645
0.178167
0.180334
0.182212
0.183845
0.185216
0.186228
0.186724
0.186537
0.18555
0.183731
0.181171
0.178548
0.177294
0.179125
0.184937
0.195851
0.214515
0.242344
0.273323
0.302896
0.314609
0.296223
0.263843
0.239535
0.22382
0.212845
0.205008
0.199718
0.196816
0.196212
0.197795
0.201434
0.206972
0.214192
0.222768
0.232496
0.243206
0.2542
0.264479
0.272699
0.277186
0.276127
0.26802
0.253042
0.236503
0.220351
0.205861
0.19409
0.1855
0.180119
0.177719
0.177955
0.180442
0.184786
0.190581
0.197382
0.204639
0.211663
0.217817
0.223008
0.22944
0.247387
0.29635
0.398247
0.56654
0.792526
0.989716
0.999384
0.814786
0.599839
0.443765
0.340533
0.274804
0.242705
0.234882
0.236054
0.233963
0.221957
2.01999
0.629467
0.47301
0.423026
0.366556
0.316685
0.277198
0.243264
0.214303
0.194886
0.190506
0.190619
0.201308
0.224981
0.267394
0.336513
0.436607
0.554027
0.642302
0.648603
0.578472
0.483122
0.399472
0.335104
0.284678
0.243246
0.207957
0.177626
0.151955
0.130908
0.114416
0.102236
0.0939132
0.0888218
0.0862567
0.0855262
0.0860243
0.087272
0.0889322
0.0908047
0.0928045
0.0949261
0.0972002
0.0996571
0.102308
0.105142
0.107542
0.109412
0.11061
0.111021
0.110569
0.109238
0.107076
0.104208
0.100846
0.0972886
0.0939264
0.0912099
0.0895973
0.0894871
0.0911691
0.094809
0.100425
0.107834
0.116559
0.125756
0.134311
0.141143
0.145614
0.148016
0.149097
0.148876
0.147403
0.144859
0.141708
0.138826
0.137043
0.136759
0.137836
0.139726
0.141747
0.143355
0.144329
0.144768
0.144932
0.145062
0.145277
0.145572
0.145881
0.14614
0.146324
0.146468
0.146651
0.146981
0.147567
0.148499
0.149821
0.151524
0.153543
0.155816
0.158265
0.160724
0.163072
0.165282
0.167356
0.169312
0.171159
0.172874
0.17439
0.175603
0.176412
0.176784
0.176842
0.177111
0.179061
0.184562
0.194943
0.212475
0.239676
0.269851
0.289978
0.298144
0.289083
0.263754
0.237726
0.220502
0.207764
0.197242
0.188699
0.182399
0.178509
0.177032
0.177887
0.180978
0.186208
0.193455
0.202553
0.213223
0.22554
0.239026
0.252881
0.265855
0.276148
0.281381
0.278828
0.266414
0.24861
0.229858
0.212147
0.197286
0.186149
0.178888
0.175226
0.174687
0.176711
0.180703
0.186048
0.19214
0.198431
0.204462
0.209967
0.215111
0.220822
0.230833
0.255703
0.314912
0.431037
0.618499
0.84651
0.982732
0.9134
0.720741
0.535246
0.395218
0.302827
0.259248
0.248896
0.251695
0.252034
0.240469
1.87803
0.501313
0.479624
0.443746
0.387529
0.341406
0.307246
0.280581
0.260455
0.251441
0.246308
0.252227
0.272023
0.308415
0.363463
0.434238
0.506322
0.552586
0.549169
0.497766
0.423605
0.351898
0.293475
0.247668
0.210704
0.180092
0.154669
0.133989
0.117815
0.105876
0.0977982
0.0931052
0.0912317
0.0915655
0.0934946
0.0964524
0.0999616
0.103678
0.107418
0.111151
0.114943
0.118882
0.123
0.127234
0.131401
0.135112
0.138053
0.140095
0.141037
0.140716
0.139024
0.13592
0.131434
0.125668
0.118805
0.111147
0.103173
0.0955696
0.0891582
0.0847004
0.082703
0.0833899
0.086781
0.0928051
0.101212
0.111332
0.121889
0.131151
0.137266
0.139949
0.140629
0.140581
0.140444
0.139932
0.138666
0.136673
0.134518
0.13299
0.132656
0.133586
0.135389
0.137441
0.139166
0.140245
0.140668
0.140642
0.140434
0.140238
0.140142
0.140148
0.140216
0.140309
0.140416
0.140563
0.140803
0.141208
0.141842
0.142749
0.143937
0.145379
0.14702
0.148818
0.150721
0.152622
0.15448
0.15628
0.158028
0.159744
0.161443
0.163133
0.164821
0.166564
0.168629
0.171614
0.176872
0.186499
0.202492
0.227699
0.261693
0.287432
0.292494
0.282957
0.263489
0.239312
0.219211
0.204637
0.191803
0.180285
0.170751
0.163644
0.159055
0.156888
0.157012
0.159325
0.163778
0.170364
0.179114
0.189754
0.20251
0.217192
0.233313
0.249949
0.265529
0.277609
0.282711
0.276595
0.260263
0.240239
0.219707
0.201619
0.187602
0.178128
0.17294
0.17142
0.172795
0.176215
0.180811
0.185796
0.190607
0.195009
0.19912
0.20345
0.208987
0.217591
0.234319
0.271793
0.351089
0.495456
0.706594
0.906378
0.953411
0.824887
0.632688
0.460117
0.339564
0.280556
0.264951
0.268594
0.272046
0.262116
1.68155
0.449913
0.502765
0.467564
0.417067
0.376211
0.347293
0.327564
0.315523
0.309645
0.310429
0.32343
0.349309
0.386513
0.429206
0.465986
0.482656
0.469918
0.429714
0.373605
0.315402
0.264314
0.222852
0.189575
0.162637
0.140997
0.1241
0.111553
0.10297
0.097934
0.0959884
0.0966241
0.0992767
0.10334
0.108212
0.113369
0.118462
0.123373
0.128177
0.133043
0.138107
0.143395
0.148794
0.154073
0.158926
0.162806
0.16592
0.168014
0.168836
0.168171
0.165882
0.16194
0.156415
0.149435
0.141107
0.131489
0.120707
0.109228
0.0980657
0.0886224
0.0821017
0.0790509
0.079337
0.0827625
0.089273
0.0986887
0.110125
0.121876
0.130904
0.135601
0.136589
0.136019
0.135321
0.135041
0.134946
0.134556
0.133645
0.132453
0.131537
0.13141
0.132244
0.133811
0.135626
0.137192
0.138181
0.138509
0.138296
0.137759
0.137109
0.136493
0.135984
0.135597
0.13532
0.135138
0.13505
0.135079
0.135263
0.135646
0.136262
0.137124
0.138219
0.139508
0.140943
0.142474
0.144002
0.145477
0.14688
0.148236
0.149615
0.151131
0.15295
0.155329
0.158717
0.164009
0.172682
0.186906
0.209136
0.241793
0.278706
0.296362
0.287025
0.265958
0.243001
0.221945
0.204645
0.189716
0.175767
0.163388
0.153407
0.146064
0.141245
0.138717
0.13827
0.139781
0.143241
0.148747
0.156485
0.166321
0.17847
0.193021
0.209808
0.228319
0.247461
0.265205
0.278085
0.280649
0.269346
0.250213
0.227938
0.20688
0.189835
0.177891
0.170944
0.168262
0.168821
0.171472
0.175061
0.178631
0.181644
0.184082
0.186375
0.189264
0.193835
0.201668
0.215774
0.243505
0.300938
0.411021
0.590594
0.806381
0.940221
0.896891
0.725782
0.5328
0.38601
0.30828
0.283396
0.2854
0.291785
0.284987
1.45245
0.465259
0.52667
0.494064
0.448091
0.411603
0.387035
0.372507
0.367099
0.363877
0.369
0.382226
0.400835
0.419474
0.430961
0.428782
0.410036
0.376534
0.333438
0.287213
0.243758
0.206563
0.176267
0.1521
0.133236
0.119073
0.109107
0.10287
0.0999184
0.0998114
0.102074
0.106158
0.111438
0.117259
0.123059
0.128503
0.133548
0.138377
0.143246
0.148341
0.153701
0.159217
0.164674
0.169804
0.174338
0.178347
0.181882
0.184604
0.186123
0.186051
0.18409
0.180118
0.174274
0.16693
0.15851
0.149184
0.138708
0.126702
0.11336
0.100008
0.0888126
0.0815584
0.0783256
0.0786204
0.082273
0.0895204
0.100021
0.112647
0.124064
0.131524
0.134955
0.135451
0.134662
0.133868
0.133572
0.133625
0.13364
0.133366
0.132866
0.132452
0.132477
0.13311
0.134242
0.135549
0.136661
0.137297
0.137342
0.136838
0.135933
0.134812
0.133645
0.132554
0.131607
0.130829
0.130224
0.129794
0.129548
0.12951
0.129709
0.130165
0.130883
0.13184
0.132988
0.134267
0.135572
0.136818
0.137946
0.138949
0.139902
0.140986
0.142511
0.14497
0.149107
0.156057
0.167684
0.186466
0.214885
0.253875
0.290814
0.29992
0.279484
0.251905
0.228453
0.209467
0.19239
0.175676
0.160745
0.148101
0.138288
0.131237
0.126615
0.124054
0.123267
0.124111
0.126603
0.130911
0.137308
0.145916
0.15682
0.170319
0.186494
0.205196
0.225849
0.247084
0.266084
0.277398
0.273997
0.258374
0.236065
0.212761
0.192797
0.178246
0.169368
0.165378
0.164993
0.166732
0.169151
0.171166
0.17233
0.17286
0.17342
0.174845
0.178113
0.184662
0.197107
0.219856
0.264829
0.351125
0.499817
0.705614
0.889527
0.930007
0.804132
0.608191
0.441053
0.343523
0.305919
0.302832
0.310313
0.307061
1.23253
0.486994
0.54992
0.521987
0.480276
0.447116
0.42564
0.413934
0.40523
0.401802
0.402668
0.40524
0.405884
0.400868
0.387701
0.365954
0.336909
0.302654
0.265733
0.229254
0.196253
0.168521
0.146391
0.129453
0.117134
0.108859
0.104095
0.102362
0.103224
0.106226
0.110843
0.116447
0.122359
0.127983
0.132974
0.137311
0.141227
0.145033
0.148967
0.153127
0.157494
0.161985
0.1665
0.170926
0.175092
0.17966
0.184382
0.188861
0.192571
0.194882
0.19514
0.192812
0.187713
0.180222
0.17127
0.161803
0.15208
0.141405
0.128883
0.114457
0.100064
0.0889793
0.0822413
0.0794268
0.0801277
0.0847667
0.0933248
0.104911
0.117053
0.126977
0.133189
0.135935
0.136475
0.136131
0.135761
0.135674
0.135795
0.135903
0.135837
0.135598
0.13533
0.135229
0.135422
0.135883
0.136434
0.136834
0.136869
0.136419
0.135472
0.134116
0.132501
0.130796
0.129144
0.127649
0.126369
0.125333
0.124557
0.124057
0.123852
0.12396
0.124388
0.12512
0.126108
0.127283
0.128537
0.12975
0.130822
0.131695
0.132406
0.133141
0.134303
0.136581
0.141011
0.14905
0.162846
0.185353
0.219106
0.262706
0.299104
0.301528
0.27378
0.24261
0.219071
0.200326
0.181973
0.163561
0.147665
0.135279
0.12607
0.119661
0.115522
0.113161
0.11223
0.112568
0.114218
0.117403
0.122454
0.12969
0.139124
0.151164
0.166036
0.183837
0.2044
0.226995
0.249701
0.267981
0.273357
0.263597
0.243305
0.218897
0.196396
0.179246
0.168337
0.162939
0.161525
0.162267
0.16345
0.163926
0.163411
0.16237
0.161619
0.161971
0.164172
0.169315
0.179753
0.198949
0.235694
0.305753
0.429074
0.614465
0.818119
0.925944
0.859423
0.679358
0.501181
0.385986
0.334522
0.323433
0.328826
0.327785
1.02548
0.501824
0.571814
0.550896
0.512773
0.480382
0.456948
0.439292
0.425218
0.414408
0.404268
0.392427
0.377139
0.357758
0.334661
0.308614
0.280198
0.249994
0.219295
0.190226
0.164847
0.144265
0.128596
0.117417
0.110138
0.106165
0.104978
0.106121
0.109164
0.113622
0.118908
0.124356
0.129341
0.133456
0.136623
0.13905
0.141064
0.142955
0.144901
0.146988
0.149274
0.151824
0.154717
0.158037
0.162209
0.167376
0.173337
0.179787
0.186249
0.192023
0.196206
0.197788
0.195874
0.190141
0.181403
0.171301
0.161243
0.151185
0.140159
0.126647
0.111227
0.0977196
0.0882186
0.0828043
0.0810972
0.0831847
0.089525
0.099707
0.111726
0.12283
0.131064
0.136038
0.138527
0.139602
0.140055
0.140281
0.140422
0.140491
0.140445
0.140234
0.139841
0.139313
0.138746
0.138239
0.137826
0.137446
0.136963
0.136224
0.135114
0.133596
0.13172
0.129606
0.127407
0.125272
0.123318
0.121626
0.120246
0.119212
0.11855
0.118282
0.118418
0.118944
0.119819
0.120969
0.122284
0.123625
0.124854
0.125863
0.126625
0.127277
0.128231
0.130291
0.134733
0.143316
0.158488
0.183539
0.221147
0.268262
0.30488
0.303701
0.271924
0.238432
0.213972
0.193893
0.173572
0.153861
0.137416
0.125093
0.116697
0.111088
0.10756
0.105522
0.104575
0.104545
0.105495
0.107692
0.111531
0.117448
0.125455
0.135994
0.149367
0.165809
0.185409
0.207909
0.23218
0.254935
0.267985
0.26539
0.249048
0.224931
0.200515
0.18091
0.167941
0.161082
0.158594
0.158307
0.158264
0.157323
0.155416
0.153243
0.151689
0.151456
0.153026
0.157081
0.165413
0.181435
0.211613
0.269475
0.372796
0.535705
0.739029
0.891994
0.887202
0.739155
0.561294
0.433442
0.369391
0.349086
0.349092
0.347765
0.832624
0.50602
0.588422
0.577018
0.541287
0.506055
0.476182
0.449416
0.426719
0.405666
0.384431
0.362057
0.338518
0.314329
0.289881
0.265029
0.239387
0.213136
0.187502
0.164293
0.144964
0.130105
0.119559
0.112793
0.109179
0.108133
0.109163
0.111845
0.115753
0.120385
0.125142
0.1294
0.132669
0.134751
0.135759
0.136003
0.13581
0.135431
0.135035
0.134765
0.134789
0.135324
0.136611
0.138868
0.142841
0.148077
0.154468
0.161894
0.170081
0.178448
0.1861
0.191854
0.19436
0.192383
0.185902
0.176337
0.165867
0.155445
0.145234
0.133211
0.119187
0.10519
0.0938336
0.0863989
0.0828836
0.083338
0.0882219
0.0973014
0.108799
0.120107
0.129279
0.135753
0.139996
0.142769
0.144629
0.145821
0.146437
0.146578
0.146377
0.145933
0.145273
0.144377
0.143246
0.141935
0.140543
0.139154
0.137781
0.136358
0.134777
0.13294
0.130803
0.128397
0.125821
0.123212
0.120709
0.118432
0.116471
0.114891
0.113743
0.11306
0.112864
0.113154
0.113897
0.115024
0.11643
0.117966
0.119475
0.120808
0.121874
0.122731
0.123724
0.125664
0.129969
0.138656
0.154439
0.180895
0.220938
0.270799
0.308994
0.307726
0.274662
0.239267
0.212712
0.190184
0.167603
0.146638
0.129807
0.117862
0.109865
0.104915
0.102023
0.100365
0.0994974
0.099221
0.0996025
0.100951
0.103715
0.108428
0.115138
0.124302
0.136259
0.151312
0.169682
0.1914
0.215866
0.24091
0.259445
0.264025
0.253009
0.230587
0.205033
0.183231
0.168233
0.159898
0.156323
0.155011
0.153798
0.151604
0.148609
0.145708
0.143781
0.143344
0.144619
0.147932
0.154577
0.167648
0.192204
0.2399
0.326954
0.468672
0.660502
0.837549
0.887372
0.781908
0.616017
0.482291
0.40857
0.379489
0.371956
0.367775
0.654926
0.494271
0.594169
0.595439
0.562189
0.52249
0.483305
0.448297
0.416528
0.386629
0.35787
0.330264
0.304197
0.279807
0.256613
0.233739
0.210648
0.187774
0.166431
0.148085
0.133666
0.123351
0.116767
0.113293
0.112274
0.113133
0.115405
0.118696
0.122611
0.126674
0.130332
0.133052
0.134488
0.134597
0.133609
0.131873
0.12971
0.127353
0.124967
0.122715
0.120814
0.119598
0.11955
0.12126
0.124948
0.129932
0.136046
0.143395
0.151976
0.161395
0.170859
0.179188
0.184972
0.186558
0.183241
0.175768
0.165981
0.155775
0.145683
0.134779
0.122244
0.109031
0.0974437
0.0891922
0.0847325
0.0843174
0.0884868
0.0970508
0.108229
0.11942
0.12878
0.135883
0.141196
0.145318
0.148571
0.150978
0.15245
0.15299
0.15277
0.15203
0.150951
0.14959
0.147933
0.145974
0.143772
0.141444
0.139101
0.136793
0.134491
0.132118
0.129592
0.126878
0.124005
0.121059
0.118159
0.115432
0.112991
0.11093
0.109323
0.108227
0.10768
0.1077
0.108268
0.109331
0.110794
0.112515
0.114331
0.116069
0.11759
0.118872
0.12015
0.12214
0.126269
0.134727
0.150451
0.177237
0.218357
0.270256
0.311613
0.313801
0.281998
0.244987
0.215347
0.189583
0.164506
0.142093
0.124697
0.11281
0.10518
0.100742
0.0982925
0.0969691
0.0962915
0.0958959
0.0958309
0.0964323
0.0982073
0.10179
0.107311
0.115247
0.125973
0.139819
0.157055
0.177854
0.201916
0.227803
0.249536
0.260375
0.255276
0.235722
0.209852
0.186183
0.169235
0.159433
0.154779
0.152466
0.150152
0.146863
0.143036
0.139718
0.137715
0.137294
0.138412
0.141136
0.146407
0.156939
0.176794
0.21579
0.28901
0.411685
0.586907
0.771522
0.863418
0.804464
0.660794
0.52866
0.448969
0.412522
0.396938
0.388117
0.493373
0.461823
0.583529
0.601896
0.573727
0.52961
0.48406
0.4415
0.402332
0.366371
0.333607
0.304236
0.278231
0.25497
0.233323
0.212233
0.191403
0.171511
0.153788
0.139347
0.128735
0.121891
0.118326
0.11736
0.118285
0.120484
0.123486
0.126931
0.130485
0.133751
0.136259
0.137571
0.137448
0.135943
0.133351
0.130053
0.126369
0.122496
0.118532
0.114544
0.110713
0.107624
0.106543
0.108948
0.112698
0.11756
0.123136
0.129872
0.137965
0.147229
0.157
0.166127
0.173207
0.176905
0.176291
0.171319
0.163116
0.153418
0.143354
0.132852
0.121407
0.1095
0.0988057
0.0908503
0.0862968
0.0856841
0.0897143
0.0982049
0.109313
0.120414
0.129747
0.137032
0.142832
0.147726
0.151929
0.155313
0.157625
0.158713
0.158654
0.157713
0.156189
0.154278
0.152045
0.149488
0.146625
0.143539
0.140356
0.137194
0.134107
0.131079
0.12805
0.124963
0.121796
0.118582
0.115399
0.112356
0.109564
0.107129
0.105142
0.10368
0.102801
0.102542
0.102905
0.103858
0.105323
0.107173
0.109252
0.111384
0.113405
0.11523
0.116981
0.119218
0.123242
0.131273
0.146405
0.172582
0.213477
0.266593
0.312348
0.321284
0.293434
0.255505
0.222268
0.192691
0.164738
0.140443
0.122015
0.109704
0.102125
0.097946
0.0958288
0.0948661
0.0944386
0.0940547
0.0936511
0.0935319
0.094333
0.0967732
0.101165
0.10799
0.11768
0.130575
0.146957
0.166985
0.190578
0.216377
0.239864
0.255573
0.25624