/*--------------------------------*- C++ -*----------------------------------*\
| =========                 |                                                 |
| \\      /  F ield         | OpenFOAM: The Open Source CFD Toolbox           |
|  \\    /   O peration     | Version:  2112                                  |
|   \\  /    A nd           | Website:  www.openfoam.com                      |
|    \\/     M anipulation  |                                                 |
\*---------------------------------------------------------------------------*/
FoamFile
{
    version     2.0;
    format      ascii;
    arch        "LSB;label=32;scalar=64";
    class       volScalarField;
    location    "0.23";
    object      k;
}
// * * * * * * * * * * * * * * * * * * * * * * * * * * * * * * * * * * * * * //

dimensions      [0 2 -2 0 0 0 0];

internalField   nonuniform List<scalar> 
12225
(
1.81963
3.16272
4.52659
6.03013
7.75689
9.73837
11.9534
14.3369
16.7968
19.2344
21.5652
23.7306
25.6998
27.4664
29.0355
30.4451
31.5515
32.1674
0.530929
0.644077
0.795809
0.989994
1.2299
1.51945
1.86748
2.28905
2.79981
3.41303
4.1279
4.92927
5.79276
6.69408
7.61517
8.56277
9.60976
10.6367
0.474748
0.483576
0.493345
0.506103
0.52462
0.551493
0.589874
0.644144
0.719512
0.821943
0.956558
1.1267
1.33351
1.57698
1.85684
2.18031
2.56474
3.02209
0.470314
0.471321
0.471775
0.47182
0.471709
0.471665
0.472014
0.473379
0.476845
0.483871
0.496081
0.51508
0.542289
0.579102
0.627007
0.688644
0.767528
0.868844
0.469477
0.469775
0.469659
0.469196
0.468439
0.467405
0.466082
0.464534
0.462915
0.461447
0.460399
0.460065
0.460799
0.4629
0.466622
0.472478
0.481123
0.493169
0.46919
0.469448
0.469409
0.469135
0.468665
0.468013
0.46717
0.466154
0.465007
0.463784
0.462546
0.461355
0.460258
0.459304
0.458549
0.458079
0.458003
0.4584
0.46905
0.469298
0.469374
0.469277
0.469039
0.468681
0.468197
0.467606
0.466933
0.466202
0.465439
0.464664
0.463896
0.46315
0.462446
0.461811
0.461283
0.460894
0.468962
0.469187
0.469332
0.469364
0.469292
0.469124
0.468865
0.46854
0.468163
0.46775
0.467317
0.466875
0.466434
0.466003
0.465596
0.46522
0.464895
0.464639
0.468898
0.469086
0.469258
0.469376
0.469422
0.469391
0.469289
0.469133
0.468939
0.468723
0.468498
0.468268
0.468042
0.467825
0.467625
0.467451
0.467313
0.467214
0.468846
0.468994
0.469159
0.469317
0.469445
0.469522
0.46954
0.469507
0.469442
0.469363
0.469278
0.469193
0.469114
0.469043
0.468987
0.468957
0.468957
0.468984
0.468802
0.468909
0.469052
0.469216
0.46938
0.469525
0.469636
0.46971
0.469756
0.469785
0.469809
0.469835
0.469868
0.469911
0.469968
0.470042
0.470136
0.470245
0.468768
0.468837
0.468953
0.469105
0.469275
0.469446
0.469605
0.469745
0.469866
0.469975
0.470078
0.470182
0.47029
0.470406
0.470533
0.470672
0.470823
0.470979
0.468734
0.46877
0.468857
0.468989
0.469151
0.469328
0.469508
0.469684
0.469854
0.470018
0.47018
0.470341
0.470504
0.470673
0.470848
0.47103
0.471218
0.471404
0.468699
0.468695
0.468753
0.468859
0.469003
0.469171
0.469353
0.469542
0.469735
0.469931
0.470129
0.470329
0.470531
0.470737
0.470945
0.471155
0.471365
0.471568
0.468665
0.468615
0.468643
0.468722
0.46884
0.468989
0.469159
0.469343
0.469537
0.46974
0.469949
0.470162
0.470379
0.470599
0.470819
0.471038
0.471254
0.471459
0.468635
0.468539
0.468531
0.468586
0.46868
0.468805
0.468954
0.469121
0.469302
0.469493
0.469693
0.469898
0.470107
0.470319
0.47053
0.470739
0.470944
0.471137
0.468612
0.468477
0.468435
0.468467
0.46854
0.468643
0.468769
0.468915
0.469075
0.469246
0.469426
0.469611
0.469799
0.469989
0.470178
0.470364
0.470545
0.470715
0.468599
0.468439
0.468371
0.468383
0.468443
0.468529
0.468639
0.468765
0.468905
0.469055
0.469212
0.469373
0.469536
0.4697
0.469862
0.47002
0.470172
0.470316
0.468599
0.468437
0.468364
0.468371
0.468426
0.468506
0.468606
0.468721
0.468847
0.46898
0.469118
0.469257
0.469396
0.469533
0.469666
0.469795
0.469917
0.47003
0.468616
0.468482
0.468434
0.468456
0.468517
0.468603
0.468706
0.46882
0.468939
0.46906
0.46918
0.469297
0.469408
0.469512
0.469609
0.469697
0.469777
0.469847
0.468644
0.468552
0.468538
0.46858
0.468651
0.468743
0.468848
0.468955
0.46906
0.469157
0.469243
0.469315
0.469375
0.469422
0.469459
0.469486
0.469504
0.469515
0.468683
0.468644
0.468665
0.468719
0.468798
0.468887
0.468974
0.469049
0.469105
0.469137
0.469145
0.469133
0.469105
0.469065
0.469015
0.468959
0.468898
0.468832
0.468732
0.468746
0.468789
0.468847
0.468907
0.468955
0.468979
0.468971
0.46893
0.468857
0.468755
0.468627
0.468481
0.468324
0.468158
0.467988
0.467814
0.46764
0.468789
0.468847
0.468896
0.468919
0.46891
0.468865
0.468774
0.468632
0.468443
0.468215
0.467956
0.467668
0.467357
0.467029
0.46669
0.466345
0.465995
0.46565
0.468859
0.468955
0.468973
0.468904
0.468761
0.46855
0.468272
0.467925
0.467511
0.467038
0.466517
0.465953
0.465357
0.464737
0.4641
0.463455
0.462808
0.462173
0.46898
0.469116
0.469068
0.468857
0.4685
0.46801
0.467397
0.466667
0.465827
0.464891
0.463875
0.462796
0.461671
0.460518
0.45936
0.458223
0.457134
0.456125
0.46931
0.469694
0.46975
0.469427
0.468785
0.467881
0.46676
0.465464
0.464043
0.462566
0.46112
0.459821
0.458816
0.458237
0.458211
0.458907
0.460512
0.463187
0.470914
0.474105
0.476718
0.478594
0.48026
0.482345
0.485491
0.490321
0.497415
0.507341
0.520728
0.538311
0.560879
0.58933
0.624651
0.667715
0.719306
0.779913
0.494313
0.534118
0.585992
0.652726
0.735885
0.835929
0.953075
1.0875
1.23956
1.41026
1.60173
1.81734
2.06053
2.33471
2.64299
2.98664
3.36522
3.77254
1.30089
2.11009
2.8752
3.64764
4.47514
5.38931
6.4078
7.53766
8.77754
10.1185
11.5446
13.0349
14.5649
16.1088
17.6414
19.1401
20.585
21.9536
0.331456
0.333599
0.338434
0.345889
0.356036
0.368924
0.384544
0.40283
0.423672
0.446921
0.472411
0.500265
0.530714
0.563429
0.59812
0.634677
0.673066
0.713271
0.755283
0.799102
0.844737
0.892201
0.941514
0.992696
1.04577
1.10074
1.15764
1.21648
1.27726
1.34
1.40469
1.47134
1.53994
1.61048
1.68294
1.7573
1.83353
1.91159
1.99146
2.07307
2.15639
2.24134
2.32786
2.41588
2.50532
2.59609
2.68811
2.78126
2.87546
2.97058
3.06653
3.16317
3.26039
3.35806
3.45606
3.55426
3.65253
3.75073
3.84874
3.94643
4.04365
4.14029
4.23622
4.3313
4.42542
4.51845
4.61027
4.70077
4.78983
4.87733
4.96318
5.04726
5.12948
5.20974
5.28795
5.36402
5.43787
5.50941
5.57859
5.64532
5.70955
5.77122
5.83027
5.88664
5.94029
5.99117
6.03922
6.0844
6.12667
6.16597
6.20227
6.23552
6.26567
6.29266
6.31644
6.33695
6.35409
6.36776
6.37779
6.38438
6.38806
6.38886
6.38676
6.38179
6.37395
6.36328
6.3498
6.33355
6.31457
6.29288
6.26854
6.24158
6.21205
6.17999
6.14543
6.10843
6.06901
6.02722
5.9831
5.93668
5.888
5.83708
5.78396
5.72867
5.67122
5.61164
5.54996
5.4862
5.42037
5.3525
5.28261
5.21074
5.13693
5.06121
4.98364
4.90429
4.82321
4.7405
4.65625
4.57055
4.48351
4.39522
4.30579
4.21531
4.12385
4.03152
3.93843
3.84476
3.75083
3.65723
3.56515
3.47807
3.39773
3.32794
3.28108
3.26399
3.27837
3.3196
3.37806
3.43969
3.50718
3.5763
3.64542
3.71378
3.7809
3.84655
3.9106
3.97299
4.03369
4.09271
4.15007
4.20579
4.25993
4.31252
4.36359
4.41317
4.46163
4.50912
4.56215
4.60428
0.333762
0.334651
0.338145
0.344017
0.352276
0.362906
0.375842
0.390979
0.408187
0.427318
0.448228
0.470808
0.495024
0.520763
0.547876
0.576244
0.605787
0.636453
0.668209
0.701032
0.734907
0.769825
0.805777
0.842757
0.880756
0.919766
0.959774
1.00077
1.04273
1.08564
1.12947
1.17421
1.21983
1.26628
1.31355
1.36159
1.41036
1.45983
1.50994
1.56066
1.61192
1.66368
1.71589
1.76848
1.8214
1.87458
1.92798
1.98153
2.03516
2.08881
2.14243
2.19596
2.24932
2.30248
2.35536
2.40791
2.46008
2.51182
2.56308
2.61381
2.66397
2.71351
2.7624
2.81059
2.85805
2.90475
2.95065
2.99573
3.03996
3.08331
3.12577
3.1673
3.20791
3.24756
3.28626
3.32399
3.36074
3.39651
3.4313
3.4651
3.49792
3.52976
3.56062
3.5905
3.61941
3.64735
3.67432
3.70033
3.72539
3.7495
3.77267
3.7949
3.8162
3.83658
3.85605
3.87461
3.89229
3.90913
3.92532
3.94118
3.95642
3.971
3.98493
3.99823
4.01091
4.02298
4.03447
4.04539
4.05576
4.06559
4.07489
4.08367
4.09195
4.09972
4.107
4.11377
4.12005
4.12581
4.13105
4.13574
4.13987
4.14339
4.14628
4.14847
4.14992
4.15056
4.15032
4.1491
4.14681
4.14334
4.13856
4.13235
4.12455
4.11501
4.10356
4.09003
4.07422
4.05596
4.03504
4.01129
3.9845
3.9545
3.92112
3.88422
3.84367
3.79938
3.75133
3.69958
3.64434
3.58604
3.52562
3.46506
3.40648
3.35503
3.31892
3.30363
3.31051
3.33613
3.37349
3.41314
3.45357
3.49255
3.52882
3.56171
3.59086
3.61606
3.63723
3.65437
3.66756
3.67693
3.68264
3.68493
3.68406
3.68031
3.67405
3.66574
3.65614
3.64708
3.64294
3.65713
0.339083
0.337732
0.339463
0.343639
0.350152
0.358914
0.369796
0.382651
0.397325
0.413663
0.431516
0.450757
0.471279
0.49297
0.515717
0.539421
0.564003
0.589406
0.615588
0.642519
0.670177
0.698544
0.727605
0.757346
0.787752
0.818806
0.850491
0.882786
0.915673
0.949126
0.983121
1.01763
1.05263
1.08809
1.12398
1.16027
1.19691
1.23389
1.27116
1.30869
1.34644
1.38437
1.42246
1.46066
1.49893
1.53724
1.57556
1.61385
1.65207
1.69021
1.72822
1.76608
1.80377
1.84125
1.87852
1.91554
1.9523
1.98878
2.02498
2.06087
2.09644
2.13168
2.16659
2.20116
2.23538
2.26923
2.30273
2.33586
2.36862
2.401
2.43302
2.46465
2.49591
2.5268
2.55732
2.58746
2.61725
2.64668
2.67575
2.70448
2.73286
2.7609
2.78862
2.816
2.84307
2.86981
2.89625
2.92238
2.94821
2.97375
2.99901
3.024
3.04873
3.07321
3.09747
3.12154
3.14546
3.16929
3.19322
3.21706
3.24071
3.26416
3.2874
3.31043
3.33324
3.35584
3.37822
3.40039
3.42234
3.44407
3.46557
3.48684
3.50788
3.52868
3.54922
3.56951
3.58952
3.60924
3.62866
3.64774
3.66646
3.68479
3.70269
3.72012
3.73701
3.75332
3.76897
3.78387
3.79794
3.81107
3.82315
3.83403
3.84357
3.8516
3.85795
3.86241
3.86477
3.86481
3.8623
3.85698
3.84862
3.83697
3.82179
3.80287
3.78003
3.75313
3.72212
3.68705
3.64813
3.60585
3.56113
3.51546
3.4708
3.43093
3.4015
3.38675
3.38741
3.40109
3.42312
3.44786
3.47304
3.49666
3.5174
3.53451
3.54758
3.55639
3.56086
3.56101
3.55695
3.54886
3.53698
3.52159
3.50302
3.48164
3.45789
3.43235
3.40593
3.38062
3.35981
3.35336
0.345544
0.341334
0.341249
0.343775
0.348694
0.355852
0.365063
0.376136
0.388892
0.403163
0.418793
0.435645
0.453595
0.47253
0.492346
0.512953
0.534278
0.556262
0.578862
0.602046
0.625789
0.650071
0.674874
0.700184
0.725983
0.752256
0.778985
0.806152
0.833738
0.861722
0.890085
0.918805
0.947859
0.977225
1.00688
1.0368
1.06697
1.09735
1.12794
1.1587
1.18961
1.22066
1.25183
1.28309
1.31443
1.34583
1.37728
1.40876
1.44027
1.47178
1.50331
1.53483
1.56635
1.59785
1.62935
1.66083
1.6923
1.72376
1.75521
1.78665
1.81808
1.8495
1.88092
1.91233
1.94374
1.97514
2.00654
2.03792
2.06929
2.10064
2.13198
2.1633
2.19459
2.22585
2.25708
2.28828
2.31944
2.35056
2.38163
2.41266
2.44362
2.47453
2.50538
2.53615
2.56685
2.59748
2.62802
2.65847
2.68884
2.71913
2.74933
2.77944
2.80949
2.83947
2.8694
2.89931
2.92923
2.9592
2.98912
3.01891
3.04852
3.07794
3.10714
3.13611
3.16485
3.19333
3.22154
3.24947
3.27711
3.30444
3.33145
3.35813
3.38446
3.41043
3.43603
3.46124
3.48605
3.51045
3.53441
3.55792
3.58095
3.60349
3.62549
3.64693
3.66777
3.68797
3.70747
3.72621
3.74414
3.76117
3.77721
3.79217
3.80593
3.81835
3.8293
3.83861
3.84611
3.8516
3.85488
3.85572
3.8539
3.8492
3.84138
3.83022
3.81556
3.79725
3.77522
3.74954
3.7204
3.68827
3.6539
3.61825
3.58277
3.55015
3.5247
3.50927
3.5044
3.50843
3.51844
3.53121
3.54468
3.55696
3.56672
3.5732
3.57597
3.57484
3.56973
3.56068
3.54781
3.53132
3.51144
3.48847
3.46274
3.43464
3.40462
3.3733
3.34162
3.31151
3.2855
3.26983
0.353602
0.345589
0.343543
0.344465
0.34795
0.353743
0.361586
0.371245
0.382513
0.395208
0.409167
0.424245
0.440315
0.457263
0.474991
0.493414
0.512464
0.532085
0.552236
0.572884
0.594005
0.615578
0.637588
0.660019
0.682857
0.70609
0.729702
0.75368
0.77801
0.802678
0.827668
0.852967
0.878561
0.904436
0.930579
0.956978
0.983621
1.0105
1.0376
1.06491
1.09243
1.12015
1.14807
1.17618
1.20448
1.23297
1.26165
1.29052
1.31958
1.34884
1.37831
1.40798
1.43788
1.468
1.49835
1.52895
1.55979
1.59089
1.62225
1.65388
1.68577
1.71794
1.75037
1.78308
1.81604
1.84927
1.88274
1.91646
1.9504
1.98457
2.01893
2.05349
2.08823
2.12313
2.15818
2.19337
2.22867
2.26408
2.29958
2.33514
2.37077
2.40642
2.4421
2.47779
2.51347
2.54913
2.58476
2.62035
2.65589
2.69138
2.72681
2.76217
2.79747
2.83271
2.86791
2.90307
2.93817
2.97313
3.00789
3.04241
3.07666
3.1106
3.14423
3.17751
3.21042
3.24294
3.27505
3.30672
3.33794
3.36868
3.39893
3.42866
3.45785
3.48648
3.51454
3.54202
3.56889
3.59514
3.62076
3.64573
3.67002
3.69362
3.7165
3.73864
3.76001
3.78058
3.80031
3.81917
3.83712
3.8541
3.87004
3.88489
3.89855
3.91094
3.92195
3.93146
3.93935
3.94546
3.94964
3.95171
3.9515
3.94881
3.94347
3.93529
3.92413
3.90988
3.8925
3.87206
3.84875
3.82295
3.7952
3.76591
3.73622
3.70802
3.68434
3.66728
3.65727
3.65324
3.65348
3.65625
3.66002
3.66313
3.66429
3.66273
3.65805
3.65
3.63854
3.62368
3.60555
3.58432
3.5602
3.53349
3.50448
3.47353
3.44111
3.40783
3.37463
3.34322
3.31544
3.29505
0.362733
0.350111
0.345945
0.345298
0.347488
0.352111
0.35882
0.367326
0.377397
0.388837
0.401477
0.415171
0.42979
0.445225
0.46138
0.478177
0.495551
0.51345
0.531835
0.550677
0.569951
0.58964
0.609731
0.63021
0.651068
0.672295
0.693882
0.715821
0.738102
0.76072
0.783666
0.806936
0.830522
0.854421
0.87863
0.903146
0.927968
0.953096
0.978533
1.00428
1.03034
1.05673
1.08343
1.11048
1.13786
1.1656
1.1937
1.22218
1.25105
1.28031
1.30999
1.34009
1.37063
1.40163
1.43308
1.46501
1.49742
1.53031
1.5637
1.59758
1.63195
1.66682
1.70217
1.73799
1.77428
1.81102
1.84819
1.88578
1.92376
1.96211
2.0008
2.03982
2.07914
2.11873
2.15856
2.19862
2.23887
2.2793
2.31986
2.36054
2.40131
2.44214
2.48301
2.52389
2.56477
2.60562
2.64643
2.68719
2.72787
2.76848
2.809
2.84943
2.88976
2.92999
2.97011
3.01013
3.04987
3.08933
3.12846
3.16724
3.20563
3.24359
3.28111
3.31814
3.35466
3.39065
3.42606
3.46088
3.49507
3.52861
3.56146
3.59361
3.62502
3.65568
3.68555
3.71463
3.74289
3.77032
3.79689
3.82261
3.84744
3.87136
3.89436
3.91641
3.9375
3.95759
3.97668
3.99473
4.01171
4.0276
4.04235
4.05591
4.06824
4.07927
4.08892
4.09713
4.10379
4.10881
4.11207
4.11344
4.1128
4.11001
4.10492
4.09742
4.0874
4.07478
4.05956
4.04184
4.02176
3.99958
3.97571
3.9503
3.92388
3.89783
3.87434
3.85498
3.84013
3.82918
3.82121
3.81541
3.81076
3.8059
3.79968
3.79135
3.78047
3.76682
3.75032
3.73097
3.70887
3.68417
3.65707
3.62781
3.59667
3.56399
3.53019
3.4959
3.46198
3.42993
3.401
3.37741
0.372709
0.354631
0.348151
0.345951
0.346967
0.350586
0.356345
0.363896
0.372976
0.383378
0.394931
0.407489
0.42093
0.435147
0.45005
0.465567
0.481637
0.498214
0.51526
0.53275
0.550663
0.568985
0.587704
0.606812
0.626303
0.646172
0.666416
0.687032
0.708018
0.729373
0.751098
0.773194
0.795665
0.818513
0.841745
0.865367
0.889388
0.913816
0.938663
0.963941
0.989662
1.01584
1.04249
1.06963
1.09727
1.12544
1.15414
1.1834
1.21323
1.24365
1.27467
1.30632
1.3386
1.37153
1.40512
1.43939
1.47433
1.50995
1.54626
1.58324
1.62091
1.65924
1.69823
1.73786
1.77811
1.81897
1.8604
1.90237
1.94487
1.98785
2.03128
2.07513
2.11936
2.16395
2.20885
2.25403
2.29945
2.34509
2.3909
2.43684
2.48289
2.52899
2.57513
2.62127
2.66739
2.71346
2.75946
2.80538
2.8512
2.89691
2.94249
2.98793
3.03323
3.07838
3.12337
3.16803
3.2123
3.25617
3.2996
3.34256
3.38501
3.42692
3.46825
3.50896
3.54901
3.58838
3.62702
3.66491
3.70201
3.73828
3.77368
3.80819
3.84178
3.8744
3.90605
3.93668
3.96629
3.99486
4.02237
4.04881
4.07415
4.09837
4.12146
4.1434
4.16417
4.18375
4.20213
4.21929
4.23522
4.24989
4.2633
4.2754
4.28616
4.29554
4.3035
4.31
4.31496
4.31833
4.32002
4.31995
4.31804
4.31418
4.30829
4.30028
4.29009
4.27768
4.26305
4.24638
4.22778
4.20741
4.18544
4.16183
4.13681
4.11132
4.08694
4.06486
4.04545
4.02844
4.01343
4.00014
3.98797
3.97592
3.96299
3.94849
3.93199
3.91324
3.89215
3.86871
3.84299
3.81511
3.78525
3.75361
3.72044
3.68607
3.6509
3.6155
3.58068
3.54766
3.51729
3.49084
0.383387
0.358943
0.349928
0.346176
0.346118
0.348868
0.353825
0.360569
0.368807
0.378321
0.388942
0.400528
0.412964
0.426152
0.440008
0.454466
0.469472
0.484982
0.500966
0.5174
0.534267
0.551556
0.56926
0.587375
0.605898
0.624829
0.644171
0.663926
0.684098
0.704693
0.725717
0.74718
0.76909
0.791459
0.814301
0.837628
0.861456
0.885802
0.910685
0.936123
0.962135
0.988742
1.01596
1.04382
1.07234
1.10154
1.13143
1.16205
1.19341
1.22553
1.25842
1.29211
1.32661
1.36193
1.39809
1.43509
1.47294
1.51164
1.55119
1.59158
1.63281
1.67487
1.71773
1.76138
1.8058
1.85095
1.8968
1.94332
1.99048
2.03822
2.08652
2.13532
2.18459
2.23428
2.28436
2.33476
2.38547
2.43642
2.48757
2.53888
2.5903
2.64178
2.69327
2.74476
2.7962
2.84756
2.89883
2.94999
3.00101
3.05188
3.10259
3.15313
3.20347
3.25361
3.30345
3.35279
3.40164
3.44999
3.49779
3.54502
3.59161
3.63753
3.68273
3.72718
3.77083
3.81364
3.85557
3.89659
3.93666
3.97572
4.01375
4.0507
4.08653
4.12121
4.1547
4.18698
4.21802
4.24782
4.27636
4.30361
4.32956
4.35419
4.37749
4.39943
4.41999
4.43916
4.45694
4.47331
4.48828
4.50184
4.51397
4.52465
4.53387
4.54161
4.54784
4.55254
4.55568
4.5572
4.55707
4.55523
4.55164
4.54621
4.53889
4.52967
4.51851
4.50541
4.49041
4.47363
4.45519
4.43517
4.41357
4.39026
4.36529
4.33926
4.31329
4.2883
4.26464
4.24228
4.22114
4.20124
4.18232
4.16366
4.1445
4.12421
4.10238
4.07875
4.05322
4.02577
3.99644
3.96533
3.93259
3.8984
3.863
3.82666
3.78978
3.75289
3.71669
3.68218
3.64987
3.62049
0.394659
0.3629
0.351116
0.345811
0.344759
0.34675
0.351016
0.357063
0.364565
0.373296
0.383088
0.393811
0.405357
0.417638
0.43058
0.444125
0.458223
0.472839
0.487944
0.503518
0.51955
0.536031
0.552958
0.57033
0.588149
0.606419
0.625147
0.64434
0.664008
0.684161
0.704813
0.725977
0.747667
0.769903
0.792701
0.816083
0.840069
0.864681
0.889944
0.915882
0.942519
0.969881
0.997992
1.02688
1.05656
1.08707
1.11843
1.15066
1.18378
1.21781
1.25278
1.2887
1.32559
1.36345
1.40231
1.44218
1.48305
1.52492
1.56781
1.61169
1.65656
1.7024
1.7492
1.79692
1.84554
1.89504
1.94536
1.99648
2.04835
2.10092
2.15414
2.20797
2.26235
2.31723
2.37257
2.4283
2.48439
2.54077
2.59739
2.65418
2.7111
2.76807
2.82505
2.882
2.93888
2.99566
3.05231
3.10882
3.16516
3.22132
3.27727
3.33301
3.38851
3.44375
3.4984
3.55249
3.60601
3.65892
3.71118
3.76274
3.81354
3.86352
3.91265
3.96087
4.00814
4.05442
4.09967
4.14383
4.18687
4.22875
4.26941
4.3088
4.34689
4.38362
4.41896
4.45289
4.48538
4.51641
4.54598
4.57406
4.60064
4.6257
4.64923
4.6712
4.69159
4.71039
4.7276
4.74322
4.75726
4.76972
4.78061
4.7899
4.79758
4.80365
4.80812
4.81097
4.81218
4.81173
4.80959
4.80575
4.80019
4.79286
4.78375
4.77285
4.76016
4.7457
4.72954
4.71176
4.69247
4.67168
4.64933
4.62524
4.59935
4.57203
4.54405
4.51609
4.48852
4.46144
4.43495
4.40924
4.38427
4.35959
4.33463
4.30889
4.28197
4.25364
4.22377
4.19235
4.15938
4.12496
4.0892
4.05229
4.01441
3.97583
3.93692
3.89815
3.86013
3.82367
3.78901
3.75658
0.406438
0.366409
0.351631
0.34477
0.342794
0.344108
0.347766
0.353192
0.36003
0.368046
0.377079
0.387009
0.397741
0.409198
0.421318
0.434048
0.447347
0.461185
0.475537
0.490389
0.50573
0.521556
0.537867
0.554664
0.571954
0.589745
0.608045
0.626868
0.646226
0.666136
0.686613
0.707677
0.729347
0.751646
0.774596
0.798222
0.82255
0.847608
0.873423
0.900025
0.927442
0.955704
0.984839
1.01488
1.04585
1.07777
1.11069
1.14461
1.17957
1.21559
1.25269
1.29089
1.33021
1.37066
1.41226
1.45502
1.49893
1.54401
1.59025
1.63764
1.68617
1.73583
1.78658
1.8384
1.89125
1.94512
1.99995
2.0557
2.11233
2.16978
2.22799
2.28692
2.34649
2.40666
2.46737
2.52855
2.59014
2.65208
2.7143
2.77672
2.83927
2.90187
2.96447
3.02701
3.08944
3.15175
3.2139
3.27587
3.33763
3.39917
3.46047
3.52152
3.5823
3.64243
3.70193
3.76079
3.819
3.87648
3.93319
3.98905
4.04401
4.09801
4.15099
4.2029
4.2537
4.30333
4.35176
4.39894
4.44483
4.48936
4.53251
4.57421
4.61441
4.65304
4.69007
4.72548
4.75925
4.79136
4.8218
4.85055
4.8776
4.90295
4.92658
4.94845
4.96853
4.98683
5.00335
5.01811
5.0311
5.04236
5.05189
5.05967
5.0657
5.06999
5.07255
5.0734
5.07253
5.06994
5.06562
5.05957
5.0518
5.04228
5.03103
5.01805
5.00337
4.98702
4.96906
4.94959
4.92866
4.90629
4.88237
4.85672
4.82923
4.80011
4.76987
4.73902
4.70789
4.67665
4.64551
4.61473
4.5844
4.5543
4.52404
4.49322
4.46151
4.4287
4.39467
4.35938
4.32285
4.28513
4.24633
4.2066
4.16613
4.12515
4.08399
4.0431
4.00297
3.96427
3.92704
3.89151
0.41866
0.369431
0.351452
0.343039
0.340195
0.340893
0.343996
0.348849
0.355065
0.362409
0.370727
0.379912
0.389883
0.400575
0.411936
0.423924
0.436503
0.449649
0.463341
0.477567
0.492321
0.507599
0.523405
0.539741
0.556619
0.574046
0.592038
0.610609
0.629776
0.649558
0.669977
0.691053
0.712812
0.735278
0.75848
0.782445
0.807205
0.83279
0.859234
0.886569
0.914828
0.944046
0.974255
1.00549
1.03778
1.07116
1.10566
1.14131
1.17814
1.21617
1.25543
1.29594
1.33772
1.38079
1.42516
1.47084
1.51785
1.56617
1.61582
1.66677
1.71903
1.77255
1.82732
1.88329
1.94045
1.99875
2.05815
2.11861
2.18007
2.24247
2.30576
2.36987
2.43474
2.5003
2.56649
2.63323
2.70046
2.76808
2.83603
2.90421
2.97252
3.04086
3.10916
3.17738
3.24546
3.31337
3.38108
3.44856
3.5158
3.58276
3.64944
3.71584
3.78153
3.8465
3.91075
3.97428
4.03704
4.09895
4.15994
4.21991
4.27882
4.33658
4.39316
4.44848
4.50251
4.55519
4.60649
4.65635
4.70473
4.75159
4.79686
4.84051
4.88248
4.92265
4.96101
4.99753
5.03221
5.06503
5.09597
5.12504
5.15222
5.1775
5.20092
5.22238
5.24183
5.25931
5.27485
5.28844
5.30011
5.30988
5.31777
5.32378
5.32792
5.33021
5.33066
5.3293
5.32613
5.32117
5.31443
5.30592
5.29566
5.28367
5.26995
5.25453
5.23745
5.21876
5.19853
5.17682
5.15368
5.12913
5.10305
5.0753
5.04574
5.01449
4.98187
4.94823
4.91387
4.87899
4.84383
4.80867
4.77368
4.73879
4.70376
4.66831
4.63219
4.59523
4.55731
4.51838
4.47846
4.43758
4.39585
4.35338
4.31034
4.26695
4.22352
4.18043
4.13811
4.09708
4.05723
4.01872
0.431297
0.371986
0.350627
0.340669
0.336996
0.337115
0.33969
0.34399
0.349606
0.3563
0.363931
0.372404
0.381653
0.391626
0.402282
0.413587
0.425511
0.438033
0.451137
0.464814
0.479057
0.493867
0.509246
0.525202
0.541744
0.558887
0.576646
0.595039
0.614086
0.633811
0.654237
0.675391
0.6973
0.719994
0.743504
0.767863
0.793105
0.819266
0.846383
0.874493
0.903635
0.933848
0.965171
0.997641
1.0313
1.06617
1.10231
1.13974
1.1785
1.21861
1.26011
1.30302
1.34736
1.39315
1.44041
1.48914
1.53936
1.59107
1.64427
1.69895
1.75507
1.81262
1.87156
1.93185
1.99344
2.0563
2.1204
2.18567
2.25206
2.31952
2.38797
2.45736
2.52762
2.59868
2.67046
2.74287
2.81582
2.88923
2.963
3.03701
3.11113
3.18525
3.2593
3.33321
3.40694
3.48044
3.55369
3.62666
3.69932
3.77166
3.84364
3.91482
3.98517
4.05472
4.12345
4.19132
4.25829
4.32428
4.38915
4.45281
4.51519
4.57625
4.63591
4.69413
4.75085
4.80603
4.85962
4.91159
4.96188
5.01045
5.05725
5.10226
5.14544
5.18655
5.22563
5.26267
5.29767
5.33061
5.36149
5.3903
5.41705
5.44172
5.46431
5.48479
5.50314
5.51936
5.53348
5.5455
5.55545
5.56336
5.56925
5.57314
5.57506
5.57502
5.57305
5.56917
5.56341
5.55579
5.54633
5.53508
5.52205
5.50726
5.49077
5.47259
5.45278
5.43139
5.40849
5.38415
5.3584
5.33125
5.30262
5.2724
5.24048
5.20689
5.17182
5.13554
5.09827
5.06021
5.0216
4.9827
4.94371
4.90466
4.86545
4.82589
4.78581
4.7451
4.70364
4.66142
4.6184
4.57464
4.53021
4.4852
4.43978
4.39414
4.34855
4.30336
4.25894
4.21569
4.17339
4.13214
0.444386
0.374154
0.34926
0.337763
0.333287
0.332837
0.334886
0.338632
0.343647
0.3497
0.356659
0.364447
0.373011
0.38231
0.392312
0.40299
0.41432
0.426282
0.438864
0.452057
0.465855
0.480261
0.495279
0.510918
0.527188
0.544105
0.561688
0.579959
0.598943
0.618666
0.639157
0.660445
0.682564
0.705547
0.72943
0.754251
0.780047
0.80686
0.83473
0.863701
0.893816
0.92512
0.95766
0.99148
1.02662
1.06314
1.10107
1.14045
1.18132
1.22371
1.26766
1.3132
1.36035
1.40913
1.45955
1.51162
1.56536
1.62075
1.67781
1.73651
1.79683
1.85872
1.92212
1.98699
2.05326
2.12091
2.18988
2.26012
2.33159
2.4042
2.47792
2.55267
2.6284
2.70502
2.78245
2.86057
2.93929
3.0185
3.09808
3.17789
3.25776
3.33758
3.41728
3.49679
3.57605
3.65501
3.73365
3.81192
3.88986
3.96723
4.04366
4.11916
4.19373
4.26734
4.33996
4.41156
4.48209
4.55155
4.61962
4.68622
4.75132
4.81488
4.87683
4.93712
4.9957
5.05253
5.10757
5.16078
5.21212
5.26154
5.30898
5.3544
5.39776
5.43894
5.47792
5.51469
5.54923
5.58153
5.61161
5.63945
5.66506
5.68844
5.70957
5.72845
5.74506
5.75943
5.77155
5.78145
5.78916
5.79471
5.79813
5.79945
5.79871
5.79593
5.79115
5.78439
5.77568
5.76507
5.75259
5.73828
5.72218
5.70433
5.68477
5.66355
5.64073
5.61637
5.59054
5.56328
5.53465
5.50464
5.47323
5.44034
5.40588
5.36984
5.33235
5.29356
5.25366
5.21283
5.17126
5.1292
5.08685
5.04428
5.00148
4.95837
4.91486
4.87087
4.82633
4.78122
4.73552
4.68924
4.64245
4.59523
4.54772
4.50011
4.45263
4.4056
4.35933
4.31412
4.26969
4.22609
0.45807
0.376079
0.347516
0.334483
0.329205
0.328173
0.329671
0.33284
0.33724
0.342651
0.348954
0.356085
0.364004
0.372681
0.382089
0.392204
0.403007
0.414479
0.426608
0.439386
0.45281
0.466881
0.481607
0.496997
0.513066
0.52983
0.54731
0.565532
0.584529
0.604333
0.624979
0.646504
0.668945
0.692341
0.716736
0.742172
0.768692
0.796342
0.825167
0.855217
0.886542
0.919194
0.953227
0.988691
1.02564
1.06414
1.10423
1.14596
1.18937
1.23449
1.28137
1.33002
1.38048
1.43277
1.4869
1.54286
1.60067
1.66031
1.72178
1.78506
1.85013
1.91688
1.98523
2.05511
2.12645
2.19921
2.27331
2.34872
2.42539
2.50327
2.5823
2.66245
2.74365
2.8258
2.90881
2.99256
3.07692
3.16176
3.24697
3.33238
3.41771
3.50295
3.58803
3.67284
3.75732
3.84141
3.92507
4.00826
4.09055
4.17179
4.25196
4.33102
4.40895
4.48572
4.56129
4.6356
4.70858
4.78017
4.85021
4.9186
4.98528
5.0502
5.11329
5.17452
5.23382
5.29117
5.34652
5.39985
5.45111
5.50026
5.54724
5.59201
5.63452
5.67471
5.71255
5.74803
5.78113
5.81184
5.84018
5.86615
5.88975
5.91099
5.92986
5.94636
5.9605
5.97228
5.98172
5.98884
5.99369
5.99629
5.9967
5.99494
5.99105
5.98508
5.97705
5.96701
5.955
5.94105
5.92522
5.90756
5.88812
5.86695
5.84409
5.81962
5.79359
5.76606
5.73711
5.70679
5.67513
5.64216
5.60787
5.57223
5.53517
5.49668
5.45681
5.41568
5.37341
5.33015
5.28607
5.24138
5.19626
5.15078
5.10501
5.05895
5.01258
4.96587
4.91877
4.87126
4.82333
4.77499
4.72628
4.67726
4.62807
4.57888
4.5299
4.48141
4.43366
4.3869
4.34078
4.29531
0.472648
0.377985
0.345624
0.331046
0.324944
0.323286
0.324184
0.326733
0.330496
0.335262
0.34093
0.347446
0.354778
0.362902
0.371793
0.38143
0.391792
0.402864
0.414631
0.427087
0.440229
0.454064
0.468601
0.483855
0.499845
0.516592
0.534122
0.552454
0.571628
0.591696
0.612702
0.63469
0.657709
0.681807
0.707032
0.733438
0.761074
0.789991
0.82024
0.851874
0.884958
0.919555
0.955725
0.993506
1.03297
1.0742
1.11725
1.16218
1.20898
1.25771
1.3084
1.36108
1.41578
1.47253
1.5313
1.59211
1.65492
1.7197
1.78644
1.85512
1.92575
1.99811
2.072
2.14743
2.22431
2.30258
2.38213
2.46286
2.54483
2.628
2.71235
2.79782
2.8843
2.9717
3.05993
3.14883
3.23827
3.32805
3.41799
3.50799
3.59806
3.68812
3.77795
3.86737
3.95635
4.0448
4.13232
4.21863
4.30375
4.38763
4.47022
4.55149
4.63138
4.70985
4.78687
4.86237
4.93627
5.00848
5.07892
5.1475
5.21416
5.27885
5.34152
5.40212
5.46061
5.51696
5.57114
5.62313
5.67287
5.72033
5.76547
5.80823
5.84859
5.88651
5.92196
5.95493
5.98541
6.0134
6.03893
6.06199
6.0826
6.10076
6.11647
6.12974
6.14059
6.14901
6.15505
6.15873
6.16009
6.15917
6.15603
6.1507
6.14323
6.13365
6.12203
6.10839
6.09278
6.07526
6.05588
6.0347
6.01178
5.98718
5.96096
5.93317
5.9039
5.8732
5.84115
5.8078
5.77316
5.73726
5.70015
5.66182
5.62222
5.58134
5.53921
5.4959
5.45151
5.40614
5.35996
5.31312
5.26579
5.21802
5.16993
5.12158
5.07299
5.02416
4.97508
4.92573
4.87611
4.82622
4.77609
4.72576
4.67538
4.6251
4.57512
4.52564
4.47689
4.42908
4.3818
4.33505
0.489301
0.380282
0.343843
0.327643
0.320633
0.318246
0.318445
0.320298
0.323379
0.327492
0.332548
0.338501
0.34532
0.352981
0.361457
0.370728
0.380772
0.391574
0.40312
0.415406
0.428434
0.442215
0.456768
0.472118
0.488295
0.505333
0.523267
0.542133
0.561961
0.582784
0.60467
0.627694
0.651921
0.677415
0.704236
0.732449
0.76212
0.793311
0.826054
0.860416
0.896499
0.934433
0.974155
1.0156
1.05892
1.10424
1.15167
1.20137
1.25304
1.3068
1.36272
1.42082
1.48114
1.54367
1.60841
1.67532
1.74435
1.81542
1.88843
1.96319
2.03973
2.11797
2.19776
2.27904
2.36173
2.44567
2.53072
2.61679
2.70404
2.79243
2.88186
2.97227
3.06356
3.15561
3.24829
3.34148
3.435
3.52873
3.62261
3.71661
3.81066
3.90446
3.99789
4.09048
4.18188
4.27189
4.36055
4.44782
4.53366
4.61802
4.70087
4.78214
4.86178
4.93975
5.01599
5.09044
5.16303
5.23367
5.30231
5.36889
5.43337
5.49571
5.55588
5.61383
5.66954
5.72297
5.77409
5.82289
5.86933
5.91337
5.95496
5.99408
6.03069
6.0648
6.09637
6.12542
6.15193
6.17591
6.19739
6.21638
6.23288
6.24691
6.25846
6.26756
6.27422
6.27846
6.28032
6.27984
6.27706
6.27203
6.26481
6.25543
6.24395
6.23041
6.21486
6.19735
6.17793
6.15666
6.1336
6.10882
6.08239
6.05438
6.02483
5.99383
5.96143
5.9277
5.89272
5.85654
5.8192
5.78076
5.74122
5.70059
5.65887
5.61604
5.57213
5.52717
5.48123
5.43441
5.38681
5.33858
5.28984
5.24056
5.19089
5.14097
5.09086
5.04057
4.99013
4.93953
4.8888
4.83794
4.78696
4.73593
4.68495
4.63417
4.58373
4.53384
4.48466
4.43636
4.38854
4.34114
0.507312
0.383272
0.342889
0.325092
0.317093
0.313865
0.313276
0.314394
0.316812
0.320346
0.324909
0.330452
0.336939
0.34434
0.352624
0.361768
0.371756
0.382577
0.394226
0.406707
0.420033
0.434226
0.449318
0.465351
0.482384
0.500473
0.519667
0.540019
0.561602
0.584521
0.60866
0.633963
0.660717
0.689025
0.718958
0.750594
0.784038
0.819453
0.856639
0.895675
0.936669
0.979685
1.0247
1.07177
1.12096
1.17234
1.22597
1.2819
1.34006
1.40046
1.46312
1.52805
1.59524
1.66467
1.73632
1.81014
1.88603
1.96385
2.04339
2.1244
2.20704
2.2911
2.37631
2.46273
2.55033
2.63907
2.72891
2.81986
2.91182
3.00467
3.09833
3.19269
3.28762
3.383
3.47868
3.57453
3.67036
3.76601
3.86142
3.95693
4.05195
4.14584
4.2381
4.32891
4.41827
4.50613
4.59248
4.67727
4.76048
4.84205
4.92194
5.00007
5.07637
5.15079
5.22328
5.29376
5.36219
5.42851
5.4927
5.55473
5.61458
5.67224
5.72767
5.78084
5.83172
5.88028
5.92648
5.9703
6.0117
6.05066
6.08713
6.12111
6.15259
6.18158
6.20806
6.23206
6.25356
6.27257
6.28912
6.30321
6.31486
6.32406
6.33084