/*--------------------------------*- C++ -*----------------------------------*\
| =========                 |                                                 |
| \\      /  F ield         | OpenFOAM: The Open Source CFD Toolbox           |
|  \\    /   O peration     | Version:  2112                                  |
|   \\  /    A nd           | Website:  www.openfoam.com                      |
|    \\/     M anipulation  |                                                 |
\*---------------------------------------------------------------------------*/
FoamFile
{
    version     2.0;
    format      ascii;
    arch        "LSB;label=32;scalar=64";
    class       volScalarField;
    location    "0.27";
    object      p;
}
// * * * * * * * * * * * * * * * * * * * * * * * * * * * * * * * * * * * * * //

dimensions      [0 2 -2 0 0 0 0];

internalField   nonuniform List<scalar> 
12225
(
6.55339
5.68862
6.68042
7.87606
8.9202
9.77385
10.4616
11.0301
11.5029
11.8985
12.2625
12.6624
13.1255
13.6435
14.1961
14.7864
15.3805
16.0359
5.29518
5.57344
6.66788
7.87216
8.923
9.77505
10.4522
11.0083
11.4763
11.8762
12.2464
12.6454
13.0995
13.6003
14.129
14.6801
15.2432
15.7784
4.5309
5.43792
6.68123
7.90763
8.9521
9.79241
10.4616
11.0094
11.4668
11.8618
12.2302
12.6172
13.0454
13.5063
13.9843
14.4729
14.9432
15.3442
2.97946
5.22008
6.67245
7.92663
8.96928
9.79735
10.4538
10.9924
11.4445
11.8371
12.2028
12.5778
12.98
13.4024
13.8305
14.2489
14.6282
14.9262
1.53346
5.06801
6.72717
8.00358
9.03826
9.84681
10.4878
11.0125
11.449
11.8261
12.177
12.5318
12.9049
13.2869
13.6597
14.0091
14.3109
14.5304
0.422013
4.99235
6.79558
8.07894
9.09531
9.88032
10.5019
11.0093
11.4309
11.7979
12.1394
12.4768
12.8196
13.1608
13.4832
13.7728
14.0106
14.1707
2.96081
5.25714
6.93845
8.22114
9.20918
9.95993
10.5526
11.0367
11.4397
11.7906
12.112
12.4201
12.7234
13.0173
13.2885
13.5244
13.7091
13.8209
3.29184
5.4595
7.13928
8.37938
9.32752
10.0453
10.6097
11.0662
11.4414
11.7634
12.0593
12.3414
12.6114
12.8667
13.0941
13.2814
13.418
13.4885
4.36311
5.82831
7.41673
8.61549
9.50965
10.1766
10.6936
11.1084
11.4573
11.7597
12.029
12.2758
12.5047
12.7135
12.8928
13.0324
13.1211
13.1531
2.12256
6.05557
7.8002
8.91974
9.72592
10.3263
10.7978
11.176
11.4852
11.7469
11.9782
12.1873
12.377
12.5462
12.686
12.7882
12.8458
12.8537
2.40903
6.64874
8.29203
9.27731
9.97032
10.5004
10.9192
11.2477
11.5166
11.7469
11.9452
12.1178
12.2677
12.3922
12.4862
12.5443
12.5634
12.5422
3.80925
7.6367
8.94766
9.74031
10.279
10.7119
11.0697
11.3428
11.564
11.7549
11.915
12.046
12.1537
12.2407
12.3017
12.3308
12.3247
12.2806
9.29806
8.90924
9.61759
10.1887
10.5885
10.935
11.2263
11.4372
11.607
11.7582
11.8834
11.9788
12.049
12.0966
12.1183
12.1112
12.0742
12.0057
10.6761
10.6127
10.5885
10.8301
11.0383
11.2508
11.4451
11.5829
11.6906
11.7863
11.8582
11.9008
11.9209
11.9243
11.9092
11.8714
11.8081
11.7199
17.0364
12.1791
11.5883
11.546
11.5548
11.6393
11.7266
11.764
11.7847
11.8121
11.8279
11.8184
11.7866
11.7385
11.6755
11.5953
11.4965
11.3803
16.0057
13.7145
12.6436
12.4026
12.1718
12.0567
12.0261
11.9835
11.9326
11.8838
11.8247
11.7474
11.6591
11.5641
11.4586
11.3375
11.2009
11.0494
10.0512
12.7394
13.2419
13.1896
12.9422
12.6761
12.4641
12.2954
12.1342
11.9786
11.8292
11.6816
11.532
11.3762
11.2105
11.0312
10.8384
10.6337
12.2439
14.2949
14.5805
14.1778
13.5792
13.1122
12.8169
12.5725
12.3243
12.0816
11.8537
11.6365
11.4208
11.1996
10.9704
10.7341
10.4907
10.2415
29.6351
20.0366
16.9897
15.6185
14.6335
13.9041
13.3798
12.9656
12.5926
12.2428
11.9129
11.6004
11.3007
11.0067
10.7133
10.4194
10.1252
9.83008
9.09728
14.8915
15.3372
15.0147
14.4677
13.9571
13.5188
13.1257
12.73
12.333
11.9538
11.598
11.2529
10.9091
10.566
10.2262
9.89066
9.55917
6.20434
12.6037
15.0212
15.2601
14.8726
14.3263
13.8072
13.3381
12.8804
12.4365
12.0079
11.6004
11.2121
10.8374
10.4706
10.1076
9.74762
9.39114
19.4811
17.4295
16.4491
15.7672
15.1142
14.4937
13.9252
13.3862
12.8995
12.4493
12.0173
11.5934
11.183
10.7863
10.3985
10.0161
9.63973
9.26987
27.6957
19.1908
17.4138
16.29
15.4854
14.807
14.1999
13.6155
13.06
12.5339
12.0505
11.5983
11.1667
10.7553
10.359
9.96939
9.58252
9.19835
25.1015
20.824
18.0497
16.5783
15.592
14.8582
14.2281
13.6228
13.0467
12.5253
12.0553
11.6019
11.1645
10.7433
10.3354
9.93478
9.53805
9.14585
20.9581
19.4555
17.8586
16.6837
15.7303
14.9821
14.3357
13.7168
13.121
12.5742
12.0703
11.6023
11.1558
10.7288
10.3176
9.9137
9.51203
9.11235
18.224
18.5175
17.5986
16.6377
15.7668
15.0358
14.3713
13.7248
13.1183
12.5708
12.0659
11.5937
11.1484
10.7231
10.3136
9.90902
9.5039
9.09924
15.8488
17.8619
17.4267
16.5964
15.7702
15.065
14.4167
13.7666
13.1429
12.5753
12.0571
11.5795
11.1356
10.717
10.3122
9.90884
9.50218
9.09173
16.9105
17.8135
17.3434
16.5657
15.7725
15.0915
14.443
13.7785
13.1407
12.5619
12.0397
11.5647
11.1288
10.7154
10.3194
9.92016
9.51146
9.09523
18.712
17.9023
17.268
16.5471
15.7813
15.1108
14.464
13.7921
13.1409
12.5462
12.0127
11.5384
11.1181
10.7238
10.3373
9.94368
9.53401
9.10932
19.5322
17.9766
17.2406
16.5304
15.7826
15.1353
14.4923
13.8105
13.1425
12.5295
11.9851
11.5099
11.0865
10.7151
10.341
9.95609
9.5495
9.12229
1.71412
1.54218
1.72383
2.25542
2.8191
2.88914
2.46325
1.59981
0.475761
-0.730734
-1.87908
-2.87374
-3.64784
-4.16955
-4.46291
-4.52741
-4.42831
-4.23205
-3.91134
-3.638
-3.61035
-3.74632
-3.86253
-3.8118
-3.52189
-3.02414
-2.48389
-2.01044
-1.45611
-0.906837
-0.651135
-0.649185
-0.254796
0.689395
1.19219
0.445028
-1.45931
-4.24651
-7.65476
-11.4659
-15.5088
-19.6504
-23.786
-27.8295
-31.7072
-35.3515
-38.6985
-41.687
-44.2603
-46.3688
-47.9744
-49.0513
-49.5833
-49.5603
-48.9826
-47.8725
-46.2743
-44.2389
-41.8236
-39.0881
-36.0932
-32.8985
-29.5601
-26.1294
-22.6515
-19.1657
-15.7038
-12.2905
-8.94265
-5.6706
-2.48064
0.62298
3.63665
6.55631
9.37643
12.0894
14.6852
17.1511
19.4723
21.6327
23.6177
25.4161
27.0211
28.4313
29.651
30.6904
31.5656
32.2891
32.9051
33.4409
33.9188
34.3564
34.7841
35.2159
35.5929
35.9507
36.3514
36.7265
37.0644
37.434
38.1886
39.0822
38.8313
36.9837
35.4949
37.0801
38.1312
37.1029
36.7261
37.2116
38.2693
38.2977
31.7425
21.4598
10.5367
0.493346
-8.01286
-14.7773
-19.7714
-23.0365
-24.6351
-24.6582
-23.2485
-20.6098
-16.9935
-12.6741
-7.92857
-3.01349
1.8592
6.53521
10.9068
14.8953
18.4437
21.5203
24.1291
26.3146
28.1557
29.7395
31.1288
32.3543
33.428
34.3564
35.1484
35.8138
36.3591
36.7838
37.0768
37.2151
37.1647
36.8889
36.3466
35.5084
34.3762
32.9675
31.3592
29.68
28.0461
26.6927
25.76
25.4842
25.9809
26.9837
29.846
31.177
27.0109
23.3307
21.6526
17.679
11.6724
5.29303
1.97993
2.78336
6.25167
10.1394
13.1986
15.1186
15.9518
16.5684
17.2975
17.8447
0.572337
0.358295
0.520723
1.10578
1.4552
1.36591
0.807459
-0.0988893
-1.1832
-2.29843
-3.32916
-4.19933
-4.86997
-5.32145
-5.55938
-5.61155
-5.4951
-5.28673
-5.02289
-4.71629
-4.61122
-4.63463
-4.36485
-3.93324
-3.66384
-3.12967
-2.38265
-1.92169
-1.51936
-0.661765
0.611111
-0.0690477
-0.926671
-0.994587
-1.23567
-2.39112
-4.4736
-7.28688
-10.6165
-14.28
-18.1423
-22.0947
-26.0515
-29.9358
-33.6779
-37.209
-40.4607
-43.3663
-45.8636
-47.8976
-49.4214
-50.4006
-50.818
-50.676
-49.9956
-48.8033
-47.1307
-45.0242
-42.5389
-39.7357
-36.6763
-33.4217
-30.0287
-26.5491
-23.0285
-19.5059
-16.0136
-12.5766
-9.21166
-5.92854
-2.73221
0.374373
3.38887
6.30864
9.12938
11.8442
14.4432
16.9137
19.2402
21.4067
23.398
25.2038
26.8192
28.2439
29.4828
30.5454
31.446
32.201
32.8351
33.3827
33.8655
34.3039
34.7245
35.1349
35.4887
35.8505
36.2531
36.5645
36.841
36.984
37.2158
37.674
37.2738
36.0149
34.3022
35.6036
36.8104
35.8957
35.9616
36.9664
37.1437
34.4487
26.8802
16.8433
6.726
-2.43179
-10.2073
-16.4582
-21.1183
-24.1689
-25.6258
-25.5479
-24.0535
-21.329
-17.6203
-13.2082
-8.37503
-3.38118
1.55804
6.28562
10.6957
14.713
18.2836
21.3748
23.9881
26.168
27.9981
29.5709
30.9528
32.1736
33.2421
34.165
34.9511
35.6116
36.1547
36.5799
36.8759
37.0185
36.9731
36.7037
36.1691
35.3359
34.2088
32.8034
31.1915
29.5162
27.8601
26.4952
25.5046
24.9804
25.4549
25.9158
28.0918
29.158
25.7504
23.8707
22.1503
17.5526
11.1223
4.48086
1.1019
2.20768
6.01537
10.1457
13.3099
15.2191
16.0067
16.5265
17.2258
17.696
0.229507
0.187786
0.0367086
-0.0251004
-0.268919
-0.824928
-1.66257
-2.66022
-3.70165
-4.69755
-5.57773
-6.28181
-6.77202
-7.0355
-7.08906
-7.00369
-6.82364
-6.57495
-6.26325
-5.91615
-5.5526
-5.0046
-4.36243
-3.99281
-3.79847
-3.40936
-2.60264
-1.34724
-1.07188
-1.54187
-1.6203
-1.93448
-2.87584
-4.02166
-5.428
-7.22028
-9.44953
-12.0957
-15.106
-18.4028
-21.9127
-25.5568
-29.2606
-32.9463
-36.5359
-39.9494
-43.1093
-45.9409
-48.3757
-50.3508
-51.8113
-52.716
-53.0448
-52.8001
-51.9992
-50.6712
-48.8564
-46.6056
-43.9777
-41.0364
-37.8464
-34.4704
-30.9668
-27.3881
-23.7802
-20.1824
-16.6276
-13.1414
-9.74096
-6.43443
-3.22395
-0.10973
2.90808
5.82927
8.65252
11.3736
13.9841
16.4714
18.8193
21.0103
23.0282
24.8612
26.5031
27.9545
29.2225
30.3191
31.2586
32.0556
32.7254
33.2976
33.7886
34.2214
34.6151
34.9843
35.325
35.6634
36.021
36.3029
36.4789
36.5923
36.6213
36.6074
36.4796
36.0408
35.3338
36.4212
37.1217
35.5078
34.5938
34.5071
32.4486
27.339
19.6374
11.0467
2.43155
-5.60567
-12.6685
-18.4884
-22.907
-25.8307
-27.2167
-27.079
-25.5003
-22.6609
-18.8131
-14.2483
-9.25994
-4.11994
0.945198
5.77317
10.2583
14.3289
17.9373
21.0531
23.6762
25.8517
27.6688
29.231
30.6075
31.8214
32.8803
33.791
34.567
35.2216
35.7635
36.1917
36.4934
36.6444
36.6081
36.3457
35.8189
34.99
33.8587
32.4459
30.8166
29.1152
27.4338
25.9988
24.9223
24.3494
24.5554
25.0158
26.1408
26.6522
24.6454
22.8648
21.2371
17.2334
10.0835
2.99475
-0.406614
1.11195
5.55798
10.0918
13.484
15.4234
16.1434
16.4986
17.0755
17.4639
0.311098
0.0979784
-0.504424
-1.33855
-2.27165
-3.26899
-4.30655
-5.34071
-6.30983
-7.15368
-7.82638
-8.30221
-8.58124
-8.6668
-8.55992
-8.32587
-8.02173
-7.66865
-7.34062
-6.91451
-6.24328
-5.60307
-5.12535
-4.67557
-3.79727
-2.88954
-2.96066
-2.9616
-2.93134
-3.42109
-4.24631
-5.28716
-6.56936
-8.09071
-9.87523
-11.9277
-14.2582
-16.8669
-19.7475
-22.872
-26.2017
-29.6816
-33.2484
-36.8279
-40.3392
-43.6963
-46.8116
-49.6005
-51.9833
-53.8893
-55.2611
-56.0578
-56.2612
-55.8717
-54.905
-53.3885
-51.3693
-48.9074
-46.0694
-42.9252
-39.5437
-35.9905
-32.3254
-28.6018
-24.8657
-21.1565
-17.5078
-13.9471
-10.4932
-7.15373
-3.92618
-0.805396
2.21227
5.1302
7.95173
10.6774
13.3022
15.8148
18.1984
20.4338
22.5019
24.3874
26.0807
27.5803
28.8934
30.0328
31.0142
31.8506
32.5647
33.1728
33.6854
34.1202
34.494
34.8247
35.1306
35.4353
35.7369
35.9926
36.1627
36.2604
36.2685
36.1381
36.036
36.3798
37.4499
39.1106
39.1109
37.4716
35.2498
32.1893
27.3586
20.8768
13.5458
5.92546
-1.72716
-8.98573
-15.4976
-20.9733
-25.2045
-28.0401
-29.387
-29.2025
-27.5417
-24.5691
-20.5419
-15.7702
-10.5661
-5.2171
0.0350214
5.01607
9.61445
13.7612
17.4195
20.5665
23.2026
25.3744
27.1813
28.7426
30.1165
31.3227
32.3661
33.2583
34.0202
34.6689
35.212
35.6474
35.9598
36.1222
36.097
35.8423
35.3201
34.491
33.3451
31.9119
30.247
28.4982
26.7618
25.2218
24.0407
23.2721
23.2346
23.4943
24.0826
24.4515
22.8886
20.8914
19.277
15.3845
8.3508
1.14929
-2.13644
0.00257977
5.09063
10.1391
13.7696
15.727
16.3624
16.5554
16.972
17.2563
0.992563
0.0618493
-1.44718
-2.9174
-4.25116
-5.49884
-6.68109
-7.77391
-8.7254
-9.48866
-10.0335
-10.3431
-10.4118
-10.2588
-9.93386
-9.53754
-9.14015
-8.70975
-8.24957
-7.80985
-7.35781
-6.85592
-6.23386
-5.75875
-5.66873
-5.43836
-5.19437
-5.32728
-5.77171
-6.56911
-7.67832
-9.0349
-10.5662
-12.2866
-14.222
-16.3946
-18.8096
-21.4686
-24.367
-27.4903
-30.8113
-34.2865
-37.857
-41.4495
-44.9792
-48.3534
-51.4758
-54.2519
-56.5948
-58.4314
-59.7059
-60.3811
-60.4325
-59.8526
-58.6562
-56.8868
-54.601
-51.866
-48.7565
-45.3497
-41.7206
-37.9388
-34.0661
-30.1558
-26.2525
-22.3936
-18.612
-14.9375
-11.3944
-7.99421
-4.73338
-1.60163
1.41074
4.31305
7.11532
9.82575
12.4467
14.9723
17.3884
19.6746
21.8072
23.7646
25.5318
27.1041
28.4849
29.6858
30.723
31.5903
32.3498
32.9964
33.542
33.9973
34.3724
34.6855
34.9618
35.228
35.4869
35.715
35.8917
36.0068
36.0572
35.9081
35.7371
36.2828
38.235
40.2554
40.464
38.8199
35.3609
29.7692
22.9351
15.8278
8.73458
1.54609
-5.62197
-12.4205
-18.5609
-23.8046
-27.9342
-30.7559
-32.1216
-31.9354
-30.2079
-27.084
-22.8311
-17.7893
-12.2998
-6.67116
-1.16283
4.03214
8.78815
13.0371
16.758
19.942
22.5943
24.7622
26.5723
28.1364
29.5079
30.7003
31.7187
32.5854
33.3313
33.9758
34.5233
34.9685
35.2938
35.4685
35.4533
35.2044
34.6819
33.8468
32.6798
31.2088
29.4943
27.6758
25.8604
24.1887
22.8426
21.8806
21.5359
21.5413
21.8042
22.0198
20.6245
18.5286
16.6502
13.0262
6.61423
-0.0708973
-3.01551
-0.536596
5.16751
10.5404
14.269
16.1822
16.6859
16.6662
16.9171
17.1427
-0.0632701
-1.38727
-3.16804
-4.65926
-5.9725
-7.21086
-8.35127
-9.34629
-10.1618
-10.7782
-11.1849
-11.368
-11.3271
-11.0954
-10.7525
-10.3442
-9.90053
-9.49434
-9.13961
-8.76108
-8.32185
-7.90747
-7.62647
-7.4313
-7.35207
-7.40052
-7.60625
-8.08652
-8.86412
-9.91025
-11.1974
-12.7045
-14.4034
-16.2911
-18.3784
-20.6849
-23.2234
-26.0019
-29.0182
-32.2595
-35.6982
-39.2899
-42.9731
-46.6701
-50.2893
-53.7319
-56.8985
-59.6917
-62.0207
-63.8092
-64.9988
-65.547
-65.4234
-64.6197
-63.1641
-61.105
-58.5054
-55.4419
-52.0009
-48.2715
-44.3397
-40.2829
-36.1662
-32.0411
-27.9466
-23.9132
-19.9682
-16.1409
-12.4614
-8.95221
-5.61837
-2.44904
0.572804
3.46364
6.241
8.92264
11.5212
14.0398
16.4704
18.7945
20.9869
23.0193
24.8685
26.5235
27.9845
29.2595
30.3585
31.2896
32.0891
32.7694
33.3451
33.8279
34.2239
34.5443
34.8129
35.0585
35.2916
35.503
35.6872
35.8239
35.9089
35.826
35.5868
36.1224
38.207
40.3883
40.8714
39.2024
34.473
27.0936
19.287
11.9505
4.88693
-2.21087
-9.1896
-15.7449
-21.6919
-26.8654
-31.0385
-33.9657
-35.435
-35.3055
-33.5343
-30.2433
-25.7146
-20.3297
-14.4735
-8.48448
-2.64363
2.83195
7.79647
12.1797
15.9793
19.2087
21.8814
24.0646
25.8837
27.4492
28.8105
29.977
30.9597
31.7971
32.5295
33.1736
33.7271
34.1814
34.5173
34.7015
34.6922
34.4448
33.9172
33.0702
31.876
30.3572
28.5785
26.6706
24.7531
22.9368
21.3965
20.2114
19.5312
19.2901
19.2699
19.2507
18.0771
16.0848
14.0491
10.8644
5.59968
0.0499756
-2.21493
0.527464
6.10279
11.3674
14.9447
16.7079
17.0173
16.8033
16.9131
17.1582
-2.56383
-3.68996
-4.80617
-5.86512
-6.94916
-8.01595
-8.96194
-9.73924
-10.3388
-10.7629
-11.0255
-11.1295
-11.0696
-10.8821
-10.5984
-10.3079
-10.0254
-9.75753
-9.48841
-9.24175
-9.03249
-8.83978
-8.68576
-8.63396
-8.7627
-9.1215
-9.71549
-10.5411
-11.6036
-12.8912
-14.39
-16.0859
-17.9699
-20.0403
-22.3055
-24.7817
-27.4864
-30.4318
-33.6189
-37.0342
-40.6472
-44.4106
-48.2605
-52.1181
-55.8919
-59.4818
-62.7829
-65.688
-68.0921
-69.9029
-71.0492
-71.4828
-71.1835
-70.1555
-68.4193
-66.0228
-63.0398
-59.5632
-55.6991
-51.5581
-47.2461
-42.8554
-38.4591
-34.108
-29.8318
-25.6445
-21.5543
-17.5766
-13.741
-10.0838
-6.62857
-3.37599
-0.310948
2.58963
5.35342
8.00836
10.5782
13.0774
15.5075
17.8566
20.1008
22.2076
24.1431
25.8829
27.4208
28.7652
29.9302
30.9293
31.7804
32.4994
33.1034
33.6099
34.0327
34.3786
34.6628
34.9091
35.1345
35.3465
35.5479
35.7213
35.8596
35.878
35.747
36.2192
37.9349
39.7315
40.2701
38.4819
32.7354
24.4368
16.2803
8.87716
1.71611
-5.45731
-12.4269
-18.925
-24.8654
-30.1343
-34.4927
-37.649
-39.3202
-39.3016
-37.5233
-34.0646
-29.2179
-23.4161
-17.1049
-10.667
-4.41391
1.41111
6.64017
11.1962
15.0953
18.3807
21.0968
23.3063
25.1354
26.6946
28.0333
29.1615
30.1035
30.9156
31.6412
32.2872
32.8439
33.303
33.6465
33.8387
33.8339
33.5856
33.0503
32.1883
30.9679
29.4016
27.5542
25.5484
23.5115
21.5268
19.7439
18.2295
17.2748
16.7778
16.5039
16.2751
15.3305
13.5979
11.672
9.10635
5.22588
1.22376
-0.167633
2.50032
7.60118
12.4226
15.6919
17.245
17.4217
17.0215
16.9756
17.3006
-3.8762
-4.5528
-5.15975
-5.95136
-6.86631
-7.7303
-8.45257
-9.02875
-9.48069
-9.80067
-9.99318
-10.0658
-10.0286
-9.91298
-9.75904
-9.60271
-9.46069
-9.33442
-9.22523
-9.13012
-9.0501
-9.02242
-9.10396
-9.35165
-9.80194
-10.4732
-11.3728
-12.4998
-13.8477
-15.403
-17.1475
-19.0648
-21.148
-23.4012
-25.8395
-28.4843
-31.3594
-34.4825
-37.86
-41.4835
-45.3276
-49.348
-53.4815
-57.6461
-61.7415
-65.6524
-69.2556
-72.4242
-75.032
-76.9652
-78.1358
-78.4892
-78.0076
-76.7034
-74.6029
-71.7639
-68.2762
-64.2556
-59.8347
-55.1514
-50.3378
-45.5079
-40.7498
-36.1205
-31.6451
-27.3233
-23.1393
-19.0783
-15.1431
-11.362
-7.77744
-4.41838
-1.28501
1.64566
4.40848
7.04123
9.57808
12.0462
14.4601
16.8201
19.1094
21.2951
23.3356
25.1886
26.8256
28.2416
29.4638
30.5185
31.4221
32.1866
32.8259
33.3574
33.8025
34.1752
34.4859
34.7548
34.9918
35.2192
35.4493
35.6702
35.8816
36.0207
36.0718
36.5533
37.7633
38.9845
39.3222
37.1891
30.8362
22.1461
13.8634
6.40201
-0.919277
-8.25373
-15.3392
-21.9332
-28.0166
-33.5049
-38.1561
-41.6487
-43.6321
-43.8132
-42.0984
-38.5063
-33.3257
-27.0492
-20.197
-13.2165
-6.467
-0.221799
5.33106
10.1037
14.1258
17.4961
20.2673
22.5037
24.3341
25.8758
27.1829
28.2703
29.1785
29.9759
30.6991
31.3421
31.895
32.3561
32.7086
32.9112
32.9115
32.6603
32.1148
31.2367
29.9934
28.3897
26.4862
24.3928
22.2358
20.09
18.0598
16.252
14.8892
14.0589
13.5596
13.1907
12.4317
11.042
9.43232
7.51964
4.90102
2.39778
1.92824
4.55977
9.09176
13.4033
16.338
17.6728
17.7302
17.2038
17.0925
17.5329
-3.65969
-4.00157
-4.46194
-5.07652
-5.81028
-6.46163
-7.00516
-7.46992
-7.85712
-8.12212
-8.26988
-8.32876
-8.32532
-8.28507
-8.23806
-8.20513
-8.18926
-8.1835
-8.18715
-8.22725
-8.34734
-8.59151
-8.99114
-9.56957
-10.3429
-11.3259
-12.5287
-13.9528
-15.5864
-17.4078
-19.3921
-21.5196
-23.7842
-26.1967
-28.7843
-31.5835
-34.632
-37.9603
-41.587
-45.5146
-49.7262
-54.1789
-58.8
-63.4856
-68.1061
-72.5172
-76.5704
-80.1208
-83.0281
-85.1584
-86.404
-86.7071
-86.0544
-84.4561
-81.9409
-78.5764
-74.4694
-69.7631
-64.6241
-59.2294
-53.7489
-48.3304
-43.086
-38.0827
-33.3411
-28.844
-24.5516
-20.4202
-16.4272
-12.5863
-8.93744
-5.51925
-2.34123
0.613887
3.37924
5.99402
8.4932
10.9103
13.2753
15.6079
17.9129
20.1722
22.3384
24.346
26.1339
27.6773
28.9836
30.0884
31.0298
31.8314
32.5075
33.0702
33.5378
33.9329
34.2676
34.5676
34.8337
35.0869
35.3591
35.6368
35.9196
36.1826
36.4084
37.0169
37.7982
38.4327
38.4356
35.8666
29.2844
20.4507
12.0477
4.43636
-3.07808
-10.618
-17.9078
-24.7093
-31.039
-36.8302
-41.8552
-45.7744
-48.1513
-48.6557
-47.0924
-43.4353
-37.9502
-31.1782
-23.7219
-16.1119
-8.77907
-2.04278
3.89136
8.92424
13.1006
16.574
19.4013
21.6528
23.4714
24.9902
26.2694
27.328
28.2191
29.0116
29.7296
30.3619
30.9086
31.3752
31.7384
31.9464
31.9428
31.6805
31.1193
30.2202
28.9494
27.3068
25.3515
23.1891
20.9378
18.6654
16.4321
14.332
12.5348
11.2755
10.4971
10.0136
9.40593
8.38036
7.19154
5.91151
4.35796
3.11859
3.49372
6.1599
10.205
14.0416
16.6878
17.8947
17.9191
17.3781
17.2574
17.8021
-2.372
-2.59098
-2.9268
-3.38642
-3.92724
-4.40124
-4.81267
-5.20542
-5.54944
-5.77958
-5.91315
-5.98129
-6.01478
-6.04514
-6.08918
-6.15065
-6.22975
-6.34255
-6.52222
-6.80185
-7.20551
-7.75036
-8.45234
-9.33037
-10.4021
-11.6827
-13.1804
-14.8915
-16.7969
-18.8654
-21.0638
-23.3699
-25.7838
-28.331
-31.0578
-34.0214
-37.279
-40.879
-44.8554
-49.221
-53.9602
-59.0186
-64.297
-69.6564
-74.9326
-79.9535
-84.5518
-88.5708
-91.8618
-94.2758
-95.6833
-96.016
-95.2477
-93.3757
-90.4287
-86.4855
-81.6752
-76.1731
-70.1859
-63.936
-57.6396
-51.4873
-45.625
-40.1411
-35.059
-30.3426
-25.9165
-21.7007
-17.6451
-13.7502
-10.054
-6.60028
-3.39918
-0.424486
2.36389
4.99512
7.48777
9.86304
12.1558
14.4037
16.6403
18.883
21.1176
23.2865
25.283
27.0154
28.4596
29.6461
30.6272
31.4513
32.1502
32.7408
33.2344
33.6523
34.0075
34.3305
34.6338
34.9134
35.2219
35.5605
35.9138
36.2771
36.6227
37.415
37.9623
38.1148
37.761
34.8978
28.2397
19.3801
10.8239
2.9391
-4.79082
-12.5457
-20.0956
-27.1767
-33.8188
-39.9574
-45.4013
-49.8026
-52.6503
-53.5556
-52.2472
-48.6272
-42.9148
-35.6778
-27.6014
-19.3046
-11.3104
-4.02248
2.33957
7.65567
12.0246
15.5998
18.4705
20.7256
22.5317
24.0382
25.3071
26.3592
27.2519
28.0457
28.7551
29.3758
29.9197
30.3888
30.7477
30.9425
30.9212
30.6442
30.0714
29.1553
27.8549
26.1678
24.1551
21.9206
19.5789
17.2029
14.826
12.4931
10.3334
8.59899
7.42927
6.76233
6.25967
5.5902
4.86528
4.20908
3.56553
3.34842
4.42421
7.16514
10.8486
14.3053
16.7401
17.8964
17.9731
17.5115
17.4303
18.043
-0.428301
-0.568862
-0.802637
-1.12319
-1.48458
-1.80355
-2.09705
-2.4041
-2.6848
-2.88129
-3.00934
-3.1196
-3.21824
-3.32004
-3.44121
-3.59919
-3.8196
-4.13227
-4.56434
-5.12571
-5.81222
-6.62695
-7.59016
-8.7272
-10.0594
-11.6026
-13.3623
-15.328
-17.4714
-19.753
-22.1348
-24.5958
-27.144
-29.8196
-32.6896
-35.8359
-39.3404
-43.2728
-47.6809
-52.5815
-57.9494
-63.7048
-69.7129
-75.7997
-81.7744
-87.4489
-92.6437
-97.1874
-100.914
-103.659
-105.276
-105.673
-104.806
-102.665
-99.29
-94.7763
-89.2701
-82.9723
-76.1243
-68.9911
-61.8346
-54.8891
-48.3374
-42.3022
-36.8334
-31.896
-27.3753
-23.1217
-19.02
-15.0491
-11.2731
-7.76615
-4.53429
-1.5252
1.33581
4.06157
6.64093
9.06169
11.3358
13.5067
15.6332
17.7673
19.9367
22.1344
24.2796
26.2283
27.8699
29.1799
30.2175
31.0601
31.7654
32.3674
32.8809
33.3218
33.6993
34.0376
34.3713
34.6796
35.0082
35.3845
35.7838
36.2126
36.6292
37.4903
38.0613
37.9626
37.3121
34.354
27.7481
18.8603
10.0915
1.9034
-6.06379
-14.0443
-21.8587
-29.2643
-36.2496
-42.7431
-48.6097
-53.5174
-56.9026
-58.2816
-57.3245
-53.847
-47.9992
-40.3689
-31.7106
-22.7199
-14.0137
-6.13987
0.661046
6.29144
10.8515
14.5233
17.4322
19.6998
21.5133
23.0304
24.3138
25.3854
26.2977
27.0983
27.7998
28.4108
28.946
29.3978
29.7287
29.8938
29.8534
29.5754
29.0111
28.0935
26.7713
25.0435
22.9795
20.6812
18.2448
15.7419
13.216
10.6917
8.24379
6.09191
4.46747
3.49838
3.00618
2.65551
2.41031
2.37491
2.54039
3.16988
4.81966
7.65844
11.0928
14.2581
16.5405
17.7031
17.8935
17.5729
17.554
18.2033
1.77306
1.67953
1.52292
1.31597
1.09241
0.901911
0.721659
0.517311
0.310924
0.137643
-0.00927039
-0.140922
-0.264422
-0.401891
-0.596603
-0.889407
-1.30109
-1.84487
-2.53211
-3.35172
-4.28024
-5.31926
-6.49796
-7.84675
-9.38981
-11.1451
-13.1175
-15.2927
-17.6355
-20.0983
-22.6373
-25.2321
-27.9003
-30.698
-33.7131
-37.0508
-40.8167
-45.0996
-49.9565
-55.4015
-61.3957
-67.8323
-74.5434
-81.3245
-87.9642
-94.2594
-100.016
-105.045
-109.158
-112.178
-113.948
-114.365
-113.39
-111.018
-107.287
-102.296
-96.2011
-89.2193
-81.6215
-73.7128
-65.7987
-58.1481
-50.9697
-44.4022
-38.5263
-33.3505
-28.7639
-24.5636
-20.5386
-16.5898
-12.7573
-9.16368
-5.86377
-2.8351
0.12208
2.98736
5.72945
8.29219
10.6569
12.8573
14.9498
16.9971
19.0608
21.1764
23.3167
25.3719
27.1939
28.6701
29.7983
30.6646
31.3632
31.9565
32.4732
32.928
33.3286
33.6797
34.0267
34.3621
34.696
35.0851
35.5193
35.9514
36.3674
37.1132
37.8983
37.7955
36.9703
34.1053
27.7147
18.8292
9.80246
1.29855
-6.91203
-15.1121
-23.1933
-30.9256
-38.2432
-45.0927
-51.3486
-56.7623
-60.751
-62.6901
-62.1668
-58.9193
-53.0096
-45.0629
-35.8978
-26.2615
-16.8077
-8.36157
-1.13265
4.79801
9.54184
13.3105
16.2734
18.586
20.4397
21.9931
23.3161
24.4315
25.3775
26.1874
26.8809
27.4766
27.9869
28.3999
28.6875
28.8217
28.7752
28.5153
27.9745
27.0646
25.7258
23.9597
21.8498
19.5062
17.0018
14.3771
11.6733
8.93952
6.23618
3.72278
1.66619
0.301197
-0.320374
-0.435535
-0.209746
0.365759
1.26921
2.63873
4.79888
7.77276
11.0518
13.9953
16.1621
17.3597
17.6929
17.5407
17.5974
18.2495
3.9194
3.85142
3.74597
3.61044
3.46943
3.36192
3.26938
3.15426
3.01477
2.87394
2.74561
2.63809
2.53001
2.3758
2.10689
1.6798
1.09926
0.363091
-0.534921
-1.56446
-2.68409
-3.89874
-5.24687
-6.76077
-8.46532
-10.3789
-12.506
-14.8322
-17.3227
-19.9286
-22.604
-25.3268
-28.1149
-31.0298
-34.1736
-37.674
-41.6622
-46.2461
-51.4888
-57.3991
-63.925
-70.9361
-78.237
-85.5986
-92.7893
-99.5895
-105.79
-111.187
-115.58
-118.787
-120.656
-121.078
-120.013
-117.46
-113.454
-108.099
-101.557
-94.0564
-85.8865
-77.3882
-68.9034
-60.7347
-53.1226
-46.1857
-39.9861
-34.573
-29.8947
-25.7588
-21.8869
-18.086
-14.3277
-10.733
-7.4353
-4.35519
-1.35417
1.6326
4.57077
7.34556
9.87603
12.1883
14.355
16.4342
18.4698
20.5047
22.5623
24.5996
26.4912
28.0936
29.3321
30.248
30.9446
31.5153
32.0139
32.4642
32.8781
33.2434
33.5901
33.9386
34.2717
34.6383
35.0651
35.4876
35.8195
36.3141
37.3112
37.3853
36.5602
33.933
27.9476
19.1918
9.91999
1.08068
-7.38567
-15.7862
-24.097
-32.11
-39.7362
-46.9191
-53.5638
-59.4728
-64.0909
-66.6915
-66.6878
-63.741
-57.8014
-49.5838
-39.988
-29.8225
-19.5251
-10.6175
-2.99331
3.21401
8.13427
12.0088
15.052
17.4462
19.3706
20.9816
22.3627
23.5345
24.514
25.3268
26.0044
26.5729
27.0421
27.4034
27.6437
27.7504
27.704
27.4663
26.9473
26.0392
24.6723
22.8496
20.6811
18.3009
15.764
13.0646
10.2081
7.25713
4.29991
1.47245
-0.981806
-2.77198
-3.66682
-3.68945
-3.03956
-1.8634
-0.267277
1.77942
4.42684
7.58649
10.8007
13.5902
15.6705
16.9118
17.3917
17.4091
17.541
18.1684
5.86668
5.8094
5.72511
5.61991
5.51068
5.43458
5.39275
5.35069
5.28781
5.20233
5.11788
5.0505
4.96976
4.80298
4.472
3.95011
3.2643
2.41618
1.38196
0.198226
-1.07083
-2.42227
-3.89655
-5.52669
-7.34219
-9.36311
-11.5932
-14.0194
-16.6091
-19.3168
-22.0984
-24.9311
-27.8299
-30.8529
-34.1049
-37.7228
-41.8597
-46.6402
-52.1347
-58.3494
-65.2269
-72.6222
-80.3233
-88.0837
-95.6536
-102.795
-109.284
-114.904
-119.455
-122.756
-124.655
-125.046
-123.9
-121.198
-117.001
-111.42
-104.623
-96.8377
-88.3552
-79.5282
-70.746
-62.3091
-54.4911
-47.4068
-41.0689
-35.5023
-30.7165
-26.5787
-22.8384
-19.2549
-15.7042
-12.265
-9.02594
-5.9555
-2.93858
0.110924
3.19979
6.20931
8.97933
11.463
13.739
15.892
17.9748
20.0182
22.0253
23.9785
25.8274
27.466
28.7843
29.7624
30.477
31.0329
31.5067
31.9346
32.34
32.7143
33.0553
33.3957
33.7195
34.0426
34.4236
34.8166
35.0275
35.2813
36.1441
36.5343
35.9293
33.6341
28.2059
19.7695
10.3507
1.18915
-7.54432
-16.1131
-24.5793
-32.8014
-40.6889
-48.1646
-55.1701
-61.5695
-66.854
-70.1898
-70.7867
-68.2047
-62.238
-53.7552
-43.771
-32.9639
-22.2768
-12.7976
-4.7916
1.67328
6.76727
10.7602
13.9033
16.3979
18.4087
20.0872
21.5248
22.7379
23.7291
24.527
25.1746
25.7022
26.118
26.419
26.6054
26.6784
26.6271
26.4017
25.8856
24.9605
23.5533
21.6626
19.4219
16.9917
14.4222
11.6805
8.72661
5.58495
2.3805
-0.727511
-3.53272
-5.72684
-6.97893
-7.07909
-6.11395
-4.35949
-2.08421
0.610698
3.74022
7.13808
10.3768
13.0861
15.1116
16.3982
17.0136
17.1863
17.3822
17.963
7.5821
7.52417
7.43816
7.33107
7.21284
7.11339
7.06729
7.05704
7.05327
7.04481
7.03072
7.01569
6.97251
6.81743
6.4664
5.90624
5.18001
4.30195
3.22266
1.95205
0.566222
-0.905886
-2.49342
-4.21752
-6.10511
-8.18184
-10.4566
-12.9253
-15.5643
-18.3344
-21.1948
-24.1186
-27.1118
-30.2285
-33.5692
-37.2296
-41.4205
-46.2586
-51.8286
-58.1415
-65.1413
-72.6796
-80.5424
-88.4768
-96.2201
-103.518
-110.131
-115.833
-120.421
-123.723
-125.598
-125.956
-124.727
-121.938
-117.664
-112.021
-105.181
-97.3754
-88.894
-80.0854
-71.3115
-62.8897
-55.0745
-48.0214
-41.7215
-36.1273
-31.2553
-27.0497
-23.3551
-19.9867
-16.7672
-13.6143
-10.5412
-7.5481
-4.56452
-1.50156
1.68732
4.91026
7.97626
10.7244
13.1442
15.3476
17.4561
19.5251
21.5376
23.4441
25.2088
26.7944
28.1304
29.1614
29.9124
30.4728
30.9327
31.3402
31.7214
32.0868
32.4175
32.7323
33.0312
33.296
33.5718
33.9285
34.0611
34.037
34.4566
35.1086
34.9088
33.0336
28.2469
20.3257
10.94
1.54054
-7.43779
-16.1348
-24.6726
-33.0096
-41.0824
-48.7898
-56.0928
-62.9333
-68.8893
-73.0031
-74.2486
-72.1212
-66.1683
-57.4158
-47.0166
-35.7777
-24.6621
-14.7022
-6.34165
0.366096
5.63359
9.75135
12.9924
15.5787
17.6713
19.4021
20.8596
22.0688
23.0354
23.7943
24.3965
24.8714
25.2232
25.4528
25.5718
25.5936
25.515
25.2755
24.7401
23.7881
22.3434
20.4004
18.1093
15.6406
13.0168
10.1832
7.1146
3.81287
0.365287
-3.00423
-6.0798
-8.63934
-10.255
-10.5554
-9.42566
-7.15344
-4.19982
-0.856853
2.76625
6.45387
9.80103
12.5059
14.5147
15.8499
16.5843
16.89
17.1358
17.6559
9.12691
9.06538
8.9682
8.84214
8.69167
8.53479
8.42443
8.38425
8.38957
8.42243
8.4696
8.51494
8.52514
8.42712
8.13558
7.63072
6.94921
6.1181
5.08454
3.80621
2.34024
0.756827
-0.955766
-2.79837
-4.7732
-6.90012
-9.19136
-11.6515
-14.2789
-17.0486
-19.932
-22.9059
-25.9701
-29.1608
-32.552
-36.2533
-40.4102
-45.1594
-50.6015
-56.7709
-63.6257
-71.0334
-78.7905
-86.6478
-94.3368
-101.591
-108.157
-113.803
-118.323
-121.549
-123.354
-123.662
-122.426
-119.663
-115.458
-109.942
-103.285
-95.7229
-87.5485
-79.0897
-70.6809
-62.5924
-55.0278
-48.153
-42.0071
-36.5162
-31.6502
-27.3817
-23.652
-20.4077
-17.5197
-14.7846
-12.0556
-9.27372
-6.39023
-3.33204
-0.0455909
3.3971
6.77611
9.86319
12.5382
14.8119
16.8531
18.8988
20.9782
22.9083
24.5867
26.0566
27.3377
28.3888
29.1904
29.7847
30.2504
30.6511
31.0115
31.3522
31.6623
31.9399
32.1967
32.399
32.5669
32.8142
32.9127
32.6065
32.498
33.064
33.2827
31.9224
27.82
20.5877
11.4864
2.0273
-7.10643
-15.881
-24.4147
-32.7584
-40.9094
-48.7562
-56.2535
-63.4323
-69.9779
-74.8619
-76.731
-75.201
-69.3244
-60.3613
-49.6591
-38.0641
-26.5541
-16.1875
-7.51257
-0.582854
4.84764
9.07975
12.3962
15.0463
17.1943
18.9356
20.3562
21.5117
22.4216
23.1225
23.6667
24.0788
24.3556
24.4981
24.5206
24.4479
24.2999
24.0276
23.4809
22.5181
21.047
19.0674
16.754
14.2766
11.6146
8.66302
5.37781
1.82144
-1.88396
-5.53656
-8.85736
-11.6591
-13.5576
-14.099
-12.9546
-10.2647
-6.63816
-2.62286
1.52462
5.55453
9.0862
11.8607
13.8976
15.2904
16.1292
16.5464
16.8298
17.2801
10.4383
10.3771
10.2725
10.132
9.9548
9.74875
9.55465
9.43343
9.39571
9.41821
9.47849
9.55691
9.61893
9.61159
9.45398
9.10043
8.56012
7.85194
6.93908
5.73793
4.24407
2.57226
0.728276
-1.26964
-3.38487
-5.6134
-7.95543
-10.4113
-12.9888
-15.6908
-18.5138
-21.4539
-24.5164
-27.7251
-31.1294
-34.8102
-38.8757
-43.4411
-48.6043
-54.418
-60.8661
-67.8488
-75.1937
-82.6729
-90.0276
-96.9911
-103.308
-108.742
-113.093
-116.199
-117.946
-118.27
-117.143
-114.567
-110.616
-105.435
-99.2055
-92.1587
-84.5797
-76.7639
-68.9934
-61.5014
-54.4407
-47.9228
-42.0112
-36.6884
-31.9283
-27.6981
-23.9562
-20.7336
-18.0343
-15.6706
-13.3703