/*--------------------------------*- C++ -*----------------------------------*\
| =========                 |                                                 |
| \\      /  F ield         | OpenFOAM: The Open Source CFD Toolbox           |
|  \\    /   O peration     | Version:  2112                                  |
|   \\  /    A nd           | Website:  www.openfoam.com                      |
|    \\/     M anipulation  |                                                 |
\*---------------------------------------------------------------------------*/
FoamFile
{
    version     2.0;
    format      ascii;
    arch        "LSB;label=32;scalar=64";
    class       volScalarField;
    location    "0.07";
    object      ddt0(k);
}
// * * * * * * * * * * * * * * * * * * * * * * * * * * * * * * * * * * * * * //

dimensions      [0 2 -3 0 0 0 0];

internalField   nonuniform List<scalar> 
12225
(
-0.000741561
0.000944194
-0.000178735
0.0029746
0.00545661
0.0201579
0.0261054
-0.0611134
0.139907
0.0398171
0.142705
0.0668272
0.123696
0.206216
0.221441
0.313331
0.188087
0.496897
-0.001241
0.00379572
-0.00274338
-0.015828
0.0039637
0.241225
-0.759616
0.367801
1.36012
-1.92656
1.84388
-0.797113
-2.99808
3.00525
-0.55624
-0.938494
0.831539
0.668658
-0.000185012
-8.73157e-05
0.00280912
-0.000889241
0.0116961
-0.00929933
-0.0669136
0.11456
-0.0707976
-0.0287316
0.167025
-0.153877
-0.0292849
0.124682
-0.0453364
0.208861
-0.419158
-0.354992
-4.56164e-05
-5.48343e-05
0.00130729
0.00210393
0.00244693
-0.00685992
-0.00207937
0.0248891
-0.0201859
0.010301
0.0172299
-0.0034697
0.00655646
0.00195419
0.0738862
0.0475715
-0.260785
0.0396906
-1.12151e-05
6.77709e-05
0.000769252
0.00196077
0.000789097
-0.000869692
0.0024548
0.0085873
-0.00161399
0.00594441
0.0066012
0.00912678
0.00819711
0.00265017
0.0338071
0.0390969
-0.0686294
0.0136174
-4.50287e-06
0.00013494
0.000632667
0.00163722
0.0010266
0.00136182
0.00304005
0.00540774
0.00313355
0.00568005
0.00686438
0.00950204
0.0101596
0.00751229
0.0187702
0.0360391
-0.0229067
0.0109305
-9.59165e-06
0.000168026
0.000614029
0.00147602
0.00146806
0.00227324
0.00345489
0.00490185
0.00489783
0.00646939
0.00788703
0.00995508
0.0113232
0.0111521
0.0166808
0.0264107
0.00116178
0.0177381
-1.59271e-05
0.000173287
0.000619082
0.00142046
0.00181498
0.00274271
0.00382914
0.00505816
0.00587192
0.00730765
0.00884185
0.0107017
0.0123383
0.0134731
0.0171908
0.0210949
0.0141397
0.022331
-2.36773e-05
0.000168496
0.000623859
0.00140137
0.00203803
0.00301868
0.00412468
0.00534602
0.00651327
0.00798731
0.00960567
0.0114201
0.0131913
0.0149112
0.0176814
0.0198275
0.01959
0.0236479
-4.24689e-05
0.000127486
0.000604923
0.00136491
0.00214588
0.00316542
0.00431471
0.00558201
0.00692079
0.00845234
0.0101239
0.0119305
0.0137644
0.0156672
0.0179127
0.0197555
0.021218
0.0236186
-8.47969e-05
7.8864e-05
0.000558348
0.00129535
0.00214809
0.00319387
0.00437777
0.00568671
0.00710627
0.00867043
0.0103554
0.0121383
0.0139648
0.0158461
0.0177935
0.0195439
0.0212032
0.0229423
-0.000109734
1.53473e-05
0.000471985
0.00118397
0.00205657
0.00310727
0.00430095
0.00562233
0.00705996
0.00861639
0.0102712
0.011996
0.013752
0.0155222
0.0172646
0.0188766
0.0203904
0.0218063
-0.000123557
-5.00676e-05
0.00036029
0.00103158
0.00189053
0.00292339
0.00410144
0.0054056
0.00682025
0.00833252
0.00991948
0.0115499
0.0131882
0.0148022
0.0163463
0.0177705
0.0190697
0.0202324
-0.000128143
-0.000115882
0.000216748
0.000813691
0.00161487
0.0025895
0.00370837
0.00494654
0.00628172
0.00769121
0.00914756
0.0106174
0.0120648
0.0134532
0.0147441
0.0159055
0.0169249
0.0177989
-0.00012261
-0.000168266
6.00928e-05
0.000537994
0.00122092
0.00207358
0.00306239
0.00415753
0.00533
0.00654979
0.00778554
0.00900253
0.0101653
0.0112396
0.0121944
0.0130068
0.0136668
0.0141747
-0.000106449
-0.000192444
-7.86964e-05
0.00023769
0.000732084
0.00137466
0.00213336
0.0029755
0.00386568
0.00477336
0.00566542
0.00650694
0.0072657
0.00791252
0.00842318
0.00878055
0.00897745
0.00901347
-7.935e-05
-0.000177352
-0.000166547
-3.46676e-05
0.000209789
0.00054852
0.000957028
0.00140667
0.0018691
0.00231326
0.00270579
0.00302086
0.00323164
0.00331612
0.0032547
0.00303443
0.00264641
0.00207233
-4.16827e-05
-0.000121375
-0.000187554
-0.000238009
-0.000276149
-0.000310182
-0.00035265
-0.000419592
-0.000529139
-0.000701429
-0.000954178
-0.00130743
-0.00177905
-0.00238566
-0.00313629
-0.00403967
-0.00510064
-0.00632348
3.84856e-06
-3.90534e-05
-0.000164839
-0.000388199
-0.00071256
-0.00113797
-0.00166396
-0.00229098
-0.00302097
-0.00385769
-0.00480608
-0.00587238
-0.00706172
-0.00837826
-0.00982704
-0.0114112
-0.0131324
-0.0149951
4.0785e-05
1.38762e-05
-0.000178897
-0.000548927
-0.00108673
-0.00178019
-0.00261743
-0.00358845
-0.00468568
-0.00590416
-0.007241
-0.00869467
-0.0102643
-0.0119491
-0.0137487
-0.0156621
-0.0176879
-0.0198265
6.14211e-05
1.81396e-05
-0.000245094
-0.000714756
-0.00136437
-0.00217411
-0.00312935
-0.00421794
-0.00543072
-0.00676141
-0.00820531
-0.00975859
-0.011418
-0.0131807
-0.0150436
-0.0170039
-0.0190579
-0.0212036
6.91042e-05
-1.25225e-05
-0.000335995
-0.000854482
-0.00153263
-0.00235292
-0.00330321
-0.00437392
-0.00555663
-0.00684659
-0.00823951
-0.00973072
-0.0113162
-0.0129921
-0.0147541
-0.0165992
-0.0185221
-0.0205205
6.43883e-05
-5.80976e-05
-0.000410884
-0.000922931
-0.00156302
-0.00232146
-0.00318995
-0.00416369
-0.00523139
-0.0063925
-0.00764493
-0.00898166
-0.0103991
-0.0118951
-0.0134618
-0.0150996
-0.0168023
-0.0185678
4.73659e-05
-9.34904e-05
-0.000439359
-0.000903117
-0.00146363
-0.0021201
-0.00286296
-0.00370347
-0.00461022
-0.00559575
-0.00666752
-0.00780532
-0.00900643
-0.0102885
-0.0116144
-0.0130047
-0.0144575
-0.0159628
1.49838e-05
-9.48302e-05
-0.00041298
-0.000805003
-0.00126414
-0.00180324
-0.00238787
-0.00310033
-0.00382078
-0.00460441
-0.00550439
-0.00644128
-0.00738436
-0.0085087
-0.00958994
-0.010703
-0.0119495
-0.0132556
4.24483e-06
-9.86539e-05
-0.000343851
-0.00065078
-0.000993784
-0.00143171
-0.00179736
-0.00246623
-0.00297984
-0.00352261
-0.00434462
-0.00519089
-0.0056565
-0.00690323
-0.00802294
-0.00846418
-0.00963129
-0.0111521
1.8301e-06
-8.02279e-05
-0.000254961
-0.000463669
-0.000658942
-0.00109865
-0.00104121
-0.00197216
-0.00222767
-0.00239824
-0.00334517
-0.00483401
-0.00373823
-0.0046793
-0.0102338
-0.00649228
-0.00573033
-0.0103799
8.25929e-06
-4.99885e-05
-0.000129255
-0.000232363
-0.00014859
-0.000881772
0.000357257
-0.00158589
-0.000993894
-0.000454038
-0.000799332
-0.00514402
-0.00332839
0.0133755
-0.0171894
-0.0395923
0.0450941
0.00551449
7.72718e-05
-8.98222e-05
0.000475568
0.000771377
0.0014812
0.00136977
0.0056847
0.00258529
0.00900631
0.00894558
0.0120403
0.0128403
0.0197016
-0.651523
1.9067
-2.33611
0.954151
0.472772
0.000492055
-0.000544683
0.000419146
-0.00162481
-0.00118112
-0.00551186
-0.00579951
-0.0134021
-0.0140876
-0.0259133
-0.0284328
-0.0410857
-0.0467394
-0.0550156
-0.058776
-0.114189
-0.070413
-0.0990862
-0.119708
-0.619141
-1.59329
-2.38653
-3.00171
-3.34752
-3.63529
-3.83243
-4.02086
-4.2675
-4.2652
-4.71437
-5.94768
-5.80034
-4.82083
-4.19577
-3.48393
-1.96233
-1.5348
-0.990317
0.0704918
0.623339
1.28156
1.96463
2.62496
3.23669
3.7034
3.94667
3.72358
2.9623
1.89859
0.959269
0.306152
-0.142871
-0.373204
-0.585119
-0.885818
-1.01883
-1.38189
-1.60781
-2.22505
-2.36006
-1.58997
-2.39826
-3.0936
-8.79261
-11.0009
-12.3626
-13.7944
-14.791
-15.7851
-16.5801
-17.4155
-18.1441
-18.906
-19.5393
-20.2646
-20.8318
-21.4737
-22.0129
-22.5527
-23.0421
-23.4914
-23.9122
-24.2796
-24.6271
-24.9183
-25.1829
-25.3882
-25.5466
-25.6431
-25.68
-25.6683
-25.6132
-25.5327
-25.4132
-25.25
-25.0627
-24.8708
-24.6519
-24.4107
-24.2394
-23.6917
-23.1355
-22.6117
-21.9948
-21.3479
-20.5537
-19.7275
-19.0315
-18.2528
-16.594
-16.0511
-15.5379
-14.4877
-13.4973
-12.5142
-11.4907
-10.4878
-9.4954
-8.51694
-7.57368
-6.66541
-5.80854
-5.00986
-4.28218
-3.62817
-3.04245
-2.52419
-2.09181
-1.74195
-1.45257
-1.26169
-1.07793
-0.655386
-0.722556
-0.59484
-0.834498
-1.14798
-1.79183
-3.09399
-3.28389
-3.58609
-4.12312
-4.81721
-7.16509
-15.6732
-17.1727
-16.4499
-14.8147
-12.7455
-9.99639
-8.18284
-6.47655
-1.80749
0.986631
3.65978
6.56709
9.39025
12.0297
14.455
16.568
18.4478
20.1029
21.8239
23.0236
23.7738
24.6393
25.1394
25.2975
25.1523
24.999
24.3641
23.5216
22.6726
21.4359
19.9561
18.8578
18.0312
17.5646
17.98
19.0216
20.1002
21.3679
21.7988
19.9499
16.4813
12.3941
8.32945
4.62666
1.74385
-0.389231
-1.61394
-2.35288
-2.86545
-2.75297
-2.47812
-1.83218
-1.27623
0.0544499
-0.353816
-0.703849
-1.37413
-1.73191
-1.08627
-0.526105
-1.0454
-2.14033
-2.88748
-3.69409
-5.07973
-6.16908
-4.91913
-4.08614
-3.68463
-2.72733
-2.42301
-1.86025
-1.24986
-0.836073
-0.0882047
0.688934
1.62953
2.7148
3.67697
4.65119
5.17734
5.51766
5.49037
4.21002
2.76569
1.49968
0.497297
-0.236258
-0.260978
-1.17774
-1.91416
-2.75745
-4.73415
-7.89415
-9.52075
-7.66107
-16.1568
-14.0609
-10.9875
-15.3282
-13.7946
-12.7185
-12.9955
-12.1252
-11.9545
-11.4603
-11.4105
-11.1683
-12.6774
-13.3281
-14.7914
-15.8328
-17.234
-18.4845
-19.8189
-21.1109
-22.3914
-23.6408
-24.8557
-26.0319
-27.1626
-28.2389
-29.2485
-30.1768
-31.0126
-31.7511
-32.4007
-32.972
-33.466
-33.8555
-34.1064
-34.266
-34.3161
-34.3281
-34.344
-34.0404
-33.9739
-33.806
-33.471
-33.0679
-32.5429
-31.8977
-31.162
-30.359
-29.4619
-28.4393
-27.3532
-26.1657
-24.8344
-23.4402
-21.9916
-20.4637
-18.8838
-17.2689
-15.6254
-13.965
-12.3135
-10.6896
-9.08775
-7.52464
-6.04802
-4.5772
-3.32061
-2.35106
-1.28845
-0.665046
-0.430375
-0.481997
-0.45011
-0.262538
-0.25957
-0.42951
-0.5018
-0.510316
-0.705058
-2.29
-3.48164
-4.52006
-6.98131
-8.00101
-9.36205
-9.83029
-9.63433
-8.58384
-5.54235
-3.24509
-0.935335
1.88846
3.93451
6.55187
9.99735
13.5352
16.84
19.936
22.7021
25.1801
27.5923
29.7942
31.8996
34.4831
36.6157
38.5778
40.237
41.737
43.3292
45.4097
46.6503
47.1294
47.9606
48.5617
47.9682
47.715
48.0798
47.1538
45.8553
45.4291
42.6654
37.9891
34.6705
28.8197
20.4678
15.5083
13.4821
11.5196
10.8212
10.4189
10.1453
10.8472
10.5253
9.64989
9.63701
9.70119
9.38475
8.62072
-0.167563
-0.113285
0.697459
2.84528
7.03089
8.50451
9.10791
8.0198
7.76683
6.46276
5.1193
3.83644
2.48639
1.43867
0.428368
0.193415
-0.161562
-0.242901
-0.170012
-0.0906707
0.121889
0.443972
0.906577
1.54338
2.30678
3.12732
3.89205
4.39068
4.30928
3.96341
2.5282
1.07539
-1.14271
-1.7196
-2.08429
-4.95723
-6.86686
-11.7147
-19.2356
-25.0592
-31.2187
-16.2746
-10.0776
-12.0341
-12.9178
-11.8379
-10.6414
-9.57479
-8.56802
-8.25997
-9.21618
-10.4243
-12.4303
-14.5945
-15.8687
-17.4185
-18.9375
-20.3992
-21.8817
-23.3096
-24.7193
-26.088
-27.4191
-28.7065
-29.9471
-31.1377
-32.2758
-33.358
-34.3785
-35.3306
-36.2043
-36.9945
-37.7065
-38.339
-38.8897
-39.3512
-39.7175
-39.9938
-40.1833
-40.3084
-40.3672
-40.2384
-39.9753
-39.5832
-39.0504
-38.3908
-37.5951
-36.6687
-35.619
-34.443
-33.1343
-31.6905
-30.1269
-28.4004
-26.5007
-24.4788
-22.345
-20.0961
-17.7638
-15.3368
-12.881
-10.3774
-7.92168
-5.36115
-2.98841
-0.424706
2.18795
4.97074
7.54113
9.06056
11.9131
13.5429
15.1073
16.5158
17.7729
18.7735
19.543
20.1165
20.6249
21.4005
21.314
20.1416
17.8608
17.5793
20.4135
20.0865
18.6105
17.0243
15.3585
13.3645
11.8053
11.7923
10.5852
9.74545
8.98792
8.57048
9.25326
10.1558
11.2567
12.7288
14.3987
16.5023
19.1027
22.0246
25.0942
28.8516
32.7444
36.3235
40.3533
44.2056
47.9747
51.996
55.7085
58.6376
61.5663
64.0761
65.0154
65.6072
66.3848
65.7952
64.3081
63.1441
61.1004
57.9208
54.0022
48.3134
42.2358
35.5987
28.3514
22.2705
18.3249
14.811
12.1537
10.5269
9.17697
8.73733
8.2448
8.75182
9.21733
9.9215
-0.0073849
1.05157
3.10671
6.45272
6.48569
5.37365
3.09195
1.3475
-1.01274
-2.27302
-2.94406
-3.15657
-3.17062
-3.11089
-2.96254
-2.78146
-2.59286
-2.36692
-2.07351
-1.70675
-1.32268
-0.901451
-0.392235
0.2194
0.910913
1.62236
2.26421
2.61801
2.41487
1.45889
-0.400285
-2.8604
-4.57476
-5.25016
-8.75143
-12.0908
-21.3518
-35.3528
-51.1308
-28.0233
-10.3156
-7.3666
-9.23466
-12.1031
-10.3451
-9.66707
-8.69214
-8.5014
-9.04106
-10.0956
-11.6854
-13.3692
-15.2134
-16.9482
-18.5659
-20.2162
-21.8217
-23.3885
-24.9271
-26.4288
-27.8982
-29.3313
-30.7254
-32.075
-33.3727
-34.6103
-35.7896
-36.9131
-37.9824
-38.9962
-39.9325
-40.7688
-41.5227
-42.188
-42.7597
-43.23
-43.5901
-43.8391
-43.9737
-44.0007
-43.9052
-43.6317
-43.1788
-42.5766
-41.8188
-40.9032
-39.8426
-38.6425
-37.3013
-35.8189
-34.2059
-32.4374
-30.5111
-28.4233
-26.1053
-23.6025
-20.9252
-17.9233
-15.1438
-11.8106
-8.49495
-5.08911
-1.89257
1.68251
4.91232
7.30184
11.5422
15.122
18.707
22.3636
26.7028
29.6586
32.5496
35.3222
38.0029
40.533
42.8773
44.9785
46.369
48.5794
51.5727
54.0794
56.9848
57.5585
56.3874
58.235
57.1125
55.2308
52.4365
48.6319
42.1424
31.9485
26.709
22.1038
17.5661
13.1414
10.3002
7.74333
5.76288
4.65098
4.17794
4.75842
6.35197
8.84873
12.2448
15.6415
19.1656
24.1785
30.1471
36.4969
42.98
49.652
56.0085
61.6173
66.8401
71.3953
74.4387
76.4621
77.8862
77.9075
76.5571
74.7041
72.3403
68.9493
64.5632
59.0988
53.4246
47.2342
40.0081
32.359
26.2268
21.1965
16.7728
13.1088
10.6943
9.22251
8.51212
8.41784
8.81279
9.76692
0.619568
0.932078
1.90539
0.0797508
-0.984702
-3.35241
-5.04752
-5.83028
-6.19935
-6.1763
-6.00198
-5.69952
-5.14306
-4.79787
-4.57806
-4.42581
-4.30388
-4.20168
-4.0812
-3.82689
-3.46367
-2.9887
-2.40521
-1.73679
-1.03977
-0.401667
0.0370726
0.0258145
-0.744299
-2.44679
-4.85
-6.71407
-8.0238
-12.2869
-17.5195
-31.6018
-56.4447
-58.139
-28.3617
2.22476
-2.24979
-6.63299
-10.6983
-11.2861
-9.57964
-8.88729
-8.46336
-8.90433
-9.89772
-11.2882
-12.9669
-14.7381
-16.5631
-18.3516
-20.1085
-21.846
-23.5423
-25.1968
-26.8112
-28.3899
-29.9318
-31.4356
-32.8971
-34.3084
-35.6581
-36.94
-38.1575
-39.3195
-40.4329
-41.4884
-42.4551
-43.308
-44.0613
-44.7118
-45.2565
-45.6916
-46.0182
-46.2353
-46.3311
-46.2832
-46.0723
-45.7163
-45.1828
-44.4606
-43.5449
-42.4328
-41.128
-39.6349
-37.9472
-36.1295
-34.2339
-32.1929
-30.0289
-27.9042
-25.3475
-22.7438
-19.6376
-15.7097
-13.471
-9.24368
-5.12696
-0.299974
3.37629
7.20424
10.9861
15.0482
19.2583
23.5196
27.9243
32.5678
38.0537
42.7239
47.4701
51.947
56.4108
60.9701
65.6477
70.4454
75.5643
79.5834
84.5252
89.0213
92.9914
95.8067
95.7306
89.8447
88.795
87.192
84.2025
79.4442
73.1491
69.6901
61.4295
51.5797
40.7667
29.6563
19.4407
10.2181
2.17815
-3.9516
-8.80006
-11.2412
-10.9137
-9.45705
-6.76428
-2.72591
2.75845
8.84264
15.9364
23.7578
31.9811
40.8836
49.6664
57.8782
65.5604
72.3761
77.7159
81.6229
84.3232
85.3244
84.6523
82.8186
80.0163
76.2538
71.5597
65.9173
60.0985
53.8918
47.0607
39.6691
32.9575
27.0448
21.9318
17.3969
13.9736
11.4914
10.0472
9.33536
9.34016
9.70159
1.73079
1.40671
1.01021
-2.02302
-6.06372
-7.74077
-8.44246
-8.46591
-8.28557
-7.65542
-7.17028
-6.81562
-6.66856
-6.53914
-6.42787
-6.32293
-6.21888
-6.09106
-5.90825
-5.64445
-5.3237
-4.92645
-4.45373
-3.88431
-3.21899
-2.84782
-2.92079
-3.65208
-5.16729
-7.32484
-9.64218
-11.5387
-15.6741
-23.0058
-40.4634
-62.1052
-57.9558
-32.4351
8.77363
4.95615
-2.29046
-10.1077
-11.9559
-10.7795
-9.33802
-8.57867
-8.51692
-9.17963
-10.306
-11.7796
-13.4732
-15.2722
-17.1201
-18.9639
-20.7869
-22.5863
-24.3456
-26.0599
-27.7283
-29.3584
-30.9467
-32.4917
-33.9885
-35.429
-36.8035
-38.1082
-39.343
-40.5097
-41.6131
-42.655
-43.6202
-44.491
-45.2483
-45.8859
-46.3952
-46.7614
-46.9859
-47.0863
-47.0437
-46.9672
-46.7483
-46.4002
-45.8745
-45.1525
-44.2243
-43.0795
-41.7092
-40.0807
-38.1005
-35.9622
-33.5411
-31.3178
-28.7279
-27.0766
-24.2332
-21.4469
-18.493
-15.2172
-11.9917
-8.11489
-3.99698
1.04195
5.28844
9.63949
14.1042
18.8063
23.6525
28.6118
33.627
38.9546
44.269
50.1708
56.0013
62.0476
68.1484
74.3377
80.8716
87.5453
94.1362
100.052
103.129
108.377
113.534
118.069
122.121
129.696
133.228
134.518
133.669
130.475
125.061
116.815
105.756
92.1325
76.3205
59.3348
42.2607
25.6016
9.96631
-3.32698
-14.9376
-22.8383
-27.0656
-28.954
-28.0597
-24.6927
-19.6591
-12.2835
-3.94753
5.39508
15.3904
26.3453
37.6749
48.5827
58.1286
67.055
74.8609
80.9371
85.3575
87.7673
88.2429
87.0043
84.288
80.4179
75.6093
69.9044
63.946
57.7587
51.2909
44.357
37.7778
31.674
26.2753
21.4234
17.4221
14.3731
12.2099
10.9434
10.3622
10.2681
-2.95175
-1.71002
-6.45954
-8.73152
-9.9733
-10.1711
-9.92121
-9.47314
-8.95471
-8.54444
-8.15245
-7.82874
-7.59987
-7.46059
-7.38736
-7.34744
-7.32078
-7.26494
-7.14852
-6.94763
-6.6146
-6.1714
-5.78446
-5.62627
-5.90319
-5.98376
-6.74375
-8.20053
-10.2405
-12.6519
-15.4683
-18.876
-26.6791
-41.0142
-59.6501
-63.4334
-26.2609
1.22269
8.78023
3.44717
-8.3936
-13.9512
-11.6977
-10.2896
-8.90463
-8.25946
-8.39291
-9.13912
-10.3003
-11.7664
-13.4296
-15.2048
-17.0372
-18.876
-20.6949
-22.4944
-24.2542
-25.9706
-27.6439
-29.2739
-30.859
-32.3963
-33.8802
-35.3007
-36.6453
-37.908
-39.094
-40.1986
-41.2321
-42.2041
-43.1287
-43.9819
-44.7908
-45.4872
-46.041
-46.4036
-46.545
-46.4251
-45.9159
-45.8355
-45.6589
-45.3258
-44.8131
-44.1134
-43.2265
-42.1388
-40.8619
-39.2552
-37.4465
-34.9563
-32.951
-30.4721
-28.0948
-25.7704
-23.0696
-20.222
-17.2484
-14.2572
-10.883
-7.24963
-3.46403
0.153234
4.45029
8.91419
13.5112
18.2798
23.3035
28.5581
33.8471
39.4755
45.3461
51.4662
57.791
64.3023
71.0064
78.2603
85.3557
92.5762
99.7928
106.813
115.617
123.824
131.676
139.336
146.823
153.779
159.361
163.29
165.123
164.343
160.699
153.466
142.941
129.181
112.268
93.569
73.8813
53.4162
32.9899
14.3181
-3.44975
-17.1945
-28.11
-36.7821
-40.1903
-40.335
-38.5435
-32.5036
-25.5162
-15.9637
-5.48307
6.62713
19.9946
33.668
44.9564
55.5776
66.77
75.1821
81.0349
84.9002
86.4255
86.1041
84.0326
80.3438
76.1223
70.6995
64.9963
59.1168
53.1358
46.8343
40.714
34.8542
29.5269
24.659
20.4641
17.0984
14.4922
12.7254
11.6708
11.0862
-4.90464
-7.40571
-9.88881
-10.889
-11.013
-10.7757
-10.298
-9.68017
-9.04329
-8.50273
-8.06521
-7.75063
-7.57595
-7.50983
-7.5371
-7.63292
-7.74631
-7.84091
-7.88303
-7.87429
-7.82521
-7.79939
-7.79161
-7.89958
-8.28321
-9.11857
-10.6823
-12.5122
-14.7129
-17.2075
-21.1636
-27.6436
-39.1199
-54.8292
-60.9216
-31.299
-5.89104
10.8477
7.09529
-5.64715
-14.2914
-13.6227
-11.1037
-9.47087
-8.24463
-7.77755
-8.02403
-8.79433
-9.92656
-11.3267
-12.9122
-14.5935
-16.3192
-18.0685
-19.811
-21.5333
-23.2216
-24.8703
-26.4769
-28.0396
-29.5562
-31.0229
-32.4301
-33.7679
-35.0209
-36.1765
-37.2502
-38.2182
-39.1523
-40.0121
-40.8177
-41.4507
-42.3331
-43.134
-43.782
-44.218
-44.3814
-44.2418
-43.6216
-43.4351
-43.0734
-42.58
-41.886
-40.9975
-39.9355
-38.6499
-37.3223
-35.5242
-34.1441
-32.1164
-30.4471
-28.1862
-25.8326
-23.3724
-20.7266
-17.9197
-14.9122
-11.5669
-8.31142
-4.93928
-1.34707
2.2528
6.03538
9.95644
13.9733
18.1319
22.524
27.2562
32.7782
37.9906
43.3764
49.0534
55.0715
61.3661
67.8999
74.6689
82.0625
89.7708
97.7109
105.856
114.376
122.983
131.612
140.312
148.778
156.744
163.761
169.314
172.848
173.546
171.204
164.956
155.187
142.384
126.554
108.153
88.3662
68.3309
48.8777
31.7498
14.2281
1.05769
-10.8016
-25.5966
-29.2129
-32.6568
-37.7276
-37.0985
-34.2338
-28.7949
-21.136
-11.7353
0.523341
18.1386
24.6848
30.5316
50.5348
61.7729
69.3117
74.9504
79.0392
80.1895
79.489
76.2899
72.4318
67.5729
62.7777
57.7165
52.5723
47.171
41.8046
36.5145
31.5587
26.91
22.786
19.3025
16.4803
14.376
12.9483
11.9671
-5.82428
-8.98738
-11.1764
-11.7906
-11.6098
-11.1059
-10.3879
-9.66808
-9.02337
-8.48158
-8.03823
-7.74611
-7.59272
-7.54918
-7.61359
-7.7635
-7.96681
-8.1921
-8.42428
-8.65888
-8.91574
-9.23311
-9.60921
-10.0735
-10.4725
-12.0105
-13.7036
-15.6153
-17.9716
-21.306
-26.6327
-35.4244
-47.7363
-55.5729
-34.7007
-12.4252
4.94874
7.91748
0.635856
-13.3783
-14.6634
-12.2947
-9.97003
-8.37854
-7.37277
-7.06513
-7.36715
-8.10813
-9.15432
-10.4353
-11.858
-13.3594
-14.9202
-16.5055
-18.0908
-19.6601
-21.2004
-22.7037
-24.1657
-25.584
-26.9587
-28.2859
-29.5273
-30.6937
-31.7663
-32.6894
-33.5047
-34.1715
-35.0056
-35.8057
-36.5278
-36.9255
-37.7756
-38.4511
-39.0076
-39.3677
-39.5231
-39.5217
-39.4794
-39.0683
-38.4192
-37.5808
-36.5299
-35.2615
-33.867
-31.9909
-30.5342
-28.3606
-26.3716
-24.0363
-21.8045
-19.4747
-17.0971
-14.6919
-12.24
-9.73865
-7.18074
-4.56403
-1.98553
0.542236
2.75811
5.43595
8.28032
11.2816
14.4064
17.6904
21.1884
24.908
28.6683
32.8456
37.3542
42.2328
47.5141
53.1796
59.2198
65.6736
72.5153
79.6921
87.1369
94.8334
102.698
110.952
119.317
127.936
136.392
144.519
151.848
157.657
161.321
161.834
159.063
151.953
141.116
126.203
109.557
91.5394
73.5631
56.8646
41.5727
29.2412
16.7196
8.45969
0.442006
-10.41
-13.2547
-15.9856
-22.0845
-24.4073
-24.8634
-23.5592
-20.6422
-15.8932
-8.86219
0.181819
8.01863
14.6038
27.5546
41.9562
46.3239
51.5962
63.571
66.618
67.5389
67.2414
65.3415
62.1723
57.5672
53.5773
49.6065
45.4138
41.099
36.6605
32.3258
28.113
24.2528
20.8267
17.9717
15.6812
14.0043
12.7473
-6.85307
-11.535
-13.0921
-13.1979
-12.5631
-11.6442
-10.6885
-9.82165
-9.09743
-8.52944
-8.14728
-7.88113
-7.68153
-7.64815
-7.74441
-7.94709
-8.23722
-8.59739
-9.00434
-9.39264
-9.79187
-10.176
-10.7067
-11.5383
-12.5809
-14.1736
-15.4457
-17.3409
-20.0414
-24.2312
-31.0831
-40.7691
-47.3813
-35.7169
-13.1108
-3.75752
7.99891
3.50582
-10.0706
-14.3036
-12.9946
-10.4653
-8.42254
-7.04462
-6.25672
-6.04977
-6.32475
-6.9335
-7.72492
-8.81271
-10.0275
-11.3284
-12.6819
-14.0594
-15.4391
-16.8037
-18.138
-19.4312
-20.6767
-21.8683
-23.0173
-24.1297
-25.0678
-25.8736
-26.5576
-27.048
-27.4335
-27.6649
-28.4558
-29.1905
-29.9617
-30.7505
-31.3156
-31.7201
-31.9496
-31.9544
-31.7255
-31.2694
-30.5231
-29.4939
-28.2651
-26.8929
-25.3853
-23.5619
-21.6253
-19.9843
-18.0352
-16.0439
-14.1971
-12.7538
-10.8704
-8.91609
-6.97244
-5.06413
-3.18492
-1.33226
0.493551
2.28877
4.03707
5.76659
7.61357
9.3923
11.2623
13.2597
15.3838
17.6597
20.1238
22.8
25.6771
28.8403
32.3088
36.1009
40.2463
44.7624
49.6568
54.9414
60.5716
66.5536
72.7302
79.2048
85.9965
93.3055
100.767
108.701
116.552
124.169
131.019
136.033
138.552
137.759
132.217
122.55
109.921
93.8258
77.467
61.0796
46.0239
33.0193
21.6399
13.2072
5.51153
1.81737
-3.57559
-6.58008
-8.36323
-11.4162
-13.2767
-14.2453
-14.6211
-14.3682
-13.2844
-11.1297
-8.05286
-3.94788
1.00927
5.08889
11.5479
20.4628
23.9346
30.6108
40.8044
43.4541
49.3737
51.4776
51.8036
50.8362
50.2937
47.0768
44.5565
41.8207
38.791
35.421
31.9087
28.3031
24.8577
21.652
18.8949
16.5517
14.7637
13.3429
-7.39351
-12.7742
-14.3139
-14.2447
-13.3292
-12.1463
-11.0066
-10.0515
-9.30673
-8.74397
-8.32532
-8.09518
-8.01309
-8.0349
-8.17111
-8.40889
-8.72859
-9.12308
-9.55648
-10.0228
-10.4481
-11.172
-11.8855
-12.6722
-13.5889
-14.4059
-15.7776
-17.8567
-21.1149
-26.1503
-32.4949
-36.8149
-33.5556
-15.9264
-6.73631
5.02798
2.84776
-5.23877
-12.2957
-12.4826
-10.479
-8.25028
-6.54603
-5.40058
-4.71085
-4.38813
-4.67622
-5.36846
-6.48273
-7.48439
-8.53176
-9.62017
-10.7459
-11.8799
-13.0005
-14.091
-15.1355
-16.1227
-17.0456
-17.8464
-18.4614
-18.6613
-18.9516
-19.1978
-19.2813
-19.2035
-19.5735
-19.8692
-20.2689
-20.6958
-21.126
-21.4241
-21.5543
-21.5127
-21.311
-20.9216
-20.3265
-19.5149
-18.4402
-17.1778
-15.8133
-14.3779
-12.6764
-10.9244
-9.38309
-7.64631
-5.89271
-4.14117
-2.40799
-0.553168
1.16643
2.82631
4.41789
5.93591
7.3845
8.76391
10.0703
11.3003
12.4531
13.5429
14.6095
15.6655
16.7733
17.9635
19.2464
20.6376
22.1606
23.8447
25.7076
27.779
30.0701
32.5779
35.3327
38.389
41.7737
45.5174
49.569
53.8755
58.3536
63.3741
68.7186
74.7739
81.0266
87.9924
94.9228
101.439
107.071
110.267
110.344
106.617
98.6136
86.8947
73.5086
57.8988
43.4145
28.8866
17.2731
8.6544
1.1788
-2.93312
-6.88637
-8.81252
-9.0351
-10.229
-10.5055
-10.63
-10.519
-10.1643
-9.55568
-8.76997
-7.71429
-6.25357
-4.55051
-2.62223
0.0665961
2.17105
5.08063
9.84881
11.2564
14.7933
18.6979
21.582
29.5765
32.2933
36.2461
37.6853
38.3145
39.2699
37.7322
36.7903
35.2281
33.0623
30.5052
27.6286
24.7095
21.8437
19.2891
17.0202
15.2222
13.737
-8.13579
-14.4978
-15.8803
-15.5171
-14.1395
-12.5478
-11.1481
-10.097
-9.37427
-8.90826
-8.6295
-8.48997
-8.46784
-8.55362
-8.74079
-9.00124
-9.34553
-9.72045
-10.0127
-10.5082
-10.9623
-11.3873
-11.8401
-12.3509
-12.9799
-13.8575
-15.2482
-17.4873
-20.895
-25.1885
-28.6573
-28.1667
-17.5812
-8.09051
0.807236
3.08392
0.0787387
-8.70156
-10.8016
-9.47435
-7.4607
-5.60496
-4.16785
-3.06163
-2.78052
-3.16753
-3.5146
-4.06651
-4.68974
-5.45681
-6.24251
-6.94728
-7.75309
-8.56975
-9.36423
-10.1191
-10.8149
-11.4469
-12.0728
-12.4424
-12.629
-12.7973
-12.533
-12.1069
-11.986
-11.7029
-11.5799
-11.4838
-11.4283
-11.372
-11.3016
-11.1421
-10.8432
-10.4067
-9.84181
-9.13312
-8.2685
-7.24656
-6.10284
-4.82134
-3.42462
-1.9346
-0.278192
1.3055
2.93212
4.6418
6.35789
8.07056
9.77335
11.4702
13.096
14.6388
16.087
17.4391
18.7005
19.8712
20.9433
21.9093
22.7644
23.5074
24.1525
24.7326
25.2986
25.8837
26.5003
27.1544
27.8559
28.631
29.508
30.5013
31.6201
32.8382
34.1776
35.7436
37.5786
39.7436
42.0271
44.5331
47.3499
50.7486
54.4797
59.125
64.0032
69.7873
75.4116
79.8024
83.084
83.2744
80.9022
73.8585
64.4026
50.7587
37.3966
23.1701
12.5889
5.04132
-1.78691
-5.08589
-9.64302
-10.706
-12.1812
-13.5042
-13.5188
-13.2036
-12.5145
-11.496
-10.307
-9.0245
-7.66896
-6.28878
-4.91292
-3.46319
-1.9951
-0.668634
1.02683
2.1746
3.42635
5.49861
5.85331
7.06277
6.8961
7.11
9.59591
13.9688
20.6624
23.1853
26.2641
28.7282
30.7557
31.0479
30.8431
29.9283
28.3934
26.3157
23.9921
21.5446
19.2707
17.163
15.4422
13.9705
-8.45356
-15.7639
-17.1523
-16.6222
-14.7985
-12.7473
-11.0297
-9.86615
-9.16292
-8.79157
-8.64785
-8.65211
-8.75973
-8.948
-9.19224
-9.54994
-9.84418
-10.0512
-10.4264
-10.7282
-10.9742
-11.1805
-11.3815
-11.637
-12.0547
-12.8068
-14.1095
-16.1133
-18.6578
-20.8468
-21.0481
-17.719
-9.31335
-0.00393216
2.51919
1.66541
-4.11214
-7.57902
-7.3633
-5.72557
-4.00002
-2.53128
-1.37632
-1.42661
-1.31074
-1.32744
-1.48744
-1.86556
-2.28484
-2.81864
-3.41664
-4.11725
-4.71181
-5.2468
-5.72768
-6.14816
-6.4688
-6.60691
-6.4423
-6.21561
-5.67784
-5.00319
-4.50114
-3.77038
-3.23946
-2.75324
-2.3295
-1.93529
-1.56503
-1.21286
-0.867271
-0.483634
-0.0261986
0.51106
1.1317
1.85201
2.68992
3.66017
4.76091
6.0263
7.42312
8.93335
10.5542
12.2356
13.825
15.6537
17.4573
19.2817
21.1066
22.9122
24.6622
26.3253
27.877
29.3095
30.6289
31.8354
32.9161
33.8566
34.6436
35.2613
35.7047
36.0045
36.2163
36.3821
36.5163
36.6183
36.686
36.7452
36.8265
36.9555
37.1222
37.2945
37.4646
37.8023
38.3279
38.97
39.6117
40.5306
41.6767
43.3701
45.397
48.4471
51.792
55.4982
58.9118
60.7331
61.0248
57.9371
52.4916
41.8112
30.0825
19.0798
10.3147
4.21591
-2.04171
-5.21575
-9.7309
-11.0126
-12.7148
-14.397
-15.1746
-15.4156
-15.2038
-14.571
-13.573
-12.2873
-10.783
-9.13922
-7.43306
-5.70157
-4.04824
-2.45227
-0.930435
0.323636
1.63318
2.43281
3.04069
3.68402
3.30779
3.03738
1.58722
-0.33207
-2.10185
-0.983129
3.40069
10.9171
14.0779
17.6759
22.7012
24.7246
26.0254
26.3703
25.8719
24.6172
22.9196
20.9319
18.9861
17.0954
15.5126
14.1101
-8.78649
-17.0164
-18.4926
-17.8315
-15.4748
-12.739
-10.5072
-9.23253
-8.54526
-8.20643
-8.14896
-8.26899
-8.492
-8.78146
-9.10955
-9.50607
-9.79163
-9.96455
-10.2461
-10.395
-10.4429
-10.4171
-10.3612
-10.3553
-10.5262
-11.0452
-12.0614
-13.5351
-14.9981
-15.4414
-13.7693
-9.86111
-1.6587
1.248
2.37532
0.566157
-3.04623
-3.7237
-2.74253
-1.36572
-0.167647
0.60365
0.775503
1.05461
1.23749
1.16985
0.758853
0.351765
-0.0740598
-0.528186
-0.993024
-1.44463
-1.82252
-2.11967
-2.33056
-2.45125
-2.49843
-2.2536
-1.60927
-0.755836
0.0488542
1.13308
2.0812
2.96527
3.72461
4.41122
5.0522
5.65697
6.22614
6.76233
7.2796
7.80842
8.37669
8.99824
9.6862
10.4617
11.3477
12.361
13.5163
14.8249
16.277
17.8661
19.594
21.4686
23.0756
25.1396
27.1521
29.2201
31.3065
33.3812
35.4104
37.3522
39.1651
40.8278
42.3447
43.7201
44.9403
45.9824
46.8278
47.4539
47.8422
48.0192
48.0532
47.9965
47.8757
47.6871
47.4219
47.1097
46.7722
46.4456
46.0737
45.6568
45.1493
44.7111
44.1469
43.5568
42.8416
42.2831
41.7145
41.6128
41.8155
42.9451
43.7526
45.4416
45.8769
44.6869
40.7797
34.5829
23.4872
15.9784
8.04221
3.51198
-1.34147
-3.83425
-8.12867
-9.4583
-11.0718
-13.4235
-14.5123
-15.306
-15.681
-15.6615
-15.3233
-14.6923
-13.7881
-12.646
-11.2886
-9.74756
-8.07716
-6.30643
-4.55138
-2.83899
-1.21115
0.147542
1.36056
2.10257
2.52676
2.62085
1.91583
0.818647
-1.02953
-3.68777
-7.2708
-9.74692
-8.85726
-3.67845
4.9613
8.59139
12.9445
18.5234
21.1849
22.6831
23.1976
22.7617
21.6908
20.1756
18.578
16.9338
15.524
14.2254
-8.94962
-18.1216
-19.7519
-19.0099
-16.2174
-13.0505
-10.5064
-8.80427
-7.78542
-7.204
-7.01942
-7.09794
-7.31857
-7.62073
-7.97008
-8.32451
-8.66894
-8.87581
-8.97749
-9.04983
-8.94251
-8.72905
-8.46277
-8.28176
-8.29606
-8.64047
-9.38197
-10.4008
-11.2948
-11.4426
-10.3656
-6.94086
-1.03311
1.50825
2.3597
0.580683
0.930929
1.72042
2.69691
3.48075
4.07902
4.71673
4.48319
4.46131
4.05695
3.68339
3.23903
2.76721
2.29183
1.8298
1.36702
0.97607
0.692644
0.537042
0.559121
0.825238
1.226
1.63639
2.4052
3.5124
4.62073
5.78276
6.89038
7.90874
8.82376
9.65412
10.4263
11.1533
11.8396
12.4901
13.1181
13.7472
14.4015
15.0994
15.8592
16.7045
17.6612
18.751
19.9909
21.3911
22.952
24.6754
26.575
28.7114
30.4682
32.722
34.9826
37.3415
39.7332
42.114
44.4522
46.7052
48.8154
50.7406
52.483
54.0555
55.4454
56.6252
57.5842
58.3081
58.7756
59.0159
59.1155
59.1413
59.1232
59.0553
58.9267
58.7591
58.5405
58.3105
57.9304
57.4621
56.6857
55.7784
54.4103
52.9292
50.8365
48.7955
46.1962
44.1823
41.8763
40.7649
38.77
38.7677
34.4123
28.3971
19.8638
13.206
7.897
4.05903
0.429876
-2.18799
-5.84668
-7.02718
-8.54985
-10.8526
-12.4077
-13.4435
-14.1934
-14.6551
-14.8717
-14.8405
-14.5787
-14.1107
-13.4477
-12.5941
-11.5562
-10.3348
-8.94552
-7.40204
-5.78682
-4.13651
-2.51021
-1.06363
0.184327
1.01945
1.5071
1.58266
0.915494
-0.452345
-2.44015
-5.18952
-9.16452
-13.5169
-15.8997
-13.9792
-7.28531
1.92653
5.76647
10.2287
16.5443
19.0732
20.5435
20.9193
20.4586
19.4099
18.1609
16.7728
15.5502
14.3733
-9.02512
-19.1549
-21.0733
-20.4475
-17.624
-14.2608
-11.3118
-9.05809
-7.45603
-6.22384
-5.54374
-5.30352
-5.26783
-5.38705
-5.60527
-5.85784