/*--------------------------------*- C++ -*----------------------------------*\
| =========                 |                                                 |
| \\      /  F ield         | OpenFOAM: The Open Source CFD Toolbox           |
|  \\    /   O peration     | Version:  2112                                  |
|   \\  /    A nd           | Website:  www.openfoam.com                      |
|    \\/     M anipulation  |                                                 |
\*---------------------------------------------------------------------------*/
FoamFile
{
    version     2.0;
    format      ascii;
    arch        "LSB;label=32;scalar=64";
    class       volScalarField;
    location    "0.07";
    object      k;
}
// * * * * * * * * * * * * * * * * * * * * * * * * * * * * * * * * * * * * * //

dimensions      [0 2 -2 0 0 0 0];

internalField   nonuniform List<scalar> 
12885
(
0.507004
0.855333
1.51656
1.97429
2.16535
2.27346
2.44833
2.84272
3.97512
5.06372
5.77199
6.16126
6.40295
6.70116
7.27047
8.74259
10.3735
11.682
12.582
13.1199
13.4158
13.646
14.0315
14.8516
15.8672
16.9003
17.8372
18.6092
19.1898
19.5932
19.8564
20.0378
20.1831
20.3391
20.5195
20.7411
20.9859
21.2594
21.6399
21.4222
0.37966
0.38755
0.414705
0.434933
0.437001
0.437738
0.443775
0.467352
0.541639
0.700429
0.820649
0.883646
0.925091
0.982932
1.08358
1.29501
1.67073
2.06823
2.40226
2.64064
2.79654
2.89703
3.02857
3.26879
3.62216
4.06697
4.55292
5.04559
5.50963
5.91948
6.25347
6.5293
6.7535
6.96734
7.17392
7.41239
7.67241
7.99669
8.37646
9.08906
0.375802
0.376385
0.377863
0.377425
0.375193
0.37077
0.365639
0.36119
0.360566
0.362519
0.365727
0.365911
0.36576
0.366839
0.371002
0.382016
0.405165
0.453071
0.502141
0.549948
0.581979
0.60962
0.63068
0.666091
0.7092
0.787093
0.877264
1.00668
1.14016
1.30517
1.44958
1.60989
1.73235
1.87252
1.97431
2.113
2.21682
2.38554
2.51502
2.74256
0.375315
0.375651
0.375722
0.375392
0.374458
0.372492
0.370123
0.367764
0.365503
0.363825
0.362089
0.359551
0.356743
0.354704
0.352344
0.351103
0.351272
0.352367
0.355042
0.357869
0.35961
0.360374
0.360844
0.361606
0.363095
0.366678
0.371671
0.382947
0.392926
0.414077
0.430821
0.459007
0.478471
0.508754
0.527389
0.558457
0.577673
0.611933
0.635453
0.680847
0.375187
0.375469
0.375445
0.375252
0.374776
0.373812
0.372637
0.37141
0.370217
0.369171
0.368055
0.36663
0.365098
0.363693
0.362199
0.360895
0.35989
0.359037
0.35842
0.357907
0.357275
0.356294
0.355108
0.353949
0.352828
0.351718
0.350926
0.35088
0.351045
0.35185
0.352913
0.355257
0.357136
0.360125
0.362207
0.365338
0.367296
0.370704
0.373008
0.377796
0.375129
0.375362
0.375346
0.375227
0.374941
0.374398
0.373732
0.37303
0.372354
0.371728
0.37105
0.370242
0.369381
0.368531
0.367671
0.36686
0.366136
0.365472
0.364855
0.364217
0.363546
0.362768
0.361909
0.361045
0.360173
0.359298
0.35851
0.357873
0.357341
0.356952
0.356641
0.356604
0.356628
0.356728
0.35683
0.356977
0.357082
0.357203
0.357324
0.357559
0.375092
0.375272
0.37528
0.375205
0.37502
0.374687
0.374282
0.373854
0.373436
0.373028
0.372583
0.37208
0.37155
0.371021
0.370497
0.36999
0.369507
0.369037
0.368571
0.368095
0.367596
0.367062
0.366503
0.365943
0.365383
0.364834
0.364314
0.363845
0.363419
0.363047
0.362735
0.362465
0.362237
0.362058
0.361909
0.361784
0.361673
0.361571
0.36149
0.361384
0.375064
0.375194
0.375221
0.375175
0.375056
0.374845
0.37459
0.374319
0.374046
0.373768
0.373465
0.373133
0.372789
0.372448
0.372112
0.371782
0.371454
0.371123
0.370783
0.370435
0.370075
0.369705
0.369331
0.368961
0.3686
0.368249
0.367916
0.367605
0.367316
0.367053
0.366819
0.366612
0.366431
0.366275
0.366141
0.366025
0.365924
0.365836
0.365755
0.365661
0.375042
0.37513
0.375164
0.37514
0.375067
0.374934
0.374773
0.374598
0.374416
0.374225
0.374016
0.373792
0.373565
0.37334
0.373118
0.372897
0.372671
0.372438
0.372194
0.371943
0.371687
0.371429
0.371175
0.370929
0.370691
0.370464
0.370248
0.370045
0.369854
0.369678
0.369517
0.369372
0.369244
0.369128
0.369022
0.368926
0.368841
0.368766
0.368698
0.368631
0.375024
0.375078
0.375108
0.3751
0.37506
0.37498
0.37488
0.374768
0.374648
0.374518
0.374376
0.374227
0.374076
0.373927
0.37378
0.373631
0.373476
0.373313
0.373142
0.372965
0.372786
0.372609
0.372436
0.372271
0.372113
0.371964
0.371822
0.371686
0.371557
0.371436
0.371324
0.371221
0.371128
0.371046
0.370973
0.370908
0.370852
0.370804
0.370765
0.370732
0.375009
0.375036
0.375056
0.375055
0.375037
0.374994
0.374936
0.374868
0.374791
0.374705
0.374612
0.374515
0.374417
0.374321
0.374225
0.374126
0.374022
0.373911
0.373795
0.373674
0.373552
0.373432
0.373315
0.373204
0.373098
0.372999
0.372907
0.37282
0.372739
0.372663
0.372594
0.37253
0.372472
0.372424
0.372386
0.372357
0.372337
0.372324
0.372317
0.372313
0.374995
0.375
0.375008
0.375009
0.375001
0.374982
0.374953
0.374917
0.374873
0.374821
0.374764
0.374706
0.374648
0.374591
0.374534
0.374474
0.374409
0.374339
0.374263
0.374184
0.374104
0.374027
0.373952
0.373883
0.373818
0.373759
0.373705
0.373658
0.373617
0.373581
0.373549
0.373523
0.373501
0.373484
0.373474
0.373469
0.37347
0.373475
0.373485
0.373498
0.374982
0.374963
0.374957
0.374955
0.374952
0.374946
0.374938
0.374926
0.37491
0.37489
0.374866
0.37484
0.374817
0.374795
0.374773
0.37475
0.374722
0.374688
0.374649
0.374607
0.374565
0.374525
0.37449
0.374458
0.374432
0.374411
0.374394
0.374382
0.374373
0.374367
0.374364
0.374365
0.374368
0.374375
0.374385
0.374399
0.374416
0.374436
0.374459
0.374483
0.374968
0.374924
0.374899
0.374886
0.374882
0.374883
0.374885
0.374889
0.374895
0.3749
0.374905
0.37491
0.374916
0.374924
0.374932
0.374939
0.374944
0.374946
0.374945
0.374942
0.374939
0.374937
0.374937
0.374939
0.374945
0.374955
0.374968
0.374983
0.375
0.375019
0.37504
0.375062
0.375086
0.375112
0.37514
0.375168
0.375199
0.37523
0.375262
0.375295
0.374956
0.374887
0.374838
0.374808
0.374794
0.374793
0.374798
0.374809
0.374825
0.374845
0.374868
0.374893
0.374919
0.374947
0.374976
0.375005
0.375035
0.375063
0.375092
0.375121
0.375149
0.375178
0.375208
0.375239
0.375271
0.375303
0.375337
0.375372
0.375408
0.375445
0.375482
0.37552
0.375558
0.375597
0.375636
0.375675
0.375715
0.375753
0.375792
0.37583
0.374947
0.374856
0.374784
0.374733
0.374703
0.37469
0.374692
0.374701
0.374719
0.374742
0.37477
0.374801
0.374836
0.374873
0.374912
0.374952
0.374993
0.375036
0.37508
0.375125
0.37517
0.375216
0.375263
0.375309
0.375356
0.375402
0.375448
0.375495
0.375541
0.375586
0.375632
0.375677
0.375722
0.375766
0.37581
0.375853
0.375895
0.375936
0.375976
0.376015
0.374941
0.374834
0.374746
0.374677
0.37463
0.374602
0.374594
0.374598
0.374611
0.374632
0.374657
0.374687
0.37472
0.374757
0.374795
0.374837
0.37488
0.374924
0.37497
0.375017
0.375064
0.375112
0.375161
0.375209
0.375257
0.375305
0.375353
0.3754
0.375446
0.375492
0.375536
0.37558
0.375623
0.375665
0.375706
0.375746
0.375785
0.375822
0.375859
0.375894
0.374939
0.374827
0.374732
0.374657
0.374601
0.374565
0.374548
0.374547
0.374555
0.374571
0.374593
0.374618
0.374647
0.374679
0.374712
0.374748
0.374786
0.374825
0.374864
0.374904
0.374945
0.374986
0.375027
0.375067
0.375107
0.375147
0.375186
0.375224
0.375262
0.375298
0.375334
0.375368
0.375401
0.375433
0.375464
0.375494
0.375523
0.37555
0.375577
0.375602
0.374942
0.374839
0.374753
0.374685
0.374637
0.374606
0.374591
0.374589
0.374595
0.374607
0.374623
0.374642
0.374664
0.374687
0.374712
0.374737
0.374763
0.37479
0.374816
0.374842
0.374868
0.374894
0.374918
0.374942
0.374966
0.374988
0.375009
0.375029
0.375048
0.375066
0.375084
0.3751
0.375114
0.375128
0.375141
0.375153
0.375164
0.375174
0.375183
0.375191
0.374947
0.374855
0.374781
0.374723
0.374682
0.374655
0.37464
0.374634
0.374635
0.374639
0.374646
0.374655
0.374665
0.374675
0.374685
0.374695
0.374705
0.374714
0.374722
0.37473
0.374738
0.374744
0.374749
0.374753
0.374755
0.374757
0.374757
0.374756
0.374755
0.374752
0.374749
0.374746
0.374742
0.374737
0.374731
0.374725
0.374718
0.37471
0.374702
0.374693
0.374955
0.374879
0.374819
0.374773
0.374737
0.374709
0.374687
0.37467
0.374657
0.374645
0.374633
0.374622
0.374609
0.374596
0.37458
0.374562
0.374543
0.374524
0.374504
0.374483
0.374461
0.374438
0.374415
0.374389
0.374363
0.374335
0.374307
0.374278
0.374249
0.37422
0.374191
0.374162
0.374134
0.374105
0.374077
0.374049
0.37402
0.373992
0.373964
0.373935
0.374966
0.374912
0.374867
0.374826
0.374787
0.374748
0.37471
0.37467
0.37463
0.374589
0.374546
0.374501
0.374454
0.374404
0.37435
0.374293
0.374234
0.374173
0.374113
0.374053
0.373992
0.373931
0.373869
0.373805
0.373741
0.373675
0.373608
0.373542
0.373476
0.373412
0.373348
0.373286
0.373225
0.373165
0.373106
0.373049
0.372992
0.372936
0.372882
0.372828
0.374982
0.374953
0.37492
0.374876
0.37482
0.374756
0.374686
0.374609
0.374524
0.374434
0.37434
0.374243
0.374143
0.374038
0.373929
0.373815
0.373696
0.373577
0.373458
0.37334
0.373225
0.37311
0.372996
0.37288
0.372762
0.372644
0.372525
0.372406
0.372288
0.372172
0.372059
0.371948
0.37184
0.371736
0.371634
0.371534
0.371438
0.371344
0.371252
0.371163
0.375006
0.375008
0.374983
0.374921
0.374825
0.374715
0.374594
0.374458
0.374304
0.374134
0.373955
0.373772
0.373588
0.3734
0.373205
0.373002
0.372791
0.372574
0.372358
0.372147
0.371943
0.371743
0.371547
0.371353
0.371158
0.370963
0.370767
0.37057
0.370373
0.370177
0.369984
0.369795
0.36961
0.369431
0.369257
0.369089
0.368928
0.368772
0.368623
0.36848
0.375048
0.375099
0.375066
0.374966
0.37479
0.374594
0.374389
0.37416
0.373892
0.373586
0.373254
0.372913
0.372578
0.372247
0.371913
0.371567
0.371201
0.370816
0.370424
0.37004
0.369672
0.369321
0.368986
0.368666
0.368358
0.368056
0.367754
0.367445
0.367124
0.366795
0.366463
0.366133
0.365806
0.365489
0.365185
0.364897
0.364627
0.364374
0.364139
0.36392
0.375139
0.37528
0.375221
0.37504
0.374685
0.374307
0.373947
0.373551
0.373065
0.372487
0.371846
0.371183
0.370543
0.369926
0.369321
0.36872
0.368069
0.367349
0.366594
0.365849
0.365146
0.364489
0.363879
0.363333
0.362855
0.362424
0.362021
0.3616
0.361111
0.36056
0.359988
0.359393
0.358775
0.358168
0.35761
0.357101
0.35664
0.356239
0.355904
0.355635
0.375365
0.375747
0.375627
0.37525
0.374415
0.373562
0.372878
0.37215
0.37114
0.369898
0.368544
0.367114
0.365793
0.364598
0.363488
0.362455
0.361309
0.359879
0.358261
0.356809
0.355622
0.354621
0.353834
0.353401
0.353388
0.353475
0.353688
0.353802
0.353676
0.35294
0.352252
0.351484
0.350573
0.349777
0.349499
0.349514
0.349728
0.350216
0.351251
0.352388
0.376012
0.377742
0.377454
0.376423
0.374019
0.371681
0.370682
0.369778
0.367625
0.36475
0.36205
0.359131
0.357037
0.356937
0.357875
0.359457
0.359817
0.359388
0.357047
0.35667
0.357205
0.359282
0.36426
0.373977
0.387212
0.402977
0.419442
0.432195
0.44041
0.444669
0.448856
0.452409
0.458262
0.46624
0.479661
0.496187
0.518325
0.542447
0.570657
0.59918
0.379623
0.397501
0.399381
0.396504
0.392483
0.395163
0.4149
0.441044
0.450598
0.453659
0.458884
0.471758
0.499793
0.565515
0.674241
0.768333
0.827892
0.853791
0.866788
0.889762
0.931656
1.01129
1.16598
1.35045
1.54161
1.72539
1.88484
1.9989
2.06197
2.09428
2.12169
2.1611
2.24088
2.36674
2.53232
2.7205
2.92546
3.13118
3.33761
3.53234
0.491157
0.977432
1.20576
1.27518
1.37086
1.6508
2.24005
2.69492
2.96381
3.10258
3.20089
3.34341
3.6272
4.40056
5.22137
5.87153
6.31848
6.59529
6.76653
6.9148
7.12913
7.63356
8.52896
9.45598
10.2958
10.9898
11.5229
11.9085
12.1695
12.3292
12.4527
12.659
12.9988
13.4614
14.0092
14.5977
15.1895
15.7533
16.2692
16.7238
0.118239
0.118622
0.119444
0.120758
0.122623
0.125093
0.128197
0.13192
0.136223
0.141196
0.147074
0.153718
0.161036
0.168961
0.17742
0.186335
0.19563
0.205222
0.215019
0.22492
0.234809
0.244555
0.254003
0.262978
0.271282
0.278699
0.284998
0.289914
0.29323
0.294323
0.293419
0.290516
0.284543
0.275782
0.264334
0.250197
0.233644
0.215109
0.195204
0.174671
0.154284
0.134785
0.115733
0.0997125
0.0878775
0.0801711
0.0789196
0.0869171
0.110228
0.150046
0.201515
0.25906
0.318618
0.378896
0.446543
0.54001
0.677669
0.85996
1.07366
1.30481
1.54143
1.77426
1.99728
2.2071
2.40234
2.58277
2.74896
2.90188
3.04266
3.17248
3.29248
3.40373
3.5072
3.60375
3.69418
3.7792
3.85945
3.9361
4.00962
4.08042
4.14883
4.21512
4.27949
4.34214
4.40319
4.46272
4.5208
4.57745
4.63266
4.68637
4.73852
4.789
4.83765
4.8843
4.92875
4.97076
5.01006
5.04635
5.07932
5.10865
5.134
5.15504
5.17159
5.18177
5.18709
5.18891
5.18266
5.1702
5.15244
5.12794
5.09747
5.06085
5.01826
4.97025
4.91742
4.86016
4.79905
4.73514
4.66931
4.60284
4.53501
4.46811
4.40376
4.34067
4.28065
4.22233
4.16511
4.10754
4.04767
3.98127
3.90398
3.8098
3.69952
3.57183
3.43377
3.28741
3.13794
2.98714
2.83465
2.68496
2.55529
2.50701
2.49464
2.48777
2.48722
2.50008
2.53393
2.59152
2.67487
2.78499
2.92089
3.08999
3.29031
3.51961
3.78254
4.07913
4.4032
4.74583
5.10595
5.48071
5.8666
6.2598
6.65658
7.05247
7.4435
7.82488
8.19359
8.54199
8.87286
9.17479
9.45002
9.68853
9.90164
10.045
10.1906
10.2242
10.2304
10.1212
10.0294
9.63078
0.118621
0.118971
0.119746
0.120987
0.122745
0.125057
0.127943
0.131393
0.13538
0.139902
0.145004
0.150614
0.156634
0.162965
0.169502
0.17614
0.182773
0.189302
0.195631
0.201669
0.20734
0.212574
0.217313
0.221504
0.225101
0.228067
0.230355
0.231907
0.232672
0.23243
0.231394
0.22934
0.225932
0.221091
0.214669
0.206634
0.196927
0.1856
0.172832
0.158944
0.14435
0.129468
0.113967
0.099793
0.0883295
0.0799888
0.077973
0.0859441
0.109133
0.14774
0.196394
0.249114
0.301083
0.350109
0.401478
0.470199
0.568737
0.693121
0.830473
0.970629
1.10699
1.23565
1.35496
1.46455
1.56488
1.65665
1.74073
1.81798
1.88921
1.95516
2.0165
2.0738
2.12758
2.1783
2.22636
2.27215
2.31612
2.35863
2.39976
2.43966
2.47845
2.51624
2.55311
2.58913
2.62432
2.6587
2.69227
2.72502
2.75691
2.78789
2.81789
2.84683
2.87462
2.90113
2.92626
2.94987
2.97181
2.99193
3.01009
3.02614
3.03993
3.05133
3.06024
3.06586
3.06961
3.07102
3.06887
3.06417
3.05751
3.04819
3.03699
3.02399
3.00956
2.99432
2.97893
2.96387
2.94979
2.9376
2.92819
2.92316
2.92143
2.92504
2.93576
2.95267
2.97734
3.00896
3.04723
3.0906
3.13665
3.18114
3.21891
3.24091
3.24504
3.22411
3.1806
3.11239
3.02356
2.91788
2.79886
2.67463
2.56049
2.50927
2.47559
2.43049
2.37552
2.31852
2.26809
2.22894
2.20456
2.19674
2.20388
2.23131
2.27976
2.34438
2.42981
2.53652
2.66076
2.80168
2.9581
3.12763
3.30783
3.49661
3.69193
3.89118
4.09204
4.29154
4.48803
4.67661
4.85943
5.02959
5.18783
5.32964
5.46063
5.55543
5.6564
5.70497
5.73584
5.72019
5.71113
5.66337
0.119604
0.119888
0.120592
0.121754
0.123416
0.125609
0.128344
0.131612
0.135386
0.13964
0.144349
0.149446
0.154834
0.160403
0.16604
0.171628
0.177056
0.182218
0.187013
0.191358
0.195186
0.198451
0.201124
0.203189
0.20465
0.205537
0.205857
0.205637
0.204929
0.203582
0.20177
0.199463
0.196506
0.192821
0.188246
0.182722
0.176078
0.16826
0.159201
0.148978
0.137766
0.125811
0.113024
0.100482
0.0895396
0.0808637
0.0784161
0.0866924
0.110166
0.148233
0.195387
0.245587
0.29369
0.337146
0.380737
0.437706
0.517126
0.612887
0.713299
0.811122
0.902875
0.987223
1.06417
1.13423
1.19825
1.25694
1.311
1.36102
1.40756
1.45109
1.492
1.53064
1.56733
1.60232
1.63587
1.6682
1.69956
1.73004
1.75971
1.78866
1.81695
1.84464
1.87176
1.89835
1.92442
1.94998
1.97501
1.9995
2.02342
2.04674
2.06942
2.09139
2.11261
2.13301
2.15252
2.17106
2.18857
2.20497
2.2202
2.23419
2.24688
2.25821
2.26824
2.27658
2.28414
2.29047
2.29506
2.29882
2.30198
2.30429
2.30633
2.30824
2.31036
2.31321
2.3173
2.32304
2.33093
2.34169
2.356
2.37481
2.39777
2.42638
2.46183
2.50372
2.5533
2.61022
2.67437
2.74462
2.81905
2.89421
2.96512
3.02436
3.06655
3.08344
3.07619
3.0398
2.97704
2.89195
2.78946
2.67956
2.578
2.52465
2.47912
2.41826
2.34385
2.26441
2.18874
2.12176
2.06626
2.02308
1.99081
1.97269
1.96844
1.97362
1.99188
2.02513
2.06889
2.12477
2.19353
2.27343
2.36262
2.46031
2.5654
2.67637
2.79173
2.90922
3.02789
3.1443
3.25979
3.37007
3.4745
3.57131
3.66287
3.73376
3.80876
3.8567
3.89343
3.90298
3.9172
3.96046
0.121519
0.121667
0.122255
0.123314
0.124881
0.126978
0.129606
0.132746
0.136365
0.140417
0.144852
0.149597
0.154559
0.159629
0.164693
0.169629
0.174318
0.178647
0.182536
0.185915
0.188728
0.190939
0.192534
0.193508
0.193885
0.193734
0.193099
0.19191
0.190322
0.18831
0.185957
0.183297
0.180296
0.176921
0.173066
0.168671
0.163571
0.157661
0.150766
0.14284
0.133874
0.123974
0.113155
0.101965
0.0916203
0.0829303
0.0804345
0.0893931
0.11352
0.151334
0.197409
0.245938
0.29177
0.332478
0.372821
0.424618
0.494004
0.57345
0.652853
0.727462
0.795934
0.858339
0.915377
0.967691
1.0161
1.0611
1.10315
1.14261
1.17981
1.21505
1.24856
1.28055
1.31124
1.34077
1.36932
1.39702
1.424
1.45034
1.47609
1.50133
1.52609
1.55042
1.57436
1.59793
1.62114
1.644
1.66652
1.68869
1.71049
1.73192
1.75295
1.77355
1.79371
1.81338
1.83255
1.85117
1.86921
1.88664
1.90345
1.91962
1.93511
1.94992
1.96414
1.97765
1.99086
2.00358
2.01564
2.0276
2.03954
2.05142
2.06359
2.07613
2.08931
2.10348
2.11901
2.13614
2.15527
2.17688
2.20144
2.22953
2.26118
2.29741
2.33902
2.38598
2.43922
2.49868
2.56441
2.63568
2.71116
2.78815
2.86263
2.92893
2.98155
3.01183
3.02019
3.00083
2.95435
2.88419
2.79572
2.69942
2.61012
2.55607
2.50403
2.43673
2.35692
2.27323
2.19347
2.12159
2.05938
2.00665
1.96215
1.92746
1.90159
1.88178
1.87041
1.86807
1.87091
1.88101
1.90093
1.92915
1.96415
2.00621
2.05527
2.11043
2.17112
2.23543
2.3031
2.37205
2.44273
2.51297
2.58108
2.647
2.71077
2.76409
2.81931
2.86252
2.89853
2.91996
2.9431
3.01466
0.124903
0.124782
0.125171
0.126083
0.127546
0.129568
0.132138
0.135219
0.138764
0.142709
0.146983
0.151502
0.156169
0.160877
0.165514
0.169972
0.174148
0.177947
0.181287
0.184101
0.186342
0.187979
0.188989
0.189371
0.189218
0.188578
0.187378
0.185724
0.183684
0.181296
0.178623
0.175712
0.172578
0.169217
0.165578
0.161616
0.15721
0.152252
0.146565
0.140015
0.132505
0.124016
0.114471
0.104424
0.0947074
0.0863178
0.0842928
0.0944652
0.119662
0.157554
0.202971
0.250512
0.295395
0.335556
0.375821
0.426612
0.491349
0.561363
0.628858
0.69132
0.748846
0.802098
0.85187
0.898491
0.942556
0.984265
1.02386
1.06148
1.09733
1.13158
1.16441
1.19592
1.2263
1.25566
1.28412
1.31179
1.33878
1.36516
1.391
1.41637
1.44131
1.46589
1.49013
1.51406
1.53772
1.56111
1.58425
1.60715
1.62981
1.65224
1.67442
1.69635
1.71803
1.73944
1.76058
1.78143
1.80197
1.82221
1.84212
1.86172
1.88098
1.89991
1.91858
1.93698
1.95526
1.97335
1.9912
2.00912
2.02713
2.04525
2.06368
2.0825
2.10187
2.12202
2.14317
2.16552
2.18931
2.2149
2.24261
2.27281
2.30568
2.3419
2.38203
2.42619
2.47506
2.5287
2.58721
2.65013
2.71653
2.78449
2.8509
2.91138
2.96101
2.99225
3.00456
2.99277
2.95589
2.89673
2.82047
2.73712
2.6597
2.60663
2.55261
2.48567
2.4089
2.32983
2.25455
2.18585
2.12464
2.07034
2.02199
1.98021
1.94398
1.91164
1.8846
1.86302
1.84495
1.83134
1.82385
1.82253
1.8246
1.83165
1.84472
1.86279
1.88629
1.91334
1.94427
1.97847
2.01553
2.05495
2.0947
2.13546
2.17615
2.21336
2.25127
2.28627
2.31681
2.34243
2.36726
2.44217
0.130507
0.129895
0.129948
0.130631
0.131965
0.133929
0.136484
0.139572
0.14312
0.147041
0.151244
0.155628
0.160091
0.164524
0.168823
0.172887
0.176626
0.179962
0.182827
0.18517
0.186956
0.188163
0.188784
0.188817
0.188412
0.187446
0.185978
0.184091
0.181835
0.179263
0.176437
0.173408
0.1702
0.166822
0.163253
0.159457
0.155351
0.15084
0.145775
0.14001
0.133308
0.125641
0.117171
0.108
0.0989397
0.0911778
0.090256
0.102302
0.129035
0.167382
0.212648
0.260015
0.305078
0.346208
0.388208
0.439673
0.501986
0.56778
0.630533
0.688664
0.743358
0.795498
0.84558
0.893446
0.939395
0.983379
1.02543
1.0656
1.10406
1.14095
1.17639
1.21048
1.24338
1.27519
1.30603
1.33601
1.36524
1.3938
1.42177
1.44923
1.47623
1.50285
1.52911
1.55507
1.58075
1.60619
1.6314
1.6564
1.6812
1.70583
1.73027
1.75453
1.77863
1.80255
1.82629
1.84985
1.87322
1.89641
1.91939
1.94218
1.96477
1.98714
2.00936
2.03139
2.05329
2.07505
2.09668
2.11831
2.13995
2.16163
2.18346
2.2055
2.22783
2.25061
2.27399
2.2981
2.32311
2.34927
2.37681
2.40596
2.43695
2.47023
2.50616
2.54493
2.58698
2.63242
2.68131
2.73334
2.7878
2.84327
2.89739
2.9469
2.98771
3.01369
3.02411
3.01436
2.98296
2.93207
2.86659
2.79538
2.72896
2.67822
2.62531
2.56238
2.49206
2.42015
2.3511
2.28684
2.22786
2.17362
2.12348
2.07765
2.03531
1.99549
1.959
1.92587
1.89499
1.86682
1.84244
1.82216
1.80487
1.79125
1.78173
1.77572
1.77416
1.77541
1.78
1.78881
1.80047
1.81564
1.83269
1.85198
1.87265
1.89412
1.91618
1.94029
1.96209
1.98566
2.00807
2.07513
0.139303
0.137863
0.137391
0.137744
0.138893
0.140796
0.143365
0.146501
0.150095
0.154034
0.1582
0.162477
0.166754
0.170922
0.174884
0.17855
0.181846
0.184713
0.187101
0.188976
0.190314
0.191102
0.191337
0.191096
0.190372
0.18913
0.187456
0.185401
0.183014
0.180348
0.177453
0.174375
0.171145
0.167774
0.164248
0.160532
0.156556
0.15223
0.147425
0.142017
0.135944
0.129049
0.121269
0.112823
0.10449
0.0977333
0.0986778
0.113309
0.14206
0.181313
0.226986
0.274907
0.321189
0.364673
0.409892
0.463687
0.525533
0.588437
0.649029
0.70787
0.765402
0.821467
0.876179
0.929085
0.980224
1.0294
1.07666
1.12197
1.16531
1.20684
1.2467
1.285
1.32191
1.35755
1.39206
1.42556
1.45816
1.48997
1.52109
1.5516
1.58157
1.61108
1.64018
1.66891
1.69732
1.72545
1.75332
1.78095
1.80836
1.83557
1.86259
1.88943
1.91608
1.94256
1.96885
1.99497
2.0209
2.04664
2.07218
2.09753
2.12266
2.14758
2.1723
2.1968
2.2211
2.24521
2.26911
2.29288
2.31652
2.34004
2.36351
2.38694
2.41041
2.43401
2.45783
2.48196
2.50653
2.53169
2.5576
2.58444
2.61237
2.64171
2.67269
2.70545
2.7403
2.77731
2.8165
2.85761
2.90008
2.94282
2.98407
3.02138
3.05155
3.06974
3.07564
3.06498
3.0366
2.99218
2.93618
2.87581
2.81885
2.77093
2.72041
2.66234
2.59852
2.53306
2.46913
2.40817
2.35055
2.29594
2.24399
2.19477
2.14772
2.10228
2.05894
2.01776
1.97817
1.94026
1.90477
1.87204
1.84154
1.81374
1.78883
1.76696
1.74871
1.73306
1.72006
1.71035
1.70337
1.70005
1.69954
1.70107
1.70508
1.71193
1.71991
1.73199
1.74368
1.7605
1.77799
1.83207
0.152718
0.149871
0.14859
0.14844
0.149295
0.151078
0.153624
0.156778
0.160386
0.1643
0.168377
0.172488
0.17651
0.180336
0.183878
0.187066
0.189848
0.19218
0.194028
0.195372
0.196198
0.196506
0.196338
0.195722
0.194601
0.19306
0.191138
0.188885
0.186347
0.183575
0.180612
0.177499
0.174266
0.170924
0.16746
0.16384
0.160003
0.155865
0.151316
0.146227
0.140495
0.134034
0.126825
0.119055
0.111596
0.106328
0.109998
0.127898
0.159128
0.199817
0.246513
0.295625
0.343746
0.390151
0.439172
0.496094
0.559163
0.623297
0.687223
0.751145
0.814653
0.877219
0.938508
0.997975
1.05547
1.11078
1.16391
1.21482
1.26351
1.31018
1.35495
1.39797
1.4394
1.47937
1.51805
1.55556
1.59203
1.62757
1.66229
1.69629
1.72965
1.76244
1.79473
1.82657
1.85801
1.88908
1.91983
1.95027
1.98043
2.01031
2.03995
2.06934
2.09848
2.12739
2.15606
2.18449
2.21267
2.2406
2.26826
2.29566
2.32277
2.3496
2.37613
2.40235
2.42825
2.45384
2.47911
2.50408
2.52875
2.55313
2.57724
2.6011
2.62473
2.64819
2.67155
2.69484
2.71816
2.7416
2.76527
2.78928
2.81376
2.83889
2.86483
2.89166
2.91957
2.9486
2.97873
3.00972
3.0411
3.07204
3.10124
3.12684
3.14643
3.15648
3.15695
3.14409
3.11734
3.07805
3.02995
2.97847
2.92869
2.88302
2.83453
2.78026
2.72123
2.66018
2.59939
2.54001
2.48241
2.42652
2.37218
2.31946
2.26804
2.21763
2.16853
2.1209
2.07446
2.02917
1.98553
1.94379
1.90381
1.86591
1.83019
1.79696
1.76659
1.7386
1.71324
1.69082
1.67083
1.6539
1.63952
1.62795
1.6187
1.61291
1.60898
1.60953
1.61151
1.61889
1.63027
1.66976
0.173042
0.16764
0.164916
0.16384
0.164142
0.165559
0.167902
0.170909
0.17437
0.178095
0.181912
0.185673
0.18926
0.192585
0.195579
0.198186
0.200362
0.202074
0.203301
0.204031
0.204266
0.20405
0.20338
0.202236
0.200685
0.198767
0.196525
0.194008
0.191266
0.188346
0.185292
0.182138
0.178915
0.175629
0.172261
0.168772
0.165099
0.161153
0.156829
0.152012
0.1466
0.140536
0.13386
0.126862
0.120563
0.117419
0.124701
0.146462
0.180595
0.223294
0.27161
0.322344
0.372487
0.421885
0.475093
0.535771
0.601736
0.670372
0.74057
0.811542
0.88241
0.952392
1.0209
1.08741
1.15168
1.21354
1.27295
1.32986
1.38435
1.43659
1.48672
1.53489
1.58127
1.62602
1.66928
1.71121
1.75193
1.79158
1.83026
1.86808
1.90514
1.9415
1.97724
2.01243
2.0471
2.08131
2.11508
2.14845
2.18144
2.21407
2.24634
2.27827
2.30986
2.34112
2.37204
2.40261
2.43284
2.46272
2.49223
2.52137
2.55012
2.57846
2.60638
2.63387
2.66091
2.6875
2.71361
2.73926
2.76443
2.78913
2.81334
2.83708
2.86036
2.88319
2.90561
2.92763
2.94931
2.9707
2.99186
3.01285
3.03375
3.05467
3.0757
3.09687
3.11828
3.13993
3.1618
3.18365
3.2051
3.22548
3.24393
3.25899
3.26878
3.27152
3.26633
3.25086
3.2248
3.18918
3.14688
3.10156
3.05606
3.01115
2.9632
2.91066
2.85402
2.79502
2.73531
2.67579
2.6169
2.55873
2.5013
2.44472
2.38886
2.33361
2.27918
2.22581
2.17342
2.12193
2.07167
2.02282
1.97543
1.92975
1.88591
1.84421
1.80491
1.76786
1.73322
1.70121
1.67146
1.64478
1.62042
1.59885
1.57945
1.56369
1.54974
1.54087
1.53321
1.53323
1.53687
1.56087
0.202113
0.192361
0.187178
0.184463
0.183681
0.184348
0.186114
0.188659
0.191671
0.194907
0.198181
0.201357
0.204329
0.20701
0.209333
0.211246
0.212715
0.213715
0.214239
0.214274
0.213904
0.213044
0.211749
0.210062
0.208021
0.205669
0.203057
0.200234
0.197252
0.194158
0.190996
0.187797
0.184584
0.181364
0.178111
0.174781
0.171306
0.167596
0.163546
0.159049
0.154018
0.148426
0.14239
0.136377
0.131719
0.131499
0.143233
0.169306
0.206732
0.251976
0.302322
0.354709
0.406604
0.459037
0.516781
0.5819
0.653303
0.728834
0.806521
0.885162
0.963643
1.04109
1.11686
1.19046
1.26163
1.33022
1.39613
1.45934
1.51996
1.57813
1.634
1.68772
1.73945
1.78936
1.8376
1.88432
1.92966
1.97377
2.01675
2.05871
2.09976
2.13997
2.17943
2.2182
2.25632
2.29385
2.33083
2.36728
2.40323
2.43869
2.47368
2.50821
2.54227
2.57588
2.60902
2.6417
2.67391
2.70564
2.73687
2.7676
2.79781
2.82748
2.85659
2.88513
2.91306
2.94039
2.96708
2.99314
3.01853
3.04325
3.06728
3.09062
3.11326
3.13519
3.15642
3.17695
3.19679
3.21597
3.23449
3.25239
3.26972
3.2865
3.30279
3.31859
3.33393
3.34879
3.36314
3.37678
3.3894
3.40045
3.40947
3.41513
3.41658
3.41248
3.40186
3.38345
3.35699
3.32314
3.28383
3.24133
3.1969
3.15065
3.10118
3.04793
2.99114
2.93186
2.87125
2.81001
2.74857
2.68716
2.62591
2.56499
2.5044
2.44421
2.38456
2.32574
2.26781
2.21072
2.1547
2.09983
2.04627
1.99426
1.94396
1.89566
1.84952
1.80558
1.76393
1.72473
1.68774
1.65357
1.62164
1.59272
1.56581
1.54252
1.52082
1.50448
1.48914
1.48125
1.47832
1.48934
0.241066
0.224223
0.215112
0.209767
0.207183
0.206602
0.207361
0.20905
0.21127
0.213745
0.216274
0.218701
0.220905
0.222798
0.224316
0.225416
0.22607
0.22626
0.22602
0.225325
0.224177
0.22262
0.220688
0.218419
0.215859
0.213057
0.210067
0.20694
0.203731
0.200485
0.197244
0.194034
0.190873
0.187758
0.184662
0.181535
0.178305
0.174882
0.171167
0.167066
0.162516
0.157545
0.152383
0.147745
0.145393
0.149011
0.165888
0.19656
0.237606
0.285725
0.338079
0.391611
0.444792
0.500643
0.563381
0.634748
0.713639
0.796745
0.882012
0.968088
1.05385
1.13846
1.22129
1.3019
1.38003
1.45544
1.52804
1.59784
1.66493
1.72942
1.79143
1.85111
1.90862
1.96412
2.01776
2.0697
2.12008
2.16903
2.21669
2.26316
2.30855
2.35295
2.39644
2.43908
2.48093
2.52204
2.56246
2.60221
2.64132
2.6798
2.71767
2.75493
2.79159
2.82765
2.8631
2.89794
2.93217
2.96577
2.99874
3.03105
3.06269
3.09365
3.12389
3.15339
3.18214
3.21011
3.23727
3.26361
3.28909
3.3137
3.33741
3.3602
3.38205
3.40294
3.42284
3.44174
3.45963
3.47649
3.49232
3.50711
3.52086
3.53358
3.54526
3.55593
3.56555
3.57407
3.58153
3.58772
3.59243
3.59511
3.59566
3.59319
3.58709
3.57645
3.56036
3.53821
3.50974
3.47511
3.43546
3.39211
3.34548
3.29556
3.24232
3.18588
3.12646
3.06466
3.00126
2.93675
2.87152
2.80586
2.73999
2.67413
2.60839
2.54299
2.47801
2.41379
2.35051
2.28814
2.22686
2.16667
2.10781
2.05051
1.99495
1.94139
1.88999
1.84076
1.79381
1.74924
1.7069
1.66725
1.62982
1.59542
1.5631
1.53443
1.5071
1.48529
1.46403
1.45074
1.43949
1.44229
0.289831
0.262397
0.24767
0.238672
0.23364
0.231311
0.230758
0.231291
0.232509
0.234054
0.235672
0.237183
0.238461
0.239417
0.239989
0.240139
0.239877
0.239167
0.23801
0.23644
0.234481
0.23217
0.229548
0.226662
0.223566
0.220315
0.216965
0.213572
0.210186
0.206852
0.203603
0.20046
0.197429
0.194498
0.19163
0.188771
0.185847
0.182774
0.179462
0.175844
0.171907
0.16777
0.163843
0.161173
0.161941
0.170277
0.192725
0.228089
0.272875
0.323734
0.377455
0.43137
0.486116
0.545896
0.614968
0.694453
0.78103
0.871363
0.96359
1.05644
1.1489
1.24024
1.32987
1.41739
1.50243
1.58476
1.66428
1.74098
1.8149
1.8861
1.9547
2.02082
2.0846
2.14618
2.20571
2.26335
2.31924
2.37352
2.42631
2.47773
2.5279
2.57689
2.6248
2.67169
2.71762
2.76265
2.80683
2.85018
2.89273
2.9345
2.97551
3.01574
3.05522
3.09393
3.13188
3.16906
3.20545
3.24106
3.27587
3.30986
3.34301
3.37531
3.40673
3.43724
3.46681
3.49542
3.52304
3.54963
3.57518
3.59962
3.62295
3.64511
3.66608
3.68582
3.70429
3.72145
3.73729
3.75175
3.76481
3.77643
3.78658
3.79524
3.80234
3.80797
3.81207
3.81452
3.81544
3.81468
3.81197
3.807
3.79964
3.78946
3.77603
3.75862
3.73627
3.70883
3.67611
3.63779
3.59418
3.54633
3.49433
3.43846
3.37921
3.31723
3.25278
3.18623
3.11811
3.04871
2.97832
2.90727
2.83583
2.76427
2.69278
2.62148
2.5505
2.48042
2.4115
2.34379
2.27742
2.21235
2.14883
2.0871
2.02734
1.96974
1.91446
1.86168
1.81126
1.76325
1.71755
1.67448
1.63368
1.59584
1.55999
1.52783
1.49684
1.47148
1.44614
1.42946
1.41195
1.40877
0.347091
0.305745
0.28413
0.270814
0.262899
0.258495
0.256349
0.255597
0.25564
0.256047
0.25656
0.256966
0.25713
0.256975
0.256441
0.255483
0.254104
0.252311
0.250122
0.247566
0.244682
0.241518
0.238127
0.234568
0.230903
0.227194
0.223501
0.219879
0.216375
0.213026
0.209855
0.206869
0.20406
0.201399
0.19884
0.196322
0.193772
0.191115
0.188288
0.185268
0.182129
0.179147
0.176984
0.177053
0.181789
0.195453
0.223525
0.26335
0.311506
0.364193
0.417993
0.471836
0.528897
0.594448
0.67185
0.759351
0.852756
0.949327
1.04753
1.14629
1.24478
1.34237
1.43851
1.53271
1.6246
1.71395
1.8006
1.88449
1.9656
2.04395
2.11962
2.19269
2.26327
2.33149
2.39748
2.46138
2.52334
2.58348
2.64195
2.69885
2.7543
2.80839
2.8612
2.91281
2.96327
3.01264
3.06099
3.10833
3.1547
3.20012
3.2446