/*--------------------------------*- C++ -*----------------------------------*\
| =========                 |                                                 |
| \\      /  F ield         | OpenFOAM: The Open Source CFD Toolbox           |
|  \\    /   O peration     | Version:  2112                                  |
|   \\  /    A nd           | Website:  www.openfoam.com                      |
|    \\/     M anipulation  |                                                 |
\*---------------------------------------------------------------------------*/
FoamFile
{
    version     2.0;
    format      ascii;
    arch        "LSB;label=32;scalar=64";
    class       volScalarField;
    location    "0.07";
    object      k_0;
}
// * * * * * * * * * * * * * * * * * * * * * * * * * * * * * * * * * * * * * //

dimensions      [0 2 -2 0 0 0 0];

internalField   nonuniform List<scalar> 
12885
(
0.500889
0.883801
1.54277
1.95928
2.12358
2.23175
2.42163
2.89715
4.08464
5.09517
5.73108
6.07551
6.3098
6.63495
7.31562
8.9069
10.4898
11.7207
12.5415
13.0184
13.286
13.5332
14.0021
14.9122
15.9682
17.0064
17.9233
18.6589
19.1968
19.5606
19.7953
19.9636
20.1104
20.2803
20.4801
20.7248
20.9886
21.28
21.6732
21.458
0.379288
0.388565
0.41768
0.433874
0.434391
0.435015
0.441662
0.468461
0.554589
0.708632
0.815165
0.868862
0.909658
0.971683
1.08216
1.32356
1.70797
2.09259
2.40199
2.61615
2.75443
2.85123
3.00053
3.2666
3.64563
4.10734
4.59992
5.09003
5.54094
5.9298
6.24113
6.49841
6.71115
6.9224
7.13245
7.38035
7.65088
7.98782
8.37945
9.10109
0.375726
0.376659
0.378104
0.377501
0.375
0.370513
0.365279
0.361188
0.360895
0.363084
0.365393
0.365084
0.364823
0.366078
0.370791
0.383114
0.409341
0.457974
0.504641
0.54835
0.576249
0.60171
0.622878
0.659989
0.707404
0.789964
0.885356
1.01913
1.155
1.31876
1.45821
1.61172
1.72621
1.86016
1.95697
2.09381
2.19725
2.36845
2.50139
2.7339
0.375294
0.375741
0.375797
0.375439
0.374423
0.372403
0.370035
0.367711
0.36551
0.363913
0.362071
0.35941
0.356684
0.354691
0.352371
0.351363
0.351628
0.352883
0.355518
0.357936
0.359201
0.359633
0.359965
0.360696
0.362309
0.366304
0.371734
0.383768
0.394368
0.416458
0.43327
0.460917
0.479584
0.508406
0.525841
0.555517
0.573709
0.607543
0.63176
0.675927
0.375181
0.375508
0.37548
0.375274
0.374762
0.373772
0.372597
0.37138
0.370222
0.369205
0.368058
0.3666
0.365094
0.363697
0.362217
0.360961
0.35998
0.359157
0.358538
0.357971
0.35724
0.356144
0.3549
0.353735
0.352579
0.351487
0.350867
0.350883
0.351131
0.352077
0.353262
0.355683
0.357555
0.36041
0.362347
0.365223
0.367052
0.370345
0.372712
0.376996
0.375129
0.37538
0.375364
0.375238
0.374934
0.374376
0.37371
0.373016
0.372357
0.371743
0.371053
0.370235
0.369381
0.368535
0.367682
0.366886
0.366174
0.365514
0.36489
0.36424
0.363534
0.362716
0.361833
0.36096
0.360075
0.359208
0.358457
0.357853
0.357351
0.356996
0.356738
0.35673
0.356758
0.356864
0.356939
0.357049
0.357117
0.357198
0.357311
0.357469
0.375093
0.375281
0.375289
0.37521
0.375015
0.374675
0.374269
0.373847
0.373438
0.373033
0.372585
0.372078
0.371552
0.371026
0.370506
0.370004
0.369524
0.369053
0.368582
0.368097
0.367585
0.367037
0.36647
0.365906
0.365344
0.364798
0.36429
0.363834
0.363421
0.363064
0.362769
0.362507
0.362288
0.362113
0.361961
0.361827
0.361705
0.361591
0.361499
0.36138
0.375064
0.375198
0.375225
0.375177
0.375053
0.374839
0.374583
0.374315
0.374046
0.373769
0.373465
0.373133
0.372792
0.372453
0.37212
0.371791
0.371462
0.371128
0.370785
0.370431
0.370065
0.369691
0.369314
0.368945
0.368584
0.368236
0.367907
0.367601
0.367318
0.367061
0.366833
0.36663
0.366453
0.366298
0.366164
0.366045
0.365941
0.365849
0.365764
0.365665
0.375042
0.375132
0.375165
0.375141
0.375065
0.37493
0.374769
0.374595
0.374416
0.374224
0.374015
0.373793
0.373567
0.373344
0.373124
0.372903
0.372675
0.372439
0.372193
0.371939
0.37168
0.371421
0.371167
0.370921
0.370685
0.37046
0.370247
0.370045
0.369857
0.369682
0.369523
0.36938
0.369253
0.369138
0.369032
0.368936
0.368849
0.368772
0.368703
0.368634
0.375024
0.375079
0.375109
0.3751
0.375059
0.374978
0.374877
0.374766
0.374647
0.374517
0.374376
0.374227
0.374078
0.373931
0.373784
0.373634
0.373478
0.373313
0.37314
0.372961
0.372781
0.372604
0.372432
0.372267
0.372111
0.371964
0.371823
0.371688
0.371559
0.371439
0.371328
0.371225
0.371133
0.37105
0.370977
0.370912
0.370855
0.370806
0.370767
0.370734
0.375009
0.375037
0.375056
0.375055
0.375036
0.374993
0.374934
0.374866
0.37479
0.374704
0.374612
0.374516
0.374419
0.374324
0.374228
0.374128
0.374023
0.373911
0.373792
0.373671
0.373549
0.373429
0.373313
0.373202
0.373098
0.373
0.372908
0.372822
0.372741
0.372665
0.372596
0.372531
0.372474
0.372425
0.372387
0.372358
0.372337
0.372324
0.372317
0.372313
0.374995
0.375
0.375008
0.375008
0.375001
0.374981
0.374952
0.374916
0.374871
0.37482
0.374764
0.374706
0.374649
0.374593
0.374536
0.374476
0.37441
0.374338
0.374261
0.374181
0.374102
0.374024
0.373951
0.373882
0.373818
0.37376
0.373707
0.37366
0.373619
0.373582
0.37355
0.373522
0.3735
0.373483
0.373472
0.373468
0.373469
0.373474
0.373485
0.373498
0.374982
0.374963
0.374957
0.374954
0.374952
0.374946
0.374937
0.374925
0.37491
0.374889
0.374865
0.374841
0.374818
0.374797
0.374776
0.374752
0.374722
0.374687
0.374647
0.374605
0.374563
0.374524
0.374489
0.374458
0.374433
0.374413
0.374396
0.374384
0.374374
0.374368
0.374364
0.374365
0.374367
0.374373
0.374384
0.374397
0.374415
0.374435
0.374458
0.374482
0.374968
0.374924
0.374899
0.374886
0.374882
0.374883
0.374885
0.374889
0.374895
0.3749
0.374905
0.37491
0.374917
0.374925
0.374933
0.37494
0.374945
0.374946
0.374944
0.374941
0.374938
0.374936
0.374936
0.374939
0.374946
0.374956
0.374969
0.374984
0.375001
0.37502
0.37504
0.375062
0.375086
0.375112
0.375139
0.375168
0.375198
0.375229
0.375262
0.375295
0.374956
0.374887
0.374838
0.374808
0.374794
0.374793
0.374798
0.374809
0.374825
0.374845
0.374868
0.374893
0.374919
0.374948
0.374976
0.375006
0.375035
0.375063
0.375092
0.37512
0.375149
0.375178
0.375208
0.375239
0.375271
0.375303
0.375337
0.375372
0.375408
0.375445
0.375482
0.37552
0.375558
0.375597
0.375636
0.375676
0.375715
0.375754
0.375792
0.37583
0.374947
0.374856
0.374784
0.374733
0.374703
0.37469
0.374692
0.374701
0.374719
0.374742
0.37477
0.374801
0.374836
0.374873
0.374911
0.374952
0.374993
0.375036
0.37508
0.375125
0.375171
0.375216
0.375263
0.375309
0.375356
0.375402
0.375448
0.375494
0.37554
0.375586
0.375632
0.375677
0.375722
0.375766
0.37581
0.375853
0.375895
0.375936
0.375976
0.376015
0.374941
0.374834
0.374746
0.374677
0.37463
0.374602
0.374594
0.374598
0.374611
0.374632
0.374657
0.374687
0.37472
0.374756
0.374795
0.374836
0.374879
0.374924
0.37497
0.375017
0.375064
0.375113
0.375161
0.375209
0.375257
0.375305
0.375353
0.3754
0.375446
0.375492
0.375536
0.37558
0.375623
0.375665
0.375706
0.375746
0.375785
0.375822
0.375859
0.375894
0.374939
0.374827
0.374732
0.374657
0.374601
0.374565
0.374548
0.374547
0.374555
0.374571
0.374593
0.374618
0.374647
0.374679
0.374712
0.374748
0.374786
0.374825
0.374864
0.374904
0.374945
0.374986
0.375027
0.375067
0.375107
0.375147
0.375186
0.375224
0.375262
0.375298
0.375334
0.375368
0.375401
0.375433
0.375464
0.375494
0.375523
0.37555
0.375577
0.375602
0.374942
0.374839
0.374753
0.374685
0.374637
0.374606
0.374591
0.374589
0.374595
0.374607
0.374623
0.374642
0.374664
0.374687
0.374712
0.374737
0.374763
0.37479
0.374816
0.374842
0.374868
0.374894
0.374918
0.374942
0.374966
0.374988
0.375009
0.375029
0.375048
0.375067
0.375084
0.3751
0.375115
0.375128
0.375141
0.375153
0.375164
0.375174
0.375183
0.375191
0.374947
0.374855
0.374781
0.374723
0.374682
0.374655
0.37464
0.374634
0.374635
0.374639
0.374646
0.374655
0.374665
0.374675
0.374685
0.374695
0.374705
0.374714
0.374722
0.37473
0.374738
0.374744
0.374749
0.374753
0.374755
0.374756
0.374756
0.374756
0.374755
0.374752
0.37475
0.374746
0.374742
0.374737
0.374731
0.374725
0.374718
0.37471
0.374702
0.374693
0.374955
0.374879
0.374819
0.374773
0.374736
0.374709
0.374687
0.37467
0.374656
0.374645
0.374633
0.374622
0.37461
0.374596
0.37458
0.374562
0.374543
0.374524
0.374504
0.374483
0.374461
0.374439
0.374415
0.374389
0.374362
0.374335
0.374306
0.374277
0.374249
0.37422
0.374191
0.374163
0.374134
0.374106
0.374077
0.374049
0.374021
0.373992
0.373964
0.373935
0.374966
0.374912
0.374866
0.374826
0.374787
0.374748
0.374709
0.37467
0.37463
0.374589
0.374546
0.374502
0.374455
0.374404
0.374349
0.374292
0.374233
0.374173
0.374113
0.374053
0.373993
0.373932
0.373869
0.373805
0.37374
0.373674
0.373607
0.373541
0.373476
0.373411
0.373348
0.373286
0.373225
0.373166
0.373107
0.373049
0.372993
0.372937
0.372882
0.372828
0.374982
0.374953
0.37492
0.374875
0.374819
0.374756
0.374686
0.374609
0.374524
0.374434
0.37434
0.374244
0.374144
0.374039
0.373929
0.373814
0.373695
0.373576
0.373457
0.373341
0.373226
0.373112
0.372996
0.37288
0.372762
0.372643
0.372523
0.372404
0.372286
0.372171
0.372058
0.371947
0.37184
0.371736
0.371634
0.371535
0.371439
0.371345
0.371253
0.371164
0.375006
0.375007
0.374981
0.374918
0.374824
0.374715
0.374595
0.374459
0.374304
0.374134
0.373955
0.373773
0.373589
0.373401
0.373205
0.373001
0.372788
0.372572
0.372357
0.372148
0.371945
0.371746
0.371551
0.371356
0.37116
0.370964
0.370766
0.370568
0.370369
0.370172
0.369979
0.36979
0.369606
0.369427
0.369255
0.369088
0.368928
0.368774
0.368626
0.368484
0.375049
0.375097
0.375063
0.37496
0.374787
0.374596
0.374393
0.374163
0.373893
0.373584
0.373251
0.372913
0.37258
0.37225
0.371915
0.371567
0.371197
0.370809
0.370418
0.370038
0.369675
0.369328
0.368996
0.368678
0.36837
0.368066
0.367759
0.367442
0.367113
0.366778
0.366443
0.36611
0.365783
0.365468
0.365168
0.364885
0.36462
0.364374
0.364145
0.36393
0.375147
0.375276
0.375214
0.375025
0.374674
0.374312
0.37396
0.373561
0.373066
0.372482
0.371837
0.371177
0.370545
0.369933
0.369332
0.368727
0.368062
0.36733
0.366575
0.365842
0.365151
0.364504
0.363905
0.363374
0.362904
0.362476
0.362062
0.361609
0.36108
0.360506
0.359918
0.359304
0.358675
0.358078
0.357535
0.35704
0.356599
0.356225
0.355916
0.355675
0.375399
0.375742
0.37561
0.375212
0.374374
0.373581
0.372926
0.372177
0.371136
0.36988
0.368512
0.367089
0.365797
0.364617
0.363525
0.362484
0.361276
0.359768
0.358159
0.356764
0.355637
0.35468
0.353959
0.35361
0.353613
0.353712
0.353844
0.353877
0.353417
0.352597
0.351887
0.351023
0.350072
0.349424
0.3493
0.349385
0.349688
0.350347
0.351509
0.352748
0.376157
0.377727
0.377395
0.3763
0.373848
0.37178
0.370929
0.369872
0.367484
0.36462
0.361886
0.358956
0.357162
0.357196
0.358318
0.359463
0.359582
0.358572
0.356336
0.356211
0.356965
0.359477
0.365387
0.37579
0.389589
0.405385
0.420635
0.431262
0.437619
0.441078
0.445064
0.448768
0.455299
0.464583
0.479525
0.497593
0.52105
0.5461
0.574962
0.60396
0.380469
0.397437
0.398581
0.395358
0.392125
0.395927
0.418715
0.440878
0.447751
0.450503
0.456245
0.470797
0.501617
0.577808
0.684237
0.769509
0.81893
0.838885
0.852328
0.879529
0.926065
1.02347
1.18801
1.37446
1.56334
1.74035
1.8861
1.98174
2.03051
2.05812
2.08763
2.13596
2.23309
2.37464
2.55217
2.74802
2.95686
3.16298
3.36809
3.55957
0.504052
0.978285
1.18174
1.2499
1.35876
1.70273
2.2828
2.69994
2.93562
3.05745
3.15666
3.31361
3.6685
4.49575
5.28063
5.88171
6.28249
6.52632
6.68322
6.83885
7.08593
7.71763
8.64322
9.55864
10.3641
11.0139
11.5022
11.848
12.0756
12.2157
12.3509
12.6007
12.9933
13.5017
14.0815
14.687
15.2824
15.8387
16.339
16.7722
0.118281
0.118664
0.119486
0.120801
0.122667
0.125138
0.128244
0.13197
0.136274
0.141251
0.147133
0.153781
0.161104
0.169034
0.177498
0.18642
0.195721
0.20532
0.215124
0.225033
0.234931
0.244684
0.254141
0.263125
0.271438
0.278863
0.28517
0.290094
0.293419
0.294519
0.293619
0.290722
0.284755
0.275996
0.264549
0.250411
0.233854
0.215313
0.1954
0.174857
0.154455
0.134946
0.115876
0.099825
0.0879557
0.080209
0.0789215
0.0868716
0.110118
0.149885
0.201336
0.258894
0.31849
0.378811
0.446458
0.539844
0.677389
0.859623
1.07335
1.30459
1.54136
1.77437
1.99758
2.20759
2.403
2.5836
2.74996
2.90302
3.04392
3.17386
3.29396
3.40531
3.50887
3.6055
3.69601
3.78112
3.86145
3.9382
4.01182
4.08272
4.15123
4.21762
4.2821
4.34485
4.40601
4.46565
4.52385
4.58061
4.63592
4.68975
4.74201
4.79258
4.84134
4.88809
4.93263
4.97472
5.01408
5.05044
5.08346
5.11283
5.1382
5.15926
5.17581
5.18595
5.19124
5.19303
5.18669
5.17415
5.15628
5.13166
5.10105
5.06428
5.02154
4.97335
4.92034
4.86289
4.80159
4.73749
4.67148
4.60483
4.53683
4.46974
4.40523
4.34198
4.28181
4.22332
4.16593
4.10815
4.04805
3.98136
3.90371
3.80917
3.69847
3.57046
3.43211
3.28553
3.1359
2.98496
2.83235
2.68279
2.55348
2.50666
2.49431
2.48757
2.48725
2.5005
2.53485
2.59296
2.67689
2.78758
2.92413
3.09401
3.29501
3.52507
3.78885
4.08627
4.41095
4.75413
5.11479
5.49004
5.87636
6.26991
6.66698
7.06306
7.4542
7.83562
8.20424
8.5525
8.88318
9.18476
9.4596
9.69777
9.91016
10.053
10.198
10.2307
10.2362
10.1263
10.0337
9.63402
0.118662
0.119013
0.119788
0.12103
0.122789
0.125102
0.127989
0.131442
0.135431
0.139956
0.145061
0.150674
0.156699
0.163034
0.169575
0.176216
0.182854
0.189387
0.19572
0.201763
0.207437
0.212675
0.217418
0.221612
0.225213
0.228182
0.230473
0.232028
0.232797
0.232557
0.231524
0.229473
0.226069
0.22123
0.21481
0.206776
0.19707
0.185743
0.172974
0.159082
0.144484
0.129599
0.11409
0.0998982
0.0884093
0.0800341
0.07798
0.0859019
0.109029
0.147592
0.196238
0.248982
0.301001
0.350083
0.401467
0.470135
0.568605
0.692977
0.830378
0.970622
1.10709
1.23587
1.35529
1.46498
1.56541
1.65727
1.74144
1.81875
1.89004
1.95606
2.01745
2.0748
2.12864
2.1794
2.22751
2.27335
2.31737
2.35994
2.40112
2.44107
2.47992
2.51776
2.55469
2.59076
2.62601
2.66044
2.69407
2.72687
2.75882
2.78984
2.81989
2.84888
2.87671
2.90326
2.92842
2.95206
2.97402
2.99415
3.01232
3.02838
3.04216
3.05354
3.06243
3.06802
3.07173
3.07311
3.07089
3.06614
3.0594
3.05001
3.03874
3.02566
3.01114
2.99582
2.98035
2.96522
2.95107
2.93882
2.92934
2.92426
2.9225
2.92607
2.93677
2.95368
2.97834
3.00995
3.04821
3.09155
3.13752
3.18189
3.21945
3.24118
3.24496
3.22369
3.17981
3.11124
3.0221
2.91615
2.79692
2.67272
2.55888
2.50865
2.4748
2.42954
2.37451
2.31761
2.26737
2.22848
2.20442
2.19693
2.20439
2.2323
2.28112
2.34613
2.43207
2.53923
2.66387
2.80521
2.96202
3.13189
3.31239
3.50145
3.697
3.89644
4.09743
4.29702
4.49353
4.6821
4.86489
5.03491
5.19299
5.33469
5.4653
5.55992
5.66063
5.70868
5.7392
5.7232
5.71378
5.66543
0.119646
0.11993
0.120634
0.121797
0.12346
0.125655
0.128391
0.131661
0.135437
0.139693
0.144405
0.149506
0.154897
0.160469
0.166109
0.171702
0.177133
0.182298
0.187095
0.191443
0.195275
0.198542
0.201216
0.203283
0.204745
0.205633
0.205954
0.205736
0.205029
0.203682
0.201871
0.199566
0.19661
0.192927
0.188353
0.18283
0.176188
0.168371
0.159313
0.14909
0.137877
0.125921
0.113132
0.10058
0.0896194
0.0809145
0.0784272
0.0866518
0.110066
0.148094
0.195244
0.245474
0.293633
0.337149
0.38076
0.437689
0.517065
0.612834
0.713301
0.8112
0.903036
0.987465
1.06449
1.13462
1.1987
1.25744
1.31154
1.36161
1.40819
1.45176
1.4927
1.53138
1.5681
1.60312
1.63671
1.66907
1.70046
1.73097
1.76068
1.78966
1.81798
1.8457
1.87286
1.89948
1.92559
1.95117
1.97623
2.00075
2.02471
2.04805
2.07075
2.09275
2.11398
2.1344
2.15392
2.17248
2.18999
2.20639
2.22162
2.2356
2.24828
2.2596
2.2696
2.27792
2.28545
2.29175
2.29631
2.30003
2.30315
2.30541
2.30741
2.30928
2.31136
2.31417
2.31823
2.32394
2.3318
2.34255
2.35684
2.37565
2.39862
2.42724
2.46271
2.50463
2.55425
2.61119
2.67537
2.74564
2.82005
2.89514
2.96591
3.02496
3.06682
3.08338
3.07575
3.03896
2.97584
2.89044
2.78772
2.67782
2.57655
2.52385
2.47813
2.41705
2.3425
2.26309
2.18755
2.12076
2.06549
2.02252
1.99048
1.97266
1.96864
1.97402
1.99262
2.02613
2.07014
2.12632
2.19536
2.27552
2.36495
2.46287
2.56817
2.67932
2.79483
2.91243
3.03117
3.14763
3.26316
3.37339
3.47776
3.57457
3.6659
3.73672
3.81158
3.85922
3.89577
3.90506
3.91909
3.962
0.121561
0.121709
0.122298
0.123357
0.124925
0.127023
0.129653
0.132795
0.136415
0.14047
0.144908
0.149655
0.154621
0.159695
0.164761
0.169701
0.174392
0.178724
0.182616
0.185997
0.188812
0.191024
0.19262
0.193595
0.193973
0.193823
0.193187
0.191999
0.19041
0.188398
0.186045
0.183384
0.180384
0.177009
0.173155
0.16876
0.163661
0.157753
0.150859
0.142934
0.13397
0.12407
0.113252
0.102056
0.0916991
0.0829848
0.0804489
0.0893536
0.113424
0.151203
0.197277
0.245838
0.291728
0.332497
0.372858
0.424622
0.49398
0.573448
0.652907
0.727581
0.796116
0.858578
0.915668
0.968027
1.01648
1.06152
1.1036
1.14308
1.18031
1.21557
1.24911
1.28112
1.31183
1.34139
1.36996
1.39768
1.42468
1.45104
1.47682
1.50207
1.52685
1.55121
1.57517
1.59875
1.62198
1.64487
1.6674
1.68959
1.71141
1.73285
1.75389
1.77451
1.79468
1.81436
1.83353
1.85215
1.8702
1.88763
1.90444
1.9206
1.93609
1.95089
1.9651
1.97858
1.99178
2.00449
2.01653
2.02847
2.04039
2.05225
2.06439
2.07692
2.09008
2.10424
2.11975
2.13688
2.156
2.17761
2.20217
2.23027
2.26194
2.29819
2.33983
2.38682
2.4401
2.4996
2.56536
2.63665
2.71212
2.78907
2.86344
2.92958
2.98194
3.0119
3.01994
3.00019
2.95334
2.88287
2.79417
2.69787
2.60883
2.55517
2.50295
2.43544
2.35551
2.27185
2.19221
2.12049
2.05846
2.00588
1.96154
1.92703
1.9013
1.88161
1.87044
1.86824
1.87119
1.8815
1.90162
1.93002
1.96518
2.00743
2.05665
2.11197
2.17281
2.23723
2.30501
2.37404
2.4448
2.51507
2.58318
2.64914
2.7128
2.76611
2.82127
2.86434
2.90023
2.9215
2.94454
3.0159
0.124946
0.124825
0.125214
0.126126
0.12759
0.129614
0.132185
0.135269
0.138815
0.142762
0.147039
0.151561
0.156231
0.160942
0.165583
0.170043
0.174222
0.178024
0.181365
0.184181
0.186424
0.188062
0.189073
0.189455
0.189303
0.188663
0.187462
0.185807
0.183767
0.181378
0.178705
0.175793
0.172659
0.169297
0.165658
0.161696
0.15729
0.152333
0.146648
0.140099
0.132591
0.124103
0.11456
0.10451
0.0947844
0.0863741
0.0843085
0.0944258
0.119569
0.157431
0.202849
0.250424
0.295362
0.33558
0.37586
0.426623
0.491347
0.561393
0.62894
0.691455
0.749028
0.80232
0.85213
0.898783
0.942877
0.984614
1.02424
1.06188
1.09774
1.13202
1.16486
1.1964
1.2268
1.25616
1.28464
1.31233
1.33933
1.36572
1.39158
1.41696
1.44192
1.46651
1.49076
1.51471
1.53838
1.56178
1.58494
1.60785
1.63052
1.65296
1.67515
1.69709
1.71878
1.7402
1.76134
1.7822
1.80274
1.82298
1.84289
1.86249
1.88175
1.90067
1.91934
1.93774
1.95601
1.97409
1.99194
2.00985
2.02785
2.04596
2.06438
2.0832
2.10255
2.1227
2.14385
2.16619
2.18999
2.21559
2.2433
2.27351
2.30639
2.34263
2.38278
2.42697
2.47586
2.52953
2.58806
2.65099
2.71739
2.78531
2.85163
2.91199
2.9614
2.99235
3.00439
2.99224
2.95503
2.89557
2.81911
2.73576
2.65855
2.60572
2.55155
2.48443
2.40758
2.32854
2.25336
2.18479
2.12371
2.06951
2.02126
1.97961
1.94345
1.91119
1.88425
1.86276
1.84475
1.83126
1.82391
1.82268
1.82484
1.83203
1.84522
1.86343
1.88705
1.91419
1.94524
1.97953
2.01668
2.05617
2.09595
2.13679
2.17746
2.21469
2.2526
2.28756
2.31805
2.34358
2.36836
2.44317
0.130551
0.129939
0.129992
0.130676
0.13201
0.133975
0.136532
0.139623
0.143172
0.147096
0.151302
0.155689
0.160155
0.164591
0.168892
0.17296
0.176701
0.180039
0.182906
0.185251
0.187038
0.188246
0.188867
0.1889
0.188495
0.187529
0.186061
0.184173
0.181916
0.179344
0.176517
0.173486
0.170277
0.166899
0.163329
0.159533
0.155427
0.150916
0.145852
0.140089
0.133389
0.125723
0.117254
0.108082
0.0990151
0.0912338
0.0902705
0.102262
0.128945
0.167267
0.212536
0.259935
0.305052
0.346232
0.388244
0.439689
0.501998
0.567825
0.630624
0.688798
0.743526
0.795697
0.845809
0.893702
0.939678
0.983687
1.02576
1.06595
1.10443
1.14134
1.1768
1.21091
1.24382
1.27564
1.3065
1.33649
1.36573
1.3943
1.42228
1.44975
1.47677
1.50339
1.52967
1.55564
1.58133
1.60677
1.63199
1.65701
1.68182
1.70645
1.7309
1.75518
1.77928
1.8032
1.82695
1.85052
1.8739
1.89709
1.92008
1.94287
1.96545
1.98783
2.01005
2.03208
2.05397
2.07574
2.09736
2.11898
2.14062
2.1623
2.18413
2.20616
2.22849
2.25127
2.27465
2.29876
2.32377
2.34993
2.37747
2.40664
2.43763
2.47091
2.50686
2.54564
2.58771
2.63316
2.68206
2.73408
2.78853
2.84396
2.89801
2.9474
2.98804
3.01376
3.02395
3.0139
2.98221
2.93106
2.86543
2.79421
2.72796
2.67734
2.62432
2.56125
2.49087
2.41899
2.35001
2.28584
2.22694
2.17277
2.12269
2.07693
2.03463
1.99485
1.95842
1.92534
1.8945
1.86639
1.84209
1.82189
1.80466
1.79112
1.78168
1.77577
1.77431
1.77561
1.78031
1.7892
1.80096
1.81621
1.83332
1.85269
1.87339
1.8949
1.917
1.94113
1.96293
1.98648
2.00888
2.07592
0.13935
0.13791
0.137438
0.137791
0.13894
0.140845
0.143416
0.146554
0.150151
0.154092
0.158261
0.162541
0.166821
0.170992
0.174956
0.178625
0.181924
0.184792
0.187182
0.189058
0.190397
0.191186
0.191421
0.19118
0.190456
0.189213
0.187539
0.185483
0.183095
0.180428
0.177532
0.174453
0.171222
0.16785
0.164323
0.160607
0.156631
0.152305
0.147501
0.142094
0.136022
0.129129
0.12135
0.112903
0.104564
0.0977876
0.0986888
0.113266
0.141974
0.181206
0.226883
0.274835
0.321166
0.364695
0.409923
0.463704
0.525556
0.588494
0.64912
0.707991
0.765552
0.821643
0.876385
0.929319
0.980486
1.02969
1.07698
1.12231
1.16567
1.20722
1.2471
1.28542
1.32235
1.358
1.39252
1.42603
1.45864
1.49046
1.52159
1.55211
1.58209
1.61161
1.64072
1.66946
1.69788
1.72602
1.75389
1.78153
1.80896
1.83618
1.8632
1.89005
1.91671
1.94319
1.96949
1.99561
2.02155
2.0473
2.07285
2.09819
2.12333
2.14825
2.17297
2.19748
2.22178
2.24588
2.26979
2.29356
2.31719
2.34071
2.36418
2.38761
2.41108
2.43467
2.45849
2.48262
2.50718
2.53234
2.55825
2.58509
2.61302
2.64235
2.67334
2.70611
2.74095
2.77796
2.81714
2.85824
2.90069
2.94338
2.98456
3.02177
3.05179
3.06978
3.07548
3.06456
3.03593
2.99131
2.93519
2.87482
2.81798
2.77011
2.7195
2.66132
2.59745
2.532
2.4681
2.40719
2.34962
2.29505
2.24314
2.19396
2.14693
2.10151
2.0582
2.01704
1.97746
1.93959
1.90415
1.87146
1.841
1.81327
1.7884
1.76662
1.74844
1.73284
1.71991
1.71027
1.70337
1.70014
1.69969
1.70127
1.70536
1.71227
1.72032
1.73244
1.74416
1.761
1.77852
1.83264
0.152772
0.149923
0.148642
0.148491
0.149347
0.151131
0.153679
0.156836
0.160447
0.164363
0.168444
0.172557
0.176582
0.180411
0.183955
0.187146
0.18993
0.192263
0.194113
0.195457
0.196284
0.196592
0.196424
0.195807
0.194686
0.193144
0.191222
0.188967
0.186428
0.183655
0.180691
0.177577
0.174343
0.171
0.167535
0.163915
0.160078
0.15594
0.151392
0.146305
0.140573
0.134114
0.126906
0.119135
0.111669
0.106379
0.110004
0.127852
0.159045
0.199718
0.24642
0.295562
0.343728
0.390172
0.439199
0.496111
0.559191
0.623351
0.687301
0.75125
0.814786
0.877382
0.938703
0.998203
1.05573
1.11107
1.16423
1.21517
1.26389
1.31058
1.35537
1.39841
1.43985
1.47984
1.51853
1.55606
1.59254
1.62809
1.66282
1.69683
1.7302
1.763
1.7953
1.82715
1.85859
1.88968
1.92043
1.95088
1.98105
2.01094
2.04058
2.06998
2.09913
2.12805
2.15672
2.18516
2.21335
2.24128
2.26895
2.29635
2.32347
2.35029
2.37682
2.40305
2.42895
2.45454
2.47981
2.50478
2.52944
2.55382
2.57793
2.60178
2.62541
2.64886
2.67221
2.6955
2.71881
2.74225
2.76591
2.78991
2.81438
2.8395
2.86543
2.89226
2.92016
2.94918
2.97929
3.01025
3.0416
3.07249
3.10162
3.12713
3.14657
3.15647
3.15677
3.1437
3.11676
3.0773
3.02911
2.97763
2.92791
2.88225
2.83368
2.77932
2.72024
2.65917
2.5984
2.53903
2.48146
2.42557
2.37125
2.31855
2.26713
2.21672
2.16764
2.12002
2.07359
2.02831
1.98469
1.94299
1.90304
1.86518
1.8295
1.79633
1.76601
1.73807
1.71278
1.69041
1.67048
1.65363
1.6393
1.62779
1.61862
1.61289
1.60904
1.60964
1.61168
1.61911
1.63053
1.6701
0.173108
0.167702
0.164976
0.1639
0.164203
0.165621
0.167966
0.170976
0.174439
0.178167
0.181987
0.18575
0.18934
0.192667
0.195663
0.198272
0.200449
0.202162
0.20339
0.20412
0.204355
0.204139
0.203469
0.202324
0.200772
0.198853
0.19661
0.194092
0.191348
0.188427
0.185372
0.182217
0.178993
0.175706
0.172337
0.168849
0.165176
0.161231
0.156907
0.152091
0.146681
0.140618
0.133943
0.126943
0.120635
0.117466
0.124701
0.146413
0.180515
0.223203
0.271528
0.322292
0.372476
0.421906
0.475113
0.535787
0.601762
0.670414
0.740635
0.811636
0.882536
0.952554
1.0211
1.08765
1.15196
1.21386
1.2733
1.33024
1.38476
1.43703
1.48718
1.53538
1.58178
1.62654
1.66982
1.71176
1.7525
1.79216
1.83085
1.86868
1.90575
1.94212
1.97787
2.01306
2.04774
2.08196
2.11574
2.14912
2.18212
2.21475
2.24703
2.27896
2.31056
2.34182
2.37275
2.40333
2.43357
2.46345
2.49296
2.5221
2.55085
2.57919
2.60712
2.63461
2.66165
2.68823
2.71434
2.73999
2.76515
2.78984
2.81405
2.83779
2.86105
2.88387
2.90628
2.9283
2.94996
2.97134
2.99249
3.01346
3.03435
3.05526
3.07626
3.09742
3.11881
3.14044
3.16228
3.18409
3.2055
3.22583
3.24421
3.25918
3.26885
3.27147
3.26612
3.25049
3.22427
3.18854
3.14616
3.10082
3.05533
3.01039
2.96237
2.90975
2.85305
2.79402
2.73429
2.67477
2.61588
2.5577
2.50027
2.44369
2.38783
2.33257
2.27815
2.22478
2.17239
2.12091
2.07066
2.02183
1.97447
1.92882
1.885
1.84336
1.80409
1.76709
1.73251
1.70055
1.67086
1.64424
1.61993
1.59842
1.57909
1.56338
1.54952
1.5407
1.53312
1.53318
1.53689
1.56099
0.202199
0.192439
0.187252
0.184536
0.183754
0.184422
0.186189
0.188737
0.19175
0.194989
0.198265
0.201443
0.204417
0.2071
0.209424
0.211338
0.212807
0.213809
0.214332
0.214367
0.213997
0.213136
0.211841
0.210152
0.20811
0.205757
0.203144
0.200319
0.197336
0.194241
0.191078
0.187878
0.184664
0.181443
0.17819
0.17486
0.171386
0.167677
0.163628
0.159132
0.154102
0.148512
0.142476
0.136459
0.13179
0.131541
0.143226
0.169255
0.206657
0.251894
0.302253
0.354671
0.406603
0.459054
0.516797
0.581912
0.653317
0.728865
0.806579
0.885254
0.963774
1.04127
1.11708
1.19072
1.26194
1.33057
1.39652
1.45976
1.52042
1.57862
1.63452
1.68826
1.74002
1.78994
1.8382
1.88494
1.9303
1.97442
2.01741
2.05938
2.10044
2.14067
2.18013
2.21891
2.25704
2.29458
2.33156
2.36802
2.40398
2.43945
2.47444
2.50897
2.54304
2.57665
2.6098
2.64248
2.67469
2.70642
2.73766
2.76839
2.7986
2.82827
2.85738
2.88591
2.91384
2.94116
2.96785
2.9939
3.01928
3.04399
3.06802
3.09135
3.11398
3.1359
3.15711
3.17763
3.19745
3.21661
3.23511
3.253
3.2703
3.28706
3.30332
3.3191
3.33441
3.34923
3.36355
3.37715
3.38972
3.40071
3.40966
3.41524
3.41659
3.41238
3.40164
3.38309
3.35651
3.32255
3.28317
3.24063
3.19617
3.14986
3.10031
3.04699
2.99014
2.93082
2.87017
2.80891
2.74745
2.68602
2.62476
2.56382
2.50323
2.44302
2.38336
2.32454
2.26662
2.20953
2.15351
2.09866
2.04513
1.99314
1.94287
1.89461
1.84851
1.80461
1.76301
1.72386
1.68692
1.65282
1.62093
1.59208
1.56523
1.542
1.52037
1.50409
1.48882
1.48098
1.47815
1.48924
0.241179
0.224323
0.215205
0.209856
0.207269
0.206689
0.207448
0.209139
0.21136
0.213837
0.216367
0.218795
0.221001
0.222895
0.224414
0.225514
0.226168
0.226358
0.226117
0.225422
0.224272
0.222715
0.220781
0.218511
0.21595
0.213147
0.210155
0.207027
0.203816
0.200569
0.197327
0.194116
0.190954
0.18784
0.184744
0.181617
0.178388
0.174967
0.171253
0.167153
0.162605
0.157635
0.152472
0.147829
0.145462
0.149048
0.165876
0.19651
0.237537
0.285655
0.338028
0.391593
0.444804
0.500661
0.56339
0.634747
0.713643
0.796773
0.882073
0.96819
1.054
1.13866
1.22154
1.3022
1.38037
1.45584
1.52848
1.59832
1.66545
1.72997
1.79201
1.85172
1.90926
1.96478
2.01845
2.0704
2.1208
2.16977
2.21744
2.26392
2.30933
2.35374
2.39723
2.43988
2.48174
2.52286
2.56328
2.60303
2.64215
2.68064
2.71851
2.75577
2.79244
2.8285
2.86395
2.8988
2.93303
2.96663
2.99959
3.0319
3.06354
3.09449
3.12473
3.15423
3.18297
3.21093
3.23809
3.26441
3.28989
3.31449
3.33818
3.36096
3.3828
3.40367
3.42355
3.44243
3.4603
3.47714
3.49295
3.50771
3.52143
3.53412
3.54577
3.5564
3.56598
3.57446
3.58187
3.58802
3.59267
3.59528
3.59577
3.59322
3.58704
3.57629
3.56009
3.53783
3.50925
3.47451
3.43478
3.39137
3.34467
3.29468
3.24136
3.18485
3.12537
3.06351
3.00007
2.93552
2.87026
2.80457
2.73868
2.67279
2.60704
2.54163
2.47664
2.41242
2.34913
2.28677
2.2255
2.16533
2.10648
2.04921
1.99368
1.94017
1.8888
1.83962
1.79272
1.7482
1.70591
1.66631
1.62894
1.5946
1.56234
1.53373
1.50647
1.48471
1.46352
1.45029
1.43913
1.442
0.28998
0.262522
0.247782
0.238777
0.233741
0.23141
0.230857
0.231391
0.23261
0.234155
0.235774
0.237286
0.238565
0.23952
0.240092
0.240242
0.239979
0.239268
0.23811
0.236539
0.234579
0.232266
0.229642
0.226755
0.223657
0.220405
0.217053
0.213659
0.210272
0.206936
0.203687
0.200544
0.197513
0.194582
0.191715
0.188857
0.185935
0.182863
0.179554
0.175938
0.172002
0.167865
0.163937
0.161258
0.162007
0.170308
0.19271
0.228043
0.272816
0.323681
0.377427
0.431374
0.486136
0.545908
0.614963
0.694441
0.781034
0.871397
0.963665
1.05656
1.14907
1.24046
1.33016
1.41773
1.50283
1.58521
1.66478
1.74152
1.81548
1.88673
1.95536
2.02151
2.08532
2.14693
2.20649
2.26415
2.32006
2.37435
2.42715
2.47859
2.52877
2.57777
2.62569
2.67259
2.71853
2.76356
2.80774
2.8511
2.89366
2.93544
2.97644
3.01668
3.05615
3.09487
3.13282
3.16999
3.20639
3.242
3.2768
3.31078
3.34393
3.37622
3.40764
3.43814
3.4677
3.4963
3.52391
3.55049
3.57602
3.60045
3.62376
3.6459
3.66685
3.68657
3.70502
3.72216
3.73796
3.7524
3.76543
3.77701
3.78713
3.79575
3.80281
3.8084
3.81245
3.81485
3.81572
3.8149
3.81213
3.80709
3.79966
3.78941
3.7759
3.75838
3.73592
3.70838
3.67556
3.63711
3.59341
3.54547
3.49338
3.43742
3.37809
3.31603
3.25152
3.18491
3.11675
3.0473
2.97686
2.90578
2.83431
2.76272
2.69121
2.61988
2.54889
2.47882
2.40991
2.3422
2.27585
2.2108
2.14731
2.08561
2.02589
1.96833
1.91311
1.86039
1.81002
1.76206
1.71641
1.6734
1.63265
1.59487
1.55908
1.52698
1.49606
1.47075
1.44549
1.42887
1.41142
1.40833
0.347282
0.305897
0.284263
0.270936
0.263015
0.258608
0.25646
0.255708
0.255751
0.256158
0.256671
0.257077
0.25724
0.257084
0.256549
0.25559
0.25421
0.252415
0.250224
0.247666
0.24478
0.241614
0.238221
0.23466
0.230994
0.227283
0.223589
0.219966
0.216461
0.213112
0.209941
0.206955
0.204146
0.201486
0.198929
0.196413
0.193865
0.191211
0.188386
0.185368
0.18223
0.179247
0.17708
0.177138
0.181852
0.19548
0.223512
0.263312
0.311463
0.364164
0.417991
0.471854
0.528916
0.594449
0.671832
0.759338
0.852769
0.94938
1.04763
1.14644
1.24499
1.34264
1.43883
1.53309
1.62504
1.71445
1.80115
1.88509
1.96624
2.04464
2.12035
2.19346
2.26407
2.33232
2.39834
2.46227
2.52425
2.58441
2.64289
2.69981
2.75528
2.80938
2.8622
2.91381
2.96428
3.01366
3.06201
3.10935
3.15573
3.20115