/*--------------------------------*- C++ -*----------------------------------*\
| =========                 |                                                 |
| \\      /  F ield         | OpenFOAM: The Open Source CFD Toolbox           |
|  \\    /   O peration     | Version:  2112                                  |
|   \\  /    A nd           | Website:  www.openfoam.com                      |
|    \\/     M anipulation  |                                                 |
\*---------------------------------------------------------------------------*/
FoamFile
{
    version     2.0;
    format      ascii;
    arch        "LSB;label=32;scalar=64";
    class       volScalarField;
    location    "0.07";
    object      omega;
}
// * * * * * * * * * * * * * * * * * * * * * * * * * * * * * * * * * * * * * //

dimensions      [0 0 -1 0 0 0 0];

internalField   nonuniform List<scalar> 
12885
(
32300.3
68033.1
81907.3
86458
87462.1
87321.7
86888.7
86032.6
84772.8
83465.3
82295.6
81327.6
80553.7
79807
78803.8
77491.8
76119.1
74867.1
73785.1
72893.5
72217.7
71673.3
71056.5
70319.7
69514.1
68695.7
67919
67188.5
66498.5
65869.5
65307.9
64808.6
64341
63905.5
63435
63027.7
62469.3
62140.3
61738.4
60534.7
1591.97
6314.48
12059.1
16445.3
19152.8
20482.2
21535.5
23487.9
26309.3
28614.8
29969.3
30603.9
30991.8
31422.1
32139.3
33723.8
35248.7
36307.9
36875.2
37026.3
37005.6
36985.7
37031.1
37247.9
37566.6
37562.5
37387.9
36908.6
36091.5
35153.6
34274.7
33479.1
32835.5
32269.2
31815
31363
31040.5
30642
30692.7
30970.4
234.507
737.233
1402.61
2054.81
2641.26
3080.09
3352.15
3816
4819.48
6153.39
7161.8
7823.59
8346.89
8788.81
9197.1
9944.62
11205.5
12473.8
13571.1
14412.6
15041.4
15483.1
15846.7
16303.4
16920.4
17631
18411.5
19146.3
19785.8
20255.8
20603
20810.6
20958.4
21035.2
21112.7
21161
21235.6
21307.2
21388.5
21582.5
78.4553
202.996
351.612
501.506
652.74
785.056
866.502
959.258
1155.1
1413.11
1645.61
1835.25
2012.44
2133.85
2257.12
2380.95
2514.96
2879.9
3288.75
3681.28
3977.43
4250.69
4445.82
4682.74
4898.18
5222.02
5555.23
6004.67
6465.3
7001.13
7435.09
7936.61
8308.56
8744.99
9041.78
9427.16
9677.75
10052.2
10290.6
10688.6
49.0463
96.91
150.024
204.122
260.161
311.862
346.939
380.64
437.513
507.073
576.436
640.666
701.135
748.677
791.663
829.368
861.35
938.938
1025.08
1118.49
1194.28
1273.37
1332.57
1402.68
1458.14
1535.23
1589.57
1689.47
1753.34
1878.93
2004.15
2186.59
2329.58
2514.24
2644.13
2820.82
2934.25
3110.64
3214.44
3400.97
42.3673
62.1209
88.1226
113.615
139.966
164.632
183.507
201.586
225.334
252.629
280.792
308.382
334.42
357.085
376.616
394.023
409.688
431.896
456.631
484.453
510.077
536.653
559.899
584.682
607.006
631.866
651.887
679.963
698.568
728.88
760.163
800.883
837.135
880.767
916.117
960.256
991.878
1037.39
1063.38
1113.06
40.5647
48.3058
63.1565
76.9801
91.2887
104.824
116.216
127.2
139.709
153.361
167.487
181.571
195.011
207.265
218.057
227.832
237.004
247.196
258.11
269.845
281.418
293.175
304.43
315.817
326.786
337.821
348
358.819
368.437
378.587
388.835
400.308
411.79
424.296
436.214
449.157
460.682
474.031
484.126
499.032
39.9935
43.1541
50.9746
59.3915
67.8674
76.0058
83.3265
90.4385
97.9757
105.901
114.033
122.157
129.992
137.311
143.966
150.1
155.926
161.855
167.949
174.24
180.553
186.9
193.167
199.41
205.534
211.54
217.297
222.942
228.305
233.539
238.675
243.879
249.099
254.435
259.764
265.204
270.533
276.034
281.107
287.449
39.7815
41.1317
44.8551
50.158
55.3904
60.5428
65.4147
70.2017
75.1032
80.1323
85.2455
90.3478
95.31
100.026
104.427
108.551
112.486
116.36
120.23
124.122
128.015
131.905
135.771
139.607
143.383
147.073
150.649
154.117
157.459
160.692
163.834
166.922
169.961
173.051
176.209
179.432
182.68
185.95
189.073
192.524
39.6926
40.2904
41.9598
45.0704
48.3781
51.7077
55.0088
58.3125
61.6382
64.9839
68.3807
71.7746
75.1059
78.3225
81.387
84.2986
87.0836
89.7843
92.4331
95.0525
97.6531
100.242
102.82
105.379
107.906
110.382
112.813
115.22
117.579
119.878
122.12
124.313
126.457
128.536
130.562
132.551
134.511
136.45
138.284
140.226
39.6524
39.9278
40.6851
42.2842
44.3187
46.4701
48.685
50.9659
53.3013
55.6524
57.9962
60.341
62.6734
64.9702
67.2009
69.3425
71.3884
73.3482
75.2414
77.0921
78.9234
80.7528
82.5879
84.4262
86.2572
88.0621
89.8172
91.5136
93.1563
94.7455
96.2834
97.7754
99.2266
100.597
101.875
103.071
104.197
105.266
106.277
107.354
39.6321
39.7632
40.118
40.8877
42.0215
43.3306
44.7429
46.2532
47.863
49.5305
51.1918
52.8439
54.4821
56.0999
57.6893
59.2416
60.7507
62.215
63.6374
65.0242
66.3831
67.7221
69.0468
70.3594
71.6583
72.9377
74.1726
75.34
76.4474
77.5014
78.5058
79.4636
80.3776
81.2456
82.0647
82.834
83.5546
84.2299
84.8654
85.5306
39.62
39.6731
39.8216
40.1497
40.6883
41.3568
42.1281
42.9984
43.9679
45.0125
46.0909
47.1694
48.2255
49.2536
50.2629
51.2686
52.2823
53.3056
54.3302
55.3424
56.3282
57.2781
58.1884
59.0603
59.8975
60.7041
61.4808
62.2263
62.9414
63.6269
64.2826
64.9078
65.5018
66.0645
66.5964
67.0981
67.5704
68.0142
68.4333
68.8637
39.6134
39.6267
39.6726
39.7811
39.9866
40.2644
40.5988
40.9938
41.4532
41.9689
42.522
43.0892
43.6525
44.205
44.7516
45.3037
45.8714
46.4584
47.0605
47.6676
48.2673
48.8486
49.4043
49.9314
50.4301
50.9032
51.3543
51.787
52.2035
52.6052
52.9925
53.3653
53.7229
54.065
54.3911
54.7012
54.9957
55.2748
55.5411
55.8098
39.6092
39.6078
39.6146
39.6378
39.6898
39.7775
39.8925
40.0305
40.1933
40.3811
40.5891
40.8103
41.0385
41.2705
41.5063
41.7481
41.9985
42.2586
42.5275
42.8022
43.0786
43.3525
43.6199
43.8786
44.1269
44.3648
44.5926
44.8113
45.0216
45.2245
45.4205
45.6099
45.793
45.9699
46.1406
46.3052
46.4636
46.6162
46.7639
46.9121
39.6083
39.5997
39.5941
39.5944
39.5995
39.6133
39.6394
39.6743
39.7163
39.7655
39.8218
39.8839
39.9508
40.0217
40.0964
40.1748
40.2569
40.3427
40.4319
40.5237
40.6175
40.7122
40.8069
40.9009
40.9934
41.0841
41.1727
41.2591
41.3432
41.4252
41.505
41.5828
41.6586
41.7326
41.8047
41.8751
41.9437
42.0106
42.0762
42.1421
39.6079
39.5977
39.5888
39.5817
39.5767
39.5748
39.5757
39.5791
39.5859
39.5952
39.6067
39.6205
39.6363
39.654
39.6735
39.6947
39.7174
39.7416
39.7672
39.7939
39.8215
39.85
39.8791
39.9085
39.9383
39.9681
39.998
40.0278
40.0574
40.0867
40.1159
40.1447
40.1732
40.2013
40.2292
40.2566
40.2837
40.3104
40.3371
40.3643
39.6078
39.5974
39.5882
39.5807
39.5752
39.5724
39.5729
39.5756
39.5817
39.5908
39.6022
39.6158
39.6316
39.6493
39.6689
39.6902
39.7131
39.7374
39.7629
39.7895
39.8171
39.8456
39.8747
39.9046
39.9349
39.9658
39.997
40.0286
40.0603
40.0922
40.1242
40.1562
40.1881
40.22
40.2517
40.2832
40.3145
40.3455
40.3761
40.406
39.608
39.5995
39.5948
39.5963
39.604
39.6226
39.6555
39.7017
39.76
39.8267
39.9001
39.9804
40.0673
40.1603
40.2588
40.3623
40.4699
40.5807
40.694
40.8094
40.9266
41.0453
41.1655
41.2869
41.4092
41.5322
41.6555
41.7786
41.9012
42.0231
42.1439
42.2635
42.3819
42.4989
42.6145
42.7287
42.8414
42.9526
43.062
43.1692
39.6089
39.609
39.6181
39.6461
39.7046
39.798
39.9252
40.0841
40.2685
40.4686
40.6819
40.9088
41.1484
41.3998
41.6617
41.932
42.2077
42.4861
42.7654
43.0451
43.3249
43.605
43.8856
44.1661
44.4459
44.7241
44.9997
45.2717
45.5393
45.802
46.0596
46.3119
46.5591
46.8013
47.0386
47.2712
47.4991
47.7223
47.9406
48.1534
39.6148
39.6376
39.7047
39.8468
40.0764
40.387
40.7703
41.213
41.6975
42.2099
42.7462
43.3025
43.8727
44.4583
45.0577
45.6649
46.2717
46.8727
47.4656
48.0497
48.6245
49.1898
49.745
50.2898
50.8237
51.3462
51.8571
52.356
52.8428
53.3173
53.7793
54.2289
54.6659
55.0903
55.502
55.901
56.2874
56.6613
57.0223
57.3701
39.6309
39.7495
40.0321
40.5345
41.2134
42.0444
42.9956
44.0301
45.1133
46.2248
47.3492
48.4749
49.6011
50.735
51.8723
53.0038
54.12
55.2159
56.2874
57.3301
58.3412
59.3201
60.268
61.1874
62.0815
62.953
63.8037
64.6348
65.4464
66.238
67.0086
67.7571
68.4824
69.1833
69.8593
70.51
71.1355
71.7359
72.3112
72.8599
39.6882
40.1456
41.1305
42.5389
44.2237
46.1296
48.1961
50.3503
52.5283
54.6768
56.7606
58.7843
60.7875
62.7873
64.782
66.7601
68.7111
70.6201
72.4706
74.2509
75.9563
77.5917
79.1688
80.7014
82.202
83.6782
85.133
86.5656
87.9731
89.3517
90.6968
92.0045
93.2715
94.4957
95.6759
96.8122
97.9053
98.9562
99.9652
100.925
39.8757
41.4552
44.3707
47.795
51.5131
55.5154
59.7357
64.0263
68.2808
72.3862
76.2285
79.8397
83.3977
87.0329
90.7504
94.4859
98.1705
101.746
105.167
108.403
111.445
114.323
117.088
119.795
122.492
125.199
127.911
130.616
133.295
135.931
138.508
141.012
143.431
145.763
148.01
150.174
152.26
154.271
156.214
158.044
40.4843
45.7152
53.2821
61.093
68.9698
77.3306
86.1632
95.0063
103.707
112.023
119.449
126.063
132.76
140.134
148.068
156.15
164.073
171.634
178.734
185.271
191.222
196.752
202.107
207.448
213.03
218.865
224.847
230.899
236.925
242.824
248.583
254.132
259.466
264.597
269.596
274.476
279.296
283.985
288.684
293.021
42.7574
59.4252
79.0434
97.3801
114.982
134.295
155.386
176.091
196.336
215.685
231.827
244.79
259.398
278.462
300.518
322.838
344.004
363.32
380.896
396.433
409.901
422.381
435.263
448.458
463.924
480.893
498.672
517.237
535.514
552.494
569.122
584.631
599.807
614.61
630.186
645.884
662.709
679.036
696.709
712.657
53.7069
110.987
170.521
221.388
269.144
326.629
392.717
456.032
516.009
571.533
615.149
647.938
695.461
772.872
865.993
954.993
1032.11
1096.06
1151.22
1196.76
1235.08
1274.91
1325.5
1379.33
1451.1
1529.98
1610.18
1692.01
1768.51
1830.8
1892.27
1944.85
2000.56
2057.43
2128.03
2204.25
2294.81
2385.73
2488.38
2584.96
124.027
394.246
672.255
881.262
1080.75
1355.95
1677.94
1977.05
2229.92
2425.05
2577.89
2744.63
3000.13
3487.72
4065.91
4568.68
4927.6
5176.82
5374.22
5525.69
5678.5
5924.27
6283.8
6725.86
7221.54
7731.12
8198.11
8553.77
8821.94
9026.39
9189.2
9322.38
9478.04
9658.18
9888.21
10145.3
10438.6
10731.7
11043.5
11334.5
812.415
3697.36
6249.32
7832.01
9334.86
11597.8
13914.9
15624
16642.7
17189.4
17553.9
17981.1
18869.5
20143.7
21307.9
22152.6
22644.4
22873.9
23011.9
23180.2
23420.6
23967.5
24742.3
25478.4
26085.9
26544.3
26855.9
27025.4
27079.9
27091
27111.7
27177
27321.6
27569.8
27838.2
28100.8
28321.6
28490.1
28628.2
28703
18162.9
43989.4
57210.3
63281.2
65918.1
66898.8
66901.8
66745.3
66404.1
66060.6
65775.9
65450.6
64938.3
64245
63524.9
62875.6
62324.3
61887.7
61585.9
61366.8
61067.4
60565.9
59924.9
59266.5
58663
58130.7
57655.5
57237.7
56919.5
56733.8
56629
56501.9
56286.6
55979.3
55611.3
55223
54840.9
54482.5
54150.5
53841
557.644
558.969
561.843
566.473
573.122
582.074
593.625
608.071
625.975
649.227
680.023
719.127
767.83
827.782
900.668
988.159
1091.82
1212.94
1352.3
1509.95
1684.99
1875.44
2078.06
2288.29
2500.37
2707.52
2902.18
3076.51
3222.53
3332.11
3399.07
3409.53
3379.52
3294.29
3152.2
2960.27
2723.74
2452.38
2159.09
1859.5
1570.22
1311.05
1095.69
923.759
794.845
696.095
625.617
583.843
577.862
619.942
733.809
947.904
1303
1837.7
2571.54
3517.25
4690.91
6068.54
7571.14
9108.98
10610.1
12025.9
13330.5
14514.5
15578.8
16530.8
17380.6
18139.1
18817
19424.2
19969.7
20461
20904.8
21306.7
21671.3
22002.8
22304.7
22586.4
22850.8
23100.8
23338.4
23565.5
23783.5
23993.8
24197.6
24395.7
24589
24778
24963.2
25145.1
25323.7
25499.2
25671.6
25840.5
26005.6
26166.4
26322
26471.7
26614.2
26748.4
26872.7
26985.6
27085.2
27170.7
27238.7
27281.5
27301.3
27301.5
27267.3
27201.3
27098.2
26954.6
26766.2
26528.5
26236.7
25885.9
25471.1
24986.6
24426.8
23785.5
23058.5
22238.6
21319.5
20297.3
19165.4
17920
16557
15083.6
13514.9
11864.5
10165.6
8467.3
6835.78
5349.86
4079.67
3069.76
2323.85
1816.03
1515.12
1381.08
1399.88
1563.52
1932.01
2591.15
3562.18
4844.89
6396.44
8154.46
10057.2
12053.3
14105.7
16180.6
18257.3
20320.9
22356.3
24365.3
26312.7
28130.1
29836.8
31445.7
32962.8
34389.6
35725.6
36970.8
38125.2
39187
40156.9
41032.7
41814.2
42495.1
43083
43551.1
43933
44156.4
44299.6
44193.1
44089.6
43406
43032.2
40690.8
563.407
564.592
567.249
571.54
577.667
585.832
596.234
609.086
624.731
643.826
667.079
694.814
727.496
765.681
809.935
860.82
918.887
984.606
1058.22
1139.78
1229.04
1325.46
1428.09
1535.54
1646
1757.21
1866.51
1970.9
2067.02
2151.65
2222.04
2270.28
2297.62
2294.86
2267.54
2203.02
2104.47
1973
1813.15
1631.63
1438.43
1246.53
1068.64
915.657
792.118
690.07
612.876
564.971
553.832
586.682
681.667
859.224
1148.06
1571.86
2133.55
2821.18
3616.59
4474.94
5329.9
6130.54
6851.45
7485.62
8037.58
8516.64
8933.03
9296.72
9616.25
9898.83
10150.3
10375.6
10578.7
10762.7
10930.3
11083.8
11225.1
11356.1
11479.6
11598
11710.9
11819.3
11923.6
12024.4
12122.1
12217.1
12309.7
12400
12488.3
12574.6
12658.9
12741.2
12821.5
12899.5
12975.1
13048
13117.8
13184.3
13246.8
13305
13358.2
13405.8
13447.1
13481.6
13508
13526.3
13534.3
13532.6
13519.6
13496.8
13459.5
13408.4
13342.2
13260
13160.6
13043.2
12906.6
12749.6
12570.8
12369.1
12142.6
11889.6
11607
11292.6
10943
10553.1
10118
9630.84
9085.32
8476.8
7803.47
7062.86
6263.73
5424.35
4578.19
3768.8
3042.15
2435.01
1965.35
1633.91
1437.93
1358.88
1396.28
1554.65
1868.81
2364.73
3018.7
3790.37
4628.92
5492.42
6353.86
7199.9
8026.28
8834.89
9628.06
10407.7
11178.6
11949.5
12713.7
13455.7
14171.4
14863.1
15531.9
16176.4
16794.8
17384.8
17944.9
18472.6
18967.3
19424.1
19846.7
20226.7
20570.7
20863.6
21128
21313.9
21497.3
21567.6
21646.3
21541.9
21573.7
21297.9
577.766
578.646
580.967
584.84
590.413
597.803
607.101
618.376
631.728
647.337
665.426
686.104
709.328
735.099
763.704
795.373
830.29
868.534
910.042
954.822
1002.83
1053.97
1108.04
1164.75
1223.67
1284.26
1345.79
1407.41
1468.06
1526.3
1581.09
1629.12
1669.17
1696.46
1709.94
1703.62
1677.76
1623.23
1543.54
1438.24
1312.33
1173.65
1032.75
901.142
786.586
685.086
604.068
553.228
540.375
569.583
655.704
814.759
1068.72
1432.55
1899.51
2444.45
3033.17
3617.25
4147.62
4600.89
4976.49
5284.29
5537.58
5748.91
5927.76
6081.73
6216.29
6335.64
6442.7
6539.8
6628.66
6710.67
6786.91
6858.36
6925.9
6990.47
7053.15
7114.13
7173.22
7230.65
7286.56
7341.08
7394.32
7446.32
7497.14
7546.76
7595.16
7642.29
7688.08
7732.4
7775.13
7816.09
7855.1
7891.93
7926.34
7958.05
7986.78
8012.22
8034.06
8051.93
8065.53
8074.81
8078.05
8077.15
8070.06
8057.66
8038.71
8014.13
7982.53
7944.22
7898.96
7846.64
7787.06
7720.28
7646.29
7564.77
7475.48
7378.23
7272.48
7157.61
7031.61
6893.67
6741.87
6572.08
6381.12
6163.47
5913.89
5627.13
5297.3
4918.18
4489.53
4016.72
3516
3012.37
2537.04
2120.13
1783.65
1539.11
1395.78
1344.58
1390.82
1538.86
1807.84
2195.71
2662.02
3159.98
3650.94
4113.96
4543.13
4940.88
5313.03
5670.88
6019.41
6360.89
6703.07
7053.65
7413.46
7777.96
8142.4
8506.29
8869.47
9229.94
9585.98
9935.07
10275.3
10604
10920.5
11219.2
11504.2
11767.5
12014.5
12234.3
12444.9
12607.2
12781.3
12886.8
13016.3
13046.6
13149.6
13402.5
604.837
605.073
606.799
610.065
614.945
621.458
629.561
639.156
650.124
662.363
675.785
690.28
705.743
722.049
738.837
756.009
774.072
793.134
813.227
834.311
856.498
879.975
904.901
931.415
959.631
989.673
1021.55
1055.24
1090.73
1127.67
1165.84
1204.21
1241.94
1276.74
1307.08
1328.83
1339.09
1332.62
1308.28
1258.33
1185.93
1093.25
987.792
879.207
776.706
679.34
597.141
544.962
531.877
559.899
641.17
788.838
1020.91
1347.09
1753.64
2204.61
2654.83
3058.85
3385.74
3633.6
3816.69
3952
4054.31
4135.57
4202.48
4259.94
4310.8
4357.32
4400.56
4441.36
4480.24
4517.66
4553.9
4589.27
4624.04
4658.48
4692.77
4726.75
4760.26
4793.29
4825.81
4857.81
4889.25
4920.09
4950.28
4979.75
5008.42
5036.22
5063.03
5088.74
5113.24
5136.37
5158
5177.97
5196.1
5212.23
5226.2
5237.81
5246.92
5253.31
5256.78
5257.48
5254.77
5249.19
5240.19
5228.15
5212.46
5193.73
5171.56
5146.15
5117.57
5085.88
5051.13
5013.58
4973.36
4930.4
4884.66
4836.2
4784.75
4729.91
4670.57
4606.31
4535.89
4456.75
4366.84
4262.3
4139.53
3994.24
3821.31
3615.25
3373.47
3096.63
2791.91
2473.11
2160.12
1874.75
1636.76
1460.69
1360.43
1331.86
1383.04
1516.02
1736.8
2027.53
2347.14
2659.01
2941.99
3190.35
3407.51
3599.75
3773.92
3938.88
4098.54
4255.32
4414.5
4581.27
4757.22
4941.46
5132.1
5328.54
5530.8
5737.94
5949.1
6162.83
6377.72
6591.71
6804.41
7010.8
7214.36
7408.47
7596.75
7770.85
7944.93
8089.12
8247.76
8363.85
8506.98
8592.2
8723.49
9123.71
650.815
649.689
650.289
652.51
656.347
661.681
668.308
675.954
684.308
693.054
701.898
710.574
718.854
726.597
733.765
740.266
745.587
750.64
755.492
760.417
765.731
771.68
778.537
786.586
796.112
807.489
820.8
836.348
854.566
875.49
899.268
925.862
955.074
986.117
1018.11
1048.76
1075.74
1094.53
1100.62
1090.64
1060.18
1006.26
933.808
849.178
761.275
671.248
590.711
539.405
527.931
557.595
638.148
780.989
1001.7
1305.58
1670.72
2050.14
2392.07
2661.1
2845.45
2961.58
3031.58
3073.17
3098.06
3116.46
3131.6
3145.86
3159.89
3174.92
3190.86
3207.66
3225.19
3243.47
3262.34
3281.81
3301.79
3322.25
3343.09
3364.12
3385.19
3406.23
3427.14
3447.87
3468.34
3488.48
3508.21
3527.47
3546.18
3564.24
3581.58
3598.1
3613.71
3628.3
3641.78
3654.03
3664.97
3674.47
3682.45
3688.82
3693.5
3696.34
3697.16
3696.53
3693.68
3689.05
3682.44
3674.04
3663.65
3651.55
3637.7
3622.21
3605.19
3586.73
3566.89
3545.88
3523.82
3500.69
3476.48
3451.25
3424.82
3396.92
3366.95
3334.62
3299.08
3258.75
3212.29
3157.27
3091.33
3011.47
2913.98
2794.84
2651.45
2483.06
2292.63
2087.68
1880.61
1686.44
1520.95
1398.16
1332
1320.96
1373.05
1487.38
1660.6
1869.66
2081.47
2272.84
2435.13
2569.7
2682.07
2777.9
2862.54
2941.61
3017.55
3091.76
3167.72
3248.66
3335.82
3429.25
3528.55
3633.58
3744.11
3860.33
3982.25
4109.49
4241.54
4377.03
4516.31
4655.69
4797.66
4938.03
5078.66
5213.99
5353.87
5477.74
5614.63
5728.76
5864.29
5976.3
6106.49
6510.03
724.359
720.531
718.844
718.995
720.79
724.007
728.202
732.905
737.624
741.886
745.272
747.452
748.152
747.364
745.037
741.277
736.268
730.224
723.727
717.191
710.909
705.189
700.335
696.65
694.454
694.272
695.675
699.45
706.248
715.819
728.544
744.801
764.703
788.21
815.105
844.427
874.827
903.376
926.399
938.941
935.285
914.71
871.538
810.741
739.367
659.584
583.714
536.102
528.392
562.611
646.486
790.383
1008.01
1299.22
1629.34
1942.53
2186.96
2347.21
2426.79
2458.15
2464.81
2460.21
2449.14
2440.54
2435.08
2432.99
2432.81
2435.78
2441.31
2448.89
2457.99
2468.53
2480.13
2492.68
2505.98
2519.9
2534.29
2548.98
2563.85
2578.8
2593.75
2608.62
2623.34
2637.84
2652.05
2665.92
2679.36
2692.32
2704.73
2716.52
2727.62
2737.95
2747.46
2756.08
2763.73
2770.36
2775.92
2780.35
2783.62
2785.66
2786.32
2786.1
2784.45
2781.65
2777.64
2772.5
2766.21
2758.9
2750.61
2741.41
2731.39
2720.61
2709.13
2697.1
2684.58
2671.56
2658.04
2644.05
2629.47
2614.09
2597.61
2579.77
2560.01
2537.35
2510.9
2479.17
2440.61
2393.24
2334.54
2261.82
2173.06
2067.34
1945.83
1812.73
1675.8
1545.2
1432.84
1350.95
1310.63
1312.21
1361.49
1455.21
1584.97
1729.58
1866.09
1981.92
2075.02
2148.76
2207.97
2256.76
2298.79
2337.35
2373.93
2409.4
2445.83
2485.18
2528.37
2575.48
2626.54
2681.64
2740.51
2803.68
2871.44
2943.85
3021.13
3102.38
3188.4
3277.29
3370.46
3466.1
3564.81
3663.86
3768.78
3868.32
3977.5
4079.86
4194.54
4312.01
4428.64
4779.88
838.516
828.505
821.683
817.121
814.419
813.021
812.25
811.411
809.857
807.054
802.525
796.109
787.612
776.915
764.101
749.664
734.907
719.792
704.597
689.642
675.236
661.672
649.216
638.119
628.63
621.008
615.365
611.978
611.493
613.236
618.093
626.581
638.66
654.679
674.786
698.783
726.119
755.27
783.79
807.718
821.534
820.102
803.073
764.862
710.896
643.802
575.726
535.094
533.353
575.76
667.382
817.382
1035.86
1314.68
1609.35
1852.7
2001.49
2065.48
2080.72
2070
2043.87
2018.81
1995.74
1979.14
1967.44
1960.79
1957.79
1957.13
1959.44
1964.07
1970.21
1977.78
1986.38
1995.87
2006.04
2016.75
2027.85
2039.23
2050.77
2062.4
2074.04
2085.62
2097.08
2108.37
2119.42
2130.19
2140.63
2150.68
2160.29
2169.42
2178
2186.01
2193.38
2200.08
2206.06
2211.29
2215.74
2219.38
2222.19
2224.15
2225.22
2225.53
2225.01
2223.67
2221.55
2218.68
2215.09
2210.84
2205.99
2200.58
2194.69
2188.35
2181.61
2174.56
2167.24
2159.64
2151.76
2143.6
2135.08
2126.06
2116.35
2105.75
2093.89
2080.15
2063.94
2044.32
2020.31
1990.6
1953.57
1907.48
1850.97
1783.28
1704.97
1618.51
1528.85
1442.87
1369.24
1318.03
1296.38
1305.99
1349.48
1422.45
1515.25
1611.69
1697.55
1766.86
1820.18
1860.74
1892.03
1916.78
1937.37
1955.68
1972.6
1988.73
2005.27
2023.41
2043.78
2066.45
2091.48
2119.01
2148.94
2181.71
2217.5
2256.6
2299.44
2345.48
2395.43
2448.64
2505.71
2566.52
2630.95
2698.36
2770.82
2844.8
2924.53
3008.33
3096.41
3202.75
3299.66
3582.29
1012.71
986.858
968.087
952.804
940.015
928.67
917.728
906.284
893.591
879.42
862.762
843.348
821.229
797.905
774.678
751.924
729.298
706.964
685.259
664.463
644.812
626.495
609.671
594.479
581.045
569.491
559.928
552.502
547.452
544.903
545.304
548.071
554.357
564.421
578.437
596.55
618.7
644.283
671.94
699.022
721.322
733.545
731.202
713.693
677.061
624.268
567.15
536.653
544.109
597.868
701.158
861.389
1082.77
1344.98
1591.07
1746.2
1806.85
1818.02
1797.35
1761.85
1725.88
1696.52
1673.05
1656.74
1645.69
1639.66
1636.97
1636.3
1638.34
1642.37
1647.67
1654.17
1661.51
1669.56
1678.14
1687.13
1696.42
1705.91
1715.51
1725.16
1734.8
1744.38
1753.85
1763.15
1772.26
1781.12
1789.7
1797.96
1805.87
1813.38
1820.46
1827.08
1833.2
1838.81
1843.86
1848.35
1852.25
1855.55
1858.25
1860.33
1861.8
1862.69
1862.98
1862.74
1861.94
1860.63
1858.84
1856.61
1853.98
1851
1847.69
1844.11
1840.28
1836.25
1832.05
1827.67
1823.11
1818.36
1813.35
1807.99
1802.17
1795.74
1788.42
1779.85
1769.61
1757.14
1741.79
1722.75
1698.97
1669.41
1633.18
1589.85
1539.74
1484.45
1427.23
1372.72
1327.14
1298.11
1289.34
1302.73
1338.57
1392.31
1455.62
1517.64
1570.32
1611.18
1641.41
1663.41
1679.53
1691.44
1700.71
1708.32
1714.84
1720.72
1726.67
1733.37
1741.27
1750.44
1760.92
1772.81
1786.11
1801.16
1818.05
1837.1
1858.74
1882.65
1909.32
1938.77
1971.04
2006.86
2045.66
2088.27
2134.26
2185.08
2238.51
2301.36
2363.61
2449.26
2524.36
2739.06
1264.42
1204.71
1161.32
1124.4
1091.75
1061.52
1032.25
1003.09
972.255
938.764
903.322
867.826
834.055
801.602
770.097
739.609
710.455
682.859
656.977
632.907
610.698
590.372
571.931
555.366
540.668
527.844
516.919
507.943
501.016
496.265
493.965
494.318
496.79
502.557
512.03
525.222
542.328
563.254
587.39
613.183
637.768
656.87
665.222
660.231
640.148
602.193
559.06
541.24
561.831
629.985
747.925
919.375
1139.06
1374.05
1544.12
1610.97
1623.28
1601.34
1560.43
1519.66
1485.32
1459.13
1439.78
1426.81
1418.84
1415
1413.66
1413.98
1416.84
1421.06
1426.34
1432.52
1439.34
1446.68
1454.41
1462.43
1470.65
1479
1487.4
1495.82
1504.21
1512.51
1520.71
1528.75
1536.61
1544.26
1551.67
1558.81
1565.65
1572.17
1578.33
1584.13
1589.53
1594.52
1599.08
1603.21
1606.88
1610.11
1612.87
1615.19
1617.06
1618.5
1619.53
1620.14
1620.36
1620.25
1619.79
1619.02
1617.99
1616.72
1615.24
1613.58
1611.76
1609.81
1607.74
1605.56
1603.25
1600.79
1598.16
1595.29
1592.09
1588.46
1584.21
1579.13
1572.94
1565.27
1555.75
1543.85
1528.97
1510.47
1487.87
1460.94
1429.97
1396.07
1361.44
1329.33
1303.78
1289.67
1288.78
1302.73
1330.52
1367.71
1408.77
1447.08
1478.44
1501.93
1518.59
1530
1537.61
1542.41
1545.44
1547.14
1547.87
1548
1547.98
1548.17
1548.86
1550.19
1552.12
1554.75
1558.11
1562.47
1567.88
1574.63
1583.1
1593.03
1604.79
1618.74
1634.52
1653.23
1674.05
1698.5
1724.84
1756.86
1789.57
1832.83
1873.56
1936.25
1990.71
2145.48
1604.5
1481.54
1393.76
1318.87
1252.63
1192.07
1134.4
1076.91
1019.76
965.413
915.462
868.79
824.592
783.042
744.306
708.458
675.496
645.358
617.938
593.101
570.699
550.581
532.6
516.624
502.546
490.28
479.776
471.015
464.022
458.865
455.691
454.796
455.825
459.111
465.637
475.313
488.433
505.141
525.262
547.994
571.533
592.761
607.31
610.959
602.615
579.356
552.963
550.421
587.92
673.109
806.69
985.637
1191.09
1369.79
1453.42
1470.5
1452.77
1410.77
1367.34
1330.82
1302.65
1282.25
1268.15
1259.33
1254.94
1253.37
1253.34
1255.43
1259.19
1263.95
1269.52
1275.74
1282.42
1289.47
1296.77
1304.26
1311.86
1319.53
1327.22
1334.88
1342.48
1350
1357.4
1364.66
1371.75
1378.66
1385.35
1391.82
1398.03
1403.98
1409.64
1414.99
1420.03
1424.75
1429.13
1433.16
1436.85
1440.19
1443.19
1445.85
1448.18
1450.2
1451.91
1453.32
1454.46
1455.35
1456
1456.45
1456.72
1456.82
1456.8
1456.66
1456.42
1456.1
1455.71
1455.24
1454.69
1454.04
1453.28
1452.36
1451.22
1449.79
1447.94
1445.58
1442.49
1438.48
1433.3
1426.67
1418.25
1407.68
1394.74
1379.41
1362.05
1343.3
1324.54
1307.89
1295.64
1290.61
1294.23
1306.79
1327.03
1351.08
1375.97
1398.41
1416.25
1429.14
1437.75
1443
1445.74
1446.49
1445.93
1444.27
1441.6
1438.33
1434.7
1430.95
1427.26
1423.73
1420.33
1417.15
1414.24
1411.84
1409.98
1408.92
1408.99
1409.81
1411.87
1415.59
1420.42
1427.5
1436.11
1447.51
1460.04
1477.66
1495.35
1522.16
1546.56
1588.41
1625.44
1731.17
2041.47
1808.67
1648.14
1514.17
1398.79
1294.41
1197.52
1109.77
1032.44
962.886
899.448
841.821
789.703
742.76
700.63
662.935
629.293
599.33
572.693
549.054
528.113
509.601
493.285
478.966
466.482
455.704
446.541
438.936
432.873
428.373
425.519
424.495
425.159
427.56
432.524
440.062
450.464
463.959
480.596
500.023
521.173
541.915
558.928
568.417
568.218
558.348
550.391
566.407
623.727
727.193
873.661
1050.35
1225.44
1322.69
1343.95
1333.94
1294.51
1250.44
1212.92
1183.99
1163.03
1148.7
1139.66
1135.22
1133.68
1133.76
1135.86
1139.46
1144.18
1149.64
1155.68
1162.16
1168.95
1175.97
1183.14
1190.41
1197.72
1205.05
1212.35
1219.6
1226.78
1233.86
1240.82
1247.65
1254.32
1260.83
1267.16
1273.28
1279.2
1284.9
1290.35
1295.57
1300.53
1305.23
1309.66
1313.82
1317.72
1321.36
1324.73
1327.85
1330.73
1333.38
1335.81
1338.02
1340.05
1341.9
1343.59
1345.14
1346.58
1347.92
1349.18
1350.37
1351.51
1352.62
1353.7
1354.74
1355.73
1356.67
1357.55
1358.34
1359.01
1359.52
1359.74
1359.7
1359.23
1358.26
1356.69
1354.35
1351.03
1346.58
1340.91
1334.02
1326.24
1317.98
1309.9
1302.91
1299.06
1299.69
1305.09
1315.27
1328.76
1343.76
1357.82
1369.95
1379.26
1385.63
1389.38
1391
1390.81
1389.27
1386.35
1382.47
1377.7
1372.19
1366.12
1359.67
1353.06
1346.3
1339.34
1332.26
1325.15
1318.22
1311.51
1305.22
1299.55
1294.46
1290.05
1286.76
1284.15
1283.27
1283.61
1285.41
1288.6
1295.43
1302.87
1316.47
1329.24
1354.06
1377.36
1445.43
2564.45
2161.25
1896.69
1682.1
1500.67
1346.31
1217.19
1107.37
1012.01
929.007
856.695
793.674
738.732
690.815
648.999
612.477
580.555
552.639
528.217
506.849
488.159
471.83
457.6
445.251
434.607
425.534
417.936
411.746
406.933
403.496
401.474
400.975
401.809
404.223
408.625
415.079
423.837
435.138
449.12
465.672
484.188
503.268
520.554
533.193
539.602
542.509
554.029
591.479
669.93
789.62
939.926
1097.02
1201.59
1234.39
1232.98
1199.84
1157.15
1119.6
1090.59
1069.6
1055.35
1046.63
1042.47
1041.18
1041.69
1044.19
1048.11
1053.09
1058.82
1065.08
1071.72
1078.64
1085.73
1092.95
1100.23
1107.53
1114.82
1122.07
1129.26
1136.38
1143.41
1150.33
1157.14
1163.81
1170.35
1176.74
1182.96
1189.02
1194.91
1200.6
1206.11
1211.42
1216.52
1221.42
1226.11
1230.59
1234.86
1238.94
1242.82
1246.52
1250.04
1253.4
1256.61
1259.67
1262.6
1265.41
1268.13
1270.76
1273.32
1275.84
1278.31
1280.77
1283.21
1285.64
1288.09
1290.55
1293.03
1295.51
1297.98
1300.43
1302.85
1305.2
1307.45
1309.57
1311.51
1313.21
1314.63
1315.75
1316.41
1316.57
1316.21
1315.31
1313.75
1311.99
1310.58
1310.22
1311.52
1315.02
1320.68
1328.12
1336.32
1344.45
1352
1358.09
1362.21
1364.56
1365.38
1364.76
1362.77
1359.43
1355.01
1349.61
1343.3
1336.13
1328.24
1319.79
1310.89
1301.6
1291.94
1282.02
1271.9
1261.74
1251.62
1241.65
1232
1222.7
1213.78
1205.58
1197.86
1191.3
1185.53
1181.33
1177.71
1176.93
1177.5
1180.3
1185.58
1197.08
1210.11
1250.47
3119.56
2487.24
2089.29
1781.76
1541.71
1352.01
1197.63
1070.26
964.357
875.746
801.194
738.155
684.603
638.924
599.811
566.178
537.142
512.055
490.343
471.524
455.199
441.049
428.818
418.295
409.317
401.765
395.558
390.642
386.991
384.588
383.429
383.558
384.82
387.58
391.881
397.846
405.659
415.517
427.569
441.813
457.918
475.021
491.664
506.315
519.072
535.588
566.141
627.432
725.312
852.933
988.721
1093.02
1138.31
1141.98
1118.28
1079.6
1043.14
1014.55
993.905
979.992
971.843
968.186
967.272
968.473
971.601
976.161
981.737
988.046
994.863
1002.02
1009.4
1016.92
1024.51
1032.13
1039.73
1047.28
1054.77
1062.19
1069.51
1076.74
1083.86
1090.86
1097.74
1104.5
1111.13
1117.62
1123.97
1130.18
1136.25
1142.16
1147.91
1153.5
1158.94
1164.21
1169.32
1174.27
1179.06
1183.71
1188.22
1192.6
1196.86
1201
1205.05
1209
1212.88
1216.7
1220.47
1224.2
1227.91
1231.61
1235.32
1239.04
1242.78
1246.55
1250.36
1254.22
1258.13
1262.09
1266.08
1270.11
1274.15
1278.21
1282.25
1286.28
1290.26
1294.18
1297.99
1301.56
1304.95
1308.15
1311.16
1313.99
1316.79
1319.67
1322.75
1326.19
1330.14
1334.73
1339.73
1344.68
1348.94
1352.35
1355.04
1357
1358.16
1358.16
1357.15
1354.77
1351.22
1346.56
1340.86
1334.14
1326.48
1317.96
1308.63
1298.6
1287.97
1276.79
1265.07
1252.96
1240.52
1227.88
1215.13
1202.39
1189.77
1177.33
1165.15
1153.47
1142.17
1131.68
1121.74
1113.08
1104.98
1098.65
1093.67
1090.29
1090.13
1092.06
1097.39
1118.3
3557.89
2684.59
2176.15
1807.83
1530.84
1316.75
1148.63
1014.84
907.127
819.484
747.474
687.76
637.807
595.808
560.418
530.482
505.026
483.201
464.366
448.032
433.825
421.468
410.765
401.537
393.661
387.057
381.679
377.5
374.506
372.694
372.081
372.629
374.354
377.356
381.653
387.331
394.51
403.331
413.927
426.355
440.508
456.066
472.677
490.659
511.839
541.389
592.612
675.074
783.169
899.155
997.637
1049.83
1057.3
1043.74
1012.04
978.282
950.802
930.803
917.387
909.936
906.876
906.398
908.388
912.324
917.716
924.153
931.319
938.983
946.971
955.15
963.428
971.732
980.01
988.226
996.353
1004.37
1012.28
1020.07
1027.73
1035.28
1042.69
1049.98
1057.15
1064.19
1071.1
1077.88
1084.54
1091.08
1097.5
1103.78
1109.95
1115.98
1121.89
1127.67
1133.33
1138.88
1144.31
1149.64
1154.88
1160.03
1165.1
1170.11
1175.07
1179.98
1184.85
1189.71
1194.55
1199.4
1204.26
1209.15
1214.06
1219.01
1224.01
1229.06
1234.15
1239.26
1244.4
1249.6
1254.84
1260.13
1265.45
1270.81
1276.19
1281.59
1286.99
1292.41
1297.86
1303.36
1308.88
1314.41
1319.93
1325.41
1330.87
1336.3
1341.73
1347
1351.84
1356.17
1359.69
1362.18
1363.34
1363.35
1362.78
1361.65
1360.12
1358.26
1355.5
1351.69
1346.84
1340.94
1334.02
1326.07
1317.1
1307.15
1296.32