/*--------------------------------*- C++ -*----------------------------------*\
| =========                 |                                                 |
| \\      /  F ield         | OpenFOAM: The Open Source CFD Toolbox           |
|  \\    /   O peration     | Version:  2112                                  |
|   \\  /    A nd           | Website:  www.openfoam.com                      |
|    \\/     M anipulation  |                                                 |
\*---------------------------------------------------------------------------*/
FoamFile
{
    version     2.0;
    format      ascii;
    arch        "LSB;label=32;scalar=64";
    class       surfaceScalarField;
    location    "0.07";
    object      phi_0;
}
// * * * * * * * * * * * * * * * * * * * * * * * * * * * * * * * * * * * * * //

dimensions      [0 3 -1 0 0 0 0];

oriented        oriented;

internalField   nonuniform List<scalar> 
24170
(
3.10672e-06
8.16862e-08
3.01236e-06
9.43596e-08
2.92775e-06
8.46116e-08
2.84839e-06
7.93604e-08
2.77327e-06
7.51134e-08
2.7028e-06
7.04793e-08
2.63718e-06
6.56179e-08
2.57632e-06
6.08583e-08
2.51989e-06
5.64259e-08
2.46771e-06
5.21871e-08
2.4194e-06
4.83099e-08
2.37487e-06
4.45265e-08
2.3338e-06
4.10675e-08
2.29584e-06
3.79658e-08
2.26148e-06
3.43609e-08
2.22844e-06
3.30324e-08
2.20176e-06
2.6687e-08
3.02258e-08
2.17153e-06
3.43441e-06
6.45288e-08
3.43996e-06
8.88053e-08
3.43902e-06
8.55484e-08
3.43433e-06
8.40553e-08
3.42608e-06
8.3365e-08
3.41511e-06
8.14439e-08
3.40224e-06
7.84877e-08
3.38805e-06
7.50552e-08
3.37286e-06
7.16145e-08
3.35702e-06
6.80233e-08
3.34072e-06
6.4612e-08
3.32423e-06
6.10169e-08
3.30758e-06
5.7716e-08
3.29115e-06
5.43999e-08
3.27445e-06
5.10595e-08
3.25881e-06
4.86652e-08
3.24115e-06
4.43528e-08
4.59645e-08
3.22541e-06
3.67378e-06
5.32679e-08
3.68272e-06
7.98596e-08
3.68727e-06
8.10053e-08
3.69032e-06
8.10006e-08
3.69234e-06
8.13491e-08
3.69337e-06
8.0407e-08
3.6936e-06
7.82569e-08
3.69314e-06
7.55181e-08
3.69211e-06
7.26477e-08
3.69051e-06
6.96202e-08
3.6885e-06
6.66285e-08
3.68599e-06
6.35244e-08
3.68317e-06
6.0533e-08
3.67996e-06
5.76129e-08
3.67634e-06
5.46772e-08
3.67269e-06
5.23118e-08
3.66739e-06
4.96612e-08
4.88291e-08
3.66452e-06
3.93399e-06
4.46647e-08
3.94224e-06
7.16079e-08
3.94727e-06
7.59777e-08
3.95089e-06
7.73798e-08
3.95396e-06
7.82776e-08
3.95658e-06
7.77933e-08
3.95876e-06
7.60734e-08
3.96056e-06
7.37171e-08
3.96207e-06
7.11407e-08
3.96328e-06
6.84038e-08
3.96428e-06
6.56311e-08
3.96501e-06
6.27914e-08
3.96555e-06
5.99938e-08
3.96586e-06
5.73052e-08
3.96591e-06
5.4628e-08
3.96582e-06
5.24056e-08
3.96532e-06
5.01628e-08
4.86427e-08
3.9655e-06
4.21428e-06
3.75118e-08
4.22181e-06
6.40808e-08
4.22688e-06
7.0903e-08
4.23069e-06
7.35755e-08
4.23403e-06
7.49299e-08
4.23705e-06
7.47733e-08
4.23974e-06
7.33878e-08
4.24213e-06
7.13308e-08
4.24428e-06
6.89835e-08
4.24623e-06
6.64543e-08
4.24801e-06
6.38508e-08
4.24961e-06
6.11934e-08
4.25105e-06
5.85582e-08
4.25233e-06
5.60226e-08
4.25341e-06
5.35446e-08
4.25443e-06
5.13833e-08
4.2553e-06
4.93002e-08
4.76855e-08
4.25625e-06
4.51533e-06
3.12702e-08
4.52221e-06
5.71968e-08
4.52724e-06
6.58712e-08
4.53122e-06
6.95983e-08
4.53477e-06
7.13787e-08
4.53803e-06
7.15206e-08
4.54098e-06
7.04377e-08
4.54366e-06
6.86498e-08
4.54613e-06
6.65144e-08
4.54841e-06
6.41687e-08
4.55054e-06
6.17224e-08
4.55251e-06
5.92213e-08
4.55434e-06
5.67334e-08
4.55603e-06
5.43269e-08
4.55758e-06
5.1998e-08
4.55907e-06
4.98909e-08
4.56046e-06
4.7908e-08
4.62316e-08
4.56192e-06
4.83824e-06
2.5751e-08
4.84456e-06
5.08766e-08
4.84957e-06
6.08641e-08
4.85373e-06
6.54381e-08
4.85748e-06
6.76226e-08
4.86094e-06
6.80602e-08
4.86411e-06
6.72662e-08
4.86703e-06
6.5735e-08
4.86974e-06
6.38074e-08
4.87226e-06
6.16403e-08
4.87464e-06
5.93503e-08
4.87686e-06
5.69982e-08
4.87894e-06
5.46501e-08
4.88091e-06
5.23641e-08
4.88275e-06
5.01566e-08
4.88453e-06
4.81079e-08
4.88626e-06
4.61797e-08
4.44412e-08
4.88805e-06
5.18436e-06
2.09753e-08
5.19023e-06
4.50081e-08
5.19526e-06
5.58338e-08
5.19961e-06
6.10831e-08
5.20358e-06
6.36502e-08
5.20726e-06
6.43847e-08
5.21065e-06
6.38729e-08
5.21379e-06
6.25932e-08
5.21673e-06
6.08746e-08
5.21948e-06
5.88887e-08
5.22207e-06
5.67586e-08
5.22451e-06
5.45554e-08
5.22682e-06
5.23448e-08
5.229e-06
5.01768e-08
5.23108e-06
4.8077e-08
5.2331e-06
4.6089e-08
5.23509e-06
4.41976e-08
4.24213e-08
5.23711e-06
5.5553e-06
1.70138e-08
5.56081e-06
3.94989e-08
5.5659e-06
5.07462e-08
5.57045e-06
5.65254e-08
5.57465e-06
5.94501e-08
5.57856e-06
6.048e-08
5.58219e-06
6.02458e-08
5.58556e-06
5.92156e-08
5.58873e-06
5.77095e-08
5.59171e-06
5.59102e-08
5.59452e-06
5.39461e-08
5.59718e-06
5.18955e-08
5.5997e-06
4.98235e-08
5.6021e-06
4.77753e-08
5.6044e-06
4.57786e-08
5.60663e-06
4.38574e-08
5.60882e-06
4.20057e-08
4.02214e-08
5.61102e-06
5.95293e-06
1.38626e-08
5.95811e-06
3.43147e-08
5.96324e-06
4.5614e-08
5.96799e-06
5.17741e-08
5.97243e-06
5.50171e-08
5.97658e-06
5.63328e-08
5.98045e-06
5.63701e-08
5.98408e-06
5.55878e-08
5.98749e-06
5.42984e-08
5.99071e-06
5.26924e-08
5.99375e-06
5.09015e-08
5.99664e-06
4.90095e-08
5.99938e-06
4.70806e-08
6.002e-06
4.51575e-08
6.00451e-06
4.32668e-08
6.00694e-06
4.14238e-08
6.00932e-06
3.9626e-08
3.78658e-08
6.01168e-06
6.3793e-06
1.13699e-08
6.38411e-06
2.95127e-08
6.38922e-06
4.05047e-08
6.39413e-06
4.68614e-08
6.39879e-06
5.03572e-08
6.40319e-06
5.19349e-08
6.40732e-06
5.22321e-08
6.41122e-06
5.1694e-08
6.41489e-06
5.06248e-08
6.41837e-06
4.92187e-08
6.42166e-06
4.76091e-08
6.42478e-06
4.58835e-08
6.42776e-06
4.41052e-08
6.4306e-06
4.23156e-08
6.43333e-06
4.054e-08
6.43596e-06
3.87908e-08
6.43852e-06
3.7068e-08
3.53658e-08
6.44102e-06
5.74258e-06
9.62772e-09
5.74629e-06
2.58026e-08
5.75053e-06
3.6263e-08
5.75477e-06
4.26233e-08
5.75886e-06
4.626e-08
5.76277e-06
4.80255e-08
5.76648e-06
4.85259e-08
5.76999e-06
4.81878e-08
5.7733e-06
4.73054e-08
5.77645e-06
4.60725e-08
5.77944e-06
4.46225e-08
5.78228e-06
4.30445e-08
5.78498e-06
4.14011e-08
5.78756e-06
3.97331e-08
5.79004e-06
3.80656e-08
5.79242e-06
3.64106e-08
5.79472e-06
3.477e-08
3.31448e-08
5.79694e-06
6.99982e-06
7.96482e-09
7.00369e-06
2.19288e-08
7.0084e-06
3.15544e-08
7.0133e-06
3.77207e-08
7.01815e-06
4.14112e-08
7.02284e-06
4.3337e-08
7.02733e-06
4.40414e-08
7.03159e-06
4.3919e-08
7.03565e-06
4.32476e-08
7.03951e-06
4.2216e-08
7.04318e-06
4.09555e-08
7.04666e-06
3.95551e-08
7.04999e-06
3.80764e-08
7.05316e-06
3.65601e-08
7.0562e-06
3.50311e-08
7.0591e-06
3.3503e-08
7.06189e-06
3.19808e-08
3.04721e-08
7.06457e-06
8.53241e-06
6.39897e-09
8.53636e-06
1.798e-08
8.54147e-06
2.64454e-08
8.54704e-06
3.2156e-08
8.5527e-06
3.57485e-08
8.55827e-06
3.77612e-08
8.56367e-06
3.86427e-08
8.56885e-06
3.87368e-08
8.57381e-06
3.8294e-08
8.57853e-06
3.7491e-08
8.58304e-06
3.64525e-08
8.58733e-06
3.52648e-08
8.59142e-06
3.39878e-08
8.59531e-06
3.26616e-08
8.59903e-06
3.13118e-08
8.60258e-06
2.99542e-08
8.60596e-06
2.85981e-08
2.72568e-08
8.60918e-06
1.04007e-05
4.9255e-09
1.04046e-05
1.40266e-08
1.04101e-05
2.10185e-08
1.04163e-05
2.59689e-08
1.04228e-05
2.92444e-08
1.04293e-05
3.12098e-08
1.04358e-05
3.21973e-08
1.0442e-05
3.24801e-08
1.0448e-05
3.22675e-08
1.04538e-05
3.1713e-08
1.04593e-05
3.09281e-08
1.04646e-05
2.9992e-08
1.04696e-05
2.89606e-08
1.04744e-05
2.78725e-08
1.0479e-05
2.67537e-08
1.04833e-05
2.5622e-08
1.04874e-05
2.44909e-08
2.3378e-08
1.04913e-05
1.26782e-05
3.51419e-09
1.26821e-05
1.00831e-08
1.26878e-05
1.53295e-08
1.26946e-05
1.9206e-08
1.27019e-05
2.18975e-08
1.27095e-05
2.36204e-08
1.27171e-05
2.45883e-08
1.27246e-05
2.49909e-08
1.27319e-05
2.49816e-08
1.2739e-05
2.46789e-08
1.27457e-05
2.41716e-08
1.27522e-05
2.35254e-08
1.27583e-05
2.27879e-08
1.27642e-05
2.19933e-08
1.27698e-05
2.11663e-08
1.27751e-05
2.03253e-08
1.27801e-05
1.94862e-08
1.86689e-08
1.27848e-05
1.54546e-05
2.10574e-09
1.54586e-05
6.06929e-09
1.54646e-05
9.33301e-09
1.5472e-05
1.18419e-08
1.54802e-05
1.36705e-08
1.54889e-05
1.49207e-08
1.54978e-05
1.57008e-08
1.55067e-05
1.61139e-08
1.55154e-05
1.6249e-08
1.55239e-05
1.61781e-08
1.55321e-05
1.5958e-08
1.554e-05
1.56325e-08
1.55475e-05
1.52349e-08
1.55547e-05
1.47907e-08
1.55616e-05
1.43192e-08
1.55681e-05
1.38366e-08
1.55742e-05
1.33578e-08
1.29019e-08
1.558e-05
1.88391e-05
5.98926e-10
1.88435e-05
1.75238e-09
1.885e-05
2.7695e-09
1.88582e-05
3.63418e-09
1.88676e-05
4.34457e-09
1.88776e-05
4.9066e-09
1.88879e-05
5.33368e-09
1.88984e-05
5.64366e-09
1.89088e-05
5.8553e-09
1.8919e-05
5.98661e-09
1.89289e-05
6.05407e-09
1.89385e-05
6.07237e-09
1.89476e-05
6.05431e-09
1.89564e-05
6.01104e-09
1.89648e-05
5.95249e-09
1.89727e-05
5.88825e-09
1.89803e-05
5.82905e-09
5.78949e-09
1.89874e-05
2.29651e-05
-1.20355e-09
2.29703e-05
-3.41186e-09
2.29781e-05
-5.05702e-09
2.29879e-05
-6.12619e-09
2.2999e-05
-6.7289e-09
2.30109e-05
-6.98056e-09
2.30232e-05
-6.97986e-09
2.30356e-05
-6.80794e-09
2.3048e-05
-6.52682e-09
2.30602e-05
-6.18066e-09
2.3072e-05
-5.79907e-09
2.30835e-05
-5.40097e-09
2.30945e-05
-4.99771e-09
2.31052e-05
-4.59531e-09
2.31153e-05
-4.19606e-09
2.3125e-05
-3.79921e-09
2.31342e-05
-3.40079e-09
-2.9919e-09
2.3143e-05
1.68123e-05
-2.77582e-09
1.68166e-05
-7.73486e-09
1.68229e-05
-1.13777e-08
1.68306e-05
-1.37637e-08
1.6839e-05
-1.51744e-08
1.68479e-05
-1.58659e-08
1.6857e-05
-1.60438e-08
1.6866e-05
-1.58712e-08
1.6875e-05
-1.54701e-08
1.68837e-05
-1.49263e-08
1.68922e-05
-1.42975e-08
1.69004e-05
-1.36217e-08
1.69084e-05
-1.29233e-08
1.6916e-05
-1.22173e-08
1.69233e-05
-1.15124e-08
1.69303e-05
-1.08128e-08
1.6937e-05
-1.01182e-08
-9.42297e-09
1.69435e-05
1.46363e-05
-4.54977e-09
1.46409e-05
-1.2329e-08
1.46473e-05
-1.77077e-08
1.46546e-05
-2.10499e-08
1.46623e-05
-2.29462e-08
1.46703e-05
-2.38304e-08
1.46783e-05
-2.40148e-08
1.46861e-05
-2.37353e-08
1.46938e-05
-2.31611e-08
1.47013e-05
-2.2406e-08
1.47085e-05
-2.15443e-08
1.47155e-05
-2.06245e-08
1.47223e-05
-1.96773e-08
1.47288e-05
-1.87225e-08
1.47351e-05
-1.7772e-08
1.47411e-05
-1.68324e-08
1.47469e-05
-1.59058e-08
-1.49888e-08
1.47524e-05
1.27423e-05
-6.7149e-09
1.27474e-05
-1.74006e-08
1.27538e-05
-2.41346e-08
1.27608e-05
-2.80067e-08
1.27679e-05
-3.00715e-08
1.2775e-05
-3.09388e-08
1.2782e-05
-3.09995e-08
1.27888e-05
-3.05416e-08
1.27954e-05
-2.97648e-08
1.28018e-05
-2.87988e-08
1.2808e-05
-2.77238e-08
1.28139e-05
-2.65917e-08
1.28197e-05
-2.5435e-08
1.28252e-05
-2.42751e-08
1.28306e-05
-2.3125e-08
1.28357e-05
-2.19928e-08
1.28407e-05
-2.08815e-08
-1.97891e-08
1.28455e-05
1.10937e-05
-9.46272e-09
1.10993e-05
-2.30411e-08
1.11058e-05
-3.06089e-08
1.11123e-05
-3.45607e-08
1.11188e-05
-3.65325e-08
1.11251e-05
-3.72402e-08
1.11312e-05
-3.70976e-08
1.11371e-05
-3.64225e-08
1.11428e-05
-3.54338e-08
1.11482e-05
-3.42667e-08
1.11535e-05
-3.29999e-08
1.11586e-05
-3.16836e-08
1.11635e-05
-3.03493e-08
1.11682e-05
-2.90185e-08
1.11728e-05
-2.77038e-08
1.11772e-05
-2.64141e-08
1.11815e-05
-2.51529e-08
-2.39186e-08
1.11857e-05
9.65873e-06
-1.29732e-08
9.66496e-06
-2.92752e-08
9.67138e-06
-3.7034e-08
9.67746e-06
-4.0639e-08
9.68326e-06
-4.23334e-08
9.68882e-06
-4.28009e-08
9.69414e-06
-4.24122e-08
9.69922e-06
-4.15005e-08
9.70408e-06
-4.02999e-08
9.70876e-06
-3.8945e-08
9.71327e-06
-3.75064e-08
9.71761e-06
-3.60295e-08
9.72181e-06
-3.45424e-08
9.72585e-06
-3.30666e-08
9.72976e-06
-3.16135e-08
9.73354e-06
-3.01924e-08
9.7372e-06
-2.88071e-08
-2.74558e-08
9.74073e-06
8.40981e-06
-1.74287e-08
8.41666e-06
-3.61261e-08
8.42295e-06
-4.33258e-08
8.42851e-06
-4.61962e-08
8.43367e-06
-4.74998e-08
8.43857e-06
-4.76918e-08
8.44319e-06
-4.70354e-08
8.44756e-06
-4.58755e-08
8.45173e-06
-4.44664e-08
8.45572e-06
-4.29359e-08
8.45956e-06
-4.13425e-08
8.46325e-06
-3.97226e-08
8.46681e-06
-3.81013e-08
8.47024e-06
-3.6499e-08
8.47355e-06
-3.49263e-08
8.47675e-06
-3.33927e-08
8.47985e-06
-3.19015e-08
-3.04529e-08
8.48285e-06
7.32298e-06
-2.31216e-08
7.33048e-06
-4.3626e-08
7.33657e-06
-4.94159e-08
7.34158e-06
-5.12097e-08
7.34615e-06
-5.20651e-08
7.35042e-06
-5.19694e-08
7.35442e-06
-5.10291e-08
7.35815e-06
-4.96093e-08
7.36168e-06
-4.79927e-08
7.36504e-06
-4.62934e-08
7.36825e-06
-4.45551e-08
7.37133e-06
-4.28019e-08
7.37428e-06
-4.10562e-08
7.37712e-06
-3.93383e-08
7.37985e-06
-3.76565e-08
7.38248e-06
-3.60237e-08
7.38502e-06
-3.44354e-08
-3.29022e-08
7.38747e-06
6.37742e-06
-3.04736e-08
6.38574e-06
-5.19482e-08
6.39154e-06
-5.5212e-08
6.39601e-06
-5.56814e-08
6.4e-06
-5.60603e-08
6.40367e-06
-5.56328e-08
6.407e-06
-5.43653e-08
6.41005e-06
-5.26598e-08
6.41288e-06
-5.082e-08
6.41553e-06
-4.89398e-08
6.41802e-06
-4.70451e-08
6.42037e-06
-4.51512e-08
6.42258e-06
-4.32732e-08
6.42468e-06
-4.1437e-08
6.42666e-06
-3.96397e-08
6.42855e-06
-3.79132e-08
6.43035e-06
-3.62327e-08
-3.46149e-08
6.43206e-06
5.55545e-06
-4.04575e-08
5.56474e-06
-6.1235e-08
5.56997e-06
-6.04424e-08
5.57384e-06
-5.95572e-08
5.57708e-06
-5.9296e-08
5.57974e-06
-5.82936e-08
5.5819e-06
-5.65278e-08
5.58367e-06
-5.44272e-08
5.58511e-06
-5.22646e-08
5.58629e-06
-5.01127e-08
5.58722e-06
-4.79754e-08
5.58794e-06
-4.58745e-08
5.58847e-06
-4.38037e-08
5.58884e-06
-4.18061e-08
5.58905e-06
-3.9849e-08
5.58914e-06
-3.80045e-08
5.5891e-06
-3.61932e-08
-3.45641e-08
5.58905e-06
4.84337e-06
-5.62154e-08
4.85126e-06
-6.91253e-08
4.85376e-06
-6.29495e-08
4.85411e-06
-5.99051e-08
4.85247e-06
-5.76542e-08
4.84919e-06
-5.50112e-08
4.84471e-06
-5.20479e-08
4.83934e-06
-4.90635e-08
4.83329e-06
-4.62129e-08
4.8267e-06
-4.35237e-08
4.8197e-06
-4.09707e-08
4.81239e-06
-3.85703e-08
4.80487e-06
-3.62815e-08
4.79721e-06
-3.41498e-08
4.78947e-06
-3.21077e-08
4.78171e-06
-3.02422e-08
4.77397e-06
-2.84547e-08
-2.68791e-08
4.76629e-06
4.14646e-06
4.07734e-06
4.01439e-06
3.95448e-06
3.89683e-06
3.84182e-06
3.78977e-06
3.7407e-06
3.69449e-06
3.65097e-06
3.61e-06
3.57143e-06
3.53515e-06
3.501e-06
3.46889e-06
3.43865e-06
3.41019e-06
3.38331e-06
-8.90457e-08
8.90457e-08
-1.8381e-07
9.47638e-08
-2.43114e-07
5.93046e-08
-2.54518e-07
1.14033e-08
-2.18316e-07
-3.62012e-08
-1.30854e-07
-8.74627e-08
6.65571e-09
-1.37509e-07
1.84181e-07
-1.77525e-07
3.894e-07
-2.05219e-07
6.08555e-07
-2.19156e-07
8.29448e-07
-2.20892e-07
1.04226e-06
-2.1281e-07
1.23946e-06
-1.97204e-07
1.4161e-06
-1.76635e-07
1.56881e-06
-1.52714e-07
1.69525e-06
-1.26437e-07
1.79418e-06
-9.89326e-08
1.86504e-06
-7.08643e-08
1.90758e-06
-4.2532e-08
1.92192e-06
-1.4343e-08
1.90723e-06
1.46942e-08
1.8634e-06
4.38266e-08
1.79166e-06
7.17374e-08
1.69365e-06
9.80076e-08
1.5718e-06
1.21853e-07
1.42942e-06
1.42382e-07
1.2711e-06
1.58323e-07
1.10268e-06
1.68417e-07
9.31328e-07
1.71352e-07
7.65512e-07
1.65815e-07
6.13239e-07
1.52274e-07
4.80879e-07
1.3236e-07
3.72501e-07
1.08378e-07
2.90511e-07
8.19905e-08
2.37138e-07
5.3373e-08
2.11179e-07
2.59585e-08
2.07498e-07
3.68095e-09
2.23519e-07
-1.60208e-08
2.56884e-07
-3.33645e-08
2.89658e-07
-3.27739e-08
3.19324e-07
-2.9666e-08
3.82711e-07
-6.33873e-08
4.0369e-07
-2.09791e-08
3.10454e-07
9.32358e-08
8.9962e-08
2.20492e-07
-4.15883e-07
5.05845e-07
-1.05246e-06
6.36577e-07
-1.65648e-06
6.0402e-07
-2.21338e-06
5.56899e-07
-2.71056e-06
4.97179e-07
-3.14773e-06
4.3717e-07
-3.52774e-06
3.80008e-07
-3.85634e-06
3.28605e-07
-4.13995e-06
2.83611e-07
-4.3851e-06
2.45144e-07
-4.59769e-06
2.12593e-07
-4.78296e-06
1.85271e-07
-4.94528e-06
1.62322e-07
-5.08832e-06
1.43036e-07
-5.21504e-06
1.26721e-07
-5.32788e-06
1.12845e-07
-5.42882e-06
1.00939e-07
-5.51947e-06
9.0644e-08
-5.60112e-06
8.16578e-08
-5.67487e-06
7.3745e-08
-5.74158e-06
6.67101e-08
-5.80197e-06
6.03956e-08
-5.85665e-06
5.46708e-08
-5.90607e-06
4.9428e-08
-5.95065e-06
4.45781e-08
-5.9907e-06
4.00469e-08
-6.02647e-06
3.57707e-08
-6.05816e-06
3.16931e-08
-6.08593e-06
2.77648e-08
-6.10987e-06
2.39428e-08
-6.13006e-06
2.0194e-08
-6.14656e-06
1.64915e-08
-6.15937e-06
1.28124e-08
-6.16851e-06
9.14322e-09
-6.17398e-06
5.46786e-09
-6.17551e-06
1.52716e-09
-6.17355e-06
-1.96022e-09
-6.16811e-06
-5.43799e-09
-6.15906e-06
-9.05256e-09
-6.14634e-06
-1.2716e-08
-6.12987e-06
-1.64681e-08
-6.10955e-06
-2.03193e-08
-6.08526e-06
-2.42892e-08
-6.05687e-06
-2.83929e-08
-6.02424e-06
-3.26345e-08
-5.98721e-06
-3.7028e-08
-5.94561e-06
-4.15961e-08
-5.89926e-06
-4.63551e-08
-5.84794e-06
-5.13183e-08
-5.79143e-06
-5.65088e-08
-5.72948e-06
-6.19473e-08
-5.66183e-06
-6.765e-08
-5.5882e-06
-7.36336e-08
-5.50829e-06
-7.99127e-08
-5.42179e-06
-8.64986e-08
-5.32839e-06
-9.33933e-08
-5.2278e-06
-1.00592e-07
-5.11969e-06
-1.08107e-07
-5.00373e-06
-1.1596e-07
-4.87957e-06
-1.24167e-07
-4.74684e-06
-1.32729e-07
-4.6052e-06
-1.41635e-07
-4.45434e-06
-1.50865e-07
-4.29395e-06
-1.60386e-07
-4.12385e-06
-1.70104e-07
-3.94398e-06
-1.79872e-07
-3.75427e-06
-1.89705e-07
-3.55463e-06
-1.99636e-07
-3.34508e-06
-2.09555e-07
-3.12571e-06
-2.19368e-07
-2.89577e-06
-2.29938e-07
-2.65489e-06
-2.40886e-07
-2.40356e-06
-2.51328e-07
-2.14198e-06
-2.61582e-07
-1.87067e-06
-2.71307e-07
-1.59032e-06
-2.80347e-07
-1.30137e-06
-2.88955e-07
-1.00422e-06
-2.97149e-07
-6.99475e-07
-3.04743e-07
-3.87916e-07
-3.11559e-07
-7.04957e-08
-3.1742e-07
2.51287e-07
-3.21783e-07
5.76276e-07
-3.24989e-07
9.02872e-07
-3.26596e-07
1.22944e-06
-3.26567e-07
1.55432e-06
-3.24879e-07
1.87531e-06
-3.20989e-07
2.18905e-06
-3.13738e-07
2.49406e-06
-3.05011e-07
2.78976e-06
-2.95703e-07
3.0743e-06
-2.84537e-07
3.34557e-06
-2.71273e-07
3.60137e-06
-2.55798e-07
3.83984e-06
-2.38477e-07
4.05964e-06
-2.19801e-07
4.25973e-06
-2.00091e-07
4.4396e-06
-1.79869e-07
4.59896e-06
-1.59352e-07
4.73747e-06
-1.38515e-07
4.85499e-06
-1.1752e-07
4.95157e-06
-9.65816e-08
5.02746e-06
-7.58814e-08
5.08329e-06
-5.58366e-08
5.1196e-06
-3.6311e-08
5.13744e-06
-1.78404e-08
5.13784e-06
-4.00948e-10
5.11962e-06
1.82252e-08
5.08518e-06
3.44366e-08
5.03589e-06
4.92962e-08
4.97328e-06
6.26064e-08
4.89866e-06
7.46152e-08
4.81288e-06
8.57833e-08
4.71625e-06
9.6633e-08
4.60851e-06
1.07737e-07
4.48873e-06
1.19778e-07
4.35561e-06
1.33124e-07
4.20823e-06
1.47378e-07
4.04687e-06
1.6136e-07
3.87381e-06
1.73062e-07
3.69487e-06
1.78943e-07
3.51934e-06
1.75527e-07
3.35687e-06
1.62474e-07
3.21441e-06
1.4246e-07
3.09555e-06
1.18853e-07
3.00084e-06
9.47088e-08
2.9274e-06
7.34417e-08
2.8715e-06
5.5905e-08
2.82726e-06
4.42378e-08
2.7916e-06
3.56584e-08
2.75711e-06
3.44867e-08
2.72351e-06
3.3602e-08
2.67525e-06
4.82658e-08
2.61853e-06
5.67177e-08
2.50117e-06
1.17362e-07
1.65994e-07
2.33517e-06
5.29339e-08
3.61118e-08
9.50781e-08
5.26197e-08
1.47281e-07
7.10144e-09
2.37797e-07
-7.91119e-08
3.73806e-07
-1.72211e-07
5.47489e-07
-2.61146e-07
7.4411e-07
-3.34131e-07
9.50649e-07
-3.84063e-07
1.15506e-06
-4.09628e-07
1.34909e-06
-4.13188e-07
1.52701e-06
-3.98814e-07
1.68526e-06
-3.71054e-07
1.82192e-06
-3.33872e-07
1.93611e-06
-2.90822e-07
2.02815e-06
-2.44749e-07
2.09873e-06
-1.97019e-07
2.14835e-06
-1.48554e-07
2.17751e-06
-1.00026e-07
2.18696e-06
-5.19796e-08
2.17813e-06
-5.50936e-09
2.15084e-06
4.19821e-08
2.10734e-06
8.73299e-08
2.048e-06
1.3107e-07
1.97342e-06
1.72595e-07
1.88428e-06
2.1099e-07
1.78165e-06
2.45009e-07
1.66691e-06
2.73059e-07
1.54208e-06
2.93248e-07
1.40973e-06
3.03703e-07
1.27283e-06
3.0272e-07
1.13536e-06
2.89738e-07
1.00219e-06
2.65531e-07
8.78255e-07
2.32315e-07
7.67766e-07
1.92479e-07
6.72744e-07
1.48395e-07
5.94641e-07
1.04062e-07
5.36043e-07
6.22783e-08
4.96281e-07
2.37414e-08
4.69845e-07
-6.92823e-09
4.50832e-07
-1.37611e-08
3.81016e-07
4.01499e-08
1.51625e-07
1.66004e-07
-2.87384e-07
4.18029e-07
-9.43516e-07
7.49368e-07
-1.65518e-06
9.32152e-07
-2.17932e-06
1.02999e-06
-2.59234e-06
1.0496e-06
-2.97217e-06
9.8385e-07
-3.31131e-06
8.96043e-07
-3.6094e-06
7.95269e-07
-3.86993e-06
6.97694e-07
-4.09789e-06
6.07966e-07
-4.29804e-06
5.28759e-07
-4.47478e-06
4.60346e-07
-4.63162e-06
4.01984e-07
-4.7715e-06
3.52476e-07
-4.89673e-06
3.10507e-07
-5.00927e-06
2.74859e-07
-5.11068e-06
2.44446e-07
-5.2023e-06
2.18344e-07
-5.28525e-06
1.9579e-07
-5.36046e-06
1.76153e-07
-5.42874e-06
1.58924e-07
-5.49077e-06
1.43684e-07
-5.54712e-06
1.30092e-07
-5.59827e-06
1.17866e-07
-5.64465e-06
1.06772e-07
-5.68659e-06
9.66125e-08
-5.72438e-06
8.72202e-08
-5.75826e-06
7.84559e-08
-5.78842e-06
7.02027e-08
-5.815e-06
6.23594e-08
-5.83815e-06
5.48365e-08
-5.85794e-06
4.75562e-08
-5.87445e-06
4.0454e-08
-5.88773e-06
3.34774e-08
-5.89783e-06
2.65848e-08
-5.90476e-06
1.97428e-08
-5.90854e-06
1.29217e-08
-5.90915e-06
6.08365e-09
-5.90681e-06
-8.18655e-10
-5.90098e-06
-7.78387e-09
-5.8916e-06
-1.48163e-08
-5.87865e-06
-2.20113e-08
-5.86199e-06
-2.93739e-08
-5.84153e-06
-3.69257e-08
-5.81716e-06
-4.46885e-08
-5.78876e-06
-5.26878e-08
-5.75621e-06
-6.09474e-08
-5.71936e-06
-6.94848e-08
-5.67806e-06
-7.83218e-08
-5.63217e-06
-8.74925e-08
-5.58149e-06
-9.70356e-08
-5.52582e-06
-1.06987e-07
-5.46494e-06
-1.17384e-07
-5.39862e-06
-1.28268e-07
-5.3266e-06
-1.39674e-07
-5.2486e-06
-1.51632e-07
-5.16434e-06
-1.64173e-07
-5.07352e-06
-1.77318e-07
-4.97585e-06
-1.91068e-07
-4.87103e-06
-2.05403e-07
-4.75881e-06
-2.20333e-07
-4.63886e-06
-2.35908e-07
-4.51086e-06
-2.52165e-07
-4.37448e-06
-2.69114e-07
-4.22937e-06
-2.86747e-07
-4.07519e-06
-3.05042e-07
-3.91161e-06
-3.23961e-07
-3.73836e-06
-3.43359e-07
-3.55529e-06
-3.62937e-07
-3.36233e-06
-3.82673e-07
-3.15925e-06
-4.02712e-07
-2.9458e-06
-4.23008e-07
-2.72168e-06
-4.43484e-07
-2.48734e-06
-4.64278e-07
-2.24313e-06
-4.85097e-07
-1.98883e-06
-5.0563e-07
-1.72453e-06
-5.2588e-07
-1.4505e-06
-5.45341e-07
-1.16732e-06
-5.63523e-07
-8.75515e-07
-5.8076e-07
-5.75576e-07
-5.97089e-07
-2.68143e-07
-6.12177e-07
4.60134e-08
-6.25715e-07
3.65973e-07
-6.37379e-07
6.90876e-07
-6.46686e-07
1.01934e-06
-6.53448e-07
1.34999e-06
-6.57248e-07
1.68123e-06
-6.57813e-07
2.01122e-06
-6.54869e-07
2.33806e-06
-6.47823e-07
2.66039e-06
-6.3607e-07
2.97577e-06
-6.20394e-07
3.28151e-06
-6.01437e-07
3.57596e-06
-5.78996e-07
3.85723e-06
-5.52536e-07
4.12331e-06
-5.21883e-07
4.37269e-06
-4.87851e-07
4.60414e-06
-4.51258e-07
4.81673e-06
-4.12675e-07
5.00992e-06
-3.73063e-07
5.18326e-06
-3.32689e-07
5.33623e-06
-2.91486e-07
5.46857e-06
-2.4986e-07
5.58027e-06
-2.08286e-07
5.67157e-06
-1.67182e-07
5.74286e-06
-1.27121e-07
5.79488e-06
-8.83318e-08
5.82817e-06
-5.11265e-08
5.84353e-06
-1.57685e-08
5.84376e-06
1.80001e-08
5.829e-06
4.91929e-08
5.80047e-06
7.78261e-08
5.75939e-06
1.03687e-07
5.70714e-06
1.26868e-07
5.64514e-06
1.47782e-07
5.57485e-06
1.66918e-07
5.49766e-06
1.84928e-07
5.41465e-06
2.0279e-07
5.32657e-06
2.21207e-07
5.23369e-06
2.40251e-07
5.13565e-06
2.59407e-07
5.03189e-06
2.76814e-07
4.92187e-06
2.88964e-07
4.80503e-06
2.92373e-07
4.68204e-06
2.85458e-07
4.55581e-06
2.68691e-07
4.42972e-06
2.44949e-07
4.30704e-06
2.17382e-07
4.19068e-06
1.89808e-07
4.08315e-06
1.63435e-07
3.98542e-06
1.4197e-07
3.89806e-06
1.23014e-07
3.81906e-06
1.13489e-07
3.74742e-06
1.05237e-07
3.67798e-06
1.17709e-07
3.60746e-06
1.27238e-07
3.52599e-06
1.98833e-07
2.59311e-07
3.43267e-06
4.01234e-08
-4.01161e-09
1.33338e-07
-4.05946e-08
3.09417e-07
-1.68978e-07
5.387e-07
-3.08395e-07
7.90569e-07
-4.2408e-07
1.03494e-06
-5.05515e-07
1.25325e-06
-5.52439e-07
1.43808e-06
-5.68895e-07
1.5891e-06
-5.60654e-07
1.70996e-06
-5.34048e-07
1.80585e-06
-4.94699e-07
1.88177e-06
-4.46975e-07
1.94191e-06
-3.94008e-07
1.98898e-06
-3.37892e-07
2.02431e-06
-2.80081e-07
2.04863e-06
-2.21346e-07
2.06221e-06
-1.62127e-07
2.06494e-06
-1.02762e-07
2.05652e-06
-4.35597e-08
2.03573e-06
1.52855e-08
2.00406e-06
7.3647e-08
1.96096e-06
1.30438e-07
1.90686e-06
1.8517e-07
1.84241e-06
2.37036e-07
1.76848e-06
2.84925e-07
1.68605e-06
3.27442e-07
1.59614e-06
3.62967e-07
1.49971e-06
3.89676e-07
1.39762e-06
4.05796e-07
1.29053e-06
4.09811e-07
1.17938e-06
4.00888e-07
1.06562e-06
3.79289e-07
9.51885e-07
3.46049e-07
8.41392e-07
3.02972e-07
7.37278e-07
2.52509e-07
6.44857e-07
1.96483e-07
5.6789e-07
1.39245e-07
4.93914e-07
9.77176e-08
3.77894e-07
1.09092e-07
1.46327e-07
2.17806e-07
-2.76659e-07
4.63136e-07
-9.09735e-07
7.9908e-07
-1.57558e-06
1.08387e-06
-2.09761e-06
1.2714e-06
-2.50882e-06
1.34336e-06
-2.8157e-06
1.33688e-06
-3.04243e-06
1.27632e-06
-3.23807e-06
1.1795e-06
-3.41412e-06
1.07209e-06
-3.57954e-06
9.60695e-07
-3.73666e-06
8.54813e-07
-3.88617e-06
7.57471e-07
-4.02785e-06
6.70438e-07
-4.16135e-06
5.93843e-07
-4.28637e-06
5.27009e-07
-4.40285e-06
4.68952e-07
-4.5109e-06
4.18556e-07
-4.6108e-06
3.74761e-07
-4.70294e-06
3.36583e-07
-4.78776e-06
3.03165e-07
-4.86573e-06
2.73767e-07
-4.93734e-06
2.4776e-07
-5.00303e-06
2.24616e-07
-5.06324e-06
2.03886e-07
-5.11834e-06
1.85196e-07
-5.1687e-06
1.68224e-07
-5.21462e-06
1.52694e-07
-5.25637e-06
1.38366e-07
-5.29418e-06
1.25032e-07
-5.32824e-06
1.1251e-07
-5.35869e-06
1.00652e-07
-5.38565e-06
8.93251e-08
-5.40923e-06
7.84106e-08
-5.42947e-06
6.78035e-08
-5.44644e-06
5.74159e-08
-5.46013e-06
4.71753e-08
-5.47057e-06
3.70227e-08
-5.47774e-06
2.69101e-08
-5.48161e-06
1.67951e-08
-5.48215e-06
6.62555e-09
-5.47934e-06
-3.6359e-09
-5.47309e-06
-1.40338e-08
-5.4633e-06
-2.46057e-08
-5.44991e-06
-3.53952e-08
-5.43285e-06
-4.64398e-08
-5.412e-06
-5.77733e-08
-5.38726e-06
-6.94308e-08
-5.3585e-06
-8.14476e-08
-5.32559e-06
-9.38573e-08
-5.28839e-06
-1.06685e-07
-5.24676e-06
-1.19953e-07
-5.20054e-06
-1.33707e-07
-5.14957e-06
-1.4801e-07
-5.09364e-06
-1.62918e-07
-5.03254e-06
-1.78485e-07
-4.96604e-06
-1.94767e-07
-4.89389e-06
-2.1182e-07
-4.81583e-06
-2.29693e-07
-4.73157e-06
-2.48433e-07
-4.64081e-06
-2.68083e-07
-4.54322e-06
-2.88653e-07
-4.43853e-06
-3.10097e-07
-4.32648e-06
-3.32381e-07
-4.20679e-06
-3.55592e-07
-4.07916e-06
-3.79803e-07
-3.94325e-06
-4.0502e-07
-3.79877e-06
-4.31229e-07
-3.6454e-06
-4.58413e-07
-3.48281e-06
-4.86546e-07
-3.31065e-06
-5.1552e-07
-3.1287e-06
-5.44891e-07
-2.93691e-06
-5.74459e-07
-2.73515e-06
-6.04478e-07
-2.52322e-06
-6.34939e-07
-2.30105e-06
-6.65652e-07
-2.06888e-06
-6.96453e-07
-1.82691e-06
-7.27062e-07
-1.5753e-06
-7.57237e-07
-1.31429e-06
-7.86898e-07
-1.04393e-06
-8.15692e-07
-7.64383e-07
-8.43074e-07
-4.76083e-07
-8.6906e-07
-1.79621e-07
-8.93551e-07
1.24306e-07
-9.16103e-07
4.34918e-07
-9.36328e-07
7.51324e-07
-9.53786e-07
1.07258e-06
-9.6794e-07
1.39747e-06
-9.78344e-07
1.72467e-06
-9.84441e-07
2.05258e-06
-9.85723e-07
2.37943e-06
-9.81722e-07
2.70343e-06
-9.71822e-07
3.02286e-06
-9.55498e-07
3.33548e-06
-9.33015e-07
3.63871e-06
-9.04666e-07
3.93018e-06
-8.70465e-07
4.20796e-06
-8.30316e-07
4.47067e-06
-7.84592e-07
4.71722e-06
-7.34408e-07
4.94659e-06
-6.80626e-07
5.15782e-06
-6.23906e-07
5.35034e-06
-5.65579e-07
5.52344e-06
-5.05786e-07
5.67651e-06
-4.44562e-07
5.80939e-06
-3.8274e-07
5.92213e-06
-3.21024e-07
6.01496e-06
-2.60009e-07
6.08826e-06
-2.00425e-07
6.14256e-06
-1.42633e-07
6.17832e-06
-8.68851e-08
6.19628e-06
-3.37255e-08
6.19781e-06
1.64668e-08
6.18389e-06
6.31172e-08
6.15584e-06
1.05873e-07
6.11509e-06
1.44434e-07
6.06314e-06
1.78819e-07
6.00157e-06
2.0935e-07
5.9321e-06
2.36388e-07
5.8565e-06
2.60528e-07
5.77648e-06
2.82811e-07
5.69362e-06
3.04067e-07
5.60917e-06
3.24705e-07
5.52384e-06
3.44735e-07
5.43773e-06
3.62928e-07
5.34994e-06
3.76754e-07
5.25877e-06
3.83546e-07
5.16251e-06
3.81712e-07
5.06046e-06
3.70739e-07
4.95322e-06
3.5219e-07
4.84257e-06
3.28032e-07
4.73088e-06
3.01501e-07
4.62078e-06
2.73537e-07
4.51485e-06
2.479e-07
4.41499e-06
2.22868e-07
4.32225e-06
2.06229e-07
4.23616e-06
1.91333e-07
4.15628e-06
1.97588e-07
4.07846e-06
2.05056e-07
4.0082e-06
2.69091e-07
3.31285e-07
3.93623e-06
6.3754e-09
-1.0387e-08
2.09923e-07
-2.44143e-07
5.0602e-07
-4.65074e-07
7.98361e-07
-6.00737e-07
1.04289e-06
-6.68608e-07
1.22871e-06
-6.91338e-07
1.36111e-06
-6.84839e-07
1.452e-06
-6.59778e-07
1.51456e-06
-6.2322e-07
1.55975e-06
-5.79241e-07
1.59508e-06
-5.30026e-07
1.62485e-06
-4.76747e-07
1.65097e-06
-4.20127e-07
1.6738e-06
-3.60719e-07
1.69274e-06
-2.99023e-07
1.70686e-06
-2.35468e-07
1.71518e-06
-1.70444e-07
1.71677e-06
-1.04355e-07
1.71081e-06
-3.76008e-08
1.69671e-06
2.93936e-08
1.67425e-06
9.61003e-08
1.64292e-06
1.61768e-07
1.60261e-06
2.25477e-07
1.55355e-06
2.86098e-07
1.49623e-06
3.42249e-07
1.43135e-06
3.92323e-07
1.35974e-06
4.3457e-07
1.2822e-06
4.67221e-07
1.19934e-06
4.88657e-07
1.11143e-06
4.97717e-07
1.0185e-06
4.93819e-07
9.21135e-07
4.76656e-07
8.21041e-07
4.46143e-07
7.21107e-07
4.02906e-07
6.25287e-07
3.48329e-07
5.31414e-07
2.90356e-07
4.13286e-07
2.57373e-07
2.17919e-07
2.93085e-07
-1.2012e-07
4.47131e-07
-6.31552e-07
7.29238e-07
-1.23557e-06
1.06715e-06
-1.79118e-06
1.35469e-06
-2.22967e-06
1.52236e-06
-2.53451e-06
1.57624e-06
-2.74801e-06
1.55686e-06
-2.90549e-06
1.49436e-06
-3.03135e-06
1.40218e-06
-3.14618e-06
1.29432e-06
-3.25687e-06
1.18278e-06
-3.3684e-06
1.07223e-06
-3.48116e-06
9.67573e-07
-3.59429e-06
8.70597e-07
-3.70625e-06
7.82396e-07
-3.81551e-06
7.03105e-07
-3.92083e-06
6.32335e-07
-4.02133e-06
5.6945e-07
-4.11645e-06
5.13674e-07
-4.20589e-06
4.64206e-07
-4.28958e-06
4.20267e-07
-4.36756e-06
3.8115e-07
-4.44001e-06
3.46212e-07
-4.50713e-06
3.14886e-07
-4.56919e-06
2.86673e-07
-4.62644e-06
2.61139e-07
-4.67915e-06
2.37906e-07
-4.72757e-06
2.16639e-07
-4.77192e-06
1.97043e-07
-4.8124e-06
1.78851e-07
-4.84919e-06
1.61824e-07
-4.88243e-06
1.45749e-07
-4.91223e-06
1.30449e-07
-4.93868e-06
1.1577e-07
-4.96183e-06
1.01567e-07
-4.98174e-06
8.77088e-08
-4.99841e-06
7.40862e-08
-5.01184e-06
6.06095e-08
-5.02202e-06
4.72051e-08
-5.02893e-06
3.38156e-08
-5.03253e-06
2.03963e-08
-5.0328e-06
6.89306e-09
-5.02969e-06
-6.74752e-09
-5.02314e-06
-2.05769e-08
-5.0131e-06
-3.46499e-08
-4.99948e-06
-4.90186e-08
-4.98218e-06
-6.37314e-08
-4.96112e-06
-7.88344e-08
-4.93618e-06
-9.43763e-08
-4.90722e-06
-1.10407e-07
-4.8741e-06
-1.26975e-07
-4.83667e-06
-1.44116e-07
-4.79478e-06
-1.6184e-07
-4.74829e-06
-1.80196e-07
-4.69703e-06
-1.99274e-07
-4.64079e-06
-2.19155e-07
-4.57937e-06
-2.39904e-07
-4.51255e-06
-2.61588e-07
-4.4401e-06
-2.84275e-07
-4.36176e-06
-3.0803e-07
-4.27727e-06
-3.32922e-07
-4.18634e-06
-3.59017e-07
-4.08862e-06
-3.86364e-07
-3.98379e-06
-4.14934e-07
-3.87159e-06
-4.44573e-07
-3.75178e-06
-4.75409e-07
-3.624e-06
-5.0758e-07
-3.48796e-06
-5.41061e-07
-3.34338e-06
-5.75804e-07
-3.19004e-06
-6.11758e-07
-3.02771e-06
-6.48876e-07
-2.85613e-06
-6.87097e-07
-2.67497e-06
-7.26056e-07
-2.48397e-06
-7.6545e-07
-2.28297e-06
-8.05478e-07
-2.07182e-06
-8.46091e-07
-1.85051e-06
-8.86965e-07
-1.61916e-06