/*--------------------------------*- C++ -*----------------------------------*\
| =========                 |                                                 |
| \\      /  F ield         | OpenFOAM: The Open Source CFD Toolbox           |
|  \\    /   O peration     | Version:  2112                                  |
|   \\  /    A nd           | Website:  www.openfoam.com                      |
|    \\/     M anipulation  |                                                 |
\*---------------------------------------------------------------------------*/
FoamFile
{
    version     2.0;
    format      ascii;
    arch        "LSB;label=32;scalar=64";
    class       surfaceScalarField;
    location    "0.35";
    object      ddtCorrDdt0(phi);
}
// * * * * * * * * * * * * * * * * * * * * * * * * * * * * * * * * * * * * * //

dimensions      [0 3 -2 0 0 0 0];

oriented        oriented;

internalField   nonuniform List<scalar> 
24170
(
-2.03629e-07
2.03608e-07
-7.06856e-07
5.03185e-07
-1.6221e-06
9.15195e-07
-3.10607e-06
1.48393e-06
-5.29763e-06
2.19151e-06
-8.27828e-06
2.98061e-06
-1.20671e-05
3.78881e-06
-1.66368e-05
4.5696e-06
-2.19202e-05
5.2834e-06
-2.78262e-05
5.90599e-06
-3.42524e-05
6.42618e-06
-4.10963e-05
6.84385e-06
-4.82774e-05
7.18106e-06
-5.58308e-05
7.55339e-06
-6.5197e-05
9.36609e-06
-7.5338e-05
1.0141e-05
-9.31831e-05
1.78451e-05
3.15899e-05
-0.000124773
1.76388e-08
1.85944e-07
-2.62055e-08
5.46986e-07
-1.22715e-07
1.01166e-06
-3.39736e-07
1.70091e-06
-8.04123e-07
2.65586e-06
-1.67198e-06
3.84843e-06
-3.08263e-06
5.19942e-06
-5.13273e-06
6.61966e-06
-7.86485e-06
8.01549e-06
-1.12654e-05
9.30652e-06
-1.52781e-05
1.04389e-05
-1.98162e-05
1.13819e-05
-2.48025e-05
1.21674e-05
-2.96048e-05
1.23556e-05
-3.62105e-05
1.59718e-05
-4.28653e-05
1.67958e-05
-5.1156e-05
2.61357e-05
4.32356e-05
-6.28016e-05
-6.92488e-08
2.55166e-07
-2.18729e-07
6.96421e-07
-3.72875e-07
1.16576e-06
-4.71692e-07
1.79968e-06
-4.73565e-07
2.65769e-06
-3.66452e-07
3.74128e-06
-1.78947e-07
5.01188e-06
3.39479e-08
6.40672e-06
2.02758e-07
7.84664e-06
2.51691e-07
9.25755e-06
1.03699e-07
1.05868e-05
-2.74728e-07
1.17603e-05
-9.92106e-07
1.28847e-05
-3.41124e-06
1.47747e-05
-4.91644e-06
1.7477e-05
-8.87933e-06
2.07587e-05
-1.22991e-05
2.95555e-05
4.53916e-05
-1.44552e-05
-8.40869e-08
3.39223e-07
-2.82384e-07
8.94672e-07
-5.5362e-07
1.43694e-06
-8.7029e-07
2.11631e-06
-1.2155e-06
3.00286e-06
-1.57574e-06
4.10147e-06
-1.9413e-06
5.3774e-06
-2.31154e-06
6.77693e-06
-2.70379e-06
8.23886e-06
-3.15728e-06
9.711e-06
-3.73597e-06
1.11655e-05
-4.59031e-06
1.26146e-05
-5.94049e-06
1.42349e-05
-7.58712e-06
1.64213e-05
-9.56485e-06
1.94547e-05
-1.24792e-05
2.3673e-05
-1.42724e-05
3.13487e-05
4.3342e-05
-1.22228e-05
-8.5164e-08
4.24356e-07
-2.88037e-07
1.0975e-06
-5.70913e-07
1.71977e-06
-9.17576e-07
2.46293e-06
-1.32886e-06
3.4141e-06
-1.81466e-06
4.58723e-06
-2.38907e-06
5.95177e-06
-3.06811e-06
7.45593e-06
-3.87228e-06
9.04298e-06
-4.83016e-06
1.06688e-05
-5.97326e-06
1.23085e-05
-7.39269e-06
1.4034e-05
-9.08709e-06
1.59292e-05
-1.1003e-05
1.83372e-05
-1.31107e-05
2.15623e-05
-1.52366e-05
2.57988e-05
-1.58761e-05
3.19882e-05
4.00253e-05
-1.25595e-05
-8.63903e-08
5.10713e-07
-2.922e-07
1.30326e-06
-5.76815e-07
2.00434e-06
-9.25004e-07
2.81107e-06
-1.33991e-06
3.82896e-06
-1.83538e-06
5.08266e-06
-2.4311e-06
6.54745e-06
-3.14951e-06
8.17429e-06
-4.01615e-06
9.90959e-06
-5.06071e-06
1.17134e-05
-6.30821e-06
1.3556e-05
-7.79925e-06
1.5525e-05
-9.53778e-06
1.76677e-05
-1.14599e-05
2.02593e-05
-1.33528e-05
2.34552e-05
-1.48713e-05
2.73172e-05
-1.49378e-05
3.20546e-05
3.69241e-05
-1.18366e-05
-8.72097e-08
5.9789e-07
-2.94832e-07
1.51083e-06
-5.80761e-07
2.29022e-06
-9.29911e-07
3.16017e-06
-1.34665e-06
4.24565e-06
-1.84613e-06
5.5821e-06
-2.449e-06
7.15027e-06
-3.17868e-06
8.90393e-06
-4.06064e-06
1.07915e-05
-5.12529e-06
1.2778e-05
-6.39226e-06
1.48229e-05
-7.87665e-06
1.70093e-05
-9.57382e-06
1.93649e-05
-1.1353e-05
2.20385e-05
-1.30185e-05
2.51207e-05
-1.4226e-05
2.85247e-05
-1.42171e-05
3.20457e-05
3.47328e-05
-1.20259e-05
-8.72532e-08
6.85108e-07
-2.95194e-07
1.71873e-06
-5.80966e-07
2.57594e-06
-9.29842e-07
3.509e-06
-1.34773e-06
4.6635e-06
-1.85135e-06
6.08567e-06
-2.46228e-06
7.76116e-06
-3.20413e-06
9.64574e-06
-4.09981e-06
1.16872e-05
-5.17888e-06
1.3857e-05
-6.4504e-06
1.60944e-05
-7.91238e-06
1.84713e-05
-9.53788e-06
2.09903e-05
-1.12038e-05
2.37044e-05
-1.27335e-05
2.66503e-05
-1.38418e-05
2.9633e-05
-1.40854e-05
3.22892e-05
3.37697e-05
-1.31223e-05
-8.62883e-08
7.71362e-07
-2.92817e-07
1.92521e-06
-5.76201e-07
2.85928e-06
-9.22023e-07
3.85478e-06
-1.33769e-06
5.07912e-06
-1.84113e-06
6.58906e-06
-2.45446e-06
8.37444e-06
-3.20138e-06
1.03926e-05
-4.10911e-06
1.25948e-05
-5.17863e-06
1.49265e-05
-6.44253e-06
1.73583e-05
-7.87282e-06
1.99015e-05
-9.43428e-06
2.25518e-05
-1.10294e-05
2.52995e-05
-1.24939e-05
2.81148e-05
-1.36668e-05
3.08059e-05
-1.43739e-05
3.29963e-05
3.40422e-05
-1.46465e-05
-8.38648e-08
8.55192e-07
-2.87098e-07
2.12839e-06
-5.65379e-07
3.13751e-06
-9.04683e-07
4.19404e-06
-1.31385e-06
5.48824e-06
-1.81145e-06
7.08662e-06
-2.41971e-06
8.98266e-06
-3.16419e-06
1.11371e-05
-4.05751e-06
1.34881e-05
-5.11837e-06
1.59873e-05
-6.35398e-06
1.85939e-05
-7.74316e-06
2.12907e-05
-9.24659e-06
2.40552e-05
-1.07981e-05
2.68511e-05
-1.22789e-05
2.95955e-05
-1.36005e-05
3.21274e-05
-1.47932e-05
3.4189e-05
3.53536e-05
-1.61047e-05
-7.91612e-08
9.34317e-07
-2.7738e-07
2.32656e-06
-5.47411e-07
3.40749e-06
-8.76308e-07
4.52288e-06
-1.27372e-06
5.8856e-06
-1.75845e-06
7.57131e-06
-2.35313e-06
9.57729e-06
-3.07686e-06
1.18608e-05
-3.94862e-06
1.43598e-05
-4.97842e-06
1.70171e-05
-6.16766e-06
1.97831e-05
-7.49919e-06
2.26222e-05
-8.94054e-06
2.54965e-05
-1.04443e-05
2.83548e-05
-1.19652e-05
3.11163e-05
-1.34803e-05
3.36425e-05
-1.50756e-05
3.57842e-05
3.73476e-05
-1.70696e-05
-6.04943e-08
9.94774e-07
-2.23526e-07
2.48954e-06
-4.41447e-07
3.62536e-06
-7.07934e-07
4.78932e-06
-1.0305e-06
6.20813e-06
-1.42361e-06
7.96437e-06
-1.90501e-06
1.00587e-05
-2.49132e-06
1.2447e-05
-3.19579e-06
1.50643e-05
-4.02504e-06
1.78463e-05
-4.97858e-06
2.07366e-05
-6.04473e-06
2.36883e-05
-7.20426e-06
2.6656e-05
-8.4354e-06
2.95859e-05
-9.72856e-06
3.24094e-05
-1.11184e-05
3.50323e-05
-1.2699e-05
3.73648e-05
3.93309e-05
-1.46824e-05
-5.53276e-08
1.05007e-06
-2.42313e-07
2.67648e-06
-4.77281e-07
3.86028e-06
-7.64613e-07
5.07661e-06
-1.11097e-06
6.55444e-06
-1.53276e-06
8.38612e-06
-2.05068e-06
1.05765e-05
-2.68077e-06
1.30771e-05
-3.43496e-06
1.58184e-05
-4.31903e-06
1.87303e-05
-5.33159e-06
2.17491e-05
-6.46312e-06
2.48198e-05
-7.70041e-06
2.78932e-05
-9.03583e-06
3.09213e-05
-1.04815e-05
3.38551e-05
-1.20959e-05
3.66467e-05
-1.40015e-05
3.92703e-05
4.17209e-05
-1.63915e-05
-3.35685e-08
1.0836e-06
-2.45712e-07
2.88858e-06
-4.86975e-07
4.1015e-06
-7.91376e-07
5.38097e-06
-1.14845e-06
6.91148e-06
-1.57984e-06
8.81745e-06
-2.10826e-06
1.11049e-05
-2.74963e-06
1.37184e-05
-3.5129e-06
1.65817e-05
-4.40036e-06
1.96178e-05
-5.40876e-06
2.27574e-05
-6.53149e-06
2.59425e-05
-7.76388e-06
2.91256e-05
-9.11153e-06
3.22689e-05
-1.06014e-05
3.53449e-05
-1.22945e-05
3.83398e-05
-1.42917e-05
4.12675e-05
4.41744e-05
-1.67453e-05
-1.17249e-07
1.20081e-06
-2.35046e-07
3.00633e-06
-4.47817e-07
4.31422e-06
-7.07103e-07
5.64021e-06
-1.03756e-06
7.24189e-06
-1.44797e-06
9.22783e-06
-1.9461e-06
1.1603e-05
-2.54043e-06
1.43127e-05
-3.23623e-06
1.72774e-05
-4.03352e-06
2.0415e-05
-4.92826e-06
2.36521e-05
-5.9153e-06
2.69295e-05
-6.993e-06
3.02032e-05
-8.16906e-06
3.34449e-05
-9.46633e-06
3.66421e-05
-1.09277e-05
3.98011e-05
-1.26062e-05
4.29461e-05
4.61331e-05
-1.4565e-05
-7.10469e-08
1.27181e-06
-1.73409e-07
3.10865e-06
-3.46217e-07
4.48698e-06
-5.64405e-07
5.85835e-06
-8.29168e-07
7.50661e-06
-1.14505e-06
9.54367e-06
-1.51684e-06
1.19748e-05
-1.94766e-06
1.47435e-05
-2.4362e-06
1.77659e-05
-2.9762e-06
2.09549e-05
-3.55804e-06
2.42339e-05
-4.1714e-06
2.75428e-05
-4.80815e-06
3.084e-05
-5.46487e-06
3.41016e-05
-6.14318e-06
3.73204e-05
-6.84751e-06
4.05054e-05
-7.57464e-06
4.36732e-05
4.68724e-05
-8.31398e-06
-2.42501e-08
1.29602e-06
-8.08829e-08
3.16523e-06
-1.62506e-07
4.56855e-06
-2.60339e-07
5.95613e-06
-3.70345e-07
7.61657e-06
-4.88506e-07
9.66178e-06
-6.05612e-07
1.20918e-05
-7.08503e-07
1.48463e-05
-7.81421e-07
1.78388e-05
-8.0628e-07
2.09798e-05
-7.6303e-07
2.41906e-05
-6.30274e-07
2.741e-05
-3.85653e-07
3.05953e-05
-5.51551e-09
3.37215e-05
5.36931e-07
3.67779e-05
1.27499e-06
3.97673e-05
2.2559e-06
4.26922e-05
4.55874e-05
3.54079e-06
3.01648e-08
1.2658e-06
9.50904e-08
3.10025e-06
1.79293e-07
4.4843e-06
2.8538e-07
5.84999e-06
4.33812e-07
7.46808e-06
6.53355e-07
9.44218e-06
9.75973e-07
1.17692e-05
1.43545e-06
1.43868e-05
2.06668e-06
1.72075e-05
2.90528e-06
2.01411e-05
3.98754e-06
2.31083e-05
5.35067e-06
2.60469e-05
7.03335e-06
2.89126e-05
9.07684e-06
3.16779e-05
1.15266e-05
3.43281e-05
1.44344e-05
3.68595e-05
1.78603e-05
3.92663e-05
4.15738e-05
2.18739e-05
1.13111e-07
1.15263e-06
3.64387e-07
2.84891e-06
7.07283e-07
4.14134e-06
1.14586e-06
5.41135e-06
1.71771e-06
6.89617e-06
2.4771e-06
8.68274e-06
3.48444e-06
1.07617e-05
4.8003e-06
1.30709e-05
6.48216e-06
1.55256e-05
8.5833e-06
1.80399e-05
1.11531e-05
2.05385e-05
1.42379e-05
2.2962e-05
1.78822e-05
2.52683e-05
2.21292e-05
2.74309e-05
2.70215e-05
2.94358e-05
3.26018e-05
3.12791e-05
3.89114e-05
3.29567e-05
3.44904e-05
4.59948e-05
1.22932e-07
1.02965e-06
4.04467e-07
2.56732e-06
7.9401e-07
3.75174e-06
1.28993e-06
4.91537e-06
1.92311e-06
6.26293e-06
2.74021e-06
7.86558e-06
3.79265e-06
9.70925e-06
5.13022e-06
1.17332e-05
6.79814e-06
1.38576e-05
8.83634e-06
1.60017e-05
1.128e-05
1.80948e-05
1.41601e-05
2.00818e-05
1.75043e-05
2.1924e-05
2.1337e-05
2.35982e-05
2.5679e-05
2.50937e-05
3.05476e-05
2.64104e-05
3.59543e-05
2.755e-05
2.85343e-05
4.19104e-05
1.28599e-07
9.00999e-07
4.31231e-07
2.26464e-06
8.53348e-07
3.32956e-06
1.38895e-06
4.37971e-06
2.06426e-06
5.58757e-06
2.92036e-06
7.00942e-06
4.00213e-06
8.62743e-06
5.35215e-06
1.03832e-05
7.00826e-06
1.22015e-05
9.00314e-06
1.40067e-05
1.13649e-05
1.5733e-05
1.41178e-05
1.73288e-05
1.7283e-05
1.87588e-05
2.0878e-05
2.00031e-05
2.49168e-05
2.10549e-05
2.94087e-05
2.19185e-05
3.43563e-05
2.26024e-05
2.31301e-05
3.97604e-05
1.27249e-07
7.73705e-07
4.31878e-07
1.95995e-06
8.59098e-07
2.90229e-06
1.39873e-06
3.84002e-06
2.07035e-06
4.9159e-06
2.90697e-06
6.17274e-06
3.94464e-06
7.58971e-06
5.21664e-06
9.11112e-06
6.75143e-06
1.06666e-05
8.57306e-06
1.21851e-05
1.07026e-05
1.36034e-05
1.31595e-05
1.48719e-05
1.59618e-05
1.59564e-05
1.91259e-05
1.6839e-05
2.2665e-05
1.75158e-05
2.65881e-05
1.79953e-05
3.08972e-05
1.82932e-05
1.8436e-05
3.55913e-05
1.22055e-07
6.51606e-07
4.17836e-07
1.66412e-06
8.347e-07
2.48537e-06
1.3599e-06
3.31476e-06
2.00659e-06
4.26915e-06
2.79867e-06
5.38061e-06
3.76196e-06
6.62638e-06
4.92006e-06
7.95298e-06
6.29278e-06
9.29384e-06
7.89661e-06
1.05812e-05
9.74636e-06
1.17536e-05
1.18569e-05
1.27613e-05
1.42441e-05
1.35692e-05
1.69248e-05
1.41582e-05
1.99152e-05
1.45253e-05
2.32291e-05
1.46815e-05
2.68737e-05
1.46485e-05
1.44564e-05
3.08533e-05
1.1523e-07
5.36332e-07
3.96965e-07
1.38233e-06
7.95007e-07
2.08727e-06
1.29457e-06
2.81514e-06
1.90387e-06
3.6598e-06
2.63993e-06
4.6445e-06
3.52022e-06
5.74604e-06
4.55902e-06
6.91413e-06
5.7665e-06
8.08632e-06
7.15058e-06
9.19706e-06
8.72006e-06
1.01841e-05
1.0487e-05
1.09943e-05
1.24679e-05
1.15883e-05
1.46828e-05
1.19432e-05
1.71539e-05
1.20542e-05
1.99022e-05
1.19331e-05
2.29425e-05
1.16081e-05
1.11129e-05
2.62859e-05
1.07411e-07
4.28879e-07
3.72943e-07
1.11674e-06
7.50277e-07
1.70988e-06
1.22353e-06
2.34183e-06
1.79607e-06
3.08721e-06
2.47795e-06
3.96257e-06
3.27954e-06
4.9444e-06
4.20942e-06
5.98421e-06
5.27272e-06
7.02297e-06
6.47232e-06
7.9974e-06
7.81151e-06
8.84483e-06
9.29686e-06
9.50888e-06
1.09407e-05
9.94437e-06
1.27619e-05
1.01221e-05
1.47832e-05
1.00328e-05
1.70286e-05
9.6876e-06
1.95173e-05
9.11941e-06
8.36337e-06
2.22668e-05
9.85823e-08
3.30255e-07
3.44261e-07
8.71009e-07
6.96943e-07
1.35714e-06
1.14159e-06
1.89712e-06
1.68021e-06
2.54854e-06
2.31869e-06
3.32403e-06
3.06135e-06
4.20169e-06
3.90756e-06
5.13795e-06
4.84889e-06
6.0816e-06
5.87366e-06
6.97258e-06
6.97007e-06
7.74836e-06
8.12905e-06
8.34985e-06
9.34829e-06
8.72508e-06
1.06353e-05
8.83504e-06
1.20088e-05
8.65923e-06
1.3496e-05
8.20036e-06
1.51303e-05
7.48501e-06
6.54497e-06
1.69487e-05
9.32621e-08
2.36953e-07
3.2067e-07
6.43548e-07
6.47968e-07
1.02979e-06
1.05689e-06
1.48814e-06
1.53693e-06
2.06846e-06
2.07395e-06
2.78696e-06
2.64812e-06
3.62747e-06
3.23301e-06
4.55302e-06
3.79368e-06
5.52088e-06
4.29397e-06
6.47224e-06
4.70382e-06
7.33845e-06
5.00871e-06
8.04492e-06
5.22198e-06
8.51178e-06
5.39173e-06
8.66525e-06
5.6011e-06
8.44982e-06
5.95576e-06
7.84565e-06
6.57152e-06
6.86919e-06
5.58666e-06
7.52975e-06
7.8259e-08
1.58644e-07
2.58525e-07
4.63218e-07
4.86262e-07
8.01989e-07
7.10562e-07
1.26377e-06
8.86118e-07
1.89284e-06
9.80453e-07
2.69257e-06
9.71527e-07
3.63635e-06
8.57499e-07
4.66699e-06
6.70393e-07
5.70793e-06
4.70149e-07
6.67243e-06
3.39752e-07
7.46879e-06
3.81788e-07
8.00284e-06
7.12444e-07
8.18108e-06
1.44669e-06
7.93096e-06
2.67879e-06
7.21767e-06
4.46084e-06
6.06354e-06
6.79896e-06
4.53101e-06
2.74366e-06
9.64188e-06
-2.13988e-08
1.79983e-07
3.67926e-09
4.38067e-07
4.77525e-08
7.57842e-07
1.38635e-07
1.17282e-06
3.5079e-07
1.68062e-06
7.8688e-07
2.25642e-06
1.5704e-06
2.85277e-06
2.82625e-06
3.41108e-06
4.65156e-06
3.88256e-06
7.10213e-06
4.2218e-06
1.01854e-05
4.38542e-06
1.38536e-05
4.33458e-06
1.79992e-05
4.03551e-06
2.24546e-05
3.47544e-06
2.70022e-05
2.67001e-06
3.13981e-05
1.66758e-06
3.53858e-05
5.43277e-07
-6.20718e-07
3.87501e-05
1.79978e-07
6.18039e-07
1.37588e-06
2.54869e-06
4.2293e-06
6.48571e-06
9.33848e-06
1.27495e-05
1.66321e-05
2.08539e-05
2.52393e-05
2.95739e-05
3.36094e-05
3.70848e-05
3.97548e-05
4.14224e-05
4.19656e-05
4.13449e-05
0.000111086
-0.000111086
0.000233425
-0.000122339
0.000324486
-9.10606e-05
0.00036577
-4.12839e-05
0.000390513
-2.4743e-05
0.000445116
-5.46028e-05
0.000535891
-9.07758e-05
0.000631967
-9.60761e-05
0.00070498
-7.3013e-05
0.000741101
-3.6121e-05
0.000737665
3.43592e-06
0.000698597
3.90677e-05
0.000631815
6.67826e-05
0.000544954
8.68608e-05
0.000442101
0.000102853
0.000324571
0.00011753
0.000192571
0.000132001
4.70189e-05
0.000145552
-0.000110115
0.000157133
-0.000277323
0.000167208
-0.000452281
0.000174958
-0.000633719
0.000181437
-0.000819852
0.000186133
-0.0010045
0.000184649
-0.00118106
0.000176558
-0.00135367
0.000172612
-0.00150265
0.000148977
-0.00163812
0.000135468
-0.00176107
0.000122949
-0.0018729
0.000111832
-0.00197427
0.000101373
-0.00206578
9.15127e-05
-0.00214822
8.24318e-05
-0.00222245
7.42372e-05
-0.00229023
6.77778e-05
-0.00235359
6.33613e-05
-0.00241525
6.16568e-05
-0.00247865
6.34002e-05
-0.00254805
6.93995e-05
-0.00262853
8.0485e-05
-0.00272604
9.75034e-05
-0.00284377
0.000117728
-0.00298323
0.00013946
-0.00314329
0.00016006
-0.00331897
0.000175683
-0.00349117
0.000172195
-0.00362522
0.000134052
-0.00367264
4.74231e-05
-0.00358684
-8.58002e-05
-0.0033202
-0.000266643
-0.00262356
-0.000696636
-0.0010434
-0.00158017
0.00152623
-0.00256963
0.00358863
-0.0020624
0.0041367
-0.00054807
0.00344366
0.000693042
0.00248419
0.000959476
0.00173669
0.000747498
0.00134142
0.000395271
0.00152963
-0.000188217
0.0020398
-0.000510167
0.00229452
-0.000254722
0.00200328
0.000291247
0.000985737
0.00101754
-0.000411683
0.00139742
-0.00220125
0.00178956
-0.00354689
0.00134564
-0.00333921
-0.000207679
-0.00113686
-0.00220235
0.00148936
-0.00262622
0.00218892
-0.00069956
0.00124736
0.000941555
-2.66148e-05
0.00127398
-0.000803282
0.000776667
-0.000705414
-9.7868e-05
-1.22841e-05
-0.000693131
0.000814755
-0.000827039
0.00173455
-0.000919799
0.00278229
-0.00104773
0.00372259
-0.0009403
0.00435086
-0.000628273
0.00464667
-0.000295807
0.00464303
3.63596e-06
0.00441058
0.000232453
0.00401937
0.000391206
0.00352186
0.000497511
0.00297321
0.000548649
0.00240785
0.000565356
0.00185
0.000557849
0.00131406
0.000535941
0.00080332
0.000510744
0.000338277
0.000465042
-9.05259e-05
0.000428803
-0.000426156
0.000335629
-0.000721713
0.000295557
-0.000988164
0.00026645
-0.00123395
0.000245784
-0.0014622
0.000228247
-0.00167421
0.000212015
-0.00186957
0.000195355
-0.00204582
0.000176251
-0.00220004
0.000154214
-0.00232695
0.000126913
-0.00242046
9.35077e-05
-0.00247428
5.3819e-05
-0.00248303
8.74609e-06
-0.00244375
-3.92738e-05
-0.00236042
-8.33332e-05
-0.00223989
-0.000120528
-0.00208153
-0.000158365
-0.00188531
-0.000196219
-0.00165499
-0.000230318
-0.00139889
-0.000256098
-0.00112489
-0.000274
-0.000838895
-0.000285999
-0.000545784
-0.000293111
-0.000251552
-0.000294233
4.07871e-05
-0.000292339
0.000345698
-0.000304911
0.000623882
-0.000278184
0.000811758
-0.000187876
0.000892513
-8.07544e-05
0.00089209
4.22161e-07
0.000845433
4.66572e-05
0.00078003
6.54024e-05
0.000712927
6.71024e-05
0.000651922
6.10057e-05
0.000598379
5.35423e-05
0.000550793
4.75868e-05
0.00050483
4.59629e-05
0.000458919
4.59106e-05
0.000411452
4.74672e-05
0.000361446
5.0007e-05
0.00030915
5.22957e-05
0.000256539
5.26114e-05
0.000206764
4.97759e-05
0.000162752
4.40128e-05
0.000126008
3.67442e-05
9.64632e-05
2.95453e-05
7.26721e-05
2.37916e-05
5.30113e-05
1.96613e-05
3.61857e-05
1.6826e-05
2.11599e-05
1.50261e-05
7.15156e-06
1.40087e-05
-6.29341e-06
1.34452e-05
-1.91853e-05
1.28921e-05
-3.09361e-05
1.17509e-05
-4.06765e-05
9.74062e-06
-4.75884e-05
6.912e-06
-5.11491e-05
3.56078e-06
-5.12512e-05
1.02152e-07
-4.81793e-05
-3.07174e-06
-4.24693e-05
-5.70994e-06
-3.46204e-05
-7.84888e-06
-2.48378e-05
-9.78253e-06
-1.29627e-05
-1.1875e-05
1.11915e-06
-1.40818e-05
1.65297e-05
-1.54105e-05
3.03327e-05
-1.38029e-05
3.72058e-05
-6.87303e-06
3.14232e-05
5.78272e-06
1.07832e-05
2.06401e-05
-2.115e-05
3.19333e-05
-5.69327e-05
3.57828e-05
-0.000100844
4.39118e-05
-0.000161452
6.06082e-05
-0.000251959
9.05066e-05
-0.00037978
0.000127821
-0.00047383
9.40495e-05
-0.000366839
-0.000106991
-3.40254e-05
-0.000332813
0.000515856
-0.000549882
0.0014956
-0.000979742
0.00257089
-0.00107529
0.00294302
-0.000372128
0.00278388
0.000159135
0.00227796
0.000505922
0.00159757
0.000680389
0.000843063
0.000754509
0.000650816
0.000192247
0.000108668
-0.000219755
0.00020326
-0.000216932
0.000222927
-0.000110727
0.000164576
1.70672e-05
0.000132794
7.03863e-06
0.000140745
-6.25538e-05
0.000157743
-0.000107774
0.000162161
-0.000100494
0.00014332
-5.41717e-05
0.000103891
3.30804e-06
4.9955e-05
5.73714e-05
-1.54442e-05
0.000104467
-9.27453e-05
0.000144084
-0.000182331
0.000176446
-0.00028232
0.000202842
-0.000389239
0.000224448
-0.000499165
0.000241927
-0.000609297
0.000255683
-0.000717927
0.000265764
-0.000823378
0.000272658
-0.000925134
0.000276714
-0.00102173
0.000278035
-0.00111272
0.000277119
-0.00120214
0.000274076
-0.00129054
0.000264955
-0.00138248
0.000264553
-0.00148418
0.00025068
-0.00158941
0.000240693
-0.00169286
0.000226403
-0.00179015
0.000209114
-0.00187843
0.000189654
-0.00195622
0.000169309
-0.00202352
0.00014973
-0.00208131
0.000132023
-0.00213049
0.000116964
-0.00217341
0.000106276
-0.00221273
0.000100973
-0.00225161
0.000102283
-0.00229402
0.000111809
-0.00234327
0.000129738
-0.00240317
0.000157406
-0.00247813
0.000192688
-0.00257521
0.000236537
-0.00269822
0.000283074
-0.00284564
0.000323101
-0.00301915
0.000345698
-0.00321464
0.000329547
-0.00341472
0.0002475
-0.00357055
7.00348e-05
-0.00362381
-0.000213383
-0.00372377
-0.000596679
-0.0040779
-0.00122603
-0.0043548
-0.00229273
-0.00338165
-0.00303554
-0.00099552
-0.0029342
0.00205931
-0.00236178
0.00454414
-0.00152536
0.00554785
-0.000256212
0.00517648
0.000766643
0.0042942
0.00069406
0.00378082
3.2165e-06
0.00363508
-0.000108985
0.00319604
0.000730285
0.00209412
0.00211946
0.00100498
0.00248656
-0.000844508
0.00363905
-0.00248896
0.00299009
-0.0035199
0.000823264
-0.00364596
-0.00207629
-0.00238571
-0.00388648
4.44985e-05
-0.00312976
0.00176967
-0.000783618
0.00186455
0.0011791
0.00124899
0.00139223
0.00142704
-0.00027592
0.00275047
-0.00201656
0.00439125
-0.00246782
0.00563394
-0.00216249
0.00614777
-0.00156156
0.00603855
-0.000831084
0.0055411
-0.000130822
0.00480915
0.000436147
0.00398627
0.000826513
0.00317266
0.00104606
0.00243259
0.00113128
0.00180227
0.00112783
0.00128004
0.00107087
0.000856777
0.000988619
0.000515835
0.000898791
0.000237761
0.000814014
1.04275e-05
0.000738078
-0.000199025
0.000674495
-0.000395513
0.000625291
-0.000632101
0.000572217
-0.000872363
0.000535819
-0.00110495
0.000499039
-0.00132474
0.000465567
-0.00153192
0.000435433
-0.00172674
0.000406836
-0.00190876
0.000377368
-0.00207641
0.000343903
-0.00222463
0.000302432
-0.00234806
0.000250341
-0.0024415
0.000186946
-0.00249941
0.000111726
-0.00251775
2.70939e-05
-0.00249496
-6.20641e-05
-0.00242918
-0.000149123
-0.00232072
-0.000228981
-0.00217456
-0.000304533
-0.00199994
-0.000370833
-0.00180211
-0.00042815
-0.00158529
-0.000472921
-0.00135388
-0.000505407
-0.00111248
-0.000527407
-0.000866925
-0.000538663
-0.000621907
-0.000539251
-0.000385804
-0.000528442
-0.000189221
-0.000501495
-7.05537e-06
-0.00046035
0.000209259
-0.000404191
0.00045669
-0.000328185
0.000685602
-0.000228491
0.000868248
-0.000135989
0.000990478
-5.68283e-05
0.00105149
6.088e-06
0.0010586
5.38972e-05
0.001023
8.91481e-05
0.000956817
0.000113765
0.000873527
0.000129253
0.000782236
0.000137202
0.000690085
0.000139619
0.000601823
0.000138269
0.000520153
0.000133966
0.000446145
0.000126621
0.00037993
0.000115991
0.00032142
0.000102523
0.000270572
8.75932e-05
0.00022706
7.30573e-05
0.000190356
6.04962e-05
0.000159218
5.08001e-05
0.000131872
4.41723e-05
0.00010634
4.05586e-05
8.08145e-05
3.95341e-05
5.4228e-05
4.0032e-05
2.66993e-05
4.04209e-05
-5.61337e-07
3.90117e-05
-2.57787e-05
3.49581e-05
-4.73399e-05
2.84733e-05
-6.44224e-05
2.06434e-05
-7.70976e-05
1.27774e-05
-8.59584e-05
5.78916e-06
-9.16537e-05
-1.4503e-08
-9.46959e-05
-4.80659e-06
-9.54617e-05
-9.01672e-06
-9.42336e-05
-1.31031e-05
-9.11942e-05
-1.71211e-05
-8.64528e-05
-2.01518e-05
-8.00317e-05
-2.02239e-05
-7.19572e-05
-1.49475e-05
-6.23577e-05
-3.81663e-06
-5.11677e-05
9.45021e-06
-3.91714e-05
1.99372e-05
-3.43617e-05
3.09731e-05
-4.41169e-05
5.36672e-05
-7.51594e-05
9.16508e-05
-0.000138919
0.000154267
-0.000265591
0.000254493
-0.000414417
0.000242876
-0.000335579
-0.000185829
0.000327183
-0.000995575
0.00178861
-0.00201131
0.00331518
-0.00250631
0.00363647
-0.00139658
0.00302664
0.000237698
0.00220503
0.000980747
0.00150673
0.00120422
0.000933216
0.00125391
0.000439648
0.00124808
0.00120712
-0.00011666
6.40981e-05
-0.000283853
9.62341e-05
-0.000249068
3.20868e-05
-4.658e-05
-3.9991e-05
8.91449e-05
-7.98424e-05
4.689e-05
-0.000118197
-2.41998e-05
-0.000172348
-5.36226e-05
-0.000233397
-3.9445e-05
-0.000288809
1.23954e-06
-0.000334296
4.87954e-05
-0.000370857
9.3932e-05
-0.00040053
0.000134141
-0.000425469
0.000169022
-0.000448131
0.000199109
-0.000470677
0.000225388
-0.000495175
0.000248946
-0.000524133
0.000270885
-0.000560577
0.000292127
-0.000607893
0.00031308
-0.000668776
0.000333541
-0.000745065
0.000353003
-0.000837962
0.000370933
-0.00094706
0.000386216
-0.0010718
0.000398812
-0.00120479
0.000397945
-0.0013418
0.000401565
-0.00147777
0.000386647
-0.00160393
0.000366856
-0.00171848
0.000340956
-0.00181927
0.000309899
-0.00190491
0.0002753
-0.00197475
0.000239147
-0.00202838
0.000203354
-0.00206685
0.000170501
-0.00209255
0.000142664
-0.0021085
0.000122219
-0.00211706
0.000109534
-0.00212048
0.000105704
-0.00212257
0.000113904
-0.00212583
0.000133
-0.0021329
0.000164473
-0.00214888
0.000208663
-0.00217818
0.000265842
-0.00222718
0.000332071
-0.00230214
0.000398061
-0.00241074
0.000454302
-0.00256081
0.000479614
-0.00275504
0.000441735
-0.00298063
0.000295622
-0.00318701
-7.00664e-06
-0.00330469
-0.000478995
-0.00342925
-0.00110148
-0.00390464
-0.00181735
-0.00440169
-0.0025385
-0.00411869
-0.0032172
-0.00267419
-0.00380628
-0.000252964
-0.00394659
0.00265218
-0.00316136
0.00500555
-0.00158672
0.00575226
-5.26489e-05
0.00512437
0.000631105
0.00425757
0.000757813
0.00368237
0.00130549
0.00328978
0.00251205
0.00196791
0.00380844
0.000749909
0.00485705
-0.000834207
0.00457421
-0.00202212
0.00201117
-0.00229547
-0.00180293
-0.00180431
-0.00437764
-0.000537334
-0.00439674
0.000747659
-0.00206861
0.00156643
0.000360322
0.00282878
0.000129887
0.00479223
-0.00223938
0.00622562
-0.00344995
0.0066954
-0.0029376
0.00638559
-0.00185267
0.00558864
-0.000764613
0.00458211
0.000175443
0.00358827
0.000863014
0.00274865
0.00127577
0.00211702
0.00145815
0.00167907
0.001484
0.00138387
0.00142648
0.00117323
0.00133847
0.000995502
0.0012486
0.000816156
0.00116796
0.000618046
0.0010969
0.000398624
0.00103344
0.000162929
0.000973773
-0.000104532
0.000941957
-0.000343243
0.000864001
-0.00058289
0.000811863
-0.000807528
0.000760457
-0.00102089
0.000712404
-0.0012237
0.000668371
-0.00141698
0.000628712
-0.00160161
0.000591463
-0.00177709
0.000552846
-0.00194131
0.000508123
-0.00208939
0.00045051
-0.00221531
0.00037627
-0.00231205
0.00028368
-0.00237307
0.000172747
-0.00239351
4.75262e-05
-0.00237128
-8.42922e-05
-0.0023061
-0.0002143
-0.00219951
-0.000335576
-0.00205923
-0.000444814
-0.00189272
-0.000537334
-0.00170747
-0.000613401
-0.00150803
-0.000672366
-0.00129849
-0.000714952
-0.00108308
-0.000742808
-0.000866863
-0.000754884
-0.000655441
-0.000750674
-0.000451912
-0.000731971
-0.00025733
-0.000696076
-7.74153e-05
-0.000640265
8.26113e-05
-0.000564218
0.000233156
-0.00047873
0.000386487
-0.000381822
0.000542792
-0.000292294
0.000687518
-0.000201555
0.000809448
-0.000115842
0.000899518
-3.61727e-05
0.000952747
3.59192e-05
0.000968479
9.80336e-05
0.000949785
0.000147947
0.000902758
0.000184229
0.000835596
0.000206781
0.000756982
0.000216884
0.000674511
0.000216437
0.000593703
0.000207429
0.000517845
0.00019185
0.000448525
0.000171844
0.000386358
0.000149761
0.000331498
0.000127918
0.000283734
0.000108261
0.000242401
9.21337e-05
0.000206332
8.02416e-05
0.000174172
7.27183e-05
0.000144703
6.90041e-05
0.000116845
6.78896e-05
8.97816e-05
6.74849e-05
6.3215e-05
6.55784e-05
3.75755e-05
6.05978e-05
1.38163e-05
5.22327e-05
-7.11594e-06
4.15757e-05
-2.47555e-05
3.04171e-05
-3.92064e-05
2.02401e-05
-5.09028e-05
1.1682e-05
-6.03751e-05
4.66571e-06
-6.81323e-05
-1.25945e-06
-7.46314e-05
-6.60388e-06
-8.01672e-05
-1.15852e-05
-8.4564e-05
-1.5755e-05
-8.69871e-05
-1.78007e-05
-8.57262e-05
-1.62083e-05
-7.86542e-05
-1.08886e-05
-6.4902e-05
-4.30192e-06
-4.62633e-05
1.29858e-06
-2.58071e-05
1.0517e-05
-3.17513e-06
3.10353e-05
2.59261e-05
6.25496e-05
4.1359e-05
0.000138834
-1.73876e-05
0.000313239
-0.000130973
0.000356462
4.65828e-05
-0.000363384
0.00107079
-0.00201979
0.00288613
-0.00382665
0.0036503
-0.00327048
0.00292415
-0.000670433
0.00209121
0.00107064
0.00159634
0.00147562
0.00127741
0.00152314
0.000906374
0.00162494
0.000369428
0.00178502
0.00178248
-0.000205923
3.06959e-05
-0.000314549
1.53994e-05
-0.000233771
-4.70738e-05
1.58932e-05
-6.75829e-05
0.000109654
-9.44583e-05
7.37653e-05
-0.000143889
2.52306e-05
-0.000202643
5.1317e-06
-0.000254341
1.22525e-05
-0.000288006
3.49049e-05
-0.000302185
6.29747e-05
-0.000300631
9.2377e-05
-0.000288834
0.000122344
-0.000272939
0.000153126
-0.000259276
0.000185446
-0.00025402
0.000220132
-0.000262861
0.000257787
-0.000290578
0.000298601
-0.000340511
0.000342061
-0.0004141
0.000386669
-0.000510675
0.000430116
-0.000627666
0.000469995
-0.00076079
0.000504057
-0.000904301
0.000529728
-0.00104649
0.000541003
-0.00127172
0.00062317
-0.00141812
0.000547973
-0.00157107
0.00053959
-0.00171963
0.000515419
-0.0018565
0.000477828
-0.00197579
0.000429183
-0.00207272
0.000372236
-0.00214414
0.000310561
-0.00218893
0.000248144
-0.00220842
0.00018999
-0.00220689
0.000141143
-0.00218919
0.00010451
-0.00216155
8.18925e-05
-0.00212977
7.39254e-05
-0.00209678
8.09204e-05
-0.00206473
0.000100944
-0.00203313
0.000132872
-0.00200395
0.000179482
-0.00197939
0.000241286
-0.00196328
0.000315962
-0.00196338
0.000398154
-0.00199126
0.000482184
-0.00206297
0.000551321
-0.00219733
0.000576094
-0.00241137
0.000509661
-0.002694
0.000275628
-0.0029797
-0.000193295
-0.00318375
-0.000897434
-0.00325797
-0.00174312
-0.00326512
-0.00253134
-0.00338006
-0.00310227
-0.00351971
-0.00366663
-0.00304364
-0.00442266
-0.0013307
-0.00487429
0.00130549
-0.00422291
0.00370245
-0.00244961
0.00480352
-0.00046997
0.00461929
0.000942045
0.0039679
0.00195688
0.00343133
0.00304862
0.00296395
0.00427581
0.00224071
0.00558028
0.000955152
0.00585977
-0.000370567
0.00333689
-0.000674731
-0.00149877
-0.000225101
-0.00482727
0.000200674
-0.00482252
0.000860994
-0.00272893
0.00263415
-0.00141284
0.00535422
-0.00259018
0.00705581
-0.00394096
0.00697277
-0.00336691
0.00603411
-0.00199894
0.00482401
-0.000642568
0.00362719
0.000432206
0.0026631
0.00113954
0.00201791
0.0015082
0.00165963
0.00163405
0.0014903
0.00162747
0.00140306
0.00157125
0.00131982
0.00150973
0.00120083
0.00145746
0.00103607
0.00141336
0.000832355
0.00137168
0.000602226
0.00132703
0.000359975
0.00127569
0.000117397
0.00121635
-0.00013154
0.00119089
-0.000358366
0.00109083
-0.000577089
0.00103059
-0.000784082
0.000967449
-0.000979676
0.000907997
-0.0011658
0.000854494
-0.00134457
0.000807484
-0.00151784
0.000764726
-0.00168606
0.000721066
-0.00184716
0.000669222
-0.00199701
0.000600366
-0.00212842
0.000507674
-0.00223071
0.000385975
-0.00229464
0.000236676
-0.00231345
6.63364e-05
-0.00228473
-0.000113015
-0.00220953
-0.000289508
-0.00209158
-0.000453524
-0.00194081
-0.000595581
-0.00176616
-0.000711983
-0.00157623
-0.000803333
-0.00137731
-0.000871288
-0.00117439
-0.000917876
-0.000972502
-0.000944694
-0.000773742
-0.000953644
-0.000579518
-0.000944898
-0.000392424
-0.000919065
-0.000213929
-0.000874572
-4.37779e-05
-0.000810417
0.000118016
-0.000726013
0.000263665
-0.000624379
0.000392503
-0.00051066
0.000500038
-0.000399829
0.000591004
-0.000292521
0.000668299
-0.000193137
0.000734142
-0.000102016
0.000788577
-1.85154e-05
0.000829037
5.75736e-05
0.000851867
0.000125117
0.000854257
0.00018184