/*--------------------------------*- C++ -*----------------------------------*\
| =========                 |                                                 |
| \\      /  F ield         | OpenFOAM: The Open Source CFD Toolbox           |
|  \\    /   O peration     | Version:  2112                                  |
|   \\  /    A nd           | Website:  www.openfoam.com                      |
|    \\/     M anipulation  |                                                 |
\*---------------------------------------------------------------------------*/
FoamFile
{
    version     2.0;
    format      ascii;
    arch        "LSB;label=32;scalar=64";
    class       volVectorField;
    location    "0.35";
    object      U;
}
// * * * * * * * * * * * * * * * * * * * * * * * * * * * * * * * * * * * * * //

dimensions      [0 1 -1 0 0 0 0];

internalField   nonuniform List<vector> 
12225
(
(9.75762 0.0638832 0)
(9.27003 0.099509 0)
(8.7469 0.104664 0)
(8.21569 0.104173 0)
(7.70685 0.0998139 0)
(7.234 0.0921531 0)
(6.80349 0.0823019 0)
(6.42079 0.0710384 0)
(6.09024 0.0589191 0)
(5.81402 0.0464403 0)
(5.59233 0.0340252 0)
(5.42401 0.0219901 0)
(5.30688 0.0104983 0)
(5.23824 -0.000319638 0)
(5.21471 -0.00974705 0)
(5.23346 -0.0184159 0)
(5.28704 -0.0276243 0)
(5.37796 -0.00590093 0)
(10.1053 0.0765854 0)
(10.3189 0.111867 0)
(10.4689 0.118664 0)
(10.559 0.126459 0)
(10.6031 0.131917 0)
(10.6091 0.133173 0)
(10.584 0.130637 0)
(10.5373 0.124628 0)
(10.4783 0.115329 0)
(10.4157 0.103064 0)
(10.3565 0.0882716 0)
(10.3063 0.0714013 0)
(10.2694 0.0528858 0)
(10.249 0.0327757 0)
(10.2463 0.0117443 0)
(10.2598 -0.00774679 0)
(10.2921 -0.0240425 0)
(10.3615 -0.0321179 0)
(10.0117 0.0342429 0)
(10.0646 0.0537284 0)
(10.1243 0.0632175 0)
(10.187 0.0765718 0)
(10.2572 0.0877919 0)
(10.3325 0.0943595 0)
(10.4075 0.0967296 0)
(10.4785 0.0951513 0)
(10.5437 0.0895762 0)
(10.602 0.0801191 0)
(10.6535 0.0671035 0)
(10.6987 0.0509894 0)
(10.7388 0.0321765 0)
(10.7757 0.0112862 0)
(10.811 -0.0117659 0)
(10.8508 -0.0341483 0)
(10.8998 -0.0570428 0)
(10.9727 -0.0813403 0)
(10.0067 0.0304352 0)
(10.0375 0.0608874 0)
(10.069 0.0732768 0)
(10.0969 0.0823384 0)
(10.1279 0.0881553 0)
(10.1638 0.0897775 0)
(10.2033 0.0879136 0)
(10.2451 0.0830384 0)
(10.2886 0.0752 0)
(10.333 0.0644764 0)
(10.3775 0.051057 0)
(10.4216 0.0352132 0)
(10.4653 0.0171339 0)
(10.5091 -0.0027517 0)
(10.5548 -0.0247277 0)
(10.6049 -0.0502651 0)
(10.6622 -0.0800934 0)
(10.7349 -0.121387 0)
(10.0048 0.0250837 0)
(10.0297 0.0521431 0)
(10.0575 0.0618935 0)
(10.0825 0.0686208 0)
(10.1086 0.0735867 0)
(10.1379 0.0750794 0)
(10.1695 0.0731249 0)
(10.2026 0.06807 0)
(10.2371 0.059971 0)
(10.273 0.048867 0)
(10.3102 0.0349008 0)
(10.3484 0.0182124 0)
(10.3881 -0.00113505 0)
(10.4296 -0.0234213 0)
(10.4737 -0.0488972 0)
(10.5221 -0.0787326 0)
(10.5761 -0.114909 0)
(10.6392 -0.16398 0)
(10.0035 0.0201422 0)
(10.0237 0.0446715 0)
(10.0491 0.0550504 0)
(10.0735 0.0617204 0)
(10.099 0.066255 0)
(10.1271 0.06712 0)
(10.1573 0.0642401 0)
(10.1888 0.0580732 0)
(10.2214 0.048795 0)
(10.2552 0.03647 0)
(10.29 0.0212096 0)
(10.3259 0.00310419 0)
(10.3632 -0.0178765 0)
(10.4021 -0.0419663 0)
(10.4433 -0.0696144 0)
(10.4876 -0.102194 0)
(10.5356 -0.142106 0)
(10.5873 -0.194845 0)
(10.0026 0.0161643 0)
(10.019 0.0380885 0)
(10.042 0.0482555 0)
(10.0654 0.0537726 0)
(10.0898 0.0567386 0)
(10.1167 0.0562387 0)
(10.1457 0.0521526 0)
(10.176 0.044876 0)
(10.2074 0.0345813 0)
(10.2398 0.0212932 0)
(10.2731 0.00505154 0)
(10.3074 -0.0141181 0)
(10.3427 -0.0363083 0)
(10.3795 -0.0618454 0)
(10.4177 -0.0914535 0)
(10.4578 -0.126451 0)
(10.4995 -0.168894 0)
(10.5412 -0.222681 0)
(10.002 0.012909 0)
(10.0155 0.0317948 0)
(10.036 0.0410983 0)
(10.0581 0.0454585 0)
(10.0815 0.0471086 0)
(10.1071 0.0455618 0)
(10.1347 0.0405697 0)
(10.1636 0.0323877 0)
(10.1936 0.0211758 0)
(10.2244 0.00694979 0)
(10.2561 -0.0102806 0)
(10.2886 -0.0305509 0)
(10.3218 -0.0540139 0)
(10.356 -0.0810231 0)
(10.3911 -0.112225 0)
(10.4268 -0.148734 0)
(10.4624 -0.192034 0)
(10.4957 -0.244526 0)
(10.0015 0.0101741 0)
(10.0127 0.0258525 0)
(10.0309 0.0339308 0)
(10.0517 0.0371553 0)
(10.074 0.037495 0)
(10.0982 0.0347725 0)
(10.1243 0.028713 0)
(10.1518 0.019478 0)
(10.1801 0.0072251 0)
(10.2093 -0.00801912 0)
(10.2392 -0.0262725 0)
(10.2696 -0.0475974 0)
(10.3006 -0.0721597 0)
(10.332 -0.100287 0)
(10.3637 -0.132507 0)
(10.395 -0.169678 0)
(10.4251 -0.212705 0)
(10.4517 -0.262809 0)
(10.0012 0.00783277 0)
(10.0106 0.0202973 0)
(10.0267 0.026822 0)
(10.0461 0.0287926 0)
(10.0671 0.0277635 0)
(10.0899 0.0237871 0)
(10.1145 0.0166312 0)
(10.1403 0.00637543 0)
(10.167 -0.00685117 0)
(10.1944 -0.0230238 0)
(10.2223 -0.0421832 0)
(10.2506 -0.0644032 0)
(10.2792 -0.0898372 0)
(10.3077 -0.118752 0)
(10.3359 -0.151538 0)
(10.3631 -0.188703 0)
(10.3882 -0.23068 0)
(10.4096 -0.277873 0)
(10.001 0.00578822 0)
(10.0089 0.0151197 0)
(10.0232 0.0198371 0)
(10.041 0.0204294 0)
(10.0607 0.0180125 0)
(10.0821 0.0127617 0)
(10.1051 0.00449875 0)
(10.1292 -0.00676524 0)
(10.1542 -0.0209407 0)
(10.1797 -0.0380085 0)
(10.2055 -0.058004 0)
(10.2315 -0.0809948 0)
(10.2575 -0.107097 0)
(10.283 -0.136492 0)
(10.3078 -0.169402 0)
(10.3312 -0.20606 0)
(10.3522 -0.24653 0)
(10.3695 -0.290709 0)
(10.0009 0.00409411 0)
(10.0077 0.0106387 0)
(10.0205 0.013543 0)
(10.0369 0.0127738 0)
(10.0553 0.00907062 0)
(10.0753 0.00263954 0)
(10.0968 -0.0066498 0)
(10.1193 -0.0188274 0)
(10.1426 -0.0338377 0)
(10.1663 -0.0516596 0)
(10.1901 -0.0723184 0)
(10.2139 -0.0958629 0)
(10.2374 -0.122365 0)
(10.2603 -0.15192 0)
(10.2821 -0.184615 0)
(10.3022 -0.220481 0)
(10.32 -0.259351 0)
(10.3344 -0.300895 0)
(10.0007 0.00258337 0)
(10.0067 0.00649198 0)
(10.0181 0.00750056 0)
(10.0331 0.00529428 0)
(10.0502 0.000302402 0)
(10.0688 -0.0072984 0)
(10.0888 -0.0176013 0)
(10.1097 -0.0306577 0)
(10.1312 -0.0464403 0)
(10.153 -0.0649294 0)
(10.1749 -0.0861362 0)
(10.1965 -0.110083 0)
(10.2176 -0.136796 0)
(10.2378 -0.16629 0)
(10.2568 -0.198543 0)
(10.274 -0.233451 0)
(10.2889 -0.27073 0)
(10.3008 -0.309927 0)
(10.0006 0.00098424 0)
(10.0058 0.00201289 0)
(10.0158 0.000820822 0)
(10.0293 -0.00308515 0)
(10.0448 -0.00955016 0)
(10.0618 -0.0184641 0)
(10.08 -0.0298955 0)
(10.099 -0.0439058 0)
(10.1185 -0.0604914 0)
(10.1381 -0.0796336 0)
(10.1576 -0.101323 0)
(10.1766 -0.12555 0)
(10.195 -0.152285 0)
(10.2124 -0.181472 0)
(10.2283 -0.212998 0)
(10.2425 -0.246665 0)
(10.2546 -0.282136 0)
(10.2641 -0.318955 0)
(10.0005 -0.000655501 0)
(10.005 -0.00266951 0)
(10.0136 -0.00634018 0)
(10.0254 -0.0122162 0)
(10.0392 -0.0203446 0)
(10.0543 -0.0307005 0)
(10.0704 -0.0433477 0)
(10.0872 -0.0583503 0)
(10.1043 -0.0757196 0)
(10.1214 -0.0954357 0)
(10.1382 -0.117468 0)
(10.1544 -0.14177 0)
(10.1698 -0.168266 0)
(10.1841 -0.196844 0)
(10.1969 -0.227333 0)
(10.2081 -0.259496 0)
(10.2173 -0.293005 0)
(10.2245 -0.327477 0)
(10.0005 -0.00231269 0)
(10.0041 -0.00747258 0)
(10.0114 -0.0138341 0)
(10.0214 -0.0219055 0)
(10.0333 -0.0318558 0)
(10.0463 -0.0437435 0)
(10.0601 -0.0576435 0)
(10.0745 -0.0736204 0)
(10.0889 -0.0916918 0)
(10.1032 -0.111835 0)
(10.1171 -0.134 0)
(10.1302 -0.15811 0)
(10.1424 -0.184059 0)
(10.1535 -0.2117 0)
(10.1631 -0.240846 0)
(10.1712 -0.271268 0)
(10.1777 -0.302685 0)
(10.1824 -0.334826 0)
(10.0004 -0.00399019 0)
(10.0034 -0.0123463 0)
(10.0093 -0.0214878 0)
(10.0176 -0.0318585 0)
(10.0273 -0.0436871 0)
(10.0381 -0.0570953 0)
(10.0494 -0.0721775 0)
(10.061 -0.088999 0)
(10.0726 -0.107579 0)
(10.0839 -0.127891 0)
(10.0946 -0.149875 0)
(10.1045 -0.173438 0)
(10.1135 -0.198458 0)
(10.1212 -0.224787 0)
(10.1277 -0.252248 0)
(10.1327 -0.280646 0)
(10.1363 -0.309765 0)
(10.1384 -0.339437 0)
(10.0003 -0.00562469 0)
(10.0027 -0.017105 0)
(10.0073 -0.029002 0)
(10.0139 -0.0416707 0)
(10.0216 -0.0553464 0)
(10.03 -0.070185 0)
(10.0387 -0.086298 0)
(10.0476 -0.103753 0)
(10.0562 -0.122571 0)
(10.0644 -0.142724 0)
(10.0719 -0.164149 0)
(10.0786 -0.186753 0)
(10.0842 -0.210415 0)
(10.0888 -0.235 0)
(10.0921 -0.260358 0)
(10.0941 -0.286336 0)
(10.0948 -0.312772 0)
(10.0941 -0.339577 0)
(10.0002 -0.00716634 0)
(10.002 -0.0215649 0)
(10.0056 -0.0359895 0)
(10.0106 -0.0506994 0)
(10.0163 -0.0659283 0)
(10.0224 -0.0818632 0)
(10.0287 -0.0986334 0)
(10.0348 -0.116312 0)
(10.0405 -0.134924 0)
(10.0457 -0.154449 0)
(10.0502 -0.174826 0)
(10.0538 -0.195968 0)
(10.0565 -0.217763 0)
(10.0581 -0.240092 0)
(10.0586 -0.262827 0)
(10.0579 -0.28585 0)
(10.056 -0.309035 0)
(10.0527 -0.332337 0)
(10.0002 -0.00838235 0)
(10.0018 -0.0250231 0)
(10.0048 -0.0412727 0)
(10.0089 -0.0573208 0)
(10.0134 -0.0734424 0)
(10.018 -0.0898798 0)
(10.0225 -0.106787 0)
(10.0266 -0.124247 0)
(10.0304 -0.142294 0)
(10.0335 -0.160916 0)
(10.0359 -0.180058 0)
(10.0375 -0.199635 0)
(10.0382 -0.219539 0)
(10.0379 -0.239655 0)
(10.0366 -0.259866 0)
(10.0343 -0.280065 0)
(10.0308 -0.300144 0)
(10.0261 -0.320064 0)
(10.0002 -0.00928792 0)
(10.0018 -0.0275397 0)
(10.0048 -0.0449481 0)
(10.0086 -0.0616832 0)
(10.0125 -0.0781394 0)
(10.0162 -0.0946448 0)
(10.0196 -0.111381 0)
(10.0226 -0.128451 0)
(10.025 -0.145911 0)
(10.0269 -0.16376 0)
(10.028 -0.181942 0)
(10.0284 -0.200362 0)
(10.028 -0.218902 0)
(10.0268 -0.237435 0)
(10.0246 -0.255833 0)
(10.0215 -0.273981 0)
(10.0175 -0.291769 0)
(10.0123 -0.309145 0)
(10.0002 -0.0101786 0)
(10.0022 -0.0299107 0)
(10.0055 -0.0481622 0)
(10.0094 -0.0652133 0)
(10.013 -0.0817071 0)
(10.0162 -0.0980571 0)
(10.0188 -0.114439 0)
(10.0209 -0.130976 0)
(10.0224 -0.147764 0)
(10.0233 -0.164825 0)
(10.0235 -0.18211 0)
(10.0231 -0.199518 0)
(10.022 -0.216918 0)
(10.0202 -0.234164 0)
(10.0177 -0.251109 0)
(10.0145 -0.267614 0)
(10.0104 -0.283559 0)
(10.0053 -0.298857 0)
(10.0003 -0.0112059 0)
(10.0029 -0.0324543 0)
(10.0072 -0.0512343 0)
(10.0114 -0.0682102 0)
(10.0149 -0.0844749 0)
(10.0177 -0.100535 0)
(10.0199 -0.11654 0)
(10.0215 -0.132631 0)
(10.0223 -0.148928 0)
(10.0224 -0.165455 0)
(10.0219 -0.182152 0)
(10.0209 -0.198906 0)
(10.0194 -0.215567 0)
(10.0174 -0.231963 0)
(10.0148 -0.247914 0)
(10.0116 -0.263249 0)
(10.0079 -0.277822 0)
(10.0033 -0.291508 0)
(10.0005 -0.0125285 0)
(10.0044 -0.0354281 0)
(10.0099 -0.0544532 0)
(10.0148 -0.0710441 0)
(10.0182 -0.0867497 0)
(10.0207 -0.102071 0)
(10.0225 -0.117205 0)
(10.0234 -0.132427 0)
(10.0236 -0.147935 0)
(10.0231 -0.163766 0)
(10.022 -0.179852 0)
(10.0206 -0.196061 0)
(10.0187 -0.212217 0)
(10.0165 -0.228108 0)
(10.0141 -0.243503 0)
(10.0112 -0.258174 0)
(10.0079 -0.271926 0)
(10.0039 -0.284574 0)
(10.0009 -0.0143532 0)
(10.0066 -0.0388074 0)
(10.014 -0.0576211 0)
(10.0197 -0.0740649 0)
(10.0233 -0.0899569 0)
(10.0257 -0.105316 0)
(10.0272 -0.120216 0)
(10.0277 -0.135043 0)
(10.0271 -0.150082 0)
(10.0257 -0.16541 0)
(10.0238 -0.180986 0)
(10.0216 -0.196695 0)
(10.019 -0.212355 0)
(10.0162 -0.227728 0)
(10.0134 -0.242547 0)
(10.0104 -0.256528 0)
(10.0071 -0.269431 0)
(10.0036 -0.280965 0)
(10.0016 -0.0171562 0)
(10.0101 -0.0429398 0)
(10.0194 -0.0594464 0)
(10.0252 -0.0734126 0)
(10.0285 -0.0875404 0)
(10.0307 -0.101576 0)
(10.0318 -0.115519 0)
(10.0316 -0.129732 0)
(10.0302 -0.144412 0)
(10.0281 -0.159582 0)
(10.0256 -0.175179 0)
(10.023 -0.191067 0)
(10.0206 -0.207026 0)
(10.0188 -0.222764 0)
(10.0177 -0.237953 0)
(10.0174 -0.252237 0)
(10.0182 -0.265324 0)
(10.0198 -0.276726 0)
(10.0028 -0.0209055 0)
(10.0163 -0.0514338 0)
(10.0285 -0.0703313 0)
(10.0348 -0.0856612 0)
(10.0384 -0.0997099 0)
(10.0417 -0.112507 0)
(10.0449 -0.124749 0)
(10.0481 -0.137182 0)
(10.0517 -0.150144 0)
(10.0564 -0.163749 0)
(10.063 -0.178049 0)
(10.0718 -0.193022 0)
(10.0835 -0.208533 0)
(10.0985 -0.224343 0)
(10.1168 -0.240123 0)
(10.1383 -0.2555 0)
(10.163 -0.270062 0)
(10.1894 -0.283287 0)
(10.0044 -0.0207994 0)
(10.0281 -0.0400303 0)
(10.0545 -0.0520246 0)
(10.0793 -0.0670365 0)
(10.107 -0.0831528 0)
(10.139 -0.0989218 0)
(10.1741 -0.114833 0)
(10.2113 -0.13144 0)
(10.2502 -0.148995 0)
(10.2902 -0.167558 0)
(10.3305 -0.18711 0)
(10.3703 -0.207514 0)
(10.4083 -0.228475 0)
(10.4432 -0.249546 0)
(10.4736 -0.270143 0)
(10.4981 -0.289675 0)
(10.5156 -0.307432 0)
(10.5247 -0.323137 0)
(10.0578 -0.0559134 0)
(10.1973 -0.0922953 0)
(10.3159 -0.104877 0)
(10.4073 -0.118242 0)
(10.4742 -0.131779 0)
(10.5157 -0.144222 0)
(10.531 -0.156342 0)
(10.5204 -0.168779 0)
(10.4847 -0.18174 0)
(10.4248 -0.195221 0)
(10.3414 -0.209092 0)
(10.2351 -0.223084 0)
(10.1068 -0.236795 0)
(9.95761 -0.249731 0)
(9.78911 -0.26133 0)
(9.60341 -0.271104 0)
(9.40272 -0.278503 0)
(9.19081 -0.283622 0)
(9.86759 -0.0494748 0)
(9.56157 -0.0868707 0)
(9.20223 -0.100046 0)
(8.81083 -0.10823 0)
(8.4086 -0.113316 0)
(8.00397 -0.115742 0)
(7.59881 -0.116669 0)
(7.19417 -0.116853 0)
(6.79098 -0.11661 0)
(6.38969 -0.116048 0)
(5.99064 -0.115151 0)
(5.59445 -0.113778 0)
(5.2023 -0.111707 0)
(4.81599 -0.108689 0)
(4.43778 -0.104497 0)
(4.07059 -0.0990123 0)
(3.71648 -0.0921488 0)
(3.38123 -0.0843159 0)
(-0.0769586 0.144884 -2.41931e-21)
(-0.221373 0.144589 2.42193e-21)
(-0.291433 0.0415891 0)
(-0.226096 -0.0680644 0)
(-0.156824 -0.0845653 0)
(-0.141041 -0.0634228 -2.56517e-21)
(-0.164176 -0.0703669 0)
(-0.207484 -0.0932443 0)
(-0.269857 -0.10648 0)
(-0.368868 -0.087742 0)
(-0.52425 -0.0267627 3.00664e-21)
(-0.750539 0.0713999 0)
(-1.05323 0.189536 0)
(-1.42736 0.307173 0)
(-1.85961 0.409345 0)
(-2.33229 0.488158 3.5601e-21)
(-2.8267 0.539462 0)
(-3.32457 0.561956 0)
(-3.80866 0.557166 0)
(-4.26342 0.528079 0)
(-4.67507 0.478358 0)
(-5.03204 0.412552 0)
(-5.32537 0.335719 0)
(-5.54902 0.252375 4.10569e-21)
(-5.69956 0.166881 -3.92856e-21)
(-5.77348 0.0850898 3.66145e-21)
(-5.769 0.0125585 3.29557e-21)
(-5.70187 -0.0497811 0)
(-5.57349 -0.104817 0)
(-5.38917 -0.153825 -1.65963e-21)
(-5.15332 -0.197593 -9.65306e-22)
(-4.87076 -0.236317 0)
(-4.54625 -0.270069 0)
(-4.1845 -0.299053 1.38102e-21)
(-3.79017 -0.323846 0)
(-3.36757 -0.344812 0)
(-2.92063 -0.362305 -3.82199e-21)
(-2.4527 -0.376777 0)
(-1.96655 -0.388807 -5.34035e-21)
(-1.46428 -0.399153 -1.2082e-20)
(-0.946957 -0.408935 0)
(-0.413322 -0.419378 0)
(0.137955 -0.430811 0)
(0.708096 -0.44286 0)
(1.29856 -0.455738 0)
(1.91115 -0.466425 -1.66887e-20)
(2.54477 -0.469314 -1.67362e-20)
(3.19243 -0.458254 -1.66104e-20)
(3.84021 -0.430208 0)
(4.463 -0.389355 1.58752e-20)
(5.03473 -0.308129 0)
(5.53588 -0.0486084 -1.47605e-20)
(5.74357 0.477844 -1.42731e-20)
(5.42147 0.996517 0)
(4.6738 1.03741 0)
(3.82892 0.507426 0)
(3.15541 -0.091868 -1.13586e-20)
(2.69823 -0.308941 0)
(2.40623 -0.186456 0)
(2.19536 0.00692406 0)
(1.95556 0.118486 0)
(1.62385 0.155157 0)
(1.24444 0.140971 0)
(0.948055 0.0542889 0)
(0.872243 -0.128526 0)
(1.13332 -0.374576 5.62236e-21)
(1.76839 -0.597744 0)
(2.70655 -0.592404 0)
(3.69985 -0.113763 -5.92022e-21)
(4.06164 0.582908 -5.57669e-21)
(3.57021 0.762847 0)
(2.8943 0.274363 4.78357e-21)
(2.53369 -0.2826 -4.60214e-21)
(2.52945 -0.470556 0)
(2.75064 -0.373392 4.74949e-21)
(2.99055 -0.201479 0)
(3.04885 -0.137381 0)
(2.87531 -0.144782 -4.27795e-21)
(2.4508 -0.0406461 0)
(1.72974 0.201118 3.15743e-21)
(0.73495 0.455151 0)
(-0.438531 0.63807 -5.35023e-22)
(-1.68932 0.738503 1.33805e-21)
(-2.93659 0.766649 3.39285e-21)
(-4.1209 0.740411 1.09794e-20)
(-5.20101 0.678936 -1.50002e-20)
(-6.15131 0.597051 0)
(-6.95957 0.505201 0)
(-7.62254 0.409796 0)
(-8.14225 0.315517 -2.60307e-20)
(-8.52318 0.226605 -2.71303e-20)
(-8.77198 0.145456 2.75289e-20)
(-8.8956 0.0734371 0)
(-8.89833 0.0137516 -2.62639e-20)
(-8.80988 -0.034423 -2.46328e-20)
(-8.6335 -0.0776937 -2.2406e-20)
(-8.37468 -0.118029 0)
(-8.03624 -0.156367 0)
(-7.62039 -0.19293 0)
(-7.12928 -0.22757 -8.66089e-21)
(-6.56553 -0.259922 0)
(-5.93285 -0.289533 0)
(-5.23642 -0.315759 -4.71302e-21)
(-4.48356 -0.337493 0)
(-3.68399 -0.353484 0)
(-2.84989 -0.362441 -1.77061e-20)
(-1.99556 -0.363413 0)
(-1.13737 -0.356533 0)
(-0.289308 -0.343617 2.7125e-20)
(0.536972 -0.327014 2.87544e-20)
(1.32932 -0.303906 0)
(2.07454 -0.273047 -2.97985e-20)
(2.75993 -0.236243 0)
(3.37586 -0.195748 2.90692e-20)
(3.91522 -0.152732 0)
(4.3722 -0.107579 2.72517e-20)
(4.74166 -0.0607976 2.61275e-20)
(5.01912 -0.0130518 0)
(5.2031 0.0387854 0)
(5.28083 0.0965375 0)
(5.23777 0.145287 0)
(5.10806 0.166588 0)
(4.92601 0.159729 0)
(4.71996 0.136672 0)
(4.5092 0.109673 1.7314e-20)
(4.30315 0.0857616 -1.65095e-20)
(4.10461 0.0671038 0)
(3.91324 0.0529263 0)
(3.72759 0.0416674 0)
(3.54683 0.0328275 0)
(3.37137 0.0265127 -2.71929e-20)
(3.20267 0.0222467 0)
(3.04298 0.0193157 2.56359e-20)
(2.89515 0.017056 -2.49845e-20)
(2.76203 0.0150684 0)
(2.64546 0.0133285 0)
(2.54564 0.011996 0)
(2.46117 0.0110916 2.30734e-20)
(2.38963 0.0103437 2.27287e-20)
(2.32843 0.00944986 0)
(2.27551 0.00827318 2.21406e-20)
(2.22932 0.00701384 2.18868e-20)
(2.18871 0.0061375 -2.16557e-20)
(2.15288 0.00586655 0)
(2.1212 0.00610431 0)
(2.09327 0.00667036 -2.10869e-20)
(2.06854 0.00742143 0)
(2.04613 0.00831097 0)
(2.02455 0.00939943 0)
(2.00181 0.0108332 0)
(1.97552 0.0127518 2.05391e-20)
(1.94316 0.0151777 2.04766e-20)
(1.90235 0.0180068 0)
(1.85104 0.0211058 2.03836e-20)
(1.78757 0.0244443 0)
(1.71038 0.0281478 0)
(1.61787 0.0322732 2.03071e-20)
(1.50875 0.0362531 0)
(1.3835 0.038239 2.02663e-20)
(1.24708 0.0351197 0)
(1.11208 0.0241146 0)
(0.998313 0.00530956 2.01937e-20)
(0.926182 -0.0169394 0)
(0.907433 -0.0357304 2.02924e-20)
(0.941318 -0.0479178 0)
(1.02742 -0.0573291 0)
(1.17567 -0.0703371 0)
(1.4127 -0.0891551 -2.08265e-20)
(1.7685 -0.103421 0)
(2.20145 -0.0877669 2.10816e-20)
(2.56768 -0.0449698 0)
(2.69878 -0.0213622 0)
(2.42523 0.0247799 0)
(1.47164 0.198868 0)
(-0.147003 0.392897 0)
(-1.88397 0.438121 0)
(-3.37097 0.358207 0)
(-4.42324 0.222804 1.71563e-20)
(-4.90389 0.0726934 0)
(-4.82565 -0.126496 0)
(-0.102067 0.493023 7.12189e-21)
(-0.265303 0.340909 -7.14162e-21)
(-0.291771 -0.0283263 0)
(-0.284755 -0.203892 4.81852e-21)
(-0.381971 -0.0788574 0)
(-0.55137 0.10064 2.52179e-21)
(-0.78977 0.222799 -4.91619e-21)
(-1.09135 0.325201 -5.00876e-21)
(-1.45977 0.460395 0)
(-1.89024 0.635875 -5.37935e-21)
(-2.36956 0.830372 -2.81462e-21)
(-2.87865 1.0185 0)
(-3.39823 1.17918 0)
(-3.91119 1.29776 0)
(-4.40264 1.36677 0)
(-4.85995 1.38494 -3.28735e-21)
(-5.27313 1.35528 0)
(-5.63496 1.28344 8.27314e-21)
(-5.94098 1.17659 0)
(-6.18948 1.04237 0)
(-6.38101 0.888159 -9.27843e-21)
(-6.51782 0.720579 0)
(-6.60316 0.545314 9.42806e-21)
(-6.64046 0.367009 -3.97295e-21)
(-6.63286 0.189814 3.81984e-21)
(-6.5839 0.0184752 -3.57051e-21)
(-6.49639 -0.142695 -3.21594e-21)
(-6.35962 -0.292581 0)
(-6.17481 -0.431091 0)
(-5.94231 -0.557721 1.61995e-21)
(-5.66454 -0.672036 -1.77214e-21)
(-5.34481 -0.773613 0)
(-4.9873 -0.862372 0)
(-4.59625 -0.938876 -1.34788e-21)
(-4.17612 -1.00361 0)
(-3.73166 -1.05749 0)
(-3.267 -1.10187 3.73472e-21)
(-2.78574 -1.13853 0)
(-2.29077 -1.16959 -4.60606e-21)
(-1.7842 -1.19744 1.1821e-20)
(-1.26741 -1.22449 0)
(-0.741022 -1.2525 0)
(-0.204355 -1.28206 2.92035e-20)
(0.34462 -1.31448 3.0539e-20)
(0.908058 -1.34997 3.12806e-20)
(1.48846 -1.38661 -1.50929e-20)
(2.08892 -1.41785 1.66639e-20)
(2.71226 -1.43172 4.81429e-20)
(3.35951 -1.41108 -3.107e-20)
(4.02645 -1.33903 -1.57919e-20)
(4.69287 -1.20055 0)
(5.33766 -0.942743 1.46072e-20)
(6.08193 -0.438444 -1.2276e-20)
(6.91725 0.32981 0)
(7.55963 1.07957 0)
(7.81638 1.53943 0)
(7.52948 1.64752 1.03534e-20)
(6.68456 1.40913 0)
(5.58343 0.946071 -1.90014e-20)
(4.58628 0.620645 0)
(3.79457 0.646431 -1.73812e-20)
(3.10132 0.793057 0)
(2.42425 0.764835 1.36134e-20)
(1.82633 0.46995 0)
(1.45791 -0.0757195 -9.73753e-21)
(1.41156 -0.798937 3.46906e-21)
(1.71721 -1.50258 0)
(2.36731 -1.85958 1.02015e-20)
(3.2633 -1.54023 5.85638e-21)
(4.32931 -0.514629 5.49256e-21)
(5.0726 0.550393 0)
(5.12998 0.968832 4.02468e-21)
(4.6769 0.744206 4.41603e-21)
(4.13658 0.198423 0)
(3.79462 -0.202616 -4.66422e-21)
(3.48489 -0.155161 9.41373e-21)
(2.85925 0.279515 0)
(1.73071 0.870404 4.31023e-21)
(0.235517 1.42864 0)
(-1.40075 1.84866 -8.17925e-21)
(-3.01735 2.08872 0)
(-4.49941 2.15245 -7.10311e-22)
(-5.78301 2.07645 -1.22917e-21)
(-6.84393 1.90515 5.91745e-21)
(-7.68717 1.68049 1.58358e-20)
(-8.33511 1.43495 -1.94766e-20)
(-8.81743 1.1896 0)
(-9.16363 0.955948 0)
(-9.3994 0.738758 0)
(-9.54572 0.538695 7.98213e-20)
(-9.61863 0.355107 2.66345e-20)
(-9.62834 0.18728 -2.7148e-20)
(-9.58187 0.0341755 0)
(-9.48474 -0.1041 -2.82504e-20)
(-9.31457 -0.228917 2.4365e-20)
(-9.07177 -0.345244 2.21568e-20)
(-8.75527 -0.455261 0)
(-8.36586 -0.560233 0)
(-7.90448 -0.660565 0)
(-7.37234 -0.755933 8.54981e-21)
(-6.77108 -0.845323 0)
(-6.1033 -0.927321 -1.39209e-21)
(-5.37359 -0.999639 1.23444e-20)
(-4.58872 -1.05952 -1.67302e-20)
(-3.75758 -1.10403 0)
(-2.89125 -1.13053 -1.61962e-20)
(-2.00257 -1.13731 0)
(-1.1054 -1.12454 -4.75638e-20)
(-0.213362 -1.09532 2.59188e-20)
(0.659188 -1.05063 2.76278e-20)
(1.50001 -0.991974 0)
(2.29888 -0.920508 8.77053e-20)
(3.0478 -0.838257 -5.79963e-20)
(3.74047 -0.747953 -2.87063e-20)
(4.37177 -0.651908 0)
(4.93774 -0.551736 -2.69064e-20)
(5.43577 -0.448444 -7.7087e-20)
(5.86498 -0.343369 0)
(6.22351 -0.235961 -4.6567e-20)
(6.52045 -0.124413 -4.41675e-20)
(6.77402 -0.0153227 -4.17462e-20)
(6.95947 0.0774843 0)
(7.05544 0.146457 0)
(7.05861 0.191189 0)
(6.97735 0.215978 1.66693e-20)
(6.82694 0.226691 1.60144e-20)
(6.62587 0.228905 0)
(6.3925 0.226648 2.92773e-20)
(6.14313 0.221964 2.818e-20)
(5.89081 0.215496 0)
(5.64475 0.207196 2.64264e-20)
(5.41077 0.196518 5.11223e-20)
(5.19221 0.182901 -2.49455e-20)
(4.99053 0.16622 -2.42237e-20)
(4.80591 0.147094 0)
(4.63789 0.126903 0)
(4.48577 0.107385 0)
(4.3486 0.0900532 -2.2547e-20)
(4.22514 0.0756923 2.2209e-20)
(4.1139 0.0642843 4.38806e-20)
(4.01324 0.055326 -2.16946e-20)
(3.9217 0.048127 2.14498e-20)
(3.83837 0.0419634 2.12521e-20)
(3.76289 0.0362662 0)
(3.69563 0.0307733 0)
(3.63722 0.0255535 -2.07209e-20)
(3.58811 0.0210232 0)
(3.54807 0.017804 0)
(3.51597 0.0164653 4.0742e-20)
(3.48984 0.0173671 0)
(3.46725 0.0206088 2.01992e-20)
(3.44564 0.026059 -2.01592e-20)
(3.4226 0.0334547 0)
(3.3958 0.0425045 2.00279e-20)
(3.36298 0.0529581 0)
(3.32208 0.0646249 0)
(3.2712 0.0772443 -1.99592e-20)
(3.20876 0.0900898 3.98251e-20)
(3.13356 0.101339 -1.98969e-20)
(3.04528 0.107585 0)
(2.94516 0.104369 0)
(2.83651 0.0884947 1.98435e-20)
(2.7241 0.0607148 0)
(2.61222 0.0246671 2.00014e-20)
(2.51298 -0.0184271 0)
(2.451 -0.0690709 0)
(2.44506 -0.132007 0)
(2.52167 -0.21337 2.05826e-20)
(2.73014 -0.30113 0)
(3.07662 -0.319502 -2.08571e-20)
(3.42101 -0.186311 0)
(3.38996 0.103316 0)
(2.33193 0.574806 3.8482e-20)
(0.110917 1.08923 -3.24517e-20)
(-2.14046 1.25839 0)
(-3.78123 1.09458 0)
(-4.78234 0.785324 0)
(-5.29176 0.463072 -5.50954e-20)
(-5.42052 0.167997 0)
(-5.27867 -0.173839 5.02966e-20)
(-0.0944642 0.86194 -7.20743e-23)
(-0.231557 0.559381 9.33245e-21)
(-0.294502 0.073035 0)
(-0.47557 0.116454 -9.43684e-21)
(-0.766694 0.473646 0)
(-1.11087 0.773767 0)
(-1.51408 1.01244 -2.11024e-23)
(-1.97333 1.23809 4.81195e-21)
(-2.47669 1.46841 5.17457e-21)
(-3.00055 1.69221 5.13497e-21)
(-3.52149 1.88819 0)
(-4.01947 2.03849 0)
(-4.48028 2.13179 -6.97671e-21)
(-4.89613 2.16334 -1.51185e-20)
(-5.26487 2.13421 1.63209e-20)
(-5.58843 2.05002 0)
(-5.87113 1.91909 1.86953e-20)
(-6.11794 1.75085 -8.10607e-21)
(-6.33307 1.55444 0)
(-6.51901 1.33787 2.15634e-20)
(-6.67607 1.10753 9.16785e-21)
(-6.80206 0.868308 -2.24617e-20)
(-6.89269 0.624027 -9.34396e-21)
(-6.94281 0.378009 0)
(-6.94703 0.133019 2.13273e-20)
(-6.90014 -0.109501 2.00695e-20)
(-6.79829 -0.347598 0)
(-6.64093 -0.577923 1.62763e-20)
(-6.42947 -0.795949 0)
(-6.16687 -0.998125 1.11021e-20)
(-5.85716 -1.18172 2.68316e-21)
(-5.50522 -1.34505 0)
(-5.11625 -1.4873 0)
(-4.6962 -1.60808 0)
(-4.25106 -1.7077 0)
(-3.78615 -1.78818 0)
(-3.30626 -1.85173 0)
(-2.8154 -1.90117 -1.46768e-20)
(-2.31705 -1.93994 2.72571e-20)
(-1.81392 -1.9719 0)
(-1.30801 -2.00092 0)
(-0.800701 -2.03068 0)
(-0.292235 -2.06425 -2.08439e-21)
(0.218229 -2.10405 -3.02522e-20)
(0.73247 -2.1509 -5.98491e-20)
(1.25323 -2.20335 6.07366e-20)
(1.78471 -2.25637 2.93998e-20)
(2.33253 -2.29916 -3.14497e-20)
(2.90319 -2.31291 2.14471e-21)
(3.50252 -2.26975 -2.80838e-20)
(4.12975 -2.14035 0)
(4.77029 -1.90484 -2.58454e-20)
(5.41676 -1.52959 1.86538e-21)
(6.11683 -0.968697 0)
(6.94329 -0.213137 0)
(7.7704 0.660703 1.88423e-20)
(8.34663 1.51702 0)
(8.45522 2.15939 0)
(8.00522 2.40258 -1.33652e-20)
(7.06626 2.25186 -3.064e-20)
(5.91603 1.96589 1.64301e-20)
(4.88883 1.80265 0)
(4.06436 1.67014 -1.30199e-20)
(3.37185 1.27427 0)
(2.78568 0.468005 -6.37036e-21)
(2.38606 -0.661933 -8.88154e-21)
(2.27793 -1.84172 1.47465e-20)
(2.51176 -2.61175 6.69384e-21)
(3.02908 -2.51253 0)
(3.65961 -1.54013 -1.76598e-20)
(4.28244 -0.17519 0)
(4.57007 0.83218 -2.50224e-20)
(4.41135 0.999234 -1.77864e-20)
(4.04909 0.571887 -1.92042e-20)
(3.3984 0.391402 1.95053e-20)
(2.2137 0.988084 -2.81777e-20)
(0.598878 1.97603 0)
(-1.16321 2.80873 0)
(-2.84832 3.34878 8.7708e-21)
(-4.31455 3.58878 7.68472e-21)
(-5.50385 3.56734 0)
(-6.42121 3.35004 1.1462e-21)
(-7.11161 3.01202 0)
(-7.63412 2.61873 -3.51734e-20)
(-8.04333 2.21716 7.94413e-21)
(-8.379 1.83484 -7.14958e-21)
(-8.66388 1.48418 4.66537e-20)
(-8.90635 1.16778 0)
(-9.10528 0.882803 -5.60347e-20)
(-9.25481 0.62437 4.48917e-21)
(-9.34729 0.387031 0)
(-9.37614 0.166083 0)
(-9.33778 -0.0417665 0)
(-9.22933 -0.240833 5.42994e-20)
(-9.0504 -0.432438 0)
(-8.80266 -0.61568 0)
(-8.48652 -0.791424 0)
(-8.10226 -0.960447 0)
(-7.65007 -1.12312 0)
(-7.13021 -1.27902 2.15218e-20)
(-6.54311 -1.42656 0)
(-5.89036 -1.56275 1.38226e-21)
(-5.17567 -1.68355 -7.63315e-21)
(-4.40482 -1.78451 1.65798e-20)
(-3.58642 -1.86101 0)
(-2.73166 -1.90885 3.33196e-20)
(-1.85387 -1.92525 0)
(-0.967598 -1.90946 4.70577e-20)
(-0.0871958 -1.86278 -5.20871e-20)
(0.772856 -1.78774 -1.63267e-19)
(1.60064 -1.68866 0)
(2.38636 -1.56992 -1.70922e-19)
(3.12303 -1.4359 -5.57076e-20)
(3.80564 -1.29073 0)
(4.43063 -1.13761 -1.08664e-19)
(4.99564 -0.979009 -1.05053e-19)
(5.4999 -0.817634 1.51847e-19)
(5.94422 -0.655332 0)
(6.3301 -0.494679 4.63371e-20)
(6.65943 -0.340716 4.39833e-20)
(6.93443 -0.196738 1.2417e-19)
(7.16181 -0.0631792 0)
(7.34459 0.0574031 0)
(7.47548 0.161689 0)
(7.54766 0.246882 3.2658e-20)
(7.55778 0.311957 0)
(7.5073 0.35721 0)
(7.40209 0.383793 -2.89573e-20)
(7.2515 0.393705 -2.78299e-20)
(7.06699 0.389567 0)
(6.8607 0.374403 0)
(6.64408 0.351492 -5.03639e-20)
(6.42671 0.323794 0)
(6.21562 0.293673 4.78154e-20)
(6.0152 0.262963 4.66937e-20)
(5.8278 0.233152 0)
(5.65444 0.205437 0)
(5.4953 0.180659 -4.43785e-20)
(5.35008 0.159214 -3.83555e-23)
(5.21805 0.14103 -3.35195e-23)
(5.09809 0.125624 0)
(4.98895 0.112307 -8.47119e-20)
(4.88953 0.100347 0)
(4.79905 0.0890692 0)
(4.71703 0.0779796 0)
(4.64322 0.0669099 4.09888e-20)
(4.57755 0.0562024 0)
(4.52004 0.0467074 -8.09911e-20)
(4.47049 0.0394806 -4.0335e-20)
(4.42813 0.0353884 0)
(4.39173 0.0348493 -4.00427e-20)
(4.35968 0.0378317 0)
(4.33035 0.0440178 0)
(4.30215 0.0529969 -1.19085e-19)
(4.27367 0.0644196 7.91861e-20)
(4.24373 0.0780234 0)
(4.21142 0.0934639 7.8895e-20)
(4.17607 0.109909 -3.9434e-20)
(4.13687 0.125404 0)
(4.09213 0.136347 0)
(4.03894 0.13814 0)
(3.97311 0.127601 -1.17684e-19)
(3.89119 0.105588 0)
(3.79301 0.0751818 -3.94788e-20)
(3.68495 0.0354073 0)
(3.57422 -0.0201522 0)
(3.46061 -0.0980005 0)
(3.36042 -0.216453 0)
(3.3416 -0.373025 0)
(3.44826 -0.437934 0)
(3.53159 -0.180676 -8.24461e-20)
(3.02334 0.536477 0)
(1.14897 1.534 -3.81136e-20)
(-1.29291 2.14388 9.04267e-20)
(-2.96612 2.03656 0)
(-3.98089 1.57408 0)
(-4.6658 1.05584 2.25539e-20)
(-5.14702 0.583287 3.80691e-20)
(-5.35095 0.155358 -5.57011e-20)
(-5.2697 -0.29176 -5.01788e-20)
(-0.0998283 1.20429 -1.3792e-20)
(-0.248629 0.825559 -1.37565e-20)
(-0.445746 0.4937 -9.21126e-21)
(-0.791564 0.801097 -4.66991e-21)
(-1.18611 1.26318 0)
(-1.61603 1.65012 9.58288e-21)
(-2.08305 1.97483 -5.38012e-21)
(-2.57555 2.25977 0)
(-3.07421 2.50275 -5.01353e-21)
(-3.55791 2.69228 0)
(-4.01221 2.81896 1.3754e-20)
(-4.43021 2.88012 0)
(-4.8119 2.87886 6.83904e-21)
(-5.16207 2.8219 1.48635e-20)
(-5.48774 2.71745 -1.60819e-20)
(-5.79548 2.57341 0)
(-6.08946 2.39609 -1.84649e-20)
(-6.37029 2.18975 0)
(-6.63486 1.95679 0)
(-6.87697 1.69852 -2.13023e-20)
(-7.08852 1.41617 0)
(-7.26074 1.11183 -5.36731e-21)
(-7.38503 0.788771 0)
(-7.45406 0.451494 0)
(-7.46336 0.105971 5.51945e-21)
(-7.40929 -0.240719 -1.98434e-20)
(-7.28879 -0.582393 -2.33722e-20)
(-7.10372 -0.911745 -1.60705e-20)
(-6.85589 -1.22224 0)
(-6.54902 -1.50819 -2.63626e-20)
(-6.18861 -1.76515 0)
(-5.78167 -1.99021 -8.69813e-21)
(-5.33651 -2.18201 0)
(-4.862 -2.34066 0)
(-4.36615 -2.46821 -2.0274e-21)
(-3.85641 -2.56745 0)
(-3.33959 -2.64177 8.81587e-21)
(-2.82028 -2.69511 2.56602e-21)
(-2.30149 -2.73149 -3.21943e-20)
(-1.78546 -2.75662 3.49964e-20)
(-1.27391 -2.77517 0)
(-0.768154 -2.7926 0)
(-0.269003 -2.81375 2.12552e-20)
(0.223486 -2.84273 0)
(0.709958 -2.88218 2.85124e-20)
(1.19215 -2.93298 -2.89598e-20)
(1.67371 -2.99283 -2.91226e-20)
(2.16082 -3.05355 0)
(2.66304 -3.09825 2.85912e-20)
(3.19268 -3.0986 2.7897e-20)
(3.76211 -3.01261 -4.87657e-20)
(4.37518 -2.79166 2.57164e-20)
(5.02194 -2.39822 2.4313e-20)
(5.68212 -1.83673 0)
(6.33285 -1.157 0)
(6.99193 -0.356869 -1.91677e-20)
(7.69519 0.643445 0)
(8.33798 1.7825 0)
(8.67489 2.78119 3.06266e-20)
(8.48097 3.33884 2.94554e-20)
(7.76158 3.39099 0)
(6.77968 3.13049 0)
(5.82824 2.73244 0)
(5.02603 2.14983 0)
(4.34499 1.24336 1.52102e-20)
(3.74074 -0.0480744 -1.30006e-20)
(3.27366 -1.58836 -1.45191e-20)
(3.07281 -2.82163 -3.18702e-20)
(3.17957 -2.98216 0)
(3.409 -1.94937 4.14441e-22)
(3.57763 -0.407748 0)
(3.65332 0.785581 1.65933e-20)
(3.54659 1.18548 9.17717e-22)
(3.0049 1.26522 1.9346e-20)
(1.70338 1.89906 -1.96555e-20)
(-0.114606 3.0492 2.54942e-21)
(-1.91863 4.04415 0)
(-3.47548 4.64848 -6.70697e-21)
(-4.69827 4.85996 -8.35019e-21)
(-5.58982 4.74886 3.33694e-21)
(-6.21694 4.41776 0)
(-6.67076 3.96884 -2.05829e-20)
(-7.03333 3.48173 0)
(-7.35824 3.00452 6.12802e-20)
(-7.6685 2.55802 -3.36938e-20)
(-7.9651 2.14576 4.06002e-20)
(-8.23801 1.76371 -4.67792e-20)
(-8.47446 1.40626 -1.17063e-19)
(-8.66323 1.06881 5.62901e-20)
(-8.79627 0.748446 -5.93587e-20)