/*--------------------------------*- C++ -*----------------------------------*\
| =========                 |                                                 |
| \\      /  F ield         | OpenFOAM: The Open Source CFD Toolbox           |
|  \\    /   O peration     | Version:  2112                                  |
|   \\  /    A nd           | Website:  www.openfoam.com                      |
|    \\/     M anipulation  |                                                 |
\*---------------------------------------------------------------------------*/
FoamFile
{
    version     2.0;
    format      ascii;
    arch        "LSB;label=32;scalar=64";
    class       volSymmTensorField;
    location    "0.35";
    object      UPrime2Mean;
}
// * * * * * * * * * * * * * * * * * * * * * * * * * * * * * * * * * * * * * //

dimensions      [0 2 -2 0 0 0 0];

internalField   nonuniform List<symmTensor> 
12225
(
(0.0241776 0.000440112 0 0.00212974 0 0)
(0.0165077 8.55593e-05 0 0.000940138 0 0)
(0.015623 -1.66105e-05 0 0.000645727 0 0)
(0.0152421 -4.55006e-05 0 0.000506701 0 0)
(0.0162913 -7.50647e-05 0 0.000423849 0 0)
(0.0191594 -0.000157076 0 0.000371038 0 0)
(0.0245058 -0.000355254 0 0.000341125 0 0)
(0.0329439 -0.000630913 0 0.000319204 0 0)
(0.0466242 -0.00122549 0 0.000326449 0 0)
(0.066579 -0.00176226 0 0.000324957 0 0)
(0.0995435 -0.00355138 0 0.000404451 0 0)
(0.146163 -0.00465414 0 0.000438505 0 0)
(0.228283 -0.0108292 0 0.000813929 0 0)
(0.346037 -0.0133424 0 0.00101961 0 0)
(0.566174 -0.0368238 0 0.00291375 0 0)
(0.914809 -0.0440929 0 0.0042003 0 0)
(1.59869 -0.120425 0 0.0138972 0 0)
(2.5375 -0.0628917 0 0.0121046 0 0)
(0.0241003 0.00032489 0 0.00261594 0 0)
(0.0158784 0.000446985 0 0.00131231 0 0)
(0.0143248 0.000378908 0 0.000913726 0 0)
(0.0130703 0.000343204 0 0.000762214 0 0)
(0.0123535 0.000299267 0 0.000685548 0 0)
(0.0122679 0.000174611 0 0.000648171 0 0)
(0.0130316 -5.55155e-05 0 0.000632334 0 0)
(0.0149745 -0.000499144 0 0.000664098 0 0)
(0.0186469 -0.00114775 0 0.00071456 0 0)
(0.0251061 -0.00241728 0 0.000904961 0 0)
(0.03572 -0.00412233 0 0.00113254 0 0)
(0.0538198 -0.00777495 0 0.00181496 0 0)
(0.0820879 -0.0125762 0 0.00267731 0 0)
(0.131964 -0.0239018 0 0.00518463 0 0)
(0.208071 -0.0390557 0 0.00862623 0 0)
(0.354111 -0.0771851 0 0.0183929 0 0)
(0.584049 -0.126093 0 0.0291014 0 0)
(1.0186 -0.234009 0 0.0625597 0 0)
(0.0242359 0.000436383 0 0.00324043 0 0)
(0.0160676 0.000327361 0 0.00160829 0 0)
(0.0146076 0.000227632 0 0.00104434 0 0)
(0.0134254 0.000139856 0 0.000861958 0 0)
(0.0127626 3.24205e-05 0 0.000788588 0 0)
(0.0125943 -0.000144705 0 0.000768136 0 0)
(0.013073 -0.000461032 0 0.000801805 0 0)
(0.0144355 -0.000964375 0 0.000886362 0 0)
(0.0169629 -0.00180112 0 0.00109409 0 0)
(0.0210858 -0.00302668 0 0.0014049 0 0)
(0.0274163 -0.00513621 0 0.00208574 0 0)
(0.0370419 -0.00819892 0 0.00306942 0 0)
(0.0510756 -0.0138362 0 0.00534866 0 0)
(0.0721483 -0.0218665 0 0.00882852 0 0)
(0.101696 -0.0372845 0 0.0170691 0 0)
(0.146009 -0.0592331 0 0.0297994 0 0)
(0.206199 -0.100137 0 0.0564723 0 0)
(0.298089 -0.16225 0 0.0980568 0 0)
(0.0227964 0.000184923 0 0.00358939 0 0)
(0.0147376 0.000105537 0 0.00185042 0 0)
(0.0132403 -2.72596e-05 0 0.00120994 0 0)
(0.0120329 -0.000141248 0 0.0010151 0 0)
(0.0114845 -0.000291034 0 0.000961069 0 0)
(0.0115595 -0.000545309 0 0.000990129 0 0)
(0.0122732 -0.000957554 0 0.00108383 0 0)
(0.013783 -0.00162617 0 0.00127537 0 0)
(0.0163118 -0.00263119 0 0.00159092 0 0)
(0.0203677 -0.0042343 0 0.00216209 0 0)
(0.0264166 -0.00663729 0 0.00308725 0 0)
(0.0354314 -0.0105189 0 0.00475176 0 0)
(0.0479002 -0.0163528 0 0.00758302 0 0)
(0.0653695 -0.0256818 0 0.012794 0 0)
(0.0878828 -0.0395498 0 0.0220194 0 0)
(0.117017 -0.0606769 0 0.0384009 0 0)
(0.151397 -0.0917001 0 0.066731 0 0)
(0.188852 -0.134447 0 0.111575 0 0)
(0.0220751 0.000435619 0 0.00396297 0 0)
(0.0141393 0.000429232 0 0.00218159 0 0)
(0.0126694 0.000197838 0 0.00139457 0 0)
(0.0113555 -4.11192e-05 0 0.00115211 0 0)
(0.0107371 -0.000306934 0 0.00111406 0 0)
(0.0108599 -0.000662038 0 0.00119431 0 0)
(0.0117019 -0.00119416 0 0.0013789 0 0)
(0.0133409 -0.00201602 0 0.00168702 0 0)
(0.0160143 -0.00329594 0 0.0022053 0 0)
(0.0201426 -0.00522494 0 0.00302661 0 0)
(0.0262261 -0.00818061 0 0.00440545 0 0)
(0.0348745 -0.0125901 0 0.00663142 0 0)
(0.0466995 -0.0192861 0 0.0104404 0 0)
(0.062308 -0.0291655 0 0.016808 0 0)
(0.082076 -0.0436505 0 0.0276607 0 0)
(0.105627 -0.0642995 0 0.045791 0 0)
(0.132008 -0.0922089 0 0.0748408 0 0)
(0.156708 -0.128299 0 0.122824 0 0)
(0.0228871 4.98296e-05 0 0.00453914 0 0)
(0.0144636 4.09466e-05 0 0.00263753 0 0)
(0.0130668 -6.46727e-05 0 0.00174837 0 0)
(0.0118149 -0.000210294 0 0.00147871 0 0)
(0.0111649 -0.000457501 0 0.00146835 0 0)
(0.0111727 -0.000856882 0 0.0016143 0 0)
(0.0118152 -0.00146951 0 0.00189637 0 0)
(0.0131678 -0.002401 0 0.00235535 0 0)
(0.0154576 -0.00381129 0 0.00308428 0 0)
(0.0190298 -0.00593437 0 0.00423963 0 0)
(0.0243146 -0.00910651 0 0.0060774 0 0)
(0.0317512 -0.0137977 0 0.00901118 0 0)
(0.0418367 -0.0206958 0 0.013754 0 0)
(0.0548501 -0.0306202 0 0.0214012 0 0)
(0.0709944 -0.0446631 0 0.0337131 0 0)
(0.0895209 -0.0637595 0 0.0531878 0 0)
(0.109378 -0.0885817 0 0.0833933 0 0)
(0.127243 -0.118307 0 0.129482 0 0)
(0.0225974 0.000154577 0 0.00479534 0 0)
(0.0141797 0.000140378 0 0.00309542 0 0)
(0.012758 -5.70876e-06 0 0.00207223 0 0)
(0.0115767 -0.000233293 0 0.00177449 0 0)
(0.0109622 -0.000539272 0 0.00180236 0 0)
(0.0109024 -0.000970186 0 0.00202183 0 0)
(0.0114331 -0.00162443 0 0.00241737 0 0)
(0.012648 -0.00264131 0 0.00304838 0 0)
(0.0147089 -0.00419451 0 0.0040359 0 0)
(0.0178395 -0.0065072 0 0.00557177 0 0)
(0.0223691 -0.00989138 0 0.00795069 0 0)
(0.0286113 -0.014768 0 0.0116472 0 0)
(0.0369045 -0.021695 0 0.0173807 0 0)
(0.0473413 -0.0313527 0 0.0263061 0 0)
(0.0598762 -0.0444315 0 0.0399659 0 0)
(0.0737223 -0.0615037 0 0.0607766 0 0)
(0.0879121 -0.0825063 0 0.0913389 0 0)
(0.100232 -0.106214 0 0.1355 0 0)
(0.0240552 0.000325282 0 0.0050822 0 0)
(0.0152914 6.41662e-05 0 0.0033642 0 0)
(0.0138451 -3.32451e-05 0 0.00231829 0 0)
(0.0125802 -0.000253223 0 0.00204283 0 0)
(0.0118408 -0.000613961 0 0.00213486 0 0)
(0.0117205 -0.00115884 0 0.0024548 0 0)
(0.0122536 -0.00195527 0 0.00299568 0 0)
(0.0134489 -0.0031147 0 0.00383397 0 0)
(0.0153792 -0.00480644 0 0.00511228 0 0)
(0.0182085 -0.00726036 0 0.00705261 0 0)
(0.0221738 -0.0107763 0 0.00998486 0 0)
(0.0274765 -0.0157274 0 0.0144215 0 0)
(0.034287 -0.0225528 0 0.0210874 0 0)
(0.0425212 -0.0317219 0 0.0310937 0 0)
(0.0519996 -0.043649 0 0.0458287 0 0)
(0.0619647 -0.0584895 0 0.0673634 0 0)
(0.0717579 -0.0758498 0 0.0976303 0 0)
(0.0798578 -0.0943678 0 0.139457 0 0)
(0.0232244 8.01805e-05 0 0.0056927 0 0)
(0.014203 -9.75922e-05 0 0.00368459 0 0)
(0.012773 -0.000282274 0 0.00258542 0 0)
(0.0117942 -0.000518494 0 0.00232976 0 0)
(0.011313 -0.000897133 0 0.00244606 0 0)
(0.0112763 -0.00145929 0 0.0028375 0 0)
(0.0117365 -0.00228069 0 0.00352233 0 0)
(0.0127867 -0.00349427 0 0.00458966 0 0)
(0.0145326 -0.00527484 0 0.0061945 0 0)
(0.0170886 -0.00783171 0 0.00858282 0 0)
(0.0206009 -0.0114159 0 0.0121028 0 0)
(0.0251459 -0.0163199 0 0.0172863 0 0)
(0.0307639 -0.0228649 0 0.0248346 0 0)
(0.0372878 -0.0313484 0 0.0357926 0 0)
(0.0444601 -0.0419438 0 0.0513459 0 0)
(0.0516403 -0.0545455 0 0.0732288 0 0)
(0.0583874 -0.0685662 0 0.102783 0 0)
(0.0638132 -0.0827556 0 0.142055 0 0)
(0.0233613 0.000178873 0 0.00596496 0 0)
(0.0144072 9.68117e-05 0 0.00419718 0 0)
(0.0129977 -0.000149728 0 0.00300628 0 0)
(0.0119217 -0.000331014 0 0.00270819 0 0)
(0.0112525 -0.000634146 0 0.00290012 0 0)
(0.0110144 -0.00118537 0 0.00342961 0 0)
(0.0112758 -0.00204417 0 0.00429998 0 0)
(0.0120932 -0.00328836 0 0.00561551 0 0)
(0.0135013 -0.00504885 0 0.00755112 0 0)
(0.0155269 -0.00750732 0 0.0103727 0 0)
(0.0182302 -0.0108832 0 0.0144381 0 0)
(0.0216427 -0.0154082 0 0.0202744 0 0)
(0.0257732 -0.0212985 0 0.028535 0 0)
(0.0304499 -0.0286984 0 0.040161 0 0)
(0.035455 -0.0376139 0 0.0561205 0 0)
(0.040329 -0.0477794 0 0.0778137 0 0)
(0.0448069 -0.0585706 0 0.106112 0 0)
(0.0484419 -0.0688862 0 0.14252 0 0)
(0.02248 0.000193531 0 0.00642937 0 0)
(0.0136654 -8.49389e-05 0 0.00461824 0 0)
(0.0122182 -0.000270846 0 0.00344388 0 0)
(0.0111878 -0.000446896 0 0.00318015 0 0)
(0.0106905 -0.000734788 0 0.00340709 0 0)
(0.0105494 -0.00123684 0 0.0040246 0 0)
(0.0107054 -0.00204493 0 0.0050623 0 0)
(0.0112193 -0.00324284 0 0.00663032 0 0)
(0.0121768 -0.00493488 0 0.00890726 0 0)
(0.0136389 -0.007259 0 0.0121695 0 0)
(0.0156378 -0.0103754 0 0.0167728 0 0)
(0.0181398 -0.0144466 0 0.0232251 0 0)
(0.0210648 -0.0195938 0 0.0321122 0 0)
(0.0242507 -0.0258527 0 0.0442556 0 0)
(0.0274744 -0.033099 0 0.0604039 0 0)
(0.0304779 -0.0410139 0 0.0816688 0 0)
(0.0330895 -0.0489419 0 0.108533 0 0)
(0.0352075 -0.056067 0 0.142149 0 0)
(0.0247071 0.000179214 0 0.00666487 0 0)
(0.0155025 -0.000191871 0 0.00500705 0 0)
(0.0138188 -0.000444451 0 0.00375586 0 0)
(0.0125112 -0.000600116 0 0.00348656 0 0)
(0.0116862 -0.000847045 0 0.00378825 0 0)
(0.0112623 -0.00130608 0 0.00453746 0 0)
(0.0111969 -0.00203544 0 0.0057588 0 0)
(0.0114661 -0.00308444 0 0.00757064 0 0)
(0.0120417 -0.00453994 0 0.0101576 0 0)
(0.0129269 -0.00651123 0 0.0137922 0 0)
(0.014141 -0.00910863 0 0.0188145 0 0)
(0.0156661 -0.0124181 0 0.0256967 0 0)
(0.0174321 -0.0164807 0 0.0349533 0 0)
(0.0193118 -0.021242 0 0.0472882 0 0)
(0.0211395 -0.0265288 0 0.0632717 0 0)
(0.0227996 -0.0320067 0 0.0837896 0 0)
(0.0242623 -0.0371142 0 0.109072 0 0)
(0.0255938 -0.0412052 0 0.140031 0 0)
(0.0238583 0.000371364 0 0.00714568 0 0)
(0.0155443 -6.06238e-05 0 0.00555555 0 0)
(0.0140556 -0.00016448 0 0.00413927 0 0)
(0.0126823 -0.000247682 0 0.00382548 0 0)
(0.0119088 -0.000461982 0 0.00416985 0 0)
(0.0116031 -0.000894781 0 0.00500152 0 0)
(0.011565 -0.00160167 0 0.00634405 0 0)
(0.0117215 -0.00261094 0 0.0083309 0 0)
(0.0120678 -0.0039675 0 0.0111585 0 0)
(0.01261 -0.005738 0 0.0150941 0 0)
(0.0133385 -0.00799029 0 0.0204506 0 0)
(0.0142151 -0.0107509 0 0.0276534 0 0)
(0.0151897 -0.0140056 0 0.0371343 0 0)
(0.0161886 -0.0176245 0 0.0494898 0 0)
(0.0171664 -0.0214243 0 0.0651273 0 0)
(0.018055 -0.025034 0 0.0847706 0 0)
(0.0189965 -0.0280385 0 0.108438 0 0)
(0.0199966 -0.0297954 0 0.136926 0 0)
(0.0241109 0.000216421 0 0.00825408 0 0)
(0.0153347 -0.000458307 0 0.00680151 0 0)
(0.0136347 -0.000570543 0 0.00516024 0 0)
(0.0124339 -0.000675189 0 0.00474551 0 0)
(0.0118613 -0.000957741 0 0.00512825 0 0)
(0.0116028 -0.00142993 0 0.00608842 0 0)
(0.0115385 -0.00211398 0 0.00761553 0 0)
(0.0116493 -0.00304826 0 0.00982504 0 0)
(0.0119189 -0.00427256 0 0.012895 0 0)
(0.012314 -0.00581562 0 0.0170761 0 0)
(0.0127996 -0.00769509 0 0.0226465 0 0)
(0.0133226 -0.00988764 0 0.0299778 0 0)
(0.0138497 -0.0123377 0 0.039412 0 0)
(0.0143368 -0.0148812 0 0.0514397 0 0)
(0.0147844 -0.017317 0 0.0663067 0 0)
(0.0152209 -0.0192962 0 0.0845921 0 0)
(0.0158031 -0.0204673 0 0.106135 0 0)
(0.0166413 -0.0203063 0 0.131618 0 0)
(0.0240869 6.16211e-05 0 0.00939742 0 0)
(0.0157334 -0.000439648 0 0.00786044 0 0)
(0.0143132 -0.000457081 0 0.00610114 0 0)
(0.0132638 -0.000546821 0 0.00567093 0 0)
(0.0125193 -0.000736081 0 0.00606648 0 0)
(0.0119028 -0.00105041 0 0.00708526 0 0)
(0.0114865 -0.00152505 0 0.00871751 0 0)
(0.0113098 -0.00217557 0 0.0110711 0 0)
(0.011312 -0.00300782 0 0.0143118 0 0)
(0.0114161 -0.00400949 0 0.0186621 0 0)
(0.011573 -0.00515822 0 0.0243511 0 0)
(0.0117392 -0.00638995 0 0.031681 0 0)
(0.0119055 -0.00762028 0 0.04089 0 0)
(0.0120617 -0.00867736 0 0.0523517 0 0)
(0.0122481 -0.00938277 0 0.0661628 0 0)
(0.0125396 -0.0094431 0 0.0827797 0 0)
(0.0131129 -0.00860802 0 0.101905 0 0)
(0.0141119 -0.00647161 0 0.124139 0 0)
(0.0232142 -0.000149368 0 0.0105965 0 0)
(0.0157306 -0.000805476 0 0.00919474 0 0)
(0.0145004 -0.00112337 0 0.00706774 0 0)
(0.0133005 -0.00122903 0 0.00653547 0 0)
(0.0124694 -0.00133837 0 0.00698236 0 0)
(0.0118375 -0.00159217 0 0.00810444 0 0)
(0.0114565 -0.00202411 0 0.00984376 0 0)
(0.0113357 -0.0025887 0 0.0122878 0 0)
(0.0113573 -0.00322277 0 0.0155849 0 0)
(0.0113959 -0.0038648 0 0.0199228 0 0)
(0.0114017 -0.00446158 0 0.0254699 0 0)
(0.0113755 -0.00493635 0 0.0324497 0 0)
(0.0113553 -0.00520397 0 0.0410083 0 0)
(0.011392 -0.00511079 0 0.0514138 0 0)
(0.0115492 -0.00451051 0 0.0636571 0 0)
(0.0119518 -0.0031743 0 0.0780893 0 0)
(0.0127445 -0.000932577 0 0.0943376 0 0)
(0.0141199 0.00251553 0 0.112931 0 0)
(0.0243334 -5.04192e-05 0 0.0116994 0 0)
(0.0164795 -0.000933162 0 0.0110596 0 0)
(0.0145544 -0.00109022 0 0.00868359 0 0)
(0.0128929 -0.00102123 0 0.00786793 0 0)
(0.0119385 -0.000887914 0 0.00818894 0 0)
(0.0113185 -0.000830758 0 0.00932097 0 0)
(0.0108995 -0.00088666 0 0.0111106 0 0)
(0.0106387 -0.000982178 0 0.0135538 0 0)
(0.0104595 -0.00101378 0 0.0167488 0 0)
(0.0102952 -0.000894951 0 0.0208515 0 0)
(0.0101296 -0.00056959 0 0.0259914 0 0)
(0.0100045 3.27998e-05 0 0.0323233 0 0)
(0.00998035 0.000985936 0 0.0399113 0 0)
(0.0101479 0.00242238 0 0.0489247 0 0)
(0.0105694 0.00445577 0 0.0592749 0 0)
(0.0113852 0.00724341 0 0.0712276 0 0)
(0.0127025 0.0108957 0 0.0843988 0 0)
(0.0146842 0.0155784 0 0.0992325 0 0)
(0.024374 -0.000145994 0 0.0121467 0 0)
(0.0170582 -0.000471856 0 0.0114003 0 0)
(0.0148605 -0.00061348 0 0.00867814 0 0)
(0.0128528 -0.000681893 0 0.00778768 0 0)
(0.0116977 -0.000623622 0 0.00814059 0 0)
(0.0108962 -0.000489604 0 0.00923083 0 0)
(0.0103075 -0.000290216 0 0.0108683 0 0)
(0.00993838 2.28961e-05 0 0.0130613 0 0)
(0.00974594 0.000515785 0 0.0158933 0 0)
(0.00967804 0.00125318 0 0.0194678 0 0)
(0.00972778 0.00228284 0 0.0238557 0 0)
(0.00993958 0.00366937 0 0.0291459 0 0)
(0.0103754 0.0054728 0 0.0353519 0 0)
(0.0111361 0.00780156 0 0.0425699 0 0)
(0.012282 0.0107181 0 0.0506822 0 0)
(0.0139532 0.0143481 0 0.0598755 0 0)
(0.0162137 0.0187042 0 0.0698155 0 0)
(0.0192144 0.023947 0 0.0808276 0 0)
(0.0234056 4.96052e-05 0 0.0117737 0 0)
(0.0167785 0.00011509 0 0.0116181 0 0)
(0.0148362 -2.43575e-05 0 0.00945548 0 0)
(0.0128644 0.000121374 0 0.00844941 0 0)
(0.0117011 0.000474308 0 0.00843328 0 0)
(0.010867 0.000866323 0 0.00914366 0 0)
(0.0103025 0.00130016 0 0.0104128 0 0)
(0.0100391 0.00186729 0 0.0121673 0 0)
(0.0100417 0.00265891 0 0.0144102 0 0)
(0.0102635 0.00374417 0 0.017191 0 0)
(0.0106925 0.005168 0 0.020542 0 0)
(0.0113663 0.00698235 0 0.0245042 0 0)
(0.012346 0.00922363 0 0.0290595 0 0)
(0.0137212 0.0119593 0 0.0342558 0 0)
(0.0155437 0.0152065 0 0.0399803 0 0)
(0.0179232 0.0190319 0 0.0463613 0 0)
(0.0209027 0.0234106 0 0.0531553 0 0)
(0.0245885 0.028433 0 0.0605607 0 0)
(0.0223619 0.000461797 0 0.0121503 0 0)
(0.0153538 0.00059315 0 0.0110595 0 0)
(0.0139248 0.000440083 0 0.00821412 0 0)
(0.0124618 0.000566037 0 0.007162 0 0)
(0.0115693 0.000935215 0 0.00721584 0 0)
(0.01104 0.00141824 0 0.00786896 0 0)
(0.0108477 0.00202112 0 0.00887045 0 0)
(0.0109928 0.00281813 0 0.0101471 0 0)
(0.0114384 0.00386756 0 0.011724 0 0)
(0.0121467 0.00520443 0 0.0136584 0 0)
(0.0131155 0.00684979 0 0.015982 0 0)
(0.0143917 0.00883955 0 0.0187177 0 0)
(0.0160372 0.0112007 0 0.0218423 0 0)
(0.0181398 0.0139833 0 0.0253716 0 0)
(0.02074 0.0171949 0 0.0292202 0 0)
(0.0239295 0.0208711 0 0.0334629 0 0)
(0.0277372 0.0249812 0 0.0379387 0 0)
(0.0322225 0.029572 0 0.0427585 0 0)
(0.0249587 0.00024024 0 0.0112467 0 0)
(0.0169088 0.000363943 0 0.0101836 0 0)
(0.0151021 0.000393108 0 0.00768505 0 0)
(0.013667 0.000572212 0 0.00658136 0 0)
(0.0126753 0.000870872 0 0.0063816 0 0)
(0.012028 0.00127518 0 0.00671857 0 0)
(0.0117715 0.00181835 0 0.00739139 0 0)
(0.0118869 0.00255001 0 0.00831686 0 0)
(0.012322 0.0035095 0 0.00948292 0 0)
(0.0130467 0.00472814 0 0.0109053 0 0)
(0.0140834 0.00623199 0 0.0125879 0 0)
(0.015503 0.0080513 0 0.0145338 0 0)
(0.0173802 0.010201 0 0.0167244 0 0)
(0.0197918 0.0127079 0 0.0191724 0 0)
(0.0227583 0.0155616 0 0.0218136 0 0)
(0.0263505 0.0187814 0 0.0247191 0 0)
(0.0305741 0.0223367 0 0.0277716 0 0)
(0.0354512 0.0262524 0 0.0310329 0 0)
(0.0251835 -0.000207099 0 0.0103247 0 0)
(0.0165235 0.000126181 0 0.0088583 0 0)
(0.0145548 0.000409517 0 0.00651249 0 0)
(0.013204 0.000785345 0 0.00556595 0 0)
(0.0123892 0.0011514 0 0.00536905 0 0)
(0.0119852 0.00153924 0 0.00554984 0 0)
(0.0119816 0.00206189 0 0.00595253 0 0)
(0.0123412 0.00280048 0 0.00652781 0 0)
(0.0130261 0.0037678 0 0.00727463 0 0)
(0.0140339 0.00495191 0 0.00820839 0 0)
(0.0154122 0.00634859 0 0.00933361 0 0)
(0.0172355 0.00797625 0 0.0106492 0 0)
(0.0195687 0.00985917 0 0.0121387 0 0)
(0.0224714 0.0120329 0 0.0138036 0 0)
(0.0259592 0.0144954 0 0.015593 0 0)
(0.0300837 0.0172648 0 0.0175578 0 0)
(0.0348429 0.020314 0 0.019619 0 0)
(0.0402324 0.0236522 0 0.0217934 0 0)
(0.0228125 -2.70041e-05 0 0.0093847 0 0)
(0.0147644 -0.000257257 0 0.00777566 0 0)
(0.0133065 -9.64148e-05 0 0.00555675 0 0)
(0.0123327 0.000275112 0 0.00461625 0 0)
(0.0117724 0.000643362 0 0.0043327 0 0)
(0.0114669 0.00100848 0 0.00439311 0 0)
(0.0114289 0.00146721 0 0.00465595 0 0)
(0.0117068 0.00209319 0 0.00506078 0 0)
(0.0123511 0.0029061 0 0.00558832 0 0)
(0.0133983 0.00390002 0 0.00623661 0 0)
(0.0148701 0.00507322 0 0.00700547 0 0)
(0.0167926 0.00644348 0 0.00789612 0 0)
(0.0191861 0.00802753 0 0.00889956 0 0)
(0.0220954 0.00985206 0 0.0100189 0 0)
(0.0255245 0.0119133 0 0.0112212 0 0)
(0.0295469 0.0142258 0 0.0125428 0 0)
(0.0341661 0.0167642 0 0.0139271 0 0)
(0.0394014 0.0195408 0 0.0153825 0 0)
(0.0237005 0.000315053 0 0.00845137 0 0)
(0.0152085 0.000172315 0 0.0060837 0 0)
(0.013696 0.000156393 0 0.00416929 0 0)
(0.0127284 0.000337644 0 0.00344929 0 0)
(0.0122025 0.000585367 0 0.00323389 0 0)
(0.0119433 0.000879175 0 0.00325591 0 0)
(0.0119424 0.00124966 0 0.003405 0 0)
(0.012226 0.00173628 0 0.00363995 0 0)
(0.0128506 0.00235936 0 0.00395168 0 0)
(0.0138809 0.00313134 0 0.00434478 0 0)
(0.0153675 0.00406663 0 0.00482222 0 0)
(0.0173482 0.00518454 0 0.00538425 0 0)
(0.0198506 0.0064959 0 0.0060233 0 0)
(0.0229064 0.00801493 0 0.00673957 0 0)
(0.0265127 0.00973334 0 0.00750932 0 0)
(0.0307158 0.0116522 0 0.00835755 0 0)
(0.0355243 0.0137477 0 0.00925076 0 0)
(0.0409148 0.0160149 0 0.0101867 0 0)
(0.0242077 0.000229794 0 0.00762612 0 0)
(0.0156512 -2.51923e-06 0 0.00551481 0 0)
(0.0140345 1.00428e-05 0 0.00379244 0 0)
(0.0129035 0.000178045 0 0.0031108 0 0)
(0.0123181 0.000407815 0 0.00287699 0 0)
(0.0121627 0.000693193 0 0.002844 0 0)
(0.0123875 0.00105809 0 0.00290631 0 0)
(0.0129342 0.00151999 0 0.0030314 0 0)
(0.0137736 0.00207759 0 0.00321267 0 0)
(0.0149237 0.00273028 0 0.00344952 0 0)
(0.0164381 0.00348815 0 0.00374051 0 0)
(0.0183925 0.00437479 0 0.00408537 0 0)
(0.0208575 0.00541207 0 0.00448187 0 0)
(0.0239018 0.00661923 0 0.00493025 0 0)
(0.0275445 0.00799216 0 0.0054133 0 0)
(0.0318336 0.00952923 0 0.00595355 0 0)
(0.0367638 0.0112091 0 0.00652542 0 0)
(0.0422987 0.0130276 0 0.00711846 0 0)
(0.0236772 -0.000186384 0 0.00642812 0 0)
(0.0158706 -8.33815e-05 0 0.00441012 0 0)
(0.014493 -3.95801e-05 0 0.00299753 0 0)
(0.0132611 8.89341e-05 0 0.00243803 0 0)
(0.012358 0.000234434 0 0.00222718 0 0)
(0.0118293 0.000408635 0 0.00216553 0 0)
(0.0117611 0.000657646 0 0.00216043 0 0)
(0.0121841 0.00100223 0 0.00218602 0 0)
(0.0130946 0.00143814 0 0.00224754 0 0)
(0.0144652 0.00195905 0 0.00235183 0 0)
(0.016265 0.00256551 0 0.0024988 0 0)
(0.0184887 0.00326663 0 0.00268479 0 0)
(0.0211623 0.00407335 0 0.00290542 0 0)
(0.0243479 0.00500127 0 0.00315973 0 0)
(0.0280766 0.00605321 0 0.00343671 0 0)
(0.0324112 0.0072336 0 0.00375239 0 0)
(0.0373565 0.00853209 0 0.00409122 0 0)
(0.0428775 0.00994433 0 0.00444024 0 0)
(0.0241079 -0.000257475 0 0.00556786 0 0)
(0.0163362 -0.000209653 0 0.00364208 0 0)
(0.0151786 2.37774e-05 0 0.00247408 0 0)
(0.0143545 0.000275005 0 0.00205401 0 0)
(0.0138458 0.000469391 0 0.00191182 0 0)
(0.0135168 0.000621138 0 0.00186502 0 0)
(0.0134852 0.00077909 0 0.00184399 0 0)
(0.0138723 0.000988397 0 0.00183685 0 0)
(0.0147221 0.0012727 0 0.00185164 0 0)
(0.0160241 0.00163831 0 0.00189315 0 0)
(0.0177606 0.00208556 0 0.00195995 0 0)
(0.0199457 0.00261734 0 0.00204955 0 0)
(0.0226167 0.00323662 0 0.00216064 0 0)
(0.0258324 0.00395247 0 0.00229338 0 0)
(0.0296014 0.00476413 0 0.00244025 0 0)
(0.0339773 0.00567119 0 0.00261449 0 0)
(0.038954 0.00666563 0 0.00280503 0 0)
(0.0444878 0.00774242 0 0.0029984 0 0)
(0.0237174 -0.000357559 0 0.00493955 0 0)
(0.0167988 -0.000372227 0 0.00291516 0 0)
(0.0156821 -0.000270481 0 0.00193211 0 0)
(0.0147731 -0.000129113 0 0.00161189 0 0)
(0.0142287 -2.1869e-05 0 0.0014776 0 0)
(0.0139424 4.52815e-05 0 0.00139253 0 0)
(0.0139782 0.000113003 0 0.00132045 0 0)
(0.0143827 0.000228417 0 0.00126118 0 0)
(0.0151711 0.00040923 0 0.00122098 0 0)
(0.0163653 0.000650008 0 0.00120244 0 0)
(0.0179962 0.000943739 0 0.00120364 0 0)
(0.0200982 0.0012914 0 0.00122198 0 0)
(0.0227019 0.00169805 0 0.00125696 0 0)
(0.0258503 0.00217337 0 0.00130827 0 0)
(0.0295377 0.00272304 0 0.00137131 0 0)
(0.0338171 0.00334806 0 0.00145603 0 0)
(0.0386913 0.00404462 0 0.00155498 0 0)
(0.0441013 0.00481275 0 0.00165603 0 0)
(0.0246407 -0.000827775 0 0.00361077 0 0)
(0.0165578 -0.000732128 0 0.00195345 0 0)
(0.0151804 -0.000566484 0 0.00134021 0 0)
(0.0143413 -0.000474228 0 0.00112555 0 0)
(0.0138633 -0.000446716 0 0.00101498 0 0)
(0.0135699 -0.000430973 0 0.000940747 0 0)
(0.0135496 -0.000387992 0 0.000881888 0 0)
(0.013881 -0.000312349 0 0.000837176 0 0)
(0.0145979 -0.000208919 0 0.000806834 0 0)
(0.0157258 -7.28316e-05 0 0.000788846 0 0)
(0.0172994 0.000109674 0 0.000780705 0 0)
(0.0193707 0.000351724 0 0.000780911 0 0)
(0.022009 0.000659566 0 0.000789461 0 0)
(0.0252959 0.00103343 0 0.000805939 0 0)
(0.0292766 0.0014717 0 0.000827715 0 0)
(0.0340555 0.00197007 0 0.000861065 0 0)
(0.0396741 0.0025274 0 0.000900804 0 0)
(0.046099 0.0031419 0 0.000938637 0 0)
(0.0238705 -0.000503622 0 0.00260029 0 0)
(0.0163899 -0.000117143 0 0.00130349 0 0)
(0.0151482 -9.8166e-05 0 0.000968935 0 0)
(0.0138904 -7.98478e-05 0 0.00082181 0 0)
(0.0131553 -6.65317e-05 0 0.000729657 0 0)
(0.0129732 -5.32241e-05 0 0.000666419 0 0)
(0.0133516 -3.30999e-05 0 0.000618267 0 0)
(0.0142715 -1.72315e-06 0 0.000579459 0 0)
(0.0157494 4.40721e-05 0 0.000547866 0 0)
(0.0178647 0.000107914 0 0.000522173 0 0)
(0.0207348 0.000192853 0 0.000501037 0 0)
(0.0244963 0.000301048 0 0.000483416 0 0)
(0.0292934 0.00043394 0 0.000469076 0 0)
(0.0352747 0.000592901 0 0.000456716 0 0)
(0.042553 0.000781897 0 0.000445389 0 0)
(0.0512949 0.00100135 0 0.000440251 0 0)
(0.0615562 0.00125005 0 0.000435277 0 0)
(0.0733743 0.00153341 0 0.000423331 0 0)
(0.0173347 -0.0323805 9.80625e-23 0.0713053 -2.20526e-22 3.55128e-38)
(0.13351 -0.0717802 -2.12793e-22 0.0495998 8.47054e-23 3.50043e-38)
(0.341644 -0.107048 0 0.0610571 0 0)
(0.585804 -0.114128 0 0.0709039 0 0)
(0.814379 -0.106787 0 0.0796202 0 0)
(1.03179 -0.105817 -2.73918e-22 0.0910108 1.86688e-22 3.29653e-38)
(1.2567 -0.120782 0 0.106365 0 0)
(1.52234 -0.157773 0 0.114812 0 0)
(1.86212 -0.20204 0 0.113608 0 0)
(2.28875 -0.236266 0 0.102908 0 0)
(2.78888 -0.25952 1.19301e-21 0.0931965 -1.23358e-23 3.05166e-38)
(3.33652 -0.276898 0 0.0863614 0 0)
(3.90774 -0.26682 0 0.0751628 0 0)
(4.4696 -0.233864 0 0.0656845 0 0)
(4.98971 -0.190894 0 0.0578173 0 0)
(5.44343 -0.156299 1.57293e-21 0.0558042 1.41757e-22 2.81971e-38)
(5.84836 -0.118851 0 0.0625794 0 0)
(6.17551 -0.0671694 0 0.0673288 0 0)
(6.42454 -0.0231533 0 0.075948 0 0)
(6.59839 0.0125412 0 0.0848655 0 0)
(6.73402 0.0363421 0 0.0962366 0 0)
(6.84293 0.0454617 0 0.106447 0 0)
(6.94128 0.0716668 0 0.126454 0 0)
(7.04486 0.0869699 -4.68932e-22 0.143416 3.2018e-22 2.47546e-38)
(7.16118 0.103461 8.92202e-22 0.166342 -2.78357e-22 2.4346e-38)
(7.30296 0.0772572 -1.30919e-21 0.178394 2.43893e-22 2.39418e-38)
(7.51491 0.0267984 -1.71195e-21 0.20449 2.06137e-22 2.3542e-38)
(7.7823 -0.0254901 0 0.211587 0 0)
(8.12795 -0.105356 0 0.21913 0 0)
(8.56106 -0.170322 2.85916e-21 0.226659 -1.34692e-22 2.23676e-38)
(9.05712 -0.229027 3.20785e-21 0.228191 -9.41873e-23 2.19845e-38)
(9.64065 -0.293457 0 0.245226 0 0)
(10.2949 -0.355538 0 0.262172 0 0)
(10.9875 -0.410515 4.23722e-21 0.28565 -7.92152e-23 2.0862e-38)
(11.6996 -0.432467 0 0.288729 0 0)
(12.4434 -0.444643 0 0.299463 0 0)
(13.2493 -0.505221 -5.29803e-21 0.317202 7.87582e-23 1.97815e-38)
(14.1441 -0.544187 0 0.322572 0 0)
(15.112 -0.56713 -6.03248e-21 0.331429 1.16106e-22 1.90838e-38)
(16.1515 -0.628755 -1.28624e-20 0.347337 2.89306e-22 7.49677e-38)
(17.3473 -0.68886 0 0.329889 0 0)
(18.6604 -0.727162 0 0.324448 0 0)
(19.9602 -0.729647 0 0.301111 0 0)
(21.1378 -0.63703 0 0.263848 0 0)
(22.0713 -0.528424 0 0.246722 0 0)
(22.7868 -0.436987 -1.96162e-20 0.245679 6.18299e-22 6.71487e-38)
(23.3361 -0.380738 -2.08976e-20 0.250473 6.13554e-22 6.59099e-38)
(23.7557 -0.351982 -2.20593e-20 0.250148 5.71462e-22 6.4689e-38)
(24.127 -0.354515 0 0.239708 0 0)
(24.4335 -0.327415 2.37853e-20 0.236317 -5.04661e-22 6.22998e-38)
(24.9245 -0.4394 0 0.2193 0 0)
(25.4825 -0.601902 -2.49677e-20 0.271011 6.207e-22 5.99785e-38)
(25.9742 -0.565887 -2.55285e-20 0.247467 5.1018e-22 5.8844e-38)
(25.9967 -0.519302 0 0.313371 0 0)
(25.753 -0.316271 0 0.244119 0 0)
(25.1184 -0.0207682 0 0.267096 0 0)
(24.4338 -0.0394357 -2.72028e-20 0.26988 4.15859e-22 5.44736e-38)
(24.0184 -0.1534 0 0.244535 0 0)
(23.8121 -0.256738 0 0.213615 0 0)
(23.9042 -0.3534 0 0.208091 0 0)
(24.3846 -0.449517 0 0.226908 0 0)
(25.02 -0.531566 0 0.224375 0 0)
(25.6295 -0.634663 0 0.234302 0 0)
(26.2519 -0.460379 0 0.191309 0 0)
(26.6087 -0.409042 0 0.238012 0 0)
(27.1824 -0.434321 3.28942e-20 0.215158 -3.5154e-22 4.55839e-38)
(27.9101 -0.476924 0 0.194477 0 0)
(28.8062 -0.457491 0 0.163761 0 0)
(29.7381 -0.426103 -3.45148e-20 0.147562 4.0374e-22 4.28928e-38)
(30.7326 -0.420432 -3.51562e-20 0.12429 4.01567e-22 4.20251e-38)
(31.6843 -0.402947 0 0.114576 0 0)
(32.459 -0.410893 3.63632e-20 0.10979 -3.29932e-22 4.03331e-38)
(33.167 -0.410357 -3.68435e-20 0.108109 3.40064e-22 3.95082e-38)
(33.7023 -0.358277 0 0.108564 0 0)
(34.0594 -0.287708 3.74727e-20 0.118453 -3.48904e-22 3.78992e-38)
(34.3588 -0.217653 0 0.127749 0 0)
(34.4089 -0.225343 0 0.146842 0 0)
(34.4185 -0.204097 -3.70871e-20 0.131964 3.55125e-22 3.55833e-38)
(34.2465 -0.0553537 0 0.133899 0 0)
(34.0353 -0.0726859 3.58349e-20 0.132891 -1.93979e-22 3.41029e-38)
(33.8975 -0.0683181 0 0.115618 0 0)
(33.7087 -0.0466383 -3.4385e-20 0.107239 1.65613e-22 3.26725e-38)
(33.468 -0.021369 -3.3636e-20 0.0971929 1.46971e-22 3.1976e-38)
(33.1895 -0.00562607 -3.28717e-20 0.0879115 1.35458e-22 3.12916e-38)
(32.8506 0.0133501 -6.41399e-20 0.0838037 2.36099e-22 1.22477e-37)
(32.4587 0.00882263 6.2465e-20 0.0801021 -2.0192e-22 1.19835e-37)
(32.0287 -0.01223 0 0.0798515 0 0)
(31.5112 0.0481425 0 0.0874737 0 0)
(30.8567 0.107614 0 0.0887912 0 0)
(30.2146 0.103204 5.59164e-20 0.0945771 -1.61766e-22 1.09724e-37)
(29.6926 0.0721513 5.44751e-20 0.0900656 -1.71161e-22 1.07307e-37)
(29.2977 0.0394313 -5.32245e-20 0.0840741 1.91215e-22 1.04933e-37)
(29.0075 0.0111124 0 0.0782331 0 0)
(28.8131 -0.0129239 5.1177e-20 0.0718107 -2.8634e-22 1.00312e-37)
(28.6893 -0.0291262 5.03928e-20 0.0664306 -3.34832e-22 9.8064e-38)
(28.622 -0.0292509 4.97623e-20 0.0634132 -3.2966e-22 9.58563e-38)
(28.5204 -0.0178839 0 0.0622696 0 0)
(28.3882 -0.0179529 0 0.0579286 0 0)
(28.2526 -0.0203099 0 0.0651988 0 0)
(28.0172 0.00403728 4.69339e-20 0.0734423 -2.30643e-22 8.74165e-38)
(27.6897 0.0193249 0 0.082153 0 0)
(27.2805 0.0412927 0 0.0879235 0 0)
(26.7469 0.0526473 -4.44211e-20 0.0887721 1.1556e-22 8.14782e-38)
(26.3062 0.0104739 0 0.0993324 0 0)
(26.1062 -0.0891469 0 0.0977676 0 0)
(26.1663 -0.150892 -4.25688e-20 0.0974754 3.25747e-22 7.58593e-38)
(26.2076 -0.131365 0 0.116435 0 0)
(26.4206 -0.171553 0 0.122181 0 0)
(26.8399 -0.207209 4.20971e-20 0.110887 -3.77933e-22 7.05465e-38)
(27.415 -0.207634 4.23115e-20 0.0904271 -3.92645e-22 6.88426e-38)
(27.9481 -0.175877 0 0.0770038 0 0)
(28.4222 -0.15056 -4.28222e-20 0.0715838 3.23409e-22 6.55317e-38)
(28.8269 -0.130761 0 0.0670134 0 0)
(29.158 -0.103957 4.2638e-20 0.0595351 -2.60675e-22 6.23445e-38)
(29.3284 -0.0556586 0 0.0510665 0 0)
(29.2615 0.00647864 4.12092e-20 0.0446948 -1.52317e-22 5.92763e-38)
(28.9161 0.0696752 3.99322e-20 0.0411369 -9.42481e-23 5.77855e-38)
(28.304 0.123701 0 0.039576 0 0)
(27.4609 0.166794 0 0.0391127 0 0)
(26.4341 0.195588 0 0.0387212 0 0)
(25.2943 0.212617 0 0.0367998 0 0)
(24.0841 0.221795 0 0.0349724 0 0)
(22.8311 0.223909 0 0.0337564 0 0)
(21.5732 0.218923 0 0.0331296 0 0)
(20.352 0.206273 2.28355e-20 0.0332923 -2.89793e-23 4.68521e-38)
(19.2128 0.185291 -2.11027e-20 0.0342548 5.34777e-23 4.56047e-38)
(18.2023 0.155667 0 0.0359495 0 0)
(17.36 0.120698 0 0.0362965 0 0)
(16.6879 0.0913898 0 0.0344772 0 0)
(16.1615 0.0673767 0 0.0334644 0 0)
(15.7747 0.0439883 -3.3077e-20 0.0335078 4.69596e-22 1.58935e-37)
(15.5219 0.0222567 0 0.0336977 0 0)
(15.4012 0.000170986 3.27439e-20 0.0348543 -5.36025e-22 1.50196e-37)
(15.4236 -0.0263891 -3.30369e-20 0.037426 5.54424e-22 1.4596e-37)
(15.6086 -0.0560914 0 0.0395132 0 0)
(15.9388 -0.080556 0 0.0398308 0 0)
(16.37 -0.0961306 0 0.0392573 0 0)
(16.86 -0.10363 3.5209e-20 0.0397885 -5.4412e-22 1.29876e-37)
(17.3894 -0.1114 3.55013e-20 0.0438426 -5.11705e-22 1.26062e-37)
(17.9959 -0.129142 0 0.0488899 0 0)
(18.7197 -0.15075 3.55108e-20 0.0519736 -3.95885e-22 1.18672e-37)
(19.5112 -0.15623 3.54899e-20 0.050146 -3.71366e-22 1.15096e-37)
(20.2343 -0.134517 -3.54496e-20 0.0449064 3.43829e-22 1.11596e-37)
(20.7933 -0.0971952 0 0.040142 0 0)
(21.138 -0.053799 0 0.0363365 0 0)
(21.2439 -0.00791206 -3.32747e-20 0.0334451 2.20906e-22 1.01543e-37)
(21.1182 0.033253 0 0.0323519 0 0)
(20.8089 0.0620681 0 0.0328333 0 0)
(20.3852 0.0754898 0 0.0341727 0 0)
(19.9299 0.076414 0 0.0357829 0 0)
(19.4988 0.0714843 2.33245e-20 0.0374278 -1.65177e-22 8.61995e-38)
(19.1164 0.0644174 2.17072e-20 0.038881 -2.2264e-22 8.33357e-38)
(18.793 0.0559416 0 0.0399733 0 0)
(18.5411 0.0466713 1.98679e-20 0.0411489 -2.94525e-22 7.78053e-38)
(18.3629 0.0390368 0 0.0430379 0 0)
(18.2512 0.0328946 0 0.0453515 0 0)