/*--------------------------------*- C++ -*----------------------------------*\
| =========                 |                                                 |
| \\      /  F ield         | OpenFOAM: The Open Source CFD Toolbox           |
|  \\    /   O peration     | Version:  2112                                  |
|   \\  /    A nd           | Website:  www.openfoam.com                      |
|    \\/     M anipulation  |                                                 |
\*---------------------------------------------------------------------------*/
FoamFile
{
    version     2.0;
    format      ascii;
    arch        "LSB;label=32;scalar=64";
    class       volScalarField;
    location    "0.22";
    object      p;
}
// * * * * * * * * * * * * * * * * * * * * * * * * * * * * * * * * * * * * * //

dimensions      [0 2 -2 0 0 0 0];

internalField   nonuniform List<scalar> 
12225
(
-1.03102
-1.98634
-2.34563
-2.47237
-2.62702
-2.79579
-2.92082
-3.01889
-3.13005
-3.24275
-3.33501
-3.39937
-3.43525
-3.46053
-3.48752
-3.49281
-3.48818
-3.18899
-1.4295
-2.0178
-2.33083
-2.45164
-2.58064
-2.71976
-2.82227
-2.89605
-2.96878
-3.0356
-3.08357
-3.11377
-3.14229
-3.17253
-3.20995
-3.25541
-3.35925
-3.60292
-1.55537
-1.96611
-2.29926
-2.45443
-2.58895
-2.73302
-2.85157
-2.94508
-3.03536
-3.12377
-3.20021
-3.26121
-3.30974
-3.34798
-3.3864
-3.43442
-3.53581
-3.74126
-1.68875
-2.01211
-2.32734
-2.48529
-2.60707
-2.73766
-2.84983
-2.93811
-3.01891
-3.09557
-3.16073
-3.21207
-3.25561
-3.29935
-3.35422
-3.43052
-3.55901
-3.75965
-1.81234
-2.05643
-2.33191
-2.49034
-2.60877
-2.73322
-2.8454
-2.93743
-3.02108
-3.1011
-3.17329
-3.23639
-3.29531
-3.35631
-3.42768
-3.51934
-3.65341
-3.84715
-1.92234
-2.1045
-2.34336
-2.50334
-2.62133
-2.73966
-2.84955
-2.94263
-3.02633
-3.10559
-3.17846
-3.24417
-3.30669
-3.37213
-3.44866
-3.54597
-3.67926
-3.85769
-2.02095
-2.158
-2.36241
-2.51806
-2.63363
-2.74512
-2.85133
-2.94446
-3.0284
-3.10779
-3.18245
-3.25239
-3.32113
-3.39439
-3.47921
-3.58308
-3.71508
-3.87856
-2.10999
-2.21414
-2.3865
-2.53356
-2.6464
-2.75245
-2.85513
-2.948
-3.03243
-3.11234
-3.18874
-3.2622
-3.33573
-3.41411
-3.5029
-3.60743
-3.73271
-3.87893
-2.19065
-2.27072
-2.41482
-2.55091
-2.66044
-2.76177
-2.86058
-2.95231
-3.0368
-3.11708
-3.19478
-3.27091
-3.34795
-3.42973
-3.52046
-3.6237
-3.74185
-3.87339
-2.26388
-2.32633
-2.44642
-2.5703
-2.67547
-2.77238
-2.86723
-2.95728
-3.04156
-3.12216
-3.20089
-3.27899
-3.35847
-3.44222
-3.53322
-3.63358
-3.74407
-3.86244
-2.33045
-2.37993
-2.48009
-2.59144
-2.69131
-2.78401
-2.87502
-2.963
-3.04668
-3.12734
-3.20666
-3.2859
-3.36666
-3.45098
-3.54079
-3.63717
-3.73997
-3.84684
-2.38587
-2.42662
-2.51185
-2.61207
-2.70643
-2.79533
-2.88293
-2.96871
-3.05146
-3.13183
-3.21122
-3.29081
-3.37181
-3.45562
-3.54345
-3.63571
-3.73185
-3.82968
-2.4363
-2.47036
-2.54325
-2.63316
-2.72176
-2.80685
-2.89115
-2.97459
-3.05608
-3.13586
-3.21493
-3.2943
-3.37484
-3.45744
-3.54272
-3.63069
-3.72059
-3.81053
-2.48804
-2.51626
-2.57792
-2.65737
-2.73934
-2.82002
-2.90066
-2.98128
-3.06098
-3.13962
-3.21781
-3.29624
-3.37546
-3.45591
-3.53777
-3.62075
-3.7041
-3.78627
-2.53912
-2.56246
-2.61434
-2.68381
-2.75861
-2.8343
-2.9109
-2.98824
-3.06552
-3.14233
-3.21888
-3.2955
-3.37244
-3.44979
-3.52742
-3.60493
-3.68164
-3.7564
-2.58667
-2.60609
-2.64991
-2.71043
-2.77806
-2.84843
-2.92068
-2.99432
-3.06854
-3.14276
-3.2168
-3.2907
-3.36442
-3.43781
-3.51059
-3.58234
-3.65253
-3.72035
-2.62644
-2.6429
-2.68051
-2.73366
-2.79479
-2.85992
-2.92772
-2.99739
-3.06805
-3.13895
-3.2097
-3.28005
-3.34977
-3.41858
-3.48617
-3.55215
-3.61612
-3.6776
-2.65203
-2.66652
-2.69998
-2.74794
-2.80402
-2.86466
-2.92838
-2.99419
-3.06113
-3.12836
-3.19532
-3.26162
-3.32692
-3.39088
-3.45321
-3.5136
-3.57179
-3.62748
-2.65311
-2.66689
-2.69879
-2.74459
-2.79817
-2.85603
-2.91681
-2.97956
-3.04328
-3.1071
-3.17042
-3.23279
-3.29387
-3.35333
-3.41089
-3.46633
-3.51948
-3.5702
-2.62139
-2.63645
-2.67089
-2.71918
-2.77413
-2.83226
-2.89264
-2.95456
-3.017
-3.07908
-3.14027
-3.2002
-3.25854
-3.31497
-3.36926
-3.42121
-3.47073
-3.51778
-2.57542
-2.59313
-2.63301
-2.68686
-2.7454
-2.80537
-2.8668
-2.92931
-2.99183
-3.05356
-3.11414
-3.1733
-3.23067
-3.28591
-3.33873
-3.38896
-3.43649
-3.48136
-2.51678
-2.53928
-2.58844
-2.65083
-2.71431
-2.77697
-2.84034
-2.90409
-2.96698
-3.0285
-3.08868
-3.1474
-3.20427
-3.25884
-3.31076
-3.35985
-3.40599
-3.44926
-2.44783
-2.47837
-2.54171
-2.61493
-2.68329
-2.74876
-2.81498
-2.881
-2.94513
-3.00731
-3.06813
-3.12758
-3.1851
-3.24005
-3.29196
-3.34055
-3.38561
-3.42712
-2.36946
-2.41314
-2.49697
-2.58266
-2.65478
-2.72215
-2.79036
-2.85731
-2.92128
-2.98322
-3.04435
-3.10469
-3.16341
-3.2196
-3.27264
-3.32213
-3.36788
-3.41014
-2.28161
-2.34651
-2.45672
-2.55429
-2.63034
-2.70247
-2.7751
-2.84377
-2.90752
-2.96905
-3.03041
-3.09154
-3.15114
-3.20791
-3.26096
-3.30967
-3.35339
-3.39154
-2.18328
-2.28417
-2.42564
-2.52609
-2.59873
-2.67346
-2.74996
-2.81996
-2.88347
-2.94526
-3.00851
-3.07299
-3.13675
-3.19806
-3.25584
-3.30947
-3.35867
-3.40427
-2.0704
-2.22885
-2.41781
-2.5244
-2.5945
-2.67069
-2.74773
-2.81512
-2.87423
-2.93173
-2.99199
-3.05455
-3.11661
-3.17568
-3.23009
-3.27875
-3.32048
-3.35473
-1.94506
-2.15428
-2.37023
-2.47779
-2.5564
-2.64422
-2.72847
-2.79959
-2.86165
-2.9236
-2.99071
-3.06203
-3.13427
-3.20488
-3.27209
-3.33455
-3.39204
-3.44736
-1.85343
-2.20628
-2.41448
-2.48229
-2.55074
-2.63707
-2.71496
-2.77523
-2.82431
-2.87503
-2.93401
-2.99775
-3.061
-3.12059
-3.17435
-3.22054
-3.25815
-3.2906
-1.45716
-2.14543
-2.40989
-2.4741
-2.55258
-2.65349
-2.74353
-2.81218
-2.86575
-2.92327
-2.9967
-3.08106
-3.16894
-3.25587
-3.33866
-3.41357
-3.47855
-3.52558
-5.16702
-5.18007
-5.18163
-5.18204
-5.18293
-5.18401
-5.18513
-5.18636
-5.18775
-5.18934
-5.19114
-5.19319
-5.19551
-5.19814
-5.20108
-5.20438
-5.20807
-5.21219
-5.21679
-5.22195
-5.22779
-5.23435
-5.24139
-5.24853
-5.25581
-5.26352
-5.27178
-5.28061
-5.29004
-5.30007
-5.3107
-5.32193
-5.33376
-5.34621
-5.35927
-5.37298
-5.38734
-5.40234
-5.41799
-5.43426
-5.45114
-5.4686
-5.48659
-5.50507
-5.52399
-5.54329
-5.56291
-5.58275
-5.60273
-5.62277
-5.64275
-5.66257
-5.68212
-5.70128
-5.71993
-5.73794
-5.75521
-5.77167
-5.78722
-5.80167
-5.81486
-5.82664
-5.83687
-5.84542
-5.85217
-5.85698
-5.85975
-5.86034
-5.85866
-5.85459
-5.84803
-5.83888
-5.82704
-5.81243
-5.79494
-5.7745
-5.75103
-5.72445
-5.6947
-5.66173
-5.62548
-5.58591
-5.54298
-5.49666
-5.44693
-5.39377
-5.33716
-5.27711
-5.2136
-5.14666
-5.07632
-5.00263
-4.92566
-4.8454
-4.76189
-4.67527
-4.58548
-4.49231
-4.39587
-4.29627
-4.19358
-4.08784
-3.97913
-3.86751
-3.75304
-3.63578
-3.51578
-3.39311
-3.26782
-3.13998
-3.00964
-2.87687
-2.74172
-2.60426
-2.46454
-2.32262
-2.17854
-2.03234
-1.88409
-1.73389
-1.58188
-1.42802
-1.27229
-1.11476
-0.955489
-0.794542
-0.631976
-0.467846
-0.3022
-0.135086
0.0334456
0.203341
0.374547
0.547013
0.72069
0.895533
1.07149
1.24852
1.42657
1.60561
1.78558
1.96647
2.14821
2.33079
2.51416
2.69827
2.88309
3.06857
3.25467
3.44136
3.62859
3.81632
4.00449
4.19307
4.38201
4.57125
4.76075
4.95045
5.14029
5.3302
5.52013
5.71002
5.89979
6.08938
6.27871
6.4677
6.65625
6.84422
7.03143
7.21751
7.40195
7.58406
7.75942
7.91791
8.07161
8.23557
8.40278
8.56967
8.75722
8.91456
-5.14598
-5.16455
-5.1651
-5.16449
-5.16482
-5.16556
-5.16649
-5.16762
-5.16896
-5.1705
-5.17223
-5.17415
-5.17627
-5.1786
-5.18115
-5.18393
-5.18695
-5.19021
-5.19371
-5.19745
-5.20137
-5.20543
-5.20971
-5.21454
-5.22008
-5.22625
-5.23295
-5.24016
-5.2479
-5.2562
-5.26509
-5.27463
-5.28485
-5.29578
-5.30745
-5.31986
-5.33301
-5.34691
-5.36154
-5.3769
-5.39296
-5.40971
-5.42712
-5.44514
-5.46374
-5.48284
-5.5024
-5.52232
-5.54253
-5.56293
-5.58342
-5.60389
-5.62423
-5.64433
-5.66406
-5.68331
-5.70195
-5.71982
-5.73672
-5.75243
-5.76682
-5.77979
-5.79123
-5.80103
-5.80904
-5.81516
-5.81927
-5.82123
-5.82095
-5.81829
-5.81317
-5.80546
-5.79506
-5.7819
-5.76587
-5.74689
-5.72489
-5.6998
-5.67154
-5.64005
-5.60528
-5.56717
-5.5257
-5.48084
-5.43255
-5.38084
-5.3257
-5.26712
-5.20512
-5.13971
-5.07087
-4.99857
-4.92282
-4.84366
-4.76111
-4.67512
-4.5859
-4.49354
-4.39801
-4.29932
-4.19753
-4.09268
-3.98483
-3.87404
-3.76037
-3.64389
-3.52466
-3.40275
-3.27823
-3.15114
-3.02156
-2.88953
-2.75513
-2.61839
-2.4794
-2.33821
-2.19488
-2.04951
-1.90218
-1.75296
-1.60186
-1.44872
-1.29357
-1.13656
-0.977772
-0.817259
-0.655084
-0.491311
-0.326004
-0.159223
0.00897685
0.17854
0.349414
0.521548
0.694894
0.8694
1.04501
1.22168
1.39934
1.57794
1.75742
1.93773
2.11883
2.30067
2.48318
2.66632
2.85004
3.03428
3.21901
3.40416
3.58971
3.77563
3.96186
4.14836
4.33507
4.52193
4.70885
4.89575
5.08254
5.26913
5.45543
5.64137
5.82685
6.01179
6.19611
6.37971
6.56249
6.74434
6.92511
7.10458
7.28251
7.4596
7.63962
7.82251
7.99937
8.1676
8.33592
8.50156
8.67029
8.80415
-5.14787
-5.17173
-5.17353
-5.17265
-5.17284
-5.1735
-5.17434
-5.17538
-5.17665
-5.17814
-5.17985
-5.18179
-5.18397
-5.1864
-5.18908
-5.19204
-5.19528
-5.19881
-5.20267
-5.20685
-5.21136
-5.21619
-5.22136
-5.22693
-5.23294
-5.23944
-5.24644
-5.25397
-5.26204
-5.27069
-5.27994
-5.28981
-5.30033
-5.31153
-5.32341
-5.336
-5.34931
-5.36333
-5.37808
-5.39353
-5.40967
-5.42647
-5.44391
-5.46194
-5.48051
-5.49956
-5.51903
-5.53883
-5.55888
-5.57909
-5.59935
-5.61956
-5.63959
-5.65934
-5.67868
-5.69748
-5.71562
-5.73295
-5.74933
-5.7646
-5.7786
-5.79122
-5.80232
-5.81176
-5.81943
-5.8252
-5.82895
-5.83056
-5.82992
-5.82693
-5.82146
-5.81342
-5.80272
-5.78925
-5.77294
-5.75369
-5.73142
-5.70607
-5.67757
-5.64585
-5.61086
-5.57255
-5.53089
-5.48584
-5.43738
-5.3855
-5.3302
-5.27147
-5.20931
-5.14375
-5.07479
-5.00244
-4.9267
-4.8476
-4.76517
-4.67947
-4.59038
-4.49811
-4.40268
-4.30411
-4.20245
-4.09773
-3.99002
-3.87938
-3.76586
-3.64953
-3.53047
-3.40872
-3.28436
-3.15744
-3.02803
-2.89619
-2.76196
-2.62542
-2.48662
-2.34561
-2.20247
-2.05726
-1.91003
-1.76086
-1.60977
-1.45671
-1.30173
-1.14491
-0.986325
-0.826033
-0.664091
-0.500561
-0.335502
-0.168971
-0.0010214
0.168293
0.338919
0.510805
0.6839
0.858154
1.03351
1.20992
1.38732
1.56568
1.74492
1.92501
2.1059
2.28755
2.46989
2.65288
2.83646
3.02058
3.2052
3.39028
3.57576
3.76162
3.9478
4.13426
4.32093
4.50776
4.69467
4.88158
5.06839
5.25503
5.44141
5.62746
5.8131
5.99824
6.1828
6.36672
6.54991
6.73232
6.9139
7.09464
7.27467
7.45479
7.63736
7.82099
7.99688
8.16589
8.33415
8.49821
8.66674
8.79522
-5.14674
-5.17197
-5.17472
-5.17381
-5.17388
-5.17442
-5.17515
-5.1761
-5.1773
-5.17875
-5.18045
-5.1824
-5.18459
-5.18704
-5.18976
-5.19275
-5.19604
-5.19962
-5.20352
-5.20774
-5.21232
-5.21726
-5.22259
-5.22834
-5.23455
-5.24125
-5.24848
-5.25624
-5.26458
-5.27351
-5.28307
-5.29326
-5.30413
-5.31568
-5.32794
-5.34091
-5.35461
-5.36904
-5.38419
-5.40004
-5.41658
-5.43379
-5.45161
-5.47001
-5.48894
-5.50833
-5.5281
-5.54818
-5.56848
-5.58889
-5.60933
-5.62967
-5.6498
-5.66959
-5.68894
-5.7077
-5.72575
-5.74294
-5.75915
-5.77421
-5.78801
-5.80039
-5.81125
-5.82044
-5.82785
-5.83335
-5.83683
-5.83817
-5.83726
-5.834
-5.82827
-5.81999
-5.80904
-5.79535
-5.77883
-5.75939
-5.73695
-5.71145
-5.68281
-5.65097
-5.61587
-5.57748
-5.53575
-5.49066
-5.44218
-5.39029
-5.335
-5.27631
-5.21421
-5.14873
-5.07987
-5.00763
-4.93203
-4.85309
-4.77084
-4.68527
-4.59646
-4.50443
-4.40922
-4.31088
-4.20943
-4.10494
-3.99746
-3.88705
-3.77377
-3.65768
-3.53886
-3.41736
-3.29325
-3.16658
-3.03742
-2.90583
-2.77186
-2.63557
-2.49702
-2.35627
-2.21338
-2.06839
-1.92138
-1.77238
-1.62143
-1.46854
-1.31374
-1.15712
-0.998737
-0.838644
-0.676904
-0.513574
-0.348711
-0.182373
-0.0146133
0.154516
0.324963
0.496677
0.669608
0.843705
1.01891
1.19518
1.37246
1.5507
1.72985
1.90987
2.09072
2.27234
2.4547
2.63774
2.82141
3.00569
3.19051
3.37583
3.56162
3.74784
3.93443
4.12136
4.30856
4.49599
4.68359
4.87127
5.05897
5.24661
5.43412
5.62141
5.80841
5.99503
6.18118
6.36677
6.5517
6.73587
6.91921
7.10166
7.28329
7.46444
7.64596
7.82637
8.0007
8.17021
8.33856
8.50156
8.67087
8.797
-5.148
-5.17312
-5.1771
-5.17675
-5.177
-5.17758
-5.17826
-5.17914
-5.18028
-5.18169
-5.18336
-5.18529
-5.18749
-5.18996
-5.19272
-5.19577
-5.19913
-5.2028
-5.20681
-5.21117
-5.21591
-5.22103
-5.22656
-5.23254
-5.239
-5.24595
-5.25344
-5.26148
-5.27011
-5.27936
-5.28924
-5.29978
-5.311
-5.32292
-5.33556
-5.34892
-5.36301
-5.37783
-5.39336
-5.4096
-5.42652
-5.44408
-5.46224
-5.48096
-5.50017
-5.51981
-5.53979
-5.56004
-5.58046
-5.60095
-5.6214
-5.64171
-5.66176
-5.68142
-5.70058
-5.71911
-5.73688
-5.75375
-5.76959
-5.78427
-5.79765
-5.80962
-5.82004
-5.82879
-5.83576
-5.84082
-5.84386
-5.84477
-5.84345
-5.83979
-5.83369
-5.82506
-5.8138
-5.79983
-5.78305
-5.76339
-5.74078
-5.71512
-5.68637
-5.65445
-5.6193
-5.58089
-5.53917
-5.49411
-5.4457
-5.3939
-5.33873
-5.28018
-5.21826
-5.15298
-5.08436
-5.01238
-4.93707
-4.85843
-4.7765
-4.6913
-4.60284
-4.51117
-4.41631
-4.31829
-4.21717
-4.113
-4.00583
-3.89573
-3.78276
-3.66698
-3.54846
-3.42726
-3.30344
-3.17707
-3.0482
-2.9169
-2.78321
-2.6472
-2.50891
-2.36842
-2.22577
-2.08101
-1.9342
-1.78538
-1.6346
-1.48188
-1.32726
-1.17082
-1.01261
-0.852682
-0.691102
-0.527925
-0.363209
-0.197008
-0.0293781
0.139628
0.309957
0.48156
0.654386
0.828384
1.0035
1.17969
1.35691
1.53509
1.71421
1.89421
2.07506
2.2567
2.43909
2.6222
2.80598
2.99039
3.17539
3.36095
3.54702
3.73356
3.92052
4.10786
4.29552
4.48347
4.67163
4.85994
5.04835
5.23678
5.42515
5.61339
5.80141
5.98913
6.17643
6.3632
6.54933
6.73469
6.91916
7.10266
7.28516
7.46673
7.6476
7.82653
8.00064
8.17072
8.33936
8.50179
8.67166
8.79442
-5.15038
-5.17457
-5.17947
-5.17984
-5.18044
-5.18111
-5.18179
-5.18265
-5.18376
-5.18515
-5.18681
-5.18876
-5.19099
-5.19351
-5.19633
-5.19946
-5.20292
-5.20672
-5.21087
-5.2154
-5.22032
-5.22566
-5.23143
-5.23767
-5.24441
-5.25167
-5.25947
-5.26786
-5.27684
-5.28646
-5.29673
-5.30768
-5.31932
-5.33167
-5.34474
-5.35854
-5.37306
-5.38831
-5.40426
-5.4209
-5.43819
-5.4561
-5.47457
-5.49356
-5.513
-5.53281
-5.55291
-5.57322
-5.59364
-5.61407
-5.63441
-5.65453
-5.67434
-5.6937
-5.7125
-5.73062
-5.74793
-5.7643
-5.77962
-5.79376
-5.80659
-5.81799
-5.82785
-5.83604
-5.84247
-5.847
-5.84954
-5.84998
-5.84822
-5.84415
-5.83769
-5.82873
-5.81719
-5.80299
-5.78602
-5.76622
-5.74351
-5.7178
-5.68903
-5.65712
-5.62203
-5.58371
-5.5421
-5.49718
-5.44892
-5.39731
-5.34234
-5.28402
-5.22236
-5.15735
-5.08902
-5.01737
-4.9424
-4.86412
-4.78257
-4.69774
-4.60964
-4.5183
-4.42375
-4.32604
-4.2252
-4.1213
-4.01439
-3.90454
-3.79181
-3.67626
-3.55797
-3.43699
-3.31339
-3.18722
-3.05855
-2.92744
-2.79394
-2.6581
-2.51998
-2.37964
-2.23713
-2.09249
-1.94579
-1.79707
-1.64637
-1.49373
-1.3392
-1.18284
-1.02471
-0.864866
-0.703362
-0.540257
-0.375607
-0.209467
-0.0418903
0.127068
0.297355
0.468918
0.641708
0.81567
0.990756
1.16692
1.34411
1.52229
1.70141
1.88143
2.0623
2.24398
2.42643
2.6096
2.79346
2.97798
3.16311
3.34882
3.53508
3.72184
3.90905
4.09666
4.28463
4.4729
4.66142
4.85014
5.03898
5.22788
5.41677
5.60556
5.79418
5.98253
6.17048
6.35792
6.54472
6.73075
6.91586
7.09996
7.28298
7.46484
7.64547
7.82388
7.99819
8.16877
8.33775
8.49989
8.6706
8.78987
-5.15392
-5.17692
-5.18248
-5.18364
-5.18467
-5.18549
-5.1862
-5.18704
-5.18814
-5.18953
-5.19121
-5.19319
-5.19546
-5.19805
-5.20095
-5.20418
-5.20775
-5.21168
-5.21599
-5.22069
-5.22581
-5.23136
-5.23738
-5.24388
-5.2509
-5.25847
-5.2666
-5.27532
-5.28467
-5.29466
-5.30532
-5.31667
-5.32872
-5.34148
-5.35497
-5.36918
-5.38411
-5.39974
-5.41606
-5.43304
-5.45064
-5.46881
-5.48751
-5.50667
-5.52623
-5.54609
-5.56619
-5.58644
-5.60672
-5.62696
-5.64703
-5.66684
-5.68627
-5.7052
-5.72353
-5.74114
-5.75791
-5.77372
-5.78846
-5.80201
-5.81427
-5.8251
-5.83442
-5.84209
-5.84803
-5.85211
-5.85423
-5.8543
-5.85221
-5.84786
-5.84116
-5.83202
-5.82035
-5.80606
-5.78906
-5.76927
-5.7466
-5.72097
-5.69231
-5.66054
-5.62561
-5.58746
-5.54604
-5.50132
-5.45328
-5.40189
-5.34716
-5.28908
-5.22767
-5.16293
-5.09489
-5.02353
-4.94887
-4.87091
-4.78966
-4.7051
-4.61725
-4.52614
-4.43179
-4.33425
-4.23357
-4.12981
-4.02303
-3.91329
-3.80067
-3.68523
-3.56704
-3.44616
-3.32264
-3.19656
-3.06798
-2.93693
-2.8035
-2.66772
-2.52965
-2.38935
-2.24687
-2.10225
-1.95556
-1.80684
-1.65613
-1.50349
-1.34897
-1.19261
-1.03449
-0.874648
-0.713151
-0.550053
-0.385409
-0.219274
-0.0517024
0.117252
0.287536
0.459098
0.631886
0.805847
0.98093
1.15709
1.33429
1.51247
1.6916
1.87163
2.05252
2.23423
2.41672
2.59995
2.78386
2.96844
3.15366
3.33946
3.52582
3.7127
3.90005
4.08781
4.27594
4.4644
4.65312
4.84205
5.03114
5.2203
5.40946
5.59855
5.78747
5.97614
6.16443
6.35222
6.53938
6.72576
6.91124
7.09569
7.27902
7.46107
7.64159
7.81973
7.99421
8.16515
8.3344
8.49632
8.66804
8.78415
-5.15858
-5.18026
-5.18627
-5.1882
-5.1897
-5.19073
-5.1915
-5.19235
-5.19346
-5.19486
-5.19657
-5.19859
-5.20093
-5.20359
-5.20658
-5.20992
-5.21361
-5.21768
-5.22215
-5.22702
-5.23234
-5.23811
-5.24436
-5.25112
-5.25841
-5.26626
-5.2747
-5.28375
-5.29344
-5.30378
-5.31481
-5.32652
-5.33894
-5.35207
-5.36592
-5.38048
-5.39575
-5.41169
-5.4283
-5.44553
-5.46334
-5.48168
-5.50049
-5.51971
-5.53926
-5.55907
-5.57904
-5.5991
-5.61915
-5.63908
-5.65881
-5.67822
-5.69721
-5.71568
-5.73351
-5.75059
-5.76683
-5.78211
-5.79633
-5.80938
-5.82114
-5.83153
-5.84042
-5.84772
-5.85331
-5.8571
-5.85898
-5.85885
-5.8566
-5.85215
-5.8454
-5.83626
-5.82463
-5.81042
-5.79353
-5.77389
-5.7514
-5.72596
-5.69751
-5.66597
-5.63126
-5.59332
-5.55212
-5.5076
-5.45975
-5.40856
-5.35401
-5.29612
-5.23491
-5.17038
-5.10255
-5.03141
-4.95696
-4.8792
-4.79812
-4.71371
-4.62597
-4.53493
-4.44064
-4.34313
-4.24247
-4.13871
-4.03192
-3.92217
-3.80953
-3.69408
-3.57587
-3.45497
-3.33144
-3.20535
-3.07674
-2.94567
-2.81221
-2.6764
-2.53831
-2.39797
-2.25544
-2.11079
-1.96404
-1.81527
-1.6645
-1.51181
-1.35724
-1.20084
-1.04268
-0.882803
-0.721275
-0.558148
-0.393479
-0.227322
-0.0597306
0.109241
0.27954
0.451117
0.623918
0.79789
0.972982
1.14915
1.32635
1.50454
1.68368
1.86371
2.04461
2.22634
2.40885
2.5921
2.77605
2.96067
3.14592
3.33177
3.51819
3.70512
3.89254
4.08038
4.26859
4.45713
4.64595
4.83499
5.02419
5.21347
5.40277
5.592
5.78108
5.96989
6.15833
6.34629
6.53362
6.72019
6.90586
7.09051
7.27402
7.45614
7.63655
7.8145
7.9891
8.16024
8.32964
8.49128
8.66391
8.77711
-5.16436
-5.18464
-5.19094
-5.19361
-5.1956
-5.19685
-5.19771
-5.1986
-5.19972
-5.20115
-5.2029
-5.20497
-5.20737
-5.2101
-5.21318
-5.21662
-5.22042
-5.22462
-5.22923
-5.23427
-5.23975
-5.24572
-5.25218
-5.25916
-5.26669
-5.2748
-5.28351
-5.29284
-5.30282
-5.31346
-5.32479
-5.33681
-5.34953
-5.36296
-5.3771
-5.39193
-5.40744
-5.42361
-5.44041
-5.45779
-5.47571
-5.49411
-5.51293
-5.53211
-5.55156
-5.57122
-5.59099
-5.6108
-5.63054
-5.65014
-5.66949
-5.6885
-5.70706
-5.72509
-5.74247
-5.7591
-5.7749
-5.78976
-5.80359
-5.81627
-5.82771
-5.83781
-5.84646
-5.85356
-5.85901
-5.86269
-5.86451
-5.86436
-5.86215
-5.85777
-5.85113
-5.84214
-5.8307
-5.81671
-5.80008
-5.7807
-5.75848
-5.73333
-5.70515
-5.67387
-5.6394
-5.60169
-5.56067
-5.51632
-5.46861
-5.41754
-5.3631
-5.30531
-5.2442
-5.17979
-5.11207
-5.04105
-4.96671
-4.88904
-4.80799
-4.72358
-4.63581
-4.54471
-4.45033
-4.35271
-4.25193
-4.14804
-4.04113
-3.93126
-3.81851
-3.70295
-3.58464
-3.46364
-3.34002
-3.21383
-3.08513
-2.95399
-2.82044
-2.68455
-2.54636
-2.40594
-2.26334
-2.11859
-1.97176
-1.8229
-1.67206
-1.51928
-1.36464
-1.20818
-1.04996
-0.890031
-0.728455
-0.565284
-0.400576
-0.234384
-0.0667626
0.102235
0.272558
0.444155
0.616976
0.790965
0.966069
1.14225
1.31946
1.49765
1.67679
1.85684
2.03774
2.21947
2.40199
2.58526
2.76922
2.95386
3.13914
3.32501
3.51145
3.69841
3.88585
4.07373
4.26199
4.45057
4.63944
4.82852
5.01776
5.20711
5.39647
5.58577
5.77491
5.96379
6.1523
6.34032
6.52773
6.71438
6.90016
7.08491
7.26849
7.45062
7.63091
7.80871
7.98337
8.1546
8.32403
8.48533
8.65864
8.76911
-5.17122
-5.19013
-5.19658
-5.19989
-5.20237
-5.20389
-5.20485
-5.20578
-5.20692
-5.20837
-5.21015
-5.21226
-5.2147
-5.21749
-5.22064
-5.22415
-5.22804
-5.23234
-5.23706
-5.24221
-5.24783
-5.25394
-5.26056
-5.26772
-5.27544
-5.28374
-5.29266
-5.30221
-5.31241
-5.32328
-5.33483
-5.34708
-5.36002
-5.37367
-5.388
-5.40301
-5.41868
-5.43497
-5.45186
-5.4693
-5.48724
-5.50561
-5.52436
-5.54342
-5.56271
-5.58216
-5.60168
-5.6212
-5.64063
-5.65989
-5.67889
-5.69754
-5.71574
-5.7334
-5.75043
-5.76673
-5.78222
-5.79681
-5.8104
-5.82289
-5.83418
-5.84418
-5.85277
-5.85986
-5.86534
-5.8691
-5.87103
-5.87103
-5.86899
-5.86483
-5.85844
-5.84973
-5.8386
-5.82494
-5.80865
-5.78963
-5.76776
-5.74294
-5.71508
-5.68408
-5.64986
-5.61235
-5.57149
-5.52725
-5.47961
-5.42857
-5.37414
-5.31636
-5.25525
-5.19086
-5.12318
-5.05219
-4.97785
-4.90013
-4.819
-4.73445
-4.6465
-4.55521
-4.46061
-4.36276
-4.26175
-4.15764
-4.05051
-3.94044
-3.8275
-3.71177
-3.59329
-3.47214
-3.34838
-3.22205
-3.09322
-2.96195
-2.82828
-2.69227
-2.55397
-2.41344
-2.27073
-2.12588
-1.97895
-1.82999
-1.67905
-1.52619
-1.37146
-1.21493
-1.05664
-0.896656
-0.735025
-0.571805
-0.407053
-0.240823
-0.0731677
0.0958589
0.266206
0.437823
0.610663
0.78467
0.959789
1.13598
1.3132
1.49141
1.67055
1.8506
2.03151
2.21324
2.39576
2.57903
2.76301
2.94767
3.13296
3.31885
3.5053
3.69227
3.87972
4.06761
4.2559
4.44451
4.63339
4.8225
5.01177
5.20114
5.39053
5.57986
5.76902
5.95793
6.14647
6.33453
6.52197
6.70867
6.89449
7.07928
7.26287
7.44496
7.62514
7.80281
7.97749
8.14873
8.31812
8.47902
8.65281
8.76074
-5.17915
-5.19675
-5.20324
-5.20711
-5.21005
-5.21182
-5.2129
-5.21386
-5.21501
-5.21647
-5.21825
-5.22036
-5.22282
-5.22562
-5.22879
-5.23233
-5.23626
-5.2406
-5.24537
-5.25059
-5.25628
-5.26247
-5.26919
-5.27645
-5.28428
-5.29271
-5.30175
-5.31144
-5.32178
-5.33279
-5.34449
-5.35687
-5.36994
-5.3837
-5.39814
-5.41323
-5.42896
-5.44529
-5.46219
-5.4796
-5.49748
-5.51576
-5.53438
-5.55326
-5.57234
-5.59155
-5.6108
-5.63003
-5.64917
-5.66812
-5.68683
-5.70519
-5.72311
-5.74051
-5.7573
-5.7734
-5.78873
-5.80319
-5.81671
-5.82918
-5.84051
-5.85058
-5.8593
-5.86655
-5.87222
-5.87621
-5.8784
-5.87867
-5.87693
-5.87308
-5.86704
-5.8587
-5.84795
-5.8347
-5.81881
-5.80018
-5.7787
-5.75425
-5.72673
-5.69603
-5.66206
-5.62474
-5.58402
-5.53984
-5.49221
-5.44113
-5.38662
-5.32872
-5.26753
-5.20309
-5.13538
-5.06433
-4.98987
-4.91197
-4.83062
-4.7458
-4.65756
-4.56594
-4.47101
-4.37283
-4.27149
-4.16708
-4.05967
-3.94935
-3.83617
-3.72022
-3.60155
-3.48022
-3.35628
-3.2298
-3.10082
-2.9694
-2.83559
-2.69945
-2.56103
-2.42038
-2.27755
-2.1326
-1.98557
-1.83651
-1.68549
-1.53254
-1.37774
-1.22113
-1.06278
-0.902733
-0.74105
-0.577784
-0.412992
-0.246726
-0.0790415
0.0900104
0.260378
0.43201
0.604859
0.778877
0.954015
1.13022
1.30745
1.48567
1.66482
1.84487
2.02578
2.20751
2.39003
2.5733
2.7573
2.94197
3.12727
3.31317
3.49963
3.68661
3.87407
4.06198
4.25027
4.4389
4.6278
4.81692
5.0062
5.19558
5.38499
5.57433
5.76351
5.95243
6.14099
6.32906
6.51651
6.70323
6.88907
7.07387
7.25744
7.43946
7.61952
7.79707
7.97175
8.14293
8.31223
8.47274
8.64678
8.75245
-5.18812
-5.20455
-5.21099
-5.21531
-5.21867
-5.22068
-5.22185
-5.22282
-5.22394
-5.22535
-5.22708
-5.22914
-5.23155
-5.2343
-5.23742
-5.24092
-5.24481
-5.24912
-5.25386
-5.25907
-5.26475
-5.27095
-5.27767
-5.28495
-5.29282
-5.30128
-5.31037
-5.3201
-5.33049
-5.34156
-5.3533
-5.36572
-5.37883
-5.39261
-5.40706
-5.42214
-5.43785
-5.45414
-5.47097
-5.48829
-5.50605
-5.52418
-5.54262
-5.5613
-5.58014
-5.59908
-5.61806
-5.63701
-5.65588
-5.67459
-5.69306
-5.71123
-5.72898
-5.74623
-5.7629
-5.77892
-5.79422
-5.80872
-5.82234
-5.83497
-5.84649
-5.85681
-5.8658
-5.87337
-5.87938
-5.88372
-5.88627
-5.88691
-5.88552
-5.88203
-5.87638
-5.86844
-5.85811
-5.84526
-5.82978
-5.81155
-5.79045
-5.76636
-5.73917
-5.70877
-5.67506
-5.63794
-5.59736
-5.55325
-5.5056
-5.45443
-5.39977
-5.34169
-5.28034
-5.21579
-5.14794
-5.07667
-5.00195
-4.92375
-4.84206
-4.75687
-4.66821
-4.57616
-4.48081
-4.38222
-4.2805
-4.17574
-4.06802
-3.95742
-3.844
-3.72783
-3.60896
-3.48744
-3.36333
-3.23669
-3.10756
-2.97601
-2.84207
-2.70581
-2.56728
-2.42652
-2.28359
-2.13855
-1.99143
-1.8423
-1.6912
-1.53819
-1.38333
-1.22667
-1.06826
-0.908171
-0.74645
-0.583152
-0.418332
-0.252043
-0.084339
0.084728
0.255107
0.426746
0.599596
0.773616
0.948763
1.12498
1.30222
1.48043
1.65959
1.83964
2.02056
2.20229
2.38481
2.56809
2.75209
2.93676
3.12207
3.30798
3.49445
3.68144
3.86891
4.05682
4.24513
4.43376
4.62267
4.81181
5.0011
5.19049
5.37991
5.56925
5.75844
5.94737
6.13593
6.32401
6.51148
6.6982
6.88404
7.06883
7.25234
7.43427
7.61422
7.79166
7.96628
8.13738
8.30655
8.46666
8.64076
8.7445
-5.1981
-5.21357
-5.21991
-5.22459
-5.22828
-5.23049
-5.2317
-5.23261
-5.23363
-5.23491
-5.2365
-5.23842
-5.24068
-5.24329
-5.24627
-5.24962
-5.25338
-5.25757
-5.26219
-5.26729
-5.27287
-5.27898
-5.28562
-5.29283
-5.30063
-5.30904
-5.31809
-5.32778
-5.33812
-5.34914
-5.36084
-5.37322
-5.38627
-5.39998
-5.41435
-5.42935
-5.44496
-5.46114
-5.47784
-5.49502
-5.51262
-5.53057
-5.5488
-5.56723
-5.58581
-5.60448
-5.62317
-5.64186
-5.66049
-5.67902
-5.69736
-5.71543
-5.73313
-5.75035
-5.767
-5.78305
-5.79847
-5.81318
-5.82706
-5.84001
-5.8519
-5.86261
-5.87203
-5.88002
-5.88647
-5.89125
-5.89422
-5.89523
-5.89413
-5.89092
-5.8856
-5.87803
-5.86807
-5.85557
-5.84041
-5.82248
-5.80167
-5.77786
-5.75094
-5.72082
-5.68738
-5.65054
-5.61019
-5.56627
-5.51874
-5.46758
-5.41278
-5.35438
-5.29273
-5.2279
-5.15969
-5.08805
-5.01293
-4.93432
-4.8522
-4.76652
-4.67733
-4.58478
-4.48897
-4.38995
-4.28784
-4.18274
-4.07474
-3.9639
-3.85028
-3.73392
-3.61489
-3.49322
-3.36898
-3.24222
-3.11298
-2.98132
-2.8473
-2.71095
-2.57234
-2.43152
-2.28852
-2.14342
-1.99625
-1.84708
-1.69594
-1.54291
-1.38802
-1.23133
-1.07291
-0.912799
-0.751066
-0.587761
-0.422936
-0.256646
-0.0889432
0.0801207
0.250495
0.422128
0.594972
0.768984
0.94412
1.12033
1.29756
1.47577
1.65493
1.83498
2.01589
2.19762
2.38014
2.56342
2.74742
2.93209
3.11741
3.30332
3.4898
3.6768
3.86428
4.0522
4.24051
4.42915
4.61808
4.80722
4.99653
5.18593
5.37535
5.5647
5.7539
5.94283
6.1314
6.31948
6.50695
6.69367
6.8795
7.06425
7.2477
7.42953
7.60936
7.78668
7.96122
8.13218
8.30118
8.46089
8.63487
8.73707
-5.20913
-5.22395
-5.23017
-5.2351
-5.23904
-5.24134
-5.24248
-5.24323
-5.24401
-5.24504
-5.24635
-5.248
-5.24998
-5.25231
-5.25502
-5.25812
-5.26163
-5.26558
-5.26998
-5.27487
-5.28026
-5.28617
-5.29264
-5.29969
-5.30733
-5.3156
-5.3245
-5.33406
-5.34428
-5.35517
-5.36674
-5.37898
-5.39189
-5.40546
-5.41967
-5.43452
-5.44997
-5.46598
-5.48252
-5.49952
-5.51692
-5.53466
-5.55267
-5.57085
-5.58914
-5.60748
-5.62587
-5.64429
-5.66273
-5.68116
-5.69948
-5.71758
-5.73535
-5.75263
-5.76926
-5.78535
-5.80099
-5.81608
-5.83041
-5.84386
-5.85627
-5.86752
-5.87748
-5.88601
-5.89296
-5.89819
-5.90155
-5.9028
-5.90167
-5.89834
-5.89309
-5.88566
-5.87581
-5.86338
-5.84826
-5.83035
-5.80956
-5.78578
-5.75896
-5.72901
-5.69588
-5.65949
-5.61972
-5.57648
-5.52963
-5.47903
-5.42442
-5.36561
-5.30321
-5.23781
-5.1691
-5.09698
-5.02139
-4.94233
-4.85972
-4.77344
-4.68358
-4.59045
-4.49421
-4.3948
-4.29236
-4.18703
-4.07886
-3.9679
-3.85418
-3.73774
-3.61863
-3.49691
-3.37262
-3.24582
-3.11655
-2.98486
-2.85081
-2.71445
-2.57583
-2.435
-2.292
-2.1469
-1.99974
-1.85057
-1.69945
-1.54644
-1.39157
-1.23491
-1.07651
-0.916429
-0.754724
-0.591448
-0.426654
-0.260394
-0.0927217
0.0763121
0.246656
0.418262
0.59108
0.765066
0.940176
1.11636
1.29357
1.47176
1.6509
1.83094
2.01184
2.19357
2.37608
2.55936
2.74335
2.92803
3.11334
3.29926
3.48574
3.67275
3.86024
4.04817
4.23648
4.42513
4.61406
4.80322
4.99254
5.18195
5.37138
5.56074
5.74994
5.93888
6.12745
6.31554
6.50301
6.68973
6.87554
7.06025
7.24362
7.42535
7.60504
7.78223
7.95666
8.12745
8.29622
8.45554
8.62919
8.73027
-5.22134
-5.23596
-5.24209
-5.24716
-5.2512
-5.25341
-5.25429
-5.25465
-5.25501
-5.25557
-5.25642
-5.2576
-5.25913
-5.26103
-5.26332
-5.26603
-5.26916
-5.27276
-5.27683
-5.2814
-5.28649
-5.29213
-5.29834
-5.30513
-5.31254
-5.32057
-5.32926
-5.33861
-5.34863
-5.35933
-5.37069
-5.38273
-5.39542
-5.40876
-5.42274
-5.43736
-5.45259
-5.4684
-5.48471
-5.5015
-5.51868
-5.53619
-5.55396
-5.57189
-5.58989
-5.60794
-5.62601
-5.64416
-5.6625
-5.68098
-5.69944
-5.71772
-5.73563
-5.75282
-5.76887
-5.78425
-5.79966
-5.81483
-5.82938
-5.84307
-5.85576
-5.86731
-5.87758
-5.88641
-5.89365
-5.89916
-5.9028
-5.90438
-5.90376
-5.9009
-5.89573
-5.88813
-5.87798
-5.86519
-5.84966
-5.83133
-5.81013
-5.78599
-5.75886
-5.72872
-5.69552
-5.65921
-5.61968
-5.57679
-5.5304
-5.48039
-5.42662
-5.36889
-5.30732
-5.24211
-5.17331
-5.10101
-5.02522
-4.94594
-4.86305
-4.77625
-4.68565
-4.59197
-4.49543
-4.39571
-4.293
-4.18762
-4.0795
-3.9686
-3.85496
-3.73861
-3.61959
-3.49795
-3.37374
-3.24702
-3.11783
-2.98623
-2.85226
-2.71598
-2.57744
-2.43669
-2.29378
-2.14876
-2.00168
-1.8526
-1.70156
-1.54862
-1.39384
-1.23726
-1.07894
-0.918943
-0.757316
-0.594115
-0.429393
-0.263203
-0.095597
0.0733734
0.243658
0.415208
0.587974
0.761912
0.936976
1.11312
1.29029
1.46845
1.64756
1.82757
2.00845
2.19016
2.37266
2.55593
2.73991
2.92458
3.1099
3.29582
3.4823
3.66931
3.85681
4.04474
4.23307
4.42173
4.61067
4.79984
4.98917
5.1786
5.36804
5.55742
5.74663
5.93559
6.12417
6.31226
6.49974
6.68645
6.87224
7.05691
7.24021
7.42182
7.60139
7.77844
7.95272
8.12332
8.29181
8.45072
8.62383
8.72423
-5.23557
-5.25067
-5.25673
-5.26178
-5.26565
-5.26743
-5.26767
-5.26728
-5.26685
-5.26663
-5.26674
-5.26721
-5.26807
-5.26934
-5.27104
-5.27319
-5.27582
-5.27893
-5.28257
-5.28673
-5.29145
-5.29672
-5.30258
-5.30904
-5.31612
-5.32384
-5.33223
-5.34131
-5.35105
-5.36146
-5.37253
-5.38426
-5.39663
-5.40964
-5.42327
-5.43753
-5.45241
-5.46785
-5.48381
-5.50022
-5.51705
-5.53422
-5.55166
-5.56924
-5.58683
-5.60437
-5.62156
-5.6385
-5.65588
-5.67383
-5.69199
-5.71009
-5.72797
-5.74539
-5.76221
-5.77851
-5.79428
-5.80935
-5.82358
-5.83687
-5.84911
-5.86017
-5.86993
-5.87825
-5.88501
-5.89008
-5.89335
-5.89475
-5.89429
-5.89157
-5.88616
-5.87809
-5.86739
-5.85402
-5.83793
-5.81906
-5.79736
-5.77276
-5.7452
-5.71466
-5.68109
-5.64441
-5.60446
-5.56126
-5.51479
-5.46506
-5.41212
-5.35605
-5.29612
-5.23187
-5.16375
-5.092