/*--------------------------------*- C++ -*----------------------------------*\
| =========                 |                                                 |
| \\      /  F ield         | OpenFOAM: The Open Source CFD Toolbox           |
|  \\    /   O peration     | Version:  2112                                  |
|   \\  /    A nd           | Website:  www.openfoam.com                      |
|    \\/     M anipulation  |                                                 |
\*---------------------------------------------------------------------------*/
FoamFile
{
    version     2.0;
    format      ascii;
    arch        "LSB;label=32;scalar=64";
    class       volScalarField;
    location    "0.06";
    object      k;
}
// * * * * * * * * * * * * * * * * * * * * * * * * * * * * * * * * * * * * * //

dimensions      [0 2 -2 0 0 0 0];

internalField   nonuniform List<scalar> 
12225
(
0.891963
1.27275
1.48089
1.57105
1.59141
1.57403
1.53776
1.49309
1.44562
1.39812
1.3517
1.30649
1.26204
1.21742
1.1714
1.12224
1.06837
1.00614
0.400357
0.419993
0.42805
0.429315
0.42729
0.423981
0.420945
0.419316
0.419759
0.42265
0.428251
0.436808
0.448631
0.464165
0.484063
0.509253
0.54096
0.581341
0.37639
0.376023
0.369241
0.358176
0.344902
0.330663
0.316316
0.302483
0.289592
0.277918
0.267644
0.258909
0.251859
0.246704
0.243783
0.24365
0.247231
0.256022
0.372555
0.369239
0.364457
0.35807
0.350513
0.342243
0.333589
0.324788
0.316009
0.307365
0.298926
0.290724
0.282769
0.275054
0.26758
0.260381
0.253583
0.247529
0.371961
0.368524
0.364617
0.360155
0.355176
0.349804
0.344171
0.33839
0.332546
0.326695
0.320874
0.315097
0.309359
0.303637
0.297888
0.292056
0.286075
0.279915
0.371873
0.368577
0.365149
0.361519
0.35769
0.353697
0.349582
0.345391
0.34116
0.336918
0.332685
0.328473
0.324284
0.32011
0.315939
0.311749
0.307513
0.303224
0.37187
0.368673
0.365501
0.362305
0.359068
0.355789
0.35248
0.349152
0.345823
0.342506
0.339213
0.335953
0.332733
0.32956
0.32644
0.323385
0.320414
0.317568
0.371874
0.368728
0.365687
0.362715
0.35979
0.356901
0.35404
0.351209
0.348411
0.34565
0.342933
0.340267
0.337661
0.335126
0.332681
0.330352
0.328179
0.326224
0.371874
0.36875
0.365768
0.362904
0.360138
0.357456
0.354845
0.3523
0.349817
0.347395
0.345037
0.342747
0.340533
0.33841
0.336398
0.334529
0.332848
0.331415
0.371873
0.368756
0.365796
0.362978
0.360286
0.357707
0.355228
0.35284
0.350537
0.348316
0.346175
0.344119
0.342153
0.340291
0.338553
0.336968
0.335578
0.334435
0.371871
0.368755
0.365803
0.363002
0.360341
0.357807
0.35539
0.353082
0.350874
0.348764
0.346748
0.344828
0.343011
0.341306
0.33973
0.338309
0.337077
0.336072
0.37187
0.368752
0.365802
0.363007
0.360356
0.357839
0.355447
0.353172
0.351007
0.348947
0.346991
0.345139
0.343395
0.341768
0.340271
0.338924
0.337753
0.336789
0.371868
0.36875
0.365799
0.363006
0.360359
0.357849
0.355468
0.353209
0.351065
0.349032
0.347107
0.345291
0.343586
0.341999
0.34054
0.339223
0.338069
0.337099
0.371867
0.368747
0.365796
0.363003
0.360358
0.357851
0.355476
0.353224
0.35109
0.34907
0.347162
0.345363
0.343677
0.342107
0.340659
0.339343
0.338172
0.337164
0.371865
0.368745
0.365793
0.363
0.360355
0.357851
0.355478
0.35323
0.351102
0.349089
0.347187
0.345396
0.343714
0.342145
0.34069
0.339356
0.338149
0.337083
0.371864
0.368743
0.36579
0.362997
0.360353
0.357849
0.355479
0.353234
0.351109
0.349099
0.3472
0.34541
0.343727
0.34215
0.340679
0.339317
0.338066
0.336938
0.371863
0.36874
0.365787
0.362994
0.36035
0.357848
0.355479
0.353236
0.351113
0.349105
0.347207
0.345415
0.343725
0.342137
0.340647
0.339254
0.337959
0.336773
0.371862
0.368738
0.365785
0.362991
0.360348
0.357847
0.355479
0.353237
0.351116
0.349107
0.347207
0.34541
0.343712
0.342109
0.340597
0.339174
0.337838
0.336601
0.371861
0.368737
0.365783
0.36299
0.360347
0.357847
0.35548
0.353239
0.351117
0.349106
0.347202
0.345398
0.343689
0.342071
0.340538
0.339087
0.337716
0.336435
0.37186
0.368736
0.365783
0.36299
0.360349
0.35785
0.355484
0.353244
0.351121
0.349108
0.3472
0.345389
0.343672
0.342041
0.340492
0.339022
0.337626
0.336318
0.37186
0.368737
0.365784
0.362994
0.360354
0.357856
0.355491
0.353251
0.351127
0.349113
0.347201
0.345385
0.343659
0.342018
0.340457
0.338972
0.337559
0.336231
0.371861
0.368738
0.365788
0.362999
0.360361
0.357863
0.355498
0.353255
0.351127
0.349107
0.347186
0.345358
0.343617
0.341958
0.340376
0.338866
0.337426
0.336068
0.371862
0.368741
0.365792
0.363003
0.360363
0.357859
0.355482
0.353221
0.351067
0.349013
0.347052
0.345176
0.343381
0.341661
0.340013
0.338431
0.336915
0.335477
0.371864
0.368744
0.365793
0.362993
0.360329
0.357787
0.355353
0.353016
0.350767
0.348598
0.346504
0.344481
0.342526
0.340636
0.338808
0.337041
0.335335
0.333706
0.371869
0.368754
0.365792
0.362944
0.360182
0.357485
0.354841
0.352246
0.349699
0.347201
0.344755
0.342362
0.340027
0.33775
0.335533
0.333378
0.331286
0.329278
0.371904
0.368832
0.36587
0.362918
0.35989
0.356766
0.353565
0.350318
0.347053
0.343795
0.340567
0.337384
0.334259
0.331202
0.32822
0.325318
0.322501
0.319791
0.372183
0.369485
0.366542
0.363032
0.358996
0.354594
0.349954
0.345169
0.340312
0.335444
0.330611
0.325851
0.321191
0.316652
0.31225
0.307993
0.303887
0.299953
0.37425
0.373994
0.370943
0.365653
0.359067
0.351679
0.34376
0.335523
0.327158
0.318824
0.310649
0.30273
0.295136
0.287917
0.2811
0.274702
0.268725
0.263181
0.386177
0.393965
0.396903
0.39745
0.396354
0.39391
0.39039
0.386248
0.381902
0.37766
0.373742
0.370302
0.367436
0.365196
0.363607
0.362673
0.362399
0.362814
0.642892
0.874684
1.0463
1.18002
1.27555
1.33757
1.37247
1.38663
1.38572
1.37435
1.35608
1.33355
1.30864
1.28266
1.25651
1.23076
1.20574
1.18173
0.0713872
0.125453
0.174159
0.235201
0.309286
0.378671
0.435431
0.47074
0.494115
0.509191
0.518444
0.523702
0.526314
0.527252
0.527194
0.526589
0.525716
0.524731
0.523699
0.522617
0.521429
0.520031
0.518305
0.516376
0.513952
0.510634
0.505974
0.499451
0.490436
0.478166
0.461695
0.439849
0.411169
0.373868
0.325887
0.265401
0.193376
0.149142
0.153146
0.161621
0.170361
0.185359
0.213896
0.253953
0.297078
0.339377
0.380624
0.422875
0.470752
0.523674
0.584093
0.653036
0.723065
0.776175
0.787328
0.760203
0.702274
0.624422
0.544717
0.479744
0.431919
0.411844
0.425567
0.461756
0.49518
0.505973
0.504166
0.542421
0.680557
0.824686
0.954236
1.06766
1.16509
1.24783
1.31753
1.37583
1.42424
1.46411
1.49659
1.52269
1.54331
1.55922
1.57111
1.57965
1.58545
1.58912
1.59127
1.59111
1.58878
1.58456
1.57866
1.57127
1.56255
1.55263
1.54166
1.52975
1.51699
1.50347
1.48923
1.47429
1.45863
1.44219
1.42484
1.4064
1.38661
1.36513
1.34153
1.3153
1.28588
1.25264
1.21497
1.17232
1.12431
1.07086
1.01246
0.951502
0.900595
0.86962
0.839455
0.807843
0.775336
0.742716
0.710685
0.679802
0.650475
0.622973
0.597446
0.573943
0.552438
0.53284
0.515009
0.498767
0.483877
0.469968
0.456651
0.443368
0.42981
0.41584
0.401458
0.38677
0.37195
0.35722
0.342816
0.328967
0.315872
0.30369
0.292522
0.282421
0.273389
0.265385
0.25834
0.252163
0.246753
0.242007
0.237824
0.234113
0.230792
0.227791
0.225049
0.222519
0.220162
0.217945
0.215844
0.21384
0.211914
0.210052
0.208239
0.206458
0.204692
0.202919
0.201112
0.199237
0.197248
0.195119
0.19305
0.190836
0.188286
0.185006
0.181004
0.173838
0.0750527
0.138237
0.284725
0.471877
0.609418
0.70075
0.757487
0.788892
0.80171
0.800997
0.790966
0.775149
0.756315
0.736437
0.716801
0.698153
0.680848
0.664967
0.650408
0.636942
0.624259
0.61199
0.599728
0.58691
0.573795
0.560187
0.546054
0.531591
0.517247
0.503721
0.491882
0.482643
0.476801
0.474905
0.477307
0.48491
0.501992
0.538464
0.583438
0.602679
0.572914
0.48552
0.393781
0.372156
0.398652
0.446216
0.504343
0.567308
0.632668
0.724422
0.853156
1.02703
1.19933
1.32462
1.37223
1.33228
1.22656
1.09133
0.957974
0.868231
0.863633
0.982194
1.23337
1.56618
1.86719
1.97386
1.90375
1.81451
1.75671
1.72596
1.71885
1.73311
1.76556
1.8118
1.86704
1.92679
1.98738
2.04611
2.10125
2.15181
2.1974
2.23799
2.2738
2.30522
2.33275
2.357
2.37715
2.39408
2.40834
2.42028
2.43017
2.4383
2.44493
2.45031
2.4547
2.45834
2.46147
2.4643
2.467
2.46972
2.47253
2.47542
2.47828
2.48084
2.48264
2.48301
2.48102
2.47546
2.46479
2.44724
2.42082
2.38346
2.33326
2.26867
2.18859
2.09181
1.98635
1.87947
1.76809
1.65419
1.54024
1.42847
1.32065
1.21809
1.12164
1.0318
0.948716
0.872339
0.802437
0.738679
0.68067
0.627997
0.580235
0.536793
0.497168
0.461809
0.430448
0.402782
0.378513
0.357341
0.338965
0.323092
0.30944
0.297735
0.287718
0.279145
0.271787
0.265433
0.259894
0.255004
0.250623
0.246636
0.242952
0.239502
0.236237
0.233121
0.230132
0.227254
0.224478
0.221795
0.219198
0.216682
0.214237
0.211855
0.209526
0.207239
0.204985
0.202755
0.200544
0.198349
0.196175
0.194033
0.191944
0.189945
0.188105
0.18653
0.185338
0.184938
0.185176
0.189994
0.0994108
0.316514
0.561447
0.699295
0.758912
0.77788
0.778924
0.772473
0.762743
0.751616
0.740298
0.729767
0.720795
0.713903
0.709362
0.70721
0.707288
0.709269
0.712684
0.71694
0.721345
0.725125
0.727422
0.727298
0.724327
0.717553
0.706067
0.689222
0.666873
0.639583
0.608726
0.576401
0.545159
0.517652
0.496398
0.483962
0.48404
0.502395
0.542404
0.599192
0.655794
0.674494
0.630548
0.561089
0.506629
0.479047
0.47319
0.484769
0.519314
0.589095
0.71199
0.892441
1.10912
1.31746
1.463
1.50973
1.46437
1.37356
1.30968
1.3345
1.52399
1.90976
2.37409
2.59945
2.48769
2.27923
2.09875
1.99276
1.96092
1.98827
2.06026
2.16273
2.28179
2.40509
2.5234
2.63112
2.72597
2.80792
2.87818
2.93839
2.99019
3.03497
3.07384
3.10765
3.13703
3.16242
3.18311
3.19959
3.21216
3.22106
3.22656
3.22894
3.22849
3.22549
3.22026
3.21309
3.20431
3.19422
3.18316
3.17141
3.15926
3.14689
3.13443
3.12184
3.10888
3.09507
3.07957
3.06118
3.03823
3.00865
2.96999
2.91953
2.85465
2.77311
2.67283
2.55346
2.42829
2.29609
2.15841
2.01803
1.8779
1.74064
1.60835
1.48259
1.36437
1.25424
1.1524
1.05876
0.973028
0.894802
0.823595
0.758873
0.700106
0.646676
0.59789
0.55317
0.512437
0.475426
0.441889
0.41158
0.384258
0.359688
0.337645
0.317915
0.300295
0.284598
0.270644
0.258266
0.24731
0.237633
0.229102
0.221597
0.215005
0.209225
0.204165
0.199739
0.195871
0.192488
0.189525
0.186924
0.184628
0.182587
0.180755
0.179086
0.177541
0.176083
0.174675
0.173286
0.171887
0.170451
0.168959
0.167392
0.165741
0.164004
0.16219
0.160334
0.158479
0.156824
0.155387
0.155673
0.154701
0.538825
0.701508
0.757328
0.773183
0.777169
0.777624
0.77606
0.772854
0.768763
0.764911
0.762483
0.762505
0.765739
0.772644
0.783381
0.797818
0.81554
0.835857
0.857812
0.880196
0.901572
0.920286
0.934414
0.942345
0.942845
0.934824
0.917753
0.891706
0.857383
0.816081
0.769608
0.720074
0.669661
0.620586
0.575445
0.537865
0.512978
0.506159
0.520434
0.553372
0.591548
0.612165
0.602263
0.5694
0.529868
0.493925
0.466214
0.461307
0.501883
0.613325
0.810456
1.08008
1.37551
1.62655
1.77109
1.80207
1.7907
1.84204
2.02338
2.3797
2.75481
2.82172
2.634
2.37754
2.18798
2.10071
2.10704
2.184
2.30743
2.45695
2.61649
2.77415
2.92211
3.05627
3.17541
3.28012
3.37186
3.45226
3.5228
3.58466
3.63875
3.68571
3.72599
3.75993
3.7877
3.80917
3.82498
3.83547
3.84091
3.84154
3.83762
3.82939
3.81713
3.80111
3.78163
3.75902
3.73362
3.70579
3.67593
3.64445
3.61172
3.57811
3.54386
3.50908
3.47361
3.43699
3.39832
3.35616
3.30854
3.253
3.18652
3.10626
3.00977
2.89379
2.76774
2.63235
2.48924
2.34096
2.19051
2.04085
1.89457
1.75374
1.61989
1.49398
1.37655
1.26777
1.16753
1.07554
0.991387
0.91458
0.844588
0.780873
0.722884
0.670048
0.621751
0.577609
0.537287
0.500487
0.466945
0.436417
0.408675
0.383501
0.36069
0.340044
0.321381
0.304529
0.289329
0.275635
0.263316
0.252251
0.24233
0.233452
0.225525
0.218465
0.212192
0.206634
0.201719
0.197383
0.193563
0.190198
0.187231
0.184606
0.18227
0.180173
0.178263
0.176496
0.174826
0.173211
0.171614
0.169999
0.168337
0.166601
0.164774
0.162844
0.160812
0.158684
0.156538
0.15434
0.152634
0.276637
0.619692
0.725612
0.778883
0.815213
0.839257
0.851747
0.855006
0.852513
0.847873
0.844222
0.843995
0.848892
0.859978
0.877783
0.902372
0.933377
0.970004
1.01103
1.05482
1.09934
1.14228
1.18104
1.21282
1.23444
1.2436
1.23911
1.22083
1.18956
1.14697
1.0953
1.03705
0.97462
0.90999
0.84446
0.778839
0.714265
0.653399
0.600843
0.561927
0.540291
0.534619
0.537133
0.537506
0.529131
0.511856
0.489612
0.468842
0.463375
0.503072
0.627093
0.863124
1.20329
1.59805
1.96146
2.20539
2.31702
2.40203
2.50831
2.70701
2.8592
2.82751
2.62452
2.38772
2.22438
2.16957
2.21048
2.31979
2.47112
2.64416
2.82451
3.00218
3.17064
3.32638
3.46814
3.59611
3.71112
3.81415
3.9061
3.98771
4.05957
4.12217
4.17595
4.22128
4.25851
4.28753
4.30895
4.32341
4.33126
4.33275
4.32813
4.31762
4.30144
4.27982
4.25298
4.22119
4.18472
4.14388
4.09902
4.05056
3.99895
3.94467
3.88823
3.83012
3.77076
3.71035
3.64881
3.58576
3.52009
3.45012
3.37389
3.28792
3.1901
3.07855
2.95666
2.8251
2.68523
2.5391
2.38926
2.23848
2.08939
1.94427
1.80488
1.6725
1.54793
1.43155
1.32346
1.22352
1.13144
1.04682
0.969222
0.898161
0.833155
0.773722
0.719385
0.669645
0.624044
0.58227
0.54403
0.509053
0.477089
0.447905
0.421288
0.397034
0.374955
0.354873
0.336623
0.32005
0.305012
0.291378
0.279029
0.267855
0.257758
0.248647
0.240439
0.233058
0.226432
0.220495
0.215184
0.210439
0.206202
0.202417
0.199032
0.195993
0.193249
0.19075
0.188448
0.186296
0.184249
0.182265
0.180304
0.178332
0.176316
0.174231
0.172056
0.169782
0.167402
0.164946
0.162384
0.159947
0.427881
0.679466
0.805988
0.893927
0.945596
0.967859
0.970328
0.962316
0.951406
0.9431
0.941091
0.947634
0.963838
0.990097
1.02627
1.07176
1.12545
1.18574
1.25051
1.31719
1.38288
1.44445
1.49883
1.54318
1.57302
1.58662
1.58325
1.56351
1.52907
1.4821
1.42499
1.36021
1.29012
1.21668
1.14125
1.06445
0.986526
0.907443
0.828251
0.751851
0.682662
0.624823
0.579917
0.546316
0.520617
0.499895
0.483521
0.475325
0.487861
0.556632
0.726605
1.0308
1.46346
1.97325
2.45538
2.79243
2.96881
2.98063
2.94511
2.89094
2.7598
2.56045
2.36291
2.23791
2.21249
2.27566
2.40136
2.56503
2.74857
2.93944
3.12901
3.31158
3.48384
3.6442
3.79222
3.92798
4.05173
4.16379
4.26442
4.3539
4.43253
4.50059
4.55843
4.60637
4.64481
4.6735
4.69356
4.70556
4.70985
4.70671
4.69635
4.679
4.65484
4.62406
4.58686
4.54343
4.49401
4.43885
4.37825
4.31259
4.24229
4.16788
4.08992
4.009
3.92578
3.84073
3.75399
3.66579
3.57541
3.48113
3.38265
3.27466
3.1613
3.0399
2.9108
2.77483
2.63337
2.48834
2.342
2.19663
2.05433
1.91684
1.78544
1.661
1.54399
1.43456
1.33268
1.23811
1.15054
1.06961
0.994929
0.926082
0.862673
0.804313
0.750624
0.701197
0.655641
0.613714
0.575174
0.539786
0.507326
0.47758
0.450346
0.425434
0.402665
0.38187
0.362892
0.345585
0.329811
0.315444
0.30237
0.29048
0.279679
0.269876
0.260989
0.252943
0.245667
0.239095
0.233166
0.22782
0.223002
0.218657
0.214733
0.211179
0.207944
0.204981
0.202242
0.19968
0.197251
0.194913
0.192624
0.190349
0.188053
0.185708
0.183291
0.180785
0.17818
0.175484
0.172675
0.16987
0.549045
0.801792
0.9789
1.07303
1.10958
1.11175
1.09716
1.07856
1.06444
1.05996
1.0681
1.08998
1.12508
1.17248
1.23075
1.29806
1.37212
1.4502
1.52931
1.60642
1.6789
1.74311
1.79652
1.83686
1.86306
1.87458
1.87153
1.85485
1.82599
1.7867
1.7383
1.68192
1.61835
1.54807
1.47131
1.38797
1.3038
1.21626
1.1248
1.03034
0.934766
0.841329
0.754508
0.678844
0.617576
0.572315
0.544605
0.539901
0.57428
0.680206
0.910766
1.29515
1.82834
2.45619
3.04117
3.41657
3.42249
3.18956
2.93863
2.70593
2.49372
2.32664
2.235
2.2318
2.30677
2.43805
2.60459
2.79065
2.9852
3.18057
3.37154
3.55485
3.72861
3.89183
4.04397
4.18472
4.31386
4.43126
4.53682
4.63059
4.71266
4.78322
4.84252
4.89085
4.92851
4.95558
4.97317
4.98181
4.98189
4.97366
4.95736
4.93319
4.90134
4.86195
4.81521
4.76126
4.70029
4.63252
4.55819
4.4776
4.39111
4.29927
4.20258
4.10159
3.9971
3.88983
3.77966
3.66764
3.55357
3.43422
3.31426
3.19017
3.06194
2.92918
2.79229
2.65224
2.51041
2.36852
2.22838
2.09167
1.95981
1.83387
1.71452
1.6021
1.49668
1.39812
1.30616
1.22048
1.1407
1.06648
0.997453
0.933303
0.873715
0.818403
0.767085
0.71943
0.675199
0.634228
0.596347
0.561379
0.529147
0.499478
0.4722
0.447149
0.424164
0.403095
0.383796
0.366133
0.349978
0.335213
0.321728
0.309421
0.298198
0.287974
0.278668
0.270205
0.262517
0.255539
0.249209
0.243469
0.238264
0.233541
0.229247
0.225333
0.221751
0.218451
0.215389
0.212519
0.209796
0.20718
0.20463
0.202109
0.199584
0.197025
0.194407
0.191712
0.188926
0.186048
0.18306
0.180027
0.642732
0.983059
1.18347
1.26521
1.28297
1.26804
1.24204
1.2197
1.20971
1.21598
1.23918
1.27829
1.33135
1.39604
1.46969
1.5494
1.63253
1.71559
1.79456
1.8663
1.92827
1.9796
2.01935
2.0471
2.06294
2.06734
2.06135
2.04634
2.02333
1.99331
1.95723
1.91534
1.86737
1.81269
1.75043
1.67961
1.59924
1.50836
1.40399
1.29352
1.18169
1.06938
0.958739
0.854655
0.763786
0.692904
0.649254
0.644651
0.702783
0.857148
1.15189
1.61222
2.24015
2.96561
3.58347
3.75897
3.4664
3.05706
2.70938
2.4563
2.29435
2.22087
2.23051
2.30975
2.43987
2.6033
2.78653
2.9798
3.17609
3.3705
3.55973
3.74168
3.91499
4.07873
4.23218
4.37473
4.50589
4.62525
4.73254
4.82763
4.9105
4.98124
5.04003
5.08708
5.12262
5.1471
5.16147
5.16626
5.16181
5.14839
5.12624
5.09555
5.05651
5.00926
4.95395
4.89069
4.81966
4.74106
4.65509
4.56193
4.46185
4.35546
4.2432
4.12526
4.00254
3.87635
3.74525
3.61146
3.4768
3.33971
3.20081
3.05969
2.91661
2.77217
2.62736
2.4835
2.34206
2.20449
2.07207
1.94582
1.8264
1.71412
1.60901
1.51085
1.41927
1.33379
1.25395
1.17927
1.10933
1.04375
0.98222
0.924469
0.870273
0.819435
0.771747
0.726998
0.685109
0.645996
0.609561
0.575698
0.544289
0.515212
0.488339
0.463542
0.44069
0.419657
0.400319
0.382554
0.366251
0.351302
0.337604
0.325065
0.313595
0.303113
0.293543
0.284812
0.276854
0.269605
0.263006
0.256998
0.251529
0.246544
0.241993
0.237826
0.233997
0.230457
0.227161
0.224065
0.221126
0.218303
0.215557
0.212851
0.210152
0.20743
0.20466
0.201824
0.198904
0.195895
0.192781
0.189601
0.727242
1.1837
1.39366
1.46985
1.47683
1.45127
1.41915
1.39711
1.39339
1.41002
1.44553
1.49694
1.56078
1.63407
1.71295
1.79193
1.86686
1.93546
1.99662
2.04916
2.09219
2.12528
2.14849
2.16229
2.16754
2.16534
2.15689
2.14332
2.12537
2.10336
2.07703
2.04566
2.00812
1.96311
1.90931
1.8456
1.77127
1.686
1.58976
1.48252
1.36195
1.22425
1.09193
0.968583
0.861874
0.779363
0.732406
0.740204
0.832968
1.04486
1.39728
1.92447
2.63198
3.39268
3.84233
3.70721
3.24737
2.79238
2.46795
2.2795
2.20252
2.21321
2.29038
2.41507
2.5717
2.74852
2.93683
3.13019
3.3239
3.51465
3.70019
3.87894
4.04973
4.21162
4.36376
4.50538
4.63583
4.75457
4.86118
4.95542
5.03717
5.10643
5.1633
5.20795
5.24051
5.26178
5.27252
5.2732
5.26414
5.2456
5.21781
5.18097
5.13527
5.08086
5.01787
4.94638
4.86652
4.77855
4.68269
4.57899
4.46743
4.34887
4.22392
4.09185
3.95328
3.81168
3.666
3.51697
3.36526
3.21102
3.0549
2.89768
2.7406
2.58527
2.43345
2.28688
2.14706
2.01508
1.89164
1.777
1.67105
1.57339
1.4834
1.40035
1.32345
1.25194
1.18513
1.12241
1.06329
1.00736
0.954331
0.903972
0.856126
0.810662
0.767413
0.726382
0.687576
0.650986
0.616592
0.584356
0.554229
0.526144
0.500025
0.475785
0.453331
0.432566
0.41339
0.395706
0.379416
0.364426
0.350647
0.337993
0.326385
0.315746
0.306005
0.297094
0.288949
0.281509
0.274717
0.268516
0.262854
0.257678
0.252939
0.248587
0.244576
0.24086
0.237393
0.234131
0.231033
0.228058
0.225168
0.222326
0.2195
0.216661
0.213784
0.210847
0.207835
0.204738
0.20154
0.198269
0.804214
1.37888
1.61931
1.70047
1.70145
1.66778
1.63049
1.60784
1.60721
1.62867
1.66887
1.72417
1.78642
1.84947
1.91008
1.96749
2.02016
2.06674
2.10632
2.13852
2.16349
2.18183
2.19452
2.20271
2.20761
2.21027
2.21146
2.21151
2.21029
2.20711
2.20083
2.18995
2.17257
2.14657
2.10963
2.05946
1.99404
1.91187
1.81228
1.69575
1.56389
1.41941
1.26543
1.10304
0.961843
0.861727
0.817956
0.849095
0.975671
1.22283
1.6198
2.20492
2.94434
3.59106
3.77514
3.44185
2.94666
2.54084
2.29502
2.18925
2.18608
2.25395
2.36971
2.51724
2.68542
2.86626
3.05381
3.24359
3.43231
3.61764
3.79787
3.97174
4.13817
4.2962
4.44493
4.58354
4.71126
4.82748
4.93169
5.02354
5.1028
5.16939
5.22333
5.26472
5.29375
5.31138
5.3182
5.3146
5.30088
5.27729
5.24402
5.20127
5.14927
5.0882
5.01815
4.93919
4.85132
4.75489
4.65041
4.53772
4.41604
4.28677
4.15152
4.00973
3.8619
3.70898
3.55114
3.38881
3.22256
3.05313
2.88183
2.71053
2.54162
2.37774
2.22139
2.07456
1.93858
1.81407
1.70102
1.59894
1.50702
1.4242
1.34934
1.28129
1.21893
1.16127
1.10744
1.05672
1.00856
0.962521
0.918311
0.875733
0.834666
0.794985
0.756666
0.719846
0.684592
0.650964
0.619011
0.588768
0.560247
0.533442
0.508329
0.484867
0.463004
0.442674
0.423808
0.40633
0.390163
0.37523
0.361454
0.348762
0.337081
0.326345
0.316486
0.307444
0.299157
0.291569
0.284624
0.27827
0.272453
0.267124
0.262234
0.257735
0.253581
0.249725
0.246125
0.242735
0.239516
0.236427
0.233429
0.230488
0.227572
0.22465
0.221698
0.218695
0.215624
0.212472
0.209225
0.205902
0.870501
1.58371
1.86236
1.95431
1.95294
1.91241
1.86876
1.84169
1.83848
1.8565
1.88579
1.91924
1.95563
1.99299
2.02917
2.06254
2.09206
2.11732
2.13846
2.15613
2.17132
2.18517
2.19883
2.21323
2.22899
2.24631
2.26492
2.28434
2.30497
2.3262
2.34705
2.36619
2.38183
2.39159
2.39249
2.38091
2.35283
2.30416
2.23142
2.13237
2.00671
1.85655
1.68674
1.5052
1.32427
1.16356
1.07457
1.07414
1.18078
1.41937
1.83329
2.43664
3.11424
3.57341
3.52632
3.12149
2.67247
2.35363
2.19338
2.15777
2.2063
2.30859
2.44495
2.6031
2.77498
2.95486
3.13844
3.32251
3.50468
3.68324
3.85685
4.02443
4.18499
4.33759
4.48134
4.61536
4.73887
4.85118
4.95171
5.04001
5.11577
5.17879
5.22899
5.26637
5.29147
5.30507
5.30766
5.29959
5.2811
5.25241
5.21369
5.16508
5.10688
5.03935
4.96261
4.87664
4.78116
4.67647
4.5641
4.44369
4.31522
4.17932
4.03658
3.88713
3.73124
3.5692
3.40117
3.22748
3.04881
2.8665
2.68275
2.50059
2.32359
2.15524
1.99846
1.85517
1.72624
1.61162
1.51057
1.42192
1.34425
1.27602
1.21572
1.16191
1.11326
1.06863
1.02704
0.987712
0.950027
0.913539
0.877944
0.843058
0.808766
0.774905
0.741728
0.709345
0.677877
0.647447
0.618167
0.590135
0.563423
0.538084
0.514144
0.491609
0.470467
0.450687
0.432228
0.415042
0.399071
0.384256
0.370536
0.357849
0.346134
0.335331
0.325383
0.316232
0.307824
0.300105
0.293025
0.286531
0.280574
0.275107
0.270082
0.265452
0.261171
0.257195
0.25348
0.249983
0.246664
0.243482
0.2404
0.237383
0.234398
0.231417
0.228415
0.225369
0.222263
0.219081
0.21581
0.212463
0.926628
1.78636
2.1102
2.21946
2.22022
2.17472
2.12452
2.08599
2.06065
2.04676
2.04378
2.04799
2.05602
2.06531
2.07419
2.08181
2.08804
2.09328
2.09836
2.10427
2.112
2.12239
2.13602
2.15314
2.17366
2.19719
2.22312
2.2515
2.2832
2.31844
2.35748
2.40043
2.44697
2.49595
2.54498
2.59011
2.62579
2.64513
2.64079
2.60603
2.53598
2.42832
2.28372
2.10639
1.90556
1.69735
1.51671
1.42881
1.46237
1.66055
2.06002
2.6194
3.16532
3.41563
3.23302
2.83419
2.46234
2.23056
2.14119
2.1559
2.23712
2.35892
2.50557
2.66758
2.83878
3.01483
3.19253
3.36951
3.54405
3.71482
3.88077
4.04095
4.19446
4.34042
4.47793
4.60616
4.7243
4.83162
4.92748
5.01133
5.08274
5.14143
5.18722
5.22002
5.24071
5.24988
5.24791
5.23508
5.21162
5.17771
5.13345
5.07882
5.01423
4.94022
4.85685
4.76423
4.66248
4.55199
4.43332
4.30668
4.17228
4.03049
3.88158
3.72567
3.56277
3.39286
3.21598
3.03249
2.84346
2.65102
2.45849
2.2701
2.09032
1.92311
1.77124
1.63612
1.51786
1.41566
1.3281
1.25346
1.18991
1.13564
1.08891
1.04815
1.01195
0.979098
0.948582
0.919585
0.891477
0.863797
0.836233
0.808593
0.780686
0.752543
0.724435
0.696483
0.668841
0.641679
0.61516
0.589437
0.564637
0.540863
0.518191
0.49667
0.476326
0.457165
0.439174
0.42233
0.406599
0.391938
0.378302
0.365644
0.353912
0.343057
0.333028
0.323775
0.31525
0.307403
0.300187
0.293554
0.287458
0.281853
0.276693
0.271933
0.267529
0.263436
0.259612
0.256014
0.252602
0.249337
0.246181
0.243099
0.240059
0.237032
0.233993
0.230919
0.227793
0.224598
0.221318
0.217967
0.969137
1.97189
2.34329
2.47663
2.48624
2.4328
2.35564
2.28124
2.22104
2.17528
2.1405
2.11286
2.08943
2.06847
2.04928
2.03193
2.01701
2.00533
1.99768
1.99462
1.99638
2.00277
2.01327
2.02719
2.0438
2.06256
2.08326
2.10484
2.12653
2.15023
2.17885
2.21574
2.2642
2.32667
2.40384
2.49369
2.59069
2.68572
2.76701
2.82218
2.84074
2.81546
2.74223
2.61916
2.44754
2.23577
2.00655
1.83698
1.79748
1.94195
2.28631
2.74369
3.12609
3.2091
2.97012
2.61185
2.31639
2.15505
2.11664
2.16406
2.26469
2.39682
2.54766
2.70949
2.87734
3.04778
3.21837
3.38736
3.55346
3.71566
3.87312
4.02501
4.17053
4.30886
4.43916
4.5606
4.67241
4.77384
4.86418
4.94277
5.0091
5.06276
5.10347
5.13122
5.14705
5.15136
5.14445
5.12653
5.09782
5.05847
5.00866
4.94853
4.8784
4.79859
4.70933
4.61086
4.50343
4.38742
4.26319
4.13106
3.99129
3.8441
3.6896
3.52776
3.35838
3.18129
2.9965
2.80472
2.60775
2.40882
2.21247
2.02388
1.84793
1.6883
1.54705
1.42464
1.32032
1.23254
1.1594
1.09886
1.04888
1.00754
0.973089
0.943929
0.918667
0.89611
0.87526
0.855313
0.835643
0.815787
0.79543
0.774347
0.752254
0.72952
0.706231
0.682531
0.6586
0.634641
0.610858
0.587445
0.564575
0.542397
0.521028
0.500558
0.48105
0.46254
0.445047
0.428572
0.4131
0.398609
0.385071
0.372448
0.360704
0.349798
0.339687
0.330328
0.32168
0.313698
0.306339
0.299559
0.293315
0.287563
0.28226
0.277363
0.272828
0.268613
0.264675
0.260974
0.257468
0.25412
0.250891
0.247747
0.244656
0.241589
0.238519
0.235423
0.232284
0.229083
0.225806
0.222461
0.993836
2.11708
2.52768
2.67711
2.68138
2.61229
2.51586
2.41869
2.3322
2.25827
2.19497
2.14003
2.09213
2.05109
2.01754
1.99249
1.97686
1.97114
1.97504
1.98741
2.00621
2.02871
2.05182
2.07248
2.08813
2.09714
2.09909
2.08821
2.0668
2.03951
2.01251
1.99319
1.9898
2.01064
2.06276
2.15006
2.27114
2.41753
2.57351
2.71881
2.83414
2.90637
2.929
2.89857
2.81189
2.66821
2.4788
2.28935
2.19427
2.26088
2.50316
2.82317
3.04891
3.02343
2.77028
2.45802
2.22322
2.11135
2.10558
2.17246
2.28433
2.42091
2.57183
2.73064
2.89317
3.05664
3.21915
3.37938
3.53637
3.68933
3.83757
3.98041
4.11714
4.247
4.36921
4.483
4.58757
4.68219
4.76611
4.83865
4.89919
4.94723
4.98232
5.00485
5.01564
5.01497
5.00307
4.98012
4.9463
4.90178
4.84673
4.78137
4.70596
4.6208
4.52615
4.42232
4.30962
4.18839
4.05899
3.92171
3.7768
3.62439
3.46448
3.29685
3.12121
2.93738
2.74573
2.54767
2.34617
2.14576
1.95198
1.77036
1.60533
1.45957
1.33391
1.22773
1.13947
1.06711
1.00849
0.961467
0.924028
0.894308
0.870619
0.851462
0.835529
0.821699
0.809034
0.79677
0.784306
0.771189
0.757087
0.741644
0.724895
0.707056
0.68819
0.668438
0.647993
0.627075
0.605914
0.584738
0.563754
0.543147
0.523071
0.503651
0.484982
0.467131
0.450142
0.434039
0.418831
0.404513
0.391071
0.378482
0.366721
0.355757
0.345556
0.336083
0.327301
0.319173
0.311659
0.304719
0.298315
0.292404
0.286946
0.2819
0.277224
0.272876
0.268816
0.265003
0.261397
0.257959
0.254653
0.251444
0.2483
0.24519
0.242088
0.238972
0.235821
0.232618
0.229347
0.226013
1.0185
2.15093
2.57863
2.74871
2.7726
2.71461
2.61913
2.51427
2.41447
2.32513
2.24753
2.18222
2.13025
2.09331
2.07323
2.07133
2.08788
2.12167
2.16981
2.22779
2.2898
2.34932
2.39983
2.43545
2.45167
2.44596
2.40926
2.3474
2.26464
2.16587
2.05766
1.94892
1.85117
1.77818
1.74472
1.76423
1.8455
1.98876
2.18165
2.39812
2.60561
2.77831
2.90438
2.98153
3.00908
2.98324
2.90155
2.77776
2.66648
2.64261
2.74495
2.9075
2.99239
2.89442
2.64328
2.36895
2.17622
2.09479
2.10612
2.1805
2.29376
2.42897
2.57636
2.72989
2.88575
3.04148
3.1955
3.34672
3.49439
3.6379
3.77669
3.91017
4.03771
4.15865
4.27227
4.37784
4.4746
4.56181
4.63874
4.70466
4.7589
4.80087
4.82999
4.84712
4.85269
4.84694
4.83003
4.80211
4.76333
4.71384
4.65383
4.5835
4.5031
4.41291
4.31322
4.20435
4.08663
3.9604
3.826
3.68371
3.53373
3.37613
3.21077
3.03739
2.85573
2.66596
2.46922
2.26817
2.06718
1.87187
1.68814
1.52086
1.37316
1.24615
1.13933
1.05116
0.979604
0.922461
0.877575
0.842913
0.816599
0.796927
0.782368
0.771571
0.763358
0.756717
0.750793
0.74488
0.738411
0.730947
0.722128
0.711522
0.699476
0.685966
0.671052
0.654871
0.637614
0.619508
0.6008
0.581735
0.562546
0.543446
0.524618
0.506216
0.488364
0.471155
0.454658
0.43892
0.423966
0.409812
0.396457
0.383893
0.372105
0.361073
0.350771
0.341172
0.332245
0.323958
0.316277
0.309166
0.302588
0.296506
0.290881
0.285674
0.280845
0.276354
0.27216
0.268225
0.264509
0.260974
0.257583
0.254302
0.251097
0.24794
0.244803
0.241662
0.238497
0.23529
0.232024
0.228701
1.01353
2.07908
2.51496
2.71426
2.77443
2.74859
2.67565
2.58343
2.48937
2.40307
2.32984
2.27343
2.23723
2.22426
2.23657
2.27455
2.33636
2.41772
2.51202
2.61093
2.70533
2.78634
2.84634
2.87963
2.8828
2.84949
2.78405
2.69258
2.57703
2.43846
2.27888
2.10314
1.92112
1.7489
1.60747
1.51894
1.50288
1.57387
1.73569
1.97087
2.24014
2.50108
2.72829
2.91401
3.06015
3.16562
3.22334
3.22529
3.17695
3.1102
3.06986
3.0633
3.01028
2.84555
2.59303
2.34408
2.17363
2.10231
2.11436
2.18471
2.29195
2.42076
2.56137
2.70763
2.85564
3.00299
3.14816
3.29019
3.42841
3.56234
3.69148
3.81534
3.93339
4.04501
4.14958
4.24641
4.33479
4.41401
4.48334
4.54206
4.58948
4.62496
4.64798
4.65956
4.6599
4.64912
4.62734
4.59464
4.55114
4.49697
4.43229
4.35731
4.27224
4.17737
4.07297
3.95937
3.83689
3.70589
3.56669
3.41956
3.26466
3.10199
2.93137
2.75264
2.56592
2.3722
2.17393
1.97529
1.78184
1.59952
1.43341
1.28677
1.16085
1.05521
0.968307
0.898139
0.842549
0.799442
0.766848
0.742949
0.726088
0.714771
0.70767
0.703614
0.701579
0.700678
0.700151
0.699357
0.697766
0.694939
0.69034
0.684039
0.676072
0.666377
0.654991
0.642034
0.627687
0.612176
0.59575
0.578666
0.561175
0.543508
0.525873
0.508449
0.491381
0.474789
0.458762
0.443368
0.428653
0.414646
0.401363
0.388809
0.37698
0.365866
0.355449
0.345711
0.336626
0.328168
0.320307
0.313012
0.306249
0.299984
0.29418
0.2888
0.283807
0.27916
0.274823
0.270755
0.266918
0.263275
0.25979
0.256427
0.253155
0.249942
0.246762
0.24359
0.240405
0.237189
0.233923
0.230608
0.96905
1.9377
2.37136
2.60016
2.70499
2.72562
2.69274
2.63123
2.55964
2.49066
2.43293
2.39282
2.37541
2.38438
2.42144
2.4857
2.5733
2.67757
2.78966
2.89964
2.99777
3.0756
3.12658
3.14654
3.13318
3.08728
3.01647
2.92376
2.80969
2.6732
2.51222
2.32483
2.11225
1.88427
1.66314
1.47793
1.35382
1.31339
1.37855
1.55345
1.81062
2.10497
2.40115
2.67766
2.93312
3.16389
3.35979
3.50501