/*--------------------------------*- C++ -*----------------------------------*\
| =========                 |                                                 |
| \\      /  F ield         | OpenFOAM: The Open Source CFD Toolbox           |
|  \\    /   O peration     | Version:  2112                                  |
|   \\  /    A nd           | Website:  www.openfoam.com                      |
|    \\/     M anipulation  |                                                 |
\*---------------------------------------------------------------------------*/
FoamFile
{
    version     2.0;
    format      ascii;
    arch        "LSB;label=32;scalar=64";
    class       volSymmTensorField;
    location    "0.01";
    object      turbulenceProperties:R;
}
// * * * * * * * * * * * * * * * * * * * * * * * * * * * * * * * * * * * * * //

dimensions      [0 2 -2 0 0 0 0];

internalField   nonuniform List<symmTensor> 
12885
(
(0.752251 -0.340818 -0 0.715805 -0 0.733908)
(0.314708 -0.145877 -0 0.31269 -0 0.313769)
(0.254222 -0.118104 -0 0.253741 -0 0.254002)
(0.252814 -0.117504 -0 0.252573 -0 0.252707)
(0.252579 -0.117415 -0 0.252428 -0 0.252512)
(0.252632 -0.117447 -0 0.25251 -0 0.252578)
(0.25265 -0.117456 -0 0.252534 -0 0.252599)
(0.252584 -0.117427 -0 0.252476 -0 0.252537)
(0.252652 -0.117456 -0 0.252531 -0 0.252599)
(0.252404 -0.11735 -0 0.252323 -0 0.25237)
(0.252676 -0.117485 -0 0.252638 -0 0.252657)
(0.252849 -0.117507 -0 0.252545 -0 0.252715)
(0.25203 -0.117129 -0 0.251737 -0 0.251908)
(0.253292 -0.117776 -0 0.253269 -0 0.253285)
(0.25334 -0.117799 -0 0.253328 -0 0.253327)
(0.253455 -0.117859 -0 0.253466 -0 0.253456)
(0.253627 -0.117932 -0 0.253604 -0 0.253618)
(0.253812 -0.118013 -0 0.253766 -0 0.253798)
(0.253999 -0.118106 -0 0.253979 -0 0.253996)
(0.254217 -0.118213 -0 0.254223 -0 0.254223)
(0.254485 -0.118338 -0 0.254497 -0 0.254491)
(0.2548 -0.118489 -0 0.254829 -0 0.254813)
(0.255165 -0.118672 -0 0.255256 -0 0.255204)
(0.255614 -0.1189 -0 0.255793 -0 0.255691)
(0.256251 -0.119187 -0 0.256391 -0 0.256309)
(0.257144 -0.119595 -0 0.257243 -0 0.257193)
(0.258123 -0.120085 -0 0.258386 -0 0.258233)
(0.259613 -0.120808 -0 0.26001 -0 0.259784)
(0.267748 -0.124507 -0 0.267795 -0 0.267727)
(0.266981 -0.124042 -0 0.266486 -0 0.266808)
(0.266842 -0.123314 -0 0.263721 -0 0.265078)
(0.134497 -0.00535289 -0 0.134346 -0 0.134405)
(0.00314536 -2.35189e-05 -0 0.00314523 -0 0.00314531)
(0.00165492 -3.83977e-07 -0 0.00165492 -0 0.00165492)
(4.48854e-05 -8.07991e-08 -0 4.48854e-05 -0 4.48854e-05)
(9.27135e-08 -2.7341e-15 -0 9.27135e-08 -0 9.27135e-08)
(1.17145e-08 -1.66689e-17 -0 1.17145e-08 -0 1.17145e-08)
(3.89004e-10 -1.80018e-20 -0 3.89004e-10 -0 3.89004e-10)
(4.02296e-11 -1.27953e-22 -0 4.02296e-11 -0 4.02296e-11)
(8.25768e-13 -4.8654e-26 -0 8.25768e-13 -0 8.25768e-13)
(0.651952 -0.293316 -0 0.612736 -0 0.631898)
(0.309882 -0.142829 -0 0.304565 -0 0.307191)
(0.254683 -0.118046 -0 0.253075 -0 0.253848)
(0.253128 -0.117499 -0 0.252255 -0 0.252677)
(0.252782 -0.117412 -0 0.252223 -0 0.252495)
(0.252795 -0.117443 -0 0.252342 -0 0.252563)
(0.252805 -0.117453 -0 0.252373 -0 0.252585)
(0.252728 -0.117424 -0 0.252325 -0 0.252524)
(0.252814 -0.117453 -0 0.252365 -0 0.252585)
(0.252511 -0.117347 -0 0.252207 -0 0.252361)
(0.25276 -0.117484 -0 0.252552 -0 0.25265)
(0.253334 -0.117499 -0 0.252024 -0 0.25271)
(0.251006 -0.116468 -0 0.249948 -0 0.25046)
(0.253247 -0.117762 -0 0.253253 -0 0.253252)
(0.253403 -0.117803 -0 0.253249 -0 0.253369)
(0.253462 -0.117857 -0 0.253446 -0 0.25346)
(0.253649 -0.11793 -0 0.253587 -0 0.253603)
(0.253826 -0.118012 -0 0.253778 -0 0.253766)
(0.253979 -0.118106 -0 0.254029 -0 0.253964)
(0.254189 -0.118213 -0 0.254268 -0 0.254209)
(0.254471 -0.118339 -0 0.254519 -0 0.254489)
(0.254773 -0.11849 -0 0.25486 -0 0.254816)
(0.255062 -0.118672 -0 0.255358 -0 0.255206)
(0.2554 -0.118898 -0 0.255995 -0 0.255694)
(0.256078 -0.119178 -0 0.256516 -0 0.256295)
(0.25708 -0.119616 -0 0.257385 -0 0.257255)
(0.257901 -0.12007 -0 0.258522 -0 0.258221)
(0.259793 -0.120912 -0 0.260193 -0 0.260094)
(0.27129 -0.125962 -0 0.270462 -0 0.270909)
(0.268943 -0.12483 -0 0.267979 -0 0.268438)
(0.269972 -0.124675 -0 0.266459 -0 0.268004)
(0.0200068 -0.000258341 -0 0.0199982 -0 0.0200026)
(0.000756987 -5.20718e-06 -0 0.000756918 -0 0.000756966)
(0.000437456 -1.94852e-06 -0 0.000437441 -0 0.000437448)
(6.66667e-16 -2.66408e-18 -0 6.66666e-16 -0 6.66667e-16)
(2.37091e-08 -4.00097e-14 -0 2.37091e-08 -0 2.37091e-08)
(2.94094e-09 -2.3042e-13 -0 2.94094e-09 -0 2.94094e-09)
(9.59793e-11 -2.56854e-13 -0 9.59842e-11 -0 9.59816e-11)
(3.95658e-12 -1.93014e-24 -0 3.95658e-12 -0 3.95658e-12)
(2.30554e-13 -4.38224e-27 7.23751e-48 2.30554e-13 -0 2.30554e-13)
(0.498728 -0.222805 -0 0.462692 -0 0.480723)
(0.293803 -0.13456 -0 0.285156 -0 0.289616)
(0.2554 -0.117918 -0 0.251866 -0 0.253583)
(0.253741 -0.117506 -0 0.251703 -0 0.252691)
(0.253209 -0.117426 -0 0.251872 -0 0.25252)
(0.253146 -0.117457 -0 0.252062 -0 0.252589)
(0.25314 -0.117468 -0 0.25211 -0 0.252617)
(0.253041 -0.11744 -0 0.252085 -0 0.252559)
(0.253158 -0.117471 -0 0.252101 -0 0.252623)
(0.252762 -0.117365 -0 0.252033 -0 0.252404)
(0.253111 -0.117513 -0 0.25229 -0 0.252752)
(0.254146 -0.117442 -0 0.251055 -0 0.252552)
(0.246359 -0.114 -0 0.243999 -0 0.245163)
(0.25292 -0.117668 -0 0.253183 -0 0.253043)
(0.253435 -0.117874 -0 0.253615 -0 0.253428)
(0.25355 -0.117902 -0 0.253579 -0 0.253526)
(0.253875 -0.117978 -0 0.253522 -0 0.253754)
(0.254106 -0.118069 -0 0.253646 -0 0.253984)
(0.254215 -0.118173 -0 0.254012 -0 0.254179)
(0.254387 -0.118293 -0 0.254377 -0 0.254419)
(0.254682 -0.118435 -0 0.254705 -0 0.254708)
(0.254998 -0.118603 -0 0.255112 -0 0.25507)
(0.255236 -0.118805 -0 0.25575 -0 0.2555)
(0.255465 -0.11906 -0 0.256656 -0 0.25602)
(0.256281 -0.119353 -0 0.257068 -0 0.256677)
(0.258128 -0.120136 -0 0.258509 -0 0.258439)
(0.258982 -0.120495 -0 0.259194 -0 0.259214)
(0.264151 -0.122644 -0 0.263404 -0 0.263698)
(0.268221 -0.124144 -0 0.266099 -0 0.266643)
(0.272553 -0.126299 -0 0.270284 -0 0.272037)
(0.27433 -0.12741 -0 0.273303 -0 0.274383)
(0.0201036 -0.000130338 -0 0.0201034 -0 0.0201029)
(6.6668e-16 -4.17865e-18 -0 6.66654e-16 -0 6.66666e-16)
(6.66678e-16 -4.20351e-18 -0 6.66659e-16 -0 6.66664e-16)
(6.66663e-16 -4.21389e-18 -0 6.66672e-16 -0 6.66665e-16)
(6.66647e-16 -4.22876e-18 -0 6.66687e-16 -0 6.66666e-16)
(6.66632e-16 -4.23949e-18 -0 6.66701e-16 -0 6.66667e-16)
(6.66612e-16 -4.25191e-18 -0 6.66723e-16 -0 6.66665e-16)
(8.0883e-13 -3.35164e-26 -0 8.0883e-13 -0 8.0883e-13)
(3.46285e-14 -1.37686e-28 -1.56769e-49 3.46285e-14 -0 3.46285e-14)
(0.348958 -0.155157 -0 0.321132 -0 0.334942)
(0.270768 -0.123192 -0 0.259378 -0 0.265493)
(0.256598 -0.117728 -0 0.249962 -0 0.253274)
(0.254945 -0.117521 -0 0.250572 -0 0.252811)
(0.254152 -0.117463 -0 0.251057 -0 0.252681)
(0.253924 -0.117498 -0 0.25144 -0 0.252732)
(0.253849 -0.117516 -0 0.251602 -0 0.252749)
(0.253684 -0.117493 -0 0.251677 -0 0.252684)
(0.253844 -0.117529 -0 0.251677 -0 0.25276)
(0.25331 -0.117429 -0 0.251753 -0 0.252563)
(0.254037 -0.117629 -0 0.251952 -0 0.252936)
(0.253003 -0.116405 -0 0.247955 -0 0.250218)
(0.205997 -0.0123413 -0 0.205545 -0 0.20578)
(0.250392 -0.116251 -0 0.24949 -0 0.250131)
(0.254277 -0.118258 -0 0.254303 -0 0.254376)
(0.254041 -0.118073 -0 0.253831 -0 0.25389)
(0.254279 -0.118142 -0 0.253936 -0 0.253992)
(0.254393 -0.118258 -0 0.254331 -0 0.254233)
(0.254597 -0.118396 -0 0.254703 -0 0.254543)
(0.254925 -0.118559 -0 0.255027 -0 0.254942)
(0.255378 -0.11875 -0 0.25538 -0 0.25537)
(0.255788 -0.118975 -0 0.255937 -0 0.255855)
(0.256121 -0.11924 -0 0.256734 -0 0.256438)
(0.256765 -0.119671 -0 0.257881 -0 0.257432)
(0.258033 -0.120135 -0 0.258705 -0 0.258331)
(0.266179 -0.12381 -0 0.266204 -0 0.26639)
(0.266516 -0.12371 -0 0.265681 -0 0.265934)
(0.255273 -0.101433 -0 0.253977 -0 0.25428)
(0.163802 -0.0327471 -0 0.163156 -0 0.163409)
(0.181257 -0.0121358 -0 0.180938 -0 0.181074)
(0.274611 -0.126057 -0 0.27452 -0 0.274965)
(0.0232885 -0.000136179 -0 0.0232912 -0 0.0232901)
(6.66639e-16 -3.92479e-18 -0 6.66693e-16 -0 6.66668e-16)
(6.66643e-16 -3.93883e-18 -0 6.66691e-16 -0 6.66667e-16)
(6.66638e-16 -3.95044e-18 -0 6.66695e-16 -0 6.66667e-16)
(6.6663e-16 -3.96055e-18 -0 6.66704e-16 -0 6.66667e-16)
(6.66621e-16 -3.95832e-18 -0 6.66713e-16 -0 6.66666e-16)
(1.5474e-15 -9.17012e-18 -0 1.54765e-15 -0 1.54752e-15)
(7.72809e-15 -2.21983e-29 -0 7.72809e-15 -0 7.72809e-15)
(9.82462e-16 -3.67386e-31 -0 9.82462e-16 -0 9.82462e-16)
(0.275125 -0.123723 -0 0.258527 -0 0.26636)
(0.261476 -0.11881 -0 0.249672 -0 0.256328)
(0.257857 -0.117642 -0 0.248625 -0 0.253082)
(0.2568 -0.117561 -0 0.249252 -0 0.252797)
(0.256061 -0.117556 -0 0.249794 -0 0.252841)
(0.255679 -0.117594 -0 0.250233 -0 0.252965)
(0.255525 -0.117643 -0 0.25055 -0 0.253082)
(0.255217 -0.117637 -0 0.250807 -0 0.253059)
(0.255372 -0.117706 -0 0.250983 -0 0.253172)
(0.255043 -0.117776 -0 0.251456 -0 0.253435)
(0.256906 -0.118379 -0 0.252448 -0 0.25452)
(0.177211 -0.00483963 -0 0.176978 -0 0.177085)
(0.0190347 -1.88686e-05 -0 0.0190339 -0 0.0190344)
(0.163644 -0.00357582 -0 0.163502 -0 0.16357)
(0.24851 -0.0960893 -0 0.245646 -0 0.247018)
(0.256687 -0.118718 -0 0.254006 -0 0.255277)
(0.255809 -0.118617 -0 0.254264 -0 0.255213)
(0.255344 -0.118661 -0 0.254866 -0 0.255349)
(0.255532 -0.118758 -0 0.255245 -0 0.255406)
(0.255917 -0.118935 -0 0.255614 -0 0.25579)
(0.256431 -0.119146 -0 0.256032 -0 0.256219)
(0.256821 -0.119373 -0 0.256562 -0 0.256763)
(0.257757 -0.119806 -0 0.257494 -0 0.25769)
(0.263129 -0.122175 -0 0.262486 -0 0.262615)
(0.268612 -0.124766 -0 0.268002 -0 0.26833)
(0.242148 -0.10971 -0 0.241311 -0 0.241817)
(0.259558 -0.101686 -0 0.258623 -0 0.258889)
(0.0338904 -0.000935031 -0 0.0338821 -0 0.0338857)
(0.199539 -0.0337469 -0 0.199455 -0 0.199687)
(0.0260848 -0.00224054 -0 0.0260861 -0 0.0260821)
(0.070696 -0.0016592 -0 0.0706962 -0 0.0706904)
(0.00413702 -2.19245e-05 -0 0.00413714 -0 0.00413717)
(0.00243723 -1.28901e-05 -0 0.00243733 -0 0.00243728)
(6.66649e-16 -3.51958e-18 -0 6.66685e-16 -0 6.66665e-16)
(6.66644e-16 -3.52073e-18 -0 6.6669e-16 -0 6.66666e-16)
(6.66637e-16 -3.50702e-18 -0 6.66695e-16 -0 6.66668e-16)
(6.66635e-16 -3.49978e-18 -0 6.66698e-16 -0 6.66667e-16)
(6.66633e-16 -3.48815e-18 -0 6.66698e-16 -0 6.66668e-16)
(6.66667e-16 -6.59588e-32 -0 6.66667e-16 -0 6.66667e-16)
(6.66667e-16 -1.0967e-32 -0 6.66667e-16 -0 6.66667e-16)
(0.237208 -0.116556 -0 0.275433 -0 0.250349)
(0.254747 -0.118074 -0 0.251845 -0 0.255347)
(0.257677 -0.117744 -0 0.249268 -0 0.253182)
(0.257533 -0.117679 -0 0.248973 -0 0.253216)
(0.257389 -0.117685 -0 0.249078 -0 0.253263)
(0.257458 -0.117681 -0 0.24915 -0 0.253101)
(0.257786 -0.11791 -0 0.249778 -0 0.253587)
(0.257297 -0.117827 -0 0.249812 -0 0.253448)
(0.257457 -0.118044 -0 0.250533 -0 0.253914)
(0.26193 -0.120071 -0 0.254838 -0 0.258222)
(0.255004 -0.118573 -0 0.248078 -0 0.251533)
(0.0017917 -8.6118e-08 -0 0.0017917 -0 0.0017917)
(9.8392e-05 -2.70025e-10 -0 9.8392e-05 -0 9.8392e-05)
(0.0021192 -1.30193e-07 -0 0.00211919 -0 0.00211919)
(0.0332461 -3.72073e-05 -0 0.0332444 -0 0.0332453)
(0.168433 -0.00250144 -0 0.168323 -0 0.168375)
(0.247944 -0.0520846 -0 0.245757 -0 0.246797)
(0.256569 -0.134855 -0 0.2512 -0 0.253612)
(0.258776 -0.119388 -0 0.254852 -0 0.25672)
(0.257357 -0.118936 -0 0.254189 -0 0.255854)
(0.25768 -0.119183 -0 0.254905 -0 0.256391)
(0.258124 -0.119325 -0 0.255222 -0 0.25655)
(0.26266 -0.122061 -0 0.259562 -0 0.260863)
(0.228808 -0.0353969 -0 0.228012 -0 0.228333)
(0.0882817 -0.040841 -0 0.0873689 -0 0.0878521)
(0.201782 -0.0934194 -0 0.200008 -0 0.200943)
(0.00264932 -5.65826e-06 -0 0.00264923 -0 0.00264927)
(0.00287014 -8.24682e-07 -0 0.00287013 -0 0.00287013)
(0.0471435 -0.000101809 -0 0.0471431 -0 0.047143)
(0.147807 -0.00329342 -0 0.147807 -0 0.147804)
(0.0647518 -0.000231338 -0 0.0647518 -0 0.064752)
(0.0258579 -9.18036e-05 -0 0.0258579 -0 0.025858)
(0.0216559 -7.67953e-05 -0 0.0216559 -0 0.0216559)
(0.00343235 -1.21698e-05 -0 0.00343235 -0 0.00343235)
(0.00266071 -9.41783e-06 -0 0.00266072 -0 0.00266071)
(0.00529252 -1.87001e-05 -0 0.00529255 -0 0.00529254)
(6.66666e-16 -2.35039e-18 -0 6.66668e-16 -0 6.66666e-16)
(6.66665e-16 -2.34607e-18 -0 6.66667e-16 -0 6.66668e-16)
(6.66667e-16 -4.13236e-33 -0 6.66667e-16 -0 6.66667e-16)
(6.66667e-16 -8.15706e-34 -0 6.66667e-16 -0 6.66667e-16)
(0.161131 -0.0634873 -0 0.355224 -0 0.240486)
(0.170438 -0.0832018 -0 0.302678 -0 0.28765)
(0.256681 -0.117828 -0 0.251875 -0 0.251933)
(0.260085 -0.117677 -0 0.247939 -0 0.252278)
(0.258465 -0.117747 -0 0.248873 -0 0.252963)
(0.238387 -0.00292766 -0 0.238236 -0 0.238319)
(0.114465 -0.000101205 -0 0.11446 -0 0.114462)
(0.238265 -0.00417667 -0 0.238039 -0 0.238164)
(0.255436 -0.0487569 -0 0.252804 -0 0.254164)
(0.163857 -0.00554307 -0 0.163567 -0 0.163732)
(0.0230244 -6.66776e-06 -0 0.0230241 -0 0.0230243)
(1.76134e-06 -4.19145e-14 -0 1.76134e-06 -0 1.76134e-06)
(2.54119e-07 -5.40788e-16 -0 2.54119e-07 -0 2.54119e-07)
(6.44322e-06 -3.31183e-13 -0 6.44322e-06 -0 6.44322e-06)
(7.96556e-05 -5.30205e-11 -0 7.96556e-05 -0 7.96556e-05)
(0.00110045 -1.06548e-08 -0 0.00110045 -0 0.00110045)
(0.0276828 -7.79803e-06 -0 0.0276825 -0 0.0276826)
(0.0683827 -6.01709e-05 -0 0.068381 -0 0.0683818)
(0.222284 -0.00469101 -0 0.222123 -0 0.222216)
(0.257922 -0.118833 -0 0.253184 -0 0.255712)
(0.263198 -0.121304 -0 0.258337 -0 0.260849)
(0.263948 -0.118561 -0 0.260221 -0 0.262207)
(0.0546255 -0.0013083 -0 0.0545984 -0 0.0546157)
(0.0711046 -0.000309126 -0 0.0710992 -0 0.0711043)
(0.19784 -0.00601357 -0 0.19775 -0 0.197804)
(0.206532 -0.0958095 -0 0.205571 -0 0.206031)
(0.00149605 -2.38828e-08 -0 0.00149605 -0 0.00149605)
(0.000223568 -6.37154e-10 -0 0.000223568 -0 0.000223568)
(0.00121149 -2.10538e-08 -0 0.00121149 -0 0.00121149)
(0.0924431 -0.000645639 -0 0.0924529 -0 0.0924473)
(0.0732883 -9.4608e-05 -0 0.07329 -0 0.0732891)
(0.0520929 -6.62952e-05 -0 0.052094 -0 0.0520935)
(0.0129227 -1.64434e-05 -0 0.012923 -0 0.0129229)
(0.0119531 -1.52187e-05 -0 0.0119533 -0 0.0119532)
(0.046403 -0.000179372 -0 0.0464045 -0 0.0464036)
(0.098238 -0.000459258 -0 0.098241 -0 0.0982393)
(0.0196859 -2.50595e-05 -0 0.019686 -0 0.0196859)
(0.000331796 -4.2262e-07 -0 0.000331797 -0 0.000331796)
(0.00152531 -3.38187e-07 -0 0.00152531 -0 0.00152531)
(0.000311853 -1.56764e-24 -0 0.000311853 -0 0.000311853)
(0.146557 -0.0319727 -0 0.368666 -0 0.239481)
(0.165812 0.0831931 -0 0.317543 -0 0.275959)
(0.23494 0.113731 -0 0.283872 -0 0.241029)
(0.27638 -0.0248899 -0 0.252447 -0 0.231079)
(0.254294 -0.00425487 -0 0.2546 -0 0.254793)
(0.00175973 -6.68587e-10 -0 0.00175973 -0 0.00175973)
(0.000153458 -6.99127e-12 -0 0.000153458 -0 0.000153458)
(0.000461987 -2.91214e-10 -0 0.000461987 -0 0.000461987)
(0.0531205 -4.98583e-06 -0 0.0531214 -0 0.053121)
(0.00132274 -9.92985e-10 -0 0.00132274 -0 0.00132274)
(6.12063e-05 -3.06919e-12 -0 6.12063e-05 -0 6.12063e-05)
(5.7586e-09 -2.3946e-20 -0 5.7586e-09 -0 5.7586e-09)
(6.47109e-10 -3.41132e-22 -0 6.47109e-10 -0 6.47109e-10)
(1.81316e-09 -3.03896e-20 -0 1.81316e-09 -0 1.81316e-09)
(2.07264e-07 -5.4226e-17 -0 2.07264e-07 -0 2.07264e-07)
(4.85181e-06 -2.25755e-14 -0 4.85181e-06 -0 4.85181e-06)
(7.06434e-05 -4.72643e-12 -0 7.06434e-05 -0 7.06434e-05)
(0.000236737 -5.67536e-11 -0 0.000236737 -0 0.000236737)
(0.00597579 -3.77103e-08 -0 0.0059758 -0 0.00597579)
(0.120809 -4.07142e-05 -0 0.120814 -0 0.120811)
(0.127422 -0.000194848 -0 0.127451 -0 0.127433)
(0.0284543 -0.000275256 -0 0.0284914 -0 0.0284713)
(0.0217561 -1.12775e-06 -0 0.0217562 -0 0.0217561)
(0.0300238 -1.69492e-06 -0 0.030024 -0 0.0300239)
(4.55323e-05 -3.02859e-12 -0 4.55323e-05 -0 4.55323e-05)
(0.00860241 -1.17208e-07 -0 0.00860243 -0 0.00860242)
(0.00175538 -4.71802e-09 -0 0.00175539 -0 0.00175538)
(0.00212623 -8.03593e-09 -0 0.00212623 -0 0.00212623)
(0.171312 -0.0826388 -0 0.186493 -0 0.177653)
(0.165287 -0.000735974 -0 0.165449 -0 0.165362)
(0.166111 -0.000161088 -0 0.166145 -0 0.166128)
(0.03304 -4.95468e-06 -0 0.0330409 -0 0.0330404)
(0.0417076 -6.23254e-06 -0 0.0417086 -0 0.0417081)
(0.0627277 -9.34803e-06 -0 0.0627291 -0 0.0627283)
(0.0302586 -2.29726e-06 -0 0.0302589 -0 0.0302587)
(0.0432356 -9.70632e-06 -0 0.0432368 -0 0.0432361)
(0.0139762 -2.08268e-06 -0 0.0139765 -0 0.0139763)
(0.0034945 -5.23361e-07 -0 0.00349456 -0 0.00349453)
(4.5957e-05 -5.03474e-09 -0 4.59575e-05 -0 4.59573e-05)
(6.66666e-16 -1.2533e-20 -0 6.66667e-16 -0 6.66667e-16)
(0.153503 -0.0442514 -0 0.364246 -0 0.235216)
(0.165052 0.0825358 -0 0.32738 -0 0.270034)
(0.187177 0.0996856 -0 0.306005 -0 0.266929)
(0.242919 0.024467 -0 0.265411 -0 0.251982)
(0.026432 6.56033e-08 -0 0.0264321 -0 0.026432)
(1.27684e-06 1.44804e-16 -0 1.27684e-06 -0 1.27684e-06)
(1.76201e-08 2.28964e-19 -0 1.76201e-08 -0 1.76201e-08)
(7.22636e-05 7.14381e-15 -0 7.22636e-05 -0 7.22636e-05)
(0.00792891 7.8181e-09 -0 0.00792892 -0 0.00792891)
(0.000188042 1.05448e-13 -0 0.000188042 -0 0.000188042)
(9.79403e-08 8.24607e-19 -0 9.79403e-08 -0 9.79403e-08)
(1.30081e-11 1.45998e-26 -0 1.30081e-11 -0 1.30081e-11)
(2.03269e-12 3.96326e-28 -0 2.03269e-12 -0 2.03269e-12)
(7.11413e-11 5.26531e-25 -0 7.11413e-11 -0 7.11413e-11)
(1.02864e-09 1.1952e-22 -0 1.02864e-09 -0 1.02864e-09)
(2.32201e-09 5.58737e-21 -0 2.32201e-09 -0 2.32201e-09)
(2.26258e-07 8.36583e-18 -0 2.26258e-07 -0 2.26258e-07)
(5.51599e-07 2.76588e-17 -0 5.51599e-07 -0 5.51599e-07)
(1.33341e-05 1.7647e-14 -0 1.33341e-05 -0 1.33341e-05)
(9.54806e-05 7.5438e-12 -0 9.54807e-05 -0 9.54806e-05)
(0.0233708 7.54937e-08 -0 0.0233709 -0 0.0233709)
(0.0103414 1.18945e-08 -0 0.0103414 -0 0.0103414)
(0.00231514 6.01034e-10 -0 0.00231514 -0 0.00231514)
(1.01867e-05 1.19913e-14 -0 1.01867e-05 -0 1.01867e-05)
(2.16514e-06 5.30308e-16 -0 2.16514e-06 -0 2.16514e-06)
(8.5156e-07 8.91335e-17 -0 8.5156e-07 -0 8.5156e-07)
(2.02397e-07 4.89982e-18 -0 2.02397e-07 -0 2.02397e-07)
(9.9439e-07 1.57559e-16 -0 9.9439e-07 -0 9.9439e-07)
(0.0289344 0.015158 -0 0.048838 -0 0.0392363)
(0.108825 0.0558505 -0 0.181588 -0 0.140631)
(0.122059 6.13688e-06 -0 0.122067 -0 0.122064)
(0.0584957 8.88927e-07 -0 0.0584967 -0 0.0584963)
(0.013905 2.20784e-07 -0 0.0139052 -0 0.0139051)
(0.00699989 1.1367e-07 -0 0.00699997 -0 0.00699993)
(0.0221685 3.6573e-07 -0 0.0221688 -0 0.0221687)
(0.0134334 2.23907e-07 -0 0.0134336 -0 0.0134335)
(0.0498909 1.67666e-06 -0 0.049892 -0 0.0498915)
(0.0268931 4.5403e-07 -0 0.0268933 -0 0.0268932)
(0.00629324 9.64528e-08 -0 0.00629329 -0 0.00629327)
(0.000196971 3.20225e-09 -0 0.000196972 -0 0.000196972)
(0.219509 -0.0255732 -0 0.297933 -0 0.24681)
(0.111648 9.83532e-05 -0 0.111984 -0 0.111833)
(0.161112 0.000139086 -0 0.161308 -0 0.161235)
(0.00205472 6.29033e-10 -0 0.00205472 -0 0.00205472)
(3.92469e-05 1.62784e-12 -0 3.92469e-05 -0 3.92469e-05)
(5.99593e-10 4.95767e-23 -0 5.99593e-10 -0 5.99593e-10)
(5.10953e-11 6.67827e-25 -0 5.10953e-11 -0 5.10953e-11)
(4.28978e-10 3.65222e-23 -0 4.28978e-10 -0 4.28978e-10)
(4.30575e-10 6.26353e-15 -0 4.30581e-10 -0 4.30578e-10)
(2.08096e-09 7.55601e-22 -0 2.08096e-09 -0 2.08096e-09)
(2.2389e-10 8.06529e-24 -0 2.2389e-10 -0 2.2389e-10)
(2.38755e-09 9.40063e-22 -0 2.38755e-09 -0 2.38755e-09)
(2.41515e-11 9.99962e-26 -0 2.41515e-11 -0 2.41515e-11)
(8.68685e-10 1.34908e-22 -0 8.68685e-10 -0 8.68685e-10)
(1.39781e-08 3.62779e-20 -0 1.39781e-08 -0 1.39781e-08)
(8.49054e-06 1.36506e-14 -0 8.49054e-06 -0 8.49054e-06)
(1.22705e-08 2.59752e-20 -0 1.22705e-08 -0 1.22705e-08)
(8.59241e-10 3.89347e-22 -0 8.59241e-10 -0 8.59241e-10)
(5.08308e-08 8.28183e-19 -0 5.08308e-08 -0 5.08308e-08)
(0.000863573 1.5389e-10 -0 0.000863573 -0 0.000863573)
(0.00112702 2.61174e-10 -0 0.00112702 -0 0.00112702)
(1.30195e-05 3.54202e-14 -0 1.30195e-05 -0 1.30195e-05)
(2.94841e-06 1.81039e-15 -0 2.94841e-06 -0 2.94841e-06)
(3.1222e-08 2.11329e-19 -0 3.1222e-08 -0 3.1222e-08)
(7.23484e-09 1.10208e-20 -0 7.23484e-09 -0 7.23484e-09)
(3.35902e-08 2.57873e-19 -0 3.35902e-08 -0 3.35902e-08)
(6.32307e-06 1.28438e-14 -0 6.32307e-06 -0 6.32307e-06)
(0.163329 0.083762 -0 0.212927 -0 0.187353)
(0.151742 0.0780414 -0 0.203614 -0 0.175415)
(0.0535852 0.0276832 -0 0.0724952 -0 0.0626661)
(0.0739542 6.30263e-06 -0 0.073958 -0 0.0739561)
(0.0180477 4.20567e-07 -0 0.018048 -0 0.0180479)
(6.66663e-16 1.57858e-20 -0 6.66671e-16 -0 6.66667e-16)
(6.66663e-16 1.58523e-20 -0 6.6667e-16 -0 6.66666e-16)
(0.00032571 7.76171e-09 -0 0.000325713 -0 0.000325711)
(0.000181116 4.32418e-09 -0 0.000181118 -0 0.000181117)
(0.00061706 1.47554e-08 -0 0.000617067 -0 0.000617063)
(0.00605555 1.45006e-07 -0 0.00605561 -0 0.00605558)
(0.0228252 5.46765e-07 -0 0.0228254 -0 0.0228253)
(0.005287 1.26714e-07 -0 0.00528705 -0 0.00528702)
(0.108858 -4.20955e-07 -0 0.108859 -0 0.108858)
(0.012405 2.43114e-08 -0 0.0124055 -0 0.0124053)
(1.15041e-06 1.55857e-14 -0 1.15041e-06 -0 1.15041e-06)
(1.11082e-08 7.37296e-21 -0 1.11082e-08 -0 1.11082e-08)
(1.39862e-09 1.71102e-22 -0 1.39862e-09 -0 1.39862e-09)
(9.74619e-14 1.75232e-30 -0 9.74619e-14 -0 9.74619e-14)
(4.15502e-12 1.49674e-29 -0 4.15502e-12 -0 4.15502e-12)
(3.24569e-11 6.85536e-28 -0 3.24569e-11 -0 3.24569e-11)
(0.00299987 3.22432e-07 -0 0.0030003 -0 0.00300009)
(1.36959e-10 2.27937e-26 -0 1.36959e-10 -0 1.36959e-10)
(3.87264e-13 1.39446e-29 -0 3.87264e-13 -0 3.87264e-13)
(4.86639e-12 2.21269e-27 -0 4.86639e-12 -0 4.86639e-12)
(7.31375e-11 5.18711e-25 -0 7.31375e-11 -0 7.31375e-11)
(9.73463e-10 9.59017e-23 -0 9.73463e-10 -0 9.73463e-10)
(1.58602e-08 2.64513e-20 -0 1.58602e-08 -0 1.58602e-08)
(5.49874e-09 3.25462e-21 -0 5.49874e-09 -0 5.49874e-09)
(2.03028e-11 4.57177e-26 -0 2.03028e-11 -0 2.03028e-11)
(2.62769e-12 1.37028e-27 -0 2.62769e-12 -0 2.62769e-12)
(3.87999e-08 4.39642e-22 -0 3.87999e-08 -0 3.87999e-08)
(1.58535e-07 4.01622e-18 -0 1.58535e-07 -0 1.58535e-07)
(1.2608e-06 2.01781e-16 -0 1.2608e-06 -0 1.2608e-06)
(3.15633e-08 1.14089e-19 -0 3.15633e-08 -0 3.15633e-08)
(7.63839e-09 7.47447e-21 -0 7.63839e-09 -0 7.63839e-09)
(4.91337e-11 2.66171e-25 -0 4.91337e-11 -0 4.91337e-11)
(1.19745e-11 2.03262e-26 -0 1.19745e-11 -0 1.19745e-11)
(4.82612e-11 4.42478e-25 -0 4.82612e-11 -0 4.82612e-11)
(0.157802 0.0802748 -0 0.222116 -0 0.180988)
(3.65525e-15 1.23997e-33 -0 3.65525e-15 -0 3.65525e-15)
(0.0208117 0.0108632 -0 0.0283555 -0 0.025096)
(0.0440823 0.0225937 -0 0.0590185 -0 0.0505554)
(0.00712026 3.2662e-07 -0 0.00712049 -0 0.00712037)
(0.0306536 3.95183e-07 -0 0.0306539 -0 0.0306538)
(0.00708621 9.25988e-08 -0 0.00708627 -0 0.00708624)
(6.66664e-16 8.74893e-21 -0 6.66669e-16 -0 6.66667e-16)
(9.49258e-05 1.24967e-09 -0 9.49266e-05 -0 9.49262e-05)
(2.39516e-06 3.16205e-11 -0 2.39518e-06 -0 2.39517e-06)
(6.66664e-16 8.82149e-21 -0 6.66669e-16 -0 6.66667e-16)
(6.66664e-16 8.84086e-21 -0 6.66669e-16 -0 6.66667e-16)
(0.000136836 1.81779e-09 -0 0.000136837 -0 0.000136837)
(6.66667e-16 1.28318e-22 1.00213e-42 6.66667e-16 -0 6.66667e-16)
(0.0938522 -8.08908e-08 -0 0.0938524 -0 0.0938523)
(1.07967e-08 1.54084e-15 -0 1.07968e-08 -0 1.07967e-08)
(5.38673e-08 4.90277e-20 -0 5.38673e-08 -0 5.38673e-08)
(5.57352e-13 1.13958e-29 -0 5.57352e-13 -0 5.57352e-13)
(2.31859e-13 1.66492e-30 -0 2.31859e-13 -0 2.31859e-13)
(6.66667e-16 1.19074e-36 -0 6.66667e-16 -0 6.66667e-16)
(6.66667e-16 2.93129e-37 -0 6.66667e-16 -0 6.66667e-16)
(6.66667e-16 1.68511e-36 -0 6.66667e-16 -0 6.66667e-16)
(0.0516533 0.025338 -0 0.0991232 -0 0.0735324)
(6.66667e-16 7.95029e-35 -0 6.66667e-16 -0 6.66667e-16)
(6.66667e-16 1.9902e-35 -0 6.66667e-16 -0 6.66667e-16)
(6.07776e-15 1.64169e-33 -0 6.07776e-15 -0 6.07776e-15)
(4.03768e-14 1.60267e-31 -0 4.03768e-14 -0 4.03768e-14)
(4.16757e-13 1.88919e-29 -0 4.16757e-13 -0 4.16757e-13)
(5.30457e-12 3.7056e-27 -0 5.30457e-12 -0 5.30457e-12)
(1.98345e-11 6.60966e-26 -0 1.98345e-11 -0 1.98345e-11)
(2.47882e-15 1.85078e-33 -0 2.47882e-15 -0 2.47882e-15)
(2.30405e-15 4.34077e-34 -0 2.30405e-15 -0 2.30405e-15)
(3.18648e-14 7.04507e-32 -0 3.18648e-14 -0 3.18648e-14)
(2.86652e-09 4.14314e-24 -0 2.86652e-09 -0 2.86652e-09)
(2.09386e-08 7.18734e-22 -0 2.09386e-08 -0 2.09386e-08)
(1.05037e-07 2.68793e-22 -0 1.05037e-07 -0 1.05037e-07)
(2.31879e-12 1.43504e-27 -0 2.31879e-12 -0 2.31879e-12)
(2.1053e-14 4.64117e-32 -0 2.1053e-14 -0 2.1053e-14)
(6.81427e-15 3.30522e-33 -0 6.81427e-15 -0 6.81427e-15)
(2.77173e-14 7.3944e-32 -0 2.77173e-14 -0 2.77173e-14)
(6.66667e-16 4.15224e-36 -0 6.66667e-16 -0 6.66667e-16)
(6.93777e-16 1.87147e-36 -0 6.93777e-16 -0 6.93777e-16)
(6.66667e-16 9.94841e-36 -0 6.66667e-16 -0 6.66667e-16)
(0.135871 0.0649081 -0 0.206567 -0 0.151341)
(4.93711e-14 2.68002e-31 -0 4.93711e-14 -0 4.93711e-14)
(0.0380538 2.70948e-07 -0 0.038054 -0 0.0380539)
(0.00891942 6.63717e-08 -0 0.00891946 -0 0.00891944)
(0.00525968 5.41585e-08 -0 0.00525971 -0 0.00525969)
(0.0196014 3.22126e-07 -0 0.0196016 -0 0.0196015)
(0.000539866 4.09344e-09 -0 0.000539869 -0 0.000539867)
(0.000127244 9.68341e-10 -0 0.000127245 -0 0.000127244)
(6.66665e-16 5.09054e-21 -0 6.66668e-16 -0 6.66667e-16)
(6.66665e-16 5.10689e-21 -0 6.66668e-16 -0 6.66667e-16)
(6.66665e-16 5.12064e-21 -3.94769e-41 6.66668e-16 -0 6.66667e-16)
(0.0894359 1.00957e-07 -0 0.089436 -0 0.0894359)
(6.66666e-16 3.57651e-22 -0 6.66667e-16 -0 6.66667e-16)
(3.05543e-09 7.99973e-18 -0 3.05543e-09 -0 3.05543e-09)
(1.6295e-13 8.0079e-32 -0 1.6295e-13 -0 1.6295e-13)
(6.13866e-15 2.12716e-34 -0 6.13866e-15 -0 6.13866e-15)
(1.43307e-15 5.96932e-36 -0 1.43307e-15 -0 1.43307e-15)
(6.66667e-16 1.26187e-36 -0 6.66667e-16 -0 6.66667e-16)
(6.66667e-16 1.29841e-35 -0 6.66667e-16 -0 6.66667e-16)
(0.0795867 0.0251987 -0 0.198857 -0 0.139236)
(0.0832594 0.0235531 -0 0.195676 -0 0.125071)
(1.90607e-14 4.26606e-33 -0 1.90607e-14 -0 1.90607e-14)
(4.65129e-15 1.43515e-32 -0 4.65129e-15 -0 4.65129e-15)
(3.77849e-09 3.50144e-16 -0 3.77849e-09 -0 3.77849e-09)
(1.64194e-08 6.82929e-21 -0 1.64194e-08 -0 1.64194e-08)
(7.04503e-08 1.1748e-19 -0 7.04503e-08 -0 7.04503e-08)
(1.52479e-08 2.07388e-15 -0 1.52479e-08 -0 1.52479e-08)
(1.85261e-11 6.68174e-25 -0 1.85261e-11 -0 1.85261e-11)
(7.76071e-11 7.4131e-25 -0 7.76071e-11 -0 7.76071e-11)
(0.000238207 9.64087e-12 -0 0.000238207 -0 0.000238207)
(5.32144e-05 2.40196e-18 -0 5.32144e-05 -0 5.32144e-05)
(1.96592e-06 1.03591e-16 -0 1.96592e-06 -0 1.96592e-06)
(8.02111e-06 2.48658e-15 -0 8.02111e-06 -0 8.02111e-06)
(5.63066e-11 1.14751e-24 -0 5.63066e-11 -0 5.63066e-11)
(1.28005e-11 3.56988e-15 -0 1.28022e-11 -0 1.28014e-11)
(0.028842 1.3843e-18 -0 0.028842 -0 0.028842)
(0.102374 0.0513057 -0 0.132187 -0 0.111885)
(0.0227238 0.0117026 -0 0.0306339 -0 0.0263639)
(0.00017352 1.77559e-23 -0 0.00017352 -0 0.00017352)
(5.62927e-05 4.33774e-10 -0 5.62928e-05 -0 5.62928e-05)
(9.80982e-16 1.06725e-34 -0 9.80982e-16 -0 9.80982e-16)
(6.66667e-16 1.89455e-35 -0 6.66667e-16 -0 6.66667e-16)
(0.000206922 6.78018e-10 -0 0.000206922 -0 0.000206922)
(0.0125721 4.98429e-08 -0 0.0125721 -0 0.0125721)
(0.0492035 1.96753e-07 -0 0.0492035 -0 0.0492035)
(0.0116145 7.58672e-09 -0 0.0116145 -0 0.0116145)
(2.06371e-06 5.33845e-12 -0 2.06371e-06 -0 2.06371e-06)
(6.66666e-16 6.01346e-21 -0 6.66667e-16 -0 6.66667e-16)
(6.66665e-16 9.91602e-21 -0 6.66668e-16 -0 6.66667e-16)
(6.66662e-16 4.06342e-20 -0 6.66672e-16 -0 6.66667e-16)
(6.66667e-16 3.11581e-35 3.23245e-54 6.66667e-16 -0 6.66667e-16)
(0.0770729 2.26208e-07 -0 0.0770732 -0 0.077073)
(6.66664e-16 7.39753e-22 -0 6.6667e-16 -0 6.66667e-16)
(6.66667e-16 -3.18705e-24 -0 6.66667e-16 -0 6.66667e-16)
(6.66667e-16 -2.8928e-36 -0 6.66667e-16 -0 6.66667e-16)
(6.66667e-16 -5.88775e-38 -0 6.66667e-16 -0 6.66667e-16)
(6.66667e-16 -3.04169e-37 -0 6.66667e-16 -0 6.66667e-16)
(1.50874e-15 -2.66929e-34 -0 1.50874e-15 -0 1.50874e-15)
(0.00117557 -0.000601943 -0 0.00208683 -0 0.00161009)
(0.0237863 -0.0124108 -0 0.0407177 -0 0.0324264)
(0.0284293 -0.0147488 -0 0.0480817 -0 0.0378558)
(0.0072641 -1.96558e-07 -0 0.00726436 -0 0.00726423)
(6.66664e-16 -3.46568e-21 -0 6.66669e-16 -0 6.66667e-16)
(6.66665e-16 -2.60383e-21 -0 6.66668e-16 -0 6.66667e-16)
(5.18534e-10 -2.01526e-16 -0 5.18534e-10 -0 5.18534e-10)
(2.06226e-09 -9.14524e-18 -0 2.06226e-09 -0 2.06226e-09)
(6.66667e-16 -1.2325e-23 -0 6.66667e-16 -0 6.66667e-16)
(6.66666e-16 -1.16479e-21 -0 6.66667e-16 -0 6.66667e-16)
(7.2181e-09 -3.35645e-15 -0 7.2181e-09 -0 7.2181e-09)
(6.91663e-06 -2.95499e-12 -0 6.91663e-06 -0 6.91663e-06)
(7.8212e-06 -7.57505e-15 -0 7.8212e-06 -0 7.8212e-06)
(3.32311e-12 -3.10998e-28 -0 3.32311e-12 -0 3.32311e-12)
(0.0394949 -0.00428753 -0 0.0182181 -0 0.0383515)
(1.17369e-08 1.94176e-22 -0 1.17369e-08 -0 1.17369e-08)
(2.59812e-09 1.8297e-16 -0 2.59812e-09 -0 2.59812e-09)
(6.66667e-16 1.42164e-23 -0 6.66667e-16 -0 6.66667e-16)
(0.00181998 1.22006e-18 -0 0.00181998 -0 0.00181998)
(0.0017615 1.05053e-10 -0 0.0017615 -0 0.0017615)
(0.0167828 7.16324e-09 -0 0.0167827 -0 0.0167828)
(0.00593946 3.03162e-09 -0 0.00593945 -0 0.00593946)
(0.00135599 3.73744e-26 -0 0.00135599 -0 0.00135599)
(6.66667e-16 5.03371e-39 -0 6.66667e-16 -0 6.66667e-16)
(6.66667e-16 1.41537e-41 -0 6.66667e-16 -0 6.66667e-16)
(6.66667e-16 1.65642e-40 -0 6.66667e-16 -0 6.66667e-16)
(0.000301215 1.03193e-13 -0 0.000301215 -0 0.000301215)
(1.46575e-05 2.28833e-14 -0 1.46575e-05 -0 1.46575e-05)
(3.40863e-06 3.98832e-28 -0 3.40863e-06 -0 3.40863e-06)
(6.66667e-16 1.26906e-40 -0 6.66667e-16 -0 6.66667e-16)
(6.66667e-16 2.32562e-43 -0 6.66667e-16 -0 6.66667e-16)
(6.66667e-16 1.0152e-45 -0 6.66667e-16 -0 6.66667e-16)
(6.66667e-16 2.68232e-38 -1.85476e-56 6.66667e-16 -0 6.66667e-16)
(0.0633734 4.16806e-07 -0 0.0633742 -0 0.0633737)
(6.66659e-16 -8.35629e-22 -0 6.66674e-16 -0 6.66667e-16)
(6.66667e-16 -6.98271e-24 -0 6.66667e-16 -0 6.66667e-16)
(6.66667e-16 -1.04362e-38 -0 6.66667e-16 -0 6.66667e-16)
(6.66667e-16 -3.95673e-41 -0 6.66667e-16 -0 6.66667e-16)
(6.66667e-16 -1.20967e-40 -0 6.66667e-16 -0 6.66667e-16)
(0.005471 -0.00273102 -0 0.00678518 -0 0.00591714)
(0.00203229 -0.00102051 -0 0.00247499 -0 0.0022313)
(0.00184775 -0.000921634 -0 0.0021884 -0 0.00201076)
(0.00656656 -0.00324265 -0 0.0075436 -0 0.00704631)
(2.63194e-08 -1.76884e-17 -0 2.63194e-08 -0 2.63194e-08)