/*--------------------------------*- C++ -*----------------------------------*\
| =========                 |                                                 |
| \\      /  F ield         | OpenFOAM: The Open Source CFD Toolbox           |
|  \\    /   O peration     | Version:  2112                                  |
|   \\  /    A nd           | Website:  www.openfoam.com                      |
|    \\/     M anipulation  |                                                 |
\*---------------------------------------------------------------------------*/
FoamFile
{
    version     2.0;
    format      ascii;
    arch        "LSB;label=32;scalar=64";
    class       surfaceScalarField;
    location    "0.13";
    object      ddtCorrDdt0(phi);
}
// * * * * * * * * * * * * * * * * * * * * * * * * * * * * * * * * * * * * * //

dimensions      [0 3 -2 0 0 0 0];

oriented        oriented;

internalField   nonuniform List<scalar> 
3067
(
3.61979e-10
-3.62848e-10
2.00953e-09
-1.64939e-09
6.50103e-09
-4.49443e-09
1.76574e-08
-1.11604e-08
4.33331e-08
-2.56802e-08
1.06845e-07
-6.3516e-08
2.71479e-07
-1.64639e-07
-4.69564e-07
7.41038e-07
-4.33817e-11
-3.20384e-10
-1.13135e-10
-1.58144e-09
-8.69052e-11
-4.52315e-09
-2.90281e-11
-1.12212e-08
5.01729e-10
-2.62144e-08
-5.26807e-10
-6.24915e-08
-9.29639e-09
-1.55874e-07
-4.21578e-07
-5.72878e-08
2.0034e-11
-3.41431e-10
6.05272e-11
-1.62356e-09
9.98179e-11
-4.56449e-09
2.9815e-11
-1.11537e-08
-3.18497e-10
-2.5869e-08
-2.57788e-09
-6.02355e-08
-1.25488e-08
-1.45907e-07
-3.77447e-07
-5.66851e-08
5.04002e-13
-3.42762e-10
-2.17007e-11
-1.60275e-09
-1.52116e-10
-4.4359e-09
-6.3962e-10
-1.06684e-08
-2.0965e-09
-2.44148e-08
-6.46338e-09
-5.58716e-08
-2.03309e-08
-1.32043e-07
-3.3133e-07
-6.64516e-08
-2.71038e-11
-3.16393e-10
-1.57522e-10
-1.47361e-09
-5.36478e-10
-4.05865e-09
-1.51165e-09
-9.69535e-09
-3.9142e-09
-2.20147e-08
-9.93369e-09
-4.9855e-08
-2.63617e-08
-1.15618e-07
-2.84161e-07
-7.35348e-08
-4.81942e-11
-2.68898e-10
-2.6998e-10
-1.25301e-09
-8.70794e-10
-3.45941e-09
-2.27703e-09
-8.29106e-09
-5.4267e-09
-1.88674e-08
-1.26167e-08
-4.26678e-08
-3.03862e-08
-9.78514e-08
-2.37218e-07
-7.73332e-08
-7.94863e-11
-1.9016e-10
-4.32791e-10
-9.01062e-10
-1.3563e-09
-2.5378e-09
-3.43835e-09
-6.21137e-09
-7.93167e-09
-1.43768e-08
-1.77683e-08
-3.28342e-08
-4.0863e-08
-7.47602e-08
-1.7949e-07
-9.85943e-08
-7.86852e-11
-1.12276e-10
-4.13916e-10
-5.6735e-10
-1.28553e-09
-1.66836e-09
-3.2926e-09
-4.20698e-09
-7.78158e-09
-9.8909e-09
-1.78617e-08
-2.27576e-08
-4.09047e-08
-5.17212e-08
-1.23227e-07
-9.71731e-08
-2.48963e-11
-8.84731e-11
-2.21276e-10
-3.73056e-10
-8.70813e-10
-1.02155e-09
-2.55012e-09
-2.53083e-09
-6.62579e-09
-5.81875e-09
-1.60302e-08
-1.33572e-08
-3.76395e-08
-3.01163e-08
-6.70808e-08
-9.37909e-08
-9.03478e-11
-4.65857e-10
-1.49007e-09
-4.02337e-09
-9.84411e-09
-2.32027e-08
-5.332e-08
-1.20402e-07
1.2168e-05
-1.2168e-05
2.4063e-05
-1.1895e-05
3.14449e-05
-7.38192e-06
3.22036e-05
-7.58732e-07
2.85212e-05
3.68238e-06
2.33292e-05
5.19205e-06
1.8201e-05
5.12818e-06
1.37901e-05
4.4109e-06
1.02026e-05
3.58746e-06
7.35924e-06
2.84336e-06
5.118e-06
2.24123e-06
3.32204e-06
1.79596e-06
1.84933e-06
1.4727e-06
2.57484e-07
1.59184e-06
-1.15115e-06
1.40863e-06
-2.40176e-06
1.2506e-06
-3.51387e-06
1.1121e-06
-4.73474e-06
1.22086e-06
-5.42702e-06
6.92278e-07
-5.97237e-06
5.45344e-07
-6.37956e-06
4.07182e-07
-6.62185e-06
2.42285e-07
-6.70043e-06
7.85812e-08
-6.62473e-06
-7.5701e-08
-6.39698e-06
-2.27748e-07
-6.01536e-06
-3.81623e-07
-5.48925e-06
-5.26116e-07
-4.83719e-06
-6.5206e-07
-4.08203e-06
-7.55167e-07
-3.24984e-06
-8.32199e-07
-2.37675e-06
-8.73092e-07
-1.50376e-06
-8.72992e-07
-6.73069e-07
-8.30693e-07
6.4015e-08
-7.37086e-07
6.54718e-07
-5.90706e-07
1.05092e-06
-3.96203e-07
1.20377e-06
-1.5285e-07
1.06682e-06
1.36951e-07
5.94105e-07
4.72712e-07
-2.49795e-07
8.439e-07
-1.52957e-06
1.27977e-06
-3.33832e-06
1.80876e-06
-5.73989e-06
2.40156e-06
-8.81204e-06
3.07215e-06
-1.27368e-05
3.92481e-06
-1.76869e-05
4.95012e-06
-2.38998e-05
6.21286e-06
-3.13423e-05
7.44253e-06
-4.04919e-05
9.14956e-06
1.03848e-05
-5.08767e-05
5.10572e-06
-1.72737e-05
8.7962e-06
-1.55855e-05
9.93849e-06
-8.52423e-06
8.26518e-06
9.14573e-07
5.69679e-06
6.25076e-06
3.57714e-06
7.31169e-06
2.14162e-06
6.56369e-06
1.20118e-06
5.35133e-06
5.27318e-07
4.26131e-06
-2.50047e-09
3.37317e-06
-4.39222e-07
2.67794e-06
-8.47182e-07
2.20391e-06
-1.24423e-06
1.86974e-06
-1.73996e-06
2.08756e-06
-2.25595e-06
1.92461e-06
-2.77531e-06
1.76995e-06
-3.256e-06
1.59279e-06
-3.53831e-06
1.50318e-06
-4.02078e-06
1.17474e-06
-4.39517e-06
9.19737e-07
-4.67329e-06
6.85294e-07
-4.86072e-06
4.29717e-07
-4.94722e-06
1.65082e-07
-4.94241e-06
-8.05157e-08
-4.85223e-06
-3.17936e-07
-4.67571e-06
-5.58145e-07
-4.41641e-06
-7.85422e-07
-4.08468e-06
-9.83789e-07
-3.69544e-06
-1.14441e-06
-3.26668e-06
-1.26096e-06
-2.82134e-06
-1.31844e-06
-2.387e-06
-1.30733e-06
-1.99395e-06
-1.22375e-06
-1.67338e-06
-1.05766e-06
-1.46245e-06
-8.01637e-07
-1.4013e-06
-4.57352e-07
-1.5357e-06
-1.84563e-08
-1.91311e-06
5.14366e-07
-2.58852e-06
1.14812e-06
-3.61534e-06
1.87072e-06
-5.05022e-06
2.71466e-06
-6.9675e-06
3.72604e-06
-9.41786e-06
4.85193e-06
-1.24628e-05
6.11707e-06
-1.61918e-05
7.6538e-06
-2.06933e-05
9.45167e-06
-2.60077e-05
1.15272e-05
-3.22326e-05
1.36675e-05
-3.9326e-05
1.6243e-05
1.83504e-05
-4.72916e-05
6.14273e-07
-1.7888e-05
1.1161e-06
-1.60873e-05
8.09222e-07
-8.21736e-06
1.47407e-07
1.57638e-06
-2.08915e-07
6.60707e-06
-1.81436e-07
7.2842e-06
-1.22107e-07
6.50435e-06
-9.63949e-08
5.32561e-06
-1.84481e-07
4.34938e-06
-3.47782e-07
3.53646e-06
-5.07765e-07
2.83791e-06
-6.97106e-07
2.39324e-06
-9.10762e-07
2.08338e-06
-1.19428e-06
2.37106e-06
-1.50392e-06
2.23425e-06
-1.81097e-06
2.07699e-06
-2.16597e-06
1.94778e-06
-2.38606e-06
1.72327e-06
-2.64858e-06
1.43726e-06
-2.86592e-06
1.13707e-06
-3.02916e-06
8.48531e-07
-3.14672e-06
5.47277e-07
-3.21194e-06
2.303e-07
-3.22216e-06
-7.02993e-08
-3.18094e-06
-3.59156e-07
-3.09427e-06
-6.44822e-07
-2.96952e-06
-9.10172e-07
-2.81354e-06
-1.13977e-06
-2.63291e-06
-1.32505e-06
-2.44281e-06
-1.45107e-06
-2.25539e-06
-1.50587e-06
-2.08737e-06
-1.47536e-06
-1.95926e-06
-1.35185e-06
-1.889e-06
-1.12793e-06
-1.89594e-06
-7.94697e-07
-2.00236e-06
-3.50938e-07
-2.23863e-06
2.17819e-07
-2.63671e-06
9.12442e-07
-3.23625e-06
1.74766e-06
-4.08341e-06
2.71788e-06
-5.21886e-06
3.8501e-06
-6.68834e-06
5.19553e-06
-8.53308e-06
6.69667e-06
-1.08209e-05
8.40486e-06
-1.36359e-05
1.04688e-05
-1.70052e-05
1.2821e-05
-2.0938e-05
1.546e-05
-2.54928e-05
1.82223e-05
-3.06787e-05
2.14289e-05
2.40923e-05
-3.64206e-05
-9.69325e-07
-1.69187e-05
-1.38352e-06
-1.56731e-05
-1.78491e-06
-7.81598e-06
-1.80637e-06
1.59783e-06
-1.42406e-06
6.22475e-06
-9.24988e-07
6.78512e-06
-6.07619e-07
6.18697e-06
-4.37746e-07
5.15572e-06
-4.19363e-07
4.33099e-06
-4.8094e-07
3.59802e-06
-5.37241e-07
2.8942e-06
-6.33415e-07
2.4894e-06
-7.57748e-07
2.20771e-06
-9.16035e-07
2.52934e-06
-1.09236e-06
2.41056e-06
-1.2841e-06
2.26873e-06
-1.4286e-06
2.09228e-06
-1.56503e-06
1.85969e-06
-1.68283e-06
1.55506e-06
-1.78166e-06
1.2359e-06
-1.85584e-06
9.22716e-07
-1.90915e-06
6.00584e-07
-1.95495e-06
2.76101e-07
-1.96389e-06
-6.13607e-08
-1.92818e-06
-3.94874e-07
-1.87531e-06
-6.97697e-07
-1.81078e-06
-9.74707e-07
-1.73665e-06
-1.2139e-06
-1.65934e-06
-1.40236e-06
-1.58761e-06
-1.52279e-06
-1.52813e-06
-1.56535e-06
-1.49106e-06
-1.51244e-06
-1.49095e-06
-1.35196e-06
-1.53867e-06
-1.08021e-06
-1.64378e-06
-6.89587e-07
-1.81794e-06
-1.76778e-07
-2.08068e-06
4.80554e-07
-2.45255e-06
1.28431e-06
-2.95981e-06
2.25492e-06
-3.64682e-06
3.4049e-06
-4.52601e-06
4.72928e-06
-5.61359e-06
6.28311e-06
-6.96528e-06
8.04837e-06
-8.63557e-06
1.00752e-05
-1.06597e-05
1.24929e-05
-1.3065e-05
1.52263e-05
-1.58404e-05
1.82354e-05
-1.90554e-05
2.14373e-05
-2.27309e-05
2.51044e-05
2.81263e-05
-2.67648e-05
-1.31826e-06
-1.56004e-05
-1.82349e-06
-1.51679e-05
-2.18107e-06
-7.45841e-06
-2.06847e-06
1.48522e-06
-1.57091e-06
5.72718e-06
-1.0701e-06
6.2843e-06
-7.4993e-07
5.86679e-06
-5.59293e-07
4.96508e-06
-4.94311e-07
4.266e-06
-4.88984e-07
3.59269e-06
-4.8992e-07
2.89513e-06
-5.35719e-07
2.53519e-06
-6.0528e-07
2.27726e-06
-6.91254e-07
2.61531e-06
-7.83064e-07
2.50237e-06
-8.83855e-07
2.36951e-06
-9.58567e-07
2.16699e-06
-1.00523e-06
1.90636e-06
-1.04866e-06
1.59849e-06
-1.08576e-06
1.273e-06
-1.11155e-06
9.48502e-07
-1.12332e-06
6.12354e-07
-1.11197e-06
2.64757e-07
-1.07752e-06
-9.58217e-08
-1.04328e-06
-4.29116e-07
-1.01436e-06
-7.26617e-07
-9.86933e-07
-1.00213e-06
-9.61229e-07
-1.23961e-06
-9.42557e-07
-1.42104e-06
-9.35274e-07
-1.53008e-06
-9.43197e-07
-1.55743e-06
-9.72519e-07
-1.48312e-06
-1.0292e-06
-1.29528e-06
-1.11702e-06
-9.92395e-07
-1.24403e-06
-5.6258e-07
-1.41978e-06
-1.02549e-09
-1.65693e-06
7.17702e-07
-1.96827e-06
1.59566e-06
-2.37056e-06
2.65721e-06
-2.91035e-06
3.94469e-06
-3.57195e-06
5.39088e-06
-4.35438e-06
7.06555e-06
-5.33928e-06
9.03327e-06
-6.54373e-06
1.12796e-05
-7.9613e-06
1.39105e-05
-9.63911e-06
1.69041e-05
-1.15668e-05
2.0163e-05
-1.38053e-05
2.36759e-05
-1.63745e-05
2.76736e-05
3.09295e-05
-1.91778e-05
-1.09175e-06
-1.45087e-05
-1.72453e-06
-1.45351e-05
-2.01002e-06
-7.17293e-06
-1.83356e-06
1.30876e-06
-1.39572e-06
5.28934e-06
-9.96211e-07
5.88478e-06
-7.24115e-07
5.59468e-06
-5.42467e-07
4.78342e-06
-4.57337e-07
4.18086e-06
-4.12909e-07
3.54825e-06
-3.88894e-07
2.8711e-06
-4.11945e-07
2.55824e-06
-4.50124e-07
2.31544e-06
-4.9913e-07
2.66431e-06
-5.43667e-07
2.5469e-06
-5.60774e-07
2.38662e-06
-5.60201e-07
2.16642e-06
-5.63074e-07
1.90923e-06
-5.72559e-07
1.60797e-06
-5.83616e-07
1.28405e-06
-5.90009e-07
9.54894e-07
-5.88645e-07
6.10989e-07
-5.65446e-07
2.41559e-07
-5.3246e-07
-1.28809e-07
-5.13138e-07
-4.4844e-07
-5.02143e-07
-7.37614e-07
-4.95861e-07
-1.00842e-06
-4.95355e-07
-1.24012e-06
-5.04383e-07
-1.41201e-06
-5.24616e-07
-1.50985e-06
-5.59188e-07
-1.52286e-06
-6.12153e-07
-1.43015e-06
-6.86352e-07
-1.22108e-06
-7.83728e-07
-8.95021e-07
-9.10422e-07
-4.35886e-07
-1.07302e-06
1.61575e-07
-1.2792e-06
9.23882e-07
-1.53531e-06
1.85176e-06
-1.85206e-06
2.97396e-06
-2.22465e-06
4.31728e-06
-2.66561e-06
5.83184e-06
-3.2159e-06
7.61583e-06
-3.92767e-06
9.74504e-06
-4.78422e-06
1.21362e-05
-5.76187e-06
1.48881e-05
-6.91934e-06
1.80616e-05
-8.24892e-06
2.14926e-05
-9.79275e-06
2.52198e-05
-1.15694e-05
2.94502e-05
3.28467e-05
-1.34866e-05
-8.78708e-07
-1.363e-05
-1.36357e-06
-1.40503e-05
-1.59134e-06
-6.94517e-06
-1.45988e-06
1.17729e-06
-1.12759e-06
4.95706e-06
-8.32076e-07
5.58926e-06
-6.14583e-07
5.37719e-06
-4.57111e-07
4.62594e-06
-3.69891e-07
4.09364e-06
-3.09952e-07
3.48831e-06
-2.80621e-07
2.84177e-06
-2.95945e-07
2.57356e-06
-3.18084e-07
2.33757e-06
-3.2469e-07
2.67092e-06
-3.22253e-07
2.54446e-06
-3.05711e-07
2.37007e-06
-2.82085e-07
2.14279e-06
-2.72727e-07
1.89987e-06
-2.71363e-07
1.60661e-06
-2.74478e-07
1.28717e-06
-2.76193e-07
9.5661e-07
-2.74391e-07
6.09186e-07
-2.64152e-07
2.31319e-07
-2.51062e-07
-1.419e-07
-2.44604e-07
-4.54899e-07
-2.43034e-07
-7.39186e-07
-2.4553e-07
-1.00592e-06
-2.5385e-07
-1.2318e-06
-2.70097e-07
-1.39576e-06
-2.95422e-07
-1.48453e-06
-3.3245e-07
-1.48583e-06
-3.84054e-07
-1.37855e-06
-4.52807e-07
-1.15233e-06
-5.40833e-07
-8.06996e-07
-6.51764e-07
-3.24956e-07
-7.89208e-07
2.99019e-07
-9.57682e-07
1.09236e-06
-1.15994e-06
2.05402e-06
-1.40289e-06
3.21691e-06
-1.67018e-06
4.58458e-06
-1.98001e-06
6.14167e-06
-2.37354e-06
8.00936e-06
-2.84946e-06
1.0221e-05
-3.41435e-06
1.2701e-05
-4.08251e-06
1.55563e-05
-4.87582e-06
1.88549e-05
-5.78822e-06
2.2405e-05
-6.84451e-06
2.62761e-05
-8.06591e-06
3.06716e-05
3.41533e-05
-9.37248e-06
-6.78951e-07
-1.2951e-05
-1.09198e-06
-1.36373e-05
-1.31902e-06
-6.71813e-06
-1.2518e-06
1.11006e-06
-1.00679e-06
4.71204e-06
-7.78673e-07
5.36114e-06
-5.91639e-07
5.19015e-06
-4.41907e-07
4.47621e-06
-3.49757e-07
4.00148e-06
-2.79487e-07
3.41804e-06
-2.49703e-07
2.81198e-06
-2.55297e-07
2.57915e-06
-2.6074e-07
2.34301e-06
-2.43289e-07
2.65346e-06
-2.16551e-07
2.51772e-06
-1.94102e-07
2.34762e-06
-1.70209e-07
2.1189e-06
-1.59445e-07
1.88911e-06
-1.5793e-07
1.60509e-06
-1.62834e-07
1.29207e-06
-1.67647e-07
9.61423e-07
-1.69953e-07
6.11492e-07
-1.69088e-07
2.30454e-07
-1.67664e-07
-1.43324e-07
-1.69805e-07
-4.52759e-07
-1.75905e-07
-7.33088e-07
-1.87164e-07
-9.94667e-07
-2.06932e-07
-1.21203e-06
-2.3724e-07
-1.36546e-06
-2.80786e-07
-1.44098e-06
-3.41811e-07
-1.4248e-06
-4.24764e-07
-1.2956e-06
-5.34805e-07
-1.04229e-06
-6.76628e-07
-6.65173e-07
-8.55606e-07
-1.45978e-07
-1.07704e-06
5.20456e-07
-1.34787e-06
1.36318e-06
-1.67289e-06
2.37903e-06
-2.06134e-06
3.60537e-06
-2.50283e-06
5.02606e-06
-3.01684e-06
6.65568e-06
-3.65096e-06
8.64349e-06
-4.37331e-06
1.09433e-05
-5.22785e-06
1.35556e-05
-6.29172e-06
1.66201e-05
-7.57559e-06
2.01388e-05
-9.07985e-06
2.39093e-05
-1.08383e-05
2.80345e-05
-1.29166e-05
3.27499e-05
3.64322e-05
-1.51954e-05
-5.04526e-07
-1.24465e-05
-8.37829e-07
-1.3304e-05
-1.0382e-06
-6.51776e-06
-1.01076e-06
1.08261e-06
-8.39365e-07
4.54064e-06
-6.71358e-07
5.19313e-06
-5.17386e-07
5.03617e-06
-3.83475e-07
4.34229e-06
-2.94961e-07
3.91296e-06
-2.23247e-07
3.34632e-06
-1.84787e-07
2.77351e-06
-1.67596e-07
2.56195e-06
-1.51972e-07
2.32739e-06
-1.23424e-07
2.62491e-06
-9.32036e-08
2.4875e-06
-7.23791e-08
2.3268e-06
-5.37357e-08
2.10025e-06
-4.43583e-08
1.87973e-06
-4.33817e-08
1.60412e-06
-4.84956e-08
1.29719e-06
-5.39989e-08
9.66928e-07
-5.78914e-08
6.15384e-07
-6.13538e-08
2.33917e-07
-6.5222e-08
-1.39457e-07
-7.03972e-08
-4.47585e-07
-7.81309e-08
-7.25356e-07
-9.12168e-08
-9.81583e-07
-1.12995e-07
-1.19026e-06
-1.45031e-07
-1.33342e-06
-1.91213e-07
-1.3948e-06
-2.56251e-07
-1.35977e-06
-3.44908e-07
-1.20694e-06
-4.6311e-07
-9.24084e-07
-6.163e-07
-5.11985e-07
-8.10028e-07
4.77497e-08
-1.04998e-06
7.60411e-07
-1.34313e-06
1.65633e-06
-1.6955e-06
2.7314e-06
-2.11522e-06
4.02509e-06
-2.60588e-06
5.51671e-06
-3.18097e-06
7.23078e-06
-3.8685e-06
9.33101e-06
-4.66068e-06
1.17355e-05
-5.59052e-06
1.44854e-05
-6.7159e-06
1.77455e-05
-8.07696e-06
2.14999e-05
-9.67694e-06
2.55093e-05
-1.15507e-05
2.99083e-05
-1.37834e-05
3.49826e-05
3.89458e-05
-1.62971e-05
-2.94958e-06
-9.49693e-06
-4.89721e-06
-1.13563e-05
-5.66387e-06
-5.7511e-06
-5.21558e-06
6.34316e-07
-4.2643e-06
3.58935e-06
-3.34021e-06
4.26903e-06
-2.44437e-06
4.14033e-06
-1.65321e-06
3.55112e-06
-1.12324e-06
3.38299e-06
-7.05639e-07
2.92871e-06
-3.65643e-07
2.43351e-06
-1.59983e-07
2.35628e-06
-2.97969e-08
2.19719e-06
1.2683e-07
2.46828e-06
2.15838e-07
2.39849e-06
2.5456e-07
2.28807e-06
2.76718e-07
2.07809e-06
2.78592e-07
1.87786e-06
2.55442e-07
1.62727e-06
2.20075e-07
1.33256e-06
1.86073e-07
1.00093e-06
1.58882e-07
6.42576e-07
1.31403e-07
2.61395e-07
1.06545e-07
-1.14601e-07
8.63783e-08
-4.27421e-07
6.15054e-08
-7.00486e-07
2.63517e-08
-9.46432e-07
-2.42681e-08
-1.13964e-06
-9.27494e-08
-1.26494e-06
-1.87512e-07
-1.30004e-06
-3.15395e-07
-1.23189e-06
-4.81993e-07
-1.04035e-06
-6.94561e-07
-7.11517e-07
-9.57101e-07
-2.49447e-07
-1.27407e-06
3.64717e-07
-1.64879e-06
1.13513e-06
-2.08589e-06
2.09343e-06
-2.58962e-06
3.23513e-06
-3.16162e-06
4.59709e-06
-3.81102e-06
6.16611e-06
-4.54324e-06
7.963e-06
-5.36794e-06
1.01557e-05
-6.2938e-06
1.26614e-05
-7.33542e-06
1.5527e-05
-8.51761e-06
1.89277e-05
-9.8881e-06
2.28704e-05
-1.14265e-05
2.70476e-05
-1.3145e-05
3.16268e-05
-1.51247e-05
3.69623e-05
4.10877e-05
-1.72665e-05
-3.11882e-06
-6.37812e-06
-5.49348e-06
-8.98168e-06
-6.57349e-06
-4.6711e-06
-6.29454e-06
3.55363e-07
-5.34468e-06
2.63948e-06
-4.22221e-06
3.14656e-06
-3.04438e-06
2.96249e-06
-2.10552e-06
2.61225e-06
-1.21961e-06
2.49707e-06
-5.05182e-07
2.21427e-06
-1.08685e-07
2.03701e-06
1.14873e-07
2.13272e-06
3.01659e-07
2.0104e-06
4.71584e-07
2.29835e-06
5.37627e-07
2.33244e-06
5.53913e-07
2.27178e-06
5.54301e-07
2.0777e-06
5.29785e-07
1.90237e-06
4.84802e-07
1.67225e-06
4.36483e-07
1.38088e-06
3.95443e-07
1.04197e-06
3.64041e-07
6.73978e-07
3.37813e-07
2.87623e-07
3.19701e-07
-9.64906e-08
3.04698e-07
-4.1242e-07
2.80625e-07
-6.76417e-07
2.4719e-07
-9.12999e-07
1.98095e-07
-1.09055e-06
1.26445e-07
-1.1933e-06
2.33799e-08
-1.19698e-06
-1.17357e-07
-1.09115e-06
-3.00349e-07
-8.57356e-07
-5.31671e-07
-4.80196e-07
-8.13814e-07
3.26952e-08
-1.15141e-06
7.0231e-07
-1.54894e-06
1.53266e-06
-2.01117e-06
2.55566e-06
-2.54414e-06
3.76811e-06
-3.14925e-06
5.2022e-06
-3.83549e-06
6.85236e-06
-4.60976e-06
8.73727e-06
-5.48115e-06
1.10271e-05
-6.46041e-06
1.36406e-05
-7.56525e-06
1.66319e-05
-8.8137e-06
2.01762e-05
-1.02458e-05
2.43025e-05
-1.18371e-05
2.86389e-05
-1.35944e-05
3.33841e-05
-1.56212e-05
3.89891e-05
4.326e-05
-1.77934e-05
-2.98963e-06
-3.38849e-06
-5.73436e-06
-6.23696e-06
-7.23429e-06
-3.17118e-06
-6.94711e-06
6.81765e-08
-5.5546e-06
1.24696e-06
-3.98701e-06
1.57896e-06
-2.82027e-06
1.79575e-06
-2.05831e-06
1.85029e-06
-1.37306e-06
1.81181e-06
-9.78199e-07
1.8194e-06
-7.21355e-07
1.78016e-06
-3.76161e-07
1.78752e-06
-5.57542e-08
1.68999e-06
1.45646e-07
2.09694e-06
2.65347e-07
2.21274e-06
3.65551e-07
2.17158e-06
4.1723e-07
2.02602e-06
4.21229e-07
1.89837e-06
4.06137e-07
1.68735e-06
3.92966e-07
1.39405e-06
3.86619e-07
1.04832e-06
3.90193e-07
6.70404e-07
4.00626e-07
2.7719e-07
4.13223e-07
-1.0909e-07
4.20456e-07
-4.19655e-07
4.16594e-07
-6.72558e-07
4.0249e-07
-8.98898e-07
3.66954e-07
-1.05502e-06
3.01645e-07
-1.12799e-06
1.98987e-07
-1.09432e-06
5.44331e-08
-9.46599e-07
-1.34931e-07
-6.67994e-07
-3.7348e-07
-2.41648e-07
-6.62421e-07
3.21635e-07
-1.0064e-06
1.04629e-06
-1.41114e-06
1.93741e-06
-1.8814e-06
3.02592e-06
-2.42439e-06
4.31109e-06
-3.04182e-06
5.81963e-06
-3.73949e-06
7.55003e-06
-4.52736e-06
9.52514e-06
-5.41893e-06
1.19187e-05
-6.41795e-06
1.46396e-05
-7.54811e-06
1.7762e-05
-8.82885e-06
2.14569e-05
-1.02866e-05
2.57602e-05
-1.18925e-05
3.02448e-05
-1.36455e-05
3.51372e-05
-1.56723e-05
4.10159e-05
4.53986e-05
-1.7811e-05
-2.35019e-06
-1.0383e-06
-5.53746e-06
-3.0497e-06
-6.52447e-06
-2.18418e-06
-5.13327e-06
-1.32303e-06
-3.45302e-06
-4.33295e-07
-2.25679e-06
3.82724e-07
-1.50503e-06
1.04398e-06
-1.05438e-06
1.39964e-06
-9.15911e-07
1.67333e-06
-9.7151e-07
1.87499e-06
-8.90093e-07
1.69873e-06
-7.31059e-07
1.62848e-06
-6.34595e-07
1.59352e-06
-5.46931e-07
2.00927e-06
-3.35958e-07
2.00176e-06
-1.05509e-07
1.94113e-06
1.41083e-08
1.90641e-06
8.04593e-08
1.83202e-06
1.38071e-07
1.62974e-06
1.97947e-07
1.33417e-06
2.58562e-07
9.87707e-07
3.20872e-07
6.08094e-07
3.80963e-07
2.17099e-07
4.30622e-07
-1.58751e-07
4.6885e-07
-4.57885e-07
4.97356e-07
-7.01068e-07
5.07617e-07
-9.09162e-07
4.86797e-07
-1.0342e-06
4.29094e-07
-1.07029e-06
3.29933e-07
-9.95163e-07
1.86958e-07
-8.03625e-07
-9.98508e-10
-4.80039e-07
-2.36995e-07
-5.65267e-09
-5.22021e-07
6.0666e-07
-8.60628e-07
1.38489e-06
-1.25927e-06
2.33604e-06
-1.72224e-06
3.48889e-06
-2.25738e-06
4.84624e-06
-2.86644e-06
6.42869e-06
-3.55387e-06
8.23745e-06
-4.33381e-06
1.03051e-05
-5.22038e-06
1.28052e-05
-6.21295e-06
1.56322e-05
-7.33831e-06
1.88874e-05
-8.60949e-06
2.27281e-05
-1.00435e-05
2.71943e-05
-1.16134e-05
3.18147e-05
-1.3314e-05
3.68378e-05
-1.52925e-05
4.29944e-05
4.74644e-05
-1.73582e-05
-1.6774e-06
6.39097e-07
-2.6982e-06
-2.02891e-06
-2.42947e-06
-2.45291e-06
-1.85229e-06
-1.90022e-06
-1.40229e-06
-8.83305e-07
-1.06619e-06
4.66213e-08
-7.84629e-07
7.62403e-07
-5.50101e-07
1.1651e-06
-4.47164e-07
1.57038e-06
-4.031e-07
1.83092e-06
-4.31129e-07
1.72675e-06
-5.13295e-07
1.71063e-06
-6.42689e-07
1.72291e-06
-6.75282e-07
2.04186e-06
-5.78675e-07
1.90515e-06
-4.73841e-07
1.83629e-06
-3.64088e-07
1.79665e-06
-2.38016e-07
1.70595e-06
-1.01405e-07
1.49313e-06
3.21803e-08
1.20059e-06
1.56678e-07
8.63212e-07
2.68686e-07
4.96088e-07
3.63603e-07
1.22181e-07
4.38545e-07
-2.33695e-07
5.03783e-07
-5.23126e-07
5.58233e-07
-7.55521e-07
5.80695e-07
-9.31629e-07
5.64637e-07
-1.01815e-06
5.08748e-07
-1.0144e-06
4.11887e-07
-8.98304e-07
2.73058e-07
-6.64799e-07
9.2331e-08
-2.99315e-07
-1.32858e-07
2.19535e-07
-4.05083e-07
8.78884e-07
-7.28138e-07
1.70795e-06
-1.10875e-06
2.71665e-06
-1.55028e-06
3.93043e-06
-2.06063e-06
5.35658e-06
-2.6425e-06
7.01056e-06
-3.30197e-06
8.89693e-06
-4.05788e-06
1.1061e-05
-4.91704e-06
1.36644e-05
-5.88075e-06
1.65959e-05
-6.97512e-06
1.99818e-05
-8.19198e-06
2.3945e-05
-9.55017e-06
2.85525e-05
-1.10323e-05
3.32968e-05
-1.26374e-05
3.84429e-05
-1.4525e-05
4.48819e-05
4.94307e-05
-1.64913e-05
1.30967e-06
-6.70582e-07
8.90474e-07
-1.60972e-06
2.46975e-07
-1.80942e-06
-3.3223e-07
-1.32102e-06
-5.90059e-07
-6.25482e-07
-6.62572e-07
1.1913e-07
-5.87535e-07
6.87362e-07
-5.33776e-07
1.11134e-06
-4.09389e-07
1.44599e-06
-2.98369e-07
1.71989e-06
-2.73064e-07
1.70144e-06
-2.49006e-07
1.68657e-06
-2.70626e-07
1.74452e-06
-3.23295e-07
2.09453e-06
-3.54408e-07
1.93626e-06
-4.01806e-07
1.88369e-06
-3.34243e-07
1.72909e-06
-1.95911e-07
1.56762e-06
-3.81659e-08
1.33539e-06
1.13147e-07
1.04928e-06
2.48693e-07
7.27667e-07
3.65202e-07
3.7958e-07
4.58961e-07
2.84221e-08
5.30435e-07
-3.0517e-07
5.86491e-07
-5.79183e-07
6.27228e-07
-7.9626e-07
6.38583e-07
-9.42986e-07
6.13724e-07
-9.93289e-07
5.52347e-07
-9.53029e-07
4.55016e-07
-8.00975e-07
3.20764e-07
-5.30548e-07
1.50192e-07
-1.28743e-07
-5.93901e-08
4.29116e-07
-3.12855e-07
1.13235e-06
-6.12583e-07
2.00767e-06
-9.65141e-07
3.06921e-06
-1.373e-06
4.33828e-06
-1.84349e-06
5.82707e-06
-2.38359e-06
7.55066e-06
-3.00349e-06
9.51683e-06
-3.72216e-06
1.17796e-05
-4.53259e-06
1.44748e-05
-5.44701e-06
1.75103e-05
-6.4832e-06
2.1018e-05
-7.59753e-06
2.50593e-05
-8.82811e-06
2.97831e-05
-1.01833e-05
3.4652e-05
-1.16565e-05
3.99161e-05
-1.34252e-05
4.66507e-05
5.12804e-05
-1.52748e-05
8.79667e-07
-8.09217e-07
5.44333e-07
-1.27439e-06
8.30739e-08
-1.34817e-06
-3.24338e-07
-9.13612e-07
-6.74166e-07
-2.75661e-07
-8.50805e-07
2.95762e-07
-9.06584e-07
7.43134e-07
-8.29948e-07
1.03469e-06
-5.8845e-07
1.20449e-06
-1.84268e-07
1.3157e-06
1.90621e-07
1.32654e-06
6.3007e-07
1.24711e-06
1.10938e-06
1.26521e-06
8.15403e-07
2.3885e-06
1.40134e-06
1.35032e-06
1.66018e-06
1.62485e-06
1.88774e-06
1.50154e-06
2.17401e-06
1.28136e-06
2.44292e-06
1.06648e-06
2.67508e-06
8.17128e-07
2.86797e-06
5.34778e-07
3.02218e-06
2.25374e-07
3.12165e-06
-7.10483e-08
3.16775e-06
-3.51271e-07
3.14582e-06
-5.57254e-07
3.04676e-06
-6.97201e-07
2.87538e-06
-7.71614e-07
2.63029e-06
-7.48203e-07
2.31345e-06
-6.36193e-07
1.91412e-06
-4.01647e-07
1.43827e-06
-5.46978e-08
8.84066e-07
4.25458e-07
2.53654e-07
1.05953e-06
-4.62493e-07
1.84849e-06
-1.27615e-06
2.82133e-06
-2.19385e-06
3.98691e-06
-3.22465e-06
5.36908e-06
-4.3937e-06
6.99611e-06
-5.75049e-06
8.90745e-06
-7.32052e-06
1.10869e-05
-9.12042e-06
1.35795e-05
-1.11093e-05
1.64637e-05
-1.32476e-05
1.96487e-05
-1.56455e-05
2.34158e-05
-1.79637e-05
2.73775e-05
-2.03083e-05
3.21276e-05
-2.31517e-05
3.74954e-05
-2.59661e-05
4.27305e-05
-2.98564e-05
5.05409e-05
5.49511e-05
-3.35271e-05
-1.84646e-07
-6.81864e-07
-4.62947e-07
-9.96096e-07
-7.64863e-07
-1.04626e-06
-9.3522e-07
-7.43263e-07
-9.58382e-07
-2.52506e-07
-8.93093e-07
2.30467e-07
-7.67358e-07
6.17391e-07
-6.2038e-07
8.87705e-07
-4.67115e-07
1.05121e-06
-3.08571e-07
1.15715e-06
-1.85622e-07
1.20359e-06
-1.64335e-07
1.22582e-06
-9.04357e-08
1.1913e-06
8.55599e-07
1.44246e-06
4.85511e-07
1.72041e-06
7.76328e-07
1.33403e-06
9.86817e-07
1.29105e-06
1.11488e-06
1.1533e-06
1.23942e-06
9.41933e-07
1.36239e-06
6.94163e-07
1.4673e-06
4.29878e-07
1.55533e-06
1.37342e-07
1.61403e-06
-1.29753e-07
1.65139e-06
-3.88622e-07
1.6652e-06
-5.71066e-07
1.65919e-06
-6.91198e-07
1.61751e-06
-7.29935e-07
1.53664e-06
-6.67338e-07
1.42237e-06
-5.21924e-07
1.26657e-06
-2.45852e-07
1.07193e-06
1.39943e-07
8.31836e-07
6.65546e-07
5.4785e-07
1.34351e-06
2.13327e-07
2.18302e-06
-1.69324e-07
3.20398e-06
-6.0635e-07
4.42393e-06
-1.11385e-06
5.87659e-06
-1.68678e-06
7.56904e-06
-2.33265e-06
9.55332e-06
-3.04048e-06
1.17947e-05
-3.86414e-06
1.44032e-05
-4.81322e-06
1.74128e-05
-5.88514e-06
2.07206e-05
-7.25298e-06
2.47837e-05
-8.78556e-06
2.89101e-05
-1.06836e-05
3.40257e-05
-1.30253e-05
3.98371e-05
-1.52648e-05
4.497e-05
-1.86134e-05
5.38895e-05
5.79057e-05
-2.1568e-05
-1.56949e-07
-5.81606e-07
-3.53967e-07
-7.99084e-07
-5.80366e-07
-8.19868e-07
-7.35419e-07
-5.88216e-07
-7.82873e-07
-2.05059e-07
-7.42159e-07
1.89746e-07
-6.38426e-07
5.13651e-07
-5.00316e-07
7.49588e-07
-3.45981e-07
8.96869e-07
-1.78715e-07
9.89872e-07
6.14892e-09
1.01871e-06
1.5366e-07
1.0783e-06
2.42436e-07
1.10252e-06
5.57073e-07
1.12782e-06
8.22505e-07
1.45498e-06
9.17266e-07
1.23927e-06
1.10359e-06
1.10473e-06
1.26461e-06
9.92285e-07
1.38848e-06
8.1807e-07
1.48231e-06
6.00338e-07
1.53791e-06
3.74277e-07
1.55886e-06
1.16392e-07
1.53311e-06
-1.04001e-07
1.47982e-06
-3.3533e-07
1.39282e-06
-4.84066e-07
1.29517e-06
-5.93552e-07
1.1819e-06
-6.16666e-07
1.06259e-06
-5.48034e-07
9.43891e-07
-4.03227e-07
8.3259e-07
-1.34553e-07
7.30262e-07
2.42269e-07
6.46097e-07
7.49709e-07
5.74435e-07
1.41517e-06
5.15901e-07
2.24155e-06
4.7418e-07
3.2457e-06
4.3883e-07
4.45928e-06
4.20038e-07
5.89538e-06
4.05172e-07
7.5839e-06
4.22313e-07
9.53618e-06
4.71848e-07
1.17452e-05
5.41002e-07
1.4334e-05
5.88655e-07
1.73651e-05
6.26208e-07
2.06831e-05
5.13157e-07
2.48967e-05
2.86662e-07
2.91366e-05
-2.27868e-07
3.45402e-05
-9.73808e-07
4.0583e-05
-1.48602e-06
4.54822e-05
-2.66011e-06
5.50636e-05
5.82093e-05
-2.96373e-06
-1.58077e-07
-4.89984e-07
-3.11088e-07
-6.46079e-07
-4.79787e-07
-6.51176e-07
-6.008e-07
-4.67209e-07
-6.42718e-07
-1.63147e-07
-6.10174e-07
1.57196e-07
-5.22113e-07
4.25583e-07
-3.99469e-07
6.26937e-07
-2.60032e-07
7.57425e-07
-1.09169e-07
8.39002e-07
4.86618e-08
8.60877e-07
2.74846e-07
8.52113e-07
3.85023e-07
9.92341e-07
4.99072e-07
1.01377e-06
7.92393e-07
1.16165e-06
9.51527e-07
1.08014e-06
1.1082e-06
9.48061e-07
1.25837e-06
8.42116e-07
1.37586e-06
7.00586e-07
1.45671e-06
5.19491e-07
1.49967e-06
3.31316e-07
1.50454e-06
1.11529e-07
1.4658e-06
-6.52603e-08
1.39619e-06
-2.6572e-07
1.29286e-06
-3.80739e-07
1.17908e-06
-4.79775e-07
1.05129e-06
-4.88875e-07
9.31247e-07
-4.27996e-07
8.18073e-07
-2.90056e-07
7.32456e-07
-4.89378e-08
6.7944e-07
2.95282e-07
6.73017e-07
7.56131e-07
7.28154e-07
1.36003e-06
8.42105e-07
2.1276e-06
1.05369e-06
3.03412e-06
1.34617e-06
4.16681e-06
1.76573e-06
5.47582e-06
2.29677e-06
7.05286e-06
2.96191e-06
8.87105e-06
3.75631e-06
1.09508e-05
4.64296e-06
1.34474e-05
5.75489e-06
1.62532e-05
6.94008e-06
1.94979e-05
8.21453e-06
2.36223e-05
9.76819e-06
2.7583e-05
1.12806e-05
3.30278e-05
1.2978e-05
3.88856e-05
1.48295e-05
4.36307e-05
1.63104e-05
5.35828e-05
5.57378e-05
1.87819e-05
-1.57847e-07
-4.05676e-07
-2.84891e-07
-5.1904e-07
-4.21602e-07
-5.14469e-07
-5.2125e-07
-3.67567e-07
-5.57594e-07
-1.2681e-07
-5.29891e-07
1.29486e-07
-4.5255e-07
3.48236e-07
-3.42303e-07
5.16682e-07
-2.16658e-07
6.31773e-07
-7.06352e-08
6.92973e-07
6.86909e-08
7.21545e-07
1.78904e-07
7.41894e-07
4.0421e-07
7.67033e-07
5.21828e-07
8.96151e-07
7.51186e-07
9.32296e-07
9.27535e-07
9.03791e-07
1.06924e-06
8.06363e-07
1.20276e-06
7.08598e-07
1.31402e-06
5.89331e-07
1.39182e-06
4.41689e-07
1.43827e-06
2.84875e-07
1.44332e-06
1.06481e-07
1.41873e-06
-4.06711e-08
1.35546e-06
-2.02448e-07
1.27164e-06
-2.96926e-07
1.17063e-06
-3.78765e-07
1.06044e-06
-3.78687e-07
9.60644e-07
-3.28198e-07
8.6712e-07
-1.96534e-07
8.06765e-07
1.1416e-08
7.84407e-07
3.17638e-07
8.14749e-07
7.25788e-07
9.1976e-07
1.25502e-06
1.10231e-06
1.94504e-06
1.39831e-06
2.73812e-06
1.81123e-06
3.75389e-06
2.388e-06
4.89905e-06
3.10885e-06
6.33201e-06
4.03485e-06
7.94505e-06
5.16739e-06
9.81821e-06
6.44935e-06
1.21654e-05
8.08887e-06
1.46137e-05
9.86296e-06
1.77238e-05
1.19444e-05
2.15408e-05
1.43424e-05
2.5185e-05
1.67631e-05
3.06072e-05
1.98034e-05
3.58452e-05
2.26771e-05
4.0757e-05
2.5566e-05
5.06939e-05
5.14968e-05
2.98071e-05
-1.54866e-07
-3.28148e-07
-2.64147e-07
-4.09764e-07
-3.8059e-07
-3.98031e-07
-4.66495e-07
-2.81667e-07
-4.99846e-07
-9.34642e-08
-4.76662e-07
1.06296e-07
-4.08176e-07
2.79744e-07
-3.07521e-07
4.16022e-07
-1.95298e-07
5.19544e-07
-6.03544e-08
5.58023e-07
6.79469e-08
5.93238e-07
2.06207e-07
6.0363e-07
3.72235e-07
6.01002e-07
5.22924e-07
7.4546e-07
7.06416e-07
7.48805e-07
8.79987e-07
7.30222e-07
1.02445e-06
6.619e-07
1.15537e-06
5.77685e-07
1.2646e-06
4.80101e-07
1.34351e-06
3.62789e-07
1.396e-06
2.32384e-07
1.40455e-06
9.79357e-08
1.39519e-06
-3.13104e-08
1.33901e-06
-1.46266e-07
1.27581e-06
-2.3373e-07
1.18564e-06
-2.88597e-07
1.09472e-06
-2.87762e-07
1.01e-06
-2.43478e-07
9.34615e-07
-1.21154e-07
8.92223e-07
5.38064e-08
8.89943e-07
3.19917e-07
9.43777e-07
6.71952e-07
1.07204e-06
1.12675e-06
1.29313e-06
1.72395e-06
1.62313e-06
2.40812e-06
2.08978e-06
3.28724e-06
2.73118e-06
4.25765e-06
3.52298e-06
5.54021e-06
4.56384e-06
6.90419e-06
5.82877e-06
8.55328e-06
7.28561e-06
1.07086e-05
9.16943e-06
1.27298e-05
1.11751e-05
1.57182e-05
1.36947e-05
1.90212e-05
1.64577e-05
2.24219e-05
1.9321e-05
2.77439e-05
2.31931e-05
3.19731e-05
2.63817e-05
3.75683e-05
3.02629e-05
4.68128e-05
4.58297e-05
3.593e-05
-1.85161e-07
-2.41585e-07
-3.03261e-07
-2.91669e-07
-4.22644e-07
-2.78654e-07
-5.11372e-07
-1.92945e-07
-5.4614e-07
-5.87031e-08
-5.20258e-07
8.04082e-08
-4.42343e-07
2.01822e-07
-3.47022e-07
3.20694e-07
-2.02067e-07
3.74583e-07
-5.95232e-08
4.15473e-07
9.35041e-08
4.40205e-07
2.54368e-07
4.42762e-07
4.14304e-07
4.41063e-07
5.96915e-07
5.62848e-07
7.88478e-07
5.57242e-07
9.79506e-07
5.39197e-07
1.14485e-06
4.96562e-07
1.29066e-06
4.31882e-07
1.40871e-06
3.62056e-07
1.49656e-06
2.74936e-07
1.55431e-06
1.74641e-07
1.56583e-06
8.64168e-08
1.55994e-06
-2.54166e-08
1.50195e-06
-8.8282e-08
1.44263e-06
-1.74405e-07
1.34723e-06
-1.93201e-07
1.2623e-06
-2.02824e-07
1.17462e-06
-1.55807e-07
1.10958e-06
-5.61149e-08
1.07401e-06
8.93801e-08
1.08713e-06
3.06794e-07
1.16565e-06
5.93431e-07
1.31982e-06
9.72587e-07
1.58966e-06
1.45411e-06
1.96924e-06
2.02854e-06
2.50545e-06
2.75103e-06
3.23438e-06
3.52872e-06
4.11797e-06
4.65661e-06
5.31354e-06
5.70862e-06
6.6991e-06
7.16772e-06
8.38768e-06
9.02002e-06
1.05163e-05
1.06012e-05
1.27152e-05
1.35193e-05
1.57918e-05
1.59445e-05
1.87928e-05
1.94209e-05
2.223e-05
2.43068e-05