/*--------------------------------*- C++ -*----------------------------------*\
| =========                 |                                                 |
| \\      /  F ield         | OpenFOAM: The Open Source CFD Toolbox           |
|  \\    /   O peration     | Version:  2112                                  |
|   \\  /    A nd           | Website:  www.openfoam.com                      |
|    \\/     M anipulation  |                                                 |
\*---------------------------------------------------------------------------*/
FoamFile
{
    version     2.0;
    format      ascii;
    arch        "LSB;label=32;scalar=64";
    class       volScalarField;
    location    "0.23";
    object      pPrime2Mean;
}
// * * * * * * * * * * * * * * * * * * * * * * * * * * * * * * * * * * * * * //

dimensions      [0 4 -4 0 0 0 0];

internalField   nonuniform List<scalar> 
122250
(
78090.3
32995
15128.6
13602.6
9773.11
6653.68
5427.34
4492.02
4242.19
3921.21
3755.78
3599.88
3490.89
3405.22
3316.1
3231.7
3143.72
3055.91
74296
33347.9
15133
13572.6
9760.77
6690.1
5480.3
4513.88
4264.53
3922.89
3751.66
3595.29
3490.06
3408.79
3323.43
3241.26
3154.84
3074.86
71723.7
29705.7
15796.5
13774.9
9959.3
6888.91
5574.33
4526.48
4261.51
3929.09
3749.33
3590.73
3485.09
3407.13
3328.34
3251.73
3171.38
3088.92
72836.2
26119.5
18257.4
14478.3
10236.7
7208.53
5713.53
4562.3
4256.15
3930.78
3747.19
3592.21
3486.09
3408.22
3334.83
3262.05
3185.81
3109.31
74029.2
24584.2
22217.6
15575.9
10694.7
7631.02
5898.83
4614.33
4252.72
3924.89
3739.36
3586.01
3483.79
3408.52
3340.69
3272.04
3202.11
3132.74
73956.8
25558.5
26244.1
17088.3
11299.6
8121.81
6121.01
4698.14
4274.11
3934.24
3744.18
3587.49
3485.8
3412.74
3348.73
3283.86
3219.03
3155.91
72928.5
27368
28848.1
18618.9
11895.5
8606.37
6335.69
4826.81
4329.9
3965.24
3759.72
3600.52
3497.99
3425.04
3360.78
3297.1
3234.98
3176.33
72082.9
28350.5
29323.4
19533.5
12294.1
9084.62
6559.67
5005.75
4423.83
4017.61
3772.73
3606.82
3504.14
3435.29
3372.58
3309.71
3249.68
3194.06
71690.6
28899.8
27766.8
20048.4
12511.4
9475.77
6808.35
5205.62
4547.06
4084.91
3790.15
3609.62
3511.24
3452.39
3393.91
3329.73
3267.31
3211.02
71921.9
28670.4
25391.8
19604.4
12436.3
9525.54
7009.9
5393.29
4664.38
4147.66
3832.07
3638.26
3540.15
3480.05
3418.76
3352.26
3287.68
3228.62
72540.6
28613.8
22543.6
17850
12006.7
9108.86
7070.75
5520.6
4735.66
4198.62
3901.08
3704.73
3594.25
3521.01
3453.97
3385.28
3318.39
3255.43
73198.2
28496.2
19308
14496.9
11120.1
8459.74
6887.52
5490.29
4746.29
4236.53
3961.39
3772.98
3649.91
3568.06
3497.09
3423.92
3351.17
3283.49
72775.7
28113
16631.8
10806.4
9727.84
7497.37
6442.93
5289.89
4689.01
4247.61
3991.14
3806.11
3676.5
3590.25
3519.27
3448.73
3376.16
3307.39
74347
27483.9
14434.9
7702.23
8079.4
6308.11
5850.7
5024.28
4592.94
4224.34
3991.32
3821.09
3703.94
3612.34
3532.27
3459.34
3391.44
3328.73
79179.1
27089.3
13361
6457.71
6559.1
5383.66
5210.03
4707.04
4428.8
4144.52
3945.64
3804.61
3705.74
3625.69
3546.48
3466.36
3395.92
3339.94
80987.9
28011.2
14074.6
6622.05
5582.97
4993.21
4695.81
4406.43
4207.53
4010.62
3867.05
3758.91
3667.63
3587.83
3522.26
3458.95
3397.38
3342.86
85437.2
30391.9
16788.2
7081.98
5421.66
4956.76
4470.18
4227.16
4021.38
3876.45
3761.29
3676.78
3603.72
3536.3
3471.67
3411
3357.18
3310.95
88495.8
29481.7
17586.9
7633.29
5327.55
4900.41
4389.7
4131.91
3925.12
3796.41
3696.75
3624.31
3557.36
3492.4
3434.91
3382.74
3337.08
3298.29
82876.3
27488.1
17807.3
6837.77
4958.64
4596.54
4212.16
4001.55
3836.86
3733.24
3649.93
3583
3519.83
3462.24
3410.47
3363.64
3323.43
3287.95
79509
23976
14412.1
5440.51
4594
4045.33
4039.97
3823.72
3781.32
3674.3
3614.48
3558.72
3510.83
3459.91
3409.03
3360.41
3318.08
3283.01
70691
20808.8
10658.6
4576.16
4624.05
3907.54
4058.05
3792
3792.06
3665.92
3623.7
3565.54
3522.62
3476.06
3425.9
3376.21
3330.89
3294.25
65439.6
19088.2
9496.7
4672.44
5169.23
4094.33
4234.83
3888.38
3870.79
3693.59
3647.31
3573.13
3525.27
3476.94
3429.4
3384.91
3343.87
3306.05
61811.6
19781.1
11754.1
6628.15
6353.75
4559.99
4446.6
3905.24
3855.9
3656.36
3641.22
3574.09
3532.03
3482.08
3431.66
3389.89
3357.98
3329.01
60264.2
20018.5
16334.3
9842.38
6977.29
4799.89
4442.01
3826.86
3830.65
3640.83
3644.15
3571.68
3531.54
3485.61
3441.61
3404.16
3373.75
3347.46
58294.8
20211.4
18434.5
10564.5
6768.43
4676.79
4353.6
3764.06
3830.29
3643.81
3656.82
3577.36
3537.93
3490.9
3447.82
3411.8
3382.46
3358.5
57583.7
21289.8
17996.1
9708.86
6625.48
4466.67
4297.05
3739.47
3840.63
3643.09
3666.97
3585.3
3546.75
3497.69
3452.72
3415.66
3386.19
3362.49
56423.9
23663.6
15976.7
8563.62
6309.89
4312.6
4311.01
3753.08
3873.63
3658.38
3685.22
3598.67
3556.55
3503.04
3460.01
3424.28
3392.87
3364.44
54566.1
29128.5
13456.5
7850.21
6250.5
4269.11
4328.59
3780.85
3911.7
3676.51
3691.14
3597.3
3559.21
3507.9
3467.31
3429.41
3390.11
3355.83
54321.5
38381.9
12873.1
8153.52
6210.37
4259.05
4338.14
3799.2
3922.34
3680.69
3687.43
3590.55
3557.14
3509.98
3468.76
3424
3377.41
3340.49
56165
41843.3
13769.7
8133.71
6416.04
4287.91
4313.49
3757.95
3868.74
3624.43
3639.3
3548.85
3520.47
3475.39
3436.01
3395.74
3355.43
3322.88
78292.8
34333.1
14214
13616.1
9788.01
6585.68
5463.01
4487.3
4189.94
3869.77
3715.32
3583.46
3495.18
3415.4
3326.31
3244.65
3154.91
3066.78
74115
34773
14329.4
13557.7
9814.35
6652.79
5504.63
4501.15
4203.77
3879.35
3722.73
3588.45
3497.19
3418.39
3333.18
3252.53
3164.83
3080.6
71324
30777
15381.4
13643.3
10075.6
6914.07
5601.05
4516.14
4210.34
3890.89
3729.54
3593.55
3498.36
3420.6
3339.44
3258.79
3175.83
3091.09
72396.6
27008.7
18138.2
14404.1
10442
7306.36
5750.86
4550.05
4223.8
3905.65
3736.61
3599.06
3501.75
3425.73
3351.59
3272.28
3192.54
3114.01
73894.2
25094.2
21960.5
15416.5
10940.9
7793.72
5952.81
4606.66
4242.22
3916.02
3741.55
3599.88
3501.15
3429.54
3363.64
3289.6
3213.45
3139.03
74484.6
25337.3
25838.9
16915.8
11508.5
8360.87
6199.65
4703.36
4274.53
3937.11
3752.34
3604.71
3501.88
3432.37
3371.48
3304.33
3233.81
3163.07
74537.2
26985.6
28665.6
18335.2
12065
8895.46
6472.65
4855.12
4336.22
3972.21
3763.28
3612.51
3505.87
3435.49
3375.59
3312.05
3246.13
3181.07
74320.9
28333.5
28944.4
19168.7
12507.1
9385.14
6755.68
5055.87
4426.45
4013.49
3767.64
3608.1
3507.01
3440.35
3382.99
3324.48
3262.95
3200.85
73774.7
28699.4
27648.3
19854.8
12741.3
9765.73
7024.18
5256.78
4517.62
4059.98
3780.92
3606.79
3510.85
3450.02
3393.93
3336.75
3279.73
3221.9
73504.7
28194.2
25665.6
19615.7
12572.6
9735.18
7213.81
5435.02
4604.91
4095.9
3809.39
3626.66
3529.93
3469.82
3414.53
3355.56
3298.05
3240.91
73184.7
28167.5
23061.4
17821.3
11943
9156.65
7213.19
5534.38
4677.73
4144.95
3857.46
3675.65
3573.23
3509
3452.78
3392.1
3327.99
3263.58
73269.3
27713.9
20253.7
14299.2
10886.1
8352.85
6918.7
5494.92
4707.24
4190.37
3914.95
3746.69
3639.81
3564.37
3497.35
3428.33
3356.26
3286.65
72885.6
27444.2
17681.3
10721.2
9524.04
7365.43
6450.7
5328.17
4688.68
4215.8
3960.96
3793.92
3675.4
3592.01
3521.72
3449.89
3377.4
3311.82
75545
26971.8
15339.1
7844.32
8003.23
6319.13
5915.07
5080.42
4589.12
4194.25
3963.11
3791.06
3671.74
3590.81
3527.08
3461.43
3395.92
3334.52
79699.3
27607.8
13879.1
6547.13
6611.28
5409.47
5240.2
4716.84
4403.93
4119.81
3927.09
3776.63
3671.51
3595.5
3525.25
3452.6
3388.02
3336.34
79923.3
28752.5
14140.4
6656.43
5600.88
4926.94
4676.95
4397.16
4190.18
4009.24
3866.13
3749.85
3655.9
3579.56
3514.17
3452.27
3392.91
3338.41
85379.8
30300.7
16903.4
7292.52
5459.72
4970.46
4453.36
4218.59
4015.72
3881.84
3772.26
3683.15
3607.37
3538.52
3472.91
3411.25
3357.95
3312.96
87454.3
30027.3
17590.6
7642.3
5307.69
4859.06
4383.44
4123.89
3923.16
3795.85
3692.5
3614.04
3549.45
3488.18
3432.96
3382.21
3338.04
3299.86
80902.7
29947.1
17231.8
6992.48
4914.08
4590.6
4210.34
3996.32
3837.01
3732.11
3649.22
3582.91
3524.97
3470.7
3417.53
3368.84
3327.26
3292.48
75539.5
24165.7
14900.2
5331.74
4575.65
4025.52
4043.15
3823.18
3781.7
3675.26
3618.04
3560.01
3509.41
3458.01
3406.78
3356.99
3314.58
3281.09
70357.2
21360.8
10837.8
4398.4
4628.96
3900.47
4060.43
3805.2
3805.19
3677.98
3631.46
3565.19
3516.06
3466.41
3417.7
3370.55
3328.02
3293.37
64836
20196.5
9580.91
4689.9
5255.87
4086.56
4258.29
3907.72
3896.3
3716.13
3666.29
3580.59
3524.03
3469.61
3422.79
3381.92
3343.33
3307.26
64106.4
19942.3
12301.7
6804.82
6458.69
4547.65
4436.54
3888.98
3878.08
3685.38
3662.98
3579.06
3526.02
3474.83
3427.5
3388.38
3356.6
3328.13
62649.1
19926.6
16565.5
9885.71
7034.02
4745.62
4412.35
3817.24
3854.72
3659.34
3642.8
3556.36
3513.29
3471.82
3432.2
3399.27
3371.61
3346.25
60227.6
20625.9
18486.9
10757.2
6819.18
4668.95
4336.98
3753.8
3841.78
3642
3642.76
3557.52
3520.74
3480.9
3443.28
3410.14
3382.14
3358.49
58218.8
21495.1
17798.7
9792.53
6591.1
4488.68
4283.38
3725.67
3836.63
3628.81
3643.29
3564.01
3533.35
3493.97
3455.9
3421.03
3390.25
3364.58
56490.8
24288.4
15917
8686.59
6274.63
4325.13
4282
3751.95
3875.14
3649.54
3666.75
3583.05
3550.75
3506.63
3467.42
3433.53
3401.19
3370.5
54512.5
30048.7
13927.7
7939.6
6102.41
4252.94
4315.33
3791.9
3915.26
3672.82
3684.8
3591.27
3557.41
3513.5
3476.38
3440.55
3401.75
3366.3
54199.1
38389.2
13282.3
8349.42
6060.87
4230.19
4334.63
3814.68
3926.43
3679.01
3687.6
3590.94
3557.65
3509.65
3466.31
3424.88
3384.35
3350.02
56469.5
41835.7
13670.5
8288.49
6170.82
4238.61
4314.18
3772.19
3881.52
3631.65
3642.78
3548.82
3519.75
3474.52
3433.16
3392.21
3354.68
3324.73
77662.4
30432.5
15319.8
13772.4
9986.07
6731.65
5516.44
4442.21
4145.44
3835.34
3687.28
3562.07
3477.28
3401.87
3324.19
3248.02
3157.57
3072.35
73141.8
31075.8
14868.6
13809.1
9968.77
6807.09
5570.33
4477.19
4170.02
3860.52
3705.06
3575.39
3487.37
3409.61
3332.43
3256.19
3166.2
3082.56
70710.5
28975.1
15365.2
13960.2
10224.8
6994.83
5654.8
4517.17
4201.3
3894.29
3732.84
3591.94
3494.52
3413.54
3335.92
3258.36
3174.12
3090.34
71830.5
26829.4
17684.1
14623.3
10557.3
7332.69
5809.22
4579.34
4247.77
3933.88
3766.23
3614.36
3506.35
3421.17
3344.73
3267.54
3187.29
3108.49
73477.6
25333.3
20870.2
15276.7
10960.8
7753.37
6024.27
4664.05
4293.97
3963.92
3790.76
3635.16
3517.34
3429.93
3355.53
3280.18
3204.9
3130.01
74483.2
25091.7
24206.2
16262.3
11470.6
8290.57
6284.69
4777.39
4340.09
3993.19
3812.01
3654.99
3527.33
3438.04
3366.02
3292.9
3221.73
3151.21
74803.3
26102.2
26824.3
17528.7
12039
8848.72
6561.21
4913.07
4393.15
4023.16
3824.14
3663.46
3530.33
3440.91
3372.02
3302.65
3234.62
3169.25
74678.9
27142.8
27720.3
18573
12433.6
9325.2
6833.04
5050.61
4444.16
4041.52
3814.71
3653.38
3528.58
3442.68
3379.59
3316.74
3250.15
3187.24
74656.6
27877.8
26927
19331.9
12602
9724.65
7105.14
5217.96
4488.1
4044.3
3797.55
3637.57
3527.59
3446.88
3387.26
3331.67
3270.45
3210.61
74968.3
28093.3
25072.5
19091.5
12454.4
9744.47
7310.96
5392.57
4542.09
4047.48
3788.62
3630.05
3530.92
3457.36
3400
3348.91
3294.18
3236.92
75271.9
27898.4
22537.4
17306.9
11846.9
9171.76
7253.67
5508.37
4608.55
4082.23
3812.32
3652.34
3558.92
3489.63
3434.59
3382.2
3322.24
3260.99
75348.4
27674.6
20270.3
14215.9
10718.1
8257.72
6900.03
5485.91
4663.2
4140.72
3867.31
3712.63
3619.02
3544.37
3479.99
3419.42
3352.01
3285.59
74706.3
27491.6
17370.2
10830.2
9332.43
7312.06
6477.21
5372.31
4687.66
4191.8
3925.76
3768.02
3665.46
3588.32
3516.04
3448.25
3378.82
3311.11
76252.9
26997.8
14841.1
7815.6
7932.01
6348.83
5963.25
5157.37
4634.08
4206.5
3956.93
3783.03
3668.58
3590.33
3525.92
3465.97
3403.13
3339.71
79643.7
27221.5
13788.6
6434.39
6576.35
5408.22
5248.96
4742.37
4419.17
4130.61
3929.73
3773.76
3658.81
3575.51
3508.05
3444.79
3385.51
3335.39
81939.3
28669.2
14037.8
6573.23
5626.15
4955.49
4674.74
4404.88
4198.29
4019.55
3878.36
3757.1
3651.74
3564.49
3497.64
3438.16
3382.75
3330.07
86628.1
30618.8
17149.6
7266.77
5433.45
4943.8
4450.08
4223.56
4018.15
3887.06
3786.9
3693.07
3613.66
3540.8
3473.98
3409.16
3353.85
3309.7
86643.3
30517.8
18324.1
7576.86
5260.17
4885.31
4388.11
4144.73
3943.37
3811.12
3703.93
3614.11
3544.21
3481.56
3428.27
3381.5
3338.21
3299.06
80627.9
30673.1
17708.3
6938.49
5004.64
4574.76
4245.69
4009.16
3841.34
3728.35
3644.35
3579.02
3523.4
3472.88
3423.21
3375.88
3333.87
3296.94
75560.7
23756.8
15775
5072.43
4509.3
3981.24
4033.85
3816.86
3777.13
3675
3620.58
3561.9
3511.28
3461.48
3411.5
3361.25
3317.46
3283.89
67448
20178.3
11030.1
4569.67
4637.24
3933.92
4083.4
3812.5
3814.13
3685.1
3637.48
3564.5
3512.11
3461.53
3415.19
3370.55
3328.42
3292.14
64203.9
19466.7
9620.78
4659.86
5304.52
4131.83
4274.39
3918.86
3918.47
3734.8
3670.1
3575.34
3515.85
3459.86
3415.82
3377.72
3341.36
3307.97
64021.4
19991.8
12327.8
6801.46
6430.58
4609.73
4442.06
3891.7
3901.38
3712.14
3674.54
3576.31
3516.46
3465.65
3423.53
3388.58
3357.16
3329.14
62655.6
19566.3
17009
10011.1
6994.63
4803.25
4414.7
3824.48
3873.24
3670.6
3648.54
3554.9
3509.17
3464.69
3425.79
3395.98
3371.49
3348.32
59442.7
20419.7
19037.4
10720.8
6886.88
4634.6
4315.19
3742.75
3830.23
3632.73
3640.62
3560.05
3525.21
3482.42
3445.17
3416.76
3390.81
3365.13
57215.5
20994.8
18412.7
9593.47
6584.09
4379.87
4251.45
3693.99
3818.34
3615.47
3636.95
3559.16
3529.58
3490.4
3456.98
3429.95
3402.09
3374.26
56189.3
23384.5
16325
8405.11
6253.69
4217.85
4250.53
3720.32
3863.5
3640.33
3660.82
3576.29
3545.81
3506.34
3472.02
3440.02
3406.51
3377.26
54985.9
28265.1
14375.4
7759.02
6162.1
4185.27
4297.06
3773.75
3914.44
3673.01
3686.7
3591
3555.74
3509.1
3470.54
3435.9
3399.42
3366.77
54929.3
35824.9
13532.1
8277.35
6141.48
4243.62
4322.32
3794.21
3928.01
3686.34
3703.01
3608.2
3570.44
3514.07
3468.23
3430.59
3391.55
3355.78
56672.8
37991.8
13640.9
8553.35
6266.36
4243.76
4283.08
3759
3886.26
3642.65
3663.67
3570.14
3533.21
3478.7
3433.24
3395.54
3360.11
3328.58
77343.9
27848.5
17315.7
13363.3
9943.51
6779.14
5541.69
4443.22
4168.09
3856.61
3711.38
3586.97
3497.65
3408.18
3322.64
3244.86
3154.99
3070.87
72738.5
28957.8
16467
13436.2
9832.85
6820.36
5576.69
4466.63
4192.09
3879.01
3731.65
3605.18
3512.29
3416.97
3329.06
3250.93
3163.15
3079.6
70036.1
27622.9
16296.2
13808.8
10068.5
6958.69
5645.51
4506.51
4229.79
3909.31
3753.28
3618.08
3521.06
3425.44
3337.14
3258.94
3176.18
3092.43
70926.8
26143.9
17998.9
14663.4
10405.4
7231.21
5794.24
4581.9
4288.32
3948.97
3775.61
3627.76
3524.13
3431.04
3346.74
3269.73
3191.29
3112.23
72494.5
25344.2
20810.4
15431.5
10851
7594.42
6009.59
4677.35
4355.14
3996.85
3797.87
3633.21
3519.99
3430.31
3353.21
3280.91
3207.54
3133.3
73335.7
25248.1
23818.1
16561.5
11297.1
8026.35
6266.37
4791.16
4413.56
4046.08
3821.98
3643.43
3520.72
3431.5
3359.77
3292.28
3224.03
3154.82
73573
26039.5
26352
17849.7
11803.1
8551.33
6554.17
4920.79
4445.97
4060.94
3822.94
3643.86
3524.26
3434.85
3363.48
3299.16
3235.83
3172.05
74100.4
26905.8
27253.3
18787.7
12270.6
9155.22
6836.83
5047.45
4452.59
4036.96
3798.75
3631.61
3520.27
3437.35
3368.48
3306.13
3246.63
3189.27
75061
27492.5
26334.7
19371
12527.6
9627.58
7101.45
5180.68
4467.47
4021.98
3782.66
3624.18
3520.4
3442.32
3379.63
3322.47
3264.51
3207.22
76891.1
28372.4
25283.9
19286.5
12400
9699.41
7267.67
5329.04
4519.66
4035.63
3785.59
3633.86
3537.39
3460.87
3399.13
3344.47
3287.44
3230.3
78309.6
28947.6
23213.7
17727.9
11899.2
9224.25
7223.31
5452.08
4607.48
4084.53
3817.04
3668.87
3575.43
3498.72
3433.62
3377.48
3319.1
3260.56
79188.3
28600.7
20623.4
14455.4
10812.8
8283.95
6873.68
5450.25
4680.07
4154.93
3875.4
3728.78
3632.48
3547.7
3471.62
3409.48
3350.75
3290.91
80185.5
28346.3
18093.9
11053.7
9372.33
7256.51
6440.17
5375.61
4718.25
4220.29
3930.6
3766.18
3663.78
3583.42
3505.18
3437.34
3378.01
3319.06
80943.8
27141.4
15256.9
7956.43
7962.38
6347.4
5995.16
5207.34
4691.09
4248.74
3965.9
3782.84
3664.64
3582.28
3513.99
3454
3394.71
3336.77
82680.2
27024.7
13980
6612.31
6512.42
5375.47
5265.38
4786.38
4459.9
4158.85
3945.75
3783.84
3663
3575.4
3505.99
3443.06
3381.1
3329.19
84943.4
28245.7
14323
6609.67
5599.25
4919.66
4701.88
4428.92
4223.09
4035.37
3881.11
3756.78
3649.03
3559.85
3492.76
3431.65
3374.17
3324.68
89009.5
30094.5
17227.2
7159.54
5474.05
5024.05
4494.42
4245.54
4035.86
3900.9
3793.68
3698.39
3616.98
3542.31
3473.18
3406.67
3349.5
3305.14
87980.3
31086.1
18607.9
7686.2
5351.85
4866.93
4443.45
4185.39
3968.02
3820.54
3709.3
3619.64
3542.61
3476.43
3423.1
3376.8
3335.58
3299.17
80858.2
30109.4
18068.1
7103.85
5039.84
4603.18
4216.13
4004.66
3847.34
3730.05
3647.94
3579.9
3521.45
3469.55
3420.29
3374.74
3334.22
3296.65
76048.8
22926.3
16965.7
5080.95
4479.4
4004.91
4058.55
3833.15
3779.64
3671.3
3612.81
3553.37
3503.43
3457.35
3411.24
3364.17
3320.59
3284.08
64668.2
20287.7
11358.1
4479.89
4623.03
3953.65
4084.02
3805.62
3800.69
3673.79
3627.74
3559.44
3510.33
3463.74
3416.49
3368.01
3323.66
3286.01
61229.3
18939.3
9518.93
4775.77
5265.86
4143.73
4236.99
3881.93
3889.12
3716.22
3654.34
3567.72
3511.93
3458.85
3415.47
3375.41
3338.88
3305.66
60753.2
19492.9
12686.9
7033.18
6337.92
4631.16
4461.56
3910.19
3903.07
3706.65
3660.54
3567.4
3513.65
3464.3
3424.45
3387.48
3353.3
3327.18
58460.9
20240.5
17147.7
10062.3
6927.03
4854.74
4446.33
3836.12
3855.06
3654.37
3636.85
3554
3512.1
3467.19
3430.39
3398.61
3370.78
3347.44
56093.6
21175.8
19102.4
10516
6842.98
4657.36
4316.66
3734.89
3817.14
3622.23
3636.41
3564.26
3528.83
3484.96
3448.91
3419.09
3390.44
3363.47
56018.9
21641.5
18844
9498.43
6572.37
4345.01
4235.85
3688.19
3824.26
3622.27
3645.09
3569.23
3537.15
3497.01
3466.01
3436.01
3402.87
3372.84
56109.7
23216.9
16946.3
8342.82
6257.15
4211.7
4234.34
3714
3870.53
3657.41
3685.04
3604.19
3571.97
3527.66
3487.16
3448.27
3411.68
3381.44
55756.8
27355.3
14638
7752.57
6225.5
4209.52
4271.74
3748.8
3898.16
3671.13
3701.78
3619.52
3584.33
3534.13
3490.26
3448.68
3405.98
3368.43
56060.7
34718.4
14026.3
8440.51
6291.89
4256.19
4272.57
3752.18
3908.32
3680.47
3712.03
3626.16
3586.38
3530.38
3484.44
3441.93
3396.14
3355.67
57067.3
37080.3
14533.6
8841.94
6338.56
4242.42
4224.24
3698.87
3852.94
3628.18
3663.93
3578.93
3537.64
3481.16
3437.09
3397.88
3357.3
3322.8
77637.8
27786.2
18374.7
12857.5
10078.8
6676.82
5522.25
4452.75
4199.84
3862.27
3705.94
3584.88
3502.88
3420.53
3338.32
3252.75
3156.59
3070.46
72662.4
28439.1
16958.4
12910.5
9935.14
6650.05
5559.78
4461.71
4204.69
3869.39
3716.64
3593.94
3507.99
3423.24
3343.75
3260.32
3167.79
3081.91
69655.2
26446.7
16245.5
13257.6
10154.4
6842.21
5647.32
4487.57
4211.59
3880.18
3730.82
3602.39
3510.48
3425.57
3347.41
3266.54
3179.49
3093.15
70952.9
24650.5
17602.9
14063.4
10484.3
7176
5787.39
4550.59
4245.66
3908.18
3747.56
3611.34
3517.7
3435.76
3359.44
3282.1
3199.27
3115.2
73056.9
24222.7
20547
15049
10958.3
7609.02
5995.33
4626.37
4291.06
3951.73
3766.93
3616.95
3520.24
3441.82
3369.84
3298.73
3221.01
3139.73
74462.9
24780.7
23592.9
16293.5
11452
8081.77
6251.17
4731.99
4337.71
3998.26
3787.92
3626.19
3524.45
3445.26
3374.33
3309.13
3238.15
3161.92
75647.2
25450.7
26050.9
17802.1
12007.3
8589.46
6549.47
4864.23
4368.44
4021.87
3798.22
3633.29
3532.24
3453.15
3381.81
3318.55
3250.93
3179.86
76838
26152.2
27026
18979.1
12409.9
9101.59
6819.11
5012.59
4404.95
4027.79
3793.71
3631.43
3534.17
3461
3391.27
3328.21
3261.72
3194.47
77346.2
27123.4
26308.5
19508.9
12673.4
9575.84
7077.36
5169.59
4456.12
4030.35
3794.07
3637.18
3540.91
3467.37
3402.24
3341.89
3274.78
3208.01
78381.5
28002.2
25321.2
19225.7
12676.1
9756.92
7250.44
5335.84
4528.56
4044.19
3802.07
3657.49
3567.51
3492.71
3421.56
3357.4
3291.18
3227.35
79722
28672.4
23411.2
17755.4
12182.6
9346.46
7200.44
5448.89
4626.5
4094.8
3839.75
3696.36
3605.28
3528.41
3451.52
3382.01
3316.32
3254.82
80893.4
28382.3
21154.4
14712.6
11106.6
8404.08
6860.75
5439.46
4683.76
4165.32
3899.9
3748.08
3646.79
3564.39
3482.9
3412.5
3349.14
3289.52
81335.7
28050.9
18683.1
11330.2
9691.25
7359.11
6449.88
5385.37
4724.71
4235.51
3959.24
3790.64
3673.44
3590.2
3515.44
3448.29
3385.7
3324.48
81164.3
27393.2
15602.9
8069.17
8110.98
6406.13
5979.44
5222.17
4714.45
4266.79
3988.07
3802.71
3670.6
3581.33
3519.66
3467.25
3411.39
3351.77
83242.1
27821.2
14303.9
6513.75
6510.51
5436.2
5286.89
4832.57
4499.78
4174.26
3953.94
3795.05
3670.18
3576.4
3508.37
3450.17
3396.63
3344.06
85359.3
28753.9
14084.5
6594.29
5618.96
4943.9
4671.92
4404.17
4215.31
4041.71
3895.49
3778.47
3668.86
3573.9
3501.16
3439.09
3381.3
3330.95
91361.8
30723.2
16319.1
7248.82
5447.19
4935.2
4465.28
4218.87
4036.26
3909.79
3797.45
3704.31
3624.8
3547.51
3476.71
3412.56
3357.77
3312.88
87097.2
31861.3
17278.2
7634.45
5241.52
4889.46
4440.32
4170.12
3955.81
3818.99
3712.53
3623.01
3542.98
3476.15
3422.88
3377.13
3335.61
3299.31
83604.9
27968.5
17184.7
6977.6
4989.26
4574.98
4239.16
4020.12
3857.49
3746.49
3655.46
3581.07
3515.88
3461.01
3412.08
3369.11
3330.88
3295
79056.9
22144.7
16099.9
5332.99
4469.03
3997.69
4069.03
3839.58
3782.6
3675.22
3615.72
3553.28
3498.46
3448.07
3402.38
3358.99
3317.01
3279.74
66335.5
20008
11242.5
4367.9
4649.38
3958.7
4084.26
3808.23
3792.48
3666.2
3617.29
3554.1
3507.78
3463.09
3413.69
3363.55
3319.06
3280.35
61493.5
19100
9471.7
5208.88
5307.74
4214.78
4251.01
3881.35
3867.65
3699.01
3636.87
3558.05
3504.36
3453.47
3409.18
3368.26
3330.99
3296.53
60845
19504.2
12748.8
7246.21
6417.71
4752.56
4491.69
3917.22
3882.2
3680.73
3630.71
3547.9
3500.52
3454.92
3414.37
3376.63
3343.44
3317.99
59162.4
20012
17376.9
9954.38
6980.18
4939.91
4479.03
3834.5
3824.05
3623.22
3611.9
3543.74
3507.62
3465.5
3428.62
3396.08
3368.09
3344.78
57035.5
20571.2
19523.7
10494.5
6847.03
4693.47
4347.53
3727.38
3792.37
3599.8
3614.12
3553.64
3526.67
3485.32
3447.41
3415.46
3386.31
3360.48
56800.2
21670.5
19031.3
9748.69
6697.2
4413.12
4254.71
3676.5
3796.44
3604.54
3631.13
3566.93
3539.97
3497.32
3458.49
3425.31
3395.23
3369.07
57178.9
22543.4
17222.7
8497.47
6341.22
4296.99
4251.62
3705.9
3852.16
3647.62
3678.06
3603.89
3574.02
3524.17
3478.26
3438.88
3406.7
3378.27
57133.9
25628.4
14310.8
7713.19
6132.45
4243.18
4285.18
3726.4
3873.7
3660.44
3698.97
3623.27
3591.2
3535.8
3485.54
3440.46
3401.63
3369.16
57402.8
33713
13588.2
8282.04
6157.98
4281.97
4301.04
3738.21
3888.29
3669.89
3706.55
3623.4
3584.55
3528.45
3480.8
3436.63
3393.93
3357.87
58143.2
38062.2
14626.3
8626.79
6201.16
4223.53
4226.03
3678.81
3837.56
3623.43
3660.49
3575.73
3537.18
3484.99
3440.14
3398.86
3359.21
3325.9
78472.5
26078.4
17751.5
13265
10026.7
6561.15
5460.7
4408.29
4177.14
3854.53
3707.55
3585.68
3511.03
3435.98
3353.86
3263.11
3159.87
3066.64
73478.5
27261.2
16153.3
13252
9839.26
6544.07
5503.77
4415.08
4180.69
3857.9
3710.61
3588.78
3511.68
3438.58
3358.94
3270.36
3169.95
3077.48
70735.7
25670.9
15169.3
13299.6
10103
6723.95
5585.4
4440.28
4192.56
3864.58
3706.49
3580.38
3502.27
3434.88
3359.62
3271.51
3175.79
3083.88
72327
24357.1
16240.2
13746.9
10392.5
7092.2
5718.67
4497.5
4227.68
3889.06
3715.2
3581.46
3501.65
3437.65
3367.19
3283.46
3192.74
3104.97
74302.7
24224.9
18970.8
14535.1
10864.3
7621
5935.42
4578.63
4269.24
3924.23
3737.27
3592.23
3505.76
3441.5
3374.76
3295.83
3212.26
3131.06
75026.6
24682
22069.9
15790.8
11443.5
8248.3
6213.71
4673.95
4304.62
3959.12
3763.61
3612.42
3520.26
3452.38
3385.13
3308.84
3229.27
3153.79
74859.2
25374.5
25108.7
17466.2
12034.3
8858.68
6541.9
4805.78
4335.64
3987.35
3777.99
3625.33
3533.6
3467.28
3399.18
3324.93
3247.46
3172.88
74532.7
26426.7
26720.4
18850.4
12407.8
9329.14
6884.93
4982.57
4381.44
4010.53
3790.95
3636.5
3543.02
3477.05
3411.72
3341.51
3265.67
3190.88
74467.4
27944.1
26413.1
19648.3
12612
9706.37
7166.63
5181.27
4459.05
4032.74
3806.67
3656.05
3560.69
3490.53
3425.76
3358.78
3284.92
3210.4
75390
29240.7
24801.6
19256.5
12618.4
9746.22
7245.01
5338.84
4554.16
4073.77
3832.3
3684.49
3593.28
3516.35
3443.77
3375.09
3301.29
3230.07
75822.7
30017.9
22334.4
17729.9
12312.4
9233.14
7099.57
5401.73
4633.81
4131.77
3872.37
3720.31
3625.58
3542.39
3464.63
3393.34
3319.98
3255.19
75630.6
29658.1
19770.7
14642.3
11346.2
8410.8
6786.41
5383.14
4670.48
4185.28
3918.04
3754.53
3647.7
3568.46
3495.09
3424.7
3355.28
3294.44
74851.2
29112.8
16810.8
11069.1
9823.45
7432.77
6428.54
5340.72
4718.48
4247.46
3971.42
3787.96
3669.63
3594.82
3530.44
3467.05
3401.29
3335.84
76061.1
28487.2
14382.2
7856.25
8036.33
6310.27
5932.42
5199.54
4735.53
4284.79
3996.99
3806.59
3679.08
3596.07
3538.72
3487.24
3425.45
3353.86
78576.6
28450.5
13452.5
6598.19
6467.47
5318.88
5255.46
4844.06
4543.65
4204.87
3962.99
3807.73
3692.01
3598
3527.17
3468.48
3411.68
3355.29
80951.9
28408.5
13184.6
6584.86
5499.77
4858.37
4651.91
4391.1
4217.09
4049.72
3904.63
3790.76
3685.57
3590.66
3511.74
3445.3
3385.57
3334.23
85994
30017
16410.8
7260.43
5346.23
4859.71
4440.03
4201.5
4035.27
3911.47
3794.83
3706.16
3629.94
3552.76
3477.85
3414.5
3361.89
3318.52
86555.2
29704.5
17639.1
7293.69
5290.91
4895.07
4397.04
4142.06
3949.99
3823.48
3714.5
3622.7
3543.48
3478.53
3423.02
3374.48
3333.98
3298.77
85163.1
28989.1
16877.3
6966.72
4936.45
4614.7
4256.35
4014.27
3853.25
3751.81
3656.24
3576.73
3507.74
3450.54
3401.97
3361.01
3325.62
3292.1
78937.4
23253.4
16043.4
5281.7
4500.45
4018.63
4075.93
3834.28
3781.58
3686.87
3629.78
3561.61
3498.82
3447.74
3403.74
3363.5
3324.5
3287.18
67145.7
20286.4
11776.2
4603.18
4632.95
4025.63
4106.21
3839.57
3799.41
3667.98
3617.42
3556.41
3505.77
3459.21
3410.45
3362.71
3318.85
3280.31
62077.4
19383.4
10110.9
5301.56
5318.49
4284.22
4281.17
3921.62
3885.95
3706.39
3633.76
3554.92
3499.33
3450.48
3405.31
3365.33
3328.19
3293.92
59519.9
19336.1
13379.6
7408.12
6483.88
4800.12
4517.1
3948.35
3897
3681.37
3619.22
3540.45
3498.3
3454.51
3410.96
3373.84
3343.61
3318.49
58686.3
19740.3
17445.4
10201.5
7118.31
4976.04
4520.38
3872.01
3838.77
3627.06
3610.26
3546.95
3512.01
3467.6
3427
3395.12
3368.72
3346.01
56648.8
20529.1
19179.1
10877.6
7095.88
4742.07
4384.15
3746.72
3798.98
3606.09
3612.94
3553.76
3528.61
3490.87
3452.1
3418.18
3389.12
3363.96
57176.8
21767
18939.4
9909.72
6859.59
4458.65
4270.26
3673.31
3793.59
3600.81
3622.4
3556.57
3535.26
3500.7
3466.94
3432.5
3402.05
3375.24
58209.2
21947
16963
8451.97
6394.13
4326.43
4241.75
3685.02
3829.89
3634.45
3663.52
3590.79
3563.75
3521.92
3484.62
3447.43
3412.14
3381.73
57816.9
24801.2
14180.7
7764.06
6144.86
4198.17
4250.58
3711.66
3865.69
3667.68
3697.37
3607.05
3567.9
3522.21
3480.83
3440.06
3404.18
3374.52
57725.1
32230.1
13932.7
8324.74
6184
4235.58
4268.68
3746.9
3893.99
3682.53
3704.43
3599.28
3556.4
3509.79
3465.75
3424.97
3391.02
3363.12
58546.9
35721.4
15166
8630.34
6298.34
4227.07
4209.94
3679.01
3827.29
3626.03
3657.24
3562.91
3527.73
3479.52
3435.62
3396.46
3362.96
3334.89
77738.5
24823.3
17121.3
13988.7
9704.62
6393.65
5453.65
4422.02
4186.82
3859.41
3709.15
3571.63
3485.48
3415.42
3336.58
3247.05
3146.6
3055.57
73176.1
26542.6
16023.8
14016.6
9589.66
6412.3
5506.78
4433.4
4187.6
3853.81
3703.19
3566.3
3482.12
3415.46
3339.88
3251.28
3153.14
3067.33
70185.4
26248.7
15045.8
13807.7
9919.6
6605.2
5572.14
4454.95
4202.19
3866.85
3704.03
3563.38
3478.51
3414.53
3342.63
3255.36
3163.45
3078.28
71730.5
25851.2
15972.2
14016.3
10208.5
7003.18
5703.09
4508.17
4238.38
3909.81
3728.92
3580.23
3490.29
3425.33
3354.21
3267.88
3180.54
3099.72
73876.4
25840.9
18614.8
14638.4
10703.4
7560.6
5923.46
4588.19
4279.84
3952
3753.71
3599.34
3505.97
3439.54
3369.43
3284.14
3200.77
3123.87
74528.6
26150.3
21827.7
15709.3
11285
8245.93
6216.76
4698.04
4322.55
3982.09
3771.25
3610.15
3513.78
3447.58
3382.79
3303.24
3223.69
3150.12
73893.3
26631.9
24880.4
17147.8
11889.4
8920.29
6575.66
4865.5
4373.06
4016.81
3788.92
3616.05
3513.63
3448.91
3390.77
3320.27
3246.28
3175.01
73007.4
27253.1
26658.8
18418.6
12314.2
9492.18
6951.79
5073.41
4439.15
4051.34
3811.58
3632.66
3522.5
3455.82
3400.63
3337.28
3266.82
3195.71
72374.5
28228.4
26331.1
19250.2
12594.6
9940.63
7278.77
5287.87
4518.16
4083.85
3834.87
3660.87
3548.82
3475.56
3416.64
3354.53
3284.55
3215.09
72498.9
29304.6
24384
19025.9
12662.6
9936.62
7313.74
5403.24
4599.07
4123.16
3858.65
3694.13
3587.03
3509.47
3444.57
3378.33
3303.13
3233.47
73410.5
29759.8
21328.5
17354.2
12280.8
9357.16
7149.31
5434.49
4651.24
4159.87
3888.62
3729.79
3628.16
3549.55
3480.12
3407.71
3328.47
3260.4
73156.9
29180.8
18349
14162.8
11251.2
8499.25
6805.43
5383.79
4683.91
4189.65
3913.36
3751.77
3654.78
3579.59
3510.6
3438.68
3365.14
3303.31
72993.6
28597.6
15593.9
10456.1
9756.88
7468.9
6403.04
5293.84
4721.43
4244.38
3966.69
3787.96
3677.3
3599.88
3532.83
3467.85
3401.16
3340.09
74331.8
27705.4
13057.3
7361.56
8077.46
6268.81
5840.56
5135.85
4738.73
4307.41
4011.5
3815.96
3691.12
3603.44
3532.43
3473.96
3413.74
3348.34
76685.3
27620.5
12777.5
6266.64
6580.46
5309.43
5222.69
4838.41
4561.69
4234.19
3984.53
3820.51
3702.28
3605.71
3530.4
3471.29
3413.62
3356.98
78132
28452.7
12820.7
6451.09
5584.14
4856.96
4644.22
4411.5
4245.03
4069.8
3913.55
3797.75
3693.3
3593.44
3509.21
3442.82
3385.72
3335.55
84885.2
28384.9
16167.8
7234.79
5411.4
4813.65
4436.15
4224.5
4050.66
3916.58
3794.47
3703.87
3625.94
3549.8
3476.04
3413.12
3360.69
3318.6
84486.9
27241.2
18451.8
7245.17
5393.08
4929.68
4387.53
4135.33
3944.76
3814.97
3708.73
3617.5
3541.81
3479.94
3424.2
3374.62
3333.42
3297.47
81524.9
29792
17004
6745.93
4968.97
4604.23
4226.75
3986.52
3840.69
3743.01
3653.56
3576.55
3505.63
3448.82
3401.23
3358.73
3321.57
3288.51
80828
22963
15977.7
5592.53
4489.29
4020.74
4047.53
3820.47
3777.23
3688.37
3626.46
3561.72
3496.8
3445.19
3402.5
3366.7
3330.42
3295.37
71051.1
19552.4
12027.6
4768.2
4562.67
4039.92
4103.73
3854.6
3805.66
3665.39
3604.18
3543.5
3497.58
3452.72
3406.98
3365.09
3326.03
3290.09
61943.7
19331
10852.6
5238.09
5294.32
4313.42
4300.14
3955.45
3906.1
3715.66
3635.46
3555.87
3499.83
3450.61
3407.41
3369.96
3334.24
3299.99
60557.8
19125.5
13700.5
7276.92
6557.14
4864.43
4554.44
4000.92
3917.66
3681.21
3618.85
3547.26
3506.92
3460.27
3415.89
3380.17
3352.15
3325.98
61228.1
19335.9
17300.5
10187
7188.02
5020.57
4537.3
3894.84
3848.17
3630.19
3613.45
3552.12
3521.49
3479.89
3436.73
3402.35
3375.46
3351.79
58341
20648.8
18764.6
10666.7
7108.78
4780.17
4378.78
3748.81
3794.18
3605.4
3620.41
3564.37
3537.42
3501.61
3464.68
3429.85
3396.69
3368.87
58257.9
21997
18293
9541.87
6802.07
4427.54
4261.78
3684.66
3798.35