/*--------------------------------*- C++ -*----------------------------------*\
| =========                 |                                                 |
| \\      /  F ield         | OpenFOAM: The Open Source CFD Toolbox           |
|  \\    /   O peration     | Version:  2112                                  |
|   \\  /    A nd           | Website:  www.openfoam.com                      |
|    \\/     M anipulation  |                                                 |
\*---------------------------------------------------------------------------*/
FoamFile
{
    version     2.0;
    format      ascii;
    arch        "LSB;label=32;scalar=64";
    class       volVectorField;
    location    "0.23";
    object      U;
}
// * * * * * * * * * * * * * * * * * * * * * * * * * * * * * * * * * * * * * //

dimensions      [0 1 -1 0 0 0 0];

internalField   nonuniform List<vector> 
122250
(
(-20.7597 0.466011 -3.99914)
(-9.88214 2.33375 -10.55)
(-38.1307 -0.797993 -3.02583)
(9.02003 0.364704 1.88586)
(-18.8929 -2.53569 -5.6116)
(10.3241 -3.0122 -0.34975)
(6.60119 -0.048868 -0.399327)
(-7.06234 0.771481 0.892463)
(-5.78966 -0.127438 1.26176)
(-5.19959 0.312219 1.86724)
(-6.14687 0.221933 2.18947)
(-4.65861 0.354244 1.57951)
(-5.25592 0.486187 2.3253)
(-4.189 0.383302 3.26095)
(-3.99104 0.188082 3.3416)
(-2.6653 -0.117024 2.83153)
(-2.78258 -0.106155 1.23133)
(-2.05593 -0.778886 0.488966)
(-26.4441 1.48884 -3.5588)
(-11.2539 7.05609 -6.69659)
(-38.7135 -5.66996 8.19183)
(12.5327 0.849068 3.51419)
(-19.5071 -3.6981 -3.65935)
(1.3113 -2.31646 -1.79157)
(-4.30566 2.01356 -0.713818)
(-8.76425 1.64918 0.308106)
(-6.77995 -0.247618 0.132132)
(-5.00552 0.394916 2.39049)
(-6.5208 0.744475 2.65862)
(-4.76674 1.03786 2.39687)
(-5.9194 1.21649 2.88185)
(-4.18399 0.988872 3.81867)
(-4.1609 0.513305 4.03687)
(-2.31468 -0.167921 3.06968)
(-3.20043 -0.397866 1.32851)
(-2.66689 -1.24733 0.755434)
(-25.8908 3.20582 -2.62123)
(-6.95175 8.70632 -4.46749)
(-34.6475 -15.0273 9.07971)
(18.07 -0.600192 3.92063)
(-17.2808 -2.24424 -6.16593)
(1.11662 -3.15033 -3.85289)
(-10.5317 1.72808 -1.15825)
(-6.40649 0.729268 -1.87015)
(-6.4702 -0.676513 -2.2144)
(-4.87977 0.662536 -0.370187)
(-5.79319 1.24111 1.71906)
(-5.00982 1.97381 1.58408)
(-5.62967 1.7813 2.05245)
(-4.30076 1.43915 3.14397)
(-4.43249 0.665979 4.4436)
(-2.91439 -0.37657 3.48862)
(-2.95684 -0.692173 1.57581)
(-3.25401 -1.82753 1.04666)
(-29.2793 4.94853 -2.03201)
(-1.12171 10.1748 -3.33275)
(-30.7267 -15.9485 8.53137)
(7.44844 -4.21601 1.07723)
(-18.2584 -2.39512 -7.51491)
(0.0579195 -3.9122 -3.75199)
(-10.3668 1.33333 -1.60923)
(-4.88124 -0.631942 -1.91383)
(-7.69172 -1.71898 -1.55205)
(-4.82978 0.513598 -2.53517)
(-5.63125 1.53751 0.178901)
(-5.05968 2.55364 1.04352)
(-5.19483 2.36834 1.31409)
(-4.36349 2.01633 2.66305)
(-4.73353 1.22273 4.44771)
(-4.02894 -0.247906 3.9526)
(-3.63466 -0.937263 2.13866)
(-3.42121 -1.79599 1.51547)
(-30.9288 6.78053 -1.52783)
(6.40335 11.54 -2.58568)
(-29.0305 -16.0079 8.29407)
(-10.0262 -3.06915 -0.54736)
(-15.5634 -4.25664 -6.62948)
(-3.31097 -4.21185 -4.1189)
(-9.74009 0.634179 -2.30189)
(-3.52794 -1.10058 -2.47857)
(-8.01945 -2.73505 -0.990421)
(-5.58407 -1.05971 -2.80448)
(-5.33757 1.59867 -1.57418)
(-5.13206 2.82843 0.276957)
(-4.68177 3.00318 0.593977)
(-4.06166 2.7489 1.85925)
(-4.49004 2.16202 4.19233)
(-4.437 0.469621 4.96974)
(-4.41353 -0.731455 3.859)
(-3.55007 -1.67777 2.09727)
(-31.966 8.26115 -0.982514)
(13.081 10.9327 -0.960747)
(-24.0335 -14.3784 8.47187)
(-11.4508 -4.69105 5.13772)
(-10.8895 -5.68327 -1.50467)
(-2.67612 -4.8904 -3.73471)
(-9.13772 -1.67397 -1.6027)
(-0.876674 -1.18273 -3.50724)
(-7.65708 -2.62046 -1.62239)
(-6.99488 -2.26961 -2.78029)
(-5.22798 0.701786 -2.56832)
(-5.53996 2.81303 -1.01057)
(-4.12715 3.27744 -0.206546)
(-3.47849 3.4428 0.540525)
(-3.95244 3.08984 3.46226)
(-4.48928 1.4123 5.48531)
(-4.63284 0.0252872 5.92671)
(-3.64507 -1.14182 3.24854)
(-33.5176 8.85799 -0.410732)
(25.2189 11.5061 0.682675)
(-17.3379 -10.486 6.55105)
(-8.22461 -4.80242 8.2852)
(-9.8058 -5.97953 5.12674)
(-2.3724 -4.04512 -1.29798)
(-9.87809 -2.88315 0.401418)
(-0.248188 -1.95483 -3.03284)
(-6.74068 -2.12799 -2.06894)
(-7.41125 -2.66115 -2.77706)
(-5.65029 -0.253061 -3.55587)
(-5.73716 2.58345 -2.75793)
(-4.43883 3.23751 -1.86502)
(-2.51128 3.89382 -1.01626)
(-2.98584 3.90943 2.11016)
(-3.89602 2.38523 4.93234)
(-4.16908 0.965178 6.93353)
(-3.80429 -0.0824155 5.11625)
(-35.4061 8.50903 0.0959554)
(34.8608 10.8799 2.52612)
(-10.4029 -6.11161 5.12913)
(-3.22057 -4.29096 6.63957)
(-6.08282 -5.8784 7.07379)
(-6.50677 -2.19387 2.64002)
(-9.34837 -2.87393 1.16737)
(-4.08202 -2.37369 -0.155308)
(-6.28797 -2.08695 -2.23924)
(-6.55763 -3.05736 -1.76791)
(-5.72806 -1.21022 -3.62203)
(-4.80004 1.79984 -4.4593)
(-4.61316 2.74488 -4.14185)
(-2.13983 3.54435 -3.45715)
(-1.587 4.35218 0.154661)
(-3.03095 3.31003 3.30344)
(-3.35477 2.05016 6.49743)
(-3.69532 1.37047 6.79852)
(-37.2476 7.61568 0.530723)
(38.3082 9.08009 2.53505)
(-6.23534 -2.41741 3.90049)
(0.781425 -2.9557 4.26482)
(-4.23762 -4.49371 6.30588)
(-8.27766 -0.446276 6.15467)
(-6.76717 -2.91256 2.55175)
(-5.52184 -3.00157 1.91425)
(-6.7011 -3.06695 -0.965471)
(-4.36853 -3.70748 -0.232718)
(-5.75393 -2.08203 -1.95159)
(-3.62711 0.124657 -4.56971)
(-3.61009 1.48321 -5.00831)
(-2.70156 2.59759 -5.36658)
(-0.925186 4.56464 -2.24312)
(-1.75622 3.98499 0.995486)
(-2.49584 2.97955 4.60318)
(-2.79782 2.73557 7.16625)
(-38.7894 6.62265 1.00176)
(39.5301 7.99921 3.61572)
(-2.47953 1.30511 3.17671)
(3.12777 -1.58801 1.788)
(-3.45259 -3.37638 4.73351)
(-5.52162 0.750959 7.63735)
(-2.44686 -2.36978 3.12879)
(-2.63182 -3.79424 2.69356)
(-3.62907 -5.15211 1.59991)
(-1.99113 -4.79698 1.15175)
(-4.4644 -2.55413 -0.0429192)
(-3.32905 -1.36454 -2.58538)
(-2.77893 0.0545611 -4.74341)
(-3.08703 1.1537 -5.96436)
(-1.65386 3.69054 -4.80569)
(-0.397008 4.20503 -1.56663)
(-1.41517 3.61319 1.70415)
(-1.76982 3.53173 5.24685)
(-40.022 5.7592 1.6269)
(40.4295 8.09567 4.52673)
(0.817753 4.72139 1.69801)
(4.65578 0.601647 -0.798707)
(-2.53476 -2.65108 3.38037)
(-0.782238 0.541815 7.11984)
(2.12301 -1.73498 3.61382)
(2.68394 -3.90581 3.6492)
(2.2617 -6.76312 2.1596)
(0.574173 -6.97999 1.40924)
(-1.2688 -2.55916 1.51915)
(-2.08536 -2.24142 -0.263817)
(-2.58903 -0.817657 -2.70948)
(-3.00718 0.198712 -5.81839)
(-2.9494 2.25096 -6.70618)
(-0.478806 3.48374 -4.31317)
(-0.21608 3.85887 -1.33708)
(-0.697009 3.98665 2.17756)
(-40.616 5.27041 2.4504)
(41.7035 7.58867 5.70885)
(5.16078 7.28989 0.78923)
(5.24136 3.33588 -2.21333)
(-1.81215 -1.74406 3.90674)
(2.77274 1.3757 8.61164)
(5.04261 0.292539 7.79428)
(5.69928 -2.32918 6.94575)
(3.92559 -5.80559 4.29121)
(3.16169 -8.32099 1.25217)
(2.12109 -3.98797 1.74777)
(1.86928 -1.84616 1.44249)
(-0.552392 -2.05575 -0.223102)
(-1.59078 -0.823134 -3.43291)
(-2.5278 0.903942 -6.83096)
(-1.72602 2.45553 -6.88227)
(0.02025 3.42682 -4.02705)
(0.37437 3.83042 -0.840738)
(-40.2702 5.23073 3.3234)
(40.8235 4.81474 5.49999)
(3.24881 9.59476 -1.57926)
(6.35991 5.83337 -5.09764)
(-1.95128 -0.773844 4.414)
(2.04827 1.26328 12.2171)
(3.02423 1.38238 13.6176)
(6.9579 -0.466578 10.1181)
(6.42136 -4.39632 5.99884)
(4.15803 -7.45553 2.90975)
(4.11071 -6.97694 0.337227)
(5.1252 -2.39553 1.55313)
(4.348 -0.902442 1.12657)
(0.479479 -1.62781 -0.326226)
(0.445989 -0.550076 -3.88655)
(-0.459377 1.56283 -7.00839)
(-0.00392884 2.91915 -7.04353)
(0.774955 3.56281 -4.39308)
(-39.5173 6.04922 3.7541)
(38.1478 6.45252 7.28464)
(9.82088 8.36723 -0.899939)
(14.9529 8.99667 -5.64613)
(-2.47155 1.90616 -0.186476)
(4.52009 -3.23674 12.5654)
(2.40594 -2.0355 15.5043)
(7.18112 -1.57112 9.50502)
(9.68187 -4.10714 4.26325)
(7.06835 -6.54363 2.80493)
(5.60475 -7.6861 -0.407888)
(6.0096 -5.92591 -1.16632)
(6.42632 -1.33177 0.169591)
(4.2972 -0.798399 -0.358553)
(2.84958 -1.99211 -1.24338)
(2.39892 -0.668225 -3.84769)
(1.56661 1.63916 -6.7194)
(0.908079 3.37089 -7.17877)
(-38.7816 6.69246 2.61588)
(37.9463 5.87206 4.65527)
(4.40058 3.20733 -2.46394)
(18.7684 9.29019 -5.55991)
(13.0992 9.40139 -4.34247)
(6.50706 2.72107 3.12018)
(7.1159 1.79813 7.05928)
(11.4586 0.816059 2.72055)
(13.8043 -2.96957 0.622265)
(11.3787 -5.38877 0.692827)
(6.97408 -6.81076 -1.19035)
(5.84272 -6.69533 -3.54259)
(6.07144 -3.65776 -2.76912)
(6.20475 -1.76309 -2.51737)
(5.62068 -1.50317 -2.39727)
(2.75518 -0.266204 -1.62245)
(1.77587 1.15452 -3.8604)
(0.447874 2.91417 -6.52319)
(-39.0321 5.65514 1.12685)
(37.4283 2.19763 1.9778)
(8.35628 1.10258 -3.47632)
(16.834 4.21791 -6.11086)
(18.6714 4.49862 -3.08825)
(16.8425 3.74994 0.293021)
(16.7178 3.47809 -0.0730236)
(18.5734 1.25258 -2.34249)
(17.9739 -1.6196 -1.67049)
(13.2573 -3.30779 -0.944768)
(6.83501 -5.01101 -3.13095)
(4.37152 -6.33033 -4.44535)
(6.16957 -6.0298 -4.51219)
(7.43674 -4.74342 -3.9658)
(6.7423 -3.13649 -3.5738)
(5.76042 -1.46881 -2.89279)
(5.01794 0.447982 -2.15035)
(3.69091 2.13343 -2.24381)
(-38.99 3.24496 0.277423)
(37.4415 -3.28672 0.282958)
(1.86886 0.70511 -3.63168)
(10.8428 -0.0460881 -3.31386)
(10.5156 0.420337 -1.45274)
(13.1059 2.07643 -0.860843)
(14.137 2.63235 -1.72465)
(12.2349 1.11768 -1.86645)
(9.05184 -0.801524 -1.37164)
(5.56813 -1.31114 -2.77377)
(1.04489 -2.91238 -4.17615)
(0.523846 -4.10162 -2.2381)
(2.66466 -2.14272 0.865915)
(3.94688 0.406985 2.32995)
(3.80967 0.824368 2.42594)
(3.97758 -0.0115618 1.79866)
(4.80052 0.102673 1.27537)
(5.80308 1.38899 0.897575)
(-38.0211 0.896639 1.21789)
(36.8457 -6.67755 8.87685)
(8.22582 3.12248 -0.813484)
(11.744 1.14403 -5.82084)
(3.0706 -1.83688 -3.88499)
(2.98393 0.290696 -4.60341)
(0.80866 0.326119 -4.14871)
(1.49856 -0.367385 -5.14221)
(2.35873 -0.34993 -2.04727)
(2.29552 0.440914 0.895903)
(1.07819 -0.850295 2.73265)
(0.618178 -1.50036 4.05468)
(0.0615495 -1.32461 3.86628)
(1.25178 -1.5111 1.70819)
(2.22123 -2.51431 -0.479164)
(2.45519 -2.96036 -1.88808)
(2.52162 -2.72642 -2.62581)
(3.09289 -1.85631 -2.77333)
(-34.0836 2.78238 1.54595)
(33.6224 -0.569704 14.68)
(15.14 0.1866 7.17218)
(20.3305 1.71384 -0.364456)
(10.8809 -0.773801 -1.22124)
(6.43059 0.830688 -3.39697)
(7.63881 2.80938 -3.52261)
(8.91565 3.6488 -4.78174)
(8.39457 3.0171 -4.959)
(8.01044 1.79245 -3.50006)
(7.87578 0.343298 -1.3201)
(7.24458 -0.576214 0.846384)
(6.42963 -0.507735 2.13329)
(6.0202 0.00368598 2.35334)
(5.51113 0.467797 1.56539)
(4.27786 0.667237 -0.239627)
(2.85254 0.117534 -1.84267)
(1.9403 -0.836445 -2.58766)
(-37.165 6.05102 1.86548)
(36.5704 10.8525 9.83761)
(3.5853 -2.52381 4.45548)
(6.66953 -2.0103 -1.71808)
(-5.15852 -3.44184 2.1222)
(1.7886 -5.47161 -0.428838)
(-2.18207 -0.597732 2.97577)
(2.36969 1.80433 3.22439)
(2.96075 2.89094 2.7158)
(3.21714 2.95134 2.71536)
(1.81017 1.48166 3.21499)
(0.354008 -0.0633916 4.00343)
(-0.317283 -0.82649 4.64045)
(-0.19186 -1.09689 4.44814)
(0.359455 -1.00887 3.4074)
(1.12153 -0.607317 1.96678)
(1.36031 -0.396244 0.00233338)
(0.865761 -0.586724 -1.70968)
(-36.8495 4.66989 0.725819)
(36.1505 11.8474 4.47018)
(2.15629 3.05555 3.31414)
(9.3307 2.93504 -2.9013)
(5.44064 4.3984 -4.02448)
(2.58439 -1.04483 -3.42529)
(-2.51163 0.564135 0.253725)
(0.506649 -0.259537 1.84857)
(-1.28255 1.28913 2.53874)
(0.155859 1.61924 2.86542)
(0.139195 0.864903 2.60219)
(0.510373 0.696833 2.43146)
(0.873316 0.437396 3.39844)
(0.630046 -0.0526896 5.3008)
(-0.0644885 -1.40694 4.12487)
(-0.463261 -1.33018 2.00445)
(0.199387 -0.311154 0.370237)
(0.810233 0.0252693 -0.65958)
(-37.9122 2.08959 0.365665)
(37.021 10.0227 2.66445)
(0.804106 3.43584 2.92708)
(9.35865 0.339331 -0.496798)
(6.27518 2.30251 -2.5531)
(4.70531 -0.172935 -2.85913)
(-0.411936 -0.542544 -0.882998)
(0.884363 -0.618426 -0.524111)
(-1.74916 1.28316 0.465441)
(-0.367334 0.587429 0.817703)
(-1.19967 -0.394948 1.84386)
(-0.095262 -0.395965 2.61949)
(1.13781 1.03749 3.3639)
(1.89013 2.2301 4.83153)
(1.19682 1.99028 5.09291)
(0.752109 -0.520679 3.85145)
(0.781015 -1.54389 2.25708)
(1.36312 -0.872162 0.769577)
(-38.7903 -0.322479 0.174534)
(37.7529 3.90133 0.494097)
(8.2738 5.30206 1.06312)
(11.4319 2.01313 -0.228586)
(8.04844 2.91427 -1.84167)
(5.78619 1.67204 -2.64859)
(1.76997 0.0630099 -1.49217)
(0.698781 -1.05114 -1.39797)
(-0.664954 0.161175 -1.70076)
(-0.283092 0.110708 -1.46663)
(-1.88736 0.35945 0.0162922)
(-0.961073 -0.877028 0.664214)
(-0.0873301 -0.840875 2.61135)
(1.30986 1.23964 4.04936)
(1.03019 1.78027 4.96509)
(1.79326 0.0261861 4.64257)
(1.36191 -1.13357 2.82433)
(0.751722 -0.12023 0.609557)
(-38.3908 -2.55738 0.070914)
(37.5348 -4.13905 -0.225328)
(13.038 2.80262 -0.855025)
(12.8278 3.11016 -0.770294)
(10.0962 3.7546 -1.49039)
(7.5185 2.89192 -2.24574)
(3.54829 1.37541 -1.45013)
(1.71637 0.0873258 -0.338028)
(0.943574 -0.602848 -2.07825)
(0.429529 0.00789453 -2.74946)
(-0.985803 0.486016 -1.99853)
(-1.47012 -0.922841 -1.86031)
(-1.64555 -0.472178 0.772647)
(-0.194629 0.442297 3.6859)
(0.598951 0.406691 4.19162)
(1.38247 -0.38514 2.94302)
(0.319564 0.888504 1.36512)
(-0.249544 1.43411 0.30817)
(-37.5464 -4.52481 0.0696844)
(37.9062 -7.18392 1.56696)
(11.9592 1.99023 -0.839671)
(11.6039 4.0223 -1.29963)
(9.74406 3.85784 -1.54408)
(7.81349 3.42182 -2.01673)
(4.6314 2.41194 -1.47876)
(2.19196 0.641685 0.269)
(1.98671 0.609149 -0.397493)
(0.969627 0.834691 -2.62341)
(-1.29092 0.64586 -2.80595)
(-1.12065 -0.155416 -2.82554)
(-2.05974 0.138746 -1.78194)
(-1.4035 0.990512 0.0984735)
(-0.835031 1.37553 0.906326)
(-0.578017 1.41791 0.456815)
(-0.425263 1.4621 -0.0315035)
(0.304471 0.964597 -0.464117)
(-37.425 -6.02399 0.201833)
(38.8207 -6.58702 4.73073)
(13.6184 2.27052 -0.141064)
(10.3239 4.60258 -1.86789)
(8.14154 3.70216 -2.01831)
(6.87968 3.45013 -2.28363)
(4.28475 3.05133 -1.56218)
(3.21424 1.10247 -0.273409)
(1.69035 0.136233 0.0958168)
(2.84778 1.11428 -1.07382)
(2.24146 1.11714 -1.98472)
(1.56958 -0.0496258 -3.05457)
(0.791945 -0.076258 -3.53477)
(0.133197 0.288956 -3.15302)
(0.0956379 0.685618 -2.50678)
(0.513679 0.964587 -2.26858)
(1.30884 1.04454 -2.38471)
(2.52654 0.44496 -2.84236)
(-38.2919 -6.66875 0.525121)
(39.5462 -4.13112 9.30411)
(11.9894 3.55425 0.551482)
(8.03554 4.14907 -2.69117)
(5.61303 1.83124 -2.74432)
(5.52354 2.56537 -2.25195)
(4.05466 3.06724 -1.27328)
(3.41254 1.30782 -0.575485)
(0.531216 -0.286571 0.853703)
(0.817835 -0.222496 1.16141)
(1.70184 0.650224 0.331958)
(2.42656 1.13428 -0.260728)
(3.07074 1.50503 -1.09397)
(3.67042 1.52842 -1.25787)
(4.2478 0.702692 -0.739984)
(4.35894 -0.261096 -1.14372)
(4.4031 -0.760532 -2.45539)
(4.6852 -1.447 -3.85233)
(-40.0005 -6.47796 1.11471)
(39.1017 -4.41514 12.4133)
(19.5654 4.08649 5.79035)
(12.7049 4.70553 -2.52972)
(6.1274 1.53807 -3.48514)
(2.22079 1.02292 -3.22084)
(0.323331 1.78879 -2.61816)
(2.9536 1.05488 -1.75376)
(1.9169 -0.637005 0.211047)
(0.681715 -0.875405 1.97511)
(0.469599 -0.38767 2.79481)
(1.36085 -0.638239 3.40201)
(2.32332 -0.5951 3.24965)
(3.5093 -0.395622 2.87412)
(4.12064 -0.738868 3.07366)
(3.82065 -1.29332 3.189)
(4.24935 -0.980091 2.21851)
(6.04764 -0.488136 0.304029)
(-36.9698 -4.60439 2.49003)
(42.6385 -3.23409 7.02682)
(19.5845 0.812312 8.31995)
(19.7898 2.98231 2.75095)
(19.6031 2.97198 -0.305254)
(18.1431 1.34133 -1.7002)
(13.3596 1.11288 -3.14847)
(17.0255 1.67771 -3.29746)
(17.9384 1.0916 -2.49499)
(10.2903 -0.0843624 -0.573614)
(5.51321 -0.111041 2.11734)
(4.93638 -0.160066 4.20315)
(4.11131 -0.515673 4.84022)
(4.6147 -0.68676 4.71528)
(6.34643 -0.589665 4.49173)
(5.89441 -0.51668 4.8912)
(3.94556 -0.674063 5.35781)
(5.63531 -0.979803 3.73192)
(-45.9746 -0.407198 3.96694)
(43.3219 0.758901 -2.78002)
(20.3168 1.2673 2.60112)
(17.2202 2.01317 2.9359)
(19.0063 1.5539 2.50304)
(20.0781 1.01901 1.17629)
(18.6252 1.202 -1.07027)
(19.7313 0.404538 -2.66906)
(20.7848 0.0524922 -2.7303)
(18.0638 0.717818 -1.72602)
(15.0342 0.95673 -1.10679)
(13.0814 0.541471 -0.593913)
(12.3452 0.212822 0.592777)
(11.334 -0.0910903 1.93594)
(10.3818 0.202277 2.7078)
(10.3228 0.841525 3.00466)
(9.97355 0.784784 3.70642)
(10.1993 0.191273 3.50327)
(-3.67765 1.11307 -0.612704)
(-15.2513 -0.353201 -3.84277)
(-37.9944 -7.87303 -3.95176)
(20.6756 -1.83798 -12.7406)
(7.56649 0.534308 -2.9028)
(-9.49585 0.708083 1.94087)
(-5.33384 -0.421891 1.36835)
(-7.36818 0.257232 1.93154)
(-6.8572 -0.0518034 1.47644)
(-5.04625 0.244145 1.57753)
(-6.63382 0.375695 0.899963)
(-5.03024 0.2995 -0.378776)
(-5.0054 0.459862 -0.626538)
(-3.65993 0.409775 0.492584)
(-3.48786 0.297987 0.973492)
(-2.64567 0.171998 1.51107)
(-2.64703 -0.0857392 1.50897)
(-0.914336 -0.71802 1.48463)
(-24.309 2.0684 -0.459442)
(-12.6012 3.92313 -1.39185)
(-38.629 -12.3106 1.61932)
(16.3585 -1.55912 -6.4601)
(-7.82634 1.7584 -1.21578)
(-12.3895 1.14576 0.0754496)
(-10.1163 -0.990352 -0.499875)
(-8.35734 0.498825 1.15273)
(-5.44749 -0.742993 0.234131)
(-5.8264 0.54924 1.94273)
(-7.19226 1.05898 1.68373)
(-6.06003 1.11815 0.450605)
(-6.06022 1.25809 0.87183)
(-4.08441 1.00455 1.71662)
(-3.88278 0.597277 2.31117)
(-2.61121 0.121083 2.44258)
(-2.67925 -0.40217 2.23512)
(-1.68449 -1.16398 1.54588)
(-25.3878 3.43 -0.480091)
(-7.17394 6.10693 -1.56206)
(-38.2244 -17.0949 0.839904)
(6.26692 -0.289727 -1.53672)
(-17.5512 3.34717 -2.10119)
(-2.24874 1.21988 -0.385666)
(-10.6396 -1.40287 -1.14165)
(-7.4831 -0.898653 0.176938)
(-5.65472 -1.65514 -0.412152)
(-5.79046 1.16946 0.000384843)
(-6.86922 1.71795 1.60362)
(-6.34066 1.96884 0.407429)
(-5.74012 1.71917 0.533947)
(-3.90366 1.37478 1.14697)
(-3.36362 0.863196 2.40079)
(-1.98852 0.226323 2.88311)
(-1.98203 -0.521827 2.80621)
(-2.34941 -1.67885 1.50456)
(-29.7558 5.18432 -0.499132)
(-1.46056 8.24388 -1.06945)
(-37.1578 -18.4841 3.02738)
(-2.26451 -0.950188 -0.95395)
(-18.9548 1.78134 -3.68369)
(-0.676925 -1.81832 -1.28433)
(-9.99896 -0.347602 -1.09853)
(-7.67174 -1.67203 0.0577657)
(-7.12776 -2.80489 -0.182057)
(-5.81993 0.600856 -0.916811)
(-6.67074 2.10494 0.721899)
(-6.50154 2.35575 0.371307)
(-5.49469 1.90169 -0.403417)
(-3.93532 1.4631 0.444235)
(-3.44122 1.15798 1.86617)
(-2.36042 0.398801 2.43362)
(-1.75152 -0.431536 2.9299)
(-2.63549 -1.64062 1.60032)
(-31.8721 7.14053 -0.442596)
(6.65434 10.7875 -0.481745)
(-33.8325 -19.1538 4.0704)
(-8.36449 -3.45851 0.735547)
(-15.9316 -1.26043 -4.5833)
(-6.63811 -2.69463 -4.70547)
(-8.71483 -0.1785 -0.735395)
(-6.3345 -2.20962 -1.27291)
(-7.61876 -3.38192 -0.67684)
(-6.48762 -0.662597 -1.15482)
(-6.29645 2.00242 -0.274919)
(-6.84669 2.59935 -0.0785341)
(-5.33287 2.01531 -1.06014)
(-3.96579 1.74673 -0.434714)
(-3.70087 1.69369 1.63968)
(-2.97881 0.818925 2.79338)
(-2.33701 -0.439095 3.07582)
(-2.87009 -1.56849 1.64865)
(-32.9084 8.78262 -0.351854)
(13.756 11.4052 0.236722)
(-27.6491 -17.1118 5.11231)
(-10.1659 -6.77071 3.2891)
(-11.8878 -3.87249 -4.71966)
(-5.0081 -4.31262 -5.18617)
(-7.20463 -2.53993 -1.30664)
(-2.14568 -1.96132 -1.9557)
(-7.01124 -3.11245 -0.930288)
(-7.5931 -1.60435 -1.98)
(-6.09784 1.37105 -1.27192)
(-7.19216 2.69594 -1.13908)
(-5.21348 2.06956 -1.85438)
(-3.84283 2.05917 -1.4183)
(-3.91067 2.37044 1.69449)
(-3.73997 1.47692 3.40461)
(-3.46004 -0.13089 3.60858)
(-2.99796 -1.22032 1.73363)
(-34.2944 9.54294 -0.290563)
(26.2086 13.6438 0.310714)
(-19.2501 -12.8576 5.01654)
(-8.815 -6.67294 5.09148)
(-11.9613 -4.84369 -0.834676)
(-2.37513 -4.13051 -5.24532)
(-7.16526 -3.4764 -1.50363)
(0.174848 -2.93554 -2.22435)
(-4.77081 -2.43614 -0.71171)
(-7.29484 -2.07671 -2.15962)
(-6.1341 0.620993 -2.453)
(-6.49545 2.67182 -2.24604)
(-5.44702 2.00189 -3.33337)
(-3.71191 2.25803 -2.52562)
(-3.73014 3.05206 1.24304)
(-4.05217 2.31867 3.39332)
(-4.01841 0.631971 4.17454)
(-3.23526 -0.510432 1.94386)
(-36.0794 9.271 -0.216214)
(35.6577 13.0319 0.570618)
(-11.6027 -8.61573 4.62391)
(-4.2019 -6.08984 3.11053)
(-12.2931 -4.6496 2.75428)
(-1.68522 -3.0511 -2.31599)
(-6.88894 -2.20331 -0.730553)
(-1.40154 -3.03246 0.186375)
(-2.847 -1.95983 -0.0370364)
(-5.69608 -2.23155 -1.05385)
(-5.82346 -0.853892 -2.58408)
(-4.65314 1.94375 -2.71085)
(-5.02218 1.44804 -4.305)
(-4.13782 1.98111 -4.0354)
(-3.55362 3.58737 -0.333496)
(-3.89015 3.1671 2.44208)
(-4.01078 1.74936 3.98043)
(-3.5028 0.718118 2.6184)
(-37.8976 8.3959 -0.0360093)
(39.2094 10.6809 0.763739)
(-7.26978 -5.12102 3.92534)
(0.654455 -4.15462 1.44765)
(-11.1598 -3.68441 3.67258)
(-3.17243 -1.44402 1.61398)
(-6.83692 -1.17808 1.48997)
(-4.0319 -2.08626 4.23762)
(-2.83173 -1.64546 1.10272)
(-3.64787 -2.00338 0.685273)
(-5.05355 -1.94867 -1.19632)
(-4.14785 0.149485 -2.56377)
(-3.86418 1.0532 -3.94371)
(-4.91281 1.51019 -5.04074)
(-4.04782 3.89669 -2.61088)
(-3.34331 3.9428 0.736313)
(-3.80132 3.02793 2.92805)
(-3.50394 2.34869 3.50313)
(-39.3825 7.40337 0.295506)
(40.2279 7.96697 1.43294)
(-3.00917 -1.86031 3.25491)
(3.87602 -2.47399 0.00560452)
(-10.1332 -2.0348 3.57587)
(-2.96168 0.927899 4.38664)
(-5.966 0.711704 2.89811)
(-4.59267 -2.30912 5.14618)
(-5.25853 -1.78081 3.7103)
(-1.17288 -1.75149 2.54632)
(-3.1309 -1.98589 0.564237)
(-3.64245 -1.52813 -1.27643)
(-3.44807 -0.182732 -3.07879)
(-4.57501 0.877537 -5.40595)
(-4.88883 3.26281 -5.06629)
(-3.17159 4.28606 -1.70014)
(-3.28826 4.15077 1.15953)
(-3.22359 3.68585 3.44098)
(-40.4552 6.57082 0.690971)
(40.6433 6.45599 1.27999)
(1.0696 1.20256 2.01906)
(7.23661 0.299593 -1.52607)
(-8.35425 -0.392516 2.13157)
(-0.587579 1.73009 4.13185)
(-2.97488 1.20121 3.58676)
(-1.05896 -2.89945 4.26404)
(-2.82169 -4.30832 5.04183)
(-0.806233 -2.22517 5.17795)
(0.228886 -0.873295 2.37914)
(-1.49556 -1.74535 0.490654)
(-2.90569 -1.47681 -0.930009)
(-3.36007 -0.000897012 -4.26682)
(-4.99124 2.47134 -6.52582)
(-4.00714 4.00976 -4.78075)
(-2.75164 4.7402 -1.49349)
(-2.71708 4.81267 1.3902)
(-41.0668 6.12308 1.05994)
(41.3127 5.78607 3.08267)
(2.86461 3.22015 1.16128)
(8.14515 2.72346 -2.85655)
(-8.23536 1.56337 1.27011)
(1.73167 2.56643 2.01789)
(0.578309 1.25266 3.43714)
(3.28407 -2.07576 4.26166)
(2.49142 -5.39916 3.18677)
(0.391931 -5.67821 4.48659)
(1.36808 -0.847829 4.79352)
(2.67525 -0.0826556 1.96506)
(0.190892 -1.81087 1.36088)
(-1.4079 -1.81454 -0.876332)
(-2.60091 0.837009 -5.22744)
(-3.85435 3.41736 -6.84662)
(-2.99387 4.80304 -4.36377)
(-2.04112 5.45042 -0.782106)
(-41.3226 5.97267 1.38781)
(41.4911 5.17804 2.9285)
(6.33547 6.38863 2.01636)
(10.1728 5.44952 -3.02761)
(-8.57578 2.33173 1.41672)
(3.11124 4.47307 7.78019)
(5.85405 3.89962 9.65217)
(6.89924 0.862178 7.30254)
(5.6736 -3.47977 4.05849)
(4.71688 -6.18465 2.2127)
(3.12771 -3.61345 3.57675)
(3.8523 0.04591 3.70667)
(3.7667 0.0230188 2.06163)
(1.58873 -2.0767 1.6721)
(0.711676 -1.63042 -1.23387)
(-0.606071 1.53442 -5.21424)
(-1.59387 4.08383 -6.75461)
(-1.51704 5.50125 -4.66416)
(-41.0549 6.17412 1.56591)
(40.2735 4.89753 1.05205)
(14.9692 8.34391 -2.16456)
(20.8465 9.45261 -4.35026)
(-1.46637 5.60513 -2.86557)
(-0.829866 0.534785 8.56862)
(4.15215 3.07925 11.5545)
(7.66353 2.83196 6.21708)
(9.50605 -1.79264 3.403)
(9.22248 -5.52578 2.4445)
(8.26577 -5.46557 0.978515)
(6.82965 -2.46583 2.26677)
(5.86099 0.00939976 2.91555)
(4.78059 -0.86152 1.32092)
(4.10154 -2.73033 0.765911)
(3.07814 -1.44693 -1.46354)
(1.56943 1.83506 -4.99748)
(-0.357866 4.82357 -6.68647)
(-40.1366 6.32027 1.14762)
(38.6678 4.53966 0.893374)
(14.0193 6.54896 -0.0962855)
(25.3069 11.3258 0.345192)
(21.3695 12.5465 -0.879369)
(10.441 9.62931 2.25149)
(8.99339 8.69903 4.06261)
(13.3259 5.7655 -0.245307)
(15.6624 -0.0155232 -1.2843)
(14.7833 -3.55909 1.1089)
(13.3009 -4.9821 1.00094)
(11.1506 -3.94002 -0.0924884)
(9.00247 -1.52307 0.704462)
(7.97885 -1.70883 -0.0138854)
(6.78746 -2.54247 -0.964686)
(5.02971 -1.48358 0.315568)
(3.76472 0.598692 -1.39265)
(1.35406 3.15943 -4.72719)
(-39.7919 5.31681 0.492087)
(38.181 2.30826 -1.05685)
(9.66479 -0.306138 -1.38125)
(17.1025 3.3086 0.340725)
(21.6105 5.83908 1.76558)
(20.5229 7.34441 3.01735)
(19.7253 7.4898 0.940183)
(21.0931 4.34813 -2.43831)
(20.6609 0.153643 -1.74557)
(18.1165 -2.14837 0.885777)
(14.7646 -2.87307 0.83877)
(10.4413 -3.5037 -1.96089)
(8.80574 -4.42963 -3.5091)
(9.32933 -4.67478 -2.8614)
(7.77238 -3.63114 -2.32126)
(6.13479 -2.30863 -1.69842)
(5.8477 -0.191717 -0.130395)
(4.04115 2.41957 -0.512931)
(-39.9979 2.99562 -0.0726956)
(38.0593 -4.73117 0.731917)
(-7.35759 -0.691148 -1.61225)
(12.1151 -3.42941 -2.97035)
(9.47987 -3.3739 -0.994429)
(12.2945 0.913632 0.149005)
(14.3405 3.24849 -0.762872)
(13.9752 2.16886 -0.366831)
(10.9575 -0.591135 0.513355)
(9.49895 -1.10256 -0.184916)
(7.29386 -0.609664 -2.54963)
(3.46144 -2.33295 -4.60574)
(3.02103 -3.09875 -3.24642)
(4.65677 -1.17904 0.0754272)
(4.74207 -0.492691 1.76265)
(4.42881 -1.00956 1.6938)
(4.86662 -0.521984 1.62255)
(5.3755 1.31051 1.66686)
(-40.5674 0.616955 -0.272871)
(37.3663 -8.50864 2.00367)
(22.5332 -3.87166 0.646067)
(20.746 -2.76256 -1.91626)
(12.8755 -3.16869 -2.11671)
(5.68802 -0.981213 -1.71473)
(2.13096 -0.445747 -2.82832)
(1.95765 -0.246573 -4.41608)
(0.149862 -1.29518 -2.78509)
(1.819 0.197319 0.791537)
(1.32134 0.288617 2.54889)
(1.22661 -0.191311 4.1081)
(0.974909 -0.368864 3.49718)
(1.90542 -1.54418 1.19767)
(2.34458 -2.71294 -0.660615)
(2.23893 -2.96443 -1.88983)
(1.94418 -2.59496 -2.54481)
(2.18361 -1.94347 -2.62859)
(-38.9241 2.7544 -1.79988)
(39.4437 -0.10404 -4.20545)
(27.5862 -0.490035 -3.8942)
(29.269 0.622384 -1.06592)
(24.7655 0.389008 1.85343)
(17.2179 -0.657629 1.87297)
(12.5766 -0.0492991 -1.58084)
(10.8859 1.89149 -3.9874)
(7.7879 1.87656 -4.61806)
(6.45353 0.550926 -3.43899)
(6.3103 -0.356448 -1.43843)
(6.34338 -0.980225 0.790741)
(6.20561 -0.950197 2.26842)
(6.17455 -0.249083 2.73895)
(5.71714 0.399461 2.1019)
(4.53315 0.48169 0.432331)
(2.86399 -0.174627 -1.08318)
(1.47574 -1.25917 -2.00397)
(-38.773 5.98731 -0.0773809)
(37.2309 10.8334 -2.72478)
(22.3404 5.31916 0.99024)
(19.5427 2.22339 2.76044)
(7.92944 -0.806577 2.92295)
(4.70233 -4.11956 0.414493)
(-0.0689222 -1.96642 2.90945)
(2.36834 0.690508 2.96893)
(2.336 1.21605 2.85009)
(2.51723 1.68162 3.24555)
(1.81802 1.74466 3.68139)
(1.04279 0.690133 4.20082)
(0.890764 -0.657335 4.39314)
(1.34794 -1.56166 4.04669)
(2.05075 -1.42728 3.31242)
(2.97108 -0.436465 2.24026)
(3.12952 0.141804 0.481074)
(2.33933 -0.0794625 -1.28276)
(-37.2938 4.4498 0.196271)
(36.0342 11.0569 -1.52868)
(13.9847 5.30458 1.61766)
(14.7491 3.5359 0.373804)
(8.29929 3.43998 -2.6014)
(4.89705 -0.678718 -1.37989)
(-1.60396 0.0595156 1.03172)
(1.62371 1.07759 2.54174)
(0.0711619 1.92663 3.08269)
(1.04813 2.57624 3.4047)
(0.769493 2.05171 3.14611)
(0.827414 1.48162 2.3784)
(1.36636 0.693027 2.65664)
(1.26781 -0.709368 4.42142)
(0.460896 -2.17541 3.73349)
(0.131793 -1.64626 1.92938)
(0.753402 -0.0728539 0.13715)
(0.963456 0.187121 -0.970051)
(-37.9783 1.95022 0.28398)
(36.7101 8.03827 0.196034)
(8.25444 4.2587 2.80548)
(11.5952 2.03642 1.49542)
(7.60117 3.27934 -1.41001)
(4.61082 0.0665909 -0.429617)
(-0.41887 -0.58619 0.401876)
(0.833808 -0.312933 0.127614)
(0.0900455 2.55581 1.48355)
(0.805001 3.04127 1.60633)
(0.250033 1.72836 1.82055)
(0.559555 0.659858 2.06651)
(1.50815 0.636266 2.9853)
(2.18655 1.88206 4.55045)
(1.56264 1.25968 4.86101)
(0.877193 -1.36208 3.8143)
(0.99288 -1.23859 2.05809)
(1.44829 -0.320833 0.451459)
(-38.6819 -0.399906 0.29591)
(37.7161 1.65002 0.299207)
(6.8608 4.63712 2.07949)
(11.3224 2.83284 1.72774)
(7.188 3.39476 -0.908433)
(4.67431 1.22863 -1.42442)
(1.00995 -0.0631605 -0.601571)
(0.0877958 -0.669261 -0.829895)
(-0.732389 1.00244 -0.522726)
(0.0569503 1.30117 -0.433437)
(-1.1789 0.937155 0.0112379)
(-0.48814 0.554711 0.621553)
(-0.466396 -0.687941 2.21733)
(0.799734 0.577902 4.24711)
(1.22956 0.559356 5.09574)
(1.78559 -0.678693 4.57681)
(1.08365 -0.596753 2.34622)
(0.57717 0.679699 0.345029)
(-38.2343 -2.6361 0.131731)
(37.888 -5.29219 -1.73817)
(7.91011 3.61675 0.757492)
(11.3907 3.74907 1.50757)
(8.09943 4.06933 -0.449285)
(6.03492 2.58914 -1.22358)
(2.57193 1.26445 -0.502362)
(1.06965 0.105845 0.268647)
(-0.868128 -0.0306501 -1.87794)
(-0.996654 1.08605 -1.92735)
(-2.0336 1.21326 -1.61862)
(-1.49205 -0.346808 -1.51762)
(-1.66927 -0.641396 -0.191141)
(-0.527249 -0.14914 2.41584)
(0.455208 -0.400068 3.18955)
(0.386663 0.212174 2.43429)
(-0.300965 1.30165 0.982045)
(-0.326597 1.15227 0.0965679)
(-37.2472 -4.62297 -0.269079)
(37.854 -8.47184 -3.89514)
(8.83774 3.01487 0.101553)
(10.5575 4.37867 1.2736)
(8.42486 3.79106 -0.180831)
(7.03883 3.1193 -0.719154)
(4.11578 2.36816 -0.477837)
(2.03678 1.33158 1.09474)
(1.74704 1.36734 -0.237179)
(0.509138 0.917016 -1.90469)
(-1.15018 0.586177 -2.41059)
(-1.0861 -0.157855 -2.84644)
(-1.94108 -0.251357 -1.86641)
(-1.70385 0.613132 -0.129712)
(-1.43371 1.17413 0.478846)
(-1.16348 1.33708 0.25143)
(-0.816883 1.21595 -0.0775905)
(-0.0901306 0.47839 -0.308611)
(-36.8233 -6.03973 -0.895999)
(38.2336 -8.33669 -5.34601)
(11.1843 2.5224 0.0746304)
(9.51691 4.63091 1.4298)
(7.00962 3.95006 -0.164553)
(6.16115 3.56227 -0.298564)
(3.56184 2.9014 -0.667542)
(2.76718 1.17717 1.03712)
(2.43746 0.722984 1.41419)
(3.09216 1.44504 0.247684)
(3.07204 1.60169 -0.845175)
(2.77111 0.642176 -2.36372)
(1.39405 0.602133 -3.29524)
(0.903012 0.513559 -2.59539)
(0.71185 0.234178 -1.56193)
(0.801652 0.0569784 -1.07415)
(1.1512 -0.448532 -1.15127)
(1.39554 -1.36745 -1.40298)
(-37.2704 -6.52421 -1.80518)
(38.6144 -4.84312 -6.20241)
(8.72389 3.1827 1.36964)
(6.42101 3.67973 2.08408)
(4.96098 2.19019 0.625192)
(6.25014 2.7288 0.391443)
(5.29144 2.96181 0.129632)
(4.72111 1.65896 1.08)
(2.39887 0.203094 2.33082)
(2.73708 -0.180556 2.24813)
(3.87596 -0.117562 0.939436)
(4.4747 -0.0283737 -0.681084)
(4.16365 0.125481 -2.16817)
(3.86172 0.347931 -2.60687)
(4.56479 0.275899 -1.73351)
(5.96145 -0.405773 -0.99551)
(6.98831 -1.595 -1.40562)
(6.58845 -3.22955 -2.40395)
(-38.0127 -6.2306 -3.3863)
(37.549 -1.31171 -7.47055)
(21.0309 4.54274 0.72259)
(9.58529 2.82369 2.86465)
(2.38302 -0.777908 0.631035)
(3.48342 0.903115 1.25166)
(2.39686 2.60712 -0.200244)
(2.79012 1.92832 -0.096654)
(1.26714 0.890936 1.28875)
(1.68905 0.765386 2.04433)
(1.71113 1.04388 2.55181)
(1.86523 0.961524 3.25392)
(2.23877 1.07735 3.36834)
(3.09726 1.20482 3.16826)
(4.72946 0.693096 3.05045)
(7.44038 -0.152049 2.34074)
(11.3659 -0.820405 0.790921)
(13.6174 -2.17159 -1.28225)
(-32.1333 -4.51679 -6.21321)
(34.8798 0.170555 -12.7341)