/*--------------------------------*- C++ -*----------------------------------*\
| =========                 |                                                 |
| \\      /  F ield         | OpenFOAM: The Open Source CFD Toolbox           |
|  \\    /   O peration     | Version:  2112                                  |
|   \\  /    A nd           | Website:  www.openfoam.com                      |
|    \\/     M anipulation  |                                                 |
\*---------------------------------------------------------------------------*/
FoamFile
{
    version     2.0;
    format      ascii;
    arch        "LSB;label=32;scalar=64";
    class       volScalarField;
    location    "0.23";
    object      kU;
}
// * * * * * * * * * * * * * * * * * * * * * * * * * * * * * * * * * * * * * //

dimensions      [0 2 -2 0 0 0 0];

internalField   nonuniform List<scalar> 
12225
(
0.173142
0.196839
0.188722
0.174678
0.165131
0.157318
0.150737
0.145344
0.141172
0.138253
0.136606
0.136112
0.136598
0.138177
0.140943
0.145025
0.150745
0.158573
0.0262574
0.0156949
0.0100261
0.00728935
0.00593231
0.0051388
0.00457868
0.00412253
0.00371694
0.0033377
0.00298216
0.00274669
0.00269041
0.00271003
0.00277688
0.00288669
0.00304932
0.00329402
0.0325918
0.0270154
0.0223293
0.0186418
0.0157846
0.0135724
0.0118563
0.010526
0.0095015
0.00872762
0.00818568
0.00779836
0.00752995
0.00735858
0.00727306
0.00727264
0.00736892
0.00759441
0.0344791
0.0310906
0.0279374
0.0251609
0.0227784
0.0207617
0.0190669
0.0176492
0.01647
0.015506
0.0146966
0.0140218
0.0134654
0.0130157
0.012666
0.0124157
0.0122725
0.0122555
0.0351014
0.0325507
0.0301245
0.0278988
0.0259009
0.0241322
0.0225806
0.0212286
0.0200614
0.0190471
0.0181676
0.017408
0.0167568
0.0162053
0.0157485
0.0153856
0.0151204
0.0149627
0.0353334
0.0331579
0.0311121
0.0292186
0.027489
0.0259253
0.0245228
0.0232746
0.0221633
0.0211768
0.0203035
0.0195336
0.0188589
0.0182732
0.0177726
0.017356
0.0170247
0.0167825
0.0354175
0.0334097
0.0315627
0.0298659
0.0283134
0.0268999
0.0256198
0.0244625
0.023419
0.0224803
0.0216382
0.0208855
0.0202159
0.0196247
0.0191084
0.0186653
0.0182945
0.0179966
0.0354457
0.0335064
0.0317548
0.0301649
0.0287192
0.0274048
0.0262099
0.0251245
0.0241396
0.0232472
0.0224399
0.0217116
0.0210569
0.0204714
0.0199519
0.0194958
0.0191009
0.0187662
0.0354543
0.0335399
0.0318283
0.0302894
0.0289
0.0276419
0.0265004
0.0254636
0.0245212
0.0236645
0.0228864
0.0221803
0.0215412
0.0209645
0.0204466
0.0199843
0.0195746
0.0192159
0.0354567
0.0335501
0.0318529
0.0303346
0.0289703
0.0277398
0.0266267
0.0256174
0.0247005
0.0238667
0.0231079
0.0224175
0.0217898
0.0212201
0.0207041
0.0202382
0.0198189
0.0194447
0.0354573
0.0335528
0.0318598
0.0303484
0.0289933
0.0277739
0.0266731
0.0256765
0.024772
0.0239498
0.0232011
0.022519
0.0218974
0.0213309
0.0208152
0.0203459
0.0199194
0.0195346
0.0354575
0.0335533
0.0318611
0.0303511
0.0289984
0.0277821
0.0266849
0.0256922
0.0247919
0.0239735
0.0232282
0.0225486
0.0219283
0.0213617
0.0208442
0.0203711
0.0199387
0.0195461
0.0354575
0.0335533
0.031861
0.0303511
0.0289985
0.0277826
0.026686
0.025694
0.0247943
0.0239764
0.0232312
0.0225513
0.0219299
0.0213614
0.0208407
0.0203633
0.0199252
0.0195259
0.0354575
0.0335532
0.0318606
0.03035
0.0289968
0.0277801
0.0266826
0.0256897
0.0247888
0.0239694
0.0232225
0.0225403
0.0219161
0.021344
0.020819
0.0203364
0.0198922
0.0194862
0.0354575
0.0335531
0.03186
0.0303488
0.0289945
0.0277765
0.0266775
0.0256827
0.0247797
0.0239578
0.023208
0.0225225
0.0218944
0.0213179
0.0207878
0.0202995
0.0198491
0.0194365
0.0354576
0.033553
0.0318595
0.0303474
0.028992
0.0277726
0.0266717
0.0256746
0.024769
0.0239442
0.023191
0.0225016
0.0218692
0.0212879
0.0207525
0.0202584
0.0198019
0.019383
0.0354576
0.0335529
0.031859
0.0303462
0.0289895
0.0277685
0.0266656
0.0256661
0.0247577
0.0239297
0.0231729
0.0224795
0.0218427
0.0212566
0.020716
0.0202165
0.0197542
0.0193294
0.0354577
0.0335529
0.0318586
0.0303449
0.0289871
0.0277644
0.0266594
0.0256576
0.0247463
0.0239151
0.0231548
0.0224575
0.0218165
0.0212259
0.0206806
0.020176
0.0197086
0.0192787
0.0354577
0.0335528
0.0318581
0.0303437
0.0289847
0.0277605
0.0266536
0.0256494
0.0247356
0.0239014
0.0231379
0.0224371
0.0217924
0.021198
0.0206486
0.02014
0.0196684
0.0192343
0.0354577
0.0335527
0.0318578
0.0303429
0.0289832
0.027758
0.0266499
0.0256442
0.0247285
0.0238923
0.0231266
0.0224234
0.0217762
0.021179
0.0206268
0.0201152
0.0196405
0.0192034
0.0354577
0.0335527
0.0318577
0.0303426
0.0289825
0.0277566
0.0266477
0.0256409
0.0247239
0.0238861
0.0231185
0.0224132
0.0217636
0.0211638
0.0206088
0.0200941
0.0196161
0.0191755
0.0354577
0.0335526
0.0318575
0.0303419
0.0289811
0.027754
0.0266431
0.0256339
0.0247137
0.0238721
0.0230999
0.0223894
0.021734
0.0211277
0.0205656
0.0200433
0.0195573
0.0191084
0.0354575
0.0335518
0.0318551
0.0303366
0.028971
0.0277372
0.0266177
0.0255978
0.0246651
0.0238093
0.0230215
0.0222941
0.0216207
0.0209956
0.020414
0.0198719
0.0193658
0.0188969
0.035456
0.0335448
0.031837
0.0303012
0.0289118
0.0276486
0.0264951
0.0254375
0.0244647
0.023567
0.0227364
0.0219659
0.0212496
0.0205823
0.0199595
0.0193775
0.018833
0.0183274
0.0354451
0.0335017
0.0317398
0.0301318
0.0286577
0.0273024
0.026054
0.0249021
0.0238374
0.0228518
0.021938
0.0210894
0.0203001
0.019565
0.0188796
0.01824
0.0176427
0.0170889
0.0353845
0.0332996
0.0313451
0.0295213
0.0278286
0.0262649
0.0248249
0.0235006
0.0222831
0.0211631
0.0201315
0.0191799
0.0183007
0.0174874
0.0167343
0.0160364
0.0153896
0.0147934
0.0351151
0.0325397
0.0300419
0.0277056
0.025566
0.0236299
0.0218879
0.0203226
0.0189147
0.0176455
0.0164977
0.0154564
0.0145086
0.0136439
0.0128535
0.0121301
0.0114679
0.0108636
0.0340407
0.0298099
0.0258168
0.0223335
0.0193838
0.0169069
0.0148222
0.0130557
0.0115468
0.0102485
0.00912397
0.00814444
0.00728721
0.00653492
0.00587413
0.00529403
0.00478558
0.00434099
0.029997
0.0201909
0.0132891
0.00931467
0.00715764
0.00595703
0.00523745
0.00476278
0.0044178
0.00414584
0.0039259
0.00376789
0.00364061
0.00352367
0.0034065
0.00328434
0.00315525
0.0030207
0.146323
0.179677
0.180712
0.171955
0.160726
0.149263
0.138175
0.1276
0.117556
0.108028
0.0994097
0.0932666
0.087749
0.0824428
0.0772731
0.0722514
0.0674029
0.0627848
0.00572157
0.0074922
0.00910861
0.00976507
0.00955861
0.00884081
0.00819771
0.00767495
0.00721441
0.00682245
0.00651474
0.00629743
0.00616098
0.00608188
0.00603907
0.00601948
0.00601673
0.00603586
0.00609997
0.00624918
0.00655367
0.00712389
0.00817602
0.00989969
0.0121446
0.0149731
0.018405
0.0225189
0.0274002
0.0331307
0.0397802
0.0473945
0.0559774
0.0654589
0.0756822
0.0863727
0.0967845
0.104865
0.106972
0.102495
0.0913984
0.0747471
0.0552023
0.0366594
0.0225761
0.0141693
0.00968756
0.00715229
0.005492
0.00452646
0.00454878
0.00518264
0.00520084
0.00472412
0.00434539
0.00488202
0.00684554
0.00984177
0.0135516
0.0169922
0.0182524
0.0177857
0.0171022
0.0169255
0.0173875
0.0173636
0.0158408
0.0139627
0.0163472
0.0319943
0.0547177
0.0793909
0.103579
0.125615
0.14445
0.159527
0.170641
0.177837
0.181317
0.181386
0.178404
0.172764
0.165052
0.156145
0.146227
0.135485
0.124106
0.112281
0.100214
0.0881254
0.076254
0.0648501
0.0541634
0.0444221
0.0358096
0.028445
0.0223742
0.0175743
0.0139848
0.0107494
0.00790883
0.00572184
0.00510677
0.00691242
0.00931523
0.0119334
0.0147499
0.0184232
0.0226997
0.0272619
0.0318853
0.0363877
0.0406205
0.0444682
0.0478475
0.0506957
0.0529873
0.0547023
0.0554941
0.0552829
0.0541727
0.0522726
0.049702
0.046589
0.0430667
0.0392723
0.0353511
0.0314593
0.0277601
0.0244087
0.0215273
0.0191856
0.0174482
0.0164004
0.0156873
0.0151383
0.0146657
0.0142186
0.0137718
0.01332
0.0128718
0.0124432
0.012053
0.0117218
0.0114729
0.0113337
0.0113095
0.0114026
0.011635
0.0120013
0.0124821
0.0130504
0.0136816
0.0143552
0.0150524
0.0157528
0.0164252
0.0170084
0.0174239
0.0176729
0.0179504
0.0185128
0.0188582
0.017215
0.0124555
0.0178824
0.0438867
0.0690892
0.085833
0.0913311
0.0861638
0.0727203
0.0563352
0.0396885
0.0255873
0.0162472
0.00870594
0.00340242
0.00566451
0.0111865
0.0163273
0.0030973
0.00256115
0.0017133
0.00101804
0.00101753
0.00129192
0.00159129
0.00192279
0.00230082
0.00272558
0.00320542
0.00374684
0.00435637
0.00504013
0.00579475
0.00656894
0.00733681
0.00807518
0.00876184
0.00937471
0.00989607
0.0103101
0.010599
0.0107418
0.0107195
0.0105433
0.0102297
0.00979169
0.00924417
0.00860698
0.0079062
0.00717381
0.00644912
0.00578696
0.00528988
0.00519952
0.00615741
0.00968636
0.0139647
0.0172181
0.0184293
0.0173532
0.0145802
0.011087
0.00767602
0.00490477
0.00311842
0.00220058
0.00171083
0.00130588
0.000834359
0.000382457
0.000215816
0.000225612
0.000269937
0.000334488
0.000418233
0.00054997
0.000814759
0.00136044
0.00163293
0.00155733
0.00186272
0.00305237
0.00531919
0.00780864
0.00955869
0.0118953
0.0150127
0.0175778
0.0189591
0.0190874
0.0181527
0.016466
0.0143642
0.0121554
0.0100943
0.00837354
0.00711992
0.00640446
0.00629221
0.00670358
0.00711996
0.00754054
0.00796386
0.00838751
0.00880836
0.0092228
0.00962685
0.0100161
0.0103854
0.0107282
0.0110355
0.0112956
0.0114932
0.0116105
0.011628
0.0115241
0.0112649
0.0108316
0.0102139
0.00945743
0.00878409
0.00811645
0.00744866
0.00678548
0.00613773
0.00550903
0.00490254
0.00432282
0.00377581
0.00326838
0.00280756
0.00239941
0.00204772
0.00175439
0.00153426
0.00154152
0.00172622
0.00196973
0.00220481
0.00239651
0.00252846
0.00259377
0.00259015
0.00251808
0.00238113
0.00218766
0.00195226
0.00169506
0.0014387
0.00120527
0.00101165
0.000862091
0.000755681
0.000686548
0.000644639
0.000618359
0.000597485
0.000574913
0.00054676
0.000511235
0.000467183
0.000413368
0.000350337
0.000296258
0.000267815
0.00025302
0.000245797
0.000243561
0.000245207
0.000249937
0.000257162
0.00026643
0.000277432
0.000290247
0.000305806
0.000327225
0.000364944
0.000451793
0.000682023
0.00137867
0.00304354
0.00469747
0.00679452
0.00889529
0.00835841
0.00591923
0.00313819
0.0013256
0.00114632
0.00104565
0.000983115
0.000962665
0.000972331
0.0009518
0.000821429
0.000705261
0.000633255
0.0277114
0.00186174
0.00127524
0.000922362
0.00114485
0.00180209
0.00252872
0.00323751
0.00395585
0.004701
0.00548143
0.00630214
0.00716585
0.00806693
0.00899352
0.00992541
0.010823
0.0116588
0.0124159
0.0130809
0.0136425
0.0140907
0.0144161
0.0146083
0.0146545
0.0145353
0.0142209
0.0137271
0.013081
0.012302
0.0114121
0.0104419
0.00942793
0.00841101
0.00742981
0.00651504
0.00568825
0.00497051
0.00442487
0.00433665
0.00500625
0.00595097
0.00660406
0.00665632
0.00612151
0.00517748
0.00405175
0.00296109
0.00205819
0.00138559
0.000884079
0.000506929
0.000274261
0.000182659
0.000179344
0.00021959
0.000283125
0.000350221
0.000399376
0.000441022
0.000545616
0.000853867
0.00153872
0.00273158
0.00405789
0.00492485
0.00559255
0.00609007
0.00652684
0.00676012
0.00662735
0.0062461
0.00583059
0.00555716
0.00550656
0.00566044
0.00593837
0.00625321
0.00655016
0.00681114
0.00703931
0.00724384
0.00745821
0.00768475
0.00792282
0.0081724
0.00843421
0.00870972
0.0090008
0.00930919
0.00963569
0.00997902
0.0103346
0.0106932
0.0110403
0.0113557
0.0116146
0.0117899
0.0118553
0.0117883
0.0115731
0.0111931
0.0106947
0.0101793
0.00962489
0.00904863
0.00846554
0.00788704
0.00732153
0.00677513
0.0062522
0.00575556
0.00528687
0.00484685
0.00443549
0.00405217
0.00369578
0.0033648
0.00305624
0.00275753
0.00246276
0.00217059
0.00188301
0.00160656
0.00135037
0.00112293
0.000928935
0.000767994
0.000635623
0.00052579
0.000433374
0.000355276
0.000290116
0.000237176
0.000195483
0.00016364
0.00013992
0.000122466
0.000109495
9.94551e-05
9.11118e-05
8.35748e-05
7.62484e-05
6.87596e-05
6.09454e-05
5.29734e-05
4.54819e-05
3.89451e-05
3.35478e-05
2.97263e-05
2.74649e-05
2.64009e-05
2.64503e-05
2.77192e-05
3.04127e-05
3.47221e-05
4.07811e-05
4.90785e-05
6.19651e-05
8.75908e-05
0.000152176
0.000338755
0.000877913
0.00190642
0.00249083
0.00264187
0.00218548
0.00131407
0.000723962
0.00055752
0.000580457
0.000622363
0.000677015
0.000743472
0.000816607
0.000884183
0.000924269
0.000908617
0.000858322
0.000803351
0.0377179
0.00137135
0.000978529
0.00129386
0.00241669
0.00368429
0.00469958
0.00562222
0.00652164
0.00742799
0.00835969
0.00932119
0.0103063
0.0112998
0.0122791
0.013217
0.0140719
0.0148255
0.0154697
0.0159992
0.0164096
0.0166954
0.0168497
0.0168637
0.0167263
0.0164224
0.0159299
0.0152148
0.0143056
0.0132585
0.0121004
0.0108696
0.0096059
0.00835809
0.00717695
0.00610539
0.0051716
0.00438762
0.00375226
0.00326479
0.00296215
0.00297688
0.00319928
0.00343762
0.00351708
0.00336806
0.00301358
0.0025222
0.00197295
0.00143914
0.000976473
0.000622021
0.000391802
0.000270385
0.000229614
0.000253385
0.000324971
0.000426754
0.000530551
0.000647937
0.000937049
0.00156322
0.00244173
0.00307144
0.00344668
0.00368031
0.00382243
0.00388912
0.00391178
0.00390885
0.00394043
0.00408495
0.00435918
0.00471263
0.00506742
0.00536331
0.00557981
0.00573047
0.00584237
0.00593857
0.00603244
0.00614043
0.00626765
0.00641105
0.00656822
0.00673824
0.00692198
0.00712231
0.00734382
0.00759224
0.00787337
0.00819165
0.0085483
0.00893937
0.00935393
0.00977304
0.0101702
0.0105127
0.0107682
0.0109056
0.0108999
0.0107303
0.0104581
0.0101112
0.00970328
0.00925315
0.00877683
0.00828731
0.00779491
0.00730767
0.00683174
0.00637169
0.00593079
0.00551125
0.00511443
0.00474098
0.004391
0.00406417
0.00375969
0.00347501
0.00320407
0.00294427
0.00269249
0.0024467
0.0022066
0.00197381
0.0017515
0.0015436
0.00135382
0.00118484
0.00103786
0.000912562
0.000807326
0.0007197
0.000646826
0.000585848
0.000534203
0.000489772
0.000450911
0.000416396
0.000385349
0.000357165
0.000331458
0.000308029
0.000286831
0.000267919
0.000251375
0.000237247
0.000225509
0.00021605
0.0002086
0.000202728
0.000197729
0.000192602
0.000186327
0.000178329
0.000168691
0.000158171
0.000149452
0.000151554
0.000194517
0.000358701
0.000787885
0.00130946
0.00133628
0.00106915
0.000662434
0.000419011
0.000393529
0.000431148
0.00044904
0.000476994
0.000521764
0.000583844
0.000660425
0.000740356
0.000798533
0.000806749
0.000780695
0.000743786
0.0452069
0.00119318
0.0011857
0.0025217
0.00449613
0.00603055
0.00722171
0.00832183
0.00936179
0.0103876
0.0114242
0.0124696
0.0135051
0.0145024
0.0154316
0.0162687
0.0169897
0.0175924
0.0180821
0.0184625
0.0187322
0.0188846
0.0189085
0.0187902
0.018515
0.0180688
0.0174371
0.0165962
0.015507
0.0142259
0.0128378
0.011388
0.00990437
0.00843375
0.00703637
0.00577163
0.00468398
0.00379377
0.003096
0.00256812
0.00218807
0.00195761
0.00191932
0.00200739
0.00213336
0.00219667
0.0021433
0.00197058
0.00170291
0.00137776
0.00104293
0.00074793
0.00052612
0.000385452
0.000318099
0.000324351
0.000407102
0.000560338
0.000765293
0.00108669
0.00157863
0.00210398
0.00242536
0.00260816
0.00271853
0.00278641
0.00283859
0.00290799
0.00303107
0.00323052
0.00350577
0.00381917
0.0041076
0.00431867
0.00443526
0.00447459
0.00447097
0.00445758
0.00445705
0.00448081
0.00453189
0.00461789
0.00472472
0.0048472
0.00498139
0.005125
0.00527798
0.00544295
0.00562541
0.00583343
0.00607674
0.00636513
0.00670627
0.007103
0.00755047
0.00803377
0.00852817
0.00899803
0.0094069
0.00971332
0.0098828
0.00990401
0.00981228
0.00962782
0.00936818
0.00905062
0.00869052
0.00830101
0.00789295
0.00747527
0.0070552
0.00663861
0.0062302
0.00583373
0.00545209
0.00508745
0.00474133
0.00441466
0.00410783
0.0038206
0.0035514
0.00329891
0.00306146
0.00283717
0.00262428
0.00242146
0.00222817
0.00204473
0.00187221
0.00171208
0.00156569
0.00143379
0.00131632
0.0012124
0.0011206
0.00103922
0.000966601
0.000901278
0.000842038
0.000787916
0.000738159
0.000692187
0.000649575
0.000610035
0.000573402
0.000539588
0.000508524
0.000480121
0.000454244
0.000430715
0.000409252
0.000389422
0.000370468
0.000351222
0.000330388
0.000307128
0.000281373
0.000253544
0.000225606
0.000208494
0.000234557
0.000376666
0.000688053
0.000875945
0.000731999
0.00048204
0.000309695
0.000287551
0.000318679
0.000327087
0.000331885
0.000353771
0.000393561
0.000453526
0.000533275
0.00062279
0.000693189
0.000716038
0.000705254
0.000677235
0.0513017
0.00125729
0.00209166
0.00458426
0.00702514
0.00874918
0.0101527
0.0113824
0.0125164
0.0136173
0.0146971
0.0157382
0.0167084
0.0175742
0.0183096
0.0189013
0.0193764
0.0197625
0.0200789
0.0203331
0.0205195
0.0206206
0.0206103
0.020459
0.0201397
0.019633
0.0189276
0.0180139
0.0168705
0.0154479
0.0138606
0.0122353
0.0105657
0.00888669
0.0072644
0.00577624
0.00448886
0.00343996
0.00263219
0.00203992
0.00162375
0.00134966
0.00121052
0.00120948
0.00129682
0.00140878
0.00147592
0.00146205
0.00136489
0.00119977
0.000993563
0.000781773
0.000598232
0.000465836
0.000397816
0.000406954
0.000523832
0.000770494
0.00115257
0.00156651
0.00183912
0.00199706
0.00209797
0.00216806
0.00222902
0.00230093
0.00240997
0.00257773
0.00280592
0.00306783
0.00331453
0.00349428
0.0035772
0.00356735
0.00349495
0.00339884
0.00331172
0.00325401
0.00323493
0.0032564
0.00331634
0.00340627
0.00351136
0.0036274
0.00375108
0.00388033
0.00401482
0.00415663
0.00431076
0.00448545
0.00469181
0.00494261
0.00525013
0.00562313
0.00606362
0.00656182
0.00709759
0.00763786
0.00814357
0.00856453
0.00885933
0.00902222
0.00907726
0.00903536
0.0089106
0.00871778
0.0084708
0.00818194
0.00786166
0.00751886
0.00716105
0.00679467
0.00642526
0.00605759
0.00569574
0.00534318
0.00500273
0.00467663
0.00436659
0.00407379
0.00379869
0.00354094
0.00330009
0.00307528
0.0028654
0.00266927
0.00248578
0.0023141
0.00215377
0.00200464
0.00186672
0.00174
0.0016242
0.00151875
0.00142278
0.00133527
0.00125515
0.00118145
0.0011133
0.00104997
0.00099088
0.000935543
0.000883583
0.000834716
0.000788742
0.000745521
0.000704938
0.000666872
0.00063118
0.000597663
0.000566019
0.000535774
0.000506094
0.00047564
0.000442843
0.000406661
0.000367066
0.000324468
0.000281276
0.000249353
0.000261325
0.00037311
0.000566079
0.00058527
0.000419847
0.000265602
0.000219677
0.00024201
0.00025109
0.00024121
0.000241996
0.000260201
0.000296408
0.000354324
0.000435866
0.000531915
0.000608509
0.000643753
0.000645218
0.000624578
0.0578071
0.0016803
0.0038379
0.00719877
0.00983861
0.0117539
0.013305
0.0145912
0.0157321
0.016777
0.0177231
0.0185472
0.019223
0.0197328
0.0200728
0.0202527
0.0203889
0.0205476
0.020747
0.0209839
0.0212351
0.0214605
0.0216059
0.0216111
0.0214214
0.0210004
0.0203354
0.0194304
0.0182867
0.0168753
0.0151515
0.0133977
0.0115818
0.0097154
0.00786545
0.00612827
0.00460181
0.00335377
0.00240268
0.00172162
0.00125847
0.00095858
0.000782471
0.000722349
0.00075925
0.000858907
0.000967861
0.00103492
0.00103761
0.000977924
0.000870053
0.000736075
0.00060287
0.000498224
0.000450433
0.000490071
0.000673897
0.00106686
0.00150772
0.00167318
0.00171587
0.00176241
0.00181411
0.0018753
0.00195921
0.0020825
0.00225637
0.00247317
0.00270144
0.00289527
0.00301357
0.0030385
0.00298159
0.00287494
0.00275565
0.00265298
0.00258324
0.00255169
0.00255699
0.00259495
0.00266114
0.00274301
0.00283326
0.00292898
0.00302793
0.00312893
0.00323231
0.00334046
0.00345841
0.00359437
0.00375964
0.00396776
0.00423278
0.0045658
0.00497437
0.00545349
0.00598445
0.00654719
0.0070946
0.00756485
0.00793125
0.00819882
0.0083661
0.0084387
0.00842682
0.00834246
0.00819745
0.00800255
0.00776715
0.00749937
0.00720629
0.00689421
0.00656884
0.00623541
0.00589869
0.00556304
0.00523233
0.00490993
0.00459867
0.00430106
0.00401883
0.00375249
0.00350266
0.00326943
0.00305248
0.00285116
0.00266466
0.0024921
0.00233262
0.00218548
0.00204996
0.00192538
0.00181103
0.00170608
0.00160965
0.0015208
0.00143863
0.0013623
0.00129108
0.00122432
0.00116149
0.00110214
0.00104592
0.000992543
0.000941799
0.000893536
0.000847632
0.000803973
0.000762415
0.000722742
0.000684624
0.000647523
0.000610491
0.000571978
0.000530134
0.000483811
0.000433101
0.000378609
0.000323318
0.000279356
0.000276263
0.000351767
0.000451126
0.000397074
0.000260116
0.000183378
0.000186825
0.000203399
0.000191998
0.000176242
0.000176025
0.000191934
0.000225335
0.000281253
0.000363772
0.000462763
0.000542329
0.00058935
0.000601132
0.000586871
0.0661752
0.00256734
0.00616225
0.00996042
0.0126588
0.0146268
0.0160892
0.0171674
0.0179884
0.0185998
0.0190189
0.0192562
0.0193282
0.0192616
0.0190923
0.0188609
0.0187515
0.0188349
0.0191077
0.0195465
0.0201084
0.0207285
0.0213192
0.0217764
0.0219969
0.0219055
0.0214745
0.0207182
0.0196649
0.0183264
0.0166338
0.0148024
0.0128932
0.0108762
0.00881148
0.00680879
0.00500159
0.00350267
0.00236408
0.00156675
0.00104437
0.000719578
0.000529343
0.000437709
0.000435038
0.000499326
0.00060241
0.000700099
0.000757208
0.000762719
0.000722145
0.000649097
0.000564305
0.000497546
0.00049043
0.000598287
0.000891484
0.00133746
0.00156935
0.00154682
0.00153514
0.00156471
0.00162127
0.00170641
0.00182968
0.00199648
0.00219716
0.00240278
0.00257319
0.00267373
0.00269026
0.0026336
0.00253235
0.00242017
0.00232395
0.00225813
0.00222618
0.00222513
0.00224941
0.00229299
0.00235428
0.00242398
0.00249892
0.00257622
0.00265366
0.00273002
0.0028055
0.00288233
0.00296553
0.0030637
0.00318919
0.00335654
0.0035814
0.00387321
0.00424139
0.00468893
0.00518612
0.00574234
0.00626135
0.00674027
0.00715495
0.00748818
0.00773268
0.00788953
0.00796523
0.0079688
0.00790979
0.00779712
0.0076387
0.00744145
0.00721148
0.00695443
0.00667557
0.00638001
0.00607273
0.00575851
0.0054419
0.00512711
0.00481795
0.00451843
0.00423044
0.00395586
0.00369625
0.00345254
0.00322517
0.00301412
0.00281901
0.00263923
0.00247399
0.0023224
0.00218352
0.00205639
0.00193998
0.00183326
0.00173521
0.00164481
0.00156114
0.00148331
0.00141058
0.00134227
0.00127782
0.00121675
0.00115866
0.00110325
0.00105028
0.000999558
0.000950947
0.00090432
0.000859525
0.000816337
0.000774388
0.000733077
0.000691345
0.000647425
0.000599186
0.000545356
0.000486063
0.000421995
0.000356978
0.00030207
0.000281563
0.00032083
0.000356031
0.000276457
0.000177934
0.000148914
0.000166259
0.000168238
0.000146517
0.000130395
0.000130494
0.000144587
0.000175558
0.00022985
0.000313368
0.000408754
0.000495327
0.000552672
0.00057354
0.000564927
0.0818055
0.00379086
0.00852029
0.0123741
0.0149041
0.0165512
0.0174813
0.017878
0.0178973
0.0176363
0.0171729
0.0165782
0.0159254
0.0152904
0.0147478
0.0143616
0.0142646
0.0144803
0.0149943
0.0157861
0.0168202
0.0180327
0.0193188
0.0205281
0.0214846
0.0220362
0.0221075
0.0217077
0.0208903
0.019715
0.0181602
0.0163605
0.0144287
0.0123179
0.0100742
0.0078099
0.00569003
0.00388332
0.00249758
0.00154071
0.00093728
0.000581685
0.000383113
0.000282864
0.000256037
0.000289151
0.000366958
0.000462014
0.000540188
0.000581102
0.000582367
0.000552084
0.000507348
0.000478838
0.000513835
0.000676184
0.00103011
0.00140426
0.00145816
0.00138862
0.00138185
0.00142387
0.00150185
0.0016173
0.00177268
0.0019596
0.00215383
0.00232055
0.00242775
0.00245938
0.00242056
0.00233378
0.0022295
0.00213454
0.0020646
0.0020242
0.00201117
0.00202086
0.00204838
0.00208926
0.00214337
0.0022049
0.0022706
0.00233762
0.00240389
0.00246835
0.0025311
0.00259369
0.00266003
0.00273757
0.00283934
0.00298014
0.0031791
0.00344387
0.00377672
0.00419728
0.00465202
0.00513828
0.00563344
0.00610998
0.0065416
0.0069086
0.00720021
0.00741386
0.00755277
0.00762324
0.0076326
0.00758795
0.00749562
0.00736114
0.00718944
0.00698511
0.0067526
0.00649644
0.00622129
0.00593192
0.00563315
0.00532969
0.00502613
0.00472766
0.00443635
0.00415527
0.00388684
0.00363285
0.00339449
0.00317237
0.00296663
0.00277701
0.00260294
0.00244361
0.00229807
0.00216525
0.00204402
0.00193323
0.00183174
0.00173844
0.00165231
0.00157243
0.00149794
0.00142812
0.00136233
0.00130002
0.00124074
0.00118411
0.00112986
0.00107774
0.00102759
0.000979252
0.000932563
0.000887281
0.00084302
0.000799129
0.000754454
0.000707049
0.000654533
0.000595432
0.000529657
0.000458063
0.000385122
0.000319259
0.000279926
0.000286839
0.000281719
0.000200163
0.000134353
0.00013193
0.000149474
0.000139356
0.000114587
0.000100537
0.000101385
0.000113774
0.000142384
0.000196387
0.000274871
0.000371473
0.000465557
0.000532775
0.000562122
0.000558547
0.104275
0.00493774
0.0103398
0.0139376
0.0159842
0.0169203
0.016975
0.0164295
0.0155038
0.0143551
0.0131048
0.011857
0.010711
0.00976367
0.00910173
0.00879035
0.00881594
0.00915356
0.00980824
0.0107977
0.0121374
0.0138164
0.0157644
0.0178181
0.0197194
0.0211867
0.0220346
0.0222281
0.0218278
0.0209455
0.0196175
0.0179766
0.0161069
0.0139781
0.0116178
0.00912475
0.00668203
0.00451581
0.00281144
0.00163305
0.000911637
0.000510361
0.000301347
0.000199975
0.000163497
0.0001777
0.000231463
0.000310027
0.000388022
0.000442917
0.00046667
0.000463673
0.000449399
0.000454842
0.000527839
0.000733068
0.00109482
0.00134862
0.00130819
0.00125189
0.00126602
0.00132853
0.00143067
0.00157178
0.00174584
0.00193403
0.00210647
0.00223198
0.00228974
0.00227641
0.00220668
0.00210771
0.00200787
0.00192634
0.00187058
0.00184018
0.0018317
0.0018414
0.00186609
0.00190275
0.00195153
0.00200666
0.00206487
0.00212345
0.00218078
0.00223683
0.00229289
0.00235112
0.00241516
0.00249021
0.00258929
0.00272502
0.002917
0.00317856
0.00349264
0.00386171
0.0042764
0.00472497
0.00518994
0.00564876
0.00607752
0.00645627
0.00677231
0.00702055
0.00720175
0.00732003
0.00738085
0.00738969
0.00735145
0.00727032
0.00714999
0.00699388
0.00680542
0.00658825
0.00634634
0.00608403
0.00580597
0.00551706
0.00522245
0.00492785
0.00463585
0.00435036
0.00407469
0.00381149
0.00356267
0.00332953
0.00311272
0.00291241
0.0027283
0.00255977
0.00240595
0.00226578
0.00213811
0.00202173
0.00191543
0.00181804
0.00172848
0.00164572
0.00156886
0.00149707
0.00142964
0.00136594
0.00130544
0.00124771
0.00119239
0.0011392
0.00108791
0.00103835
0.000990332
0.0009436
0.00089776
0.000852141
0.000805526
0.00075584
0.000700503
0.000637779
0.000567185
0.000489681
0.000409793
0.000332536
0.000274295
0.000254152
0.000224571
0.000152443
0.000111488
0.000121545
0.000135276
0.000117663
9.38054e-05
8.29268e-05
8.46967e-05
9.57434e-05
0.000121849
0.000171214
0.000248824
0.000348805
0.00045086
0.000528161
0.000565679
0.000566405
0.132366
0.00563213
0.011275
0.0144349
0.0158346
0.0159765
0.0152173
0.0139269
0.0123666
0.01071
0.00908033
0.00758056
0.00630543
0.00533592
0.00472951
0.00452175
0.0045903
0.00489111
0.00544812
0.00631611
0.00757156
0.00929179
0.011512
0.0141487
0.0169231
0.0194015
0.021206
0.0221866
0.0223686
0.0219158
0.0209233
0.0195504
0.0178348
0.0157771
0.0133864
0.0107322
0.00799125
0.00543417
0.00333704
0.00185622
0.000960569
0.000487211
0.000259566
0.00015748
0.000119749
0.000123736
0.000160639
0.000221767
0.000290097
0.000345859
0.000378924
0.000391868
0.000399798
0.00043312
0.000536886
0.000768877
0.00109474
0.00123747
0.00117195
0.00114368
0.0011807
0.00126389
0.00138716
0.00154618
0.0017278
0.00190764
0.00205572
0.00214615
0.00216574
0.00211917
0.00202851
0.00192362
0.00182869
0.00175574
0.00170696
0.00167993
0.00167145
0.00167885
0.00170007
0.00173373
0.00177755
0.00182672
0.00187797
0.00192825
0.00197577
0.00202156
0.00206895
0.00212203
0.00218676
0.00226717
0.00237592
0.00252663
0.00272493
0.00298037
0.00328918
0.00364265
0.00403227
0.00445057
0.00488653
0.00532305
0.00573941
0.00611662
0.00644148
0.00670768
0.0069145
0.00706461
0.00716211
0.00721114
0.00721535
0.00717776
0.0071009
0.00698711
0.00683877
0.00665853
0.00644947
0.00621519
0.00595985
0.00568812
0.00540597
0.00511779
0.00482746
0.00453969
0.0042586
0.00398759
0.00372934
0.0034858
0.00325819
0.00304712
0.00285265
0.00267438
0.00251159
0.00236328
0.00222833
0.00210552
0.0019936
0.00189136
0.00179764
0.00171138
0.00163157
0.00155733
0.00148787
0.00142247
0.00136055
0.00130158
0.00124515
0.00119092
0.0011386
0.001088
0.00103888
0.000990996
0.000943941
0.000897042
0.000849049
0.000797812
0.000740607
0.000675415
0.000601259
0.000518991
0.000432575
0.00034361
0.000267428
0.000225523
0.000182495
0.00012308
9.88702e-05
0.000112988
0.000121223
0.000102941
8.37067e-05
7.54889e-05
7.5779e-05
8.42939e-05
0.000107596
0.000155136
0.00023343
0.00033818
0.000449249
0.000537055
0.000582317
0.00058623
0.162585
0.00572818
0.0113293
0.0140644
0.0149125
0.0144805
0.0132286
0.0115632
0.00974221
0.00792443
0.00622396
0.00473929
0.00355215
0.00271438
0.00224235
0.0021277
0.00219406
0.00239101
0.00274318
0.00332174
0.00423814
0.00563326
0.00765629
0.0103871
0.013666
0.0169932
0.0197592
0.0216167
0.0224774
0.0225519
0.0220127
0.0209814
0.0195097
0.0176157
0.0152963
0.0125815
0.00961213
0.00667225
0.00412272
0.00224472
0.00109415
0.000505642
0.000244139
0.000138017
0.000101011
0.000100559
0.000127135
0.000174473
0.00023107
0.000281374
0.000316106
0.000337856
0.000361997
0.000417155
0.00054388
0.000784258
0.00105031
0.00111679
0.00106
0.00105942
0.00111667
0.00121759
0.00135698
0.00152685
0.00170943
0.00187816
0.00200422
0.00206499
0.00205262
0.00197999
0.00187586
0.00176988
0.00168061
0.00161436
0.00157023
0.00154506
0.0015359
0.00154055
0.00155745
0.00158665
0.00162481
0.00166821
0.00171371
0.00175753
0.00179657
0.00183191
0.00186907
0.00191413
0.00197671
0.00206444
0.00218193
0.00234391
0.00256008
0.00283156
0.00314916
0.0035002
0.00387642
0.00427403
0.00468707
0.00510286
0.00550366
0.00587206
0.00619553
0.00646774
0.00668758
0.00685704
0.00697926
0.00705737
0.00709387
0.00709068
0.00704931
0.00697116
0.00685774
0.00671084
0.00653269
0.00632605
0.00609432
0.00584172
0.00557435
0.00529502
0.00500896
0.0047213
0.0044368
0.00415964
0.00389325
0.00364024
0.00340245
0.00318098
0.00297627
0.0027882
0.00261622
0.00245947
0.00231688
0.00218722
0.00206925
0.00196172
0.00186342
0.00177322
0.00169008
0.00161303
0.0015412
0.00147383
0.00141025
0.00134987
0.00129221
0.00123688
0.00118355
0.00113195
0.00108185
0.00103297
0.000984906
0.000936998
0.000887987
0.000835687
0.000777279
0.000710475
0.000633757
0.000547577
0.000454843
0.000354257
0.000261684
0.000202537
0.000152857
0.000105087
9.09484e-05
0.000104488
0.00010876
9.36232e-05
7.90064e-05
7.18844e-05
7.08455e-05
7.73569e-05
9.87833e-05
0.00014584
0.000226521
0.000337762
0.000459061
0.000557545
0.000609609
0.000615083
0.191134
0.00530847
0.0107466
0.0132226
0.0137679
0.013075
0.0116521
0.00989888
0.00804677
0.0062356
0.00457705