/*--------------------------------*- C++ -*----------------------------------*\
| =========                 |                                                 |
| \\      /  F ield         | OpenFOAM: The Open Source CFD Toolbox           |
|  \\    /   O peration     | Version:  2112                                  |
|   \\  /    A nd           | Website:  www.openfoam.com                      |
|    \\/     M anipulation  |                                                 |
\*---------------------------------------------------------------------------*/
FoamFile
{
    version     2.0;
    format      ascii;
    arch        "LSB;label=32;scalar=64";
    class       volScalarField;
    location    "0.21";
    object      nut;
}
// * * * * * * * * * * * * * * * * * * * * * * * * * * * * * * * * * * * * * //

dimensions      [0 2 -1 0 0 0 0];

internalField   nonuniform List<scalar> 
12225
(
1.01041e-05
1.76301e-05
2.54596e-05
3.44524e-05
4.53034e-05
5.85093e-05
7.43551e-05
9.2883e-05
0.00011389
0.000136968
0.000161571
0.000187085
0.000212906
0.000238475
0.000263366
0.000286991
0.00031065
0.000328726
5.70151e-05
3.22736e-05
2.72704e-05
2.70648e-05
2.90352e-05
3.23447e-05
3.66417e-05
4.18065e-05
4.79089e-05
5.51373e-05
6.37921e-05
7.41197e-05
8.62242e-05
0.00010006
0.000115478
0.00013263
0.000153209
0.000176584
0.000522234
0.000192935
0.000111283
7.70765e-05
5.97836e-05
5.0344e-05
4.51458e-05
4.23798e-05
4.12099e-05
4.12613e-05
4.23847e-05
4.45296e-05
4.7671e-05
5.17823e-05
5.68177e-05
6.28628e-05
7.01911e-05
7.89593e-05
0.00184793
0.000912066
0.000557442
0.000380724
0.000279414
0.000215503
0.00017072
0.000139713
0.00011792
0.00010206
9.01733e-05
8.11513e-05
7.43495e-05
6.93918e-05
6.61172e-05
6.41453e-05
6.3295e-05
6.34649e-05
0.00244628
0.00220274
0.00157542
0.00118169
0.000920717
0.000737563
0.00059961
0.000496927
0.000420108
0.000361173
0.000314653
0.000277052
0.000246149
0.00022002
0.000195748
0.00017487
0.000157625
0.000143693
0.0027636
0.00288636
0.00276154
0.0022799
0.00191588
0.00163133
0.00140425
0.00122185
0.00107406
0.000952854
0.000852003
0.000766926
0.000694327
0.000630893
0.00057121
0.000518078
0.000472267
0.000433702
0.00322201
0.00318443
0.0030748
0.00302083
0.00291291
0.00261811
0.00236039
0.00214319
0.00195444
0.00179069
0.00164798
0.00152278
0.00141227
0.0013139
0.00122459
0.00114196
0.00106663
0.00100027
0.00383021
0.00364518
0.00334204
0.00315384
0.00299633
0.00293011
0.00298171
0.00302632
0.00283525
0.0026641
0.00250888
0.00236689
0.00223656
0.00211686
0.00200693
0.00179544
0.00159476
0.00144118
0.00455477
0.00419146
0.00373896
0.00339595
0.00312718
0.00298741
0.00297224
0.003031
0.0030794
0.0030501
0.00292629
0.00273173
0.00250628
0.00228037
0.00207091
0.00187979
0.00170959
0.00158255
0.00463533
0.00462229
0.00417579
0.00374504
0.00339876
0.00316742
0.00304929
0.00300731
0.0029973
0.00295828
0.00286108
0.00270853
0.00252334
0.002328
0.0021386
0.00197058
0.0018262
0.00172078
0.00463778
0.00463405
0.00462078
0.00411848
0.00371164
0.00342504
0.00324706
0.00313078
0.00303973
0.00294933
0.00284069
0.00270711
0.00255486
0.00239467
0.00223559
0.00208815
0.00196003
0.00186732
0.0046383
0.00463722
0.00463465
0.00446219
0.00401499
0.00368312
0.00346141
0.00330141
0.00316464
0.00303281
0.00289659
0.00275307
0.00260516
0.00245827
0.00231747
0.00218981
0.00208018
0.00200238
0.00463836
0.00463805
0.0046375
0.00463636
0.00432435
0.00395119
0.00368226
0.00348378
0.00331582
0.0031567
0.00299913
0.00284327
0.00269246
0.00255054
0.00242086
0.00230802
0.00221387
0.00214885
0.00463826
0.00463804
0.00463805
0.00463812
0.00463806
0.00425962
0.00394329
0.00370206
0.00350305
0.00332275
0.00315184
0.00298948
0.00283811
0.00270061
0.00257946
0.00247783
0.0023958
0.00234092
0.00463813
0.00463779
0.00463778
0.00463806
0.00463851
0.00456542
0.00422895
0.00395064
0.00372319
0.00352621
0.00334816
0.00318563
0.00303892
0.00290933
0.00279833
0.00270808
0.00263746
0.00259173
0.00463802
0.00463752
0.00463735
0.00463751
0.00463794
0.00463854
0.00450499
0.00421229
0.00396612
0.00376001
0.00358155
0.00342476
0.00328797
0.00317088
0.00307369
0.00299747
0.00294003
0.00290444
0.00463794
0.00463732
0.004637
0.00463698
0.00463726
0.00463775
0.0046384
0.00446731
0.00421881
0.00401384
0.00384408
0.00370044
0.00357918
0.00347894
0.00339895
0.00333926
0.00329702
0.00327301
0.0046379
0.00463721
0.00463678
0.00463664
0.00463677
0.00463713
0.00463767
0.00463832
0.00446954
0.00427872
0.00412758
0.00400615
0.00390745
0.00382895
0.00376944
0.00372837
0.00370293
0.00369084
0.0046379
0.00463721
0.00463676
0.00463657
0.00463664
0.00463691
0.00463736
0.00463792
0.00463854
0.00450813
0.00439092
0.0043032
0.00423716
0.00418921
0.00415741
0.00414038
0.00413559
0.00413702
0.00463796
0.00463734
0.00463695
0.0046368
0.00463685
0.00463706
0.00463735
0.00463766
0.00463792
0.00459337
0.00452343
0.00448481
0.00446993
0.00447023
0.00448019
0.00449689
0.0045189
0.00453907
0.00463805
0.00463748
0.00463704
0.00463666
0.0046362
0.00463553
0.00463449
0.00463299
0.00463094
0.00457244
0.00456304
0.00459681
0.00461602
0.00461067
0.00460476
0.00459833
0.00459144
0.00458419
0.00463803
0.00463699
0.00463522
0.00463221
0.00462753
0.00462082
0.00461195
0.00457164
0.00450887
0.00452366
0.004554
0.00453465
0.00451386
0.00449186
0.00446888
0.00444515
0.00442087
0.00439639
0.00463684
0.00463117
0.00461973
0.00460112
0.00457481
0.00454102
0.00445695
0.0043744
0.00438886
0.00434895
0.00429227
0.00423415
0.00417534
0.00411644
0.0040579
0.00400008
0.00394326
0.00388802
0.00462714
0.00459337
0.0045344
0.00445185
0.00435038
0.0042356
0.00411268
0.00398612
0.00385978
0.00373582
0.00361584
0.00350083
0.00339128
0.00328727
0.00318864
0.00309514
0.00300655
0.00292305
0.00456815
0.00440893
0.00418688
0.00393267
0.00367076
0.00341666
0.00317876
0.00296075
0.0027635
0.0025863
0.00242763
0.0022856
0.0021581
0.00204272
0.0019375
0.00184108
0.00175247
0.00167116
0.00426417
0.00373747
0.00318812
0.00270992
0.00231673
0.00199901
0.0017428
0.00153527
0.00136597
0.00122671
0.0011111
0.00101412
0.000931328
0.000857989
0.00079211
0.000733417
0.000681347
0.000635143
0.00320948
0.00216849
0.00149431
0.00109084
0.000835695
0.000664558
0.00054449
0.00045727
0.000392132
0.000342339
0.000303463
0.000272489
0.000247086
0.000224964
0.000205345
0.000188275
0.000173576
0.000160963
0.00116199
0.00055092
0.0003123
0.000207833
0.000152701
0.000119912
9.88957e-05
8.47446e-05
7.48994e-05
6.79018e-05
6.28654e-05
5.92281e-05
5.66336e-05
5.48734e-05
5.37856e-05
5.32436e-05
5.31749e-05
5.35424e-05
0.00011475
5.52297e-05
3.97351e-05
3.39092e-05
3.18347e-05
3.16871e-05
3.27216e-05
3.45723e-05
3.70258e-05
3.9942e-05
4.3227e-05
4.68276e-05
5.07312e-05
5.49659e-05
5.95848e-05
6.46465e-05
7.02505e-05
7.64193e-05
9.55794e-06
1.55437e-05
2.12382e-05
2.70752e-05
3.34525e-05
4.06603e-05
4.89071e-05
5.83377e-05
6.9043e-05
8.10643e-05
9.43944e-05
0.000108978
0.000124716
0.000141474
0.000159088
0.00017738
0.000196182
0.000215235
0.000716032
0.000725704
0.000743682
0.000766917
0.000792259
0.000817123
0.000839741
0.000859107
0.000874794
0.000886764
0.000883285
0.000859468
0.000842006
0.000830274
0.00082089
0.000812593
0.000805175
0.000798633
0.000792951
0.000788099
0.000784038
0.000780725
0.000778115
0.000776157
0.0007748
0.000773987
0.000773665
0.000773781
0.000774284
0.000775126
0.000776264
0.000777656
0.000779265
0.00078106
0.000783009
0.000785086
0.000787268
0.000789532
0.00079186
0.000794235
0.000796642
0.000799067
0.000801498
0.000803924
0.000806337
0.000808727
0.000811088
0.000813412
0.000815694
0.000817928
0.00082011
0.000822236
0.000824302
0.000826304
0.00082824
0.000830105
0.000831899
0.000833617
0.000835258
0.00083682
0.000838299
0.000839694
0.000841004
0.000842226
0.000843358
0.0008444
0.000845349
0.000846206
0.00084697
0.000847639
0.000848216
0.000848699
0.00084909
0.000849391
0.000849602
0.000849728
0.000849769
0.000849728
0.000849609
0.000849414
0.000849147
0.000848811
0.000848408
0.000847943
0.000847417
0.000846835
0.000846198
0.00084551
0.000844773
0.000843992
0.000843167
0.000842304
0.000841404
0.000840472
0.000839512
0.000838527
0.000837521
0.000836498
0.00083546
0.00083441
0.000833349
0.000832281
0.000831191
0.000830108
0.000829103
0.000828185
0.000827364
0.000826652
0.000826062
0.000825609
0.000825308
0.000825173
0.000825224
0.000825476
0.000825952
0.00082667
0.000827653
0.000828925
0.000830511
0.000832438
0.000834735
0.000837434
0.000840567
0.000844173
0.000848292
0.000852968
0.000858254
0.000864204
0.000870882
0.00087836
0.000886718
0.000896051
0.000906463
0.000918077
0.000931036
0.000945506
0.000961682
0.000979796
0.00100013
0.00102301
0.00104885
0.00107815
0.00111154
0.00114979
0.00119391
0.0012452
0.00130536
0.00137669
0.00146237
0.00156693
0.001697
0.00186277
0.00208048
0.00237866
0.00281877
0.00351329
0.00413936
0.0041472
0.0041447
0.00414151
0.00413925
0.00413231
0.00372555
0.00295174
0.00245551
0.00212321
0.00188179
0.00169831
0.00155426
0.0014381
0.00134237
0.00126205
0.00119365
0.00113471
0.00108346
0.00103872
0.000999489
0.000966719
0.000937386
0.000934582
0.000710498
0.000720682
0.000739413
0.000763268
0.000788988
0.000814007
0.000836639
0.00085599
0.000871766
0.000884087
0.000893347
0.000900113
0.000905002
0.000908532
0.000911117
0.00091309
0.00091472
0.000916222
0.000917758
0.000919451
0.000921387
0.000923623
0.000926192
0.000929112
0.000932382
0.000935993
0.00093993
0.00094417
0.00094869
0.000953463
0.000958464
0.000963667
0.000969049
0.000974587
0.00098026
0.000986049
0.000991936
0.000997905
0.00100394
0.00101003
0.00101616
0.00102233
0.00102851
0.00103471
0.0010409
0.0010471
0.00105328
0.00105944
0.00106559
0.0010717
0.00107778
0.00108382
0.00108982
0.00109577
0.00110168
0.00110753
0.00111333
0.00111908
0.00112477
0.0011304
0.00113597
0.00114148
0.00114693
0.00115233
0.00115766
0.00116293
0.00116815
0.00117331
0.00117842
0.00118348
0.00118849
0.00119345
0.00119837
0.00120325
0.00120809
0.0012129
0.00121768
0.00122244
0.00122718
0.00123191
0.00123663
0.00124134
0.00124606
0.00125079
0.00125554
0.00126031
0.00126512
0.00126998
0.00127489
0.00127986
0.00128492
0.00129007
0.00129532
0.0013007
0.00130622
0.00131189
0.00131774
0.00132379
0.00133004
0.00133653
0.00134327
0.00135026
0.00135746
0.0013648
0.00137249
0.00138054
0.001389
0.0013979
0.00140727
0.00141715
0.00142757
0.00143858
0.00145022
0.00146254
0.0014756
0.00148945
0.00150414
0.00151975
0.00153636
0.00155403
0.00157285
0.00159292
0.00161435
0.00163725
0.00166174
0.00168796
0.00171606
0.00174621
0.0017786
0.00181341
0.00185087
0.00189122
0.00193472
0.00198166
0.00203233
0.00208708
0.00214626
0.00221025
0.00227944
0.00235422
0.00243499
0.00252211
0.0026159
0.00271659
0.00282424
0.00293875
0.00305968
0.00318624
0.00331709
0.00345028
0.00358306
0.00371188
0.00383227
0.00393902
0.00402625
0.00408754
0.00411825
0.00412516
0.00412326
0.00412014
0.00411744
0.00411079
0.00408705
0.00403158
0.00394587
0.00383519
0.00370507
0.00356114
0.00340873
0.00325252
0.00309641
0.00294342
0.0027958
0.00265509
0.00252226
0.00239783
0.00228188
0.00217427
0.002073
0.00197954
0.00050346
0.000708434
0.000730594
0.000757065
0.000784587
0.000810765
0.00083413
0.000853994
0.00087023
0.000883073
0.000892967
0.000900457
0.000906092
0.000910367
0.0009137
0.000916429
0.000918826
0.000921104
0.000923427
0.000925916
0.00092866
0.000931716
0.000935121
0.000938893
0.000943036
0.000947546
0.000952409
0.000957606
0.000963117
0.00096892
0.000974993
0.000981313
0.000987859
0.000994613
0.00100156
0.00100867
0.00101595
0.00102337
0.00103092
0.0010386
0.00104639
0.00105429
0.00106228
0.00107037
0.00107854
0.0010868
0.00109513
0.00110354
0.00111202
0.00112056
0.00112917
0.00113785
0.00114659
0.00115539
0.00116425
0.00117317
0.00118215
0.00119119
0.00120029
0.00120945
0.00121868
0.00122796
0.00123732
0.00124673
0.00125621
0.00126576
0.00127538
0.00128508
0.00129484
0.00130468
0.0013146
0.0013246
0.00133468
0.00134484
0.00135509
0.00136542
0.00137584
0.00138635
0.00139696
0.00140765
0.00141845
0.00142934
0.00144033
0.00145144
0.00146265
0.00147398
0.00148543
0.00149701
0.00150872
0.00152057
0.00153258
0.00154474
0.00155707
0.00156957
0.00158225
0.00159512
0.00160819
0.00162146
0.00163492
0.0016486
0.00166247
0.0016765
0.00169047
0.00170468
0.00171922
0.0017341
0.00174935
0.001765
0.00178106
0.00179757
0.00181455
0.00183203
0.00185004
0.00186862
0.0018878
0.00190763
0.00192815
0.00194942
0.00197148
0.00199439
0.00201823
0.00204306
0.00206897
0.00209603
0.00212435
0.00215402
0.00218517
0.00221791
0.00225236
0.00228868
0.00232702
0.00236753
0.00241039
0.00245578
0.0025039
0.00255495
0.00260914
0.00266667
0.00272776
0.00279259
0.00286133
0.00293412
0.00301101
0.003092
0.00317693
0.0032655
0.00335719
0.00345119
0.00354639
0.00364125
0.0037338
0.00382163
0.00390188
0.00397136
0.00402675
0.00406486
0.0040841
0.0040885
0.00408643
0.00408318
0.00408035
0.00407491
0.00405904
0.00402432
0.00396951
0.00389631
0.00380742
0.003706
0.00359537
0.00347868
0.00335877
0.00323804
0.00311843
0.00300147
0.00288826
0.00277956
0.0026757
0.00257666
0.00248099
0.00238872
0.000358471
0.000685626
0.00071534
0.00074728
0.000778504
0.000807063
0.000831923
0.000852756
0.000869694
0.000883141
0.00089363
0.000901736
0.000908008
0.000912942
0.000916953
0.000920384
0.000923509
0.000926542
0.000929647
0.000932945
0.000936526
0.000940451
0.000944757
0.000949467
0.000954588
0.000960118
0.000966049
0.000972366
0.000979053
0.000986092
0.000993465
0.00100115
0.00100914
0.00101742
0.00102597
0.00103478
0.00104384
0.00105314
0.00106267
0.00107244
0.00108243
0.00109264
0.00110307
0.00111372
0.00112458
0.00113566
0.00114696
0.00115847
0.0011702
0.00118215
0.00119432
0.00120672
0.00121934
0.00123218
0.00124526
0.00125856
0.0012721
0.00128587
0.00129987
0.00131411
0.00132859
0.0013433
0.00135826
0.00137345
0.00138887
0.00140454
0.00142043
0.00143656
0.00145292
0.00146951
0.00148631
0.00150333
0.00152057
0.00153801
0.00155565
0.00157348
0.00159149
0.00160969
0.00162805
0.00164656
0.00166524
0.00168405
0.001703
0.00172208
0.00174129
0.00176061
0.00178004
0.00179958
0.00181922
0.00183896
0.00185879
0.0018787
0.0018987
0.00191876
0.0019389
0.00195909
0.00197933
0.0019996
0.0020199
0.00204019
0.00206048
0.00208036
0.00210023
0.00212021
0.00214034
0.00216063
0.00218109
0.00220173
0.00222257
0.00224362
0.0022649
0.00228641
0.00230819
0.00233024
0.00235261
0.0023753
0.00239836
0.00242181
0.00244569
0.00247003
0.0024949
0.00252032
0.00254637
0.0025731
0.00260058
0.00262887
0.00265806
0.00268824
0.00271948
0.00275188
0.00278555
0.00282058
0.00285708
0.00289517
0.00293495
0.00297655
0.00302009
0.00306566
0.00311336
0.00316329
0.00321549
0.00326999
0.00332676
0.00338569
0.00344659
0.00350917
0.00357296
0.00363735
0.00370151
0.0037644
0.00382469
0.00388091
0.00393135
0.00397414
0.00400756
0.00403001
0.004041
0.00404271
0.00403997
0.00403648
0.00403337
0.00402878
0.00401824
0.00399698
0.00396323
0.00391698
0.00385919
0.00379141
0.00371546
0.00363325
0.00354665
0.00345734
0.0033668
0.00327627
0.00318675
0.00309901
0.00301354
0.00293049
0.00284901
0.00276896
0.000276896
0.000653052
0.000693741
0.000733776
0.000770566
0.000802744
0.000829876
0.000852137
0.000870029
0.000884195
0.000895313
0.000904028
0.000910926
0.000916514
0.000921214
0.000925373
0.000929267
0.00093311
0.000937068
0.000941263
0.000945787
0.000950702
0.00095605
0.000961855
0.000968129
0.000974874
0.000982086
0.000989756
0.000997873
0.00100642
0.0010154
0.00102478
0.00103456
0.00104473
0.00105528
0.00106621
0.00107751
0.00108918
0.00110122
0.00111363
0.00112641
0.00113956
0.00115309
0.001167
0.00118129
0.00119597
0.00121104
0.00122651
0.00124238
0.00125866
0.00127535
0.00129246
0.00130998
0.00132792
0.00134628
0.00136507
0.00138427
0.0014039
0.00142395
0.00144441
0.00146528
0.00148656
0.00150825
0.00153032
0.00155277
0.0015756
0.00159878
0.00162232
0.00164618
0.00167036
0.00169485
0.00171961
0.00174463
0.00176989
0.00179537
0.00182105
0.00184689
0.00187289
0.001899
0.00192522
0.00195151
0.00197786
0.00200423
0.00203062
0.002057
0.00208334
0.00210965
0.00213589
0.00216206
0.00218813
0.00221409
0.00223993
0.00226563
0.00229118
0.00231655
0.00234172
0.00236669
0.00239143
0.00241592
0.00244014
0.00246376
0.00248697
0.00251002
0.00253295
0.0025558
0.00257856
0.00260125
0.00262386
0.0026464
0.00266888
0.00269131
0.00271369
0.00273605
0.00275838
0.00278071
0.00280305
0.00282543
0.00284785
0.00287035
0.00289296
0.00291569
0.0029386
0.0029617
0.00298506
0.0030087
0.00303269
0.00305707
0.00308189
0.00310723
0.00313313
0.00315967
0.0031869
0.0032149
0.00324373
0.00327346
0.00330415
0.00333587
0.00336867
0.00340259
0.00343767
0.00347392
0.00351133
0.00354983
0.00358933
0.00362967
0.00367062
0.00371183
0.00375289
0.00379327
0.00383228
0.00386911
0.00390292
0.0039328
0.00395757
0.00397649
0.00398862
0.00399363
0.00399303
0.00398959
0.00398562
0.00398189
0.00397739
0.00396973
0.00395626
0.00393549
0.00390679
0.00387023
0.00382637
0.00377607
0.0037204
0.00366043
0.00359725
0.00353187
0.00346521
0.00339807
0.00333114
0.00326495
0.00319988
0.00313558
0.00307202
0.000227699
0.000613707
0.000667069
0.000716909
0.000760679
0.000797511
0.000827612
0.000851737
0.000870836
0.00088586
0.000897677
0.00090704
0.000914592
0.000920866
0.000926297
0.000931237
0.000935963
0.000940693
0.000945594
0.000950789
0.000956372
0.000962408
0.000968941
0.000976
0.000983601
0.000991751
0.00100045
0.0010097
0.00101948
0.0010298
0.00104065
0.00105202
0.0010639
0.0010763
0.00108921
0.00110264
0.00111658
0.00113105
0.00114603
0.00116155
0.0011776
0.0011942
0.00121135
0.00122906
0.00124733
0.00126618
0.00128561
0.00130562
0.00132622
0.00134742
0.00136922
0.00139161
0.0014146
0.00143818
0.00146235
0.00148711
0.00151245
0.00153835
0.0015648
0.0015918
0.00161932
0.00164735
0.00167587
0.00170486
0.00173429
0.00176414
0.00179438
0.00182498
0.00185592
0.00188715
0.00191865
0.00195038
0.0019823
0.00201438
0.00204657
0.00207884
0.00211114
0.00214344
0.0021757
0.00220787
0.00223993
0.00227182
0.00230353
0.00233502
0.00236626
0.00239724
0.00242791
0.00245828
0.00248831
0.00251799
0.0025473
0.00257622
0.00260475
0.00263285
0.00266052
0.00268774
0.00271449
0.00274076
0.00276652
0.00279163
0.00281598
0.00283988
0.00286343
0.00288667
0.00290962
0.00293227
0.00295463
0.00297671
0.0029985
0.00302001
0.00304125
0.00306223
0.00308294
0.00310342
0.00312365
0.00314367
0.00316346
0.00318307
0.00320249
0.00322174
0.00324086
0.00325985
0.00327875
0.00329758
0.00331638
0.00333518
0.00335401
0.00337291
0.00339192
0.00341108
0.00343044
0.00345003
0.0034699
0.00349009
0.00351063
0.00353157
0.00355294
0.00357477
0.00359709
0.0036199
0.0036432
0.00366698
0.00369118
0.00371574
0.00374054
0.00376543
0.00379017
0.00381451
0.00383814
0.00386067
0.00388154
0.00390035
0.00391679
0.0039298
0.00393915
0.00394443
0.00394548
0.00394311
0.00393888
0.00393419
0.00392958
0.00392457
0.00391795
0.00390835
0.00389473
0.00387637
0.00385298
0.00382461
0.00379158
0.00375436
0.00371356
0.0036698
0.00362372
0.00357596
0.0035271
0.00347773
0.00342841
0.00337961
0.00333131
0.00328349
0.000195144
0.000570882
0.00063704
0.000697407
0.000749002
0.000791225
0.000824845
0.00085121
0.000871755
0.000887781
0.000900381
0.000910446
0.000918692
0.000925691
0.000931897
0.000937669
0.000943288
0.000948974
0.000954895
0.000961177
0.000967915
0.000975178
0.000983013
0.000991454
0.00100052
0.00101022
0.00102057
0.00103156
0.0010432
0.00105548
0.00106841
0.00108199
0.00109621
0.00111108
0.0011266
0.00114278
0.00115964
0.00117716
0.00119538
0.00121428
0.0012339
0.00125422
0.00127527
0.00129704
0.00131956
0.00134281
0.00136681
0.00139156
0.00141706
0.0014433
0.00147028
0.001498
0.00152644
0.00155559
0.00158544
0.00161596
0.00164714
0.00167896
0.00171138
0.00174438
0.00177793
0.00181199
0.00184654
0.00188154
0.00191694
0.00195271
0.00198881
0.00202518
0.00206179
0.00209859
0.00213552
0.00217254
0.0022096
0.00224665
0.00228362
0.00232048
0.00235716
0.00239362
0.00242979
0.00246564
0.00250112
0.00253618
0.00257078
0.00260489
0.00263848
0.00267153
0.00270401
0.00273592
0.00276723
0.00279794
0.00282803
0.0028575
0.00288634
0.00291454
0.00294209
0.00296899
0.00299522
0.00302077
0.00304563
0.00306955
0.00309279
0.0031155
0.00313774
0.00315953
0.00318089
0.00320182
0.00322231
0.00324239
0.00326204
0.00328128
0.00330012
0.00331855
0.00333659
0.00335424
0.00337152
0.00338844
0.00340499
0.00342121
0.00343708
0.00345263
0.00346788
0.00348283
0.00349751
0.00351193
0.00352611
0.00354009
0.00355387
0.0035675
0.00358098
0.00359436
0.00360766
0.00362091
0.00363413
0.00364735
0.00366061
0.00367392
0.00368731
0.00370079
0.00371437
0.00372808
0.00374189
0.0037558
0.00376977
0.00378377
0.00379774
0.00381158
0.0038251
0.00383818
0.0038507
0.00386244
0.00387292
0.00388203
0.00388957
0.00389514
0.00389851
0.00389944
0.00389781
0.00389402
0.00388896
0.00388345
0.00387787
0.00387201
0.00386534
0.00385722
0.003847
0.00383411
0.00381815
0.00379898
0.00377661
0.00375123
0.00372311
0.00369259
0.00366005
0.0036259
0.00359057
0.00355455
0.00351833
0.00348245
0.003447
0.00341184
0.000172357
0.000527488
0.000605358
0.000676113
0.000735828
0.000783853
0.00082137
0.000850266
0.00087246
0.000889619
0.000903086
0.000913908
0.000922889
0.000930649
0.000937666
0.000944309
0.000950866
0.000957558
0.000964554
0.000971983
0.000979943
0.000988504
0.000997719
0.00100762
0.00101824
0.00102959
0.00104169
0.00105453
0.00106813
0.00108249
0.00109762
0.00111351
0.00113018
0.00114764
0.00116589
0.00118494
0.00120481
0.0012255
0.00124701
0.00126938
0.00129259
0.00131666
0.0013416
0.0013674
0.00139408
0.00142162
0.00145003
0.0014793
0.00150942
0.00154037
0.00157215
0.00160472
0.00163807
0.00167217
0.00170699
0.0017425
0.00177866
0.00181543
0.00185277
0.00189065
0.00192902
0.00196782
0.00200703
0.00204658
0.00208642
0.00212651
0.00216679
0.0022072
0.00224769
0.00228821
0.00232869
0.00236908
0.00240931
0.00244933
0.00248907
0.00252848
0.00256748
0.00260603
0.00264406
0.00268152
0.00271834
0.00275449
0.00278992
0.00282459
0.00285849
0.00289158
0.00292386
0.00295533
0.00298597
0.0030158
0.00304482
0.00307302
0.00310043
0.00312705
0.00315288
0.00317792
0.00320218
0.00322567
0.00324819
0.00326993
0.00329102
0.00331154
0.00333153
0.00335101
0.00336999
0.00338847
0.00340647
0.00342398
0.00344101
0.00345756
0.00347365
0.00348928
0.00350446
0.00351919
0.00353348
0.00354735
0.00356079
0.00357382
0.00358644
0.00359867
0.0036105
0.00362196
0.00363305
0.00364379
0.00365418
0.00366425
0.00367401
0.00368348
0.00369268
0.00370162
0.00371033
0.00371883
0.00372713
0.00373525
0.00374323
0.00375106
0.00375878
0.00376638
0.00377388
0.0037813
0.00378863
0.00379585
0.00380295
0.00380992
0.00381675
0.00382337
0.00382961
0.00383544
0.00384077
0.00384551
0.00384944
0.0038525
0.00385458
0.00385551
0.00385513
0.00385326
0.00384977
0.00384486
0.00383902
0.00383272
0.00382622
0.00381947
0.00381227
0.00380436
0.00379541
0.00378501
0.00377283
0.00375866
0.0037424
0.00372406
0.00370376
0.00368166
0.00365797
0.00363296
0.00360693
0.00358029
0.00355344
0.0035269
0.00350079
0.00347478
0.000155766
0.000485708
0.000573469
0.000653841
0.000721512
0.000775453
0.000817068
0.000848687
0.000872682
0.000891082
0.000905488
0.000917112
0.00092686
0.000935406
0.000943256
0.000950795
0.000958314
0.000966039
0.000974139
0.000982747
0.00099196
0.00100185
0.00101248
0.00102388
0.00103609
0.00104912
0.00106299
0.00107772
0.00109331
0.00110976
0.0011271
0.00114532
0.00116444
0.00118447
0.00120541
0.00122728
0.00125008
0.00127383
0.00129853
0.00132418
0.0013508
0.00137837
0.00140691
0.00143641
0.00146686
0.00149825
0.00153056
0.00156378
0.00159788
0.00163284
0.00166862
0.0017052
0.00174252
0.00178056
0.00181927
0.00185859
0.00189849
0.00193891
0.00197979
0.0020211
0.00206276
0.00210473
0.00214696
0.00218939
0.00223196
0.00227462
0.00231731
0.00235997
0.00240254
0.00244496
0.00248717
0.00252912
0.00257073
0.00261195
0.00265272
0.00269295
0.0027326
0.0027716
0.00280987
0.00284736
0.002884
0.00291975
0.00295455
0.00298836
0.00302116
0.00305293
0.00308368
0.00311341
0.00314214
0.00316988
0.00319667
0.00322252
0.00324746
0.00327152
0.00329471
0.00331707
0.00333859
0.00335925
0.0033791
0.00339827
0.00341683
0.00343485
0.00345233
0.00346931
0.00348578
0.00350176
0.00351725
0.00353226
0.00354678
0.00356083
0.00357441
0.00358753
0.00360018
0.00361239
0.00362414
0.00363546
0.00364635
0.00365681
0.00366684
0.00367645
0.00368565
0.00369444
0.00370283
0.00371082
0.00371842
0.00372564
0.00373251
0.00373902
0.00374519
0.00375102
0.00375655
0.00376177
0.00376671
0.00377138
0.00377579
0.00377997
0.00378391
0.00378764
0.00379116
0.0037945
0.00379763
0.00380056
0.00380327
0.00380577
0.00380804
0.00381006
0.00381174
0.00381306
0.00381397
0.00381443
0.00381436
0.00381372
0.00381247
0.00381053
0.00380779
0.0038041
0.00379934
0.00379358
0.00378709
0.00378015
0.0037729
0.00376538
0.00375755
0.00374933
0.0037406
0.00373111
0.00372061
0.0037089
0.00369587
0.00368146
0.0036657
0.00364865
0.00363043
0.00361122
0.00359124
0.00357079
0.00355024
0.00353001
0.00351018
0.00349029
0.000143321
0.000446923
0.000542455
0.000631289
0.000706418
0.000766143
0.000811893
0.000846329
0.000872218
0.000891931
0.000907324
0.000919781
0.000930313
0.000939655
0.000948346
0.000956785
0.000965272
0.000974032
0.000983239
0.000993025
0.00100349
0.00101471
0.00102674
0.00103962
0.00105339
0.00106807
0.00108368
0.00110024
0.00111775
0.00113623
0.00115568
0.00117612
0.00119756
0.00122
0.00124345
0.00126792
0.00129341
0.00131992
0.00134747
0.00137603
0.00140562
0.00143622
0.00146783
0.00150042
0.00153398
0.00156848
0.0016039
0.00164021
0.00167736
0.00171532
0.00175403
0.00179347
0.00183356
0.00187427
0.00191552
0.00195726
0.00199944
0.00204199
0.00208486
0.00212798
0.0021713
0.00221477
0.00225834
0.00230194
0.00234553
0.00238905
0.00243244
0.00247566
0.00251864
0.00256134
0.0026037
0.00264566
0.00268717
0.00272816
0.00276857
0.00280833
0.00284738
0.00288566
0.00292308
0.00295958
0.00299508
0.00302952
0.00306284
0.00309498
0.00312592
0.00315563
0.00318413
0.00321144
0.00323759
0.00326263
0.0032866
0.00330956
0.00333155
0.00335261
0.0033728
0.00339214
0.00341073
0.00342862
0.00344588
0.00346257
0.00347874
0.00349442
0.00350963
0.00352438
0.00353867
0.00355251
0.00356591
0.00357887
0.00359138
0.00360345
0.00361508
0.00362628
0.00363705
0.00364738
0.00365729
0.00366678
0.00367586
0.00368452
0.00369276
0.00370059
0.00370801
0.00371501
0.00372161
0.00372779
0.00373357
0.00373895
0.00374395
0.00374857
0.00375281
0.00375669
0.00376021
0.00376338
0.00376622
0.00376873
0.00377094
0.00377286
0.00377449
0.00377583
0.00377691
0.00377773
0.0037783
0.0037786
0.00377865
0.00377844
0.00377798
0.00377723
0.00377618
0.0037748
0.00377309
0.00377102
0.00376856
0.00376572
0.00376247
0.00375878
0.00375456
0.00374971
0.00374411
0.00373776
0.00373081
0.0037234
0.00371565
0.00370758
0.00369922
0.0036906
0.0036817
0.00367238
0.00366248
0.00365187
0.00364043
0.00362809
0.00361483
0.00360068
0.00358572
0.00357004
0.00355382
0.00353731
0.00352079
0.0035046
0.00348878
0.00347276
0.000133763
0.000411839
0.000513054
0.000609026
0.000690897
0.000756085
0.000805865
0.000843112
0.000870922
0.000891977
0.000908377
0.000921675
0.000932991
0.000943122
0.000952643
0.000961968
0.000971403
0.000981178
0.000991465
0.00100239
0.00101407
0.00102656
0.00103993
0.00105423
0.00106947
0.0010857
0.00110293
0.00112118
0.00114046
0.00116077
0.00118214
0.00120456
0.00122804
0.00125259
0.00127821
0.00130489
0.00133263
0.00136143
0.00139128
0.00142216
0.00145406
0.00148695
0.00152083
0.00155564
0.00159138
0.001628
0.00166546
0.00170372
0.00174272
0.00178242
0.00182276
0.00186367
0.00190511
0.001947
0.00198927
0.00203187
0.00207473
0.00211778
0.00216096
0.00220423
0.00224752
0.0022908
0.00233401
0.00237712
0.00242008
0.00246286
0.00250539
0.00254765
0.00258958
0.00263116
0.00267233
0.00271305
0.00275327
0.00279294
0.00283201
0.0028704
0.00290805
0.00294489
0.00298085
0.00301584
0.00304978
0.00308256
0.0031141
0.00314433
0.00317319
0.00320065
0.00322672
0.00325142
0.00327483
0.00329701
0.00331803
0.00333799
0.00335695
0.00337499
0.00339218
0.00340877
0.00342487
0.00344047
0.0034556
0.00347028
0.00348456
0.00349844
0.00351194
0.00352506
0.00353779
0.00355015
0.00356213
0.00357373
0.00358494
0.00359576
0.00360619
0.00361623
0.00362587
0.00363511
0.00364395
0.00365241
0.00366047
0.00366814
0.00367541
0.00368228
0.00368873
0.00369479
0.00370043
0.00370566
0.00371048
0.00371488
0.00371889
0.00372251
0.00372573
0.00372856
0.00373101
0.00373308
0.0037348
0.00373615
0.00373717
0.00373784
0.00373819
0.00373823
0.00373795
0.00373737
0.0037365
0.00373534
0.00373389
0.00373216
0.00373015
0.00372785
0.00372526
0.00372236
0.00371916
0.00371566
0.00371185
0.00370774
0.00370334
0.00369861
0.00369351
0.00368795
0.00368184
0.00367514
0.00366792
0.00366026
0.00365222
0.00364384
0.00363516
0.00362625
0.00361712
0.00360774
0.00359802
0.00358785
0.00357715
0.00356587
0.00355397
0.00354146
0.00352839
0.00351483
0.00350092
0.00348684
0.00347283
0.00345916
0.00344579
0.00343214
0.000126268
0.000380683
0.000485732
0.000587512
0.000675297
0.000745487
0.000799065
0.000839018
0.000868703
0.000891078
0.000908467
0.000922586
0.00093466
0.000945552
0.000955868
0.000966039
0.000976379
0.000987114
0.000998418
0.00101042
0.00102321
0.00103687
0.00105146
0.00106702
0.00108358
0.00110116
0.00111979
0.00113948
0.00116024
0.00118208
0.001205
0.001229
0.00125409
0.00128027
0.00130751
0.00133581
0.00136516
0.00139553
0.0014269
0.00145924
0.0014925
0.00152667
0.0015617
0.00159756
0.00163421
0.0016716
0.0017097
0.00174846
0.00178781
0.00182769
0.00186805
0.00190882
0.00194993
0.00199133
0.00203293
0.00207466
0.00211647
0.00215829
0.00220006
0.00224174
0.00228329
0.0023247
0.00236592
0.00240695
0.00244776
0.00248832
0.00252861
0.00256859
0.00260825
0.00264756
0.0026865
0.00272504
0.00276314
0.00280077
0.00283787
0.00287439
0.00291026
0.00294541
0.00297975
0.00301319
0.00304562
0.00307691
0.00310692
0.00313552
0.00316261
0.00318812
0.00321204
0.0032344
0.0032553
0.00327486
0.00329318
0.00331038
0.00332661
0.00334192
0.00335692
0.00337166
0.00338609
0.00340019