/*--------------------------------*- C++ -*----------------------------------*\
| =========                 |                                                 |
| \\      /  F ield         | OpenFOAM: The Open Source CFD Toolbox           |
|  \\    /   O peration     | Version:  2112                                  |
|   \\  /    A nd           | Website:  www.openfoam.com                      |
|    \\/     M anipulation  |                                                 |
\*---------------------------------------------------------------------------*/
FoamFile
{
    version     2.0;
    format      ascii;
    arch        "LSB;label=32;scalar=64";
    class       volScalarField;
    location    "0.21";
    object      omegaU;
}
// * * * * * * * * * * * * * * * * * * * * * * * * * * * * * * * * * * * * * //

dimensions      [0 0 -1 0 0 0 0];

internalField   nonuniform List<scalar> 
12225
(
53384.6
74617.8
81129.5
81879.7
80524.4
78473.5
76277.4
74156.9
72191
70391.3
68735.7
67197.7
65758.6
64412.2
63149.2
62019.4
60712.3
59399.7
5170.87
10942.1
15761.4
19457.9
22205
24245.4
25800.2
27040
28082.9
28994.7
29808.4
30526.9
31135.4
31613.5
31940
32116.2
32127.9
31813.5
508.253
1401.8
2480.56
3668.22
4877.87
6030.28
7076.21
8030.04
8922.9
9783.7
10637.5
11497.3
12362.6
13222.5
14058.4
14862.9
15633.8
16325.8
142.449
289.338
474.443
695.962
949.997
1233.84
1559.98
1909.57
2269.07
2636.49
3015.34
3410
3823.39
4254.64
4692.52
5148.4
5626.14
6117.97
79.3202
119.415
167.026
222.673
285.696
356.402
437.898
527.494
622.605
722.432
827.219
937.562
1053.97
1179.25
1328.19
1493.38
1668.97
1849.72
62.9225
77.1024
95.2002
115.306
137.18
161.033
186.932
214.606
243.802
274.373
306.304
339.653
374.479
411.42
453.712
499.628
547.658
596.171
58.3703
63.3061
70.8396
79.8079
89.8168
100.371
111.289
122.499
134.23
146.377
158.902
171.796
185.056
198.722
213.031
228.271
244.243
260.338
57.1015
58.7277
61.5731
65.4876
70.2449
75.4682
81.0386
86.8228
92.6419
98.5521
104.602
110.827
117.236
123.818
130.559
137.303
144.024
150.578
56.7379
57.2604
58.2558
59.7564
61.7292
64.1192
66.911
70.0221
73.2211
76.4763
79.7703
83.0964
86.452
89.8337
93.2298
96.4881
99.59
102.513
56.625
56.7868
57.1186
57.651
58.3911
59.3453
60.53
61.9459
63.5396
65.2439
66.9939
68.7424
70.4635
72.1465
73.7869
75.367
76.8739
78.2913
56.5871
56.6275
56.7319
56.9093
57.1693
57.5189
57.9684
58.5263
59.1887
59.9369
60.7414
61.5723
62.4059
63.2272
64.0271
64.8009
65.5449
66.2504
56.5744
56.5759
56.6063
56.6683
56.7654
56.9018
57.082
57.3101
57.5872
57.9099
58.27
58.656
59.0567
59.4628
59.8672
60.2654
60.654
61.0266
56.5686
56.5545
56.5548
56.5708
56.6024
56.6513
56.7192
56.8072
56.9163
57.0459
57.1945
57.359
57.5356
57.7208
57.9113
58.1043
58.2974
58.4865
56.565
56.5439
56.5313
56.5278
56.5325
56.5453
56.5668
56.5969
56.6359
56.6837
56.7399
56.8042
56.8755
56.9528
57.0349
57.1207
57.2088
57.2967
56.5626
56.5376
56.5191
56.5074
56.5016
56.5008
56.5049
56.5137
56.5272
56.5452
56.5675
56.5941
56.6245
56.6584
56.6953
56.7345
56.7753
56.8163
56.5609
56.5333
56.5114
56.4955
56.4849
56.4786
56.476
56.4768
56.481
56.4883
56.4983
56.511
56.5261
56.5433
56.5621
56.5822
56.6031
56.6239
56.5596
56.5303
56.5062
56.4874
56.4737
56.4644
56.4585
56.4556
56.4554
56.4576
56.462
56.4682
56.476
56.4851
56.4951
56.5058
56.5168
56.5275
56.559
56.5287
56.5032
56.4826
56.4668
56.4552
56.4472
56.4419
56.4389
56.4379
56.4385
56.4404
56.4434
56.4472
56.4516
56.4564
56.4613
56.4661
56.5591
56.5288
56.503
56.4819
56.4653
56.4527
56.4435
56.4371
56.4327
56.4298
56.4283
56.4279
56.4282
56.4293
56.4309
56.4328
56.4351
56.4376
56.5601
56.531
56.5064
56.4868
56.472
56.4615
56.4549
56.4517
56.4513
56.4532
56.4574
56.4636
56.4718
56.4818
56.4935
56.507
56.5222
56.539
56.5618
56.5354
56.515
56.5019
56.4968
56.5001
56.5119
56.532
56.5602
56.5966
56.6411
56.6932
56.7524
56.8182
56.8904
56.9684
57.0517
57.1396
56.5661
56.5504
56.5516
56.5755
56.6264
56.7069
56.8174
56.9571
57.1265
57.3237
57.5455
57.7883
58.0499
58.328
58.6204
58.925
59.2396
59.5604
56.5866
56.6341
56.7601
56.9816
57.306
57.7321
58.2514
58.8551
59.5353
60.2752
61.0628
61.8893
62.7464
63.6272
64.5261
65.4387
66.3606
67.2823
56.7135
57.1166
57.8502
58.9164
60.2858
61.9154
63.7604
65.7762
67.9163
70.1515
72.4554
74.8062
77.1879
79.5907
82.0092
84.4397
86.8786
89.3098
57.4572
59.5256
62.6747
66.7152
71.4618
76.7591
82.4803
88.5219
94.7981
101.239
107.788
114.404
121.067
127.794
134.611
141.525
148.533
155.605
61.3809
70.2479
82.3458
96.8554
113.255
131.196
150.394
170.599
191.575
213.105
235.001
257.133
279.578
302.99
327.629
353.214
379.509
406.365
81.8468
121.222
176.005
241.141
314.707
395.573
482.464
573.939
668.467
764.584
861.09
957.22
1053.66
1155.25
1263.78
1377.04
1493.29
1611.52
226.699
481.504
855.295
1292.7
1768.63
2264.49
2763.69
3252.87
3722.3
4166.26
4582.82
4973.32
5340.62
5686.34
6015.6
6335.81
6653.51
6973.02
2397.23
5352.99
8116.92
10515.5
12513.1
14140.2
15457.7
16529.1
17409.9
18145.2
18771.4
19317.2
19805.1
20252.1
20669.5
21063.4
21438.8
21793
35295.7
52773.1
60117.7
62648.8
63039.4
62498.2
61557.5
60458.6
59319.8
58203.1
57141.1
56149.3
55232.1
54386.6
53606.2
52882.8
52203.1
51558.6
193.231
196.206
202.527
211.858
223.987
238.717
255.868
275.283
296.832
320.406
346.027
373.785
403.413
434.454
466.677
499.978
534.295
569.578
605.796
642.932
680.986
719.962
759.874
800.735
842.563
885.372
929.174
973.98
1019.8
1066.63
1114.48
1163.34
1213.2
1264.06
1315.9
1368.71
1422.45
1477.11
1532.66
1589.07
1646.3
1704.32
1763.09
1822.57
1882.71
1943.46
2004.78
2066.61
2128.9
2191.61
2254.67
2318.02
2381.61
2445.38
2509.28
2573.24
2637.21
2701.12
2764.92
2828.54
2891.93
2955.03
3017.77
3080.09
3141.93
3203.23
3263.93
3323.95
3383.24
3441.73
3499.35
3556.04
3611.72
3666.34
3719.81
3772.07
3823.06
3872.71
3920.96
3967.74
4012.98
4056.63
4098.63
4138.92
4177.45
4214.15
4248.97
4281.85
4312.75
4341.59
4368.32
4392.87
4415.19
4435.2
4452.82
4467.98
4480.59
4490.56
4497.77
4502.09
4503.37
4501.41
4495.96
4487.15
4475.4
4460.65
4442.82
4421.83
4397.64
4370.19
4339.43
4305.29
4267.75
4226.75
4182.27
4134.25
4082.68
4027.54
3968.8
3906.45
3840.49
3770.92
3697.75
3620.99
3540.67
3456.82
3369.49
3278.75
3184.67
3087.35
2986.92
2883.53
2777.37
2668.65
2557.62
2444.59
2329.89
2213.93
2097.15
1980.05
1863.18
1747.14
1632.61
1520.26
1410.82
1305.05
1203.7
1107.48
1017.12
933.248
856.464
787.288
726.175
673.494
629.65
595.712
571.759
555.525
546.068
543.725
548.698
560.528
579.51
607.782
646.522
694.874
752.718
820.008
896.613
982.324
1076.84
1179.77
1290.59
1408.68
1533.32
1663.59
1798.76
1936.99
2082.96
2208.6
197.339
198.992
203.874
211.599
221.951
234.688
249.562
266.347
284.842
304.865
326.246
348.823
372.405
396.77
421.728
447.147
472.933
499.026
525.388
551.998
578.848
605.937
633.27
660.851
688.686
716.775
745.12
773.716
802.556
831.631
860.927
890.428
920.117
949.973
979.973
1010.1
1040.31
1070.6
1100.93
1131.28
1161.61
1191.9
1222.12
1252.24
1282.23
1312.06
1341.71
1371.14
1400.33
1429.26
1457.89
1486.2
1514.17
1541.78
1569.01
1595.82
1622.2
1648.14
1673.61
1698.59
1723.07
1747.02
1770.43
1793.29
1815.57
1837.26
1858.34
1878.8
1898.62
1917.79
1936.29
1954.12
1971.25
1987.69
2003.41
2018.41
2032.68
2046.22
2059.03
2071.09
2082.4
2092.97
2102.79
2111.86
2120.17
2127.73
2134.52
2140.55
2145.81
2150.3
2154
2156.92
2159.04
2160.35
2160.83
2160.49
2159.31
2157.27
2154.36
2150.59
2145.94
2140.46
2134.42
2128.06
2120.91
2112.91
2104.06
2094.33
2083.73
2072.22
2059.81
2046.47
2032.2
2016.98
2000.8
1983.63
1965.48
1946.31
1926.11
1904.86
1882.54
1859.13
1834.6
1808.94
1782.11
1754.09
1724.85
1694.39
1662.67
1629.69
1595.42
1559.86
1523.02
1484.9
1445.52
1404.92
1363.15
1320.27
1276.37
1231.56
1185.99
1139.81
1093.24
1046.49
999.834
953.572
908.031
863.563
820.547
779.373
740.441
704.152
670.9
641.076
615.119
593.677
577.174
565.547
558.568
556.515
559.47
567.162
579.681
597.28
620.012
647.449
679.324
715.404
755.423
799.072
846.004
895.843
948.191
1002.64
1058.8
1116.31
1174.98
1235.08
1299.04
1371.23
207.983
206.22
208.465
213.908
222.199
232.973
245.864
260.544
276.732
294.181
312.668
331.987
351.946
372.359
393.071
413.958
434.933
455.936
476.932
497.902
518.838
539.741
560.613
581.46
602.283
623.082
643.856
664.599
685.302
705.953
726.54
747.046
767.454
787.747
807.903
827.905
847.732
867.363
886.778
905.958
924.883
943.535
961.895
979.946
997.672
1015.06
1032.09
1048.76
1065.04
1080.94
1096.44
1111.53
1126.2
1140.46
1154.29
1167.69
1180.66
1193.19
1205.29
1216.94
1228.15
1238.92
1249.24
1259.12
1268.55
1277.55
1286.1
1294.21
1301.88
1309.11
1315.91
1322.28
1328.23
1333.76
1338.88
1343.59
1347.9
1351.83
1355.38
1358.56
1361.38
1363.85
1365.98
1367.77
1369.24
1370.39
1371.23
1371.77
1372.01
1371.95
1371.61
1370.99
1370.08
1368.91
1367.47
1365.77
1363.83
1361.65
1359.25
1356.67
1353.93
1351.12
1348.49
1345.69
1342.62
1339.27
1335.63
1331.69
1327.45
1322.89
1318.02
1312.82
1307.28
1301.4
1295.17
1288.57
1281.59
1274.22
1266.44
1258.23
1249.59
1240.48
1230.89
1220.79
1210.16
1198.98
1187.22
1174.86
1161.86
1148.19
1133.84
1118.78
1102.97
1086.4
1069.04
1050.88
1031.91
1012.11
991.503
970.092
947.909
924.998
901.421
877.263
852.632
827.663
802.52
777.397
752.518
728.138
704.538
682.022
660.917
641.582
624.405
609.845
598.237
589.724
584.379
582.444
583.838
588.426
596.24
607.357
621.701
638.954
658.821
681.033
705.313
731.366
758.89
787.585
817.16
847.345
877.909
908.699
939.732
971.514
1005.6
1045.58
227.053
217.867
215.908
218.173
223.947
232.606
243.582
256.402
270.683
286.107
302.408
319.355
336.749
354.416
372.213
390.028
407.78
425.414
442.898
460.215
477.359
494.33
511.131
527.767
544.239
560.547
576.689
592.66
608.452
624.056
639.459
654.649
669.613
684.336
698.804
713.003
726.919
740.537
753.847
766.835
779.491
791.806
803.77
815.377
826.62
837.494
847.997
858.127
867.881
877.261
886.268
894.905
903.174
911.081
918.63
925.826
932.676
939.186
945.363
951.213
956.743
961.961
966.874
971.489
975.814
979.857
983.624
987.123
990.364
993.353
996.101
998.614
1000.9
1002.98
1004.85
1006.53
1008.02
1009.34
1010.5
1011.5
1012.36
1013.09
1013.69
1014.18
1014.56
1014.83
1015.01
1015.1
1015.1
1015.03
1014.88
1014.66
1014.39
1014.06
1013.68
1013.27
1012.83
1012.38
1011.94
1011.53
1011.16
1011.04
1010.92
1010.72
1010.41
1009.98
1009.42
1008.73
1007.91
1006.94
1005.83
1004.55
1003.12
1001.51
999.728
997.756
995.587
993.21
990.614
987.787
984.716
981.386
977.782
973.89
969.691
965.168
960.304
955.079
949.472
943.464
937.032
930.154
922.808
914.972
906.624
897.742
888.308
878.305
867.722
856.549
844.786
832.44
819.529
806.081
792.142
777.775
763.062
748.107
733.039
718.015
703.22
688.858
675.16
662.41
650.873
640.838
632.506
626.114
621.864
619.844
619.988
622.212
626.562
633.108
641.761
652.266
664.379
677.879
692.552
708.18
724.545
741.439
758.668
776.064
793.496
810.909
828.383
846.379
865.84
888.804
256.543
234.546
226.421
224.454
227.181
233.506
242.552
253.645
266.268
280.018
294.577
309.685
325.131
340.74
356.377
371.937
387.344
402.549
417.522
432.247
446.721
460.942
474.915
488.644
502.131
515.377
528.381
541.138
553.645
565.893
577.874
589.581
601.004
612.134
622.962
633.48
643.681
653.558
663.106
672.32
681.198
689.737
697.938
705.801
713.329
720.524
727.392
733.938
740.169
746.093
751.718
757.054
762.111
766.898
771.427
775.707
779.751
783.567
787.167
790.562
793.761
796.774
799.611
802.282
804.795
807.16
809.384
811.477
813.446
815.301
817.049
818.698
820.258
821.735
823.139
824.478
825.76
826.992
828.183
829.338
830.464
831.569
832.656
833.731
834.8
835.865
836.931
838.001
839.079
840.167
841.269
842.388
843.529
844.696
845.895
847.134
848.419
849.759
851.165
852.648
854.299
856.024
857.73
859.386
860.976
862.495
863.936
865.295
866.567
867.744
868.823
869.798
870.661
871.406
872.027
872.517
872.866
873.069
873.115
872.995
872.7
872.22
871.544
870.662
869.561
868.231
866.659
864.832
862.737
860.36
857.686
854.701
851.387
847.727
843.707
839.308
834.516
829.316
823.695
817.643
811.153
804.222
796.854
789.057
780.852
772.269
763.352
754.157
744.756
735.248
725.757
716.41
707.35
698.813
690.923
683.856
677.773
672.812
669.175
666.951
666.09
666.534
668.343
671.608
676.277
682.155
689.053
696.807
705.267
714.286
723.719
733.43
743.294
753.208
763.097
772.949
782.851
793.155
804.402
817.66
297.027
256.152
239.68
232.386
231.531
235.29
242.351
251.776
262.885
275.175
288.264
301.858
315.728
329.696
343.627
357.42
371.005
384.335
397.383
410.137
422.592
434.75
446.614
458.19
469.48
480.488
491.214
501.656
511.813
521.682
531.258
540.537
549.516
558.191
566.558
574.616
582.364
589.801
596.929
603.75
610.268
616.487
622.413
628.054
633.417
638.513
643.351
647.942
652.297
656.429
660.35
664.074
667.612
670.978
674.183
677.241
680.164
682.962
685.647
688.23
690.719
693.126
695.458
697.724
699.932
702.089
704.203
706.279
708.325
710.346
712.348
714.338
716.32
718.301
720.287
722.281
724.291
726.319
728.371
730.449
732.559
734.702
736.881
739.099
741.357
743.657
746
748.388
750.821
753.301
755.829
758.406
761.034
763.715
766.454
769.252
772.116
775.051
778.06
781.169
784.364
787.566
790.738
793.866
796.94
799.955
802.903
805.781
808.582
811.302
813.935
816.475
818.917
821.254
823.48
825.59
827.575
829.429
831.145
832.716
834.133
835.389
836.477
837.388
838.115
838.65
838.984
839.11
839.018
838.701
838.148
837.349
836.292
834.966
833.358
831.458
829.254
826.735
823.891
820.715
817.199
813.34
809.136
804.591
799.712
794.515
789.026
783.276
777.301
771.161
764.957
758.757
752.606
746.771
741.276
736.174
731.52
727.437
724.108
721.623
719.954
719.064
719.014
719.91
721.734
724.353
727.625
731.433
735.673
740.253
745.08
750.071
755.147
760.247
765.33
770.402
775.537
780.983
787.035
794.253
349.228
282.545
255.337
241.622
236.687
237.664
242.675
250.456
260.136
271.096
282.885
295.169
307.699
320.287
332.798
345.132
357.223
369.029
380.524
391.698
402.548
413.076
423.288
433.19
442.788
452.085
461.085
469.79
478.202
486.321
494.147
501.682
508.926
515.881
522.549
528.932
535.037
540.868
546.43
551.733
556.785
561.595
566.174
570.533
574.684
578.64
582.414
586.021
589.473
592.784
595.969
599.042
602.015
604.901
607.714
610.464
613.163
615.82
618.447
621.051
623.641
626.224
628.808
631.399
634.002
636.624
639.267
641.937
644.638
647.374
650.147
652.962
655.822
658.731
661.691
664.706
667.779
670.91
674.104
677.36
680.681
684.066
687.517
691.033
694.614
698.261
701.972
705.748
709.587
713.488
717.451
721.476
725.562
729.71
733.921
738.196
742.536
746.945
751.423
755.965
760.518
765.048
769.539
773.98
778.363
782.681
786.931
791.105
795.199
799.206
803.122
806.94
810.655
814.261
817.752
821.121
824.362
827.47
830.436
833.255
835.921
838.426
840.765
842.932
844.922
846.729
848.346
849.77
850.994
852.015
852.825
853.418
853.787
853.921
853.813
853.453
852.835
851.951
850.794
849.359
847.64
845.634
843.34
840.758
837.888
834.74
831.336
827.689
823.809
819.724
815.554
811.318
807.064
802.907
798.872
794.955
791.16
787.576
784.355
781.582
779.253
777.351
775.933
775.098
774.861
775.137
775.824
776.836
778.106
779.573
781.183
782.886
784.638
786.404
788.165
789.935
791.772
793.845
796.298
799.449
413.59
313.46
273
251.822
242.368
240.385
243.286
249.43
257.731
267.443
278.041
289.148
300.49
311.872
323.153
334.237
345.058
355.577
365.773
375.635
385.165
394.366
403.244
411.808
420.066
428.024
435.689
443.065
450.158
456.973
463.513
469.785
475.792
481.542
487.04
492.295
497.315
502.11
506.69
511.066
515.251
519.257
523.098
526.788
530.339
533.768
537.088
540.313
543.459
546.539
549.567
552.557
555.52
558.47
561.416
564.369
567.338
570.332
573.358
576.422
579.533
582.694
585.911
589.189
592.53
595.938
599.415
602.963
606.585
610.282
614.057
617.91
621.843
625.859
629.958
634.142
638.412
642.77
647.215
651.748
656.368
661.074
665.865
670.741
675.699
680.739
685.859
691.055
696.326
701.669
707.081
712.561
718.106
723.715
729.386
735.119
740.913
746.768
752.651
758.533
764.389
770.201
775.957
781.648
787.267
792.809
798.267
803.634
808.906
814.076
819.139
824.09
828.922
833.629
838.206
842.645
846.939
851.084
855.073
858.899
862.557
866.042
869.348
872.472
875.409
878.155
880.706
883.057
885.208
887.156
888.898
890.43
891.747
892.842
893.704
894.33
894.715
894.854
894.742
894.376
893.751
892.866
891.721
890.314
888.64
886.701
884.532
882.132
879.509
876.686
873.718
870.632
867.463
864.261
861.033
857.755
854.407
851.045
847.784
844.702
841.811
839.112
836.656
834.531
832.767
831.319
830.116
829.098
828.216
827.432
826.714
826.036
825.374
824.712
824.047
823.395
822.801
822.38
822.184
822.427
490.127
348.499
292.264
262.679
248.343
243.26
244.007
248.516
255.468
263.985
273.463
283.481
293.742
304.038
314.224
324.206
333.919
343.327
352.411
361.164
369.588
377.688
385.474
392.956
400.142
407.044
413.669
420.026
426.124
431.971
437.573
442.941
448.083
453.008
457.727
462.251
466.591
470.76
474.772
478.639
482.376
485.999
489.52
492.955
496.319
499.626
502.892
506.13
509.354
512.578
515.815
519.077
522.376
525.721
529.121
532.586
536.122
539.735
543.431
547.215
551.092
555.064
559.135
563.308
567.584
571.964
576.449
581.039
585.734
590.534
595.44
600.453
605.571
610.796
616.128
621.567
627.113
632.768
638.531
644.4
650.376
656.455
662.637
668.92
675.303
681.782
688.355
695.018
701.766
708.595
715.499
722.476
729.52
736.629
743.797
751.023
758.304
765.584
772.832
780.037
787.184
794.26
801.256
808.163
814.975
821.685
828.286
834.773
841.14
847.38
853.488
859.459
865.288
870.968
876.493
881.854
887.045
892.061
896.895
901.543
905.998
910.256
914.314
918.168
921.818
925.258
928.482
931.49
934.283
936.861
939.224
941.368
943.293
944.996
946.458
947.68
948.661
949.397
949.886
950.125
950.109
949.84
949.319
948.547
947.522
946.248
944.738
942.995
941.027
938.85
936.492
933.975
931.321
928.551
925.662
922.622
919.407
916.045
912.618
909.189
905.784
902.414
899.127
895.995
893.056
890.294
887.662
885.119
882.629
880.166
877.712
875.253
872.781
870.29
867.786
865.288
862.831
860.494
858.275
856.349
578.418
387.164
312.733
273.924
254.426
246.147
244.712
247.589
253.212
260.568
268.974
277.965
287.22
296.52
305.715
314.709
323.442
331.879
340.002
347.808
355.299
362.484
369.374
375.979
382.313
388.386
394.211
399.798
405.159
410.304
415.244
419.991
424.556
428.952
433.191
437.287
441.254
445.107
448.86
452.529
456.129
459.675
463.182
466.666
470.14
473.619
477.117
480.648
484.225
487.86
491.566
495.353
499.232
503.21
507.296
511.495
515.813
520.254
524.822
529.518
534.347
539.309
544.406
549.638
555.006
560.508
566.143
571.91
577.806
583.831
589.983
596.261
602.664
609.191
615.841
622.612
629.507
636.524
643.663
650.925
658.307
665.809
673.43
681.17
689.028
697.001
705.085
713.276
721.565
729.947
738.412
746.955
755.568
764.245
772.98
781.766
790.522
799.196
807.794
816.309
824.729
833.042
841.238
849.31
857.252
865.056
872.718
880.23
887.588
894.784
901.815
908.676
915.362
921.869
928.19
934.312
940.229
945.937
951.432
956.707
961.759
966.584
971.178
975.542
979.677
983.583
987.24
990.656
993.834
996.777
999.487
1001.96
1004.2
1006.22
1007.97
1009.47
1010.72
1011.71
1012.45
1012.93
1013.15
1013.12
1012.84
1012.3
1011.51
1010.47
1009.19
1007.67
1005.91
1003.93
1001.74
999.365
996.811
994.088
991.188
988.083
984.747
981.194
977.474
973.64
969.721
965.735
961.725
957.751
953.854
950.033
946.264
942.518
938.77
935.001
931.2
927.362
923.484
919.569
915.626
911.678
907.751
903.902
900.098
896.501
677.693
428.898
334.038
285.332
260.471
248.941
245.316
246.566
250.876
257.094
264.464
272.475
280.783
289.158
297.447
305.552
313.413
320.998
328.291
335.291
342.001
348.432
354.595
360.504
366.172
371.614
376.843
381.871
386.713
391.381
395.889
400.25
404.478
408.588
412.593
416.511
420.356
424.144
427.893
431.617
435.335
439.06
442.807
446.593
450.429
454.329
458.305
462.372
466.54
470.821
475.226
479.765
484.446
489.278
494.266
499.414
504.724
510.2
515.842
521.651
527.627
533.77
540.08
546.554
553.191
559.986
566.936
574.037
581.285
588.678
596.212
603.884
611.692
619.631
627.7
635.896
644.219
652.668
661.246
669.952
678.788
687.755
696.856
706.094
715.472
724.991
734.648
744.435
754.341
764.355
774.465
784.66
794.928
805.264
815.655
825.959
836.118
846.149
856.055
865.83
875.462
884.933
894.238
903.37
912.323
921.093
929.674
938.061
946.248
954.231
962.006
969.568
976.917
984.051
990.97
997.643
1004.07
1010.25
1016.17
1021.84
1027.25
1032.4
1037.29
1041.91
1046.28
1050.41
1054.25
1057.81
1061.11
1064.15
1066.94
1069.47
1071.75
1073.77
1075.53
1077.02
1078.25
1079.21
1079.9
1080.32
1080.47
1080.37
1080
1079.37
1078.48
1077.34
1075.94
1074.3
1072.41
1070.29
1067.94
1065.37
1062.61
1059.64
1056.46
1053.04
1049.38
1045.46
1041.32
1037
1032.52
1027.92
1023.23
1018.49
1013.75
1009.01
1004.28
999.519
994.724
989.878
984.974
980.01
974.989
969.915
964.803
959.673
954.549
949.472
944.393
939.469
786.985
473.131
355.847
296.714
266.367
251.57
245.762
245.398
248.41
253.512
259.873
266.944
274.358
281.874
289.334
296.639
303.73
310.577
317.164
323.491
329.563
335.391
340.988
346.368
351.547
356.54
361.362
366.028
370.554
374.953
379.242
383.435
387.547
391.596
395.597
399.568
403.527
407.491
411.479
415.509
419.597
423.761
428.014
432.37
436.839
441.434
446.164
451.04
456.073
461.272
466.647
472.208
477.961
483.914
490.069
496.429
502.996
509.77
516.751
523.935
531.321
538.904
546.679
554.643
562.79
571.111
579.599
588.248
597.051
606.004
615.1
624.334
633.701
643.193
652.806
662.535
672.377
682.331
692.4
702.587
712.897
723.341
733.93
744.676
755.59
766.681
777.953
789.396
800.99
812.717
824.557
836.499
848.51
860.598
872.487
884.153
895.618
906.892
917.978
928.872
939.566
950.024
960.247
970.233
979.982
989.489
998.752
1007.77
1016.53
1025.04
1033.29
1041.28
1049.01
1056.48
1063.74
1070.67
1077.31
1083.66
1089.73
1095.5
1100.97
1106.15
1111.03
1115.62
1119.92
1123.94
1127.66
1131.09
1134.24
1137.1
1139.69
1142.01
1144.05
1145.82
1147.31
1148.52
1149.45
1150.09
1150.46
1150.55
1150.36
1149.9
1149.16
1148.16
1146.9
1145.38
1143.59
1141.55
1139.26
1136.72
1133.94
1130.93
1127.7
1124.25
1120.57
1116.65
1112.47
1108.03
1103.34
1098.44
1093.35
1088.09
1082.7
1077.22
1071.68
1066.1
1060.48
1054.8
1049.07
1043.27
1037.4
1031.46
1025.45
1019.39
1013.27
1007.14
1000.99
994.885
988.742
982.728
905.369
519.314
377.859
307.912
272.025
253.98
246.017
244.063
245.797
249.807
255.193
261.366
267.941
274.666
281.38
287.981
294.412
300.64
306.652
312.447
318.032
323.418
328.618
333.649
338.526
343.264
347.883
352.399
356.829
361.189
365.496
369.766
374.015
378.259
382.518
386.812
391.16
395.584
400.105
404.746
409.526
414.466
419.58
424.879
430.368
436.05
441.931
448.017
454.316
460.834
467.579
474.558
481.776
489.238
496.947
504.904
513.109
521.563
530.266
539.215
548.398
557.803
567.42
577.238
587.242
597.42
607.759
618.25
628.883
639.649
650.539
661.544
672.653
683.856
695.145
706.509
717.942
729.442
741.01
752.648
764.375
776.218
788.217
800.398
812.779
825.393
838.27
851.392
864.718
878.22
891.855
905.643
919.387
932.779
945.872
958.674
971.193
983.433
995.399
1007.1
1018.57
1029.67
1040.45
1050.93
1061.1
1070.97
1080.52
1089.78
1098.72
1107.36
1115.7
1123.72
1131.44
1138.85
1145.96
1152.76
1159.24
1165.39
1171.22
1176.72
1181.9
1186.76
1191.29
1195.51
1199.42
1203.02
1206.31
1209.29
1211.97
1214.36
1216.46
1218.26
1219.78
1221.01
1221.95
1222.6
1222.96
1223.02
1222.8
1222.29
1221.49
1220.42
1219.07
1217.45
1215.57
1213.42
1211
1208.33
1205.4
1202.22
1198.79
1195.13
1191.23
1187.11
1182.76
1178.16
1173.31
1168.19
1162.84
1157.25
1151.47
1145.5
1139.37
1133.13
1126.78
1120.37
1113.89
1107.34
1100.72
1094.02
1087.25
1080.41
1073.49
1066.52
1059.5
1052.46
1045.42
1038.4
1031.33
1024.39
1032.26
566.951
399.797
318.778
277.369
256.136
246.071
242.569
243.064
246.021
250.477
255.812
261.623
267.649
273.722
279.742
285.647
291.406
297.006
302.445
307.732
312.878
317.899
322.812
327.633
332.378
337.066
341.72
346.362
351.009
355.68
360.388
365.144
369.966
374.872
379.886
385.034
390.341
395.837
401.55
407.514
413.762
420.323
427.203
434.379
441.834
449.558
457.549
465.806
474.329
483.119
492.177
501.506
511.107
520.981
531.128
541.551
552.259
563.27
574.581
586.158
597.973
610
622.21
634.571
647.057
659.662
672.371
685.17
698.043
710.974
723.948
736.948
749.961
762.972
775.97
788.945
801.893
814.813
827.678
840.551
853.495
866.62
879.978
893.564
907.469
921.817
936.568
951.585
966.874
982.255
997.299
1011.92
1026.13
1039.93
1053.34
1066.36
1078.99
1091.24
1103.12
1114.64
1125.76
1136.51
1146.88
1156.88
1166.52
1175.8
1184.72
1193.29
1201.5
1209.37
1216.89
1224.07
1230.91
1237.42
1243.58
1249.41
1254.89
1260.03
1264.82
1269.27
1273.39
1277.17
1280.63
1283.77
1286.58
1289.08
1291.27
1293.15
1294.73
1296.01
1297
1297.69
1298.09
1298.19
1298
1297.51
1296.73
1295.66
1294.3
1292.65
1290.73
1288.53
1286.07
1283.34
1280.35
1277.1
1273.59
1269.82
1265.81
1261.55
1257.05
1252.33
1247.37
1242.19
1236.77
1231.11
1225.2
1219.06
1212.7
1206.14
1199.39
1192.48
1185.42
1178.25
1170.99
1163.64
1156.22
1148.72
1141.14
1133.49
1125.76
1117.98
1110.14
1102.27
1094.39
1086.51
1078.66
1070.77
1062.99
1167.82
615.661
421.411
329.183
282.347
258.038
245.963
240.99
240.317
242.299
245.917
250.521
255.694
261.166
266.767
272.392
277.981
283.501
288.937
294.29
299.57
304.796
309.988
315.168
320.348
325.543
330.774
336.069
341.463
346.992
352.673
358.517
364.496
370.614
376.893
383.363
390.056
397.01
404.263
411.86
419.859
428.344
437.44
447.187
457.405
468.004
478.934
490.171
501.703
513.516
525.583
537.902
550.465
563.26
576.276
589.53
603.029
616.786
630.812
645.085
659.561
674.211
689.002
703.903
718.867
733.813
748.787
763.786
778.794
793.79
808.751
823.657
838.486
853.217
867.829
882.303
896.624
910.783
924.785
938.646
952.389
966.068
979.771
993.627
1007.75
1022.28
1037.68
1053.79
1070.09
1086.06
1101.52
1116.49
1130.93
1144.87
1158.31
1171.25
1183.7
1195.68
1207.2
1218.27
1228.91
1239.12
1248.91
1258.29
1267.27
1275.86
1284.06
1291.89
1299.34
1306.42
1313.15
1319.51
1325.52
1331.18
1336.49
1341.46
1346.08
1350.37
1354.3
1357.91
1361.18
1364.12
1366.74
1369.03
1371.01
1372.67
1374.03
1375.08
1375.84
1376.29
1376.46
1376.33
1375.92
1375.21
1374.21
1372.92
1371.34
1369.47
1367.32
1364.89
1362.19
1359.21
1355.98
1352.48
1348.73
1344.73
1340.47
1335.96
1331.2
1326.19
1320.95
1315.48
1309.79
1303.88
1297.76
1291.41
1284.84
1278.05
1271.05
1263.83
1256.42
1248.83
1241.07
1233.17
1225.14
1217
1208.77
1200.46
1192.07
1183.61
1175.08
1166.49
1157.85
1149.18
1140.49
1131.81
1123.15
1114.53
1105.88
1097.36
1320.18
667.368
443.318
339.392
287.123
259.828
245.847
239.515
237.801
238.955
241.909
245.99
250.767
255.964
261.407
266.994
272.668
278.397
284.162
289.956
295.798
301.736
307.828
314.119
320.6
327.22
333.997
341.003
348.316
356.006
364.17
372.92
381.839
390.931
400.222
409.764
419.615
429.83
440.462
451.556
463.176
475.456
488.548
502.34
516.529
531.076
545.954
561.155
576.676
592.54
608.584
624.812
641.198
657.689
674.196
690.813
707.565
724.444
741.41
758.429
775.493
792.587
809.695
826.811
843.945
861.085
878.19
895.237
912.207
929.078
945.829
962.44
978.891
995.165
1011.24
1027.1
1042.72
1058.1
1073.24
1088.18
1102.88
1117.38
1131.74
1146.07
1161.08
1176.83
1192.74
1208.11
1222.92
1237.17
1250.84
1263.95
1276.5
1288.51
1299.99
1310.95
1321.41
1331.38
1340.88
1349.95
1358.58
1366.81
1374.63
1382.06
1389.12
1395.8
1402.12
1408.08
1413.69
1418.96
1423.89
1428.47
1432.73
1436.64
1440.24
1443.5
1446.44
1449.06
1451.35
1453.33
1455
1456.36
1457.42
1458.18
1458.65
1458.84
1458.73
1458.35
1457.69
1456.74
1455.53
1454.03
1452.26
1450.21
1447.88
1445.28
1442.4
1439.24
1435.83
1432.15
1428.22
1424.04
1419.61
1414.94
1410.03
1404.88
1399.49
1393.85
1387.98
1381.88
1375.56
1369.02
1362.28
1355.34
1348.19
1340.85
1333.31
1325.58
1317.65
1309.52
1301.21
1292.71
1284.06
1275.26
1266.33
1257.29
1248.15
1238.94
1229.65
1220.3
1210.9
1201.47
1192
1182.54
1173.08
1163.65
1154.26
1144.93
1135.59
1126.39
1474.31
714.592
462.169
347.985
291.257
261.656
246.31
239.104
236.828
237.655
240.485
244.636
249.674
255.312
261.364
267.752
274.468
281.525
288.867
296.363
304.04
312.06
320.694
330.333
340.85
351.464
362.046
372.786
383.906
395.619
408.173
421.391
434.637
448.197
462.121
476.468
491.284
506.613
522.515
538.955
555.842
573.184
590.834
608.621
626.663
645.009
663.675
682.653
701.917
721.436
741.133
760.942
780.792
800.579
820.321
840.082
859.831
879.538
899.168
918.689
938.073
957.303
976.371
995.29
1014.14
1032.85
1051.35
1069.6
1087.6
1105.32
1122.74
1139.86
1156.68
1173.2
1189.42
1205.33
1220.93
1236.25
1251.3
1266.05
1280.54
1295.1
1309.76
1324.77
1339.55
1353.77
1366.99
1379.4
1391.11
1402.2
1412.72
1422.7
1432.15
1441.1
1449.56
1457.55
1465.11
1472.25
1478.98
1485.34
1491.33
1496.97
1502.27
1507.23
1511.86
1516.17
1520.17
1523.85
1527.23
1530.3
1533.08
1535.55
1537.73
1539.6
1541.18
1542.46
1543.45
1544.14
1544.54
1544.66
1544.5
1544.07
1543.38
1542.43
1541.22
1539.76
1538.05
1536.08
1533.86
1531.38
1528.64
1525.65
1522.4
1518.88
1515.11
1511.09
1506.81
1502.3
1497.55
1492.57
1487.35
1481.91
1476.25
1470.36
1464.25
1457.91
1451.35
1444.57
1437.57
1430.36
1422.96
1415.36
1407.58
1399.61
1391.47
1383.14
1374.63
1365.94
1357.05
1347.98
1338.74
1329.33
1319.77
1310.07
1300.25
1290.33
1280.31
1270.23
1260.09
1249.9
1239.69
1229.48
1219.27
1209.08
1198.93
1188.82
1178.78
1168.83
1158.89
1149.1
1629.77
757.006
478.149
355.494
295.571
264.657
248.844
241.671
239.802
241.345
245.182
250.688
257.499
265.273
273.63
282.593
292.449
303.722
316.423
329.059
341.58
354.495
368.561
384.406
401.09
417.472
433.85
450.511
467.616
485.242
503.355
521.68
540.551
560.058
580.231
601.042
622.447
644.398
666.847
689.73
712.964
736.474
760.153
783.897
807.677
831.473
855.256
878.987
902.624
926.117
949.411
972.452
995.207
1017.71
1040.13
1062.33
1084.2
1105.69
1126.75
1147.36
1167.5
1187.15
1206.32
1225
1243.23
1260.99
1278.28
1295.08
1311.41
1327.25
1342.62
1357.52
1371.99
1386.09
1399.8
1413.11
1426.04
1438.82
1451.42
1463.72
1475.74
1487.43
1499.1
1510.51
1521.23
1531.09
1540.19
1548.63