/*--------------------------------*- C++ -*----------------------------------*\
| =========                 |                                                 |
| \\      /  F ield         | OpenFOAM: The Open Source CFD Toolbox           |
|  \\    /   O peration     | Version:  2112                                  |
|   \\  /    A nd           | Website:  www.openfoam.com                      |
|    \\/     M anipulation  |                                                 |
\*---------------------------------------------------------------------------*/
FoamFile
{
    version     2.0;
    format      ascii;
    arch        "LSB;label=32;scalar=64";
    class       volScalarField;
    location    "0.24";
    object      kU;
}
// * * * * * * * * * * * * * * * * * * * * * * * * * * * * * * * * * * * * * //

dimensions      [0 2 -2 0 0 0 0];

internalField   nonuniform List<scalar> 
12225
(
0.750468
1.07664
1.29988
1.43597
1.50951
1.54211
1.54947
1.54217
1.52704
1.5083
1.48843
1.46884
1.45027
1.43307
1.41735
1.40316
1.39008
1.38029
0.430154
0.46461
0.482339
0.494684
0.504869
0.513244
0.520487
0.52734
0.534342
0.541806
0.549877
0.558587
0.567895
0.577719
0.587976
0.598576
0.609859
0.621706
0.390057
0.40542
0.406834
0.401058
0.3926
0.383167
0.373524
0.364152
0.35538
0.347417
0.34038
0.33432
0.329237
0.325101
0.321859
0.319465
0.317864
0.316955
0.3771
0.379662
0.379957
0.377713
0.373671
0.368555
0.362814
0.356736
0.350525
0.344332
0.338268
0.332412
0.326819
0.321526
0.316555
0.311916
0.307613
0.30365
0.374053
0.373479
0.372435
0.370665
0.368179
0.365118
0.361646
0.357905
0.354002
0.350022
0.346027
0.342066
0.338175
0.334383
0.33071
0.32717
0.323775
0.320551
0.373178
0.371589
0.369997
0.368206
0.366158
0.363873
0.361394
0.358771
0.35605
0.353272
0.350469
0.347671
0.344898
0.342168
0.339496
0.336893
0.334368
0.331949
0.372916
0.370945
0.369082
0.367226
0.365326
0.363362
0.361334
0.359252
0.35713
0.354987
0.352837
0.350696
0.348576
0.346486
0.344434
0.34243
0.340478
0.338605
0.372837
0.370723
0.368733
0.366825
0.364965
0.36313
0.361307
0.359489
0.357679
0.355879
0.354096
0.352333
0.350598
0.348893
0.347225
0.345595
0.34401
0.34249
0.372813
0.370647
0.368604
0.366663
0.364805
0.363016
0.361281
0.359591
0.357939
0.356324
0.354745
0.353201
0.351693
0.350222
0.348789
0.347396
0.346044
0.344751
0.372805
0.37062
0.368554
0.366595
0.364733
0.362956
0.361255
0.35962
0.358045
0.356524
0.355053
0.35363
0.352253
0.350919
0.349628
0.34838
0.347174
0.346025
0.372801
0.370609
0.368533
0.366565
0.364697
0.362921
0.36123
0.359616
0.358073
0.356595
0.355177
0.353815
0.352507
0.351249
0.350039
0.348874
0.347755
0.346692
0.372799
0.370603
0.368523
0.36655
0.364678
0.3629
0.36121
0.359602
0.358068
0.356605
0.355208
0.353871
0.352593
0.351369
0.350196
0.349072
0.347995
0.346976
0.372798
0.3706
0.368516
0.36654
0.364665
0.362885
0.361193
0.359585
0.358054
0.356596
0.355206
0.35388
0.352615
0.351407
0.350252
0.349148
0.348094
0.347098
0.372796
0.370596
0.368511
0.366532
0.364654
0.362872
0.361178
0.359568
0.358036
0.356578
0.35519
0.353867
0.352606
0.351403
0.350255
0.34916
0.348115
0.347131
0.372795
0.370594
0.368506
0.366525
0.364645
0.36286
0.361164
0.359551
0.358018
0.356558
0.355168
0.353845
0.352583
0.351381
0.350234
0.34914
0.348098
0.347116
0.372794
0.370592
0.368503
0.36652
0.364638
0.362851
0.361152
0.359538
0.358002
0.35654
0.355148
0.353823
0.35256
0.351356
0.350207
0.349112
0.348069
0.347086
0.372794
0.37059
0.3685
0.366516
0.364633
0.362844
0.361143
0.359527
0.357989
0.356525
0.355132
0.353804
0.352539
0.351333
0.350183
0.349087
0.348041
0.347057
0.372794
0.37059
0.368498
0.366514
0.364629
0.362839
0.361137
0.359519
0.35798
0.356515
0.35512
0.353791
0.352525
0.351317
0.350166
0.349068
0.348021
0.347035
0.372793
0.370589
0.368498
0.366513
0.364628
0.362837
0.361135
0.359517
0.357977
0.356511
0.355115
0.353786
0.352518
0.35131
0.350158
0.349059
0.348011
0.347025
0.372794
0.37059
0.368499
0.366515
0.36463
0.36284
0.361138
0.35952
0.357981
0.356515
0.35512
0.35379
0.352523
0.351315
0.350163
0.349064
0.348017
0.34703
0.372794
0.370591
0.368501
0.366518
0.364634
0.362845
0.361145
0.359528
0.35799
0.356526
0.355131
0.353803
0.352537
0.351329
0.350177
0.349078
0.348031
0.347044
0.372795
0.370594
0.368505
0.366524
0.364644
0.362858
0.36116
0.359547
0.358011
0.35655
0.355157
0.353829
0.352562
0.351353
0.350198
0.349095
0.348041
0.347048
0.372797
0.370599
0.368517
0.366544
0.364674
0.362899
0.361212
0.359607
0.358077
0.356616
0.35522
0.353883
0.352602
0.351374
0.350196
0.349064
0.347978
0.346949
0.372803
0.370624
0.368574
0.366641
0.364811
0.363072
0.361411
0.359817
0.358281
0.356796
0.355358
0.353964
0.352613
0.351301
0.350028
0.348794
0.347598
0.346454
0.372843
0.370773
0.368877
0.367099
0.365394
0.363725
0.362074
0.360429
0.358791
0.35716
0.35554
0.353936
0.352352
0.350792
0.34926
0.347758
0.346291
0.344875
0.373091
0.371553
0.370232
0.368908
0.367434
0.365764
0.36392
0.361944
0.359878
0.357754
0.355598
0.353431
0.351268
0.349124
0.347008
0.344929
0.342894
0.340923
0.374427
0.375208
0.375647
0.374916
0.373154
0.370726
0.367892
0.364804
0.361557
0.358219
0.354836
0.351446
0.348078
0.344755
0.341496
0.338315
0.335225
0.332247
0.381835
0.392093
0.394818
0.392649
0.388502
0.383572
0.378281
0.372805
0.367252
0.361706
0.356238
0.35091
0.345771
0.340859
0.336203
0.331822
0.327725
0.32393
0.406456
0.423889
0.430721
0.434524
0.438242
0.4419
0.445338
0.448522
0.451486
0.454282
0.456971
0.459613
0.462262
0.464959
0.467734
0.470617
0.473641
0.476879
0.567246
0.749199
0.895033
1.00575
1.09724
1.16979
1.22497
1.26504
1.29252
1.30988
1.31933
1.32275
1.32168
1.31735
1.31074
1.30257
1.29341
1.28369
0.00361245
0.006013
0.00802948
0.00971839
0.0110816
0.0121754
0.0130767
0.0139109
0.0148003
0.015703
0.016622
0.0175677
0.0185558
0.0196051
0.0207588
0.0221472
0.0238882
0.0258329
0.0279276
0.0301591
0.0325295
0.035045
0.0377116
0.0405343
0.0435166
0.0466608
0.0499676
0.0534369
0.0570675
0.0608572
0.0648036
0.0689036
0.0731541
0.0775519
0.0820941
0.0867781
0.091602
0.0965648
0.101667
0.106909
0.112296
0.117835
0.123535
0.129412
0.135489
0.141796
0.148376
0.155212
0.162223
0.169406
0.17676
0.184288
0.191989
0.199863
0.20791
0.216129
0.224521
0.233083
0.241814
0.250712
0.259775
0.269001
0.278386
0.287927
0.29762
0.307461
0.317445
0.327568
0.337824
0.348206
0.35871
0.369328
0.380053
0.390879
0.401797
0.412801
0.42388
0.435028
0.446236
0.457494
0.468795
0.480127
0.491483
0.502853
0.514227
0.525596
0.536949
0.548277
0.55957
0.570818
0.582011
0.593137
0.604188
0.615151
0.626017
0.636773
0.64741
0.657918
0.668287
0.678516
0.688608
0.698582
0.708485
0.718208
0.727702
0.73697
0.746006
0.754799
0.763338
0.771611
0.779606
0.787313
0.794719
0.801814
0.808588
0.815032
0.821135
0.826889
0.832286
0.837319
0.841979
0.84626
0.850158
0.853665
0.856779
0.859495
0.861811
0.863722
0.865229
0.86633
0.867024
0.867313
0.867197
0.866679
0.865761
0.864447
0.862742
0.86065
0.858177
0.85533
0.852115
0.848541
0.844616
0.840349
0.83575
0.83083
0.825598
0.820067
0.814249
0.808154
0.801797
0.79519
0.788346
0.781278
0.774002
0.766531
0.758878
0.751058
0.743086
0.734971
0.726739
0.718391
0.709956
0.701442
0.692852
0.684284
0.675966
0.670866
0.667334
0.663853
0.660355
0.656833
0.653281
0.649679
0.645981
0.642088
0.637776
0.632466
0.624798
0.608001
0.00778573
0.0122417
0.0164487
0.0198725
0.0228196
0.025508
0.028105
0.0306706
0.0332132
0.0358601
0.0386785
0.0416554
0.044816
0.048168
0.0517156
0.0554668
0.0594237
0.0635734
0.0679083
0.0724276
0.0771348
0.0820348
0.0871325
0.0924323
0.0979386
0.103655
0.109585
0.115734
0.122104
0.1287
0.135528
0.142591
0.149896
0.157447
0.165249
0.173308
0.181629
0.190217
0.199078
0.208217
0.217638
0.227348
0.237351
0.247651
0.258252
0.269158
0.280369
0.291883
0.303699
0.31582
0.32825
0.340993
0.35405
0.367426
0.381122
0.395139
0.409481
0.424146
0.439137
0.454452
0.470092
0.486055
0.50234
0.518943
0.535863
0.553095
0.570636
0.588479
0.60662
0.625051
0.643766
0.662757
0.682014
0.70153
0.721292
0.741292
0.761517
0.781956
0.802595
0.823423
0.844425
0.865587
0.886895
0.908334
0.929889
0.951545
0.973284
0.995093
1.01695
1.03885
1.06076
1.08268
1.10458
1.12645
1.14827
1.17002
1.19168
1.21324
1.23467
1.25595
1.27706
1.29797
1.31849
1.33864
1.35849
1.37805
1.39728
1.41618
1.43471
1.45286
1.47059
1.4879
1.50474
1.52111
1.53698
1.55233
1.56714
1.58139
1.59506
1.60813
1.62058
1.6324
1.64357
1.65409
1.66392
1.67307
1.68153
1.68927
1.6963
1.70261
1.70819
1.71303
1.71713
1.7205
1.72313
1.72502
1.72617
1.72659
1.72628
1.72525
1.7235
1.72106
1.71792
1.71409
1.7096
1.70446
1.69868
1.69228
1.68527
1.67768
1.66953
1.66083
1.65161
1.64189
1.6317
1.62105
1.60998
1.59851
1.58666
1.57445
1.56193
1.5491
1.53602
1.52269
1.50909
1.49548
1.48184
1.46872
1.45584
1.44295
1.43001
1.41704
1.40403
1.391
1.37792
1.36475
1.35133
1.3376
1.32218
1.30333
0.0117597
0.018756
0.0247158
0.029389
0.033441
0.0372061
0.0407844
0.0442746
0.0478113
0.0514887
0.0553642
0.0594622
0.0637911
0.068348
0.0731258
0.0781176
0.0833167
0.0887174
0.0943182
0.100122
0.106135
0.112367
0.118828
0.125529
0.132482
0.139698
0.147191
0.154971
0.163051
0.171441
0.180153
0.189195
0.198579
0.20831
0.218398
0.228847
0.239663
0.250852
0.262415
0.274358
0.286682
0.29939
0.312484
0.325964
0.339831
0.354087
0.36873
0.383763
0.399187
0.415005
0.431219
0.447833
0.464849
0.482268
0.500093
0.518324
0.536961
0.556005
0.575455
0.59531
0.615569
0.636228
0.657285
0.678736
0.700576
0.7228
0.745402
0.768375
0.79171
0.8154
0.839435
0.863804
0.888496
0.913499
0.938801
0.964387
0.990243
1.01635
1.0427
1.06928
1.09606
1.12302
1.15016
1.17744
1.20486
1.23239
1.26001
1.2877
1.31544
1.34322
1.371
1.39877
1.42651
1.45419
1.4818
1.50931
1.5367
1.56396
1.59105
1.61796
1.64466
1.67111
1.69717
1.72288
1.74822
1.77319
1.79775
1.82188
1.84554
1.8687
1.89134
1.91342
1.93491
1.9558
1.97604
1.99561
2.01448
2.03264
2.05005
2.06669
2.08254
2.09757
2.11178
2.12513
2.13762
2.14922
2.15993
2.16973
2.1786
2.18655
2.19357
2.19964
2.20476
2.20894
2.21216
2.21444
2.21577
2.21616
2.21562
2.21415
2.21177
2.20849
2.20431
2.19927
2.19336
2.18662
2.17906
2.1707
2.16157
2.15169
2.14109
2.12979
2.11782
2.10521
2.09199
2.07819
2.06384
2.04897
2.03363
2.0178
2.0016
1.98497
1.96804
1.95087
1.93344
1.91586
1.89822
1.88075
1.86339
1.846
1.82858
1.81113
1.79368
1.77625
1.75887
1.74156
1.72427
1.70712
1.68943
1.67121
0.0150272
0.0255192
0.0331097
0.0388461
0.0437721
0.0482234
0.0524349
0.0565911
0.0608186
0.0652049
0.0698048
0.0746462
0.0797371
0.0850734
0.0906463
0.0964464
0.102468
0.108708
0.115172
0.121865
0.128802
0.135995
0.143461
0.151217
0.15928
0.167666
0.176393
0.185474
0.194923
0.204754
0.214977
0.225602
0.236638
0.248091
0.259967
0.272271
0.285007
0.298177
0.311783
0.325829
0.340313
0.355239
0.370607
0.386417
0.402671
0.419369
0.436513
0.454104
0.472145
0.490639
0.509589
0.528997
0.548866
0.569199
0.589997
0.611261
0.632993
0.655194
0.677861
0.700996
0.724597
0.748661
0.773185
0.798166
0.823599
0.849479
0.875799
0.902551
0.929728
0.95732
0.985317
1.01371
1.04248
1.07162
1.10111
1.13093
1.16108
1.19153
1.22227
1.25327
1.28452
1.31599
1.34766
1.37952
1.41153
1.44368
1.47593
1.50828
1.54069
1.57313
1.60559
1.63804
1.67045
1.7028
1.73507
1.76722
1.79924
1.8311
1.86278
1.89425
1.92549
1.95636
1.98685
2.01694
2.04661
2.07583
2.10456
2.13279
2.16045
2.18753
2.21399
2.23978
2.26488
2.28924
2.31285
2.33566
2.35765
2.37878
2.39902
2.41835
2.43675
2.45418
2.47062
2.48606
2.50047
2.51384
2.52615
2.53738
2.54752
2.55657
2.56451
2.57133
2.57704
2.58164
2.58511
2.58746
2.58871
2.58884
2.58788
2.58583
2.5827
2.57852
2.57329
2.56703
2.55977
2.55153
2.54233
2.53219
2.52115
2.50923
2.49647
2.48289
2.46853
2.45342
2.43759
2.42109
2.40394
2.3862
2.36791
2.34901
2.32974
2.31004
2.28998
2.2696
2.24895
2.22809
2.20712
2.18618
2.16526
2.14432
2.12335
2.10238
2.08145
2.06062
2.03993
2.01949
1.99935
1.97976
1.96044
1.94175
0.0176942
0.0319317
0.0411278
0.0479105
0.0535154
0.0585335
0.0632816
0.0679559
0.0726895
0.0775736
0.0826672
0.0880031
0.0935947
0.0994431
0.105544
0.111892
0.118485
0.125326
0.132422
0.139785
0.147431
0.155377
0.163642
0.172246
0.181207
0.190543
0.20027
0.210403
0.220957
0.231941
0.243368
0.255245
0.267579
0.280376
0.293642
0.307379
0.321592
0.336283
0.351454
0.367106
0.383243
0.399864
0.416973
0.434571
0.452659
0.471241
0.490319
0.509895
0.529973
0.550558
0.571652
0.593261
0.615386
0.638033
0.661203
0.6849
0.709125
0.733881
0.759168
0.784987
0.811336
0.838216
0.865624
0.893557
0.922012
0.950982
0.980463
1.01045
1.04093
1.07189
1.10333
1.13523
1.16758
1.20036
1.23356
1.26716
1.30114
1.33549
1.37018
1.40518
1.44048
1.47606
1.51188
1.54792
1.58415
1.62055
1.6571
1.69375
1.73048
1.76727
1.80408
1.84089
1.87767
1.91439
1.95101
1.98751
2.02387
2.06004
2.09601
2.13173
2.16718
2.20219
2.23678
2.27091
2.30457
2.33771
2.37029
2.40228
2.43362
2.46429
2.49424
2.52343
2.55181
2.57935
2.60602
2.63177
2.65657
2.68039
2.70318
2.72493
2.7456
2.76516
2.78359
2.80087
2.81696
2.83186
2.84554
2.858
2.8692
2.87916
2.88784
2.89526
2.9014
2.90626
2.90985
2.91216
2.9132
2.91299
2.91153
2.90883
2.9049
2.89978
2.89347
2.88599
2.87738
2.86765
2.85684
2.84497
2.83208
2.8182
2.80335
2.78759
2.77096
2.75347
2.73516
2.71613
2.69634
2.67587
2.65484
2.63321
2.6111
2.58852
2.56553
2.54218
2.51852
2.49461
2.47054
2.44642
2.42226
2.39807
2.37387
2.34971
2.32563
2.30171
2.27806
2.25481
2.23212
2.21028
2.1892
2.16917
0.0197161
0.0378097
0.0484988
0.0561002
0.0623464
0.067906
0.0731266
0.0782236
0.0833428
0.0885851
0.0940185
0.0996848
0.105607
0.111794
0.118251
0.124978
0.131979
0.139261
0.146834
0.154713
0.162914
0.171455
0.180356
0.189637
0.199314
0.209405
0.219926
0.23089
0.24231
0.254196
0.266558
0.279404
0.29274
0.306573
0.320906
0.335745
0.351094
0.366955
0.383332
0.400228
0.417646
0.435589
0.454061
0.473066
0.492606
0.512686
0.53331
0.554484
0.576212
0.5985
0.621353
0.644777
0.668777
0.693358
0.718526
0.744284
0.770636
0.797587
0.825138
0.853292
0.882051
0.911413
0.94138
0.971949
1.00312
1.03488
1.06723
1.10017
1.13368
1.16776
1.2024
1.23757
1.27327
1.30949
1.3462
1.38338
1.42102
1.45909
1.49757
1.53643
1.57565
1.61519
1.65504
1.69515
1.73551
1.77607
1.8168
1.85767
1.89865
1.93971
1.98081
2.02191
2.06299
2.10401
2.14493
2.18572
2.22635
2.26678
2.30698
2.34691
2.38644
2.42552
2.46412
2.50221
2.53975
2.57671
2.61304
2.64869
2.68361
2.71776
2.75109
2.78356
2.81512
2.84573
2.87534
2.90391
2.93141
2.95779
2.98302
3.00707
3.0299
3.05147
3.07177
3.09076
3.10842
3.12473
3.13968
3.15324
3.1654
3.17615
3.18548
3.19338
3.19985
3.20489
3.2085
3.21069
3.21146
3.21082
3.20879
3.20537
3.2006
3.19448
3.18704
3.17831
3.16832
3.15709
3.14464
3.13103
3.11629
3.10045
3.08354
3.06561
3.04673
3.02689
3.00614
2.98462
2.96231
2.93927
2.91558
2.89126
2.86639
2.841
2.81516
2.78892
2.76233
2.73547
2.7084
2.68122
2.65396
2.62667
2.59939
2.57216
2.54507
2.51823
2.49174
2.46581
2.44062
2.4165
2.3934
2.37146
0.0213176
0.0428624
0.0547847
0.0632061
0.070075
0.076136
0.0817739
0.0872251
0.0926498
0.0981605
0.103836
0.109729
0.115873
0.122289
0.128988
0.13598
0.143274
0.150879
0.158809
0.167078
0.175703
0.184703
0.194094
0.203895
0.214122
0.224791
0.235916
0.247511
0.259586
0.272152
0.285218
0.298792
0.31288
0.327491
0.342628
0.358299
0.374507
0.391259
0.408558
0.426411
0.444822
0.463796
0.483338
0.503455
0.524153
0.545437
0.567316
0.589795
0.612882
0.636584
0.66091
0.685868
0.711464
0.737707
0.764603
0.792159
0.820383
0.849279
0.878852
0.909107
0.940048
0.971675
1.00399
1.037
1.07069
1.10506
1.14012
1.17585
1.21225
1.2493
1.287
1.32534
1.36429
1.40384
1.44397
1.48466
1.52588
1.56762
1.60984
1.65252
1.69562
1.73912
1.78297
1.82715
1.87162
1.91633
1.96126
2.00637
2.05161
2.09694
2.14234
2.18776
2.23316
2.27849
2.32373
2.36883
2.41374
2.45844
2.50287
2.54699
2.59062
2.63374
2.67634
2.71837
2.75978
2.80054
2.84058
2.87985
2.91831
2.9559
2.99257
3.02827
3.06294
3.09655
3.12904
3.16037
3.19049
3.21937
3.24696
3.27322
3.29812
3.32162
3.3437
3.36432
3.38346
3.40109
3.41721
3.43179
3.44481
3.45627
3.46616
3.47446
3.48118
3.48631
3.48987
3.49185
3.49227
3.49114
3.48847
3.48428
3.47859
3.47143
3.46281
3.45278
3.44136
3.42859
3.41449
3.3991
3.38249
3.36468
3.34568
3.32558
3.30446
3.28233
3.25924
3.23527
3.21046
3.18486
3.15855
3.13156
3.10396
3.0758
3.04715
3.01806
2.9886
2.95882
2.92881
2.89863
2.86837
2.83806
2.80776
2.77756
2.74755
2.71783
2.68858
2.66
2.6323
2.6058
2.58043
2.55624
0.0244138
0.0472595
0.0601295
0.0692224
0.0766167
0.0831065
0.0891001
0.0948482
0.100521
0.106242
0.112098
0.118153
0.124451
0.131022
0.137887
0.145062
0.15256
0.160395
0.16858
0.177132
0.186065
0.195398
0.205145
0.215324
0.225948
0.237034
0.248594
0.26064
0.273183
0.286235
0.299803
0.313897
0.328525
0.343695
0.359414
0.37569
0.392529
0.409938
0.427926
0.446498
0.465663
0.485429
0.505802
0.526793
0.548409
0.57066
0.593555
0.617105
0.641318
0.666206
0.69178
0.718049
0.745025
0.772717
0.801137
0.830293
0.860194
0.890851
0.922269
0.954455
0.987417
1.02116
1.05568
1.09099
1.12708
1.16395
1.20161
1.24003
1.27923
1.31918
1.35989
1.40132
1.44347
1.48631
1.52984
1.57401
1.61881
1.66421
1.71018
1.75668
1.80368
1.85115
1.89903
1.9473
1.99591
2.04482
2.09398
2.14335
2.19289
2.24254
2.29228
2.34204
2.39179
2.44148
2.49106
2.54049
2.58972
2.6387
2.6874
2.73566
2.78339
2.83057
2.87716
2.92311
2.96837
3.01289
3.05661
3.09947
3.14142
3.1824
3.22235
3.26122
3.29894
3.33548
3.37077
3.40478
3.43744
3.46872
3.49858
3.52697
3.55385
3.57919
3.60295
3.6251
3.64561
3.66448
3.68167
3.69716
3.71096
3.72303
3.73338
3.74199
3.74886
3.754
3.75742
3.75912
3.75911
3.75741
3.75403
3.749
3.74235
3.73408
3.72423
3.71285
3.69997
3.68563
3.66983
3.65263
3.63414
3.61436
3.59332
3.57111
3.54777
3.52336
3.49793
3.47154
3.44425
3.41612
3.38721
3.35758
3.32729
3.2964
3.26498
3.23309
3.20078
3.16814
3.13523
3.10213
3.06892
3.03566
3.00243
2.96932
2.93643
2.90391
2.87193
2.8407
2.81045
2.78147
2.75364
2.727
0.0275229
0.0508841
0.0644725
0.0741005
0.0819222
0.0887658
0.0950553
0.10105
0.106927
0.112816
0.118812
0.124987
0.131394
0.13807
0.145044
0.152338
0.159969
0.167954
0.176308
0.185046
0.194183
0.203735
0.213716
0.224142
0.235027
0.246384
0.258226
0.270565
0.283412
0.296778
0.310673
0.325108
0.340092
0.355635
0.371745
0.388432
0.405706
0.423577
0.442053
0.461146
0.480865
0.501221
0.522226
0.54389
0.566226
0.589246
0.612963
0.63739
0.662541
0.688429
0.715069
0.742474
0.770658
0.799635
0.829418
0.860022
0.891457
0.923736
0.956869
0.990866
1.02574
1.06149
1.09812
1.13564
1.17406
1.21336
1.25355
1.29463
1.33658
1.3794
1.42308
1.46759
1.51293
1.55907
1.60599
1.65366
1.70205
1.75113
1.80087
1.85122
1.90215
1.95361
2.00557
2.05796
2.11075
2.16388
2.21731
2.27098
2.32484
2.37884
2.43293
2.48706
2.54118
2.59523
2.64916
2.70292
2.75646
2.80973
2.86265
2.91502
2.96682
3.018
3.06853
3.11834
3.16739
3.21561
3.26294
3.30931
3.35467
3.39894
3.44206
3.48399
3.52466
3.56401
3.60199
3.63855
3.67363
3.7072
3.73919
3.76958
3.79831
3.82535
3.85066
3.87421
3.89598
3.91594
3.93408
3.95037
3.96481
3.97738
3.98808
3.99689
4.00381
4.00886
4.01204
4.01337
4.01285
4.0105
4.00634
4.00041
3.99272
3.9833
3.97216
3.95939
3.94502
3.92908
3.91161
3.89265
3.87228
3.85055
3.82749
3.80317
3.77765
3.75098
3.72323
3.69447
3.66474
3.63411
3.60266
3.57043
3.53751
3.50395
3.46981
3.43517
3.40009
3.36465
3.32891
3.29297
3.25689
3.22076
3.18467
3.14872
3.11304
3.07777
3.04309
3.00923
2.97641
2.94486
2.91447
2.88526
0.0303233
0.0537008
0.0678095
0.0778477
0.0860037
0.0931284
0.0996556
0.10585
0.111892
0.117915
0.12402
0.130283
0.136764
0.143506
0.150544
0.157905
0.165609
0.173676
0.18212
0.190958
0.200204
0.209874
0.21998
0.230537
0.241558
0.253057
0.265046
0.277538
0.290544
0.304077
0.318147
0.332767
0.347949
0.363703
0.380041
0.396976
0.414519
0.432683
0.45148
0.470924
0.491029
0.511809
0.533278
0.555451
0.578344
0.601974
0.626355
0.651507
0.677445
0.704188
0.731754
0.76016
0.789424
0.819564
0.850598
0.882541
0.91541
0.949221
0.983987
1.01972
1.05643
1.09413
1.13283
1.17253
1.21323
1.25494
1.29765
1.34137
1.38607
1.43176
1.47842
1.52603
1.57458
1.62404
1.67437
1.72557
1.77758
1.83037
1.88391
1.93815
1.99303
2.04853
2.10458
2.16112
2.21811
2.27548
2.33318
2.39115
2.44933
2.50767
2.5661
2.62457
2.68302
2.74139
2.79963
2.85768
2.91548
2.97298
3.02997
3.08636
3.14212
3.1972
3.25155
3.30511
3.35782
3.4096
3.46039
3.51012
3.55871
3.60611
3.65225
3.69706
3.74049
3.78247
3.82295
3.86188
3.89919
3.93485
3.9688
4.001
4.03141
4.05997
4.08665
4.11143
4.13427
4.15516
4.17408
4.19101
4.20594
4.21887
4.22977
4.23865
4.2455
4.25034
4.25317
4.25402
4.25289
4.24981
4.24479
4.23789
4.22911
4.2185
4.20608
4.19192
4.17605
4.15852
4.13937
4.11866
4.09645
4.07279
4.04774
4.02135
3.99369
3.96483
3.93482
3.90373
3.87164
3.83859
3.80467
3.76993
3.73445
3.6983
3.66154
3.62425
3.58649
3.54834
3.50988
3.47119
3.43235
3.39346
3.35462
3.31593
3.27753
3.23958
3.20227
3.16581
3.13042
3.0963
3.06329
3.03147
0.0327794
0.0557544
0.0701997
0.0805294
0.0889293
0.0962631
0.10297
0.109316
0.115484
0.121608
0.127792
0.134115
0.14064
0.147415
0.154479
0.161861
0.169586
0.177672
0.186138
0.195
0.204271
0.213966
0.224099
0.234684
0.245733
0.25726
0.269279
0.281802
0.294842
0.308413
0.322528
0.337201
0.352445
0.368275
0.384704
0.401748
0.419422
0.437741
0.456723
0.476383
0.496739
0.517809
0.539611
0.562166
0.585492
0.60961
0.634541
0.660306
0.686927
0.714426
0.742825
0.772146
0.802412
0.833645
0.865865
0.899094
0.933352
0.968657
1.00503
1.04248
1.08102
1.12067
1.16143
1.20332
1.24633
1.29047
1.33573
1.38212
1.42962
1.47822
1.5279
1.57866
1.63045
1.68327
1.73707
1.79183
1.8475
1.90404
1.96141
2.01955
2.07842
2.13795
2.19809
2.25879
2.31996
2.38155
2.44348
2.50571
2.56815
2.63074
2.69343
2.75615
2.81884
2.88142
2.94385
3.00606
3.06799
3.12949
3.19037
3.2506
3.31013
3.36891
3.42687
3.48395
3.54008
3.5952
3.64921
3.70204
3.75362
3.80389
3.85277
3.90021
3.94613
3.99047
4.03319
4.07421
4.11349
4.15097
4.18662
4.22038
4.25221
4.28205
4.30986
4.33562
4.35932
4.38092
4.40041
4.41778
4.43301
4.44612
4.45706
4.46584
4.47246
4.47695
4.47932
4.47958
4.47775
4.47386
4.46793
4.46
4.45011
4.43828
4.42455
4.40899
4.39163
4.37253
4.35174
4.32931
4.30529
4.27976
4.25277
4.22439
4.19468
4.1637
4.13152
4.09821
4.06385
4.02849
3.99221
3.95508
3.91718
3.87856
3.83931
3.7995
3.75919
3.71847
3.67742
3.63612
3.59466
3.55315
3.51168
3.47038
3.42939
3.38887
3.34902
3.31004
3.27212
3.23545
3.19985
3.16544
0.0348886
0.0571187
0.0717356
0.0822467
0.0908043
0.0982762
0.105103
0.111552
0.117805
0.123995
0.130227
0.13658
0.14312
0.149897
0.15695
0.164312
0.172009
0.180061
0.188487
0.197304
0.206526
0.216167
0.226242
0.236764
0.247747
0.259205
0.271153
0.283604
0.296573
0.310076
0.324128
0.338744
0.353942
0.369738
0.38615
0.403196
0.420894
0.439264
0.458327
0.478103
0.498614
0.519883
0.541932
0.564787
0.58847
0.613008
0.638425
0.664748
0.692003
0.720218
0.749419
0.779633
0.810888
0.843208
0.876621
0.911151
0.946821
0.983653
1.02167
1.06089
1.10132
1.14299
1.18589
1.23004
1.27545
1.3221
1.37
1.41915
1.46952
1.52112
1.57391
1.62789
1.68301
1.73926
1.79658
1.85495
1.91431
1.97463
2.03584
2.09789
2.16072
2.22426
2.28846
2.35324
2.41853
2.48424
2.55031
2.61666
2.68322
2.74992
2.8167
2.88348
2.9502
3.01679
3.08319
3.14932
3.21509
3.28024
3.34472
3.40848
3.47146
3.53361
3.59484
3.65509
3.7143
3.7724
3.82927
3.88484
3.93904
3.9918
4.04305
4.09272
4.14076
4.1871
4.23167
4.27443
4.31531
4.35427
4.39126
4.42625
4.4592
4.48999
4.51862
4.54507
4.56933
4.59137
4.61117
4.62873
4.64404
4.65708
4.66786
4.67637
4.68262
4.68662
4.6884
4.68797
4.68535
4.68057
4.67367
4.66467
4.65362
4.64056
4.62553
4.60857
4.58975
4.56912
4.54672
4.52262
4.49688
4.46957
4.44074
4.41046
4.3788
4.34582
4.31161
4.27622
4.23973
4.20222
4.16374
4.12438
4.08422
4.04331
4.00174
3.95958
3.91691
3.8738
3.83034
3.78662
3.74273
3.69877
3.65485
3.61111
3.56768
3.52474
3.48247
3.44107
3.40073
3.36159
3.32348
3.28656
0.0366646
0.0578808
0.0725259
0.0831193
0.0917539
0.0992952
0.106183
0.112684
0.118977
0.125195
0.131441
0.137793
0.144317
0.151062
0.15807
0.165374
0.172999
0.180969
0.189301
0.198014
0.207123
0.216642
0.226586
0.236971
0.24781
0.259119
0.270914
0.283211
0.296027
0.30938
0.323286
0.337766
0.352839
0.368525
0.384846
0.401823
0.41948
0.437839
0.456927
0.476769
0.497392
0.518824
0.541092
0.564227
0.588259
0.613216
0.639131
0.666034
0.693957
0.722931
0.75299
0.784164
0.816485
0.849984
0.884691
0.920632
0.957837
0.996329
1.03613
1.07726
1.11975
1.16359
1.20881
1.25539
1.30335
1.35268
1.40338
1.45544
1.50884
1.56356
1.61959
1.67689
1.73544
1.79518
1.85609
1.91811
1.98119
2.04527
2.1103
2.1762
2.24292
2.31038
2.37851
2.44724
2.51649
2.58614
2.65613
2.72636
2.79678
2.86731
2.93787
3.00839
3.07881
3.14906
3.21906
3.28873
3.35777
3.42614
3.49378
3.56061
3.62657
3.69159
3.7556
3.81853
3.8803
3.94088
4.00013
4.05792
4.11422
4.16895
4.22206
4.27347
4.32313
4.37097
4.41692
4.46093
4.50295
4.54293
4.58083
4.61659
4.65018
4.68153
4.71062
4.73742
4.76192
4.78409
4.80392
4.8214
4.83652
4.84929
4.85969
4.86774
4.87344
4.8768
4.87785
4.87662
4.87311
4.86737
4.85944
4.84933
4.83711
4.82281
4.80648
4.78816
4.76792
4.74581
4.72189
4.69622
4.66886
4.63988
4.60934
4.57731
4.54386
4.50906
4.47298
4.4357
4.39728
4.3578
4.31734
4.27597
4.23376
4.19078
4.14712
4.10285
4.05804
4.01277
3.96714
3.92122
3.87512
3.82894
3.7828
3.73683
3.69117
3.64599
3.60148
3.55783
3.5152
3.47375
3.43326
3.39397
0.0381346
0.0581344
0.072685
0.0832729
0.0919106
0.0994558
0.106347
0.112847
0.119135
0.12534
0.131562
0.13788
0.144355
0.151037
0.157966
0.165175
0.17269
0.180534
0.188728
0.197287
0.20623
0.215573
0.225331
0.23552
0.246157
0.257259
0.268845
0.280933
0.293542
0.306693
0.320408
0.334709
0.34962
0.365165
0.38137
0.398262
0.415868
0.434218
0.453341
0.473271
0.494038
0.515679
0.538226
0.561717
0.586188
0.611673
0.638209
0.665831
0.694575
0.72448
0.755582
0.787918
0.821522
0.856429
0.892672
0.930281
0.969284
1.00971
1.05158
1.09491
1.13973
1.18604
1.23386
1.28317
1.33395
1.38622
1.43996
1.49515
1.55177
1.60981
1.66922
1.72998
1.79204
1.85535
1.91987
1.98554
2.0523
2.12007
2.18881
2.25842
2.32884
2.39999
2.4718
2.5442
2.61714
2.69038
2.7639
2.83761
2.91145
2.98533
3.0592
3.13296
3.20657
3.27994
3.35296
3.42536
3.49707
3.56803
3.63817
3.70741
3.77567
3.84289
3.90899
3.9739
4.03753
4.09983
4.16069
4.22002
4.27774
4.3338
4.38813
4.44065
4.49131
4.54004
4.58678
4.63149
4.6741
4.71456
4.75284
4.7889
4.82267
4.85414
4.88325
4.90999
4.93435
4.95629
4.97581
4.99291
5.00757
5.01979
5.02959
5.03696
5.04192
5.04448
5.04467
5.04251
5.03803
5.03126
5.02224
5.011
4.9976
4.98208
4.96449
4.94487
4.92329
4.89981
4.87448
4.84736
4.81853
4.78804
4.75597
4.72238
4.68734
4.65094
4.61322
4.57428
4.53419
4.49301
4.45082
4.4077
4.36372
4.31896
4.27349
4.22738
4.18072
4.13359
4.08606
4.03824
3.99021
3.94209
3.894
3.84606
3.79842
3.75125
3.70472
3.65903
3.61433
3.57075
3.52809
3.4866
0.0393431
0.0579745
0.0723261
0.0828309
0.0914043
0.0988922
0.10573
0.112179
0.118415
0.124565
0.130727
0.136975
0.143368
0.149955
0.156773
0.163855
0.171227
0.178912
0.18693
0.1953
0.204041
0.213171
0.222706
0.232667
0.243071
0.25394
0.265294
0.277155
0.289546
0.302493
0.316022
0.330159
0.344935
0.360378
0.376521
0.393395
0.411033
0.429472
0.448749
0.468902
0.489972
0.512
0.53503
0.559105
0.58427
0.610568
0.638032
0.666702
0.69662
0.727828
0.760369
0.79428
0.829599
0.866363
0.904602
0.944347
0.985624
1.02846
1.07287
1.11887
1.16648
1.21572
1.26663
1.31907
1.37307
1.42862
1.48571
1.54431
1.6044
1.66593
1.72888
1.79318
1.8588
1.92567
1.99373
2.06293
2.13319
2.20443
2.27659
2.34959
2.42333
2.49774
2.57274
2.64824
2.72415
2.80034
2.87675
2.95327
3.02983
3.10637
3.1828
3.25906
3.3351
3.4107
3.48569
3.55997
3.63349
3.70616
3.77791
3.84866
3.91833
3.98685
4.05415
4.12015
4.18477
4.24794
4.30957
4.36959
4.42792
4.48449
4.53924
4.59209
4.643
4.6919
4.73874
4.78345
4.826
4.86633
4.9044
4.94017
4.9736
5.00465
5.03331
5.05953
5.08331
5.10463
5.12347
5.13984
5.15373
5.16514
5.17408
5.18056
5.18458
5.18618
5.18537
5.18219
5.17665
5.1688
5.15868
5.14632
5.13177
5.11508
5.0963
5.07548
5.05268
5.02796
5.00138
4.973
4.9429
4.91112
4.87775
4.84285
4.80649
4.76875
4.72969
4.68939
4.64793
4.60536
4.56177
4.51724
4.47183
4.42562
4.37868
4.33109
4.28293
4.23427
4.18521
4.13582
4.08621
4.03649
3.98676
3.93717
3.88786
3.83899
3.79074
3.74328
3.69675
3.6513
3.60672
3.56328
0.0403852
0.0574783
0.0715323
0.081881
0.0903254
0.0976959
0.104424
0.11077
0.116908
0.122961
0.129022
0.135164
0.141441
0.1479
0.154577
0.161502
0.168701
0.176199
0.184017
0.192176
0.200696
0.209598
0.218903
0.228634
0.238812
0.249464
0.260614
0.272291
0.284523
0.29734
0.310775
0.324862
0.339641
0.355149
0.371427
0.388508
0.406435
0.425253
0.445009
0.46575
0.487526
0.510388
0.534388
0.55958
0.586022
0.613786
0.642862
0.673289
0.705123
0.738411
0.773193
0.809508
0.84739
0.886869
0.927971
0.970717
1.01513
1.06121
1.10897
1.15843
1.20957
1.2624
1.31689
1.37301
1.43072
1.49
1.55082
1.61314
1.67692
1.7421
1.80864
1.87648
1.94556
2.01582
2.08718
2.15958
2.23294
2.30718
2.38222
2.45797
2.53436
2.6113
2.6887
2.76647
2.84452
2.92276
3.00109
3.07944
3.15773
3.23588
3.31386
3.39152
3.46864
3.54513
3.62091
3.6959
3.77002
3.84321
3.91537
3.98644
4.05633
4.12499
4.19233
4.25828
4.32276
4.38571
4.44705
4.50671
4.56461
4.62069
4.67488
4.72713
4.77738
4.82557
4.87164
4.91555
4.95725
4.99669
5.03384
5.06865
5.1011
5.13114
5.15876
5.18393
5.20664
5.22687
5.24462
5.25987
5.27264
5.28292
5.29072
5.29605
5.29894
5.29939
5.29744
5.29312
5.28644
5.27746
5.26621
5.25273
5.23707
5.21928
5.19941
5.1775
5.15363
5.12784
5.1002
5.07077
5.03962
5.0068
4.9724
4.93647
4.89909
4.86033
4.82025
4.77892
4.73643
4.69284
4.64821
4.60263
4.55617
4.50889
4.46087
4.41218
4.36291
4.31311
4.26289
4.21232
4.1615
4.11054
4.05955
4.00866
3.95802
3.90778
3.85811
3.80918
3.76113
3.71408
3.66786
3.62276
0.0412847
0.0568189
0.0704979
0.0806226
0.0888771
0.0960749
0.102644
0.108843
0.114842
0.120763
0.126694
0.132703
0.138844
0.145158
0.151682
0.158445
0.165475
0.172797
0.180434
0.188413
0.196755
0.205488
0.214637
0.22423
0.234298
0.24487
0.255983
0.267672
0.279974