/*--------------------------------*- C++ -*----------------------------------*\
| =========                 |                                                 |
| \\      /  F ield         | OpenFOAM: The Open Source CFD Toolbox           |
|  \\    /   O peration     | Version:  2112                                  |
|   \\  /    A nd           | Website:  www.openfoam.com                      |
|    \\/     M anipulation  |                                                 |
\*---------------------------------------------------------------------------*/
FoamFile
{
    version     2.0;
    format      ascii;
    arch        "LSB;label=32;scalar=64";
    class       volScalarField;
    location    "0.27";
    object      k;
}
// * * * * * * * * * * * * * * * * * * * * * * * * * * * * * * * * * * * * * //

dimensions      [0 2 -2 0 0 0 0];

internalField   nonuniform List<scalar> 
12225
(
1.368
2.18609
2.86023
3.49037
4.14428
4.86132
5.66521
6.57275
7.59667
8.74575
10.0237
11.4288
12.9542
14.5895
16.3209
18.1412
19.9976
21.8196
0.415424
0.486334
0.570595
0.667857
0.77933
0.906058
1.04846
1.20563
1.37499
1.55282
1.73529
1.91951
2.10445
2.28959
2.4764
2.66932
2.89935
3.14123
0.377907
0.385592
0.39628
0.40641
0.416057
0.426188
0.437703
0.451294
0.467286
0.485835
0.507143
0.531599
0.559756
0.592149
0.629312
0.671933
0.720759
0.770183
0.375419
0.376385
0.378024
0.380134
0.382604
0.385292
0.388007
0.390111
0.391484
0.392154
0.392251
0.391979
0.391589
0.391344
0.391498
0.392261
0.393711
0.395206
0.375087
0.375236
0.375548
0.375994
0.376583
0.377302
0.378112
0.37892
0.379651
0.38025
0.380625
0.380734
0.380601
0.380269
0.37979
0.379227
0.378652
0.378034
0.374932
0.374917
0.374976
0.375091
0.375273
0.375525
0.375827
0.376154
0.376483
0.376795
0.377068
0.377285
0.377446
0.377558
0.377636
0.377706
0.377789
0.377886
0.374811
0.374682
0.374634
0.374647
0.374725
0.37485
0.37501
0.375188
0.375375
0.37556
0.375737
0.375902
0.376058
0.37621
0.376368
0.37654
0.376734
0.376944
0.374721
0.374498
0.374359
0.374297
0.374315
0.374385
0.374483
0.3746
0.374726
0.374853
0.374981
0.375107
0.375237
0.375374
0.375525
0.375694
0.375884
0.376085
0.374656
0.374366
0.374154
0.374021
0.373972
0.373991
0.374046
0.374117
0.3742
0.374288
0.37438
0.374476
0.374578
0.374689
0.374815
0.374956
0.375114
0.37528
0.374609
0.374269
0.374002
0.373811
0.373699
0.373656
0.373662
0.373698
0.373744
0.373797
0.373856
0.373921
0.373994
0.374077
0.374172
0.374281
0.374401
0.374527
0.374574
0.374196
0.373887
0.373649
0.373482
0.373381
0.373332
0.373317
0.373325
0.373347
0.37338
0.373418
0.373463
0.373517
0.373582
0.373658
0.373742
0.37383
0.374549
0.374144
0.373805
0.373532
0.373322
0.373174
0.373075
0.373015
0.372982
0.372968
0.372968
0.37298
0.373004
0.373037
0.373077
0.373124
0.373178
0.373234
0.37453
0.374103
0.373738
0.373435
0.373191
0.373002
0.37286
0.372756
0.372681
0.372628
0.372594
0.372575
0.372569
0.372577
0.372595
0.372621
0.37265
0.37268
0.374514
0.374066
0.373677
0.373346
0.37307
0.372843
0.37266
0.372513
0.372395
0.3723
0.372224
0.372166
0.372123
0.372093
0.372075
0.372066
0.372063
0.372062
0.374501
0.374036
0.373625
0.373268
0.372962
0.372702
0.372482
0.372295
0.372136
0.371999
0.371881
0.37178
0.371693
0.37162
0.371557
0.371503
0.371455
0.371411
0.374491
0.374013
0.373584
0.373205
0.372873
0.372584
0.372331
0.372109
0.371912
0.371737
0.371579
0.371437
0.371307
0.371189
0.37108
0.370978
0.370883
0.370792
0.374484
0.373997
0.373554
0.373159
0.372806
0.372492
0.372212
0.37196
0.371732
0.371523
0.37133
0.37115
0.370982
0.370823
0.370672
0.370529
0.370391
0.370258
0.374481
0.37399
0.373539
0.373132
0.372764
0.372432
0.372131
0.371856
0.371602
0.371365
0.371143
0.370932
0.370731
0.370538
0.370353
0.370174
0.370001
0.369834
0.374484
0.373993
0.373542
0.37313
0.372756
0.372414
0.3721
0.37181
0.371539
0.371284
0.37104
0.370807
0.370582
0.370364
0.370152
0.369946
0.369746
0.369552
0.374492
0.374008
0.373563
0.373157
0.372785
0.372445
0.372131
0.371838
0.371564
0.371302
0.371052
0.370809
0.370574
0.370344
0.370119
0.369899
0.369684
0.369475
0.374502
0.37403
0.373596
0.373199
0.372836
0.372503
0.372197
0.371911
0.371642
0.371386
0.371139
0.370899
0.370665
0.370435
0.370208
0.369986
0.369767
0.369554
0.374518
0.374061
0.373642
0.373258
0.372908
0.372589
0.372296
0.372026
0.371772
0.37153
0.371298
0.371073
0.370851
0.370633
0.370417
0.370202
0.369991
0.369783
0.374539
0.374103
0.373703
0.373337
0.373005
0.372707
0.372439
0.372194
0.371969
0.371757
0.371555
0.371359
0.371166
0.370974
0.370783
0.370591
0.370399
0.370208
0.374571
0.374163
0.373789
0.373449
0.373146
0.372883
0.372656
0.372456
0.372278
0.372115
0.371963
0.371817
0.371673
0.371528
0.37138
0.371229
0.371075
0.370919
0.374618
0.374254
0.373925
0.373631
0.373378
0.373171
0.373008
0.372879
0.372781
0.372705
0.372648
0.372601
0.372559
0.372517
0.37247
0.372416
0.372353
0.37228
0.374692
0.374383
0.374131
0.373954
0.37386
0.373845
0.373898
0.374005
0.374159
0.374352
0.374573
0.374811
0.375048
0.375265
0.375448
0.375588
0.37568
0.375717
0.374835
0.37476
0.374941
0.375422
0.376157
0.377046
0.378038
0.379086
0.380158
0.381221
0.382248
0.383212
0.383981
0.384506
0.384795
0.384867
0.38475
0.384491
0.375716
0.378275
0.382126
0.386807
0.392087
0.396499
0.400217
0.403564
0.406888
0.410493
0.414604
0.419361
0.424849
0.431094
0.438097
0.445866
0.454439
0.463955
0.390408
0.419394
0.455752
0.498305
0.546699
0.600607
0.660092
0.725482
0.796952
0.874361
0.95724
1.04484
1.13625
1.2304
1.32622
1.42279
1.51942
1.61556
1.02777
1.58782
2.04567
2.45095
2.8402
3.2226
3.61535
4.02924
4.47054
4.94304
5.44917
5.99054
6.56813
7.18223
7.83245
8.51775
9.23588
9.98389
0.106979
0.106784
0.106575
0.106475
0.106595
0.107002
0.107727
0.108773
0.110131
0.111799
0.113787
0.116103
0.118771
0.12183
0.125327
0.129322
0.133896
0.139178
0.145417
0.153155
0.163388
0.178104
0.200693
0.235294
0.286069
0.356045
0.446397
0.556548
0.684744
0.828637
0.985709
1.15354
1.32995
1.51306
1.70128
1.89334
2.0882
2.28508
2.48342
2.68291
2.88341
3.08498
3.28781
3.49223
3.69864
3.90748
4.11921
4.33428
4.55308
4.77595
5.00316
5.23487
5.47118
5.71209
5.95753
6.20734
6.4613
6.7191
6.98041
7.24483
7.51191
7.78116
8.05209
8.32414
8.59676
8.86938
9.1414
9.41225
9.68133
9.94808
10.2119
10.4723
10.7287
10.9807
11.2277
11.4693
11.7052
11.935
12.1583
12.375
12.5848
12.7874
12.9829
13.171
13.3517
13.525
13.691
13.8497
14.0011
14.1453
14.2826
14.4129
14.5364
14.6532
14.7634
14.8672
14.9647
15.0561
15.1414
15.2208
15.2946
15.3628
15.4256
15.4831
15.5355
15.5829
15.6256
15.6636
15.6971
15.7262
15.7511
15.7717
15.7883
15.8008
15.8092
15.8134
15.8135
15.8092
15.8003
15.7867
15.7681
15.7441
15.7145
15.679
15.637
15.5879
15.5322
15.47
15.4009
15.3247
15.2408
15.149
15.0489
14.9401
14.8223
14.6951
14.5583
14.4116
14.2546
14.0873
13.9094
13.7208
13.5215
13.3115
13.0906
12.8589
12.6159
12.3613
12.0943
11.8142
11.52
11.2112
10.8872
10.5477
10.1924
9.82117
9.43417
9.0317
8.61436
8.18305
7.73903
7.2841
6.82069
6.352
5.88227
5.41701
4.96326
4.53102
4.13766
3.7887
3.59505
3.6821
4.02648
4.53428
5.04845
5.58063
6.14147
6.72972
7.36874
8.00965
0.112313
0.111388
0.110101
0.108773
0.107623
0.106784
0.106342
0.106348
0.106843
0.107865
0.109434
0.111549
0.114168
0.117201
0.120502
0.12388
0.127132
0.130125
0.132906
0.135897
0.140148
0.147627
0.161288
0.184642
0.220947
0.272273
0.339038
0.42024
0.514058
0.618375
0.731087
0.850249
0.974125
1.1012
1.2302
1.36005
1.48987
1.61902
1.74701
1.87355
1.99851
2.12192
2.2439
2.36468
2.48453
2.60375
2.72266
2.8415
2.96052
3.07988
3.19968
3.31995
3.44066
3.56171
3.68295
3.80419
3.9252
4.0457
4.16542
4.28406
4.4013
4.51685
4.63039
4.74163
4.85029
4.95609
5.05878
5.15814
5.25396
5.34605
5.43427
5.51847
5.59855
5.67443
5.74605
5.81338
5.8764
5.93512
5.98954
6.03971
6.08565
6.12742
6.16507
6.19866
6.22824
6.25389
6.27568
6.2937
6.30805
6.31888
6.32635
6.33069
6.33213
6.33095
6.32746
6.32193
6.31467
6.30594
6.296
6.28506
6.27333
6.26097
6.24813
6.23495
6.22154
6.208
6.1944
6.18082
6.16732
6.15392
6.14066
6.12756
6.11463
6.10186
6.08926
6.07682
6.06454
6.05242
6.04046
6.02864
6.01697
6.00544
5.99391
5.9825
5.97167
5.9618
5.95212
5.94248
5.93287
5.92327
5.91364
5.90392
5.89406
5.88394
5.87344
5.86241
5.85063
5.83786
5.82382
5.80816
5.79049
5.7704
5.74744
5.7212
5.69135
5.65772
5.62038
5.57972
5.53643
5.49129
5.44498
5.39783
5.34985
5.30084
5.25046
5.19832
5.14395
5.0868
5.02626
4.96165
4.89228
4.81747
4.73655
4.64896
4.55424
4.45212
4.34263
4.22719
4.11255
4.01182
3.9854
4.06293
4.21597
4.40632
4.57764
4.72971
4.87168
5.01213
5.16109
5.36182
0.121415
0.119388
0.116613
0.113705
0.111016
0.108728
0.106933
0.105691
0.105075
0.105161
0.106024
0.10771
0.1102
0.113375
0.116999
0.12073
0.124183
0.127045
0.129243
0.131168
0.133929
0.139539
0.150845
0.17099
0.202552
0.246786
0.303458
0.371258
0.448378
0.53293
0.623146
0.717448
0.81445
0.912951
1.01193
1.11052
1.20806
1.304
1.39798
1.48979
1.57936
1.66671
1.75198
1.83535
1.91707
1.99737
2.07648
2.15462
2.23192
2.30851
2.38442
2.45964
2.53413
2.60776
2.6804
2.75187
2.82198
2.8905
2.95723
3.02195
3.08444
3.1445
3.20195
3.2566
3.30831
3.35694
3.40239
3.44457
3.48343
3.51893
3.55105
3.5798
3.60521
3.62733
3.64621
3.66193
3.67457
3.68423
3.691
3.69498
3.69629
3.69505
3.69136
3.68538
3.67723
3.66707
3.6551
3.6415
3.62651
3.61038
3.59337
3.57577
3.55788
3.53998
3.52234
3.50521
3.48881
3.47332
3.45891
3.44568
3.43373
3.42313
3.41392
3.40614
3.3998
3.39491
3.39145
3.3894
3.38874
3.38944
3.39144
3.39472
3.39924
3.40494
3.4118
3.41979
3.4289
3.43912
3.45047
3.46297
3.47667
3.49188
3.50885
3.52767
3.54801
3.56987
3.59318
3.61792
3.64408
3.67163
3.70055
3.73078
3.76223
3.79481
3.8284
3.86285
3.898
3.93366
3.96962
4.00565
4.04154
4.07709
4.1121
4.14647
4.18017
4.21328
4.24604
4.27876
4.31183
4.34557
4.38016
4.41559
4.45166
4.48805
4.52437
4.56015
4.59486
4.6279
4.65862
4.68631
4.7103
4.72992
4.74454
4.75355
4.75652
4.75328
4.74382
4.72879
4.71082
4.69615
4.70571
4.74562
4.80367
4.86656
4.91749
4.95496
4.98155
5.00341
5.02551
5.07548
0.131206
0.128058
0.123766
0.11931
0.115197
0.111647
0.10873
0.106486
0.104966
0.104251
0.104441
0.105624
0.107819
0.110918
0.114647
0.118583
0.122238
0.125217
0.12743
0.129341
0.132197
0.138115
0.149844
0.170112
0.200802
0.242438
0.294281
0.354836
0.422361
0.495171
0.571767
0.650847
0.731293
0.81215
0.892611
0.972012
1.04983
1.12566
1.19927
1.2705
1.33935
1.40586
1.47019
1.53251
1.59301
1.65192
1.7094
1.76562
1.82069
1.87466
1.92756
1.97935
2.02997
2.07931
2.12725
2.17362
2.21829
2.26108
2.30183
2.34041
2.37667
2.41049
2.44177
2.47045
2.49646
2.51978
2.54041
2.55837
2.57371
2.5865
2.59683
2.6048
2.61055
2.6142
2.61591
2.61583
2.61413
2.61097
2.60652
2.60096
2.59446
2.58721
2.57937
2.57114
2.5627
2.55425
2.54598
2.53808
2.53074
2.52414
2.51845
2.51383
2.5104
2.50828
2.50756
2.50829
2.51052
2.51425
2.51949
2.52621
2.53438
2.54399
2.55497
2.5673
2.58094
2.59585
2.61199
2.62932
2.64782
2.66746
2.68822
2.71007
2.73302
2.75707
2.78222
2.8085
2.83594
2.8646
2.89453
2.92579
2.95851
2.9926
3.0281
3.06505
3.10343
3.14325
3.18453
3.22725
3.27142
3.31702
3.36404
3.41244
3.4622
3.51325
3.56556
3.61906
3.67369
3.72939
3.78609
3.84372
3.90224
3.9616
4.0218
4.08284
4.14477
4.20766
4.2716
4.33667
4.40292
4.47033
4.53882
4.60821
4.67826
4.74865
4.81899
4.88885
4.95772
5.025
5.09005
5.1522
5.21078
5.26522
5.315
5.35953
5.39853
5.43227
5.4605
5.48286
5.49773
5.50452
5.5122
5.52538
5.53891
5.54689
5.54618
5.53695
5.51894
5.49598
5.4707
5.45446
0.139873
0.135748
0.130086
0.124249
0.118927
0.114369
0.110636
0.107729
0.105662
0.104488
0.104301
0.105193
0.107197
0.110204
0.113921
0.11789
0.121597
0.124658
0.127066
0.129438
0.133187
0.140484
0.15386
0.175518
0.206651
0.2472
0.296132
0.351922
0.41296
0.477763
0.545041
0.613699
0.682815
0.751611
0.819448
0.885806
0.950292
1.01263
1.07264
1.13028
1.18556
1.23856
1.28945
1.33838
1.38554
1.4311
1.47522
1.51802
1.55957
1.59993
1.63908
1.677
1.71363
1.74888
1.78266
1.81485
1.84536
1.87409
1.90095
1.92587
1.9488
1.96973
1.98864
2.00557
2.02056
2.0337
2.0451
2.05486
2.06315
2.07012
2.07596
2.08084
2.08497
2.08854
2.09175
2.09478
2.09784
2.10108
2.10469
2.10881
2.11359
2.11915
2.12562
2.13309
2.14164
2.15136
2.1623
2.1745
2.18799
2.20278
2.21886
2.23622
2.25482
2.27463
2.29559
2.31764
2.34072
2.36476
2.38969
2.41547
2.44205
2.46937
2.4974
2.52613
2.55553
2.5856
2.61632
2.64771
2.67977
2.71253
2.74601
2.78026
2.81532
2.85124
2.8881
2.92598
2.96475
3.00444
3.04518
3.08705
3.13012
3.17442
3.22002
3.26693
3.31519
3.36485
3.41592
3.46843
3.52241
3.57786
3.63482
3.69327
3.75323
3.8147
3.87768
3.94217
4.00816
4.07566
4.14466
4.21516
4.28715
4.36064
4.4356
4.51205
4.58997
4.66936
4.75019
4.8324
4.91589
5.00052
5.08607
5.17234
5.25904
5.34583
5.43233
5.51803
5.60235
5.68465
5.76421
5.84027
5.91187
5.97854
6.03994
6.09523
6.14412
6.18786
6.22568
6.25624
6.27686
6.28504
6.28518
6.28173
6.27238
6.25384
6.22688
6.19336
6.15304
6.10846
6.06079
6.01252
0.14636
0.141606
0.134926
0.12804
0.121801
0.116527
0.112275
0.109014
0.106716
0.105398
0.105121
0.105953
0.107905
0.11085
0.11448
0.118338
0.12195
0.125033
0.127744
0.130897
0.136048
0.145309
0.160859
0.184299
0.216199
0.256089
0.302802
0.354886
0.410901
0.469554
0.529738
0.590522
0.651134
0.710935
0.769408
0.826152
0.880874
0.933387
0.983594
1.03149
1.07713
1.12062
1.16213
1.20181
1.23984
1.27636
1.31152
1.34541
1.37812
1.40967
1.44008
1.46933
1.49739
1.52421
1.54975
1.57397
1.59683
1.61831
1.63842
1.65718
1.67463
1.69086
1.70596
1.72006
1.7333
1.74586
1.75791
1.76966
1.78131
1.79307
1.80514
1.81774
1.83105
1.84524
1.86048
1.87689
1.89459
1.91368
1.9342
1.95621
1.97971
2.00471
2.03118
2.05907
2.08835
2.11893
2.15074
2.18369
2.21768
2.25263
2.28844
2.325
2.36223
2.40004
2.43833
2.47703
2.51607
2.55537
2.59489
2.63459
2.67445
2.71446
2.75463
2.79496
2.83548
2.87621
2.9172
2.95847
3.00008
3.04207
3.08452
3.1275
3.1711
3.21538
3.26009
3.30525
3.35118
3.39798
3.44575
3.49456
3.5445
3.59562
3.64799
3.70166
3.75668
3.8131
3.87096
3.93032
3.99121
4.05366
4.11771
4.18338
4.2507
4.31969
4.39035
4.4627
4.53676
4.61253
4.69002
4.76921
4.85009
4.93265
5.01685
5.10263
5.18994
5.27872
5.36887
5.46027
5.55277
5.64616
5.74015
5.83446
5.92877
6.02274
6.11598
6.20791
6.29777
6.38491
6.46858
6.54818
6.62171
6.68918
6.75087
6.80542
6.85179
6.8917
6.92525
6.95154
6.96745
6.97019
6.96187
6.9459
6.92146
6.88677
6.84339
6.79386
6.73875
6.68024
6.61861
6.55298
0.150376
0.145461
0.138297
0.130816
0.124048
0.118387
0.113899
0.110535
0.108236
0.10698
0.106788
0.107686
0.109647
0.112513
0.115971
0.119605
0.123039
0.126156
0.129322
0.133543
0.140429
0.151901
0.169678
0.194771
0.227256
0.266411
0.311051
0.359854
0.411557
0.465044
0.519367
0.573736
0.627496
0.680121
0.731193
0.780404
0.827541
0.872486
0.915201
0.955721
0.994134
1.03057
1.06519
1.09816
1.12964
1.15979
1.18872
1.21656
1.24337
1.26921
1.29412
1.31812
1.34123
1.36346
1.38482
1.40536
1.4251
1.44413
1.46253
1.48041
1.49792
1.5152
1.53244
1.54981
1.56754
1.58582
1.60488
1.62491
1.64611
1.66868
1.69277
1.71852
1.74606
1.77546
1.80677
1.84002
1.87521
1.91229
1.9512
1.99186
2.03416
2.078
2.12323
2.16973
2.21735
2.26594
2.31536
2.36548
2.41615
2.46724
2.51865
2.57026
2.62196
2.67369
2.72535
2.77689
2.82823
2.87933
2.93014
2.98067
3.0309
3.08088
3.13062
3.18018
3.2296
3.27894
3.32825
3.37758
3.427
3.4766
3.52643
3.5766
3.62668
3.6767
3.72708
3.77798
3.82955
3.8819
3.93513
3.98935
4.04463
4.10105
4.15869
4.21761
4.27787
4.33952
4.40262
4.46723
4.53338
4.60111
4.67045
4.74145
4.81411
4.88847
4.96453
5.04228
5.12174
5.20288
5.28571
5.37019
5.45628
5.54396
5.63316
5.7238
5.81575
5.90892
6.00317
6.09838
6.19438
6.29097
6.3877
6.4842
6.58015
6.67522
6.76919
6.86127
6.95025
7.03571
7.11689
7.19442
7.26317
7.32462
7.37863
7.42467
7.46277
7.49352
7.51719
7.53311
7.53884
7.532
7.51341
7.48532
7.44768
7.39977
7.34315
7.28041
7.2128
7.14257
7.06948
6.99206
0.152305
0.147633
0.140572
0.133035
0.12617
0.120448
0.115965
0.112671
0.110489
0.109369
0.109293
0.110248
0.112166
0.114868
0.118058
0.121394
0.124647
0.1279
0.131728
0.137262
0.146049
0.1597
0.179439
0.205769
0.238417
0.276542
0.319019
0.364675
0.412419
0.461297
0.510499
0.559354
0.60731
0.653933
0.698889
0.741943
0.782949
0.821845
0.858638
0.893397
0.926237
0.957306
0.986767
1.01479
1.04156
1.0672
1.09188
1.11571
1.13879
1.16122
1.18306
1.20439
1.22528
1.24581
1.26605
1.28612
1.30613
1.32623
1.34657
1.36732
1.38869
1.41088
1.43408
1.45852
1.48439
1.5119
1.54122
1.57252
1.60593
1.64158
1.67953
1.71983
1.7625
1.80752
1.85483
1.90436
1.956
2.00961
2.06505
2.12216
2.18077
2.24069
2.30176
2.36379
2.4266
2.49004
2.55392
2.6181
2.68242
2.74676
2.81098
2.875
2.9387
3.00203
3.06491
3.12727
3.18908
3.25027
3.31082
3.37071
3.42997
3.48865
3.54682
3.60453
3.66186
3.71887
3.77562
3.83218
3.88862
3.94511
4.00103
4.05625
4.11131
4.16641
4.22176
4.2775
4.33378
4.39072
4.44843
4.50703
4.56661
4.62726
4.68906
4.75208
4.81637
4.882
4.94902
5.01747
5.0874
5.15884
5.23182
5.30637
5.38249
5.46022
5.53955
5.62046
5.70291
5.7869
5.87237
5.95927
6.04756
6.13719
6.2281
6.3202
6.41323
6.50708
6.60162
6.69668
6.79216
6.88811
6.98352
7.07796
7.17122
7.26294
7.35348
7.44186
7.52519
7.60409
7.67764
7.74494
7.80445
7.85592
7.89899
7.93346
7.9595
7.97745
7.9875
7.98915
7.98078
7.9607
7.92912
7.88742
7.83593
7.77462
7.70496
7.62935
7.54944
7.46765
7.38346
7.29605
0.153205
0.148827
0.142355
0.135256
0.128678
0.123153
0.118826
0.11567
0.113606
0.112571
0.112528
0.113431
0.115185
0.117609
0.12045
0.123476
0.12663
0.130193
0.134897
0.141899
0.152569
0.168141
0.189379
0.216391
0.248697
0.285432
0.325569
0.368091
0.412063
0.456676
0.501243
0.545196
0.588076
0.629526
0.669285
0.707179
0.743119
0.777088
0.80913
0.839344
0.867865
0.894855
0.920492
0.944957
0.968428
0.991076
1.01306
1.03453
1.05561
1.07644
1.09714
1.11782
1.13861
1.15965
1.18107
1.20303
1.2257
1.24928
1.27396
1.29994
1.32744
1.35667
1.38782
1.42107
1.4566
1.49455
1.53504
1.57816
1.62399
1.67255
1.72383
1.7778
1.83439
1.89351
1.95502
2.01879
2.08465
2.15243
2.22193
2.29295
2.36529
2.43876
2.51316
2.58831
2.66401
2.74008
2.81636
2.89268
2.96887
3.0448
3.12033
3.19535
3.26977
3.34351
3.4165
3.4887
3.56006
3.63051
3.7
3.76853
3.83614
3.90289
3.96888
4.03418
4.0989
4.16308
4.2268
4.29024
4.35287
4.41417
4.47472
4.53476
4.5945
4.65412
4.7138
4.77369
4.83394
4.8947
4.95609
5.01823
5.08122
5.14516
5.21014
5.27623
5.34348
5.41195
5.48168
5.55271
5.62509
5.69883
5.77396
5.85047
5.92839
6.00774
6.08851
6.17069
6.25414
6.33885
6.42476
6.5118
6.59989
6.68897
6.77906
6.87022
6.96155
7.05321
7.14505
7.23687
7.32859
7.42123
7.51237
7.60126
7.68825
7.77289
7.85478
7.93314
8.00698
8.07566
8.13812
8.19322
8.24004
8.27803
8.30688
8.32654
8.33721
8.33916
8.33244
8.3166
8.29077
8.25397
8.20627
8.14856
8.08135
8.00506
7.92111
7.83173
7.73877
7.64476
7.54919
7.45212
0.154878
0.150142
0.144388
0.138011
0.131945
0.126739
0.122594
0.119525
0.11748
0.1164
0.116241
0.116943
0.118402
0.120456
0.122924
0.125704
0.128908
0.132979
0.138725
0.147219
0.159575
0.176648
0.198817
0.225926
0.25739
0.29238
0.329992
0.369352
0.409671
0.450265
0.490559
0.530075
0.568439
0.605362
0.640648
0.674177
0.705905
0.735855
0.764104
0.790772
0.816015
0.840008
0.86294
0.885004
0.906392
0.927292
0.947886
0.968349
0.98885
1.00955
1.03062
1.05221
1.07449
1.09763
1.1218
1.1472
1.17403
1.20249
1.23279
1.26514
1.29974
1.33676
1.37638
1.41872
1.4639
1.51202
1.56312
1.61725
1.67441
1.73457
1.79765
1.86357
1.93221
2.00343
2.07706
2.15294
2.23088
2.31069
2.39214
2.47503
2.55915
2.6443
2.73028
2.81691
2.904
2.99134
3.07877
3.16611
3.25318
3.33982
3.42587
3.51119
3.59566
3.6792
3.76173
3.84322
3.92361
4.00283
4.08081
4.15756
4.23311
4.30756
4.38102
4.45361
4.52543
4.59658
4.66676
4.73519
4.80224
4.86827
4.93348
4.998
5.06199
5.12561
5.18906
5.2525
5.31611
5.38004
5.44442
5.50938
5.57503
5.64147
5.70879
5.77707
5.84637
5.91671
5.98812
6.06064
6.13431
6.20914
6.28513
6.36229
6.4406
6.5201
6.60083
6.68286
6.76564
6.8493
6.93381
7.01908
7.10498
7.19143
7.27853
7.3674
7.45472
7.54171
7.62826
7.71416
7.79917
7.88324
7.96555
8.04563
8.12314
8.19756
8.26826
8.33452
8.39562
8.45067
8.49864
8.53845
8.56923
8.59034
8.60157
8.60306
8.59508
8.5779
8.5514
8.51509
8.46872
8.41195
8.34492
8.26834
8.18286
8.0893
7.98913
7.88446
7.77727
7.6702
7.56292
7.45618
0.159803
0.15302
0.147495
0.141736
0.136154
0.131208
0.127137
0.124012
0.121822
0.120532
0.1201
0.120467
0.121536
0.123187
0.125328
0.12799
0.131426
0.136174
0.14303
0.152904
0.166608
0.184662
0.207172
0.233817
0.263987
0.296927
0.331855
0.368033
0.404801
0.441588
0.477916
0.513395
0.547723
0.580678
0.612117
0.641971
0.670236
0.696967
0.722268
0.746279
0.769171
0.791129
0.812352
0.833041
0.8534
0.873634
0.893944
0.91453
0.93559
0.957316
0.979899
1.00352
1.02837
1.05464
1.08252
1.11221
1.14391
1.17783
1.21417
1.25311
1.29482
1.33947
1.38715
1.43797
1.49198
1.54924
1.60975
1.67353
1.74053
1.81068
1.88389
1.96003
2.03897
2.12052
2.20452
2.29078
2.37911
2.46932
2.56119
2.65448
2.749
2.84455
2.94094
3.03798
3.13546
3.23319
3.33098
3.42865
3.52599
3.62283
3.71898
3.81425
3.90847
4.0015
4.09324
4.18365
4.2727
4.36031
4.44643
4.53105
4.61425
4.69617
4.77693
4.85673
4.93546
5.01208
5.08658
5.15951
5.23117
5.30176
5.37133
5.43993
5.50771
5.57485
5.64156
5.70804
5.77447
5.84101
5.90782
5.975
6.04268
6.11094
6.17989
6.24964
6.32031
6.39176
6.46396
6.53703
6.61099
6.68585
6.76161
6.83824
6.91572
6.99406
7.07342
7.15457
7.23521
7.31625
7.3977
7.47944
7.56132
7.6432
7.72498
7.80665
7.88745
7.96732
8.04608
8.12344
8.1991
8.27276
8.34397
8.41229
8.47727
8.53837
8.5949
8.64613
8.69121
8.72916
8.75907
8.78009
8.7914
8.79227
8.78257
8.7626
8.7327
8.69318
8.6439
8.58438
8.51465
8.43479
8.34517
8.24655
8.1399
8.02641
7.90778
7.78617
7.66369
7.54302
7.42417
7.30822
0.170124
0.15884
0.152457
0.14673
0.141291
0.136363
0.132154
0.128776
0.126262
0.124605
0.123774
0.123717
0.124364
0.125649
0.127574
0.13028
0.134113
0.139633
0.147544
0.158551
0.173189
0.1917
0.213979
0.239652
0.268146
0.298792
0.330926
0.363933
0.397268
0.430462
0.463126
0.494951
0.525702
0.555217
0.583405
0.610238
0.635748
0.660017
0.68317
0.705364
0.72678
0.747607
0.768047
0.788302
0.808584
0.829104
0.850077
0.87172
0.894249
0.917876
0.942806
0.969231
0.997339
1.02732
1.05937
1.09369
1.13047
1.16989
1.21213
1.25735
1.30571
1.35733
1.41229
1.47063
1.53239
1.59758
1.66624
1.73833
1.81381
1.89259
1.97458
2.05963
2.14757
2.23823
2.33142
2.42692
2.52456
2.62413
2.72539
2.82814
2.93218
3.0373
3.14332
3.25004
3.35723
3.4647
3.57224
3.67965
3.78674
3.89331
3.99917
4.10409
4.20783
4.31013
4.41082
4.50983
4.60711
4.70265
4.79643
4.88855
4.97912
5.06839
5.15639
5.24212
5.32522
5.40619
5.48517
5.56248
5.63843
5.7132
5.78677
5.85898
5.93003
6.00019
6.06967
6.13869
6.20746
6.27613
6.34485
6.41374
6.48289
6.5524
6.62235
6.69289
6.76453
6.8366
6.90882
6.98157
7.05491
7.12883
7.2033
7.2783
7.35376
7.42966
7.50598
7.58275
7.65948
7.73619
7.81279
7.88912
7.96502
8.0403
8.11475
8.18817
8.26022
8.33063
8.39912
8.46536
8.52901
8.5897
8.64701
8.70048
8.74967
8.79406
8.833
8.86575
8.89128
8.90848
8.91663
8.91521
8.90365
8.8812
8.84765
8.80318
8.74809
8.68268
8.60685
8.51895
8.41989
8.31065
8.19224
8.06591
7.93315
7.79567
7.65543
7.51469
7.37561
7.24074
7.11085
6.987
0.185359
0.167834
0.1596
0.153094
0.147223
0.14192
0.137294
0.13345
0.130446
0.128298
0.126987
0.12648
0.126736
0.127751
0.129605
0.132513
0.136855
0.143145
0.151947
0.16375
0.178853
0.197301
0.218881
0.243184
0.269692
0.297861
0.327148
0.357043
0.387101
0.416949
0.446279
0.474858
0.502514
0.529143
0.554696
0.579184
0.602666
0.625248
0.647071
0.668303
0.689127
0.709729
0.730302
0.751042
0.772153
0.793849
0.816344
0.839861
0.864626
0.890861
0.918776
0.948553
0.980368
1.01441
1.05087
1.08994
1.13181
1.17662
1.22454
1.2757
1.33022
1.38822
1.44975
1.51484
1.58351
1.65581
1.73175
1.81133
1.89449
1.98116
2.07123
2.16455
2.26094
2.36022
2.46216
2.56656
2.67318
2.78171
2.89194
3.00372
3.11683
3.23109
3.34628
3.46217
3.57852
3.69509
3.81166
3.92803
4.04401
4.15944
4.27415
4.38799
4.50068
4.61159
4.72062
4.8276
4.93235
5.03505
5.13573
5.23493
5.33246
5.42743
5.51947
5.60916
5.69646
5.78152
5.86445
5.94552
6.02509
6.10347
6.18072
6.25588
6.32959
6.40219
6.47391
6.545
6.61563
6.68596
6.75612
6.82621
6.89631
6.9665
7.03682
7.10737
7.17826
7.24936
7.32059
7.39202
7.46366
7.53548
7.60745
7.67949
7.75155
7.82355
7.8954
7.967
8.03818
8.10879
8.17867
8.24765
8.31551
8.38202
8.44695
8.51001
8.57089
8.62924
8.68473
8.73698
8.78561
8.83018
8.87027
8.9054
8.93512
8.95898
8.97643
8.9868
8.98893
8.98178
8.96467
8.93723
8.89908
8.84856
8.78506
8.70914
8.62125
8.52183
8.41122
8.28961
8.15756
8.01606
7.8665
7.71061
7.5504
7.38799
7.22567
7.06581
6.91059
6.76247
6.62229
6.49145
0.206663
0.180193
0.168894
0.160721
0.153745
0.147602
0.142247
0.137726
0.134091
0.131364
0.129543
0.128611
0.128561
0.129437
0.131368
0.1346
0.139487
0.146449
0.155889
0.168104
0.183213
0.201132
0.221604
0.244242
0.268602
0.294221
0.320675
0.347582
0.374593
0.401413
0.427815
0.453635
0.478767
0.503153
0.526786
0.549705
0.571992
0.593766
0.61518
0.636408
0.65763
0.679017
0.700738
0.722975
0.745922
0.769779
0.794748
0.821039
0.848876
0.878485
0.910064
0.943788
0.979825
1.01837
1.05963
1.10383
1.15114
1.20173
1.25569
1.31312
1.37411
1.43871
1.50693
1.57893
1.65473
1.73437
1.81789
1.90527
1.99646
2.09138
2.1899
2.29188
2.3971
2.50537
2.61647
2.73018
2.84624
2.96389
3.08285
3.20325
3.32489
3.44756
3.57104
3.69507
3.81938
3.94372
4.06785
4.19157
4.31471
4.43715
4.55888
4.68012
4.80087
4.91897
5.03495
5.14863
5.25937
5.3683
5.47459
5.57763
5.67762
5.77505
5.87003
5.96274
6.05301
6.14097
6.22678
6.31065
6.39282
6.47333
6.5522
6.62934
6.70497
6.77937
6.85278
6.92537
6.99732
7.06874
7.13973
7.21037
7.28071
7.35082
7.42071
7.49043
7.56
7.6294
7.69859
7.76755
7.83626
7.90468
7.97274
8.04035
8.10743
8.17387
8.23955
8.30434
8.36806
8.43052
8.49152
8.55085
8.60826
8.66347
8.71621
8.76614
8.8129
8.85611
8.89537
8.93024
8.96029
8.98505
9.00405
9.01681
9.02287
9.02183
9.01334
8.99681
8.97121
8.93458
8.88578
8.82508
8.75244
8.66742
8.56958
8.45884
8.33546
8.19996
8.05296
7.89512
7.72763
7.55212
7.37058
7.18528
6.9986
6.81292
6.6306
6.45398
6.28509
6.1261
5.97777
5.84158
0.234519
0.195701
0.180043
0.169318
0.160579
0.153142
0.146761
0.141375
0.136991
0.133634
0.131313
0.130026
0.129787
0.130664
0.132797
0.136414
0.141802
0.149262
0.159044
0.171288
0.185991
0.203008
0.222077
0.242867
0.265016
0.288168
0.311988
0.336171
0.360487
0.384747
0.408793
0.43253
0.455911
0.478928
0.501603
0.523998
0.546208
0.568353
0.590586
0.613083
0.636011
0.659519
0.683755
0.708893
0.735136
0.762671
0.791659
0.822285
0.854738
0.889201
0.925804
0.964761
1.00632
1.05072
1.09818
1.14895
1.20323
1.26111
1.32255
1.3876
1.45624
1.52844
1.60403
1.68379
1.76756
1.85516
1.94671
2.0422
2.1416
2.24478
2.35162
2.46193
2.57547
2.69202
2.81143
2.93372
3.05974
3.18644
3.31391
3.44237
3.57168
3.70163
3.83199
3.96248
4.09283
4.22277
4.35204
4.48045
4.60788
4.73422
4.85947
4.9839
5.10719
5.22862
5.34859
5.46661
5.58198
5.69348
5.80174
5.90692
6.00921
6.10891
6.2062
6.30119
6.39319
6.48278
6.57023
6.65575
6.73941
6.82112
6.90101
6.97924
7.05601
7.13152
7.20592
7.27935
7.35191
7.42366
7.49469
7.56502
7.6347
7.70373
7.77213
7.8399
7.90705
7.97353
8.03931
8.10434
8.16856
8.23191
8.2943
8.35562
8.41574
8.47454
8.53187
8.58755
8.64138
8.69314
8.74258
8.78945
8.83344
8.87425
8.91154
8.94493
8.97402
8.99837
9.01752
9.031
9.03832
9.03897
9.03246
9.01828
8.99599
8.96524
8.9257
8.87693
8.81673
8.74485
8.66062
8.56379
8.45425
8.33166
8.19577
8.0468
7.88524
7.71191
7.52783
7.33437
7.13335
6.92698
6.71772
6.50813
6.30069
6.0976
5.90113
5.71339
5.53609
5.37094
5.21846
5.07995
0.27066
0.214509
0.192947
0.178718
0.167548
0.158377
0.1507
0.144274
0.139032
0.135005
0.132221
0.13068
0.130393
0.131413
0.133854
0.137881
0.143687
0.151446
0.161277
0.17321
0.187174
0.203009
0.220488
0.239356
0.259352
0.280229
0.301759
0.323741
0.346016
0.36848
0.391097
0.413862
0.436776
0.459874
0.483218
0.506897
0.531012
0.555661
0.580967
0.607057
0.634021
0.662055
0.691359
0.722159
0.754646
0.78885
0.824848
0.862863
0.902987
0.94523
0.98945
1.03614
1.08581
1.13853
1.19441
1.25371
1.31655
1.38296
1.453
1.52676
1.6043
1.68581
1.77177
1.86318
1.95918
2.05769
2.15962
2.26513
2.37417
2.48661
2.60231
2.72104
2.8425
2.96642
3.09257
3.22081
3.35111
3.48264
3.615
3.74795
3.88124
4.01466
4.14796
4.28092
4.41329
4.54482
4.67528
4.80448
4.93237
5.0589
5.18424
5.30897
5.43244
5.55398
5.67261
5.7882
5.90098
6.01091
6.11805
6.22248
6.32434
6.42382
6.52113
6.61642
6.70983
6.80144
6.89129
6.97927
7.06509
7.14804
7.22881
7.30772
7.38502
7.46088
7.5354
7.60868
7.68076
7.75167
7.82144
7.89008
7.95759
8.02398
8.08922
8.15329
8.21617
8.2778
8.33812
8.39706
8.45453
8.51043
8.56465
8.61706
8.6675
8.71581
8.7618
8.80527
8.84596
8.88363
8.91798
8.94871
8.97547
8.9979
9.01562
9.02821
9.03521
9.03615
9.03053
9.01785
8.99757
8.9692
8.93221
8.88613
8.83054
8.76511
8.68956
8.60365
8.50685
8.3984
8.27573
8.13963
7.99063
7.82895
7.65477
7.46856
7.27094
7.06307
6.8465
6.62321
6.39547
6.16598
5.93749
5.71254
5.49344
5.28226
5.0808
4.89055
4.71267
4.54833
4.39781
4.262
0.311242
0.233599
0.20535
0.187249
0.173441
0.162405
0.153334
0.14582
0.13975
0.135168
0.132087
0.130475
0.130303
0.13158
0.134368
0.138759
0.144856
0.15274
0.162449
0.173959
0.187187
0.201996
0.218224
0.235706
0.254291
0.273843
0.294247
0.315427
0.337352
0.360039
0.383524
0.407836
0.432991
0.459149
0.486349
0.514688
0.544346
0.575343
0.607634
0.641141
0.675621
0.711665
0.749575
0.789321
0.830911
0.874488
0.920306
0.968542
1.0193
1.07271
1.12914
1.18902
1.25356
1.32135
1.39145
1.46468
1.54125
1.62121
1.70456
1.79128
1.88135
1.9749
2.07208
2.1731
2.27763
2.38493
2.49484
2.60729
2.72218
2.83937
2.95872
3.07999
3.20298
3.32745
3.45321
3.58016
3.70818
3.83706
3.96658
4.0965
4.2266
4.35665
4.48645
4.6158
4.74456
4.87259
4.99969
5.12571
5.25126
5.3758
5.49891
5.61967
5.73817
5.85467
5.96922
6.08179
6.1923
6.30055
6.40657
6.51041
6.61215
6.71185
6.80957
6.9054
6.99943
7.09174
7.18231
7.27055
7.35598
7.43905
7.51995
7.59885
7.67588
7.75109
7.82456
7.89632