/*--------------------------------*- C++ -*----------------------------------*\
| =========                 |                                                 |
| \\      /  F ield         | OpenFOAM: The Open Source CFD Toolbox           |
|  \\    /   O peration     | Version:  2112                                  |
|   \\  /    A nd           | Website:  www.openfoam.com                      |
|    \\/     M anipulation  |                                                 |
\*---------------------------------------------------------------------------*/
FoamFile
{
    version     2.0;
    format      ascii;
    arch        "LSB;label=32;scalar=64";
    class       volVectorField;
    location    "0.27";
    object      U;
}
// * * * * * * * * * * * * * * * * * * * * * * * * * * * * * * * * * * * * * //

dimensions      [0 1 -1 0 0 0 0];

internalField   nonuniform List<vector> 
12225
(
(9.76438 0.067419 0)
(9.27354 0.109003 0)
(8.73471 0.118708 0)
(8.18548 0.120626 0)
(7.66189 0.116944 0)
(7.18155 0.108429 0)
(6.75584 0.0965397 0)
(6.39371 0.0826609 0)
(6.09931 0.068057 0)
(5.87111 0.0539103 0)
(5.70281 0.0411486 0)
(5.58516 0.0303316 0)
(5.50755 0.0216842 0)
(5.45967 0.0153124 0)
(5.43104 0.0112466 0)
(5.41722 0.010141 0)
(5.39346 0.0267121 0)
(5.36888 -0.000608694 0)
(10.0957 0.0741237 0)
(10.284 0.108928 0)
(10.4001 0.116897 0)
(10.451 0.125049 0)
(10.4468 0.129923 0)
(10.392 0.129389 0)
(10.2926 0.123709 0)
(10.1579 0.113554 0)
(9.99727 0.0999353 0)
(9.81867 0.0842952 0)
(9.62854 0.0681776 0)
(9.43186 0.0528712 0)
(9.23254 0.0392295 0)
(9.03374 0.0278252 0)
(8.83836 0.0184872 0)
(8.64926 0.0135953 0)
(8.47267 0.0115968 0)
(8.33146 0.035329 0)
(10.0193 0.0415521 0)
(10.0733 0.0684595 0)
(10.1286 0.0844386 0)
(10.1827 0.101927 0)
(10.2398 0.116245 0)
(10.2956 0.125799 0)
(10.3438 0.130993 0)
(10.381 0.132492 0)
(10.4053 0.131135 0)
(10.4156 0.128108 0)
(10.4124 0.124676 0)
(10.3973 0.121825 0)
(10.3722 0.120115 0)
(10.339 0.119688 0)
(10.2997 0.120348 0)
(10.2559 0.12155 0)
(10.2127 0.122912 0)
(10.1655 0.116463 0)
(10.0104 0.0334894 0)
(10.0434 0.0654565 0)
(10.0731 0.08215 0)
(10.0985 0.0957824 0)
(10.1258 0.105992 0)
(10.1555 0.112042 0)
(10.1858 0.114569 0)
(10.2147 0.114154 0)
(10.2413 0.111394 0)
(10.2646 0.107179 0)
(10.2848 0.10248 0)
(10.3021 0.0980617 0)
(10.3172 0.0944066 0)
(10.3308 0.0916923 0)
(10.3439 0.089773 0)
(10.3574 0.0881859 0)
(10.3726 0.0860565 0)
(10.3894 0.0766957 0)
(10.0063 0.0280742 0)
(10.0321 0.0594505 0)
(10.0569 0.0756113 0)
(10.078 0.0884796 0)
(10.0997 0.0984409 0)
(10.1224 0.104579 0)
(10.1448 0.107347 0)
(10.166 0.107437 0)
(10.1857 0.105557 0)
(10.2035 0.102524 0)
(10.2195 0.0991086 0)
(10.2339 0.0959044 0)
(10.2474 0.0932929 0)
(10.2609 0.0914235 0)
(10.2752 0.0900504 0)
(10.2908 0.0885155 0)
(10.3084 0.085723 0)
(10.3285 0.0791365 0)
(10.0039 0.0230501 0)
(10.0244 0.0526937 0)
(10.0469 0.0694679 0)
(10.0669 0.0823579 0)
(10.0871 0.092046 0)
(10.1077 0.0979755 0)
(10.1279 0.100672 0)
(10.1469 0.100896 0)
(10.1646 0.0992635 0)
(10.1807 0.0964496 0)
(10.1953 0.0931127 0)
(10.2089 0.0898041 0)
(10.2218 0.0868447 0)
(10.2347 0.0842331 0)
(10.2482 0.0816888 0)
(10.2627 0.0786876 0)
(10.2785 0.0743155 0)
(10.295 0.0667814 0)
(10.0026 0.0191732 0)
(10.0188 0.0464088 0)
(10.0388 0.0630944 0)
(10.0579 0.0757142 0)
(10.0771 0.0850582 0)
(10.0967 0.0908351 0)
(10.1158 0.0935921 0)
(10.134 0.0940086 0)
(10.1508 0.0926546 0)
(10.1664 0.0901528 0)
(10.1807 0.0871085 0)
(10.1941 0.0839548 0)
(10.2069 0.0809202 0)
(10.2197 0.0779729 0)
(10.2328 0.0748985 0)
(10.2465 0.0712271 0)
(10.2609 0.0661843 0)
(10.2754 0.0586359 0)
(10.0018 0.0161077 0)
(10.0147 0.0408251 0)
(10.0323 0.056887 0)
(10.0501 0.0689114 0)
(10.0684 0.0778469 0)
(10.087 0.0834151 0)
(10.1052 0.0861387 0)
(10.1226 0.0866867 0)
(10.1389 0.0855866 0)
(10.154 0.0833723 0)
(10.1682 0.0805411 0)
(10.1814 0.0774522 0)
(10.1942 0.0742996 0)
(10.2069 0.0710641 0)
(10.2196 0.0675092 0)
(10.2326 0.0632358 0)
(10.2458 0.0577031 0)
(10.2589 0.0502783 0)
(10.0013 0.0135988 0)
(10.0116 0.035761 0)
(10.027 0.0509289 0)
(10.0434 0.0622124 0)
(10.0606 0.0706129 0)
(10.0782 0.0759648 0)
(10.0956 0.0786358 0)
(10.1122 0.0792269 0)
(10.1279 0.0782721 0)
(10.1426 0.076249 0)
(10.1564 0.0735644 0)
(10.1695 0.0705142 0)
(10.1821 0.0672514 0)
(10.1945 0.0637537 0)
(10.2068 0.0598355 0)
(10.2191 0.0551954 0)
(10.2313 0.0494519 0)
(10.2432 0.0422541 0)
(10.001 0.0114982 0)
(10.0094 0.0311222 0)
(10.0227 0.0451869 0)
(10.0377 0.0556186 0)
(10.0537 0.0633392 0)
(10.0703 0.0683707 0)
(10.0868 0.0709719 0)
(10.1027 0.0716168 0)
(10.1178 0.0707877 0)
(10.1321 0.0689018 0)
(10.1455 0.0663147 0)
(10.1583 0.0632822 0)
(10.1706 0.0599335 0)
(10.1826 0.0562463 0)
(10.1944 0.0520817 0)
(10.206 0.047223 0)
(10.2173 0.0414174 0)
(10.2282 0.0345 0)
(10.0008 0.00971124 0)
(10.0076 0.0268659 0)
(10.0193 0.0396573 0)
(10.033 0.0491492 0)
(10.0477 0.0561231 0)
(10.0631 0.0606877 0)
(10.0787 0.0630964 0)
(10.0939 0.0637535 0)
(10.1085 0.0630225 0)
(10.1223 0.0612557 0)
(10.1354 0.0587686 0)
(10.1478 0.0557774 0)
(10.1598 0.0523713 0)
(10.1713 0.0485394 0)
(10.1826 0.0442093 0)
(10.1935 0.03924 0)
(10.204 0.0334802 0)
(10.214 0.0268791 0)
(10.0006 0.00827015 0)
(10.0065 0.0232539 0)
(10.0168 0.0347632 0)
(10.0293 0.0433265 0)
(10.0429 0.0495742 0)
(10.0573 0.053658 0)
(10.0719 0.0557969 0)
(10.0864 0.0563384 0)
(10.1004 0.0556178 0)
(10.1137 0.0539279 0)
(10.1265 0.0515202 0)
(10.1387 0.0485689 0)
(10.1504 0.0451526 0)
(10.1616 0.0412813 0)
(10.1724 0.0368885 0)
(10.1827 0.0318988 0)
(10.1926 0.0262496 0)
(10.2019 0.0199559 0)
(10.0005 0.00699595 0)
(10.0055 0.0199034 0)
(10.0147 0.0300594 0)
(10.0261 0.0376498 0)
(10.0388 0.0431463 0)
(10.0522 0.0467113 0)
(10.0659 0.0485364 0)
(10.0795 0.0489159 0)
(10.0929 0.0481373 0)
(10.1057 0.0464483 0)
(10.1181 0.0440591 0)
(10.1299 0.0411249 0)
(10.1413 0.0377273 0)
(10.1522 0.0338681 0)
(10.1626 0.0294995 0)
(10.1725 0.0245931 0)
(10.1818 0.0191157 0)
(10.1906 0.013124 0)
(10.0005 0.00569996 0)
(10.0047 0.0163447 0)
(10.0127 0.0249027 0)
(10.0231 0.031323 0)
(10.0346 0.0359156 0)
(10.047 0.0388356 0)
(10.0598 0.0402442 0)
(10.0726 0.040377 0)
(10.0851 0.039471 0)
(10.0973 0.0377307 0)
(10.1091 0.0353255 0)
(10.1204 0.0323799 0)
(10.1313 0.0289677 0)
(10.1418 0.0251206 0)
(10.1517 0.0208368 0)
(10.1612 0.0160879 0)
(10.1701 0.0108637 0)
(10.1783 0.00524945 0)
(10.0004 0.00437272 0)
(10.004 0.0125949 0)
(10.011 0.0193119 0)
(10.0202 0.0243449 0)
(10.0307 0.0278611 0)
(10.042 0.0299898 0)
(10.0538 0.0308588 0)
(10.0656 0.0306442 0)
(10.0774 0.0295302 0)
(10.0888 0.0276773 0)
(10.0999 0.0252174 0)
(10.1106 0.0222498 0)
(10.1209 0.0188398 0)
(10.1308 0.0150251 0)
(10.1401 0.0108254 0)
(10.149 0.0062583 0)
(10.1573 0.0013442 0)
(10.165 -0.00383983 0)
(10.0003 0.00300406 0)
(10.0034 0.00866301 0)
(10.0094 0.0133043 0)
(10.0176 0.0167186 0)
(10.0271 0.0189668 0)
(10.0374 0.0201374 0)
(10.0481 0.0203222 0)
(10.059 0.0196424 0)
(10.0699 0.0182285 0)
(10.0806 0.0161981 0)
(10.091 0.0136483 0)
(10.101 0.010655 0)
(10.1106 0.00727414 0)
(10.1197 0.00354538 0)
(10.1284 -0.000500472 0)
(10.1366 -0.00483344 0)
(10.1442 -0.0094215 0)
(10.1514 -0.0141856 0)
(10.0003 0.00157708 0)
(10.003 0.00452597 0)
(10.0082 0.00686714 0)
(10.0155 0.00842552 0)
(10.024 0.00919864 0)
(10.0333 0.0092295 0)
(10.0431 0.00857174 0)
(10.0531 0.00729707 0)
(10.0632 0.00548602 0)
(10.0731 0.00321364 0)
(10.0827 0.000543848 0)
(10.092 -0.00247101 0)
(10.1009 -0.00578892 0)
(10.1093 -0.0093754 0)
(10.1173 -0.0131997 0)
(10.1248 -0.0172301 0)
(10.1318 -0.0214348 0)
(10.1384 -0.0257463 0)
(10.0003 5.77725e-05 0)
(10.0026 9.79916e-05 0)
(10.0073 -0.000104767 0)
(10.0139 -0.000656878 0)
(10.0216 -0.00158855 0)
(10.0302 -0.00289811 0)
(10.0392 -0.00457002 0)
(10.0485 -0.0065767 0)
(10.0578 -0.00888419 0)
(10.067 -0.011459 0)
(10.0759 -0.0142716 0)
(10.0845 -0.0172965 0)
(10.0927 -0.0205117 0)
(10.1005 -0.0238973 0)
(10.1079 -0.0274334 0)
(10.1147 -0.0310983 0)
(10.1212 -0.0348702 0)
(10.1271 -0.0386994 0)
(10.0002 -0.00163128 0)
(10.0025 -0.004823 0)
(10.0069 -0.00787224 0)
(10.0132 -0.0108085 0)
(10.0205 -0.0136818 0)
(10.0286 -0.0165306 0)
(10.0372 -0.0193767 0)
(10.0459 -0.0222335 0)
(10.0548 -0.0251122 0)
(10.0634 -0.0280224 0)
(10.0718 -0.0309722 0)
(10.0799 -0.0339693 0)
(10.0876 -0.0370202 0)
(10.0949 -0.0401297 0)
(10.1017 -0.0432991 0)
(10.1081 -0.0465262 0)
(10.114 -0.0498064 0)
(10.1194 -0.0531128 0)
(10.0003 -0.00324712 0)
(10.0027 -0.00951495 0)
(10.0074 -0.015231 0)
(10.0138 -0.0203654 0)
(10.0214 -0.0250128 0)
(10.0296 -0.0292583 0)
(10.0382 -0.0331557 0)
(10.047 -0.0367544 0)
(10.0558 -0.0401058 0)
(10.0645 -0.0432579 0)
(10.0728 -0.0462541 0)
(10.0807 -0.0491353 0)
(10.0882 -0.0519397 0)
(10.0953 -0.0547004 0)
(10.1018 -0.0574454 0)
(10.1078 -0.0601956 0)
(10.1134 -0.0629672 0)
(10.1185 -0.0657558 0)
(10.0003 -0.00467556 0)
(10.003 -0.0136106 0)
(10.0083 -0.0215235 0)
(10.0154 -0.0283923 0)
(10.0234 -0.034418 0)
(10.032 -0.0397362 0)
(10.0411 -0.0444209 0)
(10.0503 -0.0485517 0)
(10.0594 -0.0522137 0)
(10.0683 -0.055484 0)
(10.0768 -0.0584333 0)
(10.0848 -0.0611303 0)
(10.0924 -0.0636414 0)
(10.0994 -0.0660267 0)
(10.1058 -0.0683389 0)
(10.1118 -0.0706213 0)
(10.1172 -0.072909 0)
(10.122 -0.0752164 0)
(10.0004 -0.00615938 0)
(10.0037 -0.0177492 0)
(10.0099 -0.027652 0)
(10.0178 -0.0360035 0)
(10.0266 -0.0432062 0)
(10.0359 -0.0494366 0)
(10.0456 -0.0547743 0)
(10.0554 -0.0593286 0)
(10.0651 -0.0632139 0)
(10.0744 -0.066528 0)
(10.0833 -0.0693632 0)
(10.0917 -0.0718141 0)
(10.0995 -0.0739748 0)
(10.1067 -0.0759331 0)
(10.1132 -0.0777677 0)
(10.1191 -0.0795461 0)
(10.1244 -0.0813251 0)
(10.1291 -0.0831401 0)
(10.0005 -0.00781369 0)
(10.0048 -0.0221357 0)
(10.0124 -0.0337994 0)
(10.0214 -0.0433882 0)
(10.031 -0.0515968 0)
(10.0413 -0.0586017 0)
(10.0518 -0.0644815 0)
(10.0624 -0.0693806 0)
(10.0728 -0.073432 0)
(10.0828 -0.0767403 0)
(10.0922 -0.0794113 0)
(10.1011 -0.0815626 0)
(10.1093 -0.0833158 0)
(10.1167 -0.0847866 0)
(10.1234 -0.0860818 0)
(10.1293 -0.0872952 0)
(10.1346 -0.0885053 0)
(10.1391 -0.0897644 0)
(10.0007 -0.0097798 0)
(10.0066 -0.0269142 0)
(10.0159 -0.0400049 0)
(10.0263 -0.0505989 0)
(10.037 -0.0597002 0)
(10.0483 -0.0673729 0)
(10.0598 -0.0736934 0)
(10.0713 -0.0788625 0)
(10.0825 -0.0830263 0)
(10.0933 -0.0862838 0)
(10.1034 -0.0887474 0)
(10.1128 -0.0905577 0)
(10.1214 -0.091864 0)
(10.1291 -0.0928089 0)
(10.1359 -0.0935287 0)
(10.1419 -0.0941491 0)
(10.1471 -0.0947799 0)
(10.1516 -0.0955025 0)
(10.0011 -0.0122839 0)
(10.0094 -0.0323247 0)
(10.0211 -0.0463597 0)
(10.033 -0.0576959 0)
(10.0449 -0.0676416 0)
(10.0573 -0.0759827 0)
(10.07 -0.0827323 0)
(10.0823 -0.0881313 0)
(10.0943 -0.0923329 0)
(10.1058 -0.0954318 0)
(10.1166 -0.0975502 0)
(10.1265 -0.0988619 0)
(10.1355 -0.0995614 0)
(10.1436 -0.0998242 0)
(10.1506 -0.0998139 0)
(10.1567 -0.0996822 0)
(10.1619 -0.0995574 0)
(10.1662 -0.0995038 0)
(10.002 -0.0157212 0)
(10.0141 -0.0389926 0)
(10.0288 -0.0534821 0)
(10.0422 -0.0649761 0)
(10.0552 -0.0750317 0)
(10.0688 -0.0834549 0)
(10.0825 -0.0903328 0)
(10.096 -0.0958898 0)
(10.1091 -0.100219 0)
(10.1217 -0.103377 0)
(10.1336 -0.105465 0)
(10.1447 -0.106647 0)
(10.1549 -0.107112 0)
(10.1639 -0.107076 0)
(10.1719 -0.106757 0)
(10.1788 -0.106344 0)
(10.1848 -0.106008 0)
(10.1899 -0.105817 0)
(10.0041 -0.0200895 0)
(10.0218 -0.0453828 0)
(10.0405 -0.0603805 0)
(10.0565 -0.0726861 0)
(10.0722 -0.0832675 0)
(10.0886 -0.0916734 0)
(10.1054 -0.0983275 0)
(10.1221 -0.103549 0)
(10.1388 -0.107385 0)
(10.1554 -0.109874 0)
(10.1715 -0.111118 0)
(10.1869 -0.111332 0)
(10.2012 -0.110724 0)
(10.214 -0.10946 0)
(10.2253 -0.10777 0)
(10.2352 -0.105926 0)
(10.2437 -0.1041 0)
(10.2504 -0.102391 0)
(10.0095 -0.0259532 0)
(10.039 -0.0474113 0)
(10.0698 -0.0602504 0)
(10.0991 -0.0743398 0)
(10.1315 -0.087712 0)
(10.166 -0.0990028 0)
(10.2013 -0.108486 0)
(10.2362 -0.116508 0)
(10.2697 -0.123 0)
(10.3008 -0.127868 0)
(10.3284 -0.131141 0)
(10.3515 -0.132936 0)
(10.3699 -0.133504 0)
(10.3833 -0.133187 0)
(10.3919 -0.13234 0)
(10.3957 -0.131351 0)
(10.3953 -0.130466 0)
(10.3913 -0.130112 0)
(10.0515 -0.0520895 0)
(10.1748 -0.0841508 0)
(10.2757 -0.0938757 0)
(10.3508 -0.103765 0)
(10.4025 -0.112679 0)
(10.4316 -0.119334 0)
(10.4374 -0.123991 0)
(10.4212 -0.126778 0)
(10.3854 -0.127555 0)
(10.3324 -0.126253 0)
(10.2648 -0.122949 0)
(10.1853 -0.117869 0)
(10.0962 -0.111354 0)
(9.99981 -0.103791 0)
(9.89787 -0.0955677 0)
(9.79203 -0.0871782 0)
(9.68348 -0.0789124 0)
(9.57356 -0.0718504 0)
(9.87225 -0.0504924 0)
(9.57845 -0.0895439 0)
(9.23344 -0.104023 0)
(8.86294 -0.112283 0)
(8.49011 -0.116483 0)
(8.1244 -0.117176 0)
(7.77092 -0.115262 0)
(7.43478 -0.11129 0)
(7.1205 -0.105578 0)
(6.83133 -0.0984399 0)
(6.56949 -0.090217 0)
(6.33624 -0.0812739 0)
(6.13185 -0.0719711 0)
(5.95564 -0.0626328 0)
(5.80608 -0.0535377 0)
(5.68125 -0.0449712 0)
(5.57763 -0.037274 0)
(5.495 -0.030004 0)
(0.000819615 -0.00169787 -2.34809e-21)
(0.0015483 -0.00168598 2.28905e-21)
(0.00276033 -0.00153234 0)
(0.00363928 -0.00123418 0)
(0.00424207 -0.000775335 0)
(0.00442826 -0.000165354 -2.22305e-21)
(0.0040802 0.000579383 0)
(0.00309558 0.00143427 0)
(0.00138546 0.00237331 0)
(-0.00112097 0.00337056 0)
(-0.00447697 0.00440112 2.14032e-21)
(-0.00871843 0.00544099 0)
(-0.0138637 0.00646542 0)
(-0.0199122 0.0074471 0)
(-0.0268416 0.00835674 0)
(-0.0346064 0.00917205 2.05815e-21)
(-0.0431424 0.00990203 0)
(-0.0523843 0.0106378 0)
(-0.0623631 0.0116556 0)
(-0.0731666 0.0135494 0)
(-0.0851511 0.015817 0)
(-0.0985598 0.0171364 0)
(-0.112965 0.0167904 0)
(-0.12775 0.0147119 1.94483e-21)
(-0.142321 0.0114726 -1.92382e-21)
(-0.156289 0.00824016 1.89888e-21)
(-0.169663 0.00608125 1.87093e-21)
(-0.182743 0.00534314 0)
(-0.195879 0.00575064 0)
(-0.209313 0.00682522 -1.784e-21)
(-0.223159 0.00816877 -1.75775e-21)
(-0.237437 0.00953658 0)
(-0.252118 0.0108044 0)
(-0.267153 0.0119174 -1.69189e-21)
(-0.282488 0.0128544 0)
(-0.298079 0.0136144 0)
(-0.313889 0.0142139 1.64252e-21)
(-0.329892 0.0146787 0)
(-0.346071 0.015037 1.6157e-21)
(-0.36242 0.015316 3.20701e-21)
(-0.378942 0.0155406 0)
(-0.39565 0.0157322 0)
(-0.412562 0.0159085 0)
(-0.429698 0.0160828 0)
(-0.447085 0.0162645 0)
(-0.464747 0.016459 3.08026e-21)
(-0.482708 0.016669 3.06128e-21)
(-0.500991 0.0168946 3.04274e-21)
(-0.519616 0.0171343 0)
(-0.538598 0.0173855 -3.00691e-21)
(-0.557952 0.017645 0)
(-0.577687 0.0179093 2.97259e-21)
(-0.597808 0.0181751 2.95594e-21)
(-0.618319 0.0184389 0)
(-0.639217 0.0186975 0)
(-0.660499 0.0189479 0)
(-0.682156 0.0191872 2.89227e-21)
(-0.704178 0.0194127 0)
(-0.72655 0.0196215 0)
(-0.749254 0.0198112 0)
(-0.772268 0.0199791 0)
(-0.79557 0.0201228 0)
(-0.81913 0.02024 0)
(-0.842919 0.0203284 0)
(-0.866904 0.020386 0)
(-0.891047 0.0204108 -2.75876e-21)
(-0.91531 0.0204012 0)
(-0.939653 0.0203558 0)
(-0.964032 0.0202738 2.71381e-21)
(-0.988404 0.0201545 2.69839e-21)
(-1.01272 0.0199977 0)
(-1.03694 0.0198036 -2.66657e-21)
(-1.06102 0.0195728 2.65008e-21)
(-1.08491 0.0193064 0)
(-1.10856 0.0190056 -2.61568e-21)
(-1.13193 0.0186721 0)
(-1.15498 0.0183078 0)
(-1.17767 0.0179148 2.55977e-21)
(-1.19996 0.0174952 0)
(-1.22182 0.017051 -2.51912e-21)
(-1.24321 0.0165843 0)
(-1.2641 0.0160972 2.47541e-21)
(-1.28446 0.0155915 2.45233e-21)
(-1.30427 0.0150691 2.42839e-21)
(-1.3235 0.0145319 4.80713e-21)
(-1.34212 0.013982 -4.7557e-21)
(-1.36013 0.0134217 0)
(-1.37749 0.0128536 0)
(-1.39421 0.0122807 0)
(-1.41027 0.0117065 -4.53151e-21)
(-1.42566 0.0111343 -4.47076e-21)
(-1.44038 0.010568 4.40812e-21)
(-1.45443 0.0100109 0)
(-1.46782 0.00946642 -4.27719e-21)
(-1.48054 0.00893741 -4.20891e-21)
(-1.49263 0.00842638 -4.13879e-21)
(-1.50408 0.00793532 0)
(-1.51491 0.00746562 0)
(-1.52516 0.00701808 0)
(-1.53482 0.00659297 -3.8404e-21)
(-1.54393 0.00619011 0)
(-1.55251 0.00580907 0)
(-1.56058 0.00544927 3.59889e-21)
(-1.56815 0.00511019 0)
(-1.57526 0.00479134 0)
(-1.58192 0.00449233 3.34346e-21)
(-1.58816 0.00421284 0)
(-1.59399 0.00395253 0)
(-1.59944 0.00371097 -3.07525e-21)
(-1.60452 0.0034875 -2.98319e-21)
(-1.60927 0.00328112 0)
(-1.61369 0.00309043 2.79529e-21)
(-1.61782 0.00291347 0)
(-1.62165 0.00274745 -2.60253e-21)
(-1.62521 0.00258828 0)
(-1.62851 0.00243071 -2.405e-21)
(-1.63155 0.0022659 -2.3045e-21)
(-1.63432 0.00207871 0)
(-1.63681 0.00188715 0)
(-1.63905 0.00176227 0)
(-1.64105 0.00169785 0)
(-1.64275 0.00168029 0)
(-1.64416 0.00165207 0)
(-1.64527 0.00160411 0)
(-1.64607 0.00154077 -1.4579e-21)
(-1.64656 0.00146444 1.34643e-21)
(-1.64671 0.0013762 0)
(-1.64649 0.00127625 0)
(-1.6459 0.00116424 0)
(-1.64489 0.00103943 0)
(-1.64345 0.000900752 1.5357e-21)
(-1.64154 0.000746882 0)
(-1.63914 0.000576215 -1.05128e-21)
(-1.6362 0.000386858 8.04036e-22)
(-1.63268 0.000176561 0)
(-1.62855 -5.7366e-05 0)
(-1.62375 -0.000318196 0)
(-1.61824 -0.000609854 2.21352e-22)
(-1.61195 -0.000936744 4.8746e-22)
(-1.60483 -0.00130346 0)
(-1.59679 -0.00171453 1.03239e-21)
(-1.58778 -0.00217326 1.31151e-21)
(-1.57771 -0.0026785 -1.59526e-21)
(-1.5665 -0.00322417 0)
(-1.55405 -0.00380991 0)
(-1.54026 -0.0044359 -2.47581e-21)
(-1.52504 -0.00510157 0)
(-1.50827 -0.00580598 0)
(-1.48983 -0.00654941 0)
(-1.4696 -0.00733483 0)
(-1.44746 -0.00816794 4.04936e-21)
(-1.42327 -0.00905587 4.38083e-21)
(-1.39687 -0.0100059 0)
(-1.36812 -0.011023 5.06074e-21)
(-1.33684 -0.0121094 0)
(-1.30288 -0.0132667 0)
(-1.26606 -0.0144976 6.12203e-21)
(-1.22622 -0.0158073 0)
(-1.18317 -0.0172023 6.85506e-21)
(-1.13673 -0.018687 0)
(-1.08671 -0.0202637 0)
(-1.03293 -0.0219351 7.98542e-21)
(-0.975231 -0.0237072 0)
(-0.913433 -0.0255842 8.7517e-21)
(-0.847384 -0.0275714 0)
(-0.776942 -0.0296864 0)
(-0.701943 -0.0319696 0)
(-0.622172 -0.0344845 -1.02684e-20)
(-0.537374 -0.0373152 0)
(-0.447338 -0.0404012 1.09722e-20)
(-0.35197 -0.0425127 0)
(-0.257741 -0.0391543 0)
(-0.16846 -0.0342153 0)
(-0.0768374 -0.0343018 0)
(0.0186267 -0.0348409 0)
(0.113725 -0.0338499 0)
(0.207834 -0.0362665 0)
(0.298006 -0.0381917 -2.67527e-20)
(0.398746 -0.033815 0)
(0.459343 -0.0227247 0)
(0.000627252 -0.00313744 7.01659e-21)
(0.00115849 -0.00304637 -6.84093e-21)
(0.00201902 -0.00266799 0)
(0.00254321 -0.00194425 4.49434e-21)
(0.00275556 -0.000876098 0)
(0.00252675 0.000517467 2.21328e-21)
(0.00174667 0.00220293 -4.39317e-21)
(0.000313794 0.00413543 -4.35943e-21)
(-0.00185922 0.00626488 0)
(-0.00484664 0.00853956 -4.29118e-21)
(-0.00870735 0.0109088 -2.12856e-21)
(-0.0134844 0.0133234 0)
(-0.0192053 0.0157342 0)
(-0.0258831 0.0180893 0)
(-0.0335178 0.020334 0)
(-0.0420978 0.0224166 -2.04543e-21)
(-0.0516003 0.0243048 0)
(-0.0619885 0.0260145 4.0279e-21)
(-0.0731981 0.0276497 0)
(-0.0850286 0.0294547 0)
(-0.0972281 0.0316882 -3.94075e-21)
(-0.109741 0.0341051 0)
(-0.122742 0.036223 3.88006e-21)
(-0.136455 0.0376926 -1.9217e-21)
(-0.151007 0.0384081 1.89929e-21)
(-0.166335 0.038514 -1.87309e-21)
(-0.182191 0.0382979 -1.84391e-21)
(-0.198248 0.0380147 0)
(-0.214263 0.0377961 0)
(-0.230131 0.0376664 1.75261e-21)
(-0.245858 0.0375993 -1.72804e-21)
(-0.261506 0.0375604 0)
(-0.277154 0.037525 0)
(-0.292875 0.0374806 1.65384e-21)
(-0.308726 0.0374234 0)
(-0.32475 0.0373566 0)
(-0.340976 0.0372891 -1.60106e-21)
(-0.357429 0.0372328 0)
(-0.374129 0.0371999 1.5695e-21)
(-0.391093 0.0372015 -3.12068e-21)
(-0.408339 0.0372465 0)
(-0.425883 0.0373406 0)
(-0.443741 0.037487 -6.09508e-21)
(-0.461929 0.0376856 -6.05299e-21)
(-0.480463 0.0379343 -6.01236e-21)
(-0.499359 0.0382285 2.98046e-21)
(-0.518633 0.0385625 -2.97363e-21)
(-0.538297 0.0389295 -8.85272e-21)
(-0.558365 0.039322 5.86117e-21)
(-0.578847 0.0397326 2.91964e-21)
(-0.599749 0.0401538 0)
(-0.621078 0.0405781 -2.8856e-21)
(-0.642836 0.0409987 2.85444e-21)
(-0.665022 0.0414086 0)
(-0.687631 0.0418014 0)
(-0.710655 0.0421708 0)
(-0.734083 0.0425108 -2.80579e-21)
(-0.7579 0.0428157 0)
(-0.782088 0.0430799 5.53457e-21)
(-0.806623 0.0432981 0)
(-0.83148 0.0434654 5.47467e-21)
(-0.856629 0.043577 0)
(-0.882038 0.0436287 -5.41557e-21)
(-0.907671 0.0436166 0)
(-0.933488 0.0435373 5.35674e-21)
(-0.959448 0.043388 -2.65498e-21)
(-0.985507 0.0431665 0)
(-1.01162 0.0428712 -5.2677e-21)
(-1.03773 0.0425015 -2.62735e-21)
(-1.06381 0.0420571 -2.61198e-21)
(-1.08978 0.041539 0)
(-1.11562 0.0409487 -2.56361e-21)
(-1.14126 0.0402886 -2.56406e-21)
(-1.16665 0.0395616 0)
(-1.19176 0.0387714 2.53015e-21)
(-1.21654 0.0379221 -5.00924e-21)
(-1.24093 0.0370185 0)
(-1.2649 0.0360652 -2.47546e-21)
(-1.28842 0.0350675 0)
(-1.31144 0.0340302 7.29382e-21)
(-1.33393 0.0329586 0)
(-1.35587 0.0318575 -7.1682e-21)
(-1.37723 0.0307319 -2.37164e-21)
(-1.39797 0.0295866 2.33646e-21)
(-1.41809 0.0284262 4.62654e-21)
(-1.43756 0.0272557 -4.57863e-21)
(-1.45637 0.0260798 0)
(-1.4745 0.0249031 0)
(-1.49195 0.0237305 0)
(-1.50871 0.0225666 1.31493e-20)
(-1.52477 0.0214159 4.3321e-21)
(-1.54014 0.0202829 -4.27329e-21)
(-1.5548 0.0191719 0)
(-1.56878 0.0180871 -4.13603e-21)
(-1.58206 0.0170323 4.08625e-21)
(-1.59466 0.0160111 4.02028e-21)
(-1.60659 0.0150264 0)
(-1.61787 0.0140804 0)
(-1.62851 0.0131746 0)
(-1.63853 0.0123096 3.73794e-21)
(-1.64794 0.0114853 0)
(-1.65678 0.0107011 -7.16341e-21)
(-1.66505 0.00995634 -1.0514e-20)
(-1.67278 0.00925009 6.84657e-21)
(-1.67999 0.00858153 0)
(-1.68669 0.00794986 3.255e-21)
(-1.69292 0.00735423 0)
(-1.6987 0.00679371 6.17384e-21)
(-1.70403 0.00626713 -2.99635e-21)
(-1.70896 0.00577292 -2.9072e-21)
(-1.71348 0.00530907 0)
(-1.71763 0.0048731 -8.18351e-21)
(-1.72142 0.00446215 5.26756e-21)
(-1.72485 0.00407321 2.54125e-21)
(-1.72795 0.00370354 0)
(-1.73071 0.00335212 2.34818e-21)
(-1.73315 0.00301636 6.74635e-21)
(-1.73526 0.00267047 0)
(-1.73699 0.00232176 4.09635e-21)
(-1.73837 0.00191323 3.89261e-21)
(-1.73945 0.00152225 3.68654e-21)
(-1.74021 0.00116035 0)
(-1.74061 0.000802883 0)
(-1.74062 0.000438316 0)
(-1.74023 6.36313e-05 -1.41866e-21)
(-1.73942 -0.000323628 -1.31143e-21)
(-1.73815 -0.000725651 0)
(-1.73641 -0.0011445 -2.17775e-21)
(-1.73418 -0.00158208 -1.95206e-21)
(-1.73141 -0.00204016 0)
(-1.72807 -0.00252045 -1.49222e-21)
(-1.72415 -0.00302468 -2.51704e-21)
(-1.71959 -0.00355465 1.02031e-21)
(-1.71435 -0.00411228 7.83655e-22)
(-1.70841 -0.00469967 0)
(-1.7017 -0.00531925 0)
(-1.69419 -0.00597386 0)
(-1.68582 -0.00666686 -2.14065e-22)
(-1.67653 -0.0074019 4.59344e-22)
(-1.66627 -0.0081825 1.44947e-21)
(-1.65496 -0.00901209 -9.95953e-22)
(-1.64255 -0.00989396 1.24557e-21)
(-1.62894 -0.0108304 1.53636e-21)
(-1.61407 -0.011822 0)
(-1.59784 -0.012873 0)
(-1.58017 -0.013989 -2.3476e-21)
(-1.56095 -0.0151765 0)
(-1.54006 -0.0164412 0)
(-1.51737 -0.017787 6.48284e-21)
(-1.49275 -0.0192171 0)
(-1.46606 -0.0207335 3.82491e-21)
(-1.43716 -0.0223383 -4.19195e-21)
(-1.40591 -0.0240344 0)
(-1.37217 -0.0258235 4.76675e-21)
(-1.33579 -0.0277041 0)
(-1.29664 -0.0296732 0)
(-1.25456 -0.0317281 -5.83385e-21)
(-1.20943 -0.0338681 1.22546e-20)
(-1.16111 -0.0360936 -6.5189e-21)
(-1.10943 -0.0383996 0)
(-1.05428 -0.0407753 0)
(-0.995517 -0.0432075 7.44104e-21)
(-0.933036 -0.0456844 0)
(-0.866736 -0.0481878 8.12962e-21)
(-0.796544 -0.0506934 0)
(-0.722422 -0.0531825 0)
(-0.644365 -0.0556476 0)
(-0.562413 -0.0580695 9.67607e-21)
(-0.476734 -0.0603613 0)
(-0.387882 -0.0621217 -1.03528e-20)
(-0.296641 -0.0621413 0)
(-0.204802 -0.0602348 0)
(-0.110358 -0.0604767 2.24358e-20)
(-0.0126316 -0.0624587 -2.30769e-20)
(0.0866475 -0.0630666 0)
(0.186358 -0.0615945 0)
(0.286898 -0.0594213 0)
(0.385149 -0.0586008 7.56859e-20)
(0.491294 -0.0553191 0)
(0.570338 -0.043134 -5.22683e-20)
(0.000462599 -0.00509347 4.87406e-25)
(0.000865317 -0.0048755 9.11644e-21)
(0.00144114 -0.00410515 0)
(0.00168713 -0.00271292 -8.98189e-21)
(0.00158438 -0.000713516 0)
(0.00100918 0.00185502 0)
(-0.000145341 0.0049327 -8.06025e-25)
(-0.00197625 0.00844474 4.35479e-21)
(-0.00456972 0.012306 4.32164e-21)
(-0.0079989 0.0164271 4.28668e-21)
(-0.0123215 0.0207183 0)
(-0.0175783 0.0250933 0)
(-0.0237923 0.0294689 -4.18545e-21)
(-0.0309704 0.0337658 -8.30329e-21)
(-0.0391058 0.0379092 8.23674e-21)
(-0.0481819 0.041835 0)
(-0.0581751 0.0455027 8.10937e-21)
(-0.0690555 0.0489122 -4.02315e-21)
(-0.0807807 0.0521134 0)
(-0.0932661 0.0551854 7.93601e-21)
(-0.106362 0.0581138 3.93802e-21)
(-0.11994 0.0607013 -7.82129e-21)
(-0.133987 0.0626721 -3.8759e-21)
(-0.148564 0.0638339 0)
(-0.163719 0.0641933 7.58626e-21)
(-0.179416 0.0639716 7.4802e-21)
(-0.195532 0.0634934 0)
(-0.211904 0.0630308 7.24375e-21)
(-0.228386 0.0627306 0)
(-0.244874 0.06263 7.00957e-21)
(-0.261321 0.0627042 3.45048e-21)
(-0.277722 0.0629052 0)
(-0.294105 0.0631857 0)
(-0.310513 0.0635088 0)
(-0.326995 0.0638509 0)
(-0.343602 0.0642007 0)
(-0.360381 0.0645548 0)
(-0.377374 0.0649164 6.35953e-21)
(-0.394618 0.0652937 -9.45547e-21)
(-0.412143 0.0656966 0)
(-0.429978 0.0661355 0)
(-0.448144 0.0666193 0)
(-0.466662 0.0671546 -6.47834e-24)
(-0.485549 0.0677448 6.07097e-21)
(-0.50482 0.0683904 1.20681e-20)
(-0.52449 0.0690886 -1.199e-20)
(-0.544568 0.0698341 -5.96056e-21)
(-0.565067 0.0706193 5.91639e-21)
(-0.585994 0.0714352 7.39596e-24)
(-0.607354 0.0722714 5.85219e-21)
(-0.629152 0.0731169 0)
(-0.651389 0.0739602 5.78367e-21)
(-0.674062 0.0747898 8.20921e-24)
(-0.697167 0.0755941 0)
(-0.720695 0.0763618 0)
(-0.744634 0.0770815 -5.65359e-21)
(-0.76897 0.0777425 0)
(-0.793682 0.078334 0)
(-0.818747 0.0788461 5.5702e-21)
(-0.844139 0.0792689 1.10605e-20)
(-0.869829 0.0795934 -5.49014e-21)
(-0.895781 0.0798111 0)
(-0.92196 0.0799142 5.42989e-21)
(-0.948326 0.079896 0)
(-0.974836 0.0797502 5.39126e-21)
(-1.00145 0.0794722 5.33974e-21)
(-1.02811 0.0790581 -1.06409e-20)
(-1.05477 0.0785057 -5.30111e-21)
(-1.08139 0.0778138 0)
(-1.10791 0.0769831 1.04563e-20)
(-1.13428 0.0760156 0)
(-1.16045 0.0749148 1.54816e-20)
(-1.18638 0.0736856 1.02627e-20)
(-1.212 0.0723343 1.01953e-20)
(-1.23728 0.0708681 -1.01262e-20)
(-1.26218 0.0692954 1.50719e-20)
(-1.28664 0.0676253 0)
(-1.31064 0.0658671 0)
(-1.33413 0.0640307 -9.8297e-21)
(-1.35709 0.0621257 -1.46145e-20)
(-1.37948 0.0601618 0)
(-1.40128 0.0581483 4.78133e-21)
(-1.42247 0.0560942 0)
(-1.44302 0.0540083 -1.40961e-20)
(-1.46292 0.051899 1.78736e-23)
(-1.48216 0.0497747 -1.72619e-23)
(-1.50071 0.0476432 9.11297e-21)
(-1.51857 0.0455123 0)
(-1.53572 0.0433894 -8.90313e-21)
(-1.55217 0.0412817 1.46549e-23)
(-1.56789 0.0391961 0)
(-1.5829 0.0371396 0)
(-1.59717 0.035119 0)
(-1.61071 0.0331411 8.30368e-21)
(-1.62353 0.0312127 0)
(-1.63562 0.0293401 0)
(-1.647 0.0275291 0)
(-1.65767 0.0257842 0)
(-1.66766 0.0241085 0)
(-1.67697 0.0225037 7.48174e-21)
(-1.68562 0.0209704 0)
(-1.69364 0.019508 7.16513e-21)
(-1.70104 0.0181157 7.00567e-21)
(-1.70785 0.0167928 -6.84274e-21)
(-1.71408 0.0155382 0)
(-1.71976 0.0143511 -6.50696e-21)
(-1.7249 0.0132306 0)
(-1.72952 0.0121754 -6.1588e-21)
(-1.73366 0.0111838 5.98039e-21)
(-1.73732 0.010253 1.74092e-20)
(-1.74054 0.0093795 0)
(-1.74332 0.00855837 1.6299e-20)
(-1.74568 0.00778391 5.25176e-21)
(-1.74764 0.00704976 0)
(-1.7492 0.00634898 9.72423e-21)
(-1.75037 0.00567144 9.33368e-21)
(-1.75118 0.00501325 -1.34027e-20)
(-1.75161 0.00440462 0)
(-1.75168 0.0037998 -4.06215e-21)
(-1.75137 0.00314217 -3.85821e-21)
(-1.75062 0.0024685 -1.09709e-20)
(-1.74946 0.00177283 0)
(-1.74787 0.00106418 0)
(-1.74585 0.000343451 0)
(-1.74337 -0.000393478 -2.82296e-21)
(-1.7404 -0.00115113 0)
(-1.73693 -0.00193383 0)
(-1.73293 -0.00274549 2.15139e-21)
(-1.72837 -0.00358963 1.92768e-21)
(-1.72322 -0.00446945 0)
(-1.71746 -0.00538796 0)
(-1.71106 -0.00634817 2.48266e-21)
(-1.70397 -0.00735315 0)
(-1.69616 -0.00840612 -1.54095e-21)
(-1.68759 -0.00951059 -1.08191e-21)
(-1.67822 -0.0106705 0)
(-1.66801 -0.0118907 0)
(-1.6569 -0.0131767 -3.89116e-22)
(-1.64483 -0.0145348 -2.347e-23)
(-1.63175 -0.0159705 -2.44073e-23)
(-1.61759 -0.0174891 0)
(-1.60228 -0.0190959 -4.90757e-21)
(-1.58574 -0.0207964 0)
(-1.56788 -0.0225978 0)
(-1.54862 -0.024508 0)
(-1.52785 -0.0265363 4.64151e-21)
(-1.50547 -0.0286934 0)
(-1.48136 -0.0309873 -1.14904e-20)
(-1.45541 -0.033423 -6.36195e-21)
(-1.42748 -0.0360025 0)
(-1.39747 -0.0387258 -7.55463e-21)
(-1.36526 -0.041592 0)
(-1.33073 -0.0446035 0)
(-1.29375 -0.0477617 -2.8151e-20)
(-1.25419 -0.0510628 2.00106e-20)
(-1.21194 -0.0545005 0)
(-1.16686 -0.0580688 2.26051e-20)
(-1.11883 -0.0617653 -1.20092e-20)
(-1.06773 -0.0655913 0)
(-1.01342 -0.0695407 0)
(-0.95577 -0.0735986 0)
(-0.894668 -0.0777461 -4.40777e-20)
(-0.83 -0.0819689 0)
(-0.761668 -0.0862451 -1.61105e-20)
(-0.689597 -0.0905443 0)
(-0.613746 -0.0948435 0)
(-0.53412 -0.0991355 0)
(-0.450794 -0.103393 0)
(-0.363973 -0.107491 0)
(-0.274141 -0.110985 0)
(-0.181647 -0.112656 -4.19494e-20)
(-0.0862016 -0.112145 0)
(0.013105 -0.112538 -2.23674e-20)
(0.114363 -0.114402 6.88297e-20)
(0.216253 -0.114968 0)
(0.318762 -0.11355 0)
(0.423049 -0.112233 -4.89662e-20)
(0.523885 -0.110796 -4.98617e-20)
(0.631716 -0.10493 5.08394e-20)
(0.718003 -0.0896942 5.15045e-20)
(0.000174558 -0.00592951 -1.40206e-20)
(0.000284495 -0.00551378 -1.36591e-20)
(0.000333336 -0.0043398 -9.03887e-21)
(7.8224e-05 -0.0023208 -4.48609e-21)
(-0.000553876 0.00051506 0)
(-0.00166958 0.00411207 8.83207e-21)
(-0.00336538 0.00839166 -4.38287e-21)
(-0.00573191 0.0132582 0)
(-0.00885267 0.0186032 -4.31373e-21)
(-0.0128014 0.0243094 0)
(-0.0176381 0.0302544 8.49621e-21)
(-0.0234048 0.0363158 0)
(-0.0301234 0.0423747 4.1799e-21)
(-0.037795 0.0483198 8.29242e-21)
(-0.0464041 0.0540516 -8.2258e-21)
(-0.0559235 0.059489 0)
(-0.0663203 0.0645786 -8.09856e-21)
(-0.0775585 0.0693056 0)
(-0.0895962 0.0736975 0)
(-0.102379 0.0778108 -7.92773e-21)
(-0.115838 0.0816798 0)
(-0.129921 0.0852443 -2.42583e-24)
(-0.144615 0.0883332 0)
(-0.159919 0.0907187 0)
(-0.175785 0.0922361 4.09554e-24)
(-0.192111 0.0929067 -7.45819e-21)
(-0.208764 0.092932 -7.3466e-21)
(-0.225612 0.0925806 -7.22336e-21)
(-0.242544 0.0920854 0)
(-0.259484 0.0916042 -1.39997e-20)
(-0.276392 0.0912239 0)
(-0.29326 0.0909814 -6.80389e-21)
(-0.310108 0.0908828 0)
(-0.32697 0.0909191 0)
(-0.343894 0.0910759 6.56416e-21)
(-0.360927 0.0913386 0)
(-0.37812 0.0916962 -6.43674e-21)
(-0.395518 0.0921413 4.15453e-24)
(-0.413164 0.0926701 1.26518e-20)
(-0.431094 0.093281 -1.25575e-20)
(-0.449341 0.0939734 0)