/*--------------------------------*- C++ -*----------------------------------*\
| =========                 |                                                 |
| \\      /  F ield         | OpenFOAM: The Open Source CFD Toolbox           |
|  \\    /   O peration     | Version:  2112                                  |
|   \\  /    A nd           | Website:  www.openfoam.com                      |
|    \\/     M anipulation  |                                                 |
\*---------------------------------------------------------------------------*/
FoamFile
{
    version     2.0;
    format      ascii;
    arch        "LSB;label=32;scalar=64";
    class       volScalarField;
    location    "0.08";
    object      p;
}
// * * * * * * * * * * * * * * * * * * * * * * * * * * * * * * * * * * * * * //

dimensions      [0 2 -2 0 0 0 0];

internalField   nonuniform List<scalar> 
122250
(
-5.03249
-5.15987
-5.22689
-5.24599
-5.24376
-5.24513
-5.25436
-5.26059
-5.2579
-5.24706
-5.23144
-5.21516
-5.20356
-5.20484
-5.21558
-5.25846
-5.30721
-5.42599
-5.10918
-5.17794
-5.23095
-5.25162
-5.25119
-5.2528
-5.26124
-5.26642
-5.26325
-5.25358
-5.24009
-5.22672
-5.21751
-5.22049
-5.23437
-5.27244
-5.33015
-5.42012
-5.14025
-5.18007
-5.22566
-5.25065
-5.25415
-5.25671
-5.26426
-5.26836
-5.26552
-5.25842
-5.24891
-5.23977
-5.23399
-5.2393
-5.25553
-5.2928
-5.34892
-5.42739
-5.17102
-5.19464
-5.23093
-5.25544
-5.26199
-5.26611
-5.2728
-5.27568
-5.27311
-5.26818
-5.26202
-5.25615
-5.25364
-5.26065
-5.27937
-5.31483
-5.36748
-5.43535
-5.20018
-5.21112
-5.23678
-5.25723
-5.26554
-5.27201
-5.2786
-5.28046
-5.27825
-5.27564
-5.27301
-5.27063
-5.27132
-5.28013
-5.30004
-5.33342
-5.38117
-5.44103
-5.22674
-5.22786
-5.24329
-5.25894
-5.26897
-5.27924
-5.28731
-5.28875
-5.28683
-5.28623
-5.28693
-5.28794
-5.29153
-5.30191
-5.32212
-5.35345
-5.39631
-5.44902
-5.25037
-5.24408
-5.25146
-5.26278
-5.27343
-5.28654
-5.29629
-5.29789
-5.29635
-5.29747
-5.30104
-5.30507
-5.31107
-5.32258
-5.34245
-5.37156
-5.40977
-5.4559
-5.27125
-5.25986
-5.26123
-5.26813
-5.27799
-5.29315
-5.30513
-5.30773
-5.30689
-5.30958
-5.3158
-5.32292
-5.33147
-5.34429
-5.36389
-5.39089
-5.42483
-5.46442
-5.28964
-5.27479
-5.2715
-5.27444
-5.28293
-5.29945
-5.31382
-5.31835
-5.3191
-5.32374
-5.33248
-5.3423
-5.35299
-5.36676
-5.38575
-5.41045
-5.44022
-5.47361
-5.30553
-5.28836
-5.2816
-5.28136
-5.2884
-5.30601
-5.32306
-5.33016
-5.33286
-5.33926
-5.34994
-5.362
-5.37472
-5.38961
-5.40826
-5.431
-5.45713
-5.48513
-5.31879
-5.30015
-5.29097
-5.28868
-5.29479
-5.31311
-5.33232
-5.34207
-5.34722
-5.35587
-5.36874
-5.38309
-5.3979
-5.41404
-5.4325
-5.45354
-5.47652
-5.50006
-5.3283
-5.30899
-5.29858
-5.29536
-5.30108
-5.3198
-5.34073
-5.35331
-5.36144
-5.37255
-5.38743
-5.40361
-5.42011
-5.43744
-5.45613
-5.47622
-5.49714
-5.51771
-5.33528
-5.31583
-5.3049
-5.30147
-5.30735
-5.32666
-5.34926
-5.36473
-5.37607
-5.38983
-5.40685
-5.42501
-5.44339
-5.46219
-5.48153
-5.50124
-5.52083
-5.53937
-5.33965
-5.3206
-5.3099
-5.30723
-5.31418
-5.33447
-5.35898
-5.37786
-5.39327
-5.41065
-5.43059
-5.45127
-5.47199
-5.49277
-5.51338
-5.53345
-5.55255
-5.57001
-5.33923
-5.32131
-5.31183
-5.31124
-5.32064
-5.3429
-5.36996
-5.393
-5.41331
-5.43522
-5.45902
-5.48312
-5.50702
-5.53068
-5.55363
-5.5753
-5.59531
-5.61322
-5.33047
-5.31459
-5.30778
-5.3113
-5.32517
-5.35068
-5.38107
-5.40921
-5.43598
-5.46395
-5.493
-5.52188
-5.55031
-5.5782
-5.60497
-5.62999
-5.65287
-5.67339
-5.30754
-5.29502
-5.29292
-5.30316
-5.32445
-5.35567
-5.39115
-5.42615
-5.46083
-5.49665
-5.53258
-5.56791
-5.60277
-5.63696
-5.66976
-5.70054
-5.72903
-5.75515
-5.26052
-5.25332
-5.25896
-5.27991
-5.31281
-5.35325
-5.39641
-5.4406
-5.48602
-5.53194
-5.57726
-5.62154
-5.66532
-5.70854
-5.75035
-5.79009
-5.82758
-5.863
-5.17144
-5.17301
-5.19179
-5.22995
-5.2808
-5.33553
-5.39095
-5.4481
-5.50738
-5.56679
-5.62456
-5.68093
-5.73679
-5.79218
-5.84634
-5.89869
-5.94906
-5.99788
-5.04138
-5.05507
-5.09259
-5.15429
-5.22822
-5.30106
-5.37074
-5.442
-5.51557
-5.58827
-5.65837
-5.72678
-5.79463
-5.86199
-5.9281
-5.99265
-6.05546
-6.11706
-4.90353
-4.93077
-4.98974
-5.07711
-5.17512
-5.26456
-5.34657
-5.42953
-5.5149
-5.59856
-5.67866
-5.75642
-5.83317
-5.90917
-5.98394
-6.05731
-6.12923
-6.20008
-4.7478
-4.79316
-4.88084
-4.99936
-5.12158
-5.22748
-5.32019
-5.41348
-5.50938
-5.60255
-5.69113
-5.77687
-5.86116
-5.94419
-6.02559
-6.10585
-6.18471
-6.26254
-4.57494
-4.6448
-4.77133
-4.92923
-5.07563
-5.19379
-5.29465
-5.39684
-5.50176
-5.60269
-5.69799
-5.79007
-5.88046
-5.96926
-6.05649
-6.14158
-6.22594
-6.30934
-4.38485
-4.49122
-4.66411
-4.86228
-5.03471
-5.16214
-5.27009
-5.38123
-5.49448
-5.60167
-5.70193
-5.79847
-5.89294
-5.98534
-6.076
-6.16557
-6.25406
-6.34182
-4.17232
-4.33862
-4.58682
-4.8239
-5.00706
-5.13661
-5.24962
-5.36871
-5.48896
-5.60124
-5.70554
-5.80572
-5.90361
-5.9994
-6.09333
-6.18586
-6.27713
-6.36714
-3.93819
-4.17159
-4.49987
-4.784
-4.97516
-5.106
-5.22625
-5.35407
-5.48042
-5.59644
-5.70347
-5.80605
-5.90618
-6.00407
-6.09994
-6.19431
-6.28767
-6.38028
-3.68998
-4.06837
-4.48315
-4.78402
-4.96475
-5.09236
-5.21818
-5.3517
-5.48107
-5.59873
-5.70719
-5.81119
-5.91272
-6.01194
-6.10913
-6.20487
-6.29964
-6.39348
-3.35789
-3.90478
-4.44016
-4.75904
-4.93247
-5.06496
-5.20072
-5.34088
-5.47354
-5.59322
-5.70333
-5.80872
-5.91147
-6.01182
-6.11008
-6.20684
-6.30269
-6.39793
-3.17342
-3.88393
-4.46777
-4.76457
-4.92422
-5.05952
-5.20019
-5.34208
-5.47485
-5.59469
-5.70523
-5.81109
-5.91426
-6.01499
-6.11372
-6.21089
-6.30716
-6.40242
-2.58917
-3.8146
-4.47564
-4.74698
-4.90258
-5.04604
-5.19316
-5.33798
-5.47192
-5.5924
-5.70346
-5.8097
-5.91315
-6.0141
-6.11313
-6.21055
-6.30709
-6.40195
-4.99274
-5.15452
-5.25231
-5.29565
-5.31502
-5.33927
-5.37392
-5.40747
-5.43203
-5.44777
-5.45638
-5.46165
-5.46496
-5.4707
-5.47052
-5.47226
-5.45035
-5.43418
-5.07631
-5.17384
-5.25679
-5.30214
-5.3233
-5.34744
-5.381
-5.4132
-5.43709
-5.45358
-5.46429
-5.47183
-5.47754
-5.48443
-5.48749
-5.48833
-5.47717
-5.46438
-5.11093
-5.17579
-5.2506
-5.30077
-5.32593
-5.35074
-5.38309
-5.41389
-5.43771
-5.45638
-5.47085
-5.48221
-5.49108
-5.50028
-5.50626
-5.51013
-5.50749
-5.50403
-5.1455
-5.19172
-5.25606
-5.3059
-5.33422
-5.36022
-5.39131
-5.42048
-5.44423
-5.46469
-5.48225
-5.49644
-5.50823
-5.51964
-5.52944
-5.53733
-5.54181
-5.54352
-5.17828
-5.20967
-5.26188
-5.30748
-5.33772
-5.36585
-5.39644
-5.42419
-5.44799
-5.47047
-5.49129
-5.50875
-5.52379
-5.53803
-5.55149
-5.56327
-5.57251
-5.57878
-5.20815
-5.22803
-5.26859
-5.30916
-5.34135
-5.37312
-5.40474
-5.43162
-5.45535
-5.47959
-5.50344
-5.52425
-5.54257
-5.55984
-5.57666
-5.59209
-5.6053
-5.6157
-5.23482
-5.24607
-5.27735
-5.31314
-5.34595
-5.38037
-5.4132
-5.43975
-5.46359
-5.4894
-5.51589
-5.53987
-5.56128
-5.58146
-5.6013
-5.62006
-5.63689
-5.65123
-5.25857
-5.26383
-5.28797
-5.31868
-5.35056
-5.38694
-5.42162
-5.44864
-5.47287
-5.50013
-5.52912
-5.55655
-5.58145
-5.60494
-5.62802
-5.65013
-5.67044
-5.68816
-5.27969
-5.2808
-5.29927
-5.3253
-5.35559
-5.39321
-5.42994
-5.45845
-5.48392
-5.51292
-5.54442
-5.57503
-5.60321
-5.62983
-5.65585
-5.68096
-5.70441
-5.7253
-5.29821
-5.29647
-5.3106
-5.33269
-5.36123
-5.39969
-5.43866
-5.4694
-5.49659
-5.52725
-5.5608
-5.59424
-5.62572
-5.65567
-5.68485
-5.71306
-5.73972
-5.76386
-5.31405
-5.31039
-5.32136
-5.34058
-5.36777
-5.40675
-5.44755
-5.4806
-5.50997
-5.54258
-5.57859
-5.61496
-5.64983
-5.68323
-5.7155
-5.74667
-5.77651
-5.80402
-5.32591
-5.3212
-5.33031
-5.34797
-5.37434
-5.41344
-5.45559
-5.49105
-5.5231
-5.55805
-5.59649
-5.63536
-5.67326
-5.70999
-5.74563
-5.78006
-5.81301
-5.84381
-5.33523
-5.33002
-5.33805
-5.35487
-5.38087
-5.42021
-5.46384
-5.5019
-5.53684
-5.57436
-5.61511
-5.65689
-5.69803
-5.73822
-5.77733
-5.81511
-5.85134
-5.88555
-5.34232
-5.33709
-5.34472
-5.36161
-5.38809
-5.42808
-5.47331
-5.51428
-5.55272
-5.59385
-5.63828
-5.6835
-5.72834
-5.77252
-5.81569
-5.85745
-5.89763
-5.93593
-5.34504
-5.34046
-5.34865
-5.36689
-5.39513
-5.43651
-5.48377
-5.52837
-5.57143
-5.61742
-5.66604
-5.71533
-5.76452
-5.81339
-5.86144
-5.9081
-5.95318
-5.9965
-5.33994
-5.33684
-5.34694
-5.36846
-5.40047
-5.44443
-5.49423
-5.54353
-5.59294
-5.64469
-5.69851
-5.75298
-5.8076
-5.86215
-5.91604
-5.96863
-6.01972
-6.06921
-5.3213
-5.32092
-5.33489
-5.36223
-5.40075
-5.44953
-5.50385
-5.55925
-5.6162
-5.67516
-5.7355
-5.79633
-5.85764
-5.91921
-5.98029
-6.0402
-6.09876
-6.15598
-5.27944
-5.28363
-5.30436
-5.34133
-5.39031
-5.44738
-5.50855
-5.57216
-5.63834
-5.70691
-5.776
-5.84517
-5.91492
-5.98521
-6.0552
-6.12419
-6.19201
-6.25881
-5.19678
-5.2089
-5.2416
-5.29446
-5.36027
-5.43055
-5.5026
-5.57788
-5.65662
-5.73675
-5.81669
-5.89643
-5.97682
-6.05782
-6.13864
-6.21866
-6.29769
-6.37611
-5.07346
-5.097
-5.14738
-5.22252
-5.31064
-5.39715
-5.48194
-5.56973
-5.66124
-5.75323
-5.8438
-5.93372
-6.02406
-6.1149
-6.2055
-6.29536
-6.38423
-6.47253
-4.94178
-4.97832
-5.0492
-5.14866
-5.2581
-5.36123
-5.45747
-5.55587
-5.65799
-5.75963
-5.85881
-5.95666
-6.05437
-6.15211
-6.24941
-6.34597
-6.44182
-6.53698
-4.79242
-4.84643
-4.94482
-5.07403
-5.20737
-5.32521
-5.43113
-5.53889
-5.65045
-5.76046
-5.86699
-5.97163
-6.07558
-6.17886
-6.28129
-6.3828
-6.48405
-6.58409
-4.62617
-4.70389
-4.83945
-5.00552
-5.16267
-5.29223
-5.40566
-5.52155
-5.64131
-5.75825
-5.87059
-5.98051
-6.08943
-6.19739
-6.30423
-6.41026
-6.51487
-6.6189
-4.44295
-4.55597
-4.73782
-4.94335
-5.12349
-5.26146
-5.38144
-5.50559
-5.63296
-5.75547
-5.87206
-5.98571
-6.09798
-6.20885
-6.31833
-6.42668
-6.53422
-6.64146
-4.23777
-4.40845
-4.6598
-4.90444
-5.09615
-5.23629
-5.36108
-5.49268
-5.62657
-5.75372
-5.87385
-5.99058
-6.10564
-6.21904
-6.33091
-6.4416
-6.55133
-6.66014
-4.01118
-4.24796
-4.57931
-4.86694
-5.06548
-5.20672
-5.33823
-5.47796
-5.61752
-5.74803
-5.87049
-5.98919
-6.10604
-6.22113
-6.33454
-6.4467
-6.55796
-6.66847
-3.77184
-4.14712
-4.56175
-4.86641
-5.05546
-5.1936
-5.33031
-5.47542
-5.6178
-5.74978
-5.87343
-5.99328
-6.11123
-6.22733
-6.34168
-6.45475
-6.56692
-6.67817
-3.44969
-3.99192
-4.52109
-4.8419
-5.02394
-5.16683
-5.31301
-5.46442
-5.60988
-5.74368
-5.86876
-5.9898
-6.10876
-6.22573
-6.34088
-6.45469
-6.56768
-6.68002
-3.27229
-3.96941
-4.54723
-4.84776
-5.0165
-5.16202
-5.31285
-5.46584
-5.61137
-5.74528
-5.87072
-5.99212
-6.11138
-6.22859
-6.34406
-6.45809
-6.57126
-6.68335
-2.70781
-3.90152
-4.55394
-4.83011
-4.99497
-5.14833
-5.30529
-5.46103
-5.6076
-5.74208
-5.86796
-5.98967
-6.10914
-6.22648
-6.34214
-6.45629
-6.56957
-6.68108
-4.88058
-5.07202
-5.19202
-5.24766
-5.27368
-5.30335
-5.34358
-5.382
-5.41024
-5.42924
-5.44165
-5.45133
-5.46069
-5.47466
-5.4879
-5.50504
-5.51079
-5.52393
-4.97064
-5.09191
-5.19616
-5.25422
-5.28207
-5.31139
-5.35026
-5.38709
-5.41453
-5.43413
-5.44846
-5.46028
-5.47185
-5.48647
-5.5022
-5.51873
-5.53407
-5.56211
-5.00908
-5.094
-5.18945
-5.25296
-5.28509
-5.31498
-5.35243
-5.38767
-5.41493
-5.43662
-5.45441
-5.47002
-5.48435
-5.50095
-5.5186
-5.53865
-5.56198
-5.59729
-5.04776
-5.1114
-5.19515
-5.25855
-5.29405
-5.32492
-5.3608
-5.39423
-5.42136
-5.44473
-5.46537
-5.48384
-5.50083
-5.51937
-5.54022
-5.56415
-5.59279
-5.62782
-5.08452
-5.13102
-5.20111
-5.26021
-5.29804
-5.33103
-5.36621
-5.39812
-5.4253
-5.4507
-5.47454
-5.49636
-5.51642
-5.5377
-5.56167
-5.58884
-5.61978
-5.65467
-5.11813
-5.15128
-5.20832
-5.26229
-5.30246
-5.33913
-5.37511
-5.40604
-5.43317
-5.46039
-5.48737
-5.51261
-5.53595
-5.56021
-5.58716
-5.61707
-5.64985
-5.68503
-5.14835
-5.17154
-5.21806
-5.26691
-5.30793
-5.3473
-5.38434
-5.41493
-5.44228
-5.47122
-5.50121
-5.52967
-5.55621
-5.58337
-5.61304
-5.6454
-5.68005
-5.71606
-5.17558
-5.1918
-5.23001
-5.27327
-5.31354
-5.35505
-5.39387
-5.42495
-5.45282
-5.48344
-5.51651
-5.54848
-5.57879
-5.60942
-5.64218
-5.67724
-5.71399
-5.75116
-5.20014
-5.21145
-5.24301
-5.28103
-5.31976
-5.3627
-5.40361
-5.43626
-5.46565
-5.49843
-5.53446
-5.56985
-5.60377
-5.63776
-5.67349
-5.71115
-5.75011
-5.7891
-5.22213
-5.22998
-5.25639
-5.28993
-5.32689
-5.37086
-5.41413
-5.44908
-5.48047
-5.51532
-5.55403
-5.59275
-5.63049
-5.66825
-5.70739
-5.74806
-5.78967
-5.83109
-5.2415
-5.24696
-5.26954
-5.2997
-5.33522
-5.37991
-5.42521
-5.46266
-5.49661
-5.53415
-5.57569
-5.61792
-5.6596
-5.70134
-5.74426
-5.78834
-5.83293
-5.87725
-5.25671
-5.26077
-5.281
-5.30916
-5.34374
-5.38872
-5.43562
-5.47575
-5.51283
-5.55346
-5.59779
-5.64328
-5.68855
-5.73396
-5.78019
-5.8273
-5.87497
-5.92245
-5.26947
-5.27274
-5.29149
-5.31844
-5.35253
-5.39787
-5.44645
-5.48949
-5.52996
-5.57385
-5.62128
-5.6697
-5.71844
-5.76766
-5.8176
-5.8682
-5.91929
-5.97032
-5.28071
-5.28367
-5.30161
-5.32826
-5.36272
-5.40891
-5.45944
-5.50593
-5.55064
-5.59857
-5.64952
-5.70179
-5.75475
-5.80852
-5.86303
-5.91807
-5.97356
-6.02913
-5.28845
-5.29175
-5.30988
-5.33759
-5.37372
-5.42142
-5.47435
-5.52513
-5.57513
-5.62789
-5.68365
-5.7408
-5.79893
-5.85814
-5.91824
-5.97882
-6.03986
-6.10117
-5.28947
-5.29396
-5.31363
-5.3443
-5.38407
-5.43461
-5.49074
-5.54686
-5.60311
-5.66222
-5.72395
-5.78712
-5.85161
-5.91749
-5.98437
-6.05178
-6.1197
-6.18808
-5.27839
-5.28524
-5.30833
-5.34452
-5.39078
-5.44645
-5.50733
-5.56948
-5.63376
-5.70088
-5.7701
-5.84069
-5.91294
-5.98687
-6.06192
-6.13755
-6.21371
-6.2905
-5.24589
-5.25687
-5.28615
-5.33147
-5.38803
-5.45174
-5.51962
-5.59038
-5.6646
-5.74186
-5.8205
-5.90021
-5.98167
-6.065
-6.14955
-6.2347
-6.32038
-6.40679
-5.17483
-5.19306
-5.23344
-5.29399
-5.3667
-5.4434
-5.52196
-5.60449
-5.6914
-5.7806
-5.87043
-5.96105
-6.05335
-6.14744
-6.24261
-6.3383
-6.43434
-6.53112
-5.06279
-5.09155
-5.14845
-5.2301
-5.32403
-5.41667
-5.50788
-5.60283
-5.70237
-5.80322
-5.90345
-6.00384
-6.10552
-6.20863
-6.31251
-6.41667
-6.52085
-6.62545
-4.94006
-4.9809
-5.05724
-5.16218
-5.27704
-5.38564
-5.48802
-5.5933
-5.70307
-5.81315
-5.92155
-6.02932
-6.1377
-6.24693
-6.35661
-6.46609
-6.57569
-6.68534
-4.79867
-4.85617
-4.95876
-5.09312
-5.23067
-5.35349
-5.46515
-5.57942
-5.69822
-5.81621
-5.93143
-6.04543
-6.15945
-6.27348
-6.38707
-6.50071
-6.61407
-6.72716
-4.63971
-4.72029
-4.85872
-5.02694
-5.18888
-5.32332
-5.44227
-5.56431
-5.69091
-5.81544
-5.93607
-6.05488
-6.17316
-6.29095
-6.40822
-6.52497
-6.64116
-6.75673
-4.46392
-4.57848
-4.76273
-4.96981
-5.15263
-5.29495
-5.42017
-5.55004
-5.68383
-5.81356
-5.93806
-6.06018
-6.1814
-6.3017
-6.42103
-6.53962
-6.65772
-6.77551
-4.26665
-4.43719
-4.6864
-4.93201
-5.12656
-5.27125
-5.40113
-5.53811
-5.67814
-5.81227
-5.94005
-6.06491
-6.18852
-6.31084
-6.43193
-6.55214
-6.67167
-6.79044
-4.04797
-4.28328
-4.6117
-4.89723
-5.0978
-5.24349
-5.37966
-5.52428
-5.66967
-5.80696
-5.93683
-6.06339
-6.18851
-6.31222
-6.43454
-6.55584
-6.67643
-6.79631
-3.81868
-4.18579
-4.59376
-4.89657
-5.08849
-5.23119
-5.37223
-5.52198
-5.67009
-5.80875
-5.93963
-6.06715
-6.19317
-6.31764
-6.44058
-6.5624
-6.68345
-6.80365
-3.50577
-4.03772
-4.55493
-4.87288
-5.05833
-5.20565
-5.35569
-5.51142
-5.66246
-5.80282
-5.93502
-6.06359
-6.19047
-6.31565
-6.4392
-6.56154
-6.68312
-6.80409
-3.33488
-4.01338
-4.57976
-4.87876
-5.05121
-5.20099
-5.35545
-5.51266
-5.66373
-5.80414
-5.93659
-6.06543
-6.19249
-6.31777
-6.44146
-6.56381
-6.68534
-6.80579
-2.79016
-3.9471
-4.58589
-4.86211
-5.03089
-5.18812
-5.34841
-5.50821
-5.66025
-5.80119
-5.93407
-6.0632
-6.19043
-6.31579
-6.43959
-6.56197
-6.68351
-6.80326
-4.69181
-4.90605
-5.0381
-5.09402
-5.1129
-5.1317
-5.15817
-5.17823
-5.18188
-5.16916
-5.14284
-5.1063
-5.06265
-5.01409
-4.95842
-4.89298
-4.81538
-4.73284
-4.78861
-4.92677
-5.04223
-5.10107
-5.12189
-5.14018
-5.16514
-5.18359
-5.1865
-5.17463
-5.1506
-5.11686
-5.07591
-5.02966
-4.97707
-4.91675
-4.852
-4.81038
-4.83084
-4.929
-5.03499
-5.09994
-5.12537
-5.14422
-5.16773
-5.18465
-5.1876
-5.17824
-5.15843
-5.12942
-5.09258
-5.05042
-5.00283
-4.95227
-4.90574
-4.88631
-4.87369
-4.94797
-5.04108
-5.10617
-5.13529
-5.15506
-5.17689
-5.19208
-5.19519
-5.18809
-5.17201
-5.14716
-5.11468
-5.0773
-5.03698
-4.99719
-4.96506
-4.95181
-4.91451
-4.96937
-5.04733
-5.1081
-5.14002
-5.16209
-5.18327
-5.1972
-5.20083
-5.1965
-5.18473
-5.16475
-5.13752
-5.1061
-5.07349
-5.04303
-5.01984
-5.00993
-4.95195
-4.99166
-5.0552
-5.11085
-5.14563
-5.17158
-5.1936
-5.20679
-5.21093
-5.20932
-5.20194
-5.18731
-5.16591
-5.14099
-5.11593
-5.09366
-5.07786
-5.07257
-4.98587
-5.01429
-5.06614
-5.11641
-5.15237
-5.18133
-5.20463
-5.21789
-5.22295
-5.22413
-5.22121
-5.21195
-5.19659
-5.17827
-5.16048
-5.14583
-5.13714
-5.13722
-5.01673
-5.03722
-5.07968
-5.12395
-5.15948
-5.191
-5.21639
-5.23063
-5.23708
-5.24122
-5.24302
-5.23973
-5.23118
-5.22012
-5.20993
-5.20296
-5.20134
-5.20669
-5.04493
-5.05975
-5.09466
-5.13328
-5.16755
-5.20096
-5.22884
-5.24526
-5.25424
-5.26197
-5.26866
-5.27135
-5.26961
-5.26579
-5.26303
-5.26344
-5.26867
-5.27965
-5.07061
-5.0814
-5.1104
-5.14411
-5.17682
-5.21185
-5.24271
-5.26217
-5.27423
-5.28559
-5.29698
-5.30565
-5.31105
-5.31492
-5.31995
-5.32795
-5.34023
-5.35735
-5.09378
-5.10173
-5.12631
-5.15629
-5.18774
-5.22402
-5.25755
-5.28033
-5.29625
-5.31207
-5.32871
-5.34374
-5.35643
-5.36815
-5.38107
-5.39671
-5.41618
-5.43993
-5.11262
-5.11884
-5.14066
-5.16835
-5.199
-5.23614
-5.27202
-5.29841
-5.3187
-5.33924
-5.36091
-5.38171
-5.40107
-5.42006
-5.44031
-5.46308
-5.4894
-5.51966
-5.12915
-5.13428
-5.15428
-5.18056
-5.21091
-5.24901
-5.28737
-5.31762
-5.34255
-5.36807
-5.39501
-5.42166
-5.44772
-5.47402
-5.50172
-5.53175
-5.56505
-5.60202
-5.14491
-5.14947
-5.16838
-5.19422
-5.22512
-5.26467
-5.30593
-5.34085
-5.37164
-5.40344
-5.43677
-5.4703
-5.50401
-5.5386
-5.5748
-5.61324
-5.65472
-5.69964
-5.15814
-5.16276
-5.18159
-5.2084
-5.24131
-5.28324
-5.32812
-5.36874
-5.40661
-5.44581
-5.48675
-5.52836
-5.57086
-5.61489
-5.66083
-5.70894
-5.75987
-5.81405
-5.16584
-5.17138
-5.19153
-5.22135
-5.25832
-5.3039
-5.35315
-5.40067
-5.4473
-5.49561
-5.54565
-5.5967
-5.64921
-5.7038
-5.76058
-5.81949
-5.88104
-5.94565
-5.16292
-5.17056
-5.19391
-5.22925
-5.27318
-5.32492
-5.38051
-5.43627
-5.49288
-5.552
-5.61252
-5.67427
-5.73801
-5.80424
-5.87285
-5.94358
-6.01671
-6.09265
-5.14043
-5.15181
-5.18111
-5.2257
-5.28038
-5.34111
-5.40528
-5.47171
-5.54102
-5.61238
-5.68506
-5.75899
-5.83513
-5.91392
-5.99497
-6.07795
-6.16302
-6.25052
-5.0817
-5.09991
-5.13985
-5.19946
-5.27071
-5.34547
-5.42149
-5.50117
-5.58495
-5.67075
-5.75702
-5.84425
-5.93351
-6.02527
-6.11897
-6.21417
-6.31081
-6.40936
-4.98173
-5.00992
-5.0657
-5.14579
-5.23798
-5.32907
-5.41834
-5.51121
-5.60859
-5.70717
-5.80514
-5.90334
-6.00321
-6.10494
-6.20801
-6.31205
-6.41681
-6.52271
-4.869
-4.90869
-4.98309
-5.0858
-5.19881
-5.30529
-5.40579
-5.5093
-5.61731
-5.72563
-5.83235
-5.9386
-6.04566
-6.15375
-6.26255
-6.37183
-6.4816
-6.59192
-4.73695
-4.79257
-4.89212
-5.02286
-5.15797
-5.2785
-5.38832
-5.50088
-5.61802
-5.73443
-5.84818
-5.96084
-6.07365
-6.18668
-6.2997
-6.41271
-6.52575
-6.63867
-4.58691
-4.6647
-4.79855
-4.96213
-5.12026
-5.25229
-5.36937
-5.4896
-5.61447
-5.73745
-5.85671
-5.97424
-6.09131
-6.20794
-6.32413
-6.43995
-6.55545
-6.67069
-4.41969
-4.52986
-4.70828
-4.90912
-5.08729
-5.22702
-5.35027
-5.47808
-5.60995
-5.73809
-5.86119
-5.98198
-6.10193
-6.22101
-6.33919
-6.45668
-6.5737
-6.6903
-4.23142
-4.39578
-4.6346
-4.87286
-5.06289
-5.20529
-5.33316
-5.46785
-5.60584
-5.73835
-5.8647
-5.98818
-6.11043
-6.2314
-6.35112
-6.46993
-6.58802
-6.7053
-4.02159
-4.24782
-4.56478
-4.8404
-5.03622
-5.17969
-5.31341
-5.45531
-5.59847
-5.73407
-5.86242
-5.9875
-6.11117
-6.23341
-6.35423
-6.47396
-6.59291
-6.71102
-3.80374
-4.15442
-4.54676
-4.83986
-5.02782
-5.16844
-5.30673
-5.45354
-5.5994
-5.73637
-5.86569
-5.99166
-6.11614
-6.23904
-6.36034
-6.4804
-6.59957
-6.71774
-3.49882
-4.01284
-4.50956
-4.81705
-4.99911
-5.14417
-5.29096
-5.44345
-5.59214
-5.73074
-5.86129
-5.98824
-6.11351
-6.23704
-6.35882
-6.47926
-6.59879
-6.71755
-3.33917
-3.98818
-4.53374
-4.82315
-4.99252
-5.1399
-5.29087
-5.44475
-5.59347
-5.73209
-5.86286
-5.99
-6.1154
-6.23894
-6.36075
-6.48106
-6.6004
-6.71845
-2.81199
-3.92301
-4.53899
-4.80717
-4.9731
-5.12753
-5.28399
-5.44029
-5.5899
-5.72901
-5.86018
-5.9876
-6.11312
-6.23668
-6.35853
-6.4788
-6.59804
-6.7153
-4.43156
-4.6648
-4.80466
-4.85752
-4.86704
-4.87309
-4.8833
-4.88097
-4.85409
-4.80059
-4.72288
-4.6194
-4.49255
-4.33204
-4.13722
-3.88008
-3.57822
-3.20457
-4.53518
-4.68638
-4.80879
-4.86507
-4.87665
-4.88206
-4.89066
-4.88677
-4.85924
-4.80713
-4.73213
-4.63319
-4.50993
-4.35682
-4.16714
-3.93086
-3.64774
-3.36715
-4.58117
-4.68875
-4.80105
-4.86407
-4.8806
-4.88658
-4.89377
-4.88846
-4.86134
-4.81235
-4.74274
-4.65033
-4.53403
-4.39012
-4.21382
-4.00322
-3.76579
-3.53946
-4.62822
-4.70936
-4.80756
-4.87096
-4.89145
-4.89833
-4.90375
-4.89693
-4.87033
-4.82453
-4.75982
-4.67401
-4.56536
-4.43255
-4.27351
-4.0902
-3.89114
-3.70109
-4.67313
-4.73256
-4.81409
-4.87314
-4.89689
-4.90627
-4.91114
-4.90338
-4.87789
-4.83588
-4.7771
-4.6987
-4.59934
-4.47916
-4.33844
-4.17994
-4.01156
-3.84942
-4.71444
-4.7569
-4.82267
-4.87654
-4.90362
-4.91709
-4.92289
-4.91478
-4.89048
-4.85238
-4.79972
-4.72964
-4.64061
-4.53386
-4.41121
-4.2756
-4.13389
-3.99779
-4.75207
-4.78195
-4.83484
-4.88302
-4.91158
-4.92833
-4.93563
-4.92807
-4.90561
-4.87168
-4.82559
-4.76404
-4.68586
-4.59281
-4.48766
-4.37355
-4.25605
-4.14404
-4.78662
-4.80759
-4.84996
-4.89169
-4.92011
-4.93982
-4.94956
-4.94355
-4.9235
-4.89409
-4.85499
-4.80284
-4.7365
-4.65782
-4.57009
-4.47649
-4.38139
-4.29117
-4.81854
-4.83307
-4.8669
-4.90249
-4.92986
-4.95191
-4.96459
-4.96147
-4.94516
-4.92112
-4.88941
-4.84683
-4.7924
-4.72796
-4.65689
-4.58237
-4.50783
-4.43776
-4.848
-4.85789
-4.88502
-4.91519
-4.94111
-4.96527
-4.98154
-4.98231
-4.97042
-4.95192
-4.92752
-4.89458
-4.85241
-4.80244
-4.74779
-4.69137
-4.63617
-4.58511
-4.87507
-4.88162
-4.90366
-4.92965
-4.95444
-4.98039
-4.99995
-5.00492
-4.99831
-4.98636
-4.97006
-4.94732
-4.91739
-4.88169
-4.84285
-4.80348
-4.76623
-4.73313
-4.89766
-4.9021
-4.92088
-4.94421
-4.96823
-4.9955
-5.01815
-5.02774
-5.02697
-5.02171
-5.01305
-4.99945
-4.98057
-4.95766
-4.93286
-4.90837
-4.88657
-4.86917
-4.91807
-4.92109
-4.93763
-4.95922
-4.98298
-5.01169
-5.03762
-5.05214
-5.0575
-5.05923
-5.05849
-5.05412
-5.04615
-5.03569
-5.02441
-5.01409
-5.00683
-5.00417
-4.93854
-4.94063
-4.95566
-4.97652
-5.00091
-5.03161
-5.06138
-5.08186
-5.09479
-5.10513
-5.11385
-5.12014
-5.12436
-5.12759
-5.1311
-5.13618
-5.14458
-5.15767
-4.95749
-4.95929
-4.97383
-4.99542
-5.02189
-5.05553
-5.09
-5.11768
-5.13973
-5.16022
-5.17992
-5.19828
-5.216
-5.23412
-5.25352
-5.27503
-5.30003
-5.32963
-4.97217
-4.9745
-4.99001
-5.01437
-5.04496
-5.08285
-5.12301
-5.15932
-5.1924
-5.22489
-5.25716
-5.28904
-5.32146
-5.3554
-5.39142
-5.42998
-5.47208
-5.51859
-4.97786
-4.98186
-5.00016
-5.02978
-5.06738
-5.11195
-5.15932
-5.20579
-5.25151
-5.29796
-5.3443
-5.39084
-5.43885
-5.48921
-5.54217
-5.59779
-5.65677
-5.71982
-4.966
-4.97328
-4.99696
-5.03544
-5.08387
-5.138
-5.19505
-5.25364
-5.31422
-5.37572
-5.43753
-5.49983
-5.56405
-5.63097
-5.70052
-5.77259
-5.84751
-5.92587
-4.92041
-4.93388
-4.96754
-5.02058
-5.08539
-5.1538
-5.22328
-5.29629
-5.37308
-5.45138
-5.52957
-5.60828
-5.68867
-5.77155
-5.85659
-5.94352
-6.03243
-6.12391
-4.83338
-4.8561
-4.90465
-4.97727
-5.06239
-5.14696
-5.22989
-5.31644
-5.40739
-5.4994
-5.59062
-5.68183
-5.77455
-5.86895
-5.96472
-6.06167
-6.15961
-6.25906
-4.73133
-4.76481
-4.83097
-4.92519
-5.03054
-5.13002
-5.22398
-5.32116
-5.42288
-5.52491
-5.62532
-5.72524
-5.82594
-5.92758
-6.02981
-6.13253
-6.2358
-6.33975
-4.60919
-4.65764
-4.74764
-4.86827
-4.99511
-5.10833
-5.21148
-5.3176
-5.42835
-5.53848
-5.64607
-5.75263
-5.85931
-5.96616
-6.07297
-6.17964
-6.28623
-6.39276
-4.4685
-4.53811
-4.66101
-4.813
-4.9616
-5.086
-5.19625
-5.30979
-5.42805
-5.54464
-5.6577
-5.76913
-5.88013
-5.99069
-6.10073
-6.21032
-6.31952
-6.42817
-4.31003
-4.4107
-4.57549
-4.76385
-4.93178
-5.06379
-5.18001
-5.30077
-5.42576
-5.54738
-5.6642
-5.77882
-5.89264
-6.00558
-6.11756
-6.22878
-6.33939
-6.44935
-4.13088
-4.28349
-4.50517
-4.72944
-4.90915
-5.04407
-5.16479
-5.29211
-5.42303
-5.54893
-5.6689
-5.78611
-5.90211
-6.01685
-6.13029
-6.2427
-6.35425
-6.46479
-3.93035
-4.14178
-4.43969
-4.69924
-4.88472
-5.02062
-5.14673
-5.28078
-5.41662
-5.54548
-5.66734
-5.78603
-5.90336
-6.01928
-6.1337
-6.24692
-6.35921
-6.47047
-3.72171
-4.05114
-4.4216
-4.69882
-4.8772
-5.01042
-5.14078
-5.27949
-5.41799
-5.54819
-5.67095
-5.79042
-5.90847
-6.02495
-6.13973
-6.25316
-6.36554
-6.47673
-3.42439
-3.917
-4.38649
-4.67709
-4.85
-4.98744
-5.12573
-5.2698
-5.41101
-5.54277
-5.66666
-5.78703
-5.90579
-6.02281
-6.13799
-6.25168
-6.36431
-6.47597
-3.28112
-3.89345
-4.41039
-4.68332
-4.84393
-4.98356
-5.12577
-5.27114
-5.41236
-5.5441
-5.66816
-5.78866
-5.90748
-6.02443
-6.13954
-6.25301
-6.36532
-6.47616
-2.77123
-3.82912
-4.41478
-4.66802
-4.8254
-4.97168
-5.11903
-5.26663
-5.40866
-5.54085
-5.66527
-5.78602
-5.90492
-6.02184
-6.13693
-6.25028
-6.36242
-6.47237
-4.12144
-4.37423
-4.52394
-4.57833
-4.58678
-4.59328
-4.6055
-4.60554
-4.58003
-4.52769
-4.45214
-4.35334
-4.23446
-4.09018
-3.91754
-3.69732
-3.43077
-3.10413
-4.23192
-4.39665
-4.52804
-4.58631
-4.59685
-4.60251
-4.61295
-4.61123
-4.58495
-4.53381
-4.46023
-4.36639
-4.25124
-4.11279
-3.94544
-3.74165
-3.49452
-3.24327
-4.28162
-4.39914
-4.51975
-4.58535
-4.60108
-4.60721
-4.6161
-4.6128
-4.58674
-4.53863
-4.47134
-4.3829
-4.27441
-4.14385
-3.98798
-3.80578
-3.59951
-3.39924
-4.33291
-4.42137
-4.52661
-4.59274
-4.61262
-4.61943
-4.62633
-4.62128
-4.59565
-4.55056
-4.48672
-4.4059
-4.30465
-4.18378
-4.04279
-3.88437
-3.71318
-3.54824
-4.38192
-4.44634
-4.53331
-4.595
-4.61848
-4.62774
-4.63392
-4.62775
-4.60315
-4.56181
-4.50579
-4.43008
-4.33756
-4.22804
-4.10306
-3.96649
-3.8235
-3.68576
-4.42708
-4.47269
-4.54248
-4.59882
-4.62593
-4.63924
-4.64612
-4.63939
-4.61588
-4.57829
-4.5261
-4.46045
-4.37771
-4.28047
-4.1715
-4.05501
-3.93638
-3.8236
-4.46843
-4.50011
-4.55576
-4.60595
-4.63463
-4.65116
-4.65934
-4.65298
-4.63125
-4.59781
-4.55314
-4.49455
-4.42207
-4.33752
-4.24429
-4.14656
-4.0498
-3.95993
-4.50666
-4.5284
-4.57232
-4.61542
-4.64395
-4.66348
-4.67395
-4.66893
-4.64955
-4.62056
-4.58252
-4.53313
-4.47196
-4.40091
-4.32359
-4.24396
-4.16719
-4.09776
-4.54228
-4.55676
-4.59106
-4.62731
-4.65468
-4.67655
-4.68984
-4.68751
-4.67181
-4.64815
-4.61729
-4.57699
-4.52727
-4.46967
-4.40779
-4.34528
-4.28661
-4.23568
-4.5755
-4.58466
-4.61133
-4.64144
-4.66713
-4.69106
-4.70774
-4.70907
-4.69774
-4.67965
-4.65602
-4.6246
-4.58712
-4.54334
-4.49688
-4.45099
-4.40934
-4.37538
-4.60647
-4.61171
-4.63248
-4.65765
-4.68183
-4.70744
-4.7274
-4.73283
-4.72673
-4.7151
-4.69941
-4.67858
-4.65204
-4.62188
-4.59046
-4.56048
-4.53497
-4.5169
-4.63279
-4.63546
-4.6523
-4.67417
-4.6972
-4.72393
-4.74686
-4.7568
-4.75646
-4.75149
-4.7434
-4.73134
-4.7156
-4.69773
-4.67976
-4.66387
-4.65261
-4.64836
-4.65709
-4.6579
-4.67189
-4.69141
-4.71372
-4.7416
-4.76767
-4.78256
-4.78833
-4.79031
-4.79006
-4.78704
-4.78179
-4.77585
-4.77087
-4.76848
-4.77084
-4.77987
-4.68227
-4.68169
-4.6935
-4.71158
-4.73402
-4.76355
-4.79319
-4.81409
-4.82728
-4.83777
-4.84696
-4.85445
-4.86103
-4.86821
-4.87744
-4.88981
-4.90702
-4.93059
-4.70697
-4.70554
-4.71617
-4.73428
-4.75817
-4.7901
-4.824
-4.85201
-4.87431
-4.89509
-4.91536
-4.93485
-4.95461
-4.97604
-5.00035
-5.02841
-5.06141
-5.10042
-4.72876
-4.72724
-4.738
-4.75805
-4.78534
-4.82101
-4.86009
-4.89656
-4.92984
-4.96259
-4.99531
-5.02812
-5.06229
-5.09903
-5.1391
-5.18314
-5.23222
-5.28703
-4.74324
-4.74265
-4.75528
-4.77973
-4.81324
-4.85472
-4.90011
-4.9461
-4.99222
-5.03874
-5.08548
-5.13293
-5.18246
-5.23512
-5.2913
-5.35123
-5.41573
-5.48554
-4.74225
-4.74409
-4.76111
-4.79343
-4.83682
-4.88718
-4.94133
-4.99818
-5.05818
-5.12003
-5.18225
-5.24527
-5.3106
-5.37914
-5.45102
-5.52617
-5.605
-5.68814
-4.71031
-4.71718
-4.74281
-4.78836
-4.84699
-4.9103
-4.97601
-5.04612
-5.12108
-5.1986
-5.27689
-5.35599
-5.43697
-5.5207
-5.60705
-5.69578
-5.78694
-5.88112
-4.63655
-4.65157
-4.69068
-4.75446
-4.83211
-4.9107
-4.98867
-5.07116
-5.15901
-5.24888
-5.33891
-5.4298
-5.52284
-5.61758
-5.71386
-5.81153
-5.91039
-6.01093
-4.54538
-4.57019
-4.62556
-4.70994
-4.80659
-4.89912
-4.98731
-5.07963
-5.17732
-5.27615
-5.37422
-5.47267
-5.5727
-5.67431
-5.77672
-5.87955
-5.98282
-6.08678
-4.43322
-4.47192
-4.54944
-4.65822
-4.77599
-4.88166
-4.97846
-5.07901
-5.18493
-5.29106
-5.3955
-5.49969
-5.60475
-5.71064
-5.81705
-5.92357
-6.02982
-6.13575
-4.30191
-4.3607
-4.4695
-4.60814
-4.74632
-4.86262
-4.96606
-5.07344
-5.18627
-5.29827
-5.40755
-5.51595
-5.62456
-5.73332
-5.84211
-5.95085
-6.0594
-6.16713
-4.15234
-4.24091
-4.38972
-4.56303
-4.71952
-4.84316
-4.95216
-5.06615
-5.18517
-5.30173
-5.4143
-5.52537
-5.63625
-5.74681
-5.85691
-5.96663
-6.076
-6.18476
-3.98234
-4.11933
-4.32296
-4.53065
-4.69862
-4.82523
-4.93848
-5.0586
-5.18316
-5.30372
-5.41913
-5.5324
-5.64507
-5.75699
-5.86802
-5.97836
-6.08808
-6.19692
-3.7913
-3.98707
-4.26173
-4.50279
-4.67634
-4.80379
-4.92187
-5.04816
-5.17729
-5.30056
-5.41761
-5.53208
-5.64579
-5.75858
-5.87026
-5.98104
-6.0911
-6.20025
-3.59155
-3.89725
-4.24325
-4.50237
-4.66964
-4.79457
-4.91653
-5.04717
-5.17885
-5.30337
-5.42115
-5.53622
-5.65044
-5.76358
-5.87538
-5.98608
-6.09593
-6.2047
-3.30459
-3.77054
-4.21018
-4.48166
-4.6439
-4.77282
-4.90215
-5.0378
-5.17203
-5.29798
-5.41675
-5.53259
-5.64739
-5.76092
-5.87295
-5.98372
-6.09361
-6.20263
-3.1732
-3.74892
-4.23395
-4.48798
-4.63835
-4.76932
-4.90229
-5.03913
-5.17334
-5.29923
-5.4181
-5.53398
-5.64875
-5.7621
-5.87393
-5.98434
-6.09376
-6.20181
-2.68203
-3.68543
-4.23753
-4.47335
-4.62071
-4.75793
-4.89569
-5.03458
-5.16952
-5.2958
-5.415
-5.5311
-5.64591
-5.75918
-5.87092
-5.98113
-6.09029
-6.19738
-3.79032
-4.06333
-4.22406
-4.28185
-4.29229
-4.30507
-4.33279
-4.35858
-4.36883
-4.36383
-4.34672
-4.3248
-4.30094
-4.28151
-4.26333
-4.24834
-4.23107
-4.22107
-3.90771
-4.08656
-4.2281
-4.29024
-4.3028
-4.31444
-4.33995
-4.36349
-4.37264
-4.36811
-4.35424
-4.33391
-4.31288
-4.29436
-4.27878