/*--------------------------------*- C++ -*----------------------------------*\
| =========                 |                                                 |
| \\      /  F ield         | OpenFOAM: The Open Source CFD Toolbox           |
|  \\    /   O peration     | Version:  2112                                  |
|   \\  /    A nd           | Website:  www.openfoam.com                      |
|    \\/     M anipulation  |                                                 |
\*---------------------------------------------------------------------------*/
FoamFile
{
    version     2.0;
    format      ascii;
    arch        "LSB;label=32;scalar=64";
    class       volVectorField;
    location    "0.08";
    object      UMean;
}
// * * * * * * * * * * * * * * * * * * * * * * * * * * * * * * * * * * * * * //

dimensions      [0 1 -1 0 0 0 0];

internalField   nonuniform List<vector> 
122250
(
(9.81869 0.033933 -0.173992)
(9.48698 0.0502765 -0.165108)
(9.1435 0.0472919 -0.160355)
(8.80972 0.0530563 -0.149667)
(8.48201 0.0532951 -0.143914)
(8.17331 0.053159 -0.141068)
(7.8809 0.0521546 -0.13914)
(7.60352 0.0512356 -0.137427)
(7.33759 0.0502148 -0.135816)
(7.08377 0.0499487 -0.134338)
(6.83746 0.0495456 -0.132999)
(6.59517 0.0507856 -0.131796)
(6.36342 0.0506127 -0.130741)
(6.11592 0.0565171 -0.12975)
(5.88964 0.0548955 -0.128817)
(5.60634 0.0759704 -0.127451)
(5.35065 0.0431242 -0.125599)
(5.0892 0.0749028 -0.120749)
(10.0073 0.0628651 -0.175809)
(10.0723 0.0923754 -0.166205)
(10.0899 0.0879514 -0.161391)
(10.0915 0.0892633 -0.149967)
(10.0765 0.090495 -0.144065)
(10.0567 0.0910723 -0.141406)
(10.0299 0.0911332 -0.139518)
(9.99713 0.0912238 -0.137823)
(9.95806 0.0920638 -0.136232)
(9.9153 0.0925836 -0.134769)
(9.86543 0.0955594 -0.13344)
(9.81289 0.0968281 -0.132249)
(9.75172 0.103869 -0.13118)
(9.68681 0.107125 -0.130204)
(9.60924 0.122246 -0.129194)
(9.52466 0.13009 -0.128017)
(9.4105 0.146722 -0.126106)
(9.30913 0.133157 -0.123211)
(9.98672 0.0377482 -0.18471)
(10.0313 0.0705414 -0.177366)
(10.0512 0.0668599 -0.17285)
(10.065 0.0692778 -0.153436)
(10.0728 0.0699134 -0.145078)
(10.0841 0.0729747 -0.141838)
(10.0936 0.0753333 -0.139916)
(10.1017 0.077625 -0.138211)
(10.1084 0.0798176 -0.136612)
(10.1138 0.0831375 -0.135135)
(10.1173 0.086579 -0.133795)
(10.1194 0.0923782 -0.132568)
(10.1195 0.0982192 -0.131457)
(10.119 0.109785 -0.130383)
(10.117 0.120797 -0.129302)
(10.1172 0.141427 -0.127988)
(10.1147 0.151477 -0.12633)
(10.1096 0.154465 -0.123471)
(9.97909 0.0315312 -0.189887)
(10.0177 0.0661717 -0.187597)
(10.0364 0.0704041 -0.183692)
(10.0445 0.0747633 -0.157515)
(10.0524 0.0763983 -0.146484)
(10.0626 0.078963 -0.142247)
(10.0708 0.0811281 -0.140263)
(10.0778 0.0828325 -0.138554)
(10.0842 0.084969 -0.136937)
(10.0898 0.0874337 -0.135438)
(10.0944 0.0913734 -0.13406)
(10.0985 0.0960112 -0.132793)
(10.1022 0.10326 -0.1316)
(10.107 0.11236 -0.130448)
(10.1138 0.124945 -0.129232)
(10.1253 0.139572 -0.127872)
(10.1423 0.151218 -0.126228)
(10.1616 0.156186 -0.123474)
(9.9765 0.0252283 -0.188923)
(10.0114 0.0569188 -0.188609)
(10.0267 0.0620063 -0.185292)
(10.0355 0.0685428 -0.158689)
(10.0429 0.0680156 -0.146849)
(10.0518 0.0711023 -0.142322)
(10.0591 0.0737619 -0.140293)
(10.0654 0.0762162 -0.13858)
(10.0712 0.0786743 -0.136953)
(10.0763 0.0818124 -0.13543)
(10.0806 0.085772 -0.13402)
(10.0844 0.0912028 -0.1327)
(10.0883 0.0980881 -0.131444)
(10.0931 0.107227 -0.130204)
(10.1002 0.118153 -0.12891)
(10.111 0.129818 -0.127493)
(10.1264 0.140026 -0.125872)
(10.1451 0.143667 -0.123236)
(9.97556 0.0220745 -0.186507)
(10.0063 0.0530285 -0.186858)
(10.0217 0.0594792 -0.184177)
(10.0284 0.0678505 -0.157023)
(10.034 0.0671079 -0.145893)
(10.0443 0.0699555 -0.142168)
(10.0515 0.0730121 -0.140198)
(10.0577 0.0757892 -0.138476)
(10.0635 0.0786474 -0.136838)
(10.0689 0.0819764 -0.135293)
(10.0737 0.0862295 -0.133846)
(10.0782 0.0916357 -0.13248)
(10.0829 0.0984291 -0.131164)
(10.0885 0.106802 -0.129853)
(10.096 0.116259 -0.128494)
(10.1064 0.125963 -0.127032)
(10.1197 0.134029 -0.125425)
(10.1354 0.13814 -0.122853)
(9.9747 0.0187237 -0.184185)
(10.0022 0.0469077 -0.185121)
(10.0143 0.0545728 -0.182971)
(10.0197 0.0638674 -0.155771)
(10.0252 0.0647168 -0.145695)
(10.0354 0.0670512 -0.14205)
(10.0429 0.0700677 -0.140087)
(10.0493 0.0729933 -0.138362)
(10.0554 0.0759612 -0.136714)
(10.0612 0.0793851 -0.135146)
(10.0666 0.0836221 -0.133663)
(10.0718 0.0889053 -0.132251)
(10.0772 0.095377 -0.130877)
(10.0835 0.102944 -0.129504)
(10.0914 0.11128 -0.128089)
(10.1015 0.119482 -0.12659)
(10.1137 0.126455 -0.124977)
(10.1275 0.130995 -0.122448)
(9.97387 0.0156269 -0.181816)
(9.99919 0.0427357 -0.183416)
(10.0079 0.050006 -0.181662)
(10.0126 0.0612678 -0.155241)
(10.0172 0.0610603 -0.14565)
(10.028 0.0638726 -0.141913)
(10.0356 0.0669527 -0.139975)
(10.0419 0.0700725 -0.138247)
(10.0482 0.0733001 -0.136584)
(10.0543 0.076938 -0.13499)
(10.0601 0.0812629 -0.13347)
(10.0658 0.0864885 -0.132011)
(10.0718 0.092635 -0.130583)
(10.0787 0.0996008 -0.129154)
(10.0868 0.106998 -0.127688)
(10.0967 0.114221 -0.126155)
(10.108 0.120439 -0.124529)
(10.1207 0.125094 -0.122031)
(9.97316 0.0135017 -0.179574)
(9.99671 0.0389273 -0.181854)
(10.0017 0.0450863 -0.180277)
(10.0046 0.059406 -0.155303)
(10.0083 0.0586904 -0.145403)
(10.0198 0.061654 -0.14176)
(10.0275 0.06448 -0.139845)
(10.034 0.0675315 -0.138111)
(10.0405 0.0708131 -0.136433)
(10.047 0.0744666 -0.134814)
(10.0533 0.0786878 -0.133258)
(10.0596 0.0836483 -0.131755)
(10.0662 0.0893295 -0.130278)
(10.0735 0.0956242 -0.128799)
(10.0818 0.102143 -0.12729)
(10.0915 0.108525 -0.125726)
(10.1023 0.114062 -0.124088)
(10.1142 0.118638 -0.121615)
(9.97171 0.0126398 -0.177676)
(9.99379 0.0354289 -0.180155)
(9.99817 0.042286 -0.178888)
(9.99982 0.0535924 -0.155836)
(9.99778 0.0549648 -0.145174)
(10.0109 0.0575359 -0.141593)
(10.0191 0.0603003 -0.139689)
(10.026 0.0635515 -0.137952)
(10.0329 0.0670669 -0.136261)
(10.0398 0.0708735 -0.134619)
(10.0466 0.0750975 -0.133031)
(10.0535 0.0798922 -0.131488)
(10.0606 0.0852035 -0.129967)
(10.0683 0.0909667 -0.128445)
(10.0768 0.0968196 -0.126898)
(10.0863 0.10257 -0.125308)
(10.0967 0.107628 -0.12366)
(10.1081 0.112081 -0.121209)
(9.97295 0.0103681 -0.176065)
(9.9914 0.0320511 -0.178858)
(9.98997 0.036604 -0.177708)
(9.99096 0.0482044 -0.154983)
(9.99429 0.0526155 -0.144647)
(10.0061 0.0547564 -0.141428)
(10.0139 0.0575427 -0.139543)
(10.0207 0.0607179 -0.137798)
(10.0275 0.0641444 -0.136097)
(10.0344 0.0678389 -0.134438)
(10.0413 0.071863 -0.132824)
(10.0483 0.0763426 -0.131251)
(10.0555 0.0812008 -0.129698)
(10.0633 0.086405 -0.128147)
(10.0718 0.0916011 -0.126577)
(10.0811 0.0967335 -0.124975)
(10.0911 0.10126 -0.123329)
(10.102 0.105424 -0.120907)
(9.97506 0.00976041 -0.176371)
(9.98975 0.0283023 -0.179217)
(9.98676 0.0341592 -0.178253)
(9.98668 0.045793 -0.155585)
(9.98728 0.0492555 -0.144802)
(9.9988 0.0513276 -0.141335)
(10.0067 0.0539224 -0.139438)
(10.0135 0.0570299 -0.137688)
(10.0204 0.0604432 -0.135974)
(10.0275 0.0640894 -0.134295)
(10.0347 0.0679713 -0.132656)
(10.0421 0.072193 -0.131052)
(10.0498 0.0766768 -0.129469)
(10.0579 0.0814196 -0.12789)
(10.0667 0.0860739 -0.126299)
(10.0763 0.0906842 -0.124685)
(10.0864 0.094707 -0.123039)
(10.0973 0.0985286 -0.120638)
(9.97425 0.00988442 -0.172876)
(9.98637 0.0250665 -0.176301)
(9.98063 0.0347058 -0.175514)
(9.97873 0.044337 -0.153933)
(9.98153 0.0462534 -0.144145)
(9.99297 0.0489004 -0.141076)
(10.0011 0.0513359 -0.139183)
(10.0083 0.0542722 -0.137417)
(10.0156 0.0575522 -0.135683)
(10.0231 0.061047 -0.133978)
(10.0308 0.0646887 -0.132308)
(10.0387 0.0685488 -0.130667)
(10.0469 0.072535 -0.129043)
(10.0556 0.0766899 -0.127422)
(10.0648 0.0806965 -0.125793)
(10.0747 0.0846736 -0.124147)
(10.0851 0.0880748 -0.12248)
(10.0961 0.0914043 -0.120073)
(9.96839 0.00865925 -0.169667)
(9.98716 0.0206565 -0.173463)
(9.9827 0.0289917 -0.173259)
(9.98 0.0387681 -0.15355)
(9.97518 0.0418577 -0.144047)
(9.98829 0.0432438 -0.140868)
(9.99684 0.0458784 -0.138985)
(10.0047 0.0486799 -0.137188)
(10.0127 0.0516896 -0.135424)
(10.0208 0.0548366 -0.133697)
(10.0291 0.0580855 -0.132005)
(10.0376 0.0615105 -0.130339)
(10.0464 0.065014 -0.128688)
(10.0555 0.0686348 -0.127044)
(10.0651 0.0720976 -0.125399)
(10.0751 0.0755348 -0.123746)
(10.0855 0.078467 -0.122083)
(10.0964 0.0813645 -0.119698)
(9.9655 0.00863781 -0.166841)
(9.98989 0.0193942 -0.171346)
(9.98086 0.0267463 -0.171564)
(9.97712 0.0316013 -0.15208)
(9.97895 0.0382178 -0.1437)
(9.98983 0.0384653 -0.14069)
(9.99893 0.0408111 -0.138818)
(10.0069 0.0436296 -0.136964)
(10.0148 0.0464861 -0.135155)
(10.0228 0.0493699 -0.133409)
(10.0311 0.0522964 -0.131699)
(10.0397 0.0553284 -0.130012)
(10.0485 0.0583551 -0.128341)
(10.0575 0.0614315 -0.126681)
(10.0669 0.064305 -0.125027)
(10.0766 0.0671442 -0.123376)
(10.0865 0.0694974 -0.121727)
(10.0968 0.0718505 -0.11937)
(9.96234 0.00840893 -0.164733)
(9.99092 0.0163453 -0.169376)
(9.97914 0.0219883 -0.17025)
(9.97568 0.0268811 -0.151365)
(9.97878 0.0307837 -0.143589)
(9.98714 0.0329417 -0.140551)
(9.99635 0.0350604 -0.138512)
(10.0044 0.037126 -0.136676)
(10.0122 0.0392972 -0.134889)
(10.0204 0.0416298 -0.133133)
(10.0288 0.0440311 -0.131405)
(10.0374 0.0464813 -0.1297)
(10.0461 0.0488572 -0.128016)
(10.055 0.0512325 -0.126347)
(10.0642 0.053394 -0.124693)
(10.0735 0.05553 -0.123052)
(10.0831 0.0572286 -0.121423)
(10.093 0.0589686 -0.119102)
(9.95961 0.00719173 -0.163118)
(9.99195 0.0135649 -0.168009)
(9.9767 0.0175524 -0.169433)
(9.97245 0.0193955 -0.151137)
(9.97434 0.0223541 -0.142796)
(9.98375 0.0243058 -0.140205)
(9.99189 0.0267888 -0.138348)
(9.9996 0.0283482 -0.136463)
(10.0078 0.0301019 -0.134614)
(10.0163 0.0320753 -0.132836)
(10.0249 0.0340759 -0.131098)
(10.0336 0.0360402 -0.129387)
(10.0425 0.0378725 -0.127698)
(10.0515 0.0396652 -0.12603)
(10.0606 0.0412535 -0.124384)
(10.0699 0.0428116 -0.122761)
(10.0794 0.04399 -0.121159)
(10.0889 0.0451992 -0.118879)
(9.95699 0.00706674 -0.162015)
(9.99262 0.00873917 -0.167242)
(9.97675 0.0123234 -0.169069)
(9.97044 0.00876247 -0.151062)
(9.97313 0.016881 -0.142975)
(9.98032 0.0171152 -0.140212)
(9.98856 0.0189705 -0.13814)
(9.99613 0.0193419 -0.136203)
(10.0049 0.0204246 -0.134327)
(10.0139 0.0218806 -0.132542)
(10.0228 0.0233106 -0.130807)
(10.0317 0.0246278 -0.1291)
(10.0407 0.0257754 -0.127417)
(10.0498 0.0268608 -0.125759)
(10.059 0.0277515 -0.124131)
(10.0683 0.0286093 -0.122534)
(10.0776 0.0291292 -0.120969)
(10.0869 0.0296801 -0.118736)
(9.95159 0.00603568 -0.161651)
(9.99437 0.00167999 -0.16746)
(9.9685 0.00286283 -0.169223)
(9.96596 -0.00198604 -0.152776)
(9.98186 0.00195385 -0.14302)
(9.98487 0.00282329 -0.140115)
(9.99145 0.00387385 -0.13807)
(9.99825 0.00439012 -0.136115)
(10.0084 0.00517759 -0.13417)
(10.018 0.0060866 -0.132366)
(10.027 0.00694735 -0.130634)
(10.0357 0.00773829 -0.128938)
(10.0446 0.00839703 -0.127268)
(10.0536 0.00897795 -0.125629)
(10.0626 0.00938347 -0.124027)
(10.0714 0.0097389 -0.122466)
(10.0804 0.0098307 -0.120944)
(10.0891 0.0099255 -0.118765)
(9.96231 0.00371111 -0.162138)
(9.99284 -0.00112957 -0.167572)
(9.97296 -0.00392154 -0.168626)
(9.97097 -2.55285e-05 -0.152244)
(9.98497 -0.00475256 -0.142901)
(9.98877 -0.00525467 -0.139921)
(9.99598 -0.00618725 -0.137922)
(10.0029 -0.00519279 -0.13599)
(10.0123 -0.00486369 -0.134073)
(10.0215 -0.00483949 -0.132271)
(10.0303 -0.00478684 -0.130538)
(10.0388 -0.00461927 -0.128849)
(10.0474 -0.00443453 -0.127194)
(10.0559 -0.0042676 -0.125577)
(10.0645 -0.00424431 -0.124001)
(10.0729 -0.00432556 -0.122469)
(10.0814 -0.00466197 -0.120981)
(10.0895 -0.00507742 -0.118845)
(9.9619 0.00115852 -0.163455)
(9.99155 -0.00334187 -0.168323)
(9.98155 -0.0093071 -0.169413)
(9.97479 -0.00788879 -0.151037)
(9.98041 -0.0151456 -0.142875)
(9.98722 -0.0152908 -0.139941)
(9.9968 -0.0157193 -0.137891)
(10.0051 -0.0153625 -0.13596)
(10.014 -0.0155099 -0.134073)
(10.0231 -0.0158549 -0.132271)
(10.0321 -0.0161197 -0.13053)
(10.041 -0.016239 -0.128836)
(10.0498 -0.016253 -0.127187)
(10.0584 -0.0161959 -0.125584)
(10.0669 -0.0161457 -0.124029)
(10.0751 -0.0160909 -0.122522)
(10.0832 -0.0161947 -0.121062)
(10.091 -0.0164919 -0.118957)
(9.96371 0.000197095 -0.164855)
(9.99236 -0.00969422 -0.169541)
(9.98337 -0.016281 -0.170227)
(9.98025 -0.01791 -0.151124)
(9.98695 -0.0217599 -0.14255)
(9.99703 -0.0222875 -0.139862)
(10.0063 -0.0227648 -0.13795)
(10.014 -0.0234671 -0.136009)
(10.0228 -0.0241456 -0.13411)
(10.032 -0.0246911 -0.132303)
(10.0412 -0.0251183 -0.130558)
(10.0503 -0.0253825 -0.128864)
(10.0592 -0.0255795 -0.127217)
(10.068 -0.0257054 -0.125617)
(10.0766 -0.0258938 -0.124063)
(10.0849 -0.026343 -0.122557)
(10.0928 -0.0270815 -0.121101)
(10.1001 -0.02816 -0.119007)
(9.96579 -0.00130852 -0.166708)
(9.99392 -0.0145475 -0.170959)
(9.98989 -0.0206534 -0.171201)
(9.98805 -0.0266459 -0.151395)
(9.99485 -0.0286792 -0.142685)
(10.0059 -0.0290721 -0.139929)
(10.0153 -0.0309448 -0.138029)
(10.0231 -0.0318961 -0.13606)
(10.032 -0.0326816 -0.134152)
(10.0411 -0.0335277 -0.13234)
(10.0505 -0.0341179 -0.130593)
(10.0594 -0.034729 -0.128902)
(10.0684 -0.0348052 -0.127268)
(10.0765 -0.0349159 -0.125689)
(10.0849 -0.0342457 -0.124163)
(10.0917 -0.0332407 -0.122658)
(10.0989 -0.0321244 -0.121201)
(10.1056 -0.0338033 -0.11918)
(9.96924 -0.00350806 -0.168861)
(9.99625 -0.0202615 -0.172872)
(9.99588 -0.0277351 -0.172483)
(9.99491 -0.0321234 -0.151641)
(10.003 -0.0352286 -0.143023)
(10.0137 -0.0346418 -0.140038)
(10.0234 -0.036736 -0.138075)
(10.032 -0.0377124 -0.136124)
(10.0406 -0.0385582 -0.134219)
(10.0502 -0.0392278 -0.132399)
(10.0589 -0.0399924 -0.130641)
(10.0692 -0.0402883 -0.128939)
(10.0773 -0.0406695 -0.127271)
(10.0885 -0.0400127 -0.125638)
(10.0951 -0.0393023 -0.12396)
(10.1057 -0.0412546 -0.122362)
(10.1087 -0.0393998 -0.120885)
(10.1129 -0.0437614 -0.118931)
(9.9704 -0.00632064 -0.171513)
(9.99856 -0.0282703 -0.174742)
(10.0057 -0.0335325 -0.173892)
(10.0059 -0.0420045 -0.152237)
(10.0106 -0.0410344 -0.143)
(10.0235 -0.0417907 -0.14004)
(10.033 -0.0441762 -0.138041)
(10.0418 -0.0458755 -0.136122)
(10.0509 -0.0471008 -0.134246)
(10.0601 -0.0481486 -0.132427)
(10.0698 -0.0491753 -0.13067)
(10.0789 -0.0497412 -0.12897)
(10.089 -0.0504635 -0.127319)
(10.0981 -0.0498775 -0.125674)
(10.1077 -0.0482208 -0.124192)
(10.1142 -0.0465132 -0.122918)
(10.1179 -0.0473699 -0.121684)
(10.1163 -0.0459984 -0.119335)
(9.97064 -0.00882439 -0.174599)
(10.0035 -0.0331 -0.177151)
(10.0101 -0.0389871 -0.175311)
(10.0147 -0.0443845 -0.153721)
(10.0274 -0.0424609 -0.143403)
(10.0367 -0.0439845 -0.140171)
(10.0451 -0.0458396 -0.138091)
(10.0542 -0.0473654 -0.13617)
(10.0627 -0.0484187 -0.134294)
(10.0727 -0.0496519 -0.132476)
(10.0811 -0.0506927 -0.130714)
(10.092 -0.0525731 -0.129006)
(10.1007 -0.0539077 -0.12729)
(10.1122 -0.0562845 -0.125661)
(10.1204 -0.0598115 -0.124219)
(10.1259 -0.0628565 -0.123066)
(10.1284 -0.0639173 -0.121906)
(10.1281 -0.0640355 -0.11975)
(9.9715 -0.013436 -0.177496)
(10.0089 -0.045058 -0.178374)
(10.0221 -0.0494981 -0.176053)
(10.0218 -0.0546129 -0.152829)
(10.0347 -0.0541369 -0.143107)
(10.0456 -0.0558228 -0.140111)
(10.055 -0.057636 -0.138095)
(10.0643 -0.0591288 -0.13616)
(10.0737 -0.0598635 -0.134284)
(10.083 -0.0612292 -0.132475)
(10.0922 -0.0616102 -0.130738)
(10.1015 -0.064352 -0.129056)
(10.1104 -0.0645852 -0.127417)
(10.1199 -0.0707721 -0.125782)
(10.1261 -0.0720225 -0.124123)
(10.1347 -0.0734554 -0.122549)
(10.1398 -0.0755456 -0.121132)
(10.1429 -0.0747453 -0.119176)
(9.97956 -0.0172188 -0.176854)
(10.0201 -0.0450319 -0.173221)
(10.0292 -0.0450338 -0.169708)
(10.0331 -0.0485007 -0.150073)
(10.0468 -0.0487547 -0.142579)
(10.057 -0.0508033 -0.139928)
(10.0668 -0.0525176 -0.137973)
(10.0765 -0.0539665 -0.136031)
(10.086 -0.0554645 -0.134139)
(10.0949 -0.0571274 -0.132322)
(10.1037 -0.059081 -0.130581)
(10.1118 -0.061026 -0.128906)
(10.1201 -0.063549 -0.12729)
(10.1272 -0.0659882 -0.125726)
(10.1339 -0.0690666 -0.124224)
(10.1385 -0.0725328 -0.122724)
(10.142 -0.0744376 -0.121276)
(10.1456 -0.0745341 -0.119279)
(9.99739 -0.043646 -0.171765)
(10.0511 -0.0769522 -0.164835)
(10.0686 -0.0720813 -0.160477)
(10.0793 -0.0689761 -0.147273)
(10.0841 -0.0704891 -0.142078)
(10.0834 -0.0717695 -0.139579)
(10.0807 -0.0715874 -0.137638)
(10.0762 -0.0714195 -0.135725)
(10.0693 -0.0714582 -0.133845)
(10.0602 -0.0719983 -0.132037)
(10.049 -0.0724904 -0.130303)
(10.0358 -0.0735162 -0.128638)
(10.0208 -0.0744513 -0.127031)
(10.004 -0.0762196 -0.125486)
(9.98508 -0.0779874 -0.123991)
(9.96448 -0.0794683 -0.122552)
(9.94152 -0.0807969 -0.121163)
(9.91814 -0.0816098 -0.119137)
(9.89297 -0.0189843 -0.169839)
(9.70912 -0.0334427 -0.161693)
(9.50066 -0.0336708 -0.157098)
(9.30178 -0.043299 -0.146649)
(9.10569 -0.043739 -0.142114)
(8.91633 -0.0441 -0.139458)
(8.73808 -0.0438781 -0.137453)
(8.56905 -0.0434371 -0.135529)
(8.40776 -0.0431467 -0.133637)
(8.25299 -0.0428513 -0.131815)
(8.10422 -0.0426717 -0.130067)
(7.96129 -0.0424941 -0.128389)
(7.82331 -0.0424578 -0.126774)
(7.69008 -0.0425539 -0.125219)
(7.56051 -0.0425665 -0.123721)
(7.43534 -0.0425965 -0.122282)
(7.31312 -0.0422476 -0.120877)
(7.19705 -0.0415239 -0.118887)
(9.82169 0.067569 -0.00033497)
(9.48644 0.0938669 -0.00120749)
(9.15229 0.085421 -0.000694993)
(8.81847 0.0653826 -0.00117093)
(8.50088 0.0590637 -0.00119337)
(8.19916 0.0560512 -0.00120983)
(7.9118 0.0535312 -0.00119804)
(7.63993 0.051801 -0.00117094)
(7.37996 0.0502223 -0.0011469)
(7.1329 0.0497011 -0.00111623)
(6.89345 0.0483518 -0.00108409)
(6.66281 0.0495391 -0.00105354)
(6.43582 0.0478299 -0.00102519)
(6.21163 0.0534325 -0.00104314)
(5.98257 0.0493179 -0.00112198)
(5.75238 0.0662442 -0.00153364)
(5.49257 0.0531678 -0.0023067)
(5.2427 0.0944737 -0.00346486)
(10.014 0.0629812 -0.000807678)
(10.0504 0.0694525 -0.00185118)
(10.082 0.0747787 -0.00131059)
(10.09 0.0785376 -0.00137289)
(10.0845 0.0833506 -0.00123956)
(10.0662 0.086542 -0.00121729)
(10.0386 0.087664 -0.00120074)
(10.0059 0.0881982 -0.00117617)
(9.96744 0.0893516 -0.00115229)
(9.92608 0.0901531 -0.00112673)
(9.87799 0.0923986 -0.00109668)
(9.82839 0.0935459 -0.00107388)
(9.76965 0.0983923 -0.00104999)
(9.71041 0.100833 -0.00107847)
(9.63651 0.111291 -0.00117278)
(9.56317 0.116662 -0.001554)
(9.46463 0.136766 -0.00230686)
(9.366 0.145588 -0.00317111)
(10.0202 0.0518374 0.000190829)
(10.0338 0.0808897 -0.00090964)
(10.0634 0.0758665 -0.000318734)
(10.0838 0.0696287 -0.00111139)
(10.0996 0.0725228 -0.00114728)
(10.1097 0.0762225 -0.00118867)
(10.1178 0.0778181 -0.00118899)
(10.1257 0.0794218 -0.00116644)
(10.1333 0.0810634 -0.00114188)
(10.1398 0.0838931 -0.00111821)
(10.145 0.086331 -0.00109454)
(10.1484 0.0909692 -0.00108164)
(10.1506 0.094853 -0.00108148)
(10.1496 0.103569 -0.00113405)
(10.1484 0.11098 -0.00127519)
(10.1428 0.12694 -0.00161948)
(10.1394 0.141876 -0.00221441)
(10.1309 0.162641 -0.00288352)
(10.0343 0.0520936 0.00110107)
(10.0433 0.0661762 0.000352088)
(10.0691 0.068929 0.00119604)
(10.0858 0.0694822 -0.000839122)
(10.1017 0.0724357 -0.000997341)
(10.1108 0.0769903 -0.00112153)
(10.1181 0.079404 -0.0011339)
(10.1258 0.0811371 -0.0011205)
(10.1337 0.0831804 -0.00110547)
(10.1409 0.085343 -0.00109256)
(10.1473 0.0884653 -0.00108093)
(10.1529 0.0920481 -0.00108155)
(10.1578 0.0975775 -0.00110476)
(10.162 0.104421 -0.00117992)
(10.166 0.114363 -0.00134624)
(10.1704 0.127113 -0.0016537)
(10.1765 0.142439 -0.00212744)
(10.1855 0.160734 -0.00267545)
(10.0398 0.03822 0.00124402)
(10.0513 0.0731858 0.000881968)
(10.072 0.0724638 0.00159808)
(10.0898 0.0683873 -0.000595357)
(10.1043 0.0700351 -0.000934504)
(10.1126 0.0754878 -0.00109616)
(10.119 0.0766574 -0.0011316)
(10.1262 0.0784869 -0.00112149)
(10.1334 0.0805238 -0.00110625)
(10.1398 0.0830713 -0.00109689)
(10.1453 0.0860987 -0.00109408)
(10.1502 0.090348 -0.00110676)
(10.1543 0.0956318 -0.00114647)
(10.1581 0.102889 -0.00123701)
(10.1616 0.112036 -0.0014072)
(10.1659 0.123537 -0.0016814)
(10.1711 0.136966 -0.00206927)
(10.1782 0.150413 -0.00252738)
(10.0392 0.0333266 0.00125168)
(10.0484 0.0592091 0.000825789)
(10.0678 0.0653844 0.00160006)
(10.0841 0.0647424 -0.000987658)
(10.1031 0.0664995 -0.000964936)
(10.1115 0.0718167 -0.00107082)
(10.117 0.0735051 -0.00111269)
(10.1244 0.0758626 -0.00110732)
(10.1315 0.0783737 -0.00109873)
(10.138 0.0811674 -0.00109799)
(10.1437 0.0846351 -0.00110627)
(10.1487 0.0889974 -0.00113069)
(10.1531 0.0944764 -0.00118433)
(10.1573 0.101544 -0.0012839)
(10.1614 0.11013 -0.0014496)
(10.166 0.120626 -0.00169555)
(10.1711 0.131946 -0.002022)
(10.1772 0.143801 -0.00240776)
(10.0383 0.0267863 0.00127696)
(10.0441 0.0540838 0.000868479)
(10.0609 0.0623649 0.00170107)
(10.078 0.0647731 -0.000965845)
(10.0976 0.0663166 -0.000934179)
(10.1062 0.0702883 -0.0010509)
(10.1117 0.0727634 -0.00110644)
(10.1191 0.0752978 -0.00110656)
(10.1262 0.0779362 -0.00110243)
(10.1327 0.080914 -0.00110703)
(10.1385 0.0844589 -0.00112298)
(10.1438 0.0888671 -0.00115734)
(10.1486 0.0943002 -0.00122074)
(10.1533 0.101043 -0.001325)
(10.1579 0.109034 -0.00148338)
(10.1629 0.118386 -0.00170459)
(10.1682 0.128379 -0.00198505)
(10.1742 0.139136 -0.00231341)
(10.0375 0.0222773 0.00131595)
(10.0398 0.0461479 0.000936949)
(10.0544 0.0569665 0.0018248)
(10.0705 0.0594337 -0.000969344)
(10.0914 0.0623436 -0.000877735)
(10.1002 0.0668549 -0.00103385)
(10.1049 0.0698429 -0.00109808)
(10.1121 0.072535 -0.00110193)
(10.1191 0.0753315 -0.00110184)
(10.1256 0.0784541 -0.00111305)
(10.1316 0.0821146 -0.00113793)
(10.1372 0.0865818 -0.00118123)
(10.1425 0.0919222 -0.00125169)
(10.1478 0.0983586 -0.00135804)
(10.153 0.105736 -0.00150841)
(10.1586 0.114192 -0.00170774)
(10.1644 0.123165 -0.00195141)
(10.1708 0.132893 -0.00223434)
(10.0374 0.018909 0.0013464)
(10.0352 0.0392245 0.000998532)
(10.0485 0.0513684 0.00193297)
(10.062 0.0552203 -0.000996898)
(10.0844 0.0593666 -0.000845931)
(10.0935 0.0637704 -0.00101971)
(10.0982 0.06701 -0.00108763)
(10.1053 0.0700884 -0.00109883)
(10.1125 0.0731862 -0.00110518)
(10.1192 0.0765702 -0.00112241)
(10.1256 0.0803955 -0.00115383)
(10.1317 0.0848961 -0.00120406)
(10.1376 0.0901044 -0.00127964)
(10.1435 0.096204 -0.00138635)
(10.1494 0.103014 -0.00152863)
(10.1557 0.110698 -0.00170849)
(10.162 0.118762 -0.00192161)
(10.1689 0.127578 -0.00216782)
(10.0388 0.0171201 0.00142324)
(10.0352 0.0334392 0.00103152)
(10.0448 0.0469681 0.00205045)
(10.054 0.0534689 -0.00106454)
(10.0779 0.0569572 -0.000823334)
(10.0874 0.0610805 -0.00101468)
(10.092 0.064288 -0.00108027)
(10.0993 0.067481 -0.00109677)
(10.1066 0.0706869 -0.0011088)
(10.1136 0.0741308 -0.00113146)
(10.1203 0.0779569 -0.00116902)
(10.1268 0.0823495 -0.00122513)
(10.1332 0.0873092 -0.00130412)
(10.1396 0.0929917 -0.00140969)
(10.146 0.099214 -0.00154395)
(10.1528 0.10616 -0.00170706)
(10.1595 0.113363 -0.00189508)
(10.1668 0.121269 -0.00211151)
(10.0403 0.013555 0.00141223)
(10.0351 0.0274853 0.000907221)
(10.041 0.041704 0.00210333)
(10.049 0.0501927 -0.000906827)
(10.0719 0.0537409 -0.000861674)
(10.0814 0.0576479 -0.000999461)
(10.086 0.0613112 -0.00107479)
(10.0934 0.0646069 -0.00109954)
(10.1009 0.0678989 -0.00111596)
(10.1081 0.0713714 -0.0011427)
(10.115 0.0751643 -0.00118436)
(10.1218 0.0794449 -0.00124358)
(10.1285 0.0841767 -0.00132344)
(10.1353 0.0894931 -0.00142652)
(10.1421 0.0951965 -0.00155307)
(10.1492 0.101498 -0.00170201)
(10.1563 0.107931 -0.0018698)
(10.1638 0.114986 -0.00206203)
(10.0382 0.0118719 0.0013159)
(10.0257 0.0259666 0.000743146)
(10.0334 0.0378827 0.00205161)
(10.0398 0.0449653 -0.000854297)
(10.0621 0.0500285 -0.000831945)
(10.0721 0.0542715 -0.000987995)
(10.077 0.0578969 -0.00106397)
(10.0846 0.0613204 -0.00109028)
(10.0923 0.0647124 -0.0011112)
(10.0998 0.0682776 -0.00114293)
(10.1072 0.0720586 -0.00118944)
(10.1145 0.0762062 -0.00125265)
(10.1217 0.0806825 -0.00133419)
(10.129 0.0856159 -0.0014351)
(10.1364 0.0907911 -0.00155542)
(10.1441 0.0964549 -0.0016937)
(10.1518 0.102132 -0.0018467)
(10.16 0.108366 -0.00202137)
(10.0406 0.0119619 0.00141094)
(10.0294 0.02798 0.000916207)
(10.0337 0.0363595 0.00226215)
(10.038 0.0402997 -0.000856659)
(10.0601 0.0465155 -0.000804446)
(10.0692 0.0508721 -0.000946926)
(10.0736 0.0538297 -0.00103997)
(10.0811 0.0570299 -0.00107726)
(10.0889 0.0605072 -0.00110374)
(10.0966 0.0641672 -0.00114005)
(10.1042 0.0679376 -0.00119068)
(10.1118 0.0719488 -0.00125666)
(10.1195 0.0761833 -0.00133896)
(10.1273 0.0807826 -0.00143782)
(10.1352 0.0855302 -0.00155289)
(10.1434 0.0906641 -0.00168262)
(10.1517 0.0957309 -0.00182402)
(10.1603 0.101262 -0.00198497)
(10.0416 0.00899145 0.00166096)
(10.0344 0.025977 0.00141903)
(10.0366 0.0326482 0.00262015)
(10.0383 0.0389571 -0.00110388)
(10.0623 0.0443557 -0.000718704)
(10.0704 0.0470485 -0.000929993)
(10.0744 0.0520303 -0.00101712)
(10.0823 0.0544097 -0.0010567)
(10.0904 0.0575862 -0.00108997)
(10.0982 0.0610327 -0.00113392)
(10.106 0.0645206 -0.00119078)
(10.1138 0.068168 -0.0012607)
(10.1217 0.0719501 -0.0013439)
(10.1298 0.0760127 -0.00144035)
(10.138 0.0801295 -0.00154972)
(10.1464 0.0845448 -0.00167093)
(10.1549 0.0887884 -0.00180127)
(10.1636 0.0934317 -0.00194909)
(10.04 0.00849207 0.00175558)
(10.0342 0.020695 0.00173672)
(10.034 0.0286548 0.00295667)
(10.0373 0.034054 -0.00100414)
(10.0604 0.0388284 -0.000700179)
(10.0701 0.0411729 -0.000888488)
(10.0746 0.0445585 -0.00100654)
(10.0809 0.0476676 -0.00105595)
(10.0897 0.0508286 -0.00108964)
(10.0979 0.0540344 -0.00113485)
(10.1059 0.0572507 -0.00119492)
(10.1139 0.0605725 -0.00126708)
(10.122 0.0639503 -0.00134963)
(10.1302 0.0675102 -0.00144189)
(10.1385 0.0710456 -0.00154377)
(10.147 0.0747826 -0.00165484)
(10.1556 0.0782837 -0.00177338)
(10.1643 0.0820799 -0.00190798)
(10.0403 0.00775428 0.00185255)
(10.0358 0.0165943 0.00190539)
(10.0339 0.023486 0.0032947)
(10.0385 0.0285526 -0.000826894)
(10.0598 0.0326186 -0.000711225)
(10.066 0.0355439 -0.000847906)
(10.0709 0.0383619 -0.000980184)
(10.0793 0.041447 -0.00103156)
(10.0877 0.0445312 -0.00106765)
(10.0959 0.0475692 -0.00111784)
(10.104 0.0505333 -0.00118305)
(10.1122 0.0535054 -0.00125796)
(10.1205 0.0564276 -0.00134)
(10.1289 0.0594308 -0.00142845)
(10.1373 0.0623158 -0.00152363)
(10.1459 0.0653157 -0.00162573)
(10.1544 0.0679995 -0.00173409)
(10.163 0.0709072 -0.00185771)
(10.0407 0.00673623 0.00193026)
(10.0367 0.0123571 0.00203985)
(10.0326 0.0180899 0.00357936)
(10.0339 0.020417 -0.000977744)
(10.0565 0.0249909 -0.000791228)
(10.0657 0.0263107 -0.000883034)
(10.0706 0.0298907 -0.000977452)
(10.0771 0.0318587 -0.00100896)
(10.0863 0.0344058 -0.00105071)
(10.0946 0.036998 -0.00110996)
(10.1027 0.0394301 -0.00118115)
(10.1108 0.0417943 -0.00125781)
(10.1191 0.044057 -0.00133846)
(10.1275 0.0463371 -0.00142322)
(10.1359 0.0484532 -0.00151257)
(10.1443 0.0506207 -0.00160689)
(10.1527 0.0524583 -0.0017059)
(10.1611 0.0544598 -0.00181946)
(10.0411 0.00626666 0.00201624)
(10.0376 0.00997502 0.00222374)
(10.0337 0.0144035 0.00391796)
(10.0348 0.0170217 -0.00104182)
(10.0579 0.0177315 -0.000717649)
(10.0621 0.0185989 -0.000843653)
(10.0679 0.0196551 -0.000975177)
(10.0753 0.0214721 -0.000973671)
(10.0847 0.0235765 -0.0010234)
(10.0929 0.0255964 -0.00109385)
(10.101 0.0274592 -0.00116977)
(10.1091 0.0292467 -0.00124574)
(10.1175 0.030913 -0.00132372)
(10.1259 0.0325453 -0.00140495)
(10.1342 0.0339794 -0.00148944)
(10.1426 0.0354032 -0.00157696)
(10.1509 0.0364998 -0.00166725)
(10.159 0.0376975 -0.00177028)
(10.0389 0.00345555 0.00213669)
(10.0423 0.00499221 0.00251281)
(10.0373 0.00322653 0.00432127)
(10.0446 0.0098328 0.000882805)
(10.0571 0.00696406 -0.00088562)
(10.0666 0.00768003 -0.000900173)
(10.072 0.0083223 -0.00100429)
(10.0801 0.00923102 -0.000930514)
(10.0898 0.0102232 -0.00102545)
(10.0979 0.0112324 -0.001115)
(10.1058 0.0122004 -0.00118898)
(10.1139 0.0131244 -0.00125814)
(10.1221 0.0139211 -0.00133034)
(10.1303 0.0146467 -0.00140698)
(10.1384 0.015171 -0.00148625)
(10.1463 0.0156608 -0.00156666)
(10.1542 0.0158612 -0.00164771)
(10.1619 0.0161399 -0.00173984)
(10.0379 0.00352602 0.00187157)
(10.0374 -0.00258068 0.00235536)
(10.0341 -0.00347021 0.00383453)
(10.042 -0.0119974 0.000700834)
(10.0544 -0.00825531 -0.000868467)
(10.0644 -0.0080312 -0.000902957)
(10.0703 -0.00702052 -0.00100577)
(10.0782 -0.00639474 -0.000963614)
(10.0879 -0.00601722 -0.00103793)
(10.0962 -0.00551306 -0.00111853)
(10.1041 -0.00495435 -0.00119236)
(10.1121 -0.00442431 -0.00126234)
(10.1201 -0.00403227 -0.00133284)
(10.128 -0.00374967 -0.00140585)
(10.1358 -0.00366952 -0.00148099)
(10.1434 -0.00365256 -0.00155697)
(10.1508 -0.00385389 -0.0016325)
(10.1581 -0.00400084 -0.00171743)
(10.0404 0.00150392 0.00190021)
(10.0369 -0.00469128 0.00214046)
(10.035 -0.011069 0.00350745)
(10.0378 -0.0149136 -0.000861966)
(10.0605 -0.01468 -0.000788622)
(10.067 -0.0142394 -0.000856265)
(10.0737 -0.0143003 -0.000967236)
(10.0807 -0.0143768 -0.000995716)
(10.0903 -0.0143855 -0.0010402)
(10.0988 -0.014275 -0.00110685)
(10.1068 -0.0141393 -0.00118397)
(10.1147 -0.0140589 -0.00126204)
(10.1225 -0.0141458 -0.0013382)
(10.1302 -0.0143856 -0.00141127)
(10.1378 -0.0148816 -0.0014792)
(10.1452 -0.0154843 -0.00154248)
(10.1525 -0.016279 -0.00160408)
(10.1597 -0.0168482 -0.00167646)
(10.04 -0.000298163 0.0019193)
(10.0367 -0.0101065 0.00209304)
(10.036 -0.0183128 0.00335883)
(10.0414 -0.021548 -0.000736415)
(10.0646 -0.0256009 -0.000805461)
(10.0743 -0.0250615 -0.000879916)
(10.0798 -0.0263393 -0.00100195)
(10.0876 -0.0266078 -0.00100145)
(10.0974 -0.0266013 -0.00104041)
(10.1059 -0.0265833 -0.00110783)
(10.1139 -0.0266266 -0.0011891)
(10.1216 -0.02678 -0.00127303)
(10.1292 -0.027177 -0.00135702)
(10.1366 -0.0278343 -0.00143954)
(10.1437 -0.0289459 -0.00152031)
(10.1508 -0.0299689 -0.00159492)
(10.1583 -0.0310867 -0.00165572)
(10.1658 -0.0319139 -0.00171267)
(10.0404 -0.00243697 0.00193119)
(10.0379 -0.0159644 0.00201878)
(10.0402 -0.025306 0.00316194)
(10.0476 -0.0296085 -0.000764536)
(10.0727 -0.0314987 -0.000774645)
(10.0824 -0.0321215 -0.000865617)
(10.0875 -0.0324554 -0.000999927)
(10.0958 -0.0327466 -0.000999014)
(10.1057 -0.0330487 -0.00103773)