/*--------------------------------*- C++ -*----------------------------------*\
| =========                 |                                                 |
| \\      /  F ield         | OpenFOAM: The Open Source CFD Toolbox           |
|  \\    /   O peration     | Version:  2112                                  |
|   \\  /    A nd           | Website:  www.openfoam.com                      |
|    \\/     M anipulation  |                                                 |
\*---------------------------------------------------------------------------*/
FoamFile
{
    version     2.0;
    format      ascii;
    arch        "LSB;label=32;scalar=64";
    class       volScalarField;
    location    "0.47";
    object      nut;
}
// * * * * * * * * * * * * * * * * * * * * * * * * * * * * * * * * * * * * * //

dimensions      [0 2 -1 0 0 0 0];

internalField   nonuniform List<scalar> 
122250
(
0.00129791
0.0001689
0
0
0
0
0
3.30388e-05
2.3598e-05
5.74946e-07
1.1404e-05
2.79732e-05
1.81526e-05
0
0
0
0
1.95721e-05
0.00197808
0.000299118
0
0
0
0
0
1.13267e-05
1.36032e-05
0
1.91045e-06
1.65309e-05
8.12207e-06
0
0
0
5.72576e-06
2.33499e-05
0.0022392
0
0
0
0
0
3.90988e-05
0
0
0
0
1.0549e-05
1.72919e-06
0
0
0
1.90469e-06
7.58058e-05
0.00353081
0
0
0
0
5.065e-05
0.000138409
0.000357514
0.000233226
0.000100265
2.84152e-05
0
0
0
0
0
0
3.4957e-06
0.00532806
0
0
0
0.00010258
0.000217875
0.000231616
0.000324284
0.000269299
0.000196347
0.000139979
3.76872e-05
3.09715e-06
6.58864e-06
4.35435e-05
3.86311e-05
2.3625e-05
1.13009e-05
0.00655642
0
0
2.01344e-05
9.75673e-05
0.000254039
0.000284459
0.000211211
0.000170824
0.000149689
9.99653e-05
1.61007e-05
1.24277e-05
2.31997e-05
2.06793e-05
5.58956e-06
1.47541e-05
2.46218e-05
0.0068144
0
0.000143011
0
0
0.000248723
0.000347464
0.000188435
0.000150859
0.000133276
3.90514e-06
0
0
1.78665e-05
4.34457e-05
4.22322e-05
4.25311e-05
4.63417e-05
0.00698218
0
0
0
0
0.000109508
0.000324074
0.000153199
0.000147194
0.000155071
5.71564e-06
0
0
4.11149e-05
8.09277e-05
7.87021e-05
6.18642e-05
3.68344e-05
0.00643884
0
0
0
0
0.000148382
0.0002701
0.000139863
0.000142416
0.000143402
0.000129503
0
0
7.143e-05
8.93999e-05
8.65021e-05
7.50407e-05
6.54724e-05
0.00557419
0
0
0
9.80008e-05
0.000220434
0.000211577
0.000108575
9.94595e-05
0.000130198
0.000208643
0.0001536
2.78405e-05
6.17151e-05
7.97279e-05
7.79808e-05
6.32622e-05
5.48864e-05
0.00501803
0
0
0
0.000158385
7.17658e-05
9.7526e-05
0
0
0.000161163
0.000232326
0.000195478
5.78024e-05
1.23836e-05
3.1991e-05
3.3086e-05
1.71252e-05
1.02203e-05
0.00456229
0
0
0
0.000365318
0
0
0
0
0.00010366
0.000171982
0.000164749
6.11443e-05
0
0
0
0
0
0.00472778
0.000282374
0
0
0
0
0
0
0.000110239
0.00012995
0.000136484
0.000142921
0.000100901
4.26622e-05
1.54111e-05
7.17046e-06
3.28447e-06
2.10932e-05
0.00521372
0.000842173
0
0
0
0
0
0
6.52311e-05
8.63732e-05
0.000104091
0.000148383
0.000141716
0.000109296
7.41998e-05
4.57086e-05
8.50801e-06
7.71179e-06
0.00727816
0.000213444
0
0
0
0
0
0
0
0
6.51668e-05
0.000117657
0.000107149
7.60473e-05
5.487e-05
1.43267e-05
0
0
0.011974
0
0.000810381
0.00025301
0
0
0
0
3.31265e-05
8.4442e-05
0
2.90487e-05
3.48262e-05
0
2.78452e-05
3.95444e-05
3.15838e-05
0
0.0137794
0
0.00172315
0.0022258
0.000288487
0
0
0
0.000341586
0.000259607
0.000226833
0.000214699
0.0001701
5.0583e-05
7.01575e-06
5.74191e-05
6.19332e-05
4.1163e-05
0.0105155
0
0
0
0
0
0.000318589
0.000253922
0.000637949
0.000597928
0.000453274
0.000382291
0.000270743
0.000120307
4.5652e-05
4.92948e-05
3.03043e-05
2.22052e-05
0.00909673
0
0
0
0
0
0
6.99129e-05
0.000182851
0.000390066
0.000363513
0.000233573
0.000153117
0.000157594
0.000201977
0.000175011
0.000141416
0.000112724
0.0129934
0
0
0
0.00156962
0.000546654
0.000178839
0.000103836
0.000132725
0.000130911
7.18468e-05
4.09621e-05
1.03063e-05
0
0.000170106
0.00041862
0.000475407
0.000346925
0.011952
0
0
0.0018015
0.00131845
0.000614748
0.000231569
0.000157176
0.000148406
2.70429e-05
7.92465e-06
0
0
0
2.16345e-05
0.000330685
0.000299595
0.0001119
0.0100713
0
0
0.00209314
0.000832829
0.000388129
0.000142826
0.000126125
0.000146001
0.00012489
4.32377e-05
0
0
0
0
5.8516e-05
5.90843e-05
2.61354e-05
0.00908413
0
0.000227777
0.0018187
0.000604307
0.000181714
0.000123324
0.000170089
0.000158832
0.000101719
9.78844e-05
7.84265e-05
5.40975e-05
2.48081e-05
0
0
0
0
0.00850344
0
0.00142681
0.00151338
0.000571006
0.000162834
0.000182112
0.000116015
0.000190204
0.000166065
0.000134707
9.16528e-05
7.10108e-05
2.84625e-05
0
0
0
0
0.0073998
0
0.00166823
0.000642915
0.000108548
0
0.000126108
9.91876e-05
0.000177474
0.00010241
8.23321e-05
7.07312e-05
4.98844e-05
0
0
0
0
0
0.00587817
0.000377753
0.00205464
0
0
0
2.05564e-05
0
0
0
8.53387e-06
1.35802e-05
2.505e-05
7.08794e-06
0
0
8.30142e-06
2.94313e-05
0.00475221
0.00186776
0.00319954
0
0
0
0
0
0
0
0
0
1.31279e-05
3.2767e-06
0
9.20273e-07
2.39453e-05
5.73212e-05
0.00406886
0.00222125
0.000722518
0
0
0
0
0
0
0
0
0
4.19846e-06
0
0
0
0
4.86811e-06
0.00163194
0.00147416
5.13206e-05
0
0
0
0
0
0
0
0
0
0
0
0
0
0
0
0.000552016
0.000365859
3.31399e-05
0
0
0
0
0.000187692
1.88561e-06
0
0
0
0
0
0
0
0
7.65045e-07
0.000546457
0.000165934
0
0
0
0
4.07777e-05
6.15608e-05
4.7858e-05
7.68859e-06
1.21829e-05
3.58035e-05
2.59448e-06
0
0
0
0
0
0.0011017
0.000305205
0
0
0
0
1.76461e-05
3.34037e-05
2.00011e-05
0
0
9.23921e-06
0
0
0
0
0
0
0.00249697
0
0
0
0
0
6.00416e-05
3.20464e-07
0
0
0
0
1.45583e-07
0
0
0
4.72248e-05
4.69179e-05
0.00402203
0
0
0
0
2.80667e-05
0.000277019
0.000159952
9.41076e-05
7.40732e-05
5.68259e-05
5.30111e-05
6.30594e-05
9.61952e-06
0
0
0
0
0.00597034
0
0
0
0
0.000202416
0.000496123
0.000351337
0.000112795
9.93352e-05
0.000101672
8.59022e-05
9.55144e-05
7.73065e-05
8.25241e-05
8.29133e-05
1.40656e-05
0
0.00743131
0
0
0
0
0.000248067
0.000526024
0.00038333
0.000110873
7.78853e-05
8.73686e-05
6.60234e-05
9.44059e-05
8.99957e-05
7.33405e-05
5.54229e-05
6.8054e-06
0
0.00772445
0
0
0
0.000137014
0.000367805
0.000517124
0.000395809
0.000162016
8.67608e-05
7.0124e-06
0
3.2522e-05
7.14859e-05
3.7026e-05
1.57841e-05
1.25774e-05
8.99642e-06
0.00810955
0
0
0
1.04274e-05
0.000416263
0.000466105
0.000366355
0.000166177
0.000135842
6.08808e-05
0
0
3.66087e-05
4.66079e-05
5.42966e-05
5.41818e-05
2.44349e-05
0.00853518
0
0
0
0
0.000128239
0.000383548
0.000324243
0.000121813
7.0166e-05
9.81462e-05
0
0
8.60585e-05
8.08868e-05
7.84244e-05
7.17561e-05
5.57624e-05
0.00830885
0
0
0
0
2.25944e-05
0.000298285
0.000247056
4.48611e-06
3.40281e-05
0.000186806
7.74852e-05
9.41492e-05
0.000112422
0.000101339
9.52667e-05
8.57059e-05
7.00471e-05
0.0079953
0
0
0
0.000315162
0.000218734
0.000236135
0.000123927
0
7.69208e-05
0.000207951
0.00016776
7.77791e-05
9.13146e-05
9.11005e-05
8.92865e-05
7.8637e-05
6.36876e-05
0.0073668
0
0
0
0.000458562
0.000110519
0.000261185
4.82152e-05
0
4.65382e-05
0.000176783
0.000138264
2.26438e-05
2.5732e-05
3.53042e-05
4.63558e-05
5.08768e-05
5.01205e-05
0.007319
0
0
0
0.000235386
0
0.000148625
0.000104733
6.04779e-05
4.76289e-05
0.000161253
0.000128393
5.31418e-05
3.01125e-06
1.29523e-05
3.40524e-05
4.50346e-05
5.587e-05
0.00773968
0
0
0
0
0
0
0
3.96376e-06
0
0.000134975
0.00014474
0.000122851
6.08018e-05
3.01918e-05
4.22363e-05
4.76727e-05
5.61253e-05
0.0101073
0
0
0
0
0
0
0
0
0
9.39267e-05
0.000102148
3.87107e-05
0
2.31708e-05
5.06816e-05
7.03435e-05
6.79937e-05
0.0136792
0
0.00161021
0.00091681
0.000428314
0
0
0
0
4.67464e-05
9.20399e-05
5.91772e-05
0
0
1.969e-05
3.45543e-05
5.02592e-05
4.92374e-05
0.0150817
0
0.00188267
0.00281124
0.0012614
0
0
0
2.77302e-05
5.66357e-05
0.000104269
0.000145073
9.88634e-05
0
8.40329e-06
4.20026e-05
2.13038e-05
1.09949e-05
0.0139828
0
0
0
8.95398e-05
0
0
0.000102858
0.000336819
0.000282094
0.000288671
0.000305153
0.000214763
8.77592e-05
4.21923e-05
6.05822e-05
4.80613e-05
2.09039e-05
0.0118581
0
0
0
0
0
0
9.79033e-05
0.000263197
0.0003287
0.000264402
0.000190042
0.000147848
0.000122713
0.000114097
9.82253e-05
7.32015e-05
5.17719e-05
0.0136809
0
0.000689306
0.00177805
0.0014215
0.000342432
0.000189545
0.000162141
0.000300085
0.000248546
8.32073e-05
1.16748e-05
5.41818e-06
5.14016e-05
0.000150741
0.000252849
0.000249934
0.000134796
0.0123651
0
0
0.00229057
0.00120278
0.000607374
0.000261532
7.39173e-05
0.000132373
0
0
0
0
0
6.4866e-05
0.000175736
0.000115437
4.2609e-05
0.010514
0
0
0.00224993
0.00082787
0.000360649
0.000123389
7.73961e-05
9.08196e-05
4.6077e-05
0
0
0
0
2.60109e-05
4.53505e-05
3.0838e-05
2.58613e-05
0.00933615
0
0.00106054
0.00229478
0.000727584
0.000232795
0.000116759
0.00014092
9.13173e-05
2.55524e-05
4.23718e-05
4.42253e-05
3.07754e-05
2.86221e-05
2.20203e-05
1.1853e-05
1.96226e-05
3.07207e-05
0.00843955
0
0.00194636
0.00204601
0.00066064
9.01084e-05
0.000167547
8.52081e-05
8.26951e-05
6.071e-05
7.58378e-05
5.5744e-05
1.53948e-05
0
0
0
0
1.83124e-05
0.00729549
0
0.00227865
0.00137509
0.000159389
0
9.93847e-05
6.26933e-05
8.5918e-05
0
2.04742e-05
1.86594e-05
1.79311e-05
0
0
0
0
5.55849e-06
0.00618116
0
0.00264633
0.00023197
0
0
0
0
0
0
3.24802e-05
1.46905e-05
1.75782e-05
6.30556e-06
0
8.17482e-06
1.92122e-05
7.66619e-05
0.00515142
0.00112454
0.00347088
0
0
0
0
0
0
0
4.28116e-05
4.35991e-05
3.5698e-05
1.77538e-05
1.62667e-05
2.6785e-05
3.89812e-05
7.71628e-05
0.00400611
0.00151302
0.000786424
0
2.93755e-05
0
0
0
0
0
5.62468e-06
8.15822e-06
1.86699e-05
9.69782e-06
1.18192e-05
9.47774e-06
7.59109e-06
2.19551e-05
0.00104157
0.00101772
1.77303e-05
0
0.000231476
0.000145501
0
0
0
0
3.88763e-06
0
0
0
0
0
9.05119e-07
6.85131e-06
0.00043369
0.000214291
4.55456e-07
0
0.000148108
0.000549968
4.18786e-05
0
0
0
4.11054e-05
0
0
0
0
3.54613e-06
5.10818e-06
8.89636e-06
0.000699332
0.000138233
0
0
0
0
3.52946e-05
4.7909e-05
1.66077e-06
0
0
7.45113e-06
0
0
0
0
0
0
0.00151493
0.000161375
0
0
0
0
0
1.60514e-05
0
0
0
0
0
0
0
0
0
0
0.00281866
0
0
0
0
0
3.10841e-05
0
9.97501e-05
6.06836e-05
1.51043e-05
0
0
0
0
0
0
0
0.00495172
0
0
0
0.00014451
3.23326e-05
0.000168088
4.1681e-05
0.000250209
0.00014127
0.000133252
0.000111885
7.91823e-05
2.39605e-05
0
0
0
0
0.00739223
0
0
0
0.000149077
0.000173455
0.000301979
0.000177367
0.000154573
0.000152256
0.00015838
0.000131301
9.9863e-05
6.44402e-05
2.56746e-05
0
0
0
0.00895842
0
0
0
5.46265e-05
0.000196615
0.000392386
0.000260772
9.70953e-05
0.000143268
0.000138583
0.000130232
0.000108697
7.53567e-05
4.4698e-05
4.3414e-06
0
2.20189e-05
0.00901797
0
0
1.85017e-05
0.000265787
0.000292398
0.00044961
0.000321835
0.000116279
0.000118966
5.46387e-05
3.25278e-05
0.0001234
9.92648e-05
5.02211e-05
1.69904e-05
0
2.31718e-05
0.00885919
0
0
0.000406555
0.000764208
0.000392784
0.000464659
0.00034418
0.000161451
9.5456e-05
6.93022e-05
0
7.45364e-05
0.000118771
7.24465e-05
6.15918e-05
5.58766e-05
3.91203e-05
0.0096827
0
0
0
0.000124146
0.000213974
0.0004632
0.000352425
0.00014313
8.1606e-05
8.24781e-05
0
9.03543e-05
8.39724e-05
3.80456e-05
4.18684e-05
4.54657e-05
3.32436e-05
0.0103421
0
0
0
7.70908e-05
0.000145193
0.000417824
0.00031727
0
0
0.000113679
9.33786e-05
0.000189392
0.000120622
8.19484e-05
7.32177e-05
7.12911e-05
5.8387e-05
0.0107853
0
0
0.000131418
0.000458329
0.000323447
0.00034276
0.000175222
0
0
0.000156799
0.000168429
0.00014803
0.000117737
0.000107156
0.000103912
9.95461e-05
8.52023e-05
0.0108124
0
0
0.000482547
0.000470974
0.000379962
0.000324375
5.51369e-05
0
2.92829e-05
0.000155083
0.000122211
7.09308e-05
7.35919e-05
7.56419e-05
8.39858e-05
9.4046e-05
9.2264e-05
0.0111136
0
0.000400318
0.000340684
0.000494909
0.000125323
0.000281039
5.04547e-05
2.64672e-05
6.59909e-05
0.000143734
9.49875e-05
1.22687e-05
2.20046e-05
4.20619e-05
6.28634e-05
8.59927e-05
9.71784e-05
0.0113151
0
0.000830214
0.000288239
0.000265427
0
0
0
7.70701e-05
6.47219e-05
0.000115316
0.000112206
4.19627e-05
2.6407e-05
4.63481e-05
6.02013e-05
7.3766e-05
9.0239e-05
0.01274
0
0.00140598
0.000615174
0
0
0
0
0
0
7.63094e-05
1.91408e-05
0
2.11049e-05
5.92467e-05
8.18067e-05
9.5254e-05
0.000100329
0.0144496
0
0.00271283
0.00165455
0.000292923
0
0
0
0
0
7.84599e-05
2.36425e-06
0
0
2.79018e-05
6.28134e-05
9.09365e-05
9.36452e-05
0.0153585
0
0.00268532
0.00321068
0.00125962
0.000216166
0
0
0
0
0.000116227
0.00010558
5.75384e-05
1.47464e-05
1.91412e-05
1.43408e-05
3.07445e-05
5.99031e-05
0.0155105
0
0.00129921
0.00226734
0.00108932
0
0
0.000265953
0.000288013
0.000262052
0.000277514
0.000239798
0.000171287
0.000110554
7.13731e-05
4.32315e-05
3.13346e-05
3.25923e-05
0.0149009
0
0.000904446
0.00135206
0.00102435
0
3.26741e-05
7.89341e-05
0.000179702
0.000233356
0.000219912
0.000177502
0.000145591
8.44193e-05
6.0764e-05
4.40967e-05
2.44622e-05
1.59178e-05
0.014279
0
0.0012792
0.00223344
0.00108691
0.000354097
0.000134343
0.000169139
0.00026693
0.000213258
0.000152312
0.00010283
7.60712e-05
9.17481e-05
0.000112417
0.000107498
7.73964e-05
4.962e-05
0.013093
0
0
0.00293302
0.00118148
0.00053864
0.000274635
0.00017167
0.000151959
0.000102286
0
0
0
1.82857e-06
5.88257e-05
6.26332e-05
3.258e-05
6.02371e-06
0.011654
0
0.000288159
0.00246074
0.000821103
0.000299532
0.000247683
0.000217617
0.000113896
3.57898e-05
0
0
3.76539e-07
2.70397e-05
3.33944e-05
2.71712e-05
2.29941e-05
3.26106e-05
0.010403
0
0.00161912
0.00143057
0.000743586
0.000265155
0.000228335
0.000146015
6.64771e-05
7.60024e-06
3.96985e-06
3.47188e-05
3.29693e-05
2.31277e-05
1.19333e-05
2.63683e-05
4.6556e-05
7.01327e-05
0.00872275
0
0.00131903
0.000195066
0.000679731
0.000183822
0.000179539
7.45495e-05
5.13985e-05
1.03434e-05
3.19951e-05
1.05299e-05
0
0
0
2.22866e-05
7.10701e-05
0.000105457
0.00721516
0
0.00186577
0
0.000231978
0
3.92639e-05
9.61865e-06
5.30415e-05
3.97485e-05
5.83567e-05
1.72481e-05
2.23417e-05
1.65515e-05
1.56123e-05
2.62368e-05
6.36208e-05
9.7116e-05
0.00631428
0.000248939
0.00243551
0
0
0
0
0
2.1895e-05
7.39137e-05
9.71405e-05
4.30383e-05
3.18781e-05
3.38397e-05
3.5998e-05
5.22563e-05
8.24014e-05
0.000103801
0.00537488
0.00117352
0.00311725
0
0
0
0
0
0
7.24019e-05
0.000165052
0.000104129
6.35199e-05
5.63284e-05
5.95283e-05
5.63641e-05
6.05741e-05
4.78744e-05
0.00410437
0.00153949
0.000750021
0
0
0
0
0
0
0
0.000214985
0.000122571
6.25541e-05
5.0666e-05
4.38584e-05
3.28945e-05
3.04464e-05
2.71987e-05
0.000998774
0.00100607
8.62753e-06
0
0
0
0
0
1.14409e-05
3.64289e-05
0.00018801
2.93921e-05
1.35258e-05
0
0
0
4.03695e-06
1.06464e-05
0.000427516
0.000162045
0
0
0
3.49851e-05
0
4.64936e-05
0.000148799
0.000106546
6.81341e-05
0
6.15519e-06
0
0
0
3.18745e-06
1.05991e-05
8.32046e-05
0
0
0
0.000306386
0
9.47774e-06
0
0
0
6.57886e-06
4.81143e-05
0
0
0
0
0
0
0.000840281
0
0
0
0.000278665
0
2.25176e-05
0
0
0
4.9562e-06
2.47569e-05
0
0
0
0
0
0
0.00263818
0
0
0
0.000334523
0
2.63433e-05
0
0
0
5.85152e-05
3.28763e-05
0
0
0
0
0
0
0.00630938
0
0
6.38297e-05
0.000329241
0.000105828
0.000105654
1.81148e-05
5.61792e-05
5.99208e-05
4.24139e-05
2.47598e-05
4.06069e-05
3.50878e-05
1.44879e-05
0
0
0
0.00966342
0
0
0.000143603
0.000330387
0.000231726
0.000244059
0.000171789
0.000114382
0.000139003
9.90592e-05
7.24485e-05
5.84099e-05
4.33953e-05
3.05823e-05
1.73199e-05
1.54625e-05
0
0.0107545
0
0
0.000163447
0.000305718
0.000240594
0.00032928
0.000202916
9.94957e-05
0.000148007
6.04226e-05
5.93805e-05
0.000103389
5.40003e-05
3.25647e-05
2.27123e-05
3.34844e-05
5.22026e-05
0.010289
0
0
0.000428655
0.000391768
0.000266346
0.000379963
0.000265518
0.000100497
3.76027e-05
1.78812e-05
2.13101e-05
0.000133915
0.000102313
5.20128e-05
6.31113e-05
7.81572e-05
8.94252e-05
0.00982116
0
0
0.00116083
0.000681368
0.000306472
0.000396879
0.000316495
0.000119843
1.67807e-05
1.87667e-05
2.78822e-06
0.000174941
0.000115166
7.74125e-05
0.000109018
0.000123152
0.000124736
0.0103236
0
0
0.000449907
0.000419856
0.000284283
0.000416574
0.000344067
6.92309e-05
6.03555e-05
4.72583e-05
5.92906e-05
0.000191646
6.51556e-05
2.02996e-05
6.87999e-05
0.000101517
9.18676e-05
0.0110725
0
0
0.000192142
0.00044434
0.00036323
0.000424302
0.000296323
0
2.78152e-05
6.02202e-05
0.000267393
0.000210056
8.84692e-05
4.48059e-05
4.38392e-05
4.12853e-05
8.75299e-06
0.0116963
0
0
0.000563271
0.000574554
0.000405595
0.000333231
0.00013461
3.6759e-05
0
9.87051e-05
0.000277242
0.000174793
0.000112635
9.35485e-05
9.93092e-05
9.60924e-05
6.80355e-05
0.0120128
0
0.000575039
0.000717023
0.000520468
0.000159098
0.000250966
6.38403e-05
7.92413e-05
3.36675e-05
0.000103181
0.000147854
0.000114547
9.20877e-05
8.73704e-05
0.000102839
0.000117189
0.000100309
0.0127715
0
0.00117493
0.000832993
0.000589079
0
0.000142589
7.45302e-05
8.94292e-05
6.74616e-05
9.61999e-05
9.29463e-05
7.37267e-05
5.97162e-05
5.14e-05
6.32509e-05
0.000100644
0.000110937
0.0132446
0
0.00177662
0.00100141
0.000473653
0
0
0
0.000132042
5.62811e-05
8.93599e-05
8.9183e-05
6.38095e-05
5.87183e-05
4.4398e-05
2.66253e-05
4.70689e-05
9.61931e-05
0.0139709
0
0.00249111
0.00134067
0
0
0
0
0
0
2.74757e-05
0
6.52421e-05
6.95919e-05
7.06936e-05
5.31671e-05
6.57251e-05
9.94224e-05
0.0145567
0
0.00353172
0.00217807
0.000335802
0
0
0
0
0
4.53732e-05
2.02555e-05
2.24487e-05
5.25609e-05
9.37268e-05
0.000100147
0.000119693
0.000153811
0.014721
0
0.00374951
0.00157193
0.000942027
0.000224499
0
0
0.000106069
9.71437e-05
9.07957e-05
5.64073e-05
2.73921e-05
2.26882e-05
3.72464e-05
5.14926e-05
8.09565e-05
0.000110106
0.0150882
0
0.00155153
0.00325545
0.0010588
0.000241621
0.000232114
0.000244154
0.000267061
0.00022257
0.000172442
0.000154369
0.000140004
9.97737e-05
5.58044e-05
2.43258e-06
4.63865e-06
5.2744e-05
0.0154307
0
0.00140251
0.00332776
0.00119493
0.000296994
0.000258551
0.000206095
0.000211512
0.000157312
0.000131418
0.00010061
6.74656e-05
3.44054e-05
1.80637e-05
4.00374e-06
1.80613e-06
2.61915e-05
0.014346
0
0.000744258
0.00390128
0.000999691
0.000147263
0.000100599
0.000182703
0.00017327
8.68224e-05
4.63451e-05
8.09617e-06
0
0
1.75645e-05
3.19605e-05
3.62749e-05
3.87259e-05
0.0136382
0
0
0.0033776
0.0010113
0.000371575
0.000271411
0.000269192
0.000170078
8.97134e-05
3.84493e-05
0
0
0
1.12858e-05
1.88865e-05
1.03543e-05
0
0.0127142
0
0.00150959
0.000687232
0.000291965
0.000188247
0.000271153
0.000302553
0.000133624
5.33696e-05
0
1.73953e-05
3.93878e-05
3.33444e-05
2.00313e-05
1.41427e-05
1.84297e-05
2.82744e-05
0.0109369
0
0.000906713
0
0.000192862
0.000346197
0.00026803
0.000107866
2.64655e-05
0
0
7.52393e-05
6.93624e-05
5.24597e-05
3.73136e-05
3.98513e-05
7.51941e-05
9.18337e-05
0.0079202
0
0
0
0
0.000397724
0.000164241
3.06852e-05
1.61669e-05
0
0
4.5099e-05
3.35688e-05
7.54092e-06
0
3.61589e-05
0.000111345
0.000128331
0.00651253
0.000437674
0
0
0
0.000273576
3.53121e-05
0
4.26652e-05
0
3.85771e-05
2.4349e-05
1.42952e-05
1.20479e-05
2.21285e-05
3.96201e-05
9.63201e-05
9.65791e-05
0.00578324
0.00118796
0
0
0
9.39531e-05
0
0
3.24552e-05
3.86887e-05
3.88513e-05
8.67065e-06
2.11538e-05
3.89964e-05
4.61521e-05
5.34945e-05
7.27066e-05
5.4856e-05
0.00519913
0.00194339
0.000912757
0
0
0
0
0
0
3.74312e-05
7.13698e-05
3.9235e-05
3.13863e-05
5.04364e-05
5.60767e-05
4.41213e-05
2.18738e-05
2.55061e-05
0.00418939
0.00230695
0.000219707
0
0
0
0
0
0
2.3769e-05
7.21424e-05
5.02643e-05
3.88269e-05
6.31411e-05
6.74706e-05
4.30811e-05
3.46928e-05
4.23115e-05
0.00113135
0.00115311
2.66601e-05
0
0
0
0
0
5.76799e-05
6.74398e-05
8.32524e-05
7.25709e-05
3.49097e-05
9.83016e-06
0
0
1.62947e-06
1.57995e-05
0.000556175
0.000186317
1.97057e-05
0
0
0
0
0.000174834
0.000129631
8.16187e-05
7.74812e-05
8.09982e-05
3.36681e-05
0
0
0
0
9.07954e-06
0
0
6.57855e-05
7.75218e-05
0.000121381
0
1.59343e-05
0
0
0
3.85303e-05
7.17633e-05
2.16579e-05
3.86413e-06
1.24925e-05
1.72891e-05
4.99702e-06
0
0.000377365
0
0.000295058
0.000158233
0.000110559
0
4.51448e-05
0
0
0
9.59347e-05
5.43134e-05
1.91488e-06
0
1.91817e-06
9.07897e-06
0
0
0.0020374
0
0.000760077
0.000615893
0.000466807
0
0.000249121
0
0
0.000111181
0.000247072
5.73443e-05
0
0
0
0
0
0
0.00757777
0
0.000337869
0.000603805
0.000280165
9.59239e-05
0.000147255
0
0
7.13233e-05
8.7507e-05
2.58579e-05
1.92915e-05
2.98855e-05
4.50275e-05
4.85822e-05
4.54462e-05
4.96665e-05
0.0113146
0
0
0.000513383
0.000220476
0.000102902
0.000145011
9.20018e-05
0
3.33929e-05
3.57093e-05
6.12616e-05
4.29508e-05
4.99686e-05
6.79866e-05
6.53484e-05
3.88993e-05
7.79368e-05
0.0116089
0
0
0.000417622
0.000220122
9.92351e-05
0.000222544
0.000164224
0.000109373
4.63553e-05
2.85288e-05
7.11372e-05
9.83958e-05
6.19378e-05
7.10662e-05
7.38582e-05
5.88075e-05
9.78976e-05
0.0109811
0
0
0.000448633
0.000293362
0.000108088
0.0002674
0.000207564
8.97206e-05
0
0
8.00629e-05
0.00014326
7.45944e-05
6.68552e-05
7.04939e-05
7.62956e-05
9.80081e-05
0.0106673
0
0
0.000807344
0.000418886
0.000159723
0.000306405
0.000253571
1.87732e-05
0
0
0.000176998
0.000203566
9.58267e-05
5.72672e-05
5.9461e-05
8.61751e-05
0.000118606
0.0110634
0
0
0.000455573
0.000405758
0.000221114
0.000371948
0.00029548
0
0
0
0.000277816
0.000198053
6.71512e-05
4.83406e-05
7.19047e-05
9.17158e-05
0.000139775
0.0115951
0
0
0.000344013
0.000508498
0.000277922
0.000353431
0.000233405
0
1.66201e-05
8.73397e-05
0.000358017
0.00016155
4.24406e-05
1.82555e-05
4.15718e-05
0.000110979
0.000102426
0.0121238
0
0
0.000622834
0.000542568
0.000233625
0.000249322
8.65983e-05
8.66085e-05
4.94246e-05
0.000157898
0.000359403
0.000171661
8.16415e-05
2.83901e-05
0
3.25106e-05
3.65878e-05
0.0124025
0
0.000786512
0.0006999
0.000508165
0
0.000169086
0.000122345
0.000168471
6.9824e-05
0.000128365
0.000221174
0.000133702
8.12402e-05
3.04146e-05
0
0
0
0.0133165
0
0.00148279
0.000838577
0.000598177
0
2.43287e-05
0.00013483
0.000169852
6.00829e-05
0.000108377
0.000153745
0.00010835
7.86949e-05
5.43326e-05
1.01731e-05
0
6.45115e-05
0.0139598
0
0.00220506
0.00110564
0.000419342
0
0
6.38985e-06
0.00013776
4.04866e-05
4.90663e-05
0.000106453
7.07034e-05
5.63794e-05
6.60702e-05
5.02634e-05
1.84578e-05
3.7861e-05
0.0143681
0
0.003097
0.00152948
0
0
0
0
0
0
0
4.55807e-05
4.23073e-05
2.95285e-05
3.96297e-05
4.67708e-05
8.97253e-05
0.000110203
0.0140889
0
0.00441933
0.00120011
0.000293078
0
0
0
0
0
3.46681e-05
8.31799e-05
8.90932e-05
8.50198e-05
0.00010123
0.000117902
0.000147998
0.00016512
0.0130335
0
0.00315445
0
0
0.000649876
0.000493592
0.000168265
0.000227273
4.52308e-05
7.32489e-06
0
2.18384e-05
5.0159e-05
6.10028e-05
6.69528e-05
9.57623e-05
0.000108334
0.0133711
0
0.000173717
0
0.000584163
7.37697e-05
0.000275809
0.000414929
0.000258316
0.000120933
5.66474e-05
4.76816e-05
8.02435e-05
6.58684e-05
1.53091e-05
0
1.01425e-05
5.5683e-05
0.0149428
0
0.000671241
0.00552944
0.00108113
0.000406822
0.000360717
0.000289913
0.000193953
9.58744e-05
5.22799e-05
6.72036e-05
8.05603e-05
2.83535e-05
2.62813e-06
0
9.23821e-06
3.42694e-05
0.0142664
0
0.00101934
0.00461397
0.000858471
0.000222316
0.000191979
0.000222714
0.000210334
0.000153929
6.49065e-05
0
0
0
0
0
2.14838e-05
2.85004e-05
0.0138592
0
0.000782505
0.000950279
0
0.000185721
0.000257075
0.000340568
0.000242464
0.000149612
5.76286e-05
0
0
0
0
0
2.99469e-05
1.80821e-05
0.0131076
0
0.00167577
0
0
0.000112234
0.000206317
0.000332795
0.000220464
0.000109249
2.02877e-05
2.47383e-05
6.94014e-05
6.77277e-05
4.61163e-05
3.72302e-05
2.71094e-05
1.37988e-05
0.0102719
0
0
0
0
0.000371784
0.000190957
0
4.92153e-06
0
0
6.15403e-05
0.000149972
0.000115083
7.1261e-05
4.51751e-05
7.0068e-05
7.40669e-05
0.00700037
0.000229547
0
0
0
0.000418215
4.27213e-05
0
0
0
0
9.03617e-05
0.00014149
0.000100627
4.22272e-05
3.42804e-05
8.13458e-05
8.17752e-05
0.00561872
0.00124345
0
0
0
0.000427318
1.68298e-05
0
2.91126e-05
1.25973e-05
7.72449e-05
0.000125182
9.64068e-05
3.86419e-05
2.07431e-05
4.63948e-05
7.54339e-05
6.57066e-05
0.00479969
0.00141578
0
0
0
0.000223884
1.44916e-05
0
5.11317e-05
2.159e-05
2.69613e-05
3.09085e-05
2.21511e-05
3.45693e-05
4.96375e-05
5.42963e-05
3.31718e-05
3.03411e-05
0.00457015
0.00101693
9.70382e-05
0
0
0
1.64221e-05
0
0
3.49177e-07
0
0
6.45065e-06
3.14058e-05
3.8252e-05
1.26472e-05
0
0
0.0041962
0.000640222
0.000277811
0
0
0
5.07378e-05
6.497e-05
1.37723e-05
1.97345e-05
8.82731e-06
1.62524e-05
1.82976e-05
3.14682e-05
4.25759e-05
1.77887e-05
0
0
0.00200626
0.00026073
7.62742e-05
0
0
0
3.50684e-05
0.000196433
3.69423e-05
1.89277e-05
7.34752e-06
1.12774e-05
0
0
0
0
0
4.76951e-07
0.000642052
1.73588e-05
6.15626e-05
0
2.55386e-06
0
0
8.526e-05
2.56376e-05
1.8016e-05
9.61344e-06
5.18501e-06
0
0
0
0
0
0
0.000433497
0
0
0
0
2.0504e-05
2.83848e-05
0
0
0
8.22002e-05
8.81049e-05
4.36641e-05
1.73568e-05
0
0
0
4.07448e-05
0.00119989
0
0
0
0
0
8.98297e-06
0
0
5.17795e-05
0.000116724
3.82416e-05
1.06128e-05
9.46206e-07
0
0
0
2.9625e-05
0.00282998
0
0
0
0
0
3.84817e-05
0
0
0.00020873
0.000183388
4.69446e-05
7.17052e-06
2.22823e-06
2.11124e-06
1.95313e-06
1.88219e-07
1.6947e-05
0.00621926
0
0
0
0
0
0.00022117
0
0
8.03231e-05
6.99075e-05
5.21705e-05
2.8228e-05
3.59269e-05
6.7497e-05
6.49747e-05
5.94019e-05
0.000156724
0.00998026
0
0
0.000193263
0
0
0.00021085
0.000147413
0
4.58436e-05
0.000121036
0.000105048
3.82577e-05
4.65144e-05
7.83739e-05
8.04725e-05
5.29953e-05
0.000100626
0.0112275
0
0
0.00026794
2.56228e-05
0
0.000154583
0.000183748
0.000180847
8.34071e-05
0.00012453
0.000151792
8.8527e-05
4.91515e-05
7.39452e-05
6.67123e-05
4.18098e-05
5.6783e-05
0.0109722
0
0
0.000399961
0.000168851
2.26456e-05
0.00014095
0.000168394
0.000115562
1.40853e-05
7.45867e-05
0.000189392
0.000151834
7.48105e-05
5.22036e-05
2.59384e-05
9.77331e-06
1.47161e-05
0.0109975
0
0
0.00071884
0.000333867
0.000184442
0.000233883
0.00018891
4.53598e-05
0
0.000104258
0.000263586
0.00020586
0.000107489
8.42942e-05
6.75691e-05
4.93137e-05
2.61927e-05
0.0117344
0
0
0.000360898
0.000395391
0.000289368
0.000345445
0.000254299
1.02777e-05
0
0.000173229
0.000293666
0.000202827
0.000118102
0.000120731
9.28489e-05
6.7664e-05
5.27661e-05
0.0117383
0
0
0.000503501
0.000470199
0.000251632
0.000228247
0.000156255
0.000117087
0.00013813
0.000243768
0.000310255
0.000156016
8.30281e-05
9.04643e-05
7.36378e-05
4.47219e-05
4.59316e-05
0.0116909
0
0
0.000684646
0.000424399
0.000127566
0.000141019
0.000130042
0.000192895
0.00015403
0.00027516
0.000332839
0.000110299
5.38754e-05
2.24453e-05
0
0
0
0.0116107
0
0.00064604
0.0007263
0.000434571
0
8.64333e-05
0.000217983
0.000236835
0.000119494
0.00022862
0.00029924
0.000135694
6.8899e-05
4.02184e-05
4.96729e-06
0
0
0.0123555
0
0.00126754
0.000794547
0.00053603
0
0
0.000155358
0.000203265
9.57937e-05
0.000197798
0.000190391
0.000101384
6.38746e-05
9.30201e-05
7.19381e-05
4.16822e-05
6.31309e-05
0.0133089
0
0.00205851
0.00105304
0
0
0
1.57753e-05
8.99139e-05
5.92967e-06
3.36265e-05
7.53712e-05
2.74042e-06
1.07263e-05
0.000106823
0.00010717
8.09651e-05
4.90407e-05
0.0140322
0
0.00314757
0.00104877
0
0
0
0
2.91575e-06
0
0
0
0
0
2.56945e-05
0.000128058
0.000181492
0.000141773
0.0133213
0
0.0047236
0
0
0.000135863
0
0
0
0
0
5.5584e-05
3.70929e-05
4.77014e-06
9.88228e-05
0.000169501
0.000142267
9.65051e-05
0.0116435
0
0.000674459
0
0
0.00103359
0.000965988
0.000464155
0.000287236
3.1877e-05
0
1.15289e-05
4.11206e-05
1.98006e-05
4.31724e-05
8.22349e-05
9.07427e-05
6.80025e-05
0.0122986
0
0
0
0
0
0.000784204
0.000596517
0.000305159
0.000103317
5.68072e-05
7.40624e-05
8.26525e-05
5.8469e-05
2.75486e-05
1.65483e-05
4.17421e-05
5.96152e-05
0.0144364
0
0.000836882
0.00132163
0.0010148
0.000490327
0.000333473
0.000258676
0.000194706
0.00012394
6.29295e-05
5.61684e-05
5.1694e-05
4.41653e-05
4.97106e-05
4.54573e-05
5.18129e-05
5.6056e-05
0.0141552
0
0.00250097
0.000835733
0.000346045
0.000367485
0.000188158
0.00020723
0.000270847
0.000204531
8.83893e-05
0
0
0
0
4.52154e-05
0.000125812
0.000129431
0.0139255
0
0.00169387
0
0
0
3.50258e-05
0.000272916
0.000376444
0.0002995
0.000111256
0
0
0
0
0
8.90544e-05
6.60045e-05
0.0132405
0
0.000705338
0
0
0
0
5.32383e-05
0.000330934
0.000294087
0.000115378
9.03853e-05
0.000123617
0.000135459
6.54682e-05
5.17761e-05
3.6744e-05
1.17967e-05
0.0108032
0
0
0
0
0.000221513
0
0
0
5.06152e-05
1.09944e-05
0.000100693
0.000212873
0.000222265
0.000132356
6.94618e-05
6.09554e-05
4.16781e-05
0.00790769
0
0
0
0
0
0
0
0
0
1.69801e-05
7.81049e-05
0.000252356
0.000246506
0.000116348
5.35062e-05
4.04123e-05
3.27346e-05
0.00648907
0
0
0
0
0
0
0
8.14621e-05
4.52931e-05
0
4.52364e-05
0.000200822
0.000177356
6.65334e-05
6.03646e-05
2.86061e-05
2.10835e-05
0.0057176
0
4.4227e-05
0
0
0
0
2.27458e-05
9.80715e-05
0
0
0
4.24149e-05
5.4487e-05
6.36818e-05
8.31496e-05
2.5765e-05
1.72338e-06
0.00570747
0
0.000474845
8.57317e-05
0
0
0
0
0
0
0
0
0
1.50484e-05
4.13528e-05
2.31398e-05
0
0
0.00504714
0
0.000610384
0.000287816
0
0
0
0
0
0
0
0
6.50652e-06
1.34274e-05
2.39291e-05
4.60299e-06
0
0
0.000994264
0
0.000547806
0.000184249
0
0
0
0
0
0
0
0
0
0
0
0
0
3.43658e-06
0.000361904
0
0.000270737
0.000122257
0
0
0
0
0
0
1.27689e-06
3.54099e-07
0
0
0
0
8.67626e-07
4.96767e-06
0.000912939
0.000337275
5.58695e-05
0
0
2.06916e-05
0
0
1.82236e-05
6.47278e-05
5.81948e-05
1.21308e-05
0
0
0
0
0
0
0.00162168
0
4.41471e-05
0
0
0
0
0
5.91885e-05
0.000168662
5.52469e-05
0
0
0
0
0
0
0
0.00304339
0
0
0
0
0
0
0
0.000180934
0.0002049
9.81338e-05
3.62757e-05
1.89774e-05
3.53325e-05
7.34832e-05
8.0867e-05
4.29332e-05
5.54263e-05
0.0056806
0
0
0
0
0
0.000291779
5.94063e-05
6.72493e-05
0.000100011
0.000110386
0.000103952
8.26793e-05
7.30988e-05
0.000118389
0.000116209
0.00012942
0.000203253
0.00833119
0
0
0
9.68286e-05
9.1201e-05
0.000344536
0.000193241
0.000102135
0.000163738
0.000194244
0.000110088
6.29064e-05
6.46506e-05
9.35553e-05
9.17547e-05
0.000103758
0.000147562
0.00987203
0
0
9.42559e-05
9.76848e-05
6.07158e-05
0.000276345
0.000189722
0.000172501
0.000139565
0.000105038
0.000122485
4.04443e-05
3.98524e-05
7.72361e-05
7.94975e-05
8.95191e-05
0.000119139
0.0100147
0
0
0.000581563
0.000213807
0.000109578
0.000233073
0.000170521
0.000169606
0.00014918
0.00018322
0.000216266
0.000130706
5.28356e-05
4.39372e-05
3.2001e-05
5.01374e-05
6.95452e-05
0.0104583
0
0
0.000887011
0.000390426
0.000325808
0.000290049
0.000147906
0.000131684
0.000119312
0.000240352
0.000269005
0.000184319
0.000124326
9.1737e-05
7.82e-05
8.19652e-05
6.5573e-05
0.0116595
0
0
4.58906e-05
0.000165463
0.000317561
0.000252622
0.00021913
0.000233486
0.000104106
0.000250914
0.000280078
0.000190596
0.00015336
0.000145321
0.00012017
9.77665e-05