/*--------------------------------*- C++ -*----------------------------------*\
| =========                 |                                                 |
| \\      /  F ield         | OpenFOAM: The Open Source CFD Toolbox           |
|  \\    /   O peration     | Version:  2112                                  |
|   \\  /    A nd           | Website:  www.openfoam.com                      |
|    \\/     M anipulation  |                                                 |
\*---------------------------------------------------------------------------*/
FoamFile
{
    version     2.0;
    format      ascii;
    arch        "LSB;label=32;scalar=64";
    class       volScalarField;
    location    "0.47";
    object      pPrime2Mean;
}
// * * * * * * * * * * * * * * * * * * * * * * * * * * * * * * * * * * * * * //

dimensions      [0 4 -4 0 0 0 0];

internalField   nonuniform List<scalar> 
122250
(
74695.2
41726.3
22459.9
19256.7
13266.8
9385.7
7823.3
6912.55
6582.25
6247.37
6028.61
5823.24
5671.18
5562.75
5460.17
5340.34
5189.99
5043.96
67880.1
41392.6
22208.2
19313.9
13241.9
9391.42
7838.79
6911.3
6580.84
6241.38
6023.3
5817.4
5665.6
5558.58
5459.93
5342.97
5198.46
5063.61
62169.5
35936.2
22570.2
19564.7
13545.9
9568.51
7889.97
6913.2
6560.75
6227.57
6002.52
5802.07
5652.38
5543.12
5445.34
5338.95
5213.26
5089.26
61305.4
30291.8
24550.5
20564.9
14050.5
9882.66
7992.32
6927.2
6549.46
6222.54
5992.19
5793.65
5649.71
5537.25
5432.82
5333.64
5225.23
5114.24
61928.1
26621.9
28157.3
22155.2
14816.4
10275.1
8132
6951.73
6551.2
6222.24
5987.98
5786.94
5647.34
5532.93
5419.31
5320.26
5226.52
5130.64
62177.9
25645.1
32353.2
24433.9
15610.4
10729.4
8298.3
7003.88
6565.9
6228.87
5988.27
5786.49
5644.92
5525.28
5403.18
5303.67
5221.69
5140.41
62067.5
26117.5
35727.9
26695.5
16290.9
11226.3
8471.83
7098.08
6608.95
6260.39
6001.17
5800.23
5651.9
5526.94
5400.77
5299.78
5222.34
5153.25
61880.4
26718.3
37289.2
28193.7
16823.8
11712.4
8640.21
7238.36
6698.38
6332.04
6040.05
5822.5
5665.1
5534.85
5407.56
5301.39
5223.18
5165.64
61622.3
26936.4
36434.6
28803
17131.3
12094.8
8857.09
7429.66
6827.88
6434.05
6102.13
5855.68
5690.69
5559.06
5433.67
5319.02
5230.25
5175.92
61711.7
26284.8
33923
27603.1
16903.5
12142.3
9034.59
7584.3
6941.51
6512.15
6163.07
5898.24
5729.9
5593.32
5466.76
5354.94
5257.08
5197.08
62210
25712
30775.5
24542.2
16134.8
11715.8
9086.83
7667.85
7003.59
6567.26
6232.36
5956
5776.84
5638.54
5520.66
5414.94
5313.14
5238.22
62458.3
25122.2
27743.8
20103.3
14857.8
10921.8
8926.45
7644.3
7009.99
6586.81
6272.97
6008.95
5812.32
5675.65
5571.1
5473.63
5373.88
5288.99
62075.4
24567.2
24983.4
15115.9
13096.5
9947.57
8538.69
7465.45
6952.88
6574.67
6284.16
6030.47
5829.14
5693.41
5597
5510.09
5421.12
5338.57
61653.9
24196.3
22906.1
11033
10973.9
8734.23
7969.39
7232.34
6866.4
6532.28
6255.16
6019.9
5845.18
5714.96
5617.41
5538.17
5461.42
5378.9
62398.1
24150.6
21805.7
9538.33
9149.03
7784.36
7415.88
6954.72
6707.37
6417.7
6172.44
5970.29
5831.7
5728.4
5640.67
5553.58
5465.28
5381.06
62097.5
24064.7
21820.8
9471.34
8127.98
7332.1
6924.1
6603.8
6407.06
6198.22
6027.51
5880.49
5769.41
5683.04
5616.97
5543.43
5454.31
5363.65
64474.1
26289.8
22465.6
9663.37
7736.49
7075.78
6587.91
6347.3
6173.07
6016.98
5901.3
5787.79
5695.16
5619.06
5544.93
5471.12
5396.84
5323.71
67389.5
27103.2
21449.8
9737.33
7386.65
6978.04
6524.45
6297.17
6128.93
5982.27
5864.59
5763.28
5669.22
5576.18
5490.33
5416.24
5351.26
5298.45
66597.5
28239.5
22437.7
9089.87
7174.79
6726.83
6404.83
6246.75
6115.33
5987.33
5878.78
5762.23
5655.92
5573.54
5506.38
5450.03
5398.91
5346.43
56436.2
20946.6
17687.7
7717.19
6960.12
6382.35
6265.4
6114.92
6092.19
5996.94
5899.99
5793.74
5698.69
5613.18
5533.17
5449.45
5381.2
5331.25
50876.1
18128.6
14811
7295.17
7191.11
6416.96
6362.95
6167.36
6146.11
6040.84
5946.5
5835.08
5748.46
5663.95
5586.32
5509.57
5436.1
5370.25
49863.5
17561.1
14808
7763.42
7918.8
6799.35
6615.84
6279.34
6165.52
6010.36
5933.92
5838.56
5754.14
5674.32
5596.66
5519.73
5450.7
5386.94
47968.2
18663.4
18030.1
9900.83
9098.83
7318.93
6810.49
6301.1
6124.77
5949.37
5885.99
5796.57
5717.54
5640.43
5576.17
5516.11
5463.51
5411.45
47294.4
19752.6
22173.1
12737.7
9523.85
7562.77
6825.28
6233.48
6077.01
5915.22
5869.19
5779.18
5706.27
5642.16
5586.43
5526.57
5470.13
5421.81
46916
20643.6
23852.6
13302.7
9224.38
7405.93
6723.61
6159.38
6062.97
5910.97
5870.4
5783.18
5721.34
5659.48
5595.42
5531.24
5473.36
5426.58
47461.8
21631.6
23007.9
12463.4
9051.68
7231.27
6684.67
6163.71
6089.18
5918.18
5876.31
5801.39
5744.2
5674.8
5598.34
5525.32
5466.05
5423.58
48248.4
24058.9
20334.9
11507.6
8837.85
7143.77
6732.82
6220.06
6136.83
5937.08
5897.81
5823.04
5762.44
5688.78
5607.37
5525.17
5458.43
5417.75
49063.2
29796.1
17270.7
11032.6
8808.78
7081.26
6735.17
6235.99
6153.8
5941.35
5904.73
5831.7
5767.91
5688.14
5606.78
5530.48
5465.96
5418.55
51323.6
39067.8
16618.5
11448.1
8831.86
7093.24
6758.62
6242.83
6154.41
5936.24
5897.81
5823.89
5771.06
5693.57
5607.4
5529.3
5462.28
5403.87
54546.3
42529.6
17675.5
11511.3
8951.72
7098.95
6725.61
6199.41
6117.62
5913.06
5872.82
5783.71
5730.82
5661.88
5589.4
5516.72
5448.61
5391.09
74831.4
42789.2
21860.6
19202.5
13338.2
9321.91
7775.66
6911.39
6580.52
6258.19
6044
5847.74
5703.85
5586.31
5464.66
5327.1
5180.77
5052.06
67884.6
42567.4
21433.4
19158.5
13301.2
9320.71
7779.11
6890.9
6576.86
6257.22
6040.91
5839.09
5695.41
5585.1
5468.84
5333.31
5185.49
5056.59
61968.2
37137.7
21950.2
19387.2
13579.4
9486.14
7815.54
6870.05
6547.78
6233.16
6014.99
5811.13
5669.89
5568.67
5460.62
5329.27
5189.74
5068.68
61036.8
31402.3
24403.8
20456.1
14045.5
9787.61
7912.9
6861.99
6526.48
6217.05
5990.44
5787.26
5649.39
5552.05
5452.08
5329.29
5203.57
5095.54
61824.9
27504.7
28023.9
21940.8
14761.3
10204
8060.93
6894.3
6529.92
6221.43
5982.84
5770.87
5628.68
5529.16
5429.96
5318.86
5212.72
5118.85
62250.3
25976.7
32171.4
24046.6
15550.5
10731.4
8265.78
6977.49
6553.72
6235.68
5988.86
5775.81
5626.3
5520.27
5415.32
5309.52
5218.45
5139.93
62437.9
26263.8
35556.3
26148.2
16295.3
11285.6
8503.35
7110.36
6608.49
6267.42
6006.42
5797.3
5643.84
5527.38
5415.03
5309.97
5225.33
5158.02
62426.8
27029.9
36853.6
27685.6
16872.6
11799.7
8731.63
7276.12
6694.63
6320.17
6035.47
5815.21
5662.96
5543.64
5427.91
5322.17
5235.69
5171.63
62371.1
27298.2
36009.2
28465.9
17170.1
12206.2
8971.46
7459.23
6806.55
6390.46
6075.85
5836.06
5682.03
5563.42
5449.36
5342.69
5251.5
5186.69
62413.5
26655.4
33872.2
27835.8
17065.4
12284.3
9164.37
7627.56
6916.71
6458.47
6115.75
5863.25
5707.51
5589.24
5477.48
5370.67
5272.4
5202.7
62558.7
26127.6
30924.3
24932.6
16294.1
11820
9196.03
7710.7
6993.57
6527.19
6172.21
5909.23
5745.12
5635.37
5532.01
5424.2
5314.9
5228.71
62326.5
25199.3
27734.1
20423.9
14883.8
10969.9
8963.28
7672.69
7019.84
6565.9
6228.03
5968.39
5791.53
5684.08
5588.57
5483.47
5372.53
5274.62
61940.6
24839.9
24944.1
15496.3
13062.7
9930.11
8552.12
7520.95
6997.19
6575.92
6259.67
6002.76
5817.69
5708.76
5620.37
5520.02
5417.93
5327.47
62085.1
24203.8
22542.2
11283.7
10946.7
8762.71
8022.89
7297.63
6907.7
6537.08
6234.06
5985.33
5817.67
5711.08
5626.39
5538.07
5451.54
5370.93
62580.1
24796
21189.8
9662.87
9198.28
7835.5
7451.92
6975.2
6710.29
6408.4
6153.92
5935.76
5798.03
5706.76
5620.74
5534.5
5451.68
5375.4
62119.8
24921.7
21315.9
9552.49
8153.28
7351.66
6911.28
6614.37
6403.76
6204.7
6031.4
5871.55
5759.27
5671.89
5594.43
5523.59
5449.5
5368.24
65701.7
26765.3
22666.1
9835.34
7839.86
7173.1
6612.9
6361.12
6175.05
6022.11
5901.08
5788.34
5699.22
5626.42
5554.26
5484.21
5411.4
5332.36
67474.5
27705.9
21451.8
9698.64
7407.24
6958.7
6535.17
6316.6
6141.51
5997.04
5871.88
5764.71
5677.44
5588.85
5505.28
5434.13
5369.61
5312.35
65789.5
29594.5
21728.4
9139.57
7163.21
6679.66
6395.52
6240.5
6116.85
5984.11
5869.65
5755.37
5656.36
5582.9
5519.5
5457.38
5400.62
5348.03
54051.7
20981.3
17808.4
7687.53
6949.8
6375.94
6285.48
6125.76
6099.51
5998.96
5902.54
5796.84
5703.15
5614.02
5525.76
5446.73
5380.23
5328.64
49205.5
17878.5
14641.5
7160.3
7211.42
6409.78
6395.74
6183.18
6149.38
6051.12
5954.71
5841.78
5749.33
5663.52
5584.07
5506.49
5430.3
5362.75
47810.2
17850.4
14237.8
7754.97
8003.86
6763.2
6611.03
6279.86
6185.38
6038.47
5956.74
5850.53
5759.76
5672.59
5587.98
5505.91
5439.9
5382.08
47743
18922.6
17815.9
10117.2
9110.41
7274.29
6783.2
6279.66
6133.19
5977.53
5915.97
5814.92
5727.36
5648.49
5578.74
5510.3
5452.18
5402.25
47516.5
20131.6
22019.9
13045
9606.99
7525.08
6774.22
6208.65
6079.98
5921.8
5872.63
5782.31
5711.66
5645.02
5586.03
5524.68
5467.3
5416.42
47349.3
21510.6
23619.4
13749
9297.69
7376.96
6698.49
6135.42
6047.01
5896.96
5857.75
5773.53
5718.79
5656.74
5595.13
5534.18
5475.44
5426.27
47760
22632.2
22894.9
12830.6
9072.71
7233.1
6663.19
6137.74
6066.8
5901.42
5857.51
5780.98
5732.37
5664.03
5592.05
5524.01
5467.78
5430
48562.2
25259.3
20343
11954.5
8852.19
7120.31
6696.45
6187.72
6119.31
5922.63
5873.89
5793.41
5745.37
5669.87
5587.93
5509.7
5455.25
5428.3
49120.1
31229.2
17673.1
11532.8
8791.11
7023.44
6727
6217.75
6144.5
5929.84
5888.24
5807.93
5754.06
5672.66
5586.6
5511.52
5461.8
5432.71
51330.6
39970.9
17337.9
12134.6
8893.79
7014.86
6741.2
6240.4
6151.43
5931.94
5895.2
5807.09
5752.87
5666.5
5575.21
5502.85
5453.45
5413.16
54861.4
43219.8
18660.6
12208.1
8916.32
6987.43
6709.78
6198.78
6115.49
5899.98
5862.93
5771.1
5712.06
5635.05
5557.88
5487.66
5432.61
5394.43
74029.1
39857.3
20982.4
18508.7
13252.9
9389.85
7768.4
6910.72
6582.87
6255.07
6038
5842.21
5690.87
5569.98
5448.94
5322.76
5194.34
5078.18
66919.6
40334.2
20460.7
18518
13194.8
9385.45
7775.26
6895.65
6571.48
6251.89
6034.83
5833.08
5683.89
5571.2
5454.02
5323.95
5192.15
5075.83
61284.1
36678.8
20902.8
18920.8
13489.5
9483.72
7807.96
6881.22
6551.84
6244.13
6022.16
5810.59
5663.58
5563.69
5454.45
5322.69
5191.59
5078.38
60479.4
32220.5
23139.3
19946.1
13935.1
9743.12
7916.07
6895.98
6548.78
6246.5
6019.29
5802.5
5659.66
5565.85
5462.98
5333.73
5205.7
5100.04
61588.2
28325
26557.8
21323.8
14567.5
10140.7
8089.18
6948.19
6565.23
6259.08
6025.57
5802.92
5653.99
5558.13
5457.97
5335.84
5219.16
5122.57
62217.3
26153.8
30614.8
23206.7
15348
10650.3
8308.45
7036.15
6595.36
6279.05
6044.19
5820.49
5659.87
5553.38
5452.53
5338.06
5233.18
5147.42
62219.5
25852.6
33928.1
25339.7
16187.6
11284
8589.64
7164.58
6643.29
6309.86
6063.49
5839.16
5673.7
5558.58
5454.27
5345.85
5244.66
5166.96
62262.6
26196.4
35496.4
26941.5
16857.4
11867.8
8878.8
7310.2
6703.81
6337.51
6066.77
5841.09
5682.48
5571.33
5464.05
5358.65
5260.06
5185.12
62608.3
26508.7
35292
27896
17215.5
12320
9141.58
7471.24
6779.71
6370.13
6072.32
5844.16
5692.23
5584.93
5478.01
5374.7
5279.08
5204.12
63235.6
26366
33690.7
27353
17177.1
12417.3
9326.13
7632.25
6870.43
6416.07
6095.35
5865.68
5713.63
5607.08
5505.26
5403.87
5305.85
5227.07
63741.1
25851.4
31042.6
24516
16368.7
11916.6
9304.77
7736.32
6942.8
6466.84
6135.8
5897.28
5746.51
5654.69
5562.51
5458.06
5350.28
5258.19
63558.5
25252.6
27993.8
20167
14864.6
11011.6
9066.72
7727
6986.03
6506.36
6180.23
5941.24
5791.02
5700.44
5612.87
5509.17
5395.38
5292.73
62560.1
25077.3
24843.6
15413
13063
10010.6
8690.79
7618.41
6994.92
6526.72
6209.78
5976.32
5825.17
5727.63
5631.97
5530.15
5424.34
5329.91
62009.7
24335.9
22276.8
11425.3
10966.4
8846.37
8134.32
7393.14
6934.46
6511.43
6206.65
5979.81
5825.78
5717.18
5621.54
5530.73
5440.14
5358.55
62677.6
24763.7
21066.2
9703.99
9216.97
7851.23
7439.85
6981.27
6698.05
6395.68
6151.08
5949.25
5803.78
5692.01
5594.8
5508.06
5431.95
5365.89
63316
25238.2
21198.2
9332.19
8177.47
7342.32
6893
6613.77
6408.91
6220.44
6054.36
5893.79
5765.96
5661.7
5573.71
5496.65
5430.89
5366.58
66272.7
27068.7
22798.6
9728
7756.61
7159.08
6605.99
6363.74
6174.31
6025.23
5915.13
5807.63
5718
5635.62
5560.24
5491.21
5427.39
5349.74
66550.3
28905.7
21918
9755.72
7393.35
6999.68
6552.84
6343.7
6165.3
6013.82
5879.3
5763.88
5673.48
5590.21
5516.29
5449.63
5385
5324.45
65167.1
28192.8
22627.6
9168.66
7219.82
6686.65
6417.32
6259.42
6123.61
5981.56
5860.69
5749.53
5656.79
5588.83
5533.85
5469.29
5404.91
5348.44
54791.7
20532.3
18491.2
7645.59
6891.29
6356.57
6290.02
6146.39
6115.93
6016.37
5918.34
5808.84
5703.39
5605.33
5521.54
5450.18
5389.49
5341.32
48595.5
17039
14559.9
7302.86
7211.12
6469.79
6428.32
6191.99
6145.18
6043.61
5953.69
5840.88
5744.49
5657.37
5578.81
5503.76
5424.85
5357.61
46874.9
17376.1
13680.5
7698.94
7954.59
6789.51
6641.31
6291.59
6179.57
6029.13
5950.86
5846.72
5745.41
5648.38
5566.41
5496.98
5435.78
5381.81
47763.1
18440.3
17625.2
10175.1
8999.47
7267.17
6780.1
6278.31
6143.93
5992.09
5924.15
5814.2
5719.56
5640.74
5576.27
5513.03
5451.95
5397.69
47770.1
19772.7
21753.7
13294.4
9526.95
7489.73
6754.44
6203.44
6087.8
5935.46
5880.51
5782.45
5709.96
5641.29
5582.46
5523.41
5467.5
5412.41
47530
21310.9
23151.1
13768.1
9280.44
7303.1
6692.83
6146.53
6051.07
5898.65
5858.32
5769.88
5721.03
5659.91
5598.33
5541.16
5487.07
5435.84
48166.7
22691.6
22319.1
12759.5
9053.18
7134.64
6658.48
6128.15
6066.39
5898.75
5854.13
5774.74
5731.26
5663.51
5592.52
5531.3
5481.74
5441.57
48831.4
24905.9
19483.5
11724.6
8826.82
7044.14
6665.45
6158.86
6111.39
5913.83
5868.69
5784.06
5735.04
5662.83
5585.23
5514.1
5466.78
5441.54
49478.2
30413.6
16910.4
11373.9
8876.64
7029.24
6687.16
6192.86
6148.56
5925.71
5880.35
5792.26
5733.49
5654.78
5575.18
5508.48
5468.43
5443.16
51828.7
38607
16888.8
11997.1
9012.93
7133.68
6720.84
6223.74
6168.04
5937.23
5891.79
5796.56
5731.56
5644.7
5563.04
5504.1
5468.24
5434.12
54998.4
41138.2
18369
12234.7
9073.93
7105.26
6686.24
6194.54
6132.22
5905.56
5862.86
5767.29
5698.99
5612.15
5536.7
5482.13
5447.21
5416.15
73341.5
38254
21277.2
18213.8
13123.5
9428.2
7792.53
6910.01
6596.16
6247.8
6026.71
5830.44
5679
5562.73
5456.12
5346.2
5215.75
5080.21
66108
38975.1
20615.1
18360.5
13056.2
9443.08
7812.54
6909.02
6594.46
6253.65
6036.16
5838.93
5687.37
5568.91
5459.62
5349.82
5221.41
5094.57
60480.1
35966.5
20866.2
18843.5
13364
9553.84
7857.88
6910.21
6586.91
6254.58
6030.08
5829.4
5681.95
5565.67
5460.14
5353.49
5230.66
5106.23
59659.9
32046.2
22846.4
19935.5
13811.4
9776.17
7966.7
6948.32
6606.1
6275.8
6038.84
5828.3
5683.14
5573
5473.26
5365.9
5245.9
5127.1
60627.8
28477.9
26062.3
21372.6
14507.4
10089.1
8129.69
7017.47
6645.08
6306.27
6053.67
5828.36
5675.55
5569.04
5476.82
5373.43
5257.58
5147.22
61199.1
26056.9
29791.3
23267.1
15339.5
10556.3
8347.04
7105.3
6676.49
6331.4
6071.78
5836.65
5671.19
5565.05
5477.83
5377.87
5269.86
5169.01
61479.1
25385.5
32963.5
25475
16223.8
11187.5
8625.41
7208.52
6692.86
6336.89
6079.3
5842.19
5671.27
5559.82
5473.42
5377.66
5285.55
5192.21
61752.8
25796.3
34699.8
27167.4
16898.1
11820.1
8907.84
7314.77
6710.75
6330.21
6070.44
5841.01
5668.91
5559.38
5471.52
5380
5296.4
5216.59
62237.1
26398.5
34787.3
27999.9
17235.9
12291
9164.58
7440.92
6752.26
6343.08
6066.33
5840.88
5680.03
5573.91
5488.46
5402.15
5317.26
5238.96
63896.1
26726.4
33740.5
27010.2
16958.5
12385.6
9361.11
7599.88
6835.31
6394.47
6089.89
5862.37
5715.52
5612.17
5527.49
5443.43
5355.47
5270.03
64879.7
25965
30951.2
24118
16102.9
11945.7
9365.38
7734.12
6934.04
6462.67
6143.94
5907.16
5757.44
5666.27
5581.76
5493.03
5398.99
5306.18
64934.6
25048.2
27746.8
19775
14645.8
11019.8
9079.31
7734.3
6997.12
6508.17
6184.29
5953.47
5803.94
5702.6
5608.88
5514.75
5424.15
5338
64824.2
24885.3
25189.6
15254.2
12860
9957.78
8685.31
7629.14
7002.35
6520.16
6199.47
5974.22
5826.99
5720.88
5619.08
5519.93
5433.08
5359.33
63905
24276.7
22868.7
11489.6
10904.8
8857.51
8171.87
7422.6
6947.35
6500.8
6195.57
5979.65
5827.09
5711.66
5608.14
5513.29
5432.75
5365.29
63798.5
24421
21261.1
9813.42
9145.5
7816.41
7455.7
7007.3
6703.49
6385
6143.5
5954.12
5809.9
5694.33
5590.28
5496.15
5421.83
5360.2
64171.8
25513.8
21040.2
9228
8098.44
7287.23
6907.67
6612.47
6414.04
6220.2
6047.5
5892.9
5768.91
5667.6
5580.14
5493.58
5421.6
5362.59
67238.4
27363.2
22191.2
9596.57
7755.96
7198.6
6630.6
6369.47
6178.63
6030.2
5922.17
5827.23
5741
5648.69
5565.5
5498.11
5441.1
5365.84
67417.4
30151.4
22036.5
9810.16
7459.03
6962.5
6577.09
6353.9
6166.47
6012.61
5879.23
5760.57
5666.29
5588.57
5524.02
5459.01
5394.46
5326.72
65123.6
27694.7
23075.7
9366.11
7260.16
6734.34
6388.85
6235.56
6116.58
5982.38
5863.73
5754.85
5665.23
5594.87
5538.32
5476.04
5410.48
5350.14
55050.2
19791.8
19327.6
7729.55
6885.13
6382.47
6314.02
6170.17
6124.97
6028.22
5922.16
5806.7
5698.62
5597.08
5514.96
5447.08
5394.35
5349.74
47461.8
16798.6
14635
7359.88
7173.88
6479.94
6459.42
6244.67
6171.66
6046.06
5943.34
5830.88
5737.81
5653.21
5567.41
5482.56
5404.49
5342.41
45926.8
16863.8
13462.3
7740.39
7885.88
6760.49
6620.32
6309.28
6210.43
6038.77
5937.75
5830.63
5733.01
5641.52
5562.46
5496.19
5435.48
5381.74
45967.5
18207.1
17716.6
10236.2
8891.37
7186.18
6743.08
6280.2
6177.1
6013.89
5927.01
5812.78
5722.18
5646.65
5583.61
5521.6
5456.59
5395.07
46500.3
19430.6
21827.4
13220.3
9465.63
7433.15
6721.95
6211.85
6103.43
5943.59
5883.14
5788.43
5718.38
5650.97
5588.94
5528.32
5470.27
5413.21
46828.3
20923.4
22965.4
13630
9222.03
7267.5
6652.56
6150.98
6075.48
5913.63
5869.74
5783.58
5730.17
5666.66
5600.58
5539.76
5488.77
5440.17
48117.8
22586.3
22359.7
12768.1
9098.74
7097.54
6623.9
6146.95
6107.64
5929.77
5876.42
5787.19
5734.39
5665.07
5595.54
5537.5
5493.85
5455.32
49483.1
24982.4
19772.2
11878.2
8940.12
7094.13
6676.17
6177.69
6143.5
5952.26
5903.56
5805.88
5740.12
5660.97
5586.53
5526.62
5487.82
5457.72
50025.1
30674.2
17263
11442.8
9023.09
7142.45
6702.13
6194.54
6156.55
5948.45
5899.78
5803.51
5732.79
5652
5574.95
5517.9
5484.41
5452.8
52052.3
39361
17496.2
11955
9064.56
7195.06
6719.81
6210.69
6165.18
5937.78
5888.67
5799.42
5732.44
5650.69
5571.39
5515.35
5479.7
5441.23
54784.4
42059.5
19243
12157.3
9149.05
7148.53
6674.02
6158.18
6117.63
5891.31
5849.66
5762.1
5697.58
5616.42
5544.93
5493.93
5459
5420.03
72910.8
38665.8
22175.9
17771
13211.8
9347.5
7748.23
6859.57
6566.32
6227.3
6012.03
5827.28
5679.92
5558.14
5454.83
5349.81
5224.8
5084.09
65639.1
39120.8
21174.5
17902.9
13138.3
9366.07
7781.05
6852.19
6566.49
6233.88
6024.5
5836.21
5686.79
5566.59
5466.75
5361.35
5236.09
5099.73
60038.9
35150.9
21263.4
18496.3
13448.9
9514.21
7858.51
6856.8
6549.55
6225.09
6016.84
5828.65
5685.8
5570.8
5471.58
5366.63
5240.58
5112.32
59405.7
30720.1
23160.7
19785.2
13964.2
9782.72
7985.23
6907.32
6563
6243.82
6025.41
5834.91
5697.11
5584.7
5484.01
5378.94
5255.56
5131
60588.5
27408.3
26400.1
21460.6
14729.2
10148.8
8153.58
6967.95
6586.63
6273.09
6042.52
5843.72
5705.66
5596.77
5496.57
5391.63
5269.64
5146.94
61384.8
25646.2
29859.4
23486.9
15596.7
10636.1
8365.59
7058.79
6616.99
6294.21
6054.51
5847.9
5704.43
5596.13
5496.82
5396.19
5282.51
5167.17
61915.9
25123.9
32843
25736.8
16461.2
11223.8
8625.42
7188.47
6652.58
6305.21
6061.71
5848.72
5695.61
5582.07
5489.7
5399.82
5298.19
5193.84
62305.2
25543.9
34595.8
27581.8
17051
11800
8893.04
7329.17
6698.93
6318.46
6068.46
5856.94
5694.88
5577.53
5491.7
5408
5313.06
5219.7
62591.4
26216.5
34710.9
28476.4
17253.2
12290.7
9163.28
7473.92
6763.54
6348
6079.09
5869.31
5708.32
5591.72
5506.96
5428.61
5336.21
5246.26
63708
26346.2
33364.1
27255.6
16958.9
12446.5
9370.73
7639.72
6863.16
6406.13
6107.61
5894.21
5747.42
5629.34
5533.42
5455.96
5371.57
5284.39
64682.5
25626
30417.2
24213.7
16019.6
11963.9
9372.63
7748.03
6967.21
6480.06
6160.49
5934.86
5787.33
5672.1
5569.74
5488.07
5411.68
5329.76
64887.3
24805.9
27557.6
20074.2
14589.7
11018.8
9099.15
7709.86
6989.94
6511.53
6194.57
5974.11
5824.88
5715.32
5609.7
5519.24
5449.37
5375.42
64698
24845.9
25571.3
15682.2
12877.2
9967.84
8705.33
7607.58
6979.44
6519.17
6220.76
5996.39
5842.21
5732.18
5626.69
5537.02
5466.65
5397.2
63530.5
24737.5
23442.9
11647.5
10914.7
8860.21
8173.53
7417.89
6931.84
6502.71
6219.97
6002.85
5839.31
5714.87
5612.09
5535.61
5468.28
5398.94
64062.5
24965.5
22067.8
9853.35
9227.02
7883.4
7510.39
7032.69
6694.48
6376.42
6148.95
5964.76
5816.94
5696.42
5591.3
5507.67
5439.69
5377.09
64607.7
25833.2
21673.4
9358.71
8216.41
7331.2
6930.95
6600.08
6386.12
6190.91
6031.23
5893.26
5769.93
5665.22
5580.82
5506.54
5432.24
5364.6
68009
27197.3
22562
9730.55
7774.47
7157.07
6626.48
6358.77
6177.59
6021.73
5905.18
5814.76
5732.27
5642.6
5564.35
5500.16
5440.36
5368.19
67025.5
29711.8
21652.3
9957.16
7384.35
6966.97
6545.74
6340.31
6163.45
6008.51
5885.06
5763.98
5661.77
5581.96
5522.01
5457.58
5385.49
5312.17
66059.1
27721.3
22520
9311.49
7133.57
6694.73
6401.61
6247.84
6116.03
5988.76
5866.51
5752
5662.74
5588.5
5529.21
5469.76
5407.05
5347.7
55868.3
19716.5
19035
7812.66
6854.84
6394.89
6339.19
6181.74
6131.26
6034.1
5915.74
5788.72
5678.47
5585.54
5512.75
5450.21
5395.94
5352.32
48863.9
16796.6
14847.5
7287.68
7188.28
6490.53
6455.62
6238.94
6169.56
6050.03
5941.83
5819.31
5718.98
5634.26
5553.12
5474.28
5400.93
5341.91
46306.5
16867.3
13648.1
8001.81
7865.43
6758.23
6618.5
6300.37
6186.8
6026.19
5924.63
5819.32
5722.23
5632.67
5558.97
5495.81
5437.7
5383.32
46411.2
18493.5
17982.7
10338.5
8848.52
7206.7
6767.42
6309.1
6172.52
5991.49
5906.91
5805.62
5723.01
5650.59
5581.85
5518.1
5459.62
5399.93
46521.8
19322.6
22248.6
13161.2
9392.42
7401.38
6761.57
6244.49
6101.16
5920.7
5869.67
5793.5
5726.88
5655.78
5583.31
5521.04
5471.05
5420.49
46778.2
20403.6
23362
13651.4
9237.72
7301.05
6711.72
6184.01
6080.63
5903.83
5861.94
5783.8
5725.04
5657.39
5589.45
5530.7
5484.3
5441.01
48056
22426.9
22592.7
12922.2
9196.14
7150.02
6685.84
6182.83
6099.57
5919.57
5869.41
5784.39
5727.21
5656.67
5590.52
5538.81
5500.73
5461.26
49320
24532.3
20345.7
12005.4
9041.15
7167.02
6711.47
6198.04
6138.08
5950.72
5896.33
5798.96
5730.89
5648.5
5583.53
5540.65
5511.17
5472.05
49902.5
29897.8
17603.4
11547.5
9022.73
7171.4
6721.95
6194.02
6141.43
5946.38
5900.79
5808.32
5733.29
5640.83
5573.75
5535.48
5508.35
5464.96
52191.1
39742.3
17539.8
12133.8
9088.31
7220.08
6739.61
6194.25
6147.44
5944.57
5899.09
5804.48
5726.11
5634.46
5572.73
5532.24
5490.75
5441.41
55184.8
44703.1
19365.7
12276.9
9156.49
7186.45
6681.26
6140.68
6100.93
5896.72
5854.11
5761.73
5689.14
5606.61
5549.37
5510.84
5469.53
5415.8
73181.4
38409
21703.7
18100.4
13234.3
9486.88
7831.42
6885.59
6564.34
6228.99
6021.9
5841.43
5692.29
5552.67
5438.38
5346.12
5241.51
5110.97
65840.1
38925.3
20551.4
18109.9
13081.9
9461.2
7856.43
6872.58
6557.58
6228.6
6026.41
5842.85
5692.74
5559.53
5452.79
5360.03
5250.21
5118.67
60194.3
34880.9
20425.2
18415.1
13400.2
9588.27
7908.69
6866.12
6534.5
6210.12
6006.54
5829.14
5687.02
5568.33
5468.92
5368.42
5245.95
5116.27
59536.6
30463.3
22363.6
19470.2
13883.8
9837.59
7989.73
6885.08
6535.74
6223.26
6009.52
5830.78
5692.4
5581.92
5491.32
5386.19
5255.3
5126.73
60636
27142.2
25718.5
21152.9
14718.8
10298
8152.67
6934.54
6556.34
6256.72
6029.74
5840.54
5700.93
5592.4
5501.47
5394.22
5266.78
5142.5
61360
25338.3
29166.7
23350.8
15664.3
10920.7
8400.14
7028.48
6581.12
6275.71
6039.41
5844.06
5706.57
5602.31
5506.99
5398.48
5279.6
5162.98
61651
24922.2
32237.3
25853.4
16672.9
11633.4
8734.36
7174.32
6619.45
6287.23
6043.44
5851.33
5711.97
5606.19
5510.6
5410.77
5299.83
5189.31
61624.7
25491.8
33984.4
27894.6
17344.7
12220.3
9077.23
7354.29
6675.7
6300.61
6049.69
5861.41
5717.12
5606.57
5518.78
5431.56
5327.5
5225.39
61770.8
26322.4
34123.4
28837.1
17511.5
12597.5
9331.6
7511.78
6751.76
6328.94
6063.28
5876.18
5735.19
5621.72
5536.66
5456.81
5360.27
5263.7
62463.9
26563.1
32360.3
27513.6
17146.5
12548.1
9425.6
7631.41
6849.91
6388.74
6099.75
5910.62
5778.53
5660.67
5560.64
5478.59
5389.81
5301.72
63322.7
26016
29249.5
24365.8
16187.2
11895
9290.45
7671.49
6935.05
6465.92
6158
5962.44
5823.6
5696.1
5587.01
5498.44
5415.03
5341.98
63233
25063.3
26703
20172.2
14780.7
10977.5
8994.76
7629.51
6965.65
6508.82
6201.12
6000.69
5857.19
5735.9
5620.77
5522.19
5448.35
5387.43
62591.4
25205.1
24801.1
15754.4
12951.2
9947.67
8634.33
7570.81
6993.35
6536.58
6236.89
6023.21
5868.39
5756.23
5649.73
5554.37
5483.27
5419.46
61783
25153.3
23273.5
11696
10794
8751.64
8112.9
7397.75
6952.71
6521.1
6227.02
6011.93
5855.21
5741.44
5646.67
5567.1
5499.18
5430.01
62748.5
24928.4
22542.9
10047.3
9124.53
7814.35
7495.4
7019.97
6697.9
6379.77
6153.99
5971.61
5829.53
5715.1
5620.97
5541.01
5473.45
5410.27
63518.6
24609.3
21765.6
9741.14
8161.93
7312.86
6913.83
6580.53
6372.19
6192.11
6043.69
5911.91
5784.31
5671.37
5583.2
5507.74
5439.72
5377.03
66083.4
25819.3
22412.8
9805.76
7757.17
7105.43
6627.76
6357.13
6184.29
6036.73
5911.25
5812.04
5718.83
5625.44
5545.55
5476.09
5414.63
5352.95
67255.7
26997.3
22368.8
9655.52
7357.36
6902.82
6517.22
6327.62
6154.5
6018.06
5884.97
5756.63
5649.4
5571.1
5509.59
5443.74
5374.09
5305.14
66016.3
27304.1
21881.4
9011.88
7109.22
6703.23
6392.49
6235.68
6103.53
5990.44
5869.05
5745.62
5651.29
5580.82
5516.74
5457.55
5401.56
5344.94
55279.8
20503.7
18771.2
7809.34
6882.92
6382.61
6328.73
6157.29
6110.8
6016.43
5896.7
5769.42
5664.05
5589.18
5528.13
5468.27
5410.86
5361.83
48905.4
17123.5
14995.7
7384.56
7160.52
6499.05
6451.25
6233.88
6152.97
6032.72
5931.82
5817.14
5719.77
5633.32
5557.03
5481.35
5409.11
5351.98
47138.2
17119.1
14599.4
8040.89
7859.27
6803.61
6644.37
6309.07
6166.41
6004.01
5900.91
5796.77
5706.97
5630.29
5564.66
5501.78
5441.46
5388.46
46417.4
18724
18903.1
10364.8
8924.12
7303.94
6817.83
6341.72
6176.8
5975.42
5874.93
5781.81
5711.95
5641.34
5575.15
5513.85
5461.23
5408.25
47014.7
19690.4
22871.2
13056.3
9469.49
7410.58
6802.45
6284.86
6118.14
5910.51
5850.94
5779.62
5715.35
5641.88
5570.07
5509.9
5466.37
5424.37
46781.1
20498.3
23575.7
13679.3
9383.72
7310.35
6754.41
6212.3
6079.34
5889.72
5842.25
5767.82
5710.23
5646.03
5583.43
5528.47
5480.4
5437.34
47704.8
22365.3
22979.8
12823.2
9260.2
7202.85
6690.39
6151.85
6065.14
5895.37
5851.19
5767.87
5713.69
5654.45
5598.9
5548.96
5500.51
5452.48
49043.2
24207.1
20856.3
11785.2
9058.22
7207.12
6711.53
6175.8
6100.96
5933.02
5885.29
5791.52
5728.27
5662.4
5611.83
5566.28
5517.38
5462.28
49759.7
29695
18210.6
11374.9
8971.33
7174.66
6716.58
6196.99
6130.27
5953.56
5906.39
5802.88
5727.88
5658.59
5607.27
5562.04
5513.25
5455.47
52289
39076.3
18004.9
12118
9078.16
7220.6
6737.52
6211.26
6155.02
5969.61
5913.15
5797.17
5718.6
5650.75
5600.53
5548.04
5488.73
5435.56
55518.1
42944.1
19217.3
12308.8
9131.69
7203.79
6685.28
6148.84
6096.96
5913.06
5864.31
5760.9
5696.63
5627.18
5572.99
5520.86
5465.98
5414.57
72846.2
37965.8
22014.3
19255.3
13091
9458.44
7880.55
6914.55
6574.13
6211.9
5999.23
5816.71
5669
5541.06
5428.47
5338.2
5229.97
5088.06
65570.7
38803.1
21305.6
19351.2
13044.2
9476.03
7901.1
6903.13
6568.5
6212.47
5996.34
5808.81
5661.45
5538.08
5431.02
5347.2
5239.48
5104.85
59847.2
35403.3
21251.2
19417.9
13412
9652.07
7956.98
6905.75
6567.79
6213.02
5985.92
5800.3
5656.75
5540.28
5443.01
5354.55
5240.11
5107.11
59288.8
31247.9
23020.5
20221.4
13851.7
9957.59
8051.5
6931.38
6580.32
6234.79
5995.61
5805.72
5660.84
5548.28
5459.77
5368.35
5247.21
5117.85
60645.7
27900.5
26195.3
21666
14621.9
10437.8
8220.6
6986.91
6595.22
6264.46
6012
5815.71
5672.13
5562.33
5473.54
5377.99
5257.09
5132.16
61695.8
25900.9
29827
23722.7
15553.2
11105.8
8477.35
7084.89
6621.83
6284.9
6021.43
5819.57
5684.12
5580.23
5487.12
5385.87
5268.84
5151.24
61663.6
25330.7
33067.2
26082.8
16637.6
11879.2
8816.53
7231.5
6652.86
6302.11
6033.02
5828.86
5689.71
5587.77
5496.63
5395.34
5285.67
5176.15
61340.3
25599.9
34839.4
27862.5
17422.8
12594.2
9179.38
7402.93
6705.74
6325.93
6054.74
5853.28
5704.42
5590.82
5503.57
5412.35
5309.01
5210.09
61555.9
26064.5
34780.6
28621.3
17770
13056.3
9467.88
7553.05
6772.94
6349.92
6073.05
5885.53
5742.03
5617.39
5523.11
5436.18
5341.61
5251.44
61824.8
26257.6
32699.1
27468.5
17485.1
12868.1
9452.4
7610.44
6839.41
6384.51
6094.95
5925.41
5796.37
5671.29
5563.93
5470.43
5381.34
5295.86
62345.5
25609.4
29196.2
24437.7
16419.9
12010.4
9206.24
7606.14
6893.93
6436.7
6138.52
5976.57
5848.07
5717.61
5599.7
5499.41
5413.31
5338.05
62144.3
24676.8
26307.7
20080.1
14787.8
10947
8886.13
7558.49
6931.88
6474.32
6168.78
5996.88
5868.6
5746.18
5622.24
5513.66
5435.62
5376.12
61731.6
24589.2
24221.7
15518.3
12877.8
9828.6
8516.17
7475.93
6953.59
6505.16
6202.84
6007.41
5867.14
5755.27
5641.22
5539.14
5470.83
5416.8
61253.5
24225.5
22570.1
11494.5
10734.2
8673.71
7992.47
7289.82
6900.73
6499
6213.95
6010.95
5860.35
5743.61
5642.51
5557.59
5495.61
5438.01
61651
24418
21884.4
9796.65
9077.7
7753
7420.94
6966.03
6676.63
6373.88
6155.57
5986.44
5839.15
5717.37
5625.83
5554.44
5493.77
5428.93
62781.1
24552.8
21164.5
9595.39
8043.57
7272.56
6885.05
6579.3
6384.34
6213.26
6060.45
5924.7
5794.57
5679.5
5586.04
5506.91
5438.34
5370.44
64532.7
25553.9
21726.6
9762.72
7820.74
7100.81
6626.22
6374.49
6204.72
6054.91
5927.11
5821.93
5720.73
5621.05
5533.27
5457.34
5390.35
5327.55
65049.2
25479.2
21822.9
9599.5
7496.17
6891.21
6538.17
6334.63
6144.36
6009.09
5878.17
5752.51
5645.87
5564.94
5498.42
5432.44
5364.41
5299.8
64513.2
26961.8
21138.5
8923.67
7098.19
6687.31
6425.3
6235.55
6103.54
5983.68
5864.02
5747.33
5646.83
5573.65
5509.65
5453.02
5400.92
5346.4
56071.2
21018.8
18188
7894.29
6958.65
6390.52
6306.4
6124.54
6082.6
5985.81
5870.01
5754.3
5660.31
5590.27
5531.71
5481.8
5425.12
5368.42
51503.7
17253
15091.5
7272.65
7137.72
6500.06
6442.13
6231.49
6137.09
6010.19
5909.24
5795.05
5701.14
5622.38
5550.03
5484.96
5424.42
5375.76
47487.1
17450.5
15399.9
7964.42
7880.23
6854.63
6663.4
6327.33
6162.57
5988.08
5883.12
5782.39
5697.51
5626.42
5565.57
5502.1
5442.25
5395.05
47131.2
19250
19455.2
10273.3
9100.9
7431.38
6879.31
6385.1
6174.99
5956.19
5855.49
5774.13
5714.17
5644.69
5577.73
5514.46
5461.23
5413.36
47566.2
20169.1
23022.5
13033.9
9639.85
7482.95
6824.7
6290.74
6114.63
5898.67
5833.28
5770.13
5716.11
5642.93
5572.7
5515.52
5467.23
5422.19
47287.9
21281.3
23654.9
13421.1
9445.29
7368
6742.82
6193.94
6063.67
5882.86
5841.15
5773.68
5716.36
5649.84
5586.85
5531.75
5476.59
5428.37
47957.3
22878.6
22953.9
12536.3
9310.54
7227.91
6663.28
6125.54
6038.46
5893.34
5871.71
5795.18
5733.35
5667.52
5612.57
5555.58