/*--------------------------------*- C++ -*----------------------------------*\
| =========                 |                                                 |
| \\      /  F ield         | OpenFOAM: The Open Source CFD Toolbox           |
|  \\    /   O peration     | Version:  2112                                  |
|   \\  /    A nd           | Website:  www.openfoam.com                      |
|    \\/     M anipulation  |                                                 |
\*---------------------------------------------------------------------------*/
FoamFile
{
    version     2.0;
    format      ascii;
    arch        "LSB;label=32;scalar=64";
    class       volScalarField;
    location    "0.18";
    object      p;
}
// * * * * * * * * * * * * * * * * * * * * * * * * * * * * * * * * * * * * * //

dimensions      [0 2 -2 0 0 0 0];

internalField   nonuniform List<scalar> 
12225
(
-1.50052
-3.07317
-3.81959
-4.021
-4.17036
-4.34732
-4.50611
-4.63971
-4.76069
-4.87641
-4.98836
-5.09715
-5.20416
-5.31106
-5.41942
-5.53036
-5.64516
-5.7601
-3.41131
-4.11562
-4.29803
-4.26164
-4.31055
-4.43047
-4.55651
-4.67068
-4.7789
-4.88574
-4.99137
-5.09549
-5.19883
-5.3027
-5.4082
-5.51705
-5.62929
-5.76483
-3.47552
-3.57244
-3.79603
-3.97317
-4.13626
-4.3058
-4.46307
-4.59938
-4.72237
-4.83903
-4.95138
-5.06004
-5.16623
-5.27152
-5.37733
-5.48539
-5.59755
-5.7212
-3.5094
-3.63596
-3.96798
-4.16971
-4.29025
-4.41552
-4.54388
-4.66086
-4.76895
-4.87364
-4.97636
-5.07709
-5.17647
-5.2756
-5.37556
-5.47763
-5.58292
-5.69334
-3.59384
-3.73131
-3.99998
-4.15661
-4.2567
-4.37537
-4.50418
-4.62391
-4.73444
-4.8408
-4.94464
-5.04601
-5.14542
-5.24388
-5.34234
-5.44173
-5.54275
-5.64602
-3.68034
-3.79301
-4.00312
-4.15453
-4.26596
-4.38744
-4.51424
-4.63175
-4.73993
-4.84353
-4.94442
-5.04273
-5.13889
-5.23372
-5.32797
-5.42223
-5.51686
-5.61174
-3.75756
-3.84598
-4.02007
-4.16926
-4.28343
-4.39815
-4.51665
-4.62884
-4.73341
-4.83373
-4.93143
-5.02664
-5.11959
-5.21083
-5.30088
-5.39
-5.47815
-5.56449
-3.82762
-3.89874
-4.04505
-4.18482
-4.29615
-4.40439
-4.51648
-4.62483
-4.72675
-4.82437
-4.91919
-5.0114
-5.1011
-5.18862
-5.27425
-5.35798
-5.4395
-5.51773
-3.89205
-3.95013
-4.07262
-4.20007
-4.30762
-4.41096
-4.51734
-4.62136
-4.7199
-4.81419
-4.90556
-4.99421
-5.08011
-5.16339
-5.24411
-5.32207
-5.39678
-5.46703
-3.95117
-3.9989
-4.10152
-4.21643
-4.31929
-4.41782
-4.51829
-4.61734
-4.71199
-4.80267
-4.89034
-4.97518
-5.05704
-5.13585
-5.21151
-5.28366
-5.35173
-5.41452
-4.00513
-4.0446
-4.13101
-4.23379
-4.33084
-4.42429
-4.5189
-4.61279
-4.70327
-4.79009
-4.87384
-4.95459
-5.03214
-5.10626
-5.17672
-5.24307
-5.30471
-5.36053
-4.04999
-4.08351
-4.1578
-4.25009
-4.34108
-4.42969
-4.51911
-4.60818
-4.69457
-4.77761
-4.85755
-4.93437
-5.00779
-5.07751
-5.1432
-5.20438
-5.26047
-5.31045
-4.09041
-4.11921
-4.18339
-4.26605
-4.35077
-4.43447
-4.51884
-4.60311
-4.68527
-4.7644
-4.84044
-4.91325
-4.98251
-5.04786
-5.10889
-5.16514
-5.21606
-5.26079
-4.13128
-4.15576
-4.2105
-4.28337
-4.36093
-4.43891
-4.51765
-4.59646
-4.67368
-4.74821
-4.81968
-4.88784
-4.95234
-5.01274
-5.06864
-5.11959
-5.16513
-5.20457
-4.17057
-4.19116
-4.23744
-4.30082
-4.37061
-4.44217
-4.51475
-4.58758
-4.65919
-4.72844
-4.79473
-4.85769
-4.91689
-4.97193
-5.0224
-5.06792
-5.10813
-5.14255
-4.2053
-4.22255
-4.26156
-4.31622
-4.37813
-4.44285
-4.50896
-4.57545
-4.64101
-4.70448
-4.76513
-4.82249
-4.87611
-4.92562
-4.97065
-5.01091
-5.04616
-5.07614
-4.23128
-4.24582
-4.27892
-4.32612
-4.38072
-4.43873
-4.49842
-4.55861
-4.61803
-4.67558
-4.73047
-4.78218
-4.8303
-4.87447
-4.91443
-4.95
-4.98105
-5.00749
-4.24247
-4.25504
-4.28389
-4.32549
-4.37424
-4.42654
-4.48061
-4.53518
-4.58904
-4.64116
-4.69077
-4.73735
-4.78052
-4.82003
-4.85568
-4.88738
-4.91512
-4.93896
-4.22982
-4.24139
-4.26818
-4.30697
-4.35247
-4.40126
-4.45159
-4.50227
-4.55215
-4.60024
-4.64585
-4.68857
-4.7281
-4.76428
-4.79701
-4.82631
-4.85224
-4.87496
-4.18965
-4.20201
-4.23039
-4.27092
-4.31763
-4.36685
-4.41706
-4.46731
-4.51648
-4.56355
-4.60787
-4.6491
-4.68704
-4.72162
-4.75283
-4.78073
-4.80543
-4.82714
-4.14046
-4.15456
-4.18672
-4.23182
-4.28235
-4.33423
-4.38636
-4.43805
-4.48823
-4.53593
-4.58064
-4.62212
-4.66022
-4.69489
-4.72617
-4.75421
-4.77919
-4.80141
-4.08254
-4.09949
-4.13799
-4.19032
-4.24627
-4.30207
-4.3578
-4.41272
-4.46518
-4.51417
-4.5595
-4.60121
-4.63928
-4.67372
-4.70464
-4.73222
-4.7566
-4.77799
-4.01835
-4.03907
-4.08713
-4.14997
-4.21203
-4.27109
-4.33036
-4.38949
-4.44592
-4.4982
-4.54622
-4.59009
-4.62984
-4.66555
-4.69744
-4.7258
-4.75098
-4.77352
-3.94975
-3.97489
-4.03525
-4.11167
-4.18234
-4.24622
-4.30848
-4.36918
-4.42622
-4.47891
-4.52745
-4.57183
-4.61195
-4.64788
-4.67986
-4.70821
-4.73309
-4.75457
-3.87758
-3.91047
-3.98718
-4.0711
-4.14675
-4.22163
-4.29701
-4.36727
-4.42989
-4.48612
-4.53726
-4.58347
-4.62469
-4.66117
-4.69333
-4.72163
-4.7466
-4.76918
-3.79964
-3.84297
-3.96333
-4.04969
-4.10297
-4.1648
-4.24006
-4.31424
-4.38071
-4.44071
-4.49562
-4.54532
-4.58959
-4.62868
-4.66308
-4.6933
-4.71962
-4.74202
-3.72266
-3.73181
-3.9421
-4.10471
-4.18567
-4.24911
-4.31926
-4.38693
-4.44712
-4.50163
-4.55165
-4.59682
-4.63685
-4.67199
-4.70269
-4.72949
-4.75312
-4.77533
-3.70862
-3.57489
-3.65515
-3.79124
-3.92627
-4.04909
-4.16075
-4.25648
-4.33856
-4.41126
-4.47612
-4.53321
-4.58285
-4.62577
-4.66269
-4.69437
-4.72171
-4.74661
-3.7317
-4.20829
-4.28927
-4.19656
-4.17339
-4.22946
-4.30184
-4.36676
-4.42618
-4.48286
-4.53583
-4.58364
-4.62591
-4.66285
-4.69471
-4.72164
-4.74435
-4.76362
-1.80821
-3.06955
-3.72515
-3.88383
-3.96878
-4.09367
-4.21085
-4.30341
-4.38135
-4.45137
-4.51397
-4.56869
-4.61593
-4.65643
-4.69073
-4.71901
-4.74169
-4.75724
-7.57153
-7.58375
-7.59629
-7.59962
-7.58504
-7.54816
-7.50216
-7.46083
-7.43684
-7.43584
-7.4578
-7.49734
-7.54596
-7.59443
-7.63426
-7.65851
-7.66149
-7.64504
-7.61335
-7.57062
-7.52068
-7.46851
-7.42
-7.38067
-7.35518
-7.34741
-7.36109
-7.40008
-7.46791
-7.56761
-7.70173
-7.87154
-8.07713
-8.3184
-8.59586
-8.91104
-9.26665
-9.66595
-10.1116
-10.6038
-11.1385
-11.7058
-12.2891
-12.8652
-13.4052
-13.8759
-14.2425
-14.4716
-14.5342
-14.4082
-14.0719
-13.4964
-12.6575
-11.5551
-10.2152
-8.66721
-6.94465
-5.08524
-3.12978
-1.12054
0.900503
2.89337
4.82156
6.6531
8.36131
9.92501
11.3288
12.5636
13.6292
14.5364
15.2937
15.9052
16.381
16.7334
16.9763
17.1237
17.19
17.1886
17.1322
17.0328
16.9016
16.7491
16.5847
16.4167
16.2524
16.0986
15.9606
15.8401
15.7312
15.6213
15.4989
15.357
15.179
14.9676
14.718
14.3769
13.8445
13.0153
11.8113
10.1976
8.16257
5.74036
3.01269
0.119673
-2.80964
-5.67611
-8.40979
-10.9628
-13.3011
-15.3985
-17.232
-18.7808
-20.0259
-20.9503
-21.5391
-21.774
-21.6435
-21.1454
-20.2992
-19.1275
-17.6596
-15.9316
-13.9861
-11.8705
-9.63495
-7.33085
-5.00836
-2.71473
-0.492563
1.62151
3.59775
5.41376
7.05448
8.51179
9.78374
10.8737
11.7893
12.5421
13.1453
13.6122
13.9599
14.2008
14.3519
14.4291
14.4475
14.421
14.3627
14.2842
14.1962
14.108
14.0277
13.9623
13.9172
13.8968
13.9041
13.9407
14.007
14.1022
14.2242
14.3703
14.5368
14.7193
14.9126
15.1117
15.2995
15.4748
15.6414
15.8032
15.9607
16.1133
16.2592
16.3972
16.5263
16.647
16.761
16.8708
16.9813
17.0933
17.2298
17.3432
-7.62503
-7.64162
-7.66884
-7.67346
-7.65414
-7.62542
-7.59572
-7.57466
-7.57013
-7.58431
-7.61481
-7.6561
-7.70104
-7.74241
-7.77406
-7.79149
-7.79266
-7.77233
-7.72946
-7.66599
-7.5873
-7.50061
-7.4139
-7.33533
-7.27251
-7.23206
-7.21921
-7.23732
-7.28756
-7.37118
-7.49045
-7.64703
-7.84267
-8.07986
-8.36215
-8.69415
-9.0813
-9.52909
-10.0414
-10.6181
-11.2529
-11.9318
-12.6325
-13.3255
-13.9754
-14.5429
-14.9875
-15.2697
-15.3537
-15.2085
-14.8145
-14.1695
-13.2848
-12.1698
-10.8299
-9.28486
-7.5639
-5.70295
-3.74208
-1.72334
0.311247
2.32162
4.27124
6.12826
7.86625
9.46441
10.9073
12.1844
13.2907
14.2319
15.0203
15.6645
16.1736
16.5582
16.8302
17.003
17.0902
17.1058
17.0638
16.9771
16.8573
16.7146
16.5577
16.3943
16.2318
16.0772
15.937
15.8144
15.7053
15.597
15.4701
15.3116
15.1382
14.9603
14.7656
14.5005
14.0566
13.2849
12.0657
10.3339
8.1172
5.51749
2.66648
-0.293132
-3.24492
-6.10613
-8.82161
-11.354
-13.6752
-15.7611
-17.5884
-19.1336
-20.3735
-21.2861
-21.8536
-22.0692
-21.9318
-21.4462
-20.6163
-19.4601
-18.0052
-16.2871
-14.3479
-12.2349
-9.99814
-7.68905
-5.35804
-3.05272
-0.816177
1.31443
3.30879
5.14397
6.80437
8.28137
9.57261
10.6811
11.6145
12.3843
13.0031
13.4839
13.8425
14.0941
14.2549
14.3408
14.3669
14.3472
14.2947
14.2212
14.1375
14.0529
13.9757
13.9128
13.8701
13.8517
13.8609
13.8995
13.9678
14.0652
14.1896
14.3382
14.5077
14.694
14.8911
15.088
15.2806
15.463
15.6359
15.8011
15.96
16.1128
16.2587
16.3968
16.526
16.6468
16.7606
16.8695
16.978
17.0856
17.2124
17.3049
-7.62422
-7.6156
-7.60928
-7.61191
-7.61831
-7.62922
-7.64794
-7.67713
-7.71742
-7.7669
-7.82164
-7.8766
-7.92636
-7.9658
-7.99063
-7.99764
-7.98505
-7.95185
-7.89802
-7.82499
-7.73529
-7.63252
-7.52186
-7.41074
-7.30913
-7.22844
-7.17894
-7.16659
-7.19315
-7.25976
-7.37022
-7.53015
-7.74667
-8.02735
-8.37885
-8.80564
-9.3092
-9.88729
-10.5335
-11.237
-11.9823
-12.749
-13.5129
-14.2458
-14.9168
-15.4933
-15.9421
-16.2306
-16.3275
-16.2035
-15.8352
-15.212
-14.3318
-13.2028
-11.8392
-10.2639
-8.50756
-6.60713
-4.60387
-2.54114
-0.462203
1.59183
3.58374
5.48152
7.25917
8.89685
10.3803
11.7002
12.8513
13.8371
14.6693
15.3579
15.9113
16.3384
16.6502
16.8584
16.976
17.0164
16.9932
16.92
16.8098
16.6745
16.5246
16.3686
16.2139
16.0661
15.9305
15.8095
15.6997
15.5898
15.4634
15.3123
15.1466
14.9839
14.8056
14.5189
13.9663
12.9933
11.4783
9.42126
6.96846
4.27763
1.47043
-1.36286
-4.15733
-6.86538
-9.45009
-11.8804
-14.1282
-16.1663
-17.9677
-19.5053
-20.752
-21.6815
-22.2716
-22.5104
-22.3925
-21.9202
-21.1005
-19.9508
-18.4981
-16.7776
-14.8315
-12.707
-10.4547
-8.12642
-5.77326
-3.44356
-1.18116
0.976018
2.99697
4.85815
6.54347
8.04391
9.35698
10.4857
11.4381
12.2248
12.8581
13.352
13.7222
13.9841
14.154
14.2478
14.2805
14.2663
14.2185
14.1489
14.0685
13.9867
13.9119
13.8512
13.8104
13.7941
13.8054
13.8462
13.917
14.0171
14.1445
14.2965
14.4694
14.6588
14.8584
15.0597
15.2574
15.4456
15.6239
15.7935
15.9555
16.1101
16.2568
16.3949
16.5235
16.6434
16.7558
16.8624
16.9668
17.0673
17.178
17.2443
-7.62601
-7.59695
-7.58613
-7.6039
-7.64939
-7.71408
-7.79035
-7.8728
-7.95706
-8.03923
-8.11557
-8.18241
-8.23621
-8.27371
-8.2922
-8.28974
-8.26567
-8.21982
-8.15301
-8.06711
-7.96475
-7.84937
-7.72553
-7.59964
-7.48069
-7.38017
-7.31033
-7.2807
-7.29797
-7.36713
-7.49459
-7.68849
-7.95751
-8.30927
-8.74865
-9.27676
-9.89055
-10.583
-11.3435
-12.1581
-13.0096
-13.8773
-14.7366
-15.5591
-16.3129
-16.9634
-17.4748
-17.8117
-17.941
-17.8337
-17.4682
-16.8335
-15.9256
-14.7519
-13.3291
-11.6826
-9.84575
-7.85849
-5.76499
-3.61161
-1.44444
0.692984
2.76172
4.72891
6.56858
8.26181
9.79606
11.1641
12.3629
13.3952
14.2721
15.0054
15.6032
16.0734
16.4258
16.6713
16.822
16.8905
16.8903
16.8351
16.7387
16.6141
16.4732
16.3263
16.1813
16.0443
15.9195
15.8087
15.7081
15.606
15.4879
15.3458
15.1842
14.998
14.7239
14.2146
13.3132
11.9118
10.03
7.80082
5.35173
2.77579
0.135843
-2.52128
-5.15605
-7.73216
-10.2152
-12.5721
-14.7708
-16.7796
-18.5671
-20.1022
-21.3543
-22.2942
-22.8974
-23.1488
-23.0398
-22.5694
-21.7452
-20.5846
-19.1147
-17.371
-15.3962
-13.2385
-10.9492
-8.58155
-6.18762
-3.81702
-1.51475
0.680275
2.73626
4.62903
6.34211
7.86661
9.2008
10.3485
11.3171
12.1171
12.7607
13.2624
13.6383
13.9045
14.0776
14.1735
14.2077
14.1945
14.1473
14.0782
13.9982
13.9169
13.8427
13.783
13.7434
13.7287
13.7421
13.7854
13.8592
13.9628
14.0941
14.2502
14.4272
14.6202
14.8229
15.0277
15.2289
15.4223
15.6065
15.7816
15.9478
16.1052
16.2532
16.3912
16.5194
16.6377
16.7476
16.8503
16.9485
17.0395
17.1319
17.1776
-7.69811
-7.66449
-7.66069
-7.71352
-7.80767
-7.92124
-8.04105
-8.15936
-8.27105
-8.37262
-8.46132
-8.53465
-8.5902
-8.62573
-8.63943
-8.63027
-8.59783
-8.54269
-8.46629
-8.37103
-8.26024
-8.1381
-8.00975
-7.88176
-7.76275
-7.6636
-7.5966
-7.57365
-7.60397
-7.696
-7.85881
-8.10192
-8.43413
-8.86219
-9.38964
-10.0162
-10.7378
-11.5466
-12.4316
-13.378
-14.3668
-15.375
-16.3744
-17.3325
-18.2127
-18.976
-19.5824
-19.9932
-20.1727
-20.0907
-19.7257
-19.0677
-18.1123
-16.8685
-15.355
-13.6007
-11.6426
-9.5247
-7.29558
-5.00625
-2.70729
-0.446148
1.73529
3.80253
5.72943
7.49819
9.09842
10.5257
11.7799
12.8649
13.7921
14.5749
15.2217
15.7403
16.1395
16.4294
16.6207
16.7252
16.7555
16.7249
16.6472
16.5365
16.4062
16.2685
16.1329
16.0065
15.8938
15.7964
15.7101
15.6236
15.5202
15.3849
15.198
14.9071
14.3998
13.5247
12.2107
10.4695
8.424
6.18078
3.80808
1.34923
-1.16312
-3.6983
-6.22483
-8.71017
-11.1213
-13.4248
-15.5875
-17.5754
-19.3545
-20.8905
-22.1493
-23.0986
-23.7108
-23.9679
-23.8587
-23.38
-22.5391
-21.3533
-19.8502
-18.0661
-16.0448
-13.8356
-11.4917
-9.06745
-6.6169
-4.19121
-1.83685
0.405985
2.50447
4.43378
6.17755
7.72839
9.08535
10.2514
11.2338
12.0432
12.6929
13.198
13.575
13.841
14.0127
14.1067
14.1386
14.123
14.0735
14.0025
13.9208
13.8385
13.764
13.7045
13.666
13.6531
13.6691
13.7156
13.7934
13.9014
14.0377
14.199
14.3812
14.579
14.7862
14.9959
15.2024
15.4015
15.5914
15.7714
15.9413
16.1011
16.2502
16.3884
16.5157
16.6323
16.739
16.8368
16.9275
17.0078
17.0822
17.1118
-7.81503
-7.79155
-7.83349
-7.93928
-8.0716
-8.21113
-8.34967
-8.48188
-8.60415
-8.71386
-8.80861
-8.88599
-8.94367
-8.97961
-8.99228
-8.98094
-8.94554
-8.88697
-8.80725
-8.70946
-8.59762
-8.47672
-8.35272
-8.23287
-8.12609
-8.04309
-7.99641
-7.99832
-8.05989
-8.19183
-8.40512
-8.71044
-9.11722
-9.63256
-10.2604
-11.0011
-11.851
-12.8028
-13.8446
-14.9601
-16.1273
-17.3188
-18.5014
-19.6368
-20.6824
-21.5936
-22.3252
-22.834
-23.0808
-23.0328
-22.6682
-21.977
-20.9559
-19.6156
-17.9783
-16.0764
-13.9518
-11.6535
-9.23626
-6.75744
-4.27427
-1.84031
0.497731
2.70249
4.7471
6.61506
8.29869
9.79703
11.1137
12.2566
13.2393
14.0757
14.7748
15.3451
15.7954
16.1348
16.3731
16.5207
16.5891
16.5907
16.539
16.448
16.3319
16.2039
16.0754
15.9553
15.85
15.763
15.6907
15.62
15.5277
15.3778
15.1102
14.626
13.8049
12.569
10.9366
9.01225
6.90184
4.66858
2.34774
-0.0382775
-2.46948
-4.92345
-7.37448
-9.79407
-12.1518
-14.4158
-16.5526
-18.5276
-20.3046
-21.8465
-23.1161
-24.0771
-24.6981
-24.9584
-24.8439
-24.3501
-23.4835
-22.2617
-20.7129
-18.8747
-16.7923
-14.5167
-12.103
-9.60765
-7.08665
-4.5932
-2.1757
0.123995
2.27185
4.24281
6.02246
7.6041
8.9854
10.1694
11.164
11.9807
12.6339
13.1395
13.5149
13.7777
13.9454
14.0349
14.0622
14.0422
13.9887
13.9143
13.8302
13.7462
13.671
13.612
13.575
13.5646
13.584
13.635
13.7179
13.8317
13.9742
14.142
14.3305
14.5345
14.7475
14.9631
15.1756
15.381
15.5767
15.7618
15.9357
16.0981
16.2486
16.387
16.5132
16.6276
16.7308
16.8233
16.9061
16.9756
17.0336
17.0495
-7.99162
-7.99798
-8.09155
-8.22681
-8.36917
-8.51183
-8.65209
-8.78668
-8.91244
-9.02635
-9.12537
-9.20658
-9.2674
-9.30575
-9.3202
-9.31035
-9.27635
-9.21955
-9.14245
-9.04863
-8.94273
-8.83048
-8.71872
-8.6156
-8.53072
-8.47379
-8.45975
-8.50011
-8.60729
-8.7939
-9.07257
-9.45543
-9.95323
-10.5745
-11.3245
-12.2052
-13.214
-14.3437
-15.5815
-16.9088
-18.2997
-19.7217
-21.1353
-22.4949
-23.7504
-24.8498
-25.7411
-26.3754
-26.7089
-26.7057
-26.3432
-25.6115
-24.5081
-23.0467
-21.253
-19.1638
-16.826
-14.2945
-11.6312
-8.90171
-6.17272
-3.50686
-0.958446
1.43026
3.63067
5.62747
7.41617
9.00018
10.3886
11.5959
12.6387
13.531
14.2838
14.9069
15.4096
15.8009
16.0897
16.2853
16.3977
16.4383
16.4193
16.3542
16.2569
16.1408
16.0185
15.9011
15.7986
15.7175
15.6554
15.5939
15.4937
15.2879
14.8765
14.1434
13.0111
11.4842
9.64125
7.60803
5.45853
3.22934
0.937954
-1.4041
-3.78385
-6.18424
-8.58399
-10.9583
-13.2796
-15.5179
-17.6405
-19.6121
-21.3953
-22.9504
-24.2367
-25.2139
-25.8464
-26.11
-25.9882
-25.4749
-24.576
-23.3097
-21.7053
-19.8017
-17.6461
-15.2914
-12.7949
-10.2154
-7.61142
-5.03863
-2.54787
-0.183089
2.02089
4.04086
5.86296
7.47875
8.88575
10.0878
11.0939
11.9167
12.5716
13.0759
13.4476
13.7053
13.8671
13.9503
13.9714
13.9458
13.8874
13.809
13.722
13.6365
13.561
13.5031
13.4685
13.4618
13.4861
13.5429
13.6325
13.7537
13.9039
14.0795
14.2757
14.487
14.707
14.9295
15.1488
15.3608
15.5627
15.7531
15.9311
16.0963
16.2482
16.3868
16.512
16.6241
16.7235
16.8106
16.8856
16.945
16.9885
16.992
-8.23192
-8.27397
-8.38338
-8.51157
-8.64369
-8.7788
-8.9148
-9.04802
-9.17451
-9.2904
-9.39203
-9.47612
-9.53989
-9.58121
-9.59876
-9.59237
-9.56244
-9.5107
-9.44006
-9.35455
-9.25939
-9.16099
-9.06699
-8.98629
-8.92914
-8.90732
-8.93393
-9.02234
-9.18637
-9.44033
-9.79865
-10.2753
-10.8831
-11.6324
-12.5307
-13.5815
-14.7834
-16.1295
-17.6059
-19.1912
-20.8553
-22.5594
-24.2561
-25.8905
-27.403
-28.7317
-29.8165
-30.6018
-31.0384
-31.0873
-30.7257
-29.9448
-28.7442
-27.1413
-25.166
-22.8589
-20.2707
-17.4611
-14.4986
-11.4585
-8.4194
-5.457
-2.63744
-0.0112802
2.38911
4.54899
6.4677
8.15504
9.62844
10.9094
12.0169
12.9666
13.7729
14.4478
15.002
15.4447
15.7847
16.0302
16.1901
16.274
16.2929
16.2589
16.1847
16.0835
15.9688
15.8543
15.7539
15.6766
15.6187
15.5514
15.4132
15.1053
14.5049
13.5132
12.1132
10.3691
8.38793
6.28131
4.10106
1.86684
-0.413849
-2.735
-5.08734
-7.45718
-9.82671
-12.1745
-14.4758
-16.7028
-18.824
-20.804
-22.604
-24.1819
-25.4935
-26.4939
-27.1427
-27.412
-27.2829
-26.7476
-25.812
-24.495
-22.8272
-20.8494
-18.6107
-16.1663
-13.5759
-10.9009
-8.20275
-5.54009
-2.96688
-0.528934
1.73995
3.81747
5.68737
7.34034
8.77472
9.9955
11.0129
11.841
12.4966
12.9981
13.3648
13.6159
13.7703
13.8461
13.8602
13.8282
13.7646
13.6822
13.5926
13.5061
13.4313
13.3757
13.345
13.3436
13.3746
13.4392
13.5374
13.6677
13.8273
14.0123
14.2176
14.4375
14.6656
14.8958
15.1226
15.3415
15.5497
15.7455
15.9276
16.0956
16.2491
16.3878
16.5119
16.6217
16.7174
16.7992
16.8667
16.9166
16.9476
16.9402
-8.47316
-8.53638
-8.63106
-8.73932
-8.85778
-8.98412
-9.1147
-9.245
-9.37044
-9.48661
-9.58946
-9.67543
-9.7416
-9.78579
-9.80676
-9.80445
-9.77957
-9.73414
-9.67145
-9.596
-9.51356
-9.43121
-9.3574
-9.30175
-9.2757
-9.29182
-9.36387
-9.50651
-9.73526
-10.0663
-10.5164
-11.1017
-11.8373
-12.7363
-13.8082
-15.0586
-16.4875
-18.0881
-19.8454
-21.7351
-23.7214
-25.7572
-27.7844
-29.7357
-31.5386
-33.12
-34.4112
-35.3506
-35.8845
-35.9722
-35.5952
-34.7492
-33.4394
-31.6879
-29.528
-27.0017
-24.1596
-21.0612
-17.7769
-14.3897
-10.9914
-7.67572
-4.52688
-1.60982
1.03522
3.39305
5.46824
7.28012
8.8556
10.2203
11.3965
12.4053
13.2645
13.9894
14.5926
15.0844
15.4737
15.7683
15.9761
16.1052
16.1647
16.165
16.1177
16.0353
15.9321
15.8245
15.729
15.6552
15.5939
15.5017
15.2934
14.8475
14.0412
12.8127
11.1963
9.29353
7.21706
5.05433
2.84133
0.589378
-1.69821
-4.01782
-6.3623
-8.7206
-11.078
-13.4161
-15.7132
-17.9435
-20.077
-22.0783
-23.9074
-25.5194
-26.8664
-27.8988
-28.5704
-28.8494
-28.7145
-28.1565
-27.1817
-25.81
-24.0738
-22.0159
-19.6872
-17.1455
-14.4526
-11.673
-8.87116
-6.10966
-3.44566
-0.925298
1.41876
3.56115
5.48363
7.1772
8.6412
9.8819
10.911
11.7443
12.3999
12.8978
13.2584
13.5021
13.6484
13.7162
13.7227
13.6843
13.6155
13.5295
13.4382
13.3518
13.2791
13.2274
13.2025
13.2087
13.2486
13.3232
13.4323
13.5739
13.745
13.9411
14.1571
14.3869
14.6243
14.8631
15.0977
15.3239
15.5386
15.7396
15.9258
16.0965
16.2514
16.3902
16.5132
16.6206
16.7126
16.7891
16.8496
16.8909
16.9111
16.8943
-8.63962
-8.70788
-8.78376
-8.87718
-8.98567
-9.10511
-9.23097
-9.35834
-9.48231
-9.59816
-9.70157
-9.78878
-9.85672
-9.90317
-9.92693
-9.92807
-9.9075
-9.86754
-9.81181
-9.7453
-9.67439
-9.60685
-9.55193
-9.52032
-9.52427
-9.57753
-9.69521
-9.89359
-10.1902
-10.6035
-11.1527
-11.8567
-12.7333
-13.7983
-15.0638
-16.5375
-18.2209
-20.1077
-22.1812
-24.4124
-26.7572
-29.1562
-31.5358
-33.8126
-35.8997
-37.7137
-39.1798
-40.2339
-40.8223
-40.9086
-40.487
-39.5583
-38.1371
-36.2508
-33.9352
-31.2315
-28.1845
-24.8447
-21.2742
-17.5546
-13.7889
-10.0926
-6.57647
-3.32847
-0.40332
2.1823
4.44066
6.39998
8.09159
9.54695
10.7959
11.865
12.7766
13.5495
14.1986
14.7359
15.1712
15.5124
15.7663
15.94
16.041
16.0779
16.0608
16.0018
15.9158
15.8211
15.7348
15.6641
15.5909
15.4549
15.1507
14.5477
13.5413
12.1092
10.3225
8.29972
6.14758
3.93276
1.68142
-0.599053
-2.90706
-5.23973
-7.59151
-9.95373
-12.3143
-14.6579
-16.9654
-19.2132
-21.3725
-23.4082
-25.2787
-26.9366
-28.3297
-29.4029
-30.1043
-30.3975
-30.2591
-29.679
-28.6642
-27.2367
-25.4306
-23.2906
-20.8696
-18.2269
-15.4269
-12.5369
-9.62528
-6.7585
-3.99567
-1.38232
1.04565
3.25911
5.23925
6.9774
8.47387
9.73635
10.7783
11.6171
12.2728
12.7669
13.1211
13.3569
13.4949
13.5544
13.5535
13.5088
13.4354
13.3467
13.2547
13.1699
13.1011
13.0555
13.0389
13.0552
13.1067
13.1942
13.3169
13.4723
13.6571
13.8664
14.0948
14.3361
14.5839
14.8321
15.0752
15.3089
15.53
15.7362
15.9263
16.0995
16.2556
16.3943
16.516
16.6209
16.7092
16.7806
16.8345
16.868
16.879
16.854
-8.6842
-8.74865
-8.8158
-8.90356
-9.00762
-9.12369
-9.24714
-9.37304
-9.49637
-9.61224
-9.71617
-9.80423
-9.87323
-9.92085
-9.94594
-9.94863
-9.92999
-9.8926
-9.84045
-9.77903
-9.71529
-9.6577
-9.61636
-9.60307
-9.63135
-9.71632
-9.87471
-10.1248
-10.4864
-10.9806
-11.6294
-12.4545
-13.4767
-14.7147
-16.1834
-17.8929
-19.8461
-22.0362
-24.4432
-27.0301
-29.7398
-32.4955
-35.2046
-37.7664
-40.0825
-42.0651
-43.6411
-44.7512
-45.3465
-45.3977
-44.9166
-43.9024
-42.3774
-40.3758
-37.9403
-35.1147
-31.9385
-28.4463
-24.6788
-20.7005
-16.6156
-12.5611
-8.6808
-5.09262
-1.87134
0.962966
3.42471
5.54267
7.35649
8.90643
10.23
11.3597
12.3227
13.1413
13.8333
14.4125
14.8898
15.2737
15.571
15.7876
15.9299
16.0048
16.0213
15.9908
15.9284
15.8528
15.7795
15.7105
15.6164
15.4206
15.0048
14.2417
13.0523
11.4491
9.52645
7.40687
5.18664
2.91885
0.623742
-1.69316
-4.03042
-6.3864
-8.7573
-11.136
-13.5126
-15.8747
-18.2054
-20.4832
-22.6804
-24.7621
-26.6851
-28.3989
-29.8467
-30.968
-31.7046
-32.0153
-31.8754
-31.2746
-30.2217
-28.7407
-26.8679
-24.6493
-22.1391
-19.398
-16.4919
-13.4919
-10.4694
-7.49413
-4.62485
-1.91039
0.607663
2.89807
4.94118
6.72841
8.26091
9.54784
10.6044
11.4501
12.1068
12.5975
12.9456
13.1738
13.3036
13.3552
13.3473
13.297
13.2198
13.1295
13.0383
12.9569
12.8941
12.8572
12.8515
12.8809
12.9473
13.0509
13.1902
13.3625
13.5636
13.7885
14.0314
14.2857
14.5452
14.8037
15.0558
15.2972
15.5246
15.7358
15.9296
16.1051
16.262
16.4005
16.5207
16.623
16.7075
16.774
16.8217
16.848
16.8511
16.8191
-8.58885
-8.65085
-8.72027
-8.80991
-8.91499
-9.03167
-9.15566
-9.28221
-9.40628
-9.52293
-9.62753
-9.71601
-9.78504
-9.83217
-9.85623
-9.85731
-9.8366
-9.79685
-9.74235
-9.67903
-9.61452
-9.55816
-9.52109
-9.51627
-9.55857
-9.6647
-9.8533
-10.1449
-10.5618
-11.1279
-11.868
-12.807
-13.9686
-15.3744
-17.0421
-18.9836
-21.2027
-23.6903
-26.4203
-29.3436
-32.3863
-35.4516
-38.4288
-41.2053
-43.6793
-45.7682
-47.4087
-48.5508
-49.1515
-49.1851
-48.6547
-47.56
-45.9297
-43.8107
-41.2609
-38.3364
-35.0794
-31.5116
-27.6461
-23.5171
-19.2124
-14.8782
-10.6873
-6.78915
-3.27887
-0.196587
2.46506
4.73922
6.6729
8.31529
9.71144
10.8999
11.9123
12.7742
13.5059
14.1233
14.6388
15.0617
15.3989
15.6564
15.8392
15.9535
16.0069
16.0099
15.9769
15.9254
15.867
15.7971
15.6738
15.4078
14.8749
13.9589
12.6077
10.8609
8.82619
6.62343
4.33874
2.0167
-0.325852
-2.68425
-5.05753
-7.44466
-9.84259
-12.2464
-14.6491
-17.0399
-19.4039
-21.7212
-23.9653
-26.1011
-28.0838
-29.8593
-31.3662
-32.5385
-33.3118
-33.6407
-33.5003
-32.8809
-31.7941
-30.2664
-28.3356
-26.0482
-23.4593
-20.6303
-17.6282
-14.5268
-11.3993
-8.31556
-5.33695
-2.51889
0.0930446
2.46511
4.57616
6.41718
7.98993
9.30487
10.379
11.2338
11.8931
12.3819
12.725
12.9464
13.0688
13.1133
13.0992
13.0442
12.9644
12.8738
12.7851
12.7091
12.6547
12.6292
12.6377
12.6836
12.7683
12.8915
13.0511
13.2435
13.4641
13.7073
13.9669
14.2361
14.5087
14.7784
15.0401
15.2894
15.5231
15.7392
15.9363
16.1137
16.2713
16.4091
16.5277
16.6271
16.7078
16.7694
16.8113
16.8311
16.8272
16.7891
-8.35981
-8.41986
-8.50097
-8.59897
-8.7094
-8.82995
-8.95704
-9.08612
-9.21217
-9.33016
-9.43529
-9.52332
-9.59069
-9.63478
-9.65429
-9.6492
-9.62075
-9.57184
-9.50703
-9.43269
-9.35707
-9.29036
-9.24476
-9.23453
-9.27605
-9.38787
-9.59072
-9.90752
-10.3632
-10.9845
-11.799
-12.8344
-14.1174
-15.6721
-17.5183
-19.6693
-22.128
-24.8812
-27.8941
-31.1038
-34.419
-37.7263
-40.9027
-43.8324
-46.4188
-48.5895
-50.2914
-51.4797
-52.109
-52.1471
-51.5859
-50.4209
-48.6886
-46.4497
-43.781
-40.7583
-37.4358
-33.8331
-29.9442
-25.7706
-21.3674
-16.8635
-12.4434
-8.28963
-4.5302
-1.22955
1.60927
4.02223
6.06314
7.78878
9.25091
10.4932
11.5512
12.4532
13.2216
13.874
14.4241
14.8823
15.2565
15.5523
15.7749
15.9292
16.022
16.0624
16.0632
16.039
15.9961
15.9218
15.7634
15.4224
14.775
13.7201
12.2292
10.3616
8.23199
5.95484
3.60811
1.23115
-1.16094
-3.56398
-5.97733
-8.40039
-10.8314
-13.2669
-15.7015
-18.1262
-20.5286
-22.8905
-25.1857
-27.3783
-29.4214
-31.2575
-32.8209
-34.0402
-34.8462
-35.1905
-35.0493
-34.4148
-33.3018
-31.7389
-29.7649
-27.4262
-24.7778
-21.8809
-18.8031
-15.6173
-12.396
-9.21079
-6.12895
-3.21052
-0.505125
1.95029
4.13242
6.03124
7.64853
8.99569
10.0912
10.9585
11.6233
12.1125
12.4526
12.6689
12.7853
12.8239
12.8048
12.7464
12.6652
12.576
12.4916
12.4231
12.3797
12.3685
12.3944
12.4605
12.5676
12.7144
12.8981
13.1144
13.3579
13.6224
13.9012
14.1875
14.4747
14.7567
15.0286
15.286
15.5261
15.7468
15.9469
16.1258
16.2837
16.4206
16.5371
16.6336
16.7104
16.7672
16.8036
16.8173
16.8072
16.7638
-8.00872
-8.0815
-8.17663
-8.28524
-8.40311
-8.52935
-8.66101
-8.79369
-8.92233
-9.04171
-9.14678
-9.23302
-9.29658
-9.33455
-9.34538
-9.32885
-9.28607
-9.21998
-9.13533
-9.03886
-8.93943
-8.84809
-8.77817
-8.74533
-8.76766
-8.86568
-9.06241
-9.3832
-9.8556
-10.5089
-11.3733
-12.479
-13.855
-15.5272
-17.5167
-19.8365
-22.4869
-25.4497
-28.6803
-32.1036
-35.6151
-39.0907
-42.403
-45.4385
-48.1079
-50.3466
-52.1069
-53.3453
-54.0158
-54.0873
-53.5341
-52.3477
-50.5644
-48.2508
-45.4979
-42.402
-39.0367
-35.4294
-31.5618
-27.4049
-22.9766
-18.3851
-13.8184
-9.48387
-5.54248
-2.0785
0.896091
3.41728
5.54336
7.33665
8.85385
10.1425
11.2407
12.1787
12.9805
13.6648
14.2466
14.7372
15.1453
15.4773
15.7382
15.9326
16.0661
16.1462
16.1832
16.1873
16.1591
16.0773
15.8804
15.4651
14.7124
13.5365
11.9282
9.96016
7.74929
5.40469
2.99844
0.566941
-1.87539
-4.32439
-6.77958
-9.24098
-11.7078
-14.178
-16.6473
-19.1083
-21.55
-23.955
-26.297
-28.5397
-30.6351
-32.5222
-34.1307
-35.3858
-36.2154
-36.5706
-36.4299
-35.7874
-34.6608
-33.0802
-31.0849
-28.7212
-26.0419
-23.1042
-19.9751
-16.7248
-13.427
-10.1564
-6.98435
-3.97532
-1.18308
1.352
3.60411
5.56176
7.22623
8.60925
9.73037
10.6143
11.2885
11.7817
12.1217
12.3356
12.4482
12.4828
12.4604
12.4
12.319
12.2327
12.1545
12.0958
12.066
12.0721
12.119
12.2092
12.3426
12.5172
12.7293
12.9736
13.2439
13.5331
13.834
14.1396
14.4432
14.7388
15.0216
15.2876
15.534
15.759
15.9618
16.142
16.2997
16.4353
16.5495
16.6428
16.7156
16.7677
16.7988
16.8068
16.791
16.743
-7.57085
-7.65941
-7.77112
-7.89156
-8.01763
-8.15009
-8.2866
-8.42289
-8.55379
-8.6738
-8.77756
-8.86015
-8.91731
-8.94572
-8.94338
-8.90968
-8.84544
-8.75345
-8.63849
-8.50759
-8.37017
-8.23816
-8.1261
-8.05122
-8.0335
-8.09563
-8.26303
-8.5636
-9.02737
-9.68594
-10.5715
-11.7158
-13.1493
-14.899
-16.9858
-19.4212
-22.2027
-25.3064
-28.6808
-32.2428
-35.8811
-39.4672
-42.8735
-45.989
-48.7285
-51.031
-52.8508
-54.1449
-54.8652
-54.9773
-54.4471
-53.2695
-51.4772
-49.1378
-46.3507
-43.2278
-39.8593
-36.2808
-32.4651
-28.3595
-23.9555
-19.3449
-14.7165
-10.2929
-6.25431
-2.69885
0.354956
2.94224
5.12327
6.96312
8.5209
9.84589
10.9775
11.9469
12.7785
13.4918
14.1024
14.6227
15.062
15.4275
15.7246
15.9578
16.1315
16.2517
16.3253
16.3574
16.3427
16.2518
16.0167
15.5331
14.6893
13.413
11.7095
9.65967
7.37999
4.97488
2.51265
0.0284664
-2.46312
-4.95765
-7.45462
-9.95448
-12.4572
-14.9617
-17.4647
-19.9601
-22.4374
-24.8795
-27.26
-29.5415
-31.6742
-33.5947
-35.2305
-36.5059
-37.3491
-37.713
-37.5783
-36.9404
-35.8184
-34.2426
-32.2511
-29.8883
-27.2033
-24.2512
-21.0949
-17.8037
-14.4519
-11.1164
-7.87244
-4.78843
-1.92217
0.68259
2.99758
5.00975
6.71969
8.13914
9.28814
10.1922
10.8801
11.3813
11.7254
11.9403
12.0523
12.0855
12.0619
12.0016
11.9226
11.841
11.771
11.7244
11.7108
11.7374
11.8088
11.9269
12.091
12.298
12.5431
12.8198
13.1209
13.4385
13.7647
14.0922
14.4141
14.7247
15.0193
15.2942
15.5471
15.7764
15.9815
16.1625
16.3196
16.4536
16.5652
16.6551
16.7237
16.7712
16.797
16.7997
16.7787
16.7264
-7.0679
-7.17265
-7.30154
-7.43339
-7.56685
-7.70464
-7.84514
-7.98418
-8.11634
-8.23578
-8.33666
-8.41351
-8.46154
-8.47681
-8.45673
-8.40003
-8.30703
-8.18016
-8.02405
-7.84587
-7.65554
-7.46592
-7.29293
-7.15563
-7.07618
-7.07983
-7.19472
-7.4513
-7.88138
-8.51821
-9.39537
-10.5452
-11.9983
-13.781
-15.9132
-18.4041
-21.2476
-24.4158
-27.8529
-31.4734
-35.1647
-38.7995
-42.2522
-45.4139
-48.1999
-50.5485
-52.4131
-53.7515
-54.5183
-54.6719
-54.1821
-53.0464
-51.2938
-48.9918
-46.2442
-43.1703
-39.8673
-36.3707
-32.6434
-28.6173
-24.2719
-19.6953
-15.0808
-10.6584
-6.6146
-3.05069
0.0141705
2.61537
4.81338
6.67305
8.25295
9.60169
10.7581
11.7528
12.61
13.3492
13.986
14.5333
15.0012
15.3972
15.7274
15.9962
16.2075
16.3655
16.4737
16.5317
16.5275
16.4241
16.1507
15.6059
14.6867
13.3329
11.5587
9.44786
7.11414
4.65777
2.14514
-0.388317
-2.92698
-5.46551
-8.003
-10.54
-13.0768
-15.613
-18.146
-20.6702
-23.1753
-25.6443
-28.0504
-30.3554
-32.5076
-34.4428
-36.0888
-37.3718
-38.2229
-38.5969
-38.4748
-37.8538
-36.7532
-35.2022
-33.2368
-30.8983
-28.2322
-25.2903
-22.1321
-18.8248
-15.4428
-12.0647
-8.76893
-5.62788
-2.70326
-0.0421893
2.3246
4.38259
6.13174
7.5838
8.7592
9.68407
10.3877
10.9004
11.2523
11.4722
11.5871
11.6221
11.6003
11.5425
11.4678
11.3933
11.3338
11.3018
11.3076
11.3582
11.4581
11.6087
11.8084
12.053
12.3362
12.6504
12.987
13.3372
13.6923
14.0446
14.3872
14.7144
15.0218
15.3062
15.5657
15.7992
16.0064
16.1878
16.344
16.476
16.5846
16.6708
16.7352
16.7778
16.7986
16.7962
16.7702
16.714
-6.58321
-6.7022
-6.84428