/*--------------------------------*- C++ -*----------------------------------*\
| =========                 |                                                 |
| \\      /  F ield         | OpenFOAM: The Open Source CFD Toolbox           |
|  \\    /   O peration     | Version:  2112                                  |
|   \\  /    A nd           | Website:  www.openfoam.com                      |
|    \\/     M anipulation  |                                                 |
\*---------------------------------------------------------------------------*/
FoamFile
{
    version     2.0;
    format      ascii;
    arch        "LSB;label=32;scalar=64";
    class       volScalarField;
    location    "0.03";
    object      k_0;
}
// * * * * * * * * * * * * * * * * * * * * * * * * * * * * * * * * * * * * * //

dimensions      [0 2 -2 0 0 0 0];

internalField   nonuniform List<scalar> 
12885
(
0.688395
0.972339
1.09948
1.37244
2.13516
2.826
3.22621
3.42698
3.59288
3.87641
4.56364
6.04519
7.31745
8.17087
8.65751
8.94204
9.23721
9.7681
11.0825
12.6164
13.9576
14.9815
15.6752
16.0806
16.2871
16.484
16.8266
17.3412
17.9746
18.6526
19.3112
19.9029
20.4056
20.8081
21.1144
21.3527
21.4914
21.6693
21.7424
21.4285
0.390572
0.397799
0.395315
0.396231
0.416393
0.474796
0.508856
0.521941
0.538143
0.571459
0.64155
0.812009
1.06392
1.26063
1.37849
1.45296
1.52848
1.64373
1.87937
2.2918
2.76218
3.22626
3.62064
3.91061
4.09837
4.2414
4.40878
4.64667
4.95597
5.3278
5.74428
6.18852
6.63735
7.0708
7.46954
7.83442
8.15858
8.48861
8.80473
9.41571
0.377933
0.377822
0.376383
0.372969
0.371417
0.370999
0.369856
0.36678
0.361449
0.35822
0.358432
0.361542
0.372304
0.387995
0.397146
0.402283
0.408466
0.418122
0.435912
0.471961
0.528099
0.614698
0.701467
0.791767
0.856214
0.917421
0.96026
1.02007
1.08064
1.17238
1.27252
1.41254
1.5614
1.75299
1.93978
2.1664
2.3631
2.60834
2.79242
3.05498
0.376051
0.375962
0.375416
0.374132
0.37311
0.372196
0.37094
0.368952
0.366234
0.363836
0.361435
0.359282
0.35829
0.356949
0.355096
0.35331
0.350657
0.348351
0.348104
0.348659
0.350617
0.355342
0.362285
0.371445
0.378292
0.385534
0.389564
0.395737
0.400364
0.409541
0.41762
0.434039
0.448247
0.477131
0.499232
0.542659
0.574721
0.633435
0.675224
0.743407
0.375474
0.375517
0.375285
0.374714
0.374158
0.373636
0.372941
0.371912
0.370581
0.369274
0.367872
0.366514
0.365441
0.364162
0.362755
0.361335
0.35961
0.357907
0.356593
0.355471
0.354571
0.354274
0.354299
0.354493
0.354652
0.354709
0.354418
0.354182
0.353748
0.353447
0.353481
0.353768
0.354428
0.355927
0.357384
0.360699
0.363315
0.368652
0.372698
0.380571
0.375238
0.37534
0.37523
0.374945
0.374618
0.37429
0.373865
0.373267
0.37252
0.371744
0.370932
0.370153
0.369434
0.368632
0.367763
0.366858
0.365878
0.364899
0.364008
0.363219
0.362507
0.36188
0.361375
0.360938
0.360517
0.360057
0.359508
0.358955
0.358346
0.357707
0.357093
0.356526
0.356026
0.355688
0.355382
0.355303
0.355322
0.355472
0.355716
0.356249
0.375131
0.375239
0.375193
0.375043
0.374839
0.374618
0.374334
0.373953
0.373494
0.373007
0.372506
0.372013
0.371523
0.370992
0.370424
0.369835
0.369232
0.368638
0.368071
0.367544
0.367048
0.366585
0.366156
0.365752
0.365355
0.364949
0.364524
0.364092
0.363646
0.363194
0.362741
0.36231
0.361896
0.3615
0.361144
0.360852
0.360615
0.360434
0.360304
0.360219
0.375078
0.375169
0.375158
0.375082
0.374951
0.374796
0.374599
0.374345
0.374048
0.373731
0.373404
0.373072
0.372728
0.372359
0.371971
0.371574
0.371179
0.370794
0.370421
0.370062
0.369715
0.369379
0.369052
0.368735
0.368421
0.368108
0.367795
0.367484
0.367174
0.366868
0.36657
0.366284
0.366015
0.365763
0.365532
0.365328
0.365152
0.365001
0.364876
0.364761
0.375047
0.375116
0.375124
0.375086
0.375005
0.374897
0.374759
0.374588
0.37439
0.374179
0.373958
0.373728
0.373483
0.373223
0.372951
0.372677
0.372408
0.372147
0.371893
0.371644
0.371398
0.371153
0.370911
0.370672
0.370435
0.370203
0.369976
0.369755
0.369542
0.369336
0.36914
0.368955
0.368782
0.368621
0.368474
0.36834
0.368218
0.368106
0.368005
0.367911
0.375026
0.375073
0.375087
0.37507
0.375023
0.37495
0.374856
0.374741
0.37461
0.374469
0.374319
0.374158
0.373985
0.373801
0.37361
0.37342
0.373234
0.373053
0.372876
0.372701
0.372526
0.372349
0.372173
0.371997
0.371825
0.371657
0.371495
0.371339
0.371191
0.371051
0.370919
0.370795
0.370677
0.370565
0.37046
0.370364
0.370278
0.3702
0.370129
0.370064
0.375011
0.375035
0.375048
0.375041
0.375017
0.37497
0.374909
0.374835
0.374751
0.374658
0.374557
0.374447
0.374327
0.374199
0.374068
0.373936
0.373807
0.373682
0.373559
0.373436
0.373313
0.373188
0.373062
0.372937
0.372813
0.372694
0.37258
0.37247
0.372364
0.372264
0.372169
0.372082
0.372001
0.371927
0.371859
0.371798
0.371745
0.3717
0.371661
0.371625
0.374998
0.375003
0.375007
0.375005
0.374992
0.374965
0.374929
0.374885
0.374834
0.374777
0.374713
0.37464
0.374559
0.374473
0.374385
0.374296
0.374209
0.374124
0.37404
0.373956
0.373871
0.373784
0.373697
0.373609
0.373524
0.37344
0.373361
0.373285
0.373215
0.373149
0.373087
0.373032
0.372984
0.372944
0.372911
0.372882
0.372858
0.372838
0.372819
0.372802
0.374984
0.374968
0.374961
0.374957
0.37495
0.374937
0.374921
0.3749
0.374877
0.374851
0.374819
0.374779
0.374733
0.374682
0.37463
0.374579
0.374528
0.374478
0.374428
0.374378
0.374327
0.374274
0.374221
0.374167
0.374115
0.374064
0.374017
0.373974
0.373937
0.373905
0.373878
0.373856
0.373839
0.373825
0.373815
0.373807
0.373802
0.373797
0.373793
0.373787
0.374971
0.37493
0.374906
0.374892
0.374885
0.374881
0.374878
0.374875
0.374874
0.374871
0.374867
0.374859
0.374847
0.374832
0.374816
0.374799
0.374782
0.374767
0.374751
0.374735
0.374717
0.374699
0.37468
0.37466
0.374642
0.374625
0.374611
0.3746
0.374592
0.374587
0.374586
0.374587
0.37459
0.374595
0.374602
0.374609
0.374616
0.374623
0.37463
0.374635
0.374959
0.374893
0.374846
0.374816
0.374801
0.374796
0.374799
0.374805
0.374816
0.374829
0.374843
0.374858
0.374873
0.374887
0.374901
0.374915
0.374928
0.374942
0.374956
0.374969
0.374982
0.374995
0.375007
0.37502
0.375032
0.375046
0.37506
0.375075
0.375091
0.375108
0.375125
0.375144
0.375163
0.375182
0.375201
0.375219
0.375237
0.375254
0.375271
0.375286
0.374949
0.374861
0.374792
0.374742
0.374711
0.374697
0.374697
0.374704
0.374719
0.374738
0.374761
0.374788
0.374816
0.374847
0.374879
0.374911
0.374945
0.374979
0.375013
0.375047
0.375082
0.375116
0.375151
0.375186
0.375221
0.375256
0.37529
0.375324
0.375358
0.375391
0.375424
0.375456
0.375487
0.375517
0.375547
0.375575
0.375602
0.375628
0.375653
0.375677
0.374942
0.374838
0.374751
0.374684
0.374637
0.37461
0.374601
0.374605
0.374618
0.374638
0.374663
0.374692
0.374724
0.374759
0.374797
0.374837
0.374878
0.37492
0.374964
0.375008
0.375052
0.375097
0.375142
0.375187
0.375232
0.375277
0.375321
0.375365
0.375407
0.375449
0.37549
0.37553
0.375569
0.375606
0.375643
0.375677
0.375711
0.375743
0.375774
0.375804
0.374939
0.374827
0.374733
0.374659
0.374605
0.374571
0.374557
0.374558
0.374569
0.374588
0.374612
0.37464
0.374672
0.374707
0.374744
0.374784
0.374826
0.374869
0.374913
0.374959
0.375004
0.375051
0.375097
0.375143
0.375189
0.375235
0.37528
0.375325
0.375368
0.375411
0.375453
0.375494
0.375534
0.375573
0.375611
0.375648
0.375683
0.375718
0.375752
0.375784
0.374941
0.374836
0.37475
0.374684
0.374638
0.374611
0.374602
0.374606
0.374617
0.374634
0.374656
0.374681
0.374709
0.37474
0.374773
0.374808
0.374844
0.374881
0.374918
0.374957
0.374995
0.375034
0.375072
0.37511
0.375148
0.375185
0.375221
0.375257
0.375292
0.375326
0.375359
0.375392
0.375423
0.375454
0.375484
0.375514
0.375542
0.37557
0.375598
0.375624
0.374946
0.374852
0.374777
0.374721
0.374684
0.374662
0.374655
0.374657
0.374664
0.374676
0.374691
0.374708
0.374727
0.374748
0.374771
0.374794
0.374819
0.374843
0.374868
0.374892
0.374916
0.37494
0.374963
0.374987
0.37501
0.375032
0.375054
0.375076
0.375096
0.375116
0.375135
0.375153
0.375171
0.375188
0.375204
0.37522
0.375236
0.375252
0.375267
0.375283
0.374953
0.374875
0.374816
0.374772
0.37474
0.37472
0.374707
0.374701
0.374697
0.374695
0.374693
0.374691
0.37469
0.374689
0.374689
0.37469
0.374691
0.374691
0.37469
0.374688
0.374684
0.374679
0.374675
0.374671
0.374668
0.374665
0.374663
0.37466
0.374657
0.374653
0.374648
0.374642
0.374635
0.374629
0.374621
0.374615
0.374608
0.374602
0.374597
0.374593
0.374964
0.374908
0.374864
0.374828
0.374796
0.374765
0.374737
0.37471
0.374683
0.374653
0.37462
0.374583
0.374545
0.374507
0.374469
0.374432
0.374394
0.374355
0.374314
0.374271
0.374226
0.37418
0.374135
0.374091
0.374048
0.374007
0.373967
0.373928
0.37389
0.373852
0.373813
0.373774
0.373736
0.373697
0.373659
0.373622
0.373585
0.37355
0.373516
0.373484
0.37498
0.374949
0.374919
0.374884
0.374838
0.374783
0.374721
0.374654
0.374584
0.374508
0.374425
0.374336
0.374241
0.374145
0.374049
0.373954
0.373861
0.373767
0.37367
0.373569
0.373466
0.373361
0.373255
0.373152
0.373051
0.372955
0.372862
0.372772
0.372685
0.372599
0.372515
0.372432
0.372351
0.37227
0.37219
0.372111
0.372034
0.371959
0.371886
0.371816
0.375001
0.374996
0.374976
0.374932
0.37486
0.37476
0.374637
0.374499
0.374355
0.374206
0.374048
0.373876
0.373692
0.373502
0.373313
0.373128
0.37295
0.372772
0.372592
0.372407
0.372214
0.372016
0.371815
0.371617
0.371423
0.371238
0.371061
0.370892
0.370729
0.370572
0.37042
0.370273
0.370128
0.369987
0.369848
0.36971
0.369574
0.36944
0.369307
0.369177
0.375034
0.375055
0.375032
0.374974
0.374861
0.374686
0.374453
0.374181
0.373901
0.373626
0.373344
0.373037
0.372701
0.372345
0.371984
0.371635
0.371302
0.370982
0.370662
0.370339
0.370005
0.369655
0.369289
0.368917
0.36855
0.368196
0.367861
0.367548
0.36726
0.366993
0.366746
0.366515
0.366297
0.366088
0.365883
0.365678
0.365468
0.365254
0.365036
0.364819
0.375105
0.375141
0.375105
0.375019
0.374842
0.374527
0.374074
0.373514
0.372946
0.372428
0.371922
0.371368
0.370746
0.370061
0.36935
0.368671
0.368037
0.367432
0.366824
0.366249
0.365676
0.365067
0.364395
0.363681
0.362966
0.36227
0.361592
0.360972
0.360449
0.360001
0.359617
0.359301
0.359052
0.358852
0.358675
0.358493
0.358284
0.358042
0.35777
0.357469
0.375323
0.375329
0.375266
0.37514
0.374826
0.374185
0.373201
0.3719
0.370605
0.369546
0.36861
0.367567
0.36632
0.364866
0.363309
0.361963
0.360781
0.359694
0.358845
0.358203
0.357558
0.356675
0.355476
0.35413
0.352839
0.351675
0.350464
0.349547
0.349393
0.349502
0.349881
0.350622
0.351667
0.352861
0.354112
0.355197
0.356031
0.356537
0.356903
0.356905
0.376198
0.376127
0.376135
0.376167
0.375609
0.373996
0.37143
0.368143
0.364913
0.363125
0.362751
0.362281
0.360796
0.358068
0.354989
0.353693
0.353809
0.355064
0.358128
0.365279
0.372637
0.376913
0.378235
0.378616
0.3792
0.380708
0.384057
0.390668
0.403656
0.419479
0.438813
0.459844
0.484429
0.508852
0.533245
0.553084
0.570524
0.582919
0.594813
0.603704
0.382605
0.384733
0.38868
0.404522
0.411242
0.41022
0.407312
0.408798
0.416076
0.440024
0.502574
0.550508
0.572844
0.581943
0.593447
0.61835
0.662372
0.760165
0.90668
1.05743
1.18858
1.27878
1.32165
1.3398
1.3638
1.40454
1.47939
1.63025
1.82242
2.02917
2.23945
2.44666
2.64304
2.81293
2.94786
3.04261
3.10949
3.15735
3.20875
3.26531
0.551838
0.706534
1.00772
1.50164
1.84132
1.98863
2.05816
2.15122
2.33481
2.91217
3.61138
4.12141
4.43838
4.61934
4.74669
4.91082
5.21527
6.02195
6.95629
7.7799
8.42174
8.87459
9.17049
9.36148
9.5095
9.69725
10.116
10.8275
11.631
12.4314
13.1692
13.814
14.3483
14.7647
15.0697
15.2876
15.451
15.5982
15.7571
15.9496
0.244715
0.245208
0.246315
0.248011
0.250262
0.253068
0.256681
0.261019
0.265936
0.271349
0.277182
0.283368
0.289868
0.296678
0.303828
0.311359
0.319315
0.327748
0.336716
0.346281
0.356499
0.367431
0.379178
0.391896
0.405754
0.420864
0.437295
0.45513
0.474473
0.495391
0.517902
0.541651
0.566419
0.59067
0.613418
0.631141
0.642535
0.638924
0.624926
0.593109
0.542504
0.474684
0.405654
0.40839
0.513303
0.795864
1.05114
1.39779
2.05025
2.96297
4.12465
5.50151
7.04033
8.66651
10.3083
11.9031
13.4022
14.7726
15.996
17.0609
17.9628
18.7087
19.3053
19.76
20.0899
20.2839
20.379
20.4079
20.3338
20.1954
19.9963
19.7411
19.4387
19.0949
18.7135
18.2961
17.8434
17.3548
16.8302
16.268
15.6677
15.0297
14.3552
13.6468
12.9064
12.1364
11.3392
10.5191
9.68309
8.83977
7.99972
7.17586
6.38434
5.64291
4.96214
4.33384
3.75184
3.21801
2.72095
2.26872
1.8759
1.56725
1.37592
1.39813
1.61316
1.91738
2.28718
2.72596
3.23865
3.82612
4.46546
5.13742
5.82325
6.50391
7.1622
7.78387
8.35577
8.86496
9.30254
9.66866
9.96428
10.1674
10.2436
10.2389
10.188
10.0518
9.80368
9.46781
9.0537
8.57111
8.034
7.4608
6.87244
6.28992
5.73132
5.20903
4.72793
4.28835
3.89977
3.56845
3.29084
3.05929
2.86563
2.70272
2.56472
2.44707
2.34624
2.25948
2.18471
2.12027
2.06485
2.01738
1.97699
1.94292
1.91453
1.89124
1.87258
1.85802
1.84717
1.83953
1.83451
1.83206
1.83183
1.8327
1.83478
1.83798
1.84144
1.84506
1.8485
1.85123
1.85317
1.85339
1.85282
1.84794
1.84405
1.82891
1.82145
1.78357
1.77373
1.67809
0.24585
0.246166
0.247021
0.248353
0.250139
0.252357
0.255018
0.258049
0.261337
0.264772
0.268246
0.271658
0.27494
0.278052
0.280978
0.283714
0.286275
0.288687
0.290991
0.293242
0.295497
0.297835
0.300356
0.303173
0.306368
0.309987
0.314086
0.318754
0.324108
0.330258
0.337331
0.345334
0.354496
0.364434
0.375718
0.387009
0.399113
0.406294
0.40993
0.405803
0.39119
0.359937
0.320698
0.334507
0.457701
0.759233
1.04423
1.40128
1.97573
2.69132
3.51692
4.41457
5.33949
6.24524
7.09697
7.87132
8.55416
9.13982
9.63099
10.0299
10.3391
10.5695
10.7322
10.8217
10.8537
10.8364
10.7788
10.6947
10.5614
10.4078
10.2292
10.0273
9.80671
9.56746
9.30962
9.03384
8.73961
8.42632
8.09398
7.74168
7.36948
6.97808
6.5689
6.14515
5.7116
5.27592
4.84732
4.43637
4.05401
3.70749
3.39962
3.12867
2.88757
2.6693
2.47054
2.29677
2.14727
2.01238
1.87912
1.74069
1.59325
1.45413
1.35923
1.37479
1.44722
1.53211
1.63615
1.76897
1.93697
2.14714
2.40016
2.68733
2.99947
3.32667
3.65811
3.98408
4.29543
4.5826
4.83817
5.06148
5.25355
5.39743
5.47096
5.50163
5.5009
5.46474
5.36525
5.20379
4.9967
4.74788
4.46446
4.15679
3.83708
3.51757
3.20874
2.91856
2.65249
2.41411
2.20618
2.02916
1.88086
1.7572
1.65388
1.56714
1.49393
1.43186
1.37904
1.334
1.2956
1.26291
1.23518
1.21181
1.19228
1.17614
1.163
1.15251
1.14438
1.1383
1.13406
1.13139
1.1299
1.12967
1.13042
1.13171
1.13351
1.1358
1.13817
1.14066
1.14302
1.14516
1.14682
1.14799
1.1485
1.14769
1.1466
1.14203
1.13909
1.12636
1.12244
1.09641
0.248695
0.24866
0.249171
0.250102
0.251436
0.253141
0.255185
0.257506
0.260008
0.262575
0.265088
0.267448
0.269586
0.27146
0.27305
0.274355
0.275391
0.276193
0.276813
0.277317
0.277768
0.27825
0.278865
0.279699
0.280749
0.281964
0.283316
0.284808
0.286443
0.288209
0.290068
0.291999
0.294168
0.296468
0.299414
0.302673
0.307579
0.311702
0.316001
0.317087
0.313808
0.300323
0.278984
0.301295
0.440546
0.752683
1.05687
1.42015
1.93367
2.52313
3.1586
3.80181
4.41773
4.97837
5.46832
5.88316
6.22285
6.48979
6.69366
6.84158
6.93493
6.98028
6.99369
6.96953
6.91682
6.83842
6.74443
6.6355
6.50255
6.36163
6.20829
6.0422
5.86634
5.67994
5.48218
5.27379
5.05409
4.82311
4.58154
4.32965
4.06904
3.80261
3.53521
3.27363
3.02545
2.79938
2.60176
2.43508
2.29787
2.18565
2.09116
2.00925
1.93913
1.87586
1.81855
1.77202
1.7331
1.6954
1.65055
1.5915
1.5132
1.43097
1.37295
1.37638
1.3937
1.40793
1.42794
1.46147
1.51128
1.58324
1.6846
1.81172
1.96168
2.13145
2.31441
2.50411
2.69427
2.87738
3.04664
3.20092
3.34153
3.45386
3.5223
3.56343
3.5809
3.57476
3.53819
3.45355
3.33389
3.18491
3.0103
2.81662
2.61199
2.40467
2.20162
2.00878
1.83168
1.67438
1.53795
1.4219
1.32446
1.24299
1.17482
1.11762
1.0695
1.02893
0.994699
0.965848
0.941599
0.921314
0.904463
0.890611
0.879379
0.870436
0.863488
0.85825
0.854548
0.852098
0.85077
0.850452
0.850703
0.851707
0.853295
0.855127
0.857212
0.859521
0.861805
0.86417
0.866372
0.868535
0.870263
0.871966
0.872989
0.873729
0.87376
0.872885
0.871841
0.867548
0.866123
0.859421
0.253663
0.252963
0.252921
0.253284
0.25405
0.255189
0.256652
0.258374
0.26027
0.262243
0.264187
0.266005
0.267646
0.269089
0.270311
0.271316
0.272137
0.272819
0.273426
0.274031
0.274696
0.275498
0.276525
0.277818
0.279278
0.280771
0.282214
0.283542
0.284668
0.285469
0.285734
0.285491
0.284779
0.283361
0.281503
0.279426
0.278081
0.277087
0.276981
0.276761
0.275239
0.268703
0.260664
0.291569
0.448686
0.768988
1.09091
1.45893
1.92727
2.42992
2.93864
3.41574
3.83348
4.17852
4.44727
4.6478
4.79068
4.87942
4.92242
4.9353
4.9175
4.87518
4.81643
4.73827
4.64892
4.54697
4.44047
4.32624
4.20316
4.07684
3.94573
3.80833
3.66734
3.52184
3.37161
3.21804
3.06143
2.90341
2.74621
2.59186
2.44343
2.30377
2.17635
2.06426
1.96865
1.89001
1.82755
1.78126
1.74781
1.72158
1.69872
1.67793
1.66062
1.64423
1.62941
1.61791
1.60651
1.5918
1.56959
1.53475
1.48485
1.43205
1.39489
1.38749
1.38007
1.36825
1.35732
1.35279
1.35477
1.36632
1.39583
1.44082
1.50063
1.57793
1.66878
1.77014
1.87912
1.99067
2.09909
2.2036
2.30547
2.3926
2.45434
2.49836
2.5264
2.53546
2.52716
2.49422
2.42756
2.33821
2.22897
2.1034
1.96709
1.82577
1.68423
1.54718
1.41991
1.30624
1.20722
1.12255
1.05094
0.990639
0.939909
0.897248
0.861409
0.831367
0.806279
0.785439
0.768259
0.754243
0.742966
0.73407
0.727246
0.72221
0.718723
0.716506
0.715428
0.715301
0.71581
0.717128
0.71881
0.720919
0.723345
0.725909
0.728565
0.7313
0.733918
0.736571
0.738993
0.741459
0.743447
0.745653
0.747055
0.748815
0.749491
0.750547
0.75056
0.750399
0.750409
0.751458
0.26148
0.259515
0.258636
0.258248
0.258337
0.258865
0.259776
0.260984
0.262407
0.263956
0.265538
0.267069
0.268549
0.26996
0.271299
0.272586
0.273859
0.275172
0.276585
0.278167
0.279962
0.282038
0.284457
0.287196
0.290016
0.292692
0.295119
0.297181
0.29871
0.299463
0.299172
0.2981
0.295829
0.292292
0.287735
0.282415
0.277162
0.272172
0.267955
0.264934
0.262398
0.258012
0.25954
0.30192
0.482607
0.812335
1.15058
1.52273
1.95523
2.39777
2.81007
3.16121
3.42891
3.61799
3.73138
3.78241
3.79696
3.77554
3.72958
3.66784
3.59032
3.50594
3.41507
3.31915
3.22182
3.12168
3.02376
2.92526
2.82681
2.72957
2.63364
2.5378
2.4441
2.35202
2.26187
2.17491
2.09134
2.01226
1.93881
1.87158
1.81244
1.76259
1.72193
1.68977
1.66486
1.64623
1.63282
1.62423
1.61934
1.61523
1.61076
1.60599
1.60177
1.59657
1.59084
1.58505
1.57692
1.56401
1.54462
1.51563
1.47789
1.44114
1.41251
1.39559
1.37766
1.35678
1.3342
1.3144
1.29677
1.2837
1.28119
1.2851
1.29708
1.32248
1.35713
1.40066
1.45348
1.51249
1.57356
1.63672
1.70346
1.76535
1.81515
1.85502
1.88551
1.90414
1.90813
1.90057
1.87409
1.82448
1.75855
1.67823
1.58781
1.49078
1.39046
1.29051
1.19547
1.10879
1.0321
0.965667
0.908766
0.860269
0.819069
0.784209
0.754879
0.73039
0.710136
0.69358
0.680246
0.669713
0.661608
0.65561
0.651439
0.648839
0.647589
0.647486
0.648157
0.649751
0.651879
0.654513
0.657447
0.660644
0.663996
0.667402
0.670803
0.674182
0.677362
0.680517
0.683368
0.686278
0.688646
0.691354
0.693131
0.695651
0.696767
0.699089
0.699788
0.701913
0.702913
0.707498
0.27328
0.268864
0.266646
0.265223
0.264495
0.264387
0.264779
0.265581
0.26669
0.26802
0.269489
0.271041
0.272685
0.274417
0.276245
0.278194
0.280305
0.282628
0.285218
0.288135
0.291448
0.295191
0.299331
0.303755
0.308168
0.312195
0.31577
0.318716
0.320792
0.321631
0.321111
0.319417
0.315959
0.310842
0.304303
0.296659
0.288472
0.280518
0.27351
0.268419
0.265052
0.262745
0.269916
0.332527
0.546122
0.885825
1.23949
1.61483
2.01958
2.40645
2.73174
2.97362
3.10723
3.15891
3.16525
3.11794
3.05182
2.96677
2.87877
2.78761
2.69586
2.60901
2.52488
2.4457
2.37095
2.2999
2.23424
2.17206
2.1133
2.0581
2.00647
1.95815
1.91325
1.8715
1.83285
1.79767
1.7656
1.73675
1.71098
1.68888
1.67102
1.6575
1.64764
1.64075
1.63603
1.63344
1.63232
1.63214
1.63226
1.63154
1.62938
1.62581
1.62145
1.61519
1.6067
1.5962
1.5828
1.56399
1.5406
1.51134
1.47853
1.44697
1.4192
1.39497
1.37019
1.34498
1.31905
1.29453
1.27027
1.2474
1.22977
1.21542
1.2052
1.20335
1.20632
1.21517
1.23255
1.25569
1.28214
1.31261
1.34885
1.38596
1.41937
1.44904
1.47474
1.49442
1.50563
1.50707
1.50104
1.48188
1.44566
1.39749
1.33988
1.27479
1.2049
1.13269
1.06143
0.994119
0.932879
0.878668
0.831357
0.790346
0.754997
0.724764
0.699177
0.677809
0.660252
0.646104
0.634976
0.626496
0.620321
0.616145
0.613696
0.612764
0.613011
0.614412
0.616735
0.619669
0.623119
0.626966
0.631069
0.635348
0.639685
0.64401
0.648255
0.652405
0.656286
0.66007
0.663485
0.666928
0.669776
0.672987
0.675199
0.678326
0.679888
0.683077
0.684379
0.687837
0.689866
0.695229
0.289272
0.281111
0.276977
0.274211
0.272539
0.271781
0.271755
0.272282
0.273282
0.274639
0.276283
0.27816
0.280284
0.282668
0.285333
0.288312
0.291642
0.295366
0.299521
0.304133
0.309205
0.314697
0.320503
0.326424
0.3322
0.337397
0.341983
0.345675
0.348143
0.348919
0.348125
0.345709
0.341016
0.334367
0.326022
0.316433
0.306247
0.296329
0.287523
0.280758
0.277048
0.277826
0.294625
0.386764
0.639609
0.991486
1.35941
1.73369
2.10767
2.4319
2.66708
2.77749
2.8045
2.76499
2.68727
2.5859
2.48629
2.38864
2.30343
2.2267
2.1599
2.1037
2.05471
2.01326
1.97688
1.94483
1.91677
1.89149
1.8685
1.84775
1.82905
1.8117
1.7958
1.78117
1.76788
1.75606
1.74565
1.73669
1.72936
1.72355
1.71942
1.71671
1.71496
1.71382
1.71292
1.71239
1.71171
1.71054
1.70833
1.70449
1.6985
1.68973
1.67914
1.66595
1.64923
1.62872
1.60488
1.57737
1.54639
1.51224
1.47745
1.44338
1.41068
1.37925
1.34971
1.32161
1.29415
1.26834
1.243
1.21877
1.19739
1.17634
1.15676
1.14117
1.12883
1.11977
1.11634
1.11732
1.1211
1.12902
1.14242
1.15861
1.17524
1.19201
1.20844
1.22311
1.23396
1.23936
1.23946
1.23512
1.22149
1.19519
1.16058
1.11946
1.07311
1.02271
0.970668
0.919172
0.870428
0.825925
0.786095
0.750798
0.719777
0.692814
0.669726
0.650326
0.634395
0.621668
0.611847
0.604616
0.599657
0.596672
0.595398
0.595433
0.596803
0.599688
0.603191
0.607301
0.611913
0.616892
0.622109
0.627462
0.632822
0.638121
0.643282
0.648287
0.652969
0.65748
0.661566
0.665614
0.669034
0.672767
0.675495
0.679145
0.68122
0.685051
0.686943
0.691214
0.694603
0.698734
0.309925
0.296394
0.289613
0.285138
0.2824
0.281022
0.280696
0.281161
0.282278
0.283936
0.286047
0.288569
0.291492
0.294844
0.298659
0.302974
0.307823
0.313224
0.319178
0.325659
0.332598
0.339878
0.347313
0.354596
0.361354
0.367516
0.372868
0.377021
0.379571
0.37999
0.378737
0.375305
0.369199
0.360885
0.350706
0.339245
0.327298
0.315895
0.306155
0.299236
0.297005
0.301148
0.33288
0.467881
0.764535
1.13056
1.50848
1.87162
2.20154
2.43734
2.55142
2.57222
2.51119
2.40657
2.29556
2.19095
2.10658
2.03897
1.98966
1.95335
1.9284
1.91248
1.90224
1.89626
1.8923
1.88956
1.88742
1.88531
1.88291
1.88066
1.87791
1.87476
1.87139
1.86776
1.86394
1.86014
1.85681
1.85389
1.8515
1.84954
1.84798
1.84653
1.84492
1.84282
1.83976
1.83615
1.83155
1.82562
1.8179
1.80794
1.79521
1.77851
1.75837
1.73455
1.70683
1.67505
1.63919
1.5997
1.55749
1.51382
1.47056
1.42838
1.38764
1.34916
1.31425
1.28256
1.25364
1.22752
1.20294
1.18019
1.15956
1.13932
1.1192
1.09944
1.08118
1.06418
1.04996
1.03885
1.03022
1.02413
1.02275
1.02377
1.02673
1.03178
1.03822
1.04528
1.05142
1.05533
1.05682
1.05635
1.05273
1.04203
1.02232
0.997899
0.968895
0.936008
0.900067
0.862128
0.824486
0.788856
0.755934
0.725938
0.698904
0.674876
0.653911
0.636046
0.621254
0.609433
0.600401
0.593917
0.58971
0.587495
0.586906
0.587412
0.589886
0.593805
0.598295
0.603417
0.609066
0.615095
0.621372
0.627775
0.63417
0.640481
0.646617
0.652544
0.658111
0.663432
0.668283
0.673007
0.677087
0.681374
0.684703
0.688844
0.691533
0.695874
0.698457
0.703248
0.708325
0.711378
0.335884
0.315016
0.304716
0.298113
0.294169
0.292198
0.2917
0.292292
0.293773
0.296003
0.298871
0.302329
0.306355
0.310952
0.316177
0.322058
0.3286
0.335783
0.343568
0.35187
0.360552
0.369424
0.378244
0.386699
0.394515
0.401577
0.40746
0.411747
0.413996
0.413779
0.411741
0.406884
0.399139
0.389007
0.376959
0.363729
0.350299
0.337909
0.327925
0.321702
0.321483
0.33093
0.388664
0.588177
0.920986
1.30166
1.68042
2.01581
2.27209
2.39135
2.40993
2.3459
2.23025
2.11544
2.02322
1.9559
1.91749
1.89978
1.89468
1.89824
1.90954
1.92258
1.93783
1.95503
1.97222
1.9882
2.00217
2.01374
2.02264
2.0289
2.03309
2.03538
2.03632
2.03644
2.035
2.03228
2.02929
2.02614
2.02289
2.01947
2.01581
2.01171
2.00697
2.00126
1.99397
1.98532
1.97496
1.96249
1.94743
1.92931
1.90767
1.88225
1.85219
1.81717
1.77688
1.73162
1.68201
1.62914
1.57365
1.51733
1.46156
1.40802
1.35727
1.31046
1.26873
1.23211
1.20031
1.17279
1.14857
1.1275
1.10897
1.09184
1.0751
1.05827
1.04042
1.02216
1.00447
0.988285
0.973617
0.960462
0.950306
0.942501
0.936649
0.932912
0.93117
0.931061
0.931356
0.931405
0.931102
0.930484
0.928938
0.924462
0.914026
0.899937
0.88268
0.862366
0.838965
0.812948
0.785439
0.758039
0.731957
0.707429
0.684621
0.663736
0.645012
0.628673
0.614884
0.603723
0.595156
0.589058
0.585232
0.583409
0.583092
0.583849
0.587017
0.591676
0.596933
0.602877
0.609402
0.616359
0.623612
0.631028
0.638457
0.645798
0.652947
0.659847
0.666368
0.672577
0.678283
0.683764
0.688599
0.693507
0.697532
0.702185
0.705596
0.710389
0.713863
0.718951
0.725554
0.728469
0.367697
0.337293
0.322572
0.313434
0.308141
0.305583
0.305008
0.305874
0.307917
0.310931
0.314776
0.319385
0.324729
0.330812
0.337634
0.345182
0.35343
0.362334
0.371823
0.38176
0.391963
0.402226
0.412308
0.421928
0.430803
0.438508
0.444603
0.448648
0.450159
0.449199
0.445806
0.439051
0.42946
0.417414
0.403566
0.388841
0.37444
0.361845
0.352619
0.348435
0.351028
0.375473
0.48333
0.751426
1.10725
1.49852
1.85967
2.13208
2.25984
2.29109
2.23142
2.11782
2.00644
1.93083
1.89427
1.88238
1.88637
1.90554
1.9285
1.96103
1.99918
2.03802
2.0758
2.11037
2.14102
2.16769
2.19033
2.20867
2.22266
2.23271
2.23929
2.24263
2.24398
2.24403
2.24196
2.23797
2.23276
2.22672
2.21992
2.21235
2.20398
2.19472
2.18443
2.17295
2.16017
2.14551
2.1286
2.10904
2.0863
2.05983
2.02903
1.99324
1.95208
1.90533
1.85285
1.79491
1.73196
1.66552
1.59539
1.52465
1.45436
1.38765
1.32537
1.26888
1.21924
1.17663
1.1407
1.11071
1.08573
1.06509
1.04797
1.03339
1.02021
1.00803
0.995273
0.980134
0.963927
0.947637
0.931685
0.916378
0.90259
0.890355
0.879723
0.870846
0.863765
0.858384
0.854026
0.850151
0.846862
0.844331
0.842046
0.838236
0.831735
0.823083
0.812551
0.800128
0.785415
0.768336
0.749575
0.729971
0.710326
0.691302
0.673026
0.655653
0.639492
0.624889
0.612164
0.601569
0.593249
0.587223
0.583404
0.58158
0.581262
0.582005
0.585248
0.590328
0.596073
0.602584
0.609775
0.617491
0.625579
0.633892
0.642277
0.650609
0.658762
0.66666
0.674178
0.681334
0.687968
0.694283
0.699958
0.70556
0.710363
0.715578
0.719788
0.725049
0.729473
0.734936
0.742655
0.746225
0.405232
0.363036
0.343116
0.331162
0.324465
0.32137
0.320822
0.322085
0.324838
0.328787
0.333769
0.339691
0.346495
0.354144
0.362609
0.371853
0.381825
0.392444
0.40359
0.41511
0.426814
0.438462
0.449752
0.460328
0.469779
0.477654
0.483483
0.486798
0.487126
0.485036
0.479649
0.470802
0.459113
0.445148
0.429761
0.414093
0.399591
0.387997
0.381315
0.381388
0.393064
0.450957
0.628625
0.94658
1.32065
1.70523
2.00791
2.15515
2.20107
2.14747
2.04009
1.93978
1.8893
1.87261
1.87784
1.90111
1.93814
1.99201
2.05019
2.1084
2.16296
2.21518
2.26334
2.30692
2.34544
2.37874
2.40647
2.42846
2.44463
2.45561
2.4619
2.46449
2.46497
2.46227
2.45752
2.45112
2.44295
2.43309
2.42171
2.40887
2.39465
2.37902
2.36192
2.3432
2.32265
2.30005
2.2751
2.24743
2.21653
2.18187
2.14279
2.09861
2.0487
1.99258
1.92988
1.86047
1.78448
1.70443
1.61857
1.53068
1.44678
1.36599
1.29136
1.22469
1.16705
1.11856
1.0786
1.04623
1.02025
0.999544
0.983218
0.970174
0.959214
0.950132
0.942456
0.932941
0.920999
0.907772
0.893854
0.879735
0.865961
0.852867
0.840682
0.82962
0.819921
0.811596
0.804285
0.797702
0.791958
0.787225
0.783099
0.778543
0.77295
0.766322
0.75885
0.750537
0.740975
0.729831
0.717352
0.704136
0.690511
0.676627
0.662778
0.649098
0.635763
0.623134
0.611618
0.601578
0.593337
0.587083
0.582857
0.580593
0.579987
0.580452
0.583021
0.588035
0.593905
0.600645
0.608168
0.616334
0.624993
0.633993
0.643167
0.652364
0.661446
0.670302
0.678805
0.686926
0.694528
0.701734
0.708313
0.714682
0.72033
0.726178
0.731234
0.737039
0.742371
0.748426
0.756803
0.761651
0.447102
0.391145
0.365567
0.350785
0.342828
0.339374
0.339019
0.340845
0.344474
0.349527
0.355811
0.363203
0.371619
0.380993
0.39126
0.402348
0.41416
0.426572
0.439428
0.45253
0.465629
0.478424
0.49056
0.501625
0.511159
0.518671
0.523659
0.525626
0.524566
0.520526
0.512604
0.501509
0.487769
0.47221
0.455945
0.440374
0.427286
0.418844
0.418184
0.42616
0.46291
0.577195
0.823148
1.17055
1.54927
1.8861
2.06701
2.12094
2.08192
1.97971
1.89924
1.86436
1.85912
1.88295
1.92327
1.99187
2.06737
2.14196
2.21455
2.28325
2.34745
2.40699
2.46117
2.50968
2.55214
2.58826
2.61767
2.64007
2.65522
2.66423
2.66875
2.67034
2.66851
2.66281
2.65398
2.64236
2.62828
2.61211
2.59418
2.5746
2.55352
2.531
2.50707
2.48166
2.45466
2.42583
2.39489
2.36151
2.3252
2.28532
2.24106
2.19144
2.13527
2.07177
2.00017
1.92013
1.83096
1.73394
1.6323
1.53232
1.43213
1.33682
1.24982
1.17344
1.10878
1.05576
1.0133
0.980006
0.954252
0.93442
0.919327
0.907903
0.898825
0.891559
0.886581
0.882028
0.874978
0.866087
0.855893
0.844864
0.833386
0.821817
0.810477
0.79959
0.789407
0.780112
0.771607
0.763743
0.756615
0.75034
0.744694
0.739168
0.733382
0.727223
0.720827
0.714268
0.707297
0.699583
0.691141
0.682315
0.673351
0.664083
0.654273
0.644028
0.633535
0.622941
0.612589
0.603066
0.594811
0.588148
0.583226
0.580045
0.578644
0.578626
0.579973
0.583957
0.589438
0.595906
0.603319
0.611537
0.620399
0.629725
0.63936
0.649152
0.658944
0.668592
0.677962
0.686976
0.695511
0.70361
0.711109
0.718289
0.724814
0.731361
0.737267
0.743712
0.749844
0.756718
0.765306
0.772098
0.490246
0.419585
0.388553
0.371343
0.362504
0.35902
0.359168
0.36187
0.366658
0.373088
0.380925
0.390014
0.400239
0.411502
0.423705
0.436736
0.450457
0.464699
0.479257
0.493875
0.508242
0.521991
0.534699
0.545892
0.555062
0.561689
0.565275
0.565371
0.562543
0.555807
0.545471
0.532269
0.517014
0.500809
0.485028
0.471389
0.462263
0.461126
0.469712
0.499994
0.581768
0.759671
1.0486
1.41172
1.75802
1.97331
2.04537
2.02974