/*--------------------------------*- C++ -*----------------------------------*\
| =========                 |                                                 |
| \\      /  F ield         | OpenFOAM: The Open Source CFD Toolbox           |
|  \\    /   O peration     | Version:  2112                                  |
|   \\  /    A nd           | Website:  www.openfoam.com                      |
|    \\/     M anipulation  |                                                 |
\*---------------------------------------------------------------------------*/
FoamFile
{
    version     2.0;
    format      ascii;
    arch        "LSB;label=32;scalar=64";
    class       volScalarField;
    location    "0.03";
    object      p;
}
// * * * * * * * * * * * * * * * * * * * * * * * * * * * * * * * * * * * * * //

dimensions      [0 2 -2 0 0 0 0];

internalField   nonuniform List<scalar> 
12885
(
-0.538683
-1.1305
-1.49189
-1.66209
-1.72763
-1.77622
-1.86295
-1.93771
-1.97635
-2.02477
-2.13713
-2.28093
-2.39036
-2.45255
-2.48097
-2.49683
-2.53826
-2.64435
-2.77829
-2.86691
-2.90204
-2.90954
-2.90366
-2.8931
-2.8929
-2.91835
-2.96797
-3.0239
-3.0685
-3.09303
-3.0947
-3.07309
-3.02831
-2.95924
-2.86488
-2.73362
-2.55459
-2.25518
-1.80741
-0.899004
-0.811246
-1.18905
-1.48764
-1.61426
-1.6514
-1.71169
-1.81579
-1.90798
-1.95006
-1.9449
-1.92811
-1.97752
-2.10241
-2.23505
-2.33215
-2.37743
-2.3731
-2.33275
-2.31353
-2.36116
-2.45143
-2.55265
-2.64806
-2.7223
-2.76324
-2.77185
-2.76396
-2.75671
-2.75672
-2.76228
-2.76889
-2.77047
-2.76169
-2.73807
-2.69807
-2.64133
-2.57925
-2.5492
-2.68111
-3.26428
-1.04561
-1.25101
-1.48811
-1.63003
-1.70871
-1.77845
-1.86388
-1.93831
-1.97721
-2.00261
-2.06007
-2.16053
-2.27285
-2.36409
-2.42202
-2.44905
-2.46574
-2.50151
-2.56234
-2.62691
-2.67912
-2.72094
-2.75856
-2.7892
-2.80875
-2.8203
-2.83023
-2.83904
-2.8427
-2.83788
-2.82436
-2.80355
-2.77698
-2.74783
-2.7217
-2.70832
-2.72615
-2.80583
-2.97125
-3.22871
-1.24226
-1.35058
-1.53121
-1.66402
-1.74194
-1.80556
-1.88052
-1.95247
-2.00592
-2.04628
-2.08814
-2.14911
-2.23014
-2.31246
-2.38086
-2.43261
-2.47157
-2.49918
-2.52118
-2.5513
-2.59427
-2.64593
-2.70017
-2.75065
-2.79222
-2.82275
-2.8422
-2.85249
-2.85637
-2.85629
-2.85385
-2.85166
-2.85315
-2.86121
-2.87825
-2.91158
-2.97034
-3.06518
-3.20021
-3.38798
-1.39907
-1.46834
-1.59524
-1.70424
-1.77707
-1.84052
-1.91166
-1.98083
-2.0349
-2.075
-2.11698
-2.17922
-2.25962
-2.34012
-2.40746
-2.45724
-2.49118
-2.51836
-2.55281
-2.59997
-2.65391
-2.70762
-2.75791
-2.80232
-2.83784
-2.86345
-2.88176
-2.89697
-2.91144
-2.92567
-2.94006
-2.95631
-2.97663
-3.00352
-3.03994
-3.09064
-3.16025
-3.25418
-3.37841
-3.54126
-1.53146
-1.57432
-1.66849
-1.75432
-1.82231
-1.885
-1.95145
-2.01515
-2.06794
-2.11263
-2.16167
-2.22479
-2.29782
-2.36885
-2.42936
-2.47723
-2.51646
-2.55446
-2.59662
-2.64302
-2.69061
-2.73712
-2.78146
-2.82211
-2.85765
-2.88818
-2.91523
-2.94019
-2.96375
-2.98656
-3.01003
-3.03606
-3.06688
-3.10483
-3.15239
-3.21218
-3.28688
-3.37901
-3.49003
-3.61803
-1.65071
-1.66554
-1.74179
-1.81181
-1.87446
-1.93456
-1.99616
-2.05555
-2.10844
-2.15731
-2.20953
-2.26987
-2.33539
-2.39917
-2.45619
-2.50553
-2.54969
-2.59204
-2.63495
-2.67932
-2.72467
-2.7699
-2.81386
-2.8554
-2.89371
-2.92867
-2.96086
-2.9912
-3.02084
-3.05105
-3.08328
-3.11899
-3.15974
-3.20701
-3.2622
-3.32655
-3.40105
-3.48604
-3.58096
-3.68403
-1.75828
-1.75209
-1.80989
-1.87208
-1.92931
-1.98643
-2.04427
-2.10084
-2.15389
-2.20478
-2.25768
-2.31527
-2.3758
-2.43519
-2.49033
-2.54046
-2.58676
-2.63108
-2.67522
-2.72014
-2.76564
-2.81089
-2.855
-2.89728
-2.93729
-2.97511
-3.0113
-3.04677
-3.08255
-3.11963
-3.15901
-3.20169
-3.24868
-3.30081
-3.35878
-3.42308
-3.49389
-3.57082
-3.65302
-3.739
-1.85469
-1.83719
-1.87568
-1.93181
-1.9847
-2.03897
-2.09404
-2.14871
-2.20169
-2.25359
-2.30665
-2.3623
-2.41948
-2.47583
-2.52946
-2.57976
-2.62734
-2.6734
-2.71907
-2.76488
-2.81066
-2.85595
-2.9003
-2.94339
-2.98512
-3.0257
-3.06564
-3.10562
-3.14632
-3.18843
-3.23264
-3.27966
-3.33014
-3.38447
-3.44277
-3.5051
-3.57132
-3.64076
-3.71232
-3.78466
-1.94143
-1.91993
-1.94353
-1.99025
-2.03965
-2.09092
-2.14376
-2.19705
-2.25006
-2.3028
-2.35609
-2.41041
-2.46515
-2.51922
-2.57172
-2.62213
-2.67073
-2.71819
-2.76505
-2.8116
-2.85779
-2.90344
-2.94839
-2.99256
-3.03601
-3.07896
-3.12185
-3.16519
-3.20942
-3.2549
-3.30199
-3.35109
-3.40259
-3.4565
-3.51236
-3.57026
-3.63051
-3.69241
-3.75452
-3.81573
-2.01821
-1.99933
-2.01354
-2.0492
-2.09377
-2.14159
-2.19204
-2.24407
-2.2969
-2.3501
-2.4036
-2.45724
-2.51065
-2.5635
-2.61544
-2.6661
-2.71555
-2.7641
-2.812
-2.85938
-2.90623
-2.95254
-2.99829
-3.0435
-3.0883
-3.13283
-3.17744
-3.22251
-3.26828
-3.31477
-3.36189
-3.41006
-3.46005
-3.51181
-3.56453
-3.61775
-3.67134
-3.72503
-3.77826
-3.83039
-2.08291
-2.07123
-2.08167
-2.10909
-2.14708
-2.19045
-2.23739
-2.28725
-2.33896
-2.39178
-2.44509
-2.49838
-2.55124
-2.60367
-2.65559
-2.70673
-2.75692
-2.80634
-2.8551
-2.90324
-2.95076
-2.99768
-3.04406
-3.08993
-3.13535
-3.18028
-3.22503
-3.27015
-3.31586
-3.36202
-3.4086
-3.45575
-3.50359
-3.552
-3.60076
-3.64965
-3.69846
-3.74686
-3.79442
-3.84062
-2.14466
-2.13984
-2.14969
-2.17257
-2.20443
-2.24249
-2.28486
-2.33123
-2.38076
-2.43212
-2.48428
-2.53657
-2.5886
-2.6403
-2.69168
-2.74266
-2.79312
-2.843
-2.89226
-2.94082
-2.98867
-3.03583
-3.08237
-3.1284
-3.17404
-3.2194
-3.26465
-3.31
-3.35553
-3.40129
-3.4473
-3.49353
-3.53991
-3.58623
-3.63229
-3.67788
-3.72278
-3.76675
-3.80945
-3.85054
-2.21513
-2.21342
-2.2224
-2.24252
-2.27033
-2.30355
-2.34133
-2.38386
-2.43065
-2.47985
-2.52999
-2.58036
-2.6307
-2.68094
-2.73115
-2.78125
-2.83115
-2.88074
-2.92987
-2.97843
-3.02637
-3.07369
-3.12046
-3.16682
-3.21289
-3.25882
-3.30468
-3.35049
-3.39619
-3.44172
-3.48699
-3.53189
-3.57627
-3.61999
-3.66288
-3.7048
-3.7456
-3.78518
-3.82331
-3.85981
-2.29439
-2.29406
-2.30201
-2.31944
-2.3441
-2.37399
-2.40824
-2.44715
-2.49083
-2.53773
-2.58585
-2.63439
-2.68319
-2.73218
-2.78128
-2.83039
-2.87943
-2.9283
-2.9769
-3.02514
-3.07298
-3.12038
-3.16736
-3.21394
-3.26012
-3.30593
-3.35132
-3.39625
-3.44064
-3.48439
-3.52742
-3.56965
-3.61096
-3.65128
-3.69051
-3.72858
-3.76542
-3.80098
-3.83513
-3.86776
-2.37672
-2.37704
-2.38422
-2.39958
-2.42166
-2.44894
-2.48037
-2.51577
-2.55579
-2.60021
-2.64699
-2.69444
-2.74221
-2.7903
-2.83857
-2.88689
-2.93513
-2.9832
-3.03104
-3.07859
-3.12579
-3.1726
-3.21895
-3.26479
-3.31006
-3.35469
-3.39862
-3.44176
-3.48406
-3.52545
-3.56587
-3.60527
-3.64358
-3.68077
-3.71679
-3.75161
-3.78521
-3.81758
-3.84864
-3.87836
-2.45033
-2.45093
-2.45766
-2.4718
-2.49223
-2.51771
-2.54729
-2.58034
-2.61745
-2.65961
-2.70546
-2.75255
-2.79989
-2.84745
-2.89522
-2.94303
-2.99074
-3.03823
-3.08542
-3.13222
-3.17855
-3.22434
-3.26951
-3.31398
-3.35768
-3.40055
-3.44251
-3.48352
-3.52352
-3.56248
-3.60035
-3.6371
-3.67272
-3.70718
-3.74048
-3.77262
-3.80358
-3.8334
-3.86203
-3.8895
-2.49058
-2.49113
-2.4976
-2.5113
-2.53121
-2.55615
-2.58517
-2.61764
-2.65406
-2.69554
-2.74114
-2.78833
-2.83573
-2.88326
-2.93093
-2.97862
-3.02614
-3.0734
-3.12026
-3.16665
-3.21246
-3.25761
-3.30202
-3.34563
-3.38837
-3.4302
-3.47108
-3.51097
-3.54984
-3.58767
-3.62446
-3.66018
-3.69483
-3.72841
-3.76093
-3.79239
-3.82282
-3.85222
-3.8806
-3.90802
-2.46539
-2.46596
-2.4733
-2.48854
-2.51022
-2.5369
-2.56753
-2.60148
-2.63988
-2.6838
-2.73115
-2.77926
-2.82754
-2.87606
-2.92474
-2.97338
-3.0218
-3.06989
-3.11754
-3.16464
-3.21112
-3.25687
-3.30184
-3.34595
-3.38915
-3.4314
-3.47266
-3.51291
-3.55214
-3.59035
-3.62752
-3.66366
-3.69878
-3.73289
-3.766
-3.79812
-3.82927
-3.85946
-3.88874
-3.91713
-2.42617
-2.42651
-2.43464
-2.45163
-2.47545
-2.50427
-2.53685
-2.57303
-2.61403
-2.65991
-2.7082
-2.757
-2.80613
-2.85564
-2.90539
-2.95512
-3.00462
-3.05371
-3.10226
-3.15017
-3.19738
-3.24385
-3.28952
-3.33436
-3.37832
-3.42136
-3.46343
-3.50449
-3.54453
-3.58354
-3.6215
-3.65842
-3.69433
-3.72922
-3.76313
-3.79607
-3.82807
-3.85915
-3.88934
-3.91869
-2.372
-2.37219
-2.38193
-2.40186
-2.42901
-2.46107
-2.49665
-2.53599
-2.58013
-2.62827
-2.67793
-2.72793
-2.77831
-2.82912
-2.88021
-2.93133
-2.98221
-3.03261
-3.08236
-3.13133
-3.17949
-3.22683
-3.27336
-3.31907
-3.36392
-3.40786
-3.45084
-3.49279
-3.53367
-3.57346
-3.61214
-3.64973
-3.68625
-3.72172
-3.7562
-3.78972
-3.82232
-3.85403
-3.88491
-3.91499
-2.3062
-2.30611
-2.31845
-2.34259
-2.37399
-2.41003
-2.44954
-2.4925
-2.53957
-2.58999
-2.64172
-2.69371
-2.74591
-2.79836
-2.85095
-2.90351
-2.9558
-3.00757
-3.05861
-3.10878
-3.15803
-3.20638
-3.25387
-3.30053
-3.34636
-3.39132
-3.43535
-3.4784
-3.52042
-3.56136
-3.60124
-3.64005
-3.67782
-3.71458
-3.75037
-3.78522
-3.81914
-3.85217
-3.88433
-3.91563
-2.23086
-2.2293
-2.24572
-2.27544
-2.31153
-2.35135
-2.39416
-2.43985
-2.48874
-2.54039
-2.59365
-2.64753
-2.70148
-2.75517
-2.80849
-2.86146
-2.91421
-2.96678
-3.01905
-3.07074
-3.12153
-3.17115
-3.2195
-3.26655
-3.31239
-3.35716
-3.40096
-3.44384
-3.4858
-3.52678
-3.56674
-3.60563
-3.64343
-3.68016
-3.7158
-3.75039
-3.78395
-3.81652
-3.84814
-3.87882
-2.1438
-2.13957
-2.16319
-2.20083
-2.24242
-2.28593
-2.33106
-2.3779
-2.4272
-2.47949
-2.53407
-2.58945
-2.64438
-2.6983
-2.75134
-2.80407
-2.85704
-2.91048
-2.96424
-3.01775
-3.07033
-3.12137
-3.17057
-3.2179
-3.26362
-3.30814
-3.35194
-3.39537
-3.43861
-3.48161
-3.52419
-3.56608
-3.60705
-3.6469
-3.68549
-3.72277
-3.75875
-3.79351
-3.82716
-3.85995
-2.04087
-2.03749
-2.07137
-2.12034
-2.16935
-2.2178
-2.26571
-2.31293
-2.36142
-2.41414
-2.47141
-2.53022
-2.5874
-2.64154
-2.69317
-2.74434
-2.79732
-2.85304
-2.91049
-2.96767
-3.02294
-3.07536
-3.12466
-3.17113
-3.21563
-3.2591
-3.30204
-3.34449
-3.38632
-3.42744
-3.46785
-3.50755
-3.54645
-3.58442
-3.62128
-3.65687
-3.69106
-3.7238
-3.75504
-3.78474
-1.9185
-1.92121
-1.97361
-2.03987
-2.09891
-2.15404
-2.20631
-2.25425
-2.30018
-2.35111
-2.41112
-2.47582
-2.53839
-2.59511
-2.64519
-2.69084
-2.7381
-2.79331
-2.85712
-2.9246
-2.99002
-3.0498
-3.10225
-3.14726
-3.18693
-3.22546
-3.26735
-3.31473
-3.36646
-3.41987
-3.4727
-3.52354
-3.57164
-3.61652
-3.65793
-3.69597
-3.73113
-3.76427
-3.79633
-3.82814
-1.7701
-1.78858
-1.87874
-1.96977
-2.04067
-2.10225
-2.1578
-2.20723
-2.25323
-2.30323
-2.36375
-2.43103
-2.49639
-2.55541
-2.60834
-2.65584
-2.69811
-2.74108
-2.79262
-2.85314
-2.91764
-2.98101
-3.03941
-3.09043
-3.13286
-3.16638
-3.19361
-3.22051
-3.25192
-3.28911
-3.33136
-3.37736
-3.42559
-3.47432
-3.52182
-3.56645
-3.60703
-3.64303
-3.67463
-3.70234
-1.58314
-1.66202
-1.80268
-1.91484
-1.9985
-2.06916
-2.12293
-2.16181
-2.20543
-2.27158
-2.35543
-2.43798
-2.50515
-2.55328
-2.5876
-2.62571
-2.68673
-2.77303
-2.86926
-2.95817
-3.03221
-3.09002
-3.13107
-3.15839
-3.18278
-3.21877
-3.27277
-3.33993
-3.41054
-3.47615
-3.53344
-3.58303
-3.62634
-3.6637
-3.69524
-3.72206
-3.74625
-3.76985
-3.79468
-3.82171
-1.35804
-1.57832
-1.76868
-1.86993
-1.95035
-2.03313
-2.09789
-2.13352
-2.14272
-2.16521
-2.23782
-2.33858
-2.43172
-2.49842
-2.5326
-2.53785
-2.5268
-2.5426
-2.61449
-2.71927
-2.82909
-2.92864
-3.0045
-3.04511
-3.0485
-3.02523
-3.00141
-3.00788
-3.05093
-3.11632
-3.19241
-3.27383
-3.35731
-3.43735
-3.50656
-3.55947
-3.59508
-3.61629
-3.62855
-3.63719
-1.08049
-1.50436
-1.78369
-1.90489
-1.97456
-2.04327
-2.09449
-2.13254
-2.18922
-2.27853
-2.37785
-2.46183
-2.52168
-2.55811
-2.5833
-2.6275
-2.72428
-2.85784
-2.98002
-3.07066
-3.13188
-3.16887
-3.18617
-3.19201
-3.20698
-3.26041
-3.36046
-3.47807
-3.58166
-3.66058
-3.7161
-3.75384
-3.77801
-3.79073
-3.7947
-3.79507
-3.79877
-3.81198
-3.83758
-3.87493
-6.43201
-6.41653
-6.40918
-6.40022
-6.38835
-6.3785
-6.37247
-6.36798
-6.36454
-6.36288
-6.36363
-6.36716
-6.3736
-6.38293
-6.39515
-6.41034
-6.42857
-6.44998
-6.47476
-6.50318
-6.53553
-6.5721
-6.6131
-6.65878
-6.7095
-6.76546
-6.8265
-6.89207
-6.96126
-7.03282
-7.10504
-7.1757
-7.24204
-7.3009
-7.34874
-7.38199
-7.39755
-7.39398
-7.37192
-7.33459
-7.28928
-7.24623
-7.21699
-7.21909
-7.28307
-7.4206
-7.59905
-7.833
-8.23018
-8.80594
-9.59388
-10.6263
-11.8952
-13.3609
-14.961
-16.6224
-18.2763
-19.8604
-21.3254
-22.6357
-23.7662
-24.7022
-25.4375
-25.9717
-26.3096
-26.4594
-26.4322
-26.2441
-25.9098
-25.4442
-24.8643
-24.1845
-23.4165
-22.5713
-21.6586
-20.6857
-19.6583
-18.5795
-17.4508
-16.2715
-15.0394
-13.7508
-12.4005
-10.9827
-9.49109
-7.91929
-6.26118
-4.51171
-2.6676
-0.728756
1.30062
3.40935
5.58482
7.80902
10.055
12.2896
14.48
16.5914
18.588
20.4283
22.0701
23.4757
24.6041
25.5146
26.1987
26.6068
26.7873
26.7715
26.5914
26.2796
25.8694
25.383
24.847
24.2855
23.7157
23.1507
22.6
22.071
21.5693
21.0986
20.6626
20.265
19.9031
19.5771
19.2879
19.035
18.8157
18.6267
18.4646
18.3257
18.2064
18.1024
18.0097
17.9257
17.8487
17.7767
17.7065
17.6368
17.566
17.4962
17.4331
17.3773
17.328
17.284
17.244
17.2069
17.1719
17.1388
17.1076
17.0785
17.0519
17.0284
17.0084
16.9923
16.9804
16.9731
16.9705
16.9726
16.9792
16.9901
17.0049
17.0231
17.0442
17.0676
17.0926
17.1188
17.1457
17.1727
17.1997
17.2264
17.2532
17.2798
17.3078
17.3357
17.3693
17.4016
17.4509
17.4932
17.5858
17.6645
-6.45109
-6.4342
-6.43073
-6.42922
-6.42879
-6.42921
-6.42864
-6.42696
-6.42525
-6.42434
-6.42474
-6.42691
-6.43118
-6.43776
-6.44688
-6.45881
-6.47377
-6.49199
-6.5137
-6.5392
-6.56881
-6.60283
-6.6415
-6.68507
-6.73379
-6.78775
-6.84669
-6.91006
-6.97697
-7.04613
-7.11582
-7.18378
-7.24721
-7.30275
-7.34695
-7.37711
-7.38948
-7.38266
-7.35734
-7.31794
-7.272
-7.23078
-7.20352
-7.19889
-7.23618
-7.33274
-7.50653
-7.75215
-8.11156
-8.65069
-9.42385
-10.4537
-11.7232
-13.1938
-14.8022
-16.4743
-18.1405
-19.7376
-21.2153
-22.5378
-23.6798
-24.6266
-25.3716
-25.9148
-26.2601
-26.4167
-26.3968
-26.2137
-25.8829
-25.4207
-24.8417
-24.1609
-23.397
-22.5543
-21.6427
-20.6701
-19.6424
-18.5631
-17.4336
-16.2535
-15.0208
-13.7318
-12.3813
-10.9635
-9.47237
-7.90165
-6.24572
-4.50008
-2.6619
-0.731545
1.28672
3.38415
5.54665
7.75571
9.98574
12.2029
14.3734
16.4609
18.4254
20.2239
21.8179
23.1976
24.3616
25.3004
26.0087
26.4597
26.6739
26.6825
26.5217
26.2261
25.8292
25.3533
24.8256
24.2704
23.7054
23.1441
22.5963
22.0697
21.5702
21.1019
20.668
20.2729
19.9082
19.5843
19.2967
19.0435
18.8237
18.6347
18.4727
18.3337
18.2142
18.1099
18.0169
17.9324
17.8549
17.7827
17.7127
17.6432
17.5721
17.5019
17.4382
17.3818
17.3321
17.2877
17.2473
17.2099
17.1747
17.1414
17.1099
17.0807
17.0539
17.0303
17.0101
16.9938
16.9817
16.9742
16.9714
16.9733
16.9798
16.9905
17.0052
17.0232
17.0442
17.0675
17.0925
17.1186
17.1454
17.1724
17.1995
17.2263
17.2532
17.2798
17.308
17.3361
17.3699
17.4024
17.4525
17.4947
17.5907
17.6598
-6.46131
-6.43644
-6.43231
-6.43136
-6.43051
-6.4306
-6.43123
-6.43201
-6.43311
-6.43489
-6.43778
-6.44228
-6.44854
-6.45664
-6.46683
-6.47946
-6.49484
-6.51322
-6.53491
-6.56023
-6.5896
-6.62333
-6.66163
-6.70478
-6.7531
-6.80665
-6.86506
-6.92772
-6.99375
-7.06185
-7.13028
-7.19678
-7.25868
-7.3129
-7.35592
-7.38387
-7.39431
-7.38561
-7.35839
-7.31692
-7.2685
-7.22461
-7.19444
-7.18869
-7.22614
-7.31879
-7.49521
-7.73474
-8.09343
-8.62546
-9.39081
-10.4161
-11.6848
-13.157
-14.7687
-16.4447
-18.1148
-19.7159
-21.1976
-22.5235
-23.6688
-24.6187
-25.3664
-25.9118
-26.2593
-26.4178
-26.3993
-26.2172
-25.8873
-25.426
-24.849
-24.1719
-23.4029
-22.558
-21.6452
-20.6718
-19.6435
-18.5639
-17.4342
-16.2542
-15.0219
-13.7337
-12.3846
-10.969
-9.48113
-7.91491
-6.26461
-4.52557
-2.69496
-0.772864
1.23665
3.3248
5.47818
7.67803
9.89839
12.105
14.2653
16.3419
18.2956
20.0871
21.683
23.0808
24.2752
25.2258
25.9111
26.3642
26.5871
26.6061
26.4561
26.1708
25.7831
25.3154
24.7951
24.2459
23.6859
23.1288
22.5844
22.0606
21.5633
21.0967
20.6638
20.2653
19.9067
19.5843
19.2981
19.046
18.8268
18.6383
18.4767
18.3381
18.2189
18.1146
18.0217
17.9371
17.8594
17.787
17.717
17.647
17.5753
17.505
17.4411
17.3845
17.3345
17.2899
17.2494
17.2118
17.1765
17.1431
17.1115
17.0821
17.0553
17.0315
17.0112
16.9947
16.9825
16.9749
16.972
16.9738
16.9801
16.9907
17.0053
17.0233
17.0442
17.0674
17.0924
17.1185
17.1453
17.1723
17.1994
17.2262
17.2531
17.2798
17.308
17.3361
17.3701
17.4026
17.4529
17.4948
17.5912
17.6516
-6.4744
-6.43849
-6.43351
-6.43347
-6.43242
-6.43135
-6.43096
-6.43133
-6.43251
-6.43478
-6.43863
-6.44462
-6.45271
-6.46268
-6.47474
-6.48928
-6.50654
-6.52671
-6.55004
-6.57683
-6.60744
-6.64216
-6.68119
-6.72482
-6.77363
-6.8277
-6.88647
-6.94922
-7.01505
-7.08268
-7.15034
-7.21578
-7.27634
-7.32887
-7.3699
-7.39601
-7.40456
-7.39383
-7.36436
-7.31989
-7.26751
-7.21853
-7.18286
-7.17451
-7.21369
-7.31247
-7.48799
-7.72642
-8.08733
-8.62447
-9.39524
-10.4265
-11.703
-13.1823
-14.8005
-16.4813
-18.1535
-19.7553
-21.2366
-22.5615
-23.7051
-24.6532
-25.399
-25.9421
-26.2874
-26.4435
-26.4224
-26.2376
-25.905
-25.4411
-24.8611
-24.1807
-23.4119
-22.5659
-21.652
-20.678
-19.6497
-18.5707
-17.4423
-16.2643
-15.0347
-13.75
-12.4054
-10.9952
-9.51364
-7.95462
-6.31212
-4.58136
-2.75959
-0.846336
1.15481
3.23475
5.38011
7.57279
9.78656
11.9877
14.1457
16.2242
18.1856
19.9972
21.6237
23.0456
24.2391
25.1672
25.833
26.2732
26.4949
26.518
26.3754
26.0991
25.7205
25.2621
24.7506
24.2092
23.6559
23.1044
22.5647
22.0447
21.5506
21.0866
20.6559
20.2598
19.9016
19.5803
19.295
19.0439
18.8254
18.6371
18.4758
18.3376
18.2186
18.1147
18.022
17.9377
17.8602
17.788
17.7181
17.6479
17.5761
17.5061
17.4424
17.386
17.3361
17.2916
17.2511
17.2135
17.1782
17.1447
17.113
17.0835
17.0566
17.0327
17.0123
16.9957
16.9834
16.9756
16.9726
16.9743
16.9805
16.991
17.0055
17.0234
17.0443
17.0674
17.0923
17.1184
17.1452
17.1722
17.1993
17.2261
17.253
17.2797
17.308
17.336
17.37
17.4024
17.4528
17.494
17.5893
17.6409
-6.48502
-6.44196
-6.43506
-6.4359
-6.43534
-6.43416
-6.43352
-6.43373
-6.43486
-6.43713
-6.44134
-6.44817
-6.45726
-6.46821
-6.48141
-6.49729
-6.51612
-6.53807
-6.56331
-6.59209
-6.6247
-6.66128
-6.70187
-6.74678
-6.79669
-6.85196
-6.91173
-6.97514
-7.04129
-7.1089
-7.17619
-7.24091
-7.30035
-7.35138
-7.39062
-7.41469
-7.42098
-7.40771
-7.37519
-7.32655
-7.26839
-7.21178
-7.16827
-7.15683
-7.19784
-7.30073
-7.47403
-7.71248
-8.07779
-8.6252
-9.41012
-10.4568
-11.7504
-13.2445
-14.8734
-16.5617
-18.2368
-19.838
-21.3168
-22.6377
-23.7767
-24.7198
-25.4605
-25.9986
-26.3388
-26.4901
-26.464
-26.2744
-25.9375
-25.4695
-24.8857
-24.2027
-23.4322
-22.5851
-21.6708
-20.697
-19.6698
-18.5926
-17.467
-16.2926
-15.0675
-13.7881
-12.4497
-11.0463
-9.57228
-8.02142
-6.38752
-4.66561
-2.85268
-0.947876
1.04551
3.11797
5.25625
7.4434
9.6539
11.855
14.0174
16.1093
18.0897
19.9271
21.5802
23.0121
24.1992
25.1123
25.763
26.1866
26.3997
26.4189
26.2768
26.0065
25.6358
25.1871
24.6858
24.1539
23.609
23.0651
22.532
22.0175
21.5282
21.0684
20.6412
20.248
19.8915
19.5719
19.2879
19.038
18.8205
18.6328
18.4718
18.334
18.2155
18.112
18.02
17.9363
17.8594
17.7876
17.7181
17.6482
17.5768
17.5074
17.4443
17.3882
17.3385
17.2941
17.2537
17.2161
17.1807
17.1471
17.1154
17.0858
17.0587
17.0346
17.0141
16.9973
16.9848
16.9768
16.9736
16.9751
16.9812
16.9916
17.0059
17.0237
17.0445
17.0675
17.0924
17.1184
17.1452
17.1721
17.1992
17.226
17.2529
17.2795
17.3078
17.3358
17.3698
17.402
17.4521
17.4923
17.5856
17.6278
-6.49122
-6.44848
-6.43926
-6.43949
-6.43876
-6.43738
-6.4366
-6.43677
-6.43797
-6.44047
-6.44519
-6.4527
-6.46253
-6.47423
-6.48819
-6.50491
-6.52469
-6.54778
-6.57443
-6.60489
-6.63941
-6.67807
-6.72074
-6.76773
-6.81982
-6.87722
-6.93877
-7.00349
-7.07059
-7.13883
-7.20643
-7.27113
-7.33019
-7.38044
-7.4185
-7.44098
-7.44513
-7.42911
-7.39287
-7.33892
-7.27315
-7.20632
-7.15283
-7.13777
-7.18076
-7.28525
-7.45573
-7.69716
-8.07287
-8.63934
-9.44948
-10.5243
-11.8453
-13.3627
-15.0066
-16.7029
-18.3796
-19.9775
-21.4496
-22.7621
-23.892
-24.8259
-25.5577
-26.0873
-26.4197
-26.5636
-26.5305
-26.3344
-25.9915
-25.5184
-24.9315
-24.2444
-23.4714
-22.6229
-21.7079
-20.7343
-19.7082
-18.6333
-17.5108
-16.3404
-15.1202
-13.8467
-12.5147
-11.1182
-9.65169
-8.10896
-6.48367
-4.77047
-2.9659
-1.069
0.917479
2.98404
5.11746
7.30189
9.51434
11.724
13.898
16.0086
18.0102
19.863
21.5244
22.9565
24.1401
25.0533
25.7034
26.1217
26.3245
26.3345
26.184
25.9105
25.5394
25.0964
24.6038
24.0814
23.5455
23.0099
22.4844
21.9767
21.4934
21.039
20.6165
20.2274
19.8742
19.5571
19.2752
19.0269
18.8108
18.6243
18.4641
18.3269
18.209
18.1065
18.0155
17.9328
17.8569
17.786
17.7173
17.6481
17.5777
17.5094
17.447
17.3914
17.3421
17.2979
17.2575
17.2199
17.1844
17.1507
17.1188
17.089
17.0617
17.0374
17.0166
16.9996
16.9868
16.9786
16.9752
16.9765
16.9823
16.9925
17.0066
17.0243
17.0449
17.0678
17.0926
17.1185
17.1452
17.1721
17.1991
17.2258
17.2527
17.2793
17.3075
17.3354
17.3692
17.4011
17.4506
17.4894
17.5794
17.6119
-6.49629
-6.45704
-6.44638
-6.44521
-6.44372
-6.44191
-6.44092
-6.44112
-6.44261
-6.44558
-6.45088
-6.45922
-6.4701
-6.48299
-6.49809
-6.51583
-6.53653
-6.56054
-6.58816
-6.61971
-6.65554
-6.69584
-6.7405
-6.78952
-6.84386
-6.9036
-6.96747
-7.03409
-7.10278
-7.17241
-7.24118
-7.30679
-7.36647
-7.41697
-7.45478
-7.47644
-7.47898
-7.46033
-7.42002
-7.35986
-7.28493
-7.20539
-7.14005
-7.12096
-7.16557
-7.2697
-7.43845
-7.68942
-8.08644
-8.687
-9.53919
-10.6587
-12.0188
-13.5664
-15.2279
-16.9298
-18.6033
-20.1914
-21.65
-22.9473
-24.0618
-24.981
-25.6991
-26.2163
-26.5373
-26.6708
-26.6281
-26.4231
-26.072
-25.592
-24.9989
-24.3071
-23.5304
-22.6793
-21.7625
-20.788
-19.7623
-18.6891
-17.5694
-16.4031
-15.1879
-13.9202
-12.5948
-11.2055
-9.74653
-8.21214
-6.59556
-4.89109
-3.09491
-1.20591
0.774058
2.83734
4.97018
7.15603
9.37374
11.5955
13.7835
15.9044
17.9155
19.7724
21.4334
22.8663
24.0514
24.9709
25.6306
26.0552
26.258
26.2666
26.1117
25.83
25.4504
25.0037
24.5121
23.9968
23.4692
22.9415
22.4235
21.9228
21.4459
20.9974
20.5803
20.1963
19.8473
19.5338
19.2548
19.0088
18.7946
18.6097
18.4509
18.3149
18.1979
18.0967
18.0071
17.926
17.8516
17.7821
17.7148
17.647
17.5782
17.5116
17.4504
17.3957
17.3468
17.3029
17.2626
17.225
17.1894
17.1556
17.1234
17.0934
17.0658
17.0412
17.0201
17.0027
16.9896
16.9811
16.9773
16.9783
16.9839
16.9938
17.0077
17.0252
17.0456
17.0684
17.093
17.1188
17.1454
17.1722
17.1991
17.2257
17.2525
17.2789
17.307
17.3346
17.3681
17.3995
17.4479
17.4848
17.5701
17.5928
-6.5013
-6.46682
-6.45584
-6.45339
-6.45108
-6.44884
-6.44767
-6.44799
-6.44992
-6.45362
-6.45956
-6.46841
-6.48024
-6.4946
-6.5113
-6.53061
-6.55287
-6.57843
-6.60761
-6.64072
-6.6781
-6.71992
-6.76612
-6.81679
-6.87285
-6.93439
-7.00023
-7.06896
-7.13981
-7.21157
-7.28241
-7.34996
-7.41133
-7.46316
-7.50176
-7.52349
-7.52508
-7.50416
-7.45977
-7.39305
-7.30808
-7.21517
-7.13794
-7.11426
-7.1581
-7.25934
-7.4303
-7.70193
-8.13689
-8.7929
-9.71001
-10.8918
-12.3031
-13.8843
-15.5617
-17.2631
-18.9245
-20.4933
-21.9292
-23.2031
-24.2951
-25.1934
-25.8927
-26.393
-26.6988
-26.8183
-26.7625
-26.545
-26.1824
-25.6923
-25.09
-24.3907
-23.6081
-22.7525
-21.8322
-20.8553
-19.829
-18.7569
-17.6397
-16.4772
-15.2671
-14.0057
-12.6878
-11.3065
-9.8559
-8.33022
-6.72257
-5.02683
-3.23895
-1.3577
0.614874
2.67402
4.80704
6.99509
9.215
11.4398
13.6337
15.7571
17.77
19.6291
21.294
22.733
23.9245
24.853
25.5237
25.9564
26.1671
26.1832
26.0343
25.7533
25.3718
24.919
24.4211
23.9046
23.3825
22.8625
22.3516
21.8574
21.3867
20.9442
20.5327
20.154
19.8098
19.5003
19.2248
18.9818
18.77
18.5871
18.4303
18.2959
18.1806
18.0809
17.9932
17.9144
17.8423
17.7748
17.7096
17.6439
17.5777
17.5136
17.4542
17.4007
17.3527
17.3091
17.2691
17.2315
17.1958
17.1617
17.1293
17.0989
17.0709
17.0459
17.0244
17.0067
16.9932
16.9843
16.9802
16.9808
16.986
16.9957
17.0093
17.0265
17.0466
17.0692
17.0937
17.1193
17.1458
17.1724
17.1992
17.2256
17.2522
17.2784
17.3062
17.3335
17.3662
17.397
17.4437
17.4782
17.5571
17.5703
-6.50757
-6.47795
-6.46739
-6.46414
-6.46129
-6.4588
-6.45758
-6.45806
-6.46046
-6.46493
-6.47172
-6.48107
-6.49339
-6.50892
-6.52744
-6.54876
-6.57312
-6.60083
-6.63217
-6.66741
-6.70683
-6.7505
-6.7983
-6.85067
-6.9084
-6.9716
-7.03928
-7.11044
-7.18413
-7.25892
-7.33288
-7.40352
-7.46781
-7.52215
-7.56261
-7.5853
-7.58663
-7.56393
-7.51591
-7.44307
-7.34843
-7.24323
-7.1571
-7.12914
-7.16874
-7.26452
-7.44589
-7.75392
-8.25121
-8.9899
-9.99645
-11.2572
-12.727
-14.3403
-16.0258
-17.7164
-19.3546
-20.8936
-22.2976
-23.5402
-24.603
-25.4747
-26.1499
-26.6285
-26.9144
-27.0153
-26.9417
-26.7069
-26.328
-25.8228
-25.2071
-24.4965
-23.7051
-22.8428
-21.9171
-20.9359
-19.9072
-18.8349
-17.7193
-16.5601
-15.3551
-14.1004
-12.7909
-11.42
-9.98037
-8.46528
-6.86803
-5.18258
-3.40466
-1.53305
0.429357
2.47817
4.60339
6.78645
9.00272
11.2235
13.416
15.5409
17.5572
19.4223
21.0958
22.545
23.7467
24.687
25.37
25.8126
26.0336
26.0595
25.9202
25.6484
25.2757
24.8272
24.3298
23.8082
23.2853
22.7714
22.268
21.7806
21.3159
20.8792
20.4735
20.1001
19.7608
19.4557
19.1839
18.9444
18.7355
18.5551
18.4005
18.2683
18.1551
18.0576
17.9723
17.8963
17.8272
17.7628
17.7005
17.638
17.5753
17.5146
17.458
17.4063
17.3595
17.3166
17.2769
17.2394
17.2036
17.1692
17.1365
17.1057
17.0772
17.0518
17.0297
17.0116
16.9976
16.9883
16.9837
16.9839
16.9888
16.998
17.0113
17.0282
17.0481
17.0705
17.0947
17.1202
17.1464
17.1728
17.1994
17.2256
17.2519
17.2778
17.305
17.3318
17.3635
17.3933
17.4374
17.4693
17.54
17.5444
-6.5155
-6.49013
-6.48035
-6.47681
-6.47382
-6.47138
-6.47033
-6.47111
-6.47396
-6.47909
-6.48673
-6.4971
-6.5104
-6.52676
-6.54626
-6.56904
-6.59531
-6.62522
-6.65877
-6.69606
-6.73747
-6.78335
-6.83374
-6.88873
-6.94886
-7.0145
-7.08509
-7.15978
-7.23747
-7.31661
-7.39515
-7.47042
-7.53913
-7.59739
-7.64094
-7.66554
-7.66734
-7.64351
-7.59265
-7.51371
-7.40969
-7.29426
-7.20442
-7.17484
-7.20875
-7.30137
-7.50792
-7.87596
-8.46687
-9.31796
-10.4349
-11.785
-13.3117
-14.9489
-16.6308
-18.2987
-19.9033
-21.4036
-22.7681
-23.9726
-25.0001
-25.8395
-26.4851
-26.9362
-27.1964
-27.2728
-27.1753
-26.9168
-26.5147
-25.9885
-25.3547
-24.6283
-23.824
-22.9519
-22.0195
-21.0342
-20.0022
-18.9276
-17.8121
-16.6553
-15.4551
-14.2075
-12.9075
-11.5489
-10.1237
-8.62365
-7.04183
-5.37241
-3.61079
-1.75522
0.192082
2.22559
4.33582
6.50618
8.71349
10.9292
13.1199
15.247
17.2688
19.1423
20.8267
22.2882
23.5028
24.4573
25.1547
25.6102
25.8439
25.8821
25.7551
25.4959
25.1354
24.6996
24.2141
23.6986
23.1748
22.6633
22.1681
21.6886
21.2308
20.8005
20.4008
20.0333
19.6991
19.3986
19.1309
18.8951
18.6894
18.5119
18.3599
18.2303
18.1197
18.0249
17.9427
17.8702
17.8048
17.7442
17.6861
17.6281
17.57
17.5136
17.4607
17.4118
17.3668
17.3251
17.286
17.2487
17.2128
17.1782
17.145
17.1137
17.0848
17.0587
17.0361
17.0174
17.003
16.9931
16.988
16.9877
16.9921
17.0009
17.0139
17.0304
17.0501
17.0722
17.0961
17.1213
17.1473
17.1735
17.1997
17.2256
17.2515
17.2768
17.3033
17.3294
17.3597
17.3881
17.4289
17.4574
17.5187
17.5151
-6.5235
-6.50175
-6.49292
-6.4895
-6.48673
-6.48464
-6.48399
-6.48523
-6.48862
-6.49438
-6.50272
-6.51385
-6.52795
-6.54522
-6.56579
-6.58979
-6.61737
-6.64875
-6.68411
-6.72362
-6.76748
-6.81599
-6.86944
-6.92813
-6.99245
-7.06241
-7.13769
-7.2176
-7.30103
-7.38639
-7.47147
-7.55338
-7.62843
-7.69231
-7.74033
-7.76794
-7.77096
-7.74674
-7.69326
-7.60756
-7.49442
-7.37368
-7.28557
-7.25841
-7.2894
-7.39273
-7.64894
-8.11046
-8.82775
-9.81664
-11.0551
-12.4923
-14.0653
-15.7135
-17.3803
-19.016
-20.579
-22.0339
-23.3526
-24.5131
-25.4995
-26.3007
-26.9106
-27.3281
-27.5561
-27.6012
-27.4726
-27.1827
-26.7499
-26.1976
-25.5443
-24.8017
-23.981
-23.0937
-22.1501
-21.1579
-20.1211
-19.0435
-17.9281
-16.7746
-15.5807
-14.3423
-13.054
-11.7094
-10.3007
-8.81959
-7.25851
-5.61101
-3.87211
-2.03931
-0.113644
1.89987
3.99184
6.1467
8.3426
10.5517
12.7397
14.868
16.895
18.7775
20.4735
21.9482
23.1773
24.1478
24.8615
25.3325
25.5815
25.6353
25.5245
25.2816
24.9374
24.5187
24.0499
23.5513
23.0384
22.5305
22.0433
21.5741
21.1252
20.703
20.3107
19.9499
19.6217
19.3266
19.0637
18.8319
18.63
18.4558
18.3069
18.1802
18.0727
17.9811
17.9026
17.8342
17.7733
17.7176
17.6646
17.6123
17.5603
17.5095
17.4612
17.4161
17.3738
17.3339
17.2958
17.259
17.2232
17.1884
17.1549
17.1231
17.0936
17.0669
17.0436
17.0243
17.0093
16.9988
16.9931
16.9923
16.9962
17.0045
17.017
17.0332
17.0526
17.0743
17.098
17.1229
17.1486
17.1744
17.2003
17.2257
17.2509
17.2756
17.3011
17.3261
17.3546
17.3811
17.4177
17.4424
17.4931
17.4823
-6.5275
-6.50906
-6.50139
-6.49844
-6.49621
-6.49477
-6.49485
-6.49687
-6.50109
-6.5077
-6.5169
-6.52889
-6.54387
-6.56202
-6.58355
-6.60866
-6.63757
-6.67054
-6.70782
-6.74968
-6.79645
-6.84846
-6.90605
-6.96951
-7.0391
-7.11486
-7.1966
-7.2837
-7.37508
-7.46905
-7.56318
-7.65417
-7.73783
-7.80924
-7.8631
-7.89482
-7.89971
-7.87555
-7.81863
-7.72555
-7.60594
-7.48916
-7.41046
-7.38965
-7.42956
-7.56931
-7.91049
-8.50229
-9.37373
-10.5115
-11.8667
-13.3762
-14.9804
-16.6275
-18.2702
-19.8671
-21.383
-22.7876
-24.0563
-25.1687
-26.1094
-26.8671
-27.4357
-27.8133
-28.0026
-28.0097
-27.8429
-27.5154
-27.0499
-26.4717
-25.7965
-25.0327
-24.1901
-23.2818
-22.3202
-21.3142
-20.2691
-19.1882
-18.0737
-16.925
-15.7395
-14.513
-13.2397
-11.9126
-10.5238
-9.06509
-7.52838
-5.90668
-4.19449
-2.38863
-0.489117
1.50005
3.5701
5.70622
7.88725
10.0859
12.2683
14.3952
16.4259
18.3161
20.0224
21.5102
22.7544
23.7417
24.473
24.9617
25.2289
25.3019
25.2114
24.9897
24.6673
24.2709
23.824
23.347
22.8554
22.361
21.8834
21.4272
20.9907
20.5791
20.1965
19.8444
19.5239
19.2354
18.9784
18.7518
18.5544
18.3842
18.239
18.1159
18.012
17.9243
17.8501
17.7865
17.7309
17.6808
17.6341
17.5888
17.544
17.5002
17.4579
17.4176
17.3791
17.342
17.3057
17.27
17.2346
17.1998
17.1661
17.1339
17.1038
17.0764
17.0524
17.0324
17.0167
17.0056
16.9992
16.9978
17.0011
17.0089
17.021
17.0367
17.0556
17.077
17.1004
17.1249
17.1502
17.1757
17.201
17.2258
17.2502
17.274
17.2982
17.3217
17.3478
17.3719
17.4035
17.4237
17.4632
17.4458
-6.52033
-6.50538
-6.49921
-6.49709
-6.49584
-6.49556
-6.49684
-6.50007
-6.50548
-6.51327
-6.52366
-6.53685
-6.55305
-6.57248
-6.59537
-6.62197
-6.65256
-6.68749
-6.72708
-6.77172
-6.82181
-6.87777
-6.94005
-7.00903
-7.08502
-7.16817
-7.25835
-7.35497
-7.45691
-7.56228
-7.6683
-7.77108
-7.86574
-7.94657