/*--------------------------------*- C++ -*----------------------------------*\
| =========                 |                                                 |
| \\      /  F ield         | OpenFOAM: The Open Source CFD Toolbox           |
|  \\    /   O peration     | Version:  2112                                  |
|   \\  /    A nd           | Website:  www.openfoam.com                      |
|    \\/     M anipulation  |                                                 |
\*---------------------------------------------------------------------------*/
FoamFile
{
    version     2.0;
    format      ascii;
    arch        "LSB;label=32;scalar=64";
    class       surfaceScalarField;
    location    "0.065";
    object      phi_0;
}
// * * * * * * * * * * * * * * * * * * * * * * * * * * * * * * * * * * * * * //

dimensions      [0 3 -1 0 0 0 0];

oriented        oriented;

internalField   nonuniform List<scalar> 
24170
(
3.13842e-06
6.1042e-08
3.04811e-06
9.03093e-08
2.95999e-06
8.81247e-08
2.86784e-06
9.21486e-08
2.78024e-06
8.76042e-08
2.68613e-06
9.41026e-08
2.58069e-06
1.05438e-07
2.47121e-06
1.09485e-07
2.36298e-06
1.08227e-07
2.25614e-06
1.06838e-07
2.15196e-06
1.04184e-07
2.05345e-06
9.85116e-08
1.96283e-06
9.06205e-08
1.87722e-06
8.5606e-08
1.79059e-06
8.66344e-08
1.69622e-06
9.43724e-08
1.58658e-06
1.09633e-07
1.44848e-07
1.44173e-06
3.48708e-06
1.09413e-07
3.47671e-06
1.00681e-07
3.46952e-06
9.53107e-08
3.4551e-06
1.06566e-07
3.43838e-06
1.04332e-07
3.42781e-06
1.04672e-07
3.42158e-06
1.11662e-07
3.4153e-06
1.15769e-07
3.40654e-06
1.16988e-07
3.3939e-06
1.1948e-07
3.37681e-06
1.21272e-07
3.35438e-06
1.20941e-07
3.32567e-06
1.19328e-07
3.28927e-06
1.22003e-07
3.24387e-06
1.32044e-07
3.18823e-06
1.50009e-07
3.12524e-06
1.7262e-07
1.99427e-07
3.07066e-06
3.70284e-06
5.31883e-08
3.72258e-06
8.0933e-08
3.72349e-06
9.44021e-08
3.72236e-06
1.07698e-07
3.71541e-06
1.11283e-07
3.71227e-06
1.07817e-07
3.72043e-06
1.03498e-07
3.73497e-06
1.0123e-07
3.74535e-06
1.06603e-07
3.74495e-06
1.19884e-07
3.73359e-06
1.32627e-07
3.7158e-06
1.38738e-07
3.69545e-06
1.39676e-07
3.676e-06
1.41451e-07
3.65836e-06
1.49686e-07
3.6426e-06
1.65769e-07
3.63287e-06
1.82351e-07
1.94789e-07
3.63751e-06
3.88763e-06
2.1618e-08
3.90298e-06
6.55845e-08
3.93381e-06
6.35741e-08
3.97774e-06
6.37703e-08
4.00621e-06
8.28134e-08
4.00864e-06
1.05384e-07
3.99045e-06
1.21692e-07
3.96103e-06
1.30649e-07
3.93085e-06
1.36784e-07
3.90881e-06
1.41922e-07
3.89833e-06
1.43109e-07
3.89747e-06
1.39591e-07
3.90122e-06
1.3593e-07
3.90527e-06
1.374e-07
3.90753e-06
1.47423e-07
3.90977e-06
1.63532e-07
3.91374e-06
1.78383e-07
1.83847e-07
3.92468e-06
4.22536e-06
7.25285e-08
4.20577e-06
8.51692e-08
4.20736e-06
6.19877e-08
4.22051e-06
5.0616e-08
4.24717e-06
5.61599e-08
4.26853e-06
8.40184e-08
4.27157e-06
1.18653e-07
4.25905e-06
1.43173e-07
4.24243e-06
1.53403e-07
4.2317e-06
1.52649e-07
4.22933e-06
1.45483e-07
4.2316e-06
1.3732e-07
4.23293e-06
1.34593e-07
4.22979e-06
1.4054e-07
4.22258e-06
1.54642e-07
4.21461e-06
1.715e-07
4.20881e-06
1.84179e-07
1.84243e-07
4.20842e-06
4.4818e-06
9.78295e-08
4.51344e-06
5.35326e-08
4.54164e-06
3.37899e-08
4.57989e-06
1.23668e-08
4.62066e-06
1.5391e-08
4.64203e-06
6.26404e-08
4.64126e-06
1.19421e-07
4.62828e-06
1.56153e-07
4.6134e-06
1.68287e-07
4.60045e-06
1.65602e-07
4.58694e-06
1.58987e-07
4.56908e-06
1.55178e-07
4.54578e-06
1.57896e-07
4.51962e-06
1.66703e-07
4.49569e-06
1.78571e-07
4.47845e-06
1.88738e-07
4.47059e-06
1.9204e-07
1.84125e-07
4.47071e-06
4.85654e-06
-3.68816e-08
4.94322e-06
-3.31508e-08
4.97932e-06
-2.31115e-09
4.98419e-06
7.4993e-09
4.96877e-06
3.08135e-08
4.94649e-06
8.49174e-08
4.93115e-06
1.34757e-07
4.92829e-06
1.59012e-07
4.93339e-06
1.63189e-07
4.93611e-06
1.62882e-07
4.92685e-06
1.68245e-07
4.9022e-06
1.79837e-07
4.86631e-06
1.93779e-07
4.82766e-06
2.05357e-07
4.79445e-06
2.11782e-07
4.77144e-06
2.11744e-07
4.75869e-06
2.0479e-07
1.89524e-07
4.75329e-06
5.2728e-06
-1.91484e-08
5.28077e-06
-4.11252e-08
5.24669e-06
3.17765e-08
5.20421e-06
4.99761e-08
5.16365e-06
7.13691e-08
5.13897e-06
1.09599e-07
5.14024e-06
1.33485e-07
5.16517e-06
1.34085e-07
5.2024e-06
1.25959e-07
5.23795e-06
1.27338e-07
5.26033e-06
1.45856e-07
5.26442e-06
1.75751e-07
5.25213e-06
2.06072e-07
5.23016e-06
2.27328e-07
5.20586e-06
2.36078e-07
5.18444e-06
2.33165e-07
5.1671e-06
2.22132e-07
2.06475e-07
5.15015e-06
5.62684e-06
-3.98514e-08
5.60009e-06
-1.43712e-08
5.57119e-06
6.06713e-08
5.55229e-06
6.88721e-08
5.54768e-06
7.59791e-08
5.56138e-06
9.59029e-08
5.5846e-06
1.10265e-07
5.60412e-06
1.14568e-07
5.61419e-06
1.15892e-07
5.61723e-06
1.24297e-07
5.61709e-06
1.45988e-07
5.61441e-06
1.78439e-07
5.60754e-06
2.12943e-07
5.59517e-06
2.39697e-07
5.578e-06
2.53241e-07
5.5576e-06
2.53565e-07
5.53545e-06
2.44282e-07
2.28384e-07
5.51354e-06
6.03469e-06
-6.47554e-08
5.95316e-06
6.71631e-08
5.9385e-06
7.53311e-08
5.97127e-06
3.61003e-08
6.00906e-06
3.81858e-08
6.0281e-06
7.68623e-08
6.02112e-06
1.17244e-07
5.9958e-06
1.39892e-07
5.96608e-06
1.45608e-07
5.94303e-06
1.47351e-07
5.93188e-06
1.57133e-07
5.93212e-06
1.78199e-07
5.94012e-06
2.04945e-07
5.95179e-06
2.28027e-07
5.96312e-06
2.4191e-07
5.97108e-06
2.45611e-07
5.97159e-06
2.4377e-07
2.40876e-07
5.9591e-06
6.37807e-06
1.93257e-07
6.33985e-06
1.05378e-07
6.35784e-06
5.73474e-08
6.36535e-06
2.8591e-08
6.38065e-06
2.288e-08
6.41856e-06
3.89554e-08
6.4715e-06
6.42981e-08
6.51985e-06
9.15424e-08
6.54301e-06
1.22449e-07
6.53131e-06
1.59059e-07
6.49162e-06
1.96821e-07
6.44213e-06
2.2769e-07
6.40089e-06
2.46187e-07
6.37769e-06
2.51222e-07
6.3727e-06
2.46905e-07
6.3798e-06
2.38509e-07
6.39039e-06
2.33178e-07
2.34131e-07
6.39713e-06
5.69078e-06
8.87119e-08
5.74789e-06
4.82697e-08
5.76784e-06
3.73973e-08
5.76407e-06
3.23619e-08
5.74156e-06
4.53912e-08
5.72256e-06
5.7949e-08
5.72621e-06
6.06551e-08
5.75248e-06
6.52735e-08
5.78716e-06
8.77625e-08
5.81475e-06
1.3147e-07
5.82769e-06
1.83884e-07
5.82801e-06
2.27369e-07
5.82252e-06
2.51679e-07
5.81686e-06
2.56884e-07
5.81276e-06
2.51002e-07
5.8081e-06
2.43172e-07
5.7998e-06
2.41472e-07
2.50816e-07
5.78312e-06
7.07578e-06
9.95495e-08
7.03175e-06
9.23016e-08
7.03414e-06
3.50096e-08
7.07459e-06
-8.08492e-09
7.12016e-06
-1.78087e-10
7.13943e-06
3.86766e-08
7.12325e-06
7.68304e-08
7.08784e-06
1.00688e-07
7.0507e-06
1.249e-07
7.02032e-06
1.61855e-07
6.99651e-06
2.07687e-07
6.97596e-06
2.47926e-07
6.95675e-06
2.7088e-07
6.94037e-06
2.73271e-07
6.93047e-06
2.60895e-07
6.92864e-06
2.45002e-07
6.93598e-06
2.34135e-07
2.38286e-07
6.94851e-06
8.57893e-06
1.44871e-07
8.67401e-06
-2.78035e-09
8.73358e-06
-2.45591e-08
8.74661e-06
-2.11165e-08
8.74379e-06
2.64654e-09
8.73469e-06
4.77723e-08
8.72394e-06
8.75856e-08
8.7043e-06
1.20324e-07
8.6741e-06
1.55104e-07
8.63793e-06
1.98021e-07
8.60337e-06
2.4225e-07
8.57493e-06
2.7636e-07
8.55247e-06
2.9334e-07
8.53215e-06
2.93596e-07
8.51137e-06
2.81671e-07
8.48948e-06
2.66889e-07
8.46881e-06
2.54807e-07
2.53691e-07
8.45341e-06
1.0242e-05
1.25006e-07
1.03657e-05
-1.26436e-07
1.04976e-05
-1.56495e-07
1.05713e-05
-9.47921e-08
1.05771e-05
-3.22985e-09
1.05507e-05
7.42139e-08
1.05057e-05
1.32591e-07
1.0453e-05
1.73069e-07
1.04015e-05
2.06585e-07
1.03656e-05
2.33938e-07
1.0356e-05
2.518e-07
1.0373e-05
2.59366e-07
1.04071e-05
2.59227e-07
1.04438e-05
2.56895e-07
1.04694e-05
2.56089e-07
1.04767e-05
2.59606e-07
1.04643e-05
2.67217e-07
2.78327e-07
1.04396e-05
1.27398e-05
1.52491e-07
1.26297e-05
-1.63645e-08
1.25957e-05
-1.22433e-07
1.25981e-05
-9.72418e-08
1.25917e-05
3.22946e-09
1.2571e-05
9.48236e-08
1.25801e-05
1.23562e-07
1.26151e-05
1.38073e-07
1.26593e-05
1.62364e-07
1.26947e-05
1.98502e-07
1.27142e-05
2.32284e-07
1.27226e-05
2.50984e-07
1.27298e-05
2.52009e-07
1.27448e-05
2.41942e-07
1.27698e-05
2.31083e-07
1.28018e-05
2.27599e-07
1.2834e-05
2.35011e-07
2.54714e-07
1.28576e-05
1.54278e-05
1.14792e-07
1.56432e-05
-2.31763e-07
1.57864e-05
-2.65642e-07
1.58061e-05
-1.16953e-07
1.57726e-05
3.66899e-08
1.57633e-05
1.04177e-07
1.57588e-05
1.28055e-07
1.57604e-05
1.36454e-07
1.57598e-05
1.63e-07
1.57521e-05
2.06114e-07
1.57358e-05
2.4858e-07
1.57111e-05
2.75681e-07
1.56808e-05
2.82319e-07
1.5651e-05
2.71818e-07
1.56294e-05
2.52651e-07
1.56213e-05
2.35713e-07
1.56299e-05
2.26404e-07
2.31789e-07
1.56528e-05
1.93288e-05
5.74325e-08
1.91532e-05
-5.61852e-08
1.89411e-05
-5.35376e-08
1.8822e-05
2.18906e-09
1.87948e-05
6.38257e-08
1.8806e-05
9.29767e-08
1.8827e-05
1.07054e-07
1.88364e-05
1.27103e-07
1.88482e-05
1.51213e-07
1.88788e-05
1.75443e-07
1.89287e-05
1.98765e-07
1.89864e-05
2.17899e-07
1.90404e-05
2.28403e-07
1.90835e-05
2.28711e-07
1.91167e-05
2.19399e-07
1.91461e-05
2.06355e-07
1.91797e-05
1.92757e-07
1.87121e-07
1.92244e-05
2.27242e-05
-1.44969e-07
2.2734e-05
-6.60211e-08
2.26895e-05
-9.03558e-09
2.27296e-05
-3.78641e-08
2.28357e-05
-4.23429e-08
2.29337e-05
-4.99676e-09
2.30118e-05
2.89852e-08
2.30798e-05
5.91254e-08
2.31538e-05
7.72177e-08
2.32341e-05
9.50854e-08
2.33157e-05
1.17204e-07
2.33932e-05
1.40326e-07
2.34624e-05
1.59212e-07
2.35198e-05
1.71384e-07
2.3562e-05
1.77192e-07
2.35888e-05
1.79495e-07
2.36001e-05
1.81516e-07
1.85824e-07
2.36014e-05
1.72286e-05
3.03712e-08
1.70729e-05
8.96604e-08
1.69998e-05
6.40152e-08
1.69343e-05
2.76484e-08
1.68888e-05
3.20625e-09
1.68934e-05
-9.66246e-09
1.69302e-05
-7.75874e-09
1.69758e-05
1.34866e-08
1.70118e-05
4.12486e-08
1.70441e-05
6.28245e-08
1.70882e-05
7.30552e-08
1.71522e-05
7.62884e-08
1.72307e-05
8.07421e-08
1.73104e-05
9.16895e-08
1.73759e-05
1.11662e-07
1.74173e-05
1.3817e-07
1.7431e-05
1.67806e-07
1.94613e-07
1.74222e-05
1.49602e-05
-3.1505e-07
1.51225e-05
-7.26298e-08
1.51248e-05
6.16671e-08
1.50172e-05
1.35282e-07
1.48789e-05
1.41515e-07
1.47755e-05
9.37372e-08
1.47323e-05
3.54588e-08
1.47458e-05
-5.88033e-11
1.47946e-05
-7.56471e-09
1.48635e-05
-6.08144e-09
1.49407e-05
-4.06836e-09
1.50171e-05
-1.38543e-10
1.50845e-05
1.33174e-08
1.51373e-05
3.88844e-08
1.51728e-05
7.61645e-08
1.51928e-05
1.1822e-07
1.52031e-05
1.57449e-07
1.86358e-07
1.52114e-05
1.28901e-05
-1.11539e-07
1.28653e-05
-4.78828e-08
1.28275e-05
9.95079e-08
1.28066e-05
1.56149e-07
1.28349e-05
1.13199e-07
1.28811e-05
4.7544e-08
1.29151e-05
1.51954e-09
1.29388e-05
-2.3799e-08
1.29619e-05
-3.06884e-08
1.29858e-05
-2.99435e-08
1.3004e-05
-2.22604e-08
1.30079e-05
-4.05404e-09
1.29965e-05
2.47449e-08
1.29727e-05
6.26168e-08
1.29464e-05
1.02512e-07
1.29274e-05
1.37238e-07
1.29236e-05
1.61235e-07
1.71446e-07
1.29385e-05
1.13055e-05
4.2565e-08
1.12384e-05
1.92135e-08
1.12652e-05
7.26847e-08
1.13513e-05
6.99978e-08
1.14284e-05
3.6132e-08
1.14568e-05
1.91176e-08
1.14326e-05
2.57226e-08
1.1371e-05
3.78216e-08
1.13017e-05
3.86158e-08
1.12481e-05
2.36081e-08
1.12237e-05
2.18113e-09
1.12302e-05
-1.05788e-08
1.12616e-05
-6.60906e-09
1.13099e-05
1.43248e-08
1.1366e-05
4.63487e-08
1.1424e-05
7.9229e-08
1.14797e-05
1.05539e-07
1.1988e-07
1.15313e-05
9.55894e-06
-2.83662e-08
9.647e-06
-6.88466e-08
9.7447e-06
-2.50137e-08
9.80752e-06
7.17642e-09
9.81425e-06
2.94043e-08
9.77895e-06
5.4417e-08
9.73109e-06
7.35779e-08
9.69658e-06
7.23296e-08
9.68962e-06
4.55757e-08
9.7107e-06
2.53473e-09
9.75019e-06
-3.73123e-08
9.79512e-06
-5.55096e-08
9.83447e-06
-4.59569e-08
9.86386e-06
-1.50629e-08
9.88549e-06
2.47169e-08
9.9054e-06
5.93196e-08
9.92845e-06
8.24903e-08
9.17958e-08
9.95653e-06
8.5945e-06
9.69612e-08
8.47013e-06
5.55226e-08
8.37223e-06
7.28882e-08
8.32787e-06
5.15315e-08
8.34768e-06
9.59728e-09
8.40091e-06
1.18323e-09
8.44438e-06
3.01138e-08
8.45977e-06
5.69384e-08
8.45704e-06
4.83058e-08
8.45627e-06
3.2969e-09
8.47109e-06
-5.2127e-08
8.50447e-06
-8.88864e-08
8.55108e-06
-9.25722e-08
8.60271e-06
-6.66901e-08
8.65309e-06
-2.56595e-08
8.69921e-06
1.31903e-08
8.74014e-06
4.1567e-08
5.52594e-08
8.77667e-06
7.18613e-06
4.79698e-08
7.2856e-06
-4.39509e-08
7.35484e-06
3.64968e-09
7.38281e-06
2.35681e-08
7.38496e-06
7.44008e-09
7.396e-06
-9.85749e-09
7.42976e-06
-3.6452e-09
7.47398e-06
1.27168e-08
7.50931e-06
1.29789e-08
7.52335e-06
-1.07458e-08
7.5159e-06
-4.46708e-08
7.49783e-06
-7.08216e-08
7.48361e-06
-7.8351e-08
7.48427e-06
-6.73494e-08
7.50379e-06
-4.51765e-08
7.53833e-06
-2.13541e-08
7.58166e-06
-1.75806e-09
1.22317e-08
7.62468e-06
6.38614e-06
1.0387e-07
6.38256e-06
-4.03673e-08
6.44236e-06
-5.61535e-08
6.48036e-06
-1.44278e-08
6.47513e-06
1.2668e-08
6.45778e-06
7.49703e-09
6.46528e-06
-1.11488e-08
6.50641e-06
-2.8416e-08
6.56506e-06
-4.56659e-08
6.61702e-06
-6.27026e-08
6.64724e-06
-7.48921e-08
6.65427e-06
-7.78592e-08
6.64627e-06
-7.03468e-08
6.63328e-06
-5.43553e-08
6.62176e-06
-3.36603e-08
6.61329e-06
-1.28832e-08
6.60744e-06
4.09104e-09
1.6465e-08
6.60321e-06
5.55675e-06
7.44261e-08
5.56635e-06
-4.99703e-08
5.5892e-06
-7.89986e-08
5.61101e-06
-3.62369e-08
5.62096e-06
2.71476e-09
5.62092e-06
7.53342e-09
5.62114e-06
-1.13607e-08
5.62847e-06
-3.57504e-08
5.63991e-06
-5.71004e-08
5.6502e-06
-7.29929e-08
5.65658e-06
-8.12726e-08
5.65882e-06
-8.01057e-08
5.65788e-06
-6.9406e-08
5.65545e-06
-5.19204e-08
5.65383e-06
-3.20444e-08
5.65521e-06
-1.42586e-08
5.66035e-06
-1.05162e-09
7.61116e-09
5.6692e-06
4.91932e-06
-4.0395e-08
4.93248e-06
-6.31233e-08
4.90829e-06
-5.48146e-08
4.90573e-06
-3.36736e-08
4.93505e-06
-2.66049e-08
4.98111e-06
-3.85317e-08
5.02285e-06
-5.3096e-08
5.04401e-06
-5.69095e-08
5.03913e-06
-5.22261e-08
5.01379e-06
-4.7651e-08
4.9798e-06
-4.72831e-08
4.94851e-06
-4.88097e-08
4.92703e-06
-4.7927e-08
4.91809e-06
-4.29857e-08
4.92124e-06
-3.51922e-08
4.93432e-06
-2.73375e-08
4.95488e-06
-2.16076e-08
-1.8398e-08
4.98088e-06
4.09337e-06
4.03024e-06
3.97543e-06
3.94176e-06
3.91515e-06
3.87662e-06
3.82352e-06
3.76661e-06
3.71439e-06
3.66674e-06
3.61945e-06
3.57064e-06
3.52272e-06
3.47973e-06
3.44454e-06
3.4172e-06
3.39559e-06
3.3772e-06
-2.95134e-07
2.95134e-07
-4.54102e-07
1.58968e-07
-2.58333e-07
-1.95769e-07
2.65087e-07
-5.23419e-07
9.53328e-07
-6.88241e-07
1.69177e-06
-7.38443e-07
2.40026e-06
-7.08492e-07
3.03693e-06
-6.36669e-07
3.58368e-06
-5.46749e-07
4.03367e-06
-4.49991e-07
4.38564e-06
-3.51965e-07
4.64469e-06
-2.59049e-07
4.81407e-06
-1.6938e-07
4.89302e-06
-7.89578e-08
4.89242e-06
6.03493e-10
4.80389e-06
8.85314e-08
4.62515e-06
1.78738e-07
4.38088e-06
2.4427e-07
4.06662e-06
3.14263e-07
3.66506e-06
4.0156e-07
3.23627e-06
4.28784e-07
2.76534e-06
4.70937e-07
2.18007e-06
5.85264e-07
1.64285e-06
5.37222e-07
1.35605e-06
2.868e-07
1.22632e-06
1.29728e-07
1.08169e-06
1.44634e-07
9.25428e-07
1.56261e-07
9.11892e-07
1.35352e-08
1.14335e-06
-2.31463e-07
1.49255e-06
-3.4919e-07
1.75571e-06
-2.63165e-07
1.84474e-06
-8.90325e-08
1.72087e-06
1.23871e-07
1.25069e-06
4.70179e-07
3.92726e-07
8.57967e-07
-7.17734e-07
1.11046e-06
-1.94715e-06
1.22941e-06
-3.20597e-06
1.25882e-06
-4.43548e-06
1.22952e-06
-5.5969e-06
1.16142e-06
-6.66805e-06
1.07115e-06
-7.63844e-06
9.70383e-07
-8.50493e-06
8.66498e-07
-9.269e-06
7.64069e-07
-9.93429e-06
6.65288e-07
-1.05052e-05
5.70863e-07
-1.09856e-05
4.80446e-07
-1.13789e-05
3.93276e-07
-1.16872e-05
3.08316e-07
-1.19119e-05
2.24679e-07
-1.20538e-05
1.41977e-07
-1.21143e-05
6.04393e-08
-1.20964e-05
-1.79294e-08
-1.20069e-05
-8.94252e-08
-1.18479e-05
-1.59067e-07
-1.1623e-05
-2.24854e-07
-1.13374e-05
-2.85637e-07
-1.09964e-05
-3.40945e-07
-1.06062e-05
-3.90205e-07
-1.0173e-05
-4.33267e-07
-9.70283e-06
-4.70125e-07
-9.20152e-06
-5.0131e-07
-8.67378e-06
-5.2774e-07
-8.12286e-06
-5.50924e-07
-7.54997e-06
-5.72892e-07
-6.95369e-06
-5.96278e-07
-6.32938e-06
-6.24307e-07
-5.66849e-06
-6.60886e-07
-4.95795e-06
-7.10547e-07
-4.1802e-06
-7.77748e-07
-3.31543e-06
-8.64774e-07
-2.34764e-06
-9.67789e-07
-1.27718e-06
-1.07046e-06
-1.38598e-07
-1.13858e-06
9.97961e-07
-1.13656e-06
2.05626e-06
-1.0583e-06
2.95024e-06
-8.93981e-07
3.42457e-06
-4.74331e-07
3.52889e-06
-1.04322e-07
3.40394e-06
1.24953e-07
2.97161e-06
4.32327e-07
2.11695e-06
8.54667e-07
1.07579e-06
1.04116e-06
2.88427e-07
7.87362e-07
9.0951e-08
1.97476e-07
-1.22416e-07
2.13367e-07
-2.3401e-08
-9.90153e-08
4.88346e-07
-5.11747e-07
7.59042e-07
-2.70696e-07
5.63901e-07
1.95141e-07
-1.56012e-07
7.19913e-07
-9.17517e-07
7.61504e-07
-1.53669e-06
6.19177e-07
-2.06603e-06
5.29335e-07
-2.53901e-06
4.72982e-07
-2.98465e-06
4.45635e-07
-3.42381e-06
4.39168e-07
-3.87089e-06
4.47079e-07
-4.3341e-06
4.6321e-07
-4.81807e-06
4.83966e-07
-5.32328e-06
5.05209e-07
-5.84664e-06
5.23365e-07
-6.38043e-06
5.33789e-07
-6.91333e-06
5.32898e-07
-7.43133e-06
5.18e-07
-7.9195e-06
4.88165e-07
-8.36294e-06
4.43441e-07
-8.74744e-06
3.845e-07
-9.05969e-06
3.1225e-07
-9.28773e-06
2.28047e-07
-9.42094e-06
1.3321e-07
-9.4485e-06
2.75574e-08
-9.37132e-06
-7.71774e-08
-9.18775e-06
-1.83577e-07
-8.89734e-06
-2.90409e-07
-8.50412e-06
-3.93217e-07
-8.01582e-06
-4.88302e-07
-7.44393e-06
-5.71892e-07
-6.80319e-06
-6.40732e-07
-6.11103e-06
-6.92164e-07
-5.38617e-06
-7.24857e-07
-4.64667e-06
-7.395e-07
-3.90932e-06
-7.37354e-07
-3.1886e-06
-7.20724e-07
-2.49424e-06
-6.94354e-07
-1.8326e-06
-6.61639e-07
-1.20618e-06
-6.26424e-07
-6.16609e-07
-5.89569e-07
-6.5221e-08
-5.51388e-07
4.53234e-07
-5.18455e-07
9.29754e-07
-4.7652e-07
1.35854e-06
-4.28787e-07
1.7324e-06
-3.73863e-07
2.04599e-06
-3.13585e-07
2.29875e-06
-2.52765e-07
2.49578e-06
-1.97026e-07
2.64597e-06
-1.50189e-07
2.7594e-06
-1.13434e-07
2.84567e-06
-8.62632e-08
2.91325e-06
-6.75849e-08
2.96919e-06
-5.59424e-08
3.01928e-06
-5.00886e-08
3.06878e-06
-4.94962e-08
3.12309e-06
-5.43122e-08
3.1915e-06
-6.84053e-08
3.28957e-06
-9.8079e-08
3.43393e-06
-1.44354e-07
3.65506e-06
-2.21132e-07
4.01231e-06
-3.57245e-07
4.53248e-06
-5.20171e-07
5.20056e-06
-6.68085e-07
6.03633e-06
-8.35772e-07
6.95396e-06
-9.17625e-07
7.82897e-06
-8.75008e-07
8.70616e-06
-8.77191e-07
9.40198e-06
-6.95818e-07
9.87586e-06
-4.73883e-07
1.02959e-05
-4.20043e-07
1.02096e-05
8.63395e-08
9.8918e-06
3.17766e-07
9.27861e-06
6.13191e-07
7.1558e-06
2.12281e-06
4.60593e-06
2.54987e-06
3.25602e-06
1.3499e-06
2.6436e-06
6.12425e-07
1.89176e-06
7.51837e-07
8.791e-07
1.01266e-06
-2.66158e-07
1.14526e-06
-1.36271e-06
1.09656e-06
-2.10096e-06
7.38249e-07
-2.20717e-06
1.06205e-07
-1.83236e-06
-3.74803e-07
-1.28012e-06
-5.52245e-07
-8.15066e-07
-4.65053e-07
-5.55414e-07
-2.59651e-07
-4.8279e-07
-7.26238e-08
-5.24361e-07
4.15709e-08
-6.0746e-07
8.30985e-08
-1.13782e-07
-4.93678e-07
2.10462e-08
2.74088e-07
3.18707e-07
-1.38693e-07
9.43679e-07
-8.20741e-07
1.64763e-06
-1.22737e-06
2.332e-06
-1.37261e-06
2.94639e-06
-1.35284e-06
3.47852e-06
-1.24062e-06
3.93184e-06
-1.08999e-06
4.3132e-06
-9.28112e-07
4.62898e-06
-7.65763e-07
4.88315e-06
-6.06144e-07
5.07545e-06
-4.51342e-07
5.20682e-06
-3.00754e-07
5.28149e-06
-1.53631e-07
5.2992e-06
-1.71011e-08
5.2547e-06
1.33027e-07
5.15545e-06
2.77989e-07
5.00282e-06
3.96898e-07
4.80093e-06
5.16156e-07
4.55238e-06
6.5011e-07
4.26944e-06
7.1173e-07
4.01553e-06
7.2484e-07
3.79606e-06
8.04736e-07
3.48527e-06
8.48015e-07
3.02983e-06
7.4224e-07
2.58467e-06
5.74889e-07
2.36606e-06
3.63243e-07
2.42984e-06
9.24778e-08
2.51652e-06
-7.3142e-08
2.29438e-06
-9.32215e-09
1.71907e-06
2.26118e-07
7.35878e-07
7.20027e-07
-5.74838e-07
1.22168e-06
-2.00023e-06
1.54926e-06
-3.33787e-06
1.80782e-06
-4.50461e-06
2.02471e-06
-5.54246e-06
2.14831e-06
-6.48911e-06
2.17607e-06
-7.35665e-06
2.12635e-06
-8.14636e-06
2.01923e-06
-8.86096e-06
1.87602e-06
-9.5039e-06
1.7141e-06
-1.00791e-05
1.54555e-06
-1.05909e-05
1.37831e-06
-1.10433e-05
1.21649e-06
-1.14394e-05
1.06141e-06
-1.17811e-05
9.12484e-07
-1.20689e-05
7.68325e-07
-1.23032e-05
6.27553e-07
-1.24829e-05
4.87962e-07
-1.26064e-05
3.48189e-07
-1.26722e-05
2.07792e-07
-1.26791e-05
6.73757e-08
-1.26245e-05
-7.2504e-08
-1.25042e-05
-2.09782e-07
-1.232e-05
-3.43269e-07
-1.20744e-05
-4.70486e-07
-1.17708e-05
-5.89229e-07
-1.14142e-05
-6.97526e-07
-1.10103e-05
-7.94066e-07
-1.05655e-05
-8.78065e-07
-1.00861e-05
-9.49519e-07
-9.57824e-06
-1.0092e-06
-9.04717e-06
-1.05882e-06
-8.49699e-06
-1.1011e-06
-7.92999e-06
-1.13989e-06
-7.34609e-06
-1.18018e-06
-6.74221e-06
-1.22818e-06
-6.11175e-06
-1.29135e-06
-5.44405e-06
-1.37824e-06
-4.72434e-06
-1.49745e-06
-3.93512e-06
-1.654e-06
-3.06171e-06
-1.8412e-06
-2.10324e-06
-2.02892e-06
-1.08361e-06
-2.15822e-06
-6.59435e-08
-2.15423e-06
8.24834e-07
-1.94908e-06
1.51042e-06
-1.57957e-06
1.87229e-06
-8.362e-07
2.00476e-06
-2.36791e-07
2.12847e-06
1.23803e-09
2.13846e-06
4.22341e-07
1.83907e-06
1.15406e-06
1.14854e-06
1.73169e-06
4.16404e-07
1.5195e-06
-6.9788e-08
6.83667e-07
-5.52828e-08
1.98862e-07
3.91369e-07
-5.45667e-07
2.69588e-07
-3.89966e-07
-5.30039e-07
5.28931e-07
-1.45004e-06
1.11514e-06
-2.0555e-06
1.32538e-06
-2.49782e-06
1.20382e-06
-2.93176e-06
1.05311e-06
-3.33249e-06
9.30072e-07
-3.71431e-06
8.54803e-07
-4.08652e-06
8.1784e-07
-4.4572e-06
8.09847e-07
-4.8343e-06
8.24176e-07
-5.22355e-06
8.52468e-07
-5.62941e-06
8.8982e-07
-6.05304e-06
9.28847e-07
-6.49022e-06
9.60542e-07
-6.93196e-06
9.75523e-07
-7.36617e-06
9.67117e-07
-7.77971e-06
9.31537e-07
-8.15984e-06
8.68293e-07
-8.49512e-06
7.78719e-07
-8.77548e-06
6.6486e-07
-8.99245e-06
5.29228e-07
-9.13788e-06
3.73469e-07
-9.20308e-06
1.98416e-07
-9.17899e-06
3.46433e-09
-9.06108e-06
-1.95086e-07
-8.8391e-06
-4.05555e-07
-8.51266e-06
-6.1685e-07
-8.08542e-06
-8.20463e-07
-7.56569e-06
-1.00803e-06
-6.96553e-06
-1.17205e-06
-6.30004e-06
-1.30622e-06
-5.58669e-06
-1.40551e-06
-4.8444e-06
-1.46715e-06
-4.09145e-06
-1.49245e-06
-3.34449e-06
-1.48432e-06
-2.6177e-06
-1.44751e-06
-1.92072e-06
-1.39134e-06
-1.25898e-06
-1.32337e-06
-6.33171e-07
-1.25223e-06
-4.54875e-08
-1.17725e-06
5.16804e-07
-1.11368e-06
1.04387e-06
-1.04552e-06
1.53683e-06
-9.69479e-07
1.98941e-06
-8.81371e-07
2.3936e-06
-7.78046e-07
2.74229e-06
-6.62281e-07
3.03289e-06
-5.43362e-07
3.26832e-06
-4.32456e-07
3.45511e-06
-3.36982e-07
3.60084e-06
-2.59161e-07
3.71284e-06
-1.9826e-07
3.79808e-06
-1.52824e-07
3.86356e-06
-1.21424e-07
3.91487e-06
-1.01397e-07
3.95555e-06
-9.01775e-08
3.99021e-06
-8.89756e-08
4.02356e-06
-1.01755e-07
4.06506e-06
-1.3958e-07
4.14316e-06
-2.22457e-07
4.29391e-06
-3.71875e-07
4.56147e-06
-6.24806e-07
5.01328e-06
-9.71985e-07
5.66697e-06
-1.32177e-06
6.47379e-06
-1.64259e-06
7.40431e-06
-1.84815e-06
8.35585e-06
-1.82654e-06
9.21594e-06
-1.73728e-06
1.0013e-05
-1.49292e-06
1.06039e-05
-1.06473e-06
1.09812e-05
-7.9733e-07
1.13022e-05
-2.34688e-07
1.11964e-05
4.23603e-07
1.09664e-05
8.4319e-07
1.08296e-05
2.25952e-06
9.44611e-06
3.93341e-06
6.84431e-06
3.9517e-06
4.85611e-06
2.60063e-06
3.70506e-06
1.90289e-06
2.43341e-06
2.28431e-06
9.69379e-07
2.60929e-06
-3.07718e-07
2.37365e-06
-1.10837e-06
1.5389e-06
-1.21845e-06
2.16279e-07
-7.87662e-07
-8.05588e-07
-1.62869e-07
-1.17704e-06
3.49326e-07
-9.77248e-07
6.32213e-07
-5.42539e-07
7.06141e-07
-1.46552e-07
6.83955e-07
6.37568e-08
6.62709e-07
1.04345e-07
-1.13684e-07
6.62612e-07
3.7035e-07
-9.62627e-08
1.2914e-06
-1.05974e-06
2.09558e-06
-1.62492e-06
2.67325e-06
-1.80503e-06
3.06133e-06
-1.76069e-06
3.31457e-06
-1.60608e-06
3.49451e-06
-1.42056e-06
3.64462e-06
-1.2401e-06
3.78455e-06
-1.06804e-06
3.92045e-06
-9.01665e-07
4.04641e-06
-7.32108e-07
4.15161e-06
-5.56538e-07
4.23568e-06
-3.84819e-07
4.29431e-06
-2.12268e-07
4.31272e-06
-3.5509e-08
4.29571e-06
1.50035e-07
4.25704e-06
3.16663e-07
4.19712e-06
4.56818e-07
4.09755e-06
6.15724e-07
3.94031e-06
8.07345e-07
3.71668e-06
9.3536e-07
3.46412e-06
9.7741e-07
3.21486e-06
1.05399e-06
2.93097e-06
1.13191e-06
2.66991e-06
1.0033e-06
2.57256e-06
6.72235e-07
2.52004e-06
4.15767e-07
2.19077e-06
4.21745e-07
1.34127e-06
7.76353e-07
-1.17709e-08
1.34372e-06
-1.574e-06
1.78835e-06
-2.96069e-06
2.10672e-06
-4.11956e-06
2.38055e-06
-5.15196e-06
2.58167e-06
-6.05891e-06
2.71477e-06
-6.81516e-06
2.78095e-06
-7.44625e-06
2.7794e-06
-7.98942e-06
2.71924e-06
-8.47632e-06
2.61325e-06
-8.93137e-06
2.47428e-06
-9.36909e-06
2.31374e-06
-9.79582e-06
2.14083e-06
-1.02121e-05
1.96185e-06
-1.06148e-05
1.78098e-06
-1.09985e-05
1.60018e-06
-1.13569e-05
1.41982e-06
-1.16835e-05
1.23907e-06
-1.19717e-05
1.05652e-06
-1.22148e-05
8.70701e-07
-1.24071e-05
6.80215e-07
-1.25432e-05
4.84285e-07
-1.26183e-05
2.8297e-07
-1.26283e-05
7.73127e-08
-1.2573e-05
-1.27776e-07
-1.24533e-05
-3.29445e-07
-1.22707e-05
-5.25899e-07
-1.20276e-05
-7.13581e-07
-1.17278e-05
-8.89077e-07
-1.13758e-05
-1.04949e-06
-1.09771e-05
-1.19275e-06
-1.05375e-05
-1.31768e-06
-1.00629e-05
-1.42409e-06
-9.55937e-06
-1.51276e-06
-9.03256e-06
-1.58562e-06
-8.48782e-06
-1.64583e-06
-7.92974e-06
-1.69798e-06
-7.36176e-06
-1.74817e-06
-6.78575e-06
-1.80419e-06
-6.20157e-06
-1.87553e-06
-5.6068e-06
-1.97301e-06
-4.99655e-06
-2.1077e-06
-4.36293e-06
-2.28763e-06
-3.69664e-06
-2.50749e-06
-2.99264e-06
-2.73291e-06
-2.26407e-06
-2.88679e-06
-1.56462e-06
-2.85368e-06
-9.56466e-07
-2.55723e-06
-4.592e-07
-2.07683e-06
5.89675e-08
-1.35437e-06
5.56743e-07
-7.34566e-07
9.60408e-07
-4.02427e-07
1.11508e-06
2.67665e-07
1.056e-06
1.21314e-06
8.18526e-07
1.96917e-06
4.52202e-07
1.88582e-06
2.70733e-08
1.1088e-06
5.27415e-08
1.73194e-07
-3.33596e-08
-4.59565e-07
-7.78774e-07
3.55448e-07
-1.61546e-06
1.36562e-06
-2.17054e-06
1.67022e-06
-2.4317e-06
1.58654e-06
-2.6316e-06
1.40372e-06
-2.84459e-06
1.2661e-06
-3.08644e-06
1.17192e-06
-3.36047e-06
1.12884e-06
-3.66581e-06
1.12318e-06
-4.00064e-06
1.14468e-06
-4.36359e-06
1.18713e-06
-4.75421e-06
1.24308e-06
-5.1712e-06
1.30681e-06
-5.61039e-06
1.36804e-06
-6.06286e-06
1.41301e-06
-6.51489e-06
1.42755e-06
-6.94993e-06
1.40216e-06
-7.35253e-06
1.33413e-06
-7.71041e-06
1.22618e-06
-8.01486e-06
1.08316e-06
-8.2593e-06
9.09298e-07
-8.43719e-06
7.07117e-07
-8.54197e-06
4.78255e-07
-8.56657e-06
2.23016e-07
-8.5088e-06
-5.43063e-08
-8.35352e-06
-3.50367e-07
-8.09963e-06
-6.5944e-07
-7.74617e-06
-9.70318e-07
-7.29555e-06
-1.27108e-06
-6.75513e-06
-1.54844e-06
-6.13691e-06
-1.79026e-06
-5.45676e-06
-1.98638e-06
-4.73334e-06
-2.12893e-06
-3.98702e-06
-2.21347e-06
-3.23743e-06
-2.24204e-06
-2.50284e-06
-2.21891e-06
-1.79788e-06
-2.15248e-06
-1.13337e-06
-2.05584e-06
-5.13177e-07
-1.94357e-06
6.37588e-08
-1.82917e-06
6.09279e-07
-1.72277e-06
1.11786e-06
-1.62226e-06
1.5973e-06
-1.52496e-06
2.04986e-06
-1.42204e-06
2.47163e-06
-1.30314e-06
2.85413e-06
-1.16055e-06
3.18802e-06
-9.9617e-07
3.46851e-06
-8.23852e-07
3.69797e-06
-6.61919e-07
3.88342e-06
-5.22431e-07
4.03215e-06
-4.07889e-07
4.14988e-06
-3.15996e-07
4.24126e-06
-2.44203e-07
4.31052e-06
-1.9068e-07
4.35976e-06
-1.50636e-07
4.38523e-06
-1.15649e-07
4.3803e-06
-8.4044e-08
4.34525e-06
-6.67067e-08
4.29058e-06
-8.49099e-08
4.24607e-06
-1.77949e-07
4.27185e-06
-3.97657e-07
4.44301e-06
-7.95958e-07
4.82237e-06
-1.35134e-06
5.44043e-06
-1.93984e-06
6.26331e-06
-2.46546e-06
7.20902e-06
-2.79386e-06
8.19726e-06
-2.81478e-06
9.12254e-06
-2.66257e-06
9.9254e-06
-2.29578e-06
1.06039e-05
-1.74322e-06
1.10434e-05
-1.2368e-06
1.1332e-05
-5.23271e-07
1.14679e-05
2.87611e-07
1.12463e-05
1.06487e-06
1.12551e-05
2.25069e-06
1.12529e-05
3.93564e-06
9.78565e-06
5.4189e-06
7.09854e-06
5.28774e-06
4.98399e-06
4.01745e-06
3.62591e-06
3.64238e-06
2.10669e-06
4.12851e-06
4.62427e-07
4.01791e-06
-6.22256e-07
2.62359e-06
-8.39019e-07
4.33042e-07
-3.77638e-07
-1.26697e-06
3.05517e-07
-1.86019e-06
8.55826e-07
-1.52756e-06
1.10595e-06
-7.92659e-07
1.09621e-06
-1.36819e-07
9.65966e-07
1.94004e-07
8.61852e-07
2.08459e-07
-5.80743e-08
8.06243e-07
9.9454e-07
-1.0908e-06
1.85557e-06
-1.92077e-06
2.26458e-06
-2.03393e-06
2.38428e-06
-1.92474e-06
2.36508e-06
-1.7415e-06
2.30984e-06
-1.55084e-06
2.28271e-06
-1.39343e-06
2.30285e-06
-1.26024e-06
2.36135e-06
-1.12654e-06
2.4424e-06
-9.82715e-07
2.5264e-06
-8.161e-07
2.60574e-06
-6.3588e-07
2.69008e-06
-4.69161e-07
2.76492e-06
-2.87106e-07
2.78577e-06
-5.6363e-08
2.76859e-06
1.6722e-07
2.73438e-06
3.50872e-07
2.6805e-06
5.10695e-07
2.59544e-06
7.00782e-07
2.49172e-06
9.11072e-07
2.3774e-06
1.04967e-06
2.25656e-06
1.09826e-06
2.1859e-06
1.12464e-06
2.20631e-06
1.11151e-06
2.17095e-06
1.03866e-06
1.7814e-06
1.06179e-06
8.54501e-07
1.34266e-06
-5.05298e-07
1.78154e-06
-1.92864e-06
2.1997e-06
-3.14648e-06
2.56156e-06
-4.18942e-06
2.83129e-06
-5.09782e-06
3.01512e-06
-5.85291e-06
3.13564e-06
-6.47849e-06
3.20725e-06
-7.00212e-06
3.23839e-06
-7.45177e-06
3.23061e-06
-7.85745e-06
3.18508e-06
-8.24527e-06
3.10705e-06
-8.63213e-06
3.00012e-06
-9.02491e-06
2.86705e-06
-9.42281e-06
2.71164e-06
-9.82092e-06
2.53894e-06
-1.02125e-05
2.35341e-06
-1.05908e-05
2.15933e-06
-1.09501e-05
1.95945e-06
-1.12847e-05
1.75439e-06
-1.15886e-05
1.54302e-06
-1.18554e-05
1.32331e-06
-1.20781e-05
1.09343e-06
-1.22506e-05
8.52681e-07
-1.2368e-05
6.01691e-07
-1.2427e-05
3.41967e-07
-1.24222e-05
7.24705e-08
-1.23582e-05
-1.91757e-07
-1.22351e-05
-4.5251e-07
-1.20539e-05
-7.07108e-07
-1.18186e-05
-9.48887e-07
-1.15343e-05
-1.17336e-06
-1.12064e-05
-1.37745e-06
-1.08398e-05
-1.55931e-06
-1.04393e-05
-1.71819e-06
-1.0009e-05
-1.85438e-06
-9.55263e-06
-1.96913e-06
-9.07362e-06
-2.06464e-06
-8.57534e-06
-2.14412e-06
-8.06131e-06
-2.21201e-06
-7.53538e-06
-2.2741e-06
-7.00206e-06
-2.33751e-06
-6.46697e-06
-2.41062e-06
-5.93713e-06
-2.50286e-06
-5.4207e-06
-2.62413e-06
-4.92537e-06
-2.78296e-06
-4.45394e-06
-2.97891e-06
-4.00019e-06
-3.18666e-06
-3.55115e-06
-3.33583e-06
-3.09382e-06
-3.31102e-06
-2.62196e-06
-3.02908e-06
-2.16342e-06
-2.53537e-06
-1.56057e-06
-1.95722e-06
-8.47344e-07
-1.44779e-06
-2.70067e-07
-9.79704e-07
1.18525e-07
-1.20927e-07
3.93479e-07
9.38184e-07
5.39879e-07
1.82277e-06
4.22577e-07
2.00312e-06
3.88224e-07
1.14315e-06
4.05327e-07
1.5609e-07
-2.20898e-07
1.66659e-07
-1.17154e-06
1.30609e-06
-1.83791e-06
2.03199e-06
-2.08102e-06
1.91333e-06
-2.18258e-06
1.68809e-06
-2.29285e-06
1.51399e-06
-2.43218e-06
1.40543e-06
-2.62137e-06
1.36111e-06
-2.85803e-06
1.3655e-06
-3.14305e-06
1.4082e-06
-3.47628e-06
1.47791e-06
-3.85559e-06
1.56644e-06
-4.27554e-06
1.66303e-06
-4.72436e-06
1.75564e-06
-5.1853e-06
1.82897e-06
-5.63847e-06
1.86619e-06
-6.06487e-06
1.85395e-06
-6.4498e-06
1.78709e-06
-6.78535e-06
1.66969e-06
-7.06979e-06
1.51061e-06
-7.30477e-06
1.31814e-06
-7.49219e-06
1.09671e-06
-7.63083e-06
8.45764e-07
-7.71624e-06
5.63663e-07
-7.74246e-06
2.49232e-07
-7.69496e-06
-1.01801e-07
-7.55666e-06
-4.88668e-07
-7.31895e-06
-8.9715e-07
-6.97477e-06
-1.3145e-06
-6.52356e-06
-1.72229e-06