/*--------------------------------*- C++ -*----------------------------------*\
| =========                 |                                                 |
| \\      /  F ield         | OpenFOAM: The Open Source CFD Toolbox           |
|  \\    /   O peration     | Version:  2112                                  |
|   \\  /    A nd           | Website:  www.openfoam.com                      |
|    \\/     M anipulation  |                                                 |
\*---------------------------------------------------------------------------*/
FoamFile
{
    version     2.0;
    format      ascii;
    arch        "LSB;label=32;scalar=64";
    class       volVectorField;
    location    "0.13";
    object      ddt0(U);
}
// * * * * * * * * * * * * * * * * * * * * * * * * * * * * * * * * * * * * * //

dimensions      [0 1 -2 0 0 0 0];

internalField   nonuniform List<vector> 
12225
(
(-0.0830575 0.0423264 0)
(-0.916985 0.171138 0)
(-2.78322 0.341169 0)
(-5.84732 0.53069 0)
(-10.1881 0.752991 0)
(-16.0538 1.05679 0)
(-23.9496 1.50212 0)
(-34.5896 2.13227 0)
(-48.8083 2.96024 0)
(-67.3756 3.94018 0)
(-90.6654 4.89574 0)
(-117.845 5.375 0)
(-146.143 4.48283 0)
(-168.163 0.72363 0)
(-174.767 -7.65616 0)
(-143.93 -19.3876 0)
(-71.6063 -37.1532 0)
(-382.336 -36.7227 0)
(0.149375 0.0418545 0)
(0.566533 0.271264 0)
(0.682541 0.602848 0)
(0.0354877 0.995474 0)
(-1.64222 1.4869 0)
(-4.53244 2.14557 0)
(-8.88098 3.06451 0)
(-15.1181 4.36643 0)
(-23.9828 6.18136 0)
(-36.595 8.58684 0)
(-54.4567 11.4661 0)
(-79.1213 14.2969 0)
(-111.816 15.7881 0)
(-151.144 13.7864 0)
(-193.366 4.53534 0)
(-228.164 -12.7682 0)
(-198.244 -48.4117 0)
(-278.308 -97.1201 0)
(0.0388135 0.00925481 0)
(0.0930349 0.26575 0)
(-0.0170572 0.709256 0)
(-0.402427 1.304 0)
(-1.09176 2.07253 0)
(-2.09409 3.07025 0)
(-3.3744 4.39855 0)
(-4.82389 6.21454 0)
(-6.30781 8.71637 0)
(-7.78393 12.0884 0)
(-9.49426 16.3397 0)
(-12.1445 21.058 0)
(-17.2799 24.8961 0)
(-26.951 25.4995 0)
(-42.6681 17.9615 0)
(-65.8779 -3.2967 0)
(-67.559 -41.5831 0)
(-71.2902 -172.66 0)
(0.0401051 -0.00191593 0)
(0.00589275 0.228481 0)
(-0.356805 0.665628 0)
(-1.19074 1.28036 0)
(-2.48685 2.06938 0)
(-4.15865 3.06784 0)
(-6.06253 4.35218 0)
(-7.95993 6.03914 0)
(-9.46333 8.27988 0)
(-9.9861 11.2219 0)
(-8.74504 14.8986 0)
(-4.83738 19.0281 0)
(2.32221 22.5834 0)
(12.3448 23.5422 0)
(23.7839 17.338 0)
(28.9633 -3.81365 0)
(26.9423 -49.1054 0)
(-20.6788 -178.776 0)
(0.0400807 -0.016552 0)
(0.0209906 0.315626 0)
(-0.317482 0.956373 0)
(-1.15188 1.80224 0)
(-2.50795 2.81009 0)
(-4.32919 3.99605 0)
(-6.51092 5.41301 0)
(-8.88636 7.13949 0)
(-11.2002 9.25981 0)
(-13.0682 11.813 0)
(-13.938 14.6877 0)
(-13.0512 17.4649 0)
(-9.59368 19.148 0)
(-3.08997 17.9435 0)
(6.17611 10.4184 0)
(11.7187 -9.52604 0)
(6.98984 -48.2198 0)
(-45.8423 -126.15 0)
(0.039365 -0.0261801 0)
(0.025342 0.371087 0)
(-0.29399 1.11098 0)
(-1.08415 2.06732 0)
(-2.36021 3.19964 0)
(-4.06419 4.5127 0)
(-6.10002 6.03707 0)
(-8.32512 7.82234 0)
(-10.5457 9.91492 0)
(-12.5181 12.3043 0)
(-13.9671 14.8204 0)
(-14.6227 16.9953 0)
(-14.3941 17.8714 0)
(-13.6641 15.8749 0)
(-13.7347 8.56563 0)
(-19.8641 -7.35489 0)
(-37.8072 -32.6972 0)
(-91.7704 -68.3114 0)
(0.0379469 -0.0381957 0)
(0.0280072 0.420397 0)
(-0.268764 1.28479 0)
(-1.00707 2.40724 0)
(-2.1953 3.7251 0)
(-3.77241 5.21313 0)
(-5.64096 6.87427 0)
(-7.66187 8.73544 0)
(-9.66011 10.823 0)
(-11.4465 13.1104 0)
(-12.8648 15.4319 0)
(-13.875 17.3828 0)
(-14.7698 18.2124 0)
(-16.4809 16.8165 0)
(-21.0465 11.8234 0)
(-33.2674 2.20681 0)
(-58.4118 -10.304 0)
(-112.959 -20.464 0)
(0.0360114 -0.0515411 0)
(0.0311012 0.470215 0)
(-0.23824 1.46357 0)
(-0.918373 2.74511 0)
(-2.0147 4.2251 0)
(-3.46506 5.85535 0)
(-5.17374 7.61941 0)
(-7.01119 9.52714 0)
(-8.82639 11.5912 0)
(-10.4785 13.7828 0)
(-11.8931 15.9693 0)
(-13.1516 17.8576 0)
(-14.6865 18.9674 0)
(-17.5212 18.7278 0)
(-23.6319 16.7457 0)
(-36.7951 13.5501 0)
(-60.6895 12.1418 0)
(-105.427 20.2127 0)
(0.0335613 -0.0655057 0)
(0.0331751 0.517795 0)
(-0.206558 1.63662 0)
(-0.822013 3.07152 0)
(-1.81588 4.70985 0)
(-3.12729 6.48278 0)
(-4.66676 8.35324 0)
(-6.31933 10.3143 0)
(-7.96095 12.3719 0)
(-9.49567 14.5106 0)
(-10.9128 16.6514 0)
(-12.3661 18.6322 0)
(-14.3199 20.2368 0)
(-17.6845 21.3503 0)
(-24.0115 22.2862 0)
(-35.6994 24.4495 0)
(-54.4846 31.2538 0)
(-85.0968 50.1739 0)
(0.0305919 -0.0799543 0)
(0.0337379 0.561378 0)
(-0.17514 1.80179 0)
(-0.720366 3.38618 0)
(-1.60252 5.17829 0)
(-2.76409 7.08745 0)
(-4.12376 9.0569 0)
(-5.58191 11.0677 0)
(-7.03893 13.1277 0)
(-8.43297 15.2463 0)
(-9.79062 17.4095 0)
(-11.286 19.5849 0)
(-13.3315 21.7809 0)
(-16.6166 24.2094 0)
(-22.1637 27.5738 0)
(-31.1496 33.5345 0)
(-43.8829 45.0561 0)
(-61.6297 67.8867 0)
(0.0271851 -0.0941612 0)
(0.0328972 0.599677 0)
(-0.144585 1.95374 0)
(-0.61591 3.67792 0)
(-1.37987 5.61259 0)
(-2.38308 7.6466 0)
(-3.55269 9.70606 0)
(-4.80335 11.7634 0)
(-6.05497 13.8329 0)
(-7.26608 15.9531 0)
(-8.47284 18.1734 0)
(-9.82409 20.5707 0)
(-11.6221 23.3116 0)
(-14.2911 26.7873 0)
(-18.3514 31.8114 0)
(-24.0854 39.8736 0)
(-30.954 53.1137 0)
(-38.4069 75.3759 0)
(0.0233568 -0.106394 0)
(0.0295289 0.635924 0)
(-0.119612 2.08954 0)
(-0.520743 3.93338 0)
(-1.17106 5.98751 0)
(-2.02153 8.12374 0)
(-3.00705 10.2547 0)
(-4.05349 12.3477 0)
(-5.09277 14.4249 0)
(-6.08971 16.5515 0)
(-7.06867 18.8261 0)
(-8.12841 21.3972 0)
(-9.44852 24.513 0)
(-11.2238 28.6141 0)
(-13.6078 34.4432 0)
(-16.3658 43.1422 0)
(-18.6116 56.0564 0)
(-19.1466 75.4828 0)
(0.0185478 -0.117524 0)
(0.0229352 0.661191 0)
(-0.0974448 2.20011 0)
(-0.424695 4.14839 0)
(-0.955263 6.30671 0)
(-1.64568 8.53123 0)
(-2.43903 10.7222 0)
(-3.27127 12.8417 0)
(-4.08261 14.9183 0)
(-4.83718 17.0367 0)
(-5.53825 19.3285 0)
(-6.22789 21.9802 0)
(-6.97169 25.264 0)
(-7.78185 29.5878 0)
(-8.55989 35.536 0)
(-8.79425 43.8665 0)
(-7.55224 55.2706 0)
(-3.46518 70.9178 0)
(0.0132346 -0.127622 0)
(0.015563 0.686821 0)
(-0.0724639 2.30951 0)
(-0.314696 4.35883 0)
(-0.706273 6.61554 0)
(-1.20967 8.92009 0)
(-1.77614 11.1604 0)
(-2.35049 13.2926 0)
(-2.878 15.3493 0)
(-3.31599 17.4284 0)
(-3.63888 19.679 0)
(-3.82792 22.2965 0)
(-3.84609 25.5294 0)
(-3.57053 29.6898 0)
(-2.75493 35.1435 0)
(-0.812767 42.2509 0)
(3.01834 51.1587 0)
(9.90038 62.1936 0)
(0.00733225 -0.135089 0)
(0.00721103 0.70804 0)
(-0.0452549 2.40096 0)
(-0.191677 4.53355 0)
(-0.425095 6.86764 0)
(-0.714232 9.22864 0)
(-1.01834 11.4918 0)
(-1.29003 13.605 0)
(-1.47767 15.5987 0)
(-1.52989 17.5721 0)
(-1.39404 19.6711 0)
(-1.00371 22.0688 0)
(-0.256433 24.9514 0)
(1.0296 28.5019 0)
(3.1249 32.8678 0)
(6.51432 38.0923 0)
(11.6647 43.9916 0)
(19.3483 50.4094 0)
(0.000878759 -0.13799 0)
(-0.00187564 0.719989 0)
(-0.0155733 2.45497 0)
(-0.0561823 4.63469 0)
(-0.114267 7.00481 0)
(-0.165517 9.37722 0)
(-0.177892 11.6142 0)
(-0.112594 13.6523 0)
(0.0766942 15.5115 0)
(0.443886 17.2791 0)
(1.05367 19.0786 0)
(1.98972 21.0408 0)
(3.36593 23.2769 0)
(5.34347 25.8544 0)
(8.11981 28.7676 0)
(11.9856 31.8899 0)
(17.1171 34.9388 0)
(23.8996 37.6002 0)
(-0.00570664 -0.133759 0)
(-0.0104737 0.716753 0)
(0.0170767 2.44527 0)
(0.0883743 4.60956 0)
(0.214983 6.94556 0)
(0.41259 9.2559 0)
(0.701916 11.3917 0)
(1.10886 13.2761 0)
(1.66667 14.9129 0)
(2.4179 16.3683 0)
(3.41619 17.7364 0)
(4.72776 19.1061 0)
(6.43232 20.534 0)
(8.62272 22.024 0)
(11.3891 23.5124 0)
(14.8367 24.8473 0)
(18.9542 25.8072 0)
(23.8533 26.1177 0)
(-0.011617 -0.120299 0)
(-0.0166996 0.689874 0)
(0.0518211 2.34018 0)
(0.23161 4.39829 0)
(0.535231 6.60144 0)
(0.96751 8.75068 0)
(1.53367 10.6915 0)
(2.24016 12.3361 0)
(3.09716 13.6728 0)
(4.12159 14.748 0)
(5.33751 15.6337 0)
(6.77371 16.3962 0)
(8.45975 17.0739 0)
(10.4199 17.6654 0)
(12.6629 18.1255 0)
(15.1825 18.3613 0)
(17.9046 18.267 0)
(20.7985 17.6745 0)
(-0.0156108 -0.0972329 0)
(-0.0159715 0.62643 0)
(0.0921028 2.0986 0)
(0.365527 3.92697 0)
(0.81484 5.86955 0)
(1.43218 7.74103 0)
(2.20478 9.39398 0)
(3.11652 10.7397 0)
(4.15092 11.759 0)
(5.29563 12.4874 0)
(6.54362 12.9869 0)
(7.89062 13.3194 0)
(9.33134 13.5297 0)
(10.8546 13.6387 0)
(12.439 13.6433 0)
(14.0472 13.518 0)
(15.6255 13.2424 0)
(17.0935 12.7375 0)
(-0.0170556 -0.0740029 0)
(-0.013745 0.546283 0)
(0.116791 1.80066 0)
(0.442403 3.35274 0)
(0.971332 4.99355 0)
(1.68635 6.56217 0)
(2.56155 7.9282 0)
(3.56597 9.01143 0)
(4.667 9.79339 0)
(5.83524 10.3053 0)
(7.04691 10.6054 0)
(8.28259 10.7541 0)
(9.52522 10.8014 0)
(10.7567 10.7827 0)
(11.9559 10.7202 0)
(13.0912 10.6233 0)
(14.1406 10.5056 0)
(15.0179 10.3339 0)
(-0.0175403 -0.0570846 0)
(-0.0118428 0.472352 0)
(0.130786 1.53547 0)
(0.483646 2.84772 0)
(1.05308 4.2332 0)
(1.81576 5.55608 0)
(2.73743 6.69652 0)
(3.77939 7.58794 0)
(4.90138 8.21716 0)
(6.06722 8.6112 0)
(7.2452 8.82496 0)
(8.40732 8.91686 0)
(9.53373 8.93631 0)
(10.6108 8.92142 0)
(11.6265 8.90076 0)
(12.5597 8.89507 0)
(13.4081 8.92699 0)
(14.089 8.98172 0)
(-0.0172015 -0.0444955 0)
(-0.00759679 0.399209 0)
(0.143492 1.28778 0)
(0.514094 2.38159 0)
(1.11092 3.53461 0)
(1.89716 4.65959 0)
(2.83534 5.60932 0)
(3.89293 6.34169 0)
(5.02144 6.84933 0)
(6.18076 7.16833 0)
(7.33969 7.34605 0)
(8.46628 7.42499 0)
(9.53755 7.44946 0)
(10.5422 7.45961 0)
(11.4765 7.48796 0)
(12.3314 7.5597 0)
(13.1197 7.69758 0)
(13.7635 7.89541 0)
(-0.0171252 -0.0309791 0)
(-0.00183276 0.339582 0)
(0.15654 1.06716 0)
(0.536264 1.96453 0)
(1.17005 2.88054 0)
(1.9754 3.8378 0)
(2.90145 4.62416 0)
(3.9562 5.23077 0)
(5.09115 5.61032 0)
(6.26153 5.85023 0)
(7.41067 6.02051 0)
(8.50391 6.12848 0)
(9.53423 6.19123 0)
(10.501 6.24203 0)
(11.4062 6.31954 0)
(12.2433 6.44989 0)
(13.0292 6.65136 0)
(13.6916 6.92244 0)
(-0.0174316 -0.0217911 0)
(-0.00902213 0.279267 0)
(0.151848 0.866749 0)
(0.520311 1.60343 0)
(1.19242 2.43683 0)
(2.03479 3.0802 0)
(2.94816 3.76133 0)
(3.96868 4.4204 0)
(5.07863 4.7531 0)
(6.29813 4.89324 0)
(7.49725 4.99352 0)
(8.59067 5.09422 0)
(9.59253 5.17466 0)
(10.5349 5.22056 0)
(11.4309 5.30099 0)
(12.2687 5.45144 0)
(13.0732 5.68019 0)
(13.7773 5.97887 0)
(-0.0184109 -0.0162356 0)
(-0.00772067 0.225488 0)
(0.165382 0.681665 0)
(0.604309 1.21338 0)
(1.19156 1.78162 0)
(2.01161 2.17188 0)
(3.1332 2.58837 0)
(4.14286 2.8403 0)
(5.08963 3.32478 0)
(6.25445 3.75013 0)
(7.49292 3.91279 0)
(8.62257 4.03381 0)
(9.59473 4.22023 0)
(10.5076 4.33915 0)
(11.4286 4.45413 0)
(12.31 4.60859 0)
(13.1479 4.7988 0)
(13.8825 5.08371 0)
(-0.0178926 -0.0119925 0)
(-0.0118407 0.185912 0)
(0.13436 0.587919 0)
(0.509231 1.06718 0)
(1.09011 1.49465 0)
(1.90907 1.99421 0)
(2.87926 2.33814 0)
(4.09975 2.52647 0)
(5.44984 2.92745 0)
(6.56038 3.30439 0)
(7.63403 3.50296 0)
(8.80122 3.48627 0)
(9.79161 3.37938 0)
(10.6312 3.49728 0)
(11.4953 3.70415 0)
(12.3227 3.95612 0)
(13.167 4.16986 0)
(13.9655 4.40309 0)
(-0.016524 -0.00608979 0)
(0.0172751 0.104179 0)
(0.202663 0.335638 0)
(0.59245 0.655214 0)
(1.18766 1.01491 0)
(2.00332 1.43009 0)
(3.01087 1.77554 0)
(4.18833 2.18142 0)
(5.39409 2.31813 0)
(6.48721 2.3751 0)
(7.47043 2.49623 0)
(8.38032 2.49458 0)
(9.41366 2.41841 0)
(10.4782 2.51949 0)
(11.4139 2.66599 0)
(12.1944 2.77982 0)
(12.901 3.06044 0)
(13.6717 3.3928 0)
(-0.0193759 -0.0125186 0)
(-0.0295003 0.0982323 0)
(0.0771934 0.284191 0)
(0.355658 0.510393 0)
(0.809885 0.763335 0)
(1.44993 1.03718 0)
(2.25793 1.2766 0)
(3.19122 1.49113 0)
(4.16414 1.58732 0)
(5.07057 1.69171 0)
(5.87442 1.81807 0)
(6.61782 2.02171 0)
(7.35705 2.29122 0)
(8.00775 2.43421 0)
(8.47773 2.54703 0)
(8.91902 2.65843 0)
(9.38524 2.93677 0)
(9.64042 3.26588 0)
(-0.0532942 0.0135821 0)
(-0.251622 0.142098 0)
(-0.391937 0.323496 0)
(-0.285559 0.501882 0)
(0.14373 0.661447 0)
(0.881777 0.817138 0)
(1.86743 0.969535 0)
(3.03409 1.1291 0)
(4.30423 1.25921 0)
(5.5903 1.38997 0)
(6.85894 1.53957 0)
(8.1388 1.7279 0)
(9.46744 1.90543 0)
(10.8126 2.02303 0)
(12.1493 2.18914 0)
(13.5424 2.45469 0)
(15.0104 2.65715 0)
(16.4241 2.86049 0)
(0.0284702 0.0282535 0)
(0.357393 0.0919302 0)
(1.0735 0.154249 0)
(2.18293 0.210072 0)
(3.59482 0.264716 0)
(5.25839 0.324747 0)
(7.17 0.387585 0)
(9.3371 0.458069 0)
(11.7157 0.528802 0)
(14.2536 0.612178 0)
(16.9609 0.715231 0)
(19.8853 0.835263 0)
(23.0572 0.950192 0)
(26.4031 1.04375 0)
(29.8807 1.14452 0)
(33.5248 1.255 0)
(37.3352 1.32099 0)
(41.1616 1.40336 0)
(26.7629 28.4359 -1.81503e-18)
(-63.6416 51.7039 4.55185e-19)
(-218.004 92.8645 0)
(-263.912 72.1561 0)
(-298.024 1.0307 0)
(-273.274 -61.4479 -2.91355e-18)
(-208.381 -100.194 0)
(-116.014 -120.527 0)
(-11.5861 -130.793 0)
(99.0015 -136.214 0)
(178.847 -148.439 8.25578e-19)
(283.891 -148.463 0)
(394.645 -134.013 0)
(488.488 -98.2696 0)
(557.266 -36.8073 0)
(588.505 45.9475 -1.13662e-18)
(564.329 139.963 0)
(472.365 236.261 0)
(285.694 279.806 0)
(122.502 172.809 0)
(-36.8611 120.346 0)
(-279.3 152.554 0)
(-452.137 144.052 0)
(-469.889 -53.8647 7.37682e-18)
(-376.26 -217.979 -3.98072e-18)
(-194.526 -244.303 2.68827e-18)
(-8.81964 -75.2303 1.58353e-18)
(133.409 193.794 0)
(214.721 262.915 0)
(315.22 -41.7423 -7.21326e-19)
(568.089 -469.082 2.3894e-18)
(911.509 -518.665 0)
(1084.28 -328.44 0)
(1160.99 -207.21 -7.49756e-18)
(1177.47 -106.544 0)
(1143.83 -25.9018 0)
(1073.91 34.065 1.8516e-18)
(980.094 74.6999 0)
(873.066 99.0711 4.46208e-19)
(761.272 110.858 3.10221e-19)
(650.44 113.721 0)
(543.921 110.789 0)
(443.534 104.298 0)
(349.824 95.5108 0)
(263.32 84.6609 0)
(183.65 72.334 1.09823e-18)
(108.277 59.9225 1.69747e-18)
(43.3396 49.7396 2.09419e-18)
(-17.9353 41.9283 0)
(-67.3305 36.5863 -3.38244e-18)
(-114.157 33.6164 0)
(-159.404 32.0208 4.53482e-18)
(-202.955 30.7902 5.12052e-18)
(-245.302 29.6688 0)
(-286.316 28.4629 0)
(-325.786 27.0873 0)
(-363.386 25.4924 7.4402e-18)
(-398.736 23.6528 0)
(-431.428 21.5599 0)
(-461.036 19.2181 0)
(-487.144 16.6429 0)
(-509.35 13.8601 0)
(-527.293 10.9057 0)
(-540.662 7.82599 0)
(-549.221 4.67895 0)
(-552.833 1.53367 -1.21572e-17)
(-551.482 -1.53137 0)
(-545.289 -4.43254 0)
(-534.521 -7.08697 1.34498e-17)
(-519.589 -9.42002 1.38439e-17)
(-501.027 -11.3729 0)
(-479.467 -12.9088 -1.45972e-17)
(-455.598 -14.019 1.49038e-17)
(-430.104 -14.7322 0)
(-403.635 -15.1171 -1.54934e-17)
(-376.804 -15.2373 0)
(-350.035 -15.0865 0)
(-323.844 -14.7964 1.59227e-17)
(-299.421 -14.7212 0)
(-276.009 -14.3942 -1.36266e-17)
(-252.609 -14.1964 0)
(-230.936 -13.4525 1.18633e-17)
(-209.88 -12.6802 1.1405e-17)
(-189.762 -11.9731 1.10178e-17)
(-170.516 -11.3371 2.13941e-17)
(-151.962 -10.8189 -2.08726e-17)
(-133.9 -10.5761 0)
(-115.958 -10.901 0)
(-97.5807 -11.5021 0)
(-78.3043 -10.4314 -1.98175e-17)
(-58.4967 -8.4071 -1.98277e-17)
(-39.7156 -19.7838 1.9992e-17)
(-6.69611 -57.2464 0)
(85.044 -86.8414 -1.97435e-17)
(178.039 -79.6383 -1.99008e-17)
(253.874 -38.51 -2.0329e-17)
(300.312 13.1706 0)
(311.409 51.6202 0)
(296.258 63.9189 0)
(268.898 54.7397 -2.04848e-17)
(239.085 37.8133 0)
(210.299 22.216 0)
(182.639 9.39556 2.01195e-17)
(156.08 -0.974594 0)
(130.4 -6.51347 0)
(106.837 -7.32194 1.91779e-17)
(87.4656 -5.02538 0)
(74.0947 -1.3886 0)
(66.8631 2.31012 -1.8254e-17)
(64.498 5.11483 -1.78861e-17)
(65.1412 6.2334 0)
(66.9884 5.75437 1.7209e-17)
(68.2892 4.30178 0)
(66.9562 3.16649 -1.66414e-17)
(60.558 3.45163 0)
(48.4925 5.3613 -1.58889e-17)
(34.1674 8.18373 -1.58335e-17)
(22.0499 10.6593 0)
(10.415 10.7837 0)
(-9.068 5.73927 0)
(-39.0573 -4.94915 0)
(-68.161 -13.399 0)
(-89.7067 -5.63412 0)
(-129.978 20.1631 0)
(-224.083 41.2152 -1.14874e-17)
(-350.01 22.9759 1.09895e-17)
(-409.898 -41.7692 0)
(-312.803 -92.4985 0)
(-104.807 -51.5815 0)
(41.8663 54.332 0)
(123.591 101.633 8.06631e-18)
(345.642 22.0387 0)
(870.781 -184.034 3.93692e-20)
(1655.01 -386.559 -8.53248e-18)
(2394.73 -388.832 0)
(2804.45 -178.732 0)
(2802.15 -6.12339 0)
(2568.01 89.724 5.8306e-17)
(2219.21 138.437 4.96869e-17)
(1818.83 158.821 0)
(1402.59 162.968 2.87044e-17)
(987.765 156.944 1.6401e-17)
(582.536 143.204 -2.91626e-18)
(197.964 126.293 0)
(-179.334 105.489 0)
(-444.633 84.915 3.76701e-17)
(-702.892 77.7528 0)
(-940.94 71.7093 0)
(-1160.23 65.0479 0)
(-1357.95 57.3528 0)
(-1529.08 48.3006 -8.8585e-17)
(-1665.95 37.2389 -9.20355e-17)
(-1759.65 22.8234 0)
(-1803.46 4.14445 -8.17617e-17)
(-1795.51 -11.717 0)
(-1736.5 -30.8245 0)
(-1618.5 -43.7796 -4.33943e-17)
(-1464.71 -50.5207 0)
(-1289.83 -55.4655 -2.72105e-17)
(-1111.27 -60.4501 0)
(-937.656 -53.4541 0)
(-790.992 -6.44695 -1.49382e-17)
(-739.739 59.5212 0)
(-827 -1.1035 -2.09034e-17)
(-725.68 -244.032 0)
(-81.8341 -358.719 0)
(507.485 -198.409 0)
(819.421 60.9658 1.74989e-17)
(831.135 219.304 0)
(648.827 273.568 1.02939e-17)
(416.084 277.689 0)
(238.94 198.76 0)
(82.8273 72.3142 0)
(-210.969 20.4377 0)
(-876.562 23.3802 0)
(-1637.02 -92.7925 0)
(-1240.54 -227.078 0)
(686.77 -455.124 2.6546e-18)
(3599.47 -654.135 0)
(5731.89 -237.976 0)
(73.873 31.6767 6.04747e-18)
(-183.624 331.486 -1.46303e-17)
(-202.198 373.893 0)
(-168.007 180.607 6.01464e-18)
(-106.121 -32.6462 0)
(-32.8093 -180.453 1.3068e-18)
(39.639 -256.111 -7.07623e-19)
(106.633 -283.375 -1.70371e-19)
(165.542 -286.797 0)
(212.925 -281.562 -1.43979e-19)
(277.31 -277.648 -9.24531e-19)
(319.033 -275.793 0)
(358.382 -268.401 0)
(416.99 -241.181 0)
(492.934 -176.435 0)
(570.481 -61.74 -5.16652e-19)
(625.581 102.295 0)
(627.473 289.181 -1.45642e-18)
(533.481 416.891 0)
(335.844 440.396 0)
(253.228 400.385 -1.74662e-18)
(0.0727448 452.41 0)
(-204.244 509.288 8.64728e-18)
(-29.9937 -149.248 -2.68949e-19)
(153.513 -424.304 1.426e-18)
(411.117 -540.144 -5.92679e-18)
(687.176 -613.398 -4.79126e-18)
(1167.58 -642.81 0)
(1416.04 -637.64 0)
(1472.23 -576.761 9.01845e-18)
(1435.25 -464.38 -6.02948e-18)
(1338.4 -289.134 0)
(1192.97 -105.737 0)
(1038.42 41.0419 2.53859e-18)
(874.378 151.118 0)
(712.715 224.024 0)
(563.136 263.494 3.01052e-19)
(432.212 276.265 0)
(323.013 270.206 -7.59853e-19)
(235.533 252.766 2.3572e-18)
(167.705 230.057 0)
(116.34 206.461 0)
(77.9591 184.583 2.4362e-18)
(48.2381 165.336 1.70717e-18)
(24.1673 149.425 1.71197e-19)
(4.45272 135.142 5.92933e-19)
(-14.1011 122.045 -1.39122e-18)
(-40.6032 112.358 -6.49848e-18)
(-68.2954 104.653 5.99833e-18)
(-107.298 98.7082 3.45616e-18)
(-148.323 94.4981 0)
(-189.902 91.3231 -4.60845e-18)
(-231.687 88.3658 5.13241e-18)
(-272.83 85.2611 0)
(-312.937 81.742 0)
(-351.587 77.6494 0)
(-388.365 72.884 -7.39235e-18)
(-422.842 67.3927 0)
(-454.581 61.1604 1.67903e-17)
(-483.147 54.2048 0)
(-508.119 46.5727 1.87978e-17)
(-529.098 38.3384 0)
(-545.721 29.6042 -2.07008e-17)
(-557.677 20.5036 0)
(-564.725 11.2056 2.24824e-17)
(-566.724 1.91527 -1.16684e-17)
(-563.657 -7.13121 0)
(-555.66 -15.6802 -2.48955e-17)
(-543.024 -23.4789 -1.27886e-17)
(-526.201 -30.2981 -1.31351e-17)
(-505.776 -35.9554 0)
(-482.429 -40.3361 -1.38018e-17)
(-456.892 -43.4109 -1.40826e-17)
(-429.905 -45.2323 0)
(-402.164 -45.9085 1.45874e-17)
(-374.302 -45.5747 -2.92427e-17)
(-346.832 -44.3597 0)
(-320.19 -42.4777 -1.50925e-17)
(-295.527 -40.4105 0)
(-271.637 -38.1655 4.13583e-17)
(-248.658 -36.5538 0)
(-227.427 -34.5368 -3.33072e-17)
(-207.59 -32.6119 -1.07022e-17)
(-189.141 -30.9076 1.03696e-17)
(-171.851 -29.4565 2.01506e-17)
(-155.445 -28.3014 -1.96504e-17)
(-139.644 -27.4958 0)
(-124.253 -27.1637 0)
(-109.22 -27.5374 0)
(-94.3275 -28.6114 5.49781e-17)
(-78.2666 -30.4162 1.82732e-17)
(-58.6734 -36.7919 -1.82062e-17)
(-47.2364 -53.8595 0)
(-79.5955 -74.7055 -1.69908e-17)
(-98.1389 -88.8159 1.68414e-17)
(-80.3931 -89.2098 1.60368e-17)
(-37.7655 -73.2589 0)
(18.4177 -46.8865 0)
(78.0147 -20.1385 0)
(132.06 1.1639 1.62909e-17)
(174.658 16.4437 0)
(203.388 27.6007 -3.33261e-17)
(218.171 36.8868 -5.03654e-17)
(219.674 45.4763 3.36953e-17)
(208.399 50.7239 0)
(188.674 47.7378 1.67184e-17)
(165.815 36.892 0)
(145.159 22.2155 3.24111e-17)
(130.469 7.97102 -1.6046e-17)
(122.728 -2.4757 -1.57944e-17)
(121.6 -8.21713 0)
(126.121 -8.4515 -4.66114e-17)
(133.908 -4.44925 3.08452e-17)
(140.193 2.99455 1.50202e-17)
(137.11 11.867 0)
(118.828 17.4189 1.46409e-17)
(90.2414 15.1828 4.20982e-17)
(67.6211 8.80042 0)
(61.9958 11.4043 2.81784e-17)
(60.2403 29.3886 2.55947e-17)
(34.0967 48.7534 2.62362e-17)
(-29.3317 52.2499 0)
(-120.15 50.9539 0)
(-232.594 76.0726 0)
(-368.672 121.696 -1.09398e-17)
(-496.165 118.604 -8.95782e-18)
(-551.495 12.3822 0)
(-496.887 -139.162 -1.26192e-17)
(-317.521 -210.018 -1.27715e-17)
(66.5638 -193.257 0)
(805.721 -314.401 -6.29303e-18)
(1934.83 -641.573 -1.64343e-18)
(3185.63 -915.845 -3.45663e-18)
(3881.16 -789.688 -3.32802e-17)
(3626.72 -313.041 0)
(3025.9 75.007 0)
(2384.3 290.549 0)
(1799.37 383.748 -5.49048e-17)
(1308.75 405.552 4.82865e-17)
(914 394.447 8.32506e-17)
(597.232 372.306 -3.18247e-17)
(339.199 348.169 1.68895e-17)
(120.943 323.452 3.67038e-18)
(-76.9432 299.28 0)
(-251.122 271.307 0)
(-512.723 242.88 3.74524e-17)
(-758.67 224.426 0)
(-993.469 206.559 0)
(-1211.43 186.895 -1.36703e-16)
(-1408.88 164.247 0)
(-1580.8 137.538 -8.32027e-17)
(-1720.11 105.354 8.28524e-17)
(-1817.79 66.1692 0)
(-1863.18 19.4514 -8.0707e-17)
(-1857.91 -28.1731 0)
(-1794.71 -79.4325 0)
(-1669.78 -118.359 4.11334e-17)
(-1507.7 -139.16 -6.45592e-17)
(-1322.28 -143.417 2.65571e-17)
(-1140.94 -134.011 0)
(-993.518 -117.528 0)
(-884.962 -90.5468 -1.33336e-17)
(-754.508 -42.3567 0)
(-589.054 -18.9175 -1.6216e-17)
(-681.711 -102.855 0)
(-1123.38 -237.552 0)
(-1245.74 -288.71 0)
(-1063.12 -220.452 -3.34365e-19)
(-871.754 -103.773 0)
(-765.21 -36.7916 -1.46018e-17)
(-591.122 -45.9274 0)
(-57.927 -78.6441 0)
(738.012 28.0593 -4.89771e-17)
(1180.58 390.139 8.24186e-17)
(849.074 750.595 0)
(-76.4297 343.88 0)
(-190.756 -894.347 0)
(3144.48 -1912.47 -5.9126e-18)
(6885.43 -1647.99 0)
(6328.82 -218.991 -7.48114e-16)
(-97.9872 318.995 -1.7031e-18)
(-135.047 546.348 1.80138e-17)
(-55.4516 279.887 0)
(61.8204 -58.6348 -4.01744e-18)
(162.731 -280.182 0)
(225.443 -375.387 0)
(257.274 -393.663 6.06548e-19)
(274.027 -378.76 -2.5056e-18)
(286.771 -354.743 -3.0791e-18)
(297.333 -331.763 -2.54016e-18)
(313.289 -312.834 0)
(326.506 -304.854 0)
(339.398 -306.402 -3.50565e-18)
(356.946 -307.813 -8.47307e-18)
(392.441 -281.956 8.89871e-18)
(453.892 -188.56 0)
(527.447 -2.02999 4.7945e-18)
(588.88 264.37 8.7194e-19)
(595.177 573.349 0)
(580.783 729.858 -3.83194e-18)
(414.317 632.67 -4.75097e-18)
(84.4657 827.517 4.26415e-19)
(460.213 598.136 -1.12957e-17)
(996.514 -779.147 0)
(1323.86 -1366.01 1.72107e-17)
(1414.81 -1027.53 4.95591e-17)
(1449.7 -877.226 0)
(1429.47 -711.225 2.52071e-17)
(1310.59 -507.495 0)
(1129.68 -299.778 1.14663e-17)
(906.859 -110.325 4.92698e-18)
(677.704 63.69 0)
(474.393 215.038 0)
(312.714 325.091 0)
(195.635 390.403 0)
(122.228 414.91 0)
(85.505 407.421 0)
(75.4664 378.844 -4.36995e-18)
(81.2494 339.562 6.96898e-18)
(93.0412 297.854 0)
(103.396 259.221 0)
(107.621 226.587 0)
(103.221 200.981 -5.49827e-19)
(90.2957 182.186 -1.30511e-18)
(68.0905 170.077 -9.10251e-20)
(37.0064 163.475 -1.62817e-18)
(2.67918 160.142 -3.62027e-18)
(-34.6863 158.098 5.10691e-18)
(-75.4487 156.745 -1.03726e-19)
(-116.709 155.104 7.1475e-18)
(-158.261 152.691 0)
(-200.2 149.548 9.30499e-18)
(-242.276 145.743 -8.76028e-20)
(-284.037 141.08 0)
(-325.021 135.401 0)
(-364.742 128.571 -1.35664e-17)
(-402.702 120.499 0)
(-438.392 111.144 0)
(-471.306 100.514 1.64715e-17)
(-500.952 88.6616 3.51211e-17)
(-526.858 75.68 -1.85946e-17)
(-548.58 61.7005 0)
(-565.702 46.8935 2.03601e-17)
(-577.85 31.4773 0)
(-584.714 15.73 2.20645e-17)
(-586.079 -0.00181254 2.27815e-17)
(-581.868 -15.3093 -4.72156e-17)
(-572.187 -29.7461 -2.4412e-17)
(-557.349 -42.8637 0)
(-537.877 -54.2579 5.12849e-17)
(-514.479 -63.6197 0)
(-487.995 -70.7755 8.03429e-17)
(-459.336 -75.704 5.47466e-17)
(-429.42 -78.5111 5.54371e-17)
(-399.088 -79.3932 -5.62228e-17)
(-369.017 -78.5785 8.64507e-17)
(-339.746 -76.3015 0)
(-311.791 -72.7681 0)
(-285.822 -68.9045 -5.21938e-17)
(-260.597 -64.7633 -6.84024e-17)
(-236.748 -60.6252 0)
(-214.343 -56.4161 2.1074e-17)
(-193.585 -52.4513 0)
(-174.541 -48.9134 -5.94162e-17)
(-157.206 -45.9586 2.33525e-20)
(-141.499 -43.7071 -2.02513e-20)
(-127.22 -42.2322 3.69602e-17)
(-114.073 -41.5303 0)
(-101.715 -41.5221 -3.57598e-17)
(-89.7209 -42.515 1.13738e-20)
(-77.7515 -45.4947 0)
(-65.8997 -49.5035 0)
(-55.0055 -51.6124 0)
(-49.1273 -57.0892 3.35417e-17)
(-53.8377 -67.2717 0)
(-72.6029 -76.4605 0)
(-88.8417 -75.6616 0)
(-91.1469 -65.3109 0)
(-77.8811 -51.5845 0)
(-54.357 -38.9455 2.97322e-17)
(-26.0492 -27.4564 0)
(3.22172 -14.9376 2.96443e-17)
(30.87 -0.765686 2.97503e-17)
(55.6072 13.2416 -2.99264e-17)
(77.633 23.7919 0)
(97.8344 29.1684 -3.04672e-17)
(116.945 28.8237 0)
(134.54 23.7896 -2.9656e-17)
(150.163 16.4986 2.98298e-17)
(164.001 8.75171 8.92128e-17)
(176.624 2.32748 0)
(188.46 -3.97729 8.85374e-17)
(200.28 -6.86821 2.82835e-17)
(213.109 -0.277969 0)
(221.156 18.9683 5.70259e-17)
(212.418 41.8613 5.37243e-17)
(181.045 49.3945 -8.32392e-17)
(139.385 33.9329 0)
(109.576 16.8972 -2.53021e-17)
(96.3802 28.3851 -2.58997e-17)
(74.5174 67.8822 -8.33635e-17)
(7.83403 109.529 0)
(-125.348 148.7 0)
(-318.62 201.775 0)
(-518.884 240.33 -1.91049e-17)
(-627.486 179.307 0)
(-566.851 -19.0837 0)
(-325.032 -276.346 7.57859e-18)
(134.588 -506.462 7.44983e-18)
(1032.6 -817.513 0)
(2349.41 -1229.06 0)
(3615.67 -1497.34 2.18451e-17)
(4025 -1207.05 0)
(3332.45 -447.561 6.20387e-17)
(2497.9 129.936 8.85837e-17)
(1839.72 476.174 0)
(1412.78 622.03 0)
(1161.7 640.473 -1.03385e-16)
(998.721 603.604 -4.13745e-18)
(853.811 554.332 -3.2766e-18)
(687.317 511.121 0)
(485.97 478.23 -5.63669e-17)
(252.861 454.133 0)
(-2.35882 434.899 0)
(-264.742 415.665 0)
(-521.325 396.223 -7.48283e-17)
(-767.347 370.552 0)
(-1001.86 342.069 2.32463e-16)
(-1221.63 309.834 1.35249e-16)
(-1423.5 272.55 0)
(-1602.97 228.507 1.51715e-16)
(-1753.16 175.226 0)
(-1864.65 110.341 0)
(-1925.16 33.3836 5.03582e-16)
(-1935.21 -50.0576 -3.42319e-16)
(-1877.02 -133.338 0)
(-1749.57 -199.835 -1.65531e-16)
(-1577.95 -238.806 6.41102e-17)
(-1380.21 -249.767 0)
(-1180.52 -232.394 0)
(-1001.59 -191.993 0)
(-864.467 -141.302 7.99271e-17)
(-777.605 -91.9605 0)
(-720.497 -46.0899 2.90533e-17)
(-681.233 -28.9975 0)
(-735.094 -82.4484 0)
(-966.042 -152.782 0)
(-1233.21 -147.524 0)
(-1303.22 -35.9086 0)
(-1274.73 53.3149 0)
(-1310.44 -55.7803 -1.64456e-17)
(-1165.74 -332.206 0)
(-580.302 -486.385 3.2798e-17)
(122.441 -144.843 -1.93046e-16)
(731.765 572.087 0)
(1249.17 364.114 0)
(2246.9 -1603.94 9.9979e-17)
(4998.59 -3103.16 8.77282e-18)
(6158.02 -1971.19 2.53059e-16)
(4653.56 177.085 6.82927e-16)
(-59.2906 583.921 -2.0874e-17)
(31.9098 368.401 -9.14893e-18)
(167.604 -78.492 1.26168e-18)
(270.335 -331.945 3.45876e-18)
(307.046 -397.959 0)
(301.767 -382.879 -9.79264e-18)
(288.214 -357.25 6.19564e-18)
(284.952 -341.688 0)
(293.267 -332.497 6.86666e-18)
(306.677 -326.808 0)
(324.59 -318.257 -1.24431e-17)
(330.559 -326.809 0)
(343.128 -345.24 2.26851e-18)
(356.158 -365.353 7.22836e-18)
(378.041 -359.988 -8.96961e-18)
(427.045 -280.094 0)
(506.151 -86.5318 -7.17591e-18)
(594.955 197.58 0)
(666.177 442.395 0)
(628.762 722.858 -5.8689e-18)
(304.38 1546.69 0)
(655.698 741.308 4.34731e-18)
(1733.75 -1470.86 0)
(1647.16 -1302.51 0)
(1567.13 -1116.97 -6.11704e-18)
(1363.15 -841.58 -2.26835e-17)
(1149.25 -591.56 -1.20473e-17)
(896.01 -334.604 -1.13881e-17)
(642.856 -91.2556 0)
(412.074 109.558 -5.20493e-18)
(219.687 259.419 0)
(78.4897 363.431 2.02889e-18)
(-5.86638 423.901 0)
(-38.184 442.991 0)
(-30.0984 430.54 -4.04825e-18)
(2.96939 398.726 0)
(45.6644 359.255 4.14386e-18)
(86.0204 320.85 9.38543e-20)
(116.7 288.383 -7.81005e-18)
(134.604 263.471 7.20042e-18)
(139.608 245.701 0)
(133.192 233.738 0)
(117.338 226.059 2.33661e-18)
(94.2552 221.413 0)
(66.3514 218.241 4.2142e-19)
(34.5907 216.67 1.84498e-19)
(-1.1254 216.332 4.03879e-18)
(-38.1374 215.273 0)
(-75.9592 214.582 -6.30992e-18)
(-115.257 213.662 -7.39855e-18)
(-155.382 211.95 1.67413e-17)
(-196.001 209.115 -9.57702e-18)
(-236.866 204.962 -1.06603e-17)
(-277.693 199.297 0)
(-318.15 191.937 0)
(-357.832 182.734 1.381e-17)
(-396.263 171.588 0)
(-432.917 158.469 0)
(-467.253 143.413 -3.34489e-17)
(-498.734 126.517 -3.52806e-17)
(-526.85 107.927 0)
(-551.103 87.8295 0)
(-571 66.4547 0)
(-586.048 44.0916 0)
(-595.766 21.1188 -4.3631e-17)
(-599.726 -1.96614 4.53251e-17)
(-597.625 -24.5415 4.66193e-17)
(-589.357 -45.8953 9.63523e-17)
(-575.075 -65.2856 0)
(-555.222 -82.0303 3.12368e-19)
(-530.503 -95.613 0)
(-501.824 -105.729 -5.27365e-17)
(-470.254 -112.312 1.91063e-19)
(-436.929 -115.549 -5.4636e-17)
(-402.875 -115.817 5.50644e-17)
(-369.095 -113.538 -3.0988e-20)
(-336.451 -109.346 0)
(-306.458 -103.743 5.2683e-17)
(-278.591 -98.4979 4.53125e-17)
(-252.97 -92.8377 8.69101e-17)
(-229.037 -86.9678 0)
(-206.754 -81.0835 -4.03964e-17)
(-185.799 -75.2564 0)
(-165.969 -69.601 7.62346e-17)
(-147.279 -64.3216 -3.72131e-17)
(-129.931 -59.689 3.64519e-17)
(-114.209 -55.9937 -3.57943e-17)
(-100.351 -53.4882 -7.04788e-17)
(-88.3941 -52.3272 3.46861e-17)
(-78.1294 -52.5719 -3.41566e-17)
(-69.4817 -54.3356 0)
(-62.6704 -57.6879 6.66289e-17)
(-57.4584 -62.403 0)
(-53.7009 -67.9421 6.50754e-17)
(-52.07 -70.8151 -6.43112e-17)
(-52.8231 -68.1478 -6.42657e-17)
(-54.986 -61.7515 6.19786e-17)
(-57.4872 -54.198 6.16607e-17)
(-59.0728 -47.3233 0)
(-58.2631 -41.2643 2.96718e-17)
(-54.8344 -34.8345 0)
(-48.1639 -26.5106 0)
(-37.0823 -15.4287 5.75289e-17)
(-21.1046 -2.96558 0)
(-1.76763 7.44518 0)
(17.9696 11.9643 5.73363e-17)
(35.6974 8.73225 0)
(51.2989 -1.0287 0)
(67.4767 -13.2034 0)
(87.9994 -22.9727 -1.12804e-16)
(113.442 -26.8079 0)
(141.741 -27.5094 -1.09479e-16)
(171.11 -25.6046 -5.32525e-17)
(199.697 -15.8576 -5.55564e-17)
(224.969 10.4906 -4.07133e-20)
(238.875 49.6716 -5.2704e-17)
(231.496 75.8074 1.10782e-16)
(203.964 67.4626 5.27116e-17)
(173.177 43.3954 0)
(152.012 50.8839 4.86541e-17)
(122.268 111.04 1.10196e-16)
(34.09 202.924 0)
(-153.022 300.251 0)
(-409.008 373.836 0)
(-612.762 355.142 2.33781e-18)
(-621.323 162.201 0)
(-364.909 -212.625 0)
(165.986 -684.715 0)
(1084.72 -1215.46 0)
(2346.79 -1734.58 -1.72121e-17)
(3526.69 -2028.67 0)
(3876.31 -1718.55 -7.01607e-17)
(2999.97 -718.378 0)
(2091.39 94.4076 -1.42858e-16)
(1536.46 556.436 -8.06727e-17)
(1298.8 731.075 1.89963e-16)