/*--------------------------------*- C++ -*----------------------------------*\
| =========                 |                                                 |
| \\      /  F ield         | OpenFOAM: The Open Source CFD Toolbox           |
|  \\    /   O peration     | Version:  2112                                  |
|   \\  /    A nd           | Website:  www.openfoam.com                      |
|    \\/     M anipulation  |                                                 |
\*---------------------------------------------------------------------------*/
FoamFile
{
    version     2.0;
    format      ascii;
    arch        "LSB;label=32;scalar=64";
    class       volScalarField;
    location    "0.13";
    object      epsilonU_0;
}
// * * * * * * * * * * * * * * * * * * * * * * * * * * * * * * * * * * * * * //

dimensions      [0 2 -3 0 0 0 0];

internalField   nonuniform List<scalar> 
12225
(
3157.37
4896.13
5479.04
5444.36
5144.08
4744.08
4311.91
3872.08
3431.55
2990.41
2546.93
2100.94
1656.56
1224.66
822.776
477.954
204.123
85.4066
209.956
386.606
467.375
488.666
481.714
464.14
445.159
428.909
416.922
409.548
406.583
407.564
412.111
420.412
433.813
454.205
485.546
522
38.0814
64.0021
82.9229
95.013
101.701
104.518
104.977
104.336
103.564
103.403
104.447
107.178
112.025
119.456
130.114
144.933
164.819
189.584
19.4898
25.5814
31.0056
35.3599
38.6696
41.079
42.8023
44.0711
45.1035
46.0981
47.2393
48.7052
50.6762
53.352
56.9675
61.8542
68.3487
77.1066
15.797
17.5083
19.3357
21.0214
22.4812
23.7011
24.7081
25.5516
26.2909
26.9892
27.7136
28.5364
29.5373
30.8059
32.4389
34.5448
37.2407
40.741
14.8474
15.1941
15.726
16.3187
16.9043
17.4493
17.9435
18.3922
18.8093
19.2142
19.63
20.0822
20.5994
21.2146
21.9672
22.9082
24.1058
25.6667
14.5916
14.4692
14.472
14.5582
14.6934
14.8531
15.0232
15.1982
15.3782
15.5679
15.7745
16.0075
16.2777
16.5973
16.9807
17.4467
18.0234
18.7508
14.525
14.2479
14.0401
13.8936
13.7969
13.7386
13.7097
13.7046
13.7205
13.7569
13.8153
13.8988
14.0112
14.1575
14.3438
14.578
14.8724
15.2383
14.5086
14.1851
13.9015
13.6578
13.4515
13.279
13.1364
13.0208
12.9299
12.8626
12.8188
12.799
12.8045
12.837
12.899
12.9938
13.1263
13.298
14.5049
14.1688
13.8612
13.5819
13.3302
13.105
12.9049
12.7286
12.5752
12.4439
12.3345
12.247
12.1816
12.1388
12.1196
12.125
12.1567
12.2127
14.504
14.165
13.8507
13.5601
13.2922
13.046
12.8207
12.6157
12.4303
12.2642
12.1172
11.9891
11.88
11.7901
11.7193
11.6681
11.6365
11.6223
14.5039
14.1642
13.8485
13.555
13.2824
13.0296
12.7956
12.5797
12.3814
12.2001
12.0356
11.8878
11.7566
11.6417
11.5432
11.4608
11.3943
11.3419
14.5038
14.164
13.848
13.5537
13.2798
13.0248
12.7876
12.5674
12.3635
12.1752
12.0022
11.8441
11.7006
11.5716
11.4565
11.3552
11.2671
11.1912
14.5038
14.164
13.8479
13.5536
13.2794
13.0239
12.7858
12.5642
12.3582
12.1671
11.9904
11.8274
11.6779
11.5413
11.4173
11.3052
11.2047
11.1152
14.5037
14.164
13.8479
13.5537
13.2796
13.0241
12.786
12.5641
12.3576
12.1657
11.9876
11.8228
11.6706
11.5306
11.4021
11.2847
11.1779
11.0814
14.5037
14.1639
13.8479
13.5538
13.2798
13.0245
12.7866
12.5649
12.3584
12.1663
11.9878
11.8222
11.6689
11.5272
11.3965
11.2764
11.1663
11.0663
14.5036
14.1637
13.8478
13.5538
13.28
13.025
12.7873
12.5658
12.3595
12.1675
11.9889
11.8229
11.6689
11.5263
11.3943
11.2724
11.1601
11.0578
14.5034
14.1635
13.8475
13.5536
13.2801
13.0253
12.788
12.5669
12.3609
12.169
11.9905
11.8244
11.67
11.5266
11.3935
11.2702
11.1562
11.0518
14.5032
14.1631
13.8471
13.5533
13.28
13.0256
12.7887
12.568
12.3624
12.1709
11.9925
11.8263
11.6717
11.5277
11.3938
11.2692
11.1536
11.0471
14.503
14.1627
13.8468
13.5531
13.2801
13.0261
12.7895
12.5693
12.3641
12.1728
11.9946
11.8285
11.6737
11.5294
11.3949
11.2695
11.1527
11.0449
14.5028
14.1625
13.8466
13.5532
13.2805
13.0269
12.7908
12.571
12.3662
12.1753
11.9974
11.8315
11.6767
11.5323
11.3974
11.2715
11.154
11.0453
14.5027
14.1625
13.8468
13.5539
13.2819
13.0291
12.7941
12.5755
12.3721
12.1828
12.0065
11.8422
11.689
11.5461
11.4126
11.2879
11.1714
11.0635
14.5028
14.1633
13.8492
13.5589
13.2905
13.0424
12.8129
12.6007
12.404
12.2218
12.0526
11.8954
11.7491
11.6128
11.4855
11.3667
11.2555
11.1523
14.5047
14.1714
13.8694
13.5971
13.3519
13.1311
12.9316
12.7504
12.5846
12.4322
12.2911
12.1599
12.0372
11.922
11.8135
11.711
11.6139
11.5228
14.5224
14.2378
14.0136
13.8397
13.7041
13.5951
13.5026
13.4191
13.34
13.263
13.1861
13.1079
13.0283
12.9473
12.8653
12.7825
12.6996
12.6177
14.6628
14.6734
14.8271
15.0526
15.2975
15.5265
15.7188
15.8648
15.9618
16.0115
16.0185
15.989
15.9327
15.855
15.7602
15.6524
15.5351
15.4127
15.6108
17.1027
18.7749
20.3549
21.7134
22.7916
23.5808
24.104
24.3983
24.5046
24.4617
24.3039
24.0554
23.7421
23.386
23.0037
22.6095
22.221
21.9789
31.5222
40.2637
47.3422
52.5116
55.7933
57.4518
57.8462
57.321
56.1658
54.6069
52.8133
50.9055
48.9706
47.0687
45.2403
43.5097
41.9011
85.9744
165.08
227.616
268.06
287.972
292.106
286.177
274.809
261.062
246.757
232.896
219.978
208.209
197.652
188.295
180.092
172.983
167.045
1385.59
2306.7
3013.43
3436.03
3621.33
3645.15
3572.66
3449.9
3306.33
3159.4
3018.7
2888.95
2772.04
2668.28
2577.06
2497.32
2427.66
2367.07
57.2383
49.774
75.0825
100.608
110.956
116.285
120.531
125.018
130.489
137.467
146.508
155.344
161.944
164.521
160.644
147.122
120.48
79.572
35.24
16.0706
20.9572
33.1915
51.3346
61.3785
62.0198
61.3959
57.5663
53.4555
49.8852
47.5075
56.2422
123.156
265.483
411.284
556.312
689.869
805.254
899.066
970.309
1019.63
1048.72
1059.86
1055.66
1038.74
1011.69
976.861
936.317
891.804
844.743
798.957
754.542
711.524
669.938
629.833
591.249
554.216
518.752
484.863
452.543
421.773
392.525
364.753
338.405
313.417
289.72
267.241
245.913
225.675
206.476
188.283
171.074
154.843
139.595
125.339
112.089
99.8589
88.6705
78.5751
69.7921
63.6173
61.8824
61.4652
61.3134
61.2939
61.3704
61.5205
61.7186
61.9286
62.1022
62.1774
62.0267
61.3279
59.5636
56.5998
52.6992
48.0634
43.2151
38.5989
34.8343
32.3537
31.2534
31.3725
32.4425
34.2513
36.6564
38.9095
40.6341
41.7549
42.3505
42.573
42.5953
42.5812
42.6727
42.9818
43.5676
44.4229
45.5127
46.8626
48.6022
50.8917
53.7388
56.9193
60.5613
65.2234
71.3389
78.4741
85.3936
90.7344
93.2307
92.0577
87.3684
79.7115
71.1228
67.3002
79.3758
128.287
197.962
264.458
320.226
361.316
386.822
397.843
396.624
385.951
368.656
347.632
324.43
299.889
274.583
248.885
223.057
197.341
172.112
148.247
128.308
120.344
129.131
141.815
157.836
177.564
201.221
229.213
262.715
302.655
340.718
350.866
319.69
261.137
203.517
167.511
155.139
158.182
171.127
189.705
204.637
206.912
187.475
141.164
97.0815
100.412
89.3295
136.923
205.737
192.748
167.918
145.251
125.647
109.007
95.3634
84.5452
76.2802
71.9193
71.8791
75.4124
81.0833
86.6884
89.1526
85.0867
73.7957
59.5807
46.5441
39.337
54.6588
79.5834
84.7527
83.8588
126.115
221.469
290.199
316.955
330.48
346.128
364.111
375.368
378.459
372.912
359.392
339.176
313.852
285.141
254.782
224.451
195.676
169.755
147.699
130.193
117.595
109.951
107.325
105.855
104.529
103.271
102.031
100.777
99.486
98.1478
96.7572
95.3142
93.8201
92.275
90.6758
89.0147
87.2778
85.4458
83.4949
81.3987
79.1317
76.6727
74.0087
71.1378
68.0714
64.8339
61.4614
57.9985
54.4948
51.0013
47.5691
44.2511
41.1087
38.2614
36.0805
34.1991
32.4855
30.9158
29.4776
28.1604
26.9539
25.8483
24.8327
23.8936
23.0168
22.2051
21.5081
21.114
21.2922
21.5951
21.8282
22.1322
22.7722
23.9789
25.8415
28.2712
31.012
33.6978
35.9611
37.5356
38.2495
38.1308
37.3256
35.9848
34.2563
32.2797
30.181
28.074
26.0762
24.3102
22.8677
21.7651
20.9603
20.4297
20.2231
20.4383
21.1542
22.3986
24.1021
25.9578
27.4343
28.1598
28.4122
29.8357
35.5131
49.3399
71.4225
93.3176
109.476
120.956
128.034
129.634
126.151
118.854
109.381
99.4333
90.5445
83.924
80.4648
80.5347
81.4188
82.4904
83.5567
84.3836
84.6962
84.1976
82.615
79.7939
75.854
71.4144
67.336
63.7238
60.7393
58.6466
57.5004
57.1409
57.4536
58.6994
61.4634
70.4177
85.4974
98.8385
115.641
144.762
189.317
239.88
271.722
261.701
212.947
153.792
111.055
91.4974
86.7987
83.9374
162.359
355.693
286.073
209.821
158.099
123.539
99.2699
81.7721
69.1
59.9672
53.4778
49.2285
47.2244
47.6399
50.4697
55.1037
60.2008
63.983
65.3979
64.7526
63.4369
74.7281
112.344
184.313
275.805
286.395
278.474
277.684
271.208
260.012
248.959
239.174
228.678
215.383
199.083
180.347
160.304
140.32
121.706
105.48
92.2341
82.1274
74.9702
70.3562
67.7839
66.7459
66.7853
67.5257
68.5091
69.4477
70.2766
70.963
71.4887
71.85
72.0567
72.1289
72.0928
71.9766
71.8055
71.5982
71.3639
71.0998
70.7908
70.4096
69.9186
69.273
68.4254
67.3316
65.9562
64.2785
62.2958
60.0254
57.5023
54.7755
51.9023
48.9417
45.9496
42.9714
40.0284
37.3195
34.9817
32.8393
30.8613
29.0378
27.3609
25.8221
24.4129
23.1244
21.9484
20.8777
19.9077
19.0397
18.2836
17.6527
17.1544
16.7811
16.5437
16.3946
16.336
16.4235
16.7213
17.2582
18.0097
18.902
19.8347
20.7232
21.5428
22.2253
22.6741
22.8439
22.7147
22.2887
21.5911
20.6597
19.5591
18.3944
17.2993
16.3974
15.7387
15.3489
15.3031
15.74
16.8163
18.5957
20.86
23.0929
24.8848
26.4558
29.4554
38.6324
57.7801
81.663
95.1061
95.223
92.2277
88.8281
84.0991
77.9833
71.2919
65.0959
60.2292
57.1153
55.8116
56.129
57.7471
60.3063
63.3017
66.5514
69.8668
73.0112
75.6878
77.536
78.1471
77.115
74.1232
69.1818
63.6611
58.2199
53.149
48.779
45.2708
42.6435
40.8635
39.9802
40.1458
41.6494
44.5715
48.9808
53.9455
59.0099
65.3827
75.845
89.8272
99.443
98.9944
94.6522
90.9064
91.7135
88.6451
77.829
674.857
452.333
272.149
179.026
127.085
94.6132
73.1393
58.543
48.37
41.2053
36.2808
33.4056
32.4026
33.0672
35.4629
39.6462
45.5451
53.0831
63.0789
84.8873
145.377
244.369
379.207
346.422
283.468
247.086
222.834
205.396
190.188
176.433
163.913
151.779
139.109
125.693
112.108
99.2265
87.872
78.576
71.5108
66.5575
63.4258
61.7618
61.2169
61.4818
62.299
63.4616
64.8074
66.1891
67.3864
68.3279
68.9738
69.3055
69.3289
69.0736
68.5906
67.9469
67.2171
66.4754
65.7865
65.1994
64.7424
64.421
64.2175
64.093
63.9902
63.8383
63.559
63.0742
62.3147
61.2281
59.7858
57.9873
55.8586
53.4488
50.8225
48.0501
45.1998
42.3237
39.4923
36.994
34.6905
32.55
30.5651
28.7306
27.0406
25.4888
24.0682
22.7715
21.5918
20.5229
19.5608
18.7021
17.9419
17.2733
16.6849
16.1598
15.6841
15.2514
14.8712
14.556
14.316
14.1568
14.0738
14.0564
14.0933
14.1794
14.3176
14.5122
14.7585
15.0244
15.2776
15.4818
15.5869
15.5435
15.3238
14.9562
14.527
14.1209
13.8189
13.7073
13.9355
14.7463
16.4039
18.9429
21.9381
24.9062
28.0324
32.6433
42.6441
61.2085
82.6253
92.6063
87.4562
79.7528
73.8646
68.6708
63.3628
58.1401
53.5515
50.0654
47.9061
47.062
47.3699
48.6046
50.5422
53.0138
55.9064
59.1078
62.4863
65.8719
69.0337
71.6546
73.3122
73.4901
71.6369
67.3914
62.0351
56.3461
50.8098
45.879
41.8027
38.669
36.4843
35.2468
34.9987
35.7856
37.4147
39.3749
40.966
41.8698
42.5551
43.9947
47.6604
52.2956
57.0614
67.1262
83.9106
94.5195
91.3766
79.3787
1253.78
459.158
226.712
139.287
96.7473
72.0148
55.9562
44.7609
36.5624
30.4986
26.2373
24.1933
24.2812
25.9343
28.9234
33.4472
40.5176
54.3237
90.1521
166.088
280.108
364.251
327.113
256.555
207.527
178.04
158.491
144.093
132.129
121.452
111.437
101.752
92.4471
83.9076
76.5942
70.8075
66.6264
63.9513
62.5817
62.2801
62.8102
63.9565
65.533
67.3843
69.3822
71.4192
73.3997
75.1035
76.3747
77.1326
77.323
76.9246
75.9567
74.4818
72.6034
70.4569
68.1959
65.9757
63.9361
62.1866
60.797
59.7933
59.1595
58.8426
58.7606
58.8099
58.8744
58.8349
58.5789
58.0119
57.0677
55.7157
53.9619
51.8476
49.4399
46.8186
44.0659
41.2453
38.6727
36.2778
34.0391
31.9577
30.0317
28.2555
26.6213
25.1207
23.746
22.4903
21.3472
20.3116
19.3783
18.5415
17.7946
17.1294
16.5337
15.9909
15.484
15.0015
14.5406
14.105
13.7006
13.3325
13.0041
12.7163
12.4702
12.2703
12.1254
12.0422
12.0244
12.0736
12.1797
12.324
12.4788
12.6056
12.6667
12.6525
12.5997
12.5741
12.6244
12.8148
13.3186
14.4661
16.622
19.7978
23.5701
27.8981
33.8289
43.9507
61.1802
80.0058
89.4615
84.0799
74.1502
67.2347
62.2508
57.7875
53.3388
49.1088
45.5374
42.9599
41.4718
40.9818
41.3233
42.3316
43.8757
45.8881
48.2863
51.0003
53.9615
57.084
60.2379
63.2118
65.663
67.0794
66.7629
63.9912
59.5567
54.2478
48.7297
43.6145
39.2874
35.9207
33.5547
32.1865
31.8187
32.4141
33.7624
35.4331
36.8836
37.7022
37.9471
38.0937
38.7432
40.7491
46.1349
60.6469
83.3662
97.6218
95.8187
85.9941
1529.79
376.344
170.02
111.912
83.2226
63.8426
50.1205
40.1074
32.4178
26.4546
23.1609
23.6365
25.6835
28.6004
33.0884
41.4541
58.7948
94.1726
156.384
238.31
295.566
277.573
222.206
175.629
146.246
127.909
115.251
105.441
97.0615
89.5728
82.8497
76.9774
72.1323
68.4725
66.0638
64.8696
64.7791
65.6376
67.27
69.4993
72.1608
75.1112
78.2305
81.4179
84.5827
87.6328
90.466
92.7322
94.3189
95.1008
94.9755
93.8833
91.8246
88.8702
85.1636
80.9134
76.3758
71.8282
67.5387
63.7346
60.5768
58.1458
56.4416
55.3963
54.8917
54.7781
54.8921
55.0666
55.1411
54.9736
54.453
53.5092
52.1182
50.3053
48.1306
45.6694
43.0008
40.4309
37.968
35.6176
33.4049
31.3458
29.4462
27.7037
26.1102
24.6548
23.3258
22.1127
21.0067
20.0013
19.091
18.2701
17.5322
16.8689
16.2693
15.7205
15.2097
14.7266
14.2648
13.8218
13.3979
12.9949
12.6152
12.2624
11.9411
11.6571
11.4168
11.2261
11.0893
11.0087
10.9849
11.0095
11.0679
11.1394
11.2028
11.2528
11.3164
11.4448
11.6865
12.1004
12.8632
14.3687
17.0395
20.895
25.7956
32.4393
42.6887
59.079
76.9295
86.726
83.4425
72.5476
64.3584
59.3053
55.3512
51.3234
47.0581
43.0334
39.7682
37.5017
36.2088
35.7432
35.9474
36.6968
37.9064
39.5307
41.4514
43.6277
46.0383
48.667
51.4814
54.3964
57.2118
59.5297
60.6436
59.5812
56.4919
51.9883
46.8148
41.7262
37.2668
33.7286
31.2144
29.729
29.2415
29.6787
30.8515
32.4182
33.9526
35.0678
35.6344
35.9792
36.5635
38.1702
43.7047
59.3055
83.8641
100.551
101.45
94.7991
1518.62
272.726
142.535
107.824
83.2067
64.5085
51.705
42.5561
35.9988
32.1419
31.7668
32.5647
35.4045
40.7102
50.2692
67.425
96.5583
140.223
191.664
225.938
220.34
186.287
150.006
124.071
107.69
96.8743
88.9466
82.6091
77.3522
73.0606
69.7513
67.4691
66.2497
66.0998
66.9829
68.8155
71.4723
74.7997
78.6342
82.8224
87.2345
91.7688
96.3444
100.886
105.307
109.499
113.332
116.441
118.716
119.959
119.984
118.649
115.885
111.717
106.274
99.7948
92.6124
85.1305
77.7854
70.9961
65.1077
60.3421
56.774
54.3415
52.8823
52.1736
51.9814
52.0776
52.2468
52.2951
52.0629
51.4367
50.3543
48.821
46.8795
44.5825
42.2211
39.8396
37.4802
35.1911
33.0092
30.9599
29.0585
27.3111
25.7163
24.2665
22.9503
21.7546
20.6669
19.6766
18.7754
17.9565
17.2139
16.5409
15.9296
15.3706
14.8543
14.3715
13.9155
13.4819
13.0684
12.6747
12.3015
11.9511
11.6269
11.333
11.074
10.8545
10.6777
10.5455
10.4582
10.4135
10.403
10.4141
10.4349
10.4676
10.5413
10.7098
11.0343
11.5972
12.6151
14.5378
17.7917
22.4695
28.9948
38.9296
54.3976
73.3513
85.1078
84.1935
74.2819
63.9193
58.0808
54.2528
50.5214
46.2406
41.8032
37.9002
34.9506
33.0186
31.9718
31.6327
31.8528
32.5275
33.591
34.9743
36.5427
38.2656
40.1414
42.1926
44.4533
46.9466
49.6278
52.2847
54.3396
54.7666
53.1239
49.6893
45.1153
40.2362
35.7513
32.0902
29.4411
27.84
27.2491
27.5815
28.6637
30.1909
31.7781
33.1037
34.0592
34.8633
35.9278
38.0028
43.9969
59.8388
84.7741
103.189
107.113
103.14
1352.08
218.542
143.295
113.286
89.1071
71.5698
59.8999
51.9088
46.6707
44.5039
44.2452
46.4113
51.6953
61.0427
75.9418
97.7691
125.883
154.523
172.46
171.037
152.839
128.721
108.177
94.0477
84.7895
78.3814
73.6797
70.1972
67.7597
66.3108
65.8333
66.3289
67.8
70.2238
73.5312
77.6017
82.2756
87.3782
92.7495
98.268
103.86
109.489
115.13
120.744
126.247
131.502
136.239
140.37
143.683
145.896
146.725
145.923
143.317
138.832
132.52
124.561
115.266
105.071
94.5184
84.2262
74.8121
66.7865
60.4485
55.8449
52.809
51.0192
50.1359
49.845
49.8626
49.9329
49.8419
49.4302
48.5881
47.3009
45.5613
43.6056
41.4851
39.2794
37.0583
34.8752
32.7687
30.7654
28.8839
27.1363
25.5286
24.0609
22.7278
21.5195
20.4239
19.4284
18.5213
17.6931
16.936
16.2438
15.6106
15.0301
14.4957
14.001
13.5404
13.109
12.7034
12.3215
11.9626
11.6273
11.3176
11.0357
10.7843
10.5662
10.3834
10.2367
10.1259
10.0497
10.0053
9.9852
9.98325
10.0052
10.0812
10.2688
10.6497
11.3509
12.6563
15.0684
18.9673
24.6336
33.3011
47.2193
66.9814
83.3084
86.3437
78.0287
66.5156
58.2464
53.9228
50.3729
46.2188
41.5473
37.1243
33.5761
31.1071
29.623
28.9251
28.8288
29.2016
29.9592
31.0413
32.3406
33.718
35.1316
36.5799
38.0982
39.7503
41.6261
43.8032
46.2682
48.6638
50.0578
49.6867
47.3972
43.5856
39.0641
34.6528
30.9246
28.1699
26.4754
25.811
26.0774
27.1016
28.6079
30.2443
31.723
32.9748
34.1871
35.7306
38.4183
45.0382
60.943
85.6895
105.25
111.796
109.67
1148.65
218.208
152.216
121.307
97.1588
80.5747
70.2412
63.8986
60.3731
59.2424
60.1467
64.1398
71.5261
82.5163
96.7805
112.715
126.971
135.291
134.706
125.419
110.956
96.2616
84.6871
76.7352
71.4578
67.9664
65.7853
64.6855
64.5528
65.336
67.0238
69.6178
73.0984
77.3949
82.374
87.8517
93.6255
99.5183
105.416
111.285
117.152
123.071
129.08
135.169
141.256
147.182
152.695
157.816
162.275
165.732
167.826
168.216
166.625
162.883
156.953
148.928
139.017
127.534
114.917
101.78
88.9214
77.2177
67.4019
59.8564
54.5852
51.1897
49.2051
48.2068
47.8288
47.7381
47.6512
47.3586
46.6935
45.6341
44.2302
42.5426
40.652
38.6414
36.5842
34.5376
32.5421
30.6246
28.8026
27.0883
25.4903
24.0143
22.6617
21.4294
20.3099
19.2929
18.3667
17.5202
16.7434
16.0287
15.3699
14.7625
14.2021
13.6847
13.2065
12.7637
12.353
11.9717
11.6181
11.2915
10.9923
10.7214
10.4799
10.269
10.0892
9.94061
9.82232
9.73345
9.67371
9.64134
9.63564
9.66685
9.76634
9.99429
10.4528
11.3213
12.9648
15.9145
20.4798
27.3019
38.5681
56.5988
77.7147
88.2512
83.593
71.6933
60.9273
54.4625
50.673
46.7438
42.0586
37.2602
33.1593
30.1626
28.2678
27.2756
26.9645
27.1689
27.7862
28.7513
30.0033
31.3727
32.7005
33.9322
35.0684
36.1515
37.2511
38.479
39.9808
41.9039
44.1205
45.8896
46.4407
45.191
42.1913
38.1192
33.8566
30.1088
27.2778
25.5132
24.8054
25.0471
26.0526
27.5542
29.2222
30.7889
32.2207
33.7266
35.6596
38.8723
46.0306
61.8656
86.1376
106.428
114.945
114.163
966.081
220.329
161.941
130.166
105.74
89.7521
80.4947
75.6103
73.6479
73.0769
74.884
79.0409
85.2143
92.7086
100.389
106.776
110.352
109.96
105.212
96.9168
87.136
78.2329
71.5319
67.084
64.4171
63.1124
62.9078
63.6484
65.255
67.7008
70.9803
75.0693
79.8895
85.2894
91.0545
96.9468
102.764
108.392
113.83
119.166
124.533
130.048
135.78
141.728
147.81
153.863
159.762
165.486
170.776
175.289
178.623
180.351
180.091
177.581
172.731
165.631
156.49
145.535
132.965
119.051
104.358
89.8546
76.7272
65.9261
57.9857
52.5573
49.0993
47.0842
46.0707
45.6474
45.4365
45.1669
44.6633
43.8468
42.7066
41.2816
39.6375
37.8488
35.9852
34.1039
32.2472
30.4438
28.7116
27.0625
25.505
24.0458
22.6906
21.442
20.2987
19.2554
18.3038
17.4335
16.6344
15.8972
15.2147
14.5818
13.9948
13.451
12.9484
12.4847
12.0575
11.6647
11.3041
10.9745
10.6751
10.4059
10.1669
9.95814
9.77913
9.62902
9.50652
9.41085
9.34277
9.30496
9.30261
9.35211
9.48951
9.7812
10.3486
11.4199
13.4395
16.9339
22.1598
30.3049
44.4621
65.8976
85.3015
89.2489
79.3618
66.4313
57.017
51.6508
47.658
43.1552
38.1693
33.5692
30.0028
27.6386
26.3253
25.8161
25.9052
26.4679
27.4363
28.7468
30.3082
31.851
33.1953
34.2924
35.17
35.8923
36.5287
37.176
37.9962
39.234
40.8797
42.5942
43.643
43.1987
40.9554
37.3616
33.2884
29.5497
26.6611
24.8431
24.1123
24.3548
25.3627
26.8588
28.5298
30.1246
31.6296
33.2966
35.5013
39.0932
46.5765
62.1452
85.7374
106.464
116.357
116.679
805.33
222.818
172.249
140.097
115.126
98.994
89.78
84.8769
81.9964
81.1522
81.9641
84.0347
86.8791
89.9287
92.5583
94.1121
93.9335
91.5035
86.7711
80.4756
73.9817
68.5614
64.8052
62.6789
61.911
62.2449
63.5021
65.5786
68.4292
72.0378
76.3774
81.369
86.8544
92.5991
98.3327
103.819
108.928
113.667
118.16
122.593
127.141
131.92
136.974
142.276
147.742
153.238
158.775
164.326
169.728
174.713
178.888
181.755
182.791
181.562
177.847
171.727
163.553
153.76
142.594
130.02
116.013
100.993
86.122
72.773
62.3868
54.8677
49.7658
46.5301
44.6842
43.7763
43.3298
43.019
42.6096
41.9665
41.0408
39.8469
38.4352
36.8699
35.2137
33.5192
31.8262
30.1622
28.5451
26.9869
25.4958
24.0794
22.7444
21.4969
20.3407
19.2764
18.3002
17.4055
16.5835
15.8251
15.1222
14.4684
13.8594
13.2924
12.766
12.279
11.8303
11.4185
11.0422
10.6998
10.3904
10.1131
9.86743
9.65276
9.46813
9.31214
9.18323
9.08071
9.00606
8.96376
8.96412
9.03016
9.20712
9.57252
10.2663
11.5586
13.9608
17.9688
23.8455
33.4609
50.4926
73.8796
89.6453
87.7993
75.0259
62.3628
54.1366
49.1956
44.7138
39.72
34.7358
30.5649
27.6235
25.8887
25.1266
25.0926
25.6235
26.6408
28.0972
29.894
31.8596
33.5975
34.9313
35.8515
36.4479
36.8302
37.0764
37.2465
37.4786
37.9835
38.9617
40.3197
41.479
41.551
39.9331
36.7921
32.9167
29.1957
26.2545
24.3892
23.6452
23.9005
24.9187
26.3987
28.0347
29.5957
31.0761
32.7669
35.0967
38.8856
46.4313
61.4924
84.2191
105.13
115.971
117.244
670.585
223.392
181.318
149.964
124.404
107.098
96.2709
89.2503
85.031
82.7539
81.8433
81.8892
82.5404
83.434
84.1389
84.1382
82.9175
80.1972
76.1901
71.6333
67.4681
64.3964
62.6745
62.2246
62.8501
64.3704
66.6638
69.6662
73.3509
77.6937
82.6297
88.0174
93.6276
99.1733
104.381
109.076
113.238
116.997
120.568
124.165
127.931
131.908
136.046
140.246
144.424
148.574
152.844
157.269
161.848
166.463
170.81
174.383
176.537
176.634
174.19
169.067
161.601
152.509
142.476
131.668
119.833
106.564
92.3349
78.2271
66.5469
57.5057
50.9764
46.579
43.8486
42.3164
41.534
41.1064
40.7265
40.197
39.4267
38.406
37.1741
35.7897
34.3121
32.7901
31.2595
29.7437
28.2571
26.8089
25.4059
24.0547
22.7625
21.537
20.385
19.3116
18.3182
17.4028
16.56
15.7822
15.0619
14.3918
13.7665
13.1824
12.6374
12.1307
11.6617
11.2299
10.8346
10.4747
10.1493
9.85734
9.59817
9.37094
9.17463
9.0078
8.86893
8.75751
8.67558
8.62893
8.63054
8.70941
8.91983
9.35329
10.1706
11.6764
14.4347
18.9026
25.4288
36.6033
56.1695
79.7232
91.2665
85.104
71.1275
59.2158
51.7766
46.8084
41.9146
36.631
31.8593
28.231
25.9188
24.7728
24.5327
24.9893
26.0352
27.6302
29.7152
32.099
34.4744
36.3485
37.5814
38.2329
38.4834
38.5112
38.4105
38.2099
37.9657
37.8759
38.2055
39.043
40.0291
40.341
39.1803
36.4274
32.7322
29.0213
26.0213
24.106
23.3499
23.62
24.6455
26.0917
27.651
29.1178
30.491
32.0786
34.3707
38.152
45.4771
59.7493
81.4007
102.261
113.781
115.882
540.373
217.378
185.324
156.398
130.668
111.893
98.9843
90.4475
84.8884
81.3919
79.3967
78.5034
78.3502
78.5298
78.5666
77.9808
76.4459
73.9617
70.9107
67.9173
65.5828
64.2717
64.0672
64.8711
66.5307
68.9163
71.9454
75.5775
79.7903
84.5429
89.7338
95.1733
100.589
105.68
110.208
114.075
117.364
120.291
123.112
126.028
129.109
132.274
135.348
138.154
140.636
142.948
145.311
147.925
150.932
154.37
158.079
161.633
164.343
165.46
164.302
160.415
153.84
145.271
135.754
125.886
115.918
105.051
93.0636
80.6929
69.2126
59.5673
52.1308
46.8182
43.3213
41.2388
40.1321
39.5718
39.1928
38.7392
38.0759
37.1696
36.0512
34.7797
33.4171
32.0138
30.6051
29.2117
27.8437
26.5054
25.1991
23.9279
22.6969
21.5132
20.3846
19.3187
18.3209
17.3935
16.5353
15.7418
15.007
14.3242
13.6874
13.0919
12.5347
12.0143
11.53
11.0817
10.6692
10.2919
9.94932
9.64056
9.36493
9.12172
8.91012
8.72911
8.57754
8.45531
8.36501
8.31346
8.31549
8.40357
8.63897
9.1273
10.0503
11.7414
14.8067
19.6744
26.8503
39.5806
61.1442
83.5517
90.9322
81.9215
67.7698
56.6704
49.6482
44.458
39.2627
34.0357
29.616
26.5006
24.7663
24.1597
24.4249
25.4066
27.0495
29.3311
32.1289
35.1291
37.7837
39.6723
40.7109
41.0234
40.8792
40.5448
40.1499
39.6863
39.1231
38.5829
38.3465
38.6302
39.2786
39.609
38.7344
36.2832
32.7329
29.0127
25.9399
23.9658
23.1932
23.4736
24.4971
25.89
27.3338
28.651
29.8524
31.2346
33.3322
36.8992
43.7267
56.8963
77.2024
97.7822
109.861
112.711
411.157
201.231
180.388
155.715
131.107
112.171
98.8183
89.6292
83.4208
79.4143
77.0663
75.9268
75.5507
75.4665
75.2168
74.4604
73.0849
71.256
69.354
67.8247
67.0223
67.1213
68.125
69.9369
72.4367
75.5251
79.1383
83.2415
87.8067
92.7772
98.0303
103.355
108.465
113.064
116.949
120.079
122.597
124.765
126.864
129.083
131.46
133.849
135.948
137.4
138.087
138.37
138.699
139.377
140.582
142.449
144.955
147.805
150.298
151.692
151.254
148.386
142.843
135.04
126.028
116.879
108
98.9976
89.3255
79.0242
68.8438
59.7128
52.2424
46.6231
42.7524
40.3543
39.0483
38.4105
38.0478
37.6625
37.0832
36.2541
35.1993
33.9807
32.6671
31.3163
29.9679
28.6444
27.3548
26.0998
24.8767
23.6835
22.5203
21.3911
20.3019
19.2605
18.2739
17.3475
16.4834
15.6809
14.9363
14.2446
13.6002
12.9979
12.434
11.9059
11.4125
10.9532
10.528
10.1369
9.77944
9.45527
9.16382
8.90458
8.67714
8.48101
8.31577
8.18194
8.08274
8.02584
8.02736
8.12183
8.37483
8.90259
9.90567
11.7426
15.0552
20.2671
28.0805
42.2414
65.0059
85.5186
89.3204
78.6663
64.8869
54.4923
47.6427
42.216
36.8964
31.8908
27.9149
25.337
24.1111
23.9803
24.731
26.2653
28.5608
31.5639
35.0092
38.4355
41.173
42.9496
43.7685
43.7961
43.33
42.6834
42.0407
41.392
40.6341
39.7933
39.1182
38.8994
39.1473
39.346
38.608
36.3663
32.9151
29.1595
25.9952
23.9499
23.1534
23.4364
24.4453
25.7655
27.0619
28.1827
29.1647
30.2758
32.055
35.2224
41.3225
53.0794
71.697
91.7237
104.357
107.976
286.672
173.968
164.181
146.61
126.434
109.195
96.345
87.2508
81.0467
77.0644
74.7692
73.6746
73.3028
73.2021
73.0097
72.5269
71.7605
70.9001
70.2367
70.061
70.5791
71.8771
73.9359
76.6756
79.9983
83.8059
88.0304
92.6219
97.5343
102.696
107.981
113.184
118.057
122.24
125.558
128.015
129.773
131.104
132.29
133.526
134.858
136.184
137.236
137.547
136.804
135.454
134.136
133.188
132.814
133.183
134.335
136.038
137.766
138.812
138.457
136.093
131.319
124.248
115.702
106.844
98.445
90.4983
82.5115
74.1636
65.7032
57.7672
50.9602
45.6217
41.8185
39.4052
38.0827
37.4649
37.1621
36.8601
36.3651
35.6048
34.5959
33.4024
32.1002
30.7559
29.4174
28.113
26.8545
25.6429
24.473
23.3385
22.2346
21.1603
20.1179
19.1126
18.151
17.2391
16.3813
15.5793
14.8322
14.1371
13.4894
12.8845
12.3183
11.7876
11.2904
10.8258
10.3935
9.99338
9.62545
9.28951
8.98527
8.71249
8.47111
8.26122
8.08321
7.93839
7.83066
7.76849
7.76893
7.86763
8.13218
8.68463
9.74026
11.6803
15.1807
20.6864
29.0943
44.4792
67.7965
86.0096
86.9658
75.5399
62.3815
52.5561
45.7659
40.1846
34.9067
30.2271
26.7238
24.6402
23.8714
24.1881
25.4269
27.5288
30.4519
34.0262
37.8389
41.3656
44.058
45.7322
46.4106
46.2572
45.5694
44.6911
43.8604
43.0957
42.2512
41.2543
40.2855
39.6639
39.5224
39.5074
38.7905
36.6716
33.2706
29.4502
26.174
24.0442
23.2149
23.4914
24.4722
25.7019
26.8273
27.7165
28.445
29.2556
30.6416
33.3017
38.5128
48.6031
65.1511
84.2389
97.4525
101.997
171.051
136.871
142.706
135.123
119.747
104.443
92.3435
83.6223
77.6794
73.918
71.8182
70.8992
70.7127
70.875
71.1155
71.3116
71.4882
71.7819
72.3812
73.4677
75.1757
77.5709
80.6575
84.4056
88.8254
93.5949
98.6815
104.011
109.493
115.022
120.455
125.595
130.205
134.005
136.832
138.674
139.665
140.037
140.05
139.902
139.685
139.367
138.8
137.752
136.048
133.837
131.479
129.35
127.767
126.945
126.946
127.588
128.392
128.702
127.876
125.367
120.752
113.983
105.689
96.9804
88.7954
81.409
74.5014
67.6508
60.7836
54.2225
48.4276
43.7542
40.3565
38.1836
37.0118
36.5063
36.305
36.1021
35.7001
35.0184
34.0669
32.9074
31.619
30.2746
28.9298
27.6203
26.3639
25.1651
24.0199
22.9204
21.859
20.8302
19.8324
18.8672
17.9387
17.0518
16.2113
15.4201
14.6793
13.9876
13.3422
12.7392
12.1749
11.6458
11.1495
10.6845
10.25
9.84585
9.47208
9.12867
8.8156
8.53286
8.28069
8.05973
7.87106
7.71688
7.60183
7.53509
7.53442
7.63602
7.90794
8.47324
9.55643
11.5585
15.1899
20.9446
29.868
46.1914
69.5074
85.4145
84.2322
72.6016
60.1528
50.7953
44.0449
38.4221
33.3161
29.0214
25.9809
24.3422
23.9868
24.7259
26.436
29.0566
32.4737
36.3826
40.2941
43.7213
46.2612
47.8106
48.3911
48.1468
47.3548
46.36
45.4312
44.6258
43.7903
42.7702
41.656
40.7551
40.2825
40.0276
39.2537
37.1839
33.7855
29.8706
26.4628
24.2356
23.3645
23.6252
24.5654
25.6892
26.6276
27.2629
27.7151
28.2222
29.1961
31.2834
35.5353
43.8419
57.9974
75.638
89.3404
95.077
117.736
111.854
125.767
125.271
114.206
100.526
88.7984
80.1452
74.2525
70.5573
68.5412
67.7454
67.7674
68.2835
69.0755
70.0385
71.1681
72.535
74.2635
76.4162
79.0901
82.3789
86.3311
90.9607
96.2364
101.959
108.019
114.279
120.586
126.776
132.67
138.063
142.732
146.449
149.062
150.534
150.958
150.519
149.45
147.962
146.202
144.226
142.012
139.48
136.59
133.413
130.204
127.269
124.883
123.227
122.326
121.982
121.741
121.022
119.299
116.129
111.128
104.205
95.8974
87.2565
79.2475
72.2614
66.1033
60.3615
54.8092
49.5439
44.8579
41.0422
38.2614
36.5069
35.6068
35.277
35.1991
35.0984
34.7931
34.2052
33.3393
32.2506
31.0138
29.702
28.3747
27.0735
25.8228
24.6323
23.5019
22.4256
21.3951
20.4033
19.4453
18.5198
17.6279
16.773
15.9585
15.1877
14.4622
13.7822
13.146
12.5508
11.9934
11.4705
10.9797
10.519
10.0874
9.68433
9.30984
8.96403
8.64705
8.35913
8.10079
7.87304
7.6776
7.51737
7.39778
7.32865
7.3281
7.43257
7.70976
8.28063
9.37312
11.4034
15.1148
21.0771
30.4121
47.3361
70.2862
84.1881
81.5743
70.0799
58.3044
49.3307
42.6493
37.088
32.2226
28.3054
25.6673
24.3978
24.3892
25.4902
27.5913
30.5927
34.2935
38.3024
42.1155
45.3185
47.639
49.0449
49.5598
49.3082
48.5338
47.5511
46.6299
45.8654
45.1272
44.2053
43.0903
42.0426
41.3233
40.8402
39.963
37.883
34.4426
30.4041
26.8467
24.5116
23.591
23.8273
24.7162
25.7218
26.462
26.8322
26.9954
27.2096
27.7987
29.3203
32.6162
39.2263
50.8541
66.5171
80.3481
87.47
80.9425
92.4813
111.11
116.869
110.407
98.5442
86.916
77.8641
71.5966
67.637
65.4567
64.6019
64.7102
65.4868
66.7305
68.3406
70.2777
72.5401
75.1461
78.1145
81.5159
85.4394
89.9724
95.1798
101.066
107.528
114.442
121.633
128.888
135.974
142.65
148.671
153.801
157.819
160.573
162.005
162.17
161.215
159.349
156.797
153.751
150.347
146.668
142.752
138.676
134.546
130.586
127.024
124.044
121.742
120.074
118.798
117.476
115.624
112.856
108.823
103.173
95.8329
87.3609
78.7911
71.0367
64.4576
58.879
53.9103
49.2826
44.9882
41.2085
38.1604
35.9759
34.6456
34.019
33.8502
33.8671
33.8372
33.6071
33.109
32.3442
31.3576
30.2135
28.9783
27.7096
26.4509
25.2309