/*--------------------------------*- C++ -*----------------------------------*\
| =========                 |                                                 |
| \\      /  F ield         | OpenFOAM: The Open Source CFD Toolbox           |
|  \\    /   O peration     | Version:  2112                                  |
|   \\  /    A nd           | Website:  www.openfoam.com                      |
|    \\/     M anipulation  |                                                 |
\*---------------------------------------------------------------------------*/
FoamFile
{
    version     2.0;
    format      ascii;
    arch        "LSB;label=32;scalar=64";
    class       surfaceScalarField;
    location    "0.13";
    object      phi;
}
// * * * * * * * * * * * * * * * * * * * * * * * * * * * * * * * * * * * * * //

dimensions      [0 3 -1 0 0 0 0];

oriented        oriented;

internalField   nonuniform List<scalar> 
24170
(
3.05324e-06
1.35168e-07
2.88727e-06
1.65967e-07
2.72575e-06
1.61525e-07
2.56404e-06
1.61707e-07
2.40185e-06
1.62185e-07
2.23961e-06
1.62248e-07
2.07578e-06
1.6383e-07
1.90778e-06
1.67999e-07
1.73263e-06
1.75152e-07
1.54731e-06
1.85311e-07
1.34939e-06
1.97922e-07
1.1379e-06
2.11491e-07
9.1451e-07
2.23392e-07
6.84586e-07
2.29924e-07
4.57462e-07
2.27124e-07
2.45103e-07
2.12359e-07
6.51518e-08
1.79951e-07
9.86899e-08
-3.35381e-08
3.48981e-06
6.26053e-08
3.53909e-06
1.16685e-07
3.57043e-06
1.30185e-07
3.58388e-06
1.48265e-07
3.5799e-06
1.66165e-07
3.55962e-06
1.82526e-07
3.52339e-06
2.0006e-07
3.47054e-06
2.20847e-07
3.39938e-06
2.46308e-07
3.30715e-06
2.77541e-07
3.19006e-06
3.15018e-07
3.04366e-06
3.57892e-07
2.86377e-06
4.03276e-07
2.64755e-06
4.46146e-07
2.39623e-06
4.78442e-07
2.1145e-06
4.94094e-07
1.82158e-06
4.72869e-07
3.95903e-07
1.52436e-06
3.67344e-06
5.16804e-08
3.68675e-06
1.0338e-07
3.69876e-06
1.18174e-07
3.71237e-06
1.34648e-07
3.72617e-06
1.52365e-07
3.7391e-06
1.69604e-07
3.75058e-06
1.88581e-07
3.75995e-06
2.11477e-07
3.76633e-06
2.39923e-07
3.76846e-06
2.7541e-07
3.76431e-06
3.1917e-07
3.75059e-06
3.71608e-07
3.72237e-06
4.31504e-07
3.67296e-06
4.95556e-07
3.59448e-06
5.56915e-07
3.48036e-06
6.08216e-07
3.31768e-06
6.35549e-07
6.27388e-07
3.0862e-06
3.93226e-06
4.48126e-08
3.93868e-06
9.69572e-08
3.93926e-06
1.17596e-07
3.93811e-06
1.35798e-07
3.93556e-06
1.54916e-07
3.93171e-06
1.7345e-07
3.92721e-06
1.93082e-07
3.92274e-06
2.15945e-07
3.91914e-06
2.43526e-07
3.91755e-06
2.77003e-07
3.91939e-06
3.17327e-07
3.92607e-06
3.64931e-07
3.93825e-06
4.19317e-07
3.95496e-06
4.78847e-07
3.97181e-06
5.40067e-07
3.98113e-06
5.98894e-07
3.96538e-06
6.51297e-07
6.9298e-07
3.89979e-06
4.21267e-06
3.92716e-08
4.21788e-06
9.17441e-08
4.21783e-06
1.1765e-07
4.21523e-06
1.38392e-07
4.21049e-06
1.59663e-07
4.20331e-06
1.80621e-07
4.19392e-06
2.02478e-07
4.18266e-06
2.272e-07
4.17007e-06
2.56124e-07
4.15697e-06
2.90099e-07
4.14468e-06
3.29617e-07
4.13499e-06
3.74624e-07
4.13002e-06
4.24285e-07
4.13185e-06
4.77014e-07
4.14133e-06
5.30586e-07
4.1571e-06
5.83129e-07
4.17354e-06
6.3486e-07
6.90017e-07
4.1765e-06
4.51314e-06
3.52195e-08
4.5175e-06
8.73861e-08
4.51774e-06
1.17412e-07
4.5153e-06
1.4083e-07
4.51072e-06
1.64236e-07
4.50377e-06
1.87575e-07
4.4945e-06
2.11746e-07
4.48319e-06
2.38508e-07
4.4702e-06
2.69119e-07
4.45603e-06
3.04272e-07
4.4414e-06
3.44246e-07
4.42723e-06
3.8879e-07
4.41454e-06
4.36972e-07
4.40428e-06
4.87275e-07
4.39699e-06
5.37878e-07
4.39239e-06
5.87728e-07
4.38974e-06
6.37508e-07
6.93932e-07
4.38583e-06
4.83564e-06
3.22974e-08
4.83926e-06
8.37718e-08
4.83954e-06
1.17125e-07
4.83707e-06
1.433e-07
4.83252e-06
1.68791e-07
4.8258e-06
1.94297e-07
4.81698e-06
2.20565e-07
4.80637e-06
2.49118e-07
4.79437e-06
2.8112e-07
4.78148e-06
3.1716e-07
4.76833e-06
3.57391e-07
4.75561e-06
4.01514e-07
4.74388e-06
4.48705e-07
4.73339e-06
4.97756e-07
4.72391e-06
5.47366e-07
4.71461e-06
5.97029e-07
4.70473e-06
6.47379e-07
7.0343e-07
4.69524e-06
5.18168e-06
3.02012e-08
5.18455e-06
8.09013e-08
5.18474e-06
1.16929e-07
5.18229e-06
1.45757e-07
5.17783e-06
1.7325e-07
5.17141e-06
2.00714e-07
5.16311e-06
2.28869e-07
5.15323e-06
2.58992e-07
5.14223e-06
2.92121e-07
5.13064e-06
3.28748e-07
5.1191e-06
3.68936e-07
5.10825e-06
4.12362e-07
5.09863e-06
4.58324e-07
5.09049e-06
5.05899e-07
5.08364e-06
5.5421e-07
5.07765e-06
6.03021e-07
5.07224e-06
6.52791e-07
7.06562e-07
5.06911e-06
5.55282e-06
2.8722e-08
5.555e-06
7.87149e-08
5.55511e-06
1.16825e-07
5.55279e-06
1.48073e-07
5.54858e-06
1.77459e-07
5.54261e-06
2.06683e-07
5.53498e-06
2.36498e-07
5.52602e-06
2.67959e-07
5.51618e-06
3.01959e-07
5.50602e-06
3.38909e-07
5.49615e-06
3.78806e-07
5.48719e-06
4.2132e-07
5.47967e-06
4.65846e-07
5.47392e-06
5.11649e-07
5.47005e-06
5.58079e-07
5.46815e-06
6.04917e-07
5.46866e-06
6.52287e-07
7.0185e-07
5.47337e-06
5.9508e-06
2.76938e-08
5.95243e-06
7.7091e-08
5.95248e-06
1.16773e-07
5.95042e-06
1.50133e-07
5.94662e-06
1.81262e-07
5.94127e-06
2.12025e-07
5.93454e-06
2.43234e-07
5.92673e-06
2.75763e-07
5.91834e-06
3.10358e-07
5.90989e-06
3.47356e-07
5.90198e-06
3.86713e-07
5.8952e-06
4.28101e-07
5.89006e-06
4.70986e-07
5.88696e-06
5.14748e-07
5.88622e-06
5.58824e-07
5.88823e-06
6.02903e-07
5.89377e-06
6.46745e-07
6.91069e-07
5.90455e-06
6.37753e-06
2.69788e-08
6.37874e-06
7.58824e-08
6.3788e-06
1.16704e-07
6.37712e-06
1.51816e-07
6.37391e-06
1.84473e-07
6.36941e-06
2.16521e-07
6.36382e-06
2.48823e-07
6.35747e-06
2.82117e-07
6.35082e-06
3.17008e-07
6.34441e-06
3.53766e-07
6.33881e-06
3.92318e-07
6.33457e-06
4.32342e-07
6.3322e-06
4.73352e-07
6.33216e-06
5.14791e-07
6.33486e-06
5.56121e-07
6.34084e-06
5.96919e-07
6.35091e-06
6.36681e-07
6.75564e-07
6.36641e-06
5.74129e-06
2.65258e-08
5.74211e-06
7.50614e-08
5.74226e-06
1.16551e-07
5.74124e-06
1.52835e-07
5.73915e-06
1.86568e-07
5.73619e-06
2.19481e-07
5.73256e-06
2.52455e-07
5.72853e-06
2.86138e-07
5.72451e-06
3.21035e-07
5.72092e-06
3.57356e-07
5.71822e-06
3.95011e-07
5.71688e-06
4.33685e-07
5.71731e-06
4.7292e-07
5.71991e-06
5.12192e-07
5.72507e-06
5.50963e-07
5.73324e-06
5.88746e-07
5.74501e-06
6.24915e-07
6.59393e-07
5.76118e-06
6.99858e-06
2.61039e-08
6.99942e-06
7.42148e-08
6.99981e-06
1.16164e-07
6.99923e-06
1.53421e-07
6.99771e-06
1.88086e-07
6.99548e-06
2.21708e-07
6.99279e-06
2.55146e-07
6.98996e-06
2.88968e-07
6.98742e-06
3.23577e-07
6.98565e-06
3.59124e-07
6.98516e-06
3.95503e-07
6.98644e-06
4.32407e-07
6.98995e-06
4.69404e-07
6.99615e-06
5.05995e-07
7.00546e-06
5.4165e-07
7.01836e-06
5.75849e-07
7.03535e-06
6.07928e-07
6.37724e-07
7.05702e-06
8.53129e-06
2.56589e-08
8.53233e-06
7.31788e-08
8.53324e-06
1.15254e-07
8.53354e-06
1.53118e-07
8.53322e-06
1.88405e-07
8.53251e-06
2.22422e-07
8.53169e-06
2.55966e-07
8.53112e-06
2.89531e-07
8.53128e-06
3.23422e-07
8.53267e-06
3.57735e-07
8.53582e-06
3.92348e-07
8.54126e-06
4.26969e-07
8.54947e-06
4.61192e-07
8.56092e-06
4.94552e-07
8.57602e-06
5.26545e-07
8.59519e-06
5.56677e-07
8.61879e-06
5.84334e-07
6.09393e-07
8.64712e-06
1.03998e-05
2.50791e-08
1.04013e-05
7.16311e-08
1.04033e-05
1.13307e-07
1.04052e-05
1.51195e-07
1.04071e-05
1.86558e-07
1.0409e-05
2.20446e-07
1.04115e-05
2.53549e-07
1.04147e-05
2.86282e-07
1.04193e-05
3.1887e-07
1.04256e-05
3.51357e-07
1.04344e-05
3.83613e-07
1.0446e-05
4.15364e-07
1.04609e-05
4.46245e-07
1.04796e-05
4.75842e-07
1.05025e-05
5.03713e-07
1.05297e-05
5.29441e-07
1.05615e-05
5.52526e-07
5.72954e-07
1.05979e-05
1.26777e-05
2.41721e-08
1.26803e-05
6.90276e-08
1.26841e-05
1.09483e-07
1.26888e-05
1.46523e-07
1.26942e-05
1.81126e-07
1.27006e-05
2.14093e-07
1.27082e-05
2.45979e-07
1.27173e-05
2.77114e-07
1.27285e-05
3.07655e-07
1.27423e-05
3.37609e-07
1.27591e-05
3.66842e-07
1.27793e-05
3.95114e-07
1.28034e-05
4.22116e-07
1.28318e-05
4.47506e-07
1.28645e-05
4.70935e-07
1.29019e-05
4.92096e-07
1.29438e-05
5.10625e-07
5.26629e-07
1.29901e-05
1.54547e-05
2.26418e-08
1.54592e-05
6.45334e-08
1.54662e-05
1.02507e-07
1.54753e-05
1.37446e-07
1.54863e-05
1.70102e-07
1.54993e-05
2.01055e-07
1.55146e-05
2.30706e-07
1.55324e-05
2.59297e-07
1.55531e-05
2.86926e-07
1.55772e-05
3.13571e-07
1.56049e-05
3.39111e-07
1.56367e-05
3.63346e-07
1.56728e-05
3.86036e-07
1.57133e-05
4.06927e-07
1.57585e-05
4.2577e-07
1.58082e-05
4.42372e-07
1.58624e-05
4.56493e-07
4.68324e-07
1.59207e-05
1.88402e-05
2.00566e-08
1.88478e-05
5.69647e-08
1.88597e-05
9.05874e-08
1.88755e-05
1.2169e-07
1.88947e-05
1.50828e-07
1.89174e-05
1.78366e-07
1.89436e-05
2.04548e-07
1.89734e-05
2.29515e-07
1.9007e-05
2.53312e-07
1.90447e-05
2.75896e-07
1.90866e-05
2.97158e-07
1.9133e-05
3.16946e-07
1.9184e-05
3.35085e-07
1.92395e-05
3.51403e-07
1.92995e-05
3.65745e-07
1.93639e-05
3.78007e-07
1.94323e-05
3.88049e-07
3.96095e-07
1.95045e-05
2.29677e-05
1.56911e-08
2.29801e-05
4.4591e-08
2.29995e-05
7.12046e-08
2.3025e-05
9.61918e-08
2.30559e-05
1.19873e-07
2.30919e-05
1.42363e-07
2.31327e-05
1.63722e-07
2.31783e-05
1.83978e-07
2.32285e-05
2.03104e-07
2.32834e-05
2.21024e-07
2.33429e-05
2.37633e-07
2.3407e-05
2.5281e-07
2.34757e-05
2.66435e-07
2.35487e-05
2.78398e-07
2.36258e-05
2.88604e-07
2.37068e-05
2.97008e-07
2.37913e-05
3.03537e-07
3.08394e-07
2.3879e-05
1.68147e-05
1.16806e-08
1.68259e-05
3.33762e-08
1.68433e-05
5.38388e-08
1.68658e-05
7.36445e-08
1.68929e-05
9.2849e-08
1.69239e-05
1.1133e-07
1.69586e-05
1.29026e-07
1.69967e-05
1.45887e-07
1.7038e-05
1.61815e-07
1.70823e-05
1.76687e-07
1.71296e-05
1.90384e-07
1.71796e-05
2.02793e-07
1.72322e-05
2.13812e-07
1.72872e-05
2.23352e-07
1.73445e-05
2.31351e-07
1.74037e-05
2.37788e-07
1.74646e-05
2.42628e-07
2.46054e-07
1.7527e-05
1.46386e-05
7.60963e-09
1.465e-05
2.19815e-08
1.46674e-05
3.6437e-08
1.46897e-05
5.14122e-08
1.4716e-05
6.65609e-08
1.47458e-05
8.14674e-08
1.47789e-05
9.5977e-08
1.48148e-05
1.09984e-07
1.48533e-05
1.23305e-07
1.48942e-05
1.35766e-07
1.49373e-05
1.47242e-07
1.49825e-05
1.57627e-07
1.50295e-05
1.66816e-07
1.50781e-05
1.7472e-07
1.51282e-05
1.81278e-07
1.51795e-05
1.8647e-07
1.52319e-05
1.90259e-07
1.92775e-07
1.52852e-05
1.27443e-05
3.45756e-09
1.27558e-05
1.05053e-08
1.27729e-05
1.9325e-08
1.27943e-05
3.00069e-08
1.28192e-05
4.15889e-08
1.28473e-05
5.34273e-08
1.28779e-05
6.53291e-08
1.29109e-05
7.7066e-08
1.29458e-05
8.83528e-08
1.29826e-05
9.89614e-08
1.30211e-05
1.08765e-07
1.30611e-05
1.17668e-07
1.31023e-05
1.25564e-07
1.31447e-05
1.32363e-07
1.31879e-05
1.38004e-07
1.32319e-05
1.42474e-07
1.32764e-05
1.45775e-07
1.48055e-07
1.33211e-05
1.10952e-05
-8.55861e-10
1.11069e-05
-1.12758e-09
1.11235e-05
2.70663e-09
1.11436e-05
9.85555e-09
1.1167e-05
1.82475e-08
1.11931e-05
2.73143e-08
1.12213e-05
3.7088e-08
1.12514e-05
4.6978e-08
1.12831e-05
5.66368e-08
1.13163e-05
6.58202e-08
1.13506e-05
7.44195e-08
1.1386e-05
8.22945e-08
1.14222e-05
8.93222e-08
1.14592e-05
9.54165e-08
1.14967e-05
1.00503e-07
1.15346e-05
1.04556e-07
1.15728e-05
1.07541e-07
1.09505e-07
1.16114e-05
9.65978e-06
-5.42125e-09
9.67173e-06
-1.30805e-08
9.68791e-06
-1.34661e-08
9.70662e-06
-8.86125e-09
9.72787e-06
-2.99796e-09
9.75153e-06
3.65067e-09
9.7768e-06
1.18165e-08
9.8035e-06
2.02839e-08
9.83159e-06
2.8545e-08
9.86097e-06
3.64353e-08
9.8913e-06
4.40971e-08
9.92237e-06
5.1216e-08
9.95405e-06
5.76496e-08
9.98619e-06
6.32733e-08
1.00187e-05
6.80146e-08
1.00514e-05
7.18726e-08
1.0084e-05
7.48728e-08
7.7156e-08
1.01164e-05
8.41045e-06
-1.0518e-08
8.42252e-06
-2.51563e-08
8.43804e-06
-2.89803e-08
8.45599e-06
-2.68157e-08
8.47611e-06
-2.31156e-08
8.4978e-06
-1.80402e-08
8.52102e-06
-1.13988e-08
8.54491e-06
-3.60524e-09
8.56968e-06
3.7679e-09
8.59556e-06
1.05576e-08
8.62215e-06
1.75108e-08
8.64933e-06
2.40345e-08
8.67682e-06
3.01568e-08
8.70459e-06
3.55038e-08
8.73257e-06
4.00399e-08
8.76064e-06
4.37972e-08
8.7888e-06
4.67113e-08
4.87544e-08
8.8172e-06
7.32366e-06
-1.6898e-08
7.33605e-06
-3.75379e-08
7.34943e-06
-4.23662e-08
7.36484e-06
-4.22236e-08
7.38255e-06
-4.08249e-08
7.40185e-06
-3.73442e-08
7.42235e-06
-3.18939e-08
7.44413e-06
-2.53905e-08
7.46674e-06
-1.88349e-08
7.48967e-06
-1.23769e-08
7.51321e-06
-6.02524e-09
7.53733e-06
-8.98064e-11
7.56155e-06
5.94017e-09
7.58591e-06
1.11425e-08
7.61034e-06
1.56114e-08
7.6347e-06
1.94335e-08
7.6589e-06
2.25147e-08
2.50011e-08
7.68265e-06
6.37744e-06
-2.42695e-08
6.39263e-06
-5.2735e-08
6.40586e-06
-5.5591e-08
6.4202e-06
-5.65685e-08
6.43628e-06
-5.68971e-08
6.45345e-06
-5.45207e-08
6.47167e-06
-5.01131e-08
6.49097e-06
-4.46891e-08
6.51102e-06
-3.88804e-08
6.53158e-06
-3.29437e-08
6.55257e-06
-2.70082e-08
6.5737e-06
-2.12252e-08
6.59523e-06
-1.55908e-08
6.6169e-06
-1.05258e-08
6.63859e-06
-6.07562e-09
6.66014e-06
-2.11576e-09
6.68151e-06
1.1413e-09
3.5953e-09
6.70292e-06
5.55098e-06
-2.97864e-08
5.56765e-06
-6.94034e-08
5.58451e-06
-7.24523e-08
5.60479e-06
-7.6852e-08
5.62749e-06
-7.95908e-08
5.6512e-06
-7.82339e-08
5.67544e-06
-7.43551e-08
5.69992e-06
-6.91653e-08
5.72426e-06
-6.32232e-08
5.7482e-06
-5.68793e-08
5.77157e-06
-5.03842e-08
5.79431e-06
-4.39605e-08
5.81648e-06
-3.77569e-08
5.83797e-06
-3.20235e-08
5.85877e-06
-2.68741e-08
5.87904e-06
-2.23801e-08
5.89879e-06
-1.86133e-08
-1.59888e-08
5.91837e-06
4.8847e-06
-8.68833e-08
4.93444e-06
-1.19143e-07
4.98012e-06
-1.18127e-07
5.02002e-06
-1.16752e-07
5.05305e-06
-1.12623e-07
5.07954e-06
-1.04725e-07
5.10038e-06
-9.51914e-08
5.11659e-06
-8.53768e-08
5.12918e-06
-7.58137e-08
5.13906e-06
-6.6755e-08
5.147e-06
-5.83278e-08
5.15364e-06
-5.06031e-08
5.15949e-06
-4.36059e-08
5.16487e-06
-3.73971e-08
5.16999e-06
-3.19947e-08
5.17502e-06
-2.74166e-08
5.18007e-06
-2.36655e-08
-2.12039e-08
5.18529e-06
4.11579e-06
3.99665e-06
3.87852e-06
3.76177e-06
3.64915e-06
3.54442e-06
3.44923e-06
3.36385e-06
3.28804e-06
3.22129e-06
3.16296e-06
3.11235e-06
3.06875e-06
3.03135e-06
2.99936e-06
2.97194e-06
2.94827e-06
2.92707e-06
-5.90456e-07
5.90456e-07
-9.05884e-07
3.15428e-07
-5.04943e-07
-4.00941e-07
5.44065e-07
-1.04901e-06
1.88987e-06
-1.34581e-06
3.23898e-06
-1.34911e-06
4.42056e-06
-1.18158e-06
5.35876e-06
-9.38199e-07
6.0258e-06
-6.67042e-07
6.41415e-06
-3.88352e-07
6.52575e-06
-1.11599e-07
6.33553e-06
1.90216e-07
5.85083e-06
4.84707e-07
5.10161e-06
7.49219e-07
4.14074e-06
9.60864e-07
3.0526e-06
1.08814e-06
1.95437e-06
1.09823e-06
9.85201e-07
9.69165e-07
2.80471e-07
7.04729e-07
-1.23019e-07
4.0349e-07
-2.53937e-07
1.30918e-07
-1.44536e-07
-1.09401e-07
2.6614e-07
-4.10677e-07
9.1513e-07
-6.4899e-07
1.48802e-06
-5.72893e-07
1.8446e-06
-3.56574e-07
1.97387e-06
-1.29274e-07
1.9363e-06
3.75668e-08
1.79127e-06
1.45031e-07
1.51424e-06
2.77038e-07
1.0108e-06
5.03438e-07
2.23743e-07
7.87055e-07
-7.95535e-07
1.01928e-06
-1.9586e-06
1.16306e-06
-3.19939e-06
1.24079e-06
-4.46011e-06
1.26072e-06
-5.69248e-06
1.23237e-06
-6.85873e-06
1.16625e-06
-7.93134e-06
1.07261e-06
-8.89223e-06
9.60888e-07
-9.73114e-06
8.38905e-07
-1.04438e-05
7.12706e-07
-1.10305e-05
5.86677e-07
-1.14943e-05
4.63792e-07
-1.18403e-05
3.45992e-07
-1.20749e-05
2.34613e-07
-1.2206e-05
1.31092e-07
-1.22429e-05
3.68902e-08
-1.22056e-05
-3.73186e-08
-1.21065e-05
-9.90909e-08
-1.19551e-05
-1.51391e-07
-1.17585e-05
-1.96647e-07
-1.15219e-05
-2.36602e-07
-1.12498e-05
-2.72039e-07
-1.09463e-05
-3.03477e-07
-1.0615e-05
-3.31327e-07
-1.0259e-05
-3.55984e-07
-9.88117e-06
-3.77851e-07
-9.48385e-06
-3.97328e-07
-9.06905e-06
-4.14795e-07
-8.63848e-06
-4.30574e-07
-8.19357e-06
-4.44905e-07
-7.73566e-06
-4.5791e-07
-7.26608e-06
-4.69585e-07
-6.78628e-06
-4.79795e-07
-6.29799e-06
-4.88289e-07
-5.80325e-06
-4.94741e-07
-5.30446e-06
-4.98789e-07
-4.80437e-06
-5.00096e-07
-4.30597e-06
-4.98397e-07
-3.81243e-06
-4.93542e-07
-3.32691e-06
-4.85516e-07
-2.85246e-06
-4.74448e-07
-2.39186e-06
-4.60601e-07
-1.94752e-06
-4.44347e-07
-1.52137e-06
-4.26142e-07
-1.11492e-06
-4.06453e-07
-7.29289e-07
-3.85632e-07
-3.65283e-07
-3.64006e-07
-2.26717e-08
-3.42611e-07
2.98507e-07
-3.21179e-07
5.98283e-07
-2.99776e-07
8.77007e-07
-2.78724e-07
1.13519e-06
-2.58185e-07
1.37345e-06
-2.38258e-07
1.59244e-06
-2.18985e-07
1.79276e-06
-2.00323e-07
1.97485e-06
-1.82087e-07
2.13872e-06
-1.63873e-07
2.28411e-06
-1.45396e-07
2.41139e-06
-1.27275e-07
2.51996e-06
-1.08569e-07
2.59804e-06
-7.80807e-08
2.62257e-06
-2.4526e-08
2.57019e-06
5.23732e-08
2.45113e-06
1.19066e-07
2.28919e-06
1.61938e-07
2.11331e-06
1.75877e-07
1.94903e-06
1.64278e-07
1.81171e-06
1.37324e-07
1.70678e-06
1.04928e-07
1.63406e-06
7.27177e-08
1.59103e-06
4.30293e-08
1.57414e-06
1.6898e-08
1.57919e-06
-5.05493e-09
1.60225e-06
-2.30558e-08
1.63887e-06
-3.66235e-08
1.68437e-06
-4.55013e-08
1.73443e-06
-5.00551e-08
1.78566e-06
-5.12319e-08
1.83601e-06
-5.03518e-08
1.88459e-06
-4.85833e-08
1.93146e-06
-4.68719e-08
1.97745e-06
-4.59828e-08
2.02429e-06
-4.68459e-08
2.07433e-06
-5.00326e-08
2.12891e-06
-5.45866e-08
2.18734e-06
-5.8426e-08
2.24846e-06
-6.11258e-08
2.31358e-06
-6.51176e-08
2.38458e-06
-7.10028e-08
2.45842e-06
-7.38367e-08
2.53067e-06
-7.22458e-08
2.6123e-06
-8.16315e-08
2.7375e-06
-1.25206e-07
2.93713e-06
-1.99626e-07
3.19126e-06
-2.54126e-07
3.41797e-06
-2.26709e-07
3.5363e-06
-1.18334e-07
3.54503e-06
-8.73362e-09
3.49859e-06
4.6443e-08
3.39708e-06
1.0151e-07
3.13398e-06
2.63106e-07
2.56763e-06
5.66345e-07
1.63889e-06
9.28742e-07
4.33842e-07
1.20505e-06
-9.03452e-07
1.33729e-06
-2.22157e-06
1.31812e-06
-3.42662e-06
1.20505e-06
-4.47132e-06
1.04469e-06
-5.33462e-06
8.63299e-07
-6.00846e-06
6.73843e-07
-6.49056e-06
4.82098e-07
-6.78347e-06
2.92916e-07
-6.89444e-06
1.10969e-07
-6.84634e-06
-4.80966e-08
-6.65801e-06
-1.88333e-07
-6.33837e-06
-3.19639e-07
-5.89393e-06
-4.44439e-07
-5.33235e-06
-5.61585e-07
-4.66354e-06
-6.68807e-07
-3.90049e-06
-7.63051e-07
-3.06029e-06
-8.40203e-07
-2.16479e-06
-8.955e-07
-1.23903e-06
-9.25755e-07
-3.16779e-07
-9.22253e-07
5.75489e-07
-8.92268e-07
1.40896e-06
-8.33468e-07
2.16615e-06
-7.57194e-07
2.83557e-06
-6.69419e-07
3.40999e-06
-5.74424e-07
3.89378e-06
-4.83789e-07
4.32383e-06
-4.3005e-07
4.74544e-06
-4.21606e-07
5.07925e-06
-3.33813e-07
5.12559e-06
-4.63382e-08
4.80625e-06
3.19338e-07
4.26764e-06
5.38616e-07
3.69676e-06
5.70876e-07
3.22996e-06
4.66802e-07
2.9301e-06
2.99861e-07
2.79362e-06
1.36474e-07
2.7632e-06
3.04263e-08
2.81076e-06
-4.75681e-08
3.04864e-06
-2.37873e-07
3.58747e-06
-5.38831e-07
4.14475e-06
-5.57279e-07
4.15118e-06
-6.43396e-09
3.19574e-06
9.55441e-07
1.83424e-06
1.3615e-06
1.01444e-07
4.89012e-07
9.03404e-07
-4.86532e-07
2.19676e-06
-1.69429e-06
3.49316e-06
-2.34542e-06
4.5946e-06
-2.44724e-06
5.46214e-06
-2.21665e-06
6.11821e-06
-1.83765e-06
6.59544e-06
-1.41543e-06
6.92331e-06
-9.94909e-07
7.12257e-06
-5.87611e-07
7.20455e-06
-1.93576e-07
7.19191e-06
2.0285e-07
7.06669e-06
6.09929e-07
6.78987e-06
1.02604e-06
6.3239e-06
1.42683e-06
5.65399e-06
1.75805e-06
4.80927e-06
1.94295e-06
3.8717e-06
1.90673e-06
2.96029e-06
1.61614e-06
2.23358e-06
1.1302e-06
1.76484e-06
5.99661e-07
1.54875e-06
1.0669e-07
1.67254e-06
-5.3447e-07
1.85631e-06
-8.32755e-07
1.77647e-06
-4.93051e-07
1.40115e-06
1.87426e-08
7.79641e-07
4.92234e-07
-1.46968e-07
9.64175e-07
-1.37774e-06
1.3758e-06
-2.81881e-06
1.7181e-06
-4.31378e-06
1.99841e-06
-5.7385e-06
2.21177e-06
-7.05173e-06
2.33251e-06
-8.24139e-06
2.35272e-06
-9.28527e-06
2.28467e-06
-1.01708e-05
2.14625e-06
-1.08963e-05
1.95789e-06
-1.14695e-05
1.73948e-06
-1.19052e-05
1.50826e-06
-1.22219e-05
1.27759e-06
-1.24397e-05
1.05668e-06
-1.25779e-05
8.50977e-07
-1.26542e-05
6.62922e-07
-1.2683e-05
4.92632e-07
-1.2676e-05
3.38939e-07
-1.26415e-05
2.00195e-07
-1.25857e-05
7.52686e-08
-1.25091e-05
-3.97086e-08
-1.24008e-05
-1.4568e-07
-1.22545e-05
-2.4531e-07
-1.20685e-05
-3.3746e-07
-1.18436e-05
-4.21519e-07
-1.15828e-05
-4.97404e-07
-1.12894e-05
-5.65395e-07
-1.0967e-05
-6.25933e-07
-1.06187e-05
-6.79599e-07
-1.02476e-05
-7.27088e-07
-9.85629e-06
-7.69174e-07
-9.44695e-06
-8.06663e-07
-9.02142e-06
-8.40329e-07
-8.58116e-06
-8.70835e-07
-8.1274e-06
-8.98667e-07
-7.66123e-06
-9.24073e-07
-7.1838e-06
-9.47022e-07
-6.69639e-06
-9.67203e-07
-6.20062e-06
-9.84062e-07
-5.69848e-06
-9.96877e-07
-5.19241e-06
-1.00486e-06
-4.68523e-06
-1.00728e-06
-4.18006e-06
-1.00356e-06
-3.6802e-06
-9.93404e-07
-3.18893e-06
-9.7678e-07
-2.7094e-06
-9.53983e-07
-2.24442e-06
-9.25582e-07
-1.79639e-06
-8.92373e-07
-1.36724e-06
-8.55297e-07
-9.58357e-07
-8.15333e-07
-5.70622e-07
-7.73367e-07
-2.043e-07
-7.30328e-07
1.40418e-07
-6.8733e-07
4.63349e-07
-6.4411e-07
7.65101e-07
-6.01528e-07
1.04639e-06
-5.60013e-07
1.308e-06
-5.19793e-07
1.55074e-06
-4.80998e-07
1.7754e-06
-4.43643e-07
1.98269e-06
-4.07621e-07
2.17331e-06
-3.72705e-07
2.348e-06
-3.38561e-07
2.50738e-06
-3.04774e-07
2.65079e-06
-2.70684e-07
2.77716e-06
-2.34938e-07
2.8949e-06
-1.9582e-07
3.02136e-06
-1.50992e-07
3.16708e-06
-9.33453e-08
3.31013e-06
-2.39836e-08
3.42789e-06
4.41779e-08
3.50525e-06
9.8521e-08
3.53853e-06
1.31e-07
3.5323e-06
1.43552e-07
3.49567e-06
1.4155e-07
3.43879e-06
1.29605e-07
3.37125e-06
1.10563e-07
3.30213e-06
8.60268e-08
3.23973e-06
5.7342e-08
3.18961e-06
2.70578e-08
3.15406e-06
-1.07269e-09
3.13198e-06
-2.34221e-08
3.11997e-06
-3.80406e-08
3.11364e-06
-4.49067e-08
3.10912e-06
-4.58262e-08
3.10323e-06
-4.26913e-08
3.09416e-06
-3.78092e-08
3.08203e-06
-3.38526e-08
3.07022e-06
-3.50326e-08
3.06519e-06
-4.49983e-08
3.07227e-06
-6.16748e-08
3.09e-06
-7.61552e-08
3.11015e-06
-8.12707e-08
3.12753e-06
-8.24973e-08
3.14908e-06
-9.25508e-08
3.19008e-06
-1.14845e-07
3.26447e-06
-1.46629e-07
3.38543e-06
-2.02597e-07
3.57045e-06
-3.10223e-07
3.82809e-06
-4.57262e-07
4.1346e-06
-5.60638e-07
4.43366e-06
-5.25768e-07
4.65837e-06
-3.43049e-07
4.73412e-06
-8.44853e-08
4.55099e-06
2.29571e-07
3.95573e-06
6.96772e-07
2.82799e-06
1.39085e-06
1.24888e-06
2.14545e-06
-4.76489e-07
2.65412e-06
-2.06741e-06
2.79597e-06
-3.39865e-06
2.66853e-06
-4.46078e-06
2.38025e-06
-5.28271e-06
2.02699e-06
-5.90358e-06
1.66555e-06
-6.36107e-06
1.32079e-06
-6.6855e-06
9.98278e-07
-6.89866e-06
6.95251e-07
-7.01291e-06
4.07171e-07
-7.03188e-06
1.29939e-07
-6.93929e-06
-1.40688e-07
-6.72002e-06
-4.07603e-07
-6.3732e-06
-6.6646e-07
-5.90328e-06
-9.14364e-07
-5.31707e-06
-1.14779e-06
-4.62394e-06
-1.36194e-06
-3.83648e-06
-1.55051e-06
-2.97117e-06
-1.70551e-06
-2.04883e-06
-1.81784e-06
-1.09756e-06
-1.87702e-06
-1.42775e-07
-1.87704e-06
7.77159e-07
-1.8122e-06
1.63825e-06
-1.69455e-06
2.42124e-06
-1.54019e-06
3.11817e-06
-1.36635e-06
3.73446e-06
-1.19072e-06
4.2784e-06
-1.02772e-06
4.73665e-06
-8.88309e-07
5.09569e-06
-7.80639e-07
5.45094e-06
-6.89063e-07
5.94413e-06
-5.39535e-07
6.52769e-06
-2.64215e-07
7.02537e-06
4.09284e-08
7.37848e-06
2.17774e-07
7.62987e-06
2.1541e-07
7.79382e-06
1.35913e-07
7.79274e-06
1.37548e-07
7.51057e-06
3.12594e-07
6.96848e-06
4.9453e-07
6.40988e-06
3.20719e-07
6.16222e-06
-2.91172e-07
6.0841e-06
-4.79149e-07
5.28707e-06
7.90587e-07
3.18011e-06
3.0624e-06
4.44803e-06
5.66321e-07
7.51504e-07
-2.62492e-07
2.3523e-06
-2.08733e-06
3.71943e-06
-3.06143e-06
4.56513e-06
-3.19111e-06
5.00352e-06
-2.88563e-06
5.216e-06
-2.42913e-06
5.33049e-06
-1.95214e-06
5.40904e-06
-1.49399e-06
5.46979e-06
-1.05565e-06
5.51138e-06
-6.29198e-07
5.52602e-06
-2.08225e-07
5.51859e-06
2.10282e-07
5.4931e-06
6.3542e-07
5.43982e-06
1.07933e-06
5.32389e-06
1.54276e-06
5.09392e-06
1.98802e-06
4.71077e-06
2.3261e-06
4.1745e-06
2.44301e-06
3.53134e-06
2.25931e-06
2.85804e-06
1.8035e-06
2.31923e-06
1.13847e-06
2.15791e-06
2.68002e-07
1.79129e-06
-1.67847e-07
8.95343e-07
6.31923e-08
-3.45219e-07
7.47511e-07
-1.76268e-06
1.4362e-06
-3.25032e-06
1.97987e-06
-4.71497e-06
2.42883e-06
-6.10857e-06
2.76941e-06
-7.38204e-06
2.99157e-06
-8.48378e-06
3.10015e-06
-9.37835e-06
3.10635e-06
-1.00682e-05
3.02234e-06
-1.05795e-05
2.86402e-06
-1.09471e-05
2.65232e-06
-1.12095e-05
2.40858e-06
-1.1403e-05
2.15142e-06
-1.15582e-05
1.89465e-06
-1.16966e-05
1.64669e-06
-1.18303e-05
1.41124e-06
-1.19624e-05
1.18878e-06
-1.20894e-05
9.78059e-07
-1.22038e-05
7.7732e-07
-1.22962e-05
5.85034e-07
-1.23576e-05
4.00315e-07
-1.23804e-05
2.23009e-07
-1.23581e-05
5.29056e-08
-1.22892e-05
-1.08615e-07
-1.2173e-05
-2.61808e-07
-1.20134e-05
-4.04989e-07
-1.18135e-05
-5.37343e-07
-1.15765e-05
-6.58443e-07
-1.13059e-05
-7.68052e-07
-1.1005e-05
-8.66304e-07
-1.06773e-05
-9.53671e-07
-1.03259e-05
-1.03094e-06
-9.95386e-06
-1.09914e-06
-9.56354e-06
-1.1595e-06
-9.1569e-06
-1.2133e-06
-8.73543e-06
-1.26181e-06
-8.30017e-06
-1.30609e-06
-7.85191e-06
-1.34693e-06
-7.39128e-06
-1.3847e-06
-6.91898e-06
-1.41933e-06
-6.43596e-06
-1.45022e-06
-5.94364e-06
-1.47639e-06
-5.44394e-06
-1.49657e-06
-4.93943e-06
-1.50937e-06
-4.43318e-06
-1.51353e-06
-3.92867e-06
-1.50807e-06
-3.4296e-06
-1.49247e-06
-2.93965e-06
-1.46673e-06
-2.46226e-06
-1.43137e-06
-2.00047e-06
-1.38737e-06
-1.55679e-06
-1.33606e-06
-1.13311e-06
-1.27897e-06
-7.30743e-07
-1.2177e-06
-3.50346e-07
-1.15376e-06
7.74244e-09
-1.08842e-06
3.43244e-07
-1.02283e-06
6.56699e-07
-9.57564e-07
9.48747e-07
-8.93576e-07
1.22018e-06
-8.31448e-07
1.47194e-06
-7.71556e-07
1.70506e-06
-7.14119e-07
1.92061e-06
-6.59187e-07
2.11963e-06
-6.06639e-07
2.30311e-06
-5.56186e-07
2.47195e-06
-5.07406e-07
2.62694e-06
-4.59762e-07
2.76865e-06
-4.12395e-07
2.89768e-06
-3.63966e-07
3.01534e-06
-3.13478e-07
3.1248e-06
-2.60453e-07
3.23529e-06
-2.03839e-07
3.35609e-06
-1.44777e-07
3.48753e-06
-8.72609e-08
3.62164e-06
-3.55895e-08
3.7463e-06
6.33615e-09
3.85253e-06
3.73208e-08
3.93599e-06
5.80876e-08
3.99598e-06
6.96154e-08
4.03431e-06
7.22374e-08
4.0541e-06
6.62377e-08
4.05853e-06
5.2914e-08
4.05025e-06
3.53286e-08
4.03152e-06
1.76579e-08
4.0042e-06
3.90415e-09
3.97028e-06
-4.12352e-09
3.93097e-06
-5.59718e-09
3.88744e-06
-2.29585e-09
3.83989e-06
4.8625e-09
3.78856e-06
1.3517e-08
3.73276e-06
2.19475e-08
3.67341e-06
2.43169e-08
3.61639e-06
1.20227e-08
3.5714e-06
-1.6688e-08
3.54518e-06
-4.99324e-08
3.53444e-06
-7.05352e-08
3.52997e-06
-7.80227e-08
3.52947e-06
-9.20457e-08
3.54688e-06
-1.32261e-07
3.61168e-06
-2.11425e-07
3.75876e-06
-3.4968e-07
4.00635e-06
-5.5781e-07
4.33041e-06
-7.8132e-07
4.66224e-06
-8.92474e-07
4.91309e-06
-7.76611e-07
4.98761e-06
-4.17577e-07
4.7497e-06
1.53428e-07
4.02841e-06
9.5086e-07
2.73307e-06
1.99211e-06
1.04096e-06
3.08296e-06
-6.34466e-07
3.82087e-06
-2.01739e-06
4.03704e-06
-3.08677e-06
3.86535e-06
-3.91391e-06
3.49568e-06
-4.58896e-06
3.0553e-06
-5.1743e-06
2.61232e-06
-5.69567e-06
2.18692e-06
-6.15172e-06
1.77684e-06
-6.52754e-06
1.37411e-06
-6.80479e-06
9.72502e-07
-6.96758e-06
5.69961e-07
-7.00446e-06
1.6682e-07
-6.91165e-06
-2.33497e-07
-6.68995e-06
-6.29304e-07
-6.3416e-06
-1.01481e-06
-5.87067e-06
-1.38529e-06
-5.28326e-06
-1.73521e-06
-4.5878e-06
-2.0574e-06
-3.79573e-06
-2.34258e-06
-2.9222e-06
-2.57905e-06
-1.98735e-06
-2.75269e-06
-1.0169e-06
-2.84747e-06
-4.32563e-08
-2.85068e-06
8.99163e-07
-2.75462e-06
1.78155e-06
-2.57694e-06
2.58286e-06
-2.3415e-06
3.29182e-06
-2.07531e-06
3.90779e-06
-1.80668e-06
4.44041e-06
-1.56035e-06
4.90446e-06
-1.35236e-06
5.3093e-06
-1.18548e-06
5.66337e-06
-1.04313e-06
6.00879e-06
-8.84957e-07
6.42886e-06
-6.84283e-07
6.94684e-06
-4.77044e-07
7.48982e-06
-3.25207e-07
7.98241e-06
-2.77182e-07
8.41987e-06
-3.01549e-07
8.79548e-06
-2.38064e-07
8.99401e-06
1.14071e-07
8.89429e-06
5.94247e-07
8.48106e-06
7.33945e-07
7.84413e-06
3.45765e-07
6.90656e-06
4.58415e-07
5.25107e-06
2.44608e-06
2.91413e-06
5.39934e-06
6.70061e-06
6.61558e-07
1.3984e-06
-1.66089e-06
2.81604e-06
-3.50496e-06
3.48103e-06
-3.72642e-06
3.63755e-06
-3.34763e-06
3.61024e-06
-2.85833e-06
3.57141e-06
-2.3903e-06
3.57191e-06
-1.95264e-06
3.60081e-06
-1.52289e-06
3.63021e-06
-1.08506e-06
3.64175e-06
-6.40738e-07
3.62796e-06
-1.94435e-07
3.58825e-06
2.49999e-07
3.53153e-06
6.92134e-07
3.46554e-06
1.14531e-06
3.38211e-06
1.62619e-06
3.24789e-06
2.12224e-06
3.02007e-06
2.55392e-06
2.67703e-06
2.78605e-06
2.23699e-06
2.69935e-06
1.81289e-06
2.22759e-06
1.52349e-06
1.42787e-06
9.08673e-07
8.82824e-07
-4.21703e-07
1.16253e-06
-2.21588e-06
1.85737e-06
-3.91921e-06
2.45084e-06
-5.42734e-06
2.94434e-06
-6.75531e-06
3.30784e-06
-7.87046e-06
3.54398e-06
-8.75783e-06
3.65678e-06
-9.427e-06
3.66073e-06
-9.9033e-06
3.57646e-06
-1.0223e-05
3.42603e-06
-1.04309e-05
3.23022e-06
-1.05743e-05
3.00747e-06
-1.06946e-05
2.77265e-06
-1.08214e-05
2.53532e-06
-1.09699e-05
2.29994e-06
-1.11425e-05
2.06722e-06
-1.13318e-05
1.83597e-06
-1.15252e-05
1.60466e-06
-1.17087e-05
1.37235e-06
-1.18697e-05
1.13907e-06
-1.19981e-05
9.05689e-07
-1.20868e-05
6.73715e-07
-1.21315e-05
4.44999e-07
-1.213e-05
2.21498e-07
-1.20822e-05
5.09977e-09
-1.19885e-05
-2.02295e-07
-1.18513e-05
-3.99038e-07
-1.16728e-05
-5.83484e-07
-1.14559e-05
-7.54163e-07
-1.12043e-05
-9.10075e-07
-1.09216e-05
-1.05071e-06
-1.06118e-05
-1.17613e-06
-1.02786e-05
-1.28693e-06
-9.92527e-06
-1.38423e-06
-9.5548e-06
-1.46961e-06
-9.16941e-06
-1.54489e-06
-8.77066e-06
-1.61205e-06
-8.35946e-06
-1.67301e-06
-7.93613e-06
-1.72942e-06
-7.5006e-06
-1.78245e-06
-7.05264e-06
-1.83267e-06
-6.5921e-06
-1.87986e-06
-6.11926e-06
-1.92305e-06
-5.63507e-06
-1.96059e-06
-5.14128e-06
-1.99035e-06
-4.64057e-06
-2.01009e-06
-4.13638e-06
-2.01772e-06
-3.63279e-06
-2.01167e-06
-3.13415e-06
-1.9911e-06
-2.64483e-06
-1.95605e-06
-2.16887e-06
-1.90734e-06
-1.70976e-06
-1.84648e-06
-1.2703e-06
-1.77551e-06
-8.52531e-07
-1.69674e-06
-4.57683e-07
-1.61255e-06
-8.64565e-08
-1.52499e-06
2.61443e-07
-1.43632e-06
5.86108e-07
-1.3475e-06
8.88503e-07
-1.25996e-06
1.16952e-06
-1.17459e-06
1.43007e-06
-1.092e-06
1.67111e-06
-1.0126e-06
1.89362e-06
-9.36626e-07
2.09862e-06
-8.64189e-07
2.28723e-06
-7.9525e-07
2.46065e-06
-7.29607e-07
2.62012e-06
-6.66876e-07
2.76685e-06
-6.06487e-07
2.90212e-06
-5.47664e-07
3.02759e-06
-4.89441e-07
3.14507e-06
-4.30961e-07
3.25619e-06
-3.71571e-07
3.36325e-06
-3.10901e-07
3.46864e-06
-2.5016e-07
3.57367e-06
-1.92296e-07
3.67856e-06
-1.40474e-07
3.7818e-06
-9.69083e-08
3.88111e-06
-6.19861e-08
3.97408e-06
-3.4886e-08
4.05834e-06
-1.4648e-08
4.1317e-06
-1.11539e-09
4.1921e-06
5.83561e-09
4.2384e-06
6.61168e-09
4.27113e-06
2.5947e-09
4.29196e-06
-3.16536e-09
4.30334e-06
-7.47726e-09
4.3062e-06
-6.98827e-09
4.3005e-06
1.05099e-10
4.28452e-06
1.36867e-08
4.25754e-06
3.1844e-08
4.2189e-06
5.21514e-08
4.16881e-06
7.20417e-08
4.10803e-06
8.51013e-08
4.03992e-06
8.01253e-08
3.97284e-06
5.03929e-08
3.91663e-06
6.28257e-09
3.87541e-06
-2.9322e-08