/*--------------------------------*- C++ -*----------------------------------*\
| =========                 |                                                 |
| \\      /  F ield         | OpenFOAM: The Open Source CFD Toolbox           |
|  \\    /   O peration     | Version:  2112                                  |
|   \\  /    A nd           | Website:  www.openfoam.com                      |
|    \\/     M anipulation  |                                                 |
\*---------------------------------------------------------------------------*/
FoamFile
{
    version     2.0;
    format      ascii;
    arch        "LSB;label=32;scalar=64";
    class       volVectorField;
    location    "0.13";
    object      U_0;
}
// * * * * * * * * * * * * * * * * * * * * * * * * * * * * * * * * * * * * * //

dimensions      [0 1 -1 0 0 0 0];

internalField   nonuniform List<vector> 
12225
(
(9.77606 -0.112572 0)
(9.31487 -0.0812303 0)
(8.81906 -0.0372557 0)
(8.30465 -0.00335692 0)
(7.79267 0.0203186 0)
(7.28625 0.0366948 0)
(6.77903 0.0491831 0)
(6.26321 0.0601332 0)
(5.73053 0.0709444 0)
(5.17182 0.0823918 0)
(4.57793 0.0945748 0)
(3.94229 0.106624 0)
(3.26383 0.116316 0)
(2.55153 0.119963 0)
(1.82197 0.113468 0)
(1.12009 0.0918504 0)
(0.404664 0.0491681 0)
(-0.0505836 -0.0850729 0)
(10.0958 0.129255 0)
(10.2934 0.204659 0)
(10.4204 0.20624 0)
(10.482 0.201517 0)
(10.4931 0.199401 0)
(10.4584 0.200058 0)
(10.3777 0.204785 0)
(10.2499 0.214656 0)
(10.0724 0.230441 0)
(9.83896 0.252918 0)
(9.54028 0.28258 0)
(9.16407 0.319009 0)
(8.69668 0.360102 0)
(8.12694 0.401564 0)
(7.44603 0.436275 0)
(6.66952 0.456845 0)
(5.7783 0.444616 0)
(4.88827 0.384278 0)
(10.0062 0.0295288 0)
(10.0428 0.0319124 0)
(10.0828 0.0315579 0)
(10.1184 0.048144 0)
(10.1545 0.0718869 0)
(10.1914 0.0973484 0)
(10.2258 0.125126 0)
(10.2552 0.157 0)
(10.2776 0.194786 0)
(10.2906 0.240508 0)
(10.2901 0.296093 0)
(10.2693 0.362705 0)
(10.2172 0.439803 0)
(10.1184 0.52448 0)
(9.95188 0.609479 0)
(9.6953 0.687671 0)
(9.32452 0.735744 0)
(8.77069 0.739224 0)
(10.0042 0.0278632 0)
(10.0232 0.0659734 0)
(10.037 0.0907218 0)
(10.0371 0.111916 0)
(10.0304 0.130453 0)
(10.0217 0.147416 0)
(10.0114 0.165802 0)
(10 0.188352 0)
(9.98932 0.217236 0)
(9.98186 0.254557 0)
(9.98084 0.302466 0)
(9.98988 0.36285 0)
(10.0119 0.436715 0)
(10.0474 0.523584 0)
(10.0909 0.620004 0)
(10.1264 0.721252 0)
(10.1332 0.816332 0)
(10.0385 0.901852 0)
(10.0031 0.026478 0)
(10.0176 0.063456 0)
(10.0277 0.081927 0)
(10.0255 0.0965678 0)
(10.0155 0.113119 0)
(10.0011 0.131863 0)
(9.98202 0.153713 0)
(9.95794 0.180159 0)
(9.92964 0.212573 0)
(9.89881 0.252288 0)
(9.86784 0.300632 0)
(9.84016 0.358687 0)
(9.82028 0.426949 0)
(9.81342 0.505133 0)
(9.82386 0.591966 0)
(9.85254 0.686093 0)
(9.89567 0.787861 0)
(9.93515 0.905494 0)
(10.002 0.0236501 0)
(10.0124 0.0586767 0)
(10.0204 0.0796298 0)
(10.019 0.098382 0)
(10.0105 0.119392 0)
(9.99755 0.142078 0)
(9.98011 0.166934 0)
(9.95779 0.19559 0)
(9.93105 0.229625 0)
(9.90095 0.270381 0)
(9.8688 0.318988 0)
(9.83633 0.376182 0)
(9.80561 0.442036 0)
(9.77905 0.51589 0)
(9.75858 0.596514 0)
(9.74611 0.683376 0)
(9.74124 0.77807 0)
(9.74686 0.890663 0)
(10.0013 0.0213565 0)
(10.0086 0.0559358 0)
(10.0147 0.0799917 0)
(10.0137 0.101236 0)
(10.006 0.123648 0)
(9.99415 0.147506 0)
(9.97845 0.173645 0)
(9.95876 0.203732 0)
(9.93555 0.23928 0)
(9.90982 0.281447 0)
(9.88278 0.331124 0)
(9.85576 0.38884 0)
(9.83015 0.454571 0)
(9.80715 0.527747 0)
(9.78717 0.607426 0)
(9.77037 0.693379 0)
(9.75583 0.786453 0)
(9.74582 0.894144 0)
(10.0009 0.0197635 0)
(10.0059 0.0539358 0)
(10.0104 0.0799534 0)
(10.0093 0.102862 0)
(10.0025 0.12656 0)
(9.99181 0.152014 0)
(9.97787 0.180031 0)
(9.96067 0.211975 0)
(9.94068 0.24914 0)
(9.91889 0.292517 0)
(9.89647 0.342827 0)
(9.87472 0.40048 0)
(9.8549 0.465465 0)
(9.8381 0.537404 0)
(9.82483 0.61574 0)
(9.8154 0.700477 0)
(9.80974 0.792251 0)
(9.80973 0.895509 0)
(10.0006 0.0186481 0)
(10.004 0.0523339 0)
(10.0071 0.0798087 0)
(10.006 0.104442 0)
(10.0002 0.129696 0)
(9.99092 0.156811 0)
(9.97885 0.186526 0)
(9.96419 0.219984 0)
(9.9474 0.258345 0)
(9.92941 0.302492 0)
(9.91133 0.353019 0)
(9.89435 0.410229 0)
(9.87962 0.474089 0)
(9.86819 0.544302 0)
(9.8608 0.62048 0)
(9.85825 0.702572 0)
(9.86116 0.790786 0)
(9.8721 0.887161 0)
(10.0004 0.0178652 0)
(10.0026 0.0511181 0)
(10.0047 0.0797441 0)
(10.0038 0.105973 0)
(9.99905 0.13266 0)
(9.9913 0.161162 0)
(9.98127 0.19225 0)
(9.96927 0.226923 0)
(9.95578 0.2662 0)
(9.94166 0.310841 0)
(9.92793 0.361316 0)
(9.91564 0.417819 0)
(9.90584 0.480277 0)
(9.8995 0.548405 0)
(9.89743 0.621828 0)
(9.90062 0.700298 0)
(9.90985 0.783502 0)
(9.92775 0.872047 0)
(10.0002 0.0173187 0)
(10.0017 0.0502265 0)
(10.0032 0.0797175 0)
(10.0025 0.107285 0)
(9.9989 0.135218 0)
(9.99284 0.164891 0)
(9.98501 0.197117 0)
(9.97581 0.232758 0)
(9.96572 0.272675 0)
(9.95552 0.317502 0)
(9.94613 0.367596 0)
(9.9385 0.423066 0)
(9.93356 0.483787 0)
(9.9322 0.549455 0)
(9.9352 0.61964 0)
(9.9435 0.6939 0)
(9.95779 0.771556 0)
(9.98022 0.852456 0)
(10.0002 0.0169525 0)
(10.0012 0.0495942 0)
(10.0024 0.0796598 0)
(10.0021 0.108224 0)
(9.99961 0.137127 0)
(9.99523 0.167685 0)
(9.98953 0.200712 0)
(9.98298 0.236966 0)
(9.97605 0.277166 0)
(9.96945 0.321841 0)
(9.96401 0.37126 0)
(9.96057 0.425461 0)
(9.95998 0.484272 0)
(9.96301 0.547351 0)
(9.97037 0.614212 0)
(9.98288 0.684284 0)
(10.001 0.756702 0)
(10.0265 0.831001 0)
(10.0001 0.016677 0)
(10.001 0.0490633 0)
(10.0021 0.079484 0)
(10.0023 0.108791 0)
(10.001 0.138464 0)
(9.99833 0.169692 0)
(9.99484 0.203265 0)
(9.99096 0.239851 0)
(9.98718 0.280053 0)
(9.98412 0.324295 0)
(9.98251 0.372768 0)
(9.98313 0.425445 0)
(9.98667 0.482109 0)
(9.99384 0.542381 0)
(10.0052 0.605734 0)
(10.0215 0.671532 0)
(10.0429 0.738859 0)
(10.0707 0.807178 0)
(10.0001 0.0164033 0)
(10.0009 0.0484647 0)
(10.0022 0.0790598 0)
(10.0031 0.108909 0)
(10.0033 0.139171 0)
(10.0027 0.170868 0)
(10.0018 0.204731 0)
(10.001 0.241341 0)
(10.0008 0.281178 0)
(10.0017 0.324559 0)
(10.0043 0.371593 0)
(10.0094 0.422192 0)
(10.0174 0.476095 0)
(10.0289 0.532894 0)
(10.0445 0.592044 0)
(10.0645 0.652904 0)
(10.089 0.7146 0)
(10.1189 0.776671 0)
(10.0001 0.0160747 0)
(10.0011 0.0476453 0)
(10.0028 0.078129 0)
(10.0048 0.108171 0)
(10.0067 0.138672 0)
(10.0086 0.170465 0)
(10.0107 0.20419 0)
(10.0134 0.240332 0)
(10.0171 0.279254 0)
(10.0223 0.321166 0)
(10.0295 0.366099 0)
(10.0392 0.413912 0)
(10.0518 0.464313 0)
(10.0678 0.516889 0)
(10.0875 0.571111 0)
(10.1111 0.626394 0)
(10.1387 0.681975 0)
(10.1706 0.737562 0)
(10.0002 0.0155942 0)
(10.0014 0.0463225 0)
(10.004 0.0762321 0)
(10.0074 0.105922 0)
(10.0115 0.136094 0)
(10.0161 0.167398 0)
(10.0216 0.200351 0)
(10.0281 0.235334 0)
(10.036 0.2726 0)
(10.0458 0.312265 0)
(10.0577 0.35429 0)
(10.0721 0.398496 0)
(10.0893 0.444581 0)
(10.1097 0.492151 0)
(10.1333 0.540732 0)
(10.1604 0.58983 0)
(10.1907 0.638828 0)
(10.2246 0.687604 0)
(10.0002 0.0148066 0)
(10.002 0.0440452 0)
(10.0057 0.072649 0)
(10.0109 0.101171 0)
(10.0175 0.130162 0)
(10.0253 0.160103 0)
(10.0343 0.191377 0)
(10.0449 0.224259 0)
(10.0572 0.258904 0)
(10.0716 0.295348 0)
(10.0881 0.333501 0)
(10.1071 0.373164 0)
(10.1287 0.414046 0)
(10.1531 0.455792 0)
(10.1804 0.498001 0)
(10.2105 0.540282 0)
(10.2432 0.582144 0)
(10.2789 0.623592 0)
(10.0003 0.0134783 0)
(10.0028 0.0401514 0)
(10.0079 0.0663573 0)
(10.0153 0.0925853 0)
(10.0246 0.119253 0)
(10.0357 0.146689 0)
(10.0486 0.175143 0)
(10.0633 0.204784 0)
(10.0799 0.235682 0)
(10.0986 0.26781 0)
(10.1195 0.301046 0)
(10.1427 0.335189 0)
(10.1682 0.369975 0)
(10.1961 0.405102 0)
(10.2263 0.440243 0)
(10.2588 0.475095 0)
(10.2935 0.509271 0)
(10.3305 0.542839 0)
(10.0004 0.0112682 0)
(10.0038 0.0336253 0)
(10.0106 0.0557303 0)
(10.0205 0.0780126 0)
(10.0328 0.100764 0)
(10.0473 0.124166 0)
(10.0639 0.148345 0)
(10.0825 0.17337 0)
(10.1032 0.199238 0)
(10.1259 0.225869 0)
(10.1505 0.253116 0)
(10.1772 0.280782 0)
(10.2058 0.308634 0)
(10.2364 0.336419 0)
(10.2687 0.363871 0)
(10.3029 0.390756 0)
(10.3385 0.41677 0)
(10.3759 0.441983 0)
(10.0005 0.00863365 0)
(10.0047 0.0258241 0)
(10.0131 0.0430384 0)
(10.0251 0.0606877 0)
(10.04 0.0789493 0)
(10.0572 0.0978676 0)
(10.0766 0.117465 0)
(10.098 0.137745 0)
(10.1215 0.158656 0)
(10.1467 0.180091 0)
(10.1737 0.201899 0)
(10.2024 0.223897 0)
(10.2327 0.245877 0)
(10.2645 0.26762 0)
(10.2977 0.288905 0)
(10.3321 0.309537 0)
(10.3676 0.32928 0)
(10.4042 0.348187 0)
(10.0006 0.00608781 0)
(10.0055 0.0183592 0)
(10.0152 0.0310658 0)
(10.029 0.0446004 0)
(10.0457 0.058996 0)
(10.0648 0.0741674 0)
(10.0862 0.0900564 0)
(10.1096 0.106588 0)
(10.1348 0.123646 0)
(10.1617 0.141084 0)
(10.1902 0.158744 0)
(10.2202 0.17646 0)
(10.2515 0.19405 0)
(10.2839 0.211329 0)
(10.3175 0.228108 0)
(10.3519 0.244226 0)
(10.3872 0.259483 0)
(10.4232 0.273909 0)
(10.0007 0.00348852 0)
(10.0064 0.0108462 0)
(10.0175 0.0192747 0)
(10.033 0.0290638 0)
(10.0514 0.0399472 0)
(10.0721 0.0517206 0)
(10.095 0.0643891 0)
(10.1198 0.0778488 0)
(10.1462 0.0919138 0)
(10.1742 0.106397 0)
(10.2035 0.121123 0)
(10.2341 0.135903 0)
(10.2658 0.150539 0)
(10.2984 0.164843 0)
(10.3318 0.17864 0)
(10.3659 0.19178 0)
(10.4005 0.204099 0)
(10.4355 0.215611 0)
(10.0008 0.000831881 0)
(10.0076 0.00327618 0)
(10.0203 0.00772189 0)
(10.0373 0.0142954 0)
(10.0571 0.0222093 0)
(10.0793 0.0308919 0)
(10.1037 0.0404002 0)
(10.1298 0.0506306 0)
(10.1575 0.0613608 0)
(10.1866 0.0724235 0)
(10.2168 0.0837547 0)
(10.248 0.095229 0)
(10.2801 0.106659 0)
(10.3129 0.117849 0)
(10.3463 0.128634 0)
(10.3802 0.138887 0)
(10.4144 0.148462 0)
(10.4489 0.157354 0)
(10.001 -0.00196489 0)
(10.009 -0.00435086 0)
(10.0238 -0.00359064 0)
(10.0426 8.62195e-06 0)
(10.0635 0.00561334 0)
(10.0865 0.0128745 0)
(10.1116 0.0212415 0)
(10.1385 0.0305358 0)
(10.1667 0.0403809 0)
(10.1962 0.0503568 0)
(10.2269 0.0603815 0)
(10.2585 0.0703916 0)
(10.2909 0.0802907 0)
(10.3237 0.0898852 0)
(10.357 0.0989916 0)
(10.3906 0.107499 0)
(10.4243 0.115325 0)
(10.458 0.122477 0)
(10.0013 -0.00512253 0)
(10.0111 -0.0119913 0)
(10.0279 -0.0136158 0)
(10.0486 -0.0130465 0)
(10.0714 -0.0119932 0)
(10.0961 -0.00982913 0)
(10.1226 -0.00627649 0)
(10.1505 -0.00148556 0)
(10.1794 0.00447908 0)
(10.2093 0.011556 0)
(10.2402 0.0191647 0)
(10.272 0.0269052 0)
(10.3044 0.0347568 0)
(10.3371 0.0425668 0)
(10.3701 0.0501138 0)
(10.4033 0.0572358 0)
(10.4366 0.0637785 0)
(10.4701 0.0697234 0)
(10.0019 -0.00885882 0)
(10.0146 -0.0214592 0)
(10.0335 -0.0225772 0)
(10.0541 -0.0182285 0)
(10.0763 -0.0135778 0)
(10.1012 -0.00913626 0)
(10.1284 -0.00416988 0)
(10.1572 0.00118418 0)
(10.1873 0.00696734 0)
(10.2183 0.013302 0)
(10.2499 0.0198678 0)
(10.2821 0.0263993 0)
(10.315 0.0324976 0)
(10.3481 0.0382042 0)
(10.3813 0.0436409 0)
(10.4145 0.0487741 0)
(10.4475 0.0534713 0)
(10.4802 0.0576038 0)
(10.0025 -0.0111251 0)
(10.0198 -0.0344384 0)
(10.0445 -0.0502768 0)
(10.0679 -0.059296 0)
(10.0909 -0.063128 0)
(10.1162 -0.0628011 0)
(10.1439 -0.0596056 0)
(10.1733 -0.0547129 0)
(10.204 -0.0489439 0)
(10.2357 -0.0428239 0)
(10.2682 -0.0364055 0)
(10.3012 -0.0298518 0)
(10.3344 -0.0235881 0)
(10.3681 -0.017665 0)
(10.402 -0.0120409 0)
(10.4358 -0.00679167 0)
(10.4694 -0.00199714 0)
(10.5028 0.0025985 0)
(10.0016 -0.0100524 0)
(10.0206 -0.000736471 0)
(10.0525 0.00907047 0)
(10.088 0.00742882 0)
(10.1264 0.0016454 0)
(10.1681 -0.00306374 0)
(10.2116 -0.006098 0)
(10.2556 -0.00785593 0)
(10.2995 -0.00856575 0)
(10.3429 -0.00833806 0)
(10.3855 -0.00725411 0)
(10.427 -0.00554217 0)
(10.4673 -0.00323922 0)
(10.5065 -0.000610851 0)
(10.5446 0.00204618 0)
(10.5815 0.00450368 0)
(10.6175 0.00668287 0)
(10.6523 0.00841878 0)
(10.0465 -0.0915463 0)
(10.1689 -0.151825 0)
(10.2742 -0.15343 0)
(10.361 -0.14734 0)
(10.435 -0.140723 0)
(10.4966 -0.132718 0)
(10.5455 -0.124054 0)
(10.5832 -0.115443 0)
(10.6123 -0.107066 0)
(10.6349 -0.0989396 0)
(10.6528 -0.0910778 0)
(10.6674 -0.0835169 0)
(10.6798 -0.0762574 0)
(10.691 -0.0694466 0)
(10.7015 -0.0632003 0)
(10.7118 -0.0576121 0)
(10.7218 -0.0526736 0)
(10.7324 -0.0491105 0)
(9.88736 0.0902262 0)
(9.65176 0.0654966 0)
(9.3805 0.0307339 0)
(9.09308 0.00472318 0)
(8.81406 -0.0121925 0)
(8.55401 -0.0216495 0)
(8.31573 -0.0261468 0)
(8.10026 -0.0276005 0)
(7.90789 -0.0271631 0)
(7.73787 -0.0255566 0)
(7.58875 -0.0232612 0)
(7.45883 -0.0206033 0)
(7.34638 -0.0178002 0)
(7.24965 -0.0150493 0)
(7.16671 -0.012486 0)
(7.09576 -0.0102174 0)
(7.03437 -0.00831699 0)
(6.98227 -0.00729197 0)
(-0.358786 0.554105 -5.23632e-20)
(-0.92469 0.197968 5.06446e-20)
(-0.713383 -0.355141 0)
(0.12385 -1.09292 0)
(1.1758 -1.48643 0)
(2.32706 -1.54547 -3.40675e-20)
(3.44132 -1.38765 0)
(4.39263 -1.11882 0)
(5.11108 -0.800933 0)
(5.56787 -0.464235 0)
(5.79554 -0.112411 3.51859e-20)
(5.7474 0.24851 0)
(5.4207 0.597 0)
(4.84527 0.894674 0)
(4.05756 1.09311 0)
(3.11309 1.14279 3.77678e-20)
(2.10188 1.00537 0)
(1.13836 0.663649 0)
(0.399885 0.147504 0)
(-0.0254591 -0.241805 0)
(-0.244464 -0.397235 0)
(-0.215042 -0.553057 0)
(0.120706 -0.772115 0)
(0.643594 -0.892223 4.61776e-20)
(1.16392 -0.77511 -4.31106e-20)
(1.55882 -0.507715 4.18101e-20)
(1.75851 -0.263574 4.13231e-20)
(1.76646 -0.229021 0)
(1.65005 -0.391557 0)
(1.45151 -0.498059 -4.14978e-20)
(1.10283 -0.276688 -4.31742e-20)
(0.471545 0.178803 0)
(-0.419956 0.551299 0)
(-1.45101 0.809464 -3.72991e-20)
(-2.56023 0.980085 0)
(-3.6987 1.07245 0)
(-4.82233 1.09796 3.15702e-20)
(-5.89575 1.06972 0)
(-6.89242 1.00104 3.2018e-20)
(-7.79414 0.904211 6.54128e-20)
(-8.58981 0.789919 0)
(-9.27398 0.666951 0)
(-9.84538 0.542243 0)
(-10.3056 0.421122 0)
(-10.6586 0.30765 0)
(-10.9099 0.205067 7.20689e-20)
(-11.066 0.11645 7.20996e-20)
(-11.1328 0.0445577 7.17434e-20)
(-11.1172 -0.0101836 0)
(-11.05 -0.0516587 -6.92779e-20)
(-10.9312 -0.0860067 0)
(-10.7693 -0.11518 6.51672e-20)
(-10.5687 -0.140471 6.25536e-20)
(-10.3341 -0.162469 0)
(-10.0691 -0.18157 0)
(-9.77717 -0.198093 0)
(-9.46151 -0.212338 4.91077e-20)
(-9.12482 -0.224598 0)
(-8.76949 -0.235159 0)
(-8.39757 -0.244286 0)
(-8.01074 -0.252206 0)
(-7.61046 -0.259088 0)
(-7.198 -0.265035 0)
(-6.77457 -0.270074 0)
(-6.34144 -0.274161 0)
(-5.90006 -0.277188 -8.50974e-21)
(-5.45213 -0.279012 0)
(-4.99967 -0.279476 0)
(-4.545 -0.278439 -6.03846e-21)
(-4.09071 -0.275802 -1.07475e-20)
(-3.63956 -0.271527 0)
(-3.19436 -0.265646 1.97325e-20)
(-2.7579 -0.258259 -2.39384e-20)
(-2.33274 -0.249524 0)
(-1.92117 -0.239648 3.16318e-20)
(-1.52513 -0.228862 0)
(-1.14623 -0.217347 0)
(-0.7855 -0.205131 -4.11002e-20)
(-0.443411 -0.192352 0)
(-0.12059 -0.179621 4.55319e-20)
(0.182816 -0.165831 0)
(0.467893 -0.152278 -4.45683e-20)
(0.733891 -0.139286 -4.34481e-20)
(0.980925 -0.126864 -4.23092e-20)
(1.20958 -0.11503 -8.23467e-20)
(1.42042 -0.10378 8.01133e-20)
(1.61399 -0.0930255 0)
(1.7907 -0.0824683 0)
(1.95066 -0.0716903 0)
(2.09359 -0.0611725 7.19928e-20)
(2.21913 -0.0526764 7.02351e-20)
(2.32808 -0.0427109 -6.86279e-20)
(2.4185 -0.014127 0)
(2.46104 0.04412 6.62099e-20)
(2.42862 0.112266 6.51889e-20)
(2.32898 0.160234 6.44378e-20)
(2.18097 0.169422 0)
(2.01311 0.140893 0)
(1.85237 0.09157 0)
(1.71541 0.0415312 6.18264e-20)
(1.60861 0.00216979 0)
(1.53263 -0.0246176 0)
(1.48598 -0.0403623 -5.92299e-20)
(1.46579 -0.0464529 0)
(1.46806 -0.0452935 0)
(1.48893 -0.0408567 -5.62164e-20)
(1.52414 -0.0364655 0)
(1.56888 -0.0337752 0)
(1.61865 -0.0331627 5.32722e-20)
(1.66995 -0.0342479 5.23242e-20)
(1.72056 -0.036164 0)
(1.76948 -0.0379404 -5.04303e-20)
(1.81668 -0.0388089 0)
(1.86298 -0.0386012 4.85009e-20)
(1.91026 -0.0378588 0)
(1.96102 -0.0375494 4.65498e-20)
(2.0167 -0.0385635 4.56076e-20)
(2.07626 -0.0412725 0)
(2.13821 -0.04483 0)
(2.20442 -0.0461391 0)
(2.27883 -0.0405136 0)
(2.35943 -0.0268007 0)
(2.43743 -0.0138139 0)
(2.51663 -0.0166011 0)
(2.62985 -0.0402268 3.96629e-20)
(2.81605 -0.067361 -3.90579e-20)
(3.06884 -0.0660203 0)
(3.31404 -0.022343 0)
(3.4592 0.0297657 0)
(3.48476 0.0382027 0)
(3.45274 0.00150338 -7.12644e-20)
(3.36732 -0.0340481 0)
(3.13051 -0.00719895 6.51132e-20)
(2.59957 0.11775 -5.64164e-20)
(1.70753 0.302552 0)
(0.501818 0.437947 0)
(-0.834339 0.491681 0)
(-2.13292 0.480055 -4.51652e-20)
(-3.32562 0.432372 -7.33609e-20)
(-4.36601 0.366512 0)
(-5.23258 0.293111 -1.18e-19)
(-5.91627 0.218416 -1.33451e-19)
(-6.41432 0.146354 1.43974e-19)
(-6.7266 0.0799425 0)
(-6.85749 0.022755 0)
(-6.82717 -0.025104 1.43464e-19)
(-6.6615 -0.0674294 0)
(-6.36414 -0.107171 0)
(-5.9408 -0.144493 0)
(-5.39813 -0.178918 0)
(-4.74528 -0.209624 -4.22931e-20)
(-3.99497 -0.235361 -1.15525e-20)
(-3.16426 -0.254509 0)
(-2.27515 -0.266184 5.30827e-20)
(-1.35513 -0.270616 0)
(-0.429807 -0.262086 0)
(0.472955 -0.246425 1.26587e-19)
(1.32578 -0.224342 0)
(2.10815 -0.197446 1.35066e-19)
(2.80752 -0.165244 0)
(3.41572 -0.130261 0)
(3.93059 -0.109167 1.27439e-19)
(4.37775 -0.125168 0)
(4.82782 -0.146815 1.18444e-19)
(5.27677 -0.0608476 0)
(5.42444 0.148617 0)
(5.13682 0.326918 0)
(4.5676 0.348038 -1.09077e-19)
(3.93732 0.232725 0)
(3.41748 0.067261 1.01544e-19)
(3.07979 -0.0962915 0)
(2.90701 -0.226415 0)
(2.85078 -0.288065 0)
(2.90688 -0.291963 0)
(3.18345 -0.284909 0)
(3.80217 -0.252795 0)
(4.52489 -0.155157 0)
(4.64239 0.0156176 -2.32762e-19)
(3.55476 0.278614 0)
(1.44799 0.461973 0)
(-0.193531 1.29551 1.59719e-19)
(0.280661 0.609884 -1.51142e-19)
(1.45035 -1.48939 0)
(2.64038 -3.07798 6.88035e-20)
(3.66825 -3.70406 0)
(4.50298 -3.59805 2.48143e-20)
(5.15731 -3.09602 -6.6398e-20)
(5.65027 -2.43651 -7.00032e-20)
(5.99905 -1.74174 0)
(6.22916 -1.05794 -7.72182e-20)
(6.33575 -0.392319 -3.32746e-20)
(6.36685 0.269067 0)
(6.31672 0.927527 0)
(6.14477 1.55922 0)
(5.81025 2.11177 0)
(5.2856 2.50312 -2.85439e-20)
(4.57684 2.63667 0)
(3.73658 2.43597 6.64348e-20)
(2.88703 1.90967 0)
(2.18349 1.2227 0)
(1.68991 0.540661 -8.35086e-20)
(1.38112 -0.141563 0)
(1.48692 -0.961094 8.00779e-20)
(1.62632 -1.39122 -3.92026e-20)
(1.60278 -1.17396 4.05653e-20)
(1.37645 -0.704684 -4.29729e-20)
(0.946545 -0.132283 -4.53435e-20)
(0.189198 0.444473 0)
(-0.927053 1.01472 0)
(-2.19911 1.56553 3.2918e-20)
(-3.51321 2.05723 -3.10833e-20)
(-4.80334 2.43837 0)
(-6.02231 2.66989 0)
(-7.13382 2.76059 2.11231e-20)
(-8.1189 2.73019 0)
(-8.96389 2.60353 0)
(-9.66468 2.40716 -2.16825e-20)
(-10.2262 2.16632 0)
(-10.66 1.90267 3.12656e-20)
(-10.9821 1.63308 -5.27566e-20)
(-11.2101 1.36947 0)
(-11.3615 1.11927 0)
(-11.4525 0.886383 -1.35552e-19)
(-11.4968 0.672175 -1.40024e-19)
(-11.5055 0.476539 -1.43452e-19)
(-11.4869 0.299099 7.63059e-20)
(-11.4464 0.140087 -7.0266e-20)
(-11.3877 0.000246626 -2.16006e-19)
(-11.3119 -0.120791 1.43158e-19)
(-11.1948 -0.225101 6.78636e-20)
(-11.0419 -0.316545 0)
(-10.8523 -0.39684 -6.37126e-20)
(-10.6285 -0.467291 6.40594e-20)
(-10.3735 -0.528773 0)
(-10.0904 -0.582056 0)
(-9.78239 -0.627904 0)
(-9.45232 -0.667121 -4.77405e-20)
(-9.10281 -0.700545 0)
(-8.73608 -0.72901 8.15407e-20)
(-8.35401 -0.753301 0)
(-7.95812 -0.774092 6.42669e-20)
(-7.54963 -0.791891 0)
(-7.12961 -0.807 -4.61407e-20)
(-6.69908 -0.819491 0)
(-6.25914 -0.829214 2.7436e-20)
(-5.81111 -0.835834 -9.78864e-21)
(-5.35662 -0.838898 0)
(-4.89768 -0.837917 9.11868e-22)
(-4.43666 -0.832459 5.78665e-21)
(-3.97624 -0.822227 1.02905e-20)
(-3.5193 -0.807118 0)
(-3.06876 -0.787252 1.77554e-20)
(-2.6275 -0.762972 2.2888e-20)
(-2.19813 -0.734818 0)
(-1.78295 -0.70348 -3.02487e-20)
(-1.38386 -0.66974 6.62465e-20)
(-1.00236 -0.6344 0)
(-0.639459 -0.598172 3.93804e-20)
(-0.295489 -0.561742 0)
(0.0295655 -0.525747 -1.28607e-19)
(0.335195 -0.489295 0)
(0.622062 -0.453608 1.25109e-19)
(0.890243 -0.419152 4.10027e-20)
(1.14035 -0.386038 -3.96069e-20)
(1.37309 -0.354326 -7.74003e-20)
(1.58915 -0.324001 7.55743e-20)
(1.78917 -0.294958 0)
(1.97369 -0.266989 0)
(2.14333 -0.23971 0)
(2.29871 -0.212598 -2.06856e-19)
(2.44003 -0.185258 -6.75022e-20)
(2.56572 -0.156141 6.60129e-20)
(2.67582 -0.119026 0)
(2.79247 -0.0670229 6.28205e-20)
(2.93248 -0.00216433 -6.16848e-20)
(3.07519 0.0666991 -6.0026e-20)
(3.19619 0.126722 0)
(3.2812 0.166563 0)
(3.32445 0.182473 0)
(3.32808 0.177807 -5.40354e-20)
(3.29992 0.15862 0)
(3.25023 0.130438 1.04773e-19)
(3.18887 0.0971398 1.55014e-19)
(3.12442 0.0609603 -1.02221e-19)
(3.0653 0.0238705 0)
(3.01787 -0.00991523 -4.99445e-20)
(2.9848 -0.0359612 0)
(2.96549 -0.0520735 -9.71572e-20)
(2.9566 -0.0586042 4.79386e-20)
(2.95384 -0.0579024 4.72975e-20)
(2.95313 -0.0530774 0)
(2.95125 -0.0473391 1.38059e-19)
(2.94605 -0.0431475 -9.07234e-20)
(2.93722 -0.0422743 -4.46815e-20)
(2.9278 -0.0456494 0)
(2.92453 -0.0522345 -4.3232e-20)
(2.93398 -0.0582843 -1.27411e-19)
(2.95579 -0.0601103 0)
(2.98116 -0.0598228 -8.20939e-20)
(3.00266 -0.0652355 -8.07157e-20)
(3.02601 -0.0795101 -7.93411e-20)
(3.06766 -0.0946943 0)
(3.14175 -0.104991 0)
(3.25888 -0.125099 0)
(3.4362 -0.17829 3.68949e-20)
(3.68686 -0.254726 3.6279e-20)
(3.99151 -0.297446 0)
(4.29703 -0.254431 6.94224e-20)
(4.54099 -0.142138 6.82081e-20)
(4.65502 -0.0289938 0)
(4.5193 0.0808213 6.67613e-20)
(3.97972 0.276798 1.31676e-19)
(2.89552 0.621398 -6.39445e-20)
(1.31528 1.02785 -5.22333e-20)
(-0.410127 1.30143 0)
(-1.98579 1.37152 0)
(-3.30843 1.31231 0)
(-4.36364 1.17235 3.8375e-20)
(-5.18339 0.999848 -7.81906e-20)
(-5.8067 0.82066 -1.90121e-19)
(-6.27049 0.645855 1.10052e-19)
(-6.6041 0.478853 -1.37461e-19)
(-6.82801 0.320104 -1.39574e-19)
(-6.95618 0.169904 0)
(-6.99316 0.03049 0)
(-6.92418 -0.0982644 1.47898e-19)
(-6.72638 -0.218582 0)
(-6.40142 -0.332285 0)
(-5.95251 -0.438772 -1.90638e-19)
(-5.38537 -0.536534 0)
(-4.70838 -0.623487 -4.65548e-20)
(-3.9334 -0.69683 1.10125e-20)
(-3.07703 -0.752893 0)
(-2.16125 -0.787925 4.53575e-20)
(-1.21158 -0.799434 0)
(-0.254305 -0.783442 0)
(0.677544 -0.742137 -1.18083e-19)
(1.55823 -0.683037 2.47413e-19)
(2.3658 -0.613648 -1.27549e-19)
(3.08946 -0.540879 0)
(3.73293 -0.468999 0)
(4.31016 -0.401741 1.20379e-19)
(4.81633 -0.350065 0)
(5.21228 -0.317222 1.12753e-19)
(5.5467 -0.258509 0)
(6.06045 -0.122085 0)
(6.71959 0.069759 0)
(7.28796 0.234387 9.55427e-20)
(7.69002 0.311159 0)
(7.98169 0.309921 -8.27721e-20)
(8.20246 0.285724 0)
(8.25718 0.282222 0)
(7.9806 0.277829 1.56703e-19)
(7.3969 0.172663 -1.61466e-19)
(6.79943 -0.115151 0)
(6.53742 -0.397167 0)
(6.61994 -0.256243 0)
(6.00171 0.43378 6.39441e-19)
(3.55589 1.26609 0)
(0.497919 1.56835 -1.37296e-19)
(0.0884327 0.803214 1.74731e-21)
(1.42055 -2.30004 1.57917e-19)
(2.781 -4.7559 0)
(3.75151 -5.59219 -1.22779e-19)
(4.278 -5.30003 0)
(4.51936 -4.49614 0)
(4.63763 -3.55904 -1.40757e-20)
(4.71581 -2.64991 7.44182e-20)
(4.77774 -1.80912 9.42156e-20)
(4.82583 -1.02832 8.66177e-20)
(4.84998 -0.287809 0)
(4.8528 0.429911 0)
(4.84018 1.14697 -9.75762e-20)
(4.81121 1.88074 -1.83066e-19)
(4.7466 2.61117 1.69449e-19)
(4.60064 3.25327 0)
(4.32312 3.66243 1.42803e-19)
(3.89006 3.68809 -6.19813e-20)
(3.3331 3.24146 0)
(2.72839 2.37928 1.31592e-19)
(2.14766 1.41897 7.52655e-20)
(1.92128 0.356933 -1.48857e-19)
(1.77626 -0.773586 -8.11829e-20)
(1.10828 -0.968425 0)
(0.0382091 0.167162 1.71754e-19)
(-1.23944 1.23545 1.5142e-19)
(-2.54002 2.103 0)
(-3.86412 2.83986 1.12875e-19)
(-5.15192 3.42451 0)
(-6.33861 3.84235 9.67261e-20)
(-7.37453 4.09639 4.16895e-20)
(-8.22885 4.19408 0)
(-8.89978 4.14243 0)
(-9.40517 3.95964 0)
(-9.77377 3.6761 0)
(-10.039 3.32604 0)
(-10.2342 2.94184 0)
(-10.3885 2.55045 1.20039e-19)
(-10.5237 2.17141 -1.81803e-19)
(-10.6531 1.81669 0)
(-10.7815 1.49177 0)
(-10.9071 1.19738 0)
(-11.0239 0.931356 -1.02419e-20)
(-11.1234 0.690122 1.4129e-19)
(-11.1971 0.469705 2.97503e-19)
(-11.2368 0.266517 -3.01085e-19)
(-11.2367 0.0774031 -1.54949e-19)
(-11.1939 -0.100308 1.45702e-19)
(-11.1075 -0.267768 6.53548e-21)
(-10.9796 -0.42342 1.45258e-19)
(-10.8135 -0.564907 0)
(-10.6119 -0.691857 1.35007e-19)
(-10.378 -0.804319 4.68307e-21)
(-10.1148 -0.902822 0)
(-9.82551 -0.988186 0)
(-9.51333 -1.06149 -1.07883e-19)
(-9.18109 -1.124 0)
(-8.83127 -1.17711 0)
(-8.46594 -1.22226 8.66523e-20)
(-8.08669 -1.26081 1.49945e-19)
(-7.69472 -1.29391 -6.33177e-20)
(-7.29085 -1.32245 0)
(-6.87572 -1.34692 4.53504e-20)
(-6.44994 -1.36739 0)
(-6.01426 -1.38353 3.19404e-20)
(-5.56976 -1.39467 1.75981e-20)
(-5.11796 -1.39993 -2.12282e-20)
(-4.66092 -1.39836 -3.43882e-21)
(-4.20118 -1.38914 0)
(-3.74171 -1.3717 -3.38995e-20)
(-3.28573 -1.34585 0)
(-2.83652 -1.3118 -1.03897e-19)
(-2.39724 -1.27018 -8.42234e-20)
(-1.9707 -1.22194 -9.93614e-20)
(-1.55934 -1.16827 1.13536e-19)
(-1.16508 -1.11054 -1.91252e-19)
(-0.789371 -1.05019 0)
(-0.433134 -0.988571 0)
(-0.0963701 -0.926808 1.58016e-19)
(0.220543 -0.865691 2.41257e-19)
(0.517651 -0.805462 0)
(0.795379 -0.747078 -7.89676e-20)
(1.05425 -0.69095 0)
(1.29506 -0.637277 2.2713e-19)
(1.51871 -0.58612 1.17093e-21)
(1.72614 -0.537401 -1.05873e-21)
(1.91829 -0.490902 -1.41849e-19)
(2.09605 -0.446305 0)
(2.2602 -0.403251 1.35755e-19)
(2.41144 -0.361277 7.02271e-22)
(2.55027 -0.319296 0)
(2.67723 -0.275898 0)
(2.7931 -0.231658 0)
(2.90022 -0.186852 -1.22919e-19)
(3.00487 -0.137595 0)
(3.11753 -0.0821908 0)
(3.24378 -0.0257725 0)
(3.37621 0.0226947 0)
(3.50242 0.0577862 0)
(3.61226 0.0792388 -1.05243e-19)
(3.70054 0.0893312 0)
(3.76604 0.0900244 -1.00136e-19)
(3.81011 0.0824243 -9.81479e-20)
(3.83562 0.0678531 9.64592e-20)
(3.84585 0.0486137 0)
(3.84345 0.0275425 9.37882e-20)
(3.8304 0.00761277 0)
(3.80847 -0.00870973 9.14878e-20)
(3.77962 -0.0200999 -9.045e-20)
(3.74548 -0.0265745 -2.68467e-19)
(3.70698 -0.0289252 0)
(3.66481 -0.0276396 -2.62535e-19)
(3.61913 -0.0237589 -8.64976e-20)
(3.56912 -0.020666 0)
(3.51498 -0.0243482 -1.68697e-19)
(3.46189 -0.0389838 -1.66386e-19)
(3.42006 -0.060245 2.45748e-19)
(3.39755 -0.0761321 0)
(3.39204 -0.0798791 7.95094e-20)
(3.3934 -0.0804904 7.82888e-20)
(3.39728 -0.0928727 2.30587e-19)
(3.41557 -0.121044 0)
(3.4757 -0.165065 0)
(3.61299 -0.239933 0)
(3.85231 -0.358418 7.01549e-20)
(4.17648 -0.484426 0)
(4.51609 -0.53395 0)
(4.7822 -0.446102 -6.71119e-20)
(4.89007 -0.233576 -6.73198e-20)
(4.70937 0.0783468 0)
(4.04692 0.52199 0)
(2.79111 1.12248 -1.32203e-19)
(1.08891 1.75768 0)
(-0.594315 2.16699 9.76821e-20)
(-1.9603 2.2755 3.86624e-20)
(-3.01054 2.1663 0)
(-3.82477 1.94081 0)
(-4.49106 1.66811 1.08107e-19)
(-5.07271 1.3929 -1.83336e-20)
(-5.59522 1.13291 -1.63349e-20)
(-6.05697 0.890532 0)
(-6.44263 0.662156 5.3671e-19)
(-6.7332 0.443275 0)
(-6.91186 0.230677 0)
(-6.96775 0.0227664 0)
(-6.89578 -0.180933 -2.84826e-19)
(-6.69572 -0.377952 0)
(-6.36914 -0.565733 4.73895e-19)
(-5.91908 -0.742105 1.85125e-19)
(-5.35057 -0.904276 0)
(-4.67103 -1.04857 8.36881e-20)
(-3.89108 -1.17024 0)
(-3.02583 -1.26358 0)
(-2.09596 -1.32227 -2.57762e-19)
(-1.12717 -1.34045 2.8142e-19)
(-0.147026 -1.31547 0)
(0.808704 -1.247 4.30648e-19)
(1.71071 -1.14779 -2.34077e-19)
(2.53648 -1.02926 0)
(3.27329 -0.90424 0)
(3.91882 -0.78536 0)
(4.48149 -0.681291 -6.96122e-19)
(4.97803 -0.594225 0)
(5.42104 -0.52391 -2.19754e-19)
(5.81132 -0.464653 0)
(6.17481 -0.385835 0)
(6.59748 -0.264088 0)
(7.15376 -0.13145 0)
(7.76583 -0.0599271 0)
(8.32537 -0.0773277 0)
(8.82483 -0.111923 -3.07118e-19)
(9.2741 -0.0402791 0)
(9.53183 0.152555 -1.45177e-19)
(9.46197 0.310049 4.40893e-19)
(9.08841 0.193581 0)
(8.46747 -0.0908888 0)
(7.57935 0.159531 -4.08375e-19)
(5.87669 1.2972 -3.93047e-19)
(3.15757 2.46764 2.83362e-19)
(0.70657 2.68258 1.26728e-19)
(0.662571 -1.83901 -2.91264e-19)
(1.95139 -5.71 -2.11811e-19)
(2.82644 -6.79294 -1.43201e-19)
(3.16465 -6.25337 -8.85725e-20)
(3.1775 -5.24238 0)
(3.12076 -4.24788 1.91144e-19)
(3.10242 -3.3673 -1.15019e-19)
(3.12344 -2.56616 0)
(3.15449 -1.79928 -1.1011e-19)
(3.17403 -1.0435 0)
(3.16911 -0.297682 2.677e-19)
(3.14624 0.4421 0)
(3.10195 1.1875 1.15454e-19)
(3.04256 1.95749 2.15261e-19)
(2.97887 2.75553 -1.97198e-19)
(2.89491 3.52131 0)
(2.74563 4.10329 -1.60244e-19)
(2.48702 4.30812 0)
(2.11356 4.02918 0)
(1.6594 3.33933 -1.4003e-19)
(1.34897 2.01112 0)
(1.15448 0.288487 2.66061e-21)
(0.0401091 0.555435 0)
(-1.58516 1.77677 0)
(-3.10732 2.86513 1.30903e-21)
(-4.51476 3.74829 -9.86659e-20)
(-5.75325 4.42524 -9.62125e-20)
(-6.80635 4.89979 -8.53078e-20)
(-7.65726 5.16612 0)
(-8.31023 5.24224 -1.77002e-19)
(-8.78287 5.16048 0)
(-9.10556 4.95424 -1.01861e-19)
(-9.31809 4.65518 0)
(-9.46314 4.296 0)
(-9.57995 3.90771 1.18287e-19)
(-9.6982 3.51461 0)
(-9.83499 3.13201 -1.3029e-19)
(-9.99505 2.76672 1.5226e-20)
(-10.1734 2.41927 2.6856e-19)
(-10.3594 2.08691 -2.93683e-19)
(-10.5401 1.76614 0)
(-10.7033 1.45433 0)
(-10.8389 1.15035 -1.72265e-19)
(-10.9397 0.854619 0)
(-11.0011 0.568708 -1.53836e-19)
(-11.0203 0.294726 1.5591e-19)
(-10.9968 0.034682 1.56456e-19)
(-10.9308 -0.209802 0)
(-10.8239 -0.437032 -1.50253e-19)
(-10.6781 -0.646363 -1.45998e-19)
(-10.4957 -0.836768 2.96944e-19)
(-10.2798 -1.00765 -1.35468e-19)
(-10.0336 -1.15891 -1.29308e-19)
(-9.76081 -1.29102 0)
(-9.46486 -1.40499 0)
(-9.1491 -1.50231 1.07964e-19)
(-8.81646 -1.58483 0)
(-8.46936 -1.65465 0)
(-8.10958 -1.71393 -1.66911e-19)
(-7.7383 -1.76475 -1.49576e-19)
(-7.35609 -1.80887 0)
(-6.96306 -1.84757 0)
(-6.55904 -1.88155 0)
(-6.14386 -1.91079 0)
(-5.71758 -1.93465 -5.83351e-20)
(-5.28077 -1.95189 4.61442e-20)
(-4.83471 -1.96095 2.09979e-20)
(-4.38148 -1.96022 1.08685e-20)
(-3.92389 -1.94826 0)
(-3.4654 -1.92414 5.04055e-21)
(-3.00983 -1.88752 0)
(-2.5611 -1.83879 6.73096e-20)
(-2.12292 -1.77895 3.94826e-21)
(-1.69859 -1.70955 9.81164e-20)
(-1.29087 -1.6325 -1.1216e-19)
(-0.901849 -1.54995 3.23155e-21)
(-0.53294 -1.46404 0)
(-0.184681 -1.3765 -1.44746e-19)
(0.142969 -1.28871 -1.52445e-19)
(0.45008 -1.20174 -3.01883e-19)
(0.737126 -1.11667 0)
(1.00466 -1.03442 1.47572e-19)
(1.25342 -0.955572 0)
(1.48419 -0.880523 -2.88954e-19)
(1.6978 -0.809451 1.42815e-19)
(1.89518 -0.742331 -1.40197e-19)
(2.07734 -0.678932 1.37509e-19)
(2.24539 -0.618836 2.67359e-19)
(2.40049 -0.56147 -1.32103e-19)
(2.54373 -0.50615 1.29454e-19)
(2.67621 -0.452056 0)
(2.79929 -0.398171 -2.47221e-19)
(2.91461 -0.343434 0)
(3.02368 -0.286914 -2.37929e-19)
(3.12834 -0.228908 2.33426e-19)
(3.23093 -0.172773 2.28908e-19)
(3.33335 -0.122451 -2.24275e-19)
(3.43618 -0.0800796 -2.19479e-19)
(3.53864 -0.0459219 0)
(3.63852 -0.0191321 -1.04292e-19)