/*--------------------------------*- C++ -*----------------------------------*\
| =========                 |                                                 |
| \\      /  F ield         | OpenFOAM: The Open Source CFD Toolbox           |
|  \\    /   O peration     | Version:  2112                                  |
|   \\  /    A nd           | Website:  www.openfoam.com                      |
|    \\/     M anipulation  |                                                 |
\*---------------------------------------------------------------------------*/
FoamFile
{
    version     2.0;
    format      ascii;
    arch        "LSB;label=32;scalar=64";
    class       volScalarField;
    location    "0.05";
    object      k;
}
// * * * * * * * * * * * * * * * * * * * * * * * * * * * * * * * * * * * * * //

dimensions      [0 2 -2 0 0 0 0];

internalField   nonuniform List<scalar> 
12225
(
2.20135
6.36016
9.9558
11.1929
11.0435
10.5325
9.66593
8.83073
8.08717
7.4373
6.89149
6.41478
6.03466
5.68126
5.42838
5.16612
4.98495
4.85255
1.26416
1.39642
1.69697
2.05085
2.24639
2.34197
2.33511
2.30833
2.26163
2.2069
2.16805
2.13276
2.11272
2.09725
2.09361
2.09578
2.09856
2.11572
1.25121
1.25611
1.26635
1.27709
1.2916
1.29257
1.28913
1.27912
1.26797
1.24933
1.2351
1.21842
1.2055
1.19487
1.18504
1.18072
1.17366
1.1743
1.25128
1.25257
1.25563
1.2558
1.25541
1.25376
1.25021
1.24412
1.23904
1.22866
1.22241
1.21134
1.20366
1.19277
1.18513
1.1755
1.16806
1.159
1.25113
1.25244
1.25448
1.25578
1.25643
1.25614
1.25533
1.25331
1.25166
1.24791
1.24584
1.24119
1.2385
1.23347
1.23063
1.22574
1.22268
1.21732
1.25083
1.25214
1.25385
1.25549
1.25675
1.25762
1.25773
1.25745
1.257
1.25563
1.25483
1.2531
1.25201
1.24999
1.24885
1.24678
1.24555
1.24339
1.25063
1.2517
1.2531
1.25465
1.25622
1.25754
1.2585
1.25899
1.25899
1.25877
1.25843
1.25769
1.25717
1.25626
1.25569
1.25475
1.25416
1.25317
1.25049
1.25133
1.25247
1.25377
1.25523
1.25662
1.25796
1.259
1.25971
1.26005
1.26003
1.25988
1.25965
1.25921
1.25888
1.25841
1.25809
1.25757
1.25036
1.251
1.25193
1.25302
1.25427
1.25552
1.25682
1.25801
1.25911
1.25995
1.26053
1.26083
1.26083
1.26075
1.26059
1.26034
1.26014
1.25984
1.25024
1.25071
1.25144
1.25235
1.25341
1.2545
1.25564
1.25674
1.25784
1.25884
1.25975
1.26047
1.26096
1.26128
1.26132
1.26129
1.26121
1.26103
1.25014
1.25045
1.251
1.25175
1.25264
1.25358
1.25457
1.25552
1.2565
1.25741
1.25832
1.25915
1.25991
1.26052
1.26096
1.26125
1.26131
1.26126
1.25005
1.25024
1.25064
1.25125
1.252
1.25282
1.25367
1.25452
1.25536
1.25616
1.25696
1.25771
1.25844
1.2591
1.2597
1.26015
1.2605
1.26062
1.24997
1.25006
1.2503
1.25077
1.2514
1.25211
1.25285
1.25361
1.25434
1.25505
1.25572
1.25638
1.25698
1.25757
1.2581
1.2586
1.25897
1.25929
1.24981
1.24983
1.24997
1.25028
1.25078
1.25138
1.252
1.25266
1.25329
1.25391
1.25448
1.25504
1.25553
1.25602
1.25642
1.25685
1.25715
1.25746
1.24975
1.2495
1.24957
1.24976
1.25014
1.25062
1.25113
1.25168
1.25222
1.25275
1.25324
1.25372
1.25412
1.25452
1.25484
1.25517
1.25538
1.25561
1.24973
1.2492
1.24921
1.24931
1.24954
1.2499
1.25032
1.25076
1.25121
1.25165
1.25207
1.25246
1.25281
1.25314
1.2534
1.25365
1.25381
1.25396
1.24967
1.24908
1.24887
1.24893
1.24907
1.24934
1.24966
1.25001
1.25038
1.25074
1.25109
1.25142
1.25171
1.25198
1.2522
1.2524
1.25252
1.25262
1.24963
1.24904
1.24869
1.24872
1.24881
1.249
1.24926
1.24955
1.24986
1.25016
1.25046
1.25074
1.251
1.25122
1.25142
1.25156
1.25169
1.25176
1.24964
1.24909
1.24872
1.24874
1.24882
1.249
1.24924
1.24952
1.24981
1.2501
1.25039
1.25066
1.25091
1.25113
1.25134
1.25151
1.2517
1.25184
1.24972
1.24922
1.24901
1.24906
1.24918
1.24942
1.24971
1.25004
1.25038
1.25072
1.25106
1.25138
1.2517
1.25198
1.25228
1.25254
1.25283
1.25307
1.24981
1.24944
1.24946
1.24955
1.24977
1.2501
1.25048
1.25089
1.25132
1.25174
1.25217
1.25258
1.25299
1.25337
1.25377
1.25414
1.25454
1.2549
1.24988
1.24988
1.24996
1.25015
1.25052
1.25097
1.25147
1.252
1.25254
1.25308
1.25363
1.25416
1.25468
1.25518
1.25568
1.25615
1.25662
1.25703
1.25006
1.25019
1.25044
1.25083
1.25135
1.25196
1.25262
1.2533
1.25398
1.25466
1.25532
1.25595
1.25652
1.25705
1.25752
1.25793
1.25828
1.25859
1.25019
1.25052
1.25096
1.25155
1.25228
1.25308
1.2539
1.25471
1.25546
1.25615
1.25672
1.25721
1.25759
1.25788
1.25808
1.25822
1.2583
1.25833
1.25033
1.25091
1.25159
1.25244
1.25332
1.25421
1.25498
1.25567
1.25617
1.25654
1.25674
1.25682
1.25677
1.25667
1.25637
1.25608
1.25567
1.25527
1.25049
1.25139
1.25226
1.25316
1.25398
1.25467
1.25513
1.25533
1.25519
1.2549
1.25415
1.2535
1.25234
1.25143
1.25014
1.24901
1.2476
1.24641
1.25063
1.25184
1.25272
1.25375
1.2544
1.25437
1.25386
1.25322
1.25113
1.24964
1.24662
1.24426
1.24041
1.23747
1.23342
1.22996
1.22599
1.22219
1.25076
1.25325
1.25608
1.26096
1.26636
1.27211
1.27629
1.27737
1.27603
1.274
1.26742
1.26197
1.25401
1.24633
1.23847
1.2304
1.2238
1.21627
1.25593
1.30638
1.42317
1.62692
1.85133
2.02129
2.13643
2.20214
2.23133
2.22854
2.21871
2.19778
2.1758
2.15041
2.13178
2.11072
2.09969
2.08488
1.87364
4.33678
7.41924
9.57596
10.7366
10.9263
10.7871
10.438
9.921
9.39186
8.88424
8.41465
7.98584
7.60099
7.25334
6.94536
6.66633
6.42025
0.000351427
0.00222443
0.00511825
0.0100517
0.0179141
0.0323579
0.0555596
0.088874
0.126024
0.163656
0.209604
0.254629
0.30322
0.350912
0.403395
0.452498
0.504623
0.554307
0.605671
0.655051
0.705539
0.75132
0.797873
0.841425
0.879137
0.914472
0.940431
0.966193
0.988128
1.00629
1.0179
1.02188
1.01781
1.00601
0.984781
0.950449
0.903201
0.84246
0.767519
0.67791
0.575278
0.458876
0.334417
0.196256
0.077771
0.0442456
0.0481343
0.0570774
0.0630949
0.0689312
0.0783271
0.0940654
0.119964
0.157435
0.197062
0.213939
0.239021
0.324455
0.484958
0.489021
0.48056
0.51267
0.976235
1.75252
2.46207
3.08611
3.63219
4.10889
4.52618
4.89178
5.21306
5.49559
5.74398
5.962
6.15235
6.31752
6.45915
6.57866
6.67731
6.75523
6.81228
6.84786
6.8689
6.87502
6.85824
6.82792
6.77757
6.71163
6.62948
6.53029
6.42185
6.30039
6.16783
6.02379
5.86846
5.70196
5.52487
5.33724
5.13985
4.93313
4.71763
4.49797
4.27734
4.0568
3.84111
3.63063
3.43175
3.24206
3.05359
2.86932
2.68035
2.50151
2.31906
2.13723
1.95829
1.79175
1.63548
1.52815
1.51372
1.57055
1.64729
1.7266
1.80523
1.88461
1.96568
2.05227
2.14444
2.23977
2.33834
2.43781
2.5359
2.63036
2.72134
2.80773
2.88616
2.95473
3.0096
3.05327
3.08622
3.09357
3.08944
3.07498
3.04081
2.99043
2.92661
2.85086
2.7648
2.66993
2.56773
2.4592
2.34446
2.22308
2.0944
1.95904
1.82121
1.68825
1.56734
1.46345
1.37857
1.31171
1.25978
1.21871
1.18458
1.15465
1.12834
1.10551
1.0867
1.07385
1.06888
1.06869
1.07044
1.07522
1.08674
1.09532
1.1072
1.10673
1.10579
1.08675
1.07149
1.00239
0.00108252
0.00346052
0.0108138
0.0256273
0.0550393
0.116169
0.207443
0.32384
0.456269
0.5954
0.735024
0.875851
1.01529
1.15238
1.28558
1.41528
1.54202
1.66674
1.78823
1.89625
1.98932
2.06642
2.11431
2.14385
2.14006
2.12574
2.09117
2.04419
1.98174
1.91036
1.8183
1.71828
1.5961
1.47066
1.34686
1.2239
1.10622
0.991082
0.882005
0.772272
0.667078
0.556669
0.451835
0.340012
0.247363
0.183966
0.157374
0.139463
0.131724
0.134717
0.145086
0.167362
0.221843
0.275171
0.364612
0.539151
0.578101
0.687326
1.28702
1.58565
1.48563
1.43708
1.71642
1.94028
2.10773
2.22325
2.2927
2.33642
2.3716
2.39021
2.41865
2.4374
2.46535
2.49418
2.52514
2.56452
2.60312
2.64957
2.69875
2.75127
2.81101
2.87276
2.94282
3.01773
3.0976
3.18606
3.28184
3.3873
3.49723
3.61312
3.73024
3.84983
3.96815
4.08846
4.20976
4.32801
4.44869
4.56516
4.67997
4.79177
4.89792
4.996
5.08039
5.15521
5.21094
5.24957
5.26988
5.2799
5.28539
5.28813
5.27485
5.23951
5.18629
5.10449
5.01365
4.91161
4.8044
4.69502
4.58675
4.4792
4.37415
4.27262
4.16202
4.04505
3.92614
3.81378
3.70633
3.59652
3.48715
3.38194
3.27202
3.16662
3.06497
2.9622
2.86556
2.77048
2.68002
2.59744
2.51668
2.43455
2.35049
2.26065
2.16406
2.06418
1.96029
1.85284
1.74853
1.64808
1.54917
1.45858
1.37748
1.29922
1.22748
1.16546
1.10387
1.04312
0.992528
0.950871
0.914096
0.885529
0.86559
0.851055
0.841899
0.836875
0.832468
0.826793
0.818434
0.812031
0.810331
0.810548
0.812346
0.817717
0.829066
0.864982
0.90835
0.964078
0.994372
1.03379
1.03564
1.00627
0.00199816
0.00932932
0.0288063
0.0729274
0.168043
0.351736
0.574777
0.802796
1.02978
1.24937
1.46215
1.67591
1.90395
2.12876
2.34108
2.53625
2.698
2.82415
2.92108
2.98859
3.03039
3.05726
3.05552
3.04707
3.0283
2.99689
2.97032
2.9366
2.90462
2.86414
2.8335
2.78213
2.73996
2.6555
2.55508
2.39105
2.21298
1.97067
1.73153
1.4533
1.1982
0.952227
0.76225
0.604401
0.474482
0.369
0.304729
0.261851
0.234877
0.239737
0.2624
0.320542
0.449453
0.729391
0.868462
1.57273
1.9831
1.7654
1.52672
1.46485
1.46251
1.62765
1.81727
1.98427
2.09787
2.22045
2.33237
2.46852
2.62909
2.809
3.01205
3.22766
3.41879
3.61615
3.79324
3.96471
4.13104
4.28077
4.43295
4.56856
4.70378
4.83012
4.94919
5.06587
5.17252
5.27647
5.37314
5.46323
5.55267
5.63696
5.7185
5.79817
5.87394
5.94823
6.01983
6.08537
6.14768
6.20317
6.25271
6.29152
6.32075
6.33642
6.34284
6.34204
6.31367
6.25476
6.17893
6.08517
5.9638
5.83803
5.72371
5.58391
5.43998
5.30871
5.174
5.03374
4.89573
4.76396
4.6389
4.52298
4.40953
4.30228
4.20335
4.10799
4.01724
3.93905
3.85355
3.76045
3.6618
3.5626
3.46187
3.35877
3.25777
3.15707
3.05811
2.96251
2.86778
2.77907
2.69476
2.61183
2.53294
2.45508
2.37605
2.29758
2.21886
2.13658
2.05284
1.96948
1.88298
1.79564
1.71027
1.62512
1.54059
1.45786
1.37721
1.29836
1.22267
1.15287
1.08782
1.0304
0.983093
0.942772
0.906137
0.874554
0.850531
0.832289
0.814735
0.797328
0.784783
0.780255
0.780013
0.78182
0.78862
0.81427
0.859655
0.940997
1.00462
1.08636
1.14347
1.14314
0.00685458
0.0277883
0.0793803
0.201954
0.477283
0.842388
1.18463
1.49467
1.776
2.06956
2.34419
2.58562
2.76552
2.90184
2.99912
3.06462
3.11129
3.13951
3.14301
3.13385
3.10868
3.0657
3.01939
2.96857
2.92662
2.88762
2.86813
2.85166
2.84512
2.83734
2.83909
2.84376
2.85807
2.86161
2.85721
2.83901
2.79469
2.69747
2.56126
2.36265
2.13673
1.86706
1.57306
1.29225
1.06706
0.856106
0.717959
0.620899
0.600854
0.621874
0.688784
0.876835
1.2941
2.04236
2.2784
1.97988
1.69245
1.45248
1.38539
1.4516
1.55869
1.79196
1.96252
2.14744
2.34768
2.62817
2.97047
3.32636
3.66587
3.96397
4.23018
4.44045
4.65552
4.8314
5.00153
5.15313
5.2902
5.42088
5.53725
5.64822
5.75079
5.84445
5.93455
6.01485
6.09158
6.16064
6.22562
6.28433
6.33773
6.38485
6.42372
6.45881
6.48613
6.51103
6.52927
6.54929
6.5659
6.58492
6.6042
6.62212
6.63055
6.63396
6.63452
6.61898
6.58023
6.52724
6.45862
6.36077
6.21039
6.0191
5.82268
5.63153
5.42289
5.19503
4.95637
4.73343
4.52195
4.33844
4.19001
4.06305
3.96279
3.88515
3.8151
3.74783
3.69028
3.63176
3.56707
3.51232
3.45629
3.39068
3.31993
3.2439
3.1636
3.08081
2.99621
2.91155
2.82807
2.74712
2.66884
2.59443
2.52379
2.45534
2.38877
2.32385
2.25976
2.19648
2.13378
2.07183
2.01027
1.94783
1.88543
1.82321
1.76033
1.69744
1.6338
1.57055
1.50894
1.44661
1.38453
1.32525
1.26967
1.21533
1.15979
1.10634
1.05853
1.01453
0.970735
0.930404
0.90102
0.886953
0.884091
0.885075
0.891146
0.914085
0.966277
1.03673
1.10169
1.15291
1.2158
1.23635
0.0519398
0.0889402
0.214993
0.546219
1.09161
1.51992
1.86373
2.18918
2.46772
2.65518
2.78913
2.88245
2.95372
2.99654
2.99514
2.9671
2.89653
2.78346
2.651
2.51024
2.36011
2.21607
2.10631
2.01895
1.96651
1.95823
1.97594
2.0184
2.10167
2.22379
2.363
2.49157
2.60678
2.6996
2.76894
2.81366
2.81727
2.80788
2.77715
2.7095
2.57111
2.40216
2.19859
1.95184
1.73961
1.51924
1.36787
1.21614
1.18238
1.217
1.37382
1.94497
2.42938
2.21891
1.85967
1.46326
1.32222
1.31939
1.41684
1.57649
1.79875
2.06029
2.33378
2.7191
3.17338
3.61176
3.99937
4.3568
4.66588
4.95842
5.20742
5.43298
5.6366
5.81409
5.97508
6.12066
6.24988
6.36943
6.47545
6.57041
6.65572
6.7286
6.79108
6.8414
6.88028
6.90435
6.9215
6.92645
6.9164
6.90481
6.88041
6.85205
6.81779
6.78346
6.75247
6.71753
6.68599
6.65503
6.63643
6.63173
6.62967
6.62801
6.62482
6.61319
6.59493
6.56793
6.52296
6.45074
6.34152
6.15235
5.89008
5.62612
5.34347
5.02703
4.69937
4.38901
4.12662
3.91197
3.74221
3.61935
3.53137
3.46558
3.41766
3.38282
3.35755
3.33352
3.30825
3.28546
3.2546
3.21954
3.18648
3.14185
3.08669
3.02439
2.95689
2.88635
2.81424
2.74189
2.67025
2.60056
2.53327
2.46847
2.40602
2.34548
2.28593
2.22682
2.16883
2.11222
2.05645
2.00142
1.94783
1.89484
1.84179
1.78914
1.73658
1.68445
1.63372
1.58323
1.53189
1.48158
1.43404
1.38695
1.33774
1.2892
1.24488
1.20324
1.15928
1.11487
1.07961
1.06118
1.05696
1.05754
1.06163
1.08003
1.12613
1.17297
1.21456
1.23974
1.26237
1.27683
0.169919
0.223595
0.542575
1.24568
1.7583
2.131
2.42367
2.58915
2.68968
2.76427
2.81653
2.8158
2.77092
2.65791
2.48487
2.28319
2.00329
1.71917
1.47437
1.27082
1.14102
1.04803
0.986814
0.947464
0.917573
0.911702
0.920661
0.945785
1.00984
1.08532
1.23916
1.42822
1.71357
1.99784
2.32859
2.558
2.6876
2.75378
2.76067
2.74525
2.69643
2.61551
2.46849
2.31826
2.13204
1.92051
1.79215
1.59333
1.53832
1.67009
2.22729
2.37347
2.11566
1.55866
1.30306
1.24199
1.29136
1.38491
1.59869
1.91315
2.2766
2.7043
3.19593
3.64819
4.08984
4.4728
4.82905
5.14791
5.42264
5.67103
5.881
6.0643
6.22486
6.36402
6.48767
6.60103
6.70319
6.79997
6.89219
6.97961
7.06464
7.14631
7.22584
7.30262
7.3771
7.44598
7.50975
7.5625
7.58785
7.59724
7.57663
7.53269
7.48086
7.41755
7.33463
7.23405
7.12376
7.00564
6.88831
6.79787
6.72973
6.68155
6.64337
6.61118
6.57815
6.54714
6.51564
6.47872
6.42369
6.30183
6.05829
5.77157
5.43104
5.03848
4.63194
4.24601
3.90958
3.64616
3.46054
3.3337
3.25049
3.19651
3.16341
3.13501
3.10854
3.08847
3.06345
3.03917
3.01654
2.98705
2.96109
2.93309
2.89565
2.85079
2.80062
2.74735
2.69285
2.6381
2.58346
2.52957
2.47605
2.42349
2.37214
2.32142
2.27137
2.22074
2.16966
2.11896
2.06861
2.0187
1.96991
1.9222
1.87531
1.82884
1.7822
1.73593
1.69128
1.64754
1.60376
1.56068
1.51908
1.47745
1.43448
1.39257
1.35355
1.31502
1.2732
1.23126
1.19851
1.18218
1.17875
1.17967
1.18415
1.20445
1.2442
1.27704
1.2958
1.29979
1.29183
1.28862
0.321804
0.462496
1.19968
1.89797
2.26949
2.51611
2.60096
2.65034
2.66498
2.63978
2.57497
2.4419
2.23185
1.96413
1.59862
1.24226
1.02347
0.888771
0.814057
0.767231
0.737212
0.715118
0.692214
0.673225
0.647316
0.634727
0.615194
0.615584
0.62353
0.644815
0.691046
0.787185
0.912796
1.1517
1.42249
1.83132
2.24462
2.53852
2.66509
2.70529
2.68897
2.64305
2.55716
2.45306
2.27409
2.16228
1.95842
1.77368
1.87486
2.19523
2.24491
1.76612
1.35299
1.20903
1.17923
1.26137
1.39286
1.65078
2.10311
2.58076
3.02375
3.50495
3.95978
4.33817
4.71612
5.02229
5.30527
5.54311
5.7451
5.91957
6.06602
6.19679
6.31272
6.41697
6.51414
6.60691
6.6946
6.78217
6.87293
6.96933
7.07131
7.17591
7.28435
7.39764
7.5154
7.63339
7.74906
7.85971
7.96291
8.05606
8.1378
8.2027
8.25017
8.27538
8.28982
8.25801
8.18458
8.06729
7.90584
7.72115
7.53318
7.35536
7.19504
7.04828
6.91044
6.793
6.70474
6.64504
6.59631
6.5179
6.28991
5.88457
5.47379
5.00044
4.46894
3.97619
3.57986
3.30008
3.12172
3.01924
2.9687
2.94645
2.93454
2.92807
2.92049
2.91164
2.89676
2.87762
2.85653
2.82862
2.80296
2.77926
2.75037
2.71736
2.68085
2.64177
2.601
2.55934
2.51714
2.47424
2.43055
2.38618
2.34131
2.29634
2.25123
2.20612
2.161
2.11543
2.06961
2.02379
1.97878
1.93517
1.89272
1.85075
1.80868
1.7669
1.72622
1.68657
1.64779
1.60985
1.57225
1.534
1.49582
1.45962
1.42528
1.38925
1.34882
1.30855
1.27742
1.26176
1.25833
1.25921
1.26369
1.28497
1.31736
1.34023
1.34788
1.34417
1.30403
1.27925
0.434825
0.867991
1.90264
2.36885
2.58343
2.60881
2.5895
2.53113
2.46894
2.39537
2.24334
1.97479
1.59611
1.16255
0.914098
0.78747
0.730308
0.711306
0.706106
0.69625
0.68778
0.670232
0.642813
0.612635
0.582854
0.560285
0.539106
0.527637
0.519873
0.52214
0.532325
0.5567
0.607578
0.722365
0.873802
1.17446
1.56602
2.02831
2.39625
2.59222
2.63856
2.62248
2.56371
2.4717
2.35256
2.20803
2.00198
1.92451
2.04495
2.11901
1.63885
1.23398
1.14668
1.14452
1.22241
1.41882
1.75893
2.27786
2.77043
3.2446
3.68915
4.08742
4.45738
4.76902
5.04392
5.27945
5.47903
5.64964
5.79675
5.92971
6.04469
6.13776
6.22507
6.31281
6.40697
6.51021
6.61886
6.73929
6.86632
6.99929
7.13888
7.29118
7.45691
7.62868
7.8002
7.96938
8.13244
8.28767
8.43522
8.57211
8.69415
8.7974
8.88226
8.95284
9.013
9.06246
9.10436
9.13397
9.13183
9.07307
8.93939
8.72857
8.47124
8.16994
7.83925
7.50987
7.23642
7.03166
6.89776
6.74086
6.42
5.94561
5.39799
4.78861
4.17839
3.64947
3.25283
2.99757
2.85799
2.79821
2.77583
2.77136
2.77255
2.77511
2.77485
2.77248
2.76271
2.74922
2.73242
2.71022
2.69128
2.6691
2.64137
2.61027
2.57742
2.54358
2.509
2.47392
2.43853
2.40272
2.36636
2.32946
2.2921
2.254
2.21489
2.17537
2.13579
2.09604
2.05612
2.016
1.97538
1.93557
1.89733
1.85977
1.82214
1.78464
1.74792
1.71234
1.6777
1.64355
1.60932
1.57455
1.54046
1.50849
1.47808
1.44565
1.40825
1.36925
1.33689
1.31834
1.3128
1.31296
1.31619
1.33421
1.36012
1.37694
1.38043
1.37199
1.30785
1.25789
0.495534
1.40722
2.35103
2.66524
2.70123
2.59409
2.49163
2.45043
2.42277
2.28722
1.98072
1.41826
0.982745
0.802103
0.719852
0.69697
0.693975
0.709219
0.726178
0.716479
0.692576
0.647163
0.588105
0.524052
0.475769
0.44327
0.430418
0.433466
0.43983
0.45196
0.46916
0.491821
0.515638
0.567324
0.647891
0.815477
1.11854
1.5609
2.03522
2.39732
2.57179
2.592
2.55712
2.46787
2.35022
2.17058
1.95321
1.90128
1.95462
1.56175
1.17805
1.09109
1.11726
1.20333
1.42249
1.88104
2.41562
2.88994
3.34796
3.75742
4.14178
4.46335
4.73633
4.98391
5.18275
5.35911
5.50689
5.64236
5.74768
5.84104
5.93389
6.04704
6.16615
6.29122
6.41719
6.55108
6.70418
6.87373
7.06178
7.27006
7.49984
7.73969
7.97111
8.19684
8.41488
8.62263
8.81838
8.99966
9.16197
9.29971
9.41396
9.50561
9.5795
9.63512
9.67399
9.69512
9.70415
9.70156
9.68453
9.65016
9.58805
9.48251
9.31984
9.06995
8.70364
8.2314
7.76173
7.38151
7.11275
6.85741
6.48037
5.87079
5.17588
4.49117
3.84406
3.31277
2.95183
2.75252
2.66607
2.63386
2.63017
2.63358
2.64503
2.66097
2.66935
2.67029
2.66925
2.66419
2.65401
2.63815
2.62345
2.60437
2.5801
2.55277
2.52368
2.49343
2.4621
2.4299
2.39714
2.36383
2.32981
2.29506
2.25978
2.22407
2.18785
2.15103
2.11406
2.07732
2.04025
2.00297
1.96648
1.93064
1.89567
1.86187
1.82829
1.79465
1.76177
1.73019
1.69946
1.66868
1.63761
1.60633
1.576
1.54755
1.52046
1.49202
1.45911
1.42284
1.38922
1.36573
1.35517
1.35356
1.35482
1.36616
1.38382
1.39384
1.39466
1.38307
1.30642
1.23662
0.532871
1.85197
2.6842
2.85281
2.74312
2.56569
2.48933
2.47991
2.40351
2.05408
1.38161
0.97465
0.791996
0.716698
0.692114
0.706
0.745405
0.777782
0.764279
0.711567
0.591086
0.450503
0.348364
0.292163
0.259507
0.241606
0.237387
0.245467
0.266623
0.310203
0.354948
0.406353
0.450566
0.501495
0.564338
0.671913
0.887793
1.25667
1.73363
2.16905
2.44682
2.52615
2.51498
2.43685
2.28812
1.99763
1.82386
1.81042
1.51686
1.13746
1.04911
1.0783
1.17824
1.42329
1.92775
2.46024
2.94321
3.37012
3.77879
4.12124
4.42107
4.68394
4.89266
5.07916
5.23199
5.36466
5.47365
5.56876
5.67515
5.79729
5.92624
6.05852
6.20308
6.36732
6.55839
6.79146
7.06913
7.34674
7.62387
7.88553
8.12167
8.32893
8.52049
8.69663
8.86254
9.01885
9.16463
9.29606
9.41286
9.51826
9.60159
9.67053
9.72842
9.77051
9.7965
9.80715
9.80423
9.78902
9.76365
9.72728
9.67344
9.58698
9.45372
9.2426
8.9096
8.43333
7.91482
7.48127
7.17225
6.89208
6.34894
5.54523
4.71524
3.97644
3.33515
2.8704
2.61088
2.49849
2.4725
2.4749
2.48584
2.512
2.54097
2.56821
2.58961
2.60956
2.61694
2.61625
2.61269
2.60288
2.59054
2.57299
2.54941
2.52177
2.49174
2.46043
2.42821
2.39538
2.36238
2.32933
2.29602
2.26234
2.22828
2.19384
2.15915
2.12427
2.08939
2.05494
2.021
1.98704
1.953
1.92007
1.88889
1.8586
1.82869
1.79873
1.76916
1.74109
1.71436
1.68723
1.65911
1.63104
1.60457
1.57973
1.55562
1.53072
1.50306
1.47162
1.43891
1.41089
1.39339
1.38703
1.38666
1.39077
1.40025
1.40413
1.40288
1.38875
1.31144
1.22643
0.565154
2.18489
2.94356
3.0121
2.78101
2.65022
2.6576
2.65651
2.35075
1.70017
1.12274
0.860828
0.750832
0.70931
0.723076
0.770811
0.791649
0.784952
0.722063
0.560812
0.394488
0.306294
0.255975
0.223849
0.206441
0.19738
0.191337
0.194703
0.206078
0.232988
0.276242
0.32956
0.383523
0.439545
0.506212
0.601331
0.789049
1.12295
1.58956
2.05499
2.36262
2.45216
2.45196
2.33208
2.03956
1.76728
1.70288
1.478
1.10428
1.01046
1.03652
1.13602
1.38743
1.9242
2.45129
2.91946
3.36835
3.74779
4.07644
4.36835
4.60537
4.81281
4.98262
5.12273
5.24026
5.3441
5.4478
5.56155
5.68037
5.80972
5.95601
6.1271
6.34482
6.62962
6.9472
7.2659
7.54008
7.7952
8.02238
8.22159
8.39565
8.54987
8.69137
8.82726
8.96182
9.09093
9.21365
9.32179
9.40711
9.47896
9.53612
9.57783
9.60663
9.62412
9.62854
9.62167
9.60716
9.57824
9.53983
9.49325
9.4331
9.35837
9.26494
9.12823
8.86735
8.41767
7.90202
7.45702
7.10469
6.6019
5.81991
4.87472
4.00493
3.32914
2.8103
2.51007
2.38476
2.36745
2.37221
2.38438
2.41521
2.45509
2.49087
2.52419
2.54983
2.56964
2.58364
2.58556
2.58368
2.57736
2.56598
2.55051
2.52858
2.50224
2.47314
2.44253
2.41087
2.3783
2.34511
2.31162
2.2779
2.24386
2.20957
2.1751
2.14045
2.10583
2.07164
2.03824
2.00573
1.97386
1.94225
1.91128
1.88186
1.85402
1.82681
1.79995
1.77344
1.74804
1.72422
1.70082
1.67637
1.65113
1.62725
1.60596
1.58595
1.56465
1.54086
1.51408
1.48528
1.45762
1.43405
1.41793
1.41142
1.41089
1.41232
1.41304
1.41059
1.39596
1.32413
1.23323
0.583652
2.50234
3.17776
3.18148
2.9529
2.9236
2.9257
2.76138
2.25992
1.58523
1.05842
0.838546
0.755182
0.745074
0.754515
0.785666
0.795944
0.775785
0.681938
0.510404
0.354934
0.28075
0.238254
0.21165
0.198532
0.192115
0.190057
0.19608
0.209703
0.236671
0.278913
0.329956
0.383045
0.439277
0.508446
0.609022
0.80589
1.14723
1.61495
2.07689
2.32624
2.38113
2.31561
2.03813
1.72696
1.61798
1.40931
1.0763
0.975674
0.993791
1.09157
1.33365
1.87462
2.42418
2.86851
3.30993
3.68083
4.02516
4.30581
4.55884
4.76328
4.92822
5.057
5.16391
5.25777
5.35159
5.45576
5.57215
5.70162
5.85317
6.05176
6.33055
6.66245
6.98585
7.2968
7.57457
7.81498
8.02457
8.20555
8.36216
8.50025
8.62363
8.7295
8.81846
8.88972
8.93722
8.97751
9.01027
9.03452
9.04724
9.0487
9.03692
9.01799
8.99223
8.96238
8.92746
8.89237
8.85295
8.80618
8.75511
8.69063
8.60838
8.51308
8.41259
8.26376
7.88319
7.41714
6.99809
6.52843
5.85872
4.93983
3.98343
3.24973
2.72776
2.41039
2.27738
2.25957
2.26128
2.27404
2.30881
2.3515
2.39518
2.43609
2.47076
2.50202
2.52249
2.54045
2.55097
2.55145
2.54937
2.54277
2.53191
2.51349
2.48922
2.46067
2.42945
2.39667
2.36294
2.32863
2.2941
2.25958
2.22504
2.19041
2.15591
2.12156
2.08732
2.05367
2.02125
1.99002
1.95975
1.93034
1.90169
1.87403
1.84791
1.82303
1.79862
1.77485
1.75194
1.73027
1.70968
1.68908
1.66746
1.6459
1.62682
1.61067
1.59432
1.57467
1.55158
1.52667
1.50143
1.47662
1.45451
1.43838
1.42944
1.42571
1.42314
1.41775
1.40473
1.35469
1.25927
0.58683
2.70895
3.39595
3.39113
3.21469
3.17082
3.10648
2.82965
2.26276
1.57944
1.09246
0.887613
0.797905
0.76833
0.766268
0.789608
0.800936
0.781885
0.694966
0.532328
0.386951
0.304093
0.25954
0.231548
0.218596
0.212747
0.211088
0.217317
0.234057
0.260945
0.300726
0.346918
0.39796
0.45596
0.534257
0.656578
0.885762
1.25612
1.75596
2.13307
2.24916
2.23032
2.00949
1.68468
1.53748
1.30047
1.03386
0.940196
0.957315
1.04614
1.27241
1.76363
2.33919
2.78894
3.2269
3.62788
3.95583
4.26861
4.5072
4.71045
4.87661
5.00856
5.11659
5.20742
5.2923
5.38208
5.4862
5.60595
5.75383
5.96333
6.24312
6.56408
6.89342
7.20277
7.48195
7.72219
7.9256
8.09745
8.2407
8.35913
8.44488
8.49205
8.50127
8.49106
8.47035
8.45377
8.44565
8.44216
8.43545
8.42573
8.40751
8.37604
8.33463
8.2862
8.2337
8.17904
8.12974
8.077
8.02441
7.97304
7.91677
7.84407
7.74703
7.6221
7.40378
6.99864
6.59948
6.18536
5.6608
4.85258
3.90791
3.12088
2.61461
2.31493
2.18782
2.16637
2.16653
2.18078
2.21218
2.25815
2.30574
2.35015
2.39029
2.42647
2.45777
2.48307
2.50291
2.51737
2.52124
2.52024
2.51614
2.50743
2.49341
2.4724
2.44659
2.41751
2.38634
2.35368
2.31986
2.28524
2.25017
2.21488
2.17953
2.14443
2.10981
2.07565
2.04211
2.00983
1.9791
1.94963
1.92121
1.89392
1.86771
1.84276
1.81912
1.79638
1.77446
1.75376
1.73402
1.71543
1.6978
1.67998
1.66166
1.64461
1.63063
1.61852
1.60453
1.58614
1.56423
1.541
1.51734
1.49361
1.47137
1.45379
1.44178
1.43441
1.42741
1.41559
1.38746
1.30785
0.556544
2.80651
3.51293
3.53564
3.41095
3.38594
3.35348
3.13116
2.63089
1.96477
1.34829
1.01533
0.863555
0.802759
0.787504
0.786902
0.805699
0.812093
0.797535
0.734629
0.573633
0.420974
0.347059
0.295035
0.271205
0.26189
0.259548
0.268176
0.285143
0.311205
0.347443
0.389953
0.443559
0.51353
0.619977
0.794403
1.10308
1.63055
1.96116
2.0881
2.10751
1.97062
1.60589
1.41022
1.16382
0.976762
0.907193
0.934206
1.01197
1.22592
1.69316
2.29607
2.76439
3.16411
3.58519
3.92104
4.23905
4.48345
4.69228
4.86721
5.00963
5.12002
5.20902
5.28453
5.36244
5.45194
5.55491
5.67874
5.84993
6.08691
6.37917
6.69911
7.01679
7.31079
7.57104
7.79477
7.98396
8.13637
8.23747
8.27027
8.26434
8.21268
8.12344
8.02981
7.95373
7.9091
7.9013
7.92361
7.94717
7.97195
7.97294
7.96577
7.94726
7.90488
7.8452
7.7798
7.71853
7.65568
7.59425
7.52878
7.46164
7.39071
7.30394
7.16328
6.81819
6.36725
5.984
5.51516
4.76312
3.8303
2.99372
2.49658
2.21949
2.11264
2.08481
2.08512
2.10062
2.13507
2.18131
2.22886
2.27295
2.31304
2.34823
2.38094
2.40695
2.43227
2.45274
2.46814
2.48197
2.48585
2.4849
2.48156
2.47418
2.45915
2.43707
2.41
2.37961
2.34704
2.31298
2.27792
2.24231
2.20639
2.17046
2.13486
2.09991
2.06578
2.03251
2.00035
1.96971
1.94068
1.91278
1.88591
1.86054
1.83659
1.81361
1.79205
1.77186
1.75287
1.73525
1.71848
1.70293
1.68851
1.67398
1.65964
1.64747
1.63829
1.62923
1.61668
1.59913
1.57798
1.5554
1.53125
1.50712
1.48214
1.46411
1.45071
1.44232
1.42763
1.40789
1.35436
0.50996
2.83581
3.55256
3.59163
3.51706
3.53236
3.60829
3.51217
3.14714
2.54229
1.88673
1.325
1.04277
0.884446
0.823556
0.80462
0.802048
0.818468
0.824834
0.825984
0.801106
0.724568
0.585608
0.489261
0.411039
0.377097
0.364785
0.362875
0.384384
0.407209
0.448681
0.501059
0.583874
0.714229
0.950509
1.27425
1.63679
1.83485
1.92564
1.94903
1.81098
1.41585
1.19579
1.01399
0.908031
0.874426
0.914116
1.00054
1.2016
1.62467
2.21785
2.72563
3.13093
3.52538
3.91555
4.24637
4.52021
4.72983
4.90788
5.05805
5.18499
5.28704
5.36513
5.43122
5.50164
5.58197
5.67487
5.79068
5.95601
6.18353
6.46263
6.7725
7.07798
7.36486
7.62458
7.85121
8.03391
8.15098
8.19034
8.18834
8.1363
8.0048
7.8603
7.72652
7.62186
7.54764
7.49989
7.49065
7.51448
7.54572
7.56353
7.55706
7.53786
7.50258
7.44169
7.36814
7.2955
7.22492
7.15368
7.08404
7.01597
6.93328
6.79892
6.50201
6.04676
5.69055
5.2383
4.49957
3.48972
2.71868
2.3368
2.15037
2.05191
2.01857
2.02067
2.03598
2.07071
2.11145
2.15363
2.19151
2.22715
2.26125
2.29489
2.32701
2.35937
2.38726
2.41379
2.43372
2.45062
2.46286
2.46453
2.46324
2.4589
2.44992
2.43221
2.40789
2.37941
2.34799
2.31443
2.27936
2.24337
2.20685
2.17011
2.13363
2.0978
2.06294
2.02908
1.99629
1.96489
1.93514
1.90684
1.87975
1.85404
1.83011
1.80777
1.78658
1.76709
1.74985
1.73401
1.71931
1.70573
1.69358
1.68275
1.67208
1.66202
1.65484
1.64944
1.64222
1.63025
1.61296
1.59267
1.56647
1.54126
1.51289
1.49376
1.47162
1.46008
1.43986
1.42453
1.39148
0.438686
2.78057
3.53711
3.60672
3.5515
3.57307
3.76715
3.84512
3.83999
3.49261
2.89337
2.12094
1.56808
1.15233
0.969771
0.868836
0.832348
0.821642
0.833069
0.846201
0.867206
0.882509
0.889407
0.885593
0.851814
0.807492
0.776222
0.76415
0.771092
0.816185
0.885155
0.990028
1.13386
1.30297
1.46364
1.59143
1.69833
1.74497
1.70302
1.45292
1.1476
0.985241
0.895477
0.856179
0.859964
0.902748
1.02247
1.23974
1.65945
2.24323
2.77503
3.24746
3.63036
4.03749
4.41634
4.74264
4.95549
5.13589
5.28756
5.41616
5.52399
5.61029
5.67467
5.72535
5.77686
5.83506
5.8983
5.98014
6.10213
6.27859
6.5127
6.77865
7.05753
7.33168
7.59097
7.83115
8.03509
8.16829
8.21983
8.22302
8.20709
8.06451
7.86194
7.68728
7.54856
7.44896
7.36427
7.31435
7.28498
7.25198
7.21928
7.1843
7.13589
7.06576
6.98668
6.90119
6.81715
6.73694
6.66755
6.57226
6.47864
6.34632
6.05502
5.6312
5.20865
4.78248
3.99224
3.10518
2.54971
2.23264
2.04935
1.97135
1.96119
1.97012
1.98338
2.01515
2.05137
2.08478
2.11753
2.14773
2.17965
2.21081
2.24382
2.27649
2.30864
2.34065
2.36813
2.39524
2.41452
2.43111
2.44158
2.44244
2.44094
2.43622
2.42663
2.40765
2.38213
2.35224
2.31935
2.28425
2.24775
2.21049
2.17289
2.13533
2.09817
2.06196
2.02692
1.99299
1.96046
1.92958
1.90046
1.87292
1.84685
1.8225
1.80022
1.77982
1.76098
1.74449
1.73058
1.71795
1.70643
1.69645
1.68818
1.68117
1.67519
1.67049
1.66709
1.66354
1.65776
1.64609
1.62862
1.60196
1.57532
1.54399
1.52377
1.49838
1.48188
1.4572
1.44314
1.41762
0.342421
2.5437
3.37014
3.50738
3.49526
3.50893
3.70844
3.96914
4.12524
4.21328
4.20439
3.70705
2.8824
2.03708
1.54451
1.16708
0.999772
0.89711
0.860981
0.848557
0.863579
0.889625
0.927844
0.974772
1.02205
1.05762
1.08979
1.12035
1.14942
1.18868
1.2359
1.29147
1.35132
1.4106
1.46698
1.50165
1.49016
1.30129
1.09744
0.936408
0.859607
0.830143
0.828439
0.85934
0.924934
1.06539
1.33916
1.75118
2.34479
2.9489
3.53444
4.03419
4.48309
4.94345
5.31358
5.65541
5.89975
6.02961
6.10512
6.14978
6.17951
6.19638
6.19769
6.19491
6.20419
6.22623
6.25402
6.29578
6.35191
6.4454
6.5977
6.78788
7.00506
7.24359
7.48692
7.72449
7.94273
8.10857
8.17502
8.17774
8.16189
8.10512
7.95434
7.78863
7.61405
7.46671
7.3387
7.23535
7.15158
7.08977
7.0351
6.97445
6.88794
6.78148
6.67891
6.57754
6.48027
6.38216
6.29842
6.17991
6.03312
5.69387
5.31392
4.86764
4.44262
3.58812
2.76774
2.28749
2.06371
1.96491
1.93553
1.92776
1.93082
1.94486
1.97202
2.00002
2.02487
2.0494
2.072
2.09835
2.12521
2.15816
2.19108
2.22851
2.26403
2.30132
2.33424
2.3651
2.39085
2.40958
2.42614
2.43212
2.43167
2.42904
2.42287
2.41006
2.38779
2.35988
2.32785
2.29275
2.25564
2.21734
2.1785
2.13959
2.10123
2.06381
2.02745
1.99209
1.95816
1.92606
1.89598
1.86774
1.84107
1.81633
1.79388
1.77382
1.7559
1.74016
1.72673
1.71542
1.70579
1.69807
1.69269
1.68943
1.68763
1.6863
1.68495
1.68331
1.68024
1.67452
1.66376
1.6389
1.61029
1.57681
1.55277
1.52646
1.50712
1.4803
1.46504
1.44187
0.303574
2.21126
3.04794
3.26933
3.30474
3.31875
3.46027
3.76575
4.11081
4.37163
4.63052
4.74435
4.72964
4.09344
3.11446
2.23069
1.73647
1.32219
1.10614
0.955059
0.894669
0.868083
0.864367
0.889623