/*--------------------------------*- C++ -*----------------------------------*\
| =========                 |                                                 |
| \\      /  F ield         | OpenFOAM: The Open Source CFD Toolbox           |
|  \\    /   O peration     | Version:  2112                                  |
|   \\  /    A nd           | Website:  www.openfoam.com                      |
|    \\/     M anipulation  |                                                 |
\*---------------------------------------------------------------------------*/
FoamFile
{
    version     2.0;
    format      ascii;
    arch        "LSB;label=32;scalar=64";
    class       volVectorField;
    location    "0.03";
    object      U;
}
// * * * * * * * * * * * * * * * * * * * * * * * * * * * * * * * * * * * * * //

dimensions      [0 1 -1 0 0 0 0];

internalField   nonuniform List<vector> 
12225
(
(9.83405 -0.970456 0)
(9.57573 -0.88946 0)
(9.28812 -0.587936 0)
(8.97617 -0.360708 0)
(8.67648 -0.218533 0)
(8.40651 -0.133897 0)
(8.167 -0.0828417 0)
(7.9545 -0.0510551 0)
(7.76556 -0.0306497 0)
(7.59654 -0.0171881 0)
(7.44352 -0.00803036 0)
(7.30275 -0.00152577 0)
(7.17075 0.00340822 0)
(7.04432 0.00752148 0)
(6.91968 0.0115054 0)
(6.79422 0.0155441 0)
(6.65689 0.0236247 0)
(6.51583 0.0220155 0)
(10.0844 0.314459 0)
(10.2072 0.498716 0)
(10.2511 0.439591 0)
(10.2464 0.343118 0)
(10.2215 0.265529 0)
(10.1826 0.208933 0)
(10.1289 0.16837 0)
(10.0618 0.139519 0)
(9.98492 0.118937 0)
(9.90151 0.104146 0)
(9.81383 0.0935432 0)
(9.72322 0.0861419 0)
(9.63047 0.0813489 0)
(9.53594 0.0789097 0)
(9.43939 0.0787209 0)
(9.3407 0.0816392 0)
(9.23784 0.0875062 0)
(9.13739 0.104214 0)
(9.99632 0.0433798 0)
(10.0176 0.00646092 0)
(10.0539 -0.0349364 0)
(10.0867 -0.034714 0)
(10.1134 -0.0128502 0)
(10.134 0.00985953 0)
(10.1472 0.0272013 0)
(10.1526 0.0399064 0)
(10.1512 0.0494347 0)
(10.1439 0.056844 0)
(10.1314 0.0629515 0)
(10.1139 0.0684345 0)
(10.0917 0.0738685 0)
(10.065 0.0798233 0)
(10.0335 0.0869102 0)
(9.99729 0.0961754 0)
(9.95664 0.108782 0)
(9.91211 0.127722 0)
(9.99616 0.0057089 0)
(10.0045 0.026888 0)
(10.0299 0.0495027 0)
(10.0497 0.0691954 0)
(10.0627 0.0806485 0)
(10.0733 0.0845223 0)
(10.082 0.0846894 0)
(10.0879 0.0840545 0)
(10.091 0.0837672 0)
(10.0915 0.0841241 0)
(10.0895 0.0852614 0)
(10.085 0.087354 0)
(10.0777 0.0906328 0)
(10.0678 0.095427 0)
(10.055 0.102198 0)
(10.0396 0.111734 0)
(10.0218 0.124968 0)
(10.0032 0.143076 0)
(9.99909 0.00781792 0)
(10.007 0.0392143 0)
(10.0249 0.0548684 0)
(10.0376 0.0606638 0)
(10.0454 0.0640552 0)
(10.0523 0.0665305 0)
(10.0583 0.0685242 0)
(10.0622 0.0705619 0)
(10.064 0.0729407 0)
(10.0637 0.0757711 0)
(10.0614 0.0791849 0)
(10.0573 0.0833981 0)
(10.051 0.0886931 0)
(10.0427 0.0954352 0)
(10.0324 0.104093 0)
(10.0202 0.115338 0)
(10.0066 0.129824 0)
(9.99274 0.148419 0)
(10.0001 0.0101961 0)
(10.007 0.036568 0)
(10.0207 0.0483328 0)
(10.0312 0.0533739 0)
(10.0379 0.0585862 0)
(10.0437 0.0635255 0)
(10.0485 0.0674297 0)
(10.0514 0.0707385 0)
(10.0523 0.0740388 0)
(10.0514 0.0776637 0)
(10.0487 0.0818502 0)
(10.0444 0.0868629 0)
(10.0383 0.0930096 0)
(10.0305 0.100656 0)
(10.0211 0.110235 0)
(10.0102 0.122287 0)
(9.99844 0.137295 0)
(9.98667 0.155831 0)
(10.0002 0.00998122 0)
(10.006 0.0317014 0)
(10.0172 0.043757 0)
(10.0268 0.0506124 0)
(10.0332 0.0569644 0)
(10.0383 0.0625206 0)
(10.0424 0.0668591 0)
(10.0448 0.0705967 0)
(10.0454 0.0743951 0)
(10.0443 0.0786093 0)
(10.0417 0.0834745 0)
(10.0375 0.0892475 0)
(10.0318 0.0962252 0)
(10.0247 0.104745 0)
(10.0162 0.115184 0)
(10.0067 0.127964 0)
(9.9966 0.143424 0)
(9.98662 0.161902 0)
(10.0002 0.00916395 0)
(10.005 0.0281113 0)
(10.0144 0.0406903 0)
(10.0231 0.0485442 0)
(10.0292 0.0551427 0)
(10.0339 0.0608848 0)
(10.0376 0.0656587 0)
(10.0398 0.0699878 0)
(10.0404 0.0744437 0)
(10.0394 0.0793622 0)
(10.0371 0.084979 0)
(10.0333 0.0915463 0)
(10.0282 0.099346 0)
(10.0219 0.108683 0)
(10.0145 0.119876 0)
(10.0064 0.133247 0)
(9.99793 0.149026 0)
(9.98968 0.167407 0)
(10.0003 0.00843131 0)
(10.0042 0.0254114 0)
(10.012 0.0378763 0)
(10.0197 0.046181 0)
(10.0255 0.0529806 0)
(10.03 0.0590391 0)
(10.0335 0.0643692 0)
(10.0357 0.0693544 0)
(10.0364 0.0744856 0)
(10.0357 0.0800989 0)
(10.0338 0.0864392 0)
(10.0306 0.093752 0)
(10.0262 0.102299 0)
(10.0209 0.112349 0)
(10.0147 0.124164 0)
(10.008 0.137983 0)
(10.0012 0.153956 0)
(9.99462 0.172198 0)
(10.0003 0.00778019 0)
(10.0036 0.0231112 0)
(10.01 0.0351316 0)
(10.0168 0.0437253 0)
(10.0222 0.0508077 0)
(10.0265 0.057219 0)
(10.0298 0.0630678 0)
(10.0321 0.0686571 0)
(10.0331 0.0744185 0)
(10.0328 0.0806841 0)
(10.0314 0.0876993 0)
(10.0289 0.0956955 0)
(10.0254 0.104908 0)
(10.0212 0.115566 0)
(10.0163 0.127879 0)
(10.0111 0.142018 0)
(10.0058 0.158076 0)
(10.001 0.176117 0)
(10.0003 0.00716626 0)
(10.0031 0.0210867 0)
(10.0084 0.0325652 0)
(10.0143 0.0413293 0)
(10.0194 0.0486734 0)
(10.0235 0.0553888 0)
(10.0267 0.0616782 0)
(10.0291 0.0678068 0)
(10.0303 0.0741482 0)
(10.0305 0.0810156 0)
(10.0297 0.0886456 0)
(10.0281 0.0972499 0)
(10.0256 0.107034 0)
(10.0225 0.118187 0)
(10.019 0.130871 0)
(10.0153 0.145205 0)
(10.0117 0.161235 0)
(10.0085 0.178997 0)
(10.0003 0.00661819 0)
(10.0026 0.0194271 0)
(10.0072 0.0303864 0)
(10.0124 0.0391906 0)
(10.0172 0.0467146 0)
(10.0211 0.0536616 0)
(10.0244 0.0602952 0)
(10.0269 0.0668598 0)
(10.0285 0.0736781 0)
(10.0291 0.0810376 0)
(10.029 0.0891607 0)
(10.0281 0.0982389 0)
(10.0266 0.108449 0)
(10.0246 0.119945 0)
(10.0224 0.13285 0)
(10.0201 0.147243 0)
(10.018 0.16314 0)
(10.0164 0.180554 0)
(10.0002 0.00611395 0)
(10.0023 0.0179416 0)
(10.0062 0.0283563 0)
(10.0109 0.0370896 0)
(10.0153 0.0447305 0)
(10.0192 0.0518672 0)
(10.0225 0.0587874 0)
(10.0252 0.0657227 0)
(10.0271 0.0729514 0)
(10.0283 0.0807312 0)
(10.0289 0.0892663 0)
(10.0288 0.0987264 0)
(10.0283 0.10926 0)
(10.0275 0.120989 0)
(10.0265 0.134003 0)
(10.0257 0.148349 0)
(10.0251 0.164017 0)
(10.0249 0.18101 0)
(10.0002 0.00558676 0)
(10.002 0.0164073 0)
(10.0053 0.0261874 0)
(10.0095 0.0347284 0)
(10.0137 0.0424096 0)
(10.0176 0.0496906 0)
(10.021 0.0568552 0)
(10.0239 0.0641215 0)
(10.0263 0.0717237 0)
(10.0282 0.0798827 0)
(10.0295 0.0887774 0)
(10.0305 0.0985514 0)
(10.0311 0.109322 0)
(10.0316 0.121178 0)
(10.0322 0.134175 0)
(10.0328 0.148331 0)
(10.0339 0.163614 0)
(10.0354 0.180021 0)
(10.0002 0.00503112 0)
(10.0017 0.0148026 0)
(10.0046 0.0238539 0)
(10.0084 0.0320606 0)
(10.0124 0.0396617 0)
(10.0163 0.0469957 0)
(10.02 0.0543177 0)
(10.0233 0.0618249 0)
(10.0263 0.069709 0)
(10.0289 0.0781485 0)
(10.0313 0.0872898 0)
(10.0334 0.0972457 0)
(10.0354 0.1081 0)
(10.0374 0.119909 0)
(10.0395 0.132698 0)
(10.0419 0.146457 0)
(10.0447 0.161139 0)
(10.048 0.176735 0)
(10.0002 0.00443409 0)
(10.0015 0.0130851 0)
(10.0042 0.0212863 0)
(10.0077 0.02898 0)
(10.0117 0.0363234 0)
(10.0157 0.0435551 0)
(10.0197 0.0508822 0)
(10.0236 0.0584708 0)
(10.0273 0.06647 0)
(10.0309 0.0750137 0)
(10.0344 0.0842098 0)
(10.0379 0.0941368 0)
(10.0413 0.104846 0)
(10.045 0.116361 0)
(10.0488 0.128679 0)
(10.053 0.141774 0)
(10.0576 0.155581 0)
(10.0628 0.170094 0)
(10.0002 0.00376752 0)
(10.0014 0.0111619 0)
(10.004 0.0183328 0)
(10.0075 0.0252777 0)
(10.0115 0.0321118 0)
(10.0159 0.038998 0)
(10.0204 0.0460873 0)
(10.025 0.0535045 0)
(10.0297 0.0613552 0)
(10.0345 0.069728 0)
(10.0392 0.07869 0)
(10.0442 0.088284 0)
(10.0492 0.0985294 0)
(10.0545 0.109423 0)
(10.0602 0.120941 0)
(10.0662 0.133041 0)
(10.0726 0.145652 0)
(10.0796 0.158769 0)
(10.0002 0.00297136 0)
(10.0015 0.00885257 0)
(10.0041 0.0147079 0)
(10.0078 0.0205783 0)
(10.0122 0.0265574 0)
(10.0171 0.0327508 0)
(10.0224 0.0392529 0)
(10.0279 0.0461407 0)
(10.0337 0.0534753 0)
(10.0397 0.0613014 0)
(10.046 0.0696457 0)
(10.0524 0.0785165 0)
(10.0591 0.0879048 0)
(10.0662 0.0977856 0)
(10.0735 0.108119 0)
(10.0813 0.118854 0)
(10.0894 0.129918 0)
(10.0981 0.141309 0)
(10.0002 0.00193702 0)
(10.0017 0.00583122 0)
(10.0046 0.00988801 0)
(10.0087 0.0141917 0)
(10.0138 0.018824 0)
(10.0196 0.0238373 0)
(10.0259 0.029265 0)
(10.0326 0.0351335 0)
(10.0396 0.0414603 0)
(10.0471 0.0482494 0)
(10.0548 0.0554907 0)
(10.0628 0.0631625 0)
(10.0712 0.0712331 0)
(10.0798 0.0796615 0)
(10.0888 0.0883989 0)
(10.0982 0.0973914 0)
(10.1078 0.106571 0)
(10.1179 0.115936 0)
(10.0002 0.000831144 0)
(10.0019 0.00257649 0)
(10.0053 0.00464116 0)
(10.0102 0.0071742 0)
(10.0161 0.0102536 0)
(10.0228 0.013873 0)
(10.0301 0.0180072 0)
(10.0378 0.0226416 0)
(10.0461 0.0277575 0)
(10.0546 0.0333237 0)
(10.0636 0.0393012 0)
(10.0728 0.045648 0)
(10.0824 0.0523195 0)
(10.0922 0.0592672 0)
(10.1023 0.0664392 0)
(10.1128 0.0737833 0)
(10.1234 0.0812386 0)
(10.1344 0.0888034 0)
(10.0002 -0.000183572 0)
(10.0022 -0.000436996 0)
(10.0061 -0.000224934 0)
(10.0117 0.00072478 0)
(10.0184 0.00245903 0)
(10.0259 0.00486287 0)
(10.034 0.0078588 0)
(10.0427 0.0114219 0)
(10.0517 0.0155124 0)
(10.0612 0.0200644 0)
(10.0709 0.0250108 0)
(10.081 0.0302936 0)
(10.0914 0.0358596 0)
(10.102 0.0416557 0)
(10.1128 0.0476294 0)
(10.1239 0.0537304 0)
(10.1352 0.0599038 0)
(10.1468 0.0661447 0)
(10.0003 -0.00116324 0)
(10.0025 -0.00344448 0)
(10.007 -0.00513395 0)
(10.0134 -0.00567272 0)
(10.021 -0.00510495 0)
(10.0292 -0.00376087 0)
(10.0381 -0.00178632 0)
(10.0475 0.00080332 0)
(10.0573 0.00396016 0)
(10.0675 0.00759628 0)
(10.0779 0.011628 0)
(10.0886 0.0159865 0)
(10.0995 0.0206094 0)
(10.1107 0.0254366 0)
(10.122 0.0304136 0)
(10.1336 0.0354919 0)
(10.1453 0.0406224 0)
(10.1572 0.0457991 0)
(10.0002 -0.00205972 0)
(10.0026 -0.00640575 0)
(10.0078 -0.0100342 0)
(10.0153 -0.0119888 0)
(10.0238 -0.0125132 0)
(10.0327 -0.0121144 0)
(10.0422 -0.0109566 0)
(10.0523 -0.00910935 0)
(10.0627 -0.00670037 0)
(10.0735 -0.00384783 0)
(10.0844 -0.00062664 0)
(10.0956 0.00290414 0)
(10.107 0.00668293 0)
(10.1185 0.0106501 0)
(10.1302 0.0147507 0)
(10.1421 0.0189371 0)
(10.1541 0.0231661 0)
(10.1662 0.0274289 0)
(10.0002 -0.00284786 0)
(10.0025 -0.00956789 0)
(10.0086 -0.0147626 0)
(10.0173 -0.0176101 0)
(10.0267 -0.0192731 0)
(10.0363 -0.0201136 0)
(10.0464 -0.0198689 0)
(10.057 -0.0186164 0)
(10.0679 -0.0166859 0)
(10.079 -0.0143137 0)
(10.0903 -0.0116025 0)
(10.1018 -0.00861504 0)
(10.1135 -0.00541516 0)
(10.1254 -0.00206275 0)
(10.1373 0.00139052 0)
(10.1494 0.00490454 0)
(10.1615 0.00843907 0)
(10.1738 0.0119916 0)
(9.99999 -0.00315756 0)
(10.0024 -0.014078 0)
(10.0097 -0.0206223 0)
(10.0193 -0.022614 0)
(10.0289 -0.0242315 0)
(10.0391 -0.0261699 0)
(10.0501 -0.0273043 0)
(10.0615 -0.0272844 0)
(10.0729 -0.0263836 0)
(10.0845 -0.0248721 0)
(10.0962 -0.0228986 0)
(10.108 -0.0205706 0)
(10.12 -0.0179859 0)
(10.1321 -0.0152268 0)
(10.1443 -0.0123557 0)
(10.1566 -0.00941782 0)
(10.1689 -0.00645698 0)
(10.1813 -0.00348646 0)
(9.99897 -0.000825036 0)
(10.0005 -0.0185936 0)
(10.0108 -0.0301099 0)
(10.022 -0.0317002 0)
(10.0313 -0.0305947 0)
(10.0415 -0.029886 0)
(10.0532 -0.0294298 0)
(10.0657 -0.0289299 0)
(10.0781 -0.0282586 0)
(10.0906 -0.0273164 0)
(10.1031 -0.0260616 0)
(10.1156 -0.0245243 0)
(10.1282 -0.0227678 0)
(10.1408 -0.0208549 0)
(10.1534 -0.0188381 0)
(10.1661 -0.0167593 0)
(10.1787 -0.0146492 0)
(10.1913 -0.0124813 0)
(9.99499 0.00543436 0)
(9.99214 -0.011397 0)
(10.008 -0.0346085 0)
(10.0258 -0.0532737 0)
(10.039 -0.0640344 0)
(10.0511 -0.0669069 0)
(10.0641 -0.0653651 0)
(10.0777 -0.0622913 0)
(10.0913 -0.058883 0)
(10.1049 -0.0554219 0)
(10.1185 -0.0519612 0)
(10.132 -0.0485416 0)
(10.1453 -0.045201 0)
(10.1585 -0.0419663 0)
(10.1715 -0.0388585 0)
(10.1844 -0.0358951 0)
(10.1972 -0.0330851 0)
(10.2099 -0.0303774 0)
(9.99017 -0.0137707 0)
(9.9844 0.0235098 0)
(10.002 0.0618211 0)
(10.028 0.0655684 0)
(10.0542 0.0491696 0)
(10.0792 0.0295865 0)
(10.1018 0.0132985 0)
(10.1216 0.000791148 0)
(10.1392 -0.00861723 0)
(10.1551 -0.015522 0)
(10.1697 -0.0204453 0)
(10.183 -0.0238511 0)
(10.1952 -0.0261104 0)
(10.2065 -0.0275061 0)
(10.2168 -0.0282579 0)
(10.2265 -0.028556 0)
(10.2356 -0.0285527 0)
(10.2442 -0.0283816 0)
(10.035 -0.240501 0)
(10.1042 -0.409689 0)
(10.1393 -0.37908 0)
(10.1551 -0.308284 0)
(10.1709 -0.248344 0)
(10.1872 -0.20279 0)
(10.1983 -0.168442 0)
(10.2017 -0.142396 0)
(10.1977 -0.122331 0)
(10.1878 -0.106491 0)
(10.1735 -0.0936882 0)
(10.1558 -0.0831511 0)
(10.1358 -0.0743543 0)
(10.1143 -0.0669251 0)
(10.092 -0.0605941 0)
(10.0695 -0.055208 0)
(10.0472 -0.0506348 0)
(10.0257 -0.047172 0)
(9.93345 0.751681 0)
(9.84938 0.709564 0)
(9.71554 0.490349 0)
(9.53707 0.3194 0)
(9.34412 0.204286 0)
(9.15671 0.130901 0)
(8.98174 0.0839477 0)
(8.82111 0.0532315 0)
(8.67575 0.0328057 0)
(8.54571 0.0191652 0)
(8.43023 0.0101119 0)
(8.32811 0.00419443 0)
(8.23807 0.000431546 0)
(8.15889 -0.0018516 0)
(8.08934 -0.00312546 0)
(8.02831 -0.00375313 0)
(7.97437 -0.00397884 0)
(7.92706 -0.00439671 0)
(-0.0301387 0.109176 -4.75186e-20)
(0.116173 -0.143812 4.09933e-20)
(0.356797 -0.305293 0)
(0.634646 -0.369927 0)
(0.911018 -0.373144 0)
(1.16286 -0.344532 -2.90947e-20)
(1.37908 -0.301011 0)
(1.55593 -0.251139 0)
(1.69282 -0.19902 0)
(1.78997 -0.146264 0)
(1.84753 -0.0927598 2.76663e-20)
(1.8691 -0.0366721 0)
(1.84371 0.0204454 0)
(1.77622 0.0744372 0)
(1.67358 0.120053 0)
(1.54389 0.15228 2.87427e-20)
(1.39792 0.1674 0)
(1.24873 0.163897 0)
(1.10985 0.143443 0)
(0.992205 0.110964 0)
(0.900835 0.0737378 0)
(0.832496 0.0404465 0)
(0.776037 0.0188443 0)
(0.716542 0.0117176 3.25801e-20)
(0.639708 0.0166414 -3.31525e-20)
(0.533852 0.0307064 3.40693e-20)
(0.39027 0.055417 3.54915e-20)
(0.200138 0.096689 0)
(-0.0433825 0.156552 0)
(-0.347073 0.22656 -3.54898e-20)
(-0.705717 0.29685 -3.26916e-20)
(-1.10806 0.358138 0)
(-1.54085 0.404524 0)
(-1.99014 0.433553 -2.75677e-20)
(-2.44274 0.445446 0)
(-2.88725 0.442239 0)
(-3.31457 0.42697 2.63261e-20)
(-3.71808 0.402999 0)
(-4.09348 0.373517 2.65382e-20)
(-4.43853 0.341247 5.35396e-20)
(-4.75267 0.308322 0)
(-5.03657 0.276274 0)
(-5.29181 0.246102 0)
(-5.52045 0.218372 0)
(-5.72484 0.193318 0)
(-5.90739 0.170946 5.64982e-20)
(-6.0704 0.151116 5.68368e-20)
(-6.21605 0.133606 5.7117e-20)
(-6.34628 0.118154 0)
(-6.46282 0.104494 -5.75056e-20)
(-6.56717 0.0923718 0)
(-6.66062 0.0815547 5.7677e-20)
(-6.74426 0.0718375 5.76863e-20)
(-6.81902 0.0630432 0)
(-6.88566 0.055022 0)
(-6.94484 0.0476499 0)
(-6.99708 0.0408267 5.72559e-20)
(-7.04282 0.0344746 0)
(-7.08241 0.0285385 0)
(-7.11612 0.0229843 0)
(-7.14419 0.0178008 0)
(-7.16678 0.0130097 0)
(-7.18404 0.00863874 0)
(-7.19611 0.00474721 0)
(-7.20306 0.00138199 0)
(-7.20584 -0.00155215 -5.37231e-20)
(-7.20467 -0.00431734 0)
(-7.19958 -0.00708143 0)
(-7.19046 -0.00993772 5.15958e-20)
(-7.17715 -0.0129501 5.07603e-20)
(-7.15938 -0.0161739 0)
(-7.13682 -0.019664 -4.88737e-20)
(-7.10904 -0.0234785 4.78108e-20)
(-7.07554 -0.0276802 0)
(-7.03571 -0.0323374 -4.54077e-20)
(-6.98885 -0.0375246 0)
(-6.93411 -0.0433223 0)
(-6.87053 -0.0498166 4.09517e-20)
(-6.797 -0.0570973 0)
(-6.71227 -0.0652561 -3.72467e-20)
(-6.61492 -0.0743825 0)
(-6.50338 -0.0845587 3.27723e-20)
(-6.37596 -0.0958524 3.0185e-20)
(-6.23082 -0.108307 2.73263e-20)
(-6.0661 -0.121932 4.83301e-20)
(-5.87988 -0.136686 -4.13372e-20)
(-5.67035 -0.152465 0)
(-5.43592 -0.169089 0)
(-5.17531 -0.186289 0)
(-4.88776 -0.203703 -5.39495e-21)
(-4.57321 -0.220878 5.84173e-21)
(-4.23241 -0.237285 -1.80361e-20)
(-3.86709 -0.252351 0)
(-3.48001 -0.265497 4.52558e-20)
(-3.07493 -0.276189 6.02046e-20)
(-2.65646 -0.283981 7.59619e-20)
(-2.22989 -0.288539 0)
(-1.8009 -0.289628 0)
(-1.3753 -0.287049 0)
(-0.95872 -0.280539 1.45357e-19)
(-0.556162 -0.269662 0)
(-0.170927 -0.253709 0)
(0.195045 -0.233804 -1.79045e-19)
(0.540818 -0.213087 0)
(0.864582 -0.19326 0)
(1.16516 -0.174617 -1.61583e-19)
(1.44278 -0.157278 0)
(1.69818 -0.141305 0)
(1.93235 -0.126699 1.45971e-19)
(2.14652 -0.113418 1.41327e-19)
(2.34198 -0.101393 0)
(2.52006 -0.090538 -1.32899e-19)
(2.68205 -0.0807587 0)
(2.8292 -0.0719579 1.25559e-19)
(2.9627 -0.0640413 0)
(3.08364 -0.0569199 1.19209e-19)
(3.19302 -0.0505122 1.1637e-19)
(3.29177 -0.0447447 0)
(3.38076 -0.0395519 0)
(3.46076 -0.0348759 0)
(3.5325 -0.0306661 0)
(3.59664 -0.0268781 0)
(3.65382 -0.0234732 0)
(3.70459 -0.0204172 0)
(3.74952 -0.0176798 1.00064e-19)
(3.78911 -0.0152341 -9.86615e-20)
(3.82383 -0.0130556 0)
(3.85414 -0.011122 0)
(3.88046 -0.00941214 0)
(3.90321 -0.00790617 0)
(3.92274 -0.00658457 -1.8628e-19)
(3.93943 -0.00542854 0)
(3.95359 -0.00441984 1.82985e-19)
(3.96552 -0.00353004 -1.81529e-19)
(3.97548 -0.00271555 0)
(3.9836 -0.00199383 0)
(3.99038 -0.00119691 0)
(3.99512 -0.000173834 1.76757e-19)
(3.9972 0.00119604 1.75797e-19)
(3.99646 0.00283669 0)
(3.99306 0.00448712 1.7418e-19)
(3.98725 0.00596867 1.73503e-19)
(3.97935 0.00719261 -1.72899e-19)
(3.96968 0.00814453 0)
(3.95856 0.00884235 0)
(3.94626 0.00931886 -1.71431e-19)
(3.93302 0.00961098 0)
(3.91904 0.00974974 0)
(3.90451 0.00975863 0)
(3.88958 0.00965523 0)
(3.87439 0.00945312 1.69662e-19)
(3.8591 0.00916369 1.69356e-19)
(3.8438 0.00879768 0)
(3.82862 0.00836607 1.68758e-19)
(3.81363 0.00788066 0)
(3.79892 0.00735428 0)
(3.78454 0.00680079 1.67844e-19)
(3.77053 0.00623482 0)
(3.75693 0.00567144 1.672e-19)
(3.74374 0.00512578 0)
(3.73095 0.00461261 0)
(3.71854 0.00414597 1.66167e-19)
(3.70646 0.00373892 0)
(3.69463 0.00340353 1.65447e-19)
(3.68297 0.00315117 0)
(3.67133 0.00299319 0)
(3.65954 0.00294192 0)
(3.64737 0.00301242 -1.64051e-19)
(3.63452 0.00322507 0)
(3.62061 0.0036087 1.63486e-19)
(3.60509 0.00420522 0)
(3.58726 0.00507743 0)
(3.56611 0.00632131 0)
(3.5402 0.00808846 0)
(3.50752 0.0106266 0)
(3.46456 0.0143376 0)
(3.40753 0.0200869 0)
(3.32268 0.0286219 -3.33642e-19)
(3.21814 0.0463902 0)
(2.96735 0.0629789 0)
(0.13456 -0.239497 1.28873e-19)
(0.38467 -0.700156 -9.89189e-20)
(0.641714 -0.867844 0)
(0.870075 -0.859777 5.11173e-20)
(1.05859 -0.775579 0)
(1.21247 -0.664174 2.22679e-20)
(1.33733 -0.545517 -4.61697e-20)
(1.43573 -0.427166 -4.61084e-20)
(1.50872 -0.311839 0)
(1.55731 -0.20023 -4.69842e-20)
(1.58243 -0.0919789 -2.3157e-20)
(1.58372 0.0139203 0)
(1.57168 0.115493 0)
(1.54209 0.209463 0)
(1.49058 0.290977 0)
(1.41399 0.353882 -2.40757e-20)
(1.31094 0.391441 0)
(1.18319 0.398191 4.87282e-20)
(1.03575 0.373607 0)
(0.874423 0.326161 0)
(0.701687 0.274207 -4.8349e-20)
(0.514155 0.24068 0)
(0.303784 0.243326 4.96472e-20)
(0.0604875 0.287834 -2.57298e-20)
(-0.227161 0.369983 2.4864e-20)
(-0.568159 0.482516 -2.31594e-20)
(-0.964109 0.616273 -2.15271e-20)
(-1.4086 0.757885 0)
(-1.88589 0.89084 0)
(-2.37732 1.00051 1.76272e-20)
(-2.86512 1.0779 -1.7467e-20)
(-3.33431 1.11918 0)
(-3.77342 1.12535 0)
(-4.17465 1.10089 1.61436e-20)
(-4.53385 1.05221 0)
(-4.85012 0.986311 0)
(-5.1251 0.90986 -1.72815e-20)
(-5.3622 0.828565 0)
(-5.56577 0.746917 1.99778e-20)
(-5.74053 0.668163 -3.81366e-20)
(-5.89107 0.594423 0)
(-6.02151 0.526895 0)
(-6.13541 0.466066 -8.46297e-20)
(-6.23572 0.411924 -8.62214e-20)
(-6.32482 0.364128 -8.76653e-20)
(-6.40456 0.322144 4.49947e-20)
(-6.47639 0.285354 -4.46411e-20)
(-6.54144 0.253114 -1.36407e-19)
(-6.60055 0.224811 9.20978e-20)
(-6.6544 0.199876 4.61971e-20)
(-6.70351 0.177804 0)
(-6.74829 0.158156 -4.6912e-20)
(-6.78911 0.140553 4.75372e-20)
(-6.82622 0.12467 0)
(-6.85989 0.110233 0)
(-6.89032 0.0970109 0)
(-6.9177 0.0848054 -4.77701e-20)
(-6.94219 0.0734492 0)
(-6.96396 0.0628011 9.58171e-20)
(-6.98313 0.052744 0)
(-6.99985 0.0431885 9.54335e-20)
(-7.01422 0.0340811 0)
(-7.02635 0.0254072 -9.46427e-20)
(-7.03624 0.0171867 0)
(-7.04383 0.00943339 9.33748e-20)
(-7.04817 0.00204404 -4.64027e-20)
(-7.04878 -0.00519862 0)
(-7.04543 -0.0124698 -9.04699e-20)
(-7.03785 -0.0199071 -4.44537e-20)
(-7.02581 -0.0276291 -4.37664e-20)
(-7.00903 -0.0357509 0)
(-6.98715 -0.0443927 -4.26326e-20)
(-6.95978 -0.0536835 -4.12445e-20)
(-6.92643 -0.0637649 0)
(-6.88654 -0.0747924 3.91194e-20)
(-6.83944 -0.0869362 -7.6509e-20)
(-6.78434 -0.100381 0)
(-6.72035 -0.115325 -3.51018e-20)
(-6.64643 -0.131975 0)
(-6.56139 -0.150543 9.63307e-20)
(-6.4639 -0.171235 0)
(-6.35246 -0.19424 -8.4487e-20)
(-6.22545 -0.219711 -2.53799e-20)
(-6.08111 -0.247742 2.45752e-20)
(-5.91759 -0.278341 4.39712e-20)
(-5.73302 -0.311395 -3.82994e-20)
(-5.52559 -0.346637 0)
(-5.29365 -0.383606 0)
(-5.03589 -0.421624 0)
(-4.75147 -0.459782 1.86037e-20)
(-4.44019 -0.496946 -4.57811e-21)
(-4.10272 -0.5318 1.39598e-20)
(-3.74066 -0.562925 0)
(-3.35669 -0.588916 2.74151e-20)
(-2.95446 -0.608516 -4.47427e-20)
(-2.53855 -0.620764 -5.56579e-20)
(-2.11417 -0.625103 0)
(-1.68683 -0.621432 0)
(-1.26205 -0.610081 0)
(-0.844937 -0.591715 -1.00737e-19)
(-0.439707 -0.567162 0)
(-0.0495051 -0.537032 2.33568e-19)
(0.321902 -0.502382 3.57904e-19)
(0.672272 -0.465754 -2.36094e-19)
(1.0004 -0.429039 0)
(1.30599 -0.393209 -1.14041e-19)
(1.58934 -0.358892 0)
(1.8511 -0.326496 -2.25277e-19)
(2.09223 -0.29625 1.09483e-19)
(2.31387 -0.268251 1.07712e-19)
(2.51724 -0.242494 0)
(2.70362 -0.218907 3.15872e-19)
(2.87422 -0.197374 -2.0616e-19)
(3.03024 -0.177755 -1.01939e-19)
(3.17279 -0.159898 0)
(3.30292 -0.143654 -9.82709e-20)
(3.42159 -0.128877 -2.8869e-19)
(3.52969 -0.115435 0)
(3.62804 -0.103206 -1.86053e-19)
(3.71739 -0.0920814 -1.83272e-19)
(3.79843 -0.0819638 -1.80661e-19)
(3.8718 -0.0727685 0)
(3.93812 -0.0644203 0)
(3.99792 -0.0568528 0)
(4.05175 -0.0500072 8.57196e-20)
(4.10009 -0.0438308 8.51811e-20)
(4.1434 -0.0382757 0)
(4.18214 -0.0332981 1.66755e-19)
(4.21672 -0.0288569 1.65317e-19)
(4.24755 -0.0249132 0)
(4.27499 -0.0214291 1.62982e-19)
(4.29942 -0.0183671 3.23335e-19)
(4.32118 -0.0156892 -1.60811e-19)
(4.34057 -0.0133505 -1.59572e-19)
(4.35791 -0.0112943 0)
(4.37352 -0.00948709 0)
(4.38748 -0.00778775 0)
(4.40068 -0.00607214 -1.56848e-19)
(4.41384 -0.00427555 1.56032e-19)
(4.42712 -0.0024898 3.11167e-19)
(4.44039 -0.00075945 -1.55137e-19)
(4.45349 0.000814663 1.54473e-19)
(4.46624 0.00218644 1.54178e-19)
(4.47849 0.00336783 0)
(4.49014 0.00437644 0)
(4.50117 0.00522845 -1.52921e-19)
(4.51155 0.00594015 0)
(4.52129 0.00652768 0)
(4.53037 0.00700549 3.04224e-19)
(4.5388 0.00738671 0)
(4.54655 0.00768386 1.51605e-19)
(4.55358 0.00790912 -1.51466e-19)
(4.55986 0.00807421 0)
(4.56533 0.0081901 1.51011e-19)
(4.56993 0.00826655 0)
(4.57359 0.00831182 0)
(4.57624 0.00833255 -1.50536e-19)
(4.57783 0.00833377 3.0068e-19)
(4.57831 0.00831937 -1.5019e-19)
(4.57765 0.0082927 0)
(4.57585 0.00825752 0)
(4.57291 0.00821897 1.49625e-19)
(4.56887 0.00818468 0)
(4.56377 0.0081659 1.49257e-19)
(4.55769 0.00817855 0)
(4.55069 0.00824448 0)
(4.54283 0.00839293 0)
(4.53415 0.00866258 1.48531e-19)
(4.52468 0.0091047 0)
(4.51438 0.00978784 -1.48193e-19)
(4.50316 0.0108055 0)
(4.49084 0.0122888 0)
(4.47712 0.0144298 2.95722e-19)
(4.46152 0.0175148 -2.95743e-19)
(4.44343 0.0220198 0)
(4.42143 0.0286408 0)
(4.39514 0.0390363 0)
(4.35763 0.0544581 8.9573e-19)
(4.3202 0.0853774 0)
(4.22967 0.123094 -6.02756e-19)
(0.177866 -0.876167 3.05118e-21)
(0.415725 -1.35435 1.2102e-19)
(0.606321 -1.33879 0)
(0.749934 -1.19619 -9.50567e-20)
(0.860823 -1.03184 0)
(0.950749 -0.867567 0)
(1.02378 -0.70661 -1.69487e-21)
(1.07978 -0.549284 4.25258e-20)
(1.11752 -0.395972 4.43848e-20)
(1.13593 -0.247508 4.38091e-20)
(1.13439 -0.104958 0)
(1.11285 0.0312369 0)
(1.0729 0.162549 -4.62008e-20)
(1.01598 0.288807 -9.25145e-20)
(0.943035 0.406917 9.26507e-20)
(0.853532 0.510221 0)
(0.745282 0.589603 9.22807e-20)
(0.614827 0.637426 -4.51386e-20)
(0.457486 0.654362 0)
(0.266946 0.65411 9.00455e-20)
(0.0358898 0.660625 4.3643e-20)
(-0.242281 0.698994 -8.25495e-20)
(-0.571197 0.783681 -3.79231e-20)
(-0.949784 0.914648 0)
(-1.37136 1.07991 6.6343e-20)
(-1.82306 1.25999 6.27595e-20)
(-2.28707 1.43332 0)
(-2.74346 1.58044 5.81108e-20)
(-3.17359 1.6873 0)
(-3.56342 1.74653 5.66227e-20)
(-3.90516 1.7571 2.61014e-20)
(-4.19695 1.72316 0)
(-4.44163 1.65246 0)
(-4.64509 1.55448 0)
(-4.8147 1.43888 0)
(-4.95796 1.31438 0)
(-5.08164 1.18815 0)
(-5.19122 1.06557 6.54086e-20)
(-5.29084 0.950278 -9.85427e-20)
(-5.38337 0.844409 0)
(-5.47064 0.748916 0)
(-5.55371 0.663888 0)
(-5.63312 0.588838 -1.54022e-21)
(-5.70908 0.522947 7.12388e-20)
(-5.78165 0.465236 1.459e-19)
(-5.85077 0.414691 -1.47885e-19)
(-5.91641 0.370339 -7.52327e-20)
(-5.97853 0.331291 7.5386e-20)
(-6.03713 0.296758 5.5168e-22)
(-6.09223 0.266057 7.74365e-20)
(-6.14391 0.238607 0)
(-6.19223 0.213913 7.86319e-20)
(-6.2373 0.191562 3.6647e-22)
(-6.27922 0.171206 0)
(-6.3181 0.152554 0)
(-6.35405 0.13536 -8.03736e-20)
(-6.38714 0.119414 0)
(-6.41747 0.104536 0)
(-6.4451 0.0905653 8.13958e-20)
(-6.47005 0.0773532 1.62392e-19)
(-6.49232 0.0647552 -8.09181e-20)
(-6.51188 0.052621 0)
(-6.52862 0.0407949 8.07647e-20)
(-6.54241 0.0291105 0)
(-6.55313 0.0174104 8.10198e-20)
(-6.56065 0.00557842 7.97697e-20)
(-6.56484 -0.00643972 -1.59223e-19)
(-6.56553 -0.0187312 -7.93859e-20)
(-6.5625 -0.0314191 0)
(-6.5555 -0.0446486 1.54495e-19)
(-6.54423 -0.0585804 0)
(-6.52834 -0.0733916 2.24473e-19)
(-6.50742 -0.089277 1.47341e-19)
(-6.48098 -0.106452 1.44315e-19)
(-6.44846 -0.125156 -1.40924e-19)
(-6.4092 -0.145649 2.04903e-19)
(-6.36245 -0.168218 0)
(-6.30733 -0.193169 0)
(-6.24282 -0.220825 -1.23051e-19)
(-6.16779 -0.251515 -1.74767e-19)
(-6.08093 -0.285563 0)
(-5.98077 -0.323264 5.05154e-20)
(-5.8657 -0.364861 0)
(-5.73393 -0.410503 -1.29833e-19)
(-5.5836 -0.460202 3.86649e-21)
(-5.41272 -0.51378 -4.19664e-21)
(-5.21937 -0.570803 5.70542e-20)
(-5.0017 -0.630528 0)
(-4.75815 -0.691852 -3.18523e-20)
(-4.48762 -0.753285 5.28899e-21)
(-4.18964 -0.812962 0)
(-3.8646 -0.868709 0)
(-3.5139 -0.91817 0)
(-3.14012 -0.959007 -5.25535e-20)
(-2.74694 -0.989131 0)
(-2.33906 -1.00695 0)
(-1.9219 -1.01158 0)
(-1.50126 -1.00295 0)
(-1.08288 -0.981809 0)
(-0.672009 -0.94966 -1.56007e-19)
(-0.272983 -0.908544 0)
(0.110603 -0.860507 -1.86489e-19)
(0.475309 -0.807634 -1.88885e-19)
(0.819247 -0.752265 1.90092e-19)
(1.14136 -0.696234 0)
(1.44144 -0.640997 1.89788e-19)
(1.7198 -0.587641 0)
(1.97717 -0.536906 1.87012e-19)
(2.21451 -0.489246 -1.85044e-19)
(2.43298 -0.444883 -5.44856e-19)
(2.63379 -0.403871 0)
(2.81816 -0.366142 -5.30997e-19)
(2.98729 -0.331548 -1.72798e-19)
(3.14232 -0.299899 0)
(3.28431 -0.27098 -3.3882e-19)
(3.41426 -0.244572 -3.34212e-19)
(3.53309 -0.220464 4.9551e-19)
(3.64165 -0.198457 0)
(3.7407 -0.178367 1.614e-19)
(3.83097 -0.160031 1.59381e-19)
(3.91311 -0.143301 4.71231e-19)
(3.98775 -0.128048 0)
(4.05545 -0.114155 0)
(4.11675 -0.101521 0)
(4.17215 -0.090054 1.50216e-19)
(4.22213 -0.0796737 0)
(4.26713 -0.0703057 0)
(4.30758 -0.0618821 -1.47332e-19)
(4.34389 -0.05434 -1.46304e-19)
(4.37644 -0.0476194 0)
(4.40561 -0.0416629 0)
(4.43174 -0.036414 -2.87511e-19)
(4.45518 -0.0318155 0)
(4.47624 -0.027808 2.84909e-19)
(4.49523 -0.0243308 2.83527e-19)
(4.51245 -0.0213174 0)
(4.52813 -0.0187327 0)
(4.54257 -0.0164865 -2.81091e-19)
(4.55616 -0.0144887 -2.01829e-22)
(4.5693 -0.012665 -1.86618e-22)
(4.58229 -0.010908 0)
(4.59526 -0.00924096 -5.58804e-19)
(4.60833 -0.00769796 0)
(4.62154 -0.00630567 0)
(4.63489 -0.00506498 0)
(4.64837 -0.0039697 2.78786e-19)
(4.66199 -0.00301213 0)
(4.67572 -0.00217903 -5.57386e-19)
(4.68955 -0.00145192 -2.78893e-19)
(4.70344 -0.000810333 0)
(4.71734 -0.000233214 -2.79173e-19)
(4.73119 0.000300294 0)
(4.74492 0.000809891 0)
(4.75844 0.00131337 -8.39152e-19)
(4.77165 0.00182569 5.59829e-19)
(4.78442 0.00235813 0)
(4.79665 0.00291787 5.607e-19)
(4.8082 0.00350773 -2.80613e-19)
(4.81895 0.00412648 0)
(4.82877 0.00476963 0)
(4.83756 0.00543075 0)
(4.8452 0.00610327 -8.43328e-19)
(4.85162 0.00678252 0)
(4.85675 0.00746806 -2.81217e-19)
(4.86052 0.00816606 0)
(4.86291 0.00889191 0)
(4.86387 0.00967286 0)
(4.86338 0.0105512 0)
(4.86141 0.0115885 0)
(4.85788 0.0128711 0)
(4.85269 0.0145203 -5.61387e-19)
(4.84568 0.0167064 0)
(4.83657 0.0196769 -2.80833e-19)
(4.82496 0.023792 8.42658e-19)
(4.8103 0.0296404 0)
(4.79158 0.0380577 0)
(4.7683 0.0509214 -5.64379e-19)
(4.73699 0.0699974 -5.67764e-19)
(4.70388 0.104442 5.67646e-19)
(4.65137 0.153657 5.72166e-19)
(0.149304 -1.45573 -2.24537e-19)
(0.315634 -1.7402 -1.7802e-19)
(0.416504 -1.57035 -1.04218e-19)
(0.493419 -1.37283 -4.90144e-20)
(0.558899 -1.18241 0)
(0.613983 -0.993992 8.68096e-20)
(0.657218 -0.804855 -4.40744e-20)
(0.686556 -0.614969 0)
(0.700026 -0.425632 -4.30442e-20)
(0.696028 -0.238853 0)
(0.673522 -0.0569533 9.18819e-20)
(0.631755 0.1178 0)
(0.57037 0.284357 4.5581e-20)
(0.489925 0.442264 9.14917e-20)
(0.391096 0.590191 -9.17023e-20)
(0.273652 0.724608 0)
(0.13522 0.840408 -9.08875e-20)
(-0.0292752 0.934914 0)
(-0.228042 1.01445 0)
(-0.469909 1.09506 -7.389e-20)
(-0.761456 1.19581 0)
(-1.10319 1.32996 -1.81213e-21)
(-1.48767 1.49832 0)
(-1.89997 1.68844 0)
(-2.31995 1.87893 2.71516e-21)
(-2.7259 2.04621 -5.0359e-20)
(-3.09859 2.17108 -5.28167e-20)
(-3.42464 2.24238 -4.81786e-20)
(-3.69798 2.25762 0)
(-3.9194 2.22117 -1.01376e-19)
(-4.09477 2.14172 0)
(-4.23289 2.03001 -5.45892e-20)
(-4.34339 1.89693 0)
(-4.43526 1.75229 0)
(-4.51584 1.60412 5.70729e-20)
(-4.59059 1.45847 0)
(-4.66304 1.31949 -5.87631e-20)
(-4.73523 1.18975 2.80538e-21)
(-4.808 1.07056 1.18446e-19)
(-4.88142 0.962313 -1.22572e-19)
(-4.9551 0.864813 0)
(-5.02844 0.777465 0)
(-5.10075 0.699464 -6.51332e-20)
(-5.17141 0.629912 0)
(-5.23987 0.567893 -6.41781e-20)
(-5.3057 0.512528 6.5031e-20)
(-5.36859 0.463 6.58342e-20)
(-5.42832 0.418568 0)
(-5.48476 0.378571 -6.72968e-20)
(-5.53785 0.342429 -6.79588e-20)
(-5.5876 0.309631 1.38329e-19)
(-5.63404 0.279736 -6.9151e-20)
(-5.67723 0.252357 -6.9683e-20)
(-5.71725 0.22716 0)
(-5.75419 0.20385 0)
(-5.78814 0.182169 7.10291e-20)
(-5.81919 0.161889 0)
(-5.84741 0.142803 0)
(-5.87287 0.124726 -1.43984e-19)
(-5.89562 0.107485 -1.44444e-19)
(-5.91571 0.0909215 0)
(-5.93315 0.0748811 0)
(-5.94794 0.0592073 0)
(-5.96006 0.0437377 0)
(-5.96948 0.0282988 -1.45099e-19)
(-5.97617 0.0127298 1.45666e-19)
(-5.98006 -0.00311067 1.44001e-19)
(-5.98101 -0.0193743 2.87502e-19)
(-5.97888 -0.036233 0)
(-5.97346 -0.0538799 1.2375e-21)
(-5.96448 -0.072529 0)
(-5.95165 -0.0924174 -1.37773e-19)
(-5.9346 -0.113808 1.49146e-21)
(-5.91287 -0.136992 -1.33417e-19)
(-5.88597 -0.162295 1.30724e-19)
(-5.85327 -0.190073 1.87856e-21)
(-5.81408 -0.220719 0)