/*--------------------------------*- C++ -*----------------------------------*\
| =========                 |                                                 |
| \\      /  F ield         | OpenFOAM: The Open Source CFD Toolbox           |
|  \\    /   O peration     | Version:  2112                                  |
|   \\  /    A nd           | Website:  www.openfoam.com                      |
|    \\/     M anipulation  |                                                 |
\*---------------------------------------------------------------------------*/
FoamFile
{
    version     2.0;
    format      ascii;
    arch        "LSB;label=32;scalar=64";
    class       volVectorField;
    location    "0.56";
    object      U_0;
}
// * * * * * * * * * * * * * * * * * * * * * * * * * * * * * * * * * * * * * //

dimensions      [0 1 -1 0 0 0 0];

internalField   nonuniform List<vector> 
12225
(
(9.76438 0.0674182 0)
(9.27356 0.109001 0)
(8.73474 0.118705 0)
(8.18554 0.120621 0)
(7.662 0.116937 0)
(7.18171 0.10842 0)
(6.75607 0.0965289 0)
(6.39401 0.0826482 0)
(6.0997 0.0680423 0)
(5.87159 0.0538925 0)
(5.70341 0.0411256 0)
(5.5859 0.0302994 0)
(5.50847 0.0216343 0)
(5.46083 0.015233 0)
(5.4325 0.0111044 0)
(5.41916 0.00998045 0)
(5.39615 0.0263701 0)
(5.37266 -0.00130361 0)
(10.0957 0.0741224 0)
(10.284 0.108924 0)
(10.4001 0.11689 0)
(10.451 0.125039 0)
(10.4469 0.129907 0)
(10.392 0.129369 0)
(10.2927 0.123683 0)
(10.1581 0.113521 0)
(9.9975 0.0998945 0)
(9.81899 0.0842448 0)
(9.62897 0.0681142 0)
(9.43243 0.0527896 0)
(9.23329 0.0391195 0)
(9.03472 0.0276715 0)
(8.83966 0.018259 0)
(8.65094 0.0132735 0)
(8.475 0.0110361 0)
(8.33402 0.0342839 0)
(10.0193 0.0415508 0)
(10.0733 0.0684551 0)
(10.1286 0.0844303 0)
(10.1827 0.101914 0)
(10.2398 0.116227 0)
(10.2957 0.125773 0)
(10.3438 0.130959 0)
(10.3811 0.132449 0)
(10.4054 0.131079 0)
(10.4157 0.128036 0)
(10.4126 0.124582 0)
(10.3976 0.121701 0)
(10.3726 0.11995 0)
(10.3395 0.11946 0)
(10.3004 0.120029 0)
(10.2569 0.121052 0)
(10.2141 0.122176 0)
(10.1673 0.115155 0)
(10.0104 0.0334878 0)
(10.0434 0.0654507 0)
(10.0731 0.0821397 0)
(10.0985 0.0957666 0)
(10.1258 0.10597 0)
(10.1556 0.112011 0)
(10.1859 0.114529 0)
(10.2148 0.114102 0)
(10.2414 0.111327 0)
(10.2648 0.107094 0)
(10.285 0.102368 0)
(10.3024 0.0979131 0)
(10.3175 0.0942038 0)
(10.3312 0.0914091 0)
(10.3444 0.0893656 0)
(10.358 0.0875851 0)
(10.3732 0.0851525 0)
(10.3899 0.0753354 0)
(10.0063 0.028072 0)
(10.0321 0.0594435 0)
(10.0569 0.0755985 0)
(10.078 0.0884594 0)
(10.0997 0.098413 0)
(10.1225 0.104541 0)
(10.1449 0.107299 0)
(10.1661 0.107375 0)
(10.1858 0.105478 0)
(10.2037 0.102423 0)
(10.2197 0.0989787 0)
(10.2341 0.0957363 0)
(10.2477 0.0930718 0)
(10.2613 0.0911203 0)
(10.2756 0.0896284 0)
(10.2913 0.0879159 0)
(10.3089 0.0848847 0)
(10.3288 0.0779633 0)
(10.0039 0.0230475 0)
(10.0244 0.0526854 0)
(10.0469 0.0694527 0)
(10.0669 0.0823344 0)
(10.0871 0.0920136 0)
(10.1078 0.0979323 0)
(10.128 0.100615 0)
(10.147 0.100824 0)
(10.1647 0.0991722 0)
(10.1808 0.0963335 0)
(10.1955 0.0929647 0)
(10.2091 0.0896136 0)
(10.2221 0.0865947 0)
(10.235 0.0839033 0)
(10.2486 0.0812491 0)
(10.2631 0.0780946 0)
(10.2788 0.0735171 0)
(10.2953 0.0657261 0)
(10.0026 0.01917 0)
(10.0188 0.0463989 0)
(10.0389 0.0630771 0)
(10.058 0.0756881 0)
(10.0772 0.0850205 0)
(10.0968 0.0907851 0)
(10.1159 0.0935274 0)
(10.134 0.0939261 0)
(10.1509 0.0925505 0)
(10.1665 0.0900212 0)
(10.1808 0.0869416 0)
(10.1943 0.0837427 0)
(10.2072 0.0806485 0)
(10.22 0.0776247 0)
(10.2331 0.0744468 0)
(10.2469 0.0706398 0)
(10.2612 0.0654261 0)
(10.2756 0.0576925 0)
(10.0018 0.0161038 0)
(10.0147 0.0408134 0)
(10.0323 0.0568668 0)
(10.0501 0.0688817 0)
(10.0684 0.0778049 0)
(10.087 0.0833586 0)
(10.1053 0.0860662 0)
(10.1226 0.0865946 0)
(10.139 0.0854708 0)
(10.1542 0.0832268 0)
(10.1683 0.0803584 0)
(10.1816 0.0772228 0)
(10.1944 0.0740092 0)
(10.2071 0.0706958 0)
(10.2199 0.0670445 0)
(10.2329 0.0626558 0)
(10.246 0.0569936 0)
(10.259 0.0494382 0)
(10.0013 0.0135944 0)
(10.0116 0.0357476 0)
(10.027 0.0509058 0)
(10.0434 0.0621789 0)
(10.0606 0.0705672 0)
(10.0783 0.0759034 0)
(10.0957 0.0785561 0)
(10.1123 0.079125 0)
(10.128 0.0781456 0)
(10.1427 0.0760918 0)
(10.1566 0.073369 0)
(10.1697 0.0702717 0)
(10.1823 0.06695 0)
(10.1946 0.0633804 0)
(10.207 0.0593766 0)
(10.2193 0.0546391 0)
(10.2315 0.0487923 0)
(10.2432 0.0414992 0)
(10.001 0.0114932 0)
(10.0094 0.031107 0)
(10.0227 0.0451609 0)
(10.0378 0.055581 0)
(10.0537 0.0632883 0)
(10.0703 0.0683044 0)
(10.0869 0.0708859 0)
(10.1028 0.071508 0)
(10.1179 0.0706522 0)
(10.1322 0.0687334 0)
(10.1456 0.0661065 0)
(10.1584 0.0630284 0)
(10.1707 0.0596244 0)
(10.1827 0.0558716 0)
(10.1945 0.0516316 0)
(10.2061 0.0466911 0)
(10.2174 0.0408038 0)
(10.2282 0.0338167 0)
(10.0008 0.00970561 0)
(10.0076 0.0268489 0)
(10.0193 0.0396284 0)
(10.033 0.0491076 0)
(10.0477 0.0560671 0)
(10.0631 0.0606152 0)
(10.0787 0.0630046 0)
(10.094 0.063639 0)
(10.1085 0.0628794 0)
(10.1224 0.0610794 0)
(10.1355 0.0585538 0)
(10.1479 0.0555168 0)
(10.1599 0.0520563 0)
(10.1714 0.0481651 0)
(10.1827 0.0437698 0)
(10.1936 0.038733 0)
(10.2041 0.0329094 0)
(10.214 0.026257 0)
(10.0006 0.00826399 0)
(10.0065 0.0232353 0)
(10.0168 0.0347318 0)
(10.0293 0.0432812 0)
(10.0429 0.0495135 0)
(10.0573 0.0535799 0)
(10.072 0.0556986 0)
(10.0864 0.0562167 0)
(10.1004 0.0554689 0)
(10.1138 0.053747 0)
(10.1266 0.051302 0)
(10.1388 0.0483055 0)
(10.1505 0.0448388 0)
(10.1617 0.0409123 0)
(10.1724 0.036461 0)
(10.1828 0.0314145 0)
(10.1926 0.0257138 0)
(10.2018 0.0193801 0)
(10.0005 0.00698928 0)
(10.0055 0.0198834 0)
(10.0147 0.0300256 0)
(10.0261 0.0376012 0)
(10.0388 0.0430813 0)
(10.0522 0.046628 0)
(10.0659 0.0484321 0)
(10.0796 0.0487878 0)
(10.0929 0.0479815 0)
(10.1058 0.0462607 0)
(10.1181 0.0438357 0)
(10.13 0.0408608 0)
(10.1413 0.0374176 0)
(10.1522 0.0335073 0)
(10.1627 0.0290869 0)
(10.1726 0.0241313 0)
(10.1818 0.0186105 0)
(10.1905 0.0125863 0)
(10.0005 0.00569278 0)
(10.0047 0.0163232 0)
(10.0127 0.0248664 0)
(10.0231 0.0312709 0)
(10.0347 0.0358462 0)
(10.047 0.038747 0)
(10.0598 0.0401341 0)
(10.0726 0.0402425 0)
(10.0852 0.039309 0)
(10.0974 0.0375377 0)
(10.1092 0.0350979 0)
(10.1205 0.0321142 0)
(10.1314 0.0286607 0)
(10.1418 0.0247702 0)
(10.1518 0.0204423 0)
(10.1612 0.0156512 0)
(10.1701 0.0103905 0)
(10.1783 0.00474866 0)
(10.0004 0.00436503 0)
(10.004 0.0125718 0)
(10.011 0.0192731 0)
(10.0202 0.0242895 0)
(10.0307 0.0277876 0)
(10.042 0.0298964 0)
(10.0538 0.0307434 0)
(10.0657 0.0305044 0)
(10.0774 0.0293633 0)
(10.0889 0.0274805 0)
(10.1 0.024988 0)
(10.1107 0.0219853 0)
(10.1209 0.0185385 0)
(10.1308 0.014686 0)
(10.1401 0.0104489 0)
(10.149 0.00584687 0)
(10.1572 0.000902038 0)
(10.165 -0.00430674 0)
(10.0003 0.00299594 0)
(10.0034 0.00863864 0)
(10.0094 0.0132635 0)
(10.0176 0.0166604 0)
(10.0271 0.0188899 0)
(10.0374 0.0200403 0)
(10.0481 0.0202031 0)
(10.059 0.0194992 0)
(10.0699 0.0180592 0)
(10.0806 0.0160005 0)
(10.091 0.0134205 0)
(10.101 0.0103955 0)
(10.1106 0.00698205 0)
(10.1197 0.0032206 0)
(10.1284 -0.000856998 0)
(10.1366 -0.00521964 0)
(10.1442 -0.00983418 0)
(10.1513 -0.0146208 0)
(10.0003 0.00156866 0)
(10.003 0.00450075 0)
(10.0082 0.00682495 0)
(10.0155 0.00836566 0)
(10.024 0.00912006 0)
(10.0333 0.00913089 0)
(10.0431 0.00845159 0)
(10.0531 0.0071538 0)
(10.0632 0.00531803 0)
(10.0731 0.00301946 0)
(10.0827 0.000322242 0)
(10.092 -0.00272092 0)
(10.1008 -0.00606753 0)
(10.1093 -0.00968254 0)
(10.1173 -0.0135346 0)
(10.1248 -0.0175913 0)
(10.1318 -0.0218205 0)
(10.1383 -0.0261542 0)
(10.0003 4.93545e-05 0)
(10.0026 7.28027e-05 0)
(10.0073 -0.000146817 0)
(10.0139 -0.000716317 0)
(10.0216 -0.0016662 0)
(10.0302 -0.00299498 0)
(10.0392 -0.00468725 0)
(10.0485 -0.00671547 0)
(10.0578 -0.00904562 0)
(10.0669 -0.0116441 0)
(10.0758 -0.0144812 0)
(10.0844 -0.0175311 0)
(10.0927 -0.0207716 0)
(10.1004 -0.0241824 0)
(10.1078 -0.0277433 0)
(10.1147 -0.0314324 0)
(10.1211 -0.0352276 0)
(10.127 -0.0390794 0)
(10.0002 -0.00163921 0)
(10.0025 -0.00484672 0)
(10.0069 -0.00791178 0)
(10.0132 -0.0108643 0)
(10.0205 -0.0137543 0)
(10.0286 -0.0166207 0)
(10.0371 -0.019485 0)
(10.0459 -0.0223611 0)
(10.0547 -0.0252598 0)
(10.0634 -0.0281907 0)
(10.0718 -0.0311618 0)
(10.0799 -0.0341806 0)
(10.0875 -0.0372536 0)
(10.0948 -0.0403852 0)
(10.1016 -0.0435769 0)
(10.1079 -0.0468262 0)
(10.1138 -0.0501285 0)
(10.1193 -0.053457 0)
(10.0003 -0.00325422 0)
(10.0027 -0.00953618 0)
(10.0074 -0.0152663 0)
(10.0138 -0.020415 0)
(10.0213 -0.0250771 0)
(10.0295 -0.0293381 0)
(10.0382 -0.0332514 0)
(10.047 -0.0368666 0)
(10.0558 -0.0402352 0)
(10.0644 -0.0434051 0)
(10.0727 -0.0464195 0)
(10.0806 -0.0493195 0)
(10.0881 -0.0521429 0)
(10.0951 -0.054923 0)
(10.1016 -0.0576875 0)
(10.1077 -0.0604576 0)
(10.1132 -0.0632494 0)
(10.1183 -0.0660585 0)
(10.0003 -0.00468178 0)
(10.003 -0.0136292 0)
(10.0083 -0.0215544 0)
(10.0153 -0.0284357 0)
(10.0234 -0.0344743 0)
(10.032 -0.0398058 0)
(10.0411 -0.0445043 0)
(10.0502 -0.0486494 0)
(10.0593 -0.0523263 0)
(10.0682 -0.0556119 0)
(10.0767 -0.0585769 0)
(10.0847 -0.0612901 0)
(10.0923 -0.0638177 0)
(10.0993 -0.0662199 0)
(10.1057 -0.0685492 0)
(10.1116 -0.0708492 0)
(10.117 -0.0731548 0)
(10.1218 -0.0754806 0)
(10.0004 -0.00616469 0)
(10.0037 -0.0177651 0)
(10.0099 -0.0276784 0)
(10.0178 -0.0360406 0)
(10.0266 -0.0432543 0)
(10.0359 -0.0494961 0)
(10.0456 -0.0548457 0)
(10.0554 -0.0594123 0)
(10.065 -0.0633102 0)
(10.0743 -0.0666374 0)
(10.0832 -0.069486 0)
(10.0916 -0.0719507 0)
(10.0994 -0.0741256 0)
(10.1065 -0.0760983 0)
(10.113 -0.0779477 0)
(10.1189 -0.0797414 0)
(10.1242 -0.081536 0)
(10.1289 -0.0833669 0)
(10.0005 -0.00781812 0)
(10.0048 -0.022149 0)
(10.0124 -0.0338214 0)
(10.0214 -0.0434193 0)
(10.031 -0.0516372 0)
(10.0412 -0.0586517 0)
(10.0518 -0.0645415 0)
(10.0623 -0.069451 0)
(10.0727 -0.0735132 0)
(10.0827 -0.0768325 0)
(10.0921 -0.0795148 0)
(10.101 -0.0816778 0)
(10.1091 -0.0834429 0)
(10.1165 -0.084926 0)
(10.1232 -0.0862338 0)
(10.1291 -0.08746 0)
(10.1343 -0.0886834 0)
(10.1389 -0.0899562 0)
(10.0007 -0.0097834 0)
(10.0066 -0.026925 0)
(10.0159 -0.0400229 0)
(10.0263 -0.0506244 0)
(10.037 -0.0597334 0)
(10.0482 -0.0674142 0)
(10.0598 -0.0737431 0)
(10.0713 -0.078921 0)
(10.0824 -0.0830937 0)
(10.0932 -0.0863604 0)
(10.1033 -0.0888335 0)
(10.1127 -0.0906535 0)
(10.1213 -0.0919698 0)
(10.1289 -0.0929248 0)
(10.1358 -0.093655 0)
(10.1417 -0.094286 0)
(10.1469 -0.0949279 0)
(10.1514 -0.0956619 0)
(10.0011 -0.0122868 0)
(10.0094 -0.0323332 0)
(10.0211 -0.046374 0)
(10.033 -0.0577163 0)
(10.0449 -0.0676682 0)
(10.0573 -0.0760159 0)
(10.0699 -0.0827725 0)
(10.0823 -0.0881787 0)
(10.0943 -0.0923878 0)
(10.1057 -0.0954944 0)
(10.1165 -0.0976206 0)
(10.1264 -0.0989404 0)
(10.1354 -0.0996481 0)
(10.1434 -0.0999193 0)
(10.1504 -0.0999176 0)
(10.1565 -0.0997946 0)
(10.1617 -0.0996789 0)
(10.166 -0.0996347 0)
(10.002 -0.0157233 0)
(10.0141 -0.0389991 0)
(10.0288 -0.053493 0)
(10.0422 -0.0649919 0)
(10.0552 -0.0750528 0)
(10.0688 -0.0834816 0)
(10.0825 -0.0903653 0)
(10.0959 -0.0959283 0)
(10.109 -0.100264 0)
(10.1216 -0.103428 0)
(10.1335 -0.105523 0)
(10.1446 -0.106711 0)
(10.1547 -0.107183 0)
(10.1638 -0.107154 0)
(10.1717 -0.106841 0)
(10.1786 -0.106435 0)
(10.1845 -0.106107 0)
(10.1896 -0.105924 0)
(10.0041 -0.0200909 0)
(10.0218 -0.0453876 0)
(10.0405 -0.0603888 0)
(10.0565 -0.0726983 0)
(10.0722 -0.0832839 0)
(10.0886 -0.0916945 0)
(10.1053 -0.0983534 0)
(10.1221 -0.10358 0)
(10.1388 -0.107421 0)
(10.1553 -0.109915 0)
(10.1714 -0.111165 0)
(10.1868 -0.111384 0)
(10.201 -0.110782 0)
(10.2138 -0.109522 0)
(10.2252 -0.107838 0)
(10.235 -0.105999 0)
(10.2435 -0.104179 0)
(10.2502 -0.102477 0)
(10.0095 -0.0259543 0)
(10.039 -0.0474147 0)
(10.0698 -0.0602565 0)
(10.0991 -0.074349 0)
(10.1314 -0.0877246 0)
(10.166 -0.099019 0)
(10.2013 -0.108506 0)
(10.2361 -0.116533 0)
(10.2697 -0.123029 0)
(10.3007 -0.127902 0)
(10.3283 -0.13118 0)
(10.3514 -0.132979 0)
(10.3698 -0.133551 0)
(10.3832 -0.133239 0)
(10.3917 -0.132396 0)
(10.3955 -0.131411 0)
(10.3951 -0.130531 0)
(10.3911 -0.130182 0)
(10.0515 -0.0520904 0)
(10.1748 -0.0841536 0)
(10.2757 -0.0938806 0)
(10.3508 -0.103772 0)
(10.4025 -0.112689 0)
(10.4316 -0.119347 0)
(10.4374 -0.124007 0)
(10.4212 -0.126798 0)
(10.3853 -0.127578 0)
(10.3323 -0.12628 0)
(10.2647 -0.122979 0)
(10.1851 -0.117901 0)
(10.096 -0.111388 0)
(9.99955 -0.103827 0)
(9.89756 -0.0956055 0)
(9.79167 -0.0872171 0)
(9.68306 -0.0789521 0)
(9.57309 -0.071891 0)
(9.87225 -0.050493 0)
(9.57844 -0.0895456 0)
(9.23342 -0.104026 0)
(8.8629 -0.112287 0)
(8.49005 -0.116488 0)
(8.12431 -0.117183 0)
(7.7708 -0.11527 0)
(7.43462 -0.111299 0)
(7.12029 -0.105588 0)
(6.83108 -0.0984502 0)
(6.5692 -0.0902274 0)
(6.3359 -0.0812841 0)
(6.13146 -0.0719808 0)
(5.9552 -0.0626418 0)
(5.80559 -0.0535459 0)
(5.68072 -0.0449787 0)
(5.57707 -0.0372807 0)
(5.49439 -0.0300102 0)
(-0.00487205 0.00850629 -2.07541e-21)
(-0.00841948 0.0100963 1.91536e-21)
(-0.0166295 0.011214 0)
(-0.0251716 0.0121015 0)
(-0.0341447 0.0127498 0)
(-0.0435831 0.0131873 -1.86864e-21)
(-0.0533869 0.0134614 0)
(-0.0634593 0.01362 0)
(-0.0737388 0.0137105 0)
(-0.0841911 0.013788 0)
(-0.0948136 0.0139284 1.80732e-21)
(-0.105624 0.0142468 0)
(-0.116671 0.0146932 0)
(-0.127998 0.0150039 0)
(-0.139561 0.015108 0)
(-0.151298 0.0151371 1.76039e-21)
(-0.163206 0.0151645 0)
(-0.175292 0.0152065 0)
(-0.187563 0.0152625 0)
(-0.200028 0.0153313 0)
(-0.212695 0.015413 0)
(-0.225574 0.0155081 0)
(-0.238676 0.0156166 0)
(-0.25201 0.0157381 1.68484e-21)
(-0.265589 0.0158721 -1.67542e-21)
(-0.279422 0.0160176 1.66605e-21)
(-0.293518 0.0161738 1.65675e-21)
(-0.307889 0.0163394 0)
(-0.322541 0.0165135 0)
(-0.337484 0.0166945 -1.62936e-21)
(-0.352724 0.0168813 -1.62042e-21)
(-0.368266 0.0170725 0)
(-0.384115 0.0172665 0)
(-0.400274 0.0174621 -1.59418e-21)
(-0.416746 0.0176576 0)
(-0.433529 0.0178515 0)
(-0.450624 0.0180424 1.56887e-21)
(-0.468027 0.0182286 0)
(-0.485735 0.0184085 1.55249e-21)
(-0.50374 0.0185806 3.08889e-21)
(-0.522036 0.0187432 0)
(-0.540613 0.0188947 0)
(-0.559461 0.0190335 0)
(-0.578566 0.0191579 0)
(-0.597914 0.0192665 0)
(-0.617489 0.0193577 2.99545e-21)
(-0.637273 0.0194302 2.98024e-21)
(-0.657248 0.0194828 2.96508e-21)
(-0.677392 0.0195142 0)
(-0.697684 0.0195236 -2.93477e-21)
(-0.718101 0.0195099 0)
(-0.738618 0.0194727 2.90432e-21)
(-0.75921 0.0194113 2.88896e-21)
(-0.779851 0.0193256 0)
(-0.800516 0.0192154 0)
(-0.821176 0.0190809 0)
(-0.841806 0.0189225 2.82587e-21)
(-0.862378 0.0187406 0)
(-0.882866 0.018536 0)
(-0.903242 0.0183096 0)
(-0.923482 0.0180624 0)
(-0.943561 0.0177955 0)
(-0.963453 0.0175099 0)
(-0.983135 0.0172069 0)
(-1.00259 0.0168875 0)
(-1.02178 0.0165529 -2.66519e-21)
(-1.0407 0.016204 0)
(-1.05933 0.015842 0)
(-1.07764 0.0154675 2.60297e-21)
(-1.09562 0.0150815 2.58105e-21)
(-1.11325 0.0146848 0)
(-1.13051 0.0142782 -2.53534e-21)
(-1.1474 0.0138623 2.51151e-21)
(-1.16388 0.0134378 0)
(-1.17996 0.0130057 -2.46185e-21)
(-1.19561 0.0125669 0)
(-1.21083 0.0121223 0)
(-1.2256 0.0116732 2.38223e-21)
(-1.23992 0.0112213 0)
(-1.25378 0.0107682 -2.32567e-21)
(-1.26718 0.0103159 0)
(-1.28011 0.00986649 2.26634e-21)
(-1.29256 0.00942208 2.23564e-21)
(-1.30455 0.00898468 2.20425e-21)
(-1.31607 0.00855611 4.34438e-21)
(-1.32713 0.00813795 -4.27893e-21)
(-1.33773 0.00773153 0)
(-1.34787 0.00733795 0)
(-1.35757 0.00695818 0)
(-1.36684 0.00659305 -4.0041e-21)
(-1.37569 0.0062434 -3.93227e-21)
(-1.38413 0.00591 3.85925e-21)
(-1.39217 0.00559363 0)
(-1.39983 0.00529498 -3.70975e-21)
(-1.40712 0.00501461 -3.63336e-21)
(-1.41408 0.00475289 -3.55591e-21)
(-1.4207 0.00450997 0)
(-1.42702 0.00428573 0)
(-1.43305 0.00407978 0)
(-1.43881 0.00389145 -3.23635e-21)
(-1.44432 0.00371979 0)
(-1.4496 0.00356358 0)
(-1.45466 0.0034214 2.9873e-21)
(-1.45951 0.00329165 0)
(-1.46417 0.00317255 0)
(-1.46864 0.00306225 2.73085e-21)
(-1.47293 0.00295879 0)
(-1.47705 0.00286017 0)
(-1.48098 0.00276431 -2.46717e-21)
(-1.48474 0.00266904 -2.37765e-21)
(-1.48832 0.00257191 0)
(-1.4917 0.00246976 2.19606e-21)
(-1.49489 0.00235804 0)
(-1.49785 0.0022307 -2.01095e-21)
(-1.50058 0.00207959 0)
(-1.50305 0.00189949 -1.82211e-21)
(-1.50524 0.00172435 -1.72624e-21)
(-1.50716 0.00160683 0)
(-1.50877 0.00155728 0)
(-1.51002 0.00150395 0)
(-1.51092 0.00141979 0)
(-1.51145 0.00131375 0)
(-1.51159 0.00118976 0)
(-1.51133 0.00105013 0)
(-1.51063 0.000896437 -9.23025e-22)
(-1.50948 0.000729576 8.17657e-22)
(-1.50785 0.000549912 0)
(-1.50573 0.000357366 0)
(-1.50309 0.000151523 0)
(-1.4999 -6.82618e-05 0)
(-1.49614 -0.000302795 5.46973e-22)
(-1.49179 -0.000553028 0)
(-1.48681 -0.000820082 -9.52565e-23)
(-1.48118 -0.00110525 -1.34127e-22)
(-1.47487 -0.00140995 0)
(-1.46784 -0.00173561 0)
(-1.46007 -0.00208303 0)
(-1.45153 -0.00245085 1.07499e-21)
(-1.44218 -0.00283585 1.31596e-21)
(-1.43199 -0.00323835 0)
(-1.42091 -0.00365898 1.80465e-21)
(-1.40892 -0.00409758 2.05231e-21)
(-1.39596 -0.00455312 -2.30213e-21)
(-1.38199 -0.00502372 0)
(-1.36699 -0.00550703 0)
(-1.35089 -0.00600083 -3.06407e-21)
(-1.33367 -0.00650384 0)
(-1.31529 -0.00701634 0)
(-1.29569 -0.00754035 0)
(-1.27485 -0.00807881 0)
(-1.25272 -0.008634 4.36991e-21)
(-1.22924 -0.00920673 4.6352e-21)
(-1.20438 -0.00979667 0)
(-1.17809 -0.0104029 5.1683e-21)
(-1.15033 -0.0110242 0)
(-1.12106 -0.0116604 0)
(-1.09025 -0.0123128 5.97027e-21)
(-1.05786 -0.0129824 0)
(-1.02386 -0.0136694 6.50279e-21)
(-0.988198 -0.014373 0)
(-0.950855 -0.0150928 0)
(-0.911804 -0.015829 7.29086e-21)
(-0.871019 -0.0165846 0)
(-0.828473 -0.0173623 7.804e-21)
(-0.784138 -0.018163 0)
(-0.737996 -0.0189876 0)
(-0.690028 -0.0198401 0)
(-0.640216 -0.0207289 -8.78268e-21)
(-0.588527 -0.0216643 0)
(-0.534925 -0.0226601 9.23793e-21)
(-0.479352 -0.0237407 0)
(-0.421717 -0.0249433 0)
(-0.361887 -0.0263141 0)
(-0.299787 -0.0278305 0)
(-0.235185 -0.0287408 0)
(-0.172767 -0.0257638 0)
(-0.114307 -0.0219285 0)
(-0.0569145 -0.0213226 -2.12411e-20)
(0.00550385 -0.021087 0)
(0.0550935 -0.0169632 0)
(-0.00728765 0.0181041 6.17571e-21)
(-0.0102193 0.0213392 -5.69121e-21)
(-0.0194025 0.023774 0)
(-0.0284402 0.0255676 3.72679e-21)
(-0.0377069 0.0269058 0)
(-0.047417 0.0278906 1.84021e-21)
(-0.0575347 0.028603 -3.65132e-21)
(-0.0679984 0.0291154 -3.62709e-21)
(-0.0787707 0.0294901 0)
(-0.0898253 0.0297816 -3.57934e-21)
(-0.101138 0.0300402 -1.78076e-21)
(-0.112672 0.0303146 0)
(-0.124387 0.0306381 0)
(-0.136278 0.0309867 0)
(-0.148379 0.0313139 0)
(-0.160713 0.0316126 -1.72441e-21)
(-0.173285 0.0318967 0)
(-0.186091 0.0321789 3.39849e-21)
(-0.199131 0.0324672 0)
(-0.212408 0.0327658 0)
(-0.22593 0.0330775 -3.33543e-21)
(-0.239704 0.0334041 0)
(-0.253738 0.0337466 3.29493e-21)
(-0.268044 0.0341051 -1.64126e-21)
(-0.282631 0.0344794 1.63155e-21)
(-0.297508 0.0348683 -1.62198e-21)
(-0.312687 0.0352704 -1.61256e-21)
(-0.328175 0.0356837 0)
(-0.343981 0.036106 0)
(-0.360113 0.0365347 1.58509e-21)
(-0.376578 0.036967 -1.56838e-21)
(-0.393379 0.0373999 0)
(-0.410521 0.0378302 0)
(-0.428005 0.0382547 1.55018e-21)
(-0.445834 0.0386701 0)
(-0.464004 0.0390731 0)
(-0.482515 0.0394604 -1.52516e-21)
(-0.501361 0.0398286 0)
(-0.520535 0.0401745 1.50072e-21)
(-0.540031 0.0404948 -3.00201e-21)
(-0.559838 0.0407863 0)
(-0.579943 0.0410461 0)
(-0.600334 0.0412711 -5.89346e-21)
(-0.620995 0.0414586 -5.86267e-21)
(-0.641909 0.0416059 -5.83209e-21)
(-0.663055 0.0417107 2.89236e-21)
(-0.684414 0.0417708 -2.8942e-21)
(-0.705963 0.0417842 -8.62034e-21)
(-0.727678 0.0417494 5.71109e-21)
(-0.749534 0.0416651 2.84894e-21)
(-0.771504 0.0415303 0)
(-0.79356 0.0413444 -2.81861e-21)
(-0.815675 0.0411072 2.7866e-21)
(-0.837818 0.0408188 0)
(-0.859962 0.0404796 0)
(-0.882076 0.0400907 0)
(-0.90413 0.0396532 -2.74058e-21)
(-0.926096 0.0391687 0)
(-0.947943 0.0386391 5.39991e-21)
(-0.969644 0.0380665 0)
(-0.991172 0.0374533 5.33241e-21)
(-1.0125 0.036802 0)
(-1.0336 0.0361151 -5.26203e-21)
(-1.05445 0.0353953 0)
(-1.07503 0.0346453 5.18833e-21)
(-1.09531 0.0338675 -2.56809e-21)
(-1.11527 0.0330645 0)
(-1.13489 0.0322387 -5.07071e-21)
(-1.15416 0.0313926 -2.5212e-21)
(-1.17306 0.0305284 -2.49986e-21)
(-1.19156 0.0296484 0)
(-1.20966 0.0287549 -2.4436e-21)
(-1.22734 0.0278503 -2.43241e-21)
(-1.24459 0.0269368 0)
(-1.26139 0.0260169 2.3845e-21)
(-1.27774 0.025093 -4.70894e-21)
(-1.29362 0.0241676 0)
(-1.30904 0.0232433 -2.30812e-21)
(-1.32398 0.0223227 0)
(-1.33844 0.0214084 6.75385e-21)
(-1.35242 0.0205028 0)
(-1.36592 0.0196083 -6.58569e-21)
(-1.37894 0.0187273 -2.16883e-21)
(-1.39147 0.0178617 2.13195e-21)
(-1.40352 0.0170136 4.20406e-21)
(-1.41509 0.0161848 -4.14295e-21)
(-1.42619 0.0153769 0)
(-1.43682 0.0145916 0)
(-1.44699 0.0138306 0)
(-1.45669 0.0130955 1.1677e-20)
(-1.46596 0.0123879 3.82752e-21)
(-1.47478 0.0117095 -3.75801e-21)
(-1.48318 0.0110617 0)
(-1.49117 0.0104459 -3.6072e-21)
(-1.49877 0.00986309 3.54212e-21)
(-1.506 0.00931372 3.46781e-21)
(-1.51287 0.00879784 0)
(-1.5194 0.00831491 0)
(-1.52562 0.00786384 0)
(-1.53153 0.00744296 3.15976e-21)
(-1.53717 0.00705008 0)
(-1.54254 0.00668255 -5.99406e-21)
(-1.54765 0.00633731 -8.74989e-21)
(-1.55252 0.00601103 5.66715e-21)
(-1.55716 0.00570015 0)
(-1.56157 0.00540105 2.66424e-21)
(-1.56576 0.00511006 0)
(-1.56972 0.00482364 4.99227e-21)
(-1.57345 0.00453842 -2.40755e-21)
(-1.57694 0.00425131 -2.32027e-21)
(-1.58019 0.00395959 0)
(-1.58318 0.00366101 -6.43629e-21)
(-1.5859 0.00335403 4.1096e-21)
(-1.58834 0.00303913 1.96534e-21)
(-1.59047 0.00271541 0)
(-1.59225 0.00235633 1.78027e-21)
(-1.59367 0.00195585 5.05689e-21)
(-1.59472 0.00150899 0)
(-1.59544 0.00108544 2.9893e-21)
(-1.59577 0.0006649 2.79585e-21)
(-1.59568 0.000231959 2.60042e-21)
(-1.59513 -0.000215065 0)
(-1.5941 -0.000676885 0)
(-1.59256 -0.00115366 0)
(-1.59049 -0.00164531 -8.99322e-22)
(-1.58787 -0.00215172 -7.96097e-22)
(-1.58468 -0.00267282 0)
(-1.58089 -0.00320866 -1.17555e-21)
(-1.57648 -0.00375943 -9.63863e-22)
(-1.57142 -0.00432532 0)
(-1.56569 -0.00490648 -5.31041e-22)
(-1.55927 -0.00550302 -6.33565e-22)
(-1.55213 -0.00611505 9.23601e-23)
(-1.54424 -0.00674272 -1.18895e-22)
(-1.53558 -0.00738615 0)
(-1.52613 -0.00804553 0)
(-1.51585 -0.00872094 0)
(-1.50471 -0.00941197 -1.03856e-21)
(-1.4927 -0.0101175 1.25047e-21)
(-1.47978 -0.0108381 2.98622e-21)
(-1.46593 -0.0115752 -1.73968e-21)
(-1.4511 -0.0123301 1.95046e-21)
(-1.43527 -0.0131038 2.21623e-21)
(-1.41839 -0.0138969 0)
(-1.40043 -0.0147099 0)
(-1.38134 -0.015543 -2.90765e-21)
(-1.36108 -0.0163961 0)
(-1.33959 -0.0172688 0)
(-1.31684 -0.018161 7.32945e-21)
(-1.29278 -0.0190726 0)
(-1.26737 -0.0200029 4.13732e-21)
(-1.24057 -0.0209496 -4.44034e-21)
(-1.21234 -0.0219101 0)
(-1.18265 -0.0228811 4.88392e-21)
(-1.15149 -0.0238594 0)
(-1.11881 -0.0248424 0)
(-1.08461 -0.02583 -5.69888e-21)
(-1.04886 -0.0268215 1.18221e-20)
(-1.01154 -0.0278141 -6.1959e-21)
(-0.972638 -0.0288041 0)
(-0.93214 -0.029787 0)
(-0.890044 -0.0307592 6.83513e-21)
(-0.846345 -0.0317203 0)
(-0.801042 -0.032669 7.29576e-21)
(-0.754135 -0.0336002 0)
(-0.705628 -0.0345079 0)
(-0.655535 -0.0353886 0)
(-0.603867 -0.0362426 8.27074e-21)
(-0.550635 -0.0370692 0)
(-0.495854 -0.0378666 -8.67312e-21)
(-0.439543 -0.038636 0)
(-0.381739 -0.0393727 0)
(-0.322525 -0.0400343 1.83121e-20)
(-0.262259 -0.0403914 -1.86436e-20)
(-0.201332 -0.0397035 0)
(-0.141269 -0.0377774 0)
(-0.0801087 -0.0373528 0)
(-0.0195927 -0.0376291 5.99989e-20)
(0.0452101 -0.037117 0)
(0.0998302 -0.0323538 -4.10756e-20)
(-0.00820454 0.037427 1.3239e-24)
(-0.0118577 0.041388 7.74149e-21)
(-0.0214383 0.044508 0)
(-0.0310199 0.0471372 -7.48097e-21)
(-0.0406102 0.049286 0)
(-0.0505882 0.051003 0)
(-0.0609705 0.0523579 -4.10058e-24)
(-0.0717118 0.0534287 3.63541e-21)
(-0.0827829 0.054292 3.61622e-21)
(-0.094161 0.0550174 3.5894e-21)
(-0.105823 0.0556648 0)
(-0.117743 0.0562793 0)
(-0.129893 0.0568794 -3.52487e-21)
(-0.142257 0.0574557 -7.00461e-21)
(-0.154837 0.0579982 6.95986e-21)
(-0.167646 0.0585131 0)
(-0.180693 0.059015 6.87175e-21)
(-0.193984 0.0595174 -3.41034e-21)
(-0.207525 0.0600313 0)
(-0.221323 0.0605648 6.74389e-21)
(-0.235388 0.0611236 3.34742e-21)
(-0.249726 0.0617115 -6.66185e-21)
(-0.264349 0.0623306 -3.30706e-21)
(-0.279265 0.0629812 0)
(-0.294485 0.0636625 6.54358e-21)
(-0.310016 0.0643724 6.50536e-21)
(-0.32587 0.065108 0)
(-0.342052 0.0658654 6.43058e-21)
(-0.358572 0.0666401 0)
(-0.375433 0.0674272 6.35785e-21)
(-0.392642 0.0682212 3.15699e-21)
(-0.410201 0.0690164 0)
(-0.428113 0.0698068 0)
(-0.446376 0.0705863 0)
(-0.464991 0.0713488 0)
(-0.483953 0.0720879 0)
(-0.503257 0.0727973 0)
(-0.522897 0.0734708 6.08422e-21)
(-0.542862 0.0741021 -9.07279e-21)
(-0.563144 0.0746853 0)
(-0.583728 0.0752143 0)
(-0.6046 0.0756832 0)
(-0.625744 0.0760867 -9.97279e-24)
(-0.64714 0.0764192 5.88267e-21)
(-0.668769 0.076676 1.17129e-20)
(-0.690608 0.0768524 -1.16507e-20)
(-0.712634 0.0769445 -5.7995e-21)
(-0.734822 0.0769486 5.75801e-21)
(-0.757144 0.0768619 1.05916e-23)
(-0.779573 0.076682 5.70649e-21)
(-0.802081 0.0764071 0)
(-0.824638 0.0760365 5.64398e-21)
(-0.847213 0.0755697 1.06804e-23)
(-0.869776 0.0750073 0)
(-0.892297 0.0743505 0)
(-0.914744 0.0736013 -5.51585e-21)
(-0.937087 0.0727623 0)
(-0.959297 0.0718367 0)
(-0.981345 0.0708285 5.42542e-21)
(-1.0032 0.0697419 1.0761e-20)
(-1.02484 0.0685818 -5.33526e-21)
(-1.04624 0.0673531 0)
(-1.06737 0.0660609 5.26268e-21)
(-1.08821 0.0647103 0)
(-1.10874 0.0633065 5.20499e-21)
(-1.12894 0.0618544 5.14767e-21)
(-1.14879 0.0603588 -1.02322e-20)
(-1.16827 0.0588244 -5.08307e-21)
(-1.18737 0.0572556 0)
(-1.20606 0.0556569 9.97799e-21)
(-1.22435 0.0540325 0)
(-1.2422 0.0523868 1.46898e-20)
(-1.25962 0.0507239 9.70478e-21)
(-1.2766 0.0490483 9.60929e-21)
(-1.29311 0.0473641 -9.51153e-21)
(-1.30917 0.0456759 1.4111e-20)
(-1.32475 0.043988 0)
(-1.33985 0.0423049 0)
(-1.35448 0.0406309 -9.09734e-21)
(-1.36862 0.0389702 -1.34767e-20)
(-1.38228 0.0373268 0)
(-1.39544 0.0357043 4.3762e-21)
(-1.40812 0.0341061 0)
(-1.42031 0.0325352 -1.27841e-20)
(-1.43201 0.0309945 7.80375e-24)
(-1.44321 0.0294868 -7.35368e-24)
(-1.45394 0.0280146 8.15204e-21)
(-1.46417 0.0265808 0)
(-1.47393 0.0251884 -7.89e-21)
(-1.48321 0.0238405 5.75524e-24)
(-1.49203 0.0225403 0)
(-1.50038 0.0212913 0)
(-1.50829 0.0200968 0)
(-1.51576 0.0189596 7.18533e-21)
(-1.52281 0.017882 0)
(-1.52946 0.0168651 0)
(-1.53573 0.0159095 0)
(-1.54163 0.0150142 0)
(-1.54717 0.0141773 0)
(-1.55239 0.0133957 6.27289e-21)
(-1.55728 0.0126655 0)
(-1.56188 0.0119816 5.94826e-21)
(-1.56618 0.0113383 5.78491e-21)
(-1.57021 0.0107294 -5.61985e-21)
(-1.57396 0.0101482 0)
(-1.57744 0.00958802 -5.28474e-21)
(-1.58065 0.00904208 0)
(-1.5836 0.00850379 -4.94315e-21)
(-1.58626 0.00796685 4.76996e-21)
(-1.58865 0.00742542 1.37929e-20)
(-1.59074 0.00687411 0)
(-1.59253 0.00630823 1.27306e-20)
(-1.594 0.00572349 4.0699e-21)
(-1.59513 0.00511459 0)
(-1.59592 0.00448386 7.40362e-21)
(-1.59637 0.00385863 7.035e-21)
(-1.59645 0.00318805 -9.98839e-21)
(-1.59611 0.00245457 0)
(-1.59532 0.00167528 -2.94703e-21)
(-1.59408 0.000861065 -2.75528e-21)
(-1.59238 2.19093e-05 -7.69849e-21)
(-1.5902 -0.000840686 0)
(-1.5875 -0.00172684 0)
(-1.58427 -0.0026367 0)
(-1.58048 -0.00357015 -1.78426e-21)
(-1.57612 -0.00452691 0)
(-1.57117 -0.00550676 0)
(-1.5656 -0.00650969 1.15499e-21)
(-1.55939 -0.00753593 9.46657e-22)
(-1.55253 -0.00858573 0)
(-1.54498 -0.00965919 0)
(-1.53674 -0.0107563 6.21599e-22)
(-1.52776 -0.0118772 0)
(-1.51804 -0.0130217 2.43995e-22)
(-1.50755 -0.0141901 6.60078e-22)
(-1.49625 -0.0153823 0)
(-1.48413 -0.0165985 0)
(-1.47116 -0.0178392 -1.99233e-21)
(-1.45731 -0.019106 -2.51353e-23)
(-1.44255 -0.0204009 -2.59709e-23)
(-1.42685 -0.0217265 0)
(-1.41016 -0.0230854 -7.65824e-21)
(-1.39246 -0.0244792 0)
(-1.37371 -0.0259093 0)
(-1.35386 -0.0273761 0)
(-1.33287 -0.0288794 5.72126e-21)
(-1.3107 -0.0304176 0)
(-1.28732 -0.0319885 -1.32906e-20)
(-1.26269 -0.0335894 -7.16015e-21)
(-1.23679 -0.0352187 0)
(-1.20957 -0.0368734 -8.12962e-21)
(-1.18102 -0.038549 0)
(-1.15111 -0.04024 0)
(-1.11982 -0.0419408 -2.87008e-20)
(-1.08711 -0.0436449 2.00836e-20)
(-1.05299 -0.0453472 0)
(-1.01743 -0.0470465 2.20251e-20)
(-0.980416 -0.0487419 -1.15314e-20)
(-0.941945 -0.0504284 0)
(-0.902005 -0.0521001 0)
(-0.860591 -0.0537499 0)
(-0.817703 -0.0553719 -4.02072e-20)
(-0.773343 -0.0569664 0)
(-0.727514 -0.0585326 -1.43397e-20)
(-0.680218 -0.0600654 0)
(-0.63146 -0.0615583 0)
(-0.581248 -0.0630097 0)
(-0.529589 -0.0644252 0)
(-0.476489 -0.065811 0)
(-0.421953 -0.0671722 0)
(-0.365995 -0.0685179 -3.45464e-20)
(-0.308654 -0.069846 0)
(-0.25002 -0.0710963 -1.80582e-20)
(-0.190401 -0.072002 5.53049e-20)
(-0.129924 -0.0717786 0)
(-0.0686739 -0.0700652 0)
(-0.00512014 -0.0690709 -3.92179e-20)
(0.0574211 -0.0689027 -3.99059e-20)
(0.124506 -0.0681052 4.06095e-20)
(0.18144 -0.0626121 4.10488e-20)
(-0.00861053 0.0564275 -1.28636e-20)
(-0.0131519 0.060089 -1.17757e-20)
(-0.0231214 0.0633121 -7.61192e-21)
(-0.0332035 0.0664028 -3.76179e-21)
(-0.043187 0.0691219 0)
(-0.0534935 0.0714205 7.39653e-21)
(-0.0641677 0.0733307 -3.67492e-21)
(-0.0751822 0.0749139 0)
(-0.0865197 0.0762393 -3.62582e-21)
(-0.0981649 0.0773733 0)
(-0.110099 0.0783744 7.16449e-21)
(-0.122303 0.0792896 0)
(-0.134759 0.0801511 3.53638e-21)
(-0.147454 0.0809764 7.02832e-21)
(-0.160387 0.081776 -6.98414e-21)
(-0.173561 0.0825608 0)
(-0.186983 0.0833428 -6.89701e-21)
(-0.200661 0.0841337 0)
(-0.214599 0.0849435 0)
(-0.228808 0.0857807 -6.77029e-21)
(-0.243294 0.0866512 0)
(-0.258067 0.0875592 -2.88197e-24)
(-0.273135 0.0885066 0)
(-0.288507 0.0894935 0)
(-0.304191 0.0905183 3.16657e-24)
(-0.320195 0.0915778 -6.53266e-21)
(-0.336526 0.0926676 -6.49833e-21)
(-0.35319 0.0937821 -6.4577e-21)
(-0.370193 0.0949148 0)
(-0.387536 0.0960585 -1.27729e-20)
(-0.405223 0.0972054 0)
(-0.423254 0.0983472 -6.31711e-21)
(-0.441627 0.0994755 0)
(-0.46034 0.100581 0)
(-0.479388 0.101656 6.21309e-21)
(-0.498763 0.102691 0)
(-0.518458 0.103676 -6.14541e-21)
(-0.538461 0.104604 5.0313e-24)
(-0.55876 0.105465 1.21526e-20)
(-0.57934 0.10625 -1.2092e-20)
(-0.600185 0.106952 0)
(-0.621277 0.107563 0)
(-0.642596 0.108074 -5.95439e-21)
(-0.664119 0.108479 0)