/*--------------------------------*- C++ -*----------------------------------*\
| =========                 |                                                 |
| \\      /  F ield         | OpenFOAM: The Open Source CFD Toolbox           |
|  \\    /   O peration     | Version:  2112                                  |
|   \\  /    A nd           | Website:  www.openfoam.com                      |
|    \\/     M anipulation  |                                                 |
\*---------------------------------------------------------------------------*/
FoamFile
{
    version     2.0;
    format      ascii;
    arch        "LSB;label=32;scalar=64";
    class       volVectorField;
    location    "0.043";
    object      U;
}
// * * * * * * * * * * * * * * * * * * * * * * * * * * * * * * * * * * * * * //

dimensions      [0 1 -1 0 0 0 0];

internalField   nonuniform List<vector> 
12225
(
(9.91171 0.104316 0)
(9.49605 0.090187 0)
(9.08882 0.0889321 0)
(8.77784 0.0644291 0)
(8.57862 0.0404609 0)
(8.39635 0.0294119 0)
(8.21233 0.0227284 0)
(8.03128 0.0191252 0)
(7.9179 0.0170452 0)
(7.80711 0.0270175 0)
(7.79137 0.026643 0)
(7.71376 0.0376539 0)
(7.82687 0.00288167 0)
(7.77921 0.0258721 0)
(8.10007 -0.0794252 0)
(8.14975 0.004743 0)
(8.82038 -0.256004 0)
(9.06966 -0.0484978 0)
(10.0079 0.0850504 0)
(10.2047 0.102577 0)
(10.2838 0.0688599 0)
(10.3134 0.0441285 0)
(10.316 0.0458134 0)
(10.3025 0.0598883 0)
(10.2789 0.073588 0)
(10.2481 0.0658951 0)
(10.2374 0.0502604 0)
(10.2571 0.0164018 0)
(10.3323 -6.95293e-06 0)
(10.4394 -0.0401795 0)
(10.6076 -0.0417888 0)
(10.7758 -0.0880094 0)
(11.026 -0.0979346 0)
(11.2578 -0.18739 0)
(11.6068 -0.266855 0)
(11.9637 -0.532687 0)
(9.98433 0.028984 0)
(10.0381 0.0706511 0)
(10.0707 0.0734866 0)
(10.0912 0.0575328 0)
(10.1236 0.0440293 0)
(10.1769 0.0393923 0)
(10.2463 0.0344385 0)
(10.3245 0.0238241 0)
(10.4011 0.00508645 0)
(10.4702 -0.00942334 0)
(10.5396 -0.0336021 0)
(10.6258 -0.054712 0)
(10.7329 -0.0985157 0)
(10.8773 -0.133305 0)
(11.0539 -0.21244 0)
(11.2698 -0.28995 0)
(11.5147 -0.457087 0)
(11.7804 -0.711112 0)
(9.93388 0.0130459 0)
(10.0326 0.0700203 0)
(10.1375 0.0476463 0)
(10.2455 0.0258171 0)
(10.2666 0.021592 0)
(10.23 0.0259562 0)
(10.1965 0.0313777 0)
(10.1897 0.0256428 0)
(10.2061 0.00859629 0)
(10.2437 -0.0218551 0)
(10.3095 -0.0562698 0)
(10.411 -0.101818 0)
(10.5474 -0.151256 0)
(10.7174 -0.209294 0)
(10.9154 -0.285833 0)
(11.1325 -0.390944 0)
(11.3601 -0.554598 0)
(11.5811 -0.803965 0)
(9.82743 -0.0485289 0)
(9.8786 0.0193017 0)
(9.93376 0.0310831 0)
(10.0105 0.0312878 0)
(10.0726 0.0464484 0)
(10.099 0.0546301 0)
(10.1104 0.0431499 0)
(10.1356 0.0169299 0)
(10.1841 -0.0155747 0)
(10.2511 -0.0529947 0)
(10.3324 -0.096948 0)
(10.4277 -0.150891 0)
(10.5388 -0.215412 0)
(10.6711 -0.291623 0)
(10.8279 -0.384893 0)
(11.0038 -0.509213 0)
(11.1881 -0.675881 0)
(11.3627 -0.911946 0)
(10.0553 -0.00293966 0)
(10.0251 0.0308371 0)
(10.0335 0.00928594 0)
(10.0618 -0.0105979 0)
(10.0691 -0.00213876 0)
(10.0606 0.0166203 0)
(10.0641 0.0218208 0)
(10.0959 0.00386291 0)
(10.1551 -0.0303186 0)
(10.2356 -0.0730353 0)
(10.3352 -0.123013 0)
(10.4493 -0.183988 0)
(10.5714 -0.257225 0)
(10.6954 -0.343973 0)
(10.8205 -0.448631 0)
(10.9432 -0.58306 0)
(11.0612 -0.75285 0)
(11.166 -0.97978 0)
(9.78868 0.00118966 0)
(9.90134 0.0250298 0)
(9.99584 0.0190553 0)
(10.0308 0.0233429 0)
(10.0595 0.0446415 0)
(10.1119 0.0493638 0)
(10.1803 0.0250713 0)
(10.2487 -0.0200186 0)
(10.3073 -0.0750227 0)
(10.3563 -0.132574 0)
(10.4053 -0.191739 0)
(10.4629 -0.256088 0)
(10.5345 -0.327173 0)
(10.6192 -0.409294 0)
(10.7168 -0.5083 0)
(10.8211 -0.636591 0)
(10.9255 -0.800265 0)
(11.0204 -1.01283 0)
(10.0501 0.0198864 0)
(10.0999 -0.0277616 0)
(10.1328 -0.0360473 0)
(10.1222 -0.0285866 0)
(10.1391 -0.0259185 0)
(10.2081 -0.0275077 0)
(10.2945 -0.0316909 0)
(10.3485 -0.043516 0)
(10.3529 -0.067558 0)
(10.3313 -0.107911 0)
(10.3213 -0.166913 0)
(10.3442 -0.2454 0)
(10.4005 -0.339592 0)
(10.48 -0.447292 0)
(10.5724 -0.568159 0)
(10.6691 -0.709841 0)
(10.7598 -0.876434 0)
(10.8368 -1.07738 0)
(10.0509 -0.0037022 0)
(10.0527 0.000318839 0)
(10.0245 0.0101226 0)
(10.004 0.0221603 0)
(9.99452 0.0103932 0)
(10.0029 -0.0149255 0)
(10.0348 -0.0333331 0)
(10.0854 -0.0464662 0)
(10.1508 -0.0720812 0)
(10.2286 -0.125068 0)
(10.3133 -0.204204 0)
(10.3951 -0.299416 0)
(10.4659 -0.400407 0)
(10.5239 -0.505747 0)
(10.5736 -0.6199 0)
(10.6186 -0.754221 0)
(10.6604 -0.912803 0)
(10.6912 -1.10364 0)
(9.86743 -0.0312658 0)
(9.89015 -0.0310704 0)
(9.94858 -0.0189581 0)
(9.98277 -0.00767742 0)
(10.0003 -0.0220983 0)
(10.0163 -0.0459174 0)
(10.0536 -0.0712341 0)
(10.1217 -0.0997065 0)
(10.2069 -0.13697 0)
(10.2874 -0.187766 0)
(10.3516 -0.251479 0)
(10.4017 -0.32658 0)
(10.4463 -0.412339 0)
(10.4924 -0.511881 0)
(10.542 -0.62753 0)
(10.5904 -0.764749 0)
(10.6292 -0.921652 0)
(10.6459 -1.10131 0)
(9.96925 -0.0118812 0)
(10.0176 -0.0530758 0)
(10.0757 -0.0277727 0)
(10.1098 0.00294809 0)
(10.1184 -0.00471 0)
(10.1107 -0.0393927 0)
(10.1017 -0.0806069 0)
(10.1036 -0.117049 0)
(10.1196 -0.152504 0)
(10.1508 -0.20031 0)
(10.1997 -0.268422 0)
(10.2646 -0.356519 0)
(10.338 -0.458505 0)
(10.4078 -0.570564 0)
(10.4641 -0.689546 0)
(10.4979 -0.818956 0)
(10.5059 -0.957105 0)
(10.4851 -1.11183 0)
(9.85624 -0.082987 0)
(9.88439 -0.0925097 0)
(9.88325 -0.0605201 0)
(9.92422 -0.0188217 0)
(9.99418 -0.0136117 0)
(10.0495 -0.0391612 0)
(10.0673 -0.0766252 0)
(10.0612 -0.118539 0)
(10.0586 -0.169838 0)
(10.0808 -0.237753 0)
(10.1359 -0.320867 0)
(10.2163 -0.412254 0)
(10.3048 -0.504291 0)
(10.3828 -0.596379 0)
(10.4366 -0.690486 0)
(10.4608 -0.794805 0)
(10.455 -0.911181 0)
(10.425 -1.04942 0)
(9.81049 0.0475617 0)
(9.91018 -0.064434 0)
(9.97912 -0.053248 0)
(10.0565 -0.0502893 0)
(10.144 -0.0646754 0)
(10.1914 -0.073143 0)
(10.1793 -0.0802701 0)
(10.1396 -0.10253 0)
(10.1125 -0.155372 0)
(10.1163 -0.24262 0)
(10.1469 -0.352202 0)
(10.1893 -0.466402 0)
(10.2284 -0.571229 0)
(10.2549 -0.663585 0)
(10.2659 -0.747212 0)
(10.262 -0.833268 0)
(10.246 -0.928782 0)
(10.2167 -1.04532 0)
(9.81661 0.00191698 0)
(9.90419 -0.194364 0)
(9.9209 -0.136566 0)
(9.9253 -0.0838477 0)
(9.99779 -0.0669286 0)
(10.1156 -0.0552475 0)
(10.2414 -0.0555224 0)
(10.3534 -0.0893009 0)
(10.4244 -0.162645 0)
(10.4347 -0.261304 0)
(10.3911 -0.363472 0)
(10.3199 -0.455474 0)
(10.2507 -0.535471 0)
(10.1998 -0.611108 0)
(10.1747 -0.688794 0)
(10.1644 -0.77861 0)
(10.1651 -0.879677 0)
(10.1507 -0.99823 0)
(10.0539 -0.0671283 0)
(9.92876 -0.180986 0)
(9.8145 -0.10883 0)
(9.79252 -0.115964 0)
(9.87533 -0.188275 0)
(9.9913 -0.250194 0)
(10.1038 -0.262146 0)
(10.1942 -0.23348 0)
(10.2372 -0.20025 0)
(10.2241 -0.199253 0)
(10.176 -0.249482 0)
(10.125 -0.347682 0)
(10.0961 -0.472939 0)
(10.0961 -0.604274 0)
(10.1233 -0.722605 0)
(10.1605 -0.826184 0)
(10.1957 -0.911321 0)
(10.2069 -0.986941 0)
(10.134 -0.0719634 0)
(9.97008 0.0600406 0)
(9.92147 0.014343 0)
(9.89315 -0.10355 0)
(9.91284 -0.191958 0)
(9.96083 -0.22985 0)
(10.0167 -0.225989 0)
(10.0736 -0.207685 0)
(10.1248 -0.20221 0)
(10.1633 -0.226418 0)
(10.186 -0.287269 0)
(10.1909 -0.384392 0)
(10.1792 -0.506088 0)
(10.1525 -0.636849 0)
(10.1136 -0.758201 0)
(10.0685 -0.860515 0)
(10.0172 -0.93728 0)
(9.96954 -0.991505 0)
(9.80152 -0.0486798 0)
(9.833 -0.0361136 0)
(9.87559 -0.109174 0)
(9.90872 -0.180371 0)
(9.92467 -0.268575 0)
(9.93799 -0.354202 0)
(9.95725 -0.38373 0)
(9.97417 -0.34841 0)
(9.98045 -0.288923 0)
(9.97536 -0.253514 0)
(9.96007 -0.266158 0)
(9.93408 -0.323979 0)
(9.89691 -0.408136 0)
(9.84998 -0.499496 0)
(9.79569 -0.586871 0)
(9.74007 -0.667241 0)
(9.68514 -0.742137 0)
(9.63824 -0.814685 0)
(9.91585 0.0269084 0)
(9.91122 -0.00326101 0)
(9.91019 -0.0236895 0)
(9.88641 -0.0863556 0)
(9.82981 -0.173736 0)
(9.75859 -0.234645 0)
(9.70173 -0.245446 0)
(9.67191 -0.223205 0)
(9.67148 -0.201619 0)
(9.69405 -0.205895 0)
(9.72349 -0.243897 0)
(9.74237 -0.312002 0)
(9.74307 -0.400512 0)
(9.72692 -0.499699 0)
(9.70015 -0.600104 0)
(9.66543 -0.694511 0)
(9.62754 -0.777027 0)
(9.58333 -0.843434 0)
(9.84732 -0.0661583 0)
(9.89558 -0.0766601 0)
(9.88214 -0.119643 0)
(9.869 -0.128332 0)
(9.8498 -0.140956 0)
(9.82619 -0.193412 0)
(9.8255 -0.267944 0)
(9.85189 -0.327766 0)
(9.88827 -0.355894 0)
(9.92171 -0.359425 0)
(9.94478 -0.353807 0)
(9.95198 -0.352551 0)
(9.94348 -0.362839 0)
(9.92301 -0.387008 0)
(9.89449 -0.422824 0)
(9.85743 -0.466449 0)
(9.81366 -0.512334 0)
(9.76057 -0.557789 0)
(9.76494 -0.0295879 0)
(9.85412 -0.0247641 0)
(9.92127 -0.0354559 0)
(9.94854 -0.0378106 0)
(9.9389 -0.0716322 0)
(9.9168 -0.158671 0)
(9.89226 -0.259135 0)
(9.86355 -0.321514 0)
(9.82958 -0.330427 0)
(9.79639 -0.310259 0)
(9.76939 -0.295184 0)
(9.74866 -0.304876 0)
(9.73323 -0.340259 0)
(9.72393 -0.39205 0)
(9.72031 -0.447302 0)
(9.71805 -0.496843 0)
(9.71234 -0.53432 0)
(9.69683 -0.558958 0)
(9.87242 -0.160899 0)
(9.90703 -0.195103 0)
(9.90958 -0.167671 0)
(9.97722 -0.134587 0)
(10.0477 -0.131905 0)
(10.0649 -0.164535 0)
(10.0299 -0.212567 0)
(9.9732 -0.253367 0)
(9.92101 -0.274578 0)
(9.88805 -0.279034 0)
(9.876 -0.280785 0)
(9.87343 -0.294122 0)
(9.8654 -0.324925 0)
(9.84279 -0.370037 0)
(9.80345 -0.417264 0)
(9.7505 -0.454739 0)
(9.68822 -0.472556 0)
(9.62334 -0.468118 0)
(10.1887 0.0645577 0)
(10.1026 -0.0546947 0)
(9.96778 -0.155358 0)
(9.87273 -0.16736 0)
(9.88038 -0.140635 0)
(9.94635 -0.130234 0)
(10.0044 -0.14511 0)
(10.0235 -0.175245 0)
(10.0026 -0.209314 0)
(9.95852 -0.239575 0)
(9.91148 -0.262339 0)
(9.87146 -0.277348 0)
(9.83772 -0.286322 0)
(9.80416 -0.291873 0)
(9.76461 -0.296973 0)
(9.71632 -0.304035 0)
(9.66052 -0.313429 0)
(9.60254 -0.325896 0)
(9.86308 0.0121721 0)
(9.96322 0.0303809 0)
(9.93443 0.0160657 0)
(9.92113 -0.0789617 0)
(9.90596 -0.200195 0)
(9.87382 -0.274226 0)
(9.85048 -0.279697 0)
(9.85571 -0.24506 0)
(9.87599 -0.206586 0)
(9.88547 -0.18621 0)
(9.87086 -0.190322 0)
(9.8362 -0.213861 0)
(9.79425 -0.245379 0)
(9.7577 -0.273237 0)
(9.73042 -0.290167 0)
(9.70899 -0.295605 0)
(9.68603 -0.291818 0)
(9.6553 -0.285126 0)
(10 -0.0231869 0)
(10.0583 -0.0916004 0)
(10.0865 -0.111492 0)
(10.1239 -0.134693 0)
(10.1028 -0.12249 0)
(10.0115 -0.120142 0)
(9.90149 -0.156015 0)
(9.81707 -0.202737 0)
(9.76853 -0.225744 0)
(9.74653 -0.217157 0)
(9.73706 -0.195386 0)
(9.72669 -0.183419 0)
(9.70542 -0.191056 0)
(9.66869 -0.211712 0)
(9.61675 -0.231173 0)
(9.55409 -0.239972 0)
(9.48603 -0.23422 0)
(9.42017 -0.220351 0)
(10.2216 -0.00685845 0)
(10.2424 -0.0297027 0)
(10.2067 -0.0523544 0)
(10.1113 -0.07796 0)
(9.99805 -0.0812405 0)
(9.92206 -0.0909656 0)
(9.89287 -0.117672 0)
(9.88116 -0.147223 0)
(9.86731 -0.166538 0)
(9.85526 -0.175664 0)
(9.84959 -0.180977 0)
(9.84097 -0.18584 0)
(9.81542 -0.188212 0)
(9.76478 -0.184174 0)
(9.69572 -0.173155 0)
(9.62114 -0.159088 0)
(9.55613 -0.146776 0)
(9.5111 -0.142192 0)
(10.1076 -0.0555863 0)
(10.002 -0.0550162 0)
(9.85415 -0.0490064 0)
(9.84587 -0.0273266 0)
(9.93971 -0.0306633 0)
(10.0374 -0.0715546 0)
(10.0925 -0.1243 0)
(10.098 -0.165115 0)
(10.0649 -0.185533 0)
(10.0051 -0.187338 0)
(9.92762 -0.175157 0)
(9.84202 -0.153603 0)
(9.76071 -0.128047 0)
(9.69464 -0.105805 0)
(9.65148 -0.0939283 0)
(9.63084 -0.0951464 0)
(9.62945 -0.109412 0)
(9.64141 -0.131374 0)
(10.259 -0.024342 0)
(10.2715 0.101502 0)
(10.1415 0.0221058 0)
(10.0528 -0.089546 0)
(10.0215 -0.1466 0)
(10.0196 -0.1576 0)
(10.0337 -0.154848 0)
(10.0546 -0.147421 0)
(10.0732 -0.131528 0)
(10.0768 -0.106337 0)
(10.0524 -0.0815802 0)
(9.99964 -0.069903 0)
(9.93306 -0.0753141 0)
(9.87041 -0.09294 0)
(9.81946 -0.115679 0)
(9.77808 -0.138134 0)
(9.73961 -0.159024 0)
(9.69936 -0.176264 0)
(9.80227 -0.0902399 0)
(9.98155 0.0100712 0)
(10.1234 0.0331702 0)
(10.1493 0.000693771 0)
(10.092 -0.0522282 0)
(10.0209 -0.0987741 0)
(9.96739 -0.136032 0)
(9.92001 -0.163556 0)
(9.87093 -0.171798 0)
(9.83185 -0.153031 0)
(9.81302 -0.114015 0)
(9.81318 -0.0729689 0)
(9.82567 -0.0451451 0)
(9.84385 -0.0335268 0)
(9.85872 -0.0330794 0)
(9.86091 -0.0384187 0)
(9.84549 -0.0486068 0)
(9.8097 -0.0651284 0)
(9.86496 -0.0534568 0)
(10.0061 -0.0295659 0)
(10.0811 -0.0220182 0)
(10.057 -0.0434461 0)
(10.0073 -0.0763516 0)
(9.99617 -0.107653 0)
(10.0047 -0.12252 0)
(9.96957 -0.12132 0)
(9.85988 -0.109574 0)
(9.7095 -0.0927853 0)
(9.58125 -0.0786161 0)
(9.51665 -0.0752629 0)
(9.51664 -0.085295 0)
(9.55808 -0.102937 0)
(9.61109 -0.118285 0)
(9.65194 -0.125468 0)
(9.66695 -0.124151 0)
(9.64721 -0.118696 0)
(9.90794 -0.0428273 0)
(9.74221 -0.0546119 0)
(9.68895 0.0110538 0)
(9.71186 0.0172314 0)
(9.61605 -0.0333653 0)
(9.34093 -0.0909401 0)
(8.97806 -0.111126 0)
(8.63934 -0.0905885 0)
(8.38099 -0.0543504 0)
(8.20284 -0.0286794 0)
(8.07121 -0.0261013 0)
(7.94201 -0.0433783 0)
(7.78091 -0.0674056 0)
(7.58079 -0.0833226 0)
(7.36009 -0.0827422 0)
(7.1484 -0.0675676 0)
(6.96501 -0.0446137 0)
(6.82192 -0.0247597 0)
(-0.327479 0.780027 5.76694e-21)
(-0.797666 0.549287 -5.67155e-21)
(-1.20304 0.246534 0)
(-1.41406 -0.0266348 0)
(-1.2312 -0.401399 0)
(-0.792171 -0.677071 5.65326e-21)
(-0.110604 -0.844524 0)
(0.694342 -0.910858 0)
(1.52408 -0.906211 0)
(2.32725 -0.847108 0)
(3.08206 -0.756763 -5.38803e-21)
(3.76192 -0.651658 0)
(4.35416 -0.544251 0)
(4.85839 -0.441294 0)
(5.27772 -0.346317 0)
(5.61951 -0.260312 -3.98597e-21)
(5.88846 -0.182551 0)
(6.09218 -0.113056 0)
(6.23545 -0.0468593 0)
(6.31769 0.0143628 0)
(6.35234 0.0795097 0)
(6.30795 0.150739 0)
(6.21988 0.220212 0)
(6.01286 0.338463 -3.10076e-21)
(5.76283 0.405533 3.13135e-21)
(5.37169 0.610565 -3.1908e-21)
(4.81524 0.711205 -3.25188e-21)
(4.28176 0.841708 0)
(3.18343 1.48786 0)
(2.10139 0.649564 3.21236e-21)
(1.49302 -0.401203 3.08664e-21)
(0.934619 0.137298 0)
(0.348619 0.659566 0)
(-0.195879 0.47028 2.70353e-21)
(-0.751092 0.168003 0)
(-1.26238 -0.0967051 0)
(-1.64054 -0.353062 -2.11113e-21)
(-1.70059 -0.619485 0)
(-1.3088 -0.959704 -2.18777e-21)
(-0.370755 -1.30212 -5.10638e-21)
(0.925075 -1.3365 0)
(2.0964 -0.960026 0)
(3.08196 -0.715816 0)
(3.40965 0.296299 0)
(3.04326 0.410013 0)
(2.30825 0.288952 -6.42188e-21)
(1.76345 0.850812 -6.50836e-21)
(1.4705 -1.03438 -6.51118e-21)
(1.75743 -1.70719 0)
(1.39206 0.0480574 5.91485e-21)
(-0.216038 1.1684 0)
(-1.68261 1.17322 -5.46639e-21)
(-3.08352 1.07705 -4.73277e-21)
(-4.30331 0.95849 0)
(-5.41499 0.837541 0)
(-6.37612 0.724724 0)
(-7.23189 0.620903 -3.84561e-22)
(-7.96772 0.529702 0)
(-8.61162 0.447722 0)
(-9.1589 0.375721 0)
(-9.62691 0.310747 0)
(-10.0155 0.252948 0)
(-10.3362 0.200777 0)
(-10.5917 0.154568 0)
(-10.7914 0.113922 0)
(-10.941 0.0797167 -6.00684e-21)
(-11.0501 0.0527379 0)
(-11.1274 0.0339116 0)
(-11.1844 0.0233965 6.33283e-21)
(-11.2322 0.0225105 6.3083e-21)
(-11.2839 0.0337019 0)
(-11.354 0.0591861 -6.14214e-21)
(-11.4582 0.0982446 6.02799e-21)
(-11.6088 0.142533 0)
(-11.8081 0.178109 -5.79316e-21)
(-12.0474 0.193315 0)
(-12.3048 0.181977 0)
(-12.5388 0.139765 5.42147e-21)
(-12.6919 0.0661117 0)
(-12.7101 -0.0255389 -4.87152e-21)
(-12.5649 -0.111574 0)
(-12.2739 -0.18637 3.75679e-21)
(-11.8422 -0.256916 3.00763e-21)
(-11.2882 -0.310599 2.18686e-21)
(-10.6477 -0.342801 2.69814e-21)
(-9.95597 -0.358519 -1.09551e-21)
(-9.25102 -0.356391 0)
(-8.56817 -0.337946 0)
(-7.92928 -0.310908 0)
(-7.34499 -0.280278 3.46418e-21)
(-6.8208 -0.247895 4.13865e-21)
(-6.35713 -0.216312 -4.68089e-21)
(-5.94882 -0.188006 0)
(-5.58799 -0.163703 5.48517e-21)
(-5.26694 -0.14327 5.7916e-21)
(-4.97853 -0.126486 6.05435e-21)
(-4.71663 -0.112795 0)
(-4.47645 -0.101605 0)
(-4.25384 -0.0926757 0)
(-4.04501 -0.0860414 6.82786e-21)
(-3.84633 -0.0816777 0)
(-3.65343 -0.0794929 0)
(-3.46072 -0.0796825 -7.27869e-21)
(-3.26233 -0.0825403 0)
(-3.05241 -0.0881712 0)
(-2.82469 -0.0965741 -7.82536e-21)
(-2.57272 -0.107565 0)
(-2.29092 -0.120584 0)
(-1.97526 -0.134763 8.62142e-21)
(-1.62337 -0.149215 8.94002e-21)
(-1.23563 -0.162556 0)
(-0.815581 -0.173382 -9.59442e-21)
(-0.370004 -0.180213 0)
(0.0912301 -0.181952 1.01431e-20)
(0.556577 -0.178925 0)
(1.01408 -0.171144 1.04287e-20)
(1.4525 -0.159443 1.04576e-20)
(1.86277 -0.14507 0)
(2.23894 -0.129415 0)
(2.57829 -0.113742 0)
(2.88106 -0.0989977 0)
(3.14982 -0.0857724 0)
(3.3887 -0.0744108 0)
(3.60268 -0.065044 0)
(3.79684 -0.0574019 9.0951e-21)
(3.97547 -0.0508491 -8.88547e-21)
(4.14148 -0.0450092 0)
(4.29674 -0.0399366 0)
(4.4421 -0.0349047 0)
(4.57623 -0.0281099 0)
(4.69533 -0.0195371 -1.60403e-20)
(4.79687 -0.012086 0)
(4.88121 -0.00557895 1.5503e-20)
(4.94335 0.00675687 -1.52621e-20)
(4.96706 0.0277827 0)
(4.94285 0.0494075 0)
(4.87551 0.0630479 0)
(4.77786 0.0658347 1.44225e-20)
(4.66674 0.0591244 1.42345e-20)
(4.55729 0.0472913 0)
(4.4587 0.0355289 1.38901e-20)
(4.37296 0.0279222 1.37329e-20)
(4.29652 0.0260193 -1.35824e-20)
(4.22344 0.0286687 0)
(4.14888 0.0330169 0)
(4.07129 0.0360095 -1.31481e-20)
(3.9925 0.0357803 0)
(3.91609 0.0323302 0)
(3.84523 0.0271896 0)
(3.78127 0.0224252 0)
(3.72333 0.0196346 1.24776e-20)
(3.66885 0.0194522 1.23525e-20)
(3.61446 0.0216619 0)
(3.55675 0.0256674 1.21045e-20)
(3.49259 0.0308871 0)
(3.41938 0.0366702 0)
(3.33562 0.0419359 1.1725e-20)
(3.2419 0.0451368 0)
(3.14156 0.0449337 1.14607e-20)
(3.04027 0.0411338 0)
(2.94432 0.0347064 0)
(2.85888 0.0272328 1.10641e-20)
(2.78631 0.0201815 0)
(2.72673 0.0144009 1.08172e-20)
(2.67804 0.0101079 0)
(2.63819 0.00711029 0)
(2.60414 0.00514001 0)
(2.57473 0.00392173 -1.03584e-20)
(2.54717 0.00343094 0)
(2.52165 0.00346045 1.01384e-20)
(2.49497 0.00423193 0)
(2.46786 0.00521916 0)
(2.43724 0.00737655 0)
(2.40102 0.00909438 0)
(2.36218 0.013639 0)
(2.30067 0.0156746 0)
(2.25371 0.0262777 0)
(2.12153 0.0267993 -1.87434e-20)
(2.09146 0.0559187 0)
(1.73877 0.0452431 0)
(-0.0164213 1.40421 -1.71172e-20)
(0.0137687 1.10556 1.68824e-20)
(-0.197584 0.905329 0)
(-0.0298666 0.234058 -1.08407e-20)
(0.448113 -0.885162 0)
(1.17942 -1.78414 -5.63523e-21)
(1.94525 -2.32364 1.08499e-20)
(2.68291 -2.54518 1.07528e-20)
(3.36561 -2.53808 0)
(3.98575 -2.38444 1.01471e-20)
(4.53585 -2.15365 5.35583e-21)
(5.01449 -1.89212 0)
(5.42599 -1.62719 0)
(5.7755 -1.37423 0)
(6.07058 -1.13954 0)
(6.316 -0.926339 3.97552e-21)
(6.51956 -0.731894 0)
(6.6833 -0.555617 -6.63223e-21)
(6.81549 -0.389836 0)
(6.91292 -0.232162 0)
(6.98475 -0.0758231 5.93846e-21)
(7.02419 0.0917062 0)
(7.047 0.256549 -5.70954e-21)
(7.03007 0.470628 3.0914e-21)
(6.97278 0.664195 -3.11963e-21)
(6.89422 0.955723 3.17577e-21)
(6.6917 1.24087 3.23279e-21)
(6.56834 1.53065 0)
(6.12753 2.01696 0)
(5.82031 2.17621 -3.17817e-21)
(5.37287 2.3316 2.5632e-21)
(4.05466 1.958 0)
(3.05172 1.18338 0)
(2.52754 1.09863 -2.68781e-21)
(1.99906 1.37212 0)
(1.62203 1.34291 0)
(1.2759 1.00767 2.11815e-21)
(0.9933 0.156225 0)
(0.960007 -1.21253 -1.7694e-21)
(1.38828 -2.53464 5.0865e-21)
(2.02017 -3.03717 0)
(2.72384 -2.52822 0)
(3.10979 -1.19722 1.087e-20)
(3.12991 -0.0206786 1.1082e-20)
(2.97138 0.925227 1.18092e-20)
(1.65622 1.6528 -6.17064e-21)
(1.93245 0.347475 6.50956e-21)
(0.554041 0.972573 1.9397e-20)
(-1.64172 2.15854 -1.18619e-20)
(-2.96636 2.66514 -5.87943e-21)
(-4.25984 2.86296 0)
(-5.21297 2.68655 5.41353e-21)
(-6.15098 2.44913 -2.63193e-21)
(-6.91301 2.17912 0)
(-7.63003 1.90928 0)
(-8.23182 1.66533 0)
(-8.78217 1.44031 3.82893e-22)
(-9.25378 1.24284 0)
(-9.67608 1.06327 4.60721e-21)
(-10.0384 0.903389 0)
(-10.3541 0.757257 7.90275e-21)
(-10.6199 0.625604 0)
(-10.8431 0.506178 -1.03882e-20)
(-11.0244 0.400179 0)
(-11.1702 0.307747 1.1999e-20)
(-11.2843 0.230609 -6.48828e-21)
(-11.3733 0.169836 0)
(-11.4433 0.127132 -1.29286e-20)
(-11.5017 0.103436 -6.32911e-21)
(-11.5567 0.0996726 -6.30458e-21)
(-11.6169 0.116703 0)
(-11.6897 0.154683 -6.21519e-21)
(-11.7802 0.210642 -6.02396e-21)
(-11.8914 0.275072 0)
(-12.0241 0.331581 5.78971e-21)
(-12.1734 0.360341 -1.14624e-20)
(-12.3259 0.341664 0)
(-12.4581 0.25699 -5.42118e-21)
(-12.533 0.0965984 0)
(-12.5076 -0.121167 1.51063e-20)
(-12.3468 -0.35792 0)
(-12.0213 -0.587625 -1.17842e-20)
(-11.5562 -0.791067 -3.00671e-21)
(-10.9793 -0.951018 2.61548e-21)
(-10.3092 -1.0568 3.41648e-21)
(-9.58414 -1.10138 -1.66261e-21)
(-8.85126 -1.08563 0)
(-8.14628 -1.02427 0)
(-7.49201 -0.936658 0)
(-6.90194 -0.837326 -1.02349e-20)
(-6.38113 -0.736433 -4.13845e-21)
(-5.92809 -0.642144 4.68105e-21)
(-5.53596 -0.560314 0)
(-5.19416 -0.492702 5.42338e-21)
(-4.89181 -0.437826 -5.79256e-21)
(-4.61991 -0.393693 -6.05547e-21)
(-4.37159 -0.358374 0)
(-4.142 -0.329949 0)
(-3.92755 -0.307233 0)
(-3.72446 -0.289977 -6.82938e-21)
(-3.52917 -0.27794 0)
(-3.33773 -0.271939 1.41931e-20)
(-3.14514 -0.273271 2.17591e-20)
(-2.94612 -0.282558 -1.47839e-20)
(-2.73502 -0.300366 0)
(-2.50579 -0.326584 -7.68781e-21)
(-2.25194 -0.360488 0)
(-1.96793 -0.40018 -1.64849e-20)
(-1.64972 -0.443034 8.44635e-21)
(-1.29467 -0.486638 8.76362e-21)
(-0.903284 -0.526815 0)
(-0.478912 -0.559644 2.86271e-20)
(-0.0290042 -0.579289 -1.96489e-20)
(0.435181 -0.585645 -1.01347e-20)
(0.901592 -0.577285 0)
(1.35839 -0.554646 -1.04187e-20)
(1.79422 -0.520119 -3.12935e-20)
(2.20056 -0.4773 0)
(2.57228 -0.430273 -2.05649e-20)
(2.90746 -0.382926 -2.02598e-20)
(3.20684 -0.338441 -1.98831e-20)
(3.47317 -0.299035 0)
(3.71061 -0.265892 0)
(3.92389 -0.239208 0)
(4.11765 -0.218356 9.04611e-21)
(4.29609 -0.202102 8.88083e-21)
(4.46291 -0.188882 0)
(4.62061 -0.177047 1.69584e-20)
(4.76981 -0.164958 1.66175e-20)
(4.9106 -0.151166 0)
(5.04457 -0.13499 1.60327e-20)
(5.17264 -0.116611 3.14613e-20)
(5.29171 -0.0949455 -1.54951e-20)
(5.40054 -0.0663722 -1.5213e-20)
(5.50466 -0.0300348 0)
(5.59876 0.00844261 0)
(5.66726 0.0431133 0)
(5.69994 0.0689142 -1.44081e-20)
(5.69424 0.0833628 1.41982e-20)
(5.65508 0.0870905 2.80667e-20)
(5.5915 0.0830163 -1.38729e-20)
(5.51422 0.075415 1.37108e-20)
(5.43426 0.0681412 1.35658e-20)
(5.36142 0.0631457 0)
(5.30208 0.060448 0)
(5.25786 0.0590111 -1.31273e-20)
(5.22579 0.0576315 0)
(5.19987 0.0555435 0)
(5.17333 0.0525737 2.54366e-20)
(5.14108 0.0490473 0)
(5.10134 0.0456544 1.24605e-20)
(5.05576 0.0431436 -1.23358e-20)
(5.00791 0.0420557 0)
(4.96138 0.0427039 1.20843e-20)
(4.91857 0.0452101 0)
(4.88055 0.0493621 0)
(4.84732 0.0544393 -1.17082e-20)
(4.81829 0.0592856 2.31485e-20)
(4.79269 0.0625279 -1.14431e-20)
(4.76967 0.062782 0)
(4.74838 0.0595211 0)
(4.72833 0.0534451 1.10503e-20)
(4.70941 0.0460401 0)
(4.69182 0.0387352 1.08044e-20)
(4.67542 0.0325247 0)
(4.66001 0.0277146 0)
(4.64477 0.0243784 0)
(4.62901 0.0220486 1.03403e-20)
(4.61184 0.0208213 0)
(4.59266 0.0199503 -1.01208e-20)
(4.57139 0.0203687 0)
(4.54668 0.0204241 0)
(4.52096 0.0232586 1.96063e-20)
(4.48801 0.0243038 -1.94047e-20)
(4.45881 0.0320764 0)
(4.40894 0.033808 0)
(4.38013 0.0528762 0)
(4.28671 0.0541336 5.60744e-20)
(4.27448 0.101395 0)
(4.06157 0.100221 -3.67438e-20)
(0.174296 1.03578 -1.02126e-22)
(0.170497 1.15041 -2.25296e-20)
(0.390128 0.525206 0)
(1.21939 -1.10173 2.16558e-20)
(2.13104 -2.58317 0)
(2.89087 -3.52609 0)
(3.46861 -3.91926 -7.22908e-22)
(3.90147 -3.90666 -1.06955e-20)
(4.22851 -3.64621 -9.40013e-21)
(4.48052 -3.26519 -1.01208e-20)
(4.6831 -2.84705 0)
(4.85586 -2.43836 0)
(5.01014 -2.06004 7.79492e-21)
(5.15076 -1.71945 1.48291e-20)
(5.28072 -1.41665 -1.41183e-20)
(5.40098 -1.14976 0)
(5.5148 -0.912699 -1.2867e-20)
(5.62219 -0.70189 6.64917e-21)
(5.72586 -0.507684 0)
(5.82298 -0.326031 -1.14373e-20)
(5.91399 -0.148542 -5.95445e-21)
(5.99847 0.0382985 1.07881e-20)
(6.07409 0.227319 5.72453e-21)
(6.15506 0.461538 0)
(6.22993 0.699738 -1.02362e-20)
(6.32885 1.01398 -1.01506e-20)
(6.39267 1.36185 0)
(6.49678 1.72481 -1.00863e-20)
(6.5153 2.19917 0)
(6.52955 2.55029 -1.00823e-20)
(6.4658 2.86611 -5.59064e-21)
(6.08405 3.09782 0)
(5.61479 3.00579 0)
(4.81352 2.51181 0)
(3.94201 1.89298 0)
(3.5156 1.32945 0)
(3.28477 0.7721 0)
(3.14279 0.184903 -8.50608e-21)
(3.10287 -0.998048 1.24603e-20)
(3.17778 -2.75336 0)
(3.29205 -3.55058 0)
(3.15282 -2.73021 0)
(2.84278 -1.0651 -7.72566e-22)
(2.09583 0.933824 -1.10967e-20)
(1.27639 2.30716 -2.29821e-20)
(0.471258 2.06917 2.44725e-20)
(-0.616066 2.5387 1.18259e-20)
(-2.58148 3.61526 -1.2795e-20)
(-3.88454 3.93216 1.3362e-21)
(-4.86876 4.1004 -9.1662e-21)
(-5.61406 3.98734 0)
(-6.16642 3.72101 -6.3678e-21)
(-6.69352 3.36056 2.52923e-21)
(-7.15205 3.00375 0)
(-7.61813 2.64904 0)
(-8.05412 2.33526 -6.45421e-22)
(-8.48201 2.0436 0)
(-8.88037 1.78452 0)
(-9.25175 1.54401 7.57119e-21)
(-9.58502 1.32433 1.53911e-20)
(-9.87828 1.11894 -7.90568e-21)
(-10.1269 0.929674 0)
(-10.3305 0.755399 1.03945e-20)
(-10.4891 0.598843 0)
(-10.6055 0.46148 1.36542e-20)
(-10.6843 0.346379 1.25025e-20)
(-10.7315 0.255653 -2.68606e-20)
(-10.7538 0.191837 -1.39921e-20)
(-10.7604 0.156982 0)
(-10.7618 0.152744 2.6304e-20)
(-10.7686 0.178833 0)
(-10.7915 0.232026 3.74491e-20)
(-10.8419 0.306452 2.44283e-20)
(-10.9308 0.393615 2.38607e-20)
(-11.0684 0.478767 -2.34449e-20)
(-11.257 0.535232 3.46983e-20)
(-11.4814 0.522896 0)
(-11.7009 0.400973 0)
(-11.8464 0.150708 -2.28364e-20)
(-11.852 -0.206363 -3.21655e-20)
(-11.6996 -0.61565 0)
(-11.3966 -1.01413 8.03124e-21)
(-10.9561 -1.35852 0)
(-10.3964 -1.63552 -1.58098e-20)
(-9.7411 -1.82622 1.20669e-21)
(-9.02537 -1.90695 -9.80374e-22)
(-8.28847 -1.87919 4.809e-22)
(-7.5674 -1.76973 0)
(-6.89175 -1.61085 4.6119e-21)
(-6.27825 -1.42904 3.22903e-22)
(-5.73187 -1.24385 0)
(-5.25275 -1.07011 0)
(-4.83831 -0.919535 0)
(-4.48154 -0.797613 -1.09155e-20)
(-4.17244 -0.702117 0)
(-3.89985 -0.627946 0)
(-3.65394 -0.569973 0)
(-3.42869 -0.524266 0)
(-3.2217 -0.48864 0)
(-3.02924 -0.462663 -1.35476e-20)
(-2.84721 -0.445162 0)
(-2.67215 -0.436566 -1.42027e-20)
(-2.49826 -0.439431 -1.44882e-20)
(-2.3196 -0.454651 1.47927e-20)
(-2.12981 -0.483589 0)
(-1.92193 -0.526354 1.55219e-20)
(-1.68827 -0.581798 0)
(-1.42174 -0.646997 1.64905e-20)
(-1.117 -0.717727 -1.70727e-20)
(-0.771153 -0.790212 -5.25688e-20)
(-0.38393 -0.85759 0)
(0.0428614 -0.910223 -5.65915e-20)
(0.497732 -0.943518 -1.91964e-20)
(0.965442 -0.953361 0)
(1.43253 -0.93726 -4.07421e-20)
(1.88282 -0.897056 -4.12671e-20)
(2.302 -0.837859 6.22832e-20)
(2.68083 -0.766402 0)
(3.01588 -0.689384 2.05448e-20)
(3.30881 -0.612464 2.02422e-20)
(3.56468 -0.539968 5.9471e-20)
(3.79007 -0.474948 0)
(3.99173 -0.419237 0)
(4.17569 -0.373435 0)
(4.34678 -0.336932 1.79795e-20)
(4.50787 -0.308226 0)
(4.65921 -0.285362 0)
(4.79885 -0.265948 -1.69521e-20)
(4.92436 -0.24739 -1.66121e-20)
(5.03456 -0.228296 0)
(5.12989 -0.209045 0)
(5.21253 -0.189651 -3.14565e-20)
(5.28767 -0.168194 0)
(5.36454 -0.141588 3.0465e-20)
(5.45383 -0.105673 2.99587e-20)
(5.55962 -0.0573819 0)
(5.66848 -0.00095077 0)
(5.75222 0.0517577 -2.87523e-20)
(5.7879 0.0912237 -2.7592e-23)
(5.7712 0.114569 -2.1106e-23)
(5.71459 0.124689 0)
(5.63556 0.12546 -5.48284e-20)
(5.54841 0.119425 0)
(5.46389 0.10857 0)
(5.39149 0.0951948 0)
(5.339 0.0817813 2.62558e-20)
(5.31 0.0706201 0)
(5.30159 0.063559 -5.13965e-20)
(5.30437 0.0614047 -2.54326e-20)
(5.3055 0.0633158 0)
(5.29424 0.0671568 -2.49156e-20)
(5.26654 0.0707002 0)
(5.22556 0.07274 0)
(5.17851 0.0733448 -7.24883e-20)
(5.13251 0.0732968 4.78199e-20)
(5.09243 0.0732911 0)
(5.06069 0.0733329 4.67983e-20)
(5.03804 0.0727344 -2.3143e-20)
(5.02402 0.0705362 0)
(5.01724 0.0657934 0)
(5.01577 0.0585302 0)
(5.01753 0.049791 -6.62833e-20)
(5.02084 0.0409445 0)
(5.02449 0.0330673 -2.15961e-20)
(5.02795 0.0268836 0)
(5.03068 0.0225306 0)
(5.03245 0.0201361 0)
(5.03228 0.0191756 0)
(5.03008 0.0198248 0)
(5.02437 0.0209946 0)
(5.01636 0.0237764 -4.00282e-20)
(5.00368 0.0260026 0)
(4.99016 0.0312787 -1.9598e-20)
(4.96983 0.0343515 5.81678e-20)
(4.95223 0.0446859 0)
(4.92179 0.0488941 0)
(4.90272 0.0709462 -3.76233e-20)
(4.85542 0.0775876 -3.73449e-20)
(4.84143 0.127299 3.69254e-20)
(4.76579 0.143163 3.67222e-20)
(-0.0951055 0.523065 3.46716e-20)
(0.173751 0.545477 3.427e-20)
(1.27603 -1.51572 2.23079e-20)
(2.3248 -3.33623 1.06142e-20)
(3.07631 -4.38808 0)
(3.50286 -4.71214 -1.95375e-20)
(3.68188 -4.53802 8.64197e-21)
(3.72193 -4.11079 0)
(3.71404 -3.60815 9.41071e-21)
(3.71249 -3.12418 0)
(3.73778 -2.69237 -1.56407e-20)
(3.79109 -2.31432 0)
(3.86741 -1.98123 -7.81793e-21)
(3.96091 -1.68604 -1.48744e-20)
(4.06775 -1.42527 1.41619e-20)
(4.18487 -1.19632 0)
(4.30943 -0.993988 1.29058e-20)
(4.4366 -0.811674 0)
(4.56294 -0.640876 0)
(4.68576 -0.475393 1.14695e-20)
(4.80373 -0.309087 0)
(4.92101 -0.133165 -7.09088e-22)
(5.03776 0.0522349 0)
(5.16199 0.271241 0)
(5.2893 0.511135 8.68077e-22)
(5.42749 0.800359 1.01768e-20)
(5.57654 1.14795 9.11691e-21)
(5.73963 1.52577 1.01075e-20)
(5.90094 1.98566 0)
(6.07769 2.45832 1.90892e-20)
(6.22432 2.8832 0)
(6.27902 3.30778 9.14517e-21)
(6.25351 3.6109 0)
(5.96398 3.54228 0)
(5.40171 3.13169 -9.61823e-21)
(4.86534 2.33207 0)
(4.4194 1.35477 9.72657e-21)
(3.9523 0.587909 -1.29196e-21)
(3.77693 -0.929907 -1.83809e-20)
(3.75977 -2.86624 2.02005e-20)
(3.36661 -3.24479 0)
(2.62516 -1.6575 0)
(1.61737 0.649895 9.7778e-21)
(0.499785 2.47992 0)
(-0.287777 3.36588 1.11471e-20)
(-1.46764 3.93205 -1.17975e-20)
(-2.90073 4.8848 -1.17382e-20)
(-4.09399 5.26559 0)
(-4.7376 5.16352 1.03878e-20)
(-5.36417 5.02511 9.14336e-21)
(-5.7679 4.68987 -1.0812e-20)
(-6.19242 4.34936 6.36157e-21)
(-6.56843 3.95308 4.7734e-21)
(-6.96778 3.59067 0)
(-7.35817 3.22593 0)
(-7.75701 2.89501 6.45282e-22)
(-8.13997 2.57416 0)
(-8.50989 2.27567 0)
(-8.8492 1.98698 -1.21805e-20)
(-9.15654 1.71258 -1.53951e-20)
(-9.42056 1.44798 0)
(-9.64016 1.19699 0)
(-9.81088 0.960736 0)
(-9.93494 0.744198 0)
(-10.0135 0.551316 -2.56874e-20)
(-10.0518 0.38773 2.83774e-20)
(-10.0554 0.257637 2.68936e-20)
(-10.0327 0.165529 5.53429e-20)
(-9.99227 0.115583 0)
(-9.944 0.11144 8.98822e-22)
(-9.9004 0.155907 0)
(-9.87582 0.248914 -2.51176e-20)
(-9.88568 0.383676 2.92564e-22)
(-9.94481 0.544115 -2.38979e-20)
(-10.0591 0.69779 2.348e-20)
(-10.2211 0.795635 2.82999e-22)
(-10.4113 0.77691 0)
(-10.5918 0.588242 2.40342e-20)
(-10.7014 0.214273 2.28779e-20)
(-10.6835 -0.305348 4.54839e-20)
(-10.5307 -0.88054 0)
(-10.2561 -1.42433 -1.95443e-20)
(-9.87202 -1.89995 0)
(-9.39524 -2.28639 2.3692e-20)
(-8.84816 -2.55454 -7.32154e-21)
(-8.25108 -2.67939 3.73764e-21)
(-7.62454 -2.6594 -4.80874e-22)
(-6.99667 -2.52017 3.08178e-21)
(-6.39716 -2.30382 -4.61091e-21)
(-5.84462 -2.05281 6.44733e-21)