/*--------------------------------*- C++ -*----------------------------------*\
| =========                 |                                                 |
| \\      /  F ield         | OpenFOAM: The Open Source CFD Toolbox           |
|  \\    /   O peration     | Version:  2112                                  |
|   \\  /    A nd           | Website:  www.openfoam.com                      |
|    \\/     M anipulation  |                                                 |
\*---------------------------------------------------------------------------*/
FoamFile
{
    version     2.0;
    format      ascii;
    arch        "LSB;label=32;scalar=64";
    class       volVectorField;
    location    "0.44";
    object      U;
}
// * * * * * * * * * * * * * * * * * * * * * * * * * * * * * * * * * * * * * //

dimensions      [0 1 -1 0 0 0 0];

internalField   nonuniform List<vector> 
12225
(
(9.764 0.0614774 0)
(9.26496 0.112617 0)
(8.73088 0.130614 0)
(8.20292 0.137409 0)
(7.72644 0.137239 0)
(7.32696 0.131447 0)
(7.01414 0.12198 0)
(6.78616 0.110853 0)
(6.63059 0.0995433 0)
(6.52981 0.0911916 0)
(6.46425 0.0858859 0)
(6.41686 0.0825715 0)
(6.37555 0.0802895 0)
(6.33418 0.0783578 0)
(6.28789 0.0761672 0)
(6.24497 0.0741905 0)
(6.14564 0.0974297 0)
(6.14723 -0.0421327 0)
(10.092 0.0650417 0)
(10.269 0.105438 0)
(10.3698 0.111933 0)
(10.3901 0.1129 0)
(10.3391 0.108114 0)
(10.2234 0.09584 0)
(10.051 0.0778047 0)
(9.83367 0.0572892 0)
(9.5846 0.037546 0)
(9.31709 0.0222426 0)
(9.04373 0.0120941 0)
(8.77621 0.00634023 0)
(8.52395 0.00380401 0)
(8.29385 0.003472 0)
(8.08758 0.00398024 0)
(7.91062 0.00905673 0)
(7.755 0.0162017 0)
(7.68562 0.0874743 0)
(10.0204 0.0456716 0)
(10.0761 0.0769278 0)
(10.1309 0.0909298 0)
(10.1821 0.105551 0)
(10.2312 0.11788 0)
(10.2724 0.125611 0)
(10.2982 0.129988 0)
(10.3046 0.133172 0)
(10.2906 0.136729 0)
(10.2568 0.14074 0)
(10.2043 0.144577 0)
(10.1343 0.147353 0)
(10.0482 0.148243 0)
(9.94763 0.147022 0)
(9.83441 0.143576 0)
(9.71174 0.140675 0)
(9.58543 0.137926 0)
(9.46069 0.142255 0)
(10.0113 0.0353851 0)
(10.043 0.0681596 0)
(10.0735 0.0851015 0)
(10.0998 0.0983531 0)
(10.1263 0.107903 0)
(10.1531 0.113082 0)
(10.1779 0.115195 0)
(10.1994 0.116152 0)
(10.2177 0.117394 0)
(10.2332 0.119497 0)
(10.2465 0.122759 0)
(10.2577 0.126989 0)
(10.2665 0.13165 0)
(10.2723 0.136346 0)
(10.2741 0.140761 0)
(10.272 0.145716 0)
(10.2682 0.150312 0)
(10.261 0.148657 0)
(10.0072 0.0296693 0)
(10.0323 0.0621985 0)
(10.057 0.0791169 0)
(10.0779 0.0913732 0)
(10.0982 0.100292 0)
(10.1181 0.105541 0)
(10.1364 0.108116 0)
(10.1526 0.10967 0)
(10.1673 0.111512 0)
(10.1813 0.114236 0)
(10.1955 0.117992 0)
(10.2106 0.122465 0)
(10.2267 0.127103 0)
(10.244 0.131479 0)
(10.2623 0.135301 0)
(10.2821 0.138617 0)
(10.3041 0.140278 0)
(10.3293 0.136781 0)
(10.0049 0.0246457 0)
(10.0256 0.0559894 0)
(10.0478 0.0733277 0)
(10.0671 0.0854516 0)
(10.0854 0.094242 0)
(10.1032 0.0997793 0)
(10.1196 0.102851 0)
(10.1342 0.104834 0)
(10.1477 0.106847 0)
(10.1607 0.109399 0)
(10.174 0.11258 0)
(10.1882 0.116144 0)
(10.2034 0.119682 0)
(10.2199 0.122829 0)
(10.2376 0.125259 0)
(10.2569 0.126704 0)
(10.2781 0.126191 0)
(10.3014 0.121723 0)
(10.0036 0.0205147 0)
(10.0203 0.0495872 0)
(10.0405 0.0672721 0)
(10.0591 0.0795384 0)
(10.0767 0.0884163 0)
(10.0937 0.0941116 0)
(10.1094 0.0973884 0)
(10.1236 0.0994896 0)
(10.1368 0.101491 0)
(10.1497 0.103787 0)
(10.1629 0.106452 0)
(10.1768 0.109309 0)
(10.1916 0.11203 0)
(10.2075 0.11427 0)
(10.2244 0.115655 0)
(10.2425 0.115926 0)
(10.2619 0.114267 0)
(10.2824 0.109293 0)
(10.0027 0.0171652 0)
(10.0161 0.0436189 0)
(10.034 0.0608743 0)
(10.0516 0.0731743 0)
(10.0689 0.0821275 0)
(10.0857 0.0879797 0)
(10.1014 0.0915606 0)
(10.1157 0.0939357 0)
(10.129 0.0959124 0)
(10.142 0.0979199 0)
(10.1552 0.100107 0)
(10.169 0.102356 0)
(10.1835 0.10439 0)
(10.199 0.105888 0)
(10.2152 0.106512 0)
(10.2323 0.105864 0)
(10.2501 0.103278 0)
(10.2685 0.0978926 0)
(10.0018 0.0144522 0)
(10.0127 0.0383195 0)
(10.0283 0.0547387 0)
(10.0446 0.0665343 0)
(10.0611 0.0751783 0)
(10.0776 0.0811318 0)
(10.0933 0.0850669 0)
(10.108 0.0877675 0)
(10.1217 0.0897984 0)
(10.135 0.0916329 0)
(10.1483 0.0934263 0)
(10.1619 0.0950993 0)
(10.1762 0.0964339 0)
(10.1911 0.0971648 0)
(10.2067 0.0969923 0)
(10.2229 0.0954456 0)
(10.2395 0.0920553 0)
(10.2562 0.086353 0)
(10.0011 0.0122372 0)
(10.01 0.0335896 0)
(10.0237 0.0488912 0)
(10.0386 0.0600512 0)
(10.054 0.0682451 0)
(10.0696 0.0739844 0)
(10.085 0.0778955 0)
(10.0997 0.08068 0)
(10.1138 0.0828196 0)
(10.1274 0.0845723 0)
(10.1409 0.086038 0)
(10.1545 0.087167 0)
(10.1685 0.087801 0)
(10.183 0.0877339 0)
(10.1979 0.0867332 0)
(10.2131 0.0844993 0)
(10.2285 0.0806722 0)
(10.2437 0.074988 0)
(10.0007 0.0103469 0)
(10.008 0.0292053 0)
(10.02 0.0433476 0)
(10.0335 0.0537124 0)
(10.0477 0.0613664 0)
(10.0624 0.0667834 0)
(10.0771 0.0705316 0)
(10.0914 0.0732085 0)
(10.1054 0.0752208 0)
(10.1191 0.0767745 0)
(10.1327 0.0779326 0)
(10.1464 0.0786408 0)
(10.1602 0.0787672 0)
(10.1743 0.0781436 0)
(10.1885 0.0765827 0)
(10.2029 0.0738654 0)
(10.2172 0.0697603 0)
(10.2311 0.0641576 0)
(10.0005 0.00886994 0)
(10.0067 0.0254359 0)
(10.0174 0.0384175 0)
(10.0298 0.0480159 0)
(10.043 0.0550765 0)
(10.0567 0.0601177 0)
(10.0707 0.0636393 0)
(10.0845 0.0661343 0)
(10.0981 0.0679432 0)
(10.1116 0.069248 0)
(10.125 0.0700972 0)
(10.1385 0.0704364 0)
(10.1521 0.0701501 0)
(10.1658 0.0690977 0)
(10.1796 0.0671293 0)
(10.1932 0.0640904 0)
(10.2066 0.0598446 0)
(10.2195 0.054381 0)
(10.0005 0.00757015 0)
(10.0057 0.0219649 0)
(10.0151 0.033592 0)
(10.0266 0.0424436 0)
(10.0389 0.0488724 0)
(10.0518 0.0534678 0)
(10.065 0.0566822 0)
(10.0782 0.0589293 0)
(10.0914 0.0604875 0)
(10.1045 0.0615026 0)
(10.1177 0.0620131 0)
(10.1309 0.061975 0)
(10.1441 0.0612959 0)
(10.1573 0.0598654 0)
(10.1705 0.0575716 0)
(10.1835 0.0543161 0)
(10.196 0.0500281 0)
(10.2081 0.0447565 0)
(10.0004 0.0062641 0)
(10.0048 0.0183052 0)
(10.0131 0.0282988 0)
(10.0236 0.0361204 0)
(10.0351 0.0418805 0)
(10.0471 0.0458792 0)
(10.0594 0.0486341 0)
(10.072 0.0505031 0)
(10.0846 0.0517065 0)
(10.0973 0.0523489 0)
(10.1099 0.0524553 0)
(10.1226 0.0519949 0)
(10.1353 0.0509027 0)
(10.1479 0.0491031 0)
(10.1604 0.0465249 0)
(10.1726 0.0431175 0)
(10.1843 0.0388608 0)
(10.1955 0.0338363 0)
(10.0003 0.00493582 0)
(10.0041 0.0144689 0)
(10.0112 0.0225567 0)
(10.0207 0.0290058 0)
(10.0314 0.0339147 0)
(10.0426 0.0372639 0)
(10.0542 0.0394175 0)
(10.066 0.0407578 0)
(10.078 0.0414793 0)
(10.0901 0.0416571 0)
(10.1022 0.0413018 0)
(10.1142 0.0403905 0)
(10.1263 0.0388835 0)
(10.1381 0.0367383 0)
(10.1498 0.0339211 0)
(10.1611 0.03042 0)
(10.1719 0.0262508 0)
(10.1822 0.0215064 0)
(10.0003 0.00356304 0)
(10.0035 0.0104528 0)
(10.0097 0.0163828 0)
(10.0181 0.0211549 0)
(10.0279 0.0248113 0)
(10.0384 0.0273703 0)
(10.0494 0.0288522 0)
(10.0605 0.0295465 0)
(10.0719 0.0296663 0)
(10.0833 0.0292881 0)
(10.0947 0.0284184 0)
(10.1061 0.0270402 0)
(10.1174 0.0251327 0)
(10.1285 0.02268 0)
(10.1393 0.0196772 0)
(10.1497 0.0161386 0)
(10.1597 0.0121001 0)
(10.1691 0.00765048 0)
(10.0003 0.00211875 0)
(10.0031 0.00621127 0)
(10.0085 0.00973762 0)
(10.016 0.0125404 0)
(10.0249 0.0146245 0)
(10.0347 0.0160082 0)
(10.0451 0.0166675 0)
(10.0557 0.0166271 0)
(10.0664 0.0160588 0)
(10.0772 0.0150567 0)
(10.088 0.0136385 0)
(10.0986 0.0117941 0)
(10.1092 0.00951452 0)
(10.1194 0.00680073 0)
(10.1294 0.00366501 0)
(10.139 0.00013439 0)
(10.1482 -0.00374884 0)
(10.1569 -0.00790937 0)
(10.0003 0.000558613 0)
(10.0028 0.00162545 0)
(10.0077 0.0024688 0)
(10.0146 0.00299835 0)
(10.0228 0.0031938 0)
(10.032 0.00305331 0)
(10.0418 0.00256338 0)
(10.0519 0.00165932 0)
(10.0621 0.000338546 0)
(10.0723 -0.00132246 0)
(10.0825 -0.00329724 0)
(10.0925 -0.00558816 0)
(10.1023 -0.0081992 0)
(10.1119 -0.0111239 0)
(10.1211 -0.0143445 0)
(10.13 -0.0178323 0)
(10.1385 -0.0215479 0)
(10.1465 -0.0254327 0)
(10.0002 -0.00119375 0)
(10.0027 -0.003526 0)
(10.0074 -0.00572913 0)
(10.014 -0.00781443 0)
(10.0219 -0.00982046 0)
(10.0307 -0.0117857 0)
(10.0402 -0.0137448 0)
(10.05 -0.0157487 0)
(10.0599 -0.0178947 0)
(10.0697 -0.0202144 0)
(10.0794 -0.0227129 0)
(10.089 -0.0254031 0)
(10.0982 -0.0282949 0)
(10.1072 -0.0313869 0)
(10.1158 -0.0346657 0)
(10.1241 -0.038108 0)
(10.132 -0.0416825 0)
(10.1395 -0.0453473 0)
(10.0003 -0.00289306 0)
(10.0029 -0.00850842 0)
(10.0079 -0.013614 0)
(10.0149 -0.0181504 0)
(10.0231 -0.0221903 0)
(10.0321 -0.0258151 0)
(10.0417 -0.0290946 0)
(10.0516 -0.0321071 0)
(10.0615 -0.0349497 0)
(10.0713 -0.0377407 0)
(10.0809 -0.0405755 0)
(10.0902 -0.0435052 0)
(10.0992 -0.0465415 0)
(10.1078 -0.0496802 0)
(10.116 -0.0529209 0)
(10.1238 -0.0562561 0)
(10.1313 -0.0596687 0)
(10.1384 -0.0631315 0)
(10.0003 -0.00440949 0)
(10.0033 -0.0129014 0)
(10.009 -0.0204363 0)
(10.0167 -0.0269383 0)
(10.0256 -0.032561 0)
(10.0352 -0.0374327 0)
(10.0452 -0.0416508 0)
(10.0554 -0.0453188 0)
(10.0655 -0.0485821 0)
(10.0754 -0.0516429 0)
(10.085 -0.0546282 0)
(10.0942 -0.0575818 0)
(10.1029 -0.0605523 0)
(10.1111 -0.0635803 0)
(10.119 -0.0666886 0)
(10.1264 -0.0698812 0)
(10.1335 -0.0731463 0)
(10.1402 -0.0764571 0)
(10.0004 -0.00598265 0)
(10.004 -0.0173737 0)
(10.0108 -0.0271751 0)
(10.0196 -0.0354017 0)
(10.0294 -0.0423618 0)
(10.0398 -0.048227 0)
(10.0505 -0.0531062 0)
(10.0611 -0.0571857 0)
(10.0715 -0.0607067 0)
(10.0815 -0.0638507 0)
(10.091 -0.0667528 0)
(10.0999 -0.069532 0)
(10.1083 -0.0722973 0)
(10.1162 -0.0751343 0)
(10.1236 -0.0780816 0)
(10.1307 -0.0811457 0)
(10.1374 -0.0843121 0)
(10.1438 -0.0875483 0)
(10.0005 -0.00774094 0)
(10.0053 -0.0221766 0)
(10.0137 -0.0340591 0)
(10.0237 -0.0437291 0)
(10.0345 -0.0517557 0)
(10.0457 -0.0583482 0)
(10.057 -0.0636671 0)
(10.0681 -0.0679567 0)
(10.0787 -0.0714783 0)
(10.0887 -0.0744499 0)
(10.0981 -0.0770784 0)
(10.1068 -0.0795728 0)
(10.1148 -0.0820812 0)
(10.1223 -0.0847016 0)
(10.1294 -0.0874842 0)
(10.1361 -0.0904384 0)
(10.1424 -0.0935439 0)
(10.1485 -0.0967546 0)
(10.0008 -0.00986777 0)
(10.0073 -0.0275553 0)
(10.0177 -0.0411787 0)
(10.0291 -0.0518835 0)
(10.0408 -0.0606578 0)
(10.0527 -0.0677172 0)
(10.0646 -0.0732489 0)
(10.076 -0.0775433 0)
(10.0868 -0.0808679 0)
(10.0968 -0.0835344 0)
(10.1061 -0.0858193 0)
(10.1146 -0.0879634 0)
(10.1224 -0.0901587 0)
(10.1296 -0.0925346 0)
(10.1363 -0.0951563 0)
(10.1426 -0.0980339 0)
(10.1487 -0.101142 0)
(10.1545 -0.104427 0)
(10.0014 -0.0126186 0)
(10.0106 -0.0336315 0)
(10.0231 -0.0483795 0)
(10.0357 -0.0595957 0)
(10.0482 -0.0688063 0)
(10.0607 -0.0761464 0)
(10.0732 -0.081744 0)
(10.0851 -0.0859335 0)
(10.0963 -0.0890522 0)
(10.1066 -0.0914153 0)
(10.116 -0.0933347 0)
(10.1245 -0.0951045 0)
(10.1322 -0.0969638 0)
(10.1392 -0.0990716 0)
(10.1457 -0.101502 0)
(10.1517 -0.104256 0)
(10.1576 -0.107279 0)
(10.1631 -0.110454 0)
(10.0028 -0.0163661 0)
(10.0154 -0.0401034 0)
(10.0304 -0.0552278 0)
(10.0443 -0.0666652 0)
(10.0576 -0.076185 0)
(10.0712 -0.0837094 0)
(10.0848 -0.0893176 0)
(10.0978 -0.0933766 0)
(10.11 -0.0962556 0)
(10.1213 -0.0983068 0)
(10.1315 -0.0999011 0)
(10.1406 -0.101404 0)
(10.1487 -0.103126 0)
(10.156 -0.105276 0)
(10.1626 -0.107959 0)
(10.1689 -0.111173 0)
(10.175 -0.114869 0)
(10.1811 -0.118897 0)
(10.0055 -0.0210888 0)
(10.0229 -0.0462602 0)
(10.0419 -0.0613396 0)
(10.0585 -0.0734921 0)
(10.0746 -0.0837853 0)
(10.0913 -0.0916798 0)
(10.1083 -0.0972685 0)
(10.125 -0.100959 0)
(10.1408 -0.10311 0)
(10.1555 -0.104074 0)
(10.1688 -0.104272 0)
(10.1805 -0.104146 0)
(10.1907 -0.10409 0)
(10.1995 -0.104394 0)
(10.2072 -0.105211 0)
(10.2141 -0.106625 0)
(10.2204 -0.108659 0)
(10.2255 -0.111188 0)
(10.0107 -0.029448 0)
(10.0424 -0.0541063 0)
(10.0742 -0.0664148 0)
(10.1039 -0.0788992 0)
(10.1345 -0.0912699 0)
(10.167 -0.101737 0)
(10.1992 -0.110124 0)
(10.229 -0.116771 0)
(10.255 -0.121946 0)
(10.2756 -0.125959 0)
(10.2902 -0.129254 0)
(10.298 -0.13233 0)
(10.2992 -0.135613 0)
(10.2941 -0.139382 0)
(10.2831 -0.14368 0)
(10.2667 -0.148284 0)
(10.2452 -0.153099 0)
(10.2205 -0.157845 0)
(10.0513 -0.0461528 0)
(10.1685 -0.0820684 0)
(10.2625 -0.0923072 0)
(10.3276 -0.0992048 0)
(10.3662 -0.104599 0)
(10.3778 -0.106741 0)
(10.3611 -0.105302 0)
(10.3172 -0.100574 0)
(10.2486 -0.0929314 0)
(10.1585 -0.0829149 0)
(10.0501 -0.0712941 0)
(9.92654 -0.0589619 0)
(9.79105 -0.0467974 0)
(9.6467 -0.0355676 0)
(9.4965 -0.0259112 0)
(9.34298 -0.0184603 0)
(9.18879 -0.0130643 0)
(9.03457 -0.0102209 0)
(9.8688 -0.0442593 0)
(9.56973 -0.0872919 0)
(9.22715 -0.10662 0)
(8.86165 -0.118003 0)
(8.49793 -0.124931 0)
(8.15038 -0.127819 0)
(7.82725 -0.127257 0)
(7.53515 -0.123937 0)
(7.27923 -0.118463 0)
(7.06214 -0.111429 0)
(6.88386 -0.103442 0)
(6.74207 -0.0950821 0)
(6.63274 -0.0868511 0)
(6.55069 -0.0791696 0)
(6.49016 -0.0725459 0)
(6.44639 -0.0677471 0)
(6.41354 -0.0649322 0)
(6.39021 -0.0609674 0)
(-0.00641954 0.0108881 -1.05735e-20)
(-0.0101952 0.012321 7.56831e-21)
(-0.0190103 0.0134529 0)
(-0.0287439 0.0144998 0)
(-0.0389668 0.01543 0)
(-0.0497486 0.0162068 -7.73064e-21)
(-0.0610767 0.0168247 0)
(-0.0728707 0.0173062 0)
(-0.0850599 0.0177013 0)
(-0.0976108 0.0180997 0)
(-0.110544 0.0186571 7.89747e-21)
(-0.123875 0.0196212 0)
(-0.13772 0.0206312 0)
(-0.15213 0.0211334 0)
(-0.166927 0.02125 0)
(-0.182011 0.0212784 8.22395e-21)
(-0.197384 0.0213339 0)
(-0.21306 0.0214239 0)
(-0.229047 0.0215353 0)
(-0.24535 0.0216602 0)
(-0.261974 0.0217963 0)
(-0.278925 0.0219426 0)
(-0.296211 0.0220988 0)
(-0.313838 0.0222642 8.25392e-21)
(-0.331812 0.022438 -8.2349e-21)
(-0.350139 0.0226196 8.21316e-21)
(-0.368825 0.022808 8.18914e-21)
(-0.387876 0.0230024 0)
(-0.407297 0.0232017 0)
(-0.427091 0.0234047 -8.10707e-21)
(-0.447262 0.0236102 -8.07737e-21)
(-0.467811 0.0238169 0)
(-0.488741 0.0240233 0)
(-0.510051 0.0242282 -7.98436e-21)
(-0.53174 0.02443 0)
(-0.553805 0.0246274 0)
(-0.576244 0.024819 7.88874e-21)
(-0.599052 0.0250032 0)
(-0.622221 0.0251788 7.82499e-21)
(-0.645745 0.0253442 1.55866e-20)
(-0.669615 0.0254983 0)
(-0.693821 0.0256397 0)
(-0.71835 0.0257672 0)
(-0.74319 0.0258795 0)
(-0.768327 0.0259756 0)
(-0.793746 0.0260546 1.52161e-20)
(-0.819429 0.0261154 1.5156e-20)
(-0.845359 0.0261573 1.50962e-20)
(-0.871516 0.0261797 0)
(-0.897883 0.0261818 -1.49775e-20)
(-0.924436 0.0261634 0)
(-0.951156 0.0261241 1.4859e-20)
(-0.97802 0.0260638 1.47996e-20)
(-1.005 0.0259823 0)
(-1.03209 0.0258799 0)
(-1.05924 0.0257565 0)
(-1.08645 0.0256125 1.45574e-20)
(-1.11369 0.0254481 0)
(-1.14092 0.0252636 0)
(-1.16814 0.0250594 0)
(-1.1953 0.0248359 0)
(-1.2224 0.0245934 0)
(-1.2494 0.0243324 0)
(-1.27627 0.024053 0)
(-1.303 0.0237555 0)
(-1.32956 0.0234402 -1.39358e-20)
(-1.35593 0.0231071 0)
(-1.38206 0.0227563 0)
(-1.40795 0.0223877 1.36848e-20)
(-1.43357 0.0220012 1.35944e-20)
(-1.45888 0.0215968 0)
(-1.48386 0.0211744 -1.34017e-20)
(-1.50848 0.0207338 1.3299e-20)
(-1.53272 0.0202752 0)
(-1.55654 0.0197986 -1.30797e-20)
(-1.57992 0.0193043 0)
(-1.60283 0.0187927 0)
(-1.62524 0.0182645 1.27121e-20)
(-1.64712 0.0177202 0)
(-1.66845 0.0171609 -1.24386e-20)
(-1.6892 0.0165875 0)
(-1.70934 0.0160011 1.21401e-20)
(-1.72884 0.0154027 1.1981e-20)
(-1.7477 0.0147935 1.18149e-20)
(-1.76587 0.0141747 2.32837e-20)
(-1.78334 0.0135472 -2.29229e-20)
(-1.80009 0.012912 0)
(-1.8161 0.0122698 0)
(-1.83135 0.0116212 0)
(-1.84582 0.0109665 -2.13276e-20)
(-1.85949 0.0103057 -2.08891e-20)
(-1.87235 0.00963861 2.04341e-20)
(-1.88436 0.00896477 0)
(-1.89552 0.00828355 -1.94735e-20)
(-1.9058 0.00759404 -1.89674e-20)
(-1.91517 0.00689488 -1.84437e-20)
(-1.92362 0.00618393 0)
(-1.93111 0.0054577 0)
(-1.93762 0.00471025 0)
(-1.9431 0.00393252 -1.61699e-20)
(-1.94751 0.00311656 0)
(-1.95081 0.00227087 0)
(-1.95291 0.00142713 1.42728e-20)
(-1.95379 0.000603305 0)
(-1.95356 -0.00020153 0)
(-1.9522 -0.000998817 1.22033e-20)
(-1.94969 -0.00179927 0)
(-1.94603 -0.00260683 0)
(-1.94118 -0.00342265 -9.96255e-21)
(-1.93513 -0.00424708 -9.17792e-21)
(-1.92786 -0.00508017 0)
(-1.91934 -0.00592183 7.55315e-21)
(-1.90956 -0.00677184 0)
(-1.89849 -0.0076299 -5.85618e-21)
(-1.88612 -0.00849556 0)
(-1.87243 -0.0093683 -4.09002e-21)
(-1.8574 -0.0102475 -3.18222e-21)
(-1.84102 -0.0111325 0)
(-1.82327 -0.0120225 0)
(-1.80414 -0.0129171 0)
(-1.78362 -0.0138157 0)
(-1.76169 -0.0147181 0)
(-1.73836 -0.0156242 0)
(-1.71361 -0.0165342 0)
(-1.68742 -0.0174483 4.5751e-21)
(-1.6598 -0.0183667 -5.59144e-21)
(-1.63074 -0.0192899 0)
(-1.60022 -0.020218 0)
(-1.56824 -0.0211511 0)
(-1.5348 -0.0220892 0)
(-1.49988 -0.0230319 -2.14589e-20)
(-1.46349 -0.0239788 0)
(-1.42563 -0.024929 2.55478e-20)
(-1.38629 -0.0258815 -2.75684e-20)
(-1.34548 -0.0268351 0)
(-1.3032 -0.0277883 0)
(-1.25948 -0.0287393 0)
(-1.21432 -0.0296864 3.53456e-20)
(-1.16775 -0.0306273 3.71766e-20)
(-1.11979 -0.0315595 0)
(-1.07047 -0.0324803 4.06419e-20)
(-1.01982 -0.0333865 4.2256e-20)
(-0.967902 -0.034275 -4.37764e-20)
(-0.914748 -0.0351429 0)
(-0.860413 -0.035988 0)
(-0.804953 -0.0368093 -4.76514e-20)
(-0.748422 -0.0376075 0)
(-0.690872 -0.0383861 0)
(-0.632346 -0.0391536 0)
(-0.572872 -0.0399218 0)
(-0.512457 -0.0407025 5.08456e-20)
(-0.451101 -0.0414995 5.075e-20)
(-0.388825 -0.0422924 0)
(-0.325659 -0.0429729 4.92485e-20)
(-0.26183 -0.0427764 0)
(-0.200427 -0.0385005 0)
(-0.14486 -0.0311033 4.30979e-20)
(-0.0924467 -0.0269503 0)
(-0.039435 -0.0267638 4.44946e-20)
(0.013711 -0.0263735 0)
(0.0661029 -0.0256036 0)
(0.117001 -0.028032 4.72443e-20)
(0.168363 -0.0332548 0)
(0.223375 -0.0359647 5.57391e-20)
(0.280357 -0.0353807 0)
(0.336797 -0.0342367 0)
(0.392569 -0.0330512 0)
(0.447636 -0.0318924 -6.9552e-20)
(0.501977 -0.0307847 0)
(0.55561 -0.0297326 7.45905e-20)
(0.608559 -0.0287316 0)
(0.660843 -0.0277734 0)
(0.712466 -0.0268454 0)
(0.763403 -0.0259289 0)
(0.813603 -0.0249875 0)
(0.862823 -0.0239444 0)
(0.910944 -0.0225539 0)
(0.955234 -0.0201215 -1.78241e-19)
(0.998312 -0.013249 0)
(0.993056 0.00345153 0)
(-0.00905517 0.0215113 2.94186e-20)
(-0.0121394 0.0244282 -2.14074e-20)
(-0.0220024 0.0269135 0)
(-0.0325613 0.0289099 1.43643e-20)
(-0.0434425 0.03058 0)
(-0.0548554 0.0319955 7.26744e-21)
(-0.0668629 0.0331894 -1.45859e-20)
(-0.0794334 0.0341963 -1.46565e-20)
(-0.0925357 0.0350604 0)
(-0.106148 0.0358365 -1.47577e-20)
(-0.120237 0.0365922 -7.4093e-21)
(-0.134726 0.0374054 0)
(-0.149553 0.0383059 0)
(-0.164737 0.0391812 0)
(-0.180334 0.039955 0)
(-0.196361 0.0406402 -7.38318e-21)
(-0.2128 0.0412739 0)
(-0.229629 0.041882 1.46216e-20)
(-0.246833 0.0424771 0)
(-0.264407 0.0430648 0)
(-0.28235 0.0436487 -1.44232e-20)
(-0.300665 0.0442306 0)
(-0.319354 0.0448119 1.42752e-20)
(-0.338423 0.0453931 -7.12206e-21)
(-0.357875 0.0459741 7.08352e-21)
(-0.377714 0.0465545 -7.04465e-21)
(-0.397947 0.0471331 -7.00562e-21)
(-0.418575 0.0477088 0)
(-0.439603 0.0482799 0)
(-0.461033 0.0488444 6.88871e-21)
(-0.482867 0.0494004 -6.80139e-21)
(-0.505105 0.0499454 0)
(-0.527745 0.0504772 0)
(-0.550788 0.0509933 6.73652e-21)
(-0.574228 0.051491 0)
(-0.598061 0.0519679 0)
(-0.622282 0.0524213 -6.62702e-21)
(-0.646882 0.0528487 0)
(-0.671853 0.0532476 6.5046e-21)
(-0.697184 0.0536155 -1.30446e-20)
(-0.722862 0.0539501 0)
(-0.748875 0.054249 0)
(-0.775207 0.0545101 -2.55837e-20)
(-0.801842 0.0547314 -2.54544e-20)
(-0.828761 0.0549111 -2.53271e-20)
(-0.855946 0.0550476 1.25472e-20)
(-0.883377 0.0551392 -1.25927e-20)
(-0.911031 0.0551849 -3.74877e-20)
(-0.938886 0.0551835 2.48354e-20)
(-0.966919 0.0551344 1.24116e-20)
(-0.995105 0.055037 0)
(-1.02342 0.054891 -1.22933e-20)
(-1.05183 0.0546964 1.2128e-20)
(-1.08033 0.0544533 0)
(-1.10887 0.0541621 0)
(-1.13743 0.0538234 0)
(-1.16599 0.0534378 -1.19983e-20)
(-1.19452 0.0530062 0)
(-1.22299 0.0525294 2.36526e-20)
(-1.25138 0.0520083 0)
(-1.27965 0.051444 2.34057e-20)
(-1.30778 0.0508375 0)
(-1.33574 0.0501896 -2.31489e-20)
(-1.36351 0.0495014 0)
(-1.39106 0.0487736 2.28791e-20)
(-1.41836 0.0480071 -1.13219e-20)
(-1.44537 0.0472025 0)
(-1.47209 0.0463604 -2.24432e-20)
(-1.49847 0.0454813 -1.11889e-20)
(-1.52449 0.0445657 -1.11076e-20)
(-1.55012 0.043614 0)
(-1.57533 0.0426268 -1.08511e-20)
(-1.60009 0.0416046 -1.08445e-20)
(-1.62438 0.0405481 0)
(-1.64816 0.0394584 1.0651e-20)
(-1.6714 0.0383364 -2.10204e-20)
(-1.69408 0.0371835 0)
(-1.71617 0.0360015 -1.03295e-20)
(-1.73764 0.034792 0)
(-1.75845 0.0335571 3.02104e-20)
(-1.7786 0.032299 0)
(-1.79805 0.0310201 -2.94432e-20)
(-1.81677 0.0297224 -9.69788e-21)
(-1.83474 0.0284085 9.50059e-21)
(-1.85195 0.0270804 1.87111e-20)
(-1.86837 0.0257403 -1.84095e-20)
(-1.88397 0.0243901 0)
(-1.89875 0.0230312 0)
(-1.91267 0.0216648 0)
(-1.92573 0.0202919 5.13915e-20)
(-1.93791 0.0189127 1.67846e-20)
(-1.94917 0.0175273 -1.64016e-20)
(-1.95952 0.0161353 0)
(-1.96892 0.014736 -1.55515e-20)
(-1.97735 0.0133283 1.5172e-20)
(-1.9848 0.0119109 1.47349e-20)
(-1.99124 0.0104819 0)
(-1.99666 0.00903872 0)
(-2.00102 0.00757802 0)
(-2.00432 0.00609518 1.2847e-20)
(-2.00655 0.00458589 0)
(-2.0077 0.00305569 -2.36589e-20)
(-2.00783 0.00153134 -3.38754e-20)
(-2.00692 4.09365e-05 2.15001e-20)
(-2.00486 -0.00142152 0)
(-2.00162 -0.00287352 9.64538e-21)
(-1.99718 -0.00432295 0)
(-1.99151 -0.0057726 1.68623e-20)
(-1.9846 -0.00722295 -7.86292e-21)
(-1.97642 -0.00867362 -7.24385e-21)
(-1.96697 -0.0101239 0)
(-1.95621 -0.0115729 -1.76714e-20)
(-1.94414 -0.0130196 1.05031e-20)
(-1.93073 -0.0144628 4.51088e-21)
(-1.91597 -0.0159011 0)
(-1.89985 -0.0173331 3.13149e-21)
(-1.88236 -0.0187572 7.46298e-21)
(-1.86349 -0.0201718 0)
(-1.84321 -0.0215752 2.2023e-21)
(-1.82154 -0.0229658 7.68066e-22)
(-1.79846 -0.0243425 -6.75488e-22)
(-1.77397 -0.0257043 0)
(-1.74806 -0.0270504 0)
(-1.72073 -0.0283805 0)
(-1.69197 -0.0296943 3.10979e-21)
(-1.6618 -0.0309915 4.11566e-21)
(-1.6302 -0.0322721 0)
(-1.59718 -0.0335355 1.08217e-20)
(-1.56274 -0.0347811 1.22398e-20)
(-1.52687 -0.0360081 0)
(-1.48959 -0.0372149 1.53644e-20)
(-1.45089 -0.0383998 3.27285e-20)
(-1.41079 -0.0395607 -1.80552e-20)
(-1.3693 -0.0406948 -1.85746e-20)
(-1.32643 -0.0417993 0)
(-1.2822 -0.0428707 0)
(-1.23663 -0.0439053 0)
(-1.18975 -0.0448991 -2.40445e-20)
(-1.14158 -0.0458477 2.41815e-20)
(-1.09217 -0.0467464 5.11565e-20)
(-1.04155 -0.0475902 -2.69245e-20)
(-0.989767 -0.0483735 2.67793e-20)
(-0.936878 -0.0490909 2.84677e-20)
(-0.882937 -0.0497372 0)
(-0.828006 -0.0503083 0)
(-0.772147 -0.0508008 -2.91352e-20)
(-0.715429 -0.0512126 0)
(-0.657918 -0.0515437 0)
(-0.59968 -0.0517962 6.12049e-20)
(-0.540783 -0.051972 0)
(-0.481296 -0.0520637 3.03748e-20)
(-0.421314 -0.052041 -3.15242e-20)
(-0.361006 -0.0518109 0)
(-0.300696 -0.0511008 3.04871e-20)
(-0.240904 -0.0492809 0)
(-0.182604 -0.045782 0)
(-0.126043 -0.042447 -3.08998e-20)
(-0.0700461 -0.0415902 6.23616e-20)
(-0.0145154 -0.0416388 -3.20073e-20)
(0.0405118 -0.0410522 0)
(0.0954614 -0.0397156 0)
(0.150281 -0.0388149 3.29447e-20)
(0.206065 -0.0399847 0)
(0.263481 -0.0416456 3.56556e-20)
(0.321722 -0.0422304 0)
(0.38005 -0.0420442 0)
(0.438157 -0.0415167 0)
(0.495884 -0.0408478 4.2824e-20)
(0.553179 -0.040117 0)
(0.610034 -0.0393582 -4.62415e-20)
(0.666452 -0.0385851 0)
(0.722428 -0.0377997 0)
(0.777942 -0.0369941 1.02353e-19)
(0.832935 -0.0361468 -1.05915e-19)
(0.887305 -0.0352098 0)
(0.940741 -0.0340619 0)
(0.992992 -0.0323796 0)
(1.0416 -0.0291191 3.58933e-19)
(1.08959 -0.0207279 0)
(1.11316 -0.000756848 -2.51395e-19)
(-0.0109226 0.0424802 -1.10824e-23)
(-0.0135765 0.0470422 2.97009e-20)
(-0.0241657 0.0508825 0)
(-0.0356434 0.0541571 -2.888e-20)
(-0.047188 0.0570341 0)
(-0.0591796 0.0595952 0)
(-0.0717609 0.061873 -1.4227e-23)
(-0.0849138 0.0639002 1.46482e-20)
(-0.0986073 0.0657223 1.47121e-20)
(-0.112816 0.0673933 1.47336e-20)
(-0.127506 0.0689682 0)
(-0.142627 0.0704847 0)
(-0.158127 0.0719334 -1.47519e-20)
(-0.173986 0.0732711 -2.94429e-20)
(-0.190219 0.074482 2.93557e-20)
(-0.206841 0.0755867 0)
(-0.223854 0.0766171 2.91193e-20)
(-0.241254 0.0776 -1.44752e-20)
(-0.259037 0.0785542 0)
(-0.277199 0.0794923 2.86654e-20)
(-0.295741 0.0804227 1.42369e-20)
(-0.314662 0.0813507 -2.83282e-20)
(-0.333964 0.0822795 -1.40653e-20)
(-0.353651 0.0832104 0)
(-0.373724 0.0841434 2.78016e-20)
(-0.394187 0.0850773 2.76241e-20)
(-0.415041 0.0860101 0)
(-0.436289 0.0869392 2.72696e-20)
(-0.457931 0.0878613 0)
(-0.479969 0.0887726 2.69184e-20)
(-0.502401 0.0896691 1.33622e-20)
(-0.525225 0.0905463 0)
(-0.54844 0.0913996 0)
(-0.572039 0.0922244 0)
(-0.596018 0.0930158 0)
(-0.62037 0.0937689 0)
(-0.645085 0.094479 0)
(-0.670155 0.0951412 2.55825e-20)
(-0.695567 0.0957509 -3.81284e-20)
(-0.721308 0.0963035 0)
(-0.747363 0.0967948 0)
(-0.773718 0.0972205 0)
(-0.800353 0.097577 -1.78394e-23)
(-0.827251 0.0978606 2.46534e-20)
(-0.854391 0.0980681 4.90351e-20)
(-0.881752 0.0981968 -4.87493e-20)
(-0.909311 0.098244 -2.42418e-20)
(-0.937045 0.0982079 2.4085e-20)
(-0.964929 0.0980868 1.64885e-23)
(-0.992937 0.0978796 2.38252e-20)
(-1.02104 0.0975857 0)
(-1.04922 0.0972049 2.35518e-20)
(-1.07745 0.0967374 1.51358e-23)
(-1.10569 0.0961838 0)
(-1.13392 0.0955451 0)
(-1.16212 0.0948227 -2.30062e-20)
(-1.19025 0.094018 0)
(-1.21829 0.0931327 0)
(-1.24621 0.0921689 2.26012e-20)
(-1.27398 0.0911283 4.4893e-20)
(-1.30158 0.090013 -2.22908e-20)
(-1.32898 0.0888249 0)
(-1.35614 0.0875661 2.1995e-20)
(-1.38306 0.0862382 0)
(-1.4097 0.084843 2.17042e-20)
(-1.43603 0.083382 2.15263e-20)
(-1.46202 0.0818566 -4.27396e-20)
(-1.48766 0.0802678 -2.12076e-20)
(-1.51292 0.0786167 0)
(-1.53776 0.0769044 4.16925e-20)
(-1.56216 0.0751316 0)
(-1.5861 0.0732993 6.14032e-20)
(-1.60955 0.0714088 4.05438e-20)
(-1.63249 0.0694614 4.01352e-20)
(-1.65487 0.0674589 -3.97127e-20)
(-1.67669 0.0654033 5.89089e-20)
(-1.6979 0.0632971 0)
(-1.71849 0.0611432 0)
(-1.73844 0.058945 -3.78702e-20)
(-1.7577 0.0567061 -5.6049e-20)
(-1.77627 0.0544303 0)
(-1.79411 0.0521215 1.8152e-20)
(-1.81121 0.0497838 0)
(-1.82754 0.0474212 -5.27684e-20)
(-1.84308 0.0450374 9.71137e-24)
(-1.85782 0.0426361 -1.05045e-23)
(-1.87173 0.0402204 3.334e-20)
(-1.8848 0.0377931 0)
(-1.89701 0.0353562 -3.20102e-20)
(-1.90834 0.0329111 1.53432e-23)
(-1.91877 0.0304586 0)
(-1.9283 0.0279988 0)
(-1.93689 0.0255312 0)
(-1.94455 0.0230548 2.82911e-20)
(-1.95124 0.0205686 0)
(-1.95695 0.0180714 0)
(-1.96167 0.0155618 0)
(-1.96537 0.0130392 0)
(-1.96805 0.0105039 0)
(-1.96969 0.00795884 2.31594e-20)
(-1.97028 0.00541061 0)
(-1.96982 0.00286692 2.12133e-20)
(-1.9683 0.000330514 2.02239e-20)
(-1.96567 -0.00220075 -1.92144e-20)
(-1.96192 -0.00472993 0)
(-1.95701 -0.00725699 -1.71342e-20)
(-1.95092 -0.00978229 0)
(-1.94363 -0.0123053 -1.49743e-20)
(-1.93514 -0.0148249 1.38657e-20)
(-1.92541 -0.0173396 3.83745e-20)
(-1.91443 -0.0198475 0)
(-1.9022 -0.0223467 3.14754e-20)
(-1.88869 -0.0248352 9.43964e-21)
(-1.8739 -0.0273106 0)
(-1.8578 -0.0297703 1.39192e-20)
(-1.8404 -0.0322114 1.14914e-20)
(-1.82168 -0.0346309 -1.34533e-20)
(-1.80163 -0.0370256 0)
(-1.78025 -0.0393924 -1.92529e-21)
(-1.75753 -0.0417282 -6.70644e-22)
(-1.73347 -0.0440305 1.52013e-21)
(-1.70807 -0.0462972 0)
(-1.68132 -0.0485268 0)
(-1.65323 -0.0507182 0)
(-1.6238 -0.0528704 5.36609e-21)
(-1.59303 -0.0549827 0)
(-1.56092 -0.0570544 0)
(-1.52747 -0.0590844 -9.37917e-21)
(-1.49269 -0.0610712 -1.06023e-20)
(-1.45658 -0.0630129 0)
(-1.41915 -0.0649068 0)
(-1.38041 -0.0667498 -2.83233e-20)
(-1.34036 -0.068538 0)
(-1.29903 -0.070267 3.2821e-20)
(-1.25641 -0.071932 3.4665e-20)
(-1.21254 -0.0735278 0)
(-1.16744 -0.0750486 0)
(-1.12113 -0.0764886 -4.06657e-20)
(-1.07363 -0.0778418 -3.03183e-22)
(-1.02499 -0.0791019 -2.99045e-22)
(-0.975246 -0.0802629 0)
(-0.924429 -0.0813184 -9.49805e-20)
(-0.87259 -0.0822629 0)
(-0.819777 -0.0830922 0)
(-0.766044 -0.0838044 0)
(-0.711446 -0.0844003 5.2512e-20)
(-0.65604 -0.0848833 0)
(-0.599885 -0.0852611 -1.08149e-19)
(-0.543044 -0.0855458 -5.5069e-20)
(-0.485585 -0.0857496 0)
(-0.427594 -0.085873 -5.6433e-20)
(-0.369191 -0.0858859 0)
(-0.31057 -0.085683 0)
(-0.252053 -0.0849677 -1.75236e-19)
(-0.193962 -0.0831206 1.18518e-19)
(-0.136206 -0.0796802 0)
(-0.0782723 -0.0760823 1.23089e-19)
(-0.0202284 -0.0742782 -6.28417e-20)
(0.0371374 -0.0735721 0)
(0.0939235 -0.0725263 0)
(0.150891 -0.0710258 0)
(0.208235 -0.0703206 -2.00038e-19)
(0.265754 -0.0712288 0)
(0.323418 -0.0722295 -6.89677e-20)
(0.38156 -0.072124 0)
(0.440271 -0.0712778 0)
(0.499283 -0.0701486 0)
(0.558359 -0.0689449 0)
(0.617376 -0.0677424 0)
(0.676263 -0.0665637 0)
(0.734972 -0.0654076 -1.67447e-19)
(0.793455 -0.0642588 0)
(0.851656 -0.0630892 -8.93972e-20)
(0.909482 -0.0618486 2.75729e-19)
(0.966798 -0.0604413 0)
(1.02327 -0.0586562 0)
(1.07866 -0.0559985 -1.99761e-19)
(1.1309 -0.0511598 -2.05667e-19)
(1.18365 -0.0406832 2.1076e-19)
(1.22178 -0.0193508 2.16387e-19)
(-0.0129314 0.0640431 -6.92764e-20)
(-0.0156491 0.0691643 -4.66809e-20)
(-0.0267022 0.073482 -2.92756e-20)
(-0.0389665 0.0775397 -1.45899e-20)
(-0.0511102 0.0813182 0)
(-0.0636212 0.0848081 2.91696e-20)
(-0.0767014 0.0879997 -1.46246e-20)
(-0.0903404 0.0909007 0)
(-0.104504 0.0935375 -1.46852e-20)
(-0.119163 0.0959493 0)
(-0.134286 0.0981784 2.94467e-20)
(-0.149837 0.10026 0)
(-0.16578 0.102213 1.46848e-20)
(-0.182096 0.10404 2.92907e-20)
(-0.198778 0.105748 -2.91857e-20)
(-0.215828 0.107353 0)
(-0.233247 0.108876 -2.8915e-20)
(-0.251033 0.110338 0)
(-0.269185 0.111756 0)
(-0.287701 0.113145 -2.84125e-20)
(-0.30658 0.114515 0)
(-0.325823 0.115872 -1.49712e-23)
(-0.34543 0.117223 0)
(-0.365401 0.118567 0)
(-0.385738 0.119906 1.56107e-23)
(-0.406441 0.121239 -2.7281e-20)
(-0.42751 0.122562 -2.71049e-20)
(-0.448945 0.123872 -2.68973e-20)
(-0.470745 0.125165 0)
(-0.492908 0.126436 -5.30505e-20)
(-0.515431 0.127678 0)
(-0.538308 0.128886 -2.6159e-20)
(-0.561536 0.130054 0)
(-0.585106 0.131174 0)
(-0.609011 0.132241 2.56098e-20)
(-0.633241 0.133247 0)
(-0.657784 0.134185 -2.52531e-20)
(-0.682629 0.13505 1.8773e-23)
(-0.707761 0.135834 4.97898e-20)
(-0.733165 0.136531 -4.94659e-20)
(-0.758823 0.137136 0)
(-0.784718 0.137643 0)
(-0.81083 0.138047 -2.42494e-20)
(-0.837139 0.138343 0)
(-0.863622 0.138526 -2.38823e-20)
(-0.890257 0.138594 2.37206e-20)
(-0.91702 0.138543 2.35602e-20)
(-0.943886 0.138371 0)
(-0.970829 0.138075 -2.32423e-20)
(-0.997825 0.137655 -2.30844e-20)
(-1.02485 0.137111 4.58936e-20)