/*--------------------------------*- C++ -*----------------------------------*\
| =========                 |                                                 |
| \\      /  F ield         | OpenFOAM: The Open Source CFD Toolbox           |
|  \\    /   O peration     | Version:  2112                                  |
|   \\  /    A nd           | Website:  www.openfoam.com                      |
|    \\/     M anipulation  |                                                 |
\*---------------------------------------------------------------------------*/
FoamFile
{
    version     2.0;
    format      ascii;
    arch        "LSB;label=32;scalar=64";
    class       volScalarField;
    location    "0.49";
    object      kU;
}
// * * * * * * * * * * * * * * * * * * * * * * * * * * * * * * * * * * * * * //

dimensions      [0 2 -2 0 0 0 0];

internalField   nonuniform List<scalar> 
12225
(
0.399895
0.622176
0.790972
0.936938
1.07966
1.22943
1.39176
1.57023
1.76772
1.98664
2.22888
2.49568
2.78751
3.10407
3.44441
3.80778
4.19204
4.57502
0.124045
0.143818
0.166306
0.191331
0.219117
0.250156
0.284977
0.323784
0.366346
0.412052
0.45998
0.509034
0.558095
0.606167
0.652556
0.697458
0.743943
0.805392
0.113241
0.11551
0.118652
0.121975
0.124718
0.127157
0.129624
0.132395
0.135626
0.139366
0.143583
0.148219
0.153226
0.158584
0.164301
0.170441
0.176995
0.183316
0.112489
0.112648
0.113065
0.113711
0.114522
0.115431
0.116365
0.117264
0.118076
0.118604
0.118841
0.118816
0.118572
0.118157
0.117617
0.116998
0.116323
0.115539
0.112423
0.112373
0.112384
0.112453
0.112584
0.11277
0.113006
0.11328
0.11358
0.11388
0.114161
0.114407
0.114612
0.114772
0.114892
0.11498
0.115054
0.115132
0.11239
0.112299
0.112232
0.112187
0.112181
0.112214
0.112272
0.11235
0.112444
0.11255
0.112663
0.112779
0.112898
0.113018
0.113141
0.113274
0.113424
0.113596
0.112362
0.11224
0.112143
0.11207
0.112031
0.112024
0.112042
0.112072
0.11211
0.112157
0.112209
0.112267
0.11233
0.112399
0.112478
0.112569
0.112677
0.112802
0.112342
0.1122
0.112082
0.111988
0.111925
0.111894
0.111888
0.111901
0.111922
0.111949
0.111981
0.112019
0.112061
0.11211
0.112167
0.112235
0.112315
0.112408
0.112327
0.112172
0.11204
0.111931
0.111848
0.111794
0.111765
0.111756
0.111762
0.111777
0.111797
0.111822
0.111853
0.11189
0.111935
0.111988
0.112051
0.112123
0.112317
0.112151
0.112008
0.111886
0.111789
0.111717
0.111667
0.111637
0.111623
0.111622
0.111631
0.111645
0.111665
0.11169
0.111722
0.111762
0.111809
0.111862
0.112309
0.112135
0.111983
0.111851
0.111742
0.111655
0.111588
0.111539
0.111505
0.111486
0.111477
0.111479
0.111488
0.111502
0.111521
0.111547
0.111578
0.111613
0.112304
0.112124
0.111964
0.111825
0.111706
0.111608
0.111527
0.111464
0.111414
0.111378
0.111353
0.111339
0.111334
0.111337
0.111345
0.111358
0.111375
0.111395
0.1123
0.112115
0.111949
0.111803
0.111676
0.111568
0.111476
0.1114
0.111337
0.111286
0.111246
0.111215
0.111194
0.111181
0.111175
0.111176
0.111181
0.111188
0.112296
0.112107
0.111936
0.111783
0.111648
0.11153
0.111428
0.111339
0.111263
0.111197
0.111141
0.111094
0.111055
0.111024
0.110999
0.110979
0.110964
0.110952
0.112294
0.1121
0.111924
0.111765
0.111623
0.111496
0.111383
0.111282
0.111193
0.111114
0.111043
0.110979
0.110923
0.110873
0.110828
0.110787
0.11075
0.110716
0.112292
0.112096
0.111915
0.111751
0.111601
0.111466
0.111343
0.111232
0.111131
0.111039
0.110953
0.110875
0.110802
0.110734
0.110671
0.110611
0.110555
0.110501
0.112291
0.112093
0.111909
0.11174
0.111585
0.111443
0.111312
0.111191
0.111079
0.110975
0.110877
0.110785
0.110698
0.110616
0.110537
0.110461
0.110388
0.110318
0.112291
0.112092
0.111907
0.111734
0.111575
0.111427
0.11129
0.111161
0.11104
0.110926
0.110818
0.110715
0.110616
0.110521
0.11043
0.110342
0.110257
0.110175
0.112292
0.112094
0.111908
0.111735
0.111573
0.111421
0.111279
0.111145
0.111018
0.110897
0.110781
0.11067
0.110562
0.110459
0.110358
0.110262
0.110168
0.110078
0.112294
0.112098
0.111913
0.11174
0.111578
0.111426
0.111283
0.111146
0.111017
0.110892
0.110773
0.110657
0.110546
0.110437
0.110332
0.110231
0.110132
0.110037
0.112297
0.112103
0.11192
0.111749
0.111588
0.111437
0.111293
0.111157
0.111027
0.110902
0.110782
0.110666
0.110553
0.110444
0.110338
0.110235
0.110135
0.110038
0.1123
0.11211
0.11193
0.111761
0.111602
0.111452
0.11131
0.111175
0.111047
0.110924
0.110805
0.110691
0.11058
0.110472
0.110367
0.110265
0.110166
0.11007
0.112305
0.112118
0.111942
0.111776
0.111619
0.111471
0.111333
0.111201
0.111076
0.110957
0.110843
0.110733
0.110627
0.110524
0.110424
0.110326
0.110232
0.11014
0.112312
0.112131
0.111958
0.111795
0.111641
0.111498
0.111365
0.11124
0.111123
0.111013
0.110908
0.110808
0.110713
0.110621
0.110532
0.110446
0.110363
0.110283
0.112322
0.112149
0.111983
0.111826
0.11168
0.111546
0.111424
0.111313
0.111212
0.111122
0.111042
0.11097
0.110907
0.11085
0.110799
0.110753
0.110711
0.110673
0.112337
0.112176
0.112027
0.111896
0.111787
0.111703
0.111643
0.111606
0.111594
0.111605
0.111639
0.111694
0.111767
0.111855
0.111951
0.112048
0.112145
0.112237
0.112358
0.112224
0.112175
0.112243
0.112432
0.112708
0.113048
0.113433
0.113846
0.114274
0.114704
0.115125
0.11553
0.115909
0.116259
0.116526
0.116712
0.116825
0.112637
0.113379
0.114558
0.116039
0.117721
0.119419
0.120772
0.121885
0.122879
0.12387
0.124954
0.126201
0.127655
0.129339
0.131257
0.133409
0.135791
0.138414
0.116915
0.1255
0.136063
0.148164
0.161507
0.17604
0.191918
0.209306
0.228304
0.248916
0.271121
0.294847
0.319967
0.346307
0.373658
0.40181
0.430566
0.459745
0.305561
0.464769
0.58836
0.692097
0.787122
0.879558
0.972579
1.06785
1.16582
1.26602
1.37003
1.47879
1.59289
1.71266
1.83827
1.96977
2.10701
2.24987
0.221482
0.237249
0.267231
0.305058
0.349773
0.399624
0.448988
0.497771
0.545617
0.592755
0.639673
0.686975
0.735315
0.785362
0.837773
0.893189
0.952253
1.01558
1.08101
1.14265
1.19912
1.24878
1.28883
1.31315
1.30791
1.27436
1.21435
1.13217
1.03469
0.930691
0.825858
0.729215
0.666139
0.635028
0.632769
0.654614
0.692915
0.734446
0.775721
0.815069
0.850545
0.880894
0.905529
0.924294
0.937185
0.944211
0.945397
0.940965
0.931559
0.919745
0.905931
0.890421
0.873694
0.856416
0.839394
0.823581
0.810154
0.800507
0.796159
0.80169
0.821781
0.855838
0.900996
0.952588
1.00833
1.06398
1.11466
1.15474
1.18022
1.19543
1.20145
1.19878
1.18831
1.17163
1.15103
1.12948
1.11053
1.09855
1.09896
1.11871
1.16596
1.24574
1.3481
1.46629
1.61098
1.77051
1.91099
2.00413
2.06519
2.21985
2.6085
3.28436
4.21738
5.18948
6.14648
7.05451
7.85277
8.49317
8.94259
9.18378
9.21522
9.05871
8.80994
8.48346
8.09201
7.64705
7.15573
6.66087
6.16805
5.68002
5.20039
4.73274
4.28071
3.84923
3.4426
3.06505
2.72099
2.41516
2.15382
1.94725
1.8136
1.76397
1.80808
1.90832
2.03703
2.18943
2.36753
2.57385
2.80867
3.06907
3.34945
3.64301
3.94337
4.24569
4.548
4.85158
5.15947
5.4758
5.80537
6.15353
6.52637
6.93029
7.37327
7.86404
8.41127
9.02193
9.69568
10.4233
11.1881
11.9689
12.7426
13.4847
14.1703
14.7741
15.271
15.637
15.8493
15.8863
15.7271
15.3527
14.7494
13.9146
12.8621
11.6289
10.2772
8.89105
7.56341
6.38023
5.40381
4.66202
4.14632
3.81629
3.62004
3.52941
3.50045
3.45891
3.31102
3.02708
2.6678
2.32319
0.447913
0.417788
0.423457
0.437192
0.452954
0.467307
0.478505
0.486029
0.489956
0.490628
0.488518
0.484168
0.478151
0.471051
0.463461
0.455971
0.449176
0.443702
0.442517
0.450194
0.467184
0.493215
0.527389
0.567525
0.609956
0.651329
0.687811
0.715493
0.731022
0.732148
0.717923
0.686862
0.639895
0.592454
0.550201
0.515124
0.486851
0.463653
0.443882
0.426576
0.411603
0.399663
0.39195
0.389603
0.393437
0.403945
0.421385
0.445619
0.475945
0.505733
0.532981
0.556298
0.574703
0.58744
0.594111
0.59462
0.589093
0.577454
0.561527
0.542727
0.522562
0.503035
0.485372
0.469114
0.454256
0.44047
0.42731
0.414248
0.400697
0.386195
0.370334
0.352996
0.334447
0.315322
0.296597
0.279546
0.265659
0.256427
0.252982
0.255993
0.266806
0.291239
0.348926
0.458591
0.623094
0.86201
1.19996
1.64135
2.15731
2.7007
3.21993
3.6153
3.8644
4.00098
4.03404
3.97227
3.82877
3.62175
3.37333
3.10608
2.84237
2.60408
2.40785
2.26233
2.17095
2.13145
2.14366
2.16287
2.18323
2.20324
2.22165
2.23773
2.25143
2.26173
2.26771
2.26855
2.26258
2.25294
2.24041
2.22453
2.20459
2.1784
2.14727
2.1099
2.06424
2.00986
1.94938
1.88868
1.83197
1.78226
1.74133
1.7098
1.68749
1.67377
1.66671
1.66369
1.66246
1.66117
1.65855
1.65416
1.64858
1.64373
1.64179
1.64558
1.65891
1.68719
1.73824
1.82108
1.94355
2.1107
2.32341
2.5778
2.86542
3.17453
3.4916
3.80211
4.09112
4.34355
4.54314
4.67167
4.71036
4.64218
4.45836
4.16473
3.78196
3.34217
2.88091
2.4289
2.0083
1.63589
1.32987
1.11113
0.996984
0.964323
0.987873
1.05661
1.17002
1.30589
1.43035
1.53614
0.927509
0.712345
0.63648
0.598984
0.576307
0.559509
0.544658
0.530195
0.515606
0.500794
0.485842
0.470912
0.456209
0.441959
0.428408
0.41581
0.404428
0.394527
0.386427
0.380788
0.378671
0.381326
0.390039
0.405878
0.4293
0.459922
0.496118
0.534886
0.571856
0.602756
0.623139
0.628811
0.613216
0.578534
0.537352
0.496633
0.460656
0.431951
0.412384
0.403834
0.408162
0.42652
0.458576
0.502432
0.555215
0.613647
0.674447
0.73468
0.792425
0.842026
0.879856
0.905548
0.919867
0.923577
0.917072
0.90071
0.874889
0.840102
0.796972
0.746393
0.689703
0.630494
0.574518
0.521198
0.471798
0.427754
0.389992
0.358636
0.333
0.311792
0.293528
0.277157
0.261815
0.247128
0.233498
0.222232
0.215487
0.215855
0.225502
0.245322
0.275584
0.319728
0.393196
0.530923
0.77005
1.14251
1.64149
2.19668
2.69915
3.05379
3.20436
3.21604
3.13838
2.9999
2.8231
2.62724
2.4299
2.24658
2.08933
1.96542
1.87756
1.82396
1.7992
1.79617
1.80771
1.82759
1.8527
1.87963
1.90701
1.93383
1.95928
1.98264
2.00317
2.01988
2.03138
2.04092
2.04976
2.05868
2.06857
2.0802
2.09313
2.10376
2.11134
2.11886
2.12507
2.12595
2.11718
2.09554
2.06347
2.024
1.97968
1.93294
1.88587
1.83992
1.79596
1.75439
1.71526
1.67837
1.64339
1.60994
1.57771
1.54654
1.51649
1.4879
1.46137
1.4377
1.41805
1.40418
1.39858
1.40449
1.4255
1.46478
1.52419
1.60361
1.70069
1.81087
1.92769
2.04381
2.1515
2.24239
2.30708
2.33506
2.31666
2.24624
2.12403
1.95634
1.75397
1.53011
1.29971
1.08004
0.890218
0.747706
0.664408
0.637098
0.658932
0.729693
0.853199
1.02199
1.20337
1.34885
1.59617
1.02604
0.812965
0.702906
0.635434
0.588535
0.55259
0.523104
0.497806
0.475446
0.455298
0.436923
0.420071
0.404623
0.390558
0.377929
0.366847
0.357464
0.349979
0.344895
0.342552
0.343455
0.348322
0.358094
0.373797
0.396207
0.424844
0.458389
0.494762
0.530535
0.561247
0.581971
0.586745
0.571347
0.547141
0.524835
0.512518
0.516432
0.541151
0.588839
0.658007
0.743348
0.83732
0.932359
1.02232
1.10286
1.17133
1.22654
1.26793
1.29785
1.31594
1.32395
1.32297
1.31355
1.2959
1.27003
1.23585
1.19319
1.14189
1.08166
1.01214
0.932833
0.846891
0.762271
0.677491
0.594319
0.515936
0.445416
0.384886
0.335096
0.295425
0.264595
0.241377
0.22426
0.21226
0.205683
0.206611
0.218653
0.245729
0.290633
0.355603
0.447482
0.589005
0.806598
1.13623
1.59417
2.12207
2.58452
2.85547
2.90799
2.8366
2.70209
2.53696
2.36184
2.19091
2.03412
1.89827
1.78738
1.70287
1.64375
1.60726
1.58962
1.58672
1.59467
1.61017
1.63056
1.6526
1.67429
1.69494
1.71421
1.7319
1.74772
1.76103
1.7705
1.77633
1.78037
1.78216
1.78143
1.7783
1.77372
1.76961
1.76825
1.77249
1.78554
1.80891
1.84149
1.87999
1.91946
1.95382
1.97736
1.9896
1.99069
1.9814
1.9631
1.93738
1.90566
1.86924
1.82929
1.78675
1.74237
1.69672
1.65028
1.6035
1.55683
1.51071
1.46564
1.42228
1.38142
1.34411
1.31179
1.28632
1.26987
1.26471
1.27247
1.2944
1.33059
1.37863
1.43438
1.49277
1.54814
1.59466
1.62661
1.63854
1.62547
1.58356
1.51115
1.40938
1.28282
1.14003
0.99337
0.856783
0.74234
0.659354
0.616457
0.619616
0.674672
0.786628
0.948104
1.1258
1.25504
2.29864
1.25653
0.894839
0.722036
0.62481
0.563059
0.519719
0.486926
0.460723
0.438914
0.420165
0.403624
0.388754
0.375238
0.362944
0.351877
0.342149
0.333947
0.327574
0.323929
0.323241
0.325841
0.332184
0.342883
0.358643
0.379995
0.40607
0.436675
0.470722
0.506157
0.539865
0.568954
0.586686
0.591168
0.596132
0.615926
0.66223
0.740241
0.846161
0.96909
1.0961
1.21633
1.32246
1.41057
1.4795
1.53
1.56394
1.58368
1.59159
1.59118
1.58613
1.57708
1.56403
1.5466
1.52423
1.49631
1.46235
1.42207
1.37535
1.32206
1.26164
1.19274
1.11323
1.02285
0.930189
0.832192
0.730164
0.628515
0.532411
0.446458
0.373625
0.314796
0.269414
0.237049
0.216871
0.208831
0.214913
0.239464
0.288047
0.365775
0.477823
0.635839
0.857794
1.15293
1.54117
2.0015
2.42767
2.67606
2.70031
2.60313
2.45917
2.30147
2.14688
2.00376
1.87589
1.76471
1.67097
1.59568
1.5398
1.50307
1.48396
1.4797
1.48667
1.50096
1.5189
1.53769
1.55423
1.56791
1.57908
1.58854
1.59705
1.60519
1.61304
1.61947
1.6257
1.63126
1.63453
1.63357
1.62645
1.61168
1.58929
1.56416
1.53863
1.51656
1.50271
1.5012
1.51468
1.54351
1.58539
1.6354
1.68672
1.7321
1.76857
1.79438
1.80875
1.81176
1.80414
1.78707
1.76201
1.73046
1.69386
1.65352
1.6106
1.56608
1.52066
1.47492
1.42937
1.38444
1.34058
1.29835
1.25861
1.22252
1.19165
1.16782
1.15296
1.14867
1.15509
1.17139
1.19599
1.22638
1.25931
1.29051
1.31371
1.32461
1.31924
1.29404
1.24654
1.17655
1.08734
0.98607
0.88239
0.786237
0.706669
0.653522
0.640404
0.678774
0.77604
0.924812
1.09061
1.20242
2.85697
1.34628
0.878925
0.678711
0.576807
0.517199
0.478018
0.45003
0.428852
0.412055
0.398093
0.385906
0.374782
0.364306
0.354328
0.344915
0.336297
0.328828
0.323167
0.320603
0.321432
0.325951
0.334491
0.347485
0.365396
0.388523
0.415339
0.445786
0.479491
0.516315
0.557738
0.597998
0.636685
0.681792
0.747693
0.844126
0.970245
1.11457
1.26093
1.3952
1.50855
1.59721
1.66122
1.70311
1.72675
1.73637
1.73586
1.72835
1.71612
1.7016
1.68794
1.67475
1.66106
1.64553
1.62667
1.60295
1.57318
1.53683
1.49418
1.44624
1.39404
1.33766
1.27568
1.20485
1.12357
1.0369
0.939128
0.831337
0.718
0.605769
0.501782
0.411693
0.338502
0.283365
0.247693
0.232643
0.241035
0.278416
0.352283
0.470314
0.640409
0.874216
1.16168
1.50236
1.88945
2.26593
2.51373
2.55077
2.45257
2.31315
2.16939
2.03566
1.91586
1.80896
1.71278
1.62644
1.55439
1.49733
1.45774
1.43673
1.43211
1.43972
1.45448
1.47142
1.48644
1.49707
1.50224
1.50263
1.49966
1.4953
1.49119
1.48863
1.48867
1.49286
1.50093
1.51169
1.52306
1.53224
1.53582
1.53013
1.51277
1.48618
1.45069
1.40886
1.36471
1.32318
1.28959
1.26879
1.26415
1.27671
1.30482
1.34416
1.38852
1.43164
1.47011
1.50122
1.52317
1.53518
1.53738
1.53054
1.51588
1.49482
1.46881
1.43923
1.40724
1.37372
1.33942
1.30482
1.27027
1.23597
1.2021
1.16894
1.13701
1.10719
1.08074
1.05924
1.04412
1.03641
1.03651
1.04366
1.05635
1.07289
1.09075
1.10686
1.11666
1.11626
1.10211
1.07133
1.02317
0.960077
0.887775
0.814059
0.747624
0.698106
0.678167
0.703604
0.785461
0.919699
1.07287
1.17345
3.14769
1.30178
0.803892
0.615816
0.528621
0.480293
0.449791
0.42921
0.414873
0.404512
0.396453
0.389406
0.382463
0.375103
0.367175
0.358846
0.350531
0.342875
0.33746
0.335927
0.338498
0.345138
0.355817
0.370843
0.390874
0.416681
0.446403
0.480139
0.520431
0.571666
0.631113
0.701299
0.788251
0.898133
1.03345
1.18701
1.34409
1.48889
1.61
1.7021
1.76485
1.80123
1.81603
1.81467
1.8023
1.78309
1.75988
1.73484
1.70991
1.68889
1.67435
1.66523
1.65992
1.65593
1.65055
1.64071
1.62335
1.5965
1.55958
1.51427
1.46379
1.41108
1.35729
1.30095
1.23844
1.17069
1.09338
1.0017
0.895242
0.777481
0.655906
0.540107
0.4388
0.357769
0.301825
0.275594
0.283994
0.334438
0.436626
0.600486
0.834322
1.12987
1.45863
1.80227
2.12907
2.3684
2.43649
2.35163
2.21926
2.08732
1.97037
1.86962
1.78022
1.69616
1.61512
1.54377
1.48556
1.44144
1.4163
1.40926
1.41595
1.43033
1.44621
1.45845
1.46362
1.46122
1.45179
1.43672
1.41753
1.39852
1.38196
1.36957
1.36285
1.36284
1.36983
1.38315
1.40102
1.4206
1.43787
1.44802
1.44719
1.43428
1.40857
1.37068
1.32258
1.26762
1.21021
1.15544
1.10837
1.0733
1.05297
1.04805
1.05696
1.07606
1.10089
1.12808
1.15444
1.17728
1.19477
1.206
1.21083
1.20976
1.20365
1.1936
1.18059
1.16551
1.14915
1.1321
1.11473
1.09716
1.07932
1.06106
1.04221
1.02272
1.00284
0.983239
0.96492
0.949109
0.936998
0.929404
0.926626
0.928414
0.933855
0.941476
0.949196
0.954584
0.954694
0.946232
0.926445
0.894436
0.852127
0.804238
0.75766
0.721264
0.706562
0.727947
0.799341
0.92057
1.06228
1.1572
3.23636
1.18776
0.719941
0.565836
0.498725
0.46189
0.439506
0.426147
0.418909
0.415514
0.413989
0.412698
0.410448
0.406555
0.400834
0.39351
0.385112
0.376709
0.372657
0.3743
0.380082
0.389009
0.401208
0.417868
0.440847
0.471903
0.511043
0.559672
0.620124
0.697205
0.79362
0.911807
1.05195
1.20853
1.37044
1.52308
1.65334
1.75298
1.81908
1.8529
1.85835
1.84076
1.80593
1.76162
1.71314
1.66483
1.61988
1.58024
1.54701
1.52699
1.52094
1.5265
1.54078
1.55985
1.58029
1.59858
1.6088
1.60621
1.5871
1.55165
1.50456
1.45247
1.40045
1.3495
1.29775
1.24494
1.18709
1.11839
1.03416
0.931672
0.81294
0.686068
0.563392
0.457288
0.378235
0.337041
0.342708
0.405424
0.537152
0.748438
1.04016
1.37666
1.71779
2.02386
2.25116
2.34594
2.28754
2.15882
2.03269
1.92641
1.84046
1.76728
1.69721
1.62309
1.55166
1.48987
1.44087
1.40808
1.39454
1.39646
1.4074
1.42046
1.4299
1.43205
1.4252
1.41084
1.38918
1.36247
1.33478
1.30776
1.28314
1.26279
1.24862
1.24231
1.24483
1.25638
1.27594
1.30119
1.32818
1.35167
1.3661
1.36934
1.35923
1.33492
1.29691
1.24694
1.18788
1.1236
1.05859
0.997403
0.944061
0.90146
0.870975
0.852209
0.843298
0.842727
0.84822
0.857337
0.867867
0.878042
0.886695
0.893255
0.897657
0.900186
0.90131
0.901458
0.901144
0.900797
0.900729
0.901045
0.901568
0.901856
0.901291
0.899175
0.894943
0.888327
0.879483
0.868999
0.857791
0.846901
0.837288
0.829683
0.824453
0.821564
0.820597
0.820827
0.821013
0.819216
0.813051
0.800549
0.781279
0.757128
0.732511
0.714365
0.712315
0.738788
0.806965
0.919326
1.05207
1.14574
3.1715
1.0596
0.657694
0.540245
0.488862
0.460167
0.444401
0.437962
0.438164
0.442449
0.448439
0.454122
0.45802
0.459281
0.457672
0.453471
0.447347
0.441788
0.446564
0.453526
0.460747
0.469835
0.482879
0.502539
0.532094
0.574354
0.62859
0.697553
0.785726
0.896404
1.02936
1.18045
1.34045
1.49588
1.63285
1.7406
1.81331
1.8495
1.8508
1.82112
1.7662
1.69316
1.6098
1.52385
1.4418
1.36902
1.30955
1.26583
1.23856
1.23079
1.23832
1.25952
1.29335
1.33859
1.39271
1.45058
1.50303
1.54187
1.55915
1.54893
1.51507
1.46781
1.41798
1.37057
1.32551
1.28254
1.23706
1.18622
1.12539
1.04852
0.95074
0.83264
0.703564
0.579364
0.477766
0.418311
0.417255
0.489242
0.648302
0.902836
1.23585
1.59588
1.92273
2.16257
2.27821
2.25532
2.13203
1.99874
1.89442
1.81697
1.75765
1.70343
1.64299
1.57349
1.50779
1.45202
1.40943
1.38522
1.37817
1.38228
1.39029
1.39609
1.39594
1.38851
1.3742
1.35449
1.32814
1.29847
1.26758
1.2366
1.2069
1.18034
1.1591
1.1455
1.14134
1.1476
1.1645
1.19013
1.22178
1.25238
1.27815
1.29464
1.29849
1.28792
1.26256
1.22325
1.17181
1.11091
1.044
0.975026
0.907951
0.846227
0.79231
0.747305
0.710877
0.683117
0.663352
0.65029
0.642413
0.638314
0.636842
0.637158
0.63877
0.641503
0.645541
0.650972
0.658005
0.666677
0.677086
0.689422
0.703551
0.718942
0.734702
0.749504
0.762138
0.771667
0.777426
0.779195
0.777199
0.772047
0.764577
0.75569
0.746223
0.736879
0.728243
0.720797
0.714797
0.710032
0.705677
0.70055
0.693844
0.68602
0.679534
0.679301
0.692743
0.729566
0.80065
0.909222
1.03655
1.13297
2.98521
0.945966
0.625111
0.536432
0.494444
0.471351
0.46159
0.462228
0.470431
0.483331
0.49824
0.512902
0.525709
0.535804
0.543094
0.548291
0.553312
0.563101
0.573217
0.579042
0.585215
0.594532
0.609907
0.634623
0.671943
0.724159
0.792709
0.88019
0.989076
1.11819
1.26162
1.40919
1.54803
1.66541
1.75177
1.80167
1.81328
1.78747
1.72768
1.64006
1.53328
1.41747
1.30263
1.19716
1.10707
1.03608
0.986149
0.958117
0.951645
0.957793
0.971621
0.993611
1.02592
1.07157
1.13301
1.21027
1.29874
1.38738
1.45848
1.49162
1.48589
1.45146
1.40668
1.36382
1.32721
1.29321
1.25728
1.21809
1.17443
1.12148
1.05223
0.959551
0.843559
0.716288
0.599077
0.521062
0.508925
0.584738
0.764991
1.05277
1.41257
1.7785
2.07107
2.23195
2.24579
2.14336
1.99724
1.87677
1.79594
1.74456
1.70559
1.66298
1.6063
1.53915
1.47586
1.4224
1.38483
1.36504
1.35885
1.35893
1.35856
1.35391
1.34414
1.32999
1.31385
1.29527
1.27181
1.24416
1.21463
1.18392
1.15292
1.12306
1.09649
1.07602
1.06452
1.06352
1.07493
1.09701
1.12725
1.16164
1.19481
1.22112
1.23597
1.23654
1.22188
1.19249
1.14981
1.09588
1.03334
0.965339
0.895357
0.826803
0.762549
0.704476
0.653046
0.608924
0.572309
0.542685
0.519189
0.500867
0.48683
0.476387
0.469083
0.464674
0.463271
0.465035
0.470153
0.478801
0.49106
0.506778
0.525869
0.547966
0.5723
0.597722
0.622663
0.645441
0.664804
0.679755
0.689739
0.694659
0.694821
0.69081
0.683378
0.673359
0.661664
0.649305
0.637372
0.626871
0.618481
0.612457
0.608881
0.608255
0.612237
0.624309
0.649979
0.697562
0.775629
0.885057
1.01087
1.11335
2.70554
0.862949
0.61919
0.548295
0.511568
0.493266
0.489519
0.497427
0.514027
0.53633
0.56156
0.587449
0.612479
0.635949
0.657831
0.678353
0.697564
0.716192
0.726807
0.733916
0.741492
0.752711
0.770976
0.799728
0.842091
0.9004
0.976219
1.07054
1.18235
1.3064
1.4334
1.5517
1.64972
1.7181
1.75089
1.74531
1.70146
1.62255
1.51546
1.39062
1.26044
1.13681
1.02893
0.942428
0.879685
0.840542
0.822752
0.822494
0.835652
0.846683
0.854394
0.860585
0.869599
0.887979
0.923143
0.981511
1.06579
1.17148
1.28209
1.37066
1.41132
1.40129
1.36581
1.32901
1.29878
1.2749
1.25286
1.22761
1.19848
1.16253
1.11532
1.0506
0.96231
0.851573
0.735007
0.644888
0.619387
0.691857
0.883475
1.19054
1.56493
1.92289
2.17079
2.25447
2.18761
2.03834
1.88963
1.78693
1.72884
1.698
1.67338
1.63717
1.58095
1.51398
1.45034
1.3984
1.36319
1.34381
1.3337
1.32491
1.31216
1.29472
1.27528
1.25669
1.2422
1.22864
1.21267
1.19139
1.16661
1.13972
1.11142
1.08235
1.05406
1.02891
1.01123
1.00292
1.00632
1.02204
1.04893
1.08372
1.12114
1.15477
1.17858
1.18838
1.18234
1.16071
1.12498
1.07721
1.01977
0.955277
0.886678
0.817042
0.749244
0.685539
0.626978
0.574633
0.529185
0.49054
0.45816
0.431302
0.409208
0.391226
0.376856
0.365778
0.357908
0.353573
0.352885
0.356174
0.363769
0.375889
0.392586
0.413591
0.438503
0.466502
0.496268
0.526042
0.554129
0.579015
0.599438
0.614558
0.62399
0.627764
0.626227
0.619973
0.609804
0.59676
0.582154
0.567517
0.554422
0.544275
0.538282
0.537718
0.544448
0.561583
0.59389
0.648003
0.731791
0.844388
0.971531
1.08164
2.35789
0.82682
0.633756
0.570981
0.537944
0.524344
0.5265
0.541457
0.566301
0.598134
0.634269
0.672493
0.711197
0.749239
0.785611
0.819097
0.848213
0.872628
0.887011
0.898166
0.909156
0.923269
0.943889
0.974267
1.01722
1.07474
1.14764
1.23507
1.33346
1.43568
1.53194
1.61174
1.66582
1.68737
1.67251
1.62046
1.53407
1.42059
1.29152
1.16078
1.04152
0.943429
0.871903
0.828526
0.811725
0.817047
0.837774
0.866377
0.888945
0.900557
0.899345
0.885618
0.863735
0.842605
0.833524
0.847557
0.893573
0.976999
1.09053
1.20727
1.28749
1.31549
1.30042
1.27018
1.24217
1.22424
1.21513
1.20795
1.19787
1.18158
1.15522
1.11475
1.05522
0.972974
0.874275
0.784974
0.748604
0.810961
1.00174
1.31441
1.69121
2.03272
2.23528
2.25339
2.12852
1.95371
1.80941
1.72272
1.68245
1.66697
1.65315
1.62178
1.56532
1.4957
1.43053
1.37851
1.34334
1.32176
1.30532
1.28548
1.25838
1.22665
1.19715
1.17574
1.16328
1.1546
1.14564
1.13332
1.11552
1.09417
1.07119
1.04651
1.02082
0.995757
0.974075
0.959239
0.954998
0.96367
0.985351
1.01817
1.05744
1.09652
1.12818
1.14655
1.14842
1.13337
1.10292
1.05948
1.00568
0.944143
0.877534
0.808602
0.740022
0.674081
0.612128
0.555625
0.505621
0.462332
0.42543
0.394299
0.368227
0.346527
0.328607
0.314022
0.302484
0.294084
0.288846
0.287062
0.289105
0.295374
0.306218
0.321837
0.342205
0.366922
0.395163
0.425584
0.456576
0.486424
0.513454
0.536236
0.55374
0.565378
0.570968
0.570678
0.564982
0.554665
0.540882
0.525174
0.509389
0.495506
0.485498
0.481389
0.485602
0.501515
0.5341
0.589667
0.674575
0.788211
0.917036
1.03479
2.0169
0.806929
0.6563
0.600061
0.570753
0.561805
0.569385
0.590631
0.622851
0.663337
0.709459
0.758861
0.809528
0.859648
0.907374
0.950733
0.987734
1.01746
1.03832
1.05514
1.07068
1.08793
1.1099
1.13942
1.17879
1.22948
1.2915
1.36289
1.43905
1.51271
1.57501
1.61712
1.63162
1.61347
1.56065
1.475
1.36313
1.23648
1.10948
0.996121
0.90686
0.847591
0.820183
0.822875
0.850026
0.892369
0.938456
0.977216
1.00691
1.02662
1.02976
1.01052
0.968388
0.912437
0.858998
0.824287
0.819095
0.855848
0.939343
1.05201
1.15066
1.20136
1.20977
1.19301
1.16717
1.14937
1.14545
1.15271
1.16284
1.17008
1.16862
1.15385
1.12245
1.07176
1.00265
0.929936
0.891769
0.94108
1.11901
1.42341
1.79214
2.11421
2.27858
2.24771
2.08395
1.89439
1.75383
1.67797
1.64982
1.6448
1.63834
1.61062
1.55534
1.4858
1.41866
1.36431
1.32657
1.30145
1.27934
1.25033
1.20967
1.16382
1.12559
1.10246
1.09042
1.0838
1.07827
1.0705
1.05915
1.04455
1.02755
1.00862
0.987852
0.965665
0.94378
0.925525
0.915408
0.917594
0.93331
0.962684
1.00201
1.04495
1.08362
1.11059
1.12085
1.11268
1.08718
1.04702
0.995348
0.935229
0.869508
0.800883
0.731885
0.664692
0.600747
0.541871
0.489303
0.443452
0.404147
0.370873
0.342951
0.319672
0.300376
0.284509
0.27164
0.261552
0.254171
0.249582
0.248005
0.249789
0.255359
0.265141
0.279463
0.29842
0.321742
0.348692
0.378079
0.408358
0.437814
0.464749
0.487688
0.505521
0.517553
0.523483
0.523376
0.51765
0.507121
0.493054
0.477162
0.461501
0.448329
0.440079
0.439571
0.450508
0.478093
0.529102
0.609748
0.719846
0.848172
0.971917
1.70053
0.796983
0.683352
0.632726
0.607538
0.603081
0.615215
0.641329
0.679112
0.726135
0.779836
0.837666
0.897209
0.956175
1.01233
1.06358
1.10804
1.14434
1.17294
1.19664
1.21765
1.23843
1.26145
1.28892
1.32263
1.36349
1.41109
1.46311
1.51501
1.56025
1.59122
1.60056
1.58232
1.53299
1.45263
1.34597
1.22303
1.09772
0.984546
0.894927
0.835578
0.808914
0.813372
0.842851
0.88714
0.934677
0.976793
1.01187
1.05365
1.0962
1.12688
1.13213
1.10072
1.03447
0.952202
0.87961
0.829305
0.816436
0.854225
0.935248
1.02524
1.08774
1.10971
1.10124
1.08065
1.06231
1.0563
1.06772
1.09227
1.12124
1.14685
1.16164
1.16055
1.14178
1.10658
1.06292
1.03693
1.07757
1.23477
1.51831
1.87007
2.17372
2.31205
2.25039
2.06231
1.86174
1.72011
1.64818
1.62604
1.62704
1.62563
1.6019
1.55002
1.48184
1.41322
1.35569
1.31363
1.28336
1.25556
1.22043
1.17406
1.12369
1.08055
1.05153
1.03523
1.02698
1.02195
1.01608
1.00733
0.995831
0.982654
0.968527
0.953199
0.935992
0.917058
0.898435
0.884183
0.87951
0.889261
0.914735
0.952786
0.998158
1.0429
1.07846
1.09801
1.09808
1.07864
1.04211
0.992051
0.932168
0.865867
0.796181
0.72576
0.656731
0.590747
0.529964
0.475615
0.428149
0.387453
0.353056
0.3243
0.30046
0.280832
0.264785
0.25179
0.241446
0.233589
0.228065
0.224915
0.224323
0.226605
0.232171
0.241464
0.254858
0.272521
0.294287
0.319537
0.347176
0.375746
0.403593
0.429074
0.450754
0.467536
0.478706
0.483932
0.483252
0.477101
0.466361
0.452398
0.437034
0.422448
0.411121
0.405966
0.410747
0.430681
0.472623
0.543391
0.644835
0.768423
0.894542
1.42154
0.79476
0.710465
0.665242
0.644842
0.644763
0.66049
0.689811
0.730955
0.781941
0.840447
0.903906
0.96969
1.03527
1.09831
1.15678
1.20907
1.25364
1.29133
1.32341
1.35137
1.37704
1.4022
1.42845
1.45699
1.48834
1.52191
1.55554
1.58528
1.6056
1.61016
1.59282
1.54883
1.47606
1.37642
1.25703
1.13009
1.01006
0.909841
0.837775
0.797199
0.787087
0.80136
0.828823
0.857033
0.879032
0.898615
0.935146
0.992009
1.06308
1.12917
1.17492
1.18041
1.13695
1.05682
0.965502
0.884949
0.832057
0.823906
0.864893
0.932085
0.989044
1.01412
1.00942
0.989533
0.96969
0.959837
0.96693
0.995068
1.03802
1.08652
1.13109
1.16311
1.17801
1.17704
1.16745
1.16635
1.20992
1.34685
1.60098
1.92837
2.21621
2.3426
2.26826
2.06744
1.85627
1.70702
1.6311
1.60839
1.61108
1.61287
1.5938
1.54735
1.48239
1.41344
1.35249
1.30486
1.26821
1.23473
1.19599
1.14883
1.09826
1.0524
1.01809
0.996701
0.985153
0.978676
0.972659
0.964451
0.953859
0.942183
0.930626
0.919161
0.906607
0.891845
0.875353
0.860015
0.850738
0.853208
0.872102
0.908059
0.954522
1.00416
1.04792
1.0775
1.08747
1.07611
1.0449
0.997293
0.937502
0.869664
0.79748
0.724047
0.651648
0.582789
0.519682
0.463503
0.414645
0.372951
0.337915
0.308842
0.284965
0.265531
0.249846
0.237305
0.227413
0.219867
0.214388
0.210858
0.209287
0.209831
0.212818
0.218687
0.22791
0.240883
0.257717
0.278237
0.301877
0.327616
0.354081
0.37972
0.402999
0.422592
0.437484
0.447018
0.4509
0.449212
0.442453
0.431583
0.418044
0.403717
0.39088
0.382284
0.381477
0.393355
0.424501
0.482114
0.570161
0.683674
0.806818
1.18749
0.793121
0.73063
0.691899
0.67782
0.68238
0.701235
0.732655
0.775468
0.828348
0.889518
0.956745
1.0275
1.09922
1.16953
1.23642
1.29827
1.35368
1.40289
1.4461
1.48402
1.51766
1.54807
1.57612
1.60241
1.62708
1.64948
1.66784
1.67903
1.67868
1.66164
1.62285
1.55856
1.46751
1.35279
1.22294
1.09119
0.969998
0.875258
0.812391
0.780442
0.774473
0.783725
0.79386
0.794893
0.790974
0.802302
0.840439
0.902142
0.984416
1.07693
1.15953
1.20582
1.19616
1.13278
1.03954
0.943342
0.864911
0.823796
0.829935
0.868654
0.908563
0.926562
0.919955
0.899107
0.87655
0.862147
0.861803
0.884154
0.930569
0.992962
1.0614
1.12505
1.17501
1.2087
1.23261
1.26166
1.32106
1.44804
1.67197
1.96995
2.24432
2.37287
2.3043
2.10205
1.88027
1.71613
1.6271
1.59603
1.59526
1.59802
1.5839
1.54459
1.4852
1.41784
1.35416
1.30053
1.25659
1.2169
1.17502
1.12815
1.07893
1.03304
0.996408
0.971418
0.956533
0.947696
0.940273
0.931205
0.919985
0.908011
0.896962
0.887319
0.877947
0.867
0.853635
0.839367
0.828205
0.825699
0.837415
0.866912
0.912826
0.966069
1.01713
1.0569
1.07819
1.07725
1.05391
1.01082
0.95223
0.882873
0.807286
0.729257
0.651955
0.578952
0.512532
0.453854
0.40324
0.36044
0.324848
0.295671
0.272048
0.253136
0.238155
0.226413
0.217316
0.21041
0.205348
0.201959
0.200165
0.200001
0.201644
0.205417
0.211759
0.221142
0.23393
0.250219
0.26967
0.291759
0.315521
0.339673
0.362781
0.383463
0.400537
0.413117
0.420646
0.422913
0.420082
0.412729
0.401883
0.38903
0.376109
0.365553
0.36052
0.365354
0.386011
0.42955
0.50142
0.600236
0.714589
0.995361
0.783325
0.737265
0.706471
0.700076
0.711661
0.734418
0.768285
0.812495
0.866446
0.929132
0.998988
1.07385
1.15124
1.22867
1.30401
1.37555
1.44249
1.5041
1.5599
1.60989
1.65429
1.6934
1.72742