/*--------------------------------*- C++ -*----------------------------------*\
| =========                 |                                                 |
| \\      /  F ield         | OpenFOAM: The Open Source CFD Toolbox           |
|  \\    /   O peration     | Version:  2112                                  |
|   \\  /    A nd           | Website:  www.openfoam.com                      |
|    \\/     M anipulation  |                                                 |
\*---------------------------------------------------------------------------*/
FoamFile
{
    version     2.0;
    format      ascii;
    arch        "LSB;label=32;scalar=64";
    class       volScalarField;
    location    "0.27";
    object      kU;
}
// * * * * * * * * * * * * * * * * * * * * * * * * * * * * * * * * * * * * * //

dimensions      [0 2 -2 0 0 0 0];

internalField   nonuniform List<scalar> 
12225
(
1.45571
2.53018
3.62127
4.82411
6.20551
7.79069
9.56275
11.4695
13.4374
15.3875
17.2521
18.9844
20.5597
21.9729
23.2281
24.3558
25.2408
25.7333
0.424743
0.515262
0.636648
0.791996
0.98392
1.21556
1.49399
1.83124
2.23986
2.73044
3.30234
3.94344
4.63424
5.3553
6.09218
6.85029
7.68791
8.50952
0.379798
0.38686
0.394676
0.404882
0.419696
0.441195
0.471901
0.515318
0.575613
0.65756
0.765257
0.901374
1.06683
1.26162
1.48552
1.74433
2.05191
2.41785
0.376251
0.377057
0.37742
0.377456
0.377367
0.377332
0.377611
0.378704
0.381477
0.387098
0.396867
0.412068
0.433837
0.463292
0.501623
0.550942
0.614068
0.695149
0.375581
0.37582
0.375727
0.375357
0.374751
0.373924
0.372865
0.371627
0.370332
0.369158
0.368319
0.368052
0.36864
0.370321
0.3733
0.377987
0.384906
0.394549
0.375352
0.375558
0.375527
0.375308
0.374932
0.374411
0.373736
0.372923
0.372005
0.371027
0.370036
0.369083
0.368206
0.367443
0.366839
0.366463
0.366402
0.366721
0.37524
0.375439
0.375499
0.375421
0.375231
0.374945
0.374557
0.374085
0.373546
0.372961
0.37235
0.371731
0.371116
0.370519
0.369956
0.369448
0.369025
0.368714
0.37517
0.375349
0.375465
0.375491
0.375434
0.375299
0.375092
0.374832
0.374531
0.3742
0.373853
0.373499
0.373146
0.372802
0.372476
0.372175
0.371915
0.37171
0.375118
0.375269
0.375406
0.375501
0.375538
0.375512
0.375431
0.375306
0.375151
0.374978
0.374798
0.374614
0.374433
0.374259
0.374099
0.37396
0.373849
0.37377
0.375077
0.375195
0.375327
0.375454
0.375556
0.375617
0.375632
0.375605
0.375554
0.37549
0.375422
0.375354
0.37529
0.375234
0.375189
0.375164
0.375164
0.375186
0.375042
0.375127
0.375241
0.375372
0.375504
0.37562
0.375709
0.375768
0.375804
0.375828
0.375847
0.375867
0.375894
0.375928
0.375973
0.376033
0.376108
0.376195
0.375014
0.37507
0.375162
0.375284
0.37542
0.375557
0.375684
0.375796
0.375893
0.37598
0.376062
0.376145
0.376231
0.376324
0.376425
0.376537
0.376657
0.376782
0.374988
0.375016
0.375086
0.375191
0.375321
0.375463
0.375606
0.375747
0.375883
0.376014
0.376143
0.376272
0.376403
0.376538
0.376678
0.376824
0.376974
0.377123
0.374959
0.374956
0.375003
0.375087
0.375202
0.375337
0.375482
0.375633
0.375788
0.375945
0.376103
0.376263
0.376425
0.376589
0.376755
0.376923
0.377091
0.377254
0.374932
0.374892
0.374915
0.374977
0.375072
0.375191
0.375327
0.375474
0.37563
0.375792
0.375959
0.37613
0.376303
0.376479
0.376655
0.37683
0.377003
0.377167
0.374908
0.374831
0.374825
0.374869
0.374944
0.375044
0.375163
0.375297
0.375441
0.375594
0.375754
0.375918
0.376086
0.376255
0.376424
0.376591
0.376755
0.376909
0.37489
0.374782
0.374748
0.374774
0.374832
0.374914
0.375016
0.375132
0.37526
0.375397
0.375541
0.375689
0.375839
0.375991
0.376142
0.376291
0.376436
0.376572
0.374879
0.374751
0.374697
0.374707
0.374754
0.374824
0.374911
0.375012
0.375124
0.375244
0.37537
0.375499
0.375629
0.37576
0.375889
0.376016
0.376138
0.376253
0.374879
0.37475
0.374691
0.374697
0.374741
0.374805
0.374885
0.374977
0.375078
0.375184
0.375294
0.375406
0.375517
0.375626
0.375733
0.375836
0.375934
0.376024
0.374893
0.374786
0.374747
0.374765
0.374814
0.374882
0.374965
0.375056
0.375151
0.375248
0.375344
0.375438
0.375526
0.37561
0.375687
0.375758
0.375822
0.375878
0.374915
0.374842
0.374831
0.374864
0.374921
0.374995
0.375078
0.375164
0.375248
0.375326
0.375394
0.375453
0.3755
0.375538
0.375567
0.375589
0.375604
0.375612
0.374946
0.374915
0.374932
0.374976
0.375038
0.375109
0.375179
0.375239
0.375284
0.37531
0.375316
0.375307
0.375284
0.375252
0.375213
0.375168
0.375119
0.375066
0.374986
0.374997
0.375031
0.375078
0.375126
0.375164
0.375183
0.375177
0.375144
0.375086
0.375004
0.374902
0.374785
0.374659
0.374527
0.374391
0.374251
0.374113
0.375031
0.375078
0.375117
0.375135
0.375128
0.375092
0.37502
0.374906
0.374755
0.374573
0.374365
0.374135
0.373886
0.373624
0.373353
0.373076
0.372797
0.37252
0.375087
0.375164
0.375178
0.375123
0.375009
0.37484
0.374618
0.37434
0.374009
0.373631
0.373213
0.372763
0.372286
0.37179
0.371281
0.370764
0.370247
0.369739
0.375184
0.375292
0.375254
0.375085
0.3748
0.374408
0.373918
0.373333
0.372662
0.371913
0.3711
0.370237
0.369337
0.368414
0.367488
0.366578
0.365708
0.364901
0.375448
0.375755
0.3758
0.375542
0.375028
0.374305
0.373408
0.372371
0.371235
0.370053
0.368896
0.367857
0.367053
0.366589
0.366568
0.367125
0.368409
0.370549
0.376731
0.379284
0.381374
0.382875
0.384208
0.385876
0.388393
0.392257
0.397931
0.405872
0.416581
0.430647
0.448701
0.471462
0.499718
0.534168
0.57544
0.623924
0.39545
0.427294
0.468793
0.52218
0.588707
0.668742
0.762458
0.869996
0.991642
1.1282
1.28138
1.45387
1.64842
1.86776
2.11438
2.3893
2.69217
3.01802
1.04071
1.68807
2.30016
2.91811
3.58011
4.31145
5.12624
6.03013
7.02203
8.09477
9.23573
10.428
11.6519
12.8871
14.1131
15.3122
16.468
17.5629
0.257276
0.258923
0.262641
0.268386
0.276228
0.286223
0.298381
0.312671
0.329024
0.347337
0.36749
0.389537
0.413646
0.439651
0.467306
0.496497
0.527183
0.559344
0.592962
0.628029
0.664541
0.702505
0.741928
0.782824
0.825208
0.869094
0.914497
0.96143
1.0099
1.05993
1.11151
1.16465
1.21934
1.27559
1.33337
1.39268
1.4535
1.5158
1.57955
1.64472
1.71125
1.77912
1.84826
1.91863
1.99014
2.06275
2.13636
2.21092
2.28632
2.36249
2.43934
2.51677
2.59468
2.67297
2.75154
2.8303
2.90912
2.98791
3.06656
3.14496
3.22301
3.3006
3.37764
3.45401
3.52962
3.60437
3.67816
3.75089
3.82248
3.89283
3.96186
4.02948
4.09561
4.16017
4.22309
4.2843
4.34372
4.40131
4.45699
4.51072
4.56245
4.61211
4.65968
4.7051
4.74834
4.78935
4.82809
4.86454
4.89865
4.93038
4.95971
4.98658
5.01097
5.03283
5.05212
5.06879
5.08276
5.09394
5.10222
5.10771
5.11086
5.1117
5.11023
5.10645
5.10037
5.09202
5.08141
5.06859
5.05357
5.0364
5.01709
4.99568
4.97221
4.94671
4.91922
4.88976
4.85837
4.82508
4.78993
4.75293
4.71412
4.67352
4.63116
4.58706
4.54124
4.49372
4.44451
4.39364
4.34112
4.28696
4.23121
4.17386
4.11496
4.05455
3.99265
3.92933
3.86464
3.79864
3.73142
3.66303
3.59358
3.52313
3.45177
3.37957
3.3066
3.23293
3.15865
3.0839
3.00892
2.93417
2.86053
2.79061
2.7263
2.66956
2.63063
2.61517
2.62486
2.65635
2.70235
2.75068
2.80397
2.85867
2.91343
2.96759
3.02074
3.07269
3.12332
3.17259
3.22047
3.26697
3.31212
3.35595
3.3985
3.43982
3.47994
3.51889
3.55698
3.59435
3.63615
3.66938
0.259143
0.259791
0.262442
0.266928
0.273271
0.281475
0.291507
0.303305
0.316782
0.331836
0.348363
0.366276
0.385538
0.406072
0.427762
0.450504
0.474221
0.49886
0.524383
0.550763
0.577979
0.606016
0.634864
0.664515
0.694961
0.726195
0.75821
0.790996
0.824545
0.858842
0.893875
0.929626
0.966075
1.0032
1.04098
1.07938
1.11838
1.15794
1.19803
1.23862
1.27965
1.32109
1.3629
1.40503
1.44744
1.49007
1.53289
1.57583
1.61886
1.66191
1.70494
1.74791
1.79076
1.83345
1.87592
1.91815
1.96007
2.00165
2.04285
2.08363
2.12396
2.1638
2.20311
2.24187
2.28005
2.31761
2.35454
2.39081
2.4264
2.46129
2.49545
2.52888
2.56156
2.59349
2.62463
2.65501
2.68459
2.71339
2.74141
2.76863
2.79506
2.8207
2.84555
2.86962
2.8929
2.91541
2.93714
2.95811
2.9783
2.99773
3.01641
3.03434
3.05152
3.06796
3.08367
3.09865
3.11292
3.12651
3.13957
3.15237
3.16468
3.17646
3.18771
3.19846
3.20872
3.21849
3.22779
3.23664
3.24504
3.25301
3.26055
3.26769
3.27441
3.28074
3.28667
3.2922
3.29733
3.30205
3.30635
3.31021
3.31363
3.31656
3.31899
3.32086
3.32215
3.32279
3.32272
3.32188
3.32019
3.31755
3.31388
3.30906
3.30298
3.29551
3.28652
3.27587
3.26341
3.24899
3.23245
3.21365
3.19242
3.16864
3.14216
3.11286
3.08065
3.04546
3.00726
2.96609
2.92212
2.87567
2.82746
2.77899
2.73206
2.69026
2.66031
2.64675
2.65094
2.67036
2.69962
2.73082
2.76281
2.79375
2.82256
2.84869
2.87183
2.89179
2.90851
2.92198
2.93227
2.93946
2.94371
2.9452
2.94413
2.94077
2.93538
2.92834
2.92029
2.91266
2.90896
2.9198
0.263442
0.262296
0.263541
0.266679
0.271637
0.278362
0.286771
0.296766
0.308244
0.321095
0.335212
0.350496
0.366862
0.384219
0.402475
0.421542
0.441345
0.461827
0.482943
0.504661
0.526954
0.549802
0.573188
0.597099
0.621522
0.646445
0.671856
0.697741
0.724085
0.750874
0.778091
0.805717
0.833733
0.862116
0.890845
0.919896
0.949242
0.978858
1.00872
1.03879
1.06905
1.09946
1.13
1.16064
1.19135
1.22209
1.25285
1.28359
1.31428
1.34491
1.37544
1.40585
1.43613
1.46625
1.4962
1.52595
1.5555
1.58483
1.61392
1.64277
1.67136
1.6997
1.72776
1.75555
1.78306
1.81028
1.83721
1.86384
1.89017
1.91621
1.94194
1.96737
1.9925
2.01733
2.04186
2.0661
2.09004
2.11369
2.13706
2.16015
2.18296
2.2055
2.22778
2.24979
2.27154
2.29303
2.31428
2.33528
2.35604
2.37657
2.39687
2.41696
2.43683
2.45651
2.476
2.49534
2.51456
2.53371
2.55294
2.5721
2.59111
2.60996
2.62864
2.64715
2.6655
2.68367
2.70167
2.7195
2.73715
2.75463
2.77193
2.78904
2.80597
2.82271
2.83924
2.85557
2.87169
2.88757
2.90321
2.91859
2.93368
2.94846
2.9629
2.97697
2.99061
3.00378
3.01644
3.0285
3.0399
3.05055
3.06036
3.06923
3.07702
3.08362
3.08887
3.09262
3.0947
3.09493
3.09312
3.08907
3.0826
3.07349
3.06157
3.04667
3.02863
3.00735
2.98277
2.95493
2.924
2.89034
2.85467
2.81814
2.78232
2.74995
2.72563
2.71286
2.71244
2.72261
2.73973
2.75914
2.77903
2.79778
2.81427
2.82788
2.83826
2.84523
2.8487
2.84869
2.8453
2.83864
2.82893
2.81639
2.80128
2.78392
2.76464
2.74392
2.7225
2.70195
2.685
2.67948
0.268654
0.265232
0.265035
0.266863
0.270558
0.276017
0.283108
0.291702
0.301673
0.312901
0.325273
0.338682
0.353031
0.368225
0.384176
0.400801
0.418032
0.43581
0.45409
0.472838
0.492025
0.51163
0.531636
0.552028
0.572793
0.593918
0.615391
0.6372
0.659333
0.681774
0.704512
0.727529
0.750812
0.774343
0.798107
0.822085
0.846261
0.870617
0.895135
0.919799
0.944591
0.969494
0.994493
1.01957
1.04472
1.06992
1.09515
1.12042
1.14571
1.17101
1.19632
1.22162
1.24692
1.27222
1.2975
1.32277
1.34803
1.37329
1.39853
1.42376
1.44899
1.47421
1.49942
1.52463
1.54984
1.57503
1.60023
1.62541
1.65058
1.67574
1.70089
1.72601
1.75112
1.77621
1.80127
1.8263
1.8513
1.87627
1.9012
1.9261
1.95095
1.97575
2.0005
2.02519
2.04983
2.0744
2.09891
2.12335
2.14773
2.17203
2.19626
2.22043
2.24455
2.26861
2.29263
2.31663
2.34064
2.36469
2.38871
2.41262
2.43639
2.46001
2.48346
2.50673
2.5298
2.55268
2.57534
2.59778
2.61998
2.64194
2.66365
2.68508
2.70625
2.72712
2.7477
2.76798
2.78793
2.80756
2.82684
2.84576
2.86431
2.88245
2.90018
2.91746
2.93426
2.95054
2.96628
2.98141
2.9959
3.00967
3.02266
3.03479
3.04595
3.05606
3.06499
3.07262
3.0788
3.08338
3.0862
3.08707
3.08582
3.08227
3.07622
3.06751
3.056
3.04156
3.02415
3.00379
2.98066
2.95509
2.92767
2.89918
2.87071
2.84427
2.82335
2.81034
2.80578
2.80846
2.81607
2.82599
2.83658
2.8463
2.85406
2.85921
2.8614
2.86046
2.85631
2.84899
2.83858
2.82525
2.80919
2.79063
2.76985
2.74715
2.7229
2.6976
2.67202
2.64768
2.6266
2.61378
0.275162
0.268714
0.266956
0.267509
0.270068
0.274447
0.280462
0.287945
0.296749
0.306743
0.317805
0.329825
0.342698
0.356331
0.370637
0.385539
0.400971
0.416877
0.433213
0.449946
0.467048
0.484499
0.502282
0.520383
0.538791
0.557496
0.576489
0.595759
0.615299
0.635098
0.655147
0.675437
0.695959
0.716702
0.737658
0.758818
0.780173
0.801716
0.823438
0.845332
0.867394
0.889617
0.911997
0.934532
0.957219
0.980057
1.00305
1.02619
1.04948
1.07294
1.09656
1.12034
1.1443
1.16844
1.19276
1.21728
1.24199
1.26691
1.29204
1.31737
1.34293
1.3687
1.39468
1.42088
1.44729
1.47391
1.50073
1.52774
1.55494
1.58232
1.60986
1.63755
1.66539
1.69336
1.72146
1.74966
1.77796
1.80635
1.8348
1.86332
1.89188
1.92047
1.94908
1.97769
2.00631
2.03491
2.06348
2.09202
2.12053
2.14899
2.1774
2.20577
2.23408
2.26235
2.29058
2.31878
2.34694
2.37499
2.40288
2.43058
2.45807
2.48531
2.5123
2.53901
2.56543
2.59154
2.61732
2.64276
2.66783
2.69252
2.71681
2.74069
2.76415
2.78716
2.80971
2.8318
2.85341
2.87452
2.89513
2.91521
2.93477
2.95376
2.97219
2.99003
3.00725
3.02384
3.03976
3.05499
3.06948
3.08321
3.09611
3.10814
3.11923
3.1293
3.13827
3.14605
3.15254
3.1576
3.16113
3.16297
3.16298
3.16103
3.15694
3.15059
3.14185
3.13063
3.1169
3.10072
3.08221
3.06167
3.03954
3.01617
2.99237
2.96958
2.95025
2.93615
2.92771
2.92412
2.924
2.92598
2.92886
2.93127
2.93217
2.93092
2.92716
2.92071
2.91151
2.89956
2.88498
2.86788
2.84846
2.82693
2.80355
2.77861
2.75246
2.72563
2.69885
2.6735
2.65105
2.63449
0.282549
0.272434
0.268988
0.268291
0.269822
0.273275
0.278395
0.284973
0.292838
0.301847
0.311876
0.322809
0.334543
0.346985
0.36005
0.373665
0.387767
0.402305
0.417236
0.432529
0.448159
0.464107
0.480358
0.496901
0.513729
0.530834
0.548209
0.565851
0.583754
0.601915
0.620329
0.638994
0.657906
0.677064
0.696465
0.716109
0.735996
0.756126
0.7765
0.797121
0.817993
0.839119
0.860505
0.882156
0.904081
0.926285
0.948779
0.971571
0.994671
1.01809
1.04184
1.06592
1.09036
1.11516
1.14032
1.16586
1.19179
1.21811
1.24482
1.27192
1.29942
1.32732
1.35561
1.38427
1.41331
1.44272
1.47247
1.50256
1.53297
1.56367
1.59466
1.6259
1.65739
1.6891
1.72101
1.7531
1.78536
1.81775
1.85025
1.88286
1.91553
1.94826
1.98102
2.01379
2.04656
2.07932
2.11204
2.14472
2.17734
2.2099
2.2424
2.27482
2.30716
2.33942
2.37159
2.40369
2.43556
2.46722
2.49861
2.52972
2.56052
2.59099
2.62109
2.65081
2.68013
2.70901
2.73744
2.76539
2.79284
2.81977
2.84616
2.87198
2.89721
2.92184
2.94585
2.96922
2.99194
3.01399
3.03537
3.05606
3.07604
3.09529
3.11382
3.13158
3.14858
3.16478
3.18018
3.19475
3.20848
3.22133
3.23327
3.24427
3.25428
3.26325
3.27113
3.27785
3.28334
3.28752
3.2903
3.29157
3.29122
3.28916
3.28526
3.27943
3.27158
3.26164
3.24961
3.23557
3.21963
3.20196
3.18294
3.16267
3.14153
3.12057
3.10154
3.08576
3.07361
3.06461
3.05802
3.0532
3.04937
3.04544
3.04045
3.0338
3.0251
3.01418
3.00095
2.98543
2.96769
2.94785
2.92606
2.90252
2.87746
2.85114
2.82393
2.7963
2.76897
2.74312
2.71977
2.70069
0.290632
0.276178
0.270887
0.268952
0.269547
0.272203
0.276572
0.282396
0.289482
0.297676
0.30685
0.316889
0.327694
0.339174
0.351247
0.363846
0.37691
0.390393
0.404255
0.418468
0.433008
0.447861
0.463014
0.478459
0.494192
0.510209
0.526509
0.54309
0.559953
0.5771
0.594531
0.612251
0.630261
0.648568
0.667175
0.686089
0.705318
0.724868
0.744749
0.764972
0.785545
0.806481
0.827792
0.849491
0.871589
0.894102
0.917042
0.940425
0.964262
0.98857
1.01336
1.03865
1.06444
1.09075
1.1176
1.14497
1.1729
1.20136
1.23038
1.25995
1.29005
1.3207
1.35187
1.38357
1.41576
1.44844
1.48158
1.51517
1.54917
1.58357
1.61833
1.65344
1.68885
1.72455
1.76051
1.7967
1.83309
1.86964
1.90635
1.94316
1.98006
2.01701
2.05399
2.09098
2.12794
2.16487
2.20175
2.23857
2.2753
2.31195
2.34849
2.38493
2.42125
2.45746
2.49353
2.52935
2.56486
2.60004
2.63488
2.66935
2.70341
2.73703
2.77019
2.80286
2.835
2.86659
2.89761
2.92802
2.9578
2.98692
3.01536
3.04307
3.07005
3.09626
3.12168
3.1463
3.17011
3.19308
3.2152
3.23646
3.25685
3.27635
3.29495
3.31262
3.32936
3.34515
3.35998
3.37384
3.38672
3.3986
3.40946
3.41928
3.42803
3.43568
3.4422
3.44755
3.45167
3.45452
3.45603
3.45613
3.45476
3.45183
3.44727
3.44101
3.43301
3.42322
3.41164
3.39842
3.38365
3.36743
3.34993
3.33111
3.31114
3.2907
3.27107
3.25325
3.23757
3.22382
3.21167
3.20091
3.1911
3.18143
3.17109
3.15951
3.14633
3.13134
3.11446
3.09568
3.07506
3.05269
3.02871
3.00329
2.97662
2.94898
2.92068
2.89218
2.86414
2.83754
2.81304
2.79169
0.299297
0.279781
0.272467
0.269292
0.269027
0.27099
0.274722
0.279907
0.286328
0.293822
0.302259
0.31153
0.321539
0.332201
0.343441
0.355195
0.367408
0.380037
0.393047
0.406411
0.420112
0.434135
0.448472
0.463118
0.478072
0.493335
0.508908
0.524795
0.541001
0.557531
0.574394
0.591596
0.609147
0.627057
0.645337
0.663998
0.683054
0.702519
0.722407
0.742734
0.763516
0.784769
0.806511
0.828757
0.851527
0.874836
0.898702
0.923142
0.948172
0.973808
1.00007
1.02696
1.0545
1.0827
1.11156
1.1411
1.17133
1.20223
1.23382
1.26609
1.29904
1.33264
1.3669
1.40179
1.4373
1.4734
1.51007
1.54728
1.585
1.62321
1.66186
1.70092
1.74035
1.78014
1.82023
1.8606
1.90121
1.94202
1.983
2.02411
2.06531
2.10656
2.14783
2.1891
2.23033
2.2715
2.3126
2.35361
2.39452
2.4353
2.47596
2.51647
2.55684
2.59704
2.63701
2.67658
2.71576
2.75454
2.79288
2.83076
2.86814
2.90498
2.94125
2.97691
3.01193
3.04629
3.07994
3.11287
3.14503
3.17639
3.20692
3.23659
3.26537
3.29323
3.32013
3.34607
3.37103
3.39498
3.41793
3.43985
3.46073
3.48056
3.49932
3.517
3.53358
3.54904
3.5634
3.57663
3.58874
3.59971
3.60956
3.61824
3.62576
3.6321
3.63723
3.64113
3.64379
3.64516
3.6452
3.64389
3.64116
3.63698
3.63126
3.62403
3.61524
3.60489
3.59301
3.5797
3.56504
3.54911
3.53192
3.51336
3.49346
3.47266
3.45184
3.43178
3.41279
3.39483
3.37784
3.36185
3.34666
3.33172
3.31641
3.3002
3.28276
3.26388
3.24347
3.22149
3.19799
3.17305
3.14679
3.11935
3.09091
3.06171
3.03205
3.00238
2.97324
2.94546
2.91942
2.89573
0.308458
0.283125
0.273601
0.26918
0.268117
0.26947
0.27265
0.27728
0.283116
0.289988
0.297767
0.306351
0.31565
0.325588
0.336097
0.347118
0.358602
0.37051
0.382812
0.395484
0.40851
0.421881
0.43559
0.449637
0.464022
0.47875
0.493825
0.509256
0.525051
0.54122
0.557774
0.574726
0.592089
0.609878
0.628108
0.646796
0.66596
0.685619
0.705791
0.726496
0.747755
0.769588
0.792016
0.81506
0.838738
0.863072
0.888082
0.913785
0.9402
0.967346
0.995237
1.02389
1.05332
1.08353
1.11454
1.14635
1.17897
1.2124
1.24664
1.28168
1.31751
1.35413
1.39152
1.42966
1.46852
1.50809
1.54833
1.5892
1.63069
1.67274
1.71533
1.7584
1.80192
1.84586
1.89016
1.93479
1.9797
2.02486
2.07021
2.11571
2.16132
2.20697
2.25263
2.29828
2.34387
2.38938
2.43479
2.48009
2.52526
2.57028
2.61514
2.65983
2.70433
2.74862
2.79244
2.83582
2.87874
2.92118
2.9631
3.00446
3.04521
3.08531
3.12472
3.16341
3.20134
3.23848
3.27479
3.31023
3.34478
3.37839
3.41104
3.44267
3.47326
3.50277
3.53116
3.55843
3.58454
3.60949
3.63327
3.65586
3.67725
3.69743
3.71638
3.73409
3.75053
3.7657
3.77961
3.79224
3.80361
3.81372
3.82257
3.83014
3.83643
3.84144
3.84516
3.84759
3.84871
3.8485
3.84694
3.84403
3.83973
3.83402
3.82688
3.8183
3.80829
3.79686
3.78405
3.76994
3.75461
3.73808
3.7203
3.70114
3.68053
3.65874
3.63639
3.61403
3.59198
3.5703
3.54909
3.52849
3.50848
3.48875
3.46881
3.44824
3.42674
3.4041
3.38023
3.35508
3.32869
3.30111
3.27245
3.24284
3.21243
3.18145
3.15018
3.11901
3.08843
3.05909
3.03118
3.00505
0.318044
0.286135
0.274218
0.268546
0.266736
0.267543
0.270232
0.274365
0.279669
0.28597
0.293143
0.301092
0.309738
0.319014
0.328859
0.339223
0.350061
0.36134
0.373032
0.385118
0.397585
0.410424
0.423634
0.437215
0.45117
0.465507
0.480233
0.49536
0.510899
0.526864
0.543269
0.56013
0.577465
0.595291
0.613628
0.632497
0.651918
0.671915
0.692511
0.713728
0.735591
0.758124
0.781351
0.805295
0.82998
0.855427
0.88166
0.908699
0.936566
0.965279
0.994856
1.02531
1.05667
1.08893
1.12211
1.15622
1.19126
1.22723
1.26414
1.30197
1.34072
1.38038
1.42092
1.46232
1.50456
1.54762
1.59145
1.63603
1.68132
1.72727
1.77384
1.82098
1.86866
1.91682
1.96541
2.0144
2.06372
2.11332
2.16316
2.21317
2.26328
2.31344
2.3636
2.41372
2.46377
2.51371
2.56353
2.61321
2.66272
2.71206
2.7612
2.81015
2.85887
2.9071
2.95481
3.00202
3.04869
3.0948
3.14029
3.1851
3.22918
3.2725
3.315
3.35666
3.39741
3.43724
3.47611
3.51398
3.5508
3.58656
3.6212
3.65468
3.68697
3.71801
3.74776
3.77622
3.80337
3.82918
3.85366
3.8768
3.89858
3.91899
3.93803
3.95567
3.97187
3.98665
4.00001
4.01196
4.0225
4.03165
4.03942
4.04581
4.05078
4.05437
4.05658
4.05741
4.05688
4.05496
4.05167
4.04699
4.04094
4.03349
4.02465
4.01442
4.00282
3.98988
3.97565
3.9602
3.94358
3.9258
3.90679
3.8864
3.86454
3.84135
3.81724
3.79263
3.76777
3.74282
3.71793
3.69331
3.66906
3.645
3.62082
3.5962
3.57088
3.54467
3.51747
3.48925
3.46001
3.4298
3.39872
3.36687
3.33439
3.3015
3.26845
3.23559
3.20333
3.17221
3.14224
3.11364
0.328002
0.288778
0.274301
0.267378
0.264862
0.265166
0.267405
0.271075
0.275879
0.281639
0.288237
0.295585
0.303617
0.312273
0.321504
0.331264
0.341517
0.352232
0.363386
0.374962
0.38695
0.399343
0.412141
0.425346
0.438964
0.453003
0.467476
0.482394
0.497772
0.513627
0.529975
0.546837
0.564231
0.58218
0.600706
0.619832
0.639585
0.659989
0.681071
0.702859
0.725379
0.74866
0.772729
0.797613
0.823338
0.84993
0.877415
0.905817
0.93516
0.965466
0.996754
1.02904
1.06235
1.09669
1.13207
1.16851
1.20601
1.24456
1.28418
1.32486
1.36657
1.40931
1.45305
1.49777
1.54345
1.59004
1.63752
1.68586
1.73501
1.78491
1.83554
1.88683
1.93873
1.99121
2.04419
2.09762
2.15144
2.20559
2.26002
2.31463
2.36936
2.42412
2.47886
2.53353
2.5881
2.64253
2.69681
2.7509
2.8048
2.85849
2.91195
2.96517
3.01786
3.06995
3.12148
3.17243
3.22276
3.27242
3.32133
3.36944
3.4167
3.46304
3.50843
3.55282
3.59617
3.63845
3.67962
3.71964
3.75848
3.79609
3.83244
3.86749
3.9012
3.93348
3.96431
3.99367
4.02155
4.04794
4.07284
4.09624
4.11812
4.1385
4.15737
4.17469
4.19041
4.20455
4.21713
4.22816
4.23765
4.24563
4.2521
4.25707
4.26055
4.26255
4.26308
4.26216
4.2598
4.25601
4.25079
4.24416
4.23614
4.22672
4.21592
4.20376
4.19026
4.17547
4.15944
4.14222
4.12385
4.10435
4.08364
4.06159
4.0381
4.01325
3.98727
3.96047
3.93308
3.90527
3.8772
3.84911
3.82116
3.79328
3.7653
3.73699
3.70815
3.67862
3.64831
3.6172
3.58526
3.55254
3.51912
3.48508
3.45057
3.41576
3.38089
3.34628
3.31228
3.2793
3.24725
3.21626
0.338309
0.291068
0.273883
0.26571
0.262517
0.262345
0.264154
0.267375
0.271693
0.276927
0.282967
0.289739
0.297183
0.305254
0.313909
0.32311
0.332826
0.34303
0.353701
0.364826
0.376395
0.388403
0.400851
0.413743
0.427086
0.440891
0.45517
0.469939
0.485214
0.501015
0.517362
0.534277
0.551783
0.569903
0.588665
0.608095
0.628222
0.649074
0.670682
0.693077
0.71629
0.740353
0.765298
0.791157
0.817959
0.845736
0.874517
0.904331
0.935205
0.967163
1.00023
1.03442
1.06977
1.10627
1.14395
1.18282
1.22288
1.26413
1.30658
1.35022
1.39503
1.44098
1.48805
1.53621
1.58542
1.63566
1.68689
1.73908
1.79216
1.84611
1.90086
1.95637
2.01259
2.06946
2.1269
2.18487
2.24327
2.30205
2.36113
2.42042
2.4798
2.53919
2.59853
2.65777
2.71686
2.77578
2.8345
2.89299
2.95124
3.00923
3.06694
3.12402
3.18045
3.23622
3.29133
3.34576
3.39947
3.45239
3.50443
3.5555
3.60555
3.65453
3.70241
3.74912
3.79464
3.83892
3.88193
3.92365
3.96402
4.00302
4.0406
4.07674
4.11144
4.14448
4.17589
4.20568
4.23383
4.26033
4.28519
4.30839
4.32994
4.34984
4.36807
4.38462
4.39946
4.4126
4.42406
4.43385
4.44198
4.44848
4.45337
4.45666
4.45838
4.45853
4.45714
4.45423
4.44981
4.44391
4.43654
4.42773
4.41751
4.40588
4.39288
4.37854
4.36288
4.34596
4.32782
4.30851
4.28808
4.26653
4.2438
4.21981
4.19445
4.16776
4.13987
4.111
4.08132
4.05099
4.0202
3.98916
3.95804
3.92686
3.89555
3.86396
3.83197
3.79945
3.76633
3.73258
3.69819
3.66317
3.6276
3.59154
3.55513
3.51853
3.48195
3.44568
3.41
3.37525
3.34125
3.30808
0.348992
0.293064
0.273044
0.263622
0.259768
0.259128
0.260505
0.263274
0.267104
0.271817
0.277311
0.283523
0.290406
0.297923
0.30604
0.314724
0.323948
0.333689
0.343928
0.354652
0.365852
0.377527
0.389676
0.402305
0.415422
0.429039
0.44317
0.457835
0.473052
0.488845
0.505236
0.522252
0.539917
0.558261
0.577313
0.597103
0.617664
0.639027
0.661228
0.684301
0.708282
0.733209
0.759117
0.786044
0.814027
0.843103
0.873306
0.904671
0.937226
0.971001
1.00602
1.04231
1.07989
1.11878
1.15898
1.20051
1.24337
1.28757
1.3331
1.37996
1.42811
1.47753
1.52817
1.57999
1.63294
1.687
1.74213
1.79829
1.85543
1.9135
1.97246
2.03226
2.09285
2.15417
2.21614
2.27867
2.34169
2.4051
2.46883
2.53276
2.59675
2.66071
2.72458
2.7883
2.85183
2.91512
2.97816
3.04091
3.10338
3.16543
3.22672
3.28727
3.34706
3.40609
3.46433
3.52175
3.57831
3.634
3.68863
3.74206
3.79429
3.84529
3.895
3.94338
3.99039
4.03601
4.08019
4.12291
4.16413
4.20381
4.24191
4.27841
4.31325
4.34635
4.3777
4.40728
4.43507
4.46108
4.4853
4.50774
4.5284
4.54727
4.56434
4.57962
4.59309
4.60476
4.61464
4.62275
4.6291
4.63373
4.63667
4.63792
4.63753
4.63551
4.63189
4.62669
4.61994
4.61167
4.6019
4.59067
4.57801
4.56395
4.54853
4.53178
4.51375
4.49448
4.47402
4.45242
4.4297
4.40589
4.38097
4.35487
4.32751
4.29889
4.26909
4.23825
4.20651
4.174
4.14088
4.10735
4.07357
4.0396
4.00544
3.97103
3.9363
3.90118
3.86561
3.82957
3.79303
3.75602
3.71857
3.68076
3.6427
3.60453
3.56645
3.52872
3.49158
3.45528
3.41958
3.38454
0.360159
0.294876
0.271909
0.261237
0.256723
0.255602
0.256527
0.258824
0.262153
0.266342
0.271299
0.276971
0.283323
0.290324
0.297946
0.306161
0.314944
0.324273
0.334132
0.344508
0.355394
0.366788
0.378691
0.391112
0.404059
0.417545
0.431586
0.446204
0.461425
0.477276
0.493786
0.510983
0.528899
0.547567
0.567021
0.587296
0.608429
0.630455
0.653413
0.677342
0.702284
0.728281
0.755376
0.783612
0.813034
0.843688
0.875616
0.908856
0.943437
0.97939
1.01674
1.05553
1.09575
1.13745
1.18061
1.22526
1.27137
1.31896
1.36803
1.41854
1.47049
1.52381
1.57841
1.63424
1.69126
1.7494
1.80864
1.86893
1.93024
1.99252
2.05573
2.11985
2.18481
2.25056
2.31699
2.38403
2.45156
2.51948
2.58768
2.65611
2.72447
2.79278
2.86095
2.92893
2.99664
3.06404
3.1311
3.1978
3.26379
3.32894
3.39322
3.45662
3.51912
3.58068
3.64128
3.70088
3.75942
3.81683
3.87302
3.92789
3.9814
4.03349
4.08412
4.13326
4.18086
4.2269
4.27134
4.31416
4.35532
4.3948
4.43255
4.46852
4.5027
4.53502
4.56547
4.59402
4.62067
4.64542
4.66826
4.68922
4.70828
4.72545
4.74074
4.75413
4.76563
4.77525
4.783
4.7889
4.79298
4.79527
4.79581
4.79462
4.79173
4.78718
4.78098
4.77318
4.7638
4.75289
4.74046
4.72658
4.71127
4.69459
4.67655
4.65723
4.63665
4.61488
4.59196
4.56795
4.54284
4.51669
4.4895
4.46122
4.43182
4.40126
4.3696
4.33691
4.3033
4.26889
4.23381
4.19821
4.16224
4.12597
4.08946
4.05271
4.01572
3.97844
3.94084
3.9029
3.8646
3.82596
3.78698
3.74774
3.70834
3.66893
3.62968
3.5908
3.55249
3.51496
3.47792
3.44141
0.372043
0.296676
0.270657
0.258724
0.25353
0.251893
0.252326
0.254117
0.256926
0.260587
0.265021
0.270185
0.276048
0.282585
0.28977
0.297578
0.305986
0.314972
0.324521
0.334619
0.345262
0.35645
0.368189
0.380487
0.39336
0.406823
0.420895
0.435592
0.450947
0.467001
0.483791
0.501354
0.519726
0.538949
0.559062
0.580107
0.602126
0.625161
0.649253
0.674447
0.700793
0.728343
0.757145
0.787232
0.818662
0.851494
0.885786
0.921583
0.958889
0.99773
1.03814
1.08015
1.12378
1.16904
1.21593
1.26445
1.31458
1.3663
1.41959
1.47442
1.5308
1.58864
1.64769
1.70797
1.76943
1.83199
1.89558
1.96013
2.02568
2.0922
2.15967
2.22805
2.29726
2.36721
2.43782
2.50899
2.58059
2.65247
2.72447
2.79655
2.86869
2.94084
3.01283
3.08449
3.1558
3.22671
3.29688
3.36609
3.43434
3.5016
3.56783
3.633
3.69706
3.75999
3.82176
3.88231
3.94158
3.99951
4.05602
4.11105
4.16454
4.21645
4.26675
4.31539
4.36235
4.40759
4.4511
4.49285
4.53281
4.57095
4.60723
4.64161
4.67407
4.70458
4.73313
4.75968
4.78425
4.80684
4.82745
4.84609
4.86277
4.8775
4.89027
4.90109
4.90997
4.91692
4.92197
4.92513
4.92644
4.92594
4.92365
4.91963
4.91389
4.90648
4.89743
4.88677
4.87455
4.8608
4.84556
4.82889
4.81083
4.79142
4.77072
4.74878
4.72564
4.70137
4.676
4.64959
4.62212
4.59367
4.56425
4.53385
4.50244
4.47
4.43656
4.40217
4.36689
4.33083
4.29409
4.25681
4.21911
4.18104
4.1427
4.10415
4.06541
4.02646
3.98729
3.94789
3.90826
3.86839
3.82829
3.78803
3.7477
3.70744
3.6674
3.62775
3.58866
3.55031
3.51236
3.47483
0.385591
0.298793
0.269493
0.256236
0.250295
0.24806
0.247922
0.249146
0.251396
0.254521
0.258448
0.26314
0.268568
0.274709
0.281535
0.289021
0.297146
0.305888
0.315233
0.325171
0.335699
0.346824
0.358556
0.370914
0.383921
0.397602
0.411985
0.427097
0.442963
0.459611
0.477096
0.495479
0.514812
0.535145
0.556528
0.579014
0.602655
0.627505
0.653595
0.680974
0.709722
0.739947
0.771598
0.804619
0.839138
0.875247
0.913038
0.952648
0.993879
1.03677
1.08138
1.12774
1.17588
1.22579
1.27747
1.3309
1.38602
1.44279
1.5011
1.56083
1.62199
1.68452
1.7483
1.81329
1.87939
1.9465
2.01449
2.08332
2.15311
2.2238
2.29536
2.3677
2.44075
2.51443
2.58862
2.66321
2.73809
2.81314
2.88831
2.96359
3.03891
3.11407
3.18893
3.26314
3.33642
3.40858
3.47966
3.54962
3.61844
3.68608
3.75251
3.81767
3.88153
3.94405
4.00519
4.06491
4.12313
4.1798
4.23487
4.2883
4.34004
4.39007
4.43837
4.48489
4.52963
4.57253
4.6136
4.65281
4.69014
4.72554
4.759
4.79047
4.81995
4.84742
4.87287
4.89629
4.9177
4.93708
4.95447
4.96986
4.98328
4.99471
5.00417
5.01167
5.01722
5.02085
5.02258
5.02243
5.02045
5.01668
5.01116
5.00392
4.995
4.98444
4.97227
4.95855
4.9433
4.92657
4.90842
4.8889
4.86806
4.84596
4.82263
4.79814
4.77253
4.74587
4.71819
4.68955
4.65999
4.62953
4.59819
4.56599
4.53291
4.49894
4.46409
4.4284
4.39192
4.35472
4.31688
4.27852
4.23973
4.20045
4.16088
4.1211
4.08115
4.04105
4.00081
3.96043
3.91993
3.87931
3.83855
3.79774
3.75696
3.71632
3.67594
3.63597
3.59655
3.55783
3.51947
3.48144
0.400183
0.301427
0.268956
0.2544
0.247651
0.244733
0.243955
0.24458
0.246288
0.248933
0.252445
0.256785
0.261921
0.267823
0.274463
0.281815
0.28986
0.298584
0.307979
0.318042
0.328778
0.340204
0.352339
0.365219
0.378886
0.393387
0.408757
0.425037
0.442282
0.460591
0.479877
0.500081
0.52143
0.544012
0.567882
0.593104
0.619757
0.647964
0.677642
0.70878
0.741476
0.775785
0.811693
0.849236
0.888475
0.929464
0.972256
1.01688
1.06332
1.11155
1.16159
1.21344
1.26711
1.32257
1.37982
1.43879
1.49944
1.56163
1.6252
1.68996
1.75603
1.82327
1.89141
1.96052
2.03058
2.10154
2.17339
2.24614
2.31969
2.39397
2.4689
2.5444
2.62036
2.69669
2.77328
2.85
2.92673
3.00332
3.0797
3.15617
3.23229
3.30753
3.38148
3.45425
3.52587
3.59628
3.66548
3.73344
3.80013
3.86552
3.92956
3.9922
4.05338
4.11306
4.17119
4.22772
4.28261
4.33582
4.38733
4.43711
4.48515
4.53143
4.57594
4.61864
4.65951
4.69853
4.73566
4.7709