/*--------------------------------*- C++ -*----------------------------------*\
| =========                 |                                                 |
| \\      /  F ield         | OpenFOAM: The Open Source CFD Toolbox           |
|  \\    /   O peration     | Version:  2112                                  |
|   \\  /    A nd           | Website:  www.openfoam.com                      |
|    \\/     M anipulation  |                                                 |
\*---------------------------------------------------------------------------*/
FoamFile
{
    version     2.0;
    format      ascii;
    arch        "LSB;label=32;scalar=64";
    class       volScalarField;
    location    "0.27";
    object      p;
}
// * * * * * * * * * * * * * * * * * * * * * * * * * * * * * * * * * * * * * //

dimensions      [0 2 -2 0 0 0 0];

internalField   nonuniform List<scalar> 
12225
(
0.942238
0.059752
-0.381551
-0.638954
-0.92526
-1.20732
-1.42761
-1.58552
-1.70835
-1.8365
-1.98282
-2.14787
-2.32561
-2.50509
-2.67818
-2.81002
-2.94838
-2.43754
0.639948
0.0430425
-0.309042
-0.515357
-0.740046
-0.963801
-1.14077
-1.27553
-1.40176
-1.53902
-1.69845
-1.87855
-2.07104
-2.2643
-2.45235
-2.61788
-2.81416
-3.10547
0.394261
0.0226603
-0.32248
-0.560145
-0.797308
-1.03212
-1.22761
-1.38274
-1.51908
-1.65245
-1.79591
-1.95216
-2.11737
-2.28461
-2.45097
-2.61171
-2.82282
-3.16065
0.189724
-0.0472207
-0.369748
-0.604391
-0.824741
-1.04232
-1.22856
-1.3803
-1.51542
-1.65024
-1.79625
-1.95575
-2.12516
-2.29869
-2.4746
-2.65531
-2.87833
-3.18583
0.00288551
-0.160061
-0.437306
-0.653032
-0.855929
-1.05874
-1.23852
-1.39119
-1.53088
-1.67095
-1.8197
-1.97904
-2.14664
-2.31898
-2.49642
-2.68391
-2.90485
-3.1817
-0.152602
-0.276273
-0.51669
-0.71606
-0.904541
-1.09421
-1.26714
-1.41923
-1.56116
-1.70304
-1.85118
-2.00767
-2.17159
-2.34124
-2.51786
-2.70612
-2.91999
-3.17019
-0.289237
-0.373663
-0.590583
-0.783062
-0.961903
-1.14077
-1.30596
-1.4556
-1.5981
-1.74091
-1.88878
-2.04367
-2.20538
-2.3732
-2.54849
-2.73487
-2.9401
-3.16758
-0.416528
-0.463472
-0.652896
-0.838288
-1.01341
-1.18662
-1.34724
-1.49647
-1.64019
-1.78413
-1.93222
-2.08617
-2.24613
-2.41184
-2.5845
-2.76629
-2.96072
-3.16665
-0.534838
-0.556094
-0.714126
-0.884909
-1.05287
-1.2205
-1.38024
-1.53156
-1.67747
-1.82293
-1.97138
-2.12424
-2.28191
-2.44428
-2.61198
-2.78569
-2.96669
-3.15206
-0.643996
-0.649351
-0.78
-0.933348
-1.08888
-1.24731
-1.40286
-1.55239
-1.69824
-1.84411
-1.99199
-2.14274
-2.29676
-2.45411
-2.61488
-2.7793
-2.94744
-3.11578
-0.744507
-0.741191
-0.848152
-0.984995
-1.12843
-1.27637
-1.42366
-1.56765
-1.7105
-1.8543
-1.9998
-2.14738
-2.2972
-2.44916
-2.60316
-2.75926
-2.91659
-3.0713
-0.827203
-0.823976
-0.911091
-1.03317
-1.16664
-1.30593
-1.44597
-1.58472
-1.72354
-1.8638
-2.00595
-2.15
-2.29576
-2.44288
-2.59097
-2.73952
-2.88727
-3.03056
-0.897317
-0.900262
-0.972082
-1.08016
-1.20428
-1.33585
-1.4696
-1.60356
-1.73829
-1.87463
-2.01281
-2.15262
-2.29366
-2.43536
-2.57707
-2.71789
-2.85641
-2.98942
-0.967656
-0.975076
-1.03724
-1.13194
-1.246
-1.36934
-1.4963
-1.62485
-1.75489
-1.88662
-2.01991
-2.15437
-2.28945
-2.42444
-2.55853
-2.69066
-2.81943
-2.9422
-1.03894
-1.04691
-1.10128
-1.1857
-1.28996
-1.40502
-1.52482
-1.64725
-1.77181
-1.89812
-2.02568
-2.15388
-2.28205
-2.40939
-2.53501
-2.65784
-2.77668
-2.88946
-1.10625
-1.11404
-1.16006
-1.23619
-1.33184
-1.43947
-1.55238
-1.66835
-1.78674
-1.90687
-2.02791
-2.14909
-2.26961
-2.38866
-2.50534
-2.61873
-2.72783
-2.83116
-1.16255
-1.17026
-1.20909
-1.27714
-1.36566
-1.46702
-1.57391
-1.68367
-1.79566
-1.90914
-2.02314
-2.13678
-2.24925
-2.35976
-2.46753
-2.57178
-2.67178
-2.76653
-1.19717
-1.20474
-1.23944
-1.30105
-1.38368
-1.47982
-1.58192
-1.68637
-1.79242
-1.89942
-2.00644
-2.11259
-2.21714
-2.31941
-2.41875
-2.51458
-2.6064
-2.69359
-1.19355
-1.20095
-1.23436
-1.29373
-1.37363
-1.46676
-1.56568
-1.66632
-1.76775
-1.86934
-1.97027
-2.06978
-2.16729
-2.26232
-2.35444
-2.44324
-2.52842
-2.60963
-1.14074
-1.14831
-1.18476
-1.24835
-1.33101
-1.42554
-1.52474
-1.62498
-1.7251
-1.8243
-1.92192
-2.0175
-2.11069
-2.20114
-2.28861
-2.37283
-2.45365
-2.53086
-1.06655
-1.07429
-1.11673
-1.187
-1.27485
-1.37342
-1.47575
-1.57859
-1.68037
-1.77998
-1.87687
-1.97111
-2.0626
-2.15103
-2.23626
-2.31825
-2.39696
-2.4723
-0.97494
-0.982535
-1.03273
-1.11231
-1.20897
-1.31468
-1.42339
-1.53193
-1.63826
-1.7407
-1.83852
-1.93201
-2.02175
-2.1079
-2.19054
-2.26988
-2.34608
-2.41916
-0.868737
-0.873767
-0.936796
-1.03261
-1.14192
-1.2578
-1.37494
-1.48901
-1.59815
-1.70121
-1.79806
-1.88945
-1.97597
-2.05783
-2.13567
-2.21033
-2.28227
-2.35165
-0.743724
-0.751382
-0.839035
-0.953771
-1.0733
-1.19699
-1.32082
-1.43924
-1.54991
-1.65212
-1.74652
-1.83432
-1.91636
-1.9936
-2.06732
-2.13867
-2.20831
-2.27665
-0.600452
-0.623532
-0.738958
-0.866666
-0.991632
-1.12177
-1.25287
-1.37797
-1.4935
-1.59846
-1.69344
-1.77999
-1.85965
-1.93403
-2.00483
-2.07353
-2.14102
-2.20743
-0.441748
-0.482766
-0.628095
-0.769383
-0.902042
-1.0431
-1.18593
-1.32075
-1.44345
-1.55314
-1.6504
-1.73708
-1.81581
-1.88939
-1.96028
-2.03041
-2.10104
-2.17359
-0.255085
-0.330014
-0.520156
-0.680528
-0.827394
-0.984847
-1.14218
-1.28686
-1.41485
-1.52549
-1.61944
-1.69913
-1.7684
-1.83118
-1.89145
-1.95284
-2.01723
-2.08426
-0.035533
-0.21761
-0.443939
-0.607452
-0.768334
-0.947572
-1.12572
-1.28858
-1.43278
-1.5576
-1.66328
-1.75249
-1.82952
-1.89735
-1.95932
-2.01985
-2.0829
-2.15319
0.236311
-0.175879
-0.431936
-0.564132
-0.709224
-0.881265
-1.04922
-1.19764
-1.32411
-1.42822
-1.51098
-1.57719
-1.63546
-1.69168
-1.74896
-1.81115
-1.87996
-1.9553
0.581789
-0.0985463
-0.437779
-0.59727
-0.781343
-1.00078
-1.21595
-1.40899
-1.57631
-1.7158
-1.82693
-1.91311
-1.97954
-2.03559
-2.09057
-2.14752
-2.20872
-2.26812
-4.65188
-4.66824
-4.67333
-4.67521
-4.6774
-4.67993
-4.68255
-4.68529
-4.68833
-4.69185
-4.69563
-4.69899
-4.70182
-4.70474
-4.7081
-4.71189
-4.71609
-4.7207
-4.72572
-4.73118
-4.73707
-4.74341
-4.7502
-4.75745
-4.76516
-4.77335
-4.78202
-4.79117
-4.80081
-4.81094
-4.82157
-4.83271
-4.84435
-4.85648
-4.86912
-4.88225
-4.89586
-4.90994
-4.92448
-4.93946
-4.95485
-4.97064
-4.98678
-5.00324
-5.01998
-5.03696
-5.05411
-5.07138
-5.08871
-5.10603
-5.12326
-5.14031
-5.1571
-5.17354
-5.18951
-5.20493
-5.21967
-5.23362
-5.24667
-5.25867
-5.26952
-5.27907
-5.28718
-5.29373
-5.29858
-5.30157
-5.30257
-5.30144
-5.29802
-5.29217
-5.28375
-5.27262
-5.25862
-5.24161
-5.22145
-5.19801
-5.17114
-5.1407
-5.10658
-5.06865
-5.02677
-4.98084
-4.93073
-4.87635
-4.81757
-4.75429
-4.68642
-4.61385
-4.53648
-4.45422
-4.36699
-4.27468
-4.17723
-4.07454
-3.96655
-3.8532
-3.7345
-3.6105
-3.48113
-3.34612
-3.20536
-3.05894
-2.90689
-2.74921
-2.58591
-2.41701
-2.24253
-2.0625
-1.87699
-1.68605
-1.48975
-1.28818
-1.08144
-0.869617
-0.652846
-0.431251
-0.204972
0.0258415
0.261028
0.500415
0.743822
0.991057
1.24192
1.49619
1.75366
2.0141
2.27726
2.54291
2.8108
3.08066
3.35225
3.62528
3.89948
4.17459
4.45031
4.72638
5.00252
5.27843
5.55386
5.82851
6.10212
6.37439
6.64505
6.91378
7.18026
7.44407
7.70473
7.96156
8.21365
8.46028
8.70046
8.92427
9.11744
9.3024
9.50645
9.71977
9.93631
10.1657
10.4163
10.6488
10.849
11.0416
11.2286
11.4096
11.5846
11.754
11.9179
12.0765
12.2296
12.3776
12.5203
12.6578
12.7903
12.9176
13.0399
13.1572
13.2704
13.3785
13.498
13.6017
-4.62369
-4.64535
-4.64943
-4.64939
-4.64994
-4.65098
-4.65211
-4.6533
-4.65457
-4.65587
-4.65711
-4.65858
-4.66075
-4.66369
-4.66719
-4.67111
-4.67541
-4.68006
-4.6851
-4.6905
-4.6963
-4.70248
-4.70906
-4.71606
-4.72348
-4.73133
-4.73962
-4.74836
-4.75757
-4.76725
-4.77741
-4.78805
-4.79917
-4.81079
-4.8229
-4.8355
-4.84858
-4.86214
-4.87617
-4.89065
-4.90556
-4.92088
-4.93659
-4.95265
-4.96902
-4.98566
-5.00253
-5.01956
-5.0367
-5.05388
-5.07103
-5.08806
-5.10489
-5.12142
-5.13756
-5.1532
-5.16824
-5.18255
-5.19601
-5.20849
-5.21988
-5.23003
-5.23881
-5.24608
-5.25169
-5.25551
-5.25739
-5.25719
-5.25475
-5.24994
-5.2426
-5.23259
-5.21977
-5.20398
-5.18509
-5.16296
-5.13743
-5.10839
-5.07569
-5.0392
-4.99881
-4.95438
-4.90582
-4.853
-4.79582
-4.73418
-4.66797
-4.5971
-4.52148
-4.44101
-4.35561
-4.26519
-4.16968
-4.06899
-3.96307
-3.85185
-3.73526
-3.61319
-3.4856
-3.35255
-3.21407
-3.07006
-2.9205
-2.76537
-2.60469
-2.43846
-2.26672
-2.0895
-1.90686
-1.71885
-1.52555
-1.32705
-1.12344
-0.914834
-0.701353
-0.48313
-0.260308
-0.0330422
0.198501
0.434143
0.673698
0.916965
1.16374
1.41379
1.6669
1.92282
2.18131
2.44211
2.70496
2.96959
3.23573
3.50308
3.77137
4.0403
4.30959
4.57895
4.84808
5.1167
5.38453
5.65129
5.9167
6.1805
6.4424
6.70213
6.95937
7.21378
7.46498
7.71255
7.95602
8.19531
8.43293
8.67516
8.91863
9.14918
9.36652
9.58323
9.79961
10.014
10.2135
10.4087
10.6125
10.8166
11.0156
11.2086
11.3954
11.5762
11.751
11.9198
12.0828
12.2398
12.3911
12.5367
12.6767
12.8113
12.9408
13.0655
13.1873
13.3053
13.4427
13.5481
-4.62101
-4.65155
-4.65836
-4.65811
-4.6586
-4.65981
-4.66111
-4.66244
-4.66385
-4.66538
-4.66704
-4.66887
-4.67101
-4.67356
-4.67652
-4.67989
-4.68368
-4.68787
-4.69248
-4.6975
-4.70293
-4.70879
-4.71507
-4.72179
-4.72895
-4.73656
-4.74463
-4.75317
-4.76218
-4.77167
-4.78166
-4.79213
-4.8031
-4.81457
-4.82654
-4.839
-4.85195
-4.86539
-4.8793
-4.89366
-4.90846
-4.92367
-4.93927
-4.95523
-4.97149
-4.98803
-5.00479
-5.02172
-5.03876
-5.05583
-5.07287
-5.08979
-5.1065
-5.12292
-5.13894
-5.15446
-5.16937
-5.18355
-5.19688
-5.20923
-5.22048
-5.2305
-5.23914
-5.24627
-5.25175
-5.25545
-5.2572
-5.25688
-5.25434
-5.24943
-5.24201
-5.23193
-5.21905
-5.20323
-5.18431
-5.16217
-5.13665
-5.10764
-5.07498
-5.03857
-4.99827
-4.95397
-4.90555
-4.85291
-4.79594
-4.73454
-4.66861
-4.59805
-4.52277
-4.44268
-4.3577
-4.26774
-4.17272
-4.07257
-3.96721
-3.85659
-3.74064
-3.61929
-3.49248
-3.36023
-3.22254
-3.07935
-2.93064
-2.77641
-2.61666
-2.4514
-2.28066
-2.10448
-1.9229
-1.73599
-1.54382
-1.34649
-1.14408
-0.936699
-0.724479
-0.507547
-0.286047
-0.0601345
0.170026
0.404258
0.642372
0.884172
1.12945
1.37798
1.62954
1.88389
2.14078
2.39996
2.66117
2.92414
3.1886
3.45426
3.72085
3.98809
4.25568
4.52335
4.79082
5.05782
5.32407
5.58933
5.85333
6.11586
6.37667
6.63555
6.8923
7.14672
7.39868
7.64813
7.89521
8.14056
8.38672
8.63822
8.88971
9.12507
9.34648
9.56386
9.7782
9.98711
10.18
10.3644
10.5577
10.7541
10.9482
11.1384
11.3242
11.505
11.6805
11.8506
12.0153
12.1743
12.3278
12.4757
12.6182
12.7553
12.8875
13.0151
13.1404
13.2616
13.4019
13.4976
-4.61671
-4.65174
-4.66059
-4.65981
-4.65982
-4.66084
-4.66203
-4.66324
-4.66457
-4.66608
-4.66781
-4.66981
-4.67213
-4.67482
-4.6779
-4.68138
-4.68525
-4.68954
-4.69423
-4.69933
-4.70484
-4.71078
-4.71714
-4.72394
-4.73118
-4.73887
-4.74702
-4.75564
-4.76474
-4.77432
-4.78439
-4.79495
-4.80602
-4.81758
-4.82964
-4.84221
-4.85526
-4.8688
-4.88281
-4.89728
-4.91218
-4.9275
-4.9432
-4.95925
-4.97562
-4.99226
-5.00911
-5.02612
-5.04324
-5.06038
-5.07749
-5.09446
-5.11122
-5.12768
-5.14372
-5.15925
-5.17416
-5.18832
-5.20163
-5.21394
-5.22514
-5.2351
-5.24367
-5.25072
-5.25612
-5.25972
-5.26139
-5.26098
-5.25835
-5.25335
-5.24585
-5.2357
-5.22276
-5.20688
-5.18793
-5.16576
-5.14024
-5.11122
-5.0786
-5.04222
-5.00199
-4.95777
-4.90946
-4.85695
-4.80015
-4.73894
-4.67323
-4.60294
-4.52796
-4.4482
-4.36358
-4.27402
-4.17942
-4.07972
-3.97484
-3.86471
-3.74928
-3.62848
-3.50228
-3.37065
-3.23357
-3.091
-2.94293
-2.78933
-2.63022
-2.4656
-2.2955
-2.11995
-1.93901
-1.75272
-1.56116
-1.36441
-1.16257
-0.955745
-0.744046
-0.527605
-0.30656
-0.0810618
0.148729
0.382642
0.620493
0.862092
1.10723
1.35571
1.60729
1.86175
2.11885
2.37834
2.63998
2.90349
3.16862
3.4351
3.70265
3.97099
4.23986
4.50897
4.77804
5.0468
5.31499
5.58234
5.84858
6.11346
6.37674
6.63819
6.89755
7.15465
7.40932
7.66151
7.91132
8.15915
8.40613
8.65361
8.89756
9.12954
9.35163
9.56893
9.78185
9.9892
10.1856
10.3743
10.5655
10.7572
10.9465
11.1325
11.3143
11.4916
11.6641
11.8315
11.9939
12.151
12.303
12.4497
12.5912
12.7277
12.8595
12.9869
13.1118
13.2316
13.3667
13.4522
-4.61635
-4.65215
-4.66299
-4.66267
-4.66284
-4.664
-4.66528
-4.66654
-4.66789
-4.66941
-4.67115
-4.67318
-4.67553
-4.67824
-4.68133
-4.68481
-4.6887
-4.69299
-4.69769
-4.7028
-4.70834
-4.71429
-4.72068
-4.72751
-4.73478
-4.74251
-4.7507
-4.75936
-4.76851
-4.77814
-4.78826
-4.79889
-4.81002
-4.82165
-4.83378
-4.84642
-4.85955
-4.87317
-4.88726
-4.90181
-4.91679
-4.93219
-4.94797
-4.9641
-4.98054
-4.99724
-5.01416
-5.03123
-5.04839
-5.06558
-5.08271
-5.09971
-5.11648
-5.13293
-5.14896
-5.16446
-5.17933
-5.19344
-5.20667
-5.21891
-5.23001
-5.23986
-5.24833
-5.25526
-5.26054
-5.26402
-5.26557
-5.26504
-5.26229
-5.2572
-5.24961
-5.23939
-5.22639
-5.21048
-5.19151
-5.16934
-5.14384
-5.11487
-5.08231
-5.04602
-5.00589
-4.96181
-4.91366
-4.86135
-4.80478
-4.74383
-4.67843
-4.60847
-4.53386
-4.45451
-4.37034
-4.28125
-4.18717
-4.088
-3.98367
-3.87411
-3.75928
-3.63912
-3.51356
-3.38258
-3.24615
-3.10422
-2.95678
-2.80382
-2.64534
-2.48135
-2.31186
-2.13691
-1.95655
-1.77083
-1.57981
-1.38358
-1.18223
-0.975854
-0.764574
-0.54851
-0.3278
-0.102587
0.126971
0.360709
0.598448
0.840002
1.08517
1.33375
1.58552
1.84026
2.09774
2.3577
2.61992
2.88412
3.15006
3.41746
3.68607
3.95559
4.22576
4.4963
4.76692
5.03735
5.30731
5.57651
5.84467
6.11153
6.3768
6.64023
6.90155
7.16051
7.41696
7.67074
7.92185
8.17042
8.41675
8.66092
8.9003
9.13054
9.35287
9.57
9.78202
9.98832
10.1862
10.3777
10.5685
10.7578
10.9444
11.1274
11.3063
11.4808
11.6506
11.8157
11.9759
12.1312
12.2815
12.4268
12.5672
12.7027
12.8336
12.9601
13.084
13.2016
13.3315
13.4071
-4.61802
-4.65309
-4.66528
-4.66582
-4.66651
-4.66803
-4.66956
-4.671
-4.67246
-4.67406
-4.67588
-4.67797
-4.68039
-4.68316
-4.6863
-4.68984
-4.69378
-4.69812
-4.70287
-4.70804
-4.71363
-4.71964
-4.72609
-4.73298
-4.74032
-4.74811
-4.75638
-4.76512
-4.77434
-4.78405
-4.79427
-4.80498
-4.8162
-4.82793
-4.84016
-4.85289
-4.86612
-4.87984
-4.89403
-4.90867
-4.92375
-4.93924
-4.95511
-4.97132
-4.98783
-5.0046
-5.02158
-5.0387
-5.05591
-5.07313
-5.09028
-5.10728
-5.12404
-5.14047
-5.15646
-5.17191
-5.1867
-5.20073
-5.21386
-5.22599
-5.23697
-5.24669
-5.25502
-5.26181
-5.26694
-5.27027
-5.27168
-5.27101
-5.26814
-5.26294
-5.25526
-5.24496
-5.23191
-5.21596
-5.19697
-5.17481
-5.14933
-5.1204
-5.0879
-5.05169
-5.01167
-4.96772
-4.91973
-4.86761
-4.81125
-4.75055
-4.68543
-4.61579
-4.54153
-4.46257
-4.37881
-4.29016
-4.19653
-4.09784
-3.99401
-3.88497
-3.77068
-3.65105
-3.52603
-3.39558
-3.25965
-3.11822
-2.97128
-2.81881
-2.6608
-2.49726
-2.32822
-2.1537
-1.97374
-1.7884
-1.59775
-1.40185
-1.20081
-0.99471
-0.783673
-0.567819
-0.34728
-0.122197
0.107275
0.340974
0.578725
0.820344
1.06564
1.3144
1.56642
1.82147
2.07932
2.33974
2.60248
2.86729
3.1339
3.40207
3.67151
3.94196
4.21312
4.48472
4.75647
5.02808
5.29927
5.56973
5.83917
6.10729
6.37382
6.63848
6.90096
7.16104
7.41849
7.67317
7.92496
8.17381
8.41967
8.66221
8.89958
9.12918
9.35166
9.56861
9.78005
9.98553
10.1837
10.3761
10.5664
10.7543
10.939
11.1199
11.2968
11.4693
11.6373
11.8006
11.9592
12.1129
12.2619
12.406
12.5454
12.6799
12.81
12.9355
13.058
13.1732
13.2988
13.3649
-4.62171
-4.65544
-4.66838
-4.66987
-4.67123
-4.67321
-4.67508
-4.67675
-4.67838
-4.6801
-4.68202
-4.68419
-4.68668
-4.68951
-4.69272
-4.69632
-4.70032
-4.70473
-4.70955
-4.71478
-4.72044
-4.72652
-4.73304
-4.74
-4.74742
-4.75529
-4.76364
-4.77247
-4.78178
-4.79159
-4.8019
-4.81271
-4.82403
-4.83586
-4.8482
-4.86104
-4.87437
-4.8882
-4.90249
-4.91724
-4.93241
-4.948
-4.96396
-4.98025
-4.99685
-5.01369
-5.03073
-5.04791
-5.06516
-5.08241
-5.09958
-5.11659
-5.13335
-5.14976
-5.16572
-5.18112
-5.19586
-5.20981
-5.22286
-5.23489
-5.24576
-5.25537
-5.26357
-5.27024
-5.27524
-5.27845
-5.27974
-5.27897
-5.27601
-5.27072
-5.26298
-5.25264
-5.23956
-5.22361
-5.20464
-5.18251
-5.15708
-5.12821
-5.09577
-5.05965
-5.01972
-4.97589
-4.92805
-4.87609
-4.81992
-4.75945
-4.69457
-4.6252
-4.55124
-4.4726
-4.38918
-4.30089
-4.20764
-4.10934
-4.0059
-3.89727
-3.78338
-3.66414
-3.53948
-3.40938
-3.27379
-3.13268
-2.98605
-2.83386
-2.67613
-2.51285
-2.34405
-2.16975
-1.99
-1.80484
-1.61434
-1.41858
-1.21764
-1.01163
-0.800646
-0.584819
-0.364277
-0.13916
0.0903826
0.324188
0.562084
0.803888
1.04941
1.29844
1.55077
1.80618
2.06445
2.32532
2.58857
2.85394
3.12117
3.39
3.66015
3.93136
4.20332
4.47575
4.74837
5.02087
5.29296
5.56433
5.83468
6.10369
6.37108
6.63656
6.89983
7.16064
7.41877
7.67401
7.92622
8.17521
8.42073
8.66229
8.8985
9.1277
9.35023
9.56704
9.77812
9.98318
10.1816
10.3745
10.5644
10.7513
10.9347
11.1143
11.2897
11.4607
11.6272
11.7891
11.9464
12.099
12.2468
12.3899
12.5282
12.6619
12.791
12.9153
13.0363
13.1488
13.2706
13.3277
-4.62741
-4.65941
-4.67266
-4.67509
-4.67719
-4.67968
-4.68192
-4.68386
-4.68569
-4.68756
-4.68958
-4.69184
-4.6944
-4.6973
-4.70057
-4.70423
-4.70829
-4.71275
-4.71763
-4.72292
-4.72863
-4.73478
-4.74136
-4.74839
-4.75587
-4.76382
-4.77224
-4.78114
-4.79054
-4.80043
-4.81082
-4.82173
-4.83314
-4.84507
-4.85751
-4.87045
-4.88388
-4.8978
-4.91219
-4.92704
-4.94231
-4.95798
-4.97403
-4.99041
-5.00708
-5.024
-5.04111
-5.05834
-5.07564
-5.09294
-5.11015
-5.12718
-5.14395
-5.16037
-5.17632
-5.1917
-5.20641
-5.22032
-5.23331
-5.24528
-5.25608
-5.2656
-5.27372
-5.2803
-5.28523
-5.28836
-5.28957
-5.28873
-5.28572
-5.2804
-5.27263
-5.26229
-5.24924
-5.23332
-5.2144
-5.19233
-5.16696
-5.13816
-5.10579
-5.06975
-5.02991
-4.98618
-4.93845
-4.88663
-4.83062
-4.77032
-4.70564
-4.63649
-4.56276
-4.48437
-4.40122
-4.3132
-4.22024
-4.12222
-4.01907
-3.91072
-3.79708
-3.67806
-3.55361
-3.4237
-3.28828
-3.14733
-3.00083
-2.84876
-2.69114
-2.52795
-2.35921
-2.18496
-2.00524
-1.82009
-1.62959
-1.43381
-1.23283
-1.02675
-0.815694
-0.599766
-0.379101
-0.153837
0.0758764
0.309879
0.548
0.790056
1.03586
1.2852
1.53787
1.79365
2.05231
2.31362
2.57734
2.8432
3.11096
3.38035
3.6511
3.92291
4.19552
4.46861
4.74189
5.01506
5.28783
5.55987
5.83088
6.10053
6.36854
6.6346
6.89843
7.15976
7.41835
7.67398
7.92645
8.17549
8.42073
8.6616
8.89703
9.12593
9.34847
9.56521
9.77613
9.98106
10.1797
10.3732
10.563
10.7494
10.932
11.1106
11.285
11.4549
11.6204
11.7812
11.9375
12.089
12.2359
12.3781
12.5156
12.6483
12.7764
12.8995
13.0187
13.1286
13.2468
13.296
-4.63503
-4.66507
-4.67834
-4.68164
-4.68447
-4.6875
-4.69012
-4.69235
-4.69438
-4.69639
-4.69852
-4.70085
-4.70347
-4.70642
-4.70973
-4.71342
-4.71752
-4.72201
-4.72692
-4.73224
-4.73799
-4.74417
-4.75078
-4.75785
-4.76538
-4.77337
-4.78184
-4.7908
-4.80025
-4.81021
-4.82067
-4.83165
-4.84314
-4.85515
-4.86766
-4.88069
-4.89421
-4.90822
-4.9227
-4.93763
-4.95298
-4.96874
-4.98487
-5.00134
-5.01809
-5.03509
-5.05227
-5.06958
-5.08695
-5.10431
-5.12158
-5.13867
-5.15549
-5.17194
-5.18792
-5.20332
-5.21803
-5.23193
-5.24491
-5.25685
-5.26762
-5.27711
-5.28518
-5.29172
-5.29659
-5.29968
-5.30085
-5.29999
-5.29696
-5.29164
-5.28389
-5.27359
-5.26059
-5.24474
-5.22589
-5.2039
-5.1786
-5.14987
-5.11757
-5.08158
-5.04181
-4.99814
-4.9505
-4.89878
-4.84289
-4.78272
-4.71819
-4.64919
-4.57563
-4.49742
-4.41446
-4.32664
-4.23386
-4.13603
-4.03305
-3.92484
-3.81129
-3.69235
-3.56797
-3.43809
-3.3027
-3.16176
-3.01526
-2.86318
-2.70551
-2.54228
-2.37348
-2.19915
-2.01934
-1.83408
-1.64346
-1.44754
-1.24642
-1.04019
-0.828969
-0.612864
-0.392008
-0.166538
0.0633974
0.297638
0.536013
0.778339
1.02443
1.27407
1.52706
1.78318
2.0422
2.30389
2.56799
2.83427
3.10246
3.37229
3.6435
3.91579
4.18887
4.46245
4.73622
5.00988
5.28312
5.55564
5.8271
6.09721
6.36564
6.63209
6.8963
7.15799
7.4169
7.67279
7.92542
8.17444
8.41944
8.65982
8.89474
9.12345
9.34601
9.56274
9.77364
9.97862
10.1777
10.3716
10.5615
10.7477
10.9299
11.1079
11.2816
11.4508
11.6155
11.7756
11.9311
12.0819
12.2281
12.3695
12.5061
12.638
12.7651
12.8869
13.0044
13.1118
13.2269
13.2691
-4.64448
-4.67251
-4.68557
-4.68965
-4.69318
-4.6967
-4.69969
-4.70219
-4.7044
-4.70654
-4.70874
-4.71112
-4.71376
-4.71672
-4.72003
-4.72371
-4.72779
-4.73227
-4.73716
-4.74246
-4.7482
-4.75436
-4.76098
-4.76804
-4.77557
-4.78357
-4.79205
-4.80103
-4.81051
-4.82049
-4.831
-4.84202
-4.85356
-4.86563
-4.87821
-4.8913
-4.90489
-4.91897
-4.93353
-4.94853
-4.96397
-4.97981
-4.99602
-5.01257
-5.02941
-5.0465
-5.06378
-5.08119
-5.09866
-5.11611
-5.13347
-5.15064
-5.16754
-5.18407
-5.20012
-5.21557
-5.23033
-5.24427
-5.25727
-5.26921
-5.27998
-5.28946
-5.29751
-5.30403
-5.30888
-5.31194
-5.3131
-5.31222
-5.30919
-5.30389
-5.29618
-5.28594
-5.273
-5.25724
-5.23848
-5.21657
-5.19135
-5.16268
-5.13041
-5.09445
-5.0547
-5.01108
-4.96349
-4.91184
-4.85602
-4.79594
-4.73151
-4.66261
-4.58917
-4.51107
-4.42822
-4.34052
-4.24785
-4.15009
-4.04714
-3.93892
-3.82534
-3.70635
-3.5819
-3.45194
-3.31646
-3.17541
-3.02879
-2.87658
-2.71878
-2.55539
-2.38644
-2.21194
-2.03194
-1.8465
-1.65568
-1.45957
-1.25825
-1.05181
-0.840375
-0.624056
-0.402981
-0.177285
0.0528845
0.287367
0.525992
0.768575
1.01492
1.26484
1.51811
1.77451
2.03382
2.29581
2.56022
2.82682
3.09533
3.36549
3.63703
3.90965
4.18306
4.45698
4.73109
5.00507
5.27863
5.55144
5.8232
6.09359
6.36229
6.62899
6.89344
7.15535
7.41445
7.67051
7.9232
8.17216
8.41694
8.65696
8.89154
9.12013
9.34272
9.55949
9.77045
9.97559
10.175
10.3694
10.5596
10.7457
10.9277
11.1054
11.2787
11.4475
11.6117
11.7712
11.9262
12.0765
12.222
12.3628
12.4988
12.6299
12.756
12.8766
12.9925
13.0974
13.2097
13.246
-4.65569
-4.68176
-4.6945
-4.69923
-4.70337
-4.70733
-4.71064
-4.71335
-4.71571
-4.71791
-4.72013
-4.7225
-4.72509
-4.72799
-4.73123
-4.73484
-4.73883
-4.74322
-4.74803
-4.75325
-4.75891
-4.765
-4.77155
-4.77855
-4.78603
-4.79399
-4.80244
-4.81139
-4.82086
-4.83084
-4.84135
-4.85239
-4.86396
-4.87606
-4.88869
-4.90183
-4.91548
-4.92962
-4.94423
-4.95931
-4.97482
-4.99074
-5.00704
-5.02368
-5.04062
-5.05782
-5.07522
-5.09275
-5.11034
-5.12791
-5.14539
-5.16269
-5.1797
-5.19634
-5.21248
-5.22802
-5.24285
-5.25684
-5.26987
-5.28183
-5.29261
-5.30208
-5.31012
-5.31662
-5.32144
-5.32446
-5.32558
-5.32467
-5.32163
-5.31634
-5.30866
-5.29846
-5.2856
-5.26991
-5.25124
-5.22941
-5.20425
-5.17559
-5.14332
-5.10734
-5.06759
-5.02399
-4.97643
-4.92482
-4.86906
-4.80904
-4.74465
-4.67581
-4.60242
-4.52439
-4.44161
-4.35394
-4.26126
-4.16345
-4.0604
-3.95204
-3.83831
-3.71916
-3.59453
-3.46439
-3.32871
-3.18747
-3.04065
-2.88824
-2.73023
-2.56663
-2.39745
-2.22273
-2.0425
-1.85683
-1.66579
-1.46944
-1.2679
-1.06124
-0.849588
-0.633054
-0.411766
-0.185856
0.0445284
0.279228
0.518069
0.760869
1.00743
1.25756
1.51104
1.76766
2.02718
2.28937
2.554
2.82081
3.08955
3.35992
3.63167
3.9045
4.17812
4.45223
4.72653
5.0007
5.27443
5.5474
5.81932
6.08985
6.35868
6.62552
6.89009
7.1521
7.4113
7.66741
7.92009
8.16893
8.41348
8.6532
8.88752
9.11602
9.33863
9.55546
9.76652
9.97187
10.1717
10.3665
10.5569
10.7432
10.9251
11.1027
11.2757
11.4442
11.6081
11.7674
11.9219
12.0719
12.217
12.3574
12.4928
12.6231
12.7484
12.8678
12.982
13.0846
13.1944
13.2257
-4.66862
-4.69293
-4.70529
-4.71053
-4.71518
-4.71948
-4.723
-4.72584
-4.72823
-4.7304
-4.73254
-4.73479
-4.73725
-4.73999
-4.74306
-4.74649
-4.75031
-4.75453
-4.75916
-4.76422
-4.76972
-4.77567
-4.78208
-4.78897
-4.79633
-4.8042
-4.81257
-4.82145
-4.83087
-4.84081
-4.8513
-4.86234
-4.87391
-4.88603
-4.89868
-4.91186
-4.92555
-4.93975
-4.95442
-4.96956
-4.98514
-5.00113
-5.01752
-5.03426
-5.05132
-5.06865
-5.08618
-5.10385
-5.12158
-5.1393
-5.15692
-5.17435
-5.1915
-5.20825
-5.2245
-5.24013
-5.25502
-5.26904
-5.28208
-5.29403
-5.30477
-5.3142
-5.32218
-5.32861
-5.33335
-5.33628
-5.33728
-5.33628
-5.33317
-5.32784
-5.32015
-5.30997
-5.29713
-5.28149
-5.26288
-5.2411
-5.21597
-5.18729
-5.15494
-5.11891
-5.07915
-5.03556
-4.98804
-4.93649
-4.88078
-4.8208
-4.75645
-4.68764
-4.61428
-4.53628
-4.45349
-4.36575
-4.27293
-4.17493
-4.07167
-3.96308
-3.8491
-3.7297
-3.60482
-3.47443
-3.3385
-3.19701
-3.04995
-2.8973
-2.73905
-2.57521
-2.4058
-2.23083
-2.05036
-1.86446
-1.67319
-1.47663
-1.27488
-1.06803
-0.856191
-0.639482
-0.418024
-0.191948
0.0386023
0.273463
0.51246
0.755408
1.00212
1.25238
1.50599
1.76273
2.02237
2.28468
2.54942
2.81635
3.08519
3.35567
3.6275
3.90042
4.17412
4.4483
4.72266
4.99688
5.27066
5.54368
5.81562
6.08618
6.35503
6.62189
6.88647
7.14848
7.40766
7.66375
7.91635
8.16501
8.4093
8.64873
8.88282
9.11121
9.33383
9.55071
9.7619
9.96747
10.1676
10.3628
10.5536
10.74
10.922
11.0995
11.2724
11.4407
11.6045
11.7635
11.9178
12.0675
12.2124
12.3523
12.4872
12.617
12.7413
12.8596
12.9723
13.0728
13.1802
13.2075
-4.6833
-4.70615
-4.71814
-4.72377
-4.72877
-4.73327
-4.73686
-4.73966
-4.74193
-4.74391
-4.74582
-4.7478
-4.74997
-4.75241
-4.75518
-4.75831
-4.76184
-4.76578
-4.77014
-4.77495
-4.78021
-4.78594
-4.79215
-4.79885
-4.80606
-4.81378
-4.82202
-4.8308
-4.84013
-4.85001
-4.86045
-4.87146
-4.88302
-4.89515
-4.90782
-4.92103
-4.93476
-4.949
-4.96372
-4.97892
-4.99455
-5.01061
-5.02708
-5.04392
-5.0611
-5.07855
-5.09621
-5.11401
-5.13188
-5.14973
-5.16747
-5.18501
-5.20225
-5.21909
-5.2354
-5.25107
-5.26597
-5.27995
-5.29291
-5.30474
-5.31535
-5.32462
-5.33244
-5.33869
-5.34323
-5.34594
-5.3467
-5.34548
-5.34221
-5.33677
-5.32901
-5.31877
-5.30591
-5.29028
-5.27168
-5.24993
-5.22477
-5.19594
-5.16335
-5.12719
-5.08748
-5.04402
-4.99666
-4.94526
-4.88968
-4.8298
-4.76551
-4.69674
-4.62341
-4.54536
-4.46242
-4.37447
-4.2814
-4.18311
-4.07954
-3.97064
-3.85637
-3.73668
-3.61152
-3.48086
-3.34467
-3.20294
-3.05564
-2.90277
-2.74431
-2.58026
-2.41062
-2.23543
-2.05476
-1.86867
-1.67723
-1.48052
-1.27862
-1.07164
-0.859691
-0.64288
-0.421329
-0.195163
0.0354751
0.270416
0.509481
0.752484
0.999234
1.24953
1.50316
1.75991
2.01955
2.28187
2.54661
2.81353
3.08235
3.35281
3.62461
3.89749
4.17113
4.44525
4.71953
4.99368
5.26737
5.54031
5.81216
6.08262
6.35138
6.61814
6.88261
7.14451
7.40357
7.65959
7.91208
8.16049
8.40447
8.64359
8.87744
9.1057
9.32829
9.54523
9.75654
9.96233
10.1628
10.3584
10.5495
10.7362
10.9182
11.0957
11.2685
11.4368
11.6004
11.7593
11.9135
12.063
12.2077
12.3473
12.4818
12.6109
12.7344
12.8516
12.9628
13.0613
13.1664
13.1906
-4.69991
-4.72173
-4.73342
-4.7393
-4.74448
-4.74896
-4.75238
-4.75489
-4.75678
-4.75834
-4.75977
-4.76127
-4.76296
-4.76492
-4.76722
-4.76991
-4.77301
-4.77655
-4.78054
-4.785
-4.78995
-4.79538
-4.80133
-4.8078
-4.8148
-4.82234
-4.83042
-4.83907
-4.84828
-4.85806
-4.86844
-4.87941
-4.89096
-4.90307
-4.91575
-4.92897
-4.94273
-4.95699
-4.97175
-4.98697
-5.00263
-5.0187
-5.0352
-5.05209
-5.06932
-5.08682
-5.10453
-5.12238
-5.14027
-5.15814
-5.17588
-5.19341
-5.21063
-5.22742
-5.24366
-5.25924
-5.27399
-5.28779
-5.3005
-5.31204
-5.32236
-5.3313
-5.33878
-5.34468
-5.34885
-5.3511
-5.35131
-5.3496
-5.34604
-5.34041
-5.3325
-5.32216
-5.30923
-5.29354
-5.27493
-5.25317
-5.22795
-5.19879
-5.16563
-5.12918
-5.08965
-5.04654
-4.99953
-4.94843
-4.8931
-4.8334
-4.76921
-4.70044
-4.62697
-4.54867
-4.46545
-4.3772
-4.28381
-4.18516
-4.08122
-3.97197
-3.85737
-3.73739
-3.61196
-3.48106
-3.34464
-3.2027
-3.05521
-2.90217
-2.74356
-2.57935
-2.40955
-2.23421
-2.0534
-1.8672
-1.67568
-1.47891
-1.27698
-1.06999
-0.858044
-0.641257
-0.41974
-0.193609
0.036994
0.271888
0.510885
0.753799
1.00044
1.25061
1.50411
1.76071
2.02019
2.28234
2.54691
2.81366
3.08229
3.35255
3.62414
3.89678
4.17019
4.44405
4.71808
4.99196
5.26539
5.53805
5.80963
6.0798
6.34828
6.61475
6.87893
7.14053
7.39929
7.65507
7.90732
8.15539
8.39898
8.63774
8.87129
9.09937
9.32188
9.53882
9.75022
9.95621
10.157
10.3529
10.5445
10.7315
10.9136
11.0911
11.264
11.4322
11.5957
11.7546
11.9087
12.0582
12.2027
12.342
12.476
12.6046
12.7273
12.8434
12.9532
13.0498
13.1527
13.1747
-4.71884
-4.74021
-4.75176
-4.75773
-4.76282
-4.76696
-4.76985
-4.77167
-4.7728
-4.77356
-4.77419
-4.77491
-4.77585
-4.7771
-4.77875
-4.78082
-4.78336
-4.78638
-4.78991
-4.79394
-4.79849
-4.80357
-4.80921
-4.81542
-4.82219
-4.82953
-4.83743
-4.8459
-4.85496
-4.8646
-4.87487
-4.88575
-4.89722
-4.90927
-4.92188
-4.93504
-4.94874
-4.96296
-4.97768
-4.99286
-5.00849
-5.02453
-5.04098
-5.0578
-5.07492
-5.09229
-5.10983
-5.12748
-5.14515
-5.16279
-5.18029
-5.19756
-5.21451
-5.23102
-5.24697
-5.26222
-5.27661
-5.28996
-5.30207
-5.31301
-5.3228
-5.33122
-5.33817
-5.34358
-5.34721
-5.34865
-5.34766
-5.34484
-5.34056
-5.33439
-5.326
-5.31519
-5.3018
-5.28571
-5.26678
-5.24489
-5.21978
-5.19123
-5.15914
-5.12356
-5.08438
-5.04136
-4.9943
-4.94307
-4.88755
-4.82766
-4.76328
-4.69427
-4.62048
-4.54186
-4.45834
-4.3698
-4.27612
-4.17716
-4.0729
-3.96335
-3.84848
-3.72825
-3.60259
-3.47147
-3.33487
-3.19277
-3.04515
-2.89201
-2.73332
-2.56905
-2.39919
-2.22381
-2.043
-1.85682
-1.66534
-1.46862
-1.26677
-1.05987
-0.848041
-0.631392
-0.410032
-0.184069
0.0463519
0.281041
0.519809
0.762474
1.00885
1.25875
1.51195
1.76824
2.0274
2.28922
2.55345
2.81984
3.0881
3.35797
3.62916
3.90138
4.17436
4.44779
4.72137
4.9948
5.26779
5.53999
5.81111
6.08081
6.3488
6.61478
6.87845
7.13951
7.39765
7.65256
7.90392
8.15132
8.39434
8.63257
8.86566
9.09339
9.31563
9.53239
9.7437
9.94968
10.1505
10.3466
10.5384
10.7258
10.908
11.0855
11.2583
11.4265
11.5901
11.7489
11.903
12.0525
12.1971
12.3361
12.4698
12.5978
12.7198
12.8348
12.9432
13.0381
13.1388
13.1594
-4.74157
-4.7633
-4.77491
-4.78074
-4.78531
-4.78854
-4.79024
-4.79072
-4.79045
-4.78984
-4.78918
-4.7887
-4.78854
-4.7888
-4.78955
-4.79082
-4.79264
-4.79503
-4.79799
-4.80151
-4.80558
-4.81023
-4.81549
-4.82138
-4.82788
-4.83497
-4.84264
-4.85089
-4.85971
-4.86912
-4.87913
-4.88974
-4.90092
-4.91267
-4.92499
-4.93787
-4.9513
-4.96527
-4.97975
-4.99472
-5.01018
-5.02609
-5.04236
-5.05889
-5.07565
-5.0926
-5.10969
-5.12686
-5.14404
-5.16118
-5.17817
-5.19493
-5.21136
-5.22734
-5.24275
-5.25744
-5.27119
-5.28363
-5.29433
-5.30372
-5.31227
-5.31949
-5.32535
-5.33001
-5.33323
-5.33469
-5.33425
-5.33186
-5.32742
-5.32073
-5.31168
-5.30015
-5.28601
-5.26918
-5.24959
-5.22719
-5.2019
-5.17373
-5.14252
-5.10743
-5.06799
-5.02441
-4.97671
-4.92491
-4.86892
-4.80862
-4.7439
-4.67462
-4.60063
-4.52186
-4.4382
-4.34956
-4.25577
-4.15672
-4.05237
-3.94273
-3.82778
-3.70747
-3.58174
-3.45059
-3.31398
-3.1719
-3.02433
-2.87127
-2.71269
-2.54855
-2.37885
-2.20365
-2.02304
-1.83707
-1.64579