/*--------------------------------*- C++ -*----------------------------------*\
| =========                 |                                                 |
| \\      /  F ield         | OpenFOAM: The Open Source CFD Toolbox           |
|  \\    /   O peration     | Version:  2112                                  |
|   \\  /    A nd           | Website:  www.openfoam.com                      |
|    \\/     M anipulation  |                                                 |
\*---------------------------------------------------------------------------*/
FoamFile
{
    version     2.0;
    format      ascii;
    arch        "LSB;label=32;scalar=64";
    class       volScalarField;
    location    "0.24";
    object      omega;
}
// * * * * * * * * * * * * * * * * * * * * * * * * * * * * * * * * * * * * * //

dimensions      [0 0 -1 0 0 0 0];

internalField   nonuniform List<scalar> 
12225
(
22384
26132
29345.3
31293.4
32346.9
32514.9
32381.4
32041.4
31511.8
30930.9
30366
29807.5
29306.1
28826.7
28402
28030.5
27646.3
27433.3
949.078
2561.27
4158.01
5560.36
6736.54
7634.47
8282.52
8753.9
9074.04
9293.65
9434.56
9533.28
9585.48
9631.09
9638.61
9657.85
9639.38
9696.74
88.8888
248.488
400.278
626.589
875.998
1148.87
1378.61
1617.62
1800.89
1995.01
2131.26
2286.14
2383.28
2510.58
2580.53
2676.99
2723.92
2834.05
26.9329
60.6943
89.2055
131.669
172.574
228.281
271.934
330.197
371.32
427.541
463.782
515.469
546.241
592.865
617.06
657.662
681.832
720.676
20.6673
28.1763
39.1109
52.1255
63.2375
79.1501
91.1017
107.953
119.746
136.524
147.556
163.587
173.581
188.699
196.758
210.62
220.813
231.3
19.92
21.4049
24.99
31.1045
35.8808
42.0771
46.8643
53.3371
58.1491
64.5508
69.1341
75.3256
79.5265
85.4902
88.9967
94.6219
98.4995
103.342
19.8262
20.1004
20.9972
23.2869
25.6741
28.8678
31.4481
34.5029
36.8708
39.8343
42.1687
45.0535
47.1982
50.0102
51.8419
54.5845
56.2865
58.9071
19.8119
19.865
20.0585
20.6338
21.5164
23.0558
24.5074
26.2129
27.6943
29.3066
30.6247
32.1226
33.3439
34.8391
35.9068
37.3978
38.2863
39.8028
19.8084
19.8199
19.8617
19.9793
20.2151
20.7034
21.3107
22.1624
23.0523
24.0197
24.8782
25.8019
26.5662
27.4172
28.0643
28.9133
29.464
30.3471
19.8068
19.8089
19.8192
19.842
19.9024
20.0162
20.1922
20.49
20.8498
21.3266
21.8181
22.3886
22.8908
23.4386
23.8859
24.4024
24.7511
25.2742
19.8053
19.8048
19.8071
19.8121
19.8294
19.8554
19.8994
19.9813
20.0835
20.2478
20.4322
20.6854
20.9423
21.2572
21.547
21.8778
22.13
22.4595
19.8046
19.802
19.8022
19.8038
19.8097
19.8192
19.8337
19.8598
19.8896
19.9443
20.0038
20.0973
20.1966
20.3357
20.4741
20.6583
20.8186
21.0358
19.8041
19.8003
19.7986
19.799
19.8012
19.8056
19.8117
19.8226
19.8326
19.8515
19.8693
19.9003
19.9304
19.9791
20.0251
20.0986
20.1628
20.2695
19.8036
19.7988
19.7958
19.7948
19.7954
19.7973
19.8004
19.8062
19.8111
19.8192
19.8258
19.8367
19.8457
19.8609
19.8733
19.8949
19.9124
19.9439
19.8033
19.7975
19.7936
19.7912
19.7907
19.7912
19.7927
19.7957
19.7988
19.8031
19.807
19.812
19.8162
19.8218
19.8264
19.8329
19.838
19.8459
19.803
19.7965
19.7916
19.7886
19.7867
19.7864
19.7869
19.788
19.7899
19.7923
19.7948
19.7975
19.8001
19.8029
19.8053
19.8079
19.81
19.8126
19.8028
19.7958
19.7903
19.7864
19.7841
19.7827
19.7825
19.7828
19.7835
19.7847
19.7861
19.7877
19.7891
19.7906
19.7919
19.7931
19.794
19.7951
19.8028
19.7955
19.7895
19.7851
19.7822
19.7806
19.7796
19.7796
19.7797
19.7802
19.7809
19.7816
19.7824
19.7831
19.7837
19.7841
19.7845
19.7846
19.8028
19.7956
19.7896
19.7851
19.7821
19.7804
19.7794
19.779
19.7791
19.7793
19.7798
19.7803
19.7808
19.7813
19.7816
19.7819
19.7819
19.7818
19.8029
19.7961
19.7906
19.7867
19.7842
19.7828
19.7822
19.7823
19.7828
19.7837
19.7849
19.7862
19.7879
19.7896
19.7917
19.7937
19.7962
19.7983
19.8032
19.7971
19.7923
19.7895
19.7878
19.7878
19.7887
19.7907
19.7941
19.7988
19.8052
19.8128
19.823
19.8344
19.8492
19.8646
19.8833
19.9002
19.8035
19.7988
19.7953
19.7955
19.7979
19.8036
19.8149
19.8322
19.857
19.8887
19.9305
19.9798
20.041
20.1063
20.1808
20.2533
20.335
20.4082
19.8037
19.8029
19.807
19.82
19.853
19.9093
19.9991
20.1115
20.2588
20.4339
20.6346
20.8464
21.077
21.3028
21.5392
21.7638
22.0087
22.223
19.8069
19.8212
19.8765
20.0099
20.2706
20.619
21.0759
21.5613
22.1283
22.7054
23.3177
23.9039
24.5147
25.0929
25.706
26.2641
26.8741
27.3894
19.8188
19.9739
20.4448
21.3145
22.5696
23.8365
25.3438
26.7578
28.3503
29.7944
31.4013
32.8584
34.4557
35.8673
37.427
38.7554
40.2732
41.4838
19.9556
21.3004
24.2202
27.64
31.688
35.2954
39.7735
43.7342
48.5385
52.6186
57.4851
61.4906
66.2719
70.0817
74.6991
78.2359
82.6604
85.8746
21.7676
31.4727
43.2578
55.9856
69.7759
83.1973
100.803
116.352
135.781
151.435
171.008
185.88
204.823
218.501
236.411
248.75
265.471
276.474
46.1872
106.171
168.858
241.765
314.767
401.579
507.657
607.711
717.117
808.209
908.237
986.197
1074.32
1138.87
1215.3
1268.12
1334.23
1377.63
427.708
1119.06
1821.79
2553.59
3270.29
3920.95
4482.38
4954.31
5348.12
5655.15
5916.6
6109.94
6279.43
6394.4
6507.49
6571.44
6652.44
6682.63
13853.1
16186.9
18402.5
20305
21683.8
22648.5
23176.9
23488.2
23503.7
23448.1
23313.2
23097
22849.2
22589
22323.3
22063.3
21808.8
21566.6
5732.06
1258.81
1261.14
1263.74
1268.06
1276.88
1290.77
1308.83
1328.06
1349.98
1375.42
1400.87
1423.81
1443
1458.88
1472.1
1482.98
1491.91
1498.81
1504.29
1507.91
1511.08
1512.39
1513
1512.44
1509.97
1505.73
1499.54
1491.14
1480.08
1465.99
1448.43
1427.02
1401.66
1373.09
1344.82
1324.75
1318.72
1320.16
1324.37
1330.96
1341.45
1350.53
1353.69
1352.67
1349.39
1348.59
1347.58
1343.71
1340.36
1337.79
1336.12
1335.52
1336.24
1338.59
1346.26
1362.97
1445.48
1632.07
1758.86
1837.84
1915.19
1972.12
2028.32
2077.22
2125.82
2167.39
2206.89
2243.21
2277.32
2310.01
2340.79
2370.9
2399.56
2427.76
2454.96
2481.72
2507.82
2533.42
2558.62
2583.27
2607.64
2631.45
2655.03
2678.08
2700.87
2723.17
2745.17
2766.73
2787.92
2808.71
2829.08
2849.07
2868.61
2887.77
2906.45
2924.74
2942.55
2959.93
2976.83
2993.26
3009.22
3024.7
3039.71
3054.21
3068.24
3081.77
3094.82
3107.38
3119.47
3131.1
3142.3
3153.11
3163.61
3173.85
3183.74
3193.17
3202.27
3210.95
3219.27
3227.23
3234.82
3242.09
3248.99
3255.6
3261.86
3267.84
3273.51
3278.92
3283.98
3288.88
3293.52
3297.76
3301.62
3305.23
3308.59
3311.73
3314.68
3317.39
3319.84
3322.09
3324.11
3325.94
3327.6
3329.09
3330.43
3331.65
3332.74
3333.74
3334.67
3335.53
3336.34
3337.13
3337.92
3338.72
3339.55
3340.43
3341.39
3342.42
3343.56
3344.82
3346.21
3347.73
3349.39
3351.16
3353.04
3355.05
3357.18
3359.44
3361.9
3364.65
3367.89
3371.76
3376.26
3382.07
3389.71
3401.24
3416.25
3429.82
3440.32
5733.64
1077.43
566.31
515.387
518.322
504.515
472.126
436.338
403.421
374.632
350.069
329.733
312.078
298.014
287.351
279.555
274.62
271.254
270.874
271.52
276.018
287.082
305.832
330.497
360.157
394.077
432.155
474.593
521.421
572.46
627.11
683.783
739.622
790.447
831.062
855.27
851.604
819.179
727.816
585.075
538.853
543.98
492.608
320.528
265.414
260.037
270.372
288.981
300.085
308.168
321.536
375.493
483.667
732.755
1049.29
1174.42
1211.5
1236.3
1242.44
1177.43
1123.33
1062.27
1004.51
959.824
914.614
884.48
852.059
831.936
810.366
796.793
782.979
773.616
764.903
758.226
752.607
747.661
743.841
740.019
737.193
734.124
731.803
729.251
727.168
724.957
722.988
720.987
719.082
717.205
715.348
713.55
711.745
710.022
708.337
706.691
705.089
703.534
702.029
700.578
699.183
697.847
696.573
695.364
694.22
693.133
692.082
691.12
690.261
689.524
688.928
688.505
688.289
688.39
689.087
690.122
692.031
693.827
695.613
697.452
699.206
701.042
702.799
704.62
706.39
708.198
709.978
711.778
713.567
715.364
717.157
718.953
720.749
722.541
724.331
726.126
727.929
729.739
731.56
733.387
735.212
737.023
738.853
740.71
742.584
744.487
746.414
748.37
750.355
752.372
754.42
756.503
758.619
760.771
762.958
765.18
767.438
769.731
772.056
774.412
776.797
779.207
781.637
784.085
786.542
789.004
791.462
793.911
796.343
798.754
801.144
803.514
805.868
808.203
810.504
812.735
814.826
816.591
817.73
817.878
817.528
821.365
5734.14
1153.43
766.794
717.784
614.816
524.821
447.967
381.755
329.685
290.275
258.811
234.173
217.601
206.093
197.582
190.944
185.59
181.075
177.292
173.922
171.637
169.849
170.123
171.47
174.544
180.214
188.728
200.804
217.273
239.173
267.691
303.959
348.234
399.248
454.816
510.224
557.809
587.557
582.993
541.318
465.138
381.91
308.367
242.208
225.398
231.385
258.616
296.477
340.733
394.447
521.772
681.255
790.336
873.804
912.104
897.012
838.813
789.621
714.211
658.477
600.813
561.683
521.492
500.245
475.43
463.162
448.795
441.548
432.796
428.434
423.319
420.058
417.234
414.733
413.04
411.197
410.043
408.692
407.833
406.817
406.142
405.367
404.803
404.211
403.73
403.271
402.868
402.512
402.191
401.929
401.709
401.526
401.377
401.257
401.162
401.104
401.083
401.126
401.214
401.35
401.523
401.746
402.013
402.33
402.698
403.124
403.611
404.164
404.788
405.491
406.279
407.161
408.137
409.193
410.295
411.379
412.491
413.611
414.739
415.891
417.043
418.222
419.403
420.606
421.816
423.045
424.283
425.537
426.804
428.084
429.378
430.686
432.01
433.351
434.71
436.086
437.481
438.894
440.326
441.778
443.256
444.759
446.286
447.839
449.418
451.024
452.655
454.314
455.999
457.711
459.449
461.213
463.002
464.816
466.653
468.511
470.39
472.288
474.202
476.13
478.069
480.018
481.972
483.931
485.891
487.851
489.808
491.759
493.701
495.632
497.55
499.444
501.294
503.058
504.663
505.978
506.84
507.188
507.401
510.132
5734.15
1477.87
1064.01
808.775
628.22
477.147
363.869
285.816
237.855
209.099
192.506
182.525
176.152
171.712
168.292
165.384
162.76
160.22
157.719
155.269
152.906
150.714
148.727
147.318
146.284
146.495
147.459
149.698
154.14
161.271
172.068
187.913
210.278
240.812
279.744
325.443
374.99
422.493
457.609
465.876
442.077
384.152
314.627
266.499
262.913
304.905
410.103
510.048
587.126
640.101
666.177
707.125
727.474
722.379
642.246
611.02
549.376
502.972
458.973
422.332
394.472
373.389
357.338
347.133
337.615
332.511
327.118
324.384
321.288
319.707
318.067
317
316.226
315.547
315.176
314.852
314.685
314.591
314.551
314.548
314.66
314.785
314.98
315.195
315.457
315.748
316.071
316.426
316.807
317.221
317.659
318.126
318.619
319.139
319.687
320.264
320.868
321.502
322.162
322.851
323.565
324.307
325.077
325.874
326.699
327.553
328.436
329.348
330.29
331.261
332.26
333.286
334.335
335.404
336.48
337.565
338.661
339.767
340.883
342.01
343.147
344.296
345.455
346.626
347.807
349.001
350.206
351.424
352.654
353.898
355.155
356.427
357.714
359.018
360.338
361.676
363.032
364.408
365.803
367.219
368.658
370.119
371.604
373.113
374.646
376.204
377.787
379.396
381.031
382.692
384.38
386.094
387.834
389.601
391.394
393.212
395.055
396.923
398.814
400.729
402.665
404.624
406.602
408.601
410.62
412.659
414.721
416.812
418.924
421.056
423.205
425.365
427.52
429.642
431.68
433.548
435.155
436.444
437.547
439.499
5732.89
1979.16
1187.04
792.096
507.923
327.661
234.322
192.064
171.401
160.806
155.664
153.533
152.42
151.607
150.812
149.913
148.891
147.767
146.521
145.113
143.568
141.999
140.425
139.115
138.008
137.175
137.154
137.475
138.469
140.66
144.748
151.425
161.889
177.843
201.085
232.618
270.856
313.877
356.331
387.496
395.473
376.22
328.823
300.83
319.215
427.894
549.012
590.117
602.261
612.759
616.355
607.803
548.92
502.334
459.814
427.38
389.941
357.899
337.305
315.837
304.973
293.857
288.099
282.779
279.593
277.243
275.514
274.572
273.825
273.485
273.326
273.289
273.416
273.658
273.994
274.387
274.848
275.351
275.9
276.488
277.118
277.773
278.464
279.18
279.924
280.693
281.487
282.305
283.146
284.01
284.896
285.804
286.732
287.682
288.653
289.643
290.653
291.681
292.726
293.788
294.867
295.961
297.07
298.194
299.331
300.483
301.647
302.823
304.012
305.211
306.421
307.641
308.869
310.105
311.344
312.589
313.838
315.093
316.352
317.617
318.886
320.161
321.441
322.728
324.02
325.32
326.628
327.944
329.269
330.604
331.951
333.309
334.681
336.066
337.466
338.882
340.314
341.764
343.232
344.719
346.227
347.757
349.309
350.884
352.483
354.107
355.758
357.436
359.141
360.876
362.641
364.436
366.264
368.123
370.016
371.942
373.902
375.898
377.929
379.996
382.1
384.242
386.422
388.64
390.897
393.193
395.523
397.881
400.283
402.729
405.218
407.746
410.302
412.866
415.4
417.842
420.127
422.169
423.961
425.619
5739.29
2220.12
1146.57
586.49
314.379
215.1
173.935
154.785
145.246
140.461
138.05
136.935
136.599
136.692
136.978
137.394
137.765
138.026
138.15
138.142
137.987
137.61
137.003
136.327
135.655
135.096
134.884
134.913
135.123
135.768
137.308
140.256
145.277
153.667
167.181
187.891
215.862
250.298
289
325.668
349.159
352.406
331.696
324.159
385.138
520.695
561.725
566.72
553.315
517.299
485.125
448.873
406.602
377.659
351.052
325.514
304.034
285.766
275.674
264.939
259.76
254.691
252.217
250.125
249.126
248.633
248.462
248.485
248.841
249.326
249.92
250.601
251.359
252.172
253.032
253.931
254.867
255.834
256.832
257.859
258.912
259.991
261.094
262.221
263.372
264.545
265.74
266.957
268.194
269.452
270.73
272.027
273.342
274.675
276.022
277.385
278.761
280.149
281.549
282.958
284.376
285.802
287.234
288.673
290.116
291.563
293.015
294.469
295.925
297.382
298.843
300.306
301.773
303.236
304.695
306.151
307.603
309.052
310.497
311.939
313.377
314.813
316.247
317.68
319.112
320.544
321.978
323.416
324.857
326.304
327.758
329.22
330.691
332.172
333.665
335.17
336.689
338.222
339.771
341.338
342.922
344.527
346.152
347.8
349.471
351.168
352.891
354.644
356.426
358.239
360.086
361.968
363.886
365.842
367.838
369.874
371.953
374.075
376.243
378.458
380.721
383.035
385.401
387.821
390.296
392.83
395.426
398.093
400.828
403.631
406.502
409.44
412.437
415.48
418.543
421.577
424.538
427.323
429.884
431.518
5782.77
2213.5
845.27
363.851
222.012
171.568
149.94
139.603
134.402
131.741
130.46
130.037
130.122
130.481
131.175
132.021
132.914
133.756
134.496
135.09
135.463
135.596
135.523
135.245
134.915
134.633
134.505
134.503
134.596
134.973
135.914
137.555
140.299
145.026
153.199
166.885
187.402
214.712
247.763
283.646
314.968
326.563
325.356
338.714
443.302
526.141
537.944
507.061
444.191
405.949
382.81
351.332
324.358
304.843
285.365
268.925
257.202
247.302
241.822
236.599
234.074
232.137
231.305
230.989
230.981
231.467
232.151
233.006
234.01
235.091
236.237
237.432
238.667
239.934
241.229
242.551
243.898
245.27
246.667
248.087
249.532
251
252.493
254.009
255.548
257.111
258.698
260.305
261.933
263.581
265.248
266.934
268.639
270.363
272.098
273.845
275.602
277.366
279.137
280.912
282.691
284.471
286.252
288.031
289.806
291.577
293.34
295.101
296.858
298.61
300.357
302.098
303.83
305.551
307.261
308.959
310.646
312.321
313.983
315.634
317.273
318.901
320.519
322.126
323.725
325.317
326.904
328.487
330.067
331.648
333.229
334.813
336.401
337.995
339.595
341.202
342.819
344.446
346.085
347.737
349.404
351.088
352.79
354.511
356.256
358.024
359.819
361.642
363.497
365.385
367.309
369.272
371.275
373.322
375.414
377.554
379.744
381.988
384.286
386.643
389.061
391.542
394.09
396.708
399.399
402.166
405.014
407.946
410.964
414.069
417.264
420.548
423.914
427.357
430.855
434.368
437.875
441.257
444.587
446.464
5854.67
1818.84
548.649
263.433
184.069
153.917
140.406
133.973
130.8
129.189
128.434
128.217
128.332
128.727
129.36
130.132
130.995
131.895
132.774
133.574
134.276
134.791
135.07
135.129
135.052
134.942
134.872
134.846
134.903
135.215
136.015
137.411
139.583
143.038
148.769
158.365
173.477
195.007
222.938
255.634
285.2
298.001
306.49
361.934
472.636
504.72
488.405
412.92
359.298
335.614
315.955
291.986
273.663
259.495
245.973
236.473
229.843
224.423
221.322
219.099
218.116
217.74
217.727
218.29
219.151
220.278
221.56
222.961
224.449
225.991
227.575
229.19
230.831
232.493
234.178
235.885
237.614
239.368
241.147
242.951
244.782
246.639
248.523
250.433
252.369
254.333
256.331
258.352
260.394
262.458
264.54
266.636
268.738
270.84
272.963
275.101
277.252
279.413
281.582
283.757
285.935
288.114
290.294
292.471
294.642
296.805
298.96
301.102
303.227
305.335
307.423
309.49
311.537
313.564
315.572
317.558
319.523
321.465
323.384
325.281
327.156
329.008
330.839
332.65
334.441
336.215
337.975
339.721
341.457
343.184
344.905
346.621
348.334
350.044
351.754
353.465
355.178
356.895
358.617
360.346
362.083
363.831
365.592
367.368
369.162
370.976
372.813
374.676
376.569
378.495
380.456
382.457
384.5
386.588
388.725
390.915
393.16
395.464
397.831
400.263
402.766
405.342
407.995
410.731
413.551
416.461
419.465
422.566
425.768
429.073
432.483
435.999
439.616
443.328
447.125
450.959
454.846
458.617
462.603
464.763
5903.17
1366.72
406.549
222.408
168.916
146.963
137.163
132.576
130.165
128.918
128.333
128.164
128.304
128.719
129.339
130.108
130.982
131.922
132.893
133.846
134.668
135.319
135.802
136.156
136.413
136.569
136.622
136.602
136.567
136.63
136.995
137.975
139.936
143.268
148.746
157.352
169.871
186.961
209.204
234.862
258.106
275.083
310.564
395.544
468.264
474.708
417.398
335.802
304.286
288.208
271.474
253.257
240.497
230.675
221.862
216.192
212.375
209.466
208.002
207.336
207.177
207.486
208.301
209.458
210.863
212.453
214.172
215.983
217.86
219.782
221.738
223.721
225.727
227.755
229.807
231.883
233.987
236.121
238.285
240.482
242.71
244.974
247.277
249.606
251.961
254.333
256.706
259.116
261.56
264.038
266.549
269.092
271.674
274.292
276.925
279.571
282.226
284.886
287.548
290.207
292.861
295.506
298.138
300.757
303.362
305.952
308.524
311.073
313.597
316.094
318.564
321.005
323.416
325.798
328.148
330.467
332.752
335.001
337.215
339.393
341.536
343.643
345.716
347.754
349.76
351.736
353.685
355.61
357.513
359.398
361.266
363.12
364.96
366.789
368.608
370.419
372.222
374.019
375.812
377.602
379.391
381.182
382.977
384.779
386.59
388.415
390.256
392.117
394.002
395.915
397.86
399.841
401.863
403.929
406.043
408.211
410.435
412.72
415.072
417.493
419.99
422.566
425.227
427.978
430.822
433.766
436.813
439.968
443.235
446.618
450.117
453.736
457.471
461.312
465.264
469.258
473.373
477.321
481.798
484.17
5923.09
1070.4
344.257
207.12
163.301
144.808
136.546
132.753
131.009
130.11
129.653
129.489
129.615
130.035
130.662
131.451
132.359
133.336
134.331
135.292
136.204
137.025
137.734
138.317
138.766
139.093
139.264
139.275
139.155
139.02
139.017
139.557
141.263
144.551
149.956
158.359
170.413
186.133
204.462
224.87
246.831
275.6
332.749
428.731
454.428
431.521
338.001
287.024
267.032
254.939
240.446
226.931
218.207
211.614
206.005
202.487
200.321
199.107
198.651
198.59
199.073
200.015
201.327
202.905
204.693
206.635
208.694
210.837
213.043
215.295
217.586
219.908
222.261
224.645
227.06
229.51
231.998
234.526
237.098
239.718
242.368
245.039
247.714
250.442
253.219
256.051
258.956
261.916
264.916
267.955
271.029
274.135
277.265
280.418
283.589
286.774
289.968
293.167
296.365
299.557
302.738
305.905
309.053
312.18
315.285
318.365
321.417
324.436
327.419
330.366
333.273
336.14
338.966
341.749
344.489
347.183
349.829
352.424
354.968
357.46
359.902
362.293
364.632
366.922
369.163
371.358
373.512
375.628
377.71
379.76
381.782
383.778
385.749
387.696
389.622
391.528
393.413
395.281
397.132
398.968
400.791
402.602
404.406
406.204
408
409.798
411.602
413.416
415.245
417.092
418.965
420.866
422.802
424.777
426.796
428.864
430.987
433.169
435.416
437.733
440.127
442.602
445.166
447.824
450.581
453.443
456.416
459.505
462.714
466.049
469.51
473.1
476.82
480.652
484.623
488.625
492.834
496.773
501.563
504.019
5927.42
934.235
322.899
203.062
161.939
144.747
137.941
135.134
133.694
132.729
132.127
131.867
131.858
132.196
132.746
133.457
134.289
135.206
136.172
137.151
138.106
139.015
139.827
140.505
141.028
141.376
141.539
141.579
141.618
141.684
141.951
142.772
144.57
147.985
153.492
161.676
173.104
187.805
205.443
225.741
251.077
294.773
386.417
424.139
424.967
358.163
281.453
253.779
240.994
230.447
218.372
208.747
202.703
198.289
194.769
192.712
191.727
191.374
191.365
191.896
192.877
194.231
195.885
197.774
199.851
202.075
204.413
206.842
209.342
211.902
214.514
217.173
219.879
222.633
225.435
228.287
231.2
234.16
237.151
240.15
243.216
246.358
249.592
252.91
256.296
259.745
263.25
266.798
270.394
274.035
277.716
281.433
285.179
288.952
292.745
296.554
300.373
304.195
308.014
311.824
315.618
319.389
323.131
326.841
330.517
334.155
337.753
341.304
344.806
348.256
351.652
354.994
358.279
361.506
364.674
367.78
370.82
373.792
376.693
379.525
382.288
384.982
387.607
390.163
392.652
395.078
397.445
399.759
402.023
404.243
406.42
408.558
410.658
412.721
414.749
416.742
418.702
420.629
422.524
424.39
426.227
428.038
429.825
431.591
433.34
435.077
436.804
438.529
440.254
441.986
443.731
445.494
447.281
449.098
450.951
452.845
454.786
456.781
458.836
460.957
463.152
465.427
467.789
470.247
472.805
475.472
478.254
481.157
484.186
487.348
490.643
494.076
497.651
501.339
505.201
509.062
513.243
517.008
521.944
524.32
5919.57
890.646
317.483
204.427
164.736
148.108
141.507
138.538
136.875
135.679
134.879
134.467
134.326
134.509
134.953
135.581
136.345
137.209
138.149
139.14
140.152
141.16
142.146
143.115
144.01
144.818
145.55
146.243
146.964
147.871
149.125
150.982
153.765
158.014
164.187
172.67
184.032
198.782
217.983
244.92
290.675
361.789
400.243
407.283
366.492
282.323
246.548
230.912
221.773
212.056
202.74
195.884
191.588
188.602
186.48
185.493
185.167
185.17
185.666
186.608
187.927
189.564
191.467
193.593
195.904
198.367
200.957
203.655
206.448
209.326
212.283
215.316
218.423
221.615
224.874
228.182
231.505
234.887
238.361
241.952
245.652
249.475
253.406
257.405
261.475
265.614
269.818
274.077
278.389
282.749
287.15
291.587
296.053
300.543
305.053
309.577
314.109
318.642
323.171
327.685
332.177
336.637
341.054
345.422
349.736
353.995
358.194
362.328
366.393
370.387
374.309
378.157
381.929
385.622
389.236
392.769
396.217
399.574
402.839
406.013
409.098
412.095
415.003
417.821
420.552
423.201
425.773
428.275
430.712
433.09
435.411
437.679
439.895
442.059
444.174
446.24
448.256
450.224
452.145
454.018
455.846
457.631
459.374
461.079
462.748
464.387
466.001
467.594
469.171
470.739
472.305
473.874
475.453
477.049
478.668
480.318
482.003
483.732
485.512
487.349
489.253
491.231
493.292
495.445
497.698
500.059
502.535
505.135
507.863
510.728
513.733
516.878
520.18
523.587
527.211
530.785
534.808
538.246
543.161
545.286
5903.24
860.731
322.854
216.006
172.74
153.269
145.629
142.201
140.258
138.849
137.859
137.323
137.111
137.114
137.486
138.083
138.871
139.813
140.91
142.175
143.6
145.171
146.889
148.763
150.839
153.179
155.859
158.962
162.567
167.067
172.682
179.496
187.692
197.661
209.239
222.177
237.615
257.072
282.897
316.806
353.453
375.489
383.714
358.439
285.848
243.465
225.021
215.301
206.956
198.808
191.796
186.787
183.617
181.544
180.39
179.967
179.926
180.307
181.133
182.345
183.892
185.735
187.838
190.172
192.707
195.417
198.28
201.285
204.425
207.709
211.123
214.644
218.255
221.907
225.625
229.449
233.408
237.504
241.745
246.14
250.675
255.344
260.118
264.988
269.943
274.973
280.067
285.216
290.411
295.643
300.903
306.184
311.479
316.783
322.094
327.409
332.723
338.033
343.333
348.615
353.87
359.083
364.235
369.313
374.31
379.222
384.044
388.775
393.411
397.951
402.394
406.739
410.982
415.121
419.155
423.084
426.904
430.611
434.202
437.679
441.045
444.302
447.449
450.486
453.417
456.246
458.981
461.631
464.201
466.698
469.124
471.484
473.778
476.007
478.173
480.274
482.311
484.284
486.193
488.038
489.82
491.541
493.203
494.807
496.357
497.857
499.313
500.73
502.113
503.468
504.803
506.124
507.438
508.754
510.077
511.415
512.775
514.164
515.591
517.063
518.59
520.181
521.845
523.595
525.438
527.386
529.444
531.627
533.934
536.38
538.966
541.693
544.59
547.577
550.827
553.967
557.684
560.651
565.362
567.074
5885.08
844.293
335.991
231.918
183.554
159.657
150.774
146.768
144.371
142.645
141.529
140.956
140.731
140.718
141.165
141.933
143.06
144.526
146.362
148.611
151.359
154.719
158.84
163.953
170.565
179.449
191.602
208.109
223.317
238.758
253.17
265.422
275.715
284.283
291.436
298.664
306.846
316.749
328.835
341.769
352.569
357.155
332.441
285.827
243.972
222.994
212.436
204.164
196.554
189.782
184.278
180.363
177.861
176.408
175.769
175.618
175.83
176.488
177.555
178.987
180.751
182.827
185.213
187.861
190.742
193.835
197.122
200.589
204.218
207.957
211.821
215.863
220.089
224.511
229.122
233.919
238.916
244.109
249.487
255.042
260.76
266.596
272.543
278.605
284.75
290.953
297.196
303.463
309.739
316.01
322.264
328.492
334.686
340.846
346.976
353.083
359.167
365.23
371.276
377.304
383.302
389.262
395.14
400.908
406.553
412.073
417.458
422.716
427.847
432.851
437.725
442.47
447.082
451.559
455.902
460.111
464.183
468.12
471.921
475.588
479.122
482.525
485.799
488.947
491.972
494.881
497.684
500.389
503.004
505.534
507.983
510.355
512.649
514.866
517.008
519.073
521.06
522.969
524.799
526.551
528.223
529.819
531.339
532.783
534.156
535.46
536.702
537.887
539.021
540.108
541.155
542.17
543.161
544.136
545.101
546.065
547.033
548.015
549.017
550.049
551.119
552.239
553.418
554.672
556.007
557.44
558.974
560.627
562.398
564.304
566.345
568.522
570.876
573.306
576.028
578.6
581.826
584.204
588.483
589.644
5866.92
829.345
350.976
255.912
201.985
169.272
157.827
152.833
149.944
147.953
146.905
146.454
146.377
146.929
147.98
149.636
151.924
154.963
159.016
164.514
172.178
183.131
197.97
214.542
231.719
248.553
262.941
272.99
282.48
289.369
295.186
299.758
303.499
306.857
310.289
314.105
318.765
324.197
330.249
333.752
331.361
308.025
275.282
246.572
224.548
211.362
203.187
195.956
189.311
183.758
179.561
176.582
174.65
173.691
173.387
173.483
174.029
175.012
176.41
178.191
180.325
182.772
185.454
188.409
191.645
195.152
198.92
202.943
207.223
211.793
216.693
221.944
227.547
233.482
239.709
246.193
252.925
259.898
267.082
274.456
282.033
289.712
297.447
305.184
312.91
320.605
328.246
335.812
343.283
350.642
357.874
364.971
371.929
378.758
385.481
392.135
398.729
405.272
411.799
418.327
424.827
431.341
437.752
443.998
450.059
455.938
461.654
467.207
472.59
477.804
482.849
487.727
492.438
496.985
501.368
505.59
509.653
513.571
517.344
520.971
524.448
527.777
530.966
534.021
536.948
539.757
542.456
545.053
547.557
549.97
552.297
554.54
556.698
558.771
560.76
562.664
564.481
566.21
567.85
569.4
570.859
572.23
573.513
574.708
575.817
576.843
577.79
578.668
579.481
580.229
580.921
581.566
582.17
582.741
583.286
583.813
584.327
584.839
585.35
585.874
586.418
586.994
587.61
588.283
589.023
589.849
590.76
591.782
592.906
594.159
595.536
597.038
598.705
600.447
602.472
604.359
606.867
608.593
612.119
612.63
5846.37
821.581
369.477
288.176
233.517
184.587
167.8
161.217
158.067
156.595
156.112
156.153
157.479
159.624
162.953
167.939
174.633
183.341
193.986
206.296
219.419
231.899
242.564
251.985
260.314
267.333
273.214
278.466
283.516
287.858
291.779
295.336
298.698
302.059
305.421
308.569
310.758
311.675
307.819
296.686
279.416
261.376
241.411
225.35
213.601
205.04
198.522
192.881
187.795
183.488
179.932
177.322
175.698
175.002
174.924
175.336
176.24
177.628
179.485
181.791
184.523
187.659
191.204
195.156
199.526
204.305
209.486
215.075
221.088
227.575
234.579
242.088
250.048
258.408
267.086
276.024
285.196
294.675
304.334
314.079
323.793
333.459
343.047
352.519
361.852
371.02
380.004
388.785
397.346
405.673
413.755
421.581
429.149
436.468
443.587
450.576
457.446
464.195
470.951
477.858
484.71
491.39
497.821
503.993
509.907
515.578
521.046
526.309
531.364
536.215
540.866
545.324
549.595
553.685
557.599
561.355
564.976
568.463
571.81
575.014
578.067
580.975
583.753
586.409
588.953
591.392
593.733
595.981
598.141
600.214
602.202
604.105
605.922
607.653
609.296
610.852
612.317
613.691
614.972
616.16
617.25
618.248
619.155
619.966
620.686
621.316
621.853
622.319
622.714
623.029
623.278
623.468
623.607
623.701
623.755
623.78
623.775
623.754
623.709
623.661
623.614
623.582
623.571
623.587
623.651
623.792
623.99
624.289
624.664
625.161
625.761
626.478
627.318
628.241
629.393
630.488
632.023
633.104
635.422
635.303
5833.73
816.284
383.326
322.404
288.015
214.672
184.281
173.625
169.965
168.924
169.02
171.73
175.961
180.262
185.959
192.822
200.271
208.38
216.409
224.054
231
236.902
242.368
247.795
250.879
253.153
255.526
257.3
259.413
261.626
264.849
267.929
271.151
274.132
275.856
276.538
275.889
272.542
266.972
260.068
251.178
241.819
232.083
223.08
214.809
207.466
201.655
196.732
192.445
188.998
186.508
184.967
184.364
184.592
185.533
187.111
189.309
192.121
195.541
199.561
204.17
209.359
215.151
221.571
228.61
236.233
244.412
253.183
262.493
272.274
282.437
292.883
303.557
314.601
325.838
337.17
348.518
359.708
370.79
381.755
392.559
403.165
413.55
423.693
433.582
443.209
452.568
461.657
470.472
479.014
487.283
495.277
502.996
510.448
517.695
524.966
532.285
539.544
546.663
553.462
559.949
566.008
571.692
577.058
582.138
586.957
591.54
595.902
600.053
603.999
607.751
611.318
614.707
617.928
620.985
623.896
626.685
629.351
631.885
634.288
636.577
638.778
640.883
642.894
644.822
646.671
648.442
650.137
651.752
653.29
654.746
656.122
657.416
658.628
659.754
660.794
661.747
662.61
663.382
664.068
664.652
665.153
665.565
665.879
666.102
666.238
666.275
666.249
666.156
665.965
665.711
665.398
665.027
664.607
664.141
663.635
663.09
662.514
661.906
661.279
660.629
659.979
659.321
658.69
658.07
657.512
656.974
656.533
656.124
655.834
655.604
655.498
655.465
655.51
655.692
655.935
656.405
656.764
657.613
657.045
5851.25
817.767
382.521
340.011
330.771
285.574
221.771
197.366
187.09
183.463
182.56
183.114
186.644
190.838
195.469
201.239
207.227
213.361
219.283
224.674
229.38
233.049
236.135
238.848
242.337
245.93
249.548
253.448
257.476
261.53
265.445
269.141
272.488
275.352
276.864
277.425
277.18
274.718
270.807
265.642
259.327
252.536
245.622
239.103
233.425
228.518
224.589
221.55
219.31
217.938
217.569
218.189
219.788
222.341
225.781
230.132
235.356
241.397
248.211
255.753
263.978
272.838
282.33
292.432
303.097
314.237
325.797
338.116
350.808
363.656
376.493
389.197
401.699
413.757
425.484
436.915
448.061
458.896
469.428
479.665
489.604
499.242
508.577