/*--------------------------------*- C++ -*----------------------------------*\
| =========                 |                                                 |
| \\      /  F ield         | OpenFOAM: The Open Source CFD Toolbox           |
|  \\    /   O peration     | Version:  2112                                  |
|   \\  /    A nd           | Website:  www.openfoam.com                      |
|    \\/     M anipulation  |                                                 |
\*---------------------------------------------------------------------------*/
FoamFile
{
    version     2.0;
    format      ascii;
    arch        "LSB;label=32;scalar=64";
    class       volVectorField;
    location    "0.31";
    object      ddtCorrDdt0(U);
}
// * * * * * * * * * * * * * * * * * * * * * * * * * * * * * * * * * * * * * //

dimensions      [0 1 -2 0 0 0 0];

internalField   nonuniform List<vector> 
12225
(
(-0.0583879 0.0248896 0)
(-0.382811 0.0592556 0)
(-0.935653 0.0803569 0)
(-1.62301 0.0851573 0)
(-2.31527 0.0679026 0)
(-2.90713 0.0310984 0)
(-3.33388 -0.013286 0)
(-3.59151 -0.0472709 0)
(-3.73968 -0.0567825 0)
(-3.8712 -0.0370861 0)
(-4.076 0.00864563 0)
(-4.41939 0.0729409 0)
(-4.93132 0.145748 0)
(-5.59341 0.218554 0)
(-6.3665 0.27216 0)
(-7.02681 0.326306 0)
(-7.90274 0.196816 0)
(-6.48776 0.495984 0)
(0.0146008 0.0430499 0)
(-0.0431471 0.115552 0)
(-0.286695 0.177604 0)
(-0.737609 0.227252 0)
(-1.39994 0.251137 0)
(-2.23817 0.243331 0)
(-3.19048 0.209925 0)
(-4.18774 0.169769 0)
(-5.18043 0.141045 0)
(-6.14467 0.134731 0)
(-7.07405 0.154407 0)
(-7.97032 0.196752 0)
(-8.83563 0.250938 0)
(-9.65951 0.301987 0)
(-10.4282 0.320274 0)
(-11.0542 0.304078 0)
(-11.5472 0.114258 0)
(-11.153 -0.0297676 0)
(-0.00848846 0.0516793 0)
(-0.128569 0.158734 0)
(-0.393034 0.258184 0)
(-0.77341 0.344923 0)
(-1.27191 0.420499 0)
(-1.91402 0.472382 0)
(-2.72455 0.495594 0)
(-3.70767 0.507729 0)
(-4.85116 0.524703 0)
(-6.11835 0.557317 0)
(-7.49249 0.609055 0)
(-8.94988 0.675466 0)
(-10.4732 0.743025 0)
(-12.0453 0.792214 0)
(-13.6545 0.787945 0)
(-15.247 0.706886 0)
(-16.7738 0.426616 0)
(-18.0302 -0.109506 0)
(-0.0153616 0.0675218 0)
(-0.159486 0.209103 0)
(-0.443946 0.346724 0)
(-0.857635 0.484764 0)
(-1.43072 0.591018 0)
(-2.13175 0.689535 0)
(-2.94611 0.769401 0)
(-3.87062 0.84462 0)
(-4.91 0.929026 0)
(-6.07167 1.029 0)
(-7.34419 1.1477 0)
(-8.72243 1.28314 0)
(-10.2042 1.4235 0)
(-11.7889 1.55095 0)
(-13.4824 1.63156 0)
(-15.2852 1.62426 0)
(-17.2047 1.40707 0)
(-19.3179 0.783847 0)
(-0.0179318 0.0886365 0)
(-0.171502 0.267921 0)
(-0.470111 0.44479 0)
(-0.890914 0.612745 0)
(-1.39927 0.786391 0)
(-2.08097 0.923665 0)
(-2.90176 1.04901 0)
(-3.8393 1.17301 0)
(-4.88739 1.30651 0)
(-6.04416 1.45907 0)
(-7.30106 1.63423 0)
(-8.65433 1.82793 0)
(-10.1043 2.02987 0)
(-11.6564 2.22333 0)
(-13.3223 2.37842 0)
(-15.1257 2.45304 0)
(-17.1014 2.36046 0)
(-19.4028 1.96372 0)
(-0.017831 0.114374 0)
(-0.173677 0.338218 0)
(-0.478116 0.549696 0)
(-0.909379 0.75157 0)
(-1.41422 0.964717 0)
(-2.01951 1.17609 0)
(-2.81243 1.34754 0)
(-3.73166 1.52252 0)
(-4.76136 1.71172 0)
(-5.89511 1.92269 0)
(-7.12811 2.15774 0)
(-8.45765 2.41506 0)
(-9.88567 2.68758 0)
(-11.4215 2.9622 0)
(-13.0836 3.21607 0)
(-14.9103 3.41585 0)
(-16.9533 3.50556 0)
(-19.3895 3.40136 0)
(-0.0171746 0.140884 0)
(-0.170377 0.412542 0)
(-0.473069 0.670346 0)
(-0.901 0.914373 0)
(-1.43653 1.15212 0)
(-2.01057 1.4255 0)
(-2.7246 1.65833 0)
(-3.60308 1.90264 0)
(-4.60094 2.15487 0)
(-5.70307 2.42534 0)
(-6.90448 2.72174 0)
(-8.2039 3.04595 0)
(-9.60516 3.39445 0)
(-11.1207 3.75901 0)
(-12.7735 4.12537 0)
(-14.6082 4.47291 0)
(-16.6797 4.77505 0)
(-19.1518 4.99578 0)
(-0.0164892 0.168123 0)
(-0.165073 0.490252 0)
(-0.461282 0.795271 0)
(-0.880666 1.0857 0)
(-1.41025 1.36752 0)
(-2.00649 1.64595 0)
(-2.65272 1.98402 0)
(-3.47589 2.292 0)
(-4.42669 2.60956 0)
(-5.48409 2.94838 0)
(-6.64169 3.31569 0)
(-7.8992 3.71578 0)
(-9.26201 4.14946 0)
(-10.7443 4.61471 0)
(-12.3705 5.10698 0)
(-14.1846 5.62014 0)
(-16.238 6.15148 0)
(-18.662 6.70442 0)
(-0.0157947 0.196103 0)
(-0.158752 0.571096 0)
(-0.445232 0.92527 0)
(-0.85307 1.26415 0)
(-1.36269 1.59251 0)
(-1.97287 1.91865 0)
(-2.61199 2.28999 0)
(-3.33023 2.68841 0)
(-4.22232 3.07026 0)
(-5.2325 3.47696 0)
(-6.34306 3.91719 0)
(-7.55126 4.39682 0)
(-8.86309 4.92127 0)
(-10.2933 5.49504 0)
(-11.8657 6.12291 0)
(-13.6205 6.8116 0)
(-15.5978 7.57648 0)
(-17.9032 8.44811 0)
(-0.015025 0.224659 0)
(-0.151352 0.654403 0)
(-0.425513 1.05984 0)
(-0.817485 1.44865 0)
(-1.30718 1.82744 0)
(-1.89278 2.20075 0)
(-2.56704 2.58656 0)
(-3.25015 3.04181 0)
(-4.00524 3.53547 0)
(-4.93951 4.01957 0)
(-5.99016 4.53553 0)
(-7.13842 5.09636 0)
(-8.38496 5.71382 0)
(-9.7424 6.39924 0)
(-11.2315 7.1653 0)
(-12.8853 8.02873 0)
(-14.7329 9.01761 0)
(-16.8542 10.1743 0)
(-0.0140974 0.253531 0)
(-0.142566 0.739222 0)
(-0.401708 1.19741 0)
(-0.773602 1.6377 0)
(-1.23867 2.06751 0)
(-1.79155 2.49486 0)
(-2.43015 2.93542 0)
(-3.14546 3.40222 0)
(-3.85402 3.94941 0)
(-4.6226 4.55503 0)
(-5.57734 5.15976 0)
(-6.6446 5.80518 0)
(-7.80524 6.51465 0)
(-9.06477 7.30913 0)
(-10.4385 8.20841 0)
(-11.9508 9.2359 0)
(-13.6192 10.4253 0)
(-15.4985 11.8258 0)
(-0.0130667 0.280227 0)
(-0.132953 0.817575 0)
(-0.375458 1.32479 0)
(-0.724941 1.81317 0)
(-1.16194 2.2895 0)
(-1.67852 2.76592 0)
(-2.27301 3.25638 0)
(-2.94099 3.77186 0)
(-3.67559 4.32706 0)
(-4.38687 4.98251 0)
(-5.15776 5.7092 0)
(-6.11611 6.44708 0)
(-7.17447 7.24055 0)
(-8.31779 8.12603 0)
(-9.55466 9.1356 0)
(-10.9015 10.2965 0)
(-12.3655 11.6423 0)
(-13.9813 13.2222 0)
(-0.011956 0.306098 0)
(-0.122045 0.894194 0)
(-0.345269 1.45 0)
(-0.669244 1.98671 0)
(-1.07401 2.50741 0)
(-1.54887 3.03047 0)
(-2.09291 3.56896 0)
(-2.70316 4.13388 0)
(-3.37482 4.73687 0)
(-4.10722 5.39639 0)
(-4.79804 6.17594 0)
(-5.54882 7.03471 0)
(-6.47681 7.92865 0)
(-7.48362 8.90134 0)
(-8.55859 10.0024 0)
(-9.7133 11.2707 0)
(-10.9469 12.7382 0)
(-12.2754 14.4495 0)
(-0.0103899 0.334051 0)
(-0.107231 0.978293 0)
(-0.304243 1.58835 0)
(-0.595147 2.18216 0)
(-0.957673 2.74765 0)
(-1.37628 3.32055 0)
(-1.85339 3.91075 0)
(-2.38666 4.52818 0)
(-2.97148 5.18607 0)
(-3.60269 5.89791 0)
(-4.28607 6.68392 0)
(-4.91897 7.59705 0)
(-5.59447 8.60844 0)
(-6.41628 9.69307 0)
(-7.2803 10.8868 0)
(-8.18246 12.2431 0)
(-9.1209 13.8008 0)
(-10.0957 15.6013 0)
(-0.00800231 0.362807 0)
(-0.0865207 1.06448 0)
(-0.246032 1.72969 0)
(-0.496617 2.39647 0)
(-0.806455 3.00027 0)
(-1.14784 3.62237 0)
(-1.53664 4.26542 0)
(-1.96907 4.93494 0)
(-2.43845 5.6443 0)
(-2.94005 6.40891 0)
(-3.46657 7.24263 0)
(-4.02976 8.16813 0)
(-4.52873 9.22319 0)
(-5.04122 10.3911 0)
(-5.64811 11.6781 0)
(-6.24703 13.0987 0)
(-6.82835 14.6896 0)
(-7.38619 16.5022 0)
(-0.0057796 0.39471 0)
(-0.0618407 1.1523 0)
(-0.159697 1.85594 0)
(-0.364748 2.51303 0)
(-0.619343 3.21287 0)
(-0.851206 3.90405 0)
(-1.12314 4.59771 0)
(-1.42683 5.312 0)
(-1.74932 6.06257 0)
(-2.08307 6.86478 0)
(-2.42273 7.73342 0)
(-2.7577 8.68021 0)
(-3.10136 9.73066 0)
(-3.35009 10.898 0)
(-3.58481 12.1823 0)
(-3.82315 13.65 0)
(-4.02677 15.2247 0)
(-4.13601 16.959 0)
(-0.0074797 0.419076 0)
(-0.0538225 1.22426 0)
(-0.148862 1.9723 0)
(-0.219927 2.66227 0)
(-0.301375 3.4042 0)
(-0.448215 4.12896 0)
(-0.596429 4.85 0)
(-0.741083 5.58705 0)
(-0.880914 6.35472 0)
(-1.0104 7.16593 0)
(-1.12229 8.03256 0)
(-1.2081 8.96619 0)
(-1.25764 9.97581 0)
(-1.26537 11.0737 0)
(-1.1958 12.3312 0)
(-1.0221 13.6373 0)
(-0.764121 15.0257 0)
(-0.440036 16.6029 0)
(-0.00220473 0.430752 0)
(-0.009259 1.26042 0)
(-0.015617 2.04188 0)
(-0.00798999 2.80343 0)
(0.00572866 3.51192 0)
(0.0183957 4.21961 0)
(0.0454928 4.93209 0)
(0.0933535 5.65508 0)
(0.166633 6.39863 0)
(0.271507 7.17284 0)
(0.415281 7.98634 0)
(0.606148 8.84605 0)
(0.853849 9.75773 0)
(1.16674 10.7255 0)
(1.56319 11.7557 0)
(2.05231 12.8551 0)
(2.67005 14.0551 0)
(3.39794 15.3408 0)
(0.00421797 0.420876 0)
(0.0418475 1.22458 0)
(0.11835 1.97526 0)
(0.233002 2.68719 0)
(0.381965 3.36899 0)
(0.563843 4.03502 0)
(0.781826 4.69163 0)
(1.03998 5.34529 0)
(1.34229 6.00383 0)
(1.69339 6.6743 0)
(2.09867 7.36179 0)
(2.56418 8.06936 0)
(3.09652 8.79858 0)
(3.70265 9.54952 0)
(4.39006 10.3218 0)
(5.16596 11.11 0)
(6.03771 11.9097 0)
(7.03333 12.7267 0)
(0.00862071 0.38425 0)
(0.0800757 1.11235 0)
(0.221328 1.78679 0)
(0.426272 2.42003 0)
(0.686627 3.02392 0)
(0.999198 3.60476 0)
(1.36393 4.16706 0)
(1.7815 4.71585 0)
(2.25296 5.25669 0)
(2.78008 5.79417 0)
(3.36519 6.33093 0)
(4.01096 6.86761 0)
(4.72021 7.40331 0)
(5.49587 7.93587 0)
(6.34069 8.46194 0)
(7.25813 8.97669 0)
(8.24821 9.47359 0)
(9.32363 9.95042 0)
(0.0110956 0.33887 0)
(0.103971 0.978169 0)
(0.287838 1.56721 0)
(0.552688 2.11624 0)
(0.885997 2.63513 0)
(1.28239 3.12792 0)
(1.73986 3.59735 0)
(2.25685 4.04702 0)
(2.83218 4.48115 0)
(3.46536 4.90313 0)
(4.15627 5.31466 0)
(4.90484 5.71561 0)
(5.7108 6.10441 0)
(6.57377 6.47831 0)
(7.49301 6.83342 0)
(8.46832 7.1647 0)
(9.49623 7.46535 0)
(10.5858 7.73262 0)
(0.0128975 0.290158 0)
(0.121186 0.835912 0)
(0.335376 1.33652 0)
(0.642242 1.79963 0)
(1.02594 2.23265 0)
(1.47931 2.63813 0)
(1.99892 3.01751 0)
(2.58162 3.37327 0)
(3.22461 3.70869 0)
(3.92568 4.02656 0)
(4.6828 4.32831 0)
(5.49366 4.61385 0)
(6.35546 4.88177 0)
(7.2651 5.12949 0)
(8.21896 5.35338 0)
(9.2139 5.54877 0)
(10.2438 5.70952 0)
(11.3141 5.83234 0)
(0.0141604 0.24207 0)
(0.133276 0.696169 0)
(0.368394 1.11107 0)
(0.703559 1.4918 0)
(1.12048 1.8435 0)
(1.61064 2.16731 0)
(2.16961 2.46348 0)
(2.7933 2.7335 0)
(3.47804 2.98006 0)
(4.22064 3.20587 0)
(5.01786 3.41272 0)
(5.86581 3.6012 0)
(6.75981 3.77072 0)
(7.69452 3.91955 0)
(8.66406 4.04484 0)
(9.66292 4.14271 0)
(10.683 4.20786 0)
(11.7265 4.23697 0)
(0.0150593 0.196666 0)
(0.141781 0.565104 0)
(0.390958 0.900697 0)
(0.744258 1.20581 0)
(1.18162 1.48366 0)
(1.69346 1.7343 0)
(2.27473 1.95654 0)
(2.92124 2.15078 0)
(3.62931 2.31911 0)
(4.39557 2.46424 0)
(5.21628 2.58864 0)
(6.0866 2.69396 0)
(7.00039 2.78089 0)
(7.95054 2.84883 0)
(8.92925 2.89619 0)
(9.92898 2.92037 0)
(10.9398 2.91717 0)
(11.9615 2.88409 0)
(0.0157907 0.154682 0)
(0.147925 0.445587 0)
(0.405799 0.709986 0)
(0.769321 0.94713 0)
(1.21717 1.15795 0)
(1.73903 1.34146 0)
(2.32983 1.49548 0)
(2.98612 1.61995 0)
(3.70483 1.71683 0)
(4.48303 1.78931 0)
(5.31694 1.84106 0)
(6.20124 1.8754 0)
(7.12864 1.89481 0)
(8.09093 1.8996 0)
(9.07914 1.88882 0)
(10.0844 1.86079 0)
(11.0957 1.81177 0)
(12.1103 1.73939 0)
(0.0167278 0.115518 0)
(0.152141 0.336022 0)
(0.412768 0.536745 0)
(0.777734 0.714614 0)
(1.22271 0.871765 0)
(1.74196 1.00374 0)
(2.33196 1.10536 0)
(2.98972 1.17532 0)
(3.71243 1.21468 0)
(4.49777 1.22654 0)
(5.34288 1.21536 0)
(6.24335 1.18581 0)
(7.19183 1.14219 0)
(8.18034 1.08685 0)
(9.19731 1.02109 0)
(10.234 0.943792 0)
(11.2781 0.851212 0)
(12.3253 0.748579 0)
(0.0169359 0.0816987 0)
(0.148454 0.242792 0)
(0.403 0.392965 0)
(0.758815 0.525057 0)
(1.18525 0.634887 0)
(1.69033 0.719118 0)
(2.27074 0.770693 0)
(2.92371 0.78838 0)
(3.64912 0.773303 0)
(4.45007 0.72903 0)
(5.33015 0.660965 0)
(6.29056 0.574929 0)
(7.32791 0.477439 0)
(8.43556 0.369021 0)
(9.59446 0.253568 0)
(10.7946 0.133356 0)
(12.0222 0.00297436 0)
(13.2669 -0.141966 0)
(0.00739843 0.0587519 0)
(0.11925 0.171099 0)
(0.347712 0.276011 0)
(0.667703 0.37003 0)
(1.07761 0.442473 0)
(1.56654 0.479126 0)
(2.14243 0.4759 0)
(2.82384 0.430861 0)
(3.62667 0.342012 0)
(4.55953 0.211389 0)
(5.61888 0.0456875 0)
(6.78605 -0.144778 0)
(8.03244 -0.348505 0)
(9.31753 -0.554108 0)
(10.6131 -0.755971 0)
(11.8779 -0.952099 0)
(13.0733 -1.14313 0)
(14.1831 -1.33105 0)
(-0.00876084 0.0454933 0)
(0.038199 0.122814 0)
(0.213646 0.18482 0)
(0.536859 0.226821 0)
(1.0068 0.241406 0)
(1.60259 0.224225 0)
(2.30359 0.167316 0)
(3.06106 0.065138 0)
(3.8142 -0.0808394 0)
(4.49912 -0.262204 0)
(5.05632 -0.465567 0)
(5.43661 -0.67564 0)
(5.60562 -0.877512 0)
(5.54409 -1.06094 0)
(5.24415 -1.21959 0)
(4.70871 -1.34918 0)
(3.94283 -1.44954 0)
(2.965 -1.52299 0)
(0.0464621 0.0268185 0)
(0.306009 0.0637734 0)
(0.742542 0.0857561 0)
(1.27503 0.0898883 0)
(1.80165 0.0721929 0)
(2.23099 0.0306398 0)
(2.47699 -0.0353998 0)
(2.46499 -0.12461 0)
(2.13964 -0.229447 0)
(1.47436 -0.337916 0)
(0.476908 -0.436203 0)
(-0.812907 -0.511997 0)
(-2.33094 -0.556747 0)
(-4.00078 -0.567241 0)
(-5.74696 -0.54406 0)
(-7.49716 -0.490314 0)
(-9.20049 -0.411229 0)
(-10.7818 -0.316384 0)
(-3.09574 6.35001 -1.62302e-18)
(-5.69645 7.49299 1.5938e-18)
(-13.6969 8.87799 0)
(-23.9764 10.6344 0)
(-37.5186 13.0719 0)
(-54.8703 17.0217 -1.53574e-18)
(-75.9232 24.267 0)
(-99.7434 34.4659 0)
(-129.51 38.2504 0)
(-163.682 36.476 0)
(-196.75 35.819 1.43645e-18)
(-230.95 36.0303 0)
(-266.245 36.521 0)
(-302.214 37.0714 0)
(-338.846 37.5843 0)
(-376.159 38.0045 1.2709e-18)
(-414.091 38.2885 0)
(-452.522 38.383 0)
(-491.266 38.2154 0)
(-530.049 37.7048 0)
(-568.517 36.7536 0)
(-606.235 35.2718 0)
(-642.713 33.2037 0)
(-677.438 30.4651 9.07445e-19)
(-709.794 26.9201 -8.55101e-19)
(-739.095 22.4068 8.01479e-19)
(-764.393 16.8631 7.4679e-19)
(-784.287 10.1842 0)
(-798.058 -6.64724 0)
(-800.608 -25.034 -5.75639e-19)
(-792.136 -37.2001 -5.25491e-19)
(-773.225 -48.9859 0)
(-744.328 -57.423 0)
(-706.838 -61.8116 -3.67242e-19)
(-662.654 -61.5328 0)
(-614.147 -56.3924 0)
(-564.115 -47.065 2.03032e-19)
(-515.389 -34.9984 0)
(-470.384 -22.2566 9.72143e-20)
(-430.863 -11.0635 9.69489e-20)
(-397.704 -3.23964 0)
(-370.467 0.0773763 0)
(-347.403 -1.13777 0)
(-326.215 -5.77076 0)
(-304.872 -12.0667 0)
(-281.988 -18.2217 -3.40849e-19)
(-256.853 -22.7933 -3.88068e-19)
(-229.319 -24.8721 -4.26933e-19)
(-199.347 -24.2604 0)
(-167.184 -21.7623 4.83574e-19)
(-133.95 -18.3643 0)
(-101.306 -13.5381 -5.19409e-19)
(-69.5857 -9.60704 -5.31974e-19)
(-36.9596 -14.2866 0)
(-3.98524 -20.8527 0)
(27.2887 -19.4198 0)
(53.4831 -14.0703 -6.04456e-19)
(74.2139 -7.97594 0)
(87.4321 -4.82588 0)
(96.5201 -5.03448 0)
(105.779 -9.26558 0)
(118.319 -15.6888 0)
(134.5 -19.954 0)
(152.241 -21.533 0)
(169.708 -21.9946 0)
(189.047 -24.695 9.64794e-19)
(217.312 -31.1318 0)
(259.859 -39.9108 0)
(318.86 -45.2268 -1.09517e-18)
(396.967 -38.4378 -1.07721e-18)
(464.596 -30.5499 0)
(537.136 -32.2151 1.11051e-18)
(619.248 -15.0708 -1.53833e-18)
(689.479 21.5216 0)
(771.087 18.24 2.29312e-18)
(905.97 -41.8298 0)
(1051.71 -93.9105 0)
(1196.34 -115.702 -2.68285e-18)
(1302.31 -107.44 0)
(1356.38 -79.5816 2.59762e-18)
(1356.59 -43.0871 0)
(1309.67 -7.66019 -2.15133e-18)
(1226.34 21.9657 -1.79182e-18)
(1115.42 49.2875 -1.36214e-18)
(984.28 80.2119 -1.77506e-18)
(838.281 98.6961 7.80959e-19)
(685.981 100.122 0)
(538.064 94.4116 0)
(398.281 86.5018 0)
(265.604 76.0681 -2.96509e-18)
(139.721 59.6052 -3.87523e-18)
(62.9763 41.6759 4.61273e-18)
(-5.43201 30.4077 0)
(-55.4502 20.3479 -5.59753e-18)
(-89.4726 10.6775 -5.84172e-18)
(-107.267 1.23448 -5.9273e-18)
(-110.243 -7.32139 0)
(-100.349 -14.7287 0)
(-79.2407 -21.1504 0)
(-48.745 -26.2613 -5.09959e-18)
(-10.744 -29.8473 0)
(32.7453 -31.7129 0)
(79.6162 -32.0224 3.86692e-18)
(127.877 -31.3432 0)
(175.812 -30.1774 0)
(221.939 -28.6296 2.68136e-18)
(264.971 -26.6278 0)
(303.83 -24.1402 0)
(337.644 -21.2111 -1.88966e-18)
(365.734 -17.9492 -1.75574e-18)
(387.612 -14.4774 0)
(402.963 -10.9148 1.54881e-18)
(411.708 -7.41296 0)
(413.892 -4.0918 -1.43917e-18)
(409.641 -1.07498 0)
(399.899 2.35431 -1.45128e-18)
(382.045 12.987 -1.48808e-18)
(349.499 29.1227 0)
(309.047 31.8087 0)
(272.571 22.2554 0)
(236.191 18.5708 0)
(196.298 20.1854 0)
(152.714 22.3788 0)
(106.74 20.5297 0)
(61.1139 21.7666 -2.15641e-18)
(17.7651 23.3038 2.20949e-18)
(-27.1169 22.065 0)
(-68.9896 18.9815 0)
(-105.876 14.8588 0)
(-136.419 10.3078 0)
(-160.036 5.49146 4.47299e-18)
(-176.206 0.510304 0)
(-185.901 -3.59693 -4.33279e-18)
(-190.361 -6.57117 4.25089e-18)
(-190.309 -8.33983 0)
(-186.166 -9.46634 0)
(-178.574 -10.225 0)
(-168.148 -10.5586 -3.99131e-18)
(-155.239 -10.3581 -3.96402e-18)
(-140.138 -9.38897 0)
(-123.194 -6.92224 -4.02727e-18)
(-105.512 -6.02787 -4.23082e-18)
(-88.766 -9.39243 4.00689e-18)
(-74.8011 -7.49718 0)
(-61.1443 -4.58997 0)
(-48.517 -2.80368 3.83938e-18)
(-36.8535 -1.57485 0)
(-25.6451 -0.389247 0)
(-14.532 0.893444 0)
(-3.21254 2.26098 0)
(8.49517 3.69793 -3.83528e-18)
(20.572 5.25487 -3.83966e-18)
(33.0136 6.42921 0)
(45.1631 5.6281 -3.84406e-18)
(56.7596 3.95366 0)
(68.0999 1.80179 0)
(79.1486 -0.692381 -3.81459e-18)
(89.2603 -2.93661 0)
(96.3418 -3.74055 -3.77126e-18)
(96.1511 -1.68038 0)
(83.0006 3.79307 0)
(52.7613 10.883 -3.78945e-18)
(6.22615 14.8747 0)
(-49.1928 12.982 -4.10776e-18)
(-100.64 13.3742 0)
(-129.972 -1.90795 0)
(-104.686 -27.7169 0)
(-0.82601 -45.698 4.05552e-18)
(155.556 -63.5065 0)
(341.222 -57.9589 -4.39289e-18)
(546.335 -49.4899 0)
(734.854 -48.9837 0)
(872.042 -32.0252 0)
(928.392 -14.2986 0)
(895.05 -1.2817 0)
(783.143 37.6793 0)
(593.024 80.0527 0)
(339.888 96.2576 -3.463e-18)
(67.8734 88.9381 0)
(-135.72 63.1607 0)
(-1.65732 11.163 4.81102e-18)
(-5.02943 18.3866 -4.71723e-18)
(-15.4991 28.4347 0)
(-31.3686 39.9214 3.06331e-18)
(-52.5838 51.4382 0)
(-78.319 61.9129 1.51096e-18)
(-106.935 71.4324 -2.94305e-18)
(-136.56 81.1508 -2.89497e-18)
(-166.774 91.2084 0)
(-197.546 97.6833 -2.79279e-18)
(-229.555 101.067 -1.40069e-18)
(-262.533 102.947 0)
(-296.214 104.25 0)
(-330.61 105.332 0)
(-365.828 106.312 0)
(-401.95 107.177 -1.24184e-18)
(-439.01 107.812 0)
(-476.983 108.037 2.28476e-18)
(-515.753 107.625 0)
(-555.114 106.398 0)
(-594.789 104.178 -2.04563e-18)
(-634.448 100.823 0)
(-673.711 96.4043 1.86864e-18)
(-712.214 90.8309 -8.94767e-19)
(-749.509 83.7429 8.43818e-19)
(-784.961 74.8641 -7.91335e-19)
(-817.978 64.0372 -7.37503e-19)
(-848.46 51.1319 0)
(-875.471 35.3188 0)
(-902.354 16.3682 5.67103e-19)
(-927.423 -5.01095 -5.05111e-19)
(-947.677 -27.6565 0)
(-961.27 -50.3678 0)
(-965.941 -71.9688 3.5361e-19)
(-959.627 -90.907 0)
(-940.894 -105.698 0)
(-909.007 -115.205 -1.8495e-19)
(-864.045 -118.893 0)
(-806.837 -116.732 5.65398e-20)
(-739.103 -108.635 -6.64692e-20)
(-664.157 -95.8229 0)
(-586.412 -81.8452 0)
(-509.767 -69.8158 3.5116e-19)
(-437.381 -61.2214 4.8905e-19)
(-372.026 -56.5044 6.19496e-19)
(-315.608 -55.4668 -3.98713e-19)
(-268.342 -57.5447 3.82871e-19)
(-228.874 -61.4753 1.3274e-18)
(-195.44 -65.6577 -9.65113e-19)
(-166.244 -68.9959 -4.86212e-19)
(-138.775 -71.2374 0)
(-110.299 -72.4074 5.28793e-19)
(-79.4571 -72.458 -5.64889e-19)
(-47.3613 -70.2088 0)
(-13.889 -64.6692 0)
(21.588 -56.6181 0)
(60.094 -46.8243 6.07838e-19)
(99.2817 -36.3297 0)
(138.378 -27.8558 -1.44691e-18)
(173.187 -22.7301 0)
(200.282 -22.1384 -1.45302e-18)
(221.573 -24.1987 0)
(238.211 -26.5805 1.56918e-18)
(250.236 -26.5419 0)
(261.279 -27.7304 -1.75676e-18)
(277.891 -37.5861 8.97944e-19)
(310.528 -60.4422 0)
(369.236 -91.9942 2.17927e-18)
(454.859 -121.539 1.0872e-18)
(560.393 -139.887 1.06831e-18)
(710.069 -153.541 0)
(891.878 -169.434 1.31085e-19)
(1097.57 -180.716 1.49721e-18)
(1326.37 -214.864 0)
(1586.75 -279.558 -2.32457e-18)
(1793.64 -297.35 5.1544e-18)
(1906.07 -256.022 0)
(1916.47 -170.117 2.49815e-18)
(1834.92 -64.6036 0)
(1687.19 36.837 -7.57619e-18)
(1499.86 120.093 0)
(1296.22 179.406 6.24124e-18)
(1093.39 215.488 1.72611e-18)
(903.886 232.535 -1.30431e-18)
(736.033 236.173 -1.62556e-18)
(591.633 230.268 6.01371e-19)
(470.398 217.085 0)
(368.177 199.966 0)
(281.36 182.599 0)
(212.389 160.325 1.04823e-17)
(163.934 133.733 3.79083e-18)
(92.1432 106.854 -4.50641e-18)
(37.9864 83.6079 0)
(-5.01709 60.4985 -5.84387e-18)
(-33.1018 37.141 5.6857e-18)
(-46.1049 14.7423 5.76739e-18)
(-45.653 -4.49018 0)
(-32.6334 -20.8985 0)
(-10.0294 -33.6179 0)
(21.1461 -44.1426 4.98629e-18)
(58.666 -52.3066 0)
(100.782 -57.9721 -8.64601e-18)
(146.008 -61.0714 -1.15889e-17)
(192.894 -61.5612 6.9268e-18)
(239.561 -59.6147 0)
(283.961 -55.6178 2.702e-18)
(324.474 -50.0483 0)
(360.013 -43.3547 4.11054e-18)
(389.85 -35.8893 -1.82384e-18)
(413.531 -27.9366 -1.76051e-18)
(430.746 -19.6184 0)
(441.255 -11.1943 -4.56212e-18)
(444.988 -2.91767 2.86778e-18)
(441.949 5.14863 1.40678e-18)
(432.019 13.0452 0)
(415.267 21.0692 1.40517e-18)
(392.605 29.1452 4.2622e-18)
(367.642 34.6407 0)
(341.181 36.1971 3.06014e-18)
(307.062 38.4465 3.26614e-18)
(265.674 42.2886 3.55056e-18)
(220.599 46.5572 0)
(174.334 49.252 0)
(126.586 49.8672 0)
(79.6571 47.3148 -2.09015e-18)
(31.9216 46.2349 -2.17385e-18)
(-13.4192 44.5442 0)
(-55.3473 40.9003 -4.42629e-18)
(-92.9717 35.5011 -4.44268e-18)
(-125.253 29.0844 0)
(-151.309 22.6513 -4.39936e-18)
(-171.501 16.4775 -8.68069e-18)
(-186.542 10.5647 4.28689e-18)
(-196.063 5.35859 4.21821e-18)
(-199.862 1.21391 0)
(-198.698 -2.10872 0)
(-193.365 -4.87224 0)
(-184.512 -7.31405 3.98399e-18)
(-172.446 -9.53798 -3.95957e-18)
(-157.827 -11.5578 -7.9004e-18)
(-141.148 -13.507 4.03645e-18)
(-126.054 -16.3466 -3.50876e-18)
(-109.783 -11.7657 -4.00613e-18)
(-89.1736 -12.8826 0)
(-70.9505 -12.9407 0)
(-55.5093 -12.2905 3.81391e-18)
(-42.341 -11.8722 0)
(-30.9287 -11.9644 0)
(-20.3841 -12.5653 -7.5592e-18)
(-9.78408 -13.4777 0)
(1.44507 -14.3608 -3.73779e-18)
(13.4075 -14.7539 3.77395e-18)
(25.6587 -14.4778 0)
(37.8213 -14.2441 -3.70893e-18)
(49.3891 -13.4417 0)
(59.8676 -12.0726 0)
(69.2418 -10.0992 3.75714e-18)
(77.5859 -6.99347 -7.49489e-18)
(84.4183 -1.79082 3.74635e-18)
(87.8379 6.33964 0)
(83.49 17.0491 0)
(63.7685 28.1973 -3.79087e-18)
(21.2753 36.1825 0)
(-40.9503 38.9129 -3.59262e-18)
(-104.941 30.2045 0)
(-139.367 3.07705 0)
(-118.811 -40.5793 0)
(-28.2144 -88.1058 -3.946e-18)
(165.001 -124.207 0)
(443.028 -147.776 4.28784e-18)
(736.715 -154.717 0)
(967.636 -121.86 0)
(1084.43 -62.7846 1.1619e-17)
(1070.39 4.44682 -8.9361e-18)
(935.007 68.4219 0)
(723.566 113.31 0)
(474.277 144.915 0)
(231.26 157.903 9.00381e-18)
(27.1693 150.757 0)
(-181.962 124.432 5.95004e-18)
(-1.42643 18.0815 -4.79118e-20)
(-7.09554 37.0691 6.16679e-18)
(-21.3716 60.951 0)
(-41.7565 85.6917 -6.00389e-18)
(-66.5384 107.805 0)
(-93.985 125.539 0)
(-122.509 138.811 6.25024e-20)
(-150.915 148.314 2.85504e-18)
(-178.511 154.603 2.73693e-18)
(-205.518 158.45 2.76116e-18)
(-232.714 161.017 0)
(-260.663 163.176 0)
(-289.691 165.378 -2.52989e-18)
(-320.017 167.792 -4.95163e-18)
(-351.803 170.412 4.84028e-18)
(-385.158 173.104 0)
(-420.15 175.643 4.60503e-18)
(-456.814 177.709 -2.28478e-18)
(-495.009 178.887 0)
(-534.652 178.974 4.2082e-18)
(-575.409 177.702 2.05034e-18)
(-617.01 174.509 -3.90773e-18)
(-659.246 169.105 -1.87408e-18)
(-701.546 161.596 0)
(-743.777 151.698 3.37611e-18)
(-785.065 139.15 3.17573e-18)
(-824.636 123.743 0)
(-861.926 105.392 2.74769e-18)
(-896.345 84.6228 0)
(-927.359 61.4378 2.30667e-18)
(-954.786 35.5763 1.02296e-18)
(-978.768 6.6048 0)
(-998.802 -25.1782 0)
(-1013.97 -58.7434 0)
(-1022.96 -92.7911 0)
(-1024.41 -125.653 0)
(-1016.57 -155.512 0)
(-997.366 -180.922 3.49079e-19)
(-964.227 -201.538 -2.31225e-19)
(-916.933 -217.645 0)
(-855.147 -225.437 0)
(-781.42 -224.628 0)
(-697.941 -217.726 7.68726e-20)
(-606.46 -205.743 -5.24119e-19)
(-510.547 -188.367 -1.40465e-18)
(-415.354 -167.58 1.62876e-18)
(-325.78 -147.369 9.35084e-19)
(-245.065 -130.181 -8.99472e-19)
(-175.162 -116.926 -6.87847e-20)
(-116.576 -108.14 -1.04884e-18)
(-68.3001 -103.683 0)
(-28.2395 -103.041 -1.09369e-18)
(6.20182 -105.583 -2.37662e-20)
(37.5432 -110.715 0)
(68.2565 -116.248 0)
(100.873 -119.096 1.20325e-18)
(137.254 -117.395 0)
(177.764 -110.293 0)
(221.102 -97.5707 -1.31595e-18)
(263.711 -82.2879 -2.85068e-18)
(300.661 -67.9836 1.4284e-18)
(325.987 -56.7132 0)
(339.051 -49.4733 -1.54769e-18)
(343.664 -44.7727 0)
(347.784 -49.8991 -1.91184e-18)
(369.584 -79.5948 -1.82411e-18)
(428.242 -138.063 4.21827e-18)
(531.275 -210.398 2.23135e-18)
(677.533 -282.633 0)
(864.796 -350.815 -4.92283e-18)
(1095 -413.739 0)
(1359.7 -467.255 -4.06083e-18)
(1643.3 -514.294 -8.76616e-18)
(1914.53 -544.349 -9.26698e-18)
(2089.27 -507.106 1.01476e-17)
(2114.53 -379.644 -1.57184e-17)
(2008.47 -199.276 0)
(1813.08 -9.2043 0)
(1576.64 156.794 1.11138e-17)
(1339.63 279.757 1.54806e-17)
(1127.43 356.129 0)
(950.253 392.299 -4.19771e-18)
(806.459 399.618 0)
(688.781 389.615 7.5455e-18)
(588.943 370.048 4.65655e-19)
(498.796 344.804 -4.39809e-19)
(411.523 316.966 1.00259e-18)
(325.203 288.478 0)
(237.119 257.181 -5.32704e-18)
(151.632 228.205 -2.25185e-19)
(73.2938 198.775 0)
(5.99739 166.941 0)
(-47.2417 130.316 0)
(-85.6574 92.2452 1.11738e-17)
(-107.815 53.9926 0)
(-114.767 17.9618 0)
(-107.153 -13.3994 0)
(-87.3682 -40.5043 0)
(-55.9729 -63.8745 0)
(-13.5596 -81.557 1.05266e-17)
(35.9206 -94.5524 0)
(90.006 -102.95 8.61601e-18)
(146.086 -107.124 7.76471e-18)
(201.668 -107.199 -6.91999e-18)
(254.558 -103.267 0)
(303.08 -95.8092 -5.36084e-18)
(346.108 -85.6966 0)
(382.915 -73.7719 -4.12404e-18)
(413.054 -60.6527 3.70778e-18)
(436.356 -47.0813 1.0679e-17)
(452.961 -32.9535 0)
(462.705 -18.7384 9.07596e-18)
(465.744 -4.83514 2.74754e-18)
(462.142 8.62908 0)
(452.169 21.4986 5.22904e-18)
(436.383 34.2021 5.31293e-18)
(415.468 47.0745 -8.22606e-18)
(390.234 59.291 0)
(360.632 68.4198 -3.27329e-18)
(324.824 74.5158 -3.50288e-18)
(283.134 79.8334 -1.07571e-17)
(238.286 84.6305 0)
(192.021 87.8323 0)
(144.552 88.5935 0)
(96.2098 87.6146 -4.10113e-18)
(48.7415 85.0029 0)
(4.42527 79.8777 0)
(-35.9973 72.0144 4.38461e-18)
(-72.0691 61.883 4.40599e-18)
(-103.256 50.3677 0)
(-129.025 38.6519 0)
(-149.542 27.916 8.58431e-18)
(-164.246 18.0914 0)
(-173.16 8.94567 -8.32317e-18)
(-176.351 0.168156 -8.15292e-18)
(-175.227 -7.46125 0)
(-171.258 -13.4803 0)
(-165.2 -18.7948 7.85824e-18)
(-157.546 -23.7615 6.57391e-20)
(-148.521 -28.0379 9.87124e-20)
(-138.13 -30.7803 0)
(-122.35 -31.0713 1.51381e-17)
(-110.122 -30.0361 0)
(-101.099 -26.2765 0)
(-85.4943 -23.6795 0)
(-68.8371 -21.1475 -7.69606e-18)
(-51.9731 -18.7723 0)
(-34.882 -17.0721 1.53111e-17)
(-17.8031 -16.205 7.61907e-18)
(-0.909626 -16.0777 0)
(15.7225 -16.4066 7.56313e-18)
(31.8358 -16.738 0)
(46.9248 -16.6682 0)
(60.3709 -15.7219 2.24131e-17)
(71.3317 -14.3977 -1.489e-17)
(79.0881 -13.0612 0)
(83.4932 -11.7098 -1.48192e-17)
(84.7365 -9.59455 7.42142e-18)
(83.0248 -4.97879 0)
(78.0434 4.53412 0)
(68.1709 20.9153 0)
(50.3522 43.7186 2.26057e-17)
(22.2367 67.9607 0)
(-17.2673 80.8145 7.68809e-18)
(-56.9306 60.1573 0)
(-78.8167 6.34327 0)
(-58.3468 -78.0767 0)
(46.8199 -182.664 0)
(258.075 -265.192 0)
(549.207 -303.967 0)
(837.794 -282.128 1.48182e-17)
(1023.71 -196.045 0)
(1075.72 -71.2742 -1.15124e-17)
(1003.19 50.3075 2.45889e-17)
(840.84 154.002 0)
(638.293 227.79 0)
(425.542 266.28 -9.69528e-18)
(206.773 270.468 -5.589e-18)
(-12.4771 254.93 -2.1181e-18)
(-216.102 221.009 -5.90965e-18)
(-3.77824 28.9991 -9.18791e-18)
(-13.5389 63.3065 -8.95746e-18)
(-32.7021 101.154 -5.84388e-18)
(-55.6564 135.464 -2.80425e-18)
(-79.7471 161.788 0)
(-103.457 179.626 5.5457e-18)
(-126.045 190.817 -2.63692e-18)
(-147.529 197.799 0)
(-168.414 202.574 -2.71933e-18)
(-189.435 206.432 0)
(-211.312 210.22 5.07636e-18)
(-234.585 214.421 0)
(-259.609 219.216 2.53358e-18)
(-286.616 224.582 4.96705e-18)
(-315.765 230.371 -4.8626e-18)
(-347.171 236.361 0)
(-380.923 242.264 -4.6379e-18)
(-417.126 247.641 0)
(-455.368 251.726 0)
(-496.164 254.059 -4.24997e-18)
(-538.685 253.662 0)
(-583.317 250.569 -1.47716e-20)
(-630.092 247.102 0)
(-678.329 241.665 0)
(-727.151 231.361 5.45856e-20)
(-776.096 216.599 -3.23861e-18)
(-824.616 197.648 -3.09726e-18)
(-872.02 174.551 -2.80418e-18)
(-917.437 147.54 0)
(-959.847 116.793 -4.71305e-18)
(-998.212 82.5379 0)
(-1031.62 45.2325 -1.86541e-18)
(-1059.08 5.43331 0)
(-1079.95 -36.1124 0)
(-1093.65 -78.7811 1.12585e-18)
(-1099.27 -121.879 0)
(-1096.02 -164.988 -6.26278e-19)
(-1083.26 -208.21 8.99406e-20)
(-1059.31 -251.561 2.0317e-19)
(-1026.26 -285.751 6.95597e-20)
(-984.693 -306.959 0)
(-930.721 -322.781 0)
(-863.249 -334.608 5.52782e-19)
(-783.501 -340.761 0)
(-694.064 -339.652 8.03937e-19)
(-596.313 -326.479 -9.22843e-19)
(-494.463 -303.471 -9.78446e-19)
(-390.297 -275.207 0)
(-288.037 -245.237 1.04895e-18)
(-192.991 -217.139 1.06773e-18)
(-108.465 -193.195 -2.29034e-18)
(-35.7468 -174.872 1.09526e-18)
(25.5759 -162.875 1.11164e-18)
(77.0725 -156.899 0)
(121.057 -155.526 0)
(160.491 -156.625 -1.19284e-18)
(198.626 -157.699 0)
(238.304 -155.712 0)
(281.081 -147.329 2.7192e-18)
(325.916 -130.644 2.8222e-18)
(368.379 -106.955 0)
(401.82 -80.9167 0)
(421.279 -56.5197 0)
(429.065 -44.2855 0)
(442.074 -66.1017 3.64828e-18)
(489.993 -143.006 -4.13105e-18)
(593.883 -266.109 -4.25125e-18)
(755.95 -403.327 -9.58315e-18)
(971.096 -532.103 0)
(1234.37 -651.126 -1.54906e-18)
(1527.77 -754.492 0)
(1826.57 -826.238 3.25739e-18)
(2072.04 -821.767 3.08273e-19)
(2185.68 -707.792 8.84321e-18)
(2129.87 -485.772 -9.65101e-18)
(1940.25 -205.243 -1.33043e-18)
(1681.47 68.9651 0)
(1413.91 288.272 -1.17664e-17)
(1181.39 433.613 -1.09944e-17)
(1001.3 509.401 -2.07153e-17)
(869.063 533.755 0)
(768.422 527.617 7.77223e-18)
(681.65 507.758 0)
(596.09 484.315 -9.46275e-18)
(505.452 461.239 3.07297e-18)
(408.355 438.156 -1.12777e-18)
(306.433 413.398 -9.11482e-19)
(201.692 385.406 -6.41738e-18)
(102.328 351.4 5.53901e-18)
(10.1516 315.593 -7.43881e-18)
(-74.6007 274.019 0)
(-145.551 226.941 2.12953e-17)
(-201.089 175.343 0)
(-239.593 121.909 2.50403e-17)
(-260.049 68.0453 -2.58145e-17)
(-262.666 15.8349 -2.58763e-17)
(-250.809 -30.1975 2.55536e-17)
(-221.147 -70.5428 2.47491e-17)
(-175.346 -104.729 0)
(-118.784 -131.482 1.13719e-17)
(-54.4049 -150.186 0)
(14.2737 -161.054 0)
(83.995 -164.656 1.62851e-17)
(151.942 -161.691 0)
(215.921 -153.062 0)
(274.263 -139.859 1.08843e-17)
(325.873 -123.448 0)
(369.896 -104.818 0)
(405.659 -84.6804 0)
(433.262 -65.0274 -1.53613e-17)
(453.484 -44.3611 0)
(465.753 -24.0535 -1.22115e-17)
(470.628 -4.37804 -5.72833e-18)
(468.354 14.5033 -5.64378e-18)
(459.766 32.5735 -2.09245e-19)
(445.257 49.9051 -6.00769e-18)
(425.153 66.4035 1.19821e-17)
(400.173 81.4375 6.03708e-18)
(370.298 93.8326 0)
(334.974 103.815 6.5687e-18)
(294.747 112.157 1.39447e-17)
(251.304 118.7 0)
(205.91 122.718 0)
(159.274 123.741 0)
(112.282 121.877 1.33563e-19)
(66.8688 117.271 0)
(24.7046 109.477 0)
(-13.3221 98.5408 0)