/*--------------------------------*- C++ -*----------------------------------*\
| =========                 |                                                 |
| \\      /  F ield         | OpenFOAM: The Open Source CFD Toolbox           |
|  \\    /   O peration     | Version:  2112                                  |
|   \\  /    A nd           | Website:  www.openfoam.com                      |
|    \\/     M anipulation  |                                                 |
\*---------------------------------------------------------------------------*/
FoamFile
{
    version     2.0;
    format      ascii;
    arch        "LSB;label=32;scalar=64";
    class       surfaceScalarField;
    location    "0.49";
    object      phi_0;
}
// * * * * * * * * * * * * * * * * * * * * * * * * * * * * * * * * * * * * * //

dimensions      [0 3 -1 0 0 0 0];

oriented        oriented;

internalField   nonuniform List<scalar> 
24170
(
3.03983e-06
1.48579e-07
2.8684e-06
1.71423e-07
2.70115e-06
1.67254e-07
2.53702e-06
1.6413e-07
2.38087e-06
1.56153e-07
2.23687e-06
1.43995e-07
2.10744e-06
1.29437e-07
1.99406e-06
1.13376e-07
1.89767e-06
9.63888e-08
1.81864e-06
7.90327e-08
1.75683e-06
6.18096e-08
1.71172e-06
4.51126e-08
1.68248e-06
2.9235e-08
1.66811e-06
1.43745e-08
1.66727e-06
8.33623e-10
1.67824e-06
-1.09696e-08
1.69569e-06
-1.74499e-08
-2.78534e-09
1.69848e-06
3.4947e-06
7.11311e-08
3.55186e-06
1.14263e-07
3.59218e-06
1.26932e-07
3.61602e-06
1.40287e-07
3.62468e-06
1.47491e-07
3.62125e-06
1.47433e-07
3.60897e-06
1.4171e-07
3.59103e-06
1.3132e-07
3.5704e-06
1.17015e-07
3.54974e-06
9.96942e-08
3.53123e-06
8.03212e-08
3.51654e-06
5.97968e-08
3.50693e-06
3.88447e-08
3.50317e-06
1.81355e-08
3.50453e-06
-5.27024e-10
3.51153e-06
-1.79633e-08
3.52483e-06
-3.07545e-08
-4.03546e-08
3.5624e-06
3.67913e-06
5.45146e-08
3.69779e-06
9.56017e-08
3.71888e-06
1.05848e-07
3.74401e-06
1.15157e-07
3.77102e-06
1.20477e-07
3.79846e-06
1.19993e-07
3.82518e-06
1.14991e-07
3.8502e-06
1.06303e-07
3.8729e-06
9.43207e-08
3.89305e-06
7.9542e-08
3.91077e-06
6.25969e-08
3.92639e-06
4.4177e-08
3.9404e-06
2.48387e-08
3.9535e-06
5.03033e-09
3.9671e-06
-1.41241e-08
3.9827e-06
-3.3564e-08
4.00435e-06
-5.23996e-08
-7.4411e-08
4.0384e-06
3.93597e-06
4.39358e-08
3.94714e-06
8.44321e-08
3.95736e-06
9.56248e-08
3.96946e-06
1.03057e-07
3.98304e-06
1.06897e-07
3.99784e-06
1.0519e-07
4.01381e-06
9.902e-08
4.03067e-06
8.94424e-08
4.04804e-06
7.69562e-08
4.06556e-06
6.20227e-08
4.08299e-06
4.51684e-08
4.10025e-06
2.69129e-08
4.11745e-06
7.63816e-09
4.13491e-06
-1.24264e-08
4.15369e-06
-3.29024e-08
4.17469e-06
-5.45646e-08
4.20045e-06
-7.81657e-08
-1.08202e-07
4.23424e-06
4.21567e-06
3.53943e-08
4.22638e-06
7.37235e-08
4.23622e-06
8.57828e-08
4.24725e-06
9.20255e-08
4.25937e-06
9.47801e-08
4.27224e-06
9.23185e-08
4.28586e-06
8.53994e-08
4.30019e-06
7.51129e-08
4.31513e-06
6.20201e-08
4.33059e-06
4.656e-08
4.34654e-06
2.92208e-08
4.36301e-06
1.0434e-08
4.38015e-06
-9.49759e-09
4.39819e-06
-3.04681e-08
4.4178e-06
-5.25085e-08
4.43965e-06
-7.64218e-08
4.46515e-06
-1.03658e-07
-1.38405e-07
4.49535e-06
4.51599e-06
2.84892e-08
4.52642e-06
6.32933e-08
4.53661e-06
7.55925e-08
4.54791e-06
8.07305e-08
4.56039e-06
8.2295e-08
4.57366e-06
7.9053e-08
4.5876e-06
7.14616e-08
4.60216e-06
6.05522e-08
4.61725e-06
4.69226e-08
4.63283e-06
3.09843e-08
4.64888e-06
1.31661e-08
4.66548e-06
-6.16426e-09
4.68277e-06
-2.67802e-08
4.70097e-06
-4.86717e-08
4.72054e-06
-7.2083e-08
4.74193e-06
-9.78115e-08
4.7656e-06
-1.27321e-07
-1.6385e-07
4.79104e-06
4.83838e-06
2.28289e-08
4.84835e-06
5.33241e-08
4.85872e-06
6.52202e-08
4.87018e-06
6.9272e-08
4.88294e-06
6.95368e-08
4.8966e-06
6.53959e-08
4.91096e-06
5.70954e-08
4.92596e-06
4.55526e-08
4.9415e-06
3.13837e-08
4.9575e-06
1.49801e-08
4.97396e-06
-3.29397e-09
4.99093e-06
-2.31296e-08
5.00851e-06
-4.43631e-08
5.02686e-06
-6.70221e-08
5.0462e-06
-9.14215e-08
5.06667e-06
-1.18279e-07
5.08806e-06
-1.48717e-07
-1.8486e-07
5.10907e-06
5.18429e-06
1.81187e-08
5.19369e-06
4.39262e-08
5.20415e-06
5.47635e-08
5.21575e-06
5.76681e-08
5.22871e-06
5.65715e-08
5.24268e-06
5.14336e-08
5.25738e-06
4.23917e-08
5.27272e-06
3.02139e-08
5.2886e-06
1.55069e-08
5.30493e-06
-1.35046e-09
5.32168e-06
-2.00453e-08
5.33886e-06
-4.03163e-08
5.35654e-06
-6.20367e-08
5.37476e-06
-8.52452e-08
5.39355e-06
-1.1021e-07
5.41276e-06
-1.37484e-07
5.43179e-06
-1.67747e-07
-2.02153e-07
5.44908e-06
5.55533e-06
1.41295e-08
5.56413e-06
3.51273e-08
5.57458e-06
4.43124e-08
5.58629e-06
4.595e-08
5.5994e-06
4.34651e-08
5.61358e-06
3.7257e-08
5.62853e-06
2.74408e-08
5.64411e-06
1.46322e-08
5.66022e-06
-5.98534e-10
5.67675e-06
-1.78839e-08
5.69365e-06
-3.69429e-08
5.71088e-06
-5.75509e-08
5.72844e-06
-7.95905e-08
5.74627e-06
-1.03078e-07
5.76423e-06
-1.28171e-07
5.78195e-06
-1.55207e-07
5.79867e-06
-1.8447e-07
-2.16379e-07
5.8129e-06
5.95322e-06
1.06819e-08
5.96144e-06
2.69116e-08
5.97179e-06
3.39657e-08
5.98356e-06
3.41776e-08
5.99674e-06
3.02857e-08
6.01104e-06
2.29537e-08
6.02615e-06
1.2331e-08
6.04188e-06
-1.09973e-09
6.05811e-06
-1.68248e-08
6.07471e-06
-3.44881e-08
6.0916e-06
-5.38296e-08
6.10869e-06
-7.46436e-08
6.1259e-06
-9.68021e-08
6.1431e-06
-1.20272e-07
6.16002e-06
-1.45088e-07
6.17617e-06
-1.71356e-07
6.19077e-06
-1.99071e-07
-2.28182e-07
6.20257e-06
6.37985e-06
7.64318e-09
6.38752e-06
1.92433e-08
6.39767e-06
2.38138e-08
6.40942e-06
2.24248e-08
6.4226e-06
1.71052e-08
6.43694e-06
8.61898e-09
6.4521e-06
-2.83105e-09
6.46787e-06
-1.68655e-08
6.48408e-06
-3.30377e-08
6.5006e-06
-5.10082e-08
6.5173e-06
-7.05272e-08
6.53405e-06
-9.13934e-08
6.5507e-06
-1.13456e-07
6.56705e-06
-1.36618e-07
6.58277e-06
-1.60807e-07
6.59735e-06
-1.85938e-07
6.61007e-06
-2.11797e-07
-2.38099e-07
6.61999e-06
5.74317e-06
5.31122e-09
5.74925e-06
1.31558e-08
5.75762e-06
1.5446e-08
5.76747e-06
1.25752e-08
5.77854e-06
6.03244e-09
5.7906e-06
-3.43451e-09
5.80335e-06
-1.55869e-08
5.8166e-06
-3.01092e-08
5.83017e-06
-4.66116e-08
5.84394e-06
-6.47728e-08
5.85776e-06
-8.43469e-08
5.87149e-06
-1.05129e-07
5.88498e-06
-1.26944e-07
5.89801e-06
-1.49644e-07
5.91028e-06
-1.7308e-07
5.9214e-06
-1.97062e-07
5.93087e-06
-2.21269e-07
-2.45312e-07
5.93809e-06
7.0006e-06
2.86319e-09
7.00717e-06
6.59368e-09
7.01645e-06
6.15793e-09
7.02756e-06
1.47048e-09
7.04008e-06
-6.49335e-09
7.05373e-06
-1.70758e-08
7.06816e-06
-3.00203e-08
7.08311e-06
-4.5065e-08
7.09838e-06
-6.18808e-08
7.11378e-06
-8.01697e-08
7.12912e-06
-9.96887e-08
7.14422e-06
-1.20224e-07
7.15885e-06
-1.41575e-07
7.17275e-06
-1.63547e-07
7.1856e-06
-1.85924e-07
7.19698e-06
-2.08448e-07
7.20647e-06
-2.30755e-07
-2.52432e-07
7.21359e-06
8.53339e-06
3.19392e-10
8.54035e-06
-3.66736e-10
8.55046e-06
-3.94927e-09
8.56273e-06
-1.08048e-08
8.57664e-06
-2.03954e-08
8.59177e-06
-3.22148e-08
8.60777e-06
-4.60191e-08
8.6243e-06
-6.15927e-08
8.64109e-06
-7.86656e-08
8.65789e-06
-9.6969e-08
8.67446e-06
-1.16265e-07
8.69057e-06
-1.3633e-07
8.70594e-06
-1.56945e-07
8.72027e-06
-1.7788e-07
8.73323e-06
-1.98884e-07
8.74445e-06
-2.1967e-07
8.75359e-06
-2.39891e-07
-2.59186e-07
8.76034e-06
1.04019e-05
-2.33348e-09
1.04091e-05
-7.62666e-09
1.04199e-05
-1.46925e-08
1.04331e-05
-2.40307e-08
1.04481e-05
-3.54364e-08
1.04645e-05
-4.85836e-08
1.04818e-05
-6.32734e-08
1.04995e-05
-7.93346e-08
1.05174e-05
-9.65534e-08
1.05351e-05
-1.14697e-07
1.05524e-05
-1.33538e-07
1.05689e-05
-1.52855e-07
1.05844e-05
-1.72421e-07
1.05985e-05
-1.91996e-07
1.0611e-05
-2.1133e-07
1.06214e-05
-2.30153e-07
1.06297e-05
-2.48172e-07
-2.65122e-07
1.06357e-05
1.26795e-05
-5.02038e-09
1.26869e-05
-1.50294e-08
1.2698e-05
-2.58021e-08
1.27118e-05
-3.78538e-08
1.27276e-05
-5.12031e-08
1.27447e-05
-6.57027e-08
1.27627e-05
-8.12298e-08
1.2781e-05
-9.76645e-08
1.27993e-05
-1.14847e-07
1.28172e-05
-1.32588e-07
1.28343e-05
-1.50684e-07
1.28504e-05
-1.6893e-07
1.28651e-05
-1.87112e-07
1.28781e-05
-2.05011e-07
1.28892e-05
-2.22408e-07
1.28981e-05
-2.39083e-07
1.29048e-05
-2.54817e-07
-2.6945e-07
1.29091e-05
1.54558e-05
-7.6727e-09
1.54632e-05
-2.23859e-08
1.54743e-05
-3.69164e-08
1.54882e-05
-5.17502e-08
1.5504e-05
-6.70475e-08
1.55212e-05
-8.28175e-08
1.5539e-05
-9.9032e-08
1.55569e-05
-1.15633e-07
1.55746e-05
-1.32519e-07
1.55916e-05
-1.49549e-07
1.56074e-05
-1.66562e-07
1.56219e-05
-1.83388e-07
1.56346e-05
-1.99848e-07
1.56454e-05
-2.15766e-07
1.5654e-05
-2.30974e-07
1.56602e-05
-2.45318e-07
1.5664e-05
-2.5865e-07
-2.70902e-07
1.56655e-05
1.88402e-05
-1.02248e-08
1.88473e-05
-2.94753e-08
1.8858e-05
-4.76206e-08
1.88713e-05
-6.50913e-08
1.88864e-05
-8.21501e-08
1.89026e-05
-9.89487e-08
1.89191e-05
-1.15564e-07
1.89355e-05
-1.32011e-07
1.89512e-05
-1.48251e-07
1.89659e-05
-1.64205e-07
1.89791e-05
-1.79765e-07
1.89905e-05
-1.94809e-07
1.89998e-05
-2.09209e-07
1.90069e-05
-2.22842e-07
1.90115e-05
-2.35597e-07
1.90136e-05
-2.47382e-07
1.90131e-05
-2.58114e-07
-2.6779e-07
1.901e-05
2.29657e-05
-1.25624e-08
2.29723e-05
-3.61057e-08
2.29822e-05
-5.75437e-08
2.29944e-05
-7.72562e-08
2.30079e-05
-9.5639e-08
2.30219e-05
-1.13014e-07
2.3036e-05
-1.29579e-07
2.30494e-05
-1.45431e-07
2.30617e-05
-1.60605e-07
2.30726e-05
-1.75088e-07
2.30817e-05
-1.88829e-07
2.30886e-05
-2.01756e-07
2.30932e-05
-2.13789e-07
2.30952e-05
-2.24856e-07
2.30945e-05
-2.34895e-07
2.3091e-05
-2.43865e-07
2.30846e-05
-2.51737e-07
-2.58548e-07
2.30754e-05
1.68122e-05
-1.40505e-08
1.68164e-05
-4.02819e-08
1.68224e-05
-6.35737e-08
1.68295e-05
-8.43216e-08
1.6837e-05
-1.03134e-07
1.68444e-05
-1.20504e-07
1.68516e-05
-1.36707e-07
1.6858e-05
-1.51894e-07
1.68636e-05
-1.66157e-07
1.6868e-05
-1.79526e-07
1.68712e-05
-1.91982e-07
1.68729e-05
-2.03472e-07
1.6873e-05
-2.13937e-07
1.68715e-05
-2.23321e-07
1.68682e-05
-2.31582e-07
1.6863e-05
-2.387e-07
1.6856e-05
-2.44666e-07
-2.49532e-07
1.68469e-05
1.46359e-05
-1.5405e-08
1.46396e-05
-4.39444e-08
1.46445e-05
-6.85367e-08
1.465e-05
-8.97244e-08
1.46553e-05
-1.08504e-07
1.46604e-05
-1.25566e-07
1.46649e-05
-1.41231e-07
1.46687e-05
-1.55692e-07
1.46716e-05
-1.69096e-07
1.46736e-05
-1.8151e-07
1.46746e-05
-1.92927e-07
1.46744e-05
-2.033e-07
1.4673e-05
-2.12571e-07
1.46704e-05
-2.20687e-07
1.46664e-05
-2.27604e-07
1.4661e-05
-2.33306e-07
1.46542e-05
-2.37796e-07
-2.41122e-07
1.46458e-05
1.27416e-05
-1.68587e-08
1.27453e-05
-4.76558e-08
1.27499e-05
-7.31002e-08
1.27543e-05
-9.42131e-08
1.27585e-05
-1.12612e-07
1.2762e-05
-1.29142e-07
1.27649e-05
-1.44122e-07
1.2767e-05
-1.57809e-07
1.27684e-05
-1.70416e-07
1.27689e-05
-1.82031e-07
1.27686e-05
-1.92643e-07
1.27675e-05
-2.02199e-07
1.27656e-05
-2.10627e-07
1.27627e-05
-2.17857e-07
1.27589e-05
-2.23829e-07
1.27542e-05
-2.28512e-07
1.27483e-05
-2.31905e-07
-2.34038e-07
1.27412e-05
1.10927e-05
-1.86582e-08
1.10969e-05
-5.18492e-08
1.11014e-05
-7.76155e-08
1.11054e-05
-9.81704e-08
1.11088e-05
-1.15969e-07
1.11114e-05
-1.31834e-07
1.11133e-05
-1.46028e-07
1.11144e-05
-1.58909e-07
1.11148e-05
-1.70767e-07
1.11145e-05
-1.81703e-07
1.11135e-05
-1.91697e-07
1.1112e-05
-2.00679e-07
1.11099e-05
-2.08557e-07
1.11073e-05
-2.1523e-07
1.11041e-05
-2.20607e-07
1.11002e-05
-2.24625e-07
1.10956e-05
-2.27266e-07
-2.28536e-07
1.10901e-05
9.65766e-06
-2.10989e-08
9.66269e-06
-5.68822e-08
9.66732e-06
-8.22479e-08
9.67091e-06
-1.01759e-07
9.67372e-06
-1.18779e-07
9.67573e-06
-1.33847e-07
9.67688e-06
-1.47174e-07
9.67723e-06
-1.5926e-07
9.67691e-06
-1.70444e-07
9.67602e-06
-1.80819e-07
9.67468e-06
-1.90357e-07
9.67297e-06
-1.98973e-07
9.67096e-06
-2.06545e-07
9.66866e-06
-2.12931e-07
9.66605e-06
-2.17996e-07
9.66306e-06
-2.21632e-07
9.65958e-06
-2.23788e-07
-2.24427e-07
9.65547e-06
8.40878e-06
-2.45216e-08
8.41477e-06
-6.28758e-08
8.41956e-06
-8.70441e-08
8.42307e-06
-1.05265e-07
8.42569e-06
-1.21399e-07
8.42732e-06
-1.35474e-07
8.42793e-06
-1.47786e-07
8.42768e-06
-1.59011e-07
8.42674e-06
-1.69506e-07
8.42527e-06
-1.79344e-07
8.4234e-06
-1.88488e-07
8.42127e-06
-1.96843e-07
8.41898e-06
-2.04255e-07
8.41659e-06
-2.10542e-07
8.41412e-06
-2.1552e-07
8.41151e-06
-2.19025e-07
8.40869e-06
-2.20974e-07
-2.21213e-07
8.40548e-06
7.3223e-06
-2.95357e-08
7.32899e-06
-6.95651e-08
7.33341e-06
-9.14623e-08
7.33652e-06
-1.08381e-07
7.33877e-06
-1.23645e-07
7.33992e-06
-1.36625e-07
7.34002e-06
-1.47886e-07
7.33927e-06
-1.58262e-07
7.33788e-06
-1.68119e-07
7.33609e-06
-1.77545e-07
7.33412e-06
-1.86518e-07
7.33222e-06
-1.94946e-07
7.33062e-06
-2.02658e-07
7.32952e-06
-2.09436e-07
7.32905e-06
-2.1505e-07
7.32929e-06
-2.19274e-07
7.33027e-06
-2.21951e-07
-2.22795e-07
7.33185e-06
6.37754e-06
-3.70079e-08
6.38543e-06
-7.74578e-08
6.38975e-06
-9.57782e-08
6.39292e-06
-1.1155e-07
6.39548e-06
-1.26204e-07
6.39747e-06
-1.38622e-07
6.39929e-06
-1.49701e-07
6.40131e-06
-1.60284e-07
6.40389e-06
-1.70698e-07
6.4074e-06
-1.81061e-07
6.41225e-06
-1.9136e-07
6.41877e-06
-2.01473e-07
6.42727e-06
-2.11156e-07
6.43791e-06
-2.20076e-07
6.4507e-06
-2.27843e-07
6.46553e-06
-2.34102e-07
6.48205e-06
-2.38468e-07
-2.40702e-07
6.49995e-06
5.55622e-06
-4.77682e-08
5.56953e-06
-9.07638e-08
5.58199e-06
-1.08232e-07
5.59689e-06
-1.26453e-07
5.61384e-06
-1.4316e-07
5.63235e-06
-1.57127e-07
5.65221e-06
-1.69566e-07
5.67321e-06
-1.81285e-07
5.69502e-06
-1.92503e-07
5.71723e-06
-2.03275e-07
5.73938e-06
-2.13509e-07
5.76089e-06
-2.22981e-07
5.78108e-06
-2.31342e-07
5.79918e-06
-2.38177e-07
5.81439e-06
-2.4306e-07
5.82598e-06
-2.45691e-07
5.8333e-06
-2.45786e-07
-2.43721e-07
5.83632e-06
4.89339e-06
-1.13547e-07
4.95214e-06
-1.49517e-07
5.00165e-06
-1.5774e-07
5.04059e-06
-1.65392e-07
5.06684e-06
-1.69415e-07
5.08019e-06
-1.70473e-07
5.08098e-06
-1.70359e-07
5.06955e-06
-1.69859e-07
5.04625e-06
-1.69194e-07
5.01138e-06
-1.68405e-07
4.96527e-06
-1.674e-07
4.90829e-06
-1.66001e-07
4.84091e-06
-1.6397e-07
4.7638e-06
-1.61067e-07
4.67783e-06
-1.57086e-07
4.58408e-06
-1.51944e-07
4.48385e-06
-1.45554e-07
-1.38253e-07
4.37838e-06
4.08913e-06
3.93961e-06
3.78187e-06
3.61648e-06
3.44707e-06
3.27659e-06
3.10623e-06
2.93637e-06
2.76718e-06
2.59878e-06
2.43138e-06
2.26537e-06
2.1014e-06
1.94034e-06
1.78325e-06
1.63131e-06
1.48575e-06
1.3475e-06
-1.49005e-07
1.49005e-07
-2.63068e-07
1.14063e-07
-2.64161e-07
1.09278e-09
-1.97506e-07
-6.66549e-08
-1.58322e-07
-3.91835e-08
-1.66311e-07
7.98863e-09
-1.99632e-07
3.33211e-08
-2.56543e-07
5.69103e-08
-3.52058e-07
9.5515e-08
-5.06368e-07
1.54311e-07
-7.35437e-07
2.29069e-07
-1.04621e-06
3.10768e-07
-1.43521e-06
3.89003e-07
-1.89042e-06
4.55212e-07
-2.39481e-06
5.04391e-07
-2.92932e-06
5.34508e-07
-3.47441e-06
5.4509e-07
-4.01124e-06
5.36825e-07
-4.52266e-06
5.11428e-07
-4.99326e-06
4.70594e-07
-5.40955e-06
4.16291e-07
-5.76064e-06
3.51093e-07
-6.03839e-06
2.77747e-07
-6.23715e-06
1.9876e-07
-6.35336e-06
1.16212e-07
-6.38594e-06
3.25846e-08
-6.34352e-06
-4.24196e-08
-6.23133e-06
-1.12191e-07
-6.05464e-06
-1.76691e-07
-5.81887e-06
-2.35772e-07
-5.52917e-06
-2.89698e-07
-5.19073e-06
-3.38442e-07
-4.80878e-06
-3.8195e-07
-4.38844e-06
-4.2034e-07
-3.93459e-06
-4.53849e-07
-3.45177e-06
-4.82818e-07
-2.94407e-06
-5.07703e-07
-2.41492e-06
-5.29145e-07
-1.86695e-06
-5.47979e-07
-1.30169e-06
-5.65254e-07
-7.19442e-07
-5.8225e-07
-1.19348e-07
-6.00093e-07
5.00099e-07
-6.19448e-07
1.1406e-06
-6.40496e-07
1.80362e-06
-6.63025e-07
2.48881e-06
-6.85192e-07
3.19104e-06
-7.02224e-07
3.8977e-06
-7.06659e-07
4.58786e-06
-6.90162e-07
5.23525e-06
-6.47393e-07
5.79258e-06
-5.57333e-07
6.12981e-06
-3.3723e-07
6.0367e-06
9.31109e-08
5.43894e-06
5.97763e-07
4.56739e-06
8.71546e-07
3.7467e-06
8.2069e-07
3.14215e-06
6.04549e-07
2.73921e-06
4.02948e-07
2.47332e-06
2.65885e-07
2.24319e-06
2.30133e-07
1.9365e-06
3.0669e-07
1.54239e-06
3.94106e-07
1.1541e-06
3.88291e-07
9.1888e-07
2.35222e-07
9.92978e-07
-7.40986e-08
1.47694e-06
-4.83958e-07
2.38051e-06
-9.03573e-07
3.4562e-06
-1.07569e-06
4.17047e-06
-7.14272e-07
4.09623e-06
7.42371e-08
3.46269e-06
6.33546e-07
2.88239e-06
5.80302e-07
2.6813e-06
2.01087e-07
2.83629e-06
-1.54996e-07
3.12554e-06
-2.89241e-07
3.28761e-06
-1.62071e-07
3.20287e-06
8.47325e-08
2.86577e-06
3.37105e-07
2.25165e-06
6.14115e-07
1.35158e-06
9.00074e-07
2.22134e-07
1.12945e-06
-1.04766e-06
1.2698e-06
-2.37044e-06
1.32277e-06
-3.67111e-06
1.30067e-06
-4.8939e-06
1.22279e-06
-6.00003e-06
1.10613e-06
-6.96479e-06
9.64763e-07
-7.77633e-06
8.1154e-07
-8.43068e-06
6.5435e-07
-8.92871e-06
4.98029e-07
-9.27485e-06
3.46135e-07
-9.47527e-06
2.00429e-07
-9.53745e-06
6.21779e-08
-9.48269e-06
-5.4759e-08
-9.3256e-06
-1.57096e-07
-9.07505e-06
-2.50546e-07
-8.73708e-06
-3.37974e-07
-8.31586e-06
-4.21212e-07
-7.81505e-06
-5.00818e-07
-7.23833e-06
-5.76712e-07
-6.59007e-06
-6.48261e-07
-5.87549e-06
-7.14587e-07
-5.10136e-06
-7.74125e-07
-4.27657e-06
-8.24789e-07
-3.41233e-06
-8.64241e-07
-2.52221e-06
-8.90121e-07
-1.62168e-06
-9.00533e-07
-7.26538e-07
-8.95141e-07
1.49632e-07
-8.7617e-07
9.94219e-07
-8.44588e-07
1.79418e-06
-7.99959e-07
2.53653e-06
-7.4235e-07
3.21017e-06
-6.73642e-07
3.80664e-06
-5.96473e-07
4.31938e-06
-5.1274e-07
4.74288e-06
-4.235e-07
5.07247e-06
-3.29582e-07
5.30455e-06
-2.32083e-07
5.4319e-06
-1.27347e-07
5.4433e-06
-1.14035e-08
5.34816e-06
9.51353e-08
5.17964e-06
1.68528e-07
4.97219e-06
2.07445e-07
4.75094e-06
2.21253e-07
4.5304e-06
2.20541e-07
4.31692e-06
2.13478e-07
4.11178e-06
2.05134e-07
3.91408e-06
1.97706e-07
3.72258e-06
1.91498e-07
3.53701e-06
1.85573e-07
3.35838e-06
1.78627e-07
3.18845e-06
1.69927e-07
3.02966e-06
1.58797e-07
2.88465e-06
1.45005e-07
2.75559e-06
1.29064e-07
2.64334e-06
1.12244e-07
2.54722e-06
9.61179e-08
2.46531e-06
8.19186e-08
2.39511e-06
7.01935e-08
2.3343e-06
6.08093e-08
2.28102e-06
5.32798e-08
2.23383e-06
4.71939e-08
2.19161e-06
4.22231e-08
2.15355e-06
3.80575e-08
2.11908e-06
3.44676e-08
2.08767e-06
3.14063e-08
2.05857e-06
2.91031e-08
2.03058e-06
2.7996e-08
2.00199e-06
2.85846e-08
1.97071e-06
3.1284e-08
1.93445e-06
3.62581e-08
1.89114e-06
4.33122e-08
1.8392e-06
5.19384e-08
1.77763e-06
6.15732e-08
1.70574e-06
7.18888e-08
1.62286e-06
8.28811e-08
1.52827e-06
9.45872e-08
1.42183e-06
1.06443e-07
1.30543e-06
1.16397e-07
1.18526e-06
1.20173e-07
1.07341e-06
1.11847e-07
9.8658e-07
8.68288e-08
9.40551e-07
4.60283e-08
9.44409e-07
-3.85798e-09
9.99521e-07
-5.51117e-08
1.11106e-06
-1.11541e-07
1.29112e-06
-1.80055e-07
1.5598e-06
-2.68686e-07
1.92173e-06
-3.61931e-07
2.29565e-06
-3.73912e-07
2.51893e-06
-2.23282e-07
2.45701e-06
6.19229e-08
1.93265e-06
5.24353e-07
7.63048e-07
1.1696e-06
-8.19248e-07
1.5823e-06
-2.38534e-06
1.56609e-06
-3.63655e-06
1.25121e-06
-4.43091e-06
7.94361e-07
-4.74817e-06
3.17264e-07
-2.45898e-07
-4.50228e-06
-1.91904e-07
3.40909e-07
-3.02863e-07
2.25022e-07
-3.21019e-07
1.92487e-08
-3.91221e-07
3.54712e-09
-5.57347e-07
1.26942e-07
-7.96676e-07
2.47318e-07
-1.10698e-06
3.43623e-07
-1.48901e-06
4.38943e-07
-1.94039e-06
5.46892e-07
-2.44954e-06
6.6346e-07
-2.99767e-06
7.77206e-07
-3.5639e-06
8.76993e-07
-4.12886e-06
9.53964e-07
-4.67591e-06
1.00226e-06
-5.19093e-06
1.01941e-06
-5.66224e-06
1.00581e-06
-6.08101e-06
9.63867e-07
-6.44144e-06
8.97249e-07
-6.74031e-06
8.10303e-07
-6.97712e-06
7.07403e-07
-7.15345e-06
5.92616e-07
-7.27216e-06
4.69806e-07
-7.33659e-06
3.42175e-07
-7.3503e-06
2.12473e-07
-7.31764e-06
8.35531e-08
-7.24035e-06
-4.47109e-08
-7.11231e-06
-1.70454e-07
-6.93212e-06
-2.92381e-07
-6.69943e-06
-4.09388e-07
-6.41555e-06
-5.19645e-07
-6.08362e-06
-6.21627e-07
-5.7078e-06
-7.14265e-07
-5.29274e-06
-7.9701e-07
-4.84334e-06
-8.69742e-07
-4.36472e-06
-9.32464e-07
-3.8617e-06
-9.85846e-07
-3.33861e-06
-1.03079e-06
-2.79915e-06
-1.06861e-06
-2.24611e-06
-1.10101e-06
-1.68143e-06
-1.12994e-06
-1.10619e-06
-1.15749e-06
-5.2053e-07
-1.18575e-06
7.65954e-08
-1.21657e-06
6.87645e-07
-1.25155e-06
1.31509e-06
-1.29047e-06
1.96165e-06
-1.33175e-06
2.63051e-06
-1.37108e-06
3.32392e-06
-1.40007e-06
4.03911e-06
-1.40535e-06
4.76179e-06
-1.37008e-06
5.48237e-06
-1.27791e-06
6.24577e-06
-1.10063e-06
7.09832e-06
-7.59442e-07
7.91417e-06
-2.18082e-07
8.40227e-06
3.83441e-07
8.32417e-06
8.98793e-07
7.65104e-06
1.27767e-06
6.59996e-06
1.45403e-06
5.48656e-06
1.37928e-06
4.5247e-06
1.19199e-06
3.72904e-06
1.10235e-06
2.99663e-06
1.12651e-06
2.30287e-06
1.08206e-06
1.74543e-06
7.92656e-07
1.49645e-06
1.74882e-07
1.61273e-06
-6.00232e-07
2.15233e-06
-1.44318e-06
3.04133e-06
-1.96469e-06
4.1189e-06
-1.79184e-06
5.08021e-06
-8.87071e-07
5.49474e-06
2.19018e-07
5.24554e-06
8.29497e-07
4.69443e-06
7.52199e-07
4.25236e-06
2.87077e-07
3.91598e-06
4.71311e-08
3.38172e-06
3.72194e-07
2.42085e-06
1.0456e-06
1.0388e-06
1.71916e-06
-6.07336e-07
2.26025e-06
-2.32369e-06
2.61642e-06
-3.96814e-06
2.7739e-06
-5.45047e-06
2.75212e-06
-6.72023e-06
2.59254e-06
-7.76224e-06
2.34268e-06
-8.58469e-06
2.04524e-06
-9.21064e-06
1.73208e-06
-9.6695e-06
1.42362e-06
-9.9893e-06
1.13134e-06
-1.01953e-05
8.60382e-07
-1.03086e-05
6.11272e-07
-1.03443e-05
3.81837e-07
-1.03137e-05
1.69869e-07
-1.02232e-05
-2.82987e-08
-1.00629e-05
-2.15086e-07
-9.82455e-06
-3.95459e-07
-9.50637e-06
-5.68726e-07
-9.10942e-06
-7.34923e-07
-8.63604e-06
-8.94596e-07
-8.08874e-06
-1.04811e-06
-7.4702e-06
-1.19525e-06
-6.78357e-06
-1.33489e-06
-6.03326e-06
-1.4649e-06
-5.22538e-06
-1.582e-06
-4.368e-06
-1.68217e-06
-3.47125e-06
-1.76099e-06
-2.54722e-06
-1.81415e-06
-1.60931e-06
-1.83845e-06
-6.71673e-07
-1.83278e-06
2.50928e-07
-1.79877e-06
1.1442e-06
-1.73786e-06
1.99687e-06
-1.65263e-06
2.80022e-06
-1.5457e-06
3.54715e-06
-1.42056e-06
4.23177e-06
-1.28109e-06
4.84944e-06
-1.13041e-06
5.39677e-06
-9.70838e-07
5.87179e-06
-8.04598e-07
6.2734e-06
-6.33691e-07
6.6066e-06
-4.6055e-07
6.8842e-06
-2.89002e-07
7.10207e-06
-1.22732e-07
7.2387e-06
3.18949e-08
7.28061e-06
1.65538e-07
7.231e-06
2.70863e-07
7.1027e-06
3.48835e-07
6.9136e-06
4.02577e-07
6.68274e-06
4.35999e-07
6.4278e-06
4.52646e-07
6.16377e-06
4.55523e-07
5.90199e-06
4.4736e-07
5.65002e-06
4.30592e-07
5.41263e-06
4.07319e-07
5.19225e-06
3.79178e-07
4.98971e-06
3.47542e-07
4.8049e-06
3.13877e-07
4.63721e-06
2.79928e-07
4.48578e-06
2.47555e-07
4.34939e-06
2.18309e-07
4.22653e-06
1.93049e-07
4.11549e-06
1.71853e-07
4.01454e-06
1.54228e-07
3.92235e-06
1.3938e-07
3.83819e-06
1.26385e-07
3.76192e-06
1.14333e-07
3.69381e-06
1.02572e-07
3.63424e-06
9.09795e-08
3.5832e-06
8.01444e-08
3.53999e-06
7.12055e-08
3.50314e-06
6.54374e-08
3.47058e-06
6.38401e-08
3.43999e-06
6.68483e-08
3.40901e-06
7.42866e-08
3.3754e-06
8.55532e-08
3.33705e-06
9.99204e-08
3.29215e-06
1.1679e-07
3.23923e-06
1.35801e-07
3.17721e-06
1.56609e-07
3.10539e-06
1.7826e-07
3.02356e-06
1.98234e-07
2.93208e-06
2.11649e-07
2.83224e-06
2.11692e-07
2.72665e-06
1.92414e-07
2.61986e-06
1.52815e-07
2.52043e-06
9.55792e-08
2.44517e-06
2.01439e-08
2.41341e-06
-7.97841e-08
2.44382e-06
-2.10466e-07
2.56697e-06
-3.91831e-07
2.81944e-06
-6.14406e-07
3.14434e-06
-6.98805e-07
3.27914e-06
-3.58083e-07
2.77494e-06
5.66118e-07
1.27862e-06
2.02068e-06
-8.21117e-07
3.26934e-06
-2.72349e-06
3.48467e-06
-4.04773e-06
2.89033e-06
-4.81022e-06
2.0137e-06
-5.15987e-06
1.14402e-06
-5.2042e-06
3.61588e-07
-5.11291e-07
-4.9388e-06
-1.83118e-07
5.24027e-07
-3.11179e-07
3.53083e-07
-4.64417e-07
1.72487e-07
-7.45181e-07
2.84311e-07
-1.11402e-06
4.95784e-07
-1.54175e-06
6.75045e-07
-2.02855e-06
8.30421e-07
-2.56593e-06
9.76323e-07
-3.13247e-06
1.11343e-06
-3.70317e-06
1.23416e-06
-4.25581e-06
1.32985e-06
-4.77354e-06
1.39472e-06
-5.24589e-06
1.42632e-06
-5.66859e-06
1.42496e-06
-6.04217e-06
1.39299e-06
-6.3702e-06
1.33384e-06
-6.65762e-06
1.25129e-06
-6.90913e-06
1.14876e-06
-7.12793e-06
1.02911e-06
-7.31502e-06
8.94495e-07
-7.46902e-06
7.46615e-07
-7.58622e-06
5.87006e-07
-7.6614e-06
4.17348e-07
-7.68863e-06
2.39711e-07
-7.66277e-06
5.76925e-08
-7.57781e-06
-1.29679e-07
-7.43227e-06
-3.15992e-07
-7.22646e-06
-4.98186e-07
-6.96301e-06
-6.72836e-07
-6.64575e-06
-8.36909e-07
-6.2795e-06
-9.87881e-07
-5.86981e-06
-1.12396e-06
-5.42279e-06
-1.24402e-06
-4.94504e-06
-1.3475e-06
-4.44278e-06
-1.43472e-06
-3.92159e-06
-1.50703e-06
-3.38644e-06
-1.56594e-06
-2.8416e-06
-1.61345e-06
-2.29068e-06
-1.65193e-06
-1.73632e-06
-1.6843e-06
-1.18052e-06
-1.71329e-06
-6.24229e-07
-1.74204e-06
-6.72886e-08
-1.77351e-06
4.91513e-07
-1.81035e-06
1.05469e-06
-1.85365e-06
1.62586e-06
-1.90292e-06
2.21029e-06
-1.95551e-06
2.81491e-06
-2.00469e-06
3.44707e-06
-2.03751e-06
4.10984e-06
-2.03285e-06
4.79466e-06
-1.96272e-06
5.49151e-06
-1.79748e-06
6.24054e-06
-1.50847e-06
7.10629e-06
-1.08383e-06
8.01733e-06
-5.27609e-07
8.76533e-06
1.50797e-07
9.12317e-06
9.19837e-07
8.92578e-06
1.65141e-06
8.14924e-06
2.15582e-06
7.01195e-06
2.32929e-06
5.8585e-06
2.25581e-06
4.87881e-06
2.1062e-06
4.05946e-06
1.90141e-06
3.35809e-06
1.49402e-06
2.77836e-06
7.54619e-07
2.47299e-06
-2.94863e-07
2.5281e-06
-1.49829e-06
2.96752e-06
-2.40411e-06
3.62617e-06
-2.45049e-06
4.29555e-06
-1.55645e-06
4.7436e-06
-2.2903e-07
4.79169e-06
7.81411e-07
4.52465e-06
1.01923e-06
3.97437e-06
8.37363e-07
2.95807e-06
1.06343e-06
1.43641e-06
1.89385e-06
-3.47531e-07
2.82954e-06
-2.15451e-06
3.52614e-06
-3.81649e-06
3.92223e-06
-5.23379e-06
4.03373e-06
-6.37331e-06
3.91342e-06
-7.25397e-06
3.63278e-06
-7.92374e-06
3.26231e-06
-8.43845e-06
2.8574e-06
-8.84664e-06
2.45342e-06
-9.1823e-06
2.06775e-06
-9.46405e-06
1.70536e-06
-9.69758e-06
1.36487e-06
-9.87987e-06
1.04267e-06
-1.00038e-05
7.35211e-07
-1.00619e-05
4.39931e-07
-1.00464e-05
1.54361e-07
-9.95506e-06
-1.19629e-07
-9.7847e-06
-3.85444e-07
-9.53769e-06
-6.42469e-07
-9.21612e-06
-8.90302e-07
-8.82155e-06
-1.12949e-06
-8.35554e-06
-1.3606e-06
-7.81964e-06
-1.58402e-06
-7.21541e-06
-1.79948e-06
-6.54482e-06
-2.00549e-06
-5.81115e-06
-2.19856e-06
-5.01946e-06
-2.3737e-06
-4.1771e-06
-2.52453e-06
-3.29404e-06
-2.64405e-06
-2.38262e-06
-2.72557e-06
-1.45691e-06
-2.76415e-06
-5.31924e-07
-2.75776e-06
3.77011e-07
-2.70771e-06
1.25598e-06
-2.61683e-06
2.09402e-06
-2.49067e-06
2.88317e-06
-2.33485e-06
3.61766e-06
-2.15505e-06
4.29321e-06
-1.95664e-06
4.90685e-06
-1.74405e-06
5.45694e-06
-1.52093e-06
5.94338e-06
-1.29103e-06
6.3673e-06
-1.05762e-06
6.73055e-06
-8.23793e-07
7.03567e-06
-5.94126e-07
7.28771e-06
-3.74774e-07
7.49103e-06
-1.71419e-07
7.64332e-06
1.32429e-08
7.73806e-06
1.76127e-07
7.77014e-06
3.16752e-07
7.73919e-06
4.3353e-07
7.64942e-06
5.25767e-07
7.509e-06
5.93063e-07
7.32873e-06
6.35793e-07
7.12067e-06
6.55419e-07
6.89677e-06
6.54493e-07
6.66764e-06
6.36454e-07
6.44164e-06
6.05182e-07
6.22458e-06
5.646e-07
6.01998e-06
5.18473e-07
5.82964e-06
4.70271e-07
5.6542e-06
4.22991e-07
5.4936e-06
3.78914e-07
5.34721e-06
3.39439e-07
5.214e-06
3.05064e-07
5.0927e-06
2.75521e-07
4.98208e-06
2.50002e-07
4.88105e-06
2.2741e-07
4.78878e-06
2.06604e-07
4.70471e-06
1.8665e-07
4.62852e-06
1.67161e-07
4.56012e-06
1.48554e-07
4.49931e-06
1.3201e-07
4.44563e-06
1.1912e-07
4.39815e-06
1.11323e-07
4.35558e-06
1.09418e-07
4.31644e-06
1.13423e-07
4.27921e-06
1.22778e-07
4.24244e-06
1.36696e-07
4.20479e-06
1.54441e-07
4.16516e-06
1.7543e-07
4.12271e-06
1.99052e-07
4.07678e-06
2.24199e-07
4.02643e-06
2.48582e-07
3.96999e-06
2.68087e-07
3.90471e-06
2.76975e-07
3.82734e-06
2.69782e-07
3.73621e-06
2.4394e-07
3.63354e-06
1.98257e-07
3.52488e-06
1.28802e-07
3.41413e-06
3.09601e-08
3.30953e-06
-1.05868e-07
3.24607e-06
-3.28362e-07
3.28679e-06
-6.55129e-07
3.38341e-06
-7.95425e-07
3.17067e-06
-1.45342e-07
2.06325e-06
1.67354e-06
4.0352e-08
4.04357e-06
-1.94256e-06
5.25225e-06
-3.28941e-06
4.83153e-06
-4.13479e-06
3.7357e-06
-4.70112e-06
2.58003e-06
-5.05648e-06
1.49938e-06
-5.13837e-06
4.43477e-07
-7.12461e-07
-4.9372e-06
-2.10406e-07
7.34433e-07
-4.20804e-07
5.63481e-07
-7.4043e-07
4.92113e-07
-1.16269e-06
7.06569e-07
-1.62905e-06
9.62147e-07
-2.13252e-06
1.17851e-06
-2.66561e-06
1.36351e-06
-3.21041e-06
1.52113e-06
-3.7455e-06
1.64852e-06
-4.25355e-06
1.74221e-06
-4.7248e-06
1.8011e-06
-5.15695e-06
1.82687e-06
-5.55342e-06
1.82279e-06
-5.92089e-06
1.79244e-06
-6.26657e-06
1.73866e-06
-6.59585e-06
1.66313e-06
-6.91083e-06
1.56626e-06
-7.20971e-06
1.44765e-06
-7.48715e-06
1.30655e-06
-7.73518e-06
1.14252e-06
-7.94446e-06
9.55899e-07
-8.10555e-06
7.48088e-07
-8.20985e-06
5.21652e-07
-8.25033e-06
2.80191e-07
-8.22382e-06
3.11852e-08
-8.1241e-06
-2.29403e-07
-7.95287e-06
-4.8722e-07
-7.71138e-06
-7.39673e-07
-7.40293e-06
-9.81287e-07
-7.03282e-06
-1.20702e-06
-6.60812e-06
-1.41258e-06
-6.13734e-06
-1.59474e-06
-5.62985e-06
-1.75152e-06
-5.0949e-06
-1.88244e-06
-4.54097e-06
-1.98865e-06
-3.97579e-06
-2.07221e-06
-3.40542e-06
-2.13631e-06
-2.83428e-06
-2.18459e-06
-2.26555e-06
-2.22066e-06
-1.70155e-06
-2.2483e-06
-1.14432e-06
-2.27052e-06
-5.95197e-07
-2.29117e-06
-5.49151e-08
-2.31379e-06
4.76691e-07
-2.34195e-06
1.00085e-06
-2.37781e-06
1.52048e-06
-2.42255e-06
2.04077e-06
-2.47581e-06
2.57e-06
-2.53391e-06
3.12065e-06
-2.58815e-06
3.70815e-06
-2.62035e-06
4.34334e-06
-2.59792e-06
5.02404e-06
-2.47818e-06
5.73637e-06
-2.2208e-06
6.46122e-06
-1.80868e-06
7.19746e-06
-1.26385e-06
7.96066e-06
-6.12401e-07
8.70591e-06
1.74593e-07
9.24119e-06
1.11613e-06
9.31335e-06
2.08366e-06
8.81668e-06
2.82596e-06
7.90426e-06
3.16823e-06
6.87436e-06
3.1361e-06
5.93667e-06
2.8391e-06
5.1284e-06
2.30229e-06
4.40402e-06
1.479e-06
3.78044e-06
3.2872e-07
3.37752e-06
-1.09537e-06
3.32913e-06
-2.35572e-06
3.54027e-06
-2.66163e-06
3.74717e-06
-1.76335e-06
3.84073e-06
-3.22592e-07
3.80927e-06
8.12877e-07
3.46495e-06
1.36355e-06
2.46229e-06
1.84003e-06
7.7776e-07
2.74796e-06
-1.13615e-06
3.80777e-06
-2.89543e-06
4.58882e-06
-4.36106e-06
4.99176e-06
-5.49298e-06
5.05415e-06
-6.32093e-06
4.86168e-06
-6.9191e-06
4.51159e-06
-7.37255e-06
4.08623e-06
-7.75082e-06
3.64058e-06
-8.09582e-06
3.2024e-06
-8.42293e-06
2.78053e-06
-8.72941e-06
2.37422e-06
-9.00385e-06
1.9798e-06
-9.23306e-06
1.59408e-06
-9.40574e-06
1.21536e-06
-9.51394e-06
8.43411e-07
-9.55287e-06
4.78854e-07
-9.51993e-06
1.21424e-07
-9.41496e-06
-2.24596e-07
-9.23875e-06
-5.61657e-07
-8.99283e-06
-8.88392e-07
-8.67859e-06
-1.20454e-06
-8.29744e-06
-1.51064e-06
-7.8504e-06
-1.80763e-06
-7.33809e-06
-2.09633e-06
-6.76083e-06
-2.37674e-06
-6.11912e-06
-2.64719e-06
-5.41421e-06
-2.90347e-06
-4.64912e-06
-3.13878e-06
-3.82991e-06
-3.34374e-06
-2.96631e-06
-3.50765e-06
-2.07129e-06
-3.62059e-06
-1.16036e-06
-3.67508e-06
-2.50203e-07
-3.66792e-06
6.42413e-07
-3.60032e-06
1.50317e-06
-3.47759e-06
2.32099e-06