/*--------------------------------*- C++ -*----------------------------------*\
| =========                 |                                                 |
| \\      /  F ield         | OpenFOAM: The Open Source CFD Toolbox           |
|  \\    /   O peration     | Version:  2112                                  |
|   \\  /    A nd           | Website:  www.openfoam.com                      |
|    \\/     M anipulation  |                                                 |
\*---------------------------------------------------------------------------*/
FoamFile
{
    version     2.0;
    format      ascii;
    arch        "LSB;label=32;scalar=64";
    class       surfaceScalarField;
    location    "0.018";
    object      phi;
}
// * * * * * * * * * * * * * * * * * * * * * * * * * * * * * * * * * * * * * //

dimensions      [0 3 -1 0 0 0 0];

oriented        oriented;

internalField   nonuniform List<scalar> 
24170
(
3.09607e-06
1.50827e-07
2.95366e-06
1.42407e-07
2.86158e-06
9.20766e-08
2.78024e-06
8.13399e-08
2.70062e-06
7.96204e-08
2.6135e-06
8.7123e-08
2.51181e-06
1.01685e-07
2.40175e-06
1.10064e-07
2.29906e-06
1.02687e-07
2.21342e-06
8.56408e-08
2.14213e-06
7.12892e-08
2.0746e-06
6.75287e-08
2.00109e-06
7.35184e-08
1.91595e-06
8.5132e-08
1.8221e-06
9.38532e-08
1.71793e-06
1.04169e-07
1.5939e-06
1.24028e-07
1.48305e-07
1.4456e-06
3.38978e-06
2.18569e-07
3.36566e-06
1.66532e-07
3.34367e-06
1.14068e-07
3.34331e-06
8.16932e-08
3.36563e-06
5.73013e-08
3.39966e-06
5.30985e-08
3.42774e-06
7.35976e-08
3.43451e-06
1.03299e-07
3.41512e-06
1.2208e-07
3.37556e-06
1.25201e-07
3.3272e-06
1.19641e-07
3.28032e-06
1.14415e-07
3.24041e-06
1.13426e-07
3.20597e-06
1.19577e-07
3.17359e-06
1.26227e-07
3.13671e-06
1.41049e-07
3.09229e-06
1.68444e-07
2.07039e-07
3.03356e-06
3.62148e-06
1.86821e-07
3.63023e-06
1.57788e-07
3.60614e-06
1.3815e-07
3.59616e-06
9.16725e-08
3.61114e-06
4.2326e-08
3.63971e-06
2.45277e-08
3.66855e-06
4.4758e-08
3.68961e-06
8.2238e-08
3.70006e-06
1.11636e-07
3.70047e-06
1.24782e-07
3.69203e-06
1.28082e-07
3.67619e-06
1.30263e-07
3.6549e-06
1.34712e-07
3.63158e-06
1.42901e-07
3.60611e-06
1.51689e-07
3.58132e-06
1.65843e-07
3.55957e-06
1.90195e-07
2.23994e-07
3.54261e-06
3.99329e-06
-5.85712e-09
4.03499e-06
1.16096e-07
4.0334e-06
1.39733e-07
4.0114e-06
1.13674e-07
3.98755e-06
6.61813e-08
3.97466e-06
3.74124e-08
3.97488e-06
4.4536e-08
3.98157e-06
7.55512e-08
3.98404e-06
1.09165e-07
3.97444e-06
1.34383e-07
3.95212e-06
1.50405e-07
3.92341e-06
1.58969e-07
3.89695e-06
1.61172e-07
3.87907e-06
1.60781e-07
3.86988e-06
1.6088e-07
3.86816e-06
1.67559e-07
3.87219e-06
1.86171e-07
2.17432e-07
3.87875e-06
4.06759e-06
7.54299e-08
4.13005e-06
5.36282e-08
4.19124e-06
7.85498e-08
4.20236e-06
1.02547e-07
4.1852e-06
8.33451e-08
4.17139e-06
5.12199e-08
4.17321e-06
4.27201e-08
4.18391e-06
6.48528e-08
4.19026e-06
1.02816e-07
4.18382e-06
1.40813e-07
4.16526e-06
1.68968e-07
4.14181e-06
1.82423e-07
4.12172e-06
1.81265e-07
4.11043e-06
1.72071e-07
4.10863e-06
1.6268e-07
4.11439e-06
1.61796e-07
4.12601e-06
1.74552e-07
2.03305e-07
4.14013e-06
4.41168e-06
3.53432e-08
4.45238e-06
1.2923e-08
4.49506e-06
3.58716e-08
4.53009e-06
6.7515e-08
4.53545e-06
7.79846e-08
4.52024e-06
6.64323e-08
4.50404e-06
5.89262e-08
4.49655e-06
7.23367e-08
4.49413e-06
1.05239e-07
4.48837e-06
1.46568e-07
4.47429e-06
1.83053e-07
4.45242e-06
2.04296e-07
4.42691e-06
2.06774e-07
4.40298e-06
1.95994e-07
4.3849e-06
1.80763e-07
4.37506e-06
1.71633e-07
4.37577e-06
1.73844e-07
1.91927e-07
4.38715e-06
4.71478e-06
-6.41886e-08
4.75947e-06
-3.17656e-08
4.76671e-06
2.86326e-08
4.76037e-06
7.38567e-08
4.74786e-06
9.04926e-08
4.73476e-06
7.95315e-08
4.72796e-06
6.57312e-08
4.73146e-06
6.88283e-08
4.7433e-06
9.33995e-08
4.75742e-06
1.3245e-07
4.76782e-06
1.7265e-07
4.77098e-06
2.01137e-07
4.76618e-06
2.11574e-07
4.75512e-06
2.07056e-07
4.74081e-06
1.95072e-07
4.7269e-06
1.85542e-07
4.71726e-06
1.83487e-07
1.93478e-07
4.71571e-06
5.11724e-06
-3.38286e-08
5.08789e-06
-2.4172e-09
5.13516e-06
-1.86421e-08
5.18069e-06
2.83355e-08
5.19019e-06
8.09925e-08
5.1706e-06
9.91165e-08
5.144e-06
9.23301e-08
5.12781e-06
8.50224e-08
5.12698e-06
9.42285e-08
5.13738e-06
1.2205e-07
5.15144e-06
1.58592e-07
5.16216e-06
1.90415e-07
5.16498e-06
2.08756e-07
5.15866e-06
2.13376e-07
5.14528e-06
2.08446e-07
5.12894e-06
2.0189e-07
5.11483e-06
1.97597e-07
2.00605e-07
5.1077e-06
5.5498e-06
-1.53257e-07
5.56713e-06
-1.97459e-08
5.57796e-06
-2.94684e-08
5.60286e-06
3.43475e-09
5.62125e-06
6.26056e-08
5.60804e-06
1.12322e-07
5.5632e-06
1.37175e-07
5.51001e-06
1.38209e-07
5.47346e-06
1.30772e-07
5.46456e-06
1.3095e-07
5.47887e-06
1.44284e-07
5.50306e-06
1.6623e-07
5.52321e-06
1.88601e-07
5.53022e-06
2.06365e-07
5.5225e-06
2.16168e-07
5.50454e-06
2.19848e-07
5.48408e-06
2.18063e-07
2.15141e-07
5.46954e-06
5.84502e-06
-2.0382e-07
5.90282e-06
-7.75532e-08
5.89111e-06
-1.77512e-08
5.87555e-06
1.89944e-08
5.88374e-06
5.44069e-08
5.90408e-06
9.19901e-08
5.91822e-06
1.23026e-07
5.92086e-06
1.35574e-07
5.91694e-06
1.34694e-07
5.91256e-06
1.3533e-07
5.91009e-06
1.46755e-07
5.90848e-06
1.67835e-07
5.90529e-06
1.91794e-07
5.89983e-06
2.11823e-07
5.89242e-06
2.23582e-07
5.88521e-06
2.27058e-07
5.8796e-06
2.2367e-07
2.18477e-07
5.87627e-06
6.37987e-06
-1.42189e-07
6.35751e-06
-5.51863e-08
6.31065e-06
2.91099e-08
6.23345e-06
9.61907e-08
6.16654e-06
1.21317e-07
6.13703e-06
1.215e-07
6.145e-06
1.1506e-07
6.17425e-06
1.06318e-07
6.20881e-06
1.00136e-07
6.24076e-06
1.03377e-07
6.26806e-06
1.19463e-07
6.29086e-06
1.45029e-07
6.30955e-06
1.73105e-07
6.32482e-06
1.96558e-07
6.33859e-06
2.0981e-07
6.35243e-06
2.13218e-07
6.36876e-06
2.07343e-07
1.98813e-07
6.38842e-06
5.57229e-06
-2.05018e-07
5.63939e-06
-1.22289e-07
5.68051e-06
-1.20105e-08
5.71417e-06
6.25331e-08
5.73498e-06
1.00506e-07
5.73105e-06
1.25436e-07
5.7037e-06
1.42402e-07
5.66279e-06
1.47236e-07
5.62105e-06
1.41873e-07
5.59037e-06
1.3406e-07
5.57816e-06
1.31667e-07
5.58509e-06
1.38102e-07
5.60688e-06
1.51314e-07
5.63506e-06
1.6838e-07
5.66085e-06
1.84016e-07
5.6783e-06
1.95772e-07
5.68393e-06
2.01715e-07
2.00059e-07
5.68268e-06
6.85724e-06
-6.26286e-08
6.80299e-06
-6.80439e-08
6.81559e-06
-2.46106e-08
6.8358e-06
4.2325e-08
6.849e-06
8.73027e-08
6.85937e-06
1.1507e-07
6.87061e-06
1.31159e-07
6.87975e-06
1.38096e-07
6.88452e-06
1.37103e-07
6.88671e-06
1.31875e-07
6.89177e-06
1.26603e-07
6.90498e-06
1.24888e-07
6.92888e-06
1.27417e-07
6.9622e-06
1.35065e-07
6.99853e-06
1.47679e-07
7.03094e-06
1.63367e-07
7.05093e-06
1.81722e-07
1.96906e-07
7.05408e-06
8.4526e-06
-8.64749e-08
8.42074e-06
-3.61879e-08
8.43342e-06
-3.72908e-08
8.47404e-06
1.70565e-09
8.50175e-06
5.95992e-08
8.50309e-06
1.13729e-07
8.49373e-06
1.40519e-07
8.49508e-06
1.36746e-07
8.51669e-06
1.15488e-07
8.55265e-06
9.59242e-08
8.58747e-06
9.17796e-08
8.60631e-06
1.06052e-07
8.6018e-06
1.31925e-07
8.57679e-06
1.60072e-07
8.54158e-06
1.82892e-07
8.50669e-06
1.98259e-07
8.48176e-06
2.0665e-07
2.10104e-07
8.46856e-06
1.01487e-05
3.79499e-08
1.01874e-05
-7.48839e-08
1.02057e-05
-5.56141e-08
1.02136e-05
-6.2065e-09
1.02335e-05
3.97302e-08
1.02604e-05
8.67857e-08
1.02761e-05
1.24808e-07
1.02811e-05
1.31804e-07
1.0289e-05
1.07542e-07
1.03123e-05
7.26407e-08
1.03514e-05
5.26605e-08
1.03956e-05
6.18769e-08
1.04302e-05
9.72914e-08
1.04448e-05
1.45503e-07
1.04379e-05
1.89769e-07
1.04159e-05
2.20269e-07
1.03887e-05
2.33858e-07
2.32916e-07
1.03659e-05
1.23493e-05
1.68233e-07
1.23382e-05
-6.37862e-08
1.23564e-05
-7.37885e-08
1.23834e-05
-3.32551e-08
1.24212e-05
1.92073e-09
1.24497e-05
5.83556e-08
1.24648e-05
1.09654e-07
1.24728e-05
1.23845e-07
1.24822e-05
9.81172e-08
1.2499e-05
5.58244e-08
1.2525e-05
2.67198e-08
1.25591e-05
2.77151e-08
1.2599e-05
5.74077e-08
1.26422e-05
1.02339e-07
1.26851e-05
1.46847e-07
1.27247e-05
1.80703e-07
1.27576e-05
2.00868e-07
2.0839e-07
1.27822e-05
1.54958e-05
1.21309e-07
1.54773e-05
-4.5236e-08
1.54311e-05
-2.76501e-08
1.54019e-05
-4.01834e-09
1.53862e-05
1.76284e-08
1.53784e-05
6.60985e-08
1.53796e-05
1.08431e-07
1.53833e-05
1.20195e-07
1.53861e-05
9.52645e-08
1.53837e-05
5.82294e-08
1.53728e-05
3.77085e-08
1.53539e-05
4.66091e-08
1.5333e-05
7.82374e-08
1.53184e-05
1.16961e-07
1.53171e-05
1.48196e-07
1.53314e-05
1.66363e-07
1.53618e-05
1.70432e-07
1.67369e-07
1.54029e-05
1.86023e-05
-1.77656e-07
1.86968e-05
-1.39803e-07
1.86912e-05
-2.20395e-08
1.86716e-05
1.5602e-08
1.86793e-05
9.94156e-09
1.87334e-05
1.20155e-08
1.88014e-05
4.04557e-08
1.88375e-05
8.40299e-08
1.88092e-05
1.23553e-07
1.87193e-05
1.48166e-07
1.85995e-05
1.57473e-07
1.84893e-05
1.56792e-07
1.84161e-05
1.51514e-07
1.83877e-05
1.45312e-07
1.83984e-05
1.37488e-07
1.84362e-05
1.28591e-07
1.84895e-05
1.17159e-07
1.05319e-07
1.85515e-05
2.24729e-05
7.47329e-08
2.24071e-05
-7.40564e-08
2.24336e-05
-4.85591e-08
2.24533e-05
-4.06565e-09
2.24504e-05
1.28197e-08
2.24667e-05
-4.21613e-09
2.25273e-05
-2.02244e-08
2.26206e-05
-9.24991e-09
2.27211e-05
2.30881e-08
2.28046e-05
6.46384e-08
2.28609e-05
1.01193e-07
2.28918e-05
1.25939e-07
2.29052e-05
1.38065e-07
2.29098e-05
1.40673e-07
2.29112e-05
1.36148e-07
2.29133e-05
1.26491e-07
2.29176e-05
1.12838e-07
9.62976e-08
2.29266e-05
1.67395e-05
1.26922e-07
1.67339e-05
-6.83786e-08
1.68611e-05
-1.75756e-07
1.69495e-05
-9.24638e-08
1.69526e-05
9.73493e-09
1.68868e-05
6.15643e-08
1.67909e-05
7.56458e-08
1.67077e-05
7.39589e-08
1.66635e-05
6.72685e-08
1.66705e-05
5.76794e-08
1.67246e-05
4.70392e-08
1.68095e-05
4.11015e-08
1.69032e-05
4.43307e-08
1.69873e-05
5.6582e-08
1.7051e-05
7.24707e-08
1.70918e-05
8.56637e-08
1.71124e-05
9.22191e-08
8.94937e-08
1.71192e-05
1.47479e-05
7.87788e-08
1.45972e-05
8.23364e-08
1.45091e-05
-8.76701e-08
1.45616e-05
-1.44972e-07
1.46672e-05
-9.58133e-08
1.47354e-05
-6.67108e-09
1.47255e-05
8.55474e-08
1.46407e-05
1.58735e-07
1.452e-05
1.88033e-07
1.44077e-05
1.69927e-07
1.43353e-05
1.19438e-07
1.43159e-05
6.04865e-08
1.43458e-05
1.44645e-08
1.44098e-05
-7.42949e-09
1.44877e-05
-5.42762e-09
1.45621e-05
1.12863e-08
1.46211e-05
3.31708e-08
5.04838e-08
1.46601e-05
1.27532e-05
3.08541e-08
1.28263e-05
9.27423e-09
1.27791e-05
-4.05104e-08
1.27302e-05
-9.60573e-08
1.27015e-05
-6.7057e-08
1.26825e-05
1.23164e-08
1.26788e-05
8.92446e-08
1.27123e-05
1.25197e-07
1.27758e-05
1.24563e-07
1.28414e-05
1.04273e-07
1.28818e-05
7.90448e-08
1.28865e-05
5.58055e-08
1.28638e-05
3.71679e-08
1.28323e-05
2.40388e-08
1.28102e-05
1.67625e-08
1.28068e-05
1.4648e-08
1.28238e-05
1.61504e-08
1.99445e-08
1.28543e-05
1.09601e-05
4.9497e-08
1.10028e-05
-3.34423e-08
1.10485e-05
-8.6157e-08
1.1073e-05
-1.20595e-07
1.10917e-05
-8.57908e-08
1.11164e-05
-1.23898e-08
1.11532e-05
5.25332e-08
1.11878e-05
9.05739e-08
1.12143e-05
9.79964e-08
1.1225e-05
9.3573e-08
1.12167e-05
8.73808e-08
1.1195e-05
7.74913e-08
1.11719e-05
6.02707e-08
1.11584e-05
3.75996e-08
1.11593e-05
1.58523e-08
1.11737e-05
1.97882e-10
1.11963e-05
-6.44913e-09
-2.94339e-09
1.12192e-05
9.59284e-06
-1.19227e-07
9.63255e-06
-7.31561e-08
9.58749e-06
-4.10964e-08
9.50486e-06
-3.79603e-08
9.46739e-06
-4.83276e-08
9.49621e-06
-4.12096e-08
9.55498e-06
-6.23085e-09
9.59912e-06
4.64264e-08
9.60455e-06
9.25694e-08
9.58281e-06
1.15313e-07
9.56272e-06
1.07474e-07
9.56755e-06
7.26564e-08
9.60491e-06
2.29184e-08
9.66655e-06
-2.40451e-08
9.73826e-06
-5.58586e-08
9.8052e-06
-6.67434e-08
9.85624e-06
-5.74901e-08
-3.41366e-08
9.88744e-06
8.39565e-06
6.55323e-08
8.37352e-06
-5.10303e-08
8.41428e-06
-8.18507e-08
8.44619e-06
-6.9875e-08
8.45308e-06
-5.52112e-08
8.43617e-06
-2.43001e-08
8.40784e-06
2.20955e-08
8.38258e-06
7.16829e-08
8.37023e-06
1.04925e-07
8.37734e-06
1.08199e-07
8.40409e-06
8.07296e-08
8.44433e-06
3.24096e-08
8.48796e-06
-2.07031e-08
8.52789e-06
-6.39786e-08
8.55971e-06
-8.76766e-08
8.58298e-06
-9.00199e-08
8.59944e-06
-7.39478e-08
-4.58196e-08
8.61112e-06
7.25056e-06
3.76626e-08
7.23048e-06
-3.09438e-08
7.2401e-06
-9.14723e-08
7.27769e-06
-1.07465e-07
7.31017e-06
-8.76925e-08
7.32707e-06
-4.12002e-08
7.33478e-06
1.43876e-08
7.34842e-06
5.80436e-08
7.37715e-06
7.61911e-08
7.41729e-06
6.80546e-08
7.45562e-06
4.24023e-08
7.47852e-06
9.5119e-09
7.47934e-06
-2.15291e-08
7.4625e-06
-4.71296e-08
7.4385e-06
-6.3678e-08
7.41797e-06
-6.94945e-08
7.40855e-06
-6.45285e-08
-5.01276e-08
7.41286e-06
6.31066e-06
-4.81114e-08
6.30358e-06
-2.38687e-08
6.28311e-06
-7.10019e-08
6.26191e-06
-8.6267e-08
6.24953e-06
-7.53053e-08
6.25689e-06
-4.85653e-08
6.28541e-06
-1.41253e-08
6.32918e-06
1.42719e-08
6.3816e-06
2.37665e-08
6.43501e-06
1.46511e-08
6.48093e-06
-3.52024e-09
6.51158e-06
-2.11444e-08
6.5231e-06
-3.30462e-08
6.51599e-06
-4.00208e-08
6.49693e-06
-4.46155e-08
6.47518e-06
-4.77464e-08
6.46018e-06
-4.95266e-08
-4.85086e-08
6.45856e-06
5.47064e-06
-1.25388e-07
5.51803e-06
-7.12523e-08
5.48174e-06
-3.4714e-08
5.4453e-06
-4.98262e-08
5.43915e-06
-6.91552e-08
5.45969e-06
-6.91042e-08
5.49499e-06
-4.94279e-08
5.53526e-06
-2.59936e-08
5.5731e-06
-1.40809e-08
5.60429e-06
-1.65322e-08
5.6268e-06
-2.60298e-08
5.63929e-06
-3.36403e-08
5.64119e-06
-3.49456e-08
5.63346e-06
-3.22849e-08
5.6194e-06
-3.05621e-08
5.60398e-06
-3.23197e-08
5.59218e-06
-3.77324e-08
-4.35578e-08
5.58723e-06
4.73246e-06
-1.18213e-07
4.77606e-06
-1.1485e-07
4.81785e-06
-7.65124e-08
4.84393e-06
-7.58977e-08
4.84457e-06
-6.97954e-08
4.82712e-06
-5.16537e-08
4.80796e-06
-3.02749e-08
4.79933e-06
-1.736e-08
4.80438e-06
-1.91341e-08
4.81976e-06
-3.19137e-08
4.84009e-06
-4.63539e-08
4.86068e-06
-5.42377e-08
4.87888e-06
-5.31374e-08
4.89357e-06
-4.69786e-08
4.90433e-06
-4.13255e-08
4.91133e-06
-3.93185e-08
4.91486e-06
-4.12582e-08
-4.4258e-08
4.91556e-06
4.09936e-06
3.98451e-06
3.908e-06
3.8321e-06
3.76231e-06
3.71065e-06
3.68038e-06
3.66302e-06
3.64388e-06
3.61197e-06
3.56562e-06
3.51138e-06
3.45824e-06
3.41126e-06
3.36994e-06
3.33062e-06
3.28936e-06
3.2451e-06
2.01497e-07
-2.01497e-07
4.75829e-07
-2.74333e-07
7.59591e-07
-2.83762e-07
1.04393e-06
-2.84335e-07
1.32949e-06
-2.85561e-07
1.61726e-06
-2.87772e-07
1.90696e-06
-2.89701e-07
2.19655e-06
-2.89592e-07
2.48205e-06
-2.855e-07
2.75739e-06
-2.75334e-07
3.01463e-06
-2.57241e-07
3.24437e-06
-2.29747e-07
3.43668e-06
-1.92304e-07
3.58013e-06
-1.43456e-07
3.66207e-06
-8.19309e-08
3.67268e-06
-1.06152e-08
3.59685e-06
7.58276e-08
3.43385e-06
1.63005e-07
3.19527e-06
2.38575e-07
2.89766e-06
2.97612e-07
2.5653e-06
3.32358e-07
2.28198e-06
2.8332e-07
2.06208e-06
2.199e-07
1.81704e-06
2.45045e-07
1.49735e-06
3.19686e-07
1.05605e-06
4.41304e-07
2.6226e-07
7.93789e-07
-8.69082e-07
1.13134e-06
-1.97701e-06
1.10793e-06
-3.04428e-06
1.06726e-06
-4.06171e-06
1.01744e-06
-5.01355e-06
9.51841e-07
-5.89784e-06
8.84288e-07
-6.71028e-06
8.12439e-07
-7.4528e-06
7.42521e-07
-8.1266e-06
6.73796e-07
-8.73468e-06
6.08082e-07
-9.27958e-06
5.44895e-07
-9.76373e-06
4.84154e-07
-1.01889e-05
4.25152e-07
-1.05561e-05
3.67175e-07
-1.08656e-05
3.09561e-07
-1.11174e-05
2.51814e-07
-1.13112e-05
1.93753e-07
-1.14467e-05
1.35507e-07
-1.15243e-05
7.75612e-08
-1.15449e-05
2.06376e-08
-1.15123e-05
-3.25685e-08
-1.14287e-05
-8.35731e-08
-1.12982e-05
-1.30579e-07
-1.11244e-05
-1.73806e-07
-1.09113e-05
-2.13069e-07
-1.06632e-05
-2.48118e-07
-1.03843e-05
-2.78927e-07
-1.00787e-05
-3.055e-07
-9.75062e-06
-3.28128e-07
-9.4035e-06
-3.47126e-07
-9.04055e-06
-3.6295e-07
-8.66449e-06
-3.76054e-07
-8.27757e-06
-3.86918e-07
-7.8816e-06
-3.95975e-07
-7.47799e-06
-4.03606e-07
-7.06787e-06
-4.10118e-07
-6.6521e-06
-4.15773e-07
-6.2313e-06
-4.20803e-07
-5.80589e-06
-4.25404e-07
-5.37619e-06
-4.29702e-07
-4.94246e-06
-4.33733e-07
-4.50503e-06
-4.3743e-07
-4.06436e-06
-4.40667e-07
-3.62106e-06
-4.433e-07
-3.17596e-06
-4.45102e-07
-2.73028e-06
-4.45679e-07
-2.28578e-06
-4.44499e-07
-1.84479e-06
-4.40986e-07
-1.41019e-06
-4.34605e-07
-9.85141e-07
-4.25048e-07
-5.73235e-07
-4.11907e-07
-1.77498e-07
-3.95736e-07
1.98869e-07
-3.76368e-07
5.54355e-07
-3.55486e-07
8.87525e-07
-3.3317e-07
1.19779e-06
-3.10267e-07
1.48523e-06
-2.8744e-07
1.75042e-06
-2.65185e-07
1.99426e-06
-2.43845e-07
2.21789e-06
-2.2363e-07
2.42253e-06
-2.04644e-07
2.60945e-06
-1.86915e-07
2.77987e-06
-1.70421e-07
2.93497e-06
-1.55102e-07
3.07585e-06
-1.40882e-07
3.20353e-06
-1.27676e-07
3.31893e-06
-1.15403e-07
3.42292e-06
-1.03986e-07
3.51628e-06
-9.33596e-08
3.59975e-06
-8.34721e-08
3.67403e-06
-7.42814e-08
3.73979e-06
-6.57543e-08
3.79765e-06
-5.78634e-08
3.84823e-06
-5.05831e-08
3.89212e-06
-4.38874e-08
3.92987e-06
-3.77488e-08
3.962e-06
-3.21344e-08
3.98902e-06
-2.70131e-08
4.01136e-06
-2.23443e-08
4.02946e-06
-1.80959e-08
4.04368e-06
-1.42252e-08
4.05438e-06
-1.06972e-08
4.06186e-06
-7.48255e-09
4.06638e-06
-4.52328e-09
4.06819e-06
-1.80626e-09
4.06746e-06
7.26522e-10
4.06431e-06
3.15347e-09
4.05891e-06
5.39608e-09
4.05152e-06
7.39582e-09
4.04237e-06
9.15303e-09
4.03169e-06
1.06809e-08
4.0197e-06
1.1987e-08
4.00663e-06
1.30702e-08
3.99271e-06
1.39207e-08
3.97812e-06
1.45855e-08
3.96304e-06
1.50814e-08
3.94762e-06
1.54197e-08
3.932e-06
1.56219e-08
3.91629e-06
1.57127e-08
3.90058e-06
1.57079e-08
3.88495e-06
1.56234e-08
3.86948e-06
1.54769e-08
3.85419e-06
1.52832e-08
3.83914e-06
1.50547e-08
3.82434e-06
1.48024e-08
3.8098e-06
1.45362e-08
3.79553e-06
1.42673e-08
3.78153e-06
1.40039e-08
3.76778e-06
1.37485e-08
3.75428e-06
1.35007e-08
3.74102e-06
1.32637e-08
3.72797e-06
1.30459e-08
3.71511e-06
1.28575e-08
3.70241e-06
1.27006e-08
3.68985e-06
1.25638e-08
3.67742e-06
1.24255e-08
3.66516e-06
1.22643e-08
3.65309e-06
1.20695e-08
3.64125e-06
1.18452e-08
3.62964e-06
1.16072e-08
3.61826e-06
1.13748e-08
3.6071e-06
1.1164e-08
3.59611e-06
1.09842e-08
3.58528e-06
1.0838e-08
3.57455e-06
1.07239e-08
3.56391e-06
1.06384e-08
3.55334e-06
1.05786e-08
3.54279e-06
1.05421e-08
3.53227e-06
1.05287e-08
3.52173e-06
1.05382e-08
3.51115e-06
1.05728e-08
3.50052e-06
1.06343e-08
3.48979e-06
1.07271e-08
3.47894e-06
1.08566e-08
3.46791e-06
1.10272e-08
3.45665e-06
1.12553e-08
3.44512e-06
1.15367e-08
3.43319e-06
1.19228e-08
3.42083e-06
1.23665e-08
3.4078e-06
1.3031e-08
3.39409e-06
1.3708e-08
3.37918e-06
1.49132e-08
3.36328e-06
1.58915e-08
3.34503e-06
1.82545e-08
3.32552e-06
1.95047e-08
3.30091e-06
2.46103e-08
3.27523e-06
2.56888e-08
3.2373e-06
3.79256e-08
3.2002e-06
3.70956e-08
3.13032e-06
6.98821e-08
3.06674e-06
6.35873e-08
2.89525e-06
1.71489e-07
1.74042e-07
2.7212e-06
1.9781e-07
-3.99306e-07
3.97571e-07
-4.74094e-07
5.94857e-07
-4.81048e-07
7.98476e-07
-4.87954e-07
1.01158e-06
-4.98666e-07
1.23409e-06
-5.10284e-07
1.46454e-06
-5.20144e-07
1.69989e-06
-5.24947e-07
1.93535e-06
-5.20958e-07
2.16438e-06
-5.04362e-07
2.37956e-06
-4.72424e-07
2.57382e-06
-4.24006e-07
2.73991e-06
-3.58395e-07
2.86817e-06
-2.71713e-07
2.94554e-06
-1.593e-07
2.9626e-06
-2.76751e-08
2.9138e-06
1.24621e-07
2.80645e-06
2.70361e-07
2.63781e-06
4.07208e-07
2.38239e-06
5.53035e-07
1.99719e-06
7.17559e-07
1.41589e-06
8.64618e-07
6.10979e-07
1.02481e-06
-4.69207e-07
1.32523e-06
-1.77042e-06
1.62089e-06
-3.0869e-06
1.75779e-06
-4.13728e-06
1.84417e-06
-4.9059e-06
1.89996e-06
-5.6483e-06
1.85033e-06
-6.36368e-06
1.78264e-06
-7.02495e-06
1.67871e-06
-7.63947e-06
1.56636e-06
-8.20264e-06
1.44746e-06
-8.7196e-06
1.3294e-06
-9.19189e-06
1.21481e-06
-9.62297e-06
1.10488e-06
-1.0015e-05
1.00011e-06
-1.03697e-05
8.99629e-07
-1.06881e-05
8.02539e-07
-1.09702e-05
7.07238e-07
-1.12151e-05
6.12098e-07
-1.14214e-05
5.1585e-07
-1.15873e-05
4.17734e-07
-1.17111e-05
3.17533e-07
-1.17913e-05
2.15715e-07
-1.18273e-05
1.1349e-07
-1.18163e-05
9.69826e-09
-1.17587e-05
-9.01627e-08
-1.16549e-05
-1.87438e-07
-1.15055e-05
-2.79894e-07
-1.13138e-05
-3.65569e-07
-1.10836e-05
-4.43267e-07
-1.08194e-05
-5.12309e-07
-1.05258e-05
-5.72519e-07
-1.02071e-05
-6.24158e-07
-9.86748e-06
-6.67785e-07
-9.5104e-06
-7.04201e-07
-9.13903e-06
-7.34328e-07
-8.75591e-06
-7.59168e-07
-8.36313e-06
-7.79705e-07
-7.96224e-06
-7.96857e-07
-7.55444e-06
-8.11414e-07
-7.14054e-06
-8.24013e-07
-6.72114e-06
-8.35171e-07
-6.29661e-06
-8.45339e-07
-5.86714e-06
-8.54873e-07
-5.43286e-06
-8.63978e-07
-4.99392e-06
-8.72675e-07
-4.55055e-06
-8.80796e-07
-4.10315e-06
-8.8807e-07
-3.65223e-06
-8.94217e-07
-3.19852e-06
-8.98816e-07
-2.74311e-06
-9.01089e-07
-2.28771e-06
-8.99901e-07
-1.8347e-06
-8.93993e-07
-1.38717e-06
-8.8214e-07
-9.48935e-07
-8.63279e-07
-5.23658e-07
-8.37183e-07
-1.15012e-07
-8.04383e-07
2.74304e-07
-7.65684e-07
6.41776e-07
-7.22958e-07
9.86277e-07
-6.77671e-07
1.30747e-06
-6.31463e-07
1.60572e-06
-5.85688e-07
1.88187e-06
-5.41337e-07
2.13709e-06
-4.99057e-07
2.37267e-06
-4.59215e-07
2.58999e-06
-4.21961e-07
2.79038e-06
-3.87302e-07
2.97511e-06
-3.55152e-07
3.14538e-06
-3.2537e-07
3.30228e-06
-2.97788e-07
3.44683e-06
-2.72229e-07
3.57995e-06
-2.4852e-07
3.70247e-06
-2.26506e-07
3.81517e-06
-2.06054e-07
3.91875e-06
-1.87053e-07
4.01388e-06
-1.69418e-07
4.10121e-06
-1.53077e-07
4.18132e-06
-1.37974e-07
4.25479e-06
-1.24052e-07
4.32216e-06
-1.11258e-07
4.38394e-06
-9.95308e-08
4.44061e-06
-8.88064e-08
4.49261e-06
-7.90147e-08
4.54035e-06
-7.00815e-08
4.58418e-06
-6.19306e-08
4.62445e-06
-5.44864e-08
4.66142e-06
-4.76736e-08
4.69536e-06
-4.14226e-08
4.72651e-06
-3.56665e-08
4.75505e-06
-3.03516e-08
4.78122e-06
-2.5447e-08
4.80528e-06
-2.08983e-08
4.82734e-06
-1.66657e-08
4.84746e-06
-1.27303e-08
4.86571e-06
-9.08991e-09
4.88212e-06
-5.73608e-09
4.89676e-06
-2.65054e-09
4.90965e-06
1.77326e-10
4.92091e-06
2.66694e-09
4.93055e-06
4.94571e-09
4.93866e-06
6.97336e-09
4.94532e-06
8.75903e-09
4.95061e-06
1.03253e-08
4.95463e-06
1.16924e-08
4.95747e-06
1.28723e-08
4.95921e-06
1.38829e-08
4.95994e-06
1.47437e-08
4.95976e-06
1.54692e-08
4.95873e-06
1.60775e-08
4.95695e-06
1.65843e-08
4.95448e-06
1.70045e-08
4.9514e-06
1.73544e-08
4.94775e-06
1.76469e-08
4.94361e-06
1.78904e-08
4.93902e-06
1.80907e-08
4.93403e-06
1.82553e-08
4.92868e-06
1.83963e-08
4.92301e-06
1.85252e-08
4.91707e-06
1.86459e-08
4.91088e-06
1.87504e-08
4.90448e-06
1.88241e-08
4.89789e-06
1.88532e-08
4.89113e-06
1.88336e-08
4.8842e-06
1.87709e-08
4.87713e-06
1.86779e-08
4.86994e-06
1.85689e-08
4.86264e-06
1.84571e-08
4.85528e-06
1.83536e-08
4.84784e-06
1.82689e-08
4.84036e-06
1.82129e-08
4.8328e-06
1.81943e-08
4.82516e-06
1.82191e-08
4.81741e-06
1.82904e-08
4.80953e-06
1.84077e-08
4.8015e-06
1.85705e-08
4.7933e-06
1.8776e-08
4.7849e-06
1.90275e-08
4.77631e-06
1.93227e-08
4.76749e-06
1.96779e-08
4.75843e-06
2.00863e-08
4.74909e-06
2.05933e-08
4.73946e-06
2.11669e-08
4.72945e-06
2.1927e-08
4.71907e-06
2.2752e-08
4.70813e-06
2.3966e-08
4.69667e-06
2.51692e-08
4.68433e-06
2.72564e-08
4.67123e-06
2.8994e-08
4.6566e-06
3.28811e-08
4.64083e-06
3.52795e-08
4.62224e-06
4.31934e-08
4.60174e-06
4.61894e-08
4.57575e-06
6.39203e-08
4.54557e-06
6.72696e-08
4.50363e-06
1.11822e-07
4.44858e-06
1.18641e-07
4.37415e-06
2.45923e-07
2.83587e-07
4.2646e-06
1.12775e-07
-5.12081e-07
1.99674e-07
-5.60993e-07
2.91191e-07
-5.72565e-07
3.91955e-07
-5.88718e-07
5.01841e-07
-6.08552e-07
6.18987e-07
-6.2743e-07
7.40863e-07
-6.4202e-07
8.63462e-07
-6.47546e-07
9.80927e-07
-6.38423e-07
1.08552e-06
-6.08952e-07
1.16865e-06
-5.55556e-07
1.22273e-06
-4.78083e-07
1.23914e-06
-3.74808e-07
1.2116e-06
-2.44169e-07
1.13481e-06
-8.25142e-08
9.86759e-07
1.20376e-07
7.60534e-07
3.50847e-07
4.33433e-07
5.97461e-07
-2.55726e-08
8.66214e-07
-6.41253e-07
1.16871e-06
-1.41384e-06
1.49015e-06
-2.32622e-06
1.77699e-06
-3.3105e-06
2.00909e-06
-4.17846e-06
2.19319e-06
-4.87991e-06
2.32235e-06
-5.50096e-06
2.37884e-06
-6.04509e-06
2.38831e-06
-6.49089e-06
2.34576e-06
-6.91014e-06
2.26958e-06
-7.30861e-06
2.18111e-06
-7.70202e-06
2.07212e-06
-8.09143e-06
1.95577e-06
-8.47583e-06
1.83186e-06
-8.85356e-06
1.70713e-06
-9.22155e-06
1.58281e-06
-9.57739e-06
1.46072e-06
-9.91809e-06
1.34081e-06
-1.02406e-05
1.22217e-06
-1.05414e-05
1.10329e-06
-1.08163e-05
9.82129e-07
-1.1061e-05
8.5677e-07
-1.12708e-05
7.25669e-07
-1.14412e-05
5.88144e-07
-1.1568e-05
4.444e-07
-1.16478e-05
2.95491e-07
-1.16773e-05
1.42945e-07
-1.16561e-05
-1.14484e-08
-1.15844e-05
-1.61934e-07
-1.14637e-05
-3.08129e-07
-1.12973e-05
-4.46212e-07
-1.10895e-05
-5.73396e-07
-1.0845e-05
-6.87837e-07
-1.05687e-05
-7.88527e-07
-1.0266e-05
-8.75302e-07
-9.94141e-06
-9.48696e-07
-9.59942e-06
-1.00978e-06
-9.24364e-06
-1.05997e-06
-8.87715e-06
-1.10082e-06
-8.50237e-06
-1.13395e-06
-8.12116e-06
-1.16092e-06
-7.73482e-06
-1.18319e-06
-7.34416e-06
-1.20207e-06
-6.94953e-06
-1.21864e-06
-6.55092e-06
-1.23378e-06
-6.14803e-06
-1.24823e-06
-5.74034e-06
-1.26257e-06
-5.3272e-06
-1.27711e-06
-4.90807e-06
-1.29181e-06
-4.48262e-06
-1.30624e-06
-4.05087e-06
-1.31982e-06
-3.61301e-06
-1.33208e-06
-3.16933e-06
-1.34249e-06
-2.72046e-06
-1.34996e-06
-2.26787e-06
-1.35249e-06
-1.81416e-06
-1.34771e-06
-1.36293e-06
-1.33337e-06
-9.18882e-07
-1.30733e-06
-4.8742e-07
-1.26864e-06
-7.3257e-08
-1.21855e-06
3.21328e-07
-1.16027e-06
6.9191e-07
-1.09354e-06
1.03734e-06
-1.02311e-06
1.35734e-06
-9.51463e-07
1.65246e-06
-8.80805e-07
1.92389e-06
-8.12765e-07
2.17323e-06
-7.48394e-07
2.40225e-06
-6.88241e-07
2.61276e-06
-6.32472e-07
2.80645e-06
-5.80993e-07
2.98485e-06
-5.33551e-07
3.1493e-06
-4.8982e-07
3.30097e-06
-4.49454e-07
3.44086e-06
-4.12126e-07
3.56989e-06
-3.77541e-07
3.68883e-06
-3.45449e-07
3.79842e-06
-3.15643e-07
3.89933e-06
-2.87962e-07
3.99219e-06
-2.62282e-07
4.07762e-06
-2.38506e-07
4.1562e-06
-2.16554e-07
4.2285e-06
-1.96348e-07
4.29505e-06
-1.77812e-07
4.35638e-06
-1.60856e-07
4.41295e-06
-1.45384e-07
4.46523e-06
-1.3129e-07
4.51361e-06
-1.18461e-07
4.55846e-06
-1.0678e-07
4.6001e-06
-9.61335e-08
4.63884e-06
-8.64068e-08
4.6749e-06
-7.74904e-08
4.70853e-06
-6.92881e-08
4.73988e-06
-6.17065e-08
4.7691e-06
-5.46685e-08
4.79632e-06
-4.81152e-08
4.82164e-06
-4.19893e-08
4.84516e-06
-3.62467e-08
4.86694e-06
-3.08658e-08
4.88703e-06
-2.58299e-08
4.9055e-06
-2.11229e-08
4.92243e-06
-1.67506e-08
4.93782e-06
-1.27266e-08
4.95176e-06
-8.9953e-09
4.96429e-06
-5.55741e-09
4.97547e-06
-2.41182e-09
4.98533e-06
4.65589e-10
4.99393e-06
3.08748e-09
5.00134e-06
5.4629e-09
5.00761e-06
7.61098e-09
5.01281e-06
9.54983e-09
5.01699e-06
1.12896e-08
5.02021e-06
1.2853e-08
5.02254e-06
1.42553e-08
5.02403e-06
1.55121e-08
5.02474e-06
1.66407e-08
5.02473e-06
1.76564e-08
5.02405e-06
1.85707e-08
5.02275e-06
1.93927e-08
5.02088e-06
2.01324e-08
5.01847e-06
2.08023e-08
5.01558e-06
2.14148e-08
5.01225e-06
2.19763e-08
5.00852e-06
2.24846e-08
5.00441e-06
2.29319e-08
4.99995e-06
2.33119e-08
4.99516e-06
2.36254e-08
4.99005e-06
2.388e-08
4.98464e-06
2.40879e-08
4.97895e-06
2.4261e-08
4.97299e-06
2.44095e-08
4.9668e-06
2.45432e-08
4.9604e-06
2.46734e-08
4.9538e-06
2.48127e-08
4.94702e-06
2.49749e-08
4.94007e-06
2.51706e-08
4.93295e-06
2.54085e-08
4.92567e-06
2.56913e-08
4.91821e-06
2.60227e-08
4.91059e-06
2.63997e-08
4.90279e-06
2.68312e-08
4.8948e-06
2.73118e-08
4.88661e-06
2.78683e-08
4.87821e-06
2.84863e-08
4.86957e-06
2.92336e-08
4.86067e-06
3.00602e-08
4.85147e-06
3.11303e-08
4.84194e-06
3.22854e-08
4.83197e-06
3.3931e-08
4.82154e-06
3.56042e-08
4.81047e-06
3.83245e-08
4.79866e-06
4.08028e-08
4.7859e-06
4.56371e-08
4.77182e-06
4.93626e-08
4.75638e-06
5.8637e-08
4.73814e-06
6.44219e-08
4.71828e-06
8.37858e-08
4.69155e-06
9.40013e-08
4.66486e-06
1.38509e-07
4.6207e-06
1.62797e-07
4.59174e-06
2.74891e-07
3.48368e-07
4.52696e-06
3.50022e-09
-5.15581e-07
-1.3189e-08
-5.44304e-07
-2.79419e-08
-5.57812e-07
-4.40891e-08
-5.72571e-07
-6.40486e-08
-5.88593e-07
-9.15646e-08
-5.99914e-07
-1.31509e-07
-6.02076e-07
-1.89263e-07
-5.89793e-07
-2.67852e-07
-5.59833e-07
-3.68292e-07
-5.08512e-07
-4.91885e-07
-4.31963e-07
-6.42594e-07
-3.27375e-07
-8.27004e-07
-1.90398e-07
-1.06346e-06
-7.71676e-09
-1.3481e-06
2.02128e-07
-1.69361e-06
4.65889e-07
-2.11814e-06
7.75375e-07
-2.63378e-06
1.1131e-06
-3.22496e-06
1.4574e-06
-3.84211e-06
1.78586e-06
-4.42745e-06
2.07549e-06
-4.95701e-06
2.30656e-06
-5.42127e-06
2.47336e-06
-5.80682e-06
2.57874e-06
-6.11965e-06
2.63518e-06
-6.40136e-06
2.66054e-06
-6.66962e-06
2.65657e-06
-6.94131e-06
2.61745e-06
-7.22422e-06
2.55249e-06
-7.51139e-06
2.46828e-06
-7.80667e-06
2.36739e-06
-8.10631e-06
2.25542e-06
-8.40904e-06
2.13458e-06
-8.71222e-06
2.01031e-06
-9.01423e-06
1.88481e-06
-9.31357e-06
1.76006e-06
-9.6083e-06
1.63554e-06
-9.89564e-06
1.50952e-06
-1.01715e-05
1.37912e-06
-1.04304e-05
1.24109e-06
-1.06661e-05
1.0924e-06
-1.08712e-05
9.30788e-07
-1.10387e-05
7.55682e-07
-1.11621e-05
5.67816e-07
-1.1236e-05
3.69352e-07
-1.1257e-05
1.63979e-07
-1.12242e-05
-4.43213e-08
-1.11336e-05
-2.52477e-07
-1.09899e-05
-4.51849e-07
-1.0798e-05
-6.38118e-07
-1.05639e-05
-8.07476e-07
-1.02944e-05
-9.57305e-07
-9.99633e-06
-1.08664e-06
-9.67605e-06
-1.19559e-06
-9.33931e-06
-1.28543e-06
-8.99079e-06
-1.35831e-06
-8.63403e-06
-1.41674e-06
-8.27165e-06
-1.4632e-06
-7.90559e-06
-1.50001e-06
-7.53722e-06
-1.52928e-06
-7.16757e-06
-1.55284e-06
-6.79739e-06
-1.57226e-06
-6.42724e-06
-1.58879e-06
-6.05755e-06
-1.60347e-06
-5.68847e-06
-1.61731e-06
-5.3195e-06
-1.63154e-06
-4.9493e-06
-1.64732e-06
-4.57591e-06
-1.66519e-06
-4.19719e-06
-1.68496e-06
-3.8112e-06
-1.7058e-06
-3.41636e-06
-1.72693e-06
-3.01134e-06
-1.74751e-06
-2.59504e-06
-1.76625e-06
-2.16729e-06
-1.78024e-06
-1.7296e-06
-1.7854e-06
-1.28624e-06
-1.77673e-06
-8.43533e-07
-1.75003e-06
-4.09138e-07
-1.70304e-06
1.01343e-08
-1.63782e-06
4.0832e-07
-1.55845e-06
7.82615e-07
-1.46783e-06
1.13115e-06
-1.37164e-06
1.45345e-06
-1.27376e-06
1.74979e-06
-1.17715e-06
2.02103e-06
-1.08401e-06
2.2685e-06
-9.95859e-07
2.49391e-06
-9.13659e-07
2.6993e-06
-8.37854e-07
2.88678e-06
-7.68474e-07
3.05843e-06
-7.05208e-07
3.21613e-06
-6.47514e-07
3.36141e-06
-5.94739e-07
3.49552e-06
-5.46235e-07
3.61942e-06
-5.01438e-07
3.73387e-06
-4.59904e-07
3.83954e-06
-4.21308e-07
3.937e-06
-3.85423e-07
4.02681e-06
-3.52093e-07
4.10951e-06
-3.21205e-07
4.18563e-06
-2.92672e-07
4.25569e-06
-2.66408e-07
4.3202e-06
-2.42321e-07
4.37964e-06
-2.20302e-07
4.43449e-06
-2.00229e-07
4.48516e-06
-1.81961e-07
4.53205e-06
-1.6535e-07
4.57551e-06
-1.50244e-07
4.61587e-06
-1.36488e-07
4.65339e-06
-1.2393e-07
4.68832e-06
-1.12425e-07
4.72087e-06
-1.0184e-07
4.75122e-06
-9.20484e-08
4.77949e-06
-8.29454e-08
4.80582e-06
-7.44453e-08
4.83031e-06
-6.64737e-08
4.85303e-06
-5.89716e-08
4.87407e-06
-5.18996e-08
4.89347e-06
-4.52341e-08
4.91131e-06
-3.89606e-08