/*--------------------------------*- C++ -*----------------------------------*\
| =========                 |                                                 |
| \\      /  F ield         | OpenFOAM: The Open Source CFD Toolbox           |
|  \\    /   O peration     | Version:  2112                                  |
|   \\  /    A nd           | Website:  www.openfoam.com                      |
|    \\/     M anipulation  |                                                 |
\*---------------------------------------------------------------------------*/
FoamFile
{
    version     2.0;
    format      ascii;
    arch        "LSB;label=32;scalar=64";
    class       volVectorField;
    location    "0.38";
    object      U_0;
}
// * * * * * * * * * * * * * * * * * * * * * * * * * * * * * * * * * * * * * //

dimensions      [0 1 -1 0 0 0 0];

internalField   nonuniform List<vector> 
12225
(
(9.76438 0.0674179 0)
(9.27356 0.109 0)
(8.73476 0.118703 0)
(8.18557 0.120618 0)
(7.66204 0.116934 0)
(7.18178 0.108416 0)
(6.75618 0.0965234 0)
(6.39415 0.0826413 0)
(6.0999 0.0680336 0)
(5.87185 0.053881 0)
(5.70375 0.0411093 0)
(5.58634 0.030275 0)
(5.50905 0.0215943 0)
(5.46159 0.0151659 0)
(5.43353 0.0109765 0)
(5.42061 0.00981124 0)
(5.39849 0.0260601 0)
(5.37553 -0.00304252 0)
(10.0957 0.0741219 0)
(10.284 0.108923 0)
(10.4001 0.116887 0)
(10.451 0.125034 0)
(10.4469 0.1299 0)
(10.3921 0.129359 0)
(10.2928 0.123669 0)
(10.1582 0.113503 0)
(9.99761 0.0998709 0)
(9.81915 0.0842133 0)
(9.6292 0.0680717 0)
(9.43275 0.0527307 0)
(9.23372 0.0390347 0)
(9.0353 0.0275446 0)
(8.84048 0.018058 0)
(8.652 0.0129591 0)
(8.47668 0.0104451 0)
(8.33503 0.032849 0)
(10.0193 0.0415502 0)
(10.0733 0.0684532 0)
(10.1286 0.0844265 0)
(10.1827 0.101907 0)
(10.2398 0.116218 0)
(10.2957 0.12576 0)
(10.3439 0.130941 0)
(10.3811 0.132425 0)
(10.4054 0.131047 0)
(10.4158 0.127993 0)
(10.4127 0.124524 0)
(10.3977 0.12162 0)
(10.3728 0.119835 0)
(10.3399 0.11929 0)
(10.3009 0.119781 0)
(10.2575 0.120615 0)
(10.2149 0.121557 0)
(10.1684 0.113815 0)
(10.0104 0.033487 0)
(10.0434 0.0654482 0)
(10.0731 0.0821351 0)
(10.0985 0.0957592 0)
(10.1258 0.105959 0)
(10.1556 0.111996 0)
(10.1859 0.114508 0)
(10.2149 0.114074 0)
(10.2415 0.111289 0)
(10.2649 0.107042 0)
(10.2851 0.102297 0)
(10.3025 0.0978142 0)
(10.3177 0.0940614 0)
(10.3314 0.0911981 0)
(10.3446 0.089047 0)
(10.3582 0.0870845 0)
(10.3734 0.0843924 0)
(10.3899 0.0741648 0)
(10.0063 0.0280711 0)
(10.0321 0.0594404 0)
(10.0569 0.0755927 0)
(10.078 0.0884501 0)
(10.0998 0.0983998 0)
(10.1225 0.104523 0)
(10.1449 0.107275 0)
(10.1662 0.107342 0)
(10.1858 0.105434 0)
(10.2038 0.102364 0)
(10.2198 0.0988987 0)
(10.2343 0.095627 0)
(10.2479 0.0929209 0)
(10.2615 0.0909023 0)
(10.2758 0.0893125 0)
(10.2915 0.0874476 0)
(10.309 0.0842304 0)
(10.3287 0.0770491 0)
(10.0039 0.0230463 0)
(10.0244 0.0526818 0)
(10.0469 0.0694458 0)
(10.067 0.0823236 0)
(10.0871 0.0919984 0)
(10.1078 0.0979113 0)
(10.128 0.100587 0)
(10.1471 0.100786 0)
(10.1647 0.0991222 0)
(10.1809 0.0962668 0)
(10.1956 0.0928755 0)
(10.2092 0.0894932 0)
(10.2222 0.0864289 0)
(10.2352 0.0836739 0)
(10.2487 0.0809322 0)
(10.2633 0.0776529 0)
(10.2789 0.0729234 0)
(10.2952 0.0649589 0)
(10.0026 0.0191686 0)
(10.0188 0.0463945 0)
(10.0389 0.0630693 0)
(10.058 0.0756762 0)
(10.0772 0.0850029 0)
(10.0968 0.0907611 0)
(10.1159 0.0934953 0)
(10.1341 0.0938835 0)
(10.151 0.0924944 0)
(10.1666 0.0899471 0)
(10.1809 0.0868434 0)
(10.1944 0.0836121 0)
(10.2073 0.0804736 0)
(10.2201 0.0773914 0)
(10.2332 0.0741347 0)
(10.247 0.0702241 0)
(10.2612 0.0648922 0)
(10.2755 0.0570476 0)
(10.0018 0.0161022 0)
(10.0147 0.0408083 0)
(10.0323 0.0568579 0)
(10.0501 0.0688682 0)
(10.0684 0.0777856 0)
(10.0871 0.0833319 0)
(10.1053 0.0860306 0)
(10.1227 0.0865478 0)
(10.139 0.0854096 0)
(10.1542 0.0831467 0)
(10.1684 0.0802537 0)
(10.1817 0.077086 0)
(10.1945 0.0738292 0)
(10.2072 0.0704593 0)
(10.2199 0.0667381 0)
(10.2329 0.062267 0)
(10.246 0.0565201 0)
(10.2588 0.0488932 0)
(10.0013 0.0135924 0)
(10.0116 0.0357417 0)
(10.027 0.0508957 0)
(10.0434 0.0621639 0)
(10.0606 0.0705463 0)
(10.0783 0.0758746 0)
(10.0957 0.0785176 0)
(10.1123 0.0790742 0)
(10.128 0.0780802 0)
(10.1428 0.0760074 0)
(10.1566 0.0732602 0)
(10.1697 0.0701319 0)
(10.1823 0.0667701 0)
(10.1947 0.0631505 0)
(10.207 0.0590877 0)
(10.2193 0.0542845 0)
(10.2314 0.0483744 0)
(10.2431 0.0410336 0)
(10.001 0.011491 0)
(10.0094 0.0311004 0)
(10.0227 0.0451496 0)
(10.0378 0.0555644 0)
(10.0537 0.0632654 0)
(10.0703 0.0682738 0)
(10.0869 0.070845 0)
(10.1028 0.0714548 0)
(10.1179 0.0705837 0)
(10.1322 0.0686455 0)
(10.1457 0.0659944 0)
(10.1585 0.0628871 0)
(10.1708 0.0594469 0)
(10.1827 0.055651 0)
(10.1945 0.0513619 0)
(10.2061 0.0463698 0)
(10.2173 0.040436 0)
(10.228 0.0334178 0)
(10.0008 0.00970318 0)
(10.0077 0.0268417 0)
(10.0193 0.039616 0)
(10.033 0.0490894 0)
(10.0477 0.0560422 0)
(10.0632 0.0605822 0)
(10.0788 0.0629619 0)
(10.094 0.0635842 0)
(10.1086 0.062809 0)
(10.1224 0.0609899 0)
(10.1355 0.0584416 0)
(10.148 0.0553771 0)
(10.1599 0.0518836 0)
(10.1714 0.0479555 0)
(10.1827 0.0435205 0)
(10.1936 0.0384443 0)
(10.204 0.0325877 0)
(10.2138 0.0259157 0)
(10.0006 0.00826137 0)
(10.0065 0.0232275 0)
(10.0168 0.0347184 0)
(10.0293 0.0432617 0)
(10.0429 0.049487 0)
(10.0573 0.0535451 0)
(10.072 0.0556537 0)
(10.0865 0.0561599 0)
(10.1005 0.0553975 0)
(10.1139 0.0536578 0)
(10.1266 0.0511917 0)
(10.1388 0.0481693 0)
(10.1505 0.0446734 0)
(10.1617 0.0407154 0)
(10.1724 0.036232 0)
(10.1827 0.0311549 0)
(10.1925 0.0254303 0)
(10.2017 0.0190839 0)
(10.0005 0.00698649 0)
(10.0055 0.019875 0)
(10.0147 0.0300114 0)
(10.0261 0.0375807 0)
(10.0388 0.0430535 0)
(10.0522 0.0465916 0)
(10.0659 0.0483857 0)
(10.0796 0.0487295 0)
(10.0929 0.0479091 0)
(10.1058 0.0461715 0)
(10.1182 0.043727 0)
(10.13 0.0407298 0)
(10.1413 0.0372614 0)
(10.1522 0.0333242 0)
(10.1626 0.0288773 0)
(10.1725 0.0238982 0)
(10.1817 0.0183609 0)
(10.1904 0.0123295 0)
(10.0005 0.00568982 0)
(10.0047 0.0163143 0)
(10.0127 0.0248515 0)
(10.0231 0.0312493 0)
(10.0347 0.0358172 0)
(10.047 0.0387094 0)
(10.0598 0.0400865 0)
(10.0726 0.0401835 0)
(10.0852 0.0392366 0)
(10.0974 0.0374498 0)
(10.1092 0.0349927 0)
(10.1205 0.0319896 0)
(10.1313 0.0285153 0)
(10.1418 0.0246033 0)
(10.1517 0.0202549 0)
(10.1611 0.0154471 0)
(10.1699 0.0101756 0)
(10.1781 0.00453021 0)
(10.0004 0.00436193 0)
(10.004 0.0125626 0)
(10.011 0.0192576 0)
(10.0202 0.0242671 0)
(10.0307 0.0277577 0)
(10.042 0.0298582 0)
(10.0538 0.0306956 0)
(10.0657 0.0304458 0)
(10.0774 0.0292924 0)
(10.0889 0.0273961 0)
(10.1 0.0248888 0)
(10.1107 0.0218702 0)
(10.1209 0.0184072 0)
(10.1307 0.0145387 0)
(10.1401 0.0102873 0)
(10.1489 0.00567375 0)
(10.1571 0.000721941 0)
(10.1648 -0.0044883 0)
(10.0003 0.00299276 0)
(10.0034 0.00862919 0)
(10.0094 0.0132476 0)
(10.0176 0.0166378 0)
(10.0271 0.01886 0)
(10.0374 0.0200024 0)
(10.0481 0.0201564 0)
(10.059 0.0194427 0)
(10.0699 0.0179921 0)
(10.0806 0.015922 0)
(10.091 0.0133301 0)
(10.101 0.010293 0)
(10.1105 0.00686781 0)
(10.1197 0.00309565 0)
(10.1283 -0.00099082 0)
(10.1365 -0.00535954 0)
(10.1441 -0.0099766 0)
(10.1511 -0.0147618 0)
(10.0003 0.0015655 0)
(10.003 0.00449139 0)
(10.0082 0.00680935 0)
(10.0155 0.00834358 0)
(10.024 0.00909114 0)
(10.0333 0.00909467 0)
(10.0431 0.00840758 0)
(10.0531 0.00710153 0)
(10.0632 0.00525711 0)
(10.073 0.00294967 0)
(10.0826 0.000243618 0)
(10.0919 -0.00280801 0)
(10.1008 -0.0061623 0)
(10.1092 -0.00978372 0)
(10.1172 -0.0136404 0)
(10.1247 -0.0176996 0)
(10.1316 -0.0219286 0)
(10.1381 -0.0262596 0)
(10.0003 4.63692e-05 0)
(10.0026 6.39693e-05 0)
(10.0073 -0.00016145 0)
(10.0139 -0.000736837 0)
(10.0216 -0.00169277 0)
(10.0302 -0.00302779 0)
(10.0392 -0.00472646 0)
(10.0484 -0.00676119 0)
(10.0577 -0.00909784 0)
(10.0669 -0.0117027 0)
(10.0758 -0.0145456 0)
(10.0844 -0.0176007 0)
(10.0926 -0.0208455 0)
(10.1004 -0.0242594 0)
(10.1077 -0.0278219 0)
(10.1146 -0.0315109 0)
(10.121 -0.0353042 0)
(10.1269 -0.0391522 0)
(10.0002 -0.00164184 0)
(10.0025 -0.00485447 0)
(10.0069 -0.00792453 0)
(10.0132 -0.010882 0)
(10.0205 -0.0137769 0)
(10.0286 -0.0166482 0)
(10.0371 -0.0195175 0)
(10.0459 -0.0223981 0)
(10.0547 -0.0253013 0)
(10.0633 -0.0282362 0)
(10.0718 -0.0312107 0)
(10.0798 -0.0342323 0)
(10.0875 -0.0373071 0)
(10.0947 -0.0404395 0)
(10.1015 -0.0436309 0)
(10.1079 -0.0468786 0)
(10.1137 -0.0501781 0)
(10.1192 -0.0535027 0)
(10.0003 -0.00325643 0)
(10.0027 -0.00954265 0)
(10.0074 -0.0152769 0)
(10.0138 -0.0204296 0)
(10.0213 -0.0250957 0)
(10.0295 -0.0293603 0)
(10.0382 -0.0332772 0)
(10.047 -0.0368958 0)
(10.0558 -0.0402674 0)
(10.0644 -0.0434397 0)
(10.0727 -0.0464561 0)
(10.0806 -0.0493574 0)
(10.0881 -0.0521813 0)
(10.0951 -0.0549611 0)
(10.1016 -0.0577246 0)
(10.1076 -0.0604927 0)
(10.1132 -0.0632815 0)
(10.1182 -0.0660869 0)
(10.0003 -0.00468362 0)
(10.003 -0.0136346 0)
(10.0083 -0.0215632 0)
(10.0153 -0.0284478 0)
(10.0234 -0.0344895 0)
(10.032 -0.039824 0)
(10.041 -0.0445253 0)
(10.0502 -0.0486728 0)
(10.0593 -0.0523519 0)
(10.0682 -0.0556391 0)
(10.0767 -0.0586053 0)
(10.0847 -0.0613191 0)
(10.0922 -0.0638466 0)
(10.0992 -0.0662481 0)
(10.1056 -0.068576 0)
(10.1115 -0.0708739 0)
(10.1169 -0.0731768 0)
(10.1218 -0.0754991 0)
(10.0004 -0.00616621 0)
(10.0037 -0.0177695 0)
(10.0099 -0.0276856 0)
(10.0178 -0.0360505 0)
(10.0266 -0.0432668 0)
(10.0359 -0.0495109 0)
(10.0456 -0.0548627 0)
(10.0553 -0.0594311 0)
(10.065 -0.0633306 0)
(10.0743 -0.0666589 0)
(10.0832 -0.0695082 0)
(10.0916 -0.0719731 0)
(10.0993 -0.0741476 0)
(10.1065 -0.0761195 0)
(10.113 -0.0779674 0)
(10.1188 -0.0797591 0)
(10.1241 -0.0815512 0)
(10.1288 -0.0833792 0)
(10.0005 -0.00781935 0)
(10.0048 -0.0221526 0)
(10.0124 -0.0338273 0)
(10.0214 -0.0434273 0)
(10.031 -0.0516473 0)
(10.0412 -0.0586637 0)
(10.0518 -0.0645552 0)
(10.0623 -0.0694661 0)
(10.0727 -0.0735294 0)
(10.0826 -0.0768495 0)
(10.0921 -0.0795322 0)
(10.101 -0.0816952 0)
(10.1091 -0.0834599 0)
(10.1165 -0.0849421 0)
(10.1231 -0.0862485 0)
(10.1291 -0.087473 0)
(10.1343 -0.0886942 0)
(10.1388 -0.0899643 0)
(10.0007 -0.00978438 0)
(10.0066 -0.0269279 0)
(10.0159 -0.0400276 0)
(10.0263 -0.0506308 0)
(10.037 -0.0597415 0)
(10.0482 -0.0674237 0)
(10.0598 -0.073754 0)
(10.0712 -0.078933 0)
(10.0824 -0.0831065 0)
(10.0932 -0.0863738 0)
(10.1033 -0.0888472 0)
(10.1127 -0.090667 0)
(10.1212 -0.0919828 0)
(10.1289 -0.092937 0)
(10.1357 -0.0936659 0)
(10.1417 -0.0942954 0)
(10.1469 -0.0949354 0)
(10.1513 -0.0956672 0)
(10.0011 -0.0122875 0)
(10.0094 -0.0323354 0)
(10.0211 -0.0463777 0)
(10.033 -0.0577213 0)
(10.0449 -0.0676746 0)
(10.0573 -0.0760234 0)
(10.0699 -0.082781 0)
(10.0823 -0.0881882 0)
(10.0943 -0.0923979 0)
(10.1057 -0.0955049 0)
(10.1165 -0.0976313 0)
(10.1264 -0.0989509 0)
(10.1354 -0.0996581 0)
(10.1434 -0.0999285 0)
(10.1504 -0.0999257 0)
(10.1565 -0.0998014 0)
(10.1616 -0.0996841 0)
(10.1659 -0.0996381 0)
(10.002 -0.0157238 0)
(10.0141 -0.0390007 0)
(10.0288 -0.0534958 0)
(10.0422 -0.0649957 0)
(10.0552 -0.0750577 0)
(10.0688 -0.0834875 0)
(10.0825 -0.090372 0)
(10.0959 -0.0959358 0)
(10.109 -0.100272 0)
(10.1216 -0.103436 0)
(10.1335 -0.105531 0)
(10.1446 -0.106719 0)
(10.1547 -0.107191 0)
(10.1637 -0.107161 0)
(10.1717 -0.106847 0)
(10.1786 -0.10644 0)
(10.1845 -0.10611 0)
(10.1896 -0.105926 0)
(10.0041 -0.0200913 0)
(10.0218 -0.0453888 0)
(10.0405 -0.0603909 0)
(10.0565 -0.0727013 0)
(10.0722 -0.0832877 0)
(10.0886 -0.091699 0)
(10.1053 -0.0983587 0)
(10.122 -0.103585 0)
(10.1387 -0.107427 0)
(10.1553 -0.109922 0)
(10.1714 -0.111171 0)
(10.1868 -0.11139 0)
(10.201 -0.110787 0)
(10.2138 -0.109527 0)
(10.2251 -0.107842 0)
(10.235 -0.106002 0)
(10.2435 -0.104181 0)
(10.2502 -0.102477 0)
(10.0095 -0.0259546 0)
(10.039 -0.0474156 0)
(10.0698 -0.060258 0)
(10.0991 -0.0743512 0)
(10.1314 -0.0877274 0)
(10.166 -0.0990225 0)
(10.2013 -0.10851 0)
(10.2361 -0.116537 0)
(10.2697 -0.123034 0)
(10.3007 -0.127907 0)
(10.3283 -0.131185 0)
(10.3514 -0.132984 0)
(10.3697 -0.133556 0)
(10.3832 -0.133242 0)
(10.3917 -0.132399 0)
(10.3955 -0.131413 0)
(10.395 -0.130532 0)
(10.3911 -0.130181 0)
(10.0515 -0.0520907 0)
(10.1748 -0.0841543 0)
(10.2757 -0.0938817 0)
(10.3508 -0.103773 0)
(10.4025 -0.112691 0)
(10.4316 -0.119349 0)
(10.4374 -0.124011 0)
(10.4211 -0.126801 0)
(10.3853 -0.127582 0)
(10.3322 -0.126284 0)
(10.2647 -0.122983 0)
(10.1851 -0.117905 0)
(10.096 -0.111391 0)
(9.99951 -0.103829 0)
(9.89752 -0.0956067 0)
(9.79162 -0.0872173 0)
(9.68301 -0.0789515 0)
(9.57304 -0.0718895 0)
(9.87225 -0.0504931 0)
(9.57844 -0.0895461 0)
(9.23342 -0.104027 0)
(8.8629 -0.112288 0)
(8.49004 -0.116489 0)
(8.12429 -0.117184 0)
(7.77077 -0.115272 0)
(7.43459 -0.1113 0)
(7.12025 -0.10559 0)
(6.83104 -0.0984512 0)
(6.56915 -0.0902281 0)
(6.33584 -0.0812844 0)
(6.1314 -0.0719806 0)
(5.95514 -0.0626411 0)
(5.80553 -0.0535447 0)
(5.68066 -0.044977 0)
(5.57701 -0.0372785 0)
(5.49434 -0.0300077 0)
(-0.0035939 0.00626594 -2.23496e-21)
(-0.00763511 0.00758164 2.15088e-21)
(-0.0150807 0.00845441 0)
(-0.022643 0.00921397 0)
(-0.0307802 0.0098976 0)
(-0.0394082 0.0105021 -1.99222e-21)
(-0.0484293 0.0110123 0)
(-0.0577678 0.0114206 0)
(-0.0673635 0.0117331 0)
(-0.0771688 0.011967 0)
(-0.0871492 0.0121467 1.8714e-21)
(-0.0972835 0.0123021 0)
(-0.107566 0.0124722 0)
(-0.118014 0.0127166 0)
(-0.128656 0.013133 0)
(-0.139547 0.0135927 1.79487e-21)
(-0.150705 0.013872 0)
(-0.162076 0.0139911 0)
(-0.173628 0.0140574 0)
(-0.185364 0.0141237 0)
(-0.197295 0.0142027 0)
(-0.209431 0.0142948 0)
(-0.221786 0.0144 0)
(-0.234369 0.0145189 1.70725e-21)
(-0.247194 0.014652 -1.69666e-21)
(-0.260272 0.014799 1.68616e-21)
(-0.273615 0.0149593 1.67577e-21)
(-0.287232 0.0151318 0)
(-0.301135 0.0153151 0)
(-0.315332 0.015508 -1.6453e-21)
(-0.32983 0.0157088 -1.6354e-21)
(-0.344637 0.0159162 0)
(-0.359759 0.0161287 0)
(-0.375199 0.0163447 -1.60653e-21)
(-0.390962 0.016563 0)
(-0.407049 0.0167819 0)
(-0.423462 0.0170002 1.57891e-21)
(-0.4402 0.0172162 0)
(-0.457262 0.0174286 1.56117e-21)
(-0.474644 0.017636 3.105e-21)
(-0.492343 0.0178368 0)
(-0.510352 0.0180295 0)
(-0.528665 0.0182129 0)
(-0.547272 0.0183852 0)
(-0.566163 0.0185452 0)
(-0.585327 0.0186914 3.00555e-21)
(-0.604749 0.0188224 2.9896e-21)
(-0.624415 0.018937 2.97377e-21)
(-0.644309 0.0190338 0)
(-0.664412 0.0191118 -2.94238e-21)
(-0.684705 0.0191698 0)
(-0.705167 0.0192069 2.91119e-21)
(-0.725777 0.0192222 2.89559e-21)
(-0.746511 0.0192151 0)
(-0.767345 0.0191849 0)
(-0.788254 0.0191312 0)
(-0.809212 0.0190537 2.83247e-21)
(-0.830192 0.0189524 0)
(-0.851169 0.0188272 0)
(-0.872113 0.0186784 0)
(-0.892999 0.0185064 0)
(-0.913797 0.0183115 0)
(-0.934482 0.0180943 0)
(-0.955025 0.0178555 0)
(-0.975401 0.0175957 0)
(-0.995581 0.0173156 -2.67692e-21)
(-1.01554 0.0170159 0)
(-1.03525 0.0166974 0)
(-1.0547 0.016361 2.61768e-21)
(-1.07384 0.0160072 2.59684e-21)
(-1.09267 0.0156371 0)
(-1.11115 0.0152516 -2.55338e-21)
(-1.12928 0.0148514 2.5307e-21)
(-1.14701 0.0144377 0)
(-1.16434 0.0140114 -2.48336e-21)
(-1.18125 0.0135737 0)
(-1.19772 0.0131258 0)
(-1.21373 0.0126691 2.40716e-21)
(-1.22928 0.012205 0)
(-1.24434 0.0117353 -2.35277e-21)
(-1.25891 0.011262 0)
(-1.27298 0.0107872 2.29546e-21)
(-1.28654 0.0103132 2.26571e-21)
(-1.2996 0.00984251 2.23524e-21)
(-1.31214 0.00937731 4.40809e-21)
(-1.32418 0.0089198 -4.34427e-21)
(-1.33571 0.00847193 0)
(-1.34673 0.0080354 0)
(-1.35726 0.00761165 0)
(-1.3673 0.00720195 -4.07504e-21)
(-1.37687 0.00680746 -4.00436e-21)
(-1.38597 0.00642928 3.93238e-21)
(-1.39461 0.0060685 0)
(-1.40282 0.0057262 -3.78468e-21)
(-1.41062 0.00540338 -3.70903e-21)
(-1.41801 0.00510089 -3.63225e-21)
(-1.42502 0.00481933 0)
(-1.43168 0.00455904 0)
(-1.43801 0.00431999 0)
(-1.44402 0.00410181 -3.31451e-21)
(-1.44975 0.00390373 0)
(-1.45521 0.0037246 0)
(-1.46043 0.00356287 3.06617e-21)
(-1.46541 0.00341667 0)
(-1.47018 0.00328385 0)
(-1.47475 0.00316208 2.81011e-21)
(-1.47913 0.00304895 0)
(-1.48331 0.00294205 0)
(-1.48732 0.002839 -2.54665e-21)
(-1.49114 0.00273747 -2.45717e-21)
(-1.49476 0.00263505 0)
(-1.49819 0.00252878 2.27568e-21)
(-1.50142 0.00241451 0)
(-1.50443 0.0022861 -2.09066e-21)
(-1.50721 0.00213402 0)
(-1.50972 0.0019485 -1.90194e-21)
(-1.51196 0.00175591 -1.80607e-21)
(-1.51393 0.00163399 0)
(-1.51559 0.0015779 0)
(-1.51692 0.00153165 0)
(-1.51789 0.00145424 0)
(-1.5185 0.00135304 0)
(-1.51873 0.001233 0)
(-1.51856 0.0010968 0)
(-1.51797 0.000946126 -1.00347e-21)
(-1.51694 0.000781955 8.9817e-22)
(-1.51544 0.000604709 0)
(-1.51347 0.000414368 0)
(-1.51098 0.00021056 0)
(-1.50796 -7.33907e-06 0)
(-1.50439 -0.000240108 7.08485e-22)
(-1.50023 -0.000488662 0)
(-1.49546 -0.000754077 -2.56888e-22)
(-1.49006 -0.00103758 2.75496e-23)
(-1.48399 -0.00134053 0)
(-1.47722 -0.00166425 0)
(-1.46972 -0.00200939 0)
(-1.46147 -0.00237431 9.13245e-22)
(-1.45242 -0.00275548 1.15423e-21)
(-1.44255 -0.0031531 0)
(-1.43181 -0.00356783 1.64301e-21)
(-1.42017 -0.00399962 1.89074e-21)
(-1.40758 -0.00444758 -2.14066e-21)
(-1.39401 -0.0049101 0)
(-1.37941 -0.00538516 0)
(-1.36374 -0.00587092 -2.9031e-21)
(-1.34697 -0.00636642 0)
(-1.32904 -0.00687215 0)
(-1.30993 -0.00739021 0)
(-1.28957 -0.00792382 0)
(-1.26793 -0.00847573 4.21114e-21)
(-1.24496 -0.00904729 4.47726e-21)
(-1.2206 -0.00963884 0)
(-1.1948 -0.0102501 5.0127e-21)
(-1.16751 -0.0108806 0)
(-1.13868 -0.0115305 0)
(-1.10828 -0.0122014 5.82064e-21)
(-1.07624 -0.0128948 0)
(-1.04252 -0.0136106 6.35941e-21)
(-1.00707 -0.0143485 0)
(-0.969844 -0.0151074 0)
(-0.930806 -0.0158873 7.1613e-21)
(-0.889921 -0.0166902 0)
(-0.847152 -0.0175178 7.68695e-21)
(-0.802467 -0.0183698 0)
(-0.755843 -0.0192459 0)
(-0.707265 -0.0201488 0)
(-0.656717 -0.021085 -8.69792e-21)
(-0.604177 -0.022063 0)
(-0.549622 -0.0230952 9.17183e-21)
(-0.493011 -0.0242043 0)
(-0.434272 -0.0254258 0)
(-0.373296 -0.0268045 0)
(-0.310024 -0.0283209 0)
(-0.244268 -0.0292707 0)
(-0.18038 -0.0265035 0)
(-0.120471 -0.022581 0)
(-0.0622801 -0.0215924 -2.12449e-20)
(0.00116342 -0.0214963 0)
(0.0520541 -0.0174771 0)
(-0.00524043 0.0166923 6.67642e-21)
(-0.00927061 0.0200926 -6.4157e-21)
(-0.0180246 0.0225146 0)
(-0.0263733 0.0242389 4.09698e-21)
(-0.0351562 0.0255127 0)
(-0.0443213 0.0264644 1.97143e-21)
(-0.0537969 0.027175 -3.87917e-21)
(-0.0635445 0.0277021 -3.82484e-21)
(-0.0735427 0.028091 0)
(-0.0837771 0.0283794 -3.73413e-21)
(-0.0942389 0.0286007 -1.84897e-21)
(-0.104923 0.0287846 0)
(-0.115827 0.0289589 0)
(-0.126947 0.0291512 0)
(-0.13826 0.0293895 0)
(-0.149747 0.0296856 -1.77053e-21)
(-0.161424 0.0300027 0)
(-0.173331 0.0303116 3.48359e-21)
(-0.185489 0.0306133 0)
(-0.197904 0.0309195 0)
(-0.210575 0.0312386 -3.40909e-21)
(-0.223506 0.031575 0)
(-0.236705 0.0319301 3.36175e-21)
(-0.250178 0.0323038 -1.6721e-21)
(-0.263935 0.0326957 1.66079e-21)
(-0.277984 0.0331043 -1.64966e-21)
(-0.292335 0.0335278 -1.6387e-21)
(-0.306996 0.0339641 0)
(-0.321977 0.0344109 0)
(-0.337284 0.0348656 1.60691e-21)
(-0.352925 0.0353255 -1.59047e-21)
(-0.368906 0.035788 0)
(-0.385233 0.0362505 0)
(-0.40191 0.0367101 1.56695e-21)
(-0.418939 0.0371641 0)
(-0.436322 0.0376098 0)
(-0.45406 0.0380445 -1.53869e-21)
(-0.47215 0.0384653 0)
(-0.490591 0.0388697 1.51352e-21)
(-0.509378 0.0392547 -3.02356e-21)
(-0.528505 0.0396177 0)
(-0.547966 0.0399559 0)
(-0.56775 0.0402666 -5.92911e-21)
(-0.587846 0.0405472 -5.89549e-21)
(-0.608244 0.040795 -5.86227e-21)
(-0.628927 0.0410075 2.90692e-21)
(-0.64988 0.0411824 -2.90631e-21)
(-0.671085 0.0413173 -8.65487e-21)
(-0.692523 0.0414102 5.7326e-21)
(-0.714173 0.0414593 2.85843e-21)
(-0.736012 0.0414627 0)
(-0.758016 0.0414192 -2.82685e-21)
(-0.780161 0.0413274 2.79478e-21)
(-0.802419 0.0411865 0)
(-0.824764 0.0409959 0)
(-0.847166 0.0407552 0)
(-0.869598 0.0404644 -2.74743e-21)
(-0.892029 0.0401237 0)
(-0.914429 0.039734 5.41356e-21)
(-0.936769 0.0392959 0)
(-0.959018 0.0388107 5.34689e-21)
(-0.981147 0.0382798 0)
(-1.00313 0.0377047 -5.27808e-21)
(-1.02492 0.0370873 0)
(-1.04652 0.0364293 5.20663e-21)
(-1.06787 0.0357327 -2.57743e-21)
(-1.08896 0.0349996 0)
(-1.10976 0.0342321 -5.09344e-21)
(-1.13025 0.0334324 -2.53397e-21)
(-1.1504 0.0326029 -2.51354e-21)
(-1.17018 0.031746 0)
(-1.18957 0.0308642 -2.45799e-21)
(-1.20856 0.0299602 -2.44897e-21)
(-1.22712 0.0290367 0)
(-1.24523 0.0280968 2.40304e-21)
(-1.26288 0.0271434 -4.74678e-21)
(-1.28006 0.0261798 0)
(-1.29674 0.025209 -2.32954e-21)
(-1.31292 0.0242345 0)
(-1.3286 0.0232596 6.82238e-21)
(-1.34376 0.0222876 0)
(-1.3584 0.0213215 -6.6593e-21)
(-1.37251 0.0203646 -2.19451e-21)
(-1.3861 0.0194195 2.15741e-21)
(-1.39916 0.0184891 4.25658e-21)
(-1.4117 0.0175757 -4.19702e-21)
(-1.42371 0.0166817 0)
(-1.43521 0.0158093 0)
(-1.44619 0.0149605 0)
(-1.45666 0.0141374 1.18599e-20)
(-1.46664 0.0133422 3.89024e-21)
(-1.47612 0.012577 -3.82193e-21)
(-1.48513 0.0118438 0)
(-1.49367 0.0111447 -3.67216e-21)
(-1.50177 0.0104816 3.60922e-21)
(-1.50944 0.00985573 3.5358e-21)
(-1.5167 0.00926806 0)
(-1.52359 0.00871876 0)
(-1.53011 0.00820734 0)
(-1.53629 0.00773255 3.23059e-21)
(-1.54215 0.00729243 0)
(-1.54772 0.00688431 -6.13712e-21)
(-1.553 0.00650486 -8.96615e-21)
(-1.55803 0.00615024 5.81193e-21)
(-1.5628 0.00581623 0)
(-1.56734 0.00549842 2.73706e-21)
(-1.57164 0.00519242 0)
(-1.5757 0.00489399 5.13968e-21)
(-1.57953 0.00459924 -2.48128e-21)
(-1.58312 0.00430469 -2.39427e-21)
(-1.58646 0.00400738 0)
(-1.58953 0.00370487 -6.66066e-21)
(-1.59234 0.00339532 4.25949e-21)
(-1.59486 0.00307823 2.04072e-21)
(-1.59708 0.00275286 0)
(-1.59897 0.00240534 1.85608e-21)
(-1.60048 0.00202459 5.28447e-21)
(-1.60163 0.00157795 0)
(-1.60245 0.00115439 3.14173e-21)
(-1.60291 0.000741091 2.94869e-21)
(-1.60295 0.000317105 2.75366e-21)
(-1.60254 -0.000119779 0)
(-1.60166 -0.000570524 0)
(-1.60028 -0.00103546 0)
(-1.59839 -0.00151465 -9.76517e-22)
(-1.59595 -0.00200806 -8.73728e-22)
(-1.59296 -0.00251569 0)
(-1.58938 -0.00303763 -1.33105e-21)
(-1.5852 -0.00357414 -1.11958e-21)
(-1.58038 -0.0041255 0)
(-1.5749 -0.00469197 -6.87354e-22)
(-1.56874 -0.00527376 -9.45968e-22)
(-1.56188 -0.00587108 2.48912e-22)
(-1.55429 -0.00648418 3.72686e-23)
(-1.54594 -0.0071133 0)
(-1.5368 -0.00775866 0)
(-1.52686 -0.00842042 0)
(-1.51607 -0.00909809 -8.81814e-22)
(-1.50442 -0.00979044 1.09423e-21)
(-1.49188 -0.0104981 2.67337e-21)
(-1.47842 -0.0112224 -1.58307e-21)
(-1.46399 -0.0119648 1.79448e-21)
(-1.44858 -0.0127262 2.05981e-21)
(-1.43213 -0.0135075 0)
(-1.41461 -0.0143091 0)
(-1.39598 -0.0151316 -2.75233e-21)
(-1.37618 -0.015975 0)
(-1.35517 -0.0168394 0)
(-1.33291 -0.0177253 7.01972e-21)
(-1.30935 -0.0186333 0)
(-1.28444 -0.0195636 3.98371e-21)
(-1.25813 -0.0205151 -4.2868e-21)
(-1.23039 -0.0214861 0)
(-1.20118 -0.0224744 4.73284e-21)
(-1.17046 -0.0234777 0)
(-1.13819 -0.0244942 0)
(-1.10434 -0.0255239 -5.55279e-21)
(-1.06889 -0.0265668 1.15349e-20)
(-1.03179 -0.02762 -6.05556e-21)
(-0.993016 -0.0286793 0)
(-0.95255 -0.0297399 0)
(-0.910372 -0.0307969 6.70617e-21)
(-0.866471 -0.0318482 0)
(-0.820836 -0.0328905 7.17782e-21)
(-0.773462 -0.0339162 0)
(-0.724354 -0.0349172 0)
(-0.673526 -0.0358871 0)
(-0.620996 -0.0368232 8.18499e-21)
(-0.566785 -0.0377221 0)
(-0.510921 -0.0385794 -8.60473e-21)
(-0.453441 -0.0393949 0)
(-0.394398 -0.0401628 0)
(-0.333894 -0.040842 1.82248e-20)
(-0.272291 -0.0412133 -1.8574e-20)
(-0.210015 -0.0405752 0)
(-0.148537 -0.0386658 0)
(-0.0861993 -0.0379985 0)
(-0.0245268 -0.0382346 5.99899e-20)
(0.0416134 -0.037873 0)
(0.0975195 -0.0332131 -4.1152e-20)
(-0.00586162 0.0330511 5.28295e-25)
(-0.0105967 0.0379505 8.60051e-21)
(-0.0197541 0.0413317 0)
(-0.0286196 0.0438553 -8.20122e-21)
(-0.0377997 0.0458009 0)
(-0.0473496 0.0473372 0)
(-0.0572117 0.0485692 -2.27464e-24)
(-0.0673505 0.0495689 3.83036e-21)
(-0.0777471 0.0503914 3.78607e-21)
(-0.0883894 0.0510831 3.74184e-21)
(-0.0992694 0.0516858 0)
(-0.110382 0.0522377 0)
(-0.121725 0.0527728 -3.63915e-21)
(-0.133292 0.0533186 -7.2171e-21)
(-0.145077 0.053892 7.15895e-21)
(-0.157071 0.0544872 0)
(-0.169275 0.055083 7.04955e-21)
(-0.181707 0.055669 -3.49546e-21)
(-0.194384 0.0562504 0)
(-0.207319 0.0568381 6.89713e-21)
(-0.220521 0.0574415 3.42094e-21)
(-0.234001 0.0580674 -6.80074e-21)
(-0.247766 0.0587201 -3.37358e-21)
(-0.261826 0.0594017 0)
(-0.276189 0.0601127 6.66218e-21)
(-0.290864 0.0608521 6.61745e-21)
(-0.30586 0.0616181 0)
(-0.321185 0.0624075 6.53012e-21)
(-0.336845 0.0632168 0)
(-0.352848 0.0640419 6.44554e-21)
(-0.3692 0.0648781 3.19855e-21)
(-0.385904 0.0657207 0)
(-0.402966 0.0665648 0)
(-0.420386 0.0674053 0)
(-0.438168 0.068237 0)
(-0.456309 0.0690546 0)
(-0.474809 0.0698529 0)
(-0.493665 0.0706266 6.1328e-21)
(-0.512872 0.0713702 -9.14037e-21)
(-0.532423 0.0720785 0)
(-0.55231 0.0727461 0)
(-0.572524 0.0733676 0)
(-0.593054 0.0739377 -8.7744e-24)
(-0.613884 0.0744514 5.91206e-21)
(-0.635002 0.0749035 1.17651e-20)
(-0.656389 0.0752893 -1.16979e-20)
(-0.678026 0.0756041 -5.82025e-21)
(-0.699895 0.0758436 5.77785e-21)
(-0.721971 0.0760041 9.44508e-24)
(-0.744233 0.0760818 5.72165e-21)
(-0.766655 0.0760737 0)
(-0.78921 0.0759772 5.65647e-21)
(-0.811871 0.0757902 9.66899e-24)
(-0.834611 0.0755111 0)
(-0.857399 0.075139 0)
(-0.880205 0.0746733 -5.52555e-21)
(-0.903 0.0741143 0)
(-0.925752 0.073463 0)
(-0.948431 0.0727206 5.4346e-21)
(-0.971006 0.0718892 1.07816e-20)
(-0.993447 0.0709713 -5.34672e-21)
(-1.01572 0.0699697 0)
(-1.03781 0.0688879 5.27583e-21)
(-1.05967 0.0677292 0)
(-1.08128 0.0664973 5.22001e-21)
(-1.10262 0.0651963 5.16455e-21)
(-1.12366 0.0638301 -1.02688e-20)
(-1.14437 0.0624028 -5.10301e-21)
(-1.16473 0.0609188 0)
(-1.18471 0.0593826 1.00252e-20)
(-1.20431 0.0577988 0)
(-1.22349 0.0561723 1.47721e-20)
(-1.24223 0.0545082 9.76378e-21)
(-1.26053 0.0528117 9.67232e-21)
(-1.27836 0.0510883 -9.5786e-21)
(-1.29572 0.0493437 1.42173e-20)
(-1.31258 0.0475836 0)
(-1.32894 0.045814 0)
(-1.34479 0.0440407 -9.18019e-21)
(-1.36012 0.0422695 -1.36063e-20)
(-1.37493 0.040506 0)
(-1.38921 0.0387555 4.4228e-21)
(-1.40297 0.0370228 0)
(-1.41619 0.0353124 -1.29354e-20)
(-1.42888 0.0336283 8.60925e-24)
(-1.44104 0.0319743 -8.1443e-24)
(-1.45266 0.0303538 8.26322e-21)
(-1.46376 0.0287704 0)
(-1.47433 0.0272273 -8.00743e-21)
(-1.48437 0.0257284 6.45383e-24)
(-1.4939 0.0242773 0)
(-1.50292 0.0228782 0)
(-1.51144 0.0215354 0)
(-1.51947 0.020253 7.31543e-21)
(-1.52704 0.0190348 0)
(-1.53415 0.0178839 0)
(-1.54082 0.0168023 0)
(-1.54709 0.0157905 0)
(-1.55296 0.0148479 0)
(-1.55846 0.0139724 6.41378e-21)
(-1.56361 0.0131602 0)
(-1.56843 0.0124065 6.09102e-21)
(-1.57294 0.011705 5.92861e-21)
(-1.57714 0.0110485 -5.76438e-21)
(-1.58106 0.010429 0)
(-1.5847 0.00983834 -5.4307e-21)
(-1.58806 0.00926823 0)
(-1.59115 0.00871084 -5.09028e-21)
(-1.59395 0.00815897 4.91761e-21)
(-1.59647 0.00760614 1.42375e-20)
(-1.5987 0.0070467 0)
(-1.60062 0.00647588 1.31777e-20)
(-1.60222 0.0058895 4.21941e-21)
(-1.60348 0.00528322 0)
(-1.6044 0.00465747 7.70391e-21)
(-1.60497 0.00403204 7.33592e-21)
(-1.60519 0.00338133 -1.04411e-20)
(-1.60501 0.00265572 0)
(-1.60437 0.00188851 -3.09848e-21)
(-1.60329 0.00108559 -2.90703e-21)
(-1.60175 0.00025981 -8.15465e-21)
(-1.59973 -0.000587849 0)
(-1.5972 -0.00145777 0)
(-1.59416 -0.00235043 0)
(-1.59056 -0.00326593 -1.93709e-21)
(-1.5864 -0.00420419 0)
(-1.58166 -0.00516506 0)
(-1.57631 -0.00614857 1.30835e-21)
(-1.57033 -0.00715501 1.10008e-21)
(-1.56371 -0.00818476 0)
(-1.55641 -0.00923805 0)
(-1.54842 -0.010315 9.2852e-22)
(-1.53972 -0.0114158 0)
(-1.53028 -0.0125404 -6.27245e-23)
(-1.52008 -0.0136891 3.54189e-22)
(-1.50909 -0.014862 0)
(-1.49729 -0.0160592 0)
(-1.48464 -0.0172812 -1.68731e-21)
(-1.47113 -0.0185295 -2.42836e-23)
(-1.45672 -0.0198058 -2.50758e-23)
(-1.44138 -0.0211128 0)
(-1.42507 -0.022453 -7.05052e-21)
(-1.40776 -0.0238284 0)
(-1.3894 -0.0252403 0)
(-1.36996 -0.0266894 0)
(-1.34939 -0.028176 5.41897e-21)
(-1.32766 -0.0296992 0)
(-1.30472 -0.0312576 -1.26911e-20)
(-1.28054 -0.0328497 -6.86015e-21)
(-1.25508 -0.0344751 0)
(-1.22831 -0.0361329 -7.83194e-21)
(-1.2002 -0.0378201 0)
(-1.17071 -0.0395331 0)
(-1.13981 -0.0412678 -2.78268e-20)
(-1.10747 -0.0430196 1.9507e-20)
(-1.07367 -0.0447842 0)
(-1.03838 -0.0465614 2.14632e-20)
(-1.00157 -0.0483503 -1.1255e-20)
(-0.963219 -0.0501463 0)
(-0.92331 -0.0519424 0)
(-0.881823 -0.0537305 0)
(-0.838748 -0.0555026 -3.94679e-20)
(-0.794078 -0.0572557 0)
(-0.747807 -0.0589855 -1.41155e-20)
(-0.699934 -0.0606827 0)
(-0.650463 -0.0623367 0)
(-0.599406 -0.0639412 0)
(-0.546775 -0.065497 0)
(-0.492586 -0.0670056 0)
(-0.436858 -0.0684685 0)
(-0.379619 -0.0698926 -3.43137e-20)
(-0.320928 -0.0712749 0)
(-0.26089 -0.0725576 -1.79762e-20)
(-0.19982 -0.0734844 5.51092e-20)
(-0.137882 -0.0733064 0)
(-0.0751984 -0.0715995 0)
(-0.0102779 -0.0704323 -3.91843e-20)
(0.0537192 -0.0701855 -3.99077e-20)
(0.122347 -0.0695249 4.06418e-20)
(0.180603 -0.0641187 4.1107e-20)
(-0.00606424 0.0494188 -1.35062e-20)
(-0.01164 0.0552737 -1.29434e-20)
(-0.0211589 0.0593827 -8.3961e-21)
(-0.0305491 0.062626 -4.10689e-21)
(-0.0401765 0.0651689 0)
(-0.0501471 0.0671906 7.90341e-21)
(-0.0604132 0.0688265 -3.8921e-21)
(-0.070944 0.0701746 0)
(-0.0817241 0.0713086 -3.7913e-21)
(-0.0927447 0.0722868 0)
(-0.104 0.0731577 7.42882e-21)
(-0.115486 0.0739624 0)
(-0.127199 0.0747352 3.64718e-21)
(-0.139137 0.0755032 7.23416e-21)
(-0.151296 0.0762848 -7.17684e-21)
(-0.163676 0.077088 0)
(-0.176281 0.077912 -7.06868e-21)
(-0.189123 0.0787559 0)
(-0.202214 0.0796218 0)
(-0.215569 0.0805139 -6.91745e-21)
(-0.229199 0.0814368 0)
(-0.243113 0.082394 -2.3819e-24)
(-0.257322 0.0833876 0)
(-0.271834 0.0844183 0)
(-0.286658 0.0854852 2.62979e-24)
(-0.301802 0.0865862 -6.63879e-21)
(-0.317272 0.0877181 -6.5976e-21)
(-0.333074 0.0888766 -6.55141e-21)
(-0.349215 0.0900565 0)
(-0.365698 0.0912523 -1.29363e-20)
(-0.382528 0.0924576 0)
(-0.399706 0.0936659 -6.38759e-21)
(-0.417234 0.0948703 0)
(-0.435111 0.0960637 0)
(-0.453336 0.0972389 6.26878e-21)
(-0.471906 0.0983885 0)
(-0.490816 0.0995051 -6.19233e-21)
(-0.51006 0.100581 4.1921e-24)
(-0.529631 0.101609 1.22314e-20)
(-0.549519 0.102581 -1.21627e-20)
(-0.569712 0.10349 0)
(-0.590198 0.104329 0)
(-0.610961 0.105089 -5.9792e-21)
(-0.631986 0.105763 0)