/*--------------------------------*- C++ -*----------------------------------*\
| =========                 |                                                 |
| \\      /  F ield         | OpenFOAM: The Open Source CFD Toolbox           |
|  \\    /   O peration     | Version:  2112                                  |
|   \\  /    A nd           | Website:  www.openfoam.com                      |
|    \\/     M anipulation  |                                                 |
\*---------------------------------------------------------------------------*/
FoamFile
{
    version     2.0;
    format      ascii;
    arch        "LSB;label=32;scalar=64";
    class       volVectorField;
    location    "0.01";
    object      U;
}
// * * * * * * * * * * * * * * * * * * * * * * * * * * * * * * * * * * * * * //

dimensions      [0 1 -1 0 0 0 0];

internalField   nonuniform List<vector> 
12225
(
(9.75388 0.0476889 0)
(9.2706 0.082857 0)
(8.78614 0.089951 0)
(8.31633 0.089849 0)
(7.88296 0.0864772 0)
(7.49457 0.0806198 0)
(7.15196 0.0732731 0)
(6.85614 0.0658942 0)
(6.59669 0.0594311 0)
(6.36984 0.0536395 0)
(6.17527 0.0479571 0)
(6.01229 0.0421315 0)
(5.8796 0.0361893 0)
(5.77529 0.0302692 0)
(5.69628 0.0245728 0)
(5.64066 0.0189062 0)
(5.59805 0.0177935 0)
(5.57637 0.000229725 0)
(10.1067 0.0674799 0)
(10.317 0.107151 0)
(10.4564 0.110994 0)
(10.5311 0.111832 0)
(10.5606 0.111354 0)
(10.5555 0.10808 0)
(10.5218 0.102454 0)
(10.4661 0.0959816 0)
(10.3947 0.0897798 0)
(10.3126 0.0834552 0)
(10.2234 0.0763408 0)
(10.1292 0.0682922 0)
(10.0324 0.0595537 0)
(9.93471 0.0505441 0)
(9.83807 0.0415546 0)
(9.74374 0.0335252 0)
(9.65493 0.0261895 0)
(9.57344 0.0252783 0)
(10.0116 0.0405023 0)
(10.063 0.0606747 0)
(10.1172 0.0625843 0)
(10.1683 0.0687514 0)
(10.2206 0.0757742 0)
(10.2734 0.0801562 0)
(10.3228 0.0821301 0)
(10.3662 0.0830611 0)
(10.4036 0.0837314 0)
(10.4356 0.0837557 0)
(10.4621 0.0826238 0)
(10.4831 0.080296 0)
(10.4984 0.0770335 0)
(10.5087 0.0731528 0)
(10.5147 0.0689812 0)
(10.5173 0.0647293 0)
(10.5187 0.0611947 0)
(10.5208 0.0554558 0)
(10.0059 0.029922 0)
(10.0343 0.0560401 0)
(10.0624 0.0650058 0)
(10.0835 0.0722582 0)
(10.1034 0.0775461 0)
(10.1248 0.0794844 0)
(10.1468 0.0789976 0)
(10.1683 0.0775263 0)
(10.1897 0.0757913 0)
(10.2114 0.0736259 0)
(10.2331 0.0707211 0)
(10.2544 0.0670273 0)
(10.2748 0.0626765 0)
(10.2939 0.0578615 0)
(10.3117 0.0527576 0)
(10.3286 0.04744 0)
(10.3449 0.0417878 0)
(10.3614 0.033113 0)
(10.0043 0.0243127 0)
(10.027 0.0515938 0)
(10.0514 0.0610079 0)
(10.0695 0.0661545 0)
(10.0849 0.0699084 0)
(10.1006 0.0713963 0)
(10.1164 0.0710258 0)
(10.1314 0.0698017 0)
(10.1458 0.068272 0)
(10.1604 0.0663525 0)
(10.1753 0.0637967 0)
(10.1902 0.0605429 0)
(10.2049 0.0567076 0)
(10.2192 0.0524534 0)
(10.2333 0.0479031 0)
(10.2471 0.0430375 0)
(10.2609 0.0374964 0)
(10.2748 0.0301589 0)
(10.0031 0.0199593 0)
(10.0211 0.0453037 0)
(10.0427 0.0550897 0)
(10.0602 0.0602464 0)
(10.0752 0.0643588 0)
(10.0903 0.0665373 0)
(10.1053 0.0667147 0)
(10.1195 0.0657078 0)
(10.1331 0.0640915 0)
(10.1466 0.0619124 0)
(10.16 0.0590386 0)
(10.1734 0.0554574 0)
(10.1865 0.0512816 0)
(10.1994 0.0466508 0)
(10.212 0.0416521 0)
(10.2243 0.0362426 0)
(10.2365 0.0301563 0)
(10.248 0.0228238 0)
(10.0023 0.0163966 0)
(10.0165 0.0393895 0)
(10.0353 0.0498321 0)
(10.052 0.0552866 0)
(10.0665 0.0592693 0)
(10.0809 0.0613327 0)
(10.0954 0.0613936 0)
(10.1093 0.0601947 0)
(10.1227 0.0583134 0)
(10.1358 0.0558632 0)
(10.1489 0.0527751 0)
(10.1619 0.0490504 0)
(10.1747 0.0447839 0)
(10.1871 0.0400897 0)
(10.1993 0.0350373 0)
(10.2111 0.0296089 0)
(10.2225 0.0236518 0)
(10.233 0.016981 0)
(10.0017 0.0135296 0)
(10.013 0.034058 0)
(10.0292 0.0446868 0)
(10.0448 0.0501789 0)
(10.0588 0.0538016 0)
(10.0725 0.055663 0)
(10.0863 0.0557047 0)
(10.0998 0.0544902 0)
(10.1129 0.0525195 0)
(10.1257 0.0499336 0)
(10.1385 0.0467106 0)
(10.1512 0.0428682 0)
(10.1636 0.0384941 0)
(10.1758 0.0336918 0)
(10.1877 0.0285341 0)
(10.1992 0.0230487 0)
(10.2101 0.0171992 0)
(10.2202 0.0111228 0)
(10.0013 0.0112095 0)
(10.0103 0.0292294 0)
(10.0243 0.0395589 0)
(10.0386 0.0449765 0)
(10.0519 0.0482829 0)
(10.065 0.049952 0)
(10.0782 0.0499508 0)
(10.0912 0.0486721 0)
(10.1039 0.0465471 0)
(10.1164 0.0437539 0)
(10.1288 0.0403224 0)
(10.1411 0.036293 0)
(10.1533 0.0317541 0)
(10.1651 0.0268079 0)
(10.1767 0.0215401 0)
(10.188 0.0160275 0)
(10.1987 0.0103244 0)
(10.2087 0.00475191 0)
(10.001 0.00929983 0)
(10.0083 0.024872 0)
(10.0202 0.0345442 0)
(10.0333 0.0397712 0)
(10.0459 0.0427551 0)
(10.0583 0.0441553 0)
(10.0709 0.0440085 0)
(10.0834 0.0425964 0)
(10.0957 0.0402884 0)
(10.1078 0.0372838 0)
(10.1199 0.0336486 0)
(10.1318 0.0294379 0)
(10.1436 0.0247386 0)
(10.1552 0.0196523 0)
(10.1665 0.0142766 0)
(10.1775 0.00872385 0)
(10.1882 0.00309584 0)
(10.1984 -0.0022028 0)
(10.0008 0.00769539 0)
(10.0067 0.0209583 0)
(10.017 0.0297205 0)
(10.0288 0.0346003 0)
(10.0407 0.0372128 0)
(10.0524 0.0382753 0)
(10.0643 0.0379079 0)
(10.0763 0.036321 0)
(10.0882 0.0338168 0)
(10.0999 0.0305944 0)
(10.1116 0.0267425 0)
(10.1231 0.0223276 0)
(10.1345 0.0174366 0)
(10.1458 0.0121715 0)
(10.1569 0.00663737 0)
(10.1678 0.000964106 0)
(10.1785 -0.00473382 0)
(10.1889 -0.0100375 0)
(10.0006 0.00640997 0)
(10.0056 0.017676 0)
(10.0145 0.0254497 0)
(10.0253 0.0298771 0)
(10.0364 0.0321026 0)
(10.0476 0.0328129 0)
(10.0589 0.0321887 0)
(10.0704 0.0303984 0)
(10.0818 0.0276865 0)
(10.0931 0.0242417 0)
(10.1044 0.0201672 0)
(10.1156 0.0155383 0)
(10.1267 0.010441 0)
(10.1377 0.00497495 0)
(10.1486 -0.000755883 0)
(10.1594 -0.00662097 0)
(10.1701 -0.0125172 0)
(10.1807 -0.0180493 0)
(10.0005 0.00530428 0)
(10.0048 0.0147234 0)
(10.0126 0.0213994 0)
(10.0223 0.0252467 0)
(10.0327 0.0270375 0)
(10.0432 0.0273637 0)
(10.054 0.026437 0)
(10.0649 0.0244039 0)
(10.0759 0.0214618 0)
(10.0868 0.0177815 0)
(10.0977 0.0134713 0)
(10.1085 0.00861087 0)
(10.1193 0.00328289 0)
(10.13 -0.00242027 0)
(10.1407 -0.00840229 0)
(10.1513 -0.0145434 0)
(10.1619 -0.0207659 0)
(10.1727 -0.0267162 0)
(10.0005 0.0041867 0)
(10.004 0.0116446 0)
(10.0107 0.0170004 0)
(10.0194 0.0200595 0)
(10.0289 0.0212803 0)
(10.0388 0.02112 0)
(10.0489 0.0197935 0)
(10.0592 0.0174329 0)
(10.0696 0.0141927 0)
(10.0801 0.0102179 0)
(10.0905 0.00561306 0)
(10.1008 0.000456997 0)
(10.1112 -0.00517491 0)
(10.1215 -0.011202 0)
(10.1319 -0.0175433 0)
(10.1423 -0.0241016 0)
(10.1528 -0.0308349 0)
(10.1635 -0.0374459 0)
(10.0004 0.00305648 0)
(10.0034 0.00846912 0)
(10.0091 0.0123073 0)
(10.0167 0.0143523 0)
(10.0253 0.0148316 0)
(10.0344 0.014058 0)
(10.0437 0.0122194 0)
(10.0534 0.00943107 0)
(10.0631 0.00580965 0)
(10.073 0.00146954 0)
(10.0828 -0.00349817 0)
(10.0926 -0.00902286 0)
(10.1024 -0.0150414 0)
(10.1123 -0.0214909 0)
(10.1222 -0.028314 0)
(10.1321 -0.035444 0)
(10.1423 -0.042878 0)
(10.1527 -0.0503803 0)
(10.0003 0.00191528 0)
(10.0028 0.00521737 0)
(10.0077 0.00736518 0)
(10.0143 0.00816999 0)
(10.0219 0.00771437 0)
(10.0301 0.00618003 0)
(10.0387 0.00370349 0)
(10.0475 0.00037402 0)
(10.0566 -0.00372605 0)
(10.0656 -0.00851513 0)
(10.0747 -0.0139239 0)
(10.0839 -0.0198976 0)
(10.093 -0.0263912 0)
(10.1022 -0.0333647 0)
(10.1114 -0.0407873 0)
(10.1207 -0.0486248 0)
(10.1301 -0.0569064 0)
(10.1398 -0.0654558 0)
(10.0003 0.000747065 0)
(10.0024 0.00186355 0)
(10.0065 0.00218116 0)
(10.0122 0.00155194 0)
(10.0189 -2.34295e-05 0)
(10.0262 -0.00246455 0)
(10.0339 -0.0056972 0)
(10.0419 -0.00966782 0)
(10.05 -0.0143279 0)
(10.0582 -0.0196293 0)
(10.0664 -0.0255297 0)
(10.0747 -0.0319966 0)
(10.0829 -0.0390058 0)
(10.0911 -0.04654 0)
(10.0993 -0.0545923 0)
(10.1075 -0.0631545 0)
(10.1157 -0.0722729 0)
(10.1241 -0.0818179 0)
(10.0002 -0.000444385 0)
(10.002 -0.00159048 0)
(10.0056 -0.00323934 0)
(10.0105 -0.00547711 0)
(10.0164 -0.00834098 0)
(10.0229 -0.0118276 0)
(10.0296 -0.0159245 0)
(10.0367 -0.020619 0)
(10.0438 -0.025897 0)
(10.051 -0.0317432 0)
(10.0581 -0.0381441 0)
(10.0652 -0.0450901 0)
(10.0722 -0.0525771 0)
(10.0791 -0.0606058 0)
(10.0859 -0.0691846 0)
(10.0926 -0.0783202 0)
(10.0991 -0.0880584 0)
(10.1056 -0.0983084 0)
(10.0002 -0.0017061 0)
(10.0018 -0.00524573 0)
(10.005 -0.00897736 0)
(10.0094 -0.0129157 0)
(10.0146 -0.0171293 0)
(10.0203 -0.0216907 0)
(10.0262 -0.0266485 0)
(10.0322 -0.0320302 0)
(10.0383 -0.0378535 0)
(10.0443 -0.0441318 0)
(10.0501 -0.0508754 0)
(10.0559 -0.0580922 0)
(10.0614 -0.0657909 0)
(10.0666 -0.0739815 0)
(10.0716 -0.0826779 0)
(10.0764 -0.0918906 0)
(10.0808 -0.101654 0)
(10.0849 -0.111908 0)
(10.0002 -0.0028744 0)
(10.0019 -0.00859117 0)
(10.0051 -0.0141322 0)
(10.0094 -0.0194649 0)
(10.0144 -0.0247227 0)
(10.0196 -0.0300674 0)
(10.0249 -0.0356049 0)
(10.0302 -0.0413945 0)
(10.0355 -0.0474798 0)
(10.0406 -0.0538959 0)
(10.0454 -0.0606661 0)
(10.05 -0.0678037 0)
(10.0542 -0.075318 0)
(10.0581 -0.0832185 0)
(10.0616 -0.0915167 0)
(10.0647 -0.100221 0)
(10.0674 -0.109353 0)
(10.0695 -0.118872 0)
(10.0002 -0.00388278 0)
(10.0021 -0.0114306 0)
(10.0057 -0.0183631 0)
(10.0103 -0.0246311 0)
(10.0153 -0.0305099 0)
(10.0204 -0.0362802 0)
(10.0254 -0.0420875 0)
(10.0303 -0.0480072 0)
(10.0351 -0.0541063 0)
(10.0396 -0.0604406 0)
(10.0437 -0.06704 0)
(10.0476 -0.0739151 0)
(10.051 -0.0810698 0)
(10.054 -0.0885081 0)
(10.0566 -0.0962355 0)
(10.0586 -0.104256 0)
(10.0601 -0.112584 0)
(10.0611 -0.121189 0)
(10.0003 -0.00494824 0)
(10.0026 -0.0143398 0)
(10.0069 -0.0224651 0)
(10.0121 -0.0293559 0)
(10.0174 -0.0355775 0)
(10.0224 -0.0415634 0)
(10.0273 -0.0474726 0)
(10.032 -0.0533836 0)
(10.0364 -0.059385 0)
(10.0405 -0.0655432 0)
(10.0441 -0.0718823 0)
(10.0474 -0.0784016 0)
(10.0503 -0.0850969 0)
(10.0527 -0.091967 0)
(10.0546 -0.0990136 0)
(10.0559 -0.106238 0)
(10.0566 -0.113653 0)
(10.0567 -0.121232 0)
(10.0004 -0.00618442 0)
(10.0036 -0.0175447 0)
(10.009 -0.02664 0)
(10.015 -0.0338351 0)
(10.0206 -0.0401593 0)
(10.0257 -0.0461615 0)
(10.0306 -0.0519823 0)
(10.0351 -0.0577404 0)
(10.0393 -0.0635763 0)
(10.043 -0.0695618 0)
(10.0464 -0.0756926 0)
(10.0493 -0.0819367 0)
(10.0519 -0.088267 0)
(10.0539 -0.0946658 0)
(10.0554 -0.101123 0)
(10.0563 -0.107631 0)
(10.0566 -0.114197 0)
(10.0562 -0.120801 0)
(10.0006 -0.00773624 0)
(10.005 -0.0212389 0)
(10.0121 -0.0309258 0)
(10.0191 -0.0380991 0)
(10.0251 -0.0444392 0)
(10.0303 -0.0504059 0)
(10.0352 -0.0560064 0)
(10.0396 -0.0614224 0)
(10.0435 -0.066888 0)
(10.047 -0.0725016 0)
(10.0501 -0.0782426 0)
(10.0528 -0.0840587 0)
(10.0551 -0.0899089 0)
(10.0569 -0.0957644 0)
(10.0582 -0.101604 0)
(10.0589 -0.107412 0)
(10.059 -0.113188 0)
(10.0584 -0.118915 0)
(10.001 -0.00979526 0)
(10.0074 -0.0256522 0)
(10.0166 -0.0353077 0)
(10.0246 -0.0419179 0)
(10.0308 -0.048073 0)
(10.0362 -0.0540471 0)
(10.0413 -0.0596643 0)
(10.0457 -0.0651118 0)
(10.0494 -0.0706279 0)
(10.0527 -0.076266 0)
(10.0555 -0.0819511 0)
(10.0581 -0.0875945 0)
(10.0602 -0.093138 0)
(10.0618 -0.0985465 0)
(10.0629 -0.103796 0)
(10.0634 -0.108868 0)
(10.0633 -0.113761 0)
(10.0625 -0.118451 0)
(10.0015 -0.0125267 0)
(10.0111 -0.0308862 0)
(10.0229 -0.040293 0)
(10.0317 -0.0460898 0)
(10.0378 -0.0512917 0)
(10.0431 -0.0561139 0)
(10.048 -0.0606365 0)
(10.0522 -0.065275 0)
(10.0557 -0.070297 0)
(10.0587 -0.0756789 0)
(10.0614 -0.0812528 0)
(10.0639 -0.086857 0)
(10.0661 -0.0923812 0)
(10.0678 -0.0977504 0)
(10.0692 -0.102914 0)
(10.07 -0.107829 0)
(10.0703 -0.11249 0)
(10.07 -0.116788 0)
(10.0024 -0.0162602 0)
(10.0159 -0.0354958 0)
(10.0307 -0.0448077 0)
(10.0407 -0.0522688 0)
(10.0475 -0.059072 0)
(10.0538 -0.0644734 0)
(10.0599 -0.0688534 0)
(10.0653 -0.0730237 0)
(10.0704 -0.0774373 0)
(10.0755 -0.0821055 0)
(10.0809 -0.086857 0)
(10.0866 -0.0915495 0)
(10.0926 -0.0960967 0)
(10.0987 -0.100435 0)
(10.1049 -0.104518 0)
(10.1109 -0.108316 0)
(10.117 -0.111829 0)
(10.1224 -0.114919 0)
(10.0049 -0.0235144 0)
(10.0291 -0.0377618 0)
(10.0542 -0.0390122 0)
(10.0755 -0.0429895 0)
(10.0966 -0.0492954 0)
(10.1193 -0.0554289 0)
(10.1426 -0.0612593 0)
(10.1656 -0.0674195 0)
(10.1883 -0.0742242 0)
(10.2112 -0.0814922 0)
(10.2345 -0.0888509 0)
(10.2578 -0.0960568 0)
(10.2807 -0.102991 0)
(10.3027 -0.109571 0)
(10.3235 -0.115722 0)
(10.3426 -0.121427 0)
(10.3597 -0.126654 0)
(10.3747 -0.131597 0)
(10.0571 -0.0455516 0)
(10.1868 -0.0770252 0)
(10.2899 -0.0815359 0)
(10.3653 -0.0838001 0)
(10.422 -0.0866397 0)
(10.4635 -0.0888699 0)
(10.49 -0.0906582 0)
(10.5031 -0.0928429 0)
(10.5047 -0.0960468 0)
(10.4964 -0.100103 0)
(10.4791 -0.104431 0)
(10.4531 -0.108573 0)
(10.4185 -0.11227 0)
(10.3758 -0.115375 0)
(10.3255 -0.117792 0)
(10.2685 -0.11955 0)
(10.2053 -0.120626 0)
(10.1368 -0.121608 0)
(9.86529 -0.0336331 0)
(9.59699 -0.0630063 0)
(9.3157 -0.0724223 0)
(9.02926 -0.0766209 0)
(8.75119 -0.0788244 0)
(8.48597 -0.0794466 0)
(8.23258 -0.0790997 0)
(7.99015 -0.0786077 0)
(7.75464 -0.0785789 0)
(7.5234 -0.0790029 0)
(7.29649 -0.0794997 0)
(7.07453 -0.0797207 0)
(6.85849 -0.0794518 0)
(6.64959 -0.0785778 0)
(6.44902 -0.0770479 0)
(6.25795 -0.0748935 0)
(6.07651 -0.0721889 0)
(5.90737 -0.0690981 0)
(-0.0249994 -0.00607676 -2.11418e-20)
(-0.0405678 0.00501892 2.02076e-20)
(-0.0898786 0.0124793 0)
(-0.141999 0.0220743 0)
(-0.204207 0.0335665 0)
(-0.278795 0.0473014 -1.9717e-20)
(-0.366952 0.0632737 0)
(-0.469719 0.0811153 0)
(-0.587694 0.10035 0)
(-0.721102 0.120431 0)
(-0.869801 0.14086 1.87882e-20)
(-1.03331 0.161089 0)
(-1.21083 0.180539 0)
(-1.40118 0.198547 0)
(-1.60292 0.214555 0)
(-1.81425 0.228076 1.8127e-20)
(-2.0331 0.23857 0)
(-2.25709 0.245557 0)
(-2.48358 0.248639 0)
(-2.70968 0.247505 0)
(-2.9323 0.241943 0)
(-3.1482 0.231868 0)
(-3.35404 0.21735 0)
(-3.54641 0.198622 1.775e-20)
(-3.72195 0.176078 -1.75967e-20)
(-3.87739 0.15027 1.73761e-20)
(-4.00969 0.121937 1.70733e-20)
(-4.11613 0.0920532 0)
(-4.19449 0.0617903 0)
(-4.24287 0.0324893 -1.55332e-20)
(-4.25959 0.00538048 -1.47375e-20)
(-4.24739 -0.0190905 0)
(-4.20836 -0.0415801 0)
(-4.143 -0.0625786 -1.13273e-20)
(-4.05238 -0.082196 0)
(-3.93766 -0.100427 0)
(-3.80019 -0.117235 6.46788e-21)
(-3.64157 -0.132464 0)
(-3.46363 -0.145972 2.45637e-21)
(-3.26841 -0.15766 4.82059e-22)
(-3.05807 -0.167467 0)
(-2.8349 -0.175375 0)
(-2.60119 -0.181401 0)
(-2.35923 -0.185607 0)
(-2.11123 -0.188093 0)
(-1.8593 -0.188978 -3.0745e-20)
(-1.60539 -0.188368 -3.65318e-20)
(-1.35134 -0.186372 -4.24254e-20)
(-1.09883 -0.183133 0)
(-0.849273 -0.178871 5.44153e-20)
(-0.603989 -0.173835 0)
(-0.363623 -0.168349 -6.67579e-20)
(-0.128382 -0.1626 -7.12045e-20)
(0.100651 -0.156371 0)
(0.322756 -0.149848 0)
(0.537398 -0.143218 0)
(0.744244 -0.136591 -6.89544e-20)
(0.943118 -0.129885 0)
(1.13392 -0.122936 0)
(1.31651 -0.115899 0)
(1.49083 -0.109012 0)
(1.65699 -0.102347 0)
(1.81511 -0.0959275 0)
(1.96533 -0.0897638 0)
(2.10786 -0.0838558 0)
(2.2429 -0.0781927 5.90715e-20)
(2.37067 -0.0727454 0)
(2.49142 -0.067456 0)
(2.60537 -0.0622601 -5.61491e-20)
(2.71272 -0.0571909 -5.52512e-20)
(2.81375 -0.052375 0)
(2.90872 -0.0478648 5.35575e-20)
(2.99792 -0.0436597 -5.27606e-20)
(3.08161 -0.039744 0)
(3.16007 -0.0361006 5.12631e-20)
(3.23354 -0.0327142 0)
(3.3023 -0.0295721 0)
(3.36658 -0.0266646 -4.92422e-20)
(3.42665 -0.0239844 0)
(3.48277 -0.0215237 4.80318e-20)
(3.53513 -0.0192672 0)
(3.5839 -0.0171876 -4.6921e-20)
(3.62923 -0.0152623 -4.64004e-20)
(3.67127 -0.0134829 -4.59019e-20)
(3.71016 -0.0118475 -9.08489e-20)
(3.7461 -0.0103535 8.99343e-20)
(3.77925 -0.0089959 0)
(3.80979 -0.00776801 0)
(3.8379 -0.00666175 0)
(3.86375 -0.00566833 8.66368e-20)
(3.88748 -0.00477878 8.58929e-20)
(3.90926 -0.00398431 -8.51775e-20)
(3.92922 -0.00327655 0)
(3.94749 -0.00264767 8.3826e-20)
(3.9642 -0.00209043 8.31868e-20)
(3.97947 -0.00159813 8.25701e-20)
(3.9934 -0.0011646 0)
(4.00608 -0.000784136 0)
(4.01763 -0.000451446 0)
(4.02811 -0.00016164 8.0304e-20)
(4.03762 8.98006e-05 0)
(4.04622 0.000307454 0)
(4.05398 0.000495414 -7.87838e-20)
(4.06097 0.000657488 0)
(4.06724 0.000804357 0)
(4.07281 0.000937923 -7.73904e-20)
(4.07777 0.00110015 0)
(4.08192 0.00137157 0)
(4.08515 0.00176896 7.61008e-20)
(4.08745 0.00225354 7.56926e-20)
(4.08884 0.00277661 0)
(4.08936 0.00328956 -7.49112e-20)
(4.08913 0.0037271 0)
(4.08828 0.00404905 7.41708e-20)
(4.08697 0.00424309 0)
(4.08531 0.00431029 7.34624e-20)
(4.08346 0.00426288 7.31177e-20)
(4.0815 0.00412707 0)
(4.07952 0.00393333 0)
(4.07756 0.00370957 0)
(4.07563 0.00347789 0)
(4.07374 0.00325298 0)
(4.07189 0.00304276 0)
(4.07007 0.00285011 0)
(4.06826 0.00267478 7.05046e-20)
(4.06646 0.00251513 -7.01917e-20)
(4.06467 0.00236918 0)
(4.06288 0.00223516 0)
(4.0611 0.00211168 0)
(4.05931 0.0019977 0)
(4.05753 0.00189242 -1.37326e-19)
(4.05575 0.00179516 0)
(4.05397 0.00170534 1.36134e-19)
(4.05218 0.00162248 -1.35543e-19)
(4.0504 0.00154616 0)
(4.04862 0.00147601 0)
(4.04683 0.00141169 0)
(4.04504 0.00135281 1.33215e-19)
(4.04325 0.00129901 1.32641e-19)
(4.04145 0.00124987 0)
(4.03965 0.00120499 1.31502e-19)
(4.03784 0.00116396 1.30937e-19)
(4.03602 0.00112642 -1.30374e-19)
(4.03419 0.00109211 0)
(4.03235 0.00106084 0)
(4.0305 0.00103258 -1.28704e-19)
(4.02864 0.00100734 0)
(4.02676 0.000985169 0)
(4.02486 0.000966079 0)
(4.02294 0.000950041 0)
(4.021 0.000937003 1.25971e-19)
(4.01903 0.000926966 1.25432e-19)
(4.01703 0.000920056 0)
(4.01499 0.000916605 1.24363e-19)
(4.0129 0.000917169 0)
(4.01076 0.000922507 0)
(4.00855 0.000933529 1.22783e-19)
(4.00626 0.000951284 0)
(4.00386 0.000977004 1.21749e-19)
(4.00135 0.00101227 0)
(3.99867 0.00105922 0)
(3.99581 0.00112084 1.20234e-19)
(3.99271 0.00120115 0)
(3.98931 0.00130547 1.1926e-19)
(3.98552 0.00144075 0)
(3.98124 0.00161611 0)
(3.97633 0.00184387 0)
(3.9706 0.00214099 -1.17463e-19)
(3.96381 0.00253135 0)
(3.95559 0.00304921 1.16699e-19)
(3.94549 0.00374458 0)
(3.93282 0.00469297 0)
(3.9166 0.00601097 0)
(3.89536 0.00789022 0)
(3.86691 0.010652 0)
(3.82731 0.0148342 0)
(3.77173 0.0216997 0)
(3.6842 0.0318445 -2.35257e-19)
(3.57117 0.0556893 0)
(3.28239 0.0700386 0)
(-0.0823062 0.171818 6.12038e-20)
(-0.203315 0.210372 -5.73209e-20)
(-0.364056 0.234269 0)
(-0.523783 0.263162 3.50551e-20)
(-0.691889 0.296446 0)
(-0.867903 0.332592 1.65315e-20)
(-1.05123 0.370063 -3.20218e-20)
(-1.24101 0.407562 -3.13323e-20)
(-1.43612 0.443975 0)
(-1.63535 0.478343 -3.03785e-20)
(-1.83738 0.50984 -1.48982e-20)
(-2.04082 0.537749 0)
(-2.24419 0.561402 0)
(-2.44607 0.58016 0)
(-2.64494 0.593456 0)
(-2.83924 0.600865 -1.4811e-20)
(-3.02747 0.602038 0)
(-3.20815 0.596714 3.13034e-20)
(-3.37992 0.584731 0)
(-3.54147 0.566026 0)
(-3.69164 0.540624 -3.27694e-20)
(-3.82939 0.508632 0)
(-3.95379 0.470246 3.3615e-20)
(-4.06402 0.425755 -1.61102e-20)
(-4.1594 0.375543 1.61455e-20)
(-4.2393 0.320096 -1.60953e-20)
(-4.30312 0.260071 -1.59465e-20)
(-4.35045 0.19642 0)
(-4.38083 0.130232 0)
(-4.39402 0.0628932 1.47631e-20)
(-4.38958 -0.00403948 -1.5728e-20)
(-4.36351 -0.0694759 0)
(-4.31288 -0.132861 0)
(-4.23728 -0.193698 1.06927e-20)
(-4.13667 -0.251408 0)
(-4.01164 -0.305491 0)
(-3.86345 -0.355272 -6.12106e-21)
(-3.69387 -0.400144 0)
(-3.50484 -0.439692 3.41187e-21)
(-3.29854 -0.473634 -4.56937e-22)
(-3.07728 -0.50183 0)
(-2.84344 -0.524283 0)
(-2.59941 -0.541128 2.5536e-20)
(-2.34751 -0.552618 3.57869e-20)
(-2.08998 -0.559094 4.63641e-20)
(-1.82889 -0.560962 -2.8053e-20)
(-1.56618 -0.558679 3.47102e-20)
(-1.30355 -0.55274 1.20141e-19)
(-1.04254 -0.543672 -9.13949e-20)
(-0.784491 -0.532031 -5.20348e-20)
(-0.530516 -0.518362 0)
(-0.28151 -0.503223 6.41382e-20)
(-0.0379583 -0.486608 -6.64941e-20)
(0.199066 -0.468779 0)
(0.429068 -0.450148 0)
(0.65166 -0.431036 0)
(0.866576 -0.411721 6.45675e-20)
(1.07363 -0.392446 0)
(1.27276 -0.373347 -1.25011e-19)
(1.46397 -0.354487 0)
(1.64733 -0.335964 -1.21101e-19)
(1.82292 -0.317874 0)
(1.99084 -0.300291 1.17123e-19)
(2.15124 -0.283269 0)
(2.30429 -0.266849 -1.13208e-19)
(2.45018 -0.251069 5.55336e-20)
(2.58912 -0.235974 0)
(2.72133 -0.221621 1.0764e-19)
(2.84712 -0.208033 5.3055e-20)
(2.96691 -0.195142 5.22419e-20)
(3.08096 -0.18289 0)
(3.18945 -0.171264 5.05388e-20)
(3.29259 -0.160246 4.99622e-20)
(3.39057 -0.149818 0)
(3.48358 -0.13996 -4.85584e-20)
(3.57181 -0.130659 9.56581e-20)
(3.65547 -0.121903 0)
(3.73474 -0.11369 4.66272e-20)
(3.80982 -0.106006 0)
(3.88092 -0.0987934 -1.36258e-19)
(3.94823 -0.0919371 0)
(4.01194 -0.0853912 1.33044e-19)
(4.07217 -0.0791601 4.38715e-20)
(4.12905 -0.0732586 -4.33105e-20)
(4.18272 -0.0677001 -8.56978e-20)
(4.2333 -0.0624892 8.48104e-20)
(4.28096 -0.0576227 0)
(4.32583 -0.0530913 0)
(4.36804 -0.0488814 0)
(4.40774 -0.0449769 -2.44964e-19)
(4.44506 -0.0413598 -8.09499e-20)
(4.48011 -0.0380121 8.02399e-20)
(4.51303 -0.0349158 0)
(4.54392 -0.0320537 7.88238e-20)
(4.57289 -0.0294093 -7.82626e-20)
(4.60006 -0.0269672 -7.76505e-20)
(4.62551 -0.024713 0)
(4.64934 -0.022633 0)
(4.67164 -0.0207144 0)
(4.6925 -0.0189454 -7.5407e-20)
(4.712 -0.0173145 0)
(4.73021 -0.0158108 1.48747e-19)
(4.74721 -0.0144236 2.21697e-19)
(4.76307 -0.0131421 -1.46853e-19)
(4.77785 -0.0119509 0)
(4.79163 -0.0108373 -7.25192e-20)
(4.80444 -0.00976418 0)
(4.81655 -0.00868175 -1.43374e-19)
(4.82815 -0.00759646 7.12584e-20)
(4.83936 -0.00655225 7.0854e-20)
(4.85021 -0.00558796 0)
(4.86071 -0.00473052 2.10254e-19)
(4.87082 -0.00397367 -1.39388e-19)
(4.88052 -0.00332698 -6.93226e-20)
(4.88975 -0.00280186 0)
(4.89849 -0.00238656 -6.85845e-20)
(4.90669 -0.00206607 -2.04674e-19)
(4.91435 -0.00181794 0)
(4.92147 -0.00162068 -1.35073e-19)
(4.92805 -0.00145594 -1.34409e-19)
(4.93414 -0.00130986 -1.33758e-19)
(4.93977 -0.00117391 0)
(4.94495 -0.00104398 0)
(4.94974 -0.000918863 0)
(4.95415 -0.000799013 6.56321e-20)
(4.95821 -0.000685469 6.53388e-20)
(4.96194 -0.000579205 0)
(4.96537 -0.000480834 1.29503e-19)
(4.96851 -0.000390551 1.2893e-19)
(4.97138 -0.000308208 0)
(4.97399 -0.00023342 1.27807e-19)
(4.97638 -0.00016567 2.54501e-19)
(4.97854 -0.000104371 -1.26706e-19)
(4.9805 -4.89179e-05 -1.26158e-19)
(4.98228 1.27955e-06 0)
(4.98387 4.67596e-05 0)
(4.98531 8.79999e-05 0)
(4.98659 0.000125413 -1.24044e-19)
(4.98774 0.000159362 1.23521e-19)
(4.98876 0.000190177 2.46015e-19)
(4.98965 0.000218167 -1.22498e-19)
(4.99044 0.000243637 1.21987e-19)
(4.99112 0.000266898 1.21485e-19)
(4.99171 0.000288283 0)
(4.99221 0.000308154 0)
(4.99262 0.00032689 -1.19987e-19)
(4.99296 0.000344872 0)
(4.99323 0.000362479 0)
(4.99344 0.00038009 2.37038e-19)
(4.99358 0.000398111 0)
(4.99366 0.000417012 1.17551e-19)
(4.99369 0.000437377 -1.17074e-19)
(4.99366 0.000459951 0)
(4.99358 0.000485674 1.1612e-19)
(4.99345 0.000515696 0)
(4.99327 0.000551402 0)
(4.99304 0.000594448 -1.14716e-19)
(4.99275 0.00064686 2.28502e-19)
(4.99241 0.00071117 -1.13793e-19)
(4.992 0.00079064 0)
(4.99152 0.000889521 0)
(4.99096 0.00101336 1.12432e-19)
(4.9903 0.00116936 0)
(4.98952 0.0013669 1.11553e-19)
(4.9886 0.00161826 0)
(4.9875 0.00193975 0)
(4.98617 0.00235337 0)
(4.98457 0.0028893 1.09916e-19)
(4.9826 0.00358962 0)
(4.98016 0.00451406 -1.09186e-19)
(4.97711 0.00574957 0)
(4.97324 0.00742586 0)
(4.96831 0.00974535 2.16573e-19)
(4.9619 0.0130251 -2.16178e-19)
(4.95359 0.0178325 0)
(4.94213 0.024987 0)
(4.9279 0.0367582 0)
(4.90362 0.0540054 6.5012e-19)
(4.88241 0.0927858 0)
(4.80951 0.129426 -4.36504e-19)
(-0.101576 0.534359 5.12225e-22)
(-0.271466 0.597799 7.27041e-20)
(-0.470074 0.626687 0)
(-0.662931 0.66018 -6.60092e-20)
(-0.856111 0.697023 0)
(-1.04814 0.734848 0)
(-1.23826 0.771865 -7.30988e-22)
(-1.42577 0.806655 2.92093e-20)
(-1.61012 0.83816 2.9718e-20)
(-1.79099 0.865725 2.85999e-20)
(-1.96829 0.888717 0)
(-2.14212 0.906603 0)
(-2.31272 0.918941 -2.99923e-20)
(-2.48042 0.925328 -6.07089e-20)
(-2.64562 0.925378 6.16069e-20)
(-2.80872 0.91878 0)
(-2.97 0.905282 6.37884e-20)
(-3.12959 0.88467 -3.07207e-20)
(-3.28733 0.856762 0)
(-3.44279 0.821422 6.74217e-20)
(-3.59511 0.778559 3.22036e-20)
(-3.743 0.72813 -6.95165e-20)
(-3.88475 0.670144 -3.28992e-20)
(-4.01822 0.604691 0)
(-4.14093 0.531981 7.09634e-20)
(-4.25016 0.452318 7.07805e-20)
(-4.34321 0.365981 0)
(-4.41707 0.273569 6.94797e-20)
(-4.46865 0.176108 0)
(-4.49545 0.0746146 6.62471e-20)
(-4.49567 -0.0297527 2.87702e-20)
(-4.46848 -0.135498 0)
(-4.41357 -0.240439 0)
(-4.33122 -0.342512 0)
(-4.22196 -0.440046 0)
(-4.08687 -0.531595 0)
(-3.92764 -0.615642 0)
(-3.74631 -0.691147 2.24815e-20)
(-3.54516 -0.757384 -1.99508e-20)
(-3.32671 -0.813899 0)
(-3.09357 -0.860503 0)
(-2.84838 -0.897255 0)
(-2.59377 -0.924445 -2.35036e-21)
(-2.33224 -0.942563 -3.418e-20)
(-2.06613 -0.952254 -8.66259e-20)
(-1.7976 -0.954273 1.07553e-19)
(-1.52857 -0.949447 6.36851e-20)
(-1.26074 -0.938629 -7.61632e-20)
(-0.995628 -0.922678 1.38295e-21)
(-0.734497 -0.90245 -9.72657e-20)
(-0.478417 -0.878768 0)
(-0.228036 -0.852357 -1.19611e-19)
(0.0161496 -0.823787 1.0906e-21)
(0.253265 -0.793506 0)
(0.482867 -0.762127 0)
(0.704664 -0.730076 1.23097e-19)
(0.918477 -0.697725 0)
(1.12421 -0.665385 0)
(1.32184 -0.633306 -1.18833e-19)
(1.51144 -0.601706 -2.35874e-19)
(1.69313 -0.570775 1.16876e-19)
(1.86706 -0.540657 0)
(2.0334 -0.511457 -1.13535e-19)
(2.19236 -0.483248 0)
(2.34416 -0.456078 -1.09392e-19)
(2.48904 -0.429977 -1.08439e-19)
(2.62723 -0.404974 2.12884e-19)
(2.75896 -0.381117 1.04512e-19)
(2.88447 -0.358476 0)
(3.00394 -0.337047 -2.03299e-19)
(3.11761 -0.316715 0)
(3.22573 -0.2974 -2.96143e-19)
(3.32852 -0.279056 -1.94381e-19)
(3.4262 -0.261654 -1.91565e-19)
(3.51899 -0.245162 1.88831e-19)
(3.60709 -0.229551 -2.79444e-19)
(3.69069 -0.21479 0)
(3.76996 -0.200854 0)
(3.84504 -0.187735 1.78701e-19)
(3.91607 -0.175436 2.64732e-19)
(3.9833 -0.163899 0)
(4.047 -0.152984 -8.6284e-20)
(4.10736 -0.142598 0)
(4.16451 -0.132747 2.5318e-19)
(4.21858 -0.123449 2.00954e-22)
(4.26973 -0.114706 -1.87647e-22)
(4.31809 -0.106507 -1.63804e-19)
(4.36379 -0.098834 0)
(4.40695 -0.0916636 1.60825e-19)
(4.44769 -0.0849707 1.41601e-22)
(4.48614 -0.0787287 0)
(4.52239 -0.0729111 0)
(4.55656 -0.0674918 0)
(4.58874 -0.0624459 -1.54367e-19)
(4.61905 -0.0577496 0)
(4.64757 -0.0533805 0)
(4.67438 -0.0493173 0)
(4.69959 -0.0455402 0)
(4.72327 -0.0420301 0)
(4.7455 -0.0387694 -1.47738e-19)
(4.76636 -0.035741 0)
(4.78591 -0.0329288 -1.45889e-19)
(4.80424 -0.0303169 -1.44973e-19)
(4.82141 -0.0278892 1.44084e-19)
(4.83748 -0.0256311 0)
(4.85252 -0.0235242 1.42381e-19)
(4.86659 -0.0215631 0)
(4.87974 -0.0197606 1.40766e-19)
(4.89202 -0.0181187 -1.3999e-19)
(4.9035 -0.0166271 -4.17633e-19)
(4.91425 -0.0152701 0)
(4.92433 -0.0140317 -4.13248e-19)
(4.93382 -0.0128795 -1.37001e-19)
(4.94276 -0.0118062 0)
(4.95119 -0.0108215 -2.71266e-19)
(4.95912 -0.00992875 -2.69893e-19)
(4.96657 -0.00911735 4.02843e-19)
(4.97356 -0.00837425 0)
(4.98011 -0.00769332 1.3299e-19)
(4.98625 -0.00706822 1.32358e-19)
(4.99199 -0.00649216 3.95189e-19)
(4.99736 -0.00595937 0)
(5.00237 -0.005465 0)
(5.00705 -0.00500513 0)
(5.01142 -0.00457677 1.29339e-19)
(5.01549 -0.00417771 0)
(5.01928 -0.00380626 0)
(5.0228 -0.00346106 -1.27656e-19)
(5.02607 -0.0031409 -1.27103e-19)
(5.0291 -0.0028446 0)
(5.03191 -0.00257099 0)
(5.0345 -0.00231882 -2.50957e-19)
(5.0369 -0.00208683 0)
(5.03911 -0.00187376 2.48843e-19)
(5.04114 -0.00167831 2.47792e-19)
(5.04302 -0.00149923 0)
(5.04474 -0.00133527 0)
(5.04632 -0.00118523 -2.44712e-19)
(5.04778 -0.00104795 -4.94189e-24)
(5.04911 -0.000922352 -4.52995e-24)
(5.05033 -0.000807408 0)
(5.05145 -0.000702165 -4.81411e-19)
(5.05248 -0.000605738 0)
(5.05341 -0.000517289 0)
(5.05426 -0.000436024 0)
(5.05503 -0.000361157 2.36792e-19)
(5.05574 -0.000291887 0)
(5.05637 -0.000227378 -4.69727e-19)
(5.05695 -0.000166752 -2.3391e-19)
(5.05746 -0.000109089 0)
(5.05792 -5.34145e-05 -2.32012e-19)
(5.05833 1.30701e-06 0)
(5.05868 5.62181e-05 0)
(5.05899 0.000112627 -6.87598e-19)
(5.05925 0.000172082 4.56542e-19)
(5.05946 0.000236465 0)
(5.05961 0.000308078 4.52864e-19)
(5.05971 0.000389747 -2.25524e-19)
(5.05975 0.000484957 0)
(5.05972 0.000598037 0)
(5.05961 0.000734441 0)
(5.05941 0.000901145 -6.65848e-19)
(5.05909 0.00110717 0)
(5.05864 0.00136426 -2.20228e-19)
(5.05802 0.00168784 0)
(5.05719 0.00209829 0)
(5.0561 0.00262284 0)
(5.05467 0.00329841 0)
(5.05281 0.00417597 0)
(5.05039 0.0053271 0)
(5.04725 0.00685502 -4.29707e-19)
(5.04316 0.00891078 0)
(5.03784 0.0117282 -2.13852e-19)
(5.03086 0.0156582 6.40187e-19)
(5.02178 0.0213345 0)
(5.00972 0.0296118 0)
(4.99457 0.0428231 -4.26017e-19)
(4.97401 0.0624296 -4.27843e-19)
(4.95268 0.101253 4.26655e-19)
(4.9321 0.152893 4.30091e-19)
(-0.0961839 0.926544 -1.15772e-19)
(-0.266388 1.01152 -1.07705e-19)
(-0.457263 1.03525 -6.93453e-20)
(-0.641202 1.06079 -3.47626e-20)
(-0.821233 1.08751 0)
(-0.996944 1.11365 6.33883e-20)
(-1.16831 1.13827 -3.25071e-20)
(-1.33574 1.16078 0)
(-1.50037 1.18091 -2.93202e-20)
(-1.66343 1.19845 0)
(-1.82608 1.21316 6.16752e-20)
(-1.98965 1.22494 0)
(-2.15537 1.23338 2.98375e-20)
(-2.32427 1.23791 6.03479e-20)
(-2.49708 1.23785 -6.11298e-20)
(-2.67409 1.23233 0)
(-2.85512 1.22038 -6.29206e-20)
(-3.03942 1.20088 0)
(-3.22568 1.17266 0)
(-3.41205 1.13457 -6.57753e-20)
(-3.59619 1.0855 0)
(-3.77538 1.02449 -5.85343e-21)
(-3.94658 0.950791 0)
(-4.10659 0.863981 0)
(-4.2521 0.764067 6.93806e-21)
(-4.37985 0.651588 -6.83791e-20)
(-4.48673 0.527538 -7.53305e-20)
(-4.56984 0.393181 -6.7053e-20)
(-4.62681 0.25034 0)
(-4.65553 0.101229 -1.36482e-19)
(-4.65434 -0.0515395 0)
(-4.62264 -0.205259 -6.44102e-20)
(-4.56012 -0.357188 0)
(-4.46722 -0.504579 0)
(-4.34484 -0.645027 4.80444e-20)
(-4.19443 -0.776103 0)
(-4.01831 -0.895771 -3.44633e-20)
(-3.819 -1.00256 5.31099e-21)
(-3.5994 -1.09546 3.25261e-20)
(-3.36252 -1.17392 -2.02219e-20)
(-3.11147 -1.23777 0)
(-2.84932 -1.28722 0)
(-2.57904 -1.32281 1.46056e-20)
(-2.30339 -1.3454 0)
(-2.02487 -1.35603 4.0544e-20)
(-1.7457 -1.3559 -5.06605e-20)
(-1.46781 -1.34628 -6.10067e-20)
(-1.19284 -1.32844 0)
(-0.922203 -1.30366 8.23202e-20)
(-0.657022 -1.27319 9.32616e-20)
(-0.398219 -1.23813 -2.0534e-19)
(-0.14608 -1.19941 1.13153e-19)
(0.0986986 -1.15781 1.16508e-19)
(0.335509 -1.11414 0)
(0.564087 -1.06917 0)
(0.784271 -1.0235 -1.16626e-19)
(0.996001 -0.977644 0)
(1.19929 -0.932018 0)
(1.39424 -0.886963 2.28727e-19)
(1.58096 -0.842754 2.2658e-19)
(1.75965 -0.799611 0)
(1.9305 -0.757703 0)
(2.09374 -0.717158 0)
(2.2496 -0.678067 0)