/*--------------------------------*- C++ -*----------------------------------*\
| =========                 |                                                 |
| \\      /  F ield         | OpenFOAM: The Open Source CFD Toolbox           |
|  \\    /   O peration     | Version:  2112                                  |
|   \\  /    A nd           | Website:  www.openfoam.com                      |
|    \\/     M anipulation  |                                                 |
\*---------------------------------------------------------------------------*/
FoamFile
{
    version     2.0;
    format      ascii;
    arch        "LSB;label=32;scalar=64";
    class       volScalarField;
    location    "0.08";
    object      ddt0(kU);
}
// * * * * * * * * * * * * * * * * * * * * * * * * * * * * * * * * * * * * * //

dimensions      [0 2 -3 0 0 0 0];

internalField   nonuniform List<scalar> 
12225
(
0.000410368
0.0300646
0.151038
0.430711
0.93885
1.76008
2.99656
4.76944
7.23028
10.5741
15.0606
21.0405
28.975
39.4884
53.3998
71.7668
96.1312
128.02
-0.0219711
-0.105362
-0.260519
-0.500147
-0.845824
-1.34258
-2.0434
-3.01927
-4.37
-6.21603
-8.7191
-12.0905
-16.6146
-22.6876
-30.7951
-41.6118
-56.5424
-77.3375
0.000372443
-0.00895524
-0.0335954
-0.0559148
-0.11351
-0.224134
-0.409614
-0.698184
-1.12611
-1.73525
-2.58423
-3.75146
-5.34384
-7.51676
-10.4923
-14.5907
-20.4473
-29.46
0.00234392
0.0120171
0.01221
0.010138
0.00674912
-0.00268352
-0.0217233
-0.0514536
-0.0480605
-0.0629989
-0.104766
-0.187084
-0.331139
-0.570343
-0.957531
-1.56942
-2.54415
-4.08526
0.000358359
0.0133453
0.0328786
0.0559524
0.0668464
0.0805239
0.0965963
0.110202
0.124532
0.139645
0.155944
0.17468
0.197928
0.233752
0.361238
0.488756
0.606058
0.690462
-0.00122695
0.010303
0.0308833
0.0576177
0.0893915
0.127703
0.150561
0.180312
0.213046
0.248946
0.288538
0.333269
0.385826
0.451499
0.54131
0.655152
0.787937
0.929717
-0.0024323
0.0060677
0.0247132
0.0514598
0.0861882
0.128946
0.177827
0.209698
0.250924
0.298569
0.352509
0.414626
0.486992
0.571736
0.670428
0.78092
0.898551
1.01648
-0.00317466
0.00273353
0.0183362
0.0423819
0.0756498
0.118582
0.168526
0.225047
0.266632
0.31948
0.380967
0.451876
0.532632
0.62269
0.720096
0.822443
0.927005
1.03033
-0.00359171
0.00029798
0.0131158
0.0340671
0.0636821
0.102895
0.151671
0.207836
0.271354
0.33579
0.395437
0.465745
0.544953
0.630114
0.719679
0.811434
0.9042
0.997149
-0.00376535
-0.00146417
0.00884827
0.0267796
0.052662
0.0873889
0.131368
0.184474
0.24563
0.315006
0.392768
0.463203
0.534897
0.61055
0.688986
0.769583
0.852159
0.934452
-0.0037366
-0.00264004
0.00545263
0.0205216
0.0427784
0.0729318
0.111411
0.158324
0.213767
0.277611
0.349431
0.429326
0.514618
0.573484
0.642275
0.71302
0.784832
0.858343
-0.00356311
-0.00328355
0.00302227
0.0156112
0.034637
0.0606452
0.0940176
0.134862
0.183245
0.239356
0.303341
0.375301
0.45468
0.540928
0.59189
0.653381
0.717208
0.782984
-0.00326894
-0.00353754
0.00125584
0.0115625
0.0275307
0.0495779
0.078026
0.112963
0.154419
0.20251
0.257378
0.319356
0.389046
0.465537
0.549638
0.594002
0.650429
0.710143
-0.00280075
-0.00340798
-1.80201e-05
0.00795105
0.0206715
0.0384407
0.0615038
0.0899236
0.123695
0.162858
0.20749
0.257813
0.314248
0.377114
0.446706
0.524174
0.576078
0.631328
-0.0021261
-0.0028051
-0.00060661
0.00507285
0.0144387
0.0277076
0.0450473
0.0664833
0.091978
0.121493
0.155027
0.192453
0.234161
0.280946
0.333216
0.391359
0.456882
0.52924
-0.00124442
-0.00174037
-0.000446407
0.00319629
0.00936288
0.0181476
0.0296284
0.0437929
0.0605282
0.0797954
0.101544
0.125926
0.152905
0.182709
0.215745
0.252521
0.293598
0.338454
-0.000143318
-0.00015103
0.000595006
0.0024783
0.00561207
0.0100272
0.0157365
0.0227211
0.030938
0.0402603
0.0506162
0.0619676
0.0743375
0.0877968
0.102507
0.118741
0.136958
0.156609
0.00109067
0.00184549
0.00241783
0.00289473
0.0033116
0.00367481
0.00398647
0.00423231
0.00436159
0.00430247
0.00399002
0.00339516
0.00252356
0.00144401
0.000277351
-0.000819256
-0.00156726
-0.00233123
0.00231752
0.00384389
0.00431779
0.00359788
0.00165525
-0.00152493
-0.00598089
-0.0117418
-0.018805
-0.0271408
-0.0366911
-0.0473674
-0.0590436
-0.0715619
-0.0847383
-0.0983763
-0.112195
-0.126318
0.00312198
0.00506491
0.0052419
0.00338976
-0.000556238
-0.00663163
-0.0148528
-0.0251737
-0.0374857
-0.0516377
-0.0674423
-0.0846723
-0.103064
-0.122329
-0.142162
-0.162268
-0.182306
-0.202199
0.00349002
0.00542554
0.00495853
0.0018299
-0.00394702
-0.0123793
-0.0234565
-0.037062
-0.0529887
-0.0709808
-0.090741
-0.111924
-0.134148
-0.157011
-0.180112
-0.20308
-0.225524
-0.247274
0.003596
0.00515949
0.00367699
-0.00094405
-0.00856686
-0.0191962
-0.0328019
-0.0491945
-0.068084
-0.0891333
-0.111949
-0.136077
-0.161025
-0.18629
-0.211369
-0.23581
-0.259174
-0.281226
0.00348773
0.00428417
0.00138926
-0.00495273
-0.0145119
-0.0273362
-0.0433521
-0.0622743
-0.0837418
-0.107356
-0.132638
-0.159029
-0.185968
-0.212897
-0.239235
-0.264431
-0.287981
-0.309625
0.00317227
0.00274667
-0.00192793
-0.0101071
-0.0216318
-0.0367172
-0.0552505
-0.0768247
-0.100975
-0.127189
-0.154831
-0.183166
-0.211471
-0.238945
-0.264932
-0.288897
-0.310438
-0.329376
0.00262086
0.00035221
-0.00672932
-0.0171515
-0.0306546
-0.0473893
-0.0671422
-0.0894927
-0.114009
-0.140176
-0.167307
-0.194591
-0.221193
-0.245663
-0.26772
-0.287152
-0.30381
-0.317665
0.00173521
-0.00263305
-0.012031
-0.0245596
-0.03951
-0.0567018
-0.0753895
-0.0948747
-0.114553
-0.133777
-0.151922
-0.168252
-0.181571
-0.179282
-0.175307
-0.170695
-0.165605
-0.160273
0.00021407
-0.00485832
-0.0115621
-0.0181898
-0.0181753
-0.0170497
-0.0144148
-0.0103065
-0.00490233
0.00158792
0.00891402
0.0168328
0.0250484
0.0320625
0.0393424
0.0216831
0.00768383
-0.00279255
-0.00141422
-6.40962e-05
0.00726509
0.0216889
0.0423219
0.0479796
0.0647809
0.0958977
0.144631
0.213587
0.304302
0.417199
0.551119
0.703664
0.873492
1.05972
1.25838
1.46638
0.0108982
0.0542088
0.134394
0.249347
0.395925
0.574293
0.782716
1.02381
1.30326
1.62315
1.98355
2.38219
2.81314
3.26922
3.74768
4.24704
4.75578
5.2589
0.000570655
-0.0124174
-0.070536
-0.212699
-0.469368
-0.859035
-1.39593
-2.089
-2.85988
-3.75276
-4.78404
-5.97236
-7.3346
-8.882
-10.6242
-12.5738
-14.7403
-17.1298
-29.976
-27.8347
-23.4764
-0.162641
33.9965
32.2057
32.3088
26.3858
26.4179
28.7804
32.305
36.4114
40.7783
45.2272
49.6593
53.994
58.142
61.9993
65.4205
68.1912
70.0054
70.31
71.0664
83.2037
95.7416
107.931
120.127
133.257
148.781
169.528
224.037
288.079
354.691
405.667
416.669
390.451
383.033
307.431
142.088
25.452
-35.3433
-65.9487
-91.8126
-125.32
-125.25
-97.1277
-76.942
-66.782
-76.4676
-92.2455
-50.7725
31.1678
109.538
170.706
194.341
171.297
53.0057
-196.209
-573.75
-1048.72
-1326.05
-1106.38
-1005.22
-855.3
-679.037
-496.265
-320.169
-157.79
-11.0745
119.017
232.131
277.34
313.901
344.755
371.618
395.198
415.557
428.562
431.761
426.4
422.793
420.024
417.491
414.962
412.29
409.318
405.856
401.667
396.507
390.045
381.912
371.91
359.98
345.388
327.839
307.145
282.831
253.957
218.573
172.568
107.378
7.07262
-136.487
-206.692
-274.169
-332.925
-385.6
-432.895
-478.03
-518.101
-552.816
-580.693
-598.794
-605.613
-601.218
-585.821
-547.035
-447.526
-356.082
-271.216
-192.015
-116.745
-44.2771
26.3888
97.0462
170.851
252.528
348.116
463.961
604.822
771.266
957.007
1148.34
1326.45
1469.23
1555.1
1569.21
1507.86
1379.24
1200.76
994.123
781.503
585.016
426.196
280.746
155.574
113.98
191.178
375.89
537.308
658.556
669.564
456.424
-434.596
-1814.58
-1837.08
-1501.65
-821.527
-32.1653
300.105
518.402
672.654
618.605
548.602
452.686
320.227
104.828
-351.813
-1252.71
-1584.86
-1994.88
-2504.59
-3061.22
-3657.58
-4281.91
-4915.41
-5509.68
-5985.97
-5746.2
-5246.73
-29.1064
23.9961
82.4565
76.0318
62.0428
49.3071
39.4007
32.9553
28.9241
26.595
25.4467
25.0136
24.9973
25.2102
25.586
26.0943
26.5925
26.9728
27.1522
27.0466
26.5836
25.6933
23.6718
10.2001
-3.47701
-15.9077
-26.4091
-34.5877
-40.0803
-41.9916
-36.4004
-21.5466
2.72238
33.0431
62.9763
91.4262
130.592
184.119
230.841
241.086
203.999
120.794
4.5281
-60.5406
-91.4273
-94.0315
-52.0831
19.5376
77.5605
89.9747
16.0068
-75.5387
-184.827
-373.042
-602.748
-766.273
-802.64
-435.677
-315.428
-219.145
-106.488
17.5965
119.025
204.222
269.213
312.703
335.817
341.259
332.123
311.062
280.716
243.572
204.638
164.952
124.481
84.2121
46.9021
18.5491
7.59024
7.24364
6.95351
6.65568
6.28517
5.8298
5.29396
4.6999
4.09272
3.59274
3.39054
3.73655
4.83308
6.40792
7.99239
8.2505
9.57252
12.1472
16.2246
22.0264
29.7324
39.4905
51.4539
65.9197
74.4487
78.188
82.0625
84.5505
86.3942
88.4953
95.4516
93.1442
85.7467
74.7147
61.3686
46.6822
31.328
15.0013
-11.7937
-73.5263
-111.991
-125.738
-126.239
-119.828
-109.423
-96.9704
-83.2943
-68.2824
-51.2082
-30.7647
-5.18745
27.3295
67.8787
115.709
169.156
224.819
276.843
322.44
360.716
392.218
417.122
433.153
434.171
409.47
345.809
231.242
114.472
28.1319
-48.1583
-125.986
-211.925
-248.697
-310.932
-453.628
-698.093
-911.498
-535.005
31.9594
352.306
498.944
464.871
306.795
106.792
-107.14
-119.066
-122.905
-120.514
-105.705
-115.349
-138.447
-133.381
-132.022
-140.646
-140.662
-164.349
-204.291
-263.03
-346.036
-462.339
-631.33
-1147.12
-1547.7
117.891
142.751
104.137
66.4406
40.0915
24.3338
15.9464
12.0041
10.2151
9.61784
10.0363
10.7692
11.6178
12.4732
13.2797
14.0063
14.6284
15.1236
15.4708
15.6506
15.6427
15.443
15.0412
12.23
10.0204
6.10953
0.0947601
-8.16258
-18.3487
-29.5109
-39.794
-46.8619
-48.7964
-45.0913
-36.8827
-24.4869
-3.10529
35.2878
91.9704
151.761
185.739
172.366
133.9
42.4819
-53.7744
-121.241
-122.258
-52.8823
21.6565
16.7909
-185.531
-466.982
-762.398
-880.994
-480.874
-188.343
-46.0448
88.5555
168.311
227.435
263.378
286.332
294.793
290.068
272.883
245.536
211.518
174.901
139.218
107.368
81.1412
61.1737
47.3362
38.6556
33.9896
32.2518
32.4561
34.6095
36.6825
38.3565
39.5826
40.2055
40.2238
39.5997
38.3039
36.3296
33.4729
30.0453
26.1063
21.7433
17.0777
12.2674
7.51824
3.17518
-0.376675
-2.69206
-3.24027
-1.41372
3.41156
11.8978
24.9227
43.6024
57.2862
69.0691
80.3345
89.9317
97.7537
103.821
108.278
111.554
115.599
113.224
106.939
98.2233
88.0713
77.1425
65.8271
53.9271
36.1629
18.9853
2.91231
-11.0473
-22.4817
-31.3292
-37.5631
-41.1792
-42.1948
-40.4183
-35.5344
-27.1674
-15.0325
0.85555
20.1142
41.7794
64.8846
89.1404
114.608
140.977
166.99
189.903
205.219
207.061
190.032
152.413
100.206
41.7753
-23.2204
-99.2813
-202.127
-330.583
-499.908
-704.823
-824.201
-516.059
200.678
440.278
428.2
283.616
106.735
-28.8749
-98.7222
-118.165
-115.745
-98.4872
-97.8713
-96.6495
-94.3425
-87.2292
-83.1579
-79.9267
-79.3378
-78.3644
-78.4213
-79.3445
-81.1202
-84.6858
-91.5241
-106.291
-234.117
-405.434
283.618
137.962
60.4283
19.0804
-0.264134
-7.21997
-8.13153
-6.61649
-4.4576
-2.38403
-0.606834
0.862091
2.08245
3.12474
4.04291
4.86463
5.59014
6.19643
6.64505
6.89372
6.90938
6.67824
6.23677
5.55291
4.19883
2.48889
0.235538
-2.9244
-7.50764
-13.9379
-22.1349
-31.2038
-39.5448
-45.5747
-48.4954
-47.9255
-41.8508
-25.267
7.06522
53.1905
97.9273
118.627
104.269
61.4027
-55.832
-183.505
-235.371
-185.577
-138.791
-367.06
-545.319
-743.793
-438.086
-161.497
100.012
222.166
272.813
293.926
293.025
281.357
263.898
241.383
213.654
181.736
148.033
115.944
88.5269
67.6139
53.5209
45.4557
42.0922
42.0479
44.1327
47.4767
51.5516
55.9664
61.9596
66.7434
71.0979
74.8348
77.8873
79.118
79.528
79.062
77.661
75.2684
71.8378
67.3341
61.7474
55.1006
47.4532
38.9109
29.6752
20.0447
10.4222
1.36484
-6.42371
-11.9998
-14.4525
-12.7616
-5.51252
8.24839
21.5765
36.2634
51.2744
65.6629
78.5809
89.5575
98.5421
105.64
113.34
116.186
113.823
108.335
100.863
92.2392
83.0766
73.7089
64.2746
54.1685
43.8299
33.5433
23.4871
13.8691
4.89084
-3.22362
-10.2146
-15.8692
-19.9208
-22.0529
-21.9466
-19.3872
-14.27
-6.62013
3.56034
16.4034
32.1511
50.818
71.6754
92.924
111.578
123.631
124.97
112.069
81.7031
35.8883
-26.9972
-109.062
-222.657
-378.028
-575.446
-753.424
-692.934
-78.7783
426.221
425.279
268.965
99.8312
-12.1071
-63.7606
-78.4148
-82.5784
-72.1557
-73.8127
-76.1189
-77.1685
-75.1952
-70.6541
-66.878
-64.7378
-64.4883
-65.4368
-67.2022
-68.9167
-69.3948
-65.2958
-63.7139
-64.9926
-79.3429
-129.816
304.446
76.2955
-0.00388106
-23.1888
-25.6785
-21.2416
-15.608
-10.7902
-7.21417
-4.71446
-2.9709
-1.68618
-0.637156
0.321192
1.26457
2.20876
3.11921
3.92309
4.52518
4.82649
4.74341
4.22393
3.25867
1.88984
-1.30988
-2.91248
-4.61599
-6.56203
-8.93343
-12.0997
-16.518
-22.4169
-29.4496
-36.6406
-42.8307
-47.1825
-48.829
-45.7023
-34.3213
-12.7976
13.5993
30.14
18.2068
-31.9189
-168.316
-361.047
-447.031
-485.589
-465.244
-338.05
-291.534
-151.382
84.0117
246.298
323.727
328.78
306.067
275.531
243.217
211.507
180.449
149.203
118.584
90.7527
68.0948
52.0538
42.6797
38.9773
39.5364
43.0258
48.3992
54.8982
61.9657
69.1499
76.1241
82.7675
89.7218
96.3107
102.515
108.401
111.992
114.801
116.761
117.797
117.799
116.652
114.223
110.378
104.982
97.9252
89.1359
78.6429
66.6201
53.2403
38.829
23.9924
9.36497
-3.82024
-14.6472
-21.6558
-22.5529
-16.8174
-7.57297
4.98793
19.9825
36.1533
52.1769
66.8638
79.5561
90.2271
100.004
108.733
111.074
109.203
104.518
97.9965
90.3615
82.1287
73.6882
65.3012
56.9016
48.58
40.5522
32.8366
25.4411
18.3901
11.7534
5.60809
0.0660131
-4.7216
-8.56511
-11.2426
-12.5435
-12.2357
-10.0179
-5.50474
1.74449
12.1396
25.6637
41.5343
57.7523
70.9015
76.5986
70.439
48.919
9.69099
-48.8252
-131.982
-249.3
-412.933
-606.238
-719.784
-501.244
176.675
466.332
325.589
149.162
30.711
-22.18
-40.6217
-45.9099
-43.427
-46.0686
-49.9582
-55.0036
-59.4079
-58.3917
-54.7843
-50.1912
-46.5561
-45.2788
-46.4297
-49.1644
-52.042
-53.1527
-48.5418
-46.3922
-46.6885
-50.3617
-67.2849
247.441
-7.08705
-49.3268
-43.4718
-29.4764
-17.676
-9.721
-4.92996
-2.2482
-0.78065
0.10153
0.788436
1.49764
2.3334
3.32123
4.42376
5.55032
6.57042
7.33479
7.7003
7.55266
6.82139
5.48609
3.57395
0.843514
-2.68052
-5.99829
-8.98335
-11.7157
-14.3989
-17.3971
-21.1765
-26.0723
-32.0032
-38.4025
-44.5391
-49.929
-54.2224
-56.584
-56.0402
-54.5903
-62.7327
-105.4
-226.503
-425.109
-759.63
-948.422
-379.162
51.711
41.7464
120.564
238.219
326.376
348.972
326.126
282.756
238.874
200.056
165.884
134.781
106.044
80.3369
59.3664
44.53
36.1463
33.4777
35.2235
40.0161
46.7004
54.4217
62.6238
71.0181
79.524
88.111
96.5147
104.231
111.843
118.973
125.594
131.748
136.191
139.972
143.106
145.563
147.268
148.098
147.865
146.315
143.135
137.986
130.509
120.47
108.047
93.1773
76.0406
57.5632
37.9507
18.7818
0.743309
-14.1483
-23.3176
-26.5166
-24.5435
-17.3541
-5.78011
8.92708
25.2703
41.7018
57.015
70.6609
82.8431
95.5433
102.158
104.076
102.545
98.5534
92.8828
86.1354
78.7732
71.1484
63.5489
55.9857
48.6572
41.6636
35.0488
28.8235
22.9857
17.5321
12.4672
7.81051
3.60373
-0.0709272
-3.10585
-5.34768
-6.56399
-6.41308
-4.44439
-0.192711
6.61887
15.7773
26.0669
34.8354
38.1981
31.8907
12.0962
-24.3085
-80.2896
-160.863
-276.373
-435.446
-605.912
-647.379
-327.389
283.996
448.165
235.81
86.122
15.8395
-6.50558
-13.557
-16.2153
-18.6755
-21.785
-28.5105
-36.3773
-43.6576
-45.5796
-43.207
-38.0121
-32.9464
-30.3251
-30.8844
-33.8599
-37.4507
-39.0125
-34.9574
-31.3892
-28.8998
-28.8528
-38.3338
119.6
-86.8171
-72.7041
-39.5589
-16.7422
-4.15356
1.98061
4.56553
5.40278
5.54399
5.55472
5.69871
6.08158
6.73374
7.63569
8.7143
9.83994
10.8408
11.533
11.7541
11.3872
10.3693
8.684
6.35023
3.37298
-0.415292
-4.52605
-8.60508
-12.4029
-15.841
-19.0445
-22.3676
-26.2915
-31.1953
-37.1502
-43.9695
-51.6165
-60.7045
-72.4943
-88.5223
-112.252
-156.634
-256.593
-474.707
-853.285
-1101.78
-463.629
300.627
345.203
339.681
361.46
371.671
350.472
304.719
252.137
204.144
164.706
131.97
103.476
78.3312
57.2719
41.5339
31.8381
27.9534
28.9373
33.5807
40.741
49.4832
59.0859
68.9968
78.7842
88.1004
96.727
104.821
113.345
123.258
130.337
136.315
141.317
145.365
149.051
152.206
154.969
157.442
159.678
161.673
163.31
164.339
164.36
162.837
158.989
151.959
142.075
128.658
111.235
91.8329
69.7627
46.8991
24.1038
3.72063
-12.4096
-23.8193
-29.4835
-29.0387
-22.834
-11.8445
2.50783
18.5783
34.8205
50.2101
64.3073
78.7933
89.681
95.2191
96.9108
95.6728
92.2612
87.3027
81.3086
74.6919
67.7711
60.7591
53.8291
47.1276
40.7567
34.7765
29.214
24.0738
19.3468
15.0193
11.08
7.52921
4.38581
1.70028
-0.424893
-1.81096
-2.18705
-1.23491
1.29359
5.32248
10.0704
13.6283
12.8668
3.8673
-17.4219
-54.5484
-110.639
-190.397
-301.898
-448.051
-585.126
-562.654
-199.136
311.971
385.941
192.858
60.9387
17.8027
10.023
10.106
6.05371
4.9367
1.1616
-7.61101
-20.168
-30.3434
-36.311
-35.9355
-30.7092
-24.293
-20.1586
-19.9594
-23.2194
-27.825
-30.4531
-28.4406
-24.6233
-19.3317
-14.1158
-13.2035
-63.4492
-145.215
-66.8347
-18.3335
3.16866
11.7356
14.6507
15.0421
14.4169
13.5705
12.8733
12.4402
12.2989
12.4667
12.9389
13.6491
14.4524
15.1481
15.5283
15.4226
14.7225
13.3801
11.3833
8.71558
5.32537
0.328176
-3.76552
-8.3375
-12.8244
-16.9274
-20.6196
-24.1374
-27.9365
-32.5311
-38.3243
-45.6305
-55.0386
-68.0888
-87.8558
-119.081
-170.451
-263.758
-442.8
-771.708
-1189.95
-872.099
299.255
571.122
530.475
468.5
410.652
348.365
283.842
224.787
176.288
138.292
107.917
82.2368
60.2978
42.7218
30.462
23.8611
22.4822
25.3877
31.5126
39.9076
49.8267
60.7167
72.1633
83.8259
95.3835
106.525
116.944
126.187
133.158
141.959
147.187
149.951
152.524
154.769
156.117
156.897
157.436
157.983
158.743
159.926
161.588
163.623
165.784
167.581
167.988
165.077
159.889
150.829
135.437
117.843
96.2529
72.0238
48.4357
24.9888
3.57952
-14.0488
-26.3998
-32.4857
-32.094
-25.7927
-14.7709
-0.587962
15.1104
30.9941
46.2189
61.1811
75.2456
84.0918
88.8335
90.3257
89.2709
86.269
81.8378
76.4186
70.3761
64.017
57.5342
51.1183
44.9121
39.0184
33.5036
28.4038
23.7321
19.485
15.6494
12.2096
9.15398
6.4841
4.22633
2.44555
1.25302
0.788661
1.14865
2.21698
3.37542
3.1423
-1.05923
-12.8181
-36.2936
-75.4559
-133.637
-214.542
-322.473
-452.731
-553.72
-482.719
-117.484
296.885
329.525
164.903
54.4839
23.3599
23.2686
31.478
28.9255
27.8919
21.8685
10.8265
-4.10055
-19.1137
-29.5731
-31.9311
-27.085
-19.41
-13.6019
-12.4329
-15.8966
-21.5772
-25.3635
-27.0827
-25.0865
-19.5058
-11.2635
-3.431
-284.623
-168.488
-36.3041
9.21582
22.938
27.4001
28.4357
27.6696
26.1023
24.3785
22.8076
21.4492
20.3374
19.5528
19.1641
19.1462
19.3531
19.5572
19.5227
19.0634
18.0671
16.4925
14.3417
11.5682
7.90966
2.51408
-3.58168
-9.11921
-14.1706
-18.6473
-22.6184
-26.3737
-30.3836
-35.1856
-41.3097
-49.4261
-60.8145
-78.1877
-106.813
-156.05
-243.771
-400.798
-670.885
-1098.65
-1196.27
22.6748
654.596
683.185
568.562
452.492
352.468
269.514
204.222
155.318
119.055
90.892
67.5789
48.0456
32.8042
22.6107
17.6632
17.5027
21.2989
28.1621
37.3293
48.2094
60.3453
73.3521
86.8603
100.468
113.735
126.235
137.541
147.173
154.773
158.239
162.398
165.345
166.347
165.564
163.427
160.517
157.552
154.752
152.435
151.063
150.852
151.766
153.894
157.055
160.401
160.419
159.707
156.374
144.474
130.336
112.231
90.7886
67.5386
42.8361
18.5996
-3.01566
-20.2414
-31.5757
-36.2951
-34.5341
-27.1799
-15.6074
-1.39783
14.007
29.539
44.9632
60.6274
71.9021
79.2725
83.3106
84.5779
83.5954
80.8453
76.7679
71.7532
66.1704
60.2194
54.1541
48.1529
42.354
36.8572
31.7284
27.0058
22.7054
18.8272
15.361
12.2925
9.60945
7.30831
5.40021
3.91225
2.87272
2.25949
1.8816
1.16514
-1.14898
-7.30536
-20.6748
-45.556
-86.4673
-147.199
-230.466
-336.221
-451.446
-519.668
-416.751
-73.9711
260.764
282.997
150.908
59.1841
31.143
31.9387
43.5605
51.6907
51.0237
43.0109
28.7935
9.82351
-10.1322
-25.1347
-30.4403
-26.1169
-17.1174
-9.39715
-6.98742
-10.4435
-16.4485
-23.8014
-28.6038
-29.4131
-25.7456
-17.5654
-6.3861
-458.926
-131.547
7.17196
34.0554
41.3916
44.7707
45.745
44.5788
42.2056
39.3781
36.5313
33.7641
31.1696
28.9248
27.2
26.0409
25.3255
24.8116
24.2286
23.3511
22.0235
20.1614
17.7557
14.7716
10.6486
4.1037
-4.72219
-10.8063
-15.6941
-20.0864
-24.2595
-28.4844
-33.1467
-38.7306
-45.8662
-55.6121
-70.0509
-93.5154
-135.028
-212.127
-352.277
-585.693
-966.62
-1272.89
-341.381
537.742
761.554
656.567
498.837
364.923
263.296
190.537
140.229
105.057
78.6535
57.1298
39.2488
25.3857
16.1973
11.8386
11.898
15.6689
22.4394
31.6503
42.9166
55.9629
70.5225
86.2242
102.47
118.327
132.587
144.342
153.649
162.908
173.841
180.399
184.221
185.007
183.005
178.666
172.449
165.02
158.192
151.462
145.388
140.708
137.783
136.527
136.949
139.534
144.128
145.107
146.526
146.655
141.585
131.581
117.21
98.6792
77.4846
53.5258
28.4518
5.03872
-15.0458
-29.8551
-38.3167
-40.2059
-36.1139
-27.1909
-14.8618
-0.529191
14.6717
30.2204
46.5976
59.4919
68.9395
75.2035
78.6442
79.6529
78.6347
75.9959
72.1242
67.4029
62.0965
56.4637
50.7309
45.0729
39.6214
34.4705
29.6824
25.2928
21.3167
17.7542
14.5961
11.8293
9.44095
7.4214
5.76156
4.43768
3.36872
2.32374
0.752982
-2.47283
-9.38659
-23.2016
-48.3234
-89.7926
-152.06
-237.355
-341.924
-445.197
-487.908
-367.873
-58.0613
217.146
244.489
145.35
69.1943
41.691
41.3142
52.0705
69.3844
69.7807
60.1673
43.0713
20.4255
-3.91877
-23.0695
-31.0617
-27.0844
-16.4462
-6.50394
-2.77232
-5.37477
-14.2883
-23.7947
-31.122
-34.9078
-34.2463
-28.3556
-17.3234
-655.507
-6.92223
43.3654
53.8216
61.1754
66.1667
68.3028
67.4238
64.4244
60.3407
55.9088
51.3813
46.916
42.7441
39.1177
36.1832
33.9077
32.0972
30.4768
28.7703
26.7329
24.1384
20.7565
16.3603
10.7582
3.81417
-3.65286
-10.4485
-15.5648
-20.5748
-25.6308
-30.9617
-36.9427
-44.161
-53.5767
-66.9521
-87.8989
-124.424
-193.01
-320.472
-537.69
-891.831
-1050.26
-612.782
265.881
720.232
711.276
545.307
384.571
264.586
182.927
129.85
94.881
69.6961
49.4751
32.65
19.4703
10.5435
6.03918
5.59403
8.5809
14.3991
22.6304
33.0589
45.6042
60.2155
76.7425
94.7759
113.49
131.603
147.637
160.606
172.515
182.537
197.611
202.825
204.232
202.162
197.068
189.404
179.472
166.965
157.385
147.052
137.525
129.73
123.967
121.432
119.789
120.627
124.732
126.691
128.223
130.287
129.734
122.893
111.849
96.4899
77.8771
56.0219
31.3762
8.0244
-13.2158
-29.7077
-40.303
-44.5745
-42.9038
-36.2222
-25.75
-12.7486
1.69936
17.014
33.4888
47.3491
58.3321
66.4421
71.8273
74.7215
75.4226
74.2721
71.629
67.8789
63.2956
58.1777
52.783
47.3208
41.9554
36.81
31.9712
27.4947
23.4112
19.7318
16.4544
13.5685
11.0594
8.90989
7.097
5.57689
4.24767
2.87112
0.929729
-2.60485
-9.59436
-23.0798
-47.4524
-88.1006
-150.147
-235.902
-339.277
-434.23
-460.361
-335.335
-60.4776
172.518
211.198
142.799
81.0029
54.7129
53.8194
65.4016
77.5117
79.518
70.8829
51.9982
26.7209
-1.10379
-23.5941
-33.546
-29.4286
-16.4448
-4.37736
1.15987
-3.83038
-13.6681
-24.3076
-33.4745
-39.9042
-42.4276
-39.7488
-30.975
-684.708
28.6865
59.0066
71.4399
82.7676
90.7369
95.1332
95.7998
92.9548
88.1911
82.607
76.6319
70.4238
64.175
58.1556
52.6237
47.7301
43.474
39.7168
36.2307
32.7437
28.9634
24.5969
19.4017
13.261
6.23458
-1.26789
-11.1151
-17.0829
-23.4057
-30.231
-37.8804
-46.9479
-58.4598
-74.1944
-97.4901
-135.019
-199.299
-309.241
-483.465
-718.314
-892.87
-664.918
-4.99881
560.569
701.644
579.028
407.817
271.738
180.257
123.088
87.4458
63.0095
43.7723
27.6351
14.705
5.59888
0.542275
-0.77855
1.03591
5.41184
11.9778
20.564
31.1637
43.8522
58.6959
75.6758
94.5398
114.614
134.731
153.522
170.135
187.923
206.55
212.89
214.47
212.399
207.256
199.456
189.41
177.633
159.974
150.397
137.907
126.352
116.603
109.779
106.199
103.261
102.03
107.251
108.59
109.257
109.277
107.838
104.118
97.2935
86.4838
71.0519
50.9485
27.3618
5.90492
-15.4818
-32.096
-43.3584
-48.6948
-48.439
-43.3725
-34.4951
-22.8592
-9.40767
5.36528
21.4862
35.7841
47.816
57.3848
64.441
69.0553
71.4033
71.7411
70.3766
67.6686
63.8954
59.3754
54.3916
49.1853
43.9532
38.8482
33.9829
29.4344
25.25
21.4534
18.0503
15.0345
12.392
10.103
8.139
6.44955
4.92925
3.34919
1.23131
-2.35969
-9.12168
-21.8818
-44.8704
-83.5687
-143.581
-227.653
-328.875
-418.503
-436.699
-316.234
-74.4005
129.266
180.849
139.641
91.9605
68.3516
66.9882
77.4071
86.0016
84.7222
73.98
54.5414
28.2519
-2.01284
-26.7907
-37.5915
-32.5142
-15.7942
-2.55561
1.40005
-3.48497
-13.3439
-24.5814
-35.1894
-43.9315
-49.3895
-49.8697
-43.889
-650.751
35.3392
64.6919
81.2831
102.603
116.416
125.903
131.176
130.243
126.082
120.219
113.451
105.934
97.7541
89.1029
80.2902
71.6751
63.5776
56.2008
49.5898
43.6264
38.0433
32.4496
26.3792
19.3765
11.047
0.82231
-10.8066
-22.5973
-31.0256
-40.8216
-52.4474
-66.8132
-85.5
-111.26
-148.927
-206.505
-295.083
-424.669
-589.071
-716.611
-612.394
-166.073
358.295
614.751
579.582
426.653
282.059
181.073
118.822
81.7208
57.7035
39.3406
23.785
10.9314
1.45922
-4.28597
-6.53876
-5.89319
-2.9621
1.83045
8.37529
16.6964
26.6372
38.3206
51.728
66.8077
83.3748
101.021
119.21
140.153
161.37
183.91
203
204.32
201.49
196.657
189.925
181.291
170.931
159.27
146.577
133.599
121.012
109.396
99.3946
91.7389
89.1207
86.1403
84.1355
83.4079
83.6591
84.6116
85.7005
86.0787
84.8617
81.0375
73.479
61.2777
44.2057
23.1745
0.28861
-21.5821
-36.5707
-47.5726
-52.8707
-53.0903
-48.9813
-41.3536
-31.0081
-18.6856
-4.70949
10.7155
25.0251
37.6895
48.354
56.7925
62.9216
66.7936
68.5695
68.492
66.8692
63.9742
60.1244
55.6207
50.7312
45.6824
40.6566
35.7931
31.1917
26.9182
23.0103
19.4834
16.3367
13.5585
11.1283
9.01519
7.16678
5.48
3.74077
1.51206
-2.0527
-8.48901
-20.3769
-41.6644
-77.6742
-134.193
-214.482
-312.024
-398.122
-415.37
-306.711
-95.1375
87.8856
151.831
134.018
100.146
80.4116
78.1716
85.6536
90.6451
87.5449
75.3985
54.3439
25.4407
-6.63692
-32.4919
-42.7274
-35.3441
-18.2811
-3.54485
1.61012
-2.6884
-12.526
-24.4359
-36.527
-47.4932
-55.6411
-58.9122
-55.4052
-593.284
18.7102
52.9018
80.8514
109.225
133.86
153.973
170.926
175.255
174.572
170.359
164.31
156.727
147.645
137.106
125.296
112.582
99.4788
86.5696
74.3822
63.271
53.3281
44.3408
35.7996
26.9459
16.9804
5.62508
-7.68146
-29.8292
-41.8118
-55.7598
-72.487
-93.1282
-119.586
-154.937
-203.822
-272.265
-365.199
-476.402
-559.89
-503.055
-215.952
191.552
479.638
532.289
428.057
290.572
183.45
115.795
76.5657
52.718
35.3264
20.5123
7.80909
-2.02267
-8.4399
-11.5208
-11.7731
-9.9575
-6.74584
-2.84481
-0.417762
10.7288
22.9885
33.5658
45.0383
57.2368
69.861
82.4971
94.7117
107.077
119.778
134.576
145.139
151.785
154.057
152.724
148.578
142.228
134.157
124.822
114.655
104.144
93.9041
84.5086
76.454
70.0499
65.4238
62.467
61.0745
61.0855
62.1489
63.9768
66.0355
67.6213
67.8799
65.7246
59.9537
49.6497
34.7046
16.0896
-4.29915
-24.1799
-41.2185
-52.8023
-56.8722
-56.7929
-53.0943
-46.4062
-37.2575
-26.1453
-13.2163
1.25866
15.2683
28.2314
39.666
49.2013
56.619
61.8545
64.9718
66.151
65.6212
63.6351
60.5036
56.5367
52.02
47.2034
42.2957
37.4629
32.8288
28.4794
24.4678
20.8208
17.5446
14.631
12.0602
9.80034
7.79823
5.95451
4.07021
1.74754
-1.77631
-7.87877
-18.8779
-38.3634
-71.306
-123.374
-198.214
-290.432
-373.569
-394.511
-302.738
-119.349
48.1349
123.017
125.205
104.5
89.3558
86.315
90.4669
91.7178
86.0656
72.258
49.9581
19.8585
-13.2758
-39.4884
-48.7092
-38.9847
-19.2446
-2.56675
3.46712
-0.778874
-11.1828
-24.2543
-38.1368
-51.434
-62.1962
-68.0202
-66.6356
-513.076
13.5457
53.8946
88.1616
123.945
156.556
184.576
206.945
222.779
232.143
233.061
230.491
225.006
216.862
206.133
192.9
177.336
159.795
140.854
121.291
101.987
83.7654
67.199
52.4545
39.2439
26.8008
13.7059
-1.40996
-14.9538
-42.9665
-61.0188
-82.2541
-107.857
-139.681
-180.396
-233.153
-299.44
-371.903
-419.243
-377.713
-193.613
91.7697
341.543
443.935
399.686
289.115
184.353
112.626
70.7738
46.761
30.4783
16.7605
4.48492
-5.6273
-12.7634
-17.1177
-20.5356
-21.059
-13.5063
-9.51837
-5.12291
0.510514
11.3051
20.7493
29.8301
38.8432
47.5557
55.659
62.8538
68.9427
74.0892
78.6781
81.2372
85.2168
89.0308
91.6597
92.5953
91.7215
89.1526
85.1086
79.872
73.7802
67.2385
60.7279
54.7432
49.72
45.9183
43.4728
42.3677
42.5587
43.8338
45.9196
48.5087
51.1685
53.2888
54.0298
52.3157
47.0465
37.5419
23.9652
7.41759
-10.3742
-27.5397
-42.3917
-53.5612
-59.7544
-59.1336
-55.5475
-49.6337
-41.6412
-31.8039
-20.221
-6.84048
6.69673
19.7207
31.6496
42.0139
50.4879
56.9003
61.2234
63.6385
64.1014
63.0024
60.6151
57.2279
53.1279
48.5828
43.8261
39.0496
34.4014
29.9882
25.88
22.1161
18.7114
15.6622
12.9508
10.5449
8.39142
6.39445
4.36901
1.95366
-1.53603
-7.32681
-17.476
-35.1815
-64.9436
-112.077
-180.392
-265.893
-345.716
-372.592
-300.631
-144.381
9.7126
93.5934
112.974
104.651
94.5003
91.0932
92.1724
89.6214
81.306
66.0357
42.8722
12.0281
-21.4381
-46.7186
-53.2589
-39.8484
-17.0299
1.15692
7.16825
1.96836
-9.84335
-24.6569
-40.6558
-56.396
-69.715
-77.9087
-78.434
-394.761
7.169
48.8317
87.768
130.604
172.484
211.417
245.581
273.823
295.62
307.52
313.552
314.155
309.924
301.373
288.938
272.915
253.487
230.831
205.286
177.518
148.596
119.911
92.9004
68.6657
47.6768
29.7767
14.0548
-2.79677
-22.9231
-49.3599
-73.1998
-101.538
-135.7
-176.5
-222.465
-265.542
-285.2
-248.681
-130.911
51.2226
230.791
333.921
334.234
263.105
174.485
104.521
61.2822
37.1659
22.1888
10.0303
-1.37873
-11.9274
-22.7087
-25.5512
-26.1978
-26.0782
-20.8747
-14.8876
-9.57591
-3.81239
3.46032
12.1533
20.2125
27.5407
33.9916
39.3331
43.3609
45.9633
47.1748
47.1728
44.745
42.6094
41.324
40.9051
41.1407
41.6376
41.9644
41.7804
40.9004
39.3046
37.1166
34.5732
31.9899
29.7084
28.0383
27.1944
27.2616
28.2286
30.0011
32.3954
35.1723
38.0545
40.6779
42.5043
42.7535
40.4726
34.8316
25.5292
13.0356
-1.51025
-16.6593
-31.0134
-43.4114
-52.9063
-58.6743
-59.6041
-56.0849
-51.0253
-44.2559
-35.7519
-25.6026
-13.4492
-0.528647
12.3969
24.6276
35.6067
44.9213
52.3093
57.6661
61.0199
62.5012
62.2947
60.6483
57.8456
54.1795
49.9299
45.3483
40.6479
35.9996
31.5307
27.329
23.4475
19.9108
16.7213
13.864
11.3075
8.99875
6.84552
4.67592
2.16288
-1.30307
-6.80374
-16.1417
-32.1147
-58.6922
-100.682
-161.848
-239.577
-315.211
-348.385
-297.392
-168.241
-27.8474
62.5532
96.884
100.395
95.6379
92.4322
90.7893
84.8467
74.5121
58.3899
34.6463
3.17174
-30.0993
-53.097
-55.2227
-37.0245
-11.1746
7.50661
12.1456
4.79996
-9.25233
-26.274
-44.5511
-62.6382
-78.1722
-88.1929
-90.1037
-162.307
-7.5334
39.4366
72.4159