/*--------------------------------*- C++ -*----------------------------------*\
| =========                 |                                                 |
| \\      /  F ield         | OpenFOAM: The Open Source CFD Toolbox           |
|  \\    /   O peration     | Version:  2112                                  |
|   \\  /    A nd           | Website:  www.openfoam.com                      |
|    \\/     M anipulation  |                                                 |
\*---------------------------------------------------------------------------*/
FoamFile
{
    version     2.0;
    format      ascii;
    arch        "LSB;label=32;scalar=64";
    class       volScalarField;
    location    "0.05";
    object      k;
}
// * * * * * * * * * * * * * * * * * * * * * * * * * * * * * * * * * * * * * //

dimensions      [0 2 -2 0 0 0 0];

internalField   nonuniform List<scalar> 
12225
(
0.387702
0.381652
0.376411
0.375325
0.374946
0.374159
0.373484
0.373385
0.373783
0.375027
0.375547
0.37555
0.3752
0.373857
0.372786
0.371998
0.369163
0.375249
0.375144
0.368883
0.3579
0.349855
0.342789
0.336226
0.329486
0.323393
0.320303
0.317915
0.317256
0.316629
0.315306
0.314588
0.312144
0.310645
0.30623
0.304945
0.374927
0.0343454
0.00954532
0.0124191
0.0204013
0.0267093
0.0300632
0.0323051
0.0371839
0.0411849
0.0493674
0.0583837
0.0645447
0.0738004
0.0764142
0.0791454
0.0787979
0.078982
0.375013
0.329543
0.267223
0.242005
0.212751
0.13608
0.0529646
0.0145627
0.00512473
0.00468076
0.00567077
0.00818839
0.00935018
0.0113675
0.0124239
0.0132517
0.0134196
0.013421
0.375502
0.335304
0.318635
0.317439
0.310916
0.29353
0.247732
0.1629
0.103384
0.0817936
0.0819506
0.0951494
0.117871
0.128059
0.131459
0.130823
0.125051
0.101036
0.375202
0.324452
0.254874
0.261075
0.264402
0.262983
0.250939
0.194067
0.120089
0.100348
0.103725
0.123938
0.152625
0.168968
0.176189
0.177439
0.176499
0.171553
0.375054
0.319928
0.187266
0.190432
0.247206
0.291662
0.297287
0.282882
0.211211
0.142194
0.111046
0.101466
0.101252
0.106259
0.10973
0.109411
0.102999
0.0971428
0.375082
0.327474
0.184758
0.178351
0.219035
0.27358
0.289617
0.286471
0.249083
0.158178
0.106091
0.0879689
0.0862185
0.0906076
0.0945469
0.0938308
0.0840059
0.0744883
0.37511
0.324331
0.221256
0.230071
0.235803
0.224567
0.219833
0.225029
0.232285
0.226645
0.185779
0.125212
0.0892836
0.073995
0.0710637
0.0713778
0.0728342
0.0763445
0.375108
0.254612
0.243777
0.272047
0.282266
0.264632
0.212347
0.200482
0.208338
0.215024
0.211437
0.183303
0.118395
0.076065
0.0561446
0.0495412
0.048525
0.0498705
0.375243
0.24568
0.245552
0.278931
0.277893
0.249037
0.232274
0.232793
0.23354
0.232351
0.225531
0.201035
0.137454
0.0839489
0.0546115
0.04421
0.0423561
0.0425504
0.375036
0.247587
0.265504
0.285013
0.283201
0.254872
0.23165
0.236668
0.254949
0.257314
0.249689
0.215267
0.176181
0.148633
0.125598
0.107339
0.091328
0.0773625
0.375092
0.328798
0.308408
0.288717
0.280024
0.27629
0.276789
0.276793
0.257742
0.202912
0.182621
0.182763
0.193264
0.20513
0.20714
0.20402
0.184859
0.141212
0.374996
0.309158
0.267657
0.289477
0.304781
0.304295
0.296707
0.272585
0.206003
0.161379
0.15188
0.152974
0.161042
0.184001
0.196247
0.197858
0.195083
0.180877
0.375132
0.312623
0.285047
0.296937
0.301207
0.291032
0.279021
0.266451
0.228359
0.160083
0.116845
0.103594
0.105996
0.131754
0.17233
0.186274
0.186232
0.18001
0.375186
0.349354
0.338626
0.318605
0.308265
0.310333
0.313077
0.308631
0.277451
0.216968
0.185044
0.180998
0.190823
0.221504
0.234591
0.234062
0.219399
0.180302
0.375163
0.353776
0.349851
0.323615
0.306741
0.310088
0.308415
0.294427
0.290313
0.296233
0.310439
0.315776
0.31604
0.312547
0.295591
0.24883
0.211675
0.192306
0.375085
0.362795
0.336313
0.318849
0.305598
0.29259
0.284785
0.281909
0.286995
0.31129
0.326563
0.330737
0.330493
0.325362
0.303781
0.261295
0.224679
0.203641
0.374977
0.350731
0.301847
0.275964
0.262846
0.25786
0.258404
0.259784
0.270176
0.295609
0.306053
0.306179
0.296691
0.253916
0.193726
0.149059
0.121158
0.111554
0.374957
0.341795
0.312725
0.288321
0.244311
0.225208
0.227177
0.236988
0.261619
0.288779
0.302746
0.305223
0.302481
0.283059
0.246883
0.228595
0.214183
0.185082
0.375002
0.341909
0.297044
0.288319
0.289458
0.270879
0.262353
0.263411
0.269667
0.289572
0.299492
0.297224
0.279316
0.266765
0.270575
0.285434
0.288474
0.281294
0.374994
0.34309
0.293644
0.235126
0.159459
0.12852
0.130224
0.146345
0.186245
0.233412
0.271879
0.287405
0.289677
0.291359
0.295076
0.295509
0.285559
0.235691
0.375063
0.35173
0.287753
0.243927
0.235469
0.239028
0.243651
0.248614
0.262016
0.294496
0.312061
0.31313
0.3082
0.299924
0.289988
0.2629
0.203808
0.161097
0.374999
0.360583
0.310705
0.267068
0.26957
0.299178
0.319229
0.324029
0.322698
0.310632
0.256975
0.218301
0.218224
0.22859
0.231297
0.225541
0.196374
0.176368
0.375166
0.354363
0.308966
0.266561
0.279585
0.306709
0.311286
0.306799
0.292183
0.261248
0.182843
0.132422
0.122225
0.122595
0.12276
0.120966
0.120717
0.13729
0.375104
0.365225
0.322863
0.265681
0.267498
0.272656
0.26174
0.253742
0.26058
0.263874
0.252998
0.20474
0.143475
0.0994317
0.0732079
0.0644269
0.0689844
0.106044
0.374998
0.365894
0.353568
0.323025
0.226358
0.149425
0.133645
0.135612
0.14595
0.150268
0.146853
0.125692
0.0726188
0.0324171
0.0111159
0.00420532
0.00361552
0.00401751
0.374939
0.0598407
0.0263307
0.0154393
0.0100454
0.00935934
0.0103535
0.0134025
0.020578
0.0286243
0.0330416
0.0336699
0.033174
0.0317068
0.0312304
0.0312864
0.031945
0.0324796
0.375438
0.372505
0.366053
0.360124
0.354948
0.350834
0.347177
0.344337
0.341765
0.339977
0.337707
0.335348
0.332073
0.328755
0.325098
0.322266
0.319494
0.317656
0.391986
0.391024
0.384679
0.382485
0.382396
0.382813
0.382853
0.382281
0.38005
0.378711
0.378498
0.378799
0.379898
0.380491
0.380609
0.380572
0.380307
0.379374
0.373095
0.383945
0.383417
0.382012
0.350032
0.356777
0.352343
0.339326
0.308754
0.286169
0.272735
0.26423
0.259566
0.255838
0.253413
0.251714
0.249969
0.249349
0.249464
0.249978
0.251285
0.252399
0.254732
0.260815
0.265157
0.273374
0.284446
0.288448
0.314023
0.473566
0.564224
0.547336
0.513084
0.490757
0.483104
0.47973
0.475684
0.473142
0.46472
0.451502
0.42972
0.392212
0.384959
0.389029
0.402479
0.46504
0.642876
0.598418
0.575021
0.549557
0.48004
0.482901
0.497293
0.545765
0.563129
0.283674
0.191303
0.180667
0.182735
0.18335
0.177777
0.169686
0.158983
0.148302
0.13712
0.127125
0.117747
0.110468
0.104374
0.101494
0.100341
0.100346
0.101413
0.101773
0.102319
0.102713
0.102941
0.103193
0.10327
0.103313
0.103305
0.10323
0.103044
0.102811
0.102581
0.102255
0.101807
0.101337
0.10085
0.100336
0.0998137
0.099278
0.0987567
0.0982653
0.0978021
0.097368
0.0969581
0.0965784
0.0962519
0.0959603
0.0956956
0.0954541
0.0952098
0.0949911
0.0948135
0.0946379
0.0944945
0.0944077
0.0943732
0.0943647
0.0944014
0.0945596
0.0947091
0.0949667
0.0951952
0.0954386
0.0955386
0.0964088
0.0965423
0.096278
0.0954811
0.0944576
0.093578
0.092807
0.0921786
0.0916197
0.0911984
0.0908226
0.090422
0.0901011
0.0897913
0.0893246
0.0886963
0.0879319
0.0869642
0.0859083
0.0849295
0.0839477
0.0827129
0.0811815
0.0796199
0.0782647
0.0770559
0.0757923
0.0743544
0.0727833
0.0712498
0.0699519
0.0690372
0.068565
0.0684561
0.0685427
0.0692081
0.0716358
0.074725
0.0769325
0.0788923
0.0824027
0.0876787
0.0934134
0.0998827
0.108222
0.116728
0.122179
0.125948
0.131084
0.144893
0.18613
0.22321
0.243056
0.253199
0.261441
0.270062
0.276637
0.281684
0.285262
0.287992
0.290025
0.297089
0.305803
0.405581
0.362147
0.4638
0.429542
0.350355
0.250553
0.210911
0.19577
0.19322
0.193688
0.195617
0.197898
0.202431
0.20653
0.20703
0.206492
0.204956
0.200992
0.197769
0.192614
0.187498
0.186007
0.186236
0.187531
0.191835
0.197858
0.211259
0.229743
0.248916
0.292841
0.409491
0.504287
0.545366
0.544042
0.505206
0.474494
0.462143
0.457556
0.448501
0.416377
0.384578
0.349783
0.302821
0.291456
0.301712
0.342889
0.478589
0.533901
0.534426
0.50952
0.39705
0.390607
0.393386
0.342979
0.296187
0.190414
0.159122
0.147811
0.139122
0.130937
0.123719
0.118747
0.115076
0.113496
0.112944
0.113103
0.115121
0.117261
0.12035
0.124924
0.128766
0.133458
0.137447
0.141353
0.144764
0.147148
0.149393
0.150585
0.151232
0.151463
0.151489
0.151219
0.150214
0.148694
0.147224
0.145434
0.142929
0.140104
0.137062
0.134015
0.130932
0.127726
0.124794
0.122145
0.119652
0.117379
0.115337
0.113409
0.111797
0.110398
0.109186
0.108286
0.107278
0.106548
0.105792
0.105077
0.104427
0.103788
0.103338
0.103056
0.10292
0.102955
0.103036
0.103042
0.102895
0.102408
0.101653
0.100639
0.0996533
0.0984916
0.0972104
0.0957829
0.094307
0.0928991
0.0916671
0.0906858
0.0899209
0.0894116
0.0889164
0.0884076
0.0880562
0.0875877
0.0868258
0.0859816
0.085123
0.0838577
0.0821079
0.0803628
0.0787404
0.0768112
0.0748383
0.073829
0.073381
0.072358
0.0700579
0.0675413
0.0654023
0.0632994
0.0605126
0.0571625
0.0542744
0.0526211
0.0520943
0.0519927
0.0518163
0.0517475
0.0520514
0.0530007
0.0551896
0.0581406
0.0600687
0.062522
0.065133
0.0675353
0.0726704
0.0820482
0.0894986
0.103403
0.11719
0.121681
0.121718
0.12072
0.1202
0.12063
0.12324
0.126638
0.134376
0.141581
0.151019
0.174644
0.546786
0.563696
0.525552
0.373206
0.213612
0.167423
0.1683
0.174787
0.18951
0.213735
0.240395
0.265063
0.29285
0.315968
0.321698
0.320353
0.315352
0.303365
0.28412
0.262602
0.242005
0.224162
0.209162
0.198835
0.192632
0.189327
0.189439
0.191465
0.196771
0.209122
0.238075
0.309003
0.450369
0.511557
0.51688
0.510346
0.492035
0.479863
0.467416
0.435991
0.381713
0.349066
0.313802
0.278474
0.268673
0.277554
0.342958
0.510207
0.44243
0.283998
0.286006
0.271861
0.211989
0.179608
0.142376
0.120122
0.110804
0.106068
0.103371
0.10225
0.101932
0.102678
0.10494
0.107729
0.111887
0.116967
0.124419
0.135655
0.150206
0.168123
0.188801
0.211068
0.231176
0.247434
0.26048
0.269558
0.275945
0.278373
0.278813
0.27858
0.277582
0.275644
0.272428
0.268089
0.263188
0.25747
0.250905
0.243429
0.233925
0.223851
0.213535
0.201996
0.190811
0.181127
0.172776
0.165884
0.160256
0.155084
0.150983
0.147617
0.14404
0.141819
0.139147
0.137257
0.1355
0.13412
0.132934
0.13186
0.130865
0.12995
0.129021
0.12807
0.127094
0.12604
0.124933
0.123564
0.121665
0.119086
0.115816
0.112051
0.107939
0.103874
0.100555
0.0981444
0.0962009
0.0946611
0.0933325
0.0921699
0.0910234
0.0896839
0.088276
0.0868891
0.0852103
0.0829297
0.0802146
0.0772371
0.0738232
0.0693476
0.0635678
0.0571794
0.051193
0.0458837
0.0415931
0.0395012
0.0379793
0.035042
0.0310592
0.0266715
0.0220713
0.0177489
0.014605
0.0129844
0.0123305
0.0120706
0.012075
0.0125802
0.0135297
0.0144173
0.0154971
0.0166371
0.0175097
0.0180586
0.0184088
0.0189062
0.0199656
0.0223454
0.0263487
0.0324552
0.0393139
0.0431041
0.0437935
0.0436955
0.0432453
0.0425046
0.0425798
0.0429514
0.0441826
0.0461658
0.049118
0.061739
0.536802
0.498665
0.297839
0.1552
0.138598
0.14774
0.172925
0.226427
0.291
0.349041
0.390815
0.419812
0.443005
0.457857
0.461591
0.460971
0.457745
0.449084
0.425155
0.385349
0.349431
0.319172
0.293898
0.272502
0.250046
0.225852
0.206924
0.197203
0.195402
0.196143
0.200637
0.217002
0.259984
0.375938
0.462648
0.483084
0.481454
0.474821
0.459835
0.40903
0.344988
0.323057
0.302999
0.275367
0.264623
0.275271
0.374768
0.455331
0.253473
0.216693
0.200491
0.162153
0.131394
0.116172
0.105939
0.102302
0.101669
0.102478
0.104296
0.107151
0.113021
0.121797
0.134598
0.150065
0.170978
0.196226
0.229209
0.270563
0.316485
0.35949
0.392841
0.40528
0.408013
0.407917
0.40512
0.399328
0.391832
0.383768
0.375613
0.367372
0.359231
0.351569
0.344453
0.337702
0.33093
0.324313
0.318538
0.313512
0.307942
0.301823
0.295601
0.288559
0.279245
0.267916
0.254947
0.239504
0.224404
0.209001
0.194118
0.182115
0.170836
0.163698
0.156959
0.151701
0.147326
0.143822
0.140927
0.138438
0.136232
0.134252
0.132441
0.130814
0.129407
0.128261
0.127467
0.127147
0.127304
0.127694
0.127793
0.127641
0.126953
0.125349
0.122118
0.117525
0.112482
0.107603
0.103592
0.100539
0.0982658
0.0966927
0.095609
0.0946365
0.0936649
0.0928085
0.0919174
0.0905721
0.0884294
0.0859303
0.0840666
0.0833905
0.0836419
0.0862244
0.0915418
0.0930922
0.0925416
0.0895997
0.0795873
0.0660413
0.0552662
0.0481189
0.0445698
0.0430679
0.041391
0.0372109
0.0271874
0.0183011
0.0137421
0.0115644
0.00996082
0.00923972
0.00919381
0.00942132
0.0097277
0.00972391
0.00927799
0.00847168
0.00839484
0.00851702
0.0089902
0.0105152
0.0118457
0.0123382
0.0124616
0.0124521
0.0123023
0.0115454
0.0112729
0.0113082
0.0116958
0.0152194
0.255615
0.21886
0.117127
0.109896
0.13358
0.197586
0.27911
0.338315
0.387806
0.425198
0.45205
0.470755
0.483742
0.490808
0.492615
0.492274
0.489827
0.482313
0.460451
0.421071
0.379237
0.348223
0.327997
0.310782
0.295473
0.278285
0.252459
0.225807
0.207108
0.198558
0.197735
0.199994
0.209785
0.240765
0.321661
0.38931
0.415442
0.414295
0.396312
0.340542
0.316528
0.310283
0.303654
0.280353
0.266227
0.29723
0.391264
0.3126
0.185907
0.159024
0.135164
0.114044
0.105108
0.101733
0.100933
0.102331
0.10455
0.110405
0.120055
0.135596
0.150039
0.168577
0.186853
0.213262
0.249207
0.310584
0.392324
0.442262
0.458525
0.463915
0.464399
0.457928
0.444677
0.430629
0.416594
0.402756
0.389322
0.375885
0.362662
0.349404
0.335406
0.32111
0.307371
0.29545
0.286135
0.280131
0.278107
0.278507
0.283343
0.288529
0.292094
0.293809
0.294152
0.292175
0.288386
0.282396
0.275384
0.267679
0.258822
0.247928
0.234839
0.219612
0.204359
0.189428
0.175478
0.163847
0.15504
0.148435
0.142949
0.138348
0.134409
0.130932
0.127786
0.124887
0.122268
0.12005
0.118444
0.117953
0.118848
0.121593
0.124708
0.127506
0.129215
0.12955
0.129091
0.12711
0.123853
0.119882
0.115661
0.111539
0.10753
0.103859
0.100743
0.0981992
0.0963085
0.0950474
0.0938051
0.091425
0.0874965
0.0831705
0.0801341
0.0791906
0.0794735
0.0828722
0.089853
0.0924785
0.0924404
0.089976
0.083639
0.0805546
0.0800456
0.0806886
0.0814805
0.0812448
0.078329
0.0671132
0.0552134
0.048104
0.0430178
0.0359589
0.028694
0.0248707
0.0245088
0.0254269
0.0258023
0.0251259
0.0211272
0.0137883
0.00914873
0.00709748
0.00663553
0.0066675
0.00690141
0.00697014
0.00685835
0.0061995
0.00462891
0.00340056
0.00268687
0.0028351
0.183082
0.167448
0.0781203
0.108242
0.211879
0.271391
0.329242
0.381624
0.423097
0.452095
0.470366
0.483478
0.491538
0.495061
0.4954
0.494239
0.489105
0.472324
0.441285
0.413291
0.387394
0.359908
0.331871
0.308981
0.292105
0.274251
0.250413
0.225855
0.20763
0.198039
0.194962
0.195139
0.19821
0.208524
0.238214
0.305681
0.337449
0.337411
0.316901
0.302897
0.308859
0.341958
0.346481
0.296223
0.286153
0.351364
0.354969
0.193536
0.139123
0.120157
0.106776
0.101087
0.0997232
0.101101
0.10316
0.109753
0.121541
0.139184
0.153563
0.167754
0.18391
0.206122
0.24131
0.301546
0.394449
0.464701
0.48992
0.49904
0.500354
0.493075
0.466638
0.4281
0.39067
0.353409
0.318243
0.289976
0.266563
0.245167
0.226206
0.20794
0.190337
0.175322
0.162954
0.153201
0.145672
0.139978
0.13566
0.133366
0.135282
0.14249
0.1571
0.177357
0.200629
0.223554
0.242909
0.255826
0.262219
0.26453
0.264472
0.262727
0.259574
0.255076
0.249365
0.242589
0.234576
0.224039
0.211239
0.197475
0.184275
0.172077
0.161465
0.151964
0.14325
0.135336
0.128501
0.122602
0.118045
0.114862
0.112807
0.111708
0.111524
0.112354
0.115782
0.120706
0.124833
0.127226
0.127845
0.127455
0.125277
0.121919
0.118052
0.113071
0.107263
0.101749
0.0976029
0.0951869
0.0940467
0.0935184
0.0928938
0.0915137
0.0873786
0.0815643
0.0784857
0.0780386
0.0793923
0.0859209
0.0907847
0.0919827
0.0916256
0.0896409
0.088774
0.0889191
0.0904458
0.0925056
0.0928068
0.0922387
0.089264
0.0778551
0.0624737
0.0523668
0.0448783
0.0385721
0.0355167
0.0354463
0.0373578
0.0388861
0.0386651
0.0361595
0.0273609
0.0170431
0.0118349
0.0110642
0.0114424
0.0122029
0.0122376
0.0117126
0.0091907
0.0059933
0.00418627
0.00311985
0.175837
0.159558
0.048065
0.170998
0.248326
0.296399
0.353227
0.400838
0.434509
0.457272
0.469196
0.474572
0.473741
0.471806
0.466996
0.457493
0.436728
0.419451
0.400727
0.375817
0.348874
0.322155
0.297471
0.278051
0.262986
0.247251
0.229891
0.213106
0.200002
0.192314
0.189699
0.189885
0.192996
0.204978
0.248754
0.295927
0.301959
0.289352
0.285503
0.31704
0.422585
0.442556
0.387357
0.331227
0.333647
0.341505
0.246604
0.136609
0.111659
0.102337
0.0986793
0.0981111
0.100612
0.105113
0.114828
0.134755
0.149387
0.162118
0.173808
0.189766
0.214171
0.255373
0.324236
0.424415
0.495979
0.518297
0.523541
0.521862
0.500071
0.445184
0.361396
0.278465
0.22319
0.193173
0.177267
0.168413
0.161581
0.154605
0.147638
0.141277
0.135551
0.13002
0.125491
0.12177
0.117688
0.113138
0.107572
0.101551
0.0956111
0.0904322
0.0868696
0.085762
0.0885593
0.0967034
0.110363
0.128571
0.147507
0.164444
0.179643
0.193705
0.206865
0.219219
0.230034
0.237623
0.240137
0.239655
0.236317
0.230681
0.223654
0.215546
0.205799
0.195068
0.183596
0.171129
0.157224
0.142774
0.130166
0.121217
0.115214
0.111772
0.110149
0.109576
0.109543
0.109902
0.111451
0.113807
0.116248
0.118262
0.119282
0.119443
0.119055
0.116727
0.110857
0.104205
0.0977126
0.0927614
0.0901722
0.0894517
0.089479
0.0897938
0.0897923
0.0888135
0.0838221
0.0788866
0.0777243
0.0785679
0.084011
0.0892661
0.0910808
0.091254
0.0905148
0.0898695
0.0901446
0.0915786
0.0935723
0.0945306
0.0945592
0.093845
0.0900455
0.075915
0.0586514
0.047333
0.0398539
0.0363604
0.0360022
0.0367319
0.0369423
0.0359582
0.0306474
0.0206188
0.0147101
0.0129507
0.0131178
0.0152616
0.0181602
0.0187861
0.0183958
0.0157169
0.010396
0.00625198
0.17572
0.156497
0.0335308
0.215854
0.26104
0.308133
0.361175
0.40357
0.427963
0.429174
0.416467
0.402038
0.386512
0.370408
0.345616
0.328577
0.316358
0.30043
0.282589
0.265141
0.249306
0.235972
0.228313
0.223815
0.218373
0.210792
0.20057
0.192143
0.187877
0.186925
0.187849
0.193151
0.220236
0.254148
0.268913
0.260372
0.251175
0.272473
0.38046
0.479435
0.492209
0.447601
0.37933
0.341204
0.32954
0.28761
0.150318
0.109049
0.0992197
0.0968091
0.0972923
0.0995742
0.106625
0.120339
0.140796
0.154271
0.164828
0.176806
0.191949
0.2161
0.255428
0.319967
0.415919
0.506147
0.534377
0.540431
0.537969
0.5116
0.443127
0.3288
0.222023
0.181909
0.164474
0.155497
0.150615
0.147949
0.145759
0.142809
0.137825
0.132883
0.129468
0.126174
0.123748
0.122798
0.122065
0.120632
0.115951
0.107616
0.09813
0.0898203
0.0830388
0.0775694
0.0736519
0.0719639
0.073428
0.0798371
0.0910969
0.102698
0.112479
0.12016
0.126003
0.130956
0.137106
0.146895
0.162335
0.180766
0.198672
0.212332
0.218456
0.218295
0.213462
0.20511
0.195812
0.185851
0.17554
0.163806
0.148922
0.133977
0.122664
0.115212
0.111194
0.109578
0.109254
0.109394
0.110296
0.110995
0.111105
0.111058
0.110787
0.109548
0.107427
0.106055
0.104177
0.0995812
0.0913691
0.0843013
0.0802872
0.079096
0.0791458
0.0802461
0.0833619
0.0846337
0.084471
0.0820201
0.0784221
0.0779039
0.0792041
0.0841824
0.0877709
0.089501
0.0897018
0.0890859
0.0872651
0.0871104
0.087622
0.0899755
0.0925084
0.0932052
0.0930276
0.0911961
0.0828685
0.0625215
0.0460716
0.0343391
0.0273572
0.0247035
0.0239049
0.0225269
0.0182038
0.012198
0.00975605
0.00954766
0.00981266
0.01156
0.0169435
0.0210921
0.022332
0.0222043
0.0207176
0.0144135
0.175706
0.155475
0.0289276
0.237497
0.265672
0.31093
0.354252
0.37102
0.365569
0.329772
0.2873
0.258382
0.244328
0.234817
0.22748
0.222053
0.218431
0.215019
0.211226
0.20872
0.207733
0.207776
0.207733
0.206316
0.200284
0.191232
0.187377
0.186997
0.188971
0.200193
0.233498
0.247336
0.240711
0.228336
0.231892
0.270642
0.371938
0.458817
0.512194
0.51525
0.4869
0.42936
0.365794
0.331626
0.289133
0.166292
0.11136
0.0973614
0.0949738
0.0963562
0.099023
0.10649
0.124106
0.142961
0.156873
0.166752
0.176722
0.190325
0.209144
0.242863
0.294366
0.377094
0.486743
0.541235
0.554011
0.554854
0.540551
0.489063
0.387898
0.259073
0.197831
0.174198
0.162331
0.154141
0.148972
0.146285
0.14461
0.142799
0.138695
0.133618
0.129992
0.128469
0.129896
0.137551
0.141242
0.142574
0.141224
0.135754
0.121898
0.10458
0.0922465
0.0819686
0.0740307
0.0693292
0.0667958
0.0666069
0.0702702
0.0810489
0.0926559
0.101787
0.108444
0.112847
0.115234
0.116401
0.117227
0.118829
0.122701
0.131772
0.146805
0.165107
0.180604
0.188665
0.189833
0.18591
0.17694
0.168016
0.157001
0.141865
0.127464
0.117338
0.111857
0.109669
0.109201
0.109415
0.11096
0.11204
0.112041
0.111622
0.110507
0.108301
0.103379
0.0967815
0.0889623
0.0800934
0.0714413
0.0647598
0.0611056
0.0600744
0.0601565
0.0611726
0.0655246
0.0717366
0.0750663
0.0757219
0.0754516
0.07542
0.0762959
0.081175
0.0842865
0.0845196
0.0856876
0.0859914
0.0851967
0.082862
0.0814743
0.0814213
0.0824673
0.0868922
0.0899927
0.0903461
0.0891938
0.082079
0.0590383
0.0388332
0.0264577
0.0188824
0.0143467
0.0109723
0.00781205
0.00571887
0.0053081
0.00579977
0.00648337
0.00745139
0.0102878
0.017403
0.0235507
0.0264812
0.0268291
0.0251515
0.175749
0.157203
0.0478988
0.244736
0.267269
0.298093
0.3043
0.29883
0.270977
0.224157
0.208155
0.202976
0.201825
0.202387
0.202994
0.203638
0.204182
0.204546
0.205321
0.206522
0.20681
0.206125
0.201997
0.19389
0.191188
0.191111
0.197222
0.215008
0.225226
0.236251
0.226563
0.201377
0.21805
0.277125
0.378089
0.46416
0.50863
0.523366
0.52309
0.505789
0.459915
0.396463
0.338913
0.286781
0.174692
0.114953
0.0968367
0.0935757
0.0948267
0.0981297
0.106081
0.124601
0.14479
0.157504
0.169324
0.177121
0.188871
0.203573
0.227339
0.265456
0.326969
0.427843
0.530547
0.562405
0.56876
0.567139
0.546788
0.490335
0.38773
0.264262
0.211962
0.191525
0.17961
0.166485
0.155406
0.148447
0.145333
0.14452
0.143779
0.140311
0.134907
0.132876
0.135554
0.141732
0.145497
0.1472
0.147318
0.145924
0.139993
0.122296
0.102035
0.0890602
0.0804359
0.0725972
0.0667794
0.063991
0.0630926
0.0643658
0.0717914
0.0853656
0.0975591
0.105503
0.110098
0.112441
0.113559
0.113944
0.114051
0.114327
0.115246
0.117827
0.125438
0.139489
0.152017
0.158999
0.16116
0.160996
0.157749
0.145486
0.129383
0.11802
0.11172
0.109202
0.108791
0.109272
0.112847
0.117223
0.118077
0.117669
0.115748
0.110254
0.100525
0.0906902
0.0807227
0.0704499
0.0615275
0.0552863
0.051899
0.0506747
0.0505358
0.0508738
0.0529604
0.0574986
0.0605716
0.0626845
0.0643498
0.0657702
0.0682275
0.0760317
0.0819216
0.0815656
0.0750853
0.0754606
0.0774827
0.0775253
0.0773026
0.0768001
0.0766542
0.0772981
0.0815963
0.0866417
0.087651
0.0865362
0.0783058
0.0507021
0.0290354
0.0193227
0.0148735
0.0117064
0.00923684
0.00780697
0.00734671
0.00741991
0.00764255
0.00769477
0.00792147
0.00981625
0.0171419
0.0256793
0.0307485
0.0316097
0.176065
0.166835
0.100181
0.243162
0.259538
0.267589
0.267097
0.255599
0.21337
0.193895
0.190368
0.190725
0.19361
0.197602
0.200945
0.203403
0.205697
0.208088
0.209112
0.209143
0.207291
0.201246
0.198565
0.198482
0.204471
0.211629
0.21476
0.213767
0.1956
0.189952
0.194847
0.258247
0.351253
0.443246
0.492769
0.514235
0.520817
0.521545
0.507736
0.471127
0.410509
0.341519
0.26305
0.168633
0.116232
0.0971521
0.0928801
0.0933452
0.0966621
0.105094
0.123769
0.145177
0.158074
0.169635
0.177751
0.185298
0.196323
0.210868
0.23702
0.279559
0.356974
0.470939
0.547189
0.569802
0.574647
0.573734
0.559409
0.513331
0.421453
0.304975
0.253427
0.232789
0.20944
0.185428
0.16764
0.156413
0.148135
0.145553
0.146251
0.147127
0.145189
0.140385
0.139237
0.141313
0.144993
0.147301
0.14791
0.147493
0.144196
0.129831
0.105202
0.0900617
0.0819383
0.0771056
0.0716671
0.0657065
0.0624351
0.0610213
0.0608718
0.062857
0.0722303
0.0879358
0.100561
0.108086
0.112124
0.114133
0.11519
0.115587
0.115704
0.116011
0.117694
0.124942
0.13731
0.145221
0.148008
0.148161
0.147331
0.143586
0.129671
0.116387
0.109568
0.107297
0.107161
0.108213
0.114816
0.125482
0.128774
0.128568
0.125984
0.116227
0.1035
0.0930635
0.0835473
0.0746153
0.067289
0.0621318
0.0589863
0.0574734
0.0572024
0.0577144
0.0606216
0.0637107
0.0650752
0.0653094
0.0649616
0.0644772
0.0648028
0.0675737
0.077169
0.0796834
0.0763666
0.0574574
0.0545239
0.0576529
0.0643812
0.0676323
0.0685369
0.0693896
0.072166
0.0800591
0.085278
0.0862646
0.0848618
0.0747056
0.0448783
0.0240198
0.0154019
0.0118482
0.00979403
0.00881909
0.00855898
0.00860729
0.00864576
0.00837638
0.00758462
0.00764997
0.0101814
0.0194948
0.0276256
0.0314114
0.176466
0.173656
0.146325
0.230329
0.241117
0.247835
0.247699
0.225715
0.191762
0.184433
0.184202
0.186299
0.190952
0.196458
0.201174
0.205099
0.208448
0.209689
0.20973
0.207509
0.204198
0.203507
0.20431
0.205162
0.203724
0.194848
0.169618
0.160867
0.162543
0.195933
0.259571
0.339946
0.414043
0.469239
0.493156
0.502462
0.503001
0.485409
0.445289
0.376338
0.299573
0.223414
0.154568
0.113546
0.0973023
0.0927129
0.0923797
0.0952482
0.103922
0.123397
0.1469
0.159772
0.169023
0.177339
0.182852
0.189627
0.199543
0.21515
0.244988
0.297489
0.379894
0.468146
0.541545
0.566275
0.571904
0.571079
0.55865
0.519012
0.438124
0.339052
0.290431
0.255059
0.220001
0.190919
0.171062
0.160036
0.153717
0.148778
0.147684
0.149187
0.150766
0.150343
0.147584
0.145155
0.145147
0.146939
0.147921
0.147678
0.145046
0.132528
0.105968
0.087908
0.0796093
0.0767221
0.0754422
0.0726447
0.0673224
0.0629918
0.0604141
0.0593842
0.059407
0.0619776
0.0735738
0.0903192
0.102821
0.110744
0.11558
0.118465
0.120123
0.12116
0.122569
0.125904
0.134479
0.141296
0.143969
0.144095
0.142736
0.13567
0.119932
0.109291
0.104427
0.103322
0.103568
0.105644
0.11488
0.131615
0.141592
0.143925
0.142962
0.136657
0.110964
0.0862393
0.0782445
0.0741502
0.0699794
0.0666636
0.0650065
0.064642
0.0648295
0.0666564
0.0735146
0.0786228
0.0799528
0.0797592
0.0778099
0.0713429
0.0680465
0.0682949
0.0726936
0.0794467
0.0787072
0.0675507
0.0522205
0.0473362
0.0477282
0.0501004
0.0524203
0.0543065
0.0585217
0.0693976
0.0797707
0.0853114
0.0863681
0.0848092
0.0738756
0.0446305
0.0248827
0.0154342
0.0110374
0.00897475
0.00846619
0.00870283
0.00907561
0.00898747
0.00816482
0.00758207
0.00786612
0.00984541
0.0160732
0.0239706
0.176595
0.176862
0.173658
0.224753
0.229679
0.229505
0.222341
0.202246
0.182665
0.178783
0.178579
0.179748
0.183093
0.188328
0.193866
0.198747
0.2007
0.200661
0.197813
0.192739
0.191921
0.193236
0.192732
0.181633
0.150023
0.132883
0.131392
0.139204
0.166182
0.211372
0.26597
0.324917
0.382308
0.417931
0.431684
0.433637
0.411824
0.358253
0.301375
0.243364
0.185589
0.140874
0.110148
0.096926
0.0927025
0.0921329
0.0942955
0.102978
0.124236
0.14908
0.162246
0.169873
0.176355
0.181227
0.18556
0.192677
0.203881
0.223618
0.262639
0.318424
0.380643
0.450953
0.513151
0.544475
0.551345
0.546925
0.525933
0.478903
0.409573
0.347088
0.300341
0.258311
0.220203
0.188911
0.170659
0.160673
0.156508
0.154299
0.153049
0.15247
0.152595
0.152248
0.151371
0.149476
0.148523
0.148291
0.148187
0.147643
0.144442
0.131236
0.0993432
0.0779543
0.0705172
0.0705855
0.0736812
0.078045
0.0777803
0.0729773
0.0669214
0.0619507
0.0589002
0.057519
0.0573971
0.0608675
0.0749455
0.0918805
0.104927
0.113625
0.118604
0.121209
0.123521
0.128312
0.134151
0.137903
0.13871
0.138237
0.13537
0.124179
0.108783
0.10024
0.0973628
0.0971917
0.0979848
0.101565
0.114018
0.131733
0.145224
0.152844
0.154876
0.154317
0.149852
0.129955
0.099295
0.0802451
0.0699307
0.0644802
0.0621478
0.061744
0.0620247
0.0638672
0.0707804
0.0774289
0.0808487
0.0819456
0.0818405
0.0802822
0.0754154
0.0730858
0.0740774
0.0804151
0.0837513
0.0815216
0.0670535
0.0543985
0.0483645
0.0450742
0.0448512
0.0453744
0.0472757
0.0534291
0.0681156
0.0801328
0.0864248
0.087747
0.0863555
0.0767723
0.0530491
0.0374322
0.0286448
0.0221228
0.0170542
0.0141941
0.012367
0.0104236
0.00867541
0.00712992
0.0063902
0.00638246
0.00671433
0.00857338
0.176617
0.177739
0.185599
0.221162
0.224561
0.222071
0.211524
0.191895
0.178601
0.175404
0.174872
0.175242
0.177382
0.18254
0.188131
0.189511
0.189204
0.185945
0.177467
0.169724
0.168078
0.164978
0.145372
0.111772
0.103808
0.106099
0.110963
0.123018
0.149433
0.185483
0.21724
0.24555
0.277783
0.29252
0.298189
0.295882
0.265614
0.228916
0.195425
0.156359
0.125203
0.106538
0.0965004
0.0929876
0.0923934
0.0940145
0.102319
0.124938
0.150783
0.163787
0.170071
0.175183
0.180207
0.184338
0.189263
0.198007
0.212831
0.242061
0.280688
0.322761
0.371254
0.415928
0.455577
0.479499
0.488333
0.474322
0.445599
0.40797
0.362407
0.316471
0.272032
0.222928
0.187829
0.170896
0.164096
0.159971
0.15795
0.157362
0.15679
0.156009
0.154358
0.152461
0.151081
0.149903
0.149214
0.148873
0.148408
0.146735
0.140106
0.11665
0.0831338
0.0643388
0.0598203
0.0605192
0.0675026
0.0786266
0.0839766
0.0846713
0.0821278
0.0743543
0.0657618
0.0593536
0.0554713
0.0533827
0.0535415
0.0584338
0.0738305
0.0900485
0.101579
0.109277
0.116655
0.123515
0.126885
0.127209
0.126707
0.124718
0.117703
0.101099
0.090685
0.0866487
0.0862593
0.0867751
0.0889414
0.0956826
0.112482
0.129998
0.144238
0.153672
0.158215
0.159349
0.159177
0.157462
0.150594
0.127874
0.10041
0.0799361
0.0665396
0.0590125
0.0560935
0.0558935
0.0574322
0.0636143
0.0707452
0.07564
0.0778561
0.0782323
0.078061
0.0780078
0.0783004
0.0821222
0.0894542
0.0906115
0.0878633
0.0745196
0.0576143
0.0489345
0.0449172
0.0439841
0.0443664
0.04656
0.0550716
0.0709005
0.0822121
0.0878975
0.089166
0.088082
0.0821525
0.0769187
0.0735822
0.0673043
0.0524625
0.0359809
0.0232423
0.0145971
0.00925593
0.00658239
0.0059527
0.00598265
0.00588263
0.00584828
0.176536
0.177025
0.188217
0.213287
0.219331
0.217795
0.206929
0.18812
0.177825
0.175063
0.17444
0.174476
0.175807
0.180286
0.185337
0.186384
0.186112
0.184038
0.179632
0.172947
0.16334
0.149091
0.128309
0.105969
0.0976031
0.0963155
0.0975584
0.104133
0.118482
0.138521
0.158587
0.177186
0.193548
0.200752
0.202933
0.195615
0.173202
0.154271
0.134948
0.113433
0.101841
0.0958608
0.0933987
0.0929145
0.0944582
0.102334
0.124912
0.149933
0.162767
0.168905
0.17407
0.179236
0.184971
0.190525
0.197871
0.21168
0.233156
0.259801
0.287513
0.318149
0.35012
0.375072
0.394163
0.405224
0.399406
0.384507
0.358329
0.325112
0.283905
0.237857
0.198953
0.178758
0.169553
0.165286
0.162702
0.160455
0.159039
0.15803
0.157133
0.15605
0.154241
0.152108
0.150204
0.149276
0.148919
0.148398
0.147037
0.142776
0.129663
0.0961712
0.0693724
0.0579127
0.0555564
0.0568871
0.0655301
0.0780459
0.0860611
0.08974
0.090368