/*--------------------------------*- C++ -*----------------------------------*\
| =========                 |                                                 |
| \\      /  F ield         | OpenFOAM: The Open Source CFD Toolbox           |
|  \\    /   O peration     | Version:  2112                                  |
|   \\  /    A nd           | Website:  www.openfoam.com                      |
|    \\/     M anipulation  |                                                 |
\*---------------------------------------------------------------------------*/
FoamFile
{
    version     2.0;
    format      ascii;
    arch        "LSB;label=32;scalar=64";
    class       volScalarField;
    location    "0.09";
    object      k;
}
// * * * * * * * * * * * * * * * * * * * * * * * * * * * * * * * * * * * * * //

dimensions      [0 2 -2 0 0 0 0];

internalField   nonuniform List<scalar> 
12225
(
0.835124
1.33334
1.55197
1.61583
1.60707
1.56893
1.52219
1.47651
1.43633
1.40365
1.37934
1.36378
1.35375
1.34896
1.35013
1.35734
1.3704
1.38325
0.103069
0.143632
0.173787
0.192869
0.203449
0.208219
0.209376
0.208381
0.20607
0.202858
0.198905
0.194314
0.190498
0.187463
0.184331
0.180368
0.174661
0.165831
0.0717724
0.069116
0.0662238
0.0629926
0.0595541
0.0560365
0.0525539
0.0491742
0.045912
0.0427465
0.0396491
0.0366774
0.0343617
0.0325616
0.0311755
0.0301365
0.029411
0.0290089
0.0711198
0.0673135
0.0638275
0.0605649
0.0574865
0.0545862
0.0518725
0.0493576
0.0470512
0.0449654
0.0431111
0.0414617
0.0400112
0.0387557
0.0376962
0.0368427
0.0362165
0.0358449
0.071115
0.0673455
0.0640093
0.0610276
0.0583419
0.0559099
0.0537015
0.0516953
0.0498767
0.0482312
0.0467364
0.0453815
0.0441579
0.0430606
0.0420881
0.041243
0.0405315
0.0399548
0.071115
0.0673511
0.0640354
0.0610959
0.058476
0.0561305
0.0540226
0.0521225
0.0504055
0.04885
0.0474389
0.0461584
0.0449979
0.0439495
0.0430085
0.0421722
0.0414393
0.0408025
0.0711145
0.0673493
0.0640329
0.0610951
0.0584801
0.0561426
0.0540452
0.0521568
0.0504515
0.048908
0.0475086
0.0462389
0.0450871
0.0440442
0.0431034
0.042259
0.0415057
0.0408334
0.0711142
0.0673476
0.0640292
0.0610896
0.058473
0.0561339
0.054035
0.052145
0.0504382
0.0488931
0.0474918
0.0462195
0.0450641
0.0440157
0.0430662
0.0422084
0.0414351
0.0407359
0.071114
0.0673463
0.0640262
0.0610847
0.058466
0.0561248
0.0540236
0.0521313
0.050422
0.0488741
0.0474696
0.0461934
0.0450331
0.043978
0.0430193
0.0421487
0.041358
0.040638
0.0711139
0.0673455
0.0640238
0.0610806
0.05846
0.0561167
0.0540132
0.0521184
0.0504064
0.0488554
0.0474472
0.0461667
0.0450009
0.0439388
0.042971
0.0420886
0.0412835
0.040547
0.0711138
0.0673448
0.0640219
0.0610771
0.0584548
0.0561094
0.0540037
0.0521063
0.0503914
0.0488372
0.0474253
0.0461403
0.044969
0.0439002
0.0429239
0.0420313
0.0412139
0.040464
0.0711138
0.0673444
0.0640206
0.0610745
0.0584505
0.0561034
0.0539954
0.0520957
0.050378
0.0488206
0.047405
0.0461156
0.044939
0.0438637
0.0428798
0.041978
0.0411502
0.0403889
0.0711138
0.0673441
0.0640195
0.0610722
0.0584467
0.0560977
0.0539877
0.0520855
0.0503651
0.0488045
0.0473852
0.0460915
0.0449098
0.0438286
0.0428377
0.041928
0.0410914
0.0403209
0.0711138
0.0673439
0.0640184
0.0610699
0.0584428
0.0560918
0.0539794
0.0520744
0.0503508
0.0487865
0.0473629
0.0460643
0.044877
0.0437893
0.0427911
0.0418731
0.0410275
0.0402475
0.0711138
0.0673437
0.0640175
0.0610676
0.0584388
0.0560856
0.0539705
0.0520623
0.050335
0.0487665
0.0473381
0.046034
0.0448406
0.043746
0.0427399
0.0418135
0.0409588
0.0401693
0.0711139
0.0673435
0.0640167
0.0610655
0.0584347
0.0560791
0.053961
0.0520494
0.050318
0.0487448
0.0473112
0.0460012
0.0448012
0.0436994
0.0426855
0.0417506
0.0408869
0.040088
0.071114
0.0673434
0.0640159
0.0610634
0.0584307
0.0560725
0.0539513
0.0520358
0.0503001
0.048722
0.0472829
0.0459668
0.0447601
0.043651
0.0426293
0.0416862
0.0408139
0.040006
0.071114
0.0673434
0.0640152
0.0610614
0.0584268
0.056066
0.0539415
0.0520223
0.0502821
0.0486991
0.0472545
0.0459324
0.0447192
0.0436033
0.0425743
0.0416236
0.0407433
0.0399273
0.0711141
0.0673432
0.0640144
0.0610594
0.058423
0.0560598
0.0539323
0.0520094
0.0502651
0.0486775
0.0472279
0.0459004
0.0446816
0.0435596
0.0425245
0.0415673
0.0406805
0.039858
0.0711141
0.0673432
0.064014
0.0610583
0.0584207
0.0560559
0.0539265
0.0520013
0.0502543
0.0486637
0.0472107
0.0458798
0.0446572
0.0435314
0.0424922
0.0415309
0.04064
0.0398132
0.0711141
0.0673431
0.0640138
0.0610579
0.0584198
0.0560543
0.0539239
0.0519975
0.0502491
0.0486568
0.0472022
0.0458693
0.0446448
0.0435169
0.0424756
0.0415123
0.0406191
0.0397902
0.0711141
0.0673432
0.0640139
0.061058
0.0584199
0.0560541
0.0539233
0.0519963
0.0502472
0.0486541
0.0471985
0.0458646
0.044639
0.0435099
0.0424674
0.0415028
0.0406084
0.0397782
0.0711141
0.0673433
0.0640144
0.0610588
0.058421
0.0560554
0.0539246
0.0519975
0.0502482
0.0486548
0.0471988
0.0458645
0.0446383
0.0435087
0.0424656
0.0415003
0.0406051
0.0397741
0.0711142
0.0673436
0.0640153
0.0610604
0.0584231
0.056058
0.0539276
0.0520007
0.0502514
0.0486578
0.0472014
0.0458664
0.0446393
0.0435085
0.0424639
0.0414968
0.0405995
0.0397659
0.0711143
0.0673442
0.0640168
0.0610629
0.0584264
0.0560617
0.0539312
0.0520036
0.0502526
0.0486561
0.0471953
0.0458542
0.0446192
0.0434784
0.0424217
0.0414404
0.0405267
0.0396748
0.0711144
0.0673453
0.0640191
0.0610651
0.0584258
0.0560541
0.0539109
0.0519634
0.0501842
0.0485507
0.0470438
0.0456477
0.0443491
0.0431369
0.0420021
0.040937
0.0399352
0.0389921
0.071117
0.0673563
0.0640365
0.0610748
0.0584033
0.055966
0.0537193
0.0516308
0.0496771
0.0478421
0.0461145
0.0444863
0.0429518
0.0415068
0.0401475
0.038871
0.0376742
0.0365548
0.0713001
0.0680461
0.0653148
0.0629049
0.0606834
0.0585601
0.0565065
0.0545377
0.0526833
0.0509714
0.0494228
0.0480494
0.0468554
0.0458393
0.0449973
0.0443249
0.0438113
0.043451
0.0827912
0.0996088
0.117295
0.134223
0.149028
0.160949
0.169984
0.176545
0.181157
0.184327
0.186491
0.188006
0.18915
0.190143
0.191205
0.192581
0.194341
0.196506
0.474149
0.826392
1.06445
1.22898
1.32509
1.36727
1.3707
1.34805
1.30892
1.26012
1.20629
1.15051
1.09477
1.04034
0.989769
0.946913
0.90926
0.875417
0.0533808
0.0695202
0.0789542
0.0852791
0.0893407
0.0914991
0.0927674
0.0933348
0.0933769
0.0949968
0.0982039
0.102387
0.107351
0.112982
0.119205
0.125978
0.133323
0.141447
0.150464
0.160308
0.170963
0.182442
0.194796
0.208119
0.222567
0.238388
0.255972
0.275895
0.299032
0.326457
0.357862
0.388446
0.416167
0.438555
0.451933
0.45091
0.428049
0.375958
0.295899
0.208296
0.14273
0.109486
0.0992347
0.101294
0.111073
0.126201
0.138783
0.147892
0.15458
0.160665
0.168477
0.179705
0.194406
0.2044
0.208762
0.209455
0.207227
0.200359
0.191639
0.186886
0.189798
0.197311
0.206018
0.219805
0.24766
0.307317
0.414727
0.508264
0.57417
0.617457
0.641401
0.649534
0.645104
0.630933
0.609409
0.582521
0.551915
0.518936
0.484667
0.449966
0.415463
0.382558
0.351775
0.322977
0.296076
0.270999
0.247684
0.226069
0.206097
0.187713
0.170866
0.155521
0.141062
0.127039
0.113515
0.100567
0.0882848
0.0767782
0.0661815
0.0566632
0.0484448
0.0418555
0.0374845
0.0366472
0.0418022
0.0498924
0.0590611
0.069026
0.0795966
0.0905938
0.101841
0.113168
0.124412
0.13543
0.146109
0.15645
0.16707
0.17836
0.190067
0.200659
0.20737
0.209476
0.206574
0.198816
0.187191
0.173721
0.160977
0.149849
0.140855
0.134177
0.129638
0.126838
0.125317
0.124669
0.124598
0.124912
0.125509
0.126366
0.127578
0.129367
0.132199
0.136877
0.144502
0.155943
0.171096
0.189285
0.210607
0.242075
0.328036
0.485993
0.610672
0.699825
0.757538
0.79029
0.804531
0.806482
0.800015
0.784571
0.760933
0.728771
0.686993
0.634507
0.571784
0.506861
0.488508
0.484364
0.482022
0.482147
0.485289
0.491561
0.500775
0.512576
0.526518
0.542001
0.558544
0.576116
0.588662
0.58657
0.561723
0.497439
0.0789745
0.0526624
0.0549171
0.0572879
0.0654356
0.0867724
0.0981918
0.10261
0.103725
0.103351
0.102445
0.101795
0.101956
0.103199
0.105545
0.108859
0.112914
0.117437
0.122144
0.126747
0.13098
0.134594
0.137371
0.139122
0.139695
0.138988
0.136971
0.133669
0.129264
0.124522
0.121519
0.125411
0.136942
0.15549
0.179605
0.207607
0.23765
0.267965
0.299541
0.336639
0.373262
0.385418
0.354274
0.289937
0.225943
0.184286
0.162089
0.150841
0.148113
0.155859
0.174023
0.200286
0.227021
0.241998
0.237265
0.216743
0.191385
0.173043
0.168277
0.186308
0.239664
0.329303
0.412973
0.431335
0.408867
0.385767
0.363851
0.336212
0.30458
0.271536
0.239016
0.208426
0.180739
0.156577
0.136263
0.119878
0.107311
0.0983195
0.0925651
0.0896302
0.0890658
0.089285
0.0894872
0.0896355
0.0897049
0.0896745
0.0895231
0.0892245
0.0887435
0.088034
0.0870372
0.085683
0.0838937
0.0815979
0.0787413
0.0752978
0.0712829
0.0667613
0.0618463
0.0566882
0.0514528
0.0462989
0.0413723
0.036778
0.0329689
0.0299432
0.0273266
0.025097
0.0232289
0.0216924
0.0204559
0.0194878
0.018758
0.0182386
0.0179061
0.017745
0.0177593
0.0179836
0.018578
0.0205171
0.0250822
0.0310023
0.0370386
0.0423076
0.0463195
0.049033
0.0507253
0.0517717
0.0525522
0.0533948
0.0545527
0.0561937
0.0583857
0.0610783
0.0640979
0.067171
0.0699801
0.0722478
0.0738283
0.074932
0.0764527
0.0804051
0.0907615
0.113469
0.156402
0.24126
0.392632
0.561123
0.639461
0.693164
0.757303
0.829148
0.900787
0.966093
1.02292
1.07225
1.11613
1.1574
1.19475
1.22364
1.23629
1.22323
1.17631
1.09348
1.00684
0.919194
0.834871
0.757631
0.688729
0.627885
0.574127
0.5263
0.483336
0.44437
0.408724
0.375873
0.347323
0.325981
0.313502
0.313654
0.0778609
0.0423009
0.0455443
0.0666025
0.0984447
0.107511
0.107408
0.106411
0.106265
0.107059
0.109084
0.112696
0.118005
0.124721
0.132294
0.140155
0.14784
0.154997
0.161407
0.166887
0.171326
0.174629
0.176713
0.177509
0.17695
0.174989
0.171617
0.166897
0.160963
0.154005
0.146408
0.138698
0.13165
0.127185
0.127577
0.133668
0.144998
0.160755
0.181477
0.210027
0.24817
0.291076
0.324884
0.330054
0.299946
0.251046
0.203532
0.166769
0.142929
0.134381
0.143491
0.166739
0.198796
0.228932
0.241889
0.231861
0.211767
0.20841
0.244682
0.329391
0.418347
0.424564
0.379086
0.329814
0.285473
0.248443
0.216118
0.186839
0.16136
0.140423
0.124296
0.112723
0.105065
0.100514
0.0982792
0.0976934
0.0982261
0.0994627
0.101085
0.102861
0.104542
0.105918
0.106993
0.107789
0.108336
0.108665
0.108799
0.108742
0.108481
0.107974
0.107149
0.105911
0.104139
0.101708
0.0985017
0.0944417
0.0895111
0.083774
0.0773788
0.0705439
0.0635228
0.0565628
0.0498686
0.0436009
0.0385142
0.0342321
0.0304805
0.0272164
0.0243917
0.0219558
0.0198591
0.0180558
0.0165048
0.0151702
0.0140217
0.013034
0.012187
0.011465
0.0108592
0.0103711
0.0100267
0.0100066
0.0105046
0.011451
0.0126483
0.0138491
0.0148553
0.0155738
0.0160155
0.0162633
0.0164369
0.0166668
0.0170786
0.0177826
0.0188665
0.0203897
0.0223846
0.0248824
0.0279975
0.0321404
0.0385564
0.0505596
0.0750333
0.123937
0.21965
0.39142
0.613767
0.733724
0.77069
0.853625
0.965114
1.06603
1.13774
1.18405
1.21567
1.23972
1.26038
1.28107
1.30146
1.31744
1.32024
1.29831
1.24064
1.15286
1.05975
0.964298
0.873394
0.791034
0.718329
0.654705
0.598885
0.549476
0.505256
0.465241
0.428714
0.395289
0.364124
0.334343
0.306049
0.282417
0.0591484
0.0402349
0.084506
0.117977
0.117632
0.117081
0.120963
0.126442
0.130713
0.134175
0.138137
0.142766
0.147882
0.153209
0.158486
0.163515
0.16817
0.17234
0.176025
0.179146
0.181705
0.183647
0.18485
0.1853
0.184863
0.183408
0.180836
0.177072
0.172081
0.165869
0.158573
0.150536
0.142273
0.134366
0.127569
0.123398
0.12305
0.126546
0.133905
0.146357
0.166089
0.194153
0.227456
0.256067
0.266767
0.25433
0.226319
0.194998
0.169358
0.154457
0.155482
0.174987
0.209149
0.24936
0.27761
0.281315
0.281164
0.313294
0.378231
0.413658
0.378091
0.320198
0.26701
0.224781
0.191909
0.166356
0.146516
0.131831
0.122084
0.116588
0.114299
0.114151
0.115332
0.117325
0.119806
0.122534
0.125303
0.127936
0.130293
0.132282
0.133586
0.134157
0.134093
0.133521
0.132585
0.131427
0.130169
0.128898
0.127655
0.126429
0.125151
0.123694
0.12188
0.119495
0.116315
0.112145
0.106865
0.100469
0.0930843
0.0849622
0.0764327
0.0678419
0.0594885
0.0517892
0.0455833
0.0401591
0.0354106
0.0312914
0.0277418
0.0246964
0.02209
0.0198613
0.0179547
0.0163217
0.0149204
0.0137156
0.0126783
0.0117851
0.0110173
0.0103601
0.00980166
0.00933403
0.00896342
0.00871025
0.00857931
0.00855662
0.00861081
0.00870686
0.00882157
0.00895093
0.00910879
0.00932196
0.00962621
0.0100654
0.010694
0.0115843
0.0128456
0.0146754
0.0174916
0.0222459
0.0311579
0.0492887
0.0871769
0.1644
0.310462
0.53643
0.739923
0.803169
0.870683
0.999537
1.12952
1.2211
1.27131
1.29256
1.29543
1.28597
1.27122
1.25709
1.24605
1.23626
1.21983
1.18467
1.11988
1.03866
0.950456
0.862015
0.779944
0.707544
0.645273
0.592009
0.546086
0.505878
0.470046
0.437592
0.407844
0.380395
0.354952
0.331209
0.308193
0.286007
0.0808613
0.0788058
0.115258
0.116281
0.127902
0.144001
0.152001
0.153861
0.153835
0.154467
0.156241
0.15873
0.161434
0.164031
0.16636
0.168371
0.170079
0.171531
0.172789
0.173922
0.174978
0.175982
0.176913
0.177696
0.178191
0.178176
0.177441
0.175758
0.17296
0.168977
0.163824
0.157617
0.150551
0.142889
0.134994
0.127485
0.12153
0.118552
0.118936
0.122735
0.130563
0.14364
0.162472
0.1846
0.203624
0.21244
0.208731
0.196446
0.182633
0.174591
0.178716
0.201893
0.243528
0.29793
0.345605
0.37276
0.395241
0.401433
0.379803
0.333061
0.276805
0.228309
0.191735
0.165503
0.147375
0.135798
0.129673
0.127988
0.129557
0.133173
0.137938
0.143332
0.149046
0.154827
0.160412
0.165536
0.16996
0.173487
0.175975
0.177356
0.17707
0.175296
0.17226
0.16826
0.163638
0.158746
0.153906
0.14938
0.145346
0.141883
0.138964
0.136454
0.134123
0.131657
0.128693
0.124865
0.119876
0.11357
0.105971
0.0972961
0.0879048
0.0782178
0.0686064
0.0601165
0.0528764
0.0464206
0.0407402
0.0357976
0.031532
0.027872
0.0247434
0.0220742
0.0197981
0.0178559
0.0161958
0.0147735
0.0135517
0.0124992
0.0115902
0.010804
0.010124
0.00953748
0.00903502
0.00861137
0.0082657
0.00799469
0.00779496
0.00766332
0.00759788
0.0075995
0.00767301
0.00782798
0.00807999
0.0084535
0.00898849
0.00975542
0.0108904
0.0126791
0.0157501
0.0215109
0.0331159
0.0574428
0.108431
0.211096
0.395467
0.635177
0.790566
0.845123
0.956197
1.11065
1.23907
1.3157
1.34743
1.34643
1.32096
1.27783
1.22678
1.17648
1.13264
1.09609
1.06039
1.01296
0.94854
0.873839
0.79332
0.714777
0.644238
0.584345
0.534969
0.494485
0.460831
0.43211
0.406832
0.383945
0.362764
0.342888
0.324148
0.306494
0.289953
0.274106
0.102877
0.0988269
0.124903
0.159082
0.17222
0.17203
0.169508
0.168646
0.168707
0.168698
0.168341
0.167588
0.166485
0.165223
0.163951
0.162763
0.161728
0.160895
0.160307
0.160004
0.160018
0.160371
0.161062
0.162058
0.163276
0.164561
0.165661
0.166233
0.165854
0.164225
0.161165
0.156747
0.151227
0.144947
0.138184
0.131107
0.124035
0.117918
0.114173
0.113592
0.11614
0.121617
0.130282
0.142246
0.156048
0.168377
0.176031
0.178454
0.178802
0.183782
0.201127
0.236783
0.294192
0.371552
0.444359
0.46985
0.415436
0.352553
0.297877
0.247161
0.205065
0.174314
0.153961
0.142083
0.137047
0.13745
0.141904
0.149084
0.157931
0.167768
0.178179
0.188825
0.199353
0.209388
0.218572
0.226573
0.233091
0.237851
0.2406
0.241094
0.23867
0.233676
0.226409
0.217323
0.207
0.196089
0.18523
0.174994
0.165816
0.157969
0.151539
0.146433
0.14239
0.139012
0.135797
0.132192
0.127674
0.121875
0.114642
0.106071
0.0964851
0.0863312
0.0762305
0.0674529
0.0594431
0.0522166
0.0458025
0.0401814
0.0353025
0.0310978
0.0274921
0.0244101
0.0217802
0.019537
0.0176219
0.0159841
0.0145798
0.0133719
0.0123294
0.0114263
0.0106416
0.00995786
0.00936121
0.0088414
0.00839305
0.0080149
0.00770539
0.00746473
0.00729507
0.00720076
0.00718892
0.00727029
0.00746094
0.0077859
0.00828777
0.00904676
0.0102286
0.0121954
0.0157524
0.0226931
0.0369811
0.0670768
0.12979
0.253836
0.461636
0.688308
0.805396
0.877788
1.02251
1.18703
1.30728
1.37084
1.3882
1.36889
1.31982
1.24902
1.16833
1.08874
1.01865
0.960806
0.910706
0.856901
0.796458
0.727196
0.653955
0.583892
0.522536
0.472249
0.432706
0.402089
0.37813
0.358747
0.3423
0.32763
0.31398
0.300891
0.28815
0.27572
0.26408
0.252994
0.114601
0.139054
0.187207
0.192909
0.190991
0.18891
0.185748
0.181661
0.177125
0.172387
0.1676
0.162885
0.158295
0.154059
0.150461
0.147501
0.145144
0.143346
0.142071
0.141304
0.141054
0.141343
0.142194
0.143608
0.145542
0.147884
0.150436
0.15289
0.154805
0.155595
0.154663
0.151793
0.147138
0.141209
0.134698
0.128159
0.121782
0.115658
0.110485
0.107301
0.107012
0.109431
0.11373
0.119653
0.127527
0.137165
0.14751
0.157829
0.169873
0.189639
0.224967
0.277848
0.356322
0.459004
0.517965
0.44018
0.341354
0.27604
0.227775
0.191108
0.165267
0.149542
0.142468
0.142431
0.147878
0.15732
0.169483
0.18345
0.198605
0.214459
0.230532
0.246335
0.261419
0.275405
0.287975
0.29884
0.307693
0.314204
0.318049
0.318015
0.314004
0.306126
0.294641
0.28008
0.26322
0.245015
0.226493
0.208642
0.192293
0.178042
0.1662
0.156779
0.149523
0.143972
0.139522
0.135469
0.131053
0.125682
0.119007
0.110905
0.101601
0.0915123
0.081963
0.0729903
0.064605
0.0569452
0.0500743
0.0439966
0.0386777
0.0340603
0.030076
0.0266528
0.0237199
0.021211
0.0190654
0.017229
0.0156544
0.0143006
0.0131327
0.012121
0.0112408
0.0104717
0.00979725
0.00920456
0.00868376
0.00823119
0.00784398
0.00752191
0.00726734
0.00708546
0.00698482
0.00697844
0.00708593
0.00733787
0.00778589
0.00852671
0.00975949
0.0119171
0.0159564
0.0239973
0.0406938
0.0758669
0.148625
0.288878
0.506163
0.710905
0.808992
0.900123
1.06219
1.23005
1.34232
1.39659
1.40395
1.37168
1.30624
1.2164
1.11535
1.01601
0.928463
0.855841
0.796703
0.742374
0.68449
0.620592
0.553963
0.490599
0.435566
0.391231
0.35743
0.332494
0.314233
0.300566
0.28981
0.280727
0.272462
0.264441
0.256332
0.248003
0.239736
0.231884
0.165103
0.201233
0.217268
0.213867
0.206379
0.197847
0.188767
0.179475
0.170368
0.161744
0.153812
0.146733
0.140617
0.135229
0.130943
0.127701
0.125329
0.123679
0.122634
0.12212
0.122107
0.122613
0.12369
0.125413
0.127848
0.131012
0.134809
0.138954
0.142942
0.146092
0.147639
0.14675
0.143082
0.136958
0.129311
0.121359
0.114077
0.107806
0.10257
0.0988788
0.0971184
0.0979474
0.100804
0.104619
0.109422
0.116362
0.126548
0.140896
0.161962
0.195891
0.24933
0.324312
0.424985
0.519701
0.478402
0.351623
0.268827
0.217397
0.183126
0.160671
0.148248
0.144591
0.148232
0.157615
0.17129
0.188085
0.207158
0.227852
0.249528
0.271498
0.293082
0.313716
0.332999
0.350673
0.366521
0.380276
0.391553
0.399855
0.404676
0.404308
0.399084
0.388807
0.373564
0.353823
0.330429
0.304553
0.277574
0.25094
0.225989
0.203782
0.18498
0.169794
0.15798
0.148992
0.142143
0.13667
0.131608
0.126152
0.119838
0.112206
0.103383
0.094276
0.0852332
0.0763881
0.0680012
0.0602466
0.0532145
0.0469316
0.0413812
0.0365204
0.0322916
0.0286314
0.0254749
0.0227598
0.0204275
0.0184246
0.0167033
0.0152213
0.0139417
0.0128329
0.0118679
0.0110243
0.0102834
0.00963013
0.00905239
0.00854332
0.00809827
0.00771529
0.00739538
0.0071428
0.00696577
0.00687792
0.00690087
0.00706961
0.00744425
0.00813743
0.00937869
0.0116609
0.0160647
0.0249722
0.0435893
0.0828113
0.163331
0.3141
0.531211
0.715884
0.808321
0.913635
1.07899
1.23943
1.34612
1.39662
1.39933
1.36018
1.28603
1.18585
1.07295
0.962398
0.864827
0.784901
0.720485
0.664332
0.608858
0.550181
0.489534
0.4315
0.380686
0.339599
0.308432
0.285862
0.269962
0.258828
0.250861
0.244826
0.239798
0.23508
0.230182
0.224813
0.219022
0.213101
0.23938
0.241569
0.239473
0.226704
0.211197
0.195505
0.180426
0.166317
0.15349
0.142194
0.132574
0.124671
0.118426
0.113696
0.110082
0.107589
0.105973
0.105054
0.104703
0.104833
0.105387
0.106341
0.107709
0.109567
0.112066
0.115423
0.119813
0.12519
0.131102
0.136713
0.141017
0.143039
0.141794
0.136596
0.128089
0.117786
0.107586
0.0989115
0.0922488
0.0876568
0.0854966
0.0854281
0.0876167
0.0910832
0.0951772
0.101026
0.111033
0.128065
0.156434
0.202114
0.267606
0.352791
0.456465
0.494103
0.385883
0.277889
0.216019
0.179872
0.158565
0.147988
0.146432
0.152518
0.164787
0.181876
0.202703
0.226441
0.252326
0.279485
0.306917
0.333654
0.358972
0.382497
0.404142
0.423933
0.441826
0.457579
0.470697
0.480441
0.485823
0.485895
0.480627
0.469497
0.452316
0.429339
0.401291
0.369327
0.334952
0.299923
0.266097
0.235162
0.208365
0.186367
0.169035
0.155643
0.145361
0.137491
0.130931
0.124647
0.118235
0.11078
0.102944
0.0946386
0.0861042
0.0776556
0.0695573
0.0619923
0.0550646
0.0488156
0.043243
0.038317
0.0339925
0.0302164
0.0269332
0.0240879
0.0216277
0.0195032
0.0176692
0.0160847
0.0147133
0.0135229
0.0124859
0.0115784
0.0107807
0.0100763
0.00945192
0.00889813
0.00840861
0.00797966
0.0076106
0.00730415
0.0070673
0.00691298
0.00686314
0.00695492
0.00725385
0.00788391
0.00909672
0.0114282
0.0160465
0.0255185
0.045432
0.0874008
0.172945
0.328821
0.540537
0.710531
0.803231
0.914903
1.07435
1.22446
1.32547
1.37319
1.3738
1.3331
1.25756
1.15598
1.04181
0.927866
0.824914
0.738995
0.669688
0.611961
0.558859
0.50503
0.449587
0.3957
0.347583
0.307979
0.277499
0.255221
0.239546
0.228806
0.221559
0.216638
0.213092
0.210125
0.20708
0.203501
0.199205
0.194292
0.321287
0.268007
0.253264
0.230298
0.206532
0.184529
0.164754
0.147464
0.132799
0.120772
0.111263
0.104061
0.0989042
0.0955225
0.0932479
0.0917587
0.0908314
0.0903536
0.0902939
0.0906747
0.0915363
0.0928886
0.0946692
0.0967787
0.0992206
0.102248
0.106368
0.11203
0.119146
0.126919
0.134127
0.139479
0.141803
0.139947
0.132723
0.121254
0.107861
0.0952114
0.0850646
0.0780233
0.0741853
0.073466
0.0751755
0.0786742
0.0830785
0.0891
0.0996775
0.119303
0.15373
0.207211
0.277442
0.364443
0.447799
0.421877
0.304633
0.224741
0.181341
0.158224
0.147759
0.146959
0.154251
0.168261
0.187715
0.211581
0.239002
0.269054
0.300547
0.332066
0.362279
0.390302
0.415848
0.439104
0.460445
0.48016
0.498293
0.514575
0.528436
0.539063
0.545054
0.546358
0.542201
0.531755
0.514579
0.49076
0.460929
0.426148
0.387776
0.34743
0.307069
0.268806
0.234457
0.205492
0.182364
0.164165
0.149828
0.13881
0.130056
0.122273
0.115184
0.108114
0.100695
0.0929142
0.0849478
0.0770396
0.0694164
0.062246
0.0556297
0.0496131
0.0442014
0.0393743
0.035097
0.031327
0.0280188
0.0251265
0.0226051
0.020412
0.0185067
0.0168519
0.0154136
0.0141612
0.0130676
0.0121091
0.0112655
0.0105198
0.00985786
0.00926874
0.00874443
0.00827993
0.00787311
0.00752522
0.00724185
0.00703471
0.00692508
0.00695049
0.00717895
0.00774058
0.00889944
0.0112153
0.0159035
0.0256261
0.0461581
0.0894306
0.177081
0.3334
0.537557
0.697962
0.792421
0.903762
1.05209
1.19062
1.28591
1.33194
1.33295
1.29447
1.22269
1.12555
1.01473
0.901589
0.796615
0.706865
0.634185
0.57577
0.525203
0.475732
0.424552
0.373656
0.327043
0.287762
0.256849
0.23375
0.217151
0.205602
0.197811
0.19269
0.189291
0.186751
0.184285
0.181312
0.177487
0.172983
0.408587
0.281969
0.25687
0.225383
0.195465
0.169476
0.14755
0.12967
0.115607
0.104969
0.0972667
0.0919765
0.0886002
0.0866991
0.0857905
0.0850432
0.0842953
0.0835016
0.0827149
0.0821043
0.0819603
0.0826108
0.0841998
0.0865171
0.0891407
0.0918592
0.0951617
0.100107
0.10734
0.116414
0.126059
0.134754
0.141051
0.143519
0.140692
0.131019
0.116201
0.0997781
0.0850687
0.074044
0.0672545
0.0648065
0.0658369
0.0693015
0.0741893
0.0809447
0.0927627
0.115163
0.154046
0.210452
0.279826
0.361532
0.409446
0.342793
0.245407
0.188638
0.159883
0.147351
0.145824
0.153042
0.167563
0.188172
0.213858
0.243724
0.276691
0.31125
0.345548
0.377857
0.40711
0.433104
0.456277
0.477311
0.49679
0.51504
0.53209
0.547678
0.561242
0.571936
0.578732
0.581414
0.57876
0.569635
0.553316
0.529739
0.49958
0.464072
0.424622
0.382538
0.339426
0.297443
0.258264
0.223804
0.195788
0.17326
0.154985
0.140533
0.129216
0.119903
0.11185
0.104387
0.0970519
0.0896557
0.0822256
0.0749026
0.0678498
0.0611995
0.0550357
0.0493969
0.0442886
0.0396947
0.0355873
0.0319327
0.0286945
0.0258361
0.0233213
0.0211148
0.019183
0.0174937
0.0160169
0.0147249
0.0135925
0.0125973
0.0117196
0.0109423
0.0102516
0.00963508
0.00908398
0.00859228
0.00815663
0.00777697
0.00745747
0.00720842
0.00704985
0.00701845
0.0071823
0.00767302
0.0087581
0.0110027
0.0156288
0.0253029
0.0457869
0.0889231
0.175858
0.328789
0.524712
0.679318
0.775346
0.881817
1.01632
1.14265
1.23219
1.27732
1.28048
1.24663
1.18143
1.09144
0.986431
0.87665
0.772192
0.680966
0.606924
0.549178
0.501521
0.455873
0.407914
0.358894
0.312844
0.273181
0.241314
0.216964
0.199014
0.186156
0.177197
0.171105
0.166945
0.163829
0.160941
0.157695
0.153787
0.149586
0.501041
0.284673
0.251483
0.214805
0.181859
0.154757
0.133336
0.117179
0.105619
0.0978619
0.0930665
0.0904268
0.0892171
0.088829
0.0888289
0.0885131
0.0877393
0.086441
0.0845528
0.0821334
0.0795686
0.0776672
0.0772695
0.0786147
0.0811543
0.0838593
0.08638
0.0899498
0.0961912
0.105421
0.116563
0.127991
0.138138
0.145392
0.147859
0.143588
0.130956
0.112668
0.0936065
0.0777751
0.0670534
0.0617801
0.0615653
0.0646943
0.0698586
0.0774597
0.0908768
0.11585
0.156903
0.211888
0.27765
0.346238
0.356426
0.277159
0.203904
0.164798
0.147361
0.143344
0.149107
0.162852
0.183328
0.209537
0.24057
0.275278
0.311933
0.348288
0.38218
0.412264
0.438309
0.460908
0.480948
0.499204
0.516179
0.532111
0.547039
0.5608
0.572963
0.582759
0.589757
0.593254
0.591905
0.584305
0.569329
0.546572
0.516636
0.481052
0.44175
0.399937
0.356655
0.314345
0.274065
0.236862
0.205997
0.180514
0.159535
0.142384
0.128476
0.117223
0.107931
0.0998717
0.0924518
0.0853229
0.0783693
0.0716236
0.0651748
0.059108
0.0534792
0.0483119
0.0436051
0.0393425
0.0354995
0.0320483
0.0289603
0.026207
0.0237604
0.0215933
0.0196789
0.0179913
0.0165054
0.0151975
0.0140454
0.0130287
0.0121293
0.0113308
0.0106201
0.00998389
0.00941337
0.00890173
0.00844473
0.00804117
0.00769387
0.00741165
0.00721283
0.00713234
0.00723636
0.00765405
0.00864824
0.0107727
0.0152193
0.0245756
0.0444039
0.0860861
0.169778
0.316196
0.503612
0.65504
0.752225
0.851326
0.970857
1.08463
1.16816
1.21266
1.21883
1.19073
1.1332
1.05139
0.953476
0.848715
0.746844
0.656504
0.583427
0.528
0.483715
0.441274
0.395431
0.347263
0.301108
0.26076
0.227884
0.202352
0.183133
0.168981
0.158742
0.15141
0.146079
0.141915
0.138204
0.134531
0.130809
0.127516
0.598874
0.27988
0.240731
0.202153
0.168863
0.142771
0.123449
0.110112
0.101752
0.0972618
0.0955175
0.0954608
0.0961598
0.0968746
0.0971401
0.0970378
0.0965942
0.0956439
0.0937765
0.0904653
0.0855867
0.080182
0.0760729
0.0744796
0.0755208
0.0778709
0.0798468
0.0819089
0.086332
0.0944874
0.105862
0.118913
0.132108
0.143946
0.152415
0.154832
0.148699
0.132883
0.111272
0.0904787
0.0748133
0.0658959
0.0634853
0.0657274
0.0707737
0.0790726
0.0940178
0.120708
0.161232
0.212344
0.272668
0.321166
0.302566
0.228433
0.175253
0.14928
0.140547
0.143303
0.154912
0.173923
0.199311
0.230203
0.265519
0.303509
0.341664
0.37734
0.408728
0.435375
0.457912
0.477394
0.494755
0.510585
0.525161
0.538558
0.550769
0.56171
0.57117
0.578732
0.584283
0.587083
0.58598
0.579449
0.565957
0.544564
0.515456
0.480108
0.441392
0.400792
0.358454
0.31743
0.2788
0.243213
0.211712
0.184581
0.161565
0.142272
0.126399
0.113585
0.103249
0.0946596
0.0871445
0.080243
0.0737289
0.0675415
0.0616995
0.0562391
0.0511841
0.0465387
0.0422917
0.0384229
0.0349084
0.0317242
0.028847
0.0262553
0.0239283
0.021846
0.0199885
0.0183361
0.0168693
0.0155688
0.0144161
0.0133936
0.0124851
0.0116758
0.0109534
0.010305
0.0097218
0.00919667
0.00872478
0.00830401
0.00793601
0.00762802
0.0073964
0.00727354
0.00732202
0.00766517
0.00855432
0.0105174
0.0146849
0.0234947
0.0421537
0.0812708
0.15961
0.296914
0.475357
0.625309
0.723689
0.81464
0.919027
1.01999
1.09703
1.14063
1.14987
1.12764
1.07783
1.00435
0.914066
0.815423
0.717887
0.630795
0.561163
0.509746
0.469151
0.42913
0.384263
0.336083
0.289459
0.24848
0.214897
0.188584
0.168506
0.153411
0.142149
0.133736
0.127331
0.122234
0.117947
0.114274
0.111263
0.109234
0.711187
0.273285
0.229112
0.190796
0.158492
0.134097
0.116988
0.106142
0.100367
0.09836
0.0987591
0.100247
0.10172
0.102603
0.102817
0.10301
0.103308
0.103688
0.10369
0.102066
0.0971299
0.0891741
0.0811468
0.075485
0.0734136
0.0742591
0.075484
0.0761915
0.0785022
0.0846039
0.0947688
0.107846
0.122566
0.137779
0.151879
0.162146
0.164745
0.156752
0.138098
0.113903
0.0923274
0.0781632
0.0721896
0.0727793
0.0771079
0.0856804
0.101616
0.128469
0.166125
0.212896
0.264716
0.290558
0.256026
0.193609
0.155464
0.139179
0.137092
0.145126
0.161311
0.184495
0.213847
0.248481
0.286897
0.326599
0.364506
0.398108
0.426404
0.449874
0.469732
0.487162
0.50293
0.517328
0.530287
0.541571
0.550966
0.558384
0.563895
0.567571
0.569562
0.569609
0.566969
0.560212
0.54758
0.527656
0.500068
0.465458
0.427594
0.388762
0.349815
0.311687
0.275159
0.241145
0.21041
0.183234
0.159524
0.139186
0.122231
0.108526
0.0976015
0.088751
0.0812709
0.0746431
0.0685738
0.062937
0.0576955
0.0528425
0.048371
0.0442658
0.0405044
0.0370613
0.0339117
0.0310334
0.0284074
0.0260172
0.023848
0.0218861
0.020118
0.0185296
0.0171068
0.015835
0.0146995
0.013686
0.0127807
0.0119708
0.0112449
0.0105914
0.0100018
0.00946891
0.00898774
0.00855551
0.00817285
0.00784549
0.00758762
0.0074285
0.00742581
0.00769428
0.0084681
0.0102378
0.0140478
0.0221326
0.0392261
0.0749284
0.146291
0.2723
0.440809
0.590152
0.69043
0.773905
0.863701
0.951662
1.02148
1.06346
1.0752
1.05832
1.01566
0.950133
0.867572
0.775804
0.684213
0.602774
0.539046
0.493058
0.456092
0.417455
0.372445
0.323629
0.276493
0.235235
0.201481
0.17497
0.154591
0.139062
0.12723
0.118146
0.111072
0.105476
0.101054
0.097717
0.0954703
0.0944147
0.840512
0.282355
0.221966
0.184022
0.152449
0.129048
0.113162
0.103548
0.0989777
0.0981426
0.0995555
0.101616
0.103241
0.104398
0.105067
0.105534
0.106189
0.107365
0.109063
0.11038
0.108264
0.10047
0.0900431
0.0808446
0.0751556
0.0734339
0.0732748
0.0727617
0.07322
0.0769522
0.0848092
0.0961671
0.110271
0.126587
0.144235
0.161419
0.174338
0.17787
0.168643
0.148151
0.12227
0.101066
0.089262
0.0866668
0.0892016
0.0972017
0.112865
0.137791
0.171579
0.213667
0.253151
0.258909
0.218828
0.169295
0.141681
0.132422
0.135319
0.147334
0.166968
0.193335
0.225757
0.263214
0.303665
0.34393
0.380688
0.411923
0.437521
0.458693
0.476973
0.493529
0.508916
0.523105
0.535616
0.545751