/*--------------------------------*- C++ -*----------------------------------*\
| =========                 |                                                 |
| \\      /  F ield         | OpenFOAM: The Open Source CFD Toolbox           |
|  \\    /   O peration     | Version:  2112                                  |
|   \\  /    A nd           | Website:  www.openfoam.com                      |
|    \\/     M anipulation  |                                                 |
\*---------------------------------------------------------------------------*/
FoamFile
{
    version     2.0;
    format      ascii;
    arch        "LSB;label=32;scalar=64";
    class       volScalarField;
    location    "0.16";
    object      k;
}
// * * * * * * * * * * * * * * * * * * * * * * * * * * * * * * * * * * * * * //

dimensions      [0 2 -2 0 0 0 0];

internalField   nonuniform List<scalar> 
12225
(
1.81963
3.16272
4.5266
6.03015
7.75693
9.73845
11.9536
14.3371
16.7972
19.2351
21.5662
23.7321
25.7018
27.4692
29.0391
30.4497
31.5572
32.1742
0.530928
0.644073
0.7958
0.989975
1.22987
1.5194
1.86741
2.28894
2.79966
3.41284
4.12765
4.92896
5.79239
6.69363
7.61461
8.56207
9.60888
10.6354
0.474748
0.483575
0.493344
0.5061
0.524613
0.55148
0.589851
0.644106
0.71945
0.821846
0.956411
1.12648
1.3332
1.57653
1.85621
2.17943
2.5635
3.02025
0.470314
0.471321
0.471775
0.47182
0.471709
0.471664
0.472012
0.473376
0.476837
0.483855
0.496053
0.515031
0.542207
0.578971
0.626801
0.688325
0.767043
0.86809
0.469476
0.469775
0.469659
0.469197
0.46844
0.467407
0.466083
0.464536
0.462917
0.461449
0.4604
0.460064
0.460794
0.462887
0.466596
0.47243
0.481038
0.493025
0.46919
0.469448
0.46941
0.469136
0.468667
0.468015
0.467173
0.466158
0.465011
0.463789
0.462552
0.461362
0.460266
0.459313
0.458558
0.458087
0.458008
0.4584
0.46905
0.469298
0.469374
0.469278
0.46904
0.468683
0.4682
0.46761
0.466937
0.466208
0.465446
0.464673
0.463906
0.463163
0.462461
0.461828
0.461303
0.460915
0.468962
0.469187
0.469332
0.469365
0.469294
0.469126
0.468868
0.468544
0.468169
0.467756
0.467325
0.466884
0.466445
0.466017
0.465612
0.465238
0.464915
0.464662
0.468898
0.469086
0.469258
0.469377
0.469424
0.469393
0.469292
0.469137
0.468945
0.46873
0.468505
0.468278
0.468054
0.467838
0.467641
0.467469
0.467333
0.467237
0.468846
0.468994
0.469159
0.469318
0.469446
0.469524
0.469543
0.469511
0.469448
0.469369
0.469286
0.469203
0.469125
0.469056
0.469002
0.468975
0.468977
0.469008
0.468802
0.468909
0.469052
0.469216
0.469381
0.469526
0.469638
0.469714
0.469761
0.469791
0.469817
0.469844
0.469879
0.469924
0.469983
0.47006
0.470156
0.470267
0.468768
0.468837
0.468953
0.469105
0.469275
0.469447
0.469607
0.469747
0.46987
0.469981
0.470085
0.47019
0.4703
0.470418
0.470547
0.470688
0.470841
0.470999
0.468734
0.46877
0.468857
0.468989
0.469152
0.469329
0.469509
0.469686
0.469857
0.470023
0.470185
0.470347
0.470513
0.470683
0.47086
0.471044
0.471233
0.471421
0.468699
0.468695
0.468753
0.468859
0.469003
0.469171
0.469353
0.469543
0.469737
0.469934
0.470133
0.470334
0.470538
0.470744
0.470953
0.471165
0.471376
0.47158
0.468665
0.468615
0.468643
0.468721
0.46884
0.468989
0.469159
0.469344
0.469539
0.469742
0.469951
0.470165
0.470383
0.470603
0.470824
0.471044
0.471261
0.471467
0.468635
0.468539
0.468531
0.468586
0.46868
0.468805
0.468954
0.469121
0.469302
0.469494
0.469694
0.4699
0.470109
0.470321
0.470533
0.470742
0.470947
0.47114
0.468612
0.468477
0.468434
0.468467
0.46854
0.468642
0.468769
0.468915
0.469075
0.469246
0.469426
0.469611
0.469799
0.469989
0.470178
0.470364
0.470545
0.470715
0.468599
0.468439
0.468371
0.468383
0.468443
0.468529
0.468638
0.468765
0.468905
0.469054
0.469211
0.469372
0.469535
0.469698
0.46986
0.470018
0.47017
0.470313
0.468599
0.468437
0.468364
0.468371
0.468425
0.468505
0.468606
0.468721
0.468846
0.468979
0.469116
0.469255
0.469394
0.46953
0.469663
0.469791
0.469912
0.470024
0.468616
0.468482
0.468434
0.468456
0.468517
0.468602
0.468705
0.468819
0.468938
0.469059
0.469178
0.469294
0.469404
0.469508
0.469603
0.469691
0.46977
0.469839
0.468644
0.468553
0.468538
0.46858
0.46865
0.468743
0.468847
0.468954
0.469058
0.469154
0.469239
0.469311
0.46937
0.469416
0.469452
0.469477
0.469495
0.469504
0.468683
0.468644
0.468665
0.468719
0.468797
0.468886
0.468973
0.469047
0.469102
0.469133
0.469141
0.469127
0.469098
0.469057
0.469007
0.46895
0.468887
0.468821
0.468732
0.468746
0.468789
0.468847
0.468906
0.468954
0.468977
0.468969
0.468927
0.468853
0.46875
0.468621
0.468474
0.468316
0.468149
0.467978
0.467803
0.467628
0.468789
0.468847
0.468896
0.468918
0.468909
0.468863
0.468772
0.46863
0.46844
0.468211
0.467951
0.467663
0.46735
0.467022
0.466682
0.466335
0.465985
0.465638
0.468859
0.468955
0.468973
0.468903
0.46876
0.468549
0.46827
0.467922
0.467508
0.467035
0.466512
0.465948
0.465352
0.46473
0.464093
0.463447
0.462799
0.462163
0.46898
0.469115
0.469067
0.468856
0.468499
0.468009
0.467396
0.466664
0.465824
0.464888
0.463872
0.462793
0.461667
0.460513
0.459355
0.458217
0.457129
0.45612
0.46931
0.469694
0.46975
0.469427
0.468784
0.467881
0.466759
0.465463
0.464042
0.462565
0.46112
0.459821
0.458816
0.458238
0.458214
0.458912
0.460521
0.4632
0.470914
0.474105
0.476718
0.478595
0.480261
0.482348
0.485496
0.490328
0.497426
0.507357
0.52075
0.538341
0.56092
0.589384
0.624721
0.667803
0.719416
0.780048
0.494313
0.53412
0.585996
0.652735
0.7359
0.835953
0.953108
1.08754
1.23962
1.41034
1.60183
1.81746
2.06068
2.33488
2.64319
2.98687
3.36548
3.77281
1.30089
2.11009
2.8752
3.64764
4.47513
5.38929
6.40776
7.53761
8.77745
10.1183
11.5445
13.0347
14.5645
16.1083
17.6407
19.1393
20.5839
21.9522
0.156786
0.16299
0.175446
0.193326
0.215844
0.242295
0.272096
0.304779
0.339958
0.377296
0.417303
0.460568
0.506425
0.554237
0.603651
0.654454
0.706486
0.759622
0.813777
0.868909
0.925015
0.982126
1.0403
1.09962
1.16019
1.2221
1.28546
1.35036
1.4169
1.48514
1.55515
1.62698
1.70064
1.77615
1.85351
1.93269
2.01367
2.09639
2.18082
2.26687
2.35448
2.44356
2.53403
2.62578
2.71872
2.81274
2.90773
3.00357
3.10015
3.19734
3.29502
3.39307
3.49137
3.58978
3.68818
3.78646
3.88448
3.98212
4.07927
4.17581
4.27163
4.3666
4.46063
4.5536
4.64541
4.73595
4.82513
4.91285
4.99901
5.08353
5.16631
5.24727
5.32633
5.4034
5.47841
5.55129
5.62197
5.69038
5.75646
5.82015
5.8814
5.94015
5.99635
6.04995
6.1009
6.14915
6.19466
6.23737
6.27725
6.31425
6.34832
6.37941
6.40748
6.43248
6.45435
6.47303
6.48843
6.50046
6.50897
6.51386
6.51588
6.51504
6.51133
6.50476
6.49533
6.48306
6.46797
6.45009
6.42944
6.40605
6.37994
6.35116
6.31972
6.28566
6.24902
6.2098
6.16806
6.1238
6.07706
6.02786
5.97623
5.92217
5.86572
5.80689
5.74571
5.68218
5.61633
5.54818
5.47776
5.40509
5.33021
5.25316
5.17399
5.09276
5.00955
4.92443
4.8375
4.74886
4.65862
4.56688
4.47375
4.37931
4.28364
4.18681
4.08885
3.98986
3.88998
3.78954
3.6892
3.59065
3.4989
3.41132
3.34176
3.30232
3.29928
3.33214
3.39359
3.46962
3.54982
3.63519
3.72217
3.80962
3.89695
3.98374
4.06967
4.1545
4.23801
4.32002
4.40041
4.47911
4.55613
4.63155
4.70555
4.77836
4.85027
4.92157
4.99309
5.06529
5.14782
5.21895
0.160432
0.165787
0.177321
0.1941
0.215295
0.240151
0.268044
0.298485
0.331111
0.365669
0.402046
0.440177
0.479824
0.520681
0.562465
0.604939
0.647912
0.691238
0.734806
0.778551
0.82244
0.866478
0.910694
0.955139
0.999875
1.04497
1.0905
1.13653
1.1831
1.23027
1.27805
1.32648
1.37555
1.42525
1.47556
1.52645
1.57789
1.62982
1.68221
1.73498
1.78809
1.84148
1.89508
1.94884
2.00269
2.05657
2.11041
2.16417
2.21777
2.27117
2.32431
2.37714
2.4296
2.48166
2.53326
2.58436
2.63493
2.68492
2.7343
2.78303
2.8311
2.87845
2.92508
2.97095
3.01604
3.06033
3.1038
3.14643
3.18819
3.22908
3.26908
3.30818
3.34636
3.38362
3.41995
3.45534
3.48979
3.5233
3.55586
3.58747
3.61814
3.64785
3.67662
3.70445
3.73134
3.75728
3.78229
3.80636
3.82951
3.85173
3.87303
3.89342
3.9129
3.93148
3.94916
3.96596
3.98188
3.99696
4.01126
4.02533
4.0388
4.05163
4.06382
4.07539
4.08634
4.09669
4.10646
4.11567
4.12432
4.13243
4.14001
4.14707
4.15362
4.15966
4.16519
4.1702
4.1747
4.17868
4.1821
4.18496
4.18722
4.18885
4.18981
4.19004
4.18949
4.18809
4.18576
4.18241
4.17795
4.17225
4.16521
4.15668
4.14652
4.13458
4.12068
4.10464
4.0863
4.06544
4.04187
4.01539
3.98578
3.95284
3.91636
3.87614
3.83201
3.78383
3.73156
3.6753
3.61549
3.55328
3.49117
3.43065
3.38162
3.35266
3.34854
3.36878
3.40805
3.45712
3.50755
3.55781
3.60615
3.65171
3.69403
3.73284
3.76795
3.79921
3.82656
3.84998
3.86953
3.88534
3.89763
3.90668
3.91286
3.91661
3.91844
3.91903
3.91943
3.92203
3.93253
3.96901
0.167675
0.171761
0.181963
0.197453
0.217308
0.240713
0.266991
0.295614
0.326177
0.358378
0.391985
0.426799
0.462607
0.499175
0.536273
0.57369
0.611249
0.648804
0.68625
0.723519
0.760579
0.797426
0.834087
0.870603
0.907031
0.943432
0.979865
1.01639
1.05305
1.08988
1.12692
1.16417
1.20164
1.23932
1.2772
1.31525
1.35345
1.39177
1.43017
1.46862
1.50709
1.54553
1.58391
1.6222
1.66037
1.69838
1.7362
1.77382
1.81121
1.84834
1.8852
1.92177
1.95804
1.99399
2.02961
2.06491
2.09986
2.13446
2.16871
2.20262
2.23616
2.26935
2.30218
2.33465
2.36676
2.39852
2.42991
2.46095
2.49162
2.52194
2.55191
2.58151
2.61077
2.63968
2.66824
2.69646
2.72435
2.7519
2.77913
2.80603
2.83261
2.85887
2.88483
2.91048
2.93582
2.96087
2.98563
3.0101
3.03428
3.05819
3.08184
3.10522
3.12836
3.15126
3.17395
3.19645
3.21879
3.24102
3.26339
3.2857
3.30785
3.32982
3.3516
3.37319
3.39458
3.41577
3.43677
3.45758
3.47818
3.49858
3.51877
3.53875
3.55851
3.57804
3.59733
3.61638
3.63517
3.65367
3.67188
3.68975
3.70728
3.72441
3.7411
3.75732
3.773
3.78809
3.8025
3.81615
3.82896
3.84082
3.8516
3.86117
3.86938
3.87607
3.88106
3.88416
3.88514
3.88378
3.87985
3.87308
3.86323
3.85003
3.83322
3.81256
3.78783
3.75889
3.72568
3.68836
3.64742
3.60385
3.55938
3.51597
3.47991
3.45734
3.45159
3.46209
3.48529
3.51553
3.54763
3.57944
3.60926
3.63611
3.65946
3.67898
3.69449
3.70588
3.71311
3.71621
3.71531
3.71059
3.70231
3.69078
3.67639
3.6596
3.64093
3.6211
3.6012
3.58367
3.57265
3.5806
0.176843
0.179431
0.188191
0.202311
0.220787
0.242763
0.267515
0.294475
0.323202
0.353354
0.384657
0.416875
0.449787
0.48318
0.516853
0.550619
0.58432
0.617826
0.651044
0.683912
0.716403
0.748516
0.780278
0.811729
0.842923
0.873918
0.904773
0.935542
0.966273
0.997003
1.02776
1.05857
1.08943
1.12035
1.15133
1.18235
1.21341
1.24448
1.27555
1.30662
1.33765
1.36863
1.39956
1.43042
1.46121
1.4919
1.52251
1.55302
1.58344
1.61377
1.64401
1.67416
1.70423
1.73422
1.76415
1.79402
1.82384
1.85361
1.88335
1.91306
1.94275
1.97243
2.00209
2.03174
2.06139
2.09103
2.12067
2.15031
2.17994
2.20957
2.23919
2.2688
2.2984
2.32799
2.35756
2.38711
2.41664
2.44615
2.47562
2.50506
2.53446
2.56382
2.59313
2.62239
2.65158
2.68072
2.7098
2.7388
2.76774
2.7966
2.8254
2.85413
2.8828
2.91141
2.93999
2.96855
2.99712
3.02575
3.05437
3.08289
3.11126
3.13946
3.16748
3.19528
3.22288
3.25024
3.27736
3.30423
3.33083
3.35715
3.38318
3.4089
3.4343
3.45936
3.48408
3.50844
3.53242
3.556
3.57918
3.60192
3.6242
3.646
3.66729
3.68803
3.70818
3.72769
3.74652
3.76461
3.78188
3.79827
3.81367
3.82801
3.84115
3.85299
3.86337
3.87214
3.87912
3.88413
3.88697
3.88741
3.88523
3.8802
3.87208
3.86065
3.84573
3.82718
3.805
3.77931
3.75058
3.71948
3.68697
3.6546
3.62676
3.60783
3.59992
3.60262
3.61364
3.62978
3.64809
3.66656
3.68354
3.69799
3.70934
3.71727
3.72161
3.72227
3.71923
3.71253
3.7023
3.68872
3.67202
3.6525
3.6305
3.60643
3.58079
3.55428
3.52795
3.50408
3.48564
3.48018
0.188352
0.188472
0.195638
0.20832
0.22539
0.245946
0.269231
0.294645
0.321718
0.350082
0.379435
0.409523
0.440122
0.471028
0.502053
0.533034
0.56383
0.594329
0.624451
0.654146
0.683392
0.712197
0.740586
0.768603
0.796302
0.82374
0.850977
0.878067
0.90506
0.931998
0.958915
0.985836
1.01278
1.03976
1.06678
1.09386
1.12098
1.14815
1.17538
1.20265
1.22998
1.25737
1.28483
1.31235
1.33995
1.36763
1.39542
1.42331
1.45132
1.47948
1.50778
1.53626
1.56491
1.59376
1.62281
1.65209
1.6816
1.71135
1.74135
1.77161
1.80214
1.83292
1.86397
1.89528
1.92685
1.95867
1.99074
2.02304
2.05556
2.0883
2.12124
2.15437
2.18768
2.22115
2.25477
2.28852
2.3224
2.35639
2.39047
2.42463
2.45886
2.49313
2.52743
2.56176
2.59609
2.63042
2.66473
2.69903
2.73329
2.76751
2.80169
2.83582
2.86991
2.90395
2.93795
2.97192
3.00586
3.03968
3.07332
3.10675
3.13993
3.17284
3.20546
3.23775
3.26971
3.30131
3.33252
3.36333
3.39372
3.42367
3.45315
3.48215
3.51064
3.53862
3.56606
3.59294
3.61926
3.645
3.67013
3.69464
3.71851
3.74173
3.76426
3.78608
3.80717
3.82749
3.847
3.86568
3.88347
3.90032
3.91618
3.93098
3.94464
3.95708
3.96821
3.9779
3.98604
3.99248
3.99709
3.99969
4.00012
3.9982
3.99376
3.98662
3.97666
3.96381
3.94806
3.92956
3.90863
3.88557
3.86081
3.83553
3.81265
3.79526
3.78485
3.78116
3.7828
3.78809
3.79551
3.80356
3.81072
3.81597
3.81873
3.81866
3.81559
3.80942
3.80015
3.78779
3.77245
3.75427
3.73346
3.71024
3.68492
3.65786
3.62951
3.60052
3.57191
3.54567
3.52388
3.51093
0.201513
0.198374
0.203805
0.214996
0.230642
0.249781
0.271629
0.295563
0.321092
0.347829
0.375456
0.403708
0.432357
0.461204
0.490073
0.518815
0.547307
0.575452
0.603184
0.630464
0.65728
0.683645
0.709589
0.735158
0.760407
0.785395
0.810183
0.834829
0.859386
0.883899
0.908411
0.932954
0.957557
0.982243
1.00703
1.03194
1.05699
1.08218
1.10755
1.13309
1.15883
1.18479
1.21098
1.23743
1.26414
1.29116
1.31848
1.34614
1.37415
1.40254
1.43132
1.46051
1.49013
1.52019
1.55071
1.5817
1.61316
1.64511
1.67754
1.71046
1.74386
1.77773
1.81208
1.84688
1.88213
1.91781
1.95391
1.99039
2.02724
2.06444
2.10197
2.1398
2.17791
2.21627
2.25487
2.29367
2.33266
2.37182
2.41111
2.45051
2.49001
2.52956
2.56917
2.60879
2.64842
2.68804
2.72764
2.76719
2.8067
2.84615
2.88552
2.92482
2.96404
3.00317
3.04221
3.08115
3.11985
3.15827
3.1964
3.23419
3.27162
3.30865
3.34526
3.38142
3.4171
3.45228
3.48692
3.52099
3.55448
3.58736
3.61959
3.65115
3.68201
3.71216
3.74158
3.77024
3.79813
3.82524
3.85154
3.87702
3.90166
3.92544
3.94835
3.97037
3.99147
4.01163
4.03084
4.04906
4.06627
4.08244
4.09752
4.11149
4.1243
4.13589
4.1462
4.15516
4.16268
4.16868
4.17306
4.17571
4.17651
4.17534
4.1721
4.16667
4.15897
4.149
4.13679
4.12236
4.10602
4.08781
4.06776
4.04654
4.0262
4.00892
3.99581
3.98675
3.98098
3.97771
3.97629
3.97571
3.97476
3.97248
3.96828
3.96184
3.95294
3.94151
3.92749
3.91091
3.89184
3.87037
3.84667
3.82093
3.79339
3.76436
3.73427
3.70372
3.67363
3.64569
3.6213
3.60295
0.215955
0.208807
0.21234
0.221988
0.236197
0.253922
0.274347
0.296832
0.320877
0.346079
0.372113
0.398705
0.425625
0.452679
0.479701
0.506553
0.533125
0.559336
0.585131
0.610483
0.635389
0.659868
0.683954
0.707698
0.731157
0.754392
0.777467
0.800442
0.823376
0.846319
0.869319
0.892419
0.915654
0.93906
0.962666
0.986502
1.01059
1.03497
1.05965
1.08468
1.11006
1.13584
1.16204
1.18868
1.21579
1.24341
1.27154
1.30023
1.32949
1.35934
1.3898
1.42089
1.45263
1.48502
1.51808
1.55181
1.58622
1.62131
1.65707
1.6935
1.73059
1.76833
1.80669
1.84566
1.88523
1.92535
1.96601
2.00718
2.04882
2.09091
2.13341
2.17629
2.21951
2.26305
2.30687
2.35094
2.39523
2.43971
2.48435
2.52911
2.57396
2.61886
2.6638
2.70875
2.75367
2.79857
2.84341
2.88818
2.93287
2.97746
3.02195
3.06633
3.11057
3.15468
3.19864
3.2423
3.28558
3.32847
3.37094
3.41297
3.45451
3.49554
3.53601
3.5759
3.61517
3.65378
3.69171
3.72892
3.76538
3.80105
3.8359
3.8699
3.90301
3.93522
3.96649
3.9968
4.02614
4.05449
4.08183
4.10815
4.13342
4.15764
4.18079
4.20284
4.22379
4.24361
4.2623
4.27984
4.29621
4.31141
4.32539
4.33816
4.34968
4.35992
4.36886
4.37645
4.38264
4.38737
4.3906
4.39224
4.39225
4.39053
4.38704
4.38173
4.37453
4.36552
4.35474
4.34224
4.3281
4.31221
4.2944
4.27503
4.25547
4.23729
4.22134
4.20762
4.19577
4.18553
4.17672
4.16875
4.16073
4.15183
4.14151
4.12942
4.11535
4.09919
4.0809
4.06047
4.03793
4.01337
3.9869
3.95867
3.92889
3.89783
3.86587
3.83358
3.80175
3.77178
3.74453
3.72136
0.231477
0.219548
0.220988
0.229032
0.241791
0.258099
0.277103
0.298151
0.320734
0.344446
0.368955
0.393986
0.41931
0.444735
0.470104
0.49529
0.520195
0.544748
0.568907
0.592655
0.615996
0.638956
0.661575
0.683906
0.706009
0.727949
0.749791
0.771601
0.79344
0.815365
0.837429
0.859682
0.88217
0.904934
0.928013
0.951447
0.97527
0.999521
1.02423
1.04944
1.07518
1.10148
1.12839
1.15592
1.18411
1.21299
1.24259
1.27293
1.30404
1.33593
1.36862
1.40214
1.43648
1.47166
1.50769
1.54457
1.58229
1.62087
1.66027
1.70051
1.74155
1.78339
1.82599
1.86933
1.91338
1.95811
2.00349
2.04948
2.09604
2.14313
2.19071
2.23874
2.28717
2.33597
2.3851
2.43452
2.48419
2.53407
2.58412
2.63429
2.68456
2.73487
2.7852
2.83551
2.88577
2.93597
2.98609
3.03612
3.08602
3.1358
3.18544
3.23492
3.28422
3.33335
3.38219
3.43053
3.4784
3.52578
3.57264
3.61893
3.66462
3.70966
3.75402
3.79765
3.84052
3.88259
3.92382
3.96417
4.00361
4.04209
4.07957
4.11602
4.15139
4.18565
4.21878
4.25075
4.28153
4.31112
4.3395
4.36664
4.39255
4.41719
4.44054
4.4626
4.48335
4.50279
4.52089
4.53767
4.55311
4.56721
4.57995
4.59133
4.60134
4.60997
4.61722
4.62307
4.62748
4.63043
4.6319
4.63186
4.63026
4.62708
4.62231
4.61594
4.60799
4.59851
4.58755
4.57515
4.56128
4.54575
4.5283
4.50908
4.489
4.46916
4.45021
4.43227
4.41522
4.39906
4.38389
4.36941
4.35502
4.34007
4.32408
4.30669
4.28771
4.267
4.24452
4.22022
4.19414
4.16632
4.13685
4.10584
4.07348
4.04001
4.00577
3.97126
3.93717
3.90463
3.87408
3.8462
0.247962
0.230438
0.229569
0.23594
0.247231
0.262118
0.279695
0.299299
0.32042
0.342652
0.365665
0.389183
0.412982
0.436876
0.460714
0.484379
0.507783
0.530866
0.553595
0.575962
0.597977
0.619673
0.641093
0.662295
0.683339
0.704295
0.725231
0.746213
0.767309
0.788579
0.810082
0.831875
0.854007
0.87653
0.899488
0.922927
0.946892
0.971423
0.996562
1.02235
1.04883
1.07603
1.104
1.13277
1.16236
1.19282
1.22416
1.25642
1.28962
1.32377
1.3589
1.39501
1.43212
1.47023
1.50935
1.54947
1.59061
1.63274
1.67586
1.71995
1.765
1.81097
1.85784
1.90558
1.95415
2.00352
2.05365
2.10449
2.156
2.20813
2.26084
2.31407
2.36777
2.4219
2.47641
2.53126
2.58638
2.64175
2.6973
2.75299
2.80876
2.86457
2.92037
2.97613
3.03182
3.08741
3.1429
3.19825
3.25345
3.30849
3.36336
3.41803
3.47248
3.52669
3.58031
3.63339
3.6859
3.73783
3.78911
3.83971
3.88957
3.93865
3.9869
4.03428
4.08074
4.12624
4.17075
4.21421
4.2566
4.29785
4.33792
4.37677
4.41434
4.4506
4.48552
4.51906
4.55122
4.58197
4.61129
4.63917
4.6656
4.69056
4.71403
4.73598
4.75641
4.77532
4.79271
4.80857
4.8229
4.83572
4.84701
4.85677
4.86501
4.87174
4.87697
4.88071
4.88293
4.88362
4.8828
4.88046
4.8766
4.87122
4.86434
4.85598
4.84619
4.83504
4.82257
4.80881
4.79368
4.77697
4.7584
4.73801
4.71637
4.69422
4.6721
4.65016
4.62843
4.60705
4.58622
4.56587
4.54563
4.52501
4.50361
4.48112
4.45733
4.43212
4.40541
4.37715
4.34736
4.31606
4.28331
4.24921
4.21392
4.17764
4.14068
4.1035
4.06667
4.03108
3.99684
3.96427
0.265354
0.241378
0.237958
0.242584
0.252389
0.265846
0.281984
0.300128
0.31977
0.340511
0.362027
0.384049
0.406358
0.428775
0.451158
0.473398
0.495416
0.51716
0.538607
0.559753
0.580616
0.601232
0.621648
0.641922
0.66212
0.68231
0.702564
0.722952
0.743541
0.764398
0.785586
0.807164
0.829189
0.851715
0.874795
0.898478
0.922813
0.947848
0.973627
1.0002
1.0276
1.05587
1.08506
1.1152
1.14632
1.17846
1.21164
1.2459
1.28124
1.3177
1.35529
1.39402
1.4339
1.47495
1.51715
1.56052
1.60505
1.65073
1.69755
1.74549
1.79452
1.84462
1.89576
1.94789
2.00098
2.05499
2.10987
2.16559
2.22208
2.2793
2.33718
2.39567
2.45472
2.51426
2.57425
2.63462
2.69531
2.75627
2.81744
2.87875
2.94014
3.00155
3.06292
3.12422
3.18542
3.2465
3.30742
3.36818
3.42876
3.48914
3.5493
3.60923
3.66891
3.72796
3.78638
3.84419
3.90134
3.95778
4.01345
4.06829
4.12226
4.17528
4.22733
4.27833
4.32826
4.37705
4.42468
4.47109
4.51624
4.56008
4.60256
4.64361
4.68318
4.72122
4.75771
4.7926
4.82589
4.85755
4.88757
4.91594
4.94264
4.96768
4.991
5.01257
5.03241
5.05051
5.06688
5.08152
5.09445
5.10569
5.1152
5.12299
5.1291
5.13355
5.13636
5.13755
5.13711
5.13508
5.13146
5.12627
5.11953
5.11127
5.10154
5.09038
5.07784
5.06401
5.04894
5.03264
5.01504
4.99594
4.9751
4.95247
4.9284
4.9034
4.87787
4.85199
4.82586
4.79967
4.77367
4.7479
4.72217
4.69616
4.66955
4.64207
4.61354
4.58383
4.55283
4.52052
4.48688
4.45191
4.41567
4.37823
4.33973
4.30034
4.26035
4.22013
4.18018
4.1412
4.10305
4.06582
0.283638
0.252308
0.246085
0.248889
0.257185
0.2692
0.283883
0.300544
0.318681
0.337907
0.357911
0.378433
0.399266
0.420237
0.441215
0.462097
0.482813
0.503319
0.523595
0.543645
0.563489
0.583166
0.602726
0.622226
0.641735
0.66132
0.681056
0.701012
0.721259
0.741867
0.7629
0.784423
0.806495
0.829175
0.852518
0.876579
0.90141
0.927062
0.953585
0.981024
1.00943
1.03884
1.0693
1.10085
1.13353
1.16736
1.20239
1.23864
1.27612
1.31487
1.35491
1.39624
1.43888
1.48284
1.52811
1.57471
1.62263
1.67185
1.72237
1.77416
1.8272
1.88145
1.93688
1.99343
2.05107
2.10976
2.16944
2.23007
2.29159
2.35395
2.41707
2.4809
2.54538
2.61043
2.67599
2.742
2.80838
2.87505
2.94195
3.00898
3.07608
3.14317
3.21019
3.2771
3.34386
3.41046
3.47687
3.54307
3.60904
3.67478
3.74025
3.80544
3.86994
3.93375
3.99687
4.05928
4.12092
4.1817
4.24156
4.30043
4.35826
4.41497
4.47052
4.52486
4.57793
4.62968
4.68007
4.72907
4.77661
4.82266
4.86716
4.91004
4.9512
4.99061
5.02823
5.06405
5.09804
5.13018
5.16045
5.18886
5.21539
5.24008
5.26283
5.28358
5.30238
5.31923
5.33414
5.34712
5.35819
5.36736
5.37463
5.38002
5.38357
5.3853
5.38525
5.38343
5.37988
5.37462
5.36768
5.35909
5.34891
5.33716
5.32391
5.30922
5.29318
5.27585
5.2573
5.23754
5.21653
5.1941
5.17006
5.14434
5.11714
5.08879
5.05959
5.0297
4.99928
4.96851
4.93764
4.90677
4.87585
4.84467
4.813
4.78064
4.74741
4.71319
4.6779
4.64147
4.60388
4.56514
4.52526
4.48433
4.44244
4.39976
4.35651
4.31304
4.26974
4.22718
4.18503
4.14325
0.302841
0.263212
0.253925
0.254826
0.261586
0.272141
0.285349
0.300498
0.317098
0.334781
0.353249
0.372262
0.391623
0.411171
0.430782
0.450363
0.469848
0.4892
0.508403
0.527462
0.546401
0.565258
0.584084
0.602937
0.621882
0.64099
0.660333
0.679982
0.700011
0.720489
0.741485
0.763064
0.78529
0.808224
0.831925
0.856452
0.881858
0.908199
0.935526
0.96389
0.99334
1.02392
1.05569
1.08867
1.12292
1.15847
1.19535
1.23359
1.27323
1.31429
1.35679
1.40075
1.44618
1.4931
1.5415
1.59139
1.64276
1.6956
1.74991
1.80565
1.8628
1.92131
1.98112
2.0422
2.10449
2.16793
2.23249
2.29811
2.36474
2.43231
2.50076
2.57
2.63999
2.71064
2.78188
2.85363
2.92579
2.99828
3.07098
3.14381
3.21665
3.28944
3.36212
3.43463
3.50694
3.57904
3.65089
3.72247
3.79379
3.86481
3.93544
4.00528
4.07436
4.14267
4.21019
4.27688
4.34268
4.40742
4.47105
4.5335
4.5947
4.65461
4.71315
4.77028
4.82593
4.88007
4.93265
4.98362
5.03294
5.08057
5.12649
5.1706
5.21271
5.25283
5.29095
5.32704
5.36108
5.39306
5.42295
5.45076
5.47648
5.50011
5.52161
5.54095
5.55814
5.57319
5.5861
5.59688
5.60556
5.61215
5.61667
5.61915
5.61963
5.61814
5.61472
5.60941
5.60224
5.59324
5.58247
5.56997
5.5558
5.54001
5.52267
5.50387
5.48369
5.4622
5.43949
5.41559
5.39045
5.36398
5.33604
5.30656
5.27564
5.24351
5.21036
5.17637
5.14166
5.10642
5.07087
5.03514
4.99925
4.96309
4.92651
4.88936
4.85151
4.81282
4.77324
4.73268
4.69113
4.64856
4.60501
4.56052
4.51517
4.4691
4.42252
4.3757
4.32896
4.28276
4.23668
4.19054
0.323051
0.274119
0.261497
0.260412
0.265601
0.274671
0.286373
0.299977
0.315007
0.331115
0.348029
0.365527
0.383425
0.401576
0.419864
0.438202
0.45653
0.474813
0.493037
0.511208
0.52935
0.547501
0.565709
0.584032
0.602533
0.621281
0.640346
0.659803
0.679725
0.700183
0.72125
0.742991
0.765475
0.788766
0.812925
0.838014
0.864091
0.891213
0.919435
0.948812
0.979397
1.01124
1.04439
1.0789
1.11481
1.15217
1.19101
1.23137
1.27328
1.31678
1.36189
1.40864
1.45703
1.50709
1.55881
1.6122
1.66725
1.72395
1.78228
1.84221
1.90371
1.9667
2.03113
2.09693
2.16405
2.23242
2.302
2.37274
2.44458
2.51744
2.59126
2.66598
2.74152
2.81782
2.89478
2.97231
3.05031
3.12867
3.2072
3.28577
3.36429
3.4427
3.52092
3.59892
3.67665
3.7541
3.83123
3.90801
3.98449
4.06034
4.1353
4.20938
4.28258
4.35486
4.4262
4.49655
4.56595
4.63398
4.70066
4.76593
4.82974
4.89205
4.95277
5.01185
5.06925
5.12492
5.17881
5.23089
5.28111
5.3294
5.37573
5.42002
5.46217
5.50214
5.53991
5.57544
5.60871
5.63971
5.66843
5.69486
5.719
5.74085
5.76038
5.77758
5.79246
5.80501
5.81524
5.82318
5.82884
5.83224
5.83342
5.83241
5.82926
5.82401
5.81669
5.80736
5.79606
5.78284
5.76775
5.75086
5.73222
5.71191
5.69001
5.66661
5.6418
5.61567
5.5883
5.55973
5.52996
5.49894
5.46658
5.43283
5.39775
5.36148
5.32416
5.28592
5.2469
5.20724
5.16714
5.12674
5.08608
5.04513
5.00381
4.96202
4.91965
4.8766
4.83279
4.78817
4.7427
4.69636
4.64916
4.60114
4.55236
4.50295
4.45305
4.40292
4.3528
4.30307
4.25325
4.20305
0.34444
0.285105
0.268868
0.265706
0.269277
0.276822
0.286977
0.298996
0.312421
0.326932
0.342283
0.358273
0.374736
0.391535
0.408561
0.425734
0.442994
0.460308
0.477662
0.495061
0.512529
0.5301
0.547821
0.565749
0.583944
0.602471
0.621398
0.6408
0.660755
0.681339
0.702624
0.724682
0.747584
0.771397
0.796187
0.82202
0.848958
0.87706
0.906386
0.936993
0.968938
1.00228
1.03707
1.07337
1.11123
1.1507
1.19181
1.23462
1.27916
1.32546
1.37356
1.42349
1.47527
1.52891
1.5844
1.64175
1.70093
1.76195
1.82478
1.88938
1.95564
2.02351
2.09292
2.16378
2.23603
2.3096
2.38441
2.46041
2.53754
2.61575
2.69497
2.77515
2.85621
2.93808
3.02066
3.10386
3.18758
3.27176
3.35599
3.44008
3.52403
3.60778
3.69128
3.77447
3.85733
3.93979
4.02189
4.10343
4.18403
4.26365
4.34226
4.41982
4.49629
4.57165
4.64584
4.71879
4.79043
4.8606
4.92921
4.9962
5.06151
5.12507
5.18684
5.24674
5.30474
5.3608
5.41486
5.4669
5.51686
5.56469
5.61034
5.65373
5.69482
5.73354
5.76987
5.80378
5.83526
5.86427
5.89083
5.91493
5.93656
5.95573
5.97242
5.98663
5.99836
6.00762
6.01441
6.01876
6.02068
6.02022
6.01741
6.01229
6.00491
5.99532
5.98357
5.9697
5.95379
5.93587
5.91602
5.89431
5.8708
5.84558
5.81874
5.79038
5.76058
5.72946
5.69708
5.66351
5.62879
5.59289
5.55577
5.51742
5.47786
5.43719
5.39551
5.35293
5.30956
5.26554
5.22101
5.1761
5.13089
5.08539
5.03956
4.99334
4.94665
4.89941
4.85155
4.80302
4.75378
4.70381
4.65311
4.6017
4.54962
4.497
4.44395
4.39067
4.33739
4.28441
4.23123
4.17741
0.367328
0.296316
0.276167
0.270822
0.272704
0.278657
0.287205
0.297591
0.309381
0.322287
0.33609
0.350611
0.365698
0.381224
0.397086
0.413203
0.42952
0.446
0.462629
0.479409
0.496362
0.513522
0.530935
0.548656
0.566747
0.585273
0.604297
0.623882
0.644109
0.66507
0.686846
0.709514
0.733147
0.757818
0.7836
0.810564
0.838778
0.868304
0.899202
0.931531
0.965358
1.00075
1.03778
1.07651
1.11699
1.15929
1.20343
1.24945
1.29737
1.34725
1.39914
1.45306
1.50903
1.56706
1.62714
1.68927
1.75341
1.81953
1.88762
1.9577
2.02936
2.10263
2.17747
2.2538
2.33154
2.4106
2.49089
2.57228
2.65472
2.73821
2.82272
2.90819
2.99453
3.08165
3.16944
3.25779
3.34658
3.43565
3.52479
3.6138
3.70263
3.79119
3.87938
3.96711
4.05445
4.14114
4.22682
4.31139
4.39481
4.47704
4.55804
4.63774
4.71612
4.79311
4.86867
4.94272
5.01516
5.0859
5.15485
5.22195
5.28714
5.35038
5.4116
5.47076
5.52781
5.58271
5.63543
5.68592
5.73415
5.78006
5.82359
5.86469
5.90331
5.93943
5.97299
6.004
6.03241
6.05824
6.08147
6.1021
6.12015
6.1356
6.14845
6.1587
6.16636
6.17143
6.17393
6.17388
6.17131
6.16627
6.15879
6.14892
6.13673
6.12225
6.10555
6.08668
6.06571
6.0427
6.01772
5.99084
5.96216
5.93175
5.89973
5.86618
5.83121
5.79491
5.75738
5.7187
5.6789
5.63802
5.59606
5.55301
5.50892
5.46384
5.41787
5.37107
5.32355
5.27542
5.22679
5.17776
5.12842
5.07879
5.02888
4.97864
4.92802
4.87693
4.82534
4.7732
4.72047
4.66714
4.61319
4.55864
4.50354
4.44795
4.39201
4.33585
4.27957
4.22342
4.16701
4.1097
0.393264
0.308411
0.283842
0.276095
0.276115
0.280317
0.287117
0.295762
0.305849
0.317121
0.329386
0.342484
0.356273
0.370629
0.385453
0.400663
0.416204
0.432037
0.448147
0.464534
0.481219
0.498238
0.515639
0.533484
0.551838
0.570772
0.590357
0.61066
0.631742
0.653671
0.676559
0.700511
0.725594
0.751895
0.779497
0.808483
0.838932
0.870915
0.904457
0.939625
0.976498
1.01517
1.05576
1.09834
1.14286
1.18935
1.23804
1.28863
1.34127
1.39605
1.453
1.51216
1.57354
1.63716
1.70299
1.771
1.84114
1.91331
1.98742
2.06329
2.14076
2.21979
2.30033
2.38234
2.46573
2.55038
2.63614
2.72284
2.81047
2.8991
2.98867
3.07907
3.17021
3.26197
3.35422
3.44684
3.53968
3.63265
3.72568
3.8187
3.91142
4.00373
4.09545
4.18627
4.27581
4.36406
4.45101
4.53662
4.62084
4.70363
4.78491
4.86464
4.94275
5.01921
5.09395
5.16688
5.23793
5.30703
5.37411
5.43914
5.50206
5.56283
5.62143
5.67779
5.73188
5.78366
5.83311
5.88018
5.92482
5.96699
6.00663
6.04371
6.0782
6.11006
6.13928
6.16585
6.18974
6.21096
6.22951
6.24539
6.2586
6.26914
6.27701
6.28221
6.28474
6.28463
6.2819
6.27657
6.26869
6.25829
6.24542
6.23015
6.21252
6.1926
6.17043
6.14609
6.11964
6.09114
6.06069
6.02835
5.99424
5.95843
5.92104
5.88218
5.84194
5.80042
5.75773
5.71394
5.66912
5.62332
5.57658
5.52893
5.4804
5.43106
5.38097
5.33021
5.27885
5.22697
5.17466
5.12201
5.06907
5.01589
4.96246
4.90879
4.85481
4.80048
4.74574
4.69055
4.63487
4.57867
4.52194
4.46467
4.40688
4.34864
4.29001
4.2311
4.17198
4.11285
4.05335
3.99278
0.420065
0.320365
0.291398
0.28126
0.279367
0.28176
0.286797
0.293746
0.302238
0.312045
0.322991
0.334923
0.347701
0.3612
0.375318
0.389975
0.405118
0.420716
0.436755
0.453242
0.470203
0.487682
0.505734
0.524432
0.543861
0.56411
0.585248
0.607344
0.630484
0.654787
0.680317
0.707018
0.734988
0.764425
0.795426
0.828095
0.862556
0.898989
0.937101
0.97704
1.0189
1.06278
1.10873
1.15678
1.20694
1.25925
1.31378
1.37049
1.42939
1.49052
1.5539
1.61953
1.68742
1.75755
1.82991
1.90443
1.98106
2.05964
2.13997
2.22178
2.30495
2.38938
2.47503
2.56191
2.64999
2.73921
2.82947
2.92074
3.01297
3.10604
3.19982
3.2942
3.38902
3.48415
3.57943
3.67473
3.76985
3.86468
3.95946
4.0538
4.14724
4.23936
4.33002
4.41928
4.50711
4.59345
4.6783
4.7616
4.84332
4.92339
5.00176
5.07834
5.15309
5.22593
5.29681
5.36566
5.43243
5.49708
5.55959
5.61993
5.67808
5.73399
5.78765
5.839
5.888
5.93462
5.97881
6.02053
6.05975
6.09641
6.13047
6.16192
6.19074
6.21692
6.24044
6.26131
6.2795
6.29501
6.30784
6.31799
6.32546
6.33024
6.33233
6.33174
6.32848
6.32258
6.31408
6.303
6.28938
6.27327
6.25473