/*--------------------------------*- C++ -*----------------------------------*\
| =========                 |                                                 |
| \\      /  F ield         | OpenFOAM: The Open Source CFD Toolbox           |
|  \\    /   O peration     | Version:  2112                                  |
|   \\  /    A nd           | Website:  www.openfoam.com                      |
|    \\/     M anipulation  |                                                 |
\*---------------------------------------------------------------------------*/
FoamFile
{
    version     2.0;
    format      ascii;
    arch        "LSB;label=32;scalar=64";
    class       volScalarField;
    location    "0.51";
    object      kU;
}
// * * * * * * * * * * * * * * * * * * * * * * * * * * * * * * * * * * * * * //

dimensions      [0 2 -2 0 0 0 0];

internalField   nonuniform List<scalar> 
12225
(
0.173125
0.196689
0.188338
0.174056
0.164301
0.156077
0.148963
0.142925
0.137993
0.134194
0.131533
0.129995
0.129478
0.129766
0.130916
0.132949
0.135729
0.139813
0.0262507
0.015695
0.0100406
0.00731953
0.00598009
0.00520283
0.0046583
0.004218
0.00382934
0.00346997
0.00312975
0.00281083
0.00258504
0.00252739
0.00253583
0.00257883
0.00264372
0.00272716
0.032588
0.0269995
0.0222925
0.018577
0.0156856
0.0134343
0.011675
0.0102979
0.00922267
0.00838965
0.00775559
0.00730104
0.00698344
0.00676301
0.00661782
0.00653346
0.00650234
0.00652657
0.0344777
0.0310834
0.0279192
0.0251265
0.0227227
0.0206802
0.0189556
0.0175043
0.016286
0.0152665
0.014424
0.0137208
0.0131271
0.0126294
0.012217
0.011882
0.0116216
0.0114442
0.0351008
0.0325469
0.0301144
0.0278787
0.025867
0.0240808
0.0225079
0.02113
0.0199277
0.0188851
0.0179804
0.0171912
0.0165042
0.0159083
0.0153951
0.014959
0.0145982
0.0143187
0.0353331
0.0331559
0.0311061
0.0292059
0.0274669
0.0258906
0.0244719
0.0232016
0.0220699
0.0210638
0.0201679
0.0193712
0.0186644
0.0180393
0.0174896
0.0170112
0.0166023
0.0162671
0.0354174
0.0334085
0.031559
0.0298577
0.0282985
0.0268757
0.0255825
0.0244117
0.0233543
0.0223993
0.021538
0.0207625
0.0200654
0.0194407
0.0188835
0.0183901
0.0179588
0.0175918
0.0354457
0.0335057
0.0317524
0.0301595
0.028709
0.0273876
0.0261845
0.0250901
0.0240943
0.0231888
0.022366
0.0216189
0.0209417
0.020329
0.0197766
0.019281
0.01884
0.0184548
0.0354543
0.0335395
0.0318267
0.0302857
0.0288928
0.0276302
0.0264833
0.0254396
0.0244887
0.0236219
0.0228313
0.0221104
0.0214533
0.0208551
0.0203115
0.0198191
0.019375
0.0189798
0.0354567
0.0335498
0.0318518
0.0303319
0.0289652
0.0277315
0.0266142
0.0255996
0.0246763
0.0238344
0.023066
0.0223639
0.0217221
0.0211356
0.0206
0.0201114
0.0196667
0.019266
0.0354573
0.0335525
0.0318589
0.0303462
0.0289893
0.0277674
0.0266632
0.0256624
0.0247528
0.0239242
0.0231679
0.0224766
0.0218439
0.0212645
0.0207337
0.0202474
0.0198021
0.0193978
0.0354574
0.033553
0.0318603
0.0303492
0.0289949
0.0277765
0.0266765
0.0256803
0.0247757
0.023952
0.0232004
0.0225133
0.0218842
0.0213074
0.0207781
0.0202919
0.0198451
0.0194378
0.0354575
0.033553
0.0318603
0.0303494
0.0289955
0.0277777
0.0266787
0.0256838
0.0247804
0.0239581
0.0232078
0.0225217
0.0218932
0.0213165
0.0207866
0.020299
0.01985
0.0194394
0.0354575
0.0335529
0.0318599
0.0303486
0.0289942
0.027776
0.0266765
0.0256811
0.0247772
0.0239543
0.0232033
0.0225162
0.0218865
0.0213082
0.0207762
0.0202859
0.0198336
0.0194193
0.0354575
0.0335528
0.0318594
0.0303475
0.0289923
0.0277732
0.0266726
0.0256759
0.0247706
0.0239461
0.0231932
0.0225041
0.021872
0.021291
0.020756
0.0202623
0.0198062
0.0193877
0.0354575
0.0335527
0.031859
0.0303464
0.0289904
0.0277701
0.0266681
0.0256698
0.0247627
0.0239361
0.0231809
0.0224892
0.0218543
0.0212702
0.0207317
0.0202342
0.0197741
0.0193516
0.0354575
0.0335527
0.0318586
0.0303454
0.0289885
0.027767
0.0266635
0.0256635
0.0247543
0.0239255
0.0231677
0.0224733
0.0218353
0.0212479
0.0207059
0.0202048
0.0197408
0.0193144
0.0354575
0.0335526
0.0318582
0.0303445
0.0289866
0.0277639
0.026659
0.0256571
0.024746
0.0239148
0.0231545
0.0224572
0.0218163
0.0212257
0.0206803
0.0201757
0.0197081
0.0192781
0.0354576
0.0335526
0.0318579
0.0303436
0.0289849
0.027761
0.0266547
0.0256511
0.024738
0.0239046
0.0231419
0.0224421
0.0217984
0.021205
0.0206566
0.020149
0.0196783
0.0192452
0.0354576
0.0335526
0.0318577
0.0303431
0.0289839
0.0277593
0.026652
0.0256473
0.0247328
0.0238979
0.0231335
0.0224318
0.0217861
0.0211905
0.02064
0.02013
0.019657
0.0192215
0.0354576
0.0335526
0.0318577
0.030343
0.0289835
0.0277584
0.0266505
0.0256449
0.0247293
0.023893
0.0231271
0.0224237
0.021776
0.0211782
0.0206252
0.0201126
0.0196368
0.0191982
0.0354576
0.0335526
0.0318576
0.0303425
0.0289824
0.0277562
0.0266466
0.0256387
0.0247203
0.0238805
0.0231104
0.0224022
0.0217491
0.0211454
0.0205859
0.0200663
0.019583
0.0191367
0.0354575
0.0335518
0.0318553
0.0303374
0.0289728
0.0277402
0.0266223
0.0256043
0.024674
0.0238207
0.0230358
0.0223114
0.0216412
0.0210194
0.0204412
0.0199024
0.0193995
0.0189334
0.035456
0.0335449
0.0318376
0.0303026
0.0289147
0.0276535
0.0265025
0.025448
0.0244786
0.0235848
0.0227584
0.0219921
0.02128
0.0206168
0.0199978
0.0194191
0.0188775
0.018374
0.0354451
0.033502
0.0317411
0.0301349
0.0286634
0.0273116
0.0260674
0.0249204
0.0238611
0.0228811
0.0219729
0.0211296
0.0203451
0.019614
0.0189315
0.0182935
0.0176966
0.0171417
0.0353847
0.0333006
0.0313482
0.0295278
0.0278401
0.0262825
0.0248494
0.0235328
0.0223231
0.0212106
0.0201857
0.0192396
0.0183642
0.0175526
0.0167985
0.016097
0.0154437
0.0148384
0.0351156
0.0325424
0.0300491
0.0277196
0.025589
0.0236633
0.0219324
0.0203783
0.0189809
0.0177205
0.016579
0.0155407
0.0145918
0.0137213
0.01292
0.0121804
0.0114968
0.0108666
0.0340422
0.0298173
0.0258347
0.0223654
0.0194315
0.0169708
0.0149012
0.0131473
0.0116476
0.0103539
0.00922879
0.00824316
0.00737424
0.00660506
0.00592301
0.00531845
0.00478362
0.00431205
0.0300004
0.0201955
0.0132886
0.00930563
0.00714146
0.00593725
0.0052181
0.00474808
0.00441214
0.00415319
0.00394461
0.00380523
0.00370303
0.00361503
0.00352803
0.00343475
0.00333094
0.00321618
0.146325
0.179726
0.180872
0.172278
0.16125
0.15001
0.139154
0.1288
0.118947
0.109556
0.100622
0.0943919
0.0888085
0.0833708
0.077977
0.0726296
0.0673553
0.0622176
0.00239431
0.00364046
0.00450235
0.00516139
0.00582298
0.00662158
0.00761043
0.0088167
0.0102504
0.0118956
0.0137324
0.0157835
0.0179626
0.0200307
0.0218364
0.0232693
0.0242564
0.0247665
0.0248032
0.0243989
0.0236087
0.0225019
0.0212208
0.0198486
0.018441
0.0170347
0.0156716
0.0143977
0.0131274
0.0118965
0.0107513
0.00975589
0.00901093
0.00870267
0.00921075
0.0110109
0.0137633
0.0173493
0.0217741
0.0270824
0.0332894
0.0403581
0.048162
0.0564044
0.0641736
0.0693722
0.069048
0.0632687
0.0532429
0.0412856
0.0300398
0.0213265
0.0156313
0.0119431
0.00906923
0.00651171
0.00438288
0.00306355
0.00284099
0.00356487
0.00480477
0.00661324
0.00904429
0.0119793
0.0150962
0.0174017
0.018304
0.0184854
0.0186318
0.0189832
0.018692
0.016947
0.0149005
0.0169204
0.0321146
0.0549708
0.0793642
0.102784
0.123618
0.140942
0.154337
0.163728
0.169257
0.171196
0.169891
0.165723
0.159051
0.150732
0.141213
0.13069
0.119367
0.10747
0.0952512
0.0829905
0.0709906
0.059562
0.0489979
0.0395451
0.0313775
0.0245813
0.0191651
0.0151269
0.011687
0.00864652
0.00626338
0.0054912
0.00745568
0.0101265
0.0131051
0.0168308
0.0216005
0.0269904
0.0327175
0.0385363
0.0442279
0.0496027
0.0545071
0.0588176
0.0624385
0.0653488
0.0673121
0.0677381
0.0667236
0.0644206
0.0610171
0.0567388
0.0518363
0.0465685
0.04119
0.0359399
0.0310319
0.0266424
0.0228969
0.0198618
0.0176076
0.0162623
0.0153778
0.0147429
0.0142453
0.0138121
0.0133984
0.0129852
0.0125743
0.0121809
0.0118262
0.011533
0.0113251
0.0112257
0.01123
0.0113446
0.0115789
0.0119215
0.0123509
0.0128437
0.0133766
0.0139321
0.0144955
0.0150493
0.0155642
0.0159897
0.0162685
0.0164009
0.0165296
0.0169404
0.0178822
0.0186252
0.016325
0.0126355
0.0327102
0.0613162
0.0815825
0.089048
0.0843422
0.0704108
0.0535453
0.0368074
0.0231582
0.0145654
0.00729102
0.00292118
0.00836977
0.00144668
0.00134676
0.00142112
0.00176466
0.00230456
0.00295937
0.00369378
0.00448078
0.0052954
0.0061166
0.00692626
0.0077029
0.00842438
0.00908076
0.00967162
0.0102042
0.0106921
0.011154
0.0116132
0.0120966
0.012628
0.0131376
0.0135964
0.0139969
0.0143306
0.0145889
0.0147634
0.0148466
0.014833
0.0147193
0.0145042
0.0141881
0.0137726
0.0132605
0.0126513
0.0119952
0.0113124
0.0105793
0.00980274
0.00899882
0.00819734
0.0074521
0.00685937
0.00661897
0.00714033
0.00924159
0.0112264
0.0119242
0.011204
0.00949903
0.00738988
0.00536776
0.00374339
0.0025955
0.00178871
0.00116462
0.000692779
0.000391618
0.000235472
0.000228991
0.000271824
0.000339823
0.000429115
0.000546673
0.000706823
0.000942742
0.00113973
0.00161816
0.00280007
0.00500175
0.00750569
0.00923302
0.011377
0.0143168
0.0166916
0.0178138
0.0176873
0.0165746
0.0148328
0.0128139
0.0108158
0.00906475
0.00771214
0.00683797
0.00647108
0.00670478
0.00716402
0.00762547
0.00808727
0.00854678
0.00900078
0.00944575
0.00987797
0.0102932
0.010686
0.0110485
0.0113699
0.0116354
0.0118274
0.0119264
0.0119113
0.0117478
0.011408
0.0108704
0.0101796
0.00955454
0.00890965
0.00824232
0.00756483
0.00688935
0.00622104
0.00556542
0.00492919
0.00432056
0.00374912
0.00322498
0.00275727
0.00235314
0.00202491
0.00185312
0.00207537
0.0024512
0.00283841
0.003155
0.00336194
0.00344647
0.00341192
0.00327173
0.00304526
0.00275528
0.00242637
0.00208339
0.00174974
0.00144686
0.00119164
0.000986842
0.000832705
0.000725878
0.00065786
0.000616241
0.000587915
0.000562187
0.000532272
0.000494892
0.00044881
0.000393816
0.000332686
0.000287686
0.000264002
0.000251766
0.000246239
0.000244801
0.000246402
0.000250387
0.000256237
0.000263577
0.000272109
0.000281504
0.000291296
0.000301823
0.000317074
0.000350265
0.000445247
0.000734488
0.00171751
0.00397704
0.00589388
0.00869787
0.00908818
0.0066441
0.0034647
0.0013604
0.00114927
0.00105906
0.00101197
0.00100612
0.00102246
0.00097915
0.00080812
0.0160308
0.00111552
0.00140557
0.00204578
0.0028269
0.00364667
0.00449308
0.00535749
0.00623498
0.00712287
0.00801701
0.0089102
0.00979215
0.010652
0.0114814
0.0122754
0.013033
0.0137557
0.0144461
0.0151059
0.0157336
0.0163034
0.0168189
0.0172732
0.0176578
0.0179623
0.0181765
0.0182906
0.0182967
0.0181896
0.0179674
0.0176319
0.0171879
0.016642
0.0160023
0.0152717
0.0144705
0.0136897
0.0128749
0.0120217
0.0111346
0.0102218
0.00929544
0.00837578
0.00749862
0.0067048
0.00603882
0.0056087
0.00547482
0.00532533
0.0049726
0.00439509
0.00366248
0.00287081
0.00210729
0.00143702
0.000901173
0.000521976
0.000296876
0.00019455
0.000175647
0.000206199
0.000263449
0.000331918
0.000403676
0.00050299
0.000719641
0.00126952
0.00232005
0.00367028
0.00468517
0.00534204
0.00579344
0.00617323
0.00637229
0.0062299
0.00588115
0.00555591
0.00541766
0.0055149
0.00579527
0.00615973
0.00652323
0.00684323
0.00711298
0.007343
0.00755538
0.00778039
0.00801841
0.00827021
0.00853738
0.00882203
0.00912633
0.00945162
0.00979735
0.0101598
0.0105306
0.0108965
0.0112385
0.0115336
0.0117564
0.0118821
0.0118889
0.0117588
0.0114682
0.0110834
0.0106542
0.0101749
0.00966173
0.00912853
0.00858609
0.00804292
0.00750577
0.00697991
0.00646932
0.00597697
0.00550504
0.005055
0.00462753
0.00422281
0.00383946
0.00347012
0.0030956
0.00271487
0.00233243
0.00196171
0.0016208
0.00132484
0.00108034
0.000884437
0.000728195
0.000601231
0.00049512
0.000404738
0.00032787
0.000263855
0.00021215
0.000171851
0.000141541
0.000119395
0.00010342
9.16938e-05
8.25605e-05
7.4751e-05
6.74164e-05
6.00799e-05
5.25939e-05
4.51887e-05
3.84645e-05
3.26811e-05
2.78776e-05
2.41553e-05
2.17325e-05
2.0362e-05
1.97635e-05
1.98342e-05
2.05846e-05
2.20868e-05
2.44788e-05
2.83026e-05
3.4887e-05
4.75551e-05
7.78319e-05
0.000157624
0.000406286
0.00118587
0.00244149
0.00284289
0.00267918
0.0016863
0.000847982
0.000583929
0.000609699
0.000655816
0.000717538
0.000792541
0.000872179
0.000938814
0.000962765
0.000930928
0.0247838
0.00133565
0.0023739
0.00357752
0.0046779
0.00572005
0.00674639
0.00776639
0.00878887
0.00981387
0.0108324
0.0118299
0.0127913
0.0137045
0.0145626
0.015364
0.0161104
0.0168049
0.0174492
0.018043
0.0185832
0.019057
0.0194746
0.019833
0.0201243
0.0203372
0.0204582
0.0204728
0.020368
0.0201342
0.0197666
0.0192666
0.018641
0.0179011
0.0170599
0.0161292
0.0151297
0.0141755
0.0132175
0.0122407
0.0112487
0.0102526
0.00926862
0.00831425
0.00740662
0.00656532
0.00581626
0.00518359
0.00466941
0.00426314
0.00388188
0.0034771
0.0030321
0.00254486
0.00202562
0.00150546
0.00103587
0.000666874
0.000420146
0.000283795
0.00023142
0.000246057
0.000310881
0.000413328
0.000550111
0.000776792
0.00128188
0.00206401
0.00283461
0.00327348
0.00353499
0.00367224
0.00373088
0.00376003
0.00378966
0.00388166
0.00410929
0.00447163
0.00489626
0.0052933
0.00560502
0.00582199
0.00596805
0.006075
0.00616653
0.00625532
0.00636184
0.00648694
0.00662898
0.00678791
0.00696568
0.00716608
0.00739418
0.00765524
0.00795322
0.00828903
0.00865871
0.00905189
0.00945114
0.00983281
0.0101691
0.0104314
0.0105949
0.0106365
0.0105437
0.0103666
0.0101167
0.00980749
0.00945359
0.00906738
0.00865899
0.00823666
0.00780705
0.00737553
0.00694646
0.0065234
0.00610929
0.00570654
0.00531716
0.00494271
0.00458439
0.00424207
0.00391046
0.00358387
0.00325884
0.00293364
0.00260992
0.00229283
0.00198976
0.0017084
0.0014549
0.00123282
0.00104301
0.00088409
0.00075318
0.000646648
0.000560628
0.00049139
0.000435579
0.000390337
0.000353335
0.000322731
0.000297095
0.000275336
0.000256642
0.00024043
0.000226305
0.00021402
0.000203404
0.000194319
0.000186634
0.000180218
0.000174922
0.000170547
0.000166815
0.000163264
0.000159213
0.000153908
0.000146835
0.000138131
0.000129236
0.000124361
0.000134727
0.000197712
0.000431559
0.0010402
0.00154666
0.0013847
0.000917617
0.00049752
0.000403392
0.000447367
0.000469165
0.000498605
0.000549059
0.000619859
0.000705508
0.000789843
0.000841044
0.000836351
0.0341253
0.00181401
0.00367272
0.00530354
0.00662844
0.00784887
0.00903659
0.0102139
0.0113889
0.0125489
0.0136706
0.0147301
0.0157094
0.0165986
0.0173956
0.0181032
0.0187264
0.0192701
0.0197378
0.0201311
0.0204502
0.0207277
0.0209886
0.0212334
0.021453
0.0216304
0.0217428
0.0217644
0.0216692
0.0214352
0.0210473
0.0205002
0.0197989
0.0189566
0.0179916
0.0169213
0.0157761
0.0146817
0.0136004
0.0125099
0.0114096
0.0103069
0.00921842
0.00816933
0.00718751
0.00629214
0.00548987
0.0047903
0.00421744
0.00378206
0.00344664
0.00310664
0.00274358
0.00236329
0.00196835
0.0015642
0.00117476
0.000837631
0.000582672
0.000418671
0.000337984
0.000332518
0.000405829
0.000559996
0.000816467
0.00127129
0.0018242
0.00227132
0.00249639
0.00262471
0.00269943
0.00275329
0.00283278
0.00298441
0.0032329
0.00356973
0.00394192
0.0042713
0.00450028
0.00461762
0.00465096
0.00464244
0.00462791
0.00462921
0.00465606
0.00471117
0.00479557
0.00489799
0.00501493
0.00514526
0.00529055
0.00545516
0.00564586
0.00587081
0.00613796
0.00645285
0.00681622
0.00722184
0.007655
0.00809336
0.00850764
0.00886685
0.00914318
0.00930919
0.00936097
0.00932849
0.00922266
0.00905562
0.00883931
0.00858429
0.00829933
0.00799154
0.00766663
0.00732927
0.00698339
0.00663237
0.00627932
0.00592708
0.00557835
0.00523556
0.0049009
0.0045762
0.00426206
0.0039578
0.00366319
0.00337732
0.00309924
0.0028287
0.00256663
0.00231524
0.00207766
0.00185725
0.00165682
0.00147808
0.00132133
0.00118566
0.00106919
0.000969562
0.000884304
0.000811118
0.000748003
0.000693278
0.000645543
0.000603633
0.000566572
0.000533554
0.00050392
0.000477127
0.000452712
0.000430282
0.000409504
0.000390106
0.000371869
0.00035458
0.000337963
0.000321524
0.000304484
0.000285911
0.000265062
0.000241859
0.000217606
0.000196265
0.000189698
0.000238845
0.000448844
0.000862805
0.000974779
0.000698841
0.000395307
0.000292634
0.000324561
0.000341091
0.000342866
0.000364509
0.00040805
0.000475368
0.000564661
0.000662016
0.000733378
0.000746916
0.0439826
0.00239359
0.00502227
0.00699074
0.00851936
0.00992439
0.011289
0.0126351
0.0139511
0.015199
0.0163372
0.0173336
0.0181718
0.0188503
0.0193785
0.0197721
0.0200502
0.0202319
0.0203356
0.0203775
0.0203715
0.020415
0.0205376
0.0207345
0.0209877
0.0212686
0.0215394
0.0217559
0.0218711
0.0218407
0.0216291
0.021216
0.0205994
0.0197933
0.0188208
0.0177078
0.0164921
0.0153144
0.0141427
0.0129593
0.0117626
0.0105566
0.0093536
0.00817758
0.00706321
0.00604731
0.00515408
0.00438903
0.00375518
0.00326776
0.00293123
0.00269221
0.00244288
0.00216047
0.00185643
0.00154232
0.00123057
0.000942973
0.000705209
0.000536677
0.000447401
0.000441081
0.000541503
0.000785615
0.00121066
0.00163711
0.00190116
0.00202376
0.00210117
0.00216463
0.00223765
0.0023536
0.00254358
0.00281277
0.00312781
0.00342546
0.00364027
0.00373752
0.00372656
0.00364738
0.00354656
0.00345961
0.00340606
0.00339277
0.0034192
0.00348172
0.00356883
0.00366921
0.00377959
0.00389873
0.00402792
0.00417146
0.00433656
0.00453275
0.00477035
0.00505819
0.00540078
0.0057959
0.00623176
0.00668972
0.00713878
0.0075501
0.0078935
0.00812626
0.00827459
0.00834537
0.00834654
0.00828797
0.00817971
0.00803078
0.00784864
0.00763917
0.00740694
0.00715559
0.00688815
0.00660732
0.00631569
0.00601587
0.00571053
0.00540238
0.00509424
0.00478894
0.00448901
0.0041958
0.00391116
0.00363637
0.00337217
0.00311889
0.00287681
0.00264635
0.00242831
0.00222379
0.00203399
0.00185995
0.00170219
0.00156059
0.00143443
0.00132249
0.00122334
0.00113548
0.00105747
0.000988017
0.000925958
0.000870251
0.000819973
0.000774309
0.000732548
0.000694073
0.000658345
0.0006249
0.000593348
0.000563363
0.000534661
0.000506962
0.000479907
0.000452908
0.000425036
0.00039514
0.000362259
0.000326278
0.000288507
0.000252604
0.000231485
0.000267543
0.000439287
0.000681471
0.000622186
0.00038014
0.000235875
0.000238084
0.000261433
0.000250906
0.000246613
0.000263328
0.000301349
0.00036464
0.000454892
0.000561114
0.000646852
0.000676831
0.0542553
0.00297207
0.00628656
0.00855603
0.0103
0.0119041
0.0134419
0.0149114
0.0162613
0.0174211
0.0183354
0.0189783
0.0193542
0.0194916
0.0194329
0.019227
0.0189236
0.0185697
0.018208
0.0178756
0.0176034
0.0175181
0.017625
0.0179075
0.0183399
0.018886
0.0194972
0.0201124
0.0206602
0.0210653
0.0212592
0.0211933
0.0208496
0.0202424
0.0194008
0.0183597
0.0171732
0.0159875
0.0147759
0.0135344
0.0122637
0.0109664
0.00965362
0.0083499
0.00709454
0.00593548
0.00491545
0.00405631
0.00335767
0.00281561
0.00243276
0.00220329
0.00204123
0.0018673
0.0016602
0.00143128
0.0011945
0.00096468
0.00076195
0.000609926
0.000532377
0.000554116
0.000717657
0.00108026
0.00147707
0.00166787
0.00172017
0.00176318
0.00181913
0.00189993
0.0020265
0.00221823
0.00247218
0.00275179
0.00299725
0.00315253
0.00319246
0.00313158
0.00301123
0.0028773
0.00276333
0.00268597
0.00264914
0.00264995
0.00268275
0.00274753
0.00282488
0.00291099
0.0030035
0.00310179
0.00320751
0.00332509
0.00346192
0.00362797
0.00383446
0.00409162
0.00440551
0.00477662
0.00519471
0.0056461
0.00609665
0.00652859
0.00687655
0.00715761
0.0073678
0.00750809
0.00758409
0.00760392
0.00757617
0.00750859
0.00740751
0.00727768
0.00712262
0.00694494
0.00674673
0.00652984
0.00629612
0.00604755
0.00578634
0.00551496
0.00523617
0.00495315
0.00466908
0.00438628
0.00410785
0.00383651
0.00357451
0.00332354
0.00308483
0.00285917
0.00264711
0.00244902
0.00226518
0.00209572
0.00194054
0.00179929
0.00167131
0.00155571
0.00145144
0.0013574
0.00127251
0.00119572
0.00112608
0.00106267
0.00100467
0.000951336
0.000901984
0.000856021
0.000812925
0.000772238
0.000733567
0.000696561
0.000660888
0.000626186
0.000591986
0.000557556
0.000521753
0.000483143
0.000440601
0.000394125
0.000345075
0.000297144
0.000263929
0.000284519
0.000409605
0.000527315
0.000406306
0.000232111
0.000180259
0.000204297
0.000203747
0.000182337
0.000176225
0.000189832
0.000223324
0.000282501
0.000372115
0.000484389
0.000579224
0.000626055
0.0662763
0.00347769
0.00738586
0.00993704
0.0118915
0.0136664
0.0152994
0.0167385
0.0178835
0.0186439
0.0189809
0.018913
0.0185025
0.0178352
0.0170029
0.0160929
0.0151838
0.0143442
0.0136328
0.0130972
0.0127723
0.0127262
0.01293
0.0133676
0.0140227
0.0148722
0.0158778
0.0169784
0.0180872
0.0190959
0.0198884
0.0203656
0.0204737
0.0202211
0.0196427
0.0187863
0.0177377
0.0166235
0.0154345
0.0141831
0.0128743
0.01151
0.0100991
0.00866776
0.0072633
0.00594792
0.00478249
0.00380692
0.00302957
0.00243686
0.00201384
0.0017491
0.00161158
0.00151308
0.00139671
0.00125076
0.00108605
0.000915864
0.000757609
0.000637433
0.000589588
0.000655781
0.000891391
0.00126509
0.00150822
0.00152956
0.00153103
0.00157017
0.00164601
0.00176803
0.00194817
0.00218239
0.00243852
0.00266308
0.00280456
0.00283786
0.00277381
0.00264997
0.00251071
0.0023896
0.00230299
0.00225393
0.00223868
0.00225126
0.00228542
0.00233949
0.00240248
0.00247106
0.0025431
0.00261825
0.00269856
0.00278898
0.00289759
0.00303517
0.00321357
0.00344361
0.00373066
0.00407545
0.00447005
0.0049007
0.00533356
0.00573198
0.0060914
0.00639807
0.00664412
0.0068283
0.00695441
0.00702907
0.00705963
0.00705275
0.00701367
0.00694614
0.00685272
0.00673517
0.00659481
0.00643279
0.00625029
0.00604866
0.00582947
0.00559465
0.00534653
0.00508822
0.00482262
0.00455253
0.00428166
0.00401364
0.00375174
0.00349883
0.00325717
0.00302845
0.00281378
0.00261377
0.00242862
0.00225819
0.00210206
0.00195957
0.00182991
0.00171211
0.00160515
0.00150803
0.00141971
0.00133926
0.00126575
0.00119834
0.00113624
0.00107872
0.00102514
0.00097492
0.000927551
0.000882593
0.000839658
0.000798388
0.000758417
0.000719318
0.000680522
0.000641153
0.000599832
0.000554814
0.000504808
0.000449963
0.000391776
0.000334222
0.000290008
0.000291793
0.00037041
0.000406996
0.000273888
0.000161249
0.000154906
0.000174638
0.000157216
0.000133211
0.00012717
0.000138602
0.000168145
0.000223352
0.000311586
0.000426115
0.000528796
0.000592501
0.0823983
0.00386577
0.0082509
0.0110525
0.013172
0.0150307
0.0166072
0.0177894
0.0184476
0.0185183
0.0180347
0.0171042
0.0158667
0.0144618
0.0130109
0.0116142
0.0103531
0.00929421
0.00848862
0.00797029
0.0077771
0.00783042
0.00810853
0.00861165
0.00935013
0.0103358
0.0115684
0.013019
0.0146146
0.0162299
0.0176968
0.0188408
0.0195316
0.0197566
0.0195455
0.0189662
0.0181494
0.0171749
0.0160717
0.0148634
0.01356
0.0121633
0.0106781
0.00912881
0.00757048
0.00608399
0.00475444
0.00364397
0.00277373
0.0021276
0.00167424
0.00138586
0.00123867
0.0011702
0.00111617
0.00103958
0.000938361
0.00082322
0.000710647
0.000628001
0.000614104
0.000718512
0.000989458
0.00130903
0.00141096
0.00137536
0.00138223
0.00144113
0.00154888
0.00171135
0.00192614
0.00216831
0.00239136
0.00254502
0.00259833
0.00255268
0.00243852
0.00229881
0.00216971
0.00207058
0.00200618
0.00197366
0.00196771
0.00198306
0.00201557
0.00206246
0.00211625
0.00217342
0.00223178
0.00229105
0.00235347
0.00242442
0.00251271
0.00263032
0.00278991
0.00300251
0.00327335
0.00359588
0.00397481
0.00436217
0.0047576
0.00514348
0.00550178
0.00581771
0.00608226
0.00629272
0.00645155
0.00656423
0.00663703
0.00667551
0.00668379
0.00666457
0.00661943
0.00654938
0.00645517
0.00633757
0.00619743
0.00603575
0.00585365
0.00565251
0.00543413
0.00520128
0.00495566
0.00470042
0.00443936
0.00417649
0.00391579
0.00366095
0.00341515
0.00318097
0.00296028
0.00275425
0.00256345
0.00238791
0.00222721
0.00208064
0.00194728
0.00182608
0.00171597
0.00161586
0.00152471
0.00144153
0.00136538
0.00129539
0.00123075
0.00117073
0.00111466
0.00106196
0.0010121
0.000964654
0.000919223
0.000875443
0.000832926
0.0007912
0.000749623
0.000707193
0.000662313
0.000612933
0.000557569
0.000496432
0.000431198
0.000366075
0.000311172
0.00029209
0.000328871
0.000316447
0.000193238
0.000124929
0.000139469
0.000149259
0.000123051
0.000100171
9.50814e-05
0.000104734
0.000130753
0.000182135
0.000268943
0.00038047
0.000493441
0.000573066
0.0997675
0.00407353
0.00881843
0.0118228
0.0140337
0.0158645
0.0172273
0.017968
0.0179774
0.0172797
0.0160206
0.014399
0.0126054
0.0107942
0.00908118
0.00755337
0.00627525
0.00528998
0.00461826
0.00425886
0.00420488
0.00431003
0.00456687
0.00498983
0.0056127
0.00648427
0.00765533
0.00915605
0.0109691
0.0129956
0.0150423
0.0168565
0.0181794
0.0189515
0.0191727
0.0189458
0.0184047
0.0176268
0.016663
0.0155463
0.0142927
0.0129032
0.0113764
0.0097295
0.00802002
0.00634805
0.00483061
0.00356183
0.00258236
0.0018768
0.0013986
0.00109945
0.000943877
0.000884243
0.000864143
0.000836036
0.000784154
0.000714411
0.000642644
0.000596483
0.000615692
0.000751944
0.00102673
0.00126294
0.00128089
0.00124508
0.00127318
0.0013581
0.00149759
0.00169075
0.00192096
0.00214996
0.00232844
0.0024169
0.00240327
0.00230723
0.0021691
0.00202916
0.00191261
0.00182822
0.00177519
0.00174945
0.00174661
0.00176257
0.00179388
0.00183719
0.00188561
0.00193547
0.00198463
0.00203323
0.00208408
0.00214319
0.00222012
0.00232784
0.00248076
0.00268612
0.00295605
0.00326261
0.00360351
0.00396829
0.00434394
0.0047153
0.00506628
0.00538278
0.00565551
0.00588114
0.00606149
0.00620129
0.00630591
0.00637976
0.00642565
0.00644494
0.00643807
0.00640519
0.00634658
0.00626291
0.00615513
0.0060244
0.0058719
0.00569882
0.00550656
0.00529717
0.00507152
0.00483222
0.0045827
0.00432697
0.00406931
0.00381396
0.00356484
0.00332526
0.00309787
0.0028845
0.00268624
0.00250349
0.00233608
0.00218342
0.0020446
0.00191859
0.00180424
0.00170041
0.00160599
0.00151993
0.00144122
0.00136893
0.0013022
0.00124025
0.00118238
0.00112796
0.00107646
0.0010274
0.000980372
0.000935006
0.000890895
0.000847541
0.000804253
0.00075994
0.000712837
0.000660643
0.000601669
0.000536036
0.000465544
0.000394339
0.000328762
0.000288294
0.000289482
0.00024827
0.000145419
0.000106129
0.000127324
0.000129122
9.97638e-05
7.96377e-05
7.59236e-05
8.4014e-05
0.000107231
0.000154699
0.000235417
0.000348084
0.000470238
0.000564607
0.116062
0.00404939
0.00904616
0.0122133
0.0144502
0.0161729
0.0172391
0.017488
0.0168809
0.0155601
0.013774
0.0117719
0.00974982
0.00784574
0.00615659
0.00475042
0.00366762
0.0029175
0.00247975
0.00231343
0.00235127
0.00246988
0.00266184
0.00294156
0.00335009
0.0039581
0.00485638
0.00613396
0.0078525
0.00998625
0.0123713
0.0147245
0.0166241
0.0179429
0.0186207
0.0187768
0.0185364
0.0179895
0.0172011
0.0162136
0.0150484
0.0137062
0.012177
0.0104644
0.00861846
0.00675295
0.00502146
0.00356297
0.00245038
0.00167459
0.00117269
0.000872485
0.00071679
0.000663635
0.00066123
0.000662906
0.000645196
0.000609377
0.000570616
0.000556052
0.000604067
0.000761997
0.0010155
0.00117505
0.00115855
0.00114188
0.00119379
0.0013041
0.00147021
0.0016834
0.00191582
0.00212216
0.00225534
0.00228719
0.0022218
0.00209278
0.00194405
0.00180885
0.00170239
0.00162713
0.00158023
0.00155792
0.00155654
0.00157206
0.00160529
0.0016467
0.00169162
0.00173603
0.00177766
0.0018172
0.00185863
0.00190917
0.00198037
0.00208453
0.00224222
0.00244844
0.00270546
0.00300523
0.00333616
0.00368745
0.00404869
0.00440763
0.0047503
0.00506372
0.00533916
0.0055736
0.00576895
0.00592968
0.00606041
0.00616427
0.0062425
0.00629475
0.00631995
0.00631709
0.00628584
0.00622679
0.00614136
0.00603146
0.005899
0.00574571
0.00557316
0.00538285
0.0051748
0.00495067
0.00471314
0.00446577
0.00421275
0.00395852
0.00370746
0.0034635
0.00322995
0.00300929
0.00280321
0.00261255
0.00243751
0.00227771
0.00213242
0.00200061
0.00188117
0.00177291
0.00167466
0.0015853
0.00150376
0.00142903
0.00136019
0.0012964
0.00123691
0.00118104
0.00112821
0.00107792
0.00102972
0.000983228
0.000938008
0.000893551
0.000849136
0.000803611
0.000755101
0.000701121
0.000639776
0.000570978
0.000496549
0.000420236
0.000344134
0.000283086
0.00025514
0.000199088
0.000117413
9.51475e-05
0.000115039
0.000112014
8.71651e-05
7.1155e-05
6.70115e-05
7.22538e-05
9.13919e-05
0.000134554
0.000212354
0.000326422
0.000456714
0.000564455
0.129776
0.00378172
0.00892805
0.0122542
0.0144947
0.0160992
0.016892
0.0167331
0.0156737
0.0139625
0.0119108
0.00977608
0.0077326
0.00589543
0.00434617
0.00313962
0.00229609
0.00179441
0.00157741
0.00157432
0.00168652
0.00183099
0.00198758
0.00215792
0.00237589
0.0027183
0.00329666
0.00423811
0.00567203
0.00765824
0.0101018
0.0127691
0.015096
0.016853
0.0179776
0.0185213
0.0185888
0.0182839
0.0176872
0.0168518
0.0158045
0.0145458
0.0130563
0.0113205
0.00936898
0.00731569
0.0053483
0.00366277
0.00238274
0.00151757
0.000987806
0.000690676
0.000545699
0.000500472
0.000508396
0.000526898
0.000530638
0.00051828
0.000504599
0.000515529
0.0005865
0.000754563
0.000973456
0.00107657
0.00105445
0.00106029
0.00113385
0.00126589
0.00145225
0.00167704
0.00190432
0.00208493
0.00217527
0.00215856
0.00205418
0.00190544
0.00175446
0.00162597
0.00152785
0.00145911
0.00141631
0.00139616
0.00139574
0.00141215
0.00144472
0.00148498
0.00152796
0.00156896
0.00160488
0.00163659
0.00166969
0.00171256
0.0017815
0.00188593
0.00203935
0.0022491
0.00251137
0.00281392
0.00314312
0.00348852
0.00384155
0.0041921
0.00452789
0.00483734
0.00511296
0.00535294
0.00556002
0.00573881
0.00589324
0.00602509
0.00613375
0.00621693
0.00627166
0.00629534
0.00628654
0.00624547
0.00617394
0.00607496
0.00595193
0.00580805
0.00564633
0.00546785
0.00527219
0.00506006
0.00483309
0.00459398
0.00434635
0.00409447
0.00384283
0.00359574
0.00335704
0.0031298
0.00291625
0.00271778
0.00253495
0.0023677
0.00221549
0.00207741
0.00195239
0.00183923
0.00173673
0.00164371
0.00155904
0.00148164
0.00141053
0.00134481
0.00128367
0.00122637
0.00117231
0.00112091
0.00107173
0.00102432
0.000978236
0.00093296
0.00088775
0.000841417
0.000792013
0.000736929
0.000674075
0.000603077
0.000525638
0.000444843
0.000358687
0.000278783
0.000227532
0.000165097
0.000100868
8.72954e-05
0.000102714
9.86228e-05
8.0212e-05
6.74734e-05
6.23741e-05
6.50953e-05
8.11133e-05
0.000121162
0.000197267
0.000313283
0.000451035
0.000570562
0.132088
0.00613943
0.00819736
0.0119248
0.0142532
0.0158203
0.0164688
0.0160663
0.01475
0.0128501
0.0107102
0.0085738
0.00658538
0.00483729
0.00340161
0.00233055
0.00164005
0.00129762
0.00122811
0.00134851
0.00155472
0.00176942
0.00195144
0.00208608
0.0021965
0.00236029
0.00269387
0.00334272