/*--------------------------------*- C++ -*----------------------------------*\
| =========                 |                                                 |
| \\      /  F ield         | OpenFOAM: The Open Source CFD Toolbox           |
|  \\    /   O peration     | Version:  2112                                  |
|   \\  /    A nd           | Website:  www.openfoam.com                      |
|    \\/     M anipulation  |                                                 |
\*---------------------------------------------------------------------------*/
FoamFile
{
    version     2.0;
    format      ascii;
    arch        "LSB;label=32;scalar=64";
    class       volScalarField;
    location    "0.51";
    object      nut;
}
// * * * * * * * * * * * * * * * * * * * * * * * * * * * * * * * * * * * * * //

dimensions      [0 2 -1 0 0 0 0];

internalField   nonuniform List<scalar> 
12225
(
4.71047e-07
5.02041e-07
4.91186e-07
4.72141e-07
4.58594e-07
4.4679e-07
4.36255e-07
4.27029e-07
4.19243e-07
4.13018e-07
4.08428e-07
4.05491e-07
4.04248e-07
4.04142e-07
4.05284e-07
4.0763e-07
4.10868e-07
4.15634e-07
3.19876e-07
1.07613e-07
5.52895e-08
3.71786e-08
2.95207e-08
2.56398e-08
2.32208e-08
2.14007e-08
1.98346e-08
1.83811e-08
1.69831e-08
1.56705e-08
1.49159e-08
1.47172e-08
1.48003e-08
1.50401e-08
1.53691e-08
1.57183e-08
3.07988e-06
1.81189e-06
1.30554e-06
1.02527e-06
8.40804e-07
7.10987e-07
6.17748e-07
5.51289e-07
5.0574e-07
4.77423e-07
4.64274e-07
4.6654e-07
4.77476e-07
4.90576e-07
5.04858e-07
5.20061e-07
5.36474e-07
5.55234e-07
6.29224e-06
4.7998e-06
3.92482e-06
3.36236e-06
2.97055e-06
2.68433e-06
2.46982e-06
2.30746e-06
2.18517e-06
2.09521e-06
2.03432e-06
1.99399e-06
1.96691e-06
1.95064e-06
1.94372e-06
1.94552e-06
1.95648e-06
1.97912e-06
7.66767e-06
6.72077e-06
5.94732e-06
5.34478e-06
4.87386e-06
4.50178e-06
4.2048e-06
3.96607e-06
3.77384e-06
3.6211e-06
3.49939e-06
3.40097e-06
3.3223e-06
3.26072e-06
3.21445e-06
3.18252e-06
3.16502e-06
3.1639e-06
8.10688e-06
7.57545e-06
7.04853e-06
6.57038e-06
6.15253e-06
5.7936e-06
5.48769e-06
5.22805e-06
5.00919e-06
4.8247e-06
4.6678e-06
4.53477e-06
4.42267e-06
4.32924e-06
4.25282e-06
4.19245e-06
4.14794e-06
4.12058e-06
8.23277e-06
7.89252e-06
7.54035e-06
7.19588e-06
6.87182e-06
6.57472e-06
6.30701e-06
6.06891e-06
5.85869e-06
5.67283e-06
5.50914e-06
5.3656e-06
5.24041e-06
5.1321e-06
5.03952e-06
4.96192e-06
4.89903e-06
4.85166e-06
8.26645e-06
7.99658e-06
7.72994e-06
7.46943e-06
7.21914e-06
6.98261e-06
6.76241e-06
6.55972e-06
6.37405e-06
6.20501e-06
6.05196e-06
5.91407e-06
5.79055e-06
5.68063e-06
5.58367e-06
5.4992e-06
5.42698e-06
5.36762e-06
8.27493e-06
8.02747e-06
7.79451e-06
7.57386e-06
7.36484e-06
7.16761e-06
6.98253e-06
6.80955e-06
6.64866e-06
6.49972e-06
6.36243e-06
6.23645e-06
6.12137e-06
6.01682e-06
5.92242e-06
5.83788e-06
5.76298e-06
5.69829e-06
8.27694e-06
8.03583e-06
7.81414e-06
7.60899e-06
7.41829e-06
7.24062e-06
7.07491e-06
6.92038e-06
6.77643e-06
6.64254e-06
6.51825e-06
6.40316e-06
6.29688e-06
6.19905e-06
6.10937e-06
6.02753e-06
5.95333e-06
5.88729e-06
8.27739e-06
8.03789e-06
7.81947e-06
7.61941e-06
7.43543e-06
7.26567e-06
7.10862e-06
6.96308e-06
6.82803e-06
6.70264e-06
6.58621e-06
6.47814e-06
6.37792e-06
6.28512e-06
6.19932e-06
6.12018e-06
6.04743e-06
5.98157e-06
8.27747e-06
8.03831e-06
7.82065e-06
7.62191e-06
7.43985e-06
7.27256e-06
7.11846e-06
6.9762e-06
6.84461e-06
6.72273e-06
6.60973e-06
6.50489e-06
6.40761e-06
6.31734e-06
6.23362e-06
6.15603e-06
6.08423e-06
6.01871e-06
8.27749e-06
8.0384e-06
7.82091e-06
7.62251e-06
7.44099e-06
7.27448e-06
7.12137e-06
6.98027e-06
6.84998e-06
6.72948e-06
6.61787e-06
6.51438e-06
6.41833e-06
6.32913e-06
6.24625e-06
6.16923e-06
6.0977e-06
6.03213e-06
8.27749e-06
8.0384e-06
7.82091e-06
7.62253e-06
7.44108e-06
7.27469e-06
7.12177e-06
6.98093e-06
6.85094e-06
6.73077e-06
6.6195e-06
6.51632e-06
6.42053e-06
6.33151e-06
6.24869e-06
6.17159e-06
6.09981e-06
6.03384e-06
8.27749e-06
8.03839e-06
7.82086e-06
7.6224e-06
7.44086e-06
7.27437e-06
7.12134e-06
6.98036e-06
6.85024e-06
6.72992e-06
6.61846e-06
6.51507e-06
6.41901e-06
6.32966e-06
6.24644e-06
6.16884e-06
6.09649e-06
6.02988e-06
8.2775e-06
8.03837e-06
7.8208e-06
7.62225e-06
7.44058e-06
7.27393e-06
7.12069e-06
6.97947e-06
6.84906e-06
6.72841e-06
6.61659e-06
6.51277e-06
6.41624e-06
6.32635e-06
6.24254e-06
6.16429e-06
6.09122e-06
6.02386e-06
8.2775e-06
8.03836e-06
7.82074e-06
7.6221e-06
7.4403e-06
7.27346e-06
7.11999e-06
6.97849e-06
6.84776e-06
6.72673e-06
6.61448e-06
6.51018e-06
6.41312e-06
6.32265e-06
6.23819e-06
6.15926e-06
6.08546e-06
6.01737e-06
8.2775e-06
8.03836e-06
7.82069e-06
7.62197e-06
7.44003e-06
7.27301e-06
7.1193e-06
6.97752e-06
6.84645e-06
6.72503e-06
6.61234e-06
6.50756e-06
6.40997e-06
6.31892e-06
6.23386e-06
6.15427e-06
6.0798e-06
6.01102e-06
8.27751e-06
8.03835e-06
7.82064e-06
7.62184e-06
7.43977e-06
7.27258e-06
7.11865e-06
6.9766e-06
6.84521e-06
6.72343e-06
6.61033e-06
6.5051e-06
6.40701e-06
6.31545e-06
6.22983e-06
6.14966e-06
6.07459e-06
6.0052e-06
8.27751e-06
8.03835e-06
7.82062e-06
7.62177e-06
7.43962e-06
7.27231e-06
7.11823e-06
6.97598e-06
6.84435e-06
6.72229e-06
6.60887e-06
6.50328e-06
6.40479e-06
6.31278e-06
6.22667e-06
6.14597e-06
6.07033e-06
6.00034e-06
8.27751e-06
8.03835e-06
7.8206e-06
7.62172e-06
7.4395e-06
7.27208e-06
7.11782e-06
6.97532e-06
6.84336e-06
6.72089e-06
6.60695e-06
6.50074e-06
6.40153e-06
6.30868e-06
6.22161e-06
6.13983e-06
6.06298e-06
5.99167e-06
8.2775e-06
8.0383e-06
7.82045e-06
7.62134e-06
7.43873e-06
7.27067e-06
7.11551e-06
6.97181e-06
6.83833e-06
6.71399e-06
6.59785e-06
6.48907e-06
6.38695e-06
6.29084e-06
6.2002e-06
6.11454e-06
6.03354e-06
5.95786e-06
8.27738e-06
8.03769e-06
7.81872e-06
7.61763e-06
7.432e-06
7.25983e-06
7.09945e-06
6.94946e-06
6.80871e-06
6.6762e-06
6.55109e-06
6.43267e-06
6.32032e-06
6.2135e-06
6.11178e-06
6.01476e-06
5.92221e-06
5.83494e-06
8.27603e-06
8.03183e-06
7.80431e-06
7.59044e-06
7.38822e-06
7.19633e-06
7.01389e-06
6.84026e-06
6.67489e-06
6.51728e-06
6.36699e-06
6.22358e-06
6.08664e-06
5.9558e-06
5.83074e-06
5.71118e-06
5.59695e-06
5.489e-06
8.26368e-06
7.98765e-06
7.7122e-06
7.44027e-06
7.17541e-06
6.92053e-06
6.6775e-06
6.44716e-06
6.2296e-06
6.02444e-06
5.83101e-06
5.64854e-06
5.47622e-06
5.31328e-06
5.15908e-06
5.01302e-06
4.87472e-06
4.74489e-06
8.16938e-06
7.72375e-06
7.26353e-06
6.82298e-06
6.41637e-06
6.04749e-06
5.715e-06
5.41528e-06
5.14415e-06
4.89759e-06
4.67202e-06
4.46434e-06
4.27196e-06
4.09286e-06
3.92548e-06
3.76864e-06
3.62156e-06
3.48452e-06
7.57449e-06
6.52838e-06
5.68378e-06
5.02771e-06
4.51038e-06
4.09271e-06
3.74713e-06
3.45442e-06
3.20129e-06
2.97838e-06
2.77893e-06
2.59769e-06
2.43095e-06
2.27629e-06
2.13227e-06
1.99808e-06
1.87339e-06
1.75845e-06
4.85366e-06
3.14714e-06
2.33409e-06
1.85581e-06
1.53161e-06
1.29186e-06
1.10401e-06
9.50881e-07
8.22691e-07
7.1348e-07
6.19221e-07
5.3607e-07
4.62402e-07
3.97618e-07
3.41362e-07
2.93187e-07
2.52489e-07
2.18475e-07
7.00126e-07
2.48e-07
1.20567e-07
7.18485e-08
5.08822e-08
4.10117e-08
3.59433e-08
3.31214e-08
3.14398e-08
3.03903e-08
2.97354e-08
2.93589e-08
2.91873e-08
2.91428e-08
2.91591e-08
2.91844e-08
2.91786e-08
2.91189e-08
5.70826e-07
6.32655e-07
6.3472e-07
6.19541e-07
5.99498e-07
5.7837e-07
5.57219e-07
5.36282e-07
5.15571e-07
4.95016e-07
4.74436e-07
4.59451e-07
4.45728e-07
4.31938e-07
4.17761e-07
4.03147e-07
3.88121e-07
3.7282e-07
7.95426e-08
2.16109e-07
2.41125e-07
2.6069e-07
2.81368e-07
3.05765e-07
3.34498e-07
3.67789e-07
4.05219e-07
4.45981e-07
4.9e-07
5.39369e-07
5.88002e-07
6.31103e-07
6.6747e-07
6.9625e-07
7.17091e-07
7.29875e-07
7.3474e-07
7.32054e-07
7.22411e-07
7.06038e-07
6.84475e-07
6.60163e-07
6.33279e-07
6.04726e-07
5.76239e-07
5.53744e-07
5.28864e-07
5.01174e-07
4.70043e-07
4.34369e-07
3.9247e-07
3.43097e-07
3.00215e-07
3.08885e-07
3.41419e-07
3.85597e-07
4.37007e-07
4.94474e-07
5.57288e-07
6.24696e-07
6.96284e-07
7.74361e-07
8.65627e-07
9.73592e-07
1.05055e-06
1.09095e-06
1.08665e-06
1.02909e-06
9.17574e-07
7.69753e-07
6.3575e-07
5.56258e-07
5.08094e-07
4.6101e-07
3.82228e-07
2.72343e-07
2.00905e-07
2.0017e-07
2.22814e-07
2.57094e-07
3.02163e-07
3.56086e-07
4.2038e-07
4.84953e-07
5.20849e-07
5.28369e-07
5.26447e-07
5.3439e-07
5.56818e-07
5.52708e-07
4.75098e-07
3.46142e-07
4.65818e-07
6.90385e-07
8.95997e-07
1.07313e-06
1.21989e-06
1.33748e-06
1.42824e-06
1.49488e-06
1.54008e-06
1.56624e-06
1.57546e-06
1.56946e-06
1.54875e-06
1.5155e-06
1.47452e-06
1.42612e-06
1.37059e-06
1.30819e-06
1.23929e-06
1.16439e-06
1.08424e-06
9.99889e-07
9.1275e-07
8.24577e-07
7.374e-07
6.5344e-07
5.75395e-07
5.09041e-07
4.54361e-07
3.96088e-07
3.31585e-07
2.55464e-07
2.87327e-07
3.41262e-07
3.93636e-07
4.44779e-07
5.08735e-07
5.7533e-07
6.4051e-07
7.02095e-07
7.58761e-07
8.09676e-07
8.54368e-07
8.92648e-07
9.2423e-07
9.49632e-07
9.70552e-07
9.79661e-07
9.77322e-07
9.6439e-07
9.4173e-07
9.10366e-07
8.71541e-07
8.26662e-07
7.77285e-07
7.25103e-07
6.71951e-07
6.19807e-07
5.70753e-07
5.26761e-07
4.88931e-07
4.64672e-07
4.4867e-07
4.37252e-07
4.28564e-07
4.21318e-07
4.14591e-07
4.0786e-07
4.00983e-07
3.94121e-07
3.87607e-07
3.81843e-07
3.77246e-07
3.74299e-07
3.73149e-07
3.73644e-07
3.76057e-07
3.80222e-07
3.8576e-07
3.92253e-07
3.99261e-07
4.06464e-07
4.13645e-07
4.20616e-07
4.27104e-07
4.32591e-07
4.36243e-07
4.3742e-07
4.36948e-07
4.38196e-07
4.48085e-07
4.73055e-07
4.82933e-07
3.33691e-07
4.85043e-07
7.51662e-07
9.2184e-07
1.00071e-06
1.00332e-06
9.33761e-07
8.29664e-07
6.99719e-07
5.59746e-07
4.51462e-07
3.43986e-07
1.91198e-07
1.54916e-07
8.68604e-08
1.01056e-07
1.05208e-07
1.28427e-07
1.63389e-07
2.02942e-07
2.44733e-07
2.88139e-07
3.33495e-07
3.82013e-07
4.35567e-07
4.9638e-07
5.68599e-07
6.58363e-07
7.73626e-07
9.24059e-07
1.11921e-06
1.36303e-06
1.64228e-06
1.9136e-06
2.10627e-06
2.24472e-06
2.36993e-06
2.48057e-06
2.57445e-06
2.6493e-06
2.70302e-06
2.73253e-06
2.73509e-06
2.70802e-06
2.64878e-06
2.55491e-06
2.4243e-06
2.25737e-06
2.05967e-06
1.8521e-06
1.64469e-06
1.43441e-06
1.22581e-06
1.02459e-06
8.36991e-07
6.69351e-07
5.28397e-07
4.1421e-07
3.29154e-07
2.85801e-07
3.05803e-07
3.27368e-07
3.27619e-07
3.00477e-07
2.51653e-07
1.95629e-07
1.47508e-07
1.14127e-07
9.12566e-08
6.98396e-08
4.70254e-08
2.83494e-08
2.0716e-08
2.18968e-08
2.49166e-08
2.87651e-08
3.31249e-08
3.85275e-08
4.54871e-08
5.29074e-08
6.90891e-08
1.09504e-07
1.7411e-07
2.42688e-07
2.75252e-07
2.64681e-07
2.58248e-07
2.68462e-07
2.7253e-07
2.61548e-07
2.39946e-07
2.12535e-07
1.83481e-07
1.56136e-07
1.33254e-07
1.1748e-07
1.12268e-07
1.23526e-07
1.58983e-07
2.04232e-07
2.43278e-07
2.91084e-07
3.49976e-07
4.22729e-07
5.12578e-07
6.23089e-07
7.57825e-07
9.19679e-07
1.10979e-06
1.32605e-06
1.5616e-06
1.80415e-06
2.03737e-06
2.24512e-06
2.41707e-06
2.55271e-06
2.62346e-06
2.58468e-06
2.38038e-06
2.12891e-06
1.86438e-06
1.5951e-06
1.3202e-06
1.05835e-06
8.2642e-07
6.31665e-07
4.74486e-07
3.51565e-07
2.5798e-07
1.88413e-07
1.37818e-07
1.01768e-07
7.69877e-08
6.30781e-08
5.61884e-08
5.86824e-08
6.48194e-08
7.15222e-08
7.73918e-08
8.17864e-08
8.44256e-08
8.52078e-08
8.41207e-08
8.1214e-08
7.66199e-08
7.0597e-08
6.3566e-08
5.60686e-08
4.8859e-08
4.25198e-08
3.74591e-08
3.38222e-08
3.14572e-08
3.00037e-08
2.90297e-08
2.81472e-08
2.70757e-08
2.56463e-08
2.37632e-08
2.13942e-08
1.87622e-08
1.67808e-08
1.54596e-08
1.45628e-08
1.39571e-08
1.3549e-08
1.33031e-08
1.31921e-08
1.31903e-08
1.32785e-08
1.34446e-08
1.36833e-08
1.39985e-08
1.445e-08
1.52967e-08
1.73765e-08
2.36612e-08
4.3545e-08
9.29707e-08
1.669e-07
1.66048e-07
1.69799e-07
1.44929e-07
9.5761e-08
4.9556e-08
2.67988e-08
3.14052e-08
3.85581e-08
5.51238e-08
8.72101e-08
1.34829e-07
1.94983e-07
1.71557e-07
2.19718e-07
4.94933e-08
1.65069e-07
2.64924e-07
3.66202e-07
4.64236e-07
5.64651e-07
6.7172e-07
7.90346e-07
9.26164e-07
1.08498e-06
1.27207e-06
1.49112e-06
1.74283e-06
2.02209e-06
2.31619e-06
2.60598e-06
2.87116e-06
3.09746e-06
3.28104e-06
3.4271e-06
3.54182e-06
3.64401e-06
3.73508e-06
3.81435e-06
3.88059e-06
3.93219e-06
3.96728e-06
3.98384e-06
3.97984e-06
3.95339e-06
3.90282e-06
3.82675e-06
3.72409e-06
3.59418e-06
3.43588e-06
3.2528e-06
3.06775e-06
2.87222e-06
2.66637e-06
2.45199e-06
2.23086e-06
2.00345e-06
1.76687e-06
1.51236e-06
1.22073e-06
8.91589e-07
5.59097e-07
3.61539e-07
2.81267e-07
2.37928e-07
2.02758e-07
1.67812e-07
1.32734e-07
9.95388e-08
7.02679e-08
4.61411e-08
2.81878e-08
1.73308e-08
1.3436e-08
1.57087e-08
2.23405e-08
3.10436e-08
3.99653e-08
4.85348e-08
5.87097e-08
7.49699e-08
1.03589e-07
1.44283e-07
1.77763e-07
1.86645e-07
1.79854e-07
1.65253e-07
1.51129e-07
1.37635e-07
1.23665e-07
1.12906e-07
1.10649e-07
1.22747e-07
1.58396e-07
2.34593e-07
3.80797e-07
6.35373e-07
1.00814e-06
1.40469e-06
1.66123e-06
1.75113e-06
1.83435e-06
1.92039e-06
2.0096e-06
2.10214e-06
2.1981e-06
2.29742e-06
2.39986e-06
2.50486e-06
2.61137e-06
2.71776e-06
2.82165e-06
2.91996e-06
3.00905e-06
3.08508e-06
3.14419e-06
3.18241e-06
3.19439e-06
3.17213e-06
3.11918e-06
3.05067e-06
2.96764e-06
2.87193e-06
2.76449e-06
2.64687e-06
2.52091e-06
2.38847e-06
2.25134e-06
2.11129e-06
1.97007e-06
1.82932e-06
1.69045e-06
1.55447e-06
1.42126e-06
1.28336e-06
1.11606e-06
8.6595e-07
5.93362e-07
3.77746e-07
2.35686e-07
1.49506e-07
9.85926e-08
6.84673e-08
5.03056e-08
3.89539e-08
3.14393e-08
2.607e-08
2.19205e-08
1.85213e-08
1.5673e-08
1.33085e-08
1.13965e-08
9.89368e-09
8.73369e-09
7.83823e-09
7.13283e-09
6.55477e-09
6.05357e-09
5.59021e-09
5.13823e-09
4.6893e-09
4.26525e-09
3.88674e-09
3.56096e-09
3.31619e-09
3.19424e-09
3.18129e-09
3.23279e-09
3.33714e-09
3.50716e-09
3.77457e-09
4.18009e-09
4.77184e-09
5.54444e-09
6.72654e-09
9.388e-09
1.43726e-08
2.33453e-08
4.21794e-08
7.83161e-08
1.04836e-07
8.63794e-08
6.07406e-08
3.20818e-08
1.68765e-08
2.51734e-08
1.56447e-07
1.812e-07
2.05377e-07
2.30919e-07
2.56581e-07
2.79442e-07
2.9347e-07
2.90681e-07
2.7786e-07
4.917e-08
3.71413e-07
6.04429e-07
7.91125e-07
9.68094e-07
1.15174e-06
1.34936e-06
1.56591e-06
1.80288e-06
2.05759e-06
2.32337e-06
2.59042e-06
2.84773e-06
3.0854e-06
3.29689e-06
3.48006e-06
3.63671e-06
3.77082e-06
3.88658e-06
3.98715e-06
4.07597e-06
4.15838e-06
4.23497e-06
4.30523e-06
4.36773e-06
4.42026e-06
4.45999e-06
4.48364e-06
4.48775e-06
4.46892e-06
4.42398e-06
4.35016e-06
4.24505e-06
4.10653e-06
3.93261e-06
3.72379e-06
3.50504e-06
3.27292e-06
3.02694e-06
2.77061e-06
2.50925e-06
2.24912e-06
1.99594e-06
1.75334e-06
1.52068e-06
1.29139e-06
1.04915e-06
7.83915e-07
5.23216e-07
3.59701e-07
2.65437e-07
2.04669e-07
1.59202e-07
1.21095e-07
8.7858e-08
5.99646e-08
3.88532e-08
2.52115e-08
1.83865e-08
1.74685e-08
2.26405e-08
3.26363e-08
4.48497e-08
5.80125e-08
7.46312e-08
9.91837e-08
1.26618e-07
1.43284e-07
1.44554e-07
1.37207e-07
1.2607e-07
1.15255e-07
1.08249e-07
1.07902e-07
1.19355e-07
1.51544e-07
2.18823e-07
3.43616e-07
5.55502e-07
8.72312e-07
1.25164e-06
1.57905e-06
1.77543e-06
1.86369e-06
1.89998e-06
1.92629e-06
1.95719e-06
1.99263e-06
2.0325e-06
2.07703e-06
2.12677e-06
2.18253e-06
2.24519e-06
2.31548e-06
2.39361e-06
2.47898e-06
2.56992e-06
2.66359e-06
2.75613e-06
2.84297e-06
2.91937e-06
2.9811e-06
3.02395e-06
3.04322e-06
3.04205e-06
3.02586e-06
2.99638e-06
2.95546e-06
2.90465e-06
2.84529e-06
2.77853e-06
2.70535e-06
2.62664e-06
2.5432e-06
2.45577e-06
2.36509e-06
2.27188e-06
2.17681e-06
2.08043e-06
1.9828e-06
1.88193e-06
1.76519e-06
1.615e-06
1.4248e-06
1.20423e-06
9.7754e-07
7.69982e-07
5.9641e-07
4.60099e-07
3.57284e-07
2.81634e-07
2.26774e-07
1.87301e-07
1.58997e-07
1.38736e-07
1.24261e-07
1.13941e-07
1.0658e-07
1.01287e-07
9.73999e-08
9.44497e-08
9.21394e-08
9.03196e-08
8.89554e-08
8.80908e-08
8.78143e-08
8.82118e-08
8.92957e-08
9.10461e-08
9.34391e-08
9.64193e-08
9.98757e-08
1.03655e-07
1.07511e-07
1.10918e-07
1.12911e-07
1.12085e-07
1.06826e-07
9.56362e-08
7.80637e-08
5.69088e-08
3.93585e-08
3.37958e-08
4.46897e-08
6.69301e-08
6.77887e-08
4.53425e-08
2.37211e-08
1.30307e-08
2.13924e-08
9.41391e-08
1.61144e-07
1.69963e-07
1.84877e-07
2.06073e-07
2.32517e-07
2.60516e-07
2.8202e-07
2.87525e-07
3.30134e-07
6.08556e-08
6.24488e-07
9.7363e-07
1.23319e-06
1.47856e-06
1.72819e-06
1.98705e-06
2.25424e-06
2.52356e-06
2.78602e-06
3.0325e-06
3.25582e-06
3.45199e-06
3.62021e-06
3.76223e-06
3.88124e-06
3.98078e-06
4.06403e-06
4.13347e-06
4.19087e-06
4.24581e-06
4.30416e-06
4.36712e-06
4.43413e-06
4.50316e-06
4.57082e-06
4.63265e-06
4.68337e-06
4.71731e-06
4.72875e-06
4.71235e-06
4.66339e-06
4.57775e-06
4.45188e-06
4.28228e-06
4.06819e-06
3.83272e-06
3.5771e-06
3.30048e-06
3.00677e-06
2.70253e-06
2.39667e-06
2.09954e-06
1.82093e-06
1.5673e-06
1.33972e-06
1.13409e-06
9.40517e-07
7.44066e-07
5.41825e-07
3.84148e-07
2.78276e-07
2.0687e-07
1.55188e-07
1.14861e-07
8.2482e-08
5.74812e-08
3.99937e-08
2.97052e-08
2.60542e-08
2.93048e-08
3.97137e-08
5.48079e-08
7.32621e-08
9.58352e-08
1.14985e-07
1.23568e-07
1.22484e-07
1.1696e-07
1.10183e-07
1.05536e-07
1.06897e-07
1.18901e-07
1.48657e-07
2.07941e-07
3.13877e-07
4.86233e-07
7.33796e-07
1.02528e-06
1.28013e-06
1.43373e-06
1.49633e-06
1.51455e-06
1.52184e-06
1.53189e-06
1.55024e-06
1.57502e-06
1.60529e-06
1.64052e-06
1.6807e-06
1.72637e-06
1.77857e-06
1.83869e-06
1.90815e-06
1.98797e-06
2.0783e-06
2.17798e-06
2.28432e-06
2.39335e-06
2.49981e-06
2.59837e-06
2.68433e-06
2.75256e-06
2.79675e-06
2.82455e-06
2.83787e-06
2.83832e-06
2.82754e-06
2.80695e-06
2.77772e-06
2.74077e-06
2.69682e-06
2.64647e-06
2.59022e-06
2.52861e-06
2.46217e-06
2.39154e-06
2.31739e-06
2.24045e-06
2.16145e-06
2.08088e-06
1.99765e-06
1.90856e-06
1.81003e-06
1.69801e-06
1.57027e-06
1.42845e-06
1.27839e-06
1.12847e-06
9.87028e-07
8.60314e-07
7.51659e-07
6.6171e-07
5.89218e-07
5.31902e-07
4.87149e-07
4.52443e-07
4.25581e-07
4.04745e-07
3.88493e-07
3.75704e-07
3.65521e-07
3.57294e-07
3.50537e-07
3.44899e-07
3.40134e-07
3.36049e-07
3.32459e-07
3.29169e-07
3.25984e-07
3.22708e-07
3.1914e-07
3.15027e-07
3.09935e-07
3.02953e-07
2.92421e-07
2.75973e-07
2.5082e-07
2.14165e-07
1.64937e-07
1.08884e-07
6.25454e-08
4.1407e-08
4.48742e-08
5.45195e-08
4.42941e-08
2.47082e-08
1.24181e-08
1.41019e-08
4.68685e-08
1.17371e-07
1.27436e-07
1.34865e-07
1.49535e-07
1.72231e-07
2.02773e-07
2.37713e-07
2.67555e-07
2.7962e-07
3.78283e-07
7.43485e-08
8.6153e-07
1.30984e-06
1.6272e-06
1.92136e-06
2.21003e-06
2.4949e-06
2.77055e-06
3.02784e-06
3.25803e-06
3.4551e-06
3.61664e-06
3.74352e-06
3.83892e-06
3.90732e-06
3.95368e-06
3.98291e-06
3.99965e-06
4.00814e-06
4.01212e-06
4.02971e-06
4.06718e-06
4.12531e-06
4.20271e-06
4.29609e-06
4.40042e-06
4.50902e-06
4.61393e-06
4.70636e-06
4.77737e-06
4.81853e-06
4.82262e-06
4.7836e-06
4.69622e-06
4.55579e-06
4.35959e-06
4.12887e-06
3.86683e-06
3.57342e-06
3.2527e-06
2.91181e-06
2.56121e-06
2.21418e-06
1.88518e-06
1.58696e-06
1.32705e-06
1.1061e-06
9.19262e-07
7.57257e-07
6.07033e-07
4.60709e-07
3.40624e-07
2.52398e-07
1.88591e-07
1.41035e-07
1.04378e-07
7.61424e-08
5.55542e-08
4.2461e-08
3.69926e-08
3.94564e-08
5.05838e-08
6.85893e-08
9.079e-08
1.06985e-07
1.11787e-07
1.0999e-07
1.06297e-07
1.03109e-07
1.03226e-07
1.1055e-07
1.30397e-07
1.70228e-07
2.41014e-07
3.56429e-07
5.2639e-07
7.41325e-07
9.55196e-07
1.1052e-06
1.16942e-06
1.17747e-06
1.16713e-06
1.15929e-06
1.16088e-06
1.17296e-06
1.19416e-06
1.22149e-06
1.25405e-06
1.29134e-06
1.33326e-06
1.3803e-06
1.43353e-06
1.49457e-06
1.56532e-06
1.64745e-06
1.74176e-06
1.84773e-06
1.96283e-06
2.08344e-06
2.20326e-06
2.31721e-06
2.41992e-06
2.49928e-06
2.56191e-06
2.60937e-06
2.6429e-06
2.66403e-06
2.67438e-06
2.67533e-06
2.66797e-06
2.65306e-06
2.6311e-06
2.60239e-06
2.56713e-06
2.52551e-06
2.47776e-06
2.42423e-06
2.36541e-06
2.30194e-06
2.23461e-06
2.16432e-06
2.09175e-06
2.01696e-06
1.93992e-06
1.85992e-06
1.77581e-06
1.68646e-06
1.59148e-06
1.49178e-06
1.3896e-06
1.28822e-06
1.19115e-06
1.10138e-06
1.02095e-06
9.50739e-07
8.90664e-07
8.39976e-07
7.97564e-07
7.62208e-07
7.32724e-07
7.08035e-07
6.87186e-07
6.6934e-07
6.53768e-07
6.39845e-07
6.27038e-07
6.14898e-07
6.03028e-07
5.91082e-07
5.78751e-07
5.6575e-07
5.51781e-07
5.36451e-07
5.1908e-07
4.98321e-07
4.71823e-07
4.36301e-07
3.87962e-07
3.23123e-07
2.40771e-07
1.5046e-07
7.84728e-08
4.55809e-08
4.29371e-08
4.33227e-08
2.94854e-08
1.47444e-08
1.00886e-08
2.18972e-08
6.78965e-08
9.74326e-08
9.79816e-08
1.04464e-07
1.18688e-07
1.42183e-07
1.7577e-07
2.16563e-07
2.53359e-07
2.72341e-07
4.2305e-07
8.48716e-08
1.06082e-06
1.5971e-06
1.9586e-06
2.2835e-06
2.5887e-06
2.87277e-06
3.12708e-06
3.34146e-06
3.50864e-06
3.62602e-06
3.69558e-06
3.7227e-06
3.71491e-06
3.68076e-06
3.62905e-06
3.56835e-06
3.50678e-06
3.4518e-06
3.40995e-06
3.40352e-06
3.43525e-06
3.50444e-06
3.6089e-06
3.74477e-06
3.90615e-06
4.08476e-06
4.26999e-06
4.44936e-06
4.6095e-06
4.73761e-06
4.82296e-06
4.85757e-06
4.83442e-06
4.74741e-06
4.59267e-06
4.38861e-06
4.13879e-06
3.84426e-06
3.50894e-06
3.14013e-06
2.74953e-06
2.35332e-06
1.97064e-06
1.62021e-06
1.3159e-06
1.06339e-06
8.60096e-07
6.98344e-07
5.67466e-07
4.54616e-07
3.53109e-07
2.70263e-07
2.06171e-07
1.57034e-07
1.19008e-07
8.95168e-08
6.74757e-08
5.29698e-08
4.69144e-08
5.03891e-08
6.31683e-08
8.32434e-08
1.0019e-07
1.04759e-07
1.02409e-07
9.97429e-08
9.87684e-08
1.01754e-07
1.1227e-07
1.35477e-07
1.78424e-07
2.501e-07
3.60088e-07
5.11865e-07
6.8935e-07
8.48811e-07
9.43949e-07
9.68784e-07
9.53938e-07
9.30112e-07
9.12489e-07
9.05312e-07
9.08445e-07
9.23058e-07
9.43754e-07
9.69759e-07
1.00066e-06
1.03628e-06
1.07674e-06
1.1226e-06
1.17491e-06
1.23534e-06
1.30591e-06
1.38862e-06
1.48458e-06
1.59376e-06
1.71358e-06
1.84104e-06
1.96821e-06
2.09237e-06
2.19685e-06
2.28698e-06
2.36221e-06
2.42279e-06
2.46987e-06
2.50507e-06
2.53008e-06
2.54639e-06
2.55512e-06
2.55699e-06
2.55237e-06
2.54135e-06
2.52385e-06
2.49972e-06
2.46883e-06
2.43116e-06
2.38686e-06
2.33627e-06
2.27999e-06
2.21889e-06
2.15394e-06
2.08591e-06
2.01578e-06
1.94432e-06
1.87197e-06
1.79885e-06
1.72493e-06
1.65021e-06
1.57499e-06
1.5e-06
1.4264e-06
1.35557e-06
1.28883e-06
1.22724e-06
1.1714e-06
1.12151e-06
1.07737e-06
1.03858e-06
1.00455e-06
9.74639e-07
9.48191e-07
9.24539e-07
9.03042e-07
8.83097e-07
8.64155e-07
8.45724e-07
8.27363e-07
8.08684e-07
7.89334e-07
7.68963e-07
7.4716e-07
7.23339e-07
6.96492e-07
6.64757e-07
6.25018e-07
5.73017e-07
5.03935e-07
4.1336e-07
3.00854e-07
1.80904e-07
8.90437e-08
4.76836e-08
3.98247e-08
3.41719e-08
2.01489e-08
1.01799e-08
1.11329e-08
3.1106e-08
6.99861e-08
7.52802e-08
7.40252e-08
7.96629e-08
9.31435e-08
1.16806e-07
1.52483e-07
1.98059e-07
2.39853e-07
2.66377e-07
4.65657e-07
8.84009e-08
1.21236e-06
1.83e-06
2.22269e-06
2.56107e-06
2.86111e-06
3.11747e-06
3.31849e-06
3.45406e-06
3.52043e-06
3.52087e-06
3.4643e-06
3.36301e-06
3.23078e-06
3.08144e-06
2.92826e-06
2.78355e-06
2.65843e-06
2.56247e-06
2.50339e-06
2.49584e-06
2.53669e-06
2.62483e-06
2.7594e-06
2.93878e-06
3.1592e-06
3.41344e-06
3.68995e-06
3.97289e-06
4.24326e-06
4.48154e-06
4.67111e-06
4.80181e-06
4.86433e-06
4.85161e-06
4.75978e-06
4.60291e-06
4.38448e-06
4.10592e-06
3.77054e-06
3.38507e-06
2.96155e-06
2.51858e-06
2.08042e-06
1.67301e-06
1.31778e-06
1.02615e-06
7.98015e-07
6.25137e-07
4.96027e-07
3.98214e-07
3.19391e-07
2.53832e-07
2.00604e-07
1.57487e-07
1.22671e-07
9.48482e-08
7.35487e-08
5.94883e-08
5.43508e-08
5.94274e-08
7.37155e-08
9.13065e-08
9.98874e-08
9.77962e-08
9.50943e-08
9.49658e-08
9.9106e-08
1.10545e-07
1.33949e-07
1.75641e-07
2.43206e-07
3.43602e-07
4.77612e-07
6.28997e-07
7.59429e-07
8.31108e-07
8.41515e-07
8.18589e-07
7.89342e-07
7.66706e-07
7.53885e-07
7.50378e-07
7.54858e-07
7.67376e-07
7.84567e-07
8.06125e-07
8.32043e-07
8.6258e-07
8.98264e-07
9.39937e-07
9.88855e-07
1.04678e-06
1.11577e-06
1.19801e-06
1.2944e-06
1.40495e-06
1.52749e-06
1.65818e-06
1.78839e-06
1.90866e-06
2.01887e-06
2.11619e-06
2.19915e-06
2.26779e-06
2.32327e-06
2.36733e-06
2.40186e-06
2.42849e-06
2.44846e-06
2.46254e-06
2.47106e-06
2.47402e-06
2.47114e-06
2.46204e-06
2.44626e-06
2.4234e-06
2.39322e-06
2.35568e-06
2.31103e-06
2.25991e-06
2.20311e-06
2.14151e-06
2.07641e-06
2.00906e-06
1.94064e-06
1.87212e-06
1.80424e-06
1.73752e-06
1.67237e-06
1.60912e-06
1.54815e-06
1.48988e-06
1.43476e-06
1.38321e-06
1.3355e-06
1.29176e-06
1.25193e-06
1.21584e-06
1.18317e-06
1.15353e-06
1.12646e-06
1.10149e-06
1.07812e-06
1.05587e-06
1.03425e-06
1.01284e-06
9.91248e-07
9.69101e-07
9.46056e-07
9.21739e-07
8.9565e-07
8.67021e-07
8.3452e-07
7.9577e-07
7.46889e-07
6.82582e-07
5.96943e-07
4.84899e-07
3.47065e-07
2.03411e-07
9.6738e-08
4.86675e-08
3.63235e-08
2.71274e-08
1.42645e-08
8.23773e-09
1.35098e-08
3.79322e-08
6.16449e-08
5.76316e-08
5.58084e-08
6.05998e-08
7.30464e-08
9.63794e-08
1.33418e-07
1.81972e-07
2.28176e-07
2.62441e-07
5.20942e-07
8.37513e-08
1.30781e-06
2.00331e-06
2.4141e-06
2.74814e-06
3.02038e-06
3.22133e-06
3.33801e-06
3.3642e-06
3.30418e-06
3.17108e-06
2.98309e-06
2.75987e-06
2.52034e-06
2.28176e-06
2.05954e-06
1.8671e-06
1.71551e-06
1.61292e-06
1.56863e-06
1.57271e-06
1.62177e-06
1.71664e-06
1.86041e-06
2.05701e-06
2.30897e-06
2.61457e-06
2.96549e-06
3.34507e-06
3.72879e-06
4.08784e-06
4.39447e-06
4.63553e-06
4.79759e-06
4.87343e-06
4.85989e-06
4.76732e-06
4.59783e-06
4.35197e-06
4.03186e-06
3.64291e-06
3.19632e-06
2.71173e-06
2.21795e-06
1.74918e-06
1.33678e-06
1.00013e-06
7.42531e-07
5.54623e-07
4.21765e-07
3.29363e-07
2.64588e-07
2.15368e-07
1.76555e-07
1.43991e-07
1.16027e-07
9.24701e-08
7.38814e-08
6.17955e-08
5.83642e-08
6.47234e-08
7.91565e-08
9.29025e-08
9.5e-08
9.16714e-08
9.11463e-08
9.50622e-08
1.05751e-07
1.27229e-07
1.65122e-07
2.26108e-07
3.16084e-07
4.35348e-07
5.7001e-07
6.87217e-07
7.52665e-07
7.61259e-07
7.36903e-07
7.05201e-07
6.7915e-07
6.62069e-07
6.53435e-07
6.51977e-07
6.56801e-07
6.66854e-07
6.80339e-07
6.97166e-07
7.17639e-07
7.42426e-07
7.72515e-07
8.0918e-07
8.54015e-07
9.09072e-07
9.76494e-07
1.05843e-06
1.15598e-06
1.2668e-06
1.39278e-06
1.51885e-06
1.64547e-06
1.76777e-06
1.88115e-06
1.98217e-06
2.06911e-06
2.1419e-06
2.20178e-06
2.25066e-06
2.29065e-06
2.32358e-06
2.35083e-06
2.37325e-06
2.3912e-06
2.40466e-06
2.41327e-06
2.41651e-06
2.4137e-06
2.40417e-06
2.38729e-06
2.36261e-06
2.32999e-06
2.28971e-06
2.24204e-06
2.18789e-06
2.12851e-06
2.0653e-06
1.99975e-06
1.93328e-06
1.86714e-06
1.80239e-06
1.73983e-06
1.68003e-06
1.6234e-06
1.57016e-06
1.52047e-06
1.47437e-06
1.43183e-06
1.39274e-06
1.35692e-06
1.32411e-06
1.29402e-06
1.26628e-06
1.24051e-06
1.21631e-06
1.19325e-06
1.1709e-06
1.14887e-06
1.12678e-06
1.10427e-06
1.08102e-06
1.05669e-06
1.03092e-06
1.00314e-06
9.72437e-07
9.37224e-07
8.94672e-07
8.40191e-07
7.67477e-07
6.69517e-07
5.40635e-07
3.82777e-07
2.21085e-07
1.0318e-07
4.91725e-08
3.28848e-08
2.18636e-08
1.06429e-08
7.52551e-09
1.62409e-08
4.13257e-08
5.18695e-08
4.50685e-08
4.30901e-08
4.69577e-08
5.81635e-08
8.07455e-08
1.18697e-07
1.6757e-07
2.19179e-07
2.60875e-07
5.74696e-07
7.39854e-08
1.34295e-06
2.11251e-06
2.53002e-06
2.84451e-06
3.07119e-06
3.1983e-06
3.21587e-06
3.12675e-06
2.94715e-06
2.70106e-06
2.41425e-06
2.11062e-06
1.81107e-06
1.53347e-06
1.29267e-06
1.09992e-06
9.62385e-07
8.82896e-07
8.62903e-07
8.75911e-07
9.20189e-07
9.98922e-07
1.11955e-06
1.29281e-06
1.53009e-06
1.83934e-06
2.22111e-06
2.66349e-06
3.14001e-06
3.6131e-06
4.03599e-06
4.39139e-06
4.65782e-06
4.82719e-06
4.90038e-06
4.88423e-06
4.77727e-06
4.57836e-06
4.28793e-06
3.90935e-06
3.45164e-06
2.93355e-06
2.38657e-06
1.85301e-06
1.37637e-06
9.87638e-07
6.9604e-07
4.91157e-07
3.53494e-07
2.63861e-07
2.0735e-07
1.70213e-07
1.44156e-07
1.22631e-07
1.0283e-07
8.48738e-08
7.0188e-08
6.10599e-08
5.99092e-08
6.76522e-08
8.13817e-08
9.06727e-08
8.94509e-08
8.75195e-08
9.01374e-08
9.89121e-08
1.17073e-07
1.49554e-07
2.02467e-07
2.81499e-07
3.87892e-07
5.11178e-07
6.23928e-07
6.93225e-07
7.08053e-07
6.86582e-07
6.53983e-07
6.25095e-07
6.0449e-07
5.92029e-07
5.86395e-07
5.86312e-07
5.90901e-07
5.98791e-07
6.08861e-07
6.21158e-07
6.36253e-07
6.55252e-07
6.79689e-07
7.11407e-07
7.5248e-07
8.05252e-07
8.72453e-07
9.54675e-07
1.05592e-06
1.16653e-06
1.28658e-06
1.41244e-06
1.53946e-06
1.66258e-06
1.77703e-06
1.87921e-06
1.96726e-06
2.04116e-06
2.10231e-06
2.15289e-06
2.19525e-06
2.23142e-06
2.26289e-06
2.29058e-06
2.3149e-06
2.33581e-06
2.35298e-06
2.36583e-06
2.37361e-06
2.37546e-06
2.37053e-06
2.35801e-06
2.33734e-06
2.30822e-06
2.27057e-06
2.225e-06
2.17254e-06
2.11455e-06
2.05259e-06
1.98834e-06
1.92336e-06
1.8591e-06
1.79674e-06
1.73718e-06
1.68106e-06
1.62874e-06
1.58039e-06
1.53597e-06
1.49535e-06
1.45829e-06
1.42449e-06
1.3936e-06
1.36525e-06
1.33905e-06
1.31459e-06
1.29147e-06
1.26928e-06
1.2476e-06
1.22607e-06
1.20431e-06
1.18201e-06
1.15886e-06
1.13452e-06
1.10862e-06
1.08056e-06
1.04934e-06
1.01317e-06
9.68866e-07
9.1125e-07
8.33113e-07
7.26405e-07
5.84885e-07
4.1183e-07
2.36589e-07
1.09531e-07
4.9722e-08
2.98431e-08
1.79152e-08
8.62253e-09
7.48603e-09
1.82533e-08
4.13317e-08
4.4138e-08
3.71022e-08
3.5143e-08
3.80202e-08
4.80651e-08
6.9479e-08
1.05857e-07
1.56459e-07
2.12959e-07
2.61666e-07
6.19248e-07
6.14786e-08
1.31696e-06
2.15722e-06
2.57564e-06
2.86343e-06
3.03908e-06
3.09201e-06
3.01948e-06
2.83619e-06
2.56983e-06
2.25202e-06
1.91201e-06
1.57487e-06
1.2618e-06
9.90189e-07
7.72595e-07
6.15457e-07
5.18787e-07
4.77213e-07
4.77758e-07
4.94118e-07
5.24641e-07
5.72988e-07
6.48798e-07
7.6799e-07
9.50589e-07
1.21549e-06
1.5763e-06
2.03198e-06
2.56054e-06
3.123e-06
3.64626e-06
4.10837e-06
4.47132e-06
4.73239e-06
4.89686e-06
4.96245e-06
4.92574e-06
4.78376e-06
4.53484e-06
4.17973e-06
3.72414e-06
3.18364e-06
2.58949e-06
1.99003e-06
1.44197e-06
9.92085e-07
6.59989e-07
4.35674e-07
2.93232e-07
2.06638e-07
1.56163e-07
1.28195e-07
1.11948e-07
9.96309e-08
8.7339e-08
7.50027e-08
6.45396e-08
5.87305e-08
6.00331e-08
6.89359e-08
8.11595e-08
8.67155e-08
8.4733e-08
8.51473e-08
9.12743e-08
1.05314e-07
1.31397e-07
1.7514e-07
2.42403e-07
3.36075e-07
4.49864e-07
5.6212e-07
6.41347e-07
6.69112e-07
6.55258e-07
6.23808e-07
5.92681e-07
5.68951e-07
5.53423e-07
5.4485e-07
5.41691e-07
5.42512e-07
5.47058e-07
5.5301e-07
5.59961e-07
5.67982e-07
5.77808e-07
5.90956e-07
6.09595e-07
6.36259e-07
6.73991e-07
7.24722e-07
7.93756e-07
8.76885e-07
9.75401e-07
1.08717e-06
1.20857e-06
1.33537e-06
1.46293e-06
1.58622e-06
1.70042e-06
1.80187e-06
1.88878e-06
1.96133e-06
2.02127e-06