/*--------------------------------*- C++ -*----------------------------------*\
| =========                 |                                                 |
| \\      /  F ield         | OpenFOAM: The Open Source CFD Toolbox           |
|  \\    /   O peration     | Version:  2112                                  |
|   \\  /    A nd           | Website:  www.openfoam.com                      |
|    \\/     M anipulation  |                                                 |
\*---------------------------------------------------------------------------*/
FoamFile
{
    version     2.0;
    format      ascii;
    arch        "LSB;label=32;scalar=64";
    class       volScalarField;
    location    "0.12";
    object      kU;
}
// * * * * * * * * * * * * * * * * * * * * * * * * * * * * * * * * * * * * * //

dimensions      [0 2 -2 0 0 0 0];

internalField   nonuniform List<scalar> 
12225
(
0.547532
0.874865
1.14421
1.39583
1.65699
1.94323
2.26386
2.62555
3.03333
3.49055
3.99846
4.55603
5.15997
5.80529
6.48533
7.19586
7.91833
8.6063
0.166181
0.194275
0.227905
0.267066
0.311888
0.362816
0.420152
0.483618
0.552255
0.624698
0.699586
0.775996
0.853763
0.933752
1.01786
1.11085
1.23093
1.41913
0.151184
0.1542
0.158419
0.162468
0.166375
0.170501
0.175223
0.180843
0.187509
0.195319
0.204403
0.21499
0.227415
0.242124
0.259638
0.280871
0.3071
0.339628
0.150156
0.150522
0.151165
0.152004
0.152993
0.154074
0.155171
0.156027
0.156601
0.15691
0.157013
0.157001
0.156996
0.157147
0.157627
0.158645
0.160426
0.163163
0.150032
0.150093
0.150212
0.150382
0.150607
0.150882
0.151193
0.151501
0.151778
0.151992
0.152103
0.152111
0.152021
0.151848
0.151611
0.151343
0.151088
0.150886
0.149974
0.149962
0.149973
0.150009
0.150076
0.150168
0.150277
0.150394
0.150508
0.150611
0.150691
0.150728
0.150726
0.150691
0.150632
0.150564
0.150507
0.150484
0.149925
0.149865
0.149833
0.149829
0.149855
0.149897
0.149949
0.150006
0.150064
0.150116
0.150159
0.150186
0.150193
0.150189
0.150183
0.150187
0.150207
0.150241
0.149889
0.149794
0.149728
0.149693
0.149692
0.149712
0.149741
0.149773
0.149807
0.149837
0.149863
0.149882
0.149891
0.149898
0.14991
0.14993
0.149962
0.150006
0.149864
0.149744
0.149651
0.149589
0.149559
0.149555
0.149565
0.149582
0.1496
0.149617
0.149632
0.149642
0.149649
0.149658
0.149672
0.149693
0.149723
0.149763
0.149845
0.149707
0.149595
0.14951
0.149455
0.149426
0.149413
0.14941
0.149411
0.149413
0.149415
0.149416
0.149418
0.149424
0.149437
0.149455
0.14948
0.149512
0.149831
0.149679
0.149551
0.14945
0.149374
0.149321
0.149286
0.149263
0.149246
0.149232
0.149221
0.149211
0.149205
0.149205
0.149212
0.149226
0.149246
0.14927
0.149821
0.149659
0.14952
0.149406
0.149315
0.149245
0.149192
0.149151
0.149118
0.14909
0.149067
0.149048
0.149033
0.149025
0.149025
0.149034
0.149047
0.149065
0.149814
0.149643
0.149495
0.14937
0.149266
0.149182
0.149114
0.149058
0.149011
0.148971
0.148936
0.148907
0.148884
0.148867
0.148858
0.148858
0.148865
0.148876
0.149807
0.149628
0.149472
0.149336
0.149221
0.149125
0.149043
0.148973
0.148913
0.148861
0.148815
0.148775
0.148741
0.148715
0.148696
0.148684
0.14868
0.148681
0.149801
0.149616
0.149451
0.149307
0.149182
0.149073
0.14898
0.148898
0.148826
0.148762
0.148705
0.148655
0.148611
0.148573
0.148542
0.148518
0.1485
0.148487
0.149797
0.149606
0.149435
0.149283
0.149148
0.14903
0.148926
0.148834
0.148751
0.148677
0.14861
0.148549
0.148495
0.148446
0.148403
0.148366
0.148333
0.148305
0.149794
0.1496
0.149423
0.149264
0.149123
0.148997
0.148884
0.148783
0.148691
0.148607
0.148531
0.148461
0.148396
0.148337
0.148282
0.148232
0.148186
0.148144
0.149793
0.149596
0.149416
0.149253
0.149107
0.148975
0.148856
0.148747
0.148648
0.148557
0.148472
0.148393
0.148319
0.148249
0.148184
0.148122
0.148063
0.148008
0.149793
0.149597
0.149416
0.149252
0.149104
0.148969
0.148846
0.148734
0.14863
0.148534
0.148443
0.148357
0.148275
0.148197
0.148122
0.14805
0.14798
0.147914
0.149796
0.149602
0.149424
0.149263
0.149116
0.148982
0.148861
0.148749
0.148645
0.148547
0.148455
0.148367
0.148281
0.148199
0.148119
0.148041
0.147965
0.147891
0.1498
0.149611
0.149437
0.14928
0.149137
0.149008
0.14889
0.148781
0.148681
0.148586
0.148496
0.148409
0.148325
0.148242
0.148161
0.148081
0.148003
0.147926
0.149806
0.149623
0.149455
0.149304
0.149167
0.149044
0.148932
0.148831
0.148737
0.148649
0.148566
0.148485
0.148406
0.148328
0.148251
0.148174
0.148097
0.148022
0.149815
0.14964
0.14948
0.149336
0.149207
0.149093
0.148992
0.148902
0.14882
0.148745
0.148674
0.148605
0.148538
0.148471
0.148403
0.148335
0.148265
0.148195
0.149827
0.149663
0.149514
0.14938
0.149264
0.149166
0.149082
0.14901
0.148948
0.148893
0.148842
0.148794
0.148745
0.148695
0.148644
0.148591
0.148535
0.148477
0.149846
0.1497
0.149569
0.149453
0.149357
0.149281
0.149224
0.149181
0.149151
0.14913
0.149117
0.149108
0.1491
0.149091
0.149079
0.149064
0.149043
0.149018
0.149875
0.149754
0.149659
0.149594
0.149561
0.149559
0.149581
0.149626
0.149689
0.149766
0.149855
0.14995
0.150044
0.150129
0.150202
0.150256
0.150291
0.150304
0.149925
0.149871
0.149937
0.150138
0.150436
0.150794
0.15119
0.151609
0.152036
0.152459
0.152867
0.15325
0.153562
0.153776
0.153894
0.153925
0.153879
0.153775
0.150311
0.151305
0.152789
0.154619
0.156695
0.158431
0.159896
0.161215
0.162524
0.16394
0.165551
0.167414
0.169562
0.172007
0.174752
0.1778
0.181166
0.184893
0.15613
0.167568
0.181981
0.19901
0.218346
0.239819
0.263493
0.289509
0.317934
0.34871
0.381656
0.416479
0.452813
0.490248
0.528361
0.566795
0.605312
0.643798
0.411273
0.635264
0.818232
0.980163
1.1358
1.28875
1.44582
1.61134
1.78783
1.97684
2.17931
2.3959
2.62699
2.87271
3.13291
3.40718
3.69463
3.99417
0.446169
0.442531
0.454906
0.477206
0.509859
0.551563
0.596082
0.642423
0.690273
0.739331
0.789527
0.840891
0.893509
0.94749
1.00296
1.06003
1.11885
1.17953
1.24219
1.30695
1.37388
1.44306
1.51445
1.58807
1.66411
1.74283
1.82451
1.90947
1.9955
2.07667
2.15221
2.22123
2.2828
2.33595
2.37962
2.4121
2.43069
2.42647
2.39579
2.3408
2.26402
2.16903
2.06034
1.94288
1.82123
1.69889
1.57775
1.45829
1.34037
1.22437
1.11182
1.00527
0.907728
0.822084
0.750586
0.694523
0.654067
0.628529
0.616527
0.615351
0.619619
0.623714
0.624249
0.619472
0.609399
0.595509
0.580022
0.56533
0.553883
0.54764
0.547084
0.552685
0.569409
0.623758
0.778829
1.10151
1.60078
2.23647
2.88102
3.63249
4.49425
5.44752
6.46345
7.50855
8.54913
9.55471
10.5001
11.3661
12.1388
12.8087
13.369
13.8159
14.1473
14.3609
14.4536
14.4202
14.2973
14.1135
13.8719
13.5739
13.221
12.8152
12.3584
11.8523
11.2985
10.7252
10.1464
9.56493
8.98441
8.4088
7.84142
7.2841
6.73762
6.20596
5.69217
5.19866
4.72742
4.27989
3.85707
3.45912
3.08535
2.73502
2.40964
2.11126
1.87569
1.72624
1.64652
1.62784
1.64442
1.6616
1.68039
1.70359
1.74088
1.80838
1.92075
2.08405
2.29551
2.5428
2.81205
3.09493
3.38975
3.69935
4.02884
4.3842
4.77157
5.19688
5.66566
6.18271
6.75454
7.38918
8.09679
8.8903
9.78418
10.7926
11.9277
13.1971
14.6003
16.1215
17.721
19.3163
20.7362
21.9222
22.8545
23.5167
23.8957
23.9852
23.784
23.294
22.517
21.4538
20.1063
18.4864
16.6292
14.6047
12.521
10.5132
8.72229
7.24679
6.14325
5.33807
0.688956
0.615018
0.584458
0.573379
0.574678
0.582801
0.594165
0.606941
0.62009
0.632805
0.644433
0.654489
0.662654
0.668758
0.672759
0.674717
0.674774
0.673137
0.670054
0.665805
0.660687
0.654995
0.649016
0.642944
0.63684
0.630799
0.624987
0.619732
0.617662
0.62404
0.638069
0.659269
0.686863
0.719834
0.757014
0.797085
0.838011
0.876838
0.911181
0.939192
0.959082
0.969386
0.969153
0.958014
0.936131
0.904029
0.862377
0.811886
0.753452
0.688518
0.619385
0.549297
0.482067
0.421306
0.369629
0.328223
0.296949
0.274511
0.25896
0.249066
0.245971
0.250588
0.261313
0.275032
0.288277
0.298272
0.303466
0.303893
0.301909
0.302982
0.315561
0.351648
0.432033
0.596385
0.900459
1.37853
1.93969
2.4228
2.88381
3.33328
3.75456
4.12697
4.43399
4.66629
4.82215
4.90628
4.92785
4.8982
4.82909
4.73145
4.61462
4.48542
4.34737
4.20251
4.05283
3.90096
3.75341
3.61544
3.48993
3.38048
3.29152
3.2277
3.19369
3.1945
3.23331
3.28492
3.33372
3.37825
3.41686
3.44768
3.46903
3.48061
3.48419
3.47901
3.463
3.43434
3.39144
3.3334
3.25938
3.16916
3.06353
2.94479
2.81808
2.68772
2.56202
2.43573
2.33039
2.23852
2.16028
2.09471
2.03934
1.99378
1.95876
1.93599
1.92708
1.93251
1.9514
1.98117
2.0184
2.06007
2.10425
2.15007
2.19732
2.24622
2.29704
2.34925
2.39831
2.43505
2.45547
2.46407
2.4692
2.47907
2.5007
2.54035
2.60433
2.69971
2.83481
3.01937
3.26516
3.59592
4.06531
4.64163
5.2731
5.92268
6.56281
7.16718
7.70191
8.12088
8.3757
8.42812
8.25871
7.86775
7.27582
6.52496
5.67783
4.80968
3.9954
3.29446
2.75056
2.37545
1.02485
0.80787
0.712424
0.666134
0.645996
0.640033
0.64128
0.645742
0.651112
0.655981
0.659461
0.661025
0.660417
0.657589
0.652644
0.645793
0.637307
0.627489
0.616646
0.605072
0.593042
0.580795
0.568544
0.556457
0.544645
0.53319
0.52216
0.511609
0.501643
0.49275
0.485633
0.480704
0.478486
0.479471
0.484051
0.492446
0.504566
0.519897
0.537617
0.556642
0.575613
0.592994
0.607204
0.616729
0.620228
0.616621
0.605155
0.585496
0.557865
0.523206
0.483266
0.440492
0.397668
0.357383
0.321572
0.291279
0.266683
0.247276
0.232049
0.219902
0.210342
0.203841
0.20135
0.203745
0.211112
0.222479
0.236128
0.250422
0.265473
0.285626
0.321991
0.395463
0.541761
0.81181
1.26939
1.77283
2.20786
2.57251
2.87674
3.11577
3.28187
3.37375
3.3983
3.3687
3.30119
3.21199
3.11507
3.02097
2.93668
2.86606
2.81049
2.76954
2.74185
2.72613
2.72131
2.72662
2.74157
2.76552
2.79771
2.83738
2.88366
2.93547
2.99155
3.05047
3.11201
3.17514
3.23956
3.3049
3.37059
3.43586
3.49977
3.56125
3.61916
3.67228
3.71919
3.75811
3.78618
3.80343
3.8089
3.79974
3.7727
3.72408
3.65295
3.55564
3.44281
3.32754
3.21099
3.09669
2.98838
2.88831
2.79795
2.71767
2.64736
2.5868
2.53556
2.49288
2.45772
2.42881
2.40474
2.38411
2.36568
2.34841
2.33153
2.31447
2.29685
2.27827
2.25788
2.23417
2.206
2.17353
2.13795
2.10085
2.0639
2.02877
1.99727
1.97143
1.9535
1.94514
1.94788
1.96757
2.0301
2.14945
2.33179
2.57723
2.88022
3.22859
3.60064
3.96415
4.27843
4.50175
4.60095
4.55623
4.36426
4.03959
3.61341
3.12873
2.63382
2.1743
1.79189
1.51436
1.36407
0.958843
0.790305
0.710869
0.674376
0.659515
0.65507
0.654795
0.655132
0.654112
0.650783
0.644846
0.636423
0.625878
0.613697
0.600402
0.586483
0.572372
0.558422
0.544914
0.532054
0.51998
0.50876
0.498407
0.488895
0.480178
0.472191
0.464861
0.458115
0.451895
0.446355
0.441457
0.437265
0.433898
0.431538
0.430427
0.430824
0.432934
0.436842
0.442454
0.449439
0.457207
0.464918
0.471531
0.475883
0.47681
0.473284
0.464561
0.450338
0.430895
0.407151
0.380578
0.352955
0.326055
0.301369
0.279942
0.262294
0.248394
0.237726
0.229519
0.222927
0.217405
0.213119
0.211183
0.213373
0.221268
0.235328
0.254904
0.280453
0.318344
0.38615
0.514973
0.751239
1.17136
1.62278
2.02358
2.34639
2.58698
2.74761
2.83195
2.84957
2.81663
2.75278
2.67711
2.60506
2.54696
2.50791
2.48873
2.48725
2.49973
2.52195
2.55006
2.58101
2.6127
2.64391
2.67406
2.70298
2.73075
2.75756
2.78366
2.80931
2.83474
2.86022
2.88577
2.91544
2.94944
2.9879
3.03071
3.07765
3.12837
3.18247
3.23959
3.29957
3.3623
3.42753
3.49368
3.56552
3.64259
3.72277
3.80185
3.87345
3.92827
3.95673
3.95799
3.93524
3.88958
3.82187
3.73818
3.64433
3.54626
3.44893
3.35529
3.26691
3.18444
3.10784
3.03662
2.97006
2.90732
2.84757
2.79002
2.73391
2.67859
2.62354
2.56838
2.51276
2.45634
2.39887
2.3402
2.28035
2.21973
2.15898
2.0989
2.04042
1.98448
1.93194
1.88355
1.84
1.80192
1.77004
1.74643
1.73655
1.74689
1.78667
1.86567
1.99109
2.16419
2.37711
2.61184
2.84147
3.03591
3.1677
3.21506
3.16437
3.01319
2.77142
2.46093
2.11356
1.76675
1.4597
1.2242
1.64925
1.04614
0.819316
0.721982
0.681258
0.665705
0.659927
0.656155
0.650637
0.641883
0.629693
0.614575
0.597361
0.578982
0.560308
0.54207
0.524823
0.508947
0.494668
0.482096
0.471247
0.462051
0.454369
0.448012
0.442789
0.438518
0.435025
0.432158
0.429779
0.427778
0.426202
0.424943
0.423854
0.422819
0.42177
0.420698
0.41966
0.418774
0.418192
0.418064
0.418477
0.41939
0.420579
0.421605
0.421825
0.420461
0.416719
0.409936
0.399724
0.386096
0.369537
0.350964
0.331603
0.312798
0.29584
0.281786
0.271263
0.264331
0.260466
0.258625
0.257428
0.255568
0.252462
0.248927
0.247378
0.25108
0.262662
0.283555
0.317103
0.3761
0.487443
0.694583
1.07052
1.48017
1.85219
2.15251
2.36677
2.49581
2.54976
2.54511
2.50302
2.44552
2.39137
2.35333
2.3374
2.34361
2.36783
2.40384
2.44504
2.48576
2.52178
2.55052
2.57079
2.58258
2.5866
2.58409
2.57645
2.5652
2.55185
2.5379
2.52475
2.51372
2.50612
2.50394
2.50784
2.51748
2.5324
2.55208
2.57597
2.60353
2.63433
2.66812
2.70491
2.7445
2.78993
2.84651
2.91761
3.00581
3.11262
3.23772
3.37656
3.52268
3.65376
3.7691
3.86313
3.93058
3.96809
3.97292
3.94698
3.89745
3.83117
3.75426
3.67164
3.58649
3.5006
3.41474
3.32923
3.24414
3.15945
3.07499
2.99054
2.90585
2.82074
2.73515
2.64898
2.5621
2.47462
2.38684
2.29903
2.21266
2.12908
2.04938
1.97453
1.90542
1.84277
1.78709
1.73866
1.69747
1.66331
1.63553
1.6139
1.59997
1.59813
1.6162
1.66314
1.7461
1.86739
2.02329
2.19994
2.37015
2.50616
2.58661
2.59675
2.52805
2.38031
2.16359
1.89928
1.61805
1.35555
1.14284
1.8161
1.06579
0.814219
0.718968
0.684356
0.671766
0.664117
0.654212
0.639715
0.620672
0.598204
0.573801
0.548942
0.524896
0.502624
0.48275
0.465609
0.451295
0.439739
0.430742
0.424039
0.419348
0.416296
0.414449
0.41361
0.413564
0.414117
0.415106
0.416395
0.417875
0.419514
0.421177
0.422682
0.423881
0.42466
0.424962
0.424789
0.424216
0.423385
0.422474
0.421639
0.420767
0.419577
0.41806
0.415977
0.412921
0.408381
0.401915
0.393291
0.382595
0.370282
0.357182
0.344446
0.333381
0.325201
0.320679
0.319822
0.321737
0.324749
0.326765
0.325831
0.320783
0.311855
0.301055
0.292098
0.289543
0.297387
0.31924
0.363762
0.452851
0.62687
0.958307
1.33216
1.68234
1.97026
2.17682
2.29874
2.34683
2.34089
2.30473
2.26138
2.22889
2.21787
2.23125
2.26569
2.31402
2.3677
2.41889
2.46153
2.49175
2.5077
2.50923
2.49736
2.47404
2.44173
2.40315
2.36103
2.318
2.27651
2.23879
2.20681
2.18215
2.16593
2.15895
2.15785
2.16138
2.16835
2.17762
2.18812
2.19883
2.20888
2.2176
2.22415
2.23099
2.24275
2.26255
2.29418
2.34221
2.41222
2.51004
2.64005
2.7861
2.95021
3.12615
3.30364
3.4712
3.61786
3.73464
3.81568
3.85712
3.86295
3.84015
3.79535
3.73447
3.6619
3.58049
3.4922
3.3986
3.30097
3.20021
3.09692
2.99148
2.88417
2.77526
2.66499
2.55355
2.44101
2.32898
2.21931
2.11349
2.01288
1.91878
1.83233
1.75449
1.68598
1.62723
1.5784
1.53936
1.50969
1.48873
1.47555
1.46831
1.46548
1.47017
1.4885
1.52801
1.59474
1.69241
1.81878
1.96156
2.10058
2.21009
2.26466
2.25281
2.16948
2.01761
1.81169
1.57704
1.34593
1.14772
1.88981
1.04917
0.802524
0.722451
0.696805
0.684684
0.67083
0.650834
0.624898
0.594942
0.563262
0.531941
0.502643
0.476524
0.454207
0.43591
0.421537
0.410789
0.403228
0.398064
0.394878
0.393451
0.393507
0.394765
0.396949
0.399796
0.403077
0.406599
0.41022
0.413857
0.41761
0.421603
0.425457
0.428856
0.431578
0.433508
0.434633
0.435043
0.434915
0.434482
0.43398
0.433564
0.43325
0.433017
0.43271
0.432057
0.430225
0.427036
0.422671
0.41765
0.412867
0.409465
0.408613
0.411097
0.416809
0.424456
0.431724
0.4359
0.434672
0.426757
0.412182
0.392249
0.369396
0.347111
0.329772
0.322057
0.328395
0.355307
0.419312
0.556179
0.835166
1.17369
1.50573
1.78857
1.9979
2.12647
2.18215
2.18451
2.15845
2.12781
2.11073
2.1171
2.14856
2.20017
2.26318
2.32778
2.38536
2.42959
2.45669
2.46521
2.45555
2.4295
2.38998
2.34063
2.28542
2.22823
2.17263
2.12167
2.07784
2.04294
2.01811
2.00376
1.99948
2.00327
2.01013
2.01835
2.02646
2.03318
2.0373
2.03762
2.0331
2.02283
2.00762
1.99049
1.97289
1.95659
1.94429
1.93969
1.94865
1.9794
2.03235
2.11295
2.2255
2.37029
2.54315
2.7353
2.93428
3.12585
3.29654
3.43539
3.53535
3.59296
3.61369
3.60374
3.56875
3.51347
3.4416
3.35634
3.26051
3.15644
3.04591
2.93026
2.81045
2.68723
2.56117
2.43253
2.3031
2.17542
2.05156
1.93335
1.82246
1.72033
1.62816
1.54683
1.4769
1.41866
1.3721
1.33701
1.313
1.29948
1.29565
1.29984
1.30913
1.32297
1.34254
1.37121
1.41478
1.47903
1.56778
1.67922
1.80346
1.92193
2.01138
2.04888
2.02042
1.92467
1.77004
1.57663
1.37339
1.18808
1.87296
1.01961
0.802985
0.741584
0.720456
0.702817
0.678256
0.64617
0.609199
0.570543
0.532948
0.498419
0.46824
0.44304
0.422915
0.407581
0.396493
0.389102
0.384363
0.381771
0.381241
0.382466
0.385127
0.388897
0.393463
0.398538
0.403883
0.409314
0.414714
0.420093
0.425702
0.431576
0.437067
0.441776
0.445595
0.448544
0.450731
0.452343
0.453636
0.454904
0.456452
0.458589
0.461599
0.465745
0.471141
0.477789
0.485531
0.494509
0.504141
0.515199
0.528438
0.543764
0.559939
0.574521
0.58437
0.586583
0.579403
0.562658
0.537603
0.506386
0.471508
0.435562
0.401325
0.372021
0.351387
0.34352
0.353878
0.394613
0.499312
0.713748
1.00811
1.31958
1.59949
1.81781
1.96162
2.03384
2.05079
2.03659
2.01586
2.00785
2.02342
2.06468
2.12673
2.20036
2.27509
2.34155
2.39282
2.42475
2.43567
2.4259
2.39742
2.35375
2.29951
2.23978
2.17946
2.12298
2.07437
2.03601
2.0091
1.99378
1.98922
1.9939
2.00578
2.02104
2.03553
2.04753
2.0557
2.05895
2.05629
2.0462
2.02865
2.00517
1.97636
1.94324
1.90662
1.86697
1.8263
1.78588
1.74963
1.72251
1.70842
1.71273
1.74224
1.80325
1.90003
2.03301
2.19743
2.38335
2.57743
2.76464
2.93087
3.06483
3.15917
3.21334
3.23224
3.22036
3.18208
3.12154
3.0427
2.94913
2.84391
2.72955
2.60799
2.48071
2.34871
2.21293
2.07666
1.94291
1.81418
1.69261
1.58
1.47783
1.38717
1.30868
1.24263
1.189
1.14755
1.11791
1.09965
1.09233
1.0955
1.10849
1.12901
1.15535
1.18618
1.22146
1.26328
1.3157
1.38374
1.4708
1.57528
1.68773
1.79079
1.86247
1.88283
1.83862
1.73334
1.58139
1.40763
1.23784
1.77485
0.999478
0.825455
0.7764
0.751427
0.722913
0.686033
0.64317
0.598236
0.554661
0.514836
0.480162
0.45126
0.42815
0.410432
0.397492
0.388633
0.383172
0.380421
0.379823
0.381274
0.384342
0.388629
0.39379
0.399549
0.405697
0.412087
0.418627
0.425252
0.431899
0.438511
0.445096
0.451635
0.457866
0.463808
0.469572
0.475362
0.48148
0.488329
0.496402
0.506275
0.518639
0.534337
0.554442
0.579522
0.607143
0.636007
0.666178
0.696182
0.723684
0.745703
0.759128
0.761422
0.751377
0.729491
0.697734
0.65891
0.61588
0.570953
0.525869
0.48213
0.441395
0.405748
0.377796
0.360723
0.359044
0.384354
0.461469
0.614879
0.850958
1.12945
1.40078
1.62843
1.79216
1.88768
1.92535
1.92601
1.91409
1.91061
1.92884
1.97315
2.04023
2.12162
2.2067
2.28536
2.34965
2.39446
2.41722
2.41728
2.39578
2.35561
2.3008
2.23951
2.17912
2.12498
2.0811
2.05005
2.03278
2.0288
2.03638
2.05286
2.07501
2.09941
2.12182
2.13949
2.15083
2.15479
2.15092
2.13923
2.12001
2.09342
2.05985
2.01985
1.97449
1.92503
1.8708
1.81396
1.75409
1.69561
1.63954
1.58731
1.54276
1.5112
1.49905
1.51314
1.55937
1.64117
1.75754
1.90243
2.06569
2.234
2.3932
2.53056
2.63673
2.70674
2.74228
2.74581
2.72055
2.67025
2.5989
2.51039
2.40825
2.2955
2.17456
2.04711
1.91527
1.78305
1.65389
1.53063
1.41559
1.31058
1.21691
1.13531
1.06609
1.00918
0.964222
0.930733
0.908162
0.895999
0.893846
0.901505
0.91924
0.946206
0.981065
1.02202
1.06737
1.11643
1.17029
1.23204
1.30573
1.3939
1.49428
1.59726
1.68581
1.7395
1.74107
1.68249
1.57244
1.43095
1.28101
1.62962
0.997443
0.864013
0.819352
0.785811
0.745596
0.698175
0.647589
0.597999
0.552374
0.512368
0.47865
0.451261
0.429803
0.413621
0.401982
0.394194
0.389681
0.38797
0.388614
0.391139
0.395085
0.400083
0.405865
0.412249
0.41913
0.426462
0.434248
0.442533
0.451419
0.461066
0.471667
0.483711
0.496756
0.510947
0.526558
0.54397
0.563663
0.586181
0.612067
0.641778
0.675583
0.713387
0.754456
0.796984
0.838022
0.873977
0.90106
0.915491
0.914817
0.898623
0.868925
0.829368
0.783939
0.735877
0.68699
0.63857
0.591495
0.545987
0.50277
0.46293
0.427874
0.399434
0.380155
0.374113
0.389107
0.44058
0.548809
0.723284
0.952284
1.20009
1.42879
1.61095
1.73344
1.79795
1.81884
1.81796
1.81741
1.8337
1.87494
1.94112
2.02599
2.11979
2.21199
2.29344
2.35748
2.39994
2.41851
2.41244
2.38265
2.33307
2.27412
2.21421
2.1603
2.11745
2.08881
2.07571
2.07764
2.09258
2.11738
2.14824
2.1811
2.21215
2.23735
2.25493
2.26353
2.26254
2.25201
2.23252
2.20494
2.16976
2.12742
2.07801
2.02235
1.96327
1.8989
1.83055
1.76252
1.69311
1.62285
1.55271
1.4845
1.42126
1.36733
1.32809
1.30941
1.31684
1.35437
1.42283
1.51918
1.63669
1.76533
1.89343
2.00944
2.10318
2.16853
2.20434
2.21117
2.19101
2.14677
2.08193
2.00019
1.90515
1.80013
1.68778
1.57083
1.45359
1.33957
1.23167
1.13219
1.04277
0.964417
0.897559
0.84219
0.797967
0.764332
0.740615
0.726149
0.720356
0.722834
0.733481
0.753094
0.782031
0.819793
0.865307
0.916948
0.972975
1.03239
1.09571
1.16518
1.24389
1.33309
1.42926
1.52201
1.59463
1.6288
1.61139
1.54142
1.43366
1.30745
1.47237
1.00634
0.909415
0.865342
0.82284
0.772936
0.717938
0.662526
0.610554
0.564325
0.524778
0.492032
0.46581
0.445543
0.430492
0.41989
0.413042
0.409359
0.408342
0.409544
0.412564
0.417069
0.422825
0.429694
0.437648
0.446759
0.4572
0.469216
0.483103
0.49916
0.517653
0.538811
0.562819
0.58971
0.619148
0.65121
0.685884
0.722989
0.762096
0.802441
0.842841
0.881653
0.916774
0.94576
0.966085
0.975557
0.972722
0.957302
0.930391
0.894427
0.852575
0.807888
0.762552
0.717673
0.673617
0.630512
0.588694
0.548702
0.511089
0.476655
0.446421
0.421717
0.404474
0.397824
0.407197
0.441773
0.514594
0.637089
0.809206
1.01582
1.22871
1.41893
1.5657
1.66061
1.70842
1.72459
1.72961
1.74243
1.77573
1.83428
1.91584
2.01309
2.11621
2.21529
2.30205
2.37032
2.41552
2.43428
2.42381
2.38782
2.33595
2.27776
2.22176
2.1748
2.14172
2.12512
2.1254
2.14101
2.16886
2.20494
2.2448
2.28383
2.31751
2.34212
2.35661
2.36002
2.35227
2.33404
2.30657
2.27147
2.22938
2.1806
2.12469
2.06147
1.9954
1.9253
1.85209
1.77662
1.69954
1.62126
1.54213
1.46284
1.38487
1.31084
1.2444
1.18987
1.15173
1.13409
1.14003
1.1706
1.2243
1.29688
1.38136
1.46896
1.54969
1.61536
1.66135
1.68504
1.68569
1.66413
1.62236
1.56329
1.49028
1.40685
1.31639
1.22201
1.12703
1.03504
0.948856
0.870455
0.801168
0.741725
0.692337
0.652809
0.622656
0.601217
0.587747
0.581516
0.581906
0.588485
0.601152
0.620927
0.648976
0.685471
0.730231
0.782509
0.840917
0.903822
0.970104
1.03988
1.1145
1.19602
1.28465
1.37466
1.4547
1.50892
1.52229
1.48732
1.41222
1.31187
1.31694
1.01975
0.955553
0.911293
0.86171
0.805077
0.745482
0.687682
0.635029
0.589218
0.55064
0.519042
0.494034
0.475037
0.461352
0.452265
0.447132
0.445405
0.446633
0.450454
0.456589
0.464847
0.475128
0.48741
0.501737
0.518191
0.536867
0.557836
0.581114
0.606632
0.63421
0.663505
0.694009
0.725878
0.758675
0.791658
0.823948
0.854455
0.881915
0.904961
0.922245
0.932596
0.935203
0.929791
0.91672
0.89694
0.871797
0.842785
0.811297
0.778432
0.744918
0.711159
0.677382
0.6438
0.61071
0.57852
0.547733
0.518911
0.492658
0.469705
0.451012
0.437983
0.432832
0.439142
0.462505
0.510727
0.592427
0.712964
0.869306
1.04829
1.22853
1.38779
1.50986
1.5888
1.63007
1.64806
1.66089
1.6847
1.72974
1.79935
1.89075
1.99678
2.10814
2.21559
2.31135
2.38875
2.44177
2.46268
2.45228
2.4178
2.36792
2.31205
2.25879
2.2154
2.18706
2.17639
2.18346
2.20619
2.24091
2.28301
2.32745
2.36885
2.40041
2.42005
2.42764
2.423
2.40691
2.38083
2.34648
2.3056
2.25884
2.2064
2.14829
2.08457
2.01553
1.94173
1.86405
1.78349
1.70098
1.61724
1.53263
1.44739
1.36216
1.27849
1.1989
1.12659
1.06495
1.01707
0.985515
0.97196
0.976715
0.998374
1.03373
1.07755
1.12378
1.16695
1.20189
1.22434
1.23148
1.22213
1.19664
1.15661
1.10446
1.04314
0.975846
0.905743
0.835865
0.768903
0.706719
0.651013
0.602917
0.562929
0.531094
0.507156
0.490614
0.480812
0.476974
0.478317
0.484188
0.494127
0.508007
0.526829
0.552278
0.584965
0.625386
0.673666
0.729309
0.791131
0.857633
0.927646
1.00082
1.07761
1.15923
1.24385
1.32452
1.38858
1.42152
1.41381
1.36777
1.29317
1.17496
1.03065
0.996997
0.954136
0.900439
0.840217
0.778884
0.720851
0.669216
0.625233
0.588692
0.558789
0.535221
0.517523
0.505115
0.497407
0.493861
0.494011
0.497455
0.503851
0.512912
0.524395
0.538092
0.553814
0.571374
0.590573
0.611178
0.632911
0.655432
0.67833
0.701129
0.72329
0.744228
0.763332
0.780156
0.794381
0.805379
0.812595
0.81565
0.814412
0.809034
0.799944
0.787789
0.773324
0.757285
0.740271
0.722668
0.704652
0.686256
0.667456
0.648251
0.62872
0.609021
0.589388
0.570111
0.551512
0.533953
0.517844
0.503687
0.492156
0.484238
0.481441
0.486084
0.501615
0.532797
0.585399
0.664912
0.774049
0.909837
1.06225
1.21535
1.35183
1.45843
1.52996
1.57076
1.59292
1.612
1.64212
1.6926
1.76683
1.86288
1.97465
2.09386
2.2113
2.31722
2.40563
2.46584
2.49446
2.49381
2.46909
2.42745
2.37733
2.32727
2.28502
2.2564
2.24464
2.25027
2.27143
2.3045
2.34473
2.38662
2.42384
2.44851
2.45976
2.45832
2.445
2.42121
2.38879
2.34964
2.30534
2.25674
2.20394
2.14648
2.08374
2.01519
1.94093
1.86168
1.7785
1.6926
1.60511
1.51679
1.42793
1.33881
1.25028
1.16414
1.08295
1.00952
0.946312
0.895227
0.857438
0.833318
0.822163
0.821979
0.829307
0.841529
0.855862
0.868963
0.877479
0.878609
0.870511
0.852476
0.824892
0.789041
0.746847
0.700621
0.6528
0.605702
0.561298
0.521088
0.486234
0.457219
0.434388
0.417856
0.407458
0.402731
0.403035
0.407621
0.415692
0.426488
0.439426
0.45424
0.47168
0.49365
0.521029
0.554811
0.595861
0.644595
0.700713
0.763192
0.830603
0.901567
0.974927
1.05099
1.12929
1.20593
1.27214
1.31601
1.32759
1.30516
1.25394
1.0621
1.0319
1.02676
0.987811
0.933395
0.873131
0.813202
0.75874
0.711582
0.671693
0.638388
0.610756
0.588622
0.571579
0.559134
0.550805
0.54615
0.544762
0.546258
0.550274
0.556455
0.564453
0.573918
0.584498
0.595831
0.607547
0.619268
0.630614
0.64121
0.650699
0.658758
0.665116
0.669571
0.672018
0.672498
0.670998
0.667588
0.662476
0.655977
0.648488
0.640428
0.632195
0.624115
0.616421
0.609245
0.602628
0.596538
0.590894
0.585588
0.580508
0.575561
0.570676
0.565817
0.560987
0.556232
0.551645
0.547382
0.54369
0.540957
0.539792
0.541143
0.546463
0.557891
0.578407
0.611829
0.662472
0.734229
0.828985
0.944745
1.07444
1.20637
1.32695
1.42478
1.49428
1.5376
1.56389
1.58622
1.61787
1.67019
1.74415
1.83938
1.95103
2.0716
2.19257
2.30581
2.40077
2.47191
2.51665
2.53513
2.52988
2.50539
2.46802
2.42528
2.38478
2.35297
2.33412
2.32991
2.33958
2.36042
2.38841
2.41853
2.44477
2.45992
2.46221
2.45195
2.43037
2.39933
2.36103
2.31767
2.27109
2.22228
2.17121
2.11692
2.05796
1.99289
1.92108
1.84298
1.75959
1.67227
1.58261
1.49191
1.40086
1.3097
1.21888
1.12968
1.0442
0.964899
0.894009
0.833107
0.783012
0.743794
0.714763
0.694289
0.679692
0.66966
0.662836
0.657437
0.651512
0.643235
0.631194
0.614583
0.593277
0.567781
0.539101
0.508574
0.477688
0.447914
0.420568
0.396745
0.377293
0.362705
0.35305
0.348483
0.348922
0.353991
0.362999
0.375053
0.389188
0.404473
0.420174
0.435871
0.451968
0.470328
0.491938
0.518083
0.550161
0.589367
0.63633
0.690879
0.752029
0.818188
0.88722
0.958112
1.03033
1.10143
1.16548
1.21358
1.23682
1.23151
1.19946
1.08411
1.04031
1.03588
1.00084
0.952114
0.898981
0.847696
0.801738
0.762244
0.728565
0.700072
0.676218
0.65648
0.640304
0.62721
0.616812
0.608773
0.602793
0.598592
0.595912
0.594492
0.594071
0.594385
0.595167
0.596156
0.597104
0.597787
0.598028
0.597705
0.59677
0.595253
0.593261
0.590967
0.588595
0.586073
0.583264
0.580323
0.577409
0.57466
0.572181
0.570037
0.568261
0.566865
0.565845
0.565199
0.564923
0.565018
0.565496
0.566382
0.567721
0.569566
0.57197
0.574968
0.578586
0.58259
0.586871
0.591495
0.596618
0.60255
0.609844
0.619436
0.632011
0.649154
0.673136
0.706867
0.753667
0.816618
0.897506
0.995508
1.10614
1.22114
1.32998
1.42261
1.49267
1.53972
1.56985
1.59406
1.62413
1.6704
1.73609
1.82205
1.92517
2.03963
2.15848
2.27176
2.37127
2.45404
2.51702
2.55869
2.57891
2.5792
2.56296
2.53527
2.50224
2.46995
2.44335
2.42552
2.41739
2.418
2.42502
2.43496
2.44267
2.44249
2.43213
2.41137
2.38125
2.34354
2.30044
2.25423
2.2069
2.15955
2.11202
2.06285
2.00975
1.95027
1.88293
1.80795
1.72623
1.6392
1.54874
1.45679
1.36463
1.27269
1.18128
1.09125
1.00431
0.922658
0.848355
0.782863
0.726862
0.680279
0.642349
0.611619
0.585862
0.564165
0.545758
0.529652
0.514757
0.500032
0.48462
0.467964
0.449861
0.430467
0.410234
0.38983
0.37005
0.351737
0.335741
0.322874
0.313886
0.309205
0.309098
0.313861
0.323347
0.336995
0.353848
0.372711
0.392337
0.41161
0.429687
0.446098
0.460999
0.475979
0.492072
0.510659
0.533432
0.562123
0.59813
0.642165
0.694014
0.752466
0.815108
0.879974
0.945982
1.01106
1.07095
1.11907
1.14811
1.15383
1.13598
1.20834
1.04007
1.00797
0.975953
0.940906
0.905791
0.872972
0.843597
0.817691
0.795367
0.776362
0.760481
0.747567
0.73672
0.727004
0.718137
0.709924
0.702196
0.694781
0.687666
0.680858
0.674389
0.668316
0.662721
0.657702
0.653368
0.649837
0.647242
0.645729
0.64546
0.646603
0.649324
0.653847
0.659328
0.665983
0.673869
0.682959
0.69315
0.70425
0.715986
0.728019
0.739974
0.75148
0.762204
0.771885
0.780345
0.787493
0.793316
0.797876
0.801319
0.803866
0.805824
0.807607
0.808727
0.808539
0.807333
0.805345
0.802912
0.800538
0.798978
0.799334
0.803848
0.814995
0.8358
0.865028
0.904448
0.956191
1.02184
1.10148
1.19279
1.29054
1.38705
1.47392
1.54445
1.59692
1.62835
1.65034
1.67439
1.70879
1.75844
1.82569
1.90989
2.00782
2.11437
2.22142
2.31983
2.40844
2.48468
2.54616
2.59113
2.61871
2.62927
2.6247
2.60835
2.58446
2.55725
2.53027
2.50528
2.48177
2.46082
2.4416
2.4217
2.39911
2.37212
2.33965
2.30156
2.25869
2.21271
2.16568
2.11955
2.07542
2.03298
1.99028
1.94421
1.89126
1.82917
1.75815
1.67912
1.59344
1.50321
1.41092
1.31849
1.22676
1.136
1.0468
0.960488
0.878975
0.804137
0.73733
0.679164
0.629527
0.58767
0.552276
0.521416
0.494355
0.470599
0.449548
0.43056
0.41302
0.396407
0.380348
0.364653
0.349321
0.334513
0.320517
0.307742
0.296708
0.288062
0.282539
0.280791
0.283614
0.291552
0.304757
0.322799
0.344696
0.369025
0.394168
0.41858
0.441009
0.460625
0.477052
0.490443
0.502081
0.513048
0.524709
0.538833
0.557401
0.582293
0.614911
0.655825
0.704473
0.758682
0.81613
0.875283
0.934007
0.98882
1.03464
1.06556
1.07754
1.0693
1.35198
1.02445
0.96034
0.929743
0.907637
0.891237
0.880879
0.876441
0.87663
0.879564
0.883397
0.886676
0.88846
0.889181
0.889586
0.889868
0.890198
0.890391
0.889294
0.886985
0.883636
0.879433
0.874718
0.86993
0.865574
0.862175
0.860237
0.860203
0.862437
0.867231