/*--------------------------------*- C++ -*----------------------------------*\
| =========                 |                                                 |
| \\      /  F ield         | OpenFOAM: The Open Source CFD Toolbox           |
|  \\    /   O peration     | Version:  2112                                  |
|   \\  /    A nd           | Website:  www.openfoam.com                      |
|    \\/     M anipulation  |                                                 |
\*---------------------------------------------------------------------------*/
FoamFile
{
    version     2.0;
    format      ascii;
    arch        "LSB;label=32;scalar=64";
    class       surfaceScalarField;
    location    "0.23";
    object      phi;
}
// * * * * * * * * * * * * * * * * * * * * * * * * * * * * * * * * * * * * * //

dimensions      [0 3 -1 0 0 0 0];

oriented        oriented;

internalField   nonuniform List<scalar> 
24170
(
3.04142e-06
1.46987e-07
2.87036e-06
1.71064e-07
2.71014e-06
1.60217e-07
2.56914e-06
1.40996e-07
2.45575e-06
1.13395e-07
2.37311e-06
8.26349e-08
2.31767e-06
5.54403e-08
2.28228e-06
3.53919e-08
2.25873e-06
2.3547e-08
2.24092e-06
1.78106e-08
2.22571e-06
1.52097e-08
2.2122e-06
1.35171e-08
2.20049e-06
1.17018e-08
2.19053e-06
9.96338e-09
2.18169e-06
8.8449e-09
2.16931e-06
1.23778e-08
2.142e-06
2.73034e-08
6.1668e-08
2.08034e-06
3.48278e-06
8.14602e-08
3.52157e-06
1.3227e-07
3.53357e-06
1.48215e-07
3.51598e-06
1.58588e-07
3.46974e-06
1.59638e-07
3.40005e-06
1.52322e-07
3.31445e-06
1.41041e-07
3.22109e-06
1.28747e-07
3.12784e-06
1.16795e-07
3.04081e-06
1.0485e-07
2.96363e-06
9.23844e-08
2.89771e-06
7.94334e-08
2.84283e-06
6.65836e-08
2.79761e-06
5.51845e-08
2.76047e-06
4.59907e-08
2.72906e-06
4.37806e-08
2.70963e-06
4.67331e-08
7.55748e-08
2.69573e-06
3.68101e-06
6.29669e-08
3.70047e-06
1.12808e-07
3.71888e-06
1.29803e-07
3.73647e-06
1.41007e-07
3.7495e-06
1.46606e-07
3.75512e-06
1.46701e-07
3.75174e-06
1.44416e-07
3.73855e-06
1.41943e-07
3.71553e-06
1.39816e-07
3.6831e-06
1.37274e-07
3.64203e-06
1.33455e-07
3.59343e-06
1.28037e-07
3.53883e-06
1.21184e-07
3.48031e-06
1.13702e-07
3.42022e-06
1.06086e-07
3.36226e-06
1.01735e-07
3.31062e-06
9.837e-08
1.07075e-07
3.27912e-06
3.93605e-06
5.23053e-08
3.94825e-06
1.00612e-07
3.95853e-06
1.19517e-07
3.96901e-06
1.30533e-07
3.97915e-06
1.36463e-07
3.98821e-06
1.37643e-07
3.99603e-06
1.3659e-07
4.00259e-06
1.35389e-07
4.00775e-06
1.34651e-07
4.01107e-06
1.33952e-07
4.01179e-06
1.32734e-07
4.00902e-06
1.30807e-07
4.00188e-06
1.28332e-07
3.98969e-06
1.25886e-07
3.97191e-06
1.23871e-07
3.94977e-06
1.23875e-07
3.92343e-06
1.2471e-07
1.27398e-07
3.90311e-06
4.21531e-06
4.41189e-08
4.22559e-06
9.03399e-08
4.23442e-06
1.10683e-07
4.24285e-06
1.22103e-07
4.25091e-06
1.28403e-07
4.25819e-06
1.30359e-07
4.26478e-06
1.30003e-07
4.271e-06
1.29167e-07
4.27717e-06
1.28488e-07
4.28336e-06
1.27756e-07
4.28947e-06
1.2662e-07
4.29528e-06
1.25003e-07
4.30051e-06
1.23106e-07
4.305e-06
1.21396e-07
4.30863e-06
1.20234e-07
4.31219e-06
1.2032e-07
4.31596e-06
1.20933e-07
1.20805e-07
4.32256e-06
4.51585e-06
3.73588e-08
4.52521e-06
8.09793e-08
4.53374e-06
1.02154e-07
4.54175e-06
1.14085e-07
4.54938e-06
1.20779e-07
4.55635e-06
1.2339e-07
4.5627e-06
1.23652e-07
4.56871e-06
1.23158e-07
4.57466e-06
1.22537e-07
4.58068e-06
1.21733e-07
4.58677e-06
1.20537e-07
4.59285e-06
1.18922e-07
4.59888e-06
1.17068e-07
4.60497e-06
1.15308e-07
4.61133e-06
1.13877e-07
4.61866e-06
1.12989e-07
4.62759e-06
1.12e-07
1.09737e-07
4.63866e-06
4.83851e-06
3.15657e-08
4.84725e-06
7.22434e-08
4.85568e-06
9.37222e-08
4.86368e-06
1.06084e-07
4.8713e-06
1.13157e-07
4.87838e-06
1.16317e-07
4.88492e-06
1.17104e-07
4.89116e-06
1.16923e-07
4.89732e-06
1.16375e-07
4.90354e-06
1.15519e-07
4.90981e-06
1.14261e-07
4.91612e-06
1.12609e-07
4.92248e-06
1.10708e-07
4.92901e-06
1.08782e-07
4.93594e-06
1.06952e-07
4.94373e-06
1.05197e-07
4.95279e-06
1.02934e-07
9.92092e-08
4.96332e-06
5.18453e-06
2.6616e-08
5.19283e-06
6.39443e-08
5.20125e-06
8.52999e-08
5.20937e-06
9.79631e-08
5.21716e-06
1.05371e-07
5.22449e-06
1.08983e-07
5.23139e-06
1.1021e-07
5.238e-06
1.10306e-07
5.24454e-06
1.09835e-07
5.25112e-06
1.08944e-07
5.25775e-06
1.07627e-07
5.26445e-06
1.05916e-07
5.27123e-06
1.03925e-07
5.27822e-06
1.01791e-07
5.28561e-06
9.95607e-08
5.29369e-06
9.71188e-08
5.30264e-06
9.39829e-08
8.94721e-08
5.31238e-06
5.55553e-06
2.24281e-08
5.56332e-06
5.61481e-08
5.57179e-06
7.68321e-08
5.58017e-06
8.95853e-08
5.58825e-06
9.72921e-08
5.59593e-06
1.01295e-07
5.60324e-06
1.02906e-07
5.61031e-06
1.03237e-07
5.6173e-06
1.02844e-07
5.62431e-06
1.01935e-07
5.63137e-06
1.00566e-07
5.6385e-06
9.87871e-08
5.64574e-06
9.66822e-08
5.65319e-06
9.43362e-08
5.661e-06
9.17539e-08
5.66931e-06
8.88057e-08
5.67817e-06
8.51278e-08
8.02852e-08
5.68736e-06
5.95332e-06
1.88851e-08
5.96045e-06
4.90124e-08
5.9688e-06
6.84821e-08
5.97747e-06
8.09212e-08
5.98603e-06
8.87315e-08
5.99423e-06
9.30981e-08
6.00202e-06
9.51101e-08
6.00959e-06
9.56659e-08
6.01708e-06
9.53554e-08
6.02457e-06
9.44482e-08
6.03209e-06
9.30417e-08
6.03968e-06
9.11977e-08
6.04738e-06
8.8982e-08
6.05527e-06
8.64461e-08
6.06345e-06
8.35786e-08
6.07198e-06
8.02733e-08
6.08081e-06
7.62948e-08
7.13866e-08
6.08971e-06
6.3798e-06
1.58991e-08
6.38625e-06
4.2563e-08
6.39428e-06
6.04492e-08
6.40303e-06
7.21688e-08
6.41199e-06
7.97702e-08
6.42079e-06
8.43021e-08
6.42927e-06
8.66351e-08
6.43747e-06
8.74581e-08
6.44553e-06
8.72939e-08
6.45355e-06
8.64336e-08
6.46157e-06
8.50203e-08
6.46963e-06
8.31386e-08
6.47776e-06
8.08499e-08
6.48602e-06
7.81862e-08
6.49447e-06
7.51266e-08
6.50316e-06
7.15884e-08
6.51202e-06
6.74325e-08
6.25496e-08
6.52086e-06
5.74299e-06
1.37393e-08
5.74795e-06
3.7603e-08
5.75445e-06
5.39531e-08
5.76177e-06
6.48485e-08
5.76947e-06
7.20691e-08
5.77723e-06
7.65419e-08
5.78487e-06
7.89957e-08
5.79233e-06
7.99972e-08
5.79965e-06
7.99715e-08
5.8069e-06
7.91874e-08
5.81412e-06
7.78044e-08
5.82133e-06
7.5924e-08
5.82857e-06
7.36121e-08
5.83586e-06
7.08965e-08
5.84323e-06
6.77582e-08
5.85068e-06
6.41372e-08
5.85816e-06
5.99485e-08
5.51645e-08
5.86555e-06
7.00027e-06
1.16274e-08
7.00553e-06
3.2341e-08
7.01261e-06
4.68758e-08
7.02081e-06
5.66405e-08
7.02966e-06
6.32256e-08
7.03876e-06
6.74411e-08
7.04789e-06
6.98653e-08
7.05694e-06
7.09514e-08
7.06587e-06
7.10344e-08
7.07472e-06
7.03406e-08
7.0835e-06
6.90205e-08
7.09225e-06
6.71783e-08
7.10098e-06
6.48831e-08
7.10971e-06
6.21667e-08
7.11844e-06
5.90235e-08
7.12716e-06
5.54233e-08
7.13578e-06
5.13296e-08
4.67686e-08
7.14417e-06
8.53295e-06
9.52198e-09
8.53852e-06
2.67746e-08
8.54612e-06
3.92746e-08
8.55517e-06
4.75947e-08
8.56514e-06
5.32489e-08
8.57561e-06
5.69728e-08
8.58629e-06
5.91821e-08
8.59704e-06
6.02069e-08
8.60777e-06
6.03067e-08
8.61844e-06
5.9666e-08
8.62905e-06
5.8413e-08
8.63959e-06
5.66401e-08
8.65006e-06
5.44118e-08
8.66046e-06
5.17652e-08
8.67077e-06
4.87129e-08
8.68094e-06
4.52568e-08
8.69086e-06
4.14024e-08
3.72083e-08
8.70042e-06
1.04014e-05
7.37429e-09
1.04073e-05
2.08778e-08
1.04155e-05
3.10327e-08
1.04254e-05
3.77154e-08
1.04365e-05
4.21684e-08
1.04483e-05
4.5126e-08
1.04606e-05
4.6895e-08
1.04731e-05
4.76885e-08
1.04857e-05
4.76845e-08
1.04984e-05
4.70229e-08
1.0511e-05
4.58071e-08
1.05235e-05
4.41133e-08
1.05359e-05
4.19981e-08
1.05482e-05
3.95005e-08
1.05603e-05
3.66481e-08
1.0572e-05
3.3467e-08
1.05835e-05
2.99909e-08
2.62924e-08
1.05944e-05
1.2679e-05
5.13422e-09
1.26853e-05
1.45874e-08
1.26944e-05
2.19409e-08
1.27053e-05
2.6863e-08
1.27175e-05
2.98836e-08
1.27309e-05
3.18074e-08
1.27449e-05
3.2912e-08
1.27592e-05
3.33013e-08
1.27739e-05
3.30695e-08
1.27886e-05
3.23072e-08
1.28033e-05
3.10893e-08
1.28179e-05
2.94751e-08
1.28324e-05
2.75121e-08
1.28467e-05
2.52393e-08
1.28606e-05
2.26918e-08
1.28742e-05
1.99078e-08
1.28872e-05
1.69323e-08
1.3836e-08
1.28997e-05
1.54556e-05
2.74522e-09
1.54623e-05
7.82249e-09
1.54724e-05
1.18377e-08
1.54847e-05
1.45524e-08
1.54986e-05
1.59847e-08
1.55137e-05
1.67422e-08
1.55296e-05
1.70137e-08
1.55461e-05
1.68465e-08
1.55629e-05
1.62769e-08
1.55798e-05
1.53489e-08
1.55968e-05
1.41051e-08
1.56137e-05
1.2584e-08
1.56304e-05
1.08214e-08
1.56468e-05
8.851e-09
1.56628e-05
6.70718e-09
1.56782e-05
4.42764e-09
1.56931e-05
2.05483e-09
-3.54456e-10
1.57073e-05
1.88403e-05
9.19239e-11
1.88478e-05
2.85371e-10
1.88593e-05
3.69087e-10
1.88736e-05
2.56887e-10
1.88897e-05
-1.28475e-10
1.89071e-05
-6.71701e-10
1.89255e-05
-1.35024e-09
1.89445e-05
-2.16765e-09
1.89639e-05
-3.13121e-09
1.89835e-05
-4.24177e-09
1.90031e-05
-5.49288e-09
1.90225e-05
-6.87129e-09
1.90417e-05
-8.3585e-09
1.90605e-05
-9.93264e-09
1.90788e-05
-1.15692e-08
1.90965e-05
-1.32409e-08
1.91134e-05
-1.49175e-08
-1.6561e-08
1.91296e-05
2.29665e-05
-3.05568e-09
2.29755e-05
-8.69779e-09
2.29892e-05
-1.33311e-08
2.30063e-05
-1.68795e-08
2.30256e-05
-1.94418e-08
2.30464e-05
-2.14989e-08
2.30683e-05
-2.32454e-08
2.30909e-05
-2.47518e-08
2.31139e-05
-2.60826e-08
2.31369e-05
-2.73003e-08
2.31599e-05
-2.84504e-08
2.31826e-05
-2.95588e-08
2.32049e-05
-3.06336e-08
2.32266e-05
-3.16672e-08
2.32477e-05
-3.26506e-08
2.3268e-05
-3.35741e-08
2.32875e-05
-3.44266e-08
-3.51945e-08
2.33061e-05
1.68132e-05
-5.59217e-09
1.68204e-05
-1.58142e-08
1.6831e-05
-2.39717e-08
1.68441e-05
-2.99454e-08
1.68587e-05
-3.4114e-08
1.68745e-05
-3.72733e-08
1.6891e-05
-3.97342e-08
1.69079e-05
-4.16193e-08
1.69248e-05
-4.30581e-08
1.69417e-05
-4.41809e-08
1.69584e-05
-4.50921e-08
1.69747e-05
-4.58657e-08
1.69906e-05
-4.65362e-08
1.7006e-05
-4.70855e-08
1.70209e-05
-4.75209e-08
1.70351e-05
-4.78525e-08
1.70488e-05
-4.8085e-08
-4.82199e-08
1.70618e-05
1.46372e-05
-8.18422e-09
1.46443e-05
-2.29243e-08
1.46545e-05
-3.42175e-08
1.46668e-05
-4.21793e-08
1.46804e-05
-4.77803e-08
1.4695e-05
-5.18868e-08
1.47102e-05
-5.48642e-08
1.47254e-05
-5.68825e-08
1.47405e-05
-5.81734e-08
1.47553e-05
-5.89696e-08
1.47697e-05
-5.94535e-08
1.47836e-05
-5.975e-08
1.4797e-05
-5.99187e-08
1.48098e-05
-5.99595e-08
1.48222e-05
-5.98885e-08
1.48341e-05
-5.97185e-08
1.48454e-05
-5.94478e-08
-5.90709e-08
1.48563e-05
1.2743e-05
-1.10418e-08
1.27504e-05
-3.03762e-08
1.27606e-05
-4.44179e-08
1.27725e-05
-5.4017e-08
1.27855e-05
-6.0785e-08
1.27991e-05
-6.55304e-08
1.28129e-05
-6.86376e-08
1.28265e-05
-7.04406e-08
1.28396e-05
-7.13236e-08
1.28523e-05
-7.16307e-08
1.28644e-05
-7.15979e-08
1.2876e-05
-7.13619e-08
1.28871e-05
-7.1009e-08
1.28978e-05
-7.06114e-08
1.2908e-05
-7.01554e-08
1.29179e-05
-6.96083e-08
1.29274e-05
-6.89498e-08
-6.81671e-08
1.29365e-05
1.10943e-05
-1.44143e-08
1.11023e-05
-3.84163e-08
1.11126e-05
-5.47158e-08
1.11241e-05
-6.55261e-08
1.11364e-05
-7.30231e-08
1.11488e-05
-7.79681e-08
1.1161e-05
-8.07944e-08
1.11727e-05
-8.21358e-08
1.11839e-05
-8.25192e-08
1.11946e-05
-8.23293e-08
1.12048e-05
-8.18318e-08
1.12146e-05
-8.11826e-08
1.12241e-05
-8.04632e-08
1.12332e-05
-7.97281e-08
1.1242e-05
-7.89539e-08
1.12505e-05
-7.80946e-08
1.12586e-05
-7.71127e-08
-7.59791e-08
1.12665e-05
9.65944e-06
-1.86396e-08
9.6681e-06
-4.70778e-08
9.67832e-06
-6.49386e-08
9.68923e-06
-7.64363e-08
9.7005e-06
-8.42926e-08
9.71175e-06
-8.92188e-08
9.72265e-06
-9.16903e-08
9.733e-06
-9.24895e-08
9.74277e-06
-9.228e-08
9.75197e-06
-9.15335e-08
9.7607e-06
-9.05586e-08
9.76904e-06
-8.95286e-08
9.7771e-06
-8.85188e-08
9.78491e-06
-8.75432e-08
9.79251e-06
-8.65546e-08
9.7999e-06
-8.54832e-08
9.80707e-06
-8.42768e-08
-8.2901e-08
9.81399e-06
8.41063e-06
-2.39205e-08
8.42001e-06
-5.64497e-08
8.43001e-06
-7.4946e-08
8.44027e-06
-8.66938e-08
8.45078e-06
-9.4799e-08
8.4612e-06
-9.9641e-08
8.47121e-06
-1.01698e-07
8.4806e-06
-1.01886e-07
8.48933e-06
-1.01008e-07
8.49743e-06
-9.96351e-08
8.50501e-06
-9.81392e-08
8.5122e-06
-9.67144e-08
8.51911e-06
-9.5431e-08
8.52584e-06
-9.42731e-08
8.53244e-06
-9.31548e-08
8.53892e-06
-9.19616e-08
8.54523e-06
-9.05917e-08
-8.89044e-08
8.55124e-06
7.32389e-06
-3.05305e-08
7.33421e-06
-6.67645e-08
7.34411e-06
-8.48418e-08
7.35395e-06
-9.65404e-08
7.36409e-06
-1.04935e-07
7.37414e-06
-1.09692e-07
7.38373e-06
-1.11293e-07
7.39268e-06
-1.1083e-07
7.4009e-06
-1.09233e-07
7.40845e-06
-1.07178e-07
7.41544e-06
-1.05128e-07
7.42203e-06
-1.0331e-07
7.42839e-06
-1.01791e-07
7.43464e-06
-1.00516e-07
7.44082e-06
-9.93424e-08
7.44697e-06
-9.81053e-08
7.45308e-06
-9.67043e-08
-9.51438e-08
7.45932e-06
6.37874e-06
-3.92008e-08
6.39075e-06
-7.87785e-08
6.40126e-06
-9.53507e-08
6.41186e-06
-1.0714e-07
6.42294e-06
-1.16016e-07
6.43399e-06
-1.20746e-07
6.44463e-06
-1.21927e-07
6.45458e-06
-1.20779e-07
6.46366e-06
-1.1832e-07
6.47183e-06
-1.15349e-07
6.47917e-06
-1.12465e-07
6.48581e-06
-1.09949e-07
6.49192e-06
-1.07902e-07
6.49762e-06
-1.06216e-07
6.50291e-06
-1.04635e-07
6.50774e-06
-1.02938e-07
6.51193e-06
-1.00889e-07
-9.81118e-08
6.5149e-06
5.55998e-06
-5.37208e-08
5.57761e-06
-9.64059e-08
5.59397e-06
-1.11706e-07
5.61168e-06
-1.24857e-07
5.63e-06
-1.34336e-07
5.64754e-06
-1.38278e-07
5.66305e-06
-1.37438e-07
5.67543e-06
-1.33165e-07
5.68385e-06
-1.26737e-07
5.68784e-06
-1.19341e-07
5.68725e-06
-1.11875e-07
5.682e-06
-1.04694e-07
5.67222e-06
-9.81232e-08
5.65816e-06
-9.21535e-08
5.64004e-06
-8.65171e-08
5.61813e-06
-8.10273e-08
5.59292e-06
-7.56838e-08
-7.0506e-08
5.56532e-06
4.88452e-06
-1.10631e-07
4.93077e-06
-1.42661e-07
4.96596e-06
-1.46889e-07
4.9874e-06
-1.463e-07
4.99242e-06
-1.39354e-07
4.98037e-06
-1.26229e-07
4.95188e-06
-1.08949e-07
4.90841e-06
-8.96964e-08
4.85211e-06
-7.04375e-08
4.78566e-06
-5.28903e-08
4.71208e-06
-3.82925e-08
4.63419e-06
-2.68055e-08
4.55475e-06
-1.86804e-08
4.47624e-06
-1.36493e-08
4.40065e-06
-1.09195e-08
4.32942e-06
-9.80074e-09
4.26344e-06
-9.70689e-09
-9.69856e-09
4.20263e-06
4.09205e-06
3.94938e-06
3.80249e-06
3.65619e-06
3.51684e-06
3.39061e-06
3.28166e-06
3.19197e-06
3.12153e-06
3.06864e-06
3.03035e-06
3.00354e-06
2.98486e-06
2.97121e-06
2.96029e-06
2.95049e-06
2.94078e-06
2.93109e-06
-9.61884e-09
9.61884e-09
-2.10766e-08
1.14577e-08
-3.36588e-08
1.25822e-08
-4.72231e-08
1.35643e-08
-6.16625e-08
1.44394e-08
-7.68878e-08
1.52253e-08
-9.28395e-08
1.59517e-08
-1.09513e-07
1.66733e-08
-1.27006e-07
1.74929e-08
-1.45607e-07
1.86011e-08
-1.65424e-07
1.98172e-08
-1.86146e-07
2.07224e-08
-2.07445e-07
2.12988e-08
-2.29161e-07
2.17153e-08
-2.5124e-07
2.2079e-08
-2.73672e-07
2.24325e-08
-2.96464e-07
2.27923e-08
-3.19632e-07
2.31675e-08
-3.43196e-07
2.3564e-08
-3.67181e-07
2.3985e-08
-3.91612e-07
2.44311e-08
-4.16513e-07
2.49011e-08
-4.41906e-07
2.53929e-08
-4.6781e-07
2.59037e-08
-4.9424e-07
2.64307e-08
-5.21212e-07
2.69714e-08
-5.48735e-07
2.7523e-08
-5.76818e-07
2.80834e-08
-6.05468e-07
2.86502e-08
-6.3469e-07
2.92213e-08
-6.64484e-07
2.97946e-08
-6.94852e-07
3.03682e-08
-7.25792e-07
3.09397e-08
-7.57299e-07
3.15071e-08
-7.89367e-07
3.20681e-08
-8.21988e-07
3.26201e-08
-8.55148e-07
3.31608e-08
-8.88836e-07
3.36875e-08
-9.23033e-07
3.41973e-08
-9.5772e-07
3.46874e-08
-9.92875e-07
3.51548e-08
-1.02847e-06
3.55966e-08
-1.06448e-06
3.60094e-08
-1.10087e-06
3.63902e-08
-1.13761e-06
3.67357e-08
-1.17465e-06
3.70428e-08
-1.21196e-06
3.73082e-08
-1.24949e-06
3.75287e-08
-1.28719e-06
3.77014e-08
-1.32501e-06
3.78234e-08
-1.3629e-06
3.78918e-08
-1.40081e-06
3.79042e-08
-1.43867e-06
3.78582e-08
-1.47642e-06
3.77519e-08
-1.514e-06
3.75836e-08
-1.55135e-06
3.7352e-08
-1.58841e-06
3.70563e-08
-1.62511e-06
3.66962e-08
-1.66138e-06
3.62718e-08
-1.69716e-06
3.57839e-08
-1.7324e-06
3.52335e-08
-1.76702e-06
3.46227e-08
-1.80097e-06
3.39537e-08
-1.8342e-06
3.32291e-08
-1.86665e-06
3.24524e-08
-1.89828e-06
3.1627e-08
-1.92904e-06
3.07567e-08
-1.95888e-06
2.98454e-08
-1.98778e-06
2.8897e-08
-2.01569e-06
2.79152e-08
-2.0426e-06
2.69037e-08
-2.06846e-06
2.58658e-08
-2.09327e-06
2.48044e-08
-2.11699e-06
2.37222e-08
-2.13961e-06
2.26212e-08
-2.16112e-06
2.15034e-08
-2.18149e-06
2.03703e-08
-2.20071e-06
1.92232e-08
-2.21877e-06
1.80629e-08
-2.23566e-06
1.68904e-08
-2.25137e-06
1.5706e-08
-2.26588e-06
1.451e-08
-2.27918e-06
1.33023e-08
-2.29126e-06
1.20822e-08
-2.30211e-06
1.08488e-08
-2.31171e-06
9.6e-09
-2.32004e-06
8.33303e-09
-2.32709e-06
7.04371e-09
-2.33281e-06
5.72632e-09
-2.33719e-06
4.37304e-09
-2.34016e-06
2.97307e-09
-2.34167e-06
1.51186e-09
-2.34158e-06
-9.05457e-11
-2.34007e-06
-1.5148e-09
-2.33716e-06
-2.90942e-09
-2.33287e-06
-4.28428e-09
-2.32721e-06
-5.66215e-09
-2.32016e-06
-7.05135e-09
-2.31171e-06
-8.4545e-09
-2.30183e-06
-9.87223e-09
-2.29053e-06
-1.13042e-08
-2.27778e-06
-1.27495e-08
-2.26357e-06
-1.4207e-08
-2.2479e-06
-1.56754e-08
-2.23074e-06
-1.71535e-08
-2.2121e-06
-1.86398e-08
-2.19197e-06
-2.01335e-08
-2.17034e-06
-2.16337e-08
-2.1472e-06
-2.31396e-08
-2.12255e-06
-2.46509e-08
-2.09638e-06
-2.61667e-08
-2.06869e-06
-2.76864e-08
-2.03948e-06
-2.92091e-08
-2.00875e-06
-3.07336e-08
-1.97649e-06
-3.22587e-08
-1.94271e-06
-3.37827e-08
-1.9074e-06
-3.53039e-08
-1.87058e-06
-3.68202e-08
-1.83226e-06
-3.83292e-08
-1.79243e-06
-3.98285e-08
-1.75111e-06
-4.13151e-08
-1.70833e-06
-4.27856e-08
-1.66409e-06
-4.42366e-08
-1.61843e-06
-4.56641e-08
-1.57136e-06
-4.70639e-08
-1.52293e-06
-4.84318e-08
-1.47317e-06
-4.9763e-08
-1.42211e-06
-5.10527e-08
-1.36982e-06
-5.22959e-08
-1.31633e-06
-5.34872e-08
-1.26171e-06
-5.46214e-08
-1.20602e-06
-5.56933e-08
-1.14932e-06
-5.66984e-08
-1.09168e-06
-5.76331e-08
-1.03319e-06
-5.84945e-08
-9.73909e-07
-5.92813e-08
-9.13915e-07
-5.99939e-08
-8.5328e-07
-6.06353e-08
-7.92068e-07
-6.12119e-08
-7.30334e-07
-6.17337e-08
-6.68121e-07
-6.22132e-08
-6.05456e-07
-6.26647e-08
-5.42356e-07
-6.31003e-08
-4.78835e-07
-6.35212e-08
-4.1494e-07
-6.38951e-08
-3.50836e-07
-6.41039e-08
-2.87026e-07
-6.38101e-08
-2.25e-07
-6.20255e-08
-1.68609e-07
-5.6391e-08
-1.17037e-07
-5.15718e-08
-6.57897e-08
-5.12475e-08
-1.40816e-08
-5.17081e-08
3.71039e-08
-5.11855e-08
8.6666e-08
-4.95621e-08
1.34291e-07
-4.76253e-08
1.83629e-07
-4.93375e-08
2.3635e-07
-5.27213e-08
2.89654e-07
-5.3304e-08
3.42532e-07
-5.2878e-08
3.94598e-07
-5.20654e-08
4.45716e-07
-5.11181e-08
4.95857e-07
-5.01412e-08
5.45031e-07
-4.91742e-08
5.93264e-07
-4.82331e-08
6.40585e-07
-4.73211e-08
6.8702e-07
-4.64346e-08
7.32589e-07
-4.55693e-08
7.77312e-07
-4.47227e-08
8.21205e-07
-4.38932e-08
8.64284e-07
-4.30787e-08
9.06557e-07
-4.22734e-08
9.48019e-07
-4.14617e-08
9.88631e-07
-4.0612e-08
1.0283e-06
-3.96701e-08
1.06684e-06
-3.85427e-08
1.10387e-06
-3.70305e-08
1.1385e-06
-3.46266e-08
1.16805e-06
-2.95481e-08
1.18227e-06
-1.42165e-08
2.87996e-08
1.15347e-06
-1.22319e-08
2.18508e-08
-2.50455e-08
2.42713e-08
-3.90079e-08
2.65446e-08
-5.39332e-08
2.84896e-08
-6.97529e-08
3.02591e-08
-8.64534e-08
3.19257e-08
-1.04029e-07
3.35277e-08
-1.22463e-07
3.51073e-08
-1.41689e-07
3.67182e-08
-1.61495e-07
3.84071e-08
-1.81808e-07
4.01307e-08
-2.02805e-07
4.17194e-08
-2.24597e-07
4.30908e-08
-2.47155e-07
4.42733e-08
-2.70403e-07
4.53269e-08
-2.94274e-07
4.63032e-08
-3.18722e-07
4.72403e-08
-3.4372e-07
4.81655e-08
-3.69254e-07
4.90984e-08
-3.95321e-07
5.00517e-08
-4.21922e-07
5.10328e-08
-4.49066e-07
5.2045e-08
-4.76762e-07
5.30887e-08
-5.0502e-07
5.41619e-08
-5.33851e-07
5.52618e-08
-5.63265e-07
5.63846e-08
-5.93268e-07
5.75262e-08
-6.23867e-07
5.86822e-08
-6.55065e-07
5.98482e-08
-6.86863e-07
6.10198e-08
-7.19261e-07
6.21923e-08
-7.52254e-07
6.3361e-08
-7.85835e-07
6.45211e-08
-8.19996e-07
6.56676e-08
-8.54723e-07
6.67952e-08
-8.90001e-07
6.78986e-08
-9.25812e-07
6.89719e-08
-9.62134e-07
7.00095e-08
-9.98942e-07
7.10052e-08
-1.03621e-06
7.19527e-08
-1.0739e-06
7.28457e-08
-1.11198e-06
7.36776e-08
-1.15041e-06
7.44419e-08
-1.18915e-06
7.51319e-08
-1.22816e-06
7.5741e-08
-1.26738e-06
7.62628e-08
-1.30676e-06
7.66909e-08
-1.34625e-06
7.70192e-08
-1.38579e-06
7.72418e-08
-1.42532e-06
7.73534e-08
-1.46478e-06
7.7349e-08
-1.5041e-06
7.72241e-08
-1.54322e-06
7.69749e-08
-1.58206e-06
7.65984e-08
-1.62057e-06
7.60921e-08
-1.65867e-06
7.54547e-08
-1.6963e-06
7.46857e-08
-1.73339e-06
7.37857e-08
-1.76988e-06
7.27561e-08
-1.80569e-06
7.15996e-08
-1.84078e-06
7.032e-08
-1.87508e-06
6.89219e-08
-1.90854e-06
6.74111e-08
-1.9411e-06
6.57942e-08
-1.97273e-06
6.40782e-08
-2.00337e-06
6.22711e-08
-2.033e-06
6.03807e-08
-2.06157e-06
5.84153e-08
-2.08905e-06
5.63827e-08
-2.11543e-06
5.42906e-08
-2.14067e-06
5.2146e-08
-2.16476e-06
4.99554e-08
-2.18768e-06
4.77244e-08
-2.20941e-06
4.54576e-08
-2.22995e-06
4.31594e-08
-2.24928e-06
4.08329e-08
-2.26739e-06
3.84808e-08
-2.28427e-06
3.61054e-08
-2.29992e-06
3.37083e-08
-2.31432e-06
3.12906e-08
-2.32747e-06
2.88532e-08
-2.33935e-06
2.63962e-08
-2.34997e-06
2.39194e-08
-2.35931e-06
2.14218e-08
-2.36736e-06
1.89017e-08
-2.37412e-06
1.63568e-08
-2.37957e-06
1.37838e-08
-2.38371e-06
1.11792e-08
-2.38652e-06
8.53937e-09
-2.38801e-06
5.86206e-09
-2.38818e-06
3.14812e-09
-2.38708e-06
4.13824e-10
-2.38482e-06
-2.35221e-09
-2.38126e-06
-5.08227e-09
-2.37634e-06
-7.82511e-09
-2.37004e-06
-1.05868e-08
-2.36233e-06
-1.33726e-08
-2.35319e-06
-1.61853e-08
-2.34262e-06
-1.90257e-08
-2.3306e-06
-2.18932e-08
-2.31712e-06
-2.47865e-08
-2.30216e-06
-2.77034e-08
-2.28573e-06
-3.06415e-08
-2.26781e-06
-3.35982e-08
-2.24839e-06
-3.65705e-08
-2.22747e-06
-3.95558e-08
-2.20506e-06
-4.25518e-08
-2.18113e-06
-4.55565e-08
-2.1557e-06
-4.85685e-08
-2.12877e-06
-5.15863e-08
-2.10033e-06
-5.46086e-08
-2.07038e-06
-5.76336e-08
-2.03893e-06
-6.06594e-08
-2.00598e-06
-6.36834e-08
-1.97154e-06
-6.67028e-08
-1.9356e-06
-6.97142e-08
-1.89819e-06
-7.2714e-08
-1.85932e-06
-7.56976e-08
-1.81899e-06
-7.86605e-08
-1.77722e-06
-8.15972e-08
-1.73403e-06
-8.45018e-08
-1.68945e-06
-8.73677e-08
-1.6435e-06
-9.01876e-08
-1.59621e-06
-9.29537e-08
-1.54761e-06
-9.56578e-08
-1.49775e-06
-9.82913e-08
-1.44667e-06
-1.00845e-07
-1.39442e-06
-1.03309e-07
-1.34104e-06
-1.05675e-07
-1.28659e-06
-1.07931e-07
-1.23115e-06
-1.10068e-07
-1.17476e-06
-1.12076e-07
-1.11752e-06
-1.13946e-07
-1.05948e-06
-1.15673e-07
-1.00072e-06
-1.1725e-07
-9.41327e-07
-1.18675e-07
-8.81373e-07
-1.19948e-07
-8.20934e-07
-1.21074e-07
-7.60083e-07
-1.22062e-07
-6.98891e-07
-1.22926e-07
-6.37422e-07
-1.23682e-07
-5.75743e-07
-1.24343e-07
-5.1393e-07
-1.24913e-07
-4.52086e-07
-1.25365e-07
-3.9038e-07
-1.25602e-07
-3.29107e-07
-1.25377e-07
-2.68851e-07
-1.24066e-07
-2.10609e-07
-1.20267e-07
-1.54126e-07
-1.12873e-07
-9.8727e-08
-1.06971e-07
-4.45927e-08
-1.05382e-07
8.6881e-09
-1.04989e-07
6.13263e-08
-1.03824e-07
1.13435e-07
-1.01671e-07
1.65632e-07
-9.98226e-08
2.18167e-07
-1.01873e-07
2.71613e-07
-1.06167e-07
3.2581e-07
-1.075e-07
3.79823e-07
-1.06891e-07
4.33276e-07
-1.05518e-07
4.86023e-07
-1.03865e-07
5.38007e-07
-1.02125e-07
5.89217e-07
-1.00384e-07
6.39665e-07
-9.86812e-08
6.89371e-07
-9.70269e-08
7.38353e-07
-9.54167e-08
7.86627e-07
-9.38435e-08
8.34206e-07
-9.23017e-08
8.811e-07
-9.07873e-08
9.27315e-07
-8.92937e-08
9.72848e-07
-8.78065e-08
1.01768e-06
-8.62903e-08
1.06174e-06
-8.46766e-08
1.10492e-06
-8.28481e-08
1.14697e-06
-8.05961e-08
1.18744e-06
-7.75005e-08
1.22537e-06
-7.25493e-08
1.25888e-06
-6.30593e-08
1.28422e-06
-3.95613e-08
1.13403e-08
1.30168e-06
-1.34161e-08
3.52669e-08
-2.7955e-08
3.88102e-08
-4.32069e-08
4.17965e-08
-5.92151e-08
4.44978e-08
-7.60092e-08
4.70532e-08
-9.36097e-08
4.95262e-08
-1.12023e-07
5.19408e-08
-1.3123e-07
5.43147e-08
-1.51176e-07
5.66638e-08
-1.71759e-07
5.899e-08
-1.92892e-07
6.12636e-08
-2.14597e-07
6.34246e-08
-2.36937e-07
6.54312e-08
-2.59946e-07
6.72818e-08
-2.8362e-07
6.90012e-08
-3.0794e-07
7.06237e-08
-3.32883e-07
7.2183e-08
-3.58426e-07
7.37085e-08
-3.84552e-07
7.52242e-08
-4.11248e-07
7.67481e-08
-4.38508e-07
7.82924e-08
-4.66328e-07
7.98646e-08
-4.94707e-07
8.1468e-08
-5.23648e-07
8.31028e-08
-5.53153e-07
8.47668e-08
-5.83225e-07
8.64563e-08
-6.13865e-07
8.81664e-08
-6.45074e-07
8.98915e-08
-6.76851e-07
9.16253e-08
-7.09193e-07
9.33614e-08
-7.42093e-07
9.50926e-08
-7.75544e-07
9.68117e-08
-8.09534e-07
9.85113e-08
-8.4405e-07
1.00183e-07
-8.79074e-07
1.0182e-07
-9.14588e-07
1.03412e-07
-9.50567e-07
1.04952e-07
-9.86987e-07
1.06429e-07
-1.02382e-06
1.07836e-07
-1.06103e-06
1.09162e-07
-1.09858e-06
1.10397e-07
-1.13643e-06
1.11533e-07
-1.17455e-06
1.1256e-07
-1.21289e-06
1.13467e-07
-1.25139e-06
1.14245e-07
-1.29001e-06
1.14886e-07
-1.3287e-06
1.15379e-07
-1.3674e-06
1.15717e-07
-1.40605e-06
1.15892e-07
-1.44459e-06
1.15896e-07
-1.48297e-06
1.15722e-07
-1.52111e-06
1.15366e-07
-1.55895e-06
1.14822e-07
-1.59644e-06
1.14087e-07
-1.63351e-06
1.13158e-07
-1.67009e-06
1.12034e-07
-1.70612e-06
1.10716e-07
-1.74154e-06
1.09205e-07
-1.77628e-06
1.07504e-07
-1.8103e-06
1.05619e-07
-1.84354e-06
1.03556e-07
-1.87594e-06
1.01322e-07
-1.90746e-06
9.89268e-08
-1.93804e-06
9.63803e-08
-1.96766e-06
9.36939e-08
-1.99627e-06
9.08793e-08
-2.02383e-06
8.79486e-08
-2.05033e-06
8.49142e-08
-2.07574e-06
8.17877e-08
-2.10003e-06
7.85804e-08
-2.12318e-06
7.53027e-08
-2.14519e-06
7.19635e-08
-2.16604e-06
6.85709e-08
-2.18571e-06
6.51315e-08
-2.2042e-06
6.1651e-08
-2.22151e-06
5.81338e-08
-2.23761e-06
5.45836e-08
-2.25251e-06
5.1003e-08
-2.26619e-06
4.73943e-08
-2.27866e-06
4.37591e-08
-2.28991e-06
4.00984e-08
-2.29992e-06
3.64126e-08
-2.3087e-06
3.27017e-08
-2.31625e-06
2.89647e-08
-2.32255e-06
2.52e-08
-2.32759e-06
2.14055e-08
-2.33139e-06
1.75786e-08
-2.33393e-06
1.37171e-08
-2.33521e-06
9.81942e-09
-2.33523e-06
5.88636e-09
-2.334e-06
1.92137e-09
-2.33152e-06
-2.06682e-09
-2.3278e-06
-6.07613e-09
-2.32278e-06
-1.01054e-08
-2.31643e-06
-1.41693e-08
-2.30875e-06
-1.82715e-08
-2.29971e-06
-2.24138e-08
-2.2893e-06
-2.65965e-08
-2.2775e-06
-3.08187e-08
-2.26432e-06
-3.50787e-08
-2.24973e-06
-3.9374e-08
-2.23373e-06
-4.37015e-08
-2.21632e-06
-4.80575e-08
-2.19748e-06
-5.24378e-08
-2.17721e-06
-5.68382e-08
-2.15551e-06
-6.12542e-08
-2.13238e-06
-6.56823e-08
-2.10782e-06
-7.01196e-08
-2.08182e-06
-7.45637e-08
-2.0544e-06
-7.90124e-08
-2.02554e-06
-8.34638e-08
-1.99526e-06
-8.79151e-08
-1.96355e-06
-9.23634e-08
-1.93043e-06
-9.68049e-08
-1.8959e-06
-1.01235e-07
-1.85997e-06
-1.0565e-07
-1.82264e-06
-1.10042e-07
-1.78393e-06
-1.14407e-07
-1.74385e-06
-1.18736e-07
-1.70243e-06
-1.23023e-07
-1.65967e-06
-1.27257e-07
-1.61561e-06
-1.31431e-07
-1.57026e-06
-1.35533e-07
-1.52366e-06
-1.39552e-07
-1.47585e-06
-1.43476e-07
-1.42685e-06
-1.47292e-07
-1.3767e-06
-1.50989e-07
-1.32546e-06
-1.54551e-07
-1.27317e-06
-1.57966e-07
-1.21988e-06
-1.6122e-07
-1.16565e-06
-1.64297e-07
-1.11054e-06
-1.67186e-07
-1.05461e-06
-1.69873e-07
-9.97936e-07
-1.7235e-07
-9.40578e-07
-1.74608e-07
-8.82607e-07
-1.76646e-07
-8.24095e-07
-1.78461e-07
-7.65111e-07
-1.80059e-07
-7.05724e-07
-1.81449e-07
-6.46004e-07
-1.82646e-07
-5.86023e-07
-1.83663e-07
-5.25861e-07
-1.84506e-07
-4.65616e-07
-1.85158e-07
-4.05423e-07
-1.85558e-07
-3.45482e-07
-1.85543e-07
-2.8609e-07
-1.84769e-07
-2.27614e-07
-1.82543e-07
-1.70136e-07
-1.77745e-07
-1.12744e-07
-1.70265e-07
-5.56566e-08
-1.64059e-07
1.95662e-10
-1.61234e-07
5.49525e-08
-1.59746e-07
1.09073e-07
-1.57944e-07
1.63025e-07
-1.55622e-07
2.17216e-07
-1.54014e-07
2.71051e-07
-1.55707e-07
3.24322e-07
-1.59438e-07
3.77878e-07
-1.61056e-07
4.31596e-07
-1.6061e-07
4.85178e-07
-1.591e-07
5.38417e-07
-1.57105e-07
5.91199e-07
-1.54907e-07
6.43466e-07
-1.52651e-07
6.95192e-07
-1.50408e-07
7.4637e-07
-1.48204e-07
7.96993e-07
-1.46041e-07
8.47062e-07
-1.43912e-07
8.96573e-07
-1.41813e-07
9.45523e-07
-1.39738e-07
9.93906e-07
-1.37677e-07
1.04171e-06
-1.35606e-07
1.08889e-06
-1.33471e-07
1.13537e-06
-1.31165e-07
1.18103e-06
-1.28507e-07
1.22562e-06
-1.25179e-07
1.26868e-06
-1.20565e-07
1.30944e-06
-1.13312e-07
1.34674e-06
-1.0036e-07
1.38035e-06
-7.3167e-08
-2.19322e-08
1.41362e-06
-1.5777e-08
5.10439e-08
-3.1704e-08
5.47372e-08
-4.79437e-08
5.80362e-08
-6.47558e-08
6.131e-08
-8.22521e-08
6.45495e-08
-1.00478e-07
6.77519e-08
-1.19444e-07
7.09066e-08
-1.39133e-07
7.40037e-08
-1.59504e-07
7.70356e-08
-1.80505e-07
7.9991e-08
-2.02092e-07
8.28498e-08
-2.24254e-07
8.55865e-08
-2.47006e-07
8.81836e-08
-2.70365e-07
9.06405e-08
-2.94335e-07
9.29715e-08
-3.18911e-07
9.52002e-08
-3.44082e-07
9.73537e-08
-3.69832e-07
9.94588e-08
-3.96147e-07
1.01539e-07
-4.23014e-07
1.03615e-07
-4.50422e-07
1.057e-07
-4.78362e-07
1.07805e-07
-5.06829e-07
1.09934e-07
-5.35817e-07
1.12091e-07
-5.65322e-07
1.14273e-07
-5.95343e-07
1.16476e-07
-6.25873e-07
1.18697e-07
-6.5691e-07
1.20928e-07
-6.88445e-07
1.23161e-07
-7.20472e-07
1.25388e-07
-7.52981e-07
1.27601e-07
-7.85957e-07
1.29788e-07
-8.19388e-07
1.31942e-07
-8.53254e-07
1.34049e-07
-8.87535e-07
1.36101e-07
-9.2221e-07
1.38086e-07
-9.5725e-07
1.39992e-07
-9.92629e-07
1.41808e-07
-1.02831e-06
1.43521e-07
-1.06427e-06
1.45119e-07
-1.10047e-06
1.4659e-07
-1.13685e-06
1.47922e-07
-1.1734e-06
1.49102e-07
-1.21005e-06
1.50119e-07
-1.24676e-06
1.5096e-07
-1.28349e-06
1.51614e-07
-1.32018e-06
1.52071e-07
-1.35679e-06
1.52319e-07
-1.39324e-06
1.5235e-07
-1.4295e-06
1.52155e-07
-1.46551e-06
1.51727e-07
-1.5012e-06
1.51059e-07
-1.53653e-06
1.50146e-07
-1.57142e-06
1.48984e-07
-1.60584e-06
1.47572e-07
-1.63971e-06
1.45908e-07
-1.67299e-06
1.43994e-07
-1.70562e-06
1.41833e-07
-1.73754e-06
1.39429e-07
-1.76871e-06
1.36791e-07
-1.79908e-06
1.33927e-07
-1.82861e-06
1.30847e-07
-1.85725e-06
1.27564e-07
-1.88496e-06
1.24092e-07
-1.91171e-06
1.20445e-07
-1.93747e-06
1.1664e-07
-1.96221e-06
1.12692e-07
-1.98592e-06
1.08617e-07
-2.00856e-06
1.04432e-07
-2.03013e-06
1.0015e-07
-2.05061e-06
9.57843e-08
-2.06999e-06
9.13468e-08
-2.08827e-06
8.68473e-08
-2.10543e-06
8.22936e-08
-2.12147e-06
7.76923e-08
-2.13639e-06
7.30485e-08
-2.15017e-06
6.83663e-08
-2.16282e-06
6.36486e-08
-2.17432e-06
5.88979e-08
-2.18468e-06
5.41159e-08
-2.19388e-06
4.93041e-08
-2.20193e-06
4.44631e-08
-2.20882e-06
3.95929e-08
-2.21455e-06
3.46931e-08
-2.21912e-06
2.9762e-08
-2.22251e-06
2.47977e-08
-2.22473e-06
1.97978e-08
-2.22577e-06
1.47601e-08
-2.22563e-06
9.68321e-09
-2.22431e-06
4.56728e-09
-2.22181e-06
-5.85893e-10
-2.2181e-06
-5.77347e-09
-2.21318e-06
-1.09965e-08
-2.20702e-06
-1.62615e-08
-2.19962e-06
-2.15771e-08
-2.19094e-06
-2.69454e-08
-2.18099e-06
-3.23666e-08
-2.16975e-06
-3.78398e-08
-2.1572e-06
-4.33629e-08
-2.14335e-06
-4.89335e-08
-2.12817e-06
-5.45482e-08
-2.11167e-06
-6.0203e-08
-2.09384e-06
-6.58931e-08
-2.07466e-06
-7.16127e-08
-2.05414e-06
-7.7356e-08
-2.03228e-06
-8.31168e-08
-2.00907e-06