/*--------------------------------*- C++ -*----------------------------------*\
| =========                 |                                                 |
| \\      /  F ield         | OpenFOAM: The Open Source CFD Toolbox           |
|  \\    /   O peration     | Version:  2112                                  |
|   \\  /    A nd           | Website:  www.openfoam.com                      |
|    \\/     M anipulation  |                                                 |
\*---------------------------------------------------------------------------*/
FoamFile
{
    version     2.0;
    format      ascii;
    arch        "LSB;label=32;scalar=64";
    class       volScalarField;
    location    "0.36";
    object      p;
}
// * * * * * * * * * * * * * * * * * * * * * * * * * * * * * * * * * * * * * //

dimensions      [0 2 -2 0 0 0 0];

internalField   nonuniform List<scalar> 
12225
(
13.8508
12.9305
12.6986
12.6999
12.6735
12.6461
12.6627
12.7292
12.844
13.0125
13.2436
13.5445
13.9188
14.3648
14.875
15.4306
16.0104
16.5599
13.4091
12.8749
12.6678
12.6587
12.6406
12.6211
12.6416
12.7103
12.8257
12.993
13.2211
13.5173
13.8858
14.3261
14.8322
15.3865
15.971
16.5183
13.2888
12.9178
12.6741
12.625
12.6
12.5768
12.5905
12.6518
12.7592
12.9158
13.1284
13.4028
13.7412
14.1422
14.5998
15.0983
15.6222
16.0995
13.138
12.845
12.614
12.5598
12.5442
12.529
12.544
12.6026
12.7039
12.8495
13.0441
13.2914
13.5917
13.941
14.3309
14.7452
15.1642
15.5434
12.9941
12.7795
12.5807
12.5184
12.5
12.485
12.4961
12.5478
12.6399
12.7726
12.949
13.1708
13.4365
13.7403
14.0715
14.4135
14.7437
15.0359
12.86
12.7049
12.5336
12.4622
12.439
12.4248
12.4336
12.4789
12.5613
12.68
12.8365
13.0311
13.2607
13.5183
13.7924
14.0668
14.3194
14.5263
12.7322
12.6195
12.4747
12.4004
12.3736
12.3599
12.3655
12.4025
12.4727
12.5747
12.7084
12.8727
13.0635
13.2727
13.4885
13.6953
13.8725
13.9974
12.6085
12.5263
12.4064
12.3327
12.3017
12.286
12.2867
12.314
12.3701
12.4532
12.5619
12.6939
12.8441
13.0038
13.1613
13.3018
13.4065
13.4563
12.4874
12.4268
12.3284
12.2574
12.2219
12.2025
12.1973
12.2137
12.2541
12.3164
12.3982
12.4961
12.6044
12.7142
12.814
12.8899
12.9258
12.9059
12.3675
12.322
12.2412
12.1738
12.134
12.1095
12.0969
12.1011
12.1241
12.1638
12.217
12.2795
12.3452
12.4053
12.449
12.4636
12.4351
12.3507
12.2477
12.2126
12.1453
12.0816
12.0375
12.0066
11.9851
11.9756
11.9798
11.9953
12.0187
12.0451
12.0682
12.0797
12.0696
12.0267
11.9388
11.7955
12.1369
12.1082
12.0501
11.9892
11.941
11.9031
11.8719
11.8489
11.8346
11.8271
11.8224
11.8156
11.8004
11.769
11.7123
11.6206
11.4834
11.2922
12.0261
12.0016
11.9501
11.891
11.8385
11.7928
11.7511
11.7136
11.6805
11.6495
11.6167
11.5773
11.5251
11.4531
11.3531
11.2169
11.0355
10.8023
11.898
11.8765
11.8295
11.7709
11.7129
11.6574
11.6025
11.5475
11.4921
11.434
11.3696
11.2939
11.2016
11.0864
10.9414
10.7599
10.5348
10.2614
11.751
11.7311
11.6861
11.6259
11.5607
11.493
11.4219
11.3463
11.2654
11.1771
11.0779
10.9636
10.8295
10.6704
10.481
10.2562
9.9909
9.68209
11.5844
11.5646
11.5189
11.4543
11.3794
11.2972
11.2069
11.1078
10.9988
10.878
10.7425
10.589
10.4138
10.2129
9.98273
9.7198
9.42095
9.08489
11.3999
11.3789
11.3294
11.2572
11.17
11.0706
10.9589
10.8341
10.6956
10.5418
10.3709
10.1804
9.96775
9.73066
9.46688
9.17472
8.85267
8.50091
11.2045
11.1808
11.1247
11.0418
10.9397
10.8212
10.6865
10.5357
10.3683
10.1837
9.98101
9.75887
9.5161
9.25165
8.96476
8.6551
8.32247
7.96805
11.0153
10.9873
10.9218
10.8251
10.7055
10.5668
10.4095
10.234
10.041
9.83068
9.60309
9.3581
9.09567
8.81592
8.51921
8.20621
7.87762
7.53517
10.9024
10.8697
10.7939
10.6833
10.5486
10.3939
10.22
10.0278
9.81855
9.59339
9.35292
9.09766
8.82823
8.54541
8.25008
7.94337
7.6264
7.30095
10.8587
10.8213
10.7352
10.6121
10.4652
10.299
10.1137
9.91045
9.69121
9.45746
9.21016
8.9502
8.67856
8.39635
8.10472
7.80497
7.49834
7.18655
10.8591
10.816
10.7175
10.581
10.4231
10.2474
10.0532
9.84211
9.61648
9.37797
9.12755
8.86627
8.59532
8.31594
8.02939
7.73701
7.44013
7.14041
10.8946
10.8425
10.7277
10.5771
10.4099
10.226
10.0235
9.80502
9.57385
9.33145
9.07871
8.81676
8.54689
8.2704
7.98851
7.70253
7.41369
7.12349
10.9569
10.8909
10.7543
10.5894
10.4157
10.2264
10.0181
9.79511
9.56084
9.31642
9.06265
8.80084
8.53239
8.25858
7.98059
7.69967
7.41703
7.13408
11.041
10.9537
10.7898
10.6105
10.4292
10.2317
10.0161
9.78853
9.55181
9.30612
9.05211
8.79123
8.52493
8.2544
7.98073
7.70506
7.42847
7.15223
11.1433
11.0209
10.8288
10.6468
10.4658
10.2622
10.0398
9.80785
9.56814
9.3202
9.06477
8.80343
8.53758
8.26836
7.99683
7.72397
7.45077
7.17824
11.2656
11.0808
10.8408
10.6534
10.474
10.2673
10.0429
9.81136
9.57275
9.32615
9.07269
8.81408
8.55162
8.28633
8.01919
7.75093
7.48226
7.21277
11.4101
11.1826
10.9138
10.7217
10.5313
10.3112
10.0778
9.84018
9.59658
9.34575
9.08918
8.82868
8.56549
8.30056
8.0348
7.76896
7.5031
7.23564
11.4901
11.1317
10.8778
10.7242
10.5422
10.323
10.0927
9.85879
9.61835
9.37048
9.11692
8.85958
8.59981
8.33872
8.07734
7.81676
7.55715
7.30095
11.9447
11.229
10.9253
10.7762
10.5824
10.3504
10.1129
9.87456
9.631
9.38091
9.12586
8.86758
8.60732
8.34609
8.08487
7.8248
7.56602
7.31172
-12.648
-12.6757
-12.1153
-11.3755
-11.2683
-11.928
-13.0364
-14.099
-14.7312
-14.876
-14.6763
-14.323
-13.9713
-13.7254
-13.597
-13.5092
-13.411
-13.2405
-12.9689
-12.912
-13.1141
-13.2313
-13.2287
-13.1635
-13.0679
-13.0631
-13.3508
-14.0308
-15.1323
-16.6189
-18.4019
-20.3588
-22.3479
-24.2297
-25.8793
-27.1973
-28.1142
-28.5928
-28.6249
-28.2125
-27.3461
-26.0044
-24.1925
-21.9958
-19.4814
-16.709
-13.7296
-10.5887
-7.32679
-3.9814
-0.587686
2.82061
6.21021
9.54776
12.8002
15.9353
18.9227
21.7347
24.3482
26.7447
28.9118
30.8432
32.539
34.0061
35.2572
36.3071
37.1714
37.8691
38.4246
38.8594
39.1917
39.4368
39.6088
39.7231
39.7935
39.8309
39.8451
39.8447
39.8374
39.8298
39.8283
39.839
39.8678
39.9215
40.0071
40.135
40.3144
40.507
40.6812
40.8104
40.8703
40.8636
40.8435
40.9071
41.1439
41.5781
42.1567
42.7961
43.414
44.0165
44.6615
45.3581
46.0748
46.76
47.4143
48.0462
48.5591
48.8599
49.0221
49.0396
48.4323
46.5337
42.8372
36.9228
29.2124
20.8555
13.0981
6.79673
2.39927
0.0937239
-0.128416
1.57943
4.81128
9.17401
14.2609
19.6735
25.055
30.1211
34.6737
38.6092
41.9045
44.5867
46.7077
48.3343
49.5311
50.3446
50.7942
50.872
50.5471
49.7767
48.5269
46.8024
44.6784
42.3716
40.2947
38.0201
35.3098
31.7662
27.1842
22.3865
18.9064
17.2843
16.5035
15.452
13.8418
11.8536
9.62588
7.34584
5.29983
3.81287
3.17389
3.55824
5.00606
7.34511
10.2897
13.467
16.5422
19.2799
21.5675
23.3873
24.7845
25.8325
26.6108
27.192
27.6375
27.9927
28.2981
28.5622
28.8628
29.0661
-13.5103
-13.5489
-13.4494
-13.6813
-14.4965
-15.7522
-17.0756
-18.1068
-18.6396
-18.5586
-17.805
-16.5913
-15.2974
-14.256
-13.5988
-13.2387
-12.9987
-12.8816
-12.898
-12.9402
-12.9704
-13.032
-13.2687
-13.5171
-13.58
-13.7265
-14.2857
-15.3807
-16.9998
-19.0369
-21.3295
-23.6972
-25.9713
-28.0017
-29.6671
-30.8807
-31.5878
-31.7626
-31.3982
-30.5017
-29.1313
-27.378
-25.3142
-22.9514
-20.3237
-17.4708
-14.4335
-11.2508
-7.95857
-4.5906
-1.17906
2.245
5.65063
9.00589
12.2781
15.4352
18.4466
21.2843
23.9247
26.3493
28.5458
30.5077
32.2351
33.7334
35.0137
36.0901
36.9787
37.697
38.2652
38.7052
39.0382
39.2835
39.4589
39.5796
39.6574
39.7022
39.7234
39.7292
39.7273
39.7244
39.7268
39.7401
39.77
39.8208
39.8953
39.9933
40.1089
40.2566
40.426
40.588
40.6827
40.6865
40.6462
40.6863
40.9361
41.4405
42.1339
42.8848
43.5906
44.2067
44.7785
45.3866
46.0334
46.7077
47.3733
48.0392
48.5815
48.8725
49.0106
48.9973
48.5095
46.7908
42.5356
35.4408
26.6375
17.7093
9.91214
3.9504
0.0958879
-1.65142
-1.47713
0.368883
3.67538
8.10263
13.2619
18.7581
24.2313
29.389
34.0258
38.0321
41.3805
44.101
46.2545
47.9148
49.1468
49.9945
50.4765
50.5841
50.2836
49.5287
48.2806
46.5298
44.3328
41.8169
39.012
36.3354
33.6801
30.6016
26.6275
22.2203
18.9934
17.6919
17.04
15.7456
13.9163
11.8742
9.61004
7.24489
5.10666
3.5564
2.88671
3.28117
4.76689
7.17901
10.1956
13.4394
16.5645
19.3315
21.6301
23.4489
24.8379
25.8744
26.6405
27.2105
27.6462
27.9931
28.2907
28.5487
28.8338
29.0084
-13.9827
-14.1756
-15.4713
-17.3996
-19.3469
-21.0529
-22.3848
-23.229
-23.5042
-23.1336
-22.1039
-20.4223
-18.2452
-15.9297
-13.9386
-12.6018
-11.8913
-11.5332
-11.6317
-12.2212
-12.8079
-13.4062
-14.2539
-15.3975
-16.762
-18.3373
-20.1287
-22.1035
-24.1945
-26.3117
-28.3596
-30.249
-31.9041
-33.2626
-34.274
-34.8955
-35.0942
-34.8468
-34.1443
-33.0083
-31.4509
-29.507
-27.2322
-24.676
-21.8846
-18.9003
-15.7616
-12.5029
-9.15423
-5.74317
-2.29561
1.16245
4.60346
7.99773
11.3139
14.5198
17.5838
20.4763
23.1724
25.6531
27.9055
29.9234
31.7065
33.2592
34.5907
35.7137
36.6432
37.3959
37.9963
38.463
38.817
39.0779
39.2646
39.3931
39.4767
39.5264
39.5521
39.5619
39.5632
39.5624
39.5656
39.5782
39.6051
39.6505
39.7177
39.8088
39.9249
40.0647
40.2114
40.342
40.4559
40.5576
40.6819
40.883
41.2067
41.6681
42.2432
42.8829
43.5276
44.1525
44.7953
45.4992
46.2232
46.8516
47.4398
48.1039
48.6901
48.9612
49.1077
48.9856
47.7157
44.1313
37.6675
29.3879
20.7865
12.8748
6.14099
0.921677
-2.52711
-4.10266
-3.82845
-1.86688
1.54517
6.08399
11.373
17.0201
22.6569
27.9782
32.7659
36.902
40.3598
43.1711
45.3991
47.1212
48.4075
49.3059
49.8362
49.9875
49.7219
48.9852
47.7269
45.9235
43.5997
40.8502
37.8114
34.6492
31.2854
27.698
23.9089
20.3385
17.9221
16.945
16.408
15.4087
13.8109
11.7218
9.31791
6.85262
4.65805
3.08627
2.42243
2.85112
4.40648
6.91962
10.0587
13.415
16.623
19.4372
21.7504
23.562
24.9329
25.9485
26.6953
27.249
27.6711
28.0055
28.289
28.5316
28.7866
28.9311
-15.6653
-16.4203
-18.5485
-20.7667
-22.5567
-23.9365
-24.9445
-25.5676
-25.7419
-25.3401
-24.2756
-22.5425
-20.2736
-17.8245
-15.5831
-13.8754
-13.0206
-12.8969
-13.1332
-13.889
-15.1109
-16.698
-18.5722
-20.6493
-22.8355
-25.0474
-27.2307
-29.3532
-31.3906
-33.3173
-35.0985
-36.6877
-38.0282
-39.0592
-39.7239
-39.9764
-39.7856
-39.1367
-38.0322
-36.4934
-34.5677
-32.3009
-29.7429
-26.9439
-23.9512
-20.8069
-17.5464
-14.1986
-10.7867
-7.33009
-3.84647
-0.35448
3.12425
6.56382
9.9342
13.2024
16.3345
19.2986
22.0673
24.6197
26.942
29.0278
30.8769
32.4946
33.8906
35.077
36.0677
36.8786
37.5297
38.0405
38.4315
38.7231
38.9344
39.0824
39.1818
39.2448
39.2816
39.3009
39.3099
39.3153
39.3227
39.3375
39.3643
39.4071
39.4687
39.5505
39.6519
39.7705
39.9014
40.0386
40.179
40.323
40.4862
40.7018
41.0084
41.4488
41.9992
42.6373
43.3351
44.0749
44.8526
45.6468
46.3985
47.0492
47.6614
48.3598
48.9706
49.2144
49.2141
48.2113
44.9193
38.6514
30.7797
22.6475
14.9138
7.86048
1.756
-3.04121
-6.21165
-7.59731
-7.18714
-5.10013
-1.56015
3.12655
8.59622
14.4588
20.3359
25.9032
30.9239
35.267
38.8969
41.8487
44.19
46.0041
47.3662
48.3293
48.9164
49.1174
48.8919
48.1795
46.9197
45.0745
42.6525
39.7216
36.3842
32.7663
28.9225
24.9352
20.9683
17.452
15.1185
14.2472
14.1504
13.8312
12.7687
10.9836
8.70027
6.23658
4.0165
2.43908
1.79504
2.27625
3.93032
6.59027
9.89721
13.4024
16.7148
19.5859
21.9164
23.7183
25.0658
26.0541
26.7751
27.3065
27.7094
28.0269
28.2927
28.5159
28.7357
28.8516
-17.4621
-18.603
-20.3639
-21.9391
-23.1816
-24.1509
-24.8845
-25.3672
-25.5023
-25.2419
-24.4774
-23.1938
-21.4929
-19.6173
-17.9213
-16.75
-16.2462
-16.4005
-17.1868
-18.5708
-20.4266
-22.5894
-24.9092
-27.2747
-29.6187
-31.9093
-34.134
-36.2824
-38.3356
-40.2587
-42.0004
-43.4971
-44.6805
-45.4852
-45.8569
-45.7576
-45.1677
-44.0869
-42.5414
-40.5725
-38.2328
-35.582
-32.6811
-29.5877
-26.3528
-23.0186
-19.6176
-16.1723
-12.6975
-9.20197
-5.69258
-2.17764
1.32953
4.8086
8.23193
11.5662
14.7753
17.8242
20.682
23.3248
25.7358
27.9065
29.8358
31.5298
32.999
34.2563
35.3159
36.1939
36.9067
37.4727
37.9117
38.2442
38.4897
38.6661
38.7886
38.8705
38.9229
38.955
38.9746
38.9883
39.0018
39.0203
39.0482
39.0894
39.1468
39.2224
39.3168
39.4292
39.5572
39.6969
39.8477
40.0162
40.2202
40.4866
40.842
41.283
41.8265
42.4546
43.1483
43.8994
44.7119
45.5863
46.491
47.3408
48.1075
48.8892
49.5282
49.709
49.0356
46.2474
40.2367
32.3513
24.2779
16.5764
9.29867
2.5726
-3.26671
-7.82412
-10.7915
-12.0097
-11.455
-9.2315
-5.54715
-0.687505
5.00309
11.1422
17.341
23.2468
28.5909
33.2196
37.085
40.2253
42.712
44.6365
46.0819
47.1087
47.746
47.9868
47.7902
47.0908
45.8181
43.9206
41.3893
38.2728
34.6686
30.7071
26.4973
22.1596
17.9086
14.1612
11.5242
10.3744
10.375
10.6412
10.399
9.33468
7.51563
5.29625
3.18391
1.65488
1.06019
1.62537
3.40832
6.25136
9.75528
13.4323
16.8611
19.7882
22.1285
23.9121
25.2285
26.1833
26.874
27.3803
27.7623
28.0612
28.3069
28.5076
28.6904
28.7776
-18.0033
-19.0528
-20.1002
-21.1089
-21.9587
-22.6696
-23.2505
-23.6715
-23.9084
-23.8798
-23.5515
-22.9193
-22.0471
-21.1218
-20.404
-20.0849
-20.2986
-21.1404
-22.5762
-24.4584
-26.6349
-28.9812
-31.4125
-33.8776
-36.3501
-38.8142
-41.2494
-43.6213
-45.8773
-47.9493
-49.7595
-51.2278
-52.2793
-52.8501
-52.8924
-52.3811
-51.3187
-49.7345
-47.6745
-45.194
-42.3608
-39.2487
-35.9314
-32.4762
-28.9398
-25.3662
-21.7856
-18.2153
-14.6617
-11.1227
-7.59249
-4.06712
-0.549448
2.94734
6.39913
9.77315
13.0323
16.1402
19.066
21.7866
24.286
26.5532
28.5826
30.3749
31.937
33.2813
34.4223
35.375
36.1559
36.783
37.2759
37.6548
37.9395
38.1487
38.2987
38.4036
38.4752
38.5234
38.5562
38.5805
38.602
38.6258
38.6563
38.6973
38.7519
38.8225
38.9101
39.0152
39.1372
39.276
39.4344
39.6197
39.8455
40.1302
40.4918
40.9421
41.4896
42.1257
42.8364
43.6165
44.4723
45.4131
46.4306
47.4547
48.4269
49.3635
50.0486
50.0321
48.0523
42.8338
34.7302
26.2738
18.2897
10.7284
3.51419
-3.1464
-8.87534
-13.2872
-16.0932
-17.1503
-16.4451
-14.0789
-10.249
-5.21733
0.701415
7.145
13.7197
20.0411
25.7946
30.7872
34.9515
38.3246
40.9842
43.0328
44.565
45.6514
46.3292
46.5968
46.4134
45.7084
44.4005
42.4242
39.7561
36.4317
32.5448
28.2339
23.6596
19.0137
14.5453
10.6167
7.70795
6.1817
5.9401
6.41512
6.87676
6.72137
5.69459
4.0121
2.20464
0.834897
0.344693
1.02654
2.96882
6.00744
9.70783
13.5522
17.0882
20.058
22.3929
24.1451
25.4205
26.3348
26.9904
27.4682
27.8266
28.1044
28.3281
28.5049
28.6524
28.7129
-16.7708
-17.5265
-18.1967
-18.9304
-19.6086
-20.2193
-20.7625
-21.2421
-21.6455
-21.9397
-22.0971
-22.1203
-22.0763
-22.1029
-22.3688
-23.0255
-24.1599
-25.7551
-27.7176
-29.9435
-32.3546
-34.9014
-37.5592
-40.3129
-43.1424
-46.012
-48.866
-51.6305
-54.217
-56.5306
-58.4767
-59.9676
-60.9271
-61.2946
-61.0295
-60.1195
-58.5886
-56.4762
-53.8343
-50.7432
-47.2965
-43.5935
-39.73
-35.791
-31.8442
-27.9377
-24.0998
-20.341
-16.6568
-13.0315
-9.44444
-5.87745
-2.32252
1.21286
4.70519
8.11837
11.4103
14.541
17.4789
20.2081
22.7265
25.0366
27.1384
29.027
30.6975
32.1513
33.395
34.4392
35.2993
35.9943
36.5451
36.9734
37.3001
37.5449
37.725
37.8553
37.9484
38.0146
38.0623
38.0985
38.1292
38.1592
38.1931
38.2347
38.2872
38.3532
38.4348
38.5332
38.6495
38.7851
38.944
39.134
39.3681
39.6632
40.0361
40.4976
41.0504
41.6899
42.4106
43.2138
44.1037
45.087
46.1627
47.2876
48.4031
49.4423
50.1145
49.6433
45.9318
38.3053
29.1161
20.4993
12.4843
4.80646
-2.53274
-9.24877
-14.9548
-19.2776
-21.9428
-22.8299
-21.9517
-19.4254
-15.4494
-10.2651
-4.14719
2.58188
9.5426
16.3248
22.5557
27.9824
32.5069
36.1543
39.0109
41.1941
42.8132
43.9521
44.6586
44.9372
44.7479
44.0142
42.6436
40.5565
37.7157
34.1453
29.937
25.2456
20.2779
15.2964
10.6234
6.60483
3.59544
1.8621
1.39968
1.88656
2.78164
3.44634
3.37986
2.51424
1.25056
0.192861
-0.112386
0.715988
2.81888
6.02361
9.87859
13.842
17.4409
20.4185
22.7222
24.424
25.645
26.5097
27.1244
27.5696
27.9017
28.1567
28.3575
28.5101
28.6252
28.6605
-14.0201
-14.4882
-15.0904
-15.7701
-16.4473
-17.1039
-17.7436
-18.3762
-19.0021
-19.6136
-20.2149
-20.8419
-21.5728
-22.5164
-23.7717
-25.3829
-27.3246
-29.5343
-31.9573
-34.5645
-37.3482
-40.3117
-43.4558
-46.7647
-50.1972
-53.6857
-57.1397
-60.4543
-63.5175
-66.2173
-68.4477
-70.112
-71.1242
-71.4141
-70.9372
-69.6821
-67.6682
-64.9412
-61.5877
-57.7206
-53.4707
-48.9747
-44.3637
-39.7525
-35.2312
-30.8604
-26.6701
-22.6614
-18.8113
-15.08
-11.4206
-7.78946
-4.16087
-0.535481
3.0589
6.57391
9.95325
13.1448
16.1104
18.8325
21.3166
23.5842
25.6633
27.5716
29.3099
30.8668
32.227
33.3822
34.3379
35.1112
35.7257
36.2066
36.5776
36.8601
37.0726
37.2306
37.3473
37.4333
37.4975
37.5471
37.588
37.6252
37.6632
37.7058
37.7562
37.8175
37.8919
37.9815
38.0881
38.2142
38.3644
38.5468
38.7742
39.0624
39.4272
39.879
40.4205
41.0488
41.7622
42.5737
43.486
44.502
45.6074
46.7526
47.877
48.8816
49.4082
48.1761
42.6568
33.2092
23.6232
14.9142
6.7075
-1.24606
-8.81939
-15.6824
-21.4397
-25.7138
-28.238
-28.9197
-27.814
-25.0761
-20.9276
-15.6019
-9.33069
-2.37506
4.92971
12.1693
18.9125
24.8283
29.7658
33.7259
36.8018
39.1288
40.835
42.0202
42.7443
43.0191
42.8051
42.0195
40.5584
38.3283
35.2789
31.4249
26.8566
21.7446
16.3382
10.9652
6.02381
1.90218
-1.08181
-2.76397
-3.19673
-2.61714
-1.40128
-0.066662
0.826584
0.965816
0.506722
-0.0275149
-0.0285517
0.978364
3.20023
6.48971
10.4116
14.3949
17.9727
20.8968
23.1281
24.7533
25.9037
26.709
27.2765
27.685
27.9879
28.2178
28.3945
28.523
28.6088
28.6209
-9.96501
-10.4074
-11.0053
-11.7231
-12.4783
-13.2519
-14.0472
-14.8764
-15.7606
-16.7314
-17.8373
-19.141
-20.704
-22.5601
-24.6972
-27.0691
-29.6293
-32.3574
-35.2628
-38.374
-41.7244
-45.3363
-49.2061
-53.2969
-57.5382
-61.8326
-66.0652
-70.1121
-73.8453
-77.1348
-79.8534
-81.8812
-83.1066
-83.4306
-82.7875
-81.1733
-78.611
-75.1686
-70.9646
-66.1514
-60.904
-55.4054
-49.8319
-44.339
-39.0511
-34.0551
-29.397
-25.0798
-21.0628
-17.2695
-13.6036
-9.97118
-6.30772
-2.59451
1.13763
4.82129
8.37468
11.719
14.7977
17.586
20.0845
22.3162
24.3278
26.1733
27.8925
29.4913
30.9429
32.2109
33.2745
34.138
34.8238
35.3613
35.7789
36.1011
36.3479
36.5358
36.6783
36.7863
36.8688
36.9331
36.9853
37.0304
37.0728
37.1162
37.164
37.2191
37.2842
37.3617
37.4538
37.5632
37.6946
37.8556
38.0583
38.3181
38.6502
39.0642
39.561
40.1379
40.7969
41.581
42.4888
43.5223
44.6361
45.7409
46.753
47.5727
47.7894
45.5861
38.418
27.9876
18.261
9.3971
0.861823
-7.47114
-15.3708
-22.4738
-28.3551
-32.6126
-34.9772
-35.3894
-33.9628
-30.9146
-26.5189
-21.0251
-14.631
-7.52219
0.0438959
7.68443
14.9308
21.3643
26.7538
31.0594
34.3754
36.8559
38.6508
39.8779
40.6106
40.8681
40.6114
39.751
38.1711
35.7648
32.469
28.2892
23.3152
17.7331
11.8352
6.01609
0.743872
-3.52072
-6.43885
-7.88553
-8.00639
-7.09215
-5.46639
-3.51828
-1.73361
-0.526299
0.0266367
0.260436
0.739744
1.99262
4.29739
7.57226
11.4139
15.2799
18.7256
21.5154
23.622
25.1387
26.1996
26.9342
27.4472
27.8142
28.0844
28.2871
28.4389
28.5437
28.6034
28.5948
-5.12148
-5.55784
-6.15789
-6.90929
-7.73984
-8.63531
-9.60593
-10.6852
-11.9286
-13.4021
-15.166
-17.2511
-19.64
-22.272
-25.0749
-28.0033
-31.0572
-34.276
-37.7201
-41.4531
-45.5227
-49.9458
-54.6984
-59.7165
-64.9032
-70.1406
-75.2981
-80.2365
-84.8069
-88.8508
-92.2039
-94.7112
-96.2333
-96.6359
-95.8245
-93.817
-90.6571
-86.4348
-81.302
-75.4547
-69.1146
-62.5118
-55.8668
-49.3748
-43.1935
-37.4382
-32.1805
-27.4459
-23.2044
-19.3593
-15.7578
-12.2324
-8.64659
-4.9342
-1.11655
2.72155
6.47088
10.0239
13.3016
16.2552
18.8631
21.1402
23.1356
24.9212
26.5722
28.1384
29.6187
30.9663
32.1293
33.0857
33.8475
34.4454
34.9122
35.2763
35.5597
35.7798
35.9501
36.0819
36.1842
36.2645
36.3289
36.3823
36.429
36.4727
36.5166
36.5637
36.6165
36.6774
36.7487
36.8329
36.9335
37.0572
37.2141
37.418
37.682
38.0122
38.4061
38.865
39.418
40.0882
40.9446
41.9749
43.0873
44.1267
44.9561
45.4772
45.2508
42.0604
33.652
22.7062
12.9203
3.83288
-5.12737
-13.918
-22.2406
-29.684
-35.7629
-40.0298
-42.2037
-42.2639
-40.3952
-36.8993
-32.1335
-26.3937
-19.8646
-12.6583
-4.92839
3.01552
10.7102
17.6553
23.5146
28.1889
31.7622
34.4055
36.2917
37.5584
38.2926
38.5213
38.2054
37.2482
35.5217
32.9053
29.3234
24.7719
19.3386
13.2256
6.77039
0.442926
-5.20619
-9.63939
-12.4743
-13.5766
-13.1623
-11.6411
-9.40207
-6.78276
-4.15895
-1.91833
-0.268973
0.920688
2.07497
3.69141
6.09182
9.26835
12.8965
16.5065
19.706
22.2774
24.2039
25.5789
26.531
27.1833
27.6349
27.9556
28.1899
28.3637
28.49
28.5718
28.6084
28.5817
-0.0654025
-0.467178
-1.02608
-1.76547
-2.62943
-3.62948
-4.80232
-6.2134
-7.93927
-10.0404
-12.529
-15.3525
-18.4092
-21.596
-24.8543
-28.1898
-31.6608
-35.3552
-39.3668
-43.7741
-48.622
-53.9096
-59.5887
-65.5709
-71.7409
-77.9668
-84.1044
-89.9947
-95.4592
-100.301
-104.315
-107.302
-109.083
-109.52
-108.537
-106.17
-102.428
-97.4427
-91.4099
-84.5685
-77.187
-69.542
-61.8955
-54.4728
-47.4494
-40.9487
-35.0522
-29.8061
-25.2113
-21.1943
-17.5973
-14.2082
-10.8035
-7.2255
-3.44274
0.464906
4.36443
8.10477
11.5845
14.7351
17.5197
19.9314
21.9991
23.7897
25.3939
26.899
28.3493
29.7211
30.9496
31.9841
32.8175
33.4749
33.9915
34.3987
34.7202
34.9741
35.1741
35.3312
35.4546
35.5517
35.6285
35.6902
35.7408
35.7839
35.8225
35.8592
35.8963
35.9359
35.9796
36.0291
36.0865
36.1557
36.2438
36.3605
36.5139
36.7022
36.9151
37.1561
37.4752
37.9611
38.703
39.6999
40.8102
41.7919
42.424
42.5949
41.8623
37.8298
28.6158
17.4161
7.55401
-1.82656
-11.2749
-20.5969
-29.4426
-37.3251
-43.6666
-47.9575
-49.9055
-49.5311
-47.0952
-43.0049
-37.7251
-31.6242
-24.902
-17.6155
-9.80602
-1.67232
6.38159
13.7929
20.1131
25.1647
29.0058
31.8189
33.7993
35.1042
35.8347
36.0249
35.6351
34.5607
32.6613
29.8021
25.8938
20.9213
14.9685
8.25343
1.16293
-5.74657
-11.8209
-16.4349
-19.16
-19.8363
-18.7219
-16.3543
-13.2684
-9.84678
-6.38924
-3.19455
-0.490647
1.71319
3.6723
5.77862
8.33985
11.4066
14.7526
18.0158
20.8727
23.157
24.8585
26.0641
26.8912
27.4516
27.8357
28.1063
28.3026
28.4461
28.547
28.6066
28.6228
28.5809
4.55517
4.22363
3.74855
3.07473
2.20566
1.11133
-0.285126
-2.06941
-4.30906
-7.01612
-10.1229
-13.4968
-16.9949
-20.5245
-24.0736
-27.7025
-31.5162
-35.6354
-40.1717
-45.206
-50.7722
-56.8501
-63.3708
-70.2283
-77.2934
-84.4218
-91.4526
-98.2028
-104.462
-109.995
-114.562
-117.939
-119.936
-120.412
-119.303
-116.589
-112.349
-106.728
-99.9515
-92.293
-84.0619
-75.5783
-67.1435
-59.0095
-51.3574
-44.2997
-37.8991
-32.1892
-27.1815
-22.8452
-19.0784
-15.7003
-12.4654
-9.1256
-5.53666
-1.70057
2.25328
6.14092
9.80154
13.1348
16.0944
18.6662
20.8614
22.7244
24.3363
25.7994
27.1965
28.5444
29.7918
30.8738
31.7628
32.4728
33.0365
33.4858
33.8455
34.1338
34.364
34.5472
34.6921
34.8062
34.8955
34.9651
35.0189
35.0603
35.0919
35.1158
35.1339
35.1473
35.1568
35.1625
35.1642
35.1622
35.1584
35.1559
35.1534
35.1359
35.0807
34.9951
34.9646
35.1475
35.6879
36.6081
37.7165
38.6704
39.1386
38.9721
37.7482
33.1014
23.4552
12.1719
2.19589
-7.55125
-17.5224
-27.4354
-36.8837
-45.2744
-51.9164
-56.2369
-57.9276
-57.0496
-53.9511
-49.1507
-43.232
-36.6533
-29.6551
-22.2674
-14.4337
-6.22103
2.09928
9.88272
16.6322
22.0535
26.1633
29.1484
31.2242
32.5663
33.2892
33.4333
32.9574
31.7483
29.6524
26.52
22.2468
16.8038
10.2684
2.87399
-4.9373
-12.5095
-19.0652
-23.8708
-26.4495
-26.6206
-24.678
-21.2748
-17.1264
-12.7436
-8.41534
-4.34448
-0.703006
2.44618
5.2253
7.89489
10.6976
13.7052
16.78
19.6699
22.1481
24.1055
25.5558
26.5756
27.2679
27.731
28.0442
28.2628
28.42
28.5327
28.6085
28.6473
28.6457
28.5913
8.25735
8.01591
7.64613
7.05673
6.21431
5.04643
3.45549
1.35365
-1.29606
-4.44533
-7.9577
-11.655
-15.39
-19.0999
-22.8152
-26.6353
-30.6942
-35.1311
-40.0652
-45.5747
-51.6834
-58.3575
-65.5141
-73.0346
-80.7775
-88.5846
-96.2773
-103.649
-110.463
-116.462
-121.385
-124.998
-127.114
-127.599
-126.383
-123.454
-118.901
-112.89
-105.663
-97.5172
-88.7843
-79.8092
-70.9203
-62.3899
-54.4025
-47.0603
-40.397
-34.414
-29.095
-24.4161
-20.3401
-16.7775
-13.5507
-10.4094
-7.11006
-3.51707
0.338896
4.28406
8.09528
11.5999
14.7154
17.4245
19.7399
21.6954
23.355
24.8135
26.1683
27.4702
28.6974
29.7912
30.7126
31.463
32.0678
32.5566
32.953
33.2748
33.5348
33.7436
33.9097
34.0405
34.142
34.2189
34.2751
34.3137
34.3367
34.3459
34.342
34.3253
34.2949
34.249
34.1844
34.0967
33.9812
33.8313
33.6318
33.3489
32.9421
32.4241
31.9294
31.6978
31.9413
32.7283
33.8292
34.795
35.1646
34.7238
33.087
28.0809
18.3137
7.06806
-3.08401
-13.2371
-23.7411
-34.2553
-44.3342
-53.2546
-60.1951
-64.5302
-65.9429
-64.5397
-60.7327
-55.1602
-48.5312
-41.3951
-34.0498
-26.5231
-18.6885
-10.4659
-2.03775
6.04619
13.1687
18.9338
23.3017
26.4549
28.6243
30.0019
30.7139
30.806
30.2346
28.8771
26.5659
23.1351
18.4632
12.5045
5.32664
-2.82233
-11.439
-19.7542
-26.8492
-31.8642
-34.256
-33.8442
-30.9683
-26.3902
-21.0073
-15.5131
-10.2539
-5.3622
-0.917989
3.03489
6.54876
9.77406
12.869
15.8904
18.7573
21.3135
23.4301
25.0668
26.2603
27.0908
27.6468
28.0122
28.2546
28.4211
28.5391
28.6217
28.6734
28.693
28.676
28.6116
10.9251
10.7738
10.496
9.99272
9.1942
7.99985
6.30191
4.02039
1.14727
-2.22695
-5.92836
-9.76312
-13.5926
-17.3759
-21.1662
-25.0806
-29.2654
-33.867
-39.0066
-44.7606
-51.1491
-58.1343
-65.6274
-73.5018
-81.6055
-89.7659
-97.7884
-105.45
-112.498
-118.686
-123.741
-127.43
-129.573
-130.056
-128.812
-125.831
-121.206
-115.117
-107.812
-99.5931
-90.7951
-81.7667
-72.8401
-64.2893
-56.2944
-48.9417
-42.2515
-36.2095
-30.7747
-25.891
-21.5181
-17.6371
-14.2015
-11.0674
-7.99164
-4.72555
-1.14053
2.69672
6.56027
10.1973
13.4476
16.2641
18.665
20.6924
22.4055
23.8862
25.2262
26.4888
27.679
28.7581
29.6894
30.4659
31.1042
31.6281
32.0585
32.4117
32.7
32.9333
33.1198
33.2666
33.3796
33.4633
33.5213
33.5562
33.5698
33.5629
33.5352
33.4856
33.4115
33.3085
33.17
32.9865
32.745
32.4274
32.001
31.4078
30.585
29.5504
28.4969
27.7628
27.6283
28.2265
29.3054
30.3185
30.6679
30.0463
28.1168
22.9949
13.3648
2.21004
-8.16424
-18.7014
-29.712
-40.8004
-51.4484
-60.8617
-68.0601
-72.3897
-73.5323
-71.6121
-67.106
-60.7724
-53.436
-45.7246
-38.0086
-30.3217
-22.4938
-14.3288
-5.8755
2.40101
9.8227
15.8892
20.493
23.8031
26.0609
27.4709
28.169
28.2051
27.532
26.0168
23.4773
19.7303
14.6351
8.12603
0.257447
-8.70848
-18.2019
-27.3275
-35.0105
-40.2541
-42.4354
-41.3745
-37.4808
-31.6331
-24.9004
-18.1795
-11.9295
-6.25038
-1.12235
3.4764
7.58795
11.2959
14.6847
17.777
20.5161
22.8146
24.6263
25.9757
26.9339
27.5863
28.0128
28.2848
28.4597
28.5766
28.6573
28.7112
28.7405
28.7425
28.7124
28.6404
12.7465
12.6597
12.4576
12.0339
11.2999
10.1419
8.44936
6.14929
3.24581
-0.158908
-3.88405
-7.73633
-11.5823
-15.3833
-19.1905
-23.1177
-27.309
-31.9099
-37.0386
-42.7769
-49.1481
-56.1213
-63.6113
-71.4906
-79.6014
-87.7626
-95.7701
-103.396
-110.391
-116.499
-121.477
-125.106
-127.217
-127.721
-126.487
-123.584
-119.103
-113.227
-106.197
-98.3035
-89.8684
-81.225
-72.6885
-64.5129
-56.8552
-49.7783
-43.2888
-37.3735
-31.9971
-27.0871
-22.5626
-18.3995
-14.641
-11.3027
-8.25788
-5.24418
-2.00303
1.56083
5.31228
8.9745
12.3042
15.193
17.6454
19.7145
21.4668
22.9775
24.325
25.569
26.7277
27.783
28.7099
29.5001
30.163
30.716
31.1762
31.5577
31.8717
32.1276
32.3332
32.4952
32.619
32.7091
32.7686
32.7997
32.8036
32.7802
32.7282
32.645
32.5258
32.3636
32.1481
31.8642
31.4906
30.9962
30.3291
29.4045
28.1334
26.5372
24.8685
23.5646
23.0193
23.3925
24.432
25.5164
25.9185
25.2175
23.1274
18.0883
8.78835
-2.24784
-12.8516
-23.7084
-35.1362
-46.7315
-57.863
-67.6167
-75.0131
-79.3157
-80.2222
-77.82
-72.6921
-65.6906
-57.7227
-49.5037
-41.441
-33.6006
-25.7864
-17.7169
-9.31436
-0.944265
6.69455
13.0079
17.8149
21.2637
23.6002
25.0376
25.719
25.6969
24.9193
23.2428
20.4701
16.3995
10.8695
3.79184
-4.79506
-14.6163
-25.0319
-35.0121
-43.3146
-48.7974
-50.7575
-49.0136
-44.0519
-36.8851
-28.7482
-20.7387
-13.4607
-7.01865
-1.30147
3.80252
8.36825
12.4553
16.0993
19.2881
21.9673
24.09
25.6694
26.7854
27.5438
28.0404
28.3516
28.5397
28.6535
28.7253
28.772
28.7996
28.8084
28.7948
28.7537
28.6761
14.0334
14.0015
13.8565
13.5025
12.8482
11.7804
10.1941
8.01921
5.25549
1.98633
-1.64185
-5.4291
-9.24991
-13.0489
-16.8526
-20.7508
-24.8687
-29.3391
-34.2766
-39.7616
-45.8289
-52.4599
-59.583
-67.0818
-74.8039
-82.5708
-90.1811
-97.4154
-104.041
-109.821
-114.527
-117.957
-119.954
-120.411
-119.377
-116.754
-112.672
-107.319
-100.918
-93.7344
-86.0645
-78.2121
-70.4568
-63.011
-55.9958
-49.4568
-43.3975
-37.8021
-32.6371
-27.8353
-23.3026
-18.986
-14.9483
-11.3241
-8.1443
-5.22765
-2.27152
0.95343
4.45299
8.00477
11.3217
14.2289
16.6982
18.7822
20.5541
22.0864
23.4454
24.6816
25.8175
26.8498
27.7663
28.5616
29.2412
29.8169
30.302
30.708
31.045
31.3215
31.5448
31.7211
31.8555
31.9519
32.0131
32.0408
32.0355
31.9963
31.9209
31.805
31.6419
31.4217
31.1303
30.7476
30.2441
29.5763
28.6737
27.4234
25.706
23.5413
21.2431
19.3579
18.3759
18.4935
19.4674
20.6284
21.1387
20.451
18.3169
13.5001
4.67262
-6.19239
-16.9954
-28.0952
-39.8096
-51.7628
-63.2229
-73.2073
-80.6993
-84.9393
-85.6164
-82.8698
-77.2566
-69.705
-61.2265
-52.6051
-44.2772
-36.3263
-28.5486
-20.6059
-12.3126
-3.93173
3.84609
10.3486
15.3207
18.8846
21.2868
22.745
23.4069
23.3261
22.4452
20.6095
17.6068
13.216
7.25352
-0.392472
-9.70228
-20.39
-31.7444
-42.5979
-51.5368
-57.2632
-58.9998
-56.5713
-50.529
-42.0332
-32.4871
-23.1766
-14.8615
-7.68019
-1.44591
4.0519
8.94781
13.3099
17.1512
20.4337
23.0964
25.111
26.5284
27.4693
28.0699
28.4391
28.6538
28.7708
28.8322
28.8648
28.8814
28.8857
28.8763
28.849
28.7987
28.7172
14.9588
14.9521
14.8448
14.5554
13.9986
13.0685
11.6687
9.72483
7.21776
4.20136
0.78874
-2.86652
-6.62537
-10.4084
-14.2068
-18.0713
-22.0923
-26.3757
-31.0217
-36.1081
-41.6754
-47.72
-54.1919
-60.998
-68.0075
-75.06
-81.9723
-88.5448
-94.5674
-99.8292
-104.13
-107.294
-109.185
-109.718
-108.883
-106.667
-103.173
-98.5629
-93.0349
-86.8237
-80.1879
-73.3895
-66.6568
-60.1467
-53.9449
-48.0975
-42.6229
-37.4998
-32.6731
-28.0697
-23.6072
-19.2329
-15.0161
-11.1589
-7.81212
-4.88831
-2.10303
0.832247
4.03703
7.38405
10.5971
13.4575
15.903
17.9759
19.7482
21.2878
22.651
23.8796
24.9967
26.0079
26.9107
27.704
28.3918
28.9823
29.4853
29.9103
30.2658
30.5596
30.7981
30.9872
31.1312
31.2338
31.2972
31.3226
31.3099
31.2576
31.1622
31.0182
30.8172
30.5469
30.1899
29.7217
29.1066
28.2913
27.1911
25.6705
23.5786
20.9228
18.0658
15.6576
14.2638
14.1282
15.0224
16.2504
16.8901
16.2769
14.1901
9.67967
1.39257
-9.24374
-20.1827
-31.4317
-43.2705