/*--------------------------------*- C++ -*----------------------------------*\
| =========                 |                                                 |
| \\      /  F ield         | OpenFOAM: The Open Source CFD Toolbox           |
|  \\    /   O peration     | Version:  2112                                  |
|   \\  /    A nd           | Website:  www.openfoam.com                      |
|    \\/     M anipulation  |                                                 |
\*---------------------------------------------------------------------------*/
FoamFile
{
    version     2.0;
    format      ascii;
    arch        "LSB;label=32;scalar=64";
    class       volScalarField;
    location    "0.02";
    object      kU;
}
// * * * * * * * * * * * * * * * * * * * * * * * * * * * * * * * * * * * * * //

dimensions      [0 2 -2 0 0 0 0];

internalField   nonuniform List<scalar> 
12225
(
0.465705
0.624519
0.674648
0.674532
0.65377
0.625613
0.595634
0.56613
0.538049
0.511759
0.48736
0.464832
0.444112
0.425126
0.407795
0.39206
0.377426
0.36481
0.153735
0.148923
0.138465
0.127303
0.117352
0.109032
0.102316
0.0970091
0.0928762
0.0897092
0.0873421
0.0856459
0.0845199
0.0838835
0.0836839
0.0839231
0.0848496
0.0877181
0.14667
0.140313
0.131887
0.122515
0.113028
0.103935
0.0955131
0.0878858
0.0810833
0.0750811
0.0698257
0.0652508
0.0612862
0.0578633
0.0549201
0.0524088
0.0503202
0.0487193
0.147133
0.143105
0.138314
0.133044
0.127569
0.122103
0.116793
0.111728
0.106956
0.102499
0.0983613
0.0945338
0.0910023
0.0877498
0.0847568
0.0820021
0.0794704
0.0772204
0.147519
0.144536
0.141235
0.137707
0.134049
0.130349
0.126681
0.123099
0.119639
0.116325
0.113174
0.110191
0.107379
0.104738
0.102265
0.0999566
0.0978222
0.0959343
0.147706
0.145198
0.142578
0.139867
0.137101
0.134319
0.131554
0.128835
0.126183
0.123613
0.121136
0.11876
0.11649
0.114327
0.112274
0.110334
0.108517
0.106875
0.147785
0.145495
0.143211
0.140925
0.138642
0.136373
0.134133
0.131933
0.129784
0.127694
0.125671
0.123719
0.12184
0.120038
0.118315
0.116672
0.11512
0.113694
0.147814
0.145617
0.143495
0.14143
0.139412
0.137438
0.13551
0.13363
0.131801
0.130027
0.128308
0.126648
0.125048
0.123508
0.12203
0.120616
0.119271
0.118022
0.147823
0.145662
0.14361
0.141652
0.139772
0.137962
0.136216
0.13453
0.132902
0.131331
0.129815
0.128355
0.126948
0.125595
0.124295
0.123049
0.12186
0.120749
0.147825
0.145676
0.143651
0.141738
0.139923
0.138196
0.136547
0.134972
0.133463
0.132016
0.130629
0.129298
0.128021
0.126796
0.125621
0.124495
0.12342
0.122412
0.147826
0.145679
0.143663
0.141767
0.139978
0.138288
0.136686
0.135166
0.13372
0.132344
0.131031
0.129778
0.128581
0.127438
0.126344
0.125299
0.124303
0.123369
0.147825
0.145679
0.143665
0.141774
0.139994
0.138316
0.136732
0.135235
0.133816
0.132471
0.131194
0.129979
0.128824
0.127723
0.126675
0.125675
0.124725
0.123835
0.147825
0.145678
0.143665
0.141775
0.139997
0.138324
0.136748
0.13526
0.133854
0.132524
0.131264
0.13007
0.128937
0.127861
0.126838
0.125866
0.124945
0.124084
0.147824
0.145678
0.143664
0.141773
0.139997
0.138325
0.136751
0.135266
0.133865
0.132542
0.13129
0.130106
0.128984
0.127921
0.126913
0.125957
0.125053
0.124208
0.147824
0.145677
0.143663
0.141772
0.139995
0.138323
0.136749
0.135265
0.133866
0.132544
0.131296
0.130115
0.128998
0.127941
0.126939
0.125991
0.125095
0.12426
0.147824
0.145676
0.143662
0.14177
0.139993
0.138321
0.136746
0.135263
0.133864
0.132543
0.131296
0.130116
0.129001
0.127946
0.126948
0.126004
0.125112
0.12428
0.147824
0.145676
0.143661
0.141769
0.139991
0.138319
0.136744
0.135261
0.133862
0.132542
0.131295
0.130117
0.129003
0.12795
0.126954
0.126011
0.125121
0.124289
0.147823
0.145675
0.14366
0.141768
0.13999
0.138318
0.136744
0.13526
0.133862
0.132542
0.131296
0.130119
0.129007
0.127955
0.126959
0.126018
0.125128
0.124296
0.147823
0.145675
0.14366
0.141768
0.13999
0.138318
0.136744
0.135262
0.133864
0.132545
0.1313
0.130124
0.129012
0.12796
0.126965
0.126024
0.125133
0.1243
0.147823
0.145675
0.14366
0.141769
0.139992
0.13832
0.136747
0.135265
0.133868
0.13255
0.131305
0.13013
0.129018
0.127967
0.126971
0.126029
0.125137
0.124302
0.147823
0.145676
0.143661
0.14177
0.139994
0.138323
0.13675
0.135269
0.133872
0.132554
0.131309
0.130132
0.129019
0.127966
0.126969
0.126023
0.125128
0.124289
0.147824
0.145676
0.143662
0.141772
0.139995
0.138323
0.136749
0.135265
0.133865
0.132542
0.131291
0.130107
0.128985
0.127922
0.126913
0.125955
0.125046
0.124192
0.147824
0.145676
0.143661
0.141767
0.139984
0.138303
0.136714
0.135211
0.133787
0.132437
0.131154
0.129934
0.128773
0.127668
0.126615
0.12561
0.124653
0.123751
0.147823
0.145671
0.143643
0.141726
0.139906
0.138175
0.136524
0.134946
0.133437
0.131991
0.130606
0.129278
0.128005
0.126786
0.125617
0.124496
0.123423
0.122407
0.147816
0.145634
0.143545
0.141527
0.13957
0.137668
0.135819
0.134022
0.13228
0.130593
0.128962
0.127389
0.125874
0.124416
0.123015
0.121669
0.120379
0.119153
0.147781
0.145479
0.143175
0.140853
0.138515
0.136175
0.13385
0.131558
0.129314
0.12713
0.125015
0.122975
0.121014
0.119133
0.117332
0.115609
0.113965
0.112405
0.147672
0.144998
0.142065
0.138905
0.135589
0.132195
0.128793
0.125436
0.122165
0.11901
0.115988
0.113111
0.110383
0.107802
0.105365
0.103066
0.100898
0.0988609
0.1476
0.14406
0.139439
0.134036
0.128188
0.122171
0.116198
0.110413
0.104915
0.0997554
0.0949592
0.0905294
0.0864559
0.0827203
0.0793
0.0761705
0.0733071
0.0706898
0.151476
0.149045
0.143066
0.135229
0.126788
0.118476
0.110741
0.103802
0.0977071
0.0924204
0.0878696
0.0839728
0.0806509
0.0778325
0.0754565
0.0734738
0.0718475
0.0705857
0.323233
0.453751
0.541525
0.589723
0.608748
0.608728
0.597257
0.579467
0.558645
0.536801
0.51511
0.494218
0.474448
0.455929
0.438673
0.422624
0.407686
0.39497
0.0195217
0.0273303
0.0329271
0.0373631
0.0409911
0.044009
0.0465302
0.0486174
0.0502961
0.0515643
0.0523984
0.0527622
0.0526525
0.0523393
0.0519326
0.0513862
0.0507322
0.0500698
0.0495218
0.0491584
0.048938
0.0487306
0.0484913
0.0486834
0.0508535
0.0586768
0.0790115
0.113888
0.149375
0.185097
0.219453
0.251339
0.280048
0.30518
0.326567
0.344212
0.358242
0.368868
0.37636
0.381021
0.383173
0.383145
0.381261
0.377832
0.37316
0.367524
0.361196
0.354232
0.346693
0.33862
0.330041
0.320972
0.311426
0.301408
0.290921
0.279966
0.268552
0.256694
0.244422
0.231786
0.218858
0.205732
0.192521
0.179349
0.166348
0.153641
0.141346
0.129565
0.118392
0.107932
0.0983573
0.0900959
0.08444
0.0815093
0.079302
0.0774343
0.0758517
0.07454
0.0734931
0.0727068
0.0721767
0.0718983
0.0718663
0.0720747
0.0725161
0.0731823
0.0740634
0.0751476
0.0764216
0.0778699
0.079475
0.0812179
0.0830778
0.0850325
0.0870593
0.0891347
0.0912355
0.093339
0.0954234
0.0974684
0.0994554
0.101368
0.103191
0.104914
0.106526
0.108021
0.109394
0.110642
0.111767
0.112772
0.113647
0.114356
0.114914
0.115336
0.115638
0.115835
0.115942
0.115972
0.115936
0.115845
0.115708
0.115533
0.115326
0.115094
0.114842
0.114576
0.114302
0.114024
0.113749
0.113481
0.113223
0.112977
0.112745
0.112527
0.112323
0.112131
0.111949
0.111778
0.111615
0.11146
0.111312
0.111171
0.111036
0.110907
0.110782
0.110662
0.110546
0.110434
0.110325
0.110219
0.110115
0.110013
0.109912
0.109812
0.109713
0.109613
0.109513
0.109411
0.109306
0.109198
0.109084
0.108964
0.108834
0.108693
0.108536
0.108359
0.108157
0.107921
0.107641
0.107305
0.106892
0.10638
0.105731
0.104897
0.103808
0.10235
0.100387
0.0975716
0.0939313
0.0870984
0.0445762
0.0481737
0.0595187
0.0683283
0.0747482
0.0793523
0.082589
0.0848267
0.0863484
0.0873543
0.0879839
0.0883578
0.0887856
0.0901949
0.0931462
0.0980492
0.105513
0.116142
0.130248
0.147379
0.165977
0.183859
0.196369
0.205396
0.213003
0.220699
0.229364
0.238718
0.247827
0.25658
0.264875
0.272716
0.280162
0.287301
0.294226
0.301017
0.307745
0.314465
0.321224
0.328062
0.335017
0.342123
0.349414
0.356923
0.364677
0.372517
0.380282
0.387839
0.395043
0.401743
0.407787
0.413024
0.417298
0.420446
0.422296
0.422669
0.421386
0.418283
0.41323
0.406154
0.397059
0.386037
0.373265
0.358996
0.343533
0.327202
0.310324
0.293195
0.276077
0.259185
0.242685
0.226671
0.211646
0.19853
0.186435
0.175172
0.164686
0.154934
0.145877
0.137474
0.129679
0.122451
0.115745
0.109521
0.103737
0.098358
0.0933474
0.0886734
0.0843062
0.0802192
0.0763881
0.0727913
0.0694097
0.0662264
0.0632266
0.0603975
0.057728
0.0552084
0.0528302
0.0505862
0.0484698
0.0464753
0.0445974
0.0428312
0.0411721
0.0396156
0.0381577
0.0367939
0.0355202
0.0343329
0.0332345
0.0322443
0.0313398
0.0305048
0.0297291
0.029006
0.0283314
0.0277024
0.0271166
0.0265722
0.0260698
0.0256092
0.0251873
0.0248008
0.0244466
0.0241218
0.0238237
0.0235503
0.0232997
0.0230706
0.0228621
0.0226732
0.022503
0.0223504
0.022214
0.0220925
0.021984
0.0218869
0.0217996
0.0217207
0.0216489
0.0215832
0.0215226
0.0214664
0.021414
0.0213648
0.0213184
0.0212744
0.0212325
0.0211925
0.0211541
0.0211173
0.0210818
0.0210478
0.021015
0.0209836
0.0209534
0.0209245
0.020897
0.0208709
0.0208464
0.0208236
0.0208028
0.0207843
0.0207685
0.0207562
0.0207481
0.0207454
0.0207497
0.0207635
0.02079
0.0208343
0.0209038
0.0210098
0.0211706
0.0214136
0.0217914
0.0223519
0.0233276
0.0245115
0.0595295
0.0692995
0.0852247
0.0958624
0.10308
0.108355
0.112746
0.116959
0.121473
0.126623
0.132715
0.140459
0.150132
0.158945
0.168427
0.179354
0.191261
0.203052
0.21335
0.221213
0.226491
0.229725
0.231771
0.233836
0.236771
0.241068
0.246853
0.253965
0.262158
0.271238
0.280982
0.291151
0.301495
0.311767
0.321753
0.331298
0.340326
0.34885
0.35696
0.364799
0.372523
0.380267
0.388116
0.396086
0.40412
0.412278
0.420614
0.428995
0.437278
0.445322
0.452996
0.460172
0.466716
0.472465
0.477219
0.480731
0.482711
0.482844
0.480826
0.476405
0.469428
0.459866
0.447837
0.433588
0.417469
0.399882
0.381246
0.361952
0.34235
0.322733
0.303319
0.284216
0.26657
0.250493
0.235454
0.221348
0.208138
0.195794
0.184282
0.173564
0.163597
0.154335
0.145733
0.137744
0.130323
0.123428
0.117016
0.11105
0.105494
0.100313
0.0954793
0.090964
0.0867425
0.0827925
0.0790937
0.0756281
0.0723794
0.0693328
0.0664751
0.0637941
0.061279
0.0589197
0.0567067
0.0546317
0.0526865
0.0508636
0.0491561
0.0475572
0.0460607
0.0446608
0.043352
0.0421295
0.0409876
0.0399209
0.0389242
0.0379929
0.0371226
0.0363093
0.0355496
0.0348395
0.0341737
0.0335477
0.0329595
0.0324072
0.0318892
0.0314046
0.0309545
0.0305364
0.0301485
0.0297887
0.0294554
0.0291468
0.0288613
0.028597
0.0283523
0.0281256
0.0279154
0.0277201
0.0275382
0.0273686
0.0272098
0.0270608
0.0269206
0.0267881
0.0266627
0.0265436
0.0264302
0.0263221
0.0262187
0.0261197
0.0260249
0.0259339
0.0258466
0.0257627
0.0256819
0.0256041
0.025529
0.0254564
0.025386
0.0253176
0.0252509
0.0251856
0.0251212
0.0250576
0.0249941
0.0249302
0.0248654
0.0247987
0.0247291
0.0246555
0.024576
0.0244884
0.0243897
0.0242758
0.0241409
0.023978
0.0237747
0.0235269
0.0232021
0.0228946
0.0652149
0.0947767
0.11516
0.12667
0.133711
0.13865
0.142994
0.14763
0.152992
0.15922
0.166195
0.173062
0.179378
0.185851
0.192575
0.199343
0.205753
0.211405
0.216111
0.220029
0.223613
0.227451
0.232109
0.238028
0.245432
0.254329
0.264544
0.275773
0.287657
0.299807
0.311818
0.323283
0.333829
0.343159
0.351105
0.35767
0.363034
0.367519
0.371522
0.375437
0.379586
0.384176
0.389281
0.394848
0.400727
0.40696
0.413395
0.419876
0.426307
0.432656
0.438951
0.445249
0.451602
0.458013
0.464389
0.470512
0.476023
0.480445
0.48323
0.483834
0.481801
0.47684
0.468867
0.458019
0.44461
0.429071
0.411879
0.393498
0.374338
0.354745
0.334983
0.315533
0.29763
0.280697
0.264615
0.249369
0.234964
0.221397
0.208656
0.196722
0.185565
0.175154
0.16545
0.156415
0.148008
0.140188
0.132916
0.126152
0.119859
0.114003
0.108551
0.103471
0.0987359
0.0943198
0.0901988
0.0863517
0.0827589
0.0794028
0.0762672
0.0733376
0.0706004
0.0680433
0.065655
0.0634249
0.061343
0.0594002
0.0575879
0.0558979
0.0543225
0.0528545
0.051487
0.0502136
0.0490282
0.047925
0.0468984
0.0459433
0.0450548
0.0442283
0.0434593
0.042744
0.0420783
0.0414587
0.0408815
0.0403436
0.0398421
0.0393731
0.0389323
0.0385184
0.0381315
0.0377716
0.0374367
0.037125
0.0368347
0.0365643
0.0363121
0.0360766
0.0358566
0.0356508
0.0354578
0.0352766
0.0351061
0.0349452
0.0347932
0.034649
0.034512
0.0343815
0.0342569
0.0341377
0.0340235
0.0339139
0.0338087
0.0337075
0.0336101
0.0335163
0.0334259
0.0333386
0.0332541
0.0331723
0.0330929
0.0330156
0.0329401
0.0328662
0.0327933
0.0327212
0.0326494
0.0325774
0.0325043
0.0324296
0.032352
0.0322703
0.0321826
0.0320865
0.0319787
0.0318544
0.0317066
0.0315254
0.0312934
0.0309912
0.0305604
0.0300055
0.0678588
0.12134
0.147169
0.159978
0.166206
0.169275
0.171168
0.172963
0.17497
0.177131
0.179534
0.182543
0.186166
0.190349
0.195002
0.200019
0.20531
0.210856
0.216742
0.223154
0.230325
0.23846
0.247681
0.257991
0.269268
0.281282
0.29372
0.306202
0.318289
0.329503
0.339366
0.347486
0.353639
0.357839
0.360339
0.361576
0.362087
0.362411
0.363006
0.36421
0.366218
0.369089
0.372768
0.377113
0.381917
0.386565
0.39068
0.394048
0.396625
0.398554
0.400151
0.401868
0.404212
0.407647
0.412483
0.418782
0.42629
0.434437
0.4424
0.449224
0.453975
0.455882
0.454456
0.449549
0.441333
0.430214
0.416716
0.401376
0.384678
0.367024
0.348757
0.331236
0.314328
0.297931
0.282084
0.266843
0.252259
0.238366
0.225186
0.212727
0.200985
0.189949
0.179599
0.169909
0.160852
0.152396
0.144509
0.137157
0.130308
0.123929
0.11799
0.11246
0.107312
0.102518
0.0980521
0.0938922
0.0900164
0.0864046
0.0830388
0.0799023
0.0769798
0.0742574
0.0717222
0.0693621
0.0671661
0.0651237
0.0632251
0.0614611
0.059823
0.0583025
0.0568919
0.0555836
0.0543708
0.0532469
0.0522055
0.0512408
0.0503473
0.0495198
0.0487534
0.0480435
0.047386
0.0467768
0.0462122
0.0456887
0.0452032
0.0447523
0.0443332
0.0439429
0.0435781
0.0432361
0.0429177
0.0426213
0.0423452
0.0420877
0.0418473
0.0416226
0.0414121
0.0412147
0.0410292
0.0408546
0.0406899
0.0405341
0.0403865
0.0402463
0.0401127
0.0399852
0.0398633
0.0397464
0.0396343
0.0395265
0.0394228
0.0393229
0.0392265
0.0391335
0.0390436
0.0389567
0.0388724
0.0387907
0.0387111
0.0386336
0.0385578
0.0384835
0.0384103
0.0383379
0.0382659
0.0381938
0.038121
0.0380469
0.0379705
0.0378907
0.0378061
0.0377146
0.0376136
0.0374993
0.0373662
0.037207
0.037009
0.036757
0.0364148
0.0359712
0.0667113
0.143146
0.174248
0.188842
0.195087
0.197182
0.19742
0.196944
0.196509
0.196693
0.197681
0.199562
0.202359
0.206072
0.210677
0.216147
0.222454
0.229587
0.237549
0.246346
0.25597
0.266373
0.277456
0.289053
0.300923
0.312735
0.324063
0.334412
0.343282
0.35026
0.355124
0.357904
0.358881
0.358534
0.357447
0.356219
0.355389
0.35539
0.356523
0.358954
0.362712
0.367702
0.373714
0.380437
0.386982
0.39206
0.395003
0.395369
0.392993
0.388064
0.381165
0.37325
0.365542
0.359373
0.355958
0.356155
0.360257
0.367902
0.378119
0.389533
0.400597
0.409831
0.416044
0.418512
0.417033
0.411857
0.403507
0.392589
0.379672
0.365178
0.350362
0.335486
0.320566
0.305714
0.29105
0.276681
0.262699
0.249179
0.236181
0.223747
0.211905
0.200669
0.190044
0.180023
0.170595
0.161741
0.153439
0.145666
0.138396
0.131605
0.125266
0.119354
0.113845
0.108715
0.103938
0.0994937
0.0953591
0.0915136
0.0879377
0.0846132
0.0815231
0.0786518
0.075985
0.0735092
0.0712121
0.0690821
0.0671085
0.0652809
0.0635898
0.062026
0.0605808
0.0592461
0.058014
0.056877
0.0558284
0.0548614
0.05397
0.0531483
0.0523909
0.0516928
0.0510492
0.0504558
0.0499085
0.0494035
0.0489373
0.0485067
0.0481086
0.04774
0.0473983
0.0470805
0.0467837
0.0465076
0.0462508
0.0460115
0.0457883
0.0455797
0.0453844
0.0452012
0.045029
0.0448667
0.0447135
0.0445686
0.044431
0.0443002
0.0441755
0.0440563
0.0439422
0.0438328
0.0437276
0.0436264
0.0435288
0.0434347
0.0433438
0.0432559
0.0431708
0.0430883
0.0430082
0.0429304
0.0428545
0.0427805
0.042708
0.0426368
0.0425667
0.0424973
0.0424284
0.0423594
0.0422899
0.0422194
0.0421471
0.042072
0.041993
0.0419086
0.0418164
0.0417138
0.0415967
0.0414595
0.041294
0.0410894
0.0408252
0.0404952
0.0648933
0.150207
0.18427
0.200652
0.208304
0.21177
0.213504
0.214751
0.216128
0.217963
0.220447
0.223701
0.227799
0.232781
0.23865
0.245384
0.252939
0.261261
0.270286
0.279937
0.29012
0.300701
0.311485
0.322186
0.332419
0.341718
0.349609
0.355702
0.359797
0.361943
0.362441
0.361791
0.360603
0.359515
0.359117
0.359915
0.362295
0.366517
0.3727
0.380821
0.390698
0.401973
0.414109
0.426397
0.43714
0.445282
0.449787
0.449681
0.444228
0.433136
0.416743
0.396146
0.373198
0.350356
0.330335
0.31558
0.307705
0.307132
0.313071
0.323908
0.337586
0.351871
0.364654
0.37429
0.379838
0.381125
0.378519
0.372633
0.364061
0.353949
0.342891
0.331105
0.3188
0.306159
0.293337
0.280473
0.267689
0.255093
0.242777
0.230818
0.219278
0.208202
0.197622
0.187555
0.178008
0.16898
0.160462
0.152439
0.144895
0.137813
0.131172
0.124954
0.11914
0.113711
0.108647
0.103931
0.0995431
0.0954647
0.0916772
0.0881624
0.0849026
0.0818811
0.0790821
0.0764907
0.0740931
0.0718764
0.0698288
0.0679389
0.0661961
0.0645903
0.0631122
0.0617525
0.0605028
0.0593548
0.0583009
0.0573337
0.0564465
0.0556328
0.0548867
0.0542024
0.0535749
0.0529994
0.0524712
0.0519864
0.0515412
0.051132
0.0507556
0.0504091
0.0500896
0.0497943
0.0495207
0.0492663
0.0490303
0.048811
0.0486067
0.0484162
0.0482381
0.0480712
0.0479145
0.047767
0.0476278
0.047496
0.0473711
0.0472522
0.0471389
0.0470306
0.0469268
0.0468272
0.0467314
0.0466392
0.0465502
0.0464642
0.0463811
0.0463006
0.0462226
0.0461468
0.0460731
0.0460013
0.0459313
0.0458629
0.0457958
0.0457299
0.0456649
0.0456005
0.0455366
0.0454727
0.0454085
0.0453434
0.045277
0.0452083
0.0451366
0.0450605
0.0449784
0.0448882
0.0447869
0.0446707
0.0445339
0.0443697
0.0441663
0.043922
0.0728787
0.144164
0.178417
0.196872
0.207483
0.214294
0.219534
0.224327
0.229194
0.234379
0.240011
0.246171
0.252906
0.260237
0.268158
0.276638
0.285632
0.295076
0.30489
0.314959
0.325116
0.335117
0.344622
0.353214
0.360453
0.36597
0.369571
0.371308
0.371499
0.370671
0.36947
0.368561
0.368544
0.369905
0.373002
0.378069
0.385248
0.39462
0.4062
0.419893
0.435415
0.45222
0.469463
0.486064
0.501412
0.514872
0.525055
0.530356
0.529142
0.51997
0.501862
0.474647
0.439365
0.398667
0.356908
0.3194
0.290793
0.273547
0.26742
0.270642
0.28088
0.295442
0.311423
0.326129
0.33755
0.344692
0.347537
0.346517
0.342615
0.336697
0.329267
0.320684
0.311216
0.301074
0.290432
0.279442
0.268239
0.25695
0.245689
0.234557
0.223645
0.213025
0.202758
0.192887
0.183442
0.17444
0.165887
0.157782
0.150116
0.14288
0.136058
0.129638
0.123604
0.117942
0.11264
0.107683
0.103059
0.0987522
0.0947493
0.0910348
0.0875929
0.0844078
0.0814634
0.0787443
0.0762354
0.0739226
0.0717926
0.0698327
0.0680314
0.0663776
0.0648607
0.063471
0.062199
0.0610357
0.0599727
0.0590021
0.0581162
0.0573079
0.0565708
0.0558985
0.0552854
0.0547262
0.0542159
0.0537502
0.0533249
0.0529361
0.0525806
0.052255
0.0519565
0.0516824
0.05143
0.0511967
0.050981
0.0507812
0.0505958
0.0504234
0.0502627
0.0501125
0.0499718
0.0498395
0.0497149
0.0495972
0.0494856
0.0493796
0.0492786
0.0491821
0.0490897
0.0490009
0.0489156
0.0488334
0.048754
0.0486773
0.048603
0.048531
0.0484611
0.0483931
0.0483269
0.0482624
0.0481993
0.0481376
0.0480771
0.0480175
0.0479587
0.0479006
0.0478428
0.0477851
0.0477271
0.0476686
0.047609
0.0475477
0.047484
0.047417
0.0473455
0.0472679
0.0471821
0.0470855
0.0469746
0.046845
0.0466902
0.0465112
0.0794101
0.131854
0.164573
0.184293
0.197532
0.207629
0.216461
0.224985
0.233623
0.242542
0.251802
0.261421
0.271402
0.281729
0.292371
0.303283
0.314393
0.325596
0.336736
0.347587
0.357831
0.367073
0.374872
0.380828
0.384685
0.386436
0.386372
0.385055
0.383217
0.381615
0.380895
0.381492
0.383587
0.387138
0.391985
0.398017
0.405303
0.414119
0.424835
0.437724
0.452797
0.469722
0.487794
0.505925
0.524855
0.5438
0.561284
0.57552
0.584544
0.586355
0.579026
0.560739
0.529901
0.485844
0.430637
0.370857
0.316454
0.275985
0.251564
0.241135
0.241982
0.251297
0.265832
0.2821
0.297026
0.308373
0.315605
0.318776
0.318865
0.316559
0.312392
0.306765
0.299982
0.292273
0.283822
0.274787
0.265307
0.25551
0.245517
0.235443
0.225391
0.215456
0.205717
0.196242
0.187082
0.178274
0.169842
0.161799
0.15415
0.146889
0.14001
0.133502
0.127354
0.121555
0.116094
0.110962
0.106149
0.101648
0.0974474
0.0935389
0.089911
0.0865515
0.0834472
0.080584
0.0779472
0.0755224
0.0732953
0.0712521
0.06938
0.0676667
0.0661007
0.0646712
0.0633678
0.0621808
0.061101
0.0601196
0.0592283
0.0584195
0.0576858
0.0570205
0.0564172
0.0558701
0.0553739
0.0549237
0.0545151
0.0541438
0.0538062
0.0534989
0.0532189
0.0529632
0.0527294
0.0525148
0.0523173
0.0521353
0.0519672
0.0518116
0.0516671
0.0515326
0.051407
0.0512893
0.0511788
0.0510746
0.050976
0.0508826
0.0507937
0.0507088
0.0506277
0.0505498
0.0504749
0.0504028
0.0503331
0.0502658
0.0502005
0.0501372
0.0500756
0.0500157
0.0499573
0.0499003
0.0498445
0.0497899
0.0497362
0.0496834
0.0496313
0.0495797
0.0495284
0.0494773
0.049426
0.0493744
0.049322
0.0492683
0.049213
0.0491551
0.049094
0.0490286
0.0489574
0.0488789
0.0487908
0.0486907
0.0485754
0.0484469
0.0845548
0.117013
0.147306
0.167446
0.182492
0.195117
0.206848
0.218483
0.230372
0.242631
0.255276
0.268287
0.28163
0.295257
0.309102
0.323068
0.337006
0.350697
0.363831
0.375999
0.386709
0.39544
0.401746
0.40538
0.406412
0.405292
0.402805
0.399928
0.397617
0.396581
0.397109
0.398999
0.401641
0.40428
0.406404
0.40806
0.409909
0.412966
0.418183
0.426148
0.436998
0.450496
0.46617
0.483705
0.503879
0.525956
0.548522
0.569677
0.587263
0.599179
0.603696
0.599458
0.584746
0.556391
0.510476
0.446749
0.374142
0.310028
0.264501
0.237169
0.224881
0.224727
0.233571
0.247595
0.263138
0.276411
0.286234
0.292538
0.29571
0.296284
0.294773
0.291599
0.287087
0.281484
0.274982
0.267742
0.259899
0.251578
0.242897
0.233968
0.224897
0.215785
0.206723
0.197793
0.189062
0.180586
0.172404
0.164545
0.157025
0.14985
0.14302
0.13653
0.130371
0.124533
0.119008
0.113787
0.108863
0.10423
0.0998828
0.0958161
0.0920241
0.0884999
0.0852349
0.0822195
0.079442
0.0768898
0.0745495
0.0724073
0.0704495
0.0686628
0.0670348
0.0655533
0.0642072
0.0629858
0.0618791
0.0608775
0.0599722
0.0591545
0.0584167
0.0577512
0.0571513
0.0566104
0.0561227
0.0556829
0.0552861
0.0549279
0.0546041
0.0543113
0.0540461
0.0538055
0.0535868
0.0533875
0.0532053
0.0530383
0.0528851
0.0527439
0.0526135
0.0524928
0.0523805
0.0522759
0.0521779
0.0520859
0.0519992
0.0519172
0.0518393
0.0517652
0.0516944
0.0516266
0.0515614
0.0514987
0.0514381
0.0513796
0.0513228
0.0512677
0.0512141
0.0511618
0.0511109
0.0510611
0.0510123
0.0509645
0.0509175
0.0508712
0.0508255
0.0507803
0.0507354
0.0506907
0.050646
0.050601
0.0505556
0.0505093
0.0504618
0.0504127
0.0503614
0.0503071
0.0502491
0.0501865
0.0501181
0.0500427
0.0499591
0.0498699
0.0882782
0.101832
0.129567
0.14948
0.165468
0.179674
0.193344
0.207157
0.221428
0.236259
0.251658
0.267592
0.284008
0.300836
0.317966
0.335231
0.352378
0.369042
0.384735
0.398855
0.410739
0.419763
0.425491
0.427835
0.427169
0.424354
0.420603
0.417231
0.415307
0.41533
0.417005
0.419249
0.420547
0.419608
0.41605
0.410671
0.405109
0.401113
0.399861
0.401726
0.406535
0.414041
0.424322
0.4385
0.457095
0.479764
0.505212
0.531374
0.55562
0.575118
0.587564
0.592058
0.588836
0.576798
0.550885
0.503796
0.434134
0.35879
0.296536
0.252921
0.226739
0.215305
0.215873
0.224727
0.237541
0.250614
0.261706
0.269902
0.27514
0.277755
0.278191
0.276855
0.274081
0.270125
0.265189
0.259431
0.252985
0.245972
0.238498
0.230669
0.222583
0.214337
0.206023
0.197727
0.189524
0.181481
0.173649
0.166071
0.158773
0.151774
0.14508
0.138694
0.132609
0.12682
0.121318
0.116094
0.111143
0.106457
0.102035
0.0978717
0.0939658
0.0903142
0.0869135
0.0837588
0.0808436
0.0781595
0.0756963
0.0734423
0.071385
0.0695111
0.0678076
0.0662616
0.064861
0.063594
0.0624498
0.061418
0.060489
0.0596536
0.0589032
0.0582297
0.0576257
0.0570841
0.0565987
0.0561635
0.0557731
0.0554229
0.0551083
0.0548255
0.0545709
0.0543414
0.0541341
0.0539464
0.0537761
0.053621
0.0534796
0.0533501
0.0532312
0.0531218
0.0530206
0.0529268
0.0528394
0.0527577
0.052681
0.0526087
0.0525404
0.0524755
0.0524136
0.0523545
0.0522978
0.0522433
0.0521907
0.0521398
0.0520905
0.0520426
0.051996
0.0519506
0.0519063
0.0518629
0.0518205
0.0517788
0.0517378
0.0516974
0.0516575
0.0516181
0.051579
0.0515401
0.0515013
0.0514624
0.0514233
0.0513836
0.0513433
0.0513019
0.0512592
0.0512147
0.0511681
0.0511189
0.0510668
0.0510115
0.0509528
0.0508934
0.0887134
0.0859859
0.112313
0.131943
0.148264
0.163228
0.177923
0.192969
0.208681
0.225184
0.242504
0.260618
0.279477
0.298998
0.319045
0.339399
0.359723
0.37954
0.398218
0.414994
0.429047
0.439628
0.446236
0.448815
0.447892
0.444589
0.440456
0.437122
0.435823
0.436926
0.43961
0.441941
0.441534
0.436659
0.42721
0.414829
0.402089
0.391291
0.383612
0.378943
0.376521
0.376167
0.379023
0.387633
0.40241
0.423233
0.448936
0.477535
0.506321
0.531907
0.550791
0.561036
0.563557
0.559968
0.547942
0.519415
0.467916
0.399596
0.331445
0.277032
0.239757
0.217985
0.209599
0.211767
0.220524
0.231838
0.24274
0.251632
0.257979
0.261851
0.263564
0.26348
0.26192
0.259144
0.255356
0.250717
0.245361
0.239403
0.232942
0.226074
0.218887
0.211467
0.203899
0.196263
0.188636
0.181087
0.173674
0.166448
0.159446
0.152693
0.146205
0.139991
0.13405
0.128379
0.122971
0.117819
0.112914
0.108252
0.103827
0.0996383
0.0956835
0.0919622
0.088474
0.0852175
0.0821908
0.0793901
0.0768099
0.0744427
0.0722791
0.0703083
0.0685182
0.0668963
0.0654299
0.0641066
0.0629148
0.0618432
0.0608813
0.0600194
0.059248
0.0585587
0.0579432
0.0573941
0.0569044
0.0564678
0.0560784
0.0557309
0.0554207
0.0551435
0.0548954
0.054673
0.0544734
0.0542939
0.0541319
0.0539855
0.0538528
0.0537321
0.0536221
0.0535213
0.0534287
0.0533433
0.0532643
0.0531907
0.053122
0.0530576
0.0529969
0.0529394
0.0528849
0.0528328
0.052783
0.0527352
0.0526891
0.0526446
0.0526015
0.0525596
0.0525188
0.0524791
0.0524403
0.0524023
0.0523651
0.0523285
0.0522926
0.0522572
0.0522223
0.0521878
0.0521536
0.0521196
0.0520858
0.0520521
0.0520183
0.0519842
0.0519499
0.051915
0.0518795
0.0518431
0.0518058
0.0517675
0.0517284
0.0516886
0.0516489
0.0516115
0.0826079
0.0718612
0.094831
0.11465
0.131323
0.146644
0.161745
0.177281
0.193615
0.210924
0.229281
0.248696
0.269143
0.29055
0.312795
0.33563
0.358707
0.381507
0.403331
0.423325
0.440546
0.454096
0.463301
0.467966
0.468535
0.466149
0.462507
0.459497
0.458642
0.460484
0.464098
0.467087
0.466343
0.459477
0.446148
0.428346
0.409382
0.392278
0.378624
0.368394
0.360212
0.352169
0.347322
0.350526
0.361198
0.378827
0.402367
0.429992
0.459203
0.486753
0.508768
0.522326
0.527706
0.527649
0.522675
0.507194
0.472423
0.41698
0.352902
0.295739
0.252827
0.224464
0.209401
0.205737
0.210222
0.218979
0.228736
0.237433
0.244132
0.248627
0.251077
0.251769
0.250992
0.248998
0.245991
0.242135
0.237566
0.232396
0.226724
0.220634
0.214207
0.207517
0.200637
0.193639
0.18659
0.179558
0.172601
0.165773
0.159116
0.152662
0.146435
0.140448
0.134705
0.129208
0.12395
0.118926
0.114129
0.109552
0.105189
0.101039
0.0970995
0.0933703
0.0898523
0.0865465
0.0834531
0.0805717
0.0779008
0.0754369
0.0731749
0.071108
0.0692272
0.0675221
0.0659813
0.0645926
0.0633441
0.062224
0.061221
0.0603245
0.0595247
0.0588121
0.0581783
0.057615
0.0571149
0.0566711
0.0562772
0.0559276
0.0556172
0.0553413
0.0550957
0.0548769
0.0546815
0.0545068
0.0543502
0.0542095
0.0540827
0.0539682
0.0538643
0.0537698
0.0536834
0.0536043
0.0535313
0.0534638
0.0534011
0.0533425
0.0532876
0.0532357
0.0531867
0.05314
0.0530955
0.0530528
0.0530117
0.0529721
0.0529337
0.0528965
0.0528602
0.0528249
0.0527904
0.0527566
0.0527235
0.052691
0.052659
0.0526275
0.0525965
0.0525658
0.0525355
0.0525055
0.0524757
0.052446
0.0524164
0.0523868
0.0523572
0.0523274
0.0522975
0.0522675
0.0522374
0.0522074
0.052178
0.0521498
0.0521238
0.0521021
0.0680878
0.0599902
0.0783545
0.0976496
0.114738
0.130414
0.145676
0.161268
0.177648
0.195078
0.213692
0.233552
0.254672
0.277015
0.300481
0.324879
0.349891
0.37504
0.399659
0.422901
0.443785
0.46131
0.474633
0.483298
0.487444
0.487935
0.486288
0.48438
0.483922
0.485793
0.489446
0.492728
0.492467
0.485856
0.471923
0.452145
0.429697
0.407888
0.388855
0.373191
0.36032
0.349426
0.342368
0.341349
0.347214
0.360229
0.379711
0.403956
0.430486
0.456168
0.477203
0.490269
0.494982
0.494279
0.490438
0.480312
0.455726
0.411987
0.35636
0.302735
0.259683
0.228954
0.210325
0.202808
0.20392
0.210212
0.218473
0.226465
0.233003
0.237667
0.240462
0.241584
0.241275
0.239765
0.237257
0.233916
0.22988
0.225266
0.22017
0.214675
0.208855
0.202775
0.196496
0.190079
0.18358
0.177058
0.170568
0.164161
0.15788
0.151762
0.145835
0.140115
0.134612
0.129331
0.124268
0.119418
0.114775
0.110331
0.106082
0.102023
0.0981527
0.0944702
0.0909769
0.0876745
0.0845649
0.0816494
0.0789285
0.0764015
0.0740667
0.0719205
0.069958
0.0681722
0.0665548
0.0650956
0.0637839
0.0626081
0.0615568
0.0606189
0.0597839
0.0590418
0.0583833
0.0578
0.0572838
0.0568274
0.0564241
0.0560677
0.0557527
0.0554741
0.0552274
0.0550087
0.0548144
0.0546416
0.0544876
0.05435
0.0542268
0.054116
0.0540161
0.0539257
0.0538435
0.0537685
0.0536997
0.0536364
0.0535778
0.0535233
0.0534723
0.0534244
0.0533793
0.0533364
0.0532956
0.0532565
0.053219
0.0531828
0.0531478
0.0531138
0.0530808
0.0530486
0.0530172
0.0529864
0.0529563
0.0529267
0.0528976
0.0528689
0.0528407
0.0528128
0.0527853
0.0527581
0.0527312
0.0527044
0.0526779
0.0526516
0.0526254
0.0525994
0.0525736
0.0525481
0.0525231
0.0524991
0.0524766
0.0524564
0.0524398
0.0524286
0.0461109
0.0500226
0.0646068
0.0815246
0.0982031
0.114106
0.129551
0.145081
0.161214
0.178318
0.196616
0.21623
0.237222
0.259604
0.283332
0.308289
0.334253
0.360861
0.387574
0.413661
0.438211
0.46021
0.478675
0.492854
0.502453
0.507812
0.509954
0.510418
0.510859
0.51246
0.515327
0.51813
0.518353
0.513271
0.501293
0.482852
0.460222
0.436404
0.413914
0.394161
0.377578
0.364297
0.355676
0.352808
0.356341
0.36652
0.38275
0.403415
0.426053
0.447524
0.464067
0.472425
0.472298
0.466968
0.459703
0.449027
0.428149
0.39183
0.344633
0.297653
0.258276
0.228596
0.209277
0.200118
0.199268
0.203759
0.21065
0.217772
0.223873