/*--------------------------------*- C++ -*----------------------------------*\
| =========                 |                                                 |
| \\      /  F ield         | OpenFOAM: The Open Source CFD Toolbox           |
|  \\    /   O peration     | Version:  2112                                  |
|   \\  /    A nd           | Website:  www.openfoam.com                      |
|    \\/     M anipulation  |                                                 |
\*---------------------------------------------------------------------------*/
FoamFile
{
    version     2.0;
    format      ascii;
    arch        "LSB;label=32;scalar=64";
    class       surfaceScalarField;
    location    "0.02";
    object      phi;
}
// * * * * * * * * * * * * * * * * * * * * * * * * * * * * * * * * * * * * * //

dimensions      [0 3 -1 0 0 0 0];

oriented        oriented;

internalField   nonuniform List<scalar> 
24170
(
3.05389e-06
1.34521e-07
2.89446e-06
1.59421e-07
2.74335e-06
1.51117e-07
2.59806e-06
1.45283e-07
2.45877e-06
1.39289e-07
2.32725e-06
1.31522e-07
2.20396e-06
1.23293e-07
2.08859e-06
1.1537e-07
1.98063e-06
1.07956e-07
1.87945e-06
1.01179e-07
1.78426e-06
9.51989e-08
1.69407e-06
9.01891e-08
1.60772e-06
8.6345e-08
1.52382e-06
8.3904e-08
1.44061e-06
8.32034e-08
1.35602e-06
8.45947e-08
1.26631e-06
8.9713e-08
9.80042e-08
1.1683e-06
3.49216e-06
5.96114e-08
3.54215e-06
1.09427e-07
3.57633e-06
1.16938e-07
3.59484e-06
1.26773e-07
3.59941e-06
1.3472e-07
3.5926e-06
1.38336e-07
3.57655e-06
1.39345e-07
3.55296e-06
1.3896e-07
3.52324e-06
1.37671e-07
3.48854e-06
1.35881e-07
3.4497e-06
1.34039e-07
3.40726e-06
1.32623e-07
3.36147e-06
1.32137e-07
3.31223e-06
1.33148e-07
3.25902e-06
1.36409e-07
3.20087e-06
1.42747e-07
3.1363e-06
1.54279e-07
1.70894e-07
3.06342e-06
3.67507e-06
4.70607e-08
3.69009e-06
9.44016e-08
3.70549e-06
1.01545e-07
3.72315e-06
1.09112e-07
3.74153e-06
1.16335e-07
3.75946e-06
1.20409e-07
3.77631e-06
1.22497e-07
3.79156e-06
1.23701e-07
3.80482e-06
1.24412e-07
3.81581e-06
1.24898e-07
3.82434e-06
1.25502e-07
3.83034e-06
1.26625e-07
3.83375e-06
1.28729e-07
3.83455e-06
1.32345e-07
3.83274e-06
1.38223e-07
3.82839e-06
1.47099e-07
3.82205e-06
1.6062e-07
1.77939e-07
3.815e-06
3.93276e-06
3.9691e-08
3.94234e-06
8.48176e-08
3.94793e-06
9.59614e-08
3.9534e-06
1.0364e-07
3.95891e-06
1.10828e-07
3.96423e-06
1.15083e-07
3.96957e-06
1.17154e-07
3.97501e-06
1.18268e-07
3.98044e-06
1.18983e-07
3.98573e-06
1.19603e-07
3.99077e-06
1.20464e-07
3.99544e-06
1.21951e-07
3.99969e-06
1.2448e-07
4.00352e-06
1.28517e-07
4.00711e-06
1.34633e-07
4.01078e-06
1.43433e-07
4.01582e-06
1.55579e-07
1.71682e-07
4.02208e-06
4.21341e-06
3.34128e-08
4.22215e-06
7.60716e-08
4.22722e-06
9.08876e-08
4.23153e-06
9.93329e-08
4.23552e-06
1.06843e-07
4.23883e-06
1.11768e-07
4.24154e-06
1.14449e-07
4.24373e-06
1.16078e-07
4.2454e-06
1.17313e-07
4.24652e-06
1.18479e-07
4.24708e-06
1.19903e-07
4.24708e-06
1.21956e-07
4.24653e-06
1.25025e-07
4.24553e-06
1.29521e-07
4.24429e-06
1.35868e-07
4.24322e-06
1.4451e-07
4.24319e-06
1.55609e-07
1.69651e-07
4.24522e-06
4.51411e-06
2.83861e-08
4.52193e-06
6.82537e-08
4.52736e-06
8.54591e-08
4.53192e-06
9.47731e-08
4.53618e-06
1.02585e-07
4.53978e-06
1.08162e-07
4.54266e-06
1.11573e-07
4.54487e-06
1.13871e-07
4.54641e-06
1.15767e-07
4.54727e-06
1.17617e-07
4.54744e-06
1.19734e-07
4.54693e-06
1.22468e-07
4.54579e-06
1.26171e-07
4.54412e-06
1.31185e-07
4.54217e-06
1.37819e-07
4.54035e-06
1.46333e-07
4.5393e-06
1.56658e-07
1.68751e-07
4.5402e-06
4.8367e-06
2.44094e-08
4.84372e-06
6.12307e-08
4.84934e-06
7.98424e-08
4.854e-06
9.01119e-08
4.85833e-06
9.82565e-08
4.8621e-06
1.04389e-07
4.86519e-06
1.08481e-07
4.86764e-06
1.11422e-07
4.86947e-06
1.13942e-07
4.87065e-06
1.16431e-07
4.87119e-06
1.1919e-07
4.87112e-06
1.22538e-07
4.87051e-06
1.26782e-07
4.86951e-06
1.32192e-07
4.86835e-06
1.38971e-07
4.86746e-06
1.47228e-07
4.86734e-06
1.56772e-07
1.67401e-07
4.86869e-06
5.18277e-06
2.12234e-08
5.18903e-06
5.49649e-08
5.19462e-06
7.42555e-08
5.19932e-06
8.54153e-08
5.20368e-06
9.38904e-08
5.20761e-06
1.00463e-07
5.21093e-06
1.05163e-07
5.21364e-06
1.08712e-07
5.21576e-06
1.11821e-07
5.21729e-06
1.14899e-07
5.21824e-06
1.18236e-07
5.21867e-06
1.2211e-07
5.21867e-06
1.26779e-07
5.21842e-06
1.32445e-07
5.21817e-06
1.39224e-07
5.21828e-06
1.47119e-07
5.21916e-06
1.55887e-07
1.65294e-07
5.22127e-06
5.55393e-06
1.86357e-08
5.55947e-06
4.94223e-08
5.56492e-06
6.88075e-08
5.56966e-06
8.06661e-08
5.5741e-06
8.94529e-08
5.57818e-06
9.63811e-08
5.58173e-06
1.01615e-07
5.58471e-06
1.05734e-07
5.58714e-06
1.0939e-07
5.58904e-06
1.12998e-07
5.59044e-06
1.16833e-07
5.59142e-06
1.21136e-07
5.59208e-06
1.26114e-07
5.59262e-06
1.31909e-07
5.59327e-06
1.3857e-07
5.59435e-06
1.4604e-07
5.59618e-06
1.5406e-07
1.62446e-07
5.59903e-06
5.95191e-06
1.65037e-08
5.9568e-06
4.45276e-08
5.96206e-06
6.35515e-08
5.96686e-06
7.58638e-08
5.97139e-06
8.49265e-08
5.97563e-06
9.21417e-08
5.97942e-06
9.7824e-08
5.9827e-06
1.02449e-07
5.9855e-06
1.06591e-07
5.98785e-06
1.10654e-07
5.98978e-06
1.14899e-07
5.99139e-06
1.19529e-07
5.9928e-06
1.24703e-07
5.99419e-06
1.30515e-07
5.9958e-06
1.36966e-07
5.99787e-06
1.43971e-07
6.00064e-06
1.51283e-07
1.58777e-07
6.00431e-06
6.3786e-06
1.47161e-08
6.38294e-06
4.01866e-08
6.38798e-06
5.85131e-08
6.39282e-06
7.10184e-08
6.39746e-06
8.02878e-08
6.40189e-06
8.77184e-08
6.40596e-06
9.37515e-08
6.40961e-06
9.87987e-08
6.41285e-06
1.03352e-07
6.41572e-06
1.07787e-07
6.41827e-06
1.12347e-07
6.4206e-06
1.172e-07
6.42284e-06
1.22463e-07
6.42516e-06
1.28192e-07
6.42777e-06
1.3436e-07
6.43087e-06
1.4087e-07
6.43465e-06
1.47504e-07
1.54202e-07
6.43922e-06
5.74215e-06
1.33976e-08
5.74546e-06
3.68747e-08
5.74955e-06
5.44247e-08
5.75368e-06
6.68919e-08
5.75771e-06
7.62551e-08
5.76162e-06
8.38075e-08
5.76532e-06
9.00577e-08
5.76873e-06
9.53861e-08
5.77186e-06
1.00219e-07
5.77475e-06
1.04898e-07
5.77745e-06
1.09646e-07
5.78005e-06
1.14606e-07
5.78264e-06
1.19866e-07
5.78538e-06
1.25455e-07
5.7884e-06
1.31334e-07
5.79186e-06
1.37409e-07
5.79588e-06
1.43486e-07
1.49553e-07
5.80053e-06
6.9995e-06
1.20535e-08
7.00297e-06
3.34038e-08
7.00747e-06
4.99206e-08
7.01223e-06
6.21345e-08
7.017e-06
7.14851e-08
7.02171e-06
7.90946e-08
7.02627e-06
8.55004e-08
7.0306e-06
9.10568e-08
7.0347e-06
9.61218e-08
7.0386e-06
1.00993e-07
7.04238e-06
1.05866e-07
7.04613e-06
1.10857e-07
7.04997e-06
1.16026e-07
7.05404e-06
1.21384e-07
7.0585e-06
1.26883e-07
7.06347e-06
1.32439e-07
7.06906e-06
1.37887e-07
1.43258e-07
7.07536e-06
8.53222e-06
1.06821e-08
8.53585e-06
2.97729e-08
8.54079e-06
4.49786e-08
8.54626e-06
5.66628e-08
8.55192e-06
6.58271e-08
8.55764e-06
7.33782e-08
8.56331e-06
7.98327e-08
8.56885e-06
8.55166e-08
8.57425e-06
9.07215e-08
8.57955e-06
9.56908e-08
8.58483e-06
1.00586e-07
8.59019e-06
1.05498e-07
8.59575e-06
1.10463e-07
8.60166e-06
1.15477e-07
8.60805e-06
1.2049e-07
8.61506e-06
1.25433e-07
8.62278e-06
1.30169e-07
1.34766e-07
8.63127e-06
1.04006e-05
9.26458e-09
1.04045e-05
2.59312e-08
1.04099e-05
3.95238e-08
1.04163e-05
5.03433e-08
1.0423e-05
5.90668e-08
1.043e-05
6.63731e-08
1.04371e-05
7.27099e-08
1.04443e-05
7.83621e-08
1.04515e-05
8.3558e-08
1.04587e-05
8.84819e-08
1.0466e-05
9.32562e-08
1.04736e-05
9.79444e-08
1.04814e-05
1.02565e-07
1.04898e-05
1.07103e-07
1.04988e-05
1.11513e-07
1.05085e-05
1.15741e-07
1.0519e-05
1.19675e-07
1.23411e-07
1.05303e-05
1.26783e-05
7.75419e-09
1.26825e-05
2.17517e-08
1.26886e-05
3.33831e-08
1.2696e-05
4.29416e-08
1.27042e-05
5.08811e-08
1.27129e-05
5.76696e-08
1.2722e-05
6.36495e-08
1.27313e-05
6.90462e-08
1.27408e-05
7.40245e-08
1.27506e-05
7.87091e-08
1.27607e-05
8.31798e-08
1.27711e-05
8.74733e-08
1.27821e-05
9.15925e-08
1.27937e-05
9.55171e-08
1.2806e-05
9.92073e-08
1.28191e-05
1.02624e-07
1.28331e-05
1.05678e-07
1.08479e-07
1.28481e-05
1.54549e-05
6.06398e-09
1.54596e-05
1.69932e-08
1.54668e-05
2.6218e-08
1.54757e-05
3.40413e-08
1.54858e-05
4.07645e-08
1.54968e-05
4.6672e-08
1.55085e-05
5.19811e-08
1.55207e-05
5.68384e-08
1.55334e-05
6.13423e-08
1.55465e-05
6.55587e-08
1.55602e-05
6.95235e-08
1.55744e-05
7.32461e-08
1.55893e-05
7.67155e-08
1.56049e-05
7.99078e-08
1.56213e-05
8.27891e-08
1.56386e-05
8.53319e-08
1.56568e-05
8.74693e-08
8.93139e-08
1.5676e-05
1.88397e-05
4.04443e-09
1.88454e-05
1.12377e-08
1.88542e-05
1.74296e-08
1.88653e-05
2.29298e-08
1.88782e-05
2.79175e-08
1.88923e-05
3.25071e-08
1.89075e-05
3.67776e-08
1.89236e-05
4.07801e-08
1.89404e-05
4.4541e-08
1.89579e-05
4.80663e-08
1.89761e-05
5.13471e-08
1.89949e-05
5.43645e-08
1.90146e-05
5.70931e-08
1.9035e-05
5.95051e-08
1.90562e-05
6.15711e-08
1.90782e-05
6.32726e-08
1.91011e-05
6.45626e-08
6.55442e-08
1.91249e-05
2.2966e-05
1.39674e-09
2.29735e-05
3.72885e-09
2.2985e-05
5.95554e-09
2.29995e-05
8.38946e-09
2.30164e-05
1.10573e-08
2.3035e-05
1.38679e-08
2.3055e-05
1.67401e-08
2.30762e-05
1.96176e-08
2.30983e-05
2.24418e-08
2.31212e-05
2.51477e-08
2.31449e-05
2.7674e-08
2.31693e-05
2.99697e-08
2.31944e-05
3.19928e-08
2.32202e-05
3.37087e-08
2.32467e-05
3.50894e-08
2.32738e-05
3.61207e-08
2.33016e-05
3.67721e-08
3.71288e-08
2.333e-05
1.6813e-05
-8.55525e-10
1.68192e-05
-2.55902e-09
1.68287e-05
-3.5152e-09
1.68405e-05
-3.42117e-09
1.6854e-05
-2.45919e-09
1.68688e-05
-9.37294e-10
1.68846e-05
9.4674e-10
1.69012e-05
3.07201e-09
1.69183e-05
5.31965e-09
1.69359e-05
7.5681e-09
1.69538e-05
9.71534e-09
1.69721e-05
1.16847e-08
1.69907e-05
1.34182e-08
1.70095e-05
1.48725e-08
1.70286e-05
1.60172e-08
1.70479e-05
1.68396e-08
1.70673e-05
1.73206e-08
1.75283e-08
1.70869e-05
1.46369e-05
-3.14921e-09
1.46432e-05
-8.92764e-09
1.46526e-05
-1.28992e-08
1.4664e-05
-1.48377e-08
1.46769e-05
-1.52811e-08
1.46907e-05
-1.47994e-08
1.47053e-05
-1.36771e-08
1.47205e-05
-1.20869e-08
1.4736e-05
-1.02177e-08
1.47518e-05
-8.24614e-09
1.47679e-05
-6.30338e-09
1.4784e-05
-4.483e-09
1.48003e-05
-2.85654e-09
1.48167e-05
-1.47755e-09
1.48331e-05
-3.82731e-10
1.48495e-05
4.10558e-10
1.48659e-05
8.80412e-10
1.07677e-09
1.48824e-05
1.27426e-05
-5.5857e-09
1.27492e-05
-1.55775e-08
1.27586e-05
-2.23252e-08
1.27697e-05
-2.58851e-08
1.27818e-05
-2.74383e-08
1.27948e-05
-2.77932e-08
1.28084e-05
-2.7215e-08
1.28222e-05
-2.5922e-08
1.28362e-05
-2.42037e-08
1.28503e-05
-2.2302e-08
1.28643e-05
-2.03735e-08
1.28784e-05
-1.8526e-08
1.28924e-05
-1.68434e-08
1.29063e-05
-1.53874e-08
1.29201e-05
-1.41972e-08
1.29338e-05
-1.32886e-08
1.29473e-05
-1.26654e-08
-1.22729e-08
1.29607e-05
1.10936e-05
-8.26965e-09
1.11008e-05
-2.27268e-08
1.11103e-05
-3.18819e-08
1.11209e-05
-3.65019e-08
1.11323e-05
-3.88513e-08
1.11444e-05
-3.9879e-08
1.11569e-05
-3.97019e-08
1.11696e-05
-3.85809e-08
1.11823e-05
-3.69065e-08
1.11949e-05
-3.49657e-08
1.12075e-05
-3.2933e-08
1.12199e-05
-3.09356e-08
1.12321e-05
-2.9076e-08
1.12442e-05
-2.74285e-08
1.1256e-05
-2.60415e-08
1.12677e-05
-2.49415e-08
1.12792e-05
-2.41573e-08
-2.36811e-08
1.12906e-05
9.65828e-06
-1.13367e-08
9.66608e-06
-3.05212e-08
9.67576e-06
-4.15665e-08
9.686e-06
-4.67456e-08
9.69677e-06
-4.96219e-08
9.70793e-06
-5.10321e-08
9.71919e-06
-5.09667e-08
9.73044e-06
-4.98263e-08
9.74162e-06
-4.809e-08
9.7527e-06
-4.60431e-08
9.76362e-06
-4.38546e-08
9.77435e-06
-4.16638e-08
9.78486e-06
-3.95875e-08
9.79514e-06
-3.77104e-08
9.80519e-06
-3.60867e-08
9.81499e-06
-3.47436e-08
9.82451e-06
-3.36747e-08
-3.28102e-08
9.83364e-06
8.40911e-06
-1.50924e-08
8.41766e-06
-3.90706e-08
8.42698e-06
-5.08903e-08
8.43667e-06
-5.64337e-08
8.44705e-06
-5.99978e-08
8.45771e-06
-6.16983e-08
8.46828e-06
-6.15315e-08
8.47863e-06
-6.01807e-08
8.48876e-06
-5.82172e-08
8.49863e-06
-5.59182e-08
8.50823e-06
-5.34541e-08
8.51754e-06
-5.09759e-08
8.52657e-06
-4.86089e-08
8.5353e-06
-4.64427e-08
8.54375e-06
-4.45387e-08
8.55194e-06
-4.29313e-08
8.55993e-06
-4.1665e-08
-4.07665e-08
8.56788e-06
7.32201e-06
-1.98188e-08
7.33207e-06
-4.91347e-08
7.34056e-06
-5.93765e-08
7.34889e-06
-6.47651e-08
7.35795e-06
-6.90512e-08
7.36726e-06
-7.1013e-08
7.37653e-06
-7.07996e-08
7.38569e-06
-6.93423e-08
7.39469e-06
-6.72195e-08
7.40347e-06
-6.46965e-08
7.41198e-06
-6.19675e-08
7.42021e-06
-5.92057e-08
7.42815e-06
-5.65465e-08
7.4358e-06
-5.40875e-08
7.44316e-06
-5.19004e-08
7.45025e-06
-5.00255e-08
7.45706e-06
-4.84734e-08
-4.70942e-08
7.46339e-06
6.37486e-06
-2.46128e-08
6.38702e-06
-6.12924e-08
6.39597e-06
-6.83261e-08
6.40453e-06
-7.33299e-08
6.41343e-06
-7.79468e-08
6.42221e-06
-7.97917e-08
6.43089e-06
-7.94846e-08
6.43962e-06
-7.80687e-08
6.44839e-06
-7.5988e-08
6.45714e-06
-7.34489e-08
6.46582e-06
-7.06505e-08
6.47439e-06
-6.77756e-08
6.48281e-06
-6.4964e-08
6.49105e-06
-6.23236e-08
6.49908e-06
-5.99399e-08
6.50695e-06
-5.78923e-08
6.5147e-06
-5.6226e-08
-5.49638e-08
6.52257e-06
5.55149e-06
-3.06345e-08
5.56444e-06
-7.42479e-08
5.57756e-06
-8.14422e-08
5.59331e-06
-8.90859e-08
5.61089e-06
-9.55186e-08
5.6291e-06
-9.8008e-08
5.64746e-06
-9.78427e-08
5.66565e-06
-9.62627e-08
5.6834e-06
-9.37375e-08
5.70049e-06
-9.0537e-08
5.71678e-06
-8.69349e-08
5.73217e-06
-8.31725e-08
5.74664e-06
-7.94335e-08
5.76018e-06
-7.58643e-08
5.77282e-06
-7.2579e-08
5.78466e-06
-6.97326e-08
5.7958e-06
-6.7365e-08
-6.59484e-08
5.80679e-06
4.88885e-06
-9.18793e-08
4.93802e-06
-1.23417e-07
4.9824e-06
-1.25825e-07
5.01939e-06
-1.26076e-07
5.04802e-06
-1.24148e-07
5.06871e-06
-1.18697e-07
5.08233e-06
-1.11459e-07
5.08984e-06
-1.0378e-07
5.09228e-06
-9.61678e-08
5.09058e-06
-8.88404e-08
5.08559e-06
-8.19483e-08
5.07801e-06
-7.55883e-08
5.06838e-06
-6.98091e-08
5.05715e-06
-6.46349e-08
5.04465e-06
-6.00795e-08
5.03111e-06
-5.61924e-08
5.01676e-06
-5.30079e-08
-5.09451e-08
5.00175e-06
4.1108e-06
3.98738e-06
3.86156e-06
3.73548e-06
3.61133e-06
3.49263e-06
3.38118e-06
3.2774e-06
3.18123e-06
3.09239e-06
3.01044e-06
2.93485e-06
2.86504e-06
2.80041e-06
2.74033e-06
2.68414e-06
2.63113e-06
2.58018e-06
2.00033e-07
-2.00033e-07
6.44716e-07
-4.44684e-07
1.13124e-06
-4.86524e-07
1.58991e-06
-4.58672e-07
2.00774e-06
-4.1783e-07
2.38399e-06
-3.76246e-07
2.71799e-06
-3.34001e-07
3.00732e-06
-2.89326e-07
3.24796e-06
-2.40647e-07
3.43484e-06
-1.86882e-07
3.5621e-06
-1.27257e-07
3.62392e-06
-6.18186e-08
3.61623e-06
7.69031e-09
3.52373e-06
9.25029e-08
3.35481e-06
1.68915e-07
3.12316e-06
2.3165e-07
2.84969e-06
2.73474e-07
2.56104e-06
2.88649e-07
2.28674e-06
2.74302e-07
2.05485e-06
2.31889e-07
1.88665e-06
1.68197e-07
1.78799e-06
9.86632e-08
1.73779e-06
5.02009e-08
1.69319e-06
4.45974e-08
1.60488e-06
8.83069e-08
1.42755e-06
1.77328e-07
1.12607e-06
3.0148e-07
6.79681e-07
4.46392e-07
8.88193e-08
5.90862e-07
-6.24494e-07
7.13313e-07
-1.42722e-06
8.02724e-07
-2.28682e-06
8.59598e-07
-3.1728e-06
8.85986e-07
-4.05769e-06
8.84892e-07
-4.9179e-06
8.60203e-07
-5.73408e-06
8.16178e-07
-6.4912e-06
7.57127e-07
-7.17819e-06
6.8699e-07
-7.78734e-06
6.09144e-07
-8.31371e-06
5.26375e-07
-8.75461e-06
4.40895e-07
-9.10906e-06
3.54451e-07
-9.37756e-06
2.68501e-07
-9.5619e-06
1.84337e-07
-9.6653e-06
1.03403e-07
-9.69298e-06
2.76762e-08
-9.65823e-06
-3.47433e-08
-9.57056e-06
-8.76752e-08
-9.43706e-06
-1.33495e-07
-9.26319e-06
-1.73875e-07
-9.05331e-06
-2.09876e-07
-8.81129e-06
-2.42019e-07
-8.5406e-06
-2.70695e-07
-8.24431e-06
-2.96286e-07
-7.92512e-06
-3.19195e-07
-7.58528e-06
-3.39837e-07
-7.22669e-06
-3.58591e-07
-6.85093e-06
-3.75757e-07
-6.45944e-06
-3.91494e-07
-6.05364e-06
-4.05795e-07
-5.63517e-06
-4.18468e-07
-5.20601e-06
-4.29168e-07
-4.76856e-06
-4.37448e-07
-4.32571e-06
-4.42844e-07
-3.88075e-06
-4.44963e-07
-3.43719e-06
-4.43562e-07
-2.9986e-06
-4.38594e-07
-2.56838e-06
-4.30215e-07
-2.14962e-06
-4.18765e-07
-1.74491e-06
-4.04711e-07
-1.35633e-06
-3.88571e-07
-9.85524e-07
-3.7081e-07
-6.33637e-07
-3.51887e-07
-3.00981e-07
-3.32656e-07
1.31711e-08
-3.14152e-07
3.08597e-07
-2.95426e-07
5.85637e-07
-2.7704e-07
8.44837e-07
-2.592e-07
1.0869e-06
-2.42061e-07
1.31264e-06
-2.25744e-07
1.52295e-06
-2.1031e-07
1.71873e-06
-1.95777e-07
1.90087e-06
-1.82139e-07
2.07024e-06
-1.69371e-07
2.22767e-06
-1.57435e-07
2.37396e-06
-1.46288e-07
2.50984e-06
-1.35877e-07
2.63599e-06
-1.26151e-07
2.75305e-06
-1.17058e-07
2.86159e-06
-1.08545e-07
2.96215e-06
-1.00562e-07
3.05522e-06
-9.30621e-08
3.14122e-06
-8.60017e-08
3.22056e-06
-7.934e-08
3.2936e-06
-7.30402e-08
3.36067e-06
-6.70691e-08
3.42206e-06
-6.13975e-08
3.47806e-06
-5.59997e-08
3.52892e-06
-5.08539e-08
3.57486e-06
-4.5942e-08
3.61611e-06
-4.12495e-08
3.65287e-06
-3.67651e-08
3.68536e-06
-3.2481e-08
3.71375e-06
-2.83918e-08
3.73824e-06
-2.44948e-08
3.75903e-06
-2.07889e-08
3.77631e-06
-1.72737e-08
3.79026e-06
-1.39505e-08
3.80107e-06
-1.08097e-08
3.8089e-06
-7.83585e-09
3.81392e-06
-5.01707e-09
3.81599e-06
-2.07577e-09
3.81476e-06
1.23007e-09
3.81026e-06
4.50462e-09
3.80296e-06
7.29665e-09
3.79342e-06
9.53935e-09
3.78214e-06
1.12801e-08
3.76956e-06
1.25846e-08
3.75603e-06
1.35263e-08
3.74185e-06
1.41811e-08
3.72724e-06
1.46097e-08
3.71239e-06
1.48533e-08
3.69745e-06
1.49369e-08
3.68251e-06
1.49385e-08
3.66765e-06
1.48611e-08
3.65294e-06
1.47093e-08
3.63845e-06
1.44903e-08
3.62424e-06
1.4208e-08
3.61038e-06
1.38688e-08
3.59689e-06
1.34815e-08
3.58383e-06
1.30589e-08
3.57122e-06
1.26166e-08
3.55905e-06
1.21709e-08
3.54731e-06
1.17376e-08
3.53598e-06
1.13293e-08
3.52503e-06
1.09551e-08
3.51441e-06
1.06197e-08
3.50408e-06
1.0324e-08
3.49402e-06
1.00656e-08
3.48418e-06
9.84047e-09
3.47453e-06
9.64397e-09
3.46506e-06
9.47169e-09
3.45574e-06
9.32014e-09
3.44655e-06
9.18664e-09
3.43748e-06
9.06958e-09
3.42852e-06
8.96791e-09
3.41963e-06
8.88117e-09
3.41083e-06
8.80912e-09
3.40207e-06
8.75171e-09
3.39336e-06
8.70895e-09
3.38468e-06
8.681e-09
3.37602e-06
8.66837e-09
3.36734e-06
8.67179e-09
3.35865e-06
8.69228e-09
3.34992e-06
8.73154e-09
3.34113e-06
8.79184e-09
3.33225e-06
8.87634e-09
3.32326e-06
8.9891e-09
3.31413e-06
9.13561e-09
3.3048e-06
9.32301e-09
3.29524e-06
9.56076e-09
3.28538e-06
9.86106e-09
3.27514e-06
1.02401e-08
3.26442e-06
1.07191e-08
3.2531e-06
1.13262e-08
3.241e-06
1.2099e-08
3.22791e-06
1.30881e-08
3.21355e-06
1.43626e-08
3.19753e-06
1.6018e-08
3.17934e-06
1.8188e-08
3.15828e-06
2.10635e-08
3.13336e-06
2.4922e-08
3.10318e-06
3.0177e-08
3.06573e-06
3.74501e-08
3.01799e-06
4.77419e-08
2.95554e-06
6.24445e-08
2.87081e-06
8.47349e-08
2.75555e-06
1.15262e-07
2.58085e-06
1.74694e-07
2.17035e-07
2.36382e-06
3.6889e-07
-5.68923e-07
7.60283e-07
-8.36077e-07
1.0961e-06
-8.22342e-07
1.40426e-06
-7.66832e-07
1.69811e-06
-7.11674e-07
1.97794e-06
-6.56078e-07
2.23843e-06
-5.94489e-07
2.47218e-06
-5.23078e-07
2.67196e-06
-4.40431e-07
2.83216e-06
-3.47078e-07
2.95006e-06
-2.45156e-07
3.02644e-06
-1.38201e-07
3.06635e-06
-3.22157e-08
3.07211e-06
8.67414e-08
3.0335e-06
2.07525e-07
2.94178e-06
3.23372e-07
2.79753e-06
4.17718e-07
2.61182e-06
4.74356e-07
2.39883e-06
4.87299e-07
2.16077e-06
4.6995e-07
1.86936e-06
4.59608e-07
1.47939e-06
4.88626e-07
9.51389e-07
5.78204e-07
2.62945e-07
7.33041e-07
-5.71406e-07
9.22658e-07
-1.50237e-06
1.10829e-06
-2.48057e-06
1.27969e-06
-3.46259e-06
1.42841e-06
-4.41535e-06
1.54362e-06
-5.31763e-06
1.61559e-06
-6.15513e-06
1.64022e-06
-6.91502e-06
1.61949e-06
-7.58801e-06
1.55898e-06
-8.16953e-06
1.46641e-06
-8.65959e-06
1.35027e-06
-9.06215e-06
1.21873e-06
-9.38393e-06
1.07891e-06
-9.6334e-06
9.36453e-07
-9.81968e-06
7.95426e-07
-9.95183e-06
6.58528e-07
-1.00382e-05
5.27282e-07
-1.00862e-05
4.0242e-07
-1.01019e-05
2.84187e-07
-1.00901e-05
1.72603e-07
-1.00546e-05
6.78963e-08
-9.99604e-06
-3.09122e-08
-9.90623e-06
-1.24558e-07
-9.78004e-06
-2.13863e-07
-9.61639e-06
-2.97148e-07
-9.41671e-06
-3.73557e-07
-9.1838e-06
-4.42785e-07
-8.92086e-06
-5.04949e-07
-8.63111e-06
-5.6045e-07
-8.31748e-06
-6.09915e-07
-7.98254e-06
-6.54139e-07
-7.62839e-06
-6.93984e-07
-7.25671e-06
-7.30269e-07
-6.86883e-06
-7.6364e-07
-6.46588e-06
-7.94448e-07
-6.049e-06
-8.22668e-07
-5.61961e-06
-8.47865e-07
-5.17952e-06
-8.69252e-07
-4.73115e-06
-8.85819e-07
-4.27748e-06
-8.96518e-07
-3.82196e-06
-9.00474e-07
-3.36837e-06
-8.97154e-07
-2.92049e-06
-8.86473e-07
-2.4819e-06
-8.68806e-07
-2.05575e-06
-8.44914e-07
-1.64464e-06
-8.15829e-07
-1.25051e-06
-7.82697e-07
-8.74654e-07
-7.46665e-07
-5.17673e-07
-7.08869e-07
-1.7982e-07
-6.70509e-07
1.38429e-07
-6.32402e-07
4.37591e-07
-5.94587e-07
7.18309e-07
-5.57758e-07
9.81419e-07
-5.22311e-07
1.22784e-06
-4.88477e-07
1.45851e-06
-4.56419e-07
1.67442e-06
-4.2622e-07
1.87654e-06
-3.97897e-07
2.06583e-06
-3.71422e-07
2.24319e-06
-3.46736e-07
2.40951e-06
-3.23755e-07
2.56561e-06
-3.02384e-07
2.71225e-06
-2.82518e-07
2.85015e-06
-2.6405e-07
2.97996e-06
-2.4687e-07
3.10229e-06
-2.30872e-07
3.21768e-06
-2.15955e-07
3.32664e-06
-2.0202e-07
3.42961e-06
-1.88976e-07
3.52701e-06
-1.76738e-07
3.6192e-06
-1.65229e-07
3.7065e-06
-1.54376e-07
3.78922e-06
-1.44114e-07
3.86761e-06
-1.34387e-07
3.9419e-06
-1.25143e-07
4.01229e-06
-1.16338e-07
4.07898e-06
-1.07934e-07
4.14211e-06
-9.99e-08
4.20184e-06
-9.22095e-08
4.25829e-06
-8.4842e-08
4.31158e-06
-7.77818e-08
4.36181e-06
-7.10165e-08
4.40907e-06
-6.45369e-08
4.45345e-06
-5.83343e-08
4.49504e-06
-5.23991e-08
4.53393e-06
-4.67188e-08
4.57019e-06
-4.12771e-08
4.60423e-06
-3.61152e-08
4.63669e-06
-3.12382e-08
4.6678e-06
-2.66053e-08
4.69736e-06
-2.22614e-08
4.72516e-06
-1.82587e-08
4.75105e-06
-1.46109e-08
4.77495e-06
-1.13109e-08
4.79681e-06
-8.33919e-09
4.81666e-06
-5.66924e-09
4.83454e-06
-3.2675e-09
4.85044e-06
-1.05216e-09
4.86445e-06
9.2778e-10
4.87663e-06
2.75903e-09
4.8871e-06
4.39305e-09
4.89597e-06
5.8428e-09
4.90334e-06
7.11884e-09
4.90932e-06
8.22837e-09
4.914e-06
9.18289e-09
4.91749e-06
9.99469e-09
4.91987e-06
1.068e-08
4.92123e-06
1.12556e-08
4.92166e-06
1.17395e-08
4.92125e-06
1.21495e-08
4.92008e-06
1.25014e-08
4.91823e-06
1.28087e-08
4.91576e-06
1.30822e-08
4.91276e-06
1.33296e-08
4.90927e-06
1.35561e-08
4.90534e-06
1.37653e-08
4.90103e-06
1.39598e-08
4.89636e-06
1.41417e-08
4.89136e-06
1.43134e-08
4.88607e-06
1.44773e-08
4.88051e-06
1.46363e-08
4.87468e-06
1.47932e-08
4.86861e-06
1.49508e-08
4.86231e-06
1.51115e-08
4.85578e-06
1.52777e-08
4.84904e-06
1.54513e-08
4.84209e-06
1.5634e-08
4.83493e-06
1.58275e-08
4.82757e-06
1.60333e-08
4.82e-06
1.62539e-08
4.81224e-06
1.64915e-08
4.80429e-06
1.67498e-08
4.79613e-06
1.70331e-08
4.78777e-06
1.73474e-08
4.77921e-06
1.77005e-08
4.77043e-06
1.81027e-08
4.76142e-06
1.85674e-08
4.75217e-06
1.91116e-08
4.74265e-06
1.97581e-08
4.73283e-06
2.05365e-08
4.72267e-06
2.14858e-08
4.71212e-06
2.2658e-08
4.70108e-06
2.41226e-08
4.68947e-06
2.59742e-08
4.67714e-06
2.83426e-08
4.66392e-06
3.14097e-08
4.64955e-06
3.54342e-08
4.63369e-06
4.07895e-08
4.61582e-06
4.80379e-08
4.59527e-06
5.80048e-08
4.57091e-06
7.20978e-08
4.54126e-06
9.21001e-08
4.50314e-06
1.22856e-07
4.45323e-06
1.65166e-07
4.37984e-06
2.48088e-07
3.24341e-07
4.27253e-06
3.22641e-07
-8.91564e-07
5.1769e-07
-1.03113e-06
6.79949e-07
-9.84601e-07
8.51408e-07
-9.38292e-07
1.03045e-06
-8.90716e-07
1.20738e-06
-8.33004e-07
1.37256e-06
-7.5967e-07
1.51711e-06
-6.67635e-07
1.63389e-06
-5.5721e-07
1.71661e-06
-4.29801e-07
1.76069e-06
-2.89231e-07
1.76379e-06
-1.413e-07
1.72918e-06
2.38948e-09
1.65069e-06
1.65234e-07
1.5354e-06
3.22813e-07
1.38153e-06
4.77244e-07
1.18002e-06
6.19227e-07
9.10901e-07
7.43477e-07
5.41865e-07
8.56335e-07
3.69133e-08
9.74901e-07
-6.21531e-07
1.11805e-06
-1.41952e-06
1.28662e-06
-2.31113e-06
1.46981e-06
-3.23236e-06
1.65427e-06
-4.13279e-06
1.82309e-06
-4.98507e-06
1.96057e-06
-5.76467e-06
2.05929e-06
-6.45207e-06
2.11581e-06
-7.03732e-06
2.12887e-06
-7.5216e-06
2.09987e-06
-7.91457e-06
2.03319e-06
-8.23082e-06
1.93574e-06
-8.4875e-06
1.81565e-06
-8.70192e-06
1.68083e-06
-8.8895e-06
1.53785e-06
-9.06209e-06
1.39132e-06
-9.22703e-06
1.24386e-06
-9.38706e-06
1.09648e-06
-9.54077e-06
9.49141e-07
-9.68364e-06
8.01396e-07
-9.80919e-06
6.5283e-07
-9.91016e-06
5.0339e-07
-9.97956e-06
3.53588e-07
-1.00115e-05
2.0454e-07
-1.00013e-05
5.76653e-08
-9.94687e-06
-8.53013e-08
-9.84854e-06
-2.22891e-07
-9.70937e-06
-3.53031e-07
-9.53233e-06
-4.74188e-07
-9.32051e-06
-5.85377e-07
-9.07722e-06
-6.86082e-07
-8.80584e-06
-7.76329e-07
-8.50963e-06
-8.56653e-07
-8.19153e-06
-9.28022e-07
-7.85394e-06
-9.9173e-07
-7.49869e-06
-1.04923e-06
-7.12703e-06
-1.10193e-06
-6.73971e-06
-1.15096e-06
-6.33722e-06
-1.19694e-06
-5.92008e-06
-1.23981e-06
-5.48916e-06
-1.27878e-06
-5.04603e-06
-1.31239e-06
-4.59308e-06
-1.33877e-06
-4.13361e-06
-1.35598e-06
-3.67165e-06
-1.36243e-06
-3.21164e-06
-1.35717e-06
-2.75805e-06
-1.34007e-06
-2.31501e-06
-1.31185e-06
-1.88605e-06
-1.27387e-06
-1.47393e-06
-1.22795e-06
-1.08057e-06
-1.17605e-06
-7.07113e-07
-1.12012e-06
-3.54e-07
-1.06198e-06
-2.14466e-08
-1.00306e-06
2.90544e-07
-9.44392e-07
5.82734e-07
-8.86777e-07
8.56038e-07
-8.31062e-07
1.11146e-06
-7.77732e-07
1.35008e-06
-7.271e-07
1.57301e-06
-6.79347e-07
1.78133e-06
-6.34545e-07
1.97612e-06
-5.92685e-07
2.15839e-06
-5.53694e-07
2.32912e-06
-5.1746e-07
2.48921e-06
-4.83841e-07
2.6395e-06
-4.52677e-07
2.78078e-06
-4.238e-07
2.91377e-06
-3.97039e-07
3.03912e-06
-3.72224e-07
3.15744e-06
-3.49191e-07
3.26927e-06
-3.2778e-07
3.37509e-06
-3.07842e-07
3.47535e-06
-2.89237e-07
3.57045e-06
-2.71835e-07
3.66073e-06
-2.55515e-07
3.74652e-06
-2.40167e-07
3.8281e-06
-2.25694e-07
3.90572e-06
-2.12005e-07
3.9796e-06
-1.99023e-07
4.04994e-06
-1.86677e-07
4.11691e-06
-1.74909e-07
4.18068e-06
-1.63667e-07
4.24138e-06
-1.52908e-07
4.29913e-06
-1.42597e-07
4.35406e-06
-1.32704e-07
4.40625e-06
-1.23206e-07
4.45579e-06
-1.14084e-07
4.50278e-06
-1.05323e-07
4.54729e-06
-9.69097e-08
4.58941e-06
-8.88338e-08
4.62921e-06
-8.10782e-08
4.66674e-06
-7.36469e-08
4.70206e-06
-6.656e-08
4.73528e-06
-5.98265e-08
4.76649e-06
-5.34651e-08
4.79572e-06
-4.74931e-08
4.82302e-06
-4.19122e-08
4.84843e-06
-3.67136e-08
4.87197e-06
-3.18836e-08
4.8937e-06
-2.74021e-08
4.91368e-06
-2.32485e-08
4.93204e-06
-1.94085e-08
4.94885e-06
-1.58821e-08
4.96422e-06
-1.26095e-08
4.9782e-06
-9.58377e-09
4.99083e-06
-6.79682e-09
5.00219e-06
-4.23678e-09
5.01231e-06
-1.89097e-09
5.02123e-06
2.58734e-10
5.02901e-06
2.21811e-09
5.03569e-06
3.99986e-09
5.04133e-06
5.61873e-09
5.04598e-06
7.09147e-09
5.04969e-06
8.43444e-09
5.05253e-06
9.66251e-09
5.05455e-06
1.07896e-08
5.0558e-06
1.18272e-08
5.05635e-06
1.27852e-08
5.05623e-06
1.36713e-08
5.05551e-06
1.44923e-08
5.05421e-06
1.52541e-08
5.05239e-06
1.59624e-08
5.05008e-06
1.66226e-08
5.04732e-06
1.72405e-08
5.04413e-06
1.78222e-08
5.04055e-06
1.83736e-08
5.0366e-06
1.89006e-08
5.0323e-06
1.94089e-08
5.02768e-06
1.99034e-08
5.02274e-06
2.03889e-08
5.01751e-06
2.08695e-08
5.01198e-06
2.1349e-08
5.00619e-06
2.1831e-08
5.00012e-06
2.23191e-08
4.9938e-06
2.28174e-08
4.98721e-06
2.33307e-08
4.98038e-06
2.3865e-08
4.9733e-06
2.44279e-08
4.96597e-06
2.50291e-08
4.9584e-06
2.56813e-08
4.95056e-06
2.64007e-08
4.94246e-06
2.72087e-08
4.93409e-06
2.81326e-08
4.92542e-06
2.92083e-08
4.91642e-06
3.04828e-08
4.90706e-06
3.20177e-08
4.89729e-06
3.38959e-08
4.88703e-06
3.62281e-08
4.87621e-06
3.91655e-08
4.8647e-06
4.29169e-08
4.85236e-06
4.7776e-08
4.83899e-06
5.41596e-08
4.82435e-06
6.26846e-08
4.80812e-06
7.42356e-08
4.78993e-06
9.02841e-08
4.76935e-06
1.12678e-07
4.74623e-06
1.45975e-07
4.71928e-06
1.92115e-07
4.69458e-06
2.72794e-07
3.6929e-07
4.64963e-06
1.18131e-07
-1.00969e-06
1.31028e-07
-1.04402e-06
1.50681e-07
-1.00425e-06
1.78361e-07
-9.65972e-07
2.05436e-07
-9.17792e-07
2.26468e-07
-8.54036e-07
2.3736e-07
-7.70562e-07
2.34611e-07
-6.64886e-07
2.12767e-07
-5.35366e-07
1.66602e-07
-3.83636e-07
8.9028e-08
-2.11657e-07
-3.47247e-08
-1.75468e-08
-2.04995e-07
1.7266e-07
-4.17914e-07
3.78154e-07
-6.81833e-07
5.86732e-07
-1.00084e-06
7.96249e-07
-1.38548e-06
1.00387e-06
-1.85027e-06
1.20827e-06
-2.40416e-06
1.41022e-06
-3.03935e-06
1.61009e-06
-3.72586e-06
1.80456e-06
-4.42433e-06
1.98509e-06
-5.09661e-06
2.14209e-06
-5.71032e-06
2.26797e-06
-6.24495e-06
2.35772e-06
-6.69344e-06
2.40906e-06
-7.05699e-06
2.42284e-06
-7.34352e-06
2.40234e-06
-7.56712e-06
2.35247e-06
-7.74631e-06
2.27906e-06
-7.90121e-06
2.18809e-06
-8.05029e-06
2.08482e-06
-8.20759e-06
1.97295e-06
-8.38108e-06
1.85432e-06
-8.57233e-06
1.72911e-06
-8.77743e-06
1.59641e-06
-8.9885e-06
1.45493e-06
-9.19558e-06
1.30356e-06
-9.38823e-06
1.14179e-06
-9.55679e-06
9.69958e-07
-9.69319e-06
7.89228e-07
-9.79136e-06
6.01556e-07
-9.8473e-06
4.09533e-07
-9.85895e-06
2.16185e-07
-9.8258e-06
2.45169e-08
-9.74917e-06
-1.61927e-07
-9.6314e-06
-3.40662e-07
-9.47544e-06
-5.08995e-07
-9.28474e-06
-6.64891e-07
-9.06308e-06
-8.07038e-07
-8.81426e-06
-9.34898e-07
-8.54186e-06
-1.04873e-06
-8.24901e-06
-1.14951e-06
-7.93819e-06
-1.23884e-06
-7.61116e-06
-1.31876e-06
-7.26885e-06
-1.39154e-06
-6.91142e-06
-1.45936e-06
-6.53836e-06
-1.52401e-06
-6.14883e-06
-1.58647e-06
-5.74206e-06
-1.64658e-06
-5.31791e-06
-1.70294e-06
-4.87733e-06
-1.75297e-06
-4.42274e-06
-1.79336e-06
-3.95804e-06
-1.82068e-06
-3.48835e-06
-1.83212e-06
-3.01947e-06
-1.82605e-06
-2.5572e-06
-1.80234e-06
-2.10678e-06
-1.76227e-06
-1.67247e-06
-1.70818e-06
-1.2574e-06
-1.64302e-06
-8.63555e-07
-1.56989e-06
-4.91954e-07
-1.49172e-06
-1.42902e-07
-1.41103e-06
1.83748e-07
-1.32971e-06
4.88525e-07
-1.24917e-06
7.72569e-07
-1.17082e-06
1.03704e-06
-1.09554e-06
1.2832e-06
-1.02389e-06
1.51231e-06
-9.56216e-07
1.72566e-06
-8.92689e-07
1.92445e-06
-8.33338e-07
2.10986e-06
-7.78096e-07
2.28299e-06
-7.26825e-07
2.44487e-06
-6.79342e-07
2.59646e-06
-6.35429e-07
2.73864e-06
-5.94855e-07
2.87222e-06
-5.57378e-07
2.99794e-06
-5.22757e-07
3.11646e-06
-4.90752e-07
3.22841e-06
-4.61133e-07
3.33431e-06
-4.33682e-07
3.43465e-06
-4.08189e-07
3.52988e-06
-3.84461e-07
3.62036e-06
-3.62318e-07
3.70644e-06
-3.41595e-07
3.78842e-06
-3.22141e-07
3.86654e-06
-3.03821e-07
3.94105e-06
-2.86512e-07
4.01213e-06
-2.70107e-07
4.07997e-06
-2.54511e-07
4.1447e-06
-2.39644e-07
4.20647e-06
-2.25435e-07
4.26539e-06
-2.11825e-07
4.32156e-06
-1.98767e-07
4.37507e-06
-1.8622e-07
4.42602e-06
-1.74151e-07
4.47447e-06
-1.62535e-07
4.5205e-06
-1.51353e-07
4.56418e-06
-1.40586e-07
4.60556e-06
-1.30222e-07
4.64474e-06
-1.20251e-07
4.68177e-06
-1.10675e-07
4.71671e-06
-1.01505e-07
4.74963e-06
-9.27466e-08
4.78057e-06
-8.44032e-08
4.80956e-06
-7.64858e-08
4.83665e-06
-6.89998e-08
4.86188e-06
-6.19419e-08
4.8853e-06
-5.53032e-08
4.90696e-06
-4.90697e-08