/*--------------------------------*- C++ -*----------------------------------*\
| =========                 |                                                 |
| \\      /  F ield         | OpenFOAM: The Open Source CFD Toolbox           |
|  \\    /   O peration     | Version:  2112                                  |
|   \\  /    A nd           | Website:  www.openfoam.com                      |
|    \\/     M anipulation  |                                                 |
\*---------------------------------------------------------------------------*/
FoamFile
{
    version     2.0;
    format      ascii;
    arch        "LSB;label=32;scalar=64";
    class       volVectorField;
    location    "0.02";
    object      U_0;
}
// * * * * * * * * * * * * * * * * * * * * * * * * * * * * * * * * * * * * * //

dimensions      [0 1 -1 0 0 0 0];

internalField   nonuniform List<vector> 
12225
(
(9.77838 -0.114624 0)
(9.33147 -0.0853773 0)
(8.8641 -0.0433844 0)
(8.39439 -0.0121081 0)
(7.9458 0.00807263 0)
(7.52565 0.0198634 0)
(7.13336 0.0264044 0)
(6.76802 0.0297451 0)
(6.42929 0.0310178 0)
(6.11649 0.0309191 0)
(5.82843 0.029914 0)
(5.56381 0.0282896 0)
(5.32161 0.026182 0)
(5.1011 0.0235828 0)
(4.90196 0.0205789 0)
(4.72421 0.0170513 0)
(4.56036 0.017146 0)
(4.44675 0.0314053 0)
(10.0951 0.127365 0)
(10.2937 0.199512 0)
(10.4265 0.197145 0)
(10.5009 0.187322 0)
(10.5342 0.178399 0)
(10.534 0.169854 0)
(10.505 0.162189 0)
(10.4522 0.15553 0)
(10.3809 0.149582 0)
(10.2957 0.144071 0)
(10.2004 0.138818 0)
(10.098 0.133662 0)
(9.9911 0.128408 0)
(9.88223 0.122792 0)
(9.7735 0.116717 0)
(9.66772 0.110814 0)
(9.56681 0.108697 0)
(9.49247 0.130291 0)
(10.0068 0.0283207 0)
(10.0479 0.0261194 0)
(10.0967 0.0199129 0)
(10.1441 0.0292373 0)
(10.1938 0.0435399 0)
(10.2457 0.0564495 0)
(10.2963 0.0674068 0)
(10.3433 0.0767291 0)
(10.3857 0.0844767 0)
(10.4229 0.0907142 0)
(10.4546 0.0955639 0)
(10.4808 0.0991049 0)
(10.5015 0.10132 0)
(10.517 0.102084 0)
(10.5276 0.101432 0)
(10.5344 0.0998868 0)
(10.5412 0.101022 0)
(10.5673 0.108873 0)
(10.0048 0.0251617 0)
(10.0292 0.0576767 0)
(10.0542 0.0764711 0)
(10.0707 0.0904785 0)
(10.0845 0.0998567 0)
(10.0999 0.104884 0)
(10.1166 0.107481 0)
(10.1338 0.109012 0)
(10.1514 0.109951 0)
(10.1694 0.110433 0)
(10.1877 0.110515 0)
(10.2058 0.110168 0)
(10.2235 0.10927 0)
(10.2407 0.107616 0)
(10.2572 0.105112 0)
(10.2737 0.101777 0)
(10.2924 0.0982743 0)
(10.324 0.0893233 0)
(10.0037 0.0230084 0)
(10.0234 0.0528698 0)
(10.0442 0.0633056 0)
(10.0581 0.0683749 0)
(10.0687 0.0733227 0)
(10.0795 0.0776791 0)
(10.09 0.0813512 0)
(10.0996 0.0846401 0)
(10.1083 0.0875688 0)
(10.1163 0.0900276 0)
(10.1237 0.0919399 0)
(10.1306 0.0932316 0)
(10.1371 0.0937795 0)
(10.1431 0.0933941 0)
(10.149 0.0918638 0)
(10.1553 0.088705 0)
(10.1637 0.0828324 0)
(10.1795 0.0674849 0)
(10.0026 0.0194162 0)
(10.018 0.0457499 0)
(10.0363 0.0572247 0)
(10.0502 0.0651252 0)
(10.0613 0.0732711 0)
(10.072 0.0802356 0)
(10.0822 0.0854998 0)
(10.0913 0.0895575 0)
(10.0992 0.0927669 0)
(10.1061 0.0952352 0)
(10.1122 0.0970067 0)
(10.1174 0.0980879 0)
(10.1217 0.0984081 0)
(10.1252 0.097788 0)
(10.128 0.0959038 0)
(10.1303 0.0919646 0)
(10.1329 0.084315 0)
(10.1364 0.0668989 0)
(10.0019 0.0163233 0)
(10.014 0.0405722 0)
(10.0299 0.0535587 0)
(10.0432 0.0622942 0)
(10.0541 0.0700494 0)
(10.0643 0.0762844 0)
(10.0741 0.0808806 0)
(10.083 0.0844517 0)
(10.0909 0.0874091 0)
(10.0978 0.0898473 0)
(10.1038 0.0917636 0)
(10.1089 0.0931255 0)
(10.1129 0.0938371 0)
(10.1159 0.0936909 0)
(10.1178 0.0923018 0)
(10.1183 0.0888382 0)
(10.1171 0.0818168 0)
(10.1125 0.066978 0)
(10.0014 0.0139148 0)
(10.0109 0.0361047 0)
(10.0246 0.0494416 0)
(10.0371 0.0582302 0)
(10.0475 0.0656592 0)
(10.0573 0.0719134 0)
(10.0667 0.07689 0)
(10.0755 0.0809666 0)
(10.0832 0.0844506 0)
(10.09 0.0874186 0)
(10.0958 0.0898663 0)
(10.1007 0.0917728 0)
(10.1044 0.0930703 0)
(10.107 0.0935934 0)
(10.108 0.0930244 0)
(10.107 0.0907404 0)
(10.103 0.0858322 0)
(10.0936 0.0760012 0)
(10.001 0.0119825 0)
(10.0086 0.032038 0)
(10.0203 0.0452283 0)
(10.0317 0.0541638 0)
(10.0418 0.0615918 0)
(10.0511 0.067984 0)
(10.0602 0.0732182 0)
(10.0686 0.077531 0)
(10.0761 0.0812169 0)
(10.0827 0.0844061 0)
(10.0884 0.0871356 0)
(10.093 0.0894161 0)
(10.0965 0.0912225 0)
(10.0986 0.0924607 0)
(10.099 0.0929465 0)
(10.0969 0.0923705 0)
(10.0913 0.0904371 0)
(10.0797 0.0864149 0)
(10.0008 0.010393 0)
(10.0069 0.0283919 0)
(10.0168 0.0411569 0)
(10.0272 0.0501576 0)
(10.0368 0.0575346 0)
(10.0457 0.063906 0)
(10.0544 0.0692451 0)
(10.0625 0.073737 0)
(10.0698 0.077658 0)
(10.0762 0.0811622 0)
(10.0817 0.0843087 0)
(10.0863 0.0871305 0)
(10.0896 0.089647 0)
(10.0914 0.0918526 0)
(10.0915 0.0937254 0)
(10.0889 0.095273 0)
(10.0829 0.096695 0)
(10.0715 0.0982917 0)
(10.0006 0.00906225 0)
(10.0056 0.0251468 0)
(10.014 0.0372637 0)
(10.0235 0.0461578 0)
(10.0325 0.0534163 0)
(10.041 0.0597178 0)
(10.0493 0.0651398 0)
(10.0571 0.0698264 0)
(10.0642 0.0740082 0)
(10.0705 0.0778434 0)
(10.076 0.0814149 0)
(10.0804 0.0847887 0)
(10.0837 0.0880394 0)
(10.0856 0.091257 0)
(10.0857 0.0945734 0)
(10.0834 0.0982457 0)
(10.0782 0.102772 0)
(10.0686 0.108997 0)
(10.0005 0.00799997 0)
(10.0046 0.0224421 0)
(10.012 0.0338239 0)
(10.0206 0.0424891 0)
(10.0291 0.0495996 0)
(10.0372 0.0558132 0)
(10.0452 0.0612753 0)
(10.0528 0.0661057 0)
(10.0598 0.0704981 0)
(10.066 0.0746142 0)
(10.0715 0.0785625 0)
(10.076 0.0824426 0)
(10.0795 0.0863766 0)
(10.0816 0.0905281 0)
(10.0822 0.0951351 0)
(10.0807 0.100596 0)
(10.077 0.107522 0)
(10.0701 0.116927 0)
(10.0004 0.00708848 0)
(10.0039 0.0200134 0)
(10.0103 0.030554 0)
(10.0181 0.0388644 0)
(10.0261 0.0457755 0)
(10.034 0.0518658 0)
(10.0417 0.0573194 0)
(10.0491 0.0622501 0)
(10.056 0.066824 0)
(10.0622 0.0712001 0)
(10.0678 0.0755049 0)
(10.0725 0.0798638 0)
(10.0762 0.0844334 0)
(10.0789 0.089426 0)
(10.0802 0.0951381 0)
(10.08 0.102023 0)
(10.0782 0.110677 0)
(10.0744 0.122101 0)
(10.0004 0.00616573 0)
(10.0033 0.017477 0)
(10.0088 0.0269861 0)
(10.0159 0.0347647 0)
(10.0234 0.041368 0)
(10.0309 0.0472621 0)
(10.0383 0.0526463 0)
(10.0455 0.0576344 0)
(10.0524 0.0623669 0)
(10.0587 0.0669923 0)
(10.0644 0.0716472 0)
(10.0695 0.0764756 0)
(10.0738 0.0816561 0)
(10.0772 0.0874239 0)
(10.0798 0.0940889 0)
(10.0813 0.102084 0)
(10.0821 0.111897 0)
(10.0819 0.124377 0)
(10.0003 0.0052238 0)
(10.0028 0.014837 0)
(10.0076 0.0231308 0)
(10.0139 0.0301681 0)
(10.0209 0.0363054 0)
(10.028 0.0418895 0)
(10.0352 0.0471071 0)
(10.0423 0.0520668 0)
(10.0492 0.0568851 0)
(10.0557 0.0616921 0)
(10.0618 0.0666215 0)
(10.0675 0.0718192 0)
(10.0726 0.0774608 0)
(10.0772 0.0837656 0)
(10.0813 0.0910003 0)
(10.085 0.0995046 0)
(10.0887 0.109585 0)
(10.0924 0.121864 0)
(10.0003 0.0042495 0)
(10.0024 0.0120675 0)
(10.0066 0.018956 0)
(10.0123 0.0250155 0)
(10.0188 0.0304795 0)
(10.0257 0.0355869 0)
(10.0328 0.0404873 0)
(10.0399 0.0452725 0)
(10.0469 0.0500316 0)
(10.0537 0.0548665 0)
(10.0604 0.0598889 0)
(10.0668 0.0652215 0)
(10.0729 0.0710056 0)
(10.0789 0.0774052 0)
(10.0849 0.0845993 0)
(10.091 0.0927932 0)
(10.0975 0.102104 0)
(10.1046 0.112928 0)
(10.0002 0.00321297 0)
(10.0022 0.00909217 0)
(10.006 0.0143603 0)
(10.0113 0.0191752 0)
(10.0174 0.0237044 0)
(10.0241 0.0280989 0)
(10.0311 0.032456 0)
(10.0384 0.0368352 0)
(10.0457 0.0412902 0)
(10.053 0.0458822 0)
(10.0604 0.0506806 0)
(10.0677 0.0557607 0)
(10.075 0.0612036 0)
(10.0825 0.0670937 0)
(10.0903 0.073508 0)
(10.0985 0.0805212 0)
(10.1072 0.0881092 0)
(10.1169 0.0964927 0)
(10.0002 0.00205456 0)
(10.0021 0.00575393 0)
(10.0057 0.00912446 0)
(10.0108 0.0123781 0)
(10.0168 0.0156465 0)
(10.0236 0.0190108 0)
(10.0307 0.0225091 0)
(10.0382 0.0261547 0)
(10.046 0.0299542 0)
(10.0539 0.0339172 0)
(10.062 0.038057 0)
(10.0703 0.0423894 0)
(10.0788 0.0469289 0)
(10.0876 0.0516847 0)
(10.0967 0.0566516 0)
(10.1063 0.0618166 0)
(10.1165 0.0670864 0)
(10.1275 0.0725782 0)
(10.0002 0.000661359 0)
(10.0021 0.00173638 0)
(10.0058 0.00278667 0)
(10.0111 0.00406855 0)
(10.0174 0.00567577 0)
(10.0244 0.00761419 0)
(10.032 0.00985659 0)
(10.0399 0.0123636 0)
(10.0482 0.0150887 0)
(10.0568 0.0179831 0)
(10.0656 0.0210005 0)
(10.0746 0.0240977 0)
(10.0839 0.0272326 0)
(10.0935 0.030361 0)
(10.1034 0.0334315 0)
(10.1137 0.0363954 0)
(10.1244 0.0391529 0)
(10.1355 0.0417623 0)
(10.0003 -0.000763634 0)
(10.0024 -0.00236477 0)
(10.0066 -0.00365553 0)
(10.0124 -0.00434491 0)
(10.0192 -0.00440083 0)
(10.0268 -0.00390724 0)
(10.0349 -0.00295799 0)
(10.0433 -0.00163833 0)
(10.0521 -3.56511e-05 0)
(10.0612 0.00176202 0)
(10.0704 0.00367291 0)
(10.0798 0.00562293 0)
(10.0893 0.00754275 0)
(10.099 0.009366 0)
(10.1089 0.0110269 0)
(10.119 0.0124603 0)
(10.1293 0.0135828 0)
(10.1398 0.0144395 0)
(10.0003 -0.00208068 0)
(10.0028 -0.00611691 0)
(10.0076 -0.00943747 0)
(10.0142 -0.0117451 0)
(10.0217 -0.0131251 0)
(10.0299 -0.0137606 0)
(10.0384 -0.0137916 0)
(10.0474 -0.013344 0)
(10.0566 -0.0125591 0)
(10.066 -0.0115736 0)
(10.0756 -0.0105009 0)
(10.0852 -0.0094329 0)
(10.0949 -0.00844903 0)
(10.1047 -0.00762076 0)
(10.1145 -0.0070136 0)
(10.1244 -0.00668753 0)
(10.1344 -0.00671031 0)
(10.1444 -0.0070654 0)
(10.0004 -0.00346298 0)
(10.0034 -0.00998579 0)
(10.0092 -0.0151976 0)
(10.0167 -0.0188723 0)
(10.025 -0.0213656 0)
(10.0338 -0.0229957 0)
(10.043 -0.0238814 0)
(10.0525 -0.0241215 0)
(10.062 -0.0238767 0)
(10.0717 -0.0233225 0)
(10.0813 -0.0226084 0)
(10.0909 -0.0218586 0)
(10.1005 -0.0211808 0)
(10.11 -0.0206687 0)
(10.1195 -0.0204022 0)
(10.129 -0.0204373 0)
(10.1383 -0.0208355 0)
(10.1476 -0.0215708 0)
(10.0005 -0.00498078 0)
(10.0044 -0.0141283 0)
(10.0114 -0.0210969 0)
(10.02 -0.0258168 0)
(10.0292 -0.0290693 0)
(10.0386 -0.0314102 0)
(10.0484 -0.033031 0)
(10.0585 -0.0340656 0)
(10.0687 -0.0346789 0)
(10.0787 -0.0350154 0)
(10.0886 -0.0351875 0)
(10.0984 -0.0352961 0)
(10.1081 -0.0354388 0)
(10.1175 -0.0357043 0)
(10.1269 -0.0361682 0)
(10.136 -0.0368897 0)
(10.145 -0.0379243 0)
(10.154 -0.039288 0)
(10.0007 -0.00672229 0)
(10.0057 -0.0185792 0)
(10.0144 -0.0271402 0)
(10.0245 -0.0329111 0)
(10.0344 -0.0368964 0)
(10.0444 -0.0394416 0)
(10.0546 -0.0407349 0)
(10.0649 -0.0411596 0)
(10.0751 -0.0411038 0)
(10.0853 -0.0408132 0)
(10.0952 -0.0404361 0)
(10.105 -0.0400906 0)
(10.1146 -0.0398824 0)
(10.1239 -0.0398994 0)
(10.133 -0.0402112 0)
(10.1418 -0.0408693 0)
(10.1504 -0.0419173 0)
(10.1586 -0.0433324 0)
(10.0009 -0.00891861 0)
(10.0076 -0.0234232 0)
(10.0182 -0.0323918 0)
(10.0296 -0.0388854 0)
(10.0408 -0.0449258 0)
(10.0519 -0.0500677 0)
(10.0632 -0.0537649 0)
(10.0742 -0.056197 0)
(10.0849 -0.0577507 0)
(10.0952 -0.0586977 0)
(10.1052 -0.0592292 0)
(10.1149 -0.0595205 0)
(10.1243 -0.0597328 0)
(10.1333 -0.0600015 0)
(10.142 -0.0604365 0)
(10.1503 -0.0611216 0)
(10.1584 -0.0621188 0)
(10.1664 -0.0634649 0)
(10.0015 -0.0117137 0)
(10.0111 -0.0304643 0)
(10.0239 -0.0381253 0)
(10.0353 -0.0402187 0)
(10.0459 -0.0416609 0)
(10.057 -0.043084 0)
(10.0687 -0.0441779 0)
(10.0802 -0.0450133 0)
(10.0913 -0.0457207 0)
(10.1019 -0.0463377 0)
(10.1123 -0.046896 0)
(10.1222 -0.0474602 0)
(10.1317 -0.0481097 0)
(10.1408 -0.0489216 0)
(10.1495 -0.0499711 0)
(10.1578 -0.0513161 0)
(10.1657 -0.0530188 0)
(10.1732 -0.0550096 0)
(10.0021 -0.0131027 0)
(10.0158 -0.0398604 0)
(10.0338 -0.0595597 0)
(10.0478 -0.0731192 0)
(10.0591 -0.0817612 0)
(10.0707 -0.086312 0)
(10.0829 -0.0881655 0)
(10.0952 -0.0885306 0)
(10.1075 -0.0880502 0)
(10.1197 -0.0870571 0)
(10.1319 -0.0857974 0)
(10.144 -0.0844751 0)
(10.1559 -0.0832495 0)
(10.1676 -0.0822461 0)
(10.179 -0.0815748 0)
(10.1901 -0.0813276 0)
(10.2011 -0.0815811 0)
(10.2118 -0.0822613 0)
(10.0013 -0.0120998 0)
(10.0175 -0.00619096 0)
(10.0434 0.000864372 0)
(10.0706 -0.00369047 0)
(10.0994 -0.0129023 0)
(10.1304 -0.021462 0)
(10.1624 -0.0286883 0)
(10.1943 -0.0349152 0)
(10.2254 -0.0402273 0)
(10.2556 -0.0446692 0)
(10.2845 -0.0483808 0)
(10.312 -0.0515422 0)
(10.3379 -0.0543264 0)
(10.3622 -0.0569018 0)
(10.3849 -0.0594322 0)
(10.406 -0.0621255 0)
(10.4259 -0.0651263 0)
(10.4444 -0.0688307 0)
(10.0471 -0.0924177 0)
(10.1696 -0.155789 0)
(10.2727 -0.160403 0)
(10.3545 -0.157 0)
(10.4207 -0.153145 0)
(10.4715 -0.148112 0)
(10.5065 -0.142644 0)
(10.5271 -0.137434 0)
(10.5358 -0.132596 0)
(10.5347 -0.128094 0)
(10.5257 -0.123934 0)
(10.5105 -0.120147 0)
(10.4902 -0.116767 0)
(10.4659 -0.113837 0)
(10.4384 -0.111412 0)
(10.4083 -0.109627 0)
(10.3758 -0.108557 0)
(10.3421 -0.10885 0)
(9.88573 0.0905881 0)
(9.64197 0.0651634 0)
(9.35611 0.0290059 0)
(9.04754 0.0014123 0)
(8.74126 -0.0171978 0)
(8.44811 -0.0284095 0)
(8.17099 -0.0346825 0)
(7.9111 -0.037907 0)
(7.66907 -0.0391949 0)
(7.44464 -0.0392345 0)
(7.23691 -0.0385048 0)
(7.04461 -0.0373445 0)
(6.86639 -0.0359909 0)
(6.70087 -0.0346168 0)
(6.54656 -0.0333595 0)
(6.40202 -0.0323533 0)
(6.26539 -0.031745 0)
(6.13609 -0.0320034 0)
(0.0963225 -0.203867 -1.70698e-20)
(0.364801 -0.411174 1.61007e-20)
(0.680951 -0.44455 0)
(0.989635 -0.416166 0)
(1.27019 -0.374418 0)
(1.52422 -0.332905 -1.55223e-20)
(1.75561 -0.293373 0)
(1.96389 -0.254396 0)
(2.14578 -0.214102 0)
(2.29706 -0.170969 0)
(2.41387 -0.123748 1.79546e-20)
(2.49093 -0.0729928 0)
(2.53057 -0.0188842 0)
(2.52278 0.0378768 0)
(2.46356 0.0929645 0)
(2.36269 0.137424 2.02242e-20)
(2.23649 0.159623 0)
(2.10218 0.151334 0)
(1.97338 0.112895 0)
(1.85525 0.0531672 0)
(1.7409 -0.0134977 0)
(1.61295 -0.0680277 0)
(1.45016 -0.0897282 0)
(1.23258 -0.0635735 2.3381e-20)
(0.943186 0.0135129 -2.45365e-20)
(0.568506 0.129932 2.61378e-20)
(0.102963 0.264401 2.67324e-20)
(-0.444907 0.391945 0)
(-1.05645 0.502663 0)
(-1.71567 0.591362 -2.2955e-20)
(-2.40514 0.655206 -2.23685e-20)
(-3.10753 0.693545 0)
(-3.8066 0.707458 0)
(-4.48784 0.699216 -2.25617e-20)
(-5.13867 0.671752 0)
(-5.74861 0.628302 0)
(-6.30919 0.572156 2.41173e-20)
(-6.81367 0.506484 0)
(-7.25686 0.434298 2.51165e-20)
(-7.63479 0.358473 5.09655e-20)
(-7.94466 0.281616 0)
(-8.18519 0.206252 0)
(-8.35608 0.135528 0)
(-8.45744 0.0727571 0)
(-8.49177 0.0196498 0)
(-8.46546 -0.0238715 4.86572e-20)
(-8.39222 -0.0601272 4.68149e-20)
(-8.27395 -0.0919197 4.45814e-20)
(-8.11474 -0.120414 0)
(-7.91802 -0.146068 -3.90255e-20)
(-7.68695 -0.169099 0)
(-7.42455 -0.189631 3.2213e-20)
(-7.13379 -0.207758 2.84134e-20)
(-6.8176 -0.223562 0)
(-6.47885 -0.237101 0)
(-6.12044 -0.248402 0)
(-5.7453 -0.25746 1.12983e-20)
(-5.35653 -0.264242 0)
(-4.95734 -0.268712 0)
(-4.55108 -0.270853 0)
(-4.14121 -0.270696 0)
(-3.73115 -0.268332 0)
(-3.32421 -0.263918 0)
(-2.92342 -0.257669 0)
(-2.53152 -0.249842 0)
(-2.15077 -0.240736 2.94517e-20)
(-1.78296 -0.230675 0)
(-1.42948 -0.219939 0)
(-1.09136 -0.208672 -4.05612e-20)
(-0.769211 -0.196977 -4.38095e-20)
(-0.463154 -0.185112 0)
(-0.172736 -0.173035 4.92935e-20)
(0.102459 -0.160958 -4.99141e-20)
(0.362594 -0.149209 0)
(0.607853 -0.138048 4.82068e-20)
(0.838626 -0.127521 0)
(1.05553 -0.117631 0)
(1.25922 -0.108366 -4.54075e-20)
(1.45038 -0.0997027 0)
(1.62968 -0.0916107 4.3554e-20)
(1.79778 -0.0840564 0)
(1.95532 -0.0770045 -4.17834e-20)
(2.10289 -0.0704191 -4.09392e-20)
(2.24108 -0.0642649 -4.01254e-20)
(2.37042 -0.0585081 -7.86865e-20)
(2.4914 -0.0531165 7.71864e-20)
(2.60449 -0.0480605 0)
(2.71011 -0.0433131 0)
(2.80864 -0.0388502 0)
(2.90046 -0.0346504 7.18211e-20)
(2.98587 -0.0306954 7.06321e-20)
(3.06519 -0.0269691 -6.95002e-20)
(3.13868 -0.0234585 0)
(3.20661 -0.0201528 6.73993e-20)
(3.2692 -0.0170436 6.64259e-20)
(3.32668 -0.0141242 6.55007e-20)
(3.37926 -0.0113899 0)
(3.42715 -0.00883728 0)
(3.47054 -0.00646393 0)
(3.50964 -0.00426837 6.22373e-20)
(3.54465 -0.0022496 0)
(3.57575 -0.000406771 0)
(3.60315 0.0012612 -6.01867e-20)
(3.62706 0.00275583 0)
(3.64768 0.00408014 0)
(3.66521 0.00523764 -5.84142e-20)
(3.67987 0.00623456 0)
(3.69187 0.00709068 0)
(3.70134 0.00779894 5.68708e-20)
(3.7086 0.00846886 5.64008e-20)
(3.71338 0.00932995 0)
(3.71539 0.010311 -5.55091e-20)
(3.71502 0.0111783 0)
(3.71263 0.0118004 5.46851e-20)
(3.70861 0.0121609 0)
(3.70331 0.0122914 5.39236e-20)
(3.69703 0.0122383 5.35624e-20)
(3.69002 0.0120507 0)
(3.68245 0.0117744 0)
(3.67448 0.0114396 0)
(3.66624 0.0110297 0)
(3.65783 0.0105763 0)
(3.64932 0.0101006 0)
(3.64077 0.00960915 0)
(3.63227 0.00910076 5.10043e-20)
(3.62389 0.00857142 -5.07151e-20)
(3.61574 0.0080151 0)
(3.60788 0.00743427 0)
(3.60039 0.00684059 0)
(3.59331 0.00625047 0)
(3.58666 0.0056827 -9.86703e-20)
(3.58044 0.00515554 0)
(3.57462 0.00468279 9.76158e-20)
(3.56916 0.00427094 -9.70975e-20)
(3.56401 0.0039189 0)
(3.55912 0.00361978 0)
(3.55445 0.00336355 0)
(3.54998 0.00313987 9.50781e-20)
(3.54569 0.00293998 9.45859e-20)
(3.54155 0.00275764 0)
(3.53756 0.00258905 9.36156e-20)
(3.5337 0.00243226 9.31371e-20)
(3.52997 0.00228645 -9.26629e-20)
(3.52635 0.00215135 0)
(3.52284 0.00202684 0)
(3.51941 0.00191281 -9.12643e-20)
(3.51607 0.0018091 0)
(3.51279 0.0017155 0)
(3.50957 0.00163175 0)
(3.5064 0.00155758 0)
(3.50326 0.00149275 8.90079e-20)
(3.50014 0.00143706 8.85673e-20)
(3.49704 0.00139042 0)
(3.49393 0.00135288 8.76967e-20)
(3.4908 0.00132468 0)
(3.48765 0.00130632 0)
(3.48443 0.00129858 8.64188e-20)
(3.48114 0.00130267 0)
(3.47775 0.00132024 8.55872e-20)
(3.47421 0.00135354 0)
(3.47048 0.00140559 0)
(3.46651 0.00148037 8.43771e-20)
(3.46224 0.00158314 0)
(3.45757 0.00172085 8.36025e-20)
(3.45239 0.00190276 0)
(3.44655 0.00214121 0)
(3.43987 0.00245288 0)
(3.43208 0.00286051 -8.2177e-20)
(3.42287 0.00339549 0)
(3.41178 0.00410192 8.15678e-20)
(3.39819 0.00504273 0)
(3.38124 0.00631003 0)
(3.35975 0.00804051 0)
(3.33193 0.0104447 0)
(3.29537 0.0138533 0)
(3.24566 0.0187552 0)
(3.17893 0.0262448 0)
(3.07755 0.036365 -1.63342e-19)
(2.96078 0.0577601 0)
(2.66023 0.0662511 0)
(0.131105 -0.762164 4.93137e-20)
(0.352313 -1.03042 -4.67835e-20)
(0.547883 -0.966553 0)
(0.729581 -0.873853 3.11146e-20)
(0.903916 -0.798073 0)
(1.07123 -0.732483 1.59449e-20)
(1.2286 -0.666898 -3.36162e-20)
(1.37177 -0.594794 -3.49713e-20)
(1.49689 -0.512714 0)
(1.60017 -0.419662 -3.81421e-20)
(1.67806 -0.31622 -1.95223e-20)
(1.73091 -0.203746 0)
(1.74669 -0.0834725 0)
(1.7352 0.0360042 0)
(1.69557 0.143434 0)
(1.61422 0.225677 -2.21249e-20)
(1.48318 0.276963 0)
(1.29517 0.306054 4.68015e-20)
(1.03638 0.336089 0)
(0.692984 0.394309 0)
(0.255521 0.499538 -5.12089e-20)
(-0.272893 0.652823 0)
(-0.874337 0.836939 4.3983e-20)
(-1.53133 1.03505 -1.98146e-20)
(-2.22394 1.23063 1.82576e-20)
(-2.93229 1.40775 -1.69825e-20)
(-3.63809 1.55311 -1.59915e-20)
(-4.3256 1.65788 0)
(-4.98157 1.71859 0)
(-5.59496 1.73562 1.48744e-20)
(-6.15699 1.7122 -1.84524e-20)
(-6.6617 1.65366 0)
(-7.1061 1.56642 0)
(-7.48985 1.45717 1.72331e-20)
(-7.81486 1.33221 0)
(-8.08461 1.19696 0)
(-8.30357 1.05577 -2.04359e-20)
(-8.47663 0.911908 0)
(-8.60873 0.767692 2.56653e-20)
(-8.70453 0.62477 -4.65746e-20)
(-8.76811 0.484306 0)
(-8.8027 0.347252 0)
(-8.81137 0.215124 -1.03695e-19)
(-8.79674 0.0903282 -1.03201e-19)
(-8.75778 -0.0250574 -1.01122e-19)
(-8.69048 -0.130651 5.08824e-20)
(-8.58393 -0.226858 -4.51173e-20)
(-8.43946 -0.314799 -1.31989e-19)
(-8.25768 -0.394935 8.36997e-20)
(-8.04052 -0.467447 3.73994e-20)
(-7.79053 -0.532479 0)
(-7.51051 -0.590207 -3.07482e-20)
(-7.20331 -0.640855 2.94942e-20)
(-6.87174 -0.684655 0)
(-6.51856 -0.721795 0)
(-6.14654 -0.752378 0)
(-5.75851 -0.776398 -1.06801e-20)
(-5.35745 -0.79376 0)
(-4.94655 -0.804338 5.63442e-21)
(-4.52918 -0.808063 0)
(-4.10888 -0.805009 -1.22686e-20)
(-3.68919 -0.795456 0)
(-3.27352 -0.77992 2.97672e-20)
(-2.865 -0.759131 0)
(-2.46635 -0.733975 -4.6351e-20)
(-2.07979 -0.705412 2.65431e-20)
(-1.70703 -0.674404 0)
(-1.3493 -0.641858 6.87049e-20)
(-1.00738 -0.608564 3.81336e-20)
(-0.681654 -0.57516 4.12411e-20)
(-0.372023 -0.542186 0)
(-0.0778583 -0.509681 4.53514e-20)
(0.200787 -0.477939 4.63708e-20)
(0.4643 -0.447245 0)
(0.71318 -0.417963 -4.52228e-20)
(0.948117 -0.390218 8.85927e-20)
(1.16984 -0.364056 0)
(1.37909 -0.339481 4.30673e-20)
(1.57658 -0.316462 0)
(1.76305 -0.294944 -1.24258e-19)
(1.93919 -0.274861 0)
(2.10566 -0.256133 1.1974e-19)
(2.2631 -0.238679 3.92626e-20)
(2.41209 -0.22241 -3.83014e-20)
(2.5532 -0.207242 -7.52285e-20)
(2.68692 -0.193089 7.38935e-20)
(2.81374 -0.179869 0)
(2.93409 -0.167503 0)
(3.04836 -0.155917 0)
(3.15692 -0.145043 -2.075e-19)
(3.2601 -0.134819 -6.81172e-20)
(3.35821 -0.125187 6.70216e-20)
(3.4515 -0.116096 0)
(3.54024 -0.107503 6.47691e-20)
(3.62464 -0.0993679 -6.39943e-20)
(3.70491 -0.0916591 -6.30673e-20)
(3.78122 -0.0843489 0)
(3.85374 -0.0774152 0)
(3.92261 -0.07084 0)
(3.98798 -0.0646094 -5.97306e-20)
(4.04997 -0.0587127 0)
(4.10869 -0.0531416 1.16432e-19)
(4.16425 -0.0478901 1.7264e-19)
(4.21675 -0.0429529 -1.13752e-19)
(4.2663 -0.038325 0)
(4.31299 -0.034001 -5.56089e-20)
(4.3569 -0.0299732 0)
(4.39813 -0.0262235 -1.09014e-19)
(4.43682 -0.0227408 5.39457e-20)
(4.47298 -0.0194549 5.34331e-20)
(4.50708 -0.0162477 0)
(4.53974 -0.0131984 1.57444e-19)
(4.57091 -0.0104692 -1.04007e-19)
(4.60046 -0.00812058 -5.15696e-20)
(4.62832 -0.00613045 0)
(4.65444 -0.00445676 -5.07059e-20)
(4.67881 -0.0030557 -1.50867e-19)
(4.70147 -0.00188482 0)
(4.72249 -0.000910993 -9.90273e-20)
(4.74189 -0.000102746 -9.82965e-20)
(4.75969 0.000619404 -9.75812e-20)
(4.776 0.00123903 0)
(4.79092 0.00174451 0)
(4.80453 0.00214143 0)
(4.81692 0.00243012 4.74692e-20)
(4.82816 0.00261792 4.71728e-20)
(4.83834 0.00271186 0)
(4.84752 0.00271925 9.31775e-20)
(4.85577 0.00265601 9.26212e-20)
(4.86315 0.00254311 0)
(4.86974 0.00240022 9.15542e-20)
(4.87561 0.00224493 1.82074e-19)
(4.88085 0.00209143 -9.05352e-20)
(4.88553 0.00194854 -9.00386e-20)
(4.88972 0.00181986 0)
(4.89349 0.00170517 0)
(4.89689 0.00160221 0)
(4.89996 0.00150828 -8.81579e-20)
(4.90274 0.00142141 8.77033e-20)
(4.90526 0.0013407 1.74518e-19)
(4.90754 0.00126618 -8.68207e-20)
(4.9096 0.00119834 8.63852e-20)
(4.91145 0.00113771 8.5959e-20)
(4.91311 0.00108447 0)
(4.91458 0.00103847 0)
(4.91588 0.000999227 -8.47036e-20)
(4.917 0.000966161 0)
(4.91795 0.000938734 0)
(4.91874 0.000916585 1.66983e-19)
(4.91937 0.000899601 0)
(4.91985 0.000887944 8.27023e-20)
(4.92019 0.000882048 -8.23152e-20)
(4.92038 0.000882616 0)
(4.92045 0.000890631 8.15478e-20)
(4.92038 0.000907387 0)
(4.92018 0.000934556 0)
(4.91986 0.000974274 -8.0428e-20)
(4.91942 0.00102927 1.6012e-19)
(4.91884 0.00110303 -7.96989e-20)
(4.91813 0.00120003 0)
(4.91728 0.00132603 0)
(4.91627 0.00148846 7.86313e-20)
(4.91508 0.00169699 0)
(4.91369 0.00196423 7.79461e-20)
(4.91205 0.00230674 0)
(4.91013 0.0027465 0)
(4.90786 0.00331293 0)
(4.90514 0.00404592 7.66815e-20)
(4.90187 0.00500031 0)
(4.89789 0.00625276 -7.61195e-20)
(4.89298 0.00791261 0)
(4.88686 0.0101382 0)
(4.87913 0.0131681 1.50829e-19)
(4.86917 0.0173547 -1.50506e-19)
(4.85628 0.0233 0)
(4.83863 0.0317549 0)
(4.81612 0.0448857 0)
(4.77877 0.0624706 4.51916e-19)
(4.74267 0.0993531 0)
(4.62577 0.125439 -3.0314e-19)
(0.0708102 -1.19022 -1.0357e-21)
(0.147644 -1.27174 6.2508e-20)
(0.190877 -1.17234 0)
(0.239105 -1.1024 -6.48934e-20)
(0.287819 -1.03591 0)
(0.331263 -0.961473 0)
(0.364441 -0.874742 1.20267e-21)
(0.383088 -0.772543 4.049e-20)
(0.384041 -0.653307 4.19984e-20)
(0.363474 -0.517357 4.63642e-20)
(0.318351 -0.363127 0)
(0.236763 -0.188692 0)
(0.118517 -0.00137134 -5.33969e-20)
(-0.036406 0.19576 -1.04548e-19)
(-0.233883 0.395888 1.00725e-19)
(-0.481536 0.594218 0)
(-0.787938 0.79073 9.04763e-20)
(-1.15991 0.990736 -4.23618e-20)
(-1.59805 1.19971 0)
(-2.09421 1.41869 7.39801e-20)
(-2.63324 1.6429 3.38753e-20)
(-3.19633 1.86275 -6.56989e-20)
(-3.76412 2.06713 -3.00309e-20)
(-4.31839 2.24602 0)
(-4.84264 2.39037 6.00426e-20)
(-5.32387 2.4925 5.99552e-20)
(-5.75393 2.54705 0)
(-6.13004 2.5518 6.21979e-20)
(-6.45409 2.50843 0)
(-6.73178 2.42213 6.72938e-20)
(-6.97141 2.30045 3.08291e-20)
(-7.1826 2.15204 0)
(-7.37485 1.98543 0)
(-7.5563 1.8081 0)
(-7.73273 1.62591 0)
(-7.90707 1.44286 0)
(-8.07923 1.2613 0)
(-8.24644 1.08228 9.94694e-20)
(-8.40385 0.905989 -1.5028e-19)
(-8.54521 0.732187 0)
(-8.6638 0.560608 0)
(-8.75295 0.391057 0)
(-8.80621 0.22331 -6.59979e-21)
(-8.81853 0.0574242 1.01704e-19)
(-8.78793 -0.105636 2.04499e-19)
(-8.7138 -0.2644 -1.97422e-19)
(-8.59726 -0.415972 -9.7256e-20)
(-8.44051 -0.557719 8.6904e-20)
(-8.2459 -0.688173 4.85935e-21)
(-8.01611 -0.806604 8.00686e-20)
(-7.75404 -0.912789 0)
(-7.46267 -1.00687 6.60636e-20)
(-7.14489 -1.08922 3.70901e-21)
(-6.80345 -1.16027 0)
(-6.44095 -1.22042 0)
(-6.05994 -1.26987 -3.41109e-20)
(-5.66303 -1.30856 0)
(-5.25306 -1.33628 0)
(-4.83324 -1.35266 1.07571e-20)
(-4.40711 -1.35748 -1.45447e-21)
(-3.97851 -1.35075 1.17805e-20)
(-3.5514 -1.33291 0)
(-3.12956 -1.30486 -2.85636e-20)
(-2.71644 -1.26787 0)
(-2.31493 -1.22355 -4.1357e-20)
(-1.92732 -1.1736 -5.19843e-20)
(-1.55525 -1.11973 1.15671e-19)
(-1.19978 -1.06352 6.35025e-20)
(-0.861502 -1.00637 0)
(-0.540597 -0.949448 -1.5465e-19)
(-0.236522 -0.893768 0)
(0.0511278 -0.83969 -2.585e-19)
(0.322499 -0.78739 -1.71394e-19)
(0.578489 -0.737315 -1.70433e-19)
(0.819684 -0.689702 1.69026e-19)
(1.04693 -0.64468 -2.51567e-19)
(1.26109 -0.602304 0)
(1.46298 -0.562563 0)
(1.65344 -0.525398 1.60759e-19)
(1.83324 -0.490716 2.3799e-19)
(2.00315 -0.458396 0)
(2.16387 -0.428304 -7.71034e-20)
(2.31606 -0.400296 0)
(2.46034 -0.374225 2.23065e-19)
(2.59727 -0.349946 6.27132e-22)
(2.72735 -0.327316 -5.79628e-22)
(2.85105 -0.306202 -1.41382e-19)
(2.96876 -0.286477 0)
(3.08088 -0.268024 1.36943e-19)
(3.18771 -0.250733 4.21362e-22)
(3.28955 -0.234506 0)
(3.38668 -0.219252 0)
(3.47932 -0.20489 0)
(3.56771 -0.191347 -1.27364e-19)
(3.65205 -0.178559 0)
(3.73251 -0.166468 0)
(3.80928 -0.155025 0)
(3.88252 -0.144188 0)
(3.95237 -0.13392 0)
(4.01896 -0.12419 -1.17421e-19)
(4.08244 -0.114973 0)
(4.14291 -0.106247 -1.14835e-19)
(4.20049 -0.0979935 -1.13531e-19)
(4.25527 -0.0901973 1.12276e-19)
(4.30736 -0.0828439 0)
(4.35684 -0.0759194 1.09908e-19)
(4.40379 -0.0694086 0)
(4.44831 -0.063298 1.07715e-19)
(4.49048 -0.0575607 -1.0668e-19)
(4.53039 -0.0521977 -3.16886e-19)
(4.5681 -0.0472687 0)
(4.60367 -0.0427746 -3.11235e-19)
(4.63723 -0.0386667 -1.02776e-19)
(4.66886 -0.0348982 0)
(4.69864 -0.0314376 -2.02278e-19)
(4.72661 -0.0282642 -2.00666e-19)
(4.75284 -0.0253611 2.98699e-19)
(4.7774 -0.0227123 0)
(4.80034 -0.0203037 9.80998e-20)
(4.82178 -0.0181153 9.73895e-20)
(4.84185 -0.0160828 2.90023e-19)
(4.86063 -0.0142296 0)
(4.87819 -0.0125669 0)
(4.8946 -0.0110839 0)
(4.90991 -0.00976416 9.40693e-20)
(4.92419 -0.00860452 0)
(4.93745 -0.00759373 0)
(4.94976 -0.00671415 -9.23222e-20)
(4.96115 -0.00595631 -9.17599e-20)
(4.97169 -0.00530388 0)
(4.98141 -0.00474052 0)
(4.99037 -0.00425165 -1.80317e-19)
(4.99862 -0.00382397 0)
(5.00623 -0.00344703 1.78305e-19)
(5.01323 -0.00311325 1.77321e-19)
(5.01969 -0.00281737 0)
(5.02564 -0.00255572 0)
(5.03114 -0.00232531 -1.74509e-19)
(5.03623 -0.002123 -6.44734e-24)
(5.04093 -0.0019451 -5.80096e-24)
(5.04528 -0.0017873 0)
(5.04931 -0.00164495 -3.41944e-19)
(5.05305 -0.00151349 0)
(5.05652 -0.00138897 0)
(5.05974 -0.00126832 0)
(5.06271 -0.0011495 1.67621e-19)
(5.06547 -0.00103147 0)
(5.06801 -0.000913917 -3.32002e-19)
(5.07034 -0.000796954 -1.65208e-19)
(5.07247 -0.000680833 0)
(5.07441 -0.000565667 -1.63641e-19)
(5.07617 -0.000451253 0)
(5.07774 -0.000336948 0)
(5.07915 -0.000221603 -4.84045e-19)
(5.0804 -0.000103517 3.21197e-19)
(5.08148 1.96063e-05 0)
(5.08242 0.000150737 3.18245e-19)
(5.0832 0.000293633 -1.58399e-19)
(5.08384 0.000453014 0)
(5.08432 0.000634809 0)
(5.08465 0.000846492 0)
(5.08482 0.00109757 -4.66706e-19)
(5.08481 0.00140019 0)
(5.0846 0.00177008 -1.54218e-19)
(5.08418 0.00222769 0)
(5.0835 0.00279992 0)
(5.08251 0.00352253 0)
(5.08116 0.00444363 0)
(5.07935 0.0056289 0)
(5.07698 0.00716932 0)
(5.07391 0.00919376 -2.99955e-19)
(5.06995 0.0118864 0)
(5.06487 0.0155246 -1.49146e-19)
(5.05834 0.020506 4.46166e-19)
(5.05008 0.0275269 0)
(5.03932 0.037406 0)
(5.02668 0.0525593 -2.96057e-19)
(5.00894 0.0732462 -2.96969e-19)
(4.99413 0.11309 2.95749e-19)
(4.96885 0.153909 2.97597e-19)
(-0.0230607 -1.21054 -8.78996e-20)
(-0.0941833 -1.18063 -8.67438e-20)
(-0.181351 -1.10188 -5.58562e-20)
(-0.272707 -1.0218 -2.54188e-20)
(-0.372461 -0.934322 0)
(-0.483681 -0.832989 6.03529e-20)
(-0.608697 -0.712966 -2.82084e-20)
(-0.750142 -0.570113 0)
(-0.912943 -0.402098 -3.76339e-20)
(-1.09736 -0.207675 0)
(-1.29898 0.00874969 7.18279e-20)
(-1.52236 0.243882 0)
(-1.76912 0.494083 3.87274e-20)
(-2.04103 0.757429 7.54265e-20)
(-2.3385 1.02916 -7.28332e-20)
(-2.66201 1.3042 0)
(-3.01039 1.57735 -6.66461e-20)
(-3.37933 1.84348 0)
(-3.76079 2.09701 0)
(-4.14367 2.33158 -5.82228e-20)
(-4.51566 2.54019 0)
(-4.86541 2.71598 -1.7115e-21)
(-5.18397 2.85322 0)
(-5.46572 2.94809 0)
(-5.7089 2.99898 4.34543e-21)
(-5.91588 3.00658 -5.61277e-20)
(-6.09301 2.97389 -6.38321e-20)
(-6.24975 2.90607 -6.04515e-20)
(-6.39723 2.80985 0)
(-6.54655 2.69249 -1.40868e-19)
(-6.707 2.56055 0)
(-6.8847 2.41892 -8.23387e-20)
(-7.08191 2.27035 0)
(-7.29693 2.11545 0)
(-7.52471 1.95326 9.52313e-20)
(-7.75776 1.78196 0)
(-7.9872 1.59968 -1.03388e-19)
(-8.20376 1.40509 9.34846e-21)
(-8.3986 1.19789 2.11289e-19)
(-8.56392 0.978957 -2.26417e-19)
(-8.6934 0.750352 0)
(-8.78233 0.515186 0)
(-8.8276 0.277202 -1.26942e-19)
(-8.8277 0.0402063 0)
(-8.78261 -0.192072 -1.046e-19)
(-8.69376 -0.415529 1.00808e-19)
(-8.5628 -0.627133 9.62881e-20)
(-8.39225 -0.824279 0)
(-8.18504 -1.00516 -8.53107e-20)
(-7.94425 -1.1688 -7.89882e-20)
(-7.67297 -1.315 1.55787e-19)
(-7.37409 -1.44412 -6.50194e-20)
(-7.05019 -1.55693 -5.74994e-20)
(-6.70351 -1.65429 0)
(-6.33601 -1.73692 0)
(-5.9495 -1.80515 3.3412e-20)
(-5.54597 -1.85883 0)
(-5.12783 -1.89735 0)
(-4.69821 -1.9199 -1.58032e-20)
(-4.26098 -1.92574 1.42052e-21)
(-3.82067 -1.91467 0)
(-3.38209 -1.88721 0)
(-2.94991 -1.8447 0)
(-2.52827 -1.78919 0)
(-2.12053 -1.72322 8.39424e-20)
(-1.72914 -1.64945 -9.52702e-20)
(-1.35569 -1.5705 -1.13247e-19)
(-1.00107 -1.48871 -2.505e-19)
(-0.665583 -1.40613 0)
(-0.349149 -1.32432 2.74824e-21)
(-0.0508982 -1.24449 0)
(0.229581 -1.16723 1.62652e-19)
(0.493002 -1.09296 2.07607e-21)
(0.740272 -1.0223 1.62507e-19)
(0.97235 -0.955479 -1.61674e-19)