/*--------------------------------*- C++ -*----------------------------------*\
| =========                 |                                                 |
| \\      /  F ield         | OpenFOAM: The Open Source CFD Toolbox           |
|  \\    /   O peration     | Version:  2112                                  |
|   \\  /    A nd           | Website:  www.openfoam.com                      |
|    \\/     M anipulation  |                                                 |
\*---------------------------------------------------------------------------*/
FoamFile
{
    version     2.0;
    format      ascii;
    arch        "LSB;label=32;scalar=64";
    class       volScalarField;
    location    "0.21";
    object      k;
}
// * * * * * * * * * * * * * * * * * * * * * * * * * * * * * * * * * * * * * //

dimensions      [0 2 -2 0 0 0 0];

internalField   nonuniform List<scalar> 
1580
(
0.376143
0.377705
0.381525
0.384373
0.391754
0.396954
0.411108
0.420509
0.374978
0.374914
0.374861
0.374704
0.374631
0.374387
0.374286
0.374175
0.374961
0.374866
0.374735
0.374538
0.374265
0.373838
0.373273
0.372234
0.374959
0.374861
0.374725
0.374534
0.374267
0.373869
0.373325
0.372353
0.374959
0.37486
0.374723
0.374535
0.374276
0.373903
0.373389
0.37252
0.374959
0.37486
0.374724
0.374537
0.374279
0.373914
0.373399
0.372571
0.374959
0.374862
0.374727
0.37454
0.374279
0.3739
0.373347
0.372494
0.374961
0.37487
0.374741
0.374557
0.374285
0.373871
0.373254
0.372353
0.374987
0.374968
0.374937
0.374901
0.374843
0.374829
0.374926
0.375408
0.377195
0.382578
0.389665
0.399895
0.41335
0.432805
0.458261
0.494749
0.040282
0.100568
0.183321
0.271226
0.35601
0.436572
0.513192
0.585842
0.654308
0.718238
0.77735
0.831475
0.880625
0.931649
0.984817
1.03434
1.0802
1.12251
1.16242
1.19872
1.23004
1.25658
1.27805
1.2938
1.3035
1.30898
1.31167
1.30981
1.30273
1.29221
1.27782
1.26056
1.24063
1.21857
1.19471
1.16942
1.14305
1.11595
1.08841
1.06072
1.03311
1.00576
0.978993
0.953335
0.930393
0.913161
0.899427
0.886462
0.877607
0.84425
0.0483624
0.119937
0.20144
0.289928
0.39256
0.520659
0.673156
0.84288
1.02245
1.20543
1.38656
1.56149
1.727
1.9045
2.09577
2.2789
2.45059
2.60712
2.74346
2.86144
2.96787
3.06104
3.1406
3.20641
3.25848
3.2971
3.32245
3.3342
3.33666
3.32807
3.30856
3.28004
3.24369
3.20068
3.15207
3.09877
3.04177
2.98194
2.92008
2.8569
2.793
2.72878
2.6648
2.60155
2.5397
2.47993
2.42256
2.36867
2.32081
2.25662
0.052259
0.129243
0.210809
0.311377
0.442451
0.609666
0.804969
1.01809
1.24086
1.46755
1.69284
1.91148
2.11906
2.34199
2.58195
2.81221
3.02928
3.23056
3.41384
3.57803
3.72361
3.84975
3.95612
4.04277
4.10993
4.15835
4.18863
4.20184
4.20137
4.18613
4.15675
4.1159
4.06521
4.00621
3.94031
3.86851
3.79224
3.71264
3.63067
3.54716
3.46276
3.3779
3.29333
3.20957
3.12714
3.04672
2.96884
2.8945
2.82572
2.75203
0.0518717
0.128424
0.208859
0.309144
0.441165
0.611781
0.816333
1.04489
1.28891
1.54254
1.79915
2.05085
2.29137
2.55074
2.83058
3.09961
3.35329
3.58884
3.8038
3.99621
4.16493
4.309
4.42831
4.52344
4.59501
4.64406
4.67199
4.68061
4.67354
4.64943
4.60927
4.55692
4.49405
4.42248
4.34381
4.25919
4.17014
4.07784
3.98327
3.88729
3.79051
3.69339
3.59673
3.50102
3.40656
3.31425
3.22416
3.13798
3.05524
2.97438
0.0508692
0.126175
0.204583
0.302769
0.43206
0.599841
0.804594
1.04034
1.30124
1.57873
1.86201
2.13996
2.40508
2.69084
2.99897
3.29475
3.57282
3.82989
4.06303
4.26983
4.44903
4.59981
4.72222
4.81727
4.886
4.92992
4.95106
4.9521
4.93683
4.90223
4.85226
4.78999
4.71734
4.63624
4.54844
4.45508
4.35759
4.25714
4.15467
4.05106
3.94693
3.84278
3.73925
3.6368
3.53553
3.4366
3.33937
3.24644
3.1549
3.0693
0.0494217
0.122982
0.199069
0.293741
0.418264
0.582279
0.789202
1.03582
1.31459
1.61295
1.91796
2.21555
2.49791
2.80157
3.1283
3.44068
3.73323
4.00186
4.24345
4.45541
4.63685
4.7873
4.90695
4.9972
5.05953
5.09588
5.10878
5.10244
5.07788
5.03427
4.97624
4.90623
4.82638
4.73864
4.64479
4.54602
4.44354
4.33843
4.2316
4.12386
4.01583
3.90792
3.80066
3.69461
3.58975
3.48729
3.38593
3.28913
3.19219
3.10342
0.048114
0.120117
0.194458
0.285926
0.406577
0.569426
0.780896
1.03834
1.33377
1.64952
1.97124
2.2826
2.57624
2.89134
3.22987
3.55209
3.85257
4.12637
4.37055
4.58253
4.76189
4.90829
5.02226
5.1058
5.16072
5.1893
5.19468
5.1817
5.14898
5.09869
5.03465
4.95922
4.87456
4.78258
4.68508
4.58312
4.47788
4.37034
4.26135
4.15166
4.04184
3.93225
3.82328
3.71554
3.60885
3.50454
3.40092
3.30203
3.20207
3.11146
0.0473315
0.118011
0.191075
0.279906
0.398053
0.561669
0.778984
1.04722
1.35841
1.6891
2.02443
2.34641
2.649
2.97344
3.32124
3.65051
3.95537
4.23097
4.47467
4.68403
4.85921
5
5.1073
5.18356
5.23089
5.25184
5.2504
5.2303
5.18984
5.1334
5.06392
4.98414
4.89591
4.80101
4.70113
4.5973
4.49058
4.38189
4.27197
4.16151
4.051
3.94068
3.8309
3.72233
3.61459
3.50913
3.40393
3.30349
3.201
3.10859
0.0468812
0.116441
0.188489
0.275045
0.391723
0.557586
0.781576
1.06183
1.3879
1.73231
2.08024
2.41268
2.72459
3.05776
3.41265
3.74632
4.05267
4.32712
4.56748
4.7715
4.94002
5.07298
5.17163
5.23886
5.27674
5.28829
5.279
5.25027
5.20251
5.13984
5.06496
4.98035
4.88808
4.78995
4.68757
4.58196
4.47406
4.36463
4.25434
4.14374
4.03326
3.92303
3.8133
3.70461
3.59632
3.49006
3.38349
3.28148
3.1765
3.08146
0.0453208
0.11142
0.181145
0.262078
0.377517
0.553147
0.796849
1.10724
1.4664
1.83928
2.21221
2.56419
2.89045
3.23387
3.59295
3.92452
4.2234
4.48599
4.71137
4.89653
5.04404
5.15512
5.23496
5.28468
5.30616
5.30319
5.28164
5.2381
5.17873
5.10619
5.02321
4.93213
4.83494
4.73329
4.62858
4.52172
4.41343
4.30429
4.1948
4.08535
3.97626
3.86765
3.75951
3.6523
3.54513
3.43965
3.33326
3.23082
3.12478
3.0276
0.0428132
0.102065
0.167375
0.255994
0.394667
0.613786
0.929766
1.32335
1.75721
2.18069
2.57799
2.92902
3.24373
3.56663
3.89039
4.18095
4.43627
4.65188
4.82889
4.972
5.08256
5.15994
5.20753
5.22774
5.2239
5.20197
5.15934
5.10145
5.03109
4.95072
4.86283
4.76935
4.67196
4.57192
4.47021
4.36747
4.26417
4.16063
4.05715
3.95397
3.85122
3.74901
3.64711
3.54586
3.44423
3.34371
3.24148
3.14219
3.03872
2.94241
0.0401342
0.090628
0.173313
0.307821
0.555022
0.91809
1.36411
1.83825
2.29213
2.70418
3.06812
3.37435
3.64054
3.90175
4.15399
4.37395
4.55789
4.71188
4.83558
4.92847
4.99466
5.03225
5.04668
5.03999
5.01593
4.97392
4.91825
4.85141
4.77585
4.69361
4.6067
4.51651
4.42431
4.3309
4.23684
4.14245
4.04801
3.95366
3.85958
3.76584
3.67246
3.57947
3.48651
3.39382
3.30025
3.20715
3.11156
3.01772
2.91906
2.82577
0.0377375
0.0995176
0.277676
0.669092
1.21336
1.76972
2.2622
2.66322
3.00529
3.30203
3.56304
3.7879
3.97849
4.15426
4.31501
4.4531
4.56369
4.64968
4.71297
4.75361
4.77621
4.77566
4.76327
4.73374
4.69116
4.63783
4.57551
4.50623
4.43193
4.35392
4.27361
4.19173
4.10919
4.02635
3.94342
3.86049
3.77768
3.69506
3.61268
3.53055
3.44859
3.36674
3.28459
3.20225
3.11852
3.03454
2.94733
2.86065
2.7685
2.67986
0.0417706
0.226504
0.887142
1.82417
2.53506
2.96375
3.25702
3.47033
3.64217
3.79114
3.92301
4.03651
4.13411
4.22738
4.30952
4.37467
4.41598
4.44154
4.45231
4.44904
4.43669
4.40981
4.37481
4.33124
4.28
4.2232
4.16164
4.09669
4.02948
3.96058
3.89084
3.82044
3.75006
3.67987
3.60979
3.5397
3.46967
3.39974
3.32994
3.26024
3.19054
3.12071
3.05029
2.97923
2.90635
2.83249
2.75479
2.67639
2.59203
2.5092
0.121344
0.762144
2.30085
3.15748
3.53617
3.70176
3.77713
3.81379
3.8392
3.86903
3.90166
3.93287
3.96261
3.99242
4.01576
4.03296
4.0349
4.03023
4.0169
3.99451
3.96809
3.93484
3.89678
3.85463
3.80812
3.75884
3.7062
3.65199
3.59671
3.54038
3.4836
3.42619
3.36889
3.31189
3.25479
3.19734
3.13972
3.08204
3.02437
2.96677
2.90914
2.85125
2.79262
2.73303
2.67135
2.60805
2.54047
2.47105
2.39549
2.31953
0.473388
0.546037
0.719965
0.924415
1.11258
1.27921
1.4272
1.55602
1.66866
1.76704
1.85415
1.93296
2.00318
2.0771
2.15227
2.22243
2.28553
2.34166
2.39094
2.43304
2.46818
2.49717
2.51947
2.5369
2.54814
2.5562
2.55729
2.55606
2.55112
2.54225
2.53039
2.51509
2.49842
2.47837
2.45554
2.43077
2.40482
2.37809
2.35093
2.32376
2.29639
2.26828
2.23902
2.20793
2.17426
2.1374
2.09556
2.04964
1.99749
1.94134
0.377002
0.380532
0.388812
0.404466
0.426393
0.450843
0.476333
0.502536
0.528329
0.553944
0.578403
0.602337
0.62491
0.650131
0.677992
0.70774
0.738352
0.769908
0.801433
0.833073
0.864093
0.894505
0.923745
0.952283
0.979528
1.00612
1.03157
1.05619
1.08017
1.10353
1.12799
1.1524
1.17792
1.20284
1.22693
1.25
1.27233
1.29341
1.31361
1.33141
1.34751
1.36103
1.37283
1.38097
1.38718
1.38681
1.38308
1.37343
1.35585
1.32709
0.371796
0.371502
0.371976
0.373435
0.37623
0.379804
0.3835
0.387448
0.391281
0.395232
0.398881
0.40256
0.4059
0.409812
0.413923
0.418598
0.423792
0.429647
0.436014
0.442992
0.45051
0.458553
0.467051
0.475997
0.48538
0.495134
0.505377
0.51593
0.527071
0.5385
0.5507
0.563425
0.577114
0.591514
0.606794
0.622551
0.639111
0.655892
0.673369
0.690346
0.707299
0.723322
0.739059
0.752909
0.765863
0.775318
0.783248
0.785507
0.782957
0.768691
0.371496
0.370664
0.370193
0.369976
0.370024
0.37017
0.370406
0.370703
0.370955
0.371235
0.371475
0.371736
0.371933
0.372145
0.372309
0.372487
0.372703
0.37298
0.373364
0.373879
0.374561
0.375413
0.376471
0.377712
0.379188
0.380846
0.38276
0.38485
0.387215
0.389752
0.392581
0.395609
0.398977
0.402588
0.40661
0.41089
0.415633
0.420624
0.426102
0.431783
0.437837
0.443879
0.450124
0.455969
0.46167
0.466259
0.470131
0.471582
0.470698
0.463085
0.371591
0.37069
0.369988
0.369429
0.368961
0.368511
0.368051
0.367598
0.367128
0.366664
0.366198
0.365745
0.365292
0.364785
0.364183
0.363556
0.362915
0.362277
0.361659
0.361073
0.360536
0.360049
0.359625
0.359253
0.358949
0.358682
0.358475
0.358284
0.358137
0.357984
0.357854
0.357706
0.357578
0.357416
0.357288
0.357145
0.357055
0.356968
0.356964
0.35701
0.357103
0.357231
0.357366
0.357464
0.357506
0.357311
0.356876
0.355617
0.353914
0.348476
0.371605
0.370668
0.369847
0.369137
0.368484
0.367832
0.367149
0.366449
0.365733
0.365018
0.364307
0.363615
0.362939
0.362195
0.361346
0.360485
0.359609
0.35874
0.35787
0.357022
0.356181
0.355363
0.354548
0.353743
0.352927
0.352095
0.351228
0.350313
0.349338
0.348282
0.347141
0.345921
0.344611
0.34323
0.341747
0.340209
0.338556
0.336897
0.335097
0.333374
0.331476
0.329748
0.327803
0.32613
0.324192
0.322612
0.320774
0.319262
0.317846
0.316567
0.371454
0.370447
0.3695
0.368637
0.367821
0.367017
0.36619
0.365346
0.364487
0.363631
0.36278
0.361952
0.361143
0.360256
0.359239
0.358221
0.357168
0.356134
0.355066
0.354035
0.352964
0.351937
0.350853
0.349812
0.348689
0.347599
0.346401
0.345225
0.343918
0.342618
0.34118
0.339704
0.338074
0.336413
0.334603
0.33279
0.330826
0.328925
0.326836
0.324941
0.322777
0.321011
0.318879
0.317383
0.315428
0.314447
0.31301
0.313016
0.313431
0.316359
0.371232
0.370203
0.369215
0.368284
0.36738
0.366501
0.365608
0.364715
0.363808
0.362912
0.362017
0.361152
0.360299
0.359366
0.358281
0.357213
0.356074
0.354989
0.353815
0.352748
0.351579
0.350553
0.349407
0.348432
0.34731
0.346384
0.34528
0.344395
0.343307
0.342465
0.341405
0.340626
0.339643
0.338946
0.338095
0.337497
0.33685
0.336371
0.335955
0.335728
0.335545
0.335911
0.335972
0.336955
0.337552
0.339674
0.341373
0.345733
0.350015
0.364207
0.375655
0.376322
0.376994
0.377552
0.377954
0.378258
0.37844
0.378554
0.378584
0.378561
0.378511
0.378444
0.378365
0.378261
0.378139
0.378005
0.377862
0.377897
0.378089
0.37876
0.379435
0.380668
0.381816
0.383567
0.38514
0.387374
0.389302
0.391934
0.394171
0.397196
0.399709
0.403082
0.40577
0.409423
0.412214
0.416081
0.418884
0.422896
0.425643
0.429789
0.432502
0.436882
0.439716
0.444607
0.447907
0.453911
0.45875
0.46671
0.474022
0.495131
0.531853
0.563182
0.591526
0.616371
0.638995
0.658862
0.677129
0.693177
0.70804
0.721072
0.733232
0.743865
0.753858
0.763885
0.774906
0.784956
0.795007
0.803976
0.812375
0.819558
0.826115
0.831307
0.835828
0.838829
0.841146
0.841793
0.840966
0.83925
0.836777
0.833315
0.828719
0.822383
0.815121
0.806604
0.797325
0.786875
0.775883
0.763817
0.751472
0.738133
0.724795
0.710492
0.696452
0.681415
0.6668
0.651147
0.635672
0.619488
0.601899
0.585124
0.898109
0.935046
0.95926
0.972384
0.979274
0.980904
0.972868
0.979884
0.961643
0.992024
2.26393
2.25649
2.24021
2.18544
2.15507
2.06495
2.02499
1.91128
1.86831
1.72666
2.71295
2.66276
2.61626
2.53445
2.47999
2.35969
2.29951
2.15702
2.09656
1.91499
2.90646
2.82687
2.7543
2.6523
2.58217
2.44753
2.37825
2.22294
2.1553
1.95961
2.98341
2.88402
2.79487
2.68182
2.60312
2.46221
2.38893
2.2282
2.15794
1.95843
3.0069
2.89665
2.79848
2.67966
2.59477
2.45064
2.37532
2.21199
2.14147
1.94181
3.00929
2.89266
2.78855
2.66624
2.57706
2.43205
2.35542
2.19144
2.12151
1.923
3.00125
2.87863
2.76866
2.64308
2.54938
2.40458
2.3265
2.1633
2.09429
1.89802
2.96899
2.84049
2.72391
2.59519
2.49628
2.3538
2.27394
2.1157
2.04801
1.8569
2.91118
2.77849
2.6562
2.52576
2.42268
2.2845
2.20332
2.05378
1.98796
1.80504
2.82496
2.69054
2.5644
2.4343
2.32864
2.19666
2.11501
1.97666
1.91373
1.74261
2.70987
2.57678
2.44933
2.322
2.21553
2.09147
2.01022
1.88457
1.8255
1.66994
2.56822
2.43962
2.31358
2.19141
2.08576
1.971
1.89084
1.77873
1.72416
1.58666
2.40429
2.28301
2.16086
2.04587
1.94247
1.8379
1.7593
1.66109
1.61127
1.49274
2.22328
2.11156
1.99542
1.88913
1.78927
1.69536
1.61887
1.53444
1.48926
1.39005
1.86591
1.77523
1.67373
1.58559
1.49619
1.42308
1.35412
1.29419
1.25748
1.19332
1.29073
1.24262
1.17846
1.12433
1.0652
1.02676
0.983758
0.95884
0.936881
0.916417
0.764149
0.753498
0.732929
0.715841
0.693021
0.684408
0.670046
0.669706
0.667396
0.674489
0.466105
0.463837
0.460294
0.457077
0.453545
0.454145
0.453396
0.460413
0.465052
0.48516
0.349351
0.34804
0.346393
0.344865
0.343696
0.344357
0.344619
0.349554
0.353068
0.368818
0.316029
0.315085
0.313684
0.311867
0.31044
0.309779
0.309922
0.311982
0.314301
0.323986
0.31661
0.317221
0.317371
0.316929
0.31798
0.318109
0.320528
0.321713
0.324544
0.329705
0.364359
0.367817
0.375393
0.376775
0.380711
0.380845
0.383157
0.382509
0.384202
0.383504
0.497232
0.498703
0.497675
0.49145
0.489616
0.484209
0.484233
0.479819
0.480705
0.477943
0.556431
0.538197
0.523214
0.517867
0.51038
0.510326
0.511643
0.518036
0.52713
0.560235
)
;

boundaryField
{
    inlet
    {
        type            fixedValue;
        value           uniform 0.375;
    }
    outlet
    {
        type            zeroGradient;
    }
    upperWall
    {
        type            kqRWallFunction;
        value           nonuniform List<scalar> 
68
(
0.377195
0.382578
0.389665
0.399895
0.41335
0.432805
0.458261
0.494749
0.531853
0.563182
0.591526
0.616371
0.638995
0.658862
0.677129
0.693177
0.70804
0.721072
0.733232
0.743865
0.753858
0.763885
0.774906
0.784956
0.795007
0.803976
0.812375
0.819558
0.826115
0.831307
0.835828
0.838829
0.841146
0.841793
0.840966
0.83925
0.836777
0.833315
0.828719
0.822383
0.815121
0.806604
0.797325
0.786875
0.775883
0.763817
0.751472
0.738133
0.724795
0.710492
0.696452
0.681415
0.6668
0.651147
0.635672
0.619488
0.601899
0.585124
0.556431
0.538197
0.523214
0.517867
0.51038
0.510326
0.511643
0.518036
0.52713
0.560235
)
;
    }
    lowerWall
    {
        type            kqRWallFunction;
        value           nonuniform List<scalar> 
83
(
0.376143
0.377705
0.381525
0.384373
0.391754
0.396954
0.411108
0.420509
0.040282
0.0483624
0.052259
0.0518717
0.0508692
0.0494217
0.048114
0.0473315
0.0468812
0.0453208
0.0428132
0.0401342
0.0377375
0.0417706
0.121344
0.040282
0.100568
0.183321
0.271226
0.35601
0.436572
0.513192
0.585842
0.654308
0.718238
0.77735
0.831475
0.880625
0.931649
0.984817
1.03434
1.0802
1.12251
1.16242
1.19872
1.23004
1.25658
1.27805
1.2938
1.3035
1.30898
1.31167
1.30981
1.30273
1.29221
1.27782
1.26056
1.24063
1.21857
1.19471
1.16942
1.14305
1.11595
1.08841
1.06072
1.03311
1.00576
0.978993
0.953335
0.930393
0.913161
0.899427
0.886462
0.877607
0.84425
0.898109
0.935046
0.95926
0.972384
0.979274
0.980904
0.972868
0.979884
0.961643
0.992024
)
;
    }
    frontAndBack
    {
        type            empty;
    }
}


// ************************************************************************* //
