/*--------------------------------*- C++ -*----------------------------------*\
| =========                 |                                                 |
| \\      /  F ield         | OpenFOAM: The Open Source CFD Toolbox           |
|  \\    /   O peration     | Version:  2112                                  |
|   \\  /    A nd           | Website:  www.openfoam.com                      |
|    \\/     M anipulation  |                                                 |
\*---------------------------------------------------------------------------*/
FoamFile
{
    version     2.0;
    format      ascii;
    arch        "LSB;label=32;scalar=64";
    class       volScalarField;
    location    "0.19";
    object      nut;
}
// * * * * * * * * * * * * * * * * * * * * * * * * * * * * * * * * * * * * * //

dimensions      [0 2 -1 0 0 0 0];

internalField   nonuniform List<scalar> 
12225
(
3.10145e-05
3.71415e-05
4.08069e-05
4.28882e-05
4.39721e-05
4.44451e-05
4.4553e-05
4.44504e-05
4.42344e-05
4.39643e-05
4.36758e-05
4.33893e-05
4.31158e-05
4.28609e-05
4.26266e-05
4.24141e-05
4.22176e-05
4.20718e-05
0.000110845
6.22624e-05
4.67247e-05
3.94869e-05
3.56819e-05
3.36564e-05
3.26282e-05
3.21965e-05
3.21457e-05
3.23514e-05
3.27367e-05
3.32506e-05
3.38577e-05
3.45316e-05
3.52536e-05
3.60033e-05
3.67766e-05
3.75162e-05
0.000384335
0.000222693
0.000157328
0.000121715
9.94908e-05
8.4745e-05
7.448e-05
6.70326e-05
6.14448e-05
5.7144e-05
5.37695e-05
5.10837e-05
4.89242e-05
4.71757e-05
4.57555e-05
4.45952e-05
4.36471e-05
4.28584e-05
0.000657249
0.000480435
0.000371972
0.000302903
0.000255764
0.000222157
0.000197361
0.000178496
0.000163744
0.000151936
0.000142293
0.000134281
0.000127523
0.000121745
0.00011675
0.000112382
0.000108533
0.000105141
0.000788448
0.00068959
0.000598036
0.000523478
0.000464355
0.000417602
0.000380397
0.000350452
0.000326027
0.000305838
0.000288944
0.000274643
0.000262408
0.000251837
0.000242624
0.000234528
0.00022737
0.00022107
0.000833566
0.000793508
0.000743356
0.000692073
0.000644081
0.00060113
0.000563554
0.000530991
0.000502833
0.000478445
0.000457249
0.000438746
0.000422514
0.000408201
0.00039552
0.000384231
0.000374149
0.000365225
0.000846928
0.000833288
0.000812063
0.000785915
0.000757454
0.000728662
0.00070083
0.000674662
0.000650465
0.000628308
0.000608133
0.000589815
0.0005732
0.000558128
0.000544445
0.000532008
0.000520702
0.000510556
0.000850527
0.000846258
0.000838614
0.000827746
0.000814302
0.000799107
0.000782948
0.000766466
0.000750126
0.000734246
0.000719028
0.000704586
0.000690974
0.000678205
0.000666268
0.000655135
0.000644781
0.000635314
0.000851419
0.000850005
0.000847434
0.000843462
0.000838062
0.000831375
0.000823641
0.000815135
0.000806119
0.000796822
0.000787435
0.000778104
0.000768942
0.000760029
0.000751421
0.000743158
0.000735271
0.000727898
0.000851622
0.000850974
0.000850008
0.000848572
0.000846565
0.000843946
0.000840729
0.00083697
0.00083275
0.000828159
0.00082329
0.000818229
0.000813053
0.000807828
0.000802611
0.000797447
0.000792382
0.000787531
0.000851663
0.000851197
0.000850671
0.000850027
0.000849209
0.000848176
0.0008469
0.000845374
0.000843601
0.0008416
0.000839395
0.000837016
0.000834495
0.000831864
0.000829152
0.000826389
0.000823604
0.000820872
0.000851669
0.000851238
0.000850811
0.000850366
0.00084988
0.000849331
0.000848701
0.000847975
0.000847145
0.000846208
0.000845165
0.000844024
0.000842793
0.000841483
0.000840105
0.000838672
0.000837201
0.000835737
0.000851668
0.000851244
0.00085084
0.000850449
0.000850062
0.000849671
0.000849267
0.000848841
0.000848386
0.000847898
0.000847372
0.000846808
0.000846205
0.000845565
0.000844891
0.000844185
0.000843455
0.000842726
0.000851667
0.000851242
0.000850841
0.000850461
0.000850098
0.000849749
0.000849412
0.000849081
0.000848755
0.000848429
0.000848101
0.000847769
0.000847431
0.000847087
0.000846736
0.000846377
0.000846014
0.000845661
0.000851666
0.000851239
0.000850836
0.000850456
0.000850095
0.000849753
0.000849428
0.000849118
0.000848821
0.000848535
0.00084826
0.000847994
0.000847736
0.000847484
0.000847238
0.000846998
0.000846764
0.000846548
0.000851665
0.000851237
0.000850832
0.000850449
0.000850087
0.000849744
0.000849418
0.000849109
0.000848815
0.000848535
0.000848268
0.000848013
0.00084777
0.000847536
0.000847312
0.000847098
0.000846894
0.000846712
0.000851664
0.000851235
0.000850829
0.000850444
0.00085008
0.000849735
0.000849408
0.000849097
0.000848802
0.00084852
0.000848253
0.000847997
0.000847754
0.000847521
0.000847299
0.000847086
0.000846886
0.000846708
0.000851663
0.000851234
0.000850827
0.000850441
0.000850076
0.000849729
0.000849401
0.000849088
0.000848791
0.000848509
0.000848239
0.000847982
0.000847737
0.000847503
0.000847279
0.000847066
0.000846864
0.000846685
0.000851663
0.000851234
0.000850826
0.00085044
0.000850075
0.000849728
0.000849398
0.000849085
0.000848787
0.000848504
0.000848233
0.000847975
0.000847729
0.000847494
0.000847269
0.000847054
0.000846851
0.000846671
0.000851664
0.000851235
0.000850828
0.000850442
0.000850077
0.00084973
0.000849401
0.000849088
0.000848789
0.000848504
0.000848232
0.000847972
0.000847723
0.000847484
0.000847255
0.000847035
0.000846825
0.000846638
0.000851665
0.000851236
0.00085083
0.000850445
0.000850078
0.000849729
0.000849395
0.000849073
0.000848763
0.000848461
0.000848168
0.00084788
0.000847598
0.000847319
0.000847045
0.000846773
0.000846506
0.000846254
0.000851665
0.000851236
0.000850825
0.000850426
0.000850033
0.00084964
0.000849238
0.000848822
0.000848387
0.00084793
0.000847447
0.000846937
0.0008464
0.000845837
0.000845248
0.000844637
0.000844008
0.000843375
0.000851659
0.0008512
0.000850708
0.000850149
0.000849487
0.000848697
0.000847756
0.000846656
0.000845394
0.000843974
0.000842408
0.00084071
0.000838896
0.000836985
0.000834994
0.000832941
0.000830845
0.000828742
0.000851573
0.00085078
0.000849547
0.000847726
0.000845237
0.000842061
0.000838236
0.000833836
0.000828953
0.000823688
0.000818141
0.000812401
0.000806551
0.000800657
0.000794776
0.000788955
0.000783235
0.00077768
0.000850714
0.00084724
0.000841165
0.000832521
0.000821666
0.000809123
0.000795453
0.000781161
0.000766656
0.000752244
0.000738151
0.000724529
0.000711474
0.000699042
0.000687256
0.000676121
0.000665627
0.000655807
0.000843955
0.000824647
0.000797
0.000764899
0.000731217
0.000697944
0.000666304
0.000636903
0.000609954
0.000585449
0.000563265
0.000543223
0.000525125
0.000508771
0.000493972
0.000480555
0.000468365
0.000457307
0.000801688
0.000720652
0.000640555
0.000571286
0.000513027
0.000464668
0.000424652
0.000391416
0.000363625
0.000340213
0.00032034
0.000303342
0.000288695
0.000275981
0.000264867
0.000255088
0.000246426
0.00023872
0.000613263
0.000442205
0.000342085
0.000277665
0.000232465
0.000199737
0.000175374
0.000156762
0.000142207
0.000130601
0.000121194
0.000113459
0.000107018
0.000101594
9.69797e-05
9.30175e-05
8.95854e-05
8.65868e-05
0.000222462
0.000131615
9.59367e-05
7.69586e-05
6.52093e-05
5.76324e-05
5.2615e-05
4.92031e-05
4.68435e-05
4.52013e-05
4.40647e-05
4.32942e-05
4.27947e-05
4.24995e-05
4.23604e-05
4.23416e-05
4.24162e-05
4.25568e-05
3.55418e-05
4.0843e-05
4.46387e-05
4.73161e-05
4.94188e-05
5.10243e-05
5.22129e-05
5.306e-05
5.36339e-05
5.3994e-05
5.41897e-05
5.42613e-05
5.42408e-05
5.41535e-05
5.40188e-05
5.38518e-05
5.36633e-05
5.34624e-05
3.41465e-06
9.35471e-06
1.07984e-05
1.1881e-05
1.26917e-05
1.33074e-05
1.37879e-05
1.41905e-05
1.46106e-05
1.50343e-05
1.54587e-05
1.58891e-05
1.63284e-05
1.67801e-05
1.72487e-05
1.77488e-05
1.83257e-05
1.90303e-05
1.97933e-05
2.05867e-05
2.14011e-05
2.22342e-05
2.30858e-05
2.39557e-05
2.48435e-05
2.57486e-05
2.66699e-05
2.76062e-05
2.85562e-05
2.95181e-05
3.04906e-05
3.14718e-05
3.24603e-05
3.34546e-05
3.44532e-05
3.5455e-05
3.6459e-05
3.74643e-05
3.84703e-05
3.94768e-05
4.04839e-05
4.14919e-05
4.25019e-05
4.35153e-05
4.45344e-05
4.55624e-05
4.66039e-05
4.76648e-05
4.87413e-05
4.98189e-05
5.08966e-05
5.19745e-05
5.30523e-05
5.41299e-05
5.52073e-05
5.62842e-05
5.73603e-05
5.84355e-05
5.95095e-05
6.05821e-05
6.16528e-05
6.27214e-05
6.37876e-05
6.48509e-05
6.59109e-05
6.69673e-05
6.80196e-05
6.90673e-05
7.011e-05
7.11473e-05
7.21786e-05
7.32034e-05
7.42212e-05
7.52316e-05
7.6234e-05
7.72278e-05
7.82127e-05
7.9188e-05
8.01533e-05
8.11081e-05
8.20519e-05
8.29841e-05
8.39043e-05
8.48121e-05
8.5707e-05
8.65885e-05
8.74562e-05
8.83096e-05
8.91484e-05
8.99722e-05
9.07805e-05
9.15729e-05
9.2349e-05
9.31084e-05
9.38508e-05
9.45756e-05
9.52825e-05
9.59713e-05
9.66416e-05
9.72935e-05
9.79276e-05
9.85453e-05
9.91495e-05
9.9737e-05
0.000100302
0.000100844
0.000101365
0.000101863
0.000102339
0.000102791
0.000103221
0.000103626
0.000104008
0.000104365
0.000104697
0.000105004
0.000105286
0.000105543
0.000105774
0.000105979
0.000106157
0.00010631
0.000106436
0.000106536
0.00010661
0.000106657
0.000106677
0.000106671
0.000106639
0.000106581
0.000106496
0.000106385
0.000106249
0.000106087
0.000105899
0.000105686
0.000105449
0.000105187
0.000104901
0.000104591
0.000104257
0.000103901
0.000103522
0.000103122
0.0001027
0.000102256
0.000101793
0.00010131
0.000100807
0.000100286
9.97474e-05
9.91913e-05
9.86188e-05
9.80304e-05
9.7427e-05
9.68093e-05
9.61779e-05
9.55337e-05
9.48776e-05
9.42102e-05
9.35325e-05
9.28452e-05
9.21487e-05
9.14455e-05
9.07333e-05
9.0019e-05
8.93087e-05
8.87175e-05
8.83194e-05
8.79335e-05
8.75464e-05
8.71569e-05
8.67645e-05
8.6368e-05
8.59642e-05
8.55468e-05
8.51004e-05
8.45856e-05
8.39093e-05
8.25949e-05
4.99208e-06
2.03841e-05
4.09728e-05
5.83351e-05
7.13572e-05
8.09222e-05
8.80908e-05
9.37313e-05
9.75612e-05
0.00010055
0.000103355
0.00010626
0.000109309
0.000112433
0.000115532
0.000118506
0.000121288
0.000123893
0.000126427
0.000128966
0.000131556
0.000134228
0.000137006
0.000139912
0.000142965
0.00014618
0.000149571
0.00015315
0.000156927
0.00016091
0.000165106
0.000169517
0.000174147
0.000178995
0.000184059
0.000189335
0.000194818
0.000200499
0.00020637
0.000212419
0.000218634
0.000225001
0.000231504
0.000238128
0.000244858
0.000251679
0.000258578
0.000265552
0.00027261
0.000279765
0.000287023
0.000294384
0.00030185
0.000309421
0.000317097
0.000324879
0.000332766
0.000340759
0.000348857
0.000357059
0.000365366
0.000373776
0.000382289
0.000390903
0.000399616
0.000408427
0.000417334
0.000426334
0.000435424
0.000444601
0.000453861
0.0004632
0.000472615
0.0004821
0.00049165
0.000501262
0.000510928
0.000520644
0.000530403
0.0005402
0.000550029
0.000559883
0.000569757
0.000579644
0.000589537
0.000599432
0.000609322
0.000619201
0.000629065
0.000638907
0.000648723
0.000658508
0.000668257
0.000677967
0.000687631
0.000697245
0.000706803
0.000716295
0.000725708
0.000735018
0.000744187
0.000753156
0.000761682
0.000769683
0.000777522
0.000785237
0.000792826
0.000800286
0.00080761
0.000814793
0.000821829
0.000828711
0.000835435
0.000841994
0.000848383
0.000854597
0.000860631
0.00086648
0.00087214
0.000877604
0.00088287
0.000887934
0.000892791
0.000897438
0.000901871
0.000906088
0.000910087
0.000913864
0.000917417
0.000920744
0.000923843
0.000926714
0.000929355
0.000931764
0.000933943
0.00093589
0.000937605
0.00093909
0.000940345
0.00094137
0.000942168
0.00094274
0.000943088
0.000943215
0.000943124
0.000942817
0.000942298
0.00094157
0.000940638
0.000939507
0.00093818
0.000936663
0.000934961
0.00093308
0.000931025
0.000928804
0.000926422
0.000923885
0.000921205
0.000918383
0.000915432
0.000912361
0.000909168
0.000905882
0.0009025
0.000898968
0.000895134
0.000890038
0.00088316
0.000875808
0.00086829
0.000860685
0.00085302
0.000845304
0.000837533
0.000829688
0.000821693
0.000813442
0.000804017
0.000787109
6.15088e-06
3.01047e-05
6.47395e-05
9.53452e-05
0.000119282
0.000137301
0.000150532
0.000159872
0.00016667
0.000171983
0.000176567
0.000180895
0.000185207
0.000189585
0.000194034
0.000198536
0.000203087
0.000207711
0.000212455
0.000217367
0.000222491
0.000227865
0.000233527
0.000239508
0.00024584
0.00025255
0.00025966
0.000267191
0.000275156
0.000283566
0.000292428
0.000301743
0.000311508
0.000321716
0.000332356
0.000343415
0.000354876
0.000366718
0.000378922
0.000391465
0.000404325
0.000417479
0.000430907
0.000444588
0.000458506
0.000472649
0.000487006
0.000501576
0.000516359
0.000531358
0.000546574
0.000562007
0.000577657
0.000593524
0.000609606
0.000625902
0.000642413
0.000659136
0.000676071
0.000693214
0.000710564
0.000728118
0.000745872
0.000763823
0.000781965
0.000800294
0.000818804
0.000837488
0.000856338
0.000875347
0.000894507
0.000913807
0.000933238
0.000952789
0.000972449
0.000992207
0.00101205
0.00103197
0.00105194
0.00107197
0.00109202
0.0011121
0.00113219
0.00115226
0.00117232
0.00119235
0.00121233
0.00123225
0.00125211
0.00127188
0.00129155
0.00131112
0.00133057
0.00134988
0.00136905
0.00138805
0.00140687
0.00142548
0.00144385
0.00146194
0.0014797
0.00149708
0.00151378
0.00153006
0.00154604
0.00156176
0.00157722
0.0015924
0.00160729
0.00162188
0.00163616
0.00165012
0.00166374
0.00167701
0.00168993
0.00170248
0.00171464
0.00172642
0.00173781
0.00174878
0.00175934
0.00176947
0.00177917
0.00178843
0.00179725
0.00180561
0.00181351
0.00182095
0.00182793
0.00183443
0.00184046
0.00184601
0.00185108
0.00185567
0.00185978
0.00186341
0.00186655
0.00186921
0.0018714
0.00187311
0.00187434
0.00187511
0.0018754
0.00187524
0.00187463
0.00187356
0.00187206
0.00187012
0.00186775
0.00186497
0.00186179
0.0018582
0.00185424
0.00184989
0.00184519
0.00184014
0.00183476
0.00182905
0.00182304
0.00181674
0.00181017
0.00180336
0.00179631
0.00178904
0.00178157
0.00177377
0.00176544
0.00175581
0.0017445
0.0017324
0.00171991
0.00170718
0.0016943
0.00168127
0.00166809
0.00165468
0.00164086
0.00162612
0.00160857
0.00157996
6.95735e-06
4.10784e-05
8.73022e-05
0.000126632
0.000157168
0.000180124
0.000196992
0.00020944
0.00021887
0.000226404
0.000232882
0.000238883
0.000244764
0.000250719
0.000256841
0.000263174
0.000269747
0.000276589
0.000283737
0.000291229
0.000299107
0.000307411
0.000316179
0.000325449
0.000335252
0.000345615
0.00035656
0.000368103
0.000380254
0.000393016
0.000406388
0.000420362
0.000434925
0.000450062
0.000465752
0.000481974
0.000498701
0.00051591
0.000533573
0.000551666
0.000570165
0.000589046
0.00060829
0.000627879
0.0006478
0.00066804
0.000688592
0.000709451
0.000730614
0.00075208
0.000773847
0.000795915
0.000818282
0.000840946
0.000863907
0.000887162
0.00091071
0.000934548
0.000958673
0.000983082
0.00100777
0.00103273
0.00105796
0.00108346
0.0011092
0.0011352
0.00116143
0.00118788
0.00121455
0.00124142
0.00126848
0.00129572
0.00132311
0.00135065
0.00137832
0.0014061
0.00143397
0.00146192
0.00148992
0.00151795
0.00154601
0.00157406
0.0016021
0.00163009
0.00165802
0.00168588
0.00171364
0.00174128
0.00176879
0.00179614
0.00182333
0.00185033
0.00187712
0.00190368
0.00193
0.00195605
0.00198181
0.00200724
0.00203232
0.00205701
0.00208129
0.00210499
0.00212809
0.00215075
0.00217303
0.00219493
0.00221646
0.00223761
0.00225835
0.00227867
0.00229856
0.00231799
0.00233697
0.00235546
0.00237346
0.00239094
0.00240791
0.00242433
0.00244021
0.00245552
0.00247026
0.00248442
0.00249797
0.00251092
0.00252326
0.00253498
0.00254606
0.00255651
0.00256631
0.00257546
0.00258396
0.0025918
0.00259898
0.00260549
0.00261134
0.00261653
0.00262105
0.0026249
0.00262809
0.00263062
0.0026325
0.00263372
0.00263429
0.00263423
0.00263353
0.00263221
0.00263028
0.00262774
0.0026246
0.00262088
0.00261659
0.00261175
0.00260636
0.00260045
0.00259402
0.00258711
0.00257972
0.00257187
0.0025636
0.00255491
0.00254584
0.00253641
0.00252664
0.00251652
0.00250608
0.00249521
0.00248374
0.00247123
0.00245744
0.00244282
0.00242769
0.00241221
0.00239649
0.00238055
0.00236439
0.00234792
0.00233086
0.00231252
0.00229076
0.00225893
7.54883e-06
5.10582e-05
0.000106698
0.000153162
0.000188965
0.000215888
0.00023604
0.000251255
0.000263051
0.000272645
0.000280959
0.000288651
0.000296162
0.00030376
0.000311604
0.000319782
0.000328348
0.000337342
0.000346803
0.000356766
0.00036727
0.000378352
0.000390047
0.000402385
0.000415394
0.000429093
0.000443497
0.000458614
0.000474444
0.000490983
0.000508221
0.000526143
0.000544729
0.000563957
0.000583802
0.000604239
0.000625241
0.000646781
0.000668834
0.000691375
0.000714381
0.000737833
0.000761712
0.000786002
0.000810692
0.000835771
0.00086123
0.000887065
0.00091327
0.000939842
0.000966777
0.000994074
0.00102173
0.00104974
0.00107811
0.00110682
0.00113588
0.00116529
0.00119503
0.00122511
0.00125551
0.00128623
0.00131726
0.00134859
0.0013802
0.0014121
0.00144426
0.00147668
0.00150933
0.00154219
0.00157527
0.00160853
0.00164195
0.00167552
0.00170922
0.00174302
0.00177691
0.00181085
0.00184483
0.00187882
0.0019128
0.00194675
0.00198064
0.00201445
0.00204816
0.00208173
0.00211516
0.00214841
0.00218147
0.00221432
0.00224692
0.00227927
0.00231134
0.0023431
0.00237454
0.00240563
0.00243636
0.00246668
0.00249658
0.00252603
0.00255501
0.00258332
0.00261109
0.00263839
0.00266523
0.00269164
0.0027176
0.0027431
0.00276813
0.00279266
0.00281667
0.00284015
0.00286309
0.00288546
0.00290724
0.00292843
0.002949
0.00296894
0.00298823
0.00300686
0.00302482
0.00304208
0.00305865
0.0030745
0.00308963
0.00310403
0.00311769
0.00313059
0.00314274
0.00315413
0.00316474
0.00317457
0.00318362
0.00319189
0.00319937
0.00320607
0.00321198
0.00321709
0.00322143
0.00322497
0.00322774
0.00322973
0.00323095
0.00323141
0.00323111
0.00323006
0.00322828
0.00322577
0.00322255
0.00321862
0.003214
0.00320871
0.00320276
0.00319618
0.00318897
0.00318116
0.00317277
0.00316383
0.00315435
0.00314437
0.0031339
0.00312297
0.0031116
0.00309981
0.00308759
0.00307489
0.00306159
0.00304745
0.00303234
0.00301647
0.00300005
0.00298324
0.00296612
0.00294875
0.00293113
0.00291317
0.00289461
0.00287475
0.00285167
0.00282082
7.96722e-06
6.01157e-05
0.000123671
0.000175926
0.000216284
0.000246968
0.000270257
0.000288125
0.000302201
0.000313791
0.000323894
0.000333244
0.000342348
0.000351542
0.000361032
0.000370947
0.000381365
0.000392339
0.00040391
0.000416113
0.000428983
0.000442547
0.000456835
0.000471867
0.000487662
0.000504231
0.000521579
0.000539706
0.000558606
0.000578266
0.000598671
0.000619801
0.000641633
0.000664144
0.000687307
0.000711097
0.000735487
0.000760452
0.000785968
0.000812013
0.000838567
0.000865611
0.000893128
0.000921106
0.000949532
0.000978397
0.00100769
0.00103741
0.00106754
0.00109809
0.00112904
0.0011604
0.00119215
0.0012243
0.00125684
0.00128977
0.00132308
0.00135676
0.0013908
0.00142521
0.00145997
0.00149506
0.00153049
0.00156623
0.00160228
0.00163862
0.00167523
0.0017121
0.00174921
0.00178654
0.00182408
0.00186179
0.00189966
0.00193767
0.00197579
0.002014
0.00205227
0.00209058
0.00212891
0.00216722
0.00220548
0.00224368
0.00228179
0.00231977
0.00235761
0.00239528
0.00243275
0.00247
0.00250701
0.00254375
0.00258019
0.00261632
0.00265212
0.00268757
0.00272263
0.0027573
0.00279154
0.00282534
0.00285868
0.00289153
0.00292383
0.00295549
0.00298662
0.00301725
0.0030474
0.00307707
0.00310625
0.00313494
0.0031631
0.00319072
0.00321778
0.00324427
0.00327015
0.00329543
0.00332007
0.00334405
0.00336737
0.00339
0.00341193
0.00343314
0.00345362
0.00347334
0.0034923
0.00351049
0.00352788
0.00354448
0.00356026
0.00357523
0.00358936
0.00360266
0.00361512
0.00362672
0.00363747
0.00364735
0.00365637
0.00366452
0.00367181
0.00367823
0.00368379
0.00368847
0.00369229
0.00369526
0.00369737
0.00369864
0.00369906
0.00369865
0.00369743
0.00369539
0.00369255
0.00368893
0.00368453
0.00367938
0.00367348
0.00366686
0.00365955
0.00365155
0.00364288
0.00363358
0.00362367
0.00361317
0.00360211
0.00359052
0.00357841
0.0035658
0.0035527
0.00353909
0.00352488
0.00350997
0.00349429
0.00347793
0.00346103
0.00344372
0.00342609
0.00340819
0.00339004
0.0033716
0.00335264
0.00333256
0.00330984
0.00328152
8.26529e-06
6.77788e-05
0.000137501
0.000194866
0.000239561
0.000273913
0.000300311
0.00032083
0.000337192
0.000350778
0.000362662
0.000373644
0.000384296
0.000395009
0.000406038
0.000417547
0.000429639
0.000442378
0.000455812
0.000469974
0.000484892
0.000500588
0.000517081
0.000534384
0.000552506
0.000571449
0.00059121
0.000611784
0.000633157
0.000655315
0.000678237
0.000701902
0.000726288
0.000751368
0.000777119
0.000803515
0.000830533
0.000858148
0.00088634
0.000915088
0.000944374
0.00097418
0.00100449
0.0010353
0.00106658
0.00109834
0.00113056
0.00116323
0.00119635
0.00122991
0.00126391
0.00129833
0.00133317
0.00136844
0.00140411
0.00144019
0.00147666
0.00151352
0.00155077
0.00158838
0.00162635
0.00166466
0.00170331
0.00174228
0.00178156
0.00182112
0.00186096
0.00190105
0.00194137
0.00198191
0.00202264
0.00206354
0.00210459
0.00214575
0.00218702
0.00222836
0.00226974
0.00231114
0.00235253
0.00239389
0.00243518
0.00247637
0.00251745
0.00255838
0.00259913
0.00263968
0.00268
0.00272006
0.00275984
0.00279932
0.00283847
0.00287727
0.0029157
0.00295374
0.00299137
0.00302858
0.00306533
0.00310161
0.00313741
0.00317271
0.00320738
0.00324148
0.00327506
0.00330814
0.00334073
0.00337283
0.00340442
0.00343548
0.00346601
0.00349598
0.00352537
0.00355416
0.00358233
0.00360986
0.00363673
0.00366293
0.00368842
0.0037132
0.00373725
0.00376055
0.00378308
0.00380483
0.00382577
0.0038459
0.00386521
0.00388367
0.00390129
0.00391804
0.00393392
0.00394892
0.00396304
0.00397625
0.00398856
0.00399995
0.00401044
0.00402001
0.00402867
0.0040364
0.00404322
0.00404911
0.00405408
0.00405815
0.00406131
0.00406356
0.00406492
0.00406538
0.00406497
0.00406369
0.00406155
0.00405856
0.00405474
0.00405012
0.00404468
0.00403845
0.00403147
0.00402373
0.00401528
0.00400613
0.00399631
0.00398584
0.00397475
0.00396307
0.00395081
0.003938
0.00392464
0.00391074
0.00389626
0.00388115
0.00386538
0.00384901
0.00383213
0.00381483
0.00379721
0.00377933
0.00376125
0.00374294
0.00372423
0.00370468
0.00368313
0.00365765
8.75726e-06
7.16812e-05
0.000146933
0.000209511
0.000258651
0.000296743
0.000326302
0.000349518
0.000368201
0.000383809
0.000397482
0.000410082
0.000422239
0.000434396
0.000446852
0.000459805
0.00047338
0.000487659
0.000502692
0.000518515
0.000535151
0.000552615
0.00057092
0.000590068
0.000610063
0.000630899
0.000652569
0.000675061
0.000698358
0.000722444
0.000747298
0.000772897
0.000799219
0.00082624
0.000853936
0.000882285
0.000911265
0.000940853
0.000971031
0.00100178
0.00103308
0.00106492
0.00109728
0.00113016
0.00116353
0.0011974
0.00123174
0.00126655
0.00130182
0.00133755
0.00137373
0.00141034
0.00144739
0.00148486
0.00152275
0.00156105
0.00159974
0.00163883
0.0016783
0.00171814
0.00175833
0.00179886
0.00183973
0.00188091
0.00192239
0.00196415
0.00200618
0.00204845
0.00209095
0.00213365
0.00217654
0.00221959
0.00226277
0.00230607
0.00234946
0.00239291
0.0024364
0.0024799
0.00252337
0.00256681
0.00261016
0.00265341
0.00269653
0.00273949
0.00278225
0.0028248
0.0028671
0.00290912
0.00295085
0.00299226
0.00303331
0.00307401
0.00311431
0.0031542
0.00319367
0.0032327
0.00327126
0.00330935
0.00334694
0.003384
0.00342048
0.00345642
0.00349187
0.00352683
0.0035613
0.00359528
0.00362876
0.00366171
0.00369413
0.00372598
0.00375724
0.0037879
0.00381793
0.00384732
0.00387604
0.00390407
0.00393139
0.00395798
0.00398383
0.00400891
0.00403321
0.00405671
0.00407939
0.00410123
0.00412222
0.00414235
0.00416161
0.00417998
0.00419746
0.00421403
0.00422968
0.00424441
0.00425819
0.00427104
0.00428294
0.0042939
0.00430391
0.00431297
0.00432107
0.00432822
0.0043344
0.00433964
0.00434395
0.00434731
0.00434972
0.00435121
0.00435177
0.00435146
0.00435021
0.00434807
0.00434506
0.00434119
0.00433647
0.00433092
0.00432457
0.00431743
0.00430952
0.00430087
0.0042915
0.00428143
0.0042707
0.00425932
0.00424732
0.00423472
0.00422155
0.00420779
0.00419346
0.00417853
0.004163
0.00414692
0.00413036
0.0041134
0.00409612
0.00407861
0.00406093
0.00404311
0.00402503
0.00400638
0.00398629
0.00396346
9.32592e-06
7.31442e-05
0.000152836
0.000220291
0.000273764
0.000315558
0.000348275
0.000374198
0.000395221
0.000412865
0.000428329
0.00044253
0.000456147
0.000469671
0.000483441
0.000497686
0.000512556
0.000528146
0.000544517
0.000561704
0.000579729
0.000598605
0.000618336
0.000638922
0.000660358
0.000682635
0.000705741
0.000729661
0.000754378
0.000779872
0.000806123
0.00083311
0.00086081
0.000889201
0.000918261
0.000947969
0.000978305
0.00100925
0.00104078
0.00107289
0.00110555
0.00113876
0.00117249
0.00120673
0.00124149
0.00127673
0.00131245
0.00134865
0.00138531
0.00142243
0.00145999
0.00149799
0.00153642
0.00157528
0.00161454
0.00165421
0.00169427
0.00173471
0.00177553
0.00181671
0.00185824
0.0019001
0.00194229
0.00198479
0.00202757
0.00207064
0.00211397
0.00215753
0.00220133
0.00224532
0.0022895
0.00233385
0.00237833
0.00242293
0.00246762
0.00251239
0.00255719
0.00260201
0.00264682
0.00269159
0.0027363
0.0027809
0.00282538
0.0028697
0.00291384
0.00295776
0.00300143
0.00304483
0.00308793
0.00313071
0.00317313
0.00321519
0.00325685
0.0032981
0.00333892
0.0033793
0.00341922
0.00345867
0.00349763
0.00353605
0.00357396
0.00361139
0.00364835
0.00368485
0.00372088
0.00375643
0.00379149
0.00382604
0.00386006
0.00389352
0.0039264
0.00395868
0.00399034
0.00402135
0.0040517
0.00408135
0.0041103
0.00413851
0.00416598
0.00419268
0.00421859
0.00424368
0.00426795
0.00429137
0.00431392
0.0043356
0.0043564
0.00437629
0.00439528
0.00441334
0.00443048
0.00444666
0.00446188
0.00447615
0.00448945
0.00450178
0.00451315
0.00452355
0.00453296
0.00454139
0.00454883
0.0045553
0.00456082
0.00456538
0.00456894
0.00457155
0.00457321
0.00457393
0.00457372
0.00457259
0.00457055
0.00456762
0.00456382
0.00455915
0.00455365
0.00454732
0.00454019
0.00453228
0.00452362
0.00451422
0.00450412
0.00449332
0.00448187
0.00446978
0.00445708
0.00444377
0.00442988
0.0044154
0.00440035
0.00438478
0.00436874
0.00435232
0.00433559
0.00431866
0.0043016
0.00428447
0.00426721
0.0042496
0.00423099
0.00421046
9.81932e-06
7.34346e-05
0.000156288
0.000227867
0.000285271
0.000330558
0.000366322
0.000394897
0.000418228
0.000437888
0.00045512
0.000470885
0.000485905
0.000500711
0.000515676
0.00053106
0.000547035
0.000563712
0.000581161
0.000599422
0.000618518
0.00063846
0.000659248
0.000680879
0.000703345
0.000726633
0.000750729
0.000775617
0.000801278
0.000827692
0.000854839
0.000882699
0.00091125
0.000940472
0.000970345
0.00100085
0.00103196
0.00106367
0.00109596
0.0011288
0.00116219
0.00119611
0.00123055
0.0012655
0.00130093
0.00133685
0.00137325
0.0014101
0.0014474
0.00148515
0.00152333
0.00156194
0.00160097
0.00164041
0.00168024
0.00172047
0.00176108
0.00180206
0.00184341
0.00188511
0.00192716
0.00196954
0.00201224
0.00205524
0.00209854
0.00214213
0.00218598
0.00223008
0.00227441
0.00231897
0.00236372
0.00240866
0.00245375
0.00249899
0.00254434
0.00258979
0.00263531
0.00268088
0.00272646
0.00277203
0.00281756
0.00286302
0.00290838
0.00295361
0.00299868
0.00304355
0.0030882
0.00313259
0.00317669
0.00322048
0.00326393
0.00330701
0.00334971
0.00339201
0.00343389
0.00347533
0.00351633
0.00355686
0.00359692
0.00363652
0.00367567
0.0037144
0.00375269
0.00379056
0.00382799
0.00386496
0.00390145
0.00393745
0.00397293
0.00400787
0.00404224
0.00407602
0.00410919
0.00414171
0.00417357
0.00420475
0.00423523
0.00426497
0.00429397
0.0043222
0.00434963
0.00437626
0.00440204
0.00442697
0.00445103
0.00447421
0.00449649
0.00451786
0.00453832
0.00455785
0.00457645
0.00459407
0.00461072
0.00462639
0.00464108
0.0046548
0.00466753
0.00467931
0.00469006
0.0046998
0.00470855
0.0047163
0.00472307
0.00472885
0.00473365
0.00473746
0.00474031
0.0047422
0.00474313
0.00474313
0.0047422
0.00474036
0.00473761
0.00473399
0.00472949
0.00472415
0.00471798
0.00471101
0.00470324
0.00469471
0.00468543
0.00467544
0.00466475
0.00465339
0.00464139
0.00462875
0.00461551
0.00460169
0.0045873
0.0045724
0.00455704
0.00454131
0.00452528
0.00450906
0.00449274
0.00447641
0.00446006
0.00444352
0.00442631
0.00440771
1.02385e-05
7.28824e-05
0.000157779
0.000232676
0.000293501
0.000341964
0.000380578
0.000411677
0.00043723
0.000458837
0.000477775
0.000495037
0.000511378
0.000527361
0.00054339
0.00055975
0.000576635
0.000594172
0.00061244
0.000631487
0.000651338
0.000672005
0.000693487
0.00071578
0.000738873
0.000762752
0.000787402
0.000812804
0.000838942
0.000865793
0.000893341
0.000921563
0.00095044
0.000979954
0.00101008
0.00104081
0.00107212
0.00110399
0.00113641
0.00116937
0.00120284
0.00123681
0.00127128
0.00130622
0.00134164
0.00137751
0.00141383
0.00145059
0.00148777
0.00152538
0.00156341
0.00160184
0.00164067
0.0016799
0.00171951
0.0017595
0.00179987
0.0018406
0.00188169
0.00192314
0.00196494
0.00200708
0.00204955
0.00209234
0.00213545
0.00217886
0.00222257
0.00226655
0.00231081
0.00235532
0.00240007
0.00244504
0.00249022
0.00253559
0.00258113
0.00262681
0.00267261
0.00271851
0.00276448
0.00281049
0.00285651
0.00290251
0.00294845
0.00299431
0.00304004
0.00308562
0.00313101
0.00317616
0.00322106
0.00326567
0.00330995
0.00335389
0.00339746
0.00344063
0.0034834
0.00352575
0.00356767
0.00360914
0.00365024
0.00369097
0.00373131
0.00377127
0.00381085
0.00385003
0.0038888
0.00392713
0.00396502
0.00400243
0.00403933
0.0040757
0.00411152
0.00414676
0.00418139
0.00421539
0.00424874
0.0042814
0.00431337
0.00434461
0.0043751
0.00440483
0.00443378
0.00446191
0.00448919
0.00451561
0.00454115
0.00456581
0.00458957
0.00461241
0.00463433
0.00465533
0.00467539
0.00469446
0.00471254
0.00472963
0.00474574
0.00476085
0.00477498
0.00478811
0.00480022
0.00481133
0.00482142
0.00483051
0.0048386
0.0048457
0.0048518
0.0048569
0.00486103
0.00486418
0.00486637
0.00486761
0.0048679
0.00486727
0.00486571
0.00486326
0.00485992
0.00485571
0.00485065
0.00484475
0.00483804
0.00483054
0.00482227
0.00481325
0.00480351
0.00479306
0.00478194
0.00477016
0.00475775
0.00474474
0.00473117
0.00471708
0.00470253
0.0046876
0.00467238
0.00465697
0.00464149
0.00462603
0.00461061
0.00459512
0.00457918
0.00456221
1.05908e-05
7.16789e-05
0.000157638
0.000235066
0.000298756
0.000350013
0.00039121
0.000424637
0.00045226
0.00047569
0.000496221
0.000514867
0.000532409
0.000549432
0.000566366
0.000583518
0.000601099
0.000619251
0.000638066
0.000657598
0.000677877
0.000698916
0.000720717
0.000743274
0.000766576
0.000790609
0.000815356