/*--------------------------------*- C++ -*----------------------------------*\
| =========                 |                                                 |
| \\      /  F ield         | OpenFOAM: The Open Source CFD Toolbox           |
|  \\    /   O peration     | Version:  2112                                  |
|   \\  /    A nd           | Website:  www.openfoam.com                      |
|    \\/     M anipulation  |                                                 |
\*---------------------------------------------------------------------------*/
FoamFile
{
    version     2.0;
    format      ascii;
    arch        "LSB;label=32;scalar=64";
    class       surfaceScalarField;
    location    "0.32";
    object      phi;
}
// * * * * * * * * * * * * * * * * * * * * * * * * * * * * * * * * * * * * * //

dimensions      [0 3 -1 0 0 0 0];

oriented        oriented;

internalField   nonuniform List<scalar> 
24170
(
3.0386e-06
1.49804e-07
2.86412e-06
1.74486e-07
2.69197e-06
1.72141e-07
2.52076e-06
1.71218e-07
2.35485e-06
1.65907e-07
2.1981e-06
1.56748e-07
2.05266e-06
1.45445e-07
1.9198e-06
1.32858e-07
1.8003e-06
1.19499e-07
1.69441e-06
1.0589e-07
1.60184e-06
9.2565e-08
1.52182e-06
8.00246e-08
1.45306e-06
6.87644e-08
1.3937e-06
5.93542e-08
1.34106e-06
5.26437e-08
1.29086e-06
5.01932e-08
1.23466e-06
5.62067e-08
8.41734e-08
1.15048e-06
3.495e-06
7.20545e-08
3.55168e-06
1.17808e-07
3.59078e-06
1.33034e-07
3.61232e-06
1.49683e-07
3.61714e-06
1.61089e-07
3.60781e-06
1.66072e-07
3.58711e-06
1.66145e-07
3.55775e-06
1.62218e-07
3.52235e-06
1.54899e-07
3.48328e-06
1.44957e-07
3.44253e-06
1.33318e-07
3.40158e-06
1.20972e-07
3.36138e-06
1.08966e-07
3.32222e-06
9.85163e-08
3.28353e-06
9.1338e-08
3.2435e-06
9.02151e-08
3.19864e-06
1.01075e-07
1.31813e-07
3.151e-06
3.67875e-06
5.58227e-08
3.69642e-06
1.00133e-07
3.71619e-06
1.13272e-07
3.73985e-06
1.26021e-07
3.76536e-06
1.35579e-07
3.79128e-06
1.40153e-07
3.81637e-06
1.41055e-07
3.83947e-06
1.39117e-07
3.85972e-06
1.34652e-07
3.87661e-06
1.28064e-07
3.88998e-06
1.19946e-07
3.89991e-06
1.11048e-07
3.90658e-06
1.02289e-07
3.91027e-06
9.48293e-08
3.91129e-06
9.03224e-08
3.91033e-06
9.11752e-08
3.91016e-06
1.01245e-07
1.23213e-07
3.91876e-06
3.93542e-06
4.57904e-08
3.94532e-06
9.02316e-08
3.95353e-06
1.05064e-07
3.96305e-06
1.16504e-07
3.97358e-06
1.25043e-07
3.98497e-06
1.28768e-07
3.99724e-06
1.28783e-07
4.01019e-06
1.26171e-07
4.02342e-06
1.21417e-07
4.03652e-06
1.14966e-07
4.04905e-06
1.07413e-07
4.06064e-06
9.94548e-08
4.07104e-06
9.18938e-08
4.08014e-06
8.5726e-08
4.08822e-06
8.22412e-08
4.09626e-06
8.31379e-08
4.10741e-06
9.00971e-08
1.04579e-07
4.12604e-06
4.21514e-06
3.77743e-08
4.22453e-06
8.08437e-08
4.23223e-06
9.73648e-08
4.24042e-06
1.08313e-07
4.24906e-06
1.16408e-07
4.25781e-06
1.20016e-07
4.26667e-06
1.19922e-07
4.27559e-06
1.17253e-07
4.28442e-06
1.12583e-07
4.29301e-06
1.06374e-07
4.30121e-06
9.92139e-08
4.30889e-06
9.17785e-08
4.31598e-06
8.4808e-08
4.32255e-06
7.9156e-08
4.329e-06
7.57824e-08
4.33641e-06
7.57321e-08
4.34708e-06
7.94267e-08
8.63711e-08
4.36529e-06
4.51546e-06
3.14012e-08
4.52451e-06
7.17916e-08
4.53251e-06
8.93635e-08
4.5409e-06
9.99245e-08
4.54982e-06
1.07494e-07
4.55884e-06
1.10987e-07
4.56786e-06
1.10909e-07
4.57677e-06
1.0834e-07
4.58544e-06
1.03913e-07
4.59372e-06
9.80885e-08
4.60153e-06
9.14112e-08
4.6088e-06
8.45024e-08
4.6156e-06
7.80155e-08
4.62212e-06
7.26348e-08
4.62889e-06
6.90054e-08
4.63702e-06
6.76039e-08
4.64834e-06
6.81071e-08
6.90241e-08
4.66569e-06
4.83784e-06
2.62824e-08
4.84639e-06
6.32399e-08
4.85454e-06
8.12165e-08
4.86303e-06
9.14271e-08
4.87216e-06
9.83732e-08
4.88151e-06
1.01635e-07
4.89088e-06
1.01534e-07
4.90018e-06
9.90474e-08
4.90925e-06
9.48439e-08
4.91795e-06
8.93807e-08
4.92621e-06
8.31515e-08
4.93401e-06
7.67038e-08
4.94144e-06
7.0584e-08
4.94878e-06
6.5299e-08
4.95657e-06
6.12172e-08
4.96576e-06
5.84074e-08
4.97768e-06
5.61906e-08
5.28707e-08
4.99383e-06
5.18375e-06
2.21164e-08
5.1917e-06
5.52865e-08
5.1999e-06
7.30146e-08
5.20851e-06
8.28238e-08
5.21779e-06
8.90925e-08
5.2274e-06
9.20236e-08
5.23707e-06
9.18581e-08
5.24669e-06
8.94351e-08
5.25611e-06
8.54231e-08
5.26522e-06
8.02725e-08
5.27394e-06
7.44227e-08
5.28231e-06
6.83395e-08
5.29043e-06
6.24596e-08
5.2986e-06
5.71314e-08
5.3073e-06
5.25156e-08
5.31726e-06
4.84462e-08
5.32929e-06
4.41647e-08
3.81725e-08
5.34399e-06
5.55478e-06
1.86693e-08
5.56213e-06
4.79457e-08
5.57031e-06
6.48291e-08
5.57902e-06
7.41138e-08
5.58844e-06
7.9676e-08
5.59827e-06
8.21929e-08
5.60821e-06
8.19116e-08
5.61812e-06
7.95261e-08
5.62788e-06
7.567e-08
5.63737e-06
7.07788e-08
5.64656e-06
6.52375e-08
5.65546e-06
5.943e-08
5.66423e-06
5.36918e-08
5.67312e-06
4.82471e-08
5.68251e-06
4.31262e-08
5.69288e-06
3.80719e-08
5.70463e-06
3.24135e-08
2.50395e-08
5.71776e-06
5.95269e-06
1.57567e-08
5.95945e-06
4.11827e-08
5.96755e-06
5.67322e-08
5.97634e-06
6.53188e-08
5.98588e-06
7.01426e-08
5.9959e-06
7.21705e-08
6.0061e-06
7.17075e-08
6.01631e-06
6.932e-08
6.0264e-06
6.55787e-08
6.03629e-06
6.08924e-08
6.04593e-06
5.55937e-08
6.05537e-06
4.99908e-08
6.06473e-06
4.43343e-08
6.07421e-06
3.87631e-08
6.08409e-06
3.32464e-08
6.09463e-06
2.75361e-08
6.10591e-06
2.11301e-08
1.33317e-08
6.11762e-06
6.37933e-06
1.32387e-08
6.38557e-06
3.49392e-08
6.39352e-06
4.87814e-08
6.40238e-06
5.64678e-08
6.41201e-06
6.05052e-08
6.42221e-06
6.19777e-08
6.43265e-06
6.12619e-08
6.44315e-06
5.88221e-08
6.45358e-06
5.515e-08
6.46386e-06
5.06146e-08
6.47395e-06
4.54994e-08
6.48389e-06
4.00476e-08
6.49378e-06
3.44458e-08
6.50376e-06
2.87839e-08
6.51399e-06
2.30218e-08
6.52454e-06
1.69774e-08
6.53534e-06
1.03328e-08
2.73612e-09
6.54594e-06
5.74274e-06
1.13288e-08
5.74767e-06
3.0014e-08
5.75425e-06
4.22053e-08
5.76174e-06
4.89705e-08
5.76995e-06
5.22933e-08
5.77868e-06
5.32507e-08
5.78768e-06
5.22651e-08
5.79676e-06
4.97358e-08
5.80583e-06
4.6083e-08
5.81481e-06
4.16345e-08
5.82368e-06
3.66347e-08
5.83244e-06
3.1282e-08
5.84116e-06
2.57242e-08
5.84992e-06
2.00317e-08
5.85876e-06
1.41806e-08
5.86767e-06
8.06063e-09
5.87652e-06
1.48935e-09
-5.65199e-09
5.88491e-06
7.00015e-06
9.33271e-09
7.00545e-06
2.47131e-08
7.0128e-06
3.48553e-08
7.02138e-06
4.03974e-08
7.03084e-06
4.28295e-08
7.04095e-06
4.31442e-08
7.05142e-06
4.17878e-08
7.06206e-06
3.91e-08
7.07272e-06
3.54218e-08
7.08333e-06
3.10281e-08
7.09384e-06
2.61215e-08
7.10426e-06
2.08601e-08
7.11462e-06
1.53618e-08
7.12496e-06
9.69256e-09
7.13528e-06
3.86081e-09
7.14551e-06
-2.16635e-09
7.15544e-06
-8.44369e-09
-1.49149e-08
7.16471e-06
8.53293e-06
7.25062e-09
8.53859e-06
1.90521e-08
8.54671e-06
2.67401e-08
8.55639e-06
3.07096e-08
8.56719e-06
3.20295e-08
8.57879e-06
3.15449e-08
8.59089e-06
2.96901e-08
8.60324e-06
2.67482e-08
8.61569e-06
2.29777e-08
8.62812e-06
1.85914e-08
8.6405e-06
1.37481e-08
8.65279e-06
8.57108e-09
8.66499e-06
3.15904e-09
8.6771e-06
-2.41744e-09
8.68907e-06
-8.11333e-09
8.7008e-06
-1.38902e-08
8.71207e-06
-1.97172e-08
-2.54321e-08
8.72259e-06
1.04014e-05
5.07365e-09
1.04074e-05
1.30283e-08
1.04163e-05
1.78719e-08
1.04271e-05
1.98925e-08
1.04393e-05
1.98345e-08
1.04525e-05
1.83616e-08
1.04663e-05
1.58537e-08
1.04805e-05
1.25339e-08
1.04949e-05
8.5795e-09
1.05094e-05
4.13596e-09
1.05238e-05
-6.82996e-10
1.05382e-05
-5.78465e-09
1.05524e-05
-1.10846e-08
1.05665e-05
-1.65052e-08
1.05804e-05
-2.19745e-08
1.05939e-05
-2.74105e-08
1.06069e-05
-3.27414e-08
-3.77687e-08
1.06192e-05
1.26791e-05
2.78435e-09
1.26855e-05
6.61063e-09
1.26951e-05
8.24672e-09
1.27071e-05
7.94117e-09
1.27207e-05
6.20881e-09
1.27355e-05
3.5283e-09
1.27512e-05
1.88071e-10
1.27674e-05
-3.65883e-09
1.27839e-05
-7.91335e-09
1.28005e-05
-1.24975e-08
1.28172e-05
-1.73455e-08
1.28338e-05
-2.23941e-08
1.28503e-05
-2.75748e-08
1.28666e-05
-3.28117e-08
1.28826e-05
-3.8025e-08
1.28983e-05
-4.31217e-08
1.29136e-05
-4.80278e-08
-5.25611e-08
1.29284e-05
1.54556e-05
3.52298e-10
1.54625e-05
-2.77325e-10
1.54729e-05
-2.19009e-09
1.54861e-05
-5.17506e-09
1.55011e-05
-8.87968e-09
1.55177e-05
-1.30015e-08
1.55352e-05
-1.73674e-08
1.55535e-05
-2.1907e-08
1.55722e-05
-2.65968e-08
1.55911e-05
-3.14244e-08
1.56101e-05
-3.63731e-08
1.56291e-05
-4.14128e-08
1.56481e-05
-4.64971e-08
1.56668e-05
-5.15655e-08
1.56853e-05
-5.65494e-08
1.57036e-05
-6.13701e-08
1.57215e-05
-6.59717e-08
-7.0215e-08
1.57392e-05
1.88403e-05
-2.35456e-09
1.88478e-05
-7.7634e-09
1.88592e-05
-1.35851e-08
1.88736e-05
-1.95735e-08
1.88903e-05
-2.55206e-08
1.89086e-05
-3.13001e-08
1.89281e-05
-3.68719e-08
1.89484e-05
-4.22585e-08
1.89693e-05
-4.75122e-08
1.89906e-05
-5.2685e-08
1.9012e-05
-5.78099e-08
1.90335e-05
-6.28933e-08
1.90549e-05
-6.79175e-08
1.90762e-05
-7.28454e-08
1.90973e-05
-7.76305e-08
1.91181e-05
-8.22179e-08
1.91387e-05
-8.65725e-08
-9.06029e-08
1.91591e-05
2.29664e-05
-5.368e-09
2.29748e-05
-1.61917e-08
2.29875e-05
-2.63471e-08
2.30036e-05
-3.56144e-08
2.3022e-05
-4.39852e-08
2.30423e-05
-5.15561e-08
2.30639e-05
-5.84414e-08
2.30864e-05
-6.47637e-08
2.31095e-05
-7.06531e-08
2.31331e-05
-7.62248e-08
2.31568e-05
-8.1558e-08
2.31806e-05
-8.66935e-08
2.32043e-05
-9.164e-08
2.32279e-05
-9.63841e-08
2.32511e-05
-1.009e-07
2.32741e-05
-1.05155e-07
2.32966e-05
-1.09127e-07
-1.12766e-07
2.33188e-05
1.6813e-05
-7.62206e-09
1.68192e-05
-2.24219e-08
1.68284e-05
-3.55775e-08
1.68398e-05
-4.6954e-08
1.68526e-05
-5.68111e-08
1.68665e-05
-6.54599e-08
1.68812e-05
-7.31173e-08
1.68964e-05
-7.99698e-08
1.69119e-05
-8.62052e-08
1.69277e-05
-9.19821e-08
1.69435e-05
-9.74059e-08
1.69594e-05
-1.02533e-07
1.69751e-05
-1.07384e-07
1.69907e-05
-1.11954e-07
1.7006e-05
-1.16226e-07
1.7021e-05
-1.20173e-07
1.70357e-05
-1.23778e-07
-1.27005e-07
1.70499e-05
1.46367e-05
-9.78923e-09
1.46426e-05
-2.83032e-08
1.4651e-05
-4.39912e-08
1.4661e-05
-5.69256e-08
1.4672e-05
-6.78071e-08
1.46837e-05
-7.71836e-08
1.46959e-05
-8.53362e-08
1.47085e-05
-9.25013e-08
1.47212e-05
-9.89244e-08
1.4734e-05
-1.04799e-07
1.47468e-05
-1.10244e-07
1.47596e-05
-1.15325e-07
1.47723e-05
-1.20066e-07
1.47848e-05
-1.24468e-07
1.47971e-05
-1.28511e-07
1.48091e-05
-1.32171e-07
1.48208e-05
-1.35428e-07
-1.38253e-07
1.4832e-05
1.27424e-05
-1.20521e-08
1.27483e-05
-3.42431e-08
1.27564e-05
-5.20146e-08
1.27654e-05
-6.59673e-08
1.27751e-05
-7.74734e-08
1.27852e-05
-8.72711e-08
1.27955e-05
-9.56504e-08
1.28059e-05
-1.02913e-07
1.28163e-05
-1.09374e-07
1.28268e-05
-1.1525e-07
1.28372e-05
-1.20664e-07
1.28476e-05
-1.2568e-07
1.28578e-05
-1.30324e-07
1.28679e-05
-1.34592e-07
1.28779e-05
-1.38459e-07
1.28876e-05
-1.41892e-07
1.2897e-05
-1.44862e-07
-1.47334e-07
1.29061e-05
1.10935e-05
-1.46264e-08
1.10998e-05
-4.05888e-08
1.11077e-05
-5.98652e-08
1.1116e-05
-7.42875e-08
1.11247e-05
-8.61274e-08
1.11335e-05
-9.61271e-08
1.11424e-05
-1.0452e-07
1.11512e-05
-1.11706e-07
1.11599e-05
-1.18077e-07
1.11685e-05
-1.23864e-07
1.1177e-05
-1.29189e-07
1.11855e-05
-1.34116e-07
1.11938e-05
-1.38669e-07
1.12021e-05
-1.42837e-07
1.12102e-05
-1.46587e-07
1.12182e-05
-1.49874e-07
1.1226e-05
-1.52655e-07
-1.54886e-07
1.12335e-05
9.65838e-06
-1.77871e-08
9.66544e-06
-4.76495e-08
9.67321e-06
-6.76425e-08
9.6809e-06
-8.19722e-08
9.68866e-06
-9.38884e-08
9.6964e-06
-1.0387e-07
9.70397e-06
-1.12091e-07
9.71136e-06
-1.19088e-07
9.71858e-06
-1.25302e-07
9.72567e-06
-1.30956e-07
9.73265e-06
-1.36166e-07
9.73953e-06
-1.41e-07
9.74635e-06
-1.4548e-07
9.7531e-06
-1.49589e-07
9.75979e-06
-1.53281e-07
9.76641e-06
-1.56494e-07
9.77292e-06
-1.59166e-07
-1.61234e-07
9.77927e-06
8.40944e-06
-2.18753e-08
8.41731e-06
-5.55148e-08
8.425e-06
-7.53336e-08
8.43228e-06
-8.92547e-08
8.43948e-06
-1.01085e-07
8.4464e-06
-1.10788e-07
8.45292e-06
-1.18614e-07
8.4591e-06
-1.25274e-07
8.46502e-06
-1.31221e-07
8.47072e-06
-1.36653e-07
8.47624e-06
-1.41684e-07
8.48162e-06
-1.4638e-07
8.4869e-06
-1.50766e-07
8.49214e-06
-1.54821e-07
8.49734e-06
-1.58488e-07
8.50253e-06
-1.61682e-07
8.50769e-06
-1.64331e-07
-1.66295e-07
8.51276e-06
7.32292e-06
-2.75115e-08
7.33137e-06
-6.39617e-08
7.33843e-06
-8.24008e-08
7.345e-06
-9.58195e-08
7.35144e-06
-1.07523e-07
7.35744e-06
-1.16793e-07
7.36296e-06
-1.24134e-07
7.3681e-06
-1.30412e-07
7.37294e-06
-1.36057e-07
7.37755e-06
-1.41268e-07
7.38204e-06
-1.46169e-07
7.38648e-06
-1.50829e-07
7.39099e-06
-1.55277e-07
7.39567e-06
-1.59499e-07
7.40062e-06
-1.63436e-07
7.40593e-06
-1.6699e-07
7.41167e-06
-1.70066e-07
-1.72445e-07
7.41782e-06
6.37802e-06
-3.54689e-08
6.38753e-06
-7.34719e-08
6.39426e-06
-8.91301e-08
6.40055e-06
-1.02106e-07
6.40684e-06
-1.13812e-07
6.41303e-06
-1.22989e-07
6.41937e-06
-1.30469e-07
6.42606e-06
-1.37103e-07
6.43325e-06
-1.43242e-07
6.44105e-06
-1.49072e-07
6.44962e-06
-1.54739e-07
6.45912e-06
-1.60328e-07
6.46969e-06
-1.65851e-07
6.48145e-06
-1.71261e-07
6.49449e-06
-1.76469e-07
6.50887e-06
-1.81377e-07
6.52459e-06
-1.85785e-07
-1.89547e-07
6.54169e-06
5.55665e-06
-4.66557e-08
5.57114e-06
-8.79647e-08
5.5853e-06
-1.03287e-07
5.60222e-06
-1.19026e-07
5.62134e-06
-1.32934e-07
5.64201e-06
-1.43659e-07
5.66391e-06
-1.52364e-07
5.6867e-06
-1.59892e-07
5.71001e-06
-1.66555e-07
5.73349e-06
-1.72557e-07
5.7568e-06
-1.7804e-07
5.77953e-06
-1.83068e-07
5.80133e-06
-1.87649e-07
5.82182e-06
-1.91746e-07
5.84062e-06
-1.95266e-07
5.85738e-06
-1.9814e-07
5.87179e-06
-2.00197e-07
-2.01777e-07
5.88402e-06
4.89347e-06
-1.12519e-07
4.95257e-06
-1.4706e-07
5.00291e-06
-1.53631e-07
5.04334e-06
-1.59454e-07
5.07199e-06
-1.61583e-07
5.0889e-06
-1.6057e-07
5.09474e-06
-1.58209e-07
5.09021e-06
-1.55361e-07
5.07598e-06
-1.52324e-07
5.05268e-06
-1.49252e-07
5.02085e-06
-1.46217e-07
4.98101e-06
-1.43223e-07
4.9336e-06
-1.40236e-07
4.87905e-06
-1.37198e-07
4.81781e-06
-1.34028e-07
4.75035e-06
-1.3068e-07
4.67717e-06
-1.2702e-07
-1.23226e-07
4.59862e-06
4.09016e-06
3.9431e-06
3.78947e-06
3.63001e-06
3.46843e-06
3.30786e-06
3.14965e-06
2.99429e-06
2.84196e-06
2.69271e-06
2.5465e-06
2.40327e-06
2.26304e-06
2.12584e-06
1.99181e-06
1.86113e-06
1.73411e-06
1.61088e-06
2.52424e-07
-2.52424e-07
8.17895e-07
-5.65471e-07
1.42341e-06
-6.05511e-07
1.93442e-06
-5.11018e-07
2.30797e-06
-3.73545e-07
2.5404e-06
-2.3243e-07
2.64384e-06
-1.03446e-07
2.63896e-06
4.88026e-09
2.52823e-06
1.10732e-07
2.34294e-06
1.85293e-07
2.1162e-06
2.26735e-07
1.88663e-06
2.29576e-07
1.69121e-06
1.95422e-07
1.54938e-06
1.4183e-07
1.43547e-06
1.13909e-07
1.29544e-06
1.40023e-07
1.07836e-06
2.17081e-07
7.34041e-07
3.44321e-07
2.2996e-07
5.04082e-07
-4.34631e-07
6.64591e-07
-1.23661e-06
8.01975e-07
-2.14319e-06
9.06582e-07
-3.11588e-06
9.72697e-07
-4.11502e-06
9.99131e-07
-5.10321e-06
9.88194e-07
-6.04762e-06
9.4441e-07
-6.9209e-06
8.73276e-07
-7.70071e-06
7.79815e-07
-8.37065e-06
6.6994e-07
-8.92038e-06
5.49727e-07
-9.34511e-06
4.24732e-07
-9.64462e-06
2.99508e-07
-9.82277e-06
1.78156e-07
-9.88667e-06
6.39008e-08
-9.85317e-06
-3.35026e-08
-9.73874e-06
-1.14428e-07
-9.55527e-06
-1.83477e-07
-9.31346e-06
-2.41811e-07
-9.02212e-06
-2.91338e-07
-8.68855e-06
-3.33569e-07
-8.31884e-06
-3.6971e-07
-7.91798e-06
-4.00859e-07
-7.48989e-06
-4.28087e-07
-7.03761e-06
-4.5228e-07
-6.56353e-06
-4.74085e-07
-6.06968e-06
-4.93842e-07
-5.55822e-06
-5.11467e-07
-5.03171e-06
-5.26511e-07
-4.49344e-06
-5.38263e-07
-3.94751e-06
-5.45932e-07
-3.39866e-06
-5.48848e-07
-2.85207e-06
-5.46598e-07
-2.31294e-06
-5.39129e-07
-1.78612e-06
-5.26816e-07
-1.2756e-06
-5.10524e-07
-7.83935e-07
-4.91663e-07
-3.11774e-07
-4.72161e-07
1.41495e-07
-4.53269e-07
5.76127e-07
-4.34632e-07
9.93377e-07
-4.17249e-07
1.39545e-06
-4.0207e-07
1.78357e-06
-3.88127e-07
2.15816e-06
-3.74587e-07
2.51983e-06
-3.61667e-07
2.86936e-06
-3.49536e-07
3.20727e-06
-3.37911e-07
3.53329e-06
-3.26014e-07
3.84631e-06
-3.1302e-07
4.14459e-06
-2.98286e-07
4.42635e-06
-2.81754e-07
4.68994e-06
-2.63588e-07
4.92587e-06
-2.35933e-07
5.09015e-06
-1.64282e-07
5.10712e-06
-1.69699e-08
4.91844e-06
1.88686e-07
4.57601e-06
3.42426e-07
4.18954e-06
3.86473e-07
3.86333e-06
3.26204e-07
3.64817e-06
2.15164e-07
3.53835e-06
1.09817e-07
3.50771e-06
3.06449e-08
3.53954e-06
-3.183e-08
3.60913e-06
-6.959e-08
3.63389e-06
-2.47606e-08
3.56553e-06
6.83611e-08
3.44009e-06
1.25434e-07
3.35255e-06
8.75368e-08
3.34429e-06
8.25996e-09
3.37752e-06
-3.32226e-08
3.40685e-06
-2.93325e-08
3.4455e-06
-3.86493e-08
3.52689e-06
-8.13951e-08
3.62909e-06
-1.02201e-07
3.66701e-06
-3.79128e-08
3.54697e-06
1.20039e-07
3.17348e-06
3.73487e-07
2.46342e-06
7.10058e-07
1.40783e-06
1.05559e-06
8.0516e-08
1.32732e-06
-1.40223e-06
1.48275e-06
-2.92572e-06
1.52349e-06
-4.39563e-06
1.46991e-06
-5.7452e-06
1.34956e-06
-6.93034e-06
1.18514e-06
-7.92817e-06
9.97831e-07
-8.72909e-06
8.00917e-07
-9.33076e-06
6.01668e-07
-9.73567e-06
4.0491e-07
-9.95166e-06
2.15995e-07
-9.98542e-06
3.37584e-08
-9.87331e-06
-1.12107e-07
-9.63071e-06
-2.42605e-07
-9.26943e-06
-3.61276e-07
-8.79797e-06
-4.71463e-07
-8.22237e-06
-5.756e-07
-7.54656e-06
-6.75805e-07
-6.77222e-06
-7.7434e-07
-5.89885e-06
-8.73372e-07
-4.92474e-06
-9.74111e-07
-3.84882e-06
-1.07592e-06
-2.67374e-06
-1.17508e-06
-1.40904e-06
-1.26469e-06
-6.97372e-08
-1.3393e-06
1.31467e-06
-1.38441e-06
2.70603e-06
-1.39136e-06
4.05752e-06
-1.35149e-06
5.32285e-06
-1.26532e-06
6.46179e-06
-1.13894e-06
7.44161e-06
-9.79827e-07
8.23451e-06
-7.92896e-07
8.82076e-06
-5.86251e-07
9.16739e-06
-3.46627e-07
9.20005e-06
-3.26614e-08
8.83784e-06
3.62209e-07
8.14335e-06
6.94486e-07
7.23954e-06
9.03817e-07
6.27838e-06
9.61158e-07
5.39485e-06
8.83534e-07
4.66286e-06
7.3199e-07
4.08874e-06
5.74112e-07
3.63593e-06
4.52816e-07
3.25943e-06
3.76502e-07
2.92993e-06
3.29491e-07
2.63914e-06
2.90792e-07
2.3902e-06
2.48944e-07
2.18639e-06
2.03812e-07
2.02673e-06
1.59653e-07
1.90647e-06
1.20263e-07
1.81916e-06
8.7311e-08
1.75822e-06
6.09448e-08
1.71738e-06
4.08394e-08
1.69071e-06
2.66655e-08
1.67269e-06
1.80228e-08
1.6584e-06
1.42829e-08
1.64384e-06
1.45693e-08
1.62593e-06
1.79084e-08
1.60247e-06
2.34557e-08
1.57187e-06
3.06042e-08
1.53293e-06
3.89408e-08
1.48491e-06
4.80138e-08
1.42786e-06
5.70569e-08
1.36322e-06
6.46406e-08
1.29494e-06
6.82709e-08
1.23048e-06
6.44676e-08
1.18016e-06
5.03153e-08
1.15342e-06
2.67418e-08
1.15468e-06
-1.2611e-09
1.18283e-06
-2.81499e-08
1.23678e-06
-5.39537e-08
1.31766e-06
-8.08795e-08
1.42972e-06
-1.12061e-07
1.57871e-06
-1.48988e-07
1.7695e-06
-1.90791e-07
2.00619e-06
-2.36682e-07
2.29095e-06
-2.84768e-07
2.60091e-06
-3.09959e-07
2.84501e-06
-2.44095e-07
2.90968e-06
-6.46754e-08
2.78782e-06
1.21866e-07
1.61636e-07
2.62618e-06
5.18611e-07
-7.71035e-07
1.1301e-06
-1.17695e-06
1.61814e-06
-1.09355e-06
1.97878e-06
-8.71656e-07
2.22833e-06
-6.23103e-07
2.3771e-06
-3.81197e-07
2.43308e-06
-1.5943e-07
2.40087e-06
3.7092e-08
2.28974e-06
2.21863e-07
2.10426e-06
3.70771e-07
1.85065e-06
4.80353e-07
1.53327e-06
5.46954e-07
1.13511e-06
5.93584e-07
6.15033e-07
6.61903e-07
-6.95602e-08
7.98502e-07
-9.3209e-07
1.00255e-06
-1.94319e-06
1.22818e-06
-3.04463e-06
1.44576e-06
-4.17649e-06
1.63595e-06
-5.29324e-06
1.78134e-06
-6.36049e-06
1.86923e-06
-7.34815e-06
1.89424e-06
-8.23285e-06
1.8574e-06
-8.99889e-06
1.76517e-06
-9.63829e-06
1.62759e-06
-1.01502e-05
1.45628e-06
-1.05397e-05
1.26281e-06
-1.08174e-05
1.0575e-06
-1.09964e-05
8.48943e-07
-1.1091e-05
6.44311e-07
-1.11151e-05
4.48854e-07
-1.10811e-05
2.65545e-07
-1.09999e-05
9.69173e-08
-1.08772e-05
-5.87792e-08
-1.07098e-05
-2.00933e-07
-1.04947e-05
-3.29547e-07
-1.02319e-05
-4.46257e-07
-9.92366e-06
-5.50036e-07
-9.57403e-06
-6.40961e-07
-9.18771e-06
-7.19895e-07
-8.76916e-06
-7.88252e-07
-8.3223e-06
-8.47726e-07
-7.85039e-06
-8.99996e-07
-7.35604e-06
-9.46631e-07
-6.84124e-06
-9.88884e-07
-6.30767e-06
-1.02741e-06
-5.75714e-06
-1.062e-06
-5.19207e-06
-1.09157e-06
-4.61587e-06
-1.11447e-06
-4.03292e-06
-1.12888e-06
-3.44844e-06
-1.13333e-06
-2.86789e-06
-1.12714e-06
-2.29659e-06
-1.11043e-06
-1.73907e-06
-1.08434e-06
-1.19862e-06
-1.05097e-06
-6.7718e-07
-1.0131e-06
-1.75899e-07
-9.73442e-07
3.04434e-07
-9.33602e-07
7.6495e-07
-8.95148e-07
1.20682e-06
-8.59119e-07
1.63124e-06
-8.26489e-07
2.0403e-06
-7.97184e-07
2.43636e-06
-7.70651e-07
2.82127e-06
-7.46576e-07
3.1963e-06
-7.24565e-07
3.56247e-06
-7.04083e-07
3.92075e-06
-6.84297e-07
4.27143e-06
-6.63697e-07
4.61356e-06
-6.40419e-07
4.94422e-06
-6.12408e-07
5.25764e-06
-5.7701e-07
5.55227e-06
-5.30569e-07
5.85532e-06
-4.67325e-07
6.21232e-06
-3.73975e-07
6.63633e-06
-2.3532e-07
7.05465e-06
-7.58946e-08
7.38817e-06
5.29503e-08
7.57876e-06
1.35619e-07
7.58561e-06
2.0831e-07
7.36744e-06
3.27984e-07
6.90844e-06
4.89646e-07
6.2636e-06
6.13017e-07
5.57268e-06
6.21323e-07
5.01947e-06
5.28455e-07
4.69103e-06
3.96802e-07
4.5861e-06
2.30359e-07
4.68431e-06
-1.06681e-08
4.9416e-06
-2.49033e-07
5.20331e-06
-2.94934e-07
5.28374e-06
-1.0976e-07
5.16659e-06
7.85063e-08
4.96928e-06
1.15914e-07
4.71931e-06
1.47769e-07
4.22825e-06
4.53145e-07
3.25603e-06
1.09226e-06
1.75154e-06
1.87797e-06
-1.17549e-07
2.57915e-06
-2.10366e-06
3.0417e-06
-4.00203e-06
3.22568e-06
-5.68521e-06
3.16594e-06
-7.08985e-06
2.92813e-06
-8.20398e-06
2.58404e-06
-9.04773e-06
2.19331e-06
-9.65847e-06
1.79588e-06
-1.00754e-05
1.41474e-06
-1.03341e-05
1.05969e-06
-1.04653e-05
7.32782e-07
-1.04915e-05
4.31118e-07
-1.04263e-05
1.50815e-07
-1.02817e-05
-1.10865e-07
-1.00378e-05
-3.56008e-07
-9.68812e-06
-5.92244e-07
-9.23475e-06
-8.1465e-07
-8.68252e-06
-1.02369e-06
-8.03651e-06
-1.22161e-06
-7.30018e-06
-1.41214e-06
-6.47455e-06
-1.59997e-06
-5.55807e-06
-1.78986e-06
-4.54719e-06
-1.98498e-06
-3.43865e-06
-2.18447e-06
-2.23141e-06
-2.38231e-06
-9.30345e-07
-2.56576e-06
4.48939e-07
-2.71859e-06
1.87611e-06
-2.81158e-06
3.31211e-06
-2.82736e-06
4.71465e-06
-2.75404e-06
6.0426e-06
-2.59327e-06
7.26015e-06
-2.3565e-06
8.34026e-06
-2.05993e-06
9.26684e-06
-1.71948e-06
1.00269e-05
-1.34632e-06
1.06283e-05
-9.48007e-07
1.11251e-05
-5.29489e-07
1.15387e-05
-5.1334e-08
1.1776e-05
4.57138e-07
1.17348e-05
9.45064e-07
1.13746e-05
1.32131e-06
1.07209e-05
1.53723e-06
9.85208e-06
1.60083e-06
8.87155e-06
1.55463e-06
7.88105e-06
1.44332e-06
6.95947e-06
1.29808e-06
6.15194e-06
1.13702e-06
5.47213e-06
9.70604e-07
4.91407e-06
8.07005e-07
4.46412e-06
6.53758e-07
4.10711e-06
5.16661e-07
3.82856e-06
3.98815e-07
3.61498e-06
3.00897e-07
3.45381e-06
2.22107e-07
3.3335e-06
1.61154e-07
3.24358e-06
1.16581e-07
3.17503e-06
8.65727e-08
3.12056e-06
6.87567e-08
3.07481e-06
6.03225e-08
3.03424e-06
5.84723e-08
2.99673e-06
6.09639e-08
2.96089e-06
6.64468e-08
2.92535e-06
7.44782e-08
2.88843e-06
8.49411e-08
2.84814e-06
9.73452e-08
2.80263e-06
1.10149e-07
2.75081e-06
1.20087e-07
2.69302e-06
1.2226e-07
2.63157e-06
1.11764e-07
2.57138e-06
8.69314e-08
2.51984e-06
5.0283e-08
2.48613e-06
5.5569e-09
2.47763e-06
-4.54549e-08
2.50034e-06
-1.03582e-07
2.55821e-06
-1.69939e-07
2.65347e-06
-2.44245e-07
2.78627e-06
-3.23595e-07
2.95946e-06
-4.09867e-07
3.18771e-06
-5.13023e-07
3.48639e-06
-6.08632e-07
3.8221e-06
-5.79809e-07
4.07542e-06
-3.17991e-07
4.085e-06
1.1228e-07
4.69277e-07
3.77736e-06
5.51545e-07
-1.32258e-06
9.13758e-07
-1.53917e-06
1.12015e-06
-1.29994e-06
1.24784e-06
-9.99352e-07
1.31111e-06
-6.86369e-07
1.30331e-06
-3.73394e-07
1.2171e-06
-7.32171e-08
1.04007e-06
2.1412e-07
7.87102e-07
4.74828e-07
4.47635e-07
7.10238e-07
2.31064e-09
9.25677e-07
-5.84803e-07
1.13407e-06
-1.34664e-06
1.35542e-06
-2.28542e-06
1.60068e-06
-3.34605e-06
1.85913e-06
-4.44896e-06
2.10546e-06
-5.53445e-06
2.31367e-06
-6.55577e-06
2.46709e-06
-7.47654e-06
2.55671e-06
-8.27449e-06
2.57929e-06
-8.94216e-06
2.5369e-06
-9.48439e-06
2.43647e-06
-9.91523e-06
2.28823e-06
-1.02538e-05
2.10376e-06
-1.05203e-05
1.89411e-06
-1.07325e-05
1.6685e-06
-1.09035e-05
1.43371e-06
-1.10403e-05
1.19433e-06
-1.11447e-05
9.53358e-07
-1.12134e-05
7.12994e-07
-1.124e-05
4.75513e-07
-1.12183e-05
2.4381e-07
-1.11386e-05
1.72274e-08
-1.10059e-05
-1.91476e-07
-1.08172e-05
-3.89603e-07
-1.05764e-05
-5.70385e-07
-1.02904e-05
-7.32217e-07
-9.96556e-06
-8.74925e-07
-9.60705e-06
-9.99468e-07
-9.21917e-06
-1.10778e-06
-8.80495e-06
-1.20248e-06
-8.36617e-06
-1.2865e-06
-7.90349e-06
-1.36267e-06
-7.41678e-06
-1.43334e-06
-6.90565e-06
-1.50001e-06
-6.37006e-06
-1.563e-06
-5.81075e-06
-1.62131e-06
-5.22982e-06
-1.6725e-06
-4.6313e-06
-1.71299e-06
-4.02136e-06
-1.73882e-06
-3.40785e-06
-1.74684e-06
-2.79924e-06
-1.73576e-06
-2.20335e-06
-1.70632e-06
-1.62644e-06
-1.66124e-06
-1.07287e-06
-1.60455e-06
-5.44621e-07
-1.54135e-06
-4.2051e-08
-1.47601e-06
4.36969e-07
-1.41262e-06
8.93972e-07
-1.35215e-06
1.33139e-06
-1.29654e-06
1.75127e-06
-1.24637e-06
2.15576e-06
-1.20167e-06
2.54729e-06
-1.16218e-06
2.92821e-06
-1.12749e-06
3.3006e-06
-1.09696e-06
3.66612e-06
-1.0696e-06
4.0258e-06
-1.04398e-06
4.38001e-06
-1.0179e-06
4.72822e-06
-9.88631e-07
5.06926e-06
-9.53449e-07
5.40168e-06
-9.09433e-07
5.72381e-06
-8.52698e-07
6.03602e-06
-7.7953e-07
6.34774e-06
-6.857e-07
6.67968e-06
-5.67261e-07
7.03538e-06
-4.31586e-07
7.38289e-06
-2.9456e-07
7.68121e-06
-1.62701e-07
7.91408e-06
-2.45635e-08
8.05811e-06
1.8395e-07
8.06898e-06
4.78775e-07
7.84386e-06
8.38143e-07
7.31626e-06
1.14892e-06
6.55762e-06
1.28709e-06
5.75292e-06
1.2015e-06
5.09662e-06
8.86664e-07
4.73967e-06
3.4628e-07
4.73081e-06
-2.40172e-07
4.96247e-06
-5.26599e-07
5.20074e-06
-3.48025e-07
5.22566e-06
5.35829e-08
4.92086e-06
4.20711e-07
4.15914e-06
9.09497e-07
2.80946e-06
1.80282e-06
9.43704e-07
2.95802e-06
-1.12689e-06
3.94857e-06
-3.08513e-06
4.53738e-06
-4.75569e-06
4.71226e-06
-6.07861e-06
4.5486e-06
-7.07387e-06
4.1612e-06
-7.80632e-06
3.66058e-06
-8.35083e-06
3.12855e-06
-8.76931e-06
2.61179e-06
-9.10163e-06
2.1282e-06
-9.36529e-06
1.67839e-06
-9.56123e-06
1.25563e-06
-9.68083e-06
8.52379e-07
-9.71307e-06
4.63361e-07
-9.64297e-06
8.07154e-08
-9.47184e-06
-2.81998e-07
-9.19197e-06
-6.35878e-07
-8.81049e-06
-9.7372e-07
-8.33256e-06
-1.29259e-06
-7.764e-06
-1.59224e-06
-7.11042e-06
-1.87519e-06
-6.37569e-06
-2.14687e-06
-5.5608e-06
-2.41486e-06
-4.66371e-06
-2.68695e-06
-3.67991e-06
-2.96878e-06
-2.60344e-06
-3.26095e-06
-1.43007e-06
-3.55568e-06
-1.60485e-07
-3.83534e-06
1.18159e-06
-4.06066e-06
2.57344e-06
-4.20343e-06
3.97355e-06
-4.22747e-06
5.33759e-06
-4.11808e-06
6.6233e-06
-3.87898e-06
7.79597e-06
-3.52917e-06
8.8317e-06
-3.09567e-06
9.71842e-06
-2.6062e-06
1.04542e-05
-2.08214e-06
1.1042e-05
-1.53577e-06
1.14874e-05
-9.74901e-07
1.18384e-05
-4.02321e-07
1.21301e-05
1.65403e-07
1.23583e-05
7.16947e-07
1.24591e-05
1.22044e-06
1.23569e-05
1.63948e-06
1.20085e-05
1.9492e-06
1.14213e-05
2.14189e-06
1.06453e-05
2.2193e-06
9.75613e-06
2.18721e-06
8.83521e-06
2.05795e-06
7.95249e-06
1.85332e-06
7.15692e-06
1.60258e-06
6.47461e-06
1.33607e-06
5.91244e-06
1.07883e-06
5.46386e-06
8.47396e-07
5.11471e-06
6.50049e-07
4.84771e-06
4.89106e-07
4.64538e-06
3.63486e-07
4.49162e-06
2.70334e-07
4.37258e-06
2.05615e-07
4.27704e-06
1.64299e-07
4.19665e-06
1.40707e-07
4.1259e-06
1.29226e-07
4.06169e-06
1.25172e-07
4.00272e-06
1.25414e-07
3.94868e-06
1.28518e-07
3.89937e-06
1.34252e-07
3.85414e-06
1.42578e-07
3.81177e-06
1.52522e-07
3.77056e-06
1.61291e-07
3.72856e-06
1.6426e-07
3.68409e-06
1.5624e-07
3.63714e-06
1.33875e-07
3.59039e-06
9.70325e-08
3.54814e-06
4.78125e-08
3.51481e-06
-1.21266e-08
3.49462e-06
-8.33923e-08
3.49154e-06
-1.66857e-07
3.50862e-06
-2.61328e-07
3.54584e-06
-3.60811e-07
3.60514e-06
-4.69166e-07
3.70695e-06
-6.14839e-07
3.88591e-06
-7.87586e-07
4.13109e-06
-8.24996e-07
4.32187e-06
-5.08767e-07
4.25407e-06
1.80084e-07
9.6373e-07
3.75961e-06
2.58509e-07
-1.58109e-06
2.71645e-07
-1.5523e-06
2.26679e-07
-1.25498e-06
1.44374e-07
-9.17047e-07
1.13636e-08
-5.53359e-07
-1.88701e-07
-1.73329e-07
-4.66904e-07
2.04986e-07
-8.26255e-07
5.73472e-07
-1.28101e-06
9.29583e-07
-1.84466e-06
1.27389e-06
-2.52824e-06
1.60926e-06
-3.33052e-06
1.93634e-06
-4.22441e-06
2.24931e-06
-5.15722e-06
2.5335e-06
-6.06869e-06
2.77061e-06
-6.90978e-06
2.94655e-06
-7.65089e-06
3.05478e-06
-8.27906e-06
3.09526e-06
-8.79529e-06
3.07294e-06
-9.2122e-06
2.9962e-06
-9.5504e-06
2.87509e-06
-9.83346e-06
2.71953e-06
-1.00828e-05
2.5376e-06
-1.03137e-05
2.33466e-06
-1.05331e-05
2.11348e-06
-1.07397e-05
1.87509e-06
-1.09259e-05
1.61995e-06
-1.10807e-05
1.34911e-06
-1.11922e-05
1.06487e-06
-1.12503e-05
7.71083e-07
-1.12477e-05
4.72942e-07
-1.11807e-05
1.76731e-07
-1.10521e-05
-1.11347e-07
-1.08592e-05
-3.84336e-07
-1.0612e-05
-6.36786e-07
-1.03181e-05
-8.64339e-07
-9.98651e-06
-1.06379e-06
-9.62735e-06
-1.23408e-06
-9.25009e-06
-1.37673e-06
-8.86212e-06
-1.49574e-06
-8.46753e-06
-1.59707e-06
-8.06645e-06
-1.68759e-06
-7.65527e-06
-1.77385e-06
-7.22774e-06
-1.86088e-06
-6.77637e-06
-1.95139e-06
-6.29407e-06
-2.0453e-06
-5.77572e-06
-2.13967e-06
-5.21943e-06
-2.22879e-06
-4.62757e-06
-2.30485e-06
-4.00721e-06
-2.35919e-06
-3.36979e-06
-2.38425e-06
-2.72978e-06
-2.37576e-06
-2.10153e-06
-2.33457e-06
-1.49665e-06
-2.26612e-06
-9.22645e-07
-2.17855e-06
-3.8267e-07
-2.08133e-06
1.24111e-07
-1.98279e-06
6.00395e-07
-1.88891e-06
1.05085e-06
-1.80261e-06
1.47965e-06
-1.72534e-06
1.89039e-06
-1.65711e-06
2.28614e-06
-1.59742e-06
2.66958e-06
-1.54562e-06
3.04318e-06
-1.50109e-06
3.40931e-06
-1.46309e-06
3.77024e-06
-1.43054e-06
4.12789e-06
-1.40163e-06
4.48369e-06
-1.3737e-06
4.8384e-06
-1.34334e-06
5.19183e-06
-1.30688e-06
5.54341e-06
-1.26101e-06
5.89332e-06
-1.20261e-06
6.24275e-06
-1.12896e-06
6.59382e-06
-1.03677e-06
6.94874e-06
-9.22172e-07
7.301e-06
-7.83848e-07
7.62867e-06
-6.22231e-07
7.8985e-06
-4.32535e-07
8.08046e-06
-2.06525e-07
8.20149e-06
6.29202e-08
8.28447e-06
3.95801e-07
8.29308e-06
8.29531e-07
8.1061e-06
1.33591e-06
7.6252e-06
1.76799e-06
6.8939e-06
1.93281e-06
6.08754e-06
1.69302e-06
5.41615e-06
1.01767e-06
5.05453e-06
1.21451e-07
4.99897e-06
-4.7104e-07
5.01408e-06
-3.63135e-07
4.79202e-06
2.75645e-07
4.05565e-06
1.15707e-06
2.64044e-06
2.32471e-06
6.82849e-07
3.76041e-06
-1.37586e-06
5.01672e-06
-3.1736e-06
5.74632e-06
-4.5757e-06
5.93948e-06
-5.58584e-06
5.7224e-06
-6.2919e-06
5.25466e-06
-6.80571e-06
4.67501e-06
-7.21887e-06
4.07373e-06
-7.58393e-06
3.49362e-06
-7.91776e-06
2.94562e-06
-8.21483e-06
2.42527e-06
-8.46001e-06
1.92357e-06
-8.63658e-06
1.43221e-06
-8.72996e-06
9.45753e-07
-8.72889e-06
4.62294e-07
-8.63048e-06
-1.76967e-08
-8.42526e-06
-4.87217e-07
-8.11718e-06
-9.43963e-07
-7.70984e-06
-1.38105e-06
-7.20946e-06
-1.79297e-06
-6.62403e-06
-2.17768e-06