# y+ ()       
# Time        	patch         	min           	max           	average       
0.06          	upperWall	1.573662e-01	1.879284e+01	3.088666e+00
0.06          	lowerWall	9.637424e-03	1.499262e+01	2.751978e+00
