/*--------------------------------*- C++ -*----------------------------------*\
| =========                 |                                                 |
| \\      /  F ield         | OpenFOAM: The Open Source CFD Toolbox           |
|  \\    /   O peration     | Version:  2112                                  |
|   \\  /    A nd           | Website:  www.openfoam.com                      |
|    \\/     M anipulation  |                                                 |
\*---------------------------------------------------------------------------*/
FoamFile
{
    version     2.0;
    format      ascii;
    arch        "LSB;label=32;scalar=64";
    class       surfaceScalarField;
    location    "0.23";
    object      phi_0;
}
// * * * * * * * * * * * * * * * * * * * * * * * * * * * * * * * * * * * * * //

dimensions      [0 3 -1 0 0 0 0];

oriented        oriented;

internalField   nonuniform List<scalar> 
24170
(
3.1057e-06
8.27032e-08
3.00008e-06
1.05623e-07
2.89259e-06
1.07491e-07
2.78436e-06
1.08229e-07
2.67958e-06
1.04778e-07
2.58192e-06
9.76647e-08
2.4927e-06
8.92155e-08
2.41213e-06
8.05681e-08
2.33995e-06
7.21878e-08
2.27569e-06
6.42549e-08
2.21857e-06
5.71251e-08
2.16824e-06
5.03291e-08
2.12372e-06
4.45137e-08
2.08494e-06
3.87809e-08
2.05123e-06
3.37107e-08
2.02188e-06
2.93463e-08
1.9997e-06
2.21848e-08
2.17855e-08
1.97791e-06
3.43196e-06
6.7994e-08
3.43689e-06
1.00691e-07
3.43581e-06
1.08575e-07
3.42966e-06
1.1437e-07
3.41788e-06
1.16566e-07
3.40137e-06
1.14174e-07
3.3816e-06
1.08986e-07
3.35966e-06
1.02505e-07
3.33647e-06
9.53796e-08
3.31278e-06
8.79384e-08
3.28915e-06
8.07553e-08
3.26605e-06
7.34279e-08
3.24372e-06
6.68501e-08
3.22254e-06
5.996e-08
3.20243e-06
5.38163e-08
3.18433e-06
4.74508e-08
3.16631e-06
4.02026e-08
3.56486e-08
3.15245e-06
3.67309e-06
5.74168e-08
3.6812e-06
9.25808e-08
3.68646e-06
1.03315e-07
3.69089e-06
1.09941e-07
3.69448e-06
1.12978e-07
3.69683e-06
1.11822e-07
3.69798e-06
1.07839e-07
3.69803e-06
1.02456e-07
3.69714e-06
9.62732e-08
3.69538e-06
8.96938e-08
3.69305e-06
8.3086e-08
3.69013e-06
7.63525e-08
3.68701e-06
6.99646e-08
3.68355e-06
6.342e-08
3.68019e-06
5.71813e-08
3.67687e-06
5.07646e-08
3.67308e-06
4.39952e-08
3.7395e-08
3.67133e-06
3.93426e-06
4.85421e-08
3.94242e-06
8.44212e-08
3.94831e-06
9.74282e-08
3.9535e-06
1.04755e-07
3.9583e-06
1.08176e-07
3.96254e-06
1.07583e-07
3.96614e-06
1.04237e-07
3.96918e-06
9.9416e-08
3.97175e-06
9.37024e-08
3.97386e-06
8.75816e-08
3.97566e-06
8.12909e-08
3.97711e-06
7.49039e-08
3.97841e-06
6.8662e-08
3.97947e-06
6.23586e-08
3.98051e-06
5.61404e-08
3.98145e-06
4.98285e-08
3.9822e-06
4.32471e-08
3.66274e-08
3.98296e-06
4.21492e-06
4.07512e-08
4.22316e-06
7.61747e-08
4.22947e-06
9.11182e-08
4.23499e-06
9.92367e-08
4.24014e-06
1.03028e-07
4.24484e-06
1.02882e-07
4.249e-06
1.00073e-07
4.25272e-06
9.56959e-08
4.25605e-06
9.03748e-08
4.25902e-06
8.46091e-08
4.26172e-06
7.85957e-08
4.26415e-06
7.24727e-08
4.26641e-06
6.64021e-08
4.26848e-06
6.0286e-08
4.27044e-06
5.41793e-08
4.27226e-06
4.80083e-08
4.27382e-06
4.16936e-08
3.54128e-08
4.27503e-06
4.51586e-06
3.39749e-08
4.52412e-06
6.79134e-08
4.53102e-06
8.42262e-08
4.53698e-06
9.32735e-08
4.5425e-06
9.75083e-08
4.54755e-06
9.78275e-08
4.5521e-06
9.55296e-08
4.55622e-06
9.15755e-08
4.55994e-06
8.66484e-08
4.56333e-06
8.12202e-08
4.56644e-06
7.54909e-08
4.56929e-06
6.96235e-08
4.57193e-06
6.37608e-08
4.57437e-06
5.78404e-08
4.57665e-06
5.19058e-08
4.57872e-06
4.5934e-08
4.5805e-06
3.9912e-08
3.39805e-08
4.58194e-06
4.83849e-06
2.82044e-08
4.84645e-06
5.99579e-08
4.85383e-06
7.68461e-08
4.86048e-06
8.66174e-08
4.8666e-06
9.1388e-08
4.87212e-06
9.2305e-08
4.87709e-06
9.05629e-08
4.88159e-06
8.70774e-08
4.88566e-06
8.25763e-08
4.88939e-06
7.74883e-08
4.89282e-06
7.20624e-08
4.89597e-06
6.64712e-08
4.89888e-06
6.08514e-08
4.90157e-06
5.51537e-08
4.90404e-06
4.94393e-08
4.90626e-06
4.37094e-08
4.90818e-06
3.79915e-08
3.24099e-08
4.90975e-06
5.18446e-06
2.33278e-08
5.19181e-06
5.26026e-08
5.19931e-06
6.93528e-08
5.20656e-06
7.9367e-08
5.2134e-06
8.45413e-08
5.21966e-06
8.6051e-08
5.22528e-06
8.49437e-08
5.23029e-06
8.20643e-08
5.23477e-06
7.80926e-08
5.23887e-06
7.33943e-08
5.24261e-06
6.83157e-08
5.24605e-06
6.3037e-08
5.24921e-06
5.76879e-08
5.25212e-06
5.22481e-08
5.25476e-06
4.67966e-08
5.25713e-06
4.13434e-08
5.25918e-06
3.59388e-08
3.07033e-08
5.26089e-06
5.55543e-06
1.92306e-08
5.5621e-06
4.5936e-08
5.56941e-06
6.20447e-08
5.57691e-06
7.18662e-08
5.58428e-06
7.71745e-08
5.59124e-06
7.90838e-08
5.59765e-06
7.85373e-08
5.60343e-06
7.62872e-08
5.60859e-06
7.29254e-08
5.61323e-06
6.87573e-08
5.6174e-06
6.41456e-08
5.62117e-06
5.92655e-08
5.62462e-06
5.42403e-08
5.62775e-06
4.91153e-08
5.63058e-06
4.39727e-08
5.6331e-06
3.88224e-08
5.6353e-06
3.37401e-08
2.88447e-08
5.63716e-06
5.95316e-06
1.58423e-08
5.95918e-06
3.99159e-08
5.96618e-06
5.50447e-08
5.97368e-06
6.43719e-08
5.98128e-06
6.95689e-08
5.98869e-06
7.16735e-08
5.99571e-06
7.15226e-08
6.00222e-06
6.97768e-08
6.00819e-06
6.69573e-08
6.01359e-06
6.33571e-08
6.01845e-06
5.92862e-08
6.0228e-06
5.49087e-08
6.02671e-06
5.0333e-08
6.03018e-06
4.56465e-08
6.03325e-06
4.09062e-08
6.03595e-06
3.61165e-08
6.03831e-06
3.13867e-08
2.68226e-08
6.04033e-06
6.37957e-06
1.30828e-08
6.38504e-06
3.44463e-08
6.3917e-06
4.83849e-08
6.39905e-06
5.70189e-08
6.4067e-06
6.19206e-08
6.41432e-06
6.40579e-08
6.42169e-06
6.41533e-08
6.42869e-06
6.27734e-08
6.43527e-06
6.03783e-08
6.44137e-06
5.72609e-08
6.44697e-06
5.36819e-08
6.45208e-06
4.98035e-08
6.45668e-06
4.57299e-08
6.46077e-06
4.15561e-08
6.46435e-06
3.73272e-08
6.46742e-06
3.30467e-08
6.47001e-06
2.87935e-08
2.46111e-08
6.47222e-06
5.74279e-06
1.11271e-08
5.74707e-06
3.01615e-08
5.75245e-06
4.3012e-08
5.75848e-06
5.09828e-08
5.76489e-06
5.55173e-08
5.77138e-06
5.75698e-08
5.77775e-06
5.77822e-08
5.78388e-06
5.66366e-08
5.78973e-06
5.45325e-08
5.79524e-06
5.17512e-08
5.80039e-06
4.85268e-08
5.80518e-06
4.5018e-08
5.80958e-06
4.13306e-08
5.81358e-06
3.75573e-08
5.81715e-06
3.37518e-08
5.82026e-06
2.9935e-08
5.8229e-06
2.61582e-08
2.24279e-08
5.82508e-06
7.00007e-06
9.21019e-09
7.00467e-06
2.55672e-08
7.01057e-06
3.71081e-08
7.01726e-06
4.42965e-08
7.02446e-06
4.83134e-08
7.03188e-06
5.01471e-08
7.03927e-06
5.03942e-08
7.04646e-06
4.94449e-08
7.05338e-06
4.76202e-08
7.05995e-06
4.51717e-08
7.06618e-06
4.23064e-08
7.07202e-06
3.91718e-08
7.07748e-06
3.58736e-08
7.08254e-06
3.25005e-08
7.08717e-06
2.91175e-08
7.09134e-06
2.57693e-08
7.095e-06
2.24972e-08
1.93188e-08
7.09811e-06
8.53272e-06
7.33515e-09
8.53758e-06
2.0708e-08
8.54409e-06
3.05982e-08
8.55145e-06
3.69345e-08
8.55944e-06
4.03272e-08
8.5678e-06
4.17817e-08
8.57625e-06
4.19456e-08
8.58457e-06
4.1127e-08
8.59263e-06
3.95586e-08
8.60036e-06
3.7443e-08
8.60772e-06
3.49522e-08
8.61467e-06
3.22147e-08
8.62122e-06
2.93278e-08
8.62735e-06
2.63716e-08
8.63305e-06
2.34111e-08
8.63832e-06
2.05036e-08
8.64312e-06
1.7698e-08
1.50345e-08
8.6474e-06
1.04011e-05
5.4867e-09
1.04061e-05
1.56556e-08
1.04133e-05
2.34664e-08
1.04215e-05
2.87014e-08
1.04303e-05
3.14692e-08
1.04397e-05
3.24586e-08
1.04492e-05
3.24009e-08
1.04587e-05
3.16151e-08
1.0468e-05
3.02539e-08
1.0477e-05
2.84571e-08
1.04856e-05
2.63533e-08
1.04938e-05
2.40445e-08
1.05015e-05
2.16107e-08
1.05088e-05
1.91171e-08
1.05155e-05
1.66194e-08
1.05219e-05
1.4172e-08
1.05278e-05
1.18228e-08
9.61822e-09
1.05332e-05
1.26786e-05
3.62911e-09
1.26839e-05
1.042e-08
1.26916e-05
1.5762e-08
1.27008e-05
1.94529e-08
1.27108e-05
2.14579e-08
1.27213e-05
2.19886e-08
1.27321e-05
2.16412e-08
1.27429e-05
2.07968e-08
1.27536e-05
1.95801e-08
1.2764e-05
1.80721e-08
1.2774e-05
1.63538e-08
1.27835e-05
1.44956e-08
1.27926e-05
1.25541e-08
1.28011e-05
1.05759e-08
1.28091e-05
8.60327e-09
1.28166e-05
6.67753e-09
1.28236e-05
4.83291e-09
3.10307e-09
1.28301e-05
1.54551e-05
1.70114e-09
1.54606e-05
4.91484e-09
1.54689e-05
7.43769e-09
1.54793e-05
9.13181e-09
1.54907e-05
9.97486e-09
1.55028e-05
9.96829e-09
1.55151e-05
9.31932e-09
1.55275e-05
8.38919e-09
1.55398e-05
7.28821e-09
1.55518e-05
6.05273e-09
1.55634e-05
4.72136e-09
1.55746e-05
3.33262e-09
1.55852e-05
1.91825e-09
1.55953e-05
5.04626e-10
1.56048e-05
-8.85179e-10
1.56137e-05
-2.23261e-09
1.56221e-05
-3.52345e-09
-4.72768e-09
1.56299e-05
1.88397e-05
-4.00222e-10
1.88458e-05
-1.11022e-09
1.8855e-05
-1.80155e-09
1.88667e-05
-2.52555e-09
1.88799e-05
-3.31159e-09
1.88941e-05
-4.1858e-09
1.89086e-05
-5.16262e-09
1.89231e-05
-6.14494e-09
1.89375e-05
-7.11171e-09
1.89516e-05
-8.05364e-09
1.89653e-05
-8.96399e-09
1.89785e-05
-9.83602e-09
1.89911e-05
-1.06654e-08
1.9003e-05
-1.14512e-08
1.90143e-05
-1.21955e-08
1.9025e-05
-1.28999e-08
1.9035e-05
-1.3542e-08
-1.40534e-08
1.90443e-05
2.29658e-05
-2.87516e-09
2.2973e-05
-8.26036e-09
2.2984e-05
-1.27947e-08
2.29979e-05
-1.64356e-08
2.30138e-05
-1.92457e-08
2.30309e-05
-2.12735e-08
2.30484e-05
-2.26524e-08
2.30659e-05
-2.36896e-08
2.30833e-05
-2.44857e-08
2.31003e-05
-2.50688e-08
2.31168e-05
-2.54699e-08
2.31327e-05
-2.57239e-08
2.31479e-05
-2.58625e-08
2.31624e-05
-2.59103e-08
2.3176e-05
-2.5879e-08
2.31889e-05
-2.57555e-08
2.32009e-05
-2.54972e-08
-2.50956e-08
2.32119e-05
1.68127e-05
-4.9102e-09
1.68185e-05
-1.40547e-08
1.68273e-05
-2.15563e-08
1.68382e-05
-2.73202e-08
1.68504e-05
-3.14677e-08
1.68633e-05
-3.41628e-08
1.68765e-05
-3.58347e-08
1.68897e-05
-3.69224e-08
1.69028e-05
-3.75759e-08
1.69156e-05
-3.78623e-08
1.6928e-05
-3.78543e-08
1.69399e-05
-3.76228e-08
1.69512e-05
-3.72131e-08
1.6962e-05
-3.66505e-08
1.6972e-05
-3.59369e-08
1.69813e-05
-3.50434e-08
1.69898e-05
-3.40063e-08
-3.29125e-08
1.69976e-05
1.46367e-05
-7.05184e-09
1.46427e-05
-2.00277e-08
1.46514e-05
-3.02735e-08
1.46618e-05
-3.7763e-08
1.46732e-05
-4.28208e-08
1.4685e-05
-4.59799e-08
1.46971e-05
-4.79227e-08
1.47092e-05
-4.90384e-08
1.47212e-05
-4.9509e-08
1.47327e-05
-4.94595e-08
1.47439e-05
-4.8994e-08
1.47545e-05
-4.82189e-08
1.47644e-05
-4.71726e-08
1.47737e-05
-4.58712e-08
1.47821e-05
-4.43664e-08
1.47898e-05
-4.27124e-08
1.47968e-05
-4.10224e-08
-3.93729e-08
1.48032e-05
1.27426e-05
-9.51697e-09
1.27491e-05
-2.65155e-08
1.2758e-05
-3.9144e-08
1.2768e-05
-4.78526e-08
1.27788e-05
-5.35311e-08
1.27899e-05
-5.7119e-08
1.28012e-05
-5.92182e-08
1.28123e-05
-6.01969e-08
1.28232e-05
-6.03383e-08
1.28335e-05
-5.98109e-08
1.28432e-05
-5.87143e-08
1.28522e-05
-5.72113e-08
1.28605e-05
-5.53937e-08
1.28679e-05
-5.3326e-08
1.28747e-05
-5.11345e-08
1.28809e-05
-4.89432e-08
1.28867e-05
-4.67908e-08
-4.47034e-08
1.2892e-05
1.1094e-05
-1.26104e-08
1.11012e-05
-3.37165e-08
1.11102e-05
-4.81681e-08
1.112e-05
-5.76372e-08
1.11303e-05
-6.37853e-08
1.11408e-05
-6.75971e-08
1.11511e-05
-6.95584e-08
1.1161e-05
-7.01406e-08
1.11704e-05
-6.96975e-08
1.11791e-05
-6.849e-08
1.1187e-05
-6.6673e-08
1.11943e-05
-6.44363e-08
1.12008e-05
-6.19639e-08
1.12069e-05
-5.93807e-08
1.12125e-05
-5.67429e-08
1.12177e-05
-5.41391e-08
1.12225e-05
-5.15976e-08
-4.91411e-08
1.12269e-05
9.6594e-06
-1.67951e-08
9.66736e-06
-4.16814e-08
9.67642e-06
-5.72245e-08
9.6858e-06
-6.70206e-08
9.69528e-06
-7.3262e-08
9.70459e-06
-7.69047e-08
9.71351e-06
-7.84804e-08
9.72188e-06
-7.85121e-08
9.72957e-06
-7.73906e-08
9.7366e-06
-7.55151e-08
9.74308e-06
-7.31505e-08
9.74906e-06
-7.04213e-08
9.75458e-06
-6.74833e-08
9.75968e-06
-6.44778e-08
9.7644e-06
-6.14608e-08
9.76876e-06
-5.84982e-08
9.77278e-06
-5.56208e-08
-5.28485e-08
9.77649e-06
8.41087e-06
-2.23149e-08
8.41957e-06
-5.03761e-08
8.42826e-06
-6.59129e-08
8.43673e-06
-7.54927e-08
8.44498e-06
-8.15186e-08
8.45287e-06
-8.47892e-08
8.46033e-06
-8.59422e-08
8.4673e-06
-8.54839e-08
8.47376e-06
-8.38503e-08
8.4797e-06
-8.14577e-08
8.48518e-06
-7.86244e-08
8.49023e-06
-7.54712e-08
8.49489e-06
-7.21436e-08
8.49918e-06
-6.87658e-08
8.50313e-06
-6.54112e-08
8.50676e-06
-6.21329e-08
8.5101e-06
-5.89638e-08
-5.5922e-08
8.51318e-06
7.32411e-06
-2.91452e-08
7.33304e-06
-5.9301e-08
7.34095e-06
-7.38261e-08
7.34834e-06
-8.28806e-08
7.35552e-06
-8.87024e-08
7.36235e-06
-9.16151e-08
7.36875e-06
-9.23381e-08
7.37466e-06
-9.14004e-08
7.38014e-06
-8.93298e-08
7.38518e-06
-8.64951e-08
7.3898e-06
-8.32442e-08
7.39402e-06
-7.96963e-08
7.39789e-06
-7.60117e-08
7.40142e-06
-7.22956e-08
7.40464e-06
-6.86324e-08
7.40758e-06
-6.50714e-08
7.41025e-06
-6.16359e-08
-5.83588e-08
7.41269e-06
6.37805e-06
-3.7129e-08
6.3869e-06
-6.81496e-08
6.39409e-06
-8.10184e-08
6.40063e-06
-8.94164e-08
6.40693e-06
-9.50088e-08
6.41289e-06
-9.75743e-08
6.41839e-06
-9.78379e-08
6.42339e-06
-9.63959e-08
6.42792e-06
-9.38612e-08
6.43201e-06
-9.05875e-08
6.43569e-06
-8.69191e-08
6.43896e-06
-8.29714e-08
6.44186e-06
-7.89129e-08
6.44443e-06
-7.48601e-08
6.44667e-06
-7.08755e-08
6.44865e-06
-6.70479e-08
6.45036e-06
-6.33486e-08
-5.98342e-08
6.45183e-06
5.55505e-06
-4.67177e-08
5.56387e-06
-7.69628e-08
5.57023e-06
-8.73864e-08
5.57587e-06
-9.50516e-08
5.58115e-06
-1.00286e-07
5.58589e-06
-1.02319e-07
5.58993e-06
-1.01878e-07
5.59324e-06
-9.97006e-08
5.59577e-06
-9.63989e-08
5.59764e-06
-9.24488e-08
5.59885e-06
-8.81321e-08
5.59946e-06
-8.35833e-08
5.59952e-06
-7.8973e-08
5.59911e-06
-7.44483e-08
5.59826e-06
-7.00241e-08
5.59706e-06
-6.58518e-08
5.59553e-06
-6.18199e-08
-5.81292e-08
5.59383e-06
4.84108e-06
-6.01857e-08
4.84859e-06
-8.44739e-08
4.85175e-06
-9.05549e-08
4.85253e-06
-9.58281e-08
4.85025e-06
-9.80043e-08
4.84463e-06
-9.66972e-08
4.83586e-06
-9.31057e-08
4.82441e-06
-8.82537e-08
4.8107e-06
-8.26907e-08
4.79532e-06
-7.70659e-08
4.77869e-06
-7.15008e-08
4.7612e-06
-6.60986e-08
4.7432e-06
-6.09723e-08
4.72495e-06
-5.61994e-08
4.70666e-06
-5.17348e-08
4.68849e-06
-4.76772e-08
4.67057e-06
-4.38997e-08
-4.05656e-08
4.653e-06
4.14249e-06
4.05802e-06
3.96746e-06
3.87163e-06
3.77363e-06
3.67693e-06
3.58383e-06
3.49557e-06
3.41288e-06
3.33582e-06
3.26432e-06
3.19822e-06
3.13724e-06
3.08105e-06
3.02931e-06
2.98163e-06
2.93773e-06
2.89717e-06
-1.76002e-08
1.76002e-08
-3.62199e-08
1.86197e-08
-3.77502e-08
1.53029e-09
-1.52047e-08
-2.25455e-08
2.83895e-08
-4.35942e-08
8.63495e-08
-5.796e-08
1.51982e-07
-6.56329e-08
2.20224e-07
-6.82415e-08
2.87617e-07
-6.73928e-08
3.51818e-07
-6.42012e-08
4.11331e-07
-5.95129e-08
4.65294e-07
-5.39628e-08
5.13284e-07
-4.79904e-08
5.55183e-07
-4.18987e-08
5.91075e-07
-3.58917e-08
6.21178e-07
-3.01033e-08
6.45782e-07
-2.46046e-08
6.65205e-07
-1.94223e-08
6.79754e-07
-1.45495e-08
6.89702e-07
-9.94726e-09
6.95249e-07
-5.54786e-09
6.96561e-07
-1.31198e-09
6.93491e-07
3.07044e-09
6.85922e-07
7.56861e-09
6.73729e-07
1.2193e-08
6.56696e-07
1.70335e-08
6.34533e-07
2.21631e-08
6.06882e-07
2.76503e-08
5.73326e-07
3.35566e-08
5.334e-07
3.99258e-08
4.86638e-07
4.67616e-08
4.32645e-07
5.39938e-08
3.712e-07
6.1445e-08
3.02415e-07
6.87843e-08
2.26967e-07
7.54482e-08
1.46462e-07
8.05052e-08
6.39966e-08
8.24653e-08
-1.49491e-08
7.89457e-08
-8.14641e-08
6.6515e-08
-1.26823e-07
4.53592e-08
-1.51921e-07
2.50976e-08
-1.71179e-07
1.92581e-08
-2.03856e-07
3.26769e-08
-2.47938e-07
4.40817e-08
-2.79356e-07
3.14184e-08
-2.79862e-07
5.06347e-10
-2.47725e-07
-3.21377e-08
-1.91587e-07
-5.6138e-08
-1.29979e-07
-6.16076e-08
-7.56681e-08
-5.43109e-08
-3.10939e-08
-4.45741e-08
3.09343e-09
-3.41874e-08
2.65173e-08
-2.34238e-08
5.0122e-08
-2.36047e-08
7.53676e-08
-2.52456e-08
6.04969e-08
1.48707e-08
1.33638e-08
4.71331e-08
-7.59288e-08
8.92927e-08
-2.50031e-07
1.74102e-07
-4.70228e-07
2.20197e-07
-6.65159e-07
1.94931e-07
-8.38187e-07
1.73028e-07
-9.90998e-07
1.52811e-07
-1.12232e-06
1.31322e-07
-1.23621e-06
1.13889e-07
-1.33405e-06
9.78445e-08
-1.41881e-06
8.47593e-08
-1.49252e-06
7.3707e-08
-1.55715e-06
6.46273e-08
-1.61441e-06
5.72601e-08
-1.66559e-06
5.11841e-08
-1.71186e-06
4.6268e-08
-1.7541e-06
4.22385e-08
-1.79305e-06
3.89498e-08
-1.82928e-06
3.62325e-08
-1.86324e-06
3.39578e-08
-1.89528e-06
3.20441e-08
-1.92568e-06
3.03937e-08
-1.95464e-06
2.89672e-08
-1.98234e-06
2.76955e-08
-2.0089e-06
2.6562e-08
-2.03442e-06
2.55199e-08
-2.05898e-06
2.45607e-08
-2.08264e-06
2.36569e-08
-2.10544e-06
2.27998e-08
-2.12742e-06
2.19766e-08
-2.14859e-06
2.11772e-08
-2.16899e-06
2.03978e-08
-2.18862e-06
1.96287e-08
-2.20749e-06
1.88696e-08
-2.2256e-06
1.81135e-08
-2.24296e-06
1.73608e-08
-2.25957e-06
1.66076e-08
-2.27543e-06
1.58544e-08
-2.29053e-06
1.51004e-08
-2.30487e-06
1.43463e-08
-2.31846e-06
1.3593e-08
-2.3313e-06
1.28398e-08
-2.34339e-06
1.20875e-08
-2.35473e-06
1.13357e-08
-2.36531e-06
1.05841e-08
-2.37514e-06
9.83176e-09
-2.38422e-06
9.07831e-09
-2.39255e-06
8.32327e-09
-2.40011e-06
7.56625e-09
-2.40692e-06
6.80701e-09
-2.41296e-06
6.04476e-09
-2.41824e-06
5.27869e-09
-2.42275e-06
4.5077e-09
-2.42648e-06
3.73083e-09
-2.42943e-06
2.94613e-09
-2.43158e-06
2.15384e-09
-2.43294e-06
1.35609e-09
-2.43348e-06
5.39735e-10
-2.43321e-06
-2.62846e-10
-2.43221e-06
-1.00587e-09
-2.43046e-06
-1.74603e-09
-2.42798e-06
-2.48124e-09
-2.42478e-06
-3.20419e-09
-2.42086e-06
-3.9182e-09
-2.41624e-06
-4.62069e-09
-2.41093e-06
-5.31219e-09
-2.40493e-06
-5.99219e-09
-2.39827e-06
-6.66108e-09
-2.39095e-06
-7.31906e-09
-2.38299e-06
-7.9671e-09
-2.37438e-06
-8.60617e-09
-2.36514e-06
-9.23683e-09
-2.35528e-06
-9.85961e-09
-2.34481e-06
-1.04755e-08
-2.33372e-06
-1.1084e-08
-2.32204e-06
-1.16855e-08
-2.30976e-06
-1.22788e-08
-2.2969e-06
-1.28625e-08
-2.28346e-06
-1.34364e-08
-2.26946e-06
-1.39988e-08
-2.25491e-06
-1.45472e-08
-2.23984e-06
-1.50793e-08
-2.22424e-06
-1.55928e-08
-2.20816e-06
-1.60788e-08
-2.19159e-06
-1.65783e-08
-2.17451e-06
-1.7078e-08
-2.15696e-06
-1.75446e-08
-2.13896e-06
-1.79984e-08
-2.12053e-06
-1.84349e-08
-2.10167e-06
-1.88581e-08
-2.0824e-06
-1.92682e-08
-2.06274e-06
-1.96677e-08
-2.04268e-06
-2.00589e-08
-2.02223e-06
-2.04446e-08
-2.0014e-06
-2.08287e-08
-1.98019e-06
-2.12157e-08
-1.95858e-06
-2.16108e-08
-1.93656e-06
-2.20202e-08
-1.91411e-06
-2.24514e-08
-1.89119e-06
-2.29124e-08
-1.86778e-06
-2.34125e-08
-1.84382e-06
-2.39621e-08
-1.81925e-06
-2.45726e-08
-1.79399e-06
-2.52564e-08
-1.76796e-06
-2.60267e-08
-1.74106e-06
-2.68977e-08
-1.71318e-06
-2.78844e-08
-1.68418e-06
-2.90016e-08
-1.65391e-06
-3.02637e-08
-1.62223e-06
-3.16845e-08
-1.58895e-06
-3.32772e-08
-1.5539e-06
-3.50538e-08
-1.51688e-06
-3.70217e-08
-1.47769e-06
-3.91855e-08
-1.43614e-06
-4.15485e-08
-1.39203e-06
-4.41138e-08
-1.34515e-06
-4.68817e-08
-1.29526e-06
-4.98904e-08
-1.24207e-06
-5.31907e-08
-1.18517e-06
-5.69e-08
-1.12348e-06
-6.1683e-08
-1.05507e-06
-6.84163e-08
-9.7643e-07
-7.86383e-08
-9.69196e-08
-8.7951e-07
-4.70157e-09
2.23018e-08
2.50341e-09
1.14147e-08
3.47168e-08
-3.06831e-08
8.84964e-08
-7.63251e-08
1.54556e-07
-1.09654e-07
2.24274e-07
-1.27678e-07
2.92316e-07
-1.33675e-07
3.55672e-07
-1.31597e-07
4.131e-07
-1.24821e-07
4.64494e-07
-1.15595e-07
5.10133e-07
-1.05152e-07
5.50394e-07
-9.42241e-08
5.85642e-07
-8.32385e-08
6.16199e-07
-7.24557e-08
6.42351e-07
-6.20438e-08
6.64341e-07
-5.20933e-08
6.82392e-07
-4.26553e-08
6.96704e-07
-3.37338e-08
7.07452e-07
-2.52982e-08
7.14792e-07
-1.72871e-08
7.1885e-07
-9.60602e-09
7.19686e-07
-2.14821e-09
7.17528e-07
5.22832e-09
7.12458e-07
1.26387e-08
7.04437e-07
2.02145e-08
6.93384e-07
2.80868e-08
6.79162e-07
3.63849e-08
6.6157e-07
4.52419e-08
6.40339e-07
5.47874e-08
6.15118e-07
6.51468e-08
5.85451e-07
7.64287e-08
5.50786e-07
8.86593e-08
5.10498e-07
1.01733e-07
4.6394e-07
1.15343e-07
4.10497e-07
1.28891e-07
3.49652e-07
1.41351e-07
2.80969e-07
1.51148e-07
2.03891e-07
1.56023e-07
1.17376e-07
1.5303e-07
2.32017e-08
1.39534e-07
-6.70322e-08
1.15331e-07
-1.35753e-07
8.79788e-08
-1.78675e-07
7.55992e-08
-2.09048e-07
7.44542e-08
-2.29983e-07
5.2354e-08
-2.31078e-07
1.6014e-09
-2.06372e-07
-5.68445e-08
-1.62986e-07
-9.95238e-08
-1.18212e-07
-1.06382e-07
-7.87022e-08
-9.38203e-08
-4.31445e-08
-8.01319e-08
-1.55784e-08
-6.17535e-08
-1.99158e-08
-1.90864e-08
-9.00579e-08
4.65374e-08
-2.26977e-07
1.11673e-07
-4.18948e-07
2.06842e-07
-6.51293e-07
2.79478e-07
-8.63571e-07
3.01571e-07
-1.01237e-06
3.229e-07
-1.11589e-06
3.23721e-07
-1.21563e-06
2.94666e-07
-1.30731e-06
2.6471e-07
-1.38636e-06
2.31862e-07
-1.45604e-06
2.01002e-07
-1.51644e-06
1.74288e-07
-1.56949e-06
1.50898e-07
-1.61635e-06
1.31615e-07
-1.65817e-06
1.1553e-07
-1.69595e-06
1.02402e-07
-1.73041e-06
9.17196e-08
-1.76221e-06
8.29872e-08
-1.79182e-06
7.58789e-08
-1.81962e-06
7.00395e-08
-1.84589e-06
6.52184e-08
-1.87086e-06
6.12057e-08
-1.89472e-06
5.78148e-08
-1.9176e-06
5.49226e-08
-1.93961e-06
5.24079e-08
-1.96084e-06
5.01957e-08
-1.98135e-06
4.82074e-08
-2.00119e-06
4.64006e-08
-2.0204e-06
4.47251e-08
-2.03899e-06
4.31558e-08
-2.05699e-06
4.16603e-08
-2.07442e-06
4.0222e-08
-2.09126e-06
3.88221e-08
-2.10753e-06
3.7448e-08
-2.12323e-06
3.60901e-08
-2.13834e-06
3.47388e-08
-2.15286e-06
3.33893e-08
-2.16678e-06
3.20362e-08
-2.18009e-06
3.06775e-08
-2.1928e-06
2.93106e-08
-2.20488e-06
2.79354e-08
-2.21633e-06
2.65513e-08
-2.22714e-06
2.51596e-08
-2.23731e-06
2.37612e-08
-2.24683e-06
2.23564e-08
-2.25569e-06
2.09461e-08
-2.26388e-06
1.95307e-08
-2.27141e-06
1.811e-08
-2.27826e-06
1.66839e-08
-2.28443e-06
1.52519e-08
-2.28992e-06
1.3814e-08
-2.29473e-06
1.237e-08
-2.29884e-06
1.09199e-08
-2.30226e-06
9.4632e-09
-2.30498e-06
7.99922e-09
-2.307e-06
6.52746e-09
-2.30832e-06
5.04777e-09
-2.30893e-06
3.56013e-09
-2.30884e-06
2.06607e-09
-2.30807e-06
5.82521e-10
-2.3066e-06
-9.26564e-10
-2.30444e-06
-2.42261e-09
-2.30155e-06
-3.89947e-09
-2.29792e-06
-5.37287e-09
-2.29357e-06
-6.83646e-09
-2.28849e-06
-8.28428e-09
-2.28269e-06
-9.71466e-09
-2.27619e-06
-1.11245e-08
-2.26899e-06
-1.25128e-08
-2.2611e-06
-1.3879e-08
-2.25254e-06
-1.52231e-08
-2.24331e-06
-1.65461e-08
-2.23343e-06
-1.78493e-08
-2.2229e-06
-1.91344e-08
-2.21173e-06
-2.04029e-08
-2.19994e-06
-2.16559e-08
-2.18752e-06
-2.28944e-08
-2.17448e-06
-2.41183e-08
-2.16084e-06
-2.53273e-08
-2.1466e-06
-2.65199e-08
-2.13177e-06
-2.76945e-08
-2.11636e-06
-2.88492e-08
-2.10037e-06
-2.99817e-08
-2.08383e-06
-3.10895e-08
-2.06674e-06
-3.21702e-08
-2.04911e-06
-3.3222e-08
-2.03095e-06
-3.42426e-08
-2.01228e-06
-3.52439e-08
-1.99314e-06
-3.62185e-08
-1.97353e-06
-3.71554e-08
-1.95347e-06
-3.80604e-08
-1.93297e-06
-3.89331e-08
-1.91205e-06
-3.97766e-08
-1.89073e-06
-4.05934e-08
-1.86901e-06
-4.13873e-08
-1.8469e-06
-4.21632e-08
-1.82442e-06
-4.2927e-08
-1.80156e-06
-4.36863e-08
-1.77833e-06
-4.44501e-08
-1.75471e-06
-4.5229e-08
-1.73069e-06
-4.60356e-08
-1.70626e-06
-4.68844e-08
-1.68138e-06
-4.77919e-08
-1.65602e-06
-4.87766e-08
-1.63012e-06
-4.98592e-08
-1.60363e-06
-5.10626e-08
-1.57648e-06
-5.24116e-08
-1.54857e-06
-5.3933e-08
-1.51981e-06
-5.56552e-08
-1.49009e-06
-5.76076e-08
-1.45927e-06
-5.98198e-08
-1.42721e-06
-6.23213e-08
-1.39376e-06
-6.51409e-08
-1.35873e-06
-6.83047e-08
-1.32194e-06
-7.18377e-08
-1.28321e-06
-7.57587e-08
-1.24231e-06
-8.00825e-08
-1.19904e-06
-8.48177e-08
-1.15318e-06
-8.9976e-08
-1.1045e-06
-9.55638e-08
-1.05275e-06
-1.01636e-07
-9.97667e-07
-1.08275e-07
-9.38889e-07
-1.15678e-07
-8.75924e-07
-1.24647e-07
-8.08397e-07
-1.35944e-07
-7.34495e-07
-1.52539e-07
-1.75994e-07
-6.55421e-07
2.67177e-09
1.963e-08
3.85386e-08
-2.4452e-08
1.01612e-07
-9.3757e-08
1.72907e-07
-1.4762e-07
2.40266e-07
-1.77012e-07
2.9943e-07
-1.86842e-07
3.50674e-07
-1.84919e-07
3.95875e-07
-1.76797e-07
4.36539e-07
-1.65485e-07
4.73547e-07
-1.52604e-07
5.0732e-07
-1.38925e-07
5.38014e-07
-1.24918e-07
5.65664e-07
-1.10889e-07
5.90234e-07
-9.70257e-08
6.11657e-07
-8.34672e-08
6.29872e-07
-7.03078e-08
6.44838e-07
-5.76219e-08
6.5655e-07
-4.54456e-08
6.65021e-07
-3.37688e-08
6.70274e-07
-2.254e-08
6.72341e-07
-1.16732e-08
6.71277e-07
-1.084e-09
6.67151e-07
9.35429e-09
6.60072e-07
1.97174e-08
6.50181e-07
3.01054e-08
6.37646e-07
4.06218e-08
6.2264e-07
5.13913e-08
6.05329e-07
6.25527e-08
5.85855e-07
7.42612e-08
5.64318e-07
8.66844e-08
5.40767e-07
9.99794e-08
5.15152e-07
1.14274e-07
4.87264e-07
1.2962e-07
4.56724e-07
1.45883e-07
4.22937e-07
1.62677e-07
3.84997e-07
1.79291e-07
3.41581e-07
1.94564e-07
2.90864e-07
2.0674e-07
2.30532e-07
2.13362e-07
1.58552e-07
2.11514e-07
7.53327e-08
1.9855e-07
-1.00871e-08
1.73399e-07
-7.57492e-08
1.41261e-07
-1.12109e-07
1.10814e-07
-1.31747e-07
7.19914e-08
-1.42358e-07
1.22124e-08
-1.39398e-07
-5.98041e-08
-1.29839e-07
-1.09083e-07
-1.27237e-07
-1.08983e-07
-1.33722e-07
-8.73359e-08
-1.66472e-07
-4.73817e-08
-2.58169e-07
2.99438e-08
-4.15e-07
1.37744e-07
-6.16027e-07
2.47565e-07
-8.20302e-07
3.15948e-07
-9.73006e-07
3.59546e-07
-1.08154e-06
3.88008e-07
-1.16855e-06
3.88587e-07
-1.22843e-06
3.82773e-07
-1.2657e-06
3.60995e-07
-1.29939e-06
3.28358e-07
-1.33116e-06
2.96474e-07
-1.36289e-06
2.63595e-07
-1.39524e-06
2.33354e-07
-1.42741e-06
2.06457e-07
-1.45936e-06
1.82849e-07
-1.49059e-06
1.62845e-07
-1.52095e-06
1.45885e-07
-1.55029e-06
1.31748e-07
-1.57856e-06
1.19992e-07
-1.60578e-06
1.10205e-07
-1.63199e-06
1.02085e-07
-1.65724e-06
9.52875e-08
-1.68159e-06
8.95769e-08
-1.70512e-06
8.47312e-08
-1.72788e-06
8.05723e-08
-1.74991e-06
7.69587e-08
-1.77128e-06
7.37718e-08
-1.792e-06
7.09196e-08
-1.81212e-06
6.83252e-08
-1.83165e-06
6.59312e-08
-1.85061e-06
6.36878e-08
-1.86902e-06
6.15604e-08
-1.88687e-06
5.95136e-08
-1.90417e-06
5.75263e-08
-1.92093e-06
5.55757e-08
-1.93713e-06
5.36473e-08
-1.95277e-06
5.17281e-08
-1.96783e-06
4.98076e-08
-1.98232e-06
4.78793e-08
-1.99623e-06
4.59372e-08
-2.00953e-06
4.39785e-08
-2.02222e-06
4.2001e-08
-2.03429e-06
4.00048e-08
-2.04573e-06
3.79902e-08
-2.05652e-06
3.59591e-08
-2.06668e-06
3.39127e-08
-2.07617e-06
3.18522e-08
-2.085e-06
2.97792e-08
-2.09317e-06
2.76944e-08
-2.10066e-06
2.55985e-08
-2.10746e-06
2.34914e-08
-2.11359e-06
2.13731e-08
-2.11902e-06
1.92435e-08
-2.12375e-06
1.71029e-08
-2.12778e-06
1.49512e-08
-2.1311e-06
1.27885e-08
-2.13372e-06
1.0614e-08
-2.13562e-06
8.42753e-09
-2.1368e-06
6.22883e-09
-2.13726e-06
4.01838e-09
-2.13699e-06
1.79939e-09
-2.13599e-06
-4.22563e-10
-2.13426e-06
-2.65136e-09
-2.13181e-06
-4.87769e-09
-2.12861e-06
-7.0961e-09
-2.12468e-06
-9.30508e-09
-2.12002e-06
-1.14985e-08
-2.11463e-06
-1.36706e-08
-2.10853e-06
-1.58176e-08
-2.10172e-06
-1.79358e-08
-2.09421e-06
-2.00227e-08
-2.08601e-06
-2.20772e-08
-2.07713e-06
-2.40992e-08
-2.06759e-06
-2.60898e-08
-2.05739e-06
-2.80512e-08
-2.04653e-06
-2.99856e-08
-2.03504e-06
-3.18953e-08
-2.02292e-06
-3.37822e-08
-2.01016e-06
-3.56475e-08
-1.99679e-06
-3.74911e-08
-1.98281e-06
-3.93124e-08
-1.96822e-06
-4.11097e-08
-1.95303e-06
-4.28805e-08
-1.93726e-06
-4.46219e-08
-1.92091e-06
-4.63307e-08
-1.90399e-06
-4.80035e-08
-1.88653e-06
-4.96371e-08
-1.86852e-06
-5.12287e-08
-1.84999e-06
-5.27762e-08
-1.83095e-06
-5.42819e-08
-1.81143e-06
-5.5741e-08
-1.79143e-06
-5.71484e-08
-1.77099e-06
-5.85063e-08
-1.7501e-06
-5.98154e-08
-1.7288e-06
-6.10788e-08
-1.7071e-06
-6.23004e-08
-1.685e-06
-6.34857e-08
-1.66252e-06
-6.46417e-08
-1.63967e-06
-6.57775e-08
-1.61645e-06
-6.69041e-08
-1.59287e-06
-6.80351e-08
-1.56891e-06
-6.91865e-08
-1.54457e-06
-7.03771e-08
-1.51982e-06
-7.16286e-08
-1.49465e-06
-7.29659e-08
-1.46901e-06
-7.44165e-08
-1.44286e-06
-7.60115e-08
-1.41613e-06
-7.7785e-08
-1.38877e-06
-7.9774e-08
-1.36069e-06
-8.2019e-08
-1.33178e-06
-8.45629e-08
-1.30194e-06
-8.74496e-08
-1.27103e-06
-9.07233e-08
-1.23892e-06
-9.44291e-08
-1.20545e-06
-9.86107e-08
-1.17045e-06
-1.03308e-07
-1.13373e-06
-1.0856e-07
-1.09509e-06
-1.14397e-07
-1.05433e-06
-1.20847e-07
-1.01122e-06
-1.27926e-07
-9.65539e-07
-1.35655e-07
-9.17054e-07
-1.44049e-07
-8.65514e-07
-1.53175e-07
-8.10652e-07
-1.63138e-07
-7.5215e-07
-1.7418e-07
-6.89666e-07
-1.87131e-07
-6.22948e-07
-2.02662e-07
-5.51237e-07
-2.24251e-07
-2.51541e-07
-4.7569e-07
1.45382e-08
5.09177e-09
7.6205e-08
-8.61188e-08
1.51691e-07
-1.69243e-07
2.18222e-07
-2.14152e-07
2.7094e-07
-2.29729e-07
3.13665e-07
-2.29568e-07
3.50733e-07
-2.21987e-07
3.84735e-07
-2.10799e-07
4.16771e-07
-1.97521e-07
4.47094e-07
-1.82926e-07
4.75659e-07
-1.67491e-07
5.02215e-07
-1.51474e-07
5.26441e-07
-1.35114e-07
5.48024e-07
-1.18609e-07
5.66686e-07
-1.02129e-07
5.82227e-07
-8.58489e-08
5.94521e-07
-6.99161e-08
6.03506e-07
-5.44304e-08
6.09162e-07
-3.94244e-08
6.11505e-07
-2.48835e-08
6.10601e-07
-1.07692e-08
6.06557e-07
2.95975e-09
5.99501e-07
1.64103e-08
5.89638e-07
2.9581e-08
5.77196e-07
4.25476e-08
5.62449e-07
5.53684e-08
5.45688e-07
6.81528e-08
5.27213e-07
8.10272e-08
5.07334e-07
9.41403e-08
4.86334e-07
1.07684e-07
4.64452e-07
1.21862e-07
4.41891e-07
1.36836e-07
4.18759e-07
1.52752e-07
3.95003e-07
1.69639e-07
3.70416e-07
1.87264e-07
3.44589e-07
2.05118e-07
3.16791e-07
2.22363e-07
2.85776e-07
2.37755e-07
2.49633e-07
2.49504e-07
2.06013e-07
2.55135e-07
1.53024e-07
2.51539e-07
9.11822e-08
2.3524e-07
2.8026e-08
2.04418e-07
-2.26442e-08
1.61485e-07
-5.77058e-08
1.07053e-07
-8.70022e-08
4.15088e-08
-1.14686e-07
-3.21202e-08
-1.5699e-07
-6.67798e-08
-2.18251e-07
-4.77221e-08
-3.10391e-07
4.80455e-09
-4.57054e-07
9.92815e-08
-6.49987e-07
2.22876e-07
-8.34339e-07
3.22097e-07
-9.69604e-07
3.8283e-07
-1.07085e-06
4.1719e-07
-1.14223e-06
4.30929e-07
-1.18345e-06
4.2923e-07
-1.20867e-06
4.13803e-07
-1.22142e-06
3.95523e-07
-1.23026e-06
3.69841e-07
-1.24206e-06
3.40152e-07
-1.25636e-06
3.10774e-07
-1.27431e-06
2.81548e-07
-1.29525e-06
2.5429e-07
-1.31834e-06
2.2955e-07
-1.34298e-06
2.07488e-07
-1.3684e-06
1.88266e-07
-1.39415e-06
1.7164e-07
-1.41985e-06
1.57449e-07
-1.44524e-06
1.45377e-07
-1.47016e-06
1.35131e-07
-1.49453e-06
1.26447e-07
-1.51828e-06
1.19043e-07
-1.54141e-06
1.12707e-07
-1.56392e-06
1.07235e-07
-1.58581e-06
1.02462e-07
-1.6071e-06
9.82483e-08
-1.6278e-06
9.44779e-08
-1.64794e-06
9.10563e-08
-1.66752e-06
8.79063e-08
-1.68655e-06
8.49666e-08
-1.70505e-06
8.21869e-08
-1.72302e-06
7.9526e-08
-1.74045e-06
7.69485e-08
-1.75736e-06
7.44283e-08
-1.77372e-06
7.19413e-08
-1.78954e-06
6.94702e-08
-1.80482e-06
6.7e-08
-1.81953e-06
6.4519e-08
-1.83367e-06
6.20193e-08
-1.84723e-06
5.94947e-08
-1.86019e-06
5.69417e-08
-1.87255e-06
5.43585e-08
-1.88429e-06
5.17454e-08
-1.8954e-06
4.91035e-08
-1.90588e-06
4.64354e-08
-1.91571e-06
4.37435e-08
-1.92488e-06
4.10298e-08
-1.9334e-06
3.82966e-08
-1.94125e-06
3.55455e-08
-1.94843e-06
3.27775e-08
-1.95493e-06
2.99928e-08
-1.96075e-06
2.71915e-08
-1.96588e-06
2.43739e-08
-1.97032e-06
2.15403e-08
-1.97406e-06
1.86913e-08
-1.9771e-06
1.5827e-08
-1.97943e-06
1.29473e-08