/*--------------------------------*- C++ -*----------------------------------*\
| =========                 |                                                 |
| \\      /  F ield         | OpenFOAM: The Open Source CFD Toolbox           |
|  \\    /   O peration     | Version:  2112                                  |
|   \\  /    A nd           | Website:  www.openfoam.com                      |
|    \\/     M anipulation  |                                                 |
\*---------------------------------------------------------------------------*/
FoamFile
{
    version     2.0;
    format      ascii;
    arch        "LSB;label=32;scalar=64";
    class       volScalarField;
    location    "0.16";
    object      k;
}
// * * * * * * * * * * * * * * * * * * * * * * * * * * * * * * * * * * * * * //

dimensions      [0 2 -2 0 0 0 0];

internalField   nonuniform List<scalar> 
12225
(
0.385332
0.385391
0.381717
0.378198
0.376486
0.375752
0.375235
0.374496
0.373749
0.373337
0.373043
0.372653
0.372032
0.371398
0.371174
0.371193
0.371371
0.373578
0.375374
0.369964
0.35835
0.347495
0.340513
0.336129
0.331719
0.326786
0.321707
0.318567
0.316871
0.316125
0.316063
0.316172
0.31672
0.317916
0.320242
0.325246
0.374934
0.0485
0.0121634
0.0103855
0.0130727
0.0223338
0.0323764
0.0398445
0.0441547
0.0496699
0.0552185
0.0623951
0.0717868
0.0821286
0.0914128
0.104682
0.114648
0.133405
0.375021
0.310952
0.262095
0.170758
0.068961
0.0423794
0.0316749
0.0201317
0.0126511
0.00990435
0.00902579
0.00753886
0.00698874
0.00710007
0.00781268
0.00993108
0.0124604
0.0179576
0.375455
0.351929
0.338809
0.275549
0.134666
0.0792812
0.0837743
0.106609
0.123467
0.13265
0.132623
0.124214
0.092841
0.0677483
0.0583477
0.0542773
0.045991
0.0334503
0.375088
0.350326
0.323143
0.226646
0.115723
0.0757761
0.0828978
0.129823
0.161202
0.164323
0.143424
0.107506
0.104394
0.117268
0.136698
0.138832
0.133961
0.113957
0.375155
0.356583
0.32437
0.206395
0.105615
0.0800153
0.0920879
0.122306
0.127034
0.114378
0.0821065
0.0792777
0.0890823
0.114493
0.130536
0.138017
0.143909
0.14587
0.375298
0.343491
0.320608
0.211497
0.165836
0.168119
0.171489
0.157817
0.101091
0.0728773
0.07336
0.0849935
0.0895763
0.0865611
0.0791775
0.0794623
0.0918919
0.130696
0.375543
0.339128
0.312205
0.30381
0.308686
0.309315
0.290017
0.200014
0.125499
0.104698
0.100738
0.0912911
0.0725447
0.0622516
0.0609705
0.0660072
0.0959573
0.139485
0.375008
0.362498
0.34789
0.346477
0.3454
0.334779
0.279055
0.173095
0.124256
0.105444
0.0911764
0.0803604
0.0774547
0.0810886
0.105452
0.138606
0.159713
0.170551
0.375005
0.368773
0.343728
0.336834
0.340046
0.336586
0.305443
0.226864
0.172268
0.123171
0.0847941
0.0711075
0.075368
0.10984
0.172034
0.208522
0.224445
0.227933
0.374999
0.369385
0.342363
0.314825
0.325428
0.338821
0.337963
0.320743
0.252605
0.168718
0.121663
0.109214
0.113719
0.142377
0.17301
0.189102
0.194608
0.197333
0.375044
0.368063
0.340946
0.287219
0.29149
0.313538
0.314272
0.293892
0.23533
0.212518
0.211863
0.213639
0.211259
0.189706
0.137435
0.102567
0.084985
0.0817046
0.375182
0.366412
0.334529
0.245701
0.217066
0.227282
0.231533
0.219719
0.215779
0.221821
0.227165
0.226682
0.219299
0.187962
0.134464
0.0939963
0.0719826
0.0656704
0.375337
0.363318
0.310583
0.26063
0.255518
0.268206
0.269424
0.255597
0.210928
0.170254
0.148057
0.14213
0.144872
0.159283
0.165219
0.162487
0.140672
0.112155
0.375139
0.344067
0.343731
0.340908
0.322909
0.269396
0.232057
0.214676
0.195443
0.164436
0.127957
0.100223
0.0909658
0.0961957
0.133073
0.167607
0.177446
0.176873
0.375216
0.350071
0.35667
0.356272
0.3328
0.258575
0.201444
0.182472
0.181652
0.184042
0.181477
0.159639
0.146069
0.1491
0.178586
0.221024
0.240756
0.24624
0.375036
0.361475
0.362619
0.360878
0.348129
0.301328
0.253841
0.243979
0.24834
0.270926
0.288593
0.29253
0.292527
0.291707
0.288515
0.281276
0.276134
0.273871
0.375203
0.362823
0.353861
0.339616
0.297748
0.265501
0.266358
0.295523
0.323905
0.334464
0.336601
0.335754
0.329661
0.304472
0.272987
0.256456
0.252429
0.253217
0.375027
0.363927
0.343958
0.307695
0.227557
0.177217
0.173619
0.204839
0.260734
0.290807
0.303853
0.306739
0.305577
0.298736
0.275203
0.24539
0.223895
0.213579
0.375205
0.366185
0.352405
0.333681
0.317987
0.304523
0.282224
0.252797
0.233043
0.228704
0.231218
0.24742
0.276659
0.291384
0.294434
0.292392
0.276465
0.232562
0.375363
0.358791
0.344054
0.343452
0.343545
0.340624
0.325066
0.266065
0.20184
0.173551
0.169176
0.174688
0.205883
0.240901
0.255995
0.259278
0.25756
0.24341
0.375094
0.346546
0.343225
0.35082
0.356408
0.356108
0.351049
0.332134
0.27352
0.205395
0.172208
0.169359
0.185565
0.197613
0.194196
0.167806
0.142175
0.132143
0.37515
0.355926
0.341271
0.341888
0.344806
0.342515
0.330712
0.315125
0.29039
0.265156
0.255411
0.250879
0.236817
0.181793
0.12462
0.0951298
0.0867211
0.0880912
0.375093
0.367734
0.353591
0.342241
0.327456
0.287918
0.229986
0.205745
0.196214
0.18905
0.188995
0.193393
0.192083
0.169755
0.117735
0.0932475
0.090042
0.0949883
0.375204
0.369491
0.354118
0.343055
0.334872
0.314371
0.259916
0.229688
0.220727
0.209451
0.18017
0.138684
0.109964
0.0996791
0.100176
0.108836
0.124414
0.139998
0.375027
0.370929
0.364402
0.34293
0.324112
0.31479
0.299345
0.266103
0.17099
0.0710093
0.0238357
0.00702118
0.00230109
0.00166929
0.0019865
0.00358792
0.00882538
0.0134605
0.374939
0.0718994
0.0312251
0.0193525
0.0131659
0.00888884
0.00803074
0.00908568
0.0133489
0.0222021
0.0281205
0.0297342
0.0294946
0.027893
0.0244657
0.0223743
0.0217134
0.0214519
0.375019
0.370881
0.366598
0.362291
0.355577
0.347809
0.341917
0.339369
0.338971
0.338939
0.338603
0.337312
0.3333
0.327606
0.322063
0.317949
0.314636
0.312737
0.375377
0.375874
0.377145
0.377798
0.377736
0.376814
0.375782
0.375649
0.376039
0.37761
0.378605
0.378823
0.378747
0.378142
0.376759
0.375803
0.375268
0.375015
0.369178
0.435297
0.427923
0.402781
0.365612
0.347976
0.338413
0.331679
0.3318
0.333688
0.344007
0.359125
0.351063
0.278941
0.226101
0.233827
0.2752
0.28381
0.263446
0.245838
0.253072
0.269134
0.293358
0.361556
0.564182
0.684175
0.541178
0.384112
0.383619
0.378202
0.359159
0.336668
0.305325
0.293946
0.2888
0.280916
0.270009
0.260326
0.24403
0.22903
0.220859
0.21119
0.202453
0.196726
0.191717
0.187377
0.184683
0.183099
0.180955
0.179752
0.177956
0.177032
0.175938
0.175372
0.174882
0.174534
0.174158
0.173753
0.173156
0.17259
0.172117
0.171807
0.17168
0.172385
0.173757
0.176704
0.181855
0.189406
0.199864
0.213899
0.227379
0.236025
0.242039
0.251165
0.259326
0.266123
0.270555
0.275181
0.278383
0.281472
0.28588
0.29169
0.299964
0.311505
0.325347
0.343265
0.366239
0.386883
0.396093
0.40383
0.43154
0.452945
0.477795
0.552679
0.708951
0.884628
1.04038
1.1126
1.11198
1.04124
0.80295
0.607729
0.491921
0.42843
0.392073
0.362255
0.379085
0.523008
0.602854
0.776802
0.787277
0.380533
0.296534
0.261055
0.228409
0.206964
0.186358
0.176026
0.168347
0.165244
0.164179
0.162683
0.161744
0.161024
0.160516
0.160116
0.159802
0.159521
0.159218
0.158895
0.158576
0.158242
0.157837
0.157294
0.156455
0.155582
0.15489
0.154324
0.153856
0.15344
0.153129
0.15317
0.153603
0.154379
0.155205
0.156014
0.15682
0.157509
0.157915
0.158382
0.159175
0.159902
0.160475
0.160988
0.161316
0.161316
0.160967
0.159601
0.158322
0.159902
0.180864
0.215847
0.227433
0.250398
0.318285
0.353394
0.397963
0.422295
0.421659
0.400262
0.3744
0.364637
0.363071
0.361504
0.350288
0.308469
0.284727
0.282969
0.28738
0.308876
0.418614
0.363057
0.294778
0.258099
0.251012
0.251676
0.252266
0.252448
0.252707
0.254012
0.256983
0.267208
0.272594
0.269367
0.258591
0.225517
0.160099
0.143238
0.141581
0.141104
0.15539
0.258841
0.42823
0.505164
0.52668
0.461076
0.381292
0.352318
0.345107
0.315846
0.273014
0.241806
0.229151
0.219852
0.208307
0.194755
0.18572
0.178265
0.168653
0.162363
0.159165
0.154896
0.150223
0.147108
0.1442
0.141296
0.139368
0.138237
0.137744
0.137599
0.137788
0.138866
0.140394
0.141947
0.143935
0.145471
0.146791
0.147861
0.148242
0.148347
0.148136
0.146483
0.144065
0.141943
0.139469
0.137983
0.137372
0.137275
0.138774
0.144038
0.148758
0.154791
0.160122
0.165716
0.168817
0.170016
0.17041
0.170008
0.168678
0.167886
0.167815
0.169036
0.173974
0.187522
0.219008
0.266686
0.316041
0.361026
0.389415
0.402204
0.409711
0.411748
0.407523
0.371978
0.323338
0.309492
0.312997
0.338723
0.351021
0.345944
0.326694
0.314466
0.307375
0.30758
0.313107
0.325395
0.354075
0.472365
0.880392
0.873475
0.532944
0.248847
0.197236
0.183099
0.174252
0.16957
0.165175
0.162753
0.159332
0.157869
0.156393
0.154621
0.152517
0.150487
0.149384
0.147969
0.146948
0.146318
0.14539
0.144145
0.142923
0.142359
0.142025
0.141696
0.141517
0.141481
0.141643
0.142105
0.14261
0.142979
0.143203
0.143565
0.144381
0.146348
0.148218
0.14931
0.149643
0.149544
0.149236
0.148636
0.147359
0.145729
0.144866
0.144946
0.145904
0.149126
0.151926
0.152607
0.152499
0.152981
0.156669
0.171574
0.187013
0.191308
0.197122
0.210234
0.258686
0.29117
0.291919
0.285475
0.269817
0.24387
0.229435
0.228677
0.239048
0.24891
0.242336
0.197251
0.137913
0.113503
0.307147
0.227425
0.207271
0.217759
0.241099
0.251349
0.252841
0.254813
0.255251
0.2563
0.25897
0.266788
0.26942
0.26666
0.254924
0.209787
0.163533
0.166194
0.237967
0.314123
0.354101
0.403337
0.432868
0.440365
0.375503
0.301529
0.265114
0.245641
0.205248
0.171314
0.135956
0.1111
0.100391
0.0928784
0.0826126
0.0728726
0.0675846
0.0635947
0.0603163
0.0586549
0.057748
0.0574079
0.0582965
0.0598934
0.0630003
0.0676459
0.072867
0.0788787
0.0844552
0.0892547
0.093372
0.0964438
0.0997127
0.103146
0.107643
0.112489
0.118422
0.12446
0.130429
0.135359
0.139708
0.142907
0.144779
0.145673
0.146004
0.145835
0.143847
0.141866
0.139072
0.137005
0.136193
0.136069
0.136362
0.137758
0.140306
0.141807
0.143481
0.144234
0.144518
0.143154
0.140543
0.137024
0.133554
0.130418
0.131539
0.151481
0.214743
0.299112
0.361724
0.39503
0.405571
0.402693
0.373839
0.335482
0.317058
0.309902
0.302542
0.287401
0.269118
0.256222
0.250065
0.246467
0.250239
0.269542
0.296027
0.326081
0.39525
0.631897
0.859426
0.626247
0.269068
0.185295
0.169361
0.163085
0.156136
0.152506
0.149713
0.148723
0.148539
0.150248
0.151609
0.152126
0.152249
0.151874
0.151641
0.149936
0.148177
0.147405
0.145961
0.144548
0.143127
0.142449
0.142084
0.141905
0.141858
0.141905
0.142031
0.14217
0.142351
0.142634
0.143066
0.143938
0.145817
0.150699
0.16139
0.167172
0.167643
0.166164
0.161791
0.152023
0.14317
0.138874
0.134201
0.120094
0.109602
0.109703
0.1127
0.120617
0.127381
0.129664
0.129436
0.131266
0.132928
0.132576
0.132662
0.133951
0.142444
0.169238
0.176324
0.173449
0.16041
0.138478
0.123275
0.118072
0.118825
0.127803
0.161336
0.169857
0.167292
0.153706
0.262409
0.211219
0.201738
0.253586
0.27037
0.266011
0.255638
0.257503
0.261847
0.263231
0.263754
0.26569
0.263136
0.242529
0.206117
0.188806
0.226241
0.29895
0.326463
0.346882
0.365265
0.375514
0.351828
0.280472
0.205618
0.170094
0.150723
0.135601
0.11849
0.106097
0.090357
0.0833552
0.0806019
0.0789556
0.0771256
0.0763623
0.0768167
0.081032
0.0838103
0.0878635
0.0901446
0.094089
0.096715
0.0989825
0.10096
0.102545
0.103232
0.103538
0.103587
0.10313
0.101723
0.0998015
0.0986108
0.098215
0.098125
0.0983343
0.099278
0.10054
0.101813
0.103671
0.106095
0.108943
0.112214
0.116236
0.120574
0.125603
0.131664
0.137201
0.141048
0.143115
0.142671
0.143371
0.144063
0.145437
0.147664
0.152437
0.157646
0.160755
0.161772
0.161084
0.158582
0.153776
0.145745
0.13427
0.120677
0.11221
0.112331
0.139851
0.201673
0.252138
0.270135
0.260516
0.238203
0.224856
0.214133
0.201998
0.189197
0.180758
0.177732
0.178075
0.182838
0.198758
0.237271
0.289211
0.334245
0.428953
0.592162
0.672823
0.702616
0.318426
0.197569
0.17438
0.169921
0.168464
0.169393
0.177339
0.183454
0.192407
0.197483
0.199941
0.200445
0.197535
0.192794
0.187237
0.184363
0.177653
0.171059
0.166274
0.159996
0.155222
0.151378
0.148502
0.1464
0.144546
0.143365
0.142754
0.142464
0.142407
0.142443
0.142615
0.143072
0.144062
0.146237
0.151646
0.167642
0.191384
0.210817
0.224594
0.233048
0.236728
0.237388
0.237044
0.235007
0.228219
0.204277
0.164796
0.142227
0.135007
0.134076
0.132881
0.129337
0.118391
0.110653
0.105251
0.0963008
0.0921842
0.0926551
0.0977797
0.106123
0.106078
0.102662
0.0926697
0.0796116
0.0686138
0.0649291
0.065629
0.0710815
0.0946882
0.118727
0.124429
0.250008
0.209819
0.215549
0.268054
0.272923
0.255374
0.238726
0.237735
0.244703
0.243604
0.24263
0.23873
0.22746
0.219545
0.225808
0.262484
0.301968
0.321047
0.33352
0.339086
0.336513
0.288439
0.215279
0.15014
0.122304
0.109653
0.103564
0.0994679
0.0953269
0.0913052
0.0857526
0.0839168
0.0835672
0.0855187
0.088613
0.0913172
0.0936146
0.0949782
0.0970393
0.0985393
0.0999781
0.102184
0.104434
0.107211
0.110825
0.115215
0.120154
0.124148
0.125612
0.126054
0.125708
0.122424
0.116185
0.110406
0.106983
0.104353
0.101644
0.0998579
0.0990724
0.098431
0.0981758
0.0981279
0.0984389
0.098828
0.0992731
0.0995919
0.100217
0.101921
0.105636
0.112937
0.121887
0.130153
0.136809
0.143263
0.148668
0.154
0.159654
0.163298
0.163946
0.16358
0.162457
0.161658
0.160302
0.156691
0.147704
0.124261
0.100765
0.0914244
0.0928593
0.104315
0.112795
0.115282
0.11379
0.111016
0.108905
0.10827
0.109638
0.113831
0.121069
0.132077
0.15004
0.185728
0.254339
0.333734
0.396031
0.526829
0.595573
0.609976
0.37406
0.22269
0.184763
0.178197
0.178169
0.183919
0.191537
0.208656
0.226827
0.238613
0.245885
0.249197
0.24999
0.246685
0.240051
0.228043
0.220641
0.210045
0.20083
0.191649
0.182007
0.171751
0.162567
0.155815
0.151688
0.147789
0.145189
0.143431
0.142589
0.142436
0.142447
0.142572
0.142914
0.143665
0.145437
0.150105
0.165121
0.194005
0.21932
0.238306
0.250647
0.257707
0.260842
0.261741
0.261907
0.261694
0.258717
0.241603
0.188598
0.159266
0.152249
0.14857
0.140329
0.12253
0.110583
0.101757
0.0931743
0.0817524
0.0714993
0.0687305
0.0685309
0.0677643
0.0667765
0.0656287
0.0636593
0.0611295
0.055555
0.0458403
0.0438701
0.0462474
0.0558288
0.0681458
0.245591
0.211617
0.23382
0.270897
0.268764
0.251213
0.23611
0.229687
0.22899
0.230186
0.233302
0.23442
0.237185
0.25061
0.274464
0.293902
0.309241
0.318793
0.322338
0.313992
0.278988
0.206761
0.135091
0.105932
0.0960988
0.0931505
0.092535
0.0929375
0.0929661
0.0914774
0.0898191
0.0904494
0.0937256
0.0958736
0.0985772
0.100002
0.102027
0.10398
0.106796
0.109659
0.112534
0.116687
0.121315
0.127061
0.13346
0.140967
0.147774
0.149953
0.150326
0.15007
0.148727
0.146389
0.143588
0.141091
0.138419
0.135505
0.131947
0.128142
0.1234
0.117805
0.112631
0.107265
0.103252
0.100823
0.09976
0.0991976
0.0984732
0.0975973
0.0971547
0.097359
0.0986755
0.10197
0.107547
0.11443
0.121673
0.12927
0.136759
0.142181
0.14287
0.14179
0.141895
0.144963
0.149527
0.152692
0.153682
0.151503
0.134888
0.098076
0.0808311
0.0776181
0.0797221
0.0821862
0.0833822
0.0842865
0.0856158
0.0882822
0.0920545
0.0969334
0.10341
0.112954
0.13156
0.176907
0.266532
0.357198
0.422726
0.495874
0.519577
0.427705
0.252869
0.20044
0.188129
0.187448
0.198166
0.212034
0.236975
0.268767
0.285293
0.292957
0.295478
0.294528
0.282593
0.272284
0.259156
0.245939
0.236308
0.225979
0.21699
0.208738
0.201512
0.193719
0.18422
0.171127
0.159509
0.152256
0.146977
0.143652
0.14232
0.141894
0.141858
0.142001
0.14241
0.142921
0.143927
0.146566
0.155791
0.185964
0.217598
0.239078
0.251918
0.258501
0.260942
0.260977
0.260516
0.261967
0.263996
0.262874
0.250296
0.19981
0.169999
0.163752
0.157958
0.139794
0.117666
0.104699
0.0946683
0.0823884
0.0700516
0.060964
0.0554478
0.0524838
0.0516543
0.0522726
0.0564633
0.0580039
0.0567816
0.050248
0.0378681
0.0328975
0.0329546
0.0359183
0.241682
0.212414
0.241341
0.265198
0.267067
0.258566
0.252215
0.249193
0.245438
0.244222
0.244097
0.245457
0.252706
0.263026
0.277164
0.291398
0.298414
0.300177
0.290092
0.258772
0.205608
0.145642
0.106654
0.0944899
0.0914104
0.0909742
0.0915792
0.0935668
0.0955667
0.096633
0.0982764
0.0994672
0.101832
0.104181
0.107289
0.110513
0.115423
0.121975
0.1285
0.133034
0.137355
0.142918
0.147786
0.151841
0.156353
0.158312
0.158803
0.158639
0.157085
0.154334
0.151401
0.148761
0.146511
0.145361
0.144215
0.143249
0.142089
0.141068
0.139595
0.137072
0.133126
0.12781
0.121265
0.115111
0.109763
0.106641
0.104769
0.102575
0.0998287
0.0977015
0.096743
0.0972031
0.0991687
0.103311
0.108783
0.113397
0.116564
0.118884
0.119328
0.119238
0.121719
0.133572
0.143345
0.145849
0.145591
0.145936
0.146618
0.139593
0.102544
0.0756952
0.0700277
0.0705691
0.0730451
0.0754039
0.0772714
0.0790995
0.0817553
0.0854285
0.0902656
0.0972826
0.112414
0.156975
0.260838
0.362215
0.412917
0.434944
0.421302
0.302152
0.224771
0.203244
0.19904
0.206013
0.216512
0.242847
0.280753
0.306192
0.316721
0.320699
0.321171
0.313098
0.296419
0.281106
0.261875
0.24732
0.236623
0.226895
0.218313
0.210673
0.204402
0.198442
0.192461
0.183961
0.170603
0.157875
0.148691
0.143457
0.140764
0.139828
0.139743
0.140096
0.141199
0.14209
0.143114
0.145084
0.149929
0.167738
0.206771
0.235137
0.250723
0.257283
0.258657
0.257899
0.251811
0.24528
0.247494
0.25736
0.258064
0.246297
0.198588
0.176383
0.170886
0.162108
0.139316
0.115962
0.100725
0.0860245
0.071953
0.061348
0.0541288
0.0503445
0.0491629
0.0492789
0.0513738
0.0566579
0.058189
0.056518
0.0464954
0.0356156
0.0311356
0.0307105
0.240005
0.210689
0.243041
0.256107
0.258972
0.259213
0.252339
0.249048
0.243831
0.24139
0.239074
0.239052
0.242617
0.248839
0.255124
0.257513
0.252845
0.239151
0.21196
0.175333
0.137517
0.108256
0.0962621
0.092829
0.0919873
0.0922075
0.0945484
0.0984905
0.101228
0.102149
0.1029
0.104199
0.106735
0.110204
0.115935
0.125094
0.136984
0.144164
0.147725
0.153146
0.159919
0.1643
0.167511
0.169652
0.170319
0.170337
0.168322
0.164027
0.159829
0.155853
0.151612
0.147238
0.143212
0.140021
0.138421
0.137896
0.138226
0.139132
0.139914
0.139029
0.136708
0.133042
0.127941
0.122077
0.117238
0.111953
0.107388
0.105006
0.103746
0.102616
0.10012
0.0979839
0.0977488
0.0995353
0.103537
0.109582
0.113961
0.115568
0.115659
0.115898
0.118149
0.128651
0.141683
0.147808
0.148792
0.145018
0.142565
0.143354
0.14175
0.118465
0.081322
0.0680788
0.0654075
0.0655041
0.0668844
0.0702207
0.0730134
0.0752415
0.0787242
0.0844094
0.0952969
0.127957
0.229825
0.346626
0.388228
0.399869
0.356646
0.259346
0.222538
0.211288
0.214677
0.226183
0.239429
0.267048
0.305187
0.326985
0.335284
0.337887
0.337417
0.326536
0.306352
0.282472
0.252342
0.227587
0.216568
0.210915
0.206739
0.203232
0.200044
0.19677
0.192608
0.185905
0.173613
0.159771
0.14914
0.141609
0.137252
0.135561
0.135363
0.13591
0.138344
0.14085
0.142591
0.144542
0.148289
0.157966
0.190104
0.224986
0.246352
0.256603
0.259851
0.259962
0.256779
0.240734
0.229499
0.231576
0.247194
0.249026
0.23507
0.193737
0.180606
0.175109
0.164503
0.141325
0.118354
0.0976838
0.0794792
0.0654262
0.056079
0.0513821
0.0499554
0.0499778
0.0511404
0.0532897
0.0574362
0.0591161
0.0577298
0.0486142
0.0371107
0.0337165
0.239289
0.202029
0.235299
0.245977
0.247407
0.245993
0.240037
0.234625
0.224844
0.215361
0.208097
0.20569
0.205127
0.205297
0.203842
0.197587
0.185181
0.167561
0.146145
0.126287
0.110356
0.100497
0.0968882
0.0958247
0.0966217
0.098282
0.100553
0.102463
0.104162
0.104915
0.106023
0.108114
0.112398
0.120021
0.131713
0.144959
0.152362
0.158031
0.167243
0.175123
0.181381
0.185147
0.186957
0.187559
0.187405
0.184524
0.180235
0.176461
0.170585
0.165109
0.15888
0.150844
0.144974
0.13891
0.133789
0.130406
0.128927
0.128402
0.130261
0.13327
0.134994
0.133634
0.130326
0.124936
0.120634
0.115931
0.109698
0.10529
0.103364
0.10319
0.102756
0.101588
0.0999175
0.0994574
0.100973
0.105177
0.112834
0.117598
0.118126
0.11749
0.117561
0.119644
0.127519
0.143024
0.153256
0.156418
0.151039
0.142696
0.143208
0.145634
0.143028
0.120784
0.0825474
0.068054
0.0638988
0.0636925
0.064732
0.068135
0.071444
0.0755216
0.0829848
0.101052
0.167795
0.311196
0.357683
0.36567
0.320397
0.249054
0.228287
0.227143
0.227647
0.235973
0.253807
0.284842
0.322994
0.340657
0.346692
0.348565
0.347728
0.336479
0.310626
0.274943
0.23185
0.208435
0.196139
0.190137
0.188018
0.187398
0.186971
0.186586
0.185619
0.18285
0.172784
0.158036
0.145906
0.137162
0.131854
0.129649
0.129304
0.129705
0.132882
0.138487
0.142008
0.144395
0.147792
0.155148
0.177945
0.214414
0.239971
0.253883
0.259467
0.26058
0.259886
0.253012
0.228656
0.218153
0.22229
0.239731
0.239548
0.219485
0.191406
0.183931
0.177764
0.164712
0.140015
0.118635
0.0989976
0.079629
0.0641455
0.0563919
0.0540912
0.0539941
0.0542747
0.053674
0.0537067
0.0573088
0.0616278
0.0609536
0.053813
0.0438113
0.243713
0.194312
0.218165
0.231296
0.234393
0.232005
0.216299
0.198448
0.184448
0.178234
0.175329
0.174089
0.173245
0.172109
0.16727
0.158288
0.147448
0.136352
0.125296
0.115897
0.108624
0.101793
0.100155
0.10039
0.101081
0.102272
0.103173
0.104227
0.10541
0.106527
0.10801
0.111222
0.11754
0.129037
0.145335
0.158385
0.169818
0.181348
0.193893
0.20345
0.209398
0.212246
0.213487
0.213737
0.211963
0.208
0.205514
0.201745
0.196859
0.192799
0.186532
0.178852
0.167745
0.154907
0.144154
0.134122
0.128922
0.126428
0.125379
0.125035
0.126289
0.129362
0.13103
0.126538
0.122404
0.119394
0.115577
0.10784
0.102431
0.0996413
0.101083
0.101575
0.101404
0.101318
0.101676
0.103224
0.108272
0.117881
0.123863
0.12406
0.121517
0.119865
0.120329
0.124366
0.140051
0.158593
0.163317
0.157515
0.14227
0.139789
0.141182
0.140659
0.132221
0.0960452
0.0718751
0.0645406
0.062898
0.0632307
0.065308
0.069614
0.0748001
0.0845863
0.11449
0.224056
0.330924
0.34324
0.304926
0.250801
0.24055
0.248762
0.254985
0.255917
0.265845
0.29058
0.324179
0.34306
0.350723
0.353408
0.353468
0.344846
0.316076
0.27178
0.232749
0.209071
0.194418
0.186127
0.18265
0.181901
0.181756
0.180866
0.178445
0.173295
0.162592
0.14668
0.136075
0.130797
0.128351
0.127211
0.126913
0.12704
0.128367
0.13485
0.141182
0.144494
0.147765
0.154524
0.173697
0.207074
0.233625
0.24925
0.256836
0.259644
0.259938
0.258375
0.245567
0.217765
0.210863
0.219482
0.233466
0.229903
0.205586
0.191182
0.186292
0.17827
0.158347
0.13594
0.119229
0.100553
0.0820603
0.0703295
0.0666624
0.0661896
0.0652838
0.0604604
0.054248
0.0545717
0.0604755
0.0656528
0.0655048
0.0616335
0.253936
0.19228
0.201806
0.204876
0.206786
0.206237
0.196783
0.171662
0.163389
0.160214
0.158684
0.157219
0.154857
0.151353
0.145658
0.138825
0.132396
0.127021
0.121487
0.11627
0.110612
0.105485
0.104107
0.103886
0.103981
0.10442
0.104901
0.105671
0.106832
0.108715
0.112319
0.119157
0.129741
0.144071
0.157652
0.171313
0.188467
0.206695
0.218872
0.226521
0.22995
0.231313
0.231606
0.230616
0.230251
0.231101
0.231963
0.232252
0.231853
0.228878
0.225533
0.221309
0.21522
0.204623
0.185537
0.163438
0.144863
0.13359
0.127785
0.124943
0.123927
0.124075
0.12551
0.127336
0.123444
0.120645
0.118195
0.112523
0.103802
0.0977219
0.0955547
0.0969747
0.0987396
0.100329
0.10172
0.103186
0.106003
0.11425
0.124735
0.131044
0.131538
0.128548
0.124045
0.122781
0.12445
0.13459
0.158471
0.168024
0.165121
0.143995
0.133846
0.134168
0.134082
0.130438
0.109819
0.0784055
0.0663385
0.0634784
0.0635121
0.0649807
0.0693834
0.0752093
0.0882764
0.135294
0.261953
0.325067
0.303521
0.254563
0.2456
0.253862
0.269862
0.278988
0.285558
0.299683
0.320778
0.340167
0.34922
0.353014
0.353024
0.347021
0.322717
0.277408
0.2427
0.217319
0.198012
0.185951
0.180502
0.178991
0.178427
0.177535
0.175194
0.168119
0.148778
0.135582
0.130747
0.129014
0.127808
0.126992
0.126651
0.126672
0.127347
0.131299
0.140034
0.144941
0.148443
0.154826
0.173337
0.202567
0.226881
0.241732
0.250232
0.255468
0.258589
0.259009
0.256681
0.236933
0.21175
0.207827
0.220066
0.226675
0.217884
0.198171
0.192413
0.186701
0.17228
0.150393
0.134119
0.116467
0.0980934
0.085232
0.0799319
0.0790665
0.0788538
0.0769617
0.0665467
0.058481
0.0595044
0.0657948
0.0703305
0.0703121
0.268556
0.194807
0.194694
0.18704
0.186037
0.176045
0.167802
0.156457
0.14823
0.147349
0.147543
0.147679
0.146461
0.142585
0.13571
0.130555
0.127842
0.125584
0.122557
0.119339
0.116576
0.114356
0.113271
0.111785
0.11034
0.109013
0.108522
0.108622
0.109456
0.111499
0.115807
0.123619
0.135098
0.149528
0.164586
0.185637
0.209584
0.226073
0.234962
0.240009
0.242161
0.243147
0.243682
0.245063
0.248162
0.249879
0.250432
0.249538
0.246892
0.24351
0.239187
0.234196
0.229387
0.226003
0.22091
0.209252
0.185738
0.158106
0.141429
0.131349
0.125938
0.123785
0.123231
0.12373
0.123773
0.121305
0.118771
0.113574
0.104503
0.0969091
0.0921
0.0912697
0.0922783
0.0948797
0.0977011
0.100575
0.104395
0.111994
0.123329
0.132884
0.13783
0.13846
0.136268
0.12983
0.126415
0.126731
0.133238
0.157765
0.172675
0.17291
0.159577
0.139675
0.134036
0.132303
0.129175
0.118809
0.0879174
0.0699412
0.0647869
0.0647514
0.066241
0.0705883
0.076548
0.0941999
0.153182
0.278538
0.295711
0.264611
0.248737
0.253055
0.269195
0.282955
0.293434
0.304277
0.317709
0.332603
0.343054
0.349319
0.348888
0.343732
0.324911
0.282932
0.248101
0.221045
0.200285
0.186303
0.178974
0.1759
0.174039
0.172133
0.168726
0.160002
0.141313
0.13146
0.129122
0.128901
0.128713
0.128226
0.12754
0.127131
0.127395
0.129821
0.138346
0.144702
0.148995
0.156106
0.175624
0.202025
0.22195
0.236678
0.243755
0.251498
0.258104
0.26062
0.260509
0.256173
0.230828
0.211773
0.210588
0.220529
0.220026
0.205852
0.197225
0.1927
0.18258
0.162584
0.145928
0.128807
0.110816
0.097013
0.0899991
0.0884704
0.0893939
0.0904601
0.0884931
0.0766737
0.0671921
0.0677361
0.0720425
0.0748989
0.289638
0.208783
0.198805
0.175939
0.167967
0.160244
0.143692
0.137074
0.134326
0.134344
0.135807
0.138191
0.138832
0.137869
0.133546
0.128756
0.126944
0.126184
0.126028
0.127606
0.130404
0.131306
0.131076
0.129062
0.124269
0.12048
0.119652
0.119191
0.118443
0.118587
0.123865
0.132337
0.143816
0.158656
0.177637
0.200262
0.220835
0.234643
0.242761
0.246485
0.248273
0.249673
0.251945
0.25581
0.258097
0.259165
0.259446
0.257904
0.255114
0.250703
0.245371
0.239216
0.232297
0.227238
0.224253
0.219861
0.210218
0.190011
0.162812
0.143819
0.132433
0.126089
0.123331
0.121932
0.121668
0.121274
0.118729
0.113044
0.101722
0.0915674
0.0871024
0.0861891
0.0871461
0.0903501
0.0934594
0.0953337
0.0988434
0.107171
0.120034
0.132383
0.140554
0.143245
0.143548
0.142079
0.135885
0.131646
0.131317
0.135368
0.157389
0.182223
0.185716
0.177568
0.150676
0.137342
0.132735
0.129929
0.122538
0.0982591
0.0747087
0.0671492
0.0669219
0.0686994
0.0726163
0.0790736
0.0996691
0.160876
0.264515
0.26027
0.249596
0.250528
0.260157
0.278709
0.291541
0.302721
0.313996
0.324904
0.334589
0.34061
0.339771
0.334253
0.314939
0.279438
0.247134
0.219899
0.198628
0.183822
0.175821
0.172547
0.170934
0.168857
0.164069
0.148413
0.133949
0.128684
0.12829
0.129941
0.132146
0.132268
0.131368
0.129388
0.128729
0.129871
0.136551
0.143744
0.149001
0.157941
0.181298
0.204375
0.220716
0.235738
0.2429
0.250504
0.264362
0.270143
0.269967
0.267349
0.255541
0.226316
0.21369
0.214928
0.217677
0.211113
0.200942
0.196934
0.189335
0.172612
0.155923
0.139062
0.121001
0.105743
0.0976918
0.0959207
0.0969081
0.0994227
0.0995587
0.0960942
0.0839374
0.0761401
0.0761171
0.0777001
0.310354
0.227809
0.207947
0.178748
0.163432
0.153173
0.138274
0.124669
0.121532
0.122334
0.12469
0.128219
0.130833
0.130641
0.129337
0.126748
0.12608
0.126142
0.126943
0.129667
0.134182
0.138203
0.140847
0.142285
0.141698
0.137903
0.133309
0.132016
0.134066
0.137658
0.140785
0.146712
0.156367
0.169352
0.185764
0.205628
0.223809
0.236906
0.245437
0.249674
0.252145
0.254157
0.257185
0.260654
0.26247
0.263239
0.262677
0.261371
0.258484
0.253428
0.247491
0.24098
0.233337
0.224987
0.219294
0.217336
0.212925
0.200709
0.177684
0.153892
0.138317
0.129992
0.125126
0.122317
0.120396
0.118179
0.114813
0.106469
0.0910245
0.0778934
0.0731779
0.0735501
0.0775443
0.0872905
0.0924712
0.0942968
0.0956908
0.0987955
0.109548
0.127799
0.141185
0.148086
0.149143
0.148505
0.14623
0.141513
0.138354
0.137624
0.139906
0.156872
0.183329
0.189328
0.184996
0.161066
0.141375
0.133287
0.130218
0.124001
0.106119
0.0797885
0.0707179
0.0701431
0.0719244
0.0751941
0.081741
0.101546
0.160056
0.230384
0.241012
0.242988
0.248702
0.262563
0.281029
0.2945
0.30579
0.314133
0.323675
0.326647
0.324671
0.316683
0.292735
0.257631
0.227768
0.204416
0.187604
0.177184
0.172047
0.169937
0.168633
0.166148
0.159467
0.142245
0.129611
0.127061
0.127574
0.132182
0.138383
0.139531
0.138781
0.135037
0.131861
0.131568
0.135764
0.143059
0.149502
0.16197
0.19016
0.210295
0.221502
0.236097
0.248433
0.258602
0.284265
0.297837
0.297371
0.292144
0.278352
0.248196
0.223854
0.215879
0.215765
0.213258
0.203675
0.199849
0.194031
0.180637
0.164814
0.147879
0.129257
0.113139
0.103948
0.102027
0.102598
0.104609
0.105209
0.104191
0.097739
0.0869277
0.0822442
0.0815832
0.337583
0.255048
0.22103
0.189601
0.166593
0.153896
0.140193
0.124047
0.115983
0.113948
0.115188
0.118617
0.123776
0.126803
0.125606
0.123679
0.122787
0.123837
0.125988
0.128968
0.133287
0.137413
0.14083
0.143835
0.146544
0.149203
0.149762
0.147657
0.145004
0.146436
0.150278
0.155402
0.161371
0.170241
0.184496
0.202966
0.220739
0.234389
0.243778
0.248879
0.251904
0.253908
0.256418
0.259094
0.261229
0.262546
0.262304
0.261156
0.258421
0.251544
0.242339
0.234478
0.22795
0.218679
0.209773
0.20568
0.205187
0.201112
0.183716
0.158921
0.141293
0.132297
0.127598
0.124362
0.121134
0.115239
0.104225
0.089189
0.0732754
0.0631223
0.0605173
0.0613241
0.0688351
0.0851049
0.0922821
0.0945364
0.0954759
0.0969734
0.100454
0.113196
0.135171
0.149053
0.155113
0.155432
0.152095
0.148577
0.147158
0.146207
0.145671
0.146475
0.155687
0.181532
0.190456
0.188205
0.169071
0.144663
0.134045
0.130091
0.124576
0.111589
0.0852656
0.0757779
0.0743768
0.0755806
0.0782999
0.0838245
0.100118
0.139545
0.1931
0.217725
0.22819
0.240125
0.254746
0.26933
0.283023
0.290842
0.298669
0.29759
0.291264
0.274325
0.24689
0.22177
0.202272
0.188074
0.177985
0.172167
0.169485
0.168081
0.166049
0.161526
0.148424
0.131263
0.125417
0.125324
0.127077
0.133786
0.145588
0.149196
0.148634
0.144022
0.138206
0.136674
0.138374
0.145365
0.153497
0.172727
0.200011
0.217677
0.225777
0.240606
0.270463
0.292498
0.33228
0.354474
0.352677
0.342733
0.316196