/*--------------------------------*- C++ -*----------------------------------*\
| =========                 |                                                 |
| \\      /  F ield         | OpenFOAM: The Open Source CFD Toolbox           |
|  \\    /   O peration     | Version:  2112                                  |
|   \\  /    A nd           | Website:  www.openfoam.com                      |
|    \\/     M anipulation  |                                                 |
\*---------------------------------------------------------------------------*/
FoamFile
{
    version     2.0;
    format      ascii;
    arch        "LSB;label=32;scalar=64";
    class       surfaceScalarField;
    location    "0.026";
    object      phi;
}
// * * * * * * * * * * * * * * * * * * * * * * * * * * * * * * * * * * * * * //

dimensions      [0 3 -1 0 0 0 0];

oriented        oriented;

internalField   nonuniform List<scalar> 
24170
(
3.13495e-06
6.99062e-08
2.98803e-06
1.46911e-07
2.88265e-06
1.05388e-07
2.80627e-06
7.63732e-08
2.74256e-06
6.37153e-08
2.67011e-06
7.24472e-08
2.57246e-06
9.765e-08
2.45457e-06
1.17895e-07
2.33369e-06
1.20875e-07
2.22023e-06
1.1346e-07
2.11346e-06
1.06772e-07
2.00862e-06
1.04837e-07
1.90335e-06
1.05274e-07
1.7989e-06
1.04445e-07
1.69534e-06
1.03567e-07
1.58539e-06
1.09948e-07
1.45642e-06
1.28964e-07
1.67072e-07
1.28935e-06
3.4528e-06
8.45468e-08
3.43502e-06
1.64684e-07
3.40531e-06
1.35103e-07
3.37377e-06
1.07917e-07
3.36623e-06
7.12485e-08
3.38655e-06
5.2126e-08
3.41876e-06
6.54402e-08
3.44267e-06
9.39902e-08
3.44557e-06
1.17976e-07
3.42477e-06
1.34259e-07
3.38493e-06
1.46612e-07
3.33366e-06
1.56111e-07
3.27742e-06
1.61507e-07
3.2188e-06
1.63071e-07
3.15887e-06
1.6349e-07
3.09216e-06
1.76664e-07
3.0185e-06
2.02618e-07
2.46392e-07
2.93918e-06
3.57706e-06
1.78149e-07
3.62011e-06
1.21634e-07
3.64207e-06
1.13139e-07
3.63586e-06
1.1413e-07
3.63188e-06
7.52311e-08
3.64159e-06
4.2409e-08
3.65893e-06
4.81034e-08
3.67348e-06
7.94362e-08
3.67971e-06
1.11746e-07
3.67984e-06
1.34139e-07
3.67916e-06
1.47289e-07
3.68056e-06
1.54711e-07
3.68178e-06
1.60284e-07
3.6777e-06
1.67156e-07
3.66243e-06
1.78757e-07
3.63692e-06
2.02174e-07
3.60303e-06
2.36511e-07
2.75593e-07
3.57383e-06
3.90412e-06
2.07274e-07
3.9177e-06
1.08054e-07
3.89668e-06
1.34162e-07
3.88355e-06
1.27257e-07
3.88858e-06
7.01982e-08
3.90849e-06
2.25038e-08
3.93231e-06
2.42853e-08
3.94801e-06
6.37291e-08
3.95009e-06
1.09671e-07
3.94261e-06
1.41619e-07
3.93355e-06
1.56345e-07
3.92806e-06
1.602e-07
3.9255e-06
1.62845e-07
3.92092e-06
1.71736e-07
3.90964e-06
1.90037e-07
3.89202e-06
2.19798e-07
3.87223e-06
2.56295e-07
2.92112e-07
3.85572e-06
4.24059e-06
1.7131e-07
4.22511e-06
1.23534e-07
4.20744e-06
1.51829e-07
4.19569e-06
1.39005e-07
4.18416e-06
8.17264e-08
4.17567e-06
3.09962e-08
4.17681e-06
2.31506e-08
4.18482e-06
5.57149e-08
4.1921e-06
1.02387e-07
4.19356e-06
1.4016e-07
4.18925e-06
1.60653e-07
4.18133e-06
1.68126e-07
4.17113e-06
1.7304e-07
4.15785e-06
1.85018e-07
4.14058e-06
2.07305e-07
4.12041e-06
2.39969e-07
4.1002e-06
2.76507e-07
3.09464e-07
4.08285e-06
4.54337e-06
4.72721e-08
4.54151e-06
1.25392e-07
4.51649e-06
1.7685e-07
4.50733e-06
1.48169e-07
4.50213e-06
8.69273e-08
4.49115e-06
4.19757e-08
4.47581e-06
3.84904e-08
4.46408e-06
6.74389e-08
4.45869e-06
1.0778e-07
4.45617e-06
1.42682e-07
4.45164e-06
1.65182e-07
4.44228e-06
1.77485e-07
4.42804e-06
1.87282e-07
4.41014e-06
2.02913e-07
4.39026e-06
2.2719e-07
4.37109e-06
2.59136e-07
4.35428e-06
2.93315e-07
3.22449e-07
4.3413e-06
4.93456e-06
-4.16662e-08
4.89608e-06
1.63874e-07
4.86826e-06
2.04677e-07
4.85632e-06
1.60107e-07
4.84341e-06
9.98379e-08
4.82475e-06
6.06336e-08
4.80469e-06
5.85549e-08
4.7878e-06
8.43201e-08
4.77621e-06
1.19377e-07
4.76946e-06
1.49432e-07
4.76583e-06
1.68808e-07
4.76294e-06
1.8037e-07
4.75875e-06
1.9148e-07
4.75221e-06
2.0945e-07
4.74308e-06
2.36322e-07
4.73276e-06
2.69448e-07
4.72214e-06
3.03942e-07
3.32504e-07
4.71208e-06
5.26164e-06
1.01558e-07
5.23183e-06
1.93685e-07
5.23925e-06
1.97256e-07
5.2366e-06
1.62752e-07
5.22093e-06
1.15511e-07
5.19903e-06
8.25375e-08
5.18102e-06
7.65624e-08
5.17372e-06
9.16137e-08
5.17744e-06
1.15662e-07
5.18729e-06
1.39582e-07
5.19582e-06
1.60283e-07
5.19656e-06
1.7963e-07
5.18694e-06
2.01098e-07
5.16819e-06
2.28196e-07
5.14402e-06
2.60489e-07
5.11875e-06
2.94726e-07
5.09539e-06
3.27302e-07
3.52024e-07
5.07587e-06
5.58308e-06
6.74294e-08
5.63385e-06
1.42912e-07
5.64791e-06
1.832e-07
5.65178e-06
1.58882e-07
5.63851e-06
1.28783e-07
5.61788e-06
1.03163e-07
5.60702e-06
8.74277e-08
5.61251e-06
8.61227e-08
5.62962e-06
9.85479e-08
5.6476e-06
1.21607e-07
5.65599e-06
1.51888e-07
5.64922e-06
1.86405e-07
5.62811e-06
2.22205e-07
5.5977e-06
2.58609e-07
5.56339e-06
2.94801e-07
5.52921e-06
3.28908e-07
5.49653e-06
3.59976e-07
3.82955e-07
5.4656e-06
5.98293e-06
9.85807e-08
5.97188e-06
1.53966e-07
5.96754e-06
1.87536e-07
5.94631e-06
1.80113e-07
5.91333e-06
1.61763e-07
5.88345e-06
1.33045e-07
5.86963e-06
1.01244e-07
5.87725e-06
7.85011e-08
5.90414e-06
7.16636e-08
5.94138e-06
8.43622e-08
5.97541e-06
1.17864e-07
5.99408e-06
1.67735e-07
5.9923e-06
2.2398e-07
5.9731e-06
2.7781e-07
5.94455e-06
3.23347e-07
5.91492e-06
3.58543e-07
5.89016e-06
3.84739e-07
4.02046e-07
5.87107e-06
6.46853e-06
1.57021e-07
6.42183e-06
2.00668e-07
6.40109e-06
2.08278e-07
6.40765e-06
1.73552e-07
6.43679e-06
1.32622e-07
6.4632e-06
1.06633e-07
6.46704e-06
9.74038e-08
6.44703e-06
9.85158e-08
6.41412e-06
1.04566e-07
6.37978e-06
1.1871e-07
6.35085e-06
1.46793e-07
6.32829e-06
1.90294e-07
6.31015e-06
2.4212e-07
6.29424e-06
2.93717e-07
6.27946e-06
3.38133e-07
6.26519e-06
3.72805e-07
6.25152e-06
3.98414e-07
4.16186e-07
6.23738e-06
5.52492e-06
1.57916e-07
5.65476e-06
7.08247e-08
5.76766e-06
9.53783e-08
5.82176e-06
1.19451e-07
5.84338e-06
1.11e-07
5.84277e-06
1.07252e-07
5.82555e-06
1.1462e-07
5.79739e-06
1.26676e-07
5.76085e-06
1.41107e-07
5.71764e-06
1.61916e-07
5.67108e-06
1.93361e-07
5.62702e-06
2.34347e-07
5.59133e-06
2.7781e-07
5.56859e-06
3.16459e-07
5.5593e-06
3.47419e-07
5.56169e-06
3.70421e-07
5.5721e-06
3.87998e-07
4.03122e-07
5.58517e-06
7.03399e-06
6.37994e-08
7.03923e-06
6.55807e-08
7.02019e-06
1.1442e-07
7.01935e-06
1.20299e-07
7.01815e-06
1.12197e-07
7.0116e-06
1.13803e-07
6.99816e-06
1.28059e-07
6.97555e-06
1.49286e-07
6.9443e-06
1.72351e-07
6.91014e-06
1.96075e-07
6.88181e-06
2.217e-07
6.86668e-06
2.49477e-07
6.86724e-06
2.77246e-07
6.88156e-06
3.02138e-07
6.90533e-06
3.23652e-07
6.93345e-06
3.42297e-07
6.96205e-06
3.59405e-07
3.76781e-07
6.98839e-06
8.32724e-06
8.73679e-08
8.37714e-06
1.56743e-08
8.46563e-06
2.59363e-08
8.51327e-06
7.26594e-08
8.49966e-06
1.25806e-07
8.463e-06
1.50459e-07
8.43714e-06
1.53922e-07
8.42609e-06
1.60331e-07
8.42021e-06
1.78235e-07
8.41371e-06
2.02575e-07
8.40801e-06
2.27396e-07
8.40665e-06
2.50841e-07
8.4111e-06
2.72795e-07
8.41792e-06
2.9532e-07
8.42357e-06
3.18003e-07
8.42459e-06
3.41276e-07
8.42166e-06
3.62334e-07
3.80923e-07
8.41752e-06
1.03451e-05
-5.18854e-09
1.03707e-05
-9.9706e-09
1.03509e-05
4.57265e-08
1.03107e-05
1.12858e-07
1.03045e-05
1.32075e-07
1.03456e-05
1.09331e-07
1.03984e-05
1.0114e-07
1.04215e-05
1.37258e-07
1.04017e-05
1.98033e-07
1.035e-05
2.54237e-07
1.02863e-05
2.91099e-07
1.0228e-05
3.09112e-07
1.01854e-05
3.15449e-07
1.01627e-05
3.1797e-07
1.01605e-05
3.20261e-07
1.01767e-05
3.25018e-07
1.02091e-05
3.29899e-07
3.37816e-07
1.02523e-05
1.26417e-05
-5.89234e-08
1.26089e-05
2.28506e-08
1.25228e-05
1.31806e-07
1.24629e-05
1.72763e-07
1.24523e-05
1.42717e-07
1.24691e-05
9.25113e-08
1.24902e-05
8.00299e-08
1.25106e-05
1.16924e-07
1.25338e-05
1.74815e-07
1.25575e-05
2.30547e-07
1.2576e-05
2.7255e-07
1.25859e-05
2.99198e-07
1.25881e-05
3.13284e-07
1.25878e-05
3.18227e-07
1.25914e-05
3.16669e-07
1.26045e-05
3.1191e-07
1.2629e-05
3.05429e-07
3.00756e-07
1.26661e-05
1.53336e-05
-1.86591e-07
1.53814e-05
-2.49953e-08
1.54099e-05
1.03353e-07
1.53875e-05
1.9518e-07
1.53096e-05
2.206e-07
1.51909e-05
2.1124e-07
1.50847e-05
1.86217e-07
1.50469e-05
1.54705e-07
1.50945e-05
1.27263e-07
1.52121e-05
1.12945e-07
1.53668e-05
1.17843e-07
1.55234e-05
1.42604e-07
1.56554e-05
1.81201e-07
1.5749e-05
2.24687e-07
1.58015e-05
2.64155e-07
1.5819e-05
2.94422e-07
1.58102e-05
3.14253e-07
3.24313e-07
1.57866e-05
1.87955e-05
1.97329e-08
1.86861e-05
8.44644e-08
1.87127e-05
7.67326e-08
1.88071e-05
1.00832e-07
1.88968e-05
1.30837e-07
1.89397e-05
1.68359e-07
1.89319e-05
1.94015e-07
1.89032e-05
1.83368e-07
1.88853e-05
1.45188e-07
1.8893e-05
1.05268e-07
1.89252e-05
8.55827e-08
1.89714e-05
9.64453e-08
1.9019e-05
1.33653e-07
1.9059e-05
1.84634e-07
1.90889e-05
2.34215e-07
1.91106e-05
2.72812e-07
1.91289e-05
2.9593e-07
3.04824e-07
1.91484e-05
2.24971e-05
-7.94468e-08
2.25917e-05
-1.00941e-08
2.26726e-05
-4.1788e-09
2.27368e-05
3.66077e-08
2.27614e-05
1.06261e-07
2.27825e-05
1.47254e-07
2.28456e-05
1.30901e-07
2.29443e-05
8.47253e-08
2.30454e-05
4.40485e-08
2.31199e-05
3.08248e-08
2.31583e-05
4.715e-08
2.31698e-05
8.48884e-08
2.31727e-05
1.30781e-07
2.31841e-05
1.7329e-07
2.32131e-05
2.05136e-07
2.32609e-05
2.25032e-07
2.33223e-05
2.34535e-07
2.38105e-07
2.3389e-05
1.71242e-05
1.91188e-07
1.7055e-05
5.91063e-08
1.70569e-05
-6.05985e-09
1.70122e-05
8.12833e-08
1.69637e-05
1.54773e-07
1.69456e-05
1.65371e-07
1.69558e-05
1.20715e-07
1.69784e-05
6.20898e-08
1.69981e-05
2.4364e-08
1.70107e-05
1.82229e-08
1.70203e-05
3.75267e-08
1.70342e-05
7.09912e-08
1.70574e-05
1.07567e-07
1.7091e-05
1.39654e-07
1.71327e-05
1.63499e-07
1.71782e-05
1.79524e-07
1.72237e-05
1.89029e-07
1.9547e-07
1.72663e-05
1.45079e-05
1.99381e-07
1.45979e-05
-3.08789e-08
1.46566e-05
-6.47449e-08
1.47116e-05
2.63015e-08
1.47478e-05
1.18599e-07
1.47592e-05
1.53901e-07
1.47446e-05
1.35305e-07
1.47208e-05
8.59163e-08
1.47083e-05
3.68335e-08
1.4713e-05
1.36127e-08
1.47279e-05
2.25881e-08
1.47447e-05
5.4156e-08
1.47588e-05
9.35051e-08
1.47688e-05
1.29692e-07
1.47764e-05
1.55858e-07
1.47851e-05
1.70789e-07
1.47985e-05
1.75614e-07
1.72798e-07
1.48212e-05
1.25113e-05
3.73564e-07
1.23968e-05
8.36452e-08
1.24658e-05
-1.33786e-07
1.25954e-05
-1.03287e-07
1.26948e-05
1.91881e-08
1.27235e-05
1.25261e-07
1.27133e-05
1.45498e-07
1.27141e-05
8.50977e-08
1.27533e-05
-2.39928e-09
1.2829e-05
-6.21056e-08
1.2919e-05
-6.73636e-08
1.29971e-05
-2.39718e-08
1.30472e-05
4.34715e-08
1.30668e-05
1.10001e-07
1.30626e-05
1.60094e-07
1.30445e-05
1.88927e-07
1.30211e-05
1.98986e-07
1.95191e-07
1.29987e-05
1.12172e-05
2.13983e-07
1.11883e-05
1.12503e-07
1.10757e-05
-2.11682e-08
1.10236e-05
-5.11297e-08
1.10403e-05
2.48977e-09
1.10879e-05
7.75779e-08
1.11157e-05
1.17712e-07
1.11032e-05
9.76352e-08
1.10674e-05
3.33632e-08
1.10393e-05
-3.39934e-08
1.10419e-05
-6.99175e-08
1.10792e-05
-6.12796e-08
1.11408e-05
-1.81877e-08
1.12121e-05
3.87393e-08
1.12808e-05
9.1337e-08
1.13414e-05
1.2837e-07
1.13938e-05
1.46624e-07
1.47433e-07
1.14415e-05
9.75969e-06
1.43312e-07
9.78431e-06
8.78852e-08
9.7785e-06
-1.53567e-08
9.78306e-06
-5.56951e-08
9.8184e-06
-3.28515e-08
9.88318e-06
1.28061e-08
9.94804e-06
5.28524e-08
9.97835e-06
6.73183e-08
9.94993e-06
6.17839e-08
9.87068e-06
4.52553e-08
9.7732e-06
2.75618e-08
9.69505e-06
1.68739e-08
9.65974e-06
1.71197e-08
9.67174e-06
2.67455e-08
9.72246e-06
4.06137e-08
9.79753e-06
5.33048e-08
9.88277e-06
6.13796e-08
6.47715e-08
9.96543e-06
8.27494e-06
1.64886e-07
8.24425e-06
1.18576e-07
8.23273e-06
-3.84426e-09
8.25563e-06
-7.85877e-08
8.30954e-06
-8.67623e-08
8.3778e-06
-5.54521e-08
8.4399e-06
-9.25623e-09
8.4809e-06
2.63227e-08
8.49676e-06
4.59227e-08
8.49526e-06
4.67604e-08
8.4874e-06
3.54192e-08
8.48353e-06
2.07369e-08
8.49026e-06
1.03923e-08
8.50897e-06
8.03994e-09
8.53667e-06
1.29157e-08
8.56843e-06
2.15439e-08
8.59914e-06
3.06647e-08
3.71672e-08
8.62675e-06
7.34875e-06
7.17561e-08
7.3522e-06
1.15125e-07
7.32648e-06
2.18746e-08
7.27381e-06
-2.5914e-08
7.22869e-06
-4.16462e-08
7.2087e-06
-3.54625e-08
7.2176e-06
-1.81528e-08
7.24295e-06
9.68464e-10
7.27613e-06
1.27455e-08
7.31214e-06
1.07465e-08
7.35033e-06
-2.77147e-09
7.39138e-06
-2.03122e-08
7.4355e-06
-3.37247e-08
7.48188e-06
-3.83403e-08
7.52881e-06
-3.40154e-08
7.57428e-06
-2.39271e-08
7.61655e-06
-1.16045e-08
-5.0828e-10
7.65423e-06
6.19245e-06
-9.50634e-09
6.31376e-06
-6.18849e-09
6.3462e-06
-1.05615e-08
6.38456e-06
-6.42799e-08
6.42967e-06
-8.67477e-08
6.46841e-06
-7.42062e-08
6.4961e-06
-4.58428e-08
6.51755e-06
-2.04863e-08
6.53862e-06
-8.32205e-09
6.55861e-06
-9.2407e-09
6.57221e-06
-1.63743e-08
6.57421e-06
-2.23099e-08
6.56395e-06
-2.34649e-08
6.54611e-06
-2.04977e-08
6.5284e-06
-1.63074e-08
6.51748e-06
-1.30059e-08
6.51738e-06
-1.15063e-08
-1.16991e-08
6.52857e-06
5.47984e-06
-4.06632e-08
5.51989e-06
-4.62385e-08
5.56105e-06
-5.17156e-08
5.57759e-06
-8.08235e-08
5.57718e-06
-8.63353e-08
5.57409e-06
-7.1121e-08
5.57515e-06
-4.69042e-08
5.5831e-06
-2.84314e-08
5.59889e-06
-2.4115e-08
5.62117e-06
-3.15226e-08
5.64596e-06
-4.11624e-08
5.66803e-06
-4.43781e-08
5.68359e-06
-3.90259e-08
5.692e-06
-2.89032e-08
5.69538e-06
-1.96879e-08
5.69728e-06
-1.49083e-08
5.70045e-06
-1.46767e-08
-1.77189e-08
5.70647e-06
4.76289e-06
-5.54997e-08
4.78962e-06
-7.29646e-08
4.83891e-06
-1.01004e-07
4.86936e-06
-1.11279e-07
4.88112e-06
-9.80894e-08
4.88275e-06
-7.27515e-08
4.8822e-06
-4.63599e-08
4.88199e-06
-2.82173e-08
4.88243e-06
-2.45527e-08
4.88469e-06
-3.37886e-08
4.89024e-06
-4.67098e-08
4.89928e-06
-5.34159e-08
4.91035e-06
-5.00954e-08
4.921e-06
-3.95545e-08
4.92888e-06
-2.75703e-08
4.93281e-06
-1.88329e-08
4.9335e-06
-1.53655e-08
-1.67269e-08
4.9325e-06
4.14262e-06
4.06965e-06
3.96865e-06
3.85737e-06
3.75928e-06
3.68653e-06
3.64017e-06
3.61195e-06
3.5874e-06
3.55361e-06
3.5069e-06
3.45348e-06
3.40339e-06
3.36383e-06
3.33626e-06
3.31743e-06
3.30207e-06
3.28534e-06
-4.58897e-07
4.58897e-07
-7.21092e-07
2.62195e-07
-5.83099e-07
-1.37992e-07
-1.56321e-07
-4.26779e-07
4.33228e-07
-5.89549e-07
1.09045e-06
-6.57226e-07
1.74065e-06
-6.50191e-07
2.33374e-06
-5.93092e-07
2.83867e-06
-5.04931e-07
3.23595e-06
-3.97282e-07
3.51582e-06
-2.79867e-07
3.67513e-06
-1.59313e-07
3.71544e-06
-4.03051e-08
3.64447e-06
7.09709e-08
3.47081e-06
1.73652e-07
3.21009e-06
2.60722e-07
2.8794e-06
3.30688e-07
2.49717e-06
3.82238e-07
2.07706e-06
4.20105e-07
1.64498e-06
4.32082e-07
1.20286e-06
4.42122e-07
8.09796e-07
3.93061e-07
4.68564e-07
3.41233e-07
2.34628e-07
2.33936e-07
2.29017e-07
5.61046e-09
3.52368e-07
-1.2335e-07
4.80027e-07
-1.27659e-07
1.00567e-06
-5.25641e-07
1.33415e-06
-3.28483e-07
1.35634e-06
-2.21914e-08
1.30566e-06
5.06788e-08
7.37994e-07
5.67669e-07
-4.67307e-07
1.2053e-06
-1.72488e-06
1.25757e-06
-2.94321e-06
1.21833e-06
-4.09148e-06
1.14827e-06
-5.16583e-06
1.07435e-06
-6.15211e-06
9.86279e-07
-7.04915e-06
8.97044e-07
-7.85354e-06
8.04385e-07
-8.5676e-06
7.14063e-07
-9.19356e-06
6.25954e-07
-9.73569e-06
5.42134e-07
-1.01983e-05
4.62654e-07
-1.05864e-05
3.8809e-07
-1.09047e-05
3.18253e-07
-1.11577e-05
2.53057e-07
-1.135e-05
1.92268e-07
-1.14857e-05
1.35735e-07
-1.15692e-05
8.34182e-08
-1.16045e-05
3.53196e-08
-1.15967e-05
-7.76876e-09
-1.15531e-05
-4.36555e-08
-1.1477e-05
-7.60762e-08
-1.13727e-05
-1.04245e-07
-1.12448e-05
-1.27926e-07
-1.10976e-05
-1.47217e-07
-1.09354e-05
-1.6217e-07
-1.07625e-05
-1.72945e-07
-1.05827e-05
-1.79748e-07
-1.03998e-05
-1.82928e-07
-1.02169e-05
-1.82887e-07
-1.00367e-05
-1.80179e-07
-9.86128e-06
-1.75463e-07
-9.69176e-06
-1.69518e-07
-9.52856e-06
-1.632e-07
-9.37112e-06
-1.57442e-07
-9.21793e-06
-1.53189e-07
-9.06658e-06
-1.51347e-07
-8.91388e-06
-1.52705e-07
-8.75603e-06
-1.57847e-07
-8.5889e-06
-1.67126e-07
-8.40828e-06
-1.80622e-07
-8.21008e-06
-1.98195e-07
-7.99046e-06
-2.19623e-07
-7.74576e-06
-2.44701e-07
-7.47251e-06
-2.73249e-07
-7.1675e-06
-3.05013e-07
-6.82802e-06
-3.39483e-07
-6.45229e-06
-3.75731e-07
-6.03991e-06
-4.12377e-07
-5.59217e-06
-4.47735e-07
-5.1122e-06
-4.79971e-07
-4.60492e-06
-5.07282e-07
-4.07674e-06
-5.28182e-07
-3.53508e-06
-5.41655e-07
-2.98814e-06
-5.46944e-07
-2.44431e-06
-5.43833e-07
-1.91118e-06
-5.33128e-07
-1.39493e-06
-5.16249e-07
-9.0022e-07
-4.94709e-07
-4.30032e-07
-4.70188e-07
1.3321e-08
-4.43353e-07
4.31571e-07
-4.1825e-07
8.20018e-07
-3.88446e-07
1.17829e-06
-3.58274e-07
1.50678e-06
-3.28488e-07
1.80692e-06
-3.00141e-07
2.08089e-06
-2.73972e-07
2.33106e-06
-2.50167e-07
2.55953e-06
-2.2847e-07
2.76796e-06
-2.08432e-07
2.9576e-06
-1.8964e-07
3.12943e-06
-1.71828e-07
3.28432e-06
-1.54885e-07
3.42311e-06
-1.38794e-07
3.5467e-06
-1.2359e-07
3.65603e-06
-1.09329e-07
3.75208e-06
-9.60472e-08
3.83586e-06
-8.37856e-08
3.9084e-06
-7.2542e-08
3.97066e-06
-6.22584e-08
4.02354e-06
-5.28808e-08
4.06778e-06
-4.42341e-08
4.10393e-06
-3.61574e-08
4.13254e-06
-2.86014e-08
4.15382e-06
-2.12876e-08
4.16805e-06
-1.42225e-08
4.17567e-06
-7.62164e-09
4.17664e-06
-9.72929e-10
4.17075e-06
5.89198e-09
4.15847e-06
1.22794e-08
4.14056e-06
1.79086e-08
4.11777e-06
2.27879e-08
4.09084e-06
2.69358e-08
4.06051e-06
3.03225e-08
4.02751e-06
3.30016e-08
3.99246e-06
3.50548e-08
3.95593e-06
3.65313e-08
3.91842e-06
3.75034e-08
3.88036e-06
3.806e-08
3.84209e-06
3.82776e-08
3.80387e-06
3.82194e-08
3.76593e-06
3.79346e-08
3.72848e-06
3.74548e-08
3.69168e-06
3.67967e-08
3.65571e-06
3.59682e-08
3.62074e-06
3.49753e-08
3.58691e-06
3.38295e-08
3.55435e-06
3.25532e-08
3.52318e-06
3.11777e-08
3.49344e-06
2.97404e-08
3.46516e-06
2.82803e-08
3.43832e-06
2.68323e-08
3.4129e-06
2.54255e-08
3.38882e-06
2.40818e-08
3.366e-06
2.28164e-08
3.34436e-06
2.164e-08
3.3238e-06
2.05608e-08
3.30422e-06
1.9582e-08
3.28552e-06
1.87006e-08
3.26761e-06
1.79102e-08
3.2504e-06
1.72061e-08
3.23381e-06
1.65885e-08
3.21775e-06
1.60586e-08
3.20214e-06
1.56109e-08
3.18691e-06
1.52287e-08
3.17202e-06
1.48889e-08
3.15745e-06
1.45735e-08
3.14317e-06
1.42794e-08
3.12915e-06
1.40248e-08
3.11531e-06
1.38337e-08
3.10156e-06
1.37489e-08
3.08779e-06
1.37768e-08
3.07381e-06
1.39818e-08
3.0595e-06
1.4307e-08
3.04458e-06
1.49208e-08
3.02898e-06
1.56013e-08
3.0121e-06
1.68796e-08
2.99409e-06
1.80087e-08
2.97349e-06
2.05971e-08
2.95124e-06
2.22483e-08
2.92348e-06
2.77645e-08
2.89373e-06
2.97504e-08
2.85123e-06
4.24942e-08
2.80752e-06
4.37125e-08
2.7316e-06
7.59189e-08
2.65787e-06
7.37312e-08
2.48656e-06
1.71312e-07
1.71172e-07
2.31539e-06
-1.64204e-07
6.23101e-07
-8.91273e-08
1.87118e-07
3.03964e-07
-5.31083e-07
8.89759e-07
-1.01257e-06
1.54619e-06
-1.24598e-06
2.18743e-06
-1.29846e-06
2.77048e-06
-1.23325e-06
3.27292e-06
-1.09554e-06
3.68202e-06
-9.14027e-07
3.9911e-06
-7.06359e-07
4.19619e-06
-4.84963e-07
4.29628e-06
-2.59399e-07
4.29435e-06
-3.83784e-08
4.19897e-06
1.66351e-07
4.02466e-06
3.47963e-07
3.7878e-06
4.97583e-07
3.50428e-06
6.1421e-07
3.18951e-06
6.97007e-07
2.85994e-06
7.49673e-07
2.52877e-06
7.63249e-07
2.21883e-06
7.52064e-07
1.90641e-06
7.05481e-07
1.7063e-06
5.41339e-07
1.4383e-06
5.01938e-07
1.25264e-06
1.91271e-07
1.62539e-06
-4.96102e-07
1.6425e-06
-1.44765e-07
9.76069e-07
1.40787e-07
4.12942e-09
6.43456e-07
-1.44647e-06
1.42841e-06
-3.01234e-06
1.61655e-06
-4.24881e-06
1.80413e-06
-5.04889e-06
2.00539e-06
-5.82944e-06
2.03813e-06
-6.60446e-06
1.99335e-06
-7.32947e-06
1.87328e-06
-7.99443e-06
1.7393e-06
-8.59253e-06
1.58437e-06
-9.12595e-06
1.43047e-06
-9.59737e-06
1.27581e-06
-1.0011e-05
1.12773e-06
-1.0371e-05
9.85951e-07
-1.06812e-05
8.52351e-07
-1.09453e-05
7.26664e-07
-1.11659e-05
6.08776e-07
-1.13459e-05
4.98205e-07
-1.14871e-05
3.94246e-07
-1.15912e-05
2.96433e-07
-1.166e-05
2.04485e-07
-1.1695e-05
1.18464e-07
-1.16974e-05
3.76427e-08
-1.16682e-05
-3.6907e-08
-1.16076e-05
-1.04247e-07
-1.15187e-05
-1.64994e-07
-1.14045e-05
-2.18429e-07
-1.12685e-05
-2.63997e-07
-1.11144e-05
-3.01303e-07
-1.09463e-05
-3.30278e-07
-1.07681e-05
-3.51087e-07
-1.05837e-05
-3.64172e-07
-1.03964e-05
-3.70183e-07
-1.02093e-05
-3.7e-07
-1.00248e-05
-3.64706e-07
-9.84467e-06
-3.55602e-07
-9.67e-06
-3.44188e-07
-9.50104e-06
-3.32161e-07
-9.33712e-06
-3.21361e-07
-9.17663e-06
-3.1368e-07
-9.01705e-06
-3.10922e-07
-8.85511e-06
-3.14648e-07
-8.68697e-06
-3.25986e-07
-8.50859e-06
-3.45509e-07
-8.31597e-06
-3.73242e-07
-8.10536e-06
-4.08804e-07
-7.87331e-06
-4.51671e-07
-7.61659e-06
-5.01426e-07
-7.33203e-06
-5.57807e-07
-7.01656e-06
-6.20482e-07
-6.66744e-06
-6.88606e-07
-6.28274e-06
-7.60426e-07
-5.86196e-06
-8.33162e-07
-5.40636e-06
-9.0333e-07
-4.91917e-06
-9.67161e-07
-4.4055e-06
-1.02095e-06
-3.87206e-06
-1.06162e-06
-3.32659e-06
-1.08713e-06
-2.77756e-06
-1.09598e-06
-2.23362e-06
-1.08777e-06
-1.70239e-06
-1.06435e-06
-1.19004e-06
-1.0286e-06
-7.00466e-07
-9.84283e-07
-2.36306e-07
-9.34348e-07
2.03428e-07
-8.83086e-07
6.14119e-07
-8.28941e-07
9.96783e-07
-7.7111e-07
1.35028e-06
-7.11768e-07
1.67499e-06
-6.53202e-07
1.97265e-06
-5.97804e-07
2.24588e-06
-5.47203e-07
2.4975e-06
-5.01781e-07
2.72992e-06
-4.60891e-07
2.94495e-06
-4.23462e-07
3.14384e-06
-3.88526e-07
3.32747e-06
-3.55459e-07
3.49655e-06
-3.23965e-07
3.65172e-06
-2.93964e-07
3.7936e-06
-2.65476e-07
3.92284e-06
-2.38568e-07
4.04011e-06
-2.13319e-07
4.14615e-06
-1.89817e-07
4.24172e-06
-1.68119e-07
4.32769e-06
-1.48227e-07
4.40486e-06
-1.30054e-07
4.47404e-06
-1.13407e-07
4.53592e-06
-9.80391e-08
4.591e-06
-8.3687e-08
4.63983e-06
-7.01085e-08
4.68278e-06
-5.71733e-08
4.72003e-06
-4.48715e-08
4.75229e-06
-3.32394e-08
4.78048e-06
-2.22956e-08
4.80491e-06
-1.21525e-08
4.82569e-06
-2.87323e-09
4.843e-06
5.48654e-09
4.85702e-06
1.29149e-08
4.86803e-06
1.9307e-08
4.87628e-06
2.47546e-08
4.88203e-06
2.93011e-08
4.88561e-06
3.2953e-08
4.88733e-06
3.57821e-08
4.88752e-06
3.78719e-08
4.8865e-06
3.93016e-08
4.88456e-06
4.01596e-08
4.88196e-06
4.05348e-08
4.8789e-06
4.05074e-08
4.87555e-06
4.01461e-08
4.87201e-06
3.95096e-08
4.86834e-06
3.86488e-08
4.86455e-06
3.76149e-08
4.86065e-06
3.64611e-08
4.85658e-06
3.52402e-08
4.85232e-06
3.40029e-08
4.84781e-06
3.27945e-08
4.84299e-06
3.16494e-08
4.83782e-06
3.05923e-08
4.83227e-06
2.96372e-08
4.82629e-06
2.87889e-08
4.81989e-06
2.80464e-08
4.81304e-06
2.74054e-08
4.80577e-06
2.68577e-08
4.79808e-06
2.63915e-08
4.78999e-06
2.59939e-08
4.78154e-06
2.56553e-08
4.77276e-06
2.53731e-08
4.76367e-06
2.51469e-08
4.75431e-06
2.49712e-08
4.74471e-06
2.48332e-08
4.73488e-06
2.4715e-08
4.72484e-06
2.4609e-08
4.71461e-06
2.4515e-08
4.70417e-06
2.44644e-08
4.69353e-06
2.44757e-08
4.68266e-06
2.46208e-08
4.67154e-06
2.48901e-08
4.66011e-06
2.54169e-08
4.64832e-06
2.60892e-08
4.63602e-06
2.72255e-08
4.6232e-06
2.84253e-08
4.60948e-06
3.05935e-08
4.59499e-06
3.25056e-08
4.57887e-06
3.67129e-08
4.56152e-06
3.95996e-08
4.54104e-06
4.82446e-08
4.51847e-06
5.23171e-08
4.48962e-06
7.13495e-08
4.45657e-06
7.67538e-08
4.41005e-06
1.22445e-07
4.35183e-06
1.31946e-07
4.26948e-06
2.53668e-07
2.89105e-07
4.15154e-06
1.50447e-07
4.72653e-07
7.48747e-07
-4.11182e-07
1.46916e-06
-1.2515e-06
2.15303e-06
-1.69644e-06
2.75072e-06
-1.84368e-06
3.25682e-06
-1.80455e-06
3.68122e-06
-1.65765e-06
4.02997e-06
-1.44429e-06
4.30484e-06
-1.18889e-06
4.50335e-06
-9.04869e-07
4.6187e-06
-6.00308e-07
4.64433e-06
-2.85029e-07
4.57754e-06
2.84084e-08
4.40844e-06
3.35453e-07
4.15379e-06
6.02606e-07
3.83668e-06
8.14698e-07
3.48549e-06
9.65403e-07
3.12865e-06
1.05385e-06
2.77275e-06
1.10557e-06
2.43239e-06
1.10361e-06
2.1086e-06
1.07585e-06
1.79312e-06
1.02097e-06
1.49803e-06
8.36428e-07
1.24987e-06
7.50095e-07
1.11752e-06
3.2363e-07
4.89792e-07
1.31622e-07
-5.22758e-07
8.67784e-07
-2.08807e-06
1.7061e-06
-3.47418e-06
2.02957e-06
-4.396e-06
2.35022e-06
-5.25535e-06
2.4759e-06
-6.03311e-06
2.58189e-06
-6.59881e-06
2.57108e-06
-7.06254e-06
2.50186e-06
-7.47183e-06
2.40264e-06
-7.86643e-06
2.26788e-06
-8.24474e-06
2.11761e-06
-8.61144e-06
1.95108e-06
-8.96208e-06
1.7811e-06
-9.29538e-06
1.60911e-06
-9.60779e-06
1.44013e-06
-9.89705e-06
1.27522e-06
-1.01605e-05
1.11577e-06
-1.03959e-05
9.62121e-07
-1.06014e-05
8.14209e-07
-1.07751e-05
6.71935e-07
-1.09158e-05
5.35006e-07
-1.10229e-05
4.03464e-07
-1.10958e-05
2.77443e-07
-1.11345e-05
1.57112e-07
-1.1139e-05
4.21702e-08
-1.11119e-05
-6.40194e-08
-1.1054e-05
-1.62173e-07
-1.09675e-05
-2.51431e-07
-1.08557e-05
-3.30284e-07
-1.07218e-05
-3.97849e-07
-1.05696e-05
-4.53503e-07
-1.04029e-05
-4.9698e-07
-1.02257e-05
-5.28346e-07
-1.00417e-05
-5.48093e-07
-9.85481e-06
-5.57119e-07
-9.66808e-06
-5.56735e-07
-9.48416e-06
-5.48626e-07
-9.30493e-06
-5.34824e-07
-9.13145e-06
-5.17677e-07
-8.96378e-06
-4.99825e-07
-8.80101e-06
-4.84129e-07
-8.64118e-06
-4.7351e-07
-8.48143e-06
-4.70673e-07
-8.31822e-06
-4.7786e-07
-8.14761e-06
-4.96602e-07
-7.96568e-06
-5.27438e-07
-7.76896e-06
-5.69956e-07
-7.5546e-06
-6.23168e-07
-7.3202e-06
-6.86068e-07
-7.06349e-06
-7.58142e-07
-6.78181e-06
-8.39481e-07
-6.47198e-06
-9.30312e-07
-6.13052e-06
-1.03007e-06
-5.75447e-06
-1.13648e-06
-5.34233e-06
-1.2453e-06
-4.89477e-06
-1.35089e-06
-4.41478e-06
-1.44716e-06
-3.9076e-06
-1.52814e-06
-3.38054e-06
-1.58868e-06
-2.8422e-06
-1.62547e-06
-2.30234e-06
-1.63583e-06
-1.77107e-06
-1.61904e-06
-1.2573e-06
-1.57812e-06
-7.67281e-07
-1.51862e-06
-3.03434e-07
-1.44813e-06
1.36424e-07
-1.37421e-06
5.50272e-07
-1.29693e-06
9.34324e-07
-1.21299e-06
1.28719e-06
-1.12398e-06
1.60897e-06
-1.03354e-06
1.90194e-06
-9.46171e-07
2.1694e-06
-8.65263e-07
2.41462e-06
-7.92423e-07
2.64037e-06
-7.27538e-07
2.84881e-06
-6.69324e-07
3.0415e-06
-6.16152e-07
3.21968e-06
-5.66712e-07
3.38445e-06
-5.20227e-07
3.53682e-06
-4.76334e-07
3.67774e-06
-4.34883e-07
3.80806e-06
-3.95798e-07
3.9285e-06
-3.59004e-07
4.03961e-06
-3.24431e-07
4.14182e-06
-2.92025e-07
4.23546e-06
-2.61764e-07
4.32086e-06
-2.33626e-07
4.39833e-06
-2.07526e-07
4.46821e-06
-1.83281e-07
4.53081e-06
-1.60639e-07
4.58645e-06
-1.39332e-07
4.63553e-06
-1.19186e-07
4.67851e-06
-1.00148e-07
4.71586e-06
-8.22306e-08
4.74817e-06
-6.55426e-08
4.77606e-06
-5.01851e-08
4.8001e-06
-3.61931e-08
4.82083e-06
-2.36038e-08
4.83869e-06
-1.23771e-08
4.85401e-06
-2.40192e-09
4.86713e-06
6.18327e-09
4.87821e-06
1.36789e-08
4.88749e-06
2.00234e-08
4.89522e-06
2.52193e-08
4.90164e-06
2.93616e-08
4.907e-06
3.25126e-08
4.91155e-06
3.47492e-08
4.91554e-06
3.6176e-08
4.91916e-06
3.69082e-08
4.92261e-06
3.7062e-08
4.926e-06
3.67528e-08
4.92942e-06
3.60888e-08
4.9329e-06
3.51672e-08
4.93644e-06
3.40815e-08
4.93998e-06
3.29191e-08
4.94346e-06
3.17589e-08
4.94679e-06
3.067e-08
4.94988e-06
2.97051e-08
4.95263e-06
2.88984e-08
4.95496e-06
2.82682e-08
4.95678e-06
2.78174e-08
4.95803e-06
2.7536e-08
4.95867e-06
2.74067e-08
4.95867e-06
2.74079e-08
4.95801e-06
2.75167e-08
4.95669e-06
2.77086e-08
4.95472e-06
2.79602e-08
4.95213e-06
2.82541e-08
4.94892e-06
2.85789e-08
4.94514e-06
2.89296e-08
4.94081e-06
2.92982e-08
4.93597e-06
2.96767e-08
4.93063e-06
3.00505e-08
4.92482e-06
3.04224e-08
4.91854e-06
3.07918e-08
4.91181e-06
3.12001e-08
4.90463e-06
3.16541e-08
4.897e-06
3.22448e-08
4.88895e-06
3.2942e-08
4.88044e-06
3.39292e-08
4.87147e-06
3.50568e-08
4.86196e-06
3.67412e-08
4.85187e-06
3.85106e-08
4.84105e-06
4.14127e-08
4.82942e-06
4.41383e-08
4.81676e-06
4.93726e-08
4.80275e-06
5.36068e-08
4.78732e-06
6.36755e-08
4.76921e-06
7.04324e-08
4.7494e-06
9.11498e-08
4.72325e-06
1.02905e-07
4.69689e-06
1.48804e-07
4.65469e-06
1.74151e-07
4.62478e-06
2.83578e-07
3.52555e-07
4.56133e-06
6.16116e-07
-1.43462e-07
1.5787e-06
-1.37377e-06
2.33821e-06
-2.011e-06
2.87561e-06
-2.23384e-06
3.27714e-06
-2.24521e-06
3.59939e-06
-2.12681e-06
3.86533e-06
-1.92359e-06
4.08782e-06
-1.66678e-06
4.27155e-06
-1.37262e-06
4.41038e-06
-1.04369e-06
4.49152e-06
-6.81456e-07
4.50074e-06
-2.9424e-07
4.42064e-06
1.08503e-07
4.24061e-06
5.15487e-07
3.96614e-06
8.77069e-07
3.60961e-06
1.17123e-06
3.1956e-06
1.37941e-06
2.76378e-06
1.48567e-06
2.34454e-06
1.52481e-06
1.94126e-06
1.50689e-06
1.55628e-06
1.46083e-06
1.21109e-06
1.36615e-06
8.09248e-07
1.23828e-06
6.03325e-07
9.56018e-07
-6.04718e-08
9.87427e-07
-1.6379e-06
1.70905e-06
-3.04027e-06
2.27015e-06
-4.0022e-06
2.66804e-06
-4.82881e-06
2.85617e-06
-5.44506e-06
2.96647e-06
-5.95809e-06
2.98894e-06
-6.37319e-06
2.99699e-06
-6.73166e-06
2.92955e-06
-7.06341e-06
2.83361e-06
-7.36595e-06
2.70519e-06
-7.66163e-06
2.56356e-06
-7.95004e-06
2.40602e-06
-8.23642e-06
2.23746e-06
-8.51601e-06
2.0607e-06
-8.78707e-06
1.88017e-06
-9.04597e-06
1.69902e-06
-9.29046e-06
1.51971e-06
-9.51795e-06
1.34326e-06
-9.7261e-06
1.17028e-06
-9.91243e-06
1.00053e-06
-1.00744e-05
8.33899e-07
-1.02096e-05
6.70217e-07
-1.03158e-05
5.0971e-07
-1.03912e-05
3.5278e-07
-1.04348e-05
2.00703e-07
-1.04478e-05
5.51772e-08
-1.04276e-05
-8.42088e-08
-1.03757e-05
-2.14022e-07
-1.0295e-05
-3.32158e-07
-1.01881e-05
-4.37174e-07
-1.00582e-05
-5.27782e-07
-9.90862e-06
-6.03075e-07
-9.74308e-06
-6.62529e-07
-9.56532e-06
-7.06103e-07
-9.37913e-06
-7.34283e-07
-9.1881e-06
-7.48145e-07
-8.9955e-06
-7.49339e-07
-8.80403e-06
-7.40095e-07
-8.61569e-06
-7.23159e-07
-8.43161e-06
-7.01763e-07
-8.25191e-06
-6.79525e-07
-8.07574e-06
-6.60295e-07
-7.90133e-06
-6.47919e-07
-7.72622e-06
-6.45786e-07
-7.54756e-06
-6.56518e-07
-7.36243e-06
-6.81738e-07
-7.16826e-06
-7.21605e-07
-6.96324e-06
-7.74975e-07
-6.74624e-06
-8.40165e-07
-6.51639e-06
-9.15923e-07
-6.27227e-06
-1.00226e-06
-6.01106e-06
-1.10069e-06
-5.72809e-06
-1.21328e-06
-5.41733e-06
-1.34082e-06
-5.07295e-06
-1.48085e-06
-4.69107e-06
-1.62718e-06
-4.27081e-06
-1.77116e-06
-3.81413e-06
-1.90383e-06
-3.32538e-06
-2.01688e-06
-2.81135e-06
-2.10271e-06
-2.28059e-06
-2.15623e-06
-1.74422e-06
-2.1722e-06
-1.21547e-06
-2.14779e-06
-7.09837e-07
-2.08375e-06
-2.40367e-07
-1.98809e-06
1.94701e-07
-1.8832e-06
6.01631e-07
-1.78114e-06
9.87359e-07
-1.68266e-06
1.35113e-06
-1.57676e-06
1.6819e-06
-1.45475e-06
1.97096e-06
-1.3226e-06
2.22151e-06
-1.19673e-06
2.44552e-06
-1.08927e-06
2.65419e-06
-1.0011e-06
2.85295e-06
-9.263e-07
3.04209e-06
-8.58463e-07
3.2196e-06
-7.93664e-07
3.38358e-06
-7.30691e-07
3.53331e-06
-6.69952e-07
3.66925e-06
-6.12272e-07
3.79261e-06
-5.58245e-07
3.90496e-06
-5.08153e-07
4.00802e-06
-4.62066e-07
4.10347e-06
-4.19873e-07
4.1927e-06
-3.81262e-07
4.2767e-06
-3.45764e-07
4.35592e-06
-3.12846e-07
4.43038e-06
-2.81984e-07
4.49977e-06
-2.52666e-07
4.56354e-06
-2.24412e-07
4.62107e-06
-1.9686e-07
4.67178e-06
-1.69904e-07
4.71539e-06
-1.43756e-07
4.75205e-06
-1.18886e-07
4.78236e-06
-9.58585e-08
4.80726e-06
-7.50839e-08
4.82777e-06
-5.66989e-08