/*--------------------------------*- C++ -*----------------------------------*\
| =========                 |                                                 |
| \\      /  F ield         | OpenFOAM: The Open Source CFD Toolbox           |
|  \\    /   O peration     | Version:  2112                                  |
|   \\  /    A nd           | Website:  www.openfoam.com                      |
|    \\/     M anipulation  |                                                 |
\*---------------------------------------------------------------------------*/
FoamFile
{
    version     2.0;
    format      ascii;
    arch        "LSB;label=32;scalar=64";
    class       volScalarField;
    location    "0.22";
    object      kU;
}
// * * * * * * * * * * * * * * * * * * * * * * * * * * * * * * * * * * * * * //

dimensions      [0 2 -2 0 0 0 0];

internalField   nonuniform List<scalar> 
12225
(
1.01627
1.74073
2.45414
3.22858
4.12042
5.16512
6.37862
7.75778
9.28094
10.9111
12.6008
14.3005
15.9664
17.5642
19.0685
20.4808
21.6871
22.5806
0.294818
0.353141
0.429819
0.526624
0.644728
0.784212
0.945366
1.13046
1.34543
1.5987
1.90156
2.26266
2.68465
3.16327
3.68839
4.25961
4.92234
5.61789
0.265427
0.270456
0.276044
0.282734
0.291617
0.303589
0.319462
0.340314
0.367714
0.403693
0.450873
0.511978
0.58935
0.684707
0.79879
0.934358
1.0974
1.28915
0.263235
0.263895
0.264474
0.26497
0.265442
0.265897
0.26632
0.266791
0.267569
0.269079
0.271904
0.276727
0.28427
0.295241
0.310262
0.330255
0.35612
0.388297
0.262824
0.26304
0.263136
0.263132
0.263045
0.262869
0.262568
0.262126
0.261561
0.260923
0.260287
0.259753
0.259434
0.259459
0.259991
0.261149
0.263072
0.265793
0.262685
0.262829
0.262899
0.262887
0.262822
0.262698
0.262499
0.262218
0.261859
0.261437
0.260972
0.260488
0.26001
0.259561
0.259164
0.258846
0.25864
0.25856
0.262613
0.262718
0.262795
0.262829
0.262829
0.262783
0.262686
0.262538
0.262344
0.262116
0.261866
0.261606
0.261348
0.261101
0.260875
0.260674
0.260515
0.260406
0.26256
0.262632
0.262705
0.262766
0.26281
0.262828
0.26281
0.262753
0.262662
0.262552
0.262434
0.262315
0.262204
0.262104
0.262023
0.26196
0.261923
0.261913
0.262518
0.262556
0.262613
0.262679
0.262747
0.262804
0.262839
0.262847
0.26283
0.2628
0.262765
0.262732
0.262708
0.262696
0.262699
0.262722
0.262768
0.262831
0.262476
0.262485
0.262522
0.262577
0.262646
0.262719
0.262785
0.262838
0.262874
0.2629
0.262922
0.262948
0.262983
0.26303
0.263091
0.263168
0.263261
0.263363
0.262438
0.262415
0.262432
0.262472
0.26253
0.2626
0.262674
0.262747
0.262815
0.262878
0.26294
0.263005
0.263077
0.263159
0.263251
0.263355
0.26347
0.26359
0.262409
0.262355
0.26235
0.262376
0.262421
0.262481
0.262551
0.262625
0.262702
0.26278
0.262861
0.262946
0.263037
0.263136
0.263242
0.263357
0.263478
0.263601
0.262385
0.262303
0.262273
0.262283
0.262315
0.262363
0.262424
0.262493
0.262568
0.262649
0.262735
0.262827
0.262926
0.26303
0.263142
0.263258
0.263378
0.263497
0.262363
0.262253
0.262195
0.262183
0.262201
0.262236
0.262284
0.262343
0.26241
0.262485
0.262567
0.262656
0.262752
0.262853
0.262959
0.263068
0.26318
0.263289
0.262345
0.26221
0.262123
0.262085
0.262083
0.262105
0.26214
0.262187
0.262243
0.262307
0.262379
0.262457
0.262542
0.262631
0.262724
0.262819
0.262915
0.263008
0.26233
0.262174
0.262063
0.261998
0.261973
0.261978
0.262002
0.262036
0.262079
0.262131
0.26219
0.262254
0.262323
0.262396
0.262472
0.262549
0.262626
0.2627
0.26232
0.262149
0.262019
0.261931
0.261883
0.261868
0.261877
0.2619
0.261932
0.261971
0.262016
0.262066
0.262119
0.262175
0.262233
0.262291
0.262348
0.262403
0.262315
0.262136
0.261993
0.26189
0.261824
0.26179
0.261784
0.261796
0.261818
0.261846
0.261878
0.261914
0.261953
0.261993
0.262034
0.262074
0.262114
0.262152
0.262316
0.262136
0.261991
0.261882
0.261809
0.261766
0.261749
0.261751
0.261765
0.261785
0.261808
0.261833
0.261859
0.261886
0.261913
0.261939
0.261964
0.261987
0.262324
0.262153
0.262017
0.261918
0.261852
0.261815
0.261801
0.261804
0.261817
0.261834
0.261853
0.261872
0.26189
0.261906
0.261921
0.261934
0.261945
0.261954
0.262336
0.262181
0.262063
0.261981
0.261931
0.261908
0.261904
0.261912
0.261927
0.261942
0.261955
0.261965
0.26197
0.261971
0.261967
0.26196
0.26195
0.261939
0.262355
0.262224
0.262129
0.26207
0.26204
0.262033
0.262039
0.26205
0.26206
0.262065
0.262063
0.26205
0.262029
0.262001
0.261968
0.261931
0.261892
0.261852
0.262383
0.262282
0.262217
0.262179
0.262164
0.262163
0.262165
0.262164
0.262156
0.262134
0.262098
0.262049
0.261988
0.261918
0.261841
0.261761
0.261678
0.261596
0.262421
0.262358
0.262316
0.262287
0.262266
0.262249
0.262226
0.262192
0.262142
0.262074
0.261988
0.261884
0.261766
0.261636
0.261498
0.261353
0.261206
0.261058
0.262473
0.262444
0.262411
0.262369
0.262319
0.26226
0.262186
0.262091
0.261974
0.261834
0.26167
0.261482
0.261275
0.261049
0.260809
0.260559
0.260301
0.260042
0.262543
0.26255
0.262528
0.262471
0.262381
0.262261
0.262107
0.261916
0.261687
0.261419
0.26111
0.260763
0.260379
0.259963
0.259518
0.259053
0.258577
0.2581
0.262686
0.26287
0.263006
0.263045
0.262999
0.262881
0.262697
0.262445
0.262128
0.261746
0.261309
0.260832
0.260344
0.259889
0.259512
0.259262
0.2592
0.259395
0.263424
0.26527
0.267109
0.268665
0.270071
0.271539
0.273317
0.275663
0.278798
0.282896
0.2881
0.294559
0.302457
0.312026
0.323549
0.337337
0.353795
0.373346
0.275081
0.295644
0.322527
0.356572
0.39835
0.448062
0.5058
0.571447
0.644612
0.724752
0.811426
0.904572
1.00473
1.11317
1.23158
1.36166
1.50607
1.66539
0.731582
1.17601
1.58361
1.98444
2.40634
2.86817
3.38172
3.95423
4.58986
5.29012
6.05385
6.87721
7.75379
8.67501
9.6307
10.6099
11.6001
12.5856
0.162858
0.16607
0.172922
0.183029
0.196084
0.211756
0.229699
0.249588
0.271129
0.294067
0.318191
0.343546
0.370244
0.398043
0.426762
0.456374
0.486912
0.518429
0.550985
0.584644
0.619472
0.655534
0.692889
0.73159
0.771684
0.81321
0.856198
0.900675
0.946659
0.994161
1.04319
1.09374
1.14582
1.19942
1.25451
1.31109
1.36913
1.42861
1.48949
1.55174
1.61532
1.68019
1.74629
1.81357
1.88198
1.95145
2.02192
2.09333
2.1656
2.23866
2.31243
2.38683
2.46179
2.53721
2.61302
2.68912
2.76543
2.84186
2.91832
2.99472
3.07096
3.14696
3.22262
3.29784
3.37254
3.44662
3.51999
3.59255
3.66421
3.73488
3.80446
3.87287
3.94002
4.00581
4.07016
4.13299
4.19423
4.25378
4.31159
4.36758
4.42168
4.47384
4.52399
4.57208
4.61807
4.6619
4.70353
4.74292
4.78004
4.81485
4.8473
4.87738
4.90504
4.93026
4.95301
4.97325
4.99095
5.00608
5.01859
5.02844
5.03554
5.03982
5.04114
5.03968
5.03589
5.02978
5.02136
5.01065
4.99766
4.98243
4.96497
4.94532
4.92351
4.89959
4.87358
4.84554
4.8155
4.7835
4.74959
4.71381
4.67621
4.63683
4.5957
4.55286
4.50834
4.46218
4.4144
4.36501
4.31405
4.26152
4.20744
4.15181
4.09465
4.03597
3.97577
3.91406
3.85086
3.78617
3.72003
3.65245
3.58348
3.51315
3.44153
3.36868
3.29468
3.21959
3.14351
3.06652
2.9887
2.91013
2.83089
2.7511
2.67097
2.59086
2.51164
2.43628
2.36543
2.30514
2.26784
2.26003
2.28257
2.32975
2.38939
2.45248
2.51952
2.5876
2.65573
2.72345
2.79048
2.85669
2.92197
2.98627
3.04954
3.11174
3.17285
3.23283
3.29196
3.35037
3.41336
3.46809
0.164499
0.166821
0.172719
0.181661
0.193282
0.207193
0.223002
0.240351
0.258927
0.278471
0.298784
0.319736
0.341274
0.363321
0.385803
0.408685
0.431974
0.455699
0.4799
0.504623
0.529915
0.555819
0.582369
0.609597
0.637522
0.666161
0.695519
0.725597
0.75639
0.787889
0.820079
0.852943
0.886459
0.920603
0.955348
0.990667
1.02653
1.0629
1.09974
1.13702
1.17471
1.21276
1.25113
1.28978
1.32868
1.36778
1.40704
1.44641
1.48586
1.52534
1.56482
1.60425
1.64358
1.68279
1.72183
1.76066
1.79925
1.83755
1.87553
1.91316
1.95039
1.9872
2.02356
2.05942
2.09475
2.12954
2.16374
2.19733
2.23028
2.26256
2.29415
2.32503
2.35518
2.38457
2.41319
2.44103
2.46807
2.4943
2.51972
2.54432
2.5681
2.59105
2.61317
2.63447
2.65495
2.67461
2.69346
2.7115
2.72874
2.74518
2.76084
2.77572
2.78983
2.80318
2.81577
2.82762
2.83874
2.84914
2.85882
2.86781
2.87612
2.88379
2.89105
2.89812
2.90473
2.91086
2.91653
2.92175
2.92654
2.93092
2.93491
2.93852
2.94177
2.94468
2.94727
2.94956
2.95155
2.95326
2.9547
2.95588
2.9568
2.95748
2.95791
2.95808
2.95799
2.95762
2.95695
2.95597
2.95463
2.9529
2.95073
2.94806
2.94483
2.94096
2.93636
2.93093
2.92457
2.91715
2.90854
2.89859
2.88715
2.87405
2.85911
2.84215
2.82298
2.8014
2.77724
2.75029
2.7204
2.6874
2.65118
2.61166
2.56887
2.52298
2.47458
2.42517
2.37638
2.33418
2.30676
2.29929
2.3124
2.34194
2.37998
2.41898
2.45747
2.49392
2.52757
2.55806
2.58523
2.60902
2.62945
2.64661
2.66063
2.67171
2.68009
2.68611
2.6904
2.69442
2.70159
2.72259
0.16808
0.169108
0.173809
0.181581
0.191943
0.204446
0.218653
0.234178
0.250694
0.267941
0.285719
0.303887
0.322354
0.341056
0.35995
0.37902
0.398274
0.417735
0.43744
0.457427
0.477734
0.498396
0.519442
0.540892
0.56276
0.585054
0.607773
0.630914
0.654466
0.678416
0.702747
0.727439
0.752471
0.777821
0.803462
0.829371
0.855521
0.881886
0.908438
0.93515
0.961997
0.98895
1.01598
1.04307
1.07019
1.09731
1.12442
1.15148
1.17848
1.2054
1.23221
1.2589
1.28544
1.31184
1.33806
1.36409
1.38992
1.41554
1.44094
1.46609
1.491
1.51565
1.54003
1.56413
1.58795
1.61147
1.63469
1.6576
1.6802
1.70247
1.72442
1.74604
1.76733
1.78829
1.80891
1.82921
1.84917
1.86881
1.88812
1.90712
1.9258
1.94418
1.96227
1.98006
1.99757
2.0148
2.03177
2.04848
2.06493
2.08114
2.09711
2.11286
2.12838
2.1437
2.15881
2.17374
2.1885
2.2031
2.21757
2.23194
2.24625
2.26058
2.27505
2.2895
2.30384
2.31807
2.33219
2.3462
2.3601
2.37389
2.38758
2.40117
2.41465
2.42804
2.44133
2.45451
2.4676
2.48058
2.49346
2.50623
2.51889
2.53143
2.54384
2.55612
2.56824
2.58021
2.59199
2.60357
2.61491
2.62599
2.63676
2.64717
2.65716
2.66668
2.67563
2.68393
2.69149
2.69818
2.70388
2.70844
2.71171
2.71351
2.71364
2.71191
2.7081
2.70197
2.69329
2.68184
2.66739
2.64974
2.62874
2.60431
2.57646
2.54545
2.51184
2.47673
2.44168
2.41072
2.38943
2.38161
2.38748
2.40432
2.42726
2.4516
2.47534
2.49699
2.5157
2.53104
2.54283
2.55102
2.55565
2.55685
2.55482
2.54979
2.5421
2.53219
2.52077
2.50948
2.50094
2.50338
0.172652
0.17186
0.175358
0.182045
0.191308
0.202637
0.215558
0.229663
0.24462
0.260166
0.276103
0.29229
0.308634
0.325075
0.341584
0.358154
0.374794
0.391531
0.408398
0.425429
0.44266
0.460119
0.477831
0.495814
0.51408
0.532632
0.55147
0.570589
0.58998
0.60963
0.629526
0.649651
0.669988
0.690518
0.711224
0.732087
0.753089
0.774213
0.795439
0.816754
0.838139
0.859581
0.881067
0.902582
0.924117
0.94566
0.967203
0.988739
1.01026
1.03176
1.05324
1.07469
1.09611
1.11749
1.13885
1.16017
1.18146
1.20272
1.22394
1.24513
1.26629
1.28742
1.30852
1.32958
1.35061
1.37161
1.39257
1.41349
1.43438
1.45523
1.47604
1.4968
1.51752
1.5382
1.55883
1.57941
1.59995
1.62044
1.64087
1.66127
1.68161
1.7019
1.72215
1.74235
1.76251
1.78261
1.80267
1.82268
1.84265
1.86257
1.88245
1.90227
1.92206
1.94181
1.96152
1.98121
2.00087
2.02053
2.04021
2.05992
2.07971
2.09958
2.11945
2.13925
2.15896
2.17856
2.19805
2.2174
2.23663
2.25571
2.27463
2.2934
2.312
2.33043
2.34867
2.36672
2.38457
2.4022
2.41962
2.4368
2.45375
2.47045
2.4869
2.50307
2.51897
2.53458
2.5499
2.56489
2.57955
2.59385
2.60776
2.62126
2.63429
2.64682
2.65878
2.67012
2.68076
2.69062
2.6996
2.7076
2.7145
2.72016
2.72442
2.72712
2.72808
2.72711
2.72399
2.71853
2.71053
2.69981
2.68623
2.66974
2.65037
2.62839
2.60421
2.57847
2.5522
2.52825
2.51055
2.50161
2.50156
2.50869
2.52023
2.53347
2.54657
2.55806
2.56704
2.57308
2.576
2.57574
2.57236
2.56598
2.5568
2.54508
2.53112
2.51543
2.49873
2.48261
2.46902
2.46318
0.178354
0.175061
0.177328
0.183027
0.19135
0.201704
0.213578
0.22655
0.240285
0.254523
0.269069
0.283785
0.29858
0.313401
0.328224
0.343047
0.357885
0.372765
0.387719
0.402781
0.417981
0.433349
0.448906
0.464668
0.480647
0.496847
0.51327
0.529911
0.546765
0.563824
0.581077
0.598514
0.616125
0.633897
0.65182
0.669883
0.688078
0.706396
0.72483
0.743372
0.762019
0.780767
0.799612
0.818555
0.837595
0.856733
0.875972
0.895316
0.914768
0.934335
0.954022
0.973836
0.993783
1.01387
1.0341
1.05449
1.07504
1.09575
1.11663
1.13769
1.15892
1.18033
1.20192
1.22369
1.24564
1.26777
1.29007
1.31254
1.33518
1.35797
1.38091
1.40401
1.42723
1.45059
1.47407
1.49766
1.52135
1.54514
1.56902
1.59297
1.61699
1.64107
1.66519
1.68936
1.71356
1.73779
1.76204
1.7863
1.81057
1.83484
1.8591
1.88336
1.9076
1.93183
1.95605
1.98025
2.00445
2.02865
2.05287
2.07711
2.10132
2.12545
2.14946
2.17334
2.19704
2.22056
2.24388
2.26699
2.28986
2.31249
2.33487
2.35696
2.37877
2.40028
2.42147
2.44232
2.46284
2.48299
2.50277
2.52216
2.54115
2.55972
2.57788
2.5956
2.61287
2.62969
2.64605
2.66194
2.67733
2.69223
2.70661
2.72045
2.73371
2.74638
2.7584
2.76974
2.78035
2.79017
2.79913
2.80717
2.8142
2.82013
2.82484
2.82821
2.83012
2.83042
2.82895
2.82556
2.8201
2.81244
2.8025
2.79025
2.77574
2.75923
2.74091
2.72104
2.70031
2.68054
2.66445
2.65381
2.64874
2.64823
2.65086
2.65519
2.65984
2.66347
2.66521
2.6646
2.66143
2.65565
2.64728
2.63645
2.62331
2.60809
2.59112
2.57286
2.55404
2.53608
2.52036
2.50998
0.184864
0.178451
0.179422
0.184205
0.191719
0.201255
0.212258
0.224294
0.237029
0.250211
0.263649
0.277212
0.290814
0.304404
0.317965
0.331499
0.345022
0.358564
0.372156
0.38583
0.399618
0.413547
0.427638
0.441909
0.45637
0.47103
0.485891
0.500953
0.516216
0.531674
0.547325
0.563165
0.579187
0.59539
0.61177
0.628326
0.645055
0.661959
0.67904
0.6963
0.713744
0.731377
0.749206
0.767239
0.785484
0.803952
0.822652
0.841595
0.860794
0.880259
0.900002
0.920034
0.940366
0.961008
0.981969
1.00326
1.02488
1.04685
1.06915
1.09181
1.11482
1.13817
1.16187
1.18592
1.2103
1.23502
1.26006
1.28541
1.31107
1.33702
1.36325
1.38974
1.41648
1.44346
1.47065
1.49805
1.52563
1.55338
1.58127
1.6093
1.63745
1.66569
1.69401
1.72239
1.75083
1.77931
1.80781
1.83634
1.86487
1.89339
1.92191
1.95041
1.97889
2.00733
2.03575
2.06413
2.09247
2.12079
2.14908
2.17728
2.2053
2.23313
2.26075
2.28815
2.3153
2.34218
2.36877
2.39504
2.42099
2.44658
2.4718
2.49664
2.52106
2.54506
2.56861
2.59169
2.61429
2.63638
2.65796
2.67899
2.69946
2.71936
2.73867
2.75738
2.77548
2.79297
2.80983
2.82606
2.84164
2.85657
2.87084
2.88443
2.89733
2.9095
2.92092
2.93157
2.94141
2.9504
2.9585
2.96567
2.97185
2.97698
2.98098
2.98378
2.98529
2.9854
2.98401
2.98101
2.9763
2.9698
2.96148
2.95136
2.93943
2.92599
2.91109
2.89469
2.87704
2.85936
2.84353
2.83084
2.82144
2.81477
2.81023
2.80719
2.80472
2.80173
2.79742
2.79132
2.7832
2.77298
2.76068
2.74638
2.73022
2.7124
2.69322
2.67313
2.6528
2.63345
2.61601
2.60223
0.192029
0.181854
0.181435
0.185352
0.192161
0.201002
0.211266
0.222507
0.234395
0.246686
0.2592
0.271812
0.284442
0.297046
0.309609
0.322135
0.334646
0.34717
0.35974
0.372388
0.385145
0.398039
0.411092
0.424322
0.437743
0.451365
0.465195
0.479237
0.493494
0.507969
0.522663
0.537578
0.552716
0.568082
0.58368
0.599514
0.615592
0.631921
0.648512
0.665373
0.682518
0.699958
0.717707
0.735778
0.754186
0.772947
0.792074
0.811583
0.831489
0.851806
0.872547
0.893726
0.915355
0.937443
0.959999
0.98303
1.00654
1.03054
1.05502
1.07999
1.10545
1.13139
1.1578
1.18469
1.21204
1.23984
1.26807
1.29673
1.3258
1.35525
1.38508
1.41526
1.44577
1.4766
1.50771
1.53909
1.57071
1.60254
1.63457
1.66676
1.69909
1.73153
1.76407
1.79667
1.82933
1.86202
1.89473
1.92745
1.96017
1.99287
2.02554
2.05817
2.09076
2.1233
2.15578
2.1882
2.22055
2.25283
2.28502
2.31692
2.34855
2.37993
2.41101
2.4418
2.47225
2.50234
2.53205
2.56136
2.59024
2.61866
2.6466
2.67404
2.70096
2.72733
2.75313
2.77834
2.80292
2.82687
2.85015
2.87274
2.89462
2.91578
2.93619
2.95585
2.97475
2.99286
3.01019
3.02673
3.04248
3.05743
3.07157
3.08489
3.09739
3.10904
3.11982
3.12972
3.1387
3.14676
3.15386
3.15998
3.16508
3.16913
3.17207
3.17387
3.17446
3.17378
3.17175
3.16832
3.16341
3.15696
3.14904
3.13967
3.1289
3.11687
3.10354
3.08872
3.07242
3.0554
3.03895
3.02403
3.01081
2.99908
2.98866
2.9794
2.97076
2.96193
2.95223
2.9412
2.92861
2.91436
2.89844
2.88091
2.86188
2.84154
2.82016
2.79817
2.77616
2.75514
2.73567
2.71871
0.199755
0.185149
0.183219
0.1863
0.192483
0.200723
0.210345
0.22089
0.232035
0.243545
0.255254
0.267045
0.278846
0.290617
0.302349
0.31405
0.325742
0.337454
0.349221
0.361075
0.373048
0.385169
0.397461
0.409945
0.422636
0.435548
0.448692
0.462077
0.47571
0.489598
0.50375
0.518173
0.532875
0.547867
0.563158
0.57876
0.594687
0.610952
0.627569
0.644556
0.661929
0.679704
0.6979
0.716535
0.735625
0.755189
0.775244
0.795807
0.816894
0.83852
0.860699
0.883444
0.906767
0.930675
0.955177
0.980278
1.00598
1.03229
1.0592
1.08671
1.11482
1.14353
1.17282
1.20268
1.23311
1.2641
1.29562
1.32765
1.36019
1.39321
1.42668
1.46059
1.49491
1.52961
1.56467
1.60006
1.63574
1.67169
1.70788
1.74426
1.78081
1.81748
1.85426
1.89111
1.92801
1.96493
2.00186
2.03879
2.07569
2.11256
2.14939
2.18616
2.22287
2.25951
2.29606
2.33253
2.3689
2.40516
2.44108
2.47666
2.51191
2.54683
2.58138
2.61554
2.64929
2.6826
2.71543
2.74775
2.77955
2.81079
2.84144
2.87148
2.90088
2.92961
2.95765
2.98497
3.01153
3.03732
3.06231
3.08646
3.10976
3.13218
3.15371
3.17433
3.19404
3.21281
3.23064
3.24753
3.26347
3.27847
3.29251
3.30561
3.31775
3.32892
3.3391
3.34827
3.35641
3.36353
3.36961
3.37463
3.37858
3.38142
3.38314
3.38371
3.38311
3.38126
3.37816
3.37377
3.36805
3.36099
3.35264
3.34305
3.33227
3.32037
3.30725
3.29265
3.27646
3.2591
3.24147
3.22425
3.20765
3.19166
3.17634
3.16178
3.14775
3.1337
3.11908
3.1035
3.08673
3.06864
3.04921
3.02849
3.00656
2.9836
2.95986
2.93572
2.91171
2.88863
2.86678
2.84663
0.207971
0.188254
0.184685
0.186947
0.19256
0.200264
0.209311
0.219227
0.229696
0.240498
0.251478
0.262531
0.273593
0.284632
0.295642
0.306635
0.317635
0.328673
0.339783
0.351
0.362356
0.37388
0.385599
0.397534
0.409705
0.422127
0.434816
0.447784
0.461044
0.474607
0.488487
0.502695
0.517245
0.532153
0.547432
0.563101
0.579175
0.595674
0.612617
0.630024
0.647914
0.666309
0.685227
0.70469
0.724717
0.745326
0.766537
0.788366
0.810831
0.833947
0.857728
0.882186
0.907332
0.933174
0.959719
0.986969
1.01493
1.04359
1.07296
1.10304
1.13381
1.16528
1.19743
1.23026
1.26375
1.29789
1.33267
1.36805
1.40403
1.44059
1.47768
1.51531
1.55342
1.592
1.63101
1.67043
1.7102
1.75031
1.7907
1.83133
1.87216
1.91314
1.95424
1.9954
2.03661
2.07784
2.11906
2.16026
2.20141
2.24251
2.28355
2.32451
2.36539
2.40618
2.44687
2.48745
2.5279
2.56801
2.60768
2.64697
2.68585
2.72432
2.76234
2.79989
2.83693
2.87342
2.90935
2.94466
2.97934
3.01335
3.04666
3.07924
3.11106
3.1421
3.17232
3.20168
3.23016
3.25772
3.28433
3.30997
3.33461
3.35822
3.38079
3.4023
3.42275
3.44212
3.46039
3.47755
3.49363
3.50861
3.52251
3.53533
3.54705
3.55769
3.5672
3.57558
3.58281
3.58891
3.59388
3.5977
3.60036
3.60184
3.60215
3.60128
3.59923
3.59595
3.59144
3.58569
3.57868
3.57044
3.561
3.55042
3.53876
3.52603
3.51211
3.49675
3.47977
3.4614
3.44219
3.42267
3.40305
3.38342
3.36395
3.34486
3.32612
3.3074
3.2883
3.26851
3.2478
3.22605
3.20324
3.17937
3.15454
3.1289
3.10267
3.07621
3.04997
3.02457
3.00011
2.97679
0.216626
0.191129
0.185792
0.18724
0.192321
0.199531
0.208043
0.217371
0.227206
0.237342
0.247639
0.258005
0.268386
0.278758
0.289118
0.299483
0.309879
0.320337
0.330893
0.341582
0.352438
0.36349
0.374766
0.38629
0.398084
0.410167
0.422556
0.435269
0.448321
0.461728
0.475507
0.489675
0.504249
0.519248
0.53469
0.550595
0.566986
0.583883
0.601308
0.619284
0.637834
0.65698
0.676743
0.697147
0.71821
0.739954
0.762397
0.785558
0.809454
0.8341
0.859512
0.885701
0.91268
0.940455
0.969031
0.998412
1.0286
1.05959
1.09138
1.12397
1.15735
1.19153
1.22649
1.26222
1.29873
1.33598
1.37396
1.41265
1.45204
1.4921
1.5328
1.57413
1.61604
1.65851
1.70151
1.74498
1.78889
1.83321
1.87787
1.92283
1.96804
2.01342
2.05893
2.10451
2.15013
2.19576
2.24135
2.2869
2.33238
2.37778
2.42309
2.4683
2.51341
2.5584
2.60328
2.64802
2.6924
2.73628
2.77969
2.82265
2.86513
2.90709
2.94852
2.98936
3.02959
3.06917
3.10806
3.14623
3.18365
3.22027
3.25608
3.29103
3.32509
3.35825
3.39047
3.42169
3.45188
3.481
3.50904
3.53595
3.56171
3.5863
3.60969
3.63187
3.65285
3.67263
3.69113
3.70838
3.72438
3.73916
3.75271
3.76505
3.77617
3.78611
3.79477
3.80216
3.80829
3.81318
3.81683
3.81923
3.82039
3.82031
3.819
3.81646
3.8127
3.8077
3.80146
3.79398
3.78527
3.77536
3.7643
3.75214
3.73892
3.72465
3.70921
3.69238
3.67397
3.65408
3.63304
3.61123
3.58885
3.56604
3.54302
3.52005
3.4972
3.47433
3.45118
3.42752
3.40314
3.37796
3.35192
3.32502
3.29736
3.26906
3.24034
3.21151
3.18294
3.15514
3.12803
3.10166
0.225686
0.193774
0.186545
0.187175
0.191742
0.198477
0.206474
0.215232
0.224451
0.233942
0.243581
0.253291
0.263027
0.272775
0.282536
0.292331
0.302186
0.312135
0.322213
0.332455
0.342896
0.353566
0.364494
0.375706
0.387224
0.39907
0.411266
0.42383
0.436782
0.450141
0.463927
0.47816
0.492861
0.508051
0.523751
0.539986
0.556779
0.574153
0.592133
0.610745
0.630012
0.649959
0.67061
0.691987
0.714113
0.737009
0.760694
0.785189
0.810511
0.836678
0.863706
0.891608
0.920396
0.950078
0.98066
1.01214
1.04452
1.07781
1.11198
1.14705
1.18301
1.21986
1.2576
1.29621
1.3357
1.37603
1.41721
1.4592
1.50198
1.54555
1.58986
1.63491
1.68065
1.72704
1.77406
1.82164
1.86975
1.91834
1.96735
2.01672
2.06638
2.11625
2.16627
2.21638
2.2665
2.31661
2.36666
2.41663
2.46649
2.51623
2.56584
2.61531
2.66466
2.71387
2.76295
2.81161
2.8597
2.90725
2.95428
3.00077
3.04669
3.09197
3.13659
3.18051
3.22369
3.2661
3.30769
3.34843
3.38829
3.42722
3.4652
3.50219
3.53816
3.5731
3.60699
3.63972
3.67126
3.70159
3.73067
3.75848
3.78499
3.81017
3.83401
3.8565
3.87766
3.89752
3.91591
3.93288
3.94847
3.96271
3.97559
3.98712
3.99732
4.00618
4.01368
4.01981
4.02458
4.02799
4.03006
4.03079
4.0302
4.02829
4.02509
4.02061
4.01485
4.00782
3.99953
3.98999
3.97922
3.96725
3.95414
3.93992
3.92466
3.90833
3.89086
3.87206
3.85176
3.82998
3.80692
3.78283
3.7579
3.73226
3.70614
3.6798
3.65339
3.62686
3.60009
3.5729
3.54516
3.51679
3.48772
3.45798
3.42763
3.39679
3.36567
3.33453
3.30369
3.27354
3.24388
3.21471
0.235146
0.196222
0.186984
0.186783
0.190839
0.1971
0.204579
0.212765
0.221369
0.23022
0.239211
0.248281
0.257397
0.266551
0.275753
0.285022
0.294388
0.303885
0.313547
0.323409
0.333503
0.343862
0.354514
0.365486
0.376803
0.388488
0.400563
0.413051
0.425974
0.439355
0.453215
0.467577
0.482465
0.497904
0.513917
0.530531
0.547771
0.565663
0.584235
0.603512
0.623523
0.644293
0.665848
0.688214
0.711413
0.73547
0.760406
0.786242
0.812998
0.840693
0.869344
0.898968
0.929577
0.961181
0.993786
1.02739
1.06199
1.09759
1.13418
1.17176
1.21033
1.24988
1.29043
1.33196
1.37446
1.41793
1.46233
1.50766
1.55388
1.601
1.64897
1.69779
1.74741
1.79779
1.84889
1.90065
1.95302
2.00593
2.05934
2.11317
2.16733
2.22175
2.27635
2.33102
2.38571
2.44035
2.49489
2.5493
2.60354
2.65761
2.7115
2.76521
2.81873
2.87212
2.92495
2.97715
3.02874
3.07972
3.13007
3.17979
3.22884
3.27709
3.32452
3.3711
3.41681
3.46159
3.50542
3.54826
3.59008
3.63082
3.67047
3.70898
3.74634
3.78253
3.81761
3.85133
3.88368
3.91466
3.94426
3.97242
3.99914
4.02439
4.04816
4.07043
4.09123
4.11055
4.12833
4.14459
4.15934
4.17261
4.18441
4.19476
4.20364
4.21108
4.21705
4.22155
4.2246
4.22621
4.22637
4.22512
4.22246
4.21842
4.21302
4.20629
4.19825
4.1889
4.17826
4.16635
4.1532
4.13885
4.12334
4.10674
4.08907
4.07034
4.05049
4.02937
4.00686
3.98294
3.95771
3.93135
3.904
3.8758
3.84694
3.81767
3.78815
3.75842
3.72843
3.69808
3.6673
3.636
3.60415
3.57178
3.53894
3.50575
3.47239
3.4391
3.40613
3.3738
3.34182
3.31016
0.245044
0.198541
0.187186
0.186133
0.189661
0.195428
0.202369
0.209964
0.217938
0.226141
0.234486
0.242926
0.251441
0.26003
0.268707
0.277495
0.286421
0.295519
0.304821
0.314361
0.324171
0.33428
0.344719
0.355513
0.366689
0.378271
0.390285
0.402753
0.415702
0.429157
0.443142
0.457684
0.472808
0.488543
0.504916
0.521954
0.539686
0.558142
0.57735
0.597339
0.61814
0.63978
0.662289
0.685695
0.710024
0.735304
0.761558
0.788811
0.817084
0.846398
0.876769
0.908215
0.940752
0.974393
1.00914
1.04499
1.08195
1.11999
1.15914
1.19937
1.2407
1.28311
1.32662
1.37122
1.4169
1.46363
1.5114
1.56018
1.60996
1.66073
1.71247
1.76516
1.81875
1.8732
1.92847
1.98447
2.04115
2.09843
2.15624
2.2145
2.27313
2.33205
2.3912
2.45043
2.50965
2.56878
2.62776
2.68655
2.74511
2.80342
2.86147
2.91932
2.97682
3.03358
3.08965
3.14503
3.19968
3.25359
3.30674
3.35913
3.41083
3.46145
3.51106
3.55966
3.60722
3.65371
3.6991
3.74334
3.7864
3.82824
3.86884
3.90816
3.94616
3.98284
4.01819
4.05211
4.08457
4.11552
4.14495
4.1728
4.19907
4.22374
4.2468
4.26826
4.2881
4.30634
4.32296
4.33795
4.35134
4.36314
4.37337
4.38203
4.38915
4.39471
4.39872
4.40118
4.4021
4.4015
4.39939
4.39579
4.39073
4.38423
4.37633
4.36706
4.35644
4.34449
4.33123
4.31669
4.30091
4.28392
4.26577
4.24653
4.22622
4.20486
4.1824
4.15875
4.13383
4.10759
4.08012
4.0515
4.02184
3.99129
3.95998
3.92814
3.89591
3.86339
3.83057
3.79744
3.76393
3.73
3.69565
3.6609
3.62582
3.59052
3.55515
3.51992
3.48504
3.45079
3.41678
3.38299
0.255482
0.200836
0.187261
0.185324
0.188291
0.193525
0.199888
0.206856
0.214175
0.221715
0.229411
0.237232
0.245168
0.253226
0.261421
0.269776
0.278317
0.287074
0.296077
0.305358
0.314945
0.324869
0.335158
0.345838
0.356938
0.368482
0.380496
0.393008
0.406045
0.419638
0.433815
0.448605
0.464038
0.480146
0.496959
0.51451
0.53283
0.551953
0.571909
0.592732
0.614453
0.637104
0.66072
0.68533
0.710967
0.73766
0.765442
0.79434
0.824378
0.855575
0.88794
0.921489
0.956239
0.992205
1.02939
1.06779
1.10739
1.1482
1.19023
1.23345
1.27788
1.3235
1.37031
1.41831
1.46748
1.51778
1.56918
1.62166
1.67522
1.72986
1.78554
1.84225
1.89993
1.95855
2.01804
2.07834
2.13934
2.20097
2.26311
2.32562
2.38851
2.45173
2.51528
2.57894
2.64247
2.70587
2.76907
2.83204
2.89468
2.95701
3.01895
3.08013
3.14049
3.20003
3.25874
3.31658
3.37354
3.42957
3.48465
3.53877
3.59189
3.6439
3.69477
3.74446
3.79296
3.84023
3.88623
3.93095
3.97433
4.01636
4.05699
4.0962
4.13396
4.17025
4.20504
4.23831
4.27
4.30008
4.32851
4.35523
4.38026
4.40358
4.4252
4.44511
4.46331
4.47982
4.49462
4.50772
4.51913
4.52888
4.53697
4.54342
4.54824
4.55143
4.553
4.55296
4.55132
4.5481
4.54332
4.53701
4.5292
4.51992
4.50922
4.49712
4.48366
4.46887
4.45276
4.43538
4.41675
4.39693
4.37597
4.35393
4.33084
4.30672
4.28154
4.25527
4.22783
4.19922
4.16946
4.13863
4.10679
4.07405
4.04054
4.00643
3.97185
3.93692
3.90167
3.86611
3.83022
3.794
3.75746
3.72063
3.6836
3.64647
3.60937
3.57249
3.536
3.50012
3.46445
3.42893
0.266656
0.203253
0.187357
0.184495
0.186848
0.191487
0.197212
0.203504
0.210133
0.216996
0.224046
0.231268
0.238661
0.246235
0.254005
0.261991
0.270216
0.278706
0.287487
0.296586
0.306032
0.315852
0.326075
0.336729
0.347844
0.359447
0.371567
0.384231
0.39747
0.411323
0.425822
0.441002
0.456898
0.473546
0.490984
0.50925
0.528382
0.548416
0.56939
0.591338
0.614296
0.638305
0.663405
0.68963
0.717005
0.745571
0.775367
0.806429
0.838791
0.872468
0.907432
0.943689
0.981252
1.02013
1.06032
1.10183
1.14465
1.1888
1.23428
1.28108
1.32918
1.37856
1.42922
1.48115
1.53437
1.58867
1.64406
1.70058
1.75824
1.817
1.87685
1.93775
1.99964
2.06248
2.12619
2.19069
2.25589
2.32165
2.38783
2.45424
2.52097
2.58795
2.65511
2.72232
2.78945
2.85642
2.92323
2.98983
3.05592
3.12115
3.18538
3.24864
3.31091
3.37217
3.43239
3.49156
3.54963
3.60657
3.66237
3.717
3.77043
3.82262
3.87351
3.9231
3.97134
4.01821
4.06368
4.10772
4.15031
4.19141
4.231
4.26904
4.30551
4.34039
4.37366
4.40529
4.43525
4.4635
4.49001
4.5147
4.53761
4.55874
4.57809
4.59567
4.61148
4.62552
4.63781
4.64835
4.65714
4.66422
4.66958
4.67326
4.67525
4.67556
4.6742
4.67119
4.66655
4.66031
4.65249
4.64313
4.63226
4.61991
4.60615
4.591
4.57449
4.55665
4.53753
4.51714
4.49554
4.47277
4.4489
4.42398
4.39806
4.37116
4.34327
4.31438
4.28445
4.25349
4.2215
4.18853
4.15464
4.1199
4.08441
4.0483
4.01171
3.97473
3.93742
3.89983
3.86194
3.82379
3.78543
3.7469
3.70828
3.66967
3.6312
3.59301
3.55525
3.51811
3.48117
3.44437
0.279418
0.206098
0.187685
0.183809
0.185447
0.18938
0.194363
0.199895
0.205779
0.211938
0.218345
0.224996
0.231894
0.239047
0.246468
0.254171
0.262174
0.270499
0.279166
0.288201
0.29763
0.307481
0.317785
0.328572
0.339878
0.351736
0.364182
0.37725
0.390973
0.405384
0.420532
0.436461
0.453201
0.470805
0.489319
0.508792
0.529271
0.550805
0.573441
0.597209
0.622147
0.648333
0.675823
0.704575
0.734571
0.765891
0.798598
0.832752
0.868418
0.905701
0.944331
0.984336
1.02573
1.06849
1.11257
1.15804
1.2049
1.25319
1.30289
1.354
1.4065
1.46035
1.51547
1.57179
1.62921
1.6878
1.74754
1.80841
1.87037
1.9334
1.99744
2.06246
2.12838
2.19515
2.26267
2.33087
2.39964
2.46887
2.53845
2.60833
2.67838
2.74853
2.81864
2.88859
2.95853
3.02833
3.09754
3.16565
3.23262
3.29848
3.3632
3.42677
3.48915
3.55034
3.61029
3.66899
3.7264
3.78251
3.83729
3.89075
3.94286
3.99359
4.04291
4.09081
4.13726
4.18222
4.22569
4.26763
4.30801
4.34682
4.38403
4.41961
4.45353
4.48577
4.51632
4.54516
4.57225
4.59756
4.62108
4.64279
4.66268
4.68076
4.69703
4.7115
4.72418
4.73507
4.7442
4.75155
4.75714
4.76099
4.76311
4.76352
4.76221
4.75921
4.75454
4.74821
4.74025
4.73071
4.71962
4.70701
4.69292
4.67739
4.66047
4.6422
4.6226
4.60171
4.57958
4.55623
4.53173
4.50611
4.47945
4.45181
4.42323
4.39374
4.36328
4.33191
4.29961
4.26641
4.23231
4.19733
4.16153
4.12497
4.08772
4.0499
4.0116
3.97292
3.93396
3.89474
3.85531
3.8157
3.77597
3.73619
3.69643
3.65678
3.61734
3.57825
3.53964
3.50167
3.46393
3.42633
0.292861
0.209309
0.188504
0.183615
0.184464
0.187605
0.191782
0.196533
0.201695
0.207214
0.213075
0.219276
0.225818
0.232705
0.239941
0.247535
0.255499
0.263852
0.272617
0.28182
0.291489
0.301657
0.312361
0.323639
0.33553
0.348079
0.361337
0.375355
0.390183
0.405884
0.422533
0.440065
0.458447
0.477839
0.498309
0.519924
0.542748
0.566854
0.592355
0.619198
0.64734
0.676875
0.707843
0.740249
0.774127
0.809525
0.846493
0.885073
0.9253
0.967185
1.01065
1.05562
1.10201
1.14967
1.19853
1.24881
1.3005
1.3536
1.4081
1.46398
1.52119
1.57969
1.63943
1.70034
1.76245
1.82567
1.88994
1.95516
2.0213
2.08829
2.15606
2.22456
2.29372
2.36346
2.4337
2.50434
2.57529
2.64646
2.71774
2.789
2.86014
2.93127
3.00215
3.07272
3.14252
3.21132
3.27893
3.34533
3.41055
3.47456
3.53736
3.5989
3.65915
3.71806
3.77561
3.83177
3.88654
3.93991
3.99186
4.0424
4.09151