/*--------------------------------*- C++ -*----------------------------------*\
| =========                 |                                                 |
| \\      /  F ield         | OpenFOAM: The Open Source CFD Toolbox           |
|  \\    /   O peration     | Version:  2112                                  |
|   \\  /    A nd           | Website:  www.openfoam.com                      |
|    \\/     M anipulation  |                                                 |
\*---------------------------------------------------------------------------*/
FoamFile
{
    version     2.0;
    format      ascii;
    arch        "LSB;label=32;scalar=64";
    class       volScalarField;
    location    "0.2";
    object      omega;
}
// * * * * * * * * * * * * * * * * * * * * * * * * * * * * * * * * * * * * * //

dimensions      [0 0 -1 0 0 0 0];

internalField   nonuniform List<scalar> 
12225
(
11260.6
15965.4
17327
17279.1
16723
16037.9
15374.1
14785.7
14284.3
13861.6
13502.5
13192
12917.9
12671.1
12444.4
12237.6
12028
11781.8
899.22
2116.32
3155.11
3946.84
4506.96
4883.3
5124.86
5270.99
5350.94
5386.02
5391.33
5377.51
5351.97
5319.46
5283.56
5248.29
5233.21
5247.51
60.3816
216.665
438.772
691.86
940.42
1161.51
1346.74
1498.12
1622.51
1727.7
1820.31
1905.38
1986.29
2065.09
2142.96
2221.16
2300.4
2374.07
10.9243
25.1706
53.6894
97.1348
152.125
212.131
271.826
328.075
379.893
428.074
473.435
516.661
558.356
599.002
638.943
678.546
717.93
755.769
8.13117
9.34231
12.3824
18.0186
26.5434
37.4484
49.9714
63.4249
77.2426
90.891
104.305
117.452
130.556
143.682
156.816
169.93
182.97
195.5
7.96858
8.10196
8.43572
9.10975
10.2435
11.8758
13.9774
16.4957
19.363
22.4625
25.7739
29.2892
32.8482
36.4084
39.9789
43.5593
47.133
50.6078
7.94884
7.98963
8.05679
8.16525
8.33534
8.58158
8.90982
9.32214
9.82072
10.4078
11.0896
11.8751
12.7238
13.6124
14.5273
15.4535
16.3767
17.2788
7.93981
7.96479
7.99929
8.04281
8.09682
8.16221
8.23849
8.32559
8.42464
8.53738
8.66582
8.81239
8.97736
9.15927
9.35477
9.55925
9.76778
9.97601
7.93384
7.95127
7.97546
8.00498
8.03904
8.07653
8.1157
8.15538
8.19548
8.23648
8.27892
8.32349
8.37084
8.42121
8.47462
8.53093
8.58999
8.65099
7.92971
7.9419
7.95959
7.98163
8.00706
8.03483
8.06349
8.09192
8.11975
8.14712
8.17437
8.20205
8.23078
8.26104
8.29317
8.32738
8.3639
8.40243
7.92686
7.9351
7.94794
7.96457
7.98409
8.0056
8.02801
8.05044
8.07253
8.09428
8.11592
8.13781
8.16046
8.18436
8.20992
8.23747
8.26727
8.29914
7.92501
7.93048
7.93988
7.9527
7.9681
7.98529
8.00342
8.02179
8.04009
8.05827
8.07649
8.09499
8.11412
8.13423
8.15568
8.17872
8.20359
8.23019
7.92363
7.92701
7.93372
7.94354
7.95569
7.96949
7.98423
7.99934
8.01455
8.02981
8.04522
8.06094
8.07723
8.09433
8.11246
8.13181
8.15253
8.17456
7.92263
7.92422
7.9286
7.93577
7.94506
7.95584
7.96755
7.97971
7.99209
8.00462
8.01734
8.03038
8.04389
8.05804
8.07295
8.08874
8.1055
8.12316
7.922
7.92221
7.92468
7.92958
7.93638
7.94453
7.95357
7.96311
7.97293
7.98292
7.9931
8.00352
8.01428
8.02546
8.03715
8.0494
8.06225
8.07562
7.92153
7.92083
7.92193
7.925
7.92974
7.93571
7.94252
7.94985
7.95745
7.96522
7.9731
7.98109
7.98924
7.99759
8.00616
8.01496
8.02402
8.03334
7.9212
7.91992
7.92014
7.92196
7.92523
7.92959
7.93472
7.94034
7.94621
7.95217
7.95813
7.96406
7.96993
7.97577
7.98157
7.98736
7.99316
7.99895
7.92105
7.91948
7.91928
7.92048
7.92293
7.92636
7.93048
7.93501
7.93972
7.94442
7.94901
7.95341
7.95759
7.96152
7.96522
7.96869
7.97196
7.97506
7.92114
7.91969
7.91956
7.92079
7.92324
7.92661
7.93058
7.93485
7.93919
7.94338
7.94731
7.9509
7.95409
7.95688
7.95927
7.9613
7.96301
7.96447
7.92152
7.92063
7.92117
7.92325
7.92664
7.93093
7.93575
7.94073
7.9456
7.95014
7.95424
7.95782
7.96086
7.96336
7.96535
7.96687
7.96797
7.96872
7.92209
7.92213
7.92389
7.92747
7.93243
7.93828
7.94456
7.95085
7.95684
7.9623
7.9671
7.9712
7.97457
7.97727
7.97934
7.98084
7.9818
7.98227
7.923
7.92472
7.92849
7.93425
7.94145
7.94956
7.95805
7.96642
7.97426
7.98134
7.9875
7.9927
7.99696
8.00034
8.00298
8.005
8.0065
8.00756
7.92476
7.92906
7.93575
7.94462
7.95515
7.9668
7.97893
7.99092
8.00234
8.013
8.02281
8.03183
8.04021
8.0482
8.05614
8.06444
8.07351
8.08374
7.92776
7.93596
7.94725
7.96155
7.97897
7.9998
8.02407
8.05189
8.08366
8.1199
8.16105
8.20762
8.26029
8.31994
8.38775
8.46485
8.55226
8.65099
7.93292
7.94953
7.9764
8.02098
8.09436
8.20787
8.37038
8.58775
8.86275
9.19468
9.58102
10.0188
10.5056
11.0399
11.6219
12.2385
12.8875
13.5675
7.94755
8.04648
8.30757
8.84422
9.77098
11.1673
13.0622
15.4375
18.2334
21.3437
24.6859
28.1904
31.8038
35.4886
39.223
42.9208
46.5771
50.1943
8.22695
10.2142
14.813
22.8868
34.7636
50.2268
68.5879
88.9321
110.276
131.663
152.536
172.554
191.55
209.491
226.45
242.665
258.252
273.333
18.1144
59.5208
128.587
221.312
329.049
442.735
554.73
659.774
755.026
839.674
913.838
978.455
1034.88
1084.59
1129.03
1169.53
1207.15
1242.78
371.691
971.761
1578.2
2124.15
2581.11
2945.52
3228.3
3443.83
3605.74
3725.63
3812.73
3874.32
3916.18
3942.91
3958.23
3965.12
3966.05
3962.72
7396.38
11250.9
12890.4
13386
13348
13077.3
12716.4
12333.5
11962.3
11618.5
11308.2
11032.2
10788.8
10574.6
10385.5
10217.4
10066
9928.83
181.491
202.822
227.121
250.13
271.813
292.333
312.489
333.595
356.068
379.79
404.879
431.475
459.669
489.497
520.941
553.946
588.461
624.512
662.111
698.327
728.354
750.994
764.888
768.124
758.953
737.571
705.615
664.455
615.657
562.327
509.963
464.444
435.442
427.813
440.357
467.995
504.93
546.604
589.896
632.481
672.438
706.645
726.875
728.479
711.92
683.508
656.585
649.319
681.436
771.807
935.759
1182.44
1517.22
1906.7
2262.89
2615.98
2955.29
3270.56
3553.94
3799.82
4004.66
4166.67
4285.46
4360.95
4393.63
4385.12
4337.31
4251.74
4129.69
3972.25
3782.01
3583.95
3378.88
3167.82
2952.44
2734.63
2516.3
2299.32
2085.73
1877.96
1678.43
1489.6
1313.98
1154.11
1012.55
891.826
794.391
722.604
678.738
664.992
683.781
734.24
806.79
903.443
1023.26
1165.18
1329.27
1518.09
1737.69
1990.28
2244.06
2405
2451.66
2399.81
2281.2
2134.06
1990.47
1871.06
1784.35
1726.2
1682.3
1629.84
1549.9
1447.05
1362.19
1373.5
1565.06
1957.55
2394.04
2749.34
3033.56
3228.98
3331.27
3342.07
3266.38
3112.25
2889.66
2611.96
2320.08
2022.14
1728.05
1449.98
1200.56
992.107
836.436
745.569
731.171
807.54
941.772
1125.42
1351.73
1610.88
1893.06
2189.82
2492.6
2793.34
3084.78
3360.79
3615.9
3844.69
4042.34
4197.35
4281.02
4301.1
4263.94
4175.32
4041.18
3868.64
3666.03
3442.4
3206.76
2967.31
2730.87
2502.67
2286.52
2085.18
1900.46
1733.31
1583.82
1451.34
1334.43
1230.71
1137
1049.7
965.22
880.36
794.165
707.417
630.591
563.011
327.655
326.925
334.54
341.792
347.168
350.113
350.51
348.679
345.131
340.321
334.598
328.226
321.428
314.401
307.327
300.385
293.757
287.641
282.312
280.598
286.13
298.453
316.234
337.226
358.336
376.552
389.862
396.96
396.899
389.473
375.666
359.979
345.614
338.413
339.965
348
360.205
375.513
393.34
413.043
434.077
459.353
504.369
567.025
644.643
741.09
863.679
1017.07
1200.51
1388.38
1542.9
1682.77
1802.35
1893.46
1951.16
1975.99
1967.02
1924.81
1851.42
1750.41
1626.6
1485.89
1333.51
1175.96
1022
880.098
757.478
659.95
591.607
554.396
547.903
542.84
538.654
535.004
531.662
528.546
525.741
523.499
521.72
519.61
517.081
514.194
510.995
507.521
503.797
499.846
495.695
491.378
486.936
482.433
478.115
474.719
472.854
472.064
472.102
472.432
472.658
473.658
479.348
500.868
565.49
710.781
863.598
967.037
1014.55
1009.02
954.676
865.451
769.639
699.66
675.269
702.855
783.287
914.687
1101.84
1337.21
1568.07
1681.85
1677.81
1593.19
1452.47
1280.52
1094.7
917.186
770.816
671.403
623.643
619.847
619.284
621.771
628.591
635.002
640.154
643.814
645.75
645.895
643.639
638.925
633.493
628.071
623.509
621.494
627.523
639.689
656.549
678.266
705.262
738.069
777.377
824.1
879.954
954.925
1064.21
1185.15
1301.72
1403.15
1481.51
1531.31
1549.43
1535.23
1490.85
1421.39
1334.14
1237.21
1137.8
1041.3
951.093
868.826
794.944
729.258
671.218
619.863
574.104
532.629
493.969
456.701
419.889
383.682
350.457
323.942
496.993
453.472
438.459
426.58
414.29
401.247
387.842
374.495
361.552
349.221
337.589
326.661
316.402
306.763
297.702
289.187
281.202
273.739
266.807
260.453
255.141
251.723
251.151
254.153
260.865
270.711
282.569
294.975
306.335
315.331
321.569
326.655
333.932
345.578
360.728
379.404
404.12
436.316
475.711
522.302
580.206
651.255
721.995
804.883
909.268
1032.19
1147.22
1251.53
1338.97
1402.81
1441.42
1456.11
1446.32
1412.24
1355.63
1279.42
1187.36
1084.28
975.856
868.12
766.874
677.08
602.295
544.519
503.943
478.917
466.483
463.135
465.498
470.809
476.293
481.36
485.732
489.212
491.67
493.053
493.35
492.613
490.986
488.641
485.738
482.415
478.766
474.83
470.585
465.947
460.77
454.86
448.041
440.236
431.773
423.929
418.42
414.866
413.487
414.177
416.34
419.075
421.536
423.544
426.637
436.192
467.616
519.306
568.609
604.58
619.241
608.085
578.482
553.778
562.636
625.127
750.508
937.299
1159.72
1344.43
1388.23
1307.44
1165.65
1001.53
844.792
716.205
625.371
572.982
551.208
548.319
553.582
560.913
568.664
576.452
583.848
590.3
595.385
598.717
599.8
597.787
591.587
583.643
574.515
564.949
555.713
547.145
539.456
532.693
526.893
522.12
518.453
516.039
515.065
515.74
518.359
523.657
538.354
568.929
615.723
675.939
744.102
813.086
875.312
924.126
954.665
964.352
953.267
923.772
879.778
825.955
767.089
707.439
650.266
597.619
550.388
508.579
471.717
439.084
409.862
383.191
358.304
334.65
312.601
292.847
704.685
585.01
530.686
488.826
452.907
421.86
395.267
372.658
353.498
337.185
323.181
311.024
300.338
290.825
282.258
274.47
267.339
260.783
254.744
249.141
244.045
239.618
236.195
234.321
234.684
237.928
244.444
254.217
266.823
281.659
298.527
318.52
343.079
370.932
399.732
434.588
480.426
535.869
599.014
670.015
740.149
804.469
870.766
942.32
1015.93
1083.91
1138.08
1174.56
1191.22
1187.61
1164.98
1125.03
1069.75
1001.89
925.044
843.453
761.742
684.513
615.754
558.333
513.702
481.859
461.59
450.893
447.443
449.005
453.715
460.191
467.487
474.738
481.35
486.976
491.339
494.235
495.549
495.229
493.304
489.954
485.434
480.027
474.03
467.728
461.36
455.085
448.97
442.97
436.909
430.457
423.253
414.832
404.917
394.149
384.911
377.424
372.651
371.239
373.215
377.979
384.319
390.439
394.342
395.067
394.57
400.558
416.646
436.97
455.582
467.454
474.592
491.643
541.13
641.016
796.901
994.099
1176.18
1237.83
1155.6
1011.91
855.589
718.093
616.248
552.66
519.831
506.698
503.552
504.495
507.141
511.027
515.544
520.3
524.856
528.913
532.08
533.751
533.206
529.444
523.218
515.156
506.004
496.638
487.66
479.376
471.949
465.459
459.941
455.43
451.963
449.61
448.492
448.721
450.403
453.654
458.864
467.452
480.7
500.803
529.066
565.073
606.408
649.098
688.423
719.867
739.971
746.738
739.774
720.18
690.307
653.376
612.948
572.243
533.565
498.078
465.972
436.864
410.229
385.64
362.853
341.694
322.371
304.569
957.855
712.198
596.284
515.683
455.822
410.903
376.952
350.979
330.768
314.73
301.719
290.913
281.727
273.745
266.674
260.307
254.502
249.169
244.252
239.702
235.643
232.088
229.125
226.989
226.13
227.244
231.223
239.024
251.496
269.426
293.851
326.042
366.263
407.032
450.026
505.603
570.485
634.337
689.038
739.404
789.288
838.589
886.449
930.852
968.363
994.924
1007.53
1004.96
987.344
955.869
912.466
859.501
799.836
736.826
674.121
615.285
563.351
520.421
487.449
464.281
449.918
442.861
441.469
444.217
449.829
457.316
465.92
475.039
484.15
492.516
499.871
505.877
510.244
512.756
513.248
511.64
508.012
502.536
495.44
487.038
477.708
467.865
457.919
448.21
438.994
430.424
422.495
414.927
407.481
399.545
390.436
379.976
369.482
359.22
350.788
345.726
344.917
348.403
355.383
364.152
372.053
376.04
374.415
369.053
366.586
370.461
380.482
395.717
419.024
461.64
540.933
669.086
841.094
1023.02
1134.97
1092.04
960.202
810.749
678.909
582.595
523.157
491.424
476.077
468.852
465.436
464.101
464.695
466.3
468.498
470.987
473.662
476.36
478.661
479.812
478.809
475.288
469.443
461.663
452.698
443.376
434.377
426.134
418.875
412.688
407.58
403.525
400.478
398.399
397.33
397.406
398.83
401.885
406.93
414.557
424.178
436.102
451.049
469.787
492.615
518.92
547.027
574.45
598.41
616.329
626.222
627.003
618.587
601.947
579.031
552.369
524.464
497.189
471.484
447.444
424.701
402.841
381.697
361.362
342.343
324.579
1236.05
810.984
619.079
502.585
428.106
379.336
346.397
323.247
306.241
293.22
282.894
274.443
267.297
261.094
255.578
250.574
245.962
241.668
237.656
233.945
230.637
227.751
225.349
223.579
222.75
223.444
226.616
233.67
246.488
267.38
298.607
341.521
394.351
447.313
509.106
570.897
619.74
662.889
702.827
740.332
775.424
807.292
834.586
855.473
867.914
870.173
861.368
841.6
811.824
773.667
729.288
681.249
632.391
585.597
543.438
507.839
479.857
459.671
446.738
440.065
438.477
440.822
446.093
453.458
462.253
471.921
481.971
491.934
501.292
509.842
517.297
523.34
527.699
530.145
530.491
528.689
524.744
518.692
510.659
500.86
489.61
477.329
464.511
451.601
439.009
427.119
416.196
405.997
396.633
387.717
378.875
369.967
360.331
349.78
339.531
331.595
327.808
329.048
335.076
344.607
355.183
363.287
365.47
360.62
352.106
346.717
348.893
362.201
392.303
450.031
549.154
694.842
869.17
1020.02
1060.86
956.915
813.806
680.063
578.448
513.686
477.342
457.67
446.22
438.859
434.067
431.145
430.041
429.696
429.847
430.54
431.874
433.635
435.373
436.214
435.199
431.975
426.449
419.012
410.4
401.454
392.899
385.227
378.697
373.379
369.222
366.109
363.898
362.446
361.647
361.519
362.195
363.927
367.154
372.818
381.137
391.752
404.373
418.747
434.714
452.113
470.599
489.468
507.654
523.843
536.619
544.668
547.006
543.226
533.671
519.471
502.3
483.899
465.576
447.934
430.899
414.012
396.831
379.186
361.511
344.076
1509.6
862.607
597.255
461.003
387.322
345.311
319.436
301.963
289.109
279.069
270.944
264.209
258.501
253.538
249.091
245.018
241.212
237.605
234.168
230.918
227.935
225.28
223.058
221.433
220.691
221.362
224.415
231.525
245.383
269.578
307.296
360.405
424.614
484.901
537.927
584.462
623.188
656.409
685.551
711.125
732.975
750.443
762.559
768.227
766.473
756.714
738.966
713.89
682.746
647.289
609.636
572.076
536.828
505.761
480.163
460.636
447.147
439.183
435.959
436.595
440.249
446.186
453.798
462.595
472.172
482.163
492.207
501.918
510.887
519.064
526.159
531.93
536.161
538.659
539.345
538.166
535.029
529.869
522.664
513.447
502.338
489.598
475.709
461.065
446.12
431.474
417.741
404.56
392.331
380.912
370.759
361.665
352.691
343.09
332.896
323.578
317.436
316.252
320.701
330.263
342.935
355.137
362.453
361.649
353.408
343.852
340.79
351.289
383.931
450.116
560.697
713.693
879.008
992.388
978.386
847.499
708.227
595.521
519.262
474.601
449.509
434.102
423.305
415.272
409.362
405.123
402.365
400.239
398.765
398.122
398.416
399.502
400.856
401.512
400.657
397.7
392.476
385.364
377.124
368.635
360.674
353.776
348.214
344.036
341.132
339.305
338.32
337.948
337.987
338.307
338.91
339.925
341.645
344.753
350.366
358.588
369.329
382.103
396.151
410.646
424.885
438.386
450.842
462.016
471.601
479.114
483.929
485.413
483.175
477.306
468.467
457.735
446.253
434.843
423.76
412.691
401.012
388.121
373.965
358.688
1746.99
861.377
543.638
411.248
352.044
322.047
303.848
290.717
280.183
271.434
264.159
258.104
253.013
248.655
244.826
241.343
238.061
234.902
231.802
228.746
225.811
223.107
220.788
219.068
218.264
218.929
222.099
229.693
245.039
272.834
317.299
387.061
449.036
496.243
540.599
578.066
608.381
633.258
653.742
670.225
682.625
690.542
693.422
690.727
682.101
667.536
647.479
622.854
595.01
565.611
536.448
509.234
485.381
465.847
451.073
441.032
435.348
433.441
434.647
438.319
443.88
450.86
458.895
467.702
477.027
486.598
496.074
505.029
513.126
520.235
526.236
531.096
534.75
537.084
538.084
537.693
535.8
532.256
526.935
519.7
510.433
499.113
486.153
471.699
456.031
439.894
424.298
408.743
393.845
380.206
367.63
356.391
346.435
337.098
327.58
318.14
310.611
307.322
309.932
318.881
332.915
348.837
361.875
367.182
362.844
352.924
347.058
355.063
388.011
457.867
572.768
724.201
872.715
949.777
900.079
765.373
633.985
539.943
482.378
449.755
430.16
416.43
405.726
397.132
390.198
384.714
380.45
376.949
374.39
372.846
372.467
373.128
374.198
374.841
374.138
371.362
366.311
359.368
351.338
343.171
335.705
329.521
324.9
321.861
320.238
319.756
320.099
320.961
322.08
323.256
324.38
325.466
326.66
328.336
331.472
336.726
344.528
354.864
367.157
380.359
393.226
404.692
414.153
421.535
427.128
431.302
434.234
435.806
435.708
433.667
429.692
424.182
417.831
411.359
405.2
399.279
393.036
385.627
376.473
365.257
1919.87
815.451
478.975
372.057
332.63
312.714
298.579
286.569
275.995
266.963
259.509
253.442
248.483
244.36
240.836
237.7
234.776
231.929
228.983
225.938
222.9
220.026
217.508
215.596
214.65
215.291
218.691
227.075
244.408
279.082
336.05
403.34
453.224
492.84
529.855
560.212
584.095
602.868
617.363
627.92
634.536
637.01
635.08
628.555
617.443
602.051
583.041
561.417
538.441
515.499
493.924
474.84
459.033
446.916
438.544
433.703
431.992
432.919
435.974
440.689
446.685
453.693
461.525
470.023
478.965
488.001
496.617
504.214
510.544
515.604
519.597
522.816
525.456
527.491
528.788
529.241
528.698
526.919
523.714
518.865
512.1
503.078
492.222
479.371
464.425
448.157
431.791
415.287
398.964
383.095
368.001
354.2
342.169
331.827
322.393
313.245
305.194
300.418
301.214
308.995
323.503
342.318
360.896
373.491
375.799
369.025
362.612
368.777
400.58
470.306
583.555
726.511
854.174
900.623
831.647
701.88
584.478
505.218
458.925
432.621
415.889
403.074
392.439
383.307
375.324
368.805
363.462
358.97
355.678
353.616
352.828
353.174
354.155
354.845
354.237
351.543
346.52
339.563
331.54
323.486
316.325
310.691
306.876
304.864
304.422
305.193
306.78
308.809
310.972
313.04
314.872
316.412
317.72
318.991
320.802
323.832
328.777
336.118
345.838
357.259
369.121
379.936
388.475
394.158
397.158
398.171
398.008
397.246
396.084
394.43
392.119
389.145
385.768
382.444
379.597
377.343
375.33
372.742
368.707
362.444
2003.46
733.285
423.025
353.056
329.105
313.353
299.119
285.736
273.7
263.552
255.367
248.856
243.662
239.472
236.011
233.031
230.299
227.625
224.649
221.493
218.337
215.354
212.726
210.701
209.682
210.394
214.429
224.986
247.394
288.372
348.058
406.544
446.615
480.444
511.624
536.773
556.183
570.954
581.778
588.956
592.536
592.445
588.607
581.049
569.987
555.887
539.473
521.684
503.575
486.196
470.469
457.09
446.488
438.827
434.051
431.933
432.135
434.263
437.931
442.813
448.694
455.458
463.033
471.276
479.85
488.131
495.252
500.5
504.052
506.329
507.934
509.413
511.15
513.185
515.202
516.885
517.943
517.984
516.767
514.045
509.535
502.609
493.784
482.743
469.569
454.57
438.211
421.011
403.46
385.983
368.979
353.03
338.879
326.955
316.903
307.876
299.79
294.15
293.372
299.629
313.752
334.371
357.623
377.627
388.362
387.914
383.468
388.781
418.483
485.041
591.927
721.681
827.599
850.931
774.614
654.573
550.869
482.691
443.547
420.944
405.626
393.332
382.652
372.88
364.009
356.774
350.78
345.76
341.86
339.321
338.246
338.475
339.448
340.199
339.636
336.908
331.748
324.574
316.332
308.174
301.124
295.885
292.754
291.669
292.311
294.222
296.921
299.973
303.029
305.839
308.25
310.198
311.735
313.027
314.406
316.311
319.332
324.122
331.104
340.163
350.471
360.601
368.957
374.339
376.36
375.498
372.762
369.227
365.665
362.422
359.516
356.856
354.449
352.488
351.28
351.023
351.587
352.359
352.448
350.823
1978.08
623.2
391.105
353.627
335.749
319.04
302.39
286.576
272.513
260.811
251.451
244.037
238.168
233.511
229.78
226.705
223.999
221.339
218.084
214.873
211.847
209.034
206.565
204.71
204.004
205.46
211.054
224.51
251.385
295.843
352.243
401.091
434.003
463.208
490.034
511.61
528.153
540.557
549.413
554.997
557.39
556.601
552.666
545.736
536.123
524.332
511.036
497.025
483.119
470.079
458.532
448.927
441.529
436.427
433.569
432.776
433.78
436.262
439.928
444.562
450.071
456.451
463.689
471.585
479.566
486.572
491.166
493.038
493.194
492.664
492.44
493.148
495.069
498.031
501.56
505.087
508.081
509.955
510.406
509.188
506.072
500.861
493.405
483.601
471.443
457.089
440.883
423.319
404.96
386.34
367.965
350.452
334.636
321.256
310.373
301.276
293.385
287.412
285.474
290.13
303.188
324.483
351.16
377.788
397.547
405.767
406.029
411.896
439.077
500.233
597.383
711.267
796.728
804.249
728.355
620.135
528.369
468.084
433.136
412.392
397.89
386.069
375.563
365.756
356.656
348.712
341.861
336.138
331.745
328.9
327.71
327.968
329.03
329.854
329.268
326.369
320.872
313.243
304.544
296.072
288.984
284.05
281.564
281.39
283.094
286.103
289.845
293.832
297.682
301.113
303.938
306.09
307.65
308.824
309.932
311.329
313.346
316.486
321.281
328.006
336.367
345.348
353.406
358.975
361.063
359.61
355.413
349.705
343.67
338.113
333.399
329.583
326.623
324.555
323.548
323.8
325.342
327.813
330.495
332.347
1832.8
528.158
390.03
366.308
347.103
327.356
307.702
289.243
272.935
259.303
248.27
239.436
232.393
226.797
222.352
218.769
215.718
212.816
209.779
206.991
204.446
202.111
200.112
198.792
198.846
201.567
209.264
225.691
255.418
299.771
350.247
390.831
418.528
444.064
467.773
487.039
501.898
513.073
521.097
526.24
528.612
528.271
525.311
519.928
512.448
503.328
493.131
482.477
471.975
462.172
453.513
446.323
440.809
437.074
435.112
434.815
435.971
438.303
441.568
445.611
450.394
455.968
462.377
469.475
476.656
482.325
482.872
481.092
478.47
476.23
475.618
477.2
480.912
486.2
492.23
498.121
503.101
506.587
508.203
507.699
504.933
499.822
492.318
482.395
470.078
455.493
438.921
420.802
401.7
382.213
362.915
344.419
327.551
313.208
301.736
292.633
285.128
279.296
276.715
279.975
291.573
312.544
341.286
373.229
401.542
419.663
427.172
435.379
460.233
514.625
599.972
697.01
764.483
762.243
691.32
595.333
513.639
458.853
426.123
406.11
392.009
380.541
370.3
360.656
351.457
343.01
335.547
329.296
324.557
321.588
320.459
320.884
322.113
323.004
322.302
319.056
312.981
304.629
295.229
286.272
279.07
274.457
272.694
273.532
276.388
280.561
285.401
290.381
295.089
299.201
302.477
304.791
306.185
306.889
307.326
308.049
309.311
311.395
314.677
319.515
325.963
333.483
340.865
346.528
349.082
347.89
343.284
336.341
328.405
320.626
313.729
308.025
303.571
300.369
298.499
298.119
299.35
302.053
305.754
309.583
1578.04
487.516
407.036
383.921
361.533
338.528
315.833
294.63
275.82
259.87
246.735
236.055
227.422
220.478
214.921
210.485
206.924
204.025
201.66
199.51
197.56
195.865
194.602
194.194
195.462
199.854
209.721
228.356
258.858
300.465
344.419
378.538
402.364
424.97
446.487
464.361
478.357
489.045
496.93
502.31
505.327
506.067
504.641
501.234
496.125
489.683
482.339
474.55
466.758
459.359
452.683
446.998
442.51
439.363
437.622
437.25
438.115
439.976
442.582
445.776
449.517
453.834
458.722
463.958
468.859
470.951
468.9
465.522
462.348
460.763
461.842
466.072
473.096
481.9
491.178
499.679
506.418
510.74
512.305
511.003
506.883
500.071
490.719
478.975
464.991
448.965
431.186
412.066
392.132
371.963
352.13
333.23
316.026
301.412
289.885
281.104
274.265
269.033
266.387
268.673
278.74
298.631
328.128
363.859
399.56
427.76
444.459
456.991
480.331
527.495
600.154
680.608
732.941
725.388
661.728
577.51
504.379
453.504
421.748
401.71
387.585
376.23
366.141
356.603
347.347
338.625
330.828
324.349
319.561
316.731
315.875
316.614
318.084
319.023
318.08
314.255
307.306
297.94
287.622
278.08
270.796
266.649
265.819
267.891
272.1
277.616
283.729
289.883
295.638
300.628
304.533
307.118
308.314
308.318
307.64
307.107
307.214
308.195
310.254
313.613
318.407
324.416
330.826
336.275
339.258
338.704
334.418
327.112
318.052
308.558
299.64
291.879
285.511
280.595
277.189
275.417
275.436
277.269
280.681
285.048
1290.32
477.57
429.214
404.748
379.347
353.39
327.871
304.004
282.626
264.196
248.751
236
225.55
217.052
210.23
204.877
200.818
197.887
195.905
194.287
192.955
192.01
191.688
192.466
195.213
201.345
212.945
232.54
261.882
299.203
336.963
366.174
387.063
407.227
427.162
444.291
457.999
468.672
476.801
482.738
486.682
488.744
489.018
487.621
484.782
480.813
476.002
470.662
465.093
459.573
454.354
449.668
445.729
442.723
440.781
439.931
440.1
441.119
442.766
444.863
447.305
450.027
452.89
455.513
457.117
456.121
453.579
450.651
448.847
449.786
454.64
463.577
475.62
489.012
501.81
512.365
519.563
522.853
522.149
517.687
509.871
499.158
485.984
470.726
453.702
435.214
415.582
395.193
374.5
353.996
334.174
315.557
298.823
284.78
273.919
265.983
260.188
255.996
253.898
255.783
264.534
282.896
311.979
349.895
391.399
428.942
455.965
474.838
498.097
538.479
598.602
663.564
703.467
693.536
637.946
564.649
498.991
451.12
419.646
399.055
384.473
372.903
362.741
353.168
343.868
335.104
327.298
320.909
316.356
313.904
313.518
314.707
316.459
317.37
315.986
311.277
303.112
292.447
281.057
270.95
263.769
260.392
260.843
264.474
270.312
277.399
284.965
292.434
299.356
305.327
309.965
312.929
314.026
313.347
311.384
309.125
307.5
306.933
307.616
309.625
312.991
317.589
322.893
327.842
331.018
331.131
327.541
320.511
311.052
300.48
289.975
280.349
272.029
265.189
259.917
256.331
254.601
254.853
257.042
260.797
1004.97
485.984
454.447
428.646
401.112
373.041
345.39
319.426
295.916
275.273
257.617
242.771
230.409
220.208
211.91
205.334
200.359
196.891
194.823
193.545
192.77
192.595
193.285
195.322
199.511
207.063
219.591
238.798
265.481
297.744
329.849
355.275
373.899
391.866
410.502
427.313
441.17
452.174
460.771
467.368
472.112
475.299
477.063
477.499
476.755
474.996
472.397
469.145
465.43
461.436
457.35
453.37
449.707
446.57
444.138
442.508
441.676
441.539
441.934
442.687
443.648
444.678
445.58
446.008
445.455
443.459
441.122
439.663
440.812
446.353
457.251
472.936
491.334
509.6
525.007
535.59
540.39
539.352
533.037
522.319
508.141
491.375
472.749
452.837
432.074
410.806
389.34
367.982
347.067
326.94
307.96
290.532
275.227
262.709
253.34
246.868
242.564
239.821
238.828
240.97
248.839
265.531
293.258
331.738
377.174
422.619
460.143
487.197
512.38
547.341
595.997
647.086
676.889
666.287
618.649
555.279
496.337
451.072
419.605
398.139
382.728
370.605
360.119
350.377
341.055
332.433
324.891
318.882
314.829
312.978
313.222
314.93
316.913
317.611
315.467
309.475
299.714
287.496
274.986
264.486
257.758
255.597
257.774
263.335
271.07
279.881
288.942
297.677
305.66
312.509
317.834
321.243
322.426
321.312
318.24
314.146
310.393
307.777
306.696
307.209
309.211
312.51
316.698
320.96
324.068
324.692
321.895
315.518
306.221
295.172
283.604
272.486
262.418
253.706
246.505
240.951
237.227
235.518
235.918
238.27
757.103
496.544
480.153
454.82
427.143
398.831
370.63
343.886
319.32
297.224
277.726
260.829
246.381
234.187
224.063
215.859
209.477
204.861
201.978
200.664
200.239
200.7
202.282
205.402
210.694
219.036
231.484
248.998
271.801
298.387
324.97
347.113
363.958
379.766
396.992
413.6
427.918
439.552
448.448
455.408
460.817
464.938
467.916
469.849
470.817
470.894
470.153
468.676
466.553
463.885
460.791
457.422
453.959
450.607
447.566
444.987
442.941
441.41
440.304
439.5
438.864
438.266
437.553
436.541
435.055
433.294
432.391
433.92
440.031
452.59
471.908
496.03
521.185
543.04
558.057
564.382
561.948
551.927
536.031
516.003
493.353
469.275
444.649
420.09
396.005
372.666
350.263
328.956
308.901
290.261
273.231
258.103
245.304
235.284
228.222
223.828
221.452
220.517
221.056
224.06
231.622
246.771
272.484
309.989
357.246
408.52
455.652
492.338
521.969
553.733
592.625
631.531
652.956
642.529
602.396
548.167
495.585
452.941
421.526
399.061
382.55
369.574
358.532
348.511
339.203
330.862
323.77
318.346
314.998
313.926
314.908
317.129
319.199
319.38
316.03
308.26
296.501
282.552
269.017
258.467
252.696
252.294
256.669
264.496
274.292
284.816
295.205
304.917
313.603
320.981
326.746
330.531
331.962
330.797
327.131
321.593
315.737
310.788
307.539
306.242
306.758
308.774
311.86
315.337
318.166
319.09
317.021
311.463
302.708
291.679
279.551
267.373
255.882
245.509
236.491
229.005
223.252
219.455
217.8
218.297
575.398
504.278
502.292
481.543
458.552
434.361
409.371
384.679
361.037
338.773
317.985
298.874
281.594
266.26
252.96
241.725
232.581
225.54
220.586
218.078
217.391
217.982
219.94
223.558
229.266
237.602
249.148
264.335
283.096
304.407
326.046
345.267
360.782
374.688
390.242
406.237
420.475
431.813
441.017
448.429
454.334
458.996
462.618
465.345
467.263
468.419
468.834
468.523
467.501
465.8
463.475
460.618
457.363
453.881
450.362
446.977
443.85
441.037
438.532
436.286
434.232
432.308
430.464
428.687
427.077
426.318
428.005
434.436
448.271
471.044
501.522
535.274
565.846
586.996
595.004
589.61
573.1
548.724
519.575
488.127
456.165
424.893
395.065
367.106
341.218
317.457
295.799
276.186
258.561
242.899
229.234
217.717
208.579
202.021
198.047
196.331
196.328
197.568
200.012
204.352
212.194
226.126
249.42
284.604
331.549
386.259
441.161
487.845
524.403
556.326
588.842
618.644
633.812
623.843
589.886
543.255
496.236
456.15
425.017
401.72
384.111
370.188
358.491
348.134
338.82
330.749
324.168
319.466
316.997
316.855
318.631
321.271
323.137
322.297
317.091
306.911
292.739
276.982
262.699
252.652
248.531
250.556
257.647
268.032
279.93
291.961
303.255
313.361
322.099
329.394
335.126
339.045
340.771
339.918
336.313
330.157
322.686
315.547
309.997
306.66
305.531
306.234
308.249
310.918
313.332
314.345
312.83
308.071
300.036
289.369
277.102
264.288
251.749
240.019
229.419
220.173
212.506
206.669
202.91
201.355
498.016
498.448
508.419
498.12
486.09
472.451
456.651
439.212
420.674
401.421
381.612
361.566
341.637
322.286
304.155
287.827
273.763
262.277
253.573
247.809
245.631
245.59
247.292
250.784
256.274
264.022
274.246
287.02
302.114
318.854
336.083
352.351
366.437
378.518
391.875
406.115
418.571
429.261
438.391
445.949
452.044
456.87
460.64
463.543
465.712
467.225
468.106
468.347
467.923
466.813
465.015
462.561
459.526
456.031
452.23
448.285
444.344
440.514
436.862
433.425
430.225
427.304
424.751
422.755
421.745
422.92
428.612
441.936
465.784
500.573
542.416
583.257
613.315
625.338
617.834
594.303
560.151
520.367
478.709
437.704
398.913
363.206
330.973
302.298
277.069
255.065
236.021
219.657
205.724
194.044
184.517
177.128
171.934
168.961
168.088
168.998
171.274
174.579