/*--------------------------------*- C++ -*----------------------------------*\
| =========                 |                                                 |
| \\      /  F ield         | OpenFOAM: The Open Source CFD Toolbox           |
|  \\    /   O peration     | Version:  2112                                  |
|   \\  /    A nd           | Website:  www.openfoam.com                      |
|    \\/     M anipulation  |                                                 |
\*---------------------------------------------------------------------------*/
FoamFile
{
    version     2.0;
    format      ascii;
    arch        "LSB;label=32;scalar=64";
    class       volScalarField;
    location    "0.044";
    object      s;
}
// * * * * * * * * * * * * * * * * * * * * * * * * * * * * * * * * * * * * * //

dimensions      [0 0 0 0 0 0 0];

internalField   nonuniform List<scalar> 
12225
(
1
1
1
1
1
1
1
1
1
1
1
1
1
1
1
1
1
1
1
1
1
1
1
1
1
1
1
1
1
1
1
1
1
1
1
1
1
1
1
1
1
1
1
1
1
1
1
1
1
1
1
1
1
1
1
1
1
1
1
1
1
1
1
1
1
1
1
1
1
1
1
1
1
1
1
1
1
1
1
1
1
1
1
1
1
1
1
1
1
1
1
1
1
1
1
1
1
1
1
1
1
1
1
1
1
1
1
1
1
1
1
1
1
1
1
1
1
1
1
1
1
1
1
1
1
1
1
1
1
1
1
1
1
1
1
1
1
1
1
1
1
1
1
1
1
1
1
1
1
1
1
1
1
1
1
1
1
1
1
1
1
1
1
1
1
1
1
1
1
1
1
1
1
1
1
1
1
1
1
1
1
1
1
1
1
1
1
1
1
1
1
1
1
1
1
1
1
1
1
1
1
1
1
1
1
1
1
1
1
1
1
1
1
1
1
1
1
1
1
1
1
1
1
1
1
1
1
1
1
1
1
1
1
1
1
1
1
1
1
1
1
1
1
1
1
1
1
1
1
1
1
1
1
1
1
1
1
1
1
1
1
1
1
1
1
1
1
1
1
1
1
1
1
1
1
1
1
1
1
1
1
1
1
1
1
1
1
1
1
1
1
1
1
1
1
1
1
1
1
1
1
1
1
1
1
1
1
1
1
1
1
1
1
1
1
1
1
1
1
1
1
1
1
1
1
1
1
1
1
1
1
1
1
1
1
1
1
1
1
1
1
1
1
1
1
1
1
1
1
1
1
1
1
1
1
1
1
1
1
1
1
1
1
1
1
1
1
1
1
1
1
1
1
1
1
1
1
1
1
1
1
1
1
1
1
1
1
1
1
1
1
1
1
1
1
1
1
1
1
1
1
1
1
1
1
1
1
1
1
1
1
1
1
1
1
1
1
1
1
1
1
1
1
1
1
1
1
1
1
1
1
1
1
1
1
1
1
1
1
1
1
1
1
1
1
1
1
1
1
1
1
1
1
1
1
1
1
1
1
1
1
1
1
1
1
1
1
1
1
1
1
1
1
1
1
1
1
1
1
1
1
1
1
1
1
1
1
1
1
1
1
1
1
1
1
1
1
1
1
1
1
1
1
1
1
1
1
1
1
1
1
1
1
1
1
1
1
1
1
1
1
1
1
1
1
1
1
1
1
1
1
1
1
1
1
1
1
1
1
1
0.48443
0.583215
0.627844
0.646486
0.664117
0.694164
0.707854
0.729569
0.738907
0.74341
0.744539
0.744291
0.743469
0.742029
0.739692
0.735889
0.731246
0.726455
0.72095
0.715723
0.71022
0.704006
0.699351
0.692435
0.686047
0.68109
0.673817
0.668816
0.661404
0.652833
0.645379
0.628752
0.565905
0.456612
0.42594
0.444165
0.4769
0.497556
0.50725
0.516862
0.533787
0.548069
0.579204
0.615592
0.631317
0.636653
0.639738
0.638168
0.607722
0.565584
0.585507
0.768515
0.887875
0.898153
0.89946
0.899609
0.89951
0.899079
0.8981
0.896339
0.893628
0.889941
0.885431
0.880429
0.875324
0.870305
0.865193
0.859677
0.853784
0.848002
0.842842
0.838455
0.83467
0.831261
0.829465
0.828708
0.828529
0.829223
0.832137
0.836417
0.840996
0.84666
0.853363
0.860873
0.867442
0.871446
0.875351
0.878879
0.880779
0.882123
0.884097
0.885337
0.886308
0.888354
0.889261
0.891237
0.892429
0.893734
0.89467
0.895276
0.895663
0.89587
0.895973
0.895998
0.89586
0.895792
0.89579
0.895896
0.895997
0.896393
0.896907
0.897588
0.89843
0.899458
0.900729
0.902266
0.904106
0.906304
0.908871
0.911747
0.914598
0.916594
0.91815
0.919325
0.920064
0.920346
0.920232
0.919471
0.91791
0.915957
0.913492
0.910044
0.9052
0.899175
0.892611
0.886397
0.881769
0.878898
0.876222
0.872739
0.868555
0.86444
0.861139
0.858981
0.857842
0.857281
0.85671
0.85556
0.852413
0.841445
0.820352
0.802576
0.78283
0.748792
0.68816
0.595952
0.478554
0.352019
0.235293
0.142373
0.0780512
0.0389739
0.0178819
0.00760551
0.0029984
0.00106829
0.000339926
0.000154739
8.73253e-05
4.7119e-05
2.47898e-05
1.2727e-05
6.37601e-06
3.11511e-06
1.48347e-06
6.86649e-07
3.08399e-07
1.33262e-07
5.52786e-08
-7.85904e-06
0.461271
0.51572
0.530981
0.529831
0.600969
0.678772
0.733692
0.759472
0.769313
0.772488
0.773175
0.773065
0.772618
0.771392
0.76853
0.765297
0.760179
0.754198
0.748006
0.742106
0.735329
0.729396
0.722332
0.716317
0.710453
0.702242
0.69638
0.687693
0.680816
0.673133
0.662613
0.654574
0.638649
0.607313
0.542542
0.482133
0.459089
0.435789
0.41139
0.412334
0.443559
0.475556
0.536343
0.610689
0.663035
0.674393
0.671315
0.651498
0.650454
0.761642
0.838628
0.880481
0.896208
0.897429
0.897262
0.894848
0.891404
0.886475
0.8792
0.869937
0.860698
0.8551
0.851026
0.845294
0.837866
0.828235
0.815821
0.801972
0.790084
0.783849
0.780473
0.776922
0.7736
0.772235
0.771162
0.76888
0.767184
0.765268
0.761761
0.758656
0.757173
0.756468
0.756946
0.762051
0.770208
0.78054
0.794909
0.809428
0.820117
0.826153
0.832869
0.838187
0.841
0.843897
0.845158
0.845608
0.845761
0.846507
0.847181
0.848279
0.849253
0.850514
0.852786
0.854501
0.856659
0.858917
0.861061
0.863432
0.865748
0.868065
0.870336
0.872154
0.873541
0.874468
0.875036
0.875509
0.875844
0.87609
0.876605
0.877845
0.880564
0.886694
0.895311
0.905423
0.916078
0.925713
0.932691
0.93786
0.94198
0.945316
0.948118
0.950488
0.952302
0.953314
0.953484
0.952851
0.948943
0.934276
0.9148
0.900668
0.892486
0.889137
0.888519
0.888851
0.889807
0.889899
0.889387
0.886948
0.879603
0.872049
0.8675
0.865985
0.865989
0.867825
0.872357
0.872458
0.870128
0.862709
0.846651
0.809127
0.746731
0.690967
0.658497
0.647447
0.64405
0.637279
0.615648
0.540591
0.419178
0.313585
0.226944
0.158591
0.106125
0.0682838
0.0417336
0.0245202
0.0135541
0.00714502
0.0036326
0.00134778
0.443365
0.447022
0.455768
0.506466
0.632631
0.721002
0.759263
0.770968
0.773102
0.772416
0.770338
0.766765
0.763217
0.755832
0.747685
0.742412
0.731138
0.719886
0.709763
0.69366
0.680679
0.667374
0.650909
0.640882
0.630122
0.621916
0.621239
0.622578
0.627926
0.633322
0.639277
0.640759
0.637962
0.6315
0.619724
0.592959
0.564051
0.507628
0.452552
0.434194
0.434736
0.455774
0.521219
0.615717
0.678055
0.691115
0.678252
0.698264
0.816585
0.867901
0.886275
0.892998
0.894506
0.891886
0.886184
0.876102
0.862234
0.847503
0.838607
0.831531
0.828363
0.825553
0.822039
0.81667
0.808103
0.796767
0.786677
0.783652
0.782849
0.782865
0.784226
0.788121
0.794333
0.79797
0.799241
0.799483
0.797372
0.790043
0.779896
0.768995
0.757548
0.748395
0.741308
0.737385
0.73593
0.735494
0.736527
0.742777
0.756139
0.775602
0.796183
0.816792
0.830924
0.839257
0.849449
0.85413
0.859791
0.862547
0.863961
0.865153
0.865807
0.867977
0.871916
0.876357
0.880793
0.885515
0.889752
0.893534
0.896727
0.899327
0.901811
0.904424
0.907053
0.909371
0.910901
0.911003
0.909172
0.904594
0.896933
0.886008
0.873525
0.862776
0.857434
0.856113
0.857852
0.865875
0.880252
0.896403
0.912482
0.926163
0.936156
0.94374
0.94999
0.955463
0.960136
0.963431
0.964922
0.965024
0.963641
0.955823
0.931919
0.911558
0.901393
0.898589
0.898862
0.903132
0.915974
0.923926
0.926166
0.926118
0.923782
0.911727
0.894608
0.886124
0.883542
0.883518
0.885363
0.894581
0.912669
0.925141
0.931032
0.933088
0.934607
0.936613
0.938251
0.938744
0.937902
0.933305
0.927642
0.918315
0.89762
0.846545
0.701606
0.513457
0.351456
0.231956
0.144766
0.0867878
0.0496307
0.0240852
0.390659
0.457016
0.612582
0.723476
0.767309
0.778965
0.778241
0.775271
0.76837
0.754363
0.740211
0.725683
0.709701
0.696423
0.685496
0.669983
0.653801
0.638689
0.62284
0.608528
0.594202
0.578374
0.565866
0.551418
0.538247
0.529894
0.520071
0.51545
0.516269
0.52078
0.533853
0.549859
0.579006
0.603098
0.608362
0.605043
0.597416
0.586108
0.56249
0.529227
0.526108
0.536585
0.566062
0.64642
0.697867
0.697902
0.722987
0.830709
0.873053
0.885449
0.888863
0.889812
0.883382
0.869006
0.843729
0.826549
0.818345
0.815267
0.814571
0.816869
0.817933
0.817565
0.816029
0.812309
0.805296
0.794982
0.789635
0.78899
0.791008
0.798371
0.811658
0.824166
0.828116
0.829387
0.829736
0.829658
0.828395
0.824639
0.817631
0.807098
0.793226
0.777081
0.760418
0.745795
0.737152
0.733022
0.729755
0.72434
0.721414
0.720794
0.722773
0.736178
0.759724
0.789522
0.820245
0.84947
0.870187
0.887914
0.898444
0.906993
0.910718
0.913269
0.915272
0.91597
0.915578
0.91385
0.911134
0.907963
0.905165
0.903655
0.903527
0.905836
0.910172
0.916059
0.922833
0.929662
0.936253
0.941995
0.946437
0.949226
0.948928
0.940192
0.916181
0.888976
0.86593
0.853718
0.850972
0.852692
0.862055
0.878014
0.896953
0.915696
0.930709
0.941177
0.94968
0.957703
0.964655
0.969204
0.970941
0.970918
0.968775
0.957363
0.929446
0.91134
0.904488
0.903889
0.906015
0.917014
0.936099
0.947762
0.95187
0.951959
0.948939
0.932838
0.907582
0.894254
0.890411
0.890692
0.895025
0.911228
0.92825
0.941124
0.951859
0.961504
0.969987
0.976719
0.981246
0.983626
0.9844
0.98442
0.983849
0.981326
0.973151
0.950066
0.880361
0.684629
0.467711
0.299702
0.183963
0.0974299
0.606729
0.728648
0.779127
0.791788
0.79012
0.784606
0.773739
0.753538
0.732125
0.714198
0.6987
0.684335
0.671478
0.659268
0.647024
0.635202
0.622552
0.610913
0.599669
0.588916
0.575682
0.562171
0.552455
0.541165
0.52531
0.515199
0.506128
0.49609
0.490992
0.484546
0.483173
0.484603
0.490494
0.505574
0.537355
0.572657
0.586054
0.585312
0.582228
0.572746
0.566327
0.568397
0.58239
0.649532
0.70251
0.724051
0.825487
0.871276
0.882932
0.885014
0.883277
0.871945
0.841789
0.818069
0.806653
0.802185
0.801161
0.80282
0.808135
0.814633
0.817343
0.817559
0.816757
0.81403
0.808246
0.799334
0.795915
0.795937
0.79778
0.802744
0.810714
0.819969
0.82758
0.83054
0.831366
0.831281
0.830153
0.827143
0.821557
0.812535
0.799703
0.784064
0.766924
0.750959
0.74401
0.74143
0.740246
0.738533
0.734525
0.72229
0.714472
0.710185
0.709305
0.711864
0.718606
0.734471
0.759691
0.796264
0.831266
0.860466
0.874948
0.880287
0.881525
0.879103
0.868559
0.852636
0.834846
0.818285
0.804868
0.7973
0.79422
0.798763
0.810628
0.830298
0.855519
0.879852
0.901288
0.920335
0.936275
0.948921
0.959306
0.966701
0.970347
0.97058
0.963615
0.935329
0.900866
0.876706
0.86619
0.865216
0.869525
0.884957
0.903699
0.922559
0.938002
0.948918
0.957764
0.965673
0.971493
0.974222
0.974581
0.973438
0.966193
0.940555
0.917388
0.906485
0.903768
0.904696
0.911577
0.932155
0.949839
0.959312
0.961732
0.960908
0.953613
0.927125
0.904122
0.89406
0.891957
0.8931
0.901442
0.923504
0.941704
0.955052
0.965141
0.973144
0.979799
0.985367
0.989585
0.992188
0.993258
0.993387
0.993047
0.991028
0.982915
0.955097
0.863129
0.630582
0.427785
0.249333
0.803263
0.804845
0.805272
0.80156
0.790468
0.775437
0.756246
0.735842
0.719101
0.703542
0.689044
0.674971
0.662867
0.651203
0.639364
0.628446
0.616975
0.608285
0.59851
0.589058
0.579737
0.569581
0.559907
0.550461
0.540629
0.531417
0.522631
0.512144
0.503071
0.493175
0.488515
0.482653
0.473054
0.472604
0.477259
0.492345
0.53267
0.566299
0.576474
0.57582
0.575025
0.57641
0.592295
0.665349
0.715273
0.794703
0.86252
0.878967
0.881736
0.877508
0.858044
0.825872
0.808612
0.801352
0.799505
0.79947
0.802283
0.807723
0.81695
0.825127
0.827552
0.827776
0.826946
0.823914
0.818438
0.811061
0.805538
0.804243
0.804425
0.805951
0.808725
0.812125
0.817051
0.822359
0.823676
0.822768
0.818819
0.812048
0.80414
0.793917
0.779579
0.763901
0.746615
0.729603
0.724552
0.724919
0.729518
0.73823
0.743915
0.745749
0.744241
0.735272
0.721758
0.71259
0.706842
0.705509
0.705729
0.709159
0.71495
0.726056
0.739529
0.745483
0.747384
0.746093
0.738006
0.728126
0.719815
0.714105
0.710766
0.709706
0.71069
0.714289
0.721676
0.73483
0.758209
0.793359
0.830578
0.866449
0.897751
0.922129
0.93995
0.955093
0.967888
0.977269
0.982402
0.984044
0.983129
0.975257
0.949868
0.922586
0.903982
0.896076
0.895762
0.901577
0.920895
0.938976
0.952259
0.961923
0.96948
0.974777
0.977196
0.977484
0.976369
0.969348
0.943529
0.918768
0.906743
0.902568
0.902432
0.90531
0.920183
0.944634
0.9592
0.964476
0.964538
0.96006
0.93785
0.909912
0.896362
0.89234
0.892563
0.897385
0.917094
0.94015
0.95612
0.967363
0.97569
0.982159
0.987304
0.991255
0.993956
0.995378
0.995777
0.995703
0.994804
0.990425
0.973247
0.911622
0.730888
0.471306
0.804973
0.810886
0.812919
0.806583
0.793438
0.77427
0.752941
0.733313
0.718511
0.704313
0.69103
0.678533
0.669021
0.658686
0.648146
0.639594
0.629991
0.618005
0.606901
0.596541
0.587791
0.580327
0.572693
0.56607
0.559803
0.554238
0.54849
0.541216
0.533008
0.525629
0.519783
0.510755
0.490938
0.471201
0.463872
0.465241
0.475819
0.516552
0.557721
0.571101
0.573878
0.579163
0.613179
0.686939
0.746971
0.841001
0.872873
0.877857
0.874422
0.850473
0.81964
0.806215
0.801668
0.800877
0.802806
0.811031
0.821916
0.832009
0.840352
0.846081
0.850636
0.854979
0.856419
0.856147
0.854164
0.850969
0.847329
0.843894
0.840701
0.837064
0.832857
0.829164
0.825624
0.819846
0.811557
0.798468
0.780114
0.761062
0.746813
0.732938
0.718813
0.707623
0.697708
0.687581
0.681906
0.680469
0.683185
0.694569
0.718323
0.739073
0.748139
0.751471
0.752435
0.751064
0.744346
0.734678
0.722588
0.712667
0.706736
0.704122
0.70301
0.703061
0.702756
0.701876
0.700528
0.698853
0.69752
0.696821
0.696851
0.697405
0.699039
0.702316
0.707299
0.714902
0.728209
0.755549
0.797766
0.84145
0.881101
0.912782
0.934849
0.948674
0.95886
0.968136
0.977606
0.985259
0.989896
0.991938
0.992308
0.991532
0.987016
0.970325
0.946285
0.930794
0.925928
0.927071
0.937743
0.955655
0.967678
0.975168
0.979161
0.980477
0.980429
0.978703
0.969775
0.94192
0.91815
0.906674
0.902899
0.902658
0.904784
0.916813
0.943815
0.960792
0.967136
0.967424
0.963266
0.941611
0.912366
0.897848
0.893224
0.893107
0.896492
0.913134
0.939279
0.958023
0.970785
0.979484
0.985626
0.990133
0.993406
0.99557
0.996707
0.997041
0.996993
0.996306
0.992772
0.978151
0.926988
0.735221
0.811813
0.840479
0.851144
0.845202
0.823189
0.793482
0.771448
0.761806
0.756099
0.745749
0.733999
0.722347
0.711989
0.696884
0.678992
0.656863
0.632849
0.610891
0.586384
0.563921
0.547899
0.539794
0.531838
0.532158
0.53333
0.534962
0.536409
0.538537
0.539439
0.538469
0.534945
0.526522
0.501484
0.46879
0.452533
0.450026
0.453861
0.471164
0.5206
0.556047
0.567144
0.587068
0.647606
0.706385
0.796855
0.861127
0.872574
0.872554
0.851596
0.819588
0.806601
0.803035
0.80261
0.807216
0.81857
0.825725
0.829577
0.832113
0.833973
0.831949
0.827491
0.823216
0.818591
0.814906
0.813358
0.813113
0.814686
0.815161
0.813229
0.808876
0.800089
0.783557
0.770423
0.755984
0.742866
0.731501
0.723237
0.717668
0.713708
0.708737
0.70231
0.69571
0.688908
0.681554
0.674625
0.670755
0.669554
0.670398
0.675968
0.690353
0.716934
0.736827
0.749563
0.756038
0.76038
0.762976
0.763987
0.760892
0.752146
0.739966
0.728041
0.717515
0.710185
0.706027
0.703022
0.700681
0.69903
0.698183
0.698015
0.698375
0.699677
0.702385
0.706809
0.71315
0.722883
0.740803
0.774739
0.820456
0.866234
0.90548
0.934198
0.951199
0.960338
0.967012
0.973367
0.979876
0.986272
0.991483
0.994672
0.99623
0.996669
0.996536
0.9951
0.987563
0.964863
0.949691
0.945857
0.947435
0.958676
0.972564
0.979975
0.983057
0.983679
0.983255
0.979915
0.964851
0.9367
0.917135
0.907392
0.904723
0.904973
0.908483
0.925291
0.951767
0.966791
0.971667
0.971521
0.966113
0.941615
0.913609
0.900196
0.896258
0.896282
0.899256
0.913743
0.940606
0.960727
0.974342
0.983249
0.989079
0.992953
0.995505
0.997046
0.997772
0.997941
0.997857
0.997097
0.993337
0.97826
0.908909
0.83113
0.893074
0.901985
0.885323
0.854578
0.841067
0.840869
0.841913
0.838127
0.826816
0.813829
0.79536
0.772577
0.745658
0.715868
0.680607
0.64443
0.608328
0.57134
0.529787
0.486187
0.450519
0.421547
0.416923
0.419013
0.4242
0.436151
0.454548
0.475981
0.491167
0.49582
0.493252
0.473944
0.445356
0.431171
0.428595
0.42928
0.448798
0.512868
0.546903
0.567622
0.613019
0.669726
0.745538
0.833089
0.865207
0.869779
0.856575
0.822427
0.807978
0.803948
0.804251
0.810809
0.818557
0.82168
0.823026
0.818117
0.802889
0.773839
0.730012
0.700968
0.683277
0.674194
0.670968
0.670957
0.675738
0.678531
0.679799
0.680618
0.679897
0.685027
0.693067
0.701197
0.706894
0.711896
0.715069
0.717996
0.719621
0.720261
0.719409
0.716765
0.712404
0.706548
0.699292
0.691324
0.682793
0.676233
0.672651
0.671722
0.6752
0.683047
0.694649
0.711636
0.731279
0.748628
0.760733
0.767658
0.772053
0.774821
0.775021
0.772918
0.768152
0.76022
0.750063
0.740709
0.731885
0.723532
0.717718
0.714408
0.71313
0.713028
0.713816
0.716765
0.721364
0.727635
0.739787
0.767356
0.813513
0.860913
0.901793
0.934418
0.957811
0.970688
0.975242
0.977258
0.980227
0.984284
0.988676
0.992757
0.995775
0.997511
0.998223
0.998299
0.997905
0.995086
0.981369
0.964563
0.958961
0.959267
0.965762
0.97771
0.984022
0.986224
0.986385
0.985177
0.978147
0.953967
0.92943
0.915186
0.909353
0.908511
0.910125
0.919527
0.94534
0.965573
0.975523
0.977967
0.977173
0.970014
0.943417
0.919301
0.908613
0.905972
0.906445
0.910478
0.926148
0.949385
0.96701
0.979177
0.987116
0.99214
0.995266
0.997144
0.998149
0.998541
0.998588
0.998437
0.997408
0.992729
0.967843
0.864126
0.931916
0.929709
0.909188
0.908654
0.924248
0.936048
0.940874
0.943115
0.943704
0.940155
0.931001
0.91496
0.887361
0.847977
0.797463
0.733466
0.666726
0.60066
0.53566
0.478458
0.428043
0.387569
0.364029
0.342342
0.313286
0.299634
0.300584
0.30711
0.325751
0.35013
0.366683
0.377826
0.381324
0.382876
0.386922
0.404027
0.455626
0.517946
0.548403
0.588595
0.642305
0.705183
0.791516
0.851366
0.864365
0.861888
0.8282
0.809363
0.803649
0.804594
0.810371
0.817032
0.818417
0.816254
0.802121
0.761828
0.677082
0.623574
0.596357
0.584968
0.581785
0.59903
0.60839
0.633263
0.64942
0.663025
0.682967
0.69244
0.708883
0.719243
0.730089
0.742142
0.753745
0.765072
0.776187
0.786647
0.795082
0.799424
0.800601
0.797874
0.79095
0.781419
0.769525
0.755024
0.739328
0.722998
0.708245
0.696307
0.687937
0.685022
0.687586
0.69436
0.704366
0.717954
0.736017
0.754274
0.767826
0.775943
0.780668
0.782797
0.783237
0.782714
0.78062
0.777239
0.77328
0.767437
0.757829
0.748331
0.742904
0.741036
0.740966
0.7418
0.745278
0.750226
0.757015
0.771962
0.813413
0.862804
0.903552
0.935213
0.959325
0.975858
0.984788
0.987671
0.9877
0.987572
0.988496
0.991509
0.99445
0.99679
0.998244
0.998854
0.998919
0.998575
0.996098
0.984442
0.971159
0.967021
0.967533
0.973505
0.983023
0.987594
0.988738
0.988414
0.985054
0.969048
0.942135
0.925124
0.917634
0.91614
0.917001
0.92351
0.945008
0.965748
0.9783
0.983682
0.984581
0.983574
0.977196
0.957657
0.942076
0.935189
0.933522
0.933821
0.936672
0.947281
0.963246
0.975894
0.984926
0.99092
0.994693
0.99696
0.998234
0.998843
0.999025
0.999012
0.998733
0.997208
0.988202
0.889607
0.948787
0.952862
0.956885
0.96631
0.973363
0.976491
0.979169
0.981373
0.982848
0.983497
0.983661
0.981841
0.977135
0.96773
0.949961
0.917523
0.8568
0.767236
0.655714
0.552164
0.462601
0.400011
0.361204
0.329507
0.289129
0.26877
0.261286
0.261822
0.265993
0.280507
0.298736
0.313706
0.32877
0.34673
0.371593
0.414355
0.484626
0.52715
0.571982
0.630085
0.681937
0.753999
0.825421
0.855191
0.86087
0.839922
0.810888
0.80302
0.803408
0.808461
0.815216
0.816728
0.813254
0.793151
0.736199
0.612911
0.550123
0.522695
0.512197
0.510387
0.537703
0.575945
0.613782
0.657623
0.696661
0.739147
0.775234
0.802394
0.829691
0.847928
0.865604
0.882501
0.898069
0.911925
0.923221
0.932073
0.937669
0.94036
0.940423
0.937415
0.930328
0.919168
0.903444
0.88302
0.858091
0.829964
0.801104
0.775739
0.753425
0.734059
0.71938
0.710946
0.708961
0.713444
0.725139
0.740668
0.75768
0.772457
0.782002
0.787013
0.789209
0.789993
0.79006
0.789107
0.787048
0.78562
0.783587
0.779315
0.7732
0.769465
0.768684
0.768922
0.770115
0.773581
0.781371
0.798773
0.841656
0.889528
0.926052
0.950236
0.966672
0.979148
0.988089
0.992953
0.994546
0.994568
0.993809
0.993422
0.993907
0.995949
0.997788
0.998834
0.999196
0.999183
0.998625
0.995189
0.983149
0.974575
0.972659
0.973869
0.980752
0.987727
0.990367
0.990602
0.989228
0.980621
0.956782
0.940093
0.933268
0.932037
0.932628
0.936436
0.950456
0.967858
0.980092
0.987164
0.989982
0.99037
0.989835
0.987192
0.980369
0.973646
0.968487
0.965453
0.964472
0.96486
0.967619
0.976116
0.984553
0.990478
0.994372
0.996792
0.998211
0.998963
0.999273
0.999327
0.99926
0.998753
0.995411
0.90343
0.960474
0.968777
0.975063
0.980362
0.982263
0.98343
0.984801
0.985639
0.987202
0.988901
0.990704
0.992313
0.992863
0.992967
0.990577
0.984748
0.971754
0.945378
0.892226
0.779923
0.628364
0.500858
0.404941
0.342427
0.290394
0.266383
0.257431
0.256241
0.257997
0.26474
0.27877
0.297245
0.320225
0.346102
0.386511
0.465061
0.508492
0.55806
0.630837
0.675969
0.730897
0.797102
0.841625
0.854363
0.851712
0.817373
0.80293
0.799225
0.804849
0.813139
0.815433
0.813668
0.796147
0.734146
0.586021
0.503588
0.466599
0.452389
0.449744
0.474434
0.538376
0.598544
0.681174
0.774291
0.835529
0.890987
0.917531
0.932276
0.943753
0.953384
0.961747
0.96846
0.973925
0.978523
0.982235
0.985138
0.986998
0.988078
0.988533
0.988281
0.987152
0.985078
0.981683
0.976321
0.968092
0.955608
0.936661
0.909762
0.878688
0.847128
0.81709
0.791466
0.770648
0.755486
0.748077
0.748573
0.758766
0.772697
0.785648
0.794826
0.799543
0.801171
0.801356
0.800883
0.798655
0.796102
0.794889
0.794097
0.791935
0.789151
0.788254
0.788402
0.789397
0.792501
0.801074
0.827266
0.882406
0.927751
0.959039
0.976989
0.985378
0.989483
0.992715
0.995584
0.997335
0.997855
0.997832
0.997359
0.996738
0.996703
0.997295
0.998585
0.999238
0.999376
0.999246
0.998106
0.992024
0.981834
0.977572
0.977274
0.979776
0.987091
0.991283
0.992354
0.992013
0.98849
0.973738
0.959382
0.953931
0.953214
0.953765
0.956185
0.963575
0.973631
0.982254
0.988654
0.992595
0.994401
0.994823
0.994762
0.994409
0.993621
0.991718
0.987456
0.984011
0.982433
0.982217
0.982853
0.986062
0.991125
0.994661
0.996918
0.998284
0.999054
0.999422
0.999533
0.999527
0.999361
0.998094
0.916625
0.969319
0.97629
0.978574
0.979357
0.979254
0.976811
0.974276
0.973246
0.97319
0.977585
0.982352
0.989163
0.993062
0.995365
0.996508
0.996888
0.995189
0.990182
0.977754
0.948846
0.882531
0.727997
0.551694
0.429786
0.342642
0.288561
0.266756
0.260112
0.261758
0.268727
0.281859
0.301427
0.328321
0.372191
0.457643
0.504069
0.550694
0.639156
0.684508
0.723039
0.776171
0.823294
0.84474
0.851116
0.829657
0.803794
0.796468
0.798763
0.809112
0.814739
0.814641
0.803662
0.75315
0.620808
0.487028
0.429839
0.404828
0.397354
0.406142
0.465798
0.557715
0.666605
0.794648
0.886644
0.937518
0.960361
0.971506
0.977789
0.982619
0.986255
0.989029
0.991082
0.992643
0.993885
0.994858
0.995665
0.996343
0.99692
0.997376
0.997676
0.997808
0.997732
0.997383
0.996654
0.9954
0.993371
0.990045
0.984848
0.976444
0.963989
0.946075
0.923102
0.896709
0.870026
0.844476
0.823204
0.809994
0.806301
0.808997
0.815982
0.820297
0.822225
0.822769
0.822902
0.822864
0.821514
0.817537
0.81355
0.810689
0.810117
0.810263
0.810939
0.813054
0.818724
0.833512
0.87397
0.926626
0.962886
0.981562
0.990197
0.994406
0.996506
0.997612
0.998359
0.99891
0.999197
0.999248
0.999209
0.998935
0.998502
0.998412
0.998571
0.999175
0.999465
0.999459
0.999042
0.996483
0.98804
0.982249
0.980882
0.981571
0.986225
0.991602
0.993708
0.993911
0.992916
0.986732
0.977046
0.973224
0.972865
0.973559
0.975802
0.977823
0.980855
0.985211
0.989705
0.993262
0.995597
0.996943
0.997642
0.997925
0.997966
0.997856
0.99717
0.994639
0.99218
0.991224
0.991141
0.991458
0.993105
0.995657
0.997412
0.998526
0.999188
0.999537
0.999673
0.99969
0.99964
0.999156
0.924854
0.972726
0.976091
0.976391
0.970841
0.956975
0.940052
0.932285
0.928807
0.927992
0.93279
0.94193
0.958865
0.976203
0.988456
0.995131
0.997695
0.998422
0.998562
0.996849
0.991363
0.975948
0.933539
0.818091
0.610078
0.463113
0.353254
0.298967
0.276903
0.271004
0.278034
0.292748
0.321009
0.375894
0.45988
0.52247
0.544531
0.64062
0.701823
0.724119
0.76417
0.806413
0.83385
0.844048
0.842662
0.809246
0.794216
0.790663
0.799044
0.811919
0.815147
0.812718
0.787951
0.695912
0.528531
0.418052
0.373267
0.354819
0.350409
0.371283
0.449162
0.559399
0.707236
0.860859
0.939087
0.96747
0.978961
0.98432
0.987402
0.98991
0.991551
0.992827
0.993782
0.994481
0.995037
0.995528
0.996051
0.996637
0.997267
0.997881
0.998419
0.99884
0.999138
0.999333
0.999445
0.999441
0.999308
0.998972
0.998381
0.99726
0.995489
0.992313
0.987667
0.980557
0.971448
0.960056
0.946862
0.931212
0.914633
0.899743
0.886765
0.875364
0.866396
0.86033
0.856605
0.855378
0.855786
0.856553
0.85563
0.851756
0.850315
0.850446
0.851508
0.855025
0.864607
0.892569
0.942706
0.971729
0.986008
0.992799
0.996069
0.997724
0.998609
0.999098
0.999387
0.999582
0.999704
0.999747
0.999747
0.999719
0.999565
0.999334
0.999278
0.999345
0.999552
0.999583
0.999426
0.998275
0.99291
0.986572
0.98432
0.984312
0.986475
0.991732
0.994584
0.995352
0.995182
0.993254
0.98863
0.986782
0.986686
0.987154
0.988192
0.988785
0.989169
0.989693
0.990932
0.993603
0.99592
0.997507
0.998483
0.999021
0.999246
0.999275
0.999176
0.998532
0.99685
0.99584
0.995575
0.995617
0.996013
0.997227
0.998293
0.99899
0.999424
0.999672
0.999783
0.999807
0.999793
0.999607
0.931193
0.972705
0.974732
0.968574
0.945462
0.923723
0.914974
0.911001
0.909304
0.908969
0.908731
0.908731
0.909685
0.920769
0.953378
0.980715
0.993168
0.9979
0.999258
0.999536
0.999121
0.996994
0.989389
0.963695
0.885279
0.674153
0.495131
0.376622
0.318694
0.297476
0.300617
0.323953
0.378645
0.457351
0.525962
0.555999
0.633654
0.711798
0.739298
0.75677
0.793426
0.821358
0.83535
0.841669
0.823523
0.797118
0.787557
0.787898
0.799302
0.812489
0.81526
0.80889
0.763866
0.642319
0.468554
0.378522
0.33559
0.315075
0.309798
0.331336
0.410523
0.535231
0.71452
0.896144
0.956903
0.975665
0.982633
0.986023
0.988536
0.990414
0.991259
0.991375
0.991002
0.990324
0.989779
0.989531
0.989891
0.990936
0.992505
0.99433
0.996083
0.997518
0.998538
0.999172
0.999521
0.999707
0.999801
0.999847
0.999848
0.999785
0.999645
0.999331
0.998838
0.99782
0.996291
0.993976
0.991345
0.988098
0.98445
0.980125
0.974482
0.965068
0.950889
0.935618
0.922813
0.913799
0.909354
0.908646
0.909766
0.912151
0.914282
0.916083
0.918776
0.924618
0.940505
0.965322
0.981597
0.990647
0.995268
0.997526
0.998624
0.999182
0.999489
0.999665
0.999769
0.999837
0.999884
0.999909
0.999913
0.99991
0.999893
0.999808
0.999703
0.999682
0.999705
0.999714
0.999645
0.999101
0.996186
0.990352
0.987571
0.987169
0.987995
0.991859
0.995155
0.996417
0.996569
0.99615
0.994633
0.99401
0.994029
0.994383
0.994753
0.994765
0.994429
0.994133
0.994143
0.994561
0.996106
0.997694
0.998712
0.999305
0.999594
0.999682
0.999674
0.999529
0.998865
0.99816
0.997909
0.997897
0.998006
0.99848
0.999049
0.999425
0.999662
0.999803
0.999871
0.99989
0.999886
0.999815
0.930848
0.971943
0.971768
0.956789
0.929258
0.918254
0.915387
0.914723
0.917531
0.919422
0.917415
0.910631
0.901866
0.898435
0.903778
0.933031
0.974722
0.991984
0.998012
0.999585
0.99985
0.999828
0.999221
0.996175
0.982463
0.929153
0.740586
0.531913
0.409124
0.353995
0.333304
0.371173
0.434573
0.503896
0.557649
0.574435
0.676331
0.753746
0.760324
0.780307
0.808615
0.825329
0.834833
0.833388
0.805799
0.785821
0.77961
0.78341
0.798434
0.812074
0.815058
0.80559
0.754103
0.61515
0.437773
0.342769
0.300266
0.280783
0.272943
0.282315
0.341422
0.462516
0.678708
0.892705
0.959809
0.976735
0.982616
0.985289
0.986021
0.98562
0.98366
0.980633
0.97707
0.973483
0.970553
0.968955
0.968872
0.971186
0.975372
0.980728
0.986289
0.991133
0.994777
0.997176
0.998583
0.99933
0.999693
0.999853
0.999922
0.999951
0.999963
0.999959
0.999934
0.999862
0.999735
0.999488
0.999216
0.998773
0.99812
0.997301
0.996474
0.994974
0.991961
0.987889
0.983495
0.979261
0.976102
0.974668
0.974539
0.974862
0.976163
0.977553
0.978918
0.981734
0.987056
0.992027
0.995537
0.997632
0.998759
0.999331
0.999616
0.999763
0.999845
0.999894
0.999924
0.999944
0.999957
0.999966
0.999968
0.999967
0.999965
0.999953
0.999909
0.99987
0.999859
0.999848
0.999803
0.999535
0.998113
0.993615
0.990586
0.989853
0.990144
0.992415
0.995613
0.99717
0.997633
0.997629
0.997402
0.99731
0.99736
0.997601
0.997759
0.997738
0.997392
0.996843
0.996652
0.996659
0.996936
0.997924
0.998838
0.999396
0.999694
0.999816
0.999837
0.999809
0.999615
0.99926
0.999107
0.999089
0.999124
0.999303
0.999562
0.999734
0.999841
0.999905
0.999936
0.999945
0.999944
0.999916
0.928567
0.970958
0.969913
0.951967
0.927132
0.918779
0.919182
0.92845
0.934379
0.93533
0.936926
0.936544
0.927718
0.90406
0.894362
0.900892
0.93412
0.977134
0.993596
0.998579
0.999761
0.999961
0.999984
0.999912
0.999165
0.993435
0.959852
0.789859
0.549597
0.43283
0.38558
0.383116
0.432504
0.50507
0.560278
0.576559
0.673005
0.762053
0.773617
0.79253
0.812371
0.825318
0.832411
0.82396
0.794411
0.778109
0.774744
0.779216
0.795963
0.810815
0.814154
0.805883
0.75847
0.623271
0.443376
0.342649
0.286973
0.25858
0.247643
0.247923
0.273201
0.347783
0.565377
0.85517
0.95457
0.975529
0.979605
0.979968
0.976924
0.97132
0.964326
0.955666
0.945887
0.936133
0.926909
0.921545
0.919363
0.922903
0.932024
0.944834
0.959014
0.972622
0.983377
0.990806
0.995311
0.997764
0.998994
0.99957
0.999824
0.999929
0.99997
0.999985
0.999991
0.999993
0.999991
0.99998
0.999966
0.999947
0.999899
0.999813
0.999727
0.999591
0.999279
0.99868
0.997941
0.997171
0.996519
0.996123
0.995981
0.995972
0.996
0.996092
0.996295
0.996764
0.997695
0.998549
0.999161
0.999539
0.999749
0.999858
0.999915
0.999945
0.999962
0.999972
0.999979
0.999983
0.999986
0.999987
0.999987
0.999986
0.999985
0.999982
0.999971
0.999952
0.999942
0.999932
0.999904
0.99977
0.999071
0.996159
0.993192
0.992231
0.992284
0.993462
0.996134
0.997676
0.998333
0.998541
0.998606
0.998696
0.998838
0.998976
0.999036
0.999025
0.99885
0.998429
0.998209
0.998163
0.9982
0.998461
0.999064
0.999497
0.999751
0.999873
0.99991
0.99991
0.999867
0.999732
0.999658
0.999647
0.999658
0.999723
0.999826
0.999895
0.999937
0.999961
0.999973
0.999976
0.999975
0.999964
0.924317
0.967528
0.967945
0.954364
0.929796
0.920456
0.920487
0.924697
0.92963
0.931723
0.936851
0.940392
0.939164
0.924514
0.898692
0.897469
0.918029
0.965806
0.989329
0.99729
0.999423
0.999897
0.999986
0.999998
0.999991
0.999812
0.997163
0.973104
0.812517
0.550193
0.435282
0.405055
0.421266
0.491489
0.555444
0.573776
0.654004
0.7574
0.776246
0.794298
0.812104
0.824375
0.826029
0.812913
0.787026
0.772302
0.76962
0.773285
0.791033
0.808206
0.812296
0.806606
0.769091
0.64683
0.463172
0.350948
0.289317
0.256741
0.23918
0.234384
0.241728
0.275429
0.412382
0.754697
0.929168
0.971935
0.974841
0.969697
0.959834
0.948483
0.933495
0.9146
0.895508
0.880942
0.872049
0.866934
0.864156
0.862926
0.865206
0.87585
0.899068
0.930246
0.955797
0.974853