/*--------------------------------*- C++ -*----------------------------------*\
| =========                 |                                                 |
| \\      /  F ield         | OpenFOAM: The Open Source CFD Toolbox           |
|  \\    /   O peration     | Version:  2112                                  |
|   \\  /    A nd           | Website:  www.openfoam.com                      |
|    \\/     M anipulation  |                                                 |
\*---------------------------------------------------------------------------*/
FoamFile
{
    version     2.0;
    format      ascii;
    arch        "LSB;label=32;scalar=64";
    class       volScalarField;
    location    "0.02";
    object      k;
}
// * * * * * * * * * * * * * * * * * * * * * * * * * * * * * * * * * * * * * //

dimensions      [0 2 -2 0 0 0 0];

internalField   nonuniform List<scalar> 
12225
(
1.45176
2.48652
3.50521
4.61063
5.88298
7.37251
9.10136
11.0643
13.2294
15.543
17.9366
20.3389
22.6864
24.9298
27.0315
28.9925
30.6492
31.8528
0.421189
0.504598
0.614296
0.752829
0.921881
1.12159
1.3524
1.61759
1.92563
2.28868
2.72252
3.23955
3.84349
4.52851
5.2807
6.09946
7.0533
8.06513
0.379182
0.386372
0.394378
0.403988
0.416778
0.434043
0.456966
0.487124
0.526802
0.578978
0.647468
0.736302
0.849026
0.988401
1.15596
1.35631
1.60002
1.89234
0.376048
0.376983
0.377803
0.378507
0.379184
0.379841
0.380467
0.381181
0.38237
0.384669
0.388941
0.396221
0.407625
0.424293
0.447313
0.478337
0.519254
0.57177
0.375463
0.375759
0.375881
0.37586
0.37572
0.375451
0.375005
0.374358
0.373537
0.372615
0.371706
0.370959
0.370551
0.370698
0.371671
0.373708
0.377136
0.382192
0.375266
0.375461
0.375541
0.375504
0.375388
0.375188
0.37488
0.374453
0.373912
0.373277
0.372577
0.371846
0.371117
0.370426
0.36981
0.369316
0.369007
0.36892
0.375164
0.375307
0.3754
0.375426
0.375395
0.375302
0.375137
0.374893
0.374583
0.374219
0.37382
0.373401
0.372976
0.372556
0.372154
0.371787
0.371474
0.371229
0.37509
0.375187
0.375278
0.375344
0.375379
0.375374
0.375316
0.375195
0.37503
0.374836
0.374625
0.374411
0.3742
0.373996
0.373808
0.373644
0.373515
0.373419
0.375031
0.375082
0.375152
0.375228
0.3753
0.375352
0.375368
0.375342
0.375281
0.375198
0.375107
0.375018
0.374938
0.37487
0.374818
0.374787
0.37478
0.374793
0.374972
0.374982
0.375026
0.37509
0.375168
0.375246
0.375311
0.375349
0.375363
0.375359
0.37535
0.375343
0.375346
0.375364
0.375401
0.375459
0.375538
0.375632
0.374919
0.374884
0.3749
0.374945
0.375011
0.37509
0.375171
0.375245
0.375308
0.375362
0.375412
0.375465
0.375527
0.375603
0.375694
0.375801
0.375925
0.376059
0.374878
0.374801
0.374785
0.374812
0.374861
0.37493
0.375008
0.375091
0.375173
0.375254
0.375337
0.375425
0.375521
0.375628
0.375748
0.375881
0.376026
0.376177
0.374844
0.374727
0.374677
0.37468
0.374715
0.374769
0.374838
0.374917
0.375003
0.375095
0.375192
0.375298
0.375412
0.375536
0.375672
0.375817
0.375971
0.376128
0.374812
0.374656
0.374568
0.37454
0.374555
0.374594
0.37465
0.374719
0.374799
0.374889
0.374988
0.375096
0.375215
0.375344
0.375481
0.375627
0.37578
0.375934
0.374785
0.374594
0.374468
0.374404
0.374392
0.374415
0.374456
0.374512
0.374581
0.374662
0.374753
0.374854
0.374966
0.375087
0.375215
0.375351
0.375492
0.375635
0.374763
0.374543
0.374383
0.374285
0.374242
0.374241
0.37427
0.374313
0.37437
0.374438
0.374517
0.374606
0.374704
0.37481
0.374922
0.375041
0.375164
0.375287
0.374747
0.374505
0.374319
0.374192
0.37412
0.374095
0.374106
0.374139
0.374184
0.37424
0.374306
0.374381
0.374463
0.374551
0.374645
0.374743
0.374844
0.374946
0.374737
0.374482
0.374279
0.374133
0.374041
0.373996
0.373991
0.374014
0.374049
0.374094
0.374148
0.374208
0.374274
0.374344
0.374418
0.374495
0.374574
0.374653
0.374736
0.374479
0.374273
0.374123
0.374025
0.373974
0.373961
0.373976
0.374005
0.374042
0.374086
0.374133
0.374184
0.374238
0.374294
0.37435
0.374407
0.374464
0.374745
0.3745
0.37431
0.374176
0.374093
0.374055
0.374053
0.374073
0.374103
0.374139
0.374178
0.374219
0.374261
0.374303
0.374344
0.374383
0.374419
0.374452
0.374762
0.37454
0.374375
0.374268
0.374212
0.374197
0.37421
0.374238
0.374272
0.374309
0.374346
0.374381
0.374411
0.374436
0.374454
0.374467
0.374474
0.374476
0.374788
0.3746
0.374473
0.374402
0.374377
0.374385
0.374411
0.374443
0.374477
0.374507
0.374529
0.374539
0.374538
0.374524
0.374499
0.374466
0.374426
0.37438
0.374828
0.374687
0.374603
0.374566
0.374563
0.374579
0.374602
0.374623
0.374635
0.374631
0.374608
0.374563
0.374497
0.374415
0.37432
0.374217
0.374108
0.373996
0.374884
0.374798
0.374751
0.374727
0.374719
0.374715
0.374707
0.374683
0.374636
0.374559
0.374455
0.374323
0.374168
0.373994
0.373806
0.373606
0.3734
0.37319
0.374959
0.374925
0.374891
0.374848
0.374797
0.374734
0.374649
0.374533
0.374384
0.374198
0.373977
0.373721
0.373434
0.373119
0.372783
0.372428
0.372062
0.371691
0.375061
0.375078
0.375058
0.374991
0.374879
0.374723
0.374518
0.374259
0.373943
0.373569
0.373138
0.372648
0.372105
0.371514
0.37088
0.370216
0.369534
0.368849
0.375266
0.375535
0.375737
0.3758
0.375741
0.375581
0.375323
0.374969
0.374518
0.373976
0.373352
0.372669
0.371968
0.371309
0.37076
0.370389
0.370284
0.370546
0.376321
0.378959
0.381581
0.383794
0.385787
0.387856
0.390356
0.393653
0.398064
0.403837
0.411177
0.420299
0.431468
0.445023
0.461372
0.480966
0.504396
0.532279
0.392961
0.422296
0.460617
0.509134
0.568659
0.639484
0.721749
0.815297
0.919571
1.0338
1.15737
1.29019
1.43304
1.58777
1.75684
1.94265
2.14905
2.37691
1.04512
1.68003
2.26237
2.83511
3.43807
4.09821
4.83241
5.65106
6.56013
7.56181
8.65448
9.83267
11.0872
12.4059
13.7739
15.1756
16.5929
18.0034
0.578764
0.578028
0.576227
0.573092
0.568294
0.561811
0.554184
0.546432
0.539649
0.53463
0.531815
0.531354
0.533197
0.53723
0.543337
0.551448
0.561538
0.573622
0.587749
0.604059
0.622833
0.644589
0.670669
0.705141
0.753933
0.820379
0.910526
1.03284
1.19795
1.42006
1.70999
2.04769
2.43385
2.85996
3.31215
3.77409
4.22865
4.65942
5.05181
5.39396
5.67696
5.89495
6.04897
6.16215
6.23795
6.27944
6.28915
6.26953
6.22292
6.15149
6.05722
5.94183
5.80682
5.65353
5.48299
5.30022
5.11613
4.93014
4.74219
4.55254
4.36162
4.16979
3.97729
3.78414
3.59084
3.39735
3.20464
3.01376
2.82571
2.6415
2.46212
2.28861
2.12206
1.96361
1.81457
1.67645
1.55116
1.44126
1.35049
1.28417
1.24907
1.25039
1.28338
1.33675
1.40394
1.48146
1.56802
1.66343
1.76718
1.87921
1.99973
2.12883
2.26606
2.41117
2.56432
2.72546
2.89443
3.07101
3.25493
3.44585
3.64334
3.84686
4.05579
4.26937
4.48671
4.7068
4.92852
5.15077
5.37244
5.59242
5.8095
6.02243
6.23002
6.43114
6.62483
6.81023
6.98672
7.15389
7.31155
7.45937
7.59662
7.72169
7.83592
7.94059
8.03672
8.12526
8.20693
8.28234
8.35207
8.41663
8.47658
8.53242
8.58469
8.63391
8.68057
8.72511
8.76794
8.80939
8.84974
8.88923
8.92798
8.96604
9.00336
9.03981
9.07518
9.10924
9.14171
9.17238
9.20103
9.22755
9.25186
9.27398
9.29398
9.31196
9.32808
9.3425
9.35538
9.36686
9.37707
9.38609
9.39394
9.40062
9.40606
9.41015
9.41271
9.41348
9.41215
9.40828
9.40135
9.39068
9.37538
9.3543
9.32592
9.28817
9.23835
9.17216
9.08546
8.96583
8.8186
8.56574
0.602814
0.600598
0.596888
0.591055
0.582856
0.572647
0.561496
0.550953
0.54262
0.537854
0.537555
0.542078
0.551537
0.566006
0.585584
0.610541
0.641347
0.6787
0.723676
0.777815
0.843339
0.92209
1.01421
1.119
1.23605
1.36746
1.51199
1.66711
1.82917
1.99357
2.15487
2.30724
2.44598
2.56679
2.66601
2.74086
2.7896
2.81168
2.80779
2.77982
2.73079
2.66462
2.58598
2.49999
2.40999
2.31883
2.22938
2.14452
2.06714
1.99996
1.94548
1.90583
1.88269
1.87723
1.88961
1.91448
1.93858
1.96081
1.98032
1.99624
2.00769
2.01391
2.01439
2.00917
1.99795
1.9837
1.96656
1.94621
1.92233
1.89466
1.86304
1.8274
1.78784
1.74459
1.69804
1.64875
1.59744
1.54498
1.49236
1.44067
1.39101
1.34744
1.31058
1.27732
1.24716
1.21955
1.19289
1.16605
1.14056
1.11637
1.09281
1.06885
1.0441
1.01918
0.995196
0.973284
0.954319
0.938815
0.926993
0.918889
0.914433
0.913507
0.915971
0.921681
0.930493
0.942276
0.956924
0.974343
0.994479
1.01721
1.04231
1.06953
1.09859
1.12922
1.16116
1.19414
1.2279
1.26219
1.2968
1.33154
1.36672
1.40371
1.44096
1.47745
1.51275
1.54662
1.57891
1.60954
1.63848
1.66577
1.69148
1.71573
1.73865
1.76041
1.78117
1.80111
1.8204
1.83917
1.85756
1.87572
1.89375
1.91177
1.92985
1.94802
1.96628
1.98458
2.00283
2.02089
2.03865
2.05594
2.07266
2.08868
2.10395
2.11841
2.13208
2.14496
2.15713
2.16865
2.17961
2.1901
2.20023
2.21008
2.21976
2.22936
2.23897
2.24869
2.25861
2.26887
2.27962
2.29106
2.30347
2.31724
2.33295
2.35141
2.37388
2.40235
2.44032
2.49489
2.58904
2.74479
0.653701
0.645923
0.638648
0.629829
0.619551
0.60864
0.598387
0.590229
0.585385
0.58463
0.588476
0.59743
0.611933
0.632413
0.659322
0.69314
0.734354
0.783386
0.840504
0.905683
0.978414
1.05802
1.14419
1.23558
1.33034
1.42613
1.5202
1.60968
1.69183
1.76436
1.8255
1.87414
1.90982
1.93256
1.94284
1.94149
1.92975
1.90922
1.88188
1.84995
1.81581
1.78183
1.75016
1.72258
1.7003
1.68417
1.6748
1.67249
1.67725
1.68876
1.70641
1.72929
1.75629
1.78616
1.81771
1.84949
1.88052
1.91005
1.93732
1.96164
1.98238
1.99889
2.01044
2.01832
2.02339
2.02554
2.02443
2.01966
2.01082
1.99754
1.97952
1.95657
1.92866
1.89588
1.85846
1.81672
1.77102
1.72168
1.66886
1.61242
1.55316
1.49787
1.44409
1.39229
1.34267
1.29517
1.24973
1.20632
1.16491
1.12542
1.08769
1.05148
1.01666
0.982228
0.948924
0.917219
0.887336
0.8594
0.833433
0.809376
0.787126
0.766555
0.747525
0.729904
0.713561
0.698345
0.68406
0.670487
0.657382
0.644609
0.632156
0.620076
0.608439
0.597312
0.586754
0.576815
0.567539
0.558956
0.551087
0.543948
0.53757
0.532027
0.527738
0.524647
0.522502
0.521108
0.520312
0.519979
0.520022
0.520382
0.52102
0.521907
0.523032
0.524408
0.526063
0.528027
0.530324
0.532971
0.535979
0.539354
0.543104
0.547242
0.551776
0.556708
0.562028
0.567711
0.573709
0.579955
0.586368
0.592857
0.599328
0.605691
0.611864
0.617782
0.623397
0.628684
0.633636
0.638264
0.642599
0.646681
0.65056
0.654295
0.657949
0.661591
0.665296
0.669144
0.673225
0.677642
0.682521
0.688025
0.694371
0.701855
0.710894
0.722092
0.736351
0.755066
0.780634
0.817205
0.876119
0.973236
0.726457
0.700633
0.68589
0.672598
0.659854
0.648383
0.639285
0.633632
0.632187
0.635381
0.643471
0.656669
0.675151
0.699036
0.728361
0.763075
0.803056
0.848107
0.89794
0.952121
1.01002
1.0708
1.13338
1.19647
1.2586
1.31828
1.37404
1.42467
1.46925
1.50727
1.53859
1.5634
1.58213
1.59537
1.60385
1.60836
1.60981
1.60912
1.60721
1.60493
1.60297
1.60182
1.60185
1.60334
1.60656
1.6119
1.61978
1.63063
1.64478
1.66234
1.68316
1.70682
1.73264
1.75975
1.78763
1.81564
1.84297
1.86895
1.89304
1.91484
1.93407
1.95048
1.96366
1.97478
1.98476
1.99338
2.00014
2.00436
2.0053
2.00221
1.99449
1.98171
1.96365
1.94031
1.91184
1.87847
1.84041
1.79778
1.75048
1.69872
1.64799
1.59643
1.54442
1.49264
1.44142
1.39094
1.34131
1.29278
1.24571
1.20036
1.15688
1.11535
1.07582
1.03839
1.00298
0.969487
0.937755
0.907864
0.879823
0.853576
0.829025
0.806039
0.784475
0.764181
0.745008
0.726801
0.709394
0.692623
0.676369
0.660549
0.645102
0.629989
0.615185
0.600683
0.586497
0.572651
0.559176
0.546104
0.533476
0.521334
0.50972
0.498681
0.488263
0.478495
0.469388
0.460939
0.453139
0.445983
0.439445
0.433491
0.428089
0.423214
0.41884
0.414935
0.411457
0.408368
0.405629
0.403208
0.401073
0.399195
0.397544
0.396092
0.39481
0.393673
0.392658
0.391745
0.39092
0.390172
0.389488
0.388858
0.388271
0.387716
0.387186
0.38667
0.386164
0.385662
0.385164
0.384671
0.384186
0.383716
0.38327
0.382856
0.382488
0.382181
0.381951
0.381817
0.381805
0.381944
0.382271
0.38284
0.383722
0.385021
0.386887
0.389545
0.393344
0.398849
0.407014
0.419624
0.440305
0.47595
0.809015
0.750088
0.726328
0.709225
0.69486
0.683292
0.675307
0.671811
0.673374
0.680174
0.692184
0.709296
0.731316
0.758002
0.789001
0.823865
0.862078
0.903082
0.9463
0.991143
1.037
1.08326
1.12926
1.17439
1.21803
1.25964
1.2988
1.33522
1.36877
1.39945
1.42736
1.45264
1.47547
1.49602
1.51442
1.53077
1.54509
1.55733
1.56734
1.57491
1.57989
1.58235
1.58269
1.58175
1.58071
1.58084
1.58331
1.58901
1.59848
1.61189
1.62899
1.64925
1.67186
1.69586
1.72038
1.74409
1.76605
1.78567
1.80268
1.8171
1.82932
1.83975
1.84891
1.85902
1.87039
1.88285
1.89575
1.90809
1.91856
1.92579
1.92855
1.92596
1.91756
1.9033
1.88347
1.8585
1.82877
1.79455
1.75618
1.71746
1.67693
1.6346
1.59087
1.54615
1.50072
1.45474
1.40843
1.36207
1.31605
1.27067
1.22624
1.183
1.14114
1.10076
1.06187
1.02447
0.98887
0.955218
0.923585
0.893969
0.866314
0.840524
0.81648
0.794039
0.773052
0.753361
0.734804
0.71722
0.700457
0.684382
0.668874
0.653828
0.63916
0.624816
0.610768
0.597001
0.58351
0.570312
0.557443
0.544948
0.532876
0.521272
0.510183
0.499645
0.489682
0.480308
0.471527
0.463334
0.455717
0.448655
0.442125
0.436098
0.430541
0.425422
0.420704
0.416351
0.412325
0.408587
0.405098
0.40182
0.398716
0.395747
0.392879
0.390082
0.387329
0.384601
0.381887
0.379185
0.3765
0.373845
0.371229
0.368662
0.366155
0.363717
0.36136
0.359091
0.356915
0.354839
0.352865
0.350995
0.349229
0.347567
0.346007
0.344548
0.34319
0.341931
0.340771
0.339712
0.338759
0.33792
0.337211
0.336656
0.336294
0.336189
0.336447
0.337253
0.338917
0.342078
0.347617
0.358121
0.893691
0.786873
0.752912
0.733683
0.719541
0.708995
0.702481
0.700982
0.705163
0.715179
0.730845
0.751777
0.777518
0.807575
0.841323
0.878062
0.917007
0.957359
0.998371
1.0394
1.07994
1.11962
1.15822
1.19563
1.23181
1.2668
1.30067
1.33349
1.36531
1.39611
1.42579
1.45416
1.48089
1.50555
1.52759
1.54632
1.56097
1.57079
1.57626
1.57753
1.57492
1.56908
1.56097
1.55174
1.54253
1.53575
1.5333
1.53605
1.54429
1.55782
1.57599
1.59779
1.6219
1.64685
1.67051
1.69099
1.70713
1.71839
1.72475
1.72626
1.72536
1.72416
1.72423
1.72708
1.73374
1.74466
1.75951
1.7771
1.79545
1.81219
1.82496
1.83192
1.83207
1.82515
1.81161
1.79228
1.76799
1.73978
1.71077
1.68026
1.64834
1.61521
1.58104
1.54594
1.50994
1.47301
1.43517
1.39646
1.35703
1.31706
1.27678
1.2364
1.19613
1.15599
1.1159
1.07645
1.03807
1.00107
0.965709
0.932154
0.900516
0.870848
0.843151
0.817384
0.793467
0.771291
0.75072
0.731603
0.713781
0.697091
0.681373
0.666476
0.652256
0.638584
0.625348
0.612451
0.599815
0.587414
0.575262
0.563393
0.551837
0.540642
0.529857
0.519528
0.509691
0.500369
0.491576
0.483314
0.475576
0.468349
0.461611
0.455341
0.44951
0.444086
0.439035
0.43432
0.429901
0.425738
0.42179
0.418019
0.414384
0.410845
0.407369
0.403931
0.400511
0.397096
0.393682
0.390272
0.386872
0.383495
0.380165
0.376902
0.373723
0.370642
0.367673
0.364828
0.362114
0.359539
0.357106
0.354815
0.352666
0.350657
0.348783
0.34704
0.345421
0.34392
0.342531
0.341247
0.340064
0.338978
0.337986
0.337092
0.336301
0.335631
0.335112
0.334805
0.334807
0.335338
0.336596
0.339492
0.974022
0.808673
0.763504
0.743397
0.731111
0.72325
0.719239
0.72012
0.726684
0.73926
0.757752
0.78179
0.81078
0.844034
0.880866
0.92044
0.96179
1.00395
1.04604
1.08733
1.12734
1.16582
1.20277
1.23835
1.27284
1.30653
1.33967
1.37241
1.40473
1.43639
1.46696
1.49572
1.52174
1.54382
1.56163
1.5746
1.58211
1.58397
1.58042
1.57207
1.55991
1.54526
1.52966
1.51472
1.50196
1.49329
1.49151
1.49718
1.51007
1.52936
1.55374
1.58147
1.61053
1.63861
1.66276
1.68064
1.69043
1.69226
1.68811
1.67867
1.66518
1.64954
1.6342
1.62195
1.61546
1.61665
1.62626
1.64353
1.66611
1.69041
1.71237
1.72848
1.73667
1.73602
1.72693
1.71071
1.68874
1.66465
1.63863
1.61153
1.58398
1.55636
1.52884
1.50142
1.47396
1.44627
1.41809
1.3892
1.3594
1.32861
1.29677
1.26389
1.23001
1.19498
1.15865
1.12147
1.08391
1.04643
1.00943
0.973281
0.938311
0.9048
0.87297
0.842987
0.814957
0.788931
0.764901
0.742817
0.722583
0.704073
0.687135
0.671595
0.65727
0.643968
0.631488
0.61965
0.608272
0.597225
0.586415
0.575798
0.565348
0.555107
0.545132
0.535479
0.526194
0.517313
0.508861
0.500851
0.493275
0.486132
0.479413
0.473105
0.467187
0.461636
0.456422
0.45151
0.446865
0.442449
0.438226
0.434157
0.430197
0.426299
0.422434
0.41858
0.414722
0.410854
0.406979
0.403106
0.399248
0.395424
0.39165
0.387957
0.384368
0.380901
0.377571
0.374389
0.371367
0.368511
0.365825
0.363308
0.360962
0.358781
0.356762
0.354897
0.353179
0.351601
0.350152
0.348824
0.347608
0.346496
0.34548
0.344556
0.34372
0.342975
0.342331
0.341812
0.341463
0.341381
0.341639
0.342602
1.04918
0.817539
0.759546
0.738903
0.72969
0.725392
0.72485
0.728677
0.73769
0.75239
0.772889
0.799009
0.830288
0.866033
0.905468
0.947745
0.991891
1.03682
1.08151
1.12511
1.16707
1.20717
1.24544
1.28216
1.31771
1.35247
1.38671
1.42047
1.45352
1.48529
1.51477
1.54116
1.56384
1.58176
1.59406
1.60004
1.59938
1.59226
1.5794
1.56202
1.54176
1.52054
1.50036
1.4831
1.47044
1.46355
1.46534
1.47618
1.49525
1.52112
1.55202
1.5858
1.62004
1.6521
1.67928
1.69822
1.70925
1.71257
1.70718
1.6925
1.66891
1.63812
1.60332
1.56905
1.54054
1.52235
1.51739
1.52633
1.54704
1.57497
1.60411
1.62846
1.64438
1.64981
1.64452
1.63058
1.6108
1.5869
1.56056
1.5332
1.50594
1.47953
1.45439
1.43064
1.4082
1.38678
1.36604
1.34556
1.32494
1.3038
1.28184
1.25879
1.2344
1.20842
1.18038
1.15027
1.11834
1.08494
1.05045
1.01528
0.979862
0.944651
0.910075
0.876539
0.844401
0.813962
0.785459
0.759053
0.734838
0.712834
0.692998
0.675233
0.659391
0.645285
0.632698
0.621384
0.611074
0.60148
0.592347
0.583483
0.574759
0.566112
0.557544
0.549086
0.540784
0.532686
0.524835
0.517268
0.510001
0.503055
0.496441
0.490163
0.484215
0.478583
0.473246
0.468178
0.463351
0.458736
0.454303
0.450018
0.445818
0.441628
0.437443
0.43325
0.429029
0.424775
0.420499
0.416216
0.411947
0.407715
0.403543
0.399457
0.39549
0.391663
0.387995
0.384498
0.381184
0.37806
0.375129
0.372394
0.369852
0.3675
0.365333
0.363344
0.361523
0.359861
0.358348
0.356973
0.355724
0.35459
0.353561
0.352627
0.351781
0.351019
0.350341
0.349758
0.349295
0.349012
0.34896
0.349346
1.11815
0.816979
0.744597
0.722667
0.716296
0.715952
0.719325
0.7265
0.738159
0.754879
0.776946
0.804402
0.837046
0.874363
0.915629
0.960041
1.00665
1.05435
1.10204
1.14874
1.19378
1.23684
1.27796
1.31737
1.35547
1.39261
1.42896
1.46443
1.49852
1.53021
1.55891
1.58396
1.6042
1.61844
1.62571
1.62541
1.61748
1.60249
1.58165
1.55673
1.52991
1.50355
1.47999
1.46126
1.44891
1.44388
1.44773
1.46125
1.48322
1.51198
1.54564
1.58213
1.61897
1.65498
1.68782
1.71383
1.73468
1.74826
1.752
1.74326
1.72015
1.68238
1.63222
1.57499
1.51927
1.47367
1.44496
1.43676
1.44799
1.47364
1.50607
1.53621
1.55851
1.56952
1.56838
1.55734
1.5385
1.51409
1.48626
1.45694
1.42771
1.39972
1.37373
1.35015
1.32904
1.31023
1.29339
1.2781
1.26386
1.25018
1.23659
1.22264
1.20788
1.19188
1.17418
1.15417
1.13167
1.10669
1.07932
1.04977
1.01835
0.985463
0.951583
0.917229
0.882949
0.849281
0.816734
0.785763
0.75675
0.729987
0.705672
0.683904
0.664691
0.647957
0.63355
0.621256
0.610808
0.601888
0.594127
0.5871
0.580523
0.574128
0.56773
0.561235
0.554624
0.547921
0.541176
0.534445
0.5278
0.521291
0.514957
0.508827
0.502918
0.497237
0.49178
0.486532
0.481474
0.476578
0.471819
0.467169
0.462597
0.458061
0.453554
0.449049
0.444482
0.439836
0.43515
0.430443
0.425734
0.421056
0.416443
0.411924
0.407528
0.403292
0.399234
0.39537
0.391711
0.388266
0.38504
0.382032
0.379243
0.376669
0.374303
0.372138
0.370165
0.368371
0.366746
0.365275
0.363947
0.362746
0.361659
0.360675
0.359781
0.358968
0.358231
0.357571
0.357002
0.356566
0.356315
0.356399
1.17876
0.81061
0.723128
0.699078
0.694752
0.697766
0.704711
0.715106
0.729367
0.748017
0.771429
0.79979
0.833129
0.871226
0.913539
0.959355
1.00784
1.05796
1.10852
1.15843
1.20691
1.25355
1.29828
1.34126
1.38279
1.42318
1.46255
1.50071
1.53699
1.57014
1.59977
1.62507
1.64468
1.65727
1.66176
1.65754
1.64467
1.62395
1.5969
1.56571
1.53296
1.5014
1.47357
1.45154
1.43669
1.42975
1.43104
1.44161
1.46016
1.48506
1.51467
1.54725
1.5808
1.6169
1.65285
1.68668
1.71905
1.74745
1.76829
1.77717
1.76936
1.74095
1.69055
1.62082
1.54243
1.46841
1.41105
1.37946
1.3747
1.39177
1.4221
1.45389
1.47948
1.4945
1.49741
1.48897
1.47115
1.44637
1.41711
1.38565
1.35393
1.32345
1.29527
1.27001
1.24796
1.22912
1.21326
1.20002
1.18896
1.17959
1.17141
1.16392
1.15662
1.14901
1.14056
1.13074
1.11884
1.10445
1.08729
1.06718
1.04407
1.01806
0.989414
0.958516
0.925886
0.89213
0.857918
0.823942
0.790878
0.759343
0.729874
0.702894
0.678702
0.65747
0.639244
0.623951
0.611419
0.601384
0.5935
0.587346
0.58239
0.57822
0.57446
0.570769
0.566915
0.562765
0.558268
0.553435
0.548311
0.542965
0.537471
0.5319
0.526313
0.520759
0.515268
0.509853
0.504509
0.499214
0.493938
0.488656
0.483394
0.4782
0.473046
0.467914
0.462771
0.457607
0.452438
0.44724
0.441986
0.436755
0.431593
0.426529
0.421594
0.416831
0.412271
0.40793
0.403821
0.399951
0.396328
0.392951
0.389821
0.386934
0.384283
0.381859
0.379653
0.37765
0.375838
0.3742
0.372722
0.371385
0.370175
0.369075
0.36807
0.367146
0.366291
0.3655
0.364778
0.364156
0.363683
0.363491
1.22782
0.800976
0.698768
0.671948
0.668748
0.674242
0.684044
0.697152
0.713681
0.734028
0.758566
0.787558
0.821163
0.859416
0.902069
0.948562
0.998175
1.05002
1.10302
1.15601
1.20804
1.25849
1.30716
1.35406
1.39944
1.44356
1.48655
1.52826
1.56811
1.60502
1.63746
1.66528
1.68703
1.70125
1.70663
1.70233
1.68821
1.66498
1.63423
1.5983
1.56006
1.52249
1.48829
1.45952
1.43748
1.42256
1.41551
1.41673
1.42458
1.43755
1.45469
1.4756
1.50041
1.53255
1.56866
1.60724
1.648
1.68898
1.72659
1.75603
1.77098
1.76445
1.73059
1.66588
1.57987
1.48733
1.40476
1.34975
1.32682
1.33164
1.35301
1.38133
1.40742
1.42475
1.43011
1.42339
1.40628
1.38123
1.35087
1.31775
1.28402
1.25141
1.22115
1.19402
1.17042
1.15046
1.13405
1.12092
1.11072
1.10304
1.09744
1.09347
1.09068
1.08862
1.0868
1.08472
1.08181
1.07742
1.07086
1.06164
1.04931
1.03351
1.01409
0.991045
0.964592
0.935134
0.903246
0.869651
0.835168
0.800659
0.766976
0.734909
0.705142
0.678215
0.654512
0.634248
0.617478
0.604106
0.593906
0.586533
0.581535
0.578343
0.576401
0.575287
0.574536
0.573749
0.572637
0.571019
0.56881
0.565996
0.562616
0.558739
0.554448
0.549829
0.54496
0.539903
0.5347
0.529362
0.52387
0.51819
0.512303
0.506213
0.499953
0.493596
0.48727
0.481034
0.474862
0.46874
0.462651
0.456656
0.450776
0.444979
0.439301
0.433814
0.428569
0.42357
0.418827
0.414357
0.41017
0.406268
0.402646
0.399302
0.396229
0.393419
0.390858
0.388532
0.386422
0.384511
0.382778
0.381207
0.379777
0.378471
0.377268
0.376149
0.375096
0.374096
0.373148
0.372273
0.371519
0.371009
1.26187
0.789343
0.673948
0.644155
0.641379
0.648517
0.660378
0.675536
0.693838
0.715532
0.740941
0.770342
0.803955
0.84194
0.884303
0.930687
0.980469
1.03296
1.08746
1.14312
1.19873
1.25333
1.30634
1.35745
1.40678
1.45462
1.50123
1.54664
1.59054
1.63214
1.67022
1.70319
1.73013
1.74974
1.76044
1.76099
1.75073
1.72985
1.69953
1.66185
1.61958
1.57583
1.5333
1.49362
1.45847
1.43089
1.41177
1.4001
1.39327
1.38864
1.38492
1.38429
1.39719
1.42262
1.46019
1.5014
1.54685
1.59522
1.6435
1.68737
1.72042
1.73461
1.72169
1.67626
1.6
1.50398
1.41274
1.3433
1.30224
1.28874
1.29778
1.32007
1.34301
1.35972
1.36544
1.35901
1.3418
1.3162
1.28493
1.25067
1.21571
1.18188
1.15045
1.12222
1.09763
1.07679
1.05965
1.04601
1.0356
1.02811
1.0232
1.02051
1.01972
1.02046
1.02237
1.02504
1.02805
1.03087
1.03291
1.03344
1.03171
1.02706
1.01885
1.00661
0.99006
0.969136
0.944049
0.91525
0.883423
0.849433
0.81428
0.779016
0.744679
0.712216
0.682437
0.655965
0.633222
0.61442
0.599575
0.588522
0.58094
0.576381
0.574296
0.574004
0.575084
0.577042
0.579353
0.581564
0.583334
0.58443
0.584724
0.584172
0.582788
0.580628
0.577769
0.574296
0.570287
0.565806
0.56089
0.555553
0.549783
0.543548
0.536832
0.529664
0.52213
0.514353
0.50648
0.498689
0.491132
0.483786
0.476651
0.469702
0.462969
0.456501
0.450313
0.444372
0.438688
0.433325
0.428308
0.423629
0.419274
0.41524
0.411528
0.408131
0.40503
0.402202
0.399622
0.397269
0.395124
0.393167
0.391377
0.389732
0.388206
0.386771
0.385403
0.384082
0.382802
0.381575
0.380447
0.379537
1.276
0.776141
0.649954
0.61745
0.614769
0.622983
0.636258
0.65286
0.672439
0.695118
0.721149
0.750796
0.784298
0.821852
0.863555
0.909059
0.9578
1.00952
1.06417
1.12131
1.18013
1.23934
1.29717
1.35312
1.40695
1.45867
1.5086
1.55709
1.60424
1.64975
1.69288
1.73251
1.76735
1.79569
1.81534
1.82516
1.82393
1.81107
1.78677
1.7521
1.7082
1.65849
1.60638
1.55485
1.50703
1.46578
1.43229
1.40571
1.38369
1.36356
1.34365
1.32798
1.3261
1.33879
1.36527
1.40375
1.45198
1.50298
1.55594
1.60739
1.65128
1.67966
1.6832
1.65423
1.58964
1.50489
1.4191
1.34715
1.29593
1.26662
1.25801
1.26648
1.28416
1.29805
1.30224
1.2946
1.27623
1.24956
1.21737
1.1824
1.14701
1.11299
1.08156
1.05345
1.02898
1.00821
0.991035
0.977251
0.966623
0.958903
0.953845
0.951219
0.950798
0.952359
0.955671
0.960483
0.966508
0.973406
0.980751
0.987998
0.994484
0.999445
1.00198
1.00118
0.99625
0.986601
0.971873
0.951994
0.927225
0.89814
0.865582
0.830612
0.794431
0.758289
0.723391
0.690812
0.661429
0.635886
0.614574
0.597634
0.58498
0.576336
0.57127
0.569234
0.569601
0.571815
0.575499
0.580148
0.585221
0.59024
0.594819
0.598681
0.601649
0.603627
0.604584
0.604536
0.603526
0.601607
0.59884
0.595277
0.590955
0.585889
0.580077
0.573523
0.566254
0.55831
0.549766
0.540769
0.531506
0.522167
0.512939
0.504031
0.495511
0.48737
0.479617
0.472269
0.465345
0.458877
0.452854
0.447216
0.44187
0.436856
0.432211
0.427939
0.42402
0.42041
0.417077
0.414008
0.411189
0.408607
0.406238
0.404054
0.402014
0.40008
0.398218
0.396405
0.394629
0.3929
0.391259
0.389819
1.26371
0.761021
0.627897
0.592992
0.590227
0.599227
0.613566
0.631253
0.651801
0.675243
0.701766
0.73158
0.764852
0.80163
0.841837
0.885286
0.93233
0.982727
1.03642
1.09338
1.15328
1.21533
1.27818
1.34029
1.39974
1.45659
1.51085
1.56276
1.61269
1.66094
1.70743
1.75163
1.79253
1.82863
1.85806
1.87896
1.88943
1.88792
1.87356
1.84633
1.8072
1.75863
1.7038
1.64622
1.58946
1.53658
1.48935
1.44799
1.41151
1.37863
1.34887
1.32621
1.31453
1.31528
1.32909
1.35583
1.39439
1.44216
1.49526
1.54848
1.59483
1.62706
1.63554
1.61417
1.56376
1.4942
1.41993
1.35245
1.29716
1.25627
1.23168
1.22366
1.22839
1.23753
1.23908
1.22896
1.20847
1.1802
1.14706
1.11182
1.07679
1.04365
1.01345
0.986731
0.963652
0.94413
0.927955
0.914869
0.904617
0.896974
0.891757
0.88882
0.888049
0.889348
0.892623
0.897768
0.904652
0.913099
0.922871
0.933636
0.944943
0.956199
0.96664
0.975355
0.981339
0.983554
0.980975
0.972773
0.95861
0.938526
0.912907
0.882525
0.848468
0.812028
0.774617
0.737659
0.702473
0.670186
0.641665
0.617477
0.5979
0.582939
0.572365
0.565765
0.562605
0.562299
0.564257
0.568039
0.573341
0.579744
0.586743
0.593879
0.60076
0.607075
0.6126
0.617187
0.620751
0.623249
0.624673
0.625031
0.624347
0.622643
0.619927
0.616186
0.61139
0.605527
0.598606
0.590674
0.58184
0.572267
0.56211
0.551575
0.540914
0.530376
0.520186
0.510567
0.50165
0.493365
0.485659
0.478477
0.471742
0.465475
0.459688
0.454365
0.449462
0.444866
0.440524
0.436474
0.432724
0.429262
0.426062
0.42308
0.420248
0.417524
0.414882
0.412304
0.409782
0.40732
0.404952
0.40278
1.22732
0.740519
0.605837
0.570021
0.567653
0.577621
0.593046
0.611736
0.633105
0.657124
0.683927
0.713637
0.746241
0.781612
0.81976
0.861221
0.90623
0.954794
1.00687
1.06256
1.12189
1.18459
1.24983
1.31636
1.38254
1.44686
1.50735
1.5646
1.61884
1.67042
1.71967
1.76675
1.81139
1.85272
1.88934
1.91944
1.9409
1.95166
1.95
1.93499
1.90671
1.86653
1.81687
1.76085
1.70189
1.64313
1.58693
1.53466
1.48685
1.44368
1.40579
1.37735
1.35905
1.35171
1.35605
1.37234
1.39998
1.43703
1.48012
1.52452
1.56416
1.59179
1.59973
1.58269
1.54141
1.48371
1.41991
1.35705
1.29845
1.24766
1.20948
1.18684
1.17803
1.1769
1.17469
1.16097
1.13758
1.1074
1.0735
1.03861
1.00487
0.973731
0.945962
0.921849
0.901331
0.884155
0.869991
0.858503
0.849397
0.842443
0.837481
0.834421
0.833227
0.833904
0.836477
0.840973
0.847402
0.855739
0.865908
0.87776
0.891053
0.905425
0.920363
0.935178
0.94899
0.96073
0.969193
0.973162
0.971556
0.963559
0.948635
0.926986
0.899349
0.866771
0.830625
0.79247
0.7539
0.716446
0.681441
0.649918
0.622639
0.600049
0.582242
0.56904
0.56006
0.554778
0.552607
0.553009
0.555468
0.559571
0.565113
0.571838
0.579399
0.587391
0.595469
0.603335
0.610747
0.617525
0.623538
0.6287
0.632957
0.63627
0.6386
0.6399
0.640104
0.639147
0.636968
0.633493
0.628651
0.62242
0.614876
0.606146
0.596406
0.585895
0.574904
0.563633
0.552299
0.541265
0.530755
0.520925
0.511913
0.503633
0.495992
0.488932
0.482404
0.476319
0.470639
0.465377
0.46052
0.456035
0.451879
0.447966
0.44412
0.440357
0.436679
0.43308
0.429552
0.426079
0.422684
0.419475
1.16608
0.711019
0.580415
0.545886
0.545088
0.556833
0.573929
0.594009
0.616408
0.641049
0.668004
0.697247
0.728626
0.762128
0.798354
0.837619
0.880267
0.926482
0.976291
1.02982
1.08734
1.14897
1.21442
1.28292
1.35326
1.42397
1.49335
1.56002
1.62175
1.67963
1.734
1.78513
1.83322
1.87816
1.91936
1.95563
1.98531
2.00646
2.01714
2.01585
2.00182
1.97533
1.93763
1.89088
1.83778
1.78116
1.72362
1.66728
1.6138
1.56455
1.5213
1.48688
1.46121
1.44561
1.44099
1.44758
1.46457
1.48995
1.52045
1.55172
1.57846
1.59449
1.59378
1.57288
1.53352
1.48165
1.42273
1.35918
1.29363
1.23226
1.18246
1.14826
1.12832
1.11717
1.10746
1.08949
1.06273
1.03076
0.99671
0.963156
0.931893
0.903967
0.879792
0.85934
0.84232
0.828321
0.816913
0.807702
0.800362
0.794655
0.790433
0.78763
0.786255
0.786377
0.788105
0.791567
0.79689
0.804183
0.813512
0.824886
0.838233
0.853387
0.870057
0.887813
0.906047
0.923946
0.940474
0.954381
0.964276
0.968764
0.966664
0.957214
0.940184
0.915817
0.885192
0.849819
0.811335
0.771555
0.732219
0.694793
0.660432
0.630043
0.604218
0.583216
0.566933
0.555013
0.546958
0.542203
0.540164
0.540343
0.542357
0.545811
0.550446
0.556133
0.562703
0.569992
0.577731
0.585684
0.593689
0.601599
0.609277
0.616604
0.623478
0.629804
0.635486
0.640408
0.644425
0.64738
0.649127
0.649518
0.648456
0.645871
0.641709
0.635953
0.628666
0.620051
0.610332
0.599745
0.588699
0.577587
0.566667
0.556035
0.545769
0.53596
0.526703
0.518138
0.510295
0.503068
0.496385
0.49018
0.484393
0.478939
0.473685
0.468631
0.463755
0.459027
0.454411
0.449786
0.445132
0.440611
1.09143
0.675388
0.553112
0.522072
0.524174
0.538682
0.55823
0.58029
0.604096
0.629505
0.656504
0.685003
0.71498