/*--------------------------------*- C++ -*----------------------------------*\
| =========                 |                                                 |
| \\      /  F ield         | OpenFOAM: The Open Source CFD Toolbox           |
|  \\    /   O peration     | Version:  2112                                  |
|   \\  /    A nd           | Website:  www.openfoam.com                      |
|    \\/     M anipulation  |                                                 |
\*---------------------------------------------------------------------------*/
FoamFile
{
    version     2.0;
    format      ascii;
    arch        "LSB;label=32;scalar=64";
    class       volScalarField;
    location    "0.26";
    object      omega;
}
// * * * * * * * * * * * * * * * * * * * * * * * * * * * * * * * * * * * * * //

dimensions      [0 0 -1 0 0 0 0];

internalField   nonuniform List<scalar> 
12225
(
52304.8
72146.3
78124
78988.2
78103.3
76678.6
75150.9
73618.3
72126.5
70706.3
69374.3
68134.9
66982.6
65894.2
64839.8
63862.1
62760.5
61375.5
4125.67
8502.51
12131.4
15015.7
17300.3
19167
20805
22347.3
23839.4
25288.3
26688.7
28028.3
29281.6
30426.4
31427.3
32244.1
32861.6
33112.8
226.699
830.707
1643.24
2392.03
3171.42
3939.53
4694.34
5457.13
6236.16
7037.77
7871.76
8751.25
9686.78
10687.9
11753.6
12876.8
14046.5
15244
73.8865
138.999
221.381
334.045
497.389
745.564
1026.05
1227.1
1443.31
1675.27
1923.46
2190.64
2484.82
2818.41
3203.44
3653.69
4180.4
4800.81
47.0992
71.2024
95.0124
119.319
146.389
180.942
221.761
268.552
322.397
385.07
468.49
573.073
698.724
799.441
888.895
993.999
1119.94
1272.94
36.6513
49.7271
62.1488
74.1769
86.0821
98.534
111.368
124.507
138.044
152.326
169.837
189.694
211.466
235.269
261.592
294.413
334.996
381.769
31.9288
40.1892
47.7873
55.1189
62.2396
69.3051
76.3043
83.2136
90.0358
96.8299
103.95
111.373
119.007
126.822
134.885
144.342
155.243
166.674
30.2212
35.339
40.5585
45.4402
50.1352
54.7328
59.2172
63.5978
67.8744
72.0631
76.2362
80.4183
84.6028
88.7817
92.9668
97.3097
101.873
106.483
30.1053
33.0034
36.5518
40.082
43.4575
46.6651
49.7467
52.7653
55.701
58.5573
61.354
64.1054
66.8179
69.495
72.144
74.7924
77.4532
80.0457
30.7903
32.3354
34.4863
36.9541
39.4655
41.892
44.2111
46.4187
48.5472
50.6115
52.6237
54.5917
56.5228
58.4249
60.3073
62.1787
64.0344
65.8016
31.8909
32.6734
33.8697
35.3852
37.0957
38.8961
40.6955
42.41
44.0548
45.6408
47.1761
48.667
50.117
51.5296
52.9075
54.2526
55.5606
56.7882
29.5917
29.9541
30.5485
31.353
32.3255
33.4214
34.5912
35.7746
36.9379
38.0663
39.1558
40.2066
41.2184
42.1886
43.1137
43.9917
44.8207
45.5825
33.6811
33.863
34.192
34.6701
35.2848
36.018
36.8465
37.7359
38.6508
39.5641
40.4595
41.328
42.1642
42.9624
43.7172
44.4254
45.085
45.6832
38.3765
38.4248
38.5645
38.7892
39.1058
39.5106
39.995
40.5444
41.1396
41.7606
42.3907
43.017
43.63
44.2218
44.7865
45.3203
44.7856
44.0171
43.7579
43.7114
43.7216
43.777
43.8834
44.0434
44.2554
44.5146
44.8134
45.1429
45.4935
44.9953
44.1394
43.2947
42.4567
41.6224
40.7895
39.9514
49.9151
49.8054
49.7282
49.6792
49.6554
49.6605
48.9517
47.6993
46.5033
45.3577
44.2569
43.1955
42.1684
41.1713
40.2007
39.2538
38.3279
37.4185
56.9506
56.1663
54.5323
52.9637
51.455
50.0042
48.6091
47.2671
45.9753
44.7307
43.5304
42.3714
41.2511
40.1669
39.1166
38.0981
37.1095
36.1479
57.8668
56.158
54.5122
52.9274
51.4007
49.9289
48.5098
47.141
45.82
44.5448
43.3131
42.1228
40.972
39.8586
38.781
37.7376
36.7266
35.7464
57.8682
56.1643
54.5275
52.9563
51.4463
49.9929
48.5941
47.2475
45.9507
44.7014
43.4971
42.3357
41.2147
40.1319
39.0853
38.0729
37.0926
36.1421
57.8795
56.213
54.6404
53.1564
51.7454
50.4013
49.1226
47.9062
46.7479
45.6432
44.5872
43.5748
42.601
41.6606
40.7493
39.8634
38.9997
38.154
54.9731
54.985
55.0025
53.7553
52.6017
51.5401
50.5649
49.6634
48.8226
48.0296
47.2726
46.5416
45.825
45.1072
44.3867
43.6627
42.9339
42.1967
50.2507
50.6045
51.2126
52.0019
52.9272
53.982
54.1393
53.8464
53.5506
53.2339
52.8857
52.4996
52.0695
51.5919
51.0744
50.5202
49.9304
49.3001
46.1894
47.3475
48.9378
50.7924
52.8258
54.9617
57.129
59.2595
61.3324
62.861
63.0396
63.096
63.0462
62.917
62.7118
62.4338
62.0849
61.6574
43.1285
46.023
49.451
53.1248
56.8828
60.6041
64.2109
67.7124
71.0968
74.364
77.5331
80.6199
83.6319
84.5365
85.0041
85.3257
85.5085
85.5425
42.0514
48.3913
55.1618
62.0114
68.7603
75.3274
81.6729
87.7891
93.6821
99.3932
105.063
110.732
116.386
122.006
127.584
133.116
136.815
138.339
45.491
58.7639
72.4925
86.1315
99.485
112.532
125.296
137.822
150.188
162.698
176.697
191.934
207.892
224.446
241.605
259.406
277.884
297.015
60.8956
91.9205
126.429
163.479
203.41
247.103
295.359
348.889
408.436
476.012
562.333
648.244
703.489
762.243
823.909
888.13
954.672
1023.28
131.712
272.738
514.74
855.656
1096.99
1355.14
1622.85
1896.67
2176.35
2462.51
2753.08
3047.24
3346.23
3649.1
3954.68
4262.21
4571.54
4883.21
1910.61
3959.1
5886.04
7569.64
9008.58
10231.2
11281.3
12207.5
13055.5
13855.4
14620.7
15357
16066.6
16750.5
17409.3
18044
18656.2
19245.4
34898.1
51342.1
58076.3
60444
60979.1
60766
60250.5
59618
58942.9
58248
57544.4
56839.7
56140.7
55454.7
54788.7
54149.2
53538.6
52961.6
60.1126
62.477
67.3256
74.2113
82.8683
93.0032
104.387
116.885
130.446
145.085
160.868
177.858
196.049
215.423
235.986
257.763
280.782
305.074
330.675
357.629
385.976
415.811
447.223
480.111
514.272
549.632
586.232
624.217
664.036
706.356
751.701
800.48
852.966
909.19
968.465
1030.38
1094.93
1162.04
1231.66
1303.76
1378.33
1455.36
1534.79
1616.6
1700.65
1786.46
1873.52
1961.49
2049.97
2138.82
2228.07
2317.64
2407.46
2497.46
2587.61
2677.91
2768.47
2859.55
2938.08
3000
3061.21
3121.4
3180.45
3238.28
3294.81
3349.98
3403.76
3456.1
3506.97
3556.33
3604.17
3650.43
3695.08
3738.06
3779.31
3818.79
3856.44
3892.26
3926.29
3958.51
3988.89
4017.4
4044.03
4068.79
4091.69
4112.77
4132.06
4149.62
4165.52
4179.87
4192.92
4205.09
4216.04
4225.1
4232.14
4237.05
4239.74
4240.43
4239.44
4236.78
4232.53
4226.71
4219.33
4210.41
4199.93
4187.86
4174.21
4159.02
4142.33
4124.21
4104.71
4083.86
4061.7
4038.24
4013.51
3987.55
3960.41
3932.22
3903.28
3874.19
3839.57
3771.74
3703.21
3633.81
3563.48
3492.08
3419.95
3347.52
3274.89
3202.25
3129.89
3058.05
2986.79
2915.97
2845.64
2776.23
2708.17
2641.44
2576.07
2512.03
2449.04
2386.71
2324.85
2263.51
2202.98
2143.04
2083.44
2023.84
1963.77
1902.79
1839.96
1774.89
1707.47
1637.53
1565.26
1491.1
1415.89
1339.95
1263.59
1187.06
1110.68
1034.89
960.213
887.285
816.785
749.488
686.203
627.726
574.827
528.223
488.585
456.604
433.395
419.089
411.79
411.001
417.172
430.012
447.665
471.727
64.7539
65.3512
68.5279
73.6115
80.2389
88.0264
96.6784
106.025
116.001
126.609
137.881
149.844
162.516
175.905
190.021
204.874
220.477
236.838
253.968
271.879
290.581
310.05
330.243
351.135
372.71
394.985
417.903
441.499
466.008
491.888
519.701
549.486
581.112
614.259
648.562
683.744
719.633
756.094
793.03
830.352
867.972
905.803
943.752
981.742
1019.7
1057.58
1095.38
1133.24
1171.33
1209.68
1247.89
1285.51
1322.38
1358.56
1394.02
1428.62
1462.18
1494.47
1525.24
1554.66
1583.36
1611.29
1638.33
1664.56
1690.04
1714.82
1738.89
1762.2
1784.68
1806.11
1826.4
1845.43
1863.15
1879.59
1894.84
1909.11
1922.72
1935.6
1947.31
1957.67
1966.89
1975.06
1982.31
1988.76
1994.39
1999.12
2002.96
2005.92
2008.17
2009.99
2011.58
2006.76
1995.47
1983.48
1970.79
1957.58
1944.16
1930.8
1917.36
1903.65
1889.39
1874.44
1858.79
1842.44
1825.49
1808.22
1790.81
1773.25
1755.38
1737.03
1718.01
1698.2
1677.51
1655.88
1633.35
1609.96
1585.77
1561.15
1536.42
1511.4
1485.5
1458.13
1430.24
1401.78
1372.76
1343.19
1313.2
1283.24
1253.71
1224.66
1196.03
1167.78
1139.88
1112.39
1085.3
1058.69
1032.62
1007.15
982.421
958.693
936.219
915.053
895.112
876.259
858.347
841.185
824.591
808.406
792.463
776.581
760.426
743.812
726.637
708.805
690.251
671.012
651.274
631.048
610.325
589.089
567.356
545.168
522.612
499.813
476.95
454.233
431.938
410.405
390.025
371.237
354.504
340.356
329.487
322.421
319.284
320.071
325.13
334.496
348.634
368.873
76.2665
72.1605
72.4735
75.4006
80.2388
86.3837
93.3922
101.014
109.144
117.754
126.851
136.449
146.561
157.192
168.342
180.011
192.195
204.885
218.072
231.752
245.924
260.585
275.745
291.445
307.725
324.476
341.69
359.446
377.895
397.283
417.862
439.408
461.657
484.328
507.162
529.963
552.601
574.975
597.014
618.65
639.826
660.485
680.575
700.057
718.906
737.104
754.665
771.556
787.74
803.178
817.833
831.682
844.796
857.297
869.286
880.789
891.773
902.268
912.341
922.123
931.538
940.607
949.35
957.752
965.746
973.277
980.341
986.839
992.739
998.042
1002.79
1007.02
1010.81
1014.23
1017.34
1020.19
1022.8
1025.12
1027.16
1028.94
1030.38
1031.52
1032.37
1032.93
1033.2
1033.14
1032.72
1031.93
1030.76
1029.19
1027.14
1021.52
1012.72
1003.84
994.895
985.935
977.193
968.472
959.743
950.978
942.102
933.059
923.809
914.331
904.602
894.722
884.732
874.649
864.447
854.066
843.476
832.673
821.706
810.635
799.44
788.091
776.579
764.919
753.102
741.076
728.777
716.209
703.542
690.9
678.284
665.646
652.97
640.281
627.595
614.903
602.192
589.559
577.166
565.11
553.399
542.028
530.994
520.305
509.995
500.104
490.673
481.718
473.269
465.421
458.292
451.915
446.202
441.012
436.189
431.57
426.964
422.231
417.291
412.114
406.716
401.178
395.611
390.007
384.292
378.357
372.108
365.481
358.436
350.963
343.093
334.879
326.417
317.854
309.389
301.273
293.814
287.389
282.46
279.42
278.572
280.127
284.284
291.178
301.363
316.126
93.9612
81.4104
77.5758
77.8279
80.8192
85.5542
91.353
97.835
104.826
112.263
120.129
128.419
137.132
146.26
155.791
165.711
176.001
186.644
197.625
208.939
220.588
232.584
244.957
257.673
270.727
284.164
297.966
312.15
326.79
342.082
357.895
374.001
390.169
406.185
421.878
437.115
451.805
465.873
479.263
491.928
503.832
514.95
525.272
534.811
543.594
551.666
559.081
565.889
572.144
577.891
583.182
588.063
592.579
596.766
600.644
604.222
607.504
610.5
613.227
615.688
617.867
619.777
621.421
622.809
623.941
624.831
625.48
625.891
626.096
626.118
625.993
625.76
625.443
625.065
624.639
624.182
623.7
623.192
622.669
622.105
621.5
620.845
620.135
619.357
618.501
617.537
616.44
615.198
613.8
612.237
610.482
606.784
601.37
596.039
590.806
585.798
580.82
575.828
570.805
565.74
560.619
555.425
550.146
544.783
539.358
533.876
528.351
522.792
517.185
511.514
505.774
499.964
494.083
488.142
482.141
476.09
469.998
463.863
457.683
451.456
445.211
439.001
432.853
426.749
420.669
414.614
408.597
402.639
396.776
391.026
385.351
379.708
374.077
368.478
362.947
357.537
352.331
347.393
342.731
338.333
334.167
330.204
326.444
322.91
319.644
316.672
314.01
311.686
309.719
308.059
306.595
305.211
303.822
302.382
300.879
299.347
297.842
296.392
294.995
293.632
292.254
290.795
289.178
287.338
285.239
282.866
280.232
277.385
274.412
271.451
268.669
266.282
264.543
263.623
263.92
265.561
268.682
273.429
280.278
290.143
118.603
92.9052
83.5385
80.6229
81.6756
85.1172
89.9419
95.5957
101.816
108.494
115.586
123.069
130.926
139.132
147.661
156.485
165.57
174.889
184.419
194.153
204.087
214.218
224.556
235.177
246.141
257.388
268.775
280.293
292.017
304.065
316.396
328.631
340.562
352.04
362.955
373.224
382.788
391.598
399.627
406.86
413.303
418.988
423.961
428.29
432.051
435.318
438.164
440.651
442.825
444.71
446.334
447.712
448.857
449.778
450.479
450.969
451.258
451.356
451.278
451.037
450.647
450.123
449.475
448.724
447.885
446.974
446.005
444.992
443.954
442.905
441.864
440.857
439.886
438.962
438.091
437.283
436.543
435.875
435.278
434.745
434.274
433.855
433.478
433.129
432.792
432.45
432.09
431.703
431.282
430.828
430.359
428.626
425.735
422.947
420.281
417.711
415.147
412.569
409.968
407.334
404.662
401.94
399.186
396.394
393.563
390.698
387.804
384.887
381.942
378.965
375.953
372.902
369.815
366.686
363.514
360.306
357.068
353.804
350.516
347.21
343.892
340.568
337.241
333.903
330.554
327.199
323.85
320.517
317.21
313.945
310.723
307.551
304.437
301.388
298.408
295.508
292.697
289.99
287.388
284.897
282.547
280.382
278.401
276.589
274.935
273.427
272.061
270.852
269.81
268.938
268.226
267.674
267.265
266.969
266.741
266.569
266.466
266.435
266.477
266.582
266.743
266.947
267.179
267.404
267.58
267.66
267.616
267.439
267.152
266.816
266.488
266.276
266.348
266.735
267.659
269.273
271.665
274.926
279.376
285.584
150.36
106.39
90.0796
83.5563
82.5971
84.8188
88.8103
93.811
99.4561
105.585
112.127
119.04
126.29
133.84
141.644
149.654
157.822
166.115
174.513
183.005
191.592
200.301
209.209
218.371
227.712
237.153
246.613
256.057
265.526
275.165
284.81
294.098
302.914
311.168
318.787
325.71
331.9
337.335
342.023
345.992
349.295
352.005
354.197
355.957
357.362
358.479
359.354
360.024
360.509
360.811
360.944
360.913
360.727
360.395
359.925
359.334
358.638
357.852
356.996
356.086
355.137
354.167
353.186
352.21
351.254
350.325
349.43
348.576
347.772
347.026
346.355
345.765
345.256
344.837
344.511
344.287
344.168
344.16
344.261
344.468
344.778
345.18
345.664
346.217
346.82
347.459
348.122
348.803
349.494
350.218
350.972
350.72
349.533
348.421
347.393
346.382
345.363
344.324
343.257
342.152
341.012
339.835
338.625
337.382
336.107
334.799
333.464
332.1
330.708
329.282
327.825
326.333
324.807
323.243
321.641
320.005
318.338
316.643
314.924
313.181
311.413
309.62
307.798
305.946
304.063
302.152
300.22
298.273
296.311
294.342
292.371
290.408
288.461
286.537
284.64
282.781
280.964
279.187
277.452
275.763
274.138
272.605
271.183
269.887
268.738
267.744
266.885
266.149
265.517
264.981
264.532
264.176
263.922
263.789
263.802
263.97
264.283
264.722
265.269
265.908
266.622
267.4
268.235
269.121
270.059
271.036
272.022
272.979
273.899
274.823
275.751
276.713
277.74
278.821
280.086
281.69
283.711
286.2
289.339
293.428
189.69
121.881
97.1628
86.6162
83.6084
84.6711
87.918
92.3609
97.5262
103.201
109.285
115.724
122.469
129.461
136.636
143.938
151.324
158.765
166.248
173.759
181.31
188.953
196.761
204.698
212.708
220.699
228.584
236.337
244.064
251.789
259.277
266.35
272.911
278.886
284.221
288.876
292.842
296.134
298.795
300.886
302.484
303.669
304.524
305.119
305.51
305.737
305.823
305.785
305.624
305.344
304.956
304.47
303.899
303.259
302.562
301.824
301.064
300.296
299.536
298.799
298.095
297.439
296.835
296.298
295.834
295.445
295.131
294.903
294.757
294.712
294.766
294.917
295.169
295.529
295.997
296.584
297.295
298.132
299.097
300.188
301.403
302.728
304.155
305.666
307.244
308.874
310.54
312.241
313.978
315.753
317.568
318.473
318.521
318.614
318.726
318.824
318.896
318.933
318.93
318.885
318.797
318.665
318.491
318.279
318.031
317.748
317.43
317.076
316.685
316.256
315.786
315.275
314.721
314.121
313.479
312.796
312.074
311.315
310.522
309.694
308.832
307.934
306.997
306.019
305.001
303.943
302.848
301.72
300.563
299.378
298.169
296.938
295.689
294.427
293.158
291.892
290.636
289.393
288.166
286.959
285.783
284.648
283.569
282.557
281.641
280.83
280.125
279.531
279.044
278.653
278.339
278.091
277.906
277.798
277.787
277.9
278.162
278.588
279.166
279.866
280.657
281.519
282.443
283.417
284.442
285.523
286.662
287.85
289.073
290.331
291.615
292.915
294.214
295.504
296.857
298.38
300.138
302.175
304.584
307.495
236.741
139.351
104.826
89.8659
84.7563
84.7084
87.2637
91.1939
95.9158
101.165
106.818
112.804
119.067
125.54
132.135
138.795
145.496
152.216
158.939
165.649
172.368
179.154
186.046
192.967
199.849
206.615
213.207
219.654
225.99
232.149
238.014
243.451
248.373
252.73
256.486
259.631
262.184
264.185
265.697
266.791
267.547
268.041
268.334
268.477
268.502
268.43
268.274
268.043
267.732
267.357
266.931
266.47
265.99
265.508
265.035
264.584
264.171
263.808
263.502
263.263
263.098
263.019
263.03
263.136
263.343
263.653
264.056
264.573
265.202
265.939
266.787
267.746
268.818
270.01
271.323
272.765
274.344
276.059
277.913
279.905
282.03
284.275
286.627
289.069
291.584
294.154
296.771
299.428
302.123
304.861
307.636
309.525
310.566
311.612
312.635
313.618
314.556
315.443
316.274
317.049
317.767
318.429
319.037
319.594
320.104
320.569
320.989
321.361
321.686
321.961
322.184
322.354
322.469
322.531
322.536
322.488
322.39
322.244
322.05
321.81
321.523
321.189
320.804
320.367
319.88
319.345
318.763
318.139
317.474
316.771
316.034
315.261
314.454
313.617
312.751
311.866
310.971
310.07
309.165
308.262
307.367
306.491
305.641
304.823
304.055
303.344
302.697
302.121
301.624
301.203
300.856
300.575
300.356
300.195
300.09
300.061
300.134
300.339
300.69
301.192
301.818
302.548
303.357
304.225
305.141
306.1
307.106
308.167
309.288
310.469
311.696
312.948
314.185
315.381
316.569
317.823
319.204
320.764
322.548
324.618
291.321
158.804
113.14
93.401
86.1015
84.9479
86.8383
90.27
94.5511
99.3703
104.582
110.105
115.878
121.838
127.898
133.983
140.067
146.146
152.208
158.248
164.284
170.362
176.465
182.504
188.43
194.195
199.778
205.184
210.392
215.362
220.012
224.237
227.984
231.219
233.928
236.121
237.831
239.112
240.028
240.654
241.058
241.298
241.418
241.452
241.424
241.345
241.224
241.069
240.881
240.678
240.477
240.292
240.141
240.04
239.996
240.018
240.114
240.292
240.555
240.911
241.364
241.924
242.603
243.396
244.309
245.357
246.532
247.833
249.259
250.809
252.484
254.282
256.206
258.259
260.443
262.765
265.231
267.841
270.597
273.496
276.533
279.693
282.961
286.32
289.753
293.246
296.789
300.374
303.998
307.662
311.359
314.149
316.065
317.932
319.748
321.503
323.19
324.804
326.343
327.805
329.193
330.507
331.752
332.93
334.045
335.101
336.095
337.029
337.901
338.71
339.454
340.131
340.741
341.285
341.762
342.173
342.52
342.804
343.027
343.186
343.284
343.318
343.29
343.2
343.048
342.839
342.576
342.262
341.898
341.488
341.036
340.542
340.009
339.437
338.826
338.181
337.512
336.819
336.11
335.387
334.657
333.926
333.2
332.487
331.797
331.139
330.51
329.917
329.368
328.866
328.412
328.008
327.657
327.354
327.089
326.879
326.736
326.679
326.724
326.886
327.165
327.559
328.057
328.641
329.289
329.99
330.733
331.519
332.354
333.244
334.188
335.173
336.16
337.112
338.035
338.977
339.985
341.107
342.365
343.796
353.04
180.316
122.216
97.3182
87.7027
85.3902
86.6021
89.5341
93.365
97.737
102.488
107.529
112.802
118.248
123.79
129.349
134.888
140.405
145.895
151.364
156.826
162.277
167.675
172.974
178.125
183.1
187.879
192.444
196.781
200.856
204.601
207.961
210.9
213.397
215.453
217.086
218.336
219.259
219.922
220.387
220.705
220.924
221.08
221.199
221.296
221.381
221.461
221.543
221.632
221.746
221.902
222.114
222.399
222.769
223.234
223.794
224.452
225.21
226.067
227.034
228.114
229.312
230.655
232.142
233.778
235.564
237.505
239.599
241.845
244.24
246.781
249.464
252.289
255.256
258.364
261.619
265.022
268.573
272.273
276.117
280.098
284.202
288.414
292.717
297.094
301.533
306.025
310.56
315.13
319.733
324.362
328.038
330.734
333.355
335.897
338.353
340.716
342.983
345.15
347.218
349.189
351.068
352.856
354.56
356.182
357.723
359.185
360.566
361.869
363.091
364.232
365.294
366.277
367.182
368.009
368.758
369.428
370.021
370.536
370.972
371.331
371.616
371.823
371.956
372.017
372.011
371.942
371.812
371.626
371.385
371.093
370.752
370.363
369.93
369.455
368.944
368.395
367.812
367.198
366.561
365.904
365.234
364.554
363.873
363.199
362.545
361.89
361.248
360.622
360.017
359.433
358.875
358.343
357.842
357.373
356.942
356.557
356.229
355.968
355.785
355.688
355.684
355.774
355.955
356.217
356.547
356.928
357.348
357.803
358.294
358.828
359.399
359.991
360.573
361.14
361.713
362.319
362.995
363.738
364.583
421.518
204.066
132.192
101.685
89.5855
86.0362
86.5199
88.923
92.2886
96.2013
100.478
105.027
109.793
114.726
119.768
124.846
129.902
134.928
139.927
144.902
149.845
154.737
159.546
164.232
168.762
173.106
177.242
181.158
184.839
188.252
191.364
194.142
196.563
198.614
200.301
201.646
202.694
203.5
204.125
204.612
205.009
205.356
205.682
206.007
206.342
206.697
207.075
207.48
207.926
208.431
209.013
209.684
210.459
211.348
212.355
213.482
214.725
216.083
217.553
219.143
220.87
222.742
224.77
226.966
229.337
231.89
234.627
237.548
240.652
243.937
247.398
251.027
254.822
258.778
262.892
267.163
271.589
276.166
280.891
285.757
290.754
295.87
301.09
306.396
311.778
317.224
322.725
328.268
333.844
339.445
345.062
349.594
353.032
356.36
359.574
362.672
365.647
368.497
371.223
373.826
376.311
378.68
380.938
383.087
385.131
387.069
388.902
390.632
392.261
393.792
395.226
396.565
397.813
398.972
400.043
401.024
401.915
402.716
403.426
404.044
404.571
405.011
405.368
405.636
405.82
405.925
405.959
405.922
405.819
405.652
405.425
405.139
404.796
404.4
403.955
403.477
402.953
402.388
401.787
401.156
400.498
399.815
399.113
398.397
397.673
396.946
396.213
395.475
394.736
393.995
393.256
392.521
391.794
391.077
390.375
389.692
389.036
388.415
387.837
387.31
386.843
386.44
386.109
385.852
385.666
385.547
385.483
385.463
385.478
385.522
385.591
385.686
385.799
385.92
386.043
386.178
386.334
386.537
386.761
387.047
496.818
230.325
143.172
106.516
91.7256
86.8473
86.5554
88.401
91.2838
94.7288
98.5313
102.595
106.864
111.297
115.854
120.479
125.108
129.709
134.278
138.815
143.309
147.732
152.049
156.231
160.259
164.108
167.758
171.194
174.404
177.372
180.079
182.505
184.633
186.456
187.984
189.239
190.266
191.121
191.854
192.498
193.094
193.678
194.273
194.894
195.553
196.253
197
197.794
198.663
199.622
200.693
201.89
203.225
204.702
206.32
208.071
209.95
211.964
214.112
216.403
218.847
221.459
224.253
227.245
230.442
233.853
237.482
241.328
245.392
249.669
254.152
258.833
263.703
268.757
273.984
279.38
284.936
290.644
296.494
302.476
308.579
314.788
321.093
327.483
333.953
340.497
347.099
353.748
360.435
367.142
373.777
379.111
383.233
387.2
391.01
394.662
398.154
401.488
404.666
407.696
410.586
413.338
415.957
418.446
420.808
423.037
425.132
427.099
428.944
430.669
432.283
433.787
435.188
436.49
437.693
438.797
439.801
440.705
441.508
442.208
442.808
443.311
443.73
444.046
444.264
444.394
444.44
444.407
444.299
444.118
443.867
443.551
443.173
442.733
442.236
441.689
441.092
440.451
439.774
439.064
438.325
437.556
436.763
435.948
435.113
434.258
433.385
432.494
431.589
430.669
429.735
428.789
427.833
426.868
425.9
424.934
423.976
423.034
422.114
421.225
420.373
419.564
418.801
418.087
417.422
416.807
416.24
415.716
415.226
414.765
414.328
413.91
413.505
413.105
412.716
412.344
411.995
411.684
411.372
411.105
579.697
259.296
155.204
111.807
94.1044
87.8027
86.6909
87.9589
90.3532
93.3361
96.68
100.281
104.081
108.046
112.143
116.337
120.577
124.811
129.015
133.182
137.296
141.332
145.261
149.056
152.697
156.174
159.479
162.596
165.516
168.228
170.721
172.982
175.001
176.771
178.307
179.634
180.793
181.836
182.804
183.732
184.651
185.588
186.565
187.594
188.684
189.838
191.055
192.353
193.763
195.305
196.999
198.86
200.897
203.111
205.497
208.041
210.734
213.574
216.563
219.716
223.052
226.589
230.34
234.324
238.549
243.022
247.746
252.72
257.942
263.406
269.101
275.014
281.133
287.444
293.935
300.59
307.395
314.332
321.386
328.544
335.796
343.136
350.567
358.099
365.733
373.456
381.261
389.135
397.077
404.88
412.408
418.464
423.136
427.59
431.828
435.857
439.678
443.301
446.734
449.992
453.087
456.023
458.807
461.445
463.954
466.31
468.502
470.548
472.455
474.23
475.881
477.413
478.832
480.143
481.346
482.442
483.429
484.306
485.074
485.733
486.283
486.727
487.072
487.314
487.457
487.504
487.462
487.332
487.119
486.826
486.459
486.023
485.521
484.959
484.339
483.666
482.937
482.156
481.326
480.453
479.54
478.594
477.617
476.608
475.57
474.504
473.412
472.297
471.157
469.993
468.804
467.588
466.345
465.077
463.791
462.49
461.185
459.882
458.589
457.312
456.056
454.824
453.618
452.439
451.287
450.164
449.07
448.003
446.96
445.94
444.941
443.958
442.984
442.016
441.054
440.108
439.182
438.295
437.395
436.543
671.211
291.283
168.392
117.595
96.7434
88.9253
86.9561
87.6373
89.5529
92.0985
95.0193
98.2
101.583
105.132
108.822
112.627
116.508
120.418
124.331
128.217
132.044
135.785
139.426
142.955
146.359
149.622
152.735
155.696
158.498
161.131
163.588
165.863
167.951
169.851
171.579
173.158
174.63
176.036
177.417
178.81
180.242
181.734
183.3
184.954
186.701
188.544
190.496
192.593
194.858
197.311
199.969
202.844
205.94
209.255
212.771
216.468
220.334
224.358
228.542
232.905
237.473
242.278
247.347
252.698
258.33
264.24
270.428
276.884
283.603
290.57
297.764
305.169
312.767
320.536
328.448
336.477
344.596
352.776
360.997
369.247
377.529
385.862
394.298
402.894
411.63
420.559
429.658
438.846
447.717
456.241
464.444
470.946
475.851
480.461
484.785
488.838
492.623
496.163
499.487
502.618
505.57
508.355
510.976
513.441
515.761
517.936
519.962
521.843
523.586
525.198
526.684
528.052
529.307
530.45
531.482
532.402
533.209
533.905
534.487
534.959
535.321
535.578
535.732
535.783
535.735
535.589
535.349
535.017
534.596
534.092
533.51
532.858
532.139
531.361
530.527
529.64
528.703
527.713
526.668
525.565
524.406
523.198
521.937
520.63
519.282
517.9
516.489
515.046
513.571
512.06
510.509
508.918
507.289
505.625
503.931
502.214
500.481
498.74
496.998
495.262
493.536
491.821
490.12
488.436
486.776
485.137
483.516
481.91
480.315
478.729
477.149
475.57
473.99
472.409
470.825
469.245
467.677
466.139
464.584
463.085
773.388
326.622
182.838
123.936
99.6995
90.286
87.44
87.5476
89.0206
91.1806
93.7428
96.5813
99.6325
102.86
106.234
109.736
113.344
117.012
120.709
124.413
128.084
131.677
135.181
138.598
141.936
145.188
148.344
151.382
154.292
157.079
159.732
162.259
164.666
166.96
169.165
171.311
173.431
175.562
177.754
180.027
182.394
184.874
187.481
190.235
193.158
196.292
199.721
203.41
207.345
211.534
215.99
220.714
225.702
230.932
236.368
241.955
247.676
253.535
259.534
265.693
272.041
278.611
285.43
292.547
299.925
307.541
315.408
323.519
331.873
340.475
349.291
358.295
367.458
376.753
386.131
395.545
404.947
414.287
423.528
432.66
441.709
450.738
459.809
468.979
478.583
488.581
498.452
507.914
516.959
525.585
533.814
540.094
544.569
548.708
552.521
556.019
559.179
562.057
564.716
567.192
569.505
571.668
573.686
575.562
577.304
578.912
580.388
581.737
582.966
584.082
585.09
585.996
586.802
587.508
588.114
588.615
589.014
589.308
589.499
589.59
589.581
589.477
589.277
588.983
588.596
588.115
587.541
586.877
586.123
585.287
584.378
583.401
582.365
581.277
580.143
578.965
577.747
576.482
575.167
573.791
572.347
570.842
569.286
567.67
565.994
564.259
562.465
560.619
558.718
556.759
554.744
552.677
550.561
548.405
546.211
543.984
541.727
539.45
537.159
534.86
532.558
530.256
527.96
525.673
523.408
521.165
518.941
516.736
514.545
512.364
510.187
508.012
505.831
503.632
501.416
499.183
496.939
494.71
492.447
490.252
894.767
367.507
199.319
131.189
103.208
92.0888
88.3493
87.9132
89.0079
90.8783
93.2027
95.8375
98.71
101.777
105.008
108.383
111.89
115.5
119.172
122.881
126.594
130.275
133.916
137.527
141.124
144.714
148.304
151.864
155.331
158.701
162.008
165.286
168.561
171.872
175.282
178.886
182.613
186.455
190.451
194.604
198.937
203.474
208.23
213.225
218.498
224.139
230.227
236.569
243.113
249.902
256.985
264.363
272.011
279.883
287.918
296.068
304.314
312.633
321.009
329.456
337.99
346.638
355.416
364.339
373.439
382.722
392.181
401.807
411.601
421.568
431.687
441.935
452.316
462.805
473.323
483.81
494.211
504.458
514.505
524.338
533.95
543.424
553.289
563.413
573.382
582.831
591.798
600.271
608.246
615.757
622.83
629.549
635.977
642.128
648.034
653.724
656.575
658.023
659.324
660.492
661.537
662.478
663.321
664.066
664.707
665.241
665.668
665.99
666.212
666.342
666.386
666.351
666.237
666.047
665.774
665.416
664.97
664.439
663.825
663.129
662.354
661.501
660.569
659.559
658.466
657.289
656.026
654.676
653.242
651.728
650.146
648.503
646.808
645.07
643.295
641.49
639.655
637.792
635.897
633.964
631.988
629.964
627.886
625.743
623.526
621.23
618.847
616.372
613.818
611.188
608.48
605.698
602.847
599.93
596.955
593.925
590.85
587.734
584.586
581.41
578.214
575.002
571.775
568.543
565.314
562.093
558.885
555.692
552.519
549.367
546.228
543.103
539.982
536.85
533.698
530.521
527.312
524.093
520.818
517.616
1025.56
408.607
215.513
138.492
107.109
94.5548
90.1657
89.4427
90.442
92.3353
94.7542
97.5019
100.561
103.884
107.438
111.158
115.009
119.012
123.202
127.604
132.089
136.524
140.927
145.361
149.898
154.628
159.669
164.685
169.651
174.682
179.859
185.21
190.801
196.692
203.027
209.933
217.046
224.369
231.984
239.803
247.897
256.282
264.947
273.868
282.994
292.201
301.459
310.872
320.529
330.491
340.76
351.301
362.046
372.899
383.774
394.638
405.428
416.075
426.562
436.91
447.159
457.362
467.565
477.812
488.123
498.494
508.904
519.31
529.701
540.07
550.439
560.811
571.214
581.606
591.924
602.134
612.231
622.134
631.732
641.175
650.594
660.143
669.343
678.106
686.266
693.836
700.914
705.695
707.978
709.837
711.281
712.339
713.054
713.486
713.685
713.716
713.684
713.605
713.487
713.343
713.175
712.97
712.719
712.417
712.061
711.649
711.178
710.648
710.063
709.428
708.745
708.016
707.24
706.418
705.545
704.623
703.649
702.622
701.544
700.416
699.242
698.024
696.758
695.439
694.063
692.625
691.121
689.55
687.911
686.214
684.463
682.662
680.816
678.93
677.01
675.062
673.09
671.098
669.085
667.057
665.02
662.971
660.905
658.804
656.648
654.427
652.132
649.752
647.281
644.715
642.058
639.31
636.476
633.557
630.557
627.482
624.342
621.142
617.887
614.579
611.217
607.817
604.391
600.948
597.492
594.03
590.567
587.103
583.643
580.186
576.735
573.29
569.848
566.404
562.95
559.478
555.978
552.464
548.876
545.358
1166.14
449.208
231.066
145.906
111.757
98.2731
93.7129
93.2246
94.7507
97.4708
101.076
104.163
108.249
112.856
117.987
123.301
128.714
134.522
141.016
147.68
154.301
160.916
167.705
174.804
182.346
190.578
199.621
208.444
217.414
226.756
236.578
246.983
258.059
269.573
281.544
293.71
306.223
319.139
332.413
345.95
359.684
373.548
387.464
401.366
415.21
428.979
442.752
456.641
470.714
484.871
499.011
513.015
526.74
540.037
552.791
564.927
576.421
587.277
597.536
607.278
616.599
625.615
634.447
643.235
651.988
660.682
669.288
677.707
686.007
694.265
702.535
710.806
719.014
727.151
735.177
743.069
750.921
758.052
761.75
765.131
768.263
771.158
773.548
775.451
776.931
778.032