/*--------------------------------*- C++ -*----------------------------------*\
| =========                 |                                                 |
| \\      /  F ield         | OpenFOAM: The Open Source CFD Toolbox           |
|  \\    /   O peration     | Version:  2112                                  |
|   \\  /    A nd           | Website:  www.openfoam.com                      |
|    \\/     M anipulation  |                                                 |
\*---------------------------------------------------------------------------*/
FoamFile
{
    version     2.0;
    format      ascii;
    arch        "LSB;label=32;scalar=64";
    class       volScalarField;
    location    "0.21";
    object      ddt0(omega);
}
// * * * * * * * * * * * * * * * * * * * * * * * * * * * * * * * * * * * * * //

dimensions      [0 0 -2 0 0 0 0];

internalField   nonuniform List<scalar> 
12225
(
0.649328
-6.50762
14.9851
-7.36484
20.8158
-16.4807
-244.498
352.673
-181.391
229.404
-196.226
-57.7911
954.784
-1133.54
53.0446
1028.91
650.827
-1170.27
86.9732
-155.061
-739.094
1129.66
-749.145
255.165
-623.415
612.916
3667.94
-10269.4
7426.12
20644.9
-50511.2
-21149.2
225514
-85466.3
-51847.2
11700.4
40.5576
26.9452
-1026.19
1821.94
-499.883
-2192.68
2685.53
-1427.01
2125.99
-1509.49
-8870.62
24481
-17049.3
-53153.8
106483
189751
-533361
-92578.5
31.3322
-29.0426
-440.15
951.718
-425.541
-957.292
1167.38
-188.218
933.108
-2541.44
-508.546
6599.25
-6810.37
-988.82
8703.8
34774.8
-107818
-33063.8
25.1681
-40.2422
-152.716
431.806
-281.398
-359.581
499.307
160.023
-49.611
-1142.24
442.793
2186.41
-493.839
-5294.77
2917.24
24878.5
-49404.1
-9511.87
14.7543
-28.8867
-43.4813
183.387
-161.806
-123.412
241.73
93.3225
-203.319
-411.767
445.543
1044.64
-1031.51
-2957.69
5755.86
6893.92
-24977.1
-1667.18
3.63099
-14.4864
-7.08577
73.5575
-84.872
-34.3333
116.201
23.4471
-141.852
-106.739
308.954
291.22
-858.897
-383.547
3182.95
-1706.86
-7976.22
2576.49
0.698155
-8.09966
2.34138
27.5366
-41.2623
-4.98013
52.1485
-3.23166
-69.9914
-4.98154
147.46
5.14753
-356.599
244.746
804.521
-1449.7
-1699.7
1624.38
0.0609743
-4.01374
3.12297
9.31168
-18.7047
2.27656
21.5456
-7.30666
-27.7708
13.1465
51.9465
-34.8633
-93.2132
153.551
81.6945
-546.074
-202.778
750.534
-0.0236935
-1.1636
1.63334
2.57892
-7.89967
2.7268
8.19787
-4.98805
-9.23978
9.17525
14.0619
-19.6602
-15.9672
49.0532
-25.7639
-146.531
37.972
274.825
-0.016977
-0.301553
0.868128
0.442231
-3.05224
1.79073
2.85458
-2.51013
-2.58887
4.08491
2.73111
-7.34224
-1.35125
10.3922
-16.4904
-27.2206
35.7513
78.8896
-0.00725819
-0.0768732
0.427708
-0.0439847
-1.16026
1.04103
1.00126
-1.18226
-0.69268
1.59083
0.249963
-2.58086
0.154523
1.71518
-5.67096
-2.69169
15.8592
19.8768
-0.00241877
-0.0156663
0.106997
-0.0318274
-0.370435
0.518581
0.335216
-0.483483
-0.182205
0.487289
-0.143908
-0.819237
0.0724306
0.165137
-1.17538
0.842798
4.81876
3.21577
-0.000592965
-0.00186462
0.0202086
-0.020983
-0.0863289
0.215243
0.105713
-0.166073
-0.062561
0.0922895
-0.109968
-0.23076
0.00335583
0.0251667
-0.0679213
0.483484
0.910131
-0.0518004
-0.000132074
2.89393e-05
0.0037891
0.00367786
-0.0189149
0.0711468
0.0300685
-0.05029
-0.0312057
-0.00495204
-0.0494827
-0.059256
-0.00247709
0.0179933
0.0299098
0.0929167
0.0440384
-0.214669
-0.00010922
4.69119e-05
0.000737553
0.00206889
-0.000212982
0.0193853
0.00715303
-0.0145767
-0.0156223
-0.0130742
-0.0185761
-0.0152269
-0.00251796
0.0028765
0.00104489
-0.00761715
-0.0373439
-0.0792731
-7.36211e-05
-0.000136059
4.70951e-05
0.000256954
0.000439927
0.00382699
0.000976593
-0.00445067
-0.00658161
-0.00696951
-0.00708188
-0.00567903
-0.00391852
-0.00446047
-0.00782321
-0.0135311
-0.0207021
-0.0263647
-3.05803e-05
-9.20471e-05
-0.000133199
-0.00018978
-0.000267036
-0.000199243
-0.000600317
-0.00210873
-0.00319278
-0.00380224
-0.00414828
-0.00438873
-0.00487033
-0.00598491
-0.00772258
-0.0098067
-0.0118839
-0.0136843
1.50235e-05
-7.29441e-06
-7.74547e-05
-0.0003453
-0.000506305
-0.000781681
-0.00133596
-0.00204344
-0.0026168
-0.00315356
-0.00374322
-0.00433064
-0.00494958
-0.00564191
-0.00640183
-0.00714597
-0.00782725
-0.0084764
5.19761e-05
1.6301e-05
-6.44017e-05
-0.000316928
-0.000589914
-0.000481044
-0.00149971
-0.00243004
-0.00218006
-0.00189951
-0.00233966
-0.00269286
-0.00243275
-0.00202604
-0.0017974
-0.00139212
-0.000583064
0.000342132
6.01218e-05
3.18011e-05
5.84546e-05
-0.00126895
-0.00063434
0.00201992
-0.000482829
-0.0036266
-0.000893549
0.00249138
0.00166433
0.00049886
0.00279753
0.00612012
0.00720432
0.00792751
0.0110459
0.0150422
3.73515e-05
-7.2308e-05
0.00213912
-0.00454987
-0.00348292
0.0106285
0.00442737
-0.0100881
-0.000233098
0.0156255
0.0120165
0.00226487
0.00864427
0.0248191
0.0273139
0.0199398
0.0260015
0.0415407
0.000188699
-0.000967947
0.0109477
-0.0116427
-0.0193344
0.0354483
0.0239178
-0.036291
-0.00912077
0.0538373
0.0457591
-0.00721411
-0.00474072
0.0712128
0.095838
0.0291861
0.0186144
0.0868226
0.00132763
-0.0086837
0.0398103
-0.0212767
-0.0805198
0.102549
0.0948576
-0.122575
-0.0607288
0.155132
0.172272
-0.0356539
-0.145321
0.157639
0.40698
0.0614761
-0.173493
0.106224
0.00586227
-0.0396335
0.116339
-0.0182079
-0.281761
0.282699
0.327986
-0.374563
-0.244752
0.365382
0.621883
0.053803
-0.843657
0.00213419
1.78437
0.608936
-1.28848
-0.429206
0.0226105
-0.132679
0.312251
0.0519237
-0.902028
0.784974
1.0129
-1.06701
-0.67089
0.523232
1.91724
1.47982
-3.16782
-2.98257
6.45173
5.93398
-5.40011
-4.69418
0.0691902
-0.392758
0.812967
0.354962
-2.72624
2.30086
2.72166
-2.96355
-0.507323
-0.856825
3.27869
10.8451
-4.74582
-21.3076
6.8075
42.5742
-4.74339
-26.7059
0.184097
-1.04746
2.06135
1.22446
-7.2879
7.12326
5.24689
-8.75238
9.57621
-5.47362
-17.7767
22.3197
60.3326
-7.93367
-186.511
126.11
225.387
-53.7097
0.238939
-1.09898
2.37412
2.22578
-6.68009
10.8125
2.27709
-23.5238
44.609
110.199
-89.404
-991.065
863.992
610.722
781.97
-3576.76
1543.04
1621.69
0.0287599
0.0686512
-0.0462587
-0.40861
0.186895
-0.54371
-0.770777
-1.42795
-1.733
-0.332832
2441.29
-8735.06
4863.67
1859.76
-241.784
125.147
-0.540339
-96.5438
-60.6781
-311.616
-418.413
-470.338
-499.034
-520.389
-547.109
-597.574
-672.512
-755.315
-818.425
-891.625
-985.575
-1131.63
-1217.9
-1218.57
-1149.64
-1016.88
-891.982
-706.321
-411.758
-124.795
-92.7222
-179.059
-256.177
-288.86
-314.462
-384.199
-532.391
-745.526
-756.447
-687.139
-594.566
-411.428
-304.365
-187.448
-150.21
-210.144
-2258.04
-3329.23
-3025.73
-2840.71
-2673.68
-2570.58
-2478.22
-2412.46
-2352.92
-2309.46
-2264.85
-2241.12
-2212.41
-2199.33
-2185.53
-2185.36
-2188.33
-2204.28
-2226.5
-2265.08
-2315.92
-2221.98
-2236.1
-2169.92
-2164.08
-2112.22
-2094.9
-2051.56
-2027.11
-1988.22
-1960.21
-1923.31
-1893.21
-1857.8
-1826.01
-1791.85
-1759.01
-1725.6
-1692.4
-1659.35
-1626.2
-1593.36
-1560.42
-1527.75
-1495.04
-1462.52
-1429.97
-1397.53
-1365.05
-1332.6
-1300.1
-1267.61
-1235.1
-1202.61
-1170.17
-1137.82
-1105.65
-1073.74
-1042.29
-1011.94
-984.136
-960.756
-943.196
-915.199
-888.021
-864.983
-837.297
-814.714
-788.88
-766.095
-741.919
-719.398
-696.507
-674.603
-652.817
-631.742
-611.025
-590.926
-571.309
-552.284
-533.803
-515.929
-498.684
-482.163
-466.466
-451.68
-437.778
-424.601
-418.373
-398.666
-387.409
-377.862
-356.526
-348.418
-336.122
-328.424
-321.339
-316.981
-314.866
-315.266
-315.644
-318.55
-324.326
-332.395
-343.63
-357.999
-375.872
-397.677
-424.004
-455.653
-492.792
-529.147
-561.52
-608.638
-662.155
-721.61
-787.929
-861.114
-941.321
-1028.89
-1124.39
-1228.73
-1342.99
-1468.22
-1605.03
-1753.5
-1913.2
-2083.45
-2263.33
-2451.06
-2646.32
-2848.3
-3057.43
-3275.17
-3501.81
-3732.48
-3986.09
-4211.14
-4515.25
-4882.67
-3003.38
-4014.02
-166.473
-1265.23
-2928.48
-2185.43
-802.757
-1440.96
-2939.33
-4175.83
-4719.59
-5154.84
-4393.31
-4101.87
-3598.67
-3260.45
-2891.49
-2790.85
-2686.61
-2642.68
-2720.46
-3180.9
-5119.09
-7397.43
-8765.99
-9096.12
-9190.75
-8408.71
-2945.49
-2707.69
-3153.06
-3740.48
-3188.07
-2746.43
-2595.21
-3925.26
-11630.6
-8164.75
-3289.26
-1670.98
-1156.04
-780.109
35.3562
-29.0517
83.6976
303.166
320.439
291.466
196.885
105.031
16.1943
-62.0756
-130.928
-200.074
-240.417
-263.591
-327.294
-340.555
-375.842
-388.546
-404.941
-403.909
-412.4
-407.832
-411.069
-405.528
-405.134
-399.813
-397.306
-392.059
-388.684
-383.557
-379.712
-374.93
-370.791
-366.346
-362.099
-357.839
-353.578
-349.358
-345.063
-340.771
-336.376
-331.933
-327.378
-322.747
-318.013
-313.211
-308.343
-303.457
-298.591
-293.81
-289.182
-284.806
-280.792
-277.295
-274.558
-273.034
-273.449
-276.65
-283.355
-295.131
-319.993
-298.051
-300.534
-291.245
-287.888
-282.097
-277.595
-272.925
-268.548
-264.441
-260.511
-256.902
-253.517
-250.461
-247.689
-245.265
-243.184
-241.488
-240.192
-239.335
-238.946
-239.063
-239.716
-240.928
-242.676
-244.867
-247.385
-248.857
-251.112
-251.008
-245.589
-254.628
-260.621
-269.397
-276.609
-288.057
-298.784
-310.155
-323.456
-338.193
-354.419
-372.155
-391.52
-412.566
-435.331
-459.769
-485.493
-510.938
-531.779
-577.496
-615.309
-653.635
-694.281
-737.397
-783.069
-831.334
-882.245
-935.875
-992.325
-1051.7
-1114.1
-1179.55
-1247.96
-1319.12
-1392.72
-1468.34
-1545.6
-1624.39
-1704.13
-1784.27
-1864.27
-1943.63
-2020.58
-2099.8
-2173.12
-2237.86
-2301.48
-2311.05
-2179.42
-2148.86
-101.232
-8112.41
-4942.83
-3765.53
-2556.64
-3721.11
-4583.02
-5745.15
-5056.47
-4637.91
-3948.93
-3316.02
-2813.92
-2420.05
-2161.13
-1989.3
-1910.64
-1939.12
-2048.34
-2302.74
-2835.98
-3801.41
-4698.69
-6143.73
-6427.25
-6447.13
-5849.62
-4667.1
-4461.81
-4783.67
-5064.3
-4966.09
-3949.69
-2223.05
-1892.48
-1228.92
-897.177
-511.722
-466.984
-47.477
165.229
285.155
303.447
215.617
117.922
33.0776
-41.4956
-97.6763
-144.47
-185.759
-210.188
-223.931
-240.606
-259.251
-271.606
-275.842
-282.071
-283.261
-284.613
-283.505
-282.824
-280.509
-278.835
-276.018
-273.739
-270.849
-268.294
-265.424
-262.827
-260.042
-257.465
-254.803
-252.252
-249.685
-247.152
-244.622
-242.08
-239.529
-236.944
-234.332
-231.679
-228.992
-226.27
-223.525
-220.767
-218.016
-215.294
-212.631
-210.058
-207.614
-205.339
-203.278
-201.479
-199.998
-198.911
-198.331
-198.387
-199.108
-200.217
-200.935
-200.784
-195.715
-194.53
-191.149
-189.187
-186.728
-184.719
-182.754
-181.005
-179.434
-178.056
-176.896
-175.954
-175.256
-174.81
-174.639
-174.757
-175.189
-175.956
-177.086
-178.609
-180.548
-182.904
-185.688
-188.883
-192.438
-196.277
-200.298
-204.781
-209.388
-214.432
-221.45
-226.984
-237.89
-245.679
-261.836
-273.52
-283.38
-297.205
-311.941
-327.817
-344.914
-363.277
-382.951
-403.967
-426.327
-449.955
-474.607
-500.119
-530.471
-563.071
-595.665
-629.892
-665.818
-703.485
-742.92
-784.14
-827.152
-871.951
-918.512
-966.784
-1016.69
-1068.11
-1120.87
-1174.77
-1229.47
-1284.4
-1340.05
-1396.09
-1451.81
-1506.72
-1560.33
-1612.04
-1662.45
-1708.71
-1750.29
-1786.34
-1795.92
-1790.07
-1758.02
-12.1599
-8607.47
-5211.46
-4406.7
-6535.88
-7046.51
-6513.52
-5611.54
-4629.19
-3493.82
-2595.56
-1999.65
-1671.39
-1363.64
-1187.37
-1113.91
-1081.75
-1188.34
-1265.3
-1435.45
-1757.98
-2326.47
-2981.05
-3864.9
-4689.74
-5075.9
-5121
-4482.58
-4136.35
-3884.99
-2315.64
-1090.86
-1132.17
-1118.09
-887.246
-608.018
-508.436
-337.313
-174.721
41.7612
74.5609
53.5261
-0.897774
-55.9985
-101.945
-138.809
-167.848
-192.242
-207.282
-215.575
-224.344
-235.116
-240.181
-242.987
-245.245
-245.599
-245.697
-244.676
-243.435
-241.704
-239.88
-237.796
-235.747
-233.547
-231.419
-229.238
-227.125
-225.004
-222.95
-220.899
-218.899
-216.904
-214.932
-212.956
-210.976
-208.979
-206.956
-204.902
-202.811
-200.683
-198.516
-196.317
-194.09
-191.845
-189.593
-187.35
-185.132
-182.959
-180.851
-178.827
-176.907
-175.107
-173.438
-171.91
-170.531
-169.307
-168.231
-167.239
-166.172
-164.808
-162.708
-160.271
-158.536
-156.478
-154.796
-153.106
-151.613
-150.236
-149.021
-147.967
-147.086
-146.392
-145.894
-145.607
-145.543
-145.718
-146.145
-146.842
-147.822
-149.106
-150.726
-152.734
-155.099
-157.833
-160.932
-164.383
-168.179
-172.344
-177.008
-182.414
-188.018
-194.447
-202.525
-210.345
-219.608
-230.842
-241.139
-251.807
-264.195
-277.567
-291.927
-307.342
-323.849
-341.49
-360.298
-380.299
-401.494
-423.871
-447.531
-473.328
-501.215
-529.929
-559.968
-591.434
-624.376
-658.823
-694.784
-732.248
-771.185
-811.54
-853.236
-896.182
-940.275
-985.398
-1031.41
-1078.1
-1125.06
-1171.67
-1219.34
-1266.75
-1313.53
-1359.48
-1403.83
-1446.45
-1485.9
-1522.62
-1555.23
-1573.5
-1587.84
-1580.24
-8.95669
-2794.69
-6531.59
-8882.8
-8098.12
-6856.98
-5322.8
-3662.7
-2012.91
-1141.53
-782.907
-616.323
-489.818
-542.362
-582.13
-617.832
-683.591
-727.464
-809.842
-949.169
-1143.24
-1488.46
-2006.57
-2740.25
-3087.84
-3040.52
-2528.12
-2422.67
-2308.58
-1823.78
-1292.83
-833.211
-556.975
-431.564
-736.432
-447.05
-404.757
-235.777
-133.544
-83.5568
-102.294
-122.661
-148.218
-170.242
-188.03
-204.191
-214.4
-221.183
-224.652
-229.352
-232.32
-234.456
-235.211
-235.117
-234.658
-233.661
-232.413
-230.856
-229.17
-227.36
-225.505
-223.607
-221.719
-219.826
-217.962
-216.114
-214.296
-212.497
-210.722
-208.954
-207.193
-205.426
-203.644
-201.838
-199.998
-198.116
-196.186
-194.203
-192.165
-190.074
-187.933
-185.748
-183.524
-181.273
-179.002
-176.726
-174.457
-172.21
-169.997
-167.831
-165.722
-163.674
-161.689
-159.761
-157.882
-156.039
-154.206
-152.337
-150.361
-148.329
-146.138
-144.001
-142.062
-140.138
-138.369
-136.686
-135.135
-133.705
-132.415
-131.271
-130.284
-129.464
-128.822
-128.369
-128.116
-128.078
-128.265
-128.691
-129.362
-130.277
-131.437
-133.01
-134.902
-137.122
-139.677
-142.571
-145.816
-149.426
-153.401
-158.704
-163.408
-169.317
-175.844
-183.042
-191.42
-200.412
-209.538
-219.304
-230.147
-241.912
-254.58
-268.196
-282.799
-298.427
-315.119
-332.91
-351.83
-371.916
-393.268
-416.164
-440.689
-466.348
-493.247
-521.474
-551.088
-582.124
-614.594
-648.487
-683.769
-720.385
-758.261
-797.313
-837.46
-878.621
-920.715
-963.681
-1007.58
-1052.67
-1096.97
-1141.13
-1184.98
-1228.69
-1270.98
-1311.81
-1349.76
-1386.58
-1419.97
-1448.63
-1468.43
-1477.58
-27.2367
-4085.81
-12467
-9265.47
-6838.39
-4095.66
-1908.96
-915.956
-824.027
-750.715
-705.164
-675.339
-653.912
-644.512
-637.238
-632.334
-634.921
-643.96
-666.854
-729.069
-857.728
-1076.29
-1261.71
-1516.76
-1899.44
-986.302
-800.783
-1441.69
-1713.06
-1463.36
-562.307
-793.448
-651.19
-612.256
-586.37
-415.286
-340.885
-237.129
-199.545
-189.135
-194.955
-201.571
-209.784
-217.046
-223.762
-228.149
-230.466
-233.093
-234.353
-235.418
-235.855
-235.801
-235.315
-234.488
-233.442
-232.185
-230.785
-229.263
-227.669
-226.026
-224.36
-222.681
-221.003
-219.329
-217.663
-216.003
-214.347
-212.689
-211.022
-209.338
-207.627
-205.88
-204.087
-202.24
-200.33
-198.351
-196.295
-194.16
-191.947
-189.661
-187.307
-184.894
-182.429
-179.921
-177.38
-174.818
-172.246
-169.678
-167.124
-164.592
-162.092
-159.627
-157.194
-154.79
-152.405
-150.031
-147.649
-145.229
-142.719
-140.292
-137.862
-135.503
-133.249
-131.066
-128.988
-127.006
-125.134
-123.376
-121.742
-120.242
-118.885
-117.681
-116.638
-115.767
-115.078
-114.583
-114.296
-114.229
-114.392
-114.77
-115.219
-116.156
-117.374
-118.887
-120.706
-122.847
-125.334
-128.196
-132.104
-134.987
-139.3
-144.085
-149.393
-155.355
-162.548
-169.855
-177.621
-186.042
-195.299
-205.39
-216.316
-228.115
-240.824
-254.483
-269.132
-284.812
-301.565
-319.447
-338.544
-358.995
-380.846
-403.898
-428.17
-453.746
-480.698
-509.068
-538.873
-570.11
-602.752
-636.756
-672.059
-708.592
-746.293
-785.11
-824.999
-865.941
-907.992
-950.76
-993.741
-1036.92
-1080.17
-1124.29
-1166.9
-1208.61
-1250.24
-1289.42
-1325.88
-1360.06
-1391.23
-1408.09
-31.3729
-16736.2
-12641.4
-6830.42
-2527.24
-1212.12
-941.095
-819.274
-769.766
-748.857
-737.951
-730.937
-723.327
-711.749
-695.624
-671.381
-652.326
-623.999
-589.899
-582.135
-609.867
-670.966
-818.845
-538.463
464.786
427.774
-681.677
-1370.82
-1512.71
-1254.64
-915.603
-803.227
-683.845
-598.335
-510.616
-397.54
-328.489
-272.714
-250.593
-240.382
-236.647
-235.331
-235.988
-236.847
-237.663
-238.769
-239.36
-239.969
-240.296
-240.462
-240.388
-240.087
-239.582
-238.89
-238.04
-237.046
-235.933
-234.721
-233.432
-232.084
-230.691
-229.26
-227.797
-226.305
-224.785
-223.234
-221.651
-220.029
-218.359
-216.634
-214.845
-212.984
-211.044
-209.016
-206.896
-204.679
-202.358
-199.924
-197.385
-194.749
-192.027
-189.231
-186.369
-183.45
-180.485
-177.485
-174.464
-171.435
-168.408
-165.39
-162.392
-159.418
-156.47
-153.543
-150.636
-147.748
-144.882
-142.04
-139.212
-136.344
-133.497
-130.713
-128.008
-125.382
-122.845
-120.401
-118.055
-115.815
-113.689
-111.687
-109.817
-108.088
-106.508
-105.085
-103.827
-102.747
-101.856
-101.174
-100.73
-100.598
-101.044
-101.341
-101.861
-102.645
-103.709
-105.069
-106.764
-108.903
-111.736
-113.723
-117.012
-120.694
-124.804
-129.24
-133.283
-138.967
-145.271
-152.2
-159.847
-168.246
-177.42
-187.402
-198.233
-209.953
-222.605
-236.231
-250.881
-266.617
-283.526
-301.717
-321.206
-341.896
-363.802
-387.022
-411.639
-437.705
-465.246
-494.264
-524.75
-556.673
-589.992
-624.653
-660.608
-697.832
-736.307
-776.021
-816.979
-858.87
-901.489
-944.665
-988.203
-1033.58
-1077.25
-1120.74
-1164.2
-1206.52
-1247.05
-1286.46
-1325.53
-1354.13
-120.145
-17609.8
-7979.71
-2319.81
-1314.99
-981.081
-866.935
-815.432
-789.955
-776.001
-765.327
-755.971
-744.837
-728.568
-702.213
-673.411
-629.608
-579.961
-548.146
-512.139
-450.118
-277.333
238.249
1335.13
1387.52
-101.51
-1021.51
-1481.79
-1595.41
-1170.26
-876.836
-763.238
-651.91
-557.564
-470.39
-388.829
-333.79
-296.124
-275.352
-262.501
-254.56
-249.415
-246.83
-245.87
-244.984
-244.895
-245.114
-245.545
-246.026
-246.482
-246.841
-247.065
-247.131
-247.026
-246.748
-246.302
-245.702
-244.962
-244.1
-243.131
-242.064
-240.906
-239.659
-238.323
-236.902
-235.397
-233.807
-232.132
-230.361
-228.481
-226.493
-224.392
-222.174
-219.834
-217.376
-214.801
-212.105
-209.251
-206.262
-203.15
-199.935
-196.634
-193.257
-189.812
-186.307
-182.757
-179.178
-175.586
-172
-168.403
-164.825
-161.272
-157.744
-154.239
-150.757
-147.306
-143.904
-140.599
-137.281
-133.874
-130.495
-127.179
-123.942
-120.79
-117.729
-114.763
-111.895
-109.129
-106.475
-103.94
-101.533
-99.2629
-97.1342
-95.1529
-93.3257
-91.661
-90.1697
-88.8647
-87.7603
-86.861
-86.0932
-85.5977
-85.3261
-85.2906
-85.5021
-85.9708
-86.6908
-88.0372
-89.5303
-90.8363
-92.8908
-95.389
-98.3118
-101.687
-105.756
-110.207
-115.192
-120.754
-126.958
-133.848
-141.456
-149.822
-158.984
-168.986
-179.869
-191.678
-204.464
-218.291
-233.253
-249.464
-266.93
-285.58
-305.443
-326.636
-349.252
-373.348
-398.957
-426.091
-454.755
-484.938
-516.619
-549.759
-584.324
-620.308
-657.714
-696.54
-736.775
-778.238
-820.797
-864.24
-908.182
-948.874
-993.635
-1039.24
-1085.17
-1130.77
-1175.39
-1219.57
-1263.86
-1300.25
-928.708
-9489.84
-1529.1
-1077.81
-943.976
-877.444
-836.807
-809.345
-789.317
-774.25
-764.417
-751.317
-734.293
-711.22
-686.451
-653.683
-606.105
-537.874
-442.009
-286.674
33.4094
716.35
1912.73
2063.25
329.455
-761.427
-1482.18
-1786.46
-1384.12
-998.925
-812.692
-705.042
-606.61
-520.712
-445.316
-382.07
-336.813
-305.534
-285.021
-271.148
-261.123
-255.411
-252.877
-250.599
-249.747
-249.86
-250.577
-251.67
-252.95
-254.281
-255.558
-256.704
-257.668
-258.414
-258.926
-259.201
-259.246
-259.077
-258.713
-258.172
-257.464
-256.592
-255.552
-254.332
-252.942
-251.391
-249.687
-247.844
-245.866
-243.68
-241.332
-238.828
-236.165
-233.344
-230.379
-227.295
-224.162
-220.76
-217.204
-213.497
-209.674
-205.762
-201.771
-197.704
-193.565
-189.368
-185.135
-180.883
-176.613
-172.431
-168.271
-164.133
-160.015
-155.912
-151.825
-147.758
-143.71
-139.675
-135.669
-131.667
-127.704
-123.806
-119.989
-116.262
-112.631
-109.096
-105.658
-102.319
-99.0855
-95.9673
-92.9735
-90.1106
-87.3829
-84.7929
-82.3444
-80.0427
-77.8953
-75.9107
-74.0971
-72.4574
-70.9826
-69.7159
-68.6519
-67.7972
-67.1606
-66.7578
-66.6018
-66.878
-67.1977
-67.6818
-68.6167
-69.9541
-71.6883
-73.8488
-76.512
-79.5969
-83.1593
-87.244
-91.9036
-97.1843
-103.126
-109.77
-117.159
-125.338
-134.35
-144.241
-155.059
-166.868
-179.768
-193.901
-209.267
-225.809
-243.574
-262.699
-283.283
-305.385
-329.04
-354.277
-381.114
-409.564
-439.632
-471.296
-504.533
-539.354
-575.784
-613.834
-653.499
-694.693
-737.335
-781.211
-826.08
-872.304
-918.949
-966.47
-1014.6
-1062.91
-1110.87
-1158.83
-1206.48
-1250.09
-1691.43
-1488.32
-828.316
-913.305
-897.432
-862.833
-830.211
-805.999
-782.892
-761.829
-742.39
-725.354
-709.972
-693.774
-666.427
-620.053
-542.104
-404.496
-151.335
323.041
1136.29
2124.4
2331.58
613.263
-542.501
-1422.68
-1758.8
-1522.81
-1122.13
-877.992
-745.698
-649.721
-564.915
-490.548
-426.614
-374.526
-335.625
-307.62
-287.702
-273.212
-266.68
-261.467
-256.53
-254.776
-254.657
-255.639
-257.372
-259.584
-262.052
-264.598
-267.079
-269.389
-271.449
-273.207
-274.632
-275.718
-276.47
-276.896
-277.033
-276.908
-276.536
-275.927
-275.079
-273.887
-272.401
-270.641
-268.621
-266.395
-264.147
-261.391
-258.424
-255.27
-251.925
-248.378
-244.648
-240.702
-236.341
-232.434
-228.442
-224.229
-219.871
-215.42
-210.885
-206.252
-201.516
-196.692
-191.813
-186.916
-182.044
-177.082
-172.136
-167.224
-162.345
-157.489
-152.657
-147.853
-143.072
-138.283
-133.6
-128.962
-124.378
-119.865
-115.442
-111.119
-106.904
-102.792
-98.7795
-94.8653
-91.0546
-87.3572
-83.7831
-80.3392
-77.0274
-73.8474
-70.7993
-67.8856
-65.1104
-62.4784
-59.9971
-57.6724
-55.5084
-53.5184
-51.7071
-50.0797
-48.6399
-47.4138
-46.3703
-45.6285
-44.9922
-44.5599
-44.4535
-44.6906
-45.2776
-46.2345
-47.5963
-49.3534
-51.5369
-54.1861
-57.3471
-61.0657
-65.3853
-70.3502
-76.0061
-82.3998
-89.5781
-97.5865
-106.47
-116.285
-127.134
-139.192
-152.451
-166.894
-182.577
-199.65
-218.205
-238.299
-259.971
-283.262
-308.21
-334.852
-363.223
-393.318
-425.128
-458.68
-494.021
-531.176
-570.155
-610.938
-653.497
-697.626
-743.149
-790.206
-838.398
-887.729
-937.981
-988.861
-1039.93
-1091.43
-1142.73
-1192.99
-1935.8
32.4721
-802.592
-934.354
-905.7
-864.083
-826.843
-790
-757.897
-729.469
-707.926
-688.755
-659.028
-629.327
-565.439
-455.585
-271.299
35.9936
547.742
1286.29
2071.78
2241.48
719.155
-387.406
-1332.34
-1647.32
-1532.25
-1215.1
-949.114
-790.672
-687.068
-603.996
-531.062
-467.063
-412.35
-367.774
-333.501
-308.14
-288.173
-275.623
-269.587
-264.058
-261.209
-260.604
-261.625
-263.848
-266.923
-270.55
-274.476
-278.478
-282.362
-285.99
-289.258
-292.09
-294.448
-296.333
-297.769
-298.672
-299.166
-299.304
-299.099
-298.598
-298.043
-296.655
-294.833
-292.587
-289.853
-286.492
-282.049
-278.555
-275.005
-271.254
-267.302
-263.059
-258.674
-254.277
-250.033
-245.416
-240.694
-235.517
-230.201
-224.854
-219.477
-214.012
-208.418
-202.706
-196.922
-191.12
-185.319
-179.583
-173.9
-168.261
-162.656
-157.077
-151.531
-146.032
-140.588
-135.196
-129.872
-124.606
-119.405
-114.285
-109.268
-104.37
-99.5968
-94.9423
-90.395
-85.9485
-81.6056
-77.3767
-73.2739
-69.304
-65.4672
-61.7601
-58.1794
-54.7246
-51.397
-48.1963
-45.1298
-42.2069
-39.4341
-36.8084
-34.3402
-32.0349
-29.8779
-27.9149
-26.049
-24.4957
-22.9927
-21.6951
-20.6536
-19.8968
-19.4352
-19.2835
-19.4667
-19.999
-20.9046
-22.2177
-23.98
-26.2357
-29.0297
-32.4082
-36.4196
-41.1134
-46.5393
-52.7449
-59.7723
-67.6648
-76.5165
-86.535
-97.6811
-110.054
-123.693
-138.742
-155.27
-173.325
-192.955
-214.215
-237.164
-261.863
-288.381
-316.726
-346.916
-378.99
-413.013
-449.023
-487.048
-527.116
-569.259
-613.279
-659.059
-706.638
-755.814
-806.429
-858.275
-911.133
-964.648
-1019.03
-1073.63
-1129.17
-1997.24
-231.856
-948.032
-972.305
-914.292
-861.647
-813.602
-767.637
-721.354
-673.037
-626.641
-580.868
-506.268
-439.434
-286.428
-67.955
250.679
718.539
1307.65
1817.7
1802.75
863.17
-306.655
-1237.24
-1505.03
-1461.91
-1242.43
-1009.18
-839.807
-726.581
-641.579
-569.902
-506.717
-451.2
-403.673
-364.637
-334.055
-308.795
-291.76
-282.485
-275.1
-270.929
-269.458
-270.156
-272.557
-276.257
-280.896
-286.158
-291.775
-297.49
-302.918
-307.929
-312.399
-316.211
-319.29
-321.694
-323.847
-324.715
-325.092
-325.067
-324.507
-323.09
-320
-318.243
-316.344
-313.964
-311
-307.578
-304.133
-299.469
-294.264
-288.769
-283.333
-277.257
-271.143
-265.241
-259.581
-253.816
-247.623
-241.452
-235.309
-229.303
-223.393
-217.398
-211.193
-204.775
-198.226
-191.646
-185.106
-178.64
-172.27
-165.93
-159.612
-153.315
-147.066
-140.897
-134.823
-128.84
-122.939
-117.108
-111.354
-105.696
-100.159
-94.7625
-89.5168
-84.411
-79.4254
-74.5461
-69.7722
-65.1145
-60.5882
-56.1998
-51.9479
-47.8269
-43.8304
-39.9557
-36.2025
-32.5596
-29.0358
-25.6449
-22.3999
-19.2689
-16.2784
-13.4475
-10.6962
-8.15768
-5.64949
-3.39359
-1.19188
0.82965
2.65354
4.24831
5.60414
6.70863
7.53493
8.0651
8.27753
8.14156
7.61946
6.66905
5.24564
3.30199
0.788092
-2.34813
-6.15989
-10.6988
-16.0075
-22.1156
-29.0984
-37.176
-46.2215
-56.618
-68.3156
-81.4083
-95.9314
-111.928
-129.461
-148.604
-169.437
-192.044
-216.529
-242.905
-271.24
-301.579
-333.996
-368.539
-405.253
-444.204
-485.486
-528.909
-574.447
-622.03
-671.521
-722.715
-775.427
-829.501
-884.652
-941.069
-998.182
-1057.68
-1969.43
-873.332
-1064.47
-998.129
-917.271
-850.865
-787.275
-709.421
-615.982
-530.27
-456.732
-354.693
-272.69
-85.0058
155.589
465.264
857.465
1266.04
1524.84
1410.71
717.353
-232.97
-1128.86
-1357.9
-1355.44
-1216.62
-1039.65
-885.808
-770.253
-682.749
-611.012
-548.576
-493.125
-444.217
-402.086
-367.011
-338.879
-316.204
-303.088
-292.736
-286.49
-283.651
-283.638
-285.784
-289.685
-294.957
-301.23
-308.183
-315.631
-323.805
-330.727
-336.974
-342.444
-346.878
-349.921
-351.023
-349.093
-348.917
-349.131
-349.276
-349.074
-348.455
-347.877
-345.809
-342.935
-339.317
-334.629
-329.164
-323.52
-315.965
-307.463
-298.372
-288.741
-279.71
-271.267
-263.676
-257.079
-251.112
-244.626
-237.777
-231.042
-224.776
-218.919
-212.947
-206.547
-199.703
-192.568
-185.34
-178.164
-171.117
-164.31
-157.41
-150.471
-143.548
-136.699
-129.977
-123.407
-116.974
-110.652
-104.421
-98.2825
-92.2548
-86.364
-80.6378
-75.0898
-69.7068
-64.4601
-59.3263
-54.2987
-49.3881
-44.6151
-39.9824
-35.4865
-31.1248
-26.8874
-22.7703
-18.7793
-14.8723
-11.0682
-7.38584
-3.8707
-0.40187
2.93776
6.06035
9.27079
12.1196
15.1441
17.8887
20.5687
23.129
25.5365
27.7668
29.8122
31.6611
33.2768
34.6536
35.769
36.5953
37.0979
37.2372
36.97
36.2493
35.0248
33.2424
30.8455
27.7762
23.9861
19.4502
14.111
7.77899
0.777077
-7.8479
-17.7926
-29.044
-41.6126
-55.5571
-70.9637
-87.9316
-106.562
-126.957
-149.25
-173.436
-199.694
-228.044
-258.558
-291.291
-326.304
-363.693
-403.607
-445.875
-490.613
-537.552
-586.582
-637.523
-690.248
-744.665
-800.531
-858.05
-916.66
-978.824
-1923.49
-941.172
-1096.2
-1012.34
-923.843
-823.517
-695.374
-561.364
-438.142
-328.984
-207.472
-123.816
71.4846
299.605
560.828
848.392
1095.89
1181.95
965.769
433.673
-314.564
-1072.24
-1212.7
-1239.97
-1162.9
-1042.55
-920.571
-815.611
-729.754
-658.206
-596.153
-540.936
-491.547
-447.853
-410.09
-378.606
-351.741
-334.417
-320.461
-311.273
-306.219
-304.876
-307.351
-310.748
-315.806
-322.321
-329.834
-337.74
-345.098
-349.888
-357.581
-365.433
-372.544
-378.41
-382.557
-384.514
-384.815
-381.935
-380.074
-378.673
-377.015
-374.75
-371.687
-367.122
-361.432
-355.413
-346.681
-336.14
-323.663
-310.911
-297.587
-283.899
-270.42
-257.753
-246.388
-237.003
-230.447
-227.047
-221.434
-214.53
-207.852
-202.418
-198.299
-193.774
-188.196
-181.635
-174.431
-166.945
-159.444
-152.125
-145.574
-138.426
-131.107
-123.835
-116.696
-109.745
-103.006
-96.4576
-90.055
-83.764
-77.5762
-71.5065
-65.5806
-59.8312
-54.2801
-48.9156
-43.7016
-38.6027
-33.6025
-28.7114
-23.9653
-19.3474
-14.8524
-10.4963
-6.26206
-2.14107
1.81999
5.76304
9.61828
13.3786
16.8607
20.4875
23.9908
27.0077
30.5186
33.6103
36.7291
39.7394
42.6832
45.5434
48.294
50.9179
53.409
55.7382
57.8849
59.8482
61.6057
63.1318
64.3948
65.3577
65.9796
66.2156
66.0158
65.3258
64.0864
62.2332
59.7065
56.4709
52.467
47.5515
42.3488
35.1428
26.7199
17.1869
6.50806
-5.41931
-18.7146
-33.5022
-49.9015
-68.0302
-88.0329
-109.855
-133.874
-160.031
-188.377
-218.982
-251.921
-287.31
-325.334
-365.868
-409.23
-454.786
-502.503
-552.3
-604.135
-657.977
-713.602
-771.234
-830.248
-893.772
-1764.55
-1000.37
-1151.91
-1033.87
-863.075
-725.825
-564.857
-418.319
-293.734
-127.774
5.4927
99.149
311.462
481.975
629.203
703.878
640.554
375.326
78.2286
-560.972
-1052.43
-1112.8
-1138.16
-1104.89
-1031.46
-943.826
-857.895
-780.421
-712.293
-651.748
-597.282
-548.086
-504.104
-465.381
-430.98
-407.814
-384.464
-366.695
-353.439
-344.349
-338.716
-335.362
-331.798
-334.779
-341.02
-349.356
-359.069
-369.598
-380.657
-392.987
-403.808
-413.606
-422.012
-428.616
-432.771
-432.162
-424.939
-406.795
-399.02
-393.375
-387.286
-380.111
-371.262
-360.606
-348.122
-333.104
-317.8
-301.315
-283.447
-264.565
-244.839
-224.739
-206.547
-190.275
-176.151
-165.104
-159.882
-169.895
-166.748
-160.147
-154.32
-151.613
-153.407
-152.975
-149.816
-144.645
-138.264
-131.307
-124.141
-116.869
-109.953
-102.823
-95.4711
-88.2776
-81.3374
-74.6871
-68.349
-62.2732
-56.3664
-50.5605
-44.8374
-39.2154
-33.7156
-28.3865
-23.28
-18.3853
-13.644
-8.99815
-4.41583
0.0952557
4.43614
8.69257
12.8702
16.8915
20.8072
24.6553
28.2054
31.9471
35.5739
39.2234
42.1629
45.8496
49.0643
52.1338
55.3159
58.3836
61.4191
64.4022
67.3491
70.2487
73.0866
75.8497
78.499
81.0145
83.4165
85.685
87.7998
89.7369
91.4662
92.9525
94.1572
95.0374
95.5441
95.622
95.2098
94.2351
92.6241
90.3306
87.3372
83.362
77.626
71.3888
64.4022
56.5409
47.6927
37.7128
26.4572
13.7849
-0.436055
-16.337
-34.0528
-53.4657
-75.1871
-99.0101
-124.981
-153.195
-183.745
-216.754
-252.398
-290.65
-332.045
-375.414
-420.948
-468.739
-518.817
-571.207
-625.66
-682.436
-740.764
-804.362
-1611.74
-1063.42
-1177.15
-998.068
-822.056
-675.789
-500.952
-345.401
-182.897
-71.1036