/*--------------------------------*- C++ -*----------------------------------*\
| =========                 |                                                 |
| \\      /  F ield         | OpenFOAM: The Open Source CFD Toolbox           |
|  \\    /   O peration     | Version:  2112                                  |
|   \\  /    A nd           | Website:  www.openfoam.com                      |
|    \\/     M anipulation  |                                                 |
\*---------------------------------------------------------------------------*/
FoamFile
{
    version     2.0;
    format      ascii;
    arch        "LSB;label=32;scalar=64";
    class       volScalarField;
    location    "0.21";
    object      nut;
}
// * * * * * * * * * * * * * * * * * * * * * * * * * * * * * * * * * * * * * //

dimensions      [0 2 -1 0 0 0 0];

internalField   nonuniform List<scalar> 
12225
(
5.32133e-06
8.10063e-06
1.009e-05
1.13572e-05
1.2102e-05
1.24772e-05
1.2615e-05
1.26716e-05
1.26144e-05
1.24964e-05
1.23755e-05
1.2216e-05
1.20934e-05
1.19237e-05
1.1824e-05
1.16553e-05
1.15846e-05
1.1405e-05
0.000146086
6.39997e-05
4.56839e-05
3.7819e-05
3.36703e-05
3.1262e-05
2.98053e-05
2.89748e-05
2.84716e-05
2.835e-05
2.83288e-05
2.86421e-05
2.89162e-05
2.95776e-05
2.99524e-05
3.08914e-05
3.1485e-05
3.19667e-05
0.0010616
0.000405097
0.000258563
0.000192274
0.000156206
0.000132135
0.000116533
0.000104545
9.61644e-05
8.9153e-05
8.41978e-05
7.96278e-05
7.67179e-05
7.3716e-05
7.17728e-05
6.96589e-05
6.9112e-05
6.74163e-05
0.00312779
0.00137525
0.000889169
0.000657442
0.000530581
0.000442881
0.00038668
0.000341287
0.000310721
0.00028298
0.000264401
0.000245358
0.000233801
0.000219895
0.000212067
0.000201169
0.000196645
0.000187949
0.00425204
0.00294309
0.00200069
0.00151211
0.00123307
0.00103647
0.000907297
0.000802451
0.000730254
0.000665015
0.000619949
0.000575012
0.000545865
0.000513085
0.000492608
0.000466037
0.000455134
0.000432168
0.00479192
0.00476428
0.00345014
0.00269706
0.0022381
0.00190885
0.00168278
0.00150072
0.00136922
0.00125364
0.00116898
0.00108884
0.00103246
0.000973246
0.000932333
0.000884984
0.000864723
0.000817781
0.00555077
0.00647122
0.00499908
0.00406397
0.00344856
0.002995
0.00266779
0.00240473
0.00220528
0.00203389
0.00190121
0.00178101
0.00168967
0.00159912
0.00153239
0.00146176
0.00142203
0.00135149
0.00668244
0.00767858
0.00641466
0.00543709
0.00473407
0.00419461
0.00378514
0.00345257
0.00318944
0.00296531
0.00278408
0.00262395
0.00249451
0.00237236
0.00227703
0.0021812
0.00211641
0.0020244
0.0082439
0.00858789
0.00754865
0.00666591
0.00596448
0.00539653
0.00494218
0.00456493
0.004255
0.0039898
0.00376796
0.00357334
0.00340913
0.00325907
0.00313531
0.00301592
0.00292556
0.00281441
0.00941488
0.00903946
0.00836038
0.00765803
0.00703725
0.00650086
0.00604728
0.0056585
0.00532741
0.00503983
0.00479228
0.00457396
0.00438426
0.00421309
0.00406575
0.00392759
0.00381504
0.00368844
0.00944297
0.0092666
0.00888287
0.00838535
0.00789355
0.00743588
0.00702518
0.00665887
0.00633527
0.00604773
0.00579349
0.00556626
0.00536425
0.00518169
0.00501976
0.00486997
0.00474168
0.00460507
0.00945502
0.00936825
0.00915889
0.00882878
0.00846506
0.00810082
0.00775478
0.00743311
0.00713877
0.00687044
0.00662727
0.00640625
0.00620602
0.00602337
0.0058581
0.00570542
0.00557041
0.00543078
0.00946096
0.00942052
0.00931607
0.00911936
0.00887327
0.00860639
0.00833672
0.00807412
0.00782442
0.0075899
0.00737167
0.00716924
0.00698222
0.00680928
0.00665
0.00650206
0.00636787
0.00623144
0.00946395
0.00944751
0.00940269
0.00930792
0.00916564
0.00899613
0.00881164
0.00862124
0.00843137
0.00824604
0.00806782
0.00789798
0.00773726
0.00758569
0.00744335
0.0073095
0.00718518
0.00705991
0.00946565
0.00945919
0.00944309
0.0094072
0.00934097
0.00925198
0.00914597
0.00902842
0.00890409
0.00877668
0.00864898
0.00852294
0.00839996
0.00828093
0.00816643
0.00805669
0.00795226
0.0078471
0.00946628
0.00946384
0.0094585
0.00944744
0.00942531
0.00938861
0.00934002
0.00928126
0.00921446
0.0091417
0.00906485
0.0089855
0.00890496
0.00882427
0.00874422
0.00866542
0.00858834
0.0085101
0.0094662
0.00946543
0.00946391
0.00946046
0.00945475
0.00944444
0.00942747
0.00940466
0.00937626
0.00934283
0.00930505
0.00926369
0.00921949
0.00917313
0.00912522
0.00907632
0.00902683
0.0089758
0.00946613
0.00946552
0.00946498
0.0094641
0.00946182
0.00945864
0.00945348
0.00944496
0.00943296
0.0094176
0.00939895
0.00937721
0.00935267
0.00932567
0.00929657
0.00926573
0.00923347
0.00919978
0.00946614
0.00946532
0.00946431
0.00946186
0.00945795
0.00945187
0.00944206
0.00942813
0.00941031
0.00938873
0.00936368
0.00933552
0.00930465
0.00927152
0.00923655
0.00920012
0.00916265
0.00912507
0.00946619
0.00946334
0.00945736
0.00944598
0.0094248
0.00939124
0.00934759
0.00929514
0.00923554
0.00917047
0.00910146
0.00902987
0.00895683
0.00888325
0.00880987
0.00873726
0.00866588
0.00859765
0.00946484
0.0094549
0.00943058
0.0093801
0.00929851
0.0091952
0.00907623
0.00894729
0.00881303
0.00867703
0.00854188
0.00840941
0.00828083
0.00815691
0.00803808
0.0079246
0.00781632
0.00771617
0.00946031
0.00941957
0.00932211
0.0091467
0.00892961
0.00869171
0.00844761
0.00820702
0.00797537
0.00775574
0.00754934
0.00735655
0.00717699
0.00701014
0.00685508
0.0067113
0.00657696
0.00645643
0.00944205
0.00928503
0.00896168
0.00854237
0.00811072
0.00769885
0.00731864
0.00697453
0.0066648
0.00638739
0.00613836
0.00591496
0.00571355
0.00553203
0.00536719
0.00521832
0.00508071
0.00496116
0.00936865
0.00884967
0.00807462
0.00734097
0.006702
0.00616433
0.00571089
0.00532976
0.0050046
0.00472715
0.00448639
0.00427785
0.00409389
0.00393276
0.00378811
0.00366129
0.00354353
0.00344521
0.00909039
0.00771478
0.00644708
0.00551028
0.00481066
0.00428399
0.00387008
0.00354362
0.00327494
0.00305557
0.00286857
0.00271234
0.00257521
0.00245928
0.00235431
0.00226619
0.00218214
0.00211558
0.00811781
0.00561969
0.00421061
0.00338012
0.00283206
0.00245527
0.00217222
0.0019611
0.00178973
0.00165621
0.00154174
0.00145058
0.00136877
0.00130336
0.0012417
0.00119339
0.00114463
0.00110868
0.00568883
0.00297912
0.00201621
0.00154483
0.0012583
0.00107347
0.000937401
0.000840628
0.000761526
0.000702956
0.000651262
0.000612589
0.000576091
0.000549092
0.000521812
0.000502277
0.000480947
0.00046652
0.00224775
0.000930465
0.000602492
0.00045534
0.000369057
0.000314842
0.000275371
0.000247948
0.000225477
0.000209313
0.000194815
0.000184395
0.000174264
0.000167148
0.000159681
0.000154626
0.000148913
0.000145233
0.000325466
0.000142513
9.90142e-05
7.90389e-05
6.76316e-05
6.04386e-05
5.54615e-05
5.19991e-05
4.94017e-05
4.75268e-05
4.6057e-05
4.50117e-05
4.41599e-05
4.36198e-05
4.31387e-05
4.28967e-05
4.26991e-05
4.26733e-05
6.00632e-06
8.01633e-06
9.67433e-06
1.09722e-05
1.1948e-05
1.26605e-05
1.3168e-05
1.35221e-05
1.37604e-05
1.39159e-05
1.39987e-05
1.40566e-05
1.40748e-05
1.40683e-05
1.40461e-05
1.40118e-05
1.39716e-05
1.39246e-05
1.28588e-08
3.59017e-07
5.69418e-07
7.06939e-07
7.94196e-07
8.50133e-07
8.97132e-07
9.62144e-07
1.06121e-06
1.16746e-06
1.27337e-06
1.35434e-06
1.41137e-06
1.46429e-06
1.47485e-06
1.40126e-06
1.17145e-06
9.79356e-07
8.10407e-07
5.84304e-07
3.2561e-07
2.03115e-07
2.24173e-07
3.09112e-07
3.77612e-07
4.19311e-07
4.7109e-07
6.02471e-07
8.75182e-07
1.23985e-06
1.37713e-06
1.30034e-06
1.09343e-06
8.84952e-07
6.78874e-07
5.05861e-07
5.14181e-07
6.48745e-07
1.95069e-06
5.95828e-06
9.60917e-06
1.25321e-05
1.49943e-05
1.71164e-05
1.89991e-05
2.06941e-05
2.20874e-05
2.27245e-05
2.33198e-05
2.3885e-05
2.44331e-05
2.4974e-05
2.55154e-05
2.6063e-05
2.66219e-05
2.71975e-05
2.77965e-05
2.8424e-05
2.9089e-05
2.97514e-05
3.04081e-05
3.10596e-05
3.17082e-05
3.23511e-05
3.29915e-05
3.36263e-05
3.42584e-05
3.48852e-05
3.55091e-05
3.61282e-05
3.67441e-05
3.73555e-05
3.79636e-05
3.85676e-05
3.91683e-05
3.97653e-05
4.0359e-05
4.09492e-05
4.15363e-05
4.21201e-05
4.27009e-05
4.32786e-05
4.38532e-05
4.44249e-05
4.49935e-05
4.55592e-05
4.61218e-05
4.66813e-05
4.72376e-05
4.77907e-05
4.83403e-05
4.88864e-05
4.94289e-05
4.99677e-05
5.05027e-05
5.10342e-05
5.15625e-05
5.20887e-05
5.2614e-05
5.31405e-05
5.36746e-05
5.42172e-05
5.47612e-05
5.53066e-05
5.58558e-05
5.64072e-05
5.6963e-05
5.75224e-05
5.80866e-05
5.86556e-05
5.92304e-05
5.98111e-05
6.03987e-05
6.09936e-05
6.15966e-05
6.22085e-05
6.28301e-05
6.34622e-05
6.4106e-05
6.47623e-05
6.54324e-05
6.61177e-05
6.68194e-05
6.75392e-05
6.82787e-05
6.904e-05
6.9832e-05
7.06442e-05
7.14802e-05
7.23517e-05
7.30443e-05
7.28203e-05
7.2577e-05
7.23123e-05
7.20316e-05
7.17344e-05
7.14193e-05
7.10825e-05
7.07315e-05
7.0362e-05
6.9977e-05
6.95758e-05
6.91593e-05
6.87278e-05
6.82818e-05
6.78217e-05
6.73481e-05
6.68612e-05
6.63615e-05
6.58494e-05
6.53257e-05
6.47907e-05
6.42451e-05
6.36897e-05
6.31256e-05
6.25536e-05
6.19747e-05
6.13897e-05
6.07995e-05
6.02046e-05
5.96058e-05
5.90033e-05
5.83976e-05
5.7789e-05
5.7178e-05
5.65652e-05
5.59515e-05
5.53375e-05
5.47239e-05
5.41109e-05
5.34986e-05
5.28863e-05
5.22727e-05
5.16565e-05
5.10282e-05
5.04005e-05
4.96869e-05
4.91164e-05
4.82997e-05
4.67289e-05
4.08689e-08
2.64762e-07
7.23075e-07
9.50118e-07
1.24833e-06
1.85045e-06
2.77712e-06
4.02202e-06
6.07338e-06
8.85003e-06
1.17576e-05
1.45397e-05
1.76634e-05
2.10693e-05
2.42231e-05
2.57247e-05
2.57299e-05
2.3607e-05
1.91019e-05
1.31657e-05
7.9787e-06
4.40463e-06
2.46114e-06
1.4479e-06
1.05346e-06
1.14123e-06
2.06618e-06
5.11426e-06
1.16713e-05
1.98149e-05
2.20683e-05
2.03585e-05
1.62558e-05
1.16544e-05
3.81239e-06
2.6815e-06
4.73729e-06
7.64377e-06
1.17895e-05
1.80884e-05
2.45531e-05
3.13584e-05
3.86935e-05
4.65063e-05
5.50616e-05
6.40042e-05
7.33378e-05
8.28447e-05
9.22604e-05
0.000101439
0.000110392
0.000119028
0.000127427
0.000135648
0.0001437
0.000151446
0.000159114
0.000166595
0.00017401
0.000181333
0.000188629
0.000195898
0.000203168
0.000210449
0.000217752
0.000225085
0.00023245
0.000239851
0.000247286
0.000254755
0.000262254
0.000269777
0.000277319
0.000284874
0.000292433
0.000299991
0.000307539
0.000315072
0.00032258
0.000330059
0.000337502
0.000344902
0.000352255
0.000359555
0.000366798
0.000373977
0.000381088
0.000388126
0.000395086
0.000401961
0.000408745
0.00041543
0.000422008
0.000428466
0.000434792
0.000440966
0.000446963
0.00045275
0.000458279
0.000463486
0.000468289
0.000472668
0.000477101
0.000481342
0.000485506
0.000489532
0.000493445
0.000497229
0.000500888
0.000504416
0.000507811
0.000511071
0.000514193
0.000517176
0.000520017
0.000522713
0.000525264
0.000527667
0.00052992
0.000532023
0.000533974
0.000535773
0.000537418
0.00053891
0.00054025
0.00054144
0.000542487
0.000543408
0.000544218
0.000544953
0.000545702
0.000546504
0.0005471
0.000547529
0.000547809
0.000547989
0.000548086
0.000547975
0.000547746
0.000547383
0.000546891
0.000546273
0.000545532
0.000544669
0.000543689
0.000542592
0.000541384
0.000540064
0.000538633
0.000537095
0.000535463
0.000533729
0.000531898
0.000529974
0.000527964
0.000525877
0.00052372
0.000521501
0.000519226
0.000516903
0.000514537
0.000512132
0.00050969
0.000507213
0.000504706
0.000502174
0.000499623
0.00049706
0.000494491
0.000491919
0.000489345
0.000486762
0.000484159
0.000481527
0.000478774
0.000475917
0.000472514
0.000469205
0.000462572
0.000447372
2.22028e-08
7.05624e-08
2.71992e-07
5.36987e-07
7.41085e-07
1.066e-06
1.87915e-06
3.52161e-06
6.61971e-06
1.07337e-05
1.58303e-05
2.17855e-05
2.7383e-05
3.34349e-05
3.97166e-05
4.40215e-05
4.70443e-05
4.72433e-05
4.57809e-05
4.19529e-05
3.49894e-05
2.69455e-05
1.91574e-05
1.26861e-05
8.26788e-06
5.83321e-06
6.57518e-06
1.01691e-05
1.96046e-05
3.11811e-05
3.23867e-05
2.21187e-05
1.42649e-05
1.09334e-05
1.00899e-05
1.45666e-05
2.27763e-05
3.37189e-05
4.61816e-05
6.14701e-05
7.93198e-05
0.000100006
0.00012278
0.000146549
0.000170659
0.000194221
0.000217032
0.000238637
0.000259313
0.000279065
0.000297962
0.000316225
0.00033405
0.000351078
0.00036776
0.000384001
0.000400003
0.000415755
0.000431375
0.000446884
0.000462348
0.000477793
0.000493255
0.000508752
0.000524302
0.000539914
0.000555593
0.000571339
0.000587149
0.000603016
0.000618932
0.000634883
0.000650858
0.000666842
0.000682819
0.000698775
0.000714694
0.000730562
0.000746365
0.000762088
0.00077772
0.000793248
0.000808662
0.000823949
0.0008391
0.000854103
0.000868948
0.000883625
0.000898121
0.000912424
0.00092652
0.000940394
0.00095403
0.000967409
0.000980508
0.000993302
0.00100576
0.00101787
0.00102957
0.00104087
0.00105177
0.00106238
0.00107281
0.00108295
0.00109286
0.0011025
0.00111188
0.00112098
0.00112981
0.00113834
0.00114658
0.00115453
0.00116217
0.0011695
0.00117652
0.00118322
0.0011896
0.00119566
0.00120138
0.00120678
0.00121184
0.00121657
0.00122097
0.00122503
0.00122877
0.00123218
0.00123527
0.00123808
0.0012406
0.00124287
0.00124491
0.00124671
0.00124815
0.00124917
0.00124983
0.00125032
0.00125052
0.00125034
0.00124984
0.00124903
0.00124792
0.00124652
0.00124483
0.00124285
0.0012406
0.00123808
0.0012353
0.00123226
0.00122897
0.00122543
0.00122165
0.00121764
0.0012134
0.00120894
0.00120428
0.00119944
0.00119443
0.00118927
0.00118398
0.00117857
0.00117305
0.00116744
0.00116174
0.00115595
0.00115009
0.00114417
0.0011382
0.0011322
0.00112618
0.00112015
0.00111411
0.00110805
0.00110195
0.00109575
0.00108935
0.00108265
0.00107512
0.00106684
0.00105355
0.00102526
2.17916e-09
1.71325e-08
9.01281e-08
2.57108e-07
7.349e-07
1.95842e-06
4.74242e-06
9.38677e-06
1.58354e-05
2.38082e-05
3.33887e-05
4.39042e-05
5.43967e-05
6.38822e-05
7.14829e-05
7.66177e-05
7.87232e-05
7.85092e-05
7.57436e-05
7.07803e-05
6.35293e-05
5.40881e-05
4.40989e-05
3.45088e-05
2.70715e-05
2.19957e-05
2.30856e-05
3.01934e-05
3.94353e-05
3.63871e-05
2.99663e-05
2.29444e-05
2.07135e-05
2.44898e-05
3.51687e-05
5.27025e-05
7.08939e-05
9.32542e-05
0.000118507
0.000148557
0.000181404
0.000216254
0.000251528
0.000286516
0.0003207
0.000353674
0.000385391
0.000415725
0.000444752
0.000472779
0.000500106
0.000526317
0.000551867
0.000576726
0.000601125
0.00062511
0.000648812
0.000672291
0.000695635
0.000718898
0.000742138
0.000765392
0.000788697
0.000812074
0.000835541
0.000859106
0.000882773
0.000906538
0.000930393
0.000954325
0.000978319
0.00100235
0.00102641
0.00105047
0.00107449
0.00109847
0.00112238
0.00114619
0.00116988
0.00119344
0.00121683
0.00124005
0.00126307
0.00128588
0.00130847
0.00133081
0.00135289
0.00137471
0.00139623
0.00141744
0.00143834
0.00145889
0.00147909
0.00149891
0.00151834
0.00153735
0.00155594
0.00157408
0.00159178
0.00160903
0.00162588
0.00164235
0.00165847
0.0016742
0.00168954
0.00170447
0.00171899
0.00173309
0.00174675
0.00175998
0.00177276
0.00178509
0.00179695
0.00180835
0.00181927
0.00182971
0.00183967
0.00184914
0.00185811
0.00186658
0.00187456
0.00188204
0.00188902
0.0018955
0.0019015
0.001907
0.00191203
0.0019166
0.00192071
0.00192439
0.00192761
0.00193037
0.00193261
0.00193425
0.0019354
0.00193627
0.00193661
0.00193643
0.00193578
0.00193466
0.0019331
0.00193108
0.00192863
0.00192576
0.00192246
0.00191876
0.00191466
0.00191017
0.0019053
0.00190006
0.00189445
0.00188848
0.00188216
0.00187551
0.00186856
0.00186131
0.00185381
0.00184607
0.00183812
0.00182998
0.00182166
0.00181319
0.00180458
0.00179582
0.00178694
0.00177796
0.00176888
0.00175976
0.00175059
0.00174139
0.00173217
0.00172292
0.00171359
0.00170413
0.00169442
0.0016843
0.00167323
0.00166067
0.00164271
0.00160865
2.42987e-09
2.32554e-08
2.29722e-07
8.56935e-07
2.5407e-06
6.6015e-06
1.36018e-05
2.35703e-05
3.7244e-05
5.46721e-05
7.37279e-05
9.19449e-05
0.00010753
0.000119081
0.000125822
0.0001283
0.000127127
0.000122201
0.000114928
0.000105392
9.42641e-05
8.1755e-05
6.91475e-05
5.18437e-05
3.84346e-05
3.26701e-05
3.73839e-05
4.90519e-05
4.86956e-05
4.36059e-05
3.66553e-05
3.55409e-05
4.59457e-05
6.57122e-05
8.91133e-05
0.000115584
0.000145394
0.000180342
0.000218657
0.000260678
0.000303583
0.000346953
0.000389765
0.000431713
0.000472488
0.00051193
0.000549865
0.000586622
0.000622558
0.000657196
0.00069093
0.000723764
0.00075591
0.000787455
0.000818539
0.000849253
0.000879701
0.000909961
0.000940111
0.000970211
0.00100031
0.00103046
0.00106069
0.00109102
0.00112147
0.00115204
0.00118274
0.00121354
0.00124445
0.00127545
0.0013065
0.00133759
0.00136868
0.00139974
0.00143075
0.00146167
0.00149246
0.0015231
0.00155356
0.0015838
0.00161381
0.00164356
0.00167303
0.00170219
0.00173103
0.00175953
0.00178767
0.00181543
0.0018428
0.00186976
0.00189629
0.00192238
0.00194801
0.00197317
0.00199783
0.00202201
0.00204567
0.00206883
0.00209149
0.00211365
0.00213533
0.00215652
0.00217722
0.00219741
0.00221708
0.00223623
0.00225484
0.0022729
0.0022904
0.00230734
0.00232369
0.00233947
0.00235465
0.00236924
0.00238322
0.00239659
0.00240935
0.00242149
0.002433
0.00244389
0.00245416
0.0024638
0.00247281
0.00248121
0.00248899
0.00249615
0.00250272
0.00250869
0.00251408
0.0025189
0.00252307
0.00252666
0.00252963
0.00253185
0.00253354
0.00253478
0.00253536
0.00253533
0.00253471
0.00253352
0.00253177
0.00252946
0.00252661
0.00252323
0.00251933
0.00251492
0.00251002
0.00250463
0.00249875
0.00249241
0.00248561
0.00247836
0.00247067
0.00246256
0.00245406
0.00244519
0.00243598
0.00242647
0.00241667
0.00240661
0.00239633
0.00238582
0.00237511
0.00236421
0.00235314
0.00234191
0.00233055
0.00231907
0.00230751
0.00229589
0.00228422
0.0022725
0.00226068
0.00224871
0.00223648
0.00222382
0.00221024
0.00219491
0.00217438
0.00213974
8.92324e-09
7.89876e-08
5.28327e-07
2.18302e-06
7.13128e-06
1.77123e-05
3.53413e-05
6.03316e-05
8.86514e-05
0.000115145
0.000137256
0.000154161
0.000165945
0.000172861
0.000175681
0.000174606
0.000169203
0.000160879
0.000149613
0.000135957
0.00012094
9.89224e-05
7.55501e-05
5.7463e-05
4.82354e-05
5.28931e-05
6.13797e-05
6.15513e-05
5.80128e-05
5.26873e-05
5.51293e-05
7.3654e-05
9.84993e-05
0.00012721
0.000159886
0.000196482
0.00023731
0.000282456
0.000329848
0.000378677
0.000427358
0.000475716
0.000523224
0.000569727
0.00061484
0.000658784
0.000701909
0.000743816
0.000784685
0.000824538
0.000863543
0.00090179
0.000939409
0.000976504
0.00101318
0.00104954
0.00108566
0.00112163
0.00115752
0.00119338
0.00122927
0.00126523
0.00130128
0.00133745
0.00137375
0.00141018
0.00144674
0.00148342
0.00152019
0.00155704
0.00159393
0.00163083
0.00166771
0.00170452
0.00174123
0.00177779
0.00181417
0.00185033
0.00188624
0.00192185
0.00195714
0.00199208
0.00202664
0.00206081
0.00209456
0.00212787
0.00216072
0.0021931
0.00222499
0.00225638
0.00228724
0.00231757
0.00234736
0.00237658
0.00240523
0.00243331
0.00246081
0.00248773
0.00251408
0.00253985
0.00256504
0.00258964
0.00261365
0.00263704
0.00265982
0.00268197
0.00270347
0.00272433
0.00274453
0.00276407
0.00278293
0.00280111
0.0028186
0.00283541
0.00285152
0.00286692
0.00288163
0.00289562
0.00290891
0.00292148
0.00293334
0.00294449
0.00295494
0.00296468
0.00297373
0.00298208
0.00298974
0.00299673
0.00300308
0.00300873
0.00301365
0.00301791
0.00302148
0.00302422
0.00302644
0.00302804
0.00302895
0.00302919
0.00302878
0.00302772
0.00302604
0.00302375
0.00302084
0.00301735
0.00301327
0.00300863
0.00300342
0.00299767
0.00299138
0.00298455
0.00297721
0.00296936
0.00296101
0.00295218
0.0029429
0.00293319
0.00292309
0.00291263
0.00290182
0.00289071
0.00287931
0.00286763
0.00285571
0.00284354
0.00283115
0.00281855
0.00280578
0.00279286
0.00277981
0.00276667
0.00275345
0.00274014
0.00272671
0.00271312
0.00269926
0.00268497
0.00266988
0.00265319
0.00263177
0.00259906
9.69284e-09
1.66568e-07
1.35369e-06
6.25443e-06
2.16964e-05
4.98445e-05
8.55045e-05
0.000119732
0.000148311
0.000170733
0.000187678
0.00019985
0.000207669
0.000211413
0.000211537
0.00020734
0.000199479
0.000188227
0.000173607
0.000156219
0.000133353
0.000106766
8.46213e-05
7.22146e-05
6.99005e-05
6.86459e-05
7.09632e-05
7.04174e-05
6.93674e-05
7.83364e-05
9.99672e-05
0.000128925
0.000162325
0.000199676
0.000240998
0.000286325
0.000335306
0.000386871
0.000439311
0.000491926
0.000544047
0.000595531
0.000646037
0.000695391
0.000743944
0.000791682
0.000838339
0.000883999
0.000928752
0.000972668
0.00101585
0.00105839
0.00110038
0.00114191
0.00118308
0.00122398
0.00126467
0.00130524
0.00134575
0.00138625
0.00142679
0.00146741
0.00150812
0.00154896
0.00158993
0.00163102
0.00167224
0.00171356
0.00175495
0.0017964
0.00183787
0.00187931
0.00192069
0.00196196
0.00200308
0.00204399
0.00208465
0.00212501
0.00216504
0.0022047
0.00224395
0.00228277
0.00232112
0.00235898
0.00239633
0.00243316
0.00246944
0.00250515
0.0025403
0.00257485
0.00260881
0.00264215
0.00267487
0.00270696
0.00273841
0.00276921
0.00279936
0.00282885
0.00285768
0.00288583
0.00291332
0.00294013
0.00296627
0.00299172
0.00301647
0.00304052
0.00306386
0.00308648
0.00310837
0.00312953
0.00314996
0.00316964
0.00318857
0.00320676
0.00322419
0.00324087
0.00325679
0.00327195
0.00328635
0.0033
0.0033129
0.00332506
0.00333645
0.0033471
0.003357
0.00336616
0.00337459
0.00338229
0.00338933
0.00339557
0.00340106
0.00340586
0.0034099
0.0034131
0.00341579
0.00341781
0.00341911
0.00341972
0.00341966
0.00341892
0.00341753
0.0034155
0.00341284
0.00340955
0.00340566
0.00340116
0.00339608
0.00339043
0.0033842
0.00337741
0.00337007
0.00336219
0.00335377
0.00334485
0.00333543
0.00332556
0.00331525
0.00330454
0.00329345
0.00328201
0.00327024
0.00325815
0.00324577
0.0032331
0.00322016
0.00320697
0.00319356
0.00317996
0.00316619
0.00315229
0.00313828
0.00312414
0.00310985
0.0030954
0.00308072
0.00306568
0.00304999
0.00303297
0.00301226
0.00298222
2.60155e-08
4.78806e-07
4.07022e-06
2.1489e-05
5.78201e-05
9.92779e-05
0.000136281
0.00016638
0.000189964
0.000208058
0.00022139
0.000230429
0.000235433
0.000236808
0.00023413
0.000227256
0.000216596
0.000202095
0.000183092
0.000160328
0.000138259
0.000117684
9.84326e-05
8.20599e-05
7.49205e-05
7.80221e-05
8.18274e-05
8.48645e-05
9.81567e-05
0.000122538
0.000154684
0.000191626
0.00023253
0.000277097
0.00032529
0.000376802
0.00043073
0.000485813
0.000540983
0.000595817
0.000650034
0.000703317
0.000755685
0.000807581
0.000858609
0.000908742
0.00095799
0.00100641
0.00105406
0.00110101
0.00114733
0.0011931
0.00123839
0.00128328
0.00132786
0.00137219
0.00141635
0.0014604
0.00150439
0.00154839
0.00159242
0.00163653
0.00168074
0.00172506
0.00176949
0.00181404
0.00185869
0.00190342
0.00194821
0.00199302
0.00203782
0.00208256
0.0021272
0.00217169
0.00221597
0.00225999
0.0023037
0.00234705
0.00238999
0.00243248
0.00247449
0.00251597
0.00255692
0.00259729
0.00263708
0.00267627
0.00271484
0.00275277
0.00279006
0.00282669
0.00286266
0.00289796
0.00293258
0.00296651
0.00299975
0.00303229
0.00306412
0.00309523
0.0031256
0.00315525
0.00318419
0.00321241
0.00323991
0.00326668
0.00329272
0.00331801
0.00334256
0.00336635
0.00338937
0.00341163
0.00343312
0.00345383
0.00347376
0.00349291
0.00351127
0.00352885
0.00354564
0.00356165
0.00357687
0.00359131
0.00360497
0.00361784
0.00362994
0.00364126
0.00365182
0.00366161
0.00367065
0.00367897
0.0036866
0.00369337
0.00369942
0.00370476
0.00370931
0.00371306
0.00371625
0.00371872
0.00372047
0.00372152
0.00372187
0.00372156
0.00372057
0.00371893
0.00371665
0.00371373
0.0037102
0.00370605
0.00370131
0.00369597
0.00369005
0.00368355
0.00367648
0.00366885
0.00366068
0.00365197
0.00364275
0.00363306
0.0036229
0.00361232
0.00360133
0.00358995
0.00357821
0.00356613
0.0035537
0.00354096
0.0035279
0.00351457
0.00350097
0.00348714
0.0034731
0.00345889
0.00344453
0.00343004
0.0034155
0.00340081
0.00338592
0.00337073
0.00335505
0.00333833
0.00331876
0.0032921
2.49996e-07
1.54093e-06
1.40182e-05
5.11058e-05
9.69913e-05
0.000138773
0.000172457
0.000198479
0.000218178
0.000232826
0.000243293
0.000249768
0.000252313
0.000250813
0.000245337
0.000230321
0.000209959
0.000191306
0.000175368
0.000160357
0.000136501
0.000113983
9.36588e-05
8.22831e-05
8.32828e-05
9.07657e-05
9.81119e-05
0.000114113
0.000140577
0.000175091
0.000214521
0.000257792
0.000304486
0.000354364
0.000407202
0.000462386
0.000518908
0.000575778
0.000632374
0.000688446
0.000743599
0.000797968
0.000852077
0.000905376
0.000957882
0.00100962
0.0010606
0.00111088
0.00116051
0.00120952
0.00125799
0.00130596
0.00135352
0.00140071
0.0014476
0.00149426
0.00154075
0.00158714
0.00163346
0.00167978
0.00172612
0.00177253
0.00181902
0.0018656
0.00191229
0.00195908
0.00200595
0.00205288
0.00209985
0.00214681
0.00219375
0.0022406
0.00228733
0.00233388
0.00238019
0.00242622
0.00247188
0.00251711
0.00256189
0.00260616
0.00264988
0.00269302
0.00273555
0.00277745
0.00281871
0.0028593
0.00289923
0.00293848
0.00297707
0.00301497
0.00305215
0.0030886
0.00312431
0.00315929
0.00319353
0.00322702
0.00325976
0.00329175
0.00332301
0.00335352
0.0033833
0.00341233
0.00344061
0.00346813
0.00349489
0.00352089
0.00354611
0.00357056
0.00359423
0.00361711
0.0036392
0.0036605
0.00368101
0.00370072
0.00371964
0.00373777
0.0037551
0.00377164
0.00378738
0.00380234
0.00381651
0.0038299
0.00384251
0.00385434
0.00386541
0.00387571
0.00388526
0.00389412
0.00390223
0.00390952
0.00391611
0.00392197
0.00392705
0.00393141
0.00393515
0.00393817
0.0039405
0.00394213
0.00394309
0.00394338
0.00394301
0.003942
0.00394036
0.00393809
0.00393522
0.00393174
0.00392767
0.00392301
0.00391777
0.00391196
0.00390557
0.00389863
0.00389113
0.0038831
0.00387455
0.00386551
0.00385601
0.00384607
0.0038357
0.00382492
0.00381376
0.00380222
0.00379031
0.00377805
0.00376546
0.00375254
0.00373933
0.00372585
0.00371212
0.00369818
0.00368404
0.00366971
0.00365521
0.00364055
0.00362568
0.00361057
0.00359508
0.00357879
0.00356026
0.00353655
5.88045e-07
4.13855e-06
3.10455e-05
7.96965e-05
0.000128305
0.000167471
0.000197022
0.000219118
0.000235908
0.000247821
0.000255297
0.000258706
0.000258387
0.000244734
0.000225952
0.000209004
0.000195193
0.000185045
0.00017483
0.000150302
0.000125675
0.000104056
9.03275e-05
8.89905e-05
9.72675e-05
0.000108552
0.000126891
0.000154688
0.000190599
0.000231621
0.000276242
0.000324007
0.000374623
0.000427837
0.000483262
0.000540204
0.000597806
0.000655374
0.000712521
0.000768831
0.000824386
0.000879761
0.000934432
0.000988386
0.00104164
0.00109421
0.00114611
0.00119739
0.00124807
0.0012982
0.00134782
0.00139698
0.00144573
0.00149412
0.0015422
0.00159004
0.00163768
0.00168519
0.00173261
0.00178001
0.00182742
0.00187486
0.00192237
0.00196996
0.00201764
0.00206543
0.0021133
0.00216125
0.00220921
0.00225715
0.00230508
0.00235293
0.00240067
0.00244824
0.00249559
0.00254269
0.00258955
0.00263606
0.00268205
0.00272746
0.00277225
0.00281638
0.00285983
0.00290257
0.00294459
0.00298589
0.00302646
0.00306627
0.00310531
0.00314361
0.00318118
0.00321802
0.00325414
0.00328953
0.00332418
0.00335809
0.00339127
0.00342371
0.00345542
0.00348639
0.0035166
0.00354606
0.00357477
0.0036027
0.00362987
0.00365626
0.00368188
0.00370672
0.00373077
0.00375404
0.00377652
0.0037982
0.0038191
0.00383921
0.00385853
0.00387705
0.00389479
0.00391175
0.00392792
0.00394331
0.00395792
0.00397176
0.00398483
0.00399713
0.00400868
0.00401947
0.00402954
0.00403893
0.00404752
0.00405538
0.00406253
0.00406899
0.00407468
0.0040797
0.00408407
0.00408775
0.00409074
0.00409308
0.00409475
0.00409578
0.00409618
0.00409595
0.00409511
0.00409367
0.00409163
0.00408901
0.00408581
0.00408204
0.00407771
0.00407281
0.00406735
0.00406133
0.00405477
0.00404767
0.00404007
0.00403198
0.00402342
0.00401441
0.00400497
0.00399511
0.00398485
0.0039742
0.00396315
0.00395173
0.00393994
0.0039278
0.00391534
0.00390257
0.00388952
0.00387621
0.00386267
0.00384891
0.00383493
0.00382077
0.00380641
0.00379182
0.00377695
0.00376147
0.00374421
0.0037237
8.0387e-07
8.02361e-06
4.75027e-05
0.000102437
0.000149977
0.00018555
0.00021173
0.000230547
0.000243255
0.000251503
0.000256067
0.000245344
0.000230825
0.000218009
0.000207564
0.000199597
0.000192844
0.000181719
0.00015791
0.000133773
0.000112897
9.83536e-05
9.53029e-05
0.000103273
0.00011677
0.000137378
0.000166055
0.00020247
0.000244139
0.000289279
0.000337224
0.000387705
0.000440486
0.000495288
0.000551674
0.000609017
0.000666661
0.000724113
0.000780906
0.000836941
0.000892768
0.000948
0.00100257
0.00105646
0.00110969
0.00116228
0.00121424
0.00126559
0.00131636
0.00136657
0.00141627
0.00146549
0.00151428
0.00156268
0.00161073
0.00165847
0.00170594
0.00175322
0.00180037
0.00184747
0.00189457
0.00194171
0.00198885
0.00203609
0.00208346
0.00213096
0.0021786
0.00222644
0.00227457
0.00232294
0.00237134
0.00241968
0.00246791
0.00251595
0.00256377
0.00261128
0.00265836
0.00270496
0.00275104
0.00279651
0.00284138
0.0028856
0.00292914
0.00297198
0.00301411
0.00305551
0.00309621
0.00313618
0.00317544
0.00321398
0.00325181
0.00328891
0.0033253
0.00336095
0.00339588
0.00343008
0.00346354
0.00349627
0.00352827
0.00355953
0.00359004
0.0036198
0.00364881
0.00367705
0.00370453
0.00373125
0.00375719
0.00378237
0.00380677
0.00383039
0.00385323
0.00387529
0.00389657
0.00391707
0.0039368
0.00395574
0.00397391
0.00399131
0.00400794
0.0040238
0.0040389
0.00405324
0.00406683
0.00407967
0.00409176
0.00410312
0.00411379
0.00412374
0.00413295
0.00414146
0.00414928
0.00415641
0.00416283
0.00416861
0.00417372
0.00417817
0.00418196
0.00418511
0.00418763
0.00418952
0.00419081
0.0041915
0.0041916
0.00419111
0.00419006
0.00418845
0.00418628
0.00418356
0.0041803
0.00417648
0.00417212
0.00416721
0.00416176
0.00415579
0.00414932
0.00414236
0.00413495
0.00412709
0.00411879
0.00411008
0.00410095
0.00409141
0.00408146
0.00407112
0.00406038
0.00404928
0.00403782
0.00402603
0.00401393
0.00400153
0.00398885
0.00397592
0.00396274
0.00394934
0.00393573
0.00392191
0.00390785
0.00389332
0.00387733
0.0038598
9.08409e-07
1.26398e-05
6.07068e-05
0.000117941
0.000163299
0.000195696
0.000217283
0.000231512
0.000241046
0.000229514
0.000219553
0.0002126
0.000207355
0.0002034
0.000199788
0.0001949
0.000182149
0.000160247
0.000138333
0.000119759
0.000105847
0.000102304
0.000109665
0.000124338
0.00014651
0.00017593
0.000212216
0.000253668
0.000298529
0.000345925
0.000395524
0.000447138
0.000500569
0.000555539
0.000611643
0.000668371
0.000725226
0.000781735
0.000837535
0.000893041
0.000948037
0.00100239
0.00105605
0.001109
0.00116127
0.00121288
0.00126384
0.00131414
0.00136382
0.00141287
0.00146135
0.0015093
0.00155676