/*--------------------------------*- C++ -*----------------------------------*\
| =========                 |                                                 |
| \\      /  F ield         | OpenFOAM: The Open Source CFD Toolbox           |
|  \\    /   O peration     | Version:  2112                                  |
|   \\  /    A nd           | Website:  www.openfoam.com                      |
|    \\/     M anipulation  |                                                 |
\*---------------------------------------------------------------------------*/
FoamFile
{
    version     2.0;
    format      ascii;
    arch        "LSB;label=32;scalar=64";
    class       volSymmTensorField;
    location    "0.21";
    object      turbulenceProperties:R;
}
// * * * * * * * * * * * * * * * * * * * * * * * * * * * * * * * * * * * * * //

dimensions      [0 2 -2 0 0 0 0];

internalField   nonuniform List<symmTensor> 
12885
(
(0.752256 -0.340817 -0 0.7158 -0 0.733908)
(0.314713 -0.145877 -0 0.312684 -0 0.31377)
(0.254229 -0.118104 -0 0.253734 -0 0.254002)
(0.252824 -0.117504 -0 0.252563 -0 0.252707)
(0.252589 -0.117415 -0 0.252416 -0 0.252513)
(0.252645 -0.117447 -0 0.252496 -0 0.25258)
(0.252667 -0.117456 -0 0.252516 -0 0.252601)
(0.252605 -0.117427 -0 0.252452 -0 0.252539)
(0.252681 -0.117456 -0 0.2525 -0 0.252602)
(0.252436 -0.11735 -0 0.252288 -0 0.252373)
(0.252711 -0.117485 -0 0.252599 -0 0.25266)
(0.252916 -0.117507 -0 0.252471 -0 0.252723)
(0.252115 -0.117129 -0 0.25164 -0 0.25192)
(0.253357 -0.117776 -0 0.253198 -0 0.253292)
(0.253436 -0.117799 -0 0.253213 -0 0.253345)
(0.25356 -0.117859 -0 0.253348 -0 0.25347)
(0.253749 -0.117931 -0 0.253469 -0 0.253631)
(0.253946 -0.118013 -0 0.253621 -0 0.253809)
(0.254142 -0.118106 -0 0.253824 -0 0.254007)
(0.254379 -0.118213 -0 0.254045 -0 0.254239)
(0.254673 -0.118338 -0 0.254288 -0 0.254512)
(0.255006 -0.118488 -0 0.254599 -0 0.254837)
(0.255368 -0.118672 -0 0.255029 -0 0.255227)
(0.255803 -0.1189 -0 0.255584 -0 0.255712)
(0.256484 -0.119187 -0 0.256134 -0 0.256332)
(0.257382 -0.119595 -0 0.256972 -0 0.257226)
(0.258359 -0.120085 -0 0.258128 -0 0.258256)
(0.260003 -0.120808 -0 0.25956 -0 0.259845)
(0.268355 -0.124505 -0 0.267066 -0 0.267848)
(0.267851 -0.124037 -0 0.26548 -0 0.266944)
(0.269653 -0.123245 -0 0.260788 -0 0.2652)
(0.134507 -0.00174809 -0 0.134334 -0 0.134407)
(0.00314542 -6.88984e-06 -0 0.00314516 -0 0.00314532)
(0.00165493 -1.00227e-07 -0 0.00165492 -0 0.00165492)
(4.48856e-05 -1.95895e-08 -0 4.48852e-05 -0 4.48854e-05)
(9.27135e-08 -6.20917e-16 -0 9.27135e-08 -0 9.27135e-08)
(1.17145e-08 -3.55526e-18 -0 1.17145e-08 -0 1.17145e-08)
(3.89004e-10 -3.59412e-21 -0 3.89004e-10 -0 3.89004e-10)
(4.02296e-11 -2.40719e-23 -0 4.02296e-11 -0 4.02296e-11)
(8.25768e-13 -9.39584e-27 -0 8.25768e-13 -0 8.25768e-13)
(0.65196 -0.293315 -0 0.612727 -0 0.631898)
(0.309898 -0.142829 -0 0.304549 -0 0.307191)
(0.254705 -0.118046 -0 0.253053 -0 0.253848)
(0.253161 -0.117498 -0 0.252222 -0 0.252677)
(0.252821 -0.117412 -0 0.252185 -0 0.252495)
(0.252842 -0.117443 -0 0.252295 -0 0.252562)
(0.252867 -0.117453 -0 0.252312 -0 0.252585)
(0.252808 -0.117424 -0 0.252245 -0 0.252523)
(0.25292 -0.117453 -0 0.25226 -0 0.252584)
(0.25263 -0.117347 -0 0.252088 -0 0.252361)
(0.252901 -0.117484 -0 0.25241 -0 0.252651)
(0.253603 -0.117497 -0 0.251752 -0 0.252713)
(0.251328 -0.116466 -0 0.249631 -0 0.250454)
(0.253461 -0.117761 -0 0.253065 -0 0.253226)
(0.253711 -0.117803 -0 0.252964 -0 0.253346)
(0.253842 -0.117856 -0 0.253077 -0 0.253448)
(0.254128 -0.117929 -0 0.253096 -0 0.253615)
(0.254375 -0.118011 -0 0.253204 -0 0.253791)
(0.254571 -0.118104 -0 0.253417 -0 0.253984)
(0.254834 -0.118212 -0 0.253614 -0 0.254218)
(0.255198 -0.118337 -0 0.253797 -0 0.254486)
(0.255561 -0.118487 -0 0.254082 -0 0.254807)
(0.255845 -0.11867 -0 0.254588 -0 0.255193)
(0.25615 -0.118898 -0 0.255255 -0 0.255684)
(0.257024 -0.119176 -0 0.255585 -0 0.25628)
(0.25809 -0.119613 -0 0.256353 -0 0.257276)
(0.259215 -0.120065 -0 0.257124 -0 0.258307)
(0.261823 -0.120898 -0 0.258138 -0 0.26012)
(0.273902 -0.125926 -0 0.267842 -0 0.270917)
(0.272299 -0.124772 -0 0.264663 -0 0.268399)
(0.276407 -0.12443 -0 0.260514 -0 0.267513)
(0.0200094 -9.47452e-05 -0 0.0199957 -0 0.0200025)
(0.000757036 -1.77808e-06 -0 0.000756873 -0 0.000756962)
(0.000437471 -6.20466e-07 -0 0.000437427 -0 0.000437448)
(6.66689e-16 -8.03084e-19 -0 6.66645e-16 -0 6.66666e-16)
(2.37091e-08 -1.14741e-14 -0 2.37091e-08 -0 2.37091e-08)
(2.94094e-09 -6.29653e-14 -0 2.94094e-09 -0 2.94094e-09)
(9.59834e-11 -6.67549e-14 -0 9.598e-11 -0 9.59817e-11)
(3.95658e-12 -4.8021e-25 -0 3.95658e-12 -0 3.95658e-12)
(2.30554e-13 -1.10857e-27 -5.73727e-48 2.30554e-13 -0 2.30554e-13)
(0.498742 -0.222804 -0 0.462679 -0 0.480723)
(0.293829 -0.134559 -0 0.285129 -0 0.289616)
(0.255444 -0.117918 -0 0.251822 -0 0.253583)
(0.253808 -0.117506 -0 0.251635 -0 0.252692)
(0.253291 -0.117426 -0 0.25179 -0 0.25252)
(0.253247 -0.117457 -0 0.251962 -0 0.252589)
(0.253271 -0.117468 -0 0.251979 -0 0.252617)
(0.253212 -0.117439 -0 0.251913 -0 0.252561)
(0.253382 -0.117469 -0 0.251877 -0 0.252624)
(0.253016 -0.117364 -0 0.251778 -0 0.252405)
(0.253429 -0.117511 -0 0.251963 -0 0.252761)
(0.254728 -0.117433 -0 0.250481 -0 0.252544)
(0.246985 -0.113992 -0 0.243386 -0 0.24515)
(0.253402 -0.117667 -0 0.252709 -0 0.253035)
(0.254089 -0.117873 -0 0.252989 -0 0.253399)
(0.254349 -0.117899 -0 0.252801 -0 0.253505)
(0.254822 -0.117973 -0 0.252592 -0 0.253738)
(0.255152 -0.118062 -0 0.252615 -0 0.25397)
(0.255362 -0.118166 -0 0.252883 -0 0.254161)
(0.25569 -0.118286 -0 0.253076 -0 0.254417)
(0.25618 -0.118425 -0 0.253205 -0 0.254711)
(0.256624 -0.118593 -0 0.25349 -0 0.255067)
(0.256878 -0.118797 -0 0.254125 -0 0.255483)
(0.257108 -0.119057 -0 0.255033 -0 0.255999)
(0.258403 -0.119341 -0 0.254922 -0 0.2567)
(0.260512 -0.120115 -0 0.255979 -0 0.258585)
(0.262224 -0.120455 -0 0.256008 -0 0.259158)
(0.268784 -0.122547 -0 0.259088 -0 0.263381)
(0.272892 -0.112665 -0 0.261398 -0 0.266672)
(0.279119 -0.126069 -0 0.263719 -0 0.272036)
(0.281033 -0.127211 -0 0.266734 -0 0.274249)
(0.0201062 -5.81867e-05 -0 0.0201007 -0 0.0201029)
(6.66768e-16 -1.81108e-18 -0 6.66567e-16 -0 6.66665e-16)
(6.66758e-16 -1.76314e-18 -0 6.66578e-16 -0 6.66664e-16)
(6.66743e-16 -1.70826e-18 -0 6.66591e-16 -0 6.66666e-16)
(6.66737e-16 -1.65743e-18 -0 6.66596e-16 -0 6.66667e-16)
(6.66736e-16 -1.6078e-18 -0 6.66597e-16 -0 6.66667e-16)
(6.66737e-16 -1.56009e-18 -0 6.66596e-16 -0 6.66667e-16)
(8.0883e-13 -1.19899e-26 -0 8.0883e-13 -0 8.0883e-13)
(3.46285e-14 -4.95319e-29 1.26178e-49 3.46285e-14 -0 3.46285e-14)
(0.34898 -0.155156 -0 0.321111 -0 0.334941)
(0.270807 -0.12319 -0 0.25934 -0 0.265492)
(0.256664 -0.117726 -0 0.249899 -0 0.253272)
(0.255052 -0.117518 -0 0.250463 -0 0.252813)
(0.254289 -0.117461 -0 0.250919 -0 0.252682)
(0.254096 -0.117496 -0 0.251266 -0 0.252735)
(0.254072 -0.117513 -0 0.251375 -0 0.252753)
(0.253972 -0.11749 -0 0.251384 -0 0.252689)
(0.254219 -0.117525 -0 0.251297 -0 0.252766)
(0.253738 -0.117426 -0 0.251317 -0 0.252571)
(0.254587 -0.117622 -0 0.251396 -0 0.252941)
(0.253939 -0.116381 -0 0.247042 -0 0.250196)
(0.206067 -0.0112909 -0 0.205472 -0 0.205783)
(0.251247 -0.116244 -0 0.248569 -0 0.250197)
(0.255443 -0.118252 -0 0.253066 -0 0.254447)
(0.255395 -0.118064 -0 0.252456 -0 0.253912)
(0.255742 -0.118131 -0 0.252514 -0 0.253951)
(0.255951 -0.118248 -0 0.252832 -0 0.254175)
(0.256351 -0.118384 -0 0.253003 -0 0.254489)
(0.256941 -0.118543 -0 0.253041 -0 0.254911)
(0.257715 -0.118727 -0 0.253041 -0 0.255371)
(0.258367 -0.118948 -0 0.253317 -0 0.255896)
(0.258874 -0.119214 -0 0.253896 -0 0.256522)
(0.259741 -0.119646 -0 0.254817 -0 0.257519)
(0.261614 -0.120092 -0 0.255136 -0 0.258318)
(0.270313 -0.123739 -0 0.261968 -0 0.266492)
(0.271874 -0.123581 -0 0.260607 -0 0.265649)
(0.258621 -0.0675323 -0 0.250735 -0 0.254174)
(0.165016 -0.0213426 -0 0.161948 -0 0.163403)
(0.18169 -0.00769398 -0 0.18051 -0 0.181069)
(0.277965 -0.07822 -0 0.270763 -0 0.275368)
(0.0232923 -8.38195e-05 -0 0.0232869 -0 0.0232906)
(6.66781e-16 -2.37453e-18 -0 6.6655e-16 -0 6.66669e-16)
(6.66792e-16 -2.33634e-18 -0 6.66539e-16 -0 6.66669e-16)
(6.66793e-16 -2.29526e-18 -0 6.66538e-16 -0 6.66669e-16)
(6.66794e-16 -2.25654e-18 -0 6.66536e-16 -0 6.66669e-16)
(6.66798e-16 -2.21428e-18 -0 6.66534e-16 -0 6.66668e-16)
(1.54784e-15 -5.04947e-18 -0 1.5472e-15 -0 1.54753e-15)
(7.72809e-15 -1.20712e-29 -0 7.72809e-15 -0 7.72809e-15)
(9.82462e-16 -1.98535e-31 -0 9.82462e-16 -0 9.82462e-16)
(0.275169 -0.12372 -0 0.258483 -0 0.26636)
(0.261539 -0.118807 -0 0.24961 -0 0.256326)
(0.25796 -0.117638 -0 0.248528 -0 0.253076)
(0.256961 -0.117555 -0 0.249099 -0 0.252789)
(0.256273 -0.11755 -0 0.249591 -0 0.252832)
(0.255944 -0.117588 -0 0.249975 -0 0.252958)
(0.255862 -0.117636 -0 0.250218 -0 0.253077)
(0.255639 -0.117629 -0 0.250391 -0 0.253053)
(0.255913 -0.117695 -0 0.250451 -0 0.253162)
(0.255657 -0.117765 -0 0.250831 -0 0.253446)
(0.257737 -0.118361 -0 0.251642 -0 0.254495)
(0.177253 -0.0047639 -0 0.176937 -0 0.177084)
(0.0190349 -1.8565e-05 -0 0.0190338 -0 0.0190344)
(0.163683 -0.00348345 -0 0.163464 -0 0.16357)
(0.249678 -0.0930416 -0 0.244478 -0 0.247018)
(0.258375 -0.118686 -0 0.252298 -0 0.255297)
(0.257621 -0.11859 -0 0.252377 -0 0.255289)
(0.257386 -0.118638 -0 0.25271 -0 0.255463)
(0.257911 -0.118731 -0 0.252781 -0 0.25549)
(0.258632 -0.1189 -0 0.252859 -0 0.25583)
(0.259501 -0.119101 -0 0.252955 -0 0.256226)
(0.260195 -0.11932 -0 0.253134 -0 0.256817)
(0.261548 -0.119741 -0 0.25365 -0 0.257742)
(0.267417 -0.122089 -0 0.258211 -0 0.262603)
(0.273394 -0.124663 -0 0.263243 -0 0.268307)
(0.246399 -0.0986826 -0 0.237118 -0 0.241759)
(0.263846 -0.090591 -0 0.25437 -0 0.258854)
(0.0339306 -0.000834208 -0 0.0338406 -0 0.033887)
(0.20105 -0.0299452 -0 0.19789 -0 0.199741)
(0.0261998 -0.00198886 -0 0.0259687 -0 0.0260846)
(0.0707856 -0.00145982 -0 0.0706059 -0 0.070691)
(0.00413822 -1.90424e-05 -0 0.00413595 -0 0.00413716)
(0.00243799 -1.11319e-05 -0 0.00243658 -0 0.00243727)
(6.66868e-16 -3.02247e-18 -0 6.66468e-16 -0 6.66664e-16)
(6.66872e-16 -3.0058e-18 -0 6.66461e-16 -0 6.66667e-16)
(6.66875e-16 -2.97922e-18 -0 6.66457e-16 -0 6.66668e-16)
(6.66881e-16 -2.96128e-18 -0 6.66451e-16 -0 6.66668e-16)
(6.66884e-16 -2.94353e-18 -0 6.66447e-16 -0 6.66669e-16)
(6.66667e-16 -5.5559e-32 -0 6.66667e-16 -0 6.66667e-16)
(6.66667e-16 -9.21571e-33 -0 6.66667e-16 -0 6.66667e-16)
(0.23739 -0.116594 -0 0.275197 -0 0.250403)
(0.254938 -0.118072 -0 0.25166 -0 0.255341)
(0.257956 -0.117734 -0 0.248969 -0 0.253202)
(0.257886 -0.117665 -0 0.248594 -0 0.253243)
(0.257778 -0.11767 -0 0.248687 -0 0.253265)
(0.257899 -0.117665 -0 0.248713 -0 0.253098)
(0.258323 -0.117891 -0 0.249249 -0 0.253578)
(0.257935 -0.117805 -0 0.249186 -0 0.253435)
(0.258242 -0.118019 -0 0.249766 -0 0.253895)
(0.262869 -0.12004 -0 0.253918 -0 0.258203)
(0.256298 -0.122277 -0 0.246816 -0 0.251501)
(0.0017917 -8.9377e-08 -0 0.0017917 -0 0.0017917)
(9.83921e-05 -2.81383e-10 -0 9.8392e-05 -0 9.8392e-05)
(0.0021192 -1.36448e-07 -0 0.00211919 -0 0.00211919)
(0.0332468 -3.91559e-05 -0 0.0332437 -0 0.0332452)
(0.168484 -0.00264258 -0 0.168274 -0 0.168373)
(0.249136 -0.055173 -0 0.244593 -0 0.24677)
(0.259662 -0.134758 -0 0.248157 -0 0.253562)
(0.26185 -0.119299 -0 0.251833 -0 0.256666)
(0.260779 -0.118843 -0 0.250836 -0 0.255786)
(0.261424 -0.119082 -0 0.251233 -0 0.256318)
(0.262229 -0.119206 -0 0.251202 -0 0.256464)
(0.267286 -0.121917 -0 0.255074 -0 0.260724)
(0.23046 -0.0385443 -0 0.226419 -0 0.228275)
(0.0901134 -0.0407806 -0 0.0855805 -0 0.0878088)
(0.206276 -0.0932702 -0 0.19557 -0 0.200887)
(0.00264964 -6.25777e-06 -0 0.00264891 -0 0.00264927)
(0.00287019 -9.16605e-07 -0 0.00287008 -0 0.00287013)
(0.04715 -0.000113476 -0 0.0471368 -0 0.0471428)
(0.148032 -0.00368572 -0 0.147589 -0 0.147798)
(0.0647686 -0.000260333 -0 0.0647353 -0 0.0647517)
(0.025865 -0.000103821 -0 0.0258509 -0 0.0258579)
(0.0216622 -8.73106e-05 -0 0.0216497 -0 0.0216558)
(0.0034334 -1.39039e-05 -0 0.00343133 -0 0.00343233)
(0.00266155 -1.08118e-05 -0 0.00265989 -0 0.0026607)
(0.00529423 -2.15716e-05 -0 0.00529086 -0 0.00529251)
(6.66887e-16 -2.7253e-18 -0 6.6645e-16 -0 6.66663e-16)
(6.66889e-16 -2.73303e-18 -0 6.66447e-16 -0 6.66664e-16)
(6.66667e-16 -4.83615e-33 -0 6.66667e-16 -0 6.66667e-16)
(6.66667e-16 -9.57492e-34 -0 6.66667e-16 -0 6.66667e-16)
(0.161716 -0.0644729 -0 0.354552 -0 0.240572)
(0.172614 -0.0845744 -0 0.299919 -0 0.288232)
(0.259928 -0.117718 -0 0.2484 -0 0.252161)
(0.262267 -0.11754 -0 0.245458 -0 0.252578)
(0.260398 -0.117652 -0 0.246901 -0 0.253003)
(0.238438 -0.00303971 -0 0.238184 -0 0.23832)
(0.114466 -0.000105666 -0 0.114458 -0 0.114463)
(0.238344 -0.00439409 -0 0.237958 -0 0.238165)
(0.256443 -0.0516419 -0 0.251786 -0 0.254175)
(0.163982 -0.0059285 -0 0.163441 -0 0.163733)
(0.0230246 -7.18849e-06 -0 0.0230239 -0 0.0230243)
(1.76134e-06 -4.57318e-14 -0 1.76134e-06 -0 1.76134e-06)
(2.54119e-07 -5.96921e-16 -0 2.54119e-07 -0 2.54119e-07)
(6.44322e-06 -3.70279e-13 -0 6.44322e-06 -0 6.44322e-06)
(7.96556e-05 -6.00334e-11 -0 7.96556e-05 -0 7.96556e-05)
(0.00110045 -1.22269e-08 -0 0.00110045 -0 0.00110045)
(0.0276831 -9.06209e-06 -0 0.0276822 -0 0.0276826)
(0.0683856 -7.07888e-05 -0 0.0683782 -0 0.0683818)
(0.222527 -0.00558395 -0 0.221886 -0 0.22221)
(0.263082 -0.118623 -0 0.248184 -0 0.255551)
(0.268859 -0.121063 -0 0.252804 -0 0.260722)
(0.27051 -0.125791 -0 0.253811 -0 0.262055)
(0.0547194 -0.00164666 -0 0.0545058 -0 0.0546145)
(0.0711282 -0.000394625 -0 0.0710756 -0 0.0711043)
(0.198331 -0.00778641 -0 0.197259 -0 0.197805)
(0.212716 -0.0955785 -0 0.199384 -0 0.206033)
(0.00149606 -3.18206e-08 -0 0.00149605 -0 0.00149605)
(0.000223568 -8.59385e-10 -0 0.000223568 -0 0.000223568)
(0.00121149 -2.87686e-08 -0 0.00121149 -0 0.00121149)
(0.0925118 -0.000893459 -0 0.0923847 -0 0.0924469)
(0.0732989 -0.000132623 -0 0.0732795 -0 0.073289)
(0.0521007 -9.4105e-05 -0 0.0520864 -0 0.0520935)
(0.0129247 -2.36347e-05 -0 0.012921 -0 0.0129228)
(0.011955 -2.21389e-05 -0 0.0119514 -0 0.0119532)
(0.0464258 -0.000263954 -0 0.0463819 -0 0.0464034)
(0.098297 -0.000683085 -0 0.0981824 -0 0.0982389)
(0.0196892 -3.76525e-05 -0 0.0196828 -0 0.0196859)
(0.000331851 -6.4075e-07 -0 0.000331742 -0 0.000331796)
(0.00152535 -5.17057e-07 -0 0.00152526 -0 0.00152531)
(0.000311853 -2.41346e-24 -0 0.000311853 -0 0.000311853)
(0.146787 -0.0327503 -0 0.36844 -0 0.239477)
(0.16774 0.0847687 -0 0.314835 -0 0.27674)
(0.264156 0.111139 -0 0.256624 -0 0.239061)
(0.316046 -0.0328767 -0 0.220066 -0 0.223794)
(0.255132 -0.00464334 -0 0.253814 -0 0.254741)
(0.00175973 -7.43932e-10 -0 0.00175973 -0 0.00175973)
(0.000153458 -7.84498e-12 -0 0.000153458 -0 0.000153458)
(0.000461987 -3.32084e-10 -0 0.000461987 -0 0.000461987)
(0.0531214 -5.75143e-06 -0 0.0531205 -0 0.053121)
(0.00132274 -1.16796e-09 -0 0.00132274 -0 0.00132274)
(6.12063e-05 -3.69251e-12 -0 6.12063e-05 -0 6.12063e-05)
(5.7586e-09 -2.95396e-20 -0 5.7586e-09 -0 5.7586e-09)
(6.47109e-10 -4.33286e-22 -0 6.47109e-10 -0 6.47109e-10)
(1.81316e-09 -3.98081e-20 -0 1.81316e-09 -0 1.81316e-09)
(2.07264e-07 -7.32962e-17 -0 2.07264e-07 -0 2.07264e-07)
(4.85181e-06 -3.12972e-14 -0 4.85181e-06 -0 4.85181e-06)
(7.06434e-05 -6.74567e-12 -0 7.06434e-05 -0 7.06434e-05)
(0.000236737 -8.32235e-11 -0 0.000236737 -0 0.000236737)
(0.0059758 -5.73896e-08 -0 0.00597579 -0 0.00597579)
(0.12082 -6.38195e-05 -0 0.120803 -0 0.120811)
(0.127474 -0.000314679 -0 0.127398 -0 0.127434)
(0.0285282 -0.000457382 -0 0.0284152 -0 0.0284736)
(0.0217564 -1.94183e-06 -0 0.0217559 -0 0.0217561)
(0.0300243 -3.02394e-06 -0 0.0300235 -0 0.0300239)
(4.55323e-05 -5.58914e-12 -0 4.55323e-05 -0 4.55323e-05)
(0.00860244 -2.22948e-07 -0 0.00860239 -0 0.00860242)
(0.00175539 -9.23155e-09 -0 0.00175538 -0 0.00175538)
(0.00212624 -1.59965e-08 -0 0.00212623 -0 0.00212623)
(0.188033 -0.0824321 -0 0.168726 -0 0.178699)
(0.165541 -0.00162095 -0 0.165183 -0 0.165374)
(0.166167 -0.00035853 -0 0.166088 -0 0.166128)
(0.0330416 -1.13086e-05 -0 0.0330392 -0 0.0330405)
(0.0417096 -1.46213e-05 -0 0.0417065 -0 0.0417081)
(0.0627307 -2.25125e-05 -0 0.0627259 -0 0.0627285)
(0.0302593 -5.66418e-06 -0 0.0302581 -0 0.0302588)
(0.0432387 -2.4416e-05 -0 0.0432335 -0 0.0432363)
(0.0139769 -5.33155e-06 -0 0.0139758 -0 0.0139764)
(0.00349467 -1.35947e-06 -0 0.00349438 -0 0.00349453)
(4.59586e-05 -1.32567e-08 -0 4.59559e-05 -0 4.59573e-05)
(6.6667e-16 -3.33479e-20 -0 6.66663e-16 -0 6.66667e-16)
(0.154294 -0.0460661 -0 0.363468 -0 0.235204)
(0.166049 0.0835344 -0 0.325669 -0 0.270747)
(0.194058 0.10346 -0 0.29876 -0 0.267293)
(0.248815 0.0219827 -0 0.259722 -0 0.251776)
(0.026432 5.59565e-08 -0 0.026432 -0 0.026432)
(1.27684e-06 1.17644e-16 -0 1.27684e-06 -0 1.27684e-06)
(1.76201e-08 1.71416e-19 -0 1.76201e-08 -0 1.76201e-08)
(7.22636e-05 4.68508e-15 -0 7.22636e-05 -0 7.22636e-05)
(0.00792892 3.92129e-09 -0 0.00792891 -0 0.00792891)
(0.000188042 3.57429e-14 -0 0.000188042 -0 0.000188042)
(9.79403e-08 1.49697e-19 -0 9.79403e-08 -0 9.79403e-08)
(1.30081e-11 6.88133e-28 -0 1.30081e-11 -0 1.30081e-11)
(2.03269e-12 -9.10557e-30 -0 2.03269e-12 -0 2.03269e-12)
(7.11413e-11 -5.30221e-26 -0 7.11413e-11 -0 7.11413e-11)
(1.02864e-09 -2.95619e-23 -0 1.02864e-09 -0 1.02864e-09)
(2.32201e-09 -2.82345e-21 -0 2.32201e-09 -0 2.32201e-09)
(2.26258e-07 -6.7958e-18 -0 2.26258e-07 -0 2.26258e-07)
(5.51599e-07 -3.17708e-17 -0 5.51599e-07 -0 5.51599e-07)
(1.33341e-05 -2.56586e-14 -0 1.33341e-05 -0 1.33341e-05)
(9.54807e-05 -1.371e-11 -0 9.54806e-05 -0 9.54806e-05)
(0.023371 -1.57619e-07 -0 0.0233708 -0 0.0233709)
(0.0103414 -2.71217e-08 -0 0.0103414 -0 0.0103414)
(0.00231514 -1.46736e-09 -0 0.00231514 -0 0.00231514)
(1.01867e-05 -3.13406e-14 -0 1.01867e-05 -0 1.01867e-05)
(2.16514e-06 -1.54494e-15 -0 2.16514e-06 -0 2.16514e-06)
(8.5156e-07 -2.64038e-16 -0 8.5156e-07 -0 8.5156e-07)
(2.02397e-07 -1.5679e-17 -0 2.02397e-07 -0 2.02397e-07)
(9.9439e-07 -4.26236e-16 -0 9.9439e-07 -0 9.9439e-07)
(0.0431872 -0.0176582 -0 0.0349189 -0 0.0389026)
(0.158331 -0.0649963 -0 0.127665 -0 0.145048)
(0.122068 -2.21944e-05 -0 0.122059 -0 0.122064)
(0.0584968 -2.87249e-06 -0 0.0584957 -0 0.0584962)
(0.0139053 -7.12535e-07 -0 0.013905 -0 0.0139051)
(0.00699998 -3.70427e-07 -0 0.00699988 -0 0.00699993)
(0.0221688 -1.20706e-06 -0 0.0221685 -0 0.0221687)
(0.0134336 -7.51015e-07 -0 0.0134334 -0 0.0134335)
(0.0498921 -5.71056e-06 -0 0.0498908 -0 0.0498915)
(0.0268933 -1.57309e-06 -0 0.026893 -0 0.0268932)
(0.0062933 -3.38956e-07 -0 0.00629324 -0 0.00629327)
(0.000196972 -1.14363e-08 -0 0.000196971 -0 0.000196972)
(0.220462 -0.028247 -0 0.297044 -0 0.246746)
(0.111658 8.81932e-05 -0 0.111974 -0 0.111834)
(0.161127 0.00012631 -0 0.161293 -0 0.161235)
(0.00205472 5.50606e-10 -0 0.00205472 -0 0.00205472)
(3.92469e-05 1.37077e-12 -0 3.92469e-05 -0 3.92469e-05)
(5.99593e-10 3.98197e-23 -0 5.99593e-10 -0 5.99593e-10)
(5.10953e-11 5.03251e-25 -0 5.10953e-11 -0 5.10953e-11)
(4.28978e-10 2.54151e-23 -0 4.28978e-10 -0 4.28978e-10)
(4.30578e-10 3.94702e-15 -0 4.30578e-10 -0 4.30578e-10)
(2.08096e-09 4.24834e-22 -0 2.08096e-09 -0 2.08096e-09)
(2.2389e-10 3.95882e-24 -0 2.2389e-10 -0 2.2389e-10)
(2.38755e-09 3.91336e-22 -0 2.38755e-09 -0 2.38755e-09)
(2.41515e-11 3.44914e-26 -0 2.41515e-11 -0 2.41515e-11)
(8.68685e-10 3.70551e-23 -0 8.68685e-10 -0 8.68685e-10)
(1.39781e-08 7.32218e-21 -0 1.39781e-08 -0 1.39781e-08)
(8.49054e-06 1.59623e-15 -0 8.49054e-06 -0 8.49054e-06)
(1.22705e-08 7.44834e-22 -0 1.22705e-08 -0 1.22705e-08)
(8.59241e-10 -2.59417e-23 -0 8.59241e-10 -0 8.59241e-10)
(5.08308e-08 -1.24355e-19 -0 5.08308e-08 -0 5.08308e-08)
(0.000863573 -3.66762e-11 -0 0.000863573 -0 0.000863573)
(0.00112702 -7.93013e-11 -0 0.00112702 -0 0.00112702)
(1.30195e-05 -1.3737e-14 -0 1.30195e-05 -0 1.30195e-05)
(2.94841e-06 -7.90613e-16 -0 2.94841e-06 -0 2.94841e-06)
(3.1222e-08 -1.1173e-19 -0 3.1222e-08 -0 3.1222e-08)
(7.23484e-09 -6.02369e-21 -0 7.23484e-09 -0 7.23484e-09)
(3.35902e-08 -1.67166e-19 -0 3.35902e-08 -0 3.35902e-08)
(6.32307e-06 -9.57441e-15 -0 6.32307e-06 -0 6.32307e-06)
(0.183806 -0.0872742 -0 0.191009 -0 0.188795)
(0.166823 -0.0814711 -0 0.188949 -0 0.174999)
(0.057056 -0.0285457 -0 0.0696172 -0 0.0620733)
(0.073955 -4.712e-06 -0 0.0739572 -0 0.0739562)
(0.0180478 -3.38228e-07 -0 0.0180479 -0 0.0180479)
(6.66664e-16 -1.31141e-20 -0 6.6667e-16 -0 6.66667e-16)
(6.66663e-16 -1.35208e-20 -0 6.6667e-16 -0 6.66667e-16)
(0.000325709 -6.77728e-09 -0 0.000325713 -0 0.000325711)
(0.000181116 -3.85492e-09 -0 0.000181118 -0 0.000181117)
(0.000617059 -1.34123e-08 -0 0.000617068 -0 0.000617063)
(0.00605553 -1.34039e-07 -0 0.00605562 -0 0.00605558)
(0.0228251 -5.15318e-07 -0 0.0228255 -0 0.0228253)
(0.00528698 -1.20769e-07 -0 0.00528707 -0 0.00528702)
(0.108858 -5.8902e-07 -0 0.108859 -0 0.108858)
(0.0124051 -2.94208e-08 -0 0.0124055 -0 0.0124053)
(1.15041e-06 9.49588e-15 -0 1.15041e-06 -0 1.15041e-06)
(1.11082e-08 4.60429e-21 -0 1.11082e-08 -0 1.11082e-08)
(1.39862e-09 9.19054e-23 -0 1.39862e-09 -0 1.39862e-09)
(9.74619e-14 7.51202e-31 -0 9.74619e-14 -0 9.74619e-14)
(4.15502e-12 5.00199e-30 -0 4.15502e-12 -0 4.15502e-12)
(3.24569e-11 1.72712e-28 -0 3.24569e-11 -0 3.24569e-11)
(0.00300002 5.61114e-08 -0 0.00300015 -0 0.00300009)
(1.36959e-10 2.05702e-27 -0 1.36959e-10 -0 1.36959e-10)
(3.87264e-13 3.91244e-33 -0 3.87264e-13 -0 3.87264e-13)
(4.86639e-12 -1.89882e-28 -0 4.86639e-12 -0 4.86639e-12)
(7.31375e-11 -8.59737e-26 -0 7.31375e-11 -0 7.31375e-11)
(9.73463e-10 -2.26778e-23 -0 9.73463e-10 -0 9.73463e-10)
(1.58602e-08 -8.11194e-21 -0 1.58602e-08 -0 1.58602e-08)
(5.49874e-09 -1.2152e-21 -0 5.49874e-09 -0 5.49874e-09)
(2.03028e-11 -2.03532e-26 -0 2.03028e-11 -0 2.03028e-11)
(2.62769e-12 -6.98535e-28 -0 2.62769e-12 -0 2.62769e-12)
(3.87999e-08 -2.5387e-22 -0 3.87999e-08 -0 3.87999e-08)
(1.58535e-07 -2.53615e-18 -0 1.58535e-07 -0 1.58535e-07)
(1.2608e-06 -1.38912e-16 -0 1.2608e-06 -0 1.2608e-06)
(3.15633e-08 -8.33433e-20 -0 3.15633e-08 -0 3.15633e-08)
(7.63839e-09 -5.77933e-21 -0 7.63839e-09 -0 7.63839e-09)
(4.91337e-11 -2.15372e-25 -0 4.91337e-11 -0 4.91337e-11)
(1.19745e-11 -1.68785e-26 -0 1.19745e-11 -0 1.19745e-11)
(4.82612e-11 -3.7478e-25 -0 4.82612e-11 -0 4.82612e-11)
(0.136275 -0.0653985 -0 0.247209 -0 0.177422)
(3.65525e-15 -1.13387e-33 -0 3.65525e-15 -0 3.65525e-15)
(0.0164438 -0.00827525 -0 0.0322652 -0 0.0255542)
(0.0350106 -0.0173257 -0 0.0676852 -0 0.0509604)
(0.00712008 -3.13806e-07 -0 0.00712068 -0 0.00712037)
(0.0306534 -3.80044e-07 -0 0.0306541 -0 0.0306538)
(0.00708615 -9.01107e-08 -0 0.00708632 -0 0.00708624)
(6.66658e-16 -8.58986e-21 -0 6.66675e-16 -0 6.66667e-16)
(9.4925e-05 -1.23547e-09 -0 9.49274e-05 -0 9.49262e-05)
(2.39513e-06 -3.14291e-11 -0 2.3952e-06 -0 2.39517e-06)
(6.66658e-16 -8.81921e-21 -0 6.66676e-16 -0 6.66667e-16)
(6.66657e-16 -8.87346e-21 -0 6.66676e-16 -0 6.66667e-16)
(0.000136835 -1.843e-09 -0 0.000136839 -0 0.000136837)
(6.66667e-16 -1.29957e-22 -4.07343e-44 6.66667e-16 -0 6.66667e-16)
(0.0938521 -2.65253e-07 -0 0.0938524 -0 0.0938523)
(1.07967e-08 -2.06933e-14 -0 1.07967e-08 -0 1.07967e-08)
(5.38673e-08 -4.28012e-20 -0 5.38673e-08 -0 5.38673e-08)
(5.57352e-13 -3.89431e-30 -0 5.57352e-13 -0 5.57352e-13)
(2.31859e-13 -4.75095e-31 -0 2.31859e-13 -0 2.31859e-13)
(6.66667e-16 -4.09154e-37 -0 6.66667e-16 -0 6.66667e-16)
(6.66667e-16 -1.21284e-37 -0 6.66667e-16 -0 6.66667e-16)
(6.66667e-16 -7.91131e-37 -0 6.66667e-16 -0 6.66667e-16)
(0.0430361 -0.0138371 -0 0.106821 -0 0.0744522)
(6.66667e-16 -3.82827e-35 -0 6.66667e-16 -0 6.66667e-16)
(6.66667e-16 -1.10687e-35 -0 6.66667e-16 -0 6.66667e-16)
(6.07776e-15 -1.01058e-33 -0 6.07776e-15 -0 6.07776e-15)
(4.03768e-14 -1.04363e-31 -0 4.03768e-14 -0 4.03768e-14)
(4.16757e-13 -1.25732e-29 -0 4.16757e-13 -0 4.16757e-13)
(5.30457e-12 -2.50023e-27 -0 5.30457e-12 -0 5.30457e-12)
(1.98345e-11 -4.47291e-26 -0 1.98345e-11 -0 1.98345e-11)
(2.47882e-15 -1.26635e-33 -0 2.47882e-15 -0 2.47882e-15)
(2.30405e-15 -2.95723e-34 -0 2.30405e-15 -0 2.30405e-15)
(3.18648e-14 -4.85289e-32 -0 3.18648e-14 -0 3.18648e-14)
(2.86652e-09 -2.80148e-24 -0 2.86652e-09 -0 2.86652e-09)
(2.09386e-08 -4.93558e-22 -0 2.09386e-08 -0 2.09386e-08)
(1.05037e-07 -1.77479e-22 -0 1.05037e-07 -0 1.05037e-07)
(2.31879e-12 -9.76564e-28 -0 2.31879e-12 -0 2.31879e-12)
(2.1053e-14 -2.94863e-32 -0 2.1053e-14 -0 2.1053e-14)
(6.81427e-15 -2.24849e-33 -0 6.81427e-15 -0 6.81427e-15)
(2.77173e-14 -4.33905e-32 -0 2.77173e-14 -0 2.77173e-14)
(6.66667e-16 -3.08253e-36 -0 6.66667e-16 -0 6.66667e-16)
(6.93777e-16 -1.04786e-36 -0 6.93777e-16 -0 6.93777e-16)
(6.66667e-16 -5.19239e-36 -0 6.66667e-16 -0 6.66667e-16)
(0.102704 -0.0246428 -0 0.240961 -0 0.150114)
(4.93711e-14 -1.95866e-31 -0 4.93711e-14 -0 4.93711e-14)
(0.0380534 -1.62371e-07 -0 0.0380544 -0 0.038054)
(0.00891932 -3.87206e-08 -0 0.00891955 -0 0.00891944)
(0.00525961 -3.11836e-08 -0 0.00525978 -0 0.00525969)
(0.019601 -1.83241e-07 -0 0.019602 -0 0.0196014)
(0.000539861 -2.30132e-09 -0 0.000539874 -0 0.000539867)
(0.000127243 -5.38401e-10 -0 0.000127246 -0 0.000127244)
(6.66658e-16 -2.79975e-21 -0 6.66675e-16 -0 6.66667e-16)
(6.66658e-16 -2.81288e-21 -0 6.66675e-16 -0 6.66667e-16)
(6.66658e-16 -2.77438e-21 1.60026e-42 6.66676e-16 -0 6.66667e-16)
(0.0894359 -1.60564e-08 -0 0.089436 -0 0.0894359)
(6.66666e-16 -2.38822e-22 -0 6.66668e-16 -0 6.66667e-16)
(3.05543e-09 -1.84662e-17 -0 3.05543e-09 -0 3.05543e-09)
(1.6295e-13 -6.41122e-31 -0 1.6295e-13 -0 1.6295e-13)
(6.13866e-15 -2.64823e-33 -0 6.13866e-15 -0 6.13866e-15)
(1.43307e-15 -5.62623e-35 -0 1.43307e-15 -0 1.43307e-15)
(6.66667e-16 -6.01375e-36 -0 6.66667e-16 -0 6.66667e-16)
(6.66667e-16 -3.63638e-35 -0 6.66667e-16 -0 6.66667e-16)
(0.0828116 -0.0316786 -0 0.195732 -0 0.139136)
(0.0814717 -0.0282827 -0 0.192386 -0 0.130149)
(1.90607e-14 -1.05137e-32 -0 1.90607e-14 -0 1.90607e-14)
(4.65129e-15 -2.70169e-32 -0 4.65129e-15 -0 4.65129e-15)
(3.77849e-09 -5.8319e-16 -0 3.77849e-09 -0 3.77849e-09)
(1.64194e-08 -1.01623e-20 -0 1.64194e-08 -0 1.64194e-08)
(7.04503e-08 -1.61168e-19 -0 7.04503e-08 -0 7.04503e-08)
(1.52479e-08 -2.56556e-15 -0 1.52479e-08 -0 1.52479e-08)
(1.85261e-11 -7.81247e-25 -0 1.85261e-11 -0 1.85261e-11)
(7.76071e-11 -7.7595e-25 -0 7.76071e-11 -0 7.76071e-11)
(0.000238207 -9.88586e-12 -0 0.000238207 -0 0.000238207)
(5.32144e-05 -2.13737e-18 -0 5.32144e-05 -0 5.32144e-05)
(1.96592e-06 -9.62271e-17 -0 1.96592e-06 -0 1.96592e-06)
(8.02111e-06 -1.80247e-15 -0 8.02111e-06 -0 8.02111e-06)
(5.63066e-11 -1.03363e-24 -0 5.63066e-11 -0 5.63066e-11)
(1.27946e-11 -2.10632e-15 -0 1.28081e-11 -0 1.28014e-11)
(0.028842 -6.79956e-19 -0 0.028842 -0 0.028842)
(0.0667582 -0.013776 -0 0.16939 -0 0.110297)
(0.0150651 -0.00255959 -0 0.0390631 -0 0.0255933)
(0.00017352 -1.23959e-23 -0 0.00017352 -0 0.00017352)
(5.62916e-05 -2.44296e-10 -0 5.62939e-05 -0 5.62928e-05)
(9.80982e-16 -6.13602e-35 -0 9.80982e-16 -0 9.80982e-16)
(6.66667e-16 -9.80428e-36 -0 6.66667e-16 -0 6.66667e-16)
(0.00020692 -3.18166e-10 -0 0.000206923 -0 0.000206922)
(0.012572 -2.19118e-08 -0 0.0125722 -0 0.0125721)
(0.049203 -8.31129e-08 -0 0.049204 -0 0.0492035)
(0.0116145 -3.09985e-09 -0 0.0116145 -0 0.0116145)
(2.0637e-06 -2.11401e-12 -0 2.06372e-06 -0 2.06371e-06)
(6.66653e-16 -2.29118e-21 -0 6.66681e-16 -0 6.66667e-16)
(6.66644e-16 -3.66103e-21 -0 6.6669e-16 -0 6.66667e-16)
(6.66572e-16 -1.46283e-20 -0 6.66761e-16 -0 6.66666e-16)
(6.66667e-16 -1.08361e-35 8.24826e-55 6.66667e-16 -0 6.66667e-16)
(0.0770729 1.51285e-07 -0 0.0770732 -0 0.077073)
(6.66663e-16 -2.26936e-23 -0 6.6667e-16 -0 6.66667e-16)
(6.66667e-16 -6.14098e-24 -0 6.66667e-16 -0 6.66667e-16)
(6.66667e-16 -4.36983e-36 -0 6.66667e-16 -0 6.66667e-16)
(6.66667e-16 -8.98198e-38 -0 6.66667e-16 -0 6.66667e-16)
(6.66667e-16 -5.08446e-37 -0 6.66667e-16 -0 6.66667e-16)
(1.50874e-15 -4.8692e-34 -0 1.50874e-15 -0 1.50874e-15)
(0.00107196 -0.000512721 -0 0.00218092 -0 0.00161961)
(0.0213497 -0.0101795 -0 0.0434438 -0 0.0321369)
(0.0249932 -0.0117808 -0 0.0514764 -0 0.0378972)
(0.00726364 -4.97162e-07 -0 0.00726482 -0 0.00726423)
(6.66655e-16 -9.49566e-21 -0 6.66678e-16 -0 6.66667e-16)
(6.66657e-16 -8.00436e-21 -0 6.66677e-16 -0 6.66667e-16)
(5.18534e-10 -6.97906e-16 -0 5.18535e-10 -0 5.18534e-10)
(2.06226e-09 -3.57996e-17 -0 2.06226e-09 -0 2.06226e-09)
(6.66667e-16 -5.53543e-23 -0 6.66667e-16 -0 6.66667e-16)
(6.66658e-16 -6.2625e-21 -0 6.66675e-16 -0 6.66667e-16)
(7.21807e-09 -2.13287e-14 -0 7.21813e-09 -0 7.2181e-09)
(6.91659e-06 -2.67669e-11 -0 6.91667e-06 -0 6.91663e-06)
(7.8212e-06 -7.43026e-14 -0 7.8212e-06 -0 7.8212e-06)
(3.32311e-12 -3.33557e-27 -0 3.32311e-12 -0 3.32311e-12)
(0.0195489 -0.007832 -0 0.0448535 -0 0.0316621)
(1.17369e-08 -1.95282e-20 -0 1.17369e-08 -0 1.17369e-08)
(2.5981e-09 -9.43304e-15 -0 2.59814e-09 -0 2.59812e-09)
(6.66666e-16 -3.28212e-22 -0 6.66667e-16 -0 6.66667e-16)
(0.00181998 -2.0494e-17 -0 0.00181998 -0 0.00181998)
(0.0017615 -1.2406e-09 -0 0.0017615 -0 0.0017615)
(0.0167826 -6.28294e-08 -0 0.0167829 -0 0.0167828)
(0.00593942 -2.15005e-08 -0 0.0059395 -0 0.00593946)
(0.00135599 -2.28933e-25 -0 0.00135599 -0 0.00135599)
(6.66667e-16 -2.76785e-38 -0 6.66667e-16 -0 6.66667e-16)
(6.66667e-16 -7.0913e-41 -0 6.66667e-16 -0 6.66667e-16)
(6.66667e-16 -7.61898e-40 -0 6.66667e-16 -0 6.66667e-16)
(0.000301215 -4.39236e-13 -0 0.000301215 -0 0.000301215)
(1.46575e-05 -9.08009e-14 -0 1.46575e-05 -0 1.46575e-05)
(3.40863e-06 -1.48889e-27 -0 3.40863e-06 -0 3.40863e-06)
(6.66667e-16 -4.48384e-40 -0 6.66667e-16 -0 6.66667e-16)
(6.66667e-16 -7.84067e-43 -0 6.66667e-16 -0 6.66667e-16)
(6.66667e-16 -3.28502e-45 -0 6.66667e-16 -0 6.66667e-16)
(6.66667e-16 -8.37309e-38 -4.73089e-57 6.66667e-16 -0 6.66667e-16)
(0.0633734 3.68837e-07 -0 0.0633742 -0 0.0633737)
(6.66659e-16 -1.41964e-21 -0 6.66675e-16 -0 6.66667e-16)
(6.66667e-16 -7.86585e-24 -0 6.66667e-16 -0 6.66667e-16)
(6.66667e-16 -1.16586e-38 -0 6.66667e-16 -0 6.66667e-16)
(6.66667e-16 -4.529e-41 -0 6.66667e-16 -0 6.66667e-16)
(6.66667e-16 -1.42336e-40 -0 6.66667e-16 -0 6.66667e-16)
(0.00472708 -0.00245024 -0 0.00748969 -0 0.00595655)