/*--------------------------------*- C++ -*----------------------------------*\
| =========                 |                                                 |
| \\      /  F ield         | OpenFOAM: The Open Source CFD Toolbox           |
|  \\    /   O peration     | Version:  2112                                  |
|   \\  /    A nd           | Website:  www.openfoam.com                      |
|    \\/     M anipulation  |                                                 |
\*---------------------------------------------------------------------------*/
FoamFile
{
    version     2.0;
    format      ascii;
    arch        "LSB;label=32;scalar=64";
    class       volVectorField;
    location    "0.21";
    object      U_0;
}
// * * * * * * * * * * * * * * * * * * * * * * * * * * * * * * * * * * * * * //

dimensions      [0 1 -1 0 0 0 0];

internalField   nonuniform List<vector> 
12225
(
(9.84752 0.0346916 0)
(9.58728 0.0550912 0)
(9.32339 0.0583226 0)
(9.06173 0.0579833 0)
(8.81525 0.0563582 0)
(8.58665 0.0537129 0)
(8.37466 0.0504383 0)
(8.17726 0.0472371 0)
(7.99502 0.0437622 0)
(7.82532 0.0409025 0)
(7.67115 0.0374076 0)
(7.5257 0.0355363 0)
(7.39843 0.0311197 0)
(7.27267 0.0317285 0)
(7.17312 0.0233313 0)
(7.0619 0.0315226 0)
(6.9926 0.00878052 0)
(6.89473 0.0402204 0)
(10.0151 0.0444808 0)
(10.06 0.0637822 0)
(10.0738 0.0617025 0)
(10.063 0.0602252 0)
(10.041 0.0603852 0)
(10.0122 0.0604359 0)
(9.97817 0.0601183 0)
(9.93887 0.0593511 0)
(9.89684 0.0587511 0)
(9.85183 0.0575955 0)
(9.80672 0.0569747 0)
(9.75956 0.0550979 0)
(9.71442 0.0546138 0)
(9.6672 0.0516137 0)
(9.62447 0.0514537 0)
(9.57897 0.0468173 0)
(9.54053 0.0458597 0)
(9.49791 0.0383277 0)
(10.0115 0.0362308 0)
(10.0432 0.0546494 0)
(10.0646 0.0563667 0)
(10.0743 0.058327 0)
(10.0799 0.0610045 0)
(10.0841 0.0628188 0)
(10.0865 0.0635885 0)
(10.0868 0.0637404 0)
(10.0855 0.0635772 0)
(10.0827 0.063125 0)
(10.079 0.0624065 0)
(10.0741 0.0614332 0)
(10.0688 0.0600838 0)
(10.0624 0.0586974 0)
(10.0564 0.0563891 0)
(10.0489 0.0544287 0)
(10.0433 0.0502143 0)
(10.0334 0.0461192 0)
(10.0091 0.0306125 0)
(10.0327 0.0490458 0)
(10.0512 0.0532793 0)
(10.0617 0.0561842 0)
(10.0697 0.0590119 0)
(10.0772 0.0608636 0)
(10.0838 0.0617271 0)
(10.0895 0.0620024 0)
(10.0944 0.0619929 0)
(10.0986 0.0616794 0)
(10.1025 0.0611601 0)
(10.106 0.0603087 0)
(10.1092 0.0592147 0)
(10.112 0.0578336 0)
(10.1149 0.0558463 0)
(10.1173 0.0537372 0)
(10.1199 0.0500954 0)
(10.1214 0.0469197 0)
(10.0066 0.0259775 0)
(10.0265 0.0441936 0)
(10.0422 0.0499638 0)
(10.0524 0.0535174 0)
(10.0607 0.0564913 0)
(10.0685 0.0584553 0)
(10.0758 0.0594699 0)
(10.0824 0.0598859 0)
(10.0884 0.0599643 0)
(10.094 0.0597247 0)
(10.0994 0.0592313 0)
(10.1046 0.0584144 0)
(10.1095 0.0573146 0)
(10.1144 0.0558824 0)
(10.1191 0.0539548 0)
(10.1236 0.0516601 0)
(10.128 0.0485327 0)
(10.1317 0.0449896 0)
(10.0049 0.0216168 0)
(10.022 0.0395903 0)
(10.0356 0.046539 0)
(10.0454 0.0506952 0)
(10.0537 0.0538417 0)
(10.0615 0.0559075 0)
(10.0688 0.0570376 0)
(10.0756 0.057547 0)
(10.0819 0.0576688 0)
(10.0879 0.0574498 0)
(10.0936 0.0569418 0)
(10.0992 0.0561126 0)
(10.1046 0.054973 0)
(10.1099 0.0534957 0)
(10.115 0.0515675 0)
(10.1199 0.0492442 0)
(10.1244 0.0462741 0)
(10.1285 0.0427661 0)
(10.004 0.0177922 0)
(10.0183 0.0352997 0)
(10.0303 0.0430933 0)
(10.0398 0.0477417 0)
(10.048 0.0510452 0)
(10.0557 0.0531954 0)
(10.063 0.0544149 0)
(10.0698 0.0549936 0)
(10.0761 0.0551439 0)
(10.0822 0.0549303 0)
(10.0881 0.0544039 0)
(10.0937 0.0535528 0)
(10.0992 0.0523825 0)
(10.1045 0.0508734 0)
(10.1096 0.0489581 0)
(10.1145 0.0466486 0)
(10.1189 0.0438287 0)
(10.123 0.0405868 0)
(10.0032 0.0145203 0)
(10.015 0.0312768 0)
(10.0259 0.0396234 0)
(10.035 0.0446439 0)
(10.0431 0.0480834 0)
(10.0508 0.0503107 0)
(10.058 0.0516064 0)
(10.0647 0.0522436 0)
(10.0711 0.0524187 0)
(10.0772 0.0522094 0)
(10.083 0.0516693 0)
(10.0887 0.0508017 0)
(10.0941 0.0496143 0)
(10.0994 0.0480952 0)
(10.1044 0.0462101 0)
(10.1091 0.0439587 0)
(10.1134 0.0413114 0)
(10.1173 0.0383361 0)
(10.0023 0.0117854 0)
(10.0119 0.0274883 0)
(10.022 0.0361087 0)
(10.0308 0.0413926 0)
(10.0388 0.0449477 0)
(10.0464 0.0472472 0)
(10.0535 0.0486104 0)
(10.0602 0.0492994 0)
(10.0666 0.0494991 0)
(10.0727 0.0492975 0)
(10.0785 0.048752 0)
(10.0841 0.0478782 0)
(10.0895 0.0466897 0)
(10.0946 0.0451834 0)
(10.0995 0.0433485 0)
(10.104 0.0411888 0)
(10.1082 0.0387175 0)
(10.1119 0.0359935 0)
(10.0013 0.00957045 0)
(10.0093 0.0239374 0)
(10.0186 0.0325465 0)
(10.0271 0.0379888 0)
(10.0349 0.0416335 0)
(10.0424 0.0439968 0)
(10.0495 0.0454188 0)
(10.0562 0.046154 0)
(10.0625 0.0463794 0)
(10.0685 0.0461906 0)
(10.0743 0.0456492 0)
(10.0799 0.0447822 0)
(10.0852 0.0436092 0)
(10.0902 0.0421373 0)
(10.0949 0.0403718 0)
(10.0993 0.038326 0)
(10.1033 0.0360326 0)
(10.107 0.0335482 0)
(10.0007 0.00781682 0)
(10.0072 0.0206211 0)
(10.0156 0.0289676 0)
(10.0237 0.0344496 0)
(10.0314 0.0381426 0)
(10.0387 0.0405528 0)
(10.0457 0.0420225 0)
(10.0524 0.0427982 0)
(10.0587 0.0430505 0)
(10.0647 0.0428802 0)
(10.0704 0.0423535 0)
(10.0759 0.0415065 0)
(10.0811 0.0403657 0)
(10.0861 0.0389475 0)
(10.0907 0.0372686 0)
(10.095 0.0353517 0)
(10.0989 0.0332373 0)
(10.1024 0.03098 0)
(10.0004 0.00648029 0)
(10.0057 0.0178133 0)
(10.0132 0.0257166 0)
(10.0209 0.0311072 0)
(10.0284 0.0347871 0)
(10.0356 0.0372124 0)
(10.0425 0.0387099 0)
(10.0491 0.0395146 0)
(10.0554 0.0397908 0)
(10.0613 0.0396419 0)
(10.0671 0.0391376 0)
(10.0725 0.0383207 0)
(10.0776 0.0372235 0)
(10.0825 0.0358698 0)
(10.087 0.0342837 0)
(10.0913 0.0324942 0)
(10.0951 0.0305434 0)
(10.0986 0.0284844 0)
(10.0003 0.00538053 0)
(10.0046 0.015253 0)
(10.0112 0.0225608 0)
(10.0184 0.0277421 0)
(10.0256 0.031346 0)
(10.0326 0.0337526 0)
(10.0394 0.0352583 0)
(10.046 0.036082 0)
(10.0522 0.0363793 0)
(10.0582 0.0362543 0)
(10.0638 0.0357787 0)
(10.0692 0.0350007 0)
(10.0743 0.0339572 0)
(10.0791 0.0326781 0)
(10.0836 0.0311927 0)
(10.0878 0.0295341 0)
(10.0915 0.0277434 0)
(10.095 0.0258719 0)
(10.0002 0.00435002 0)
(10.0036 0.0126222 0)
(10.0093 0.0191007 0)
(10.0159 0.0238887 0)
(10.0227 0.0273064 0)
(10.0295 0.0296328 0)
(10.0362 0.0311129 0)
(10.0426 0.0319387 0)
(10.0488 0.0322527 0)
(10.0547 0.0321554 0)
(10.0603 0.0317187 0)
(10.0657 0.0309947 0)
(10.0707 0.030024 0)
(10.0754 0.0288412 0)
(10.0799 0.0274791 0)
(10.084 0.0259728 0)
(10.0877 0.0243614 0)
(10.0912 0.0226913 0)
(10.0001 0.00338369 0)
(10.0029 0.00997367 0)
(10.0076 0.0153954 0)
(10.0135 0.0195679 0)
(10.0198 0.0226377 0)
(10.0263 0.0247789 0)
(10.0327 0.0261686 0)
(10.039 0.0269599 0)
(10.0451 0.027274 0)
(10.0509 0.0272018 0)
(10.0565 0.026812 0)
(10.0618 0.026157 0)
(10.0668 0.0252792 0)
(10.0715 0.0242154 0)
(10.0759 0.0229998 0)
(10.0799 0.021667 0)
(10.0837 0.0202529 0)
(10.0871 0.0187974 0)
(10.0001 0.00246828 0)
(10.0023 0.00734086 0)
(10.0062 0.0115077 0)
(10.0113 0.0148295 0)
(10.0171 0.0173476 0)
(10.0231 0.0191488 0)
(10.0293 0.0203407 0)
(10.0353 0.0210286 0)
(10.0413 0.0213036 0)
(10.047 0.0212395 0)
(10.0525 0.0208952 0)
(10.0577 0.0203189 0)
(10.0627 0.0195507 0)
(10.0673 0.0186259 0)
(10.0717 0.0175774 0)
(10.0757 0.0164366 0)
(10.0795 0.0152347 0)
(10.0829 0.0140048 0)
(10.0001 0.0015776 0)
(10.0019 0.00471212 0)
(10.0052 0.00746463 0)
(10.0096 0.00971641 0)
(10.0148 0.0114622 0)
(10.0203 0.012732 0)
(10.0261 0.0135759 0)
(10.0319 0.014052 0)
(10.0376 0.014216 0)
(10.0432 0.0141171 0)
(10.0486 0.0137979 0)
(10.0537 0.0132953 0)
(10.0586 0.0126419 0)
(10.0632 0.0118671 0)
(10.0675 0.0109981 0)
(10.0715 0.0100608 0)
(10.0753 0.00908033 0)
(10.0788 0.00808241 0)
(10.0001 0.00066714 0)
(10.0016 0.00200274 0)
(10.0045 0.00319595 0)
(10.0085 0.00418434 0)
(10.0132 0.00495 0)
(10.0183 0.00549142 0)
(10.0237 0.0058184 0)
(10.0292 0.00594829 0)
(10.0347 0.00590133 0)
(10.0401 0.00569822 0)
(10.0453 0.00535935 0)
(10.0502 0.00490447 0)
(10.055 0.00435272 0)
(10.0595 0.00372262 0)
(10.0637 0.00303218 0)
(10.0677 0.00229893 0)
(10.0715 0.00154009 0)
(10.075 0.000773673 0)
(10.0001 -0.00033522 0)
(10.0016 -0.000977824 0)
(10.0044 -0.00153309 0)
(10.0082 -0.00199663 0)
(10.0127 -0.00239136 0)
(10.0176 -0.00274349 0)
(10.0228 -0.00307683 0)
(10.0281 -0.00341167 0)
(10.0333 -0.00376358 0)
(10.0384 -0.00414301 0)
(10.0434 -0.00455555 0)
(10.0482 -0.00500271 0)
(10.0528 -0.00548277 0)
(10.0572 -0.00599152 0)
(10.0613 -0.00652295 0)
(10.0652 -0.00706977 0)
(10.0689 -0.00762367 0)
(10.0723 -0.00817485 0)
(10.0001 -0.0013564 0)
(10.0018 -0.00396955 0)
(10.005 -0.00619707 0)
(10.0091 -0.00798592 0)
(10.0138 -0.00939259 0)
(10.0188 -0.0104918 0)
(10.024 -0.0113556 0)
(10.0292 -0.0120498 0)
(10.0343 -0.012629 0)
(10.0393 -0.0131345 0)
(10.0441 -0.0135957 0)
(10.0487 -0.0140322 0)
(10.0531 -0.0144566 0)
(10.0573 -0.0148755 0)
(10.0613 -0.015292 0)
(10.0651 -0.015706 0)
(10.0686 -0.0161153 0)
(10.072 -0.0165152 0)
(10.0001 -0.00236796 0)
(10.0023 -0.00679401 0)
(10.0061 -0.0103974 0)
(10.0107 -0.013158 0)
(10.0158 -0.0152362 0)
(10.021 -0.0167874 0)
(10.0262 -0.0179436 0)
(10.0314 -0.0188175 0)
(10.0364 -0.0194974 0)
(10.0413 -0.0200476 0)
(10.0459 -0.0205127 0)
(10.0504 -0.0209231 0)
(10.0547 -0.0212986 0)
(10.0587 -0.0216517 0)
(10.0626 -0.0219897 0)
(10.0662 -0.0223161 0)
(10.0697 -0.0226319 0)
(10.073 -0.0229348 0)
(10.0002 -0.00355918 0)
(10.0032 -0.00987735 0)
(10.0078 -0.014664 0)
(10.013 -0.0181168 0)
(10.0184 -0.0206103 0)
(10.0238 -0.0224081 0)
(10.0291 -0.023702 0)
(10.0343 -0.0246456 0)
(10.0392 -0.0253534 0)
(10.044 -0.0259043 0)
(10.0485 -0.026351 0)
(10.0529 -0.0267284 0)
(10.057 -0.0270596 0)
(10.0609 -0.0273597 0)
(10.0647 -0.027638 0)
(10.0682 -0.0279 0)
(10.0716 -0.0281479 0)
(10.0748 -0.028381 0)
(10.0004 -0.00505444 0)
(10.0045 -0.0133388 0)
(10.0101 -0.0190108 0)
(10.016 -0.0228332 0)
(10.0217 -0.025508 0)
(10.0273 -0.0273942 0)
(10.0326 -0.0287176 0)
(10.0377 -0.029659 0)
(10.0426 -0.0303497 0)
(10.0473 -0.0308764 0)
(10.0517 -0.0312929 0)
(10.0559 -0.031635 0)
(10.0599 -0.0319258 0)
(10.0637 -0.0321816 0)
(10.0674 -0.032412 0)
(10.0708 -0.0326239 0)
(10.0741 -0.0328201 0)
(10.0772 -0.0329999 0)
(10.0007 -0.00697677 0)
(10.0064 -0.0172092 0)
(10.0132 -0.0233668 0)
(10.0196 -0.0272365 0)
(10.0256 -0.0299141 0)
(10.0313 -0.0317877 0)
(10.0366 -0.0330746 0)
(10.0417 -0.0339698 0)
(10.0465 -0.0346173 0)
(10.0511 -0.0351062 0)
(10.0554 -0.0354869 0)
(10.0595 -0.035793 0)
(10.0634 -0.036046 0)
(10.0672 -0.0362626 0)
(10.0707 -0.0364519 0)
(10.074 -0.0366222 0)
(10.0772 -0.0367761 0)
(10.0802 -0.0369129 0)
(10.0013 -0.00943668 0)
(10.0091 -0.0214412 0)
(10.0172 -0.0276356 0)
(10.0241 -0.0312761 0)
(10.0302 -0.0338393 0)
(10.036 -0.0356426 0)
(10.0414 -0.0368518 0)
(10.0464 -0.0376714 0)
(10.0512 -0.0382584 0)
(10.0556 -0.038701 0)
(10.0598 -0.0390426 0)
(10.0638 -0.039312 0)
(10.0676 -0.039528 0)
(10.0712 -0.0397076 0)
(10.0746 -0.0398591 0)
(10.0778 -0.0399916 0)
(10.0809 -0.0401079 0)
(10.0838 -0.0402065 0)
(10.0028 -0.012767 0)
(10.0126 -0.0259797 0)
(10.0224 -0.0317272 0)
(10.0299 -0.0349342 0)
(10.036 -0.0373236 0)
(10.0418 -0.0390245 0)
(10.0472 -0.0401236 0)
(10.0521 -0.0408391 0)
(10.0567 -0.0413474 0)
(10.061 -0.0417325 0)
(10.065 -0.0420274 0)
(10.0689 -0.0422542 0)
(10.0724 -0.0424286 0)
(10.0758 -0.0425682 0)
(10.079 -0.0426801 0)
(10.082 -0.0427754 0)
(10.0848 -0.0428551 0)
(10.0874 -0.0429161 0)
(10.0049 -0.0167273 0)
(10.0176 -0.0307267 0)
(10.0297 -0.0355235 0)
(10.0376 -0.0381789 0)
(10.0436 -0.0404148 0)
(10.0493 -0.0420177 0)
(10.0545 -0.0429865 0)
(10.0592 -0.0435682 0)
(10.0635 -0.0439705 0)
(10.0673 -0.0442697 0)
(10.0709 -0.0444893 0)
(10.0742 -0.044643 0)
(10.0772 -0.0447452 0)
(10.08 -0.0448157 0)
(10.0826 -0.0448579 0)
(10.0849 -0.0448941 0)
(10.0871 -0.0449128 0)
(10.089 -0.0449404 0)
(10.0069 -0.0216744 0)
(10.0258 -0.0361978 0)
(10.0408 -0.0389511 0)
(10.0488 -0.0407127 0)
(10.0541 -0.0428127 0)
(10.0588 -0.044422 0)
(10.063 -0.0453731 0)
(10.0663 -0.0459195 0)
(10.0688 -0.0462945 0)
(10.0706 -0.0465661 0)
(10.0721 -0.046749 0)
(10.073 -0.0468492 0)
(10.0736 -0.0468785 0)
(10.0737 -0.0468665 0)
(10.0736 -0.0468048 0)
(10.0732 -0.0467426 0)
(10.0724 -0.0466452 0)
(10.0715 -0.0465901 0)
(10.0092 -0.0286348 0)
(10.0403 -0.0450698 0)
(10.0559 -0.0448294 0)
(10.0577 -0.0439527 0)
(10.0539 -0.0441732 0)
(10.0479 -0.0444349 0)
(10.0397 -0.0443888 0)
(10.0292 -0.0441938 0)
(10.0169 -0.0439928 0)
(10.0033 -0.0438294 0)
(9.98859 -0.0436701 0)
(9.97318 -0.0435082 0)
(9.95712 -0.0433131 0)
(9.94073 -0.0431302 0)
(9.92391 -0.0428958 0)
(9.90714 -0.0427111 0)
(9.88999 -0.0424599 0)
(9.87332 -0.0423421 0)
(9.91548 -0.0239368 0)
(9.77756 -0.0399557 0)
(9.63295 -0.0435648 0)
(9.48406 -0.0447156 0)
(9.34029 -0.0451539 0)
(9.20501 -0.0448613 0)
(9.07751 -0.0439643 0)
(8.95705 -0.0427158 0)
(8.84311 -0.0413249 0)
(8.73575 -0.0398838 0)
(8.63443 -0.0384364 0)
(8.53917 -0.03706 0)
(8.44914 -0.0356993 0)
(8.36466 -0.0344163 0)
(8.28452 -0.03316 0)
(8.20973 -0.0320247 0)
(8.13808 -0.0308865 0)
(8.07212 -0.0299547 0)
(-0.0148556 0.0489132 -1.16584e-20)
(-0.0669361 0.056921 1.15879e-20)
(-0.118143 0.054065 0)
(-0.15896 0.0437389 0)
(-0.188868 0.0300511 0)
(-0.205709 0.0150518 -1.12386e-20)
(-0.209192 -0.00035605 0)
(-0.199145 -0.0148388 0)
(-0.176906 -0.0272678 0)
(-0.143729 -0.0364835 0)
(-0.10336 -0.0414204 1.08142e-20)
(-0.0596316 -0.0419794 0)
(-0.0167057 -0.0384414 0)
(0.0215701 -0.0314034 0)
(0.0521554 -0.0216748 0)
(0.0729183 -0.00957924 1.03928e-20)
(0.0818885 0.00422755 0)
(0.0785064 0.0199356 0)
(0.0622828 0.0364773 0)
(0.0335225 0.0508787 0)
(-0.00732758 0.0461349 0)
(-0.0460455 0.0149706 0)
(-0.0760104 -0.00152964 0)
(-0.104924 0.00329635 9.81081e-21)
(-0.129197 0.00377056 -9.74055e-21)
(-0.140102 -0.00621179 9.6731e-21)
(-0.131334 -0.0226766 9.60136e-21)
(-0.10277 -0.0417274 0)
(-0.0521904 -0.0591992 0)
(0.00992079 -0.0640634 -9.38747e-21)
(0.0689306 -0.0539086 -9.31137e-21)
(0.113086 -0.0317562 0)
(0.133733 -0.000776793 0)
(0.137956 0.0212279 -9.11578e-21)
(0.140106 0.030396 0)
(0.131236 -0.0121773 0)
(0.103197 -0.0941945 8.91252e-21)
(0.0683329 -0.0975009 0)
(0.00194033 0.0287971 8.79234e-21)
(-0.146704 0.12043 1.73615e-20)
(-0.297271 0.130302 0)
(-0.442317 0.127052 0)
(-0.579372 0.119036 0)
(-0.705824 0.108907 0)
(-0.821756 0.0984907 0)
(-0.927139 0.0885157 1.67779e-20)
(-1.02285 0.079413 1.67592e-20)
(-1.10973 0.0709521 1.67458e-20)
(-1.18882 0.0635105 0)
(-1.26111 0.0572263 -1.67192e-20)
(-1.32764 0.0518779 0)
(-1.38924 0.0473842 1.66816e-20)
(-1.4467 0.0435969 1.66575e-20)
(-1.50065 0.0404098 0)
(-1.55165 0.0377156 0)
(-1.60016 0.0354337 0)
(-1.64656 0.0335034 1.65263e-20)
(-1.69118 0.0318803 0)
(-1.73422 0.0305394 0)
(-1.77601 0.0294094 0)
(-1.81675 0.0284275 0)
(-1.85654 0.027557 0)
(-1.8955 0.0267686 0)
(-1.9337 0.0260392 0)
(-1.9712 0.0253515 0)
(-2.00802 0.0246919 -1.60671e-20)
(-2.04417 0.024049 0)
(-2.07967 0.0234153 0)
(-2.1145 0.0227836 1.58663e-20)
(-2.14866 0.0221501 1.57932e-20)
(-2.18211 0.0215109 0)
(-2.21485 0.0208644 -1.56365e-20)
(-2.24684 0.0202093 1.55526e-20)
(-2.27806 0.0195456 0)
(-2.30848 0.0188732 -1.53725e-20)
(-2.33808 0.0181934 0)
(-2.36682 0.0175067 0)
(-2.39469 0.0168148 1.50693e-20)
(-2.42166 0.0161186 0)
(-2.44772 0.0154194 -1.48432e-20)
(-2.47283 0.0147183 0)
(-2.49699 0.0140163 1.45967e-20)
(-2.52018 0.013314 1.44656e-20)
(-2.54238 0.0126121 1.43291e-20)
(-2.56358 0.0119111 2.83743e-20)
(-2.58377 0.0112114 -2.80794e-20)
(-2.60292 0.0105133 0)
(-2.62103 0.00981709 0)
(-2.63809 0.00912286 0)
(-2.65407 0.00843072 -2.67882e-20)
(-2.66897 0.00774066 -2.64371e-20)
(-2.68277 0.00705267 2.60748e-20)
(-2.69546 0.00636672 0)
(-2.70702 0.00568284 -2.53162e-20)
(-2.71743 0.00500121 -2.492e-20)
(-2.72668 0.00432219 -2.45127e-20)
(-2.73474 0.00364634 0)
(-2.74159 0.00297583 0)
(-2.74722 0.00231464 0)
(-2.75158 0.00164987 -2.27739e-20)
(-2.75462 0.000932652 0)
(-2.7564 0.000232291 0)
(-2.75704 -0.000415433 2.13565e-20)
(-2.75644 -0.00105456 0)
(-2.75463 -0.00167406 0)
(-2.75158 -0.00228794 1.98467e-20)
(-2.74729 -0.00289172 0)
(-2.74175 -0.00348869 0)
(-2.73496 -0.00407745 -1.82505e-20)
(-2.72692 -0.00465836 -1.77005e-20)
(-2.71761 -0.0052309 0)
(-2.70704 -0.00579475 1.65757e-20)
(-2.6952 -0.00634954 0)
(-2.6821 -0.00689478 -1.54201e-20)
(-2.66773 -0.00743011 0)
(-2.6521 -0.00795505 -1.42369e-20)
(-2.63522 -0.00846924 -1.36361e-20)
(-2.61708 -0.00897226 0)
(-2.59769 -0.00946372 0)
(-2.57706 -0.00994323 0)
(-2.55521 -0.0104103 0)
(-2.53213 -0.0108644 0)
(-2.50785 -0.0113047 0)
(-2.48238 -0.0117296 0)
(-2.45572 -0.0121366 -8.67015e-21)
(-2.4279 -0.0125199 8.03716e-21)
(-2.39895 -0.0128638 0)
(-2.36888 -0.0131512 0)
(-2.33773 -0.0133453 0)
(-2.30557 -0.0133639 0)
(-2.27247 -0.013236 9.73814e-21)
(-2.23834 -0.0134087 0)
(-2.20311 -0.0137565 -7.22222e-21)
(-2.16689 -0.0139851 5.97158e-21)
(-2.1297 -0.0142328 0)
(-2.09158 -0.0144492 0)
(-2.05256 -0.0146539 0)
(-2.01266 -0.0148409 -1.04262e-21)
(-1.97192 -0.0150135 1.66241e-22)
(-1.93038 -0.0151696 0)
(-1.88805 -0.0153116 2.54929e-21)
(-1.84498 -0.0154382 3.72172e-21)
(-1.80119 -0.0155509 -4.88033e-21)
(-1.75672 -0.0156493 0)
(-1.7116 -0.0157345 0)
(-1.66586 -0.0158064 -8.26557e-21)
(-1.61952 -0.0158657 0)
(-1.57261 -0.0159125 0)
(-1.52518 -0.0159468 0)
(-1.47723 -0.0159688 0)
(-1.42882 -0.0159781 1.35662e-20)
(-1.37997 -0.0159742 1.457e-20)
(-1.33071 -0.0159578 0)
(-1.28108 -0.0159302 1.65175e-20)
(-1.23111 -0.0158931 0)
(-1.18083 -0.0158481 0)
(-1.13026 -0.0157971 1.92832e-20)
(-1.07942 -0.0157417 0)
(-1.02831 -0.0156837 2.10207e-20)
(-0.976946 -0.0156241 0)
(-0.925332 -0.0155637 0)
(-0.873469 -0.0155025 2.34654e-20)
(-0.82136 -0.0154399 0)
(-0.769009 -0.0153757 2.49872e-20)
(-0.716421 -0.0153102 0)
(-0.663599 -0.0152445 0)
(-0.61054 -0.0151799 0)
(-0.557239 -0.0151177 -2.77712e-20)
(-0.503687 -0.0150584 0)
(-0.449871 -0.0150017 2.90344e-20)
(-0.395783 -0.0149453 0)
(-0.341429 -0.0148824 0)
(-0.286812 -0.0148035 0)
(-0.232113 -0.0146894 0)
(-0.177031 -0.0144888 0)
(-0.123451 -0.0142813 0)
(-0.0665163 -0.0133565 0)
(-0.0227045 -0.0137904 -6.64752e-20)
(0.0447776 -0.00935858 0)
(0.051479 -0.00404685 0)
(0.00510722 0.118784 3.50152e-20)
(-0.0144887 0.156493 -3.48263e-20)
(-0.0366883 0.13243 0)
(-0.0525048 0.0978838 2.29021e-20)
(-0.0577653 0.0606979 0)
(-0.0542284 0.0224807 1.12981e-20)
(-0.0402654 -0.015542 -2.24395e-20)
(-0.0160243 -0.0537246 -2.22527e-20)
(0.0195773 -0.0877304 0)
(0.0617697 -0.113082 -2.17683e-20)
(0.10676 -0.126998 -1.0739e-20)
(0.150803 -0.128612 0)
(0.19053 -0.118685 0)
(0.223542 -0.0993405 0)
(0.248285 -0.0736043 0)
(0.263875 -0.0439908 -1.01967e-20)
(0.270704 -0.0124887 0)
(0.269239 0.0191573 2.01576e-20)
(0.259953 0.0492737 0)
(0.244527 0.076888 0)
(0.2226 0.0987315 -1.98676e-20)
(0.191461 0.108351 0)
(0.147355 0.104852 1.9689e-20)
(0.100406 0.0878469 -9.79656e-21)
(0.0630995 0.0558576 9.75033e-21)
(0.038593 0.00914442 -9.6979e-21)
(0.02555 -0.0453838 -9.62294e-21)
(0.0324364 -0.099381 0)
(0.057561 -0.140986 0)
(0.0864896 -0.148643 9.29307e-21)
(0.10991 -0.123628 -9.23788e-21)
(0.120954 -0.0790595 0)
(0.114423 -0.0415474 0)
(0.0788354 -0.0368591 9.09575e-21)
(0.00123819 -0.0197 0)
(-0.0936484 0.0874294 0)
(-0.267834 0.197926 -8.83174e-21)
(-0.45896 0.266865 0)
(-0.596848 0.30996 8.66718e-21)
(-0.713748 0.326623 -1.69471e-20)
(-0.814275 0.315987 0)
(-0.908787 0.298182 0)
(-0.995039 0.274455 -3.32759e-20)
(-1.07436 0.249765 -3.30985e-20)
(-1.14668 0.225568 -3.29477e-20)
(-1.21295 0.203202 1.65051e-20)
(-1.27385 0.183147 -1.62617e-20)
(-1.33024 0.165589 -4.87855e-20)
(-1.3828 0.150425 3.24514e-20)
(-1.43212 0.137468 1.61267e-20)
(-1.47869 0.126462 0)
(-1.52292 0.117147 -1.60296e-20)
(-1.56519 0.109265 1.60064e-20)
(-1.60578 0.102582 0)
(-1.64496 0.0969019 0)
(-1.68295 0.0920439 0)
(-1.71992 0.0878664 -1.57489e-20)
(-1.75601 0.0842588 0)
(-1.79134 0.0811403 3.12277e-20)
(-1.82597 0.0784191 0)
(-1.85997 0.0760002 3.09567e-20)
(-1.89337 0.0738095 0)
(-1.92621 0.0717888 -3.0674e-20)
(-1.95852 0.0698909 0)
(-1.99031 0.0680786 3.03781e-20)
(-2.02157 0.0663223 -1.5094e-20)
(-2.05231 0.0645986 0)
(-2.08251 0.0628893 -2.9905e-20)
(-2.11215 0.0611807 -1.4888e-20)
(-2.14121 0.0594629 -1.48021e-20)
(-2.16966 0.057729 0)
(-2.19748 0.0559749 -1.45848e-20)
(-2.22464 0.0541987 -1.45269e-20)
(-2.25111 0.0524003 0)
(-2.27687 0.0505811 1.43273e-20)
(-2.30187 0.0487433 -2.84105e-20)
(-2.32611 0.0468898 0)
(-2.34956 0.045024 -1.40009e-20)
(-2.37219 0.0431492 0)
(-2.39398 0.0412687 4.12612e-20)
(-2.41491 0.0393854 0)
(-2.43497 0.037502 -4.05021e-20)
(-2.45414 0.0356206 -1.33762e-20)
(-2.4724 0.0337429 1.32145e-20)
(-2.48973 0.0318705 2.61476e-20)
(-2.50613 0.0300042 -2.58574e-20)
(-2.52157 0.0281449 0)
(-2.53605 0.0262932 0)
(-2.54955 0.0244494 0)
(-2.56205 0.0226139 7.38704e-20)
(-2.57355 0.0207865 2.42925e-20)
(-2.58404 0.0189673 -2.39435e-20)
(-2.59349 0.0171558 0)
(-2.60191 0.0153514 -2.32081e-20)
(-2.60927 0.0135535 2.28411e-20)
(-2.61558 0.0117614 2.24554e-20)
(-2.62081 0.00997438 0)
(-2.62497 0.00819123 0)
(-2.62806 0.0064154 0)
(-2.63014 0.00467341 2.08253e-20)
(-2.63117 0.00300815 0)
(-2.63106 0.00131169 -3.99435e-20)
(-2.62974 -0.000362546 -5.85652e-20)
(-2.62725 -0.00202662 3.81477e-20)
(-2.62356 -0.00366934 0)
(-2.61865 -0.00529591 1.81649e-20)
(-2.61253 -0.00690274 0)
(-2.60518 -0.00849021 3.43528e-20)
(-2.59659 -0.0100564 -1.67124e-20)
(-2.58675 -0.0116003 -1.62128e-20)
(-2.57568 -0.0131204 0)
(-2.56335 -0.0146155 -4.54271e-20)
(-2.54977 -0.0160842 2.92639e-20)
(-2.53495 -0.0175251 1.40612e-20)
(-2.51887 -0.0189369 0)
(-2.50155 -0.0203184 1.29811e-20)
(-2.48298 -0.0216684 3.73947e-20)
(-2.46317 -0.0229856 0)
(-2.44213 -0.0242689 2.27489e-20)
(-2.41987 -0.0255172 2.16299e-20)
(-2.39639 -0.0267294 2.05035e-20)
(-2.37171 -0.0279045 0)
(-2.34583 -0.0290415 0)
(-2.31877 -0.0301395 0)
(-2.29055 -0.0311981 -8.03239e-21)
(-2.26119 -0.0322174 -7.33304e-21)
(-2.23069 -0.0331982 0)
(-2.19908 -0.0341447 -1.24863e-20)
(-2.16637 -0.0350672 -1.13325e-20)
(-2.13254 -0.0359783 0)
(-2.0976 -0.0368732 -8.89292e-21)
(-2.06159 -0.0377194 -1.57569e-20)
(-2.02461 -0.0384798 6.59706e-21)
(-1.98666 -0.0391699 5.73164e-21)
(-1.94774 -0.0398116 0)
(-1.90789 -0.0404092 0)
(-1.86714 -0.0409634 0)
(-1.82551 -0.0414708 9.532e-22)
(-1.78304 -0.0419324 -1.33525e-22)
(-1.73975 -0.0423511 2.20838e-21)
(-1.69568 -0.0427272 -2.33223e-21)
(-1.65086 -0.0430615 3.11833e-21)
(-1.60532 -0.0433552 4.46711e-21)
(-1.55909 -0.0436094 0)
(-1.5122 -0.0438255 0)
(-1.46468 -0.044005 -7.28639e-21)
(-1.41657 -0.0441494 0)
(-1.36788 -0.0442598 0)
(-1.31866 -0.0443369 2.08099e-20)
(-1.26892 -0.0443802 0)
(-1.2187 -0.0443889 1.217e-20)
(-1.16803 -0.0443623 -1.33743e-20)
(-1.11694 -0.0443013 0)
(-1.06546 -0.0442086 1.49016e-20)
(-1.01363 -0.044088 0)
(-0.961472 -0.043944 0)
(-0.909008 -0.0437814 -1.7734e-20)
(-0.856255 -0.0436047 3.68398e-20)
(-0.803228 -0.0434183 -1.9347e-20)
(-0.749933 -0.0432259 0)
(-0.696377 -0.04303 0)
(-0.642561 -0.0428314 2.13744e-20)
(-0.588489 -0.0426294 0)
(-0.534162 -0.0424231 2.28007e-20)
(-0.479585 -0.0422134 0)
(-0.424758 -0.0420027 0)
(-0.369681 -0.0417942 0)
(-0.314347 -0.041591 2.56498e-20)
(-0.258745 -0.0413951 0)
(-0.202865 -0.0412062 -2.68366e-20)
(-0.146695 -0.041019 0)
(-0.0902409 -0.0408206 0)
(-0.033499 -0.0405865 5.67279e-20)
(0.0233838 -0.0402883 -5.77184e-20)
(0.0806236 -0.0398072 0)
(0.136978 -0.039261 0)
(0.195143 -0.0376606 0)
(0.24641 -0.0369487 1.83757e-19)
(0.308839 -0.0314476 0)
(0.340062 -0.0217886 -1.2572e-19)
(0.0124012 0.0748999 -1.06062e-24)
(0.03594 0.147759 4.6416e-20)
(0.050286 0.141142 0)
(0.0607731 0.0966839 -4.57692e-20)
(0.0744561 0.0417651 0)
(0.0977694 -0.0136689 0)
(0.134699 -0.0713621 1.57627e-23)
(0.181505 -0.127899 2.20877e-20)
(0.232457 -0.17461 2.18286e-20)
(0.281671 -0.204205 2.15316e-20)
(0.325112 -0.213848 0)
(0.360224 -0.20486 0)
(0.386217 -0.180672 -2.08179e-20)
(0.403362 -0.144996 -4.1191e-20)
(0.412249 -0.102181 4.07759e-20)
(0.4139 -0.0560119 0)
(0.409238 -0.00924038 4.00885e-20)
(0.398946 0.0356612 -1.98037e-20)
(0.383723 0.0769316 0)
(0.364707 0.112359 3.92759e-20)
(0.342718 0.139415 1.95094e-20)
(0.317875 0.155529 -3.89679e-20)
(0.289521 0.159486 -1.94101e-20)
(0.25916 0.148132 0)
(0.228525 0.116603 3.85262e-20)
(0.200264 0.0638681 3.83356e-20)
(0.175058 -0.0043356 0)
(0.159519 -0.0835812 3.77006e-20)
(0.148079 -0.143749 0)
(0.123544 -0.15234 3.69231e-20)
(0.0780694 -0.114882 1.84084e-20)
(-0.00168502 -0.0391867 0)
(-0.107403 0.0831292 0)
(-0.252891 0.214179 0)
(-0.426199 0.316648 0)
(-0.565031 0.38984 0)
(-0.685373 0.429887 0)
(-0.784377 0.445682 3.42742e-20)
(-0.862287 0.453645 -5.07079e-20)
(-0.925479 0.447193 0)
(-0.978205 0.426358 0)
(-1.02627 0.398817 0)
(-1.0708 0.367439 -2.92468e-22)
(-1.11389 0.335912 3.17746e-20)
(-1.1558 0.305791 6.32402e-20)
(-1.19695 0.278204 -6.2715e-20)
(-1.23731 0.253535 -3.11986e-20)
(-1.27693 0.231867 3.0829e-20)
(-1.31575 0.213074 1.03442e-22)
(-1.35376 0.196917 3.05303e-20)
(-1.39094 0.183091 0)
(-1.42733 0.171283 3.01393e-20)
(-1.46293 0.161195 2.45229e-23)
(-1.49781 0.152569 0)
(-1.53204 0.145171 0)
(-1.56565 0.138792 -2.9421e-20)
(-1.59872 0.133255 0)
(-1.63128 0.128413 0)
(-1.66338 0.124141 2.88819e-20)
(-1.69503 0.120327 5.74744e-20)
(-1.72625 0.116871 -2.85994e-20)
(-1.75706 0.113689 0)
(-1.78747 0.110711 2.82602e-20)
(-1.81748 0.107878 0)
(-1.84708 0.105142 2.78336e-20)
(-1.87626 0.102464 2.77361e-20)
(-1.90501 0.0998144 -5.50306e-20)
(-1.9333 0.0971681 -2.72913e-20)
(-1.96111 0.0945072 0)
(-1.98841 0.091819 5.39129e-20)
(-2.01517 0.0890951 0)
(-2.04135 0.0863309 7.9736e-20)
(-2.06693 0.0835248 5.27274e-20)
(-2.09187 0.080678 5.23143e-20)
(-2.11614 0.0777936 -5.18913e-20)
(-2.13972 0.0748761 7.72223e-20)
(-2.16256 0.0719307 0)
(-2.18466 0.0689633 0)
(-2.20598 0.0659797 -5.00901e-20)
(-2.22651 0.0629854 -7.44459e-20)
(-2.24621 0.0599853 0)
(-2.26509 0.0569838 2.43339e-20)
(-2.2831 0.0539844 0)
(-2.30025 0.0509902 -7.13687e-20)
(-2.31651 0.0480036 -4.48463e-23)
(-2.33186 0.0450264 4.12731e-23)
(-2.3463 0.0420602 4.58858e-20)
(-2.35981 0.0391061 0)
(-2.37238 0.0361651 -4.46975e-20)
(-2.38398 0.033238 -2.57717e-23)
(-2.39461 0.0303252 0)
(-2.40426 0.0274274 0)
(-2.41291 0.0245446 0)
(-2.42055 0.0216769 4.14847e-20)
(-2.42717 0.0188243 0)
(-2.43275 0.0159871 0)
(-2.43729 0.0131659 0)
(-2.44077 0.0103601 0)
(-2.44318 0.00756541 0)
(-2.44447 0.00478638 3.71428e-20)
(-2.44467 0.00206429 0)
(-2.44378 -0.000637078 3.55548e-20)
(-2.44173 -0.00333028 3.47483e-20)
(-2.43852 -0.00600851 -3.39278e-20)
(-2.43414 -0.0086654 0)
(-2.42858 -0.0112978 -3.22452e-20)
(-2.42184 -0.0139016 0)
(-2.4139 -0.0164748 -3.05093e-20)
(-2.40476 -0.0190146 2.96222e-20)
(-2.39441 -0.0215187 8.63032e-20)
(-2.38285 -0.0239848 0)
(-2.37007 -0.0264108 8.08209e-20)
(-2.35607 -0.0287943 2.61174e-20)
(-2.34086 -0.0311331 0)
(-2.32443 -0.0334251 4.82974e-20)
(-2.30678 -0.0356683 4.63808e-20)
(-2.28792 -0.0378606 -6.65729e-20)
(-2.26785 -0.04 0)
(-2.24658 -0.0420849 -2.01609e-20)
(-2.22411 -0.0441132 -1.91679e-20)
(-2.20045 -0.0460833 -5.47308e-20)
(-2.17561 -0.0479931 0)
(-2.1496 -0.0498408 0)
(-2.12244 -0.0516244 0)
(-2.09414 -0.0533418 -1.43763e-20)
(-2.06471 -0.0549908 0)
(-2.03418 -0.056569 0)
(-2.00254 -0.0580748 1.10672e-20)
(-1.96983 -0.0595076 1.00456e-20)
(-1.93604 -0.0608675 0)
(-1.9012 -0.0621659 0)
(-1.86533 -0.0634224 1.39733e-20)
(-1.8285 -0.064613 0)
(-1.79071 -0.0657171 -9.9242e-21)
(-1.75197 -0.0667464 -8.20558e-21)
(-1.71232 -0.0677035 0)
(-1.67178 -0.0685898 0)
(-1.63037 -0.0694024 2.24417e-21)
(-1.58814 -0.070142 -3.00446e-22)
(-1.5451 -0.0708109 -3.01482e-22)
(-1.50129 -0.0714107 0)
(-1.45674 -0.0719427 -1.12953e-20)
(-1.41147 -0.0724085 0)
(-1.36553 -0.0728101 0)
(-1.31893 -0.0731497 0)
(-1.27171 -0.0734297 1.32249e-20)
(-1.2239 -0.0736526 0)
(-1.17553 -0.0738208 -3.29935e-20)
(-1.12662 -0.0739356 -1.85427e-20)
(-1.0772 -0.0739969 0)
(-1.02729 -0.0740034 -2.1954e-20)
(-0.976938 -0.0739537 0)
(-0.926161 -0.0738492 0)
(-0.874993 -0.0736937 -7.99872e-20)
(-0.823465 -0.0734931 5.62837e-20)
(-0.771603 -0.0732546 0)
(-0.719427 -0.0729855 6.23963e-20)
(-0.666955 -0.0726931 -3.29543e-20)
(-0.614202 -0.0723842 0)
(-0.561177 -0.072065 0)
(-0.507885 -0.0717397 0)
(-0.454328 -0.0714102 -1.15074e-19)
(-0.400508 -0.0710755 0)
(-0.346428 -0.0707347 -4.11235e-20)
(-0.292092 -0.0703893 0)
(-0.237499 -0.0700429 0)
(-0.182647 -0.0697005 0)
(-0.127529 -0.0693672 0)
(-0.0721347 -0.0690461 0)
(-0.0164516 -0.0687367 0)
(0.0395325 -0.0684312 -9.76985e-20)
(0.0958162 -0.0681106 0)
(0.152406 -0.0677392 -5.09699e-20)
(0.209197 -0.067271 1.55125e-19)
(0.266332 -0.0665728 0)
(0.323001 -0.0656533 0)
(0.380869 -0.0637302 -1.08285e-19)
(0.434706 -0.061823 -1.10222e-19)
(0.495494 -0.0558606 1.11571e-19)
(0.538295 -0.0447375 1.13501e-19)
(0.000900149 0.0181908 -7.01007e-20)
(0.0214863 0.0769767 -6.96793e-20)
(0.0418988 0.0841432 -4.60652e-20)
(0.0702949 0.0507553 -2.28318e-20)
(0.117401 -0.0148816 0)
(0.182088 -0.0997912 4.481e-20)
(0.254072 -0.183906 -2.21419e-20)
(0.322735 -0.24997 0)
(0.379934 -0.289056 -2.15557e-20)
(0.421928 -0.299729 0)
(0.448607 -0.28538 4.21016e-20)
(0.462131 -0.251945 0)
(0.465575 -0.205863 2.04342e-20)
(0.461835 -0.152584 4.04061e-20)
(0.453143 -0.0962287 -4.00038e-20)
(0.441054 -0.0397013 0)
(0.426054 0.0150592 -3.93631e-20)
(0.408643 0.0663714 0)
(0.389172 0.112692 0)
(0.367586 0.152308 -3.86432e-20)
(0.343905 0.183257 0)
(0.318051 0.203212 -7.01436e-23)
(0.289854 0.209665 0)
(0.259622 0.19836 0)
(0.227896 0.164803 -6.93283e-23)
(0.194812 0.107379 -3.80061e-20)
(0.164211 0.0282058 -3.76569e-20)
(0.130848 -0.0508834 -3.74287e-20)
(0.071838 -0.0790713 0)
(-0.0244539 -0.0276662 -7.36713e-20)
(-0.158037 0.0973808 0)
(-0.317948 0.245927 -3.6228e-20)
(-0.467246 0.368227 0)
(-0.593142 0.453594 0)
(-0.698803 0.505714 3.49301e-20)
(-0.778253 0.536225 0)
(-0.841262 0.546671 -3.39545e-20)
(-0.889474 0.541298 2.09245e-22)
(-0.927808 0.52776 6.57589e-20)
(-0.958965 0.505976 -6.49926e-20)
(-0.986774 0.478139 0)
(-1.01358 0.447331 0)
(-1.04052 0.415367 -3.13092e-20)
(-1.06842 0.384097 0)
(-1.09736 0.354517 -3.00796e-20)
(-1.12731 0.327309 2.97497e-20)
(-1.15804 0.302743 2.94484e-20)
(-1.18931 0.280881 0)