/*--------------------------------*- C++ -*----------------------------------*\
| =========                 |                                                 |
| \\      /  F ield         | OpenFOAM: The Open Source CFD Toolbox           |
|  \\    /   O peration     | Version:  2112                                  |
|   \\  /    A nd           | Website:  www.openfoam.com                      |
|    \\/     M anipulation  |                                                 |
\*---------------------------------------------------------------------------*/
FoamFile
{
    version     2.0;
    format      ascii;
    arch        "LSB;label=32;scalar=64";
    class       volScalarField;
    location    "0.2";
    object      k;
}
// * * * * * * * * * * * * * * * * * * * * * * * * * * * * * * * * * * * * * //

dimensions      [0 2 -2 0 0 0 0];

internalField   nonuniform List<scalar> 
12225
(
0.378977
0.377932
0.376783
0.377881
0.381558
0.383975
0.384772
0.384769
0.384107
0.381053
0.376461
0.373371
0.371619
0.370902
0.370778
0.370897
0.371329
0.371589
0.375111
0.368868
0.35803
0.349311
0.341973
0.337206
0.334508
0.331802
0.327396
0.320386
0.313599
0.310824
0.31084
0.311642
0.313185
0.316246
0.318729
0.324202
0.374926
0.0190013
0.00819928
0.0119215
0.0187608
0.0256536
0.0349146
0.0429273
0.0465614
0.0477795
0.0493192
0.0527995
0.0576334
0.068818
0.077161
0.0916526
0.101096
0.121415
0.375105
0.333328
0.321442
0.303866
0.259527
0.132994
0.0373718
0.0071814
0.00416793
0.00692145
0.00967328
0.00924885
0.00612934
0.0051893
0.0054705
0.00666461
0.0086086
0.0132253
0.375388
0.301811
0.290104
0.284541
0.265985
0.198737
0.108601
0.0650253
0.0582263
0.0645231
0.0696311
0.0673638
0.0504045
0.0241806
0.0108811
0.00640448
0.00540674
0.00529846
0.376166
0.335375
0.325256
0.316857
0.292385
0.232841
0.186767
0.153505
0.11665
0.075915
0.0444619
0.0271841
0.0215159
0.0208116
0.020933
0.0220255
0.0255911
0.0331269
0.375586
0.3508
0.32941
0.296159
0.253539
0.226728
0.215204
0.19994
0.162087
0.0861013
0.0402667
0.026034
0.0263895
0.0359471
0.0477203
0.05333
0.0607139
0.0750216
0.375207
0.350869
0.324666
0.2663
0.214997
0.19912
0.19596
0.187906
0.15884
0.0879421
0.048354
0.0377317
0.0376641
0.0436939
0.0641401
0.0869001
0.121845
0.155643
0.375125
0.358588
0.292923
0.186398
0.157762
0.165479
0.202002
0.217785
0.21801
0.201817
0.140142
0.0937783
0.0769298
0.0763277
0.0829703
0.10806
0.150284
0.18631
0.374997
0.348319
0.24517
0.176682
0.150144
0.151708
0.195841
0.252869
0.272451
0.271669
0.249639
0.217992
0.208685
0.208562
0.211185
0.220707
0.228089
0.230842
0.375097
0.351879
0.257012
0.174667
0.133851
0.133299
0.160433
0.218338
0.264579
0.288716
0.298813
0.302141
0.302757
0.302376
0.299731
0.290976
0.259222
0.22026
0.375021
0.364714
0.325061
0.225565
0.163937
0.160367
0.165449
0.172343
0.208819
0.254134
0.274183
0.281159
0.282456
0.281766
0.277352
0.263218
0.216283
0.15857
0.375014
0.368982
0.359472
0.335976
0.261285
0.203621
0.190509
0.198431
0.237577
0.253953
0.252228
0.233603
0.213051
0.198784
0.174734
0.139498
0.103242
0.0778172
0.375323
0.360211
0.359174
0.346551
0.323681
0.315041
0.315203
0.318265
0.318136
0.308478
0.257117
0.175845
0.128879
0.107475
0.0970078
0.0876119
0.0780769
0.0697725
0.375058
0.356521
0.351866
0.355985
0.359376
0.359245
0.357008
0.351679
0.340242
0.307313
0.215667
0.137048
0.0933367
0.0763135
0.0733186
0.0734124
0.0732485
0.0720084
0.375078
0.364656
0.360921
0.360223
0.359812
0.358733
0.356937
0.353683
0.346726
0.327719
0.260037
0.173843
0.126603
0.10626
0.0973972
0.093414
0.092351
0.0924186
0.375162
0.370373
0.365452
0.354303
0.340629
0.33167
0.317245
0.298241
0.274647
0.245098
0.21455
0.189449
0.169129
0.146805
0.12442
0.108994
0.103963
0.105384
0.375006
0.366256
0.34589
0.320326
0.291389
0.273481
0.246133
0.187354
0.131906
0.113251
0.116922
0.143902
0.169005
0.173696
0.169851
0.148723
0.132295
0.129198
0.375037
0.364351
0.345012
0.336816
0.326054
0.295997
0.221163
0.167098
0.156625
0.16019
0.172611
0.2059
0.232642
0.241756
0.241608
0.233179
0.216683
0.209941
0.375016
0.369825
0.355953
0.304907
0.271586
0.263802
0.257608
0.238807
0.18303
0.151784
0.150204
0.169383
0.232266
0.273925
0.290031
0.292837
0.291667
0.285025
0.375028
0.367991
0.330573
0.260667
0.248236
0.247486
0.233826
0.167781
0.104668
0.0895161
0.0974005
0.150845
0.237405
0.285958
0.306306
0.311423
0.311408
0.309028
0.37513
0.36077
0.320923
0.288325
0.278509
0.256881
0.1721
0.101323
0.0821818
0.0838394
0.10712
0.18625
0.250219
0.282312
0.294168
0.296548
0.296214
0.293031
0.375009
0.353055
0.343167
0.333544
0.307706
0.239736
0.192874
0.170136
0.144242
0.12788
0.127456
0.142961
0.183203
0.208707
0.223635
0.232058
0.235062
0.234614
0.375022
0.300312
0.305265
0.314351
0.303521
0.252957
0.20272
0.182833
0.161344
0.149293
0.149609
0.162612
0.212968
0.257
0.277722
0.283911
0.283869
0.278526
0.375214
0.28316
0.219341
0.24654
0.277372
0.268817
0.20719
0.1314
0.0975113
0.0912548
0.0935791
0.107097
0.15579
0.203048
0.226427
0.234342
0.235018
0.232131
0.375317
0.341338
0.253779
0.232694
0.24109
0.241746
0.218931
0.166519
0.143277
0.140433
0.145824
0.171654
0.205465
0.220292
0.221904
0.217683
0.194844
0.172339
0.375081
0.364565
0.342359
0.316228
0.292927
0.26312
0.194134
0.109812
0.0688525
0.0670666
0.0825705
0.106593
0.1142
0.112565
0.0954116
0.0517509
0.0233858
0.01102
0.374936
0.0605
0.0186774
0.0171704
0.0196952
0.0224724
0.0233649
0.0240823
0.0251347
0.0271208
0.0290481
0.0292169
0.0289566
0.0282499
0.0269925
0.0266269
0.0267421
0.0270145
0.375002
0.371854
0.365906
0.361006
0.356919
0.352802
0.348762
0.345096
0.342186
0.340088
0.3382
0.335663
0.331766
0.326612
0.321446
0.31734
0.315316
0.314593
0.375001
0.375051
0.375438
0.376657
0.377796
0.378871
0.379742
0.380187
0.380279
0.380229
0.379843
0.378847
0.378185
0.377875
0.377785
0.377789
0.377818
0.377805
0.104302
0.0785947
0.0647964
0.0586933
0.0566683
0.0561823
0.0562793
0.0578991
0.060645
0.0630168
0.0654271
0.067631
0.0686086
0.0687422
0.0680244
0.0662855
0.0643759
0.0625449
0.0591565
0.0559263
0.0529696
0.0493119
0.0459994
0.0437535
0.0420479
0.040475
0.0392092
0.0382723
0.0381171
0.0385293
0.039743
0.0423378
0.0482843
0.0511632
0.0548736
0.0602994
0.0731666
0.0762982
0.0871014
0.137372
0.255721
0.346478
0.418214
0.415793
0.368709
0.284807
0.204108
0.185615
0.178768
0.176417
0.175452
0.172519
0.168146
0.165424
0.16483
0.165015
0.166627
0.167469
0.167762
0.166711
0.164482
0.161286
0.157621
0.152812
0.147741
0.142127
0.13642
0.130707
0.124918
0.119559
0.114488
0.109871
0.105987
0.102883
0.100856
0.0998948
0.0996255
0.0999168
0.100029
0.100113
0.100134
0.10022
0.100239
0.100212
0.10009
0.0999216
0.0996451
0.0993462
0.0989546
0.0985354
0.0980538
0.0975329
0.0970506
0.096647
0.0962833
0.0959307
0.0957318
0.0956445
0.0956946
0.0960422
0.0966886
0.0972149
0.0973752
0.0973046
0.0957046
0.09321
0.0912575
0.0914852
0.0982023
0.140442
0.228849
0.272543
0.373723
0.492145
0.524505
0.49573
0.400919
0.349473
0.332588
0.326637
0.320224
0.313126
0.30333
0.290316
0.276559
0.264245
0.251281
0.231969
0.206859
0.186011
0.173747
0.166923
0.159971
0.154903
0.158856
0.188509
0.351915
0.861502
1.1811
1.29249
1.30917
1.2679
0.99965
0.633887
0.525483
0.564603
0.894105
1.05062
0.735575
0.283991
0.195206
0.173805
0.164921
0.157584
0.153498
0.151625
0.151315
0.150772
0.150478
0.149742
0.149151
0.148603
0.147832
0.147401
0.146521
0.146141
0.145673
0.145516
0.145787
0.146663
0.148458
0.149895
0.150708
0.150873
0.151977
0.160362
0.197479
0.220466
0.216267
0.191876
0.0821452
0.0299542
0.0328029
0.0328802
0.0345369
0.0405206
0.0536792
0.0768561
0.0932847
0.105744
0.115281
0.121711
0.126182
0.129042
0.12996
0.128303
0.123319
0.117125
0.104841
0.094294
0.0864241
0.0758996
0.0642799
0.0553024
0.0503799
0.0478765
0.0462091
0.0428174
0.0407967
0.040392
0.0406736
0.0419044
0.0450804
0.0473431
0.0498118
0.0551927
0.0633764
0.0659857
0.0703373
0.108141
0.249447
0.245664
0.244843
0.254616
0.249588
0.201054
0.180408
0.171483
0.167055
0.162943
0.159239
0.155028
0.151476
0.148801
0.146809
0.144739
0.142694
0.140091
0.136891
0.133326
0.129285
0.125265
0.121373
0.117382
0.113825
0.110533
0.10788
0.105724
0.104099
0.10328
0.102924
0.102876
0.103507
0.10437
0.105581
0.106854
0.108346
0.110201
0.112695
0.114656
0.116372
0.117597
0.118646
0.11953
0.119892
0.119956
0.119217
0.118265
0.116571
0.11459
0.112078
0.109127
0.105828
0.102486
0.0992318
0.0962667
0.0941202
0.092045
0.0903195
0.0889719
0.0880494
0.0875643
0.0873912
0.0876903
0.0882665
0.0882367
0.0859182
0.0817569
0.0794823
0.0809067
0.0895725
0.0969946
0.102638
0.114391
0.149546
0.264718
0.356376
0.393334
0.399539
0.389295
0.348304
0.311232
0.283507
0.262006
0.248009
0.238396
0.23032
0.224137
0.218105
0.206624
0.192054
0.177026
0.15436
0.1253
0.110899
0.113468
0.135857
0.168015
0.226191
0.307878
0.356497
0.360212
0.32921
0.303272
0.319307
0.456982
0.899836
1.03614
0.558691
0.235133
0.174585
0.160122
0.154899
0.153059
0.152826
0.153783
0.154211
0.155123
0.15562
0.156232
0.156478
0.156383
0.156198
0.15593
0.154678
0.153526
0.151644
0.149134
0.146394
0.143494
0.140253
0.136332
0.127589
0.11929
0.116116
0.114569
0.114738
0.115844
0.114838
0.107058
0.0626675
0.0268012
0.0275401
0.0351414
0.0496238
0.0872649
0.125149
0.147836
0.161312
0.172639
0.183545
0.196271
0.21033
0.222827
0.229183
0.229659
0.226497
0.214425
0.185951
0.153999
0.131263
0.118926
0.111199
0.105967
0.103887
0.103465
0.102479
0.0998838
0.0938315
0.0846109
0.0756427
0.0661109
0.0588429
0.0544214
0.0543761
0.0568324
0.0624985
0.0673606
0.117408
0.19308
0.199724
0.173465
0.166014
0.15511
0.144494
0.13115
0.125299
0.116847
0.112448
0.105464
0.101361
0.0960914
0.0929276
0.087826
0.0824426
0.076769
0.0705943
0.0651435
0.0592981
0.055285
0.0509244
0.0476212
0.043968
0.0411931
0.0380123
0.0353281
0.0324535
0.0296366
0.0268656
0.0241374
0.0216003
0.0192932
0.0180059
0.017417
0.0179563
0.0233192
0.0360402
0.0607177
0.0882483
0.108945
0.122724
0.131479
0.136928
0.140113
0.142292
0.143649
0.144669
0.145341
0.145799
0.145983
0.14597
0.145562
0.144707
0.143171
0.140688
0.136894
0.131776
0.125626
0.118683
0.111862
0.105864
0.101598
0.0980719
0.0953733
0.0934759
0.0921863
0.0911661
0.0900858
0.0887889
0.0867335
0.0850345
0.0835874
0.0823635
0.0818395
0.0822804
0.0855097
0.0978407
0.134947
0.172955
0.185899
0.185793
0.182852
0.175623
0.156522
0.135077
0.122198
0.111124
0.104408
0.104609
0.11521
0.152679
0.168998
0.166065
0.135067
0.0809868
0.0668579
0.0684375
0.0748894
0.0961579
0.17849
0.270602
0.294774
0.300641
0.323217
0.416672
0.632292
0.869245
0.673538
0.269102
0.160145
0.135419
0.127794
0.124211
0.122967
0.124869
0.131791
0.140967
0.148313
0.15307
0.157168
0.15997
0.162142
0.165026
0.167608
0.170382
0.173021
0.175691
0.178262
0.180753
0.182876
0.184348
0.185521
0.184655
0.180289
0.174565
0.161001
0.141782
0.123949
0.115409
0.0979674
0.0544568
0.0313847
0.0363218
0.0481328
0.0708149
0.109597
0.140252
0.159277
0.171412
0.181991
0.192569
0.209955
0.235947
0.264353
0.288588
0.302385
0.303432
0.290897
0.249197
0.184687
0.143299
0.127774
0.125542
0.126631
0.131032
0.145808
0.155187
0.169002
0.172832
0.170054
0.160082
0.139875
0.09663
0.0741362
0.0728801
0.067972
0.0663925
0.0995513
0.166419
0.173315
0.135595
0.121006
0.112178
0.100776
0.0951108
0.0880181
0.0840819
0.0794757
0.0772214
0.0740262
0.0724885
0.0701902
0.0687966
0.066359
0.0639236
0.0609238
0.0581826
0.0564453
0.0554174
0.0549146
0.0546776
0.0565115
0.0592517
0.0647623
0.0720632
0.0793962
0.0880717
0.0961702
0.104754
0.112981
0.120841
0.128187
0.134446
0.140371
0.144216
0.146605
0.147546
0.147757
0.147948
0.14807
0.148177
0.148266
0.148298
0.148295
0.148278
0.148271
0.148341
0.148527
0.149083
0.149658
0.150207
0.150844
0.151752
0.152861
0.154116
0.154932
0.15556
0.155929
0.155554
0.152926
0.14753
0.138676
0.127776
0.1165
0.106954
0.100265
0.0953229
0.0923006
0.0907416
0.0898726
0.0892624
0.0887697
0.0881058
0.0868646
0.0841874
0.0807613
0.0779683
0.0771357
0.0774882
0.0800756
0.0810969
0.08076
0.0794513
0.0759956
0.073452
0.0722389
0.0718319
0.071862
0.0723309
0.0744749
0.0853667
0.095181
0.0948325
0.086743
0.081231
0.083918
0.0906257
0.105293
0.178866
0.279256
0.300495
0.293166
0.297131
0.347854
0.465051
0.607545
0.591329
0.310588
0.172518
0.140622
0.135997
0.136772
0.149543
0.157829
0.162619
0.164386
0.163881
0.1618
0.15957
0.157856
0.156281
0.155485
0.154814
0.154709
0.15561
0.157514
0.16043
0.164378
0.16901
0.174631
0.180844
0.187181
0.192099
0.195987
0.199295
0.201052
0.200829
0.194239
0.18607
0.16602
0.065753
0.0784231
0.141324
0.189867
0.210507
0.220485
0.223604
0.22121
0.21611
0.208401
0.203867
0.204688
0.219098
0.255268
0.291545
0.321371
0.337809
0.339326
0.324653
0.239267
0.160256
0.143399
0.145246
0.156651
0.180957
0.213627
0.230027
0.244883
0.251779
0.24985
0.240035
0.209087
0.15275
0.120577
0.0900363
0.0714757
0.0867298
0.146785
0.15762
0.123897
0.103659
0.0958308
0.0902078
0.0839529
0.0808939
0.0754086
0.0717809
0.0684553
0.0667862
0.0661615
0.0660354
0.0662782
0.0669589
0.0669094
0.0664817
0.0663166
0.0672492
0.0705701
0.076705
0.0853967
0.0952604
0.103402
0.111859
0.119409
0.124008
0.130072
0.133105
0.137253
0.139761
0.141626
0.14335
0.144227
0.145171
0.145743
0.146359
0.146777
0.147237
0.147562
0.147877
0.148072
0.148159
0.148178
0.14805
0.147751
0.147359
0.146879
0.146444
0.145856
0.1455
0.145405
0.145586
0.145955
0.14619
0.14641
0.147105
0.148837
0.151515
0.155068
0.159017
0.161929
0.163783
0.164793
0.164436
0.16072
0.151944
0.13765
0.12155
0.107524
0.0982224
0.0923095
0.0892175
0.0879464
0.0877502
0.0881332
0.0884723
0.0881651
0.086263
0.0815882
0.0763912
0.0717502
0.0690067
0.0670929
0.0652051
0.0638418
0.0634994
0.063916
0.0674104
0.0712751
0.0721562
0.0729124
0.0756899
0.0772789
0.0765677
0.0744611
0.0753816
0.0800764
0.0922831
0.138041
0.255624
0.302955
0.293215
0.269865
0.289518
0.354866
0.428134
0.446125
0.320217
0.192395
0.147466
0.140668
0.144255
0.158739
0.164909
0.167719
0.16902
0.169226
0.168146
0.164816
0.161708
0.158031
0.155349
0.154007
0.151818
0.150319
0.149284
0.148424
0.148009
0.148392
0.149462
0.150865
0.153265
0.15774
0.165341
0.175729
0.187122
0.197479
0.203393
0.205472
0.20523
0.200783
0.118487
0.233596
0.279255
0.298319
0.308514
0.312519
0.312008
0.312989
0.314196
0.313794
0.311641
0.3064
0.294943
0.287838
0.288369
0.299846
0.33547
0.349578
0.3413
0.264583
0.185128
0.175373
0.182636
0.207115
0.232049
0.25318
0.267498
0.275368
0.290247
0.295131
0.290384
0.259306
0.199812
0.130227
0.0878784
0.0824621
0.130196
0.145257
0.130321
0.100493
0.092638
0.0894745
0.0854847
0.081799
0.0790496
0.074328
0.0705911
0.0675804
0.0663645
0.0661637
0.0666064
0.0684103
0.0719641
0.0771062
0.0846448
0.095009
0.100892
0.108852
0.116583
0.122665
0.12735
0.131332
0.135218
0.13791
0.139839
0.141959
0.142964
0.144403
0.145208
0.146014
0.147045
0.147774
0.148949
0.149986
0.1513
0.152542
0.153747
0.154782
0.155517
0.155909
0.156041
0.155785
0.154897
0.153653
0.151936
0.149898
0.148162
0.146106
0.144708
0.14376
0.143863
0.144582
0.145181
0.145364
0.14486
0.1438
0.142946
0.14253
0.143688
0.147991
0.154684
0.162061
0.167422
0.17053
0.171956
0.171696
0.167385
0.155033
0.134975
0.114653
0.100676
0.0919029
0.0872142
0.0852937
0.0850094
0.0860341
0.0877742
0.0881514
0.0875364
0.0843102
0.0771367
0.0709916
0.0681521
0.0679346
0.0680593
0.067756
0.0678825
0.0702525
0.0716413
0.0720428
0.0722034
0.0710759
0.0707808
0.0722105
0.0774658
0.091515
0.130299
0.2353
0.306164
0.311909
0.267678
0.248125
0.284612
0.32977
0.338023
0.301245
0.208069
0.157506
0.144067
0.143873
0.160506
0.16944
0.175136
0.183172
0.187137
0.188823
0.187394
0.181813
0.174235
0.167906
0.160233
0.15699
0.153345
0.150718
0.149217
0.147831
0.146691
0.145678
0.145686
0.146045
0.146622
0.147462
0.148789
0.151402
0.155793
0.165312
0.181448
0.196853
0.204377
0.205619
0.244417
0.270785
0.25943
0.238428
0.238558
0.243952
0.255651
0.270273
0.287497
0.299975
0.313885
0.325575
0.327285
0.327781
0.329297
0.332637
0.344627
0.353097
0.33586
0.230896
0.189204
0.188981
0.200313
0.229087
0.257908
0.277843
0.297609
0.312775
0.316247
0.31165
0.29328
0.252228
0.191472
0.117404
0.0921677
0.111536
0.136673
0.135946
0.104955
0.0946713
0.0919136
0.0894162
0.0858362
0.0823912
0.0800677
0.075977
0.0724034
0.0700119
0.0693236
0.0696392
0.0720757
0.0783159
0.0906522
0.106694
0.118159
0.123059
0.126551
0.130642
0.134869
0.138248
0.140289
0.142533
0.144304
0.145303
0.146268
0.14724
0.147849
0.14885
0.149988
0.151333
0.153003
0.154898
0.157383
0.160157
0.163118
0.165722
0.16797
0.169977
0.171613
0.172504
0.172799
0.17239
0.170799
0.168346
0.165009
0.160189
0.155362
0.150358
0.145492
0.141394
0.138146
0.13772
0.142095
0.145042
0.146503
0.146871
0.14544
0.142597
0.140103
0.139031
0.13886
0.140951
0.147549
0.157932
0.168063
0.173738
0.176646
0.177346
0.175309
0.16491
0.141682
0.11722
0.100448
0.0902901
0.0850699
0.0830135
0.0826881
0.0837357
0.0869707
0.0885277
0.0886116
0.087313
0.0815687
0.0761851
0.0738565
0.0724462
0.0693163
0.0643148
0.0613008
0.0626799
0.0671493
0.0675286
0.0686279
0.0724002
0.0822228
0.110299
0.205931
0.304646
0.333615
0.314997
0.237553
0.229709
0.271928
0.290728
0.272603
0.221547
0.169057
0.148288
0.144733
0.154898
0.173721
0.180867
0.19698
0.210457
0.216346
0.218298
0.213818
0.207354
0.191691
0.184033
0.170467
0.163897
0.156863
0.153389
0.150351
0.148363
0.146787
0.145121
0.143747
0.143894
0.144207
0.144639
0.145193
0.146471
0.148471
0.150664
0.154611
0.165408
0.185065
0.199161
0.257942
0.241336
0.192994
0.199674
0.217135
0.236183
0.263683
0.293412
0.322843
0.342339
0.344229
0.344923
0.343101
0.343368
0.345538
0.352044
0.364024
0.357841
0.247108
0.183634
0.187556
0.195289
0.216148
0.245931
0.277576
0.298733
0.308089
0.310766
0.310852
0.302495
0.278791
0.227744
0.162334
0.119383
0.113082
0.129419
0.133086
0.112693
0.0984415
0.0947534
0.0929174
0.0910824
0.0876342
0.0854262
0.0844814
0.082686
0.0807052
0.0799853
0.0809332
0.0839685
0.0902307
0.101219
0.115945
0.129015
0.134403
0.136933
0.138746
0.141036
0.143526
0.145423
0.146421
0.147363
0.14797
0.148306
0.148824
0.149619
0.150674
0.152208
0.154124
0.156653
0.160271
0.164992
0.170646
0.176121
0.1803
0.183549
0.185886
0.186853
0.187149
0.187131
0.186535
0.185424
0.184051
0.182265
0.179691
0.175992
0.170562
0.162521
0.152826
0.14338
0.135318
0.127723
0.123664
0.131206
0.140184
0.146083
0.148974
0.149506
0.147094
0.142177
0.138313
0.136614
0.13623
0.137585
0.143183
0.155492
0.168349
0.176341
0.180403
0.181482
0.179606
0.167686
0.139435
0.11305
0.0966734
0.0875679
0.0828676
0.0807429
0.0803392
0.0815419
0.086762
0.0908276
0.0921419
0.0920393
0.089576
0.0828742
0.073778
0.0625234
0.0553927
0.0555726
0.0583243
0.0604738
0.0648758
0.0706498
0.0838295
0.128001
0.256255
0.33935
0.350015
0.304139
0.213823
0.213382
0.256115
0.259123
0.227369
0.183169
0.155355
0.147101
0.147622
0.168772
0.180873
0.198819
0.226609
0.24225
0.250121
0.252575
0.245961
0.240697
0.216896
0.199879
0.183015
0.173542
0.162349
0.156761
0.152539
0.149702
0.147634
0.14557
0.142785
0.1411
0.141022
0.141621
0.142432
0.143793
0.14586
0.147582
0.149026
0.151513
0.157568
0.176178
0.213296
0.208509
0.17179
0.212444
0.259935
0.307927
0.376599
0.433269
0.471146
0.490589
0.493072
0.482218
0.451689
0.424518
0.406312
0.385024
0.32598
0.192973
0.17284
0.183699
0.185344
0.200895
0.223565
0.246522
0.265551
0.28195
0.289459
0.291931
0.290559
0.277304
0.245495
0.189181
0.144758
0.12884
0.126992
0.128108
0.119474
0.10362
0.0989378
0.097044
0.0962789
0.0941165
0.0927993
0.0956195
0.102891
0.105406
0.105938
0.106243
0.106832
0.108596
0.113141
0.121697
0.133611
0.140603
0.143099
0.144214
0.144983
0.146321
0.148108
0.148982
0.149368
0.149574
0.149675
0.149857
0.150301
0.151272
0.153032
0.155852
0.160024
0.166453
0.175419
0.183969
0.188347
0.190759
0.192743
0.19369
0.194099
0.194186
0.193544
0.192345
0.190766
0.189058
0.187182
0.185354
0.18327
0.180845
0.17751
0.172601
0.164631
0.152024
0.139389
0.126848
0.11561
0.109281
0.113412
0.12643
0.140318
0.148662
0.1516
0.151565
0.147979
0.141408
0.136684
0.134796
0.134495
0.136313
0.143576
0.157215
0.170626
0.179777
0.184014
0.184619
0.180932
0.161487
0.127036
0.103115
0.0902999
0.0837331
0.0800817
0.0783866
0.0783987
0.080955
0.0890787
0.0939711
0.094772
0.0931454
0.0821745
0.0638425
0.0562956
0.0555908
0.0554621
0.055433
0.0579835
0.0647425
0.0825368
0.153087
0.296048
0.360757
0.360381
0.283849
0.195605
0.198399
0.240053
0.234155
0.198592
0.16661
0.151428
0.14749
0.155556
0.179559
0.193876
0.224374
0.259713
0.276503
0.284012
0.2855
0.273867
0.268859
0.252475
0.222423
0.19797
0.18243
0.169385
0.160042
0.15493
0.150986
0.147949
0.146005
0.143042
0.138764
0.136825
0.13677
0.137376
0.138983
0.141827
0.144854
0.14672
0.147849
0.149741
0.155921
0.207
0.205972
0.167658
0.250572
0.282555
0.351924
0.426081
0.480575
0.511173
0.5306
0.544647
0.526857
0.435843
0.394376
0.354557
0.259386
0.190007
0.166855
0.168423
0.164841
0.164263
0.175976
0.199531
0.220053
0.230703
0.239227
0.243799
0.245335
0.240415
0.220432
0.187036
0.154834
0.136225
0.129013
0.125927
0.120837
0.110118
0.105067
0.103123
0.102093
0.100996
0.100126
0.106491
0.1195
0.125154
0.127035
0.127283
0.126738
0.126186
0.126542
0.130608
0.137305
0.14336
0.146734
0.147979
0.14865
0.149384
0.150354
0.151152
0.151322
0.151168
0.150863
0.150855
0.151145
0.152158
0.154392
0.158196
0.163926
0.172056
0.181582
0.188809
0.192354
0.195142
0.197461
0.19892
0.200213
0.200716
0.200662
0.199222
0.197371
0.194361
0.191247
0.188388
0.1857
0.183526
0.181349
0.178633
0.174682
0.168432
0.156646
0.142239
0.128404
0.11538
0.105039
0.0994053
0.0998005
0.10846
0.128188
0.144437
0.151735
0.153313
0.152317
0.146733
0.138811
0.134363
0.132932
0.133608
0.1389
0.148833
0.162538
0.176112
0.184392
0.18689
0.185927
0.175857
0.141143
0.10869
0.0921517
0.0845364
0.0800859
0.0771682
0.076342
0.0774981
0.0847619
0.0931649
0.0948587
0.0927613
0.0805987
0.0688812
0.0624604
0.057081
0.0555493
0.0572022
0.06365
0.0864543
0.185975
0.327723
0.376416
0.366011
0.262265
0.18028
0.184835
0.224627
0.216201
0.182294
0.159945
0.151075
0.148895
0.165567
0.184687
0.208265
0.253628
0.291715
0.308448
0.314735
0.314799
0.297834
0.284108
0.274755
0.24839
0.216814
0.193593
0.176235
0.16443
0.157847
0.153265
0.148238
0.145572
0.143036
0.137659
0.132749
0.131514
0.131707
0.132531
0.134871
0.13904
0.142569
0.144665
0.145935
0.148784
0.205851
0.205397
0.193565
0.258951
0.29082
0.365136
0.437882
0.47791
0.484378
0.471869
0.42149
0.376031
0.306024
0.256553
0.199638
0.171197
0.162031
0.159764
0.156274
0.150963
0.152109
0.160639
0.172299
0.183725
0.194696
0.198616
0.199593
0.196495
0.184816
0.169869
0.152729
0.139114
0.132217
0.128672
0.123442
0.116588
0.10982
0.106555
0.103929
0.102223
0.101619
0.111618
0.122438
0.129255
0.132838
0.134471
0.13551
0.137257
0.139314
0.141242
0.143631
0.146997
0.149812
0.150982
0.151235
0.151177
0.151232
0.151948
0.152557
0.152614
0.152315
0.1519
0.151878
0.152305
0.153819
0.15672
0.161302
0.168246
0.17788
0.188243
0.195165
0.198823
0.203356
0.207639
0.21265
0.215796
0.217145
0.216795
0.213345
0.207841
0.201261
0.19491
0.189615
0.185243
0.181601
0.178947
0.177319
0.174615
0.169195
0.157894
0.142819
0.128389
0.11598
0.105067
0.0970206
0.0928353
0.0927285
0.0968815
0.114354
0.13716
0.149652
0.153698
0.153734
0.150884
0.142013
0.134191
0.131242
0.131663
0.138208
0.147073
0.157944
0.17202
0.183464
0.187899
0.187839
0.181867
0.152205
0.112538
0.0923931
0.0843826
0.0802217
0.0768269
0.0750745
0.0757317
0.0817962
0.0915465
0.0944436
0.094076
0.0902276
0.0770479
0.0631527
0.0592324
0.0607496
0.0684247
0.0991726
0.222756
0.352767
0.387088
0.366197
0.240816
0.167456
0.17286
0.210626
0.204275
0.174123
0.158133
0.151369
0.152835
0.173822
0.193726
0.227318
0.281853
0.317127
0.334029
0.341474
0.343533
0.329106
0.30767
0.292978
0.266976
0.235554
0.205587
0.184052
0.168768
0.160217
0.155488
0.149129
0.143541
0.140844
0.13554
0.127327
0.123652
0.123604
0.124388
0.126718
0.131702
0.135813
0.138496
0.139915
0.142812
0.203496
0.203055
0.201261
0.245237
0.25625
0.269525
0.266347
0.254394
0.243513
0.241404
0.228345
0.199865
0.179911
0.163545
0.155345
0.151857
0.150714
0.147473
0.136451
0.134345
0.13583
0.141099
0.148974
0.157325
0.163804
0.168534
0.170712
0.171093
0.167203
0.157192
0.146206
0.136661
0.131874
0.12779
0.121141
0.113608
0.108364
0.104649
0.101191
0.0995449
0.106921
0.115486
0.122855
0.128614
0.132192
0.134321
0.136259
0.139659
0.144877
0.149197
0.1511
0.152608
0.153481
0.153764
0.153728
0.153398
0.15333
0.153576
0.153825
0.153875
0.153741
0.153408
0.153384
0.153857
0.155444
0.158741
0.164476
0.173423
0.185554
0.198122
0.206486
0.21391
0.224775
0.237564
0.247127
0.251021
0.249341
0.241157
0.230079
0.219247
0.208657
0.198862
0.19042
0.184079
0.179305
0.175674
0.172921
0.170573
0.166095
0.155221
0.138842
0.12712
0.116555
0.106083
0.0970788
0.0914273
0.0889286
0.0889163
0.0916104
0.104422
0.129308
0.145898
0.152864
0.153864
0.152287
0.144688
0.133555
0.128775
0.128748
0.13755
0.148955
0.158415
0.170614
0.182673
0.188132
0.188357
0.183768
0.15753
0.114
0.0912674
0.0834773
0.0803057
0.076883
0.0744887
0.0749679
0.0802094
0.0909741
0.095381
0.0954866
0.0915648
0.0741818
0.0670914
0.0687197
0.0784563
0.120902
0.266451
0.375985
0.39548
0.361252
0.220066
0.157096
0.162382
0.198214
0.196293
0.171423
0.157904
0.152528
0.160481
0.17891
0.198538
0.238089
0.298706
0.337123
0.356352
0.365939
0.369717
0.355718
0.328381
0.308789
0.28378
0.250574
0.216604
0.191396
0.173346
0.161955
0.156007
0.149911
0.141217
0.136006
0.130619
0.120582
0.113577
0.112565
0.11312
0.115089
0.121452
0.127746
0.130058
0.13098
0.133613
0.200179
0.20079
0.19953
0.222818
0.203827
0.190909
0.171149
0.161438
0.156828
0.152768
0.13991
0.133468
0.130318
0.127702
0.126555
0.129996
0.135857
0.135821
0.123222
0.120425
0.121192
0.123064
0.12665
0.132414
0.137414
0.139927
0.141923
0.142797
0.14294
0.140108
0.136409
0.130044
0.125161
0.118536
0.110152
0.102181
0.0965252
0.0936952
0.0936839
0.103134
0.109377
0.113513
0.118575
0.124808
0.130613
0.134257
0.136673
0.140541
0.146964
0.153441
0.15557
0.156178
0.156306
0.1561
0.155317
0.154954
0.155039
0.155612
0.156884
0.158278
0.158734
0.157975
0.15727
0.157484
0.158982
0.162936
0.171069
0.185928
0.207786
0.225853
0.237424
0.250003
0.261028
0.268902
0.27062
0.268864
0.263279
0.250229
0.235456
0.222442
0.210605
0.200281
0.191261
0.18373
0.177977
0.173951
0.170923
0.167464
0.160547
0.144735
0.1328
0.12517
0.116669
0.107171
0.0983591
0.091913
0.0883605
0.0870467
0.0871074
0.0891557
0.0990017
0.123152
0.141927
0.151109
0.153112
0.151969
0.14576
0.13218
0.125805
0.125428
0.135738
0.151637
0.161522
0.171935
0.182819
0.18794
0.188055
0.18346
0.157274
0.113068
0.089693
0.0825382
0.0804179
0.0769277
0.0743147
0.0748613
0.0801789
0.0915045
0.0954071
0.094421
0.0836949
0.0775992
0.0798262
0.0918557
0.147489
0.305185
0.393212
0.401266
0.349446
0.201514
0.149336
0.154296
0.187903
0.190058
0.171313
0.158036
0.156303
0.166884
0.18201
0.203307
0.250814
0.316165
0.353132
0.371381
0.379942
0.382979
0.372065
0.346102
0.319734
0.293798
0.260778
0.22619
0.197282
0.177455
0.16421
0.156038
0.149692
0.13936
0.129989
0.122526
0.111673
0.102058
0.0996126
0.100024
0.101707
0.107554
0.116491
0.119022
0.119024
0.12163
0.196138
0.195288
0.198704
0.219383
0.199601
0.178929
0.149443
0.138956
0.134317
0.129433
0.122743
0.121401
0.122636
0.128732
0.136837
0.139657
0.140128
0.134704
0.120652
0.114809
0.111991
0.110562
0.110811
0.113309
0.116021
0.117132
0.117648
0.117767
0.116925
0.11531
0.113533
0.110588
0.107214
0.10338
0.0992096
0.0947645
0.0916977
0.0910736
0.0944811
0.105258
0.111301
0.115783
0.121253
0.127964
0.134828
0.138836
0.140947
0.14397
0.150597
0.158244
0.160356
0.160686
0.160498
0.159487
0.157451
0.156273
0.156088
0.156484
0.157925
0.160743
0.164475
0.168606
0.171896
0.174018
0.176144
0.181058
0.192872
0.21154
0.228982
0.243623
0.254043
0.262503
0.270664
0.272453
0.271507
0.268526
0.262031
0.248616
0.231079
0.214914
0.201111
0.191469
0.183685
0.177667
0.172349
0.16816
0.165102
0.160923
0.151543
0.135868
0.124477
0.118252
0.113518
0.10681
0.0999048
0.0937254
0.0892581
0.0870068
0.086371
0.0865237
0.0883172
0.0969119
0.119861
0.13909
0.149129
0.151633
0.150575
0.144454
0.129381
0.122621
0.122673
0.135107
0.155041
0.16591
0.174842
0.183523
0.187337
0.187067
0.181474
0.152498
0.109981
0.0884805
0.0824423
0.0806617
0.076916
0.0745045
0.07527
0.0816756
0.0916715
0.0936113
0.0903393
0.0882909
0.0907052
0.104028
0.17208
0.333041
0.403244
0.403221
0.329384
0.186467
0.144592
0.149761
0.180306
0.185226
0.171362
0.159105
0.161409
0.171713
0.182878
0.203145
0.250751
0.319552
0.357993
0.37688
0.386057
0.387115
0.377759
0.354208
0.325753
0.299211
0.267269
0.23236
0.201321
0.179417
0.165156
0.15464
0.146287
0.135382
0.122812
0.113049
0.101431
0.089362
0.0844509
0.0845354
0.0860948
0.0922679
0.103983
0.106686
0.105859
0.109016
0.191086
0.186558
0.185607
0.210078
0.200668
0.179061
0.147893
0.137348
0.133204
0.129828
0.122452
0.119495
0.121265
0.131713
0.145149
0.147537
0.146544
0.139045
0.126536
0.118338
0.113618
0.110559
0.109907
0.109841
0.109746
0.108964
0.107957
0.107099
0.106101
0.104926
0.103601
0.10227
0.10149
0.100504
0.0988942
0.0961714
0.0944937
0.0943855
0.0980739
0.107443
0.114031
0.119825
0.125665
0.133542
0.14308
0.147339
0.149368
0.151044
0.154314
0.159782
0.162317
0.163184
0.163614
0.163816
0.162943
0.160168
0.158203
0.157917
0.158639
0.160776
0.164217
0.168738
0.174465
0.180958
0.187736
0.195162
0.204452
0.215842
0.227987
0.240579
0.248443
0.256523
0.258292
0.256854
0.25262
0.245305
0.231483
0.214649
0.199024
0.186048
0.177854
0.172651
0.1683
0.16513
0.161619
0.158259
0.154086
0.147273
0.132523
0.118845
0.112099
0.109515
0.10872
0.106267
0.100962
0.0962291
0.0921634
0.0890727
0.0871834
0.0865221
0.0867627
0.0888298
0.0978758
0.120095
0.138132
0.147406
0.149569
0.148273
0.140692
0.125111
0.119446
0.120886
0.13752
0.159887
0.170906
0.178225
0.184093
0.186192
0.185305
0.177574
0.143787
0.105679
0.0878378
0.0831671
0.0809857
0.0769554
0.0750988
0.0763181
0.0838477
0.0908393
0.0917285
0.09239
0.0952932
0.109607
0.18861
0.348343