/*--------------------------------*- C++ -*----------------------------------*\
| =========                 |                                                 |
| \\      /  F ield         | OpenFOAM: The Open Source CFD Toolbox           |
|  \\    /   O peration     | Version:  2112                                  |
|   \\  /    A nd           | Website:  www.openfoam.com                      |
|    \\/     M anipulation  |                                                 |
\*---------------------------------------------------------------------------*/
FoamFile
{
    version     2.0;
    format      ascii;
    arch        "LSB;label=32;scalar=64";
    class       volScalarField;
    location    "0.2";
    object      nut;
}
// * * * * * * * * * * * * * * * * * * * * * * * * * * * * * * * * * * * * * //

dimensions      [0 2 -1 0 0 0 0];

internalField   nonuniform List<scalar> 
12225
(
2.18324e-08
0
0
0
0
0
0
0
0
0
0
0
0
0
0
0
0
0
2.39381e-08
0
0
0
0
0
0
0
0
0
0
0
0
0
0
0
0
0
1.53677e-08
0
0
0
0
0
0
0
0
0
0
0
0
0
0
0
0
0
0
4.91533e-07
0
0
0
0
0
1.35672e-08
3.43404e-10
0
0
0
0
0
0
0
0
1.27039e-08
6.03192e-06
9.56452e-06
0
0
0
5.39885e-06
1.4742e-05
1.50311e-05
5.59937e-06
1.52411e-06
7.7035e-07
7.17412e-07
7.40623e-07
4.4118e-07
2.58614e-07
1.45528e-07
1.80556e-07
8.11458e-08
4.0552e-05
4.46322e-06
0
0
0
7.4048e-06
1.12295e-05
1.17205e-05
1.51844e-05
2.19691e-05
1.45231e-05
7.44085e-06
5.74506e-06
7.05901e-06
9.46493e-06
9.75085e-06
8.87598e-06
7.93029e-06
5.83783e-05
6.13905e-06
0
0
2.7739e-06
5.90582e-06
2.08387e-06
0
0
5.36994e-06
2.37594e-05
1.37925e-05
9.13109e-06
1.73001e-05
3.11841e-05
3.86022e-05
2.88122e-05
1.86106e-05
7.12962e-05
0
0
0
4.42253e-06
0
0
0
0
0
4.02871e-05
2.48663e-05
1.95516e-05
2.34798e-05
2.9302e-05
2.71285e-05
1.22744e-05
0
5.85873e-05
0
0
0
1.42106e-05
0
0
0
0
0
3.852e-05
4.8415e-05
4.43651e-05
2.7409e-05
1.1801e-05
1.51382e-06
0
0
0
0
0
0
4.41344e-05
6.69355e-05
1.39031e-05
0
0
0
0
0
0
0
0
0
0
0
0
0
0
0
5.45588e-05
4.44186e-05
1.00233e-05
4.67429e-07
0
0
0
0
0
0
0
0
0
0
0
0
0
0
1.64397e-05
2.77404e-05
1.21801e-05
2.73946e-05
2.76166e-05
0
0
0
0
0
0
0
0
0
0
0
0
0
0
0
0
0
0
0
0
0
0
0
0
0
0
0
0.000127948
9.79057e-05
0
0
0
0
0
0
0
0
0
1.21029e-06
4.60195e-06
4.97999e-06
1.08945e-06
0
0
0
0.000113721
8.4878e-05
0
0
0
0
0
0
0
0
1.90965e-05
4.11507e-05
3.3789e-05
2.05918e-05
8.87546e-06
2.95878e-06
0
0
4.72043e-05
1.32468e-08
0
0
0
0
0
0
0
0
0
2.945e-05
6.50052e-05
5.20568e-05
3.48881e-05
2.57443e-05
1.72682e-05
5.62652e-07
0
0
0
2.35596e-06
1.31996e-05
0
0
0
0
0
4.52432e-06
3.26579e-05
5.20213e-05
7.71233e-05
9.11858e-05
8.02998e-05
5.41885e-05
2.29081e-05
0
1.6877e-05
0
0
3.26323e-05
2.58579e-06
0
0
0
4.23114e-05
4.11374e-05
3.61563e-05
4.88993e-05
6.98487e-05
8.50878e-05
8.074e-05
6.27967e-05
4.22259e-05
0
0
0
0
1.88689e-05
0.0001164
6.99587e-05
5.08605e-05
0.000132877
0.000183049
0.000119768
6.31281e-05
2.91208e-05
2.33113e-05
2.80657e-05
3.00922e-05
2.73248e-05
2.38063e-05
2.16245e-05
1.99736e-05
1.92003e-05
9.5278e-05
0.000158287
0.000110793
6.60671e-05
4.0854e-05
3.58604e-05
8.80654e-05
0.000110693
5.36739e-05
0
0
0
0
0
0
0
0
0
2.34816e-05
4.87739e-05
5.24971e-05
6.2704e-05
7.01735e-05
7.90725e-05
5.98954e-05
3.68281e-05
8.2804e-06
0
0
0
0
0
0
0
0
0
0
0
3.90823e-06
3.27315e-05
5.76093e-05
6.01819e-05
3.27692e-05
4.57765e-06
0
0
0
0
0
0
0
0
0
0
0
0
0
2.77166e-05
1.36352e-06
0
3.71127e-06
2.70589e-05
1.09141e-05
0
0
0
0
0
0
0
0
0
0
0
0
5.08273e-05
2.73149e-05
5.50047e-06
2.71342e-05
3.99099e-05
2.86935e-05
0
0
0
0
0
0
0
5.1943e-05
4.65405e-05
6.73776e-06
0
1.44087e-05
7.03992e-05
2.54381e-05
9.21204e-06
3.27107e-05
4.38214e-05
4.26451e-05
2.76282e-05
0
0
0
0
0
0.000137669
0.000116131
0.000106345
8.03082e-05
0
0
0
0
0
2.40399e-05
2.58311e-05
2.00986e-05
1.51443e-05
3.93935e-06
0
0
0
0
7.12719e-06
7.85396e-06
1.14312e-06
1.99436e-06
3.96608e-06
3.64745e-06
1.74849e-06
1.54098e-07
0
0
0
0
0
0
0
0
0
0
0
0
0
0
7.6483e-09
2.35224e-08
1.48207e-08
0
0
0
0
0
0
0
0
0
0
0
0
0
0
0
0
0
0
0
0
0
0
0
0
0
0
0
0
0
0
0
0
0
0
0
0
0
0
0
0
0
0
0
0
0
0
0
5.61799e-06
4.7143e-06
2.38751e-06
2.05605e-06
1.38779e-06
6.92281e-07
1.1048e-07
0
0
0
0
0
0
0
0
0
0
0
0
0
0
0
0
0
0
0
0
0
6.54231e-08
4.04374e-07
7.24021e-07
9.29515e-07
9.79192e-07
5.97556e-07
1.57202e-08
4.84199e-07
4.11187e-06
1.47386e-05
6.41008e-06
1.05383e-05
2.72938e-05
8.20176e-05
0.000136692
0.00015203
0.000104602
5.27552e-05
2.15446e-05
8.64544e-06
2.71135e-06
4.31953e-07
0
0
0
0
0
0
1.88146e-07
3.83976e-07
5.58612e-07
7.0216e-07
8.12215e-07
8.88514e-07
9.35789e-07
9.5523e-07
9.52648e-07
9.29408e-07
8.8883e-07
8.32747e-07
7.62616e-07
6.81939e-07
5.9231e-07
4.96023e-07
3.95183e-07
2.90675e-07
1.82571e-07
6.98376e-08
0
0
0
0
0
0
0
0
0
0
0
0
0
0
0
0
0
0
0
0
0
0
0
0
0
0
0
0
0
0
0
0
0
0
0
6.17948e-08
0
0
0
0
0
0
0
1.2165e-06
2.35458e-06
2.79747e-06
2.82287e-06
2.40917e-06
1.6125e-06
8.65403e-07
5.72209e-07
6.07865e-07
4.17771e-07
0
0
0
7.63984e-07
3.61316e-07
0
0
0
0
0
2.00666e-06
3.35238e-06
3.88006e-06
3.1726e-06
1.73919e-06
2.03099e-06
8.8528e-06
4.67355e-05
0.000134716
9.51133e-05
1.64905e-05
2.68475e-06
8.21741e-07
4.84157e-07
3.17708e-07
1.6391e-07
7.72072e-09
0
0
0
0
0
0
0
0
0
0
0
0
0
0
0
0
0
0
0
0
0
0
0
0
5.0379e-06
5.09068e-06
4.40786e-06
3.82096e-06
2.6437e-06
1.18748e-06
0
0
0
0
0
0
0
0
2.03993e-06
2.30766e-06
1.73477e-06
8.19785e-07
0
0
0
0
0
0
0
0
0
0
0
3.06875e-07
5.85639e-07
6.32858e-07
5.00249e-07
1.17395e-07
2.3368e-07
2.81704e-06
6.97766e-06
5.72225e-06
1.65982e-06
0
0
0
0
1.94426e-06
1.55467e-05
1.77847e-05
1.24725e-05
8.16854e-06
5.46818e-06
3.91607e-06
2.64908e-06
1.88259e-06
1.36338e-06
1.09098e-06
9.41358e-07
8.83602e-07
8.87764e-07
9.26988e-07
9.82387e-07
1.03355e-06
1.07097e-06
1.08954e-06
1.09037e-06
1.07308e-06
1.04214e-06
9.9789e-07
9.43096e-07
8.77736e-07
8.02698e-07
7.19893e-07
6.2902e-07
5.30619e-07
4.2656e-07
3.16539e-07
2.00783e-07
7.80821e-08
0
0
0
0
0
0
0
0
0
0
0
0
0
0
0
0
0
0
0
0
0
0
0
0
0
0
0
0
0
0
0
0
0
0
0
0
0
0
0
0
0
0
0
0
8.65162e-08
8.55058e-07
1.68969e-06
2.20342e-06
1.96495e-06
1.40992e-06
1.26877e-06
1.35915e-06
7.6758e-07
0
0
0
9.27351e-08
3.27689e-07
0
0
0
0
0
1.30251e-06
2.72022e-06
3.40967e-06
3.13388e-06
2.91176e-06
6.82612e-06
2.88412e-05
8.43429e-05
8.96059e-05
5.36249e-05
1.88248e-05
4.98148e-06
1.79042e-06
1.01572e-06
6.21427e-07
3.18709e-07
5.52299e-08
0
0
0
0
0
0
0
0
0
0
0
0
0
0
0
0
0
0
0
0
0
0
0
0
3.57538e-06
4.10948e-06
4.62141e-06
5.17468e-06
5.06826e-06
4.36012e-06
2.06737e-06
0
0
0
0
0
0
0
0
0
8.85527e-06
1.5009e-05
1.54311e-05
1.26593e-05
9.5592e-06
7.63883e-06
6.41583e-06
5.07879e-06
3.82347e-06
2.63355e-06
1.1999e-06
0
0
0
0
0
0
0
0
0
0
0
0
0
0
0
1.88421e-06
1.03718e-06
9.19701e-06
1.1859e-05
9.09524e-06
7.82611e-06
7.50133e-06
7.57963e-06
7.26046e-06
7.0553e-06
6.71889e-06
6.34024e-06
5.77651e-06
5.14165e-06
4.45215e-06
3.83588e-06
3.28385e-06
2.86369e-06
2.50474e-06
2.22278e-06
1.96908e-06
1.75784e-06
1.5531e-06
1.36798e-06
1.18581e-06
1.01047e-06
8.42423e-07
6.83293e-07
5.37211e-07
4.05994e-07
2.97216e-07
2.0409e-07
1.2438e-07
5.44519e-08
0
0
0
0
0
0
0
0
0
0
0
0
0
0
0
0
0
0
0
0
0
0
0
0
0
0
0
0
0
0
0
0
0
0
0
0
0
0
0
0
0
0
0
0
0
0
0
0
8.54335e-07
1.34225e-06
1.81786e-06
1.86325e-06
0
0
0
0
0
0
0
0
0
0
0
3.08318e-06
8.94421e-06
1.20808e-05
1.15826e-05
8.72082e-06
7.76826e-06
1.2937e-05
2.17683e-05
2.56595e-05
2.0933e-05
1.52522e-05
9.8138e-06
6.46932e-06
4.10848e-06
2.39342e-06
1.20236e-06
3.30705e-07
0
0
0
0
0
0
0
0
0
0
0
0
0
0
0
0
0
0
0
0
0
0
0
0
2.566e-06
2.93122e-06
5.6054e-06
7.12998e-06
8.1201e-06
8.28874e-06
6.53208e-06
3.42212e-06
0
0
0
0
0
0
0
0
0
7.35428e-06
1.73944e-05
1.57796e-05
1.2563e-05
1.14129e-05
1.05392e-05
8.91473e-06
6.66301e-06
3.53349e-06
1.0145e-06
1.95735e-06
3.33532e-06
2.36554e-06
0
0
0
0
0
0
0
0
0
0
0
0
2.83893e-06
2.46644e-06
9.5705e-06
1.1912e-05
1.23729e-05
1.30554e-05
1.27439e-05
1.09563e-05
8.60909e-06
6.49069e-06
4.67935e-06
3.26345e-06
2.05688e-06
1.09002e-06
2.82532e-07
0
0
0
0
0
0
0
0
0
0
0
0
0
1.03709e-06
2.81192e-06
5.51984e-06
9.64766e-06
1.46798e-05
4.78502e-06
0
0
0
0
0
0
0
0
0
0
0
0
0
0
0
0
0
0
0
0
0
0
0
0
0
0
0
0
0
0
0
0
0
0
0
0
0
0
0
0
0
0
0
0
0
0
0
0
0
0
0
0
0
0
0
0
7.63697e-06
6.58817e-06
0
0
0
0
7.54589e-06
8.81076e-06
8.8964e-06
1.05652e-05
8.46266e-06
8.94539e-07
0
0
3.33187e-06
8.11784e-06
1.17603e-05
1.43471e-05
1.38358e-05
1.1564e-05
6.97488e-06
0
0
0
4.3747e-06
1.89971e-06
0
0
0
0
0
0
0
0
0
0
0
0
0
0
0
0
0
0
0
0
0
0
3.03582e-07
2.07348e-06
9.7185e-06
1.48879e-05
1.62691e-05
1.54651e-05
1.32794e-05
9.96538e-06
5.61429e-06
5.25576e-07
0
0
0
0
9.23504e-06
1.88298e-05
2.15477e-05
1.53093e-05
6.9958e-06
6.22779e-06
1.05833e-05
1.05589e-05
9.40018e-06
7.23983e-06
2.67963e-06
0
6.08081e-06
1.96621e-05
1.87904e-05
1.2779e-05
5.74501e-06
0
0
0
0
0
0
0
0
0
0
0
2.46127e-07
5.94555e-06
1.2151e-05
1.02835e-05
7.47489e-06
4.50852e-06
2.53418e-06
8.77903e-07
0
0
0
0
0
0
0
0
0
0
0
0
0
0
0
0
0
1.9475e-07
1.53941e-06
3.18881e-06
5.28267e-06
7.95818e-06
1.12183e-05
1.35624e-05
7.70387e-06
0
0
0
0
0
0
0
0
0
0
0
0
0
0
0
0
0
0
0
0
0
0
0
0
0
0
0
0
0
0
0
0
0
0
0
0
0
0
0
0
0
0
0
0
0
0
0
0
0
0
0
0
0
0
0
0
0
1.86027e-05
2.91978e-06
2.08613e-06
5.2777e-07
7.05098e-06
1.22413e-05
9.17496e-06
8.74738e-06
9.84715e-06
1.22891e-05
1.02243e-05
4.92298e-06
1.63322e-06
2.07841e-06
4.70377e-06
8.10812e-06
1.2634e-05
1.06391e-05
3.90311e-06
0
0
0
0
0
1.51762e-05
1.10464e-05
4.10898e-06
0
0
0
0
0
0
0
0
0
0
0
0
0
0
0
0
0
0
0
0
0
0
1.49766e-06
1.00992e-05
1.75776e-05
2.13385e-05
2.16523e-05
1.98598e-05
1.69543e-05
1.28776e-05
7.1923e-06
0
0
2.50526e-06
2.95857e-05
3.76805e-05
2.67652e-05
1.56054e-05
7.14462e-06
3.99619e-07
0
0
1.56891e-06
2.10432e-07
0
0
2.53865e-05
4.96013e-05
3.85004e-05
2.86979e-05
1.9666e-05
1.05018e-05
2.28826e-06
0
0
0
0
0
0
0
0
0
0
6.41581e-06
1.31619e-05
9.26408e-06
5.59403e-06
3.37607e-06
1.53317e-06
1.59738e-07
0
0
0
0
0
0
0
0
0
0
0
0
0
0
0
7.33599e-08
1.06035e-06
1.88742e-06
2.62219e-06
3.36697e-06
4.23165e-06
5.2074e-06
5.92035e-06
5.26161e-06
1.88271e-06
0
0
0
0
0
0
0
0
0
0
0
0
0
0
0
0
0
0
0
0
0
0
0
0
0
0
0
0
0
0
0
0
0
0
0
0
0
0
0
0
0
0
0
0
0
0
0
0
0
0
0
0
0
0
0
0
0
0
0
0
6.39471e-06
9.33444e-06
1.78268e-05
1.12071e-05
1.02337e-05
1.0483e-05
1.2183e-05
1.5213e-05
1.44179e-05
1.14227e-05
9.48776e-06
9.74451e-06
1.0754e-05
1.30407e-05
1.03224e-05
1.56079e-06
0
0
0
0
0
0
2.30492e-05
1.61359e-05
7.02997e-06
1.04668e-06
0
0
0
0
0
0
0
0
0
0
0
0
0
0
0
0
0
0
0
0
0
1.47789e-06
6.2627e-06
1.28331e-05
1.66694e-05
1.33109e-05
7.09556e-06
0
0
0
0
0
2.81948e-05
2.13089e-05
1.07941e-05
2.85974e-06
0
0
0
0
0
6.15722e-07
0
0
1.26003e-05
4.23964e-05
4.59744e-05
3.94332e-05
3.19919e-05
2.36246e-05
1.26403e-05
1.51143e-06
0
0
0
0
0
0
0
0
0
0
0
1.47432e-05
8.80272e-06
4.11611e-06
1.35828e-06
0
0
0
0
0
0
0
0
0
0
0
0
0
0
0
5.23369e-07
1.20762e-06
1.47097e-06
1.46336e-06
1.38994e-06
1.44884e-06
1.7635e-06
2.31855e-06
2.80908e-06
2.50043e-06
8.35785e-07
0
0
0
0
0
0
0
0
0
0
0
0
0
1.30911e-07
8.60992e-07
1.42969e-06
1.56892e-06
1.14273e-06
1.11672e-07
0
0
0
0
0
0
0
0
0
0
0
0
0
0
0
0
0
0
0
0
0
0
0
0
0
0
0
0
0
0
0
0
0
0
0
0
1.16176e-06
0
1.71116e-06
1.94187e-06
8.1603e-06
6.99846e-06
1.18683e-05
2.1817e-05
1.47123e-05
9.67723e-06
1.02533e-05
1.12743e-05
1.31249e-05
1.63566e-05
1.66632e-05
1.48621e-05
1.36026e-05
1.34719e-05
1.35413e-05
1.15982e-05
3.17151e-06
0
0
0
0
0
0
0
2.43738e-05
1.88941e-05
9.19406e-06
2.36815e-06
0
0
0
0
0
0
0
0
0
0
0
0
0
0
0
0
0
0
0
0
1.03401e-06
2.66328e-06
5.98484e-06
9.20727e-06
0
0
0
0
0
0
0
2.43702e-05
1.86139e-05
1.19217e-05
4.75182e-06
0
0
0
0
0
5.9774e-07
0
0
4.71656e-06
2.14691e-05
3.85163e-05
4.50542e-05
4.39266e-05
4.01942e-05
3.14619e-05
1.39185e-05
0
0
0
0
0
0
0
0
0
0
0
0
1.14821e-05
6.7833e-06
1.65033e-06
0
0
0
0
0
0
0
0
0
0
0
0
0
0
4.15756e-07
1.02053e-06
1.10477e-06
9.12117e-07
6.78208e-07
5.81747e-07
7.68771e-07
1.34162e-06
2.22814e-06
2.99079e-06
2.85704e-06
1.47716e-06
0
0
0
0
0
0
0
0
0
0
0
0
0
0
0
0
1.88596e-07
1.66189e-06
2.16966e-06
1.62065e-06
4.37486e-07
0
0
0
0
0
0
0
0
0
0
0
0
0
0
0
0
0
0
0
0
0
0
0
0
0
0
0
0
0
0
0
0
0
0
1.33814e-07
5.13756e-06
8.26071e-06
3.55939e-06
1.95154e-05
1.56046e-05
9.24956e-06
1.91185e-05
2.53296e-05
9.01026e-06
7.60095e-06
9.24568e-06
1.08431e-05
1.28978e-05
1.57175e-05
1.64408e-05
1.49088e-05
1.33571e-05
1.25462e-05
1.15894e-05
7.85861e-06
0
0
0
0
0
0
0
0
2.44779e-05
2.17832e-05
1.22203e-05
4.46369e-06
0
0
0
0
0
0
0
0
0
0
0
0
0
0
0
0
0
0
0
0
1.56989e-07
5.54601e-07
2.2e-06
0
0
0
0
0
3.2349e-05
5.91502e-05
5.44806e-05
3.67907e-05
1.94079e-05
9.07e-06
2.40127e-06
0
0
0
0
0
0
0
2.59761e-07
9.43334e-06
2.56641e-05
4.25263e-05
5.24938e-05
5.6236e-05
5.67919e-05
3.46399e-05
0
0
1.73483e-06
0
0
0
0
0
0
0
0
0
0
1.15394e-06
0
0
0
0
0
0
0
0
0
0
0
0
0
0
0
8.32638e-07
1.07242e-06
9.20713e-07
7.19997e-07
6.03657e-07
6.49927e-07
9.49145e-07
1.53785e-06
2.25764e-06
2.60249e-06
1.98307e-06
4.15458e-07
0
0
0
0
0
0
0
0
0
0
0
0
0
0
0
0
0
0
0
1.19204e-06
1.74959e-06
1.45968e-06
7.1592e-07
0
0
0
0
0
0
0
0
0
0
0
0
0
0
0
0
0
0
0
0
0
0
0
0
0
0
0
0
0
0
0
0
0
0
4.60173e-06
8.82051e-06
4.79719e-06
2.78724e-05
1.19019e-05
8.16194e-06
2.64653e-05
1.64826e-05
5.17147e-06
5.6569e-06
7.80351e-06
9.77762e-06
1.21677e-05
1.43077e-05
1.50903e-05
1.34863e-05
1.15407e-05
1.05417e-05
9.474e-06
5.71662e-06
0
0
0
0
0
0
0
2.09835e-06
2.39705e-05
2.33947e-05
1.52767e-05
6.77394e-06
7.59495e-07
0
0
0
0
0
0
0
0
0
0
0
0
0
0
0
0
0
0
0
0
0
0
6.22027e-06
2.14808e-05
3.32057e-05
4.68852e-05
5.75286e-05
6.03342e-05
5.85855e-05
5.57271e-05
4.73246e-05
2.79042e-05
8.00358e-06
0
0
0
0
0
0
0
0
1.65552e-06
1.14018e-05
2.44018e-05
3.51585e-05
3.6998e-05
2.46989e-05
0
0
0
0
0
0
0
0
1.69476e-06
2.4166e-06
1.74796e-06
4.71568e-07
0
0
0
0
0
0
0
0
0
0
0
0
0
0
0
0
0
0
9.85995e-07
1.17949e-06
8.00209e-07
4.43394e-07
2.80734e-07
3.3683e-07
6.16045e-07
1.05539e-06
1.42227e-06
1.34141e-06
5.84016e-07
0
0
0
0
0
0
0
0
4.14004e-07
1.25657e-06
1.70551e-06
1.81751e-06
1.64125e-06
1.12564e-06
2.16151e-07
0
0
0
0
0
0
2.58359e-07
1.49663e-06
1.8655e-06
1.61036e-06
9.70033e-07
0
0
0
0
0
0
0
0
0
0
0
0
0
0
0
0
0
0
0
0
0
0
0
0
0
0
0
0
0
0
0
0
0
0
8.89454e-07
5.84095e-06
2.74879e-05
8.62425e-06
6.5731e-06
2.9039e-05
7.65824e-06
2.22771e-06
3.67475e-06
6.0268e-06
8.42912e-06
1.11932e-05
1.26614e-05
1.33856e-05
1.18076e-05
9.75149e-06
8.82568e-06
8.00038e-06
4.49216e-06
0
0
0
0
0
0
0
5.49505e-06
2.45976e-05
2.41602e-05
1.76275e-05
9.15421e-06
2.24102e-06
0
0
0
0
0
0
0
0
0
0
0
0
0
0
0
0
0
0
0
0
0
0
6.07621e-06
1.2592e-05
1.86337e-05
2.74158e-05
3.80441e-05
4.77938e-05
5.61102e-05
6.14319e-05
6.36559e-05
4.71914e-05
1.00682e-05
0
0
0
0
0
0
0
0
0
2.45756e-06
8.85711e-06
1.28891e-05
1.04064e-05
2.79529e-06
0
0
4.31302e-07
3.17082e-06
4.26192e-06
5.05329e-06
5.75371e-06
5.54094e-06
4.73717e-06
3.8784e-06
2.76913e-06
1.34175e-06
0
0
0
0
0
0
0
0
0
0
0
0
0
0
0
0
0
4.66303e-07
9.55997e-07
5.23057e-07
0
0
0
1.55745e-07
6.28139e-07
8.88394e-07
6.60121e-07
0
0
0
0
0
0
0
0
0
0
0
4.91643e-07
7.87367e-07
1.04851e-06
1.43173e-06
1.83244e-06
2.00268e-06
1.74573e-06
7.37692e-07
0
0
0
0
1.26729e-07
1.36641e-06
1.70988e-06
1.49911e-06
1.24474e-06
8.50351e-07
1.16733e-07
0
0
0
0
0
0
0
0
0
0
0
0
0
0
0
0
0
0
0
0
0
0
0
0
0
0
0
0
0
0
0
0
0
5.47668e-06
2.54125e-05
6.84516e-06
5.58273e-06
2.06613e-05
1.11126e-06
0
1.64035e-06
3.98214e-06
6.85316e-06
9.98228e-06
1.08758e-05
1.15157e-05
1.00944e-05
8.17352e-06
7.37966e-06
6.75883e-06
3.5575e-06
0
0
0
0
0
0
0
9.84335e-06
2.67253e-05
2.53184e-05
1.94773e-05
1.12096e-05
3.71173e-06
0
0
0
0
0
0
0
0
0
0
0
0
0
0
0
0
0
0
0
0
0
0
3.32949e-06
6.75336e-06
9.11108e-06
1.26923e-05
1.70138e-05
1.95566e-05
1.99985e-05
1.9883e-05
1.89554e-05
1.39848e-05
0
0
3.35692e-06
3.98005e-06
0
0
0
0
0
0
0
0
0
4.41404e-07
1.8032e-06
3.6403e-06
6.02853e-06
7.96807e-06
8.97482e-06
9.27395e-06
9.07724e-06
8.43626e-06
7.38796e-06
6.16655e-06
4.99292e-06
3.46936e-06
5.53435e-07
0
0
0
0
0
0
0
0
0
0
0
0
0
0
0
0
0
0
0
0
0
0
0
5.36823e-08
1.39758e-07
0
0
0
0
0
0
0
0
0
0
0
0
0
0
0
0
0
0
1.3642e-07
6.7183e-07
6.10278e-07
0
0
0
0
8.40483e-07
1.85827e-06
1.79372e-06
1.08837e-06
4.39188e-07
0
0
0
0
0
0
0
0
0
0
0
0
0
0
0
0
0
0
0
0
0
0
0
0
0
0
0
0
0
0
0
0
0
0
0
1.45326e-06
2.36957e-05
6.01308e-06
4.92334e-06
5.29753e-06
0
0
0
1.74398e-06
5.01627e-06
8.40741e-06
8.9286e-06
9.51684e-06
8.29075e-06
6.64504e-06
6.01329e-06
5.57809e-06
2.69486e-06
0
0
0
0
0
0
0
1.33011e-05
2.81512e-05
2.60099e-05
2.06873e-05
1.28282e-05
5.06676e-06
1.71038e-08
0
0
0
0
0
0
0
0
0
0
0
0
0
0
0
0
0
0
0
0
0
0
0
0
0
0
0
0
0
0
0
0
0
6.8581e-06
1.3222e-05
8.83409e-06
3.18196e-06
0
0
0
0
0
0
0
0
1.69468e-07
2.70271e-06
4.84583e-06
6.32797e-06
7.09469e-06
7.43746e-06
7.49499e-06
7.35121e-06
6.93594e-06
6.31974e-06
5.24817e-06
5.94573e-07
0
0
0
3.57779e-06
3.07373e-06
1.70887e-06
5.15049e-07
0
0
0
0
0
0
0
0
0
0
0
0
0
0
0
0
0
3.13696e-07
0
0
0
0
0
0
0
0
0
0
0
0
0
0
0
0
0
0
0
0
0
0
0
0
0
7.474e-07
2.31481e-06
2.89347e-06
2.35336e-06
1.40135e-06
3.32841e-07
0
0
0
0
0
0
0
0
0
0
0
0
0
0
0
0
0
0
0
0
0
0
0
0
0
0
0
0
0
0
0
0
0
0
0
0
1.97925e-05
4.93922e-06
1.69726e-06
0
0
0
0
0
3.01669e-06
6.34443e-06
6.82654e-06
7.41219e-06
6.36675e-06
5.02635e-06
4.65091e-06
4.51464e-06
1.94422e-06
0
0
0
0
0
0
0
1.44867e-05
2.7276e-05
2.57564e-05
2.10853e-05
1.39316e-05
6.40559e-06
1.23955e-06
0
0
0
0
0
0
0
0
0
0
0
0
0
0
0
0
0
0
0
0
0
0
0
0
0
0
0
0
0
0
0
0
0
0
1.03676e-06
8.57661e-06
1.46935e-05
2.01366e-05
1.01758e-05
0
0
0
0
0
0
0
0
1.15247e-06
2.71702e-06
3.65479e-06
4.17577e-06
4.47449e-06
4.66881e-06
4.69256e-06
4.27436e-06
1.96856e-06
0
0
0
0
0
0
0
0
3.56929e-07
6.27719e-07
7.20914e-07
7.62397e-07
8.64029e-07
1.04803e-06
1.2416e-06
1.34907e-06
1.19438e-06
4.50205e-07
0
0
0
0
0
0
0
0
0
0
0
0
0
0
0
0
0
0
0
0
0
0
0
0
0
0
0
0
0
0
0
0
5.1439e-07
2.70348e-06
3.9691e-06
3.51377e-06
2.22799e-06
1.01039e-06
2.16981e-07
0
0
0
0
0
0
0
0
0
0
0
0
0
0
0
0
0
0
0
0
0
0
0
0
0
0
0
0
0
0
0
0
0
0
0
0
3.51986e-06
7.20587e-07
0
0
0
0
0
0
1.366e-06
3.91969e-06
4.61227e-06
5.19945e-06
4.34036e-06
3.25132e-06
3.22295e-06
3.49995e-06
1.36618e-06
0
0
0
0
0
0
0
1.36702e-05
2.41698e-05
2.39424e-05
2.05802e-05
1.46159e-05
7.71699e-06
2.46591e-06
0
0
0
0
0
0
0
0
0
0
0
0
0
0
0
0
8.37749e-06
0
0
0
0
0
0
0
0
0
0
0
0
0
0
0
0
0
0
2.26075e-07
1.94944e-06
2.88691e-06
3.84208e-06
6.03992e-06
5.16315e-06
0
0
0
0
0
0
0
0
0
2.6959e-09
0
0
0
0
0
0
0
0
0
0
0
0
2.59183e-07
5.86525e-07
7.26296e-07
7.25185e-07
7.67265e-07
1.01642e-06
1.46428e-06
1.93889e-06
2.2642e-06
2.2363e-06
1.45695e-06
0
0
0
0
0
0
0
0
0
0
0
0
0
0
0
0
0
0
0
0
0
0
0
0
0
0
0
0
0
0
3.08284e-07
1.25493e-06
3.73187e-06
5.91325e-06
5.23698e-06
3.62404e-06
2.23478e-06
9.94688e-07
8.95486e-08
0
0
0
0
0
0
0
0
0
0
0
0
0
0
0
0
0
0
0
0
0
0
0
0
0
0
0
0
0
0
0
0
0
0
0
0
0
0
0
0
0
0
0
0
9.30089e-07
1.64421e-06
2.3861e-06
2.90869e-06
2.23517e-06
1.32939e-06
1.61366e-06
2.33028e-06
8.48022e-07
0
0
0
0
0
0
0
1.12337e-05
1.99623e-05
2.09292e-05
1.94135e-05
1.49556e-05
8.7079e-06
3.50345e-06
7.37759e-07
0
0
0
0
0
0
0
0
0
0
0
0
0
0
0
7.12593e-06
1.20049e-05
0
0
0
0
0
0
0
0
0
0
0
0
0
0
0
0
0
0
0
0
0
0
0
0
0
0
0
0
0
0
0
0
0
0
0
0
0
0
0
0
0
0
0
0
0
0
0
0
0
0
1.38955e-07
7.45266e-07
1.46688e-06
2.14202e-06
2.53403e-06
2.34716e-06
1.18811e-06
0
0
0
0
0
0
0
0
0
0
0
0
0
0
0
0
0
0
0
0
0
0
0
0
0
0
5.06094e-07
1.17218e-06
2.09794e-06
4.0027e-06
7.79521e-06
1.00728e-05
7.47089e-06
4.78268e-06
3.0168e-06
1.9176e-06
1.20267e-06
7.30075e-07
4.63688e-07
0
0
0
0
0
0
0
0
0
0
0
0
0
0
0
0
0
0
0
0
0
0
0
0
0
0
0
0
0
0
0
0
0
0
0
0
0
0
0
0
0
2.81299e-07
1.61909e-06
1.36443e-06
0
2.9532e-07
6.11937e-07
5.18358e-08
0
0
7.57014e-07
1.2815e-07
0
0
0
0
0
0
0
8.62019e-06
1.55665e-05
1.73688e-05
1.81947e-05
1.51435e-05
9.16307e-06
4.26394e-06
2.05879e-06
8.21948e-07
0
0
0
0
0
0
0
0
0
0
0
0
0
0
5.41828e-06
1.94185e-05
0
0
0
0
0
0
0
0
0
0
0
0
0
0
0
0
0
0
0
0
0
0
0
0
0
0
0
0
0
0
0
0
0
0
0
0
0
0
0
0
0
0
0
0
0
0
0
0
0
0
0
0
0
0
0
0
3.31431e-06
5.44945e-06
5.35141e-06
4.00761e-06
2.64414e-06
1.5746e-06
8.42601e-07
4.63405e-07
2.4796e-07
1.8265e-08
0
0
0
0
0
0
0
0
0
0
0
0
0
0
7.86152e-07
1.51955e-06
2.27128e-06
3.3325e-06
5.21824e-06
8.98229e-06
1.40691e-05
1.35279e-05
8.4899e-06
5.13435e-06
3.52285e-06
2.51236e-06
1.72978e-06
1.27754e-06
1.13019e-06
1.16411e-06
1.12444e-06
4.59131e-07
0
0
0
0
0
0
0
0
0
0
0
0
0
0
0
0
0
0
0
0
0
0
0
0
0
0
0
0
0
0
0
0
0
0
0
0
0
0
0
2.37911e-06
3.22528e-06
6.11046e-07
0
0
0
0
0
0
0
0
0
0
2.15155e-06
2.90872e-06
0
0
0
7.32079e-06
1.05154e-05
1.29511e-05
1.6704e-05
1.46747e-05
8.65973e-06
4.62604e-06
3.52364e-06
2.3879e-06
1.1721e-07
0
0
0
0
0
0
0
0
0
8.53775e-07
2.74848e-06
1.75388e-06
0
5.13741e-06
1.87554e-05
0
0
0
0
0
0
0
0
0
0
0
0
1.54994e-06
1.30258e-06
1.92571e-06
2.71151e-06
1.78773e-06
0
0
0
0
0
0
0
0
0
0
0
0
0
0
0
0
2.46343e-07
4.38191e-07
5.75689e-07
7.01157e-07
8.09704e-07
8.69167e-07
8.74349e-07
8.45644e-07
7.96542e-07
7.11353e-07
5.90559e-07
4.68195e-07
3.67917e-07
2.49714e-07
3.86156e-08
0
0
0
0
0
0
0
0
0
0
0
0
7.52884e-08
7.73479e-07
1.15221e-06
1.32095e-06
1.348e-06
1.21361e-06
8.57793e-07
3.58598e-07
0
0
0
0
0
0
0
0
0
0
0
2.37728e-06
4.1961e-06
6.06355e-06
8.74111e-06
1.27531e-05
1.72275e-05
1.70435e-05
1.17448e-05
7.39549e-06
5.02009e-06
3.85554e-06
3.18573e-06
2.52884e-06
1.84389e-06
1.52758e-06
1.48859e-06
1.54632e-06
1.51559e-06
1.03878e-06
0
0
0
0
0
0
0
0
0
0
0
0
0
0
0
0
0
0
0
8.61308e-08
0
0
0
0
0
8.35997e-07
0
0
0
0
0
0
0
0
0
0
0
0
1.25488e-06
3.44071e-06
3.16571e-06
0
0
0
0
0
0
0
0
0
0
2.7413e-06
1.04835e-05
2.04825e-05
2.4928e-05
2.18628e-05
1.57951e-05
8.27228e-06
3.86379e-06
7.8955e-06
1.55296e-05
1.34971e-05
7.01539e-06
4.67509e-06
5.24205e-06
4.08699e-06
1.25704e-06
0
0
0
0
0
0
0
0
1.43488e-07
2.16468e-06
5.22306e-06
5.18077e-06
3.70055e-06
4.18247e-06
8.71704e-06
0
0
0
0
0
0
0
0
4.67796e-07
1.44535e-06
2.66195e-06
4.94167e-06
6.49329e-06
4.91014e-06
4.45503e-06
4.53796e-06
3.9382e-06
2.27939e-06
1.1747e-06
7.35222e-07
0
0
0
0
0
0
0
0
0
0
0
0
0
0
0
2.38049e-07
5.05608e-07
7.10029e-07
8.23339e-07
8.6338e-07
8.70589e-07
8.81523e-07
8.94894e-07
9.05689e-07
9.13727e-07
9.24389e-07
9.29948e-07
8.96009e-07
7.6882e-07
5.71339e-07
3.65651e-07
1.82615e-07
7.78169e-09
0
0
0
0
0
0
0
0
0
0
0
0
0
0
0
0
0
0
0
0
0
0
0
0
0
0
1.24761e-05
1.9365e-05
2.3149e-05
2.37149e-05
1.92013e-05
1.31032e-05
8.91872e-06
6.62628e-06
5.37508e-06
4.63002e-06
4.14083e-06
3.5422e-06
2.86556e-06
2.31586e-06
1.98668e-06
1.71947e-06
1.55998e-06
1.436e-06
9.12887e-07
0
0
0
0
0
0
0
0
0
0
0
0
0
0
0
1.86242e-07
3.25386e-07
2.66603e-07
4.30355e-07
9.6212e-07
8.69724e-07
0
0
0
0
1.21582e-06
1.56968e-06
0
0
0
5.72961e-06
0
0
0
0
0
0
0
2.03279e-06
3.34476e-06
2.01477e-06
0
0
0
0
0
0
0
0
0
0
5.53869e-06
1.83293e-05
3.67528e-05
5.98006e-05
7.3668e-05
5.78541e-05
1.49605e-05
0
2.14531e-06
1.42492e-05
1.01482e-05
3.35286e-06
4.34701e-06
7.3053e-06
5.86252e-06
2.38824e-06
2.52196e-07
0
0
0
0
0
0
4.24717e-07
1.35339e-06
3.20306e-06
6.56417e-06
6.97117e-06
5.68708e-06
3.22436e-06
1.61179e-06
0
0
0
0
0
0
0
0
1.58835e-06
2.9452e-06
4.09923e-06
5.15124e-06
5.17242e-06
4.04042e-06
4.07841e-06
4.24268e-06
3.73165e-06
2.34784e-06
6.13922e-07
2.53374e-07
1.17856e-06
1.17115e-06
2.07827e-07
0
0
0
0
0
0
0
0
0
0
0
0
0
1.78334e-08
3.71819e-07
5.64658e-07
6.07133e-07
5.72301e-07
5.44881e-07
5.58561e-07
6.18317e-07
7.0972e-07
8.19586e-07
9.41881e-07
1.06592e-06
1.15937e-06
1.2433e-06
1.37939e-06
1.64142e-06
2.12401e-06
2.94426e-06
4.28725e-06
6.47438e-06
8.2074e-06
0
0
0
0
0
0
0
0
0
0
0
0
0
0
0
0
0
0
0
0
0
2.65993e-06
1.67517e-05
1.99367e-05
1.73664e-05
1.4044e-05
1.13874e-05
9.44782e-06
8.04262e-06
6.97818e-06
6.0662e-06
5.12894e-06
4.30437e-06
3.8168e-06
3.61425e-06
3.28494e-06
2.62312e-06
1.88474e-06
1.44277e-06
1.25884e-06
7.39153e-07
4.15328e-09
0
0
0
0
0
0
0
0
0
0
0
0
0
0
9.81542e-07
1.25545e-06
1.14128e-06
1.20627e-06
1.77307e-06
2.12212e-06
1.45542e-06
5.11262e-07
0
1.65701e-07
1.02548e-06
9.80616e-07
0
0
0
6.41827e-06
0
0
0
0
0
0
0
2.13406e-06
2.56567e-06
6.5729e-07
0
0
0
0
0
0
0
0
0
0
5.5684e-06
2.33084e-05
4.75981e-05
8.48678e-05
0.00013321
0.000154936
4.81348e-05
0
0
1.09257e-05
1.72383e-06
0
3.72914e-06
9.74599e-06
7.5443e-06
3.501e-06
1.66832e-06
6.1414e-07
0
0
0
0
0
1.06076e-06
2.5178e-06
4.29588e-06
7.33243e-06
7.79736e-06
6.5891e-06
2.4638e-06
0
0
0
0
0
0
0
0
0
1.85145e-06
3.00274e-06
3.45629e-06
3.52528e-06
3.06405e-06
1.92998e-06
1.96337e-06
2.32202e-06
2.10372e-06
1.55579e-06
4.68708e-07
0
0
0
5.31297e-08
2.96765e-07
3.94582e-07
4.90503e-07
1.61693e-07
0
0
0
0
0
0
0
0
0
0
0
2.42604e-07
4.01164e-07
3.80988e-07
3.00678e-07
2.59769e-07
2.98378e-07
4.05761e-07
5.63457e-07
7.65386e-07
1.0063e-06
1.29098e-06
1.65519e-06
2.1833e-06
2.97765e-06
4.16707e-06
5.85275e-06
7.94446e-06
9.51266e-06
7.91774e-06
3.5475e-06
1.62339e-06
9.89118e-07
3.59834e-07
0
0
0
0
0
0
0
0
0
0
0
0
0
0
0
0
0
4.81411e-06
1.48827e-05
1.78499e-05
1.62436e-05
1.35971e-05
1.12559e-05
9.4394e-06
7.9874e-06
6.7334e-06
5.66064e-06
4.87242e-06
4.5404e-06
4.55126e-06
4.52149e-06
4.19222e-06
3.37378e-06
2.30182e-06
1.59025e-06
1.3035e-06
7.3831e-07
1.16319e-07
1.4111e-07
0
0
0
0
0
0
0
0
0
0
0
0
0
1.8234e-06
2.34892e-06
2.17092e-06
2.12071e-06
2.54839e-06
3.22621e-06
2.91093e-06
2.02318e-06
1.47743e-06
1.90145e-06
1.70335e-06
0
9.10133e-07
0
0
5.72133e-07
0
0
0
0
0
0
0
1.70019e-06
1.47083e-06
0
0
0
0
0
0
0
0
0
0
0
2.03987e-06
2.30481e-05
5.05741e-05
8.90656e-05
0.000151044
0.000244889
0.000209147
0
0
0
0
0
3.00586e-06
1.25126e-05
8.80076e-06
4.59824e-06
3.15712e-06
1.55734e-06
0
0
0
0
0
1.44453e-06
3.44969e-06
5.46109e-06
8.04746e-06
8.21906e-06
7.00907e-06
1.95425e-06
0
0
0
0
0
0
0
0
0
0
9.71654e-07
1.53054e-06
1.39227e-06
6.93926e-07
0
0
3.88215e-08
5.52652e-07
9.32999e-07
7.73639e-07
0
0
0
0
0
0
0
0
0
0
0
0
0
0
0
0
0
0
0
0
1.4775e-07
2.52834e-07
2.03873e-07
1.41828e-07
1.64899e-07
2.87301e-07
4.97885e-07
8.03335e-07
1.19225e-06
1.704e-06
2.3872e-06
3.29311e-06
4.33352e-06
5.20115e-06
5.56802e-06
5.3879e-06
4.72192e-06
3.74085e-06
2.64896e-06
1.59388e-06
4.70261e-07
0
0
0
0
0
0
0
0
0
0
0
0
0
0
0
0
0
0
3.54198e-06
1.82886e-05
1.9754e-05
1.58165e-05
1.23097e-05
9.98028e-06
8.50133e-06
7.48041e-06
6.67494e-06
6.01634e-06
5.54654e-06
5.24968e-06
5.11572e-06
4.9818e-06
4.73663e-06
4.15338e-06
3.15072e-06
2.19193e-06
1.67163e-06
1.05937e-06
4.44584e-07
1.37473e-06
1.49611e-06
0
0
0
0
0
0
0
0
0
0
0
0
2.64939e-06
3.49417e-06
3.30586e-06
3.15794e-06
3.32525e-06
4.11947e-06
4.25677e-06
3.38744e-06
2.77152e-06
3.30984e-06
3.22546e-06
0
0
2.83038e-06
0
0
0
0
0
0
0
0
0
8.56163e-07
1.85169e-07
0
0
0
0
0
0
0
0
0
0
0
0
1.69754e-05
4.5081e-05
7.79213e-05
0.000121642
0.000181742
0.000241942
0
0
0
0
0
2.43467e-06
1.50558e-05
9.00546e-06
5.75877e-06
4.66435e-06
2.16509e-06
0
0
0
0
0
1.67163e-06
4.05487e-06
6.47262e-06
9.08331e-06
9.06169e-06
7.49511e-06
1.69628e-06
0
0
0
0
0
0
0
0
0
0
0
3.55404e-07
9.72813e-07
9.09846e-07
0
0
0
0
0
2.92655e-07
3.14412e-08
0
0
0
0
7.01207e-07
1.99859e-06
2.02226e-06
3.72214e-07
0
0
0
0
0
0
0
0
0
0
0
0
4.37183e-08
7.55948e-08
4.82992e-08
9.36027e-08
2.64408e-07
5.60511e-07
1.00531e-06
1.5925e-06
2.34373e-06
3.23653e-06
4.07285e-06
4.54722e-06
4.53543e-06
4.17872e-06
3.61345e-06
2.69171e-06
1.04206e-06
0
0
7.02106e-08
6.08716e-07
5.05813e-07
1.19893e-07
0
0
0
0
0
0
0
0
0
0
0
0
0
0
0
0
1.78446e-05
1.32086e-05
1.07674e-05
9.70863e-06
9.16095e-06
8.73021e-06
8.19368e-06
7.57858e-06
6.93632e-06
6.39976e-06
6.00855e-06
5.69233e-06
5.43575e-06
5.23718e-06
4.87657e-06
4.08283e-06
2.95755e-06
2.12727e-06
1.46106e-06
9.14145e-07
2.18827e-06
3.31199e-06
2.58048e-06
0
0
0
0
0
0
0
0
0
0
0
3.4855e-06
4.61955e-06
4.47952e-06
4.27998e-06
4.16017e-06
4.79682e-06
5.39216e-06
4.72981e-06
3.80421e-06
4.21869e-06
4.83986e-06
3.87013e-07
0
3.22237e-06
1.10565e-06
0
0
0
0
0
0
0
0
0
0
0
0
0
0
0
0
0
0
0
0
0
0
6.98292e-06
3.28155e-05
5.92528e-05
8.43475e-05
0.000105182
0.000105733
2.25949e-05
0
0
0
0
1.61168e-06
1.56036e-05
7.19453e-06
7.17967e-06
6.13124e-06
2.37676e-06
0
0
0
0
0
1.86935e-06
4.44766e-06
7.22748e-06
1.02557e-05
1.07876e-05
8.99994e-06
2.10731e-06
0
0
0
0
0
0
0
0
0
0
0
0
0
9.07667e-07
0
0
0
0
0
0
0
0
0
0
1.36632e-06
4.17101e-06
5.33138e-06
4.366e-06
2.61503e-06
6.22276e-07
0
0
0
0
0
0
0
0
0
0
0
0
0
0
0
1.57902e-07
5.40797e-07
1.11374e-06
1.87347e-06
2.75671e-06
3.61081e-06
4.16374e-06
4.32383e-06
4.12489e-06
3.58017e-06
2.49884e-06
1.04788e-07
0
0
4.16608e-06
1.22948e-05
9.52172e-06
6.93874e-06
4.75594e-06
2.62195e-06
7.10395e-07
0
0
0
0
0
0
0
0
0
0
0
0
0
0
7.65217e-06
7.99254e-06
8.28518e-06
8.59777e-06
8.9007e-06
9.06291e-06
8.99046e-06
8.54946e-06
7.93011e-06
7.38334e-06
6.9578e-06
6.52183e-06
6.03333e-06
5.65744e-06
5.40286e-06
4.91698e-06
3.84533e-06
2.63332e-06
1.73786e-06
1.24034e-06
2.66206e-06
4.09177e-06
3.91164e-06
1.00048e-06
0
0
0
0
0
0
0
0
0
0
4.37447e-06
5.70234e-06
5.62224e-06
5.43224e-06
5.09845e-06
5.33311e-06
6.19607e-06
6.02766e-06
4.84893e-06
4.77568e-06
5.92532e-06
2.04282e-06
0
1.46734e-06
3.39209e-06
1.26193e-06
0
0
0
0
4.88877e-07
0
0
0
0
0
0
0
0
0
0
0
0
0
0
0
0
0
1.75322e-05
3.84481e-05
5.36651e-05
5.94194e-05
4.79524e-05
7.24156e-06
0
0
0
0
0
6.91513e-06
3.32014e-06
9.25084e-06
7.6546e-06
2.0499e-06
0
0
0
0
0
2.11354e-06
4.80775e-06
7.80895e-06
1.13066e-05
1.27507e-05
1.16819e-05
4.97486e-06
7.57928e-08
0
0
0
0
0
0
0
0
0
0
0
0
1.68506e-06
8.41955e-06
2.18562e-06
0
0
0
0
0
0
0
0
2.94911e-06
5.69536e-06
5.99563e-06
5.16474e-06
3.18667e-06
4.08234e-07
0
0
0
0
0
0
0
0
0
0
0
0
0
0
0
8.63464e-09
4.53197e-07
1.12099e-06
2.00543e-06
2.95901e-06
3.76538e-06
4.24428e-06
4.38167e-06
4.10596e-06
3.13621e-06
6.90796e-07
0
0
0
3.26475e-05
3.62214e-05
2.41356e-05
1.60812e-05
1.0929e-05
7.00648e-06
3.78549e-06
1.10212e-06
0
0
0
0
0
0
0
0
0
0
0
0
3.04078e-06
6.88101e-06
6.77694e-06
7.11855e-06
7.84868e-06
8.71251e-06
9.40718e-06
9.74051e-06
9.66553e-06
9.16657e-06
8.48274e-06
7.96027e-06
7.48206e-06
6.82038e-06
6.08935e-06
5.74262e-06
5.59822e-06
4.88676e-06
3.45931e-06
2.12107e-06
1.46239e-06
2.81909e-06
4.29226e-06
4.09328e-06
1.51094e-06
0
0
0
0
0
0
0
0
0
0
5.33065e-06
6.73431e-06
6.69407e-06
6.53909e-06
6.13923e-06
5.85282e-06
6.65034e-06
7.10285e-06
6.00265e-06
5.25912e-06
6.37022e-06
3.90733e-06
0
0
3.4891e-06
3.36816e-06
0
0
0
0
1.77717e-06
0
0
0
0
0
0
0
0
0
0
0
0
0
0
0
0
0
3.30108e-06
1.93281e-05
2.98719e-05
3.15301e-05
2.1233e-05
0
0
0
0
0
0
0
2.0523e-06
1.22251e-05
9.46767e-06
7.18793e-07
0
0
0