/*--------------------------------*- C++ -*----------------------------------*\
| =========                 |                                                 |
| \\      /  F ield         | OpenFOAM: The Open Source CFD Toolbox           |
|  \\    /   O peration     | Version:  2112                                  |
|   \\  /    A nd           | Website:  www.openfoam.com                      |
|    \\/     M anipulation  |                                                 |
\*---------------------------------------------------------------------------*/
FoamFile
{
    version     2.0;
    format      ascii;
    arch        "LSB;label=32;scalar=64";
    class       volScalarField;
    location    "0.19";
    object      omega;
}
// * * * * * * * * * * * * * * * * * * * * * * * * * * * * * * * * * * * * * //

dimensions      [0 0 -1 0 0 0 0];

internalField   nonuniform List<scalar> 
12225
(
15612.7
23147.4
28075.4
29581.7
29403.8
28786.7
27710.1
26630.8
25632.9
24726.5
23941.5
23230.9
22653.5
22098.7
21698.3
21274
20978.8
20761.7
379.434
1726.54
3470.95
5034.16
6133.82
6872.88
7308.92
7552.72
7669.2
7724.41
7724.17
7713.61
7691.15
7661.28
7623.67
7600.78
7532.01
7566.15
23.4343
100.49
247.868
472.107
702.587
954.07
1168.79
1378.16
1541.09
1700.24
1815.29
1933.43
2012.75
2102.48
2156.05
2224.65
2245.18
2327.32
11.944
18.7358
33.287
61.7104
87.5518
127.7
157.955
203.764
235.188
280.426
309.554
350.901
375.61
411.467
433.954
462.98
469.305
511.915
11.8556
12.5414
13.5152
18.2003
22.4018
31.682
37.779
47.3667
53.2294
63.2535
69.4087
79.1251
84.8742
93.8964
99.8347
107.137
109.707
121.143
11.8997
11.9354
12.0651
12.5879
13.1448
15.2821
16.716
19.958
21.9818
25.0559
26.9069
29.7381
31.5379
34.2631
36.1084
38.3994
39.4662
42.8549
11.8956
11.9102
11.9479
12.0015
12.1115
12.3342
12.6984
13.4174
14.0911
15.2388
16.135
17.2905
18.0425
19.0974
19.819
20.7385
21.2876
22.5217
11.8908
11.9055
11.9224
11.953
11.9767
12.0338
12.0846
12.192
12.3305
12.5841
12.8749
13.3272
13.6822
14.1853
14.5189
14.9419
15.2239
15.7401
11.8881
11.899
11.91
11.9341
11.9502
11.9833
12.0035
12.0419
12.067
12.1151
12.1736
12.2636
12.3475
12.5415
12.6645
12.8749
13.0068
13.2227
11.8864
11.8933
11.9016
11.9189
11.932
11.9567
11.9732
11.9998
12.0169
12.044
12.0615
12.0858
12.1026
12.1457
12.1738
12.2235
12.281
12.3535
11.8852
11.8889
11.8947
11.9069
11.9177
11.9362
11.9504
11.9706
11.9855
12.0058
12.0201
12.0389
12.052
12.0697
12.0786
12.094
12.1077
12.1228
11.8843
11.8862
11.8898
11.8983
11.9073
11.9215
11.9336
11.9495
11.9622
11.978
11.9902
12.0053
12.0168
12.031
12.0409
12.0535
12.0608
12.0696
11.8835
11.8841
11.8862
11.8918
11.8989
11.9099
11.92
11.9328
11.9435
11.9561
11.9662
11.9781
11.9873
11.9983
12.0065
12.0168
12.0237
12.0323
11.8828
11.8822
11.8832
11.8863
11.8915
11.8998
11.9078
11.9178
11.9266
11.9366
11.9448
11.9542
11.9613
11.9696
11.9757
11.9831
11.9881
11.9948
11.8827
11.8803
11.8806
11.8821
11.8852
11.8912
11.8973
11.9049
11.9118
11.9196
11.9262
11.9335
11.9392
11.9455
11.9501
11.9554
11.9588
11.9633
11.8823
11.8792
11.8782
11.8788
11.8806
11.8843
11.8888
11.8944
11.8997
11.9057
11.9109
11.9165
11.921
11.9258
11.9294
11.9333
11.9359
11.939
11.8818
11.8786
11.8764
11.8766
11.8775
11.8797
11.8828
11.8869
11.891
11.8956
11.8997
11.904
11.9076
11.9113
11.9141
11.9171
11.9191
11.9214
11.8817
11.8782
11.8756
11.8752
11.8758
11.8771
11.8796
11.8826
11.8861
11.8896
11.8931
11.8965
11.8997
11.9025
11.905
11.9073
11.9091
11.9107
11.8817
11.8783
11.8757
11.8754
11.8759
11.8771
11.8796
11.8825
11.8859
11.8893
11.8927
11.8959
11.899
11.9017
11.9041
11.9062
11.9081
11.9096
11.882
11.8791
11.8771
11.8773
11.8783
11.8804
11.8838
11.8875
11.8917
11.8958
11.9
11.9038
11.9074
11.9106
11.9136
11.9161
11.9185
11.9204
11.8827
11.88
11.8796
11.8804
11.8824
11.8862
11.8911
11.8962
11.9018
11.9071
11.9125
11.9173
11.9222
11.9263
11.9305
11.934
11.9375
11.9403
11.883
11.8822
11.8829
11.8848
11.8897
11.8948
11.9023
11.9089
11.917
11.9239
11.9318
11.938
11.9451
11.9507
11.9569
11.9613
11.9665
11.9701
11.8842
11.8849
11.8876
11.8916
11.9004
11.907
11.9194
11.9274
11.9412
11.9493
11.9642
11.9722
11.9867
11.9968
12.0148
12.0272
12.0496
12.0672
11.8858
11.889
11.8953
11.9021
11.9173
11.9336
11.9504
11.9745
12.015
12.0396
12.1098
12.1667
12.259
12.3457
12.4744
12.5818
12.7303
12.848
11.8881
11.8955
11.9092
11.9494
11.9875
12.1122
12.2476
12.4063
12.839
13.11
13.6328
14.0427
14.6726
15.1508
15.7688
16.2339
16.832
17.2716
11.8847
11.9411
12.097
12.4764
13.4343
14.3063
16.1061
17.4934
20.1892
22.0026
24.7236
26.57
29.1857
30.9309
33.4883
35.1795
37.6459
39.2381
12.0364
12.5463
16.4322
20.8979
31.4735
39.3172
52.4027
61.7614
76.0347
85.7322
100.514
110.182
124.631
133.791
147.484
155.945
168.664
176.316
17.2335
32.1836
87.3304
148.76
236.449
322.866
425.64
514.597
613.125
692.022
778.186
843.518
916.39
968.741
1029.88
1071.32
1122.83
1155.56
206.427
720.543
1463.14
2269.21
3049.02
3687.06
4188.24
4566.75
4842.87
5036.95
5175.07
5267.56
5333.23
5373.05
5403.24
5416.52
5430.7
5426.19
10260
14311.2
18149.9
20410.2
21529.2
21705.6
21575.2
21245
20746.3
20222.9
19707.5
19218
18759.6
18338.2
17948.7
17596.3
17270.5
16977.8
3439.1
754.979
755.79
757.424
761.425
769.271
782.218
800.858
825.433
856.122
891.693
933.007
976.903
1020.38
1065.4
1113.95
1156.26
1189.88
1217.69
1237.64
1250.22
1253.06
1250.14
1241.15
1223.71
1208.31
1192.46
1174.32
1153.32
1128.04
1096.75
1057.52
1008.13
947.247
879.825
836.559
831.273
831.849
827.203
821.276
819.538
818.252
817.311
815.096
811.075
820.45
917.224
1044.22
1100.74
1137.43
1168.86
1202.73
1261
1357.48
1507.36
1695.98
1883.92
2034.19
2136.88
2204.15
2249.28
2267.94
2273.22
2271.26
2243.55
2181.57
2090.77
1981.46
1866.82
1750.99
1650.57
1570.84
1510.64
1482.8
1494.15
1533.46
1595.08
1655.14
1727.36
1811.42
1887.35
1984.2
2102.6
2203.29
2324.99
2447.57
2557.05
2710.51
2831.93
2972.91
3160.83
3219.84
3193.09
3010.47
2202.15
1190.58
1178.83
1289.2
1326.73
1333.13
1318.86
1274.6
1208.1
1119.33
1089.5
1104.11
1301.89
1298.84
1557.41
2460.15
3111.03
3557.29
3891.17
4153.15
4366.18
4544.28
4697.24
4830.43
4948.58
5053.25
5146.89
5229.13
5301.22
5361.79
5411.69
5447.08
5468.1
5480.42
5485.07
5467.5
5444.68
5411.04
5370.66
5321.67
5266.42
5203.46
5134.58
5060.12
4981.16
4897.47
4809.96
4718.51
4623.9
4526.14
4426.15
4324.63
4222.72
4122.08
4024.3
3925.64
3826.13
3726.44
3626.19
3523.73
3418.45
3311.3
3223.82
3175.46
3259.81
3377.07
3493.99
3610.28
3727.25
3845.15
3961.47
4080.64
4198.43
4310.31
4419.36
4522.23
4612.41
4688.61
4746.9
4766.81
4762.72
4707.7
4556.57
4258.84
3956.56
3529.34
3439.05
816.93
393.571
273.438
221.331
192.395
176.266
168.549
166.716
167.367
169.732
174.173
179.697
186.021
192.951
200.141
207.7
214.974
221.845
227.506
232.026
235.749
239.028
240.95
247.615
263.729
291.965
331.765
382.149
440.717
504.208
568.262
625.293
665.605
666.981
640.515
569.626
430.848
325.839
298.163
290.669
288.745
383.874
598.945
692.745
721.434
732.6
694.645
676.891
686.108
753.204
873.035
959.485
1001.56
1018.38
1016.8
952.625
847.7
748.173
650.344
572.01
531.257
516.006
521.535
537.57
541.769
546.584
547.11
547.19
549.291
557.882
575.44
599.43
626.633
653.025
676.984
698.962
719.711
739.274
757.649
774.655
788.965
801.697
810.829
811.217
808.433
800.952
786.688
754.568
718.136
774.194
954.396
1251.67
2012.44
2019.81
1718.63
1311.88
1001.48
717.953
597.969
587.216
589.444
599.824
618.702
603.549
730.545
1191.29
1861.44
2057.49
2292.88
2366.94
2152.09
1992.76
1811.32
1665.58
1547.38
1437.34
1356.66
1268.85
1205.09
1127.31
1068.43
994.865
936.95
868.891
817.286
764.079
730.879
711.046
701.747
701.752
705.877
706.867
710.819
712.025
715.706
716.933
719.466
720.757
722.113
723.127
723.852
724.395
724.739
725.166
725.668
726.332
727.066
727.785
728.462
728.889
728.846
727.482
724.716
719.59
712.425
703.991
695.302
688.022
681.254
674.206
667.949
662.505
658.101
654.605
653.494
653.266
654.131
656.883
659.863
665.562
673.626
680.089
696.469
765.626
953.503
1197.05
1467.87
1604.82
1854.74
3440.25
830.978
379.184
241.385
179.432
151.449
141.354
139.382
140.05
142.358
146.898
152.66
159.567
167.45
176.42
185.378
195.525
203.955
210.975
214.59
215.921
215.491
214.258
211.975
209.339
207.025
207.471
209.838
215.681
227.921
250.124
284.255
331.776
389.868
446.16
484.304
477.195
440.234
387.718
369.655
421.325
486.05
521.237
548.368
540.536
459.621
434.216
431.56
458.35
543.816
601
620.176
623.774
604.464
557.246
514.458
470.702
437.42
423.022
418.124
419.222
435.157
447.861
461.393
466.388
468.079
468.093
466.991
469.665
481.489
506.227
539.801
574.768
603.708
626.462
646.263
665.21
684.263
702.456
720.588
737.213
751.672
762.522
770.285
772.157
769.632
762.064
749.607
736.322
717.411
666.773
664.175
701.574
880.618
1407.4
1545.67
1441.58
1160.73
828.133
664.901
589.407
568.925
549.63
529.093
632.615
1373.01
1656.4
1751.7
1759.45
1463.56
1157.76
950.644
820.725
704.89
646.434
590.844
562.07
540.15
524.025
515.487
510.938
509.355
510.624
514.393
520.639
529.241
539.374
551.691
564.274
577.119
588.307
599.019
608.516
617.187
624.723
631.556
637.266
642.276
646.384
649.97
653.183
656.149
658.912
661.693
664.736
668.173
672.082
676.172
680.348
684.541
688.395
691.595
693.022
692.947
688.699
680.254
668.312
652.868
633.72
612.804
591.041
570.265
551.259
533.889
517.754
504.895
493.848
484.698
478.721
473.37
466.542
461.847
459.212
450.719
447.497
452.019
469.838
523.841
581.534
740.921
3444.5
855.813
350.985
200.265
152.202
139.154
137.039
139.002
144.791
153.905
164.701
177.457
192.623
211.442
230.263
244.709
251.255
251.103
249.515
246.211
242.435
238.191
234.21
230.672
227.321
223.758
220.352
217.254
215.151
214.335
215.743
221.494
235.96
265.688
313.793
369.444
409.494
423.152
406.745
437.301
474.287
471.776
469.224
408.794
349.444
333.448
334.327
365.709
429.853
462.047
469.775
467.105
445.162
414.203
391.316
379.306
373.777
372.909
381.775
394.669
407.106
424.541
437.784
444.98
446.261
445.727
440.609
436.386
437.437
449.21
468.238
486.527
500.508
506.902
514.905
524.921
536.961
551.841
567.922
587.101
606.542
629.216
650.466
671.218
686.433
693.536
693.296
687.5
673.187
650.82
625.789
591.656
592.748
629.081
786.889
1148.29
1304.3
1210.68
997.369
801.886
662.946
607.546
591.235
603.936
1239.36
1509.58
1537.89
1390.44
1022.76
789.024
629.516
537.762
490.346
464.616
453.921
450.547
453.718
462.033
471.667
484.678
498.238
513.826
530.619
549.458
567.251
584.371
599.883
613.308
624.633
634.336
642.975
650.182
656.601
662.024
666.741
670.5
673.415
675.635
677.301
678.451
679.426
680.368
681.305
682.515
684.179
686.623
689.987
693.93
698.249
702.78
706.966
710.718
712.942
713.722
709.984
699.038
681.522
659.962
634.052
604.986
575.043
546.228
520.357
497.938
477.621
460.703
448.248
439.807
434.688
431.658
429.401
429.413
430.13
431.961
432.381
431.199
421.275
417.102
419.449
448.125
3454.97
810.886
302.346
176.484
144.757
139.386
143.045
152.637
164.963
179.595
198.201
223.229
250.224
266.231
270.537
269.027
265.031
256.956
248.026
237.98
228.889
220.611
214.201
210.694
209.762
210.342
211.806
213.641
214.995
216.071
216.391
216.694
218.927
228.413
253.624
303.322
362.543
405.86
422.221
452.652
456.833
421.59
347.123
304.225
292.201
293.545
317.119
361.467
387.577
393.188
391.371
377.07
356.494
347.096
343.298
342.801
348.768
359.937
371.471
386.536
401.733
418.184
434.137
439.982
440.706
438.9
430.799
419.145
411.892
409.073
408.755
411.504
415.801
418.511
425.119
433.666
446.068
464.355
488.872
520.867
551.075
584.249
614.22
643.7
666.698
682.378
687.96
684.598
670.602
643.53
614.969
572.683
555.038
563.552
612.788
788.897
1015.93
1094.89
1009.55
876.275
721.817
652.571
651.798
895.328
1398.45
1426.66
1220.5
815.151
623.227
508.982
453.254
429.939
423.001
423
433.914
443.871
457.872
475.132
494.985
515.42
535.751
555.621
572.925
587.371
600.406
611.92
621.228
629.333
635.941
641.83
646.511
650.649
653.833
656.492
658.525
660.029
660.803
661.328
661.526
661.677
661.967
662.791
664.076
666.158
669.296
673.801
679.583
686.725
694.27
701.668
707.525
711.73
714.248
715.263
711.945
700.185
672.259
637.63
598.867
556.791
513.659
471.941
434.759
403.379
377.915
357.116
340.872
331.31
328.711
329.171
331.737
340.201
353.386
372.609
395.151
412.108
418.061
418.624
412.795
408.833
3465.9
746.11
265.632
166.5
146.501
148.996
159.131
173.532
192.382
217.754
252.458
277.385
284.173
282.028
274.836
260.42
237.661
212.895
190.897
174.3
161.942
154.119
149.772
148.464
150.138
154.813
164.331
177.827
195.205
207.898
215.15
218.105
218.987
222.203
235.453
272.663
337.066
396.07
424.189
438.061
411.569
328.646
285.64
273.374
273.168
288.405
319.819
344.289
349.757
349.546
341.533
328.008
322.652
321.161
322.009
329.254
339.63
351.216
364.434
379.713
395.565
412.112
429.138
440.976
443.284
442.938
438.058
425.888
408.823
398.889
395.242
394.208
393.969
394.794
398.035
404.258
414.598
429.615
449.786
476.967
513.597
552.306
590.264
625.86
655.256
679.168
694.731
706.14
713.145
699.665
668.206
612.478
552.709
544.816
558.599
622.747
786.705
906.646
932.402
876.588
729.18
685.613
720.745
1191.73
1366.99
1223.02
760.454
552.957
460.991
420.274
406.491
403.864
414.119
424.399
441.791
460.579
482.103
500.278
517.009
532.27
546.722
559.559
570.703
580.464
588.009
593.319
596.573
598.924
599.964
600.152
599.665
598.627
597.527
596.694
596.463
596.501
596.959
598.233
600.407
603.527
607.839
613.472
620.802
629.8
640.502
652.545
665.367
678.351
690.496
700.645
707.854
711.901
713.029
711.084
704.304
689.355
658.643
617.978
571.197
520.204
468.078
419.032
375.184
337.273
306.765
283.716
264.399
246.67
233.681
229.193
229.277
231.613
237.613
252.276
280.47
325.454
369.689
398.979
408.154
408.675
3478.5
658.911
237.904
163.85
154.611
163.125
179.074
201.946
233.778
271.764
292.083
292.679
287.417
271.242
237.925
199.192
170.57
153.429
142.273
134.87
129.662
126.044
123.944
123.186
124.013
126.494
131.784
141.299
155.154
178.831
204.911
216.605
219.857
222.052
230.454
261.143
329.019
394.146
413.626
406.007
341.663
280.636
263.596
261.201
268.644
292.354
316.241
323.472
323.68
318.959
309.95
305.701
304.701
305.77
311.684
321.107
331.742
343.425
357.1
371.907
387.194
403.338
419.826
435.389
443.134
444.521
443.943
439.287
428.648
411.248
398.364
394.997
394.099
394.12
395.647
400.257
408.326
419.645
432.782
449.647
471.696
501.695
543.256
584.741
623.52
654.59
687.466
708.923
727.398
738.938
728.393
692.864
632.582
562.734
558.144
582.42
686.79
786.545
814.673
804.633
704.852
702.799
855.238
1268.2
1267.6
835.52
542.823
441.512
404.272
393.117
391.703
404.103
418.104
437.293
457.462
472.165
488
500.789
514.625
526.673
536.742
543.699
548.3
551.045
552.246
552.615
552.701
553.005
553.701
554.799
556.126
557.738
559.582
561.575
563.862
566.601
569.746
573.509
577.969
583.262
589.422
596.524
605.807
617.036
630.577
646.063
661.797
677.077
691.171
702.999
711.162
714.154
713.675
709.448
698.191
673.412
631.135
577.249
517.163
454.966
394.279
340.673
297.423
263.575
236.794
217.527
204.064
192.941
183.274
177.666
176.985
177.723
180.561
186.785
199.575
215.403
255.452
323.274
374.74
398.28
3491.47
602.876
226.795
169.563
166.084
180.831
205.421
240.581
279.945
297.855
299.957
291.333
267.083
223.357
183.414
158.402
143.568
133.869
126.985
121.996
118.191
115.563
114.023
113.55
114.105
115.699
118.954
124.983
135.729
154.169
182.232
209.816
219.069
221.654
230.07
261.868
331.92
385.511
391.365
362.107
287.177
257.828
252.007
253.636
268.755
294.368
306.765
307.785
305.369
298.332
293.176
291.906
292.123
295.782
303.753
313.715
324.089
335.546
348.718
362.649
376.975
392.077
407.237
421.371
434.275
441.382
443.025
443.162
441.625
436.212
424.958
414.406
412.471
412.036
411.897
411.813
413.579
419.285
429.269
441.757
457.704
479.28
508.938
544.85
586.526
622.363
655.704
690.253
724.316
751.602
762.675
754.648
706.63
641.541
588.701
593.179
648.616
701.408
715.427
700.79
682.478
736.409
1085.28
1246.4
1061.73
592.817
442.657
396.277
383.276
381.352
392.784
409.749
428.455
444.172
458.934
471.617
485.406
495.878
505.06
510.628
515.566
519.328
522.778
525.485
528.122
531.051
534.538
537.776
540.979
544.12
547.253
550.428
553.543
556.469
559.447
562.791
566.488
570.66
575.254
580.714
586.963
593.977
603.18
614.727
629.287
646.53
665.671
685.284
702.088
713.776
719.489
719.142
714.954
704.568
683.355
644.473
591.48
525.781
454.024
383.569
318.976
265.796
225.455
196.173
174.677
158.237
145.873
136.522
132.187
131.834
132.43
134.389
138.254
143.572
153.382
168.416
186.739
214.887
292.34
358.239
3504.37
572.877
223.265
177.551
179.079
201.669
236.247
279.049
300.099
305.385
299.575
277.774
239.319
193.905
161.028
143.586
133.616
126.163
120.367
115.809
112.162
109.909
108.682
108.44
109.026
110.466
113.181
117.912
126.35
140.985
166.726
199.255
216.532
220.561
230.793
265.999
337.652
366.692
362.254
311.146
256.978
243.029
241.547
248.261
268.224
288.954
294.214
294.517
291.295
284.814
282.36
281.948
283.237
288.167
296.391
305.935
315.887
327.013
339.544
352.563
365.955
380.348
395.215
409.242
421.847
432.697
440.447
443.913
446.333
448.731
450.02
450.459
448.561
448.799
448.874
446.799
442.415
438.382
437.406
442.3
455.574
473.418
497.545
527.794
568.585
610.417
643.737
675.078
701.117
737.451
771.324
784.113
777.923
721.617
665.966
634.1
651.694
668.478
671.138
669.99
689.415
862.034
1162.78
1169.61
751.862
470.454
395.721
376.035
372.856
381.389
397.473
416.328
430.135
443.933
457.163
468.251
477.672
484.89
491.661
497.423
503.246
508.633
514.022
519.286
524.697
530.349
535.78
540.966
545.837
550.603
555.081
559.136
562.791
565.515
567.855
570.222
572.591
574.952
578.025
582.879
588.763
596.017
606.803
619.604
637.981
660.468
684.376
705.592
719.728
725.832
725.373
721.25
711.392
690.644
653.952
601.972
533.946
454.875
372.648
298.782
240.394
198.15
169.165
148.513
134.467
124.15
115.915
110.077
105.94
104.535
104.633
105.579
107.891
113.288
120.381
130.422
145.466
164.928
194.542
279.796
3514.76
551.286
223.127
185.362
192.767
222.621
264.686
297.776
307.978
308.449
298.018
271.818
226.669
179.54
151.719
138.298
130.119
123.107
117.432
112.8
109.285
107.508
106.575
106.252
106.767
108.221
110.825
115.354
123.508
138.073
162.523
193.146
211.764
218.686
233.061
274.866
333.743
346.412
327.829
267.964
236.293
229.902
230.728
242.181
264.736
280.508
284.068
284.24
281.283
275.31
273.531
273.446
275.006
280.028
288.161
297.398
306.673
316.674
328.033
340.216
352.691
365.891
380.059
394.626
408.831
422.152
433.923
443.444
450.304
455.198
461.49
467.058
471.888
475.247
477.592
478.487
478.501
475.366
469.138
465.48
464.948
474.622
494.443
519.053
553.045
599.724
639.99
673.723
695.953
722.569
750.063
790.203
804.027
801.828
749.231
696.304
672.078
671.556
671.099
679.297
778.704
1060.03
1142.37
997.258
552.529
409.669
373.424
366.545
369.783
383.4
402.364
416.003
429.467
442.127
452.524
461.833
470.437
478.61
486.741
494.697
502.609
510.157
518.143
526.667
535.527
544.181
552.321
559.434
565.157
569.567
571.968
572.799
572.908
573.142
573.389
573.306
573.984
574.938
576.34
580.192
585.771
594.562
608.791
627.953
653.244
680.824
706.309
724.115
731.355
731.454
727.689
718.399
697.611
660.652
607.513
538.653
454.28
365.478
285.452
220.754
174.595
143.261
122.49
109.679
101.248
95.0238
89.8282
86.3824
85.6772
85.8545
86.5518
88.438
91.3974
94.0966
98.9508
107.016
117.628
132.239
151.403
194.221
3524.28
539.187
225.031
192.223
203.979
238.136
280.257
306.071
313.411
313.072
301.087
270.239
222.679
174.909
149.473
137.308
129.532
122.493
116.749
111.989
108.631
107.208
106.678
106.597
107.139
108.739
111.539
116.434
125.186
140.473
164.721
193.05
208.753
218.567
238.339
290.294
322.803
323.246
288.313
236.612
219.256
216.11
218.712
232.429
257.062
274.335
278.688
279.156
277.439
272.926
269.663
268.893
269.281
272.109
278.117
286.264
294.992
303.916
313.581
324.106
335.203
346.833
359.328
372.721
386.898
401.628
416.714
431.402
444.855
456.035
463.852
470.407
476.744
481.356
484.722
487.186
488.972
490.347
491.159
491.918
492.77
494.353
498.91
515.909
541.223
576.043
627.117
676.75
706.448
722.542
740.331
769.269
804.717
824.106
825.921
792.681
746.7
722.141
730.588
810.132
986.951
1063.65
1058.03
707.171
450.709
379.176
362.578
361.232
370.411
386.807
402.66
414.953
427.549
438.27
447.991
457.832
467.326
477.049
486.698
496.474
507.15
518.44
529.884
540.867
550.809
559.189
565.895
570.736
574.285
576.274
576.795
575.243
572.604
568.617
563.885
558.934
556.895
555.774
556.913
562.273
571.118
587.607
606.844
635.086
669.518
701.883
726.421
736.887
737.876
734.427
725.689
705.271
664.881
609.524
537.401
449.274
357.192
270.785
200.373
152
123.381
107.1
96.9971
90.3036
85.2117
80.9048
77.8988
75.8904
75.2032
75.2629
75.6794
76.8564
78.8752
83.5243
86.9116
92.6063
99.9254
110.642
122.513
149.176
3559.87
534.13
226.926
196.68
210.206
245.361
285.651
309.141
317.361
319.036
312.292
286.725
238.412
184.583
156.619
143.499
135.438
128.058
121.809
116.521
112.232
110.221
109.284
108.995
109.353
111.372
114.756
120.625
130.786
147.264
170.575
194.631
209.024
220.823
249.679
293.028
306.617
297.559
253.851
214.951
204.038
202.115
204.832
217.146
239.019
263.039
273.436
276.332
276.426
273.957
270.186
268.712
268.434
269.213
271.84
276.74
283.238
290.463
298.138
306.307
314.973
324.157
333.933
344.579
356.249
368.989
382.959
398.469
415.227
432.859
450.099
464.124
473.614
480.559
485.181
488.315
490.463
492.608
494.75
497.29
500.607
505.595
512.771
522.453
536.966
562.424
597.508
651.579
710.423
738.608
757.151
764.971
785.135
810.03
834.24
842.879
840.905
845.175
875.32
941.763
992.327
1012.79
853.155
529.009
402.237
366.05
359.51
361.05
372.143
388.984
401.87
412.886
424.439
434.745
444.931
455.428
466.012
477.066
488.8
501.293
513.692
525.697
536.911
546.886
555.3
562.129
567.024
569.486
569.513
566.781
561.361
553.56
545.681
537.681
532.03
527.477
527.622
530.355
538.214
549.159
565.044
585.031
615.403
657.681
698.637
731.303
743.83
744.712
741.454
732.619
711.828
666.62
605.559
527.194
436.698
338.521
248.643
175.071
128.558
104.881
92.3378
84.0179
78.1746
74.1617
71.0246
68.1256
66.407
66.2238
66.3729
66.8896
67.8439
70.1507
71.8825
75.3322
80.038
84.4507
90.7523
99.4263
106.931
123.851
3600.59
534.227
227.438
197.331
209.945
243.347
280.983
307.548
318.363
321.927
321.908
308.239
269.49
212.109
171.631
153.798
144.589
137.682
131.333
125.914
121.022
117.886
116.336
115.776
115.946
118.701
123.262
130.915
143.928
161.88
181.699
198.339
211.03
227.005
263.529
288.048
290.403
272.52
226.758
199.779
191.947
190.352
191.979
200.702
217.119
238.017
258.551
270.306
274.145
274.651
273.427
271.512
270.258
270.003
271.097
273.25
276.966
281.754
287.108
292.814
298.718
305.035
311.623
318.655
326.302
334.77
344.313
355.247
367.903
382.617
399.815
419.794
440.714
457.784
469.67
477.847
482.83
486.825
490.146
493.914
498.696
504.933
513.349
524.385
538.366
556.431
581.627
615.052
670.138
738.228
769.749
789.961
800.997
807.078
824.317
840.957
858.525
877.017
907.586
934.63
948.48
870.226
629.567
447.626
383.192
364.769
360.382
362.423
375.415
389.864
400.906
410.928
421.679
432.027
442.649
453.754
465.267
477.452
490.255
503.146
515.431
526.629
536.232
543.825
549.137
551.577
551.193
548.602
543.18
535.678
527.464
518.746
511.818
506.381
504.19
505.995
511.306
519.026
531.533
545.089
566.667
601.247
649.748
701.569
738.477
751.059
751.265
747.977
737.947
714.568
664.681
591.966
508.59
412.222
311.051
217.39
148.31
110.85
91.3437
82.4534
76.6553
72.2292
68.8051
66.2773
64.1792
62.3315
61.0185
60.5951
60.6245
60.9029
61.6002
63.3807
65.7416
68.3058
73.5555
77.6658
82.8133
92.2249
98.2151
109.6
3636.83
537.428
227.016
195.547
204.811
232.537
264.171
293.473
313.404
322.945
326.382
326.318
311.397
267.791
205.214
175.151
160.091
152.037
145.679
141.383
137.433
134.5
133.112
132.613
133.332
137.662
143.699
152.546
164.587
177.691
191.022
203.45
217.367
241.262
269.57
278.215
275.121
249.812
205.57
186.292
180.694
179.694
180.773
186.198
197.083
212.057
228.984
247.003
262.492
270.194
272.587
272.637
272.251
271.916
271.872
272.635
274.616
277.568
281.037
284.652
288.797
292.988
296.758
300.389
304.213
308.549
313.622
319.615
326.756
335.256
345.264
357.021
371.281
389.648
411.255
429.961
443.763
454.446
462.475
468.82
476.271
486.052
498.825
514.267
532.027
552.031
572.788
597.549
629.804
675.26
747.455
792.615
813.904
828.67
841.158
854.137
865.682
879.424
889.331
883.359
825.54
687.786
508.801
418.492
382.237
367.215
363.716
366.399
378.542
390.84
400.962
410.465
420.571
430.977
441.926
453.593
466.111
479.862
493.771
506.879
518.528
528.07
534.861
538.533
539.097
537.412
532.173
525.231
517.437
509.064
500.735
494.108
489.408
488.551
490.333
496.446
505.014
515.889
530.383
554.657
594.375
645.972
707.327
745.07
758.162
757.784
753.551
741.763
713.415
655.368
572.267
479.54
377.447
272.634
179.628
124.545
95.7541
80.324
73.3596
68.8733
65.3509
62.9677
61.3195
59.7659
58.7532
57.8739
57.118
56.9269
57.0013
57.2936
58.0743
59.4682
62.8711
65.2466
70.1809
75.5849
78.8059
86.9453
93.6075
101.756
3670.97
545.098
225.737
190.704
193.456
213.717
239.2
266.658
291.244
312.179
326.593
332.165
333.182
321.366
281.064
218.705
187.863
171.733
163.049
157.875
154.296
152.581
151.852
151.788
153.809
157.713
162.648
170.013
178.632
188.412
199.613
212.905
231.284
256.374
266.675
268.118
260.945
235.079
199.053
181.704
174.877
172.43
172.34
174.83
180.924
190.379
202.03
214.915
228.568
243.649
256.549
264.256
267.659
269.189
269.93
270.509
271.134
272.473
274.399
276.601
279.444
281.62
282.881
283.799
284.809
286.175
288.024
290.465
293.734
298.078
303.589
310.581
318.747
326.718
334.574
347.418
363.856
381.016
398.714
411.886
423.757
437.264
454.7
476.915
502.265
530.02
558.963
587.045
613.465
643.229
681.038
735.193
785.408
808.259
821.535
830.476
834.351
833.246
815.136
769.76
688.406
575.544
474.481
418.656
387.081
374.392
371.454
373.133
382.03
393.019
402.181
411.279
421.26
431.967
443.671
456.893
472.301
488.952
504.436
517.618
527.846
534.664
537.71
537.604
533.892
526.795
518.278
508.878
499.498
490.784
483.112
478.36
477.319
479.129
484.898
493.977
503.919
522.725
549.762
594.017
646.568
715.993
752.927
765.396
764.294
759.115
743.049
708.896
636.475
545.943
439.098
333.737
222.637
145.576
103.752
81.5986
70.6411
65.24
61.987
60.2638
59.2647
58.4637
57.854
56.8755
56.0661
55.27
54.1924
53.717
53.7579
54.0918
55.2046
57.1472
61.5917
64.6117
68.5686
75.4779
79.3538
85.2735
92.3231
100.307
3701.08
558.654
224.778
182.78
180.822
192.473
209.13
229.183
251.421
276.117
302.949
327.839
339.418
342.984
340.653
313.605
258.82
215.758
195.909
182.669
176.392
173.119
171.682
171.318
172.586
176.405
180.335
186.811
195.199
204.335
217.222
233.163
251.599
262.837
266.603
266.42
256.813
233.343
201.835
183.433
175.488
171.743
170.064
170.071
172.031
176.22
182.571
190.376
199.131
208.58
218.269
228.537
238.204
245.976
251.768
255.762
257.996
259.253
259.944
260.211
260.168
259.923
259.776
259.682
259.704
259.963
260.58
261.568
263
265.159
267.978
271.738
276.281
280.642
289.222
297.272
301.474
307.731
317.928
332.76
349.507
368.313
389.517
415.253
445.478
480.08
520.407
562.224
598.399
628.025
656.163
687.7
728.907
773.364
789.258
791.81
778.234
762.922
736.833
687.139
622.918
550.727
478.394
428.712
401.122
388.723
384.053
384.292
389.454
398.769
407.196
416.018
426.237
438.241
453.058
470.947
489.871
506.761
520.719
531.101
537.408
539.681
539.12
533.907
524.055
512.957
502.006
490.952
480.84
473.417
469.323
469.124
471.114
476.113
484.804
497.281
520.739
551.961
598.765
657.17
730.453
763.694
773.565
771.612
763.77
742.219
693.747
612.115
502.808
390.332
271.329
170.607
115.679
84.9307
69.1724
61.4388
58.0809
56.1469
55.8521
55.9811
55.9995
55.835
55.4291
54.8015
54.2703
53.5795
52.5572
52.1354
52.2105
52.6526
54.4505
56.7526
61.2669
65.4449
68.5561
75.8084
80.6033
86.5823
93.3444
100.845
3717.4
578.241
225.783
175.238
169.379
173.909
183.131
194.8
208.702
225.68
247.614
276.153
310.84
342.758
355.677
359.49
355.626
326.546
277.274
239.325
221.019
210.506
205.421
203.437
203.145
205.792
211.193
216.278
224.048
234.244
245.333
257.02
265.526
268.95
269.622
267.806
257.864
236.968
210.749
191.175
181.05
174.689
171.389
170.231
170.643
171.771
174.079
177.587
182.032
187.189
192.836
198.748
204.73
210.451
215.632
220.174
224.034
226.886
228.704
230.06
230.867
231.357
231.71
231.998
232.304
232.694
233.234
234.032
234.984
236.472
238.087
240.634
243.451
246.685
252.206
256.701
262.511
271.611
279.866
287.757
300.33
318.002
340.122
367.039
398.262
432.357
471.083
516.008
564.793
609.365
644.572
671.392
693.118
719.741
762.651
779.766
779.553
747.235
716.203
671.384
619.091
559.198
499.475
457.227
431.902
417.646
409.756
407.341
407.985
412.062
420.162
429.83
441.942
457.016
474.01
491.337
507.149
520.007
529.331
534.866
536.483
535.727
531.046
519.26
506.103
492.406
479.507
470.103
464.824
462.911
463.316
465.326
470.058
479.895
499.263
523.135
564.604
610.781
682.763
749.618
778.947
783.068
779.148
767.237
737.056
671.834
572.335
448.63
323.314
201.579
130.013
90.0358
69.0937
58.5491
53.9459
51.8513
51.6441
51.8099
52.5501
53.5092
54.1342
54.3511
54.2416
53.8708
53.4042
52.5043
51.4564
51.2161
51.413
52.1529
54.7106
57.2862
61.0674
66.8032
70.173
76.8589
84.5376
90.6056
97.7758
104.402
3715.21
606.314
230.237
170.007
160.529
160.563
164.318
170.124
177.806
188.001
202.216
221.832
245.997
275.308
312.534
353.459
372.877
378.229
376.969
359.005
320.916
284.061
264.2
250.523
245.548
243.81
243.662
247
253.56
259.419
265.253
270.168
272.356
273.011
271.918
267.171
256.486
241.573
227.028
212.969
200.919
188.758
179.196
174.476
172.611
172.458
173.25
174.558
176.346
178.516
181.088
183.944
186.973
190.032
192.992
195.757
198.246
200.403
202.177
203.607
204.707
205.567
206.282
206.908
207.537
208.211
208.939
209.868
210.946
212.434
213.927
216.138
218.674
221.575
225.89
230.597
236.337
243.687
252.66
263.89
278.268
296.377
318.563
345.621
377.816
413.218
452.19
496.212