/*--------------------------------*- C++ -*----------------------------------*\
| =========                 |                                                 |
| \\      /  F ield         | OpenFOAM: The Open Source CFD Toolbox           |
|  \\    /   O peration     | Version:  2112                                  |
|   \\  /    A nd           | Website:  www.openfoam.com                      |
|    \\/     M anipulation  |                                                 |
\*---------------------------------------------------------------------------*/
FoamFile
{
    version     2.0;
    format      ascii;
    arch        "LSB;label=32;scalar=64";
    class       volVectorField;
    location    "0.19";
    object      U_0;
}
// * * * * * * * * * * * * * * * * * * * * * * * * * * * * * * * * * * * * * //

dimensions      [0 1 -1 0 0 0 0];

internalField   nonuniform List<vector> 
12225
(
(9.76216 0.0642176 0)
(9.2665 0.104732 0)
(8.72397 0.113755 0)
(8.16452 0.115985 0)
(7.62106 0.113992 0)
(7.10961 0.107943 0)
(6.63949 0.098713 0)
(6.21924 0.0872377 0)
(5.85525 0.0744503 0)
(5.54989 0.0613071 0)
(5.30157 0.0486855 0)
(5.10552 0.037304 0)
(4.95466 0.0276693 0)
(4.84048 0.0201179 0)
(4.75338 0.0149706 0)
(4.68503 0.012479 0)
(4.61804 0.0207397 0)
(4.53709 0.0221881 0)
(10.0975 0.0741777 0)
(10.2942 0.112432 0)
(10.4214 0.121641 0)
(10.481 0.131439 0)
(10.4863 0.139472 0)
(10.4426 0.143236 0)
(10.355 0.14261 0)
(10.2317 0.137823 0)
(10.0818 0.129334 0)
(9.91332 0.117981 0)
(9.73298 0.104881 0)
(9.54567 0.0912699 0)
(9.3547 0.0783291 0)
(9.16184 0.0671295 0)
(8.96792 0.0584645 0)
(8.77264 0.054179 0)
(8.57822 0.0562772 0)
(8.39324 0.0787652 0)
(10.0166 0.0402758 0)
(10.0692 0.0675144 0)
(10.1241 0.0823722 0)
(10.1791 0.100139 0)
(10.2379 0.116252 0)
(10.298 0.128268 0)
(10.3533 0.136406 0)
(10.3991 0.14093 0)
(10.4327 0.142069 0)
(10.4529 0.140489 0)
(10.4592 0.13723 0)
(10.452 0.133474 0)
(10.4326 0.13039 0)
(10.4021 0.129009 0)
(10.3622 0.13027 0)
(10.3139 0.135153 0)
(10.2614 0.145455 0)
(10.2035 0.159168 0)
(10.0084 0.0326276 0)
(10.0398 0.0658313 0)
(10.0684 0.0827757 0)
(10.0912 0.0971796 0)
(10.1147 0.109121 0)
(10.1408 0.117567 0)
(10.1684 0.122879 0)
(10.1964 0.125494 0)
(10.2234 0.125774 0)
(10.2479 0.124164 0)
(10.2688 0.121398 0)
(10.2855 0.118429 0)
(10.2978 0.116155 0)
(10.3063 0.115407 0)
(10.3119 0.117041 0)
(10.3158 0.121742 0)
(10.3197 0.130344 0)
(10.3272 0.138701 0)
(10.005 0.0276817 0)
(10.0291 0.0604895 0)
(10.0528 0.077006 0)
(10.0716 0.090495 0)
(10.0898 0.102229 0)
(10.1091 0.110842 0)
(10.1279 0.116353 0)
(10.1457 0.119247 0)
(10.1619 0.119982 0)
(10.1762 0.119109 0)
(10.1882 0.117384 0)
(10.1978 0.115617 0)
(10.2051 0.114636 0)
(10.2104 0.115123 0)
(10.2142 0.117634 0)
(10.2178 0.12258 0)
(10.2222 0.129875 0)
(10.2305 0.138094 0)
(10.0033 0.0230729 0)
(10.022 0.0539046 0)
(10.043 0.0712901 0)
(10.0607 0.0851076 0)
(10.0778 0.0968494 0)
(10.0954 0.105422 0)
(10.1124 0.110931 0)
(10.128 0.113996 0)
(10.1419 0.115139 0)
(10.1538 0.114896 0)
(10.1636 0.113902 0)
(10.1712 0.112869 0)
(10.1767 0.112493 0)
(10.1806 0.113374 0)
(10.1835 0.115966 0)
(10.1863 0.120483 0)
(10.1897 0.126643 0)
(10.1953 0.133506 0)
(10.0023 0.0195178 0)
(10.0169 0.0481273 0)
(10.0352 0.0656665 0)
(10.0518 0.0792858 0)
(10.068 0.0907044 0)
(10.0846 0.0992381 0)
(10.1008 0.104998 0)
(10.1157 0.108496 0)
(10.129 0.110208 0)
(10.1404 0.110631 0)
(10.1497 0.110361 0)
(10.1569 0.110052 0)
(10.1623 0.110336 0)
(10.1663 0.111726 0)
(10.1694 0.114541 0)
(10.1724 0.118864 0)
(10.1758 0.124374 0)
(10.1804 0.130258 0)
(10.0017 0.0166949 0)
(10.0133 0.043042 0)
(10.0291 0.060378 0)
(10.0445 0.0736383 0)
(10.0596 0.0846172 0)
(10.0751 0.092965 0)
(10.0904 0.0987858 0)
(10.1046 0.102565 0)
(10.1174 0.104768 0)
(10.1285 0.105857 0)
(10.1378 0.106365 0)
(10.1452 0.106852 0)
(10.1509 0.107839 0)
(10.1554 0.109734 0)
(10.159 0.112763 0)
(10.1624 0.116946 0)
(10.166 0.121986 0)
(10.1704 0.127301 0)
(10.0013 0.0143838 0)
(10.0105 0.0384107 0)
(10.0243 0.0552459 0)
(10.0385 0.0680896 0)
(10.0526 0.0786226 0)
(10.067 0.0867597 0)
(10.0813 0.0926084 0)
(10.0947 0.0966189 0)
(10.1069 0.0992432 0)
(10.1177 0.100915 0)
(10.1268 0.102103 0)
(10.1344 0.103285 0)
(10.1405 0.104888 0)
(10.1455 0.107229 0)
(10.1498 0.11047 0)
(10.1537 0.114595 0)
(10.1576 0.119359 0)
(10.1618 0.124373 0)
(10.001 0.0124618 0)
(10.0084 0.0341781 0)
(10.0204 0.0502563 0)
(10.0334 0.0626052 0)
(10.0465 0.0726693 0)
(10.06 0.0805633 0)
(10.0733 0.0864102 0)
(10.086 0.0906137 0)
(10.0976 0.0936028 0)
(10.108 0.0957792 0)
(10.117 0.0975551 0)
(10.1247 0.0993349 0)
(10.1311 0.101468 0)
(10.1366 0.104202 0)
(10.1414 0.107655 0)
(10.1458 0.1118 0)
(10.1501 0.116453 0)
(10.1544 0.121373 0)
(10.0007 0.0108382 0)
(10.0069 0.0303179 0)
(10.0172 0.0454294 0)
(10.0291 0.0571866 0)
(10.0414 0.0667484 0)
(10.0539 0.0743593 0)
(10.0664 0.0801636 0)
(10.0784 0.0845149 0)
(10.0895 0.0878098 0)
(10.0995 0.0904163 0)
(10.1084 0.0926937 0)
(10.1161 0.0949824 0)
(10.1229 0.097567 0)
(10.1288 0.100644 0)
(10.134 0.104301 0)
(10.1389 0.108518 0)
(10.1435 0.113169 0)
(10.148 0.11812 0)
(10.0006 0.00953488 0)
(10.0058 0.0270573 0)
(10.0149 0.0411425 0)
(10.0258 0.0522668 0)
(10.0373 0.0613339 0)
(10.0491 0.0686477 0)
(10.0609 0.0743693 0)
(10.0723 0.0788103 0)
(10.083 0.082331 0)
(10.0928 0.0852658 0)
(10.1016 0.0879288 0)
(10.1094 0.0906083 0)
(10.1164 0.0935401 0)
(10.1226 0.0968841 0)
(10.1283 0.100713 0)
(10.1336 0.10502 0)
(10.1385 0.109721 0)
(10.1433 0.114756 0)
(10.0005 0.00839314 0)
(10.005 0.0240528 0)
(10.013 0.0370107 0)
(10.0231 0.0474272 0)
(10.0338 0.0559702 0)
(10.045 0.0629516 0)
(10.0562 0.0685459 0)
(10.0671 0.0730279 0)
(10.0774 0.0767189 0)
(10.087 0.0799179 0)
(10.0957 0.0828977 0)
(10.1037 0.0859015 0)
(10.1109 0.0891247 0)
(10.1174 0.092699 0)
(10.1235 0.0966873 0)
(10.1292 0.101093 0)
(10.1345 0.105868 0)
(10.1396 0.111002 0)
(10.0004 0.00723061 0)
(10.0042 0.0208667 0)
(10.0113 0.0324592 0)
(10.0204 0.0419748 0)
(10.0305 0.0498592 0)
(10.0409 0.0564022 0)
(10.0515 0.0617851 0)
(10.062 0.066244 0)
(10.072 0.0700529 0)
(10.0814 0.0734696 0)
(10.0901 0.076724 0)
(10.0983 0.0800146 0)
(10.1057 0.0834987 0)
(10.1127 0.087283 0)
(10.1192 0.091423 0)
(10.1253 0.095933 0)
(10.1311 0.10079 0)
(10.1366 0.106024 0)
(10.0004 0.00603328 0)
(10.0036 0.0174977 0)
(10.0098 0.0274823 0)
(10.0181 0.0358687 0)
(10.0274 0.0429227 0)
(10.0372 0.0488875 0)
(10.0472 0.0539373 0)
(10.0573 0.0582684 0)
(10.067 0.0621029 0)
(10.0763 0.0656522 0)
(10.0852 0.0691017 0)
(10.0935 0.0726071 0)
(10.1013 0.0762905 0)
(10.1087 0.0802362 0)
(10.1157 0.0844919 0)
(10.1224 0.0890786 0)
(10.1287 0.0939897 0)
(10.1349 0.0992778 0)
(10.0003 0.00478261 0)
(10.0032 0.0139202 0)
(10.0087 0.0220451 0)
(10.0161 0.0290384 0)
(10.0247 0.0350441 0)
(10.034 0.0402441 0)
(10.0436 0.0447889 0)
(10.0533 0.0488343 0)
(10.0629 0.0525491 0)
(10.0722 0.056095 0)
(10.0812 0.0596118 0)
(10.0898 0.0632148 0)
(10.0981 0.0669931 0)
(10.106 0.0710086 0)
(10.1136 0.0752989 0)
(10.1209 0.079884 0)
(10.128 0.0847624 0)
(10.1349 0.0899947 0)
(10.0003 0.00344489 0)
(10.0028 0.0100533 0)
(10.0078 0.0160399 0)
(10.0147 0.0213351 0)
(10.0228 0.0260159 0)
(10.0317 0.0302025 0)
(10.041 0.0340076 0)
(10.0505 0.0375443 0)
(10.0601 0.0409295 0)
(10.0696 0.0442736 0)
(10.0788 0.0476709 0)
(10.0879 0.0511971 0)
(10.0966 0.0549088 0)
(10.1052 0.0588442 0)
(10.1135 0.0630255 0)
(10.1215 0.0674637 0)
(10.1294 0.0721517 0)
(10.1372 0.0771458 0)
(10.0003 0.00195493 0)
(10.0027 0.0057216 0)
(10.0074 0.00921882 0)
(10.014 0.012445 0)
(10.0219 0.0154466 0)
(10.0306 0.0182894 0)
(10.0399 0.0210411 0)
(10.0495 0.0237699 0)
(10.0593 0.0265422 0)
(10.0691 0.0294178 0)
(10.0788 0.0324451 0)
(10.0884 0.0356598 0)
(10.0978 0.0390849 0)
(10.107 0.0427317 0)
(10.1161 0.0466011 0)
(10.125 0.0506879 0)
(10.1338 0.054972 0)
(10.1425 0.059495 0)
(10.0003 0.000185801 0)
(10.0027 0.000569541 0)
(10.0075 0.00106145 0)
(10.0142 0.00173006 0)
(10.0223 0.00259418 0)
(10.0313 0.00366204 0)
(10.0409 0.00495211 0)
(10.0509 0.00648682 0)
(10.0612 0.00828333 0)
(10.0717 0.0103513 0)
(10.0821 0.0126933 0)
(10.0924 0.0153043 0)
(10.1026 0.0181717 0)
(10.1127 0.0212761 0)
(10.1227 0.0245927 0)
(10.1325 0.0280942 0)
(10.1421 0.0317433 0)
(10.1516 0.0355594 0)
(10.0003 -0.0015979 0)
(10.003 -0.00462257 0)
(10.0083 -0.00714057 0)
(10.0157 -0.00902651 0)
(10.0244 -0.0103179 0)
(10.034 -0.0110754 0)
(10.0443 -0.0113247 0)
(10.0551 -0.0110807 0)
(10.0662 -0.0103678 0)
(10.0774 -0.00921701 0)
(10.0887 -0.00766225 0)
(10.0998 -0.00574113 0)
(10.1109 -0.00349626 0)
(10.1217 -0.000974416 0)
(10.1324 0.00177509 0)
(10.1429 0.00470352 0)
(10.1532 0.00775658 0)
(10.1632 0.0109295 0)
(10.0004 -0.00321941 0)
(10.0035 -0.0092913 0)
(10.0095 -0.0143881 0)
(10.0177 -0.0183849 0)
(10.0272 -0.0214484 0)
(10.0376 -0.0237206 0)
(10.0487 -0.0252533 0)
(10.0603 -0.0260867 0)
(10.0722 -0.0262782 0)
(10.0842 -0.0258887 0)
(10.0962 -0.024976 0)
(10.1081 -0.0235994 0)
(10.1199 -0.0218233 0)
(10.1314 -0.0197157 0)
(10.1427 -0.0173455 0)
(10.1537 -0.0147794 0)
(10.1644 -0.0120865 0)
(10.1749 -0.00929166 0)
(10.0004 -0.00490074 0)
(10.0042 -0.0140261 0)
(10.0113 -0.0215053 0)
(10.0205 -0.0273455 0)
(10.0309 -0.0319647 0)
(10.0422 -0.0355899 0)
(10.0542 -0.0382741 0)
(10.0666 -0.0400751 0)
(10.0794 -0.0410794 0)
(10.0922 -0.0413678 0)
(10.105 -0.0410127 0)
(10.1177 -0.0400895 0)
(10.1302 -0.0386817 0)
(10.1424 -0.0368771 0)
(10.1542 -0.0347643 0)
(10.1657 -0.0324285 0)
(10.1768 -0.0299546 0)
(10.1876 -0.0273877 0)
(10.0006 -0.00674011 0)
(10.0053 -0.0189943 0)
(10.0138 -0.0286093 0)
(10.0242 -0.0359999 0)
(10.0356 -0.0419668 0)
(10.0478 -0.0467797 0)
(10.0607 -0.0504716 0)
(10.0741 -0.0531308 0)
(10.0877 -0.0548703 0)
(10.1014 -0.0557749 0)
(10.1151 -0.0559182 0)
(10.1286 -0.0553806 0)
(10.1418 -0.0542551 0)
(10.1546 -0.0526452 0)
(10.167 -0.050659 0)
(10.179 -0.048402 0)
(10.1905 -0.0459765 0)
(10.2015 -0.0434468 0)
(10.0008 -0.00887118 0)
(10.007 -0.0243183 0)
(10.0173 -0.0356688 0)
(10.0291 -0.0442965 0)
(10.0414 -0.051464 0)
(10.0545 -0.0573366 0)
(10.0684 -0.0618916 0)
(10.0828 -0.0652725 0)
(10.0973 -0.0676289 0)
(10.1119 -0.0690465 0)
(10.1265 -0.069602 0)
(10.1408 -0.0693858 0)
(10.1548 -0.0684964 0)
(10.1683 -0.0670441 0)
(10.1813 -0.0651488 0)
(10.1937 -0.0629326 0)
(10.2056 -0.0605137 0)
(10.2169 -0.0579713 0)
(10.0012 -0.0115009 0)
(10.0096 -0.0301997 0)
(10.0222 -0.0426574 0)
(10.0354 -0.0521046 0)
(10.0487 -0.0603526 0)
(10.0629 -0.0673052 0)
(10.0779 -0.0728117 0)
(10.0932 -0.0770113 0)
(10.1087 -0.0800436 0)
(10.1243 -0.0819744 0)
(10.1397 -0.0828643 0)
(10.1548 -0.0827842 0)
(10.1694 -0.0818714 0)
(10.1835 -0.0802797 0)
(10.1969 -0.0781641 0)
(10.2098 -0.0756821 0)
(10.2219 -0.072982 0)
(10.2334 -0.0701388 0)
(10.0019 -0.0148675 0)
(10.0138 -0.0371608 0)
(10.0294 -0.0503575 0)
(10.044 -0.0602014 0)
(10.0583 -0.0688675 0)
(10.0736 -0.0761204 0)
(10.0896 -0.0819806 0)
(10.1061 -0.0866371 0)
(10.1227 -0.0901651 0)
(10.1394 -0.0925687 0)
(10.156 -0.0939023 0)
(10.1722 -0.0942385 0)
(10.1881 -0.0936652 0)
(10.2034 -0.0923317 0)
(10.2182 -0.0904025 0)
(10.2322 -0.0880426 0)
(10.2455 -0.0854103 0)
(10.258 -0.0825599 0)
(10.0034 -0.0190847 0)
(10.0205 -0.043958 0)
(10.0401 -0.0579899 0)
(10.0573 -0.0690021 0)
(10.0742 -0.0786608 0)
(10.0924 -0.0864558 0)
(10.1117 -0.0925173 0)
(10.1315 -0.0972562 0)
(10.1519 -0.100773 0)
(10.1727 -0.103044 0)
(10.1938 -0.104102 0)
(10.2149 -0.104081 0)
(10.2358 -0.103103 0)
(10.2561 -0.101315 0)
(10.2757 -0.0988672 0)
(10.2943 -0.0959925 0)
(10.3118 -0.092853 0)
(10.3276 -0.0894368 0)
(10.0081 -0.0244431 0)
(10.037 -0.0450571 0)
(10.0692 -0.0559116 0)
(10.1001 -0.0683853 0)
(10.1339 -0.0807921 0)
(10.172 -0.0915937 0)
(10.2119 -0.100836 0)
(10.2524 -0.10867 0)
(10.2926 -0.115118 0)
(10.3316 -0.120062 0)
(10.3684 -0.123465 0)
(10.4022 -0.125379 0)
(10.4323 -0.125907 0)
(10.4584 -0.125218 0)
(10.4802 -0.123531 0)
(10.4979 -0.121142 0)
(10.5119 -0.118294 0)
(10.5226 -0.115541 0)
(10.052 -0.05164 0)
(10.1802 -0.085692 0)
(10.2882 -0.0953361 0)
(10.3704 -0.104711 0)
(10.4303 -0.113814 0)
(10.468 -0.120924 0)
(10.4843 -0.126268 0)
(10.4804 -0.130087 0)
(10.4585 -0.132319 0)
(10.4211 -0.132845 0)
(10.3706 -0.13164 0)
(10.3094 -0.128785 0)
(10.2399 -0.124431 0)
(10.1642 -0.118803 0)
(10.0842 -0.112162 0)
(10.0015 -0.104907 0)
(9.91707 -0.097304 0)
(9.83264 -0.0902571 0)
(9.87183 -0.0480123 0)
(9.57665 -0.0860142 0)
(9.23416 -0.0994403 0)
(8.8664 -0.106976 0)
(8.49572 -0.111113 0)
(8.13159 -0.11224 0)
(7.77791 -0.111158 0)
(7.43839 -0.108346 0)
(7.11682 -0.103993 0)
(6.81622 -0.0983183 0)
(6.53868 -0.0916129 0)
(6.28558 -0.0841426 0)
(6.05763 -0.0761623 0)
(5.85493 -0.067923 0)
(5.67688 -0.0596615 0)
(5.52255 -0.0516315 0)
(5.38947 -0.0440935 0)
(5.27851 -0.0369798 0)
(0.0469751 -0.0885075 -3.55081e-21)
(0.118568 -0.110822 3.45197e-21)
(0.226347 -0.125303 0)
(0.343434 -0.137991 0)
(0.468077 -0.147839 0)
(0.599426 -0.153442 -3.46505e-21)
(0.733727 -0.154151 0)
(0.866944 -0.150191 0)
(0.995581 -0.142012 0)
(1.11673 -0.130459 0)
(1.22817 -0.116564 3.72915e-21)
(1.32846 -0.101486 0)
(1.41707 -0.08647 0)
(1.49436 -0.0727796 0)
(1.5616 -0.0615572 0)
(1.62087 -0.0536364 4.14725e-21)
(1.6748 -0.0493418 0)
(1.72615 -0.0483492 0)
(1.77728 -0.0496766 0)
(1.82951 -0.051832 0)
(1.88274 -0.053064 0)
(1.93522 -0.0516228 0)
(1.98366 -0.045942 0)
(2.0236 -0.0347014 4.7256e-21)
(2.04986 -0.0167409 -4.76744e-21)
(2.0577 0.00910469 4.79671e-21)
(2.03765 0.0415552 4.81056e-21)
(1.98767 0.0765306 0)
(1.90852 0.107974 0)
(1.80511 0.128867 -4.78563e-21)
(1.6874 0.132589 -4.76323e-21)
(1.56946 0.115605 0)
(1.46557 0.0781994 0)
(1.38346 0.0243842 -4.71782e-21)
(1.3151 -0.0264489 0)
(1.2336 -0.0501497 0)
(1.10746 -0.0454222 4.84672e-21)
(0.915191 -0.0190785 0)
(0.644959 0.0313515 5.09519e-21)
(0.288633 0.110389 1.06017e-20)
(-0.156173 0.211975 0)
(-0.687505 0.320578 0)
(-1.29416 0.424319 0)
(-1.95772 0.51356 0)
(-2.6578 0.581794 0)
(-3.37327 0.625676 1.37127e-20)
(-4.08398 0.644623 1.4544e-20)
(-4.77219 0.640507 1.5408e-20)
(-5.42309 0.616688 0)
(-6.0246 0.576248 -1.70671e-20)
(-6.56725 0.520403 0)
(-7.0437 0.453514 1.83915e-20)
(-7.44909 0.381459 1.88498e-20)
(-7.78137 0.307619 0)
(-8.0401 0.234609 0)
(-8.2264 0.164666 0)
(-8.34221 0.100089 1.89415e-20)
(-8.38936 0.0434369 0)
(-8.37062 -0.0030378 0)
(-8.30835 -0.0398372 0)
(-8.20091 -0.0716222 0)
(-8.0542 -0.099717 0)
(-7.87139 -0.125003 0)
(-7.65554 -0.147931 0)
(-7.40918 -0.168803 0)
(-7.13464 -0.187746 -9.43404e-21)
(-6.834 -0.204821 0)
(-6.50905 -0.220286 0)
(-6.16124 -0.234719 4.57033e-21)
(-5.79163 -0.248547 2.8894e-21)
(-5.40119 -0.261716 0)
(-4.99106 -0.274088 4.88788e-22)
(-4.5627 -0.285428 -2.1563e-21)
(-4.11812 -0.295387 0)
(-3.65999 -0.303502 5.36034e-21)
(-3.19185 -0.309215 0)
(-2.71808 -0.311885 0)
(-2.24386 -0.310799 -9.53045e-21)
(-1.77482 -0.305223 0)
(-1.31686 -0.294661 1.16627e-20)
(-0.875788 -0.279657 0)
(-0.457791 -0.263592 -1.31799e-20)
(-0.0594716 -0.24937 -1.36873e-20)
(0.32179 -0.239468 -1.39622e-20)
(0.681576 -0.230752 -2.81389e-20)
(1.02115 -0.218202 2.82023e-20)
(1.33933 -0.20062 0)
(1.63319 -0.181111 0)
(1.90359 -0.160886 0)
(2.15284 -0.141831 2.73398e-20)
(2.38337 -0.124674 2.69649e-20)
(2.59643 -0.108243 -2.656e-20)
(2.79188 -0.0914365 0)
(2.96902 -0.0738422 2.57057e-20)
(3.12703 -0.0550006 2.5277e-20)
(3.26452 -0.034231 2.48583e-20)
(3.37868 -0.0103818 0)
(3.46525 0.0204068 0)
(3.5109 0.0619429 0)
(3.49542 0.107401 2.34048e-20)
(3.42495 0.138665 0)
(3.30923 0.147699 0)
(3.16395 0.135265 -2.25247e-20)
(3.0082 0.108237 0)
(2.85836 0.0751041 0)
(2.72608 0.0429518 -2.19513e-20)
(2.61874 0.0153678 0)
(2.54073 -0.00696031 0)
(2.49543 -0.0224251 2.16996e-20)
(2.4837 -0.0275067 2.16595e-20)
(2.49404 -0.0213883 0)
(2.49484 -0.00318126 -2.15095e-20)
(2.44683 0.029297 0)
(2.31081 0.0667314 2.09331e-20)
(2.02553 0.119403 0)
(1.50547 0.213686 1.90846e-20)
(0.715885 0.341798 1.69937e-20)
(-0.297938 0.455485 0)
(-1.42164 0.523269 0)
(-2.53232 0.53068 0)
(-3.54603 0.488918 0)
(-4.40687 0.416706 0)
(-5.08585 0.320576 0)
(-5.57129 0.214151 0)
(-5.86304 0.11597 -9.13881e-21)
(-5.97348 0.0309807 9.27041e-21)
(-5.91891 -0.0433969 0)
(-5.74465 -0.103729 0)
(-5.45585 -0.157681 0)
(-5.06383 -0.207098 0)
(-4.57763 -0.252229 -1.33683e-21)
(-4.00648 -0.29203 0)
(-3.36136 -0.32431 1.46874e-20)
(-2.6564 -0.346271 -2.1429e-20)
(-1.9093 -0.355029 0)
(-1.14854 -0.348351 0)
(-0.383267 -0.335342 0)
(0.391168 -0.339202 4.20814e-20)
(1.15969 -0.342066 4.42359e-20)
(1.91614 -0.329132 0)
(2.6442 -0.302038 4.57505e-20)
(3.32664 -0.268952 4.52607e-20)
(3.95687 -0.231513 -4.41579e-20)
(4.53459 -0.194359 0)
(5.05992 -0.158831 0)
(5.53355 -0.12441 -3.83053e-20)
(5.95552 -0.0905052 0)
(6.32382 -0.0572592 0)
(6.63431 -0.0239835 0)
(6.88121 0.00972691 0)
(7.0591 0.0426098 2.57728e-20)
(7.15536 0.0735216 2.35744e-20)
(7.14553 0.111645 0)
(7.03794 0.147919 1.98498e-20)
(6.84577 0.169343 0)
(6.58307 0.180003 0)
(6.26414 0.183982 1.69693e-20)
(5.90249 0.182919 0)
(5.51268 0.177658 1.66143e-20)
(5.1102 0.169176 0)
(4.70993 0.158473 0)
(4.32508 0.146303 1.69067e-20)
(3.96538 0.133375 0)
(3.63555 0.120137 1.68405e-20)
(3.33602 0.106829 0)
(3.06383 0.0939879 0)
(2.81356 0.0821698 0)
(2.57881 0.0717816 -1.55775e-20)
(2.35372 0.0629285 0)
(2.13416 0.0555322 1.4711e-20)
(1.91801 0.0496658 0)
(1.70476 0.0457481 0)
(1.49504 0.0440925 0)
(1.29048 0.0443719 0)
(1.0943 0.0453831 0)
(0.911496 0.0445288 0)
(0.752285 0.0381237 0)
(0.617467 0.0292772 -2.4931e-20)
(0.528449 0.020712 0)
(0.447355 0.0154506 0)
(0.05905 -0.256207 1.05351e-20)
(0.142182 -0.311655 -1.01765e-20)
(0.267675 -0.347402 0)
(0.398771 -0.375906 6.74811e-21)
(0.534411 -0.395639 0)
(0.672774 -0.404738 3.34558e-21)
(0.810205 -0.402665 -6.82439e-21)
(0.943243 -0.390216 -6.90818e-21)
(1.06934 -0.369071 0)
(1.18691 -0.34131 -7.15079e-21)
(1.29486 -0.309252 -3.60544e-21)
(1.39271 -0.275272 0)
(1.48059 -0.241735 0)
(1.55914 -0.210914 0)
(1.62945 -0.184865 0)
(1.69307 -0.165166 -4.05052e-21)
(1.75186 -0.152554 0)
(1.80767 -0.146539 8.51013e-21)
(1.86189 -0.145188 0)
(1.91481 -0.145278 0)
(1.96535 -0.142861 -8.99026e-21)
(2.01117 -0.134082 0)
(2.0491 -0.1159 9.27492e-21)
(2.07565 -0.08646 -4.63449e-21)
(2.0874 -0.0450487 4.68253e-21)
(2.08127 0.0080399 -4.71634e-21)
(2.05909 0.0703348 -4.73195e-21)
(2.01686 0.136739 0)
(1.94977 0.199724 0)
(1.8534 0.249415 4.71149e-21)
(1.7253 0.275468 -4.7447e-21)
(1.56382 0.273034 0)
(1.36176 0.251619 0)
(1.09865 0.242717 4.71008e-21)
(0.747107 0.290476 0)
(0.292636 0.417193 0)
(-0.268198 0.601615 -4.85013e-21)
(-0.929571 0.810746 0)
(-1.67295 1.02315 4.96608e-21)
(-2.47268 1.22183 -9.59679e-21)
(-3.30021 1.39224 0)
(-4.12701 1.52104 0)
(-4.92731 1.60101 -2.23358e-20)
(-5.67949 1.63007 -2.36671e-20)
(-6.36693 1.61081 -2.52148e-20)
(-6.97851 1.54926 1.47159e-20)
(-7.50842 1.45356 -1.30658e-20)
(-7.95537 1.33261 -4.45879e-20)
(-8.32162 1.19492 3.2432e-20)
(-8.61233 1.04786 1.5782e-20)
(-8.83485 0.897284 0)
(-8.99715 0.747631 -1.73056e-20)
(-9.10725 0.602096 2.00425e-20)
(-9.17247 0.462582 0)
(-9.19947 0.330143 0)
(-9.19404 0.205615 0)
(-9.16067 0.0901655 -1.82836e-20)
(-9.10249 -0.0149473 0)
(-9.02192 -0.109103 3.57688e-20)
(-8.90321 -0.192433 0)
(-8.75107 -0.267361 3.21129e-20)
(-8.56513 -0.334872 0)
(-8.34724 -0.39582 -2.74269e-20)
(-8.0993 -0.450839 0)
(-7.82332 -0.500532 2.19544e-20)
(-7.52119 -0.545438 -9.92596e-21)
(-7.19454 -0.586006 0)
(-6.84435 -0.622778 -1.28096e-20)
(-6.47124 -0.656867 -4.40068e-21)
(-6.07638 -0.688347 -2.78552e-21)
(-5.66104 -0.717104 0)
(-5.22626 -0.742868 -3.2317e-22)
(-4.77343 -0.765028 2.08519e-21)
(-4.30451 -0.782656 0)
(-3.82215 -0.794581 -5.19335e-21)
(-3.3299 -0.799539 1.26518e-20)
(-2.83213 -0.796366 0)
(-2.3338 -0.784201 9.26482e-21)
(-1.84005 -0.762723 0)
(-1.35565 -0.732567 -3.37419e-20)
(-0.884709 -0.695942 0)
(-0.431078 -0.657084 3.85012e-20)
(0.00114916 -0.620312 1.34348e-20)
(0.407722 -0.581272 -1.34122e-20)
(0.787108 -0.540986 -2.70115e-20)
(1.13939 -0.502016 2.7031e-20)
(1.46558 -0.463423 0)
(1.76677 -0.426542 0)
(2.04614 -0.393291 0)
(2.30767 -0.364299 -7.93223e-20)
(2.55346 -0.33817 -2.62382e-20)
(2.78539 -0.312624 2.58786e-20)
(3.00509 -0.287202 0)
(3.21307 -0.261725 2.48037e-20)
(3.40964 -0.235694 -2.47367e-20)
(3.59493 -0.208025 -2.43576e-20)
(3.76887 -0.176931 0)
(3.93015 -0.138735 0)
(4.08144 -0.0884835 0)
(4.22992 -0.024451 -2.29643e-20)
(4.35538 0.0456724 0)
(4.43011 0.110569 4.43715e-20)
(4.43283 0.160798 6.57219e-20)
(4.35525 0.190542 -4.33004e-20)
(4.20293 0.197721 0)
(3.99556 0.184792 -2.13569e-20)
(3.76193 0.156331 0)
(3.53435 0.116399 -4.2688e-20)
(3.34452 0.0697933 2.13769e-20)
(3.21531 0.027204 2.14295e-20)
(3.14557 0.00775212 0)
(3.09505 0.0353052 6.38031e-20)
(2.97314 0.129135 -4.21178e-20)
(2.65215 0.305498 -2.05805e-20)
(1.99362 0.584222 0)
(0.917486 0.931807 -1.88199e-20)
(-0.462552 1.23109 -4.87028e-20)
(-1.89514 1.37042 0)
(-3.19122 1.35161 -1.53495e-20)
(-4.24621 1.2103 -6.36514e-21)
(-5.03704 1.00254 1.87277e-21)
(-5.58403 0.773457 0)
(-5.92779 0.551011 0)
(-6.1106 0.345929 0)
(-6.16957 0.163354 -1.07259e-20)
(-6.12938 0.0044384 -9.1129e-21)
(-6.00377 -0.135423 0)
(-5.76837 -0.255636 -1.51743e-20)
(-5.43414 -0.362298 -1.10056e-20)
(-5.00603 -0.457132 0)
(-4.4912 -0.539849 1.30291e-21)
(-3.89695 -0.61179 1.29138e-20)
(-3.23291 -0.6703 -1.43106e-20)
(-2.50826 -0.711406 -1.87034e-20)
(-1.73523 -0.732809 0)
(-0.92848 -0.737654 0)
(-0.0975299 -0.742255 0)
(0.736142 -0.734021 -4.10457e-20)
(1.55648 -0.716115 4.16795e-20)
(2.35351 -0.691071 8.70141e-20)
(3.11656 -0.654936 -4.44187e-20)
(3.83896 -0.612202 4.26765e-20)
(4.52178 -0.567588 4.28661e-20)
(5.16669 -0.522941 0)
(5.7714 -0.478803 0)
(6.33372 -0.434714 -3.64341e-20)
(6.8506 -0.389065 0)
(7.31824 -0.340625 0)
(7.73277 -0.289728 5.94315e-20)
(8.08854 -0.235595 0)
(8.37576 -0.17592 2.48515e-20)
(8.58697 -0.106068 -2.31004e-20)
(8.73573 -0.0191767 0)
(8.79207 0.0621792 1.91849e-20)
(8.72655 0.134716 0)
(8.53113 0.197912 0)
(8.20738 0.24903 -1.6489e-20)
(7.76921 0.285917 3.24201e-20)
(7.24211 0.307654 -1.61306e-20)
(6.65957 0.314286 0)
(6.05809 0.307045 0)
(5.47114 0.289019 1.66069e-20)
(4.92361 0.264999 0)
(4.42941 0.239514 1.65338e-20)
(3.99277 0.215789 0)
(3.6106 0.196214 0)
(3.27466 0.181825 0)
(2.97449 0.17241 1.50339e-20)
(2.69982 0.166752 0)
(2.44253 0.163155 -1.41745e-20)
(2.19726 0.160104 0)
(1.96101 0.156561 0)
(1.73259 0.151726 2.61095e-20)
(1.51214 0.144662 -2.55859e-20)
(1.30166 0.134128 0)
(1.10474 0.119024 0)
(0.930005 0.0998496 0)
(0.78156 0.0777839 7.36425e-20)
(0.682407 0.0525999 0)
(0.598897 0.0304623 -4.97578e-20)
(0.0625661 -0.474824 4.99667e-23)
(0.148427 -0.572203 1.34746e-20)
(0.283719 -0.63187 0)
(0.423286 -0.674305 -1.33686e-20)
(0.564705 -0.697801 0)
(0.705282 -0.701491 0)
(0.840706 -0.686826 -7.11921e-23)
(0.967914 -0.656628 6.80445e-21)
(1.08523 -0.614569 7.00001e-21)
(1.19183 -0.564359 7.05233e-21)
(1.28753 -0.509606 0)
(1.37266 -0.453739 0)
(1.44802 -0.39999 -7.63311e-21)
(1.51479 -0.351378 -1.56246e-20)
(1.57452 -0.310607 1.59877e-20)
(1.62904 -0.279741 0)
(1.68014 -0.259564 1.67131e-20)
(1.72912 -0.248741 -8.46728e-21)
(1.7761 -0.243357 0)
(1.81972 -0.237467 1.77832e-20)
(1.85725 -0.224599 8.95502e-21)
(1.88505 -0.199302 -1.84935e-20)
(1.89888 -0.157995 -9.26231e-21)
(1.89421 -0.0992077 0)
(1.86664 -0.023931 1.94434e-20)
(1.8118 0.0648897 1.9626e-20)
(1.72578 0.165038 0)
(1.60573 0.274387 1.97546e-20)
(1.4484 0.388307 0)
(1.24776 0.498125 1.96103e-20)
(0.992241 0.597369 9.56778e-21)
(0.661295 0.695925 0)
(0.228606 0.825717 0)
(-0.325898 1.02086 0)
(-0.996028 1.27984 0)
(-1.75105 1.57548 0)
(-2.55503 1.87443 0)
(-3.37486 2.14719 1.90167e-20)
(-4.17932 2.3724 -2.8439e-20)
(-4.94149 2.53545 0)
(-5.6391 2.6285 0)
(-6.25727 2.64995 0)
(-6.79014 2.60365 -3.68317e-21)
(-7.23919 2.49826 2.23747e-20)
(-7.61175 2.34544 5.22419e-20)
(-7.91876 2.1581 -5.60148e-20)
(-8.17257 1.94877 -3.19588e-20)
(-8.3848 1.7284 2.99172e-20)
(-8.56494 1.50556 3.66396e-21)
(-8.71969 1.28625 3.70499e-20)
(-8.853 1.0744 0)
(-8.96613 0.872349 3.94527e-20)
(-9.05803 0.681219 2.70547e-21)
(-9.1261 0.501118 0)
(-9.1669 0.33158 0)
(-9.17686 0.171944 -4.06115e-20)
(-9.15329 0.0215545 0)
(-9.09529 -0.120457 0)
(-9.00156 -0.255078 3.91583e-20)
(-8.87273 -0.381902 7.10983e-20)
(-8.71119 -0.499122 -3.19031e-20)
(-8.51881 -0.606493 0)
(-8.29765 -0.704193 2.72378e-20)
(-8.04962 -0.792864 0)
(-7.77633 -0.873378 2.4213e-20)
(-7.47924 -0.946745 1.8849e-20)
(-7.1597 -1.01413 -3.38944e-20)
(-6.81785 -1.07684 -1.49445e-20)
(-6.45395 -1.1351 0)
(-6.06876 -1.18907 1.48655e-20)
(-5.66215 -1.23889 0)
(-5.23427 -1.28412 1.72151e-21)
(-4.78575 -1.32371 -4.61379e-21)
(-4.31798 -1.35601 -1.10162e-20)
(-3.83345 -1.37896 1.72683e-20)
(-3.33584 -1.39037 -3.57868e-20)
(-2.83002 -1.38833 0)
(-2.32176 -1.3716 0)
(-1.81718 -1.33995 3.90428e-20)
(-1.32214 -1.29443 6.54028e-20)
(-0.841894 -1.23743 0)
(-0.380947 -1.17228 -2.53512e-20)
(0.0556968 -1.10161 0)
(0.46519 -1.02866 7.99059e-20)
(0.847511 -0.954667 5.15964e-22)
(1.20204 -0.88098 -4.67436e-22)
(1.52976 -0.808922 -5.33933e-20)
(1.83243 -0.74092 0)
(2.11174 -0.680164 5.239e-20)
(2.36874 -0.627452 4.0181e-22)
(2.60554 -0.581956 0)
(2.82726 -0.540667 0)
(3.03806 -0.501193 0)
(3.23921 -0.462623 -4.92078e-20)
(3.43206 -0.424182 0)
(3.6182 -0.384498 0)
(3.79917 -0.34114 0)
(3.97623 -0.29131 0)
(4.15048 -0.23246 0)
(4.32174 -0.160715 -4.47774e-20)
(4.48709 -0.0701901 0)
(4.63951 0.0373239 -4.40203e-20)
(4.75986 0.154504 -4.34031e-20)
(4.82122 0.265022 4.28469e-20)
(4.79967 0.350676 0)
(4.68686 0.397143 4.21488e-20)
(4.49413 0.396929 0)
(4.24967 0.349019 4.20604e-20)
(3.99129 0.259611 -4.21833e-20)
(3.75372 0.154461 -1.27251e-19)
(3.54552 0.0959291 0)
(3.32083 0.16573 -1.27182e-19)
(2.96914 0.419249 -4.21362e-20)
(2.33694 0.872685 0)
(1.29532 1.47916 -7.80367e-20)
(-0.0951557 2.05728 -6.9471e-20)
(-1.52065 2.37696 8.63795e-20)
(-2.75155 2.38638 0)
(-3.70678 2.16339 1.49681e-20)
(-4.4083 1.81595 6.26205e-21)
(-4.91735 1.43205 -1.39273e-20)
(-5.2863 1.06139 0)
(-5.54533 0.724044 0)
(-5.70534 0.424197 0)
(-5.76594 0.158779 -2.45374e-20)
(-5.72513 -0.077683 0)
(-5.58207 -0.290159 0)
(-5.34004 -0.484115 1.51421e-20)
(-5.00514 -0.65969 1.09767e-20)
(-4.58089 -0.819524 0)
(-4.07098 -0.963008 0)
(-3.48106 -1.08811 -1.28989e-20)
(-2.82155 -1.19359 0)
(-2.10206 -1.27561 3.95583e-20)
(-1.3337 -1.33014 4.99397e-20)
(-0.528345 -1.35836 0)
(0.296751 -1.36264 0)
(1.12205 -1.34504 -7.78824e-20)
(1.93268 -1.30692 -1.70375e-21)
(2.71718 -1.24943 -1.56086e-21)
(3.47048 -1.17646 0)
(4.19103 -1.09581 -1.69999e-19)
(4.87822 -1.01633 0)
(5.52967 -0.938371 0)
(6.14444 -0.860684 0)
(6.72133 -0.782095 7.2539e-20)
(7.25859 -0.701911 0)
(7.75595 -0.618051 -1.23973e-19)
(8.21187 -0.527024 -5.83767e-20)
(8.62329 -0.426598 0)
(8.98497 -0.314098 -4.92211e-20)
(9.2897 -0.188604 0)
(9.52477 -0.0539992 0)
(9.68201 0.0824629 -1.11916e-19)
(9.75003 0.226552 6.84777e-20)
(9.70461 0.370504 0)
(9.5235 0.502279 6.23798e-20)
(9.19326 0.610092 -3.20195e-20)
(8.71498 0.683981 0)
(8.10868 0.718037 0)
(7.41323 0.71241 0)
(6.6797 0.674036 -9.71922e-20)
(5.95869 0.614473 0)
(5.28863 0.545669 -3.29609e-20)
(4.69123 0.477664 0)
(4.17288 0.417942 0)
(3.72834 0.370175 0)
(3.34553 0.334959 0)
(3.0102 0.310434 0)
(2.70947 0.293403 0)
(2.43382 0.280702 -5.46046e-20)
(2.17728 0.269831 0)
(1.93698 0.258907 -2.61075e-20)
(1.71225 0.246246 7.61968e-20)
(1.5045 0.2298 0)
(1.3158 0.207136 0)
(1.15229 0.176223 -4.87444e-20)
(1.01461 0.137172 -4.89703e-20)
(0.923727 0.0927759 4.90238e-20)
(0.84398 0.0518833 4.97438e-20)
(0.067042 -0.688097 -2.103e-20)
(0.151476 -0.831494 -2.01998e-20)
(0.292921 -0.916224 -1.34643e-20)
(0.434613 -0.969137 -6.7729e-21)
(0.573373 -0.98941 0)
(0.706567 -0.979453 1.34871e-20)
(0.830382 -0.944502 -6.89489e-21)
(0.942772 -0.890592 0)
(1.04313 -0.823498 -6.94318e-21)
(1.13154 -0.748445 0)
(1.20851 -0.670125 1.46612e-20)
(1.27497 -0.592825 0)
(1.3322 -0.520521 7.60695e-21)
(1.38189 -0.456888 1.55891e-20)
(1.42606 -0.405082 -1.59665e-20)
(1.46675 -0.367079 0)
(1.50532 -0.342493 -1.67049e-20)
(1.54174 -0.327498 0)
(1.5742 -0.315054 0)
(1.59942 -0.296691 -1.77972e-20)
(1.61305 -0.264496 0)
(1.6099 -0.212199 -2.70193e-22)
(1.58398 -0.135346 0)
(1.52872 -0.0324693 0)
(1.43651 0.0958436 3.90963e-22)
(1.30029 0.247764 -1.98789e-20)
(1.11473 0.419731 -2.04417e-20)
(0.874963 0.607825 -2.00827e-20)
(0.575024 0.809916 0)
(0.20572 1.02752 -4.05007e-20)
(-0.248419 1.26985 0)
(-0.801687 1.55064 -1.95555e-20)
(-1.4525 1.87408 0)
(-2.17901 2.22613 0)
(-2.94434 2.57741 1.87411e-20)
(-3.70837 2.8964 0)
(-4.43657 3.15827 -1.95647e-20)
(-5.10289 3.34568 2.67781e-21)
(-5.69056 3.45017 4.00457e-20)
(-6.19225 3.47166 -4.5907e-20)
(-6.60939 3.41658 0)
(-6.95111 3.29673 0)
(-7.23149 3.12654 -3.22228e-20)
(-7.46653 2.92092 0)
(-7.6713 2.6933 -2.78203e-20)
(-7.85774 2.45439 2.97952e-20)
(-8.0335 2.21169 3.17465e-20)
(-8.20172 1.9697 0)
(-8.36181 1.73051 -3.53794e-20)
(-8.51051 1.49468 -3.69692e-20)
(-8.64315 1.26207 8.38048e-20)
(-8.75464 1.03262 -3.94909e-20)
(-8.84025 0.8066 -4.03475e-20)
(-8.89621 0.584826 0)
(-8.91986 0.36859 0)
(-8.90961 0.159401 4.09201e-20)
(-8.86499 -0.0413169 0)
(-8.78678 -0.232143 0)
(-8.67629 -0.411426 -7.51313e-20)
(-8.53525 -0.57866 -7.14826e-20)
(-8.36557 -0.733081 0)
(-8.16952 -0.874355 0)
(-7.94968 -1.00277 0)
(-7.70832 -1.1195 0)
(-7.44721 -1.22623 -4.61583e-20)
(-7.16789 -1.32427 4.31559e-20)
(-6.87083 -1.415 3.39779e-20)
(-6.55623 -1.49999 5.82787e-20)
(-6.22413 -1.58011 0)
(-5.87291 -1.6562 2.94463e-21)
(-5.50061 -1.72839 0)
(-5.10512 -1.7958 -1.85866e-21)
(-4.68484 -1.85647 2.93025e-21)
(-4.2393 -1.9075 1.09318e-20)
(-3.76981 -1.94532 -1.71238e-20)
(-3.27979 -1.96613 2.47646e-21)
(-2.77484 -1.96665 0)
(-2.26227 -1.94482 -3.19864e-20)
(-1.75043 -1.90037 -3.8698e-20)
(-1.24762 -1.83509 -8.43452e-20)
(-0.761188 -1.75261 0)
(-0.296219 -1.6576 4.84742e-20)
(0.141616 -1.55526 0)
(0.550102 -1.44886 -1.04265e-19)
(0.930389 -1.34191 5.30388e-20)
(1.28206 -1.23683 -5.31639e-20)
(1.60645 -1.13548 5.3007e-20)
(1.90507 -1.03986 1.04105e-19)
(2.17898 -0.951784 -5.20676e-20)
(2.42924 -0.872862 5.13789e-20)