/*--------------------------------*- C++ -*----------------------------------*\
| =========                 |                                                 |
| \\      /  F ield         | OpenFOAM: The Open Source CFD Toolbox           |
|  \\    /   O peration     | Version:  2112                                  |
|   \\  /    A nd           | Website:  www.openfoam.com                      |
|    \\/     M anipulation  |                                                 |
\*---------------------------------------------------------------------------*/
FoamFile
{
    version     2.0;
    format      ascii;
    arch        "LSB;label=32;scalar=64";
    class       volVectorField;
    location    "0.13";
    object      ddtCorrDdt0(U);
}
// * * * * * * * * * * * * * * * * * * * * * * * * * * * * * * * * * * * * * //

dimensions      [0 1 -2 0 0 0 0];

internalField   nonuniform List<vector> 
12225
(
(0.000601324 -0.000282431 0)
(0.00425893 -0.000764134 0)
(0.0116099 -0.00132222 0)
(0.0234516 -0.00206911 0)
(0.0404777 -0.00299237 0)
(0.0635194 -0.00410216 0)
(0.0936619 -0.00541484 0)
(0.131898 -0.00694098 0)
(0.179444 -0.00886421 0)
(0.238292 -0.011523 0)
(0.311469 -0.0155704 0)
(0.404406 -0.022325 0)
(0.525405 -0.0336375 0)
(0.684445 -0.0521927 0)
(0.897156 -0.0817282 0)
(1.17805 -0.125191 0)
(1.61366 -0.154345 0)
(2.10423 -0.395547 0)
(-0.000198842 -0.000457446 0)
(5.02739e-05 -0.00133661 0)
(0.0018157 -0.00247897 0)
(0.00562374 -0.00410096 0)
(0.0125986 -0.00622936 0)
(0.0239632 -0.00899853 0)
(0.0413153 -0.0125555 0)
(0.0664406 -0.0169447 0)
(0.101379 -0.022513 0)
(0.148745 -0.0297127 0)
(0.211792 -0.0393898 0)
(0.295253 -0.0533232 0)
(0.406177 -0.0733731 0)
(0.552488 -0.102571 0)
(0.750833 -0.145174 0)
(1.00756 -0.21195 0)
(1.39734 -0.305994 0)
(1.74396 -0.549889 0)
(-1.34113e-05 -0.000499331 0)
(0.00122943 -0.00163508 0)
(0.00365215 -0.00317194 0)
(0.0071633 -0.00520423 0)
(0.0115372 -0.00780568 0)
(0.0168848 -0.0113198 0)
(0.0241761 -0.0159691 0)
(0.0335033 -0.022022 0)
(0.0472036 -0.030193 0)
(0.067508 -0.041125 0)
(0.0972438 -0.055982 0)
(0.140579 -0.0771638 0)
(0.203891 -0.106736 0)
(0.295314 -0.148119 0)
(0.426177 -0.206389 0)
(0.611941 -0.299306 0)
(0.858954 -0.440168 0)
(1.23504 -0.730602 0)
(5.67922e-05 -0.000632468 0)
(0.0010268 -0.00216001 0)
(0.00370494 -0.0038967 0)
(0.00791168 -0.00622702 0)
(0.0137035 -0.00932154 0)
(0.0210491 -0.01343 0)
(0.030168 -0.0189425 0)
(0.0418124 -0.0260846 0)
(0.0568467 -0.035414 0)
(0.0724584 -0.0483235 0)
(0.0924911 -0.066616 0)
(0.118049 -0.0930124 0)
(0.151753 -0.131023 0)
(0.195412 -0.185375 0)
(0.252129 -0.264426 0)
(0.316597 -0.381996 0)
(0.392413 -0.561085 0)
(0.398546 -0.832027 0)
(0.000136858 -0.000789685 0)
(0.00115632 -0.00261424 0)
(0.00339346 -0.00483459 0)
(0.00680936 -0.00785543 0)
(0.0120133 -0.0113368 0)
(0.0189811 -0.0160079 0)
(0.0280557 -0.0222629 0)
(0.0398693 -0.0304255 0)
(0.0550596 -0.041539 0)
(0.0752992 -0.0560969 0)
(0.101181 -0.074652 0)
(0.125799 -0.103567 0)
(0.155863 -0.14414 0)
(0.192722 -0.20091 0)
(0.235666 -0.280351 0)
(0.277493 -0.394461 0)
(0.312549 -0.553486 0)
(0.299581 -0.781389 0)
(0.000141912 -0.000958735 0)
(0.00130407 -0.00306349 0)
(0.00356592 -0.0056993 0)
(0.00655033 -0.0090433 0)
(0.0107375 -0.0130285 0)
(0.016862 -0.0184253 0)
(0.0248962 -0.0255882 0)
(0.0352306 -0.0349352 0)
(0.0482134 -0.0473562 0)
(0.0654642 -0.0635996 0)
(0.087237 -0.0860557 0)
(0.117244 -0.115068 0)
(0.142905 -0.158509 0)
(0.172429 -0.219005 0)
(0.201464 -0.302782 0)
(0.231596 -0.410797 0)
(0.24847 -0.557669 0)
(0.225031 -0.749813 0)
(0.00012746 -0.00117024 0)
(0.00129216 -0.00363541 0)
(0.00357732 -0.00642593 0)
(0.00651231 -0.00993734 0)
(0.00982141 -0.0149024 0)
(0.0149104 -0.0208804 0)
(0.0215793 -0.0288257 0)
(0.0301411 -0.0392212 0)
(0.0406275 -0.0531197 0)
(0.0540036 -0.0715452 0)
(0.0697875 -0.0958052 0)
(0.0953033 -0.127854 0)
(0.123264 -0.17086 0)
(0.147859 -0.228558 0)
(0.164282 -0.306278 0)
(0.17064 -0.411798 0)
(0.167461 -0.549768 0)
(0.133767 -0.721295 0)
(0.000110461 -0.00137876 0)
(0.0011882 -0.00421475 0)
(0.00330843 -0.00736093 0)
(0.00630207 -0.0111381 0)
(0.00937429 -0.0162997 0)
(0.013243 -0.0230157 0)
(0.0182382 -0.0319461 0)
(0.0249271 -0.0428893 0)
(0.0329076 -0.0576308 0)
(0.0425143 -0.0771944 0)
(0.0534881 -0.103818 0)
(0.0662424 -0.13926 0)
(0.0856874 -0.181251 0)
(0.102763 -0.237982 0)
(0.11484 -0.312603 0)
(0.110992 -0.414844 0)
(0.0903224 -0.539556 0)
(0.0410368 -0.685526 0)
(9.4208e-05 -0.00157511 0)
(0.00104364 -0.00477454 0)
(0.00293039 -0.00826588 0)
(0.00566493 -0.0123219 0)
(0.00894027 -0.0174631 0)
(0.0125073 -0.0246722 0)
(0.0161395 -0.0338289 0)
(0.0203413 -0.0456899 0)
(0.025768 -0.0613427 0)
(0.0317801 -0.0817414 0)
(0.0382949 -0.109054 0)
(0.0430444 -0.145778 0)
(0.0484014 -0.190845 0)
(0.0522359 -0.247287 0)
(0.0525103 -0.317123 0)
(0.0417381 -0.404351 0)
(0.0113746 -0.510346 0)
(-0.0473287 -0.632246 0)
(7.82073e-05 -0.00175438 0)
(0.000878216 -0.00529453 0)
(0.00247992 -0.00910435 0)
(0.00478426 -0.0134933 0)
(0.00769983 -0.0189769 0)
(0.0110209 -0.0260275 0)
(0.0146014 -0.0351706 0)
(0.0178985 -0.0476896 0)
(0.0215001 -0.0636508 0)
(0.0249985 -0.084176 0)
(0.0281265 -0.110937 0)
(0.0278513 -0.14538 0)
(0.0242635 -0.188974 0)
(0.0177431 -0.24319 0)
(0.00544987 -0.307482 0)
(-0.0181091 -0.385094 0)
(-0.0592363 -0.475691 0)
(-0.124963 -0.576012 0)
(6.15353e-05 -0.00191105 0)
(0.000697397 -0.00575354 0)
(0.00197026 -0.00984121 0)
(0.00376548 -0.0145257 0)
(0.00601268 -0.0202861 0)
(0.00856564 -0.0276374 0)
(0.0113618 -0.0369748 0)
(0.0141353 -0.0489782 0)
(0.0165934 -0.0645366 0)
(0.0183273 -0.0845234 0)
(0.0187012 -0.109969 0)
(0.0164188 -0.142136 0)
(0.00860932 -0.183538 0)
(-0.00567738 -0.232858 0)
(-0.0280508 -0.290638 0)
(-0.0614112 -0.358043 0)
(-0.110906 -0.433127 0)
(-0.181566 -0.512664 0)
(4.56347e-05 -0.00203137 0)
(0.000519941 -0.00610113 0)
(0.00145972 -0.0103884 0)
(0.00274188 -0.0152657 0)
(0.0042708 -0.0211895 0)
(0.00590852 -0.028654 0)
(0.00753587 -0.0380646 0)
(0.00891203 -0.0501116 0)
(0.00961244 -0.0654864 0)
(0.00910048 -0.0849067 0)
(0.00660406 -0.109164 0)
(0.00118597 -0.13896 0)
(-0.00906935 -0.175323 0)
(-0.0263497 -0.218879 0)
(-0.0532166 -0.269903 0)
(-0.0907123 -0.325997 0)
(-0.143602 -0.387131 0)
(-0.215137 -0.449239 0)
(2.91678e-05 -0.00211905 0)
(0.000334119 -0.0063588 0)
(0.000921868 -0.0107835 0)
(0.00166628 -0.0157687 0)
(0.00244211 -0.0217524 0)
(0.00309113 -0.0291933 0)
(0.00342539 -0.0384999 0)
(0.00316265 -0.0502421 0)
(0.00184212 -0.064986 0)
(-0.00115016 -0.0833126 0)
(-0.00664365 -0.105818 0)
(-0.0156282 -0.132978 0)
(-0.0296109 -0.165463 0)
(-0.0503114 -0.203308 0)
(-0.0801826 -0.246031 0)
(-0.119153 -0.292574 0)
(-0.170248 -0.34004 0)
(-0.239003 -0.384019 0)
(9.2915e-06 -0.00217376 0)
(0.000114797 -0.00652031 0)
(0.000286254 -0.0110052 0)
(0.00039733 -0.0159897 0)
(0.000296633 -0.0218863 0)
(-0.000208654 -0.0291045 0)
(-0.00136951 -0.0380162 0)
(-0.00352924 -0.0490541 0)
(-0.00718287 -0.0626524 0)
(-0.012982 -0.0792227 0)
(-0.0217616 -0.0991359 0)
(-0.0345231 -0.122634 0)
(-0.0525293 -0.14991 0)
(-0.0772337 -0.180717 0)
(-0.110249 -0.214662 0)
(-0.153256 -0.250541 0)
(-0.205697 -0.28375 0)
(-0.270551 -0.312283 0)
(-1.43273e-05 -0.00216923 0)
(-0.000134671 -0.00650317 0)
(-0.00043206 -0.0109111 0)
(-0.0010301 -0.0157163 0)
(-0.00209569 -0.0212901 0)
(-0.00385483 -0.0279753 0)
(-0.00660549 -0.0360679 0)
(-0.0107367 -0.0458635 0)
(-0.0167604 -0.0576354 0)
(-0.0253203 -0.0715988 0)
(-0.0371978 -0.0878827 0)
(-0.0533015 -0.106473 0)
(-0.0746738 -0.127199 0)
(-0.102462 -0.149608 0)
(-0.137821 -0.172988 0)
(-0.18201 -0.196316 0)
(-0.235393 -0.217741 0)
(-0.297609 -0.235679 0)
(-4.0543e-05 -0.00206944 0)
(-0.000399722 -0.00619629 0)
(-0.0011857 -0.0103122 0)
(-0.00251298 -0.0146743 0)
(-0.00454716 -0.0195904 0)
(-0.00753088 -0.0253168 0)
(-0.0117809 -0.0320431 0)
(-0.0176922 -0.0399185 0)
(-0.0257507 -0.0490417 0)
(-0.036534 -0.0594298 0)
(-0.0507031 -0.0709899 0)
(-0.0689836 -0.0834835 0)
(-0.0921415 -0.0965035 0)
(-0.120946 -0.109428 0)
(-0.156089 -0.121409 0)
(-0.198195 -0.131383 0)
(-0.247498 -0.137941 0)
(-0.304472 -0.140063 0)
(-6.55838e-05 -0.00183488 0)
(-0.000645188 -0.00547959 0)
(-0.00187194 -0.0090083 0)
(-0.00383898 -0.0125846 0)
(-0.00668773 -0.0164304 0)
(-0.0106472 -0.0206994 0)
(-0.016012 -0.0254594 0)
(-0.0231311 -0.030715 0)
(-0.0324072 -0.0364046 0)
(-0.0442893 -0.0423789 0)
(-0.0592552 -0.0483823 0)
(-0.0777862 -0.0540348 0)
(-0.100336 -0.0588234 0)
(-0.127294 -0.0620968 0)
(-0.158934 -0.0630721 0)
(-0.195402 -0.060863 0)
(-0.236525 -0.0544769 0)
(-0.282418 -0.0430943 0)
(-8.26788e-05 -0.00143188 0)
(-0.000809276 -0.00426 0)
(-0.00231765 -0.00686042 0)
(-0.00466279 -0.00928189 0)
(-0.00793626 -0.0116442 0)
(-0.0123161 -0.0139942 0)
(-0.0180291 -0.0162837 0)
(-0.0253279 -0.0183961 0)
(-0.034483 -0.0201508 0)
(-0.0457724 -0.0212942 0)
(-0.059462 -0.021491 0)
(-0.0757842 -0.0203241 0)
(-0.0949144 -0.0172995 0)
(-0.11695 -0.0118592 0)
(-0.141881 -0.00340087 0)
(-0.169602 0.00869303 0)
(-0.199776 0.0250333 0)
(-0.232391 0.0460869 0)
(-8.38756e-05 -0.000887147 0)
(-0.000812524 -0.00261569 0)
(-0.00229571 -0.00402347 0)
(-0.00453693 -0.00505069 0)
(-0.00755868 -0.00572256 0)
(-0.0114543 -0.00599985 0)
(-0.0163455 -0.00575554 0)
(-0.0223541 -0.00480562 0)
(-0.0295949 -0.00292124 0)
(-0.0381665 0.000172608 0)
(-0.0481375 0.00479626 0)
(-0.059533 0.0113083 0)
(-0.0723223 0.0200939 0)
(-0.0864105 0.0315489 0)
(-0.101628 0.0460628 0)
(-0.117745 0.0639969 0)
(-0.134401 0.0856731 0)
(-0.151447 0.111331 0)
(-6.14164e-05 -0.000425373 0)
(-0.000626436 -0.00123787 0)
(-0.00177786 -0.00170406 0)
(-0.00347789 -0.00170118 0)
(-0.00569464 -0.00119938 0)
(-0.00844973 -0.000119307 0)
(-0.0117789 0.00169037 0)
(-0.0157078 0.00442126 0)
(-0.0202468 0.00829029 0)
(-0.025386 0.0135372 0)
(-0.0310875 0.0204208 0)
(-0.0372778 0.0292098 0)
(-0.0438429 0.0401722 0)
(-0.0506266 0.0535613 0)
(-0.0574283 0.0696037 0)
(-0.064016 0.0884854 0)
(-0.0700919 0.110346 0)
(-0.0754686 0.135283 0)
(-4.30239e-05 -0.000155868 0)
(-0.000448321 -0.000444105 0)
(-0.00126393 -0.000405016 0)
(-0.00242771 0.00010633 0)
(-0.003877 0.00114202 0)
(-0.00558677 0.00279214 0)
(-0.00753701 0.00520553 0)
(-0.00969344 0.00856012 0)
(-0.0120052 0.013048 0)
(-0.0144031 0.0188718 0)
(-0.0167952 0.02624 0)
(-0.0190642 0.035359 0)
(-0.0210654 0.0464221 0)
(-0.0226288 0.0595997 0)
(-0.0235599 0.0750303 0)
(-0.023649 0.0928116 0)
(-0.0226628 0.112997 0)
(-0.0204008 0.135622 0)
(-2.57565e-05 3.02986e-06 0)
(-0.000281394 2.21838e-05 0)
(-0.000784939 0.000333776 0)
(-0.0014596 0.00108185 0)
(-0.0022234 0.00232481 0)
(-0.00301855 0.00415059 0)
(-0.00378622 0.00669456 0)
(-0.00445237 0.010113 0)
(-0.00492773 0.0145696 0)
(-0.00510858 0.0202315 0)
(-0.0048757 0.0272647 0)
(-0.0040941 0.0358263 0)
(-0.00261393 0.046055 0)
(-0.000271699 0.0580634 0)
(0.00310602 0.0719323 0)
(0.00769757 0.0877054 0)
(0.0136769 0.105387 0)
(0.0212433 0.124973 0)
(-1.17682e-05 8.32455e-05 0)
(-0.000143935 0.00025414 0)
(-0.000390643 0.000673622 0)
(-0.00066668 0.00147147 0)
(-0.000878134 0.00270373 0)
(-0.000944896 0.00444918 0)
(-0.000781679 0.00682426 0)
(-0.000287828 0.00996153 0)
(0.000650511 0.0139981 0)
(0.00215717 0.019072 0)
(0.00436497 0.0253166 0)
(0.00741322 0.0328557 0)
(0.0114456 0.0417914 0)
(0.0166117 0.052199 0)
(0.0230621 0.0641272 0)
(0.030945 0.0775915 0)
(0.0403837 0.0925741 0)
(0.0515679 0.109053 0)
(-1.16795e-06 0.000112621 0)
(-3.8544e-05 0.00033646 0)
(-8.91275e-05 0.000763625 0)
(-6.328e-05 0.00150194 0)
(0.000139343 0.00260149 0)
(0.000612172 0.00412988 0)
(0.00145791 0.00618184 0)
(0.00279516 0.00886568 0)
(0.00475316 0.0122945 0)
(0.00746615 0.0165826 0)
(0.0110721 0.0218392 0)
(0.0157057 0.0281687 0)
(0.0214974 0.0356442 0)
(0.0285821 0.0443139 0)
(0.0370904 0.0542121 0)
(0.0471448 0.0653426 0)
(0.0588302 0.0776779 0)
(0.0723341 0.0911886 0)
(6.56841e-06 0.000111533 0)
(3.73282e-05 0.000330895 0)
(0.000124529 0.000710457 0)
(0.000359386 0.00133187 0)
(0.000841317 0.00223216 0)
(0.00166976 0.00347049 0)
(0.0029575 0.00512339 0)
(0.00483451 0.00727941 0)
(0.00743848 0.0100339 0)
(0.0109073 0.013486 0)
(0.0153822 0.0177306 0)
(0.0209847 0.0228736 0)
(0.027835 0.0289691 0)
(0.036064 0.0360299 0)
(0.045792 0.0440822 0)
(0.0571192 0.0531281 0)
(0.0700985 0.0631403 0)
(0.0849202 0.0740951 0)
(1.21092e-05 9.35136e-05 0)
(8.5358e-05 0.000278436 0)
(0.000253577 0.000586747 0)
(0.000602739 0.00108249 0)
(0.00121051 0.00181043 0)
(0.00220739 0.00278824 0)
(0.00371595 0.00407624 0)
(0.0058735 0.00574905 0)
(0.00882531 0.0078853 0)
(0.0127156 0.0105655 0)
(0.0177012 0.0138656 0)
(0.0238903 0.0178695 0)
(0.0314565 0.0226237 0)
(0.0404548 0.0281758 0)
(0.0510036 0.0345281 0)
(0.0631958 0.0416553 0)
(0.0770534 0.0495134 0)
(0.0928035 0.0580942 0)
(1.40065e-05 7.1768e-05 0)
(0.000101055 0.00021811 0)
(0.000303196 0.000460548 0)
(0.000694373 0.000836455 0)
(0.00132935 0.00136544 0)
(0.00239659 0.00208881 0)
(0.00402061 0.00302854 0)
(0.00634413 0.00424309 0)
(0.00952093 0.00579992 0)
(0.0137066 0.00776947 0)
(0.0190561 0.0102019 0)
(0.0256866 0.0132607 0)
(0.0339404 0.0168783 0)
(0.0436498 0.0210398 0)
(0.0548876 0.025877 0)
(0.0677417 0.0313616 0)
(0.0822188 0.0374338 0)
(0.0985634 0.044091 0)
(7.69006e-06 5.42876e-05 0)
(8.6246e-05 0.000162443 0)
(0.000284409 0.000340776 0)
(0.000669231 0.00062868 0)
(0.00149582 0.000991167 0)
(0.00278987 0.00143915 0)
(0.00471583 0.00200295 0)
(0.00746967 0.0027191 0)
(0.0112456 0.0036354 0)
(0.0162325 0.00481045 0)
(0.0225391 0.006313 0)
(0.0303834 0.00818281 0)
(0.0394378 0.0105571 0)
(0.0501344 0.0134318 0)
(0.062572 0.0167994 0)
(0.0768626 0.0206145 0)
(0.0930253 0.0248187 0)
(0.111383 0.0293708 0)
(-4.69973e-06 4.42834e-05 0)
(3.3329e-05 0.000122187 0)
(0.000216275 0.000226423 0)
(0.000715913 0.000348642 0)
(0.0016607 0.000485911 0)
(0.00321479 0.000643144 0)
(0.00550402 0.000827967 0)
(0.00862911 0.00106327 0)
(0.0126746 0.00139055 0)
(0.0177305 0.00187026 0)
(0.0238941 0.00256048 0)
(0.0313052 0.00357289 0)
(0.0401597 0.00495032 0)
(0.050628 0.00666255 0)
(0.0628274 0.00870925 0)
(0.0769236 0.0110702 0)
(0.0929079 0.0136967 0)
(0.11129 0.016518 0)
(4.58048e-05 2.60808e-05 0)
(0.000296234 6.61446e-05 0)
(0.000774011 0.000100176 0)
(0.00147382 0.00011709 0)
(0.00233277 0.000102734 0)
(0.00328898 5.61637e-05 0)
(0.00431507 -1.84501e-05 0)
(0.00544237 -9.74361e-05 0)
(0.00679104 -0.000137926 0)
(0.00860199 -8.60397e-05 0)
(0.0112196 0.000114103 0)
(0.0151071 0.00052244 0)
(0.0208054 0.00116184 0)
(0.0287769 0.00201497 0)
(0.039361 0.00308678 0)
(0.0528805 0.00436939 0)
(0.0693237 0.0058104 0)
(0.0891739 0.0074272 0)
(-0.0976544 -0.0230223 2.22712e-19)
(-0.470066 0.241065 -2.14295e-19)
(-1.12198 0.505094 0)
(-2.00542 0.781356 0)
(-3.17203 1.11472 0)
(-4.56062 1.66481 2.04045e-19)
(-6.26321 2.15283 0)
(-8.30561 2.42181 0)
(-10.4981 2.62076 0)
(-12.8406 2.77643 0)
(-15.3016 2.88732 -1.99048e-19)
(-17.8379 2.95131 0)
(-20.4129 2.9686 0)
(-22.993 2.94098 0)
(-25.5456 2.87071 0)
(-28.0384 2.75992 -1.95666e-19)
(-30.4401 2.61071 0)
(-32.72 2.42565 0)
(-34.849 2.20906 0)
(-36.8022 1.969 0)
(-38.5626 1.71786 0)
(-40.1244 1.46718 0)
(-41.4885 1.21924 0)
(-42.6573 0.971066 -1.92142e-19)
(-43.6361 0.729083 1.9139e-19)
(-44.4373 0.505114 -1.90513e-19)
(-45.0782 0.304512 -1.8951e-19)
(-45.5757 0.124993 0)
(-45.9374 -0.0410183 0)
(-46.2094 -0.212715 1.85788e-19)
(-46.3728 -0.364406 1.84313e-19)
(-46.4033 -0.485595 0)
(-46.3745 -0.570057 0)
(-46.324 -0.599927 1.79514e-19)
(-46.2881 -0.552162 0)
(-46.324 -0.368949 0)
(-46.5402 -0.14426 -1.74532e-19)
(-46.723 -0.727427 0)
(-46.7672 -1.40412 -1.70945e-19)
(-46.7789 -1.22066 -3.38554e-19)
(-46.8661 -0.878461 0)
(-47.0808 -0.520911 0)
(-47.3946 -0.184962 0)
(-47.7842 0.120896 0)
(-48.2404 0.399018 0)
(-48.76 0.649092 -3.20596e-19)
(-49.3425 0.860292 -3.18083e-19)
(-49.9859 1.01295 -3.15821e-19)
(-50.6816 1.09101 0)
(-51.4158 1.10149 3.12241e-19)
(-52.1786 1.08852 0)
(-52.9769 1.12472 -3.103e-19)
(-53.8374 1.27203 -3.10141e-19)
(-54.7899 1.53137 0)
(-55.8339 1.82068 0)
(-56.9069 2.00325 0)
(-57.9143 1.94479 -3.17462e-19)
(-58.7321 1.61608 0)
(-59.2351 1.07945 0)
(-59.2799 0.459287 0)
(-58.9038 -0.251081 0)
(-57.9616 -0.866094 0)
(-56.3618 -1.51163 0)
(-54.0008 -2.2217 0)
(-50.7271 -3.00158 0)
(-46.4055 -3.79776 3.87983e-19)
(-41.0073 -4.47214 0)
(-34.7153 -4.86344 0)
(-27.897 -5.05662 -4.28284e-19)
(-20.8676 -5.57593 -4.43912e-19)
(-13.7218 -6.07357 0)
(-6.3665 -6.37506 4.77052e-19)
(1.73748 -7.33005 -4.96985e-19)
(11.571 -9.43395 0)
(27.2277 -11.7215 5.33824e-19)
(45.1579 -12.9952 0)
(60.7542 -8.10575 0)
(71.9875 -1.27795 -5.59735e-19)
(83.4064 -2.92963 0)
(98.9682 -8.99335 5.97653e-19)
(114.695 -8.58948 0)
(129.282 -6.68815 -6.413e-19)
(142.656 -5.4659 -6.55324e-19)
(155.392 -4.85704 -6.67173e-19)
(167.044 -4.20445 -1.37013e-18)
(176.912 -3.32816 1.40403e-18)
(184.365 -2.1661 0)
(188.673 -0.6721 0)
(189.154 1.16705 0)
(185.243 3.3133 1.46655e-18)
(176.598 5.66607 1.4474e-18)
(163.212 8.06904 -1.40864e-18)
(145.499 10.3273 0)
(124.339 12.2244 1.27115e-18)
(101.066 13.5411 1.17725e-18)
(77.3791 14.0806 1.07341e-18)
(55.1802 13.6906 0)
(36.3671 12.2698 0)
(22.5398 9.78496 0)
(14.7952 6.62909 6.96847e-19)
(13.7681 2.31174 0)
(19.4084 -2.85434 0)
(31.106 -7.61273 -5.82074e-19)
(47.5698 -11.6181 0)
(67.2914 -14.5268 0)
(88.2982 -15.7265 -6.0979e-19)
(108.489 -14.1254 0)
(126.778 -10.5601 0)
(138.033 -7.87509 6.14202e-19)
(146.034 -5.42243 6.12326e-19)
(150.028 -2.92019 0)
(150.176 -0.211513 -5.77638e-19)
(146.142 2.78459 0)
(137.515 6.03796 4.72804e-19)
(123.81 9.46907 0)
(104.602 13.0374 2.65792e-19)
(79.6285 16.6151 1.18168e-19)
(48.8707 20.0101 0)
(12.6795 22.9526 0)
(-28.0849 25.0844 0)
(-71.9045 25.9986 0)
(-116.522 25.3613 0)
(-159.07 23.2148 0)
(-196.704 20.1927 0)
(-226.905 16.0614 -1.16919e-18)
(-247.168 10.8961 1.1124e-18)
(-256.229 5.04199 0)
(-253.947 -0.877498 0)
(-240.29 -7.17871 0)
(-214.917 -14.5108 0)
(-177.118 -22.0199 -7.84837e-20)
(-135.54 -21.2183 0)
(-103.562 -15.6832 8.81591e-19)
(-80.2994 -11.9099 -1.16224e-18)
(-58.1719 -9.0366 0)
(-41.5148 -4.60887 0)
(-32.0182 -1.03016 0)
(-28.8308 1.90012 1.35987e-18)
(-31.8955 4.43593 1.24694e-18)
(-40.5734 6.20006 0)
(-53.1443 6.99963 9.40299e-19)
(-68.1041 7.13682 7.72199e-19)
(-84.8068 6.68448 -6.0143e-19)
(-102.334 5.50295 0)
(-118.776 3.62132 0)
(-132.395 1.13936 -1.65939e-19)
(-141.512 -1.85307 0)
(-144.53 -4.95168 0)
(-140.2 -7.27701 0)
(-128.059 -8.46827 0)
(-108.705 -8.30878 -1.45469e-19)
(-83.7263 -6.74205 -1.33627e-19)
(-55.2494 -4.07119 0)
(-22.4273 -2.37768 -1.03545e-19)
(10.6309 -8.41715 0)
(34.4718 -8.18694 0)
(52.8711 -4.87374 1.71201e-19)
(65.9525 -3.08135 0)
(73.2595 -1.51213 2.45945e-19)
(74.8265 0.184713 0)
(70.7641 1.99689 0)
(61.4755 3.86717 3.17871e-19)
(47.66 5.74902 0)
(30.5569 7.56152 1.31669e-19)
(12.6247 8.51357 0)
(-4.56182 5.59136 0)
(-22.0128 2.04428 0)
(-38.709 -0.34162 -9.63123e-20)
(-50.805 -0.432008 0)
(-58.3938 -0.200781 2.43161e-19)
(-59.5895 -1.75477 0)
(-55.0311 -3.70037 0)
(-46.1617 -4.08493 0)
(-34.219 -3.75937 0)
(-20.3442 -3.40207 0)
(-5.06081 -3.20921 0)
(11.7694 -3.23765 0)
(30.0909 -3.32605 -1.84233e-19)
(50.759 -2.65846 0)
(67.8635 -1.14886 0)
(-0.505713 1.23677 -6.5952e-19)
(-1.3132 2.00165 6.32003e-19)
(-2.60233 2.75111 0)
(-4.10704 3.52171 -4.11675e-19)
(-5.85305 4.2642 0)
(-7.79131 4.97505 -1.99291e-19)
(-9.86469 5.69199 3.96335e-19)
(-12.0552 6.29415 3.92132e-19)
(-14.3541 6.74478 0)
(-16.7387 7.0583 3.85172e-19)
(-19.1819 7.25275 1.89326e-19)
(-21.6604 7.3409 0)
(-24.1536 7.33225 0)
(-26.6407 7.23393 0)
(-29.1 7.05102 0)
(-31.5078 6.78718 1.85382e-19)
(-33.8392 6.44584 0)
(-36.0671 6.03202 -3.74069e-19)
(-38.1642 5.55496 0)
(-40.1053 5.03189 0)
(-41.8753 4.48919 3.73108e-19)
(-43.4733 3.95132 0)
(-44.9045 3.43049 -3.7219e-19)
(-46.1781 2.93485 1.84398e-19)
(-47.3038 2.47626 -1.84337e-19)
(-48.2924 2.06443 1.842e-19)
(-49.1587 1.69936 1.8394e-19)
(-49.9154 1.37679 0)
(-50.5794 1.09695 0)
(-51.1448 0.860491 -1.82278e-19)
(-51.6429 0.685196 1.82931e-19)
(-52.1726 0.549635 0)
(-52.7568 0.481535 0)
(-53.3915 0.491694 -1.77486e-19)
(-54.0936 0.574358 0)
(-54.8634 0.718861 0)
(-55.6554 0.892111 1.72766e-19)
(-56.5722 1.0175 0)
(-57.7069 1.11595 -1.68872e-19)
(-58.9919 1.16943 3.35554e-19)
(-60.2094 1.17663 0)
(-61.3092 1.1576 0)
(-62.2856 1.12273 6.49596e-19)
(-63.1252 1.08009 6.43404e-19)
(-63.8197 1.04219 6.37565e-19)
(-64.369 1.02228 -3.1518e-19)
(-64.7809 1.02922 3.14549e-19)
(-65.074 1.06511 9.3522e-19)
(-65.2805 1.12608 -6.18988e-19)
(-65.4421 1.20543 -3.09309e-19)
(-65.6016 1.29716 0)
(-65.791 1.39429 3.07876e-19)
(-66.0216 1.48009 -3.04356e-19)
(-66.2804 1.52023 0)
(-66.5362 1.46836 0)
(-66.7565 1.28345 0)
(-66.8921 0.940623 3.1527e-19)
(-66.8819 0.461621 0)
(-66.6672 -0.122293 -6.4499e-19)
(-66.2217 -0.766729 0)
(-65.2094 -1.52723 -6.72947e-19)
(-63.6868 -2.4838 0)
(-61.6801 -3.65963 7.03693e-19)
(-58.8947 -5.0971 0)
(-55.1772 -6.78976 -7.42287e-19)
(-50.3958 -8.63272 3.79427e-19)
(-44.4526 -10.3799 0)
(-37.3196 -11.6855 8.17127e-19)
(-29.1299 -12.2732 4.26451e-19)
(-20.347 -12.2209 4.41931e-19)
(-11.4059 -12.1491 0)
(-2.17125 -12.8937 4.58866e-19)
(8.23046 -15.2608 4.94252e-19)
(20.754 -19.3251 0)
(33.3568 -23.2353 -5.28002e-19)
(48.7059 -25.9077 1.03454e-18)
(67.1522 -25.1762 0)
(87.2186 -24.5039 5.55506e-19)
(108.283 -26.4256 0)
(128.179 -26.9863 -1.77092e-18)
(147.219 -25.8692 0)
(166.27 -24.4516 1.88022e-18)
(185.126 -23.0696 6.34064e-19)
(202.785 -21.2206 -6.64037e-19)
(218.238 -18.4113 -1.36845e-18)
(230.634 -14.5168 1.40625e-18)
(238.941 -9.51242 0)
(242.149 -3.46196 0)
(239.405 3.44205 0)
(230.179 10.8544 -4.33081e-18)
(214.446 18.2719 -1.41303e-18)
(192.848 25.0583 1.37618e-18)
(166.785 30.5023 0)
(138.4 33.9061 1.22544e-18)
(110.38 34.7009 -1.15169e-18)
(85.604 32.5729 -1.04875e-18)
(66.6672 27.5688 0)
(55.386 20.1266 0)
(52.5188 11.0503 0)
(57.7039 1.45895 -6.58716e-19)
(69.2446 -7.44464 0)
(84.8158 -14.7787 1.0584e-18)
(101.782 -19.9536 1.56328e-18)
(117.88 -22.754 -1.03519e-18)
(131.681 -23.3094 0)
(142.714 -21.9077 -5.98772e-19)
(149.745 -18.9976 0)
(152.91 -13.7245 -1.18675e-18)
(158.325 -9.25022 6.02726e-19)
(160.778 -5.0679 6.10786e-19)
(160.543 -0.730351 0)
(156.942 3.74278 1.70974e-18)
(149.764 8.58736 -1.08878e-18)
(138.561 13.892 -4.49231e-19)
(122.946 19.5524 0)
(102.591 25.4929 -2.47096e-19)
(77.2431 31.5216 -4.32672e-19)
(46.8901 37.3055 0)
(11.8869 42.3756 3.8875e-19)
(-26.9068 46.1639 8.0651e-19)
(-68.1356 48.0944 1.23717e-18)
(-110.013 47.4509 0)
(-150.224 43.3522 0)
(-186.169 36.1118 0)
(-214.881 26.1456 -1.17161e-18)
(-233.731 13.2732 -1.06743e-18)
(-242.309 2.00616 0)
(-238.275 -9.86827 -1.62701e-18)
(-222.809 -22.009 -1.15399e-18)
(-197.704 -32.7849 0)
(-166.203 -38.2013 -2.73633e-20)
(-132.871 -34.5944 9.04994e-19)
(-100.764 -25.5848 -8.30689e-19)
(-68.953 -22.324 -1.17846e-18)
(-43.1062 -18.7739 0)
(-24.8229 -13.1625 0)
(-13.8195 -7.82531 0)
(-11.5377 -1.22821 -1.29769e-18)
(-15.4778 4.87189 1.27899e-18)
(-25.2002 9.67213 2.20488e-18)
(-39.1829 12.916 -9.15249e-19)
(-56.3047 15.224 8.3037e-19)
(-76.2858 16.9118 5.87454e-19)
(-98.2177 17.0904 0)
(-120.128 15.6598 0)
(-140.27 12.7337 -2.04159e-19)
(-156.892 8.18046 0)
(-167.981 2.18931 0)
(-171.697 -4.65565 -1.71226e-19)
(-166.596 -11.7623 0)
(-151.834 -18.3683 -1.71589e-19)
(-127.494 -23.82 1.18645e-19)
(-94.2586 -27.6811 0)
(-59.8406 -29.2559 -6.36086e-19)
(-26.1425 -26.9404 0)
(12.6137 -19.4483 0)
(46.2847 -13.7421 -1.99001e-19)
(70.676 -8.49559 4.23225e-19)
(86.3429 -3.45358 -2.63506e-19)
(93.0464 1.22825 0)
(91.361 5.45858 0)
(82.2849 9.04665 3.32524e-19)
(67.1361 11.7196 0)
(47.5076 13.2577 6.73852e-19)
(24.3981 13.3517 0)
(-0.548064 10.4315 0)
(-25.0269 5.78754 0)
(-43.7953 12.7309 9.34464e-20)
(-56.4656 9.77998 0)
(-64.5542 3.39208 -2.38169e-19)
(-66.5194 -0.186351 0)
(-61.4746 -4.18327 0)
(-50.7885 -7.21087 4.01843e-19)
(-36.0737 -9.2101 -3.98199e-19)
(-18.8429 -10.6036 0)
(-0.423404 -11.7827 0)
(18.7567 -13.0401 0)
(38.4752 -14.2606 9.53266e-19)
(60.333 -14.5021 0)
(79.242 -13.3204 -4.36168e-19)
(-0.815541 3.60865 -2.66713e-21)
(-1.93071 4.91566 -8.3494e-19)
(-3.67474 6.16012 0)
(-5.54953 7.41506 8.14312e-19)
(-7.56349 8.58045 0)
(-9.69632 9.60207 0)
(-11.8986 10.4539 2.82538e-21)
(-14.1436 11.1226 -3.86407e-19)
(-16.4301 11.6191 -3.86176e-19)
(-18.7591 11.962 -3.8011e-19)
(-21.1274 12.1666 0)
(-23.5275 12.2428 0)
(-25.9479 12.1962 3.78447e-19)
(-28.3734 12.0287 7.55093e-19)
(-30.7852 11.74 -7.53889e-19)
(-33.1613 11.3282 0)
(-35.4757 10.791 -7.52828e-19)
(-37.6978 10.1289 3.72238e-19)
(-39.7904 9.35022 0)
(-41.7147 8.48384 -7.52782e-19)
(-43.4521 7.59299 -3.72112e-19)
(-45.0252 6.72972 7.51676e-19)
(-46.4595 5.8972 3.71391e-19)
(-47.7509 5.09723 0)
(-48.891 4.35271 -7.47013e-19)
(-49.8869 3.68537 -7.44473e-19)
(-50.752 3.08953 0)
(-51.4889 2.55339 -7.38171e-19)
(-52.0989 2.08456 0)
(-52.5914 1.71168 -7.29769e-19)
(-53.0224 1.45881 -3.60067e-19)
(-53.414 1.33702 0)
(-53.7905 1.36476 0)
(-54.2295 1.52666 0)
(-54.7819 1.79813 0)
(-55.487 2.14219 0)
(-56.3741 2.4997 0)
(-57.4933 2.77763 -6.78862e-19)
(-58.8889 2.95986 1.00825e-18)
(-60.5362 3.07745 0)
(-62.3578 3.10658 0)
(-64.2746 3.03171 0)
(-66.201 2.86346 -1.75763e-21)
(-68.0524 2.62612 -6.41394e-19)
(-69.7573 2.34898 -1.26816e-18)
(-71.2589 2.06341 1.25649e-18)
(-72.5165 1.79803 6.2072e-19)
(-73.5099 1.57709 -6.20406e-19)
(-74.2434 1.42028 5.5001e-21)
(-74.7441 1.34083 -6.07276e-19)
(-75.0519 1.34669 0)
(-75.2108 1.43802 -6.02682e-19)
(-75.2622 1.59429 7.9966e-21)
(-75.2395 1.7592 0)
(-75.1614 1.84304 0)
(-75.0303 1.7452 6.08879e-19)
(-74.8231 1.38813 0)
(-74.4934 0.722152 0)
(-73.9549 -0.267684 -6.23568e-19)
(-73.0817 -1.57365 -1.29266e-18)
(-71.8166 -3.13213 6.69887e-19)
(-69.9508 -5.11784 0)
(-67.303 -7.41318 -7.01114e-19)
(-63.7958 -10.0857 0)
(-59.3144 -13.1511 -7.21062e-19)
(-53.764 -16.4905 -7.6318e-19)
(-47.0733 -19.8128 1.55917e-18)
(-39.2149 -22.6694 7.97671e-19)
(-30.2381 -24.6258 0)
(-20.3217 -25.605 -1.72512e-18)
(-9.66365 -26.2117 0)
(1.90842 -27.8704 -2.74593e-18)
(15.0802 -32.0366 -1.87979e-18)
(30.5574 -38.4687 -1.89376e-18)
(47.176 -44.9327 1.97708e-18)
(64.6801 -48.0875 -3.08927e-18)
(84.2032 -48.2481 0)
(106.147 -48.0395 0)
(129.377 -49.2176 2.29985e-18)
(152.22 -49.9279 3.56605e-18)
(175 -49.0381 0)
(198.154 -47.3073 -1.22482e-18)
(220.547 -44.7184 0)
(240.865 -40.5299 3.94491e-18)
(257.937 -34.3453 -5.69821e-20)
(270.493 -25.9518 6.05008e-20)
(277.211 -15.3066 -2.86294e-18)
(276.915 -2.62655 0)
(268.803 11.545 2.92079e-18)
(252.705 26.2986 -3.03697e-20)
(229.336 40.3736 0)
(200.445 52.2554 0)
(168.782 60.3728 0)
(137.778 63.393 -2.44738e-18)
(110.955 60.5639 0)
(91.193 51.995 0)
(80.0779 38.7465 0)
(77.5889 22.6602 0)
(82.257 5.9664 0)
(91.7237 -9.20796 -1.13594e-18)
(103.457 -21.343 0)
(115.403 -29.6525 -1.0678e-18)
(126.303 -34.005 -1.04439e-18)
(135.695 -34.895 1.05613e-18)
(143.489 -33.0042 0)
(149.517 -28.7417 1.20304e-18)
(154.771 -24.461 0)
(159.435 -19.4631 1.17633e-18)
(161.677 -13.3169 -1.18615e-18)
(161.707 -6.26355 -3.62816e-18)
(159.335 1.2255 0)
(154.448 8.8847 -3.54872e-18)
(146.741 17.0733 -1.23959e-18)
(135.732 26.0724 0)
(120.841 35.6567 -1.85245e-18)
(101.618 45.6632 -1.44983e-18)
(77.5971 55.7395 1.24309e-18)
(48.5053 65.2737 0)
(14.4695 73.4004 -3.78677e-19)
(-23.7859 79.095 -7.93902e-19)
(-64.9587 81.3379 -3.6019e-18)
(-106.804 79.0989 0)
(-146.292 71.4934 0)
(-181.465 59.8198 0)
(-209.002 45.6981 -2.59471e-18)
(-228.057 26.4695 0)
(-236.015 4.37201 0)
(-227.762 -16.676 1.68973e-18)
(-207.304 -36.1342 1.21114e-18)
(-178.008 -52.0733 0)
(-143.991 -61.2865 0)
(-107.161 -60.525 -8.4355e-19)
(-67.7222 -54.2849 0)
(-31.9335 -46.3106 2.36043e-18)
(-4.41652 -35.6565 2.79774e-18)
(15.2714 -22.2194 0)
(25.1153 -9.30447 0)
(25.6235 1.47349 -2.72113e-18)
(20.8583 11.1146 7.71534e-20)
(10.7786 18.7313 7.05629e-20)
(-3.40342 23.6227 0)
(-22.6531 27.8187 -3.26996e-18)
(-44.8462 31.1068 0)
(-68.3122 31.8419 0)
(-92.2161 29.7608 0)
(-115.416 25.0826 4.91008e-19)
(-136.531 17.6133 0)
(-153.809 7.65991 -2.14801e-19)
(-165.428 -4.21045 4.19792e-20)
(-169.577 -17.0068 0)
(-164.715 -29.542 1.84131e-19)
(-149.905 -40.4438 0)
(-125.272 -48.0079 0)
(-91.8487 -52.2222 1.00027e-18)
(-51.7211 -49.4084 -1.40838e-18)
(-9.996 -43.1839 0)
(30.1082 -35.208 4.93805e-19)
(65.5586 -24.5898 -4.46157e-19)
(91.2878 -13.2695 0)
(105.511 -2.33821 0)
(108.233 7.55643 0)
(100.608 15.8878 -2.33361e-18)
(84.5082 22.2502 0)
(62.1235 26.2683 -8.70748e-19)
(35.5926 27.5563 0)
(7.44565 26.5812 0)
(-14.1045 21.3046 0)
(-37.2963 15.5752 0)
(-63.425 10.3615 0)
(-76.7938 4.36517 0)
(-78.7389 -2.78466 -8.47751e-19)
(-71.3872 -9.65415 0)
(-53.8412 -15.3651 -3.4194e-19)
(-28.6295 -18.9171 9.71311e-19)
(0.373183 -20.3778 0)
(29.0813 -20.6885 0)
(54.7182 -20.8332 -6.87906e-19)
(76.0667 -21.4335 -6.91128e-19)
(95.2589 -21.41 6.91934e-19)
(110.617 -20.4078 5.64787e-19)
(-0.915032 6.75611 1.31357e-18)
(-2.39076 8.64551 1.24996e-18)
(-4.42624 10.2313 8.25572e-19)
(-6.5027 11.7026 4.10684e-19)
(-8.60341 12.9776 0)
(-10.7304 14.0395 -7.9492e-19)
(-12.8751 14.9073 3.97594e-19)
(-15.044 15.6021 0)
(-17.2505 16.1409 3.84216e-19)
(-19.5032 16.5343 0)
(-21.802 16.7854 -7.70729e-19)
(-24.1385 16.8922 0)
(-26.4982 16.8498 -3.7936e-19)
(-28.863 16.6524 -7.58101e-19)
(-31.2129 16.2933 7.57956e-19)
(-33.5269 15.7641 0)
(-35.7817 15.0528 7.58654e-19)
(-37.9479 14.1457 0)
(-39.9805 13.0379 0)
(-41.8123 11.7708 7.60546e-19)
(-43.436 10.5206 0)
(-44.921 9.40692 9.80872e-21)
(-46.3353 8.34259 0)
(-47.6426 7.27374 0)
(-48.8201 6.24606 -8.49187e-21)
(-49.8748 5.31007 7.53108e-19)
(-50.8034 4.45539 7.57502e-19)
(-51.578 3.66474 7.45971e-19)
(-52.1832 2.95877 0)
(-52.6359 2.3835 1.47979e-18)
(-52.9765 1.9844 0)
(-53.2352 1.81417 7.30625e-19)
(-53.4673 1.86729 0)
(-53.7364 2.14384 0)
(-54.0876 2.62614 -7.0531e-19)
(-54.5727 3.27298 0)
(-55.2427 4.02551 6.87313e-19)
(-56.1527 4.81339 6.52858e-22)
(-57.3652 5.57253 -1.3422e-18)
(-58.9068 6.20199 1.32641e-18)
(-60.7524 6.59655 0)
(-62.8443 6.7202 0)
(-65.1209 6.58496 6.37719e-19)
(-67.5146 6.2307 0)