/*--------------------------------*- C++ -*----------------------------------*\
| =========                 |                                                 |
| \\      /  F ield         | OpenFOAM: The Open Source CFD Toolbox           |
|  \\    /   O peration     | Version:  2112                                  |
|   \\  /    A nd           | Website:  www.openfoam.com                      |
|    \\/     M anipulation  |                                                 |
\*---------------------------------------------------------------------------*/
FoamFile
{
    version     2.0;
    format      ascii;
    arch        "LSB;label=32;scalar=64";
    class       volVectorField;
    location    "0.04";
    object      ddtCorrDdt0(U);
}
// * * * * * * * * * * * * * * * * * * * * * * * * * * * * * * * * * * * * * //

dimensions      [0 1 -2 0 0 0 0];

internalField   nonuniform List<vector> 
12225
(
(0.00160207 -0.00271292 0)
(0.0722171 -0.0107008 0)
(0.228443 -0.0199025 0)
(0.47119 -0.0322869 0)
(0.830875 -0.0493969 0)
(1.28799 -0.0729765 0)
(1.9618 -0.0859834 0)
(2.57963 -0.114979 0)
(3.60045 -0.172583 0)
(4.72284 -0.183095 0)
(6.01456 -0.254648 0)
(7.64882 -0.30239 0)
(9.69435 -0.433624 0)
(11.769 -0.434478 0)
(15.0074 -0.744459 0)
(17.8462 -0.659325 0)
(22.8281 -1.44373 0)
(26.7482 -0.886388 0)
(-0.000932856 -0.00732737 0)
(0.0445615 -0.0313404 0)
(0.155461 -0.0572905 0)
(0.333199 -0.0913737 0)
(0.602743 -0.132208 0)
(0.951319 -0.178685 0)
(1.34307 -0.240275 0)
(2.03051 -0.315745 0)
(2.68788 -0.383872 0)
(3.43199 -0.512799 0)
(4.66427 -0.618634 0)
(5.73238 -0.791493 0)
(7.30541 -0.965682 0)
(9.02427 -1.27094 0)
(11.2675 -1.48916 0)
(13.7604 -1.95894 0)
(16.1107 -2.59386 0)
(20.9177 -3.74318 0)
(-0.00302342 -0.0115497 0)
(0.0435213 -0.0522032 0)
(0.152758 -0.0960409 0)
(0.328856 -0.149188 0)
(0.57135 -0.213333 0)
(0.888382 -0.288248 0)
(1.29932 -0.378226 0)
(1.79044 -0.489034 0)
(2.37508 -0.618842 0)
(3.11021 -0.777015 0)
(3.94661 -0.976717 0)
(4.93085 -1.216 0)
(6.18222 -1.51218 0)
(7.50897 -1.87918 0)
(9.1254 -2.34513 0)
(11.0022 -3.06686 0)
(13.9899 -3.83976 0)
(15.6349 -4.8113 0)
(-0.00113655 -0.0158041 0)
(0.0437013 -0.0717243 0)
(0.147729 -0.133663 0)
(0.317043 -0.206958 0)
(0.551613 -0.29431 0)
(0.859064 -0.395222 0)
(1.24848 -0.518279 0)
(1.70973 -0.664225 0)
(2.26793 -0.832581 0)
(2.94391 -1.04822 0)
(3.70752 -1.30225 0)
(4.6217 -1.61514 0)
(5.68953 -2.00457 0)
(6.92064 -2.46799 0)
(8.31049 -3.08746 0)
(9.98861 -3.9335 0)
(12.0606 -4.89156 0)
(13.6428 -6.10334 0)
(0.00280048 -0.0212428 0)
(0.0466268 -0.0909649 0)
(0.14621 -0.170565 0)
(0.308847 -0.264479 0)
(0.535988 -0.37474 0)
(0.831668 -0.50279 0)
(1.20055 -0.655127 0)
(1.6436 -0.834522 0)
(2.1734 -1.04681 0)
(2.80092 -1.30715 0)
(3.52303 -1.61691 0)
(4.36969 -1.9987 0)
(5.33804 -2.46332 0)
(6.46411 -3.02457 0)
(7.73997 -3.75581 0)
(9.17792 -4.7151 0)
(10.7337 -5.75946 0)
(12.4317 -7.06331 0)
(0.00665679 -0.0287858 0)
(0.0500693 -0.111149 0)
(0.147989 -0.208643 0)
(0.306069 -0.323749 0)
(0.526028 -0.457278 0)
(0.809731 -0.612011 0)
(1.16057 -0.793688 0)
(1.58256 -1.00732 0)
(2.08241 -1.26045 0)
(2.6673 -1.56532 0)
(3.34234 -1.92962 0)
(4.12167 -2.37334 0)
(5.00541 -2.90999 0)
(6.02137 -3.56017 0)
(7.15876 -4.38138 0)
(8.38978 -5.40694 0)
(9.70715 -6.55675 0)
(11.2227 -8.00193 0)
(0.0074666 -0.0379394 0)
(0.0528282 -0.133124 0)
(0.15197 -0.249121 0)
(0.30753 -0.385735 0)
(0.520794 -0.542753 0)
(0.792894 -0.723879 0)
(1.12667 -0.935061 0)
(1.52595 -1.1825 0)
(1.99499 -1.47447 0)
(2.53866 -1.82317 0)
(3.16291 -2.23874 0)
(3.87421 -2.73982 0)
(4.67429 -3.34226 0)
(5.57743 -4.06888 0)
(6.57087 -4.96124 0)
(7.62926 -6.04254 0)
(8.75967 -7.29173 0)
(9.99682 -8.81594 0)
(0.00399296 -0.0482344 0)
(0.0544383 -0.158036 0)
(0.157106 -0.292932 0)
(0.311567 -0.450895 0)
(0.518588 -0.631306 0)
(0.779341 -0.838531 0)
(1.09617 -1.07884 0)
(1.47186 -1.35912 0)
(1.9093 -1.68831 0)
(2.41155 -2.07872 0)
(2.98283 -2.54171 0)
(3.62547 -3.09509 0)
(4.34027 -3.75539 0)
(5.131 -4.54501 0)
(5.98501 -5.49435 0)
(6.88409 -6.6248 0)
(7.82169 -7.93862 0)
(8.79982 -9.4955 0)
(-0.00356492 -0.0562809 0)
(0.0559096 -0.186707 0)
(0.162556 -0.340755 0)
(0.316286 -0.519489 0)
(0.517188 -0.722882 0)
(0.766528 -0.955645 0)
(1.06603 -1.22424 0)
(1.41738 -1.53602 0)
(1.82233 -1.90036 0)
(2.28226 -2.32947 0)
(2.79905 -2.83538 0)
(3.37232 -3.43481 0)
(4.00058 -4.14407 0)
(4.68106 -4.98354 0)
(5.40121 -5.97663 0)
(6.14481 -7.14254 0)
(6.89379 -8.4893 0)
(7.64349 -10.0522 0)
(-0.00399316 -0.0649193 0)
(0.0598626 -0.218274 0)
(0.167534 -0.392452 0)
(0.319548 -0.591521 0)
(0.513895 -0.817285 0)
(0.751332 -1.0747 0)
(1.03278 -1.37032 0)
(1.35888 -1.71175 0)
(1.73021 -2.10856 0)
(2.14659 -2.5726 0)
(2.60761 -3.11603 0)
(3.11077 -3.75429 0)
(3.65213 -4.5027 0)
(4.22503 -5.37895 0)
(4.81634 -6.40138 0)
(5.40952 -7.58566 0)
(5.98199 -8.93981 0)
(6.52734 -10.4846 0)
(0.00139478 -0.0783077 0)
(0.062795 -0.253548 0)
(0.170015 -0.447504 0)
(0.318812 -0.666686 0)
(0.505609 -0.914088 0)
(0.730163 -1.19496 0)
(0.992429 -1.51589 0)
(1.29205 -1.88459 0)
(1.62837 -2.31053 0)
(1.99973 -2.80497 0)
(2.40375 -3.37976 0)
(2.83616 -4.04882 0)
(3.29098 -4.82596 0)
(3.75926 -5.72589 0)
(4.2271 -6.76258 0)
(4.67763 -7.94769 0)
(5.08763 -9.28709 0)
(5.44958 -10.7908 0)
(0.0031325 -0.0906039 0)
(0.0627802 -0.287445 0)
(0.168055 -0.500592 0)
(0.312177 -0.738181 0)
(0.490523 -1.00464 0)
(0.701785 -1.30566 0)
(0.944962 -1.64786 0)
(1.21876 -2.03889 0)
(1.5214 -2.48789 0)
(1.84996 -3.00539 0)
(2.20058 -3.60257 0)
(2.5677 -4.2919 0)
(2.94407 -5.08547 0)
(3.31965 -5.99509 0)
(3.68013 -7.03102 0)
(4.00887 -8.20142 0)
(4.28383 -9.50922 0)
(4.49701 -10.9556 0)
(0.00354103 -0.103635 0)
(0.0604827 -0.322087 0)
(0.161754 -0.554545 0)
(0.299237 -0.810128 0)
(0.467371 -1.0946 0)
(0.663759 -1.41417 0)
(0.886438 -1.77546 0)
(1.13317 -2.18592 0)
(1.40109 -2.65414 0)
(1.68616 -3.18983 0)
(1.98331 -3.80329 0)
(2.28609 -4.50549 0)
(2.5866 -5.30674 0)
(2.87453 -6.2159 0)
(3.13564 -7.2397 0)
(3.35385 -8.38326 0)
(3.50976 -9.64614 0)
(3.59446 -11.0216 0)
(0.00336852 -0.118601 0)
(0.0554033 -0.362026 0)
(0.148848 -0.616524 0)
(0.2754 -0.892068 0)
(0.428645 -1.19575 0)
(0.605065 -1.53428 0)
(0.801629 -1.91426 0)
(1.01503 -2.34274 0)
(1.24123 -2.82752 0)
(1.4751 -3.37723 0)
(1.71053 -4.00101 0)
(1.94053 -4.70831 0)
(2.15739 -5.50749 0)
(2.35158 -6.404 0)
(2.50932 -7.40052 0)
(2.61573 -8.49934 0)
(2.65592 -9.69696 0)
(2.61901 -10.9778 0)
(0.00291496 -0.134502 0)
(0.0472221 -0.405592 0)
(0.127604 -0.684271 0)
(0.236746 -0.98122 0)
(0.367925 -1.30457 0)
(0.516734 -1.66135 0)
(0.679131 -2.05802 0)
(0.850719 -2.50097 0)
(1.02632 -2.99691 0)
(1.19974 -3.55315 0)
(1.36412 -4.17762 0)
(1.51255 -4.87859 0)
(1.63902 -5.66288 0)
(1.73662 -6.53217 0)
(1.79255 -7.48367 0)
(1.7927 -8.51709 0)
(1.73038 -9.62908 0)
(1.58838 -10.7931 0)
(0.00228041 -0.149934 0)
(0.0358011 -0.448916 0)
(0.0969735 -0.751975 0)
(0.18025 -1.07014 0)
(0.27959 -1.41194 0)
(0.390304 -1.78438 0)
(0.507773 -2.19338 0)
(0.626801 -2.64427 0)
(0.741288 -3.14228 0)
(0.844137 -3.69314 0)
(0.928049 -4.30403 0)
(0.987124 -4.98337 0)
(1.01956 -5.73854 0)
(1.02529 -6.5677 0)
(0.993792 -7.45756 0)
(0.906244 -8.40956 0)
(0.774414 -9.44111 0)
(0.549439 -10.5085 0)
(0.00144893 -0.162604 0)
(0.0210585 -0.485129 0)
(0.0566569 -0.808735 0)
(0.104729 -1.14424 0)
(0.16095 -1.50009 0)
(0.221345 -1.88243 0)
(0.281616 -2.29617 0)
(0.336616 -2.74492 0)
(0.380051 -3.2316 0)
(0.404142 -3.75995 0)
(0.401292 -4.33722 0)
(0.367682 -4.9755 0)
(0.309026 -5.68799 0)
(0.242471 -6.47229 0)
(0.15341 -7.30513 0)
(-0.0260292 -8.1833 0)
(-0.241451 -9.20928 0)
(-0.471873 -9.8153 0)
(0.000294365 -0.168894 0)
(0.00285681 -0.503415 0)
(0.00694328 -0.837087 0)
(0.0109987 -1.17999 0)
(0.0134588 -1.54012 0)
(0.0123763 -1.9223 0)
(0.0050526 -2.32969 0)
(-0.0115531 -2.76365 0)
(-0.0419779 -3.22383 0)
(-0.0937487 -3.71049 0)
(-0.173385 -4.23449 0)
(-0.279137 -4.83068 0)
(-0.403956 -5.54281 0)
(-0.538577 -6.35841 0)
(-0.790507 -7.1346 0)
(-0.925714 -7.60957 0)
(-1.26566 -8.23014 0)
(-1.88712 -9.08295 0)
(-0.00134343 -0.164004 0)
(-0.0188458 -0.488745 0)
(-0.051387 -0.812559 0)
(-0.0986002 -1.1449 0)
(-0.158094 -1.49208 0)
(-0.227986 -1.85939 0)
(-0.307946 -2.24909 0)
(-0.396143 -2.66128 0)
(-0.490664 -3.0926 0)
(-0.598824 -3.53764 0)
(-0.742596 -4.02946 0)
(-0.892675 -4.5976 0)
(-1.02928 -5.09678 0)
(-1.34449 -5.65556 0)
(-1.84037 -6.29404 0)
(-2.28479 -6.80269 0)
(-2.86369 -7.05446 0)
(-3.43573 -7.33321 0)
(-0.00242127 -0.146498 0)
(-0.0373237 -0.436979 0)
(-0.102129 -0.728293 0)
(-0.192144 -1.02976 0)
(-0.303488 -1.34781 0)
(-0.433566 -1.68797 0)
(-0.578867 -2.05413 0)
(-0.734028 -2.44798 0)
(-0.889798 -2.86522 0)
(-1.05916 -3.28802 0)
(-1.20053 -3.66115 0)
(-1.43253 -4.11163 0)
(-1.85464 -4.50079 0)
(-2.33795 -4.75606 0)
(-2.85018 -5.04512 0)
(-3.40355 -5.32654 0)
(-3.9645 -5.57241 0)
(-4.5225 -5.80092 0)
(-0.00332178 -0.124068 0)
(-0.0504507 -0.373518 0)
(-0.136273 -0.627571 0)
(-0.254824 -0.894145 0)
(-0.401115 -1.17971 0)
(-0.572718 -1.48833 0)
(-0.767618 -1.82468 0)
(-0.981724 -2.19293 0)
(-1.22433 -2.59319 0)
(-1.51605 -3.00913 0)
(-1.71114 -3.29125 0)
(-2.03105 -3.43406 0)
(-2.51937 -3.62591 0)
(-2.97596 -3.81756 0)
(-3.43915 -4.12704 0)
(-3.95827 -4.40248 0)
(-4.48362 -4.6152 0)
(-5.01372 -4.7863 0)
(-0.00407486 -0.0998662 0)
(-0.0589881 -0.306045 0)
(-0.156755 -0.521964 0)
(-0.291146 -0.75276 0)
(-0.457961 -1.00203 0)
(-0.656575 -1.27257 0)
(-0.888839 -1.56787 0)
(-1.15653 -1.89134 0)
(-1.46899 -2.24415 0)
(-1.83775 -2.60018 0)
(-2.2181 -2.88293 0)
(-2.63961 -2.96766 0)
(-3.03607 -3.09184 0)
(-3.32099 -3.1824 0)
(-3.70565 -3.29222 0)
(-4.26391 -3.48091 0)
(-4.80143 -3.64385 0)
(-5.3392 -3.7789 0)
(-0.00446673 -0.0762969 0)
(-0.0616271 -0.242246 0)
(-0.162288 -0.42311 0)
(-0.301892 -0.619698 0)
(-0.47798 -0.83268 0)
(-0.69127 -1.06321 0)
(-0.944277 -1.3127 0)
(-1.24055 -1.58121 0)
(-1.58541 -1.8662 0)
(-1.98755 -2.14698 0)
(-2.42806 -2.37302 0)
(-2.86901 -2.5272 0)
(-3.29681 -2.6843 0)
(-3.70624 -2.81014 0)
(-4.15951 -2.78537 0)
(-4.61083 -2.8203 0)
(-5.07617 -2.90649 0)
(-5.56042 -3.00671 0)
(-0.00401314 -0.0555814 0)
(-0.0578844 -0.187308 0)
(-0.155164 -0.337175 0)
(-0.294254 -0.50174 0)
(-0.474093 -0.679821 0)
(-0.695681 -0.871406 0)
(-0.960956 -1.07658 0)
(-1.27228 -1.29382 0)
(-1.6328 -1.51898 0)
(-2.04543 -1.73916 0)
(-2.49723 -1.92098 0)
(-2.9577 -2.05492 0)
(-3.41829 -2.17712 0)
(-3.88106 -2.26547 0)
(-4.32987 -2.29819 0)
(-4.75389 -2.34086 0)
(-5.18086 -2.40561 0)
(-5.62403 -2.47906 0)
(-0.00212207 -0.0391424 0)
(-0.049462 -0.143025 0)
(-0.141249 -0.265186 0)
(-0.278537 -0.399562 0)
(-0.46093 -0.544442 0)
(-0.688838 -0.699413 0)
(-0.963098 -0.863927 0)
(-1.28457 -1.03572 0)
(-1.65394 -1.21086 0)
(-2.07173 -1.38084 0)
(-2.52749 -1.52647 0)
(-2.99875 -1.63904 0)
(-3.47555 -1.73603 0)
(-3.95584 -1.80502 0)
(-4.42036 -1.83589 0)
(-4.8597 -1.86401 0)
(-5.28871 -1.90174 0)
(-5.72322 -1.94785 0)
(0.00157766 -0.0294525 0)
(-0.0402207 -0.108658 0)
(-0.127633 -0.205093 0)
(-0.264322 -0.310928 0)
(-0.450022 -0.424629 0)
(-0.684146 -0.545861 0)
(-0.966402 -0.673774 0)
(-1.29631 -0.806067 0)
(-1.67254 -0.939023 0)
(-2.0936 -1.06742 0)
(-2.55134 -1.17965 0)
(-3.02841 -1.26923 0)
(-3.51435 -1.34468 0)
(-4.00496 -1.40169 0)
(-4.48527 -1.43394 0)
(-4.94609 -1.46012 0)
(-5.39047 -1.48603 0)
(-5.83401 -1.51661 0)
(0.00442347 -0.0216863 0)
(-0.0343978 -0.0809817 0)
(-0.120272 -0.153426 0)
(-0.258243 -0.232446 0)
(-0.448222 -0.317179 0)
(-0.688702 -0.40767 0)
(-0.978443 -0.502817 0)
(-1.31599 -0.600868 0)
(-1.69854 -0.698256 0)
(-2.12265 -0.791757 0)
(-2.58146 -0.87441 0)
(-3.0619 -0.941758 0)
(-3.55239 -0.997777 0)
(-4.04877 -1.04167 0)
(-4.54014 -1.06928 0)
(-5.01918 -1.09491 0)
(-5.47981 -1.11475 0)
(-5.93812 -1.13312 0)
(0.00533706 -0.0158807 0)
(-0.0349037 -0.0567775 0)
(-0.122481 -0.106101 0)
(-0.262784 -0.159926 0)
(-0.456639 -0.217784 0)
(-0.702287 -0.280079 0)
(-0.997963 -0.345591 0)
(-1.34168 -0.413354 0)
(-1.72999 -0.480185 0)
(-2.15839 -0.544134 0)
(-2.61955 -0.600736 0)
(-3.10465 -0.647704 0)
(-3.60022 -0.686167 0)
(-4.10395 -0.716687 0)
(-4.60488 -0.737521 0)
(-5.10156 -0.755417 0)
(-5.58046 -0.769317 0)
(-6.05925 -0.78471 0)
(0.00292505 -0.0111615 0)
(-0.0403642 -0.0337607 0)
(-0.128057 -0.0614304 0)
(-0.267492 -0.0928084 0)
(-0.461843 -0.127202 0)
(-0.710699 -0.164764 0)
(-1.015 -0.204469 0)
(-1.37143 -0.245548 0)
(-1.77762 -0.285756 0)
(-2.22918 -0.324246 0)
(-2.71767 -0.357642 0)
(-3.23601 -0.38542 0)
(-3.76795 -0.40705 0)
(-4.31737 -0.425471 0)
(-4.86093 -0.431277 0)
(-5.37537 -0.449764 0)
(-5.96971 -0.452922 0)
(-6.47185 -0.450333 0)
(-0.00344216 -0.00396158 0)
(-0.0656656 -0.0111341 0)
(-0.1869 -0.0202016 0)
(-0.374396 -0.0317581 0)
(-0.631321 -0.0448259 0)
(-0.958953 -0.0596107 0)
(-1.35156 -0.0750284 0)
(-1.81028 -0.0914043 0)
(-2.32588 -0.10717 0)
(-2.89267 -0.121008 0)
(-3.496 -0.134167 0)
(-4.12503 -0.143964 0)
(-4.76363 -0.149402 0)
(-5.40212 -0.15527 0)
(-6.02205 -0.1629 0)
(-6.67337 -0.149616 0)
(-7.19365 -0.150296 0)
(-7.81126 -0.167894 0)
(-6.35581 11.5027 4.71505e-19)
(-13.325 6.32841 -4.69518e-19)
(-15.3111 2.83295 0)
(-15.781 1.65757 0)
(-15.2232 0.666969 0)
(-14.0075 -0.29971 4.83937e-19)
(-12.5934 -0.48639 0)
(-11.508 -0.019753 0)
(-11.1621 0.821282 0)
(-11.7884 1.80586 0)
(-13.5315 2.77277 -5.12651e-19)
(-16.4526 3.78444 0)
(-20.6107 4.66363 0)
(-25.9571 5.32176 0)
(-32.3864 6.0738 0)
(-39.8943 7.01765 -5.43529e-19)
(-48.0383 7.76322 0)
(-56.7816 8.25891 0)
(-65.8029 8.47401 0)
(-74.8148 8.12001 0)
(-83.0805 7.28675 0)
(-89.8673 6.1258 0)
(-94.1896 3.81394 0)
(-95.2837 0.746865 -4.6593e-19)
(-92.5681 -3.25779 4.2131e-19)
(-85.9227 -7.78285 -3.68179e-19)
(-75.4233 -12.2325 -3.12006e-19)
(-60.9416 -16.6658 0)
(-42.6086 -20.6111 0)
(-20.8611 -23.5334 1.67951e-19)
(2.66428 -22.7992 1.36805e-19)
(26.8198 -19.4008 0)
(43.8436 -10.9739 0)
(56.8537 1.46261 1.22197e-19)
(53.981 12.9275 0)
(59.9268 17.4696 0)
(68.7722 12.6649 -1.87681e-19)
(74.9173 -42.8967 0)
(108.681 -44.7424 -1.38341e-19)
(147.453 -16.2221 -3.41184e-19)
(150.747 -9.56818 0)
(162.696 -8.08069 0)
(168.456 -4.39698 0)
(173.077 -3.00329 0)
(175.753 -1.11917 0)
(176.728 -0.112964 -8.79854e-19)
(176.702 0.950099 -9.14245e-19)
(175.348 1.65285 -9.30186e-19)
(173.277 2.31983 0)
(170.209 2.88305 9.12879e-19)
(166.491 3.45041 0)
(161.945 4.01455 -8.37648e-19)
(156.728 4.62356 -7.80835e-19)
(150.731 5.17746 0)
(144.099 5.66168 0)
(136.817 6.15686 0)
(128.928 6.55388 -4.55247e-19)
(120.513 6.80151 0)
(111.718 6.85651 0)
(102.756 6.76767 0)
(93.3926 6.30661 0)
(83.3385 5.8889 0)
(73.5926 6.53829 0)
(64.7986 6.36456 0)
(55.8936 6.23962 0)
(46.9168 6.07271 -5.33061e-19)
(38.389 5.84843 0)
(29.9147 5.66227 0)
(21.8366 5.42061 8.12901e-19)
(13.9442 5.21178 8.93259e-19)
(6.51077 4.90016 0)
(-0.528348 4.60757 -1.03067e-18)
(-7.19041 4.32359 1.08684e-18)
(-13.4562 4.06619 0)
(-19.3258 3.8523 -1.17581e-18)
(-24.8488 3.67904 0)
(-30.0581 3.51376 0)
(-34.971 3.37398 1.26605e-18)
(-39.6578 3.27442 0)
(-44.1238 3.20396 -1.30259e-18)
(-48.4466 3.20017 0)
(-52.7056 3.23398 1.32747e-18)
(-56.9576 3.30446 1.33686e-18)
(-61.2578 3.44803 1.34726e-18)
(-65.7594 3.66695 2.71575e-18)
(-70.4688 3.91966 -2.73811e-18)
(-75.543 4.2628 0)
(-81.0519 4.66613 0)
(-87.097 5.12821 0)
(-93.7897 5.666 -2.89994e-18)
(-101.245 6.26682 -2.96393e-18)
(-109.574 6.93531 3.0414e-18)
(-118.928 7.69197 0)
(-129.375 8.46396 -3.23686e-18)
(-140.833 9.16679 -3.34906e-18)
(-153.482 9.96034 -3.46607e-18)
(-167.458 10.8275 0)
(-182.849 11.6257 0)
(-199.603 12.3089 0)
(-217.724 12.8068 -3.97231e-18)
(-236.935 12.9616 0)
(-257.135 13.0021 0)
(-278.281 12.6825 4.21672e-18)
(-299.127 10.5188 0)
(-320.31 10.5294 0)
(-341.939 11.4471 3.9939e-18)
(-360.52 8.51092 0)
(-376.335 6.97733 0)
(-388.111 4.35593 -3.13716e-18)
(-395.323 0.884789 -2.28639e-18)
(-397.018 -2.52427 0)
(-392.723 -5.9325 1.0638e-18)
(-381.764 -9.57 0)
(-366.088 -6.74234 -2.62506e-19)
(-348.759 -7.25851 0)
(-329.962 -12.659 2.71426e-19)
(-306.54 -15.3984 4.71314e-19)
(-281.658 -16.1388 0)
(-256.447 -15.8595 0)
(-230.777 -14.7065 0)
(-204.981 -13.3551 0)
(-180.238 -12.3021 0)
(-156.971 -11.5463 0)
(-134.895 -10.7833 0)
(-114.005 -9.87784 4.91345e-19)
(-94.4745 -9.11303 -4.14403e-19)
(-76.0605 -8.51567 0)
(-58.801 -7.57907 0)
(-43.3413 -6.82891 0)
(-28.6721 -6.6727 0)
(-14.2232 -5.82363 -5.72745e-20)
(-2.17363 -5.63811 0)
(10.2785 -6.95448 -2.1135e-19)
(24.0708 -6.41309 3.02654e-19)
(38.8826 -6.9782 0)
(54.1115 -7.69097 0)
(70.3465 -8.35689 0)
(87.6203 -8.73764 -5.62084e-19)
(105.505 -8.53271 -6.04382e-19)
(123.088 -7.52879 0)
(138.873 -5.396 -6.39947e-19)
(150.71 -1.80672 -6.38392e-19)
(156.196 2.73646 6.26029e-19)
(154.176 6.83342 0)
(145.38 9.6124 0)
(131.096 11.3045 5.55817e-19)
(112.401 12.0423 0)
(91.1318 11.468 0)
(69.7983 9.72509 0)
(50.161 7.59218 0)
(32.8991 5.64724 -3.85543e-19)
(18.0837 4.05465 -3.33691e-19)
(5.37676 2.81799 0)
(-5.70866 1.85681 -2.43087e-19)
(-15.7018 1.09061 0)
(-25.1676 0.500115 0)
(-34.6349 0.280884 -1.7048e-19)
(-44.7149 0.679966 0)
(-56.9135 1.55583 -1.90274e-19)
(-70.1453 1.60584 0)
(-82.0253 0.549023 0)
(-90.1477 -1.46745 -2.36102e-19)
(-92.5402 -4.09307 0)
(-88.0072 -6.67996 -2.17516e-19)
(-76.7792 -8.12365 0)
(-61.1568 -7.43571 0)
(-45.4478 -4.83407 0)
(-32.3679 -2.05835 1.14301e-19)
(-22.454 0.229228 0)
(-15.8559 1.78539 -6.87715e-20)
(-12.4552 2.56872 0)
(-11.5824 2.78745 0)
(-12.8764 2.61977 0)
(-15.3083 2.20204 0)
(-18.6255 1.59898 0)
(-21.6169 1.00714 0)
(-24.8263 0.432326 0)
(-26.7329 -0.0273123 1.81337e-19)
(-28.6805 -0.625814 0)
(-28.2131 -1.07961 0)
(-5.11207 30.9421 -1.3897e-18)
(-9.19357 13.7342 1.39227e-18)
(-9.01894 2.78048 0)
(-6.99838 -1.6602 -9.16165e-19)
(-4.20424 -4.32144 0)
(-1.83553 -5.16836 -4.97666e-19)
(-0.0614625 -4.54881 1.01442e-18)
(1.27645 -2.80981 1.04113e-18)
(1.82415 -0.239556 0)
(1.44849 2.90861 1.09133e-18)
(-0.0636628 6.43351 5.6093e-19)
(-2.96393 10.1985 0)
(-7.35087 14.0807 0)
(-13.7039 17.7042 0)
(-21.9161 20.6352 0)
(-31.0575 22.6548 5.30378e-19)
(-41.3065 24.2167 0)
(-52.7514 25.9248 -1.04516e-18)
(-63.8765 26.1795 0)
(-74.3469 24.2344 0)
(-82.247 20.0891 1.03396e-18)
(-87.7525 13.8082 0)
(-90.7184 5.90561 -9.31215e-19)
(-90.1588 -3.54154 3.85599e-19)
(-86.0403 -14.0054 -3.49296e-19)
(-78.021 -22.9547 3.17149e-19)
(-66.8101 -32.0388 2.77165e-19)
(-52.1719 -41.1833 0)
(-33.967 -49.9233 0)
(-12.1164 -57.1939 -1.5431e-19)
(14.1958 -62.4374 1.10311e-19)
(44.6173 -58.9984 0)
(72.3797 -46.1344 0)
(87.3445 -30.6526 -1.3148e-19)
(102.796 -25.2514 0)
(133.562 -49.7262 0)
(158.187 -54.2874 1.17553e-19)
(152.758 -44.7596 0)
(155.647 -36.1325 -2.03437e-19)
(163.743 -24.8372 2.87213e-19)
(163.194 -18.8355 0)
(166.63 -13.6383 0)
(165.974 -8.84664 1.34368e-18)
(166.121 -5.26992 1.4653e-18)
(164.994 -2.16818 1.55751e-18)
(163.73 0.285195 -8.55756e-19)
(161.9 2.40089 7.81769e-19)
(159.645 4.22041 2.42669e-18)
(156.909 5.84753 -1.61045e-18)
(153.65 7.34855 -7.51742e-19)
(149.883 8.75527 0)
(145.584 10.1035 6.67051e-19)
(140.788 11.3976 -6.5639e-19)
(135.474 12.643 0)
(129.691 13.7956 0)
(123.471 14.8191 0)
(116.825 15.7266 3.20242e-19)
(109.858 16.4408 0)
(102.53 16.9163 -2.80301e-19)
(94.7235 17.406 0)
(87.0246 17.2524 5.23573e-20)
(79.2972 17.058 0)
(71.2577 17.4791 -4.28028e-19)
(62.1136 17.2754 0)
(53.2516 16.9984 8.07562e-19)
(44.5911 16.5478 -4.81694e-19)
(36.1228 15.9415 0)
(27.99 15.3556 -1.31092e-18)
(20.0833 14.7133 -7.30873e-19)
(12.4598 13.9657 -7.98609e-19)
(5.20771 13.1031 0)
(-1.64402 12.2627 -9.19448e-19)
(-8.11217 11.4739 -9.64068e-19)
(-14.1228 10.6682 0)
(-19.7509 9.91646 1.03748e-18)
(-25.0164 9.23288 -2.13573e-18)
(-29.9335 8.61246 0)
(-34.5371 8.04409 -1.11673e-18)
(-38.853 7.57073 0)
(-42.9289 7.182 3.44662e-18)
(-46.8326 6.87949 0)
(-50.6125 6.7152 -3.51289e-18)
(-54.3358 6.69475 -1.18274e-18)
(-58.0999 6.74839 1.17903e-18)
(-61.969 6.97034 2.37268e-18)
(-66.0003 7.33881 -2.38624e-18)
(-70.3306 7.80738 0)
(-74.9994 8.4438 0)
(-80.1249 9.20995 0)
(-85.8035 10.1137 7.69288e-18)
(-92.141 11.1546 2.65182e-18)
(-99.2636 12.3288 -2.72707e-18)
(-107.332 13.6107 0)
(-116.394 14.9058 -2.80809e-18)
(-126.35 16.1429 3.02e-18)
(-138.001 17.9182 3.13392e-18)
(-150.829 19.7337 0)
(-165.164 21.4833 0)
(-180.882 23.1831 0)
(-198.026 24.7524 3.65794e-18)
(-216.553 26.1244 0)
(-236.289 27.2372 -7.66297e-18)
(-256.916 28.0357 -1.18004e-17)
(-278.22 28.5536 7.86297e-18)
(-299.737 28.8098 0)
(-319.535 27.0282 3.68712e-18)
(-339.059 23.3322 0)
(-356.402 18.2105 6.82779e-18)
(-368.451 12.5131 -2.93238e-18)
(-375.652 5.62422 -2.33875e-18)
(-377.361 -2.33774 0)
(-372.783 -9.72641 -3.31044e-18)
(-363.561 -15.8477 1.31724e-18)
(-350.609 -20.9572 3.02685e-19)
(-333.321 -23.3548 0)
(-312.161 -25.507 -2.47315e-19)
(-289.705 -27.2935 -1.26183e-18)
(-266.072 -27.5055 0)
(-239.974 -28.8819 -1.18357e-18)
(-213.671 -30.5645 -1.14276e-18)
(-188.975 -29.4116 -1.11025e-18)
(-165.535 -27.2813 0)
(-143.372 -25.5318 0)
(-122.38 -24.0285 0)
(-102.578 -22.4719 3.24914e-19)
(-83.9953 -20.8764 3.28459e-19)
(-66.778 -19.3223 0)
(-51.0472 -17.6904 3.10637e-19)
(-36.4156 -16.1825 1.6503e-19)
(-23.0101 -15.0708 0)
(-11.3007 -13.8609 -5.76738e-20)
(0.318883 -13.1774 -2.79116e-19)
(10.5904 -13.6298 3.17182e-19)
(18.6029 -12.946 3.93278e-19)
(25.6652 -13.1201 0)
(32.8552 -13.5495 0)
(40.0321 -14.1592 0)
(47.3749 -14.8028 6.39861e-19)
(55.3693 -15.1853 -6.96364e-19)
(64.4509 -14.8307 -1.4085e-18)
(74.6944 -13.197 6.90197e-19)
(86.0834 -10.1478 -7.21425e-19)
(98.9559 -6.01578 -6.68724e-19)
(112.982 -1.15847 0)
(126.244 3.97216 0)
(136.959 8.53296 6.13141e-19)
(144.955 11.8685 0)
(149.998 13.9335 0)
(150.931 14.8005 -9.86166e-19)
(147.269 14.5221 0)
(139.848 13.5113 -3.64394e-19)
(129.63 12.323 2.98961e-19)
(117.182 11.2638 0)
(102.869 10.5103 -1.47291e-19)
(86.7218 10.2388 0)
(68.3353 10.5156 0)
(47.0994 11.2286 5.85618e-20)
(23.1142 12.1443 -7.50548e-20)
(-1.02353 12.8838 6.60558e-20)
(-24.0071 12.3376 0)
(-45.4832 10.2747 0)
(-64.5751 6.83982 -1.07073e-19)
(-80.6011 2.54081 0)
(-93.3892 -1.89696 -1.98773e-19)
(-103.074 -5.78189 0)
(-108.864 -8.467 0)
(-108.022 -9.52474 0)
(-99.6641 -9.564 -1.9011e-19)
(-85.773 -8.64461 0)
(-69.0243 -6.94555 1.3284e-19)
(-51.9274 -4.90565 0)
(-36.504 -2.79356 0)
(-24.1656 -0.975096 -1.02691e-19)
(-15.433 0.430399 8.61111e-20)
(-10.6865 1.36398 0)
(-9.2495 1.88116 0)
(-10.8361 2.00667 0)
(-13.8727 1.79731 -3.56747e-19)
(-18.6167 1.35196 0)
(-23.5472 0.180494 4.76255e-19)
(-3.12794 43.41 2.53766e-20)
(-3.62274 13.4877 -1.81268e-18)
(-0.979398 -2.29824 0)
(3.08981 -7.84073 1.76707e-18)
(6.27859 -9.8862 0)
(8.42595 -9.24829 0)
(10.3577 -7.00587 -2.15698e-20)
(11.5473 -3.69048 -1.04878e-18)
(11.9227 0.53594 -1.06653e-18)
(11.3295 5.63783 -1.10713e-18)
(9.42785 11.5791 0)
(5.87448 18.2368 0)
(0.435098 25.3027 1.21652e-18)
(-7.0851 32.3732 2.53486e-18)
(-16.4569 38.8137 -2.66578e-18)
(-28.5207 44.2833 0)
(-43.2337 48.0775 -1.98635e-18)
(-56.9231 48.5695 8.70006e-19)
(-69.4176 46.4605 0)
(-80.5499 41.1191 -2.29274e-18)
(-89.6794 32.4609 -1.02731e-18)
(-95.5711 20.4858 2.38169e-18)
(-97.4011 6.06046 9.57054e-19)
(-94.4553 -9.72991 0)
(-88.4378 -25.5737 -1.93429e-18)
(-78.0979 -41.4358 -1.93172e-18)
(-61.7403 -57.4559 0)
(-42.3846 -72.5875 -1.57857e-18)
(-19.5392 -86.7352 0)
(7.49261 -100.639 -8.79016e-19)
(36.6504 -112.905 -2.76022e-19)
(61.1667 -119.818 0)
(81.8704 -85.2448 0)
(98.2446 -51.8667 0)
(115.512 -53.1154 0)
(133.172 -58.4339 0)
(141.545 -54.0231 0)
(144.192 -46.8846 -7.32629e-19)
(144.572 -38.938 1.17414e-18)
(146.456 -28.7337 0)
(146.835 -21.2051 0)
(149.112 -14.6742 0)
(150.011 -9.28311 1.80387e-19)
(151.431 -4.97052 -1.25644e-18)
(152.114 -1.25846 -2.76363e-18)
(152.52 1.89206 2.8247e-18)
(152.292 4.7014 1.46852e-18)
(151.494 7.25502 -1.37755e-18)
(150.028 9.63196 -7.46223e-20)
(147.87 11.8957 -1.3911e-18)
(145.011 14.0694 0)
(141.431 16.1368 -1.26072e-18)
(137.16 18.1249 -6.07738e-20)
(132.207 20.014 0)
(126.622 21.7425 0)
(120.402 23.2925 8.30866e-19)
(113.61 24.7025 0)
(106.252 25.8802 0)
(98.4203 26.7773 -4.20549e-19)
(90.1493 27.3945 -4.69161e-19)
(81.4833 27.8526 -1.11156e-20)
(73.1207 28.5177 0)
(64.2214 28.4173 3.63161e-19)
(55.2881 28.2274 0)
(46.3962 27.718 6.75047e-19)
(37.6516 26.9103 8.36785e-19)
(29.2466 25.8291 -1.97951e-18)
(21.2024 24.6642 -1.13875e-18)
(13.4466 23.458 0)
(6.09292 22.1385 2.79105e-18)
(-0.830358 20.7432 0)
(-7.46516 19.3543 4.82361e-18)
(-13.4097 18.0117 3.25341e-18)
(-19.4642 16.9466 3.41298e-18)
(-25.0371 15.8359 -3.55918e-18)
(-30.2669 14.7375 5.51791e-18)
(-35.1373 13.708 0)
(-39.6421 12.779 0)
(-43.827 11.9834 -3.95235e-18)
(-47.7568 11.3461 -6.01471e-18)
(-51.4759 10.8763 0)
(-55.043 10.5951 2.05482e-18)
(-58.5349 10.5254 0)
(-62.0397 10.6633 -6.27464e-18)
(-65.576 10.998 -3.12907e-20)
(-69.3083 11.5709 4.01524e-20)
(-73.2326 12.3522 4.31013e-18)
(-77.4801 13.3634 0)
(-82.1152 14.6101 -4.45251e-18)
(-87.2309 16.1001 -7.7283e-20)
(-92.9217 17.8431 0)
(-99.2964 19.8602 0)
(-106.412 22.2465 0)
(-114.303 25.0868 5.30073e-18)
(-123.51 27.5607 0)
(-134.003 29.9182 0)
(-145.356 32.8641 0)
(-157.883 35.7935 0)
(-171.665 38.6333 0)
(-186.723 41.2658 6.85381e-18)
(-203.079 43.5557 0)
(-220.589 45.3021 7.62124e-18)
(-239.124 46.3416 7.86537e-18)
(-258.426 46.3973 -7.95484e-18)
(-277.752 45.4143 0)
(-296.286 43.0058 -7.69155e-18)
(-313.109 38.6891 0)
(-326.621 30.7616 -6.91029e-18)
(-336.449 20.4214 5.64917e-18)
(-341.288 8.90355 1.31288e-17)
(-341.256 -3.14573 0)
(-336.55 -15.091 7.17803e-18)
(-327.76 -24.5893 1.52187e-18)
(-314.306 -31.5964 0)
(-296.301 -37.4303 -1.43441e-19)
(-275.404 -42.3243 -1.2954e-18)
(-253.733 -46.273 3.45132e-18)
(-229.789 -48.8643 0)
(-203.94 -49.0383 1.51578e-18)
(-180.434 -47.7413 1.3778e-18)
(-157.326 -46.9199 3.84039e-18)
(-135.315 -44.3547 0)
(-115.232 -41.3153 0)
(-96.2091 -38.6977 0)
(-78.2772 -36.1114 6.3962e-19)
(-61.6138 -33.4473 0)
(-46.3259 -30.7643 0)
(-32.4357 -28.098 -3.17608e-19)
(-19.7296 -25.6286 -1.65688e-19)
(-8.22748 -23.4224 0)
(1.94226 -21.5401 0)
(11.3376 -19.9235 3.35332e-19)
(20.087 -18.3126 0)
(27.5214 -17.9495 -8.9197e-19)
(33.9285 -17.4803 -9.71544e-19)
(39.8207 -17.4848 0)
(45.0737 -17.8694 0)
(49.9235 -18.4935 1.38682e-18)
(54.7121 -19.0869 -1.74039e-20)
(59.7542 -19.1865 -2.04878e-20)
(65.4507 -18.3227 0)
(72.4013 -16.3364 3.12429e-18)
(81.2342 -13.3195 0)
(92.1511 -9.36575 0)
(104.707 -4.71998 0)
(117.994 0.0763112 -1.21787e-18)
(130.894 4.48835 0)
(142.348 8.26954 2.09875e-18)
(151.378 11.4018 9.13554e-19)
(156.845 13.8544 0)
(157.838 15.5752 5.54523e-19)
(154.374 16.7438 0)
(146.919 17.7244 0)
(135.601 18.7763 -1.79011e-19)
(120.613 20.1844 4.2563e-19)
(102.164 22.1427 0)
(80.6784 24.4073 7.67793e-19)
(57.0178 26.2095 -4.21425e-19)
(32.1345 26.6668 0)
(6.85182 25.5026 0)
(-17.8613 22.4988 0)
(-41.2274 17.7988 -4.7284e-19)
(-62.3711 11.9566 0)
(-80.3857 5.74605 1.7293e-19)
(-94.1632 -0.162378 0)
(-102.432 -5.48181 0)
(-104.48 -10.0705 0)
(-100.423 -13.3243 0)
(-91.1436 -14.9502 0)
(-78.0093 -14.8018 0)
(-62.7068 -13.047 8.48434e-19)
(-47.2313 -10.369 0)
(-33.4048 -7.22691 2.16404e-19)
(-22.3925 -4.07006 -4.51128e-19)
(-14.8655 -1.25509 0)
(-10.929 0.996177 0)
(-10.4234 2.56582 -2.72022e-20)
(-12.4729 3.30765 -1.1208e-20)
(-16.5209 3.56088 -2.56486e-20)
(-21.7666 2.52146 -1.9865e-19)
(-1.04095 47.5503 2.5709e-18)
(1.78653 6.55482 2.5712e-18)
(6.37408 -10.8989 1.60256e-18)
(11.2906 -15.7358 7.5124e-19)
(14.9548 -15.9897 0)
(17.6166 -13.9549 -1.84355e-18)
(20.208 -10.4288 9.11219e-19)
(22.1322 -5.6727 0)
(23.1395 0.466315 1.04506e-18)
(22.8358 8.18341 0)
(20.7281 17.4856 -2.23727e-18)
(16.4014 28.0954 0)
(9.53149 39.502 -1.21595e-18)
(0.051475 51.1911 -2.52666e-18)
(-11.7727 62.768 2.61666e-18)
(-27.0673 72.1732 0)
(-41.8512 76.3385 2.33989e-18)
(-55.7445 76.0643 0)
(-70.2651 70.7495 0)
(-83.4154 60.8101 2.46006e-18)
(-94.0632 46.247 0)
(-100.927 27.2669 3.95006e-19)
(-102.924 4.72917 0)
(-99.1518 -19.5885 0)
(-89.4074 -44.2146 -5.3207e-19)
(-74.3017 -69.3514 2.09852e-18)
(-53.5713 -92.8127 2.34443e-18)
(-28.5835 -114.309 1.58173e-18)
(0.216135 -134.913 0)
(30.5382 -152.561 2.25256e-18)
(52.2412 -156.843 0)
(64.7027 -124.761 7.74628e-19)
(69.4076 -86.8502 0)
(84.8792 -74.8482 0)
(107.34 -78.9774 -5.99167e-19)
(117.906 -72.594 0)
(123.606 -61.1027 8.59663e-19)
(128.075 -51.2386 -3.41795e-19)
(130.872 -41.4915 -1.88211e-18)
(134.129 -32.0173 2.36825e-18)
(136.576 -24.3773 0)
(139.371 -17.7482 0)
(141.42 -11.9832 1.54849e-18)
(143.335 -7.08364 0)
(144.595 -2.65613 1.30159e-18)
(145.322 1.32906 -1.34407e-18)
(145.364 5.05989 -1.37099e-18)
(144.705 8.58475 0)
(143.302 11.9732 1.38012e-18)
(141.119 15.2793 1.36519e-18)
(138.191 18.4707 -2.83484e-18)
(134.501 21.5632 1.26998e-18)
(130.036 24.5457 1.19969e-18)
(124.847 27.3793 0)
(118.97 29.9935 0)
(112.431 32.3879 -8.94648e-19)
(105.266 34.5481 0)
(97.5076 36.3942 0)
(89.1375 37.9266 9.5412e-19)
(80.3681 39.2123 6.39738e-19)
(71.9888 40.182 0)
(63.2489 40.2157 0)
(53.7583 40.0087 0)
(44.5173 39.5627 0)
(35.3059 38.7777 -1.10904e-18)
(26.1831 37.5038 1.43028e-18)
(17.4621 35.7816 1.73371e-18)
(8.98363 34.0879 4.07585e-18)
(1.26864 32.5095 0)
(-6.73476 31.258 1.93689e-20)
(-14.3161 29.7009 0)
(-21.5189 28.233 -2.7815e-18)
(-28.4058 26.1036 1.66978e-20)
(-34.9345 23.7758 -2.47251e-18)
(-40.6931 22.1642 2.67834e-18)
(-45.9756 20.4956 3.92394e-20)
(-50.7712 18.947 0)
(-55.1337 17.56 3.19738e-18)
(-59.1197 16.376 3.29282e-18)
(-62.7929 15.4187 6.81715e-18)
(-66.2208 14.707 0)
(-69.474 14.2656 -3.57669e-18)
(-72.6196 14.1069 0)
(-75.7358 14.2321 7.44671e-18)
(-78.8934 14.6547 -3.81247e-18)
(-82.1728 15.3768 3.89212e-18)
(-85.6475 16.3939 -3.97842e-18)
(-89.3967 17.7175 -8.00869e-18)
(-93.4987 19.3519 4.1859e-18)
(-98.0373 21.3044 -4.31129e-18)
(-103.113 23.5815 0)
(-108.838 26.1823 9.02795e-18)
(-115.266 29.1369 0)
(-122.457 32.5368 9.79458e-18)
(-130.78 36.3525 -1.02305e-17)
(-139.435 40.089 -1.07438e-17)
(-148.976 43.9989 1.13193e-17)
(-159.367 47.9982 1.19292e-17)
(-170.702 51.9804 0)
(-183.036 55.7993 6.38154e-18)
(-196.379 59.2324 0)
(-210.636 62.0049 0)
(-225.67 63.8302 1.507e-17)
(-241.077 64.3574 0)
(-256.384 63.0191 0)