/*--------------------------------*- C++ -*----------------------------------*\
| =========                 |                                                 |
| \\      /  F ield         | OpenFOAM: The Open Source CFD Toolbox           |
|  \\    /   O peration     | Version:  2112                                  |
|   \\  /    A nd           | Website:  www.openfoam.com                      |
|    \\/     M anipulation  |                                                 |
\*---------------------------------------------------------------------------*/
FoamFile
{
    version     2.0;
    format      ascii;
    arch        "LSB;label=32;scalar=64";
    class       surfaceScalarField;
    location    "0.43";
    object      phi_0;
}
// * * * * * * * * * * * * * * * * * * * * * * * * * * * * * * * * * * * * * //

dimensions      [0 3 -1 0 0 0 0];

oriented        oriented;

internalField   nonuniform List<scalar> 
24170
(
3.13351e-06
1.48915e-07
3.00363e-06
1.29878e-07
2.90296e-06
1.00679e-07
2.82402e-06
7.89365e-08
2.7472e-06
7.68215e-08
2.66508e-06
8.21153e-08
2.58115e-06
8.39308e-08
2.49906e-06
8.20891e-08
2.41829e-06
8.07716e-08
2.33998e-06
7.8307e-08
2.26588e-06
7.41044e-08
2.19922e-06
6.66574e-08
2.1394e-06
5.98188e-08
2.08581e-06
5.35957e-08
2.03236e-06
5.34462e-08
1.97562e-06
5.67414e-08
1.92376e-06
5.18621e-08
6.07905e-08
1.86297e-06
3.47717e-06
-1.19215e-08
3.50126e-06
1.05791e-07
3.48195e-06
1.19989e-07
3.48926e-06
7.16245e-08
3.50621e-06
5.98727e-08
3.51178e-06
7.6545e-08
3.49738e-06
9.83238e-08
3.4705e-06
1.08969e-07
3.44423e-06
1.07049e-07
3.42625e-06
9.62834e-08
3.41569e-06
8.4663e-08
3.40622e-06
7.61245e-08
3.39152e-06
7.45254e-08
3.36964e-06
7.54718e-08
3.34264e-06
8.04435e-08
3.31589e-06
8.34916e-08
3.29042e-06
7.73324e-08
6.72924e-08
3.28392e-06
3.70919e-06
-6.91488e-09
3.68178e-06
1.33202e-07
3.66969e-06
1.32076e-07
3.66147e-06
7.98466e-08
3.66512e-06
5.62285e-08
3.68364e-06
5.80158e-08
3.70968e-06
7.22847e-08
3.73354e-06
8.5113e-08
3.75012e-06
9.04644e-08
3.75831e-06
8.80977e-08
3.75993e-06
8.30438e-08
3.75605e-06
8.0006e-08
3.74868e-06
8.18951e-08
3.73832e-06
8.58281e-08
3.72906e-06
8.97083e-08
3.72246e-06
9.00915e-08
3.71927e-06
8.05213e-08
6.66919e-08
3.71987e-06
3.93903e-06
3.48909e-08
3.90527e-06
1.66962e-07
3.90914e-06
1.28206e-07
3.92819e-06
6.07934e-08
3.93829e-06
4.61264e-08
3.93956e-06
5.67438e-08
3.94388e-06
6.79702e-08
3.95557e-06
7.34201e-08
3.97099e-06
7.50484e-08
3.98524e-06
7.38484e-08
3.99749e-06
7.07922e-08
4.00917e-06
6.83281e-08
4.02205e-06
6.90133e-08
4.036e-06
7.18805e-08
4.04977e-06
7.59311e-08
4.06167e-06
7.81907e-08
4.06769e-06
7.45034e-08
6.59272e-08
4.06846e-06
4.17576e-06
-2.23386e-08
4.18383e-06
1.58894e-07
4.17023e-06
1.41812e-07
4.16028e-06
7.07367e-08
4.15687e-06
4.95371e-08
4.16092e-06
5.26947e-08
4.17554e-06
5.33489e-08
4.19966e-06
4.93063e-08
4.22856e-06
4.61483e-08
4.25704e-06
4.53609e-08
4.28263e-06
4.52023e-08
4.30522e-06
4.5741e-08
4.32578e-06
4.84518e-08
4.34466e-06
5.30072e-08
4.36185e-06
5.87405e-08
4.37687e-06
6.31691e-08
4.38788e-06
6.3497e-08
6.02255e-08
4.39358e-06
4.43747e-06
6.39561e-08
4.39836e-06
1.98008e-07
4.43271e-06
1.07466e-07
4.45852e-06
4.49207e-08
4.45936e-06
4.87046e-08
4.44619e-06
6.58645e-08
4.43436e-06
6.51713e-08
4.43292e-06
5.07523e-08
4.44316e-06
3.59098e-08
4.4609e-06
2.7621e-08
4.48145e-06
2.46512e-08
4.50255e-06
2.46418e-08
4.52441e-06
2.65839e-08
4.54781e-06
2.96103e-08
4.57298e-06
3.35665e-08
4.59892e-06
3.7235e-08
4.62252e-06
3.98992e-08
4.1073e-08
4.64167e-06
4.80346e-06
6.00275e-08
4.92027e-06
8.12025e-08
4.91917e-06
1.08566e-07
4.87171e-06
9.23759e-08
4.84572e-06
7.46992e-08
4.85272e-06
5.88638e-08
4.87433e-06
4.35605e-08
4.89059e-06
3.44929e-08
4.89823e-06
2.82673e-08
4.90667e-06
1.91843e-08
4.9253e-06
6.02222e-09
4.95562e-06
-5.68638e-09
4.99186e-06
-9.65437e-09
5.02512e-06
-3.64607e-09
5.04784e-06
1.08436e-08
5.05787e-06
2.72088e-08
5.05543e-06
4.23345e-08
5.16166e-08
5.04489e-06
5.13998e-06
1.35937e-07
5.12168e-06
9.95026e-08
5.13854e-06
9.17069e-08
5.12498e-06
1.0593e-07
5.11697e-06
8.27169e-08
5.14121e-06
3.46193e-08
5.18825e-06
-3.4775e-09
5.23724e-06
-1.4495e-08
5.27528e-06
-9.777e-09
5.29952e-06
-5.05591e-09
5.31484e-06
-9.29933e-09
5.32822e-06
-1.9059e-08
5.34401e-06
-2.54474e-08
5.36164e-06
-2.12776e-08
5.37771e-06
-5.22951e-09
5.38814e-06
1.67819e-08
5.39017e-06
4.03093e-08
5.747e-08
5.38431e-06
5.47544e-06
2.01596e-07
5.48852e-06
8.6424e-08
5.50158e-06
7.86475e-08
5.52716e-06
8.03537e-08
5.55751e-06
5.23672e-08
5.59116e-06
9.68251e-10
5.63202e-06
-4.43363e-08
5.67204e-06
-5.45191e-08
5.69554e-06
-3.32753e-08
5.69397e-06
-3.4894e-09
5.67208e-06
1.25964e-08
5.64437e-06
8.64427e-09
5.62542e-06
-6.49529e-09
5.62311e-06
-1.89647e-08
5.63711e-06
-1.92336e-08
5.661e-06
-7.10434e-09
5.68854e-06
1.27667e-08
3.22824e-08
5.71373e-06
5.92767e-06
2.22914e-07
5.97217e-06
4.19209e-08
6.00683e-06
4.39868e-08
6.02803e-06
5.91619e-08
6.03364e-06
4.67556e-08
6.02963e-06
4.97571e-09
6.0225e-06
-3.7209e-08
6.01993e-06
-5.1948e-08
6.01975e-06
-3.30977e-08
6.01818e-06
-1.91301e-09
6.01363e-06
1.71417e-08
6.00732e-06
1.49533e-08
6.00258e-06
-1.74875e-09
6.00313e-06
-1.95223e-08
6.01257e-06
-2.86671e-08
6.03192e-06
-2.64596e-08
6.05969e-06
-1.50037e-08
4.44107e-10
6.09153e-06
6.44701e-06
1.96963e-07
6.44288e-06
4.60517e-08
6.4417e-06
4.51726e-08
6.43025e-06
7.06045e-08
6.41148e-06
6.55293e-08
6.38052e-06
3.59304e-08
6.34659e-06
-3.27916e-09
6.32559e-06
-3.0939e-08
6.32561e-06
-3.31176e-08
6.34573e-06
-2.20334e-08
6.37698e-06
-1.41086e-08
6.40835e-06
-1.64168e-08
6.432e-06
-2.54006e-08
6.4453e-06
-3.28286e-08
6.45081e-06
-3.41713e-08
6.45345e-06
-2.91034e-08
6.45757e-06
-1.9122e-08
-7.83203e-09
6.46585e-06
5.79719e-06
8.38115e-08
5.81228e-06
3.09675e-08
5.79885e-06
5.8596e-08
5.77168e-06
9.77766e-08
5.75458e-06
8.26293e-08
5.76497e-06
2.5543e-08
5.79583e-06
-3.4138e-08
5.82853e-06
-6.36477e-08
5.85387e-06
-5.84494e-08
5.87261e-06
-4.07775e-08
5.8881e-06
-2.9602e-08
5.9002e-06
-2.85156e-08
5.90576e-06
-3.096e-08
5.90225e-06
-2.9318e-08
5.89001e-06
-2.19316e-08
5.87198e-06
-1.10704e-08
5.85151e-06
1.35014e-09
9.44346e-09
5.83423e-06
7.01497e-06
1.06802e-07
7.02615e-06
1.97821e-08
7.06849e-06
1.62651e-08
7.11713e-06
4.91303e-08
7.13738e-06
6.23861e-08
7.13126e-06
3.16554e-08
7.11389e-06
-1.67621e-08
7.10115e-06
-5.09092e-08
7.1024e-06
-5.96982e-08
7.11677e-06
-5.51546e-08
7.13762e-06
-5.04457e-08
7.15744e-06
-4.83416e-08
7.1702e-06
-4.37206e-08
7.17292e-06
-3.20319e-08
7.16482e-06
-1.38311e-08
7.14933e-06
4.41856e-09
7.13152e-06
1.91592e-08
2.59629e-08
7.115e-06
8.69469e-06
8.96182e-08
8.58823e-06
1.26242e-07
8.54394e-06
6.05508e-08
8.5706e-06
2.24664e-08
8.62904e-06
3.94511e-09
8.66379e-06
-3.09106e-09
8.65056e-06
-3.53563e-09
8.6067e-06
-7.04735e-09
8.55981e-06
-1.28053e-08
8.52436e-06
-1.97039e-08
8.50009e-06
-2.61722e-08
8.48163e-06
-2.98856e-08
8.46804e-06
-3.01275e-08
8.46272e-06
-2.67186e-08
8.47017e-06
-2.12776e-08
8.48993e-06
-1.53389e-08
8.52011e-06
-1.10262e-08
-8.9316e-09
8.55501e-06
1.02364e-05
2.12319e-07
1.02121e-05
1.506e-07
1.02472e-05
2.54864e-08
1.03127e-05
-4.30748e-08
1.03773e-05
-6.06596e-08
1.041e-05
-3.57456e-08
1.04153e-05
-8.92035e-09
1.04123e-05
-3.98795e-09
1.04149e-05
-1.53762e-08
1.04246e-05
-2.94544e-08
1.04341e-05
-3.57049e-08
1.04367e-05
-3.24261e-08
1.04317e-05
-2.51986e-08
1.04241e-05
-1.9106e-08
1.04206e-05
-1.77247e-08
1.04251e-05
-1.98215e-08
1.04387e-05
-2.46584e-08
-3.03269e-08
1.04601e-05
1.31275e-05
1.97977e-07
1.29947e-05
2.83485e-07
1.28578e-05
1.623e-07
1.28163e-05
-1.55356e-09
1.28152e-05
-5.95521e-08
1.28196e-05
-4.01732e-08
1.2811e-05
-3.00969e-10
1.27947e-05
1.22925e-08
1.27885e-05
-9.16321e-09
1.27954e-05
-3.62946e-08
1.28091e-05
-4.94256e-08
1.28184e-05
-4.17626e-08
1.28138e-05
-2.06085e-08
1.27906e-05
4.11951e-09
1.27509e-05
2.19355e-08
1.27024e-05
2.87378e-08
1.26553e-05
2.23821e-08
5.41623e-09
1.26196e-05
1.53413e-05
1.42836e-07
1.5476e-05
1.48727e-07
1.55353e-05
1.03008e-07
1.55203e-05
1.34913e-08
1.55403e-05
-7.95605e-08
1.56014e-05
-1.01335e-07
1.56663e-05
-6.5129e-08
1.56926e-05
-1.4057e-08
1.56701e-05
1.33265e-08
1.56175e-05
1.63484e-08
1.55589e-05
9.20439e-09
1.55106e-05
6.4778e-09
1.54787e-05
1.13303e-08
1.5465e-05
1.77935e-08
1.54682e-05
1.87735e-08
1.54866e-05
1.0308e-08
1.55159e-05
-6.9244e-09
-2.82272e-08
1.55495e-05
1.93277e-05
2.60459e-08
1.92892e-05
1.8719e-07
1.92251e-05
1.67107e-07
1.91807e-05
5.79486e-08
1.91441e-05
-4.29598e-08
1.91153e-05
-7.25819e-08
1.90904e-05
-4.02022e-08
1.90606e-05
1.57988e-08
1.90278e-05
4.61056e-08
1.90022e-05
4.18987e-08
1.89907e-05
2.06857e-08
1.89972e-05
-1.11351e-11
1.90186e-05
-1.00129e-08
1.9047e-05
-1.05836e-08
1.90722e-05
-6.45201e-09
1.90852e-05
-2.67004e-09
1.90776e-05
6.4932e-10
2.7251e-09
1.90466e-05
2.27869e-05
-2.03328e-07
2.29494e-05
2.4713e-08
2.31028e-05
1.37368e-08
2.32268e-05
-6.60292e-08
2.32451e-05
-6.13368e-08
2.31709e-05
1.67685e-09
2.30722e-05
5.84308e-08
2.30147e-05
7.33711e-08
2.3012e-05
4.87992e-08
2.30471e-05
6.73017e-09
2.30972e-05
-2.93482e-08
2.31477e-05
-5.05162e-08
2.31902e-05
-5.25046e-08
2.32184e-05
-3.88169e-08
2.32277e-05
-1.57815e-08
2.32164e-05
8.67841e-09
2.31875e-05
2.95151e-08
4.20999e-08
2.31481e-05
1.67565e-05
7.85614e-08
1.67716e-05
9.56561e-09
1.68534e-05
-6.80128e-08
1.68303e-05
-4.29793e-08
1.67413e-05
2.77122e-08
1.66717e-05
7.12655e-08
1.66573e-05
7.28236e-08
1.66904e-05
4.02727e-08
1.67364e-05
2.75385e-09
1.67662e-05
-2.30462e-08
1.67689e-05
-3.20387e-08
1.67511e-05
-3.27006e-08
1.67289e-05
-3.02946e-08
1.67161e-05
-2.60757e-08
1.67204e-05
-2.00298e-08
1.67412e-05
-1.21083e-08
1.67738e-05
-3.10047e-09
5.20401e-09
1.68107e-05
1.48193e-05
1.56201e-07
1.47561e-05
7.27944e-08
1.46482e-05
3.98321e-08
1.45023e-05
1.02929e-07
1.4386e-05
1.44073e-07
1.43375e-05
1.19728e-07
1.43756e-05
3.47703e-08
1.44802e-05
-6.43899e-08
1.46178e-05
-1.34835e-07
1.47411e-05
-1.4635e-07
1.48173e-05
-1.08272e-07
1.4837e-05
-5.23774e-08
1.48141e-05
-7.37727e-09
1.47719e-05
1.61471e-08
1.47333e-05
1.85562e-08
1.47117e-05
9.49297e-09
1.47118e-05
-3.18558e-09
-1.24458e-08
1.47294e-05
1.29058e-05
8.61519e-08
1.28835e-05
9.50543e-08
1.28177e-05
1.05655e-07
1.27717e-05
1.4892e-07
1.27305e-05
1.85277e-07
1.26966e-05
1.53641e-07
1.26789e-05
5.24722e-08
1.26856e-05
-7.11635e-08
1.2705e-05
-1.5423e-07
1.27313e-05
-1.72652e-07
1.27577e-05
-1.3459e-07
1.27775e-05
-7.21887e-08
1.27875e-05
-1.73745e-08
1.2793e-05
1.06563e-08
1.27986e-05
1.28952e-08
1.28103e-05
-2.18315e-09
1.2831e-05
-2.38641e-08
-4.06959e-08
1.28592e-05
1.11492e-05
1.5721e-07
1.11075e-05
1.36782e-07
1.11444e-05
6.87221e-08
1.12382e-05
5.51236e-08
1.13487e-05
7.47787e-08
1.14227e-05
7.97081e-08
1.14345e-05
4.06748e-08
1.13839e-05
-2.0616e-08
1.12984e-05
-6.87454e-08
1.12113e-05
-8.55515e-08
1.11516e-05
-7.48457e-08
1.11299e-05
-5.04559e-08
1.11393e-05
-2.68421e-08
1.11639e-05
-1.3882e-08
1.119e-05
-1.3296e-08
1.12085e-05
-2.05928e-08
1.12145e-05
-2.98672e-08
-3.55363e-08
1.12093e-05
9.48229e-06
1.34298e-07
9.54019e-06
7.88854e-08
9.56136e-06
4.75487e-08
9.61184e-06
4.64548e-09
9.68792e-06
-1.29821e-09
9.75755e-06
1.00735e-08
9.78979e-06
8.43261e-09
9.77988e-06
-1.07003e-08
9.74508e-06
-3.3943e-08
9.70819e-06
-4.86633e-08
9.68464e-06
-5.12992e-08
9.6794e-06
-4.52154e-08
9.68941e-06
-3.68509e-08
9.70718e-06
-3.1652e-08
9.72508e-06
-3.11947e-08
9.7384e-06
-3.39173e-08
9.74544e-06
-3.69061e-08
-3.74086e-08
9.74731e-06
8.30717e-06
-2.00268e-08
8.38211e-06
3.94391e-09
8.34074e-06
8.89178e-08
8.28037e-06
6.50229e-08
8.29137e-06
-1.23055e-08
8.36227e-06
-6.08279e-08
8.43379e-06
-6.30842e-08
8.4661e-06
-4.30056e-08
8.45953e-06
-2.73754e-08
8.43566e-06
-2.47946e-08
8.41591e-06
-3.15518e-08
8.41183e-06
-4.11286e-08
8.42417e-06
-4.91983e-08
8.44685e-06
-5.43253e-08
8.47125e-06
-5.55927e-08
8.4903e-06
-5.2974e-08
8.49928e-06
-4.58834e-08
-3.48954e-08
8.49677e-06
7.28404e-06
-1.47908e-07
7.30734e-06
-1.9365e-08
7.28813e-06
1.08129e-07
7.25624e-06
9.69175e-08
7.24549e-06
-1.55261e-09
7.26448e-06
-7.98185e-08
7.29513e-06
-9.37351e-08
7.3173e-06
-6.51732e-08
7.32217e-06
-3.22471e-08
7.31289e-06
-1.55185e-08
7.29842e-06
-1.70792e-08
7.28766e-06
-3.03693e-08
7.28621e-06
-4.77535e-08
7.29559e-06
-6.36966e-08
7.31334e-06
-7.33501e-08
7.33466e-06
-7.42904e-08
7.35485e-06
-6.60759e-08
-5.12925e-08
7.37125e-06
6.23913e-06
-1.64493e-07
6.27589e-06
-5.61254e-08
6.35906e-06
2.49583e-08
6.43293e-06
2.30491e-08
6.46908e-06
-3.77082e-08
6.47539e-06
-8.61239e-08
6.4719e-06
-9.02437e-08
6.47267e-06
-6.59515e-08
6.48267e-06
-4.22449e-08
6.50033e-06
-3.31805e-08
6.51972e-06
-3.64665e-08
6.53339e-06
-4.40375e-08
6.5362e-06
-5.05636e-08
6.52805e-06
-5.55468e-08
6.51376e-06
-5.9059e-08
6.49973e-06
-6.02666e-08
6.49121e-06
-5.75531e-08
-5.00647e-08
6.48998e-06
5.48993e-06
-7.88197e-08
5.51609e-06
-8.22863e-08
5.55037e-06
-9.32286e-09
5.58158e-06
-8.15499e-09
5.60619e-06
-6.23273e-08
5.61436e-06
-9.42885e-08
5.60719e-06
-8.30703e-08
5.59774e-06
-5.65092e-08
5.60006e-06
-4.45591e-08
5.61979e-06
-5.29181e-08
5.65091e-06
-6.75822e-08
5.67984e-06
-7.2968e-08
5.69365e-06
-6.43762e-08
5.68628e-06
-4.81689e-08
5.66051e-06
-3.32973e-08
5.62455e-06
-2.43045e-08
5.58836e-06
-2.13609e-08
-2.19885e-08
5.56028e-06
4.75774e-06
-1.07754e-07
4.78197e-06
-1.06516e-07
4.8277e-06
-5.50562e-08
4.87818e-06
-5.86354e-08
4.89344e-06
-7.7588e-08
4.87999e-06
-8.08359e-08
4.86056e-06
-6.36413e-08
4.84774e-06
-4.36913e-08
4.84327e-06
-4.00883e-08
4.84515e-06
-5.47929e-08
4.85018e-06
-7.26137e-08
4.85501e-06
-7.78029e-08
4.85696e-06
-6.63213e-08
4.85452e-06
-4.57288e-08
4.84815e-06
-2.69324e-08
4.84003e-06
-1.6181e-08
4.83373e-06
-1.5055e-08
-2.04679e-08
4.8322e-06
4.13747e-06
4.03095e-06
3.9759e-06
3.91726e-06
3.83967e-06
3.75884e-06
3.69519e-06
3.6515e-06
3.61142e-06
3.55662e-06
3.48401e-06
3.40621e-06
3.33988e-06
3.29416e-06
3.26722e-06
3.25104e-06
3.23599e-06
3.21552e-06
-4.91128e-07
4.91128e-07
-9.11981e-07
4.20852e-07
-1.19928e-06
2.87298e-07
-1.10281e-06
-9.64639e-08
-6.51533e-07
-4.51282e-07
3.72725e-08
-6.88805e-07
8.51287e-07
-8.14015e-07
1.70597e-06
-8.54685e-07
2.53715e-06
-8.31178e-07
3.30698e-06
-7.69833e-07
3.9965e-06
-6.89516e-07
4.59761e-06
-6.01113e-07
5.1093e-06
-5.1169e-07
5.52973e-06
-4.20426e-07
5.85578e-06
-3.26057e-07
6.08728e-06
-2.31497e-07
6.21382e-06
-1.26538e-07
6.2319e-06
-1.80787e-08
6.12679e-06
1.05111e-07
5.87551e-06
2.51281e-07
5.48953e-06
3.85974e-07
4.95138e-06
5.38155e-07
4.26083e-06
6.90548e-07
3.45932e-06
8.0151e-07
2.51405e-06
9.45269e-07
1.63142e-06
8.82631e-07
9.86376e-07
6.45044e-07
5.09427e-07
4.76949e-07
1.93255e-07
3.16172e-07
-5.29353e-08
2.46191e-07
-2.79593e-07
2.26658e-07
-4.36825e-07
1.57232e-07
-4.98762e-07
6.19371e-08
-4.14068e-07
-8.46943e-08
-2.10162e-07
-2.03906e-07
5.44107e-08
-2.64573e-07
3.99828e-07
-3.45417e-07
7.95207e-07
-3.9538e-07
1.08363e-06
-2.88421e-07
1.40247e-06
-3.18843e-07
1.61704e-06
-2.14563e-07
1.57543e-06
4.16006e-08
1.55704e-06
1.83975e-08
1.6049e-06
-4.78642e-08
1.65938e-06
-5.44806e-08
1.62183e-06
3.75531e-08
1.49349e-06
1.28335e-07
1.38148e-06
1.1201e-07
1.34158e-06
3.99039e-08
1.37833e-06
-3.67539e-08
1.4798e-06
-1.01469e-07
1.63141e-06
-1.51605e-07
1.82686e-06
-1.95457e-07
2.04963e-06
-2.22762e-07
2.28434e-06
-2.34714e-07
2.5036e-06
-2.19264e-07
2.6693e-06
-1.65697e-07
2.74564e-06
-7.63408e-08
2.70059e-06
4.50525e-08
2.49539e-06
2.05201e-07
2.09731e-06
3.98079e-07
1.45986e-06
6.37447e-07
5.07769e-07
9.52094e-07
-8.09035e-07
1.3168e-06
-2.36116e-06
1.55213e-06
-4.01124e-06
1.65008e-06
-5.69777e-06
1.68654e-06
-7.3451e-06
1.64733e-06
-8.90604e-06
1.56094e-06
-1.03637e-05
1.45767e-06
-1.17092e-05
1.3455e-06
-1.29382e-05
1.22895e-06
-1.40465e-05
1.10832e-06
-1.50304e-05
9.83945e-07
-1.5885e-05
8.54583e-07
-1.66043e-05
7.19225e-07
-1.71819e-05
5.77602e-07
-1.76122e-05
4.303e-07
-1.78915e-05
2.79375e-07
-1.80205e-05
1.28984e-07
-1.80032e-05
-1.73026e-08
-1.78597e-05
-1.43464e-07
-1.7595e-05
-2.64784e-07
-1.72175e-05
-3.77511e-07
-1.67378e-05
-4.79642e-07
-1.61652e-05
-5.72655e-07
-1.55093e-05
-6.55893e-07
-1.47793e-05
-7.29975e-07
-1.39845e-05
-7.94798e-07
-1.31347e-05
-8.4976e-07
-1.22405e-05
-8.94231e-07
-1.13136e-05
-9.26866e-07
-1.0367e-05
-9.46654e-07
-9.41425e-06
-9.52721e-07
-8.46919e-06
-9.45064e-07
-7.54456e-06
-9.24635e-07
-6.65117e-06
-8.93382e-07
-5.79723e-06
-8.53949e-07
-4.98818e-06
-8.09045e-07
-4.22691e-06
-7.61269e-07
-3.51406e-06
-7.12853e-07
-2.849e-06
-6.65057e-07
-2.2312e-06
-6.17798e-07
-1.66043e-06
-5.70776e-07
-1.1371e-06
-5.23329e-07
-6.62767e-07
-4.74332e-07
-2.39377e-07
-4.2339e-07
1.29106e-07
-3.68483e-07
4.47715e-07
-3.18608e-07
7.22466e-07
-2.74751e-07
9.6668e-07
-2.44215e-07
1.17548e-06
-2.08795e-07
1.34218e-06
-1.66706e-07
1.47758e-06
-1.35399e-07
1.60571e-06
-1.28132e-07
1.70958e-06
-1.03865e-07
1.75019e-06
-4.06152e-08
1.72825e-06
2.19449e-08
1.68608e-06
4.21706e-08
1.65977e-06
2.63023e-08
1.66126e-06
-1.48229e-09
1.6826e-06
-2.13469e-08
1.71189e-06
-2.92823e-08
1.73969e-06
-2.78059e-08
1.75962e-06
-1.99335e-08
1.76576e-06
-6.13373e-09
1.7548e-06
1.09615e-08
1.73378e-06
2.1015e-08
1.7201e-06
1.36784e-08
1.73103e-06
-1.09273e-08
1.77617e-06
-4.51349e-08
1.85669e-06
-8.05228e-08
1.96819e-06
-1.115e-07
2.10517e-06
-1.36979e-07
2.26145e-06
-1.56282e-07
2.43182e-06
-1.70367e-07
2.61354e-06
-1.81722e-07
2.79748e-06
-1.83944e-07
2.95297e-06
-1.55492e-07
3.0422e-06
-8.92301e-08
3.07179e-06
-2.95818e-08
3.12353e-06
-5.17404e-08
3.30457e-06
-1.81044e-07
3.63736e-06
-3.3279e-07
4.01905e-06
-3.81688e-07
4.30642e-06
-2.87371e-07
4.39389e-06
-8.74678e-08
4.25123e-06
1.42654e-07
3.99461e-06
2.56627e-07
3.82066e-06
1.73949e-07
3.87315e-06
-5.24939e-08
4.15696e-06
-2.83808e-07
4.33761e-06
-1.8065e-07
4.05665e-06
2.80961e-07
3.49161e-06
5.6504e-07
2.41295e-06
1.07866e-06
4.97128e-08
2.36324e-06
-3.04086e-06
3.09057e-06
-5.70421e-06
2.66335e-06
-7.65967e-06
1.95546e-06
-9.01781e-06
1.35814e-06
-9.87266e-06
8.5485e-07
-1.02917e-05
4.19029e-07
-1.03199e-05
2.82341e-08
-1.00368e-05
-2.83093e-07
-9.49263e-06
-5.44198e-07
-8.73755e-06
-7.55082e-07
-7.82447e-06
-9.13081e-07
-6.7859e-06
-1.03857e-06
-5.64291e-06
-1.14298e-06
-4.41453e-06
-1.22838e-06
-3.12947e-06
-1.28506e-06
-1.8353e-06
-1.29417e-06
-5.84469e-07
-1.25083e-06
5.78825e-07
-1.16329e-06
1.60724e-06
-1.02841e-06
2.48505e-06
-8.77817e-07
3.21978e-06
-7.34725e-07
3.73082e-06
-5.1104e-07
-3.39131e-07
4.06995e-06
3.37368e-08
4.57392e-07
-2.90407e-08
4.8363e-07
1.25991e-07
1.32267e-07
5.87569e-07
-5.58042e-07
1.25446e-06
-1.11818e-06
2.00107e-06
-1.43541e-06
2.73655e-06
-1.5495e-06
3.41649e-06
-1.53462e-06
4.02642e-06
-1.44111e-06
4.56695e-06
-1.31036e-06
5.04479e-06
-1.16736e-06
5.46625e-06
-1.02257e-06
5.83397e-06
-8.7941e-07
6.14985e-06
-7.36302e-07
6.41187e-06
-5.88078e-07
6.61512e-06
-4.3475e-07
6.75953e-06
-2.70953e-07
6.83774e-06
-9.6281e-08
6.84662e-06
9.62313e-08
6.78279e-06
3.15111e-07
6.63082e-06
5.37938e-07
6.39359e-06
7.75385e-07
6.06379e-06
1.02035e-06
5.62222e-06
1.24308e-06
5.10847e-06
1.45902e-06
4.41309e-06
1.578e-06
3.45551e-06
1.60263e-06
2.4938e-06
1.43865e-06
1.70345e-06
1.10652e-06
1.07207e-06
8.77569e-07
5.73877e-07
7.24854e-07
1.77629e-07
5.5348e-07
-1.0621e-07
3.45776e-07
-2.58423e-07
6.75187e-08
-2.49693e-07
-2.12635e-07
-8.02036e-08
-4.34063e-07
2.20105e-07
-6.45726e-07
5.02382e-07
-6.77657e-07
5.86619e-07
-3.72658e-07
4.95273e-07
-2.27498e-07
4.28126e-07
-1.47416e-07
3.18542e-07
1.51185e-07
9.75644e-08
2.39375e-07
-1.7444e-07
2.2414e-07
-4.47051e-07
2.18131e-07
-6.24331e-07
2.14832e-07
-7.05433e-07
2.09437e-07
-7.62869e-07
1.69446e-07
-8.19852e-07
9.68876e-08
-8.57344e-07
7.3762e-10
-8.72e-07
-8.68128e-08
-8.54511e-07
-1.69094e-07
-8.17477e-07
-2.32492e-07
-7.83843e-07
-2.56396e-07
-7.94333e-07
-2.24224e-07
-8.92302e-07
-1.21295e-07
-1.11904e-06
6.10389e-08
-1.50843e-06
3.13053e-07
-2.09389e-06
6.30513e-07
-2.88236e-06
9.9367e-07
-3.86531e-06
1.38103e-06
-4.99586e-06
1.768e-06
-6.18407e-06
2.1403e-06
-7.3465e-06
2.47923e-06
-8.49154e-06
2.69716e-06
-9.61757e-06
2.7761e-06
-1.06827e-05
2.75162e-06
-1.1685e-05
2.64963e-06
-1.263e-05
2.50601e-06
-1.3516e-05
2.34369e-06
-1.43422e-05
2.17169e-06
-1.51059e-05
1.99267e-06
-1.58022e-05
1.80454e-06
-1.64261e-05
1.60791e-06
-1.69707e-05
1.39914e-06
-1.7427e-05
1.17553e-06
-1.77868e-05
9.37425e-07
-1.80436e-05
6.87104e-07
-1.81931e-05
4.28902e-07
-1.82331e-05
1.68968e-07
-1.81651e-05
-8.5281e-08
-1.79763e-05
-3.32279e-07
-1.76744e-05
-5.66725e-07
-1.72665e-05
-7.85424e-07
-1.67595e-05
-9.86635e-07
-1.61633e-05
-1.16884e-06
-1.54867e-05
-1.33251e-06
-1.47387e-05
-1.478e-06
-1.39281e-05
-1.60535e-06
-1.30639e-05
-1.71394e-06
-1.21562e-05
-1.80198e-06
-1.12159e-05
-1.8671e-06
-1.02559e-05
-1.90666e-06
-9.28986e-06
-1.9188e-06
-8.3317e-06
-1.90322e-06
-7.39471e-06
-1.86163e-06
-6.49012e-06
-1.79797e-06
-5.62637e-06
-1.71769e-06
-4.80891e-06
-1.6265e-06
-4.04043e-06
-1.52975e-06
-3.32102e-06
-1.43226e-06
-2.64896e-06
-1.33712e-06
-2.0226e-06
-1.24415e-06
-1.44056e-06
-1.15282e-06
-9.02142e-07
-1.06175e-06
-4.07795e-07
-9.68679e-07
4.09332e-08
-8.72119e-07
4.50599e-07
-7.78149e-07
8.13572e-07
-6.81581e-07
1.12888e-06
-5.90055e-07
1.39094e-06
-5.06281e-07
1.60451e-06
-4.22368e-07
1.77243e-06
-3.34622e-07
1.88764e-06
-2.5061e-07
1.95037e-06
-1.90856e-07
1.9959e-06
-1.49399e-07
2.06209e-06
-1.06802e-07
2.14742e-06
-6.33873e-08
2.22639e-06
-3.68002e-08
2.28635e-06
-3.36559e-08
2.32665e-06
-4.17873e-08
2.35393e-06
-4.86278e-08
2.37345e-06
-4.87946e-08
2.39131e-06
-4.56737e-08
2.4155e-06
-4.41174e-08
2.4534e-06
-4.4033e-08
2.50883e-06
-4.44719e-08
2.58078e-06
-5.09354e-08
2.66692e-06
-7.24618e-08
2.76593e-06
-1.09932e-07
2.87421e-06
-1.53422e-07
2.98827e-06
-1.94577e-07
3.10732e-06
-2.30553e-07
3.22768e-06
-2.57337e-07
3.34132e-06
-2.69929e-07
3.45128e-06
-2.80324e-07
3.58733e-06
-3.17765e-07
3.77947e-06
-3.76085e-07
3.99657e-06
-3.72594e-07
4.12888e-06
-2.21538e-07
4.08413e-06
1.51684e-08
3.91011e-06
1.22277e-07
3.78744e-06
-5.83778e-08
3.87615e-06
-4.21497e-07
4.1758e-06
-6.81336e-07
4.55926e-06
-6.70832e-07
4.90485e-06
-4.33058e-07
5.13825e-06
-9.07498e-08
5.2391e-06
1.55779e-07
5.24919e-06
1.6386e-07
5.18854e-06
8.15354e-09
5.06708e-06
-1.62351e-07
4.90646e-06
-2.00303e-08
4.53067e-06
6.56753e-07
3.40147e-06
1.69424e-06
9.11134e-07
3.56899e-06
-2.4218e-06
5.69618e-06
-5.10898e-06
5.77775e-06
-6.88507e-06
4.43944e-06
-8.13509e-06
3.20548e-06
-8.99615e-06
2.21921e-06
-9.53416e-06
1.39285e-06
-9.77256e-06
6.57432e-07
-9.72814e-06
-1.61856e-08
-9.39858e-06
-6.12653e-07
-8.81544e-06
-1.12734e-06
-8.03595e-06
-1.53458e-06
-7.1035e-06
-1.84553e-06
-6.05288e-06
-2.08919e-06
-4.90109e-06
-2.29478e-06
-3.66144e-06
-2.46803e-06
-2.36228e-06
-2.58422e-06
-1.04864e-06
-2.60781e-06
2.20191e-07
-2.51967e-06
1.39691e-06
-2.34001e-06
2.43206e-06
-2.06356e-06
3.32661e-06
-1.77236e-06
4.05571e-06
-1.46383e-06
4.65678e-06
-1.1121e-06
-7.61287e-07
5.07893e-06
1.18327e-07
3.39065e-07
5.19697e-07
8.226e-08
1.33421e-06
-6.82246e-07
2.17026e-06
-1.39409e-06
2.87223e-06
-1.82015e-06
3.40827e-06
-1.97145e-06
3.80297e-06
-1.94419e-06
4.09226e-06
-1.82392e-06
4.32409e-06
-1.67294e-06
4.53641e-06
-1.52268e-06
4.75101e-06
-1.38196e-06
4.97628e-06
-1.24784e-06
5.21025e-06
-1.11339e-06
5.44469e-06
-9.70739e-07
5.66925e-06
-8.12638e-07
5.87124e-06
-6.36744e-07
6.03887e-06
-4.38583e-07
6.15969e-06
-2.17095e-07
6.23383e-06
2.20919e-08
6.26641e-06
2.82531e-07
6.24743e-06
5.56916e-07
6.17918e-06
8.43636e-07
6.05631e-06
1.14322e-06
5.86705e-06
1.43234e-06
5.60853e-06
1.71754e-06
5.22782e-06
1.95871e-06
4.70481e-06
2.12564e-06
3.98327e-06
2.1602e-06
3.10716e-06
1.98263e-06
2.34632e-06
1.63841e-06
1.78612e-06
1.28506e-06
1.29934e-06
1.04026e-06
8.34876e-07
8.10237e-07
4.03041e-07
4.99354e-07
5.01443e-08
1.40261e-07
-2.03803e-07
-1.80115e-07
-3.82549e-07
-4.6698e-07
-6.09083e-07
-4.51123e-07
-8.62099e-07
-1.19641e-07
-1.11941e-06
2.98158e-08
-1.34614e-06
7.93082e-08
-1.42307e-06
2.28114e-07
-1.48016e-06
2.96469e-07
-1.5787e-06
3.22684e-07
-1.70881e-06
3.48238e-07
-1.83946e-06
3.45481e-07
-1.95393e-06
3.23908e-07
-2.06271e-06
2.78224e-07
-2.18318e-06
2.1736e-07
-2.32679e-06
1.44351e-07
-2.49035e-06
7.67453e-08
-2.6881e-06
2.86569e-08
-2.93981e-06
1.92192e-08
-3.259e-06
6.27913e-08
-3.65885e-06
1.75626e-07
-4.14568e-06
3.65534e-07
-4.71731e-06
6.3267e-07
-5.37123e-06
9.66976e-07
-6.09106e-06
1.35034e-06
-6.85449e-06
1.7571e-06
-7.63712e-06
2.16366e-06
-8.41529e-06
2.54617e-06
-9.1524e-06
2.87741e-06
-9.8003e-06
3.12713e-06
-1.03793e-05
3.27615e-06
-1.09358e-05
3.33263e-06
-1.14969e-05
3.31273e-06
-1.20894e-05
3.24211e-06
-1.27253e-05
3.14193e-06
-1.34006e-05
3.01898e-06
-1.41011e-05
2.87223e-06
-1.48061e-05
2.6976e-06
-1.54916e-05
2.49007e-06
-1.61312e-05
2.24746e-06
-1.67012e-05
1.96919e-06
-1.71824e-05
1.65676e-06
-1.75589e-05
1.31392e-06
-1.78187e-05
9.46867e-07
-1.79541e-05
5.64302e-07
-1.79608e-05
1.75648e-07
-1.78406e-05
-2.05464e-07
-1.76064e-05
-5.66421e-07
-1.72638e-05
-9.09383e-07
-1.68214e-05
-1.2278e-06
-1.62896e-05
-1.5184e-06
-1.56776e-05
-1.78086e-06
-1.49941e-05
-2.01605e-06
-1.42469e-05
-2.2252e-06
-1.34433e-05
-2.40889e-06
-1.25909e-05
-2.56638e-06
-1.16978e-05
-2.69504e-06
-1.07741e-05
-2.79088e-06
-9.83117e-06
-2.84954e-06
-8.8824e-06
-2.86758e-06
-7.94146e-06
-2.84416e-06
-7.02127e-06
-2.78182e-06
-6.13274e-06
-2.6865e-06
-5.28358e-06
-2.56685e-06
-4.47851e-06
-2.43158e-06
-3.71994e-06
-2.28832e-06
-3.00849e-06
-2.14372e-06
-2.3432e-06
-2.0024e-06
-1.72375e-06
-1.8636e-06
-1.15011e-06
-1.72646e-06
-6.21982e-07
-1.58988e-06
-1.40069e-07
-1.45059e-06
2.9728e-07
-1.30947e-06
6.90287e-07
-1.17116e-06
1.04052e-06
-1.03182e-06
1.3478e-06
-8.97333e-07
1.61082e-06
-7.69303e-07
1.83395e-06
-6.45493e-07
2.02631e-06
-5.26986e-07
2.19512e-06
-4.19418e-07
2.33748e-06
-3.33215e-07
2.44978e-06
-2.61695e-07
2.53188e-06
-1.88902e-07
2.59174e-06
-1.23247e-07
2.63504e-06
-8.01016e-08
2.66215e-06
-6.07726e-08
2.67566e-06
-5.52968e-08
2.68272e-06
-5.56812e-08
2.69241e-06
-5.84927e-08
2.71138e-06
-6.46422e-08
2.7431e-06
-7.58365e-08
2.79059e-06
-9.15256e-08
2.85645e-06
-1.10332e-07
2.9402e-06
-1.34681e-07
3.03663e-06
-1.68892e-07
3.13613e-06
-2.09434e-07
3.22997e-06
-2.47255e-07
3.32128e-06
-2.85894e-07
3.43237e-06
-3.41639e-07
3.58499e-06
-4.09955e-07
3.76514e-06
-4.5008e-07
3.92571e-06
-4.40901e-07
4.04386e-06
-4.35911e-07
4.15319e-06
-4.85413e-07
4.29088e-06
-5.10289e-07
4.42441e-06
-3.55067e-07
4.47417e-06
-3.45933e-08
4.41878e-06
1.77675e-07
4.33513e-06
2.52694e-08
4.3241e-06
-4.10466e-07
4.43636e-06
-7.936e-07
4.63573e-06
-8.70206e-07
4.86531e-06
-6.62635e-07
5.10863e-06
-3.3407e-07
5.32945e-06
-6.50384e-08
5.40916e-06
8.41486e-08
5.2615e-06
1.55812e-07
4.99639e-06
1.02764e-07
4.68961e-06
2.86747e-07
3.95959e-06
1.38677e-06
2.10989e-06
3.54394e-06
-8.49282e-07
6.52817e-06
-3.47837e-06
8.32526e-06
-5.0658e-06
7.36518e-06
-6.22318e-06
5.59682e-06
-7.24433e-06
4.22663e-06
-8.0548e-06
3.02968e-06
-8.59657e-06
1.93462e-06
-8.83295e-06
8.93817e-07
-8.76199e-06
-8.7144e-08
-8.41152e-06
-9.63126e-07
-7.81724e-06
-1.72162e-06
-7.03585e-06
-2.31597e-06
-6.11839e-06
-2.76298e-06
-5.09545e-06
-3.11213e-06
-3.97678e-06
-3.41345e-06
-2.76881e-06
-3.67601e-06
-1.49285e-06
-3.86017e-06
-1.9669e-07
-3.90397e-06
1.0733e-06
-3.78966e-06
2.24338e-06
-3.51009e-06
3.2768e-06
-3.09698e-06
4.172e-06
-2.66757e-06
4.90639e-06
-2.19822e-06
5.53195e-06
-1.73767e-06
-1.2174e-06
5.98806e-06
2.34589e-07
1.04475e-07
1.19333e-06
-8.76484e-07
2.17428e-06
-1.66319e-06
2.82505e-06
-2.04486e-06
3.14183e-06
-2.13693e-06
3.23717e-06
-2.0668e-06
3.23317e-06
-1.94019e-06
3.22442e-06
-1.81517e-06
3.26544e-06
-1.71396e-06
3.37523e-06
-1.63246e-06
3.55017e-06
-1.55691e-06
3.77466e-06
-1.47233e-06
4.02819e-06
-1.36691e-06
4.29062e-06
-1.23317e-06
4.54491e-06
-1.06693e-06
4.77648e-06
-8.68312e-07
4.97638e-06
-6.38482e-07
5.14025e-06
-3.80973e-07
5.26521e-06
-1.02866e-07
5.35368e-06
1.9406e-07
5.40634e-06
5.04259e-07
5.42778e-06
8.22196e-07
5.41808e-06
1.15291e-06
5.37125e-06
1.47917e-06
5.28124e-06
1.80756e-06
5.11417e-06
2.12578e-06
4.85028e-06
2.38953e-06
4.44172e-06
2.56876e-06
3.83475e-06
2.5896e-06
3.10689e-06
2.36627e-06
2.40152e-06
1.99042e-06
1.79883e-06
1.64295e-06
1.29953e-06
1.30954e-06
8.44297e-07
9.54584e-07
3.85816e-07
5.98742e-07
-1.25272e-07
3.30973e-07
-6.16285e-07
2.40333e-08
-9.88167e-07
-7.92411e-08
-1.24093e-06
1.33124e-07
-1.42051e-06
2.09398e-07
-1.62391e-06
2.82705e-07
-1.79813e-06
4.02338e-07
-1.92952e-06
4.27851e-07
-2.06132e-06
4.54485e-07
-2.18532e-06
4.7224e-07
-2.31526e-06
4.7542e-07
-2.46015e-06
4.68794e-07
-2.62859e-06
4.46668e-07
-2.83044e-06
4.1921e-07
-3.07753e-06
3.91442e-07
-3.37562e-06
3.74835e-07
-3.72888e-06
3.81915e-07
-4.14009e-06
4.30425e-07
-4.6137e-06
5.36406e-07
-5.14772e-06
7.09648e-07
-5.73199e-06
9.49805e-07
-6.34821e-06
1.24888e-06
-6.97319e-06
1.59196e-06
-7.58277e-06
1.95992e-06
-8.15735e-06
2.33168e-06
-8.68224e-06
2.68855e-06
-9.15004e-06
3.01398e-06
-9.56227e-06
3.28964e-06
-9.93437e-06
3.49923e-06
-1.03043e-05
3.64608e-06
-1.0716e-05
3.74431e-06
-1.12052e-05
3.80199e-06
-1.17863e-05
3.82315e-06
-1.24476e-05
3.80327e-06
-1.3161e-05
3.73235e-06
-1.38912e-05
3.60245e-06
-1.46031e-05
3.4095e-06
-1.52659e-05
3.15282e-06
-1.58549e-05
2.83648e-06
-1.63522e-05
2.46654e-06
-1.67451e-05
2.04956e-06
-1.70241e-05
1.59295e-06
-1.71837e-05
1.10651e-06
-1.72216e-05
6.02196e-07
-1.71335e-05
8.74741e-08
-1.69345e-05
-4.04435e-07
-1.66287e-05
-8.72157e-07
-1.62269e-05
-1.3112e-06
-1.57405e-05
-1.71418e-06
-1.51807e-05
-2.07826e-06
-1.45569e-05
-2.40464e-06
-1.38772e-05
-2.69572e-06
-1.31477e-05
-2.95473e-06
-1.23734e-05
-3.18317e-06
-1.15591e-05
-3.38069e-06
-1.07106e-05
-3.54354e-06
-9.83608e-06
-3.66543e-06
-8.94634e-06
-3.73928e-06
-8.055e-06
-3.75892e-06
-7.17689e-06
-3.72227e-06
-6.32561e-06
-3.63309e-06
-5.5114e-06
-3.50071e-06
-4.73876e-06
-3.33949e-06
-4.00652e-06
-3.16382e-06
-3.30942e-06
-2.98542e-06
-2.64124e-06
-2.8119e-06
-1.9979e-06
-2.64574e-06
-1.38047e-06
-2.48104e-06
-7.95313e-07
-2.31161e-06
-2.52843e-07
-2.13235e-06
2.35558e-07
-1.93899e-06
6.66755e-07
-1.74067e-06
1.03632e-06
-1.54072e-06
1.35193e-06
-1.34742e-06
1.6225e-06
-1.1679e-06
1.85635e-06
-1.00315e-06