/*--------------------------------*- C++ -*----------------------------------*\
| =========                 |                                                 |
| \\      /  F ield         | OpenFOAM: The Open Source CFD Toolbox           |
|  \\    /   O peration     | Version:  2112                                  |
|   \\  /    A nd           | Website:  www.openfoam.com                      |
|    \\/     M anipulation  |                                                 |
\*---------------------------------------------------------------------------*/
FoamFile
{
    version     2.0;
    format      ascii;
    arch        "LSB;label=32;scalar=64";
    class       volVectorField;
    location    "0.43";
    object      UMean;
}
// * * * * * * * * * * * * * * * * * * * * * * * * * * * * * * * * * * * * * //

dimensions      [0 1 -1 0 0 0 0];

internalField   nonuniform List<vector> 
12225
(
(9.83898 0.0440355 0)
(9.54669 0.0604631 0)
(9.24744 0.0582027 0)
(8.94252 0.056838 0)
(8.64177 0.0563565 0)
(8.35061 0.0556925 0)
(8.06945 0.0546869 0)
(7.79763 0.0539493 0)
(7.53249 0.0531175 0)
(7.27423 0.0531786 0)
(7.01794 0.0528117 0)
(6.76687 0.0546172 0)
(6.50845 0.0550296 0)
(6.25456 0.0609116 0)
(5.97186 0.0627104 0)
(5.69828 0.0780019 0)
(5.3484 0.0819196 0)
(5.02489 0.117031 0)
(10.0113 0.0520452 0)
(10.0729 0.0761037 0)
(10.1116 0.0749782 0)
(10.1243 0.0762376 0)
(10.1195 0.0798371 0)
(10.1039 0.0831382 0)
(10.0793 0.0859231 0)
(10.047 0.0885591 0)
(10.0061 0.0915841 0)
(9.95796 0.0949227 0)
(9.90085 0.0993469 0)
(9.8369 0.104402 0)
(9.76161 0.112169 0)
(9.67851 0.121043 0)
(9.57812 0.136576 0)
(9.466 0.153351 0)
(9.32661 0.185331 0)
(9.16479 0.215148 0)
(9.99991 0.0292441 0)
(10.0324 0.0531474 0)
(10.0608 0.055816 0)
(10.077 0.0582743 0)
(10.0857 0.0632579 0)
(10.0918 0.068468 0)
(10.097 0.0729592 0)
(10.1004 0.0774505 0)
(10.1017 0.0820355 0)
(10.0999 0.0876845 0)
(10.0954 0.0938716 0)
(10.087 0.102379 0)
(10.0761 0.112244 0)
(10.0597 0.126865 0)
(10.042 0.144975 0)
(10.0175 0.171883 0)
(9.9963 0.206422 0)
(9.96848 0.249373 0)
(10.0004 0.0297264 0)
(10.0233 0.0584736 0)
(10.0456 0.0646152 0)
(10.059 0.0667825 0)
(10.0651 0.0710356 0)
(10.0683 0.076068 0)
(10.0707 0.0807392 0)
(10.0722 0.0851761 0)
(10.0723 0.0900448 0)
(10.0704 0.0956746 0)
(10.0668 0.102669 0)
(10.0611 0.111281 0)
(10.0538 0.122643 0)
(10.0448 0.137328 0)
(10.0357 0.157243 0)
(10.0275 0.183253 0)
(10.0234 0.216124 0)
(10.0265 0.253657 0)
(10.003 0.0211153 0)
(10.0218 0.0465619 0)
(10.0413 0.0550623 0)
(10.0543 0.058178 0)
(10.0606 0.0626231 0)
(10.0636 0.0683259 0)
(10.0655 0.0739411 0)
(10.0665 0.0793763 0)
(10.0661 0.0850817 0)
(10.0641 0.0917101 0)
(10.0602 0.0996013 0)
(10.0547 0.109383 0)
(10.0477 0.121621 0)
(10.0399 0.137285 0)
(10.032 0.157258 0)
(10.0261 0.182239 0)
(10.0232 0.211661 0)
(10.0268 0.243391 0)
(10.0082 0.0196448 0)
(10.0225 0.0452121 0)
(10.0386 0.0561492 0)
(10.0505 0.0606363 0)
(10.0571 0.06525 0)
(10.0603 0.0710793 0)
(10.0623 0.0771369 0)
(10.0634 0.0830793 0)
(10.0634 0.0893038 0)
(10.0619 0.0964049 0)
(10.0588 0.104867 0)
(10.0543 0.115219 0)
(10.0488 0.127968 0)
(10.0429 0.143867 0)
(10.0372 0.163321 0)
(10.0334 0.186754 0)
(10.0323 0.213054 0)
(10.036 0.241201 0)
(10.0021 0.014451 0)
(10.0141 0.0379326 0)
(10.0279 0.0499895 0)
(10.0394 0.0558779 0)
(10.0466 0.0609497 0)
(10.0505 0.0670021 0)
(10.0527 0.0735445 0)
(10.0541 0.0801701 0)
(10.0544 0.0871068 0)
(10.0536 0.0949146 0)
(10.0514 0.10407 0)
(10.0482 0.115081 0)
(10.0441 0.128336 0)
(10.0401 0.144392 0)
(10.0365 0.163353 0)
(10.0348 0.185452 0)
(10.0354 0.209602 0)
(10.04 0.235395 0)
(10.0088 0.0136295 0)
(10.0173 0.0353225 0)
(10.0281 0.0482191 0)
(10.0379 0.055423 0)
(10.0446 0.0611029 0)
(10.0485 0.0673583 0)
(10.0507 0.0742417 0)
(10.052 0.0813906 0)
(10.0526 0.0888931 0)
(10.0521 0.0972228 0)
(10.0507 0.10684 0)
(10.0485 0.11822 0)
(10.0458 0.131639 0)
(10.0434 0.147499 0)
(10.0416 0.165731 0)
(10.0416 0.186445 0)
(10.0436 0.208704 0)
(10.0489 0.232267 0)
(10.0025 0.0110164 0)
(10.0093 0.030314 0)
(10.0186 0.0436026 0)
(10.0277 0.0519417 0)
(10.0347 0.0583127 0)
(10.0393 0.0648539 0)
(10.0421 0.0720224 0)
(10.044 0.0796387 0)
(10.0452 0.0876893 0)
(10.0456 0.0965458 0)
(10.0453 0.106606 0)
(10.0445 0.118294 0)
(10.0434 0.131789 0)
(10.0427 0.147383 0)
(10.0428 0.164893 0)
(10.0445 0.184396 0)
(10.0479 0.205013 0)
(10.0542 0.226694 0)
(9.99317 0.010513 0)
(9.99915 0.0278844 0)
(10.0064 0.0410873 0)
(10.014 0.0501142 0)
(10.0205 0.0571186 0)
(10.0251 0.0639816 0)
(10.0282 0.0714018 0)
(10.0304 0.0793672 0)
(10.032 0.0878404 0)
(10.0332 0.0970764 0)
(10.0338 0.107392 0)
(10.0342 0.119168 0)
(10.0345 0.132521 0)
(10.0354 0.147665 0)
(10.037 0.164338 0)
(10.0401 0.18261 0)
(10.0447 0.201658 0)
(10.0517 0.221572 0)
(9.99643 0.00819436 0)
(10.0014 0.0244833 0)
(10.0073 0.0373328 0)
(10.0139 0.0468846 0)
(10.0199 0.0545284 0)
(10.0245 0.0617912 0)
(10.0279 0.0694371 0)
(10.0304 0.0776448 0)
(10.0325 0.086431 0)
(10.0341 0.0959836 0)
(10.0355 0.106513 0)
(10.0368 0.118325 0)
(10.0382 0.131467 0)
(10.0402 0.146107 0)
(10.043 0.161938 0)
(10.0471 0.179044 0)
(10.0526 0.196639 0)
(10.0601 0.214965 0)
(9.99722 0.00809882 0)
(10.0015 0.0230688 0)
(10.0065 0.0351316 0)
(10.0123 0.0447159 0)
(10.0181 0.0527793 0)
(10.023 0.0603763 0)
(10.0268 0.0682055 0)
(10.0299 0.0765598 0)
(10.0325 0.0855133 0)
(10.0349 0.095205 0)
(10.0372 0.105774 0)
(10.0395 0.117455 0)
(10.0421 0.130259 0)
(10.0453 0.144311 0)
(10.0493 0.159299 0)
(10.0545 0.175309 0)
(10.0609 0.191611 0)
(10.069 0.208527 0)
(10.0024 0.00670847 0)
(10.0058 0.020748 0)
(10.0099 0.0324323 0)
(10.0149 0.042185 0)
(10.0203 0.0505911 0)
(10.0251 0.0584381 0)
(10.0291 0.066399 0)
(10.0325 0.0748576 0)
(10.0356 0.083911 0)
(10.0386 0.0936669 0)
(10.0417 0.104195 0)
(10.045 0.11568 0)
(10.0485 0.128093 0)
(10.0527 0.141546 0)
(10.0577 0.155705 0)
(10.0637 0.170689 0)
(10.0708 0.185788 0)
(10.0793 0.201423 0)
(9.99916 0.00647414 0)
(10.0014 0.0187873 0)
(10.0046 0.0297513 0)
(10.0092 0.0393347 0)
(10.0144 0.0478318 0)
(10.0193 0.0558271 0)
(10.0237 0.0638892 0)
(10.0278 0.072376 0)
(10.0316 0.0814126 0)
(10.0355 0.0910921 0)
(10.0395 0.101446 0)
(10.0438 0.112602 0)
(10.0485 0.124482 0)
(10.0539 0.137181 0)
(10.0599 0.150369 0)
(10.0669 0.164198 0)
(10.0748 0.177986 0)
(10.0839 0.192219 0)
(10.0022 0.00658464 0)
(10.0053 0.0167671 0)
(10.0086 0.026928 0)
(10.0127 0.0362576 0)
(10.0177 0.044696 0)
(10.0228 0.0527066 0)
(10.0277 0.0607449 0)
(10.0324 0.0691267 0)
(10.037 0.0779751 0)
(10.0417 0.0873924 0)
(10.0467 0.0973668 0)
(10.052 0.107982 0)
(10.0578 0.119125 0)
(10.0642 0.130893 0)
(10.0712 0.142962 0)
(10.0791 0.155525 0)
(10.0876 0.167927 0)
(10.0972 0.180715 0)
(9.99708 0.00467524 0)
(10.0003 0.0142725 0)
(10.0035 0.0235441 0)
(10.0073 0.0322461 0)
(10.0119 0.0403872 0)
(10.017 0.0482279 0)
(10.0223 0.0560816 0)
(10.0276 0.0642133 0)
(10.033 0.0727357 0)
(10.0386 0.0817264 0)
(10.0445 0.0911491 0)
(10.0508 0.10106 0)
(10.0576 0.111326 0)
(10.0649 0.122031 0)
(10.0728 0.132861 0)
(10.0814 0.144025 0)
(10.0905 0.15492 0)
(10.1006 0.166129 0)
(9.99945 0.00327398 0)
(10.0026 0.0123944 0)
(10.0055 0.0204109 0)
(10.0092 0.0279269 0)
(10.0139 0.0352597 0)
(10.0193 0.0425803 0)
(10.0251 0.0499914 0)
(10.0312 0.0576146 0)
(10.0374 0.0655148 0)
(10.0438 0.0737642 0)
(10.0507 0.0823207 0)
(10.058 0.0912228 0)
(10.0658 0.100327 0)
(10.0741 0.109712 0)
(10.0828 0.119093 0)
(10.0921 0.128697 0)
(10.1019 0.137975 0)
(10.1123 0.147518 0)
(9.99933 0.000976881 0)
(10.0006 0.00851917 0)
(10.0028 0.0153843 0)
(10.0064 0.0219516 0)
(10.0113 0.0284309 0)
(10.0172 0.0349587 0)
(10.0236 0.0415987 0)
(10.0303 0.0484107 0)
(10.0374 0.055411 0)
(10.0448 0.0626482 0)
(10.0526 0.0700825 0)
(10.0609 0.0777459 0)
(10.0696 0.0855094 0)
(10.0787 0.0934442 0)
(10.0882 0.101301 0)
(10.0981 0.109288 0)
(10.1083 0.116933 0)
(10.119 0.124768 0)
(9.9975 0.00522892 0)
(9.99962 0.00797137 0)
(10.0023 0.0115318 0)
(10.0062 0.0156766 0)
(10.0116 0.0202037 0)
(10.0181 0.0250319 0)
(10.0252 0.0301233 0)
(10.0328 0.0354671 0)
(10.0407 0.0410304 0)
(10.049 0.0468189 0)
(10.0576 0.0527673 0)
(10.0667 0.0588835 0)
(10.076 0.0650431 0)
(10.0858 0.071295 0)
(10.0958 0.077427 0)
(10.1061 0.0836173 0)
(10.1166 0.0894804 0)
(10.1274 0.0954735 0)
(9.99823 0.000383133 0)
(10.0022 0.00262487 0)
(10.0066 0.00483148 0)
(10.0119 0.00749774 0)
(10.0183 0.0107363 0)
(10.0256 0.014433 0)
(10.0335 0.0184206 0)
(10.0417 0.0226207 0)
(10.0503 0.0269903 0)
(10.0592 0.0315334 0)
(10.0685 0.0362008 0)
(10.0781 0.0409905 0)
(10.088 0.0457971 0)
(10.0982 0.0506533 0)
(10.1085 0.0553894 0)
(10.1191 0.0601467 0)
(10.1298 0.0646242 0)
(10.1406 0.069187 0)
(9.99838 -0.000958366 0)
(10.0005 -0.000969317 0)
(10.0041 -0.000688212 0)
(10.0097 0.000217278 0)
(10.0169 0.00188539 0)
(10.0249 0.0042052 0)
(10.0333 0.00696757 0)
(10.042 0.0100314 0)
(10.0511 0.0133087 0)
(10.0604 0.0167785 0)
(10.07 0.0203779 0)
(10.08 0.0240912 0)
(10.0901 0.0278225 0)
(10.1005 0.0315966 0)
(10.111 0.0352755 0)
(10.1217 0.0389743 0)
(10.1324 0.0424473 0)
(10.1433 0.0459873 0)
(9.99744 0.00135545 0)
(10.0014 -0.00343127 0)
(10.0066 -0.00529585 0)
(10.0135 -0.00538228 0)
(10.0216 -0.00443868 0)
(10.0304 -0.00286166 0)
(10.0394 -0.000885238 0)
(10.0486 0.00138428 0)
(10.058 0.00389342 0)
(10.0677 0.0066141 0)
(10.0777 0.00946847 0)
(10.088 0.0124133 0)
(10.0984 0.0153542 0)
(10.1089 0.0183065 0)
(10.1196 0.0211654 0)
(10.1303 0.0240289 0)
(10.1411 0.0267058 0)
(10.1519 0.0294326 0)
(9.99494 -0.00353534 0)
(10.0014 -0.00936663 0)
(10.0087 -0.0130821 0)
(10.0168 -0.0145009 0)
(10.0255 -0.0143175 0)
(10.0345 -0.0133747 0)
(10.0436 -0.0121387 0)
(10.0529 -0.0106949 0)
(10.0625 -0.00900364 0)
(10.0724 -0.00705645 0)
(10.0826 -0.00493742 0)
(10.093 -0.0027146 0)
(10.1036 -0.000480374 0)
(10.1142 0.00177166 0)
(10.1249 0.00395921 0)
(10.1357 0.00615823 0)
(10.1465 0.00821502 0)
(10.1573 0.0103113 0)
(9.99828 -0.00521814 0)
(10.0044 -0.0116124 0)
(10.0129 -0.0161904 0)
(10.0228 -0.0179777 0)
(10.0329 -0.0178966 0)
(10.0425 -0.0172236 0)
(10.052 -0.0164945 0)
(10.0616 -0.0156367 0)
(10.0716 -0.0145058 0)
(10.0818 -0.0130948 0)
(10.0923 -0.0115146 0)
(10.1029 -0.00984818 0)
(10.1136 -0.00817774 0)
(10.1243 -0.00649505 0)
(10.1351 -0.00486524 0)
(10.146 -0.00323132 0)
(10.1568 -0.00171653 0)
(10.1676 -0.000183471 0)
(9.99812 -0.00801149 0)
(10.0054 -0.0202 0)
(10.0156 -0.0264468 0)
(10.0268 -0.0282514 0)
(10.0374 -0.0283408 0)
(10.0471 -0.0282642 0)
(10.0565 -0.0282199 0)
(10.0663 -0.0279194 0)
(10.0764 -0.0272382 0)
(10.0869 -0.0262616 0)
(10.0974 -0.0251374 0)
(10.1081 -0.0239463 0)
(10.1187 -0.0227437 0)
(10.1295 -0.0215201 0)
(10.1403 -0.0203245 0)
(10.1511 -0.0191238 0)
(10.1619 -0.0180085 0)
(10.1726 -0.0168794 0)
(9.99889 -0.00833722 0)
(10.0097 -0.021812 0)
(10.0235 -0.026988 0)
(10.0368 -0.0278114 0)
(10.048 -0.0279211 0)
(10.0578 -0.0284275 0)
(10.0674 -0.0289328 0)
(10.0775 -0.0290239 0)
(10.088 -0.0286992 0)
(10.0986 -0.0281344 0)
(10.1093 -0.0274734 0)
(10.1201 -0.02676 0)
(10.1309 -0.0260168 0)
(10.1417 -0.025237 0)
(10.1526 -0.0244666 0)
(10.1634 -0.0236853 0)
(10.1743 -0.0229709 0)
(10.185 -0.0222506 0)
(10.0039 -0.0169256 0)
(10.0179 -0.0359218 0)
(10.034 -0.0407726 0)
(10.0477 -0.0405907 0)
(10.0584 -0.0406937 0)
(10.0679 -0.0415313 0)
(10.0775 -0.0421679 0)
(10.0879 -0.0422514 0)
(10.0985 -0.0419644 0)
(10.1093 -0.0415387 0)
(10.1201 -0.0410758 0)
(10.1309 -0.0405855 0)
(10.1417 -0.0400697 0)
(10.1526 -0.0395292 0)
(10.1636 -0.038996 0)
(10.1745 -0.0384673 0)
(10.1854 -0.0379904 0)
(10.1962 -0.037521 0)
(9.99762 -0.0148645 0)
(10.0197 -0.0313354 0)
(10.042 -0.034218 0)
(10.0582 -0.0342878 0)
(10.0699 -0.0355781 0)
(10.0806 -0.0372731 0)
(10.0919 -0.0384087 0)
(10.1038 -0.0389668 0)
(10.1159 -0.0392363 0)
(10.128 -0.0394031 0)
(10.1399 -0.0394931 0)
(10.1518 -0.0395202 0)
(10.1636 -0.0394715 0)
(10.1753 -0.0393944 0)
(10.187 -0.0392801 0)
(10.1984 -0.0391898 0)
(10.2099 -0.039105 0)
(10.221 -0.0390774 0)
(10.0138 -0.036353 0)
(10.055 -0.054327 0)
(10.0888 -0.0525792 0)
(10.1105 -0.0514572 0)
(10.1246 -0.0525592 0)
(10.1351 -0.0537241 0)
(10.1437 -0.0542676 0)
(10.1506 -0.0544397 0)
(10.1556 -0.0544854 0)
(10.159 -0.0544974 0)
(10.161 -0.0544508 0)
(10.1618 -0.0543699 0)
(10.1617 -0.0542232 0)
(10.1609 -0.0540808 0)
(10.1592 -0.0538894 0)
(10.1573 -0.0537511 0)
(10.1545 -0.0535969 0)
(10.152 -0.053576 0)
(9.91262 -0.0304435 0)
(9.75504 -0.0464382 0)
(9.59237 -0.0456676 0)
(9.42517 -0.0446743 0)
(9.26083 -0.0446966 0)
(9.1035 -0.0445398 0)
(8.95403 -0.0439841 0)
(8.81202 -0.0432476 0)
(8.67679 -0.042473 0)
(8.54805 -0.0417016 0)
(8.42541 -0.0409227 0)
(8.30894 -0.0401528 0)
(8.19803 -0.0393829 0)
(8.09305 -0.0386537 0)
(7.99272 -0.0379345 0)
(7.89824 -0.0372824 0)
(7.80704 -0.0366453 0)
(7.72225 -0.0361337 0)
(-0.18932 0.380324 -2.27294e-22)
(-0.419469 0.164154 2.48261e-22)
(-0.49349 -0.0223964 0)
(-0.411529 -0.194746 0)
(-0.191383 -0.325215 0)
(0.117514 -0.400913 -2.63168e-22)
(0.479744 -0.432848 0)
(0.857413 -0.421266 0)
(1.2218 -0.381622 0)
(1.55146 -0.329856 0)
(1.83744 -0.272488 4.1647e-22)
(2.07451 -0.21575 0)
(2.2648 -0.163835 0)
(2.41283 -0.114193 0)
(2.52023 -0.0748651 0)
(2.58913 -0.0431518 7.30837e-22)
(2.6151 -0.0171665 0)
(2.59905 0.0112093 0)
(2.54115 0.0561319 0)
(2.43662 0.107657 0)
(2.29214 0.142594 0)
(2.11944 0.16343 0)
(1.90917 0.182046 0)
(1.67382 0.186683 6.61991e-22)
(1.42308 0.187436 -6.38426e-22)
(1.16676 0.188026 6.20172e-22)
(0.899324 0.189391 6.1045e-22)
(0.627307 0.172805 0)
(0.363582 0.134022 0)
(0.111211 0.112413 -6.40307e-22)
(-0.127518 0.117484 -6.65881e-22)
(-0.351991 0.127348 0)
(-0.571982 0.13749 0)
(-0.781456 0.136112 -7.90218e-22)
(-0.978349 0.130163 0)
(-1.16408 0.117194 0)
(-1.33437 0.0818969 9.46714e-22)
(-1.4906 0.0590568 0)
(-1.64092 0.0759615 1.04567e-21)
(-1.80637 0.0883297 2.18718e-21)
(-1.9593 0.0817253 0)
(-2.11447 0.0852861 0)
(-2.27464 0.102953 0)
(-2.44018 0.0914249 0)
(-2.60479 0.0764185 0)
(-2.77107 0.0813656 2.78734e-21)
(-2.93521 0.0832008 2.85161e-21)
(-3.0917 0.0708438 2.90037e-21)
(-3.22307 0.070696 0)
(-3.34481 0.0692559 -2.95962e-21)
(-3.44943 0.0528705 0)
(-3.53493 0.0452606 3.00776e-21)
(-3.61455 0.0420451 3.02754e-21)
(-3.68679 0.0323289 0)
(-3.74989 0.0303804 0)
(-3.8162 0.0280745 0)
(-3.8747 0.0247358 2.9865e-21)
(-3.94134 0.0288069 0)
(-4.01799 0.0286359 0)
(-4.08615 0.017195 0)
(-4.14732 0.00371693 0)
(-4.21133 0.0150442 0)
(-4.28669 0.00790273 0)
(-4.36042 0.0142143 0)
(-4.44483 0.0369227 0)
(-4.52845 0.0325324 -2.70003e-21)
(-4.60103 0.0228536 0)
(-4.66197 0.0237192 0)
(-4.73656 0.0135959 2.74229e-21)
(-4.79436 0.00414909 2.75908e-21)
(-4.85946 0.0109924 0)
(-4.93337 0.0275038 -2.77945e-21)
(-5.01347 0.0510679 2.7795e-21)
(-5.10217 0.0457476 0)
(-5.17822 0.0385052 -2.78033e-21)
(-5.25949 0.0491413 0)
(-5.3358 0.0409599 0)
(-5.38955 0.0287433 2.73282e-21)
(-5.42544 0.0194446 0)
(-5.442 0.00674169 -2.65798e-21)
(-5.43107 -0.0088919 0)
(-5.4002 -0.0221005 2.53679e-21)
(-5.36083 -0.0252396 2.46041e-21)
(-5.31794 -0.0217771 2.37156e-21)
(-5.27282 -0.0192909 4.54031e-21)
(-5.22035 -0.0246354 -4.31795e-21)
(-5.15557 -0.0324377 0)
(-5.08238 -0.0396983 0)
(-4.99497 -0.0469481 0)
(-4.91245 -0.0483018 -3.25005e-21)
(-4.83283 -0.0339182 -2.94422e-21)
(-4.7676 -0.0268504 2.63347e-21)
(-4.6942 -0.0311092 0)
(-4.61498 -0.0330766 -2.03497e-21)
(-4.52974 -0.0344134 -1.74738e-21)
(-4.43889 -0.0373602 -1.46862e-21)
(-4.34053 -0.0433155 0)
(-4.23208 -0.0536898 0)
(-4.10099 -0.0639725 0)
(-3.96614 -0.0700086 -3.7924e-22)
(-3.83857 -0.0555771 0)
(-3.73198 -0.0510427 0)
(-3.61102 -0.0598342 -4.29035e-22)
(-3.49525 -0.0471451 0)
(-3.40429 -0.0357703 0)
(-3.31093 -0.0343693 -1.08062e-21)
(-3.21714 -0.0331411 0)
(-3.12288 -0.0321549 0)
(-3.02942 -0.0314439 1.62731e-21)
(-2.93102 -0.0393432 1.79679e-21)
(-2.82763 -0.0373723 0)
(-2.7357 -0.0358978 -2.11354e-21)
(-2.62989 -0.0408073 0)
(-2.51404 -0.0429835 2.3908e-21)
(-2.39056 -0.0443679 0)
(-2.25962 -0.0470593 2.68003e-21)
(-2.11846 -0.0514978 2.84292e-21)
(-1.96634 -0.055517 0)
(-1.80478 -0.0588718 0)
(-1.63455 -0.0616568 0)
(-1.45769 -0.0636306 0)
(-1.27598 -0.065107 0)
(-1.08861 -0.0670216 0)
(-0.894667 -0.0691778 0)
(-0.695297 -0.0701281 4.41504e-21)
(-0.495058 -0.0687736 -4.56817e-21)
(-0.297738 -0.0653508 0)
(-0.107501 -0.0618905 0)
(0.0759666 -0.058567 0)
(0.247862 -0.056343 0)
(0.412169 -0.0519969 -1.00083e-20)
(0.553279 -0.0437062 0)
(0.681019 -0.0383276 9.96303e-21)
(0.794786 -0.0321022 -9.86257e-21)
(0.884835 -0.0243221 0)
(0.954639 -0.0175863 0)
(1.00949 -0.0135922 0)
(1.05826 -0.0123923 9.16979e-21)
(1.10487 -0.0121736 8.94569e-21)
(1.15361 -0.013286 0)
(1.21123 -0.0161641 8.50848e-21)
(1.28123 -0.0196788 8.32964e-21)
(1.36229 -0.022231 -8.19229e-21)
(1.4496 -0.0230374 0)
(1.53805 -0.0222544 0)
(1.62383 -0.0207551 -7.98379e-21)
(1.70594 -0.0191636 0)
(1.78352 -0.0174855 0)
(1.85543 -0.0155558 0)
(1.92147 -0.0138435 0)
(1.98541 -0.0130633 7.82952e-21)
(2.0494 -0.0124956 7.79126e-21)
(2.11001 -0.0111651 0)
(2.16374 -0.00952029 7.71409e-21)
(2.20851 -0.0079729 0)
(2.24364 -0.00666346 0)
(2.27014 -0.00526649 7.54067e-21)
(2.28661 -0.0035427 0)
(2.2937 0.00181437 7.35026e-21)
(2.27585 0.010832 0)
(2.22996 0.018962 0)
(2.15847 0.0223332 6.98355e-21)
(2.07793 0.018758 0)
(2.0074 0.0108023 6.72101e-21)
(1.95622 0.0015201 0)
(1.93207 -0.00473126 0)
(1.92642 -0.00428601 0)
(1.92939 -0.00278351 -6.50621e-21)
(1.93904 -0.00495719 0)
(1.95634 -0.00604024 6.54364e-21)
(1.97517 -0.00525788 0)
(1.99363 -0.00409383 0)
(2.00759 -0.0017485 0)
(2.00729 0.00020526 0)
(1.99667 0.00314114 0)
(1.97492 0.00122081 0)
(1.96413 0.00678363 0)
(1.91559 0.000928003 -1.27948e-20)
(1.91259 0.0233653 0)
(1.7653 0.00588838 0)
(0.00425061 0.795877 7.77261e-22)
(0.0727681 0.425887 -8.32486e-22)
(0.205544 -0.0172319 0)
(0.45412 -0.441051 7.11719e-22)
(0.765663 -0.799023 0)
(1.1188 -1.02844 2.60464e-22)
(1.4738 -1.13094 -8.4897e-22)
(1.80453 -1.13018 -9.22576e-22)
(2.10114 -1.05447 0)
(2.35725 -0.932548 -1.14374e-21)
(2.56962 -0.787819 -4.14925e-22)
(2.73863 -0.638359 0)
(2.86778 -0.505134 0)
(2.95833 -0.387202 0)
(3.00455 -0.270474 0)
(3.01246 -0.141788 -7.28622e-22)
(2.97479 -0.00998777 0)
(2.89769 0.116991 1.85826e-21)
(2.79057 0.23375 0)
(2.6545 0.3316 0)
(2.49283 0.415609 -1.76913e-21)
(2.29473 0.50359 0)
(2.06887 0.593713 1.65235e-21)
(1.82484 0.650903 -6.57916e-22)
(1.56393 0.678135 6.3415e-22)
(1.287 0.696211 -6.15805e-22)
(0.995907 0.703996 -6.06055e-22)
(0.697164 0.71147 0)
(0.387686 0.708812 0)
(0.069297 0.683106 6.36463e-22)
(-0.245079 0.626535 -9.32833e-22)
(-0.530671 0.571313 0)
(-0.802224 0.525949 0)
(-1.03539 0.483619 7.8698e-22)
(-1.26284 0.442863 0)
(-1.47238 0.412698 0)
(-1.68396 0.397731 -9.43163e-22)
(-1.89173 0.379741 0)
(-2.08656 0.373739 1.4046e-21)
(-2.27789 0.36218 -2.17947e-21)
(-2.45781 0.345214 0)
(-2.66127 0.354086 0)
(-2.84981 0.355883 -5.74359e-21)
(-3.03782 0.364919 -5.94753e-21)
(-3.23561 0.381789 -6.12815e-21)
(-3.41827 0.371753 3.49943e-21)
(-3.57653 0.348168 -2.84425e-21)
(-3.72034 0.311867 -9.37118e-21)
(-3.83818 0.256464 6.53732e-21)
(-3.93376 0.210813 2.95271e-21)
(-4.01531 0.177319 0)
(-4.0769 0.146938 -3.00106e-21)
(-4.12907 0.128448 3.65467e-21)
(-4.17851 0.116638 0)
(-4.22736 0.114087 0)
(-4.28526 0.112031 0)
(-4.34268 0.114527 -2.98134e-21)
(-4.40501 0.129316 0)
(-4.4722 0.130525 6.27525e-21)
(-4.55795 0.126042 0)
(-4.65602 0.133333 6.06599e-21)
(-4.75797 0.140411 0)
(-4.85511 0.158599 -5.94205e-21)
(-4.9492 0.163673 0)
(-5.01623 0.141918 5.88995e-21)
(-5.07085 0.128563 -3.18427e-21)
(-5.12306 0.114858 0)
(-5.18076 0.113069 -5.90801e-21)
(-5.25938 0.122731 -2.73834e-21)
(-5.33103 0.119135 -2.7553e-21)
(-5.41773 0.12767 0)
(-5.49672 0.128493 -3.21819e-21)
(-5.55304 0.119277 -2.77637e-21)
(-5.61324 0.119747 0)
(-5.66505 0.119952 2.77737e-21)
(-5.70329 0.107255 -5.94998e-21)
(-5.73032 0.082527 0)
(-5.74193 0.0522466 -2.72993e-21)
(-5.74246 0.0191763 0)
(-5.73083 -0.015053 8.29803e-21)
(-5.70393 -0.0503895 0)
(-5.6747 -0.0682847 -7.91017e-21)
(-5.63817 -0.0754355 -2.45894e-21)
(-5.58605 -0.0842197 2.66015e-21)
(-5.52149 -0.0963573 5.10188e-21)
(-5.44805 -0.111155 -4.85893e-21)
(-5.36637 -0.123204 0)
(-5.2794 -0.135819 0)
(-5.18945 -0.136825 0)
(-5.10859 -0.125258 1.02412e-20)
(-5.01038 -0.121861 2.94393e-21)
(-4.90964 -0.124748 -2.63335e-21)
(-4.80235 -0.130425 0)
(-4.69372 -0.137352 -2.50498e-21)
(-4.57771 -0.146867 1.74729e-21)
(-4.4583 -0.154341 1.46867e-21)
(-4.33474 -0.162897 0)
(-4.21103 -0.178442 0)
(-4.07866 -0.192101 0)
(-3.96931 -0.179281 3.80311e-22)
(-3.85536 -0.165837 0)
(-3.73918 -0.168342 -4.72327e-23)
(-3.62465 -0.163271 8.77501e-22)
(-3.51616 -0.146362 -9.1268e-22)
(-3.40103 -0.140293 0)
(-3.27931 -0.139467 -6.66661e-22)
(-3.15864 -0.137939 0)
(-3.0394 -0.137661 -2.52472e-21)
(-2.92157 -0.139866 1.27727e-21)
(-2.80934 -0.138114 1.46057e-21)
(-2.69663 -0.133397 0)
(-2.57895 -0.138712 6.00512e-21)
(-2.44858 -0.149931 -4.18278e-21)
(-2.31292 -0.159608 -2.3892e-21)
(-2.16738 -0.167953 0)
(-2.01409 -0.176393 -2.67848e-21)
(-1.85199 -0.186534 -8.25738e-21)
(-1.68164 -0.196455 0)
(-1.50265 -0.204901 -6.19142e-21)
(-1.31669 -0.211406 -6.61681e-21)
(-1.12531 -0.216144 -7.05427e-21)
(-0.929159 -0.220537 0)
(-0.727446 -0.22535 0)
(-0.520885 -0.229612 0)
(-0.311667 -0.230666 4.23908e-21)
(-0.102942 -0.227296 4.56456e-21)
(0.102996 -0.220144 0)
(0.302627 -0.21023 9.46854e-21)
(0.492937 -0.197826 9.65142e-21)
(0.667938 -0.183852 0)
(0.829064 -0.166641 9.99947e-21)
(0.976668 -0.148981 1.97231e-20)
(1.11723 -0.131762 -9.95386e-21)
(1.2382 -0.109575 -9.53877e-21)
(1.33632 -0.086875 0)
(1.41583 -0.0689955 0)
(1.48288 -0.0582585 0)
(1.54509 -0.0537905 -9.16037e-21)
(1.60723 -0.0540454 8.54543e-21)
(1.67619 -0.0596405 1.70325e-20)
(1.75674 -0.0692864 -8.49961e-21)
(1.84868 -0.0793506 7.96503e-21)
(1.94846 -0.086479 8.18346e-21)
(2.05267 -0.089335 0)
(2.15831 -0.0885151 0)
(2.26326 -0.0854764 -7.67631e-21)
(2.3664 -0.0810235 0)
(2.46583 -0.0754343 0)
(2.56051 -0.0699892 1.54958e-20)
(2.65179 -0.0664762 0)
(2.74287 -0.0649928 7.55921e-21)
(2.8324 -0.0624414 -7.78233e-21)
(2.91601 -0.056858 0)
(2.99072 -0.0490459 7.46767e-21)
(3.05379 -0.0401904 0)
(3.10485 -0.0312719 0)
(3.14465 -0.0225751 -7.53272e-21)
(3.17103 -0.0131497 1.46444e-20)
(3.18252 -5.60238e-05 -7.34239e-21)
(3.17539 0.0193824 0)
(3.15271 0.0383543 0)
(3.11633 0.0513456 6.67619e-21)
(3.07204 0.0530472 0)
(3.02386 0.0448847 6.419e-21)
(2.97889 0.0303727 0)
(2.93824 0.0135866 0)
(2.9021 -0.00070435 0)
(2.88197 -0.00941562 6.49914e-21)
(2.87158 -0.0138054 0)
(2.86934 -0.0165906 -6.53663e-21)
(2.87295 -0.0171397 0)
(2.88029 -0.0161215 0)
(2.88687 -0.00878552 1.29885e-20)
(2.88369 -0.000773855 -1.29693e-20)
(2.87876 0.00766977 0)
(2.86801 0.00728725 0)
(2.86304 0.0166882 0)
(2.82874 0.0147194 3.79569e-20)
(2.823 0.0524741 0)
(2.73376 0.0535057 -2.50729e-20)
(0.102263 0.325658 1.3851e-23)
(0.348755 -0.159031 1.17618e-21)
(0.717683 -0.739333 0)
(1.12504 -1.26642 -1.52384e-21)
(1.50898 -1.62605 0)
(1.83188 -1.79769 0)
(2.09092 -1.8069 -4.02926e-22)
(2.28947 -1.69725 9.19519e-22)
(2.4383 -1.51198 1.54132e-21)
(2.54713 -1.28553 1.1419e-21)
(2.6259 -1.04566 0)
(2.67924 -0.821036 0)
(2.70056 -0.607103 -2.05543e-21)
(2.68587 -0.389746 -4.28614e-21)
(2.63711 -0.186431 4.42059e-21)
(2.56308 0.00735113 0)
(2.46317 0.18744 4.54751e-21)
(2.34265 0.352683 -1.85734e-21)
(2.20415 0.509272 0)
(2.04359 0.650249 4.41734e-21)
(1.85928 0.793951 1.76703e-21)
(1.65639 0.919752 -4.19036e-21)
(1.45127 1.01509 -1.64902e-21)
(1.23501 1.08551 0)
(1.00268 1.13722 3.81798e-21)
(0.754995 1.18042 3.72654e-21)
(0.496597 1.20912 0)
(0.232704 1.22548 3.64649e-21)
(-0.0299913 1.22149 0)
(-0.285623 1.18727 3.72239e-21)
(-0.544695 1.13177 1.58752e-21)
(-0.793445 1.05669 0)
(-1.04983 0.973895 0)
(-1.29856 0.911942 0)
(-1.55281 0.862042 0)
(-1.7881 0.808038 0)
(-2.01708 0.757088 0)
(-2.23042 0.712735 5.41635e-21)
(-2.43383 0.687887 -8.11025e-21)
(-2.62955 0.672959 0)
(-2.82635 0.672839 0)
(-3.03004 0.67424 0)
(-3.22112 0.678328 -8.99272e-22)
(-3.41538 0.674692 5.94119e-21)
(-3.58247 0.649313 1.31341e-20)
(-3.72933 0.60398 -1.34208e-20)
(-3.85449 0.539333 -7.24391e-21)
(-3.96173 0.464225 6.47593e-21)
(-4.05462 0.389341 8.19204e-22)
(-4.13442 0.32063 7.38269e-21)
(-4.19914 0.263013 0)
(-4.24544 0.217856 7.4126e-21)
(-4.28862 0.19726 7.34439e-22)
(-4.33306 0.193632 0)
(-4.38327 0.199353 0)
(-4.44215 0.202813 -7.26884e-21)
(-4.50437 0.206156 0)
(-4.57093 0.214728 0)
(-4.65523 0.243052 7.57721e-21)
(-4.75383 0.265029 1.36351e-20)
(-4.84217 0.266442 -6.06758e-21)
(-4.92793 0.266328 0)
(-5.00029 0.259236 5.94361e-21)
(-5.05198 0.236625 0)
(-5.09007 0.201076 7.15265e-21)
(-5.13348 0.171015 5.88277e-21)
(-5.18895 0.17074 -1.30114e-20)
(-5.25797 0.198711 -7.11242e-21)
(-5.32426 0.205681 0)
(-5.38696 0.209366 1.30519e-20)
(-5.456 0.215863 0)
(-5.50356 0.201821 1.90958e-20)
(-5.54535 0.190004 1.31037e-20)
(-5.5786 0.175503 1.3085e-20)
(-5.59698 0.154974 -1.30332e-20)
(-5.60326 0.126746 1.88959e-20)
(-5.60241 0.0905792 0)
(-5.59153 0.0489414 0)
(-5.57696 0.00995715 -1.24404e-20)
(-5.55567 -0.0306016 -1.78466e-20)
(-5.53249 -0.069362 0)
(-5.50579 -0.0961279 5.37963e-21)
(-5.46508 -0.11922 0)
(-5.40863 -0.143735 -1.59153e-20)
(-5.34274 -0.166514 7.82768e-22)
(-5.271 -0.187567 -7.53787e-22)
(-5.19051 -0.207337 9.40552e-21)
(-5.10685 -0.221542 0)
(-5.02099 -0.223056 -8.2849e-21)
(-4.92105 -0.226901 6.98922e-22)
(-4.80582 -0.233207 0)
(-4.68631 -0.239917 0)
(-4.56359 -0.246687 0)
(-4.44119 -0.25555 4.54613e-21)
(-4.31809 -0.265994 0)
(-4.19738 -0.273629 0)
(-4.07694 -0.280282 0)
(-3.9588 -0.293191 0)
(-3.85075 -0.291493 0)
(-3.75199 -0.276401 1.70561e-21)
(-3.6421 -0.267958 0)
(-3.52606 -0.270352 5.23483e-23)
(-3.41427 -0.262469 -4.44876e-22)
(-3.29579 -0.251121 9.08393e-22)
(-3.16374 -0.250234 0)
(-3.03059 -0.248512 1.74255e-21)
(-2.90107 -0.243804 0)
(-2.77638 -0.238384 2.52116e-21)
(-2.65529 -0.234986 -2.89992e-21)
(-2.53802 -0.232597 -8.76141e-21)
(-2.41394 -0.235167 0)
(-2.27995 -0.247718 -1.07076e-20)
(-2.14135 -0.262478 -3.24871e-21)
(-2.00107 -0.27611 0)
(-1.85363 -0.288921 -8.65303e-21)
(-1.69862 -0.302394 -9.31457e-21)
(-1.53485 -0.31838 1.54473e-20)
(-1.36264 -0.334408 0)
(-1.1811 -0.34801 6.18717e-21)
(-0.992449 -0.358314 6.61231e-21)
(-0.797842 -0.366126 2.04965e-20)
(-0.59779 -0.373185 0)
(-0.392577 -0.37995 0)
(-0.184455 -0.384649 0)
(0.0239311 -0.384379 8.11428e-21)
(0.230171 -0.378043 0)
(0.432252 -0.365536 0)
(0.625724 -0.347332 -9.46303e-21)
(0.80673 -0.324369 -9.64552e-21)
(0.972225 -0.299271 0)
(1.12515 -0.274146 0)
(1.26975 -0.249763 -1.97104e-20)
(1.40343 -0.220604 0)
(1.51483 -0.183599 1.93788e-20)
(1.60889 -0.148136 1.85816e-20)
(1.68899 -0.120786 0)
(1.7608 -0.104561 0)
(1.82936 -0.0986857 -1.73338e-20)
(1.89942 -0.101451 -5.95885e-22)
(1.97681 -0.112396 -5.86495e-22)
(2.06341 -0.127817 0)
(2.15733 -0.142327 -3.20103e-20)
(2.25606 -0.152099 0)
(2.35794 -0.156108 0)
(2.46148 -0.155299 0)
(2.56544 -0.151371 1.56408e-20)
(2.66879 -0.145147 0)
(2.77015 -0.13717 -3.01667e-20)
(2.86923 -0.129715 -1.54859e-20)
(2.9672 -0.124774 0)
(3.06458 -0.121359 -1.537e-20)
(3.15832 -0.115191 0)
(3.24633 -0.104716 0)
(3.32731 -0.0910965 -4.47371e-20)
(3.39923 -0.0760137 2.94046e-20)
(3.46173 -0.0609183 0)
(3.51536 -0.0456916 2.88858e-20)
(3.55637 -0.0270761 -1.46341e-20)
(3.57973 -0.00321293 0)
(3.58307 0.024583 0)
(3.5713 0.0492191 0)
(3.55396 0.0644835 -4.00692e-20)
(3.53958 0.0676358 0)
(3.52209 0.0608923 -1.31229e-20)
(3.50454 0.0473092 0)
(3.48528 0.0341229 0)
(3.46062 0.0232381 0)
(3.43293 0.0108939 0)
(3.40241 -0.000781638 0)
(3.37495 -0.0099031 0)
(3.35713 -0.013911 -2.51521e-20)
(3.34262 -0.0134394 0)
(3.32659 -0.00575824 -1.298e-20)
(3.30445 0.00184746 3.8236e-20)
(3.2881 0.00904391 0)
(3.27238 0.0106487 0)
(3.26229 0.0242915 -2.47527e-20)
(3.2271 0.0311818 -2.51604e-20)
(3.20954 0.0671984 2.45101e-20)
(3.13657 0.0905164 2.5059e-20)
(0.0960522 -0.216183 -1.83997e-21)
(0.489384 -0.988528 -1.98049e-21)
(0.968009 -1.68164 -1.67509e-21)
(1.37025 -2.11928 -1.2417e-21)
(1.66241 -2.28551 0)
(1.85041 -2.25286 2.90786e-21)
(1.96079 -2.08326 -2.07142e-21)
(2.0211 -1.83317 0)
(2.0535 -1.55263 -1.54221e-21)
(2.06722 -1.27301 0)
(2.06867 -1.00504 4.66587e-21)
(2.05113 -0.736983 0)
(2.01049 -0.473582 2.05702e-21)
(1.95315 -0.229077 4.28963e-21)
(1.87383 0.00315957 -4.4242e-21)
(1.7769 0.225603 0)
(1.66288 0.43165 -4.55062e-21)
(1.53038 0.627386 0)
(1.38511 0.806755 0)
(1.21716 0.984597 -4.41917e-21)
(1.03859 1.14126 0)
(0.856718 1.26458 -8.93961e-22)
(0.669713 1.37004 0)
(0.472195 1.46268 0)
(0.259991 1.54066 8.89378e-22)
(0.0404862 1.59268 -3.72179e-21)
(-0.183079 1.62327 -4.53697e-21)
(-0.40682 1.63086 -3.63987e-21)
(-0.626269 1.61085 0)
(-0.837348 1.56579 -8.24144e-21)
(-1.05387 1.50459 0)
(-1.2695 1.44257 -4.72171e-21)
(-1.50651 1.39087 0)
(-1.74378 1.33813 0)
(-1.98089 1.27473 5.33082e-21)
(-2.21221 1.2065 0)
(-2.44156 1.14164 -5.86006e-21)
(-2.65287 1.0768 7.31819e-22)
(-2.85817 1.0378 1.20887e-20)
(-3.05047 1.00862 -1.34381e-20)
(-3.23013 0.994316 0)
(-3.39978 0.988191 0)
(-3.55041 0.971583 -8.43406e-21)
(-3.68752 0.928662 0)
(-3.80426 0.867327 -7.00664e-21)
(-3.90803 0.789293 7.14203e-21)
(-4.00213 0.703553 7.24172e-21)
(-4.09056 0.615129 0)
(-4.1703 0.52446 -7.35502e-21)
(-4.24371 0.437969 -7.38409e-21)
(-4.30161 0.3533 1.64209e-20)
(-4.34751 0.292194 -7.41607e-21)
(-4.39039 0.265751 -7.41601e-21)
(-4.43431 0.262387 0)
(-4.4817 0.272136 0)
(-4.53748 0.282725 7.27334e-21)
(-4.59511 0.298671 0)
(-4.66951 0.334713 0)
(-4.74852 0.368242 -1.38615e-20)
(-4.81801 0.374577 -1.36416e-20)
(-4.87738 0.364859 0)
(-4.9316 0.351289 0)
(-4.96972 0.319778 0)
(-4.98946 0.27499 0)
(-5.02235 0.250928 -1.30541e-20)
(-5.07499 0.25328 1.44269e-20)
(-5.13774 0.268567 1.30206e-20)
(-5.19465 0.284279 2.74188e-20)
(-5.24498 0.286508 0)
(-5.28864 0.280712 1.27812e-21)
(-5.32561 0.267332 0)
(-5.35357 0.244579 -1.31096e-20)
(-5.37682 0.220688 1.18851e-21)
(-5.38976 0.194143 -1.30971e-20)
(-5.39036 0.161541 1.30453e-20)
(-5.38175 0.123863 1.12453e-21)
(-5.36754 0.079577 0)
(-5.34693 0.032418 1.37534e-20)