/*--------------------------------*- C++ -*----------------------------------*\
| =========                 |                                                 |
| \\      /  F ield         | OpenFOAM: The Open Source CFD Toolbox           |
|  \\    /   O peration     | Version:  2112                                  |
|   \\  /    A nd           | Website:  www.openfoam.com                      |
|    \\/     M anipulation  |                                                 |
\*---------------------------------------------------------------------------*/
FoamFile
{
    version     2.0;
    format      ascii;
    arch        "LSB;label=32;scalar=64";
    class       volSymmTensorField;
    location    "0.14";
    object      turbulenceProperties:R;
}
// * * * * * * * * * * * * * * * * * * * * * * * * * * * * * * * * * * * * * //

dimensions      [0 2 -2 0 0 0 0];

internalField   nonuniform List<symmTensor> 
1580
(
(0.25091 -0.116604 -0 0.25068 -0 0.250696)
(0.251837 -0.117089 -0 0.251758 -0 0.251816)
(0.25443 -0.118272 -0 0.254258 -0 0.254359)
(0.256388 -0.119156 -0 0.256101 -0 0.256259)
(0.261397 -0.121443 -0 0.260963 -0 0.261144)
(0.264893 -0.123056 -0 0.264374 -0 0.264646)
(0.274407 -0.127442 -0 0.273807 -0 0.273995)
(0.280838 -0.130357 1.74433e-21 0.279845 -0 0.280336)
(0.245396 -0.0182741 -0 0.25287 -0 0.251691)
(0.243291 -0.0125763 -0 0.255004 -0 0.251533)
(0.242662 -0.00786835 -0 0.255354 -0 0.251706)
(0.242043 -0.00584266 -0 0.256392 -0 0.250973)
(0.243997 -0.00497697 -0 0.254115 -0 0.251151)
(0.242398 -0.00778217 -0 0.256773 -0 0.24961)
(0.248508 -0.00859177 -0 0.249386 -0 0.250683)
(0.240489 -0.0205429 -1.15081e-19 0.260304 -0 0.247608)
(0.247333 -0.0116113 -0 0.252506 -0 0.250083)
(0.242788 -0.00957147 -0 0.257358 -0 0.249587)
(0.238136 -0.00640791 -0 0.26207 -0 0.249264)
(0.234419 -0.00259574 -0 0.265639 -0 0.249019)
(0.233447 0.000376948 -0 0.266127 -0 0.248956)
(0.232138 0.00123281 -0 0.266893 -0 0.24865)
(0.236192 0.00174218 -0 0.261739 -0 0.248607)
(0.235437 -0.0139162 1.2097e-19 0.260561 -0 0.248515)
(0.248141 -0.00578275 -0 0.251749 -0 0.250028)
(0.244536 -0.00555872 -0 0.255366 -0 0.249819)
(0.239845 -0.00469554 -0 0.259865 -0 0.249741)
(0.234582 -0.00303883 -0 0.26479 -0 0.249697)
(0.230154 -0.00148404 -0 0.268705 -0 0.249675)
(0.226416 -0.000948692 -0 0.271967 -0 0.249361)
(0.226703 -0.00223079 -0 0.270395 -0 0.249552)
(0.225273 -0.0123981 1.01305e-21 0.270887 -0 0.248586)
(0.248317 -0.00101339 -0 0.251521 -0 0.250079)
(0.244989 -0.000987331 -0 0.25484 -0 0.249891)
(0.240259 -0.000896485 -0 0.25945 -0 0.249738)
(0.234354 -0.000751383 -0 0.265154 -0 0.249562)
(0.228183 -0.000986996 -0 0.270955 -0 0.249414)
(0.222832 -0.00189936 -0 0.275844 -0 0.249136)
(0.220195 -0.00475512 -0 0.277262 -0 0.249326)
(0.217224 -0.0114562 -1.95499e-19 0.279557 -0 0.248297)
(0.24821 0.00370404 -0 0.251624 -0 0.250084)
(0.244662 0.00366514 -0 0.255178 -0 0.249879)
(0.239612 0.00330638 -0 0.26013 -0 0.249706)
(0.23332 0.00229689 -0 0.266234 -0 0.24952)
(0.226678 0.000368431 -0 0.272503 -0 0.249379)
(0.221153 -0.00212262 -0 0.27752 -0 0.24916)
(0.217798 -0.00575516 -0 0.279776 -0 0.249233)
(0.214596 -0.0106146 -0 0.282079 -0 0.248503)
(0.247752 0.00981442 -0 0.252148 -0 0.250018)
(0.243388 0.00958367 -0 0.256552 -0 0.249783)
(0.237702 0.00821999 -0 0.261995 -0 0.249757)
(0.231416 0.00520759 -0 0.267805 -0 0.24986)
(0.225732 0.00101495 -0 0.272861 -0 0.249966)
(0.221998 -0.0030685 -0 0.276019 -0 0.249787)
(0.220165 -0.00642435 -0 0.276888 -0 0.249651)
(0.218423 -0.00943093 -0 0.277642 -0 0.248952)
(0.246236 0.0191679 -0 0.253599 -0 0.250088)
(0.239487 0.0154138 -0 0.261019 -0 0.249234)
(0.23259 0.00972775 -0 0.268145 -0 0.248747)
(0.228074 0.00313778 -0 0.272407 -0 0.248632)
(0.226655 -0.00224013 -0 0.273203 -0 0.248713)
(0.227827 -0.00562541 -0 0.271356 -0 0.248564)
(0.229255 -0.00592736 -0 0.268733 -0 0.248528)
(0.230158 -0.00612906 -0 0.266468 -0 0.2481)
(0.240484 0.0320045 -0 0.25607 -0 0.25342)
(0.238816 0.0213064 -0 0.258136 -0 0.252984)
(0.239005 0.0142781 -0 0.258376 -0 0.252493)
(0.240756 0.0120448 -0 0.257315 -0 0.251731)
(0.242489 0.0141849 -0 0.256076 -0 0.251119)
(0.244212 0.0186403 -0 0.254915 -0 0.250532)
(0.244993 0.0256135 -0 0.254503 -0 0.250353)
(0.246121 0.0322424 3.20782e-20 0.254503 -0 0.250188)
(0.251651 0.116931 -0 0.251353 -0 0.251387)
(0.255161 0.118599 -0 0.254941 -0 0.255052)
(0.259958 0.120796 -0 0.259588 -0 0.259785)
(0.266891 0.123967 -0 0.266308 -0 0.266589)
(0.275955 0.128139 -0 0.275196 -0 0.275553)
(0.288993 0.134168 -0 0.28809 -0 0.28852)
(0.306014 0.142062 -0 0.305012 -0 0.305506)
(0.330379 0.153371 -1.04739e-21 0.329285 -0 0.329833)
(0.0595473 -0.00144531 -0 0.0358746 -0 0.0481483)
(0.124795 0.0115826 -0 0.070157 -0 0.0976055)
(0.196508 0.0332383 -3.15122e-21 0.110758 -0 0.152609)
(0.261721 0.059525 4.30743e-20 0.157046 -1.56047e-20 0.208405)
(0.319099 0.0860852 4.38511e-21 0.207519 6.83298e-21 0.262289)
(0.371083 0.110874 -0 0.259488 -0 0.314181)
(0.41925 0.133831 -0 0.311139 -0 0.364011)
(0.464064 0.155019 -5.59883e-21 0.361521 -0 0.411606)
(0.505476 0.17439 8.92405e-20 0.410011 -7.86895e-21 0.456609)
(0.54334 0.191791 -8.56946e-20 0.456113 7.118e-21 0.498659)
(0.577625 0.207119 -6.29192e-20 0.49937 1.10239e-20 0.537464)
(0.608408 0.220378 -4.55791e-21 0.539428 -0 0.572894)
(0.635757 0.23165 -2.75381e-23 0.57617 9.39891e-21 0.605019)
(0.663704 0.242453 -0 0.614568 -0 0.638234)
(0.69217 0.252551 -2.30912e-23 0.654922 7.88118e-21 0.672718)
(0.71787 0.260688 -0 0.693004 -0 0.704778)
(0.74104 0.266859 -0 0.728748 -0 0.734389)
(0.762035 0.271053 -0 0.762259 -0 0.76172)
(0.782115 0.273342 -6.41019e-21 0.794284 -0 0.787699)
(0.79933 0.273246 1.23478e-19 0.822906 1.999e-20 0.810477)
(0.813678 0.270924 1.20255e-20 0.848371 -0 0.83024)
(0.824846 0.266358 -1.17843e-19 0.87017 -2.02109e-20 0.846596)
(0.833063 0.259664 -5.54954e-21 0.888339 -0 0.85968)
(0.837368 0.250807 -0 0.901721 -0 0.868438)
(0.838705 0.240078 -0 0.911192 -0 0.873765)
(0.838033 0.227766 -2.70911e-21 0.917665 7.39866e-21 0.876593)
(0.835877 0.214111 8.77598e-20 0.921628 1.08445e-20 0.877444)
(0.830453 0.199066 8.53317e-20 0.921177 1.58631e-20 0.87448)
(0.823166 0.183 2.08414e-21 0.91775 -0 0.869091)
(0.813515 0.166091 -7.25795e-24 0.910816 2.47718e-21 0.860774)
(0.802301 0.148638 2.18488e-23 0.901256 -0 0.850385)
(0.789565 0.130848 -5.17424e-20 0.889179 -1.00152e-20 0.837987)
(0.775644 0.112933 4.3725e-20 0.875057 9.82534e-21 0.823984)
(0.760722 0.0950651 -3.75651e-20 0.859187 -9.36911e-21 0.808611)
(0.745035 0.0774034 2.32204e-21 0.84191 -0 0.792159)
(0.728765 0.0600822 2.48822e-20 0.823528 4.82792e-21 0.774871)
(0.712087 0.0432068 1.29278e-20 0.804358 7.81217e-21 0.756989)
(0.695156 0.0268515 -1.19311e-20 0.784674 -1.22035e-20 0.738726)
(0.678107 0.0110669 1.99531e-21 0.764728 -0 0.720275)
(0.66107 -0.00412767 -0 0.744754 -0 0.701812)
(0.644145 -0.0187253 5.51895e-21 0.724908 -0 0.683465)
(0.627445 -0.032724 -2.29912e-20 0.70537 1.06867e-20 0.665388)
(0.611163 -0.0461613 -5.32854e-21 0.686445 -0 0.647825)
(0.59566 -0.0591038 -6.03504e-21 0.668584 -0 0.631189)
(0.58231 -0.0717372 4.91919e-20 0.653167 -8.51941e-21 0.61679)
(0.572437 -0.084214 -3.81124e-22 0.641944 8.02186e-21 0.606365)
(0.565096 -0.0968981 6.50373e-20 0.632656 -7.52924e-21 0.597676)
(0.55636 -0.108799 6.06494e-21 0.624745 8.41678e-21 0.590464)
(0.554451 -0.12399 -0 0.61786 -0 0.583844)
(0.532326 -0.131729 -0 0.595108 -0 0.56547)
(0.066787 -0.010949 -0 0.0387495 -0 0.0523066)
(0.139006 -0.00978121 7.63027e-23 0.0820497 -1.60406e-20 0.109024)
(0.202535 -0.0177028 5.58095e-21 0.127264 -2.16203e-20 0.163468)
(0.269528 -0.0319168 -7.21302e-20 0.184831 3.6015e-20 0.227584)
(0.349226 -0.0547293 -9.85271e-20 0.258762 5.71098e-20 0.306177)
(0.447045 -0.0870874 -1.35671e-20 0.34957 -0 0.401883)
(0.558737 -0.126859 -1.79329e-22 0.452587 3.76992e-20 0.510387)
(0.679043 -0.171851 1.68707e-20 0.5648 -0 0.627553)
(0.802572 -0.220128 -3.04554e-19 0.683349 -1.99178e-20 0.749271)
(0.92495 -0.270193 3.52661e-19 0.805607 -4.51872e-20 0.872001)
(1.04286 -0.32089 -1.05376e-20 0.928615 -1.99129e-20 0.992534)
(1.15394 -0.371037 2.65418e-20 1.04916 -0 1.10824)
(1.25636 -0.419422 -3.68822e-19 1.16481 4.26185e-20 1.21735)
(1.36366 -0.471935 -1.43089e-20 1.29038 -0 1.33386)
(1.47661 -0.528854 -3.55334e-19 1.42721 -1.52161e-19 1.45851)
(1.58174 -0.583111 -4.14639e-20 1.56001 -0 1.57693)
(1.6774 -0.633281 5.67556e-22 1.68606 -1.19314e-19 1.68679)
(1.76163 -0.677497 -0 1.8019 -0 1.78554)
(1.82966 -0.711882 1.08174e-19 1.90371 -0 1.87055)
(1.88687 -0.74169 -1.5015e-18 1.99749 -2.0373e-19 1.94718)
(1.93629 -0.76804 -2.07832e-19 2.08289 1.064e-19 2.01539)
(1.97763 -0.790993 1.41354e-18 2.15905 3.48316e-19 2.07467)
(2.0107 -0.810307 9.72713e-20 2.22518 -0 2.1247)
(2.03568 -0.826229 -0 2.28089 -0 2.16543)
(2.05298 -0.838553 3.93569e-20 2.32609 -0 2.19702)
(2.06312 -0.847033 -4.52205e-19 2.36093 -2.47072e-19 2.21977)
(2.06565 -0.851753 -5.62801e-19 2.38464 -1.08227e-19 2.23308)
(2.06178 -0.853474 -8.54135e-19 2.39831 -2.9999e-19 2.23816)
(2.05425 -0.852959 -2.53803e-20 2.40463 -0 2.23766)
(2.04051 -0.849379 -1.60085e-19 2.40073 -2.26279e-19 2.22887)
(2.02198 -0.843195 -1.1922e-20 2.38828 -0 2.21336)
(1.99944 -0.834748 3.31105e-19 2.36835 -1.40394e-19 2.19209)
(1.9735 -0.824331 -2.82488e-19 2.34189 -6.53448e-20 2.16582)
(1.94467 -0.812301 2.42381e-19 2.30991 6.4799e-20 2.13531)
(1.91343 -0.799007 -3.24159e-20 2.27336 -0 2.10127)
(1.88025 -0.784755 1.34997e-19 2.23317 -2.09202e-19 2.06441)
(1.84559 -0.7697 -9.29229e-20 2.19016 -6.08777e-20 2.02538)
(1.80982 -0.754073 5.03463e-19 2.14509 -1.5142e-20 1.98473)
(1.77322 -0.738041 1.18874e-20 2.0986 -0 1.94299)
(1.73608 -0.721789 -0 2.05134 -0 1.90058)
(1.69857 -0.705426 -3.48509e-20 2.00376 -0 1.85781)
(1.66082 -0.689036 1.53358e-19 1.95632 -1.02998e-19 1.81503)
(1.62305 -0.672768 3.32421e-20 1.90963 1.31864e-19 1.7726)
(1.58536 -0.65669 3.84532e-20 1.86414 -0 1.73088)
(1.54828 -0.641053 -2.92194e-19 1.82036 2.36081e-19 1.69021)
(1.51157 -0.625938 -8.05727e-19 1.77917 3.3759e-20 1.65138)
(1.4768 -0.611593 -4.31242e-19 1.74001 -6.26792e-20 1.61353)
(1.43951 -0.599681 -9.17453e-19 1.70624 2.30095e-20 1.58017)
(1.41543 -0.589772 -3.84787e-20 1.67221 -0 1.54615)
(1.35641 -0.583144 7.41282e-22 1.64249 -1.55835e-19 1.51053)
(0.0642431 -0.0172184 -5.75121e-21 0.042823 -0 0.0540714)
(0.136384 -0.0219672 1.56046e-20 0.0935753 -4.85027e-20 0.115204)
(0.201177 -0.0401924 8.03395e-20 0.148615 -8.33709e-20 0.175747)
(0.279501 -0.0673406 2.39462e-20 0.225669 -1.32229e-20 0.254564)
(0.381587 -0.107487 9.00119e-20 0.326897 -6.69689e-20 0.356165)
(0.507577 -0.160214 3.56556e-20 0.445837 -8.20635e-20 0.477279)
(0.650325 -0.220731 -1.9334e-19 0.575917 6.1513e-20 0.612332)
(0.801301 -0.284889 -1.24899e-19 0.715214 -1.42913e-19 0.756282)
(0.953992 -0.350317 3.51902e-19 0.862429 -6.01981e-20 0.905286)
(1.10421 -0.416056 3.78081e-20 1.01577 2.5306e-19 1.05644)
(1.24882 -0.481537 5.47347e-19 1.17159 -1.15068e-19 1.20613)
(1.38567 -0.545647 7.55627e-20 1.32481 -0 1.35082)
(1.51298 -0.606607 3.90682e-19 1.47151 -2.17393e-19 1.4877)
(1.6474 -0.671835 -2.02174e-19 1.63016 -0 1.63402)
(1.78918 -0.741109 1.31927e-18 1.80184 1.73389e-19 1.79077)
(1.92195 -0.806779 8.70984e-20 1.96821 -0 1.94065)
(2.04382 -0.868066 6.1545e-19 2.12675 6.32206e-20 2.08135)
(2.1534 -0.924415 1.47321e-19 2.27523 2.95968e-19 2.21097)
(2.24981 -0.975504 -1.26973e-19 2.41236 -0 2.32796)
(2.3341 -1.02079 1.55133e-18 2.5371 1.5763e-20 2.43292)
(2.40712 -1.06073 -2.91418e-20 2.64837 -5.26292e-19 2.5257)
(2.46899 -1.09548 -1.71413e-18 2.74544 -6.60173e-19 2.60567)
(2.51925 -1.12453 -2.25345e-19 2.82763 -2.23029e-19 2.6723)
(2.55776 -1.14769 1.18329e-21 2.89487 -2.01063e-19 2.72555)
(2.58501 -1.1651 -6.89738e-20 2.94754 1.77611e-19 2.76586)
(2.60178 -1.17712 8.04204e-19 2.98617 2.90036e-19 2.79386)
(2.60827 -1.1836 -2.67226e-19 3.01076 6.79561e-19 2.80962)
(2.60627 -1.18551 6.41773e-19 3.02288 2.1147e-19 2.81484)
(2.59724 -1.1834 2.21082e-20 3.0237 -0 2.8109)
(2.58013 -1.17684 2.93343e-19 3.01236 3.05435e-19 2.79681)
(2.55607 -1.16636 1.77907e-20 2.99057 -0 2.77397)
(2.52639 -1.15258 -9.20293e-19 2.95992 8.28028e-19 2.74386)
(2.49197 -1.13595 4.18733e-21 2.92155 3.96254e-21 2.70755)
(2.45362 -1.11688 2.53002e-22 2.87662 -4.45007e-20 2.66599)
(2.41182 -1.09561 3.01464e-20 2.82634 1.11618e-19 2.62004)
(2.3672 -1.07284 -5.43012e-19 2.7721 3.64576e-19 2.57068)
(2.32054 -1.04898 5.49507e-20 2.71483 1.79788e-20 2.51875)
(2.27239 -1.02437 -2.32158e-18 2.65534 5.66345e-19 2.46493)
(2.22314 -0.999225 -8.3138e-20 2.59436 -0 2.40985)
(2.17322 -0.973794 -0 2.53251 -0 2.35399)
(2.1227 -0.948058 1.66709e-21 2.47031 -2.8327e-19 2.29762)
(2.07164 -0.922302 1.22505e-19 2.40856 5.854e-20 2.24122)
(2.0204 -0.8968 -3.78782e-18 2.34785 -8.96674e-20 2.18519)
(1.96896 -0.871524 1.13778e-20 2.28858 -0 2.12984)
(1.91778 -0.846943 -4.07403e-18 2.23124 4.32588e-19 2.07544)
(1.86625 -0.822985 1.22816e-18 2.17689 1.04587e-19 2.02284)
(1.81634 -0.800657 4.1931e-18 2.12515 2.04477e-19 1.97115)
(1.76318 -0.779658 1.75766e-18 2.07935 -2.43037e-19 1.92394)
(1.72124 -0.763022 -7.06335e-20 2.0343 -0 1.8757)
(1.64938 -0.748803 4.44086e-18 2.00403 -4.15552e-19 1.8327)
(0.0586752 -0.019712 8.20318e-21 0.04708 -0 0.0533383)
(0.124725 -0.0271313 -2.44281e-20 0.102787 7.30764e-20 0.113835)
(0.185871 -0.0483319 -1.28314e-19 0.161881 3.75529e-19 0.174276)
(0.262181 -0.0773495 -6.14172e-20 0.242872 -0 0.253281)
(0.365874 -0.119403 1.09246e-19 0.346896 -1.89082e-19 0.356843)
(0.497473 -0.175085 5.35869e-20 0.468853 -5.24355e-20 0.48275)
(0.648776 -0.239717 3.02402e-19 0.605389 -3.54043e-19 0.626294)
(0.810317 -0.309566 3.25782e-19 0.757125 9.5962e-22 0.782853)
(0.974944 -0.382283 -3.12864e-19 0.922143 7.78204e-20 0.947937)
(1.14005 -0.457312 -3.54362e-19 1.09823 -1.2623e-19 1.11901)
(1.30248 -0.534626 -1.86729e-19 1.27907 6.134e-19 1.29088)
(1.45911 -0.611845 -1.27177e-19 1.45698 -2.89572e-19 1.45833)
(1.60685 -0.686599 5.4973e-19 1.62712 -4.27046e-19 1.61746)
(1.76448 -0.767135 3.2865e-19 1.81073 -0 1.78817)
(1.93184 -0.852267 -9.8104e-19 2.0091 9.45185e-19 1.97116)
(2.08989 -0.933025 -2.1277e-19 2.20103 -0 2.14632)
(2.23661 -1.00808 -8.08106e-19 2.38295 2.71432e-19 2.31086)
(2.36998 -1.07694 1.65171e-19 2.55264 -8.13418e-19 2.4627)
(2.48885 -1.1397 -2.01022e-19 2.70889 -0 2.59991)
(2.59364 -1.19596 -1.66354e-19 2.84905 2.17093e-19 2.72207)
(2.6844 -1.24519 4.32528e-19 2.97165 2.27987e-19 2.82867)
(2.76124 -1.2875 4.75201e-19 3.07622 1.13279e-19 2.91921)
(2.82356 -1.32268 -8.86876e-19 3.16239 1.4506e-18 2.99308)
(2.87101 -1.35096 -8.39856e-19 3.2306 6.77125e-19 3.05071)
(2.90439 -1.37195 1.3957e-18 3.28157 -1.04568e-18 3.09289)
(2.92477 -1.38593 4.60497e-20 3.31606 -1.61811e-19 3.12033)
(2.93293 -1.3932 2.00524e-18 3.33501 -1.5977e-18 3.13394)
(2.93085 -1.39416 -1.96266e-18 3.33981 1.24508e-18 3.13529)
(2.92024 -1.39001 2.98194e-20 3.33244 -0 3.12626)
(2.89914 -1.37996 -2.15048e-18 3.3115 1.02621e-18 3.10524)
(2.86987 -1.36504 3.40139e-20 3.2799 -5.23679e-20 3.07478)
(2.83401 -1.3461 1.388e-18 3.2394 -6.99083e-19 3.03656)
(2.79262 -1.32379 -2.38589e-20 3.19129 -0 2.99175)
(2.74674 -1.29879 2.80931e-18 3.13696 -6.55058e-19 2.94136)
(2.69679 -1.27223 -5.72959e-18 3.0777 9.77946e-19 2.88648)
(2.64358 -1.24419 -6.10184e-20 3.0148 -5.9083e-20 2.82838)
(2.58817 -1.21511 -5.53655e-20 2.94911 -3.32028e-19 2.76778)
(2.53117 -1.18525 2.33635e-18 2.88143 -7.02649e-19 2.70539)
(2.47305 -1.1549 5.63169e-20 2.8125 -0 2.64185)
(2.41444 -1.12423 -1.54489e-19 2.74267 4.84031e-19 2.57768)
(2.35522 -1.09286 6.95212e-18 2.67253 -4.91562e-19 2.51312)
(2.29522 -1.06163 -1.89039e-19 2.60336 -0 2.44867)
(2.23514 -1.03082 1.30233e-17 2.53533 -1.96587e-18 2.38468)
(2.17477 -1.00005 3.28159e-19 2.46885 -0 2.32138)
(2.1144 -0.970034 -1.14243e-18 2.40444 -8.27751e-19 2.25894)
(2.05333 -0.94076 -7.19438e-18 2.34352 9.33048e-19 2.19829)
(1.99373 -0.913134 -1.42867e-17 2.28458 3.33114e-19 2.13841)
(1.9305 -0.886789 -3.70827e-19 2.23287 8.59302e-19 2.08263)
(1.87659 -0.863639 5.13892e-21 2.17944 -7.23564e-19 2.02567)
(1.79803 -0.84496 1.09453e-18 2.14697 9.21103e-19 1.97562)
(0.0534872 -0.0203191 -1.14858e-20 0.0497761 -0 0.0518796)
(0.113914 -0.0289704 2.81397e-20 0.108655 -7.96381e-20 0.111075)
(0.172248 -0.0509956 4.11462e-20 0.169527 -2.7135e-20 0.170853)
(0.246193 -0.0798835 -5.54984e-20 0.250487 -0 0.248478)
(0.347314 -0.1215 4.81696e-20 0.35217 6.14833e-19 0.349831)
(0.476893 -0.17761 -1.0024e-19 0.472984 4.7253e-19 0.474759)
(0.62748 -0.243961 1.64233e-20 0.614093 1.87143e-19 0.62069)
(0.791306 -0.317728 -3.42677e-19 0.777915 6.60222e-19 0.784673)
(0.96347 -0.397006 -4.93491e-19 0.961629 -6.04943e-20 0.962833)
(1.14036 -0.483013 7.30387e-19 1.15973 -7.68329e-19 1.15062)
(1.31764 -0.572612 4.26159e-19 1.36199 -5.13395e-19 1.34043)
(1.49062 -0.661178 -6.76125e-19 1.55861 3.43211e-19 1.52524)
(1.65447 -0.745299 -1.60912e-19 1.74533 6.93027e-19 1.70056)
(1.83016 -0.835379 4.05297e-19 1.94575 9.12078e-19 1.88871)
(2.0171 -0.92975 8.02596e-19 2.16142 -1.45061e-18 2.09023)
(2.19387 -1.02011 -2.63352e-19 2.36964 -0 2.28265)
(2.35873 -1.10611 -1.3328e-18 2.56568 9.68416e-19 2.46257)
(2.50889 -1.18746 -2.24155e-19 2.74674 -9.28983e-19 2.62799)
(2.64302 -1.26182 2.45426e-19 2.91077 -0 2.77717)
(2.76092 -1.32837 -0 3.0557 -0 2.90863)
(2.86229 -1.38618 2.86727e-21 3.18026 -3.87044e-19 3.0217)
(2.94713 -1.43537 3.33003e-19 3.28438 3.65233e-19 3.11625)
(3.01494 -1.47354 3.96937e-18 3.36776 -2.27962e-18 3.1919)
(3.06654 -1.49968 -1.81569e-18 3.43069 1.56237e-18 3.24915)
(3.10257 -1.51789 -1.92511e-18 3.47447 7.91401e-19 3.28902)
(3.12382 -1.52867 -3.35705e-18 3.50054 1.17566e-18 3.31263)
(3.13148 -1.53262 -2.06165e-18 3.51029 3.74879e-19 3.32135)
(3.12829 -1.53096 6.53414e-18 3.50616 -2.5028e-18 3.31764)
(3.11442 -1.52389 -7.104e-20 3.48901 -0 3.30207)
(3.08878 -1.51104 7.36017e-18 3.45854 -2.58069e-18 3.27404)
(3.05458 -1.49397 -4.59772e-18 3.41827 1.28168e-18 3.23681)
(3.01309 -1.47332 -9.41384e-18 3.36973 2.37334e-18 3.19181)
(2.9655 -1.44969 3.24163e-20 3.31442 -0 3.14038)
(2.91269 -1.42292 -4.13251e-18 3.25395 1.09606e-18 3.08379)
(2.85622 -1.39 1.87986e-17 3.18876 -4.29198e-18 3.02292)
(2.7969 -1.35549 2.86095e-20 3.12015 -0 2.95891)
(2.73548 -1.31984 1.10081e-17 3.04913 -8.69357e-19 2.89262)
(2.67251 -1.28338 1.16624e-19 2.97651 1.58419e-19 2.82475)
(2.60851 -1.24663 1.70428e-19 2.90299 -0 2.75591)
(2.54417 -1.20967 -1.14736e-17 2.82903 1.63515e-18 2.68643)
(2.47919 -1.17436 -1.03186e-17 2.75532 1.87067e-18 2.61672)
(2.4134 -1.13982 -1.79618e-19 2.68274 -0 2.5475)
(2.34783 -1.10586 1.53747e-18 2.61104 1.83427e-18 2.47886)
(2.28206 -1.0716 -2.20628e-19 2.54087 -0 2.41103)
(2.21603 -1.0382 1.09367e-17 2.4729 -1.15012e-18 2.34402)
(2.14913 -1.00577 -1.60396e-18 2.40876 -1.54514e-18 2.27875)
(2.08358 -0.974679 2.40682e-17 2.3457 -3.34434e-18 2.21407)
(2.01432 -0.945088 -1.24446e-17 2.29092 -2.22349e-20 2.15309)
(1.95265 -0.917012 1.2787e-17 2.23201 6.71825e-20 2.09085)
(1.87059 -0.89594 -1.14549e-17 2.19751 2.15298e-18 2.03558)
(0.0493016 -0.0201815 1.56259e-20 0.0512402 -0 0.0502915)
(0.104967 -0.0292384 -4.25886e-20 0.11103 7.31307e-19 0.107784)
(0.160869 -0.0513393 -5.3706e-20 0.172115 -6.25123e-19 0.166463)
(0.231761 -0.0791548 1.62305e-19 0.250898 6.69249e-19 0.241471)
(0.328568 -0.119359 3.03939e-19 0.349234 -1.62961e-19 0.339072)
(0.454869 -0.175279 -1.64021e-19 0.470571 -2.77308e-19 0.462788)
(0.604773 -0.243287 -0 0.619396 -0 0.612248)
(0.772358 -0.322571 1.72692e-19 0.797686 -4.5381e-19 0.785262)
(0.951985 -0.409747 2.27623e-19 0.9986 6.67778e-20 0.975547)
(1.13988 -0.5043 -4.83348e-19 1.2148 -5.63518e-19 1.17769)
(1.33066 -0.602868 -3.066e-19 1.43226 1.4924e-19 1.38183)
(1.5176 -0.698751 8.35745e-19 1.6406 -8.93089e-19 1.57953)
(1.69405 -0.788874 5.48266e-19 1.83729 5.72451e-19 1.76634)
(1.88249 -0.885688 1.39704e-18 2.04874 -1.37656e-18 1.96595)
(2.08248 -0.99252 -1.41247e-18 2.27606 -6.53444e-19 2.1792)
(2.27074 -1.09559 5.61768e-19 2.49428 -1.39855e-18 2.3826)
(2.446 -1.18936 1.41666e-18 2.69793 -1.90483e-18 2.57216)
(2.60704 -1.26901 -3.46568e-18 2.88303 2.87866e-18 2.74523)
(2.7516 -1.34022 2.51134e-19 3.04762 1.27618e-18 2.89978)
(2.8782 -1.40234 -2.09556e-19 3.19047 -0 3.03445)
(2.98618 -1.45508 -4.26196e-18 3.31095 2.37387e-18 3.14862)
(3.07554 -1.49852 3.06377e-20 3.40946 1.04229e-18 3.24255)
(3.14558 -1.5325 -3.26695e-18 3.4862 2.98599e-19 3.31606)
(3.19753 -1.5575 9.40976e-18 3.54198 -3.05314e-18 3.36997)
(3.2327 -1.57405 -3.10088e-19 3.5778 4.34668e-19 3.40536)
(3.25194 -1.58275 -1.47185e-18 3.59546 1.09046e-18 3.42373)
(3.25719 -1.58447 -6.36284e-18 3.59668 2.56712e-18 3.42688)
(3.25143 -1.58063 -5.15707e-18 3.58466 1.16692e-18 3.41788)
(3.23298 -1.57063 -3.05311e-21 3.55873 3.24578e-19 3.39562)
(3.20317 -1.55521 -1.2995e-17 3.5208 3.79194e-18 3.36174)
(3.16475 -1.53565 6.24227e-18 3.47367 -1.56823e-18 3.31892)
(3.11893 -1.5126 1.28637e-17 3.41897 -3.18287e-18 3.26865)
(3.06695 -1.48672 -8.84802e-21 3.35829 1.45855e-19 3.21235)
(3.00959 -1.45856 2.71253e-21 3.2934 -4.17732e-19 3.15142)
(2.94814 -1.42861 2.1885e-18 3.22508 9.52812e-19 3.08675)
(2.88404 -1.39736 2.51447e-19 3.15389 -0 3.01918)
(2.8179 -1.36518 -3.29613e-17 3.08078 4.31625e-18 2.94963)
(2.75026 -1.33236 -2.50672e-19 3.00652 -0 2.87875)
(2.68164 -1.29917 5.81033e-23 2.93169 -0 2.80708)
(2.61203 -1.26577 -1.81991e-18 2.85731 -1.82016e-18 2.73517)
(2.54251 -1.22555 5.23976e-21 2.78272 -7.58053e-19 2.66307)
(2.47308 -1.1856 2.20767e-19 2.70874 -0 2.59129)
(2.40417 -1.14641 -1.75536e-17 2.63554 4.51801e-19 2.51994)
(2.33509 -1.10956 -2.15944e-19 2.56416 -0 2.44944)
(2.26561 -1.07421 -2.39343e-19 2.49476 -7.08545e-19 2.37988)
(2.19527 -1.04007 1.80806e-17 2.4292 3.81728e-20 2.31204)
(2.12609 -1.0068 1.31603e-18 2.36381 3.71801e-18 2.2445)
(2.05328 -0.975231 1.86622e-17 2.30728 -2.61573e-18 2.18042)
(1.98664 -0.943863 -1.80928e-17 2.24503 4.48067e-18 2.11495)
(1.90284 -0.92114 -2.01154e-17 2.20829 -1.35069e-18 2.05628)
(0.0464742 -0.0199295 2.03598e-20 0.0520549 -0 0.049216)
(0.0983515 -0.0291482 7.53784e-20 0.111801 -4.84627e-19 0.104954)
(0.152482 -0.0511523 5.37519e-21 0.172864 3.74987e-19 0.162724)
(0.220485 -0.0776843 2.4443e-19 0.249244 8.46823e-19 0.23502)
(0.313713 -0.116437 -5.69862e-19 0.345396 -1.84729e-18 0.329699)
(0.437997 -0.172289 1.9811e-19 0.46932 -0 0.453717)
(0.588223 -0.24267 -0 0.626814 -0 0.607605)
(0.759791 -0.32754 -1.82341e-19 0.817899 -0 0.788967)
(0.947512 -0.420906 -1.57653e-18 1.03315 -4.86593e-19 0.99046)
(1.14577 -0.523004 -1.3078e-18 1.26286 2.09388e-18 1.20445)
(1.34815 -0.629224 2.32427e-18 1.49022 3.30264e-19 1.41935)
(1.54588 -0.730334 -3.32338e-18 1.70567 -1.27953e-18 1.62587)
(1.73078 -0.829149 1.19579e-19 1.90915 -2.68776e-18 1.81976)
(1.92549 -0.937212 -2.5926e-18 2.12873 -1.45541e-18 2.02708)
(2.1344 -1.03936 1.73514e-20 2.36239 1.25867e-18 2.24835)
(2.33234 -1.13618 -4.78829e-18 2.58385 1.9549e-18 2.45813)
(2.51573 -1.22595 -4.50563e-18 2.78922 9.50873e-19 2.65279)
(2.68323 -1.30756 4.78824e-18 2.97478 3.66161e-19 2.82945)
(2.83302 -1.37996 5.84365e-18 3.13765 -2.50097e-18 2.98566)
(2.96313 -1.44248 -5.41484e-20 3.27711 2.61192e-18 3.12031)
(3.07294 -1.49489 5.96324e-18 3.3929 -2.88578e-18 3.23297)
(3.1627 -1.53741 7.4468e-18 3.48581 -6.00304e-19 3.32415)
(3.23186 -1.56991 -2.11841e-19 3.55601 2.83548e-18 3.39369)
(3.28183 -1.59302 1.43308e-18 3.60472 -2.45759e-18 3.44295)
(3.31414 -1.60743 1.02606e-19 3.63331 1.55385e-18 3.47335)
(3.32999 -1.61383 8.26302e-18 3.64374 -2.14445e-18 3.48647)
(3.33221 -1.61342 8.49601e-18 3.63828 -1.74409e-18 3.48481)
(3.32284 -1.60731 -4.0981e-20 3.61967 3.80267e-19 3.47078)
(3.30005 -1.59484 1.08889e-17 3.58722 -2.68689e-18 3.44316)
(3.26672 -1.57739 3.2031e-17 3.54392 -7.10126e-18 3.40484)
(3.22493 -1.55594 -1.1362e-19 3.49196 1.2758e-19 3.35795)
(3.17596 -1.53119 2.4464e-20 3.43308 -4.16187e-20 3.30403)
(3.1211 -1.50379 -2.41908e-17 3.36888 4.47222e-18 3.24449)
(3.06119 -1.4743 2.47632e-17 3.30097 -4.21649e-18 3.18058)
(2.99738 -1.44318 -2.30121e-17 3.23018 4.82858e-18 3.11331)
(2.93098 -1.41091 -3.44315e-19 3.15705 6.2802e-19 3.04361)
(2.86264 -1.37783 5.07189e-17 3.08245 -9.02764e-18 2.97222)
(2.79288 -1.34421 2.5969e-19 3.0071 -0 2.89975)
(2.72216 -1.31029 -1.88962e-19 2.93149 -0 2.82665)
(2.65018 -1.27622 2.61052e-17 2.85676 -2.70862e-18 2.75357)
(2.57737 -1.24208 1.89456e-19 2.78284 -0 2.68051)
(2.50489 -1.2081 -2.34291e-19 2.70946 -0 2.60767)
(2.43244 -1.17432 2.93653e-17 2.63722 -3.60186e-18 2.53534)
(2.36051 -1.13518 -2.47256e-20 2.56624 -0 2.46375)
(2.28879 -1.09655 2.98989e-17 2.4965 -1.95023e-18 2.39285)
(2.21642 -1.05959 -2.92172e-17 2.43039 3.40515e-18 2.32356)
(2.14499 -1.0236 -2.87141e-17 2.36405 3.24351e-18 2.25431)
(2.07017 -0.9908 4.73194e-21 2.30662 1.64513e-18 2.18846)
(2.0004 -0.957457 -3.03043e-17 2.243 3.12069e-20 2.12107)
(1.9163 -0.93365 2.86305e-17 2.2038 -4.90383e-18 2.06077)
(0.0447385 -0.0197243 -2.44188e-20 0.0523513 -0 0.04871)
(0.0936585 -0.0290255 -9.31842e-20 0.112281 -9.28178e-19 0.102814)
(0.146314 -0.050822 7.80294e-20 0.173499 -0 0.159746)
(0.211932 -0.0761622 1.74946e-19 0.248052 -5.91131e-18 0.229763)
(0.302506 -0.113681 -5.07794e-20 0.34304 5.38498e-18 0.32249)
(0.425752 -0.169793 -0 0.470602 -0 0.447814)
(0.577038 -0.243219 2.98773e-20 0.636854 -2.96894e-18 0.606588)
(0.753492 -0.333952 1.71857e-19 0.839648 -0 0.796287)
(0.949386 -0.433803 1.93301e-18 1.06649 2.39204e-18 1.00789)
(1.15759 -0.543016 4.12464e-18 1.30658 1.44036e-18 1.2323)
(1.36982 -0.656199 -3.05523e-18 1.54152 -7.18334e-18 1.45556)
(1.57461 -0.768454 -1.02974e-18 1.76366 6.88639e-18 1.66875)
(1.76656 -0.863422 -5.0574e-18 1.97173 2.0912e-18 1.86852)
(1.9693 -0.961976 3.37171e-19 2.19522 1.57446e-18 2.08186)
(2.18545 -1.06715 2.38022e-19 2.43376 -0 2.30956)
(2.3906 -1.16645 4.58268e-18 2.65762 1.33059e-18 2.52395)
(2.57988 -1.25798 4.5314e-18 2.86356 1.04452e-18 2.72152)
(2.75153 -1.34055 -4.38093e-19 3.04784 -1.41981e-18 2.89949)
(2.90368 -1.41314 -5.25892e-18 3.20787 -4.80186e-19 3.05559)
(3.03455 -1.47515 1.47954e-17 3.34325 -2.28387e-18 3.18874)
(3.14376 -1.52648 -1.60799e-17 3.45398 4.35534e-18 3.29874)
(3.23191 -1.56748 1.04891e-17 3.54108 -7.90614e-18 3.38639)
(3.29864 -1.59806 1.71197e-17 3.60462 -7.90592e-18 3.45153)
(3.34556 -1.619 -7.65678e-18 3.64644 1.64745e-18 3.49589)
(3.37427 -1.63111 1.88028e-17 3.66827 -5.37758e-18 3.5212)
(3.38641 -1.63519 -2.32556e-19 3.67207 -6.68443e-19 3.52922)
(3.3855 -1.63279 4.09737e-21 3.66087 -5.55741e-19 3.52319)
(3.37168 -1.62414 -5.02957e-20 3.63572 -0 3.50372)
(3.3448 -1.60941 -8.90193e-18 3.59759 1.56039e-18 3.47126)
(3.30805 -1.59002 -1.79114e-17 3.54938 3.56802e-18 3.42879)
(3.26317 -1.56684 2.08772e-17 3.49314 -4.32157e-18 3.37824)
(3.21169 -1.54069 -5.70346e-20 3.43083 -0 3.32136)
(3.1548 -1.51215 1.87529e-17 3.36388 -3.73987e-18 3.25943)
(3.09341 -1.48174 -1.87806e-17 3.29359 3.82613e-18 3.19355)
(3.02848 -1.44989 -2.12072e-17 3.22084 3.47793e-18 3.12468)
(2.96106 -1.41704 -2.12599e-17 3.14635 2.75139e-18 3.0537)
(2.89182 -1.38349 -1.9379e-17 3.07078 4.76627e-18 2.98129)
(2.82125 -1.3495 -9.6589e-20 2.99478 -1.73106e-18 2.908)
(2.74973 -1.31526 1.66373e-19 2.91878 -0 2.83423)
(2.67712 -1.28095 -2.14008e-17 2.84382 5.14857e-18 2.76045)
(2.60346 -1.24656 -1.42474e-19 2.76984 -2.26498e-18 2.68672)
(2.52984 -1.21232 2.0354e-19 2.69652 -0 2.61331)
(2.45554 -1.17822 -1.9769e-17 2.6248 4.0685e-18 2.54053)
(2.3808 -1.1444 4.67656e-20 2.55512 -2.60674e-18 2.46859)
(2.30648 -1.11079 -2.00553e-17 2.48626 6.77876e-18 2.39699)
(2.23172 -1.07767 1.95757e-17 2.42069 -6.85284e-18 2.3269)
(2.15745 -1.04338 2.66525e-19 2.35475 -4.48551e-18 2.25649)
(2.08082 -1.00826 -2.15674e-19 2.29667 -2.77337e-18 2.18948)
(2.00776 -0.971427 1.93438e-17 2.23278 -6.89783e-18 2.11996)
(1.92438 -0.947485 1.93838e-19 2.18991 4.53498e-18 2.05819)
(0.0433754 -0.0195021 1.27963e-21 0.0530335 -9.57976e-20 0.0482254)
(0.0901355 -0.0286105 -7.89059e-21 0.112849 7.84098e-19 0.101041)
(0.141634 -0.0500984 -3.07187e-19 0.173956 -0 0.157333)
(0.205342 -0.0743356 -2.23306e-18 0.24676 -8.0665e-18 0.22557)
(0.293992 -0.11083 3.47002e-18 0.341085 6.1781e-18 0.317125)
(0.416991 -0.167562 -7.59416e-19 0.472885 4.98048e-19 0.444634)
(0.56996 -0.244043 -3.12639e-18 0.647729 -3.25413e-18 0.608657)
(0.752189 -0.341313 3.74493e-19 0.86226 -0 0.806981)
(0.956315 -0.449711 -2.50496e-19 1.09989 -4.94687e-19 1.02814)
(1.17401 -0.568747 -3.67583e-18 1.34906 -5.83068e-18 1.26228)
(1.39442 -0.688776 -8.47843e-18 1.59115 -1.80476e-18 1.49364)
(1.6078 -0.791044 1.15994e-17 1.81812 4.65715e-18 1.71352)
(1.80584 -0.886433 4.80156e-18 2.03188 4.1357e-18 1.9193)
(2.01584 -0.987786 -3.9505e-19 2.26001 -6.8834e-19 2.13799)
(2.23888 -1.09548 1.86722e-20 2.50191 -1.39787e-18 2.37033)
(2.44929 -1.19652 3.39194e-20 2.72698 -2.91206e-18 2.58783)
(2.64242 -1.28896 3.32014e-20 2.93181 -2.84438e-18 2.78671)
(2.81617 -1.37159 -0 3.1131 -0 2.96421)
(2.96844 -1.44343 -1.41398e-20 3.26894 1.31269e-18 3.11829)
(3.09788 -1.50403 3.28221e-18 3.39901 -3.87214e-18 3.24809)
(3.2045 -1.55345 1.63727e-17 3.50351 6.16508e-19 3.35372)
(3.2892 -1.59216 -4.00375e-17 3.58369 4.51319e-18 3.43627)
(3.35172 -1.62008 -3.95758e-17 3.63957 4.45369e-18 3.49557)
(3.39407 -1.63824 4.25125e-19 3.67359 8.22033e-19 3.53382)
(3.41782 -1.64742 -1.99058e-17 3.68758 1.81862e-18 3.55277)
(3.42522 -1.64869 2.71736e-19 3.68387 -0 3.55469)
(3.41977 -1.64364 -8.15238e-21 3.66583 6.10317e-19 3.54298)
(3.40082 -1.63217 6.57476e-21 3.63379 -4.92211e-19 3.5175)
(3.36997 -1.6152 7.22835e-20 3.59014 2.90707e-19 3.4803)
(3.32975 -1.59383 2.40095e-17 3.53705 -3.87686e-18 3.43367)
(3.28181 -1.56892 -4.57733e-17 3.47664 7.7085e-18 3.37951)
(3.22764 -1.54124 7.82789e-20 3.41068 2.15848e-20 3.31944)
(3.16847 -1.51141 -2.43099e-21 3.34067 2.12e-19 3.25485)
(3.10538 -1.47998 8.24297e-20 3.26787 -2.67082e-19 3.18689)
(3.03931 -1.44738 -2.61136e-17 3.19316 2.71115e-18 3.11647)
(2.97109 -1.41398 2.14242e-17 3.1173 -3.99652e-18 3.04439)
(2.90132 -1.38006 -1.88199e-19 3.04082 -1.30778e-19 2.97123)