/*--------------------------------*- C++ -*----------------------------------*\
| =========                 |                                                 |
| \\      /  F ield         | OpenFOAM: The Open Source CFD Toolbox           |
|  \\    /   O peration     | Version:  2112                                  |
|   \\  /    A nd           | Website:  www.openfoam.com                      |
|    \\/     M anipulation  |                                                 |
\*---------------------------------------------------------------------------*/
FoamFile
{
    version     2.0;
    format      ascii;
    arch        "LSB;label=32;scalar=64";
    class       volScalarField;
    location    "0.4";
    object      omega;
}
// * * * * * * * * * * * * * * * * * * * * * * * * * * * * * * * * * * * * * //

dimensions      [0 0 -1 0 0 0 0];

internalField   nonuniform List<scalar> 
12225
(
37369.2
52232.5
56790.6
57315.7
56366.9
54931.3
53393.9
51909.4
50533.2
49273.3
48114.2
47037.4
46029.8
45087.1
44202.6
43411.4
42495.9
41576.6
3619.62
7659.49
11033
13620.6
15543.5
16971.8
18060.2
18928.1
19658.1
20296.3
20865.9
21368.7
21794.6
22129.1
22357.6
22480.7
22488.6
22268.3
355.778
981.264
1736.41
2567.79
3414.56
4221.27
4953.45
5621.16
6246.2
6848.79
7446.48
8048.4
8654.16
9256.13
9841.36
10404.6
10944.4
11429.2
99.7143
202.537
332.113
487.18
665.012
863.717
1092.03
1336.77
1588.44
1845.67
2110.91
2387.23
2676.67
2978.63
3285.26
3604.55
3939.2
4283.92
55.5242
83.5901
116.919
155.872
199.99
249.487
306.539
369.263
435.85
505.74
579.108
656.37
737.889
825.639
929.971
1045.7
1168.73
1295.43
44.0458
53.9719
66.64
80.7138
96.0249
112.723
130.854
150.228
170.668
192.07
214.427
237.778
262.165
288.039
317.665
349.833
383.488
417.495
40.8592
44.3145
49.5881
55.8661
62.8725
70.2597
77.9012
85.7492
93.962
102.466
111.234
120.262
129.547
139.117
149.138
159.809
170.996
182.274
39.9711
41.1095
43.1016
45.8422
49.1731
52.8292
56.7283
60.7762
64.8489
68.9854
73.22
77.5773
82.0632
86.6714
91.3919
96.1164
100.826
105.418
39.7165
40.0824
40.7793
41.83
43.2116
44.8851
46.84
49.0176
51.2566
53.5351
55.8409
58.1693
60.5184
62.8859
65.2637
67.5473
69.7214
71.7701
39.6375
39.7507
39.9831
40.3559
40.8743
41.5426
42.3725
43.3641
44.4803
45.674
46.8996
48.1242
49.3297
50.5084
51.6574
52.7643
53.82
54.8132
39.611
39.6393
39.7123
39.8366
40.0187
40.2636
40.5785
40.9693
41.4335
41.9577
42.5215
43.1037
43.6879
44.2634
44.8239
45.3661
45.8874
46.3818
39.6021
39.6031
39.6244
39.6679
39.7358
39.8314
39.9577
40.1174
40.3116
40.5378
40.7902
41.0608
41.3417
41.6263
41.9098
42.1888
42.4612
42.7224
39.598
39.5882
39.5884
39.5996
39.6217
39.656
39.7035
39.7652
39.8416
39.9325
40.0366
40.1519
40.2757
40.4055
40.539
40.6743
40.8097
40.9422
39.5955
39.5807
39.5719
39.5694
39.5727
39.5817
39.5967
39.6179
39.6452
39.6786
39.718
39.763
39.813
39.8671
39.9247
39.9848
40.0465
40.1081
39.5938
39.5763
39.5634
39.5552
39.5511
39.5506
39.5534
39.5596
39.569
39.5816
39.5972
39.6158
39.6371
39.6608
39.6866
39.7141
39.7427
39.7714
39.5926
39.5733
39.558
39.5468
39.5394
39.535
39.5332
39.5338
39.5367
39.5417
39.5488
39.5577
39.5682
39.5802
39.5934
39.6075
39.6221
39.6366
39.5917
39.5712
39.5543
39.5412
39.5316
39.5251
39.521
39.5189
39.5188
39.5203
39.5234
39.5277
39.5332
39.5395
39.5466
39.554
39.5617
39.5693
39.5913
39.5701
39.5522
39.5378
39.5268
39.5187
39.513
39.5093
39.5072
39.5065
39.5069
39.5083
39.5104
39.5131
39.5162
39.5195
39.523
39.5264
39.5914
39.5702
39.5521
39.5373
39.5257
39.5169
39.5105
39.506
39.5029
39.5009
39.4999
39.4996
39.4998
39.5006
39.5017
39.5031
39.5047
39.5064
39.5921
39.5717
39.5545
39.5408
39.5304
39.5231
39.5185
39.5162
39.5159
39.5173
39.5202
39.5246
39.5303
39.5373
39.5456
39.555
39.5657
39.5775
39.5933
39.5748
39.5605
39.5514
39.5478
39.5501
39.5583
39.5724
39.5922
39.6176
39.6488
39.6852
39.7267
39.7728
39.8233
39.878
39.9363
39.9978
39.5963
39.5852
39.5861
39.6029
39.6385
39.6949
39.7722
39.8699
39.9884
40.1264
40.2817
40.4518
40.6349
40.8295
41.0342
41.2474
41.4677
41.6922
39.6106
39.6439
39.7321
39.8871
40.1142
40.4124
40.7759
41.1984
41.6745
42.1926
42.7439
43.3224
43.9223
44.5388
45.168
45.8068
46.452
47.0971
39.6995
39.9817
40.4952
41.2414
42.2
43.3407
44.6323
46.0434
47.5416
49.1061
50.7186
52.364
54.031
55.7128
57.4054
59.1066
60.8135
62.515
40.22
41.668
43.8723
46.7006
50.0231
53.7312
57.7358
61.9648
66.3579
70.8662
75.4502
80.0809
84.7443
89.453
94.2239
99.0627
103.967
108.917
42.9666
49.1735
57.6419
67.7985
79.278
91.8359
105.274
119.417
134.099
149.168
164.494
179.985
195.694
212.08
229.323
247.229
265.632
284.427
57.2927
84.8555
123.203
168.797
220.292
276.896
337.717
401.745
467.91
535.185
602.733
670.017
737.514
808.612
884.574
963.84
1045.2
1127.95
158.689
337.052
598.702
904.878
1238.02
1585.12
1934.54
2276.95
2605.54
2916.3
3207.88
3481.21
3738.31
3980.3
4210.77
4434.91
4657.29
4880.93
1678.06
3747.09
5681.83
7360.83
8759.11
9898.12
10820.3
11570.3
12186.9
12701.6
13139.9
13522
13863.6
14176.4
14468.7
14744.4
15007.2
15255.2
24707
36941.2
42082.4
43854.2
44127.6
43748.8
43090.4
42321.2
41524.1
40742.4
39999.1
39304.9
38662.9
38071.1
37524.9
37018.5
36542.8
36091.8
155.07
156.87
160.813
166.841
174.96
185.129
197.241
211.137
226.631
243.532
261.671
280.925
301.339
322.872
345.257
368.31
391.987
416.293
441.235
466.821
493.055
519.946
547.501
575.725
604.625
634.206
664.472
695.424
727.065
759.392
792.406
826.101
860.474
895.517
931.22
967.575
1004.57
1042.18
1080.41
1119.22
1158.6
1198.52
1238.97
1279.91
1321.32
1363.17
1405.42
1448.04
1491.01
1534.28
1577.81
1621.58
1665.54
1709.65
1753.88
1798.18
1842.51
1886.84
1931.11
1975.3
2019.34
2063.22
2106.87
2150.26
2193.33
2236.06
2278.39
2320.27
2361.65
2402.5
2442.76
2482.38
2521.32
2559.52
2596.94
2633.52
2669.22
2703.99
2737.79
2770.56
2802.26
2832.85
2862.28
2890.52
2917.52
2943.24
2967.65
2990.69
3012.33
3032.54
3051.25
3068.44
3084.06
3098.05
3110.36
3120.94
3129.73
3136.65
3141.64
3144.59
3145.4
3143.92
3139.98
3133.68
3125.31
3114.81
3102.15
3087.26
3070.11
3050.66
3028.87
3004.7
2978.13
2949.12
2917.65
2883.68
2847.21
2808.21
2766.67
2722.58
2675.94
2626.75
2575.02
2520.75
2463.96
2404.69
2342.95
2278.8
2212.3
2143.51
2072.53
1999.47
1924.46
1847.66
1769.26
1689.46
1608.53
1526.75
1444.45
1361.98
1279.76
1198.22
1117.83
1039.1
962.545
888.704
818.103
751.259
688.658
630.747
577.923
530.535
488.879
453.193
423.742
401.262
385.588
375.116
369.28
368.293
372.186
380.68
394.237
414.404
441.519
475.108
515.112
561.498
614.178
673.014
737.804
808.271
884.067
964.765
1049.87
1138.77
1230.94
1325.15
1424.4
1509.57
157.587
158.54
161.518
166.411
173.208
181.83
192.128
203.907
216.948
231.03
245.95
261.537
277.657
294.216
311.112
328.262
345.619
363.163
380.892
398.806
416.909
435.204
453.693
472.377
491.254
510.323
529.579
549.017
568.631
588.411
608.348
628.433
648.652
668.993
689.442
709.985
730.605
751.287
772.013
792.765
813.525
834.274
854.994
875.665
896.267
916.783
937.191
957.474
977.611
997.586
1017.38
1036.97
1056.35
1075.49
1094.39
1113.02
1131.36
1149.42
1167.16
1184.57
1201.65
1218.37
1234.73
1250.7
1266.29
1281.47
1296.23
1310.56
1324.45
1337.89
1350.87
1363.37
1375.39
1386.93
1397.96
1408.5
1418.52
1428.03
1437.02
1445.49
1453.44
1460.86
1467.76
1474.13
1479.96
1485.27
1490.04
1494.27
1497.96
1501.11
1503.71
1505.75
1507.23
1508.14
1508.48
1508.23
1507.4
1505.95
1503.9
1501.24
1497.97
1494.1
1489.84
1485.35
1480.31
1474.67
1468.43
1461.57
1454.08
1445.96
1437.2
1427.78
1417.71
1406.96
1395.52
1383.39
1370.56
1357
1342.71
1327.68
1311.87
1295.29
1277.92
1259.72
1240.69
1220.81
1200.07
1178.43
1155.9
1132.46
1108.09
1082.8
1056.59
1029.46
1001.43
972.524
942.781
912.251
881.001
849.113
816.694
783.867
750.781
717.609
684.546
651.811
619.644
588.303
558.06
529.195
501.991
476.731
453.689
433.134
415.369
400.839
389.779
382.105
377.659
376.612
378.952
384.524
393.486
405.975
421.922
441.057
463.209
488.22
515.906
546.059
578.441
612.795
648.85
686.328
724.959
764.497
804.823
846.112
890
939.417
164.226
163.13
164.426
167.768
173.072
180.202
188.947
199.059
210.28
222.355
235.061
248.207
261.65
275.283
289.026
302.825
316.647
330.477
344.312
358.154
372.007
385.872
399.753
413.649
427.558
441.478
455.402
469.324
483.238
497.133
511
524.829
538.608
552.326
565.969
579.525
592.982
606.324
619.54
632.616
645.539
658.296
670.874
683.261
695.445
707.415
719.161
730.672
741.94
752.957
763.713
774.202
784.419
794.356
804.01
813.376
822.449
831.226
839.705
847.883
855.758
863.327
870.59
877.545
884.192
890.53
896.559
902.279
907.691
912.797
917.599
922.098
926.298
930.204
933.818
937.147
940.196
942.971
945.477
947.723
949.714
951.457
952.958
954.223
955.26
956.072
956.666
957.045
957.214
957.177
956.937
956.498
955.863
955.037
954.024
952.83
951.462
949.929
948.245
946.426
944.497
942.512
940.655
938.677
936.511
934.143
931.568
928.781
925.777
922.551
919.099
915.413
911.488
907.317
902.891
898.202
893.241
887.998
882.461
876.617
870.454
863.957
857.11
849.896
842.298
834.297
825.875
817.011
807.686
797.88
787.571
776.74
765.37
753.441
740.94
727.854
714.175
699.9
685.035
669.59
653.589
637.067
620.072
602.668
584.94
566.988
548.936
530.93
513.136
495.741
478.951
462.986
448.079
434.483
422.472
412.359
404.354
398.533
394.949
393.735
394.812
398.113
403.697
411.59
421.682
433.752
447.604
463.051
479.904
497.96
517.012
536.853
557.287
578.127
599.219
620.457
641.857
663.768
687.262
714.759
176.167
170.762
169.422
170.619
174.106
179.624
186.862
195.496
205.206
215.703
226.733
238.094
249.632
261.24
272.844
284.399
295.881
307.279
318.591
329.82
340.97
352.045
363.045
373.972
384.823
395.596
406.285
416.885
427.389
437.788
448.075
458.24
468.274
478.167
487.909
497.491
506.903
516.135
525.179
534.026
542.667
551.096
559.305
567.289
575.041
582.557
589.834
596.868
603.658
610.201
616.498
622.549
628.354
633.914
639.233
644.311
649.153
653.761
658.138
662.29
666.218
669.929
673.425
676.712
679.794
682.677
685.364
687.862
690.175
692.309
694.27
696.065
697.7
699.182
700.518
701.715
702.78
703.721
704.545
705.259
705.871
706.387
706.813
707.155
707.419
707.611
707.733
707.793
707.792
707.735
707.626
707.469
707.269
707.029
706.756
706.457
706.14
705.814
705.49
705.183
704.907
704.803
704.702
704.541
704.3
703.973
703.555
703.042
702.43
701.715
700.892
699.956
698.901
697.723
696.415
694.97
693.382
691.642
689.742
687.673
685.424
682.987
680.349
677.499
674.423
671.11
667.545
663.715
659.603
655.195
650.475
645.425
640.03
634.272
628.136
621.606
614.668
607.311
599.525
591.305
582.652
573.572
564.078
554.196
543.958
533.416
522.631
511.685
500.673
489.713
478.944
468.516
458.597
449.387
441.077
433.862
427.882
423.295
420.235
418.743
418.766
420.271
423.311
427.906
433.949
441.26
449.67
459.028
469.184
479.985
491.283
502.931
514.799
526.771
538.759
550.727
562.736
575.105
588.495
604.302
195.093
182.062
176.806
175.116
176.378
180.097
185.795
193.03
201.406
210.577
220.258
230.225
240.312
250.407
260.437
270.361
280.157
289.817
299.34
308.732
317.995
327.133
336.149
345.044
353.816
362.462
370.979
379.363
387.607
395.705
403.651
411.438
419.059
426.507
433.776
440.859
447.751
454.446
460.939
467.227
473.305
479.172
484.825
490.264
495.488
500.497
505.295
509.882
514.261
518.438
522.415
526.197
529.79
533.2
536.433
539.495
542.391
545.13
547.717
550.158
552.461
554.632
556.676
558.601
560.413
562.116
563.718
565.224
566.64
567.972
569.226
570.407
571.523
572.577
573.578
574.53
575.439
576.311
577.151
577.964
578.756
579.53
580.29
581.04
581.784
582.525
583.265
584.007
584.754
585.506
586.268
587.041
587.828
588.632
589.458
590.31
591.193
592.114
593.08
594.097
595.229
596.413
597.583
598.715
599.8
600.832
601.808
602.722
603.573
604.354
605.063
605.695
606.246
606.71
607.082
607.357
607.529
607.592
607.54
607.365
607.061
606.62
606.034
605.295
604.394
603.323
602.071
600.631
598.991
597.141
595.069
592.764
590.214
587.406
584.328
580.967
577.311
573.35
569.073
564.475
559.548
554.293
548.711
542.811
536.607
530.124
523.396
516.468
509.395
502.246
495.122
488.117
481.335
474.936
469.021
463.695
459.096
455.315
452.49
450.669
449.816
449.917
451.033
453.203
456.35
460.332
465.016
470.291
476.049
482.187
488.602
495.201
501.896
508.618
515.317
521.986
528.691
535.678
543.334
552.4
221.443
197.035
186.412
181.027
179.63
181.336
185.419
191.277
198.408
206.402
214.928
223.737
232.647
241.537
250.332
258.988
267.487
275.82
283.989
291.997
299.85
307.552
315.105
322.511
329.769
336.88
343.839
350.644
357.291
363.776
370.095
376.244
382.219
388.015
393.63
399.06
404.305
409.361
414.228
418.906
423.396
427.7
431.819
435.756
439.516
443.102
446.52
449.777
452.877
455.828
458.637
461.311
463.859
466.287
468.603
470.816
472.932
474.959
476.904
478.774
480.575
482.315
483.999
485.632
487.221
488.77
490.285
491.77
493.229
494.668
496.091
497.502
498.905
500.305
501.705
503.109
504.521
505.945
507.383
508.838
510.313
511.811
513.332
514.879
516.453
518.056
519.688
521.351
523.044
524.769
526.527
528.318
530.145
532.007
533.909
535.851
537.838
539.872
541.958
544.11
546.323
548.539
550.734
552.895
555.017
557.093
559.122
561.097
563.017
564.876
566.67
568.397
570.05
571.626
573.12
574.527
575.842
577.061
578.176
579.184
580.078
580.852
581.501
582.019
582.399
582.636
582.723
582.655
582.423
582.022
581.444
580.68
579.723
578.562
577.188
575.593
573.768
571.704
569.394
566.831
564.011
560.93
557.588
553.987
550.131
546.033
541.716
537.202
532.522
527.71
522.855
518.007
513.201
508.606
504.264
500.199
496.466
493.155
490.394
488.237
486.667
485.682
485.347
485.716
486.744
488.327
490.366
492.78
495.494
498.443
501.56
504.787
508.068
511.362
514.643
517.917
521.239
524.784
528.767
533.588
255.822
215.645
198.012
188.089
183.608
183.098
185.489
189.968
195.905
202.81
210.303
218.101
226.007
233.886
241.659
249.28
256.728
263.996
271.086
278.001
284.748
291.331
297.754
304.019
310.128
316.081
321.877
327.515
332.992
338.309
343.461
348.449
353.27
357.924
362.411
366.731
370.885
374.874
378.701
382.37
385.883
389.246
392.464
395.542
398.488
401.307
404.007
406.596
409.081
411.472
413.777
416.003
418.159
420.254
422.294
424.288
426.243
428.165
430.061
431.938
433.8
435.654
437.504
439.354
441.209
443.073
444.949
446.84
448.749
450.68
452.634
454.616
456.627
458.669
460.746
462.86
465.012
467.204
469.438
471.715
474.036
476.401
478.811
481.266
483.766
486.311
488.901
491.536
494.213
496.934
499.698
502.503
505.351
508.241
511.174
514.15
517.171
520.239
523.353
526.512
529.677
532.826
535.945
539.026
542.065
545.056
547.997
550.881
553.706
556.468
559.162
561.784
564.33
566.795
569.176
571.466
573.663
575.759
577.752
579.636
581.405
583.056
584.583
585.982
587.25
588.381
589.371
590.216
590.912
591.455
591.839
592.058
592.108
591.981
591.669
591.167
590.467
589.564
588.453
587.128
585.585
583.822
581.839
579.633
577.206
574.559
571.716
568.688
565.486
562.105
558.663
555.172
551.661
548.207
544.831
541.528
538.311
535.251
532.456
529.983
527.831
526.01
524.581
523.603
523.059
522.88
522.992
523.336
523.863
524.529
525.296
526.128
526.994
527.87
528.747
529.634
530.575
531.689
533.087
535.004
298.695
237.751
211.317
196.021
188.066
185.167
185.8
188.894
193.671
199.546
206.085
212.972
219.987
226.987
233.881
240.623
247.189
253.572
259.772
265.795
271.647
277.334
282.86
288.23
293.445
298.507
303.418
308.178
312.787
317.247
321.556
325.716
329.729
333.596
337.32
340.902
344.347
347.659
350.843
353.905
356.849
359.683
362.414
365.05
367.597
370.065
372.461
374.794
377.074
379.307
381.504
383.672
385.819
387.953
390.08
392.209
394.344
396.492
398.658
400.847
403.063
405.311
407.594
409.915
412.277
414.682
417.133
419.631
422.177
424.775
427.424
430.126
432.883
435.696
438.567
441.496
444.484
447.532
450.641
453.81
457.04
460.329
463.678
467.085
470.551
474.072
477.649
481.28
484.963
488.695
492.476
496.303
500.175
504.091
508.049
512.05
516.092
520.175
524.278
528.38
532.463
536.512
540.521
544.482
548.391
552.242
556.032
559.757
563.411
566.99
570.492
573.91
577.242
580.483
583.628
586.671
589.609
592.437
595.149
597.742
600.211
602.552
604.761
606.835
608.772
610.567
612.216
613.719
615.071
616.271
617.317
618.204
618.928
619.484
619.866
620.068
620.086
619.916
619.554
618.996
618.239
617.282
616.124
614.765
613.201
611.418
609.46
607.323
605.013
602.538
599.948
597.264
594.509
591.714
588.883
585.998
583.05
580.09
577.2
574.435
571.809
569.337
567.076
565.083
563.36
561.865
560.547
559.362
558.275
557.259
556.292
555.355
554.432
553.514
552.599
551.702
550.854
550.137
549.597
549.397
350.246
263.096
225.999
204.545
192.786
187.364
186.194
187.905
191.545
196.433
202.075
208.121
214.328
220.54
226.66
232.637
238.445
244.075
249.528
254.809
259.926
264.885
269.691
274.349
278.864
283.238
287.474
291.574
295.541
299.377
303.085
306.666
310.125
313.465
316.69
319.806
322.817
325.73
328.551
331.287
333.945
336.534
339.062
341.535
343.965
346.357
348.722
351.068
353.404
355.737
358.077
360.431
362.806
365.21
367.647
370.125
372.648
375.22
377.845
380.528
383.271
386.077
388.949
391.889
394.897
397.976
401.125
404.346
407.639
411.003
414.441
417.951
421.535
425.192
428.923
432.729
436.61
440.565
444.596
448.701
452.88
457.131
461.454
465.848
470.311
474.843
479.44
484.1
488.82
493.597
498.426
503.305
508.231
513.201
518.213
523.263
528.35
533.441
538.507
543.541
548.533
553.474
558.357
563.176
567.925
572.6
577.197
581.711
586.137
590.472
594.711
598.85
602.885
606.813
610.627
614.323
617.895
621.338
624.649
627.824
630.857
633.746
636.488
639.08
641.521
643.81
645.941
647.911
649.723
651.374
652.865
654.193
655.355
656.349
657.165
657.8
658.251
658.517
658.594
658.48
658.168
657.664
656.967
656.076
654.99
653.704
652.235
650.584
648.757
646.762
644.621
642.353
639.973
637.492
634.904
632.185
629.322
626.342
623.308
620.265
617.236
614.242
611.332
608.557
605.932
603.436
601.035
598.696
596.394
594.111
591.836
589.559
587.276
584.985
582.692
580.413
578.172
576.025
573.981
572.172
410.338
291.315
241.712
213.402
197.581
189.547
186.556
186.892
189.42
193.356
198.145
203.401
208.862
214.358
219.786
225.086
230.233
235.216
240.036
244.697
249.207
253.573
257.801
261.897
265.867
269.714
273.443
277.058
280.561
283.958
287.252
290.447
293.548
296.561
299.491
302.344
305.128
307.85
310.516
313.137
315.719
318.271
320.801
323.319
325.832
328.349
330.879
333.43
336.01
338.627
341.29
344.005
346.78
349.619
352.528
355.512
358.574
361.717
364.944
368.257
371.659
375.151
378.734
382.41
386.177
390.036
393.987
398.028
402.158
406.377
410.684
415.079
419.561
424.129
428.782
433.521
438.345
443.254
448.249
453.329
458.493
463.74
469.072
474.486
479.984
485.563
491.22
496.953
502.756
508.623
514.549
520.53
526.559
532.633
538.747
544.894
551.028
557.101
563.119
569.078
574.968
580.782
586.512
592.153
597.7
603.149
608.495
613.733
618.859
623.87
628.761
633.529
638.171
642.683
647.061
651.297
655.384
659.32
663.1
666.721
670.179
673.472
676.596
679.553
682.342
684.964
687.408
689.673
691.764
693.683
695.428
697
698.397
699.62
700.657
701.5
702.154
702.617
702.887
702.963
702.843
702.53
702.023
701.322
700.427
699.337
698.058
696.592
694.943
693.118
691.128
688.987
686.703
684.279
681.707
678.963
676.033
672.93
669.696
666.37
662.974
659.534
656.089
652.686
649.346
646.062
642.813
639.577
636.334
633.073
629.787
626.473
623.133
619.772
616.398
613.029
609.684
606.401
603.168
600.107
478.538
321.965
258.113
222.366
202.3
191.613
186.804
185.785
187.228
190.241
194.214
198.724
203.491
208.33
213.131
217.832
222.401
226.828
231.112
235.257
239.27
243.159
246.931
250.592
254.149
257.607
260.97
264.244
267.434
270.544
273.58
276.548
279.453
282.302
285.102
287.861
290.586
293.287
295.971
298.647
301.325
304.014
306.721
309.455
312.225
315.038
317.902
320.826
323.816
326.881
330.028
333.263
336.594
340.024
343.557
347.198
350.948
354.809
358.783
362.87
367.07
371.385
375.813
380.355
385.008
389.77
394.64
399.613
404.689
409.866
415.14
420.512
425.977
431.535
437.183
442.92
448.746
454.659
460.662
466.753
472.935
479.207
485.574
492.037
498.598
505.26
512.019
518.87
525.807
532.82
539.901
547.042
554.236
561.477
568.755
575.984
583.106
590.136
597.077
603.924
610.669
617.302
623.816
630.205
636.467
642.598
648.593
654.449
660.163
665.73
671.148
676.413
681.524
686.48
691.28
695.91
700.36
704.63
708.718
712.622
716.338
719.865
723.2
726.346
729.305
732.091
734.669
737.046
739.232
741.229
743.04
744.663
746.099
747.345
748.397
749.251
749.906
750.362
750.618
750.674
750.529
750.185
749.644
748.906
747.972
746.84
745.515
743.997
742.29
740.398
738.329
736.092
733.692
731.13
728.396
725.472
722.344
719.019
715.522
711.882
708.123
704.267
700.35
696.408
692.467
688.529
684.584
680.616
676.612
672.564
668.47
664.329
660.147
655.931
651.694
647.45
643.217
639.022
634.839
630.787
554.201
354.566
274.882
231.241
206.825
193.481
186.88
184.538
184.925
187.049
190.239
194.044
198.162
202.399
206.636
210.806
214.875
218.83
222.668
226.392
230.011
233.531
236.959
240.302
243.567
246.76
249.887
252.954
255.967
258.931
261.854
264.74
267.599
270.436
273.261
276.082
278.909
281.751
284.618
287.521
290.47
293.473
296.54
299.677
302.892
306.192
309.582
313.07
316.662
320.366
324.187
328.133
332.209
336.418
340.765
345.251
349.877
354.644
359.553
364.602
369.788
375.11
380.564
386.149
391.86
397.692
403.64
409.699
415.866
422.138
428.509
434.977
441.538
448.186
454.918
461.731
468.623
475.592
482.64
489.769
496.982
504.285
511.689
519.204
526.837
534.595
542.481
550.489
558.606
566.82
575.115
583.481
591.895
600.373
608.723
616.911
624.955
632.862
640.633
648.268
655.763
663.094
670.256
677.249
684.073
690.724
697.201
703.501
709.622
715.56
721.315
726.884
732.266
737.465
742.494
747.32
751.926
756.323
760.511
764.489
768.254
771.806
775.146
778.275
781.195
783.911
786.414
788.707
790.793
792.675
794.358
795.841
797.123
798.204
799.08
799.75
800.213
800.469
800.517
800.357
799.992
799.423
798.652
797.681
796.51
795.14
793.573
791.809
789.852
787.705
785.373
782.862
780.178
777.319
774.279
771.045
767.605
763.961
760.13
756.131
751.985
747.711
743.338
738.899
734.416
729.898
725.342
720.74
716.084
711.369
706.595
701.765
696.885
691.965
687.016
682.054
677.092
672.152
667.198
662.35
636.63
388.637
291.726
239.859
211.057
195.095
186.75
183.126
182.497
183.766
186.212
189.353
192.872
196.562
200.299
204.011
207.659
211.228
214.714
218.118
221.447
224.709
227.909
231.057
234.157
237.218
240.246
243.249
246.234
249.208
252.177
255.149
258.131
261.132
264.16
267.227
270.344
273.523
276.777
280.118
283.559
287.112
290.786
294.588
298.518
302.579
306.775
311.109
315.586
320.211
324.988
329.923
335.021
340.285
345.718
351.32
357.094
363.041
369.161
375.45
381.901
388.505
395.254
402.143
409.161
416.3
423.551
430.907
438.363
445.911
453.545
461.259
469.046
476.899
484.81
492.773
500.783
508.839
516.939
525.084
533.287
541.564
549.942
558.45
567.1
575.914
584.91
594.084
603.408
612.86
622.413
632.07
641.724
651.131
660.327
669.315
678.101
686.689
695.08
703.28
711.312
719.105
726.665
734.004
741.125
748.028
754.715
761.184
767.434
773.467
779.28
784.873
790.248
795.405
800.349
805.07
809.561
813.821
817.849
821.644
825.207
828.538
831.64
834.514
837.164
839.593
841.799
843.785
845.554
847.109
848.454
849.59
850.516
851.232
851.735
852.026
852.104
851.968
851.619
851.06
850.291
849.315
848.137
846.757
845.177
843.397
841.419
839.245
836.876
834.316
831.568
828.637
825.529
822.243
818.776
815.12
811.267
807.215
802.975
798.559
793.984
789.265
784.427
779.495
774.49
769.424
764.298
759.11
753.859
748.543
743.165
737.73
732.244
726.716
721.158
715.584
710.006
704.442
698.847
693.343
725.293
423.728
308.373
248.071
214.917
196.414
186.396
181.55
179.955
180.417
182.168
184.701
187.68
190.894
194.21
197.551
200.875
204.163
207.408
210.613
213.781
216.922
220.042
223.15
226.253
229.357
232.471
235.605
238.77
241.975
245.226
248.53
251.892
255.318
258.819
262.408
266.1
269.91
273.857
277.958
282.235
286.711
291.402
296.315
301.43
306.736
312.226
317.895
323.744
329.773
335.982
342.374
348.95
355.712
362.662
369.801
377.135
384.672
392.432
400.395
408.542
416.852
425.306
433.884
442.567
451.343
460.197
469.123
478.11
487.147
496.223
505.327
514.449
523.577
532.703
541.817
550.912
559.986
569.035
578.041
587.044
596.081
605.213
614.516
623.994
633.691
643.683
653.972
664.469
675.155
685.942
696.52
706.795
716.775
726.47
735.883
745.018
753.88
762.472
770.802
778.873
786.673
794.202
801.465
808.465
815.208
821.695
827.929
833.913
839.649
845.136
850.378
855.376
860.131
864.648
868.925
872.96
876.75
880.295
883.593
886.649
889.465
892.044
894.389
896.503
898.388
900.047
901.483
902.697
903.695
904.479
905.05
905.407
905.551
905.48
905.194
904.694
903.979
903.052
901.914
900.569
899.02
897.27
895.322
893.177
890.837
888.301
885.572
882.652
879.544
876.251
872.778
869.129
865.308
861.315
857.144
852.789
848.249
843.528
838.634
833.578
828.375
823.043
817.601
812.068
806.456
800.77
795.016
789.196
783.313
777.373
771.38
765.342
759.266
753.165
747.05
740.931
734.824
728.68
722.621
820.15
459.479
324.58
255.743
218.34
197.418
185.832
179.853
177.369
177.101
178.235
180.243
182.78
185.624
188.636
191.736
194.879
198.042
201.216
204.402
207.607
210.842
214.119
217.447
220.833
224.282
227.802
231.41
235.124
238.965
242.941
247.059
251.294
255.646
260.125
264.749
269.537
274.513
279.701
285.13
290.84
296.888
303.358
310.284
317.538
325.056
332.802
340.755
348.907
357.249
365.763
374.445
383.291
392.293
401.453
410.78
420.281
429.971
439.857
449.904
460.092
470.397
480.796
491.26
501.751
512.272
522.8
533.341
543.886
554.421
564.931
575.401
585.815
596.16
606.422
616.586
626.642
636.584
646.415
656.145
665.782
675.357
684.928
694.593
704.438
714.548
725.187
736.384
747.781
758.997
769.853
780.36
790.507
800.294
809.725
818.805
827.54
835.94
844.014
851.771
859.222
866.37
873.222
879.783
886.061
892.06
897.788
903.248
908.445
913.383
918.063
922.49
926.664
930.589
934.269
937.706
940.9
943.849
946.555
949.023
951.254
953.249
955.013
956.547
957.855
958.94
959.805
960.452
960.883
961.102
961.112
960.913
960.504
959.884
959.053
958.01
956.758
955.298
953.632
951.763
949.694
947.43
944.973
942.326
939.489
936.464
933.251
929.852
926.269
922.507
918.568
914.459
910.186
905.754
901.163
896.41
891.489
886.397
881.134
875.708
870.124
864.394
858.531
852.554
846.477
840.311
834.067
827.754
821.381
814.954
808.479
801.961
795.406
788.823
782.221
775.613
769.005
762.415
755.788
749.247
926.62
497.182
340.739
263.02
221.406
198.175
185.138
178.138
174.879
174.001
174.654
176.29
178.554
181.22
184.145
187.246
190.479
193.821
197.257
200.781
204.408
208.166
212.093
216.218
220.531
224.991
229.607
234.421
239.484
244.84
250.55
256.702
263.006
269.457
276.065
282.86
289.879
297.156
304.727
312.619
320.878
329.597
338.882
348.66
358.713
369.014
379.542
390.289
401.253
412.445
423.771
435.21
446.749
458.344
469.967
481.674
493.476
505.365
517.299
529.271
541.27
553.287
565.313
577.341
589.382
601.43
613.451
625.429
637.349
649.199
660.963
672.627
684.178
695.605
706.893
718.028
728.998
739.802
750.444
760.939
771.263
781.444
791.515
801.57
811.968
822.931
834.043
844.845
855.237
865.239
874.836
884.034
892.839
901.26
909.307
916.986
924.308
931.289
937.943
944.282
950.32
956.066
961.529
966.718
971.638
976.297
980.7
984.851
988.754
992.414
995.833
999.014
1001.96
1004.66
1007.14
1009.38
1011.4
1013.18
1014.73
1016.07
1017.18
1018.07
1018.75
1019.22
1019.48
1019.53
1019.38
1019.03
1018.48
1017.73
1016.78
1015.63
1014.28
1012.73
1010.98
1009.03
1006.89
1004.55
1002.01
999.292
996.385
993.297
990.03
986.586
982.964
979.164
975.187
971.036
966.712
962.221
957.568
952.764
947.817
942.729
937.495
932.113
926.576
920.881
915.028
909.018
902.859
896.559
890.131
883.589
876.948
870.22
863.422
856.567
849.663
842.717
835.734
828.718
821.676
814.616
807.547
800.481
793.427
786.398
779.341
772.378
1034.09
531.49
354.414
268.884
223.834
198.851
184.797
177.156
173.485
172.363
172.915
174.588
177.029
180
183.351
187.015
190.98
195.253
199.792
204.505
209.411
214.619
220.31
226.748
233.861
241.103
248.379
255.812
263.55
271.731
280.528
289.829
299.176
308.766
318.627
328.797
339.307
350.188
361.483
373.129
385.102
397.401
409.923
422.541
435.331
448.329
461.547
474.979
488.608
502.408
516.329
530.32
544.327
558.279
572.218
586.17
600.112
614.019
627.863
641.623
655.281
668.825
682.252
695.577
708.855
722.022
735.033
747.866
760.509
772.95
785.18
797.192
808.988
820.573
831.944
843.093
854.021
864.752
875.29
885.62
895.761
905.919
916.111
926.585
936.954
946.936
956.301
965.047
973.282
981.071
988.451
995.445
1002.07
1008.34
1014.26
1019.85
1025.13
1030.12
1034.83
1039.27
1043.45
1047.38
1051.07
1054.52
1057.74
1060.74
1063.51
1066.07
1068.41
1070.53
1072.45
1074.15
1075.64
1076.92
1077.99
1078.85
1079.5
1079.94
1080.17
1080.21
1080.05
1079.7
1079.16
1078.44
1077.53
1076.45
1075.18
1073.73
1072.1
1070.28
1068.28
1066.1
1063.73
1061.18
1058.44
1055.52
1052.42
1049.16
1045.71
1042.11
1038.33
1034.39
1030.29
1026.03
1021.61
1017.02
1012.27
1007.36
1002.29
997.08
991.722
986.226
980.601
974.843
968.951
962.92
956.746
950.424
943.956
937.343
930.592
923.712
916.712
909.608
902.414
895.153
887.841
880.486
873.092
865.666
858.212
850.736
843.246
835.75
828.258
820.783
813.333
805.926
798.511
791.203
1142.18
562.147
365.754
273.757
226.258
200.292
185.9
178.28
174.887
174.252
175.484
178.072
181.714
186.145
191.071
196.496
202.619
209.806
218.034
226.27
234.505
243.086
252.529
263.283
274.724
286.007
297.335
308.916
320.861
333.225
346.004
358.888
372.174
385.93
400.176
414.891
430.042
445.594
461.51
477.735
494.217
510.901
527.709
544.566
561.448
578.338
595.215
612.052
628.816
645.472
661.981
678.306
694.431
710.403
726.297
742.013
757.484
772.674
787.554
802.105
816.314
830.173
843.68
856.846
869.686
882.193
894.354
906.168
917.638
928.765
939.55
949.999
960.137
970.013
979.616
988.933
997.977
1006.89
1015.69
1024.29
1032.67
1040.82
1048.96
1056.92
1064.48
1071.41
1077.81
1083.74
1089.26
1094.39
1099.18
1103.64
1107.8