/*--------------------------------*- C++ -*----------------------------------*\
| =========                 |                                                 |
| \\      /  F ield         | OpenFOAM: The Open Source CFD Toolbox           |
|  \\    /   O peration     | Version:  2112                                  |
|   \\  /    A nd           | Website:  www.openfoam.com                      |
|    \\/     M anipulation  |                                                 |
\*---------------------------------------------------------------------------*/
FoamFile
{
    version     2.0;
    format      ascii;
    arch        "LSB;label=32;scalar=64";
    class       volScalarField;
    location    "0.41";
    object      nut;
}
// * * * * * * * * * * * * * * * * * * * * * * * * * * * * * * * * * * * * * //

dimensions      [0 2 -1 0 0 0 0];

internalField   nonuniform List<scalar> 
12225
(
0
0
0
0
0
0
0
0
0
0
0
0
0
0
0
0
6.75062e-07
2.87151e-06
0
0
0
0
0
0
0
0
0
0
0
0
0
0
0
1.39656e-08
8.89924e-07
2.88771e-06
0
0
0
0
0
0
0
2.84116e-09
4.48827e-09
0
0
0
0
0
0
1.21291e-07
7.17748e-07
2.11144e-06
1.50025e-06
2.18561e-06
0
0
0
0
2.15521e-08
4.51504e-08
2.34703e-08
0
0
0
0
0
5.30175e-08
1.42081e-07
2.41893e-07
8.23685e-07
2.64696e-05
0
2.10761e-06
3.40821e-05
2.18885e-05
3.83628e-05
5.98455e-05
2.48843e-05
6.43395e-06
1.89955e-05
2.25697e-05
1.44385e-05
7.01184e-06
3.34234e-06
1.78848e-06
9.2313e-07
3.9649e-07
1.74901e-07
7.97046e-05
0
0
1.30392e-05
1.75931e-05
8.68725e-06
2.40939e-05
4.8648e-05
4.65657e-05
2.75561e-05
2.55975e-05
2.14103e-05
1.4885e-05
9.04998e-06
4.85801e-06
2.55247e-06
1.34006e-06
6.72931e-07
4.01395e-05
0
0
0
1.92156e-05
3.24411e-06
1.20264e-05
3.65302e-05
9.0134e-05
5.64291e-05
2.87208e-05
1.66486e-05
1.00698e-05
6.09315e-06
3.41931e-06
1.68479e-06
5.69304e-07
1.78416e-07
0
0
0
0
5.2458e-06
3.71291e-06
1.76598e-05
3.185e-05
5.25603e-05
6.49668e-05
4.3256e-05
2.24728e-05
8.91636e-06
3.38732e-06
9.9537e-07
0
0
0
0
0
0
0
0
8.58141e-06
3.7335e-05
3.82161e-05
3.84338e-05
4.13036e-05
4.24337e-05
2.6514e-05
1.12763e-05
3.74291e-06
8.08238e-07
0
0
0
0
0
0
0
0
0
7.09603e-05
7.2694e-05
4.99269e-05
3.62541e-05
3.10238e-05
2.69854e-05
8.96752e-06
0
0
0
0
0
7.94919e-06
2.98522e-05
0
0
0
0
3.57541e-05
6.26452e-05
3.79046e-05
1.485e-05
1.21064e-05
1.31968e-05
1.03842e-05
3.83858e-06
0
0
0
0
0.000100596
4.26734e-05
2.62577e-05
3.04062e-05
0
0
0
0
0
0
5.50374e-06
7.25834e-06
5.118e-06
2.25576e-06
4.50392e-08
0
0
0
4.21612e-05
4.72003e-05
7.15767e-05
0.000111328
0
0
0
0
0
0
0
0
0
0
0
0
0
6.87117e-07
1.32697e-05
3.1037e-05
9.84466e-05
0.000111448
0
0
0
0
0
0
0
0
0
0
0
9.43158e-07
1.54156e-06
3.21095e-06
0
0
5.56462e-05
0
0
0
0
0
0
0
0
0
0
0
1.57124e-06
2.70216e-06
1.92816e-06
3.28365e-06
0
0
1.35138e-06
0
0
0
0
0
0
0
0
0
0
6.41742e-06
7.49466e-06
5.1605e-06
3.59922e-06
5.84377e-06
0
0
0
0
0
0
0
0
0
0
0
0
0
0
0
9.12435e-06
1.39151e-05
1.69138e-05
0
0
0
0
0
0
0
0
0
0
0
0
0
0
0
1.29778e-05
2.44492e-05
3.02587e-05
0
0
0
0
0
0
9.57601e-06
2.96811e-05
2.82786e-05
1.86211e-05
3.58158e-06
0
0
0
0
6.93183e-06
2.09905e-05
2.89126e-05
5.22915e-05
0
0
0
0
0
0
0
3.16315e-05
5.92569e-05
4.30043e-05
1.80312e-05
4.27832e-06
1.55824e-06
8.31258e-06
2.40001e-05
3.17198e-05
3.57805e-05
0.000195274
0.0001887
0
0
0
0
0
0
3.64516e-05
8.11735e-05
5.27296e-05
1.85855e-05
1.39347e-05
2.52884e-05
3.90754e-05
5.28072e-05
5.74967e-05
4.81039e-05
0.000124848
8.49616e-05
0
0
0
0
0
0
0
0
0
0
0
2.01637e-05
3.24336e-05
3.19625e-05
1.64311e-05
0
0
0
0
0
0
0
1.21397e-05
7.3465e-06
0
0
0
0
0
1.14559e-06
1.8736e-05
2.09853e-05
1.02335e-05
0
0
5.61079e-06
0
0
2.89889e-05
3.68096e-05
2.74176e-06
0
0
0
0
0
0
0
0
0
0
0
4.63657e-05
6.75819e-05
0
0
0
1.3035e-05
1.86038e-05
0
0
0
0
0
0
0
0
0
0
0
7.15954e-05
0
4.93939e-05
0
5.14918e-05
0.000194772
3.14983e-05
0
0
0
0
0
0
0
0
0
0
0
2.05669e-05
0
0
0
0
0
0
0
4.62298e-07
9.41821e-07
1.02332e-06
9.61662e-07
8.2152e-07
5.38191e-07
2.12807e-07
0
0
0
9.51124e-08
0
0
0
0
0
0
0
0
0
5.51992e-09
2.04528e-08
3.47626e-08
3.85729e-08
3.02328e-08
1.40457e-08
0
0
7.6736e-09
0
0
0
0
0
0
0
0
0
0
0
0
0
0
0
0
0
0
0
0
0
0
0
0
0
0
0
0
0
0
0
0
0
0
0
0
5.98891e-06
1.65953e-05
1.25437e-05
0
0
0
0
0
0
0
0
2.83093e-06
3.89837e-06
2.01166e-06
3.17713e-08
0
0
0
0
0
1.52933e-06
2.97246e-06
1.35009e-05
4.23537e-05
3.08475e-05
1.00247e-05
1.91541e-06
4.45822e-06
3.85597e-05
0.000110782
0.000145337
0.000123099
8.21532e-05
3.91887e-05
1.3073e-05
3.18051e-06
0
0
0
2.72335e-07
7.80428e-07
1.17286e-06
1.46532e-06
1.66989e-06
1.8015e-06
1.8741e-06
1.8908e-06
1.8608e-06
1.78742e-06
1.67144e-06
1.51223e-06
1.31843e-06
1.08953e-06
8.38934e-07
5.63933e-07
2.64622e-07
0
0
0
0
0
0
0
0
0
0
0
0
0
0
0
0
0
0
0
0
0
0
0
0
0
0
0
0
0
0
0
0
5.18957e-07
7.51369e-07
0
0
0
0
0
2.21914e-05
1.40376e-05
4.15908e-06
0
4.4077e-06
5.52998e-05
0.000155557
0.000202609
0.000103763
2.97952e-05
6.19673e-06
1.35839e-06
8.91405e-07
1.03658e-06
1.10768e-06
1.05373e-06
9.18181e-07
7.41588e-07
5.47569e-07
3.4996e-07
1.51227e-07
0
0
0
0
0
0
0
0
0
0
0
0
0
0
0
0
0
0
0
0
0
0
0
0
0
0
0
0
0
0
0
0
0
0
0
0
0
0
0
0
0
1.29626e-07
0
0
0
0
0
0
0
0
0
0
0
1.39521e-06
2.52384e-06
7.79458e-06
4.25299e-05
0.000116352
4.13767e-05
6.72178e-06
1.57403e-06
8.67441e-07
1.69288e-06
0
0
7.78784e-06
1.25335e-05
0
0
0
0
0
0
0
0
2.96378e-06
4.24513e-06
3.74176e-06
2.08966e-06
4.44002e-07
0
0
0
5.64739e-07
4.21097e-06
4.83125e-06
3.17135e-06
3.337e-06
1.68249e-06
0
0
1.36676e-05
2.70979e-05
2.79921e-05
2.01092e-05
1.38773e-05
1.24876e-05
1.06086e-05
6.6755e-06
3.08573e-06
1.06315e-06
2.53545e-07
2.76069e-07
6.23625e-07
1.01577e-06
1.34296e-06
1.60207e-06
1.79008e-06
1.91884e-06
1.98922e-06
2.01431e-06
1.99509e-06
1.93195e-06
1.82229e-06
1.66435e-06
1.46444e-06
1.22085e-06
9.44866e-07
6.36954e-07
3.00949e-07
0
0
0
0
0
0
0
0
0
0
0
0
0
0
0
0
0
0
0
1.294e-07
6.81333e-07
0
0
0
0
0
0
0
0
0
0
0
5.66833e-07
1.08167e-06
0
0
0
0
0
0
1.49053e-05
9.60081e-06
5.88068e-06
2.85279e-05
8.86743e-05
0.000111398
7.68193e-05
3.91249e-05
1.90272e-05
7.86885e-06
3.07283e-06
1.8942e-06
1.63934e-06
1.47556e-06
1.27336e-06
1.05266e-06
8.20218e-07
5.95887e-07
3.78765e-07
1.68981e-07
0
0
0
0
0
0
0
0
0
0
0
0
0
0
0
0
0
0
0
0
0
0
0
0
0
0
0
0
0
0
0
0
0
0
0
0
0
0
0
0
0
0
0
0
0
0
0
0
0
0
0
0
0
8.77258e-07
2.49032e-06
1.23714e-05
7.3903e-05
0.000105991
4.59219e-05
1.31011e-05
3.62455e-06
1.48974e-06
2.41122e-06
0
1.76376e-06
4.4865e-06
0
0
0
0
0
0
0
0
2.99924e-06
5.31413e-06
6.04653e-06
5.31695e-06
3.38863e-06
8.66358e-07
0
0
0
0
3.53831e-06
3.7915e-06
0
0
0
0
0
0
2.37656e-06
6.50315e-06
6.40254e-06
3.91903e-06
3.55882e-06
3.75576e-06
1.88857e-06
3.93346e-07
0
0
0
0
2.92648e-07
5.98733e-07
9.22323e-07
1.22791e-06
1.49887e-06
1.73199e-06
1.91567e-06
2.04172e-06
2.10581e-06
2.09348e-06
1.99538e-06
1.80142e-06
1.51618e-06
1.15696e-06
7.5709e-07
3.4139e-07
0
0
0
0
0
0
0
0
0
0
0
0
0
0
2.15763e-07
1.5667e-06
2.64755e-06
3.40059e-06
3.76125e-06
3.74718e-06
3.70021e-06
3.77803e-06
3.56293e-06
2.44503e-06
1.63266e-07
0
0
0
0
0
0
0
0
2.14741e-06
0
0
0
0
0
0
0
0
0
3.41628e-06
1.28931e-05
1.66791e-05
1.51109e-05
1.27393e-05
9.6918e-06
7.1651e-06
5.86721e-06
5.146e-06
4.4133e-06
3.60405e-06
2.81999e-06
2.12603e-06
1.5344e-06
1.04024e-06
6.36632e-07
3.10369e-07
1.38531e-09
0
0
0
0
0
0
0
0
0
0
0
0
0
0
0
0
0
0
0
0
0
0
0
0
0
0
0
0
0
0
0
0
0
0
0
0
0
0
0
0
0
0
0
0
0
0
0
0
0
0
0
0
1.40395e-06
7.434e-06
3.3556e-05
6.74501e-05
5.46186e-05
3.40021e-05
2.41728e-05
1.34909e-05
5.69936e-06
4.81168e-06
8.61289e-06
2.02709e-05
1.41241e-05
7.72586e-06
4.15522e-06
1.55851e-06
1.31477e-07
0
1.32571e-06
5.46763e-06
1.0769e-05
1.39572e-05
1.3459e-05
1.05774e-05
6.88672e-06
3.18709e-06
0
0
0
0
0
0
0
0
0
0
0
0
0
0
1.98652e-07
1.6123e-06
7.02538e-07
0
0
0
0
0
0
0
0
0
0
0
0
0
0
0
0
0
0
0
0
0
0
0
0
0
0
0
9.49269e-08
1.35361e-06
2.10246e-06
2.51425e-06
2.73962e-06
2.90114e-06
3.06335e-06
3.27211e-06
3.56315e-06
3.91236e-06
4.29789e-06
4.63631e-06
4.86339e-06
4.96301e-06
4.91523e-06
4.66981e-06
4.22916e-06
3.92976e-06
4.08598e-06
4.39304e-06
4.31376e-06
3.65171e-06
2.51776e-06
1.17734e-06
0
0
0
0
0
0
0
6.84478e-07
0
0
0
1.42351e-06
0
0
0
0
9.56831e-07
3.36791e-06
4.11118e-06
4.61169e-06
5.35077e-06
5.35861e-06
5.10848e-06
4.54281e-06
4.07932e-06
4.00845e-06
4.40416e-06
5.17172e-06
6.06369e-06
6.66966e-06
6.84246e-06
5.72572e-06
2.07292e-06
0
0
0
0
0
0
0
0
0
0
0
0
0
0
0
0
0
0
0
0
0
0
0
0
0
0
0
0
0
0
0
0
0
0
0
0
0
0
0
0
2.24968e-07
0
0
0
0
0
0
0
0
0
0
0
0
1.13872e-05
1.29294e-05
2.72908e-05
4.07615e-05
3.16164e-05
2.77767e-05
2.70124e-05
2.42284e-05
2.05992e-05
1.85607e-05
2.38823e-05
1.6644e-05
1.51195e-05
1.39425e-05
1.24201e-05
1.08376e-05
9.08423e-06
8.13029e-06
1.34772e-05
3.12316e-05
3.66762e-05
2.91843e-05
2.13085e-05
1.53189e-05
1.07816e-05
6.8292e-06
3.03899e-06
0
0
0
0
0
0
0
0
0
0
0
0
0
0
0
0
0
0
0
0
0
0
0
0
0
0
0
0
0
0
0
0
0
0
0
0
0
0
0
0
0
0
0
0
0
0
5.85857e-07
8.44415e-07
9.27537e-07
9.46189e-07
9.77672e-07
1.09198e-06
1.37718e-06
1.93096e-06
2.70666e-06
3.51066e-06
4.13767e-06
4.45078e-06
4.39824e-06
4.0059e-06
3.58097e-06
3.55862e-06
3.77276e-06
3.66176e-06
2.91588e-06
1.68285e-06
5.03622e-07
0
0
0
0
0
0
0
0
0
1.84785e-07
1.80156e-06
1.93187e-06
0
0
0
5.29812e-08
3.52437e-06
4.48377e-06
4.10747e-06
4.33047e-06
4.1781e-06
2.70358e-06
2.07433e-06
2.51641e-06
3.34692e-06
4.38954e-06
5.54637e-06
6.40582e-06
6.97562e-06
6.92295e-06
5.72463e-06
2.84278e-06
0
0
0
0
0
0
0
0
0
0
0
0
0
0
0
0
0
0
0
0
0
0
0
0
0
0
0
0
0
0
0
0
0
0
0
0
0
0
0
0
0
0
0
0
0
0
0
0
2.12358e-07
3.6228e-06
4.18222e-06
2.64671e-06
2.01121e-06
2.39898e-05
3.85612e-06
9.0539e-06
2.49362e-05
3.24785e-05
2.49554e-05
2.57072e-05
2.71452e-05
2.16065e-05
1.04496e-05
0
1.10728e-05
1.21185e-05
1.13589e-05
1.06908e-05
1.10138e-05
1.11379e-05
1.10098e-05
2.85971e-05
5.98638e-05
5.23546e-05
4.72344e-05
4.31666e-05
3.7529e-05
3.10195e-05
2.54821e-05
2.0323e-05
1.49185e-05
8.17352e-06
1.1854e-06
0
0
0
0
0
0
0
0
0
0
0
0
0
0
0
0
0
0
0
0
0
0
0
0
0
0
0
0
0
0
0
0
0
1.88302e-06
6.30449e-06
7.96599e-06
0
0
0
0
0
0
0
0
6.03588e-07
8.24705e-07
7.70952e-07
5.60225e-07
2.49385e-07
0
0
0
0
6.49328e-07
1.96626e-06
3.08333e-06
3.64372e-06
3.58738e-06
3.26898e-06
3.18049e-06
3.27065e-06
3.2333e-06
2.69025e-06
1.53772e-06
4.96608e-07
0
0
0
0
0
0
0
0
0
0
5.9244e-07
1.00827e-06
0
0
0
1.05219e-06
3.63347e-06
3.68887e-06
3.06734e-06
2.43742e-06
1.70807e-06
1.97809e-06
3.02253e-06
4.16779e-06
5.42881e-06
6.15742e-06
6.52711e-06
6.61832e-06
5.83924e-06
3.66933e-06
5.27528e-07
0
0
0
5.86628e-08
0
0
0
0
0
0
0
0
0
0
0
0
0
0
0
0
0
0
0
0
0
0
0
0
0
0
0
0
0
0
0
0
0
0
0
0
0
0
0
0
0
0
9.38966e-07
1.70981e-06
7.76108e-07
2.4258e-06
4.32021e-06
3.96742e-06
1.50411e-06
0
7.10544e-06
1.22032e-06
8.80153e-06
2.44375e-05
2.70201e-05
2.17237e-05
2.53784e-05
2.6682e-05
1.41963e-05
0
0
4.91268e-06
9.0772e-06
1.02327e-05
1.0439e-05
9.71597e-06
1.11579e-05
6.04163e-05
7.14875e-05
6.48344e-05
6.36539e-05
6.35029e-05
5.8626e-05
4.90801e-05
4.00301e-05
3.38572e-05
2.92834e-05
2.49096e-05
1.79621e-05
8.11571e-06
1.44518e-07
0
0
0
0
0
0
0
0
0
0
0
0
0
0
0
0
0
0
0
0
0
0
0
0
0
0
0
0
0
0
1.20322e-06
6.59591e-06
1.51818e-05
2.74222e-05
8.25642e-06
0
0
0
0
0
0
0
1.04451e-06
1.86279e-06
2.08886e-06
2.01795e-06
1.78352e-06
1.39817e-06
8.41646e-07
2.33625e-08
0
0
0
0
3.03174e-07
1.86269e-06
2.58668e-06
2.69686e-06
2.75522e-06
2.75215e-06
2.71203e-06
2.50127e-06
1.47767e-06
2.54648e-07
0
0
0
0
0
0
0
0
0
0
0
6.60496e-07
0
0
0
1.08181e-06
2.60919e-06
1.97262e-06
6.96127e-07
1.53452e-07
1.17068e-06
2.82915e-06
4.51637e-06
6.00926e-06
6.44244e-06
6.01032e-06
4.93929e-06
3.03975e-06
7.35428e-07
0
0
0
0
0
2.11241e-05
1.17811e-05
4.62525e-06
0
0
0
0
0
0
0
0
0
0
0
0
0
0
0
0
0
0
0
0
0
0
0
0
0
0
0
0
0
0
0
0
0
0
0
0
0
0
0
0
5.66719e-07
2.40492e-06
0
8.78506e-07
3.13238e-06
3.11408e-06
0
0
0
7.70622e-07
9.97027e-06
2.48423e-05
2.32039e-05
1.86542e-05
2.41892e-05
2.09384e-05
1.00581e-06
0
0
1.0433e-06
2.40834e-06
6.48672e-06
1.47438e-05
0
0
6.39038e-05
0.000108004
9.51964e-05
7.58707e-05
5.98893e-05
4.92501e-05
4.25499e-05
3.81903e-05
3.52107e-05
3.30586e-05
3.1143e-05
2.67555e-05
1.67159e-05
5.50121e-06
0
0
0
0
0
0
0
0
0
0
0
0
0
0
0
0
0
0
0
0
0
0
0
0
0
0
0
0
0
2.93609e-06
7.89489e-06
1.44926e-05
2.02326e-05
7.02291e-06
0
0
0
0
0
0
0
0
5.82264e-08
1.13745e-06
1.46835e-06
1.59507e-06
1.77836e-06
1.99294e-06
2.11625e-06
1.9644e-06
1.19511e-06
0
0
0
0
0
3.7582e-07
1.41131e-06
1.92629e-06
2.06302e-06
2.02771e-06
2.23824e-06
1.42387e-06
0
0
0
0
0
0
0
0
0
0
0
0
4.17777e-08
0
0
0
5.42369e-07
1.48483e-06
5.49666e-07
0
0
1.42732e-06
3.75903e-06
5.74077e-06
6.62568e-06
5.79213e-06
3.49174e-06
2.04438e-07
0
0
0
0
0
0
0
1.6981e-05
9.47913e-06
3.78442e-06
0
0
0
0
0
0
0
0
0
0
0
0
0
0
0
0
0
0
0
0
0
0
0
0
0
0
0
0
0
0
0
0
0
0
0
0
0
9.47976e-06
1.80356e-05
0
2.06835e-05
3.12366e-05
3.97781e-05
0
0
0
0
0
0
8.09922e-07
1.14689e-05
2.4931e-05
2.09173e-05
1.54936e-05
2.06149e-05
1.04399e-05
0
0
0
2.33566e-07
6.94025e-07
3.00926e-06
0
0
0
2.21713e-05
6.8786e-05
8.25878e-05
7.0848e-05
5.73701e-05
4.83368e-05
4.24762e-05
3.84761e-05
3.60121e-05
3.47343e-05
3.39097e-05
3.15735e-05
2.33697e-05
1.08562e-05
1.51428e-06
0
0
0
0
0
0
0
0
0
0
0
0
0
0
0
0
0
0
0
0
0
0
0
0
0
0
4.88623e-07
2.67153e-06
4.73255e-06
5.68545e-06
3.31402e-06
0
0
0
0
0
0
0
0
0
0
0
0
0
0
0
0
0
6.69064e-07
1.48154e-06
1.67146e-06
5.84905e-07
0
0
0
0
0
6.36181e-07
1.33122e-06
1.53879e-06
2.44646e-06
1.9959e-06
0
0
0
0
0
0
0
0
0
0
0
0
0
0
0
0
5.48098e-08
4.91444e-07
0
0
0
1.74888e-06
4.41634e-06
6.28511e-06
6.16393e-06
3.59787e-06
0
0
0
4.42198e-07
0
0
0
0
1.19537e-06
7.34784e-06
6.4051e-06
3.70362e-06
8.53172e-07
0
0
0
0
0
0
0
0
0
0
0
0
0
0
0
0
0
0
0
0
0
0
0
0
0
0
0
0
0
0
1.3658e-08
4.21962e-07
1.76187e-07
0
0
2.2291e-06
6.62073e-06
6.97719e-06
0
1.06196e-07
2.79634e-05
2.81939e-05
0
0
0
0
0
0
7.46639e-07
1.25308e-05
2.4222e-05
1.93552e-05
1.22635e-05
1.44341e-05
0
0
0
0
0
1.65241e-07
1.34803e-06
0
3.94733e-06
1.84386e-05
4.00218e-05
6.21583e-05
6.74909e-05
6.01423e-05
5.23288e-05
4.60435e-05
4.12925e-05
3.74179e-05
3.49608e-05
3.41718e-05
3.47907e-05
3.51184e-05
2.93315e-05
1.51839e-05
2.51649e-06
0
0
0
0
0
0
0
0
0
0
0
0
0
0
0
0
0
0
0
0
0
0
0
0
0
4.788e-07
1.19541e-06
1.13148e-06
0
0
0
0
0
0
0
0
0
0
0
0
0
0
0
0
0
0
0
0
0
0
0
9.02621e-07
3.30248e-07
0
0
0
0
0
2.75943e-07
1.50888e-06
3.88206e-06
3.88886e-06
9.21784e-07
0
0
0
0
0
0
0
0
0
0
0
0
0
0
0
0
0
0
0
0
1.94886e-06
4.73897e-06
6.16672e-06
4.88383e-06
9.85336e-08
0
0
0
1.4068e-06
0
0
0
0
3.49424e-06
7.16733e-06
7.8045e-06
6.26476e-06
3.82054e-06
1.2189e-06
0
0
0
0
0
0
0
0
0
0
0
0
0
0
0
0
0
0
0
0
0
0
0
0
0
0
0
0
1.18408e-07
9.49462e-07
1.71659e-06
2.41414e-06
2.69855e-06
3.01462e-06
4.67352e-06
4.64214e-06
2.96387e-06
3.58474e-06
0
0
0
0
0
0
0
0
0
3.41632e-07
1.28555e-05
2.27725e-05
1.73677e-05
8.71274e-06
6.63124e-06
0
0
0
0
0
0
0
5.3957e-06
1.08681e-05
1.83756e-05
2.87906e-05
3.89633e-05
4.32724e-05
4.30264e-05
4.1362e-05
3.87871e-05
3.62202e-05
3.44078e-05
3.3795e-05
3.47956e-05
3.76381e-05
4.14175e-05
3.63207e-05
1.5027e-05
0
0
0
0
0
0
0
0
0
0
0
0
0
0
7.23438e-07
1.19228e-06
7.74316e-07
2.43839e-07
0
0
0
0
0
2.41965e-07
6.81377e-07
1.10641e-06
1.20817e-06
6.14514e-07
0
0
0
0
0
0
0
0
0
0
0
0
0
0
0
0
0
0
0
0
0
0
0
0
0
1.52594e-07
0
0
0
0
0
0
4.65263e-07
5.86249e-06
6.51307e-06
2.10575e-06
0
1.34877e-06
4.62576e-06
0
0
0
0
0
0
0
0
0
0
0
0
0
0
0
0
0
1.90462e-06
4.76893e-06
5.65296e-06
2.944e-06
0
0
0
0
1.09452e-06
0
0
0
1.75278e-06
5.20425e-06
7.59881e-06
8.13522e-06
6.95143e-06
4.73219e-06
2.17779e-06
6.8656e-09
0
0
0
0
0
0
0
0
0
0
0
0
0
0
0
0
0
0
0
0
0
0
0
0
0
0
0
2.50329e-07
1.46319e-06
2.35839e-06
3.19633e-06
3.87432e-06
4.49278e-06
6.00712e-06
4.87607e-06
1.05656e-06
5.0163e-06
3.31585e-05
2.75366e-05
0
0
0
0
0
0
0
0
1.25362e-05
2.06333e-05
1.44438e-05
4.8656e-06
0
0
0
0
0
0
0
0
2.57618e-06
6.9612e-06
1.15768e-05
1.72431e-05
2.22879e-05
2.57867e-05
2.79694e-05
2.87431e-05
2.8777e-05
2.89868e-05
2.97177e-05
3.12676e-05
3.43955e-05
4.01992e-05
4.84209e-05
3.77381e-05
3.59912e-06
0
0
3.92993e-06
4.76013e-06
1.24772e-06
0
0
0
0
0
0
0
0
7.3842e-07
1.54818e-06
2.18083e-06
2.61152e-06
2.62121e-06
2.48343e-06
2.41502e-06
2.35808e-06
2.28543e-06
2.26939e-06
2.31283e-06
2.27398e-06
1.95824e-06
1.19177e-06
0
0
0
0
0
0
0
0
0
0
0
0
0
0
0
4.78954e-07
4.39025e-07
0
0
0
0
0
1.01301e-06
1.12741e-06
0
0
0
0
0
0
0
0
0
0
0
0
0
0
1.37841e-06
6.50361e-06
4.72269e-06
0
0
0
0
0
0
0
0
0
0
0
0
0
0
0
0
1.67922e-06
4.54042e-06
4.74424e-06
5.24664e-07
0
0
0
0
5.10239e-07
0
0
7.80054e-07
4.58325e-06
6.91732e-06
7.35997e-06
6.89383e-06
5.76047e-06
4.1703e-06
2.10414e-06
4.69304e-08
0
0
0
0
0
0
0
0
0
0
0
0
0
0
0
0
0
0
0
0
0
0
0
0
0
0
0
0
1.58265e-06
2.68011e-06
3.60006e-06
4.36701e-06
5.1429e-06
6.41054e-06
6.37918e-06
0
0
2.84833e-05
1.54769e-05
1.20366e-05
0
0
0
0
0
0
0
1.17045e-05
1.80922e-05
1.0681e-05
1.13646e-06
0
0
0
0
0
0
0
0
1.23148e-07
3.79022e-06
6.24003e-06
9.11478e-06
1.18637e-05
1.4176e-05
1.61274e-05
1.7679e-05
1.89414e-05
2.04802e-05
2.24673e-05
2.50564e-05
2.91353e-05
3.61671e-05
4.65094e-05
1.40767e-05
0
2.54955e-06
6.50588e-06
8.03677e-06
6.7164e-06
3.99123e-06
3.50949e-06
6.41181e-06
7.61497e-06
6.23745e-06
2.44364e-06
0
0
0
0
0
0
6.04437e-07
1.0631e-06
1.32185e-06
1.62468e-06
2.00253e-06
2.38678e-06
2.72396e-06
2.93441e-06
2.92156e-06
2.61657e-06
1.96518e-06
8.98367e-07
0
0
0
0
0
0
0
0
0
0
0
1.38694e-07
2.75718e-06
2.91676e-06
2.52521e-06
1.75896e-06
6.35281e-07
0
0
0
0
0
4.13966e-07
1.33063e-06
0
0
0
0
0
0
0
0
0
0
0
0
0
0
2.60055e-06
6.39144e-06
4.0436e-06
0
0
0
0
0
0
0
0
0
0
0
0
0
0
0
1.3508e-06
4.08041e-06
3.51482e-06
0
0
0
0
1.16714e-07
6.65001e-07
0
0
3.21998e-06
7.48257e-06
9.0101e-06
7.59712e-06
5.48948e-06
3.75537e-06
2.64097e-06
1.45978e-06
1.40242e-08
0
0
0
0
0
0
0
0
0
0
0
0
0
0
0
0
0
0
0
0
0
0
0
0
0
0
0
0
1.10992e-06
2.93895e-06
3.95993e-06
4.71787e-06
5.39701e-06
6.35787e-06
6.63007e-06
3.19699e-07
0
0
0
2.45602e-05
0
0
0
0
0
0
0
1.04028e-05
1.52798e-05
6.48273e-06
0
0
0
0
0
0
0
0
0
0
1.0076e-06
2.16652e-06
3.48536e-06
4.66137e-06
5.67743e-06
6.84792e-06
8.39978e-06
1.01418e-05
1.21314e-05
1.43316e-05
1.69208e-05
2.08677e-05
2.77031e-05
2.91107e-05
9.40858e-07
6.05014e-06
8.65546e-06
9.78034e-06
9.36996e-06
8.01333e-06
6.00953e-06
5.56054e-06
5.44739e-06
5.35053e-06
5.37455e-06
4.40104e-06
1.78003e-06
0
0
0
0
0
2.35467e-07
5.54134e-07
7.76013e-07
9.99201e-07
1.25633e-06
1.49795e-06
1.67602e-06
1.78855e-06
1.85927e-06
1.88493e-06
1.75934e-06
1.3394e-06
4.74344e-07
0
0
0
0
0
0
0
0
0
2.74063e-06
7.15462e-06
5.46195e-06
3.46786e-06
2.38399e-06
1.80392e-06
1.47047e-06
1.13427e-06
1.80131e-06
3.62142e-06
1.74895e-06
0
0
0
0
0
0
0
0
0
0
0
0
0
0
0
0
0
0
1.21941e-06
4.81347e-06
3.0014e-06
0
0
0
0
0
6.56686e-07
0
0
0
0
0
0
0
0
9.81589e-07
3.50541e-06
2.21853e-06
0
0
0
0
1.00144e-06
1.77359e-06
1.00517e-06
9.85915e-07
3.81728e-06
8.253e-06
9.44716e-06
7.0232e-06
3.44761e-06
7.84257e-07
0
0
0
0
0
0
0
0
0
0
0
0
0
0
0
0
0
0
0
0
0
0
0
0
0
0
0
0
0
0
0
0
2.88842e-06
4.26624e-06
4.83431e-06
5.13575e-06
5.48183e-06
5.13925e-06
2.45671e-07
0
0
0
8.69161e-06
3.35818e-06
0
0
0
0
0
0
8.52168e-06
1.21749e-05
2.35306e-06
0
0
0
0
0
0
0
0
0
0
0
0
0
0
2.42762e-08
7.92282e-07
1.9706e-06
3.43707e-06
5.08507e-06
6.98904e-06
9.38904e-06
1.30832e-05
1.93125e-05
7.2175e-06
8.14554e-06
9.71982e-06
1.06931e-05
1.11381e-05
1.07482e-05
9.59055e-06
8.9247e-06
8.21655e-06
6.64171e-06
5.31788e-06
4.81652e-06
4.3669e-06
3.24809e-06
1.60171e-06
4.29509e-07
1.11558e-07
1.40257e-07
2.29183e-07
4.23013e-07
7.02766e-07
9.98076e-07
1.29851e-06
1.60482e-06
1.8596e-06
1.97996e-06
1.96794e-06
1.88139e-06
1.72852e-06
1.43148e-06
8.7823e-07
0
0
0
0
0
0
0
0
0
0
1.14453e-05
6.98385e-06
3.10606e-06
1.36716e-06
1.30874e-06
2.18103e-06
3.41007e-06
2.23567e-06
5.2233e-06
7.50714e-06
4.4332e-06
0
0
0
0
0
0
0
0
0
0
0
0
0
0
0
0
0
0
0
0
2.86678e-06
3.11333e-06
2.13856e-07
0
0
0
3.20608e-06
1.56949e-05
6.32499e-06
5.71739e-07
0
0
0
0
0
5.3919e-07
3.09244e-06
1.52274e-06
0
0
0
0
3.5611e-06
4.99686e-06
4.87159e-06
4.16343e-06
4.79702e-06
7.91303e-06
8.6041e-06
5.63574e-06
1.09626e-06
0
0
0
0
0
0
0
0
0
0
0
0
0
0
0
0
0
0
0
0
0
0
0
0
0
0
0
0
0
0
0
0
0
2.11483e-06
4.29423e-06
4.88161e-06
4.8407e-06
4.55516e-06
3.42635e-06
0
0
0
0
5.28939e-06
3.22468e-06
0
0
0
0
0
0
6.03428e-06
8.75199e-06
0
0
0
0
0
0
0
0
0
0
0
0
0
0
0
0
0
6.82576e-07
1.95547e-06
3.3941e-06
5.15237e-06
7.59559e-06
1.17177e-05
9.32146e-06
5.12275e-06
7.0749e-06
8.52558e-06
9.90662e-06
1.06235e-05
1.02729e-05
9.694e-06
9.91679e-06
9.7397e-06
8.82547e-06
7.64787e-06
6.65848e-06
5.92512e-06
5.13052e-06
3.94067e-06
2.6849e-06
1.66493e-06
8.19597e-07
1.1003e-07
0
0
0
0
0
5.29711e-07
1.22503e-06
1.82562e-06
2.28094e-06
2.56107e-06
2.62157e-06
2.39834e-06
1.80207e-06
6.94648e-07
0
0
0
0
0
0
0
2.2623e-05
1.12772e-05
4.6941e-06
2.19589e-06
2.24437e-06
3.76364e-06
5.51949e-06
4.4681e-06
2.72362e-06
9.48603e-06
8.72565e-06
4.76954e-06
0
0
0
0
0
0
0
0
0
0
0
0
0
0
0
0
0
0
0
0
0
2.27313e-06
4.56499e-06
3.31477e-06
1.89368e-06
3.04375e-06
6.78828e-06
1.92854e-05
1.63656e-05
3.90194e-06
0
0
0
0
0
0
2.79312e-06
1.68098e-06
0
0
0
1.16025e-06
7.5464e-06
1.06919e-05
1.25602e-05
1.37495e-05
1.41908e-05
1.50169e-05
1.33566e-05
7.45737e-06
0
0
0
0
0
0
0
3.2784e-07
5.26338e-07
0
0
0
0
0
0
0
0
0
0
0
0
0
0
0
0
0
0
0
0
0
0
0
0
0
5.3417e-07
3.92257e-06
4.88455e-06
4.58311e-06
3.70248e-06
1.89198e-06
0
0
0
0
3.36951e-06
1.05869e-06
0
0
0
0
0
0
3.05378e-06
5.13125e-06
0
0
0
0
0
0
0
0
0
0
0
0
0
0
0
0
0
0
0
0
7.59036e-07
3.20724e-06
5.45007e-06
0
0
7.86305e-07
3.10553e-06
5.61789e-06
8.01087e-06
9.42206e-06
9.94258e-06
1.02433e-05
1.00448e-05
9.39572e-06
8.65865e-06
7.90841e-06
7.19006e-06
6.61241e-06
5.9551e-06
5.23922e-06
4.33477e-06
3.18284e-06
1.95669e-06
8.29643e-07
0
0
0
0
0
0
0
0
0
0
0
0
0
0
0
0
0
0
0
1.3831e-06
4.94567e-06
5.28577e-06
4.98109e-06
4.97231e-06
5.10453e-06
4.46182e-06
2.46673e-06
7.6703e-07
6.35691e-06
1.02663e-05
6.16719e-06
3.06039e-06
4.91039e-07
0
0
8.9551e-07
3.65168e-07
3.31572e-09
0
0
0
0
0
0
0
0
0
0
0
0
0
0
0
0
1.82575e-06
5.14472e-06
6.45252e-06
7.39342e-06
7.69711e-06
1.54465e-05
1.51199e-05
6.08812e-06
0
0
0
0
0
0
2.22967e-06
2.43943e-06
1.08693e-06
0
0
2.00347e-06
1.04216e-05
1.53702e-05
1.93621e-05
2.34553e-05
2.81722e-05
3.25214e-05
3.2993e-05
2.09304e-05
0
0
0
0
0
0
0
5.61717e-07
1.18843e-06
7.61898e-07
0
0
0
0
0
0
0
0
0
0
0
0
0
0
0
0
0
0
0
0
0
0
0
0
0
2.96465e-06
4.68544e-06
4.24891e-06
2.79967e-06
4.36347e-07
0
0
0
0
0
0
0
0
0
0
0
0
0
1.47354e-06
0
0
0
0
0
0
0
0
0
0
0
0
2.40914e-08
0
0
0
0
1.9176e-07
5.32109e-07
9.29503e-07
1.64733e-06
1.85054e-06
0
0
0
2.53822e-07
1.42877e-06
2.97407e-06
4.74608e-06
5.55387e-06
5.25443e-06
4.65955e-06
4.15545e-06
4.12231e-06
4.8339e-06
5.90502e-06
6.65118e-06
7.07164e-06
7.17111e-06
7.09747e-06
6.50771e-06
5.47731e-06
4.29103e-06
3.15938e-06
2.07476e-06
9.99291e-07
0
0
0
0
0
0
0
0
0
0
0
0
0
0
0
0
0
0
1.47154e-07
9.80033e-07
1.29244e-06
1.51866e-06
1.58778e-06
1.11778e-06
7.7426e-07
3.77622e-06
1.07327e-05
8.0458e-06
4.09413e-06
1.87935e-06
9.29388e-07
2.07962e-06
5.02504e-06
5.6294e-06
4.10347e-06
2.47823e-06
1.18584e-06
0
0
0
0
0
0
8.39684e-07
8.92167e-07
1.20395e-07
0
0
0
0
0
0
0
1.21198e-07
3.77385e-06
5.38511e-06
5.13656e-06
1.39172e-05
1.26702e-05
7.12465e-06
1.15662e-06
0
0
0
0
0
1.523e-06
3.03223e-06
5.06522e-06
6.30557e-06
2.52243e-06
4.08404e-06
1.1454e-05
1.73917e-05
2.24476e-05
2.76106e-05
3.47782e-05
4.54824e-05
6.25933e-05
6.03639e-05
0
0
0
0
0
0
0
5.9393e-07
1.70227e-06
1.59726e-06
4.61052e-07
0
0
0
0
0
0
0
0
0
0
0
0
0
0
0
0
1.9352e-07
1.03407e-07
0
1.68701e-08
0
0
0
0
1.78529e-06
4.34285e-06
4.01583e-06
2.02245e-06
0
0
0
0
0
0
0
0
0
0
0
0
0
0
0
0
0
0
0
0
0
0
0
0
0
0
3.39214e-07
3.01228e-06
4.80313e-06
5.8839e-06
6.5945e-06
7.20343e-06
8.04609e-06
9.68768e-06
1.29518e-05
1.57746e-05
0
0
1.62563e-06
2.2259e-06
1.51919e-06
0
0
0
0
0
0
0
0
0
0
0
1.32703e-07
4.18956e-06
6.43627e-06
7.07376e-06
6.46511e-06
5.4532e-06
4.47316e-06
3.5294e-06
2.61593e-06
1.78092e-06
9.78708e-07
1.42289e-07
0
0
0
0
0
0
0
0
0
0
0
0
0
0
0
0
0
1.59242e-07
8.2196e-07
1.60156e-06
2.27219e-06
4.20833e-06
9.74332e-06
9.24064e-06
5.70301e-06
2.99063e-06
1.24804e-06
8.59995e-07
2.50923e-06
3.7409e-06
4.28794e-06
3.79817e-06
2.60987e-06
1.47736e-06
0
0
0
0
0
0
2.14435e-06
2.85224e-06
2.79435e-06
9.54478e-07
2.49161e-07
9.3199e-07
0
0
0
0
0
0
0
0
1.31889e-05
9.97212e-06
7.32806e-06
3.40479e-06
0
0
8.41066e-06
3.59304e-06
1.62978e-07
6.21116e-07
2.43243e-06
5.96958e-06
1.098e-05
1.32144e-05
1.11952e-05
1.34761e-05
1.81608e-05
2.31675e-05
2.86468e-05
3.61995e-05
4.88394e-05
7.15107e-05
6.51755e-05
0
0
0
0
0
0
0
5.25486e-07
2.24031e-06
2.38103e-06
1.27555e-06
0
0
0
0
0
0
0
0
0
0
0
0
0
0
0
1.21388e-07
9.25175e-07
1.29262e-06
1.47442e-06
1.70217e-06
1.94176e-06
1.64986e-06
6.71759e-07
7.74245e-08
1.19254e-06
3.79266e-06
3.89783e-06
1.40209e-06
0
0
0
0
0
0
0
0
0
0
0
0
0
0
0
0
0
0
0
0
0
0
0
0
0
0
0
1.11561e-06
2.92662e-06
4.62813e-06
6.33574e-06
8.34372e-06
1.10098e-05
1.43077e-05
1.62762e-05
8.17677e-06
0
0
0
0
0
0
0
0
0
0
0
0
0
0
0
0
0
0
0
2.15075e-06
2.5572e-06
2.35464e-06
2.27281e-06
2.19477e-06
2.02812e-06
1.71691e-06
1.22659e-06
6.55373e-07
1.47652e-07
0
0
0
0
0
0
0
0
0
0
0
0
0
0
0
6.06908e-07
1.34567e-06
2.59012e-06
4.65134e-06
7.4129e-06
1.03563e-05
8.84235e-06
6.46265e-06
4.30699e-06
2.19754e-06
7.9556e-07
2.07162e-06
3.57975e-06
3.79412e-06
4.07929e-06
4.11953e-06
3.29466e-06
2.47847e-06
0
0
0
0
0
1.2776e-06
3.26322e-06
4.40874e-06
4.69675e-06
3.59949e-06
1.88861e-06
2.66405e-06
1.39653e-06
0
0
0
0
0
0
0
6.63772e-06
4.66026e-06
5.3562e-06
4.16706e-06
6.5827e-06
1.28507e-05
2.02454e-05
1.15446e-05
1.57293e-06
0
9.71513e-07
4.45619e-06
1.05038e-05
1.74311e-05
1.9953e-05
1.9732e-05
2.15104e-05
2.52183e-05
3.04191e-05
3.8091e-05
5.05468e-05
6.53148e-05
2.84771e-05
0
0
0
0
0
0
0
4.82637e-07
2.7431e-06
3.02289e-06
1.96605e-06
2.62304e-07
0
0
0
0
0
0
0
0
0
0
0
0
0
0
2.93653e-07
1.40154e-06
2.21612e-06
2.76322e-06
3.22556e-06
3.67828e-06
3.9438e-06
3.33708e-06
2.12853e-06
1.78256e-06
3.30424e-06
3.83785e-06
9.15085e-07
0
0
0
0
0
0
0
0
0
0
0
0
0
0
0
0
0
0
1.05127e-05
0
0
0
0
0
0
0
0
5.86112e-07
1.73249e-06
2.68477e-06
3.38029e-06
3.82558e-06
3.9886e-06
3.69001e-06
2.60193e-06
5.07439e-07
0
0
0
0
2.88547e-07
1.0204e-06
1.32179e-06
9.98577e-07
0
0
0
0
0
0
0
0
0
0
0
0
2.49245e-07
2.55088e-07
1.67389e-07
2.15131e-07
3.65149e-07
5.08078e-07
3.40903e-07
0
0
0
0
0
0
0
0
0
0
0
0
0
0
0
3.35065e-07
4.59586e-06
7.26367e-06
9.3233e-06
1.26536e-05
1.58605e-05
1.3387e-05
7.91987e-06
5.97811e-06
5.16181e-06
3.63275e-06
1.5134e-06
1.11711e-06
3.44111e-06
4.24685e-06
4.08984e-06
4.11326e-06
3.35961e-06
2.79006e-06
2.99549e-06
9.58073e-07
0
0
0
0
2.51859e-06
4.22013e-06
5.5587e-06
6.08467e-06
5.75252e-06
3.6119e-06
3.82196e-06
4.59545e-06
0
0
0
0
0
4.7619e-07
4.69839e-07
0
0
0
4.74527e-06
3.08891e-06
7.33215e-06
1.31797e-05
1.15977e-05
2.89501e-06
0
0
2.23999e-06
7.6864e-06
1.58206e-05
2.36679e-05
2.73837e-05
2.88169e-05
3.1428e-05
3.62563e-05
4.43158e-05
5.65042e-05
6.10975e-05
2.53465e-06
0
0
0
0
0
0
0
5.37377e-07
3.03716e-06
3.32889e-06
2.37449e-06
8.00074e-07
0
0
0
0
0
0
0
0
0
0
0
0
0
0
4.34563e-07
1.74026e-06
2.95242e-06
3.89124e-06
4.65596e-06
5.23591e-06
5.80177e-06
5.86063e-06
4.86572e-06
3.49512e-06
3.50474e-06
3.85067e-06
4.70751e-07
0
0
0
0
0
0
0
0
0
0
0
0
0
0
0
0
0
0
1.64209e-05
3.5882e-05
0
0
0
0
0
0
6.98421e-08
4.87077e-07
8.63457e-07
1.11247e-06
1.17087e-06
1.0311e-06
7.74439e-07
4.42025e-07
0
0
0
0
0
0
1.27433e-07
1.02966e-06
1.88874e-06
2.69325e-06
3.00846e-06
2.63345e-06
1.70456e-06
0
0
0
0
0
0
0
0
0
1.25027e-07
0
0
0
0
0
0
0
0
0
0
0
0
0
0
0
0
5.10256e-07
7.12447e-07
9.394e-07
2.29523e-06
4.398e-06
6.57966e-06
8.64908e-06
9.88754e-06
1.01435e-05
1.01074e-05
9.22602e-06
6.89329e-06
5.13514e-06
5.03415e-06
4.70172e-06
3.01777e-06
7.97443e-07
2.83881e-06
4.60401e-06
4.10176e-06
3.165e-06
2.68869e-06
2.09817e-06
2.51467e-06
3.34403e-06
2.23827e-06
0
0
0
0
3.58725e-06
5.01615e-06
6.38224e-06
7.17325e-06
7.3797e-06
5.28624e-06
4.5943e-06
6.08623e-06
5.04583e-06
0
0
7.65996e-07
5.69569e-06
1.17747e-05
2.46703e-05
0
0
1.25484e-05
0
0
2.64794e-06
7.89771e-06
9.38161e-06
3.84494e-06
0
0
4.62953e-07
4.64478e-06
1.18402e-05
2.12776e-05
3.02142e-05
3.62386e-05
4.08921e-05
4.71058e-05
5.76609e-05
7.34212e-05
7.09125e-05
0
0
0
0
0
0
0
0
5.15428e-07
2.94973e-06
3.16339e-06
2.3518e-06
1.14139e-06
0
0
0
0
0
0
0
0
0
0
0
0
0
0
5.16986e-07
2.01135e-06
3.58563e-06
4.91984e-06
5.99102e-06
6.76059e-06
7.3622e-06
7.96758e-06
7.69858e-06
6.20942e-06
4.82069e-06
4.26642e-06
0
0
0
0
0
0
0
0
6.0846e-07
9.60961e-07
0
0
0
0
0
0
0
0
0
9.50127e-06
6.76568e-05
6.70774e-05
0
0
0
0
0
0
0
0
1.14449e-09
0
0
0
0
0
0
0
0
0
0
0
0
0
5.75643e-07
1.09581e-06
1.12946e-06
1.04077e-06
9.59479e-07
0
0
0
0
0
0
2.07804e-06
2.00874e-06
1.215e-06
4.61773e-07
3.24676e-09
0
0
0
0
0
0
0
0
0
0
0
0
0
0
0
4.56361e-07
4.17254e-06
7.62662e-06
9.9488e-06
1.13344e-05
1.20676e-05
1.18263e-05
1.13867e-05
1.10614e-05
9.96086e-06
8.12489e-06
7.03185e-06
6.72944e-06
5.7203e-06
2.7096e-06
2.51527e-06
5.46277e-06
5.09076e-06
2.51903e-06
5.98385e-07
1.49999e-06
2.06048e-06
2.84813e-06
3.78278e-06
2.94991e-06
0
0
0
1.1392e-06
4.49447e-06
5.66266e-06
7.01183e-06
8.05124e-06
8.54286e-06
6.8186e-06
5.1703e-06
6.39902e-06
7.91415e-06
3.43857e-06
0
9.29256e-07
9.23851e-06
1.9514e-05
3.81862e-05
4.87977e-05
2.88237e-05
2.05642e-06
0
0
0
4.24871e-06
6.96263e-06
4.29391e-06
7.26412e-07
0
0
2.44831e-06
8.03354e-06
1.64181e-05
2.67999e-05
3.7495e-05
4.75364e-05
5.89907e-05
7.68275e-05
0.000106203
0.000115114
0
0
0
0
0
0
0
0
1.74393e-07
2.37451e-06
2.51801e-06
1.91606e-06
1.21097e-06
4.88644e-07
0
0
0
0
0
0
0
0
0
0
0
0
0
4.04604e-07
2.21868e-06
4.19439e-06
5.92453e-06
7.28413e-06
8.27027e-06
8.82683e-06
9.64756e-06
1.01325e-05
9.44662e-06
7.42297e-06
5.77416e-06
0
0
0
0
0
0
0
0
1.37729e-06
2.61031e-06
6.91336e-07
0
0
0
0
0
0
0
0
0
5.82665e-05
0.00016045
0.000105393
0
0
0
0
0
0
0
0
0
0
0
0
0
0
0
0
0
0
2.04637e-07
5.50195e-07
9.39669e-07
1.45093e-06
1.72601e-06
1.29341e-06
3.60816e-07
0
0
0
0
2.3898e-06
4.48552e-06
6.83384e-06
7.45455e-06
4.69223e-06
2.51596e-06
1.26187e-06
5.80904e-07
2.05117e-07
0
0
0
0
0
0
0
0
0
0
0
0
0
0
0
2.27577e-07
3.82897e-06
8.66135e-06
1.35802e-05
1.59095e-05
1.55242e-05
1.50957e-05
1.45567e-05
1.23263e-05
1.00983e-05
9.56477e-06
8.89372e-06