/*--------------------------------*- C++ -*----------------------------------*\
| =========                 |                                                 |
| \\      /  F ield         | OpenFOAM: The Open Source CFD Toolbox           |
|  \\    /   O peration     | Version:  2112                                  |
|   \\  /    A nd           | Website:  www.openfoam.com                      |
|    \\/     M anipulation  |                                                 |
\*---------------------------------------------------------------------------*/
FoamFile
{
    version     2.0;
    format      ascii;
    arch        "LSB;label=32;scalar=64";
    class       surfaceScalarField;
    location    "0.41";
    object      phi_0;
}
// * * * * * * * * * * * * * * * * * * * * * * * * * * * * * * * * * * * * * //

dimensions      [0 3 -1 0 0 0 0];

oriented        oriented;

internalField   nonuniform List<scalar> 
24170
(
3.05997e-06
7.50308e-08
2.93976e-06
1.20214e-07
2.81861e-06
1.21153e-07
2.71693e-06
1.01674e-07
2.63133e-06
8.56069e-08
2.55023e-06
8.10978e-08
2.46459e-06
8.56388e-08
2.36849e-06
9.6098e-08
2.26218e-06
1.06315e-07
2.15047e-06
1.11712e-07
2.03661e-06
1.13856e-07
1.91637e-06
1.20243e-07
1.77686e-06
1.39502e-07
1.60184e-06
1.75021e-07
1.3775e-06
2.2434e-07
1.0877e-06
2.89799e-07
7.35662e-07
3.52042e-07
4.66555e-07
2.69107e-07
3.40973e-06
2.29098e-08
3.43319e-06
9.6756e-08
3.45461e-06
9.97277e-08
3.45677e-06
9.95163e-08
3.44155e-06
1.00821e-07
3.41896e-06
1.03695e-07
3.39731e-06
1.07284e-07
3.37627e-06
1.17135e-07
3.34968e-06
1.32906e-07
3.31071e-06
1.50684e-07
3.25449e-06
1.70079e-07
3.17992e-06
1.94809e-07
3.08769e-06
2.31731e-07
2.97877e-06
2.83947e-07
2.84769e-06
3.55411e-07
2.68796e-06
4.49536e-07
2.47782e-06
5.62178e-07
7.12916e-07
2.23146e-06
3.64882e-06
4.85733e-08
3.6496e-06
9.59835e-08
3.66748e-06
8.18405e-08
3.67639e-06
9.06134e-08
3.67531e-06
1.01898e-07
3.66781e-06
1.1119e-07
3.65813e-06
1.16964e-07
3.64787e-06
1.27395e-07
3.63491e-06
1.45871e-07
3.61564e-06
1.69948e-07
3.58674e-06
1.98986e-07
3.54747e-06
2.34074e-07
3.49947e-06
2.7973e-07
3.44348e-06
3.3994e-07
3.38212e-06
4.16768e-07
3.3152e-06
5.16464e-07
3.24065e-06
6.36719e-07
7.98991e-07
3.15458e-06
3.94337e-06
3.27661e-08
4.00262e-06
3.67334e-08
3.99653e-06
8.79317e-08
3.95001e-06
1.37127e-07
3.90192e-06
1.49988e-07
3.87189e-06
1.41227e-07
3.85956e-06
1.29295e-07
3.85915e-06
1.27805e-07
3.86395e-06
1.41068e-07
3.86756e-06
1.6634e-07
3.8634e-06
2.03141e-07
3.84434e-06
2.53134e-07
3.80756e-06
3.16509e-07
3.75408e-06
3.93429e-07
3.69238e-06
4.78464e-07
3.63028e-06
5.7856e-07
3.57692e-06
6.90082e-07
8.34057e-07
3.54185e-06
4.25569e-06
-5.51579e-08
4.24826e-06
4.41674e-08
4.20824e-06
1.27953e-07
4.18425e-06
1.61116e-07
4.17733e-06
1.56901e-07
4.17573e-06
1.42829e-07
4.16786e-06
1.37168e-07
4.14765e-06
1.4801e-07
4.11989e-06
1.6883e-07
4.09314e-06
1.93095e-07
4.07191e-06
2.2437e-07
4.05508e-06
2.69962e-07
4.03866e-06
3.32926e-07
4.01692e-06
4.15175e-07
3.98678e-06
5.08602e-07
3.94897e-06
6.16376e-07
3.90755e-06
7.315e-07
8.64719e-07
3.87689e-06
4.48508e-06
1.41285e-08
4.48209e-06
4.7154e-08
4.49997e-06
1.10076e-07
4.49393e-06
1.67156e-07
4.47675e-06
1.74079e-07
4.45883e-06
1.60747e-07
4.44423e-06
1.51772e-07
4.43733e-06
1.54902e-07
4.43836e-06
1.67802e-07
4.44049e-06
1.90972e-07
4.43645e-06
2.28405e-07
4.42384e-06
2.82578e-07
4.40467e-06
3.52096e-07
4.38144e-06
4.38404e-07
4.35522e-06
5.34821e-07
4.3281e-06
6.4349e-07
4.30118e-06
7.58423e-07
8.84547e-07
4.28135e-06
4.78314e-06
-4.52375e-08
4.78492e-06
4.53792e-08
4.78632e-06
1.08667e-07
4.80263e-06
1.50849e-07
4.80852e-06
1.68194e-07
4.79744e-06
1.71824e-07
4.78464e-06
1.64572e-07
4.78274e-06
1.56802e-07
4.78724e-06
1.63302e-07
4.78577e-06
1.92435e-07
4.77333e-06
2.40847e-07
4.75121e-06
3.04705e-07
4.72339e-06
3.79911e-07
4.69528e-06
4.66514e-07
4.67037e-06
5.59737e-07
4.6516e-06
6.62256e-07
4.64088e-06
7.69144e-07
8.84405e-07
4.64102e-06
5.12472e-06
-4.44038e-08
5.15415e-06
1.59483e-08
5.18032e-06
8.24972e-08
5.20488e-06
1.26288e-07
5.19204e-06
1.81038e-07
5.14562e-06
2.18244e-07
5.09383e-06
2.16357e-07
5.05838e-06
1.92255e-07
5.04668e-06
1.75001e-07
5.05314e-06
1.85973e-07
5.06218e-06
2.31809e-07
5.06203e-06
3.04851e-07
5.05113e-06
3.90811e-07
5.03471e-06
4.8294e-07
5.02025e-06
5.74193e-07
5.01533e-06
6.67176e-07
5.02507e-06
7.59405e-07
8.58596e-07
5.05088e-06
5.51129e-06
-9.10845e-08
5.58191e-06
-5.46748e-08
5.6018e-06
6.26091e-08
5.60254e-06
1.2555e-07
5.59698e-06
1.86596e-07
5.58126e-06
2.33969e-07
5.55355e-06
2.44059e-07
5.52441e-06
2.21401e-07
5.50506e-06
1.94345e-07
5.49664e-06
1.94395e-07
5.49391e-06
2.3454e-07
5.4881e-06
3.10658e-07
5.47212e-06
4.06798e-07
5.44707e-06
5.07982e-07
5.42038e-06
6.00892e-07
5.40087e-06
6.86683e-07
5.39819e-06
7.62085e-07
8.37326e-07
5.41946e-06
5.93284e-06
-1.79204e-07
5.8994e-06
-2.12349e-08
5.91263e-06
4.93751e-08
5.96347e-06
7.4713e-08
6.01813e-06
1.31935e-07
6.04237e-06
2.09728e-07
6.02415e-06
2.62275e-07
5.97427e-06
2.71285e-07
5.91311e-06
2.55501e-07
5.86175e-06
2.4576e-07
5.83061e-06
2.65676e-07
5.81802e-06
3.23255e-07
5.81663e-06
4.08184e-07
5.81993e-06
5.0468e-07
5.82567e-06
5.95153e-07
5.8366e-06
6.75756e-07
5.85719e-06
7.41489e-07
8.0135e-07
5.89317e-06
6.26479e-06
-3.37211e-08
6.2642e-06
-2.0638e-08
6.31703e-06
-3.45947e-09
6.3234e-06
6.83434e-08
6.29721e-06
1.58125e-07
6.27824e-06
2.28699e-07
6.27402e-06
2.66493e-07
6.27348e-06
2.71825e-07
6.26861e-06
2.60369e-07
6.25585e-06
2.58524e-07
6.23672e-06
2.84807e-07
6.21694e-06
3.43038e-07
6.20343e-06
4.21687e-07
6.20129e-06
5.0682e-07
6.21299e-06
5.83455e-07
6.23936e-06
6.49392e-07
6.28002e-06
7.00821e-07
7.46498e-07
6.33488e-06
5.65773e-06
-2.70561e-08
5.69844e-06
-6.13438e-08
5.71724e-06
-2.22617e-08
5.7154e-06
7.0189e-08
5.70285e-06
1.70675e-07
5.68923e-06
2.42319e-07
5.67925e-06
2.76469e-07
5.66739e-06
2.83688e-07
5.64586e-06
2.81891e-07
5.61542e-06
2.88969e-07
5.58525e-06
3.14978e-07
5.56591e-06
3.62375e-07
5.56368e-06
4.23917e-07
5.57882e-06
4.91677e-07
5.60772e-06
5.54554e-07
5.64638e-06
6.1074e-07
5.69132e-06
6.55876e-07
6.95577e-07
5.74224e-06
7.02961e-06
-4.13613e-08
7.03639e-06
-6.81286e-08
6.98229e-06
3.18402e-08
6.96018e-06
9.22962e-08
6.98299e-06
1.47871e-07
7.0163e-06
2.09002e-07
7.03716e-06
2.55612e-07
7.03843e-06
2.82415e-07
7.01993e-06
3.00398e-07
6.98553e-06
3.23361e-07
6.94361e-06
3.56898e-07
6.90595e-06
4.00038e-07
6.88332e-06
4.46552e-07
6.88205e-06
4.92941e-07
6.90202e-06
5.34589e-07
6.93937e-06
5.73383e-07
6.98869e-06
6.06563e-07
6.38843e-07
7.04542e-06
8.56198e-06
6.29492e-08
8.47755e-06
1.63091e-08
8.41482e-06
9.45698e-08
8.37048e-06
1.36629e-07
8.3546e-06
1.63753e-07
8.37508e-06
1.88519e-07
8.42409e-06
2.06611e-07
8.4846e-06
2.21903e-07
8.53725e-06
2.47745e-07
8.56708e-06
2.93526e-07
8.56849e-06
3.55497e-07
8.54806e-06
4.20468e-07
8.52025e-06
4.74358e-07
8.50141e-06
5.11783e-07
8.50286e-06
5.33133e-07
8.52935e-06
5.469e-07
8.5804e-06
5.5551e-07
5.68056e-07
8.65119e-06
1.04299e-05
1.66267e-07
1.03781e-05
6.81297e-08
1.04038e-05
6.88675e-08
1.04227e-05
1.17725e-07
1.03989e-05
1.87574e-07
1.03383e-05
2.49166e-07
1.02688e-05
2.76045e-07
1.02167e-05
2.74072e-07
1.01973e-05
2.67125e-07
1.02135e-05
2.77278e-07
1.02578e-05
3.11234e-07
1.0318e-05
3.60238e-07
1.03831e-05
4.09251e-07
1.0447e-05
4.47901e-07
1.05087e-05
4.71428e-07
1.0571e-05
4.84642e-07
1.06372e-05
4.89305e-07
4.93652e-07
1.07116e-05
1.26829e-05
2.46949e-07
1.2509e-05
2.42038e-07
1.24944e-05
8.34336e-08
1.25533e-05
5.88474e-08
1.26339e-05
1.06964e-07
1.27178e-05
1.65261e-07
1.27896e-05
2.0429e-07
1.28415e-05
2.22075e-07
1.28722e-05
2.36435e-07
1.28867e-05
2.6279e-07
1.28928e-05
3.05113e-07
1.28972e-05
3.55934e-07
1.29041e-05
4.02303e-07
1.29162e-05
4.35764e-07
1.29362e-05
4.51487e-07
1.29666e-05
4.54233e-07
1.301e-05
4.45892e-07
4.34656e-07
1.3069e-05
1.5278e-05
6.2266e-08
1.53149e-05
2.05118e-07
1.53103e-05
8.80214e-08
1.52848e-05
8.43911e-08
1.52807e-05
1.11011e-07
1.53244e-05
1.21638e-07
1.53989e-05
1.29805e-07
1.54767e-05
1.44278e-07
1.55424e-05
1.70648e-07
1.55937e-05
2.11522e-07
1.56351e-05
2.6375e-07
1.56721e-05
3.18869e-07
1.57084e-05
3.66055e-07
1.57455e-05
3.98684e-07
1.57849e-05
4.1208e-07
1.58297e-05
4.09378e-07
1.58829e-05
3.92683e-07
3.69013e-07
1.59486e-05
1.85338e-05
-8.63747e-08
1.87359e-05
3.01513e-09
1.87438e-05
8.01389e-08
1.87132e-05
1.1498e-07
1.87041e-05
1.20136e-07
1.87105e-05
1.15181e-07
1.87259e-05
1.14424e-07
1.87466e-05
1.23545e-07
1.87705e-05
1.46815e-07
1.87985e-05
1.83489e-07
1.88367e-05
2.25589e-07
1.88919e-05
2.63673e-07
1.89668e-05
2.9108e-07
1.90594e-05
3.06086e-07
1.91625e-05
3.09003e-07
1.92689e-05
3.0296e-07
1.93717e-05
2.89934e-07
2.73381e-07
1.94673e-05
2.29318e-05
-3.61134e-07
2.31775e-05
-2.42763e-07
2.32097e-05
4.79633e-08
2.31628e-05
1.61893e-07
2.3113e-05
1.69907e-07
2.30953e-05
1.32899e-07
2.31237e-05
8.5983e-08
2.31864e-05
6.08698e-08
2.32646e-05
6.8603e-08
2.33476e-05
1.00493e-07
2.34288e-05
1.44423e-07
2.35043e-05
1.88165e-07
2.35739e-05
2.21443e-07
2.36402e-05
2.3978e-07
2.3706e-05
2.43222e-07
2.37731e-05
2.35866e-07
2.38425e-05
2.20578e-07
2.00441e-07
2.39154e-05
1.64567e-05
-1.35032e-07
1.63624e-05
-1.48422e-07
1.64568e-05
-4.64363e-08
1.66563e-05
-3.75701e-08
1.68799e-05
-5.37111e-08
1.70717e-05
-5.89357e-08
1.72048e-05
-4.70659e-08
1.72771e-05
-1.14732e-08
1.72977e-05
4.79813e-08
1.72849e-05
1.13314e-07
1.72584e-05
1.70898e-07
1.72357e-05
2.10896e-07
1.72267e-05
2.30441e-07
1.72347e-05
2.31752e-07
1.72598e-05
2.18179e-07
1.73007e-05
1.94934e-07
1.73556e-05
1.657e-07
1.35481e-07
1.74205e-05
1.50137e-05
1.42903e-07
1.48868e-05
-2.15851e-08
1.49436e-05
-1.0322e-07
1.50171e-05
-1.11043e-07
1.50538e-05
-9.03601e-08
1.50621e-05
-6.73064e-08
1.50553e-05
-4.02273e-08
1.5047e-05
-3.22914e-09
1.50469e-05
4.8132e-08
1.50454e-05
1.14767e-07
1.50353e-05
1.81055e-07
1.50152e-05
2.31008e-07
1.49895e-05
2.56101e-07
1.49648e-05
2.5645e-07
1.49468e-05
2.36201e-07
1.49398e-05
2.01964e-07
1.49461e-05
1.59352e-07
1.16463e-07
1.49651e-05
1.28047e-05
2.2894e-07
1.2713e-05
7.01282e-08
1.26748e-05
-6.50334e-08
1.26406e-05
-7.67971e-08
1.26221e-05
-7.18403e-08
1.26151e-05
-6.03642e-08
1.26085e-05
-3.35767e-08
1.26037e-05
1.51299e-09
1.26166e-05
3.52567e-08
1.26674e-05
6.39847e-08
1.27567e-05
9.1804e-08
1.28695e-05
1.18209e-07
1.29862e-05
1.39353e-07
1.30911e-05
1.51547e-07
1.31742e-05
1.53083e-07
1.32312e-05
1.44943e-07
1.32619e-05
1.28684e-07
1.06599e-07
1.32718e-05
1.0906e-05
1.506e-07
1.09745e-05
1.63107e-09
1.09827e-05
-7.32678e-08
1.10366e-05
-1.30711e-07
1.1117e-05
-1.52195e-07
1.11711e-05
-1.145e-07
1.11704e-05
-3.28342e-08
1.1131e-05
4.08857e-08
1.10825e-05
8.37106e-08
1.10563e-05
9.02762e-08
1.10706e-05
7.74675e-08
1.11262e-05
6.25625e-08
1.1211e-05
5.45696e-08
1.13089e-05
5.36518e-08
1.14069e-05
5.51441e-08
1.14964e-05
5.54252e-08
1.15724e-05
5.2668e-08
4.63821e-08
1.16326e-05
9.68693e-06
4.88107e-08
9.79055e-06
-1.01991e-07
9.87146e-06
-1.54172e-07
9.882e-06
-1.4125e-07
9.84713e-06
-1.17324e-07
9.81516e-06
-8.25327e-08
9.81327e-06
-3.09414e-08
9.82935e-06
2.4803e-08
9.85319e-06
5.98707e-08
9.87207e-06
7.13901e-08
9.88302e-06
6.65243e-08
9.88957e-06
5.60127e-08
9.89779e-06
4.63465e-08
9.91258e-06
3.88618e-08
9.93492e-06
3.28031e-08
9.96307e-06
2.72717e-08
9.99288e-06
2.28644e-08
2.04481e-08
1.00188e-05
8.58079e-06
7.90938e-08
8.48646e-06
-7.66299e-09
8.43182e-06
-9.95295e-08
8.43572e-06
-1.4515e-07
8.4717e-06
-1.53305e-07
8.5032e-06
-1.14029e-07
8.513e-06
-4.07462e-08
8.511e-06
2.68054e-08
8.50851e-06
6.23577e-08
8.51939e-06
6.0518e-08
8.54936e-06
3.65545e-08
8.59599e-06
9.37846e-09
8.65137e-06
-9.03739e-09
8.70679e-06
-1.65497e-08
8.75452e-06
-1.49283e-08
8.79014e-06
-8.35166e-09
8.81319e-06
-1.86109e-10
7.64935e-09
8.82599e-06
7.4003e-06
1.36212e-09
7.40585e-06
-1.321e-08
7.41426e-06
-1.07936e-07
7.42531e-06
-1.56202e-07
7.41417e-06
-1.42165e-07
7.37741e-06
-7.72663e-08
7.34038e-06
-3.72537e-09
7.32588e-06
4.13113e-08
7.34603e-06
4.22054e-08
7.39126e-06
1.52907e-08
7.44565e-06
-1.78392e-08
7.49437e-06
-3.93393e-08
7.52936e-06
-4.40313e-08
7.5488e-06
-3.59857e-08
7.55653e-06
-2.26591e-08
7.55821e-06
-1.00284e-08
7.5596e-06
-1.5754e-09
2.20046e-09
7.56505e-06
6.47559e-06
-5.36387e-08
6.48307e-06
-2.06855e-08
6.42593e-06
-5.07961e-08
6.37588e-06
-1.06158e-07
6.34368e-06
-1.0996e-07
6.34317e-06
-7.67628e-08
6.37391e-06
-3.44655e-08
6.41783e-06
-2.60127e-09
6.45148e-06
8.54723e-09
6.46509e-06
1.68417e-09
6.46208e-06
-1.48276e-08
6.45517e-06
-3.24303e-08
6.45438e-06
-4.32372e-08
6.46395e-06
-4.55578e-08
6.48296e-06
-4.16731e-08
6.50804e-06
-3.51053e-08
6.5354e-06
-2.89327e-08
-2.4e-08
6.5616e-06
5.49719e-06
5.36189e-08
5.54423e-06
-6.77204e-08
5.58983e-06
-9.64021e-08
5.60621e-06
-1.22531e-07
5.62317e-06
-1.26923e-07
5.65239e-06
-1.05981e-07
5.69152e-06
-7.35919e-08
5.72924e-06
-4.03213e-08
5.75286e-06
-1.50766e-08
5.75676e-06
-2.22022e-09
5.74455e-06
-2.61766e-09
5.72475e-06
-1.26277e-08
5.70841e-06
-2.68954e-08
5.70359e-06
-4.07425e-08
5.71273e-06
-5.08053e-08
5.73345e-06
-5.58253e-08
5.76042e-06
-5.59095e-08
-5.11247e-08
5.78755e-06
5.04206e-06
1.98886e-08
5.02622e-06
-5.18785e-08
4.99017e-06
-6.03498e-08
4.95157e-06
-8.39383e-08
4.92065e-06
-9.60025e-08
4.90251e-06
-8.78368e-08
4.90073e-06
-7.18148e-08
4.91741e-06
-5.69957e-08
4.949e-06
-4.66729e-08
4.98684e-06
-4.00537e-08
5.02041e-06
-3.61922e-08
5.04265e-06
-3.48726e-08
5.05214e-06
-3.63796e-08
5.05215e-06
-4.07492e-08
5.04774e-06
-4.64014e-08
5.04315e-06
-5.12325e-08
5.04087e-06
-5.36298e-08
-5.20956e-08
5.04184e-06
4.21206e-06
4.16018e-06
4.09983e-06
4.01589e-06
3.91989e-06
3.83206e-06
3.76024e-06
3.70324e-06
3.65657e-06
3.61652e-06
3.58033e-06
3.54545e-06
3.50907e-06
3.46832e-06
3.42192e-06
3.37069e-06
3.31706e-06
3.26497e-06
-8.08787e-07
8.08787e-07
-1.52345e-06
7.14666e-07
-2.05137e-06
5.27916e-07
-2.37314e-06
3.21767e-07
-2.47479e-06
1.01653e-07
-2.40123e-06
-7.35592e-08
-2.17928e-06
-2.21947e-07
-1.82517e-06
-3.54115e-07
-1.3637e-06
-4.61468e-07
-8.29703e-07
-5.33997e-07
-2.63465e-07
-5.66238e-07
2.9273e-07
-5.56195e-07
8.01307e-07
-5.08577e-07
1.23556e-06
-4.34252e-07
1.56866e-06
-3.331e-07
1.78589e-06
-2.17227e-07
1.8855e-06
-9.96097e-08
1.86659e-06
1.89077e-08
1.74155e-06
1.25035e-07
1.49479e-06
2.46765e-07
1.1548e-06
3.39985e-07
6.66704e-07
4.881e-07
1.55245e-07
5.11459e-07
-4.8773e-08
2.04018e-07
-5.91623e-08
1.03893e-08
1.92317e-07
-2.5148e-07
6.57712e-07
-4.65394e-07
1.10295e-06
-4.45234e-07
1.40776e-06
-3.0481e-07
1.51956e-06
-1.11801e-07
1.45218e-06
6.73721e-08
1.26259e-06
1.89598e-07
9.71343e-07
2.91243e-07
5.14847e-07
4.56496e-07
-7.48509e-08
5.89698e-07
-6.7394e-07
5.99089e-07
-1.26616e-06
5.9222e-07
-1.83587e-06
5.69714e-07
-2.38645e-06
5.50576e-07
-2.92445e-06
5.37996e-07
-3.45385e-06
5.29401e-07
-3.9793e-06
5.25449e-07
-4.50458e-06
5.25286e-07
-5.03377e-06
5.29192e-07
-5.56852e-06
5.34743e-07
-6.10916e-06
5.40641e-07
-6.65485e-06
5.4569e-07
-7.2027e-06
5.47847e-07
-7.74731e-06
5.44613e-07
-8.28109e-06
5.33781e-07
-8.79425e-06
5.1316e-07
-9.27493e-06
4.8068e-07
-9.70981e-06
4.3488e-07
-1.00849e-05
3.7514e-07
-1.03867e-05
3.01743e-07
-1.06027e-05
2.16021e-07
-1.07234e-05
1.20689e-07
-1.07435e-05
2.01075e-08
-1.06629e-05
-8.05684e-08
-1.04852e-05
-1.7776e-07
-1.02156e-05
-2.6955e-07
-9.86217e-06
-3.53463e-07
-9.43407e-06
-4.28095e-07
-8.9415e-06
-4.92572e-07
-8.39477e-06
-5.46733e-07
-7.80364e-06
-5.91124e-07
-7.17683e-06
-6.26815e-07
-6.52179e-06
-6.55039e-07
-5.84469e-06
-6.77098e-07
-5.15072e-06
-6.93973e-07
-4.44438e-06
-7.06342e-07
-3.72945e-06
-7.14929e-07
-3.00864e-06
-7.20812e-07
-2.28295e-06
-7.25684e-07
-1.55097e-06
-7.31978e-07
-8.0812e-07
-7.42855e-07
-4.29868e-08
-7.65133e-07
7.57458e-07
-8.00445e-07
1.61564e-06
-8.5818e-07
2.54191e-06
-9.26272e-07
3.52786e-06
-9.85951e-07
4.53749e-06
-1.00963e-06
5.5378e-06
-1.0003e-06
6.508e-06
-9.70205e-07
7.32604e-06
-8.18039e-07
7.89901e-06
-5.72968e-07
8.28251e-06
-3.83498e-07
8.31368e-06
-3.11756e-08
7.8614e-06
4.52286e-07
6.95608e-06
9.05319e-07
5.2804e-06
1.67568e-06
3.33712e-06
1.94328e-06
1.99263e-06
1.34449e-06
1.35782e-06
6.34817e-07
1.04393e-06
3.13889e-07
7.29219e-07
3.14709e-07
7.5864e-07
-2.9421e-08
1.44018e-06
-6.81543e-07
2.5414e-06
-1.10122e-06
3.44846e-06
-9.07061e-07
3.81944e-06
-3.70974e-07
3.70246e-06
1.16976e-07
3.1891e-06
5.13361e-07
2.12571e-06
1.06339e-06
5.44996e-07
1.58071e-06
-1.19033e-06
1.73533e-06
-2.86436e-06
1.67403e-06
-4.39744e-06
1.53307e-06
-5.77295e-06
1.37552e-06
-6.997e-06
1.22405e-06
-8.07991e-06
1.08291e-06
-9.02842e-06
9.4851e-07
-9.8439e-06
8.1548e-07
-1.05228e-05
6.78904e-07
-1.10567e-05
5.33913e-07
-1.1435e-05
3.78275e-07
-1.16495e-05
2.1455e-07
-1.16973e-05
4.77189e-08
-1.15898e-05
-1.07486e-07
-1.13339e-05
-2.5585e-07
-1.09408e-05
-3.93086e-07
-1.04282e-05
-5.12595e-07
-9.81606e-06
-6.12182e-07
-9.1287e-06
-6.87358e-07
-8.39101e-06
-7.37696e-07
-7.62767e-06
-7.63334e-07
-6.86113e-06
-7.66541e-07
-6.11002e-06
-7.51111e-07
-5.38863e-06
-7.21387e-07
-4.70666e-06
-6.81974e-07
-4.06927e-06
-6.37387e-07
-3.47758e-06
-5.9169e-07
-2.93011e-06
-5.47475e-07
-2.42352e-06
-5.06585e-07
-1.95315e-06
-4.70376e-07
-1.51398e-06
-4.39163e-07
-1.10154e-06
-4.12443e-07
-7.12152e-07
-3.89389e-07
-3.42794e-07
-3.69359e-07
6.82127e-09
-3.49615e-07
3.36963e-07
-3.30142e-07
6.44211e-07
-3.07248e-07
9.24831e-07
-2.8062e-07
1.1743e-06
-2.49464e-07
1.38805e-06
-2.13755e-07
1.56266e-06
-1.74613e-07
1.69694e-06
-1.34278e-07
1.79298e-06
-9.60425e-08
1.85601e-06
-6.30255e-08
1.89259e-06
-3.6581e-08
1.91044e-06
-1.7851e-08
1.9204e-06
-9.96236e-09
1.93492e-06
-1.45154e-08
1.95792e-06
-2.29996e-08
1.97737e-06
-1.94492e-08
1.98323e-06
-5.85759e-09
1.99117e-06
-7.94551e-09
2.01789e-06
-2.67188e-08
2.03942e-06
-2.1533e-08
2.02469e-06
1.47311e-08
1.97179e-06
5.29048e-08
1.89609e-06
7.56972e-08
1.83341e-06
6.26823e-08
1.84259e-06
-9.17947e-09
1.93036e-06
-8.77713e-08
2.00672e-06
-7.63617e-08
1.97156e-06
3.51624e-08
1.85066e-06
1.20899e-07
1.77019e-06
8.04739e-08
1.83617e-06
-6.59837e-08
2.04138e-06
-2.05214e-07
2.33626e-06
-2.94876e-07
2.57154e-06
-2.35283e-07
2.19383e-06
3.77716e-07
7.37366e-07
1.45646e-06
-1.33228e-06
2.06964e-06
-3.20311e-06
1.87083e-06
-4.57838e-06
1.37528e-06
-5.5157e-06
9.37319e-07
2.39651e-07
-5.75536e-06
-3.53495e-07
1.16228e-06
-6.85007e-07
1.04618e-06
-8.86746e-07
7.29655e-07
-9.18943e-07
3.53965e-07
-8.3316e-07
1.58706e-08
-6.57194e-07
-2.49526e-07
-3.97319e-07
-4.81822e-07
-6.04821e-08
-6.90952e-07
3.39328e-07
-8.61278e-07
7.77637e-07
-9.72306e-07
1.22146e-06
-1.01006e-06
1.63769e-06
-9.72432e-07
1.9968e-06
-8.67685e-07
2.27337e-06
-7.10822e-07
2.46064e-06
-5.20374e-07
2.55902e-06
-3.15606e-07
2.57656e-06
-1.17149e-07
2.52642e-06
6.90546e-08
2.42226e-06
2.29186e-07
2.28771e-06
3.81317e-07
2.12922e-06
4.98478e-07
1.99762e-06
6.19704e-07
1.82614e-06
6.82933e-07
1.38822e-06
6.41936e-07
9.00522e-07
4.9809e-07
6.12407e-07
3.66358e-08
5.7194e-07
-4.24928e-07
5.41343e-07
-4.14637e-07
3.72489e-07
-1.35956e-07
8.18993e-08
1.78789e-07
-3.12388e-07
4.6166e-07
-8.13555e-07
6.90764e-07
-1.38213e-06
8.59817e-07
-1.91481e-06
9.89176e-07
-2.38836e-06
1.06325e-06
-2.86257e-06
1.0733e-06
-3.33104e-06
1.06068e-06
-3.7952e-06
1.03388e-06
-4.25379e-06
1.00916e-06
-4.70567e-06
9.89878e-07
-5.15406e-06
9.77786e-07
-5.60176e-06
9.73157e-07
-6.0518e-06
9.75325e-07
-6.50425e-06
9.81643e-07
-6.9586e-06
9.89091e-07
-7.41397e-06
9.96007e-07
-7.86827e-06
9.99991e-07
-8.31826e-06
9.97844e-07
-8.75987e-06
9.8622e-07
-9.18796e-06
9.61872e-07
-9.5957e-06
9.20901e-07
-9.97475e-06
8.59728e-07
-1.03157e-05
7.75791e-07
-1.06081e-05
6.67575e-07
-1.08414e-05
5.35001e-07
-1.10053e-05
3.80013e-07
-1.10916e-05
2.06985e-07
-1.10944e-05
2.2872e-08
-1.10014e-05
-1.73551e-07
-1.08114e-05
-3.67751e-07
-1.05279e-05
-5.53108e-07
-1.01579e-05
-7.23392e-07
-9.71184e-06
-8.74208e-07
-9.20067e-06
-1.00374e-06
-8.63535e-06
-1.11206e-06
-8.02566e-06
-1.20082e-06
-7.37998e-06
-1.2725e-06
-6.70503e-06
-1.32999e-06
-6.0061e-06
-1.37602e-06
-5.28738e-06
-1.41269e-06
-4.55255e-06
-1.44117e-06
-3.80529e-06
-1.46219e-06
-3.04912e-06
-1.47698e-06
-2.28694e-06
-1.48787e-06
-1.52025e-06
-1.49866e-06
-7.46967e-07
-1.51614e-06
4.15287e-08
-1.55363e-06
8.67118e-07
-1.62603e-06
1.75159e-06
-1.74265e-06
2.70844e-06
-1.88313e-06
3.72913e-06
-2.00664e-06
4.79084e-06
-2.07134e-06
5.83564e-06
-2.04511e-06
6.79775e-06
-1.93231e-06
7.69953e-06
-1.71981e-06
8.46985e-06
-1.34329e-06
8.94749e-06
-8.61142e-07
9.1584e-06
-2.42085e-07
9.07482e-06
5.35867e-07
8.6541e-06
1.32604e-06
8.14082e-06
2.18895e-06
7.22971e-06
2.85439e-06
5.47454e-06
3.09966e-06
3.4932e-06
2.61616e-06
2.19602e-06
1.61106e-06
1.74902e-06
7.61709e-07
1.84573e-06
-1.2613e-07
2.41427e-06
-1.25008e-06
3.14666e-06
-1.83361e-06
3.5663e-06
-1.3267e-06
3.41363e-06
-2.18301e-07
2.53439e-06
9.96211e-07
9.18155e-07
2.1296e-06
-1.03684e-06
3.01838e-06
-2.80173e-06
3.34561e-06
-4.30365e-06
3.23725e-06
-5.58562e-06
2.956e-06
-6.68655e-06
2.634e-06
-7.64355e-06
2.33252e-06
-8.48695e-06
2.06745e-06
-9.23674e-06
1.8327e-06
-9.90076e-06
1.61252e-06
-1.04787e-05
1.39344e-06
-1.09632e-05
1.16338e-06
-1.13432e-05
9.13903e-07
-1.16078e-05
6.42922e-07
-1.17475e-05
3.54212e-07
-1.17571e-05
5.72999e-08
-1.16202e-05
-2.44365e-07
-1.13372e-05
-5.38834e-07
-1.09198e-05
-8.10496e-07
-1.03827e-05
-1.0497e-06
-9.74786e-06
-1.24701e-06
-9.03883e-06
-1.39639e-06
-8.28178e-06
-1.49475e-06
-7.50217e-06
-1.54294e-06
-6.72287e-06
-1.54584e-06
-5.96252e-06
-1.51146e-06
-5.2348e-06
-1.4491e-06
-4.54858e-06
-1.36819e-06
-3.90809e-06
-1.27788e-06
-3.3133e-06
-1.18648e-06
-2.76165e-06
-1.09913e-06
-2.24876e-06
-1.01948e-06
-1.76901e-06
-9.50119e-07
-1.3167e-06
-8.91474e-07
-8.86355e-07
-8.42792e-07
-4.73264e-07
-8.0248e-07
-7.36463e-08
-7.68976e-07
3.15572e-07
-7.38833e-07
6.92726e-07
-7.07295e-07
1.05716e-06
-6.71685e-07
1.40598e-06
-6.2944e-07
1.73506e-06
-5.78543e-07
2.0396e-06
-5.18295e-07
2.31461e-06
-4.49622e-07
2.55551e-06
-3.75179e-07
2.75862e-06
-2.99149e-07
2.92106e-06
-2.25468e-07
3.04179e-06
-1.5731e-07
3.12503e-06
-1.01093e-07
3.17834e-06
-6.32657e-08
3.20201e-06
-3.81943e-08
3.18028e-06
-1.2618e-09
3.09652e-06
6.43035e-08
2.94755e-06
1.4312e-07
2.76734e-06
1.72266e-07
2.61898e-06
1.2164e-07
2.53382e-06
6.36247e-08
2.50051e-06
4.80406e-08
2.49752e-06
5.58946e-08
2.50503e-06
6.81829e-08
2.53912e-06
2.8594e-08
2.63891e-06
-1.08971e-07
2.79624e-06
-2.45102e-07
2.9543e-06
-2.34418e-07
3.04142e-06
-5.19595e-08
3.00281e-06
1.59511e-07
2.87907e-06
2.04213e-07
2.8082e-06
4.88623e-09
2.91864e-06
-3.15651e-07
3.08651e-06
-4.62749e-07
2.86869e-06
-1.74635e-08
1.63842e-06
1.60799e-06
-5.36485e-07
3.63137e-06
-2.59349e-06
4.12665e-06
-4.06281e-06
3.34015e-06
-5.15412e-06
2.46659e-06
-5.8584e-06
1.6416e-06
5.63984e-07
-6.18273e-06
3.44504e-07
8.17777e-07
5.4121e-07
8.49472e-07
7.52378e-07
5.18486e-07
9.94379e-07
1.11964e-07
1.28836e-06
-2.78116e-07
1.63464e-06
-5.95798e-07
2.01162e-06
-8.58802e-07
2.39708e-06
-1.07641e-06
2.76399e-06
-1.22818e-06
3.08713e-06
-1.29545e-06
3.34799e-06
-1.27092e-06
3.53329e-06
-1.15773e-06
3.63627e-06
-9.70659e-07
3.65782e-06
-7.32376e-07
3.60346e-06
-4.66012e-07
3.4799e-06
-1.92044e-07
3.29429e-06
6.84568e-08
3.06649e-06
2.96853e-07
2.81577e-06
4.7991e-07
2.57038e-06
6.2671e-07
2.3308e-06
7.38054e-07
2.10116e-06
8.49346e-07
1.84776e-06
9.36332e-07
1.53297e-06
9.56731e-07
1.16735e-06
8.63711e-07
7.59106e-07
4.44875e-07
2.75089e-07
5.90898e-08
-2.73014e-07
1.33466e-07
-8.49511e-07
4.40541e-07
-1.40785e-06
7.37133e-07
-1.90511e-06
9.58918e-07
-2.33727e-06
1.12292e-06
-2.72743e-06
1.24998e-06
-3.07259e-06
1.33433e-06
-3.37996e-06
1.37063e-06
-3.68147e-06
1.37481e-06
-3.9874e-06
1.36662e-06
-4.3078e-06
1.35427e-06
-4.64274e-06
1.34411e-06
-4.99042e-06
1.33755e-06
-5.35052e-06
1.33789e-06
-5.72435e-06
1.34698e-06
-6.11143e-06
1.36241e-06
-6.51036e-06
1.38057e-06
-6.92153e-06
1.40027e-06
-7.34528e-06
1.41976e-06
-7.78062e-06
1.43532e-06
-8.22603e-06
1.44326e-06
-8.67904e-06
1.43923e-06
-9.13463e-06
1.41746e-06
-9.58541e-06
1.37169e-06
-1.00214e-05
1.29572e-06
-1.04291e-05
1.18352e-06
-1.07916e-05
1.03007e-06
-1.10899e-05
8.33243e-07
-1.13053e-05
5.95405e-07
-1.14225e-05
3.24221e-07
-1.14338e-05
3.41459e-08
-1.13317e-05
-2.75582e-07
-1.11198e-05
-5.79723e-07
-1.08076e-05
-8.65277e-07
-1.04071e-05
-1.1239e-06
-9.93185e-06
-1.34946e-06
-9.39549e-06
-1.54009e-06
-8.81042e-06
-1.69713e-06
-8.18675e-06
-1.82448e-06
-7.53206e-06
-1.92719e-06
-6.85143e-06
-2.01061e-06
-6.14787e-06
-2.07958e-06
-5.42279e-06
-2.13778e-06
-4.67706e-06
-2.1869e-06
-3.91212e-06
-2.22713e-06
-3.13044e-06
-2.25866e-06
-2.33593e-06
-2.28238e-06
-1.53407e-06
-2.30052e-06
-7.28972e-07
-2.32124e-06
7.9369e-08
-2.36197e-06
9.09494e-07
-2.45616e-06
1.78835e-06
-2.62151e-06
2.73762e-06
-2.83239e-06
3.74614e-06
-3.01517e-06
4.78071e-06
-3.10591e-06
5.81751e-06
-3.08192e-06
6.81489e-06
-2.92969e-06
7.73376e-06
-2.63868e-06
8.5558e-06
-2.16533e-06
9.18431e-06
-1.48965e-06
9.57274e-06
-6.30518e-07
9.6733e-06
4.3531e-07
9.42702e-06
1.57232e-06
9.01416e-06
2.60182e-06
8.45347e-06
3.41508e-06
7.62311e-06
3.93001e-06
6.35896e-06
3.88031e-06
4.82912e-06
3.1409e-06
3.66034e-06
1.9305e-06
3.07227e-06
4.61938e-07
2.98302e-06
-1.16083e-06
2.89543e-06
-1.74603e-06
2.36362e-06
-7.94895e-07
1.26879e-06
8.76534e-07
-2.26252e-07
2.49125e-06
-1.86788e-06
3.77123e-06
-3.24219e-06
4.39269e-06
-4.30316e-06
4.40658e-06
-5.17901e-06
4.1131e-06
-5.95432e-06
3.73132e-06
-6.68065e-06
3.36032e-06
-7.38932e-06
3.04119e-06
-8.09361e-06
2.77174e-06
-8.79095e-06
2.53004e-06
-9.46649e-06
2.28806e-06
-1.00937e-05
2.02066e-06
-1.0643e-05
1.71269e-06
-1.10878e-05
1.35874e-06
-1.14061e-05
9.61166e-07
-1.1579e-05
5.27096e-07
-1.15988e-05
7.70937e-08
-1.14554e-05
-3.87716e-07
-1.11613e-05
-8.32971e-07
-1.07275e-05
-1.24429e-06
-1.01702e-05
-1.60698e-06
-9.51145e-06
-1.90578e-06
-8.77675e-06
-2.13108e-06
-7.9936e-06
-2.2779e-06
-7.18943e-06
-2.34711e-06
-6.38935e-06
-2.34593e-06
-5.61405e-06
-2.28676e-06
-4.87888e-06
-2.18427e-06
-4.19363e-06
-2.05344e-06
-3.56262e-06
-1.9089e-06
-2.98487e-06
-1.76423e-06
-2.45644e-06
-1.62756e-06
-1.97129e-06
-1.50462e-06
-1.52232e-06
-1.39909e-06
-1.10259e-06
-1.3112e-06
-7.05237e-07
-1.24015e-06
-3.24373e-07
-1.18334e-06
4.51478e-08
-1.1385e-06
4.06349e-07
-1.10003e-06
7.61062e-07
-1.06201e-06
1.11019e-06
-1.02081e-06
1.45335e-06
-9.72601e-07
1.78881e-06
-9.14002e-07
2.11325e-06
-8.42732e-07
2.42173e-06
-7.58106e-07
2.70813e-06
-6.61581e-07
2.96615e-06
-5.57169e-07
3.19016e-06
-4.4948e-07
3.37501e-06
-3.42157e-07
3.51175e-06
-2.37829e-07
3.59046e-06
-1.41981e-07
3.6175e-06
-6.52371e-08
3.61764e-06
-1.39456e-09
3.5916e-06
9.03358e-08
3.54642e-06
1.88305e-07
3.51354e-06
2.0514e-07
3.49724e-06
1.3794e-07
3.46571e-06
9.516e-08
3.37626e-06
1.37493e-07
3.20066e-06
2.31489e-07
2.98536e-06
2.83487e-07
2.81696e-06
1.96987e-07
2.74836e-06
-4.03668e-08
2.77637e-06
-2.73107e-07
2.88337e-06
-3.41421e-07
3.02446e-06
-1.93047e-07
3.1214e-06
6.25698e-08
3.12299e-06
2.02624e-07
3.13965e-06
-1.17799e-08
3.2761e-06
-4.52104e-07
3.27456e-06
-4.61205e-07
2.55457e-06
7.02529e-07
8.09591e-07
3.35296e-06
-1.2554e-06
5.69636e-06
-2.78972e-06
5.66097e-06
-4.01764e-06
4.56807e-06
-5.11463e-06
3.56358e-06
-5.88552e-06
2.41249e-06
9.64894e-07
-6.28643e-06
5.03058e-07
3.14719e-07
9.4186e-07
4.10671e-07
1.39074e-06
6.96068e-08
1.89696e-06
-3.9426e-07
2.4389e-06
-8.20054e-07
2.99603e-06
-1.15292e-06
3.52331e-06
-1.38609e-06
3.9705e-06
-1.5236e-06
4.30691e-06
-1.56459e-06
4.52123e-06
-1.50977e-06
4.61822e-06
-1.36792e-06
4.61434e-06
-1.15385e-06
4.5276e-06
-8.83916e-07
4.37105e-06
-5.75824e-07
4.15169e-06
-2.46658e-07
3.87355e-06
8.60974e-08
3.53803e-06
4.03979e-07
3.16496e-06
6.69924e-07
2.77598e-06
8.68891e-07
2.39992e-06
1.00277e-06
2.0531e-06
1.08487e-06
1.74029e-06
1.16216e-06
1.43664e-06
1.23998e-06
1.08777e-06
1.3056e-06
6.9381e-07
1.25767e-06
2.41275e-07
8.9741e-07
-3.74802e-07
6.75167e-07
-1.05625e-06
8.1491e-07
-1.65598e-06
1.04027e-06
-2.14079e-06
1.22194e-06
-2.53382e-06
1.35195e-06
-2.86169e-06
1.45079e-06
-3.13827e-06
1.52656e-06
-3.37699e-06
1.57305e-06
-3.60332e-06
1.59696e-06
-3.83795e-06
1.60944e-06
-4.08648e-06
1.61514e-06
-4.35177e-06
1.61956e-06
-4.63599e-06
1.62833e-06
-4.94162e-06
1.64318e-06
-5.26928e-06
1.66555e-06
-5.6172e-06
1.6949e-06
-5.98391e-06
1.72912e-06
-6.37079e-06
1.76745e-06
-6.77987e-06
1.80935e-06
-7.21203e-06
1.85191e-06
-7.66785e-06
1.89115e-06
-8.14744e-06
1.92284e-06
-8.64886e-06
1.94065e-06
-9.1668e-06
1.93541e-06
-9.69127e-06
1.89615e-06
-1.02061e-05
1.81055e-06
-1.06887e-05
1.66612e-06
-1.11123e-05
1.45368e-06
-1.14502e-05
1.17114e-06
-1.16798e-05
8.25031e-07
-1.17849e-05
4.29326e-07
-1.17537e-05
2.90871e-09
-1.15982e-05
-4.31128e-07
-1.13259e-05
-8.51957e-07
-1.09503e-05
-1.24091e-06
-1.04893e-05
-1.58485e-06
-9.96216e-06
-1.87663e-06
-9.38642e-06
-2.11583e-06
-8.77648e-06
-2.30707e-06
-8.14253e-06
-2.45844e-06
-7.49056e-06
-2.57915e-06
-6.82305e-06
-2.67813e-06
-6.1396e-06
-2.76303e-06
-5.43781e-06
-2.83957e-06
-4.71448e-06
-2.91023e-06
-3.96705e-06
-2.97456e-06
-3.19419e-06
-3.03152e-06
-2.39757e-06
-3.079e-06
-1.5831e-06
-3.11499e-06
-7.61421e-07
-3.14292e-06
5.57382e-08
-3.17913e-06
8.68054e-07
-3.26848e-06
1.69725e-06
-3.4507e-06
2.57506e-06
-3.7102e-06
3.5046e-06
-3.9447e-06
4.45236e-06
-4.05367e-06
5.38907e-06
-4.01863e-06
6.3126e-06
-3.85322e-06
7.21772e-06
-3.5438e-06
8.08802e-06
-3.03563e-06
8.86088e-06
-2.26252e-06
9.44586e-06
-1.2155e-06
9.81408e-06
6.70915e-08
9.85253e-06
1.53388e-06
9.52288e-06
2.93147e-06
8.97656e-06
3.96139e-06
8.36471e-06
4.54187e-06
7.51756e-06
4.72745e-06
6.41215e-06
4.24632e-06
5.23941e-06
3.10323e-06
4.19966e-06
1.50169e-06
3.25958e-06
-2.20753e-07
2.22431e-06
-7.10752e-07
9.37501e-07
4.91913e-07
-5.32958e-07
2.34699e-06
-1.99349e-06
3.95179e-06
-3.1411e-06
4.91884e-06
-3.93525e-06
5.18684e-06
-4.53818e-06
5.0095e-06
-5.08982e-06
4.66474e-06
-5.6566e-06
4.2981e-06
-6.2757e-06
3.97942e-06
-6.96308e-06
3.72858e-06
-7.7154e-06
3.52405e-06
-8.50553e-06
3.32017e-06
-9.28595e-06
3.06848e-06
-1.00031e-05
2.73779e-06
-1.06131e-05
2.32268e-06
-1.10863e-05
1.83196e-06
-1.14059e-05
1.28082e-06
-1.15671e-05
6.88233e-07
-1.15484e-05
5.83766e-08