/*--------------------------------*- C++ -*----------------------------------*\
| =========                 |                                                 |
| \\      /  F ield         | OpenFOAM: The Open Source CFD Toolbox           |
|  \\    /   O peration     | Version:  2112                                  |
|   \\  /    A nd           | Website:  www.openfoam.com                      |
|    \\/     M anipulation  |                                                 |
\*---------------------------------------------------------------------------*/
FoamFile
{
    version     2.0;
    format      ascii;
    arch        "LSB;label=32;scalar=64";
    class       volScalarField;
    location    "0.56";
    object      nut;
}
// * * * * * * * * * * * * * * * * * * * * * * * * * * * * * * * * * * * * * //

dimensions      [0 2 -1 0 0 0 0];

internalField   nonuniform List<scalar> 
12225
(
4.71028e-07
5.01834e-07
4.90598e-07
4.71309e-07
4.57145e-07
4.44433e-07
4.32679e-07
4.21889e-07
4.12174e-07
4.03646e-07
3.96386e-07
3.90434e-07
3.85779e-07
3.82349e-07
3.79981e-07
3.78535e-07
3.77162e-07
3.74947e-07
3.19231e-07
1.07332e-07
5.5243e-08
3.73e-08
2.98083e-08
2.60995e-08
2.38641e-08
2.22406e-08
2.08821e-08
1.96404e-08
1.84521e-08
1.72927e-08
1.61575e-08
1.50519e-08
1.40237e-08
1.33643e-08
1.29705e-08
1.31586e-08
3.07609e-06
1.80464e-06
1.29419e-06
1.00858e-06
8.17728e-07
6.80535e-07
5.78901e-07
5.02896e-07
4.46378e-07
4.05222e-07
3.76519e-07
3.5818e-07
3.48705e-07
3.47009e-07
3.52166e-07
3.62309e-07
3.71578e-07
3.66103e-07
6.28932e-06
4.7914e-06
3.90981e-06
3.33927e-06
2.93767e-06
2.6398e-06
2.4117e-06
2.23377e-06
2.09396e-06
1.9843e-06
1.89916e-06
1.83428e-06
1.78639e-06
1.75335e-06
1.73325e-06
1.71927e-06
1.70996e-06
1.704e-06
7.66635e-06
6.7156e-06
5.93641e-06
5.32649e-06
4.84655e-06
4.46379e-06
4.15443e-06
3.90157e-06
3.69328e-06
3.52092e-06
3.37811e-06
3.25998e-06
3.16316e-06
3.08539e-06
3.02063e-06
2.96705e-06
2.92348e-06
2.89032e-06
8.10637e-06
7.5729e-06
7.0422e-06
6.55857e-06
6.13357e-06
5.76587e-06
5.44957e-06
5.17781e-06
4.94417e-06
4.74315e-06
4.57019e-06
4.42174e-06
4.29545e-06
4.18598e-06
4.09121e-06
4.00953e-06
3.93992e-06
3.88296e-06
8.23259e-06
7.8914e-06
7.53713e-06
7.18921e-06
6.86024e-06
6.55674e-06
6.28106e-06
6.03303e-06
5.81118e-06
5.61353e-06
5.43811e-06
5.28344e-06
5.14586e-06
5.0235e-06
4.91488e-06
4.81884e-06
4.7346e-06
4.66276e-06
8.26639e-06
7.99612e-06
7.72845e-06
7.46603e-06
7.21277e-06
6.97209e-06
6.74632e-06
6.53667e-06
6.3435e-06
6.16662e-06
6.00578e-06
5.85923e-06
5.72585e-06
5.60473e-06
5.49501e-06
5.39596e-06
5.30708e-06
5.22901e-06
8.27491e-06
8.02729e-06
7.79384e-06
7.57221e-06
7.36156e-06
7.16187e-06
6.97342e-06
6.79646e-06
6.63112e-06
6.47744e-06
6.33478e-06
6.20258e-06
6.08038e-06
5.96765e-06
5.86391e-06
5.76871e-06
5.68172e-06
5.60364e-06
8.27694e-06
8.03575e-06
7.81382e-06
7.60817e-06
7.4166e-06
7.2376e-06
7.07013e-06
6.91345e-06
6.76703e-06
6.6302e-06
6.50242e-06
6.38322e-06
6.27215e-06
6.16878e-06
6.07272e-06
5.98358e-06
5.90112e-06
5.826e-06
8.27738e-06
8.03784e-06
7.81929e-06
7.61894e-06
7.43448e-06
7.26402e-06
7.10603e-06
6.95931e-06
6.82278e-06
6.69558e-06
6.57695e-06
6.46626e-06
6.36295e-06
6.26653e-06
6.17654e-06
6.09259e-06
6.01439e-06
5.94255e-06
8.27747e-06
8.03827e-06
7.82052e-06
7.62158e-06
7.4392e-06
7.27146e-06
7.11675e-06
6.97369e-06
6.84109e-06
6.71797e-06
6.60345e-06
6.49679e-06
6.39735e-06
6.30456e-06
6.21792e-06
6.13697e-06
6.0614e-06
5.99177e-06
8.27749e-06
8.03837e-06
7.8208e-06
7.62225e-06
7.44049e-06
7.27364e-06
7.12007e-06
6.97839e-06
6.84736e-06
6.72595e-06
6.61324e-06
6.50843e-06
6.41083e-06
6.31982e-06
6.23487e-06
6.15547e-06
6.08129e-06
6.01287e-06
8.27749e-06
8.03837e-06
7.82082e-06
7.62231e-06
7.44067e-06
7.27402e-06
7.12074e-06
6.97943e-06
6.84888e-06
6.72803e-06
6.61593e-06
6.51178e-06
6.41486e-06
6.32453e-06
6.24023e-06
6.16146e-06
6.08783e-06
6.0199e-06
8.27749e-06
8.03836e-06
7.82077e-06
7.62222e-06
7.44053e-06
7.27383e-06
7.12052e-06
6.9792e-06
6.84865e-06
6.72781e-06
6.61575e-06
6.51165e-06
6.41478e-06
6.3245e-06
6.24024e-06
6.1615e-06
6.08789e-06
6.01995e-06
8.27749e-06
8.03834e-06
7.82072e-06
7.62211e-06
7.44033e-06
7.27352e-06
7.12009e-06
6.97864e-06
6.84794e-06
6.72694e-06
6.61471e-06
6.51044e-06
6.41338e-06
6.32291e-06
6.23844e-06
6.15947e-06
6.08564e-06
6.01748e-06
8.27749e-06
8.03833e-06
7.82068e-06
7.622e-06
7.44013e-06
7.27322e-06
7.11964e-06
6.97802e-06
6.84714e-06
6.72594e-06
6.6135e-06
6.50898e-06
6.41167e-06
6.32093e-06
6.23618e-06
6.15692e-06
6.08279e-06
6.01435e-06
8.27749e-06
8.03833e-06
7.82065e-06
7.62191e-06
7.43996e-06
7.27293e-06
7.11922e-06
6.97743e-06
6.84636e-06
6.72495e-06
6.61227e-06
6.5075e-06
6.40993e-06
6.3189e-06
6.23386e-06
6.15431e-06
6.07987e-06
6.01112e-06
8.27749e-06
8.03833e-06
7.82062e-06
7.62184e-06
7.43981e-06
7.27268e-06
7.11884e-06
6.97689e-06
6.84564e-06
6.72402e-06
6.61112e-06
6.5061e-06
6.40827e-06
6.31697e-06
6.23165e-06
6.15179e-06
6.07705e-06
6.00801e-06
8.2775e-06
8.03833e-06
7.82061e-06
7.62181e-06
7.43974e-06
7.27255e-06
7.11862e-06
6.97656e-06
6.84517e-06
6.72338e-06
6.61028e-06
6.50505e-06
6.40698e-06
6.31541e-06
6.2298e-06
6.14964e-06
6.07457e-06
6.00517e-06
8.2775e-06
8.03833e-06
7.82062e-06
7.6218e-06
7.43969e-06
7.27241e-06
7.11836e-06
6.97612e-06
6.84448e-06
6.72239e-06
6.60891e-06
6.50323e-06
6.40461e-06
6.31244e-06
6.22612e-06
6.14518e-06
6.06924e-06
5.99889e-06
8.27749e-06
8.0383e-06
7.82049e-06
7.62147e-06
7.439e-06
7.27117e-06
7.11633e-06
6.97305e-06
6.8401e-06
6.71642e-06
6.60107e-06
6.49323e-06
6.3922e-06
6.29733e-06
6.20808e-06
6.12395e-06
6.0446e-06
5.97065e-06
8.27738e-06
8.0377e-06
7.81882e-06
7.6179e-06
7.43259e-06
7.26091e-06
7.10122e-06
6.95217e-06
6.8126e-06
6.68155e-06
6.55819e-06
6.44177e-06
6.33168e-06
6.22736e-06
6.12831e-06
6.03412e-06
5.9445e-06
5.86019e-06
8.27603e-06
8.03192e-06
7.80466e-06
7.59133e-06
7.39e-06
7.19943e-06
7.01877e-06
6.84741e-06
6.68478e-06
6.53038e-06
6.38369e-06
6.24422e-06
6.11149e-06
5.98502e-06
5.86439e-06
5.7492e-06
5.63919e-06
5.53516e-06
8.26373e-06
7.98808e-06
7.71355e-06
7.44324e-06
7.18077e-06
6.92907e-06
6.68995e-06
6.4642e-06
6.25182e-06
6.05232e-06
5.86489e-06
5.68862e-06
5.52251e-06
5.36563e-06
5.2171e-06
5.07617e-06
4.94223e-06
4.81584e-06
8.1697e-06
7.72546e-06
7.26791e-06
6.83121e-06
6.42948e-06
6.06635e-06
5.74033e-06
5.44768e-06
5.18405e-06
4.94528e-06
4.72757e-06
4.52761e-06
4.34255e-06
4.17002e-06
4.0081e-06
3.85527e-06
3.71043e-06
3.57362e-06
7.57585e-06
6.53357e-06
5.69419e-06
5.04418e-06
4.53357e-06
4.12321e-06
3.78544e-06
3.50094e-06
3.2562e-06
3.04163e-06
2.85018e-06
2.67637e-06
2.51595e-06
2.36584e-06
2.22396e-06
2.08899e-06
1.9603e-06
1.83813e-06
4.85714e-06
3.15496e-06
2.34597e-06
1.87196e-06
1.55229e-06
1.31723e-06
1.13401e-06
9.85187e-07
8.60672e-07
7.54207e-07
6.61583e-07
5.79286e-07
5.04947e-07
4.37677e-07
3.77279e-07
3.23742e-07
2.77011e-07
2.36821e-07
7.01246e-07
2.48772e-07
1.20986e-07
7.19842e-08
5.08063e-08
4.07733e-08
3.55728e-08
3.26399e-08
3.08669e-08
2.97489e-08
2.90532e-08
2.86628e-08
2.85317e-08
2.86052e-08
2.88269e-08
2.91462e-08
2.95154e-08
2.98997e-08
5.70847e-07
6.32807e-07
6.35147e-07
6.20413e-07
6.00995e-07
5.80682e-07
5.60543e-07
5.40818e-07
5.21508e-07
5.02528e-07
4.8376e-07
4.67412e-07
4.5438e-07
4.4179e-07
4.28878e-07
4.15412e-07
4.01305e-07
3.86582e-07
1.41219e-07
2.42752e-07
2.45562e-07
2.67381e-07
2.93225e-07
3.17286e-07
3.34781e-07
3.38608e-07
3.26054e-07
2.89369e-07
2.36092e-07
2.64489e-07
3.86681e-07
5.13037e-07
6.35557e-07
7.50908e-07
8.57004e-07
9.52392e-07
1.03607e-06
1.10739e-06
1.16601e-06
1.21177e-06
1.24476e-06
1.26519e-06
1.27349e-06
1.27023e-06
1.25619e-06
1.23249e-06
1.19686e-06
1.15665e-06
1.11251e-06
1.06518e-06
1.0154e-06
9.63888e-07
9.11324e-07
8.58344e-07
8.05528e-07
7.53406e-07
7.0245e-07
6.53086e-07
6.05707e-07
5.60853e-07
5.21524e-07
4.88161e-07
4.53281e-07
4.1632e-07
3.76246e-07
3.31115e-07
2.84293e-07
2.83809e-07
3.10993e-07
3.41982e-07
3.76924e-07
4.21519e-07
4.70913e-07
5.241e-07
5.81227e-07
6.44176e-07
7.1547e-07
7.91534e-07
8.36107e-07
8.45991e-07
8.19683e-07
7.61236e-07
6.82525e-07
6.01152e-07
5.37043e-07
4.98683e-07
4.7223e-07
4.49297e-07
4.27442e-07
4.10527e-07
3.98831e-07
3.95645e-07
4.06048e-07
4.35834e-07
4.7682e-07
5.16656e-07
5.49959e-07
5.80537e-07
5.97773e-07
5.75959e-07
4.67329e-07
3.42636e-07
4.97936e-07
7.15933e-07
9.13869e-07
1.0809e-06
1.21613e-06
1.32129e-06
1.39897e-06
1.45182e-06
1.48218e-06
1.49197e-06
1.48273e-06
1.45399e-06
1.41011e-06
1.35544e-06
1.2907e-06
1.21676e-06
1.13477e-06
1.04623e-06
9.53048e-07
8.57523e-07
7.62287e-07
6.7015e-07
5.84348e-07
5.12968e-07
4.538e-07
3.89785e-07
3.13104e-07
2.50473e-07
3.0502e-07
3.65697e-07
4.26451e-07
5.03639e-07
5.8551e-07
6.67738e-07
7.47746e-07
8.23679e-07
8.94114e-07
9.57949e-07
1.01445e-06
1.06278e-06
1.10247e-06
1.13635e-06
1.15771e-06
1.16006e-06
1.14434e-06
1.11094e-06
1.06051e-06
9.94498e-07
9.15453e-07
8.27204e-07
7.34795e-07
6.43979e-07
5.60339e-07
4.88359e-07
4.42668e-07
4.11777e-07
3.91093e-07
3.78147e-07
3.70849e-07
3.6715e-07
3.65223e-07
3.63713e-07
3.61873e-07
3.59541e-07
3.57e-07
3.54814e-07
3.53674e-07
3.5369e-07
3.55211e-07
3.58214e-07
3.62373e-07
3.67266e-07
3.72495e-07
3.77729e-07
3.82722e-07
3.87324e-07
3.9145e-07
3.95018e-07
3.97797e-07
3.98954e-07
3.98102e-07
3.96289e-07
3.94451e-07
3.96226e-07
4.10869e-07
4.44779e-07
4.69279e-07
3.80783e-07
3.2617e-07
5.46867e-07
6.92811e-07
7.66519e-07
7.77379e-07
7.26868e-07
6.42625e-07
5.45065e-07
2.30638e-07
3.37984e-08
5.21737e-08
8.49581e-08
1.08825e-07
1.30258e-07
1.53241e-07
1.7328e-07
1.88229e-07
2.02736e-07
2.21873e-07
2.47341e-07
2.73355e-07
2.94286e-07
3.09672e-07
3.20129e-07
3.26768e-07
3.31095e-07
3.35024e-07
3.40986e-07
3.52165e-07
3.72978e-07
4.1e-07
4.73667e-07
5.8087e-07
7.56049e-07
1.0169e-06
1.31469e-06
1.47839e-06
1.64768e-06
1.82498e-06
2.00831e-06
2.19484e-06
2.38108e-06
2.56294e-06
2.73596e-06
2.89549e-06
3.03706e-06
3.15661e-06
3.25083e-06
3.31743e-06
3.35553e-06
3.36593e-06
3.34971e-06
3.30218e-06
3.21844e-06
3.0937e-06
2.92332e-06
2.70536e-06
2.47054e-06
2.24303e-06
2.01292e-06
1.7829e-06
1.55888e-06
1.3446e-06
1.14293e-06
9.56351e-07
7.84487e-07
6.21784e-07
4.59938e-07
3.24818e-07
2.7365e-07
2.4803e-07
2.23286e-07
1.931e-07
1.58883e-07
1.25118e-07
9.56784e-08
7.13803e-08
5.0886e-08
3.36555e-08
2.22228e-08
1.98348e-08
2.285e-08
2.8447e-08
3.67094e-08
4.98616e-08
7.28234e-08
1.13549e-07
1.74842e-07
2.41278e-07
2.71745e-07
2.52996e-07
2.41773e-07
2.49904e-07
2.49084e-07
2.35025e-07
2.12551e-07
1.86607e-07
1.61227e-07
1.39735e-07
1.25462e-07
1.23121e-07
1.41687e-07
1.94822e-07
2.57127e-07
3.14499e-07
3.86422e-07
4.76591e-07
5.88865e-07
7.26676e-07
8.91906e-07
1.08323e-06
1.29429e-06
1.51272e-06
1.72172e-06
1.90499e-06
2.05332e-06
2.1646e-06
2.20914e-06
2.14045e-06
1.95822e-06
1.75473e-06
1.53295e-06
1.29378e-06
1.05805e-06
8.4353e-07
6.59056e-07
5.06769e-07
3.84904e-07
2.89798e-07
2.17125e-07
1.62613e-07
1.22425e-07
9.3626e-08
7.65973e-08
6.94424e-08
7.64579e-08
8.97002e-08
1.03581e-07
1.1519e-07
1.22899e-07
1.25907e-07
1.24118e-07
1.18069e-07
1.08784e-07
9.7514e-08
8.54198e-08
7.36269e-08
6.24874e-08
5.23614e-08
4.37233e-08
3.69868e-08
3.22507e-08
2.91835e-08
2.72154e-08
2.5792e-08
2.44536e-08
2.28598e-08
2.08458e-08
1.87249e-08
1.70298e-08
1.57474e-08
1.48232e-08
1.41869e-08
1.37695e-08
1.35116e-08
1.33661e-08
1.32977e-08
1.32805e-08
1.32963e-08
1.33329e-08
1.34836e-08
1.41917e-08
1.46662e-08
1.43331e-08
1.48893e-08
1.82075e-08
3.13133e-08
7.11247e-08
1.37039e-07
1.5306e-07
1.31487e-07
1.12063e-07
7.45237e-08
4.08511e-08
2.69687e-08
3.72795e-08
5.16176e-08
7.60654e-08
2.4444e-07
9.3757e-08
1.56624e-07
1.63062e-07
1.66028e-07
1.72991e-07
1.84557e-07
1.97964e-07
2.12507e-07
2.28707e-07
2.47056e-07
2.67606e-07
2.90366e-07
3.16749e-07
3.49951e-07
3.94582e-07
4.56985e-07
5.4589e-07
6.7336e-07
8.55778e-07
1.11402e-06
1.47032e-06
1.93706e-06
2.49341e-06
3.06302e-06
3.53445e-06
3.83701e-06
3.98643e-06
4.08638e-06
4.18304e-06
4.27848e-06
4.37212e-06
4.46275e-06
4.54866e-06
4.62782e-06
4.698e-06
4.75681e-06
4.80192e-06
4.83112e-06
4.84252e-06
4.83464e-06
4.80654e-06
4.75783e-06
4.68858e-06
4.59924e-06
4.4907e-06
4.36418e-06
4.22094e-06
4.06221e-06
3.90617e-06
3.752e-06
3.59612e-06
3.43811e-06
3.27735e-06
3.11233e-06
2.94045e-06
2.75791e-06
2.55856e-06
2.33251e-06
2.06323e-06
1.73604e-06
1.34096e-06
9.02949e-07
5.96755e-07
4.12482e-07
2.9436e-07
2.11466e-07
1.48708e-07
9.97043e-08
6.28209e-08
3.81368e-08
2.51241e-08
2.22503e-08
2.88141e-08
4.13759e-08
5.58336e-08
7.32916e-08
9.92102e-08
1.36622e-07
1.72666e-07
1.84011e-07
1.73376e-07
1.54718e-07
1.38423e-07
1.24706e-07
1.12412e-07
1.06121e-07
1.11562e-07
1.3639e-07
1.94296e-07
3.10609e-07
5.2503e-07
8.68917e-07
1.27725e-06
1.55528e-06
1.63377e-06
1.70582e-06
1.77955e-06
1.8547e-06
1.93077e-06
2.0071e-06
2.0828e-06
2.15672e-06
2.2273e-06
2.29257e-06
2.35032e-06
2.39841e-06
2.43509e-06
2.45869e-06
2.46658e-06
2.45533e-06
2.43226e-06
2.40184e-06
2.36398e-06
2.31854e-06
2.26572e-06
2.20571e-06
2.13867e-06
2.06476e-06
1.98425e-06
1.89762e-06
1.80549e-06
1.70858e-06
1.60749e-06
1.50198e-06
1.38603e-06
1.22145e-06
9.08543e-07
5.60632e-07
3.21231e-07
1.8853e-07
1.19364e-07
8.29928e-08
6.29152e-08
5.08292e-08
4.26249e-08
3.63168e-08
3.09921e-08
2.62897e-08
2.20946e-08
1.84075e-08
1.52666e-08
1.26925e-08
1.06581e-08
9.0874e-09
7.8734e-09
6.90527e-09
6.09178e-09
5.37089e-09
4.7108e-09
4.11085e-09
3.57038e-09
3.09551e-09
2.6915e-09
2.35949e-09
2.09586e-09
1.8919e-09
1.73541e-09
1.61518e-09
1.52485e-09
1.46396e-09
1.43963e-09
1.46988e-09
1.56643e-09
1.81537e-09
2.67932e-09
6.22644e-09
1.50595e-08
3.09699e-08
6.10758e-08
9.46972e-08
8.06932e-08
5.17635e-08
2.85944e-08
1.94255e-08
4.00391e-08
2.03593e-07
2.49433e-07
2.80824e-07
3.11166e-07
1.47132e-07
1.95801e-07
2.55653e-07
2.48225e-07
2.47688e-07
2.56315e-07
2.72414e-07
2.95072e-07
3.24701e-07
3.62716e-07
4.11394e-07
4.74142e-07
5.56029e-07
6.64262e-07
8.08194e-07
9.98789e-07
1.24733e-06
1.56251e-06
1.94504e-06
2.38021e-06
2.83226e-06
3.24907e-06
3.58161e-06
3.80754e-06
3.93823e-06
4.0046e-06
4.03765e-06
4.05773e-06
4.08926e-06
4.13443e-06
4.19259e-06
4.26235e-06
4.34178e-06
4.42848e-06
4.51954e-06
4.61165e-06
4.70109e-06
4.78383e-06
4.85577e-06
4.91293e-06
4.95174e-06
4.96931e-06
4.96362e-06
4.93355e-06
4.87889e-06
4.8001e-06
4.69808e-06
4.57382e-06
4.43131e-06
4.28685e-06
4.13636e-06
3.98016e-06
3.81918e-06
3.65427e-06
3.48616e-06
3.3153e-06
3.14161e-06
2.96397e-06
2.77986e-06
2.58538e-06
2.37518e-06
2.13953e-06
1.86005e-06
1.5024e-06
1.11054e-06
7.86115e-07
5.46198e-07
3.74892e-07
2.52585e-07
1.66069e-07
1.07975e-07
7.30971e-08
5.63556e-08
5.33721e-08
6.0275e-08
7.1668e-08
9.01216e-08
1.16516e-07
1.38674e-07
1.43596e-07
1.35012e-07
1.21203e-07
1.08606e-07
1.0168e-07
1.03839e-07
1.21107e-07
1.64154e-07
2.49814e-07
4.02803e-07
6.49126e-07
9.82533e-07
1.31717e-06
1.53845e-06
1.62933e-06
1.65051e-06
1.65496e-06
1.66578e-06
1.68313e-06
1.70687e-06
1.73685e-06
1.77288e-06
1.81455e-06
1.86109e-06
1.91113e-06
1.96267e-06
2.01309e-06
2.05963e-06
2.09998e-06
2.13279e-06
2.15774e-06
2.17362e-06
2.18346e-06
2.18924e-06
2.19174e-06
2.19131e-06
2.18803e-06
2.18181e-06
2.17252e-06
2.16002e-06
2.14416e-06
2.12478e-06
2.10167e-06
2.07451e-06
2.04288e-06
2.00611e-06
1.96289e-06
1.90859e-06
1.81735e-06
1.64944e-06
1.39359e-06
1.0904e-06
8.04668e-07
5.76227e-07
4.10714e-07
2.96496e-07
2.18908e-07
1.65937e-07
1.29132e-07
1.02958e-07
8.39023e-08
6.97273e-08
5.89892e-08
5.07401e-08
4.43484e-08
3.93894e-08
3.55756e-08
3.27137e-08
3.06809e-08
2.94111e-08
2.88829e-08
2.9099e-08
3.0058e-08
3.17486e-08
3.41398e-08
3.71726e-08
4.0754e-08
4.4752e-08
4.89897e-08
5.3229e-08
5.71242e-08
6.01361e-08
6.14726e-08
6.02083e-08
5.56006e-08
4.79528e-08
3.91299e-08
3.09466e-08
2.71014e-08
3.50301e-08
5.69975e-08
6.73995e-08
4.49176e-08
2.35111e-08
1.6814e-08
3.57667e-08
1.37266e-07
2.27349e-07
2.42463e-07
2.64071e-07
2.92123e-07
1.48881e-07
2.04528e-07
3.60603e-07
3.64263e-07
3.74216e-07
3.98849e-07
4.3818e-07
4.93285e-07
5.66729e-07
6.62409e-07
7.8542e-07
9.41794e-07
1.13778e-06
1.3783e-06
1.66449e-06
1.99067e-06
2.3415e-06
2.69112e-06
3.00658e-06
3.25662e-06
3.42296e-06
3.50689e-06
3.52643e-06
3.50663e-06
3.47012e-06
3.43264e-06
3.40314e-06
3.3899e-06
3.40015e-06
3.43341e-06
3.48841e-06
3.56363e-06
3.65727e-06
3.76721e-06
3.89079e-06
4.02472e-06
4.16481e-06
4.30597e-06
4.44235e-06
4.56765e-06
4.67573e-06
4.76117e-06
4.81973e-06
4.84871e-06
4.8469e-06
4.81419e-06
4.75079e-06
4.6569e-06
4.54262e-06
4.41484e-06
4.27361e-06
4.12043e-06
3.95696e-06
3.78479e-06
3.6055e-06
3.4208e-06
3.2327e-06
3.04339e-06
2.85444e-06
2.6659e-06
2.47611e-06
2.28288e-06
2.08171e-06
1.85926e-06
1.58482e-06
1.26226e-06
9.49757e-07
6.86425e-07
4.82809e-07
3.33425e-07
2.29123e-07
1.61413e-07
1.22047e-07
1.01533e-07
9.25698e-08
9.47291e-08
1.07611e-07
1.20583e-07
1.2313e-07
1.16989e-07
1.08027e-07
1.01373e-07
1.02161e-07
1.15971e-07
1.51188e-07
2.21193e-07
3.43972e-07
5.36185e-07
7.93819e-07
1.06315e-06
1.25735e-06
1.34117e-06
1.35241e-06
1.33894e-06
1.32522e-06
1.3195e-06
1.32223e-06
1.33282e-06
1.35093e-06
1.37642e-06
1.40929e-06
1.44945e-06
1.49647e-06
1.54929e-06
1.60595e-06
1.66359e-06
1.71892e-06
1.76902e-06
1.81215e-06
1.84729e-06
1.87354e-06
1.8954e-06
1.91413e-06
1.93047e-06
1.94475e-06
1.95706e-06
1.9674e-06
1.97575e-06
1.98214e-06
1.98664e-06
1.98932e-06
1.99021e-06
1.98924e-06
1.98619e-06
1.98059e-06
1.9716e-06
1.95765e-06
1.93337e-06
1.88873e-06
1.8109e-06
1.68816e-06
1.51962e-06
1.31987e-06
1.11266e-06
9.1963e-07
7.53377e-07
6.17426e-07
5.09574e-07
4.2524e-07
3.59538e-07
3.08185e-07
2.67764e-07
2.35701e-07
2.10145e-07
1.8981e-07
1.73828e-07
1.61617e-07
1.52778e-07
1.47019e-07
1.441e-07
1.43778e-07
1.45763e-07
1.49692e-07
1.55119e-07
1.61525e-07
1.68346e-07
1.75009e-07
1.8097e-07
1.85723e-07
1.88748e-07
1.8938e-07
1.86624e-07
1.78957e-07
1.64077e-07
1.39173e-07
1.03614e-07
6.50681e-08
4.04168e-08
3.86284e-08
5.15806e-08
4.78369e-08
2.67201e-08
1.5481e-08
2.35012e-08
7.61436e-08
1.66392e-07
1.84221e-07
1.96503e-07
2.17669e-07
2.47878e-07
2.4661e-07
1.78031e-07
4.71067e-07
5.05266e-07
5.41763e-07
6.01006e-07
6.85594e-07
7.98169e-07
9.41957e-07
1.11995e-06
1.33367e-06
1.58168e-06
1.85784e-06
2.15006e-06
2.44001e-06
2.70458e-06
2.91968e-06
3.06598e-06
3.13475e-06
3.13089e-06
3.07081e-06
2.97645e-06
2.86879e-06
2.764e-06
2.67275e-06
2.60133e-06
2.55316e-06
2.53462e-06
2.54363e-06
2.57839e-06
2.63744e-06
2.71967e-06
2.82426e-06
2.95054e-06
3.09765e-06
3.26405e-06
3.44694e-06
3.64165e-06
3.84147e-06
4.03791e-06
4.22164e-06
4.38372e-06
4.51641e-06
4.61441e-06
4.67532e-06
4.69852e-06
4.68376e-06
4.63279e-06
4.55569e-06
4.45604e-06
4.33542e-06
4.19554e-06
4.03823e-06
3.86541e-06
3.67902e-06
3.48121e-06
3.27468e-06
3.06309e-06
2.85104e-06
2.64317e-06
2.44269e-06
2.25086e-06
2.06743e-06
1.88847e-06
1.69893e-06
1.47067e-06
1.20479e-06
9.35942e-07
6.97572e-07
5.05903e-07
3.62669e-07
2.62737e-07
1.9759e-07
1.55599e-07
1.27467e-07
1.14551e-07
1.13402e-07
1.12376e-07
1.07584e-07
1.0195e-07
9.93588e-08
1.0491e-07
1.25028e-07
1.68471e-07
2.47694e-07
3.76667e-07
5.61683e-07
7.82714e-07
9.81185e-07
1.09633e-06
1.12396e-06
1.10489e-06
1.07537e-06
1.05158e-06
1.03763e-06
1.03385e-06
1.03799e-06
1.04935e-06
1.06766e-06
1.09298e-06
1.12563e-06
1.16601e-06
1.2142e-06
1.26965e-06
1.3307e-06
1.39448e-06
1.45729e-06
1.51553e-06
1.56684e-06
1.60733e-06
1.64147e-06
1.67141e-06
1.69829e-06
1.72278e-06
1.74513e-06
1.76543e-06
1.78371e-06
1.80007e-06
1.81468e-06
1.82777e-06
1.83956e-06
1.85028e-06
1.86011e-06
1.8691e-06
1.87711e-06
1.88371e-06
1.88802e-06
1.88777e-06
1.87959e-06
1.85862e-06
1.81846e-06
1.75285e-06
1.6587e-06
1.53854e-06
1.4004e-06
1.25509e-06
1.11279e-06
9.80839e-07
8.63206e-07
7.61119e-07
6.74032e-07
6.00511e-07
5.38862e-07
4.87496e-07
4.4509e-07
4.10609e-07
3.83243e-07
3.62331e-07
3.4728e-07
3.37497e-07
3.32335e-07
3.31054e-07
3.32813e-07
3.36682e-07
3.41682e-07
3.46826e-07
3.51182e-07
3.53903e-07
3.54231e-07
3.51429e-07
3.44609e-07
3.3245e-07
3.12772e-07
2.81845e-07
2.34431e-07
1.68305e-07
9.70964e-08
5.13367e-08
4.06186e-08
4.54312e-08
3.42985e-08
1.77407e-08
1.52459e-08
3.73638e-08
1.02699e-07
1.39149e-07
1.42003e-07
1.52111e-07
1.72087e-07
2.02716e-07
3.25725e-07
1.43367e-07
5.7171e-07
6.56032e-07
7.33622e-07
8.42787e-07
9.87548e-07
1.16866e-06
1.38442e-06
1.62942e-06
1.89359e-06
2.16207e-06
2.41614e-06
2.63521e-06
2.7997e-06
2.8947e-06
2.91358e-06
2.86018e-06
2.74824e-06
2.59777e-06
2.43005e-06
2.26344e-06
2.11141e-06
1.98268e-06
1.88227e-06
1.81261e-06
1.77437e-06
1.76864e-06
1.78698e-06
1.8272e-06
1.88805e-06
1.96903e-06
2.07049e-06
2.19362e-06
2.34038e-06
2.51286e-06
2.71212e-06
2.93662e-06
3.18102e-06
3.43583e-06
3.68842e-06
3.92566e-06
4.13456e-06
4.30497e-06
4.4325e-06
4.51536e-06
4.55306e-06
4.54982e-06
4.51467e-06
4.45039e-06
4.35838e-06
4.23989e-06
4.09632e-06
3.92932e-06
3.74084e-06
3.53319e-06
3.30948e-06
3.07432e-06
2.83436e-06
2.59791e-06
2.37303e-06
2.16542e-06
1.97765e-06
1.80909e-06
1.65244e-06
1.48779e-06
1.28914e-06
1.06329e-06
8.36402e-07
6.34292e-07
4.70373e-07
3.46488e-07
2.5625e-07
1.89231e-07
1.4266e-07
1.19391e-07
1.09267e-07
1.02371e-07
9.80022e-08
9.72552e-08
1.04353e-07
1.25568e-07
1.69175e-07
2.45456e-07
3.64582e-07
5.28077e-07
7.13882e-07
8.70631e-07
9.50873e-07
9.55969e-07
9.23004e-07
8.83748e-07
8.52152e-07
8.31552e-07
8.21686e-07
8.21315e-07
8.27682e-07
8.40186e-07
8.58697e-07
8.83517e-07
9.15303e-07
9.54878e-07
1.00287e-06
1.05926e-06
1.12277e-06
1.19078e-06
1.25929e-06
1.32419e-06
1.37913e-06
1.42588e-06
1.46693e-06
1.50362e-06
1.53696e-06
1.56747e-06
1.59534e-06
1.62069e-06
1.64369e-06
1.66462e-06
1.68386e-06
1.70174e-06
1.71857e-06
1.73455e-06
1.74984e-06
1.76455e-06
1.77877e-06
1.79244e-06
1.80521e-06
1.81593e-06
1.82305e-06
1.82382e-06
1.81474e-06
1.79187e-06
1.75164e-06
1.69207e-06
1.61374e-06
1.51996e-06
1.41593e-06
1.30747e-06
1.19983e-06
1.09705e-06
1.00177e-06
9.15447e-07
8.38662e-07
7.71481e-07
7.13685e-07
6.64918e-07
6.24748e-07
5.92665e-07
5.68066e-07
5.50229e-07
5.38293e-07
5.31256e-07
5.27993e-07
5.27296e-07
5.27928e-07
5.28676e-07
5.28396e-07
5.26038e-07
5.20622e-07
5.11141e-07
4.96335e-07
4.74328e-07
4.42018e-07
3.94163e-07
3.23566e-07
2.27257e-07
1.25067e-07
6.01643e-08
4.1444e-08
3.95166e-08
2.51665e-08
1.35381e-08
1.8148e-08
5.06575e-08
1.01005e-07
1.06512e-07
1.05146e-07
1.13136e-07
1.31284e-07
1.60975e-07
3.86939e-07
1.11922e-07
6.52265e-07
8.02178e-07
9.28606e-07
1.09282e-06
1.29766e-06
1.53737e-06
1.80035e-06
2.06967e-06
2.32468e-06
2.5437e-06
2.70699e-06
2.79952e-06
2.81342e-06
2.74975e-06
2.61884e-06
2.43859e-06
2.23072e-06
2.01651e-06
1.81347e-06
1.63393e-06
1.48519e-06
1.37062e-06
1.29081e-06
1.2446e-06
1.22974e-06
1.24122e-06
1.2699e-06
1.31397e-06
1.37235e-06
1.44459e-06
1.53112e-06
1.63378e-06
1.75638e-06
1.90492e-06
2.08626e-06
2.30539e-06
2.56215e-06
2.84894e-06
3.1506e-06
3.45046e-06
3.7296e-06
3.9692e-06
4.16238e-06
4.30396e-06
4.39172e-06
4.43677e-06
4.44507e-06
4.41881e-06
4.35915e-06
4.26678e-06
4.1423e-06
3.98657e-06
3.8009e-06
3.5872e-06
3.34848e-06
3.08987e-06
2.81977e-06
2.54984e-06
2.29304e-06
2.0601e-06
1.85715e-06
1.68547e-06
1.54069e-06
1.40796e-06
1.26072e-06
1.08558e-06
8.92246e-07
7.02694e-07
5.3538e-07
3.98269e-07
2.89209e-07
2.03784e-07
1.46505e-07
1.17134e-07
1.0215e-07
9.5042e-08
9.40978e-08
1.00341e-07
1.19093e-07
1.57837e-07
2.25362e-07
3.29579e-07
4.71347e-07
6.32577e-07
7.70261e-07
8.40857e-07
8.40747e-07
8.02173e-07
7.56382e-07
7.18128e-07
6.91127e-07
6.75083e-07
6.68865e-07
6.70715e-07
6.77967e-07
6.90222e-07
7.07584e-07
7.30639e-07
7.60377e-07
7.98006e-07
8.44578e-07
9.00568e-07
9.64935e-07
1.03557e-06
1.10823e-06
1.17486e-06
1.23403e-06
1.28668e-06
1.33357e-06
1.37572e-06
1.41387e-06
1.44834e-06
1.4793e-06
1.50704e-06
1.53206e-06
1.55506e-06
1.5768e-06
1.59788e-06
1.61865e-06
1.6392e-06
1.65935e-06
1.67887e-06
1.69754e-06
1.71532e-06
1.73217e-06
1.74782e-06
1.76195e-06
1.77289e-06
1.77826e-06
1.77521e-06
1.76088e-06
1.73295e-06
1.69025e-06
1.63314e-06
1.56357e-06
1.48461e-06
1.39993e-06
1.31313e-06
1.22739e-06
1.14523e-06
1.06851e-06
9.98518e-07
9.36061e-07
8.81593e-07
8.35262e-07
7.96948e-07
7.6628e-07
7.42648e-07
7.2522e-07
7.12968e-07
7.04716e-07
6.99194e-07
6.95102e-07
6.91168e-07
6.8618e-07
6.78992e-07
6.68467e-07
6.53346e-07
6.31966e-07
6.01793e-07
5.58651e-07
4.95709e-07
4.03976e-07
2.80057e-07
1.5003e-07
6.80323e-08
4.16452e-08
3.42497e-08
1.91861e-08
1.16982e-08
2.19754e-08
5.83068e-08
8.56527e-08
7.85362e-08
7.49858e-08
8.10581e-08
9.70171e-08
1.24903e-07
4.32213e-07
8.59123e-08
7.0648e-07
9.31674e-07
1.10667e-06
1.32038e-06
1.57307e-06
1.85033e-06
2.13036e-06
2.38751e-06
2.59666e-06
2.73721e-06
2.79593e-06
2.76843e-06
2.65984e-06
2.48413e-06
2.26197e-06
2.01703e-06
1.77195e-06
1.54502e-06
1.34868e-06
1.18951e-06
1.06934e-06
9.86588e-07
9.37675e-07
9.18217e-07
9.23967e-07
9.47964e-07
9.84326e-07
1.03151e-06
1.08796e-06
1.15234e-06
1.22404e-06
1.30367e-06
1.39411e-06
1.50262e-06
1.64094e-06
1.8226e-06
2.05718e-06
2.34422e-06
2.6674e-06
3.00827e-06
3.3443e-06
3.64335e-06
3.89722e-06
4.08721e-06
4.22506e-06
4.31721e-06
4.36746e-06
4.37833e-06
4.35114e-06
4.28627e-06
4.18355e-06
4.04277e-06
3.86403e-06
3.64818e-06
3.39738e-06
3.11652e-06
2.81515e-06
2.5083e-06
2.21413e-06
1.94913e-06
1.72393e-06
1.54206e-06
1.39999e-06
1.28502e-06
1.17239e-06
1.04038e-06
8.84994e-07
7.18882e-07
5.59662e-07
4.18957e-07
2.99743e-07
2.0529e-07
1.44045e-07
1.11794e-07
9.56518e-08
9.06789e-08
9.44489e-08
1.08756e-07
1.40022e-07
1.96171e-07
2.84455e-07
4.06855e-07
5.51173e-07
6.83016e-07
7.59512e-07
7.66649e-07
7.29363e-07
6.80065e-07
6.36582e-07
6.04082e-07
5.82463e-07
5.70375e-07
5.66698e-07
5.69093e-07
5.75566e-07
5.85936e-07
6.00603e-07
6.20504e-07
6.47017e-07
6.81745e-07
7.26043e-07
7.80835e-07
8.45018e-07
9.1737e-07
9.89017e-07
1.05767e-06
1.12122e-06
1.17858e-06
1.22994e-06
1.27585e-06
1.31665e-06
1.35242e-06
1.3834e-06
1.41021e-06
1.43395e-06
1.45598e-06
1.47767e-06
1.50011e-06
1.52392e-06
1.54916e-06
1.57533e-06
1.60153e-06
1.62672e-06
1.65012e-06
1.67116e-06
1.69017e-06
1.70774e-06
1.72341e-06
1.73589e-06
1.74318e-06
1.74287e-06
1.73264e-06
1.71078e-06
1.67655e-06
1.63041e-06
1.57386e-06
1.50923e-06
1.43926e-06
1.36678e-06
1.29439e-06
1.2243e-06
1.15834e-06
1.09784e-06
1.04375e-06
9.96626e-07
9.56651e-07
9.23686e-07
8.97284e-07
8.76732e-07
8.61092e-07
8.49263e-07
8.40047e-07
8.32211e-07
8.2454e-07
8.15863e-07
8.05031e-07
7.90833e-07
7.71826e-07
7.45987e-07
7.10139e-07
6.59023e-07
5.84218e-07
4.74982e-07
3.27512e-07
1.7344e-07
7.58249e-08
4.17067e-08
2.98098e-08
1.53895e-08
1.09928e-08
2.55662e-08
5.99957e-08
6.86596e-08
5.68236e-08
5.19924e-08
5.64029e-08
6.99222e-08
9.54122e-08
4.61815e-07
6.38943e-08
7.29395e-07
1.0347e-06
1.25243e-06
1.50411e-06
1.789e-06
2.08529e-06
2.36349e-06
2.59319e-06
2.74905e-06
2.81494e-06
2.7856e-06
2.66669e-06
2.47348e-06
2.22846e-06
1.95763e-06
1.68627e-06
1.43532e-06
1.21918e-06
1.04533e-06
9.15255e-07
8.26096e-07
7.72375e-07
7.47649e-07
7.45878e-07
7.62583e-07
7.94699e-07
8.39559e-07
8.94453e-07
9.55835e-07
1.02045e-06
1.08618e-06
1.15227e-06
1.21906e-06
1.2919e-06
1.38311e-06
1.51235e-06
1.70067e-06
1.96134e-06
2.27982e-06
2.63671e-06
3.01115e-06
3.35513e-06
3.64824e-06
3.88793e-06
4.07396e-06
4.20931e-06
4.29777e-06
4.34249e-06
4.34534e-06
4.30678e-06
4.22614e-06
4.1021e-06
3.93331e-06
3.71893e-06
3.45945e-06
3.1585e-06
2.82583e-06
2.47941e-06
2.14317e-06
1.84042e-06
1.58729e-06
1.39025e-06
1.24629e-06
1.1426e-06
1.05468e-06
9.5727e-07
8.37169e-07
6.97679e-07
5.52912e-07
4.1608e-07
2.95004e-07
1.99436e-07
1.38522e-07
1.05831e-07
9.06671e-08
8.86344e-08
9.75822e-08
1.20299e-07
1.63907e-07
2.35789e-07
3.39911e-07
4.7008e-07
6.01241e-07
6.92572e-07
7.1754e-07
6.88916e-07
6.39286e-07
5.91624e-07
5.5426e-07
5.27981e-07
5.11329e-07
5.02571e-07
5.00345e-07
5.02362e-07
5.07184e-07
5.148e-07
5.25893e-07
5.418e-07
5.64377e-07
5.95673e-07
6.37426e-07
6.90573e-07
7.54413e-07
8.23356e-07
8.95456e-07
9.66598e-07
1.03344e-06
1.09426e-06
1.14857e-06
1.19631e-06
1.23729e-06
1.27141e-06
1.29911e-06
1.32158e-06
1.34066e-06
1.35847e-06
1.37708e-06
1.39818e-06
1.42291e-06
1.45164e-06
1.48391e-06
1.51838e-06
1.55314e-06
1.58607e-06
1.61482e-06
1.63978e-06
1.66141e-06
1.68028e-06
1.69644e-06
1.70908e-06
1.7166e-06
1.71696e-06
1.70818e-06
1.6889e-06
1.65867e-06
1.61805e-06
1.56847e-06
1.51204e-06
1.45115e-06
1.38827e-06
1.32569e-06
1.2654e-06
1.20901e-06
1.15769e-06
1.11222e-06
1.07298e-06
1.03995e-06
1.01283e-06
9.90986e-07
9.73598e-07
9.59668e-07
9.48109e-07
9.37801e-07
9.27637e-07
9.16534e-07
9.03396e-07
8.87003e-07
8.658e-07
8.37494e-07
7.98372e-07
7.42217e-07
6.5915e-07
5.36741e-07
3.70605e-07
1.9652e-07
8.42879e-08
4.20926e-08
2.63846e-08
1.31455e-08
1.08918e-08
2.72303e-08
5.75288e-08
5.46839e-08
4.14276e-08
3.60656e-08
3.90612e-08
4.99977e-08
7.26207e-08
4.88976e-07
4.41422e-08
7.12404e-07
1.10295e-06
1.35665e-06
1.63403e-06
1.93847e-06
2.24387e-06
2.51592e-06
2.72159e-06
2.83627e-06
2.84784e-06
2.75739e-06
2.5779e-06
2.33154e-06
2.04597e-06
1.74983e-06
1.46843e-06
1.22055e-06
1.01707e-06
8.61276e-07
7.50548e-07
6.78556e-07
6.37588e-07
6.20591e-07
6.22728e-07
6.42567e-07
6.84339e-07
7.44623e-07
8.17244e-07
8.94946e-07
9.71257e-07
1.04208e-06
1.10616e-06
1.16213e-06
1.21352e-06
1.2701e-06
1.35263e-06
1.48957e-06
1.71013e-06
2.00747e-06
2.36028e-06
2.73906e-06
3.10891e-06
3.44293e-06
3.72605e-06
3.95329e-06
4.12577e-06
4.24707e-06
4.32085e-06
4.34966e-06
4.33442e-06
4.27436e-06
4.16732e-06
4.01043e-06
3.8008e-06
3.53652e-06
3.21885e-06
2.85634e-06
2.46891e-06
2.08653e-06
1.74063e-06
1.45431e-06
1.23783e-06
1.0887e-06
9.92732e-07
9.24089e-07
8.5486e-07
7.65645e-07
6.5237e-07
5.25228e-07
3.97687e-07
2.81327e-07
1.8998e-07
1.31911e-07
1.00457e-07
8.7277e-08
8.83099e-08
1.02065e-07
1.32775e-07
1.88076e-07
2.7329e-07
3.88126e-07
5.17243e-07
6.25961e-07
6.776e-07
6.67027e-07
6.2186e-07
5.71091e-07
5.28659e-07
4.9757e-07
4.76733e-07
4.64172e-07
4.57977e-07
4.56657e-07
4.58104e-07
4.61182e-07
4.65993e-07
4.73458e-07
4.85285e-07
5.03912e-07
5.31639e-07
5.71442e-07
6.21478e-07
6.81854e-07
7.50375e-07