/*--------------------------------*- C++ -*----------------------------------*\
| =========                 |                                                 |
| \\      /  F ield         | OpenFOAM: The Open Source CFD Toolbox           |
|  \\    /   O peration     | Version:  2112                                  |
|   \\  /    A nd           | Website:  www.openfoam.com                      |
|    \\/     M anipulation  |                                                 |
\*---------------------------------------------------------------------------*/
FoamFile
{
    version     2.0;
    format      ascii;
    arch        "LSB;label=32;scalar=64";
    class       volVectorField;
    location    "0.56";
    object      U;
}
// * * * * * * * * * * * * * * * * * * * * * * * * * * * * * * * * * * * * * //

dimensions      [0 1 -1 0 0 0 0];

internalField   nonuniform List<vector> 
12225
(
(9.75243 0.0357721 0)
(9.24684 0.0697798 0)
(8.73783 0.0784148 0)
(8.24803 0.0795091 0)
(7.79106 0.0771321 0)
(7.37367 0.0720924 0)
(6.997 0.065252 0)
(6.66212 0.0572496 0)
(6.37077 0.0484476 0)
(6.12421 0.0391153 0)
(5.92253 0.0295084 0)
(5.76488 0.0198724 0)
(5.64933 0.0104376 0)
(5.57311 0.00158185 0)
(5.53133 -0.00622245 0)
(5.51792 -0.0106834 0)
(5.51219 -0.0108162 0)
(5.51939 0.0174838 0)
(10.1127 0.0736807 0)
(10.3394 0.119424 0)
(10.4961 0.124701 0)
(10.588 0.125789 0)
(10.6356 0.126181 0)
(10.6509 0.124369 0)
(10.6415 0.120299 0)
(10.6144 0.11416 0)
(10.5769 0.105963 0)
(10.5355 0.095776 0)
(10.4952 0.0838132 0)
(10.4602 0.0704151 0)
(10.4333 0.0560607 0)
(10.4163 0.0413257 0)
(10.4096 0.0273734 0)
(10.4106 0.017468 0)
(10.4168 0.0171654 0)
(10.4407 0.0426181 0)
(10.0093 0.0403922 0)
(10.0597 0.0589204 0)
(10.1176 0.0581864 0)
(10.1755 0.0624004 0)
(10.2378 0.068655 0)
(10.3043 0.0727627 0)
(10.3711 0.0740607 0)
(10.435 0.0726509 0)
(10.4942 0.0684518 0)
(10.5479 0.0614502 0)
(10.5956 0.0518451 0)
(10.6374 0.0400343 0)
(10.6735 0.0265725 0)
(10.7049 0.0124004 0)
(10.7319 -0.00108086 0)
(10.7585 -0.0105394 0)
(10.7903 -0.011449 0)
(10.8485 0.00736316 0)
(10.0059 0.0296425 0)
(10.0348 0.05627 0)
(10.0653 0.0653364 0)
(10.0895 0.0724175 0)
(10.1128 0.077457 0)
(10.1397 0.078717 0)
(10.1699 0.0767518 0)
(10.2022 0.0723766 0)
(10.236 0.0658795 0)
(10.2706 0.0573771 0)
(10.3056 0.0470726 0)
(10.3401 0.0352969 0)
(10.374 0.0224468 0)
(10.4071 0.00932703 0)
(10.4406 -0.00304796 0)
(10.4772 -0.0133618 0)
(10.5211 -0.0197512 0)
(10.5859 -0.0214774 0)
(10.0044 0.0240505 0)
(10.0285 0.05145 0)
(10.0566 0.0599946 0)
(10.0797 0.0633551 0)
(10.1008 0.0651522 0)
(10.1238 0.06454 0)
(10.1487 0.0614906 0)
(10.1748 0.0564163 0)
(10.2016 0.0494333 0)
(10.2294 0.0405281 0)
(10.258 0.0297876 0)
(10.2874 0.0174396 0)
(10.3176 0.00379963 0)
(10.349 -0.0107262 0)
(10.3822 -0.0255544 0)
(10.4195 -0.0399656 0)
(10.4641 -0.0541425 0)
(10.5241 -0.0715022 0)
(10.0032 0.019477 0)
(10.0226 0.0441873 0)
(10.0477 0.0525294 0)
(10.0704 0.0555478 0)
(10.0917 0.0575053 0)
(10.1146 0.0574196 0)
(10.1393 0.0546777 0)
(10.165 0.0495376 0)
(10.1913 0.042225 0)
(10.2184 0.0328246 0)
(10.2461 0.0214627 0)
(10.2746 0.00836709 0)
(10.3038 -0.00618065 0)
(10.3343 -0.021903 0)
(10.3668 -0.0385323 0)
(10.4032 -0.0561366 0)
(10.4456 -0.0761077 0)
(10.4984 -0.102796 0)
(10.0024 0.0156726 0)
(10.018 0.0374026 0)
(10.0402 0.0460412 0)
(10.0618 0.0490255 0)
(10.0826 0.0502606 0)
(10.1046 0.0492182 0)
(10.1283 0.0453663 0)
(10.1531 0.0390246 0)
(10.1786 0.0305367 0)
(10.2047 0.0200388 0)
(10.2315 0.00763308 0)
(10.2591 -0.00653611 0)
(10.2874 -0.0222874 0)
(10.317 -0.0395144 0)
(10.3485 -0.0583069 0)
(10.3831 -0.0792731 0)
(10.422 -0.104165 0)
(10.4669 -0.136972 0)
(10.0018 0.012567 0)
(10.0145 0.0312146 0)
(10.0339 0.0395225 0)
(10.0543 0.0420092 0)
(10.0743 0.0421782 0)
(10.0954 0.040148 0)
(10.118 0.0355313 0)
(10.1418 0.0285354 0)
(10.1663 0.0194506 0)
(10.1914 0.00838768 0)
(10.2172 -0.00459858 0)
(10.2437 -0.0194388 0)
(10.2709 -0.0360704 0)
(10.2993 -0.0545366 0)
(10.3291 -0.075133 0)
(10.3613 -0.0986602 0)
(10.396 -0.126761 0)
(10.4334 -0.162455 0)
(10.0014 0.00999593 0)
(10.0118 0.0255116 0)
(10.0288 0.0329372 0)
(10.0478 0.0348115 0)
(10.0669 0.0340499 0)
(10.087 0.031145 0)
(10.1085 0.0257923 0)
(10.1312 0.01806 0)
(10.1546 0.00817884 0)
(10.1786 -0.00373096 0)
(10.2032 -0.0176266 0)
(10.2284 -0.0334724 0)
(10.2542 -0.0512741 0)
(10.281 -0.0711615 0)
(10.3088 -0.0935085 0)
(10.338 -0.1191 0)
(10.3683 -0.149251 0)
(10.399 -0.185939 0)
(10.0011 0.00782005 0)
(10.0097 0.0202721 0)
(10.0246 0.0264348 0)
(10.042 0.027561 0)
(10.0602 0.0258628 0)
(10.0792 0.0219927 0)
(10.0996 0.0157727 0)
(10.1211 0.00721348 0)
(10.1433 -0.00349268 0)
(10.1661 -0.0162193 0)
(10.1894 -0.0309293 0)
(10.2132 -0.0476252 0)
(10.2375 -0.0663661 0)
(10.2624 -0.0873298 0)
(10.2879 -0.110892 0)
(10.3139 -0.137702 0)
(10.3399 -0.168678 0)
(10.3651 -0.204906 0)
(10.0009 0.0059372 0)
(10.0081 0.0154718 0)
(10.0211 0.0201102 0)
(10.037 0.0203091 0)
(10.0541 0.017626 0)
(10.0721 0.0127459 0)
(10.0913 0.00562408 0)
(10.1115 -0.00375245 0)
(10.1324 -0.0152473 0)
(10.1538 -0.0287531 0)
(10.1757 -0.0442456 0)
(10.1979 -0.0617541 0)
(10.2205 -0.081361 0)
(10.2433 -0.103241 0)
(10.2663 -0.127699 0)
(10.2891 -0.155189 0)
(10.3113 -0.186254 0)
(10.3318 -0.221322 0)
(10.0008 0.0043905 0)
(10.007 0.0113695 0)
(10.0184 0.0144485 0)
(10.033 0.0136506 0)
(10.049 0.0100262 0)
(10.0659 0.00420705 0)
(10.084 -0.00376055 0)
(10.103 -0.0138977 0)
(10.1227 -0.0261158 0)
(10.1428 -0.0403272 0)
(10.1632 -0.0565112 0)
(10.1839 -0.0747001 0)
(10.2047 -0.0949717 0)
(10.2255 -0.117467 0)
(10.2462 -0.142401 0)
(10.2663 -0.170047 0)
(10.2852 -0.200672 0)
(10.3023 -0.234289 0)
(10.0007 0.00302834 0)
(10.0061 0.00762513 0)
(10.0162 0.00905506 0)
(10.0294 0.0071396 0)
(10.0443 0.00254486 0)
(10.0602 -0.0042088 0)
(10.077 -0.0130265 0)
(10.0948 -0.0239209 0)
(10.1132 -0.0368362 0)
(10.1319 -0.0517041 0)
(10.1508 -0.0685037 0)
(10.1699 -0.0872607 0)
(10.1889 -0.108035 0)
(10.2077 -0.130923 0)
(10.226 -0.156049 0)
(10.2436 -0.183535 0)
(10.2597 -0.213453 0)
(10.274 -0.245575 0)
(10.0006 0.00161492 0)
(10.0052 0.00364444 0)
(10.014 0.00314028 0)
(10.0258 -0.000159896 0)
(10.0394 -0.00590742 0)
(10.054 -0.0137286 0)
(10.0695 -0.0235116 0)
(10.0858 -0.0352556 0)
(10.1026 -0.048929 0)
(10.1196 -0.0644829 0)
(10.1368 -0.0818949 0)
(10.1539 -0.101175 0)
(10.1708 -0.122352 0)
(10.1873 -0.145463 0)
(10.2031 -0.170542 0)
(10.2179 -0.197577 0)
(10.2312 -0.226503 0)
(10.2428 -0.256953 0)
(10.0005 0.000161195 0)
(10.0044 -0.000502121 0)
(10.0119 -0.00317517 0)
(10.0223 -0.00812416 0)
(10.0343 -0.0152219 0)
(10.0474 -0.0242408 0)
(10.0613 -0.035085 0)
(10.0759 -0.0477451 0)
(10.0908 -0.0622041 0)
(10.1059 -0.078427 0)
(10.121 -0.0963867 0)
(10.1359 -0.11607 0)
(10.1504 -0.137466 0)
(10.1643 -0.160554 0)
(10.1774 -0.185291 0)
(10.1894 -0.211575 0)
(10.2 -0.239268 0)
(10.2092 -0.267975 0)
(10.0004 -0.00131442 0)
(10.0037 -0.00475357 0)
(10.01 -0.00977636 0)
(10.0188 -0.0165994 0)
(10.0292 -0.0252244 0)
(10.0406 -0.0355484 0)
(10.0527 -0.0475142 0)
(10.0652 -0.0611139 0)
(10.078 -0.0763375 0)
(10.0909 -0.0931576 0)
(10.1036 -0.111539 0)
(10.1159 -0.131445 0)
(10.1277 -0.152828 0)
(10.1389 -0.175623 0)
(10.1492 -0.199735 0)
(10.1584 -0.225025 0)
(10.1664 -0.251337 0)
(10.1732 -0.278323 0)
(10.0003 -0.00279569 0)
(10.003 -0.00905259 0)
(10.0082 -0.0165237 0)
(10.0155 -0.0253486 0)
(10.0242 -0.0355935 0)
(10.0337 -0.0472493 0)
(10.0437 -0.0603065 0)
(10.054 -0.0747696 0)
(10.0644 -0.0906344 0)
(10.0747 -0.107877 0)
(10.0848 -0.126456 0)
(10.0943 -0.146318 0)
(10.1033 -0.167391 0)
(10.1116 -0.189583 0)
(10.119 -0.212784 0)
(10.1255 -0.23685 0)
(10.1309 -0.261644 0)
(10.1352 -0.286892 0)
(10.0003 -0.00425846 0)
(10.0024 -0.0132997 0)
(10.0066 -0.0232127 0)
(10.0125 -0.0340549 0)
(10.0194 -0.0459133 0)
(10.0269 -0.0588419 0)
(10.0347 -0.0728775 0)
(10.0426 -0.0880444 0)
(10.0504 -0.104348 0)
(10.058 -0.121768 0)
(10.0652 -0.140264 0)
(10.0719 -0.159775 0)
(10.078 -0.180219 0)
(10.0833 -0.201498 0)
(10.0879 -0.223502 0)
(10.0916 -0.246102 0)
(10.0943 -0.269185 0)
(10.0962 -0.292553 0)
(10.0002 -0.00568914 0)
(10.0019 -0.0174036 0)
(10.0052 -0.0295793 0)
(10.0098 -0.0422026 0)
(10.0151 -0.055386 0)
(10.0206 -0.0692538 0)
(10.0261 -0.0838987 0)
(10.0315 -0.0993751 0)
(10.0367 -0.115706 0)
(10.0415 -0.132887 0)
(10.0458 -0.150885 0)
(10.0495 -0.169641 0)
(10.0526 -0.189074 0)
(10.0551 -0.209087 0)
(10.0569 -0.229572 0)
(10.0579 -0.250412 0)
(10.0581 -0.271505 0)
(10.0575 -0.292703 0)
(10.0002 -0.00688262 0)
(10.0018 -0.0207557 0)
(10.0048 -0.0346044 0)
(10.0087 -0.0483627 0)
(10.0129 -0.0622164 0)
(10.0171 -0.076397 0)
(10.0209 -0.0910687 0)
(10.0244 -0.106327 0)
(10.0275 -0.122229 0)
(10.03 -0.138798 0)
(10.032 -0.156018 0)
(10.0335 -0.173837 0)
(10.0343 -0.192172 0)
(10.0346 -0.210921 0)
(10.0343 -0.229969 0)
(10.0334 -0.249195 0)
(10.0318 -0.268487 0)
(10.0296 -0.287703 0)
(10.0002 -0.0078396 0)
(10.0019 -0.023374 0)
(10.0051 -0.038316 0)
(10.009 -0.0525813 0)
(10.0128 -0.0665266 0)
(10.0161 -0.0805369 0)
(10.0189 -0.0948382 0)
(10.0211 -0.10956 0)
(10.0227 -0.124805 0)
(10.0236 -0.140642 0)
(10.024 -0.157085 0)
(10.0237 -0.174094 0)
(10.023 -0.191585 0)
(10.0217 -0.209446 0)
(10.02 -0.227546 0)
(10.0179 -0.24574 0)
(10.0154 -0.263892 0)
(10.0123 -0.281845 0)
(10.0003 -0.00884454 0)
(10.0025 -0.0260257 0)
(10.0063 -0.0418 0)
(10.0106 -0.0561645 0)
(10.0143 -0.0698254 0)
(10.0171 -0.0833777 0)
(10.0191 -0.0970868 0)
(10.0203 -0.111101 0)
(10.0207 -0.125568 0)
(10.0203 -0.140597 0)
(10.0192 -0.156229 0)
(10.0175 -0.172439 0)
(10.0154 -0.189151 0)
(10.0129 -0.206251 0)
(10.01 -0.223593 0)
(10.007 -0.241009 0)
(10.0037 -0.258331 0)
(10.0001 -0.275369 0)
(10.0004 -0.0100513 0)
(10.0035 -0.0290419 0)
(10.0085 -0.045405 0)
(10.0136 -0.0594857 0)
(10.0175 -0.0725397 0)
(10.0199 -0.0853388 0)
(10.0214 -0.0981663 0)
(10.0218 -0.11125 0)
(10.0212 -0.124836 0)
(10.0197 -0.139083 0)
(10.0174 -0.154046 0)
(10.0144 -0.169699 0)
(10.0111 -0.185965 0)
(10.0074 -0.20271 0)
(10.0036 -0.219761 0)
(9.99982 -0.236913 0)
(9.99602 -0.253956 0)
(9.99228 -0.270668 0)
(10.0006 -0.0116395 0)
(10.0052 -0.0326817 0)
(10.0121 -0.0492291 0)
(10.0183 -0.0626938 0)
(10.0224 -0.0751108 0)
(10.0247 -0.0871503 0)
(10.0258 -0.0989252 0)
(10.0255 -0.11075 0)
(10.0239 -0.123028 0)
(10.0212 -0.136029 0)
(10.0176 -0.149877 0)
(10.0134 -0.164604 0)
(10.0088 -0.180161 0)
(10.004 -0.196419 0)
(9.9993 -0.21318 0)
(9.99474 -0.230204 0)
(9.99044 -0.247229 0)
(9.98646 -0.26398 0)
(10.001 -0.013845 0)
(10.0079 -0.0372658 0)
(10.0173 -0.0532291 0)
(10.0246 -0.0653392 0)
(10.0289 -0.076877 0)
(10.0313 -0.0883747 0)
(10.0323 -0.0996903 0)
(10.0317 -0.111081 0)
(10.0294 -0.122928 0)
(10.0256 -0.135484 0)
(10.0208 -0.148894 0)
(10.0151 -0.163239 0)
(10.009 -0.17851 0)
(10.0027 -0.194591 0)
(9.99641 -0.211279 0)
(9.99043 -0.228312 0)
(9.98485 -0.245396 0)
(9.97986 -0.262201 0)
(10.0017 -0.0168359 0)
(10.0122 -0.0430868 0)
(10.0248 -0.0584386 0)
(10.033 -0.068783 0)
(10.0369 -0.0780255 0)
(10.0386 -0.0868397 0)
(10.0388 -0.0955301 0)
(10.037 -0.104674 0)
(10.0333 -0.114703 0)
(10.0279 -0.125833 0)
(10.0213 -0.138198 0)
(10.0137 -0.151887 0)
(10.0056 -0.166876 0)
(9.99757 -0.183006 0)
(9.98998 -0.200031 0)
(9.98325 -0.217631 0)
(9.97776 -0.235465 0)
(9.97376 -0.253013 0)
(10.0027 -0.0207622 0)
(10.0174 -0.047814 0)
(10.0334 -0.0634727 0)
(10.0426 -0.0764678 0)
(10.0466 -0.0881586 0)
(10.0487 -0.0978545 0)
(10.0495 -0.106203 0)
(10.0489 -0.114283 0)
(10.0472 -0.122791 0)
(10.045 -0.132147 0)
(10.0428 -0.142717 0)
(10.0415 -0.154803 0)
(10.0417 -0.168519 0)
(10.0441 -0.183803 0)
(10.0496 -0.200503 0)
(10.0587 -0.218414 0)
(10.072 -0.237229 0)
(10.0892 -0.256482 0)
(10.0046 -0.0288175 0)
(10.0303 -0.0475762 0)
(10.0591 -0.0505491 0)
(10.0851 -0.0569062 0)
(10.1119 -0.0664225 0)
(10.1413 -0.0761992 0)
(10.172 -0.0860205 0)
(10.2029 -0.0964898 0)
(10.2334 -0.107962 0)
(10.2635 -0.120699 0)
(10.2933 -0.135096 0)
(10.3227 -0.151561 0)
(10.3519 -0.170219 0)
(10.381 -0.190921 0)
(10.4096 -0.21341 0)
(10.4369 -0.237391 0)
(10.4624 -0.262392 0)
(10.4849 -0.288055 0)
(10.0701 -0.0596079 0)
(10.2333 -0.105635 0)
(10.364 -0.116565 0)
(10.4569 -0.122746 0)
(10.5214 -0.128667 0)
(10.562 -0.133694 0)
(10.58 -0.138448 0)
(10.5774 -0.143732 0)
(10.556 -0.149948 0)
(10.5174 -0.157342 0)
(10.4627 -0.166278 0)
(10.3923 -0.177153 0)
(10.3063 -0.189979 0)
(10.2045 -0.2044 0)
(10.0863 -0.219963 0)
(9.95136 -0.23624 0)
(9.79958 -0.252687 0)
(9.63121 -0.269086 0)
(9.84179 -0.03134 0)
(9.50125 -0.0668426 0)
(9.13235 -0.080745 0)
(8.75254 -0.0873884 0)
(8.38113 -0.0905509 0)
(8.02416 -0.0912119 0)
(7.68022 -0.0905152 0)
(7.34702 -0.0893957 0)
(7.02269 -0.0883933 0)
(6.705 -0.087819 0)
(6.39162 -0.0880008 0)
(6.07859 -0.0892204 0)
(5.76233 -0.0913849 0)
(5.44163 -0.0940889 0)
(5.11603 -0.0968681 0)
(4.7859 -0.0993268 0)
(4.45208 -0.101029 0)
(4.11784 -0.101906 0)
(0.151111 -0.418363 -1.02184e-20)
(0.463331 -0.553973 9.89911e-21)
(0.772263 -0.511014 0)
(1.02665 -0.448257 0)
(1.19966 -0.395828 0)
(1.29864 -0.356517 -1.25021e-20)
(1.31424 -0.314779 0)
(1.23511 -0.254622 0)
(1.07102 -0.169368 0)
(0.816028 -0.0537186 0)
(0.457663 0.0989052 1.7534e-20)
(-0.0140521 0.283112 0)
(-0.592539 0.463611 0)
(-1.25287 0.618479 0)
(-1.97315 0.738589 0)
(-2.72942 0.819896 1.50739e-20)
(-3.49821 0.862287 0)
(-4.25788 0.868305 0)
(-4.98933 0.842147 0)
(-5.67639 0.788913 0)
(-6.30572 0.714068 0)
(-6.86664 0.623108 0)
(-7.35074 0.521386 0)
(-7.75167 0.413954 2.19094e-20)
(-8.06559 0.305698 -2.21906e-20)
(-8.29027 0.201908 2.21871e-20)
(-8.424 0.107715 2.18745e-20)
(-8.46803 0.0263651 0)
(-8.42983 -0.041582 0)
(-8.32625 -0.0991808 -1.84918e-20)
(-8.15987 -0.149825 -1.65854e-20)
(-7.93641 -0.194928 0)
(-7.66107 -0.234997 0)
(-7.33901 -0.270189 -8.68474e-21)
(-6.97553 -0.300549 0)
(-6.57606 -0.326135 0)
(-6.14605 -0.347072 -2.18176e-21)
(-5.6909 -0.363578 0)
(-5.2158 -0.375956 -1.08944e-20)
(-4.72563 -0.384587 -3.1348e-20)
(-4.22482 -0.38991 0)
(-3.71729 -0.392403 0)
(-3.20627 -0.392581 0)
(-2.69465 -0.391077 0)
(-2.18461 -0.388505 0)
(-1.67773 -0.385265 -1.0325e-19)
(-1.17474 -0.38155 -1.18889e-19)
(-0.675187 -0.377693 -1.36349e-19)
(-0.17618 -0.373904 0)
(0.325933 -0.370546 1.40122e-19)
(0.830154 -0.367907 0)
(1.33661 -0.366463 -1.22389e-19)
(1.846 -0.366858 -1.14665e-19)
(2.35875 -0.369979 0)
(2.87514 -0.374924 0)
(3.39269 -0.372877 0)
(3.90283 -0.334722 -8.92974e-20)
(4.37788 -0.207703 0)
(4.74606 0.0389797 0)
(4.88097 0.332081 0)
(4.76274 0.536633 0)
(4.44959 0.576031 0)
(4.01772 0.468173 0)
(3.55703 0.285267 0)
(3.13821 0.103425 0)
(2.79951 -0.0259345 8.8292e-20)
(2.54647 -0.0854454 0)
(2.35842 -0.0857277 0)
(2.2036 -0.0522304 -8.99325e-20)
(2.05884 -0.0132515 -8.94575e-20)
(1.92877 0.00888613 0)
(1.848 0.00112195 8.78272e-20)
(1.86368 -0.0365167 -8.53168e-20)
(2.01487 -0.0819798 0)
(2.28613 -0.102581 8.04763e-20)
(2.6071 -0.0827264 0)
(2.89205 -0.0387023 0)
(3.09688 -0.00502403 -7.48047e-20)
(3.2354 -0.01782 0)
(3.31265 -0.108865 7.2821e-20)
(3.26238 -0.216118 0)
(2.91952 -0.128958 -7.25019e-20)
(2.08473 0.256206 -7.44999e-20)
(0.700066 0.718272 -6.89087e-20)
(-0.99889 0.971935 -9.65484e-20)
(-2.71585 1.03222 5.25047e-20)
(-4.33702 0.978612 0)
(-5.7872 0.864293 0)
(-7.03036 0.724686 0)
(-8.05814 0.581088 -5.48538e-20)
(-8.87724 0.44492 -6.93828e-20)
(-9.50098 0.321539 8.02165e-20)
(-9.94444 0.213321 0)
(-10.2212 0.121666 -9.22207e-20)
(-10.3468 0.046527 -9.37818e-20)
(-10.3341 -0.0136279 -9.18663e-20)
(-10.2226 -0.0629321 0)
(-10.0135 -0.107926 0)
(-9.71249 -0.150365 0)
(-9.32249 -0.190791 -5.69332e-20)
(-8.84612 -0.229233 0)
(-8.28636 -0.265406 0)
(-7.64717 -0.298772 3.1329e-21)
(-6.93415 -0.328579 0)
(-6.15492 -0.353948 0)
(-5.31932 -0.374022 -7.36456e-20)
(-4.43923 -0.388147 0)
(-3.52818 -0.396073 0)
(-2.60168 -0.398362 1.72028e-19)
(-1.67389 -0.395868 2.09545e-19)
(-0.754024 -0.389091 0)
(0.151748 -0.377694 -2.63035e-19)
(1.03545 -0.359704 0)
(1.8888 -0.33976 2.27941e-19)
(2.70013 -0.317323 0)
(3.46347 -0.292653 1.94472e-19)
(4.17448 -0.266462 1.78889e-19)
(4.82874 -0.239118 0)
(5.42234 -0.210848 0)
(5.95194 -0.181875 0)
(6.41475 -0.152577 0)
(6.80887 -0.123229 0)
(7.13316 -0.0933728 0)
(7.38459 -0.0644381 0)
(7.56577 -0.0360936 9.16481e-20)
(7.67619 0.00702905 -8.63239e-20)
(7.65915 0.0704322 0)
(7.50806 0.143876 0)
(7.22857 0.214819 0)
(6.82941 0.273525 0)
(6.32655 0.312521 -1.51344e-19)
(5.74435 0.326262 0)
(5.11448 0.31257 1.53966e-19)
(4.47348 0.274009 -1.55998e-19)
(3.85828 0.217827 0)
(3.30028 0.153954 0)
(2.82124 0.0921579 0)
(2.43122 0.039565 1.65709e-19)
(2.13038 -0.000609103 1.68724e-19)
(1.91324 -0.0281256 0)
(1.76854 -0.0439835 1.75302e-19)
(1.68151 -0.0496175 1.78523e-19)
(1.63558 -0.0470065 -1.81426e-19)
(1.614 -0.0390312 0)
(1.60238 -0.0290617 0)
(1.59088 -0.0201261 -1.87206e-19)
(1.5752 -0.0144126 0)
(1.55582 -0.0125952 0)
(1.53638 -0.0141329 0)
(1.52223 -0.018105 0)
(1.51925 -0.0238827 1.90103e-19)
(1.53053 -0.0312834 1.89948e-19)
(1.55565 -0.0369676 0)
(1.59267 -0.0400751 1.89249e-19)
(1.63833 -0.0410435 0)
(1.68901 -0.0404421 0)
(1.74147 -0.0387784 1.87571e-19)
(1.79308 -0.0364827 0)
(1.84197 -0.0338948 1.86395e-19)
(1.88698 -0.0310898 0)
(1.92703 -0.0275793 0)
(1.96026 -0.0220404 1.85234e-19)
(1.98206 -0.013038 0)
(1.98549 -0.00263219 1.85168e-19)
(1.97375 0.00248574 0)
(1.95839 -0.00301521 0)
(1.96382 -0.0225388 0)
(2.0567 -0.0546877 -1.82671e-19)
(2.30892 -0.0846467 0)
(2.63402 -0.0873833 1.8039e-19)
(2.56947 0.0101903 0)
(1.46733 0.303709 0)
(-0.708024 0.542825 0)
(-2.79064 0.497654 0)
(-4.29759 0.329409 0)
(-5.19057 0.163484 0)
(-5.53055 0.032525 0)
(-5.39078 -0.0678333 6.7335e-20)
(-4.8917 -0.153794 0)
(-4.10981 -0.264545 0)
(0.120382 -1.01371 2.61802e-20)
(0.287559 -1.07543 -2.71555e-20)
(0.381258 -0.878871 0)
(0.395383 -0.630507 2.34746e-20)
(0.288817 -0.311594 0)
(0.043 0.0323605 1.56406e-20)
(-0.311602 0.357299 -2.86011e-20)
(-0.792728 0.680075 -2.62679e-20)
(-1.38551 1.00289 0)
(-2.06372 1.31328 -2.23738e-20)
(-2.79619 1.59406 -9.55069e-21)
(-3.55052 1.82687 0)
(-4.29831 1.99663 0)
(-5.01667 2.09708 0)
(-5.68809 2.12916 0)
(-6.29955 2.09882 -9.43165e-21)
(-6.84271 2.01522 0)
(-7.31357 1.88894 3.00555e-20)
(-7.71178 1.73053 0)
(-8.03984 1.54958 0)
(-8.30212 1.35406 -3.90427e-20)
(-8.50409 1.1502 0)
(-8.65167 0.942632 4.42733e-20)
(-8.75057 0.7347 -2.00069e-20)
(-8.80552 0.529019 2.07895e-20)
(-8.82104 0.328381 -2.12201e-20)
(-8.80156 0.136374 -2.12558e-20)
(-8.74693 -0.0436093 0)
(-8.65193 -0.210247 0)
(-8.50242 -0.363579 1.80043e-20)
(-8.29997 -0.504202 -1.99899e-20)
(-8.0454 -0.631872 0)
(-7.74172 -0.746017 0)
(-7.39327 -0.846094 8.38022e-21)
(-7.00515 -0.931762 0)
(-6.5829 -1.00299 0)
(-6.13222 -1.06009 2.09139e-21)
(-5.65878 -1.10372 0)
(-5.16804 -1.13482 -7.97836e-21)
(-4.66512 -1.15462 2.9849e-20)
(-4.15465 -1.16454 0)
(-3.64066 -1.16622 0)
(-3.12651 -1.16141 1.1551e-19)
(-2.61486 -1.15192 1.37848e-19)
(-2.10772 -1.13956 1.61516e-19)
(-1.60646 -1.12595 -9.06222e-20)
(-1.11172 -1.11249 1.09942e-19)
(-0.623147 -1.10027 3.68445e-19)
(-0.138426 -1.08994 -2.58819e-19)
(0.345054 -1.08183 -1.28464e-19)
(0.827407 -1.07544 0)
(1.3101 -1.07043 1.14542e-19)
(1.79449 -1.06579 -1.03045e-19)
(2.28071 -1.05965 0)
(2.76627 -1.04932 0)
(3.24709 -1.03002 0)
(3.71993 -0.990584 8.67039e-20)
(4.19411 -0.904039 0)
(4.70459 -0.727539 -1.53447e-19)
(5.30753 -0.429023 0)
(5.94263 -0.0374369 -1.34738e-19)
(6.47601 0.358315 0)
(6.80212 0.668047 1.19619e-19)
(6.86379 0.844637 0)
(6.64883 0.88374 -1.16665e-19)
(6.20142 0.813719 5.93539e-20)
(5.60443 0.685906 0)
(4.94904 0.558712 1.32223e-19)
(4.30793 0.465093 6.94322e-20)
(3.72737 0.387671 7.21324e-20)
(3.24312 0.273846 0)
(2.90164 0.0840773 7.53517e-20)
(2.75444 -0.170444 7.58359e-20)
(2.81593 -0.428799 0)
(3.06721 -0.597957 -7.07357e-20)
(3.43243 -0.614138 1.37586e-19)
(3.79579 -0.505266 0)
(4.04886 -0.360681 6.77818e-20)
(4.0829 -0.225069 0)
(3.64218 0.0800516 -2.09997e-19)
(2.39389 0.793646 0)
(0.382786 1.74161 2.08444e-19)
(-1.82925 2.42164 5.38406e-20)
(-3.87127 2.72537 -2.65714e-20)
(-5.59579 2.71046 -2.51656e-20)
(-6.96069 2.48692 1.05802e-21)
(-7.99579 2.15954 0)
(-8.7504 1.80129 0)
(-9.28364 1.4547 0)
(-9.6507 1.13923 1.68604e-19)
(-9.8964 0.859873 6.44916e-20)
(-10.0533 0.614216 -7.71264e-20)
(-10.143 0.397455 0)
(-10.1787 0.205617 -1.05124e-19)
(-10.1632 0.0356943 9.48604e-20)
(-10.0946 -0.115598 9.27486e-20)
(-9.93819 -0.252392 0)
(-9.697 -0.38051 0)
(-9.37018 -0.502214 0)
(-8.95887 -0.618307 5.66564e-20)
(-8.46469 -0.728675 0)
(-7.88993 -0.832453 -5.48925e-20)
(-7.23797 -0.928058 -1.74565e-20)
(-6.51393 -1.01328 -3.07772e-20)
(-5.72512 -1.08552 0)
(-4.88126 -1.14226 -6.31566e-20)
(-3.99437 -1.1816 0)
(-3.07836 -1.20295 -2.54511e-19)
(-2.1481 -1.20746 1.56205e-19)
(-1.21738 -1.1976 1.91152e-19)
(-0.29438 -1.17422 0)
(0.612619 -1.13663 6.74656e-19)
(1.49444 -1.08622 -4.24587e-19)
(2.34251 -1.02926 -2.02734e-19)
(3.15006 -0.96632 0)
(3.91261 -0.898232 -1.77096e-19)
(4.62588 -0.825916 -4.89978e-19)
(5.28563 -0.750033 0)
(5.88804 -0.671222 -2.78161e-19)
(6.4298 -0.590253 -2.56266e-19)
(6.90835 -0.508039 -2.35923e-19)
(7.32172 -0.425508 0)
(7.66881 -0.34319 0)
(7.95188 -0.261986 0)
(8.16887 -0.181091 8.58189e-20)
(8.3238 -0.0921687 8.25114e-20)
(8.47249 0.00610897 0)
(8.61824 0.112169 1.43496e-19)
(8.74698 0.219931 1.35717e-19)
(8.83657 0.325211 0)
(8.86357 0.423135 1.27034e-19)
(8.80877 0.505847 2.41735e-19)
(8.66171 0.564086 -1.20061e-19)
(8.42378 0.5906 -1.14953e-19)
(8.1084 0.582865 0)
(7.73796 0.543944 0)
(7.339 0.481385 0)
(6.93709 0.404964 -1.17574e-19)
(6.55301 0.324187 1.21214e-19)
(6.2005 0.246831 2.4782e-19)
(5.88566 0.178667 -1.27033e-19)
(5.60851 0.123433 1.32389e-19)
(5.36549 0.0828431 1.35309e-19)
(5.15179 0.0565132 0)
(4.96297 0.0421189 0)
(4.79525 0.0360364 -1.45649e-19)
(4.64542 0.0340936 0)
(4.51109 0.0326572 0)
(4.39053 0.0293706 3.02878e-19)
(4.28282 0.0232397 0)
(4.18656 0.014727 1.54622e-19)
(4.09944 0.00463538 -1.55656e-19)
(4.02033 -0.0049219 0)
(3.94767 -0.0126353 1.58347e-19)
(3.87996 -0.0180531 0)
(3.81557 -0.0211331 0)
(3.75287 -0.0220856 -1.6151e-19)
(3.69049 -0.021327 3.2496e-19)
(3.62738 -0.0193439 -1.63476e-19)
(3.56271 -0.0164385 0)
(3.49569 -0.0125801 0)
(3.42546 -0.00745801 1.66354e-19)
(3.35218 -0.000879165 0)
(3.28163 0.00586315 1.68293e-19)
(3.21548 0.00980306 0)
(3.14572 0.00679745 0)
(3.08406 -0.0223824 0)
(3.10379 -0.107376 1.68363e-19)
(3.28016 -0.185261 0)
(3.38176 -0.0221243 -1.7113e-19)
(2.37374 0.622685 0)
(-0.443646 1.39555 0)
(-2.9639 1.49598 1.67275e-19)
(-4.42164 1.1503 -7.33319e-20)
(-5.14246 0.716836 0)
(-5.46246 0.343291 0)
(-5.53401 0.043217 0)
(-5.37663 -0.19943 -2.17607e-19)
(-4.88724 -0.407224 0)
(-4.1376 -0.636593 -3.84292e-20)
(-0.0247019 -1.10112 -9.06663e-21)
(-0.198885 -0.868061 2.61459e-20)
(-0.486229 -0.421952 0)
(-0.866567 0.0864321 -3.19044e-20)
(-1.32631 0.607074 0)
(-1.85797 1.11576 0)
(-2.44886 1.59815 2.31639e-21)
(-3.07693 2.03955 1.65962e-20)
(-3.71622 2.42316 1.67249e-20)
(-4.34119 2.73409 1.55295e-20)
(-4.9288 2.96148 0)
(-5.46228 3.09982 0)
(-5.93324 3.1494 -2.30032e-20)
(-6.34141 3.11647 -5.08247e-20)
(-6.6929 3.01234 5.62578e-20)
(-6.99805 2.85124 0)
(-7.26892 2.64819 6.85317e-20)
(-7.51695 2.41701 -2.88578e-20)
(-7.75098 2.169 0)
(-7.97601 1.91232 8.78975e-20)
(-8.19269 1.65211 3.86926e-20)
(-8.39758 1.39101 -9.90433e-20)
(-8.58391 1.12997 -4.39504e-20)
(-8.74276 0.86911 0)
(-8.86422 0.608263 1.09231e-19)
(-8.93798 0.347226 1.10204e-19)
(-8.95548 0.0863581 0)
(-8.91223 -0.172538 1.05074e-19)
(-8.80645 -0.426706 0)
(-8.63892 -0.670863 9.16143e-20)
(-8.41225 -0.899922 3.50571e-20)
(-8.12986 -1.11011 0)
(-7.79622 -1.29865 0)
(-7.41667 -1.46359 0)
(-6.99718 -1.60387 0)
(-6.5441 -1.7192 0)
(-6.06384 -1.81005 0)
(-5.56273 -1.87753 -1.04444e-20)
(-5.04679 -1.92327 4.51572e-20)
(-4.52163 -1.94935 0)
(-3.99232 -1.95822 0)
(-3.46328 -1.95262 0)
(-2.93818 -1.93552 -7.37133e-21)
(-2.41988 -1.91003 -1.3213e-19)
(-1.9105 -1.87927 -3.01181e-19)
(-1.41146 -1.84626 3.48052e-19)
(-0.923392 -1.81392 1.94381e-19)
(-0.445632 -1.78475 -2.29752e-19)
(0.023593 -1.76036 9.65239e-21)
(0.485396 -1.74126 -2.1867e-19)
(0.940435 -1.72709 0)
(1.39099 -1.71761 -1.99865e-19)
(1.83974 -1.71125 7.45232e-21)
(2.28919 -1.70433 0)
(2.74125 -1.69044 0)
(3.19637 -1.66007 1.65412e-19)
(3.65263 -1.60251 0)
(4.106 -1.50931 0)
(4.55446 -1.37469 -1.399e-19)
(5.01095 -1.18493 -2.772e-19)
(5.5064 -0.914111 1.36796e-19)
(6.07592 -0.531432 0)
(6.68394 -0.0437159 -1.20086e-19)
(7.20082 0.472142 0)
(7.4966 0.918702 -9.65886e-20)
(7.49657 1.22807 -1.02874e-19)
(7.20066 1.38104 2.00793e-19)
(6.67442 1.40101 1.00755e-19)
(6.02125 1.32734 0)
(5.34921 1.17987 -2.2916e-19)
(4.74293 0.937959 0)
(4.25795 0.561124 -3.86417e-19)
(3.93562 0.0481099 -2.66169e-19)
(3.81967 -0.496267 -2.58904e-19)
(3.90248 -0.894461 2.54988e-19)
(4.09225 -0.997106 -3.83177e-19)
(4.21672 -0.788182 0)
(4.0414 -0.316749 0)
(3.15736 0.563976 2.82251e-19)
(1.34027 1.92035 4.12896e-19)
(-0.961473 3.24877 0)
(-3.08376 4.08616 -8.96552e-20)
(-4.76462 4.38628 0)
(-5.97682 4.26691 1.18152e-19)
(-6.80088 3.87069 4.66909e-20)
(-7.35927 3.3339 -4.51126e-20)
(-7.7687 2.76766 4.88865e-20)
(-8.11062 2.23873 0)
(-8.42599 1.77503 -1.19488e-19)
(-8.72374 1.3787 2.54198e-20)
(-8.99442 1.03934 0)
(-9.22148 0.743059 0)
(-9.38829 0.476936 0)
(-9.48215 0.230886 2.0633e-19)
(-9.49564 -0.00172164 0)
(-9.42578 -0.225026 0)
(-9.27316 -0.440144 0)
(-9.03854 -0.646339 0)
(-8.72198 -0.844285 0)
(-8.32382 -1.03425 1.35722e-19)
(-7.84474 -1.2157 0)
(-7.28595 -1.38707 5.4781e-20)
(-6.64976 -1.54559 1.42679e-20)
(-5.94033 -1.68737 3.03573e-20)
(-5.16433 -1.80772 0)
(-4.33141 -1.90206 1.31108e-19)
(-3.4542 -1.96694 0)
(-2.54776 -2.00129 2.45994e-19)
(-1.6281 -2.00691 -3.08481e-19)
(-0.7084 -1.9873 -1.09492e-18)
(0.202225 -1.94317 0)
(1.09332 -1.87638 -1.15618e-18)
(1.95665 -1.79406 -3.60199e-19)
(2.78497 -1.70035 0)
(3.57335 -1.59705 -6.71017e-19)
(4.31759 -1.48554 -6.33217e-19)
(5.01353 -1.36696 8.96371e-19)
(5.65698 -1.24227 0)
(6.24396 -1.11258 2.62228e-19)
(6.77096 -0.979203 2.43213e-19)
(7.23512 -0.843678 6.68718e-19)
(7.6345 -0.707653 0)
(7.9682 -0.572971 0)
(8.23672 -0.440612 0)
(8.44228 -0.311118 1.63357e-19)
(8.58568 -0.189651 0)
(8.67107 -0.0788128 0)
(8.71204 0.0274828 -1.43521e-19)
(8.72627 0.133423 -1.36357e-19)
(8.73431 0.241493 0)
(8.75066 0.351187 0)
(8.77848 0.45736 -2.40878e-19)
(8.80881 0.55085 0)
(8.82441 0.62114 2.2522e-19)
(8.80648 0.659847 2.16784e-19)
(8.74129 0.663564 0)
(8.62382 0.634728 0)
(8.45758 0.580445 -2.13796e-19)
(8.25199 0.510226 1.56654e-21)
(8.01887 0.433946 1.82022e-21)
(7.76986 0.360469 0)
(7.51501 0.296544 -4.64076e-19)
(7.26233 0.245923 0)
(7.0177 0.209077 0)
(6.78502 0.183707 0)
(6.56634 0.165921 2.57103e-19)
(6.36224 0.151694 0)
(6.17227 0.137892 -5.33516e-19)
(5.99531 0.122673 -2.70481e-19)
(5.82978 0.105533 0)
(5.67389 0.0871883 -2.7809e-19)
(5.52601 0.0696301 0)
(5.38493 0.0544409 0)
(5.24945 0.0427368 -8.6803e-19)
(5.11837 0.0349216 5.85545e-19)
(4.9903 0.030819 0)
(4.86374 0.0298868 5.9807e-19)
(4.73715 0.031379 -3.02151e-19)
(4.60901 0.0345345 0)
(4.4779 0.0388235 0)
(4.34277 0.0442081 0)
(4.20337 0.0510586 -9.42445e-19)
(4.06073 0.0588395 0)
(3.91716 0.0653643 -3.20564e-19)
(3.77167 0.0697106 0)
(3.61686 0.0654636 0)
(3.47964 0.0098253 0)
(3.45749 -0.13853 0)
(3.51822 -0.174643 0)
(3.06355 0.421311 0)
(0.892267 1.73383 -5.62129e-19)
(-1.93229 2.51936 0)
(-3.42308 2.23539 -1.51755e-19)
(-4.21118 1.56737 1.58581e-19)
(-4.80221 0.954953 0)
(-5.22305 0.457388 0)
(-5.38257 0.0340991 2.06773e-19)
(-5.2346 -0.339203 1.49555e-19)
(-4.78441 -0.675297 -1.01585e-19)
(-4.08859 -0.987686 3.67396e-20)
(-0.199314 -0.437097 -1.74867e-21)
(-0.692997 0.00364383 -5.41838e-21)
(-1.22942 0.591498 -2.4646e-21)
(-1.80583 1.20154 1.79858e-21)
(-2.40697 1.79375 0)
(-3.00889 2.34155 1.8066e-20)
(-3.59186 2.82236 -1.08334e-20)
(-4.13627 3.21681 0)
(-4.62766 3.51299 -1.44211e-20)
(-5.05854 3.7075 0)
(-5.42945 3.80488 4.45308e-20)
(-5.74858 3.81605 0)
(-6.02998 3.75593 2.21937e-20)
(-6.29061 3.64107 4.9775e-20)
(-6.54701 3.48705 -5.55862e-20)
(-6.81227 3.30618 0)
(-7.09375 3.10623 -6.78633e-20)
(-7.39231 2.89025 0)
(-7.70275 2.65765 0)
(-8.01525 2.40583 -8.56883e-20)
(-8.31727 2.13191 0)
(-8.59544 1.8341 -2.02788e-20)
(-8.83711 1.51249 0)
(-9.03128 1.16936 0)
(-9.16913 0.809077 2.15642e-20)
(-9.24418 0.437602 -1.07389e-19)
(-9.25261 0.0614619 -1.28544e-19)
(-9.19253 -0.312526 -1.02011e-19)
(-9.06432 -0.676868 0)
(-8.86915 -1.02502 -1.96054e-19)
(-8.61013 -1.35073 0)
(-8.29172 -1.64863 -8.70777e-20)
(-7.9196 -1.91446 0)
(-7.50033 -2.14528 0)
(-7.04097 -2.33951 4.81462e-20)
(-6.54883 -2.49688 0)
(-6.03114 -2.61827 -1.78126e-20)
(-5.49485 -2.7055 1.15576e-20)
(-4.94653 -2.76112 -4.17789e-20)
(-4.39227 -2.78825 6.60107e-20)
(-3.83757 -2.79051 0)
(-3.28723 -2.7719 0)
(-2.7452 -2.73671 7.96432e-20)
(-2.21454 -2.68937 0)
(-1.6974 -2.63429 1.41007e-19)
(-1.19518 -2.57577 -1.6319e-19)
(-0.708412 -2.51792 -1.86452e-19)
(-0.23569 -2.46416 0)
(0.224123 -2.41721 2.06329e-19)
(0.671104 -2.3779 1.99688e-19)
(1.10659 -2.34708 -3.65676e-19)
(1.53312 -2.32493 1.85996e-19)
(1.95373 -2.31031 1.78993e-19)
(2.37185 -2.30011 0)
(2.79142 -2.28832 0)
(3.21697 -2.26482 -1.57863e-19)
(3.65339 -2.21437 0)
(4.10408 -2.11824 0)
(4.56738 -1.96056 2.7711e-19)
(5.03357 -1.73814 2.66069e-19)
(5.48811 -1.46364 0)
(5.92718 -1.14173 0)
(6.37469 -0.734453 0)
(6.86156 -0.183459 0)
(7.33511 0.485202 2.02291e-19)
(7.66287 1.14583 -1.78365e-19)
(7.73875 1.66753 -1.85003e-19)
(7.53629 1.97765 -3.61091e-19)
(7.10798 2.06557 0)
(6.55065 1.94919 5.00366e-21)
(5.96252 1.63956 0)
(5.41901 1.13147 2.23111e-19)
(4.97195 0.434311 -5.00489e-21)
(4.66341 -0.337493 2.42298e-19)
(4.49684 -0.903721 -2.44838e-19)
(4.34717 -0.959268 -5.23362e-21)
(3.94611 -0.375375 0)
(2.8421 0.928428 -2.83717e-19)
(0.84731 2.78902 -2.57811e-19)
(-1.41419 4.45378 -3.82161e-19)
(-3.28519 5.43609 0)
(-4.60264 5.73811 8.6545e-20)
(-5.43767 5.52793 0)
(-5.94325 5.01256 -7.89887e-20)
(-6.28351 4.36711 2.65338e-20)
(-6.58181 3.71329 1.16691e-20)
(-6.89958 3.11379 -5.05042e-20)