/*--------------------------------*- C++ -*----------------------------------*\
| =========                 |                                                 |
| \\      /  F ield         | OpenFOAM: The Open Source CFD Toolbox           |
|  \\    /   O peration     | Version:  2112                                  |
|   \\  /    A nd           | Website:  www.openfoam.com                      |
|    \\/     M anipulation  |                                                 |
\*---------------------------------------------------------------------------*/
FoamFile
{
    version     2.0;
    format      ascii;
    arch        "LSB;label=32;scalar=64";
    class       surfaceScalarField;
    location    "0.09";
    object      ddtCorrDdt0(phi);
}
// * * * * * * * * * * * * * * * * * * * * * * * * * * * * * * * * * * * * * //

dimensions      [0 3 -2 0 0 0 0];

oriented        oriented;

internalField   nonuniform List<scalar> 
24170
(
5.82868e-10
-5.8286e-10
1.96739e-09
-1.38451e-09
4.21743e-09
-2.25002e-09
7.34715e-09
-3.12971e-09
1.13236e-08
-3.97647e-09
1.60254e-08
-4.70178e-09
2.12652e-08
-5.23976e-09
2.68226e-08
-5.55735e-09
3.24993e-08
-5.67677e-09
3.81951e-08
-5.6958e-09
4.38195e-08
-5.62434e-09
4.94688e-08
-5.64925e-09
5.57439e-08
-6.27517e-09
6.20531e-08
-6.30921e-09
7.1318e-08
-9.26482e-09
8.52998e-08
-1.39818e-08
1.0381e-07
-1.851e-08
-3.51025e-08
1.38912e-07
-8.23235e-11
-5.00528e-10
1.17849e-10
-1.58467e-09
6.68908e-10
-2.80106e-09
1.70723e-09
-4.16801e-09
3.36332e-09
-5.63255e-09
5.75415e-09
-7.09259e-09
8.98921e-09
-8.4748e-09
1.31641e-08
-9.73227e-09
1.83495e-08
-1.08621e-08
2.45722e-08
-1.19185e-08
3.19194e-08
-1.29715e-08
4.05518e-08
-1.42817e-08
5.05019e-08
-1.62252e-08
6.27209e-08
-1.85282e-08
7.55446e-08
-2.20885e-08
8.88766e-08
-2.73138e-08
1.05443e-07
-3.50768e-08
-5.50431e-08
1.25384e-07
1.76663e-10
-6.77181e-10
6.4411e-10
-2.0521e-09
1.30708e-09
-3.46401e-09
2.11486e-09
-4.97578e-09
3.06443e-09
-6.58212e-09
4.21671e-09
-8.24485e-09
5.68014e-09
-9.93822e-09
7.60025e-09
-1.16524e-08
1.01594e-08
-1.34212e-08
1.35615e-08
-1.53206e-08
1.80625e-08
-1.74725e-08
2.38426e-08
-2.00618e-08
3.108e-08
-2.34625e-08
4.03853e-08
-2.78335e-08
5.20659e-08
-3.37692e-08
6.68035e-08
-4.20514e-08
8.47194e-08
-5.29926e-08
-6.74862e-08
9.71624e-08
2.30148e-10
-9.07319e-10
8.65928e-10
-2.68786e-09
1.86174e-09
-4.4598e-09
3.17828e-09
-6.2923e-09
4.78664e-09
-8.19047e-09
6.67655e-09
-1.01347e-08
8.85551e-09
-1.21172e-08
1.1351e-08
-1.41479e-08
1.42085e-08
-1.62787e-08
1.74869e-08
-1.8599e-08
2.12584e-08
-2.1244e-08
2.56108e-08
-2.44142e-08
3.06057e-08
-2.84574e-08
3.63781e-08
-3.36059e-08
4.29431e-08
-4.03342e-08
5.01692e-08
-4.92775e-08
5.79705e-08
-6.07939e-08
-7.65515e-08
6.70358e-08
2.37937e-10
-1.14525e-09
9.07447e-10
-3.35735e-09
1.97632e-09
-5.52866e-09
3.42365e-09
-7.73961e-09
5.24263e-09
-1.00094e-08
7.44291e-09
-1.2335e-08
1.00486e-08
-1.47229e-08
1.30986e-08
-1.71978e-08
1.6639e-08
-1.9819e-08
2.07225e-08
-2.26825e-08
2.5406e-08
-2.59275e-08
3.0738e-08
-2.97462e-08
3.66935e-08
-3.44129e-08
4.32543e-08
-4.01668e-08
5.02791e-08
-4.7359e-08
5.74809e-08
-5.64792e-08
6.44687e-08
-6.77818e-08
-8.21712e-08
7.00885e-08
2.45946e-10
-1.39118e-09
9.45082e-10
-4.05647e-09
2.06123e-09
-6.6448e-09
3.57465e-09
-9.25302e-09
5.48222e-09
-1.1917e-08
7.79766e-09
-1.46504e-08
1.05496e-08
-1.74748e-08
1.37798e-08
-2.0428e-08
1.75364e-08
-2.35756e-08
2.18704e-08
-2.70166e-08
2.68295e-08
-3.08866e-08
3.2444e-08
-3.53607e-08
3.86961e-08
-4.06649e-08
4.55544e-08
-4.70251e-08
5.28933e-08
-5.46979e-08
6.04179e-08
-6.40039e-08
6.76149e-08
-7.49787e-08
-8.78253e-08
7.32689e-08
2.54346e-10
-1.64551e-09
9.81377e-10
-4.78349e-09
2.14313e-09
-7.80654e-09
3.71989e-09
-1.08298e-08
5.70881e-09
-1.39059e-08
8.12268e-09
-1.70643e-08
1.09878e-08
-2.034e-08
1.43417e-08
-2.37818e-08
1.82267e-08
-2.74606e-08
2.26848e-08
-3.14746e-08
2.77494e-08
-3.59512e-08
3.34345e-08
-4.10458e-08
3.97118e-08
-4.69422e-08
4.65099e-08
-5.38232e-08
5.36687e-08
-6.18567e-08
6.08636e-08
-7.11988e-08
6.76628e-08
-8.17779e-08
-9.34913e-08
7.33289e-08
2.61911e-10
-1.90741e-09
1.01324e-09
-5.5348e-09
2.21608e-09
-9.00937e-09
3.85077e-09
-1.24644e-08
5.91408e-09
-1.59692e-08
8.41699e-09
-1.95672e-08
1.13819e-08
-2.33049e-08
1.48397e-08
-2.72396e-08
1.88239e-08
-3.14448e-08
2.33637e-08
-3.60144e-08
2.84755e-08
-4.1063e-08
3.41513e-08
-4.67216e-08
4.03403e-08
-5.31312e-08
4.69375e-08
-6.04204e-08
5.37603e-08
-6.86795e-08
6.05098e-08
-7.79483e-08
6.6817e-08
-8.80851e-08
-9.88463e-08
7.2172e-08
2.68121e-10
-2.17552e-09
1.03893e-09
-6.30559e-09
2.27483e-09
-1.02453e-08
3.95577e-09
-1.41453e-08
6.07751e-09
-1.80909e-08
8.6486e-09
-2.21383e-08
1.1687e-08
-2.63432e-08
1.52162e-08
-3.07688e-08
1.92595e-08
-3.54881e-08
2.38326e-08
-4.05875e-08
2.89347e-08
-4.6165e-08
3.45374e-08
-5.23243e-08
4.05708e-08
-5.91646e-08
4.69126e-08
-6.67622e-08
5.33777e-08
-7.51446e-08
5.97027e-08
-8.42733e-08
6.55867e-08
-9.3969e-08
-1.0396e-07
7.07005e-08
2.72271e-10
-2.44778e-09
1.05583e-09
-7.08913e-09
2.31333e-09
-1.15027e-08
4.02419e-09
-1.58562e-08
6.1825e-09
-2.02492e-08
8.79365e-09
-2.47494e-08
1.18702e-08
-2.94197e-08
1.54274e-08
-3.43259e-08
1.94775e-08
-3.95383e-08
2.40226e-08
-4.51327e-08
2.90458e-08
-5.11882e-08
3.45017e-08
-5.77802e-08
4.03065e-08
-6.49693e-08
4.63306e-08
-7.27863e-08
5.23964e-08
-8.12104e-08
5.82788e-08
-9.01558e-08
6.37423e-08
-9.94324e-08
-1.08786e-07
6.85684e-08
2.73506e-10
-2.72128e-09
1.06066e-09
-7.87627e-09
2.32453e-09
-1.27666e-08
4.04387e-09
-1.75755e-08
6.21042e-09
-2.24157e-08
8.82549e-09
-2.73645e-08
1.18954e-08
-3.24896e-08
1.54264e-08
-3.7857e-08
1.94197e-08
-4.35315e-08
2.38639e-08
-4.95769e-08
2.87282e-08
-5.60524e-08
3.3954e-08
-6.3006e-08
3.94495e-08
-7.04648e-08
4.50858e-08
-7.84226e-08
5.07012e-08
-8.68258e-08
5.61104e-08
-9.55649e-08
6.11356e-08
-1.04458e-07
-1.13287e-07
6.56364e-08
2.2945e-10
-2.95071e-09
8.88181e-10
-8.53498e-09
1.94607e-09
-1.38245e-08
3.38441e-09
-1.90138e-08
5.19392e-09
-2.42252e-08
7.37213e-09
-2.95427e-08
9.91915e-09
-3.50366e-08
1.28332e-08
-4.07711e-08
1.61068e-08
-4.6805e-08
1.97212e-08
-5.31913e-08
2.36415e-08
-5.99727e-08
2.78114e-08
-6.71759e-08
3.2151e-08
-7.48043e-08
3.65567e-08
-8.28283e-08
4.09072e-08
-9.11763e-08
4.5074e-08
-9.97317e-08
4.89423e-08
-1.08326e-07
-1.16775e-07
5.243e-08
2.5647e-10
-3.20717e-09
9.92601e-10
-9.2711e-09
2.17376e-09
-1.50056e-08
3.77765e-09
-2.06177e-08
5.79108e-09
-2.62387e-08
8.20695e-09
-3.19585e-08
1.10192e-08
-3.78488e-08
1.42176e-08
-4.39695e-08
1.77846e-08
-5.0372e-08
2.16898e-08
-5.70966e-08
2.58854e-08
-6.41682e-08
3.03021e-08
-7.15927e-08
3.48495e-08
-7.93517e-08
3.94182e-08
-8.7397e-08
4.3888e-08
-9.56461e-08
4.81403e-08
-1.03984e-07
5.20758e-08
-1.12261e-07
-1.20332e-07
5.56333e-08
2.76284e-10
-3.48344e-09
1.06829e-09
-1.00631e-08
2.33778e-09
-1.62751e-08
4.05804e-09
-2.2338e-08
6.21047e-09
-2.83911e-08
8.78181e-09
-3.45299e-08
1.1757e-08
-4.0824e-08
1.51139e-08
-4.73264e-08
1.88224e-08
-5.40804e-08
2.28393e-08
-6.11134e-08
2.71036e-08
-6.84325e-08
3.15353e-08
-7.60244e-08
3.60374e-08
-8.38537e-08
4.05005e-08
-9.18601e-08
4.48125e-08
-9.9958e-08
4.88701e-08
-1.08042e-07
5.25924e-08
-1.15984e-07
-1.23678e-07
5.59383e-08
2.79614e-10
-3.76304e-09
1.07975e-09
-1.08632e-08
2.36019e-09
-1.75555e-08
4.08912e-09
-2.40669e-08
6.24052e-09
-3.05424e-08
8.7955e-09
-3.70848e-08
1.1728e-08
-4.37565e-08
1.49999e-08
-5.05982e-08
1.85678e-08
-5.76483e-08
2.23756e-08
-6.49213e-08
2.63516e-08
-7.24084e-08
3.0409e-08
-8.00818e-08
3.44503e-08
-8.7895e-08
3.83732e-08
-9.5783e-08
4.20792e-08
-1.03664e-07
4.54847e-08
-1.11447e-07
4.85263e-08
-1.19025e-07
-1.26333e-07
5.11808e-08
2.49329e-10
-4.01235e-09
9.70163e-10
-1.1584e-08
2.11963e-09
-1.87049e-08
3.66159e-09
-2.56088e-08
5.56016e-09
-3.2441e-08
7.79347e-09
-3.93181e-08
1.03168e-08
-4.62799e-08
1.30791e-08
-5.33605e-08
1.60291e-08
-6.05982e-08
1.91002e-08
-6.79924e-08
2.22132e-08
-7.55215e-08
2.52812e-08
-8.31498e-08
2.82131e-08
-9.08269e-08
3.09194e-08
-9.84892e-08
3.33178e-08
-1.06062e-07
3.53417e-08
-1.13471e-07
3.69439e-08
-1.20627e-07
-1.27539e-07
3.81508e-08
1.42206e-10
-4.15454e-09
6.23837e-10
-1.20656e-08
1.38831e-09
-1.94694e-08
2.39326e-09
-2.66137e-08
3.60733e-09
-3.3655e-08
5.0705e-09
-4.07813e-08
6.60385e-09
-4.78132e-08
8.18725e-09
-5.49439e-08
9.77366e-09
-6.21846e-08
1.12915e-08
-6.95102e-08
1.2663e-08
-7.6893e-08
1.38098e-08
-8.42965e-08
1.46562e-08
-9.16732e-08
1.51346e-08
-9.89676e-08
1.51922e-08
-1.0612e-07
1.47871e-08
-1.13066e-07
1.36772e-08
-1.19517e-07
-1.26112e-07
1.22497e-08
-4.58408e-11
-4.10868e-09
-3.05365e-11
-1.20809e-08
-1.29561e-11
-1.94869e-08
-5.85396e-11
-2.65681e-08
-4.40816e-10
-3.32727e-08
-3.73542e-10
-4.08485e-08
-7.44029e-10
-4.74427e-08
-1.30422e-09
-5.43837e-08
-2.15371e-09
-6.1335e-08
-3.36546e-09
-6.82984e-08
-5.00131e-09
-7.52571e-08
-7.12409e-09
-8.21737e-08
-9.79381e-09
-8.90035e-08
-1.30614e-08
-9.57e-08
-1.69662e-08
-1.02215e-07
-2.15257e-08
-1.08506e-07
-2.65238e-08
-1.14519e-07
-1.20295e-07
-3.2341e-08
-2.01121e-10
-3.90753e-09
-9.6482e-10
-1.13172e-08
-2.23083e-09
-1.82209e-08
-3.96723e-09
-2.48317e-08
-5.95417e-09
-3.12858e-08
-9.08381e-09
-3.77188e-08
-1.25369e-08
-4.39896e-08
-1.66695e-08
-5.02511e-08
-2.15e-08
-5.65045e-08
-2.70757e-08
-6.27227e-08
-3.34518e-08
-6.88809e-08
-4.06739e-08
-7.49517e-08
-4.87746e-08
-8.09028e-08
-5.77745e-08
-8.67001e-08
-6.76812e-08
-9.23084e-08
-7.84888e-08
-9.76987e-08
-9.01823e-08
-1.02826e-07
-1.07723e-07
-1.02754e-07
-3.52535e-10
-3.55496e-09
-1.42262e-09
-1.02471e-08
-3.15675e-09
-1.64868e-08
-5.53138e-09
-2.2457e-08
-8.5537e-09
-2.82634e-08
-1.22912e-08
-3.39813e-08
-1.665e-08
-3.96307e-08
-2.16808e-08
-4.52203e-08
-2.74216e-08
-5.07636e-08
-3.38948e-08
-5.62495e-08
-4.1119e-08
-6.16567e-08
-4.9109e-08
-6.69617e-08
-5.78732e-08
-7.21385e-08
-6.74126e-08
-7.71607e-08
-7.77194e-08
-8.20016e-08
-8.87782e-08
-8.66399e-08
-1.00563e-07
-9.10406e-08
-9.5239e-08
-1.13048e-07
-4.33732e-10
-3.12121e-09
-1.67732e-09
-9.00346e-09
-3.67908e-09
-1.4485e-08
-6.40713e-09
-1.9729e-08
-9.84385e-09
-2.48267e-08
-1.39922e-08
-2.98329e-08
-1.8852e-08
-3.47709e-08
-2.44275e-08
-3.96449e-08
-3.07319e-08
-4.44591e-08
-3.7776e-08
-4.92053e-08
-4.55669e-08
-5.38658e-08
-5.41087e-08
-5.84199e-08
-6.34005e-08
-6.28467e-08
-7.3435e-08
-6.71262e-08
-8.41978e-08
-7.12387e-08
-9.56675e-08
-7.51702e-08
-1.07814e-07
-7.88942e-08
-8.24464e-08
-1.20606e-07
-4.49347e-10
-2.67184e-09
-1.73515e-09
-7.71763e-09
-3.79953e-09
-1.24206e-08
-6.60328e-09
-1.69252e-08
-1.0122e-08
-2.13079e-08
-1.43457e-08
-2.56092e-08
-1.92694e-08
-2.98471e-08
-2.48886e-08
-3.40256e-08
-3.12059e-08
-3.81419e-08
-3.82257e-08
-4.21854e-08
-4.59512e-08
-4.61403e-08
-5.43825e-08
-4.99885e-08
-6.3516e-08
-5.37132e-08
-7.33433e-08
-5.72989e-08
-8.385e-08
-6.0732e-08
-9.50168e-08
-6.40034e-08
-1.06818e-07
-6.70931e-08
-7.00337e-08
-1.19231e-07
-4.37659e-10
-2.23416e-09
-1.69237e-09
-6.46289e-09
-3.70206e-09
-1.04108e-08
-6.42505e-09
-1.42022e-08
-9.8335e-09
-1.78994e-08
-1.39093e-08
-2.15333e-08
-1.86409e-08
-2.51156e-08
-2.40206e-08
-2.86459e-08
-3.00459e-08
-3.21165e-08
-3.67168e-08
-3.55146e-08
-4.4033e-08
-3.8824e-08
-5.19929e-08
-4.20286e-08
-6.05924e-08
-4.51136e-08
-6.98237e-08
-4.80677e-08
-7.96731e-08
-5.08825e-08
-9.01206e-08
-5.35559e-08
-1.01135e-07
-5.60789e-08
-5.84848e-08
-1.12684e-07
-4.12667e-10
-1.82147e-09
-1.59585e-09
-5.27969e-09
-3.48442e-09
-8.52225e-09
-6.03399e-09
-1.16526e-08
-9.21571e-09
-1.47177e-08
-1.30103e-08
-1.77387e-08
-1.74043e-08
-2.07216e-08
-2.23877e-08
-2.36625e-08
-2.79547e-08
-2.65495e-08
-3.41027e-08
-2.93665e-08
-4.08301e-08
-3.20966e-08
-4.81352e-08
-3.47235e-08
-5.60158e-08
-3.7233e-08
-6.44679e-08
-3.96156e-08
-7.34841e-08
-4.18663e-08
-8.30532e-08
-4.39867e-08
-9.31613e-08
-4.59708e-08
-4.78521e-08
-1.03794e-07
-3.79537e-10
-1.44192e-09
-1.47138e-09
-4.18783e-09
-3.21427e-09
-6.77933e-09
-5.5613e-09
-9.30551e-09
-8.47843e-09
-1.18005e-08
-1.19466e-08
-1.42705e-08
-1.59512e-08
-1.6717e-08
-2.04811e-08
-1.91326e-08
-2.55294e-08
-2.15011e-08
-3.10924e-08
-2.38035e-08
-3.71676e-08
-2.60214e-08
-4.37537e-08
-2.81374e-08
-5.08496e-08
-3.01371e-08
-5.84527e-08
-3.20124e-08
-6.65548e-08
-3.37642e-08
-7.51415e-08
-3.53999e-08
-8.41873e-08
-3.6925e-08
-3.83518e-08
-9.36876e-08
-3.44532e-10
-1.09737e-09
-1.32701e-09
-3.20533e-09
-2.90235e-09
-5.20397e-09
-5.02928e-09
-7.17856e-09
-7.67323e-09
-9.15655e-09
-1.08133e-08
-1.11303e-08
-1.44327e-08
-1.30976e-08
-1.85185e-08
-1.50469e-08
-2.30612e-08
-1.69584e-08
-2.80543e-08
-1.88104e-08
-3.34925e-08
-2.05833e-08
-3.93732e-08
-2.22566e-08
-4.56972e-08
-2.38131e-08
-5.24639e-08
-2.52457e-08
-5.96713e-08
-2.65569e-08
-6.73148e-08
-2.77564e-08
-7.53771e-08
-2.88627e-08
-2.99352e-08
-8.37936e-08
-3.24303e-10
-7.73055e-10
-1.21708e-09
-2.31253e-09
-2.63126e-09
-3.78978e-09
-4.52446e-09
-5.28534e-09
-6.86e-09
-6.82099e-09
-9.60506e-09
-8.38526e-09
-1.27287e-08
-9.97394e-09
-1.62055e-08
-1.157e-08
-2.00128e-08
-1.31511e-08
-2.41301e-08
-1.4693e-08
-2.85397e-08
-1.61736e-08
-3.32304e-08
-1.75659e-08
-3.81962e-08
-1.88472e-08
-4.34355e-08
-2.00064e-08
-4.89485e-08
-2.10438e-08
-5.47297e-08
-2.19752e-08
-6.07915e-08
-2.28008e-08
-2.35131e-08
-6.72137e-08
-2.58028e-10
-5.15008e-10
-9.584e-10
-1.61214e-09
-2.01049e-09
-2.73767e-09
-3.3339e-09
-3.9619e-09
-4.87961e-09
-5.27525e-09
-6.61312e-09
-6.65172e-09
-8.5029e-09
-8.08414e-09
-1.05432e-08
-9.52969e-09
-1.27396e-08
-1.09547e-08
-1.51099e-08
-1.23227e-08
-1.76943e-08
-1.35892e-08
-2.05522e-08
-1.4708e-08
-2.37562e-08
-1.56432e-08
-2.73853e-08
-1.63774e-08
-3.15155e-08
-1.69135e-08
-3.62138e-08
-1.72769e-08
-4.15005e-08
-1.75141e-08
-1.77098e-08
-4.73038e-08
9.80499e-11
-6.13036e-10
-5.69394e-11
-1.45712e-09
-4.6246e-10
-2.33212e-09
-1.18328e-09
-3.24105e-09
-2.28937e-09
-4.16914e-09
-3.85683e-09
-5.08424e-09
-5.96132e-09
-5.97963e-09
-8.68453e-09
-6.80646e-09
-1.21051e-08
-7.53404e-09
-1.62914e-08
-8.13634e-09
-2.12992e-08
-8.58142e-09
-2.71622e-08
-8.84499e-09
-3.38902e-08
-8.91512e-09
-4.14698e-08
-8.79782e-09
-4.98671e-08
-8.51612e-09
-5.90314e-08
-8.11259e-09
-6.89269e-08
-7.61855e-09
-7.10756e-09
-7.95291e-08
-6.13034e-10
-2.07015e-09
-4.40227e-09
-7.64332e-09
-1.18125e-08
-1.68967e-08
-2.28763e-08
-2.96828e-08
-3.72168e-08
-4.53532e-08
-5.39346e-08
-6.27796e-08
-7.16947e-08
-8.04925e-08
-8.90086e-08
-9.71212e-08
-1.0474e-07
-1.11847e-07
-1.50677e-07
1.50677e-07
-3.62679e-07
2.12001e-07
-6.10626e-07
2.47947e-07
-8.84376e-07
2.7375e-07
-1.17659e-06
2.92217e-07
-1.47995e-06
3.03356e-07
-1.78547e-06
3.05524e-07
-2.08506e-06
2.99592e-07
-2.38116e-06
2.961e-07
-2.54303e-06
1.61864e-07
-2.44527e-06
-9.7761e-08
-2.27128e-06
-1.73987e-07
-2.29139e-06
2.01085e-08
-2.55357e-06
2.62185e-07
-2.93015e-06
3.76576e-07
-3.29877e-06
3.68617e-07
-3.60407e-06
3.05306e-07
-3.83841e-06
2.3434e-07
-4.01485e-06
1.76439e-07
-4.1502e-06
1.35349e-07
-4.25633e-06
1.06124e-07
-4.34366e-06
8.73361e-08
-4.42016e-06
7.6497e-08
-4.49102e-06
7.08615e-08
-4.55878e-06
6.7758e-08
-4.62352e-06
6.47463e-08
-4.68323e-06
5.97039e-08
-4.7341e-06
5.08727e-08
-4.77098e-06
3.68773e-08
-4.78772e-06
1.6745e-08
-4.77764e-06
-1.00798e-08
-4.73388e-06
-4.37601e-08
-4.64975e-06
-8.41359e-08
-4.51893e-06
-1.30815e-07
-4.33565e-06
-1.83287e-07
-4.09459e-06
-2.41054e-07
-3.79091e-06
-3.03683e-07
-3.42016e-06
-3.70749e-07
-2.97839e-06
-4.41765e-07
-2.46226e-06
-5.16137e-07
-1.86911e-06
-5.93151e-07
-1.19714e-06
-6.71962e-07
-4.45536e-07
-7.51608e-07
3.85485e-07
-8.31021e-07
1.29454e-06
-9.09054e-07
2.27907e-06
-9.84526e-07
3.33534e-06
-1.05628e-06
4.45855e-06
-1.12321e-06
5.64282e-06
-1.18427e-06
6.88134e-06
-1.23852e-06
8.16641e-06
-1.28507e-06
9.48959e-06
-1.32318e-06
1.08418e-05
-1.35222e-06
1.22135e-05
-1.37173e-06
1.35949e-05
-1.38136e-06
1.49759e-05
-1.38098e-06
1.63466e-05
-1.37069e-06
1.76976e-05
-1.35101e-06
1.90206e-05
-1.32304e-06
2.03088e-05
-1.28814e-06
2.15559e-05
-1.24719e-06
2.27567e-05
-1.20071e-06
2.39063e-05
-1.14961e-06
2.50013e-05
-1.09505e-06
2.60396e-05
-1.03826e-06
2.70201e-05
-9.80496e-07
2.79431e-05
-9.2299e-07
2.881e-05
-8.66924e-07
2.96234e-05
-8.13412e-07
3.03869e-05
-7.63475e-07
3.11049e-05
-7.18027e-07
3.17827e-05
-6.77853e-07
3.24264e-05
-6.43604e-07
3.30421e-05
-6.15794e-07
3.36369e-05
-5.948e-07
3.42178e-05
-5.80872e-07
3.4792e-05
-5.74146e-07
3.53666e-05
-5.74664e-07
3.5949e-05
-5.82368e-07
3.65461e-05
-5.97088e-07
3.71646e-05
-6.18545e-07
3.7811e-05
-6.46385e-07
3.84912e-05
-6.80193e-07
3.92107e-05
-7.19498e-07
3.99745e-05
-7.63785e-07
4.0787e-05
-8.12493e-07
4.1652e-05
-8.65031e-07
4.25728e-05
-9.20796e-07
4.3552e-05
-9.7921e-07
4.45918e-05
-1.03973e-06
4.56936e-05
-1.10185e-06
4.68586e-05
-1.16498e-06
4.80869e-05
-1.22833e-06
4.93779e-05
-1.291e-06
5.07303e-05
-1.35235e-06
5.21421e-05
-1.41185e-06
5.3611e-05
-1.46891e-06
5.51339e-05
-1.52291e-06
5.67072e-05
-1.57328e-06
5.83267e-05
-1.61946e-06
5.99876e-05
-1.66089e-06
6.16845e-05
-1.69697e-06
6.34117e-05
-1.72712e-06
6.51624e-05
-1.75073e-06
6.69296e-05
-1.76721e-06
6.87056e-05
-1.77595e-06
7.04819e-05
-1.77637e-06
7.22497e-05
-1.76781e-06
7.39993e-05
-1.74953e-06
7.572e-05
-1.72071e-06
7.74005e-05
-1.68051e-06
7.90286e-05
-1.62811e-06
8.05912e-05
-1.56259e-06
8.20739e-05
-1.48273e-06
8.3461e-05
-1.3871e-06
8.47357e-05
-1.27465e-06
8.5881e-05
-1.14539e-06
8.6881e-05
-9.99912e-07
8.77185e-05
-8.37504e-07
8.8373e-05
-6.5455e-07
8.88198e-05
-4.46835e-07
8.90379e-05
-2.18082e-07
8.90187e-05
1.91897e-08
8.87283e-05
2.90446e-07
8.80618e-05
6.66533e-07
8.70271e-05
1.03465e-06
8.58146e-05
1.21254e-06
8.42087e-05
1.60582e-06
8.20529e-05
2.15582e-06
7.95717e-05
2.48127e-06
7.65725e-05
2.99912e-06
7.29517e-05
3.6208e-06
6.86118e-05
4.33992e-06
6.34425e-05
5.16936e-06
5.73374e-05
6.10507e-06
5.01995e-05
7.13789e-06
4.19634e-05
8.23612e-06
3.23606e-05
9.60277e-06
2.12593e-05
1.11014e-05
8.55027e-06
1.2709e-05
-5.85561e-06
1.44059e-05
-2.21108e-05
1.62552e-05
-4.03972e-05
1.82865e-05
-6.07585e-05
2.03613e-05
-8.30259e-05
2.22674e-05
-0.000107227
2.42015e-05
-0.000133433
2.62057e-05
-0.000161133
2.76996e-05
-0.000188809
2.76763e-05
-0.000214341
2.55316e-05
-0.000233692
1.93517e-05
-0.000241802
8.11005e-06
-0.00025225
1.0448e-05
-0.000263711
1.1461e-05
-0.000286419
2.27076e-05
-0.000306165
1.97463e-05
-0.000315541
9.37537e-06
-0.000313953
-1.58799e-06
-0.000305046
-8.90687e-06
-0.000291628
-1.34181e-05
-0.000274097
-1.75311e-05
-0.000253066
-2.10311e-05
-0.000229504
-2.35616e-05
-0.000205214
-2.42901e-05
-0.000182142
-2.30714e-05
-0.000161165
-2.0977e-05
-0.000141883
-1.92827e-05
-0.000123974
-1.79083e-05
-0.000108098
-1.58767e-05
-9.43104e-05
-1.37873e-05
-8.22585e-05
-1.20519e-05
-7.16571e-05
-1.06014e-05
-6.23402e-05
-9.31697e-06
-5.41429e-05
-8.19728e-06
-4.63833e-05
-7.75963e-06
-3.91064e-05
-7.27681e-06
-3.35244e-05
-5.582e-06
-2.92509e-05
-4.27355e-06
-2.60227e-05
-3.22817e-06
-2.78851e-06
-2.32342e-05
-2.11515e-07
3.62192e-07
-4.34844e-07
4.3533e-07
-6.74255e-07
4.87359e-07
-9.21528e-07
5.21023e-07
-1.1719e-06
5.4259e-07
-1.42212e-06
5.5357e-07
-1.66981e-06
5.53214e-07
-1.91128e-06
5.41065e-07
-2.13169e-06
5.16515e-07
-2.42863e-06
4.58802e-07
-2.86799e-06
3.41596e-07
-3.30518e-06
2.63203e-07
-3.57008e-06
2.8501e-07
-3.66972e-06
3.61823e-07
-3.7164e-06
4.23258e-07
-3.78693e-06
4.39145e-07
-3.89795e-06
4.16327e-07
-4.03693e-06
3.73324e-07
-4.18552e-06
3.25021e-07
-4.32987e-06
2.79704e-07
-4.46525e-06
2.41501e-07
-4.58896e-06
2.11048e-07
-4.69989e-06
1.87429e-07
-4.79773e-06
1.68703e-07
-4.88232e-06
1.52345e-07
-4.95314e-06
1.35567e-07
-5.00897e-06
1.15535e-07
-5.04764e-06
8.95439e-08
-5.06592e-06
5.51494e-08
-5.05946e-06
1.02894e-08
-5.02292e-06
-4.66156e-08
-4.95008e-06
-1.16605e-07
-4.83404e-06
-2.00171e-07
-4.66755e-06
-2.97308e-07
-4.44324e-06
-4.07597e-07
-4.15398e-06
-5.30313e-07
-3.79316e-06
-6.64501e-07
-3.35492e-06
-8.08992e-07
-2.8343e-06
-9.62389e-07
-2.22738e-06
-1.12306e-06
-1.53142e-06
-1.28911e-06
-7.44926e-07
-1.45845e-06
1.32244e-07
-1.62878e-06
1.09885e-06
-1.79763e-06
2.15223e-06
-1.96244e-06
3.28834e-06
-2.12063e-06
4.50172e-06
-2.26966e-06
5.78562e-06
-2.4071e-06
7.13206e-06
-2.53071e-06
8.53199e-06
-2.63845e-06
9.97549e-06
-2.72857e-06
1.1452e-05
-2.79964e-06
1.29504e-05
-2.85061e-06
1.44595e-05
-2.88083e-06
1.59682e-05
-2.8901e-06
1.74659e-05
-2.87872e-06
1.89428e-05
-2.84751e-06
2.03896e-05
-2.79787e-06
2.17983e-05
-2.73169e-06
2.31612e-05
-2.6511e-06
2.44722e-05
-2.55817e-06
2.57265e-05
-2.455e-06
2.69208e-05
-2.34397e-06
2.80534e-05
-2.22763e-06
2.91238e-05
-2.10861e-06
3.01328e-05
-1.98949e-06
3.10826e-05
-1.87277e-06
3.19764e-05
-1.7608e-06
3.28187e-05
-1.65571e-06
3.36147e-05
-1.55943e-06
3.43703e-05
-1.47363e-06
3.50921e-05
-1.3997e-06
3.57873e-05
-1.33878e-06
3.64632e-05
-1.2917e-06
3.71275e-05
-1.25905e-06
3.77878e-05
-1.24116e-06
3.84518e-05
-1.23814e-06
3.91269e-05
-1.24985e-06
3.98206e-05
-1.27599e-06
4.05395e-05
-1.31602e-06
4.12902e-05
-1.36929e-06
4.20788e-05
-1.43495e-06
4.29107e-05
-1.5121e-06
4.37909e-05
-1.59967e-06
4.47237e-05
-1.69658e-06
4.57128e-05
-1.80164e-06
4.67614e-05
-1.91362e-06
4.78719e-05
-2.03128e-06
4.90461e-05
-2.15337e-06
5.02849e-05
-2.27857e-06
5.15886e-05
-2.40555e-06
5.29565e-05
-2.53289e-06
5.43873e-05
-2.65913e-06
5.58791e-05
-2.78281e-06
5.74294e-05
-2.90259e-06
5.90347e-05
-3.01716e-06
6.0691e-05
-3.1252e-06
6.23934e-05
-3.22538e-06
6.41366e-05
-3.31641e-06
6.59141e-05
-3.39697e-06
6.77189e-05
-3.46577e-06
6.95434e-05
-3.52146e-06
7.1379e-05
-3.56273e-06
7.32165e-05
-3.58823e-06
7.5046e-05
-3.59665e-06
7.68567e-05
-3.58663e-06
7.86371e-05
-3.5568e-06
8.03749e-05
-3.50566e-06
8.2057e-05
-3.43159e-06
8.36692e-05
-3.33287e-06
8.51964e-05
-3.20776e-06
8.66228e-05
-3.05453e-06
8.79316e-05
-2.87135e-06
8.91051e-05
-2.65624e-06
9.01255e-05
-2.40749e-06
9.09752e-05
-2.12431e-06
9.1637e-05
-1.80727e-06
9.20942e-05
-1.45705e-06
9.23291e-05
-1.07243e-06
9.23246e-05
-6.50071e-07
9.20646e-05
-1.86784e-07
9.15289e-05
3.17594e-07
9.0692e-05
8.56032e-07
8.95557e-05
1.42684e-06
8.80047e-05
2.21744e-06
8.6201e-05
2.83843e-06
8.42004e-05
3.21311e-06
8.16619e-05
4.14427e-06
7.8699e-05
5.11874e-06
7.5051e-05
6.12924e-06
7.08045e-05
7.24568e-06
6.59355e-05
8.48982e-06
6.03909e-05
9.88449e-06
5.40879e-05
1.14723e-05
4.69355e-05
1.32575e-05
3.88489e-05
1.52245e-05
2.96715e-05
1.74135e-05
1.93299e-05
1.99444e-05
7.64862e-06
2.27826e-05
-5.47627e-06
2.58339e-05
-2.00417e-05
2.89713e-05
-3.61545e-05
3.23679e-05
-5.39709e-05
3.61029e-05
-7.34771e-05
3.98675e-05
-9.43839e-05
4.31741e-05
-0.00011654
4.63577e-05
-0.000139888
4.95536e-05
-0.000163999
5.1811e-05
-0.000187683
5.136e-05
-0.000209847
4.76952e-05
-0.000230824
4.03289e-05
-0.000254756
3.20424e-05
-0.000279668
3.53602e-05
-0.00030108
3.28721e-05
-0.000312694
3.4322e-05
-0.000323983
3.10358e-05
-0.000328611
1.40033e-05
-0.000326915
-3.28461e-06
-0.000319341
-1.64812e-05
-0.000306427
-2.63316e-05
-0.000289243
-3.47154e-05
-0.000269374
-4.08998e-05
-0.00024874
-4.41952e-05
-0.000227844
-4.51861e-05
-0.000206374
-4.45422e-05
-0.000184619
-4.27313e-05
-0.000163099
-4.0803e-05
-0.000142763
-3.82442e-05
-0.000124204
-3.44355e-05
-0.000107527
-3.04645e-05
-9.25014e-05
-2.70776e-05
-7.90632e-05
-2.40396e-05
-6.72742e-05
-2.1106e-05
-5.72181e-05
-1.82533e-05
-4.97329e-05
-1.52448e-05
-4.22501e-05
-1.47597e-05
-3.68654e-05
-1.09667e-05
-3.18781e-05
-9.26082e-06
-2.77076e-05
-7.3987e-06
-5.98969e-06
-2.45064e-05
-2.4843e-07
6.10622e-07
-4.89023e-07
6.75923e-07
-7.23877e-07
7.22212e-07
-9.63581e-07
7.60727e-07
-1.21137e-06
7.90384e-07
-1.46938e-06
8.1158e-07
-1.74011e-06
8.23943e-07
-2.02476e-06
8.25711e-07
-2.32013e-06
8.11885e-07
-2.63154e-06
7.70216e-07
-2.98196e-06
6.92013e-07
-3.32447e-06
6.05709e-07
-3.59414e-06
5.54688e-07
-3.77699e-06
5.44672e-07
-3.90283e-06
5.49095e-07
-4.00879e-06
5.45105e-07
-4.11784e-06
5.25381e-07
-4.23721e-06
4.92689e-07
-4.36504e-06
4.52849e-07
-4.49634e-06
4.11009e-07
-4.62546e-06
3.7062e-07
-4.74771e-06
3.333e-07
-4.85947e-06
2.9919e-07
-4.95801e-06
2.6724e-07
-5.04116e-06
2.35492e-07
-5.10694e-06
2.01351e-07
-5.15322e-06
1.61817e-07
-5.17738e-06
1.13697e-07
-5.17604e-06
5.3816e-08
-5.14499e-06
-2.07679e-08
-5.07904e-06
-1.1256e-07
-4.97219e-06
-2.23457e-07
-4.81773e-06
-3.54627e-07
-4.60856e-06
-5.06484e-07
-4.33744e-06
-6.78719e-07
-3.99737e-06
-8.70379e-07
-3.58192e-06
-1.07995e-06
-3.08547e-06
-1.30544e-06
-2.50348e-06
-1.54439e-06
-1.83259e-06
-1.79395e-06
-1.07079e-06
-2.0509e-06
-2.17501e-07
-2.31175e-06
7.2643e-07
-2.57271e-06
1.75867e-06
-2.82986e-06
2.87544e-06
-3.07921e-06
4.07156e-06
-3.31675e-06
5.34052e-06
-3.53863e-06
6.67462e-06
-3.7412e-06
8.06507e-06
-3.92116e-06
9.50219e-06
-4.07558e-06
1.09757e-05
-4.20204e-06
1.24747e-05
-4.29869e-06
1.39884e-05
-4.36427e-06
1.55058e-05
-4.39823e-06
1.70163e-05
-4.40068e-06
1.85101e-05
-4.37251e-06
1.99779e-05
-4.31526e-06
2.14112e-05
-4.23116e-06
2.28024e-05
-4.12295e-06
2.4145e-05
-3.99372e-06
2.54337e-05
-3.84679e-06
2.66644e-05
-3.68576e-06
2.78349e-05
-3.51446e-06
2.89441e-05
-3.33683e-06
2.99923e-05
-3.15682e-06
3.09811e-05
-2.97827e-06
3.19132e-05
-2.80483e-06
3.27922e-05
-2.63986e-06
3.3623e-05
-2.48644e-06
3.44108e-05
-2.34726e-06
3.51618e-05
-2.22463e-06
3.58826e-05
-2.12048e-06
3.65801e-05
-2.03629e-06
3.72616e-05
-1.97317e-06
3.79343e-05
-1.93184e-06
3.86058e-05
-1.91262e-06
3.92832e-05
-1.91551e-06
3.99735e-05
-1.94018e-06
4.06835e-05
-1.98599e-06
4.14195e-05
-2.05206e-06
4.21875e-05
-2.13726e-06
4.29928e-05
-2.24028e-06
4.38404e-05
-2.35962e-06
4.47344e-05
-2.49368e-06
4.56785e-05
-2.6407e-06
4.66757e-05
-2.79884e-06
4.77283e-05
-2.96621e-06
4.88378e-05
-3.14081e-06
5.00051e-05
-3.32063e-06
5.12301e-05
-3.50358e-06
5.2512e-05
-3.68752e-06
5.38494e-05
-3.87026e-06
5.52399e-05
-4.04958e-06
5.66803e-05
-4.22325e-06
5.81669e-05
-4.38919e-06
5.96951e-05
-4.54536e-06
6.12596e-05
-4.68967e-06
6.28543e-05
-4.82006e-06
6.44723e-05
-4.93449e-06
6.61062e-05
-5.03088e-06
6.77477e-05
-5.10719e-06
6.93876e-05
-5.16135e-06
7.10162e-05
-5.19132e-06
7.2623e-05
-5.19507e-06
7.41969e-05
-5.17056e-06
7.5726e-05
-5.11577e-06
7.71979e-05
-5.02868e-06
7.85994e-05
-4.90712e-06
7.99166e-05
-4.74883e-06
8.11352e-05
-4.55147e-06
8.22401e-05
-4.31265e-06
8.32157e-05
-4.03006e-06
8.40458e-05
-3.70147e-06
8.47143e-05
-3.32475e-06
8.5205e-05
-2.89824e-06
8.55022e-05
-2.42144e-06
8.559e-05
-1.89513e-06
8.54533e-05
-1.32028e-06
8.5077e-05
-6.96109e-07
8.44475e-05
-2.0644e-08
8.35562e-05
7.04569e-07
8.24022e-05
1.47159e-06
8.09689e-05
2.28928e-06
7.93809e-05
3.01492e-06
7.74195e-05
4.17878e-06
7.52191e-05
5.03889e-06
7.24556e-05
5.97661e-06
6.94299e-05
7.16993e-06
6.60537e-05
8.49498e-06
6.22521e-05
9.93075e-06
5.79593e-05
1.15385e-05
5.31191e-05
1.33301e-05
4.76675e-05
1.53361e-05
4.14964e-05
1.76435e-05
3.44912e-05
2.02627e-05
2.65665e-05
2.31491e-05
1.76099e-05
2.63701e-05
7.50114e-06
3.00532e-05
-3.89135e-06
3.41751e-05
-1.66817e-05
3.86243e-05
-3.07798e-05
4.30693e-05
-4.62936e-05
4.78817e-05
-6.34147e-05
5.32241e-05
-8.21868e-05
5.86396e-05
-0.000102435
6.34228e-05
-0.000123851
6.77735e-05
-0.000146218
7.19206e-05
-0.000169356
7.4949e-05
-0.000193412
7.54153e-05
-0.00021774
7.2024e-05
-0.000243346
6.59347e-05
-0.000270788
5.94839e-05
-0.000294208
5.87809e-05
-0.00031322
5.18839e-05
-0.00032439
4.54915e-05
-0.000328395
3.50409e-05
-0.000329316
1.49246e-05
-0.000326348
-6.25246e-06
-0.000318425
-2.44037e-05
-0.000305629
-3.91283e-05
-0.000290107
-5.02372e-05
-0.000273053
-5.7954e-05
-0.000255225
-6.20231e-05
-0.000236646
-6.37652e-05
-0.000217226
-6.3962e-05
-0.000197348
-6.26089e-05
-0.000177728
-6.04236e-05
-0.000158864
-5.71076e-05
-0.000140799
-5.25006e-05
-0.000123354
-4.79095e-05
-0.000106583
-4.38487e-05
-9.08449e-05
-3.97778e-05
-7.65384e-05
-3.54125e-05
-6.39255e-05
-3.08663e-05
-5.28495e-05
-2.63208e-05
-4.50734e-05
-2.25358e-05
-3.79304e-05
-1.81097e-05
-3.24724e-05
-1.47188e-05
-2.80451e-05
-1.1826e-05
-9.38118e-06
-2.46536e-05
-2.35728e-07
8.4635e-07
-4.73194e-07
9.13389e-07
-7.05983e-07
9.55002e-07
-9.40392e-07
9.95136e-07
-1.18052e-06
1.03051e-06
-1.42998e-06
1.06104e-06
-1.6932e-06
1.08716e-06
-1.97543e-06
1.10794e-06
-2.28158e-06
1.11804e-06
-2.61404e-06
1.10267e-06
-2.96306e-06
1.04104e-06
-3.2914e-06
9.34051e-07
-3.56067e-06
8.23958e-07
-3.76688e-06
7.50882e-07
-3.92942e-06
7.11633e-07
-4.0689e-06
6.84587e-07
-4.19906e-06
6.55535e-07
-4.32697e-06
6.20605e-07
-4.45487e-06
5.80746e-07
-4.58188e-06
5.38016e-07
-4.70539e-06
4.94135e-07
-4.8221e-06
4.50012e-07
-4.92854e-06
4.05622e-07
-5.02132e-06
3.60025e-07
-5.09728e-06
3.11447e-07
-5.15333e-06
2.57402e-07
-5.18635e-06
1.94841e-07
-5.19298e-06
1.20325e-07
-5.16941e-06
3.02449e-08
-5.11126e-06
-7.89209e-08
-5.01348e-06
-2.10333e-07
-4.87042e-06
-3.66522e-07
-4.67586e-06
-5.49182e-07
-4.42331e-06
-7.59041e-07
-4.10619e-06
-9.95834e-07
-3.71823e-06
-1.25834e-06
-3.25373e-06
-1.54445e-06
-2.70787e-06
-1.8513e-06
-2.07692e-06
-2.17533e-06
-1.35845e-06
-2.51242e-06
-5.51413e-07
-2.85794e-06
3.43768e-07
-3.20693e-06
1.3252e-06
-3.55414e-06
2.38952e-06
-3.89418e-06
3.53196e-06
-4.22165e-06
4.74645e-06
-4.53124e-06
6.02572e-06
-4.81789e-06
7.36144e-06
-5.07692e-06
8.7444e-06
-5.30412e-06
1.01647e-05
-5.49592e-06
1.16121e-05
-5.64944e-06
1.3076e-05
-5.76258e-06
1.45459e-05
-5.83412e-06
1.60113e-05
-5.86369e-06
1.74625e-05
-5.85187e-06
1.88902e-05
-5.80013e-06
2.02857e-05
-5.71076e-06
2.16413e-05
-5.58684e-06
2.29505e-05
-5.43207e-06
2.42074e-05
-5.25068e-06
2.54079e-05
-5.04731e-06
2.65491e-05
-4.82695e-06
2.76295e-05
-4.5948e-06
2.86488e-05
-4.35615e-06
2.96082e-05
-4.11619e-06
3.05098e-05
-3.87991e-06
3.13569e-05
-3.65197e-06
3.21537e-05
-3.43666e-06
3.29051e-05
-3.23782e-06
3.36167e-05
-3.0588e-06
3.42945e-05
-2.90243e-06
3.4945e-05
-2.77103e-06
3.55751e-05
-2.66635e-06
3.61916e-05
-2.58966e-06
3.68014e-05
-2.54167e-06
3.74114e-05
-2.52262e-06
3.80282e-05
-2.53232e-06
3.86581e-05
-2.57012e-06
3.93072e-05
-2.63504e-06
3.99809e-05
-2.72575e-06
4.06843e-05
-2.84065e-06
4.14219e-05
-2.97787e-06
4.21976e-05
-3.13535e-06
4.30148e-05
-3.31085e-06
4.38761e-05
-3.50197e-06
4.47834e-05
-3.7062e-06
4.57381e-05
-3.92091e-06
4.67407e-05
-4.14339e-06
4.77909e-05
-4.37087e-06