/*--------------------------------*- C++ -*----------------------------------*\
| =========                 |                                                 |
| \\      /  F ield         | OpenFOAM: The Open Source CFD Toolbox           |
|  \\    /   O peration     | Version:  2112                                  |
|   \\  /    A nd           | Website:  www.openfoam.com                      |
|    \\/     M anipulation  |                                                 |
\*---------------------------------------------------------------------------*/
FoamFile
{
    version     2.0;
    format      ascii;
    arch        "LSB;label=32;scalar=64";
    class       volScalarField;
    location    "0.14";
    object      kU;
}
// * * * * * * * * * * * * * * * * * * * * * * * * * * * * * * * * * * * * * //

dimensions      [0 2 -2 0 0 0 0];

internalField   nonuniform List<scalar> 
12225
(
0.124927
0.183542
0.219502
0.244084
0.261363
0.27368
0.28407
0.294041
0.304514
0.316161
0.329524
0.345066
0.363189
0.384268
0.408632
0.436158
0.465947
0.499125
0.0407717
0.045905
0.0509805
0.055854
0.0604358
0.064756
0.0689647
0.0731735
0.0774191
0.0816733
0.0858574
0.0898551
0.093523
0.0967043
0.09925
0.101679
0.104076
0.106498
0.0375907
0.0382163
0.039077
0.0399741
0.0405506
0.0407126
0.0405406
0.0401323
0.0395678
0.0388979
0.0381454
0.0373114
0.036383
0.0353412
0.0342105
0.0332756
0.0325291
0.0319564
0.037312
0.037163
0.0371074
0.0371754
0.0373432
0.0375523
0.0377705
0.0379737
0.0381471
0.0382841
0.0383849
0.0384554
0.0385051
0.0385432
0.0385634
0.0385697
0.0385785
0.0386231
0.0373049
0.0371256
0.0369655
0.0368255
0.0367098
0.0366206
0.0365576
0.0365203
0.0365076
0.0365174
0.036547
0.0365881
0.0366314
0.0366791
0.0367364
0.0368064
0.0368973
0.0370216
0.0373005
0.0371146
0.0369415
0.0367806
0.0366342
0.0365038
0.0363897
0.0362917
0.0362102
0.0361455
0.0360979
0.0360678
0.0360576
0.0360716
0.0361036
0.0361534
0.0362264
0.0363283
0.0372972
0.0371077
0.0369316
0.0367687
0.0366202
0.0364869
0.0363686
0.036265
0.0361762
0.0361028
0.0360452
0.0360045
0.0359827
0.0359831
0.0360064
0.0360462
0.0361055
0.0361857
0.0372949
0.0371031
0.036925
0.03676
0.0366085
0.0364713
0.0363484
0.0362396
0.0361452
0.0360657
0.0360015
0.0359539
0.0359245
0.0359161
0.0359325
0.0359644
0.0360118
0.0360741
0.0372934
0.0370997
0.0369197
0.0367525
0.0365986
0.0364583
0.0363319
0.0362194
0.0361207
0.0360363
0.0359669
0.0359131
0.0358765
0.035859
0.0358631
0.0358868
0.0359231
0.0359706
0.0372923
0.0370972
0.0369155
0.0367465
0.0365904
0.0364475
0.0363179
0.0362016
0.0360986
0.0360092
0.035934
0.0358736
0.0358291
0.0358018
0.0357934
0.0358051
0.0358311
0.0358657
0.0372916
0.0370954
0.0369122
0.0367416
0.0365835
0.0364382
0.0363056
0.0361857
0.0360786
0.0359846
0.035904
0.0358373
0.0357853
0.0357487
0.0357285
0.0357251
0.0357382
0.0357621
0.0372911
0.0370941
0.0369097
0.0367378
0.036578
0.0364305
0.0362952
0.0361723
0.0360616
0.0359633
0.0358778
0.0358052
0.0357461
0.035701
0.0356701
0.0356535
0.0356507
0.0356593
0.0372908
0.0370931
0.0369078
0.0367345
0.0365732
0.0364237
0.036286
0.0361601
0.036046
0.0359438
0.0358535
0.0357754
0.0357097
0.0356567
0.0356163
0.0355885
0.0355724
0.0355666
0.0372906
0.0370924
0.0369061
0.0367316
0.0365687
0.0364171
0.0362769
0.036148
0.0360302
0.0359236
0.0358283
0.0357442
0.0356715
0.0356102
0.0355601
0.035521
0.0354922
0.0354727
0.0372905
0.037092
0.0369049
0.0367292
0.0365647
0.0364111
0.0362683
0.0361362
0.0360147
0.0359036
0.035803
0.0357127
0.0356327
0.0355628
0.035503
0.0354529
0.035412
0.0353797
0.0372906
0.0370919
0.0369042
0.0367275
0.0365615
0.0364059
0.0362606
0.0361254
0.036
0.0358844
0.0357784
0.0356818
0.0355945
0.0355163
0.0354471
0.0353865
0.0353343
0.03529
0.0372908
0.0370921
0.036904
0.0367265
0.0365592
0.0364018
0.0362541
0.0361159
0.0359869
0.0358668
0.0357556
0.0356529
0.0355586
0.0354725
0.0353943
0.035324
0.0352612
0.0352058
0.0372911
0.0370926
0.0369043
0.0367262
0.0365578
0.0363989
0.0362491
0.0361081
0.0359757
0.0358515
0.0357354
0.0356271
0.0355264
0.0354329
0.0353467
0.0352674
0.035195
0.0351292
0.0372916
0.0370933
0.0369051
0.0367265
0.0365573
0.036397
0.0362454
0.036102
0.0359666
0.0358389
0.0357186
0.0356053
0.035499
0.0353993
0.0353061
0.0352191
0.0351382
0.0350633
0.037292
0.037094
0.0369059
0.036727
0.0365572
0.036396
0.036243
0.036098
0.0359605
0.0358303
0.035707
0.0355904
0.0354802
0.0353761
0.0352779
0.0351855
0.0350986
0.0350171
0.0372924
0.0370947
0.0369065
0.0367275
0.0365573
0.0363954
0.0362416
0.0360955
0.0359567
0.035825
0.0357001
0.0355815
0.0354692
0.0353626
0.0352616
0.035166
0.0350755
0.0349901
0.0372928
0.0370953
0.0369072
0.036728
0.0365574
0.036395
0.0362406
0.0360936
0.0359539
0.0358212
0.0356951
0.0355752
0.0354614
0.0353531
0.0352502
0.0351523
0.0350594
0.0349711
0.0372933
0.037096
0.0369079
0.0367285
0.0365575
0.0363947
0.0362397
0.0360922
0.0359519
0.0358185
0.0356916
0.035571
0.0354562
0.035347
0.0352429
0.0351436
0.035049
0.0349589
0.0372939
0.0370969
0.0369086
0.0367288
0.0365575
0.0363942
0.0362386
0.0360904
0.0359494
0.0358153
0.0356878
0.0355666
0.0354512
0.0353414
0.0352368
0.0351369
0.0350415
0.0349504
0.0372948
0.0370979
0.0369094
0.0367293
0.0365576
0.0363941
0.0362384
0.0360904
0.0359498
0.0358165
0.0356901
0.0355704
0.0354568
0.0353489
0.0352462
0.0351482
0.0350547
0.0349656
0.0372961
0.0371004
0.0369136
0.0367355
0.0365664
0.0364068
0.0362572
0.0361183
0.0359905
0.0358738
0.0357681
0.035673
0.0355881
0.0355133
0.0354485
0.0353939
0.0353499
0.0353156
0.0372984
0.0371055
0.0369343
0.0367929
0.0366907
0.0366367
0.0366315
0.0366703
0.0367441
0.0368399
0.0369425
0.0370364
0.0371081
0.0371475
0.0371486
0.0371095
0.0370324
0.0369228
0.0373485
0.0374894
0.037806
0.0382428
0.0387459
0.0392543
0.0395856
0.0397425
0.0397604
0.0396904
0.0395897
0.039515
0.0395179
0.039641
0.0399166
0.0403657
0.0409989
0.0418197
0.038748
0.041286
0.0442663
0.0474613
0.0506891
0.0537994
0.0568174
0.059829
0.0629253
0.0661856
0.06967
0.0734188
0.077452
0.0817738
0.0863758
0.091241
0.0963491
0.101669
0.0990003
0.145539
0.177482
0.200766
0.217904
0.228345
0.23506
0.239476
0.242268
0.243739
0.244023
0.243178
0.241246
0.238284
0.234373
0.229641
0.22423
0.218382
0.131365
0.117364
0.103181
0.0915787
0.083789
0.0817252
0.087938
0.102932
0.126637
0.160184
0.206413
0.269485
0.351523
0.448684
0.55183
0.650549
0.736316
0.805054
0.858145
0.896247
0.920716
0.933159
0.935182
0.928212
0.913467
0.892068
0.865119
0.835505
0.805422
0.775116
0.744815
0.714778
0.685287
0.656656
0.629258
0.603453
0.579646
0.558332
0.540137
0.525875
0.516584
0.514378
0.525446
0.546704
0.575466
0.608198
0.642214
0.680625
0.725177
0.779332
0.850698
0.947008
1.05206
1.09851
1.04173
0.883492
0.687617
0.51967
0.399615
0.321282
0.273573
0.246898
0.235579
0.241367
0.268909
0.314834
0.374621
0.438855
0.510617
0.568387
0.560321
0.496116
0.4273
0.382907
0.35594
0.332768
0.30178
0.27801
0.298196
0.395558
0.584747
0.827639
1.02292
1.18524
1.31298
1.40363
1.45781
1.47804
1.4663
1.43945
1.40107
1.35277
1.29575
1.23068
1.16295
1.09477
1.02631
0.957978
0.890391
0.824274
0.76043
0.699719
0.643069
0.591459
0.546065
0.508523
0.481461
0.46963
0.482357
0.532101
0.60822
0.706775
0.830724
0.982236
1.16421
1.37986
1.63216
1.92327
2.25263
2.60588
2.93601
3.23411
3.50023
3.7271
3.90086
4.00305
4.01488
3.92285
3.72433
3.43132
3.0706
2.67948
2.29768
1.95805
1.68
1.46818
1.31601
1.21126
1.14101
1.09416
1.06213
1.03844
1.02005
1.00682
0.998679
0.99539
0.996258
1.00004
1.00495
1.00879
1.00915
1.00366
0.990189
0.966955
0.932661
0.886552
0.828566
0.759665
0.682467
0.6021
0.526587
0.465421
0.425634
0.407748
0.405966
0.415051
0.434871
0.469009
0.519829
0.582535
0.647933
0.670577
0.6241
0.657817
1.03415
1.47468
1.72593
1.76127
1.65552
1.49419
0.151047
0.103078
0.0846196
0.0767877
0.0809965
0.104006
0.148511
0.209888
0.274625
0.331614
0.377981
0.416239
0.449294
0.47774
0.500279
0.51543
0.522698
0.522818
0.517272
0.507807
0.496239
0.484319
0.473597
0.465352
0.460571
0.459936
0.4638
0.470305
0.477283
0.484267
0.490789
0.496403
0.500708
0.503359
0.504928
0.50575
0.505823
0.505174
0.503875
0.502011
0.499668
0.49691
0.493756
0.490481
0.487307
0.483981
0.480542
0.477002
0.473346
0.469759
0.467959
0.474599
0.503175
0.560093
0.594591
0.589597
0.573335
0.56278
0.541759
0.487745
0.401273
0.307468
0.233429
0.192091
0.185668
0.206428
0.238086
0.268904
0.290626
0.301494
0.305263
0.284117
0.248735
0.211851
0.200735
0.23973
0.34671
0.501536
0.638011
0.705474
0.733239
0.736237
0.712429
0.670407
0.616426
0.556558
0.496476
0.441006
0.393633
0.356545
0.330269
0.314646
0.309033
0.312875
0.319941
0.327562
0.335488
0.343464
0.351213
0.358398
0.364599
0.3692
0.372726
0.375019
0.37574
0.374512
0.370968
0.364792
0.355689
0.345045
0.334194
0.322458
0.310133
0.297491
0.284877
0.272852
0.262235
0.254478
0.253128
0.27094
0.344002
0.460657
0.592609
0.725435
0.851267
0.964878
1.06144
1.1357
1.18248
1.1981
1.18198
1.13769
1.07227
0.994506
0.912823
0.833751
0.761356
0.697507
0.642539
0.595914
0.556682
0.523803
0.496342
0.473499
0.454557
0.438853
0.425797
0.414958
0.406141
0.399481
0.395322
0.393843
0.395096
0.398982
0.404941
0.41216
0.419689
0.426368
0.431018
0.432807
0.431569
0.427469
0.419617
0.404385
0.377285
0.335856
0.282789
0.230417
0.194816
0.185136
0.202939
0.279407
0.491672
0.791968
0.895656
0.819063
0.675774
0.529656
0.436739
0.411365
0.183625
0.113414
0.11153
0.132238
0.173397
0.212483
0.265022
0.31956
0.362674
0.390969
0.408119
0.418774
0.425848
0.430391
0.432502
0.432213
0.429911
0.426322
0.422309
0.418673
0.416025
0.414729
0.414893
0.416402
0.418992
0.42231
0.426702
0.432059
0.438144
0.444619
0.451038
0.456852
0.461468
0.465512
0.468753
0.471183
0.472726
0.473275
0.47288
0.471729
0.46989
0.467438
0.464209
0.46011
0.455596
0.450384
0.444584
0.438454
0.432367
0.426775
0.422287
0.420893
0.42665
0.442498
0.463523
0.475068
0.46869
0.46137
0.466198
0.47714
0.464567
0.407196
0.322974
0.247533
0.203976
0.198133
0.218384
0.243384
0.257281
0.246088
0.221816
0.207641
0.209032
0.248377
0.354266
0.503642
0.618944
0.655847
0.640795
0.601687
0.551998
0.496377
0.439106
0.385558
0.33975
0.30407
0.27905
0.263684
0.256092
0.254175
0.256058
0.260276
0.265772
0.27229
0.279538
0.28743
0.295883
0.304801
0.31403
0.323322
0.332304
0.340444
0.348058
0.354714
0.360022
0.363379
0.364137
0.361676
0.355441
0.346782
0.336755
0.325097
0.312057
0.297836
0.282549
0.266278
0.249105
0.231151
0.213434
0.196684
0.181798
0.172254
0.176336
0.194239
0.223785
0.261992
0.305634
0.351277
0.395241
0.43381
0.463765
0.483004
0.490917
0.488371
0.477329
0.460279
0.439683
0.417605
0.395567
0.374541
0.355019
0.3371
0.3206
0.305357
0.291167
0.277815
0.26515
0.253134
0.241822
0.23133
0.221805
0.21341
0.206342
0.200843
0.197205
0.195749
0.196758
0.200336
0.206227
0.213674
0.221465
0.228155
0.232269
0.232218
0.226184
0.21385
0.193656
0.166586
0.149436
0.160296
0.210102
0.349365
0.618378
0.765222
0.657216
0.515734
0.407186
0.352636
0.34217
0.352255
0.221999
0.140543
0.18181
0.230969
0.25867
0.291301
0.331653
0.366289
0.388361
0.399173
0.403299
0.404451
0.404479
0.403877
0.402556
0.400347
0.397212
0.393255
0.388686
0.383779
0.378848
0.374206
0.370134
0.366837
0.364415
0.362883
0.363813
0.36702
0.37228
0.379294
0.387685
0.396976
0.406558
0.415646
0.423236
0.429259
0.434354
0.438033
0.440014
0.441235
0.441742
0.442003
0.441884
0.440638
0.438078
0.433754
0.427375
0.418957
0.40892
0.398198
0.387424
0.377127
0.369755
0.366264
0.367623
0.376909
0.392417
0.398752
0.400075
0.407933
0.41943
0.411426
0.368877
0.308776
0.261908
0.242518
0.248892
0.267479
0.284247
0.274429
0.236307
0.219335
0.261801
0.392308
0.570547
0.651748
0.623711
0.568362
0.506559
0.445489
0.388468
0.337188
0.294126
0.26102
0.23783
0.223085
0.214732
0.210843
0.209928
0.210972
0.213348
0.216705
0.220822
0.225876
0.231704
0.238336
0.245832
0.254265
0.263691
0.274109
0.2854
0.297271
0.309172
0.320117
0.330088
0.338389
0.344088
0.346272
0.344217
0.339137
0.331804
0.322468
0.311459
0.299041
0.285308
0.269911
0.253468
0.236584
0.219642
0.202928
0.186702
0.171269
0.157217
0.146305
0.140123
0.139435
0.144258
0.153888
0.167038
0.182029
0.19703
0.210331
0.220595
0.227031
0.229456
0.22821
0.22398
0.217601
0.20988
0.20149
0.192915
0.184445
0.17621
0.168225
0.160446
0.152796
0.145188
0.13773
0.13059
0.123954
0.117973
0.112746
0.108316
0.104695
0.101893
0.0999434
0.0989179
0.0989061
0.099931
0.101842
0.104393
0.107105
0.10935
0.110392
0.109354
0.105675
0.101262
0.101375
0.11542
0.158945
0.252119
0.440282
0.667012
0.642175
0.496097
0.385688
0.325962
0.304821
0.305704
0.318158
0.267915
0.176592
0.249076
0.297087
0.315422
0.336846
0.361636
0.38036
0.390385
0.393869
0.393859
0.392153
0.38917
0.384578
0.3779
0.3689
0.357735
0.344922
0.331203
0.317382
0.304208
0.292316
0.282215
0.274292
0.268789
0.265713
0.265838
0.268673
0.274017
0.281706
0.291579
0.303444
0.317028
0.33193
0.347582
0.363215
0.37781
0.389987
0.397273
0.402363
0.405818
0.408916
0.412567
0.41605
0.418239
0.418236
0.414674
0.406473
0.393163
0.375142
0.356253
0.33932
0.326272
0.317671
0.312565
0.311595
0.320354
0.338691
0.352317
0.358855
0.365004
0.369289
0.3592
0.33163
0.30275
0.291518
0.297746
0.314194
0.334099
0.336358
0.306269
0.307872
0.401466
0.56591
0.643097
0.592278
0.515654
0.444576
0.382325
0.328512
0.283126
0.246748
0.219689
0.200954
0.188706
0.181066
0.176553
0.174154
0.17325
0.173484
0.174659
0.17669
0.179581
0.183188
0.187398
0.192287
0.197988
0.204682
0.212567
0.221822
0.232548
0.244713
0.258078
0.272137
0.286087
0.298861
0.309236
0.316004
0.318264
0.316823
0.312584
0.306022
0.297567
0.287566
0.276273
0.263888
0.250589
0.236565
0.222026
0.207198
0.192322
0.177654
0.163461
0.150048
0.138057
0.128117
0.120718
0.116125
0.114281
0.114785
0.116955
0.119956
0.122956
0.125262
0.12642
0.126235
0.124743
0.122141
0.118704
0.114713
0.110411
0.105977
0.101524
0.0971143
0.092777
0.0885377
0.0844382
0.0805482
0.0769524
0.0737304
0.0709396
0.0686064
0.0667261
0.0652675
0.0641821
0.0634153
0.0629181
0.0626559
0.0626093
0.0627683
0.0631162
0.0636073
0.0641625
0.0646688
0.0650635
0.0658233
0.069021
0.0802425
0.111033
0.178496
0.30834
0.509665
0.640996
0.528813
0.399984
0.323471
0.28519
0.269867
0.270214
0.28219
0.324386
0.214063
0.298381
0.335741
0.34773
0.35856
0.371461
0.380526
0.384476
0.384305
0.380973
0.374565
0.364631
0.350837
0.333405
0.313177
0.291396
0.269396
0.248351
0.229163
0.21246
0.198636
0.187913
0.180388
0.17609
0.17511
0.176322
0.179438
0.184378
0.191161
0.199884
0.210692
0.223728
0.239039
0.256463
0.275534
0.295468
0.315255
0.333798
0.349906
0.36155
0.368537
0.375422
0.383009
0.390421
0.396623
0.39901
0.394731
0.38132
0.361224
0.338038
0.314832
0.294812
0.27999
0.270517
0.265539
0.266484
0.279589
0.300536
0.317344
0.324708
0.327116
0.326795
0.321587
0.315937
0.323179
0.34606
0.370261
0.398685
0.420786
0.421809
0.452884
0.549788
0.613179
0.565784
0.481583
0.405916
0.343999
0.293074
0.251418
0.218661
0.19435
0.177241
0.16559
0.157773
0.152568
0.149176
0.147136
0.146198
0.146221
0.147093
0.148708
0.151084
0.153782
0.156782
0.160178
0.164147
0.168935
0.174831
0.182126
0.19106
0.201757
0.214147
0.227887
0.242301
0.256352
0.268741
0.278101
0.283329
0.285314
0.284642
0.28175
0.277039
0.270809
0.263258
0.254508
0.244646
0.233766
0.221988
0.209473
0.19643
0.183117
0.169824
0.156833
0.144438
0.133012
0.122842
0.114172
0.107159
0.101829
0.09804
0.0954964
0.0938057
0.0925554
0.0913863
0.0900417
0.0883819
0.0863705
0.0840442
0.0814782
0.0787594
0.0759678
0.073169
0.0704138
0.0677429
0.0651941
0.062807
0.0606228
0.0586797
0.0570064
0.0556171
0.0545093
0.0536648
0.0530519
0.052628
0.0523445
0.0521506
0.0519998
0.0518561
0.0517005
0.0515352
0.0513855
0.0513051
0.0513992
0.0519627
0.0540056
0.0604469
0.078204
0.120147
0.207165
0.360518
0.547661
0.584541
0.445038
0.342342
0.285671
0.25314
0.237312
0.235609
0.246284
0.392053
0.24426
0.328093
0.356829
0.362656
0.365923
0.371317
0.374662
0.37433
0.369707
0.360247
0.345461
0.325437
0.301155
0.27432
0.246869
0.220523
0.196543
0.175711
0.158405
0.144712
0.134514
0.127559
0.123522
0.122063
0.122999
0.124946
0.127791
0.131495
0.136096
0.141755
0.148782
0.157656
0.168963
0.183221
0.200582
0.220569
0.242052
0.263539
0.283737
0.302413
0.31969
0.333121
0.344348
0.356121
0.368312
0.377952
0.380474
0.372077
0.354816
0.330473
0.302562
0.276231
0.255471
0.241267
0.232616
0.228896
0.23317
0.250003
0.272157
0.288127
0.293297
0.294118
0.297509
0.308358
0.335987
0.384349
0.428157
0.475662
0.531162
0.560569
0.573603
0.587706
0.543706
0.461335
0.383309
0.321234
0.271937
0.232401
0.201532
0.178575
0.162266
0.151031
0.143395
0.138224
0.134767
0.132586
0.131437
0.131175
0.131676
0.132816
0.134448
0.136408
0.138298
0.14014
0.142054
0.144264
0.147086
0.150894
0.156068
0.162946
0.171768
0.182605
0.195277
0.209267
0.223615
0.237014
0.24769
0.254948
0.259441
0.261423
0.261278
0.259373
0.255983
0.251276
0.245343
0.238231
0.229978
0.22064
0.21031
0.199135
0.187329
0.175161
0.16293
0.150927
0.13947
0.128792
0.119074
0.110456
0.103031
0.0968236
0.0917702
0.0877209
0.0844651
0.0817719
0.0794297
0.0772723
0.0751882
0.0731158
0.0710311
0.0689347
0.0668411
0.0647721
0.0627531
0.0608111
0.0589735
0.057267
0.0557154
0.054338
0.0531471
0.052147
0.0513329
0.050691
0.0501993
0.0498288
0.0495457
0.0493136
0.0490981
0.0488708
0.0486147
0.0483301
0.0480418
0.0478157
0.0478085
0.0484523
0.0510236
0.0589903
0.0805426
0.131444
0.234597
0.401585
0.559191
0.525763
0.386461
0.305342
0.256799
0.225247
0.208664
0.205493
0.214696
0.468078
0.263593
0.34379
0.366122
0.366445
0.365216
0.366071
0.365231
0.360202
0.349301
0.331705
0.307775
0.279177
0.248392
0.21795
0.18984
0.165311
0.144954
0.128873
0.116853
0.108469
0.103182
0.100413
0.0996125
0.100312
0.102142
0.104495
0.107263
0.110309
0.113492
0.116729
0.120111
0.124058
0.12944
0.1375
0.149419
0.16567
0.185593
0.20738
0.228514
0.247806
0.265981
0.284273
0.301839
0.318519
0.335752
0.352361
0.362974
0.36389
0.353515
0.331311
0.300415
0.267922
0.2409
0.221951
0.209679
0.202273
0.200536
0.209445
0.228513
0.249591
0.261854
0.265456
0.271339
0.290815
0.335579
0.409871
0.483488
0.560591
0.658072
0.661651
0.60201
0.534121
0.45237
0.372887
0.309384
0.260321
0.221675
0.191648
0.169326
0.153539
0.142865
0.135906
0.131501
0.128822
0.127344
0.126767
0.12691
0.127627
0.128769
0.13017
0.131684
0.133011
0.133949
0.134478
0.134712
0.134931
0.135553
0.137072
0.139978
0.144686
0.151503
0.160571
0.17185
0.184937
0.198992
0.212679
0.223922
0.232892
0.239395
0.243557
0.24568
0.246068
0.244948
0.242446
0.238619
0.233498
0.227118
0.219543
0.210868
0.201221
0.190765
0.179713
0.168324
0.156885
0.145698
0.135018
0.125034
0.115879
0.107648
0.100407
0.0941772
0.0889234
0.084551
0.080922
0.0778797
0.0752732
0.072974
0.070883
0.0689294
0.067067
0.0652686
0.0635226
0.0618287
0.0601955
0.0586364
0.0571672
0.0558033
0.0545578
0.0534405
0.0524566
0.0516057
0.0508812
0.0502702
0.049754
0.0493095
0.0489118
0.0485372
0.0481674
0.0477939
0.0474224
0.0470803
0.0468377
0.0468727
0.0476886
0.0507209
0.0597919
0.0840473
0.141234
0.256509
0.430125
0.553589
0.47687
0.346243
0.279071
0.23276
0.201672
0.185173
0.181416
0.189308
0.549305
0.271565
0.347461
0.366875
0.363445
0.359993
0.35797
0.353397
0.343119
0.325296
0.299976
0.269125
0.235873
0.203371
0.173971
0.148998
0.128924
0.113639
0.102686
0.0954079
0.0910754
0.0889788
0.0885038
0.0891725
0.0906569
0.0928629
0.0957513
0.0992193
0.103055
0.106919
0.110353
0.112861
0.114194
0.114834
0.116387
0.121195
0.131127
0.146642
0.1666
0.18791
0.207402
0.22488
0.241539
0.259246
0.27934
0.301525
0.324204
0.344066
0.356314
0.355764
0.338914
0.307201
0.268865
0.234724
0.210483
0.194806
0.184357
0.178346
0.18013
0.19302
0.213119
0.230531
0.239006
0.246772
0.270313
0.327597
0.423634
0.526439
0.643658
0.742062
0.688844
0.557626
0.458094
0.373555
0.306561
0.255966
0.217021
0.186965
0.164643
0.149005
0.138773
0.132586
0.129174
0.127518
0.126931
0.127026
0.127621
0.128623
0.129945
0.131463
0.133004
0.134361
0.13533
0.135675
0.135219
0.13399
0.132283
0.130644
0.129768
0.130335
0.13288
0.137761
0.14512
0.155011
0.16701
0.18058
0.193624
0.205705
0.216061
0.224304
0.230427
0.234625
0.237123
0.238072
0.237532
0.235498
0.231944
0.226885
0.220403
0.212659
0.203858
0.194217
0.183943
0.173244
0.162355
0.151514
0.140974
0.130948
0.121587
0.112991
0.105234
0.0983678
0.0924108
0.0873354
0.0830675
0.0794972
0.0764983
0.0739459
0.0717289
0.0697551
0.0679523
0.066267
0.0646626
0.0631174
0.0616223
0.0601773
0.0587887
0.0574658
0.0562187
0.0550571
0.053988
0.0530151
0.0521376
0.0513494
0.0506395
0.0499934
0.049395
0.0488299
0.0482892
0.0477733
0.0472958
0.0468918
0.0466405
0.0467412
0.0477532
0.0512301
0.0612396
0.087604
0.149703
0.273868
0.447208
0.539105
0.440285
0.320595
0.258927
0.212796
0.18243
0.166508
0.162632
0.169453
0.633087
0.26978
0.341489
0.360858
0.356588
0.352462
0.348651
0.340826
0.325587
0.301674
0.270563
0.235734
0.201102
0.169689
0.143167
0.122065
0.106164
0.0948241
0.0872059
0.0824354
0.0797265
0.0784669
0.0782537
0.0788802
0.0802888
0.0826697
0.0861208
0.0905922
0.0959175
0.101789
0.107654
0.11259
0.115353
0.115017
0.112405
0.11073
0.113664
0.123001
0.138859
0.159012
0.178476
0.195432
0.210669
0.227394
0.247244
0.27096
0.2981
0.326085
0.349405
0.360333
0.351716
0.321795
0.278433
0.236139
0.205341
0.186049
0.173153
0.164017
0.16064
0.167336
0.183426
0.202063
0.214717
0.22485
0.250601
0.315952
0.424513
0.537365
0.672658
0.765052
0.654655
0.49039
0.387961
0.312879
0.25818
0.217432
0.186398
0.16334
0.147245
0.136988
0.131243
0.128587
0.127719
0.127684
0.127969
0.128412
0.129049
0.129976
0.131249
0.132826
0.134553
0.136158
0.137522
0.138161
0.13764
0.13577
0.132753
0.129224
0.126132
0.124469
0.124981
0.128122
0.134031
0.14269
0.153719
0.166024
0.179036
0.191739
0.203247
0.213033
0.22095
0.227086
0.231586
0.23454
0.235951
0.235739
0.233785
0.229995
0.224378
0.217101
0.208482
0.198909
0.188735
0.178231
0.167619
0.157018
0.146614
0.136604
0.127148
0.118355
0.110301
0.103042
0.0966191
0.0910439
0.0862871
0.0822791
0.078921
0.0761005
0.0737063
0.0716373
0.0698068
0.0681441
0.0665941
0.0651176
0.0636899
0.0622981
0.0609392
0.0596162
0.0583362
0.0571075
0.0559382
0.0548343
0.0537989
0.0528309
0.0519259
0.0510764
0.0502745
0.0495143
0.0487956
0.0481271
0.0475304
0.0470485
0.046772
0.0469223
0.0481059
0.0519667
0.0627335
0.0906528
0.156287
0.28605
0.454582
0.521574
0.414611
0.307109
0.243516
0.196633
0.167087
0.151846
0.148099
0.154231
0.719141
0.261763
0.329578
0.351552
0.348141
0.344449
0.339916
0.329824
0.31076
0.282322
0.247421
0.210661
0.176208
0.14662
0.12285
0.10477
0.0916622
0.0825456
0.0763956
0.0723068
0.069599
0.0678657
0.066968
0.0669709
0.0680507
0.0705092
0.0743743
0.0796332
0.0861359
0.0936969
0.101981
0.110239
0.116932
0.119661
0.116989
0.111469
0.108612
0.111754
0.12222
0.139461
0.157668
0.17408
0.189068
0.204854
0.223737
0.247399
0.276643
0.310247
0.343158
0.366051
0.368057
0.342976
0.296327
0.24521
0.20603
0.182176
0.167124
0.155762
0.148778
0.150442
0.162117
0.179516
0.194421
0.206761
0.234028
0.303672
0.415731
0.531128
0.676537
0.745892
0.592484
0.424691
0.330993
0.267624
0.2228
0.189575
0.164917
0.147585
0.13659
0.130707
0.128396
0.128014
0.128216
0.128242
0.127897
0.127351
0.126926
0.126948
0.12765
0.129084
0.131084
0.133459
0.135931
0.137765
0.138237
0.136843
0.133538
0.128915
0.124124
0.120575
0.119327
0.12099
0.125843
0.133317
0.143163
0.154923
0.167862
0.181033
0.193497
0.204605
0.214074
0.221888
0.228126
0.232861
0.236102
0.237769
0.237677
0.235576
0.231249
0.224663
0.216089
0.206072
0.195258
0.184202
0.173288
0.16256
0.152104
0.142041
0.132494
0.12356
0.115304
0.107779
0.101026
0.0950743
0.0899247
0.0855399
0.0818481
0.0787545
0.0761547
0.0739464
0.0720357
0.0703407
0.0687931
0.0673396
0.0659414
0.064574
0.0632247
0.0618899
0.0605722
0.059278
0.0580148
0.0567896
0.0556076
0.0544719
0.0533831
0.0523403
0.051343
0.0503936
0.0495
0.0486788
0.0479586
0.0473892
0.0470718
0.0472479
0.0485616
0.0527178
0.0640204
0.0928909
0.160595
0.292772
0.45441
0.504473
0.398857
0.300436
0.234526
0.184148
0.155013
0.140308
0.136829
0.142669
0.790686
0.269616
0.313367
0.341805
0.340054
0.337596
0.333589
0.322773
0.301559
0.27021
0.232835
0.194919
0.160745
0.132447
0.110427
0.0941051
0.0824398
0.074257
0.0684602
0.0641738
0.0608265
0.0581789
0.056309
0.0555559
0.0564068
0.0590375
0.063344
0.0693615
0.0768112
0.0855416
0.095329
0.105746
0.115695
0.122512
0.122835
0.116943
0.110836
0.109267
0.114675
0.126938
0.142989
0.159064
0.173945
0.189137
0.20706
0.230005
0.25983
0.296852
0.337363
0.371726
0.386062
0.369117
0.322095
0.262534
0.213001
0.182743
0.165182
0.152196
0.142721
0.140656
0.148625
0.164015
0.179616
0.193516
0.221872
0.292688
0.401054
0.514912
0.661528
0.69954
0.526601
0.368824
0.286899
0.233962
0.196716
0.169408
0.149947
0.137342
0.130565
0.128115
0.128056
0.128526
0.128318
0.127052
0.124948
0.122519
0.120364
0.119024
0.118877
0.120053
0.122371
0.125746
0.12961
0.133102
0.135277
0.1353
0.132765
0.128048
0.122361
0.117494
0.114916
0.115473
0.119188
0.125853
0.135093
0.146463
0.159354
0.172901
0.186136
0.198293
0.208951
0.217982
0.225416
0.231356
0.235918
0.239156
0.240975
0.241063
0.238923
0.234078
0.226376
0.216219
0.204481
0.192241
0.180262
0.168754
0.157805
0.147439
0.137685
0.128577
0.120146
0.112417
0.10542
0.099182
0.0937177
0.0890124
0.0850181
0.0816588
0.0788415
0.0764677
0.0744418
0.0726756
0.0710919
0.0696261
0.0682282
0.0668625
0.0655069
0.0641508
0.062792
0.0614338
0.0600824
0.0587449
0.057428
0.0561374
0.0548782
0.0536553
0.0524749
0.0513473
0.0502882
0.0493212
0.0484807
0.0478219
0.0474537
0.0476329
0.0490291
0.053379
0.0649765
0.0941671
0.162422
0.294132
0.448703
0.489339
0.391047
0.298781
0.229677
0.177481
0.145999
0.131119
0.127903
0.133779
0.827101
0.312599
0.297549
0.329222
0.333306
0.332703
0.33014
0.320531
0.299687
0.267612
0.228853
0.189653
0.154759
0.126317
0.104535
0.0886875
0.0774248
0.0694212
0.0635283
0.0588397
0.0547447
0.0509808
0.0477605
0.0460244
0.0474101
0.0506014
0.055487
0.0622676
0.0705699
0.0803261
0.0912043
0.102775
0.114233
0.123344
0.126545
0.122698
0.11572
0.111107
0.112423
0.120686
0.134014
0.148892
0.163331
0.17805
0.195195
0.217245
0.246762
0.285462
0.331463
0.37604
0.403596
0.398024
0.354684
0.288769
0.227548
0.188259
0.166881
0.15235
0.14114
0.13645
0.141656
0.155099
0.170477
0.185195
0.214195
0.283708
0.383826
0.494269
0.633628
0.641035
0.467076
0.32697
0.253593
0.208752
0.177308
0.154711
0.139501
0.130849
0.127556
0.127641
0.128708
0.128844
0.127198
0.123873
0.119492
0.114874
0.11084
0.108077
0.107048
0.107934
0.11056
0.114752
0.119797
0.124824
0.128796
0.130644
0.12959
0.125641
0.119974
0.11448
0.111127
0.110762
0.113783
0.119989
0.128912
0.140095
0.15302
0.166899
0.180733
0.19363
0.205014
0.214627
0.222454
0.228671
0.233584
0.237521
0.240677
0.242925
0.243695
0.242039
0.237016
0.228277
0.216443
0.203109
0.189485
0.176437
0.164316
0.153164
0.142913
0.133487
0.124828
0.116905
0.109708
0.103248
0.0975344
0.0925646
0.0883068
0.0847018
0.0816693
0.0791181
0.0769546
0.0750885
0.073437
0.071928
0.070502
0.0691138
0.0677329
0.0663414
0.0649322
0.0635053
0.0620652
0.0606187
0.0591734
0.0577373
0.0563191
0.0549289
0.0535793
0.0522874
0.051076
0.049975
0.0490232
0.0482793
0.047856
0.0480184
0.0494467
0.0538804
0.0655295
0.0944258
0.16173
0.290517
0.438896
0.476427
0.388955
0.301191
0.229277
0.174774
0.141094
0.124346
0.120502
0.126721
0.766256
0.369224
0.296135
0.314021
0.32612
0.329363
0.328571
0.321124
0.302766
0.272666
0.23476
0.195289
0.159434
0.129839
0.107003
0.0901512
0.0779865
0.0692197
0.06271
0.0575559
0.0531505
0.0492337
0.0459442
0.0440133
0.0450037
0.0483438
0.0534873
0.0603948
0.0691112
0.0795131
0.0911766
0.103484
0.115552
0.125465
0.129968
0.127247
0.120164
0.114059
0.112919
0.118318
0.129107
0.142316
0.15586
0.169978
0.186411
0.207503
0.236132
0.27511
0.324498
0.377441
0.4182
0.426834
0.392034
0.323927
0.251424
0.200305
0.172694
0.155899
0.143255
0.136708
0.139861
0.151546
0.166073
0.180897
0.210174
0.276674
0.366559
0.47274
0.598511
0.581791
0.418655
0.295097
0.229856
0.190534
0.163245
0.144201
0.132282
0.126803
0.126359
0.128251
0.129638
0.128753
0.125233
0.119663
0.113017
0.106367
0.100694
0.0967577
0.0950128
0.0956055
0.0984279
0.10307
0.108792
0.114818
0.120151
0.123633
0.1242
0.121472
0.116621
0.111373
0.107551
0.106645
0.109311
0.115372
0.124259
0.13547
0.14855
0.162762
0.177052
0.190379
0.201985
0.211469
0.218786
0.22422
0.228306
0.231692
0.234964
0.238422
0.24182
0.244149
0.243757
0.239028
0.229481
0.216407
0.201431
0.18638
0.172354
0.159741
0.148507
0.138466
0.129427
0.121251
0.113857
0.107209
0.101298
0.0961147
0.0916362
0.0878146
0.0845809
0.0818522
0.0795393
0.077553
0.0758082
0.0742278
0.0727457
0.0713091
0.0698798
0.0684337
0.0669587
0.0654516
0.0639154
0.0623567
0.0607838
0.059207
0.0576383
0.0560922
0.0545869
0.0531458
0.0517979
0.0505781
0.0495287
0.0487092
0.0482325
0.0483622
0.0497725
0.0541758
0.0656405
0.0936837
0.158636
0.282494
0.425742
0.465281
0.390556
0.306995
0.233332
0.176106
0.139665
0.120616
0.115406
0.121031
0.593321
0.409203
0.314094
0.30262
0.313834
0.323441
0.3269
0.322929
0.308906
0.283519
0.249243
0.211369
0.175171
0.143996
0.119023
0.0999263
0.0857159
0.0752471
0.067456
0.0614821
0.0567361
0.0529341
0.0500987
0.0486121
0.0495345
0.0526419
0.0577874
0.0649354
0.074049
0.0849258
0.0970639
0.109685
0.121667
0.130983
0.134647
0.131231
0.123542
0.116578
0.114143
0.117803
0.126627
0.138096
0.150418
0.163707
0.179337
0.199337
0.226585
0.264597
0.315233
0.374146
0.42706
0.451937
0.430846
0.366589
0.286005
0.221406
0.184291
0.163424
0.148948
0.140873
0.142289
0.152106
0.165108
0.179439
0.208948
0.271423
0.350928
0.452185
0.560981
0.528812
0.381932
0.272255
0.212956
0.177334
0.153073
0.136734
0.1274
0.124427
0.12607
0.129204
0.130708
0.128706
0.123337
0.11573
0.107138
0.0988357
0.0919117
0.087113
0.0848216
0.0851497
0.0880355
0.0927767
0.0986873
0.105112
0.111156
0.115721
0.117518
0.116306
0.11261
0.10785
0.104034
0.102979
0.105616
0.111823
0.120933
0.132388
0.145771
0.160358
0.175005
0.188487
0.199843
0.208548
0.21458
0.218383