/*--------------------------------*- C++ -*----------------------------------*\
| =========                 |                                                 |
| \\      /  F ield         | OpenFOAM: The Open Source CFD Toolbox           |
|  \\    /   O peration     | Version:  2112                                  |
|   \\  /    A nd           | Website:  www.openfoam.com                      |
|    \\/     M anipulation  |                                                 |
\*---------------------------------------------------------------------------*/
FoamFile
{
    version     2.0;
    format      ascii;
    arch        "LSB;label=32;scalar=64";
    class       volScalarField;
    location    "0.008";
    object      pPrime2Mean;
}
// * * * * * * * * * * * * * * * * * * * * * * * * * * * * * * * * * * * * * //

dimensions      [0 4 -4 0 0 0 0];

internalField   nonuniform List<scalar> 
12225
(
5.09959e+07
5.01789e+07
4.93386e+07
4.85279e+07
4.77492e+07
4.70002e+07
4.62789e+07
4.55832e+07
4.49108e+07
4.42591e+07
4.36255e+07
4.3007e+07
4.24e+07
4.17997e+07
4.11999e+07
4.05908e+07
3.99546e+07
3.92469e+07
5.09963e+07
5.01793e+07
4.9339e+07
4.85283e+07
4.77496e+07
4.70007e+07
4.62795e+07
4.5584e+07
4.49117e+07
4.42602e+07
4.3627e+07
4.30089e+07
4.24025e+07
4.18032e+07
4.12051e+07
4.05991e+07
3.99705e+07
3.92858e+07
5.0997e+07
5.01802e+07
4.93398e+07
4.85292e+07
4.77506e+07
4.70018e+07
4.62809e+07
4.55856e+07
4.49136e+07
4.42627e+07
4.36301e+07
4.3013e+07
4.24079e+07
4.18108e+07
4.12162e+07
4.06169e+07
4.00022e+07
3.93592e+07
5.09987e+07
5.01817e+07
4.93412e+07
4.85307e+07
4.77522e+07
4.70037e+07
4.62831e+07
4.55882e+07
4.49169e+07
4.42668e+07
4.36353e+07
4.30197e+07
4.24169e+07
4.18231e+07
4.1234e+07
4.06443e+07
4.00486e+07
3.94474e+07
5.10022e+07
5.01839e+07
4.93433e+07
4.85328e+07
4.77546e+07
4.70064e+07
4.62863e+07
4.55922e+07
4.49217e+07
4.42728e+07
4.36429e+07
4.30295e+07
4.24298e+07
4.18407e+07
4.12589e+07
4.06813e+07
4.01069e+07
3.95426e+07
5.10054e+07
5.01868e+07
4.93461e+07
4.85357e+07
4.77578e+07
4.70102e+07
4.62908e+07
4.55976e+07
4.49284e+07
4.4281e+07
4.36532e+07
4.30427e+07
4.24471e+07
4.18639e+07
4.1291e+07
4.07272e+07
4.01742e+07
3.96412e+07
5.10099e+07
5.01906e+07
4.93498e+07
4.85396e+07
4.77621e+07
4.70152e+07
4.62967e+07
4.56047e+07
4.4937e+07
4.42917e+07
4.36666e+07
4.30598e+07
4.24692e+07
4.1893e+07
4.13302e+07
4.0781e+07
4.02485e+07
3.97415e+07
5.10155e+07
5.01955e+07
4.93544e+07
4.85446e+07
4.77677e+07
4.70216e+07
4.63043e+07
4.56137e+07
4.4948e+07
4.43053e+07
4.36835e+07
4.3081e+07
4.24963e+07
4.19281e+07
4.13761e+07
4.08416e+07
4.0328e+07
3.98426e+07
5.10217e+07
5.02014e+07
4.93603e+07
4.85507e+07
4.77746e+07
4.70295e+07
4.63137e+07
4.5625e+07
4.49617e+07
4.43219e+07
4.37041e+07
4.31067e+07
4.25285e+07
4.1969e+07
4.14284e+07
4.09081e+07
4.04116e+07
3.99442e+07
5.10303e+07
5.02086e+07
4.93674e+07
4.85583e+07
4.7783e+07
4.70393e+07
4.63251e+07
4.56387e+07
4.49782e+07
4.4342e+07
4.37286e+07
4.31369e+07
4.2566e+07
4.20156e+07
4.14863e+07
4.09795e+07
4.04982e+07
4.00461e+07
5.10391e+07
5.0217e+07
4.93759e+07
4.85674e+07
4.77932e+07
4.7051e+07
4.63389e+07
4.5655e+07
4.49978e+07
4.43656e+07
4.37573e+07
4.31718e+07
4.26085e+07
4.20675e+07
4.15492e+07
4.10551e+07
4.05872e+07
4.0148e+07
5.10486e+07
5.0226e+07
4.9385e+07
4.85773e+07
4.78043e+07
4.70638e+07
4.63538e+07
4.56726e+07
4.50187e+07
4.43907e+07
4.37874e+07
4.3208e+07
4.2652e+07
4.21195e+07
4.16109e+07
4.11274e+07
4.06704e+07
4.02415e+07
5.10575e+07
5.0236e+07
4.93954e+07
4.85885e+07
4.78169e+07
4.70782e+07
4.63706e+07
4.56924e+07
4.50422e+07
4.44185e+07
4.38205e+07
4.32473e+07
4.26986e+07
4.21744e+07
4.1675e+07
4.12013e+07
4.0754e+07
4.0334e+07
5.10715e+07
5.0249e+07
4.94088e+07
4.86031e+07
4.78333e+07
4.70971e+07
4.63926e+07
4.57181e+07
4.50723e+07
4.4454e+07
4.38622e+07
4.32963e+07
4.27559e+07
4.22408e+07
4.17513e+07
4.12876e+07
4.08501e+07
4.04391e+07
5.10912e+07
5.02659e+07
4.94262e+07
4.86222e+07
4.78548e+07
4.71217e+07
4.6421e+07
4.57511e+07
4.51108e+07
4.44988e+07
4.39143e+07
4.33566e+07
4.28253e+07
4.23199e+07
4.18406e+07
4.13871e+07
4.09593e+07
4.05569e+07
5.11082e+07
5.02857e+07
4.94481e+07
4.86467e+07
4.78825e+07
4.71533e+07
4.64573e+07
4.5793e+07
4.5159e+07
4.45544e+07
4.39781e+07
4.34294e+07
4.29077e+07
4.24124e+07
4.19432e+07
4.14997e+07
4.10812e+07
4.06871e+07
5.11262e+07
5.03093e+07
4.94756e+07
4.86777e+07
4.79176e+07
4.71932e+07
4.65027e+07
4.58449e+07
4.52182e+07
4.46217e+07
4.40542e+07
4.35149e+07
4.3003e+07
4.25178e+07
4.20585e+07
4.16243e+07
4.12146e+07
4.08283e+07
5.11538e+07
5.03401e+07
4.95101e+07
4.87164e+07
4.7961e+07
4.7242e+07
4.65579e+07
4.59071e+07
4.52884e+07
4.47003e+07
4.41419e+07
4.36121e+07
4.31098e+07
4.26341e+07
4.2184e+07
4.17585e+07
4.13566e+07
4.09773e+07
5.11908e+07
5.03797e+07
4.95528e+07
4.8763e+07
4.80124e+07
4.72993e+07
4.66218e+07
4.59783e+07
4.53675e+07
4.47879e+07
4.42383e+07
4.37174e+07
4.32239e+07
4.27569e+07
4.2315e+07
4.18971e+07
4.15022e+07
4.1129e+07
5.12332e+07
5.04186e+07
4.95916e+07
4.88039e+07
4.80567e+07
4.73478e+07
4.66752e+07
4.60372e+07
4.54321e+07
4.48585e+07
4.43151e+07
4.38003e+07
4.33128e+07
4.28515e+07
4.2415e+07
4.20022e+07
4.16117e+07
4.12426e+07
5.12612e+07
5.04451e+07
4.96186e+07
4.88324e+07
4.80875e+07
4.73813e+07
4.67118e+07
4.60772e+07
4.54758e+07
4.4906e+07
4.43663e+07
4.38553e+07
4.33715e+07
4.29136e+07
4.24804e+07
4.20705e+07
4.16827e+07
4.13159e+07
5.12761e+07
5.0463e+07
4.9638e+07
4.88533e+07
4.81102e+07
4.74061e+07
4.67389e+07
4.61067e+07
4.55079e+07
4.49407e+07
4.44035e+07
4.38951e+07
4.34137e+07
4.29582e+07
4.25271e+07
4.21192e+07
4.17332e+07
4.1368e+07
5.12891e+07
5.04759e+07
4.96519e+07
4.88684e+07
4.81266e+07
4.7424e+07
4.67584e+07
4.6128e+07
4.55309e+07
4.49655e+07
4.44302e+07
4.39234e+07
4.34438e+07
4.29898e+07
4.25602e+07
4.21537e+07
4.17689e+07
4.14047e+07
5.12965e+07
5.04844e+07
4.96614e+07
4.8879e+07
4.81383e+07
4.74368e+07
4.67723e+07
4.61431e+07
4.55472e+07
4.4983e+07
4.44489e+07
4.39434e+07
4.34649e+07
4.3012e+07
4.25834e+07
4.21778e+07
4.17938e+07
4.14303e+07
5.12984e+07
5.04895e+07
4.96679e+07
4.88863e+07
4.81463e+07
4.74456e+07
4.67819e+07
4.61535e+07
4.55585e+07
4.49952e+07
4.44619e+07
4.39572e+07
4.34794e+07
4.30273e+07
4.25993e+07
4.21943e+07
4.18109e+07
4.14479e+07
5.13007e+07
5.0493e+07
4.96721e+07
4.88912e+07
4.81517e+07
4.74515e+07
4.67884e+07
4.61605e+07
4.55661e+07
4.50033e+07
4.44706e+07
4.39664e+07
4.34892e+07
4.30375e+07
4.261e+07
4.22054e+07
4.18223e+07
4.14596e+07
5.1303e+07
5.04953e+07
4.96749e+07
4.88943e+07
4.81552e+07
4.74554e+07
4.67926e+07
4.61651e+07
4.5571e+07
4.50086e+07
4.44762e+07
4.39723e+07
4.34955e+07
4.30441e+07
4.26169e+07
4.22125e+07
4.18297e+07
4.14672e+07
5.13046e+07
5.04968e+07
4.96765e+07
4.88962e+07
4.81574e+07
4.74577e+07
4.67951e+07
4.61678e+07
4.55739e+07
4.50118e+07
4.44796e+07
4.3976e+07
4.34993e+07
4.30481e+07
4.2621e+07
4.22168e+07
4.18341e+07
4.14718e+07
5.13047e+07
5.04975e+07
4.96774e+07
4.88972e+07
4.81585e+07
4.74589e+07
4.67965e+07
4.61693e+07
4.55755e+07
4.50135e+07
4.44815e+07
4.39779e+07
4.35013e+07
4.30502e+07
4.26233e+07
4.22191e+07
4.18365e+07
4.14742e+07
5.13051e+07
5.04978e+07
4.96778e+07
4.88976e+07
4.8159e+07
4.74594e+07
4.67971e+07
4.61699e+07
4.55762e+07
4.50142e+07
4.44822e+07
4.39787e+07
4.35021e+07
4.30511e+07
4.26242e+07
4.22201e+07
4.18375e+07
4.14752e+07
3.31674e+07
3.31648e+07
3.31595e+07
3.31514e+07
3.31405e+07
3.31268e+07
3.31102e+07
3.30906e+07
3.3068e+07
3.30425e+07
3.30139e+07
3.29822e+07
3.29474e+07
3.29096e+07
3.28685e+07
3.28244e+07
3.2777e+07
3.27266e+07
3.26729e+07
3.26161e+07
3.25562e+07
3.24931e+07
3.24269e+07
3.23576e+07
3.22852e+07
3.22097e+07
3.21312e+07
3.20497e+07
3.19652e+07
3.18777e+07
3.17874e+07
3.16941e+07
3.15981e+07
3.14992e+07
3.13975e+07
3.12932e+07
3.11862e+07
3.10765e+07
3.09642e+07
3.08494e+07
3.07321e+07
3.06124e+07
3.04902e+07
3.03657e+07
3.02388e+07
3.01097e+07
2.99783e+07
2.98448e+07
2.97091e+07
2.95712e+07
2.94313e+07
2.92894e+07
2.91455e+07
2.89996e+07
2.88519e+07
2.87022e+07
2.85508e+07
2.83975e+07
2.82424e+07
2.80857e+07
2.79272e+07
2.77671e+07
2.76054e+07
2.74421e+07
2.72772e+07
2.71108e+07
2.69429e+07
2.67735e+07
2.66028e+07
2.64306e+07
2.6257e+07
2.60821e+07
2.59058e+07
2.57283e+07
2.55495e+07
2.53695e+07
2.51883e+07
2.50058e+07
2.48222e+07
2.46375e+07
2.44517e+07
2.42647e+07
2.40767e+07
2.38877e+07
2.36976e+07
2.35065e+07
2.33144e+07
2.31214e+07
2.29274e+07
2.27325e+07
2.25367e+07
2.23401e+07
2.21426e+07
2.19442e+07
2.1745e+07
2.1545e+07
2.13443e+07
2.11427e+07
2.09405e+07
2.07375e+07
2.05338e+07
2.03294e+07
2.01243e+07
1.99186e+07
1.97123e+07
1.95053e+07
1.92978e+07
1.90897e+07
1.8881e+07
1.86718e+07
1.84621e+07
1.82519e+07
1.80412e+07
1.783e+07
1.76185e+07
1.74065e+07
1.71941e+07
1.69813e+07
1.67682e+07
1.65547e+07
1.63409e+07
1.61269e+07
1.59126e+07
1.5698e+07
1.54832e+07
1.52682e+07
1.50531e+07
1.48378e+07
1.46223e+07
1.44068e+07
1.41912e+07
1.39756e+07
1.37599e+07
1.35443e+07
1.33286e+07
1.31131e+07
1.28976e+07
1.26823e+07
1.24671e+07
1.22521e+07
1.20373e+07
1.18227e+07
1.16084e+07
1.13945e+07
1.11809e+07
1.09676e+07
1.07548e+07
1.05425e+07
1.03306e+07
1.01193e+07
9.90848e+06
9.6983e+06
9.48877e+06
9.27992e+06
9.0718e+06
8.86445e+06
8.65792e+06
8.45225e+06
8.24748e+06
8.04367e+06
7.84086e+06
7.63911e+06
7.43846e+06
7.23896e+06
7.04069e+06
6.84369e+06
6.64802e+06
6.45375e+06
6.26095e+06
6.06969e+06
5.88006e+06
5.69213e+06
5.50602e+06
5.32184e+06
5.13973e+06
4.95987e+06
4.78251e+06
4.608e+06
4.43697e+06
4.27074e+06
3.31794e+07
3.31768e+07
3.31714e+07
3.31633e+07
3.31523e+07
3.31385e+07
3.31218e+07
3.31021e+07
3.30794e+07
3.30537e+07
3.3025e+07
3.29931e+07
3.29582e+07
3.29201e+07
3.28789e+07
3.28345e+07
3.27869e+07
3.27362e+07
3.26824e+07
3.26253e+07
3.25651e+07
3.25018e+07
3.24353e+07
3.23658e+07
3.22931e+07
3.22174e+07
3.21386e+07
3.20569e+07
3.19721e+07
3.18844e+07
3.17938e+07
3.17003e+07
3.1604e+07
3.15049e+07
3.1403e+07
3.12984e+07
3.11912e+07
3.10813e+07
3.09688e+07
3.08538e+07
3.07363e+07
3.06164e+07
3.0494e+07
3.03693e+07
3.02423e+07
3.0113e+07
2.99815e+07
2.98478e+07
2.97119e+07
2.95739e+07
2.94339e+07
2.92919e+07
2.91478e+07
2.90018e+07
2.88539e+07
2.87042e+07
2.85526e+07
2.83992e+07
2.82441e+07
2.80873e+07
2.79287e+07
2.77685e+07
2.76067e+07
2.74433e+07
2.72784e+07
2.71119e+07
2.69439e+07
2.67745e+07
2.66037e+07
2.64314e+07
2.62578e+07
2.60829e+07
2.59066e+07
2.5729e+07
2.55502e+07
2.53701e+07
2.51888e+07
2.50064e+07
2.48227e+07
2.4638e+07
2.44521e+07
2.42651e+07
2.40771e+07
2.3888e+07
2.36979e+07
2.35068e+07
2.33147e+07
2.31217e+07
2.29277e+07
2.27328e+07
2.2537e+07
2.23403e+07
2.21427e+07
2.19444e+07
2.17452e+07
2.15452e+07
2.13444e+07
2.11429e+07
2.09406e+07
2.07376e+07
2.05339e+07
2.03295e+07
2.01244e+07
1.99187e+07
1.97124e+07
1.95054e+07
1.92979e+07
1.90898e+07
1.88811e+07
1.86719e+07
1.84621e+07
1.82519e+07
1.80412e+07
1.78301e+07
1.76185e+07
1.74065e+07
1.71941e+07
1.69813e+07
1.67682e+07
1.65547e+07
1.6341e+07
1.61269e+07
1.59126e+07
1.5698e+07
1.54832e+07
1.52682e+07
1.50531e+07
1.48378e+07
1.46224e+07
1.44068e+07
1.41912e+07
1.39756e+07
1.37599e+07
1.35443e+07
1.33286e+07
1.31131e+07
1.28976e+07
1.26823e+07
1.24671e+07
1.22521e+07
1.20373e+07
1.18227e+07
1.16084e+07
1.13945e+07
1.11809e+07
1.09677e+07
1.07548e+07
1.05425e+07
1.03306e+07
1.01193e+07
9.90848e+06
9.6983e+06
9.48877e+06
9.27992e+06
9.0718e+06
8.86445e+06
8.65792e+06
8.45225e+06
8.24748e+06
8.04367e+06
7.84086e+06
7.6391e+06
7.43845e+06
7.23896e+06
7.04068e+06
6.84368e+06
6.64801e+06
6.45374e+06
6.26093e+06
6.06967e+06
5.88002e+06
5.69209e+06
5.50596e+06
5.32176e+06
5.13963e+06
4.95973e+06
4.7823e+06
4.60768e+06
4.4364e+06
4.26939e+06
3.32035e+07
3.32008e+07
3.31954e+07
3.31871e+07
3.3176e+07
3.3162e+07
3.31451e+07
3.31252e+07
3.31023e+07
3.30763e+07
3.30472e+07
3.3015e+07
3.29797e+07
3.29412e+07
3.28996e+07
3.28548e+07
3.28068e+07
3.27556e+07
3.27013e+07
3.26437e+07
3.25831e+07
3.25192e+07
3.24523e+07
3.23822e+07
3.2309e+07
3.22328e+07
3.21535e+07
3.20712e+07
3.19859e+07
3.18977e+07
3.18066e+07
3.17127e+07
3.16159e+07
3.15163e+07
3.14139e+07
3.13089e+07
3.12012e+07
3.10909e+07
3.0978e+07
3.08626e+07
3.07447e+07
3.06244e+07
3.05017e+07
3.03766e+07
3.02492e+07
3.01196e+07
2.99878e+07
2.98537e+07
2.97176e+07
2.95793e+07
2.9439e+07
2.92967e+07
2.91524e+07
2.90062e+07
2.88581e+07
2.87081e+07
2.85563e+07
2.84027e+07
2.82474e+07
2.80904e+07
2.79317e+07
2.77713e+07
2.76094e+07
2.74458e+07
2.72807e+07
2.71141e+07
2.6946e+07
2.67765e+07
2.66055e+07
2.64332e+07
2.62595e+07
2.60844e+07
2.5908e+07
2.57304e+07
2.55514e+07
2.53713e+07
2.51899e+07
2.50074e+07
2.48237e+07
2.46389e+07
2.4453e+07
2.42659e+07
2.40778e+07
2.38887e+07
2.36986e+07
2.35074e+07
2.33153e+07
2.31222e+07
2.29282e+07
2.27332e+07
2.25374e+07
2.23407e+07
2.21431e+07
2.19447e+07
2.17455e+07
2.15455e+07
2.13447e+07
2.11431e+07
2.09408e+07
2.07378e+07
2.05341e+07
2.03297e+07
2.01246e+07
1.99189e+07
1.97125e+07
1.95056e+07
1.9298e+07
1.90899e+07
1.88812e+07
1.8672e+07
1.84622e+07
1.8252e+07
1.80413e+07
1.78301e+07
1.76186e+07
1.74065e+07
1.71941e+07
1.69814e+07
1.67682e+07
1.65548e+07
1.6341e+07
1.61269e+07
1.59126e+07
1.5698e+07
1.54833e+07
1.52683e+07
1.50531e+07
1.48378e+07
1.46224e+07
1.44068e+07
1.41912e+07
1.39756e+07
1.37599e+07
1.35443e+07
1.33286e+07
1.31131e+07
1.28976e+07
1.26823e+07
1.24671e+07
1.22521e+07
1.20373e+07
1.18227e+07
1.16085e+07
1.13945e+07
1.11809e+07
1.09677e+07
1.07548e+07
1.05425e+07
1.03306e+07
1.01193e+07
9.90848e+06
9.6983e+06
9.48877e+06
9.27992e+06
9.0718e+06
8.86445e+06
8.65792e+06
8.45225e+06
8.24748e+06
8.04366e+06
7.84085e+06
7.6391e+06
7.43844e+06
7.23895e+06
7.04067e+06
6.84366e+06
6.64798e+06
6.45371e+06
6.26089e+06
6.06962e+06
5.87996e+06
5.692e+06
5.50585e+06
5.32161e+06
5.13943e+06
4.95945e+06
4.7819e+06
4.60707e+06
4.43536e+06
4.26728e+06
3.32398e+07
3.3237e+07
3.32315e+07
3.32231e+07
3.32118e+07
3.31975e+07
3.31803e+07
3.316e+07
3.31367e+07
3.31102e+07
3.30807e+07
3.3048e+07
3.30121e+07
3.2973e+07
3.29308e+07
3.28853e+07
3.28366e+07
3.27848e+07
3.27297e+07
3.26714e+07
3.261e+07
3.25454e+07
3.24777e+07
3.24068e+07
3.23328e+07
3.22558e+07
3.21758e+07
3.20927e+07
3.20067e+07
3.19177e+07
3.18259e+07
3.17311e+07
3.16336e+07
3.15333e+07
3.14303e+07
3.13246e+07
3.12162e+07
3.11052e+07
3.09917e+07
3.08757e+07
3.07572e+07
3.06363e+07
3.05131e+07
3.03875e+07
3.02596e+07
3.01294e+07
2.99971e+07
2.98626e+07
2.9726e+07
2.95874e+07
2.94467e+07
2.93039e+07
2.91593e+07
2.90127e+07
2.88643e+07
2.8714e+07
2.85619e+07
2.8408e+07
2.82524e+07
2.80951e+07
2.79361e+07
2.77755e+07
2.76133e+07
2.74495e+07
2.72842e+07
2.71174e+07
2.69492e+07
2.67794e+07
2.66083e+07
2.64358e+07
2.62619e+07
2.60867e+07
2.59102e+07
2.57324e+07
2.55534e+07
2.53731e+07
2.51916e+07
2.5009e+07
2.48252e+07
2.46403e+07
2.44542e+07
2.42671e+07
2.4079e+07
2.38898e+07
2.36995e+07
2.35083e+07
2.33161e+07
2.3123e+07
2.29289e+07
2.27339e+07
2.2538e+07
2.23413e+07
2.21437e+07
2.19452e+07
2.1746e+07
2.15459e+07
2.13451e+07
2.11435e+07
2.09412e+07
2.07381e+07
2.05344e+07
2.03299e+07
2.01248e+07
1.99191e+07
1.97127e+07
1.95058e+07
1.92982e+07
1.909e+07
1.88813e+07
1.86721e+07
1.84624e+07
1.82521e+07
1.80414e+07
1.78302e+07
1.76186e+07
1.74066e+07
1.71942e+07
1.69814e+07
1.67683e+07
1.65548e+07
1.63411e+07
1.6127e+07
1.59127e+07
1.56981e+07
1.54833e+07
1.52683e+07
1.50531e+07
1.48378e+07
1.46224e+07
1.44069e+07
1.41913e+07
1.39756e+07
1.37599e+07
1.35443e+07
1.33287e+07
1.31131e+07
1.28976e+07
1.26823e+07
1.24671e+07
1.22521e+07
1.20373e+07
1.18227e+07
1.16085e+07
1.13945e+07
1.11809e+07
1.09677e+07
1.07548e+07
1.05425e+07
1.03306e+07
1.01193e+07
9.90848e+06
9.6983e+06
9.48877e+06
9.27992e+06
9.0718e+06
8.86445e+06
8.65792e+06
8.45224e+06
8.24747e+06
8.04366e+06
7.84085e+06
7.63908e+06
7.43843e+06
7.23893e+06
7.04064e+06
6.84363e+06
6.64795e+06
6.45366e+06
6.26083e+06
6.06954e+06
5.87986e+06
5.69188e+06
5.50569e+06
5.3214e+06
5.13914e+06
4.95905e+06
4.78133e+06
4.60621e+06
4.43397e+06
4.26483e+06
3.32886e+07
3.32857e+07
3.328e+07
3.32713e+07
3.32597e+07
3.32451e+07
3.32274e+07
3.32067e+07
3.31828e+07
3.31558e+07
3.31255e+07
3.30921e+07
3.30555e+07
3.30156e+07
3.29725e+07
3.29261e+07
3.28765e+07
3.28237e+07
3.27677e+07
3.27084e+07
3.26459e+07
3.25803e+07
3.25115e+07
3.24396e+07
3.23646e+07
3.22866e+07
3.22055e+07
3.21214e+07
3.20343e+07
3.19443e+07
3.18515e+07
3.17558e+07
3.16572e+07
3.1556e+07
3.1452e+07
3.13454e+07
3.12361e+07
3.11243e+07
3.101e+07
3.08931e+07
3.07738e+07
3.06522e+07
3.05282e+07
3.04019e+07
3.02733e+07
3.01425e+07
3.00095e+07
2.98745e+07
2.97373e+07
2.9598e+07
2.94568e+07
2.93136e+07
2.91684e+07
2.90214e+07
2.88724e+07
2.87217e+07
2.85692e+07
2.84149e+07
2.8259e+07
2.81013e+07
2.7942e+07
2.7781e+07
2.76185e+07
2.74545e+07
2.72889e+07
2.71218e+07
2.69533e+07
2.67833e+07
2.6612e+07
2.64392e+07
2.62651e+07
2.60897e+07
2.5913e+07
2.57351e+07
2.55559e+07
2.53755e+07
2.51938e+07
2.50111e+07
2.48271e+07
2.46421e+07
2.4456e+07
2.42687e+07
2.40805e+07
2.38912e+07
2.37008e+07
2.35095e+07
2.33173e+07
2.3124e+07
2.29299e+07
2.27348e+07
2.25389e+07
2.23421e+07
2.21444e+07
2.19459e+07
2.17466e+07
2.15465e+07
2.13456e+07
2.1144e+07
2.09416e+07
2.07386e+07
2.05348e+07
2.03303e+07
2.01252e+07
1.99194e+07
1.9713e+07
1.9506e+07
1.92984e+07
1.90903e+07
1.88815e+07
1.86723e+07
1.84625e+07
1.82523e+07
1.80416e+07
1.78304e+07
1.76188e+07
1.74067e+07
1.71943e+07
1.69815e+07
1.67684e+07
1.65549e+07
1.63411e+07
1.61271e+07
1.59127e+07
1.56981e+07
1.54833e+07
1.52683e+07
1.50532e+07
1.48379e+07
1.46224e+07
1.44069e+07
1.41913e+07
1.39756e+07
1.376e+07
1.35443e+07
1.33287e+07
1.31131e+07
1.28976e+07
1.26823e+07
1.24671e+07
1.22521e+07
1.20373e+07
1.18227e+07
1.16085e+07
1.13945e+07
1.11809e+07
1.09677e+07
1.07548e+07
1.05425e+07
1.03306e+07
1.01193e+07
9.90848e+06
9.6983e+06
9.48877e+06
9.27992e+06
9.0718e+06
8.86445e+06
8.65792e+06
8.45224e+06
8.24747e+06
8.04365e+06
7.84084e+06
7.63907e+06
7.43841e+06
7.23891e+06
7.04062e+06
6.84359e+06
6.6479e+06
6.4536e+06
6.26076e+06
6.06944e+06
5.87973e+06
5.69171e+06
5.50547e+06
5.32112e+06
5.13876e+06
4.95854e+06
4.78061e+06
4.60516e+06
4.43236e+06
4.26224e+06
3.33502e+07
3.33471e+07
3.33412e+07
3.33322e+07
3.33202e+07
3.33051e+07
3.32869e+07
3.32655e+07
3.32409e+07
3.32131e+07
3.3182e+07
3.31477e+07
3.311e+07
3.30691e+07
3.30249e+07
3.29774e+07
3.29266e+07
3.28726e+07
3.28153e+07
3.27547e+07
3.2691e+07
3.26241e+07
3.2554e+07
3.24807e+07
3.24044e+07
3.2325e+07
3.22426e+07
3.21572e+07
3.20688e+07
3.19775e+07
3.18834e+07
3.17864e+07
3.16867e+07
3.15842e+07
3.14791e+07
3.13713e+07
3.12609e+07
3.1148e+07
3.10326e+07
3.09148e+07
3.07945e+07
3.06719e+07
3.0547e+07
3.04198e+07
3.02903e+07
3.01587e+07
3.0025e+07
2.98891e+07
2.97512e+07
2.96113e+07
2.94694e+07
2.93255e+07
2.91797e+07
2.90321e+07
2.88826e+07
2.87313e+07
2.85783e+07
2.84236e+07
2.82671e+07
2.8109e+07
2.79493e+07
2.77879e+07
2.7625e+07
2.74606e+07
2.72947e+07
2.71273e+07
2.69584e+07
2.67882e+07
2.66165e+07
2.64435e+07
2.62692e+07
2.60935e+07
2.59166e+07
2.57384e+07
2.5559e+07
2.53784e+07
2.51966e+07
2.50137e+07
2.48296e+07
2.46444e+07
2.44581e+07
2.42707e+07
2.40823e+07
2.38929e+07
2.37025e+07
2.35111e+07
2.33187e+07
2.31254e+07
2.29311e+07
2.2736e+07
2.254e+07
2.23431e+07
2.21453e+07
2.19468e+07
2.17474e+07
2.15472e+07
2.13463e+07
2.11446e+07
2.09422e+07
2.07391e+07
2.05353e+07
2.03308e+07
2.01256e+07
1.99198e+07
1.97134e+07
1.95064e+07
1.92987e+07
1.90905e+07
1.88818e+07
1.86725e+07
1.84628e+07
1.82525e+07
1.80417e+07
1.78306e+07
1.76189e+07
1.74069e+07
1.71944e+07
1.69816e+07
1.67685e+07
1.6555e+07
1.63412e+07
1.61271e+07
1.59128e+07
1.56982e+07
1.54834e+07
1.52684e+07
1.50532e+07
1.48379e+07
1.46225e+07
1.44069e+07
1.41913e+07
1.39757e+07
1.376e+07
1.35443e+07
1.33287e+07
1.31131e+07
1.28976e+07
1.26823e+07
1.24671e+07
1.22521e+07
1.20373e+07
1.18227e+07
1.16085e+07
1.13945e+07
1.11809e+07
1.09677e+07
1.07549e+07
1.05425e+07
1.03306e+07
1.01193e+07
9.90849e+06
9.69831e+06
9.48877e+06
9.27992e+06
9.0718e+06
8.86445e+06
8.65791e+06
8.45223e+06
8.24746e+06
8.04364e+06
7.84082e+06
7.63906e+06
7.43839e+06
7.23888e+06
7.04058e+06
6.84355e+06
6.64784e+06
6.45353e+06
6.26066e+06
6.06932e+06
5.87958e+06
5.69152e+06
5.50522e+06
5.32078e+06
5.13831e+06
4.95793e+06
4.77977e+06
4.60397e+06
4.43061e+06
4.25964e+06
3.34249e+07
3.34217e+07
3.34154e+07
3.34061e+07
3.33936e+07
3.33779e+07
3.3359e+07
3.33368e+07
3.33113e+07
3.32825e+07
3.32503e+07
3.32148e+07
3.3176e+07
3.31338e+07
3.30882e+07
3.30393e+07
3.2987e+07
3.29315e+07
3.28726e+07
3.28105e+07
3.27452e+07
3.26766e+07
3.26049e+07
3.25301e+07
3.24521e+07
3.23711e+07
3.22871e+07
3.22001e+07
3.21101e+07
3.20173e+07
3.19216e+07
3.18231e+07
3.17219e+07
3.1618e+07
3.15115e+07
3.14023e+07
3.12906e+07
3.11764e+07
3.10597e+07
3.09406e+07
3.08192e+07
3.06954e+07
3.05694e+07
3.04411e+07
3.03107e+07
3.01781e+07
3.00434e+07
2.99066e+07
2.97678e+07
2.96271e+07
2.94843e+07
2.93397e+07
2.91932e+07
2.90449e+07
2.88947e+07
2.87428e+07
2.85892e+07
2.84338e+07
2.82768e+07
2.81182e+07
2.79579e+07
2.77961e+07
2.76328e+07
2.74679e+07
2.73016e+07
2.71338e+07
2.69645e+07
2.67939e+07
2.66219e+07
2.64486e+07
2.6274e+07
2.6098e+07
2.59208e+07
2.57424e+07
2.55628e+07
2.53819e+07
2.51999e+07
2.50167e+07
2.48325e+07
2.46471e+07
2.44606e+07
2.42731e+07
2.40845e+07
2.3895e+07
2.37044e+07
2.35129e+07
2.33204e+07
2.31269e+07
2.29326e+07
2.27373e+07
2.25412e+07
2.23442e+07
2.21464e+07
2.19478e+07
2.17483e+07
2.15481e+07
2.13471e+07
2.11454e+07
2.09429e+07
2.07397e+07
2.05359e+07
2.03313e+07
2.01261e+07
1.99203e+07
1.97138e+07
1.95067e+07
1.92991e+07
1.90909e+07
1.88821e+07
1.86728e+07
1.8463e+07
1.82527e+07
1.8042e+07
1.78307e+07
1.76191e+07
1.7407e+07
1.71946e+07
1.69818e+07
1.67686e+07
1.65551e+07
1.63413e+07
1.61272e+07
1.59129e+07
1.56983e+07
1.54835e+07
1.52685e+07
1.50533e+07
1.4838e+07
1.46225e+07
1.4407e+07
1.41914e+07
1.39757e+07
1.376e+07
1.35443e+07
1.33287e+07
1.31131e+07
1.28977e+07
1.26823e+07
1.24671e+07
1.22521e+07
1.20373e+07
1.18228e+07
1.16085e+07
1.13945e+07
1.11809e+07
1.09677e+07
1.07549e+07
1.05425e+07
1.03306e+07
1.01193e+07
9.90849e+06
9.69831e+06
9.48878e+06
9.27993e+06
9.0718e+06
8.86445e+06
8.65791e+06
8.45223e+06
8.24745e+06
8.04363e+06
7.84081e+06
7.63904e+06
7.43836e+06
7.23885e+06
7.04054e+06
6.8435e+06
6.64778e+06
6.45344e+06
6.26055e+06
6.06918e+06
5.8794e+06
5.69129e+06
5.50492e+06
5.32039e+06
5.1378e+06
4.95725e+06
4.77884e+06
4.60268e+06
4.42879e+06
4.25707e+06
3.35132e+07
3.35098e+07
3.35032e+07
3.34934e+07
3.34803e+07
3.34639e+07
3.34441e+07
3.3421e+07
3.33944e+07
3.33644e+07
3.33309e+07
3.3294e+07
3.32536e+07
3.32098e+07
3.31626e+07
3.31119e+07
3.30579e+07
3.30005e+07
3.29398e+07
3.28758e+07
3.28086e+07
3.27381e+07
3.26645e+07
3.25877e+07
3.25078e+07
3.24249e+07
3.23389e+07
3.225e+07
3.21582e+07
3.20635e+07
3.19661e+07
3.18658e+07
3.17629e+07
3.16572e+07
3.1549e+07
3.14382e+07
3.13249e+07
3.12092e+07
3.1091e+07
3.09705e+07
3.08477e+07
3.07226e+07
3.05953e+07
3.04658e+07
3.03342e+07
3.02004e+07
3.00646e+07
2.99268e+07
2.9787e+07
2.96453e+07
2.95016e+07
2.93561e+07
2.92088e+07
2.90596e+07
2.89087e+07
2.87561e+07
2.86017e+07
2.84457e+07
2.8288e+07
2.81288e+07
2.7968e+07
2.78056e+07
2.76417e+07
2.74763e+07
2.73095e+07
2.71413e+07
2.69716e+07
2.68006e+07
2.66282e+07
2.64545e+07
2.62795e+07
2.61032e+07
2.59257e+07
2.5747e+07
2.55671e+07
2.5386e+07
2.52037e+07
2.50203e+07
2.48358e+07
2.46502e+07
2.44635e+07
2.42758e+07
2.40871e+07
2.38973e+07
2.37066e+07
2.35149e+07
2.33223e+07
2.31287e+07
2.29343e+07
2.27389e+07
2.25427e+07
2.23456e+07
2.21477e+07
2.1949e+07
2.17494e+07
2.15491e+07
2.13481e+07
2.11463e+07
2.09437e+07
2.07405e+07
2.05366e+07
2.0332e+07
2.01267e+07
1.99208e+07
1.97143e+07
1.95072e+07
1.92995e+07
1.90913e+07
1.88825e+07
1.86731e+07
1.84633e+07
1.8253e+07
1.80422e+07
1.7831e+07
1.76193e+07
1.74072e+07
1.71948e+07
1.69819e+07
1.67688e+07
1.65552e+07
1.63414e+07
1.61273e+07
1.5913e+07
1.56984e+07
1.54835e+07
1.52685e+07
1.50533e+07
1.4838e+07
1.46226e+07
1.4407e+07
1.41914e+07
1.39757e+07
1.376e+07
1.35444e+07
1.33287e+07
1.31132e+07
1.28977e+07
1.26823e+07
1.24671e+07
1.22521e+07
1.20373e+07
1.18228e+07
1.16085e+07
1.13945e+07
1.11809e+07
1.09677e+07
1.07549e+07
1.05425e+07
1.03306e+07
1.01193e+07
9.9085e+06
9.69832e+06
9.48878e+06
9.27993e+06
9.0718e+06
8.86445e+06
8.65791e+06
8.45222e+06
8.24745e+06
8.04362e+06
7.84079e+06
7.63901e+06
7.43834e+06
7.23881e+06
7.04049e+06
6.84344e+06
6.6477e+06
6.45334e+06
6.26043e+06
6.06903e+06
5.8792e+06
5.69103e+06
5.50459e+06
5.31996e+06
5.13724e+06
4.9565e+06
4.77784e+06
4.60132e+06
4.42694e+06
4.25457e+06
3.36159e+07
3.36122e+07
3.36052e+07
3.35949e+07
3.3581e+07
3.35637e+07
3.35429e+07
3.35185e+07
3.34906e+07
3.34591e+07
3.3424e+07
3.33854e+07
3.33432e+07
3.32975e+07
3.32483e+07
3.31956e+07
3.31394e+07
3.30799e+07
3.3017e+07
3.29508e+07
3.28813e+07
3.28085e+07
3.27326e+07
3.26536e+07
3.25714e+07
3.24863e+07
3.23981e+07
3.23071e+07
3.22131e+07
3.21163e+07
3.20167e+07
3.19144e+07
3.18094e+07
3.17018e+07
3.15917e+07
3.1479e+07
3.13639e+07
3.12464e+07
3.11266e+07
3.10044e+07
3.088e+07
3.07534e+07
3.06246e+07
3.04937e+07
3.03607e+07
3.02257e+07
3.00887e+07
2.99497e+07
2.98087e+07
2.96659e+07
2.95212e+07
2.93747e+07
2.92264e+07
2.90763e+07
2.89245e+07
2.8771e+07
2.86159e+07
2.84591e+07
2.83007e+07
2.81408e+07
2.79793e+07
2.78163e+07
2.76518e+07
2.74859e+07
2.73185e+07
2.71497e+07
2.69796e+07
2.68081e+07
2.66353e+07
2.64612e+07
2.62858e+07
2.61091e+07
2.59313e+07
2.57522e+07
2.55719e+07
2.53905e+07
2.5208e+07
2.50243e+07
2.48395e+07
2.46537e+07
2.44668e+07
2.42789e+07
2.409e+07
2.39e+07
2.37091e+07
2.35173e+07
2.33245e+07
2.31308e+07
2.29362e+07
2.27407e+07
2.25443e+07
2.23471e+07
2.21491e+07
2.19503e+07
2.17507e+07
2.15503e+07
2.13491e+07
2.11472e+07
2.09446e+07
2.07413e+07
2.05373e+07
2.03327e+07
2.01274e+07
1.99214e+07
1.97149e+07
1.95077e+07
1.93e+07
1.90917e+07
1.88829e+07
1.86735e+07
1.84637e+07
1.82533e+07
1.80425e+07
1.78312e+07
1.76196e+07
1.74075e+07
1.7195e+07
1.69821e+07
1.67689e+07
1.65554e+07
1.63416e+07
1.61275e+07
1.59131e+07
1.56985e+07
1.54836e+07
1.52686e+07
1.50534e+07
1.48381e+07
1.46226e+07
1.44071e+07
1.41914e+07
1.39758e+07
1.37601e+07
1.35444e+07
1.33288e+07
1.31132e+07
1.28977e+07
1.26824e+07
1.24672e+07
1.22521e+07
1.20373e+07
1.18228e+07
1.16085e+07
1.13946e+07
1.11809e+07
1.09677e+07
1.07549e+07
1.05425e+07
1.03306e+07
1.01193e+07
9.9085e+06
9.69832e+06
9.48878e+06
9.27993e+06
9.0718e+06
8.86445e+06
8.6579e+06
8.45222e+06
8.24744e+06
8.04361e+06
7.84078e+06
7.63899e+06
7.43831e+06
7.23877e+06
7.04044e+06
6.84337e+06
6.64762e+06
6.45324e+06
6.2603e+06
6.06886e+06
5.87898e+06
5.69075e+06
5.50423e+06
5.3195e+06
5.13663e+06
4.95571e+06
4.7768e+06
4.59993e+06
4.4251e+06
4.25216e+06
3.37337e+07
3.37297e+07
3.37222e+07
3.37111e+07
3.36964e+07
3.3678e+07
3.36558e+07
3.363e+07
3.36005e+07
3.35672e+07
3.35302e+07
3.34895e+07
3.34451e+07
3.33971e+07
3.33456e+07
3.32904e+07
3.32318e+07
3.31697e+07
3.31042e+07
3.30354e+07
3.29633e+07
3.28879e+07
3.28094e+07
3.27278e+07
3.26431e+07
3.25554e+07
3.24647e+07
3.23711e+07
3.22747e+07
3.21754e+07
3.20734e+07
3.19688e+07
3.18615e+07
3.17517e+07
3.16393e+07
3.15246e+07
3.14074e+07
3.12879e+07
3.11662e+07
3.10422e+07
3.0916e+07
3.07877e+07
3.06573e+07
3.05248e+07
3.03903e+07
3.02538e+07
3.01154e+07
2.9975e+07
2.98328e+07
2.96888e+07
2.95429e+07
2.93953e+07
2.92459e+07
2.90948e+07
2.8942e+07
2.87876e+07
2.86316e+07
2.8474e+07
2.83148e+07
2.81541e+07
2.79918e+07
2.78281e+07
2.7663e+07
2.74964e+07
2.73285e+07
2.71591e+07
2.69884e+07
2.68164e+07
2.66431e+07
2.64685e+07
2.62927e+07
2.61157e+07
2.59374e+07
2.5758e+07
2.55773e+07
2.53956e+07
2.52127e+07
2.50288e+07
2.48437e+07
2.46576e+07
2.44705e+07
2.42823e+07
2.40932e+07
2.3903e+07
2.37119e+07
2.35199e+07
2.33269e+07
2.3133e+07
2.29383e+07
2.27427e+07
2.25462e+07
2.23488e+07
2.21507e+07
2.19518e+07
2.1752e+07
2.15515e+07
2.13503e+07
2.11483e+07
2.09456e+07
2.07423e+07
2.05382e+07
2.03335e+07
2.01281e+07
1.99221e+07
1.97155e+07
1.95083e+07
1.93005e+07
1.90922e+07
1.88833e+07
1.86739e+07
1.8464e+07
1.82537e+07
1.80428e+07
1.78315e+07
1.76198e+07
1.74077e+07
1.71952e+07
1.69823e+07
1.67691e+07
1.65556e+07
1.63417e+07
1.61276e+07
1.59132e+07
1.56986e+07
1.54837e+07
1.52687e+07
1.50535e+07
1.48382e+07
1.46227e+07
1.44071e+07
1.41915e+07
1.39758e+07
1.37601e+07
1.35444e+07
1.33288e+07
1.31132e+07
1.28977e+07
1.26824e+07
1.24672e+07
1.22522e+07
1.20374e+07
1.18228e+07
1.16085e+07
1.13946e+07
1.1181e+07
1.09677e+07
1.07549e+07
1.05425e+07
1.03306e+07
1.01193e+07
9.90851e+06
9.69833e+06
9.48879e+06
9.27993e+06
9.0718e+06
8.86445e+06
8.6579e+06
8.45221e+06
8.24743e+06
8.04359e+06
7.84076e+06
7.63897e+06
7.43827e+06
7.23873e+06
7.04039e+06
6.8433e+06
6.64753e+06
6.45313e+06
6.26015e+06
6.06867e+06
5.87875e+06
5.69045e+06
5.50385e+06
5.31901e+06
5.136e+06
4.95489e+06
4.77573e+06
4.59854e+06
4.42329e+06
4.24986e+06
3.38674e+07
3.38631e+07
3.3855e+07
3.3843e+07
3.38272e+07
3.38075e+07
3.37838e+07
3.37562e+07
3.37247e+07
3.36892e+07
3.36499e+07
3.36068e+07
3.35598e+07
3.35091e+07
3.34548e+07
3.33968e+07
3.33352e+07
3.32701e+07
3.32017e+07
3.31298e+07
3.30547e+07
3.29764e+07
3.28949e+07
3.28103e+07
3.27227e+07
3.26321e+07
3.25385e+07
3.24421e+07
3.23429e+07
3.22409e+07
3.21362e+07
3.20289e+07
3.1919e+07
3.18066e+07
3.16918e+07
3.15747e+07
3.14552e+07
3.13335e+07
3.12096e+07
3.10836e+07
3.09555e+07
3.08253e+07
3.0693e+07
3.05588e+07
3.04227e+07
3.02846e+07
3.01446e+07
3.00028e+07
2.98592e+07
2.97138e+07
2.95667e+07
2.94178e+07
2.92673e+07
2.91151e+07
2.89612e+07
2.88058e+07
2.86488e+07
2.84902e+07
2.83302e+07
2.81686e+07
2.80056e+07
2.78411e+07
2.76752e+07
2.7508e+07
2.73394e+07
2.71694e+07
2.69981e+07
2.68256e+07
2.66517e+07
2.64766e+07
2.63003e+07
2.61228e+07
2.59441e+07
2.57643e+07
2.55833e+07
2.54012e+07
2.52179e+07
2.50337e+07
2.48483e+07
2.46619e+07
2.44745e+07
2.42861e+07
2.40967e+07
2.39063e+07
2.3715e+07
2.35227e+07
2.33296e+07
2.31355e+07
2.29406e+07
2.27448e+07
2.25482e+07
2.23507e+07
2.21524e+07
2.19534e+07
2.17535e+07
2.15529e+07
2.13516e+07
2.11495e+07
2.09468e+07
2.07433e+07
2.05391e+07
2.03343e+07
2.01289e+07
1.99228e+07
1.97162e+07
1.95089e+07