/*--------------------------------*- C++ -*----------------------------------*\
| =========                 |                                                 |
| \\      /  F ield         | OpenFOAM: The Open Source CFD Toolbox           |
|  \\    /   O peration     | Version:  2112                                  |
|   \\  /    A nd           | Website:  www.openfoam.com                      |
|    \\/     M anipulation  |                                                 |
\*---------------------------------------------------------------------------*/
FoamFile
{
    version     2.0;
    format      ascii;
    arch        "LSB;label=32;scalar=64";
    class       volScalarField;
    location    "0.25";
    object      ddt0(omegaU);
}
// * * * * * * * * * * * * * * * * * * * * * * * * * * * * * * * * * * * * * //

dimensions      [0 0 -2 0 0 0 0];

internalField   nonuniform List<scalar> 
12225
(
0.0528199
1.49168
5.63676
13.4031
25.4912
42.4497
64.7829
93.0082
127.588
169.266
219.503
280.413
356.216
451.193
578.479
743.246
970.532
1268.82
-1.08513
-4.5594
-9.89166
-16.5172
-23.7293
-31.4301
-39.692
-48.7076
-58.6073
-69.8241
-82.9696
-99.0806
-120.042
-147.215
-184.455
-260.556
-374.231
-877.88
-0.163843
-0.803804
-2.57781
-5.7523
-10.5491
-16.8549
-24.6008
-34.1228
-45.3544
-58.8133
-75.3479
-96.2915
-123.74
-160.591
-212.06
-291.826
-410.517
-646.704
-0.0296007
-0.232583
-0.5436
-1.142
-2.2703
-4.25626
-7.28283
-11.2349
-16.3956
-22.9731
-31.9045
-43.2933
-58.2605
-78.4287
-106.411
-147.926
-208.181
-304.977
-0.00425024
-0.0382212
-0.155297
-0.385627
-0.717612
-1.23355
-1.99907
-3.03032
-4.4285
-6.28344
-8.27467
-10.985
-15.7444
-22.227
-31.2295
-44.1586
-61.2201
-86.9102
-0.00064981
-0.00362239
-0.0248058
-0.0750433
-0.18911
-0.359196
-0.604864
-0.94995
-1.42351
-2.06863
-2.83125
-3.86824
-4.55609
-5.64871
-7.34762
-10.0084
-14.7507
-20.699
-0.000401509
0.000279014
-0.00018826
-0.00501356
-0.0306371
-0.0731163
-0.140436
-0.242351
-0.39171
-0.607387
-0.911786
-1.34173
-1.71703
-2.20176
-2.81448
-3.57526
-4.7698
-6.08316
-0.000488636
0.000276352
0.0021251
0.00422975
0.00365026
-0.000811967
-0.00960785
-0.0259828
-0.0541755
-0.100109
-0.171789
-0.280012
-0.425775
-0.611358
-0.83223
-1.07685
-1.34704
-1.63728
-0.000563147
-7.73577e-05
0.00163788
0.00442481
0.00771465
0.0109649
0.0145324
0.0182525
0.0216924
0.0234094
0.0218193
0.0142358
-0.00146516
-0.0260415
-0.0593546
-0.100683
-0.150234
-0.210548
-0.000601214
-0.000367413
0.000965273
0.00343063
0.00703381
0.0114199
0.0164
0.0221242
0.0295149
0.0384356
0.0485939
0.0598135
0.0712261
0.0817471
0.0902879
0.0952849
0.0946417
0.0860324
-0.000608205
-0.000565495
0.000409931
0.00239582
0.00551164
0.00978953
0.0149333
0.0208133
0.0274693
0.0350028
0.0433925
0.0535371
0.065005
0.0769682
0.0880696
0.0965794
0.100743
0.0992177
-0.000592605
-0.000677191
1.78795e-05
0.00157877
0.00412138
0.00775646
0.0124966
0.0182289
0.0245751
0.0315283
0.0388608
0.0461978
0.0535037
0.0611968
0.0683131
0.073481
0.0753833
0.0732191
-0.000559345
-0.000728604
-0.000263295
0.000922832
0.0029211
0.00583485
0.00970183
0.0145302
0.0202185
0.0265795
0.0333433
0.0398367
0.0457029
0.0505562
0.05414
0.0562192
0.0560283
0.053082
-0.000502835
-0.000724147
-0.000462817
0.000361202
0.0018122
0.00396105
0.00683672
0.0104437
0.0147071
0.0194803
0.0246056
0.0297826
0.0345315
0.0381554
0.0403151
0.040774
0.0393612
0.0361353
-0.000419495
-0.00065327
-0.000554272
-5.77525e-05
0.000875385
0.00228046
0.00416408
0.0065019
0.00922097
0.0122021
0.015299
0.0182867
0.0208995
0.022817
0.0236833
0.0231863
0.0210929
0.017662
-0.000307505
-0.000510154
-0.000519494
-0.000295049
0.000179326
0.000908972
0.00187822
0.00304511
0.00433808
0.00565719
0.00688119
0.00786177
0.00843833
0.00838242
0.00758783
0.00594684
0.00350385
0.000232397
-0.000168613
-0.000298987
-0.000359216
-0.000338005
-0.000239719
-8.02515e-05
0.000110857
0.000288495
0.00038267
0.000328567
4.80222e-05
-0.00053942
-0.00150832
-0.00287462
-0.00471719
-0.00704754
-0.00985498
-0.0130556
-9.68741e-06
-3.7452e-05
-0.000102381
-0.000221594
-0.000415609
-0.000711711
-0.00114256
-0.00174349
-0.00254255
-0.00358037
-0.00488628
-0.00648096
-0.00837382
-0.0105611
-0.0130257
-0.0157362
-0.0186554
-0.0217148
0.000151689
0.000233502
0.000181453
-4.37666e-05
-0.000470669
-0.00112723
-0.00203777
-0.00321838
-0.00467611
-0.0064088
-0.00840415
-0.0106394
-0.0130822
-0.0156932
-0.0184287
-0.0212432
-0.0240942
-0.0269325
0.00026586
0.00041235
0.000340442
2.10823e-06
-0.000628227
-0.00157226
-0.00284208
-0.00443441
-0.00633229
-0.0085073
-0.0109203
-0.013523
-0.0162614
-0.01908
-0.0219257
-0.0247509
-0.0275155
-0.0301849
0.000326049
0.000481685
0.000343387
-0.000131099
-0.000957255
-0.00214945
-0.00370829
-0.00561437
-0.00783339
-0.0103197
-0.0130174
-0.0158628
-0.0187902
-0.0217362
-0.0246444
-0.0274682
-0.0301708
-0.0327274
0.000353153
0.000472172
0.000219845
-0.000425859
-0.00146837
-0.00291697
-0.00476133
-0.00696713
-0.00948538
-0.0122553
-0.0152051
-0.0182564
-0.0213312
-0.0243581
-0.0272758
-0.0300369
-0.0326062
-0.0349643
0.000352161
0.000386268
-2.91852e-05
-0.0008816
-0.0021641
-0.00387719
-0.00598851
-0.00843777
-0.0111496
-0.0140335
-0.0169854
-0.019895
-0.0226566
-0.0251764
-0.0273764
-0.0291981
-0.0305998
-0.0315651
0.000323108
0.000217824
-0.000398896
-0.00144606
-0.00287602
-0.00461485
-0.00651154
-0.00836823
-0.00996307
-0.0110544
-0.0113936
-0.0107427
-0.00890029
-0.00570904
-0.00105492
0.00513215
0.0128834
0.0221765
0.000265734
3.88022e-06
-0.000623257
-0.00116026
-0.000971572
0.000602242
0.00439864
0.0113499
0.0223997
0.0384321
0.0601972
0.0882858
0.122933
0.164336
0.212534
0.267384
0.328583
0.395618
0.000329175
0.000898918
0.00357605
0.0113894
0.031559
0.065283
0.117281
0.192388
0.294915
0.428139
0.593987
0.793521
1.02093
1.28175
1.57496
1.89612
2.23922
2.59894
0.00345664
0.017477
0.0577481
0.146522
0.334864
0.611318
1.00205
1.52714
2.19752
3.01345
3.96511
5.03693
6.1828
7.4343
8.77425
10.1658
11.5669
12.9493
0.0483435
0.22439
0.63326
1.39052
2.46069
3.98463
5.93528
8.24815
10.8327
13.586
16.4041
19.199
21.9403
24.5062
26.8649
29.0259
31.0171
32.8671
0.332138
1.64093
3.86421
6.69031
9.87474
13.134
16.3318
19.3701
22.1727
24.6758
26.8249
28.5851
29.938
30.8487
31.3058
31.3168
30.8996
30.0791
0.0181315
-0.457525
-1.82248
-4.3315
-8.03289
-12.9709
-19.1651
-26.5802
-35.1132
-44.6
-54.823
-65.539
-76.5132
-87.5156
-98.334
-108.804
-118.829
-128.338
-3278.76
-3180.25
-3115.23
-3074.43
-3070.21
-3099.42
-3157.48
-3239.7
-3341.65
-3460.37
-3603.12
-3769.49
-3923.57
-4058.98
-4167.02
-4236.98
-4257.09
-4214.51
-4088.33
-3870.69
-3555.94
-3121.68
-2556.05
-1849.25
-984.137
146.51
1808.47
4154.63
6995.4
9941.24
12356.5
13494.6
13136.2
11784.1
10176.5
8796.69
7792.64
7127.02
6712.14
6467.13
6329.76
6254
6206.02
6163.78
6117.28
6064.26
6005.73
5943.99
5881.85
5822.15
5767.25
5718.71
5677.05
5641.7
5611.04
5582.53
5552.94
5518.61
5475.7
5420.37
5349.04
5258.5
5145.97
5009.24
4846.58
4656.85
4439.36
4193.93
3920.8
3620.59
3294.26
2943.08
2568.61
2172.61
1757.04
1324.05
875.877
414.885
-56.5227
-535.921
-1020.9
-1509.1
-1998.23
-2486.14
-2970.78
-3450.33
-3923.14
-4387.78
-4842.95
-5287.44
-5720.08
-6139.66
-6544.99
-6934.94
-7308.53
-7665.01
-8003.9
-8325.05
-8628.64
-8915.2
-9185.56
-9440.73
-9681.9
-9910.3
-10127.2
-10333.8
-10531.4
-10721.2
-10904.8
-11083.5
-11259.1
-11433.4
-11608.3
-11785.9
-11968.6
-12158.8
-12359.1
-12572.6
-12803.6
-13052.3
-13309.2
-13571.1
-13853.6
-14172.1
-14433.8
-14688.4
-14954.2
-15218.2
-15475.5
-15722.1
-15953.3
-16163.7
-16347.5
-16497.9
-16607.6
-16668.8
-16673.1
-16612
-16476.5
-16257.7
-15946.3
-15533
-15008.7
-14364
-13588.8
-12671.4
-11597.1
-10346.9
-8899.61
-7237.17
-5351.72
-3245.43
-927.105
1586.55
4267.34
7071.33
9937.6
12791.8
15546.2
18095.3
20309.4
22036.5
23110.9
23350.3
22564.1
20559.5
17106.9
11999.5
5445.9
-1303.14
-9462.75
-17736.9
-24712.7
-33006.6
-41338.1
-48311
-54500.2
-59712.3
-64430.2
-67938.9
-4400.61
-3957.47
-3598.64
-3306.38
-3075.89
-2891.94
-2742.25
-2617.75
-2511.91
-2420.88
-2347.84
-2286.65
-2243.2
-2216.05
-2204.65
-2207.36
-2220.96
-2235.72
-2201.19
-2231.94
-2267.31
-2297.96
-2302.37
-2246.04
-2076.99
-1705.64
-973.771
302.156
2172.19
4468.94
6793.64
8599.68
9478.95
9412.09
8705.95
7743.87
6797.99
5993.04
5353.42
4857.6
4471.89
4165.39
3914.97
3702.71
3517.76
3354.01
3207.69
3076.04
2956.61
2846.89
2744.26
2645.91
2548.91
2450.35
2347.41
2237.53
2118.53
1988.66
1846.67
1691.85
1523.97
1343.26
1150.36
946.226
732.087
509.366
279.619
44.4845
-194.364
-435.257
-676.561
-916.71
-1154.23
-1387.74
-1616.02
-1837.96
-2052.63
-2259.24
-2457.18
-2645.99
-2825.35
-2995.08
-3155.06
-3305.21
-3445.46
-3575.75
-3696.21
-3807.48
-3911.06
-4009.62
-4106.85
-4206.93
-4313.8
-4430.35
-4558.1
-4697.14
-4846.43
-5004.29
-5168.7
-5337.71
-5509.55
-5682.71
-5856.01
-6028.47
-6199.38
-6368.2
-6534.57
-6698.32
-6859.46
-7018.19
-7174.9
-7330.15
-7484.78
-7639.83
-7796.67
-7956.96
-8122.67
-8296.51
-8482.05
-8681.71
-8899.67
-9075.37
-9224.98
-9312.4
-9396.63
-9456.41
-9497.22
-9514.52
-9505.54
-9467.32
-9396.36
-9288.84
-9140.87
-8948.66
-8708.75
-8418.13
-8074.46
-7676.24
-7222.97
-6715.46
-6156.33
-5550.69
-4907.17
-4239.36
-3567.55
-2919.26
-2326.94
-1818.31
-1399.06
-1040.33
-694.783
-334.503
36.4327
404.39
759.603
1093.11
1395.48
1656.64
1864.06
2001.45
2048.89
1983.96
1782.02
1417.44
875.486
150.794
-798.191
-2070.9
-3790.77
-6218.13
-8826.05
-10524.7
-12305
-13731.6
-14718.4
-15569
-16324.4
-17034.9
-17790.1
-18897.9
-5895.36
-4865.89
-4117.49
-3565.28
-3158.46
-2852.48
-2615.64
-2425.58
-2266.43
-2127.52
-2005.67
-1876.72
-1750.79
-1628.18
-1512.53
-1408.19
-1315.33
-1191.42
-1119.93
-1118.55
-1187.17
-1328.72
-1528.54
-1745.61
-1905.16
-1891.73
-1545.18
-691.873
750.825
2656.94
4662.87
6279.7
7141.17
7202.44
6699.9
5949.34
5185.56
4522.34
3985.94
3560.86
3220.27
2939.94
2702.14
2495.1
2311.37
2146.32
1996.71
1859.83
1733
1613.42
1498.17
1384.31
1268.98
1149.59
1023.91
890.206
747.29
594.556
431.973
260.034
79.6898
-107.737
-300.648
-497.257
-695.684
-894.027
-1090.43
-1283.13
-1470.53
-1651.18
-1823.84
-1987.5
-2141.36
-2284.86
-2417.68
-2539.71
-2651.1
-2752.2
-2843.58
-2926.02
-3000.51
-3068.24
-3130.66
-3189.51
-3246.89
-3305.12
-3366.56
-3433.3
-3506.86
-3587.98
-3676.64
-3771.99
-3872.55
-3976.28
-4080.8
-4183.6
-4282.31
-4374.81
-4459.43
-4534.9
-4600.38
-4655.37
-4699.62
-4733.09
-4755.88
-4768.23
-4770.51
-4763.21
-4746.92
-4722.31
-4690.06
-4650.91
-4605.56
-4554.66
-4498.8
-4438.51
-4374.11
-4305.9
-4232.72
-4123.13
-3981.14
-3880.49
-3811.82
-3761.3
-3731.37
-3717.03
-3714.01
-3716.16
-3718.29
-3716.82
-3709.77
-3696.15
-3675.47
-3647.47
-3612.06
-3569.39
-3519.86
-3464.23
-3403.56
-3339.39
-3273.84
-3209.62
-3150.23
-3099.9
-3063.47
-3045.87
-3051.06
-3080.58
-3132.02
-3199.35
-3276.18
-3359.7
-3450.85
-3551.12
-3661.19
-3781.2
-3910.56
-4049.25
-4199.08
-4363.5
-4545.8
-4747.15
-4968.83
-5224.25
-5508.28
-5790.71
-6108
-6466.08
-6938.23
-7492.71
-7911.78
-8159.59
-8451.99
-8573.86
-8563.05
-8491.58
-8389.93
-8305.22
-8268.18
-8406.94
-7304.35
-5585.94
-4406.18
-3598.11
-3046.33
-2663.54
-2390.54
-2187.99
-2029.87
-1899.93
-1790.52
-1670.25
-1546.43
-1415.74
-1277.38
-1129.29
-936.858
-763.886
-625.772
-553.055
-576.716
-717.802
-972.923
-1300.02
-1607.75
-1753.38
-1557.69
-857.018
399.343
2056.44
3753.37
5061.45
5701.59
5673.89
5195.83
4534.99
3884.93
3335.97
2903.95
2569.53
2304.93
2086.35
1897.25
1727.44
1571.1
1424.93
1286.82
1155.08
1027.99
903.721
780.29
655.709
528.105
395.858
257.719
112.896
-38.9
-197.446
-362.039
-531.555
-704.529
-879.248
-1053.85
-1226.4
-1395.01
-1557.87
-1713.36
-1860.03
-1996.69
-2122.42
-2236.55
-2338.69
-2428.72
-2506.76
-2573.18
-2628.52
-2673.55
-2709.17
-2736.39
-2756.34
-2770.18
-2779.12
-2784.34
-2786.98
-2788.08
-2788.55
-2789.06
-2790.04
-2791.61
-2793.66
-2795.86
-2797.8
-2799.01
-2799.09
-2797.7
-2794.66
-2789.92
-2783.55
-2775.74
-2766.74
-2756.78
-2746.12
-2734.95
-2723.48
-2711.92
-2700.47
-2689.38
-2678.92
-2669.33
-2660.82
-2653.58
-2647.74
-2643.42
-2640.56
-2638.82
-2637.49
-2630.76
-2621.86
-2612.11
-2623.11
-2638.64
-2661.54
-2692.45
-2729.84
-2773.76
-2822.98
-2876.55
-2933.4
-2992.75
-3054.19
-3117.62
-3183.17
-3251.07
-3321.65
-3395.33
-3472.61
-3554.07
-3640.39
-3732.29
-3830.61
-3936.24
-4050.12
-4173.17
-4306.3
-4450.16
-4604.99
-4770.53
-4945.87
-5129.59
-5320.24
-5516.52
-5717.08
-5920.61
-6125.52
-6330.28
-6533.26
-6730.31
-6917.72
-7094.56
-7261.29
-7423.91
-7575.06
-7694.61
-7822.65
-7963.08
-8015.27
-8058.67
-8079.18
-7916.58
-7865.87
-7864.84
-7770.59
-7620.89
-7464.57
-7288.83
-7049.33
-6771.81
-6500.6
-6255.08
-6095.39
-8627.36
-6117.64
-4493.51
-3462.6
-2814.85
-2403.26
-2134.04
-1949.19
-1813.41
-1705.8
-1610.78
-1508.25
-1402.5
-1288.13
-1152.17
-978.085
-789.521
-591.222
-413.005
-294.19
-279.067
-401.094
-663.487
-1020.56
-1367.29
-1545.96
-1379.05
-734.636
388.104
1804.22
3180.94
4177.2
4607.37
4508.28
4068.6
3501.48
2957.42
2505.32
2155
1887.67
1677.71
1503.21
1348.96
1205.76
1068.6
934.982
803.653
673.816
544.731
415.564
285.381
153.22
18.2109
-120.319
-262.743
-409.071
-558.915
-711.498
-865.688
-1020.06
-1172.98
-1322.69
-1467.39
-1605.36
-1734.99
-1854.88
-1963.87
-2061.07
-2145.92
-2218.13
-2277.74
-2325.05
-2360.63
-2385.26
-2399.9
-2405.67
-2403.76
-2395.45
-2381.99
-2364.64
-2344.56
-2322.84
-2300.41
-2278.08
-2256.49
-2236.1
-2217.27
-2200.18
-2184.92
-2171.53
-2159.97
-2150.21
-2142.23
-2136.03
-2131.64
-2129.11
-2128.53
-2129.98
-2133.52
-2139.18
-2146.92
-2156.68
-2168.36
-2181.9
-2197.25
-2214.41
-2233.42
-2254.32
-2277.14
-2301.84
-2328.35
-2356.53
-2386.19
-2417.09
-2448.92
-2482.28
-2522.81
-2566.57
-2613.75
-2665.36
-2720.79
-2780.25
-2843.68
-2910.93
-2982.13
-3057.33
-3136.64
-3220.15
-3308.02
-3400.46
-3497.76
-3600.23
-3708.22
-3822.09
-3942.22
-4069
-4202.84
-4344.05
-4492.92
-4649.71
-4814.62
-4987.72
-5168.98
-5358.29
-5555.31
-5759.3
-5969.32
-6184.26
-6402.8
-6624.21
-6848.32
-7073.1
-7295.87
-7512.91
-7721.01
-7921.24
-8108.84
-8277.07
-8423.94
-8532.04
-8643.18
-8747.46
-8781.21
-8804.97
-8891.54
-8886.51
-8763.73
-8605.64
-8359.14
-8164.34
-8046.55
-7864.51
-7603.06
-7357.94
-7133.58
-6866.24
-6560.79
-6249.07
-5949.27
-5700.59
-9713.76
-6416.47
-4395.89
-3213.61
-2536.84
-2147.34
-1915.83
-1768.82
-1665.52
-1589.25
-1492.95
-1403.97
-1313.43
-1201.33
-1069.97
-912.563
-727.53
-526.187
-336.737
-203.165
-175.021
-289.021
-546.367
-893.211
-1214.44
-1351.04
-1146.42
-514.774
495.362
1685.42
2768.68
3492.62
3749.85
3600.6
3203.88
2724.25
2274.1
1903.37
1617.11
1398.46
1225.28
1078.68
945.447
817.678
691.246
564.35
436.407
307.338
177.182
45.9296
-86.5035
-220.23
-355.31
-491.663
-628.996
-766.758
-904.123
-1040.01
-1173.1
-1301.96
-1425.05
-1540.84
-1647.9
-1744.96
-1831
-1905.25
-1967.3
-2017.01
-2054.62
-2080.66
-2095.91
-2101.43
-2098.43
-2088.25
-2072.31
-2052.04
-2028.81
-2003.94
-1978.61
-1953.88
-1930.61
-1909.49
-1891.04
-1875.61
-1863.42
-1854.53
-1848.95
-1846.59
-1847.32
-1851
-1857.46
-1866.55
-1878.11
-1892.04
-1908.23
-1926.61
-1947.13
-1969.73
-1994.33
-2020.81
-2049
-2078.75
-2109.92
-2142.42
-2176.21
-2211.33
-2247.85
-2285.83
-2325.28
-2366.19
-2408.58
-2452.45
-2498.19
-2545.83
-2595.45
-2647.16
-2701.49
-2758.33
-2817.76
-2880.15
-2945.86
-3015.14
-3088.13
-3165.01
-3246.07
-3331.64
-3422.05
-3517.55
-3618.45
-3725
-3837.53
-3956.31
-4081.66
-4213.85
-4353.15
-4499.87
-4654.23
-4816.31
-4986.1
-5163.54
-5348.54
-5540.89
-5740.22
-5946.33
-6159.05
-6377.34
-6600.08
-6825.82
-7051.97
-7276.48
-7504.05
-7732.17
-7957.76
-8174.4
-8371.7
-8552.35
-8725.11
-8879.42
-9031.76
-9058.98
-9124.27
-9203.84
-9257.36
-9147.27
-9143.96
-9093.61
-9000.03
-8821.4
-8564.87
-8326.81
-8144.06
-7921.09
-7630.28
-7348.1
-7090.77
-6811.38
-6504.32
-6188.56
-5879.58
-5606.07
-10489.2
-6474.74
-4159.75
-2922.44
-2283.17
-1953.43
-1776.83
-1672.1
-1598.63
-1539.35
-1443.05
-1355.52
-1266.17
-1165.69
-1043.82
-893.607
-714.413
-518.892
-336.895
-212.969
-194.593
-312.466
-558.041
-867.38
-1122.44
-1178.07
-913.342
-290.364
608.081
1589.73
2421.29
2926.99
3056.74
2881.04
2530.27
2128.81
1758.38
1453.8
1216.76
1032.78
883.635
753.811
632.495
513.279
392.99
270.492
145.75
19.2163
-108.514
-236.865
-365.322
-493.406
-620.62
-746.39
-870.016
-990.651
-1107.3
-1218.83
-1324.05
-1421.74
-1510.74
-1590.03
-1658.78
-1716.42
-1762.67
-1797.59
-1821.55
-1835.23
-1839.57
-1835.77
-1825.17
-1809.2
-1789.33
-1767.01
-1743.59
-1720.27
-1698.11
-1678.01
-1660.68
-1646.64
-1636.23
-1629.62
-1626.86
-1627.89
-1632.56
-1640.68
-1652.03
-1666.38
-1683.5
-1703.18
-1725.21
-1749.39
-1775.57
-1803.6
-1833.36
-1864.8
-1897.86
-1932.5
-1968.64
-2006.12
-2044.75
-2084.33
-2124.74
-2165.9
-2207.87
-2250.77
-2294.81
-2340.16
-2386.91
-2435.12
-2485.17
-2536.74
-2589
-2641.97
-2696.13
-2751.67
-2808.87
-2868.01
-2929.42
-2993.55
-3060.89
-3131.82
-3206.62
-3285.57
-3369.02
-3457.37
-3550.96
-3650.09
-3755.05
-3866.12
-3983.59
-4107.73
-4238.82
-4377.11
-4522.82
-4676.31
-4837.96
-5007.74
-5185.47
-5371
-5564.08
-5764.28
-5970.72
-6182.62
-6402.52
-6628.93
-6860.96
-7097.65
-7333.47
-7553.24
-7779.15
-8008.59
-8239.05
-8467.41
-8677.71
-8816.85
-8972.54
-9109.58
-9347.63
-9247.79
-9271.26
-9284.5
-9252.41
-9202.99
-9158.9
-9093.88
-8984.56
-8800.67
-8547.6
-8287.98
-8055.22
-7795.64
-7486.13
-7177.77
-6890.01
-6595.72
-6287.73
-5976.19
-5672.69
-5397.99
-10824.1
-6310.71
-3859.75
-2658.98
-2096.5
-1836.92
-1711.76
-1638.93
-1575.72
-1498.55
-1428.76
-1357.57
-1277.26
-1180.19
-1059.24
-910.289
-736.618
-554.082
-393.368
-295.63
-299.887
-424.193
-646.688
-895.983
-1060.58
-1021.18
-697.838
-92.778
693.592
1488.28
2111.08
2448.39
2488.77
2303.52
1997.11
1662.1
1356.84
1104.86
905.625
747.068
614.617
495.984
382.686
269.812
155.109
38.0209
-81.0708
-201.358
-321.904
-441.784
-560.138
-676.162
-789.072
-898.079
-1002.35
-1101.02
-1193.18
-1277.93
-1354.42
-1421.88
-1479.71
-1527.52
-1565.17
-1592.78
-1610.81
-1619.94
-1621.13
-1615.53
-1604.43
-1589.19
-1571.21
-1551.8
-1532.21
-1513.49
-1496.55
-1482.09
-1470.63
-1462.57
-1458.18
-1457.56
-1460.67
-1467.42
-1477.6
-1490.99
-1507.36
-1526.47
-1548.09
-1572.01
-1598.04
-1626.01
-1655.76
-1687.14
-1720.02
-1754.26
-1789.78
-1826.55
-1864.58
-1903.87
-1944.4
-1985.98
-2028.36
-2071.28
-2114.58
-2158.23
-2202.35
-2247.25
-2293.46
-2341.56
-2391.89
-2442.76
-2493.86
-2545.37
-2597.62
-2650.55
-2704.22
-2758.73
-2814.36
-2871.53
-2930.72
-2992.49
-3057.43
-3126.01
-3198.59
-3275.53
-3357.24
-3444.19
-3536.75
-3635.22
-3739.91
-3851.14
-3969.21
-4094.4
-4226.99
-4367.15
-4514.85
-4670.28
-4835.18
-5009.33
-5192.5
-5384.64
-5585.66
-5795.31
-6011.41
-6223.61
-6448.97
-6682.97
-6924.94
-7178.29
-7442.79
-7659.15
-7871.21
-8097.22
-8322.94
-8555.97
-8859.56
-8898.52
-9030.59
-9133.23
-9210.69
-9220.52
-9220.9
-9195.24
-9141.17
-9071.38
-8991.75
-8892.2
-8751.6
-8550.61
-8291.02
-8009.91
-7731.85
-7430.82
-7093.62
-6754.31
-6432.53
-6116.62
-5802.17
-5494.7
-5202.31
-4939.28
-10604.4
-5926.36
-3522.81
-2439.56
-1981.48
-1793.17
-1707.9
-1649.43
-1579.22
-1524.95
-1468.72
-1403.63
-1323.47
-1223.22
-1099.39
-952.148
-789.049
-628.375
-499.16
-435.259
-463.046
-585.428
-768.561
-939.822
-1003.4
-872.048
-504.277
68.9328
743.18
1372.65
1826.12
2037.26
2018.05
1834.56
1568.85
1289.03
1036.23
825.939
656.409
517.778
398.635
289.495
183.904
78.2479
-28.9602
-137.841
-247.755
-357.722
-466.662
-573.527
-677.351
-777.25
-872.413
-962.083
-1045.54
-1122.12
-1191.21
-1252.28
-1304.94
-1348.93
-1384.2
-1410.88
-1429.35
-1440.2
-1444.26
-1442.51
-1436.03
-1426
-1413.57
-1399.91
-1386.08
-1373.01
-1361.51
-1352.19
-1345.48
-1341.63
-1340.81
-1343.15
-1348.72
-1357.48
-1369.26
-1383.88
-1401.13
-1420.79
-1442.65
-1466.53
-1492.27
-1519.74
-1548.81
-1579.41
-1611.45
-1644.83
-1679.42
-1715.09
-1751.74
-1789.35
-1828
-1867.8
-1908.79
-1950.81
-1993.48
-2036.43
-2079.52
-2122.74
-2166.32
-2210.84
-2256.99
-2306.01
-2353.48
-2401.46
-2449.77
-2498.75
-2548.64
-2599.16
-2650.01
-2701.19
-2753
-2805.97
-2860.76
-2918.07
-2978.6
-3042.9
-3111.35
-3184.28
-3262.16
-3345.67
-3435.37
-3531.5
-3634.41
-3744.49
-3862.18
-3987.91
-4122.13
-4265.16
-4416.07
-4570.58
-4737.61
-4915.65
-5104.05
-5303.04
-5513.5
-5738.4
-5983.9
-6182.94
-6411.46
-6650.76
-6897
-7156.41
-7455.84
-7730.81
-7879.08
-8096.05
-8306.25
-8506.29
-8684.99
-8818.53
-8933.35
-9006.41
-9034.36
-9030.38
-8999.59
-8940.75
-8857.22
-8754.31
-8631.89
-8484.3
-8296.52
-8065.18
-7784.52
-7472.06
-7143.66
-6790.43
-6409.75
-6027.26
-5662.55
-5314.96
-4984.37
-4674.76
-4392.06
-4145.07
-9657.62
-5397.29
-3261.34
-2340.44
-1972.27
-1824.69
-1747.36
-1669.33
-1627.57
-1584.33
-1532.18
-1465.63
-1381.6
-1278.09
-1154.98
-1016.11
-871.898
-740.75
-647.251
-615.199
-656.688
-760.672
-886.762
-969.139
-933.938
-725.743
-334.219
192.045
755.237
1240.95
1560.33
1680.18
1624.17
1449.9
1220.83
986.725
776.379
599.807
454.737
333.263
226.577
127.463
31.0922
-65.143
-162.183
-259.894
-357.549
-454.162
-548.692
-640.156
-727.674
-810.485
-887.939
-959.49
-1024.68
-1083.14
-1134.62
-1178.96
-1216.16
-1246.35
-1269.79
-1286.88
-1298.17
-1304.38
-1306.35
-1304.96
-1301.09
-1295.62
-1289.37
-1283.11
-1277.57
-1273.32
-1270.83
-1270.45
-1272.35
-1276.5
-1282.9
-1291.69
-1303.02
-1316.83
-1332.98
-1351.27
-1371.52
-1393.58
-1417.29
-1442.52
-1469.17
-1497.15
-1526.4
-1556.92
-1588.68
-1621.64
-1655.7
-1690.69
-1726.44
-1762.87
-1800.08
-1838.31
-1877.88
-1918.71
-1960.27
-2002.11
-2044.11
-2086.46
-2129.07
-2173.92
-2216.57
-2258.33
-2301.86
-2345.05
-2388.2
-2432.32
-2477.84
-2524.13
-2570.46
-2616.61
-2662.94
-2710.16
-2759.13
-2810.79
-2866.03
-2925.57
-2989.78
-3058.64
-3132.26
-3211.17
-3297.58
-3391.18
-3492.17
-3601.04
-3718.39
-3844.98
-3982.01
-4131.9
-4297.5
-4444.56
-4613.22
-4795.52
-4989.07
-5193.66
-5410.12
-5645.23
-5969.62
-6123.5
-6354.13
-6596.6
-6842.84
-7092.48
-7351.04
-7579.29
-7792.02
-7999.82
-8191.61
-8360.82
-8502.94
-8618.59
-8698.78
-8733.15
-8718.88
-8672.92
-8594.24
-8494.3
-8373.6
-8231.23
-8059.67
-7857.16
-7610.79
-7339.11
-7021.37
-6659.44
-6265.54
-5844.06
-5402.83
-4964.88
-4549.98
-4164.43
-3811.73
-3495.14
-3219.2
-2987.05
-8206.06
-4814.28
-3072.22
-2316.99
-2014.23
-1879.06
-1776.57
-1736.15
-1701.25
-1657.94
-1601.44
-1530.29
-1443.61
-1341.44
-1225.95
-1103.11
-983.976
-884.461
-822.343
-810.638
-848.608
-915.923
-973.28
-967.44
-847.375
-584.998
-192.77
273.176
729.298
1092.84
1309.05
1366.11
1291.09
1131.64
936.094
740.705
565.664
417.433
293.702
188.244
94.3223
6.47614
-78.9164
-163.764
-248.682
-333.455
-417.409
-499.685
-579.403
-655.761
-728.088
-795.85
-858.652
-916.217
-968.362
-1014.99
-1056.1
-1091.81
-1122.3
-1147.84
-1168.76
-1185.39
-1198.16
-1207.67
-1214.56
-1219.44
-1222.84
-1225.24
-1227.08
-1228.87
-1231.09
-1234.15
-1238.43
-1244.21
-1251.67
-1260.58
-1270.89
-1282.99
-1297.32
-1313.84
-1332.38
-1352.75
-1374.79
-1398.37
-1423.37
-1449.67
-1477.16
-1505.7
-1535.19
-1565.59
-1596.88
-1629.06
-1662.15
-1696
-1730.32
-1764.88
-1799.69
-1835.16
-1872.2
-1911.13
-1951.6
-1993.19
-2035.68
-2080.73
-2120.06
-2153.48
-2189.14
-2226.4
-2264.01
-2300.1
-2334.58
-2370.52
-2408.89
-2448.63
-2488.23
-2527.27
-2566.22
-2606.03
-2647.86
-2692.89
-2742.3
-2797.21
-2858.42
-2925.93
-2999.31
-3071.22
-3154.93
-3247.19
-3347.54
-3456.34
-3574.15
-3701.77
-3840.58
-3996.14
-4209.14
-4330.56
-4502.1
-4689.93
-4889.46
-5099.64
-5320.1
-5551.71
-5801.97
-6027.89
-6263.68
-6503.97
-6744.22
-6981.67
-7213.78
-7431.35
-7634.03
-7819.44
-7981.97
-8113.93
-8213.1
-8277.58
-8299.48
-8278.77
-8215.45
-8117.35
-7982.19
-7837.78
-7673.47
-7480.13
-7249.19
-6984.65
-6701.83
-6380.08
-5995.57
-5551.4
-5066.25
-4558.02
-4043.96
-3547.38
-3088.16
-2675.59
-2314.13
-2004.81
-1749.21
-1544.88
-6534.93
-4208.39
-2934.84
-2341.61
-2062.42
-1916.46
-1869.36
-1832.74
-1790.15
-1736.83
-1672.61
-1597.46
-1511.42
-1415.54
-1313
-1210.09
-1116.31
-1043.12
-1000.63
-992.222
-1009.03
-1028.13
-1015.27
-931.977
-747.979
-456.991
-85.71
311.064
668.228
931.098
1070.23
1086.58
1005.9
865.703
701.94
540.801
396.499
273.27
169.072
79.1062
-1.73588
-77.6068
-151.284
-224.237
-296.929
-369.176
-440.438
-510.023
-577.24
-641.489
-702.305
-759.375
-812.543
-861.745
-906.957
-948.199
-985.557
-1019.21
-1049.39
-1076.33
-1100.24
-1121.14
-1139.18
-1154.81
-1168.58
-1180.79
-1191.62
-1201.15
-1209.55
-1217.17
-1224.47
-1231.88
-1239.79
-1248.66
-1258.87
-1269.92
-1282.2
-1296.16
-1312.72
-1331.82
-1353.16
-1376.55
-1401.83
-1428.87
-1457.48
-1487.52
-1518.95
-1551.5
-1584.79
-1618.36
-1651.76
-1684.38
-1716.85
-1749.51
-1782.02
-1814.05
-1845.44
-1876.7
-1910.02
-1946.34
-1986.15
-2029.08
-2068.83
-2101.04
-2133.18
-2161.14
-2188.74
-2218.04
-2247.81
-2275.29
-2294.92
-2318.06
-2345.49
-2375.3
-2404.89
-2433.82
-2462.92
-2493.55
-2527.15
-2565.06
-2608.53
-2658.81
-2717.49
-2786.51
-2879.25
-2934.79
-3017.72
-3111.45
-3214.01
-3325.48
-3446.26
-3576.93
-3718.3
-3872.16
-4044.1
-4209.31
-4388.26
-4579.83
-4782.35
-4994.52
-5215.15
-5443.21
-5677.09
-5910.07
-6142.91
-6373.83
-6599.68
-6817.33
-7023.18
-7212.82
-7382.57
-7528.9
-7646.8
-7728.4
-7771.71
-7768.11
-7721.1
-7637.41
-7526.06
-7377.36
-7211.55
-7027.18
-6803.66
-6529.94
-6199.93
-5825.01
-5450.63
-4998.06
-4464.5
-3875.38
-3260.53
-2646.26
-2053.16
-1503.43
-1015.51
-598.322
-254.341
18.7687
228.383
378.439
-4867.36
-3624.31
-2799.67
-2343.9
-2137.85
-2052.14
-1995.17
-1940.85
-1881.64
-1816.5
-1745.44
-1668.47
-1585.88
-1498.99
-1410.87
-1326.57
-1252.61
-1195.35
-1158.11
-1137.61
-1121.44
-1088.39
-1012.15
-868.312
-644.65
-350.113
-16.7803
308.276
578.746
762.02
845.699
837.557
760.047
641.544
508.005
377.934
261.193
160.551
74.3315
-1.08362
-69.5316
-134.225
-197.392
-260.229
-323.128
-385.975
-448.338
-509.637
-569.28
-626.772
-681.744
-734.01
-783.579
-830.482
-874.608
-915.75
-953.613
-988.408
-1020.44
-1050
-1077.23
-1101.73
-1123.59
-1143.13
-1161.1
-1177.73
-1192.83
-1206.14
-1217.64
-1227.79
-1237.31
-1246.82
-1256.67
-1267.71
-1280.22
-1292.7
-1307.71
-1325.11
-1345.75
-1369.46
-1395.95
-1425.08
-1456.86
-1491.2
-1528.44
-1566.03
-1605.79
-1647.84
-1691.82
-1736.68
-1781.25
-1816.52
-1847.24
-1876.69
-1904.48
-1930.94
-1955.57
-1978.31
-2004.57
-2032.44
-2068.12
-2095.42
-2120.02
-2143
-2164.61
-2180.68
-2197.72
-2213.78
-2230.01
-2253.48
-2245.76
-2251.71
-2263.92
-2279.11
-2293.96
-2308.8
-2325.35
-2345.53
-2370.99
-2403.03
-2442.66
-2490.7
-2547.98
-2614.99
-2690.95
-2768.9
-2857.09
-2954.73
-3061.28
-3176.74
-3301.36
-3435.52
-3579.68
-3734.54
-3900.57
-4074.85
-4258.97
-4453.3
-4657.14
-4869.32
-5088.33
-5312.49
-5539.35
-5765.67
-5988.56
-6205.12
-6411.81
-6604.9
-6780.36
-6933.75
-7060.82
-7157.77
-7219.96
-7241.01
-7218.2
-7139.58
-7033.62
-6897.64
-6725.85
-6506.75
-6278.98
-5988.25
-5622.15
-5184.5
-4675.19
-4099.33
-3456.91
-2742.59
-1982.49
-1207.3
-448.681
267.968
929.605
1517.87
2017.7
2422.57
2733.26
2955.9
3113.85
3219.21
-3158.7
-2981.55
-2666.85
-2438.45
-2294.94
-2195.38
-2113.94
-2039.41
-1966.44
-1892.52
-1816.96
-1739.95
-1661.94
-1583.95
-1508.01
-1437.05
-1374.18
-1321.17
-1276.53
-1233.6
-1179.88
-1098.52
-972.117
-788.818
-549.367
-271.358
13.7378
270.53
469.29
592.793
638.798
617.806
548.404
451.471
345.194
242.233
149.185
67.7375
-3.47741
-67.1308
-126.095
-182.974
-239.661
-297.008
-355.081
-414.138
-473.828
-533.528
-592.584
-650.471
-706.712
-761.316
-814.534
-866.791
-918.185
-968.762
-1012.16
-1048.94
-1080.85
-1109.25
-1134.47
-1155.55
-1174.88
-1192.2
-1208.41
-1224.4
-1238.65
-1250.65
-1260.33
-1268.66
-1277.01
-1286.44
-1297.85
-1312.19
-1330.91
-1353.67
-1374.99
-1397.18
-1423.91
-1454.65
-1488.38
-1524.44
-1562.38
-1601.85
-1642.06
-1684.09
-1729.6
-1779.57
-1836.66
-1902.15
-1994.63
-2033.04
-2051.33
-2068.32
-2079.26
-2092.83
-2105.92
-2101.64
-2112.31
-2127.09
-2136.23
-2143.54
-2149.45
-2153.62
-2155.48
-2152.09
-2149.44
-2142.67
-2132.25
-2120.99
-2107.16
-2098.83
-2092.93
-2088.42
-2084.47
-2082.94
-2086.6
-2097.81
-2118.15
-2148.61
-2189.67
-2241.5
-2304.04
-2376.98
-2459.27
-2549.83
-2649.08
-2756.98
-2873.4
-2998.38
-3132.14
-3275.02
-3427.43
-3589.87
-3762.48
-3944.91
-4136.95
-4338.33
-4548.15
-4764.98
-4986.88
-5211.5
-5435.81
-5656.08
-5868.33
-6068.47
-6251.98
-6414.13
-6549.97
-6654.35
-6722.37
-6749.84
-6732.64
-6667.52
-6548.57
-6379.54
-6186.05
-5956.82
-5658.52
-5287.53
-4843.51
-4303.79
-3680.56
-2985.56
-2218.71
-1385.87
-481.874
454.081
1388.69
2288.48
3124.43
3878.37
4563.12
5151.41
5629.85
5996.81
6258.13
6425.11
6542.41
6706.05
-1607.78
-2493.46
-2638.45
-2560.13
-2431.93
-2308.94
-2205.04
-2117.14
-2037.33
-1959.11
-1881.07
-1804.58
-1730.5
-1659.1
-1590.83
-1526.26
-1465.43
-1406.87
-1346.51
-1277.02
-1188.17
-1068.78
-910.046
-709.964
-476.891
-230.004
4.78147
201.981
343.956
424.701
446.857
420.759
361.054
282.696
198.063
115.568
39.4513
-29.3775
-92.0634
-150.515
-207.297
-264.781
-325.022
-388.361
-446.454
-506.445
-569.249
-633.965
-699.271
-763.835
-826.272
-889.107
-951.823
-1015.06
-1079.78
-1140.26
-1184.74
-1221.91
-1255.17
-1285.53
-1313.55
-1338.86
-1359.86
-1375.45
-1389.14
-1405.05
-1416.52
-1423.02
-1424.16
-1422.14
-1420.08
-1420.27
-1424.64
-1434.13
-1449.29
-1470.64
-1487.07
-1508.11
-1530.21
-1557.38
-1589.36
-1625.43
-1664.8
-1706.24
-1748.98
-1797.93
-1850.52
-1906.82
-1968.19
-2086.18
-2100.87
-2085.87
-2069.64
-2054.43
-2004.32
-1997.88
-2003.07
-2020.02
-2011.59
-2000.94
-1994.01
-1990.46
-1987.55
-1983.32
-1977.54
-1963.76
-1932.71
-1902.46
-1872.95
-1847.06
-1824.88
-1801.6
-1776.91
-1753.61
-1734.77
-1723.71
-1723.49
-1736.28
-1763.27
-1804.8
-1860.6
-1929.99
-2012.02
-2105.58
-2209.39
-2322.33
-2443.66
-2572.91
-2709.83
-2854.39
-3006.82
-3167.46
-3336.73
-3515.01
-3702.44
-3898.74
-4103.39
-4315.51
-4533.69
-4755.82
-4979.15
-5200.32
-5415.22
-5619.06
-5806.6
-5972.41
-6110.79
-6215.89
-6281.85
-6302.85
-6273.52
-6189.41
-6047.04
-5843.04
-5573.79
-5262.34
-4884.44
-4433.67
-3898.92
-3278.24
-2553.78
-1732.45
-842.483
104.463
1101.09
2135.91
3180.65
4217.82
5203.02
6105.01
6904.41
7596.27
8280.64
8816.81
9214.84
9493.18