/*--------------------------------*- C++ -*----------------------------------*\
| =========                 |                                                 |
| \\      /  F ield         | OpenFOAM: The Open Source CFD Toolbox           |
|  \\    /   O peration     | Version:  2112                                  |
|   \\  /    A nd           | Website:  www.openfoam.com                      |
|    \\/     M anipulation  |                                                 |
\*---------------------------------------------------------------------------*/
FoamFile
{
    version     2.0;
    format      ascii;
    arch        "LSB;label=32;scalar=64";
    class       volScalarField;
    location    "0.25";
    object      nut;
}
// * * * * * * * * * * * * * * * * * * * * * * * * * * * * * * * * * * * * * //

dimensions      [0 2 -1 0 0 0 0];

internalField   nonuniform List<scalar> 
12225
(
5.44177e-06
8.85088e-06
1.18526e-05
1.487e-05
1.8194e-05
2.2016e-05
2.64697e-05
3.1654e-05
3.76378e-05
4.44648e-05
5.21526e-05
6.0693e-05
7.00547e-05
8.01868e-05
9.10307e-05
0.000102482
0.000114661
0.000127134
4.54828e-05
2.36008e-05
1.84873e-05
1.70041e-05
1.69931e-05
1.7812e-05
1.92011e-05
2.10229e-05
2.31788e-05
2.55828e-05
2.81592e-05
3.0849e-05
3.36183e-05
3.64446e-05
3.93323e-05
4.23291e-05
4.58008e-05
4.9498e-05
0.000415571
0.000139616
0.000106293
7.42292e-05
5.4383e-05
4.33724e-05
3.6891e-05
3.29538e-05
3.05673e-05
2.91794e-05
2.84653e-05
2.82305e-05
2.83584e-05
2.87776e-05
2.94437e-05
3.03326e-05
3.14375e-05
3.26256e-05
0.00114029
0.0008576
0.000517847
0.000353628
0.000261629
0.000210219
0.000183032
0.000149169
0.000124763
0.000107598
9.5066e-05
8.5593e-05
7.82204e-05
7.23491e-05
6.75952e-05
6.37153e-05
6.05611e-05
5.81399e-05
0.00144635
0.00142284
0.0012589
0.00108241
0.000887327
0.000722931
0.000601913
0.000520048
0.000465061
0.000429558
0.000390067
0.000348429
0.000315096
0.000287895
0.000265319
0.000246432
0.000230659
0.000218047
0.00151274
0.00150367
0.00148347
0.00144281
0.00130093
0.00115773
0.00105153
0.000977515
0.000923644
0.000885021
0.000860178
0.000843923
0.000826948
0.000800059
0.000754305
0.000700459
0.000632473
0.000576331
0.00151437
0.00151339
0.00151082
0.00150559
0.00144444
0.00131864
0.00123352
0.00118053
0.00114774
0.00112883
0.00111923
0.00111013
0.00109004
0.00105134
0.000992005
0.000918064
0.000838841
0.000778091
0.00151437
0.00151411
0.0015138
0.00151322
0.00151219
0.00143672
0.00134865
0.00129187
0.00125818
0.00123957
0.00122739
0.00121205
0.00118489
0.00114118
0.00108151
0.00101218
0.000942313
0.000892127
0.00151427
0.00151397
0.00151379
0.00151369
0.00151366
0.00151363
0.00146731
0.00140724
0.00136629
0.00133861
0.00131691
0.00129335
0.00126054
0.00121483
0.00115742
0.00109456
0.00103373
0.000990617
0.00151418
0.0015138
0.00151354
0.00151341
0.00151339
0.00151349
0.00151364
0.00151381
0.00147434
0.00144247
0.00141535
0.00138574
0.00134767
0.00129972
0.00124403
0.00118645
0.00113312
0.00109602
0.00151412
0.00151367
0.00151333
0.00151312
0.00151302
0.00151303
0.00151313
0.00151327
0.00151345
0.00151363
0.00150862
0.00147867
0.00144122
0.00139526
0.00134326
0.00129156
0.0012456
0.00121479
0.00151407
0.00151357
0.00151318
0.0015129
0.00151273
0.00151266
0.00151267
0.00151274
0.00151285
0.00151298
0.00151314
0.00151331
0.00151349
0.00148311
0.00143996
0.00139719
0.00135949
0.00133519
0.00151404
0.0015135
0.00151306
0.00151273
0.00151249
0.00151235
0.00151228
0.00151227
0.0015123
0.00151237
0.00151247
0.00151258
0.00151272
0.00151287
0.00151303
0.00149441
0.00146686
0.00144995
0.00151401
0.00151343
0.00151295
0.00151257
0.00151227
0.00151206
0.00151191
0.00151183
0.00151178
0.00151178
0.0015118
0.00151184
0.00151191
0.001512
0.0015121
0.00151221
0.00151232
0.00151244
0.00151399
0.00151338
0.00151286
0.00151243
0.00151208
0.0015118
0.00151159
0.00151143
0.00151131
0.00151123
0.00151117
0.00151114
0.00151113
0.00151114
0.00151116
0.00151119
0.00151122
0.00151126
0.00151397
0.00151334
0.00151278
0.00151231
0.00151192
0.00151159
0.00151132
0.00151109
0.00151091
0.00151075
0.00151063
0.00151052
0.00151043
0.00151035
0.00151029
0.00151023
0.00151018
0.00151014
0.00151396
0.00151331
0.00151273
0.00151223
0.00151179
0.00151142
0.0015111
0.00151082
0.00151058
0.00151037
0.00151017
0.00151
0.00150984
0.00150969
0.00150955
0.00150941
0.00150929
0.00150916
0.00151395
0.0015133
0.0015127
0.00151218
0.00151172
0.00151131
0.00151095
0.00151063
0.00151034
0.00151008
0.00150983
0.0015096
0.00150938
0.00150917
0.00150897
0.00150877
0.00150858
0.00150839
0.00151396
0.0015133
0.00151271
0.00151218
0.0015117
0.00151128
0.0015109
0.00151055
0.00151023
0.00150993
0.00150965
0.00150938
0.00150911
0.00150885
0.0015086
0.00150836
0.00150811
0.00150788
0.00151397
0.00151333
0.00151275
0.00151222
0.00151176
0.00151133
0.00151095
0.0015106
0.00151028
0.00150997
0.00150967
0.00150938
0.0015091
0.00150882
0.00150854
0.00150827
0.001508
0.00150774
0.00151399
0.00151337
0.00151281
0.0015123
0.00151185
0.00151144
0.00151107
0.00151073
0.00151042
0.00151012
0.00150983
0.00150954
0.00150926
0.00150898
0.00150871
0.00150843
0.00150816
0.00150789
0.00151402
0.00151342
0.00151289
0.00151241
0.00151198
0.0015116
0.00151125
0.00151094
0.00151065
0.00151038
0.00151011
0.00150985
0.00150958
0.00150932
0.00150905
0.00150877
0.0015085
0.00150822
0.00151406
0.0015135
0.001513
0.00151255
0.00151215
0.00151179
0.00151148
0.00151118
0.0015109
0.00151061
0.00151031
0.00150999
0.00150964
0.00150924
0.00150881
0.00150833
0.0015078
0.00150724
0.00151411
0.0015136
0.00151312
0.00151265
0.00151216
0.00151162
0.00151098
0.00151017
0.00150915
0.00150786
0.00150627
0.00150435
0.00150209
0.00149949
0.00149655
0.0014933
0.00148976
0.00148594
0.00151415
0.00151347
0.00151238
0.00151051
0.00150748
0.00150294
0.00149655
0.00148807
0.00147734
0.00146437
0.00144928
0.00143227
0.00141365
0.00139375
0.00137288
0.00135135
0.0013294
0.00130725
0.00151278
0.00150677
0.00149328
0.00146951
0.00143485
0.00138946
0.0013342
0.00127102
0.00120262
0.00113195
0.00106174
0.000994093
0.000930718
0.000872353
0.000819072
0.000770671
0.000726831
0.000687184
0.00147838
0.00139252
0.00124592
0.00106709
0.000800677
0.000607907
0.000488331
0.000409705
0.000355567
0.00031786
0.000292013
0.000275213
0.000250451
0.00022586
0.000205821
0.000189243
0.000175352
0.000163593
0.000991205
0.000310529
0.000206605
0.000170766
0.000156266
0.000118368
9.4023e-05
7.78263e-05
6.66119e-05
5.86255e-05
5.28253e-05
4.85569e-05
4.5386e-05
4.30222e-05
4.12646e-05
3.99688e-05
3.90299e-05
3.83705e-05
9.93438e-05
4.47157e-05
3.04382e-05
2.47073e-05
2.20982e-05
2.09634e-05
2.06695e-05
2.09238e-05
2.15726e-05
2.2524e-05
2.37157e-05
2.51004e-05
2.66388e-05
2.82967e-05
3.00434e-05
3.18531e-05
3.37054e-05
3.55832e-05
5.37181e-06
8.39433e-06
1.10016e-05
1.34415e-05
1.58808e-05
1.83115e-05
2.09302e-05
2.38055e-05
2.69737e-05
3.04579e-05
3.42742e-05
3.84328e-05
4.29383e-05
4.77897e-05
5.29802e-05
5.84975e-05
6.43286e-05
7.04415e-05
0.000216705
0.000217737
0.000219875
0.000222887
0.000226645
0.000231013
0.000235843
0.000240985
0.000246277
0.000251536
0.000256556
0.000261156
0.000265165
0.000268433
0.000270833
0.000272285
0.000272755
0.000272249
0.000270749
0.000268233
0.000264801
0.000260584
0.000255812
0.000250856
0.000246265
0.000242792
0.000234353
0.000222106
0.000220918
0.000232582
0.000256521
0.000291531
0.000335538
0.000385938
0.000440238
0.000496465
0.000553249
0.000609702
0.000665255
0.000719517
0.000772179
0.000822964
0.000871608
0.000917862
0.000961511
0.00100239
0.00104039
0.00107549
0.0011077
0.00113711
0.00116386
0.00118813
0.00121009
0.00122997
0.00124796
0.00126426
0.00127905
0.00129249
0.00130472
0.00131585
0.00132598
0.00133516
0.00134347
0.00135093
0.00135759
0.00136346
0.00136855
0.00137289
0.00137649
0.00137937
0.00138155
0.00138305
0.00138388
0.0013841
0.00138371
0.00138276
0.00138129
0.00137933
0.00137692
0.00137411
0.00137094
0.00136745
0.00136368
0.00135967
0.00135547
0.00135112
0.00134665
0.0013421
0.00133751
0.0013329
0.0013283
0.00132374
0.00131922
0.00131476
0.00131037
0.00130604
0.00130178
0.00129758
0.00129343
0.00128933
0.00128527
0.00128124
0.00127723
0.00127323
0.00126924
0.00126523
0.00126121
0.00125716
0.00125308
0.00124895
0.00124478
0.00124055
0.00123624
0.00123185
0.00122736
0.00122276
0.00121803
0.00121315
0.0012081
0.00120286
0.00119741
0.00119172
0.00118578
0.00117956
0.00117303
0.00116617
0.00115899
0.00115143
0.00114346
0.00113504
0.00112613
0.00111675
0.00110698
0.00109678
0.00108617
0.00107516
0.00106377
0.00105201
0.00103993
0.00102755
0.00101494
0.00100217
0.000989316
0.000976493
0.000963801
0.000951342
0.000939199
0.00092744
0.000916132
0.000905371
0.000895292
0.000886065
0.000877889
0.000871007
0.000865726
0.000862446
0.000861733
0.000864407
0.000871684
0.000885438
0.000908695
0.000946543
0.00100792
0.00111063
0.0012982
0.00165363
0.00173134
0.00170476
0.00171674
0.0017397
0.00159422
0.00133313
0.00118032
0.00108715
0.001028
0.000990985
0.000969191
0.000960818
0.000961525
0.000995435
0.000215653
0.0002164
0.000218382
0.000221243
0.000224742
0.000228671
0.000232874
0.000237254
0.000241768
0.000246397
0.000251126
0.000255889
0.000260532
0.000264865
0.000268666
0.00027171
0.000273784
0.000274677
0.000274093
0.000271797
0.000267723
0.000261964
0.00025482
0.000246839
0.000238858
0.000232074
0.000228117
0.000229001
0.000236956
0.000253748
0.000280056
0.000315359
0.000358294
0.000407128
0.000460132
0.000515806
0.000572972
0.000630765
0.000688557
0.000745857
0.000802229
0.000857241
0.000910455
0.000961441
0.00100981
0.00105522
0.00109745
0.00113636
0.00117191
0.00120415
0.00123322
0.00125932
0.0012827
0.00130361
0.00132233
0.00133912
0.00135423
0.0013679
0.00138031
0.00139163
0.00140201
0.00141155
0.00142034
0.00142845
0.00143593
0.0014428
0.0014491
0.00145484
0.00146003
0.00146469
0.0014688
0.00147239
0.00147544
0.00147795
0.00147994
0.00148138
0.00148229
0.00148266
0.00148247
0.00148173
0.0014804
0.00147849
0.00147596
0.00147279
0.00146895
0.00146437
0.00145901
0.0014528
0.00144566
0.00143749
0.00142823
0.00141782
0.00140628
0.00139367
0.00138011
0.00136576
0.00135081
0.00133546
0.0013199
0.00130429
0.00128877
0.00127347
0.00125848
0.00124386
0.00122968
0.00121598
0.00120278
0.00119011
0.001178
0.00116644
0.00115546
0.00114506
0.00113525
0.00112603
0.00111741
0.0011094
0.001102
0.00109522
0.0010891
0.00108363
0.00107887
0.00107482
0.00107153
0.00106905
0.00106742
0.00106672
0.00106702
0.00106842
0.00107103
0.00107496
0.00108036
0.00108729
0.0010957
0.0011057
0.0011174
0.00113093
0.0011464
0.00116388
0.00118344
0.00120506
0.00122866
0.00125402
0.00128075
0.00130817
0.00133533
0.00136104
0.00138414
0.00140417
0.00142205
0.00143974
0.00145895
0.00148039
0.00150418
0.00153033
0.00155875
0.00158924
0.00162145
0.0016548
0.00168841
0.00172103
0.00175091
0.00177586
0.00179329
0.00180036
0.00179449
0.00177557
0.00175167
0.00174398
0.00175323
0.00176479
0.00175964
0.00173915
0.00171056
0.00167795
0.001644
0.0016106
0.00157906
0.00155058
0.00152524
0.00150638
0.000220407
0.000220663
0.000222611
0.000225665
0.000229348
0.000233251
0.000237081
0.000240691
0.000244062
0.000247293
0.000250602
0.000254167
0.000258031
0.000262147
0.000266349
0.000270356
0.000273793
0.000276148
0.000276739
0.000275094
0.000270996
0.000264561
0.000256243
0.000246826
0.000237437
0.000229635
0.000225469
0.000227303
0.000237261
0.000256473
0.000284741
0.000320855
0.0003632
0.000410179
0.000460405
0.00051275
0.000566336
0.000620495
0.000674696
0.000728479
0.000781398
0.000833002
0.000882836
0.000930464
0.000975498
0.00101763
0.00105663
0.00109239
0.00112489
0.0011542
0.00118048
0.00120393
0.0012248
0.00124335
0.00125987
0.00127461
0.00128783
0.00129975
0.00131056
0.00132043
0.00132949
0.00133783
0.00134555
0.0013527
0.00135931
0.00136541
0.00137102
0.00137612
0.00138073
0.00138482
0.00138838
0.0013914
0.00139384
0.00139568
0.00139689
0.00139744
0.00139729
0.0013964
0.00139473
0.00139222
0.00138882
0.00138449
0.00137915
0.00137275
0.00136522
0.00135652
0.00134662
0.00133553
0.00132329
0.00131001
0.00129584
0.00128098
0.00126568
0.00125018
0.00123476
0.00121968
0.00120516
0.00119142
0.00117861
0.00116687
0.00115629
0.00114693
0.00113884
0.00113202
0.00112649
0.00112224
0.00111925
0.0011175
0.00111694
0.00111756
0.00111929
0.00112209
0.00112588
0.00113061
0.00113619
0.00114252
0.00114952
0.00115708
0.0011651
0.00117349
0.00118219
0.00119116
0.00120045
0.00121016
0.0012204
0.00123131
0.00124305
0.00125575
0.00126959
0.00128473
0.0013012
0.00131899
0.00133806
0.00135838
0.00137992
0.00140261
0.00142634
0.00145098
0.00147633
0.00150215
0.00152813
0.00155389
0.00157904
0.00160313
0.00162576
0.00164665
0.00166575
0.00168333
0.00169993
0.00171613
0.00173222
0.0017482
0.0017639
0.00177912
0.00179363
0.00180718
0.00181949
0.00183022
0.00183903
0.00184556
0.00184942
0.00185023
0.00184783
0.00184208
0.00183291
0.00182137
0.00181034
0.00180604
0.0018067
0.00180783
0.00180464
0.00179697
0.00178615
0.00177312
0.00175859
0.00174319
0.0017275
0.00171248
0.00169876
0.00168976
0.000228489
0.000228427
0.000230695
0.000234419
0.000238799
0.000243166
0.000247065
0.000250283
0.000252815
0.000254829
0.000256667
0.000258585
0.000260854
0.000263662
0.000267051
0.000270873
0.00027467
0.000277558
0.000278624
0.000277126
0.000272746
0.000265683
0.000256619
0.000246641
0.000237222
0.000230278
0.000228124
0.000233088
0.000246767
0.000269415
0.000300034
0.000337018
0.000378769
0.000423954
0.000471523
0.000520661
0.000570727
0.000621201
0.000671627
0.000721575
0.000770605
0.00081827
0.000864128
0.000907765
0.000948828
0.000987045
0.00102224
0.00105432
0.00108331
0.00110932
0.00113249
0.00115306
0.00117127
0.00118739
0.00120168
0.0012144
0.00122578
0.00123603
0.00124532
0.00125381
0.0012616
0.0012688
0.00127545
0.00128162
0.00128731
0.00129255
0.00129733
0.00130166
0.00130551
0.00130887
0.00131172
0.00131405
0.00131583
0.00131704
0.00131766
0.00131769
0.0013171
0.0013159
0.00131408
0.00131164
0.00130861
0.00130501
0.00130086
0.00129624
0.00129121
0.00128584
0.00128026
0.00127459
0.00126897
0.00126355
0.00125848
0.00125392
0.00125001
0.00124685
0.00124457
0.00124321
0.00124284
0.00124348
0.00124513
0.00124779
0.00125142
0.00125599
0.00126147
0.00126781
0.00127496
0.00128288
0.00129151
0.00130081
0.00131072
0.00132119
0.00133216
0.00134357
0.00135538
0.00136754
0.00137999
0.00139269
0.00140562
0.00141874
0.00143203
0.00144553
0.00145919
0.00147296
0.00148687
0.00150093
0.00151526
0.00153003
0.00154529
0.00156106
0.00157736
0.00159417
0.00161144
0.00162909
0.00164706
0.00166525
0.00168357
0.0017019
0.00172011
0.00173808
0.00175564
0.00177265
0.00178897
0.00180444
0.00181897
0.00183247
0.0018449
0.0018563
0.00186673
0.00187632
0.00188517
0.00189335
0.00190084
0.00190757
0.00191343
0.00191832
0.00192218
0.00192493
0.00192651
0.0019268
0.00192571
0.00192329
0.00191957
0.00191438
0.00190805
0.00190093
0.00189229
0.00188322
0.00187417
0.00186666
0.00186041
0.00185397
0.00184625
0.00183734
0.00182747
0.00181676
0.00180544
0.00179382
0.00178228
0.00177173
0.0017629
0.00175814
0.000237816
0.00023764
0.000240579
0.000245321
0.000250628
0.000255527
0.000259447
0.000262203
0.0002639
0.000264841
0.000265396
0.000265868
0.000266662
0.000268135
0.000270524
0.000273691
0.000277059
0.000279647
0.000280336
0.000278269
0.00027317
0.000265425
0.000255992
0.000246283
0.000238102
0.000233624
0.000235153
0.000244552
0.000262549
0.000288521
0.000320982
0.000358291
0.000399086
0.000442348
0.000487322
0.000533422
0.000580162
0.000627117
0.000673881
0.000720043
0.00076518
0.000808865
0.000850686
0.000890272
0.000927318
0.000961603
0.000992996
0.00102146
0.00104704
0.00106987
0.00109012
0.00110802
0.0011238
0.00113773
0.00115006
0.00116102
0.00117082
0.00117967
0.00118771
0.00119508
0.00120189
0.00120821
0.00121411
0.00121962
0.00122479
0.00122964
0.00123417
0.00123842
0.00124239
0.0012461
0.00124958
0.00125285
0.00125594
0.00125889
0.00126176
0.0012646
0.00126746
0.00127042
0.00127354
0.00127691
0.00128059
0.00128467
0.00128921
0.0012943
0.00129999
0.00130635
0.00131341
0.00132122
0.00132978
0.00133911
0.00134918
0.00135997
0.00137143
0.00138349
0.00139609
0.00140916
0.00142261
0.00143637
0.00145036
0.00146452
0.00147877
0.00149308
0.00150739
0.00152167
0.00153589
0.00155003
0.00156405
0.00157796
0.00159172
0.00160532
0.00161876
0.00163202
0.00164511
0.00165802
0.00167077
0.00168337
0.00169586
0.00170818
0.00172029
0.00173217
0.0017439
0.00175561
0.00176734
0.0017791
0.00179093
0.00180284
0.00181483
0.00182687
0.00183893
0.00185098
0.00186298
0.00187486
0.00188658
0.00189807
0.00190928
0.00192015
0.00193061
0.00194061
0.00195009
0.001959
0.00196729
0.00197493
0.0019819
0.00198819
0.00199381
0.00199877
0.00200308
0.00200675
0.00200977
0.00201212
0.00201377
0.00201467
0.00201477
0.00201396
0.00201218
0.00200942
0.00200584
0.00200125
0.0019955
0.00198869
0.00198135
0.00197301
0.00196368
0.00195472
0.00194525
0.00193499
0.00192398
0.00191304
0.00190225
0.00189105
0.00187925
0.00186716
0.0018549
0.00184244
0.00182983
0.00181729
0.00180513
0.00179409
0.00178477
0.00177832
0.000247249
0.00024731
0.000251305
0.000257286
0.000263449
0.000268534
0.000271984
0.000273814
0.000274377
0.000274186
0.000273571
0.000272953
0.000272779
0.000273428
0.000275077
0.000277536
0.000280131
0.000281789
0.000281384
0.000278179
0.000272119
0.000263868
0.000254676
0.00024623
0.000240557
0.000239844
0.000246026
0.000260171
0.00028209
0.000310553
0.000343949
0.000380855
0.000420227
0.000461343
0.000503674
0.000546793
0.000590317
0.000633877
0.000677098
0.000719589
0.00076095
0.000800784
0.000838722
0.000874443
0.000907694
0.000938307
0.000966199
0.000991372
0.0010139
0.00103393
0.00105164
0.00106727
0.00108103
0.00109319
0.00110396
0.00111358
0.00112225
0.00113014
0.00113742
0.0011442
0.0011506
0.00115672
0.00116264
0.00116842
0.00117415
0.00117987
0.00118567
0.00119161
0.00119777
0.00120422
0.00121107
0.0012184
0.00122631
0.0012349
0.00124426
0.00125447
0.00126563
0.00127778
0.00129098
0.00130526
0.00132062
0.00133705
0.0013545
0.00137292
0.00139222
0.00141231
0.00143308
0.0014544
0.00147615
0.00149818
0.00152038
0.0015426
0.00156472
0.00158664
0.00160825
0.00162945
0.00165018
0.00167037
0.00168996
0.00170894
0.00172727
0.00174494
0.00176196
0.00177834
0.00179409
0.00180923
0.00182379
0.00183778
0.00185122
0.00186415
0.00187658
0.00188853
0.00190002
0.0019111
0.0019218
0.00193199
0.00194165
0.0019509
0.00195986
0.00196855
0.00197703
0.00198533
0.00199348
0.00200147
0.00200932
0.00201704
0.00202459
0.00203199
0.00203919
0.00204618
0.00205294
0.00205944
0.00206565
0.00207153
0.00207707
0.00208222
0.00208698
0.0020913
0.00209516
0.00209855
0.00210145
0.00210382
0.00210565
0.00210693
0.00210764
0.0021078
0.00210741
0.00210644
0.00210486
0.0021026
0.00209964
0.00209597
0.00209167
0.00208655
0.00208045
0.00207324
0.00206547
0.00205702
0.00204752
0.00203653
0.00202573
0.00201443
0.00200278
0.00199096
0.00197882
0.001966
0.00195245
0.00193862
0.00192466
0.00191033
0.00189567
0.00188102
0.00186653
0.00185221
0.00183809
0.00182431
0.00181114
0.00179914
0.00178871
0.00178032
0.000256631
0.000257357
0.000262731
0.000269925
0.000276514
0.000281096
0.000283372
0.000283765
0.000282969
0.000281652
0.000280147
0.000278911
0.000278302
0.000278562
0.000279713
0.000281411
0.000282888
0.000283112
0.000281162
0.000276615
0.000269758
0.000261551
0.000253482
0.000247396
0.00024532
0.000249145
0.000260128
0.000278463
0.000303265
0.000333064
0.000366409
0.000402198
0.000439701
0.000478431
0.000518024
0.000558156
0.000598508
0.00063875
0.000678529
0.000717481
0.000755232
0.000791425
0.000825737
0.000857899
0.00088771
0.000915049
0.000939874
0.000962218
0.00098218
0.000999911
0.0010156
0.00102947
0.00104175
0.00105267
0.00106246
0.00107133
0.00107949
0.00108712
0.00109438
0.00110142
0.0011084
0.00111542
0.00112262
0.00113013
0.00113806
0.00114653
0.00115568
0.00116563
0.00117651
0.00118845
0.00120157
0.00121598
0.00123177
0.00124901
0.00126775
0.00128802
0.00130979
0.00133302
0.00135763
0.00138351
0.00141054
0.00143855
0.00146737
0.00149682
0.00152671
0.00155684
0.00158704
0.00161713
0.00164693
0.00167631
0.00170511
0.00173323
0.00176055
0.00178701
0.00181253
0.00183706
0.00186057
0.00188303
0.00190444
0.0019248
0.00194412
0.00196243
0.00197975
0.00199612
0.00201159
0.0020262
0.00203999
0.00205301
0.0020653
0.00207689
0.00208782
0.00209814
0.00210782
0.00211676
0.00212495
0.00213258
0.00213969
0.00214636
0.00215262
0.00215851
0.00216406
0.00216929
0.00217423
0.00217888
0.00218324
0.00218733
0.00219114
0.00219467
0.0021979
0.00220082
0.00220342
0.00220569
0.0022076
0.00220915
0.0022103
0.00221103
0.00221133
0.00221117
0.00221055
0.00220945
0.00220788
0.00220581
0.00220319
0.00219999
0.0021962
0.00219181
0.00218687
0.00218148
0.00217552
0.00216889
0.0021615
0.00215322
0.00214465
0.00213547
0.00212541
0.00211395
0.00210187
0.00208965
0.0020767
0.00206307
0.00204898
0.00203449
0.0020197
0.00200475
0.00198959
0.00197402
0.00195796
0.00194167
0.00192525
0.00190862
0.00189189
0.00187533
0.00185915
0.00184339
0.00182811
0.00181345
0.0017996
0.001787
0.00177588
0.00176642
0.00026636
0.000268157
0.000274968
0.000282924
0.00028912
0.000292355
0.000292896
0.000291694
0.000289748
0.000287591
0.000285633
0.000284165
0.00028337
0.00028331
0.000283828
0.000284453
0.000284426
0.000282917
0.000279358
0.000273734
0.000266672
0.000259368
0.000253425
0.00025066
0.000252839
0.000261285
0.000276473
0.000297879
0.000324272
0.000354252
0.000386666
0.000420744
0.000456011
0.000492154
0.000528916
0.00056604
0.000603251
0.000640244
0.000676694
0.000712262
0.000746613
0.000779431
0.000810441
0.000839423
0.000866225
0.000890765
0.000913035
0.000933093
0.000951051
0.00096707
0.000981341
0.000994081
0.00100551
0.00101587
0.00102539
0.00103427
0.00104275
0.00105101
0.00105925
0.00106766
0.00107641
0.00108568
0.00109563
0.00110644
0.00111827
0.00113127
0.00114561
0.00116143
0.00117885
0.00119797
0.00121888
0.00124162
0.00126621
0.00129261
0.00132077
0.00135057
0.00138189
0.00141455
0.00144838
0.00148315
0.00151865
0.00155465
0.00159095
0.0016273
0.00166352
0.0016994
0.00173477
0.00176946
0.00180334
0.00183629
0.0018682
0.00189899
0.00192859
0.00195695
0.00198405
0.00200986
0.00203438
0.0020576
0.00207956
0.00210026
0.00211973
0.002138
0.00215512
0.00217114
0.00218611
0.00220008
0.0022131
0.00222523
0.00223651
0.002247
0.00225668
0.00226544
0.00227331
0.00228044
0.00228686
0.00229265
0.00229784
0.00230248
0.0023066
0.00231024
0.00231341
0.00231615
0.00231847
0.00232038
0.0023219
0.00232302
0.00232374
0.00232407
0.00232399
0.0023235
0.00232259
0.00232125
0.00231949
0.00231729
0.00231462
0.00231144
0.00230774
0.00230348
0.00229866
0.00229327
0.00228735
0.00228099
0.00227406
0.00226652
0.00225831
0.00224939
0.0022397
0.00222987
0.00221963
0.00220884
0.00219736
0.00218454
0.00217163
0.00215854
0.00214479
0.00213029
0.00211519
0.00209953
0.0020833
0.00206657
0.00204944
0.00203195
0.0020142
0.0019963
0.00197829
0.00196012
0.00194175
0.0019233
0.00190485
0.00188638
0.00186801
0.00184998
0.00183247
0.0018156
0.00179946
0.00178417
0.00176989
0.00175696
0.00174549
0.00173554
0.000277257
0.000280287
0.000287966
0.000295598
0.000300344
0.000301658
0.000300476
0.000298099
0.00029543
0.000292879
0.000290716
0.000289049
0.00028791
0.000287219
0.000286708
0.000285888
0.000284145
0.000280966
0.000276189
0.000270171
0.000263792
0.000258353
0.000255408
0.000256534
0.000263017
0.000275503
0.000293787
0.000316929
0.000343666
0.000372843
0.000403642
0.000435569
0.00046834
0.000501756
0.000535629
0.000569747
0.000603863
0.0006377
0.000670962
0.000703343
0.000734547
0.000764304
0.000792385
0.000818617
0.000842888
0.000865152
0.000885428
0.00090379
0.000920365
0.000935316
0.000948838
0.000961145
0.000972466
0.000983033
0.000993081
0.00100284
0.00101255
0.00102243
0.0010327
0.00104357
0.00105525
0.00106794
0.00108184
0.00109713
0.00111397
0.00113252
0.0011529
0.00117521
0.00119952
0.00122586
0.00125423
0.00128456
0.00131677
0.00135073
0.00138629
0.00142324
0.00146138
0.00150048
0.0015403
0.00158061
0.00162119
0.00166179
0.00170222
0.00174228
0.00178177
0.00182054
0.00185844
0.00189534
0.00193113
0.00196571
0.00199901
0.00203096
0.00206153
0.00209067
0.00211837
0.00214463
0.00216945
0.00219286
0.00221488
0.00223553
0.00225486
0.0022729
0.00228968
0.00230527
0.00231972
0.00233307
0.00234539
0.00235674
0.00236712
0.00237646
0.0023848
0.00239225
0.00239885
0.00240467
0.00240973
0.00241408
0.00241774
0.00242074
0.00242311
0.00242488
0.00242608
0.00242673
0.00242685
0.00242646
0.00242555
0.00242414
0.00242221
0.00241975
0.00241677
0.00241324
0.00240915
0.00240451
0.00239933
0.00239366
0.00238745
0.00238065
0.00237323
0.00236515
0.00235635
0.00234681
0.0023365
0.00232595
0.00231491
0.00230328
0.00229102
0.00227805
0.00226375
0.00224957
0.00223538
0.00222078
0.00220575
0.00219016
0.00217419
0.00215775
0.0021408
0.00212331
0.00210528
0.0020867
0.00206763
0.00204818
0.00202844
0.00200842
0.00198811
0.00196764
0.00194713
0.00192662
0.00190614
0.00188577
0.00186557
0.00184555
0.0018258
0.00180653
0.00178794
0.00177017
0.00175333
0.00173755
0.00172297
0.00170984
0.0016982
0.00168806
0.00028972
0.000293632
0.000301143
0.000307356
0.00031004
0.000309436
0.000306936
0.00030381
0.000300661
0.000297808
0.000295312
0.000293157
0.000291287
0.000289555
0.000287683
0.000285283
0.000281985
0.000277621
0.000272392
0.000266909
0.00026215
0.000259372
0.000259914
0.000264949
0.000275189
0.000290666
0.000310734
0.000334333
0.000360373
0.00038801
0.000416715
0.000446207
0.000476326
0.000506946
0.000537923
0.000569075
0.000600181
0.000630994
0.000661248
0.000690679
0.000719031
0.00074608
0.000771643
0.000795586
0.000817836
0.000838375
0.000857243
0.000874529
0.000890368
0.000904927
0.000918403
0.00093101
0.000942975
0.000954536
0.000965933
0.000977408
0.000989204
0.00100156
0.0010147
0.00102886
0.00104424
0.00106105
0.00107946
0.00109963
0.0011217
0.00114575
0.00117186
0.00120007
0.00123035
0.00126265
0.00129689
0.00133293
0.00137062
0.00140976
0.00145015
0.00149157
0.00153378
0.00157654
0.00161963
0.00166282
0.00170592
0.00174871
0.00179102
0.00183268
0.00187353
0.00191346
0.00195232
0.00199002
0.00202647
0.00206159
0.0020953
0.00212756
0.00215832
0.00218755
0.00221524
0.00224137
0.00226596
0.00228905
0.00231067
0.00233085
0.00234965
0.0023671
0.00238325
0.00239815
0.00241186
0.00242442
0.00243588
0.00244623
0.00245549
0.00246375
0.00247105
0.00247746
0.002483
0.00248771
0.00249161
0.00249472
0.00249706
0.00249866
0.00249953
0.00249968
0.00249915
0.00249796
0.00249613
0.0024937
0.00249067
0.00248703
0.00248275
0.00247785
0.0024723
0.00246608
0.00245916
0.00245151
0.00244308
0.00243413
0.00242469
0.00241461
0.00240385
0.00239239
0.00238018
0.00236711
0.00235259
0.00233817
0.00232346
0.00230823
0.00229248
0.00227621
0.00225941
0.00224237
0.00222506
0.00220747
0.00218959
0.00217138
0.00215278
0.00213375
0.00211429
0.00209443
0.00207411
0.00205326
0.00203195
0.00201033
0.0019885
0.00196646
0.00194404
0.00192139
0.00189871
0.00187611
0.00185369
0.00183155
0.00180974
0.00178829
0.00176723
0.00174566
0.00172509
0.00170666
0.00169065
0.00167511
0.00166032
0.00164705
0.00163535
0.00162516
0.000303135
0.000307442
0.0003139
0.000318068
0.000318593
0.000316353
0.000312815
0.000308948
0.000305275
0.000301885
0.000298721
0.000295713
0.000292778
0.000289782
0.000286526
0.0002828
0.000278495
0.000273734
0.000268951
0.00026488
0.000262477
0.000262781
0.000266803
0.00027524
0.000288272
0.0003055
0.000326097
0.000349098
0.000373677
0.00039928
0.000425604
0.000452509
0.000479915
0.00050774
0.000535868
0.000564141
0.000592367
0.00062033
0.000647802
0.00067456
0.000700392
0.000725119
0.0007486
0.000770738
0.000791491
0.000810865
0.000828917
0.000845747
0.000861495
0.000876329
0.000890441
0.000904042
0.000917354
0.000930608
0.000944041
0.000957892
0.000972396
0.000987784
0.00100428
0.00102208
0.00104139
0.00106237
0.00108515
0.00110983
0.00113651
0.00116521
0.00119595
0.00122868
0.00126333
0.00129979
0.00133792
0.00137755
0.0014185
0.00146054
0.00150348
0.00154707
0.00159111
0.00163538
0.00167967
0.00172378
0.00176755
0.00181079
0.00185337
0.00189513
0.00193596
0.00197574
0.00201439
0.00205181
0.00208793
0.00212268
0.002156
0.00218782
0.0022181
0.00224677
0.00227382
0.00229922
0.00232298
0.00234512
0.0023657
0.00238478
0.00240243
0.0024187
0.00243368
0.0024474
0.00245997
0.00247149
0.00248192
0.00249127
0.00249958
0.0025069
0.00251327
0.00251873
0.00252329
0.00252699
0.00252983
0.00253184
0.00253302
0.00253338
0.00253293
0.00253169
0.00252965
0.00252682
0.00252319
0.00251891
0.00251399
0.00250837
0.00250206
0.00249502
0.00248727
0.00247878
0.00246953
0.00245943
0.00244817
0.00243619
0.00242398
0.00241113
0.00239759
0.00238335
0.0023684
0.00235273
0.00233633
0.00231946
0.00230211
0.0022843
0.00226604
0.0022474
0.00222843
0.00220922
0.00218981
0.00217021
0.00215042
0.0021304
0.00211005
0.00208926
0.00206807
0.00204655
0.00202466
0.00200218
0.00197918
0.00195584
0.00193229
0.00190853
0.00187291
0.00183211
0.00179191
0.0017533
0.00171688
0.00168274
0.00165093
0.00162166
0.00159485
0.00157026
0.00154779
0.00152756
0.00150973
0.00149424
0.00148136
0.00147005
0.00146405
0.00145986
0.000316284
0.000320565
0.000325519
0.000327571
0.000326199
0.000322482
0.000317813
0.000313115
0.000308659
0.00030441
0.000300273
0.000296181
0.000292083
0.000287913
0.000283598
0.000279112
0.00027456
0.00027025
0.00026672
0.000264688
0.000264966
0.000268332
0.000275381
0.000286352
0.000301038
0.000318827
0.000338919
0.000360556
0.000383179
0.000406467
0.000430274
0.00045455
0.000479262
0.000504354
0.000529732
0.000555264
0.000580789
0.000606125
0.000631086
0.000655491
0.000679173
0.000701995
0.000723851
0.00074468
0.000764464
0.000783228
0.00080104
0.000818006
0.000834265
0.000849979
0.00086533
0.000880511
0.000895727
0.000911191
0.000927118
0.000943726
0.000961224
0.000979813
0.000999681
0.001021
0.00104391
0.00106855
0.00109498
0.00112326
0.00115342
0.00118546
0.00121933
0.00125495
0.00129221
0.00133098
0.00137109
0.00141235
0.00145457
0.00149755
0.00154109
0.00158498