/*--------------------------------*- C++ -*----------------------------------*\
| =========                 |                                                 |
| \\      /  F ield         | OpenFOAM: The Open Source CFD Toolbox           |
|  \\    /   O peration     | Version:  2112                                  |
|   \\  /    A nd           | Website:  www.openfoam.com                      |
|    \\/     M anipulation  |                                                 |
\*---------------------------------------------------------------------------*/
FoamFile
{
    version     2.0;
    format      ascii;
    arch        "LSB;label=32;scalar=64";
    class       volScalarField;
    location    "0.25";
    object      p;
}
// * * * * * * * * * * * * * * * * * * * * * * * * * * * * * * * * * * * * * //

dimensions      [0 2 -2 0 0 0 0];

internalField   nonuniform List<scalar> 
12225
(
0.0080528
-0.846685
-1.22016
-1.38833
-1.60929
-1.88063
-2.1495
-2.39569
-2.61491
-2.80412
-2.96325
-3.09852
-3.22137
-3.34229
-3.4777
-3.63246
-3.83703
-3.9538
-0.314245
-0.916598
-1.23672
-1.39426
-1.59436
-1.84072
-2.08616
-2.31126
-2.51192
-2.68549
-2.83177
-2.95636
-3.07055
-3.18919
-3.32153
-3.47856
-3.67982
-4.03665
-0.524443
-0.91844
-1.23295
-1.41759
-1.62204
-1.86344
-2.10381
-2.32506
-2.52406
-2.69977
-2.85274
-2.98791
-3.1149
-3.24471
-3.3855
-3.54871
-3.75789
-4.05113
-0.688419
-0.977618
-1.27799
-1.46652
-1.6593
-1.88402
-2.10921
-2.31744
-2.50656
-2.67591
-2.82592
-2.96057
-3.08765
-3.2164
-3.355
-3.51341
-3.70197
-3.92082
-0.831077
-1.05997
-1.33083
-1.51561
-1.69924
-1.91025
-2.12242
-2.32022
-2.502
-2.66695
-2.81526
-2.95084
-3.08049
-3.21193
-3.35187
-3.50664
-3.67917
-3.86643
-0.955043
-1.13438
-1.37607
-1.55903
-1.73742
-1.9371
-2.13839
-2.32785
-2.50327
-2.66383
-2.81003
-2.94568
-3.07641
-3.20809
-3.34563
-3.4927
-3.64958
-3.81147
-1.06684
-1.20436
-1.41675
-1.59546
-1.76866
-1.95783
-2.14917
-2.33075
-2.49998
-2.65636
-2.80065
-2.93586
-3.06629
-3.19641
-3.32985
-3.46861
-3.6117
-3.75326
-1.16945
-1.2753
-1.45964
-1.63047
-1.79687
-1.97553
-2.1567
-2.33004
-2.49285
-2.64468
-2.78616
-2.91954
-3.04812
-3.17535
-3.30384
-3.43448
-3.5657
-3.69201
-1.26384
-1.34645
-1.5054
-1.66613
-1.82456
-1.99295
-2.16411
-2.32921
-2.48537
-2.63209
-2.76989
-2.90046
-3.0263
-3.14998
-3.27318
-3.39607
-3.51693
-3.63108
-1.35043
-1.41599
-1.55264
-1.70194
-1.85174
-2.00981
-2.17123
-2.3283
-2.47779
-2.61926
-2.75303
-2.88022
-3.00266
-3.12218
-3.23979
-3.35521
-3.46683
-3.57088
-1.42969
-1.48261
-1.60011
-1.73733
-1.87807
-2.02589
-2.17754
-2.32644
-2.46933
-2.60552
-2.73497
-2.85834
-2.97695
-3.09196
-3.20385
-3.31221
-3.41569
-3.51134
-1.49603
-1.54031
-1.64289
-1.76897
-1.90118
-2.03995
-2.18269
-2.32393
-2.46061
-2.59168
-2.71683
-2.83642
-2.95125
-3.0619
-3.16868
-3.27114
-3.36812
-3.45731
-1.55583
-1.59381
-1.68356
-1.79893
-1.92274
-2.05292
-2.18717
-2.321
-2.45137
-2.57705
-2.69762
-2.81318
-2.92397
-3.03022
-3.13204
-3.22895
-3.32009
-3.40376
-1.61665
-1.64924
-1.72677
-1.83071
-1.94514
-2.066
-2.19108
-2.31669
-2.43995
-2.55941
-2.67447
-2.78491
-2.89068
-2.99182
-3.08811
-3.17904
-3.26408
-3.34207
-1.67554
-1.70349
-1.76999
-1.86235
-1.96666
-2.07773
-2.19316
-2.30994
-2.42534
-2.53779
-2.64646
-2.75089
-2.85078
-2.94591
-3.03601
-3.1207
-3.1996
-3.27192
-1.728
-1.752
-1.80904
-1.89039
-1.98445
-2.08562
-2.19133
-2.29895
-2.40604
-2.51088
-2.61247
-2.71017
-2.80351
-2.89215
-2.97577
-3.0541
-3.1269
-3.19375
-1.76741
-1.78822
-1.83762
-1.90936
-1.99386
-2.0857
-2.18217
-2.28092
-2.37969
-2.47677
-2.57101
-2.66167
-2.74818
-2.83015
-2.90729
-2.97941
-3.04641
-3.10809
-1.784
-1.80251
-1.84647
-1.911
-1.98786
-2.07197
-2.16067
-2.25176
-2.34314
-2.43311
-2.52049
-2.60447
-2.68447
-2.76009
-2.83109
-2.89734
-2.95884
-3.01557
-1.76283
-1.78026
-1.82176
-1.88281
-1.95553
-2.03507
-2.11891
-2.205
-2.2913
-2.37614
-2.45833
-2.53706
-2.61175
-2.68206
-2.74779
-2.8089
-2.86545
-2.9176
-1.69788
-1.71648
-1.76053
-1.82418
-1.89862
-1.97907
-2.06339
-2.1496
-2.23559
-2.31963
-2.40054
-2.47752
-2.55
-2.61766
-2.68035
-2.73812
-2.79111
-2.83962
-1.61846
-1.63967
-1.68947
-1.75929
-1.83848
-1.92271
-2.01049
-2.09981
-2.18833
-2.27429
-2.35652
-2.43419
-2.5067
-2.57372
-2.63518
-2.69117
-2.74192
-2.78784
-1.52506
-1.55098
-1.61044
-1.68955
-1.77537
-1.8651
-1.95835
-2.05282
-2.1458
-2.23551
-2.3208
-2.40077
-2.47473
-2.54236
-2.60359
-2.65859
-2.70768
-2.75141
-1.4214
-1.45506
-1.52877
-1.61946
-1.71251
-1.80863
-1.90864
-2.00949
-2.10812
-2.20283
-2.29248
-2.37597
-2.45247
-2.52162
-2.58336
-2.63793
-2.68571
-2.72739
-1.30932
-1.35571
-1.44918
-1.55219
-1.65179
-1.75487
-1.86262
-1.97053
-2.07541
-2.17592
-2.2708
-2.35866
-2.43849
-2.50984
-2.57266
-2.62719
-2.67395
-2.71384
-1.18934
-1.25659
-1.3768
-1.49069
-1.59435
-1.70428
-1.82033
-1.9355
-2.04676
-2.15332
-2.25381
-2.34635
-2.42977
-2.50368
-2.5679
-2.62263
-2.66838
-2.70613
-1.0615
-1.15878
-1.3132
-1.43563
-1.53891
-1.65247
-1.77464
-1.89577
-2.01299
-2.12598
-2.23307
-2.33165
-2.42006
-2.49796
-2.5652
-2.62192
-2.66878
-2.70747
-0.925293
-1.05603
-1.24316
-1.37382
-1.48126
-1.6011
-1.72923
-1.85554
-1.9782
-2.09717
-2.21032
-2.31473
-2.40815
-2.48942
-2.55804
-2.61434
-2.6592
-2.69433
-0.773097
-0.972671
-1.17371
-1.29612
-1.41179
-1.54704
-1.6875
-1.82412
-1.95751
-2.08782
-2.2122
-2.32755
-2.43131
-2.52129
-2.59659
-2.65756
-2.70622
-2.74718
-0.564783
-0.95567
-1.18243
-1.27612
-1.3802
-1.51525
-1.65417
-1.78817
-1.9203
-2.05099
-2.17662
-2.29298
-2.39665
-2.48501
-2.55664
-2.6114
-2.65048
-2.67465
-0.225441
-0.840093
-1.13018
-1.23358
-1.35183
-1.50476
-1.66055
-1.8106
-1.95882
-2.10556
-2.24673
-2.37769
-2.49482
-2.59543
-2.67804
-2.7421
-2.78934
-2.81728
-4.59437
-4.59229
-4.59194
-4.59188
-4.59174
-4.59158
-4.59143
-4.59127
-4.59108
-4.59083
-4.5905
-4.59008
-4.58957
-4.58896
-4.58825
-4.58742
-4.5865
-4.58547
-4.58435
-4.58312
-4.58181
-4.58042
-4.57899
-4.57757
-4.57625
-4.57506
-4.57385
-4.57243
-4.571
-4.5699
-4.56935
-4.56946
-4.57034
-4.57205
-4.57457
-4.57788
-4.58189
-4.58654
-4.59175
-4.59748
-4.60369
-4.61035
-4.61743
-4.62491
-4.63275
-4.64093
-4.64939
-4.6581
-4.66703
-4.67614
-4.68542
-4.69483
-4.70438
-4.71407
-4.72388
-4.73385
-4.74396
-4.75423
-4.76467
-4.77528
-4.78606
-4.79699
-4.80806
-4.81922
-4.83045
-4.84168
-4.85286
-4.8639
-4.87472
-4.88523
-4.8953
-4.90482
-4.91367
-4.92171
-4.92878
-4.93476
-4.93947
-4.94277
-4.94449
-4.94448
-4.94258
-4.93864
-4.93251
-4.92404
-4.91311
-4.89958
-4.88333
-4.86427
-4.8423
-4.81733
-4.7893
-4.75815
-4.72383
-4.68629
-4.64552
-4.6015
-4.55422
-4.50369
-4.44992
-4.39292
-4.33271
-4.26933
-4.2028
-4.13313
-4.06036
-3.98449
-3.90557
-3.82358
-3.73856
-3.6505
-3.55942
-3.46532
-3.3682
-3.26806
-3.16488
-3.05864
-2.94931
-2.83686
-2.72123
-2.60236
-2.48017
-2.35456
-2.22543
-2.09266
-1.95609
-1.81559
-1.67097
-1.52194
-1.36837
-1.21004
-1.04665
-0.877895
-0.703449
-0.522818
-0.335728
-0.141799
0.0594167
0.268399
0.485658
0.711736
0.947204
1.19266
1.44871
1.71595
1.995
2.28644
2.5908
2.90854
3.24007
3.58574
3.94573
4.32003
4.70843
5.11048
5.5255
5.9526
6.39068
6.83842
7.29418
7.75605
8.22179
8.68851
9.1524
9.60964
10.0558
10.4728
10.8649
11.2555
11.6429
12.0275
12.3994
12.7365
13.039
13.3167
13.5701
13.8
14.009
14.1959
14.3835
14.5326
-4.59714
-4.59517
-4.59482
-4.59464
-4.59431
-4.59388
-4.59337
-4.59278
-4.5921
-4.59131
-4.59042
-4.5894
-4.58825
-4.58699
-4.58562
-4.58415
-4.5826
-4.58099
-4.57932
-4.57762
-4.5759
-4.57419
-4.57253
-4.57095
-4.56949
-4.56818
-4.56713
-4.56667
-4.56704
-4.56831
-4.57038
-4.57315
-4.57643
-4.58006
-4.5839
-4.5879
-4.59205
-4.59635
-4.60084
-4.60553
-4.61042
-4.61551
-4.62079
-4.62624
-4.63185
-4.63762
-4.64355
-4.64963
-4.65589
-4.66234
-4.66899
-4.67586
-4.68297
-4.69033
-4.69796
-4.70587
-4.71405
-4.72251
-4.73125
-4.74025
-4.74951
-4.75899
-4.76868
-4.77854
-4.78853
-4.79859
-4.80866
-4.81869
-4.82858
-4.83826
-4.84762
-4.85656
-4.86496
-4.87269
-4.87961
-4.88559
-4.89046
-4.89409
-4.8963
-4.89694
-4.89584
-4.89285
-4.88781
-4.88056
-4.87096
-4.85887
-4.84416
-4.8267
-4.80638
-4.78311
-4.75679
-4.72734
-4.69469
-4.65879
-4.61961
-4.5771
-4.53126
-4.48208
-4.42956
-4.37373
-4.31459
-4.25219
-4.18654
-4.11767
-4.04562
-3.97041
-3.89207
-3.81061
-3.72605
-3.6384
-3.54767
-3.45387
-3.35699
-3.25704
-3.15399
-3.04785
-2.93856
-2.82611
-2.71044
-2.59149
-2.46918
-2.34342
-2.2141
-2.08111
-1.94429
-1.80344
-1.6584
-1.50922
-1.35563
-1.19735
-1.034
-0.865336
-0.691074
-0.511022
-0.324693
-0.131663
0.0684803
0.276177
0.491897
0.716139
0.949431
1.19233
1.44542
1.70929
1.98452
2.27166
2.57122
2.88368
3.20941
3.54875
3.90187
4.26875
4.6492
5.04277
5.44879
5.86634
6.29434
6.73143
7.17599
7.6261
8.07966
8.53416
8.98666
9.43493
9.87997
10.3195
10.7412
11.1401
11.5263
11.8924
12.2338
12.5587
12.8691
13.1583
13.4243
13.6675
13.8915
14.0947
14.3066
14.449
-4.59704
-4.59521
-4.59489
-4.59475
-4.59449
-4.59417
-4.5938
-4.59337
-4.59285
-4.59223
-4.5915
-4.59064
-4.58965
-4.58854
-4.58731
-4.58599
-4.58458
-4.5831
-4.58155
-4.57995
-4.5783
-4.57663
-4.57498
-4.5734
-4.57194
-4.57069
-4.56973
-4.56922
-4.56932
-4.57014
-4.57171
-4.57397
-4.57684
-4.58021
-4.58397
-4.58805
-4.5924
-4.59698
-4.60179
-4.60681
-4.61203
-4.61744
-4.62303
-4.62879
-4.63471
-4.64078
-4.647
-4.65339
-4.65994
-4.66667
-4.67359
-4.68073
-4.68809
-4.69569
-4.70356
-4.71169
-4.72009
-4.72878
-4.73774
-4.74697
-4.75645
-4.76616
-4.77609
-4.78618
-4.79641
-4.8067
-4.81702
-4.82727
-4.8374
-4.84729
-4.85686
-4.86598
-4.87455
-4.88243
-4.88948
-4.89556
-4.90051
-4.90419
-4.90642
-4.90705
-4.90591
-4.90285
-4.8977
-4.89032
-4.88055
-4.86826
-4.85331
-4.83559
-4.81499
-4.79141
-4.76475
-4.73495
-4.70195
-4.6657
-4.62616
-4.58331
-4.53713
-4.48763
-4.43481
-4.37869
-4.31928
-4.25663
-4.19075
-4.12168
-4.04945
-3.97408
-3.89559
-3.81401
-3.72934
-3.64161
-3.55081
-3.45695
-3.36004
-3.26007
-3.15703
-3.0509
-2.94167
-2.82929
-2.71372
-2.5949
-2.47276
-2.34721
-2.21816
-2.08549
-1.94907
-1.80879
-1.66441
-1.51563
-1.36221
-1.20399
-1.04082
-0.872423
-0.698472
-0.518666
-0.332645
-0.140021
0.0596147
0.266701
0.481699
0.705094
0.937397
1.17915
1.4309
1.69323
1.96671
2.25189
2.5493
2.85945
3.1828
3.51972
3.87041
4.23484
4.61282
5.00394
5.40752
5.82269
6.24836
6.68326
7.12579
7.57408
8.02622
8.48012
8.93347
9.3847
9.83441
10.28
10.7051
11.1074
11.4946
11.8589
12.1954
12.514
12.8195
13.106
13.3713
13.6152
13.8411
14.0459
14.2581
14.3887
-4.598
-4.59643
-4.59618
-4.59606
-4.59584
-4.59555
-4.5952
-4.59479
-4.59427
-4.59365
-4.59289
-4.592
-4.59098
-4.58983
-4.58858
-4.58723
-4.5858
-4.5843
-4.58274
-4.5811
-4.57941
-4.57769
-4.57599
-4.57437
-4.57291
-4.57173
-4.57096
-4.57072
-4.57114
-4.57226
-4.57408
-4.57652
-4.57951
-4.58295
-4.58679
-4.59095
-4.5954
-4.60011
-4.60505
-4.61021
-4.61558
-4.62114
-4.62687
-4.63278
-4.63884
-4.64506
-4.65143
-4.65796
-4.66467
-4.67157
-4.67866
-4.68598
-4.69354
-4.70135
-4.70944
-4.71781
-4.72647
-4.73542
-4.74467
-4.75421
-4.76402
-4.77408
-4.78437
-4.79484
-4.80546
-4.81616
-4.82689
-4.83756
-4.8481
-4.85841
-4.86839
-4.87791
-4.88685
-4.89507
-4.90244
-4.90879
-4.91398
-4.91785
-4.92022
-4.92094
-4.91983
-4.91675
-4.91152
-4.904
-4.89405
-4.88152
-4.86629
-4.84825
-4.82728
-4.8033
-4.77622
-4.74598
-4.71251
-4.67578
-4.63575
-4.59241
-4.54573
-4.49574
-4.44243
-4.38584
-4.32599
-4.26291
-4.19664
-4.12721
-4.05465
-3.97898
-3.90022
-3.8184
-3.73353
-3.6456
-3.55464
-3.46065
-3.36362
-3.26355
-3.16045
-3.05428
-2.94504
-2.83268
-2.71716
-2.59843
-2.4764
-2.351
-2.22211
-2.08961
-1.95337
-1.81324
-1.66906
-1.52061
-1.36766
-1.20999
-1.04738
-0.879556
-0.706224
-0.527066
-0.341737
-0.14986
0.0489696
0.255187
0.469254
0.691652
0.92289
1.16351
1.41407
1.67517
1.94737
2.23125
2.52737
2.83626
3.15846
3.49435
3.84418
4.20792
4.5854
4.97623
5.37975
5.79504
6.22105
6.65654
7.09989
7.54922
8.00266
8.45824
8.91364
9.3668
9.81637
10.2583
10.6816
11.0857
11.4738
11.8397
12.1798
12.5003
12.8046
13.0892
13.3528
13.5952
13.8197
14.0216
14.2274
14.3449
-4.59886
-4.59762
-4.59743
-4.59736
-4.5972
-4.59698
-4.59671
-4.59636
-4.5959
-4.59533
-4.59462
-4.59376
-4.59275
-4.59161
-4.59036
-4.58902
-4.5876
-4.58611
-4.58454
-4.58288
-4.58116
-4.5794
-4.57767
-4.57605
-4.57464
-4.57357
-4.57299
-4.57302
-4.57373
-4.57512
-4.57715
-4.57974
-4.58282
-4.58632
-4.5902
-4.59441
-4.59891
-4.60368
-4.6087
-4.61395
-4.61941
-4.62506
-4.63088
-4.63688
-4.64304
-4.64936
-4.65584
-4.66248
-4.66931
-4.67634
-4.68359
-4.69107
-4.6988
-4.70681
-4.71511
-4.72371
-4.73263
-4.74186
-4.75141
-4.76126
-4.77141
-4.78183
-4.79249
-4.80336
-4.81439
-4.82551
-4.83667
-4.84779
-4.85876
-4.8695
-4.87989
-4.8898
-4.8991
-4.90766
-4.91531
-4.9219
-4.92728
-4.93127
-4.93371
-4.93443
-4.93327
-4.93006
-4.92464
-4.91688
-4.90662
-4.89373
-4.8781
-4.85961
-4.83816
-4.81367
-4.78606
-4.75528
-4.72126
-4.68399
-4.64342
-4.59954
-4.55236
-4.50188
-4.44811
-4.39109
-4.33085
-4.26742
-4.20084
-4.13115
-4.05836
-3.98251
-3.90361
-3.82168
-3.73672
-3.64874
-3.55774
-3.46373
-3.3667
-3.26666
-3.1636
-3.0575
-2.94835
-2.83611
-2.72075
-2.60219
-2.48037
-2.3552
-2.22657
-2.09436
-1.95842
-1.81862
-1.67477
-1.52671
-1.37423
-1.21708
-1.05504
-0.887837
-0.71519
-0.536782
-0.352264
-0.161261
0.0366344
0.241855
0.454862
0.676141
0.906196
1.14558
1.39487
1.65467
1.92557
2.20816
2.50299
2.81065
3.13168
3.46652
3.81541
4.17833
4.55512
4.94541
5.34852
5.7635
6.1893
6.62471
7.06816
7.51775
7.97165
8.42799
8.88448
9.33859
9.78779
10.2277
10.6506
11.056
11.4445
11.8114
12.1542
12.477
12.7818
13.0664
13.3297
13.5717
13.7953
13.9948
14.1952
14.3005
-4.59961
-4.59884
-4.59874
-4.59873
-4.59864
-4.59851
-4.59832
-4.59805
-4.59768
-4.59718
-4.59653
-4.59573
-4.59477
-4.59368
-4.59247
-4.59117
-4.58978
-4.58832
-4.58676
-4.58511
-4.58339
-4.58165
-4.57995
-4.5784
-4.57713
-4.57628
-4.57598
-4.57631
-4.5773
-4.57892
-4.58111
-4.5838
-4.58693
-4.59046
-4.59435
-4.59858
-4.60311
-4.60792
-4.61299
-4.6183
-4.62383
-4.62955
-4.63547
-4.64156
-4.64782
-4.65425
-4.66086
-4.66765
-4.67464
-4.68184
-4.68928
-4.69697
-4.70493
-4.71319
-4.72176
-4.73066
-4.73988
-4.74944
-4.75934
-4.76957
-4.7801
-4.79093
-4.80201
-4.81332
-4.82478
-4.83636
-4.84796
-4.85951
-4.87091
-4.88205
-4.8928
-4.90303
-4.91261
-4.92138
-4.92919
-4.93587
-4.94126
-4.94519
-4.9475
-4.94802
-4.94659
-4.94304
-4.93723
-4.92902
-4.91828
-4.90488
-4.88871
-4.86968
-4.84769
-4.82268
-4.79456
-4.76328
-4.7288
-4.69109
-4.65011
-4.60586
-4.55833
-4.50753
-4.45347
-4.39619
-4.33572
-4.27209
-4.20536
-4.13555
-4.06268
-3.98677
-3.90785
-3.82591
-3.74097
-3.65302
-3.56207
-3.46811
-3.37116
-3.2712
-3.16825
-3.06229
-2.9533
-2.84125
-2.7261
-2.60778
-2.48621
-2.36132
-2.23299
-2.10111
-1.96555
-1.82615
-1.68276
-1.53518
-1.38321
-1.22664
-1.06522
-0.89869
-0.726777
-0.549165
-0.365504
-0.175413
0.0215115
0.225704
0.437625
0.657759
0.886606
1.12473
1.37273
1.63122
1.9008
2.18207
2.47558
2.78192
3.1017
3.43539
3.78326
4.14524
4.52116
4.91069
5.31313
5.72754
6.15287
6.58789
7.03104
7.48058
7.93466
8.39143
8.8486
9.30332
9.75244
10.1916
10.6149
11.0211
11.4097
11.7771
12.1215
12.4457
12.7509
13.0355
13.2989
13.5405
13.7632
13.9601
14.1557
14.2499
-4.60005
-4.5999
-4.59992
-4.59996
-4.59997
-4.59994
-4.59986
-4.59969
-4.59943
-4.59903
-4.59848
-4.59778
-4.59691
-4.59591
-4.59478
-4.59355
-4.59223
-4.59082
-4.5893
-4.5877
-4.58603
-4.58435
-4.58277
-4.5814
-4.58037
-4.57982
-4.57985
-4.5805
-4.58177
-4.5836
-4.58593
-4.5887
-4.59188
-4.59543
-4.59934
-4.60358
-4.60813
-4.61296
-4.61806
-4.62341
-4.62899
-4.63478
-4.64076
-4.64694
-4.6533
-4.65985
-4.66659
-4.67353
-4.68069
-4.68809
-4.69574
-4.70366
-4.71188
-4.72042
-4.72929
-4.7385
-4.74806
-4.75798
-4.76824
-4.77885
-4.78979
-4.80102
-4.81252
-4.82423
-4.83612
-4.8481
-4.86009
-4.87201
-4.88374
-4.89516
-4.90616
-4.91658
-4.92627
-4.93509
-4.94287
-4.94945
-4.95468
-4.95837
-4.96039
-4.96056
-4.95874
-4.95477
-4.94852
-4.93986
-4.92867
-4.91482
-4.89823
-4.8788
-4.85643
-4.83106
-4.80263
-4.77106
-4.73632
-4.69836
-4.65716
-4.6127
-4.56497
-4.51398
-4.45976
-4.40232
-4.34171
-4.27799
-4.21118
-4.14131
-4.06842
-3.99252
-3.91361
-3.83171
-3.74682
-3.65893
-3.56804
-3.47417
-3.37733
-3.27751
-3.17472
-3.06894
-2.96016
-2.84833
-2.73342
-2.61536
-2.49409
-2.36951
-2.24154
-2.11006
-1.97492
-1.83599
-1.69309
-1.54606
-1.39467
-1.23873
-1.07798
-0.912185
-0.741055
-0.564285
-0.381519
-0.192373
0.0035562
0.206704
0.417534
0.636529
0.864169
1.10103
1.34775
1.60495
1.87324
2.15325
2.4455
2.75057
3.06914
3.40173
3.74863
4.10978
4.48497
4.87381
5.27559
5.68944
6.1144
6.54916
6.99207
7.44154
7.89579
8.35294
8.81056
9.26555
9.71449
10.1531
10.5766
10.9831
11.3717
11.7393
12.0846
12.4095
12.7146
12.9989
13.2617
13.5026
13.7237
13.9175
14.1081
14.192
-4.60001
-4.60075
-4.60087
-4.60097
-4.60108
-4.60117
-4.60121
-4.60117
-4.60103
-4.60076
-4.60035
-4.59977
-4.59904
-4.59817
-4.59717
-4.59605
-4.59484
-4.59352
-4.5921
-4.59058
-4.58903
-4.58752
-4.58615
-4.58506
-4.58436
-4.58417
-4.58456
-4.58552
-4.58704
-4.58905
-4.59149
-4.59434
-4.59756
-4.60115
-4.60508
-4.60933
-4.6139
-4.61875
-4.62388
-4.62926
-4.63488
-4.64071
-4.64676
-4.65301
-4.65947
-4.66613
-4.673
-4.68009
-4.68742
-4.695
-4.70286
-4.71102
-4.7195
-4.72831
-4.73746
-4.74698
-4.75687
-4.76712
-4.77773
-4.78869
-4.79998
-4.81157
-4.82341
-4.83547
-4.84767
-4.85996
-4.87222
-4.88437
-4.89629
-4.90786
-4.91894
-4.92938
-4.93904
-4.94776
-4.95538
-4.96175
-4.96672
-4.97013
-4.97184
-4.97169
-4.96954
-4.96525
-4.95868
-4.94971
-4.93823
-4.92412
-4.90729
-4.88763
-4.86507
-4.83952
-4.81093
-4.77921
-4.74433
-4.70624
-4.6649
-4.62031
-4.57246
-4.52134
-4.46698
-4.40943
-4.34873
-4.28493
-4.21808
-4.1482
-4.07532
-3.99945
-3.9206
-3.83876
-3.75394
-3.66613
-3.57536
-3.48162
-3.38494
-3.2853
-3.18271
-3.07714
-2.96859
-2.85702
-2.7424
-2.62466
-2.50373
-2.37954
-2.25198
-2.12094
-1.98628
-1.84787
-1.70553
-1.55908
-1.40832
-1.25305
-1.09301
-0.927968
-0.757648
-0.58175
-0.399905
-0.211722
-0.0167975
0.185307
0.395064
0.612963
0.839447
1.07509
1.32059
1.57656
1.84363
2.12247
2.41359
2.71757
3.03508
3.36669
3.71271
4.07317
4.44783
4.83617
5.2374
5.65075
6.07541
6.50997
6.95272
7.40206
7.85628
8.31362
8.77135
9.22608
9.67438
10.1122
10.5353
10.9416
11.3297
11.6972
12.0429
12.3677
12.6723
12.9557
13.2174
13.4567
13.6757
13.8658
14.0512
14.1262
-4.5995
-4.60116
-4.60148
-4.60165
-4.60188
-4.60209
-4.60226
-4.60236
-4.60236
-4.60225
-4.602
-4.6016
-4.60105
-4.60036
-4.59953
-4.59858
-4.59752
-4.59634
-4.59507
-4.59372
-4.59238
-4.59112
-4.59006
-4.58932
-4.58902
-4.58922
-4.58995
-4.59121
-4.59294
-4.5951
-4.59765
-4.60058
-4.60386
-4.60749
-4.61145
-4.61573
-4.62032
-4.62519
-4.63034
-4.63574
-4.64138
-4.64726
-4.65335
-4.65967
-4.6662
-4.67296
-4.67994
-4.68717
-4.69465
-4.70241
-4.71046
-4.71882
-4.72752
-4.73658
-4.74599
-4.75578
-4.76595
-4.77648
-4.78737
-4.79861
-4.81016
-4.82199
-4.83408
-4.84635
-4.85875
-4.8712
-4.8836
-4.89584
-4.90781
-4.91939
-4.93042
-4.94078
-4.95031
-4.95887
-4.96629
-4.97245
-4.97719
-4.98038
-4.98187
-4.9815
-4.97915
-4.97467
-4.96793
-4.9588
-4.94717
-4.93293
-4.91598
-4.89622
-4.87358
-4.84796
-4.81929
-4.7875
-4.75255
-4.71438
-4.67297
-4.6283
-4.58034
-4.52912
-4.47466
-4.41701
-4.35624
-4.29241
-4.22557
-4.15572
-4.0829
-4.00711
-3.92834
-3.84661
-3.7619
-3.67424
-3.58362
-3.49007
-3.39357
-3.29414
-3.19177
-3.08646
-2.97819
-2.86693
-2.75265
-2.63528
-2.51475
-2.39098
-2.26388
-2.13334
-1.99922
-1.86136
-1.71961
-1.57379
-1.42369
-1.26911
-1.10981
-0.945514
-0.775996
-0.600964
-0.420031
-0.232796
-0.0388561
0.162229
0.370946
0.587805
0.813244
1.04782
1.29222
1.54708
1.81305
2.09077
2.38091
2.68403
3.00071
3.33155
3.67687
4.03674
4.41098
4.79893
5.19973
5.61261
6.03693
6.47123
6.91365
7.36261
7.81648
8.27374
8.73125
9.18515
9.6322
10.0687
10.4907
10.8962
11.2833
11.6499
11.9952
12.3194
12.6227
12.9045
13.1644
13.4015
13.6178
13.8036
13.9835
14.0513
-4.59846
-4.60119
-4.60172
-4.60196
-4.60229
-4.60263
-4.60294
-4.60319
-4.60337
-4.60345
-4.60341
-4.60322
-4.60289
-4.60242
-4.60181
-4.60107
-4.60021
-4.59923
-4.59816
-4.59706
-4.59601
-4.59509
-4.59441
-4.59409
-4.5942
-4.59478
-4.59584
-4.59735
-4.59928
-4.60159
-4.60426
-4.60727
-4.61062
-4.6143
-4.61831
-4.62261
-4.62722
-4.6321
-4.63725
-4.64266
-4.64832
-4.65422
-4.66035
-4.66671
-4.6733
-4.68013
-4.6872
-4.69453
-4.70212
-4.71001
-4.7182
-4.72673
-4.7356
-4.74484
-4.75446
-4.76445
-4.77481
-4.78554
-4.79662
-4.80802
-4.81971
-4.83167
-4.84385
-4.85621
-4.86867
-4.88115
-4.89355
-4.90577
-4.91769
-4.92918
-4.94012
-4.95035
-4.95975
-4.96814
-4.97539
-4.98138
-4.98596
-4.98901
-4.99037
-4.98989
-4.98744
-4.98287
-4.97606
-4.96686
-4.95518
-4.9409
-4.92392
-4.90414
-4.88149
-4.85586
-4.82719
-4.79541
-4.76044
-4.72226
-4.68082
-4.6361
-4.58809
-4.5368
-4.48225
-4.42453
-4.36374
-4.29993
-4.23315
-4.16341
-4.0907
-4.01504
-3.93642
-3.85484
-3.7703
-3.68281
-3.59237
-3.49901
-3.40272
-3.30351
-3.2014
-3.09639
-2.98845
-2.87756
-2.76367
-2.64672
-2.52664
-2.40333
-2.27672
-2.14671
-2.01314
-1.87587
-1.73473
-1.58954
-1.44012
-1.28625
-1.12767
-0.964127
-0.795373
-0.621145
-0.441058
-0.254702
-0.0616761
0.138461
0.346193
0.562035
0.786537
1.02024
1.26375
1.5177
1.78274
2.05953
2.34882
2.65125
2.96728
3.29755
3.64244
4.00186
4.37572
4.76329
5.16358
5.57591
5.9999
6.43398
6.87592
7.32419
7.77725
8.23388
8.69094
9.14391
9.58967
10.0247
10.4455
10.8497
11.2352
11.6003
11.9441
12.2667
12.5682
12.8479
13.1053
13.3392
13.5515
13.7323
13.9061
13.9683
-4.59698
-4.60082
-4.60157
-4.60187
-4.60231
-4.60279
-4.60325
-4.60369
-4.60407
-4.60437
-4.60457
-4.60463
-4.60456
-4.60434
-4.60399
-4.60349
-4.60287
-4.60214
-4.60135
-4.60057
-4.59987
-4.59935
-4.5991
-4.59921
-4.59972
-4.60066
-4.60202
-4.60377
-4.60588
-4.60834
-4.61113
-4.61424
-4.61767
-4.62141
-4.62545
-4.62978
-4.63439
-4.63926
-4.6444
-4.6498
-4.65544
-4.66133
-4.66746
-4.67384
-4.68046
-4.68732
-4.69444
-4.70182
-4.70947
-4.71742
-4.72569
-4.7343
-4.74328
-4.75263
-4.76236
-4.77246
-4.78293
-4.79375
-4.80489
-4.81633
-4.82803
-4.83996
-4.8521
-4.86441
-4.87681
-4.88921
-4.90153
-4.91365
-4.92546
-4.93684
-4.94765
-4.95777
-4.96703
-4.97529
-4.9824
-4.98826
-4.99275
-4.99572
-4.99704
-4.99653
-4.99406
-4.98949
-4.98267
-4.97349
-4.96182
-4.94756
-4.93061
-4.91088
-4.88828
-4.86272
-4.83412
-4.8024
-4.76748
-4.72935
-4.68795
-4.64325
-4.59524
-4.54391
-4.48928
-4.43151
-4.37074
-4.30704
-4.2404
-4.17082
-4.09828
-4.02279
-3.94435
-3.86297
-3.77861
-3.69129
-3.60103
-3.50787
-3.41181
-3.31287
-3.21105
-3.10637
-2.99881
-2.88833
-2.77488
-2.65839
-2.53879
-2.41597
-2.28986
-2.16037
-2.02736
-1.89066
-1.75011
-1.60555
-1.45678
-1.30358
-1.14572
-0.982926
-0.814916
-0.641392
-0.462024
-0.276432
-0.0842025
0.115113
0.321995
0.536954
0.760638
0.99362
1.2364
1.48963
1.75399
2.03013
2.3188
2.62064
2.93615
3.26607
3.6107
3.96977
4.3434
4.73073
5.13046
5.54207
5.96555
6.39952
6.84127
7.28913
7.74141
8.19575
8.64996
9.10103
9.54533
9.97899
10.3984
10.8011
11.1848
11.548
11.8896
12.2098
12.5087
12.7855
13.0397
13.2698
13.4774
13.6531
13.8204
13.8782
-4.59519
-4.60012
-4.60112
-4.6015
-4.60205
-4.60268
-4.60332
-4.60395
-4.60457
-4.60512
-4.60558
-4.60592
-4.60612
-4.60618
-4.60609
-4.60586
-4.60551
-4.60508
-4.60462
-4.6042
-4.6039
-4.6038
-4.60399
-4.60451
-4.6054
-4.60667
-4.6083
-4.61027
-4.61256
-4.61517
-4.61808
-4.62129
-4.6248
-4.62859
-4.63266
-4.63699
-4.64157
-4.64641
-4.6515
-4.65683
-4.66242
-4.66826
-4.67435
-4.6807
-4.6873
-4.69416
-4.70126
-4.70863
-4.71626
-4.72418
-4.73243
-4.74104
-4.75003
-4.75939
-4.76914
-4.77925
-4.78972
-4.80052
-4.81162
-4.82297
-4.83453
-4.84629
-4.85828
-4.87045
-4.88271
-4.89498
-4.90716
-4.91914
-4.93082
-4.94208
-4.95279
-4.9628
-4.97198
-4.98012
-4.98706
-4.99278
-4.99723
-5.00022
-5.00157
-5.00112
-4.99871
-4.9942
-4.98745
-4.97834
-4.96675
-4.95257
-4.93572
-4.91609
-4.89361
-4.86818
-4.83972
-4.80812
-4.77333
-4.73532
-4.69405
-4.64948
-4.60156
-4.55025
-4.49552
-4.43764
-4.37695
-4.3134
-4.24692
-4.17749
-4.10512
-4.02982
-3.95158
-3.87039
-3.78621
-3.69904
-3.60897
-3.51604
-3.42024
-3.32159
-3.2201
-3.11579
-3.00864
-2.8986
-2.78562
-2.66961
-2.55052
-2.42822
-2.30264
-2.17365
-2.04114
-1.90497
-1.76498
-1.62099
-1.4728
-1.32021
-1.16299
-1.00087
-0.833531
-0.660627
-0.481869
-0.296914
-0.105333
0.0933306
0.299566
0.5139
0.736957
0.969329
1.21155
1.46426
1.72814
2.00386
2.29212
2.59355
2.90873
3.23859
3.5833
3.94216
4.31558
4.70299
5.10256
5.51368
5.93556
6.3674
6.80785
7.25489
7.70596
8.15748
8.60778
9.05555
9.49687
9.92757
10.3441
10.7438
11.1245
11.4847
11.8233
12.1402
12.4353
12.7082
12.9583
13.1842
13.3872
13.5581
13.7195
13.7748
-4.59314
-4.59924
-4.60054
-4.60104
-4.60172
-4.60252
-4.60335
-4.6042
-4.60506
-4.60587
-4.6066
-4.60721
-4.60768
-4.60801
-4.60819
-4.60823
-4.60818
-4.60806
-4.60795
-4.6079
-4.60801
-4.60832
-4.60892
-4.60982
-4.61105
-4.6126
-4.61448
-4.61666
-4.61913
-4.62189
-4.62492
-4.62823
-4.6318
-4.63562
-4.63968
-4.64397
-4.64849
-4.65322
-4.65819
-4.66339
-4.66886
-4.67459
-4.6806
-4.68687
-4.6934
-4.70018
-4.70721
-4.71448
-4.72199
-4.72976
-4.73786
-4.74637
-4.75528
-4.76458
-4.77426
-4.7843
-4.79468
-4.80538
-4.81635
-4.82751
-4.83879
-4.85022
-4.86196
-4.87398
-4.88611
-4.89824
-4.91029
-4.92215
-4.93373
-4.9449
-4.95554
-4.9655
-4.97461
-4.98262
-4.98924
-4.99466
-4.99903
-5.00201
-5.00339
-5.00299
-5.00064
-4.9962
-4.98953
-4.9805
-4.96901
-4.95497
-4.93827
-4.91881
-4.89651
-4.87127
-4.84303
-4.81164
-4.77706
-4.73931
-4.69836
-4.65413
-4.60655
-4.55548
-4.50072
-4.44276
-4.3821
-4.31864
-4.25225
-4.18294
-4.11072
-4.03561
-3.9576
-3.87662
-3.79256
-3.70547
-3.61557
-3.52289
-3.4274
-3.32906
-3.22793
-3.12404
-3.01735
-2.90778
-2.79528
-2.67977
-2.56117
-2.43939
-2.31431
-2.1858
-2.05375
-1.91806
-1.77855
-1.63505
-1.48736
-1.33527
-1.17855
-1.01693
-0.850093
-0.677703
-0.499449
-0.314981
-0.123875
0.0743302
0.280129
0.49406
0.716719
0.948701
1.19058
1.44299
1.70662
1.98212
2.27016
2.57137
2.88635
3.2164
3.56166
3.92066
4.29276
4.67851
5.07725
5.48766
5.90771
6.3367
6.77463
7.21932
7.66756
8.1162
8.56312
9.00655
9.44293
9.86845
10.2798
10.6743
11.05
11.4052
11.739
12.0511
12.3414
12.6093
12.8545
13.0756
13.2736
13.4398
13.595
13.6504
-4.5902
-4.59837
-4.60016
-4.60078
-4.60163
-4.60261
-4.60364
-4.60473
-4.60583
-4.60689
-4.60786
-4.60871
-4.60942
-4.60998
-4.6104
-4.6107
-4.61091
-4.6111
-4.61131
-4.61162
-4.61209
-4.61278
-4.61372
-4.61494
-4.61646
-4.61827
-4.62037
-4.62276
-4.6254
-4.6283
-4.63144
-4.63482
-4.63843
-4.64224
-4.64624
-4.65043
-4.65479
-4.65932
-4.66404
-4.669
-4.67425
-4.6798
-4.68565
-4.69179
-4.69819
-4.70486
-4.71177
-4.71889
-4.72619
-4.73365
-4.74148
-4.74985
-4.75868
-4.76791
-4.77752
-4.78749
-4.79778
-4.80837
-4.81918
-4.83002
-4.84065
-4.85123
-4.86232
-4.87397
-4.88575
-4.89749
-4.90915
-4.92067
-4.93194
-4.94285
-4.95327
-4.96308
-4.97213
-4.98026
-4.98732
-4.99319
-4.99763
-5.00048
-5.00168
-5.00109
-4.99856
-4.99395
-4.98711
-4.97794
-4.96632
-4.95218
-4.93541
-4.91591
-4.89358
-4.86833
-4.84012
-4.80886
-4.7745
-4.73701
-4.69637
-4.65251
-4.60536
-4.55484
-4.50111
-4.4442
-4.38414
-4.321
-4.2549
-4.18588
-4.11398
-4.03921
-3.96156
-3.88095
-3.79708
-3.71006
-3.62034
-3.52799
-3.43283
-3.33479
-3.23402
-3.1306
-3.0244
-2.91533
-2.80332
-2.68828
-2.57014
-2.4488
-2.32414
-2.19605
-2.06442
-1.92912
-1.78999
-1.64687
-1.49955
-1.34782
-1.19144
-1.03015
-0.863643
-0.691583
-0.513646
-0.329466
-0.138621
0.0593509
0.264949
0.478714
0.701229
0.933089
1.17489
1.42726
1.69087
1.96637
2.25438
2.55547
2.87018
3.19941
3.54336
3.90102
4.27115
4.6547
5.05205
5.46098
5.87963
6.30708
6.74254
7.18374
7.62769
8.07164
8.51341
8.95082
9.38062
9.7993
10.2037
10.5914
10.9604
11.3091
11.6367
11.9428
12.2271
12.4892
12.7287
12.9443
13.1368
13.2983
13.4471
13.5045
-4.58555
-4.59886
-4.60134
-4.60165
-4.60238
-4.6034
-4.60456
-4.60587
-4.60723
-4.60852
-4.60968
-4.6107
-4.61157
-4.61228
-4.61287
-4.61335
-4.61377
-4.61419
-4.61467
-4.61526
-4.61602
-4.617
-4.61822
-4.61969
-4.62144
-4.62347
-4.62579
-4.62836
-4.63117
-4.63417
-4.63736
-4.64076
-4.64433
-4.64807
-4.65193
-4.65591
-4.66002
-4.66425
-4.66861
-4.67322
-4.67822
-4.6836
-4.68933
-4.69535
-4.70166
-4.70822
-4.715
-4.7219
-4.72869
-4.73518
-4.74205
-4.74988
-4.75836
-4.76721
-4.77639
-4.78592
-4.79579
-4.80598
-4.81646
-4.82711
-4.83785
-4.84874
-4.85989
-4.87119
-4.88234
-4.89327
-4.90408
-4.91476
-4.92522
-4.93536
-4.9451
-4.95433
-4.96294
-4.97087
-4.97809
-4.98413
-4.98847
-4.99114
-4.99211
-4.99127
-4.98848
-4.98363
-4.97657
-4.96718
-4.95536
-4.94101
-4.92403
-4.90433
-4.88181
-4.85641
-4.82809
-4.79683
-4.76257
-4.72516
-4.6846
-4.64093
-4.59409
-4.54428
-4.49175
-4.43619
-4.37715
-4.31485
-4.24953
-4.18129
-4.11015
-4.03616
-3.95932
-3.8796
-3.79693
-3.71111
-3.62221
-3.53051
-3.43588
-3.3382
-3.23784
-3.13496
-3.0293
-2.92074
-2.80918
-2.69457
-2.57681
-2.45582
-2.3315
-2.20372
-2.07238
-1.93734
-1.79846
-1.65555
-1.50844
-1.35689
-1.20067
-1.03952
-0.873128
-0.70117
-0.523309
-0.339168
-0.148326
0.0496815
0.255356
0.469237
0.691902
0.92394
1.16595
1.41856
1.68242
1.95814
2.24629
2.54734
2.86158
3.18863
3.52872
3.88284
4.25072
4.63259
5.0281
5.43459
5.85098
6.27663
6.70956
7.14671
7.5853
8.02305
8.45796
8.88774
9.30938
9.71966
10.1157
10.4951
10.856
11.197
11.5173
11.8163
12.0938
12.3494
12.5826
12.7922
12.9789
13.1356
13.2781
13.3386
-4.58209
-4.60078
-4.60474
-4.60431
-4.60453
-4.60545
-4.60676
-4.60835
-4.60995
-4.61134
-4.61252
-4.61354
-4.61441
-4.61515
-4.61578
-4.61634
-4.61687
-4.61742
-4.61804
-4.61881
-4.61976
-4.62092
-4.62231
-4.62393
-4.62581
-4.628
-4.63051
-4.63328
-4.63627
-4.63939
-4.64263
-4.64607
-4.64969
-4.65341
-4.65713
-4.66085
-4.66457
-4.66817
-4.67148
-4.67489
-4.679
-4.68377
-4.68897
-4.69446
-4.70023
-4.70629
-4.71264
-4.7192
-4.72585
-4.73261
-4.73974
-4.74736
-4.75527
-4.76338
-4.77166
-4.78023
-4.78916
-4.79848
-4.80823
-4.81848
-4.82935
-4.84063
-4.85173
-4.86245
-4.8729
-4.88313
-4.89317
-4.90301
-4.91261
-4.92192
-4.93085
-4.93929
-4.94713
-4.95424
-4.96049
-4.96561
-4.96942
-4.97179
-4.97253
-4.97151
-4.9686
-4.96368
-4.95661
-4.94727
-4.93553