/*--------------------------------*- C++ -*----------------------------------*\
| =========                 |                                                 |
| \\      /  F ield         | OpenFOAM: The Open Source CFD Toolbox           |
|  \\    /   O peration     | Version:  2112                                  |
|   \\  /    A nd           | Website:  www.openfoam.com                      |
|    \\/     M anipulation  |                                                 |
\*---------------------------------------------------------------------------*/
FoamFile
{
    version     2.0;
    format      ascii;
    arch        "LSB;label=32;scalar=64";
    class       surfaceScalarField;
    location    "0.25";
    object      phi_0;
}
// * * * * * * * * * * * * * * * * * * * * * * * * * * * * * * * * * * * * * //

dimensions      [0 3 -1 0 0 0 0];

oriented        oriented;

internalField   nonuniform List<scalar> 
24170
(
3.04041e-06
1.47996e-07
2.86701e-06
1.73396e-07
2.6945e-06
1.7251e-07
2.52488e-06
1.69624e-07
2.36499e-06
1.59887e-07
2.22053e-06
1.44467e-07
2.09511e-06
1.2542e-07
1.99066e-06
1.04448e-07
1.90751e-06
8.31525e-08
1.84441e-06
6.30924e-08
1.79892e-06
4.5492e-08
1.76787e-06
3.10553e-08
1.7479e-06
1.997e-08
1.73577e-06
1.21294e-08
1.72875e-06
7.01922e-09
1.72377e-06
4.98108e-09
1.71352e-06
1.02493e-08
2.25701e-08
1.69095e-06
3.48641e-06
7.88391e-08
3.5338e-06
1.26e-07
3.56202e-06
1.4429e-07
3.57075e-06
1.60899e-07
3.56056e-06
1.70078e-07
3.5339e-06
1.7112e-07
3.49377e-06
1.65557e-07
3.4432e-06
1.55011e-07
3.38513e-06
1.41227e-07
3.32202e-06
1.26198e-07
3.25584e-06
1.1167e-07
3.18811e-06
9.87853e-08
3.12003e-06
8.80576e-08
3.05259e-06
7.95656e-08
2.98672e-06
7.28914e-08
2.92335e-06
6.8346e-08
2.8687e-06
6.49047e-08
5.67035e-08
2.83457e-06
3.68115e-06
6.02063e-08
3.69987e-06
1.07283e-07
3.71906e-06
1.25095e-07
3.7401e-06
1.39865e-07
3.76092e-06
1.49248e-07
3.77982e-06
1.52224e-07
3.79539e-06
1.49992e-07
3.8066e-06
1.43799e-07
3.81285e-06
1.34978e-07
3.81407e-06
1.24978e-07
3.81064e-06
1.15099e-07
3.8032e-06
1.06225e-07
3.79245e-06
9.88091e-08
3.77909e-06
9.29241e-08
3.76368e-06
8.82953e-08
3.74755e-06
8.44773e-08
3.73191e-06
8.05502e-08
7.20838e-08
3.71653e-06
3.93682e-06
4.87774e-08
3.94865e-06
9.54473e-08
3.95873e-06
1.15017e-07
3.96948e-06
1.2912e-07
3.98084e-06
1.37888e-07
3.99253e-06
1.40528e-07
4.00411e-06
1.38413e-07
4.01498e-06
1.32927e-07
4.02474e-06
1.25224e-07
4.03323e-06
1.16484e-07
4.04055e-06
1.07782e-07
4.04688e-06
9.98965e-08
4.05248e-06
9.32055e-08
4.05768e-06
8.77224e-08
4.06285e-06
8.31254e-08
4.0685e-06
7.88261e-08
4.07496e-06
7.40894e-08
6.60039e-08
4.08104e-06
4.21577e-06
4.01301e-08
4.2262e-06
8.50233e-08
4.23533e-06
1.05882e-07
4.24456e-06
1.19895e-07
4.25403e-06
1.2842e-07
4.26345e-06
1.31104e-07
4.27258e-06
1.29284e-07
4.28117e-06
1.24341e-07
4.28903e-06
1.17359e-07
4.2961e-06
1.09418e-07
4.30244e-06
1.01441e-07
4.30828e-06
9.40503e-08
4.31395e-06
8.7537e-08
4.31978e-06
8.18989e-08
4.32605e-06
7.68463e-08
4.33306e-06
7.18226e-08
4.34111e-06
6.60335e-08
5.7751e-08
4.34937e-06
4.51587e-06
3.33444e-08
4.52553e-06
7.53647e-08
4.53467e-06
9.67436e-08
4.54385e-06
1.10719e-07
4.55315e-06
1.19114e-07
4.56232e-06
1.21938e-07
4.57112e-06
1.20486e-07
4.57937e-06
1.16087e-07
4.58696e-06
1.09772e-07
4.59386e-06
1.02515e-07
4.60018e-06
9.5122e-08
4.60611e-06
8.81155e-08
4.61191e-06
8.17435e-08
4.61784e-06
7.59643e-08
4.62417e-06
7.05182e-08
4.63104e-06
6.49572e-08
4.63844e-06
5.86245e-08
5.05158e-08
4.64568e-06
4.83814e-06
2.79218e-08
4.84703e-06
6.64814e-08
4.85609e-06
8.76828e-08
4.8654e-06
1.01401e-07
4.87487e-06
1.09653e-07
4.88419e-06
1.12615e-07
4.89315e-06
1.11522e-07
4.90159e-06
1.07651e-07
4.9094e-06
1.01966e-07
4.91658e-06
9.53324e-08
4.92325e-06
8.84543e-08
4.92957e-06
8.17927e-08
4.93575e-06
7.55649e-08
4.94199e-06
6.9721e-08
4.94848e-06
6.40304e-08
4.9553e-06
5.81386e-08
4.96236e-06
5.15651e-08
4.3719e-08
4.96915e-06
5.184e-06
2.35067e-08
5.19211e-06
5.83719e-08
5.20094e-06
7.88469e-08
5.21032e-06
9.20246e-08
5.21995e-06
1.0002e-07
5.22947e-06
1.031e-07
5.23865e-06
1.02342e-07
5.24735e-06
9.89454e-08
5.25548e-06
9.38345e-08
5.26304e-06
8.77764e-08
5.27011e-06
8.13834e-08
5.27684e-06
7.50576e-08
5.28342e-06
6.8988e-08
5.29e-06
6.3147e-08
5.29668e-06
5.73496e-08
5.3035e-06
5.13162e-08
5.31035e-06
4.47115e-08
3.72296e-08
5.31684e-06
5.55499e-06
1.98503e-08
5.5624e-06
5.09669e-08
5.57094e-06
7.03054e-08
5.58025e-06
8.27175e-08
5.58999e-06
9.02738e-08
5.5997e-06
9.33895e-08
5.6091e-06
9.29504e-08
5.61804e-06
9.00002e-08
5.62647e-06
8.54087e-08
5.63437e-06
7.98763e-08
5.64181e-06
7.3939e-08
5.64892e-06
6.79472e-08
5.65584e-06
6.20678e-08
5.6627e-06
5.62925e-08
5.66955e-06
5.04909e-08
5.67641e-06
4.44636e-08
5.68312e-06
3.79953e-08
3.09563e-08
5.6894e-06
5.95285e-06
1.67715e-08
5.95964e-06
4.41827e-08
5.96787e-06
6.20723e-08
5.97702e-06
7.35652e-08
5.98676e-06
8.0535e-08
5.99662e-06
8.3532e-08
6.00625e-06
8.33191e-08
6.01546e-06
8.07879e-08
6.02418e-06
7.66951e-08
6.0324e-06
7.16586e-08
6.04018e-06
6.61586e-08
6.04762e-06
6.05067e-08
6.05483e-06
5.48523e-08
6.06192e-06
4.92076e-08
6.06891e-06
4.34963e-08
6.07578e-06
3.75937e-08
6.0824e-06
3.1379e-08
2.48253e-08
6.08853e-06
6.37945e-06
1.41326e-08
6.38569e-06
3.79452e-08
6.39362e-06
5.41413e-08
6.40259e-06
6.45925e-08
6.41224e-06
7.08874e-08
6.42213e-06
7.36405e-08
6.43193e-06
7.35232e-08
6.44141e-06
7.13098e-08
6.45045e-06
6.76555e-08
6.45902e-06
6.30886e-08
6.46715e-06
5.80258e-08
6.47491e-06
5.27424e-08
6.4824e-06
4.73662e-08
6.48968e-06
4.19276e-08
6.49678e-06
3.63959e-08
6.50366e-06
3.07153e-08
6.5102e-06
2.48358e-08
1.87874e-08
6.51624e-06
5.74281e-06
1.21519e-08
5.7477e-06
3.30585e-08
5.75418e-06
4.76617e-08
5.76163e-06
5.71475e-08
5.76969e-06
6.28254e-08
5.77802e-06
6.53043e-08
5.78636e-06
6.51907e-08
5.7945e-06
6.31658e-08
5.80234e-06
5.98116e-08
5.80984e-06
5.55926e-08
5.81699e-06
5.08723e-08
5.82384e-06
4.5899e-08
5.83041e-06
4.0798e-08
5.83673e-06
3.56069e-08
5.84282e-06
3.03056e-08
5.84865e-06
2.48817e-08
5.85415e-06
1.93322e-08
1.3721e-08
5.85922e-06
7.00019e-06
1.01173e-08
7.00543e-06
2.78181e-08
7.01259e-06
4.05046e-08
7.02094e-06
4.87926e-08
7.03007e-06
5.37012e-08
7.03957e-06
5.58021e-08
7.04914e-06
5.56227e-08
7.05856e-06
5.37415e-08
7.06771e-06
5.0663e-08
7.07652e-06
4.6787e-08
7.08497e-06
4.24219e-08
7.09308e-06
3.77841e-08
7.10088e-06
3.30002e-08
7.10836e-06
2.8127e-08
7.1155e-06
2.31685e-08
7.12225e-06
1.81256e-08
7.12857e-06
1.30107e-08
7.90951e-09
7.13438e-06
8.53293e-06
8.03418e-09
8.53848e-06
2.22649e-08
8.5463e-06
3.26917e-08
8.55557e-06
3.95209e-08
8.56579e-06
4.34811e-08
8.57652e-06
4.50743e-08
8.5874e-06
4.47396e-08
8.5982e-06
4.29455e-08
8.60875e-06
4.01105e-08
8.61897e-06
3.65677e-08
8.62882e-06
3.2573e-08
8.63829e-06
2.83098e-08
8.64739e-06
2.38954e-08
8.65612e-06
1.93972e-08
8.66444e-06
1.48516e-08
8.67229e-06
1.02803e-08
8.67959e-06
5.7058e-09
1.20913e-09
8.68629e-06
1.04014e-05
5.8962e-09
1.04072e-05
1.643e-08
1.04156e-05
2.42521e-08
1.04258e-05
2.93355e-08
1.04372e-05
3.21421e-08
1.04492e-05
3.3071e-08
1.04614e-05
3.24673e-08
1.04737e-05
3.06869e-08
1.04857e-05
2.80556e-08
1.04975e-05
2.48369e-08
1.05088e-05
2.1234e-08
1.05197e-05
1.73967e-08
1.05302e-05
1.34285e-08
1.05402e-05
9.39782e-09
1.05497e-05
5.35184e-09
1.05586e-05
1.32875e-09
1.0567e-05
-2.63528e-09
-6.46636e-09
1.05747e-05
1.2679e-05
3.68635e-09
1.26851e-05
1.03076e-08
1.26942e-05
1.51946e-08
1.27053e-05
1.82267e-08
1.27178e-05
1.96488e-08
1.27311e-05
1.97341e-08
1.27449e-05
1.87262e-08
1.27587e-05
1.68708e-08
1.27723e-05
1.4397e-08
1.27857e-05
1.1495e-08
1.27986e-05
8.31351e-09
1.2811e-05
4.96535e-09
1.28229e-05
1.53334e-09
1.28342e-05
-1.92216e-09
1.2845e-05
-5.35501e-09
1.2855e-05
-8.72557e-09
1.28644e-05
-1.19992e-08
-1.51142e-08
1.2873e-05
1.54555e-05
1.36871e-09
1.5462e-05
3.82394e-09
1.54717e-05
5.44784e-09
1.54838e-05
6.11019e-09
1.54976e-05
5.8963e-09
1.55124e-05
4.94303e-09
1.55277e-05
3.38516e-09
1.55432e-05
1.36019e-09
1.55586e-05
-1.00046e-09
1.55737e-05
-3.58476e-09
1.55883e-05
-6.30349e-09
1.56024e-05
-9.08724e-09
1.56158e-05
-1.18829e-08
1.56285e-05
-1.46493e-08
1.56405e-05
-1.73532e-08
1.56518e-05
-1.99654e-08
1.56622e-05
-2.2461e-08
-2.47942e-08
1.56719e-05
1.88401e-05
-1.13852e-09
1.88472e-05
-3.23536e-09
1.88579e-05
-5.2584e-09
1.88713e-05
-7.30837e-09
1.88867e-05
-9.42654e-09
1.89032e-05
-1.16173e-08
1.89205e-05
-1.38633e-08
1.8938e-05
-1.61364e-08
1.89554e-05
-1.84061e-08
1.89724e-05
-2.06454e-08
1.8989e-05
-2.28324e-08
1.90048e-05
-2.49508e-08
1.90199e-05
-2.69882e-08
1.90342e-05
-2.89343e-08
1.90476e-05
-3.07799e-08
1.90602e-05
-3.25153e-08
1.90719e-05
-3.41317e-08
-3.56024e-08
1.90827e-05
2.29662e-05
-4.01375e-09
2.29744e-05
-1.13937e-08
2.29867e-05
-1.76367e-08
2.30023e-05
-2.28189e-08
2.302e-05
-2.71367e-08
2.30391e-05
-3.07591e-08
2.3059e-05
-3.3799e-08
2.30793e-05
-3.6347e-08
2.30993e-05
-3.8485e-08
2.3119e-05
-4.02826e-08
2.31379e-05
-4.17983e-08
2.31561e-05
-4.30816e-08
2.31733e-05
-4.41744e-08
2.31894e-05
-4.51106e-08
2.32046e-05
-4.5916e-08
2.32187e-05
-4.66087e-08
2.32317e-05
-4.72018e-08
-4.76901e-08
2.32438e-05
1.6813e-05
-6.28465e-09
1.68193e-05
-1.77359e-08
1.68288e-05
-2.71026e-08
1.68405e-05
-3.45092e-08
1.68537e-05
-4.03571e-08
1.68679e-05
-4.4955e-08
1.68826e-05
-4.85022e-08
1.68974e-05
-5.11755e-08
1.69121e-05
-5.31398e-08
1.69263e-05
-5.45344e-08
1.694e-05
-5.5476e-08
1.6953e-05
-5.6065e-08
1.69652e-05
-5.63871e-08
1.69766e-05
-5.65125e-08
1.69872e-05
-5.64964e-08
1.6997e-05
-5.63801e-08
1.70059e-05
-5.61938e-08
-5.59474e-08
1.70142e-05
1.46368e-05
-8.56284e-09
1.46431e-05
-2.39852e-08
1.46522e-05
-3.61629e-08
1.46631e-05
-4.54442e-08
1.46753e-05
-5.25595e-08
1.46883e-05
-5.79446e-08
1.47016e-05
-6.18607e-08
1.4715e-05
-6.45657e-08
1.47282e-05
-6.6299e-08
1.47409e-05
-6.72571e-08
1.4753e-05
-6.76063e-08
1.47645e-05
-6.74938e-08
1.47751e-05
-6.70475e-08
1.4785e-05
-6.63734e-08
1.47941e-05
-6.55561e-08
1.48023e-05
-6.46601e-08
1.48099e-05
-6.37326e-08
-6.27974e-08
1.48167e-05
1.27426e-05
-1.10264e-08
1.27491e-05
-3.04858e-08
1.27581e-05
-4.51407e-08
1.27686e-05
-5.5943e-08
1.27801e-05
-6.40999e-08
1.27923e-05
-7.01129e-08
1.28047e-05
-7.42788e-08
1.28171e-05
-7.69393e-08
1.28292e-05
-7.83974e-08
1.28408e-05
-7.88914e-08
1.28518e-05
-7.86284e-08
1.28621e-05
-7.77995e-08
1.28717e-05
-7.6574e-08
1.28804e-05
-7.50942e-08
1.28883e-05
-7.3475e-08
1.28954e-05
-7.18057e-08
1.29019e-05
-7.01525e-08
-6.85532e-08
1.29076e-05
1.10938e-05
-1.38792e-08
1.11008e-05
-3.7519e-08
1.11099e-05
-5.4203e-08
1.11201e-05
-6.61592e-08
1.11312e-05
-7.51678e-08
1.11427e-05
-8.16738e-08
1.11544e-05
-8.59912e-08
1.1166e-05
-8.85503e-08
1.11773e-05
-8.97008e-08
1.11882e-05
-8.97067e-08
1.11983e-05
-8.88088e-08
1.12078e-05
-8.72406e-08
1.12164e-05
-8.52144e-08
1.12242e-05
-8.29094e-08
1.12312e-05
-8.04719e-08
1.12374e-05
-7.8017e-08
1.12429e-05
-7.56297e-08
-7.33586e-08
1.12477e-05
9.65873e-06
-1.73904e-08
9.66653e-06
-4.53266e-08
9.67577e-06
-6.34369e-08
9.6858e-06
-7.61942e-08
9.69651e-06
-8.58801e-08
9.70757e-06
-9.27341e-08
9.71869e-06
-9.71031e-08
9.72964e-06
-9.95057e-08
9.74026e-06
-1.00315e-07
9.75035e-06
-9.98054e-08
9.75979e-06
-9.82473e-08
9.76847e-06
-9.5917e-08
9.77633e-06
-9.30708e-08
9.78334e-06
-8.99248e-08
9.78953e-06
-8.66597e-08
9.79493e-06
-8.34202e-08
9.79962e-06
-8.03161e-08
-7.74097e-08
9.80367e-06
8.40993e-06
-2.19718e-08
8.41874e-06
-5.41296e-08
8.42817e-06
-7.28694e-08
8.43808e-06
-8.61021e-08
8.44847e-06
-9.62746e-08
8.45902e-06
-1.03287e-07
8.4695e-06
-1.07578e-07
8.47975e-06
-1.09759e-07
8.48964e-06
-1.10199e-07
8.499e-06
-1.09167e-07
8.5077e-06
-1.0695e-07
8.51566e-06
-1.03871e-07
8.52281e-06
-1.00226e-07
8.52914e-06
-9.62561e-08
8.53466e-06
-9.21775e-08
8.53941e-06
-8.81664e-08
8.54344e-06
-8.43471e-08
-8.07444e-08
8.54677e-06
7.32358e-06
-2.82646e-08
7.33363e-06
-6.41802e-08
7.3432e-06
-8.24456e-08
7.35288e-06
-9.57753e-08
7.36285e-06
-1.06243e-07
7.37284e-06
-1.13285e-07
7.38273e-06
-1.17463e-07
7.39243e-06
-1.19464e-07
7.40185e-06
-1.19616e-07
7.41084e-06
-1.18161e-07
7.41928e-06
-1.15386e-07
7.42705e-06
-1.11638e-07
7.43407e-06
-1.07248e-07
7.4403e-06
-1.02486e-07
7.44574e-06
-9.76146e-08
7.45043e-06
-9.28596e-08
7.45448e-06
-8.83943e-08
-8.43048e-08
7.45804e-06
6.37891e-06
-3.71104e-08
6.39062e-06
-7.58921e-08
6.40076e-06
-9.25806e-08
6.41099e-06
-1.06006e-07
6.42147e-06
-1.16723e-07
6.43202e-06
-1.23839e-07
6.44264e-06
-1.2808e-07
6.45331e-06
-1.30138e-07
6.46394e-06
-1.30239e-07
6.47436e-06
-1.28579e-07
6.48439e-06
-1.25424e-07
6.49383e-06
-1.21071e-07
6.50244e-06
-1.15865e-07
6.51014e-06
-1.10178e-07
6.51688e-06
-1.04355e-07
6.52272e-06
-9.86989e-08
6.52765e-06
-9.33332e-08
-8.83763e-08
6.53173e-06
5.55999e-06
-5.16322e-08
5.57641e-06
-9.23161e-08
5.59196e-06
-1.08134e-07
5.60946e-06
-1.23504e-07
5.62826e-06
-1.35521e-07
5.64755e-06
-1.43134e-07
5.66697e-06
-1.47492e-07
5.68596e-06
-1.4913e-07
5.70389e-06
-1.48166e-07
5.72013e-06
-1.4482e-07
5.73416e-06
-1.39458e-07
5.74565e-06
-1.3256e-07
5.75445e-06
-1.24661e-07
5.76051e-06
-1.16245e-07
5.7639e-06
-1.07747e-07
5.76481e-06
-9.96025e-08
5.76354e-06
-9.20674e-08
-8.56856e-08
5.76085e-06
4.88591e-06
-1.09933e-07
4.9365e-06
-1.42913e-07
4.97833e-06
-1.4996e-07
5.00971e-06
-1.54883e-07
5.02926e-06
-1.55069e-07
5.0374e-06
-1.51277e-07
5.03476e-06
-1.44853e-07
5.02215e-06
-1.36521e-07
5.00065e-06
-1.26665e-07
4.97149e-06
-1.15657e-07
4.93594e-06
-1.03904e-07
4.89521e-06
-9.18309e-08
4.8504e-06
-7.98552e-08
4.80249e-06
-6.83391e-08
4.75232e-06
-5.75712e-08
4.70056e-06
-4.78466e-08
4.64782e-06
-3.93222e-08
-3.22332e-08
4.59436e-06
4.09274e-06
3.94983e-06
3.79987e-06
3.64499e-06
3.48992e-06
3.33864e-06
3.19379e-06
3.05727e-06
2.9306e-06
2.81495e-06
2.71104e-06
2.61921e-06
2.53936e-06
2.47102e-06
2.41344e-06
2.3656e-06
2.32628e-06
2.29404e-06
5.68646e-09
-5.68646e-09
1.17272e-08
-6.04073e-09
1.78792e-08
-6.15201e-09
2.39393e-08
-6.06013e-09
2.9678e-08
-5.7387e-09
3.48687e-08
-5.1907e-09
3.92988e-08
-4.43008e-09
4.27797e-08
-3.48085e-09
4.51542e-08
-2.37452e-09
4.6301e-08
-1.14681e-09
4.61292e-08
1.71745e-10
4.45956e-08
1.53365e-09
4.16775e-08
2.91809e-09
3.73752e-08
4.30226e-09
3.17026e-08
5.67265e-09
2.46833e-08
7.01926e-09
1.63516e-08
8.33175e-09
6.75629e-09
9.5953e-09
-4.03116e-09
1.07874e-08
-1.5908e-08
1.18768e-08
-2.87328e-08
1.28249e-08
-4.23257e-08
1.35929e-08
-5.64805e-08
1.41548e-08
-7.1004e-08
1.45235e-08
-8.58057e-08
1.48017e-08
-1.01086e-07
1.52805e-08
-1.17373e-07
1.62872e-08
-1.34935e-07
1.75612e-08
-1.53549e-07
1.86139e-08
-1.7283e-07
1.9281e-08
-1.92236e-07
1.94062e-08
-2.11215e-07
1.89793e-08
-2.29463e-07
1.82484e-08
-2.47096e-07
1.76329e-08
-2.64474e-07
1.73778e-08
-2.81955e-07
1.74804e-08
-2.99765e-07
1.78102e-08
-3.17996e-07
1.8231e-08
-3.36648e-07
1.86518e-08
-3.55675e-07
1.90274e-08
-3.75017e-07
1.93426e-08
-3.94615e-07
1.95976e-08
-4.14423e-07
1.9808e-08
-4.34413e-07
1.99899e-08
-4.54567e-07
2.01539e-08
-4.7488e-07
2.03132e-08
-4.9536e-07
2.04796e-08
-5.16022e-07
2.06626e-08
-5.36892e-07
2.08695e-08
-5.57997e-07
2.11048e-08
-5.79368e-07
2.13709e-08
-6.01036e-07
2.16679e-08
-6.2303e-07
2.19943e-08
-6.45377e-07
2.23469e-08
-6.68098e-07
2.27216e-08
-6.91212e-07
2.31136e-08
-7.14729e-07
2.35175e-08
-7.38657e-07
2.39274e-08
-7.62995e-07
2.43378e-08
-7.87737e-07
2.47427e-08
-8.12874e-07
2.51367e-08
-8.38388e-07
2.55143e-08
-8.64259e-07
2.58703e-08
-8.90458e-07
2.61997e-08
-9.16956e-07
2.64979e-08
-9.43717e-07
2.67604e-08
-9.707e-07
2.69832e-08
-9.97862e-07
2.71624e-08
-1.02516e-06
2.72949e-08
-1.05253e-06
2.73775e-08
-1.07994e-06
2.7408e-08
-1.10733e-06
2.73842e-08
-1.13463e-06
2.73048e-08
-1.1618e-06
2.71688e-08
-1.18878e-06
2.69759e-08
-1.2155e-06
2.67262e-08
-1.24192e-06
2.64202e-08
-1.26798e-06
2.60592e-08
-1.29363e-06
2.56446e-08
-1.31881e-06
2.51783e-08
-1.34347e-06
2.46625e-08
-1.36757e-06
2.40998e-08
-1.39106e-06
2.34931e-08
-1.41391e-06
2.28453e-08
-1.43607e-06
2.21597e-08
-1.45751e-06
2.14399e-08
-1.47819e-06
2.06896e-08
-1.49811e-06
1.99127e-08
-1.51722e-06
1.91137e-08
-1.53552e-06
1.82972e-08
-1.55299e-06
1.74679e-08
-1.56962e-06
1.66308e-08
-1.58541e-06
1.5791e-08
-1.60036e-06
1.49535e-08
-1.61448e-06
1.41229e-08
-1.62779e-06
1.33036e-08
-1.64029e-06
1.24997e-08
-1.652e-06
1.17147e-08
-1.66295e-06
1.09515e-08
-1.67317e-06
1.02122e-08
-1.68266e-06
9.49819e-09
-1.69147e-06
8.80985e-09
-1.69962e-06
8.14724e-09
-1.70713e-06
7.50993e-09
-1.71403e-06
6.89768e-09
-1.72034e-06
6.31029e-09
-1.72609e-06
5.74804e-09
-1.7313e-06
5.21148e-09
-1.736e-06
4.70141e-09
-1.74022e-06
4.21869e-09
-1.74398e-06
3.7641e-09
-1.74732e-06
3.33813e-09
-1.75026e-06
2.94084e-09
-1.75283e-06
2.57162e-09
-1.75506e-06
2.22921e-09
-1.75697e-06
1.91162e-09
-1.75859e-06
1.6167e-09
-1.75993e-06
1.34009e-09
-1.761e-06
1.06794e-09
-1.7618e-06
7.98649e-10
-1.76233e-06
5.36291e-10
-1.76264e-06
3.01634e-10
-1.76269e-06
5.41538e-11
-1.76249e-06
-1.98529e-10
-1.762e-06
-4.94701e-10
-1.76121e-06
-7.82942e-10
-1.76013e-06
-1.08652e-09
-1.75872e-06
-1.41239e-09
-1.75695e-06
-1.76547e-09
-1.7548e-06
-2.15e-09
-1.75223e-06
-2.57011e-09
-1.7492e-06
-3.03029e-09
-1.74566e-06
-3.5354e-09
-1.74157e-06
-4.09104e-09
-1.73687e-06
-4.70363e-09
-1.73149e-06
-5.38058e-09
-1.72536e-06
-6.13001e-09
-1.7184e-06
-6.96061e-09
-1.71052e-06
-7.88136e-09
-1.70161e-06
-8.90204e-09
-1.69158e-06
-1.00333e-08
-1.68029e-06
-1.12868e-08
-1.66762e-06
-1.26746e-08
-1.65341e-06
-1.42079e-08
-1.63752e-06
-1.58965e-08
-1.61976e-06
-1.77577e-08
-1.59996e-06
-1.9798e-08
-1.57794e-06
-2.20245e-08
-1.55349e-06
-2.44466e-08
-1.52641e-06
-2.7079e-08
-1.49647e-06
-2.99412e-08
-1.46342e-06
-3.30494e-08
-1.42701e-06
-3.64121e-08
-1.38698e-06
-4.00317e-08
-1.34307e-06
-4.39068e-08
-1.29503e-06
-4.80338e-08
-1.24264e-06
-5.23953e-08
-1.18568e-06
-5.69573e-08
-1.124e-06
-6.16855e-08
-1.05744e-06
-6.65616e-08
-9.85859e-07
-7.15761e-08
-9.09137e-07
-7.67216e-08
-8.2712e-07
-8.20174e-08
-7.39599e-07
-8.75206e-08
-6.46317e-07
-9.32825e-08
-5.47036e-07
-9.92811e-08
-4.42075e-07
-1.04961e-07
-3.34209e-07
-1.07865e-07
-2.29911e-07
-1.04298e-07
-1.2809e-07
-1.01821e-07
-2.2977e-08
-1.05113e-07
8.36525e-08
-1.0663e-07
1.87966e-07
-1.04313e-07
2.91948e-07
-1.03982e-07
3.97935e-07
-1.05987e-07
5.0334e-07
-1.05405e-07
6.057e-07
-1.0236e-07
7.02233e-07
-9.6533e-08
7.83836e-07
-8.16032e-08
-4.90282e-08
8.32865e-07
5.66256e-09
-1.1349e-08
1.15509e-08
-1.1929e-08
1.75046e-08
-1.21057e-08
2.33023e-08
-1.18579e-08
2.87389e-08
-1.11753e-08
3.36122e-08
-1.00639e-08
3.77298e-08
-8.54775e-09
4.09163e-08
-6.66727e-09
4.30174e-08
-4.47564e-09
4.39047e-08
-2.03412e-09
4.34853e-08
5.91188e-10
4.16773e-08
3.34163e-09
3.84364e-08
6.15901e-09
3.37418e-08
8.99681e-09
2.75967e-08
1.18177e-08
2.00243e-08
1.45917e-08
1.10655e-08
1.72905e-08
7.78605e-10
1.98822e-08
-1.07595e-08
2.23256e-08
-2.34537e-08
2.4571e-08
-3.71942e-08
2.65654e-08
-5.18629e-08
2.82616e-08
-6.73426e-08
2.96345e-08
-8.35217e-08
3.07025e-08
-1.00275e-07
3.15548e-08
-1.17374e-07
3.23792e-08
-1.34512e-07
3.34256e-08
-1.51728e-07
3.47776e-08
-1.69372e-07
3.62576e-08
-1.87744e-07
3.76527e-08
-2.07043e-07
3.87053e-08
-2.27277e-07
3.92135e-08
-2.48228e-07
3.91995e-08
-2.69475e-07
3.88799e-08
-2.90612e-07
3.85152e-08
-3.11408e-07
3.82764e-08
-3.31819e-07
3.8221e-08
-3.51921e-07
3.83332e-08
-3.71838e-07
3.85689e-08
-3.91694e-07
3.88834e-08
-4.11595e-07
3.92429e-08
-4.31623e-07
3.96259e-08
-4.51837e-07
4.00219e-08
-4.72275e-07
4.04285e-08
-4.92972e-07
4.08505e-08
-5.13955e-07
4.12958e-08
-5.35248e-07
4.1773e-08
-5.56875e-07
4.22897e-08
-5.78857e-07
4.28519e-08
-6.01216e-07
4.34634e-08
-6.2397e-07
4.41252e-08
-6.47139e-07
4.48361e-08
-6.70737e-07
4.55924e-08
-6.94778e-07
4.63883e-08
-7.19273e-07
4.72166e-08
-7.44228e-07
4.80686e-08
-7.69645e-07
4.89349e-08
-7.95523e-07
4.98053e-08
-8.21855e-07
5.06692e-08
-8.48628e-07
5.15159e-08
-8.75826e-07
5.23348e-08
-9.03427e-07
5.31153e-08
-9.31404e-07
5.3847e-08
-9.59724e-07
5.45199e-08
-9.8835e-07
5.51244e-08
-1.01724e-06
5.56516e-08
-1.04635e-06
5.60928e-08
-1.07563e-06
5.64405e-08
-1.10502e-06
5.66876e-08
-1.13447e-06
5.68284e-08
-1.16392e-06
5.68578e-08
-1.19331e-06
5.67722e-08
-1.22257e-06
5.65689e-08
-1.25165e-06
5.62465e-08
-1.28048e-06
5.58046e-08
-1.309e-06
5.52442e-08
-1.33715e-06
5.45671e-08
-1.36486e-06
5.37761e-08
-1.39209e-06
5.28752e-08
-1.41878e-06
5.18689e-08
-1.44488e-06
5.07626e-08
-1.47035e-06
4.95622e-08
-1.49513e-06
4.82745e-08
-1.51919e-06
4.69065e-08
-1.5425e-06
4.54657e-08
-1.56502e-06
4.39602e-08
-1.58672e-06
4.23983e-08
-1.6076e-06
4.07885e-08
-1.62763e-06
3.91395e-08
-1.64679e-06
3.746e-08
-1.66508e-06
3.57588e-08
-1.68249e-06
3.40443e-08
-1.69903e-06
3.2325e-08
-1.71468e-06
3.0609e-08
-1.72946e-06
2.89045e-08
-1.74338e-06
2.72195e-08
-1.75644e-06
2.55616e-08
-1.76866e-06
2.39379e-08
-1.78007e-06
2.23543e-08
-1.79067e-06
2.08157e-08
-1.8005e-06
1.9325e-08
-1.80957e-06
1.78838e-08
-1.81792e-06
1.64924e-08
-1.82556e-06
1.51506e-08
-1.83252e-06
1.38582e-08
-1.83882e-06
1.26154e-08
-1.8445e-06
1.14232e-08
-1.84957e-06
1.02829e-08
-1.85406e-06
9.19635e-09
-1.85801e-06
8.16525e-09
-1.86144e-06
7.19099e-09
-1.86437e-06
6.27416e-09
-1.86685e-06
5.41428e-09
-1.86889e-06
4.60929e-09
-1.87051e-06
3.85586e-09
-1.87175e-06
3.14876e-09
-1.87261e-06
2.48173e-09
-1.87312e-06
1.84799e-09
-1.87328e-06
1.223e-09
-1.87307e-06
5.94157e-10
-1.87246e-06
-7.58985e-11
-1.87155e-06
-6.07224e-10
-1.87031e-06
-1.18876e-09
-1.8687e-06
-1.80502e-09
-1.86674e-06
-2.45903e-09
-1.86437e-06
-3.15267e-09
-1.86156e-06
-3.89241e-09
-1.85829e-06
-4.68572e-09
-1.85451e-06
-5.54079e-09
-1.8502e-06
-6.46596e-09
-1.8453e-06
-7.46971e-09
-1.83977e-06
-8.56088e-09
-1.83355e-06
-9.74901e-09
-1.8266e-06
-1.10448e-08
-1.81884e-06
-1.24602e-08
-1.81022e-06
-1.40091e-08
-1.80064e-06
-1.57065e-08
-1.79003e-06
-1.75681e-08
-1.7783e-06
-1.96098e-08
-1.76536e-06
-2.18487e-08
-1.75109e-06
-2.43029e-08
-1.73538e-06
-2.69921e-08
-1.71812e-06
-2.99381e-08
-1.69916e-06
-3.31645e-08
-1.67836e-06
-3.66957e-08
-1.65556e-06
-4.0558e-08
-1.63058e-06
-4.4777e-08
-1.60323e-06
-4.93785e-08
-1.57329e-06
-5.43896e-08
-1.54053e-06
-5.9838e-08
-1.50472e-06
-6.57496e-08
-1.46563e-06
-7.21383e-08
-1.42304e-06
-7.90054e-08
-1.37672e-06
-8.63468e-08
-1.32648e-06
-9.41521e-08
-1.2721e-06
-1.02408e-07
-1.21342e-06
-1.11077e-07
-1.15029e-06
-1.20085e-07
-1.08262e-06
-1.29359e-07
-1.01033e-06
-1.3885e-07
-9.33382e-07
-1.48523e-07
-8.51763e-07
-1.58341e-07
-7.65492e-07
-1.68289e-07
-6.74623e-07
-1.78389e-07
-5.79319e-07
-1.88587e-07
-4.80009e-07
-1.98591e-07
-3.77667e-07
-2.07302e-07
-2.73906e-07
-2.11627e-07
-1.68258e-07
-2.09946e-07
-5.94187e-08
-2.10661e-07
5.12236e-08
-2.15755e-07
1.62536e-07
-2.17942e-07
2.74389e-07
-2.16166e-07
3.86599e-07
-2.16192e-07
4.99293e-07
-2.18681e-07
6.11069e-07
-2.17181e-07
7.1976e-07
-2.11051e-07
8.23248e-07
-2.00021e-07
9.18046e-07
-1.76401e-07
-1.31335e-07
1.00035e-06
5.45502e-09
-1.6804e-08
1.11701e-08
-1.76441e-08
1.69014e-08
-1.7837e-08
2.24349e-08
-1.73914e-08
2.75636e-08
-1.6304e-08
3.20903e-08
-1.45907e-08
3.58312e-08
-1.22886e-08
3.86171e-08
-9.45316e-09
4.02959e-08
-6.15444e-09
4.07354e-08
-2.4737e-09
3.9826e-08
1.5006e-09
3.74896e-08
5.67803e-09
3.3677e-08
9.97163e-09
2.83713e-08
1.43025e-08
2.15861e-08
1.8603e-08
1.33612e-08
2.28166e-08
3.75784e-09
2.68939e-08
-7.14598e-09
3.0786e-08
-1.92606e-08
3.44402e-08
-3.24896e-08
3.78e-08
-4.67347e-08
4.08105e-08
-6.19019e-08
4.34288e-08
-7.79068e-08
4.56394e-08
-9.46766e-08
4.74723e-08
-1.12142e-07
4.90198e-08
-1.30206e-07
5.04435e-08
-1.48722e-07
5.19417e-08
-1.67588e-07
5.36431e-08
-1.86855e-07
5.5525e-08
-2.06617e-07
5.74151e-08
-2.26925e-07
5.90126e-08
-2.47752e-07
6.00414e-08
-2.68985e-07
6.04318e-08
-2.90443e-07
6.03377e-08
-3.11931e-07
6.00036e-08
-3.33295e-07
5.964e-08
-3.5445e-07
5.93761e-08
-3.75385e-07
5.9268e-08
-3.9614e-07
5.93245e-08
-4.16788e-07
5.95315e-08
-4.37412e-07
5.9867e-08
-4.58097e-07
6.03101e-08
-4.78919e-07
6.0844e-08
-4.99948e-07
6.14575e-08
-5.21242e-07
6.21444e-08
-5.42848e-07
6.29023e-08
-5.64806e-07
6.37309e-08
-5.87147e-07
6.46309e-08
-6.09898e-07
6.56023e-08
-6.33078e-07
6.66441e-08
-6.56707e-07
6.77535e-08
-6.80796e-07
6.89253e-08
-7.05356e-07
7.01527e-08
-7.30394e-07
7.14264e-08
-7.55913e-07
7.27358e-08
-7.81913e-07
7.40685e-08
-8.08389e-07
7.5411e-08
-8.35333e-07
7.6749e-08
-8.62731e-07
7.80674e-08
-8.90566e-07
7.9351e-08
-9.18816e-07
8.05841e-08
-9.47452e-07
8.17514e-08
-9.76443e-07
8.28376e-08
-1.00575e-06
8.38277e-08
-1.03533e-06
8.47075e-08
-1.06514e-06
8.54631e-08
-1.09513e-06
8.60821e-08
-1.12525e-06
8.6553e-08
-1.15542e-06
8.68656e-08
-1.18561e-06
8.70113e-08
-1.21573e-06
8.69835e-08
-1.24574e-06
8.67768e-08
-1.27556e-06
8.63882e-08
-1.30513e-06
8.58164e-08
-1.33438e-06
8.50618e-08
-1.36327e-06
8.41269e-08
-1.39172e-06
8.30154e-08
-1.41967e-06
8.17328e-08
-1.44708e-06
8.02859e-08
-1.4739e-06
7.86825e-08
-1.50007e-06
7.69318e-08
-1.52555e-06
7.50436e-08
-1.5503e-06
7.30288e-08
-1.57429e-06
7.08988e-08
-1.59749e-06
6.86652e-08
-1.61987e-06
6.63401e-08
-1.64141e-06
6.39353e-08
-1.66208e-06
6.14628e-08
-1.68188e-06
5.8934e-08
-1.70078e-06
5.63601e-08
-1.71877e-06
5.37519e-08
-1.73585e-06
5.112e-08
-1.752e-06
4.84752e-08
-1.76722e-06
4.58287e-08
-1.7815e-06
4.31919e-08
-1.79486e-06
4.05769e-08
-1.8073e-06
3.79959e-08
-1.81882e-06
3.54605e-08
-1.82945e-06
3.29814e-08
-1.8392e-06
3.05669e-08
-1.8481e-06
2.82226e-08
-1.85616e-06
2.59515e-08
-1.86343e-06
2.37547e-08
-1.86991e-06
2.16322e-08
-1.87563e-06
1.95838e-08
-1.88063e-06
1.76105e-08
-1.88492e-06
1.57138e-08
-1.88853e-06
1.38962e-08
-1.8915e-06
1.21608e-08
-1.89384e-06
1.05103e-08
-1.8956e-06
8.94641e-09
-1.89679e-06
7.4699e-09
-1.89746e-06
6.07949e-09
-1.89762e-06
4.77119e-09
-1.8973e-06
3.53896e-09
-1.89653e-06
2.37481e-09
-1.89531e-06
1.26751e-09
-1.8937e-06
2.32617e-10
-1.89166e-06
-8.18744e-10
-1.88922e-06
-1.84455e-09
-1.88643e-06
-2.86555e-09
-1.88317e-06
-3.86207e-09
-1.87949e-06
-4.87679e-09
-1.87536e-06
-5.93064e-09
-1.87078e-06
-7.0398e-09
-1.86572e-06
-8.21311e-09
-1.86015e-06
-9.46139e-09
-1.85404e-06
-1.0795e-08
-1.84736e-06
-1.22247e-08
-1.84006e-06
-1.37617e-08
-1.83211e-06
-1.54175e-08
-1.82347e-06
-1.72046e-08
-1.81408e-06
-1.91368e-08
-1.8039e-06
-2.12292e-08
-1.79286e-06
-2.34993e-08
-1.7809e-06
-2.59675e-08
-1.76795e-06
-2.86564e-08
-1.75393e-06
-3.15892e-08
-1.73875e-06
-3.47899e-08
-1.72231e-06
-3.82839e-08
-1.70452e-06
-4.20985e-08
-1.68525e-06
-4.62635e-08
-1.66437e-06
-5.08122e-08
-1.64175e-06
-5.57829e-08
-1.61723e-06
-6.1217e-08
-1.59064e-06
-6.71541e-08
-1.56178e-06
-7.36308e-08
-1.53048e-06
-8.06806e-08
-1.49654e-06
-8.83327e-08
-1.45976e-06
-9.66136e-08
-1.41996e-06
-1.0555e-07
-1.37694e-06
-1.15159e-07
-1.33051e-06
-1.2544e-07
-1.28046e-06
-1.36388e-07
-1.22663e-06
-1.47985e-07
-1.16883e-06
-1.60213e-07
-1.10689e-06
-1.73017e-07
-1.04068e-06
-1.86293e-07
-9.70115e-07
-1.99923e-07
-8.95133e-07
-2.13832e-07
-8.15691e-07
-2.27965e-07
-7.31786e-07
-2.42247e-07
-6.43456e-07
-2.56618e-07
-5.508e-07
-2.71045e-07
-4.54029e-07
-2.85358e-07
-3.53577e-07
-2.99043e-07
-2.50056e-07
-3.10824e-07
-1.43631e-07
-3.18052e-07
-3.33685e-08
-3.20208e-07
7.97251e-08
-3.23754e-07
1.93517e-07
-3.29548e-07
3.07815e-07
-3.3224e-07
4.23012e-07
-3.31363e-07
5.383e-07
-3.3148e-07
6.52463e-07
-3.32844e-07
7.65244e-07
-3.29963e-07
8.75487e-07
-3.21294e-07
9.8155e-07
-3.06084e-07
1.08268e-06
-2.7753e-07
-2.26464e-07
1.17781e-06
4.9925e-09
-2.17965e-08
1.011e-08
-2.27616e-08
1.5172e-08
-2.2899e-08
1.99773e-08
-2.21967e-08
2.43349e-08
-2.06616e-08
2.8068e-08
-1.83238e-08
3.10129e-08
-1.52334e-08
3.30167e-08
-1.1457e-08
3.39382e-08
-7.07586e-09
3.36491e-08
-2.18465e-09
3.20395e-08
3.1102e-09
2.9023e-08
8.69452e-09
2.45432e-08
1.44515e-08
1.85779e-08
2.02678e-08
1.11409e-08
2.60399e-08
2.2805e-09
3.1677e-08
-7.92647e-09
3.71009e-08
-1.93839e-08
4.22434e-08
-3.1988e-08
4.70443e-08
-4.56374e-08
5.14494e-08
-6.02408e-08
5.54139e-08
-7.57214e-08
5.89093e-08
-9.20176e-08
6.19356e-08
-1.0908e-07
6.45348e-08
-1.26865e-07
6.68042e-08
-1.45322e-07
6.89012e-08
-1.64399e-07
7.10184e-08
-1.84064e-07
7.33082e-08
-2.04316e-07
7.57773e-08
-2.25123e-07
7.82213e-08
-2.4639e-07
8.02797e-08
-2.67994e-07
8.16454e-08
-2.89807e-07
8.22455e-08
-3.11703e-07
8.22332e-08
-3.33559e-07
8.18594e-08
-3.55279e-07
8.13608e-08
-3.76813e-07
8.09092e-08
-3.98151e-07
8.06067e-08
-4.19328e-07
8.05016e-08
-4.40404e-07
8.06067e-08
-4.61452e-07
8.09151e-08
-4.82553e-07
8.14111e-08
-5.03785e-07
8.20765e-08
-5.25222e-07
8.28938e-08
-5.46925e-07
8.38483e-08
-5.68951e-07
8.49278e-08
-5.91343e-07
8.61225e-08
-6.14136e-07
8.74239e-08
-6.37357e-07
8.8824e-08
-6.61028e-07
9.03148e-08
-6.85162e-07
9.18872e-08
-7.09768e-07
9.35311e-08
-7.3485e-07
9.52347e-08
-7.60408e-07
9.69846e-08
-7.86438e-07
9.8766e-08
-8.12932e-07
1.00563e-07
-8.39878e-07
1.02357e-07
-8.67259e-07
1.04131e-07
-8.95056e-07
1.05864e-07
-9.23243e-07
1.07538e-07
-9.51791e-07
1.09132e-07
-9.80666e-07
1.10626e-07
-1.00983e-06
1.12001e-07
-1.03924e-06
1.13237e-07
-1.06885e-06
1.14315e-07
-1.0986e-06
1.15217e-07
-1.12844e-06
1.15926e-07
-1.15832e-06
1.16429e-07
-1.18817e-06
1.16712e-07
-1.21792e-06
1.16765e-07
-1.24751e-06
1.16579e-07
-1.27689e-06
1.16148e-07
-1.30597e-06
1.1547e-07
-1.3347e-06
1.14545e-07
-1.36301e-06
1.13374e-07
-1.39084e-06
1.11961e-07
-1.41814e-06
1.10314e-07
-1.44485e-06
1.08441e-07
-1.47092e-06
1.06352e-07
-1.49629e-06
1.04058e-07
-1.52093e-06
1.01573e-07
-1.5448e-06
9.89093e-08
-1.56785e-06
9.60829e-08
-1.59006e-06
9.31089e-08
-1.6114e-06
9.00027e-08
-1.63184e-06
8.678e-08
-1.65136e-06
8.34561e-08
-1.66994e-06
8.0046e-08
-1.68757e-06
7.65643e-08
-1.70424e-06
7.30253e-08
-1.71993e-06
6.94429e-08
-1.73464e-06
6.58314e-08
-1.74837e-06
6.22054e-08
-1.76112e-06
5.85804e-08
-1.77291e-06
5.49729e-08
-1.78373e-06
5.13998e-08
-1.79361e-06
4.78786e-08
-1.80258e-06
4.44263e-08
-1.81065e-06
4.10578e-08
-1.81787e-06
3.77846e-08
-1.82426e-06
3.46137e-08
-1.82986e-06
3.15476e-08
-1.83469e-06
2.85861e-08
-1.83878e-06
2.57273e-08
-1.84217e-06
2.29695e-08
-1.84487e-06
2.03125e-08
-1.84692e-06
1.77577e-08
-1.84833e-06
1.53078e-08
-1.84913e-06
1.2966e-08
-1.84936e-06
1.07353e-08
-1.84903e-06