/*--------------------------------*- C++ -*----------------------------------*\
| =========                 |                                                 |
| \\      /  F ield         | OpenFOAM: The Open Source CFD Toolbox           |
|  \\    /   O peration     | Version:  2112                                  |
|   \\  /    A nd           | Website:  www.openfoam.com                      |
|    \\/     M anipulation  |                                                 |
\*---------------------------------------------------------------------------*/
FoamFile
{
    version     2.0;
    format      ascii;
    arch        "LSB;label=32;scalar=64";
    class       surfaceScalarField;
    location    "0.19";
    object      phi;
}
// * * * * * * * * * * * * * * * * * * * * * * * * * * * * * * * * * * * * * //

dimensions      [0 3 -1 0 0 0 0];

oriented        oriented;

internalField   nonuniform List<scalar> 
24170
(
3.08287e-06
1.05534e-07
2.94854e-06
1.34333e-07
2.82328e-06
1.25262e-07
2.70492e-06
1.1836e-07
2.59402e-06
1.10896e-07
2.49251e-06
1.01508e-07
2.40114e-06
9.13726e-08
2.31928e-06
8.18577e-08
2.24603e-06
7.32518e-08
2.18048e-06
6.55547e-08
2.12172e-06
5.87586e-08
2.06887e-06
5.285e-08
2.02105e-06
4.78136e-08
1.97739e-06
4.36587e-08
1.93694e-06
4.0456e-08
1.89865e-06
3.82878e-08
1.86013e-06
3.85223e-08
3.97664e-08
1.82036e-06
3.48227e-06
4.05101e-08
3.51742e-06
9.91815e-08
3.53954e-06
1.03148e-07
3.5495e-06
1.08397e-07
3.54868e-06
1.11713e-07
3.53961e-06
1.10582e-07
3.52421e-06
1.06778e-07
3.50404e-06
1.02023e-07
3.48045e-06
9.68369e-08
3.45454e-06
9.14736e-08
3.42711e-06
8.61873e-08
3.39876e-06
8.11948e-08
3.3699e-06
7.66736e-08
3.34077e-06
7.27884e-08
3.31145e-06
6.97817e-08
3.28185e-06
6.78888e-08
3.25219e-06
6.8181e-08
6.94728e-08
3.22248e-06
3.6696e-06
3.34267e-08
3.6844e-06
8.43865e-08
3.69856e-06
8.89797e-08
3.71365e-06
9.33151e-08
3.72808e-06
9.7279e-08
3.74083e-06
9.78269e-08
3.75158e-06
9.60371e-08
3.76032e-06
9.32825e-08
3.7671e-06
9.00482e-08
3.77203e-06
8.65478e-08
3.77522e-06
8.29995e-08
3.7768e-06
7.96087e-08
3.77692e-06
7.65577e-08
3.77569e-06
7.40209e-08
3.77322e-06
7.2253e-08
3.76963e-06
7.14728e-08
3.76542e-06
7.23909e-08
7.45606e-08
3.76033e-06
3.92901e-06
2.98065e-08
3.94017e-06
7.32201e-08
3.94702e-06
8.2132e-08
3.95357e-06
8.67674e-08
3.96006e-06
9.07932e-08
3.96608e-06
9.18058e-08
3.97168e-06
9.04304e-08
3.97696e-06
8.80017e-08
3.98187e-06
8.51416e-08
3.98633e-06
8.20876e-08
3.9903e-06
7.90336e-08
3.99374e-06
7.61683e-08
3.99663e-06
7.36618e-08
3.99898e-06
7.16763e-08
4.00082e-06
7.04149e-08
4.0022e-06
7.00905e-08
4.00355e-06
7.10431e-08
7.35104e-08
4.0046e-06
4.21118e-06
2.57534e-08
4.22018e-06
6.42225e-08
4.22565e-06
7.66595e-08
4.23054e-06
8.18807e-08
4.23544e-06
8.58866e-08
4.23996e-06
8.72902e-08
4.24401e-06
8.63768e-08
4.24767e-06
8.43473e-08
4.25093e-06
8.18761e-08
4.2538e-06
7.9218e-08
4.25628e-06
7.65573e-08
4.25837e-06
7.40796e-08
4.26008e-06
7.19533e-08
4.26142e-06
7.03319e-08
4.26246e-06
6.93791e-08
4.26328e-06
6.92685e-08
4.26417e-06
7.01487e-08
7.21845e-08
4.2655e-06
4.5127e-06
2.21391e-08
4.52024e-06
5.66817e-08
4.52593e-06
7.09669e-08
4.53092e-06
7.68998e-08
4.53577e-06
8.10361e-08
4.54016e-06
8.28955e-08
4.54399e-06
8.25465e-08
4.54732e-06
8.10143e-08
4.55021e-06
7.89884e-08
4.55268e-06
7.67533e-08
4.55474e-06
7.44969e-08
4.55641e-06
7.24029e-08
4.55773e-06
7.06346e-08
4.55873e-06
6.93321e-08
4.55949e-06
6.86234e-08
4.56013e-06
6.86256e-08
4.56091e-06
6.93734e-08
7.08669e-08
4.56222e-06
4.83572e-06
1.91415e-08
4.84236e-06
5.00351e-08
4.84825e-06
6.50853e-08
4.85334e-06
7.18032e-08
4.8582e-06
7.61799e-08
4.86264e-06
7.84574e-08
4.86653e-06
7.8653e-08
4.86992e-06
7.76243e-08
4.87286e-06
7.60515e-08
4.87536e-06
7.42464e-08
4.87746e-06
7.24004e-08
4.87917e-06
7.06899e-08
4.88054e-06
6.92674e-08
4.88162e-06
6.82552e-08
4.88249e-06
6.77477e-08
4.88331e-06
6.78096e-08
4.88427e-06
6.84154e-08
6.95068e-08
4.88563e-06
5.1821e-06
1.66235e-08
5.18801e-06
4.41214e-08
5.19381e-06
5.92881e-08
5.19893e-06
6.66845e-08
5.20381e-06
7.12966e-08
5.20836e-06
7.39065e-08
5.21242e-06
7.45941e-08
5.21599e-06
7.4059e-08
5.2191e-06
7.2941e-08
5.22178e-06
7.15676e-08
5.22405e-06
7.01309e-08
5.22594e-06
6.87965e-08
5.2275e-06
6.77034e-08
5.2288e-06
6.69548e-08
5.22994e-06
6.66162e-08
5.23103e-06
6.67138e-08
5.23226e-06
6.71902e-08
6.79566e-08
5.23381e-06
5.55349e-06
1.44704e-08
5.55873e-06
3.88813e-08
5.56431e-06
5.37076e-08
5.56943e-06
6.15681e-08
5.57434e-06
6.63805e-08
5.579e-06
6.9254e-08
5.58321e-06
7.03775e-08
5.58696e-06
7.03124e-08
5.59026e-06
6.96364e-08
5.59315e-06
6.86815e-08
5.59564e-06
6.76399e-08
5.59777e-06
6.66646e-08
5.5996e-06
6.58792e-08
5.60118e-06
6.53685e-08
5.60262e-06
6.51753e-08
5.60404e-06
6.53003e-08
5.60555e-06
6.56732e-08
6.62097e-08
5.6073e-06
5.95163e-06
1.2614e-08
5.95628e-06
3.4237e-08
5.9616e-06
4.83885e-08
5.96669e-06
5.64774e-08
5.97162e-06
6.14488e-08
5.97634e-06
6.4532e-08
5.98069e-06
6.60276e-08
5.98461e-06
6.63921e-08
5.98811e-06
6.61316e-08
5.99122e-06
6.55716e-08
5.99396e-06
6.49022e-08
5.99636e-06
6.42631e-08
5.99848e-06
6.37615e-08
6.00038e-06
6.34661e-08
6.00216e-06
6.34027e-08
6.0039e-06
6.35582e-08
6.00571e-06
6.38616e-08
6.42461e-08
6.00767e-06
6.37842e-06
1.10018e-08
6.38256e-06
3.01027e-08
6.3876e-06
4.33482e-08
6.39264e-06
5.14403e-08
6.39757e-06
5.65124e-08
6.40235e-06
5.97539e-08
6.40682e-06
6.15536e-08
6.41092e-06
6.22978e-08
6.41463e-06
6.24195e-08
6.41798e-06
6.22261e-08
6.42098e-06
6.19017e-08
6.42367e-06
6.15728e-08
6.4261e-06
6.13311e-08
6.42833e-06
6.12315e-08
6.43045e-06
6.12891e-08
6.43252e-06
6.14852e-08
6.43463e-06
6.17555e-08
6.20559e-08
6.43682e-06
5.74205e-06
9.78604e-09
5.7452e-06
2.69486e-08
5.74925e-06
3.93058e-08
5.75345e-06
4.72373e-08
5.75763e-06
5.23355e-08
5.76171e-06
5.56717e-08
5.76559e-06
5.76761e-08
5.76919e-06
5.86978e-08
5.77249e-06
5.91128e-08
5.77551e-06
5.92047e-08
5.77827e-06
5.91489e-08
5.78078e-06
5.90612e-08
5.78309e-06
5.90217e-08
5.78524e-06
5.90756e-08
5.7873e-06
5.92328e-08
5.78931e-06
5.94741e-08
5.79132e-06
5.97433e-08
6.00161e-08
5.79336e-06
6.99941e-06
8.5335e-09
7.00271e-06
2.36442e-08
7.0071e-06
3.49163e-08
7.01183e-06
4.25111e-08
7.01661e-06
4.75488e-08
7.02135e-06
5.09383e-08
7.0259e-06
5.31202e-08
7.03019e-06
5.4409e-08
7.03418e-06
5.51212e-08
7.03788e-06
5.55084e-08
7.0413e-06
5.57325e-08
7.04446e-06
5.58973e-08
7.04741e-06
5.6071e-08
7.0502e-06
5.62901e-08
7.05287e-06
5.65612e-08
7.05547e-06
5.68682e-08
7.05805e-06
5.71651e-08
5.74472e-08
7.06062e-06
8.53213e-06
7.25245e-09
8.53555e-06
2.02179e-08
8.54027e-06
3.02018e-08
8.54553e-06
3.72488e-08
8.55098e-06
4.20997e-08
8.55645e-06
4.5472e-08
8.56179e-06
4.77799e-08
8.56689e-06
4.93022e-08
8.57172e-06
5.02967e-08
8.57625e-06
5.0975e-08
8.5805e-06
5.148e-08
8.5845e-06
5.19017e-08
8.58827e-06
5.22962e-08
8.59187e-06
5.26927e-08
8.59534e-06
5.30965e-08
8.59871e-06
5.34963e-08
8.60202e-06
5.38573e-08
5.4193e-08
8.60527e-06
1.04005e-05
5.9451e-09
1.04041e-05
1.66737e-08
1.04091e-05
2.51633e-08
1.04149e-05
3.14233e-08
1.04211e-05
3.59159e-08
1.04274e-05
3.91623e-08
1.04337e-05
4.1514e-08
1.04398e-05
4.32075e-08
1.04456e-05
4.44443e-08
1.04512e-05
4.53908e-08
1.04565e-05
4.61642e-08
1.04616e-05
4.68381e-08
1.04664e-05
4.74569e-08
1.04711e-05
4.80433e-08
1.04756e-05
4.86018e-08
1.048e-05
4.91265e-08
1.04842e-05
4.95924e-08
5.00273e-08
1.04884e-05
1.26781e-05
4.59813e-09
1.26818e-05
1.29681e-08
1.26873e-05
1.97483e-08
1.26937e-05
2.49589e-08
1.27008e-05
2.88755e-08
1.27081e-05
3.18408e-08
1.27155e-05
3.41173e-08
1.27228e-05
3.58877e-08
1.27299e-05
3.7298e-08
1.27369e-05
3.8467e-08
1.27436e-05
3.94801e-08
1.275e-05
4.03917e-08
1.27562e-05
4.12332e-08
1.27622e-05
4.20205e-08
1.27681e-05
4.27568e-08
1.27738e-05
4.34398e-08
1.27793e-05
4.40513e-08
4.46286e-08
1.27847e-05
1.54546e-05
3.17092e-09
1.54586e-05
8.98113e-09
1.54645e-05
1.37955e-08
1.54718e-05
1.76642e-08
1.548e-05
2.07425e-08
1.54886e-05
2.32231e-08
1.54974e-05
2.52656e-08
1.55063e-05
2.69862e-08
1.55152e-05
2.84737e-08
1.55238e-05
2.97974e-08
1.55323e-05
3.10065e-08
1.55406e-05
3.21315e-08
1.55486e-05
3.31887e-08
1.55565e-05
3.41847e-08
1.55641e-05
3.5119e-08
1.55715e-05
3.59894e-08
1.55788e-05
3.67806e-08
3.75332e-08
1.55859e-05
1.88392e-05
1.57596e-09
1.88438e-05
4.4593e-09
1.88506e-05
6.9454e-09
1.88592e-05
9.11836e-09
1.88688e-05
1.10489e-08
1.88793e-05
1.27977e-08
1.88901e-05
1.44133e-08
1.89012e-05
1.59328e-08
1.89123e-05
1.73831e-08
1.89233e-05
1.87811e-08
1.89342e-05
2.01354e-08
1.89448e-05
2.14474e-08
1.89553e-05
2.27142e-08
1.89656e-05
2.39295e-08
1.89756e-05
2.50854e-08
1.89854e-05
2.61757e-08
1.8995e-05
2.71845e-08
2.81493e-08
1.90044e-05
2.29653e-05
-3.84354e-10
2.29709e-05
-1.12038e-09
2.29794e-05
-1.5469e-09
2.299e-05
-1.53986e-09
2.30022e-05
-1.12124e-09
2.30154e-05
-3.82408e-10
2.30292e-05
5.97325e-10
2.30434e-05
1.76599e-09
2.30577e-05
3.07754e-09
2.3072e-05
4.48551e-09
2.30861e-05
5.94855e-09
2.31002e-05
7.4335e-09
2.3114e-05
8.9134e-09
2.31275e-05
1.03654e-08
2.31408e-05
1.17699e-08
2.31539e-05
1.31128e-08
2.31667e-05
1.4374e-08
1.55837e-08
2.31793e-05
1.68123e-05
-2.01087e-09
1.68169e-05
-5.68911e-09
1.68238e-05
-8.43753e-09
1.68323e-05
-1.009e-08
1.6842e-05
-1.07919e-08
1.68524e-05
-1.0804e-08
1.68633e-05
-1.03056e-08
1.68745e-05
-9.4004e-09
1.68858e-05
-8.18391e-09
1.6897e-05
-6.75341e-09
1.69081e-05
-5.19011e-09
1.69191e-05
-3.55446e-09
1.69299e-05
-1.89254e-09
1.69405e-05
-2.4095e-10
1.69509e-05
1.37119e-09
1.69611e-05
2.92763e-09
1.69711e-05
4.40484e-09
5.82572e-09
1.69809e-05
1.46362e-05
-3.65459e-09
1.46408e-05
-1.02835e-08
1.46476e-05
-1.52686e-08
1.46559e-05
-1.83953e-08
1.46652e-05
-2.00305e-08
1.4675e-05
-2.0657e-08
1.46853e-05
-2.0538e-08
1.46957e-05
-1.98184e-08
1.47061e-05
-1.86478e-08
1.47166e-05
-1.71707e-08
1.47269e-05
-1.54972e-08
1.4737e-05
-1.37066e-08
1.4747e-05
-1.18617e-08
1.47568e-05
-1.0012e-08
1.47663e-05
-8.19572e-09
1.47757e-05
-6.4394e-09
1.47849e-05
-4.77054e-09
-3.17511e-09
1.47939e-05
1.27418e-05
-5.36883e-09
1.27466e-05
-1.50716e-08
1.27536e-05
-2.21943e-08
1.27617e-05
-2.65176e-08
1.27705e-05
-2.88958e-08
1.27799e-05
-3.00396e-08
1.27896e-05
-3.01964e-08
1.27993e-05
-2.95426e-08
1.2809e-05
-2.83163e-08
1.28185e-05
-2.67229e-08
1.28279e-05
-2.48947e-08
1.28371e-05
-2.29229e-08
1.28462e-05
-2.08811e-08
1.2855e-05
-1.88279e-08
1.28636e-05
-1.68062e-08
1.2872e-05
-1.48432e-08
1.28802e-05
-1.29579e-08
-1.11338e-08
1.28881e-05
1.10927e-05
-7.15698e-09
1.10979e-05
-2.02174e-08
1.1105e-05
-2.93617e-08
1.11129e-05
-3.443e-08
1.11213e-05
-3.72979e-08
1.11302e-05
-3.88862e-08
1.11393e-05
-3.92769e-08
1.11484e-05
-3.86428e-08
1.11574e-05
-3.73174e-08
1.11662e-05
-3.55631e-08
1.11749e-05
-3.35347e-08
1.11833e-05
-3.13408e-08
1.11915e-05
-2.90709e-08
1.11994e-05
-2.67935e-08
1.12072e-05
-2.45576e-08
1.12147e-05
-2.23964e-08
1.12221e-05
-2.03445e-08
-1.84099e-08
1.12294e-05
9.65707e-06
-9.01503e-09
9.66264e-06
-2.57832e-08
9.67008e-06
-3.67995e-08
9.67788e-06
-4.22369e-08
9.68593e-06
-4.53447e-08
9.69418e-06
-4.71404e-08
9.70248e-06
-4.75695e-08
9.71069e-06
-4.68609e-08
9.7188e-06
-4.54213e-08
9.72675e-06
-4.3518e-08
9.73452e-06
-4.13025e-08
9.74208e-06
-3.88971e-08
9.74942e-06
-3.64083e-08
9.75654e-06
-3.39153e-08
9.76345e-06
-3.14713e-08
9.77016e-06
-2.91079e-08
9.77665e-06
-2.68344e-08
-2.46111e-08
9.78285e-06
8.40745e-06
-1.11117e-08
8.41366e-06
-3.1991e-08
8.42074e-06
-4.38777e-08
8.42817e-06
-4.96716e-08
8.43611e-06
-5.32869e-08
8.44421e-06
-5.52361e-08
8.45211e-06
-5.54728e-08
8.45974e-06
-5.44856e-08
8.46711e-06
-5.27984e-08
8.47426e-06
-5.06659e-08
8.48118e-06
-4.82217e-08
8.48787e-06
-4.55904e-08
8.49435e-06
-4.28845e-08
8.50062e-06
-4.01866e-08
8.5067e-06
-3.75537e-08
8.51262e-06
-3.50217e-08
8.51842e-06
-3.26385e-08
-3.04374e-08
8.52425e-06
7.31935e-06
-1.31776e-08
7.32769e-06
-4.03333e-08
7.33386e-06
-5.00478e-08
7.33985e-06
-5.56614e-08
7.34669e-06
-6.01271e-08
7.35403e-06
-6.25703e-08
7.36139e-06
-6.28408e-08
7.36864e-06
-6.17269e-08
7.3757e-06
-5.98617e-08
7.38254e-06
-5.75085e-08
7.38914e-06
-5.48232e-08
7.39551e-06
-5.19535e-08
7.40164e-06
-4.90208e-08
7.40757e-06
-4.61113e-08
7.4133e-06
-4.32853e-08
7.41886e-06
-4.05791e-08
7.42422e-06
-3.79971e-08
-3.54125e-08
7.42919e-06
6.36945e-06
-1.2561e-08
6.38163e-06
-5.25148e-08
6.38957e-06
-5.79889e-08
6.39659e-06
-6.26791e-08
6.4036e-06
-6.71406e-08
6.41068e-06
-6.96483e-08
6.4177e-06
-6.98579e-08
6.42476e-06
-6.87867e-08
6.43185e-06
-6.69583e-08
6.4389e-06
-6.45505e-08
6.44581e-06
-6.17369e-08
6.45256e-06
-5.86981e-08
6.45911e-06
-5.55721e-08
6.46545e-06
-5.24561e-08
6.47159e-06
-4.94219e-08
6.47754e-06
-4.65287e-08
6.48336e-06
-4.38238e-08
-4.13558e-08
6.48931e-06
5.54226e-06
-9.35556e-09
5.55332e-06
-6.35719e-08
5.56507e-06
-6.97393e-08
5.57948e-06
-7.70935e-08
5.59437e-06
-8.20258e-08
5.60905e-06
-8.43312e-08
5.62285e-06
-8.366e-08
5.63578e-06
-8.17186e-08
5.64786e-06
-7.90401e-08
5.65906e-06
-7.57471e-08
5.66935e-06
-7.20294e-08
5.67875e-06
-6.80962e-08
5.68729e-06
-6.41057e-08
5.695e-06
-6.01729e-08
5.70196e-06
-5.63797e-08
5.70827e-06
-5.28345e-08
5.71398e-06
-4.95407e-08
-4.67435e-08
5.71937e-06
4.87774e-06
-5.9492e-08
4.90776e-06
-9.35875e-08
4.93515e-06
-9.71278e-08
4.95846e-06
-1.00407e-07
4.97723e-06
-1.00793e-07
4.99069e-06
-9.77885e-08
4.99896e-06
-9.19318e-08
5.00241e-06
-8.51692e-08
5.00169e-06
-7.83212e-08
4.99756e-06
-7.16197e-08
4.99075e-06
-6.52168e-08
4.98188e-06
-5.9226e-08
4.97148e-06
-5.3703e-08
4.95997e-06
-4.86671e-08
4.94771e-06
-4.41193e-08
4.93497e-06
-4.00934e-08
4.92202e-06
-3.6592e-08
-3.40865e-08
4.90936e-06
4.14318e-06
4.0496e-06
3.95247e-06
3.85206e-06
3.75127e-06
3.65348e-06
3.56155e-06
3.47638e-06
3.39806e-06
3.32644e-06
3.26122e-06
3.202e-06
3.14829e-06
3.09963e-06
3.05551e-06
3.01541e-06
2.97882e-06
2.94473e-06
-9.83531e-08
9.83531e-08
-1.88199e-07
8.98462e-08
-2.32399e-07
4.41995e-08
-2.10909e-07
-2.14902e-08
-1.25927e-07
-8.49812e-08
1.49513e-08
-1.40879e-07
1.94958e-07
-1.80007e-07
3.97759e-07
-2.02801e-07
6.0774e-07
-2.09981e-07
8.12893e-07
-2.05154e-07
1.00486e-06
-1.91969e-07
1.17824e-06
-1.73378e-07
1.32983e-06
-1.51592e-07
1.45803e-06
-1.28195e-07
1.56229e-06
-1.04265e-07
1.64278e-06
-8.0492e-08
1.7001e-06
-5.73124e-08
1.73509e-06
-3.49965e-08
1.74864e-06
-1.355e-08
1.74101e-06
7.63762e-09
1.71521e-06
2.57917e-08
1.67654e-06
3.86776e-08
1.6313e-06
4.52376e-08
1.58641e-06
4.48842e-08
1.54886e-06
3.75574e-08
1.52496e-06
2.38941e-08
1.51895e-06
6.01661e-09
1.53504e-06
-1.60894e-08
1.57471e-06
-3.96719e-08
1.63881e-06
-6.40977e-08
1.7253e-06
-8.64988e-08
1.8281e-06
-1.02796e-07
1.93646e-06
-1.08364e-07
2.03569e-06
-9.92308e-08
2.10925e-06
-7.35544e-08
2.14064e-06
-3.13913e-08
2.11397e-06
2.66664e-08
2.02433e-06
8.9643e-08
1.88925e-06
1.35078e-07
1.74023e-06
1.49022e-07
1.60562e-06
1.3461e-07
1.49081e-06
1.14807e-07
1.36662e-06
1.24197e-07
1.18265e-06
1.83966e-07
8.91011e-07
2.91641e-07
4.57641e-07
4.3337e-07
-1.24208e-07
5.81849e-07
-8.29929e-07
7.05721e-07
-1.6217e-06
7.91768e-07
-2.46109e-06
8.39395e-07
-3.31315e-06
8.52062e-07
-4.14814e-06
8.34982e-07
-4.94242e-06
7.94285e-07
-5.67854e-06
7.36117e-07
-6.34466e-06
6.66124e-07
-6.93363e-06
5.88972e-07
-7.44188e-06
5.08241e-07
-7.86838e-06
4.26503e-07
-8.21389e-06
3.45507e-07
-8.48026e-06
2.66377e-07
-8.67002e-06
1.89753e-07
-8.78642e-06
1.16408e-07
-8.83458e-06
4.81599e-08
-8.82355e-06
-1.10301e-08
-8.76299e-06
-6.0568e-08
-8.65953e-06
-1.03457e-07
-8.51742e-06
-1.42114e-07
-8.33965e-06
-1.77764e-07
-8.12875e-06
-2.10903e-07
-7.88695e-06
-2.41798e-07
-7.61632e-06
-2.70631e-07
-7.31875e-06
-2.97565e-07
-6.996e-06
-3.22753e-07
-6.64969e-06
-3.46312e-07
-6.28139e-06
-3.68302e-07
-5.8927e-06
-3.88686e-07
-5.48539e-06
-4.07309e-07
-5.0615e-06
-4.23889e-07
-4.62347e-06
-4.38031e-07
-4.1742e-06
-4.49274e-07
-3.71704e-06
-4.57154e-07
-3.25575e-06
-4.61292e-07
-2.79429e-06
-4.6146e-07
-2.33666e-06
-4.57635e-07
-1.88664e-06
-4.50022e-07
-1.44761e-06
-4.39029e-07
-1.02246e-06
-4.25146e-07
-6.13647e-07
-4.08813e-07
-2.22602e-07
-3.91046e-07
1.51408e-07
-3.7401e-07
5.09229e-07
-3.57821e-07
8.5076e-07
-3.4153e-07
1.17661e-06
-3.25853e-07
1.48776e-06
-3.11152e-07
1.78528e-06
-2.97517e-07
2.07009e-06
-2.84807e-07
2.34274e-06
-2.7265e-07
2.60318e-06
-2.60438e-07
2.85048e-06
-2.47301e-07
3.08262e-06
-2.32143e-07
3.29636e-06
-2.13738e-07
3.48699e-06
-1.90628e-07
3.64704e-06
-1.60052e-07
3.76328e-06
-1.1624e-07
3.81852e-06
-5.5244e-08
3.80262e-06
1.59031e-08
3.72604e-06
7.65756e-08
3.60709e-06
1.18957e-07
3.46419e-06
1.42893e-07
3.31561e-06
1.48586e-07
3.17711e-06
1.38498e-07
3.05961e-06
1.175e-07
2.96708e-06
9.25281e-08
2.89526e-06
7.18239e-08
2.83166e-06
6.36026e-08
2.75744e-06
7.42209e-08
2.65037e-06
1.07061e-07
2.48715e-06
1.63225e-07
2.24427e-06
2.42876e-07
1.90035e-06
3.43926e-07
1.44259e-06
4.57757e-07
8.74255e-07
5.68335e-07
2.20501e-07
6.53753e-07
-4.77197e-07
6.97698e-07
-1.17552e-06
6.98325e-07
-1.84314e-06
6.6762e-07
-2.46049e-06
6.17347e-07
-3.01579e-06
5.55303e-07
-3.50228e-06
4.86493e-07
-3.9162e-06
4.13914e-07
-4.25551e-06
3.39309e-07
-4.51919e-06
2.63677e-07
-4.70696e-06
1.87775e-07
-4.81988e-06
1.12919e-07
-4.85996e-06
4.00835e-08
-4.83741e-06
-2.25583e-08
-4.75925e-06
-7.81536e-08
-4.62935e-06
-1.29902e-07
-4.45032e-06
-1.79027e-07
-4.22464e-06
-2.25679e-07
-3.95494e-06
-2.697e-07
-3.64411e-06
-3.10835e-07
-3.29535e-06
-3.48755e-07
-2.9123e-06
-3.83051e-07
-2.49907e-06
-4.13233e-07
-2.06032e-06
-4.38746e-07
-1.60134e-06
-4.58984e-07
-1.12807e-06
-4.73274e-07
-6.47217e-07
-4.80849e-07
-1.65702e-07
-4.81516e-07
3.08916e-07
-4.74618e-07
7.67834e-07
-4.58917e-07
1.20286e-06
-4.35024e-07
1.60652e-06
-4.03663e-07
1.97202e-06
-3.65503e-07
2.29344e-06
-3.21414e-07
2.56589e-06
-2.72448e-07
2.78584e-06
-2.19952e-07
2.95136e-06
-1.65521e-07
3.06035e-06
-1.08989e-07
3.10762e-06
-4.72669e-08
3.09296e-06
1.46591e-08
3.03051e-06
6.24465e-08
2.93706e-06
9.34508e-08
2.82522e-06
1.11836e-07
2.70402e-06
1.21206e-07
2.57985e-06
1.24167e-07
2.45698e-06
1.22875e-07
2.33771e-06
1.19268e-07
2.22277e-06
1.14937e-07
2.11215e-06
1.10626e-07
2.00622e-06
1.05929e-07
1.90638e-06
9.98365e-08
1.81456e-06
9.18177e-08
1.73197e-06
8.25948e-08
1.65792e-06
7.405e-08
1.5886e-06
6.93137e-08
1.51829e-06
7.0316e-08
1.43133e-06
8.69547e-08
1.09145e-07
1.32219e-06
-2.03687e-08
1.18722e-07
-1.35321e-08
8.30095e-08
4.09558e-08
-1.02884e-08
1.49178e-07
-1.29712e-07
3.02469e-07
-2.38273e-07
4.83266e-07
-3.21675e-07
6.76295e-07
-3.73037e-07
8.67926e-07
-3.94431e-07
1.04991e-06
-3.91964e-07
1.21718e-06
-3.72424e-07
1.36694e-06
-3.41731e-07
1.49794e-06
-3.04376e-07
1.60986e-06
-2.63508e-07
1.70292e-06
-2.21262e-07
1.77775e-06
-1.79088e-07
1.83526e-06
-1.38004e-07
1.87675e-06
-9.8809e-08
1.90399e-06
-6.22346e-08
1.91943e-06
-2.89909e-08
1.92647e-06
6.05107e-10
1.9262e-06
2.60552e-08
1.91858e-06
4.6298e-08
1.90405e-06
5.97734e-08
1.88395e-06
6.49829e-08
1.8608e-06
6.07084e-08
1.83848e-06
4.62106e-08
1.82299e-06
2.15028e-08
1.81931e-06
-1.24071e-08
1.83264e-06
-5.29996e-08
1.86435e-06
-9.58064e-08
1.91107e-06
-1.33223e-07
1.96397e-06
-1.55697e-07
2.01027e-06
-1.54657e-07
2.03617e-06
-1.25134e-07
2.03051e-06
-6.78914e-08
1.98681e-06
1.23105e-08
1.90279e-06
1.1068e-07
1.77422e-06
2.18219e-07
1.59067e-06
3.18621e-07
1.33728e-06
4.02413e-07
9.80371e-07
4.9152e-07
4.78808e-07
6.16371e-07
-1.93236e-07
7.96241e-07
-1.01878e-06
1.00951e-06
-1.94302e-06
1.21587e-06
-2.90253e-06
1.39288e-06
-3.84479e-06
1.52411e-06
-4.73692e-06
1.59786e-06
-5.55685e-06
1.6117e-06
-6.28854e-06
1.57109e-06
-6.9228e-06
1.48632e-06
-7.45747e-06
1.36966e-06
-7.89635e-06
1.23317e-06
-8.24743e-06
1.0872e-06
-8.52102e-06
9.39708e-07
-8.72815e-06
7.96102e-07
-8.87947e-06
6.59567e-07
-8.98454e-06
5.31572e-07
-9.05143e-06
4.12399e-07
-9.08672e-06
3.01659e-07
-9.09568e-06
1.98721e-07
-9.0822e-06
1.02925e-07
-9.04823e-06
1.41931e-08
-8.98811e-06
-7.11505e-08
-8.89638e-06
-1.52303e-07
-8.76989e-06
-2.29948e-07
-8.60868e-06
-3.03319e-07
-8.41417e-06
-3.72276e-07
-8.18819e-06
-4.36883e-07
-7.93269e-06
-4.97297e-07
-7.64958e-06
-5.53746e-07
-7.34064e-06
-6.06505e-07
-7.00752e-06
-6.55867e-07
-6.65176e-06
-7.0208e-07
-6.27479e-06
-7.45272e-07
-5.87809e-06
-7.85383e-07
-5.4633e-06
-8.22096e-07
-5.03237e-06
-8.54822e-07
-4.58767e-06
-8.82726e-07
-4.13213e-06
-9.04823e-07
-3.66915e-06
-9.20127e-07
-3.20262e-06
-9.27823e-07
-2.73664e-06
-9.27439e-07
-2.27532e-06
-9.18953e-07
-1.82251e-06
-9.0284e-07
-1.38151e-06
-8.80022e-07
-9.54935e-07
-8.51725e-07
-5.44379e-07
-8.19368e-07
-1.50694e-07
-7.84731e-07
2.24976e-07
-7.4968e-07
5.82046e-07
-7.14891e-07
9.21649e-07
-6.81134e-07
1.245e-06
-6.49207e-07
1.55346e-06
-6.19608e-07
1.84841e-06
-5.92466e-07
2.13114e-06
-5.6754e-07
2.4027e-06
-5.44208e-07
2.66371e-06
-5.21445e-07
2.91421e-06
-4.97803e-07
3.15349e-06
-4.71428e-07
3.37988e-06
-4.40123e-07
3.59067e-06
-4.01424e-07
3.78337e-06
-3.52744e-07
3.95922e-06
-2.92089e-07
4.1233e-06
-2.19329e-07
4.27378e-06
-1.34579e-07
4.39225e-06
-4.18879e-08
4.46379e-06
4.74171e-08
4.48135e-06
1.25328e-07
4.44643e-06
1.83511e-07
4.3662e-06
2.1872e-07
4.25148e-06
2.32225e-07
4.11287e-06
2.31137e-07
3.95504e-06
2.29654e-07
3.77009e-06
2.48554e-07
3.53387e-06
3.1044e-07
3.20938e-06
4.31545e-07
2.75859e-06
6.14017e-07
2.15872e-06
8.42752e-07
1.41689e-06
1.08575e-06
5.77701e-07
1.29695e-06
-2.81298e-07
1.42733e-06
-1.08897e-06
1.46142e-06
-1.80955e-06
1.41828e-06
-2.4339e-06
1.32267e-06
-2.96379e-06
1.19751e-06
-3.40587e-06
1.05943e-06
-3.76885e-06
9.18286e-07
-4.06144e-06
7.79082e-07
-4.29142e-06
6.4389e-07
-4.4654e-06
5.13293e-07
-4.58904e-06
3.87314e-07
-4.66719e-06
2.65925e-07
-4.70344e-06
1.49165e-07
-4.70029e-06
3.69356e-08
-4.65192e-06
-7.09286e-08
-4.55421e-06
-1.75858e-07
-4.40725e-06
-2.76866e-07
-4.21281e-06
-3.73468e-07
-3.97318e-06
-4.65308e-07
-3.69093e-06
-5.51953e-07
-3.36889e-06
-6.32872e-07
-3.01023e-06
-7.07415e-07
-2.6185e-06
-7.74783e-07
-2.19771e-06
-8.34022e-07
-1.7524e-06
-8.8405e-07
-1.28767e-06
-9.23716e-07
-8.09103e-07
-9.51842e-07
-3.22458e-07
-9.67494e-07
1.65214e-07
-9.69188e-07
6.45508e-07
-9.54912e-07
1.11079e-06
-9.24198e-07
1.55364e-06
-8.77872e-07
1.967e-06
-8.17026e-07
2.34447e-06
-7.42973e-07
2.68043e-06
-6.57375e-07
2.97025e-06
-5.62268e-07
3.21039e-06
-4.60091e-07
3.3984e-06
-3.53533e-07
3.53443e-06
-2.45018e-07
3.62463e-06
-1.37472e-07
3.67419e-06
-3.48927e-08
3.68065e-06
5.59802e-08
3.64347e-06
1.3063e-07
3.56786e-06
1.87446e-07
3.46191e-06
2.27154e-07
3.3346e-06
2.5148e-07
3.19469e-06
2.62782e-07
3.05016e-06
2.63802e-07
2.90772e-06
2.5738e-07
2.77244e-06
2.45902e-07
2.64766e-06
2.30709e-07
2.53536e-06
2.12134e-07
2.43687e-06
1.90316e-07
2.35319e-06
1.6627e-07
2.28505e-06
1.42192e-07
2.23205e-06
1.22311e-07
2.19263e-06
1.09743e-07
2.16163e-06
1.17954e-07
1.43427e-07
2.12734e-06
2.30447e-08
9.56772e-08
1.00266e-07
5.78839e-09
2.45813e-07
-1.55835e-07
4.34899e-07
-3.18799e-07
6.41258e-07
-4.44632e-07
8.41179e-07
-5.21596e-07
1.0222e-06
-5.54059e-07
1.18029e-06
-5.52518e-07
1.31606e-06
-5.27738e-07
1.43193e-06
-4.88288e-07
1.53039e-06
-4.40192e-07
1.61342e-06
-3.8741e-07
1.68239e-06
-3.32478e-07
1.73817e-06
-2.77046e-07
1.78135e-06
-2.22267e-07
1.81239e-06
-1.6904e-07
1.83177e-06
-1.18187e-07
1.8401e-06
-7.05692e-08
1.83832e-06
-2.72113e-08
1.82792e-06
1.10092e-08
1.81091e-06
4.30671e-08
1.78929e-06
6.7917e-08
1.76481e-06
8.42489e-08
1.73927e-06
9.05243e-08
1.71489e-06
8.50837e-08
1.69471e-06
6.6393e-08
1.68253e-06
3.36821e-08
1.6818e-06
-1.16789e-08
1.69351e-06
-6.4705e-08
1.71309e-06
-1.15383e-07
1.72996e-06
-1.50097e-07
1.72968e-06
-1.55421e-07
1.69762e-06
-1.22588e-07
1.62147e-06
-4.89864e-08
1.49035e-06
6.32254e-08
1.2963e-06
2.06364e-07
1.03136e-06
3.75616e-07
6.83098e-07
5.66484e-07
2.29553e-07
7.72165e-07
-3.59576e-07
9.91542e-07
-1.09601e-06
1.22795e-06
-1.95356e-06
1.47392e-06
-2.86763e-06
1.71031e-06
-3.76997e-06
1.91185e-06
-4.61223e-06
2.05814e-06
-5.36018e-06
2.14083e-06
-5.99545e-06
2.15937e-06
-6.51643e-06
2.11884e-06
-6.93366e-06
2.02892e-06
-7.26476e-06
1.90218e-06
-7.53014e-06
1.7517e-06
-7.74947e-06
1.58899e-06
-7.93899e-06
1.42269e-06
-8.11014e-06
1.25835e-06
-8.26923e-06
1.09879e-06
-8.41806e-06
9.44937e-07
-8.55509e-06
7.96593e-07
-8.6766e-06
6.53084e-07
-8.77787e-06
5.13675e-07
-8.85403e-06
3.77815e-07
-8.90056e-06
2.45255e-07
-8.91369e-06
1.16054e-07
-8.88998e-06
-9.51976e-09
-8.82957e-06
-1.31566e-07
-8.7327e-06
-2.4917e-07
-8.60101e-06
-3.61638e-07
-8.43589e-06
-4.68438e-07
-8.23894e-06
-5.69223e-07
-8.01195e-06
-6.63878e-07
-7.75674e-06
-7.525e-07
-7.47512e-06
-8.35368e-07
-7.16872e-06
-9.12903e-07
-6.839e-06
-9.85586e-07
-6.48723e-06
-1.05385e-06
-6.11454e-06
-1.11796e-06
-5.72206e-06
-1.17786e-06
-5.31109e-06
-1.23307e-06
-4.88329e-06
-1.28263e-06
-4.44087e-06
-1.32515e-06
-3.98674e-06
-1.35895e-06
-3.52453e-06
-1.38234e-06
-3.05845e-06
-1.3939e-06
-2.59308e-06
-1.39281e-06
-2.13302e-06
-1.37901e-06
-1.68256e-06
-1.3533e-06
-1.24536e-06
-1.31722e-06
-8.24191e-07
-1.27289e-06
-4.20808e-07
-1.22275e-06
-3.62687e-08
-1.16927e-06
3.28529e-07
-1.11448e-06
6.7376e-07
-1.06012e-06
1.00045e-06
-1.00782e-06
1.30996e-06
-9.5872e-07
1.60388e-06
-9.13523e-07
1.88385e-06
-8.72439e-07
2.15149e-06
-8.35183e-07
2.40824e-06
-8.00956e-07
2.65522e-06
-7.68421e-07
2.8931e-06
-7.35687e-07
3.12198e-06
-7.00308e-07
3.34121e-06
-6.59351e-07
3.54935e-06
-6.09562e-07
3.74438e-06
-5.47782e-07
3.92412e-06
-4.71823e-07
4.08594e-06
-3.81148e-07
4.22798e-06
-2.76621e-07
4.34776e-06
-1.6167e-07
4.43818e-06
-4.2998e-08
4.49211e-06
7.13972e-08
4.50315e-06
1.72466e-07
4.4675e-06
2.54375e-07
4.38253e-06
3.17189e-07
4.24372e-06
3.69954e-07
4.04048e-06
4.32885e-07
3.75368e-06
5.35356e-07
3.35758e-06
7.0654e-07
2.82903e-06
9.60101e-07
2.16317e-06
1.27988e-06
1.38772e-06
1.6182e-06
5.65261e-07
1.90821e-06
-2.21411e-07
2.08362e-06
-9.14826e-07
2.12075e-06
-1.50512e-06
2.05172e-06
-2.00464e-06
1.91779e-06
-2.43276e-06
1.7508e-06
-2.80655e-06
1.5713e-06
-3.13734e-06
1.39022e-06
-3.4309e-06
1.21185e-06
-3.68878e-06
1.03696e-06
-3.90984e-06
8.64949e-07
-4.09156e-06
6.9502e-07
-4.23097e-06
5.26723e-07
-4.32514e-06
3.60092e-07
-4.37149e-06
1.95513e-07
-4.36834e-06
3.37857e-08
-4.31473e-06
-1.24542e-07
-4.2118e-06
-2.78782e-07
-4.061e-06
-4.27672e-07
-3.86413e-06
-5.70329e-07
-3.62342e-06
-7.06022e-07
-3.34134e-06
-8.34032e-07
-3.02066e-06
-9.53551e-07
-2.66447e-06
-1.06361e-06
-2.27621e-06
-1.16304e-06
-1.85982e-06
-1.25041e-06
-1.41972e-06
-1.32415e-06
-9.60875e-07
-1.38257e-06
-4.88645e-07
-1.42407e-06
-9.19677e-09
-1.44694e-06
4.69945e-07
-1.44833e-06
9.41243e-07
-1.42621e-06
1.39757e-06
-1.38052e-06
1.83192e-06
-1.31223e-06
2.23769e-06
-1.22279e-06
2.60888e-06
-1.11416e-06
2.94027e-06
-9.88769e-07
3.22761e-06
-8.49606e-07
3.46768e-06
-7.00159e-07
3.65845e-06
-5.44301e-07
3.79966e-06
-3.86233e-07
3.89324e-06
-2.3105e-07
3.94256e-06
-8.42093e-08
3.9497e-06
4.88387e-08
3.91686e-06
1.63469e-07
3.84771e-06
2.566e-07
3.7479e-06
3.26964e-07
3.62451e-06
3.7486e-07
3.48539e-06
4.01908e-07
3.33844e-06
4.10751e-07
3.19112e-06
4.04696e-07
3.04987e-06
3.87156e-07
2.9196e-06
3.60982e-07
2.80355e-06
3.28177e-07
2.7036e-06
2.90272e-07
2.62067e-06
2.49194e-07
2.55513e-06
2.07731e-07
2.50691e-06
1.70531e-07
2.47482e-06
1.41834e-07
2.45942e-06
1.33352e-07
1.48037e-07
2.45481e-06
5.00585e-08
4.56187e-08
2.09862e-07
-1.54015e-07
4.38117e-07
-3.84091e-07
6.76271e-07
-5.56953e-07
8.86946e-07
-6.55307e-07
1.05753e-06
-6.92178e-07
1.19052e-06
-6.87054e-07
1.29411e-06
-6.56107e-07
1.37652e-06
-6.10145e-07
1.44385e-06
-5.55618e-07
1.49986e-06
-4.96207e-07
1.54652e-06
-4.34068e-07
1.58462e-06
-3.70576e-07
1.61432e-06
-3.06742e-07
1.63548e-06
-2.43426e-07
1.6479e-06
-1.81463e-07
1.65145e-06
-1.21738e-07
1.64612e-06
-6.52404e-08
1.63209e-06
-1.31775e-08
1.60981e-06
3.3285e-08
1.5805e-06
7.23752e-08
1.54601e-06
1.02406e-07
1.50879e-06
1.21477e-07
1.47176e-06
1.27553e-07
1.43827e-06
1.18572e-07
1.41171e-06
9.29505e-08
1.39437e-06
5.10286e-08
1.38504e-06
-2.35774e-09
1.37644e-06
-5.60987e-08
1.35508e-06
-9.40243e-08
1.30395e-06
-9.89672e-08
1.2061e-06
-5.75684e-08
1.04705e-06
3.64625e-08
8.14232e-07
1.83828e-07
4.96994e-07
3.80463e-07
8.62375e-08
6.1712e-07
-4.22141e-07
8.83994e-07
-1.02635e-06
1.17069e-06
-1.71919e-06
1.465e-06
-2.48091e-06
1.75327e-06
-3.27195e-06
2.01899e-06
-4.04117e-06
2.24313e-06
-4.74071e-06
2.40986e-06
-5.33983e-06
2.51097e-06
-5.82839e-06
2.5467e-06
-6.21149e-06
2.52393e-06
-6.50533e-06
2.45321e-06
-6.73299e-06
2.34651e-06
-6.91952e-06
2.21546e-06
-7.08722e-06
2.06988e-06
-7.25231e-06
1.91679e-06
-7.42363e-06
1.76031e-06
-7.60317e-06
1.60223e-06
-7.78769e-06
1.44287e-06
-7.9708e-06
1.2819e-06
-8.14484e-06
1.11897e-06
-8.30223e-06
9.53986e-07
-8.43637e-06
7.87223e-07
-8.54203e-06
6.19334e-07
-8.61546e-06
4.51251e-07
-8.6543e-06
2.84089e-07
-8.6573e-06
1.19055e-07
-8.62408e-06
-4.27338e-08
-8.5554e-06
-2.00248e-07
-8.45231e-06
-3.52265e-07
-8.31618e-06
-4.97767e-07
-8.14865e-06
-6.35967e-07
-7.95152e-06
-7.66357e-07
-7.72665e-06
-8.88747e-07
-7.47587e-06
-1.00327e-06
-7.20086e-06
-1.11038e-06
-6.903e-06
-1.21076e-06
-6.58337e-06
-1.30522e-06
-6.2427e-06
-1.39452e-06
-5.88149e-06
-1.47918e-06
-5.50012e-06
-1.55923e-06
-5.09916e-06
-1.63403e-06
-4.67963e-06
-1.70216e-06
-4.24333e-06
-1.76144e-06
-3.79307e-06
-1.8092e-06
-3.33273e-06
-1.84268e-06
-2.86711e-06
-1.85952e-06
-2.40159e-06
-1.85833e-06
-1.94166e-06
-1.83894e-06
-1.49244e-06
-1.80253e-06
-1.05821e-06
-1.75145e-06
-6.42201e-07
-1.6889e-06
-2.46506e-07
-1.61845e-06
1.27656e-07
-1.54343e-06
4.79918e-07
-1.46674e-06
8.10924e-07
-1.39113e-06
1.1219e-06
-1.31879e-06
1.41447e-06
-1.25129e-06
1.69051e-06
-1.18956e-06
1.95197e-06
-1.1339e-06
2.2008e-06
-1.08401e-06
2.43882e-06
-1.03897e-06
2.6676e-06
-9.97205e-07
2.88838e-06
-9.56461e-07
3.10187e-06
-9.13799e-07
3.30817e-06
-8.65657e-07
3.50665e-06
-8.08041e-07
3.69584e-06
-7.3697e-07
3.87323e-06
-6.49209e-07
4.03508e-06
-5.42998e-07
4.17697e-06
-4.18514e-07
4.29402e-06
-2.78722e-07
4.38067e-06
-1.29646e-07
4.43138e-06
2.06819e-08
4.44012e-06
1.63733e-07
4.39973e-06
2.9476e-07
4.29981e-06
4.17108e-07
4.12449e-06
5.45278e-07
3.85262e-06
7.04757e-07
3.46245e-06
9.25522e-07
2.94114e-06
1.22785e-06
2.29702e-06