/*--------------------------------*- C++ -*----------------------------------*\
| =========                 |                                                 |
| \\      /  F ield         | OpenFOAM: The Open Source CFD Toolbox           |
|  \\    /   O peration     | Version:  2112                                  |
|   \\  /    A nd           | Website:  www.openfoam.com                      |
|    \\/     M anipulation  |                                                 |
\*---------------------------------------------------------------------------*/
FoamFile
{
    version     2.0;
    format      ascii;
    arch        "LSB;label=32;scalar=64";
    class       volVectorField;
    location    "0.16";
    object      U_0;
}
// * * * * * * * * * * * * * * * * * * * * * * * * * * * * * * * * * * * * * //

dimensions      [0 1 -1 0 0 0 0];

internalField   nonuniform List<vector> 
12885
(
(9.89552 0.0370708 0)
(9.72325 0.0600898 0)
(9.53662 0.0773833 0)
(9.34477 0.0923252 0)
(9.14071 0.0959474 0)
(8.93894 0.0863746 0)
(8.7622 0.0691512 0)
(8.60764 0.0635291 0)
(8.44581 0.0906083 0)
(8.25172 0.134519 0)
(8.04579 0.152368 0)
(7.85942 0.136523 0)
(7.70469 0.106791 0)
(7.58407 0.0752509 0)
(7.49088 0.0540649 0)
(7.40705 0.0623922 0)
(7.3146 0.0997575 0)
(7.21559 0.128428 0)
(7.12419 0.127123 0)
(7.04818 0.108725 0)
(6.98715 0.0850345 0)
(6.93829 0.0603052 0)
(6.89986 0.0379597 0)
(6.86989 0.0270505 0)
(6.84289 0.033775 0)
(6.81381 0.0500605 0)
(6.78204 0.0637613 0)
(6.75067 0.0699594 0)
(6.7221 0.0689974 0)
(6.69755 0.063163 0)
(6.67611 0.0548276 0)
(6.65685 0.0460525 0)
(6.63811 0.0382495 0)
(6.61943 0.0330605 0)
(6.59714 0.0313822 0)
(6.57287 0.0347149 0)
(6.53078 0.0461981 0)
(6.48874 0.0571756 0)
(6.36084 0.154468 0)
(6.30172 0.170927 0)
(10.0112 0.0410813 0)
(10.0492 0.0681386 0)
(10.0746 0.0650315 0)
(10.0821 0.0568079 0)
(10.0784 0.0580226 0)
(10.0689 0.0632925 0)
(10.0497 0.0664788 0)
(10.0167 0.0698415 0)
(9.97717 0.0713082 0)
(9.93696 0.0659039 0)
(9.88823 0.0576833 0)
(9.82558 0.0521953 0)
(9.75246 0.0486788 0)
(9.6745 0.0475713 0)
(9.59093 0.0505867 0)
(9.50285 0.0507083 0)
(9.41305 0.0386515 0)
(9.31759 0.0202047 0)
(9.21235 0.00768296 0)
(9.09712 0.00489241 0)
(8.97847 0.00873499 0)
(8.86444 0.0148596 0)
(8.7573 0.0205293 0)
(8.65716 0.0234781 0)
(8.56373 0.021268 0)
(8.47864 0.0144749 0)
(8.40042 0.00598248 0)
(8.32693 -0.00149708 0)
(8.25561 -0.00600917 0)
(8.18683 -0.00652126 0)
(8.12027 -0.00342604 0)
(8.05723 0.00233921 0)
(7.99716 0.00942204 0)
(7.94111 0.0174203 0)
(7.88674 0.0263437 0)
(7.83593 0.0382488 0)
(7.78485 0.056155 0)
(7.7468 0.0868778 0)
(7.72145 0.141035 0)
(7.76999 0.25181 0)
(10.0082 0.0307187 0)
(10.0299 0.0537084 0)
(10.0498 0.0595444 0)
(10.0627 0.0646773 0)
(10.0708 0.0715851 0)
(10.0777 0.0765377 0)
(10.0813 0.0771358 0)
(10.0786 0.078329 0)
(10.0754 0.090356 0)
(10.0804 0.113015 0)
(10.0924 0.13144 0)
(10.1025 0.135944 0)
(10.1044 0.129905 0)
(10.0957 0.119579 0)
(10.0787 0.110864 0)
(10.061 0.113508 0)
(10.0493 0.133125 0)
(10.041 0.159115 0)
(10.0283 0.177242 0)
(10.0072 0.183226 0)
(9.97942 0.179123 0)
(9.94629 0.168152 0)
(9.90921 0.154028 0)
(9.86935 0.141357 0)
(9.83003 0.135118 0)
(9.79185 0.135963 0)
(9.75327 0.140781 0)
(9.71086 0.145778 0)
(9.66361 0.148977 0)
(9.6103 0.149443 0)
(9.55141 0.147569 0)
(9.48723 0.144313 0)
(9.41926 0.141267 0)
(9.34883 0.139625 0)
(9.27823 0.140537 0)
(9.20904 0.145434 0)
(9.14489 0.15551 0)
(9.0868 0.17259 0)
(9.04115 0.193404 0)
(9.00046 0.215067 0)
(10.0055 0.0250843 0)
(10.0222 0.0470679 0)
(10.0372 0.0558284 0)
(10.0479 0.0609649 0)
(10.0552 0.0660187 0)
(10.0617 0.0707166 0)
(10.0672 0.0743912 0)
(10.0701 0.0795506 0)
(10.0718 0.0884154 0)
(10.0774 0.0976601 0)
(10.0887 0.102298 0)
(10.1016 0.101711 0)
(10.111 0.0988197 0)
(10.115 0.0971149 0)
(10.1147 0.0993983 0)
(10.1116 0.105183 0)
(10.1087 0.110736 0)
(10.1092 0.113698 0)
(10.1142 0.11485 0)
(10.1219 0.115539 0)
(10.1298 0.115966 0)
(10.1356 0.115722 0)
(10.1383 0.115426 0)
(10.1372 0.116295 0)
(10.1325 0.118466 0)
(10.1252 0.12086 0)
(10.1168 0.123158 0)
(10.108 0.125868 0)
(10.0995 0.129714 0)
(10.0908 0.134929 0)
(10.0821 0.141565 0)
(10.0725 0.149244 0)
(10.0624 0.157946 0)
(10.0503 0.167493 0)
(10.0377 0.178088 0)
(10.0234 0.189746 0)
(10.0111 0.202482 0)
(9.99801 0.215515 0)
(9.99035 0.227456 0)
(9.98214 0.236546 0)
(10.0036 0.020454 0)
(10.0174 0.0418984 0)
(10.0295 0.0514241 0)
(10.0389 0.0572654 0)
(10.046 0.0626553 0)
(10.0524 0.0678664 0)
(10.0582 0.0725061 0)
(10.0623 0.0775748 0)
(10.0661 0.0843299 0)
(10.0723 0.0918351 0)
(10.0821 0.0974315 0)
(10.0927 0.0998498 0)
(10.101 0.100177 0)
(10.1058 0.100341 0)
(10.1076 0.101683 0)
(10.1081 0.104731 0)
(10.1098 0.109785 0)
(10.1148 0.116148 0)
(10.1224 0.122018 0)
(10.131 0.126116 0)
(10.1393 0.128146 0)
(10.1462 0.128475 0)
(10.151 0.127816 0)
(10.1535 0.127162 0)
(10.1541 0.127392 0)
(10.1541 0.129141 0)
(10.1544 0.132509 0)
(10.1552 0.137181 0)
(10.1563 0.142731 0)
(10.1577 0.148887 0)
(10.1595 0.155409 0)
(10.1618 0.162189 0)
(10.1648 0.16915 0)
(10.1683 0.176397 0)
(10.1726 0.184004 0)
(10.1779 0.191972 0)
(10.1848 0.200012 0)
(10.1931 0.207785 0)
(10.2044 0.214524 0)
(10.2179 0.219984 0)
(10.0026 0.0164368 0)
(10.0137 0.0370439 0)
(10.0245 0.0471522 0)
(10.0328 0.0537704 0)
(10.0397 0.0595374 0)
(10.046 0.0649339 0)
(10.0518 0.0698886 0)
(10.0567 0.0750827 0)
(10.0617 0.081278 0)
(10.0682 0.087777 0)
(10.0766 0.0927571 0)
(10.0852 0.0954109 0)
(10.0923 0.0965569 0)
(10.0973 0.0975724 0)
(10.1007 0.0995597 0)
(10.1037 0.103075 0)
(10.1078 0.107841 0)
(10.1135 0.112697 0)
(10.1203 0.116516 0)
(10.1275 0.118949 0)
(10.1343 0.120229 0)
(10.1402 0.120772 0)
(10.145 0.121135 0)
(10.1487 0.121959 0)
(10.1516 0.123699 0)
(10.1542 0.126394 0)
(10.1568 0.1298 0)
(10.1596 0.133691 0)
(10.1626 0.137982 0)
(10.1661 0.142657 0)
(10.1701 0.147679 0)
(10.1748 0.15298 0)
(10.1802 0.158513 0)
(10.1864 0.164243 0)
(10.1935 0.170099 0)
(10.2016 0.175918 0)
(10.2109 0.181445 0)
(10.2216 0.18636 0)
(10.2335 0.190121 0)
(10.2463 0.192225 0)
(10.0019 0.0132908 0)
(10.0108 0.0321912 0)
(10.0205 0.0431544 0)
(10.0281 0.0502805 0)
(10.0348 0.0563037 0)
(10.041 0.0618073 0)
(10.0468 0.0669342 0)
(10.0522 0.0721744 0)
(10.0578 0.0778904 0)
(10.0643 0.0834986 0)
(10.0717 0.0878924 0)
(10.0791 0.0907061 0)
(10.0856 0.092547 0)
(10.0909 0.0943349 0)
(10.0953 0.0967652 0)
(10.0997 0.100044 0)
(10.1046 0.103843 0)
(10.1102 0.107527 0)
(10.1165 0.110594 0)
(10.1229 0.112898 0)
(10.129 0.114561 0)
(10.1346 0.115832 0)
(10.1395 0.117047 0)
(10.1437 0.118539 0)
(10.1476 0.120513 0)
(10.1512 0.123001 0)
(10.1549 0.125956 0)
(10.1588 0.129327 0)
(10.163 0.133072 0)
(10.1676 0.137135 0)
(10.1727 0.141436 0)
(10.1784 0.145871 0)
(10.1846 0.150355 0)
(10.1914 0.154797 0)
(10.1989 0.159089 0)
(10.2071 0.163066 0)
(10.2161 0.166539 0)
(10.2257 0.169261 0)
(10.2358 0.170992 0)
(10.2464 0.171579 0)
(10.0014 0.0108248 0)
(10.0083 0.0277541 0)
(10.017 0.0391783 0)
(10.0243 0.0467156 0)
(10.0307 0.0529367 0)
(10.0367 0.0585014 0)
(10.0426 0.0636837 0)
(10.0482 0.0688425 0)
(10.0541 0.0741379 0)
(10.0604 0.0791364 0)
(10.0673 0.0831837 0)
(10.074 0.086132 0)
(10.0802 0.0884106 0)
(10.0857 0.0906078 0)
(10.0908 0.0931422 0)
(10.0957 0.0961116 0)
(10.101 0.0993231 0)
(10.1067 0.102442 0)
(10.1126 0.105188 0)
(10.1186 0.107451 0)
(10.1243 0.109289 0)
(10.1297 0.110863 0)
(10.1347 0.112389 0)
(10.1394 0.11407 0)
(10.1438 0.116042 0)
(10.1481 0.118354 0)
(10.1525 0.120996 0)
(10.1571 0.123926 0)
(10.162 0.127098 0)
(10.1672 0.130445 0)
(10.1728 0.13389 0)
(10.1788 0.137341 0)
(10.1852 0.140713 0)
(10.192 0.143932 0)
(10.1993 0.146906 0)
(10.207 0.149507 0)
(10.2151 0.1516 0)
(10.2235 0.15306 0)
(10.2321 0.153849 0)
(10.2408 0.153855 0)
(10.001 0.00885836 0)
(10.0063 0.0238782 0)
(10.0139 0.0350831 0)
(10.0209 0.0431125 0)
(10.0271 0.0494491 0)
(10.033 0.0550128 0)
(10.0388 0.0601553 0)
(10.0446 0.0651611 0)
(10.0505 0.0701118 0)
(10.0567 0.0746977 0)
(10.0632 0.0785148 0)
(10.0696 0.0815136 0)
(10.0757 0.0840056 0)
(10.0813 0.0863763 0)
(10.0867 0.0888962 0)
(10.092 0.0916351 0)
(10.0974 0.0944845 0)
(10.1031 0.0972464 0)
(10.1088 0.0997468 0)
(10.1145 0.101912 0)
(10.1201 0.103777 0)
(10.1255 0.105452 0)
(10.1306 0.107079 0)
(10.1355 0.108789 0)
(10.1403 0.110671 0)
(10.1451 0.112757 0)
(10.1499 0.115037 0)
(10.1549 0.117482 0)
(10.1601 0.120061 0)
(10.1656 0.122721 0)
(10.1713 0.125388 0)
(10.1773 0.127976 0)
(10.1835 0.130421 0)
(10.1901 0.132732 0)
(10.1969 0.134822 0)
(10.2039 0.136579 0)
(10.2111 0.137903 0)
(10.2184 0.138731 0)
(10.2256 0.139008 0)
(10.233 0.138673 0)
(10.0008 0.00727688 0)
(10.0048 0.0205161 0)
(10.0112 0.0311502 0)
(10.0177 0.0394044 0)
(10.0237 0.0458369 0)
(10.0295 0.0513386 0)
(10.0353 0.0563709 0)
(10.0411 0.0611818 0)
(10.047 0.0658473 0)
(10.0532 0.0701318 0)
(10.0595 0.0737504 0)
(10.0656 0.076705 0)
(10.0716 0.079267 0)
(10.0773 0.0816828 0)
(10.0828 0.0841365 0)
(10.0883 0.0866843 0)
(10.0939 0.089264 0)
(10.0995 0.0917532 0)
(10.1051 0.0940422 0)
(10.1107 0.0960829 0)
(10.1162 0.0978978 0)
(10.1216 0.0995595 0)
(10.1268 0.101162 0)
(10.1319 0.102792 0)
(10.1369 0.104506 0)
(10.1419 0.106323 0)
(10.147 0.108232 0)
(10.1521 0.110218 0)
(10.1574 0.1123 0)
(10.1628 0.114432 0)
(10.1684 0.116537 0)
(10.1741 0.118544 0)
(10.18 0.120393 0)
(10.186 0.122033 0)
(10.1921 0.123407 0)
(10.1985 0.124462 0)
(10.2049 0.125153 0)
(10.2115 0.125428 0)
(10.218 0.125215 0)
(10.2244 0.12453 0)
(10.0005 0.00603361 0)
(10.0036 0.0176506 0)
(10.0089 0.0274984 0)
(10.0147 0.0355639 0)
(10.0206 0.0420649 0)
(10.0262 0.047514 0)
(10.0319 0.0524132 0)
(10.0376 0.0570299 0)
(10.0435 0.0614091 0)
(10.0497 0.0654061 0)
(10.0559 0.0688594 0)
(10.062 0.0717768 0)
(10.0679 0.0743201 0)
(10.0736 0.0766875 0)
(10.0792 0.0790324 0)
(10.0848 0.0814074 0)
(10.0903 0.0837746 0)
(10.0959 0.08605 0)
(10.1015 0.088156 0)
(10.1071 0.0900563 0)
(10.1125 0.0917651 0)
(10.1179 0.0933346 0)
(10.1232 0.0948336 0)
(10.1283 0.0963259 0)
(10.1334 0.0978546 0)
(10.1385 0.0994373 0)
(10.1436 0.101069 0)
(10.1486 0.102734 0)
(10.1537 0.104404 0)
(10.159 0.106043 0)
(10.1643 0.107613 0)
(10.1698 0.109076 0)
(10.1754 0.110375 0)
(10.1812 0.1114 0)
(10.187 0.112119 0)
(10.1928 0.112527 0)
(10.1987 0.11262 0)
(10.2046 0.11239 0)
(10.2104 0.111828 0)
(10.2161 0.110951 0)
(10.0002 0.00510708 0)
(10.0027 0.0152906 0)
(10.007 0.0242572 0)
(10.0121 0.03184 0)
(10.0176 0.0381606 0)
(10.0231 0.0435096 0)
(10.0286 0.0482482 0)
(10.0342 0.0526252 0)
(10.0401 0.0566697 0)
(10.0461 0.0603521 0)
(10.0523 0.0636438 0)
(10.0584 0.0665334 0)
(10.0643 0.0690622 0)
(10.07 0.071389 0)
(10.0756 0.0736305 0)
(10.0811 0.0758303 0)
(10.0866 0.0779739 0)
(10.0922 0.0800171 0)
(10.0978 0.0819171 0)
(10.1034 0.0836542 0)
(10.1089 0.0852389 0)
(10.1142 0.0867055 0)
(10.1195 0.0880977 0)
(10.1247 0.0894562 0)
(10.1297 0.09081 0)
(10.1348 0.0921737 0)
(10.1398 0.093547 0)
(10.1448 0.0949034 0)
(10.1499 0.0961704 0)
(10.1551 0.097317 0)
(10.1603 0.0983349 0)
(10.1656 0.0992107 0)
(10.1709 0.0999186 0)
(10.1764 0.100423 0)
(10.1818 0.100698 0)
(10.1873 0.100729 0)
(10.1927 0.100508 0)
(10.198 0.100036 0)
(10.2032 0.099316 0)
(10.2083 0.0983649 0)
(10.0001 0.00426854 0)
(10.002 0.0130038 0)
(10.0054 0.0210058 0)
(10.0099 0.0279522 0)
(10.0148 0.0338692 0)
(10.0199 0.0389131 0)
(10.0252 0.0433482 0)
(10.0307 0.047362 0)
(10.0364 0.051022 0)
(10.0423 0.0543648 0)
(10.0483 0.0574189 0)
(10.0543 0.0601955 0)
(10.0601 0.0627124 0)
(10.0658 0.0650152 0)
(10.0714 0.0671482 0)
(10.0769 0.0691385 0)
(10.0825 0.0710008 0)
(10.088 0.0727439 0)
(10.0936 0.0743756 0)
(10.0991 0.0759047 0)
(10.1045 0.0773423 0)
(10.1099 0.0786994 0)
(10.1152 0.0799857 0)
(10.1204 0.0812084 0)
(10.1254 0.0823712 0)
(10.1305 0.0834746 0)
(10.1355 0.0845128 0)
(10.1405 0.0854693 0)
(10.1455 0.0863176 0)
(10.1506 0.0870372 0)
(10.1557 0.0876145 0)
(10.1608 0.0880374 0)
(10.1659 0.0882946 0)
(10.1709 0.0883767 0)
(10.176 0.088277 0)
(10.1809 0.0879913 0)
(10.1858 0.0875188 0)
(10.1906 0.0868634 0)
(10.1953 0.0860321 0)
(10.1998 0.0850405 0)
(10.0001 0.00350171 0)
(10.0015 0.0106445 0)
(10.0042 0.0173815 0)
(10.0079 0.0234674 0)
(10.0123 0.0288148 0)
(10.0169 0.0333859 0)
(10.0218 0.0373037 0)
(10.027 0.0407902 0)
(10.0324 0.0439744 0)
(10.038 0.0469095 0)
(10.0436 0.0496312 0)
(10.0493 0.0521601 0)
(10.055 0.0544974 0)
(10.0607 0.0566367 0)
(10.0663 0.0585746 0)
(10.0718 0.0603196 0)
(10.0774 0.0618947 0)
(10.0828 0.0633331 0)
(10.0883 0.0646687 0)
(10.0937 0.0659286 0)
(10.0991 0.0671284 0)
(10.1044 0.0682713 0)
(10.1096 0.0693508 0)
(10.1147 0.0703547 0)
(10.1198 0.0712689 0)
(10.1249 0.0720795 0)
(10.1299 0.072774 0)
(10.1349 0.0733432 0)
(10.1398 0.0737805 0)
(10.1447 0.0740815 0)
(10.1496 0.0742428 0)
(10.1544 0.0742617 0)
(10.1591 0.0741373 0)
(10.1638 0.0738707 0)
(10.1684 0.073465 0)
(10.1729 0.0729245 0)
(10.1773 0.0722555 0)
(10.1815 0.0714661 0)
(10.1857 0.0705642 0)
(10.1897 0.0695623 0)
(10.0001 0.00273802 0)
(10.0012 0.00825385 0)
(10.0034 0.0135286 0)
(10.0065 0.018417 0)
(10.0102 0.0228417 0)
(10.0144 0.0267431 0)
(10.0189 0.0300519 0)
(10.0236 0.0328695 0)
(10.0285 0.0354027 0)
(10.0336 0.0377681 0)
(10.0389 0.0399919 0)
(10.0442 0.0420757 0)
(10.0497 0.0440112 0)
(10.0551 0.0457838 0)
(10.0606 0.0473811 0)
(10.066 0.0488034 0)
(10.0714 0.0500659 0)
(10.0768 0.0511942 0)
(10.0821 0.0522161 0)
(10.0873 0.0531542 0)
(10.0925 0.0540216 0)
(10.0977 0.0548213 0)
(10.1028 0.0555479 0)
(10.1078 0.0561906 0)
(10.1128 0.0567366 0)
(10.1178 0.0571741 0)
(10.1226 0.0574936 0)
(10.1274 0.05769 0)
(10.1322 0.0577619 0)
(10.1368 0.0577107 0)
(10.1414 0.0575393 0)
(10.1459 0.0572519 0)
(10.1503 0.0568534 0)
(10.1546 0.0563496 0)
(10.1587 0.0557469 0)
(10.1628 0.0550522 0)
(10.1667 0.0542734 0)
(10.1705 0.053419 0)
(10.1742 0.0524959 0)
(10.1777 0.0515137 0)
(10.0001 0.00190415 0)
(10.001 0.00570243 0)
(10.0028 0.00934945 0)
(10.0054 0.0127759 0)
(10.0087 0.0159356 0)
(10.0124 0.0187897 0)
(10.0165 0.0212911 0)
(10.0208 0.0233827 0)
(10.0253 0.025149 0)
(10.03 0.0267548 0)
(10.0348 0.0282621 0)
(10.0398 0.0296686 0)
(10.0449 0.0309649 0)
(10.05 0.0321452 0)
(10.0551 0.0332064 0)
(10.0603 0.0341492 0)
(10.0654 0.0349785 0)
(10.0705 0.0357023 0)
(10.0756 0.0363292 0)
(10.0806 0.0368664 0)
(10.0856 0.0373185 0)
(10.0905 0.0376874 0)
(10.0954 0.037973 0)
(10.1002 0.0381734 0)
(10.1049 0.0382863 0)
(10.1096 0.0383095 0)
(10.1142 0.0382416 0)
(10.1187 0.0380826 0)
(10.1231 0.0378336 0)
(10.1274 0.037497 0)
(10.1317 0.037076 0)
(10.1358 0.036575 0)
(10.1398 0.0359988 0)
(10.1437 0.0353527 0)
(10.1474 0.0346426 0)
(10.1511 0.0338745 0)
(10.1546 0.0330548 0)
(10.158 0.0321903 0)
(10.1613 0.0312862 0)
(10.1645 0.0303488 0)
(10.0001 0.000942076 0)
(10.0009 0.00281335 0)
(10.0025 0.00461102 0)
(10.0048 0.00630852 0)
(10.0076 0.00788635 0)
(10.011 0.00932705 0)
(10.0148 0.0106096 0)
(10.0188 0.0117034 0)
(10.023 0.0125735 0)
(10.0274 0.0132803 0)
(10.0319 0.0139078 0)
(10.0366 0.0144688 0)
(10.0413 0.0149595 0)
(10.0461 0.0153797 0)
(10.0509 0.0157308 0)
(10.0557 0.0160139 0)
(10.0605 0.0162292 0)
(10.0653 0.0163765 0)
(10.0701 0.0164553 0)
(10.0748 0.0164654 0)
(10.0795 0.0164074 0)
(10.0841 0.016282 0)
(10.0886 0.016091 0)
(10.0931 0.0158363 0)
(10.0975 0.0155201 0)
(10.1018 0.0151448 0)
(10.106 0.0147127 0)
(10.1102 0.0142266 0)
(10.1142 0.0136889 0)
(10.1181 0.0131023 0)
(10.122 0.01247 0)
(10.1257 0.0117951 0)
(10.1293 0.011081 0)
(10.1328 0.0103314 0)
(10.1362 0.00955006 0)
(10.1395 0.00874107 0)
(10.1426 0.00790849 0)
(10.1457 0.00705646 0)
(10.1486 0.00618828 0)
(10.1515 0.00530781 0)
(10.0001 -0.00019834 0)
(10.0008 -0.000595572 0)
(10.0023 -0.000980068 0)
(10.0045 -0.00134791 0)
(10.0072 -0.00169973 0)
(10.0104 -0.00203946 0)
(10.014 -0.00237403 0)
(10.0179 -0.00271366 0)
(10.022 -0.00307074 0)
(10.0262 -0.00345799 0)
(10.0305 -0.00386358 0)
(10.035 -0.00428914 0)
(10.0395 -0.00473515 0)
(10.044 -0.00520186 0)
(10.0486 -0.00568972 0)
(10.0532 -0.00619959 0)
(10.0578 -0.00673269 0)
(10.0623 -0.00729032 0)
(10.0668 -0.00787348 0)
(10.0713 -0.00848269 0)
(10.0757 -0.00911796 0)
(10.08 -0.00977886 0)
(10.0843 -0.0104647 0)
(10.0885 -0.0111744 0)
(10.0926 -0.0119068 0)
(10.0966 -0.0126604 0)
(10.1005 -0.0134336 0)
(10.1043 -0.0142246 0)
(10.108 -0.0150314 0)
(10.1116 -0.0158522 0)
(10.1151 -0.0166847 0)
(10.1185 -0.017527 0)
(10.1218 -0.0183768 0)
(10.125 -0.0192321 0)
(10.1281 -0.0200908 0)
(10.131 -0.0209507 0)
(10.1339 -0.0218097 0)
(10.1367 -0.0226659 0)
(10.1394 -0.0235174 0)
(10.142 -0.0243623 0)
(10.0001 -0.00119336 0)
(10.0009 -0.00358091 0)
(10.0025 -0.005874 0)
(10.0049 -0.00802943 0)
(10.0078 -0.0100268 0)
(10.0111 -0.0118609 0)
(10.0148 -0.013537 0)
(10.0188 -0.0150675 0)
(10.023 -0.0164646 0)
(10.0273 -0.0177495 0)
(10.0317 -0.0189895 0)
(10.0362 -0.020205 0)
(10.0408 -0.0213961 0)
(10.0453 -0.0225649 0)
(10.0499 -0.0237138 0)
(10.0545 -0.0248438 0)
(10.0591 -0.0259543 0)
(10.0636 -0.0270451 0)
(10.0681 -0.0281162 0)
(10.0725 -0.0291691 0)
(10.0768 -0.0302065 0)
(10.0811 -0.0312315 0)
(10.0852 -0.0322473 0)
(10.0893 -0.0332561 0)
(10.0933 -0.0342587 0)
(10.0972 -0.0352546 0)
(10.1009 -0.0362426 0)
(10.1046 -0.0372211 0)
(10.1082 -0.0381882 0)
(10.1116 -0.0391424 0)
(10.115 -0.0400829 0)
(10.1183 -0.0410089 0)
(10.1214 -0.0419203 0)
(10.1245 -0.0428169 0)
(10.1274 -0.043699 0)
(10.1303 -0.0445665 0)
(10.133 -0.0454196 0)
(10.1356 -0.0462582 0)
(10.1382 -0.0470819 0)
(10.1407 -0.0478905 0)
(10.0001 -0.00191109 0)
(10.001 -0.00571973 0)
(10.0029 -0.00934123 0)
(10.0055 -0.0126965 0)
(10.0086 -0.0157554 0)
(10.0122 -0.018515 0)
(10.0162 -0.020988 0)
(10.0203 -0.0232017 0)
(10.0246 -0.0251964 0)
(10.029 -0.027039 0)
(10.0335 -0.0288087 0)
(10.0381 -0.0305194 0)
(10.0427 -0.0321689 0)
(10.0474 -0.0337624 0)
(10.0521 -0.0353064 0)
(10.0567 -0.0368028 0)
(10.0613 -0.0382493 0)
(10.0658 -0.0396437 0)
(10.0703 -0.040987 0)
(10.0747 -0.0422836 0)
(10.079 -0.0435405 0)
(10.0833 -0.0447644 0)
(10.0874 -0.0459608 0)
(10.0915 -0.0471329 0)
(10.0954 -0.048282 0)
(10.0993 -0.0494081 0)
(10.103 -0.0505102 0)
(10.1066 -0.0515872 0)
(10.1101 -0.0526382 0)
(10.1135 -0.0536627 0)
(10.1168 -0.054661 0)
(10.12 -0.0556337 0)
(10.123 -0.0565818 0)
(10.126 -0.0575063 0)
(10.1289 -0.0584085 0)
(10.1317 -0.0592894 0)
(10.1344 -0.0601498 0)
(10.1369 -0.0609903 0)
(10.1394 -0.0618114 0)
(10.1418 -0.0626137 0)
(10.0001 -0.0026418 0)
(10.0012 -0.00789798 0)
(10.0034 -0.0128168 0)
(10.0064 -0.0172805 0)
(10.0099 -0.0212744 0)
(10.0139 -0.0248173 0)
(10.0181 -0.0279404 0)
(10.0225 -0.0306946 0)
(10.027 -0.0331659 0)
(10.0316 -0.0354946 0)
(10.0362 -0.0377521 0)
(10.0409 -0.0399255 0)
(10.0457 -0.041984 0)
(10.0504 -0.0439366 0)
(10.0552 -0.0457991 0)
(10.0599 -0.0475808 0)
(10.0645 -0.0492858 0)
(10.069 -0.0509165 0)
(10.0735 -0.0524784 0)
(10.0779 -0.0539807 0)
(10.0821 -0.0554276 0)
(10.0864 -0.0568191 0)
(10.0905 -0.0581543 0)
(10.0945 -0.0594334 0)
(10.0984 -0.0606592 0)
(10.1022 -0.0618368 0)
(10.1058 -0.0629723 0)
(10.1094 -0.0640718 0)
(10.1128 -0.0651403 0)
(10.1161 -0.0661813 0)
(10.1193 -0.0671967 0)
(10.1224 -0.0681869 0)
(10.1254 -0.0691513 0)
(10.1283 -0.0700889 0)
(10.1311 -0.0709984 0)
(10.1338 -0.0718788 0)
(10.1364 -0.0727297 0)
(10.1389 -0.0735509 0)
(10.1414 -0.0743427 0)
(10.1437 -0.0751061 0)
(10.0001 -0.00344755 0)
(10.0016 -0.0102608 0)
(10.0043 -0.0164443 0)
(10.0078 -0.0218878 0)
(10.0117 -0.0266629 0)
(10.016 -0.0308463 0)
(10.0205 -0.0344968 0)
(10.0252 -0.0376912 0)
(10.0299 -0.0405493 0)
(10.0347 -0.0432342 0)
(10.0395 -0.0458267 0)
(10.0443 -0.0483263 0)
(10.0492 -0.0507089 0)
(10.054 -0.0529479 0)
(10.0588 -0.055034 0)
(10.0635 -0.0569834 0)
(10.0681 -0.0588282 0)
(10.0726 -0.0605996 0)
(10.077 -0.0623165 0)
(10.0813 -0.0639821 0)
(10.0856 -0.0655878 0)
(10.0897 -0.0671206 0)
(10.0938 -0.0685699 0)
(10.0977 -0.0699325 0)
(10.1016 -0.0712136 0)
(10.1053 -0.0724248 0)
(10.1089 -0.0735808 0)
(10.1123 -0.0746962 0)
(10.1157 -0.0757827 0)
(10.1189 -0.076848 0)
(10.122 -0.0778956 0)
(10.125 -0.078925 0)
(10.1279 -0.0799333 0)
(10.1308 -0.0809163 0)
(10.1335 -0.0818695 0)
(10.1362 -0.0827892 0)
(10.1387 -0.0836721 0)
(10.1412 -0.0845163 0)
(10.1436 -0.085321 0)
(10.1459 -0.0860857 0)
(10.0002 -0.00444288 0)
(10.0023 -0.0129696 0)
(10.0057 -0.0203039 0)
(10.0097 -0.0265068 0)
(10.0141 -0.0318626 0)
(10.0187 -0.0365391 0)
(10.0234 -0.0406009 0)
(10.0283 -0.0441308 0)
(10.0331 -0.0472769 0)
(10.038 -0.05021 0)
(10.0428 -0.0530413 0)
(10.0477 -0.0557971 0)
(10.0526 -0.0584484 0)
(10.0575 -0.0609174 0)
(10.0624 -0.0631647 0)
(10.0671 -0.0652159 0)
(10.0717 -0.0671373 0)
(10.0762 -0.068997 0)
(10.0805 -0.0708335 0)
(10.0848 -0.0726448 0)
(10.089 -0.0744051 0)
(10.0932 -0.0760799 0)
(10.0973 -0.0776408 0)
(10.1013 -0.079075 0)
(10.1051 -0.0803873 0)
(10.1089 -0.0815973 0)
(10.1124 -0.0827322 0)
(10.1158 -0.0838203 0)
(10.1191 -0.0848848 0)
(10.1222 -0.0859409 0)
(10.1252 -0.0869938 0)
(10.1281 -0.0880404 0)
(10.1309 -0.0890715 0)
(10.1337 -0.0900755 0)
(10.1364 -0.091041 0)
(10.139 -0.0919591 0)
(10.1415 -0.0928242 0)
(10.144 -0.0936341 0)
(10.1464 -0.0943899 0)
(10.1487 -0.0950949 0)
(10.0005 -0.00570715 0)
(10.0034 -0.016097 0)
(10.0077 -0.0243656 0)
(10.0124 -0.0310323 0)
(10.0171 -0.0367546 0)
(10.0219 -0.0418143 0)
(10.0269 -0.046206 0)
(10.0319 -0.0499542 0)
(10.0369 -0.0532502 0)
(10.0417 -0.0563485 0)
(10.0464 -0.0594231 0)
(10.0512 -0.0625027 0)
(10.0561 -0.0654821 0)
(10.0612 -0.0682008 0)
(10.0662 -0.0705753 0)
(10.0711 -0.0726547 0)
(10.0758 -0.0745701 0)
(10.0802 -0.0764557 0)
(10.0844 -0.0783914 0)
(10.0886 -0.0803801 0)
(10.0927 -0.0823595 0)
(10.0969 -0.0842399 0)
(10.1011 -0.0859475 0)
(10.1053 -0.0874505 0)
(10.1093 -0.0887583 0)
(10.1132 -0.0899091 0)
(10.1168 -0.0909561 0)
(10.1202 -0.0919553 0)
(10.1234 -0.0929562 0)
(10.1264 -0.0939934 0)
(10.1292 -0.0950817 0)
(10.132 -0.0962175 0)
(10.1347 -0.0973836 0)
(10.1374 -0.0985562 0)
(10.1401 -0.0997103 0)
(10.1428 -0.100824 0)
(10.1454 -0.101879 0)
(10.148 -0.102865 0)
(10.1505 -0.103776 0)
(10.1529 -0.104606 0)
(10.0011 -0.00767083 0)
(10.0053 -0.0198658 0)
(10.0106 -0.0285961 0)
(10.016 -0.035354 0)
(10.0209 -0.041231 0)
(10.0258 -0.0466314 0)
(10.031 -0.0513474 0)
(10.0364 -0.0552151 0)
(10.0414 -0.0584794 0)
(10.0461 -0.0615687 0)
(10.0505 -0.064801 0)
(10.055 -0.068267 0)
(10.0598 -0.0717814 0)
(10.0652 -0.0749537 0)
(10.0707 -0.0774958 0)
(10.076 -0.079444 0)
(10.0808 -0.0810759 0)
(10.085 -0.0827206 0)
(10.0889 -0.0846211 0)
(10.0926 -0.0868542 0)
(10.0965 -0.0892968 0)
(10.1007 -0.0916732 0)
(10.1052 -0.0936988 0)
(10.1097 -0.0952304 0)
(10.114 -0.0962908 0)
(10.1182 -0.097002 0)
(10.122 -0.0975192 0)
(10.1254 -0.098 0)
(10.1284 -0.098585 0)
(10.1311 -0.0993716 0)
(10.1336 -0.100389 0)
(10.1359 -0.101594 0)
(10.1383 -0.102896 0)
(10.1406 -0.104195 0)
(10.143 -0.10541 0)
(10.1455 -0.106493 0)
(10.148 -0.107421 0)
(10.1505 -0.108194 0)
(10.1531 -0.10882 0)
(10.1556 -0.109319 0)
(10.0016 -0.0104027 0)
(10.0077 -0.0241146 0)
(10.0144 -0.0329278 0)
(10.0207 -0.0394068 0)
(10.0257 -0.0452573 0)
(10.0305 -0.051051 0)
(10.0361 -0.0561444 0)
(10.0421 -0.0599932 0)
(10.0475 -0.0629756 0)
(10.0519 -0.0658479 0)
(10.0555 -0.0691167 0)
(10.059 -0.0729365 0)
(10.0634 -0.0771124 0)
(10.0693 -0.0810359 0)
(10.076 -0.0840637 0)
(10.0825 -0.0860409 0)
(10.0879 -0.087314 0)
(10.0919 -0.0884364 0)
(10.0948 -0.0899093 0)
(10.0971 -0.0920373 0)
(10.0998 -0.0949254 0)
(10.1036 -0.0983967 0)
(10.1086 -0.101932 0)
(10.1144 -0.104955 0)
(10.1201 -0.107151 0)
(10.1254 -0.108478 0)
(10.1299 -0.109065 0)
(10.1336 -0.109153 0)
(10.1362 -0.109059 0)
(10.1381 -0.109126 0)
(10.1395 -0.10965 0)
(10.1409 -0.110802 0)
(10.1425 -0.112581 0)
(10.1447 -0.114826 0)
(10.1472 -0.117305 0)
(10.1501 -0.119789 0)
(10.1531 -0.1221 0)
(10.1562 -0.124114 0)
(10.1592 -0.125773 0)
(10.1622 -0.127056 0)
(10.0025 -0.0139032 0)
(10.0107 -0.0289704 0)
(10.02 -0.03747 0)
(10.0275 -0.0431172 0)
(10.0323 -0.048912 0)
(10.0368 -0.055626 0)
(10.0431 -0.0612772 0)
(10.0503 -0.0645216 0)
(10.0563 -0.0663401 0)
(10.0601 -0.0684646 0)
(10.0623 -0.0721351 0)
(10.0643 -0.0773846 0)
(10.0677 -0.0827688 0)
(10.0737 -0.0863995 0)
(10.0821 -0.0875596 0)
(10.0907 -0.0870333 0)
(10.0975 -0.0861367 0)
(10.1019 -0.0861084 0)
(10.1038 -0.0878573 0)
(10.1041 -0.0913545 0)
(10.1035 -0.0953654 0)
(10.1038 -0.098308 0)
(10.1065 -0.099365 0)
(10.1118 -0.0988357 0)
(10.1187 -0.0974819 0)
(10.1261 -0.0958447 0)
(10.133 -0.0941731 0)
(10.1388 -0.0927137 0)
(10.1429 -0.0919055 0)
(10.145 -0.092171 0)
(10.1451 -0.0935313 0)
(10.1436 -0.0955624 0)
(10.1412 -0.0976946 0)
(10.1389 -0.0995363 0)
(10.1375 -0.100926 0)
(10.1371 -0.10188 0)
(10.1378 -0.102507 0)
(10.1395 -0.102942 0)
(10.1419 -0.103321 0)
(10.1447 -0.103707 0)
(10.0046 -0.0180284 0)
(10.0159 -0.0351793 0)
(10.0298 -0.0425476 0)
(10.0385 -0.045587 0)
(10.0419 -0.0506355 0)
(10.046 -0.0607687 0)
(10.055 -0.0707424 0)
(10.0657 -0.0752702 0)
(10.0728 -0.0751397 0)
(10.0736 -0.0734489 0)
(10.0701 -0.0736402 0)
(10.068 -0.0800828 0)
(10.0723 -0.0944521 0)
(10.0828 -0.110797 0)
(10.0951 -0.121038 0)
(10.1046 -0.122811 0)
(10.109 -0.118385 0)
(10.1072 -0.111305 0)
(10.1 -0.10519 0)
(10.0917 -0.104123 0)
(10.0874 -0.112047 0)
(10.0893 -0.12837 0)
(10.0949 -0.146598 0)
(10.1002 -0.160501 0)
(10.1026 -0.168107 0)
(10.1019 -0.169789 0)
(10.0987 -0.166476 0)
(10.0932 -0.159382 0)
(10.0848 -0.150073 0)
(10.074 -0.140737 0)
(10.0623 -0.13416 0)
(10.0516 -0.132492 0)
(10.0429 -0.135962 0)
(10.0358 -0.143205 0)
(10.0296 -0.152289 0)
(10.0234 -0.161511 0)
(10.0164 -0.169625 0)
(10.0084 -0.175876 0)
(9.99887 -0.179949 0)
(9.98847 -0.181845 0)
(10.0062 -0.0248453 0)
(10.0318 -0.0452824 0)
(10.0543 -0.0496769 0)
(10.0621 -0.0497444 0)
(10.0595 -0.0512585 0)
(10.0591 -0.0553415 0)
(10.0662 -0.0583706 0)
(10.0737 -0.0586036 0)
(10.0729 -0.0573873 0)
(10.0606 -0.0574558 0)
(10.0378 -0.0610171 0)
(10.0104 -0.0662915 0)
(9.98769 -0.0683333 0)
(9.97265 -0.0657435 0)
(9.95936 -0.0612892 0)
(9.94038 -0.0567457 0)
(9.9142 -0.0521602 0)
(9.88227 -0.0484456 0)
(9.84333 -0.0482986 0)
(9.79513 -0.0523701 0)
(9.7415 -0.0560211 0)
(9.69107 -0.0541871 0)
(9.64799 -0.0471587 0)
(9.60869 -0.0385924 0)
(9.56707 -0.0316539 0)
(9.52104 -0.0276829 0)
(9.47194 -0.0258645 0)
(9.42209 -0.0245069 0)
(9.37192 -0.0232592 0)
(9.31938 -0.0229547 0)
(9.26333 -0.0235102 0)
(9.20616 -0.0240115 0)
(9.15186 -0.0237384 0)
(9.10269 -0.0223173 0)
(9.05831 -0.0196047 0)
(9.01725 -0.0159125 0)
(8.97787 -0.0118099 0)
(8.93926 -0.00791764 0)
(8.90069 -0.00477518 0)
(8.86246 -0.00306172 0)
(9.94421 -0.0264084 0)
(9.84895 -0.0541696 0)
(9.7413 -0.0549624 0)
(9.63556 -0.0483629 0)
(9.53024 -0.0583559 0)
(9.40146 -0.0858928 0)
(9.25121 -0.105189 0)
(9.10224 -0.102522 0)
(8.96882 -0.0853173 0)
(8.85752 -0.0645813 0)
(8.76399 -0.0540115 0)
(8.6709 -0.0687665 0)
(8.55678 -0.108687 0)
(8.41789 -0.144275 0)
(8.27338 -0.151835 0)
(8.14102 -0.137067 0)
(8.02933 -0.111953 0)
(7.94057 -0.0831757 0)
(7.87345 -0.056268 0)
(7.82127 -0.0435031 0)
(7.7697 -0.060629 0)
(7.70416 -0.10235 0)
(7.62277 -0.138754 0)
(7.53587 -0.151844 0)
(7.45466 -0.145506 0)
(7.38444 -0.128608 0)
(7.32582 -0.107896 0)
(7.27824 -0.0848198 0)
(7.24227 -0.0576457 0)
(7.2187 -0.0297737 0)
(7.20534 -0.0127175 0)
(7.19603 -0.0146978 0)
(7.18403 -0.0324989 0)
(7.16555 -0.0566897 0)
(7.14068 -0.0786055 0)
(7.11173 -0.0935792 0)
(7.08155 -0.100685 0)
(7.05242 -0.101202 0)
(7.02556 -0.0969921 0)
(7.002 -0.0896278 0)
(0.00041058 -0.000479849 0)
(0.00075492 -0.000549951 0)
(0.00145296 -0.000592727 0)
(0.00220379 -0.00063831 0)
(0.00301572 -0.000678172 1.90158e-22)
(0.00389854 -0.000709084 0)
(0.0048483 -0.000730435 0)
(0.00585512 -0.000741391 0)
(0.00690642 -0.000740262 0)
(0.00798586 -0.000725632 0)
(0.0090784 -0.000706949 0)
(0.010185 -0.000760965 3.03813e-22)
(0.0113378 -0.000888448 0)
(0.0125574 -0.00092898 0)
(0.0137908 -0.000856576 0)
(0.0149724 -0.000771295 0)
(0.016086 -0.000686445 0)
(0.0171172 -0.000596145 0)
(0.0180447 -0.000499018 -4.88148e-22)
(0.0188448 -0.000395382 0)
(0.019493 -0.000285015 4.55714e-22)
(0.0199634 -0.000165919 -4.40008e-22)
(0.0202301 -3.79265e-05 4.24656e-22)
(0.0202659 8.13732e-05 0)
(0.0200408 0.000219242 0)
(0.0195219 0.000369538 -7.6131e-22)
(0.0186724 0.000531201 7.33166e-22)
(0.0174485 0.000709313 -7.05434e-22)
(0.0157907 0.000908963 0)
(0.0137065 0.00102856 -6.50286e-22)
(0.0113208 0.000976354 6.24177e-22)
(0.00859497 0.000968937 0)
(0.00536442 0.00110262 0)
(0.00157942 0.00122405 0)
(-0.00276312 0.0013419 -1.08226e-21)
(-0.0076579 0.00144919 0)
(-0.0131019 0.00163015 1.01175e-21)
(-0.0192023 0.00198102 0)
(-0.0261819 0.00222605 -9.55528e-22)
(-0.0341352 0.00229061 9.28444e-22)
(-0.0429221 0.00237456 0)
(-0.0527334 0.00248878 0)
(-0.0638352 0.00265174 0)
(-0.0766473 0.00288022 0)
(-0.0917025 0.00318047 1.59216e-21)
(-0.111238 0.00360155 0)
(-0.136808 0.00413636 -1.32238e-21)
(-0.167146 0.004708 0)
(-0.202519 0.00529499 0)
(-0.243022 0.0058686 0)
(-0.288454 0.00640001 -1.34081e-21)
(-0.338372 0.00686478 0)
(-0.392156 0.00724607 -1.35319e-21)
(-0.44907 0.00753483 0)
(-0.508339 0.00773098 0)
(-0.569212 0.0078403 0)
(-0.63101 0.00787248 1.38283e-21)
(-0.69314 0.00783921 0)
(-0.755105 0.00775216 0)
(-0.816498 0.00762206 0)
(-0.876991 0.00745821 1.41149e-21)
(-0.936323 0.00726829 1.41736e-21)
(-0.994289 0.00705852 0)
(-1.05073 0.00683386 0)
(-1.10552 0.00659822 0)
(-1.15855 0.00635476 0)
(-1.20977 0.00610604 0)
(-1.25911 0.00585416 0)
(-1.30654 0.00560086 -1.43083e-21)
(-1.35204 0.00534758 1.4278e-21)
(-1.39558 0.0050955 0)
(-1.43717 0.00484559 -1.41743e-21)
(-1.47682 0.00459867 0)
(-1.51452 0.00435536 0)
(-1.55031 0.00411613 0)
(-1.5842 0.00388127 0)
(-1.6162 0.00365093 0)
(-1.64636 0.00342512 0)
(-1.67467 0.00320372 -1.33329e-21)
(-1.70118 0.00298658 0)
(-1.72591 0.0027735 -1.29525e-21)
(-1.74886 0.00256432 1.2739e-21)
(-1.77007 0.00235893 -1.25101e-21)
(-1.78956 0.00215728 0)
(-1.80735 0.00195933 -1.20068e-21)
(-1.82346 0.00176503 0)
(-1.83791 0.00157426 -1.14437e-21)
(-1.85072 0.00138684 0)
(-1.86192 0.00120255 0)
(-1.87153 0.00102101 0)
(-1.87955 0.000841639 -2.02917e-21)