/*--------------------------------*- C++ -*----------------------------------*\
| =========                 |                                                 |
| \\      /  F ield         | OpenFOAM: The Open Source CFD Toolbox           |
|  \\    /   O peration     | Version:  2112                                  |
|   \\  /    A nd           | Website:  www.openfoam.com                      |
|    \\/     M anipulation  |                                                 |
\*---------------------------------------------------------------------------*/
FoamFile
{
    version     2.0;
    format      ascii;
    arch        "LSB;label=32;scalar=64";
    class       volVectorField;
    location    "0.18";
    object      U;
}
// * * * * * * * * * * * * * * * * * * * * * * * * * * * * * * * * * * * * * //

dimensions      [0 1 -1 0 0 0 0];

internalField   nonuniform List<vector> 
12225
(
(9.80412 0.0289235 0)
(9.46712 0.0650944 0)
(9.10302 0.0560953 0)
(8.82561 0.0349205 0)
(8.62228 0.0315227 0)
(8.38332 0.0602768 0)
(8.03003 0.0980834 0)
(7.58613 0.114367 0)
(7.145 0.101732 0)
(6.74611 0.080898 0)
(6.38145 0.0753765 0)
(5.95242 0.0976904 0)
(5.44024 0.135808 0)
(4.74038 0.179086 0)
(3.96664 0.212252 0)
(2.9645 0.265956 0)
(1.8802 0.389917 0)
(0.164712 0.331386 0)
(9.9357 0.0608736 0)
(10.0987 0.0908898 0)
(10.1287 0.0911746 0)
(10.039 0.0776707 0)
(9.92311 0.0687263 0)
(9.85418 0.0796506 0)
(9.85088 0.101369 0)
(9.86713 0.117391 0)
(9.87124 0.12539 0)
(9.79311 0.134772 0)
(9.65402 0.156216 0)
(9.39428 0.197988 0)
(9.14636 0.257518 0)
(8.73614 0.337337 0)
(8.41619 0.427575 0)
(7.73823 0.543845 0)
(7.26233 0.696085 0)
(5.91367 0.872136 0)
(10.1877 0.0505325 0)
(10.1315 0.0340656 0)
(10.1618 0.0674468 0)
(10.2273 0.0781435 0)
(10.2532 0.0761052 0)
(10.251 0.082666 0)
(10.2416 0.101016 0)
(10.2 0.120675 0)
(10.1157 0.140926 0)
(9.97053 0.165657 0)
(9.81935 0.207638 0)
(9.64367 0.265255 0)
(9.53527 0.347277 0)
(9.36927 0.441842 0)
(9.29909 0.565064 0)
(9.05809 0.714481 0)
(8.95329 0.918754 0)
(8.57395 1.09962 0)
(9.97947 -0.0088944 0)
(10.0221 0.0698604 0)
(10.0377 0.0892804 0)
(10.041 0.0697709 0)
(10.0388 0.0600035 0)
(10.0353 0.07528 0)
(10.0165 0.109791 0)
(9.9665 0.148392 0)
(9.89581 0.185869 0)
(9.8152 0.221586 0)
(9.74846 0.264796 0)
(9.68275 0.31465 0)
(9.63911 0.38501 0)
(9.57787 0.473906 0)
(9.54481 0.596546 0)
(9.47569 0.754291 0)
(9.43659 0.944856 0)
(9.36398 1.11558 0)
(9.84234 0.0249427 0)
(9.84801 0.026014 0)
(9.99545 0.0532585 0)
(10.0906 0.0664776 0)
(10.0848 0.0734385 0)
(10.0292 0.0966397 0)
(9.97021 0.135019 0)
(9.9183 0.173339 0)
(9.872 0.205384 0)
(9.8285 0.232646 0)
(9.78884 0.26668 0)
(9.7469 0.313294 0)
(9.70309 0.383848 0)
(9.65285 0.479808 0)
(9.60641 0.607361 0)
(9.56672 0.766767 0)
(9.54705 0.946941 0)
(9.5425 1.11712 0)
(9.89118 0.00153197 0)
(10.0511 0.0142266 0)
(10.1255 0.0396464 0)
(10.1274 0.0632552 0)
(10.0755 0.0808708 0)
(10.0191 0.100252 0)
(9.98356 0.13269 0)
(9.96423 0.17262 0)
(9.95351 0.210262 0)
(9.93514 0.245541 0)
(9.90132 0.288258 0)
(9.85161 0.346781 0)
(9.78805 0.428177 0)
(9.71721 0.531496 0)
(9.64388 0.65454 0)
(9.58145 0.796706 0)
(9.53622 0.949638 0)
(9.52282 1.10337 0)
(10.0045 -0.00431734 0)
(9.98294 -0.0348075 0)
(10.0154 0.0184203 0)
(10.0073 0.0704846 0)
(9.97333 0.107601 0)
(9.92491 0.139562 0)
(9.89737 0.166156 0)
(9.90616 0.190138 0)
(9.90879 0.221254 0)
(9.88793 0.259832 0)
(9.84535 0.307879 0)
(9.79177 0.369514 0)
(9.73864 0.449656 0)
(9.69248 0.552083 0)
(9.64778 0.67562 0)
(9.6029 0.818023 0)
(9.55596 0.969555 0)
(9.51689 1.12077 0)
(9.9548 0.0662044 0)
(10.0614 0.0387892 0)
(10.0304 0.0455244 0)
(9.99068 0.0921918 0)
(9.96805 0.110276 0)
(9.98318 0.113173 0)
(10.0134 0.128523 0)
(10.0055 0.167727 0)
(9.97019 0.220745 0)
(9.93056 0.275524 0)
(9.88656 0.332894 0)
(9.84264 0.398564 0)
(9.79999 0.47886 0)
(9.7583 0.579413 0)
(9.72165 0.70024 0)
(9.69054 0.839225 0)
(9.66969 0.988269 0)
(9.6543 1.13773 0)
(9.8462 -0.112751 0)
(9.94452 -0.0663671 0)
(9.92792 0.0287047 0)
(9.88604 0.0837835 0)
(9.84608 0.114737 0)
(9.82676 0.136269 0)
(9.81911 0.16715 0)
(9.82459 0.208148 0)
(9.84697 0.249768 0)
(9.85793 0.295608 0)
(9.85301 0.348636 0)
(9.83551 0.412786 0)
(9.80841 0.492954 0)
(9.7742 0.592609 0)
(9.73751 0.709698 0)
(9.70679 0.841092 0)
(9.68887 0.980058 0)
(9.69168 1.12191 0)
(10.3941 0.0564608 0)
(10.1471 0.0405283 0)
(10.0195 0.0866935 0)
(9.97404 0.128014 0)
(9.9432 0.127081 0)
(9.91053 0.111171 0)
(9.90478 0.117149 0)
(9.93432 0.154739 0)
(9.95499 0.214219 0)
(9.95716 0.280861 0)
(9.94932 0.35006 0)
(9.92985 0.427714 0)
(9.89916 0.519959 0)
(9.8629 0.629135 0)
(9.82565 0.750261 0)
(9.79423 0.878876 0)
(9.77242 1.0073 0)
(9.76694 1.13383 0)
(9.81453 -0.00548333 0)
(9.96871 0.038176 0)
(9.9902 0.0774139 0)
(9.98503 0.120325 0)
(9.9633 0.157371 0)
(9.92282 0.167606 0)
(9.87534 0.166543 0)
(9.83926 0.183402 0)
(9.82928 0.228057 0)
(9.83555 0.290369 0)
(9.83786 0.360267 0)
(9.83174 0.437486 0)
(9.8227 0.525945 0)
(9.81956 0.628892 0)
(9.82572 0.743579 0)
(9.84127 0.866192 0)
(9.86478 0.988957 0)
(9.89377 1.10913 0)
(10.0689 -0.0138913 0)
(10.0001 0.033368 0)
(10.0241 0.0958384 0)
(10.0333 0.131701 0)
(10.0178 0.142842 0)
(9.9896 0.144923 0)
(9.95715 0.153548 0)
(9.91768 0.179613 0)
(9.87454 0.224775 0)
(9.83993 0.286295 0)
(9.82268 0.360717 0)
(9.82241 0.444958 0)
(9.83194 0.536258 0)
(9.8479 0.635687 0)
(9.86744 0.74248 0)
(9.89348 0.855506 0)
(9.92333 0.969672 0)
(9.95966 1.08238 0)
(9.97245 0.17444 0)
(10.051 0.0447187 0)
(10.0611 0.0380419 0)
(10.0929 0.133411 0)
(10.1123 0.196019 0)
(10.0842 0.207771 0)
(10.0137 0.209069 0)
(9.92438 0.22948 0)
(9.84046 0.268362 0)
(9.78361 0.315251 0)
(9.76548 0.365941 0)
(9.78183 0.426044 0)
(9.81827 0.501581 0)
(9.8616 0.595926 0)
(9.9021 0.704241 0)
(9.9386 0.82106 0)
(9.97037 0.938447 0)
(10.0051 1.05256 0)
(9.98758 0.165227 0)
(9.99033 0.0940632 0)
(9.90855 0.0807243 0)
(9.92089 0.0912261 0)
(9.99274 0.128719 0)
(10.0278 0.187162 0)
(10.0153 0.242431 0)
(9.98565 0.282643 0)
(9.95853 0.30996 0)
(9.93777 0.332983 0)
(9.91954 0.362611 0)
(9.90168 0.410468 0)
(9.88688 0.482321 0)
(9.88075 0.577897 0)
(9.88719 0.687873 0)
(9.90861 0.804141 0)
(9.94334 0.915179 0)
(9.99348 1.01918 0)
(10.0024 0.210621 0)
(10.1176 0.116129 0)
(10.0945 0.0386341 0)
(10.0483 0.0774966 0)
(10.0308 0.138874 0)
(10.0478 0.186287 0)
(10.0891 0.222529 0)
(10.1333 0.256281 0)
(10.1596 0.29596 0)
(10.1601 0.345971 0)
(10.1388 0.404016 0)
(10.1056 0.467055 0)
(10.0718 0.533671 0)
(10.0477 0.606562 0)
(10.0396 0.684704 0)
(10.0494 0.768316 0)
(10.0766 0.850646 0)
(10.1177 0.931784 0)
(9.93763 -0.0258778 0)
(10.0813 -0.00320595 0)
(10.193 0.132556 0)
(10.2256 0.167574 0)
(10.1816 0.151954 0)
(10.1174 0.15244 0)
(10.0669 0.18417 0)
(10.0414 0.236745 0)
(10.0406 0.294911 0)
(10.0593 0.350667 0)
(10.0886 0.403749 0)
(10.1202 0.459366 0)
(10.1491 0.521656 0)
(10.176 0.593015 0)
(10.2039 0.669923 0)
(10.2367 0.748806 0)
(10.277 0.823315 0)
(10.3249 0.891371 0)
(9.85595 -0.111007 0)
(9.85392 -0.20333 0)
(9.93448 -0.0962545 0)
(10.0074 0.0763827 0)
(10.0573 0.218103 0)
(10.0681 0.28719 0)
(10.0505 0.291991 0)
(10.0261 0.271619 0)
(10.0086 0.262728 0)
(10.0036 0.282801 0)
(10.0098 0.331207 0)
(10.0249 0.3982 0)
(10.0469 0.471444 0)
(10.0769 0.542514 0)
(10.1157 0.606347 0)
(10.1655 0.663882 0)
(10.2238 0.71409 0)
(10.2922 0.763488 0)
(10.0915 -0.0969865 0)
(10.0493 -0.149265 0)
(10.0339 -0.0253822 0)
(10.0333 0.0664721 0)
(10.0555 0.115758 0)
(10.0886 0.178762 0)
(10.116 0.256948 0)
(10.1335 0.321697 0)
(10.1408 0.358217 0)
(10.1389 0.374468 0)
(10.1308 0.386399 0)
(10.1226 0.405295 0)
(10.1219 0.433677 0)
(10.1349 0.469499 0)
(10.1639 0.507767 0)
(10.2081 0.546814 0)
(10.2638 0.582363 0)
(10.3276 0.618292 0)
(10.0965 0.0992027 0)
(10.1131 0.000482129 0)
(10.0786 -0.0324161 0)
(10.0302 0.0348871 0)
(10.0182 0.116734 0)
(10.0376 0.16356 0)
(10.0843 0.175591 0)
(10.15 0.180602 0)
(10.2188 0.20858 0)
(10.2778 0.26912 0)
(10.322 0.346754 0)
(10.3536 0.416333 0)
(10.3794 0.459643 0)
(10.4056 0.473522 0)
(10.4349 0.46667 0)
(10.467 0.454075 0)
(10.5009 0.446081 0)
(10.5344 0.452928 0)
(10.197 0.0579793 0)
(10.2057 0.0149586 0)
(10.194 0.0503272 0)
(10.1612 0.112297 0)
(10.1376 0.129086 0)
(10.1535 0.111228 0)
(10.1816 0.0986882 0)
(10.1939 0.110698 0)
(10.1943 0.145579 0)
(10.1992 0.193603 0)
(10.2193 0.243412 0)
(10.2574 0.286152 0)
(10.3108 0.317585 0)
(10.3723 0.339087 0)
(10.4339 0.356559 0)
(10.4902 0.375937 0)
(10.5389 0.400589 0)
(10.5811 0.431118 0)
(10.0807 -0.0526189 0)
(10.0811 0.0673035 0)
(10.0911 0.101311 0)
(10.0988 0.0956057 0)
(10.1277 0.0865889 0)
(10.1533 0.0801914 0)
(10.1683 0.0893828 0)
(10.1903 0.123546 0)
(10.2327 0.17135 0)
(10.2927 0.21439 0)
(10.3561 0.242041 0)
(10.4087 0.253292 0)
(10.443 0.25328 0)
(10.4596 0.249785 0)
(10.4631 0.249645 0)
(10.4626 0.257589 0)
(10.4638 0.274142 0)
(10.476 0.300354 0)
(9.85537 0.0673008 0)
(9.96249 0.0195483 0)
(10.0496 0.0403784 0)
(10.0797 0.0740869 0)
(10.0934 0.0928479 0)
(10.0887 0.097388 0)
(10.0676 0.0826978 0)
(10.0495 0.0537438 0)
(10.0538 0.0332071 0)
(10.0887 0.0431094 0)
(10.1479 0.0876756 0)
(10.2177 0.154876 0)
(10.2855 0.225664 0)
(10.3437 0.285204 0)
(10.3894 0.325637 0)
(10.4249 0.347236 0)
(10.4545 0.351897 0)
(10.4833 0.344579 0)
(9.95134 -0.0252692 0)
(9.81913 -0.0744456 0)
(9.83752 -0.00589589 0)
(9.88353 0.0394161 0)
(9.94076 0.0645882 0)
(10.0225 0.0864785 0)
(10.1234 0.103435 0)
(10.2133 0.110034 0)
(10.2614 0.103991 0)
(10.2612 0.0906308 0)
(10.2335 0.0820506 0)
(10.2105 0.0872145 0)
(10.2149 0.106369 0)
(10.2544 0.134018 0)
(10.3236 0.16275 0)
(10.4092 0.187616 0)
(10.4998 0.206194 0)
(10.5807 0.217705 0)
(9.98437 0.25187 0)
(9.95975 0.104092 0)
(9.9571 0.00273687 0)
(9.98636 -0.00643012 0)
(10.0418 -0.00582996 0)
(10.0867 -0.0339855 0)
(10.1326 -0.0610557 0)
(10.1892 -0.0480724 0)
(10.242 0.00662606 0)
(10.2739 0.0765446 0)
(10.2796 0.131665 0)
(10.2672 0.156536 0)
(10.2545 0.153581 0)
(10.2576 0.135256 0)
(10.2855 0.11706 0)
(10.3362 0.108534 0)
(10.4039 0.114439 0)
(10.4785 0.13386 0)
(10.1359 0.143604 0)
(10.2451 0.038805 0)
(10.1891 -0.031241 0)
(10.0737 -0.0326644 0)
(10.0867 -0.013635 0)
(10.1768 -0.00270175 0)
(10.2544 -0.00291875 0)
(10.2866 -0.00145531 0)
(10.2897 0.018772 0)
(10.2932 0.0575402 0)
(10.3126 0.0982313 0)
(10.3469 0.123538 0)
(10.3882 0.125759 0)
(10.4274 0.107209 0)
(10.4608 0.0784651 0)
(10.4908 0.052224 0)
(10.521 0.0368951 0)
(10.5593 0.0395085 0)
(10.1186 0.0699564 0)
(10.1486 0.1018 0)
(10.2151 0.090404 0)
(10.2276 0.0384834 0)
(10.2218 -0.0555368 0)
(10.1994 -0.115098 0)
(10.1705 -0.107184 0)
(10.1612 -0.0538058 0)
(10.1861 0.00947951 0)
(10.2447 0.058144 0)
(10.3271 0.0842735 0)
(10.4159 0.0903908 0)
(10.4912 0.083258 0)
(10.54 0.0705972 0)
(10.5563 0.0575598 0)
(10.547 0.0473031 0)
(10.5213 0.0399689 0)
(10.4957 0.0365187 0)
(9.91686 0.0464446 0)
(10.0366 0.00796329 0)
(10.1119 -0.0252613 0)
(10.163 -0.0275316 0)
(10.1818 -0.015048 0)
(10.1637 -0.00931559 0)
(10.139 -0.0150886 0)
(10.1392 -0.0282871 0)
(10.1684 -0.0372601 0)
(10.214 -0.032563 0)
(10.2626 -0.0146806 0)
(10.3074 0.00958314 0)
(10.3476 0.0336694 0)
(10.3854 0.0539746 0)
(10.4229 0.068564 0)
(10.4599 0.0768898 0)
(10.496 0.0789343 0)
(10.5288 0.0756559 0)
(10.0572 -0.124662 0)
(10.1345 -0.0376894 0)
(10.2186 0.0262579 0)
(10.2708 0.00359725 0)
(10.3184 -0.0386676 0)
(10.3552 -0.0661207 0)
(10.3663 -0.0692613 0)
(10.357 -0.0538303 0)
(10.3434 -0.0290568 0)
(10.3389 -0.00254159 0)
(10.3506 0.0184578 0)
(10.3802 0.029158 0)
(10.426 0.0293177 0)
(10.4837 0.0223862 0)
(10.5475 0.0129131 0)
(10.6107 0.00434654 0)
(10.6701 -0.00163592 0)
(10.7217 -0.00489544 0)
(10.1376 -0.0656343 0)
(9.9832 -0.0207841 0)
(10.0469 -0.0538223 0)
(10.1141 -0.060209 0)
(10.171 -0.0590029 0)
(10.1982 -0.0485829 0)
(10.1983 -0.0368968 0)
(10.1892 -0.032913 0)
(10.1881 -0.0342239 0)
(10.2064 -0.0341665 0)
(10.2489 -0.0309342 0)
(10.3129 -0.0266301 0)
(10.389 -0.0226557 0)
(10.4664 -0.0188874 0)
(10.5358 -0.0144773 0)
(10.5926 -0.00965292 0)
(10.6354 -0.00467306 0)
(10.6669 -0.000820316 0)
(9.84163 -0.011056 0)
(9.84876 -0.00692997 0)
(9.79267 -0.0245394 0)
(9.62875 -0.0449806 0)
(9.4172 -0.0622368 0)
(9.21934 -0.0631291 0)
(9.06252 -0.0525394 0)
(8.94178 -0.0402746 0)
(8.84289 -0.0321829 0)
(8.75644 -0.0303648 0)
(8.67518 -0.0345038 0)
(8.59324 -0.0423453 0)
(8.50796 -0.0502269 0)
(8.4225 -0.0545474 0)
(8.34194 -0.0536252 0)
(8.27317 -0.0484411 0)
(8.21706 -0.0406932 0)
(8.1781 -0.0332465 0)
(-0.218833 0.491714 4.20503e-20)
(-0.543153 0.254028 -4.16883e-20)
(-0.71972 0.0901442 0)
(-0.770015 -0.115844 0)
(-0.619037 -0.274911 0)
(-0.306272 -0.463445 4.05221e-20)
(0.171426 -0.596065 0)
(0.77487 -0.668901 0)
(1.41888 -0.689717 0)
(2.06092 -0.67199 0)
(2.67716 -0.624085 -3.84152e-20)
(3.24943 -0.556923 0)
(3.76107 -0.479823 0)
(4.2021 -0.399351 0)
(4.56909 -0.319963 0)
(4.86323 -0.243448 -3.57577e-20)
(5.08609 -0.170445 0)
(5.24183 -0.100343 0)
(5.32846 -0.0315145 0)
(5.35044 0.0388924 0)
(5.29764 0.114373 0)
(5.16879 0.198564 0)
(4.95688 0.290427 0)
(4.65837 0.392346 -3.35729e-20)
(4.25781 0.501985 3.35054e-20)
(3.7545 0.621983 -3.34643e-20)
(3.12372 0.741134 -3.34324e-20)
(2.38461 0.858794 0)
(1.49935 0.929545 0)
(0.568731 0.89541 3.31273e-20)
(-0.414786 0.0866072 3.28412e-20)
(-0.695247 -0.207033 0)
(-1.31247 0.929641 0)
(-2.09342 0.750616 3.14787e-20)
(-2.83488 0.342395 0)
(-3.45057 0.106999 0)
(-3.6114 -0.330767 -3.01014e-20)
(-3.26074 -0.785395 0)
(-2.49846 -1.27921 -3.00086e-20)
(-1.06183 -1.78267 -6.03008e-20)
(0.561246 -1.79909 0)
(2.10008 -1.49719 0)
(3.32377 -1.01075 0)
(4.05192 -0.456249 0)
(4.32757 -0.156308 0)
(4.29335 0.262326 -5.47785e-20)
(3.60541 0.596625 -5.4763e-20)
(2.75876 0.34001 -5.48986e-20)
(1.78997 1.07274 0)
(1.0416 0.962776 5.48584e-20)
(1.05023 -0.832869 0)
(1.19068 -1.67897 -5.40148e-20)
(1.17261 -0.896807 -5.33375e-20)
(0.412508 0.60306 0)
(-1.04559 1.09776 0)
(-2.29374 0.953773 0)
(-3.41688 0.876802 -5.08815e-20)
(-4.47341 0.809499 0)
(-5.44305 0.744674 0)
(-6.33618 0.679637 0)
(-7.1492 0.612747 0)
(-7.88311 0.545402 0)
(-8.53904 0.479452 0)
(-9.11977 0.416988 0)
(-9.62985 0.359596 0)
(-10.0748 0.308099 3.99231e-20)
(-10.4607 0.262583 0)
(-10.7934 0.222662 0)
(-11.0783 0.187628 -3.69169e-20)
(-11.3198 0.15657 -3.60427e-20)
(-11.5213 0.128645 0)
(-11.6852 0.10319 3.45018e-20)
(-11.8134 0.0797624 -3.38406e-20)
(-11.9071 0.058053 0)
(-11.9673 0.0378386 3.27469e-20)
(-11.9949 0.0190181 0)
(-11.9911 0.00165079 0)
(-11.9606 -0.0138761 -3.16768e-20)
(-11.9027 -0.0283926 0)
(-11.8194 -0.0417391 3.13175e-20)
(-11.7122 -0.0542231 0)
(-11.582 -0.0659191 -3.11986e-20)
(-11.43 -0.077063 -3.12146e-20)
(-11.2564 -0.0879144 -3.12731e-20)
(-11.0615 -0.0987634 -6.27377e-20)
(-10.8443 -0.109906 6.29942e-20)
(-10.604 -0.121544 0)
(-10.3388 -0.133805 0)
(-10.0472 -0.146644 0)
(-9.72753 -0.159893 6.45216e-20)
(-9.37877 -0.173227 6.49959e-20)
(-9.00063 -0.18626 -6.54932e-20)
(-8.59369 -0.198594 0)
(-8.15931 -0.20992 6.65229e-20)
(-7.6993 -0.220057 6.70376e-20)
(-7.21565 -0.228951 6.75406e-20)
(-6.71035 -0.236614 0)
(-6.18552 -0.243041 0)
(-5.64372 -0.248128 0)
(-5.08802 -0.251671 6.92586e-20)
(-4.52204 -0.253377 0)
(-3.94995 -0.252842 0)
(-3.37665 -0.249653 -6.99425e-20)
(-2.80777 -0.243635 0)
(-2.2494 -0.234892 0)
(-1.70741 -0.223663 -6.9817e-20)
(-1.18711 -0.210153 0)
(-0.692629 -0.195214 0)
(-0.228198 -0.179295 6.8829e-20)
(0.201049 -0.164956 6.82956e-20)
(0.598653 -0.149554 0)
(0.969012 -0.134945 -6.69923e-20)
(1.31131 -0.120732 0)
(1.62635 -0.106603 6.55458e-20)
(1.91378 -0.0937156 0)
(2.17395 -0.0855476 6.40194e-20)
(2.41228 -0.081439 6.32399e-20)
(2.63522 -0.0679408 0)
(2.83124 -0.0357486 0)
(2.97419 -0.00817438 0)
(3.06674 -0.0125165 0)
(3.14189 -0.0331041 0)
(3.21155 -0.0343412 0)
(3.24588 0.013036 0)
(3.18797 0.120682 5.70819e-20)
(2.9982 0.212601 -5.63463e-20)
(2.71763 0.144417 0)
(2.5071 -0.100312 0)
(2.56179 -0.333381 0)
(2.93984 -0.266437 0)
(3.22083 0.124796 -1.05769e-19)
(2.94939 0.382892 0)
(2.37812 0.246444 1.03042e-19)
(1.92876 -0.0518841 -1.01622e-19)
(1.83182 -0.228379 0)
(1.97765 -0.198094 0)
(1.99131 -0.0856987 0)
(1.85181 -0.0803021 9.71248e-20)
(1.93277 -0.171561 9.59817e-20)
(2.32344 -0.204751 0)
(2.66167 -0.112223 9.34426e-20)
(2.51044 0.0538754 9.18137e-20)
(1.66517 0.304426 -9.00752e-20)
(0.0011089 0.586728 0)
(-2.10343 0.679702 0)
(-4.07315 0.603843 -7.85908e-20)
(-5.64166 0.459927 0)
(-6.74383 0.309182 0)
(-7.39714 0.170289 0)
(-7.65801 0.053602 0)
(-7.57974 -0.0344644 5.99716e-20)
(-7.24947 -0.108135 5.96254e-20)
(-6.68799 -0.166474 0)
(-5.96497 -0.205554 6.1389e-20)
(-5.13084 -0.228828 0)
(-4.23694 -0.236656 0)
(-3.32665 -0.231969 6.556e-20)
(-2.43459 -0.218957 0)
(-1.58627 -0.201425 6.70879e-20)
(-0.797005 -0.182524 0)
(-0.077857 -0.163427 0)
(0.573962 -0.146318 6.67644e-20)
(1.16548 -0.128586 0)
(1.69115 -0.11067 6.52438e-20)
(2.14711 -0.0936748 0)
(2.53492 -0.0800473 0)
(2.86538 -0.0699653 0)
(3.14868 -0.061409 -6.09117e-20)
(3.38512 -0.0493819 0)
(3.56418 -0.0356826 5.86063e-20)
(3.72621 -0.056434 0)
(4.06175 -0.196332 0)
(4.9701 -0.396048 0)
(6.61062 -0.224819 0)
(7.1945 0.332339 0)
(5.62596 0.528846 0)
(3.82321 0.247421 0)
(2.99065 -0.0265799 -1.00465e-19)
(2.79373 -0.0681031 0)
(2.7016 -0.0500807 0)
(0.0201476 0.968451 -1.26177e-19)
(0.0359991 0.744193 1.25266e-19)
(0.0747079 0.323628 0)
(0.298623 -0.0818404 -8.21726e-20)
(0.788446 -0.665011 0)
(1.4361 -1.21673 -4.03138e-20)
(2.13843 -1.61091 7.95405e-20)
(2.83895 -1.83817 7.85711e-20)
(3.49121 -1.91101 0)
(4.08247 -1.86512 7.65055e-20)
(4.60745 -1.73566 3.81349e-20)
(5.06384 -1.55485 0)
(5.45111 -1.34801 0)
(5.77172 -1.13268 0)
(6.0294 -0.919804 0)
(6.22897 -0.714949 3.56027e-20)
(6.37507 -0.519703 0)
(6.47196 -0.332295 -6.89583e-20)
(6.5245 -0.150491 0)
(6.53332 0.0295008 0)
(6.50163 0.211679 6.72162e-20)
(6.42884 0.401533 0)
(6.3035 0.603741 -6.64174e-20)
(6.1308 0.825117 3.34181e-20)
(5.89382 1.06457 -3.33305e-20)
(5.60095 1.32696 3.32652e-20)
(5.21939 1.59583 3.32056e-20)
(4.76956 1.8744 0)
(4.19473 2.10109 0)
(3.52202 2.28373 -3.28196e-20)
(2.64165 2.20632 3.21122e-20)
(1.5976 1.83688 0)
(0.331917 1.37947 0)
(-0.109367 1.4467 -3.15957e-20)
(-0.703123 1.54157 0)
(-1.14055 1.0874 0)
(-1.25444 0.198734 3.02447e-20)
(-1.18287 -1.01494 0)
(-0.822014 -2.29657 -2.94692e-20)
(0.138299 -3.62039 6.02134e-20)
(0.9485 -3.77083 0)
(1.82672 -3.1252 0)
(2.43083 -2.12134 1.12586e-19)
(2.86467 -1.06481 1.10514e-19)
(2.87309 -0.0871376 1.09148e-19)
(2.77462 0.823819 -5.35102e-20)
(2.43785 1.53801 5.48091e-20)
(1.89766 1.84265 1.64034e-19)
(1.4002 1.46004 -1.09515e-19)
(1.3088 0.11795 -5.48354e-20)
(0.236927 0.576833 0)
(-1.97416 1.65241 5.38713e-20)
(-3.4759 2.08081 -5.26521e-20)
(-4.47513 2.37016 0)
(-5.46776 2.33084 0)
(-6.25886 2.1775 0)
(-7.00424 2.00714 5.04292e-20)
(-7.66379 1.83185 0)
(-8.25592 1.6573 -9.51534e-20)
(-8.7823 1.48991 0)
(-9.25105 1.32915 -9.04853e-20)
(-9.66836 1.17804 0)
(-10.0393 1.03701 8.57937e-20)
(-10.3688 0.907294 0)
(-10.661 0.789156 -8.13003e-20)
(-10.9203 0.682582 3.93336e-20)
(-11.1505 0.587127 0)
(-11.3542 0.501735 7.52017e-20)
(-11.5333 0.424858 3.68743e-20)
(-11.6889 0.354708 3.60092e-20)
(-11.8213 0.289646 0)
(-11.9303 0.228339 3.41558e-20)
(-12.0153 0.169854 3.38255e-20)
(-12.0757 0.113782 0)
(-12.1111 0.0600274 -3.27392e-20)
(-12.1213 0.00855232 6.43339e-20)
(-12.1065 -0.0402775 0)
(-12.0635 -0.0861137 3.16699e-20)
(-11.9952 -0.129221 0)
(-11.9019 -0.169417 -9.37011e-20)
(-11.7848 -0.20695 0)
(-11.6454 -0.242129 9.33744e-20)
(-11.4842 -0.275543 3.12045e-20)
(-11.302 -0.307941 -3.10967e-20)
(-11.0986 -0.340172 -6.24027e-20)
(-10.8735 -0.373066 6.26705e-20)
(-10.6253 -0.407281 0)
(-10.3526 -0.443189 0)
(-10.0534 -0.480738 0)
(-9.72617 -0.519438 -1.93171e-19)
(-9.3699 -0.558395 -6.49628e-20)
(-8.98438 -0.596469 6.5458e-20)
(-8.57038 -0.63251 0)
(-8.12944 -0.665618 6.61524e-20)
(-7.6635 -0.695292 -6.69965e-20)
(-7.17452 -0.721407 -6.74979e-20)
(-6.66428 -0.744013 0)
(-6.13452 -0.763086 0)
(-5.58734 -0.778357 0)
(-5.02546 -0.789285 -6.92116e-20)
(-4.45239 -0.794992 0)
(-3.87254 -0.794202 1.3923e-19)
(-3.29146 -0.785653 2.09456e-19)
(-2.71561 -0.76886 -1.39707e-19)
(-2.15165 -0.744192 0)
(-1.60596 -0.712511 -6.96362e-20)
(-1.08447 -0.674353 0)
(-0.590916 -0.631809 -1.38334e-19)
(-0.130352 -0.586844 6.87122e-20)
(0.295574 -0.543974 6.81844e-20)
(0.691872 -0.500185 0)
(1.06138 -0.459231 2.00814e-19)
(1.406 -0.421155 -1.32448e-19)
(1.72858 -0.384811 -6.55147e-20)
(2.03099 -0.348666 0)
(2.31196 -0.313628 -6.39909e-20)
(2.56619 -0.2846 -1.89606e-19)
(2.79431 -0.261171 0)
(3.01363 -0.227414 -1.23264e-19)
(3.23406 -0.172558 -1.21697e-19)
(3.42236 -0.116461 -1.20136e-19)
(3.53754 -0.0786717 0)
(3.59751 -0.0453592 0)
(3.65688 5.3035e-05 0)
(3.73856 0.0496741 5.7013e-20)
(3.84959 0.110859 5.62862e-20)
(3.95155 0.208719 0)
(3.89725 0.236568 1.09551e-19)
(3.60823 0.0167057 1.08197e-19)
(3.33061 -0.237549 0)
(3.42558 -0.151144 1.0571e-19)
(3.7903 0.164482 2.08514e-19)
(4.03739 0.417466 -1.0284e-19)
(3.96603 0.452805 -1.01392e-19)
(3.72292 0.217492 0)
(3.55968 0.0363501 0)
(3.41319 0.158813 0)
(3.14841 0.186635 -9.69788e-20)
(2.91615 -0.12984 9.60707e-20)
(2.73686 -0.305504 1.8977e-19)
(2.40271 0.0150189 -9.34183e-20)
(1.48104 0.645474 9.17834e-20)
(-0.176266 1.33113 8.99704e-20)
(-2.13547 1.74625 0)
(-3.92782 1.74777 0)
(-5.36987 1.48925 -7.63111e-20)
(-6.4587 1.12941 0)
(-7.20007 0.753173 0)
(-7.62131 0.397951 1.26779e-19)
(-7.76347 0.082837 0)
(-7.65689 -0.183101 5.8702e-20)
(-7.27981 -0.401936 -5.96e-20)
(-6.69916 -0.573373 0)
(-5.94832 -0.693492 6.05421e-20)
(-5.0883 -0.764117 0)
(-4.16972 -0.788452 0)
(-3.23219 -0.775249 -6.5513e-20)
(-2.30934 -0.735378 1.32684e-19)
(-1.42642 -0.681203 -6.70505e-20)
(-0.599221 -0.621541 0)
(0.161604 -0.563199 0)
(0.861295 -0.50831 6.66232e-20)
(1.5085 -0.452183 0)
(2.09391 -0.394203 6.51339e-20)
(2.60732 -0.336269 0)
(3.04207 -0.283967 0)
(3.40665 -0.240189 0)
(3.71803 -0.200436 6.08722e-20)
(3.97086 -0.1587 0)
(4.13683 -0.126092 -5.85748e-20)
(4.26494 -0.170847 0)
(4.53622 -0.437113 0)
(5.11542 -0.874746 1.11263e-19)
(6.27826 -0.82641 -1.0929e-19)
(7.74135 0.0819179 0)
(7.95523 0.948318 0)
(7.02242 0.982717 0)
(5.90832 0.489637 3.00576e-19)
(5.03448 0.17871 0)
(4.43757 0.092085 -1.9646e-19)
(0.091688 0.553008 -8.99747e-23)
(0.177827 0.309877 -1.67071e-19)
(0.571154 -0.379345 0)
(1.34889 -1.43668 1.63472e-19)
(2.22788 -2.38907 0)
(3.05885 -3.03775 0)
(3.77767 -3.36613 -7.01914e-22)
(4.36688 -3.42877 -7.80552e-20)
(4.83415 -3.29487 -7.60484e-20)
(5.20141 -3.0338 -7.61477e-20)
(5.4861 -2.70159 0)
(5.70254 -2.33949 0)
(5.8639 -1.97511 7.20789e-20)
(5.98209 -1.62486 1.42405e-19)
(6.06657 -1.29694 -1.40747e-19)
(6.12498 -0.993478 0)
(6.16272 -0.712895 -1.37744e-19)
(6.18286 -0.45108 6.90043e-20)
(6.18291 -0.202781 0)
(6.16513 0.0388399 -1.34072e-19)
(6.1258 0.280271 -6.72648e-20)
(6.07271 0.528279 1.3206e-19)
(6.00008 0.790733 6.64235e-20)
(5.91404 1.07617 0)
(5.79844 1.38608 -1.29886e-19)
(5.6691 1.72604 -1.29372e-19)
(5.49546 2.0855 0)
(5.30495 2.46426 -1.28498e-19)
(5.03836 2.8212 0)
(4.73668 3.13892 -1.2761e-19)
(4.28956 3.34065 -6.43212e-20)
(3.75981 3.3832 0)
(2.91811 3.17052 0)
(2.12738 2.64616 0)
(1.4165 2.07472 0)
(0.974573 1.27558 0)
(0.693306 0.0955052 0)
(0.580117 -1.3042 -1.20523e-19)
(0.471434 -2.8524 1.79309e-19)
(0.628475 -4.26941 0)
(0.664644 -4.49007 0)
(0.821076 -3.64775 0)
(0.865955 -2.40399 -3.51368e-22)
(0.781448 -1.08855 -1.10962e-19)
(0.631766 0.181607 -2.1885e-19)
(0.292159 1.13663 2.17408e-19)
(-0.0191882 1.71162 1.08403e-19)
(-0.45325 1.91969 -1.09365e-19)
(-1.25313 2.13553 7.59631e-22)
(-2.64302 2.65217 -1.07975e-19)
(-3.99687 3.14802 0)
(-5.14604 3.28889 -1.05556e-19)
(-5.91914 3.33098 8.48921e-22)
(-6.51293 3.31827 0)
(-6.97451 3.16434 0)
(-7.35408 2.94842 9.93419e-20)
(-7.71036 2.69859 0)
(-8.04814 2.45437 0)
(-8.38024 2.21785 -9.21874e-20)
(-8.70873 1.99835 -1.8298e-19)
(-9.03193 1.79244 9.04522e-20)
(-9.3484 1.60135 0)
(-9.65322 1.4235 -8.58008e-20)
(-9.94319 1.25916 0)
(-10.2147 1.10826 -7.99352e-20)
(-10.4662 0.970853 -7.92014e-20)
(-10.6967 0.846463 1.532e-19)
(-10.9064 0.733666 7.41791e-20)
(-11.0953 0.630299 0)
(-11.263 0.533913 -1.42434e-19)
(-11.4086 0.442263 0)
(-11.5308 0.353621 -2.05071e-19)
(-11.6278 0.266876 -1.33793e-19)
(-11.6983 0.18154 -1.31491e-19)
(-11.7413 0.0976151 1.29504e-19)
(-11.7563 0.0155405 -1.92206e-19)
(-11.7433 -0.0638213 0)
(-11.703 -0.139852 0)
(-11.636 -0.211365 1.24605e-19)
(-11.5436 -0.27807 1.86517e-19)
(-11.4273 -0.340015 0)
(-11.2884 -0.397824 -6.2205e-20)
(-11.1282 -0.452521 0)
(-10.9473 -0.505475 1.86595e-19)
(-10.746 -0.558236 4.96127e-22)
(-10.5237 -0.612301 -4.75179e-22)
(-10.2795 -0.668888 -1.25821e-19)
(-10.0118 -0.728639 0)
(-9.71916 -0.79145 1.27334e-19)
(-9.40003 -0.85637 4.82037e-22)
(-9.0536 -0.921749 0)
(-8.67988 -0.985517 0)
(-8.2798 -1.04565 0)
(-7.85497 -1.10066 -1.326e-19)
(-7.40716 -1.14986 0)
(-6.93773 -1.19325 0)
(-6.44738 -1.23111 0)
(-5.93637 -1.26341 0)
(-5.40511 -1.28956 0)
(-4.85471 -1.30834 -1.37503e-19)
(-4.28735 -1.31795 0)
(-3.70687 -1.31585 -1.39145e-19)
(-3.11915 -1.29956 -1.39476e-19)
(-2.53163 -1.26811 1.39628e-19)
(-1.95287 -1.22228 0)
(-1.39283 -1.16424 1.39351e-19)
(-0.861416 -1.09604 0)
(-0.366589 -1.02178 1.38285e-19)
(0.0835306 -0.947965 -1.37424e-19)
(0.488809 -0.875319 -4.08764e-19)
(0.856522 -0.805251 0)
(1.19127 -0.740354 -4.01152e-19)
(1.49908 -0.681298 -1.3222e-19)
(1.78619 -0.62673 0)
(2.05806 -0.573895 -2.58723e-19)
(2.31692 -0.521286 -2.55684e-19)
(2.55936 -0.47194 3.78962e-19)
(2.78003 -0.430037 0)
(2.98297 -0.387794 1.23237e-19)
(3.18247 -0.325463 1.21675e-19)
(3.37343 -0.241053 3.60299e-19)
(3.52249 -0.16511 0)
(3.62044 -0.123317 0)
(3.70654 -0.0918297 0)
(3.81176 -0.0333262 1.13981e-19)
(3.91645 0.0514231 0)
(3.99734 0.158165 0)
(4.04796 0.215731 -1.09512e-19)
(4.02265 0.0855921 -1.0815e-19)
(3.84972 -0.158716 0)
(3.68597 -0.22565 0)
(3.77725 -0.0385943 -2.08544e-19)
(4.02788 0.212277 0)
(4.17276 0.290143 2.02707e-19)
(4.10397 0.0868736 2.00399e-19)
(3.9139 -0.0591544 0)
(3.72334 0.160797 0)
(3.53545 0.313901 -1.93881e-19)
(3.26825 0.100381 1.87979e-22)
(2.67895 0.105796 2.74236e-22)
(1.67291 0.730362 0)
(0.239735 1.65639 -3.66747e-19)
(-1.40641 2.43804 0)
(-2.92364 2.74007 0)
(-4.23566 2.5989 0)
(-5.40169 2.18467 1.54469e-19)
(-6.37682 1.65603 0)
(-7.08538 1.10465 -2.63706e-19)
(-7.50669 0.580884 -1.26754e-19)
(-7.64844 0.102836 0)
(-7.5228 -0.320346 -1.18647e-19)
(-7.14897 -0.67508 0)
(-6.55949 -0.954382 0)
(-5.8045 -1.1538 -3.6275e-19)
(-4.94327 -1.2711 2.47669e-19)
(-4.03232 -1.31345 0)
(-3.11699 -1.29519 2.60058e-19)
(-2.22207 -1.23282 -1.32584e-19)
(-1.36789 -1.14562 0)
(-0.566431 -1.04985 0)
(0.174357 -0.958464 0)
(0.863575 -0.870835 -3.99437e-19)
(1.51465 -0.781957 0)
(2.12461 -0.686031 -1.30259e-19)
(2.68074 -0.583534 0)
(3.15642 -0.487593 0)
(3.53898 -0.411603 0)
(3.85761 -0.345448 0)
(4.14967 -0.259928 0)
(4.3796 -0.174328 0)
(4.52247 -0.229443 -2.29216e-19)
(4.74499 -0.627309 0)
(5.27845 -1.28676 -1.11172e-19)
(6.20799 -1.42462 3.26178e-19)
(7.4662 -0.403489 0)
(8.24678 0.914987 0)
(7.94128 1.31393 -2.01847e-19)
(6.94186 0.930155 -2.00061e-19)
(5.81556 0.566744 1.98378e-19)
(4.90776 0.436724 1.96265e-19)
(-0.113016 0.259928 2.52825e-19)
(0.287554 -0.389905 2.50441e-19)
(1.4287 -2.25062 1.64492e-19)
(2.48299 -3.64138 8.05352e-20)
(3.33449 -4.40035 0)
(3.95656 -4.64316 -1.56493e-19)
(4.36643 -4.52587 7.60785e-20)
(4.60988 -4.1846 0)
(4.73813 -3.72304 7.60239e-20)
(4.79564 -3.21668 0)
(4.81506 -2.71439 -1.46135e-19)
(4.81771 -2.24361 0)
(4.81741 -1.81669 -7.2287e-20)
(4.82203 -1.43628 -1.42852e-19)
(4.83541 -1.09948 1.41214e-19)
(4.8574 -0.800018 0)
(4.88465 -0.529999 1.38221e-19)
(4.91381 -0.281374 0)
(4.94121 -0.044203 0)
(4.96341 0.191325 1.34512e-19)
(4.97732 0.435457 0)
(4.98407 0.694174 -1.43665e-21)
(4.9779 0.969861 0)
(4.96377 1.27063 0)
(4.93266 1.59907 1.62576e-21)
(4.90033 1.95784 1.29403e-19)
(4.84855 2.34121 1.27224e-19)
(4.80494 2.74838 1.28549e-19)
(4.73184 3.15816 0)
(4.66424 3.55246 2.53428e-19)
(4.53166 3.88532 0)
(4.36597 4.09827 1.2501e-19)
(4.05881 4.14287 0)
(3.60144 3.84053 0)
(3.05308 3.20404 -1.23595e-19)
(2.52058 2.25778 0)
(2.05692 0.983359 1.22889e-19)
(1.51487 -0.560962 -2.20375e-21)
(1.03215 -2.29678 -2.41525e-19)
(0.538907 -3.727 2.41593e-19)
(-0.0480171 -3.88819 0)
(-0.669096 -2.98991 0)
(-1.21802 -1.71741 1.16074e-19)
(-1.78132 -0.463146 0)
(-2.22838 0.811392 1.08706e-19)
(-2.7085 1.87938 -1.078e-19)
(-3.22281 2.74926 -1.0758e-19)
(-3.89569 3.41159 0)
(-4.66945 3.89439 1.07705e-19)
(-5.44024 4.17039 1.07111e-19)
(-5.99196 4.21157 -2.10144e-19)
(-6.39325 4.10341 1.05133e-19)
(-6.67501 3.95484 1.0377e-19)
(-6.9114 3.76909 0)
(-7.11428 3.54744 0)
(-7.3257 3.31176 -9.92918e-20)
(-7.55044 3.07142 0)
(-7.80014 2.84182 0)
(-8.07093 2.61945 1.87217e-19)
(-8.35984 2.40732 1.82985e-19)
(-8.65531 2.19979 0)
(-8.94874 1.99654 0)
(-9.23022 1.79716 0)
(-9.49442 1.60472 0)
(-9.73855 1.42285 1.61321e-19)
(-9.96304 1.25464 -1.55792e-19)
(-10.1697 1.10102 -1.53282e-19)
(-10.3605 0.960771 -2.97739e-19)
(-10.5362 0.831062 0)
(-10.6961 0.708442 1.22139e-21)
(-10.8382 0.589729 0)
(-10.9596 0.472615 1.36506e-19)
(-11.0572 0.355769 1.24324e-21)
(-11.1288 0.238573 1.31608e-19)
(-11.1723 0.121702 -1.29627e-19)
(-11.1862 0.00684073 1.22284e-21)
(-11.1697 -0.105225 0)
(-11.1238 -0.21193 -1.24373e-19)
(-11.0491 -0.312237 -1.24708e-19)
(-10.9477 -0.405772 -2.47429e-19)
(-10.8215 -0.492526 0)
(-10.6725 -0.573326 1.23073e-19)
(-10.5027 -0.64953 0)
(-10.3135 -0.723038 -2.47934e-19)
(-10.1059 -0.796008 1.24729e-19)
(-9.8804 -0.870537 -1.25264e-19)
(-9.63688 -0.948296 1.25895e-19)
(-9.37472 -1.03015 2.52051e-19)
(-9.09301 -1.11588 -1.27396e-19)
(-8.79087 -1.20408 1.28247e-19)
(-8.46772 -1.29244 0)
(-8.12364 -1.37815 -2.58897e-19)
(-7.75945 -1.45864 0)
(-7.3765 -1.53222 -2.62748e-19)
(-6.97601 -1.59851 2.64686e-19)
(-6.55827 -1.65826 2.66593e-19)
(-6.12229 -1.71254 -2.68444e-19)
(-5.66594 -1.76176 -2.70216e-19)
(-5.18684 -1.80502 0)
(-4.6833 -1.8401 -1.35994e-19)
(-4.15488 -1.86354 0)
(-3.60323 -1.87053 0)
(-3.0323 -1.85605 -2.76797e-19)