/*--------------------------------*- C++ -*----------------------------------*\
| =========                 |                                                 |
| \\      /  F ield         | OpenFOAM: The Open Source CFD Toolbox           |
|  \\    /   O peration     | Version:  2112                                  |
|   \\  /    A nd           | Website:  www.openfoam.com                      |
|    \\/     M anipulation  |                                                 |
\*---------------------------------------------------------------------------*/
FoamFile
{
    version     2.0;
    format      ascii;
    arch        "LSB;label=32;scalar=64";
    class       volScalarField;
    location    "0.33";
    object      omegaU_0;
}
// * * * * * * * * * * * * * * * * * * * * * * * * * * * * * * * * * * * * * //

dimensions      [0 0 -1 0 0 0 0];

internalField   nonuniform List<scalar> 
12225
(
52304.8
72146.3
78124
78988.2
78103.3
76678.6
75150.8
73618.2
72126.3
70706.1
69374.1
68134.6
66982.4
65893.9
64839.5
63861.8
62760.2
61375.3
4125.67
8502.51
12131.5
15015.7
17300.3
19167.1
20805
22347.3
23839.4
25288.3
26688.8
28028.3
29281.5
30426.3
31427.3
32244
32861.5
33112.4
538.695
987.808
1643.24
2392.04
3171.43
3939.55
4694.36
5457.16
6236.2
7037.81
7871.81
8751.31
9686.84
10688
11753.6
12876.8
14046.5
15243.7
398.81
422.863
476.917
560.758
681.522
839.81
1026.06
1227.11
1443.33
1675.29
1923.49
2190.67
2484.86
2818.46
3203.5
3653.74
4180.44
4800.74
394.983
394.655
396.256
400.932
410.666
427.135
450.375
478.83
512.375
550.922
596.637
653.334
721.315
799.457
888.915
994.022
1119.97
1272.95
394.899
393.728
392.674
391.812
391.29
391.287
391.963
393.431
395.798
399.154
403.881
410.602
419.547
430.566
443.734
459.575
478.727
501.981
394.888
393.692
392.546
391.451
390.412
389.44
388.542
387.731
387.02
386.425
385.968
385.686
385.627
385.839
386.38
387.328
388.776
390.818
394.879
393.679
392.531
391.432
390.379
389.372
388.407
387.483
386.598
385.753
384.947
384.181
383.458
382.782
382.163
381.61
381.138
380.755
394.872
393.667
392.518
391.418
390.367
389.361
388.398
387.475
386.591
385.743
384.931
384.152
383.406
382.695
382.02
381.384
380.789
380.238
394.867
393.659
392.507
391.408
390.357
389.353
388.393
387.474
386.594
385.752
384.946
384.174
383.436
382.732
382.063
381.43
380.833
380.272
394.874
393.674
392.53
391.439
390.397
389.402
388.451
387.541
386.67
385.838
385.041
384.279
383.552
382.858
382.198
381.572
380.98
380.419
394.909
393.741
392.628
391.567
390.554
389.586
388.661
387.776
386.93
386.121
385.347
384.608
383.901
383.228
382.586
381.976
381.396
380.846
394.942
393.806
392.723
391.69
390.705
389.764
388.864
388.005
387.183
386.397
385.645
384.927
384.241
383.586
382.962
382.367
381.801
381.262
394.973
393.865
392.809
391.802
390.842
389.925
389.049
388.213
387.413
386.649
385.918
385.22
384.553
383.916
383.309
382.729
382.177
381.653
394.99
393.899
392.859
391.868
390.923
390.02
389.159
388.337
387.551
386.801
386.084
385.4
384.749
384.128
383.537
382.974
382.439
381.928
394.995
393.908
392.871
391.884
390.941
390.043
389.187
388.372
387.597
386.858
386.155
385.485
384.847
384.239
383.659
383.107
382.581
382.079
394.988
393.896
392.859
391.873
390.936
390.045
389.198
388.392
387.624
386.894
386.198
385.536
384.904
384.303
383.729
383.182
382.661
382.164
394.992
393.906
392.875
391.894
390.962
390.076
389.233
388.431
387.667
386.941
386.248
385.589
384.96
384.361
383.79
383.245
382.725
382.229
394.99
393.902
392.868
391.885
390.951
390.062
389.217
388.412
387.646
386.917
386.221
385.559
384.927
384.324
383.75
383.201
382.677
382.178
394.978
393.88
392.835
391.842
390.897
389.998
389.142
388.327
387.551
386.811
386.105
385.433
384.791
384.178
383.593
383.034
382.501
381.991
394.963
393.845
392.779
391.765
390.799
389.879
389.003
388.167
387.37
386.61
385.884
385.192
384.53
383.898
383.294
382.717
382.165
381.638
394.927
393.774
392.674
391.622
390.617
389.656
388.738
387.862
387.025
386.226
385.462
384.733
384.036
383.369
382.732
382.122
381.539
380.981
394.866
393.655
392.498
391.392
390.334
389.321
388.351
387.422
386.533
385.681
384.867
384.089
383.345
382.634
381.953
381.303
380.68
380.084
394.841
393.605
392.422
391.289
390.204
389.165
388.17
387.216
386.301
385.425
384.585
383.781
383.011
382.275
381.573
380.903
380.264
379.654
394.846
393.61
392.422
391.28
390.185
389.139
388.143
387.2
386.312
385.484
384.721
384.032
383.419
382.886
382.435
382.065
381.779
381.576
394.851
393.63
392.511
391.553
390.831
390.414
390.365
390.743
391.61
393.046
395.306
398.508
402.468
407.114
412.393
418.258
424.676
431.611
395.119
395.524
399.044
407.59
421.011
439.003
461.402
488.095
519.078
554.652
597.586
648.237
703.48
762.232
823.896
888.114
954.654
1023.25
423.304
503.479
646.324
855.654
1096.98
1355.13
1622.84
1896.66
2176.33
2462.49
2753.05
3047.21
3346.2
3649.06
3954.64
4262.16
4571.49
4883.15
1910.61
3959.1
5886.04
7569.63
9008.57
10231.2
11281.3
12207.5
13055.5
13855.3
14620.7
15357
16066.6
16750.5
17409.3
18044
18656.2
19245.4
34898.1
51342.1
58076.3
60444
60979.2
60766
60250.5
59618
58942.9
58248.1
57544.5
56839.8
56140.9
55454.9
54788.8
54149.4
53538.8
52961.8
188.074
194.551
208.41
227.686
251.027
277.062
304.731
333.395
362.759
392.73
423.319
454.579
486.588
519.432
553.202
587.98
623.848
660.884
699.167
738.783
779.834
822.458
866.79
912.733
959.976
1008.38
1057.99
1108.78
1160.64
1213.42
1266.98
1321.25
1376.19
1431.81
1488.18
1545.32
1603.21
1661.81
1721.07
1780.91
1841.26
1902.04
1963.17
2024.57
2086.19
2147.96
2209.84
2271.76
2333.63
2395.4
2457.02
2518.45
2579.63
2640.54
2701.17
2761.58
2821.91
2882.38
2943.5
3004.99
3065.75
3125.5
3184.11
3241.5
3297.61
3352.36
3405.73
3457.66
3508.13
3557.11
3604.57
3650.47
3694.76
3737.39
3778.3
3817.44
3854.77
3890.28
3924
3955.93
3986.01
4014.25
4040.61
4065.1
4087.75
4108.58
4127.64
4144.97
4160.64
4174.78
4187.62
4199.59
4210.34
4219.22
4226.08
4230.81
4233.32
4233.89
4232.77
4230
4225.64
4219.72
4212.25
4203.24
4192.67
4180.52
4166.8
4151.53
4134.77
4116.58
4097.01
4076.09
4053.86
4030.33
4005.53
3979.5
3952.29
3924.02
3894.99
3865.81
3837.62
3811.39
3784.26
3756.03
3726.64
3696.06
3664.16
3630.78
3595.8
3559.17
3520.81
3480.67
3438.7
3394.84
3348.97
3300.96
3250.66
3197.94
3142.67
3084.7
3023.93
2960.33
2893.82
2824.35
2751.89
2676.49
2598.22
2517.22
2433.65
2347.72
2259.66
2169.65
2077.79
1984.21
1888.98
1792.18
1693.97
1594.65
1494.7
1394.68
1295.25
1197.15
1101.21
1008.32
919.424
835.452
757.312
685.843
621.784
565.773
518.345
480.021
451.741
433.15
422.088
417.993
421.151
431.191
448.032
472.908
196.3
197.936
207.422
222.268
240.972
262.024
284.298
307.147
330.301
353.698
377.379
401.415
425.883
450.851
476.376
502.504
529.271
556.7
584.805
613.582
643.013
673.058
703.641
734.699
766.21
798.15
830.504
863.256
896.39
929.879
963.691
997.8
1032.18
1066.81
1101.63
1136.62
1171.73
1206.93
1242.17
1277.4
1312.57
1347.64
1382.53
1417.22
1451.62
1485.68
1519.34
1552.56
1585.27
1617.46
1649.09
1680.11
1710.5
1740.22
1769.2
1797.39
1824.69
1850.93
1875.82
1899.45
1922.23
1944.18
1965.28
1985.54
2004.96
2023.54
2041.3
2058.22
2074.32
2089.58
2104
2117.57
2130.29
2142.16
2153.19
2163.39
2172.79
2181.38
2189.18
2196.2
2202.46
2207.99
2212.81
2216.93
2220.39
2223.19
2225.37
2226.94
2227.93
2228.35
2228.21
2227.44
2225.98
2223.84
2221.01
2217.55
2213.73
2209.61
2204.99
2199.85
2194.19
2188.02
2181.33
2174.15
2166.48
2158.33
2149.71
2140.6
2130.99
2120.88
2110.26
2099.11
2087.43
2075.21
2062.46
2049.19
2035.4
2021.07
2006.11
1990.27
1973.03
1953.82
1934.09
1913.89
1893.24
1872.17
1850.74
1829.03
1807.08
1784.92
1762.56
1739.99
1717.22
1694.22
1671.02
1647.66
1624.17
1600.56
1576.84
1552.99
1528.98
1504.74
1480.2
1455.26
1429.86
1403.88
1377.22
1349.8
1321.5
1292.21
1261.81
1230.22
1197.38
1163.24
1127.79
1091.05
1053.06
1013.86
973.537
932.183
889.954
847.059
803.771
760.43
717.442
675.279
634.468
595.577
559.2
525.94
496.398
471.227
451.26
436.96
428.305
425.162
427.773
435.919
449.696
470.166
217.841
208.566
211.588
221.844
236.953
254.865
274.109
293.86
313.765
333.738
353.806
374.038
394.5
415.25
436.326
457.754
479.547
501.703
524.209
547.042
570.169
593.548
617.137
640.899
664.802
688.824
712.944
737.145
761.408
785.71
810.025
834.32
858.559
882.699
906.696
930.508
954.092
977.405
1000.41
1023.05
1045.3
1067.11
1088.44
1109.27
1129.55
1149.25
1168.36
1186.86
1204.73
1221.93
1238.45
1254.25
1269.31
1283.64
1297.21
1310.02
1322.07
1333.35
1343.89
1353.76
1363.04
1371.74
1379.88
1387.46
1394.49
1401
1406.97
1412.42
1417.33
1421.71
1425.56
1428.89
1431.72
1434.08
1435.98
1437.45
1438.51
1439.16
1439.39
1439.23
1438.69
1437.8
1436.57
1435.01
1433.12
1430.89
1428.31
1425.37
1422.04
1418.28
1414.01
1409.08
1403.67
1398.06
1392.32
1386.51
1380.9
1375.2
1369.35
1363.31
1357.07
1350.62
1343.96
1337.11
1330.07
1322.86
1315.49
1307.91
1300.12
1292.08
1283.76
1275.16
1266.26
1257.08
1247.6
1237.84
1227.8
1217.49
1206.89
1195.95
1184.6
1172.89
1160.98
1148.92
1136.72
1124.41
1112.05
1099.69
1087.38
1075.14
1062.97
1050.91
1038.97
1027.19
1015.56
1004.11
992.848
981.801
971.001
960.48
950.254
940.306
930.598
921.082
911.695
902.349
892.943
883.371
873.524
863.294
852.578
841.298
829.398
816.825
803.539
789.514
774.724
759.112
742.62
725.197
706.818
687.489
667.255
646.205
624.484
602.297
579.924
557.716
536.101
515.571
496.675
480.037
466.36
456.149
449.749
447.362
449.079
454.822
464.824
480.167
250.372
223.995
218.611
223.661
235.373
250.84
268.054
285.897
303.874
321.834
339.779
357.759
375.83
394.034
412.4
430.939
449.652
468.525
487.54
506.668
525.878
545.139
564.416
583.679
602.899
622.045
641.089
660.003
678.76
697.327
715.671
733.76
751.556
769.019
786.108
802.782
819.003
834.733
849.936
864.579
878.63
892.062
904.85
916.974
928.42
939.178
949.242
958.61
967.286
975.276
982.591
989.249
995.275
1000.7
1005.55
1009.85
1013.64
1016.95
1019.81
1022.27
1024.33
1026.02
1027.36
1028.35
1029
1029.33
1029.35
1029.06
1028.49
1027.65
1026.56
1025.23
1023.7
1021.98
1020.09
1018.05
1015.85
1013.52
1011.05
1008.46
1005.75
1002.93
1000
996.964
993.808
990.526
987.104
983.528
979.781
975.841
971.685
967.294
962.81
958.405
954.121
950.167
946.254
942.32
938.345
934.319
930.23
926.072
921.84
917.536
913.159
908.714
904.194
899.593
894.9
890.107
885.209
880.208
875.106
869.906
864.607
859.21
853.716
848.125
842.439
836.658
830.796
824.877
818.936
812.987
807.038
801.098
795.179
789.299
783.469
777.699
772
766.389
760.889
755.517
750.286
745.206
740.291
735.551
730.992
726.617
722.421
718.396
714.534
710.825
707.251
703.779
700.359
696.934
693.443
689.82
686.002
681.936
677.583
672.914
667.908
662.547
656.804
650.633
643.972
636.759
628.937
620.462
611.305
601.461
590.957
579.856
568.268
556.361
544.372
532.608
521.416
511.231
502.519
495.583
491.058
489.077
489.698
492.923
499.031
508.931
295.46
244.8
228.695
227.672
235.861
249.132
264.76
281.242
297.897
314.494
330.999
347.442
363.866
380.303
396.771
413.276
429.81
446.36
462.902
479.41
495.856
512.207
528.434
544.504
560.385
576.047
591.461
606.597
621.423
635.903
650.004
663.698
676.952
689.732
702.003
713.733
724.891
735.451
745.386
754.678
763.311
771.273
778.56
785.174
791.123
796.422
801.09
805.151
808.634
811.57
813.995
815.942
817.448
818.55
819.279
819.669
819.75
819.549
819.093
818.403
817.499
816.397
815.115
813.669
812.074
810.345
808.5
806.553
804.52
802.419
800.263
798.067
795.843
793.602
791.352
789.101
786.854
784.618
782.395
780.19
778.003
775.835
773.685
771.55
769.424
767.301
765.175
763.039
760.888
758.717
756.524
754.31
752.155
750.151
748.356
746.703
745.067
743.423
741.763
740.08
738.369
736.626
734.849
733.036
731.186
729.299
727.371
725.4
723.384
721.319
719.205
717.043
714.836
712.583
710.288
707.954
705.583
703.18
700.75
698.298
695.834
693.367
690.903
688.446
686.001
683.574
681.172
678.804
676.475
674.192
671.957
669.778
667.661
665.615
663.648
661.767
659.979
658.289
656.694
655.194
653.784
652.46
651.216
650.045
648.934
647.868
646.827
645.79
644.729
643.619
642.428
641.132
639.709
638.144
636.42
634.524
632.437
630.13
627.566
624.707
621.511
617.942
613.969
609.57
604.74
599.49
593.857
587.902
581.742
575.565
569.506
563.81
558.796
554.524
551.418
549.731
549.508
550.739
553.641
558.85
352.308
270.406
241.135
233.1
237.52
248.657
262.897
278.273
293.893
309.432
324.816
340.057
355.186
370.227
385.192
400.084
414.892
429.603
444.194
458.639
472.911
486.979
500.813
514.382
527.657
540.611
553.216
565.442
577.257
588.633
599.542
609.961
619.863
629.222
638.016
646.222
653.822
660.803
667.157
672.879
677.973
682.448
686.32
689.612
692.352
694.571
696.306
697.595
698.475
698.986
699.165
699.049
698.671
698.065
697.259
696.283
695.16
693.915
692.567
691.135
689.636
688.088
686.504
684.899
683.288
681.683
680.096
678.539
677.021
675.552
674.139
672.789
671.508
670.299
669.165
668.11
667.135
666.241
665.429
664.699
664.049
663.477
662.981
662.555
662.195
661.896
661.653
661.461
661.316
661.215
661.157
661.142
661.211
661.414
661.767
662.151
662.533
662.901
663.249
663.573
663.868
664.132
664.362
664.556
664.714
664.833
664.913
664.954
664.955
664.916
664.838
664.722
664.569
664.381
664.161
663.91
663.632
663.331
663.008
662.668
662.313
661.947
661.57
661.186
660.799
660.413
660.032
659.661
659.303
658.963
658.642
658.346
658.078
657.841
657.639
657.475
657.349
657.264
657.218
657.211
657.241
657.304
657.399
657.52
657.662
657.818
657.978
658.135
658.275
658.389
658.463
658.487
658.449
658.34
658.151
657.876
657.503
657.02
656.407
655.641
654.697
653.555
652.193
650.594
648.747
646.655
644.326
641.765
639.03
636.281
633.556
630.94
628.484
626.179
624.281
623.049
622.537
622.712
623.677
625.787
420.724
300.429
255.461
239.481
239.859
248.841
261.769
276.155
290.87
305.489
319.9
334.097
348.102
361.934
375.602
389.108
402.442
415.589
428.528
441.237
453.688
465.854
477.707
489.221
500.372
511.135
521.485
531.399
540.849
549.814
558.275
566.214
573.615
580.462
586.744
592.452
597.582
602.136
606.12
609.547
612.437
614.816
616.714
618.167
619.213
619.893
620.246
620.314
620.133
619.742
619.175
618.462
617.636
616.722
615.745
614.73
613.694
612.658
611.638
610.648
609.702
608.813
607.992
607.249
606.594
606.035
605.578
605.23
604.995
604.876
604.877
604.998
605.24
605.602
606.084
606.685
607.403
608.236
609.182
610.238
611.399
612.661
614.02
615.468
617.001
618.611
620.291
622.037
623.842
625.701
627.612
629.572
631.606
633.738
635.915
638.085
640.233
642.349
644.428
646.465
648.455
650.396
652.284
654.118
655.897
657.621
659.29
660.905
662.466
663.975
665.433
666.841
668.201
669.516
670.786
672.014
673.202
674.352
675.466
676.545
677.591
678.605
679.588
680.542
681.471
682.378
683.266
684.139
684.999
685.849
686.693
687.532
688.369
689.205
690.044
690.885
691.731
692.582
693.44
694.304
695.173
696.046
696.921
697.795
698.666
699.529
700.382
701.223
702.05
702.859
703.647
704.41
705.142
705.833
706.475
707.063
707.594
708.064
708.469
708.8
709.036
709.172
709.198
709.104
708.873
708.511
708.019
707.406
706.699
705.964
705.227
704.501
703.733
702.857
702.007
701.388
701.062
700.998
701.196
701.802
500.068
334.373
271.237
246.448
242.517
249.284
260.913
274.35
288.211
301.97
315.473
328.702
341.671
354.396
366.887
379.146
391.164
402.927
414.417
425.614
436.494
447.035
457.213
467.008
476.4
485.369
493.896
501.962
509.55
516.644
523.234
529.311
534.868
539.9
544.408
548.395
551.869
554.845
557.343
559.387
561.009
562.243
563.129
563.707
564.017
564.101
563.997
563.744
563.375
562.923
562.417
561.885
561.353
560.841
560.372
559.963
559.631
559.388
559.249
559.223
559.32
559.55
559.919
560.434
561.101
561.924
562.906
564.05
565.355
566.823
568.451
570.238
572.181
574.275
576.518
578.905
581.432
584.093
586.884
589.797
592.827
595.966
599.207
602.541
605.959
609.454
613.015
616.635
620.305
624.02
627.773
631.566
635.412
639.285
643.138
646.952
650.716
654.42
658.059
661.625
665.113
668.519
671.84
675.075
678.225
681.289
684.27
687.169
689.988
692.729
695.396
697.989
700.511
702.965
705.352
707.673
709.932
712.129
714.267
716.346
718.366
720.33
722.239
724.094
725.898
727.656
729.37
731.043
732.68
734.281
735.852
737.394
738.909
740.4
741.869
743.317
744.743
746.151
747.542
748.918
750.279
751.625
752.957
754.274
755.575
756.858
758.117
759.355
760.574
761.774
762.957
764.124
765.277
766.408
767.499
768.554
769.571
770.546
771.485
772.389
773.225
774.007
774.737
775.409
776.017
776.559
777.036
777.451
777.818
778.165
778.504
778.827
779.061
779.125
779.072
779.044
779.099
779.22
779.347
779.507
589.273
371.684
288.11
253.759
245.269
249.737
260.041
272.527
285.545
298.462
311.087
323.385
335.368
347.052
358.447
369.556
380.375
390.891
401.09
410.956
420.469
429.612
438.368
446.722
454.659
462.164
469.224
475.828
481.964
487.628
492.814
497.522
501.754
505.516
508.817
511.67
514.094
516.112
517.752
519.048
520.034
520.752
521.24
521.541
521.693
521.735
521.703
521.629
521.544
521.476
521.45
521.49
521.616
521.847
522.201
522.691
523.33
524.129
525.096
526.24
527.567
529.083
530.793
532.701
534.81
537.122
539.637
542.356
545.277
548.397
551.714
555.22
558.912
562.783
566.826
571.035
575.403
579.921
584.581
589.374
594.291
599.321
604.453
609.678
614.983
620.356
625.786
631.26
636.766
642.296
647.843
653.406
658.995
664.516
669.971
675.349
680.64
685.834
690.92
695.892
700.743
705.467
710.062
714.528
718.866
723.078
727.167
731.138
734.993
738.738
742.376
745.909
749.342
752.676
755.916
759.062
762.118
765.086
767.967
770.764
773.477
776.109
778.66
781.132
783.528
785.852
788.108
790.3
792.431
794.505
796.526
798.496
800.419
802.299
804.139
805.939
807.699
809.419
811.105
812.76
814.385
815.982
817.553
819.098
820.622
822.128
823.596
825.033
826.446
827.835
829.205
830.556
831.902
833.237
834.526
835.787
837.019
838.22
839.389
840.528
841.625
842.687
843.714
844.709
845.67
846.597
847.49
848.351
849.187
850.01
850.826
851.62
852.332
852.891
853.313
853.684
854.049
854.41
854.671
854.82
686.877
411.791
305.828
261.273
247.989
250.054
258.983
270.493
282.658
294.733
306.487
317.875
328.907
339.599
349.963
360.005
369.725
379.113
388.16
396.851
405.174
413.12
420.675
427.83
434.574
440.899
446.797
452.262
457.291
461.885
466.046
469.78
473.097
476.009
478.533
480.689
482.502
484.002
485.22
486.192
486.958
487.557
488.028
488.411
488.742
489.058
489.39
489.767
490.215
490.759
491.421
492.22
493.175
494.303
495.617
497.13
498.852
500.79
502.951
505.342
507.967
510.83
513.935
517.285
520.879
524.72
528.805
533.134
537.703
542.508
547.541
552.796
558.263
563.935
569.803
575.857
582.088
588.485
595.037
601.734
608.563
615.512
622.567
629.715
636.942
644.233
651.569
658.935
666.313
673.691
681.059
688.423
695.66
702.786
709.798
716.688
723.443
730.049
736.497
742.775
748.877
754.797
760.533
766.088
771.462
776.661
781.69
786.557
791.268
795.829
800.246
804.523
808.666
812.679
816.566
820.33
823.975
827.505
830.921
834.228
837.429
840.525
843.519
846.408
849.197
851.891
854.495
857.012
859.449
861.807
864.092
866.308
868.459
870.549
872.585
874.573
876.5
878.37
880.19
881.966
883.699
885.393
887.05
888.672
890.264
891.853
893.378
894.866
896.323
897.752
899.155
900.535
901.895
903.235
904.545
905.829
907.087
908.317
909.52
910.693
911.835
912.945
914.025
915.076
916.099
917.095
918.067
919.018
919.953
920.879
921.797
922.694
923.525
924.236
924.828
925.351
925.834
926.291
926.613
926.784
791.117
454.159
324.242
268.935
250.628
250.169
257.653
268.147
279.434
290.656
301.541
312.034
322.143
331.886
341.279
350.331
359.045
367.418
375.443
383.112
390.412
397.334
403.881
410.049
415.83
421.219
426.213
430.812
435.018
438.837
442.277
445.348
448.066
450.449
452.516
454.294
455.811
457.097
458.187
459.119
459.93
460.66
461.347
462.029
462.739
463.512
464.375
465.356
466.476
467.757
469.218
470.877
472.752
474.859
477.21
479.817
482.688
485.829
489.245
492.943
496.926
501.198
505.762
510.618
515.767
521.206
526.934
532.945
539.234
545.794
552.615
559.686
566.993
574.525
582.27
590.218
598.355
606.669
615.15
623.784
632.561
641.468
650.492
659.619
668.833
678.116
687.445
696.795
706.141
715.459
724.734
733.841
742.718
751.419
759.945
768.287
776.432
784.363
792.069
799.539
806.766
813.747
820.481
826.974
833.231
839.256
845.059
850.65
856.042
861.243
866.261
871.104
875.778
880.289
884.642
888.843
892.898
896.81
900.584
904.226
907.74
911.132
914.409
917.556
920.579
923.486
926.285
928.979
931.574
934.075
936.485
938.811
941.056
943.226
945.328
947.385
949.36
951.258
953.094
954.873
956.598
958.274
959.902
961.485
963.027
964.535
965.998
967.419
968.803
970.152
971.47
972.756
974.015
975.245
976.445
977.616
978.758
979.871
980.955
982.009
983.033
984.025
984.985
985.914
986.813
987.683
988.526
989.348
990.153
990.948
991.733
992.497
993.208
993.829
994.352
994.806
995.209
995.584
995.809
995.891
900.071
498.333
343.281
276.74
253.183
250.067
256.023
265.448
275.827
286.179
296.193
305.803
315.016
323.854
332.335
340.472
348.272
355.736
362.864
369.65
376.089
382.17
387.888
393.243
398.25
402.909
407.215
411.173
414.788
418.068
421.027
423.678
426.04
428.134
429.984
431.616
433.061
434.35
435.518
436.603
437.642
438.674
439.737
440.867
442.099
443.464
444.99
446.699
448.611
450.746
453.12
455.751
458.655
461.85
465.349
469.165
473.303
477.77
482.57
487.71
493.195
499.029
505.215
511.752
518.635
525.859
533.417
541.299
549.496
557.995
566.781
575.834
585.134
594.665
604.41
614.351
624.475
634.767
645.215
655.812
666.551
677.43
688.445
699.59
710.852
722.21
733.641
745.107
756.572
767.99
779.157
789.905
800.358
810.555
820.492
830.164
839.558
848.655
857.444
865.92
874.078
881.918
889.444
896.67
903.609
910.26
916.631
922.744
928.613
934.254
939.675
944.887
949.898
954.716
959.348
963.801
968.082
972.197
976.153
979.956
983.612
987.131
990.541
993.793
996.896
999.869
1002.72
1005.45
1008.07
1010.58
1012.99
1015.31
1017.53
1019.66
1021.72
1023.7
1025.6
1027.42
1029.17
1030.85
1032.47
1034.03
1035.53
1036.98
1038.38
1039.72
1041.02
1042.27
1043.48
1044.65
1045.78
1046.86
1047.91
1048.93
1049.91
1050.85
1051.76
1052.64
1053.48
1054.28
1055.06
1055.79
1056.49
1057.16
1057.79
1058.39
1058.95
1059.49
1060.01
1060.5
1060.99
1061.45
1061.87
1062.21
1062.48
1062.68
1062.83
1062.95
1062.92
1062.76
1011.89
543.933
362.888
284.695
255.673
249.768
254.106
262.402
271.832
281.294
290.432
299.171
307.516
315.493
323.124
330.423
337.4
344.061
350.408
356.441
362.157
367.552
372.621
377.354
381.756
385.842
389.633
393.131
396.341
399.272
401.941
404.364
406.562
408.558
410.379
412.052
413.606
415.076
416.496
417.904
419.339
420.84
422.447
424.198
426.132
428.28
430.67
433.323
436.254
439.479
443.011
446.866
451.06
455.612
460.536
465.844
471.54
477.63
484.118
491.016
498.334
506.08
514.258
522.861
531.876
541.289
551.082
561.233
571.723
582.528
593.62
604.969
616.544
628.318
640.262
652.352
664.563
676.878
689.287
701.791
714.401
727.142
740.046
753.141
766.422
779.889
793.507
807.207
820.976
834.332
847.059
859.283
871.105
882.565
893.659
904.385
914.727
924.67
934.211
943.355
952.108
960.473
968.462
976.097
983.43
990.422
997.072
1003.42
1009.5
1015.32
1020.89
1026.22
1031.33
1036.23
1040.91
1045.4
1049.7
1053.81
1057.75
1061.52
1065.13
1068.59
1071.9
1075.07
1078.09
1080.97
1083.73
1086.35
1088.86
1091.25
1093.53
1095.71
1097.79
1099.77
1101.66
1103.46
1105.18
1106.82
1108.38
1109.87
1111.28
1112.62
1113.9
1115.11
1116.27
1117.36
1118.4
1119.38
1120.31
1121.19
1122.02
1122.81
1123.54
1124.24
1124.89
1125.49
1126.06
1126.58
1127.06
1127.49
1127.89
1128.24
1128.55
1128.82
1129.05
1129.24
1129.39
1129.51
1129.6
1129.66
1129.7
1129.71
1129.68
1129.59
1129.43
1129.22
1128.95
1128.66
1128.21
1127.66
1125.06
590.597
382.988
292.796
258.126
249.311
251.94
259.039
267.476
276.022
284.28
292.16
299.669
306.834
313.676
320.215
326.46
332.419
338.097
343.495
348.616
353.457
358.017
362.291
366.274
369.969
373.391
376.571
379.535
382.285
384.838
387.212
389.433
391.527
393.522
395.45
397.34
399.226
401.145
403.138
405.247
407.515
409.986
412.709
415.73
419.097
422.846
426.983
431.507
436.422
441.735
447.454
453.592
460.159
467.167
474.617
482.513
490.859
499.667
508.957
518.758
529.092
539.972
551.386
563.288
575.637
588.395
601.515
614.951
628.658
642.573
656.664
670.883
685.182
699.512
713.833
728.107
742.31
756.435
770.504
784.569
798.712
813.054
827.746
842.776
858.228
874.049
889.992
905.222
919.69
933.456
946.614
959.262
971.434
983.125
994.334
1005.03
1015.21
1024.9
1034.13
1042.92
1051.27
1059.22
1066.77
1073.97
1080.83
1087.35
1093.57
1099.49
1105.15
1110.54
1115.69
1120.6
1125.29
1129.76
1134.02
1138.08
1141.95
1145.64
1149.16
1152.51
1155.71
1158.75
1161.65
1164.4
1167.01
1169.49
1171.85
1174.08
1176.2
1178.2
1180.09
1181.89
1183.58
1185.18
1186.68
1188.1
1189.43
1190.68
1191.84
1192.93
1193.95
1194.89
1195.76
1196.56
1197.3
1197.97
1198.57
1199.12
1199.6
1200.02
1200.39
1200.7
1200.96
1201.16
1201.32
1201.41
1201.46
1201.46
1201.4
1201.29
1201.13
1200.92
1200.66
1200.35
1199.99
1199.59
1199.14
1198.66
1198.14
1197.59
1197
1196.37
1195.68
1194.94
1194.14
1193.29
1192.42
1191.38
1190.28
1238.81
638.013
403.442
300.996
260.557
248.742
249.575
255.404
262.796
270.399
277.771
284.809
291.517
297.921
304.042
309.899
315.502
320.86
325.977
330.857
335.505
339.923
344.112
348.074
351.809
355.321
358.614
361.705
364.624
367.418
370.11
372.721
375.281
377.831
380.415
383.073
385.826
388.698
391.73
394.964
398.449
402.234
406.37
410.917
415.955
421.597
428.008
435.051
442.635
450.738
459.34
468.433
478.012
488.072
498.599
509.536
520.887
532.695
544.979
557.763
571.075
584.933
599.349
614.355
629.786
645.567
661.672
678.047
694.632
711.379
728.242
745.155
762.041
778.831
795.457
811.855
827.969
843.752
859.178
874.292
889.18
904.002
918.967
934.211
950.385
967.354
984.076
1000.02
1015.16
1029.46
1042.99
1055.88
1068.25
1080.07
1091.33
1102.04
1112.09
1121.54
1130.49
1138.98
1147.02
1154.64
1161.88
1168.75
1175.29
1181.5
1187.41
1193.03
1198.38
1203.47
1208.3
1212.9
1217.28
1221.43
1225.37
1229.12
1232.67
1236.04
1239.23
1242.26
1245.13
1247.84
1250.41
1252.83
1255.12
1257.28
1259.31
1261.22
1263.02
1264.69
1266.26
1267.73
1269.09
1270.35
1271.52
1272.59
1273.57
1274.47
1275.27
1276
1276.64
1277.2
1277.68
1278.09
1278.43
1278.69
1278.87
1278.99
1279.03
1279
1278.91
1278.75
1278.52
1278.23
1277.87
1277.45
1276.96
1276.41
1275.8
1275.13
1274.39
1273.59
1272.74
1271.81
1270.83
1269.79
1268.7
1267.55
1266.35
1265.1
1263.81
1262.48
1261.1
1259.66
1258.16
1256.62
1255.01
1253.39
1251.6
1249.79
1358.47
688.117
424.951
309.554
263.063
248.07
246.951
251.371
257.613
264.203
270.652
276.839
282.764
288.446
293.906
299.159
304.219
309.092
313.786
318.302
322.652
326.849
330.907
334.844
338.679
342.434
346.127
349.741
353.291
356.828
360.402
364.074
367.898
371.964
376.401
381.399
386.809
392.521
398.573
405.011
411.899
419.288
427.225
435.762
444.991
455.112
466.287
478.078
490.247
502.894
516.061
529.745
543.93
558.584
573.668
589.16
605.075
621.406
638.13
655.236
672.706
690.518
708.645
727.06
745.712
764.543
783.498
802.521
821.561
840.579
859.55
878.396
897.046
915.437
933.506
951.197
968.467
985.263
1001.54
1017.35
1032.76
1048.01
1064.09
1080.7
1097.03
1112.42
1126.92
1140.52
1153.23
1165.13
1176.3
1186.85
1196.88
1206.38
1215.36
1223.86
1231.97
1239.7
1247.07
1254.06
1260.7
1267.02
1273.03
1278.75
1284.21
1289.4
1294.33
1299.02
1303.48
1307.71
1311.71
1315.51
1319.1
1322.49
1325.69
1328.72
1331.57
1334.25
1336.77
1339.15
1341.37
1343.46
1345.41
1347.23
1348.93
1350.5
1351.96
1353.3
1354.54
1355.67
1356.69
1357.61
1358.44
1359.16
1359.79
1360.33
1360.77
1361.13
1361.39
1361.56
1361.65
1361.65
1361.57
1361.41
1361.17
1360.84
1360.43
1359.95
1359.38
1358.74
1358.01
1357.21
1356.34
1355.38
1354.35
1353.25
1352.07
1350.81
1349.48
1348.08
1346.6
1345.05
1343.42
1341.72
1339.95
1338.11
1336.2
1334.22
1332.18
1330.08
1327.92
1325.7
1323.42
1321.09
1318.69
1316.23
1313.71
1311.17
1308.46
1305.76
1472.66
733.149
443.651
316.873
265.223
247.492
244.622
247.753
252.962
258.69
264.387
269.841
275.182
280.384
285.459
290.434
295.34
300.21
305.052
309.808
314.503
319.195
323.955
328.862
334.021
339.582
345.766
351.993
358.207
364.602
371.308
378.404
386.016
394.295
403.535
414.008
425.09
436.666
448.889
461.642
475.037
489.101
503.832
519.201
535.12
551.385
567.881
584.737
602.048
619.898
638.274
657.14
676.433
696.079
716.025
736.283
756.805
777.481
798.244
819.06
839.901
860.742
881.557
902.316
922.97
943.459
963.709
983.631
1003.19
1022.36
1041.15
1059.53
1077.47
1094.96
1112
1128.6
1144.79
1160.54
1175.78
1190.85
1205.95
1221.37
1236.18
1250.23
1263.18
1275.05
1286.02
1296.24
1305.83
1314.82
1323.25
1331.15
1338.58
1345.57
1352.14
1358.33
1364.3
1370.03
1375.51
1380.77
1385.82
1390.67
1395.3
1399.71
1403.92
1407.91
1411.69
1415.28
1418.66
1421.85
1424.85
1427.67
1430.32
1432.79
1435.1
1437.25
1439.24
1441.1
1442.81
1444.38
1445.83
1447.15
1448.34
1449.42
1450.39
1451.25
1451.99
1452.63
1453.17
1453.61
1453.95
1454.19
1454.34
1454.38
1454.34
1454.19
1453.95
1453.61
1453.18
1452.65
1452.03
1451.31
1450.5
1449.6
1448.6
1447.51
1446.32
1445.05
1443.69
1442.23
1440.69
1439.06
1437.34
1435.53
1433.63
1431.64
1429.57
1427.4
1425.15
1422.81
1420.39
1417.87
1415.28
1412.59
1409.82
1406.97
1404.03
1401.02
1397.92
1394.75
1391.51
1388.19
1384.8
1381.34
1377.81
1374.2
1370.53
1366.82
1362.95
1359.12
1582.9
772.889
459.264
322.941
267.243
247.386
243.168
245.417
250.159
255.917
262.32
266.384
271.892
277.569
283.341
289.295
295.615
302.647
310.785
318.655
326.355
334.264
342.641
351.68
361.601
372.864
385.751
398.476
411.258
424.571
438.659
453.757
469.947
486.979
504.913
523.354
542.477
562.474
583.303
604.828
626.953
649.577
672.591
695.894
719.393
743.023
766.851
790.992
815.521
840.234
864.963
889.573
913.941
937.96
961.55
984.649
1007.23
1029.26
1050.74
1071.64
1092
1111.81
1131.1
1149.88
1168.14
1185.86
1203
1219.37
1235.07
1250.2
1264.8
1278.91
1292.57
1305.85
1318.77
1331.38
1343.97
1356.58
1369.04
1381.12
1392.94
1404.48
1415.21
1425.1
1434.24
1442.7
1450.56
1457.93
1464.93
1471.53
1477.75