/*--------------------------------*- C++ -*----------------------------------*\
| =========                 |                                                 |
| \\      /  F ield         | OpenFOAM: The Open Source CFD Toolbox           |
|  \\    /   O peration     | Version:  2112                                  |
|   \\  /    A nd           | Website:  www.openfoam.com                      |
|    \\/     M anipulation  |                                                 |
\*---------------------------------------------------------------------------*/
FoamFile
{
    version     2.0;
    format      ascii;
    arch        "LSB;label=32;scalar=64";
    class       volScalarField;
    location    "0.2";
    object      omega;
}
// * * * * * * * * * * * * * * * * * * * * * * * * * * * * * * * * * * * * * //

dimensions      [0 0 -1 0 0 0 0];

internalField   nonuniform List<scalar> 
12225
(
27494.4
38717.9
42413.4
43128.7
42748
41990.6
41123.5
40253.2
39404.1
38588.6
37816.7
37096.4
36434
35833.6
35295.1
34821.8
34383.3
33923.6
1765.92
3784.78
5544.04
6957.77
8059.41
8906.94
9560.87
10081.3
10516.7
10889.1
11207.7
11477.2
11701.7
11885.6
12034.1
12155.3
12268.5
12382.1
254.343
414.339
646.667
930.387
1239.14
1548.46
1842.08
2114.49
2365.9
2596.38
2805.46
2993.38
3161.13
3310.69
3444.84
3567.58
3683.35
3789.63
199.254
207.231
224.063
251.402
289.31
336.44
391.236
451.357
515.216
581.307
647.922
713.343
776.339
836.078
892.137
944.445
993.124
1036.66
197.392
197.078
197.447
198.837
201.555
205.766
211.551
218.827
227.499
237.421
248.353
259.969
271.977
284.112
296.164
307.997
319.514
330.45
197.325
196.635
196.017
195.495
195.11
194.899
194.889
195.097
195.536
196.209
197.103
198.191
199.437
200.805
202.256
203.761
205.29
206.795
197.316
196.604
195.93
195.293
194.694
194.136
193.622
193.152
192.728
192.352
192.023
191.739
191.498
191.294
191.124
190.983
190.865
190.765
197.31
196.592
195.911
195.264
194.65
194.067
193.515
192.992
192.496
192.026
191.582
191.163
190.767
190.393
190.041
189.708
189.394
189.099
197.306
196.584
195.899
195.248
194.63
194.042
193.485
192.954
192.45
191.971
191.516
191.083
190.672
190.281
189.909
189.556
189.221
188.903
197.303
196.578
195.89
195.237
194.615
194.025
193.464
192.931
192.423
191.941
191.482
191.045
190.629
190.234
189.858
189.5
189.159
188.834
197.302
196.576
195.886
195.231
194.608
194.016
193.453
192.917
192.408
191.923
191.461
191.022
190.604
190.205
189.826
189.464
189.119
188.791
197.303
196.577
195.888
195.233
194.61
194.017
193.453
192.917
192.407
191.921
191.458
191.017
190.597
190.197
189.815
189.451
189.104
188.773
197.305
196.581
195.893
195.238
194.616
194.024
193.461
192.924
192.414
191.927
191.464
191.023
190.602
190.2
189.817
189.452
189.103
188.771
197.307
196.585
195.898
195.245
194.624
194.032
193.47
192.934
192.423
191.937
191.473
191.031
190.609
190.207
189.823
189.457
189.107
188.773
197.309
196.588
195.903
195.25
194.63
194.039
193.476
192.94
192.429
191.943
191.479
191.036
190.614
190.211
189.826
189.458
189.107
188.772
197.31
196.59
195.905
195.253
194.633
194.042
193.479
192.943
192.432
191.945
191.48
191.036
190.613
190.209
189.823
189.454
189.102
188.765
197.311
196.592
195.907
195.255
194.634
194.043
193.48
192.943
192.432
191.944
191.478
191.034
190.609
190.204
189.817
189.447
189.094
188.756
197.311
196.592
195.908
195.256
194.635
194.044
193.48
192.943
192.43
191.942
191.475
191.03
190.604
190.198
189.81
189.439
189.084
188.745
197.311
196.592
195.907
195.255
194.634
194.042
193.477
192.939
192.426
191.936
191.469
191.022
190.596
190.189
189.799
189.427
189.071
188.731
197.311
196.591
195.905
195.252
194.63
194.037
193.472
192.933
192.419
191.928
191.459
191.012
190.585
190.176
189.786
189.413
189.056
188.715
197.309
196.588
195.901
195.246
194.623
194.029
193.462
192.922
192.406
191.914
191.444
190.996
190.567
190.158
189.766
189.392
189.034
188.692
197.306
196.581
195.891
195.234
194.608
194.011
193.442
192.899
192.381
191.887
191.415
190.964
190.534
190.123
189.73
189.354
188.995
188.651
197.301
196.573
195.879
195.218
194.588
193.988
193.415
192.869
192.348
191.851
191.377
190.924
190.491
190.078
189.683
189.306
188.945
188.6
197.3
196.571
195.876
195.214
194.583
193.982
193.409
192.863
192.342
191.846
191.372
190.92
190.49
190.079
189.688
189.315
188.959
188.621
197.303
196.575
195.884
195.225
194.598
194.003
193.439
192.907
192.406
191.937
191.5
191.097
190.728
190.393
190.092
189.825
189.592
189.391
197.308
196.594
195.938
195.354
194.862
194.482
194.231
194.124
194.179
194.413
194.839
195.467
196.304
197.36
198.639
200.132
201.821
203.684
197.447
197.413
198.26
200.329
203.858
208.976
215.718
224.039
233.936
245.413
258.428
272.894
288.707
305.817
324.115
343.366
363.304
383.648
207.295
237.322
285.863
352.843
434.476
526.669
625.867
729.252
835.576
944.004
1053.54
1163.1
1271.62
1378.06
1481.56
1581.5
1677.47
1769.63
785.045
1660.22
2534.75
3330.62
4026.11
4619.26
5121.47
5551.93
5929.63
6267.54
6573.19
6851.36
7105.4
7337.8
7550.45
7744.98
7922.85
8085.9
18187.2
27321.1
31320.8
32852.7
33284.3
33240.1
32991.2
32655.5
32281.3
31888.4
31486.4
31080.2
30673.3
30268.7
29869.2
29477.6
29095.6
28726.8
362.669
354.108
348.989
345.705
344.735
346.379
351.129
359.427
370.983
385.165
401.599
420.058
440.362
462.336
485.794
510.526
536.298
562.856
589.924
617.213
644.422
671.249
697.389
722.485
745.463
765.123
781.276
793.792
802.59
807.613
808.706
805.52
798.186
787.537
773.926
757.441
738.273
716.677
692.964
667.488
640.635
612.797
584.36
555.696
527.163
499.113
471.898
445.877
421.392
398.497
377.61
359.375
343.761
330.655
319.885
311.257
304.56
299.556
296.061
294.042
293.618
295.257
300.135
310.485
329.596
361.005
407.038
467.703
540.836
623.287
712.173
805.438
901.709
1000.06
1100.02
1201.78
1305.96
1413.02
1523.19
1636.5
1752.7
1871.35
1992.02
2114.07
2235.92
2355.72
2472.61
2586.29
2696.36
2802.45
2904.28
3001.69
3094.58
3182.94
3266.73
3345.9
3420.4
3490.11
3555
3615.04
3670.29
3720.83
3766.75
3808.16
3845.22
3878.1
3907.03
3932.29
3954.22
3973.23
3989.8
4004.51
4017.99
4030.95
4044.15
4058.35
4074.25
4092.5
4113.72
4138.41
4166.85
4199.07
4234.82
4273.51
4314.11
4355.15
4394.65
4430.16
4458.69
4476.76
4480.39
4465.28
4426.84
4360.46
4261.49
4124.67
3955.84
3752.74
3513.25
3239.61
2938.95
2619.53
2291.97
1969.01
1665.42
1397.47
1182.07
1036.5
976.253
1012.02
1149.16
1358.53
1636.74
1969.43
2342.79
2742.49
3154.56
3566.83
3967.77
4353.72
4720.74
5063.55
5378.84
5665.82
5925.43
6159.54
6370.28
6559.38
6728.06
6876.9
7005.7
7113.24
7197.85
7253.78
7275.76
7263.54
7217.03
7131.02
7013.46
6810.14
446.464
409.191
381.185
358.75
340.945
326.824
315.546
306.586
299.647
294.441
290.691
288.162
286.669
286.072
286.27
287.191
288.792
291.044
293.938
297.476
301.67
306.539
312.113
318.477
326.348
336.017
347.242
359.697
373.029
386.883
400.899
414.624
427.417
438.755
448.522
456.531
462.596
466.559
468.306
467.78
464.988
459.998
452.93
443.947
433.252
421.086
407.73
393.508
378.767
363.662
348.593
334.243
320.791
308.326
296.868
286.41
276.934
268.416
260.851
254.304
249.059
245.745
245.567
250.541
263.517
287.625
325.031
375.654
436.945
504.992
576.084
647.649
718.292
787.433
855.038
921.264
986.192
1049.76
1111.75
1171.81
1229.43
1284.05
1335.04
1381.74
1423.69
1461.01
1494.09
1523.38
1549.31
1572.38
1593.19
1612.39
1630.68
1648.82
1667.64
1688
1710.72
1736.15
1763.92
1793
1822.06
1849.83
1875.24
1897.53
1916.21
1931.06
1942.08
1949.43
1953.39
1954.34
1952.75
1949.13
1944.03
1938
1931.6
1925.41
1919.8
1915.06
1911.49
1909.15
1907.89
1907.43
1907.16
1906.2
1903.4
1897.33
1886.38
1868.74
1842.53
1805.87
1757.09
1695.02
1619.36
1531.27
1434.51
1339.9
1250.46
1176.26
1127.96
1096.46
1068.67
1043.83
1022.3
1004.41
990.431
980.653
975.546
976.08
983.797
1000.56
1020.56
1041.17
1063.92
1090.16
1120.63
1155.81
1196.15
1249.82
1359.24
1519.78
1703.53
1894.25
2084.19
2269.84
2449.8
2623.82
2791.56
2951.39
3103.79
3250.84
3393.12
3528.6
3652.48
3753.33
3820.02
3840.37
3806.88
3717.27
3587.49
3457.29
552.486
464.735
406.589
365.077
334.983
312.954
296.609
284.322
275.012
267.922
262.498
258.324
255.089
252.565
250.586
249.034
247.828
246.914
246.263
245.857
245.697
245.791
246.158
246.838
247.985
250.17
253.464
257.944
263.65
270.575
278.657
287.763
297.664
308.069
318.683
329.19
339.261
348.565
356.778
363.609
368.807
372.18
373.597
372.991
370.365
365.791
359.416
351.461
342.173
331.693
320.657
309.493
298.486
287.832
277.649
268.015
258.979
250.585
242.915
236.172
230.815
227.722
228.348
234.757
249.402
274.524
311.221
358.608
413.814
473.02
532.863
591.22
647.123
700.268
750.612
798.138
842.755
884.274
922.409
956.803
987.072
1012.88
1034
1050.38
1062.22
1070.01
1074.4
1076.05
1075.57
1073.54
1070.5
1066.9
1063.1
1059.38
1055.88
1052.64
1049.53
1046.36
1042.86
1038.8
1034.09
1028.77
1023
1017.01
1011.03
1005.22
999.723
994.65
990.142
986.354
983.428
981.48
980.581
980.754
981.954
984.096
987.085
990.728
994.605
998.465
1002.03
1004.92
1006.74
1007.07
1005.5
1001.75
995.612
987.09
976.374
963.928
950.538
937.329
925.73
917.386
914.468
914.654
918.104
925.145
935.458
947.554
960.323
973.449
986.731
999.98
1013.06
1025.79
1037.61
1047.66
1054.34
1055.03
1051.29
1044.55
1036.08
1026.62
1016.78
1007.16
998.406
991.919
991.57
998.694
1012.04
1030.05
1051.53
1075.61
1101.78
1129.85
1161.96
1206.68
1268.82
1345.95
1434.59
1532.52
1638.58
1756.52
1879.65
1999.27
2106.42
2193.49
2255.03
2285.97
645.701
495.017
407.609
351.417
314.494
289.998
273.613
262.57
255.076
249.959
246.441
244.006
242.307
241.112
240.266
239.661
239.226
238.912
238.684
238.521
238.408
238.337
238.306
238.324
238.445
238.93
239.846
241.286
243.35
246.139
249.743
254.222
259.594
265.817
272.789
280.351
288.288
296.335
304.187
311.52
318.008
323.341
327.248
329.51
329.974
328.568
325.311
320.256
313.553
305.647
296.911
287.719
278.378
269.121
260.114
251.472
243.278
235.617
228.642
222.698
218.48
217.188
220.546
230.593
249.231
277.653
315.769
361.879
412.954
465.602
517.123
565.971
611.521
653.598
692.135
727.036
758.154
785.297
808.255
826.831
840.901
850.466
855.712
857.023
854.964
850.238
843.585
835.689
827.142
818.422
809.885
801.769
794.209
787.248
780.868
775.006
769.582
764.522
759.777
755.327
751.19
747.405
744.026
741.105
738.688
736.814
735.513
734.816
734.758
735.368
736.663
738.643
741.282
744.532
748.349
752.667
757.419
762.599
768.193
773.984
779.848
785.695
791.428
796.982
802.342
807.57
812.819
818.331
824.421
831.469
839.895
850.098
862.396
876.885
892.824
909.599
926.91
944.412
961.726
978.473
994.383
1009.38
1023.43
1036.33
1048.24
1059.4
1068.84
1074.86
1074.98
1069.71
1061
1050.37
1038.47
1025.31
1011.02
995.967
980.72
965.895
952.13
939.769
928.913
919.57
911.695
905.216
900.036
896.072
893.498
893.223
896.1
902.392
912.138
925.474
942.866
967.608
1005.44
1061.44
1139.81
1237.6
1350.12
1467.3
714.3
499.68
391.228
328.592
291.568
269.556
256.488
248.781
244.299
241.767
240.425
239.822
239.688
239.858
240.23
240.734
241.322
241.958
242.611
243.257
243.873
244.442
244.949
245.389
245.81
246.288
246.836
247.494
248.329
249.428
250.893
252.834
255.349
258.512
262.356
266.864
271.956
277.485
283.243
288.964
294.349
299.072
302.815
305.292
306.268
305.537
303.04
298.887
293.273
286.492
278.88
270.761
262.422
254.091
245.944
238.11
230.705
223.876
217.904
213.343
211.167
212.821
220.042
234.479
257.232
288.497
327.322
371.604
418.503
465.228
509.731
550.908
588.327
621.848
651.386
676.833
698.074
715.019
727.631
735.969
740.224
740.755
738.088
732.898
725.94
717.975
709.683
701.612
694.151
687.537
681.875
677.171
673.36
670.342
668.001
666.227
664.927
664.026
663.474
663.238
663.301
663.655
664.301
665.246
666.5
668.079
670.002
672.289
674.965
678.048
681.553
685.486
689.848
694.642
699.858
705.498
711.587
718.153
725.222
732.819
740.931
749.557
758.719
768.458
778.836
789.94
801.88
814.769
828.718
843.814
860.089
877.497
895.866
914.453
933.066
951.356
968.96
985.485
1000.53
1013.71
1024.78
1033.96
1041.43
1047.01
1051.14
1054.13
1055.31
1053.66
1048.38
1039.73
1028.62
1016.03
1002.58
988.449
973.752
958.818
944.026
929.635
915.753
902.429
889.695
877.553
865.999
855.031
844.594
834.643
825.183
816.283
808.066
800.695
794.367
789.326
785.909
784.709
788.243
799.231
821.708
859.706
917.656
999.112
743.104
482.611
366.423
305.981
273.975
257.103
248.393
244.082
242.146
241.51
241.614
242.168
243.015
244.068
245.269
246.575
247.948
249.352
250.753
252.117
253.412
254.61
255.686
256.634
257.507
258.223
258.785
259.217
259.568
259.911
260.34
260.963
261.894
263.241
265.093
267.5
270.459
273.903
277.699
281.665
285.554
288.958
291.569
293.104
293.333
292.105
289.375
285.226
279.838
273.461
266.377
258.859
251.152
243.463
235.961
228.802
222.168
216.337
211.799
209.358
210.18
215.668
227.165
245.612
271.297
303.721
341.555
382.739
424.866
465.763
503.903
538.467
569.11
595.689
618.115
636.322
650.294
660.099
665.926
668.102
667.105
663.553
658.168
651.714
644.916
638.392
632.597
627.81
624.154
621.624
620.132
619.542
619.704
620.472
621.719
623.34
625.254
627.402
629.742
632.249
634.91
637.72
640.684
643.813
647.124
650.639
654.386
658.393
662.691
667.309
672.275
677.612
683.348
689.503
696.105
703.19
710.793
718.953
727.709
737.099
747.16
757.937
769.505
781.922
795.245
809.536
824.836
841.148
858.435
876.624
895.601
915.059
934.238
953.066
971.199
988.148
1003.29
1015.99
1025.71
1032.04
1034.78
1034.32
1031.4
1026.77
1021.18
1015.29
1008.89
1001.38
991.948
980.171
966.19
950.603
934.088
917.175
900.333
884
868.481
853.883
840.164
827.275
815.143
803.645
792.617
781.9
771.391
761.048
750.894
741.012
731.533
722.635
714.526
707.441
701.65
697.469
695.589
696.387
701.506
713.672
736.761
776.088
729.566
452.462
342.28
290.144
265.294
253.693
248.54
246.495
245.964
246.218
246.936
247.974
249.264
250.76
252.424
254.215
256.093
258.013
259.929
261.796
263.569
265.209
266.684
267.981
269.124
269.899
270.367
270.581
270.605
270.514
270.399
270.358
270.499
270.928
271.735
272.978
274.671
276.766
279.149
281.647
284.029
286.005
287.286
287.623
286.827
284.798
281.531
277.116
271.721
265.558
258.855
251.834
244.7
237.641
230.847
224.541
219.034
214.791
212.495
213.057
217.53
226.909
241.908
262.799
289.35
320.806
355.872
392.788
429.642
464.777
497.044
525.794
550.715
571.656
588.546
601.386
610.282
615.47
617.336
616.408
613.334
608.836
603.649
598.444
593.771
590.015
587.387
585.945
585.634
586.326
587.86
590.069
592.8
595.92
599.323
602.929
606.677
610.528
614.457
618.451
622.508
626.635
630.846
635.164
639.614
644.231
649.052
654.115
659.462
665.133
671.169
677.61
684.497
691.868
699.759
708.208
717.249
726.92
737.257
748.295
760.073
772.63
786.027
800.324
815.583
831.841
849.118
867.424
886.621
906.456
926.479
946.092
965.02
982.744
998.613
1011.87
1021.66
1027.21
1028.21
1024.81
1017.32
1007
995.492
983.957
972.932
962.542
952.38
941.465
928.744
913.579
895.967
876.448
855.792
834.749
813.978
794.018
775.226
757.759
741.628
726.84
713.368
701.066
689.7
679.013
668.808
658.968
649.461
640.338
631.717
623.766
616.697
610.748
606.181
603.283
602.546
603.988
608.161
616.109
629.461
651.089
676.41
417.957
324.453
283.238
265.083
257.318
254.18
253.085
252.944
253.329
254.085
255.153
256.5
258.096
259.904
261.878
263.97
266.123
268.281
270.386
272.383
274.218
275.848
277.238
278.231
278.838
279.143
279.209
279.094
278.861
278.583
278.341
278.223
278.312
278.675
279.354
280.345
281.596
282.995
284.384
285.562
286.303
286.391
285.647
283.952
281.265
277.623
273.124
267.918
262.179
256.09
249.836
243.607
237.607
232.082
227.348
223.825
222.059
222.716
226.521
234.155
246.129
262.689
283.776
309.014
337.685
368.68
400.592
431.963
461.55
488.466
512.166
532.346
548.853
561.636
570.762
576.435
579.012
578.996
577.007
573.732
569.859
566.017
562.717
560.316
559.011
558.852
559.782
561.671
564.356
567.669
571.454
575.576
579.926
584.423
589.004
593.63
598.277
602.935
607.603
612.292
617.02
621.811
626.698
631.719
636.918
642.341
648.038
654.059
660.454
667.277
674.593
682.441
690.864
699.903
709.593
719.968
731.062
742.907
755.538
768.986
783.308
798.56
814.78
831.892
849.822
868.509
887.818
907.467
927.072
946.157
964.188
980.56
994.512
1005.2
1011.9
1013.71
1010.38
1002.62
991.438
978.084
963.819
949.791
936.687
924.565
912.98
901.041
887.618
871.741
852.953
831.428
807.829
783.039
757.923
733.217
709.488
687.102
666.222
646.86
629.235
613.539
599.654
587.285
576.114
565.873
556.376
547.518
539.26
531.647
524.795
518.89
514.155
510.842
509.231
509.694
512.617
518.152
526.776
539.128
556.348
596.48
385.753
313.626
283.029
270.059
264.635
262.356
261.395
261.068
261.151
261.583
262.345
263.423
264.791
266.41
268.233
270.2
272.253
274.332
276.367
278.288
280.03
281.527
282.713
283.536
284.08
284.392
284.515
284.49
284.368
284.206
284.066
284.009
284.09
284.346
284.788
285.393
286.098
286.801
287.368
287.646
287.482
286.739
285.319
283.179
280.326
276.824
272.773
268.302
263.558
258.698
253.893
249.331
245.234
241.864
239.542
238.643
239.599
242.867
248.89
258.041
270.57
286.558
305.886
328.204
352.904
379.115
405.783
431.832
456.323
478.544
498.012
514.422
527.612
537.544
544.318
548.19
549.565
548.977
547.042
544.395
541.63
539.245
537.608
536.94
537.328
538.748
541.096
544.224
547.971
552.18
556.711
561.45
566.307
571.215
576.131
581.03
585.901
590.747
595.579
600.42
605.298
610.251
615.324
620.565
626.027
631.764
637.831
644.28
651.173
658.602
666.598
675.213
684.494
694.484
705.219
716.73
729.042
742.179
756.163
771.026
786.816
803.507
820.919
838.833
857.153
875.705
894.214
912.342
930.118
946.438
960.526
971.904
979.914
983.967
983.739
979.248
970.929
959.696
946.693
933.022
919.582
906.934
895.141
883.75
871.883
858.434
842.358
823.011
800.343
774.874
747.494
719.207
690.926
663.381
637.095
612.389
589.399
568.194
549.07
532.06
516.96
503.508
491.466
480.589
470.68
461.608
453.312
445.798
439.138
433.462
428.951
425.827
424.367
424.933
428.155
434.169
443.318
455.932
472.45
507.414
357.618
307.538
286.46
277.43
273.398
271.34
270.084
269.25
268.746
268.571
268.733
269.232
270.05
271.152
272.49
274.006
275.635
277.313
278.99
280.597
282.061
283.316
284.344
285.169
285.807
286.277
286.603
286.815
286.95
287.047
287.147
287.286
287.491
287.774
288.127
288.515
288.883
289.15
289.225
289.015
288.435
287.424
285.952
284.026
281.689
279.014
276.096
273.047
269.988
267.051
264.378
262.127
260.47
259.6
259.737
261.123
264.02
268.704
275.442
284.471
295.956
309.959
326.396
345.008
365.34
386.757
408.498
429.773
449.859
468.166
484.249
497.802
508.648
516.741
522.177
525.208
526.224
525.728
524.279
522.431
520.682
519.427
518.939
519.368
520.75
523.031
526.101
529.814
534.018
538.571
543.348
548.246
553.189
558.123
563.015
567.851
572.632
577.372
582.094
586.831
591.628
596.535
601.611
606.916
612.51
618.445
624.773
631.552
638.88
646.78
655.3
664.49
674.396
685.058
696.507
708.761
721.801
735.607
750.184
765.523
781.529
798.356
815.722
832.847
849.864
866.572
882.696
897.88
911.719
923.712
933.324
940.071
943.535
943.476
939.94
933.307
924.279
913.772
902.706
891.802
881.448
871.629
861.886
851.338
838.833
823.246
803.821
780.421
753.548
724.161
693.397
662.35
631.922
602.761
575.281
549.7
526.079
504.468
484.976
467.494
451.844
437.828
425.216
413.799
403.408
393.925
385.298
377.53
370.668
364.795
360.033
356.546
354.535
354.267
356.499
361.5
369.66
381.324
396.812
422.97
334.764
304.89
291.842
285.73
282.464
280.258
278.466
276.928
275.646
274.654
273.985
273.652
273.651
273.963
274.547
275.356
276.332
277.417
278.556
279.695
280.81
281.883
282.872
283.752
284.518
285.173
285.73
286.206
286.62
286.997
287.357
287.717
288.086
288.463
288.834
289.17
289.433
289.577
289.555
289.325
288.859
288.147
287.203
286.061
284.775
283.415
282.058
280.789
279.697
278.87
278.398
278.375
278.898
280.071
282.012
284.858
288.765
293.906
300.463
308.61
318.481
330.142
343.558
358.569
374.873
392.04
409.54
426.799
443.261
458.432
471.904
483.372
492.637
499.623
504.39
507.142
508.215
508.044
507.118
505.919
504.872
504.313
504.466
505.452
507.29
509.926
513.253
517.138
521.439
526.025
530.781
535.611
540.447
545.242
549.968
554.62
559.208
563.757
568.3
572.886
577.574
582.435
587.545
592.973
598.778
605.012
611.72
618.98
626.809
635.218
644.249
653.936
664.31
675.395
687.218
699.824
713.136
726.869
741.114
755.77
770.679
785.796
800.971
815.955
830.559
844.559
857.7
869.674
880.125
888.68
894.992
898.771
899.845
898.239
894.224
888.316
881.202
873.603
866.098
858.982
852.167
845.132
836.945
826.36
812.087
793.181
769.396
741.267
709.921
676.748
643.074
610.011
578.37
548.64
521.075
495.76
472.645
451.737
432.889
415.922
400.655
386.863
374.326
362.89
352.439
342.897
334.234
326.452
319.586
313.695
308.858
305.172
302.745
301.719
302.713
306.095
312.271
321.654
334.646
356.374
318.36
304.856
298.058
294.001
291.074
288.513
286.081
283.775
281.65
279.765
278.164
276.876
275.914
275.274
274.941
274.886
275.073
275.462
276.021
276.729
277.547
278.417
279.302
280.165
280.988
281.762
282.486
283.166
283.806
284.416
285.003
285.571
286.122
286.65
287.147
287.596
287.982
288.286
288.497
288.608
288.626
288.568
288.465
288.356
288.289
288.319
288.5
288.887
289.53
290.478
291.774
293.462
295.586
298.195
301.351
305.128
309.619
314.932
321.185
328.495
336.961
346.644
357.545
369.585
382.593
396.303
410.37
424.393
437.955
450.652
462.12
472.059
480.249
486.573
491.034
493.766
495.029
495.181
494.64
493.83
493.136
492.863
493.227
494.346
496.248
498.887
502.17
505.973
510.17
514.634
519.256
523.948
528.642
533.292
537.875
542.392
546.86
551.314
555.804
560.393
565.16
570.201
575.606
581.454
587.804
594.703
602.199
610.307
619.019
628.275
638.082
648.456
659.386
670.846
682.801
695.196
707.934
720.915
734.067
747.245
760.348
773.315
786.051
798.415
810.241
821.344
831.519
840.537
848.148
854.111
858.229
860.385
860.589
859.028
856.072
852.229
848.048
843.982
840.242
836.689
832.76
827.449
819.392
807.09
789.317
765.58
736.368
702.982
667.147
630.584
594.66
560.407
528.468
499.109
472.389
448.282
426.619
407.157
389.655
373.898
359.645
346.678
334.842
324.02
314.138
305.155
297.06
289.859
283.571
278.225
273.853
270.48
268.135
266.858
267.026
269.026
273.203
279.958
289.746
319.719
309.929
306.907
304.091
301.269
298.434
295.524
292.572
289.663
286.877
284.279
281.923
279.849
278.068
276.594
275.436
274.596
274.07
273.845
273.889
274.153
274.59
275.155
275.807
276.519
277.268
278.038
278.818
279.603
280.389
281.175
281.959
282.74
283.518
284.291
285.056
285.814
286.563
287.31
288.064
288.841
289.664
290.561
291.567
292.717
294.031
295.545
297.287
299.283
301.549
304.094
306.923
310.039
313.444
317.149
321.174
325.552
330.335
335.59
341.395
347.836
354.993
362.928
371.673
381.213
391.48
402.349
413.591
424.935
436.077
446.7
456.492
465.166
472.49
478.305
482.552
485.289
486.69
487.033
486.666
485.976
485.32
484.999
485.237
486.198
487.898
490.302
493.333
496.887
500.849
505.107
509.559
514.12
518.723
523.326
527.908
532.472
537.046
541.678
546.435
551.404
556.685
562.392
568.627
575.474
582.988
591.209
600.103
609.59
619.628
630.176
641.187
652.603
664.357
676.371
688.559
700.826
713.058
725.16
737.036
748.555
759.65
770.284
780.416
789.985
798.902
807.058
814.332
820.587
825.685
829.515
832.017
833.213
833.242
832.378
830.999
829.518
828.267
827.375
826.65
825.499
822.876
817.319
807.139
790.802
767.469
737.395
701.967
663.221
623.325
584.151
546.91
512.461
481.21
453.203
428.273
406.132
386.452
368.915
353.23
339.113
326.317
314.674
304.061
294.406
285.671
277.846
270.938
264.962
259.931
255.844
252.677
250.387
248.909
248.177
248.309
249.642
252.391
256.86
263.482
317.578
312.136
310.928
308.85
306.356
303.72
300.972
298.168
295.38
292.669
290.076
287.636
285.379
283.354
281.589
280.108
278.925
278.047
277.468
277.168
277.114
277.272
277.607
278.086
278.685
279.383
280.164
281.016
281.931
282.91
283.954
285.06
286.231
287.469
288.781
290.176
291.668
293.273
295.011
296.91
298.998
301.309
303.878
306.742
309.927
313.379
317.117
321.147
325.454
330.009
334.768
339.674
344.661
349.661
354.611
359.459
364.175
368.759
373.247
377.709
382.251
386.999
392.087
397.64
403.756
410.514
417.949
425.879
434.12
442.463
450.66
458.446
465.568
471.749
476.789
480.565
483.053
484.327
484.587
484.079
483.237
482.382
481.791
481.684
482.214
483.442
485.363
487.928
491.06
494.666
498.648
502.915
507.388
512.004
516.721
521.519
526.411
531.434
536.655
542.165
548.077
554.51
561.588
569.416
578.078
587.625
598.049
609.166
620.878
633.097
645.727
658.65
671.738
684.855
697.864
710.626
723.006
734.873
746.142
756.701
766.447
775.354
783.442
790.748
797.3
803.103
808.149
812.415
815.872
818.498
820.305
821.354
821.778
821.797
821.697
821.778
822.266
823.2
824.333
825.037
824.245
820.454
811.855
796.672
773.695
742.856
705.39
663.605
620.073
577.137
536.586
499.422
466.073
436.579
410.727
388.163
368.465
351.213
336.009
322.492
310.358
299.399
289.48
280.523
272.497
265.403
259.257
254.086
249.912
246.732
244.512
243.171
242.591
242.618
243.085
243.875
245.234
247.238
250.056
254.033
352.139
325.042
314.938
309.449
306.07
303.676
301.645
299.768
298.016
296.406
294.948
293.654
292.533
291.596
290.853
290.317
290.001
289.916
290.066
290.443
291.031
291.809
292.757
293.854
295.026
296.287
297.653
299.108
300.641
302.28
304.033
305.911
307.924
310.088
312.419
314.937
317.667
320.634
323.865
327.391
331.239
335.436
340.002
344.951
350.281
356.018
362.15
368.652
375.485
382.594
389.908
397.34
404.785
412.124
419.227
425.957
432.18
437.775
442.648
446.748
450.079
452.711
454.779
456.477
458.036
459.686
461.58
463.893
466.716
470.037
473.763
477.727
481.633
485.195
488.189
490.403
491.716
491.993
491.478
490.354
488.913
487.438
486.186
485.375
485.161
485.636
486.829
488.725
491.279
494.422
498.076
502.165
506.617
511.374
516.394
521.663
527.202
533.065
539.345
546.167
553.671
562.003
571.294
581.649
593.133
605.769
619.353
633.633
648.47
663.716
679.199
694.723
710.081
725.062
739.461
753.084
765.757
777.345
787.742
796.827
804.568
811.015
816.265
820.446
823.684
826.095
827.779
828.829
829.333
829.389
829.116
828.662
828.235
828.06
828.344
829.21
830.607
832.222
833.391
833.035
829.65
821.392
806.364
783.101
751.157
711.573
666.615
619.318
572.54
528.372
488.092
452.297
421.084
394.219
371.273
351.723
335.027
320.66
308.153
297.124
287.303
278.513
270.662
263.718
257.695
252.629
248.572
245.567
243.631
242.736
242.796
243.659
245.117
246.924
248.826
250.596
252.256
253.879
255.529
257.461
425.906
346.063
319.106
307.463
302.287
299.926
298.728
298.085
297.821
297.888
298.258
298.907
299.809
300.942
302.289
303.837
305.577
307.51
309.636
311.954
314.455
317.126
319.956
322.906
325.815
328.716
331.636
334.596
337.618
340.701
343.857
347.1
350.452
353.933
357.569
361.386
365.412
369.676
374.206
379.032
384.18
389.674
395.534
401.777
408.412
415.446
422.878
430.695
438.873
447.381
456.168
465.18
474.35
483.594
492.814
501.892
510.695
519.069
526.843
533.837
539.863
544.743
548.331
550.535
551.351
550.881
549.324
546.956
544.108
541.106
538.224
535.586
533.127
530.834
528.787
526.722
524.48
521.96
519.109
515.967
512.723
509.583
506.744
504.388
502.637
501.668
501.575
502.343
503.951
506.351
509.482
513.282
517.695
522.659
528.131
534.1
540.591
547.67
555.454
564.091
573.754
584.61
596.803
610.441
625.581
642.164
659.655
677.816
696.466
715.383
734.302
752.935
770.983
788.15
804.155
818.751
831.735
842.948
852.242
859.562
864.968
868.602
870.656
871.356
870.939
869.635
867.668
865.249
862.583
859.869
857.299
855.07
853.373
852.34
851.995
852.195
852.553
852.367
850.562
845.669
835.895
819.356
794.477
760.59
718.409
670.222
619.195
568.436
520.455
476.887
438.53
405.547
377.691
354.475
335.271
319.409
306.235
295.156
285.684
277.457
270.24
263.9
258.391
253.728
249.973
247.208
245.515
244.946
245.501
247.103
249.585
252.701
256.142
259.576
262.684
265.194
267.003
268.217
268.863
269.146
524.53
371.357
323.352
304.151
296.539
293.804
293.158
293.565
294.68
296.377
298.581
301.231
304.268
307.641
311.307
315.228
319.374
323.728
328.281
333.031
337.964
343.068
348.324
353.652
358.973
364.295
369.605
374.885
380.118
385.297
390.424
395.513
400.581
405.652
410.752
415.908
421.151
426.51
432.013
437.688
443.568
449.682
456.059
462.723
469.695
476.996
484.642
492.646
501.024
509.764
518.826
528.199
537.862
547.788
557.938
568.26
578.689
589.145
599.525
609.698
619.495
628.696
637.033
644.219
649.966
654.029
656.223
656.394
654.619
651.077
646.053
639.91
632.977
625.492
617.728
609.862
602.012
594.235
586.518
578.972
571.75
564.968
558.777
553.36
548.813
545.237
542.67
541.211
540.884
541.658
543.465
546.263
550.119
554.932
560.642
567.226
574.699
583.127
592.629
603.362
615.506
629.245
644.748
662.146
681.506
702.398
724.282
746.916
769.983
793.126
815.969
838.108
859.131
878.638
896.256
911.669
924.642
935.018
942.716
947.789
950.377
950.698
949.044
945.757
941.196
935.715
929.652
923.326
917.025
910.999
905.461
900.589
896.446
892.965
889.913
886.833
882.99
877.324
868.436
854.653
834.211
805.619
768.149
722.399
670.524
615.596
560.939
509.389
462.848
422.266
387.861
359.372
336.253
317.791
303.205
291.714
282.595
275.233
269.155
264.035
259.675
255.994
253.006
250.79
249.467
249.165
249.988
251.982
255.102
259.189
263.977
269.117
274.226
278.918
282.85
285.742
287.402
288.032
287.656
286.458
627.647
397.893
327.883
300.581
290.105
286.647
286.271
287.486
289.754
292.859
296.673
301.096
306.039
311.434
317.23
323.378
329.833
336.572
343.599
350.918
358.503
366.327
374.394
382.406
390.389
398.417
406.458
414.439
422.301
430.009
437.551
444.929
452.151
459.234
466.198
473.07
479.879
486.66
493.425
500.182
506.976
513.851
520.845
527.994
535.333
542.895
550.714
558.834
567.36
576.266
585.427
594.91
604.74
614.926
625.47
636.367
647.603
659.154
670.982
683.014
695.129
707.144
718.801
729.822
739.956
748.815
756.042
761.358
764.551
765.482
764.118
760.668
755.566
748.747
740.401
730.83
720.355
709.238
697.704
686.051
674.543
663.371
652.742
642.92
634.185
626.581
620.126
614.984