/*--------------------------------*- C++ -*----------------------------------*\
| =========                 |                                                 |
| \\      /  F ield         | OpenFOAM: The Open Source CFD Toolbox           |
|  \\    /   O peration     | Version:  2112                                  |
|   \\  /    A nd           | Website:  www.openfoam.com                      |
|    \\/     M anipulation  |                                                 |
\*---------------------------------------------------------------------------*/
FoamFile
{
    version     2.0;
    format      ascii;
    arch        "LSB;label=32;scalar=64";
    class       volScalarField;
    location    "0.14";
    object      nut;
}
// * * * * * * * * * * * * * * * * * * * * * * * * * * * * * * * * * * * * * //

dimensions      [0 2 -1 0 0 0 0];

internalField   nonuniform List<scalar> 
12885
(
1.82495e-06
1.81428e-06
1.99014e-06
2.29463e-06
2.47559e-06
2.61115e-06
2.72562e-06
2.83701e-06
2.92497e-06
3.0493e-06
3.06001e-06
3.13962e-06
3.54098e-06
3.53815e-06
3.5796e-06
3.58997e-06
3.60865e-06
3.64558e-06
3.67402e-06
3.69119e-06
3.70724e-06
3.72878e-06
3.73747e-06
3.72935e-06
3.70121e-06
3.72415e-06
3.71797e-06
3.71528e-06
3.80161e-06
3.89881e-06
3.91428e-06
1.82812e-07
8.11e-10
1.34574e-11
2.8436e-12
9.59396e-20
5.81736e-22
6.21678e-25
4.34388e-27
1.67354e-30
2.42921e-06
2.00849e-06
2.21536e-06
2.59003e-06
2.83128e-06
3.01521e-06
3.17115e-06
3.32263e-06
3.44341e-06
3.61172e-06
3.63474e-06
3.79527e-06
4.37153e-06
4.36329e-06
4.38749e-06
4.40039e-06
4.43649e-06
4.48568e-06
4.52308e-06
4.54977e-06
4.574e-06
4.60686e-06
4.62346e-06
4.6228e-06
4.59619e-06
4.63616e-06
4.63727e-06
4.71601e-06
5.00385e-06
5.12164e-06
5.08077e-06
9.24707e-09
1.86439e-10
7.00285e-11
9.58991e-23
1.43672e-18
8.24029e-18
9.12133e-18
6.89e-29
1.56889e-31
3.06843e-06
2.08554e-06
2.2753e-06
2.63428e-06
2.88989e-06
3.08896e-06
3.25644e-06
3.41599e-06
3.54313e-06
3.71229e-06
3.74724e-06
4.01461e-06
4.32722e-06
4.55437e-06
4.545e-06
4.55863e-06
4.61363e-06
4.65405e-06
4.68375e-06
4.71246e-06
4.73888e-06
4.77529e-06
4.79723e-06
4.81545e-06
4.81724e-06
4.89166e-06
4.90715e-06
5.12469e-06
5.27698e-06
5.48283e-06
5.57024e-06
4.9785e-09
1.5876e-22
1.58647e-22
1.58396e-22
1.58415e-22
1.58372e-22
1.58395e-22
1.26348e-30
5.21586e-33
4.62754e-06
2.62176e-06
2.60988e-06
2.83885e-06
3.06454e-06
3.26517e-06
3.43671e-06
3.59606e-06
3.72326e-06
3.87356e-06
3.93203e-06
4.17155e-06
4.40837e-07
4.40798e-06
4.60587e-06
4.69696e-06
4.7842e-06
4.79203e-06
4.81083e-06
4.83908e-06
4.86809e-06
4.90735e-06
4.93284e-06
4.98862e-06
5.05909e-06
5.23969e-06
5.28937e-06
4.1686e-06
1.33993e-06
4.90384e-07
5.20075e-06
5.53696e-09
1.58404e-22
1.584e-22
1.58397e-22
1.58569e-22
1.58395e-22
3.67679e-22
8.9485e-34
1.48583e-35
1.29144e-05
5.63359e-06
4.50042e-06
4.28106e-06
4.26463e-06
4.34348e-06
4.43239e-06
4.52073e-06
4.60269e-06
4.66049e-06
4.8016e-06
1.97272e-07
7.44367e-10
1.4354e-07
3.9653e-06
5.00738e-06
5.07965e-06
5.11597e-06
5.17147e-06
5.2052e-06
5.25169e-06
5.28119e-06
5.34246e-06
5.48795e-06
5.66855e-06
4.9404e-06
4.62005e-06
4.20907e-08
1.52041e-06
1.00132e-07
7.40618e-08
9.82957e-10
5.7909e-10
1.584e-22
1.5869e-22
1.58395e-22
1.58396e-22
1.58395e-22
3.00271e-36
5.0012e-37
8.92541e-05
2.9091e-05
1.71686e-05
1.29996e-05
1.11649e-05
1.01921e-05
9.63918e-06
9.20555e-06
8.99018e-06
8.81329e-06
8.78427e-06
6.02198e-12
1.8534e-14
8.66802e-12
2.43596e-09
1.6249e-07
3.37329e-06
8.71434e-06
7.75786e-06
7.74071e-06
7.77636e-06
7.78192e-06
8.00275e-06
2.36572e-06
2.65842e-06
6.09512e-06
3.78147e-10
5.49392e-11
6.78009e-09
2.20608e-07
1.54345e-08
6.14367e-09
5.14534e-09
8.15883e-10
6.32181e-10
1.25752e-09
1.58397e-22
1.58395e-22
2.79494e-37
5.51837e-38
0.000372849
0.000885917
0.000289203
0.000132519
9.43773e-05
1.66413e-06
4.57061e-08
1.57513e-06
1.63613e-05
1.67952e-06
1.83597e-09
1.08446e-17
1.32665e-19
7.84923e-17
1.20281e-14
2.33122e-12
1.6487e-09
1.24124e-08
9.39107e-07
2.28198e-05
2.29653e-05
2.32626e-05
2.52505e-07
5.89862e-08
1.13161e-06
1.70836e-05
4.49026e-12
1.19251e-13
3.92775e-12
1.2039e-07
1.76515e-08
1.2377e-08
3.07038e-09
2.84039e-09
3.34731e-08
8.5691e-08
4.67734e-09
7.88323e-11
6.30965e-11
2.91971e-28
0.000491708
0.000702305
0.00283136
0.00418074
5.41871e-05
5.95177e-12
4.47693e-14
1.51978e-12
1.97725e-08
3.33854e-12
8.85377e-15
6.35725e-23
8.54975e-25
7.25278e-23
1.22388e-19
4.78255e-17
9.51919e-15
1.07957e-13
6.96851e-11
7.19614e-08
3.31102e-07
4.50469e-07
1.81364e-09
2.70343e-09
4.80797e-15
1.83979e-10
7.34124e-12
1.21118e-11
0.000109993
1.20146e-06
2.55424e-07
7.85014e-09
9.90951e-09
1.49038e-08
3.66884e-09
1.54927e-08
3.32297e-09
8.32757e-10
8.00583e-12
1.98388e-23
0.000731448
0.000691666
0.00109123
0.000464327
1.44714e-09
3.16547e-18
5.30027e-21
1.78729e-16
2.16467e-10
3.03307e-15
2.3754e-20
4.03758e-28
9.86007e-30
1.18602e-26
2.57726e-24
1.22903e-22
1.89758e-19
6.41139e-19
4.10058e-16
1.77049e-13
1.74394e-09
2.62362e-10
1.28679e-11
2.46178e-16
1.11356e-17
1.72252e-18
9.74911e-20
2.32602e-18
0.000258421
0.00142001
1.21743e-07
1.38982e-08
3.30375e-09
1.66313e-09
5.2671e-09
3.19171e-09
2.37084e-08
6.38961e-09
1.34985e-09
4.47415e-11
0.000671507
2.37044e-06
1.86927e-06
9.03022e-12
2.52521e-14
7.86952e-25
1.05831e-26
5.75855e-25
9.7535e-17
1.15707e-23
1.20714e-25
1.36413e-23
1.39543e-27
1.80494e-24
4.68816e-22
1.71953e-16
3.21821e-22
4.74374e-24
9.96448e-21
1.81337e-12
3.04881e-12
4.02892e-16
2.06762e-17
2.31841e-21
1.24485e-22
2.68329e-21
1.05874e-16
0.000870955
0.00101952
0.000356351
7.19103e-08
4.28745e-09
1.58395e-22
1.58395e-22
7.73864e-11
4.30319e-11
1.46609e-10
1.43876e-09
5.42115e-09
1.2554e-09
2.85957e-08
7.73635e-09
7.49178e-16
2.72471e-22
6.19837e-24
6.28985e-32
5.10398e-31
2.18941e-29
9.6266e-09
6.47666e-28
3.79717e-31
5.77953e-29
1.29431e-26
2.29827e-24
6.08353e-22
7.29492e-23
9.91959e-28
2.94798e-29
9.12239e-24
8.42897e-20
3.99417e-18
2.37835e-21
1.38871e-22
5.73849e-27
3.40712e-28
6.10581e-27
0.00130239
2.76185e-35
0.00013109
0.000305359
6.72991e-09
7.28209e-09
1.68363e-09
1.58395e-22
2.25537e-11
5.69072e-13
1.58395e-22
1.58395e-22
3.25113e-11
2.29061e-24
2.92489e-08
2.55686e-15
9.04323e-21
1.31896e-30
1.54412e-31
1.02248e-37
2.20446e-38
1.08656e-37
0.00130808
4.75418e-36
1.08206e-36
8.49114e-35
7.87805e-33
8.78269e-31
1.64297e-28
2.79382e-27
7.57852e-35
1.70584e-35
2.72459e-33
1.53217e-25
2.6731e-23
9.38639e-24
5.23749e-29
1.52051e-33
1.23477e-34
2.17723e-33
1.76703e-37
4.6546e-38
1.92339e-37
0.00191153
1.46147e-32
9.04006e-09
2.11919e-09
1.71301e-09
1.01361e-08
1.2827e-10
3.02322e-11
1.58395e-22
1.58395e-22
1.58396e-22
2.06622e-08
8.06113e-23
3.2367e-18
8.19108e-32
2.80309e-34
5.67555e-36
5.59406e-37
2.83937e-36
0.00614617
0.00831315
9.76542e-34
2.21729e-33
4.72474e-17
8.22487e-22
1.31451e-20
2.10412e-16
6.53048e-26
6.53029e-26
8.62287e-13
1.86045e-19
8.97977e-18
1.62682e-16
1.07233e-25
1.87869e-16
5.22941e-20
0.00240723
0.000630171
1.50967e-24
2.82814e-11
6.82116e-36
1.17648e-36
4.11916e-11
2.98702e-09
1.16904e-08
4.47271e-10
3.12565e-13
3.4916e-22
5.72464e-22
2.32441e-21
1.76357e-36
1.82638e-08
1.43066e-22
5.07768e-25
2.27946e-37
4.2574e-39
2.49037e-38
2.43957e-35
7.49111e-05
0.00166545
0.00269276
2.41609e-08
4.62265e-22
3.97262e-22
3.49714e-17
1.81664e-18
2.82617e-24
3.26889e-22
1.11906e-15
1.45738e-12
4.00768e-15
1.74797e-28
0.00127816
1.20613e-21
5.56686e-16
1.96831e-23
1.20989e-18
7.56001e-11
3.98805e-09
1.41117e-09
1.53538e-26
1.88549e-39
4.89651e-42
5.33537e-41
3.11855e-14
6.54106e-15
1.08574e-28
3.31554e-41
5.8485e-44
2.47226e-46
6.3406e-39
1.50571e-08
1.58389e-22
2.07844e-25
2.51852e-40
1.0521e-42
3.62156e-42
9.00159e-05
3.34926e-05
2.98289e-05
0.000106157
5.80447e-19
3.15751e-20
2.94388e-22
3.47865e-22
5.46064e-22
3.20129e-22
1.06543e-14
1.17815e-16
1.0339e-23
2.75126e-29
1.30232e-32
5.52604e-31
6.73808e-25
1.11086e-22
1.20084e-23
9.9882e-31
5.78369e-15
2.54006e-10
7.48841e-11
9.6418e-25
6.25023e-45
5.51155e-44
5.50331e-43
2.4202e-42
6.74919e-40
1.686e-40
2.41146e-43
3.89596e-46
1.50811e-48
8.85676e-51
1.22072e-08
1.58395e-22
1.58395e-22
6.3554e-26
2.03181e-40
8.58105e-43
6.78034e-42
3.69553e-06
5.78764e-06
3.97871e-06
2.57843e-06
2.19458e-18
2.34624e-16
4.59612e-24
9.36042e-24
4.53293e-22
3.73449e-22
4.80253e-16
6.00622e-24
7.47058e-30
5.32946e-30
1.02602e-28
1.75942e-45
1.79903e-35
8.85875e-35
1.70726e-28
5.88549e-44
1.10796e-43
2.29612e-25
6.6122e-33
1.20574e-46
5.52186e-46
3.57862e-41
1.64286e-20
2.00794e-33
9.71206e-37
5.22799e-41
3.85647e-44
4.00087e-41
5.20259e-44
1.27882e-08
3.04521e-26
9.30948e-32
6.71794e-23
9.54341e-25
1.29158e-37
1.29095e-36
1.01039e-06
1.16444e-06
1.31364e-06
4.21443e-07
5.36766e-08
2.38953e-32
6.06612e-37
7.75582e-37
2.64874e-41
5.71261e-40
7.90682e-35
1.21367e-36
7.62075e-35
1.37467e-21
9.36228e-23
4.73316e-31
2.83111e-13
7.52619e-12
8.78755e-45
2.61425e-45
3.10397e-48
1.19455e-36
1.11056e-21
4.47658e-45
7.1377e-07
6.2486e-11
2.09172e-18
4.10503e-24
5.36988e-35
3.13732e-39
4.92781e-08
2.83351e-39
7.04006e-32
5.5776e-19
7.7709e-34
6.62527e-48
4.48367e-33
6.94299e-33
9.20816e-36
1.22183e-34
6.15246e-07
7.52524e-07
9.28817e-07
1.34142e-06
6.12856e-31
7.39319e-33
8.90785e-38
2.42671e-41
3.08325e-42
6.28416e-41
2.09821e-39
1.18872e-37
6.99892e-36
1.78933e-23
1.57638e-22
1.59998e-22
1.5791e-22
1.09442e-34
1.80438e-45
1.71024e-48
8.28913e-48
5.59288e-06
6.01027e-07
2.89902e-06
1.02789e-09
6.94755e-11
1.95481e-22
2.33853e-12
4.24276e-11
1.24677e-06
1.64991e-06
3.47411e-09
4.66905e-09
7.9932e-09
3.41196e-22
8.59258e-36
1.96281e-32
4.9128e-29
2.07447e-31
8.1524e-29
2.82394e-07
1.68206e-07
6.50701e-08
6.4993e-08
2.06636e-25
1.668e-27
4.39459e-35
8.58312e-39
8.45623e-40
1.79483e-38
6.72477e-37
2.10331e-35
1.79598e-33
6.53442e-34
5.24409e-35
9.50521e-25
9.12048e-37
8.21096e-31
1.10217e-42
1.04835e-45
6.64383e-45
1.37771e-08
1.26476e-10
4.22367e-11
9.07519e-12
7.10146e-12
1.16936e-12
1.72712e-22
4.1019e-13
1.07226e-11
3.40055e-11
2.63809e-11
9.72098e-12
5.82198e-09
2.41515e-16
2.10699e-20
1.20329e-25
1.49398e-34
1.08632e-29
1.39552e-26
4.92865e-08
2.69934e-08
4.19455e-08
3.19105e-08
2.40331e-08
4.39803e-26
3.04444e-34
8.16724e-32
6.89685e-37
1.04712e-35
5.6397e-34
1.10303e-30
1.65505e-34
9.05498e-33
1.3675e-22
3.79139e-08
3.6916e-24
3.13941e-08
1.15348e-41
1.14979e-44
4.29658e-37
3.22669e-20
2.70983e-09
9.82585e-22
1.59155e-22
3.47968e-13
1.76374e-22
1.81877e-22
1.66794e-22
1.70752e-22
1.69036e-22
1.26402e-12
1.64897e-22
2.37627e-16
5.88078e-14
4.34581e-19
9.17455e-22
7.23605e-29
3.29078e-23
4.01058e-20
3.77466e-08
3.25678e-08
2.79083e-08
2.24937e-08
1.5856e-08
7.62368e-10
5.31249e-23
9.9469e-26
5.17707e-34
1.15913e-31
3.49028e-28
2.98512e-29
3.12249e-34
2.84768e-34
1.60541e-08
7.2309e-09
1.85099e-08
2.27615e-08
2.57646e-08
1.46672e-25
5.83391e-38
5.24592e-37
1.14684e-08
1.33029e-10
1.58395e-22
1.60665e-22
1.71434e-22
1.75283e-22
1.74066e-22
1.70136e-22
1.68423e-22
1.68051e-22
1.66839e-22
6.33403e-14
3.82361e-17
1.24736e-16
2.51576e-16
4.35959e-24
1.02498e-17
3.46839e-14
3.16551e-08
3.09097e-08
2.96684e-08
2.74141e-08
2.43315e-08
2.05864e-08
6.30348e-17
5.03119e-20
1.39346e-28
1.84577e-25
1.9917e-31
1.58329e-32
4.29903e-38
2.94779e-26
8.18972e-09
7.38015e-09
1.35735e-08
2.92411e-09
3.74803e-09
9.17548e-09
4.51568e-37
2.9312e-08
1.18352e-08
2.55125e-09
3.41382e-10
1.58422e-22
1.67701e-22
1.72056e-22
1.71596e-22
1.69083e-22
1.67834e-22
1.67379e-22
1.6656e-22
2.84298e-26
1.96911e-24
6.12731e-26
6.55076e-16
4.84328e-19
1.82136e-11
1.20835e-08
3.07892e-08
3.10411e-08
3.08911e-08
3.03997e-08
2.98269e-08
2.87174e-08
2.46107e-11
1.25955e-14
3.46045e-23
1.06993e-23
1.37007e-08
1.21604e-21
2.55424e-37
3.89527e-09
4.32284e-09
3.11251e-09
2.00641e-09
1.92943e-09
5.83855e-10
1.38644e-09
1.68944e-08
2.69883e-08
3.79827e-08
4.13765e-08
3.43864e-08
4.1464e-10
3.55823e-11
1.69883e-22
1.69664e-22
1.68142e-22
1.67235e-22
1.66736e-22
1.66007e-22
2.42077e-29
4.88077e-34
1.37056e-30
2.69198e-10
1.31884e-14
7.44567e-11
2.64225e-08
2.95933e-08
2.86929e-08
2.90672e-08
2.99035e-08
3.00457e-08
1.58305e-08
2.91499e-08
4.60587e-13
1.44319e-21
2.53302e-08
2.44705e-08
1.98562e-08
5.65044e-09
1.42992e-08
4.82233e-09
1.16914e-08
7.8748e-10
4.02086e-10
1.70028e-09
7.89953e-09
5.51995e-09
1.64387e-08
2.17146e-08
2.76474e-08
3.39842e-08
2.26392e-08
8.58517e-10
1.23153e-11
1.68239e-22
1.67121e-22
1.66463e-22
1.66017e-22
1.65483e-22
1.78454e-31
1.55264e-36
1.05788e-27
7.23897e-23
2.86402e-13
5.27555e-09
2.82487e-09
2.01566e-08
8.32775e-10
1.0883e-09
1.43009e-09
8.58329e-10
1.08191e-10
8.1436e-10
1.97292e-09
2.30618e-09
1.76461e-09
2.18831e-08
2.0257e-08
1.7667e-08
1.91588e-08
1.38812e-08
1.33731e-08
2.08295e-09
1.13376e-09
4.80612e-09
2.6786e-09
1.36863e-09
8.30727e-09
1.13944e-08
1.54118e-08
2.02588e-08
2.42381e-08
6.03253e-09
5.13237e-11
1.67139e-22
1.6627e-22
1.65727e-22
1.65355e-22
1.64984e-22
9.04545e-33
2.08003e-37
1.18441e-32
8.15349e-28
4.52592e-09
4.622e-10
3.3639e-11
3.62494e-11
4.87996e-11
3.12646e-11
3.09418e-11
2.98944e-11
2.88915e-11
2.94293e-11
6.28706e-09
7.86566e-09
7.937e-09
6.41674e-09
6.11503e-09
6.2708e-09
1.30831e-08
1.05772e-08
9.50348e-09
4.51888e-09
2.64538e-09
4.09177e-09
1.67813e-09
1.49352e-09
3.88947e-09
5.35778e-09
7.5668e-09
1.03751e-08
1.36297e-08
1.52409e-08
7.48584e-10
5.40699e-12
1.65624e-22
1.65163e-22
1.64841e-22
1.64567e-22
4.04314e-33
6.93285e-38
1.81916e-34
7.45704e-30
2.206e-09
5.41123e-13
2.47091e-12
2.71704e-12
5.17503e-13
2.31934e-12
2.28807e-12
2.2193e-12
2.17801e-12
2.17825e-12
1.78906e-11
1.89971e-09
2.09038e-09
1.87811e-09
1.77346e-09
2.61695e-09
6.34801e-09
5.38264e-09
4.79548e-09
3.07038e-09
1.63172e-09
2.24638e-09
8.80649e-10
9.12346e-10
1.69953e-09
2.34075e-09
3.39961e-09
4.79676e-09
6.51199e-09
7.83711e-09
7.7673e-10
4.52145e-13
1.6521e-22
1.64791e-22
1.64494e-22
1.64503e-22
2.63206e-32
1.83986e-37
1.12377e-33
1.38587e-27
1.99389e-09
1.8515e-12
1.87753e-12
1.85515e-12
1.81588e-12
1.86818e-12
1.87238e-12
1.87085e-12
1.86857e-12
1.86501e-12
1.9197e-12
1.30308e-09
1.90549e-09
2.18374e-09
1.98379e-09
2.66721e-09
3.10325e-09
2.81695e-09
2.53452e-09
2.29716e-09
6.91048e-10
1.2247e-09
5.65563e-10
5.36012e-10
6.90466e-10
8.43307e-10
1.27419e-09
1.85205e-09
2.60949e-09
3.2223e-09
2.50378e-10
1.65729e-22
1.65023e-22
1.64627e-22
1.64353e-22
1.64507e-22
9.48011e-30
4.75709e-36
1.64085e-30
4.72513e-24
1.54655e-13
4.88644e-13
4.90113e-13
4.90226e-13
4.89124e-13
4.89891e-13
4.89549e-13
4.88981e-13
4.88217e-13
4.87188e-13
4.85803e-13
1.22878e-13
1.35295e-13
1.43378e-13
1.38979e-13
1.48147e-13
1.30833e-13
1.46838e-13
1.37791e-13
1.30832e-13
9.31743e-14
8.01755e-14
6.15151e-14
4.91136e-14
3.4413e-14
1.77252e-14
2.58333e-15
1.43321e-13
2.01202e-13
2.47445e-13
5.59655e-24
1.65761e-22
1.6502e-22
1.64627e-22
1.64368e-22
1.64108e-22
2.83833e-12
1.93446e-13
3.37868e-14
1.78482e-14
1.97781e-14
2.04646e-14
2.05264e-14
2.05377e-14
2.05326e-14
2.05263e-14
2.05097e-14
2.0486e-14
2.04539e-14
2.04107e-14
2.03513e-14
1.95337e-14
1.95437e-14
1.9488e-14
1.92731e-14
1.91041e-14
1.85798e-14
1.8314e-14
1.76341e-14
1.67565e-14
1.53404e-14
1.37365e-14
1.16229e-14
8.90516e-15
5.79881e-15
6.56891e-15
3.17734e-15
1.51784e-17
1.6389e-24
1.6389e-24
1.6389e-24
1.6389e-24
1.6389e-24
1.6389e-24
1.6389e-24
1.6389e-24
0.00872719
0.00399264
0.00156468
0.000886734
0.000573573
0.000399067
0.000295386
0.000229021
0.000183644
0.000150961
0.000126419
0.000107359
9.21444e-05
7.97252e-05
6.94066e-05
6.07023e-05
5.32594e-05
4.68124e-05
4.11655e-05
3.61838e-05
3.18194e-05
2.81008e-05
2.50629e-05
2.26587e-05
2.0955e-05
2.03322e-05
2.12431e-05
2.3558e-05
2.74063e-05
3.52621e-05
6.57561e-05
0.000133504
2.40288e-05
1.248e-05
8.47778e-06
6.49549e-06
5.39017e-06
4.73052e-06
4.33153e-06
4.08936e-06
3.95855e-06
3.90294e-06
3.9519e-06
4.13781e-06
4.74078e-06
5.97467e-06
7.51902e-06
9.06484e-06
1.00542e-05
1.02428e-05
9.86764e-06
9.12705e-06
8.69354e-06
8.42344e-06
8.25783e-06
8.56317e-06
9.21608e-06
1.18687e-05
0.000335455
1.66173e-05
1.16189e-05
1.3276e-05
2.48752e-05
5.392e-05
1.72358e-05
1.14579e-05
1.02406e-05
1.05939e-05
1.22432e-05
1.42868e-05
1.31907e-05
1.0558e-05
9.3824e-06
8.00672e-06
6.46244e-06
5.71717e-06
5.3047e-06
5.10882e-06
5.65936e-06
8.99632e-06
8.75263e-05
2.01362e-05
8.14557e-06
5.2102e-06
3.92294e-06
3.22655e-06
2.80925e-06
2.54774e-06
2.36783e-06
2.23594e-06
2.14431e-06
2.0838e-06
2.05039e-06
2.04025e-06
2.05151e-06
2.08501e-06
2.14181e-06
2.22473e-06
2.33828e-06
2.4892e-06
2.68738e-06
2.94728e-06
3.29061e-06
3.75115e-06
4.38295e-06
5.28843e-06
6.68415e-06
9.2553e-06
2.04013e-05
3.2937e-05
1.58021e-05
1.13538e-05
9.23991e-06
8.02665e-06
7.27475e-06
6.7985e-06
6.50284e-06
6.33463e-06
6.26228e-06
6.26638e-06
6.33464e-06
6.45889e-06
6.63289e-06
6.85002e-06
7.10229e-06
7.38091e-06
7.67735e-06
7.98478e-06
8.29873e-06
8.61727e-06
8.94061e-06
9.26974e-06
9.6025e-06
9.92347e-06
1.01911e-05
1.03472e-05
1.03619e-05
1.02898e-05
1.02867e-05
1.05679e-05
1.13215e-05
1.25337e-05
1.37564e-05
1.42774e-05
1.39166e-05
1.31567e-05
1.24426e-05
1.1916e-05
1.15563e-05
1.1304e-05
1.11096e-05
1.09427e-05
1.07812e-05
1.06034e-05
1.04078e-05
1.02286e-05
1.01095e-05
1.00542e-05
9.94672e-06
9.62184e-06
8.94986e-06
8.16842e-06
7.22183e-06
5.88873e-06
4.51032e-06
3.43074e-06
2.95177e-06
3.54491e-06
5.51489e-06
5.22307e-06
3.83496e-06
4.47091e-06
1.57057e-05
3.02082e-05
1.00525e-05
6.87434e-06
5.5883e-06
4.93102e-06
4.49152e-06
4.83442e-06
0.0087694
0.00887083
0.00642117
0.00553691
0.00486599
0.00445017
0.00426874
0.00419058
0.00414829
0.00411038
0.00405691
0.0039749
0.00385622
0.00369473
0.00348392
0.00321513
0.0028782
0.00246593
0.00198429
0.00146663
0.000981491
0.000608592
0.000378792
0.000259154
0.000205358
0.000191062
0.000214785
0.000308155
0.000572673
0.00112878
0.00153543
0.00114896
0.000138128
2.84405e-05
1.46399e-05
9.87194e-06
7.63076e-06
6.40673e-06
5.69752e-06
5.27202e-06
5.03695e-06
4.92675e-06
4.98231e-06
5.25359e-06
6.21136e-06
8.42258e-06
1.1833e-05
1.63177e-05
2.00525e-05
2.10648e-05
1.97493e-05
1.73173e-05
1.61049e-05
1.53533e-05
1.49647e-05
1.60725e-05
1.87905e-05
3.32724e-05
0.000770156
5.56345e-05
2.7998e-05
4.09781e-05
0.000310858
0.00107712
5.02954e-05
2.33794e-05
2.01288e-05
2.21261e-05
2.92165e-05
3.95836e-05
3.22716e-05
2.10537e-05
1.72601e-05
1.34036e-05
9.82951e-06
8.3347e-06
7.65468e-06
7.5576e-06
9.39667e-06
2.53092e-05
0.000757379
3.74511e-05
1.0874e-05
6.42128e-06
4.6858e-06
3.79897e-06
3.28512e-06
2.968e-06
2.75294e-06
2.5988e-06
2.49447e-06
2.4286e-06
2.39644e-06
2.3934e-06
2.41763e-06
2.47087e-06
2.55534e-06
2.67589e-06
2.84021e-06
3.06001e-06
3.35314e-06
3.74718e-06
4.28676e-06
5.04847e-06
6.17283e-06
7.97002e-06
1.1275e-05
1.98572e-05
0.000151202
0.000482243
4.49745e-05
2.31915e-05
1.63906e-05
1.31867e-05
1.14111e-05
1.03599e-05
9.73359e-06
9.38534e-06
9.23694e-06
9.24493e-06
9.38522e-06
9.64464e-06
1.00159e-05
1.04922e-05
1.10642e-05
1.172e-05
1.24471e-05
1.32347e-05
1.40762e-05
1.49699e-05
1.59191e-05
1.6928e-05
1.79892e-05
1.90464e-05
1.9947e-05
2.04763e-05
2.05373e-05
2.03574e-05
2.05052e-05
2.17581e-05
2.49825e-05
3.06362e-05
3.69519e-05
3.93394e-05
3.65485e-05
3.21654e-05
2.86335e-05
2.62765e-05
2.47561e-05
2.37199e-05
2.29342e-05
2.22661e-05
2.16266e-05
2.09467e-05
2.0239e-05
1.96231e-05
1.92166e-05
1.89933e-05
1.8571e-05
1.75006e-05
1.55653e-05
1.35377e-05
1.13063e-05
8.51293e-06
6.04176e-06
4.35092e-06
3.6522e-06
4.46093e-06
7.31934e-06
6.90414e-06
5.10519e-06
6.92221e-06
0.000127917
6.63469e-05
1.4405e-05
9.19589e-06
7.29877e-06
6.38832e-06
5.83799e-06
6.46905e-06
0.00883881
0.00780669
0.00513223
0.00437159
0.00387806
0.00357082
0.00343866
0.00339172
0.00337724
0.00337059
0.00335687
0.00332682
0.00327494
0.00319766
0.00309095
0.00294828
0.00276023
0.00251671
0.00221322
0.00186036
0.0014888
0.00114424
0.000871694
0.00070118
0.000634004
0.000621248
0.000628654
0.000755513
0.00107395
0.00140753
0.00133788
0.000848806
0.000199267
3.67349e-05
1.74998e-05
1.13872e-05
8.61399e-06
7.11485e-06
6.24051e-06
5.70461e-06
5.39366e-06
5.22883e-06
5.2482e-06
5.49653e-06
6.46807e-06
8.82224e-06
1.28407e-05
1.90857e-05
2.5427e-05
2.78451e-05
2.60384e-05
2.24439e-05
2.08217e-05
1.97836e-05
1.9357e-05
2.14197e-05
2.70284e-05
5.92381e-05
0.000435183
9.68503e-05
4.48932e-05
7.93528e-05
0.000516319
0.000857646
6.37709e-05
2.81502e-05
2.50134e-05
2.89104e-05
4.04145e-05
5.76525e-05
4.32975e-05
2.59579e-05
2.06571e-05
1.55737e-05
1.12223e-05
9.47138e-06
8.86699e-06
9.29375e-06
1.35587e-05
6.19104e-05
0.000460109
2.63303e-05
9.54173e-06
6.05451e-06
4.59648e-06
3.82463e-06
3.36888e-06
3.08265e-06
2.88803e-06
2.75104e-06
2.66169e-06
2.61013e-06
2.59277e-06
2.60562e-06
2.64765e-06
2.7216e-06
2.83076e-06
2.98146e-06
3.1835e-06
3.45178e-06
3.80919e-06
4.2919e-06
4.96013e-06
5.92171e-06
7.38725e-06
9.86057e-06
1.48803e-05
3.06784e-05
0.000271339
0.000676669
6.06e-05
2.79339e-05
1.89421e-05
1.49406e-05
1.27855e-05
1.15279e-05
1.07824e-05
1.03666e-05
1.01855e-05
1.01879e-05
1.03464e-05
1.06476e-05
1.10858e-05
1.16568e-05
1.23541e-05
1.31685e-05
1.40893e-05
1.51079e-05
1.62193e-05
1.74245e-05
1.87296e-05
2.01404e-05
2.16425e-05
2.31481e-05
2.4431e-05
2.51893e-05
2.53186e-05
2.51977e-05
2.56783e-05
2.79211e-05
3.33429e-05
4.28775e-05
5.34164e-05
5.6447e-05
5.05342e-05
4.2776e-05
3.70025e-05
3.33106e-05
3.09714e-05
2.93821e-05
2.81742e-05
2.71434e-05
2.61584e-05
2.51346e-05
2.41086e-05
2.32384e-05
2.26471e-05
2.22595e-05
2.15782e-05
2.01119e-05
1.76943e-05
1.52563e-05
1.26276e-05
9.40018e-06
6.64032e-06
4.78556e-06
3.9973e-06
4.77126e-06
7.41723e-06
7.17452e-06
5.86732e-06
9.64127e-06
0.000230722
4.14513e-05
1.26769e-05
8.80237e-06
7.29659e-06
6.57493e-06
6.20083e-06
6.96968e-06
0.00688761
0.00698167
0.00469918
0.00395337
0.00349168
0.0031884
0.00303707
0.00297148
0.00294266
0.00292462
0.00290229
0.00286649
0.00281213
0.0027357
0.00263375
0.00250134
0.00233246
0.0021228
0.0018763
0.00161141
0.00135955
0.00115377
0.00101705
0.00097579
0.00105409
0.00112557
0.000995072
0.000957111
0.00108614
0.0012208
0.00112605
0.000660252
0.000167547
4.02354e-05
2.01547e-05
1.32036e-05
9.92585e-06
8.10297e-06
7.00769e-06
6.3107e-06
5.87988e-06
5.6197e-06
5.55886e-06
5.72297e-06
6.57351e-06
8.73385e-06
1.27086e-05
1.98188e-05
2.86599e-05
3.35587e-05
3.21923e-05
2.80127e-05
2.62389e-05
2.50266e-05
2.47162e-05
2.82211e-05
3.85076e-05
9.20414e-05
0.000336858
0.000142368
7.63785e-05
0.000139735
0.000507429
0.000608873
5.9762e-05
2.97545e-05
2.81617e-05
3.37269e-05
4.74106e-05
6.68896e-05
4.79634e-05
2.85185e-05
2.25995e-05
1.71075e-05
1.25853e-05
1.07518e-05
1.05043e-05
1.22763e-05
2.32204e-05
0.000145155
0.000218469
1.5462e-05
7.79656e-06
5.51199e-06
4.43737e-06
3.8364e-06
3.47194e-06
3.23861e-06
3.08156e-06
2.97625e-06
2.9149e-06
2.89001e-06
2.89972e-06
2.94123e-06
3.01479e-06
3.12472e-06
3.27603e-06
3.4774e-06
3.74185e-06
4.08917e-06
4.54997e-06
5.17342e-06
6.04347e-06
7.31583e-06
9.31034e-06
1.28396e-05
2.05871e-05
4.74514e-05
0.000281669
0.000548662
6.22739e-05
2.94622e-05
2.01568e-05
1.59684e-05
1.36902e-05
1.23459e-05
1.15377e-05
1.10764e-05
1.0863e-05
1.08441e-05
1.09917e-05
1.12926e-05
1.17424e-05
1.23395e-05
1.30802e-05
1.39582e-05
1.49659e-05
1.60963e-05
1.7346e-05
1.87168e-05
2.02142e-05
2.18407e-05
2.3571e-05
2.52939e-05
2.6752e-05
2.76336e-05
2.78844e-05
2.79961e-05
2.89686e-05
3.21553e-05
3.92045e-05
5.09504e-05
6.28012e-05
6.44863e-05
5.61668e-05
4.67863e-05
4.01451e-05
3.59633e-05
3.33054e-05
3.14771e-05
3.00692e-05
2.88538e-05
2.76889e-05
2.65016e-05
2.53483e-05
2.43794e-05
2.36774e-05
2.31252e-05
2.22536e-05
2.06914e-05
1.83344e-05
1.5979e-05
1.34014e-05
1.01602e-05
7.34108e-06
5.3875e-06
4.4702e-06
5.10911e-06
7.30464e-06
7.39326e-06
7.03928e-06
1.57555e-05
0.000214539
2.13657e-05
1.04124e-05
8.12701e-06
7.16109e-06
6.72548e-06
6.62238e-06
7.52386e-06
0.00435501
0.00638805
0.00469972
0.00409908
0.00368091
0.00333587
0.00312625
0.00301833
0.00296275
0.00292591
0.00288714
0.00283407
0.00275999
0.0026603
0.0025312
0.00236846
0.0021691
0.00193521
0.0016801
0.00142913
0.00121452
0.00106614
0.00100701
0.00107108
0.00129704
0.00148744
0.00122514
0.00101676
0.00102023
0.00111948
0.00107345
0.000540432
0.000120045
4.21475e-05
2.42575e-05
1.65658e-05
1.25129e-05
1.01014e-05
8.57456e-06
7.55382e-06
6.87768e-06
6.41922e-06
6.18834e-06
6.17184e-06
6.76077e-06
8.48621e-06
1.19738e-05
1.91345e-05
3.02229e-05
3.93701e-05
4.04975e-05
3.67839e-05
3.51891e-05
3.39426e-05
3.39465e-05
3.98633e-05
5.77612e-05
0.000126894
0.000308541
0.000196349
0.000174531
0.000229815
0.000492053
0.000439265
5.14741e-05
3.09498e-05
3.13039e-05
3.79032e-05
5.13959e-05
6.86546e-05
4.89314e-05
3.05584e-05
2.44813e-05
1.90419e-05
1.47085e-05
1.2938e-05
1.3694e-05
1.93249e-05
5.1031e-05
0.000208578
4.39353e-05
9.8911e-06
6.45862e-06
5.08122e-06
4.36566e-06
3.95054e-06
3.69767e-06
3.53832e-06
3.44045e-06
3.38832e-06
3.37723e-06
3.40243e-06
3.46457e-06
3.56276e-06
3.69936e-06
3.88163e-06
4.1179e-06
4.42149e-06
4.81203e-06
5.3193e-06
5.98998e-06
6.90052e-06
8.185e-06
1.01006e-05
1.31969e-05
1.89131e-05
3.20308e-05
7.53943e-05
0.000267943
0.000394562
5.80206e-05
3.05465e-05
2.15992e-05
1.73366e-05
1.49362e-05
1.34784e-05
1.25743e-05
1.20334e-05
1.17544e-05
1.16813e-05
1.17847e-05
1.2051e-05
1.24767e-05
1.30625e-05
1.3808e-05
1.47105e-05
1.57647e-05
1.69647e-05
1.83062e-05
1.97886e-05
2.14128e-05
2.31727e-05
2.50282e-05
2.68526e-05
2.83927e-05
2.93853e-05
2.98586e-05
3.03788e-05
3.20006e-05
3.6114e-05
4.42153e-05
5.62905e-05
6.64263e-05
6.55166e-05
5.62215e-05
4.6989e-05
4.0607e-05
3.65544e-05
3.39222e-05
3.20654e-05
3.06045e-05
2.93232e-05
2.80896e-05
2.68537e-05
2.56806e-05
2.46837e-05
2.38864e-05
2.31502e-05
2.21267e-05
2.06365e-05
1.86139e-05
1.65861e-05
1.42859e-05
1.12513e-05
8.48108e-06
6.42919e-06
5.25632e-06
5.62925e-06
7.33835e-06
7.91925e-06
9.31472e-06
3.29518e-05
0.000145678
1.29634e-05
8.92803e-06
7.7686e-06
7.297e-06
7.19102e-06
7.45387e-06
8.53818e-06
0.00261524
0.00535849
0.00428061
0.00398282
0.00377452
0.00344985
0.00317886
0.00300718
0.00290697
0.00284421
0.00279141
0.002729
0.00264529
0.00253365
0.00239038
0.00221326
0.00200348
0.00176973
0.00153094
0.00131252
0.00114177
0.00104418
0.00104762
0.00120281
0.00156657
0.00189139
0.00154688
0.00116608
0.00106174
0.00111783
0.00100588
0.000379251
8.68611e-05
4.47864e-05
3.11114e-05
2.31759e-05
1.80557e-05
1.45776e-05
1.2157e-05
1.04218e-05
9.18264e-06
8.26439e-06
7.63953e-06
7.22686e-06
7.29385e-06
8.28586e-06
1.0861e-05
1.70882e-05
2.92139e-05
4.42962e-05
5.2357e-05
5.23489e-05
5.21692e-05
5.15536e-05
5.22284e-05
6.14585e-05
8.8553e-05
0.000155091
0.000291421
0.000256139
0.000680954
0.000344062
0.00050942
0.000264203
4.68351e-05
3.34904e-05
3.53344e-05
4.17945e-05
5.29846e-05
6.54233e-05
4.83481e-05
3.3161e-05
2.71241e-05
2.21129e-05
1.84635e-05
1.7337e-05
2.11685e-05
3.88989e-05
0.000113831
0.000111367
1.38899e-05
7.23369e-06
5.65785e-06
4.92734e-06
4.54347e-06
4.33649e-06
4.23055e-06
4.18724e-06
4.1951e-06
4.24564e-06
4.33869e-06
4.47298e-06
4.65329e-06
4.88199e-06
5.16572e-06
5.51817e-06
5.95528e-06
6.50109e-06
7.19077e-06
8.07776e-06
9.24667e-06
1.08381e-05
1.31022e-05
1.65234e-05
2.21341e-05
3.2521e-05
5.51573e-05
0.000113302
0.000269116
0.000253826
5.5047e-05
3.32279e-05
2.44886e-05
1.99224e-05
1.72032e-05
1.54745e-05
1.43482e-05
1.36247e-05
1.31933e-05
1.29912e-05
1.29832e-05
1.31536e-05
1.34986e-05
1.4021e-05
1.47251e-05
1.56126e-05
1.66813e-05
1.79253e-05
1.93369e-05
2.09093e-05
2.26341e-05
2.44919e-05
2.64273e-05
2.83116e-05
2.99309e-05
3.11122e-05
3.19726e-05
3.31034e-05
3.55244e-05
4.0486e-05
4.8916e-05
5.94749e-05
6.58849e-05
6.24428e-05
5.35853e-05
4.56153e-05
4.00997e-05
3.64881e-05
3.40509e-05
3.22703e-05
3.0834e-05
2.95549e-05
2.83206e-05
2.71016e-05
2.59565e-05
2.49465e-05
2.40354e-05
2.30876e-05
2.19197e-05
2.05634e-05
1.8988e-05
1.74371e-05
1.55984e-05
1.30145e-05
1.04823e-05
8.39825e-06
6.71478e-06
6.55179e-06
7.7634e-06
9.09925e-06
1.43899e-05
7.44945e-05
3.63886e-05
9.77443e-06
8.41758e-06
8.05293e-06
8.07205e-06
8.41266e-06
9.24926e-06
1.06065e-05
0.0015647
0.00437682
0.0036131
0.00350252
0.00357903
0.00342225
0.00317012
0.00294785
0.00278268
0.00266772
0.00258289
0.0025042
0.00241203
0.00229488
0.00214857
0.00197468
0.00178005
0.00157793
0.00138714
0.00122921
0.00112694
0.0011071
0.00121272
0.00153279
0.00217239
0.00275489
0.00227498
0.00155487
0.00124116
0.00116478
0.000832223
0.000223401
6.9423e-05
4.94144e-05
4.13278e-05
3.50922e-05
2.96439e-05
2.49126e-05
2.0931e-05
1.76886e-05
1.51034e-05
1.30368e-05
1.13875e-05
1.00116e-05
8.93395e-06
8.66667e-06
9.84189e-06
1.41475e-05
2.48009e-05
4.45027e-05
6.59359e-05
7.88496e-05
8.53641e-05
8.86626e-05
9.06414e-05
9.97582e-05
0.00012795
0.000173712
0.000269859
0.000319069
0.00450255
0.00047968
0.000499121
0.000135298
4.83978e-05
3.88408e-05
4.0739e-05
4.54328e-05
5.28876e-05
6.01022e-05
4.78508e-05
3.73016e-05
3.13905e-05
2.73486e-05
2.54241e-05
2.76035e-05
4.10837e-05
8.93893e-05
0.000125592
2.15641e-05
7.78752e-06
6.11666e-06
5.55391e-06
5.37127e-06
5.36242e-06
5.4511e-06
5.5996e-06
5.79475e-06
6.04363e-06
6.34767e-06
6.71217e-06
7.14267e-06
7.65171e-06
8.24841e-06
8.95047e-06
9.7873e-06
1.07939e-05
1.20208e-05
1.35407e-05
1.54624e-05
1.79561e-05
2.12978e-05
2.59609e-05
3.28056e-05
4.34576e-05
6.1185e-05
9.22709e-05
0.000148049
0.000272165
0.000154834
5.75393e-05
3.98969e-05
3.07702e-05
2.53325e-05
2.18153e-05
1.94276e-05
1.77665e-05
1.66059e-05
1.58113e-05
1.53014e-05
1.50268e-05
1.49624e-05
1.51005e-05
1.54451e-05
1.60055e-05
1.67897e-05
1.77999e-05
1.90302e-05
2.04673e-05
2.2094e-05
2.38877e-05
2.58122e-05
2.78014e-05
2.97459e-05
3.15077e-05
3.30328e-05
3.45105e-05
3.64785e-05
3.97831e-05
4.52918e-05
5.30346e-05
6.05572e-05
6.27759e-05
5.79099e-05
5.04884e-05
4.42293e-05
3.97751e-05
3.66988e-05
3.45097e-05
3.28445e-05
3.14713e-05
3.02399e-05
2.9057e-05
2.79009e-05
2.68071e-05
2.5782e-05
2.47411e-05
2.35668e-05
2.22265e-05
2.09538e-05
1.98055e-05
1.88477e-05
1.77044e-05
1.59751e-05
1.41832e-05
1.24395e-05
9.85581e-06
8.44746e-06
9.03787e-06
1.16671e-05
2.69938e-05
8.57897e-05
1.38203e-05
9.12421e-06
9.23216e-06
9.63705e-06
1.03564e-05
1.15368e-05
1.35023e-05
1.52136e-05
0.000941321