/*--------------------------------*- C++ -*----------------------------------*\
| =========                 |                                                 |
| \\      /  F ield         | OpenFOAM: The Open Source CFD Toolbox           |
|  \\    /   O peration     | Version:  2112                                  |
|   \\  /    A nd           | Website:  www.openfoam.com                      |
|    \\/     M anipulation  |                                                 |
\*---------------------------------------------------------------------------*/
FoamFile
{
    version     2.0;
    format      ascii;
    arch        "LSB;label=32;scalar=64";
    class       volScalarField;
    location    "0.14";
    object      omega_0;
}
// * * * * * * * * * * * * * * * * * * * * * * * * * * * * * * * * * * * * * //

dimensions      [0 0 -1 0 0 0 0];

internalField   nonuniform List<scalar> 
12225
(
37527.3
40233
41980.6
42972.2
43468.4
43638.3
43609.8
43517.3
43338.5
43117.3
42903.4
42664.4
42467.3
42233.6
42074.4
41850.1
41737.8
41498.6
2589.99
6031.61
8562.97
10432.5
11778.2
12739.8
13398.1
13865.7
14198.7
14423.4
14589.7
14701.4
14776.4
14840.2
14876.4
14922.8
14925.1
15046.2
353.328
924.603
1440.1
1916.39
2328.47
2710.95
3023.72
3317.84
3546.79
3773.14
3938.14
4114.74
4231.2
4372.02
4453.35
4570.64
4615.67
4752.43
119.876
272.509
419.942
564.97
695.354
826.244
937.325
1052.37
1143.45
1243.78
1316.7
1404.36
1461.32
1538.49
1582.87
1649.42
1679.23
1758.56
66.3075
127.412
186.99
246.745
301.474
357.078
405.667
456.499
498.455
544.58
580.038
621.916
651.143
689.462
713.065
747.5
766.21
803.603
48.3259
78.7199
108.536
138.631
166.681
194.904
220.327
246.373
268.973
292.861
312.615
334.56
351.426
371.851
385.738
404.872
416.164
435.765
42.5771
57.9516
74.9459
92.1027
108.372
124.558
139.521
154.5
168.039
181.807
193.903
206.565
217.172
228.976
237.932
249.258
256.233
268.054
40.7425
48.2884
58.4251
68.8832
79.0252
89.0744
98.5591
107.91
116.606
125.218
133.1
141.016
148.065
155.404
161.532
168.537
173.466
180.776
40.0943
43.6692
49.6568
56.2032
62.7616
69.3019
75.5914
81.7556
87.5997
93.3089
98.6666
103.922
108.781
113.632
117.956
122.529
126.146
130.891
39.8298
41.4813
44.8376
48.9296
53.2136
57.564
61.8329
66.0293
70.0677
73.9973
77.7428
81.3796
84.8147
88.1706
91.2794
94.413
97.0976
100.318
39.709
40.4596
42.1983
44.6876
47.4503
50.3445
53.2564
56.1513
58.9784
61.7386
64.4003
66.9807
69.4493
71.8411
74.1043
76.3289
78.3329
80.5939
39.6565
40.0164
40.9229
42.4419
44.25
46.2208
48.2613
50.325
52.3716
54.3865
56.3492
58.2589
60.1018
61.8866
63.5945
65.2571
66.7976
68.4734
39.63
39.7905
40.2283
41.0866
42.2144
43.5097
44.9011
46.3435
47.8021
49.2573
50.692
52.0986
53.4679
54.799
56.0839
57.3315
58.5104
59.7615
39.616
39.6728
39.8525
40.2497
40.8653
41.6251
42.4851
43.4106
44.3739
45.3558
46.3412
47.3202
48.2847
49.2302
50.1518
51.0496
51.9118
52.8112
39.6078
39.6201
39.6764
39.8189
40.0931
40.4708
40.9316
41.4555
42.0244
42.6238
43.2417
43.8688
44.4981
45.1241
45.7424
46.3506
46.9439
47.5572
39.6043
39.5974
39.6065
39.6427
39.7276
39.8759
40.0768
40.3238
40.6092
40.925
41.264
41.6197
41.9869
42.3611
42.7385
43.1162
43.4918
43.8798
39.604
39.5884
39.5795
39.5821
39.5968
39.6328
39.698
39.7886
39.9037
40.041
40.1976
40.3707
40.5575
40.7551
40.9612
41.1736
41.3904
41.6165
39.604
39.5866
39.5722
39.5626
39.5617
39.5667
39.5815
39.6114
39.6565
39.716
39.7895
39.8761
39.9748
40.0842
40.2028
40.3294
40.4626
40.6028
39.6039
39.5872
39.5743
39.5706
39.5756
39.5917
39.6248
39.6762
39.7447
39.8295
39.9295
40.0431
40.1688
40.3048
40.4496
40.6015
40.759
40.918
39.6039
39.5966
39.6053
39.6393
39.7166
39.848
40.0242
40.2404
40.4905
40.7679
41.0668
41.3817
41.7082
42.0422
42.3805
42.7205
43.0599
43.389
39.6102
39.6339
39.7208
39.921
40.2583
40.6979
41.2182
41.7986
42.421
43.0708
43.7365
44.4089
45.0813
45.7484
46.4064
47.0521
47.6848
48.2843
39.6302
39.7855
40.1867
40.9424
41.9216
43.0515
44.2763
45.5533
46.8539
48.1564
49.4473
50.716
51.9566
53.1638
54.336
55.469
56.5703
57.5944
39.7085
40.3656
41.806
43.8386
46.1484
48.5899
51.0828
53.568
56.0185
58.4091
60.7333
62.9787
65.148
67.2324
69.2423
71.161
73.0303
74.7316
40.0218
42.3549
46.3991
51.006
55.829
60.6496
65.4066
70.0166
74.4897
78.7778
82.9139
86.858
90.6571
94.2621
97.7478
101.016
104.252
107.106
41.2491
48.5876
58.106
67.9266
77.7217
87.17
96.361
105.084
113.526
121.477
129.176
136.381
143.389
149.882
156.284
162.074
168.016
173.004
46.1928
66.6995
88.9412
110.644
131.822
151.748
171.13
189.092
206.653
222.708
238.563
252.829
267.153
279.743
292.762
303.739
315.742
325.08
65.9196
125.8
185.605
241.649
295.694
345.339
393.758
437.128
480.137
517.57
555.69
587.723
621.58
648.776
679.037
701.916
729.223
748.238
166.889
402.774
620.395
816.81
1000.89
1164.64
1319.76
1452.87
1581.84
1688.1
1795.45
1879.33
1969.36
2035.17
2111.56
2162.79
2228.45
2268.05
1158.1
2665.29
3852.24
4824.92
5631.56
6285.41
6819.45
7243.12
7589.6
7860.91
8087.72
8259.25
8414.34
8521.88
8632.19
8695.41
8781.02
8810.85
23121.7
24533.2
25613.8
26401.8
26955.7
27332.8
27578.9
27730.7
27813.6
27849.2
27844.3
27826.4
27789.3
27739.3
27682.5
27621.6
27558.7
27495.1
11471.2
2550.53
2568.26
2581.78
2592.78
2604.11
2622.48
2644.5
2670.96
2703.66
2736.95
2767.02
2792.99
2814.2
2829.6
2837.4
2838.43
2836.35
2832.35
2825.86
2814.89
2797.39
2770.65
2730.87
2673.48
2613.77
2605.67
2618.34
2633.9
2642.56
2658.02
2689.46
2716.55
2717.42
2706.62
2680.9
2661.32
2647.1
2667.85
2857.15
3142.05
3328.87
3473.39
3599.62
3706.84
3805.36
3893.58
3976.61
4054.54
4129.94
4199.71
4266.87
4330.75
4392.49
4452.35
4510.58
4567.66
4623.63
4678.91
4733.46
4787.59
4841.24
4894.64
4947.72
5000.62
5053.32
5105.86
5158.23
5210.45
5262.5
5314.38
5366.07
5417.56
5468.82
5519.83
5570.57
5621.02
5671.16
5720.97
5770.42
5819.5
5868.19
5916.46
5964.29
6011.67
6058.58
6105
6150.9
6196.28
6241.11
6285.37
6329.05
6372.12
6414.57
6456.38
6497.54
6538.04
6577.88
6617.07
6655.64
6693.67
6731.27
6768.65
6805.63
6842.13
6878.18
6913.79
6948.95
6983.69
7018
7051.91
7085.4
7118.49
7151.18
7183.47
7215.36
7246.86
7277.95
7308.64
7338.93
7368.8
7398.25
7427.27
7455.82
7483.9
7511.48
7538.53
7565.03
7590.94
7616.22
7640.76
7664.3
7686.41
7707.04
7726.53
7744.63
7761.33
7776.52
7790.11
7802.23
7811.83
7819.96
7825.84
7829.53
7830.9
7829.83
7826.07
7819.68
7810.8
7798.79
7783.84
7765.79
7744.6
7720.2
7692.49
7661.42
7626.93
7589
7547.64
7503.09
7459.41
7434.56
7445.27
7458.32
7469.63
7479.07
7486.06
7490.47
7491.96
7491.56
7487.88
7482.57
7472.79
7460.32
7444.49
7420.21
7400.75
7348.66
7311.79
7099.69
11480.3
2421.34
1482.71
1206.66
986.768
1054.28
1222.41
1244.33
1223.73
1173.22
1108.53
1046.84
989.641
941.92
903.127
876.695
860.537
870.702
913.255
1006.79
1149.65
1327.56
1528.06
1720.79
1871.79
1937.58
1905.51
1759.26
1373.53
871.833
778.522
810.861
872.413
889.316
918.553
1234.55
1889.2
2225.34
2337.7
2388.51
2409.26
2371.28
2296.17
2214.91
2130.46
2061.64
2000.76
1954.63
1916.44
1888.66
1866.99
1852.18
1842.28
1836.95
1834.39
1833.46
1835.24
1839.28
1844.34
1850.76
1857.88
1865.8
1874.17
1882.99
1892.06
1901.36
1910.79
1920.3
1929.85
1939.41
1948.96
1958.47
1967.94
1977.35
1986.71
1996
2005.24
2014.41
2023.52
2032.58
2041.58
2050.52
2059.4
2068.23
2077
2085.72
2094.38
2102.99
2111.55
2120.05
2128.51
2136.91
2145.28
2153.62
2161.93
2170.25
2178.59
2186.99
2195.52
2204.26
2213.36
2222.95
2233.71
2244.36
2254.89
2265.38
2275.75
2286.06
2296.26
2306.37
2316.39
2326.3
2336.1
2345.79
2355.37
2364.82
2374.14
2383.33
2392.37
2401.26
2409.99
2418.54
2426.91
2435.1
2443.08
2450.84
2458.38
2465.67
2472.68
2479.36
2485.62
2491.28
2496
2499.89
2503.45
2506.55
2509.17
2511.31
2512.94
2514.09
2514.66
2514.68
2514.21
2513.2
2511.64
2509.54
2506.77
2503.32
2499.29
2494.63
2489.34
2483.46
2476.98
2469.87
2462.13
2453.76
2444.78
2435.22
2425.15
2414.83
2405.48
2400.01
2398.2
2396.7
2394.88
2392.73
2390.2
2387.31
2384.04
2380.55
2376.73
2372.85
2368.68
2364.65
2360.71
2357.31
2353.73
2351.4
2356.78
2442.19
11470.7
3009.3
1430.09
1178.72
1316.42
1437.84
1383.1
1268.24
1127.69
992.705
880.033
788.531
711.407
650.274
604.466
573.597
553.302
548.741
554.242
572.104
611.277
680.88
785.51
923.675
1072.95
1209.33
1314.35
1324.46
1259.26
1085.53
938.973
929.173
1056.06
1191.32
1400.48
1589.82
1729.72
1756.06
1737.01
1693.55
1631.18
1541.23
1457.88
1387.74
1331.91
1290.18
1257.62
1234.4
1216.95
1205
1196.69
1191.85
1189.45
1188.55
1188.51
1190.28
1192.94
1196.36
1200.3
1204.73
1209.46
1214.48
1219.68
1225.03
1230.47
1235.99
1241.56
1247.15
1252.75
1258.36
1263.95
1269.55
1275.12
1280.69
1286.24
1291.78
1297.3
1302.81
1308.31
1313.8
1319.28
1324.75
1330.21
1335.65
1341.09
1346.52
1351.94
1357.35
1362.76
1368.16
1373.57
1378.97
1384.38
1389.81
1395.26
1400.74
1406.27
1411.87
1417.55
1423.35
1429.29
1435.38
1441.55
1447.65
1453.71
1459.72
1465.68
1471.59
1477.43
1483.21
1488.92
1494.56
1500.12
1505.6
1510.99
1516.28
1521.47
1526.55
1531.52
1536.36
1541.08
1545.66
1550.09
1554.36
1558.47
1562.41
1566.17
1569.73
1573.07
1576.17
1578.99
1581.5
1583.67
1585.56
1587.24
1588.66
1589.84
1590.75
1591.41
1591.81
1591.96
1591.87
1591.46
1590.83
1589.93
1588.74
1587.26
1585.51
1583.5
1581.2
1578.63
1575.78
1572.64
1569.2
1565.48
1561.47
1557.18
1552.63
1547.85
1542.98
1538.43
1534.82
1531.84
1528.81
1525.56
1522.06
1518.31
1514.32
1510.08
1505.67
1501.04
1496.37
1491.49
1486.89
1482.14
1478.28
1474.26
1473.36
1477.04
1515.33
11466.3
2413.2
1629.25
1893.31
1832.69
1646.79
1387.91
1126.4
901.421
736.599
620.294
536.892
482.365
447.346
424.62
410.654
403.186
403.823
408.362
419.301
439.871
473.351
524.743
603.847
708.028
823.439
937.801
1025.39
1065.72
1056.68
1043.37
1173.93
1330.13
1386.99
1407.04
1445.43
1409.54
1369.32
1331.28
1266.21
1199.86
1132.72
1082.73
1042.58
1012.66
990.543
974.245
962.841
954.896
949.804
947.088
945.94
945.69
946.503
948.242
950.667
953.568
956.849
960.42
964.221
968.189
972.289
976.484
980.75
985.066
989.418
993.794
998.188
1002.59
1007.01
1011.43
1015.85
1020.28
1024.71
1029.16
1033.6
1038.06
1042.51
1046.98
1051.45
1055.93
1060.41
1064.9
1069.4
1073.9
1078.4
1082.91
1087.42
1091.94
1096.47
1101.01
1105.55
1110.11
1114.69
1119.28
1123.9
1128.55
1133.23
1137.96
1142.72
1147.52
1152.33
1157.14
1161.91
1166.65
1171.35
1176.01
1180.62
1185.19
1189.71
1194.18
1198.59
1202.93
1207.21
1211.42
1215.56
1219.62
1223.59
1227.47
1231.25
1234.94
1238.52
1241.99
1245.34
1248.57
1251.67
1254.63
1257.46
1260.12
1262.63
1264.96
1267.11
1269.08
1270.9
1272.57
1274.09
1275.45
1276.65
1277.69
1278.58
1279.32
1279.91
1280.33
1280.59
1280.67
1280.58
1280.32
1279.88
1279.27
1278.46
1277.46
1276.26
1274.85
1273.21
1271.35
1269.26
1266.95
1264.41
1261.65
1258.73
1255.8
1253.02
1250.25
1247.28
1244.05
1240.53
1236.72
1232.61
1228.21
1223.57
1218.64
1213.56
1208.23
1202.98
1197.5
1192.55
1187.6
1184.16
1184.85
1201.24
11467.9
2696.2
2707.8
2389.62
1885.4
1403.49
1000.45
735.606
583.628
493.769
437.346
400.306
375.21
357.991
346.377
339.146
336.15
337.126
340.994
349.512
363.944
385.943
418.601
468.531
541.791
633.877
737.166
842.741
936.399
1012.27
1129.5
1279.23
1328.74
1326.12
1267.16
1194.45
1160.22
1113.11
1067.61
1010.07
961.142
920.106
889.925
866.536
849.44
837.087
828.422
822.686
819.291
817.721
817.261
817.655
819.023
821.042
823.58
826.502
829.713
833.143
836.741
840.465
844.282
848.17
852.11
856.087
860.094
864.123
868.171
872.235
876.314
880.408
884.518
888.643
892.784
896.942
901.117
905.309
909.518
913.743
917.984
922.24
926.509
930.79
935.082
939.385
943.696
948.016
952.343
956.678
961.02
965.368
969.724
974.087
978.459
982.84
987.23
991.632
996.044
1000.47
1004.9
1009.33
1013.77
1018.19
1022.6
1026.97
1031.31
1035.62
1039.9
1044.13
1048.33
1052.48
1056.58
1060.64
1064.65
1068.6
1072.5
1076.34
1080.11
1083.83
1087.48
1091.05
1094.56
1097.98
1101.32
1104.58
1107.74
1110.82
1113.8
1116.69
1119.47
1122.14
1124.71
1127.17
1129.52
1131.77
1133.93
1135.99
1137.95
1139.8
1141.56
1143.22
1144.77
1146.23
1147.58
1148.82
1149.92
1150.89
1151.73
1152.43
1152.98
1153.37
1153.59
1153.61
1153.43
1153.04
1152.42
1151.57
1150.48
1149.14
1147.54
1145.69
1143.63
1141.42
1138.98
1136.26
1133.19
1129.77
1125.98
1121.82
1117.3
1112.43
1107.21
1101.72
1095.9
1089.99
1083.77
1077.82
1071.75
1066.74
1063.45
1069.5
11470
4810.61
3247.03
2171.99
1371.48
889.905
648.903
518.817
443.352
396.469
365.587
344.297
329.18
318.369
310.856
306.169
304.425
305.267
308.454
315.401
326.973
344.372
369.975
408.491
466.182
543.43
637.816
748.239
868.103
1011.39
1165.19
1252.76
1259.97
1164.09
1068.87
1021.93
983.724
940.24
897.182
854.549
821.191
795.039
775.628
761.112
750.737
743.59
738.984
736.635
735.764
735.73
736.774
738.582
740.999
743.859
747.055
750.499
754.126
757.887
761.747
765.677
769.658
773.676
777.722
781.789
785.874
789.976
794.096
798.235
802.394
806.574
810.777
815.005
819.257
823.535
827.837
832.163
836.514
840.886
845.278
849.689
854.117
858.558
863.011
867.474
871.945
876.423
880.906
885.393
889.884
894.376
898.869
903.363
907.857
912.35
916.842
921.332
925.818
930.296
934.764
939.219
943.658
948.075
952.465
956.826
961.155
965.452
969.716
973.945
978.137
982.291
986.404
990.477
994.507
998.493
1002.43
1006.33
1010.18
1013.98
1017.73
1021.43
1025.07
1028.66
1032.2
1035.67
1039.09
1042.44
1045.74
1048.97
1052.13
1055.24
1058.28
1061.25
1064.17
1067.03
1069.83
1072.57
1075.24
1077.85
1080.39
1082.87
1085.27
1087.6
1089.86
1092.02
1094.07
1096
1097.82
1099.5
1101.03
1102.41
1103.6
1104.59
1105.36
1105.9
1106.19
1106.21
1105.98
1105.44
1104.6
1103.41
1101.89
1100.05
1097.87
1095.31
1092.34
1088.95
1085.11
1080.84
1076.11
1070.97
1065.38
1059.44
1053.08
1046.51
1039.54
1032.66
1025.51
1019.3
1012.78
1013.09
11488.8
5616.57
2978.08
1541.65
904.347
631.377
499.58
427.112
382.901
353.736
333.369
318.575
307.611
299.515
293.78
290.214
288.913
289.675
292.581
298.842
309.156
324.646
347.527
381.933
432.778
501.535
588.687
700.516
851.811
1022.26
1143.47
1174.94
1109.97
998.123
932.677
894.921
858.073
820.476
785.02
754.407
730.974
713.143
699.996
690.518
684.046
680.057
678.159
677.601
678.029
679.478
681.707
684.524
687.787
691.381
695.216
699.226
703.359
707.578
711.855
716.172
720.514
724.874
729.249
733.636
738.037
742.454
746.891
751.352
755.838
760.353
764.899
769.476
774.085
778.726
783.397
788.097
792.824
797.577
802.351
807.144
811.952
816.773
821.602
826.438
831.277
836.117
840.956
845.793
850.625
855.451
860.268
865.076
869.873
874.659
879.431
884.188
888.928
893.647
898.343
903.016
907.663
912.279
916.864
921.414
925.93
930.41
934.855
939.263
943.634
947.968
952.264
956.522
960.742
964.924
969.068
973.175
977.246
981.28
985.278
989.241
993.165
997.053
1000.9
1004.72
1008.5
1012.24
1015.95
1019.63
1023.27
1026.87
1030.45
1034
1037.51
1041
1044.45
1047.87
1051.25
1054.58
1057.87
1061.11
1064.29
1067.37
1070.36
1073.25
1076.04
1078.71
1081.25
1083.65
1085.9
1087.96
1089.82
1091.46
1092.85
1093.98
1094.83
1095.39
1095.63
1095.54
1095.13
1094.3
1093.03
1091.36
1089.28
1086.76
1083.77
1080.31
1076.35
1071.89
1066.93
1061.5
1055.56
1049.21
1042.37
1035.25
1027.66
1020.05
1012.06
1004.78
996.964
992.448
11624
5110.91
2014.94
1018.53
665.709
512.43
433.129
386.236
355.62
334.171
318.411
306.496
297.404
290.567
285.692
282.688
281.675
282.543
285.614
291.919
302.259
318.021
341.392
375.34
422.967
487.946
577.392
702.235
862.934
1017.95
1078.53
1053.78
962.164
877.44
832.062
799.002
766.591
735.4
707.592
684.987
667.818
655.017
645.786
639.44
635.566
633.774
633.318
633.962
635.657
638.183
641.35
645.007
649.032
653.327
657.818
662.446
667.167
671.949
676.77
681.613
686.47
691.337
696.213
701.1
706
710.92
715.863
720.836
725.842
730.884
735.964
741.082
746.237
751.428
756.652
761.908
767.191
772.498
777.825
783.168
788.523
793.884
799.247
804.608
809.964
815.311
820.649
825.972
831.281
836.57
841.839
847.085
852.307
857.503
862.672
867.812
872.923
878.006
883.059
888.076
893.051
897.983
902.87
907.713
912.512
917.267
921.978
926.647
931.273
935.858
940.403
944.908
949.375
953.805
958.199
962.559
966.887
971.185
975.455
979.698
983.914
988.104
992.27
996.414
1000.54
1004.65
1008.74
1012.81
1016.87
1020.91
1024.94
1028.95
1032.95
1036.94
1040.91
1044.85
1048.76
1052.64
1056.49
1060.28
1064.02
1067.69
1071.3
1074.81
1078.2
1081.47
1084.6
1087.57
1090.37
1092.97
1095.34
1097.46
1099.3
1100.84
1102.08
1102.97
1103.52
1103.67
1103.48
1102.82
1101.61
1099.95
1097.8
1095.15
1091.97
1088.26
1084
1079.19
1073.81
1067.92
1061.45
1054.55
1047.08
1039.31
1030.97
1022.59
1013.76
1005.36
996.776
989.383
11756.7
3895.48
1424.69
788.073
563.708
460.884
404.215
368.562
343.952
325.877
312.086
301.4
293.134
286.889
282.491
279.924
279.353
280.851
284.933
292.154
303.224
319.749
343.824
378.026
425.567
491.453
584.973
719.091
893.572
981.57
986.107
928.965
846.641
788.756
754.213
725.579
698.22
672.885
651.113
633.831
620.804
611.293
604.673
600.5
598.508
597.966
598.581
600.331
603.001
606.403
610.38
614.801
619.558
624.565
629.751
635.064
640.462
645.916
651.404
656.913
662.434
667.966
673.509
679.066
684.641
690.24
695.869
701.533
707.237
712.985
718.777
724.611
730.485
736.395
742.338
748.309
754.304
760.317
766.344
772.38
778.42
784.455
790.48
796.49
802.481
808.451
814.396
820.312
826.198
832.049
837.863
843.636
849.368
855.055
860.697
866.293
871.843
877.347
882.799
888.197
893.537
898.819
904.044
909.21
914.32
919.375
924.375
929.324
934.222
939.072
943.876
948.636
953.355
958.034
962.676
967.284
971.861
976.411
980.937
985.443
989.928
994.395
998.848
1003.29
1007.72
1012.15
1016.58
1021.01
1025.43
1029.85
1034.27
1038.69
1043.11
1047.53
1051.93
1056.32
1060.7
1065.04
1069.35
1073.62
1077.83
1081.98
1086.04
1090
1093.83
1097.51
1101.04
1104.39
1107.54
1110.47
1113.13
1115.51
1117.58
1119.3
1120.67
1121.66
1122.25
1122.4
1122.17
1121.41
1120.06
1118.19
1115.77
1112.79
1109.22
1105.07
1100.31
1094.97
1089
1082.49
1075.34
1067.76
1059.53
1051.03
1041.88
1032.73
1023.03
1013.68
1004.3
995.015
11832.5
3074.45
1139.09
684.724
519.071
439.238
392.796
362.059
339.972
323.219
310.114
299.874
291.948
286.002
281.997
280.053
279.992
282.13
286.925
295.029
307.36
325.285
350.593
385.537
434.243
504.337
607.712
757.741
877.87
909.511
885.898
822.078
760.956
720.745
692.86
668.527
645.819
625.325
608.044
594.45
584.296
577.066
572.287
569.785
568.956
569.317
570.916
573.55
577.035
581.212
585.944
591.114
596.621
602.386
608.341
614.434
620.626
626.886
633.191
639.527
645.884
652.261
658.657
665.076
671.521
677.996
684.505
691.055
697.648
704.286
710.978
717.71
724.477
731.275
738.098
744.94
751.795
758.656
765.516
772.364
779.181
785.976
792.749
799.494
806.206
812.882
819.517
826.108
832.651
839.142
845.576
851.952
858.265
864.513
870.694
876.805
882.84
888.799
894.682
900.489
906.219
911.87
917.444
922.943
928.37
933.725
939.013
944.234
949.393
954.492
959.536
964.527
969.469
974.365
979.22
984.036
988.818
993.571
998.3
1003.01
1007.7
1012.38
1017.05
1021.71
1026.38
1031.04
1035.72
1040.4
1045.08
1049.78
1054.48
1059.19
1063.9
1068.61
1073.31
1078.01
1082.68
1087.33
1091.94
1096.5
1101
1105.42
1109.75
1113.95
1118
1121.88
1125.58
1129.07
1132.33
1135.33
1138.04
1140.43
1142.48
1144.11
1145.34
1146.14
1146.5
1146.38
1145.79
1144.61
1142.89
1140.56
1137.61
1134.03
1129.82
1124.97
1119.47
1113.37
1106.58
1099.27
1091.24
1082.84
1073.7
1064.43
1054.36
1044.52
1033.91
1023.91
1013.64
1003.51
11869.4
2488.16
998.279
638.537
500.781
431.877
389.704
360.711
339.448
323.073
310.083
299.883
292.141
286.598
283.273
282.019
282.704
285.952
292.215
302.074
316.197
335.784
362.619
399.654
452.969
533.63
653.17
781.227
833.72
833.344
792.576
739.411
696.754
667.13
644.111
623.636
604.859
588.187
574.244
563.308
555.22
549.626
546.303
544.94
544.869
546.11
548.518
551.917
556.151
561.08
566.582
572.547
578.883
585.509
592.36
599.382
606.535
613.787
621.111
628.486
635.901
643.349
650.827
658.351
665.906
673.493
681.116
688.779
696.48
704.206
711.924
719.663
727.434
735.23
743.045
750.867
758.689
766.505
774.308
782.093
789.858
797.584
805.264
812.885
820.442
827.931
835.35
842.695
849.96
857.143
864.238
871.241
878.151
884.966
891.683
898.3
904.813
911.223
917.53
923.733
929.832
935.829
941.726
947.527
953.234
958.851
964.382
969.829
975.196
980.488
985.71
990.867
995.964
1001.01
1006
1010.94
1015.84
1020.71
1025.55
1030.37
1035.16
1039.94
1044.72
1049.49
1054.26
1059.04
1063.83
1068.62
1073.43
1078.25
1083.07
1087.91
1092.75
1097.58
1102.4
1107.21
1111.99
1116.74
1121.44
1126.08
1130.64
1135.11
1139.46
1143.67
1147.7
1151.53
1155.12
1158.47
1161.55
1164.33
1166.8
1168.94
1170.69
1171.92
1172.71
1173
1172.79
1172.03
1170.63
1168.65
1166.14
1162.93
1159.02
1154.47
1149.24
1143.36
1136.74
1129.42
1121.39
1112.92
1103.67
1094.23
1083.93
1073.8
1062.59
1052.13
1040.64
1030.42
1019.21
1009.15
11884.1
2209.84
937.966
620.67
495.449
431.089
392.032
364.235
342.43
325.091
311.67
301.582
294.267
289.459
287.193
286.772
288.82
293.737
301.71
313.098
328.656
349.936
379.619
422.881
487.994
582.826
701.059
762.909
774.804
756.307
716.681
677.74
647.508
624.523
605.339
588.133
572.542
558.835
547.403
538.446
531.898
527.543
525.311
524.694
525.41
527.428
530.59
534.748
539.766
545.52
551.898
558.801
566.135
573.818
581.78
589.966
598.331
606.853
615.489
624.205
632.982
641.803
650.643
659.443
668.255
677.105
686
694.941
703.929
712.96
722.041
731.142
740.246
749.347
758.431
767.479
776.484
785.442
794.347
803.193
811.97
820.663
829.256
837.749
846.139
854.426
862.608
870.683
878.644
886.487
894.208
901.802
909.269
916.607
923.815
930.891
937.832
944.637
951.305
957.837
964.236
970.504
976.645
982.666
988.57
994.361
1000.04
1005.62
1011.1
1016.48
1021.78
1026.99
1032.13
1037.19
1042.2
1047.15
1052.04
1056.89
1061.71
1066.49
1071.25
1075.99
1080.72
1085.44
1090.16
1094.89
1099.62
1104.35
1109.1
1113.84
1118.6
1123.35
1128.11
1132.86
1137.58
1142.29
1146.95
1151.56
1156.1
1160.55
1164.9
1169.13
1173.23
1177.2
1180.95
1184.45
1187.64
1190.52
1193.09
1195.27
1197.05
1198.44
1199.37
1199.66
1199.43
1198.64
1197.25
1195.18
1192.47
1189.09
1184.9
1179.97
1174.34
1168.09
1161.17
1153.65
1145.42
1136.95
1127.87
1118.46
1108.2
1097.93
1086.67
1075.9
1063.71
1052.83
1040.05
1029.72
1016.81
1007.27
11887.9
2114.38
914.593
615.868
497.725
438.79
399.465
368.91
345.405
327.906
315.033
305.662
299.136
295.586
294.334
295.011
298.652
305.127
314.578
327.512
345.226
370.147
406.563
460.43
536.211
629.556
696.627
720.321
715.472
690.409
659.513
631.839
609.42
590.929
574.804
560.273
547.21
535.803
526.308
518.889
513.552
510.263
508.903
508.998
510.543
513.395
517.418
522.485
528.473
535.271
542.775
550.913
559.572
568.656
578.094
587.818
597.753
607.785
617.904
628.139
638.484
648.922
659.44
670.055
680.731
691.444
702.177
712.924
723.692
734.455
745.194
755.885
766.501
777.016
787.417
797.707
807.89
817.968
827.942
837.806
847.55
857.161
866.628
875.946
885.116
894.136
903.01
911.733
920.302
928.711
936.955
945.032
952.94
960.682
968.257
975.665
982.903
989.969
996.862
1003.58
1010.13
1016.53
1022.77
1028.86
1034.81
1040.62
1046.3
1051.86
1057.29
1062.6
1067.8
1072.9
1077.91
1082.83
1087.68
1092.45
1097.16
1101.82
1106.43
1111
1115.53
1120.04
1124.53
1129.01
1133.48
1137.94
1142.4
1146.85
1151.3
1155.74
1160.17
1164.6
1169.01
1173.44
1177.84
1182.2
1186.5
1190.71
1194.81
1198.78
1202.59
1206.24
1209.71
1212.98
1215.96
1218.6
1220.83
1222.65
1224.09
1225
1225.33
1225.18
1224.57
1223.16
1221.12
1218.34
1214.78
1210.49
1205.59
1200.05
1193.82
1187.2
1180.15
1172.52
1164.24
1155.43
1145.92
1135.87
1125.08
1114.06
1102.06
1090.31
1077.36
1065.37
1051.39
1039.62
1024.95
1014.43
999.249
990.549
11883
2069.05
905.459
620.146
508.782
448.506
405.962
374.313
351.084
334.015
321.451
312.516
307.053
304.616
304.118
306.391
311.604
319.664
331.047
347.028
369.844
402.892
449.882
512.681
587.005
647.849
673.765
675.008
662.19
640.624
618.138
597.907
580.437
565.152
551.474
539.143
528.161
518.673
510.861
504.865
500.74
498.559
498.105
499.275
501.938
505.953
511.204
517.579
524.967
533.252
542.303
551.924
562.079
572.76
583.918
595.489
607.413
619.663
632.17
644.868
657.717
670.682
683.728
696.83
709.97
723.093
736.142
749.079
761.859
774.482
786.943
799.23
811.325
823.205
834.863
846.305
857.549
868.615
879.508
890.224
900.758
911.102
921.246
931.187
940.924
950.461
959.801
968.943
977.884
986.617
995.14
1003.45
1011.55
1019.44
1027.13
1034.61
1041.89
1048.97
1055.84
1062.49
1068.94
1075.21
1081.31
1087.23
1092.99
1098.59
1104.04
1109.33
1114.47
1119.48
1124.35
1129.11
1133.75
1138.28
1142.73
1147.08
1151.36
1155.57
1159.73
1163.86
1167.96
1172.03
1176.07
1180.08
1184.07
1188.03
1191.97
1195.88
1199.77
1203.63
1207.46
1211.24
1215
1218.73
1222.41
1226.01
1229.48
1232.81
1235.97
1238.92
1241.63
1244.09
1246.23
1248.05
1249.49
1250.46
1250.91
1250.83
1250.37
1249.23
1247.41
1244.94
1241.76
1237.83
1233.3
1228.11
1222.29
1216.24
1209.67
1202.53
1194.8
1186.41
1177.34
1167.64
1157.26
1146.38
1134.75
1122.66
1109.8
1096.83
1082.7
1069.01
1053.91
1040.18
1023.87
1010.67
993.573
982.343
964.456
956.124
11870.5
2028.76
903.739
631.54
521.371
459.83
416.487
384.82
361.33
343.908
331.362
322.935
318.715
317.212
317.759
322.07
329.441
340.528
356.585
379.427
411.131
453.246
505.45
562.838
611.722
635.136
639.544
634.725
621.575
605.209
588.73
573.38
559.459
546.892
535.595
525.623
517.013
509.777
504.041
499.926
497.536
496.856
497.805
500.185
504.024
509.311
515.971
523.913
533.037
543.238
554.419
566.526
579.452
593.106
607.425
622.3
637.646
653.381
669.402
685.612
701.963
718.39
734.784
751.062
767.135
782.948
798.465
813.641
828.434
842.826
856.812
870.423
883.674
896.535
909.004
921.117
932.933
944.508
955.839
966.914
977.751
988.346
998.69
1008.78
1018.61
1028.19
1037.53
1046.62
1055.47
1064.06
1072.4
1080.48
1088.32
1095.91
1103.26
1110.39
1117.28
1123.95
1130.39
1136.62
1142.64
1148.46
1154.09
1159.53
1164.78
1169.85
1174.75
1179.47
1184.02
1188.42
1192.66
1196.76
1200.73
1204.58
1208.31
1211.95
1215.49
1218.94
1222.33
1225.68
1228.99
1232.25
1235.46
1238.61
1241.7
1244.75
1247.73
1250.66
1253.53
1256.32
1259.03
1261.65
1264.17
1266.58
1268.85
1270.97
1272.89
1274.58
1276.01
1277.15
1277.95
1278.42
1278.44
1278.11
1277.3
1275.98
1274.06
1271.54
1268.29
1264.37
1259.86
1254.77
1249.09
1243.21
1236.88
1229.98
1222.51
1214.34
1205.56
1196.19
1186.22
1175.63
1164.37
1152.5
1139.9
1126.79
1112.9
1098.53
1083.33
1068.08
1051.44
1035.39
1017.75
1001.78
982.666
967.428
947.698
934.949
914.493
905.656
11855.1
2005.3
914.497
646.553
538.201
477.114
433.275
401.18
377.408
360.192
348.375
341.855
339.141
338.752
342.649
350.377
362.202
379.053
401.855
431.264
467.223
508.004
549.291
584.282
602.461
607.996
608.435
603.414
594.697
584.24
573.279
562.492
552.262
542.789
534.166
526.354
519.48
513.98
510.051
507.823
507.406
508.774
511.977
517.019
523.798
532.241
542.272
553.797
566.717
580.922
596.307
612.79
630.273
648.722
668.104
688.057
708.485
729.205
750.019
770.761
791.276
811.456
831.248
850.579
869.377
887.575
905.117
921.938
937.978
953.22
967.645
981.448
994.81
1007.58
1019.75
1031.41
1042.72
1053.84
1064.77
1075.49
1085.97
1096.16
1106.05
1115.63
1124.91
1133.88
1142.57
1150.97
1159.08
1166.91
1174.44
1181.68
1188.63
1195.32
1201.75
1207.93
1213.86
1219.54
1224.98
1230.23
1235.25
1240.06
1244.66
1249.06
1253.25
1257.25
1261.05
1264.66
1268.08
1271.32
1274.39
1277.3
1280.06
1282.69
1285.19
1287.57
1289.83
1291.97
1294.01
1295.96
1297.84
1299.62
1301.31
1302.9
1304.4
1305.8
1307.11
1308.31
1309.4
1310.37
1311.2
1311.86
1312.36
1312.68
1312.79
1312.7
1312.37
1311.71
1310.76
1309.46
1307.75
1305.71
1303.2
1300.22
1296.61
1292.4
1287.61
1282.29
1276.41
1270.25
1263.79
1256.87
1249.46
1241.44
1232.85
1223.7
1213.97
1203.65
1192.71
1181.18
1169.04
1156.26
1142.8
1128.71
1113.82
1098.39
1082.12
1065.26
1047.5
1029.71
1010.2
991.449
970.975
952.588
931.726
915.305
894.486
880.843
859.391
850.02
11833.8
1991.84
930.295
671.063
564.635
501.75
456.625
423.901
400.326
383.973
374.223
369.752
368.524
371.388
379.138
390.903
407.263
428.427
454.066
483.481
514.933
545.656
572.629
593.155
603
606.308
606.574
603.093
596.49
588.427
579.954
571.679
563.99
557.156
551.391
546.94
544.013
542.73
543.246
545.633
550.094
556.568
565.081
575.627
588.112
602.433
618.481
636.129
655.253
675.71
697.334
720.046
743.738
768.229
793.238
818.279
843.109
867.618
891.728
915.323
938.296
960.558
982.044
1002.7
1022.49
1041.38
1059.34
1076.33
1092.23
1107.02
1120.92
1134.02
1146.21
1157.46
1167.87
1177.6
1186.99
1196.53
1206.03
1215.36
1224.41
1233.14
1241.5
1249.52
1257.19
1264.53
1271.57
1278.3
1284.73
1290.85
1296.66
1302.17
1307.38
1312.33
1317.02
1321.46
1325.65
1329.59
1333.28
1336.73
1339.95
1342.95
1345.74
1348.32
1350.69
1352.86
1354.85
1356.63
1358.21
1359.61
1360.84
1361.9
1362.8
1363.57
1364.19
1364.67
1365.02
1365.23
1365.3
1365.25
1365.11
1364.82
1364.41
1363.88
1363.22
1362.44
1361.52
1360.45
1359.25
1357.87
1356.32
1354.58
1352.62
1350.45
1348.06
1345.44
1342.57
1339.37
1335.89
1332.06
1327.78
1322.94
1317.63
1311.86
1305.62
1298.94
1292.13
1284.94
1277.31
1269.19
1260.57
1251.48
1241.9
1231.8
1221.16
1209.98
1198.24
1185.9
1172.97
1159.39
1145.18
1130.27
1114.62
1098.31
1081.05
1063.16
1044.35
1024.68
1004.06
983.374
961.753
941.365
919.352
899.603
877.575
860.054
837.74
823.079
799.774
789.625
11807.8
1989.19
947.852
700.69
598.87
534.43
487.65
453.962
430.259
414.901
407.329
404.565
404.769
411.62
422.054
437.185
456.892
480.531
506.847
534.729
561.928
586.178
605.527
618.254
625.145
629.565
631.376
631.14
629.073
626.172
623.111
620.415
618.49
617.653
618.166
620.309
624.335
630.335
638.399
648.581
660.963
675.502
692.123
710.724
731.176
753.362
777.137
802.272
828.658
856.107
884.184
912.484
940.685
968.499
995.541
1021.95
1047.64
1072.48
1096.37
1119.24
1141.04
1161.72
1181.28
1199.73
1217.08
1233.36
1248.6
1262.84
1276.18
1288.72
1300.6
1311.63
1321.35
1330.01
1337.88
1345.14
1352.02
1358.99
1365.74
1372.11
1378.1
1383.74
1389.04
1394.02
1398.69
1403.08
1407.18
1411.01
1414.56
1417.83
1420.84
1423.6
1426.12
1428.42