/*--------------------------------*- C++ -*----------------------------------*\
| =========                 |                                                 |
| \\      /  F ield         | OpenFOAM: The Open Source CFD Toolbox           |
|  \\    /   O peration     | Version:  2112                                  |
|   \\  /    A nd           | Website:  www.openfoam.com                      |
|    \\/     M anipulation  |                                                 |
\*---------------------------------------------------------------------------*/
FoamFile
{
    version     2.0;
    format      ascii;
    arch        "LSB;label=32;scalar=64";
    class       volScalarField;
    location    "0.14";
    object      omega_0;
}
// * * * * * * * * * * * * * * * * * * * * * * * * * * * * * * * * * * * * * //

dimensions      [0 0 -1 0 0 0 0];

internalField   nonuniform List<scalar> 
12885
(
32298.9
68034.4
81907.8
86458
87462.4
87322.3
86888.9
86030
84768.3
83462.5
82295.3
81330
80557.7
79809.2
78800.8
77485.1
76112.5
74862
73782.2
72893.7
72221
71676.9
71057.4
70318.4
69511.6
68693
67916.9
67187.1
66498.3
65871.1
65311.6
64814.6
64348.9
63915.6
63446.6
63042.1
62485.2
62162.4
61758.3
60573
1590
6324.17
12068.5
16446.1
19143
20466.2
21527.7
23500.7
26325.3
28621.6
29965.4
30594.5
30982.6
31415.1
32141.9
33734.9
35256.9
36310.7
36872.2
37019.6
36997.6
36981.2
37028.4
37251.9
37569.6
37564.4
37387.4
36904.6
36085.9
35149.3
34272.9
33481.5
32840.5
32277.8
31824.4
31373.3
31050.9
30647.3
30694.3
30951.9
234.233
738.002
1403.55
2055.13
2640.66
3077.68
3350
3815.94
4827.82
6160.19
7162.93
7821.19
8343.39
8783.52
9192.91
9948.21
11213.2
12480.8
13574
14411.3
15036.6
15475.6
15839.6
16299.3
16919.4
17632.6
18414.7
19149.6
19787.6
20255.9
20601.1
20807.5
20954.1
21030.6
21108
21156.2
21231.1
21301.5
21381.8
21572.6
78.3786
203.11
351.768
501.614
652.792
784.679
865.783
958.954
1156.46
1414.46
1646.35
1835.58
2012.32
2132.94
2256.33
2379.74
2515.07
2883.23
3290.89
3681.68
3976.51
4248.3
4442.99
4679.72
4896
5220.54
5555.2
6005.51
6467.34
7002.45
7436.1
7935.78
8306.39
8740.5
9035.77
9418.79
9667.96
10040.3
10277
10672.8
49.0329
96.927
150.062
204.163
260.204
311.774
346.698
380.562
437.748
507.371
576.686
640.855
701.203
748.536
791.455
828.953
861.174
939.438
1025.51
1118.71
1194.3
1273.14
1332.24
1402.27
1457.77
1534.76
1589.29
1689.26
1753.22
1878.78
2004.29
2186.42
2329.01
2512.9
2642.02
2817.5
2930.13
3105.49
3207.79
3392.96
42.3655
62.129
88.1363
113.633
139.985
164.602
183.425
201.555
225.385
252.712
280.881
308.461
334.463
357.064
376.547
393.898
409.628
431.913
456.696
484.511
510.114
536.652
559.881
584.653
606.974
631.793
651.842
679.878
698.472
728.784
760.102
800.777
836.964
880.446
915.658
959.554
990.986
1036.19
1061.87
1111.21
40.5648
48.3119
63.1623
76.9884
91.2962
104.812
116.186
127.185
139.721
153.387
167.521
181.605
195.032
207.263
218.032
227.788
236.97
247.18
258.113
269.855
281.43
293.185
304.439
315.827
326.794
337.818
347.992
358.794
368.398
378.536
388.779
400.239
411.703
424.178
436.06
448.95
460.418
473.693
483.712
498.508
39.9936
43.157
50.9797
59.3959
67.8704
76.0001
83.3138
90.4303
97.9764
105.909
114.046
122.171
130.001
137.311
143.955
150.08
155.906
161.839
167.939
174.235
180.551
186.9
193.169
199.413
205.536
211.538
217.29
222.925
228.279
233.502
238.628
243.822
249.033
254.352
259.657
265.071
270.362
275.854
280.801
287.011
39.7816
41.1331
44.8594
50.1603
55.3916
60.5397
65.4081
70.1954
75.0991
80.1324
85.2488
90.3521
95.3128
100.024
104.42
108.538
112.471
116.345
120.216
124.11
128.004
131.895
135.762
139.598
143.373
147.062
150.631
154.088
157.419
160.639
163.77
166.844
169.879
172.912
176.019
179.198
182.406
185.647
188.787
192.224
39.6927
40.2911
41.9623
45.0727
48.3784
51.7053
55.0037
58.3054
61.6296
64.9791
68.3788
71.7734
75.104
78.3183
81.3793
84.2872
87.0693
89.768
92.4157
95.0344
97.6345
100.223
102.8
105.358
107.883
110.357
112.768
115.155
117.494
119.776
122.001
124.178
126.314
128.397
130.417
132.397
134.345
136.268
138.14
140.112
39.6524
39.928
40.6862
42.2864
44.3202
46.4706
48.6845
50.9647
53.2986
55.6476
57.991
60.3355
62.6671
64.9623
67.1903
69.3286
71.3709
73.3272
75.2174
77.0653
78.894
80.7209
82.5534
84.3888
86.2163
88.0198
89.7763
91.4691
93.1063
94.6885
96.2184
97.7013
99.1436
100.532
101.828
103.037
104.174
105.251
106.275
107.363
39.6321
39.7633
40.1185
40.889
42.0233
43.3331
44.7463
46.2579
47.868
49.5321
51.1912
52.8425
54.4802
56.0977
57.6865
59.2377
60.7453
62.2079
63.6284
65.0132
66.3704
67.7076
69.0303
70.3406
71.6367
72.9138
74.158
75.334
76.4482
77.5075
78.5158
79.4762
80.3919
81.2643
82.0897
82.8663
83.5954
84.2796
84.9248
85.5969
39.62
39.6731
39.8218
40.1502
40.6895
41.3591
42.1318
43.0037
43.9743
45.0186
46.0964
47.1746
48.231
49.2601
50.2711
51.2787
52.2941
53.3185
54.3438
55.3563
56.3422
57.2922
58.2026
59.0747
59.9123
60.7196
61.4989
62.2487
62.9688
63.6598
64.3212
64.9522
65.5517
66.1196
66.6566
67.1637
67.6416
68.0916
68.5174
68.9531
39.6134
39.6267
39.6727
39.7812
39.9871
40.2655
40.601
40.9971
41.4575
41.9739
42.5275
43.0953
43.6592
44.2128
44.7612
45.3154
45.8853
46.4743
47.0783
47.687
48.288
48.8706
49.4276
49.9561
50.4567
50.9319
51.3855
51.8209
52.2406
52.646
53.0374
53.4146
53.7768
54.1235
54.4542
54.7688
55.0677
55.3513
55.622
55.8945
39.6092
39.6079
39.6146
39.6378
39.69
39.7779
39.8932
40.0318
40.1951
40.3835
40.592
40.8137
41.0426
41.2753
41.5121
41.7551
42.0068
42.2684
42.5387
42.8148
43.0926
43.3678
43.6366
43.8967
44.1466
44.3862
44.6159
44.8366
45.0491
45.2543
45.4528
45.6448
45.8306
46.0103
46.1838
46.3511
46.5123
46.6676
46.818
46.9686
39.6083
39.5997
39.5941
39.5944
39.5996
39.6134
39.6395
39.6746
39.7168
39.7662
39.8226
39.885
39.9522
40.0234
40.0985
40.1773
40.2599
40.3463
40.436
40.5284
40.6228
40.7182
40.8136
40.9083
41.0016
41.093
41.1825
41.2697
41.3548
41.4377
41.5185
41.5973
41.6743
41.7493
41.8226
41.8941
41.9638
42.0319
42.0987
42.1657
39.6079
39.5977
39.5888
39.5817
39.5767
39.5748
39.5757
39.5791
39.586
39.5952
39.6069
39.6207
39.6365
39.6543
39.6739
39.6951
39.718
39.7423
39.7679
39.7947
39.8225
39.8511
39.8803
39.9099
39.9398
39.9698
39.9999
40.0298
40.0596
40.0892
40.1185
40.1475
40.1762
40.2046
40.2326
40.2603
40.2876
40.3146
40.3416
40.3691
39.6078
39.5974
39.5882
39.5807
39.5752
39.5724
39.5729
39.5756
39.5816
39.5907
39.6021
39.6157
39.6315
39.6493
39.6689
39.6902
39.713
39.7372
39.7626
39.7891
39.8165
39.8448
39.8739
39.9037
39.934
39.9648
39.9959
40.0273
40.0589
40.0907
40.1224
40.1542
40.186
40.2176
40.2491
40.2805
40.3116
40.3425
40.3729
40.4027
39.608
39.5995
39.5949
39.5963
39.6042
39.6228
39.6557
39.7016
39.7595
39.8257
39.8987
39.9791
40.0664
40.1598
40.2586
40.3618
40.4687
40.5784
40.6907
40.8052
40.9218
41.0403
41.1605
41.2819
41.4042
41.5267
41.6491
41.7711
41.8924
42.0128
42.1322
42.2505
42.3678
42.4839
42.5989
42.7127
42.825
42.9358
43.0449
43.1517
39.6089
39.609
39.6181
39.6463
39.7054
39.7996
39.9269
40.0848
40.2672
40.4648
40.6768
40.9043
41.146
41.3999
41.6628
41.9316
42.2036
42.4773
42.7527
43.0303
43.3105
43.5926
43.8756
44.1582
44.439
44.7168
44.9906
45.2599
45.5244
45.784
46.0388
46.2889
46.5346
46.7759
47.0128
47.2452
47.4731
47.6961
47.9139
48.1258
39.6147
39.6372
39.7036
39.8458
40.0791
40.3937
40.7783
41.2181
41.696
42.2014
42.7346
43.2917
43.8696
44.4638
45.0664
45.6688
46.2655
46.8547
47.4384
48.0198
48.5986
49.169
49.7294
50.2792
50.8175
51.3438
51.8578
52.359
52.8473
53.3225
53.7844
54.233
54.6681
55.0899
55.4985
55.8942
56.2773
56.6479
57.0061
57.3516
39.6305
39.7464
40.0224
40.5255
41.2174
42.0649
43.0236
44.0512
45.1153
46.2066
47.3193
48.4482
49.5928
50.745
51.8926
53.025
54.1349
55.2193
56.2778
57.3107
58.3151
59.2895
60.2398
61.1686
62.0774
62.9663
63.8348
64.6814
65.5046
66.3026
67.074
67.818
68.5341
69.2226
69.8842
70.5202
71.132
71.7209
72.2879
72.832
39.6869
40.1345
41.0893
42.4934
44.2215
46.1855
48.2809
50.4199
52.5404
54.6146
56.6569
58.704
60.7628
62.8183
64.8534
66.8517
68.7969
70.6742
72.4741
74.196
75.852
77.4705
79.0646
80.6402
82.1969
83.7306
85.2356
86.7056
88.1345
89.5177
90.8519
92.1352
93.3677
94.5506
95.6866
96.7793
97.8327
98.851
99.8364
100.783
39.8755
41.4379
44.2342
47.629
51.4858
55.6775
59.9834
64.2391
68.3273
72.1681
75.8574
79.58
83.3992
87.261
91.0919
94.8281
98.4113
101.798
104.981
107.992
110.904
113.785
116.679
119.599
122.529
125.439
128.31
131.116
133.836
136.459
138.974
141.38
143.683
145.889
148.006
150.045
152.019
153.942
155.828
157.636
40.5138
45.7498
52.8624
60.5391
68.8926
77.8855
86.9085
95.6419
103.882
111.201
117.987
125.238
133.192
141.425
149.568
157.409
164.776
171.534
177.684
183.368
188.952
194.712
200.758
207.125
213.645
220.089
226.487
232.694
238.64
244.324
249.713
254.85
259.846
264.717
269.492
274.153
278.769
283.306
287.948
292.349
43.0522
59.7652
77.5366
95.412
114.965
136.624
157.84
177.924
196.93
212.274
225.395
242.151
263.514
286.022
307.555
327.483
345.504
361.231
374.972
387.297
400.352
415.183
431.787
450.399
469.648
487.4
505.476
522.26
537.898
552.787
566.625
580.707
596.6
613.126
630.403
647.285
664.832
681.697
700.027
716.927
56.0605
111.785
163.057
213.046
271.168
338.91
402.61
459.945
515.007
554.06
584.87
640.637
731.441
823.614
903.466
970.195
1026.53
1071.92
1110.67
1147.36
1195.7
1258.39
1331.98
1416.4
1500.95
1566.32
1635.29
1691.57
1740.86
1788.51
1833.24
1885.05
1961.19
2047.05
2145.26
2242.73
2348.73
2451.01
2562.2
2665.25
136.592
395.881
618.259
833.445
1114.12
1444.3
1735.14
1967.42
2169.56
2306.79
2459.26
2741.99
3312.74
3862.45
4267.57
4538.74
4745.09
4906.99
5047.11
5263.32
5614.29
6068.93
6595.71
7124.32
7582.44
7926.21
8175.69
8371.4
8530.09
8665.91
8850.54
9079.43
9361.43
9668.4
10003.1
10332.7
10673.8
10988.7
11297.4
11563.7
950.068
3610.37
5556.55
7379.36
9967.35
12506.8
14333.4
15424.3
15985.1
16439.6
17155.7
18366.5
19723.1
20810.8
21502.8
21854
22042.1
22228.9
22473.9
22955.2
23808.9
24656.4
25362.7
25894
26250.3
26436.4
26496.9
26519.7
26565.1
26670.1
26922
27259.9
27605.7
27928.1
28189.2
28393.4
28551.4
28628
28630.2
28606.5
18340.7
43916.9
57108.1
63296.8
65898.8
66785.4
66860.2
66754.4
66526.5
66280.9
65926.9
65354.8
64653.6
63973.7
63379.9
62893.2
62533.8
62280.5
61998.4
61527.8
60879.9
60186.9
59541.7
58973.3
58474.6
58047.4
57731.4
57553.5
57444.9
57277.2
56984.3
56589.1
56147.6
55709.2
55297.1
54918.6
54567.8
54242.7
53945.9
53689.3
207.062
207.066
207.078
207.103
207.149
207.224
207.34
207.507
207.736
208.037
208.421
208.894
209.463
210.141
210.97
211.954
213.059
214.253
215.502
216.761
217.974
219.08
220.015
220.715
221.124
221.203
220.946
220.364
219.539
218.665
218.04
218.008
219.096
222.102
227.982
237.802
252.713
273.855
303.47
344.911
400.567
473.168
565.952
682.919
829.488
1029.52
1301.98
1636.84
2037.39
2503.05
3029.18
3608.22
4230.71
4886.44
5565.51
6258.9
6958.85
7658.92
8353.95
9039.86
9713.48
10372.4
11014.7
11639
12244.2
12829.5
13394.2
13938
14460.6
14961.8
15441.6
15899.9
16336.9
16752.7
17147.5
17521.5
17874.9
18207.9
18520.7
18813.5
19086.4
19339.7
19573.5
19788
19983.3
20159.6
20317.1
20455.9
20576.1
20677.9
20761.5
20827.4
20874.7
20901
20911.2
20904.2
20877.8
20834.1
20772.5
20693.5
20597.1
20483.6
20352.9
20205.4
20041.1
19860.1
19662.8
19449
19219
18972.9
18710.7
18432.5
18138.2
17827.9
17501.5
17158.8
16799.6
16423.4
16029.9
15618.8
15189
14739.6
14269.6
13777.5
13261.9
12720.8
12151.8
11554
10925
10262.6
9566.4
8836.43
8074.74
7286.02
6478.67
5665.65
4864.75
4097.91
3388.65
2758.13
2220.79
1781.53
1435.79
1172.29
976.785
835.253
735.768
669.1
629.492
611.1
608.123
619.419
647.214
691.173
751.23
828.005
922.418
1035.36
1167.58
1319.5
1491.14
1682.08
1891.45
2118.06
2360.42
2616.89
2885.82
3165.48
3454.46
3750.87
4054.23
4360.92
4674.56
4981.57
5305.77
5585.5
5937.67
6108.96
6520.44
6411.91
207.314
207.305
207.297
207.293
207.298
207.322
207.37
207.453
207.58
207.759
208.001
208.315
208.707
209.188
209.764
210.449
211.235
212.107
213.044
214.018
214.994
215.928
216.773
217.48
218.002
218.301
218.358
218.182
217.826
217.437
217.243
217.603
219.057
222.365
228.442
238.315
253.096
273.986
302.9
342.372
394.455
461.27
545.092
648.49
774.725
941.553
1159.36
1414.35
1704.06
2023.54
2366.09
2724.5
3091.83
3462.03
3830.24
4192.79
4547.11
4891.46
5224.77
5546.39
5856.02
6153.54
6438.98
6712.43
6974.05
7224.03
7462.57
7689.9
7906.25
8111.86
8306.98
8491.85
8666.69
8831.75
8987.23
9133.35
9270.3
9398.25
9517.38
9627.83
9729.75
9823.28
9908.54
9985.66
10054.8
10116
10169.5
10215.3
10253.6
10284.4
10307.8
10324
10332.8
10333.4
10329.2
10318.8
10300.5
10275.9
10244.5
10206.7
10162.5
10112
10055.4
9992.78
9924.24
9849.89
9769.84
9684.18
9593.01
9496.39
9394.4
9287.07
9174.44
9056.5
8933.23
8804.56
8670.38
8530.54
8384.71
8232.44
8073.56
7907.3
7733.01
7549.67
7356.15
7150.91
6932.41
6698.32
6446.44
6174.28
5878.94
5557.75
5208.47
4830
4423.23
3992.1
3544.52
3092.71
2652.36
2240.34
1871.37
1555.13
1294.88
1088.24
929.195
810.283
724.32
665.253
628.987
611.325
608.157
618.203
642.593
680.969
733.022
798.922
878.985
973.421
1082.23
1205.08
1341.26
1489.67
1648.87
1817.17
1992.77
2173.82
2358.58
2545.41
2733.02
2920.01
3105.93
3288.69
3470.5
3643.94
3822.76
3973.67
4160.99
4253.53
4464.06
4473.14
207.931
207.896
207.852
207.801
207.747
207.696
207.654
207.629
207.629
207.661
207.735
207.86
208.045
208.301
208.637
209.062
209.58
210.184
210.865
211.607
212.387
213.174
213.936
214.632
215.225
215.682
215.983
216.134
216.179
216.243
216.534
217.398
219.355
223.125
229.586
239.731
254.647
275.553
304.15
342.549
392.584
455.994
534.439
629.574
743.289
889.636
1073.9
1280.58
1504.85
1740.68
1981.85
2222.97
2459.79
2689.36
2909.84
3120.34
3320.58
3510.69
3691
3861.94
4023.98
4177.58
4323.15
4461.1
4591.76
4715.46
4832.5
4943.15
5047.65
5146.26
5239.17
5326.58
5408.7
5485.67
5557.66
5624.8
5687.22
5745.04
5798.37
5847.31
5891.94
5932.37
5968.68
6000.97
6029.31
6053.8
6074.51
6091.51
6104.88
6114.7
6121.03
6123.62
6123.21
6118.99
6112.68
6103.33
6090.47
6074.93
6056.51
6035.3
6011.48
5985.05
5956.17
5924.89
5891.3
5855.48
5817.51
5777.45
5735.39
5691.39
5645.49
5597.74
5548.19
5496.85
5443.74
5388.84
5332.11
5273.53
5212.88
5149.82
5084.5
5016.37
4945.09
4870.04
4790.53
4705.68
4614.36
4514.57
4404.74
4282.7
4145.54
3990.3
3813.75
3612.92
3385.71
3131.83
2853.86
2558.11
2254.75
1956.73
1677.42
1427.79
1214.53
1039.59
901.137
795.221
717.213
662.807
628.835
611.881
608.514
617.539
639.718
674.705
722.028
781.585
853.336
937.095
1032.44
1138.6
1254.47
1378.59
1509.26
1644.6
1782.72
1921.81
2060.23
2196.58
2329.8
2458.91
2583.71
2703
2818.4
2925.69
3033.58
3122.74
3231.6
3285.9
3404.54
3444.16
209.058
208.976
208.873
208.749
208.608
208.454
208.291
208.126
207.966
207.817
207.689
207.591
207.533
207.529
207.588
207.726
207.948
208.261
208.663
209.152
209.716
210.339
211.001
211.676
212.335
212.954
213.516
214.026
214.524
215.119
216.008
217.518
220.148
224.587
231.676
242.379
257.767
279.054
307.782
345.765
394.683
455.987
530.817
620.153
724.794
856.054
1015.43
1186.62
1363.84
1541.27
1714.09
1878.91
2033.81
2178.06
2311.7
2435.33
2549.78
2655.93
2754.63
2846.63
2932.58
3013.03
3088.46
3159.23
3225.7
3288.14
3346.8
3401.9
3453.64
3502.18
3547.68
3590.27
3630.08
3667.21
3701.75
3733.8
3763.41
3790.67
3815.63
3838.35
3858.9
3877.33
3893.69
3908.04
3920.43
3930.91
3939.52
3946.32
3951.35
3954.66
3956.15
3956.08
3954.47
3951.2
3946.94
3941.15
3933.8
3925.3
3915.49
3904.47
3892.32
3879.07
3864.79
3849.51
3833.29
3816.18
3798.23
3779.47
3759.95
3739.71
3718.78
3697.2
3674.99
3652.18
3628.78
3604.8
3580.24
3555.1
3529.31
3502.66
3475.3
3446.88
3417.25
3386.07
3352.95
3317.37
3278.58
3235.32
3186.56
3130.72
3065.61
2988.82
2897.5
2788.62
2659.35
2507.75
2333.57
2139.28
1930.59
1716.25
1506.65
1311.74
1139.07
992.756
873.667
780.378
710.311
660.648
629.07
612.889
609.313
617.246
637.138
668.651
711.18
764.397
827.974
901.423
984.015
1074.72
1172.2
1274.87
1380.99
1488.74
1596.39
1702.36
1805.32
1904.23
1998.39
2087.26
2170.87
2248.73
2322.08
2388.7
2454.12
2507.4
2571.35
2604.35
2672.53
2722.76
210.877
210.717
210.522
210.291
210.026
209.73
209.407
209.06
208.697
208.324
207.95
207.586
207.244
206.938
206.684
206.499
206.396
206.39
206.488
206.702
207.032
207.476
208.027
208.673
209.4
210.192
211.04
211.953
212.973
214.2
215.822
218.152
221.674
227.04
235.064
246.686
262.967
285.11
314.558
352.925
401.686
462.038
534.861
620.448
718.334
837.617
976.674
1118.93
1258.65
1391.16
1513.49
1624.32
1723.61
1812.16
1891.18
1961.99
2025.84
2083.83
2136.86
2185.65
2230.78
2272.72
2311.81
2348.35
2382.57
2414.66
2444.79
2473.09
2499.68
2524.66
2548.11
2570.11
2590.72
2610
2627.98
2644.72
2660.24
2674.58
2687.76
2699.81
2710.77
2720.65
2729.48
2737.3
2744.13
2749.99
2754.91
2758.9
2762
2764.21
2765.54
2766.04
2765.83
2764.81
2763.23
2760.88
2757.77
2754.11
2749.78
2744.89
2739.44
2733.47
2727.01
2720.08
2712.71
2704.93
2696.77
2688.24
2679.38
2670.2
2660.74
2651.01
2641.04
2630.84
2620.42
2609.81
2599.01
2588.03
2576.82
2565.31
2553.59
2541.47
2528.88
2515.63
2501.53
2486.24
2469.33
2450.02
2427.67
2401.21
2369.12
2329.68
2280.69
2219.69
2144.08
2051.58
1940.8
1812.11
1668.24
1514.54
1358.34
1207.64
1069.42
948.528
847.338
766.131
703.882
658.987
629.88
614.528
610.733
617.511
635.054
663.042
700.762
747.712
803.352
866.979
937.674
1014.26
1095.36
1179.39
1264.71
1349.74
1432.99
1513.22
1589.46
1661.01
1727.5
1788.73
1844.92
1895.99
1942.93
1984.7
2024.83
2057.26
2095.49
2116.58
2156.81
2207.03
213.595
213.311
212.978
212.593
212.155
211.666
211.129
210.547
209.927
209.276
208.603
207.922
207.248
206.596
205.986
205.441
204.982
204.63
204.405
204.328
204.41
204.665
205.101
205.723
206.528
207.517
208.692
210.072
211.704
213.69
216.212
219.578
224.253
230.863
240.193
253.169
270.846
294.423
325.273
364.863
414.485
475.027
546.745
629.154
721.275
829.408
949.14
1064.72
1171.52
1266.76
1349.59
1420.53
1480.93
1532.48
1576.88
1615.59
1649.83
1680.54
1708.43
1734.05
1757.79
1779.94
1800.71
1820.27
1838.75
1856.23
1872.81
1888.53
1903.47
1917.65
1931.12
1943.89
1956
1967.47
1978.3
1988.5
1998.1
2007.08
2015.47
2023.27
2030.49
2037.13
2043.22
2048.76
2053.76
2058.24
2062.19
2065.64
2068.58
2071.02
2072.99
2074.5
2075.59
2076.26
2076.54
2076.41
2075.87
2075
2073.76
2072.19
2070.31
2068.13
2065.68
2062.95
2059.98
2056.78
2053.36
2049.74
2045.93
2041.96
2037.83
2033.56
2029.16
2024.66
2020.06
2015.38
2010.62
2005.8
2000.88
1995.86
1990.77
1985.51
1980.06
1974.32
1968.15
1961.38
1953.71
1944.71
1933.95
1920.71
1904
1882.62
1855
1819.3
1773.44
1715.37
1643.5
1557.19
1457.45
1347.26
1231.45
1115.89
1006.42
907.724
822.799
752.964
698.29
658.121
631.519
617.039
613.014
618.583
633.741
658.186
691.137
731.971
780.002
834.397
894.145
958.045
1024.74
1092.81
1160.8
1227.37
1291.38
1351.88
1408.22
1460
1507.09
1549.5
1587.55
1621.38
1651.79
1678.39
1703.41
1723.66
1747.03
1761.27
1786.05
1830.89
217.4
216.931
216.399
215.796
215.121
214.374
213.557
212.675
211.733
210.74
209.708
208.653
207.592
206.547
205.542
204.604
203.761
203.044
202.483
202.108
201.945
202.021
202.353
202.972
203.889
205.121
206.688
208.624
210.989
213.893
217.513
222.173
228.31
236.53
247.598
262.428
282.074
307.724
340.684
382.257
433.467
494.74
565.62
644.654
729.532
824.859
923.897
1013.14
1090.02
1154.02
1206.17
1248.27
1282.38
1310.39
1333.89
1354.1
1371.93
1388.02
1402.84
1416.68
1429.76
1442.22
1454.14
1465.6
1476.64
1487.29
1497.57
1507.5
1517.09
1526.35
1535.29
1543.91
1552.21
1560.18
1567.84
1575.16
1582.16
1588.83
1595.16
1601.16
1606.82
1612.15
1617.15
1621.82
1626.18
1630.21
1633.92
1637.31
1640.39
1643.17
1645.64
1647.83
1649.74
1651.38
1652.77
1653.88
1654.74
1655.37
1655.76
1655.94
1655.91
1655.68
1655.27
1654.68
1653.91
1652.99
1651.92
1650.72
1649.38
1647.92
1646.36
1644.7
1642.96
1641.14
1639.26
1637.32
1635.33
1633.3
1631.21
1629.07
1626.89
1624.63
1622.26
1619.72
1616.94
1613.8
1610.11
1605.62
1600.04
1592.89
1583.51
1571.08
1554.51
1532.48
1503.44
1465.76
1417.98
1359.18
1289.45
1210.29
1124.67
1036.68
950.82
871.165
800.762
741.445
693.988
658.421
634.321
620.736
616.466
620.788
633.541
654.47
682.751
717.689
758.522
804.36
854.179
906.827
961.068
1015.65
1069.37
1121.16
1170.16
1215.69
1257.35
1294.95
1328.5
1358.14
1384.2
1406.94
1426.96
1444.23
1460.14
1473.17
1487.83
1497.91
1514.26
1551.31
222.382
221.662
220.857
219.96
218.97
217.886
216.712
215.453
214.116
212.712
211.258
209.772
208.276
206.796
205.364
204.011
202.773
201.69
200.8
200.143
199.759
199.689
199.963
200.63
201.723
203.278
205.337
207.956
211.21
215.212
220.19
226.436
234.384
244.623
257.902
275.124
297.329
325.665
361.319
405.331
458.268
519.843
588.638
662.124
737.092
816.713
893.248
956.998
1007.83
1047.13
1077.08
1099.94
1117.7
1131.95
1143.87
1154.27
1163.72
1172.56
1181.02
1189.23
1197.28
1205.19
1212.98
1220.67
1228.25
1235.72
1243.08
1250.31
1257.42
1264.39
1271.22
1277.9
1284.42
1290.76
1296.93
1302.92
1308.71
1314.29
1319.67
1324.85
1329.8
1334.55
1339.08
1343.39
1347.48
1351.36
1355.02
1358.46
1361.69
1364.69
1367.49
1370.09
1372.49
1374.69
1376.69
1378.51
1380.14
1381.6
1382.88
1384.01
1384.97
1385.79
1386.46
1386.99
1387.38
1387.65
1387.81
1387.84
1387.78
1387.61
1387.35
1387
1386.58
1386.09
1385.54
1384.93
1384.26
1383.55
1382.78
1381.96
1381.1
1380.16
1379.13
1377.97
1376.64
1375.05
1373.09
1370.59
1367.34
1363.04
1357.24
1349.37
1338.7
1324.28
1305.01
1279.66
1247.03
1206.24
1156.97
1099.86
1036.64
970.013
903.254
839.662
781.996
732.232
691.545
660.363
638.709
626.019
621.487
624.541
634.897
652.386
676.137
705.468
739.58
777.591
818.526
861.33
904.926
948.262
990.371
1030.43
1067.81
1102.06
1132.94
1160.38
1184.49
1205.43
1223.54
1239.06
1252.49
1263.94
1274.29
1282.91
1292.36
1299.75
1311.29
1340.47
228.541
227.427
226.256
224.972
223.576
222.068
220.453
218.739
216.936
215.06
213.131
211.171
209.208
207.275
205.408
203.645
202.031
200.611
199.433
198.547
198.005
197.861
198.162
198.973
200.352
202.358
205.056
208.517
212.844
218.214
224.826
232.985
243.121
255.808
271.774
291.894
317.157
348.593
387.139
433.374
487.146
547.204
611.089
675.456
736.771
798.856
852.703
893.947
924.25
945.998
961.564
972.937
981.632
988.719
994.91
1000.66
1006.25
1011.81
1017.44
1023.15
1028.95
1034.84
1040.78
1046.77
1052.78
1058.8
1064.81
1070.81
1076.77
1082.68
1088.53
1094.3
1099.99
1105.59
1111.07
1116.44
1121.67
1126.78
1131.74
1136.55
1141.21
1145.72
1150.08
1154.27
1158.3
1162.17
1165.87
1169.4
1172.77
1175.97
1179.01
1181.89
1184.61
1187.17
1189.58
1191.83
1193.94
1195.9
1197.72
1199.4
1200.95
1202.37
1203.67
1204.84
1205.9
1206.84
1207.67
1208.4
1209.03
1209.56
1210.01
1210.36
1210.64
1210.84
1210.97
1211.03
1211.02
1210.94
1210.8
1210.6
1210.32
1209.97
1209.51
1208.93
1208.2
1207.25
1206
1204.36
1202.16
1199.21
1195.19
1189.73
1182.31
1172.28
1158.85
1141.14
1118.24
1089.39
1054.15
1012.71
966.026
915.786
864.272
814.015
767.322
726.098
691.581
664.529
645.214
633.395
628.579
630.361
638.357
652.499
671.948
695.995
723.914
754.856
787.936
822.227
856.824
890.868
923.601
954.408
982.834
1008.59
1031.54
1051.68
1069.14
1084.12
1096.86
1107.64
1116.8
1124.53
1131.4
1137.24
1143.49
1149.01
1157.52
1179.84
235.538
233.819
232.169
230.399
228.509
226.501
224.38
222.158
219.848
217.471
215.05
212.613
210.196
207.834
205.571
203.452
201.527
199.85
198.475
197.463
196.877
196.783
197.251
198.36
200.189
202.816
206.33
210.857
216.547
223.558
232.115
242.53
255.225
270.751
289.797
313.158
341.683
376.137
416.993
464.118
516.424
571.699
626.849
678.604
726.345
768.066
802.139
825.969
842.128
852.972
860.411
865.837
870.195
874.091
877.884
881.778
885.87
890.193
894.747
899.511
904.456
909.554
914.776
920.095
925.491
930.942
936.43
941.938
947.45
952.953
958.431
963.872
969.262
974.59
979.842
985.009
990.08
995.049
999.908
1004.65
1009.28
1013.78
1018.15
1022.4
1026.51
1030.48
1034.32
1038.01
1041.57
1044.98
1048.25
1051.38
1054.38
1057.24
1059.96
1062.54
1065
1067.32
1069.52
1071.59
1073.54
1075.36
1077.07
1078.66
1080.13
1081.5
1082.75
1083.9
1084.95
1085.9
1086.75
1087.51
1088.18
1088.76
1089.25
1089.66
1089.99
1090.23
1090.39
1090.46
1090.44
1090.33
1090.1
1089.73
1089.21
1088.48
1087.51
1086.2
1084.46
1082.14
1079.04
1074.89
1069.33
1061.93
1052.12
1039.29
1022.77
1001.95
976.425
946.157
911.631
873.865
834.368
795.014
757.66
723.865
694.881
671.619
654.491
643.488
638.365
638.883
644.593
655.519
670.905
690.083
712.328
736.955
763.162
790.158
817.202
843.613
868.803
892.316
913.833
933.162
950.228
965.064
977.791
988.578
997.641
1005.2
1011.53
1016.81
1021.42
1025.42
1029.61
1033.76
1040.15
1056.83
242.098
239.693
237.533
235.255
232.859
230.349
227.734
225.027
222.247
219.419
216.571
213.737
210.957
208.271
205.729
203.381
201.281
199.49
198.071
197.095
196.64
196.782
197.606
199.206
201.686
205.17
209.794
215.695
223.025
231.976
242.787
255.767
271.314
289.925
312.187
338.724
370.084
406.563
447.944
493.228
540.487
587.059
630.073
669.427
700.381
725.819
745.029
757.328
765.145
770.228
773.825
776.752
779.511
782.386
785.524
788.983
792.771
796.867
801.239
805.848
810.658
815.636
820.753
825.982
831.302
836.693
842.138
847.619
853.121
858.63
864.13
869.608
875.05
880.445
885.779
891.041
896.223
901.315
906.31
911.205
915.994
920.673
925.239
929.689
934.017
938.221
942.295
946.237
950.047
953.726
957.274
960.692
963.979
967.135
970.163
973.062
975.833
978.478
980.997
983.392
985.662
987.81
989.836
991.742
993.53
995.201
996.758
998.201
999.534
1000.76
1001.88
1002.89
1003.8
1004.6
1005.31
1005.91
1006.41
1006.81
1007.11
1007.3
1007.36
1007.33
1007.16
1006.84
1006.36
1005.67
1004.76
1003.55
1001.99
999.965
997.339
993.927
989.49
983.722
976.248
966.627
954.385
939.07
920.337
898.061
872.473
844.145
814.081
783.584
753.905
726.41
702.316
682.454
667.316
657.052
651.6
650.86
654.415
662.268
673.858
688.567
705.768
724.765
744.97
765.745
786.474
806.619
825.728
843.464
859.603
874.013
886.644
897.539
906.802
914.57
921.013
926.308
930.664
934.253
937.321
940.025
942.818
945.865
950.628
962.782
245.745
242.898
240.429
237.842
235.139
232.328
229.421
226.434
223.391
220.319
217.251
214.225
211.286
208.48
205.859
203.483
201.413
199.717
198.469
197.755
197.649
198.252
199.677
202.046
205.491
210.152
216.175
223.727
232.984
244.147
257.447
273.161
291.618
313.194
338.269
367.14
399.88
436.137
474.951
514.666
553.087
588.202
620.416
644.699
662.376
676.553
686.293
692.192
695.946
698.625
700.927
703.264
705.858
708.814
712.164
715.899
719.988
724.392
729.066
733.973
739.075
744.342
749.746
755.264
760.876
766.564
772.312
778.102
783.92
789.748
795.574
801.384
807.162
812.896
818.573
824.18
829.708
835.148
840.493
845.738
850.879
855.913
860.835
865.643
870.332
874.896
879.329
883.627
887.789
891.819
895.717
899.483
903.116
906.618
909.987
913.226
916.332
919.307
922.151
924.862
927.442
929.891
932.21
934.398
936.458
938.389
940.195
941.875
943.432
944.867
946.182
947.377
948.453
949.411
950.248
950.967
951.565
952.04
952.392
952.614
952.69
952.655
952.463
952.11
951.582
950.857
949.908
948.698
947.178
945.276
942.899
939.921
936.181
931.474
925.549
918.115
908.842
897.4
883.515
867.038
848.072
826.893
804.086
780.353
756.891
734.747
714.855
697.969
684.594
674.971
669.17
667.186
668.747
673.7
681.782
692.41
705.063
719.213
734.258
749.693
765.084
780.043
794.205
807.308
819.192
829.754
838.952
846.827
853.459
858.954
863.437
867.047
869.949
872.28
874.212
875.923
877.682
879.795
883.207
891.726
244.83
242.1
239.724
237.212
234.571
231.812
228.951
226.01
223.017
220.004
217.011
214.08
211.261
208.609
206.181
204.042
202.264
200.923
200.116
199.925
200.451
201.818
204.152
207.592
212.29
218.404
226.103
235.559
246.946
260.443
276.231
294.499
315.427
339.159
365.738
395.004
426.466
459.203
491.854
522.733
551.244
576.931
595.173
608.461
618.078
625.373
630.168
633.25
635.594
637.773
640.129
642.836
645.97
649.547
653.548
657.938
662.674
667.71
673.005
678.522
684.227
690.091
696.091
702.205
708.415
714.702
721.051
727.444
733.864
740.297
746.726
753.138
759.517
765.848
772.117
778.31
784.416
790.425
796.331
802.128
807.813
813.381
818.832
824.16
829.362
834.433
839.365
844.148
848.789
853.292
857.653
861.874
865.954
869.893
873.69
877.346
880.859
884.228
887.452
890.531
893.464
896.25
898.889
901.382
903.728
905.93
907.987
909.901
911.673
913.305
914.797
916.151
917.365
918.441
919.377
920.174
920.829
921.341
921.709
921.921
921.981
921.901
921.651
921.226
920.617
919.808
918.78
917.51
915.965
914.098
911.846
909.127
905.835
901.839
896.973
891.042
883.827
875.095
864.637
852.3
837.937
821.818
804.331
786.053
767.657
749.906
733.538
719.189
707.33
698.242
692.074
688.887
688.594
690.898
695.744
702.691
711.279
721.097
731.71
742.707
753.682
764.287
774.32
783.588
791.977
799.398
805.826
811.28
815.811
819.489
822.404
824.664
826.401
827.71
828.717
829.589
830.499
831.757
833.981
839.55
237.909
236.159
234.474
232.607
230.57
228.381
226.061
223.638
221.144
218.618
216.103
213.647
211.306
209.142
207.224
205.628
204.437
203.761
203.673
204.288
205.733
208.142
211.657
216.434
222.635
230.423
239.959
251.393
264.854
280.445
298.23
318.224
340.363
364.471
390.198
416.964
443.925
469.991
494.441
517.462
536.792
550.148
560.142
567.333
572.411
576.32
579.186
581.556
583.926
586.572
589.637
593.181
597.21
601.702
606.621
611.923
617.561
623.495
629.683
636.091
642.687
649.446
656.342
663.354
670.463
677.651
684.901
692.193
699.51
706.834
714.15
721.444
728.699
735.897
743.021
750.054
756.984
763.799
770.491
777.055
783.488
789.787
795.951
801.976
807.858
813.595
819.184
824.626
829.913
835.035
839.991
844.784
849.413
853.879
858.182
862.321
866.297
870.107
873.75
877.226
880.532
883.668
886.634
889.431
892.058
894.518
896.81
898.936
900.898
902.698
904.337
905.816
907.134
908.292
909.289
910.126
910.801
911.313
911.66
911.827
911.84
911.684
911.346
910.823
910.107
909.188
908.054
906.69
905.075
903.18
900.962
898.37
895.334
891.768
887.567
882.602
876.724
869.772
861.597
852.08
841.201
829.005
815.689
801.594
787.165
772.931
759.438
747.191
736.593
727.931
721.392
717.086