/*--------------------------------*- C++ -*----------------------------------*\
| =========                 |                                                 |
| \\      /  F ield         | OpenFOAM: The Open Source CFD Toolbox           |
|  \\    /   O peration     | Version:  2112                                  |
|   \\  /    A nd           | Website:  www.openfoam.com                      |
|    \\/     M anipulation  |                                                 |
\*---------------------------------------------------------------------------*/
FoamFile
{
    version     2.0;
    format      ascii;
    arch        "LSB;label=32;scalar=64";
    class       volScalarField;
    location    "0.14";
    object      p;
}
// * * * * * * * * * * * * * * * * * * * * * * * * * * * * * * * * * * * * * //

dimensions      [0 2 -2 0 0 0 0];

internalField   nonuniform List<scalar> 
12225
(
-4.02446
-4.68298
-5.01288
-5.1493
-5.25493
-5.36512
-5.4684
-5.55992
-5.64281
-5.72181
-5.7973
-5.87179
-5.94197
-6.0151
-6.08076
-6.15923
-6.21972
-6.3117
-4.19028
-4.70308
-5.00593
-5.1432
-5.24964
-5.35927
-5.46216
-5.55368
-5.63694
-5.71587
-5.79159
-5.86506
-5.9362
-6.00603
-6.07579
-6.14337
-6.21645
-6.26868
-4.36362
-4.72761
-5.00453
-5.14718
-5.25588
-5.36395
-5.46492
-5.55534
-5.63767
-5.71579
-5.79024
-5.86284
-5.93242
-6.00149
-6.06881
-6.13526
-6.20192
-6.25914
-4.53064
-4.7749
-5.01891
-5.15952
-5.26679
-5.3711
-5.4689
-5.55742
-5.63861
-5.7156
-5.78914
-5.86053
-5.92936
-5.99696
-6.06303
-6.12757
-6.19148
-6.25318
-4.6684
-4.84142
-5.0458
-5.1777
-5.28152
-5.38163
-5.47599
-5.56232
-5.64215
-5.71786
-5.79031
-5.8604
-5.92818
-5.9942
-6.05886
-6.12142
-6.18359
-6.24296
-4.77996
-4.91423
-5.0808
-5.20127
-5.30044
-5.39605
-5.48664
-5.57039
-5.64846
-5.72263
-5.7937
-5.86232
-5.92872
-5.99313
-6.05605
-6.11672
-6.17628
-6.23217
-4.88213
-4.98396
-5.12022
-5.22914
-5.32289
-5.41368
-5.5002
-5.58105
-5.65703
-5.72942
-5.79887
-5.86588
-5.93068
-5.99338
-6.05437
-6.11299
-6.16982
-6.22304
-4.9786
-5.04814
-5.16151
-5.2596
-5.34758
-5.43344
-5.51582
-5.59363
-5.66731
-5.73775
-5.80541
-5.87068
-5.93374
-5.99462
-6.05357
-6.11005
-6.16438
-6.2152
-5.06493
-5.10842
-5.20306
-5.29105
-5.37327
-5.45429
-5.53265
-5.60739
-5.67868
-5.74707
-5.81285
-5.8763
-5.9375
-5.9965
-6.05335
-6.10771
-6.15967
-6.20815
-5.13724
-5.16547
-5.24363
-5.3223
-5.39892
-5.47533
-5.54986
-5.62161
-5.69049
-5.75679
-5.82065
-5.88223
-5.94155
-5.99862
-6.05341
-6.10566
-6.15538
-6.20165
-5.1971
-5.21798
-5.28236
-5.35265
-5.42387
-5.49585
-5.56675
-5.6356
-5.70211
-5.76632
-5.82825
-5.88795
-5.9454
-6.00055
-6.05334
-6.10357
-6.1512
-6.19543
-5.24531
-5.26191
-5.31601
-5.37936
-5.44576
-5.5138
-5.5815
-5.64776
-5.71212
-5.77443
-5.83461
-5.89262
-5.94838
-6.00183
-6.05287
-6.10134
-6.14721
-6.18974
-5.28868
-5.30207
-5.34743
-5.40458
-5.46636
-5.53058
-5.59518
-5.65893
-5.72118
-5.78165
-5.84012
-5.89649
-5.95064
-6.00247
-6.05188
-6.09874
-6.143
-6.18403
-5.33315
-5.34391
-5.38114
-5.43184
-5.48854
-5.54849
-5.60959
-5.67047
-5.73031
-5.78866
-5.84521
-5.89976
-5.95214
-6.00223
-6.04991
-6.09508
-6.13768
-6.17723
-5.37706
-5.38588
-5.41614
-5.4604
-5.51173
-5.56704
-5.62424
-5.68188
-5.73897
-5.79491
-5.84929
-5.90182
-5.95228
-6.00051
-6.04641
-6.08987
-6.13083
-6.16895
-5.41823
-5.4257
-5.45047
-5.48877
-5.5348
-5.58536
-5.63845
-5.69254
-5.74659
-5.79986
-5.85184
-5.90216
-5.95057
-5.99688
-6.04097
-6.08275
-6.12215
-6.15892
-5.4536
-5.46019
-5.48098
-5.51435
-5.55566
-5.60184
-5.65095
-5.70152
-5.75245
-5.80294
-5.8524
-5.90043
-5.94673
-5.9911
-6.03341
-6.07357
-6.11151
-6.14709
-5.47836
-5.48444
-5.50281
-5.53285
-5.57073
-5.61356
-5.65947
-5.70708
-5.75527
-5.80323
-5.85036
-5.89624
-5.94056
-5.98311
-6.02375
-6.06242
-6.09905
-6.13356
-5.48453
-5.49052
-5.50827
-5.53733
-5.574
-5.61544
-5.65984
-5.70585
-5.75241
-5.79872
-5.84422
-5.88851
-5.9313
-5.97242
-6.01176
-6.04924
-6.08485
-6.11858
-5.46443
-5.47134
-5.49143
-5.52308
-5.56178
-5.60463
-5.64991
-5.69632
-5.74287
-5.78888
-5.83387
-5.87749
-5.91955
-5.95991
-5.99849
-6.03527
-6.07024
-6.10345
-5.43021
-5.43906
-5.46352
-5.49978
-5.54218
-5.58785
-5.6352
-5.68302
-5.73044
-5.77687
-5.82196
-5.86549
-5.90732
-5.94737
-5.98562
-6.02206
-6.05674
-6.08973
-5.38307
-5.39603
-5.4276
-5.47032
-5.51747
-5.56668
-5.61668
-5.66634
-5.71494
-5.76208
-5.80756
-5.85126
-5.89313
-5.93313
-5.9713
-6.00766
-6.04227
-6.07522
-5.32392
-5.34442
-5.38619
-5.43678
-5.48918
-5.54227
-5.59523
-5.64701
-5.69704
-5.74514
-5.79127
-5.83542
-5.87761
-5.91785
-5.95621
-5.99274
-6.0275
-6.06063
-5.25225
-5.28436
-5.34038
-5.40043
-5.45839
-5.5157
-5.57207
-5.62637
-5.67815
-5.7275
-5.77458
-5.81947
-5.86226
-5.90299
-5.94177
-5.97867
-6.01377
-6.04721
-5.16667
-5.21368
-5.291
-5.36316
-5.42716
-5.48911
-5.54941
-5.60662
-5.66042
-5.71123
-5.75944
-5.80526
-5.84881
-5.89019
-5.9295
-5.96688
-6.0024
-6.03621
-5.06544
-5.13149
-5.24121
-5.32861
-5.39889
-5.46568
-5.53014
-5.59033
-5.64608
-5.69827
-5.74758
-5.79431
-5.8386
-5.8806
-5.92045
-5.95827
-5.99422
-6.02838
-4.93532
-5.04642
-5.19855
-5.30092
-5.3766
-5.44802
-5.51647
-5.57933
-5.63668
-5.68997
-5.74014
-5.78759
-5.83247
-5.87492
-5.91514
-5.95325
-5.98949
-6.02396
-4.76959
-4.97855
-5.17285
-5.2828
-5.36091
-5.43616
-5.50821
-5.5733
-5.63195
-5.68616
-5.73714
-5.78525
-5.83068
-5.87354
-5.91409
-5.95237
-5.98877
-6.0233
-4.58971
-4.93948
-5.16995
-5.27785
-5.35339
-5.42965
-5.50326
-5.56913
-5.62808
-5.68254
-5.7339
-5.78242
-5.82827
-5.87149
-5.9124
-5.95091
-5.9875
-6.022
-4.42051
-4.90876
-5.17285
-5.2823
-5.3577
-5.43528
-5.50996
-5.57607
-5.63478
-5.68887
-5.73993
-5.78823
-5.8339
-5.87693
-5.9177
-5.95605
-5.99239
-6.02586
-7.22189
-7.23122
-7.24489
-7.25774
-7.26369
-7.25474
-7.22836
-7.19073
-7.15283
-7.12336
-7.10797
-7.10605
-7.11429
-7.12748
-7.14079
-7.15034
-7.15272
-7.14583
-7.12947
-7.1049
-7.07452
-7.0421
-7.01266
-6.99195
-6.9847
-6.99062
-7.00152
-7.01177
-7.01835
-7.01466
-6.99961
-6.98243
-6.97972
-6.99327
-7.01017
-7.02024
-7.02201
-7.0084
-6.98567
-6.96304
-6.95185
-6.9821
-7.04837
-7.13866
-7.24478
-7.35751
-7.47157
-7.58265
-7.68851
-7.78763
-7.87954
-7.96433
-8.04241
-8.1143
-8.18058
-8.24181
-8.29847
-8.35104
-8.39989
-8.44535
-8.48768
-8.52709
-8.56374
-8.59773
-8.62913
-8.65798
-8.68428
-8.70799
-8.72907
-8.74745
-8.76303
-8.77573
-8.78543
-8.79201
-8.79535
-8.79534
-8.79185
-8.78474
-8.77392
-8.75924
-8.7406
-8.71789
-8.691
-8.65982
-8.62425
-8.5842
-8.53959
-8.49031
-8.43629
-8.37746
-8.31373
-8.24505
-8.17135
-8.09257
-8.00867
-7.9196
-7.82531
-7.72577
-7.62096
-7.51088
-7.3955
-7.27467
-7.14857
-7.01713
-6.8803
-6.73806
-6.59039
-6.43726
-6.27864
-6.1145
-5.9448
-5.76949
-5.58851
-5.40178
-5.20923
-5.01078
-4.80631
-4.59572
-4.37888
-4.15565
-3.92587
-3.68938
-3.44598
-3.19547
-2.93763
-2.67222
-2.39899
-2.1177
-1.82807
-1.52987
-1.22292
-0.907072
-0.58199
-0.24707
0.0978994
0.452871
0.817941
1.19316
1.57856
1.97408
2.37961
2.79492
3.21971
3.65353
4.09586
4.54606
5.0034
5.46701
5.93592
6.40901
6.885
7.3625
7.84005
8.31612
8.78913
9.25744
9.71938
10.1732
10.6173
11.0499
11.4693
11.8738
12.2621
12.6328
12.9849
13.3175
13.6299
13.9216
14.1926
14.4428
14.6729
14.8831
15.076
15.2512
15.415
15.5649
15.72
15.8678
16.0708
16.3077
-7.26937
-7.27714
-7.28936
-7.30144
-7.30828
-7.29953
-7.27418
-7.23879
-7.20487
-7.18055
-7.16883
-7.16867
-7.17646
-7.18796
-7.19921
-7.20643
-7.20686
-7.19926
-7.18281
-7.15776
-7.12616
-7.09158
-7.05878
-7.03327
-7.01956
-7.01728
-7.01695
-7.02045
-7.03479
-7.04061
-7.02964
-7.01446
-7.01327
-7.03018
-7.0453
-7.03991
-7.0136
-7.00013
-7.02058
-7.0263
-7.0271
-7.06543
-7.13183
-7.21906
-7.31819
-7.42222
-7.52657
-7.62786
-7.72446
-7.81533
-7.90022
-7.97916
-8.05243
-8.12041
-8.18352
-8.24217
-8.29676
-8.34765
-8.39515
-8.43953
-8.48099
-8.51971
-8.55581
-8.58938
-8.62047
-8.64909
-8.67523
-8.69886
-8.71991
-8.73831
-8.75396
-8.76676
-8.77659
-8.78335
-8.78689
-8.78711
-8.78386
-8.77703
-8.7665
-8.75214
-8.73383
-8.71148
-8.68496
-8.65417
-8.61902
-8.5794
-8.53523
-8.48641
-8.43287
-8.37453
-8.31131
-8.24314
-8.16997
-8.09174
-8.00839
-7.91987
-7.82616
-7.7272
-7.62298
-7.51351
-7.3989
-7.27876
-7.15317
-7.02225
-6.886
-6.74439
-6.59737
-6.44492
-6.287
-6.12358
-5.95462
-5.78007
-5.59986
-5.41395
-5.22225
-5.02467
-4.82111
-4.61147
-4.39562
-4.17343
-3.94475
-3.7094
-3.46721
-3.21798
-2.96148
-2.69748
-2.42572
-2.14594
-1.85787
-1.5612
-1.25563
-0.940856
-0.616749
-0.283366
0.0595865
0.412446
0.775285
1.14819
1.53119
1.92425
2.32726
2.74
3.16218
3.59336
4.03303
4.48056
4.93522
5.39619
5.86251
6.33308
6.80664
7.28182
7.75716
8.23116
8.70226
9.16884
9.62925
10.0818
10.5248
10.9567
11.3757
11.7802
12.1689
12.5403
12.8934
13.2273
13.5414
13.835
14.1082
14.3608
14.5937
14.807
15.0032
15.1819
15.3497
15.5023
15.6592
15.8057
16.002
16.1753
-7.26341
-7.26514
-7.26846
-7.27398
-7.28174
-7.28559
-7.27997
-7.26977
-7.26184
-7.2599
-7.26466
-7.2746
-7.28713
-7.29967
-7.30954
-7.31409
-7.31163
-7.30137
-7.28308
-7.2575
-7.22567
-7.18943
-7.15123
-7.11409
-7.0807
-7.05334
-7.03277
-7.02014
-7.01228
-7.00143
-6.98713
-6.98181
-6.99236
-7.00979
-7.02064
-7.03471
-7.04422
-7.04622
-7.06552
-7.09681
-7.13554
-7.19028
-7.25682
-7.33439
-7.41849
-7.50601
-7.59418
-7.68094
-7.76491
-7.84517
-7.92127
-7.99304
-8.06048
-8.12374
-8.18302
-8.23858
-8.29067
-8.33953
-8.38539
-8.42843
-8.46883
-8.50669
-8.54211
-8.57516
-8.60586
-8.6342
-8.66016
-8.68369
-8.70472
-8.72316
-8.73892
-8.75187
-8.76191
-8.7689
-8.77273
-8.77326
-8.77036
-8.76391
-8.75378
-8.73985
-8.72201
-8.70014
-8.67413
-8.64388
-8.60929
-8.57026
-8.52669
-8.47851
-8.42562
-8.36796
-8.30543
-8.23798
-8.16554
-8.08805
-8.00546
-7.91772
-7.82479
-7.72663
-7.62321
-7.51445
-7.40025
-7.28114
-7.15657
-7.02659
-6.89123
-6.75049
-6.60434
-6.45277
-6.29575
-6.13325
-5.96522
-5.79163
-5.61241
-5.42752
-5.23687
-5.04038
-4.83795
-4.62949
-4.41487
-4.19396
-3.96662
-3.73269
-3.49198
-3.24431
-2.98947
-2.72721
-2.4573
-2.17947
-1.89347
-1.59903
-1.29586
-0.983675
-0.662263
-0.331526
0.00875458
0.358801
0.718718
1.0886
1.46848
1.85834
2.25808
2.66751
3.08635
3.51417
3.95046
4.39462
4.84595
5.30364
5.76676
6.23425
6.70489
7.17729
7.65003
8.12162
8.59052
9.05516
9.5139
9.96509
10.4071
10.8381
11.2566
11.661
12.05
12.4221
12.7764
13.1119
13.4279
13.7238
13.9996
14.2553
14.4914
14.7083
14.9084
15.0912
15.2631
15.42
15.5802
15.7271
15.9112
16.052
-7.26208
-7.26037
-7.25792
-7.26263
-7.27341
-7.28947
-7.30763
-7.32588
-7.34416
-7.36298
-7.38204
-7.40008
-7.41555
-7.42706
-7.43344
-7.43369
-7.42706
-7.41287
-7.39128
-7.36252
-7.32714
-7.28604
-7.24037
-7.19151
-7.14094
-7.09033
-7.04118
-6.99542
-6.95557
-6.92405
-6.90835
-6.91257
-6.92769
-6.95461
-6.98273
-7.01308
-7.05019
-7.08859
-7.13142
-7.17868
-7.2315
-7.29166
-7.35734
-7.42839
-7.50286
-7.57926
-7.65605
-7.73195
-7.806
-7.8775
-7.94599
-8.01124
-8.07316
-8.13176
-8.18716
-8.23948
-8.28888
-8.33551
-8.37953
-8.42107
-8.46023
-8.49712
-8.53177
-8.56422
-8.59448
-8.62252
-8.64829
-8.67173
-8.69276
-8.71127
-8.72716
-8.7403
-8.75057
-8.75784
-8.76198
-8.76285
-8.76032
-8.75427
-8.74457
-8.73109
-8.71371
-8.69234
-8.66685
-8.63713
-8.6031
-8.56465
-8.52169
-8.47413
-8.42189
-8.36488
-8.30304
-8.23629
-8.16456
-8.0878
-8.00596
-7.91897
-7.82681
-7.72944
-7.62682
-7.51895
-7.40567
-7.28716
-7.16332
-7.03414
-6.8996
-6.75969
-6.61439
-6.46369
-6.30756
-6.14597
-5.97889
-5.80627
-5.62806
-5.4442
-5.25463
-5.05926
-4.85801
-4.65077
-4.43742
-4.21785
-3.9919
-3.75944
-3.52028
-3.27425
-3.02112
-2.76067
-2.49267
-2.21685
-1.93296
-1.64072
-1.33988
-1.03015
-0.711323
-0.383205
-0.0456003
0.301666
0.658714
1.02564
1.40249
1.78927
2.18589
2.59219
3.00789
3.43259
3.86577
4.30685
4.75515
5.2099
5.67019
6.135
6.60312
7.07319
7.54376
8.01337
8.48051
8.94363
9.4011
9.8513
10.2926
10.7232
11.1415
11.546
11.9353
12.3082
12.6636
13.0005
13.3181
13.616
13.8941
14.1523
14.3912
14.6112
14.8143
15.0004
15.1751
15.3349
15.4956
15.6396
15.8105
15.9218
-7.2638
-7.26031
-7.2615
-7.27233
-7.2976
-7.33174
-7.36827
-7.40419
-7.43774
-7.4672
-7.49178
-7.51154
-7.52653
-7.53642
-7.54063
-7.53855
-7.52963
-7.51346
-7.48984
-7.45876
-7.42042
-7.37519
-7.32355
-7.2661
-7.2037
-7.13768
-7.06998
-7.00379
-6.94451
-6.89957
-6.88389
-6.88804
-6.90371
-6.93401
-6.97859
-7.0316
-7.08798
-7.14469
-7.20233
-7.26008
-7.31931
-7.38108
-7.44515
-7.51148
-7.57924
-7.64769
-7.71602
-7.78349
-7.84951
-7.91358
-7.97537
-8.03467
-8.09139
-8.14549
-8.19703
-8.24605
-8.29265
-8.33693
-8.37899
-8.4189
-8.45674
-8.49255
-8.52634
-8.55814
-8.5879
-8.61559
-8.64113
-8.66445
-8.68544
-8.70399
-8.71997
-8.73327
-8.74374
-8.75124
-8.75564
-8.7568
-8.75459
-8.74888
-8.73953
-8.72642
-8.70944
-8.68848
-8.66342
-8.63415
-8.60059
-8.56263
-8.52017
-8.47314
-8.42144
-8.36499
-8.30372
-8.23756
-8.16643
-8.09029
-8.00907
-7.92272
-7.8312
-7.73448
-7.63251
-7.52528
-7.41274
-7.2949
-7.17173
-7.04324
-6.90941
-6.77023
-6.62568
-6.47574
-6.3204
-6.15963
-5.99338
-5.82163
-5.64433
-5.46142
-5.27283
-5.0785
-4.87832
-4.6722
-4.46002
-4.24168
-4.01702
-3.78592
-3.54819
-3.30367
-3.05213
-2.79336
-2.52711
-2.25313
-1.97116
-1.68093
-1.38217
-1.0746
-0.758011
-0.432184
-0.0969328
0.247908
0.602467
0.966852
1.34112
1.72529
2.1193
2.523
2.93615
3.35833
3.78904
4.22769
4.67363
5.12611
5.58425
6.04707
6.51339
6.9818
7.45085
7.91911
8.38507
8.84721
9.30392
9.75359
10.1946
10.6251
11.0435
11.4483
11.8381
12.2117
12.5679
12.9059
13.2249
13.5244
13.8042
14.0642
14.3051
14.5272
14.7323
14.9204
15.0964
15.2571
15.4159
15.5546
15.712
15.7974
-7.28277
-7.27832
-7.28834
-7.31546
-7.35509
-7.40071
-7.4467
-7.48839
-7.52431
-7.55495
-7.58077
-7.60177
-7.61761
-7.6278
-7.63178
-7.62905
-7.61918
-7.60184
-7.57686
-7.54416
-7.50378
-7.45592
-7.40082
-7.33885
-7.27076
-7.198
-7.12302
-7.04953
-6.98419
-6.93862
-6.92334
-6.92511
-6.94192
-6.97772
-7.02992
-7.09064
-7.15315
-7.21528
-7.27714
-7.33832
-7.39933
-7.46061
-7.52232
-7.58452
-7.64695
-7.70927
-7.77106
-7.83194
-7.89152
-7.94951
-8.00568
-8.05988
-8.11204
-8.16213
-8.21014
-8.25611
-8.3001
-8.34216
-8.38235
-8.42071
-8.45727
-8.49205
-8.52504
-8.55621
-8.58551
-8.61287
-8.63821
-8.66142
-8.68239
-8.70098
-8.71706
-8.7305
-8.74114
-8.74884
-8.75347
-8.75487
-8.75292
-8.74748
-8.73841
-8.7256
-8.70894
-8.68829
-8.66357
-8.63466
-8.60147
-8.56389
-8.52184
-8.47522
-8.42395
-8.36794
-8.30712
-8.24143
-8.17078
-8.09513
-8.0144
-7.92856
-7.83755
-7.74134
-7.63989
-7.53318
-7.42119
-7.3039
-7.1813
-7.05338
-6.92015
-6.78157
-6.63765
-6.48837
-6.33371
-6.17364
-6.00813
-5.83715
-5.66065
-5.47858
-5.29088
-5.09747
-4.89826
-4.69316
-4.48206
-4.26484
-4.04136
-3.81151
-3.5751
-3.33196
-3.08188
-2.82464
-2.56
-2.2877
-2.00748
-1.71906
-1.42217
-1.11653
-0.801912
-0.478091
-0.144892
0.197847
0.550267
0.912484
1.28457
1.66656
2.0584
2.45998
2.87108
3.29127
3.72003
4.15678
4.6009
5.05166
5.50821
5.9696
6.43467
6.90195
7.36997
7.83732
8.30253
8.76408
9.22037
9.6698
10.1107
10.5414
10.96
11.3651
11.7554
12.1296
12.4867
12.8256
13.1456
13.4462
13.7272
13.9886
14.2308
14.4542
14.6605
14.8496
15.0258
15.186
15.3415
15.4738
15.6188
15.6822
-7.28824
-7.29737
-7.32562
-7.36937
-7.419
-7.46792
-7.51311
-7.55427
-7.59142
-7.62421
-7.65219
-7.67485
-7.69173
-7.70238
-7.70637
-7.70332
-7.69294
-7.675
-7.64938
-7.616
-7.57491
-7.52628
-7.47034
-7.40756
-7.33885
-7.26596
-7.19177
-7.12006
-7.05868
-7.02012
-7.00573
-7.00714
-7.02493
-7.06124
-7.11209
-7.17005
-7.23021
-7.29096
-7.35156
-7.41159
-7.47106
-7.53012
-7.58886
-7.64729
-7.70533
-7.7628
-7.8195
-7.87521
-7.92971
-7.98284
-8.03445
-8.08447
-8.13283
-8.17951
-8.22451
-8.26786
-8.30959
-8.34972
-8.38829
-8.4253
-8.46077
-8.49468
-8.52699
-8.55765
-8.58659
-8.61371
-8.63892
-8.66208
-8.68306
-8.70172
-8.71791
-8.73148
-8.74228
-8.75016
-8.75497
-8.75657
-8.75483
-8.74959
-8.74074
-8.72815
-8.71171
-8.69131
-8.66683
-8.63819
-8.60527
-8.56797
-8.52622
-8.47991
-8.42895
-8.37328
-8.31281
-8.24746
-8.17717
-8.10188
-8.02153
-7.93607
-7.84544
-7.74962
-7.64857
-7.54226
-7.43068
-7.31382
-7.19167
-7.06422
-6.93147
-6.7934
-6.65002
-6.50129
-6.34721
-6.18775
-6.02289
-5.8526
-5.67682
-5.49551
-5.30861
-5.11605
-4.91775
-4.71359
-4.50348
-4.2873
-4.06493
-3.83624
-3.60107
-3.35924
-3.11053
-2.85474
-2.5916
-2.32086
-2.04227
-1.75553
-1.46037
-1.15651
-0.843671
-0.521657
-0.190299
0.150562
0.501079
0.861382
1.23156
1.61165
2.00164
2.40143
2.81085
3.22941
3.65656
4.09175
4.5344
4.98378
5.43907
5.89938
6.36354
6.82999
7.29723
7.76391
8.22858
8.68971
9.14571
9.595
10.036
10.4668
10.8857
11.2911
11.6817
12.0565
12.4141
12.7537
13.0745
13.3759
13.6578
13.9201
14.1631
14.3874
14.5941
14.7836
14.9591
15.1178
15.2695
15.3952
15.5291
15.5743
-7.31014
-7.33241
-7.37802
-7.42779
-7.47623
-7.52271
-7.56693
-7.60823
-7.64589
-7.67925
-7.70773
-7.73077
-7.74788
-7.75865
-7.76265
-7.75957
-7.74924
-7.73145
-7.70605
-7.67293
-7.63221
-7.58427
-7.52955
-7.46861
-7.40257
-7.3334
-7.26414
-7.19928
-7.14649
-7.11507
-7.10262
-7.10435
-7.12149
-7.15499
-7.20048
-7.25218
-7.30699
-7.36334
-7.42021
-7.47697
-7.53339
-7.58937
-7.64485
-7.69978
-7.75408
-7.80763
-7.8603
-7.91197
-7.96252
-8.01185
-8.0599
-8.10661
-8.15196
-8.19593
-8.23854
-8.2798
-8.31972
-8.35833
-8.39562
-8.4316
-8.46625
-8.49952
-8.53136
-8.56169
-8.59042
-8.61744
-8.64261
-8.6658
-8.68686
-8.70563
-8.72195
-8.73566
-8.7466
-8.75463
-8.75959
-8.76135
-8.75974
-8.75465
-8.74594
-8.7335
-8.7172
-8.69695
-8.67263
-8.64416
-8.61141
-8.57431
-8.53275
-8.48665
-8.43591
-8.38046
-8.32022
-8.25511
-8.18507
-8.11004
-8.02995
-7.94475
-7.85439
-7.75885
-7.65808
-7.55207
-7.4408
-7.32426
-7.20246
-7.07538
-6.94301
-6.80537
-6.66242
-6.51417
-6.3606
-6.20168
-6.0374
-5.86772
-5.6926
-5.512
-5.32585
-5.13408
-4.93662
-4.73336
-4.52419
-4.309
-4.08768
-3.86011
-3.62613
-3.38556
-3.13818
-2.88376
-2.62207
-2.35284
-2.07579
-1.79065
-1.49713
-1.19493
-0.883764
-0.56342
-0.233764
0.105361
0.454124
0.812672
1.18111
1.55948
1.94781
2.34603
2.754
3.17116
3.59689
4.03072
4.47207
4.92026
5.37448
5.8339
6.29738
6.76314
7.22965
7.69567
8.1598
8.62049
9.07617
9.52525
9.96624
10.3973
10.8164
11.2219
11.6128
11.9878
12.3458
12.6858
13.0071
13.309
13.5914
13.8542
14.0977
14.3223
14.529
14.7182
14.8926
15.0493
15.1969
15.3159
15.4404
15.4707
-7.37202
-7.3978
-7.43807
-7.47964
-7.52189
-7.5642
-7.60554
-7.64491
-7.6814
-7.71415
-7.74246
-7.76557
-7.78306
-7.79458
-7.79943
-7.79702
-7.78711
-7.76969
-7.74478
-7.71251
-7.67314
-7.62702
-7.57468
-7.51705
-7.45548
-7.39203
-7.32979
-7.27337
-7.23003
-7.20466
-7.19383
-7.19556
-7.21132
-7.24093
-7.28031
-7.32565
-7.37473
-7.42603
-7.47849
-7.53142
-7.5844
-7.63717
-7.68954
-7.74139
-7.79258
-7.84301
-7.89257
-7.94118
-7.98877
-8.03528
-8.08069
-8.12496
-8.16809
-8.21008
-8.25095
-8.29071
-8.32937
-8.36693
-8.40338
-8.4387
-8.47285
-8.50577
-8.53739
-8.56762
-8.59633
-8.62339
-8.64866
-8.67198
-8.69318
-8.7121
-8.72856
-8.74241
-8.75349
-8.76163
-8.7667
-8.76855
-8.76703
-8.76201
-8.75336
-8.74098
-8.72474
-8.70455
-8.6803
-8.6519
-8.61925
-8.58224
-8.54079
-8.49479
-8.44417
-8.38884
-8.32873
-8.26376
-8.19387
-8.11898
-8.03904
-7.95401
-7.86383
-7.76846
-7.66787
-7.56205
-7.45099
-7.3347
-7.21315
-7.08636
-6.95431
-6.817
-6.67444
-6.5266
-6.37347
-6.21504
-6.05128
-5.88217
-5.70766
-5.52772
-5.34228
-5.15128
-4.95463
-4.75223
-4.54396
-4.32972
-4.10943
-3.88296
-3.65014
-3.4108
-3.16471
-2.91165
-2.65136
-2.38359
-2.10805
-1.82446
-1.53252
-1.23192
-0.922318
-0.603539
-0.27549
0.0619904
0.409094
0.765984
1.13278
1.50954
1.89631
2.29308
2.69979
3.1157
3.54009
3.9726
4.41269
4.8597
5.31287
5.77149
6.23454
6.69977
7.16554
7.63088
8.09441
8.5546
9.00986
9.45862
9.89949
10.3309
10.7504
11.1563
11.5476
11.923
12.2813
12.6216
12.943
13.245
13.5274
13.7901
14.0333
14.2574
14.4635
14.6515
14.8242
14.9782
15.1217
15.2343
15.3508
15.3694
-7.42457
-7.44498
-7.47508
-7.50907
-7.54567
-7.58363
-7.62174
-7.65887
-7.69396
-7.72627
-7.75521
-7.77951
-7.79793
-7.80999
-7.81539
-7.81361
-7.80429
-7.78744
-7.76336
-7.73233
-7.69467
-7.65092
-7.60184
-7.54837
-7.492
-7.43492
-7.38026
-7.33261
-7.29765
-7.27648
-7.26675
-7.26851
-7.2829
-7.3088
-7.3431
-7.38325
-7.42744
-7.47429
-7.5228
-7.57226
-7.62217
-7.67216
-7.72195
-7.77134
-7.82016
-7.86828
-7.91561
-7.96208
-8.00764
-8.05225
-8.0959
-8.13857
-8.18028
-8.22104
-8.26086
-8.29975
-8.3377
-8.37472
-8.41079
-8.44586
-8.47988
-8.51279
-8.54447
-8.57482
-8.60371
-8.63098
-8.65647
-8.68
-8.70141
-8.72051
-8.73713
-8.75109
-8.76226
-8.77047
-8.77558
-8.77745
-8.77593
-8.7709
-8.76222
-8.74979
-8.73351
-8.71329
-8.68903
-8.66063
-8.62798
-8.59099
-8.54955
-8.50358
-8.45298
-8.39769
-8.33761
-8.27269
-8.20284
-8.12802
-8.04815
-7.96318
-7.87307
-7.77779
-7.67728
-7.57157
-7.46064
-7.3445
-7.22315
-7.09657
-6.96478
-6.82776
-6.68552
-6.53804
-6.38532
-6.22733
-6.06406
-5.89548
-5.72155
-5.54224
-5.3575
-5.16724
-4.97139
-4.76984
-4.56245
-4.34914
-4.12985
-3.90446
-3.67281
-3.43469
-3.18988
-2.93816
-2.67926
-2.41293
-2.13887
-1.8568
-1.5664
-1.26734
-0.959234
-0.64192
-0.315415
0.020453
0.365928
0.72119
1.08637
1.46155
1.84677
2.24214
2.64786
3.06277
3.48586
3.91707
4.35592
4.80175
5.25385
5.71166
6.17447
6.6398
7.10548
7.57084
8.03449
8.49484
8.95028
9.3992
9.83998
10.271
10.6906
11.0972
11.4891
11.8651
12.2239
12.5644
12.8858
13.1877
13.4697
13.7318
13.9741
14.1971
14.4015
14.5875
14.7574
14.9076
15.046
15.1517
15.2605
15.27
-7.43977
-7.4559
-7.48037
-7.50959
-7.54206
-7.57649
-7.61187
-7.64776
-7.68328
-7.71652
-7.74597
-7.77084
-7.79005
-7.80273
-7.80852
-7.80711
-7.79838
-7.78244
-7.75963
-7.73035
-7.69503
-7.65418
-7.60858
-7.55938
-7.50826
-7.45745
-7.41005
-7.37028
-7.34134
-7.32284
-7.31425
-7.31645
-7.32991
-7.35322
-7.38413
-7.42073
-7.46145
-7.50508
-7.5507
-7.59761
-7.64528
-7.69327
-7.74126
-7.78901
-7.8363
-7.88298
-7.92898
-7.97422
-8.01865
-8.06224
-8.105
-8.14691
-8.18799
-8.22825
-8.2677
-8.30635
-8.34419
-8.3812
-8.41736
-8.4526
-8.48686
-8.52006
-8.55209
-8.58281
-8.61205
-8.63966
-8.66546
-8.68926
-8.71088
-8.73012
-8.74683
-8.76085
-8.77204
-8.78025
-8.78533
-8.78715
-8.78555
-8.78041
-8.7716
-8.75903
-8.74263
-8.7223
-8.69794
-8.66946
-8.63674
-8.59968
-8.55817
-8.51213
-8.46147
-8.40612
-8.346
-8.28104
-8.21117
-8.13631
-8.05642
-7.97144
-7.88133
-7.78604
-7.68555
-7.57986
-7.469
-7.35297
-7.23175
-7.10536
-6.97378
-6.83701
-6.69506
-6.54791
-6.39556
-6.23799
-6.07518
-5.90711
-5.73376
-5.55507
-5.371
-5.18149
-4.98644
-4.78573
-4.5792
-4.36678
-4.14849
-3.9242
-3.69372
-3.45684
-3.21333
-2.96295
-2.70545
-2.44055
-2.16798
-1.88743
-1.59859
-1.30106
-0.994313
-0.678273
-0.353205
-0.0189155
0.324962
0.678635
1.04224
1.41585
1.79954
2.19351
2.59839
3.01282
3.43518
3.86575
4.30408
4.74945
5.20113
5.65822
6.11961
6.58415
7.05024
7.5164
7.98091
8.4421
8.89832
9.34788
9.78887
10.2195
10.6389
11.0455
11.4376
11.8135
12.1722
12.5125
12.8336
13.1351
13.4165
13.6777
13.919
14.1405
14.3431
14.5266
14.693
14.8386
14.9711
15.0692
15.1699
15.1724
-7.41344
-7.42705
-7.44986
-7.47763
-7.50832
-7.54116
-7.57627
-7.61286
-7.64896
-7.68288
-7.71299
-7.73816
-7.75764
-7.77089
-7.77747
-7.77709
-7.76958
-7.75518
-7.73422
-7.70703
-7.67402
-7.63584
-7.59345
-7.54816
-7.50175
-7.45652
-7.41547
-7.38174
-7.35666
-7.34024
-7.3332
-7.33646
-7.34989
-7.37214
-7.40146
-7.43622
-7.47508
-7.51694
-7.56098
-7.60651
-7.653
-7.7
-7.74714
-7.79416
-7.84082
-7.887
-7.93259
-7.9775
-8.0217
-8.06516
-8.10787
-8.14982
-8.19103
-8.23151
-8.27126
-8.31028
-8.34858
-8.3861
-8.4228
-8.4586
-8.49342
-8.52717
-8.55973
-8.59095
-8.62067
-8.64872
-8.67488
-8.69897
-8.72077
-8.74011
-8.75683
-8.77081
-8.78193
-8.79003
-8.79499
-8.79666
-8.79488
-8.78952
-8.78047
-8.76765
-8.75102
-8.73048
-8.70595
-8.6773
-8.64443
-8.60722
-8.56556
-8.51936
-8.46856
-8.41307
-8.35284
-8.28777
-8.2178
-8.14285
-8.06288
-7.97784
-7.88767
-7.79232
-7.69176
-7.58604
-7.47521
-7.35926
-7.23817
-7.11193
-6.98055
-6.84403
-6.70236
-6.55554
-6.40356
-6.24641
-6.08407
-5.91652
-5.74373
-5.56568
-5.38231
-5.19356
-4.99934
-4.79948
-4.59374
-4.3821
-4.16477
-3.9416
-3.71231
-3.47668
-3.23447
-2.98543
-2.72931
-2.46584
-2.19474
-1.9157
-1.62842
-1.33242
-1.02696
-0.711944
-0.387981
-0.0549149
0.28779
0.640361
1.00293
1.37554
1.75822
2.15103
2.55378
2.96631
3.38804
3.8185
4.25693
4.70251
5.15433
5.61104
6.07107
6.53436
7.00019
7.46626
7.9307
8.39178
8.84779
9.29702
9.7377
10.1681
10.587
10.9928
11.3839
11.7588
12.1164
12.4557
12.7758
13.0762
13.3565
13.6165
13.8564
14.0763
14.2768
14.4576
14.6207
14.7618
14.8888
14.9802
15.0736
15.0718
-7.35068
-7.364
-7.38813
-7.41689
-7.44773
-7.48098
-7.51668
-7.55384
-7.59068
-7.62502
-7.65562
-7.68161
-7.70225
-7.71689
-7.72503
-7.72616
-7.72028
-7.7076
-7.68833
-7.66286
-7.6317
-7.59565
-7.55583
-7.51372
-7.47122
-7.43063
-7.39448
-7.36476
-7.34243
-7.32833
-7.32356
-7.32871
-7.34327
-7.36596
-7.39529
-7.42982
-7.46834
-7.50987
-7.55364
-7.599
-7.64543
-7.69247
-7.73977
-7.78703
-7.83404
-7.88065
-7.92675
-7.97225
-8.01711
-8.06129
-8.10479
-8.14759
-8.18967
-8.23104
-8.27169
-8.31161
-8.35079
-8.38919
-8.42675
-8.4634
-8.49904
-8.53356
-8.56682
-8.59868
-8.62896
-8.65747
-8.68401
-8.70834
-8.73024
-8.74955
-8.76613
-8.77989
-8.79074
-8.79856
-8.80324
-8.80462
-8.80254
-8.79682
-8.78735
-8.77414
-8.75717
-8.73634
-8.71157
-8.68271
-8.64964
-8.61223
-8.57035
-8.52395
-8.47295
-8.41729
-8.35689
-8.29169
-8.22159
-8.14654
-8.06646
-7.98133
-7.89109
-7.79564
-7.6949
-7.58905
-7.47825
-7.36239
-7.24143
-7.11537
-6.9842
-6.84793
-6.70656
-6.56009
-6.4085
-6.25179
-6.08994
-5.92292
-5.75073
-5.57333
-5.39069
-5.20274
-5.0094
-4.81044
-4.60544
-4.39445
-4.17794
-3.95576
-3.72751
-3.49294
-3.2518
-3.00385
-2.74883
-2.48649
-2.21654
-1.93869
-1.65266
-1.35805
-1.05449
-0.741666
-0.419378
-0.0874183
0.254424
0.606275
0.968218
1.34026
1.72234
2.11426
2.51502
2.92536
3.34597
3.77558
4.21327
4.65815
5.10923
5.56534
6.02513
6.48783
6.95249
7.41716
7.88013
8.33971
8.79415
9.24177
9.68093
10.11
10.5274
10.9315
11.321
11.6943
12.0502
12.3879
12.7064
13.0051
13.2837
13.5419
13.7798
13.9975
14.1955
14.3733
14.5329
14.6696
14.7918
14.8777
14.9647
14.9609
-7.25877
-7.27381
-7.30119
-7.3322
-7.36348
-7.39714
-7.43401
-7.47239
-7.51016
-7.54575
-7.57797
-7.6058
-7.62839
-7.64497
-7.65492
-7.65772
-7.65333
-7.64196
-7.6239
-7.5995
-7.56943
-7.53467
-7.49651
-7.45667
-7.41716
-7.38004
-7.34724
-7.32039
-7.30079
-7.28968
-7.28801
-7.29591
-7.31267
-7.33705
-7.36766
-7.40324
-7.44267
-7.48506
-7.52969
-7.57596
-7.62337
-7.67149
-7.71995
-7.76846
-7.8168
-7.86478
-7.91229
-7.95924
-8.00557
-8.05124
-8.09622
-8.1405
-8.18404
-8.22685
-8.26892
-8.3102
-8.35068
-8.39029
-8.42899
-8.46671
-8.50333
-8.53874
-8.57279
-8.60532
-8.63613
-8.66502
-8.69175
-8.71609
-8.73782
-8.75676
-8.77286
-8.7861
-8.79643
-8.80377
-8.80801
-8.809
-8.80649
-8.80024
-8.79012
-8.77632
-8.75893
-8.73783
-8.71284
-8.68381
-8.65056
-8.61293
-8.57082
-8.52418
-8.47297
-8.41715
-8.35663
-8.29132
-8.22114
-8.14598
-8.06582
-7.98063
-7.89036
-7.79483
-7.6938
-7.5877
-7.47689
-7.36111
-7.24024
-7.11429
-6.98327
-6.8472
-6.70606
-6.55986
-6.40858
-6.25222
-6.09074
-5.92414
-5.75242
-5.57554
-5.3935
-5.20623
-5.01367
-4.81569
-4.6121
-4.40278
-4.18762
-3.96647
-3.73915
-3.50545
-3.26516
-3.01804
-2.76386
-2.50236
-2.23327
-1.95631
-1.67125
-1.37782
-1.07605
-0.765469
-0.445003
-0.114387
0.226246
0.576946
0.937739
1.3086
1.6895
2.08028
2.48041
2.89002
3.30936
3.7375
4.17359
4.61679
5.06618
5.52075
5.97928
6.4406
6.90345
7.36614
7.82703
8.28443
8.73667
9.18208
9.61903
10.0459
10.4611
10.863
11.2502
11.6213
11.9751
12.3105
12.6267
12.9231
13.1992
13.455
13.6903
13.9051
14.1001
14.2744
14.4302
14.5626
14.6799
14.761
14.8418
14.8375
-7.14687
-7.1649
-7.19654
-7.22922
-7.26054
-7.29513
-7.33361
-7.37372
-7.41352
-7.45142
-7.48608
-7.51635
-7.54129
-7.56009
-7.57176
-7.57589
-7.5725
-7.56173
-7.54392
-7.51957
-7.48955
-7.45507
-7.41781
-7.37965
-7.34232
-7.30754
-7.27722
-7.25319
-7.23687
-7.2294
-7.23138
-7.24259
-7.26218
-7.28897
-7.3217
-7.35921
-7.4005
-7.44471
-7.49116
-7.53928
-7.5886
-7.63868
-7.68916
-7.73974
-7.79019
-7.84033
-7.89002
-7.93917
-7.98768
-8.0355
-8.08258
-8.12889
-8.1744
-8.2191
-8.26295
-8.30594
-8.34799
-8.38904
-8.42902
-8.46785
-8.5054
-8.54155
-8.57614
-8.60902
-8.64001
-8.66891
-8.69546
-8.71942
-8.74051
-8.75855
-8.77366
-8.78604
-8.79562
-8.80235
-8.80613
-8.80674
-8.80386
-8.79694
-8.78578
-8.77105
-8.75314
-8.73176
-8.7066
-8.67743
-8.64402
-8.60614
-8.56368
-8.51671
-8.46525
-8.40924
-8.3486
-8.2832
-8.21292
-8.13764
-8.05735
-7.97212
-7.88196
-7.7868
-7.68656
-7.58122
-7.47078
-7.35517
-7.23443
-7.10858
-6.97768
-6.84172
-6.70073
-6.55469
-6.40361
-6.24747
-6.08624
-5.91994
-5.74855
-5.57207
-5.39048
-5.20375
-5.01185
-4.81474
-4.61254
-4.40492
-4.19115
-3.97111
-3.74482
-3.51213
-3.27285
-3.02675
-2.7736
-2.51315
-2.24515
-1.96933
-1.68542
-1.39319
-1.09246
-0.782788
-0.463446
-0.13419
0.204991
0.554178
0.913421
1.28273
1.66206
2.05131
2.45023
2.85869
3.27653
3.70301
4.13729
4.57856
5.02594
5.47842
5.93481
6.39394
6.85446
7.31475
7.77314
8.22796
8.67755
9.12025
9.55441
9.97844
10.3908
10.7899
11.1742
11.5423
11.8931
12.2255
12.5387
12.8321
13.1051
13.3576
13.5896
13.801
13.9924
14.1628
14.3143
14.4422
14.5545
14.6312
14.7055
14.7017
-7.02005
-7.04198
-7.07684
-7.10978
-7.14218
-7.17884
-7.21958
-7.26215
-7.30461
-7.3453
-7.38276
-7.41574
-7.44319
-7.46383
-7.47669
-7.48145
-7.47823
-7.46732
-7.44902
-7.4241
-7.39374
-7.3595
-7.32307
-7.28602
-7.24995
-7.21697
-7.18927
-7.16852
-7.15594
-7.15239
-7.1581
-7.17267
-7.19523
-7.22469
-7.25991
-7.29983
-7.34351
-7.39016
-7.43914
-7.48986
-7.5418
-7.59454
-7.64772
-7.70105
-7.7543
-7.80727
-7.8598
-7.91177
-7.96306
-8.0136
-8.0633
-8.11212
-8.15999
-8.20688
-8.25275
-8.29753
-8.34114
-8.38348
-8.42447
-8.46404
-8.50207
-8.53844
-8.57304
-8.60574
-8.63638
-8.66479
-8.6907
-8.71371
-8.7334
-8.74945
-8.76248
-8.77323
-8.78155
-8.78731
-8.79047
-8.79085
-8.78815
-8.78186
-8.77158
-8.75738
-8.73951
-8.71796
-8.69258
-8.66317
-8.62947
-8.59124
-8.5484
-8.50104
-8.44927
-8.39299
-8.33211
-8.26651
-8.19604
-8.12057
-8.04015
-7.95488
-7.86485
-7.77013
-7.6708
-7.56637