/*--------------------------------*- C++ -*----------------------------------*\
| =========                 |                                                 |
| \\      /  F ield         | OpenFOAM: The Open Source CFD Toolbox           |
|  \\    /   O peration     | Version:  2112                                  |
|   \\  /    A nd           | Website:  www.openfoam.com                      |
|    \\/     M anipulation  |                                                 |
\*---------------------------------------------------------------------------*/
FoamFile
{
    version     2.0;
    format      ascii;
    arch        "LSB;label=32;scalar=64";
    class       volScalarField;
    location    "0.074";
    object      k_0;
}
// * * * * * * * * * * * * * * * * * * * * * * * * * * * * * * * * * * * * * //

dimensions      [0 2 -2 0 0 0 0];

internalField   nonuniform List<scalar> 
12225
(
2.12236e-05
3.34168e-05
0.000146318
0.000473673
0.000617713
0.000623006
0.000529947
0.000313705
0.000183977
0.000113577
7.42098e-05
5.03473e-05
3.52783e-05
3.99857e-05
4.9791e-05
5.17549e-05
4.25031e-05
6.75589e-05
2.00111e-05
2.15629e-05
3.21713e-05
7.60608e-05
0.000135029
0.000156184
0.000154545
0.000133846
9.45578e-05
6.89268e-05
5.26334e-05
4.25502e-05
3.60532e-05
3.38426e-05
3.15104e-05
2.99821e-05
2.63975e-05
2.71207e-05
2.00225e-05
1.82599e-05
1.83424e-05
1.90614e-05
2.09379e-05
2.36885e-05
2.44905e-05
2.41855e-05
2.29288e-05
2.16578e-05
2.07707e-05
2.02365e-05
1.99468e-05
1.9577e-05
1.92105e-05
1.89469e-05
1.8715e-05
1.85862e-05
2.00142e-05
1.99797e-05
1.99022e-05
1.97119e-05
1.88089e-05
1.42356e-05
1.35771e-05
1.60041e-05
1.79833e-05
1.86103e-05
1.89087e-05
1.92902e-05
1.96579e-05
1.99128e-05
2.00494e-05
2.013e-05
2.01412e-05
1.9584e-05
2.0328e-05
2.03669e-05
2.06916e-05
2.07888e-05
2.07377e-05
2.0339e-05
2.0138e-05
2.01766e-05
2.02766e-05
2.04504e-05
2.09026e-05
2.24327e-05
2.84852e-05
3.63335e-05
4.00674e-05
4.08568e-05
4.04104e-05
3.74451e-05
2.19567e-05
2.13555e-05
2.12004e-05
2.10564e-05
2.09951e-05
2.09469e-05
2.08943e-05
2.08882e-05
2.09433e-05
2.13086e-05
2.29044e-05
2.99431e-05
4.04081e-05
4.54135e-05
4.64815e-05
4.60073e-05
4.19054e-05
3.48865e-05
3.12246e-05
2.74262e-05
2.19921e-05
2.09482e-05
2.07824e-05
2.07872e-05
2.08877e-05
2.12755e-05
2.16246e-05
2.19378e-05
2.25292e-05
2.39995e-05
2.53113e-05
2.59124e-05
2.60023e-05
2.58934e-05
2.51762e-05
2.39148e-05
2.2784e-05
2.14713e-05
2.07957e-05
2.06567e-05
2.06517e-05
2.07978e-05
2.16852e-05
2.58062e-05
2.94252e-05
2.96855e-05
2.89579e-05
2.64937e-05
2.45666e-05
2.33367e-05
2.25432e-05
2.20407e-05
2.17666e-05
2.16764e-05
2.02507e-05
2.06003e-05
2.20555e-05
2.22488e-05
2.21555e-05
2.26659e-05
2.52734e-05
3.30997e-05
3.98696e-05
4.17406e-05
4.05961e-05
3.40994e-05
2.78287e-05
2.45136e-05
2.28875e-05
2.21976e-05
2.19904e-05
2.19813e-05
2.06114e-05
2.12793e-05
2.51779e-05
2.67694e-05
2.65404e-05
2.58172e-05
2.58651e-05
2.75968e-05
3.31812e-05
3.42859e-05
3.30013e-05
2.85168e-05
2.51167e-05
2.32671e-05
2.23462e-05
2.19548e-05
2.18383e-05
2.18182e-05
2.15315e-05
2.14109e-05
2.46478e-05
2.60033e-05
2.59864e-05
2.49301e-05
2.41416e-05
2.42769e-05
2.61729e-05
2.79979e-05
2.81137e-05
2.76064e-05
2.60296e-05
2.49782e-05
2.43732e-05
2.4117e-05
2.39973e-05
2.36616e-05
2.00207e-05
2.06949e-05
2.34552e-05
2.47288e-05
2.46317e-05
2.36273e-05
2.33518e-05
2.39337e-05
2.77594e-05
3.24648e-05
3.40839e-05
3.4168e-05
3.31717e-05
3.10378e-05
2.98738e-05
2.94998e-05
2.93361e-05
2.89215e-05
2.02429e-05
2.41167e-05
2.4931e-05
2.41358e-05
2.26429e-05
2.21729e-05
2.23021e-05
2.36969e-05
2.96455e-05
3.46261e-05
3.60391e-05
3.59615e-05
3.43177e-05
3.07208e-05
2.91673e-05
2.87159e-05
2.84991e-05
2.79083e-05
2.14387e-05
2.2422e-05
2.18386e-05
2.08037e-05
2.06437e-05
2.08587e-05
2.21075e-05
2.39087e-05
2.48872e-05
2.5204e-05
2.52074e-05
2.4932e-05
2.44635e-05
2.43277e-05
2.44e-05
2.53166e-05
2.86142e-05
3.04076e-05
2.2151e-05
2.55982e-05
2.49445e-05
2.19753e-05
2.08806e-05
2.08705e-05
2.16888e-05
2.3545e-05
2.44323e-05
2.4618e-05
2.45228e-05
2.37955e-05
2.25627e-05
2.1837e-05
2.15253e-05
2.14758e-05
2.16408e-05
2.21712e-05
2.1493e-05
2.12884e-05
2.10564e-05
2.08984e-05
2.05872e-05
2.05747e-05
2.08906e-05
2.2223e-05
2.33096e-05
2.37005e-05
2.37482e-05
2.36559e-05
2.3231e-05
2.29506e-05
2.28967e-05
2.29405e-05
2.33075e-05
2.47008e-05
2.89809e-05
2.31606e-05
2.08508e-05
2.0962e-05
2.14323e-05
2.15626e-05
2.15534e-05
2.15144e-05
2.15179e-05
2.15791e-05
2.18598e-05
2.27802e-05
2.53472e-05
2.78211e-05
2.91573e-05
2.94112e-05
2.91188e-05
2.88481e-05
2.08077e-05
2.03885e-05
2.02573e-05
2.05385e-05
2.05965e-05
2.05702e-05
2.06018e-05
2.07408e-05
2.11106e-05
2.21608e-05
2.60315e-05
3.49882e-05
4.09761e-05
4.31622e-05
4.31265e-05
4.03413e-05
3.24153e-05
2.72323e-05
2.01814e-05
2.03892e-05
2.09317e-05
2.11668e-05
2.1136e-05
2.10543e-05
2.10505e-05
2.1079e-05
2.11688e-05
2.14331e-05
2.24878e-05
2.50798e-05
2.70527e-05
2.8202e-05
2.86806e-05
2.87463e-05
2.85032e-05
2.71322e-05
2.03304e-05
2.20645e-05
2.33086e-05
2.36682e-05
2.37064e-05
2.32709e-05
2.22318e-05
2.15971e-05
2.14441e-05
2.15067e-05
2.2003e-05
2.35661e-05
2.47178e-05
2.52175e-05
2.53856e-05
2.54356e-05
2.50672e-05
2.4201e-05
2.0251e-05
2.32079e-05
2.41804e-05
2.35478e-05
2.21503e-05
2.1801e-05
2.1331e-05
2.08198e-05
2.06881e-05
2.07374e-05
2.11955e-05
2.28245e-05
2.41078e-05
2.46469e-05
2.47555e-05
2.47017e-05
2.42719e-05
2.35351e-05
2.00074e-05
2.01924e-05
2.06456e-05
2.0866e-05
2.09393e-05
2.09914e-05
2.09758e-05
2.0831e-05
2.08183e-05
2.1023e-05
2.22796e-05
2.74067e-05
3.15437e-05
3.21279e-05
3.13784e-05
2.88276e-05
2.68115e-05
2.5757e-05
2.00375e-05
2.01694e-05
2.06757e-05
2.08696e-05
2.08587e-05
2.07157e-05
2.06048e-05
2.05819e-05
2.06016e-05
2.07543e-05
2.13849e-05
2.3494e-05
2.57352e-05
2.6881e-05
2.70924e-05
2.68503e-05
2.54885e-05
2.4054e-05
2.01781e-05
2.09903e-05
2.13246e-05
2.1291e-05
2.08916e-05
2.05879e-05
2.0558e-05
2.06304e-05
2.0874e-05
2.13788e-05
2.25821e-05
2.61201e-05
2.8876e-05
2.94523e-05
2.86683e-05
2.53979e-05
2.30332e-05
2.18591e-05
2.13732e-05
2.0823e-05
2.06193e-05
2.03698e-05
2.02025e-05
2.01593e-05
2.01694e-05
2.02753e-05
2.0784e-05
2.22994e-05
2.33541e-05
2.35457e-05
2.33778e-05
2.26425e-05
2.19426e-05
2.15317e-05
2.13239e-05
2.12552e-05
2.01919e-05
2.15653e-05
2.27778e-05
2.26458e-05
2.12982e-05
2.07191e-05
2.06839e-05
2.11012e-05
2.33903e-05
2.49269e-05
2.49733e-05
2.42458e-05
2.28821e-05
2.21005e-05
2.17249e-05
2.15963e-05
2.15877e-05
2.16909e-05
2.02049e-05
2.03226e-05
2.01614e-05
1.99003e-05
1.97772e-05
1.95163e-05
1.83707e-05
1.50223e-05
1.43284e-05
1.5155e-05
1.64826e-05
1.70799e-05
1.73613e-05
1.75256e-05
1.7607e-05
1.76217e-05
1.75902e-05
1.74614e-05
2.00003e-05
1.24362e-05
6.69737e-06
8.24482e-06
1.28266e-05
1.48622e-05
1.49693e-05
1.37728e-05
1.11503e-05
9.99229e-06
9.76425e-06
9.87485e-06
1.07724e-05
1.24819e-05
1.35675e-05
1.41183e-05
1.44063e-05
1.45235e-05
2.00793e-05
2.0362e-05
2.15177e-05
2.54183e-05
3.00606e-05
3.17505e-05
3.23256e-05
3.35335e-05
3.45482e-05
3.45893e-05
3.38082e-05
3.09146e-05
2.70554e-05
2.41602e-05
2.22578e-05
2.11151e-05
2.04651e-05
2.01309e-05
4.26607e-05
4.61747e-05
6.24409e-05
7.15666e-05
8.44038e-05
0.000102912
0.000115839
0.000119586
0.000118608
0.000108693
7.67474e-05
5.03391e-05
3.47568e-05
2.62399e-05
2.18774e-05
1.97831e-05
1.88529e-05
1.85091e-05
0.114757
0.137714
0.127335
0.123063
0.127124
0.127324
0.122229
0.119458
0.127656
0.127958
0.124414
0.11421
0.103777
0.0960821
0.0906599
0.0863241
0.0828774
0.0807145
0.0788861
0.0775959
0.0765352
0.0760095
0.0760277
0.0761252
0.0764931
0.0774424
0.0787282
0.080232
0.0828761
0.084107
0.0839461
0.0829875
0.0784098
0.0767755
0.0854842
0.117794
0.137366
0.145709
0.149805
0.151756
0.153112
0.154806
0.157003
0.156893
0.157658
0.160771
0.163802
0.161898
0.162404
0.200992
0.408226
0.513388
0.475269
0.307401
0.213439
0.197336
0.204011
0.238957
0.302709
0.289921
0.255386
0.186523
0.15688
0.150776
0.148448
0.145021
0.135332
0.115056
0.0813081
0.0523336
0.045836
0.0453509
0.0470921
0.0521179
0.0597673
0.0685605
0.0774268
0.0871403
0.100102
0.118079
0.128258
0.129938
0.128582
0.12183
0.112187
0.104257
0.0982519
0.0929498
0.0866667
0.0765362
0.070057
0.0714875
0.0752026
0.0716259
0.0643834
0.0625624
0.0616609
0.0593254
0.0549117
0.0532325
0.0518463
0.0513121
0.0515206
0.0529647
0.0536063
0.0540623
0.0546407
0.0549332
0.0551056
0.0551977
0.0552391
0.0551231
0.05475
0.0544083
0.054059
0.0534304
0.0527055
0.051886
0.050739
0.0493549
0.0479585
0.0466261
0.0454169
0.0445316
0.0435609
0.0427997
0.0423872
0.0417547
0.0412099
0.0407792
0.0403026
0.0397955
0.0390974
0.0382349
0.037314
0.0363928
0.0355846
0.0350744
0.0349473
0.0350607
0.0353941
0.035749
0.0361567
0.0365471
0.0367193
0.0367569
0.0367917
0.0366276
0.0358833
0.0339946
0.0332472
0.0329916
0.0308318
0.0186671
0.0101485
0.010076
0.0121198
0.0134199
0.0134741
0.0131358
0.0130344
0.0131877
0.0138088
0.0142819
0.0145801
0.0147327
0.0146809
0.0142451
0.0138926
0.013913
0.014618
0.0182385
0.0315533
0.0462292
0.0763219
0.12366
0.146596
0.12068
0.029649
0.0075211
0.0952957
0.102809
0.104767
0.129599
0.143746
0.139878
0.129579
0.110736
0.0894069
0.0717192
0.0625791
0.0568745
0.0533012
0.0516182
0.0504579
0.0497614
0.0492765
0.0489537
0.0486588
0.0483596
0.0480479
0.0477056
0.047384
0.0473838
0.0475721
0.048075
0.0491303
0.0511218
0.0530372
0.0555994
0.0605037
0.0670254
0.0700144
0.0711518
0.0736951
0.0820371
0.0894089
0.0942246
0.107959
0.119053
0.118396
0.105621
0.0990632
0.10256
0.117746
0.13551
0.142491
0.146641
0.153819
0.190397
0.365553
0.430881
0.351482
0.226732
0.201974
0.205137
0.222422
0.232467
0.217471
0.136786
0.10648
0.0822479
0.0762049
0.0755535
0.0777944
0.078263
0.0765004
0.0726495
0.0712157
0.0716163
0.0767973
0.0784919
0.0791481
0.0794377
0.079513
0.0793084
0.0788404
0.0785305
0.0784733
0.0786308
0.0789731
0.0791016
0.0791425
0.0794538
0.0800296
0.0800738
0.0798583
0.0790761
0.0771206
0.0739243
0.0716026
0.0703746
0.0675575
0.062917
0.0615809
0.0612906
0.0612709
0.0615866
0.0630224
0.0659011
0.0673769
0.0682632
0.0698188
0.0711038
0.0716302
0.0721531
0.0726254
0.0728024
0.0728811
0.072898
0.0728107
0.0724399
0.0717969
0.0710634
0.0702033
0.0690847
0.0677975
0.0665
0.0651285
0.0636467
0.062147
0.0603413
0.0577114
0.0544039
0.0508698
0.047554
0.045255
0.0438424
0.0426992
0.0420249
0.0415682
0.0410644
0.0401449
0.038639
0.0368992
0.0350492
0.0329856
0.0305974
0.027964
0.0256279
0.0243687
0.0243161
0.0253073
0.0289692
0.0341965
0.0376705
0.0381972
0.0368821
0.0303329
0.0246161
0.0237473
0.0273108
0.0320226
0.0320593
0.0310772
0.0272702
0.0198667
0.0154947
0.0135722
0.0127975
0.0124429
0.0122081
0.0120198
0.0117419
0.0113751
0.0111484
0.0109749
0.0106105
0.0103555
0.0103145
0.0101919
0.00994538
0.0100692
0.0118039
0.0177552
0.0371492
0.120464
0.153193
0.131632
0.110728
0.100945
0.109654
0.146405
0.156684
0.143789
0.112836
0.0789443
0.0579585
0.0490107
0.0475709
0.0476979
0.0483271
0.0496645
0.0513416
0.0529454
0.0547886
0.0566238
0.0580251
0.0578811
0.0570218
0.0550678
0.0514915
0.0476729
0.0447409
0.0424304
0.0414825
0.0414705
0.0417148
0.0423184
0.0435511
0.0463281
0.0483117
0.0520358
0.0558002
0.0572255
0.0595319
0.0625405
0.0636317
0.0648717
0.0689052
0.0696599
0.0711486
0.0776145
0.094375
0.131591
0.181159
0.198216
0.194434
0.205765
0.287014
0.330947
0.256484
0.190543
0.181966
0.184601
0.184259
0.173113
0.113168
0.0665404
0.0515276
0.046832
0.0455162
0.0470875
0.0522064
0.0547585
0.0568925
0.0601514
0.0623412
0.0652098
0.0692068
0.0718447
0.0723151
0.0722772
0.0722114
0.0721509
0.0720861
0.0718644
0.0714115
0.0711939
0.0711735
0.0714344
0.0721325
0.0723702
0.072428
0.0723959
0.0720757
0.0712172
0.0699985
0.0687764
0.0672494
0.0650268
0.0628237
0.0619039
0.0616397
0.0617972
0.0630131
0.065385
0.0686486
0.0709775
0.0719266
0.0727587
0.0738648
0.0747264
0.0750775
0.0752994
0.0755967
0.075898
0.0760762
0.0762487
0.0763439
0.0763516
0.0762159
0.0758181
0.0751471
0.0741625
0.0727662
0.070975
0.0689682
0.0671638
0.0658706
0.0649428
0.0645171
0.0641429
0.0635318
0.0624045
0.0598235
0.0552625
0.0504513
0.0467024
0.0443709
0.0425498
0.0411073
0.0399459
0.0387445
0.0373604
0.0356967
0.0336017
0.0309084
0.0275473
0.0235674
0.0193272
0.0156731
0.0134737
0.0127633
0.0127666
0.0134877
0.0157337
0.0159629
0.0146095
0.0137928
0.0151102
0.024164
0.0323392
0.0338989
0.0337039
0.0321558
0.0258609
0.0183148
0.0138803
0.0114053
0.010045
0.00929058
0.00891287
0.00876222
0.00870925
0.00862925
0.00843363
0.0078611
0.00697639
0.00655741
0.00650203
0.00650374
0.00657426
0.00691402
0.00823179
0.0150589
0.0616129
0.163871
0.206576
0.223866
0.0915135
0.191289
0.153356
0.0972114
0.056292
0.0406623
0.0382867
0.0393782
0.0425889
0.0479434
0.0554617
0.0654231
0.074334
0.082479
0.0884692
0.092991
0.0959731
0.097617
0.0987593
0.0987683
0.0984772
0.0976982
0.0960997
0.0935743
0.0884489
0.0830339
0.0768394
0.0675356
0.0584808
0.0530275
0.0511524
0.0509188
0.0506905
0.0508371
0.0511719
0.0517791
0.0525694
0.0524109
0.0521218
0.0523427
0.0541932
0.0646675
0.106666
0.163916
0.20059
0.216959
0.227862
0.243524
0.264858
0.273132
0.211882
0.178946
0.168531
0.160208
0.144556
0.112095
0.0681775
0.0446217
0.0355794
0.0334805
0.0333167
0.0347339
0.03731
0.0388468
0.0396185
0.0406282
0.0423906
0.044738
0.0483887
0.0533418
0.0581715
0.063847
0.0689294
0.0702325
0.0704325
0.0703023
0.0696641
0.0686041
0.0670937
0.0665751
0.0665192
0.0665661
0.066798
0.067265
0.067537
0.0675962
0.0673458
0.0661172
0.0644111
0.0634369
0.0630394
0.0629675
0.0631426
0.0641812
0.066428
0.0702023
0.0735522
0.074908
0.0756208
0.076014
0.0761681
0.0762048
0.076129
0.0758002
0.0755691
0.0755006
0.0754884
0.0756448
0.0761713
0.0765825
0.076676
0.0766639
0.0764497
0.0759401
0.0750567
0.0736485
0.0716789
0.0691705
0.0660843
0.0622243
0.0595058
0.0587787
0.0591467
0.060873
0.0625482
0.0631241
0.0623148
0.0596354
0.0548151
0.0489966
0.04418
0.0407251
0.0381043
0.0362504
0.0349032
0.0336466
0.0322186
0.0304931
0.0279003
0.0243441
0.0199071
0.0152323
0.0116503
0.0100328
0.00985189
0.0101096
0.0107727
0.0108322
0.0104145
0.0103574
0.0128369
0.0281452
0.0414724
0.0425221
0.0412806
0.0384366
0.0316666
0.0219681
0.0153906
0.0124685
0.0115154
0.0111375
0.0109697
0.0108103
0.0104451
0.00955239
0.0081934
0.00684807
0.006158
0.00598448
0.00585518
0.00582995
0.00608022
0.00661237
0.00753749
0.0109862
0.0334702
0.132682
0.243989
0.298785
0.102178
0.0871743
0.044599
0.02918
0.0290552
0.0313239
0.0375033
0.0503171
0.066854
0.0821886
0.0942771
0.101249
0.105333
0.10788
0.109302
0.110154
0.110667
0.11074
0.110662
0.110481
0.110135
0.109805
0.109399
0.108439
0.10685
0.105203
0.101449
0.0973466
0.0914694
0.0789703
0.0666082
0.0582006
0.0530986
0.0497313
0.0476327
0.0466876
0.0463225
0.0461421
0.0463605
0.0486049
0.0631442
0.118903
0.156133
0.179257
0.201249
0.216243
0.2287
0.239168
0.229982
0.191778
0.169999
0.156061
0.135867
0.105786
0.0762684
0.0518646
0.0358386
0.0294371
0.027425
0.027063
0.0270966
0.027279
0.0272955
0.0265219
0.025007
0.0237006
0.0226729
0.0221307
0.0220014
0.022051
0.0227414
0.0250448
0.0289849
0.0337225
0.0399491
0.0486948
0.0585198
0.0629407
0.0648117
0.0657755
0.0662592
0.0664805
0.0665814
0.0667291
0.06711
0.0671975
0.0670195
0.0660602
0.064748
0.0642866
0.0642139
0.0651749
0.0676868
0.0705018
0.0728758
0.0750632
0.0760502
0.0763618
0.0764459
0.0764509
0.076293
0.0757488
0.0747617
0.0740113
0.0738239
0.0737912
0.0738033
0.0738908
0.0740727
0.0743929
0.0749456
0.0750499
0.0749186
0.0745885
0.0737918
0.0722489
0.0699483
0.0666377
0.0621241
0.0568239
0.0504551
0.0463625
0.044399
0.0453222
0.0488952
0.0541155
0.0582564
0.0594764
0.0583348
0.0540718
0.0484806
0.0428951
0.0380963
0.0345838
0.0321565
0.0303687
0.0284743
0.0261597
0.0244447
0.022223
0.0188309
0.0145346
0.0103505
0.00747272
0.00635856
0.00632267
0.00673329
0.00702912
0.00694803
0.00724836
0.0117647
0.0341557
0.0523914
0.0541512
0.0523471
0.0475702
0.038107
0.0265723
0.0187991
0.0158959
0.0152731
0.0147924
0.0135441
0.0112161
0.00892915
0.00713653
0.00577138
0.0048428
0.00444884
0.00437278
0.00439857
0.004724
0.00633912
0.00810448
0.00894871
0.0108984
0.0222938
0.0896881
0.227791
0.312571
0.0465582
0.0365235
0.0244418
0.0248678
0.0302972
0.0450583
0.0690539
0.0877421
0.0988331
0.106029
0.110093
0.112059
0.112955
0.113423
0.113442
0.113327
0.113035
0.112554
0.112011
0.111537
0.111268
0.111246
0.111299
0.111273
0.111088
0.1107
0.109761
0.108162
0.105165
0.0991207
0.0859859
0.0698122
0.0574145
0.0499835
0.0462237
0.0448271
0.0446614
0.0452795
0.0504685
0.0862649
0.12748
0.140261
0.154241
0.169308
0.185435
0.19909
0.205035
0.197156
0.180518
0.163447
0.142116
0.109637
0.0806363
0.0540796
0.0398722
0.0298256
0.0247764
0.0223988
0.0212364
0.0202563
0.0195908
0.0192278
0.0186336
0.0177078
0.016589
0.0154803
0.0145185
0.0139546
0.0136938
0.0135884
0.0135861
0.0138806
0.014615
0.0156381
0.0170349
0.0191176
0.0221155
0.0264595
0.0328935
0.0423501
0.0541768
0.0614798
0.0645861
0.0659854
0.0664734
0.066559
0.0664967
0.0664553
0.0664064
0.0665046
0.0672059
0.0688463
0.0712162
0.0735061
0.0753318
0.0763605
0.0767366
0.0768838
0.0769289
0.0769162
0.0768308
0.0764864
0.0757316
0.0747654
0.0743527
0.0741174
0.0738828
0.0736832
0.0734219
0.0730167
0.0725194
0.0718647
0.0709667
0.0698089
0.0680294
0.0654652
0.0619881
0.0576857
0.052455
0.047162
0.0420467
0.0367682
0.0324079
0.0301505
0.0307824
0.0334799
0.0402673
0.0472638
0.0507366
0.0511807
0.0490515
0.0435547
0.0382273
0.0340016
0.0311132
0.0292315
0.027445
0.0246881
0.0208799
0.0180381
0.0156825
0.0127882
0.00941568
0.00641403
0.00457836
0.00395444
0.00391596
0.00396021
0.00410522
0.00526068
0.0120304
0.0407023
0.0638595
0.0669767
0.0650108
0.0578145
0.0445291
0.0320191
0.0236034
0.0195512
0.0178702
0.0165167
0.0144845
0.0118734
0.00918393
0.0068326
0.00518793
0.00437624
0.00412001
0.00408686
0.00415753
0.00468764
0.00772932
0.0125042
0.013748
0.014551
0.0197087
0.0528135
0.181936
0.298529
0.0217296
0.02544
0.0223061
0.0290506
0.051268
0.0788346
0.0947264
0.104639
0.110607
0.113379
0.114313
0.114403
0.114415
0.11437
0.114116
0.113592
0.11274
0.111606
0.110587
0.11
0.109761
0.109732
0.109909
0.110977
0.111786
0.11182
0.111706
0.111254
0.10983
0.105756
0.0939596
0.0753727
0.0592496
0.0497616
0.04565
0.0447058
0.045383
0.0541614
0.0968359
0.122522
0.132286
0.145626
0.159066
0.169696
0.177906
0.181687
0.178642
0.168639
0.149126
0.120119
0.0889647
0.0625664
0.0406707
0.028833
0.0231002
0.0198667
0.0181802
0.0170094
0.0159281
0.0150192
0.014601
0.0143277
0.0140574
0.0137489
0.0134086
0.0130954
0.0129671
0.0129365
0.0130241
0.0133035
0.0136559
0.0142115
0.014939
0.0156594
0.0161891
0.0166042
0.0171291
0.0175999
0.018255
0.0195378
0.0219653
0.0260863
0.0337407
0.0472994
0.0621302
0.0676158
0.0695834
0.0699643
0.0699402
0.0698648
0.0699531
0.0707108
0.0723615
0.0742503
0.0756231
0.0765605
0.0774254
0.0783458
0.0787583
0.0788802
0.0788726
0.0786193
0.0778496
0.0765378
0.075228
0.0740613
0.0727377
0.0713636
0.0698567
0.0681237
0.0663703
0.0645534
0.0623477
0.0598147
0.0566903
0.0526292
0.0476707
0.0420221
0.0361933
0.0304828
0.026351
0.0232942
0.0213915
0.0201337
0.0202567
0.0209681
0.0228324
0.0274017
0.0324505
0.0358386
0.037209
0.036839
0.0338667
0.0303197
0.027883
0.0265889
0.0257295
0.0241269
0.0198821
0.0150259
0.0117521
0.00934448
0.00709774
0.00506715
0.00362023
0.00292329
0.00276478
0.00278119
0.00305041
0.0049418
0.0154591
0.0508852
0.0731298
0.0760911
0.0741582
0.0661083
0.0507145
0.0380268
0.028791
0.0228151
0.0193455
0.0171987
0.0151132
0.0124057
0.0093202
0.00667029
0.00504724
0.00432031
0.00404423
0.00399618
0.00415014
0.00544463
0.0124771
0.0224046
0.0240111
0.0221405
0.0221554
0.0350644
0.109809
0.259547
0.0190121
0.0287698
0.0231813
0.0461453
0.0792956
0.095509
0.106498
0.112122
0.114511
0.114914
0.114761
0.114642
0.114824
0.115104
0.115199
0.115154
0.114815
0.114408
0.114183
0.113665
0.112723
0.112161
0.112563
0.114674
0.115167
0.114939
0.114268
0.11357
0.112405
0.109167
0.0971824
0.0749233
0.0584357
0.0489228
0.0456535
0.0463371
0.0594462
0.101749
0.119216
0.126131
0.140461
0.154832
0.161829
0.167124
0.168993
0.1653
0.151421
0.130413
0.101061
0.0698895
0.0490229
0.0324003
0.0221258
0.0177958
0.0158831
0.0149272
0.0143505
0.0137572
0.0132649
0.0130713
0.0130427
0.0131967
0.0133804
0.0135023
0.0135475
0.0137001
0.0141608
0.0149325
0.0160674
0.0176916
0.0193728
0.020965
0.0219694
0.0224618
0.0226941
0.022749
0.022433
0.0217493
0.0208629
0.0197231
0.0188793
0.0186767
0.0186492
0.0188742
0.0202221
0.0245131
0.0348537
0.0535387
0.067022
0.0705305
0.071818
0.0724802
0.0730831
0.0739239
0.0749424
0.0758585
0.0766409
0.0774197
0.0778431
0.0777942
0.0771567
0.0756801
0.073325
0.0701817
0.0665048
0.062578
0.0581902
0.0538869
0.0500979
0.0467014
0.043676
0.0409215
0.0383758
0.0360835
0.03359
0.0302041
0.026434
0.0232287
0.0210463
0.0195062
0.0185597
0.0179255
0.0174233
0.0169325
0.0168416
0.0169358
0.017321
0.0185568
0.0201968
0.0215471
0.02292
0.0241139
0.0246193
0.0245932
0.0241273
0.023658
0.0231222
0.0220179
0.01894
0.0134463
0.00929899
0.00654969
0.00459792
0.00319193
0.00235812
0.0020407
0.00200655
0.00205442
0.00251921
0.00564641
0.0227781
0.0643307
0.083412
0.0854293
0.0830734
0.073153
0.0570079
0.0438274
0.0330404
0.0252238
0.0205709
0.017877
0.0154795
0.0124751
0.00924997
0.0066947
0.00521263
0.0043104
0.00380136
0.00379026
0.00454948
0.00978887
0.0315836
0.0511271
0.053891
0.0466492
0.0332606
0.0346119
0.059708
0.175308
0.0199474
0.0380826
0.0275388
0.07241
0.0929356
0.105122
0.111186
0.113908
0.114842
0.114304
0.114362
0.115269
0.117835
0.121165
0.125284
0.129838
0.133687
0.135959
0.137592
0.136887
0.134606
0.132202
0.130433
0.12877
0.126865
0.123666
0.120049
0.118488
0.115401
0.108757
0.0924947
0.0707118
0.0552512
0.0479123
0.0481919
0.0662522
0.102793
0.115712
0.119265
0.135402
0.150003
0.154391
0.156772
0.154356
0.146204
0.132722
0.112834
0.0850982
0.0568039
0.0388135
0.0270926
0.0190288
0.0154295
0.0140281
0.0135028
0.0132621
0.0130843
0.01295
0.0129048
0.0130057
0.0132844
0.0138592
0.0146432
0.0156657
0.0169103
0.018284
0.0198437
0.021353
0.0226641
0.0234802
0.0239928
0.0242018
0.0242583
0.0241789
0.0237764
0.0231874
0.0226526
0.022033
0.0214736
0.0209601
0.0205071
0.0201007
0.0195588
0.0189401
0.0180374
0.0173401
0.0172441
0.0175279
0.0195981
0.02611
0.0369679
0.0496785
0.0600328
0.0658791
0.0690714
0.0708086
0.0715575
0.0715856
0.0706343
0.0680255
0.0634433
0.0570219
0.0495474
0.0415682
0.0341041
0.0281647
0.0241986
0.0215386
0.0197457
0.018418
0.0173416
0.0164233
0.0157683
0.01555
0.0157414
0.0159993
0.0160264
0.0160234
0.0160328
0.0160363
0.0160942
0.0161936
0.0162414
0.016171
0.0160852
0.0160713
0.0161279
0.0164441
0.0169937
0.0174992
0.0183482
0.0197719
0.0211595
0.0220182
0.022311
0.0222798
0.0219653
0.0206817
0.0162056
0.0105006
0.00673507
0.00445144
0.00299323
0.0019857
0.00141019
0.00122162
0.00121686
0.00132764
0.0021253
0.00672371
0.0310767
0.0737483
0.0910141
0.0924979
0.089792
0.0786853
0.0614329
0.0469309
0.0352627
0.0271918
0.0223181
0.0191554
0.0162142
0.0127272
0.00948165
0.00721113
0.00529949
0.00372291
0.00324638
0.00360123
0.00743835
0.0271223
0.0767256
0.103705
0.107965
0.101642
0.0674635
0.0474019
0.0511673
0.093898
0.0230234
0.0457987
0.0385108
0.0881908
0.0999335
0.107466
0.111539
0.11253
0.112065
0.112498
0.115223
0.11953
0.125798
0.133197
0.14115
0.147931
0.15187
0.154106
0.155358
0.155742
0.154979
0.152144
0.148275
0.14419
0.137473
0.13031
0.123885
0.118395
0.113704
0.103058
0.080769
0.0596482
0.050648
0.0505279
0.0736306
0.10102
0.109542
0.112544
0.125946
0.145545
0.14907
0.147262
0.13827
0.125239
0.11165
0.0959935
0.0745681
0.0489307
0.0324809
0.0238473
0.017972
0.015136
0.0139718
0.0135077
0.0133069
0.0132027
0.0131533
0.0132165
0.0135519
0.0143586
0.0158013
0.0172854
0.0186243
0.0196518
0.0205652
0.0213181
0.0218884
0.0224343
0.0227665
0.0229032
0.0228034
0.0220803
0.0212799
0.0203411
0.0193451
0.0184955
0.0177205
0.0169618
0.0163141
0.015687
0.0152237
0.0150035
0.0149708
0.0152826
0.0161201
0.0171485
0.0179235
0.018401
0.0184747
0.017544
0.0167396
0.0168097
0.0178436
0.020196
0.0233261
0.0261937
0.0283089
0.0295097
0.0288051
0.0267385
0.0239849
0.0211926
0.0187409
0.0168709
0.0155713
0.0147098
0.0140773
0.0134925
0.0129926
0.0125126
0.0119915
0.0114216
0.0108989
0.0105971
0.0107447
0.0115353
0.0125717
0.0134954
0.0142279
0.0147357
0.0151424
0.0155273
0.0158352
0.0160005
0.0160176
0.0159809
0.0159872
0.0161329
0.0164224
0.0166605
0.0170828
0.0180879
0.0196488
0.020661
0.0208578
0.0207593
0.0202454
0.0184516
0.0132737
0.00767322
0.00422184
0.0025107
0.00163637
0.00114776
0.000905625
0.000842384
0.000857907
0.00103497
0.0021599
0.00846793
0.0400851
0.0832474
0.0981289
0.0988784
0.0954339
0.0820145
0.0638421
0.0490906
0.037697
0.0295715
0.0240729
0.0199437
0.0162037
0.012751
0.00980523
0.00692538
0.00418265
0.00285722
0.00286699
0.00514804
0.0209098
0.0799555
0.116595
0.127031
0.128559
0.127536
0.118437
0.0815875
0.0660814
0.0733254
0.0265135
0.0525546
0.0674434
0.0938735
0.101016
0.105775
0.106471
0.10678
0.108462
0.112095
0.116064
0.121284
0.128483
0.13685
0.14519
0.151298
0.154247
0.155858
0.156923
0.15728
0.156682
0.153166
0.147356
0.140498
0.133546
0.12728
0.121423
0.114848
0.105552
0.0827318
0.062004
0.0548164
0.0543398
0.0772723
0.0976753
0.103498
0.105835
0.116964
0.140057
0.146624
0.146425
0.138271
0.122286
0.103484
0.084321
0.0650773
0.0448001
0.0296619
0.0218737
0.0177724
0.0155431
0.0145922
0.0141995
0.0140828
0.0141763
0.0142567
0.0145219
0.0151705
0.0162211
0.0175115
0.018549
0.0194092
0.0200987
0.0206636
0.0211225
0.0213426
0.0214095
0.0213403
0.0209326
0.0203353
0.019806
0.0192015
0.0185827
0.0180611
0.0174403
0.0167421
0.0162128
0.01552
0.0149486
0.0142189
0.0134956
0.0126228
0.0116574
0.0107149
0.0099753
0.00964791
0.0096141
0.0107012
0.0127511
0.0151089
0.0169341
0.0181492
0.0187784
0.0187213
0.018161
0.0175547
0.0169891
0.0163597
0.0154014
0.0148031
0.0144082
0.0140685
0.0139585
0.0139519
0.0139557
0.0139143
0.0137278
0.0132862
0.0127921
0.0122873
0.0117168
0.0110587
0.010333
0.00962646
0.0091124
0.00927466
0.0105448
0.0119512
0.0131184
0.01393
0.0145307
0.0150613
0.015528
0.0158858
0.0160781
0.0161344
0.0161443
0.0162049
0.0163921
0.0165709
0.0168389
0.0174979
0.0187198
0.0195082
0.0196426
0.019501
0.018701
0.0154766
0.0093992
0.00539691
0.00303085
0.00176109
0.00112427
0.000815367
0.000689692
0.000669894
0.00069751
0.000920128
0.00223059
0.00941804
0.04437
0.0878726
0.101971
0.10246
0.0977105
0.0817206
0.0642082
0.0503981
0.0397182
0.0313098
0.0247634
0.019749
0.0157471
0.0125566
0.00928308
0.0055035
0.00297977
0.00245437
0.00340342
0.0134866
0.0672441
0.11456
0.1279
0.130673
0.130591
0.130087
0.128628
0.12292
0.103394
0.0956069
0.0292005
0.0599025
0.0819691
0.0948234
0.0981839
0.0986914
0.100074
0.102297
0.104856
0.108051
0.113249
0.1203
0.127427
0.134806
0.141282
0.145014
0.147118
0.148168
0.148521
0.148085
0.145315
0.142083
0.138249
0.132214
0.12587
0.120044
0.112964
0.101168
0.0781913
0.0638516
0.0594459
0.059529
0.0794592
0.093511
0.0977186
0.0992862
0.104463
0.129791
0.143991
0.146196
0.144092
0.133747
0.11592
0.0936393
0.0685202
0.0439223
0.0287012
0.021179
0.0176087
0.0159714
0.0152679
0.0150037
0.015592
0.0163989
0.0167211
0.0168694
0.0170818
0.0175027
0.0181345
0.0188358
0.0195301
0.0201929
0.0207912
0.0212949
0.021644
0.0217999
0.021968
0.0219963
0.0219375
0.021243
0.0204996
0.0197651
0.0187613
0.0179056
0.0170616
0.0162716
0.0157098
0.0151249
0.0147362
0.0142314
0.0137773
0.0131674
0.0124778
0.0114966
0.0103343
0.0091825
0.00829227
0.00786623
0.00776492
0.00790265
0.00840736
0.00933389
0.0110377
0.0130659
0.0145771
0.015524
0.0158547
0.0157761
0.0153878
0.0145545
0.0138491
0.0135676
0.013934
0.0147789
0.0161059
0.0171418
0.0173841
0.0166875
0.01546
0.0144392
0.013513
0.0125173
0.0112863
0.00998758
0.00886812
0.00803539
0.00781869
0.00887336
0.0108013
0.0122464
0.0132531
0.0140711
0.0147772
0.0154704
0.0160135
0.0163051
0.0164646
0.016567
0.0166202
0.0166853
0.0168335
0.0173174
0.0181093
0.0183497
0.0183026
0.0179336
0.0163765
0.0118102
0.00754468
0.00456143
0.00263634
0.00152373
0.000949091
0.000684455
0.000591045
0.000578956
0.000607331
0.000837457
0.00222273
0.00978735
0.0460072
0.0910741
0.104868
0.104932
0.0982812
0.0809875
0.0655338
0.0537695
0.0432163
0.0332477
0.0246893
0.0183088
0.0143825
0.0111709
0.00708761
0.00358447
0.00220899
0.00240347
0.00681357
0.0410238
0.103262
0.124116
0.129054
0.127913
0.124435
0.12307
0.123721
0.125699
0.126212
0.124844
0.0317849
0.0659939
0.0870791
0.0936719
0.0947115
0.0956147
0.0962381
0.0962423
0.0967178
0.0989919
0.102612
0.106329
0.110328
0.114176
0.118794
0.124093
0.128114
0.130531
0.131754
0.132162
0.131567
0.12865
0.125532
0.119404
0.112364
0.102221
0.0873552
0.0722834
0.0655885
0.0634239
0.064915
0.0807951
0.0891251
0.0915656
0.0910026
0.0907298
0.11011
0.136228
0.14358
0.144708
0.141576
0.130827
0.112431
0.0886097
0.0600831
0.0336034
0.0220079
0.0176952
0.0160894
0.0155754
0.0154649
0.0160812
0.0175591
0.0181009
0.0182946
0.0183854
0.0184607
0.0186788
0.0191403
0.0198727
0.0207582
0.0217034
0.022737
0.0241272
0.0249275
0.0251646
0.0246399
0.0238034
0.022221
0.0207621
0.0191329
0.0172619
0.0153263
0.0137728
0.0126628
0.0117678
0.0112888
0.0110605
0.011001
0.0113418
0.0118681
0.0123704
0.0126497
0.0125525
0.0122538
0.0117733
0.0112104
0.0104174
0.00970262
0.00911217
0.00868021
0.00837932
0.00813232
0.00814347
0.00855019
0.00913373
0.00965617
0.0100058
0.0102725
0.0108178
0.0115904
0.0129405
0.0156776
0.0190918
0.0212529
0.0214475
0.020881
0.0195747
0.0177966
0.0161929
0.0150926
0.0143952
0.0137244
0.0124596
0.0103202
0.00822235
0.00683144
0.00611836
0.00634638
0.00817832
0.0102361
0.0117746
0.013132
0.014445
0.0155311
0.0161985
0.0165132
0.0166316
0.0166694
0.0167041
0.0167931
0.0171409
0.0173308
0.0173064
0.0171208
0.0163899
0.0138588
0.010215
0.0069582
0.0043631
0.00256717
0.00148543
0.000911547
0.000638497
0.000533259
0.000513416
0.000532058
0.000717576
0.00196587
0.00933754
0.0458956
0.0920273
0.106696
0.106506
0.0984741
0.0823674