/*--------------------------------*- C++ -*----------------------------------*\
| =========                 |                                                 |
| \\      /  F ield         | OpenFOAM: The Open Source CFD Toolbox           |
|  \\    /   O peration     | Version:  2112                                  |
|   \\  /    A nd           | Website:  www.openfoam.com                      |
|    \\/     M anipulation  |                                                 |
\*---------------------------------------------------------------------------*/
FoamFile
{
    version     2.0;
    format      ascii;
    arch        "LSB;label=32;scalar=64";
    class       surfaceScalarField;
    location    "0.27";
    object      ddtCorrDdt0(phi);
}
// * * * * * * * * * * * * * * * * * * * * * * * * * * * * * * * * * * * * * //

dimensions      [0 3 -2 0 0 0 0];

oriented        oriented;

internalField   nonuniform List<scalar> 
24170
(
2.55013e-08
-2.55004e-08
6.8795e-08
-4.32922e-08
1.19983e-07
-5.11864e-08
1.80177e-07
-6.01926e-08
2.60735e-07
-8.05569e-08
3.7753e-07
-1.16794e-07
5.4606e-07
-1.68529e-07
7.88247e-07
-2.42186e-07
1.12858e-06
-3.40334e-07
1.59032e-06
-4.61733e-07
2.20779e-06
-6.1747e-07
3.02922e-06
-8.21429e-07
4.13757e-06
-1.10835e-06
5.64123e-06
-1.50365e-06
7.63417e-06
-1.99294e-06
1.02586e-05
-2.62439e-06
1.41386e-05
-3.87998e-06
-6.5963e-06
2.07349e-05
1.06049e-08
-3.61044e-08
4.33295e-08
-7.60154e-08
9.57078e-08
-1.03563e-07
1.67249e-07
-1.31733e-07
2.60605e-07
-1.73912e-07
3.83123e-07
-2.39311e-07
5.48529e-07
-3.33935e-07
7.80346e-07
-4.74002e-07
1.10522e-06
-6.65209e-07
1.55104e-06
-9.07552e-07
2.15727e-06
-1.22369e-06
2.97157e-06
-1.63573e-06
4.07591e-06
-2.21268e-06
5.59735e-06
-3.02509e-06
7.66351e-06
-4.05909e-06
1.05555e-05
-5.51638e-06
1.43219e-05
-7.6464e-06
-1.05514e-05
1.8277e-05
1.32592e-08
-4.93626e-08
4.67987e-08
-1.09554e-07
9.46832e-08
-1.51447e-07
1.57357e-07
-1.94405e-07
2.35575e-07
-2.52129e-07
3.33617e-07
-3.37352e-07
4.60738e-07
-4.61054e-07
6.32347e-07
-6.45609e-07
8.69841e-07
-9.02701e-07
1.198e-06
-1.23571e-06
1.65634e-06
-1.68204e-06
2.28718e-06
-2.26656e-06
3.17435e-06
-3.09986e-06
4.44768e-06
-4.29841e-06
6.23647e-06
-5.84787e-06
8.67389e-06
-7.95379e-06
1.18895e-05
-1.0862e-05
-1.49043e-05
1.62423e-05
1.33495e-08
-6.27112e-08
4.89757e-08
-1.45179e-07
1.01008e-07
-2.03478e-07
1.67594e-07
-2.6099e-07
2.51703e-07
-3.36238e-07
3.56142e-07
-4.4179e-07
4.85461e-07
-5.90373e-07
6.319e-07
-7.92047e-07
8.02621e-07
-1.07342e-06
1.02636e-06
-1.45945e-06
1.32057e-06
-1.97625e-06
1.68857e-06
-2.63456e-06
2.15548e-06
-3.56677e-06
2.78266e-06
-4.92558e-06
3.5768e-06
-6.64201e-06
4.56498e-06
-8.94196e-06
5.76681e-06
-1.20638e-05
-1.61903e-05
7.05282e-06
1.31248e-08
-7.58352e-08
4.83068e-08
-1.8036e-07
9.99028e-08
-2.55073e-07
1.67163e-07
-3.28249e-07
2.51701e-07
-4.20775e-07
3.5659e-07
-5.46678e-07
4.86493e-07
-7.20275e-07
6.53442e-07
-9.58996e-07
8.58072e-07
-1.27805e-06
1.10712e-06
-1.70849e-06
1.4085e-06
-2.27763e-06
1.76878e-06
-2.99483e-06
2.12924e-06
-3.92723e-06
2.4702e-06
-5.26653e-06
2.85793e-06
-7.02974e-06
3.27403e-06
-9.35806e-06
3.61153e-06
-1.24013e-05
-1.63272e-05
3.74846e-06
1.273e-08
-8.85644e-08
4.69835e-08
-2.14612e-07
9.69097e-08
-3.04998e-07
1.61959e-07
-3.93298e-07
2.42354e-07
-5.01168e-07
3.41003e-07
-6.45327e-07
4.62252e-07
-8.41523e-07
6.16998e-07
-1.11374e-06
8.06287e-07
-1.46734e-06
1.02616e-06
-1.92836e-06
1.28119e-06
-2.53265e-06
1.60727e-06
-3.32091e-06
2.03914e-06
-4.35909e-06
2.44489e-06
-5.67228e-06
2.82527e-06
-7.41012e-06
3.16563e-06
-9.69841e-06
3.38353e-06
-1.26192e-05
-1.62835e-05
3.33985e-06
1.23537e-08
-1.00917e-07
4.51963e-08
-2.47454e-07
9.26022e-08
-3.52403e-07
1.5367e-07
-4.54365e-07
2.27878e-07
-5.75375e-07
3.16286e-07
-7.33734e-07
4.20825e-07
-9.46061e-07
5.42842e-07
-1.23576e-06
6.9042e-07
-1.61491e-06
8.67465e-07
-2.10541e-06
1.07644e-06
-2.74163e-06
1.33853e-06
-3.583e-06
1.70483e-06
-4.7254e-06
2.10895e-06
-6.07641e-06
2.46869e-06
-7.76986e-06
2.71988e-06
-9.9496e-06
2.78212e-06
-1.26815e-05
-1.60209e-05
2.5195e-06
1.19486e-08
-1.12865e-07
4.28606e-08
-2.78365e-07
8.71061e-08
-3.96648e-07
1.43075e-07
-5.10333e-07
2.09547e-07
-6.41847e-07
2.85648e-07
-8.09835e-07
3.71223e-07
-1.03164e-06
4.64211e-07
-1.32874e-06
5.67869e-07
-1.71857e-06
6.85967e-07
-2.2235e-06
8.20153e-07
-2.87581e-06
9.66585e-07
-3.72943e-06
1.10954e-06
-4.86835e-06
1.27964e-06
-6.2465e-06
1.41311e-06
-7.90333e-06
1.38562e-06
-9.92211e-06
1.05265e-06
-1.23485e-05
-1.51977e-05
2.29465e-07
1.13741e-08
-1.24239e-07
3.94916e-08
-3.06482e-07
7.97308e-08
-4.36887e-07
1.29781e-07
-5.60382e-07
1.8732e-07
-6.99386e-07
2.4974e-07
-8.72254e-07
3.1502e-07
-1.09692e-06
3.79901e-07
-1.39362e-06
4.42638e-07
-1.78131e-06
5.01929e-07
-2.28279e-06
5.54427e-07
-2.92831e-06
5.85632e-07
-3.76063e-06
5.55595e-07
-4.83831e-06
4.6476e-07
-6.15567e-06
2.75585e-07
-7.71415e-06
-1.09877e-07
-9.53665e-06
-8.38253e-07
-1.16201e-05
-1.39309e-05
-2.10509e-06
1.03498e-08
-1.34588e-07
3.44317e-08
-3.30563e-07
6.97288e-08
-4.72183e-07
1.13196e-07
-6.03849e-07
1.6084e-07
-7.47031e-07
2.08152e-07
-9.19566e-07
2.50881e-07
-1.13964e-06
2.84101e-07
-1.42685e-06
3.03012e-07
-1.80022e-06
3.01833e-07
-2.28161e-06
2.71788e-07
-2.89827e-06
1.94475e-07
-3.68332e-06
2.81394e-08
-4.67198e-06
-2.62623e-07
-5.8649e-06
-7.21286e-07
-7.25549e-06
-1.42055e-06
-8.83738e-06
-2.46367e-06
-1.0577e-05
-1.2412e-05
-3.98256e-06
8.22273e-09
-1.4281e-07
2.69616e-08
-3.49302e-07
5.68296e-08
-5.02051e-07
9.33087e-08
-6.40328e-07
1.30355e-07
-7.84077e-07
1.61486e-07
-9.50697e-07
1.80051e-07
-1.15821e-06
1.78788e-07
-1.42558e-06
1.50037e-07
-1.77147e-06
8.43257e-08
-2.2159e-06
-3.20207e-08
-2.78192e-06
-2.21594e-07
-3.49375e-06
-5.24065e-07
-4.36951e-06
-9.83851e-07
-5.40512e-06
-1.65127e-06
-6.58807e-06
-2.58945e-06
-7.89922e-06
-3.86882e-06
-9.29762e-06
-1.07187e-05
-5.56211e-06
3.50364e-09
-1.46314e-07
1.51673e-08
-3.60966e-07
3.64656e-08
-5.2335e-07
6.16057e-08
-6.65469e-07
8.42603e-08
-8.06733e-07
9.768e-08
-9.64117e-07
9.44701e-08
-1.155e-06
6.64319e-08
-1.39754e-06
4.60428e-09
-1.70964e-06
-1.01795e-07
-2.10951e-06
-2.6748e-07
-2.61624e-06
-5.14089e-07
-3.24714e-06
-8.73065e-07
-4.01054e-06
-1.38056e-06
-4.89763e-06
-2.0778e-06
-5.89084e-06
-3.0116e-06
-6.96542e-06
-4.22571e-06
-8.08351e-06
-9.17253e-06
-5.77193e-06
-1.53617e-09
-1.44778e-07
8.82097e-09
-3.71323e-07
2.84631e-08
-5.42993e-07
4.97329e-08
-6.8674e-07
6.51543e-08
-8.22155e-07
6.57282e-08
-9.64693e-07
4.10395e-08
-1.13031e-06
-2.07353e-08
-1.33577e-06
-1.32815e-07
-1.59757e-06
-3.10678e-07
-1.93165e-06
-5.74068e-07
-2.35285e-06
-9.49369e-07
-2.87184e-06
-1.47036e-06
-3.48955e-06
-2.17451e-06
-4.19348e-06
-3.10285e-06
-4.96251e-06
-4.29913e-06
-5.76915e-06
-5.80705e-06
-6.57559e-06
-7.34214e-06
-7.63744e-06
4.77732e-11
-1.44826e-07
5.97077e-09
-3.77247e-07
1.79412e-08
-5.54965e-07
2.98487e-08
-6.98649e-07
3.25425e-08
-8.24851e-07
1.42098e-08
-9.46362e-07
-3.91962e-08
-1.07691e-06
-1.44064e-07
-1.23091e-06
-3.19118e-07
-1.42251e-06
-5.85818e-07
-1.66495e-06
-9.69548e-07
-1.96913e-06
-1.50079e-06
-2.34061e-06
-2.21433e-06
-2.77601e-06
-3.14625e-06
-3.26157e-06
-4.33264e-06
-3.77612e-06
-5.80801e-06
-4.29378e-06
-7.6e-06
-4.78361e-06
-5.21845e-06
-9.72369e-06
6.72407e-09
-1.51551e-07
6.18263e-09
-3.76707e-07
5.59823e-09
-5.54382e-07
1.91208e-09
-6.94965e-07
-1.52012e-08
-8.0774e-07
-5.92753e-08
-9.02291e-07
-1.47526e-07
-9.88663e-07
-3.01087e-07
-1.07735e-06
-5.44886e-07
-1.17872e-06
-9.07353e-07
-1.30249e-06
-1.42007e-06
-1.45641e-06
-2.11719e-06
-1.6435e-06
-3.03293e-06
-1.86027e-06
-4.19911e-06
-2.0954e-06
-5.64353e-06
-2.3317e-06
-7.38856e-06
-2.54876e-06
-9.44873e-06
-2.72344e-06
-2.83766e-06
-1.18295e-05
4.19484e-09
-1.55747e-07
4.83397e-09
-3.77348e-07
-8.38616e-09
-5.41164e-07
-3.45268e-08
-6.68827e-07
-7.91747e-08
-7.63095e-07
-1.55188e-07
-8.26281e-07
-2.80984e-07
-8.62871e-07
-4.80288e-07
-8.78049e-07
-7.82482e-07
-8.7653e-07
-1.22217e-06
-8.62808e-07
-1.83694e-06
-8.41646e-07
-2.66607e-06
-8.14372e-07
-3.74391e-06
-7.82433e-07
-5.09827e-06
-7.41039e-07
-6.74824e-06
-6.81735e-07
-8.70438e-06
-5.92623e-07
-1.09693e-05
-4.58554e-07
-2.68445e-07
-1.35385e-05
-6.03615e-10
-1.55146e-07
-8.01101e-09
-3.69943e-07
-3.76036e-08
-5.11574e-07
-8.79383e-08
-6.18495e-07
-1.63371e-07
-6.87666e-07
-2.74524e-07
-7.1513e-07
-4.36488e-07
-7.0091e-07
-6.69047e-07
-6.45494e-07
-9.98662e-07
-5.46918e-07
-1.45902e-06
-4.0245e-07
-2.091e-06
-2.09672e-07
-2.93741e-06
3.20359e-08
-4.03988e-06
3.20028e-07
-5.43014e-06
6.49223e-07
-7.12558e-06
1.01371e-06
-9.12896e-06
1.41075e-06
-1.14328e-05
1.84524e-06
2.32217e-06
-1.40234e-05
-1.21979e-08
-1.42949e-07
-4.22112e-08
-3.39931e-07
-8.77477e-08
-4.66039e-07
-1.61453e-07
-5.44791e-07
-2.71256e-07
-5.77864e-07
-4.22328e-07
-5.6406e-07
-6.21302e-07
-5.01938e-07
-8.77385e-07
-3.89413e-07
-1.20259e-06
-2.21715e-07
-1.61414e-06
9.10308e-09
-2.13737e-06
3.13554e-07
-2.80794e-06
7.026e-07
-3.67147e-06
1.18356e-06
-4.77603e-06
1.75378e-06
-6.15869e-06
2.39636e-06
-7.83623e-06
3.0883e-06
-9.80762e-06
3.81663e-06
4.57159e-06
-1.2057e-05
-2.5296e-08
-1.17654e-07
-8.12383e-08
-2.83989e-07
-1.55538e-07
-3.9174e-07
-2.65471e-07
-4.34858e-07
-4.19679e-07
-4.23656e-07
-6.19709e-07
-3.6403e-07
-8.64878e-07
-2.56769e-07
-1.15269e-06
-1.01597e-07
-1.47729e-06
1.02877e-07
-1.82845e-06
3.60265e-07
-2.19268e-06
6.77792e-07
-2.55885e-06
1.06877e-06
-2.93191e-06
1.55662e-06
-3.35289e-06
2.17477e-06
-3.90731e-06
2.95078e-06
-4.69616e-06
3.87715e-06
-5.76738e-06
4.88785e-06
5.86592e-06
-7.0617e-06
-1.77641e-08
-9.98894e-08
-5.95892e-08
-2.42164e-07
-1.2964e-07
-3.21687e-07
-2.28664e-07
-3.35833e-07
-3.56664e-07
-2.95655e-07
-5.13863e-07
-2.06828e-07
-6.98881e-07
-7.17499e-08
-9.09123e-07
1.08648e-07
-1.14034e-06
3.34096e-07
-1.38505e-06
6.04975e-07
-1.62959e-06
9.22335e-07
-1.8488e-06
1.28798e-06
-2.00176e-06
1.70957e-06
-2.04599e-06
2.219e-06
-1.98694e-06
2.89173e-06
-1.90978e-06
3.79999e-06
-1.85741e-06
4.83548e-06
5.66283e-06
-1.65433e-06
-1.1991e-08
-8.78973e-08
-4.85747e-08
-2.05578e-07
-1.16491e-07
-2.5377e-07
-2.12229e-07
-2.40092e-07
-3.32104e-07
-1.75777e-07
-4.72879e-07
-6.60512e-08
-6.31289e-07
8.66633e-08
-8.03813e-07
2.81175e-07
-9.86638e-07
5.16924e-07
-1.17612e-06
7.94465e-07
-1.37012e-06
1.11633e-06
-1.56669e-06
1.48455e-06
-1.74796e-06
1.89084e-06
-1.84441e-06
2.31545e-06
-1.73449e-06
2.78182e-06
-1.35681e-06
3.42231e-06
-7.6239e-07
4.24106e-06
4.85411e-06
4.63357e-08
-9.43025e-09
-7.8466e-08
-4.50039e-08
-1.70003e-07
-1.08517e-07
-1.90254e-07
-1.94418e-07
-1.5419e-07
-2.98751e-07
-7.14414e-08
-4.17632e-07
5.28324e-08
-5.47202e-07
2.16237e-07
-6.83925e-07
4.17901e-07
-8.23891e-07
6.56892e-07
-9.61438e-07
9.32015e-07
-1.08748e-06
1.24238e-06
-1.18977e-06
1.58685e-06
-1.2531e-06
1.95418e-06
-1.23043e-06
2.29278e-06
-9.75432e-07
2.52682e-06
-3.25883e-07
2.77276e-06
5.25066e-07
3.39011e-06
4.04249e-06
1.33668e-06
-1.28022e-08
-6.5663e-08
-4.7604e-08
-1.35201e-07
-1.03166e-07
-1.34691e-07
-1.75526e-07
-8.18289e-08
-2.60807e-07
1.38421e-08
-3.54475e-07
1.46502e-07
-4.51325e-07
3.1309e-07
-5.4574e-07
5.12319e-07
-6.3013e-07
7.41286e-07
-6.92948e-07
9.94835e-07
-7.15903e-07
1.26534e-06
-6.71615e-07
1.54256e-06
-5.34213e-07
1.81678e-06
-2.95125e-07
2.0537e-06
8.15767e-08
2.15012e-06
6.94473e-07
2.15986e-06
1.47378e-06
2.61081e-06
3.30913e-06
2.20715e-06
-1.27627e-08
-5.28999e-08
-4.61071e-08
-1.01856e-07
-9.46648e-08
-8.61324e-08
-1.54294e-07
-2.21989e-08
-2.20201e-07
7.97503e-08
-2.85699e-07
2.12003e-07
-3.42403e-07
3.69796e-07
-3.80993e-07
5.5091e-07
-3.88258e-07
7.48553e-07
-3.48371e-07
9.54951e-07
-2.44658e-07
1.16163e-06
-5.9666e-08
1.35757e-06
2.17498e-07
1.53962e-06
5.65276e-07
1.70592e-06
9.41356e-07
1.77404e-06
1.35558e-06
1.74564e-06
1.87545e-06
2.09093e-06
2.74768e-06
2.4369e-06
-1.16164e-08
-4.12836e-08
-4.24933e-08
-7.09789e-08
-8.45784e-08
-4.40472e-08
-1.31819e-07
2.50418e-08
-1.76697e-07
1.24629e-07
-2.10444e-07
2.45751e-07
-2.23167e-07
3.8252e-07
-2.05813e-07
5.33557e-07
-1.43909e-07
6.8665e-07
-2.48076e-08
8.3585e-07
1.57176e-07
9.79643e-07
4.02382e-07
1.11237e-06
7.06249e-07
1.23575e-06
1.03989e-06
1.37228e-06
1.34019e-06
1.47375e-06
1.5662e-06
1.51963e-06
1.85128e-06
1.80586e-06
2.35223e-06
2.24673e-06
-1.08172e-08
-3.04667e-08
-3.84871e-08
-4.33095e-08
-7.30569e-08
-9.47779e-09
-1.06528e-07
5.85127e-08
-1.30371e-07
1.48472e-07
-1.36959e-07
2.52338e-07
-1.17509e-07
3.6307e-07
-6.37984e-08
4.79846e-07
3.04857e-08
5.92366e-07
1.69089e-07
6.97247e-07
3.50074e-07
7.98659e-07
5.67798e-07
8.94641e-07
8.13684e-07
9.89863e-07
1.07934e-06
1.10662e-06
1.3183e-06
1.23478e-06
1.48188e-06
1.35606e-06
1.65729e-06
1.63044e-06
2.07837e-06
1.93115e-06
-1.0159e-08
-2.03082e-08
-3.33176e-08
-2.01516e-08
-5.87765e-08
1.59804e-08
-7.8683e-08
7.84187e-08
-8.76752e-08
1.57463e-07
-8.21597e-08
2.46822e-07
-5.80564e-08
3.38966e-07
-6.08458e-09
4.27874e-07
7.15725e-08
5.14708e-07
1.71309e-07
5.9751e-07
2.93434e-07
6.76533e-07
4.34542e-07
7.53532e-07
5.89111e-07
8.35291e-07
7.49515e-07
9.46218e-07
9.02586e-07
1.08171e-06
1.02858e-06
1.23006e-06
1.19593e-06
1.4631e-06
1.80142e-06
1.47288e-06
-9.57808e-09
-1.07311e-08
-2.85309e-08
-1.19982e-09
-4.74181e-08
3.48663e-08
-6.39322e-08
9.49317e-08
-7.90127e-08
1.72542e-07
-8.95576e-08
2.57366e-07
-8.86538e-08
3.38061e-07
-7.47812e-08
4.14e-07
-4.1873e-08
4.81799e-07
2.50276e-08
5.30608e-07
1.33082e-07
5.68477e-07
2.83279e-07
6.03331e-07
4.7512e-07
6.43447e-07
7.17901e-07
7.03433e-07
1.01227e-06
7.87338e-07
1.34934e-06
8.92994e-07
1.76184e-06
1.0506e-06
1.26967e-06
2.29359e-06
-1.21825e-08
1.45031e-09
-3.25724e-08
1.91887e-08
-5.26071e-08
5.48995e-08
-5.89288e-08
1.01252e-07
-3.49934e-08
1.48605e-07
3.15767e-08
1.90794e-07
1.47037e-07
2.22598e-07
3.15419e-07
2.45616e-07
5.36798e-07
2.60419e-07
8.03794e-07
2.63609e-07
1.11194e-06
2.60327e-07
1.45815e-06
2.57123e-07
1.84193e-06
2.59663e-07
2.26983e-06
2.75526e-07
2.74949e-06
3.07673e-07
3.28733e-06
3.55155e-07
3.90961e-06
4.28318e-07
5.29353e-07
4.64993e-06
1.45021e-09
2.06388e-08
7.55382e-08
1.7679e-07
3.25395e-07
5.16189e-07
7.38787e-07
9.84403e-07
1.24482e-06
1.50843e-06
1.76876e-06
2.02588e-06
2.28554e-06
2.56107e-06
2.86874e-06
3.2239e-06
3.65221e-06
4.18157e-06
1.4577e-05
-1.4577e-05
2.86131e-05
-1.4036e-05
3.97901e-05
-1.1177e-05
4.69158e-05
-7.12567e-06
4.91701e-05
-2.25427e-06
4.65181e-05
2.65197e-06
3.95783e-05
6.93979e-06
2.95248e-05
1.00535e-05
1.71529e-05
1.23719e-05
2.86942e-06
1.42835e-05
-1.27121e-05
1.55816e-05
-2.9125e-05
1.64129e-05
-4.61455e-05
1.70206e-05
-6.37921e-05
1.76466e-05
-8.2271e-05
1.84789e-05
-0.000101923
1.96516e-05
-0.000123185
2.12619e-05
-0.000146575
2.33905e-05
-0.000172698
2.61231e-05
-0.000202277
2.95786e-05
-0.000236112
3.38352e-05
-0.000273567
3.74549e-05
-0.000319468
4.59011e-05
-0.000368621
4.91528e-05
-0.000420806
5.21856e-05
-0.00047406
5.3254e-05
-0.000526954
5.28936e-05
-0.000579618
5.26638e-05
-0.000630819
5.12014e-05
-0.000679003
4.81836e-05
-0.000723069
4.40662e-05
-0.000761807
3.8738e-05
-0.000794226
3.24193e-05
-0.000819834
2.56079e-05
-0.000838803
1.8969e-05
-0.000851971
1.31679e-05
-0.000860935
8.96447e-06
-0.000867061
6.12543e-06
-0.000871451
4.39037e-06
-0.000873873
2.42209e-06
-0.000874447
5.73661e-07
-0.000872159
-2.28831e-06
-0.000864634
-7.5247e-06
-0.000849522
-1.51116e-05
-0.000833094
-1.64284e-05
-0.000813352
-1.97417e-05
-0.000789507
-2.38451e-05
-0.000761567
-2.79398e-05
-0.000729569
-3.19987e-05
-0.000693506
-3.60624e-05
-0.000653442
-4.00638e-05
-0.000609592
-4.38506e-05
-0.000562536
-4.70562e-05
-0.000512647
-4.98889e-05
-0.000461758
-5.08885e-05
-0.000411513
-5.0245e-05
-0.000363796
-4.77174e-05
-0.000320781
-4.30149e-05
-0.000282507
-3.82738e-05
-0.000248688
-3.38194e-05
-0.000220837
-2.78503e-05
-0.00019985
-2.09873e-05
-0.000185886
-1.39639e-05
-0.000178789
-7.09696e-06
-0.000178201
-5.88231e-07
-0.000183235
5.03464e-06
-0.000190955
7.71915e-06
-0.000194022
3.06775e-06
-0.000180132
-1.38899e-05
-0.000136207
-4.39254e-05
-5.2198e-05
-8.4009e-05
8.24943e-05
-0.000134692
0.000274913
-0.000192419
0.000426379
-0.000151466
0.000535689
-0.000109311
0.000603912
-6.82223e-05
0.000674303
-7.03909e-05
0.000825842
-0.00015154
0.00107551
-0.000249664
0.00135285
-0.000277344
0.00161178
-0.000258926
0.00182453
-0.000212757
0.00197661
-0.00015208
0.00206211
-8.54963e-05
0.00208612
-2.40046e-05
0.00205791
2.82054e-05
0.00198717
7.0735e-05
0.00188164
0.000105532
0.00174841
0.000133231
0.00159177
0.000156638
0.00141066
0.00018111
0.00120784
0.000202827
0.000990402
0.000217435
0.000760549
0.000229852
0.000518821
0.000241728
0.000330984
0.000187837
0.000137445
0.000193539
-3.66173e-05
0.000174062
-0.000194339
0.000157722
-0.000335211
0.000140872
-0.000457312
0.000122101
-0.000558807
0.000101495
-0.000637886
7.90786e-05
-0.000693132
5.52458e-05
-0.000724982
3.18509e-05
-0.000732626
7.64334e-06
-0.000717837
-1.47889e-05
-0.000682051
-3.57858e-05
-0.000627396
-5.46554e-05
-0.000557311
-7.00844e-05
-0.000476176
-8.11356e-05
-0.000388405
-8.77701e-05
-0.000297229
-9.11763e-05
-0.000204748
-9.24811e-05
-0.000119804
-8.49437e-05
-4.55038e-05
-7.43005e-05
2.38251e-05
-6.93289e-05
8.50221e-05
-6.1197e-05
0.000133261
-4.82386e-05
0.000168692
-3.54316e-05
0.000195203
-2.65107e-05
0.000212643
-1.744e-05
0.000221231
-8.5877e-06
0.000221787
-5.56583e-07
0.000214876
6.91078e-06
0.000201084
1.37923e-05
0.000181299
1.97855e-05
0.000156784
2.45145e-05
0.000129065
2.77191e-05
9.97706e-05
2.92942e-05
7.04944e-05
2.92761e-05
4.26646e-05
2.78298e-05
1.74882e-05
2.51764e-05
-4.24587e-06
2.1734e-05
-2.21707e-05
1.79248e-05
-3.60454e-05
1.38747e-05
-4.56726e-05
9.62719e-06
-5.10737e-05
5.40106e-06
-5.25013e-05
1.42755e-06
-5.03976e-05
-2.10371e-06
-4.505e-05
-5.34759e-06
-3.67652e-05
-8.28486e-06
-2.68469e-05
-9.91836e-06
-1.7193e-05
-9.65388e-06
-7.41719e-06
-9.77583e-06
1.39442e-06
-8.81163e-06
9.20931e-06
-7.81491e-06
1.57062e-05
-6.49689e-06
2.01002e-05
-4.39406e-06
2.28932e-05
-2.79297e-06
2.56912e-05
-2.79803e-06
2.83439e-05
-2.65272e-06
3.01912e-05
-1.8474e-06
3.11754e-05
-9.84166e-07
3.17376e-05
-5.6225e-07
3.24948e-05
-7.57251e-07
3.37672e-05
-1.27248e-06
3.56511e-05
-1.88393e-06
3.81411e-05
-2.48996e-06
4.10232e-05
-2.88216e-06
4.37831e-05
-2.75996e-06
4.54642e-05
-1.68118e-06
4.38175e-05
1.64673e-06
3.56588e-05
8.15862e-06
1.81109e-05
1.75478e-05
-1.03262e-05
2.84371e-05
-4.80059e-05
3.76796e-05
-9.07795e-05
4.27735e-05
-0.000132677
4.18972e-05
-0.000158355
2.56782e-05
-0.000146438
-1.19174e-05
-7.63407e-05
-7.00969e-05
5.00446e-05
-0.000126385
0.000204643
-0.000154598
0.000371459
-0.000166817
0.000535906
-0.000164447
0.000669829
-0.000133923
0.000737461
-6.76321e-05
0.000734695
2.76611e-06
9.75318e-05
0.000637163
1.34917e-05
-2.80687e-05
2.42355e-05
-2.47798e-05
3.10524e-05
-1.79939e-05
3.26145e-05
-8.68773e-06
2.92719e-05
1.08831e-06
2.20855e-05
9.8384e-06
1.22891e-05
1.67363e-05
7.57789e-07
2.15848e-05
-1.15182e-05
2.46479e-05
-2.38135e-05
2.65789e-05
-3.6022e-05
2.77901e-05
-4.8279e-05
2.86698e-05
-6.08277e-05
2.95693e-05
-7.3962e-05
3.07808e-05
-8.80053e-05
3.25223e-05
-0.000103293
3.49396e-05
-0.000120147
3.81156e-05
-0.000138843
4.20867e-05
-0.000159564
4.68443e-05
-0.000182313
5.23275e-05
-0.000206903
5.84249e-05
-0.00023427
6.48227e-05
-0.0002619
7.35307e-05
-0.000294109
8.13618e-05
-0.00033205
9.01264e-05
-0.000377363
9.85673e-05
-0.000431047
0.000106578
-0.000492452
0.000114069
-0.000561631
0.000120381
-0.00063822
0.000124772
-0.000720828
0.000126674
-0.000807681
0.000125591
-0.000896415
0.000121154
-0.000983987
0.000113179
-0.0010667
0.00010168
-0.00114037
8.68387e-05
-0.00120042
6.90159e-05
-0.00124288
4.85845e-05
-0.00126452
2.60345e-05
-0.00126454
2.44327e-06
-0.00124387
-2.01039e-05
-0.00120628
-3.98791e-05
-0.00115795
-5.58515e-05
-0.00110998
-6.30799e-05
-0.00105114
-7.52702e-05
-0.000991869
-7.90119e-05
-0.000934874
-8.08403e-05
-0.00088013
-8.26838e-05
-0.000827044
-8.50843e-05
-0.000775064
-8.80423e-05
-0.00072359
-9.15376e-05
-0.00067206
-9.53811e-05
-0.000619965
-9.91511e-05
-0.000567412
-0.000102442
-0.000513617
-0.000104684
-0.000458348
-0.000105514
-0.000401577
-0.000104488
-0.000343523
-0.000101069
-0.000286641
-9.51562e-05
-0.000233666
-8.67942e-05
-0.000186458
-7.50583e-05
-0.000147657
-5.97887e-05
-0.000119787
-4.18331e-05
-0.000104037
-2.2847e-05
-9.98666e-05
-4.75899e-06
-0.000105037
1.02047e-05
-0.00011435
1.70323e-05
-0.000116951
5.66873e-06
-9.70599e-05
-3.37807e-05
-3.92483e-05
-0.000101737
6.4475e-05
-0.000187732
0.000207369
-0.000277586
0.000381422
-0.000366472
0.000637179
-0.000407223
0.000911578
-0.000383709
0.00119622
-0.000352862
0.00153864
-0.000412816
0.00193571
-0.00054861
0.00229446
-0.000608416
0.00255295
-0.000535835
0.00268155
-0.000387522
0.00268693
-0.000218141
0.00259087
-5.60118e-05
0.00242542
7.99474e-05
0.00221846
0.000182952
0.00199168
0.000254988
0.00175994
0.000302476
0.0015326
0.000332877
0.00131397
0.000351861
0.00110641
0.000364193
0.000913567
0.000373954
0.000735658
0.000380736
0.000570614
0.000382479
0.00042178
0.000378686
0.000294026
0.000369483
0.0001285
0.000353363
-2.71061e-05
0.000349145
-0.00018314
0.000330096
-0.000329152
0.000303734
-0.000459517
0.000271237
-0.00057107
0.000233654
-0.00066173
0.000192155
-0.000729623
0.000146971
-0.000772781
9.84048e-05
-0.000792484
5.15537e-05
-0.000788461
3.62011e-06
-0.000761347
-4.1903e-05
-0.00071346
-8.36726e-05
-0.000647294
-0.000120821
-0.000566413
-0.000150965
-0.000474778
-0.00017277
-0.000376721
-0.000185827
-0.000277665
-0.000190232
-0.000183661
-0.000186486
-9.45539e-05
-0.00017405
-1e-05
-0.000158854
6.40282e-05
-0.000143357
0.000126143
-0.000123312
0.000177713
-9.9809e-05
0.000218383
-7.6101e-05
0.000247135
-5.52627e-05
0.000264022
-3.4327e-05
0.000270899
-1.54646e-05
0.000268744
1.5984e-06
0.000258581
1.70738e-05
0.000241371
3.10019e-05
0.000218229
4.29273e-05
0.000190491
5.2253e-05
0.000159629
5.85808e-05
0.000127169
6.17543e-05
9.46121e-05
6.18329e-05
6.32717e-05
5.91703e-05
3.4122e-05
5.43261e-05
7.99216e-06
4.78638e-05
-1.43287e-05
4.02457e-05
-3.2253e-05
3.17989e-05
-4.54441e-05
2.28182e-05
-5.38163e-05
1.37733e-05
-5.75062e-05
5.11746e-06
-5.68449e-05
-2.76505e-06
-5.25008e-05
-9.69179e-06
-4.59562e-05
-1.48294e-05
-3.8983e-05
-1.68916e-05
-2.69382e-05
-2.16987e-05
-1.57869e-05
-2.09272e-05
-4.51885e-06
-2.00797e-05
5.29435e-06
-1.76281e-05
1.32648e-05
-1.44674e-05
1.95244e-05
-1.06536e-05
2.38188e-05
-7.08739e-06
2.59209e-05
-4.90016e-06
2.66998e-05
-3.43165e-06
2.68339e-05
-1.98156e-06
2.61439e-05
-2.94214e-07
2.48809e-05
7.00693e-07
2.39069e-05
2.16766e-07
2.34411e-05
-8.06784e-07
2.36883e-05
-2.13112e-06
2.47561e-05
-3.55777e-06
2.66598e-05
-4.78597e-06
2.93e-05
-5.40019e-06
3.21642e-05
-4.54537e-06
3.40494e-05
-2.38577e-07
3.22679e-05
9.94017e-06
2.19202e-05
2.78954e-05
-2.76036e-06
5.31176e-05
-4.43569e-05
7.92761e-05
-9.63882e-05
9.48048e-05
-0.000141039
8.65476e-05
-0.000165855
5.04946e-05
-0.000152429
-2.53438e-05
-8.24599e-05
-0.000140066
5.18548e-05
-0.0002607
0.000257135
-0.000359878
0.000488582
-0.000398264
0.000700382
-0.000376247
0.000846376
-0.000279917
0.000884033
-0.000105289
0.000814231
7.25675e-05
0.000258893
0.000652871
5.22804e-06
-3.32968e-05
1.04303e-05
-2.99821e-05
1.09877e-05
-1.85513e-05
7.58929e-06
-5.28931e-06
1.72853e-06
6.94907e-06
-5.0924e-06
1.66593e-05
-1.18065e-05
2.34503e-05
-1.78875e-05
2.76658e-05
-2.32497e-05
3.00101e-05
-2.79414e-05
3.12706e-05
-3.2262e-05
3.21106e-05
-3.66323e-05
3.30401e-05
-4.1499e-05
3.4436e-05
-4.72783e-05
3.65601e-05
-5.43361e-05
3.95801e-05
-6.29891e-05
4.35926e-05
-7.35173e-05
4.86438e-05
-8.61738e-05
5.47432e-05
-0.000101196
6.1867e-05
-0.000118815
6.99461e-05
-0.000139231
7.88408e-05
-0.000162476
8.80676e-05
-0.000190667
0.000101722
-0.000219389
0.000110083
-0.000250904
0.000121642
-0.000285951
0.000133615
-0.000325191
0.000145818
-0.000369274
0.000158152
-0.000419045
0.000170152
-0.000475038
0.000180765
-0.000537704
0.00018934
-0.000607448
0.000195335
-0.000684182
0.000197887
-0.000766861
0.000195859
-0.000853188
0.000188006
-0.000939557
0.000173208
-0.00102133
0.00015079
-0.00109363
0.000120885
-0.00115233
8.47371e-05
-0.00119475
4.48621e-05
-0.00121965
4.79015e-06
-0.00122772
-3.18104e-05
-0.00122164
-6.19293e-05
-0.00120162
-8.31002e-05
-0.00117004
-0.000106843
-0.00113165
-0.000117411
-0.00108454
-0.00012795
-0.00103019
-0.000137026
-0.000970174
-0.000145104
-0.000905815
-0.000152401
-0.000838517
-0.000158836
-0.00076928
-0.000164618
-0.000699244
-0.000169187
-0.000629501
-0.000172184
-0.000560751
-0.000173434
-0.000493377
-0.000172888
-0.000427393
-0.000170472
-0.000362273
-0.000166189
-0.000297492
-0.000159937
-0.000233386
-0.0001509
-0.000171145
-0.000137299
-0.000113679
-0.000117254
-6.54387e-05
-9.00734e-05
-3.09852e-05
-5.73005e-05
-1.30449e-05
-2.26993e-05
-1.03398e-05
7.49962e-06
-1.4571e-05
2.12635e-05
-8.20069e-06
-7.01562e-07
3.27011e-05
-7.46824e-05
0.000129448
-0.000198484
0.000291217
-0.000349501
0.000508366
-0.000494736
0.00076684
-0.000624945
0.00106828
-0.000708667
0.00142521
-0.000740636
0.00184957
-0.000777222
0.00230049
-0.00086374
0.0026476
-0.000895712
0.00279689
-0.000757705
0.00276942
-0.000508369
0.00261364
-0.000231736
0.00238116
1.43366e-05
0.00212193
0.000203221
0.00187152
0.000330352
0.00164846
0.000406018
0.00145731
0.000446131
0.0012939
0.000465885
0.00115007
0.000476713
0.0010164
0.00048553
0.000884807
0.000495783
0.000750612
0.000508149
0.000610382
0.000520966
0.000461065
0.000531796
0.000301636
0.000538115
0.000133976
0.000537144
-4.25226e-05
0.000529861
-0.000209853
0.000516476
-0.00037003
0.000490273
-0.00051887
0.000452574
-0.000651777
0.000404144
-0.000765058
0.000346935
-0.000855458
0.000282555
-0.000920867
0.000212381
-0.000961819
0.000139356
-0.0009768
6.65349e-05
-0.00096661
-6.56961e-06
-0.000928497
-8.00157e-05
-0.000865515
-0.000146655
-0.000782358
-0.000203978
-0.000683541
-0.000249782
-0.000573549
-0.000282763
-0.000457575
-0.000301801
-0.000341022
-0.000306784
-0.00022763
-0.000299879
-0.000120601
-0.000281079
-2.35486e-05
-0.000255907
5.91314e-05
-0.000226037
0.000128163
-0.000192344
0.000184261
-0.000155907
0.000227245
-0.000119085
0.000256309
-8.43265e-05
0.000273731
-5.1749e-05
0.000280688
-2.24212e-05
0.000278648
3.63816e-06
0.000268704
2.70181e-05
0.000251835
4.78703e-05
0.000229264
6.54989e-05
0.000202394
7.9123e-05
0.000172613
8.83612e-05
0.000141224
9.31434e-05
0.000109438
9.36193e-05
7.83624e-05
9.02458e-05
4.90394e-05
8.3649e-05
2.24847e-05
7.44185e-05
-4.80878e-07
6.32112e-05
-1.92925e-05
5.06106e-05
-3.37066e-05
3.72322e-05
-4.37454e-05
2.38121e-05
-4.95958e-05
1.09678e-05
-5.15952e-05
-7.65695e-07
-5.01857e-05
-1.11014e-05
-4.50748e-05
-1.99403e-05
-3.44789e-05
-2.74876e-05
-2.81798e-05
-2.79978e-05
-1.5778e-05
-3.3329e-05
-3.76685e-06
-3.20909e-05
7.96847e-06
-2.93635e-05
1.82066e-05
-2.47056e-05
2.59346e-05
-1.83816e-05
3.08444e-05
-1.19972e-05
3.2903e-05
-6.95876e-06
3.27546e-05
-3.2833e-06
3.15676e-05
-7.9462e-07
3.01943e-05
1.07908e-06
2.86843e-05
2.21063e-06
2.68082e-05
2.09289e-06
2.48274e-05
1.17396e-06
2.31688e-05
-4.72539e-07
2.21483e-05
-2.53735e-06
2.19063e-05
-4.54396e-06
2.22551e-05
-5.74908e-06
2.25633e-05
-4.85358e-06
2.17492e-05
5.7541e-07
1.80582e-05
1.36311e-05
9.25747e-06
3.66961e-05
-6.39965e-06
6.87747e-05
-2.88558e-05
0.000101732
-5.8034e-05
0.000123983
-8.90744e-05
0.000117588
-0.000110909
7.23292e-05
-0.000100135
-3.61178e-05
-2.81197e-05
-0.000212081
0.000124035
-0.000412855
0.000337825
-0.000573668
0.000571451
-0.00063189
0.000766875
-0.000571672
0.000878462
-0.000391504
0.000875498
-0.000102324
0.000767289
0.000180777
0.000437049
0.000589133
-9.62992e-07
-3.23338e-05
-4.791e-06
-2.61541e-05
-1.00921e-05
-1.32502e-05
-1.52967e-05
-8.46642e-08
-1.89844e-05
1.06368e-05
-2.0451e-05
1.8126e-05
-1.97111e-05
2.27104e-05
-1.72448e-05
2.51995e-05
-1.37242e-05
2.64895e-05
-9.81973e-06
2.73662e-05
-6.13711e-06
2.8428e-05
-3.18548e-06
3.00885e-05
-1.36482e-06
3.26154e-05
-9.76369e-07
3.61717e-05
-2.24722e-06
4.0851e-05
-5.35925e-06
4.67046e-05
-1.04777e-05
5.37623e-05
-1.77772e-05
6.20428e-05
-2.74635e-05
7.15533e-05
-3.97869e-05
8.22695e-05
-5.50305e-05
9.40845e-05
-7.36193e-05
0.000106656
-9.3836e-05
0.000121938
-0.000119176
0.000135423
-0.000148249
0.000150715
-0.000181645
0.000167011
-0.000218995
0.000183167
-0.000259856
0.000199013
-0.00030417
0.000214465
-0.000351127
0.000227722
-0.000400199
0.000238413
-0.000452066
0.000247202
-0.00050786
0.000253682
-0.000568661
0.000256659
-0.000635091
0.000254436
-0.000706949
0.000245066
-0.000783001
0.000226841
-0.000861119
0.000199003
-0.000938657
0.000162275
-0.00101284
0.000119049
-0.00108101
7.29513e-05
-0.00114073
2.79103e-05
-0.00118969
-1.29634e-05
-0.00122589
-4.69025e-05
-0.00125189
-8.08422e-05
-0.00126023
-0.000109067
-0.00125209
-0.000136091
-0.00122703
-0.000162087
-0.00118531
-0.000186825
-0.00112857
-0.000209147
-0.00105882
-0.000228579
-0.000978236
-0.000245205
-0.000889596
-0.000257827
-0.000795716
-0.000266064
-0.000699329
-0.000269822
-0.000603125
-0.000269091
-0.000509949
-0.000263649
-0.000422013
-0.000254125
-0.00034013
-0.00024182
-0.00026395
-0.000227081
-0.000192019
-0.00020923
-0.000123245
-0.000186028
-5.86995e-05
-0.000154619
-2.30131e-06
-0.000113699
4.0737e-05
-6.57376e-05
6.861e-05
-2.03734e-05
8.98449e-05
2.86148e-08
0.000126495
-3.73515e-05
0.000207638
-0.000155826
0.000356564
-0.000347411
0.000579144
-0.000572081
0.000866151
-0.000781742
0.00119123
-0.000950027
0.00155225
-0.00106968
0.001962
-0.00115039
0.00238494
-0.00120016
0.0026897
-0.0011685
0.00275546
-0.000961475
0.00261741
-0.000619655
0.00235939
-0.000250343
0.00206319
6.44563e-05
0.00178809
0.000289442
0.0015649
0.000426404
0.00139802
0.000497238
0.00127538
0.000528653
0.00117889
0.000542624
0.00109144
0.000553332
0.00100018
0.000567977
0.000896913
0.000588796
0.000777587
0.000615109
0.000641345
0.000644391
0.000489307
0.000673003
0.00032373
0.000697374
0.000147891
0.000713954
-3.61594e-05
0.000721194
-0.000223262
0.000716964
-0.000406779
0.000699993
-0.000583716
0.00066721
-0.000749319
0.000618178
-0.000898897
0.000553721