/*--------------------------------*- C++ -*----------------------------------*\
| =========                 |                                                 |
| \\      /  F ield         | OpenFOAM: The Open Source CFD Toolbox           |
|  \\    /   O peration     | Version:  2112                                  |
|   \\  /    A nd           | Website:  www.openfoam.com                      |
|    \\/     M anipulation  |                                                 |
\*---------------------------------------------------------------------------*/
FoamFile
{
    version     2.0;
    format      ascii;
    arch        "LSB;label=32;scalar=64";
    class       volScalarField;
    location    "0.01";
    object      omegaU_0;
}
// * * * * * * * * * * * * * * * * * * * * * * * * * * * * * * * * * * * * * //

dimensions      [0 0 -1 0 0 0 0];

internalField   nonuniform List<scalar> 
12225
(
57533.3
82602.8
91413.2
93268.4
92327.5
90283.2
87816.1
85222.2
82652.6
80196.1
77908.1
75822.9
73957.8
72316.2
70889.4
69655.7
68604.7
67591.2
3434.67
7790.91
11931.5
15556.8
18579.2
21049.2
23070.3
24740
26133.9
27307.4
28300.7
29143.9
29859.9
30467.3
30980.6
31413.5
31805.4
32264.7
489.703
799.551
1303.84
1985.2
2788.52
3647.54
4507.98
5330.18
6087.14
6762.8
7350.06
7848.53
8262.6
8600.16
8872.45
9093.89
9289.44
9470.6
397.24
409.894
441.957
502.217
596.243
723.991
881.405
1061.62
1255.91
1454.97
1650.15
1834.42
2002.83
2152.63
2283.33
2396.23
2495.22
2581.87
394.97
394.293
394.785
397.484
403.651
414.32
430.101
451.091
476.823
506.324
538.3
571.346
604.153
635.664
665.185
692.394
717.325
739.918
394.902
393.741
392.683
391.793
391.19
391.008
391.367
392.358
394.013
396.298
399.109
402.301
405.706
409.166
412.55
415.77
418.764
421.46
394.883
393.693
392.566
391.503
390.515
389.611
388.798
388.081
387.466
386.95
386.527
386.182
385.899
385.66
385.449
385.255
385.071
384.887
394.871
393.671
392.534
391.457
390.443
389.49
388.596
387.757
386.97
386.234
385.543
384.893
384.28
383.7
383.15
382.629
382.134
381.666
394.862
393.654
392.51
391.427
390.403
389.439
388.531
387.675
386.868
386.107
385.388
384.707
384.062
383.448
382.865
382.31
381.782
381.279
394.857
393.644
392.495
391.407
390.378
389.406
388.49
387.625
386.807
386.035
385.303
384.61
383.952
383.326
382.731
382.164
381.624
381.106
394.865
393.658
392.515
391.432
390.406
389.436
388.52
387.653
386.834
386.057
385.322
384.624
383.961
383.331
382.732
382.161
381.616
381.094
394.893
393.713
392.594
391.532
390.526
389.573
388.671
387.817
387.008
386.241
385.514
384.823
384.167
383.544
382.95
382.385
381.846
381.332
394.932
393.788
392.701
391.671
390.693
389.766
388.888
388.055
387.265
386.516
385.804
385.129
384.487
383.876
383.296
382.743
382.217
381.715
394.971
393.863
392.811
391.811
390.863
389.963
389.109
388.299
387.53
386.799
386.105
385.446
384.819
384.223
383.656
383.117
382.604
382.117
395.001
393.921
392.895
391.92
390.994
390.114
389.279
388.486
387.733
387.016
386.336
385.688
385.072
384.487
383.93
383.4
382.897
382.419
395.021
393.96
392.951
391.991
391.08
390.213
389.389
388.606
387.862
387.154
386.48
385.839
385.23
384.649
384.097
383.572
383.073
382.6
395.033
393.984
392.985
392.034
391.131
390.271
389.453
388.676
387.935
387.231
386.56
385.921
385.312
384.733
384.181
383.656
383.157
382.683
395.041
393.998
393.005
392.06
391.16
390.304
389.489
388.712
387.973
387.268
386.597
385.957
385.346
384.764
384.21
383.681
383.177
382.698
395.039
393.994
392.999
392.051
391.148
390.289
389.47
388.689
387.944
387.234
386.557
385.91
385.292
384.702
384.139
383.601
383.087
382.596
395.027
393.971
392.964
392.006
391.092
390.222
389.392
388.6
387.845
387.123
386.434
385.776
385.146
384.543
383.967
383.415
382.887
382.381
395.002
393.923
392.895
391.915
390.98
390.089
389.239
388.428
387.653
386.913
386.205
385.527
384.879
384.258
383.663
383.092
382.545
382.02
394.953
393.826
392.753
391.73
390.754
389.822
388.934
388.085
387.275
386.499
385.758
385.048
384.368
383.717
383.092
382.492
381.917
381.364
394.882
393.689
392.552
391.468
390.434
389.449
388.508
387.611
386.753
385.934
385.15
384.401
383.684
382.997
382.34
381.71
381.106
380.528
394.853
393.632
392.468
391.359
390.303
389.297
388.338
387.424
386.553
385.723
384.934
384.183
383.472
382.799
382.166
381.571
381.016
380.5
394.858
393.641
392.478
391.371
390.32
389.33
388.405
387.555
386.789
386.123
385.572
385.154
384.887
384.789
384.875
385.159
385.65
386.355
394.869
393.679
392.599
391.687
391.043
390.797
391.097
392.107
393.998
396.938
401.08
406.561
413.484
421.923
431.909
443.431
456.439
470.821
395.029
395.004
397.258
403.309
414.825
433.18
459.407
494.26
538.189
591.332
653.546
724.436
803.37
889.506
981.826
1079.2
1180.4
1284.2
410.197
472.91
591.637
772.829
1015.06
1309.09
1644.1
2009.91
2397.24
2797.94
3205.18
3613.28
4017.61
4414.41
4800.69
5174.21
5533.15
5877.41
1491.53
3424.95
5562.89
7680.13
9642.04
11394.2
12938.4
14297.9
15500.5
16572.8
17537.6
18413.5
19215.1
19953.6
20637.9
21273.3
21864
22413.8
37750.6
57767.3
66977.7
70606.2
71556.9
71248
70339.1
69136.1
67785
66358.3
64893.8
63413.1
61930.7
60457.4
59002.3
57574.1
56178.2
54827.5
729.626
828.171
1046.58
1331.02
1677.09
2064.05
2482.14
2923.22
3382.35
3856.63
4344.52
4844.94
5356.68
5877.91
6405.83
6936.47
7464.72
7984.41
8488.52
8969.49
9419.46
9830.58
10195.3
10506.6
10758.3
10945.3
11063.4
11109.5
11081.7
10979.1
10802
10551.8
10230.6
9842.2
9392.23
8885.61
8364.91
7835.51
7301.85
6769.45
6244.38
5732.86
5241.04
4774.82
4339.79
3941.09
3583.4
3270.81
3006.75
2793.98
2634.52
2529.65
2479.81
2484.79
2543.71
2655.3
2817.5
3014.03
3242.76
3502.57
3789.24
4098.53
4426.29
4768.44
5120.99
5480.29
5842.97
6205.96
6566.56
6922.41
7271.5
7612.12
7942.88
8262.63
8570.5
8865.8
9148.06
9416.93
9672.26
9914
10142.2
10357.1
10559.1
10748.9
10927
11093.9
11250
11395.8
11531.7
11658.5
11776.7
11887
11989.8
12085.8
12175.5
12259.3
12337.7
12411
12479.7
12544.1
12604.5
12661.2
12713.9
12762.6
12807.7
12849.7
12889.1
12925.9
12960.6
12993.2
13023.9
13052.9
13080.2
13106.2
13130.8
13154.2
13176.8
13198.7
13220.1
13241
13261.6
13281.8
13301.7
13321.3
13340.5
13359.4
13378
13396.3
13414.3
13432.2
13449.8
13467.3
13484.6
13501.8
13518.9
13535.9
13552.8
13569.7
13586.5
13603.3
13620.1
13636.9
13653.8
13670.6
13687.5
13704.4
13721.4
13738.5
13755.6
13772.8
13790.1
13807.5
13824.9
13842.4
13860
13877.7
13895.3
13913
13930.7
13948.3
13965.9
13983.2
14000.3
14017
14033.2
14048.6
14063
14076.1
14087.3
14096
14101.3
14102.1
14096.6
14082.2
14055.7
14010.5
13941.3
13823.7
13670.8
13306.7
1244.64
1139.77
1294.4
1487.5
1706.97
1935.92
2168
2397.45
2619.87
2831.53
3029.24
3210.19
3371.8
3511.57
3626.89
3715.12
3773.69
3800.23
3792.85
3750.3
3672.2
3559.27
3413.46
3238.1
3037.94
2819.25
2589.63
2357.69
2132.69
1924.11
1741.08
1591.8
1483.02
1418.96
1399.54
1422.72
1444.5
1463.32
1478.3
1488.73
1494.08
1494.04
1488.48
1477.46
1461.21
1440.11
1414.64
1385.38
1352.97
1318.07
1281.32
1243.39
1204.86
1166.29
1128.11
1090.76
1055.63
1023.98
994.165
966.223
940.22
916.177
894.086
873.876
855.82
841.732
831.581
824.496
819.954
817.695
817.575
819.496
823.381
829.156
836.748
846.082
857.078
869.649
883.702
899.131
915.823
933.659
952.531
972.351
993.029
1014.46
1036.52
1059.07
1082
1105.17
1128.49
1151.87
1175.2
1198.43
1221.48
1244.29
1266.8
1288.97
1310.74
1332.08
1352.96
1373.36
1393.95
1415.43
1437.75
1460.85
1484.74
1509.43
1534.96
1561.32
1588.22
1615.5
1643.01
1670.49
1697.58
1723.86
1748.99
1772.72
1794.98
1815.84
1835.49
1854.15
1872
1889.18
1905.72
1921.63
1936.9
1951.52
1965.51
1978.92
1991.77
2004.11
2015.99
2027.45
2038.51
2049.21
2059.58
2069.66
2079.47
2089.04
2098.4
2107.57
2116.58
2125.44
2134.18
2142.83
2151.39
2159.88
2168.33
2176.76
2185.18
2193.61
2202.07
2210.59
2219.19
2227.9
2236.76
2245.8
2255.08
2264.64
2274.58
2284.98
2295.96
2307.67
2320.3
2334.12
2349.46
2366.78
2386.67
2409.99
2437.9
2472.07
2514.96
2570.18
2643.39
2743.05
2885.01
3083.95
3410.34
3791.08
2003.58
1277.03
1330.78
1420.64
1518.41
1623.06
1728.32
1827.07
1916.68
1995.14
2060.83
2112.4
2148.79
2169.23
2173.31
2161
2132.78
2089.73
2033.64
1967
1892.99
1815.32
1738.04
1665.26
1600.88
1548.2
1509.68
1486.65
1479.2
1486.18
1505.41
1533.98
1568.63
1606.29
1644.48
1678.27
1705.78
1726.27
1739.2
1744.19
1741.11
1730.08
1711.4
1685.61
1653.38
1615.54
1572.95
1526.55
1477.16
1425.58
1372.49
1318.5
1264.18
1209.99
1156.38
1103.72
1054.22
1008.75
965.262
923.846
884.58
847.494
812.578
779.796
749.084
720.356
693.508
668.43
645.015
623.156
602.752
583.712
565.949
549.383
533.943
519.562
506.178
493.733
482.175
471.453
461.519
452.33
443.853
436.062
428.932
422.435
416.537
411.201
406.39
402.067
398.198
394.751
391.7
389.027
386.712
384.73
383.053
381.649
380.492
379.556
378.817
378.255
377.851
377.591
377.46
377.448
377.545
377.741
378.032
378.424
379.148
380.284
381.788
383.599
385.658
387.909
390.3
392.785
395.333
397.922
400.542
403.188
405.857
408.543
411.236
413.922
416.584
419.208
421.779
424.285
426.718
429.069
431.336
433.516
435.61
437.62
439.547
441.396
443.17
444.874
446.513
448.091
449.612
451.082
452.505
453.886
455.228
456.538
457.818
459.075
460.313
461.536
462.75
463.961
465.174
466.396
467.635
468.901
470.204
471.558
472.979
474.49
476.116
477.893
479.865
482.092
484.653
487.654
491.244
495.626
501.096
508.082
517.235
529.56
546.753
571.472
609.516
667.694
776.976
933.24
3019.25
1300.93
1272.43
1305.58
1341.26
1380.81
1423.96
1465.43
1502.47
1533.51
1558.11
1576.09
1587.52
1592.76
1592.49
1587.7
1579.76
1570.31
1561.22
1554.43
1551.86
1555.18
1565.62
1583.93
1610.29
1644.31
1685.12
1731.44
1781.76
1834.45
1887.86
1940.44
1990.86
2038.06
2081.2
2115.56
2139.36
2152.03
2153.31
2143.21
2122.01
2090.3
2048.91
1998.95
1941.73
1878.79
1811.75
1742.2
1671.48
1600.58
1530.15
1460.62
1392.22
1325.16
1259.59
1195.72
1136.87
1082
1029.59
979.761
932.619
888.231
846.622
807.774
771.629
738.09
707.032
678.31
651.766
627.238
604.564
583.589
564.169
546.169
529.471
513.967
499.562
486.17
473.714
462.127
451.347
441.317
431.991
423.336
415.325
407.927
401.111
394.842
389.082
383.796
378.95
374.512
370.453
366.747
363.37
360.299
357.512
354.99
352.711
350.658
348.812
347.156
345.675
344.353
343.176
342.13
341.204
340.385
339.664
339.03
338.475
337.992
337.575
337.226
336.949
336.734
336.574
336.464
336.397
336.369
336.376
336.413
336.478
336.567
336.677
336.806
336.951
337.108
337.274
337.448
337.626
337.807
337.989
338.169
338.347
338.522
338.693
338.86
339.022
339.179
339.332
339.479
339.622
339.759
339.893
340.022
340.147
340.269
340.387
340.502
340.615
340.726
340.836
340.944
341.052
341.161
341.27
341.382
341.497
341.617
341.743
341.878
342.024
342.185
342.367
342.575
342.818
343.108
343.463
343.905
344.471
345.215
346.22
347.625
349.674
352.789
357.921
366.636
384.74
418.183
4288.3
1289.92
1189.61
1195.95
1205.9
1219.18
1239.27
1263.14
1288.51
1314.41
1340.48
1366.48
1392.62
1419.33
1447.21
1477.01
1509.58
1545.79
1586.53
1632.55
1684.42
1742.37
1806.26
1875.6
1949.56
2027.05
2106.74
2187.13
2266.65
2343.81
2417.12
2485.1
2546.42
2599.97
2644.91
2676.66
2693.44
2695.04
2681.44
2652.85
2609.68
2552.64
2482.66
2401.06
2309.72
2211.15
2108.34
2004.46
1902.36
1804.05
1710.45
1621.66
1537.27
1456.73
1379.48
1305.68
1238.67
1175.07
1114.19
1056.14
1001
948.863
899.802
853.864
811.062
771.368
734.712
700.988
670.055
641.745
615.871
592.237
570.645
550.902
532.828
516.255
501.034
487.031
474.132
462.233
451.245
441.089
431.699
423.024
415.024
407.659
400.89
394.678
388.98
383.757
378.972
374.59
370.58
366.916
363.572
360.524
357.753
355.236
352.956
350.893
349.031
347.353
345.844
344.489
343.275
342.19
341.22
340.356
339.588
338.905
338.299
337.763
337.289
336.869
336.5
336.175
335.891
335.644
335.429
335.243
335.082
334.945
334.826
334.726
334.64
334.568
334.507
334.457
334.415
334.38
334.351
334.327
334.308
334.293
334.28
334.27
334.262
334.256
334.251
334.247
334.244
334.241
334.239
334.238
334.237
334.235
334.235
334.234
334.233
334.233
334.232
334.231
334.231
334.231
334.23
334.23
334.23
334.231
334.231
334.232
334.234
334.237
334.24
334.245
334.251
334.26
334.272
334.288
334.31
334.34
334.382
334.442
334.53
334.664
334.874
335.22
335.832
336.991
339.536
345.279
5706.08
1278.02
1111.47
1107.93
1111.8
1120.63
1139.12
1166.45
1200.83
1241.08
1286.28
1335.68
1388.85
1445.72
1506.83
1572.69
1643.82
1720.82
1804.25
1894.44
1991.29
2094.16
2202.13
2313.93
2427.89
2542.02
2654.18
2762.26
2864.24
2958.36
3043.09
3117.14
3179.43
3229.12
3265.57
3287.24
3293
3282.73
3256.32
3213.7
3154.84
3079.6
2987.79
2879.43
2755.27
2617.52
2470.36
2319.65
2171.85
2032.48
1904.58
1788.56
1683.29
1586.96
1497.72
1416.62
1343.01
1272.9
1205.9
1141.8
1080.56
1022.2
966.786
914.427
865.217
819.224
776.478
736.965
700.627
667.362
637.03
609.463
584.465
561.829
541.34
522.789
505.974
490.709
476.827
464.178
452.631
442.073
432.412
423.574
415.493
408.11
401.367
395.211
389.591
384.46
379.775
375.5
371.602
368.049
364.816
361.878
359.211
356.795
354.609
352.634
350.853
349.249
347.808
346.513
345.353
344.315
343.387
342.559
341.821
341.163
340.579
340.059
339.597
339.187
338.823
338.5
338.213
337.959
337.734
337.535
337.359
337.203
337.065
336.942
336.833
336.735
336.648
336.57
336.5
336.436
336.378
336.325
336.277
336.232
336.19
336.151
336.114
336.079
336.046
336.015
335.984
335.955
335.926
335.899
335.872
335.845
335.819
335.793
335.767
335.742
335.717
335.692
335.667
335.642
335.618
335.593
335.568
335.544
335.519
335.494
335.469
335.444
335.419
335.394
335.369
335.343
335.318
335.293
335.267
335.243
335.219
335.198
335.181
335.172
335.179
335.216
335.31
335.532
336.015
337.186
7153.35
1289.25
1049.72
1044.82
1052.47
1067.89
1095.91
1137.16
1189.87
1251.95
1321.34
1396.56
1477.56
1565.1
1659.49
1761.03
1870.36
1988.03
2114.17
2248.27
2389.04
2534.48
2682
2828.56
2970.85
3105.82
3230.94
3344.53
3445.65
3534.04
3609.75
3672.93
3723.63
3761.73
3787.01
3798.47
3795.03
3776.09
3741.83
3693.02
3630.53
3554.51
3463.61
3354.71
3223.83
3068.19
2888.94
2692.59
2490.54
2295.75
2118.04
1961.2
1824.7
1705.69
1601.22
1512.23
1431.47
1356.54
1286.06
1219.09
1155.04
1093.61
1034.7
978.351
924.698
873.905
826.124
781.475
740.025
701.788
666.721
634.734
605.696
579.439
555.771
534.484
515.358
498.175
482.729
468.823
456.283
444.962
434.731
425.48
417.104
409.513
402.625
396.37
390.686
385.519
380.822
376.555
372.681
369.168
365.984
363.103
360.499
358.149
356.032
354.126
352.413
350.877
349.5
348.268
347.168
346.187
345.312
344.535
343.844
343.23
342.686
342.205
341.778
341.401
341.068
340.773
340.511
340.279
340.073
339.89
339.728
339.583
339.454
339.339
339.236
339.143
339.06
338.985
338.916
338.854
338.797
338.745
338.697
338.652
338.61
338.57
338.533
338.498
338.464
338.432
338.401
338.371
338.341
338.313
338.285
338.257
338.23
338.203
338.177
338.15
338.124
338.098
338.071
338.045
338.019
337.992
337.965
337.939
337.912
337.884
337.857
337.829
337.8
337.771
337.741
337.711
337.68
337.648
337.615
337.581
337.546
337.51
337.474
337.44
337.412
337.396
337.404
337.47
337.632
338.017
8543.32
1328.7
1005.5
1002.73
1018.62
1045.61
1088.26
1147.73
1221.61
1306.47
1399.4
1499.78
1609.06
1728.13
1856.87
1995.64
2144.86
2304.26
2472.46
2646.86
2823.72
2998.49
3166.33
3322.85
3464.91
3591.13
3701.85
3798.64
3883.57
3958.59
4025.02
4083.41
4133.76
4175.7
4208.23
4221.47
4212.41
4180.32
4126.79
4055.91
3973.79
3886.83
3798.52
3706.31
3600.7
3468.28
3298.44
3088.61
2848.7
2599.18
2362.52
2152.29
1972.21
1819.93
1696.12
1590.69
1498.74
1417.24
1343.5
1275.36
1211.25
1150.09
1091.22
1034.35
979.421
926.564
876
827.979
782.735
740.447
701.23
665.123
632.102
602.086
574.946
550.52
528.619
509.036
491.555
475.964
462.061
449.659
438.581
428.665
419.765
411.757
404.534
398.009
392.109
386.771
381.943
377.578
373.633
370.072
366.859
363.964
361.359
359.016
356.913
355.027
353.339
351.829
350.481
349.279
348.21
347.259
346.414
345.666
345.003
344.417
343.9
343.443
343.041
342.687
342.375
342.101
341.859
341.646
341.458
341.293
341.146
341.017
340.903
340.801
340.711
340.631
340.56
340.496
340.439
340.387
340.34
340.297
340.258
340.222
340.188
340.157
340.128
340.101
340.075
340.05
340.026
340.004
339.982
339.96
339.939
339.919
339.898
339.878
339.859
339.839
339.82
339.8
339.781
339.761
339.742
339.722
339.702
339.682
339.662
339.642
339.621
339.6
339.579
339.557
339.535
339.512
339.488
339.463
339.438
339.412
339.384
339.356
339.328
339.302
339.279
339.266
339.272
339.316
339.424
339.649
9828.24
1393.66
975.536
975.445
1001.14
1041.4
1100.34
1178.81
1273.23
1379.01
1494.03
1619.91
1758.64
1910.12
2074.02
2250.42
2438.6
2636.22
2839.13
3041.58
3237.04
3419.35
3584.08
3729.53
3857.11
3970.56
4074.59
4173.47
4270.07
4365.4
4458.65
4547.5
4628.23
4696.67
4749.58
4769.48
4754.61
4701.97
4610.2
4482.87
4331.26
4174.19
4032.07
3916.8
3822.77
3727.18
3603.14
3427.32
3191.69
2913.42
2626.92
2361.88
2131.83
1945.73
1791.26
1661.36
1551.82
1458.71
1378.39
1307.58
1243.55
1184.15
1127.81
1073.51
1020.67
969.106
918.868
870.191
823.396
778.821
736.771
697.484
661.109
627.711
597.274
569.721
544.925
522.727
502.939
485.363
469.788
455.997
443.775
432.921
423.256
414.627
406.904
399.976
393.754
388.161
383.131
378.606
374.537
370.879
367.593
364.643
361.997
359.626
357.504
355.607
353.913
352.403
351.058
349.863
348.802
347.861
347.028
346.291
345.641
345.068
344.563
344.119
343.729
343.386
343.086
342.823
342.593
342.391
342.214
342.059
341.923
341.804
341.699
341.607
341.527
341.456
341.393
341.337
341.288
341.244
341.205
341.169
341.138
341.109
341.082
341.058
341.035
341.015
340.995
340.977
340.959
340.943
340.927
340.911
340.896
340.882
340.867
340.853
340.84
340.826
340.812
340.799
340.785
340.772
340.758
340.745
340.731
340.718
340.704
340.69
340.676
340.661
340.647
340.632
340.616
340.601
340.584
340.568
340.551
340.533
340.516
340.498
340.481
340.467
340.458
340.459
340.478
340.531
340.637
340.827
10987.5
1484.2
956.054
957.457
992.929
1046.39
1121.3
1217.52
1330.06
1454.32
1590.65
1742.33
1910.33
2093.6
2291.48
2503.02
2725.34
2953.09
3178.84
3394.22
3591.98
3768.01
3922.68
4060.73
4189.56
4316.74
4447.78
4584.81
4726.56
4868.99
5006.43
5132.42
5239.71
5320.27
5368.15
5394.03
5395.65
5360.6
5272.24
5115.83
4889.03
4614.58
4339.5
4114.9
3962.29
3858.52
3767.19
3645.33
3453.89
3187.56
2876.64
2567.88
2302.7
2077.49
1887.75
1729.59
1598.24
1489.09
1397.92
1320.9
1254.55
1195.81
1142.17
1091.7
1043.07
995.473
948.535
902.219
856.719
812.374
769.588
728.766
690.26
654.342
621.183
590.855
563.346
538.573
516.405
496.67
479.172
463.699
450.036
437.974
427.316
417.886
409.525
402.096
395.483
389.585
384.317
379.606
375.391
371.618
368.241
365.219
362.516
360.101
357.944
356.021
354.308
352.784
351.43
350.229
349.164
348.223
347.391
346.657
346.01
345.441
344.941
344.502
344.118
343.781
343.487
343.23
343.005
342.809
342.638
342.489
342.359
342.245
342.147
342.06
341.985
341.919
341.862
341.812
341.767
341.728
341.694
341.663
341.636
341.612
341.59
341.57
341.551
341.535
341.519
341.505
341.491
341.479
341.467
341.455
341.444
341.433
341.423
341.413
341.403
341.393
341.383
341.374
341.364
341.354
341.345
341.335
341.326
341.316
341.306
341.297
341.287
341.277
341.267
341.256
341.246
341.235
341.224
341.213
341.202
341.19
341.179
341.169
341.16
341.155
341.156
341.167
341.197
341.257
341.366
341.543
11990
1646.17
945.254
945.013
989.311
1054.76
1143.94
1255.35
1382.78
1523.13
1679.59
1855.58
2050.71
2263.23
2491.76
2733.59
2983.14
3231.82
3469.5
3687.08
3879.59
4048.14
4199.66
4344.23
4491.11
4645.11
4804.81
4963.33
5111.38
5241.16
5348.86
5434.46
5500.02
5547.18
5573.15
5621.31
5684.72
5744.06
5770.04
5722.11
5554.64
5246.76
4837.59
4437.78
4148.67
3964.39
3846.99
3748.53
3605.24
3379.41
3071.92
2757.3
2460.87
2198.57
1975.79
1790.34
1637.26
1511.23
1407.48
1321.82
1250.52
1190.14
1137.59
1090.26
1046.05
1003.46
961.537
919.789
878.082
836.55
795.51
755.379
716.613
679.645
644.843
612.478
582.717
555.619
531.156
509.23
489.697
472.383
457.096
443.641
431.819
421.439
412.321
404.3
397.23
390.983
385.449
380.536
376.166
372.274
368.804
365.709
362.949
360.488
358.295
356.342
354.606
353.064
351.696
350.483
349.411
348.463
347.627
346.891
346.243
345.674
345.174
344.737
344.354
344.019
343.727
343.473
343.251
343.058
342.89
342.744
342.617
342.507
342.412
342.329
342.257
342.194
342.14
342.092
342.051
342.015
341.983
341.956
341.931
341.909
341.89
341.872
341.857
341.843
341.83
341.818
341.807
341.796
341.787
341.778
341.769
341.761
341.752
341.745
341.737
341.73
341.722
341.715
341.708
341.701
341.694
341.686
341.679
341.672
341.665
341.658
341.651
341.643
341.636
341.629
341.621
341.613
341.606
341.598
341.59
341.583
341.576
341.57
341.567
341.567
341.573
341.59
341.625
341.689
341.795
341.96
12634.9
2140.11
973.376
937.264
987.499
1062.95
1163.65
1286.78
1425.43
1578.84
1752.5
1949.31
2167.75
2405.43
2659.92
2926.55
3196.91
3459.52
3702.51
3917.7
4104.08
4268.49
4422.58
4577.16
4736.33
4894.16
5036.13
5145.56
5211.82
5235.21
5226.33
5201.84
5180.49
5179.8
5210.74
5295.94
5426.48
5587.08
5755.54
5893.75
5932.96
5792.74
5417.63
4893.56
4442.69
4131.54
3931.09
3799.46
3669.61
3476.52
3210.36
2897.57
2581.04
2291.28
2041.55
1833.18
1661.84
1521.63
1406.97
1313.15
1236.22
1172.76
1119.62
1073.89
1033.06
995.056
958.365
921.994
885.403
848.41
811.105
773.766
736.792
700.643
665.783
632.631
601.53
572.724
546.351
522.452
500.985
481.847
464.894
449.957
436.852
425.391
415.385
406.654
399.03
392.359
386.509
381.362
376.82
372.803
369.242
366.08
363.27
360.771
358.549
356.574
354.82
353.264
351.884
350.663
349.583
348.63
347.789
347.049
346.399
345.828
345.327
344.889
344.506
344.172
343.881
343.627
343.406
343.214
343.048
342.903
342.778
342.67
342.576
342.495
342.425
342.364
342.312
342.266
342.227
342.192
342.163
342.136
342.114
342.094
342.076
342.06
342.046
342.033
342.022
342.012
342.002
341.993
341.985
341.977
341.97
341.963
341.957
341.95
341.944
341.938
341.932
341.926
341.921
341.915
341.91
341.904
341.898
341.893
341.887
341.882
341.876
341.871
341.865
341.859
341.854
341.848
341.842
341.837
341.831
341.826
341.822
341.819
341.819
341.822
341.831
341.851
341.888
341.951
342.052
342.205
12895.2
2972.53
1128.34
951.202
990.672
1070.96
1178.41
1307.99
1452.93
1614.64
1800.18
2012.55
2250.2
2508.79
2784.14
3070.83
3357.91
3631.3
3877.81
4090.53
4272.31
4434.67
4591.81
4752.06
4910.64
5048.28
5138.99
5163.47
5119.65
5022.67
4897.82
4774.3
4681.56
4646.88
4696.83
4809.4
4974.17
5181.22
5420.18
5673.05
5881.63
5964.04
5790.31
5319.98
4788.7
4365.37
4064.35
3858.34
3700.68
3522
3276.07
2971.15
2647.03
2340.77
2072.55
1847.75
1663.53
1513.85
1392.34
1293.48
1212.85
1146.95
1092.79
1047.66
1009.02
974.57
942.427
911.172
879.875
848.024
815.442
782.203
748.558
714.88
681.608
649.201
618.091
588.653
561.18
535.869
512.823
492.058
473.516
457.087
442.627
429.97
418.938
409.352
401.037
393.826
387.564
382.115
377.357
373.189
369.525
366.295
363.441
360.914
358.675
356.689
354.929
353.368
351.987
350.764
349.684
348.73
347.889
347.15
346.499
345.928
345.428
344.99
344.608
344.274
343.983
343.729
343.509
343.318
343.152
343.009
342.884
342.777
342.684
342.604
342.535
342.475
342.424
342.379
342.341
342.307
342.279
342.254
342.232
342.213
342.196
342.181
342.168
342.156
342.146
342.137
342.128
342.12
342.113
342.106
342.1
342.094
342.088
342.083
342.078
342.073
342.068
342.063
342.058
342.053
342.049
342.044
342.04
342.035
342.031
342.026
342.022
342.017
342.013
342.008
342.004
341.999
341.995
341.991
341.987
341.983
341.981
341.979
341.981
341.986
341.997
342.018
342.055
342.116
342.211
342.35
12690.8
4087.76
1540.24
1041.31
1011.78
1083.19
1191.69
1323.2
1470.64
1636.78
1829.03
2050.21
2297.91
2567.92
2856.49
3156.62
3456.21
3739.68
3992.43
4207.11
4387.86
4549
4707.42
4871.64
5031.33
5153.52
5204.29
5164.7
5041.65
4861.38
4654.88
4452.56
4294.02
4244.04
4325.72
4457.87
4633.89
4848.93
5099.07
5379.23
5644.04
5840.65
5837.44
5547.86
5071.14
4598.45
4222.92
3943.34
3731.35
3529.95
3282.67
2979.68
2652.13
2337.66
2059.78
1826.45
1635.98
1482.52
1359.21
1259.77
1179.07
1113.24
1059.35
1015.01
978.014
946.244
917.751
890.887
864.421
837.547
809.839
781.162
751.6
721.399
690.908
660.543
630.738
601.91
574.43
548.604
524.655
502.725
482.873
465.088
449.302
435.401
423.243
412.67
403.516
395.615
388.805
382.937
377.871
373.487
369.678
366.356
363.447
360.892
358.641
356.655
354.899
353.347
351.975
350.762
349.691
348.746
347.913
347.18
346.536
345.971
345.476
345.042
344.663
344.333
344.044
343.793
343.575
343.385
343.221
343.078
342.955
342.849
342.757
342.677
342.609
342.55
342.499
342.455
342.418
342.385
342.357
342.332
342.311
342.293
342.277
342.262
342.25
342.239
342.229
342.22
342.212
342.205
342.198
342.192
342.187
342.181
342.176
342.171
342.167
342.162
342.158
342.154
342.15
342.146
342.142
342.138
342.134
342.13
342.127
342.123
342.119
342.115
342.111
342.108
342.104
342.1
342.097
342.094
342.091
342.088
342.086
342.086
342.089
342.095
342.107
342.128
342.164
342.222
342.311
342.439
11902.8
5320.73
2327.48
1333.03
1102.83
1115.35
1207.35
1333.12
1478.31
1643.96
1836.67
2059.28
2309.98
2585.11
2880.39
3188.45
3497.14
3790.46
4052.86
4275.65
4461.85
4625.44
4783.95
4946.29
5101.43
5218.23
5260.76
5208.08
5067.6
4868.7
4645.8
4427.24
4239.69
4155.29
4218.64
4345.44
4509.5
4707.84
4936.21
5183.63
5436.84
5658.72
5745.42
5580.26
5188.01
4733.18
4333.15
4009.21
3749.13
3511
3242.86
2929.55
2596.32
2278.3
1998.57
1765.04
1575.92
1425.13
1305.48
1210.18
1133.52
1071.14
1019.93
977.71
942.717
913.288
887.746
864.492
842.159
819.733
796.571
772.352
747.004
720.64
693.509
665.95
638.354
611.129
584.662
559.3
535.332
512.977
492.388
473.647
456.777
441.747
428.479
416.862
406.762
398.035
390.528
384.092
378.583
373.867
369.823
366.344
363.338
360.73
358.457
356.468
354.722
353.186
351.832
350.638
349.586
348.659
347.842
347.124
346.493
345.94
345.455
345.031
344.661
344.338
344.056
343.811
343.598
343.413
343.253
343.113
342.993
342.889
342.799
342.722
342.655
342.597
342.548
342.505
342.468
342.436
342.409
342.385
342.365
342.347
342.331
342.318
342.306
342.295
342.286
342.278
342.27
342.263
342.257
342.251
342.246
342.241
342.237
342.232
342.228
342.224
342.22
342.217
342.213
342.209
342.206
342.203
342.199
342.196
342.192
342.189
342.186
342.183
342.179
342.176
342.173
342.17
342.167
342.164
342.162
342.16
342.159
342.159
342.162
342.169
342.181
342.203
342.237
342.292
342.374
342.492
10303.9
6471.85
3546.39
2043.94
1423.01
1243.25
1255.72
1348.81
1479.29
1636.51
1822.37
2038.85
2284.88
2557.44
2852.14
3162.04
3476.03
3779.02
4055.2
4293.78
4494.07
4666.21
4825.7
4982.9
5132.91
5253.47
5313.9
5292.46
5190.22
5029.9
4844.02
4663.78
4518.15
4439.28
4434.17
4492.61
4603.35
4757.03
4943.05
5149.08
5363.61
5556.88
5643.17
5514.58
5175.23
4758.15
4365.67
4023.59
3730.45
3454.9
3155.2
2821.97
2480.49
2162.8
1888.6
1663.3
1483.54
1342.32
1231.96
1145.39
1076.6
1020.91
975.015
936.772
904.786
877.919
854.991
834.712
815.804
797.171
778.018
757.865
736.5
713.917
690.262
665.791
640.836
615.773
590.982
566.824
543.613
521.607
501.002
481.934
464.487
448.694
434.547
421.999
410.973
401.366
393.058
385.92
379.818
374.622
370.207
366.454
363.26
360.532
358.192
356.174
354.424
352.901
351.569
350.401
349.375
348.473
347.68
346.983
346.371
345.835
345.365
344.954
344.595
344.283
344.011
343.774
343.569
343.391
343.237
343.104
342.989
342.89
342.804
342.731
342.668
342.613
342.566
342.526
342.492
342.462
342.436
342.414
342.395
342.379
342.364
342.352
342.341
342.331
342.323
342.315
342.309
342.303
342.297
342.292
342.287
342.283
342.279
342.275
342.271
342.268
342.264
342.261
342.258
342.254
342.251
342.248
342.245
342.242
342.239
342.236
342.233
342.23
342.228
342.225
342.222
342.219
342.217
342.214
342.212
342.211
342.21
342.211
342.214
342.22
342.233
342.253
342.286
342.338
342.414
342.523
7553.29
7044.55
4761.82
3054.59
2054.08
1569.55
1402.25
1404.65
1491.35
1625.26
1795.22
1998.36
2232.65
2495.18
2781.83
3086.48
3399.7
3708.34
3997.49
4254.74
4475.05
4662.78
4829
4984.22
5130.09
5255.41
5339.71
5364.31
5323.94
5230.29
5106.87
4980.78
4877.08
4815.42
4792.53
4812.22
4873.83
4972.66
5100.02
5245.98
5400.65
5533.13
5562.27
5401.9
5074.92
4691.48
4316.25
3968.08
3649.81
3335.46
2997.29
2639.85
2292.24
1982.28
1723.51
1516.67
1355.61
1231.88
1137.18
1064.27
1007.17
961.237
923.172
890.905
863.305
839.719
819.536
801.963
786.019
770.691
755.117
738.696
721.09
702.181
682.016
660.765
638.688
616.113
593.399
570.908
548.976
527.891
507.88
489.108
471.687
455.676
441.102
427.959
416.219
405.83
396.722
388.809
381.99
376.159
371.203
367.011
363.477
360.501
357.99
355.867
354.064
352.522
351.197
350.051
349.055
348.186
347.427
346.761
346.177
345.666
345.218
344.826
344.484
344.186
343.926
343.701
343.506
343.337
343.191
343.065
342.957
342.864
342.784
342.715
342.657
342.606
342.564
342.527
342.495
342.469
342.446
342.426
342.409
342.394
342.382
342.371
342.361
342.353
342.346
342.339
342.333
342.328
342.323
342.319
342.315
342.311
342.308
342.304
342.301
342.298
342.295
342.292
342.289
342.287
342.284
342.281
342.278
342.276
342.273
342.27
342.268
342.265
342.262
342.26
342.257
342.254
342.252
342.25
342.248
342.247
342.246
342.247
342.25
342.256
342.268
342.288
342.319
342.367
342.439
342.54
5361.82
7075.98
5767.95
4158.94
2926.57
2140.75
1721.13
1559
1553.38
1636.82
1775.87
1956.3
2171.53
2417.17
2688.93
2981.43
3286.95
3594.71
3891.65
4165.12
4406.72
4615.11
4795.61
4956.27
5101.96
5230.09
5330.64
5391.47
5405.86
5377.28
5318.93
5249.57
5188.32
5148.15
5126.46
5129.48
5159.01
5212.85
5286.06
5374.34
5469
5530.43
5477.39
5260
4932.99
4572.59
4205.85
3849.94
3506.11
3152.12
2778.25
2404.46
2061.58
1770.44
1536.83
1356.31
1219.94
1118.01
1041.84
984.304
939.798
904.099
874.205
848.253
825.333
805.129
787.487
772.094
758.35
745.449
732.568
719.04
704.43
688.53
671.303
652.845
633.349
613.085
592.374
571.565
551.002
530.999
511.82
493.669
476.681
460.935
446.462
433.257
421.295
410.542
400.953
392.475
385.05