/*--------------------------------*- C++ -*----------------------------------*\
| =========                 |                                                 |
| \\      /  F ield         | OpenFOAM: The Open Source CFD Toolbox           |
|  \\    /   O peration     | Version:  2112                                  |
|   \\  /    A nd           | Website:  www.openfoam.com                      |
|    \\/     M anipulation  |                                                 |
\*---------------------------------------------------------------------------*/
FoamFile
{
    version     2.0;
    format      ascii;
    arch        "LSB;label=32;scalar=64";
    class       surfaceScalarField;
    location    "0.14";
    object      phi;
}
// * * * * * * * * * * * * * * * * * * * * * * * * * * * * * * * * * * * * * //

dimensions      [0 3 -1 0 0 0 0];

oriented        oriented;

internalField   nonuniform List<scalar> 
24170
(
3.09994e-06
8.84695e-08
2.99601e-06
1.03926e-07
2.90005e-06
9.59586e-08
2.80743e-06
9.26252e-08
2.71796e-06
8.94656e-08
2.63222e-06
8.57389e-08
2.55023e-06
8.19873e-08
2.47133e-06
7.89033e-08
2.39544e-06
7.58921e-08
2.32171e-06
7.37337e-08
2.25022e-06
7.14887e-08
2.17976e-06
7.04585e-08
2.1102e-06
6.95626e-08
2.04016e-06
7.00361e-08
1.96748e-06
7.26829e-08
1.89167e-06
7.58115e-08
1.79931e-06
9.23597e-08
1.10362e-07
1.68894e-06
3.44247e-06
6.32496e-08
3.45176e-06
9.46399e-08
3.45559e-06
9.21287e-08
3.45563e-06
9.25853e-08
3.45093e-06
9.41638e-08
3.44222e-06
9.44485e-08
3.43055e-06
9.36555e-08
3.41635e-06
9.30977e-08
3.39998e-06
9.22673e-08
3.38148e-06
9.22351e-08
3.36104e-06
9.19259e-08
3.3385e-06
9.29964e-08
3.3138e-06
9.42619e-08
3.28639e-06
9.74541e-08
3.25577e-06
1.03301e-07
3.22008e-06
1.11504e-07
3.17969e-06
1.32748e-07
1.54252e-07
3.1358e-06
3.67567e-06
5.00972e-08
3.68308e-06
8.72282e-08
3.68758e-06
8.76278e-08
3.69237e-06
8.77973e-08
3.6963e-06
9.02379e-08
3.699e-06
9.17442e-08
3.70069e-06
9.19704e-08
3.70157e-06
9.22137e-08
3.70144e-06
9.23932e-08
3.70045e-06
9.32279e-08
3.69815e-06
9.4231e-08
3.69487e-06
9.6267e-08
3.68984e-06
9.92932e-08
3.68351e-06
1.03784e-07
3.67502e-06
1.11791e-07
3.66446e-06
1.22065e-07
3.65544e-06
1.41775e-07
1.6175e-07
3.64794e-06
3.93518e-06
4.03099e-08
3.94314e-06
7.92675e-08
3.94697e-06
8.3795e-08
3.95046e-06
8.43059e-08
3.95354e-06
8.71551e-08
3.95573e-06
8.95585e-08
3.95708e-06
9.06194e-08
3.95787e-06
9.14272e-08
3.95798e-06
9.22799e-08
3.95752e-06
9.36845e-08
3.9562e-06
9.55528e-08
3.95417e-06
9.82961e-08
3.95107e-06
1.02399e-07
3.94697e-06
1.07884e-07
3.94201e-06
1.16747e-07
3.93627e-06
1.27804e-07
3.93329e-06
1.44752e-07
1.63194e-07
3.93185e-06
4.21459e-06
3.28505e-08
4.22289e-06
7.09593e-08
4.22714e-06
7.95544e-08
4.23034e-06
8.10981e-08
4.23328e-06
8.42172e-08
4.23547e-06
8.73652e-08
4.2368e-06
8.92948e-08
4.23747e-06
9.07525e-08
4.23747e-06
9.22796e-08
4.23685e-06
9.4306e-08
4.23544e-06
9.69604e-08
4.23327e-06
1.00466e-07
4.23026e-06
1.05415e-07
4.22633e-06
1.11808e-07
4.22205e-06
1.21027e-07
4.21747e-06
1.32392e-07
4.21478e-06
1.47442e-07
1.64207e-07
4.21376e-06
4.5148e-06
2.71414e-08
4.52279e-06
6.29633e-08
4.52746e-06
7.48883e-08
4.5306e-06
7.79513e-08
4.53347e-06
8.13531e-08
4.53577e-06
8.50649e-08
4.53725e-06
8.78112e-08
4.53804e-06
8.99605e-08
4.53817e-06
9.21516e-08
4.53766e-06
9.4814e-08
4.53644e-06
9.81861e-08
4.53447e-06
1.02432e-07
4.53182e-06
1.08066e-07
4.52845e-06
1.15177e-07
4.52494e-06
1.24538e-07
4.52139e-06
1.35945e-07
4.51919e-06
1.49638e-07
1.64754e-07
4.51865e-06
4.83711e-06
2.27501e-08
4.84442e-06
5.56592e-08
4.84939e-06
6.99126e-08
4.85263e-06
7.47126e-08
4.85545e-06
7.85325e-08
4.85784e-06
8.26761e-08
4.8595e-06
8.61458e-08
4.86047e-06
8.89976e-08
4.86078e-06
9.18375e-08
4.86047e-06
9.5123e-08
4.85952e-06
9.91369e-08
4.85791e-06
1.04045e-07
4.85575e-06
1.10222e-07
4.8531e-06
1.17834e-07
4.85041e-06
1.27224e-07
4.84792e-06
1.38431e-07
4.84649e-06
1.51072e-07
1.64868e-07
4.84638e-06
5.18299e-06
1.93443e-08
5.18944e-06
4.92009e-08
5.19456e-06
6.47941e-08
5.19799e-06
7.12895e-08
5.20082e-06
7.56996e-08
5.20329e-06
8.02093e-08
5.20514e-06
8.42915e-08
5.20632e-06
8.78196e-08
5.20687e-06
9.1283e-08
5.20684e-06
9.5155e-08
5.20625e-06
9.97281e-08
5.20511e-06
1.0519e-07
5.20355e-06
1.11774e-07
5.2017e-06
1.19688e-07
5.19992e-06
1.29003e-07
5.19851e-06
1.39842e-07
5.19794e-06
1.51638e-07
1.64396e-07
5.19841e-06
5.55401e-06
1.66679e-08
5.55962e-06
4.35945e-08
5.56471e-06
5.97071e-08
5.56834e-06
6.76587e-08
5.57125e-06
7.27878e-08
5.57381e-06
7.76502e-08
5.57587e-06
8.22341e-08
5.57731e-06
8.63754e-08
5.57817e-06
9.04186e-08
5.57851e-06
9.48191e-08
5.57838e-06
9.98608e-08
5.57782e-06
1.05749e-07
5.57698e-06
1.12609e-07
5.57603e-06
1.20646e-07
5.57525e-06
1.29776e-07
5.57494e-06
1.40152e-07
5.5754e-06
1.51184e-07
1.63032e-07
5.57676e-06
5.95192e-06
1.45273e-08
5.95675e-06
3.8765e-08
5.96166e-06
5.47913e-08
5.96547e-06
6.38461e-08
5.96853e-06
6.97316e-08
5.97122e-06
7.49571e-08
5.97351e-06
7.99452e-08
5.97528e-06
8.46091e-08
5.97653e-06
8.91653e-08
5.97733e-06
9.40188e-08
5.97776e-06
9.94294e-08
5.9779e-06
1.05612e-07
5.9779e-06
1.12609e-07
5.97794e-06
1.20612e-07
5.97827e-06
1.29443e-07
5.97914e-06
1.39279e-07
5.9808e-06
1.4953e-07
1.60485e-07
5.98334e-06
6.37856e-06
1.27784e-08
6.38272e-06
3.46009e-08
6.38739e-06
5.01309e-08
6.39133e-06
5.98982e-08
6.39459e-06
6.64767e-08
6.39748e-06
7.2069e-08
6.40004e-06
7.73805e-08
6.40219e-06
8.24607e-08
6.40391e-06
8.74397e-08
6.40528e-06
9.2654e-08
6.40639e-06
9.83236e-08
6.40733e-06
1.04663e-07
6.40828e-06
1.11659e-07
6.40941e-06
1.19482e-07
6.41096e-06
1.27896e-07
6.41313e-06
1.37106e-07
6.41616e-06
1.46509e-07
1.56518e-07
6.42012e-06
5.7421e-06
1.1516e-08
5.7452e-06
3.15007e-08
5.74891e-06
4.64149e-08
5.75232e-06
5.64921e-08
5.75525e-06
6.35417e-08
5.7579e-06
6.94249e-08
5.76032e-06
7.49563e-08
5.76248e-06
8.03008e-08
5.76437e-06
8.55519e-08
5.76604e-06
9.09876e-08
5.76758e-06
9.67849e-08
5.76909e-06
1.03153e-07
5.77071e-06
1.10038e-07
5.77258e-06
1.17604e-07
5.77491e-06
1.25573e-07
5.77783e-06
1.34181e-07
5.78154e-06
1.42799e-07
1.51942e-07
5.78612e-06
6.99942e-06
1.02558e-08
7.00259e-06
2.83273e-08
7.0066e-06
4.23994e-08
7.01056e-06
5.2541e-08
7.01414e-06
5.99565e-08
7.01745e-06
6.61133e-08
7.02058e-06
7.18319e-08
7.0235e-06
7.73783e-08
7.02622e-06
8.28329e-08
7.02879e-06
8.84156e-08
7.03133e-06
9.42496e-08
7.03395e-06
1.0053e-07
7.03682e-06
1.07169e-07
7.0401e-06
1.14325e-07
7.04399e-06
1.21683e-07
7.04865e-06
1.29513e-07
7.0543e-06
1.37155e-07
1.45222e-07
7.06102e-06
8.5321e-06
9.00145e-09
8.53534e-06
2.50888e-08
8.53966e-06
3.80824e-08
8.54421e-06
4.79854e-08
8.5486e-06
5.55696e-08
8.5528e-06
6.19135e-08
8.55689e-06
6.7745e-08
8.56088e-06
7.33881e-08
8.56478e-06
7.89256e-08
8.56867e-06
8.45276e-08
8.57266e-06
9.02574e-08
8.57691e-06
9.62885e-08
8.58157e-06
1.025e-07
8.58685e-06
1.09052e-07
8.59293e-06
1.15596e-07
8.60001e-06
1.22438e-07
8.60828e-06
1.28886e-07
1.35634e-07
8.61787e-06
1.04005e-05
7.74067e-09
1.04038e-05
2.17441e-08
1.04085e-05
3.34e-08
1.04138e-05
4.27148e-08
1.04192e-05
5.01758e-08
1.04246e-05
5.65234e-08
1.043e-05
6.23262e-08
1.04355e-05
6.79062e-08
1.0441e-05
7.33466e-08
1.04468e-05
7.87783e-08
1.04528e-05
8.4208e-08
1.04593e-05
8.97797e-08
1.04665e-05
9.53461e-08
1.04745e-05
1.01065e-07
1.04835e-05
1.06574e-07
1.04938e-05
1.12197e-07
1.05054e-05
1.17236e-07
1.22436e-07
1.05186e-05
1.26781e-05
6.43306e-09
1.26817e-05
1.81764e-08
1.26869e-05
2.81853e-08
1.26931e-05
3.65143e-08
1.26998e-05
4.3472e-08
1.27068e-05
4.95301e-08
1.2714e-05
5.50734e-08
1.27216e-05
6.0364e-08
1.27295e-05
6.54685e-08
1.27377e-05
7.0484e-08
1.27466e-05
7.5372e-08
1.27561e-05
8.02414e-08
1.27665e-05
8.49289e-08
1.2778e-05
8.95832e-08
1.27907e-05
9.38488e-08
1.28049e-05
9.80512e-08
1.28206e-05
1.01525e-07
1.05021e-07
1.2838e-05
1.54546e-05
4.99644e-09
1.54586e-05
1.41612e-08
1.54647e-05
2.21152e-08
1.54722e-05
2.89931e-08
1.54807e-05
3.49883e-08
1.54899e-05
4.0366e-08
1.54996e-05
4.53301e-08
1.55099e-05
5.0042e-08
1.55209e-05
5.45302e-08
1.55325e-05
5.88552e-08
1.55449e-05
6.29494e-08
1.55583e-05
6.68826e-08
1.55727e-05
7.04914e-08
1.55884e-05
7.39031e-08
1.56054e-05
7.68021e-08
1.5624e-05
7.94869e-08
1.56442e-05
8.13822e-08
8.31785e-08
1.5666e-05
1.88394e-05
3.28362e-09
1.88442e-05
9.3035e-09
1.88517e-05
1.46282e-08
1.88612e-05
1.94903e-08
1.88722e-05
2.40031e-08
1.88843e-05
2.82555e-08
1.88974e-05
3.2273e-08
1.89113e-05
3.60929e-08
1.89261e-05
3.96921e-08
1.89419e-05
4.3089e-08
1.89587e-05
4.61996e-08
1.89765e-05
4.90518e-08
1.89955e-05
5.14984e-08
1.90157e-05
5.36329e-08
1.90373e-05
5.52066e-08
1.90604e-05
5.64607e-08
1.90848e-05
5.69553e-08
5.72688e-08
1.91107e-05
2.29656e-05
1.01675e-09
2.2972e-05
2.87428e-09
2.29819e-05
4.73141e-09
2.29945e-05
6.8972e-09
2.30091e-05
9.40981e-09
2.30252e-05
1.21348e-08
2.30426e-05
1.48872e-08
2.30611e-05
1.75702e-08
2.30807e-05
2.0118e-08
2.31013e-05
2.25028e-08
2.31229e-05
2.46249e-08
2.31455e-05
2.64665e-08
2.31691e-05
2.79062e-08
2.31937e-05
2.89956e-08
2.32193e-05
2.95672e-08
2.3246e-05
2.97848e-08
2.32736e-05
2.93663e-08
2.87077e-08
2.33022e-05
1.68127e-05
-9.45661e-10
1.68182e-05
-2.61249e-09
1.68265e-05
-3.57511e-09
1.68368e-05
-3.42749e-09
1.68485e-05
-2.29861e-09
1.68612e-05
-6.14601e-10
1.68748e-05
1.28597e-09
1.68892e-05
3.23139e-09
1.69041e-05
5.16385e-09
1.69196e-05
7.01331e-09
1.69356e-05
8.65733e-09
1.6952e-05
1.00457e-08
1.69688e-05
1.10738e-08
1.69861e-05
1.17669e-08
1.70036e-05
1.20044e-08
1.70215e-05
1.18989e-08
1.70396e-05
1.12602e-08
1.03599e-08
1.7058e-05
1.46366e-05
-2.9965e-09
1.46423e-05
-8.288e-09
1.46507e-05
-1.19504e-08
1.46607e-05
-1.34537e-08
1.46717e-05
-1.33337e-08
1.46835e-05
-1.24233e-08
1.4696e-05
-1.11936e-08
1.4709e-05
-9.76634e-09
1.47224e-05
-8.21469e-09
1.47361e-05
-6.6542e-09
1.475e-05
-5.23678e-09
1.4764e-05
-4.03591e-09
1.47783e-05
-3.14261e-09
1.47926e-05
-2.55078e-09
1.48069e-05
-2.35132e-09
1.48213e-05
-2.47e-09
1.48356e-05
-3.03747e-09
-3.86099e-09
1.48498e-05
1.27424e-05
-5.24892e-09
1.27485e-05
-1.4394e-08
1.27571e-05
-2.05306e-08
1.27668e-05
-2.31757e-08
1.27771e-05
-2.36707e-08
1.2788e-05
-2.33337e-08
1.27995e-05
-2.26044e-08
1.28112e-05
-2.14993e-08
1.28231e-05
-2.01196e-08
1.28351e-05
-1.86539e-08
1.28471e-05
-1.72822e-08
1.28592e-05
-1.60874e-08
1.28712e-05
-1.51476e-08
1.28831e-05
-1.44709e-08
1.28949e-05
-1.4129e-08
1.29065e-05
-1.40749e-08
1.29179e-05
-1.43979e-08
-1.49595e-08
1.2929e-05
1.10935e-05
-7.86118e-09
1.11004e-05
-2.12101e-08
1.11092e-05
-2.93441e-08
1.11185e-05
-3.24592e-08
1.11281e-05
-3.32674e-08
1.11381e-05
-3.34097e-08
1.11486e-05
-3.30391e-08
1.11591e-05
-3.20674e-08
1.11697e-05
-3.069e-08
1.11802e-05
-2.91814e-08
1.11907e-05
-2.7733e-08
1.1201e-05
-2.64249e-08
1.12112e-05
-2.53253e-08
1.12212e-05
-2.44542e-08
1.12309e-05
-2.38708e-08
1.12404e-05
-2.35468e-08
1.12495e-05
-2.3545e-08
-2.37746e-08
1.12584e-05
9.65841e-06
-1.10581e-08
9.66623e-06
-2.90252e-08
9.67514e-06
-3.82577e-08
9.68379e-06
-4.11077e-08
9.69265e-06
-4.21261e-08
9.70196e-06
-4.27271e-08
9.71149e-06
-4.25612e-08
9.72097e-06
-4.15549e-08
9.73035e-06
-4.00666e-08
9.7396e-06
-3.84339e-08
9.7487e-06
-3.68334e-08
9.75762e-06
-3.53387e-08
9.7663e-06
-3.40119e-08
9.77474e-06
-3.28855e-08
9.78287e-06
-3.20088e-08
9.7907e-06
-3.13703e-08
9.79815e-06
-3.10029e-08
-3.08341e-08
9.80521e-06
8.40947e-06
-1.51737e-08
8.41843e-06
-3.79848e-08
8.42712e-06
-4.69503e-08
8.43502e-06
-4.90081e-08
8.44324e-06
-5.03479e-08
8.45186e-06
-5.1348e-08
8.46049e-06
-5.11907e-08
8.46896e-06
-5.00183e-08
8.47725e-06
-4.8359e-08
8.48538e-06
-4.6562e-08
8.49331e-06
-4.47699e-08
8.50103e-06
-4.30554e-08
8.50849e-06
-4.14758e-08
8.51568e-06
-4.00752e-08
8.52257e-06
-3.88914e-08
8.52912e-06
-3.79263e-08
8.53534e-06
-3.72183e-08
-3.67211e-08
8.54122e-06
7.32284e-06
-2.07273e-08
7.3327e-06
-4.78445e-08
7.3407e-06
-5.49572e-08
7.34794e-06
-5.62449e-08
7.3557e-06
-5.81028e-08
7.36366e-06
-5.93142e-08
7.37143e-06
-5.89591e-08
7.37895e-06
-5.75415e-08
7.38628e-06
-5.56803e-08
7.3934e-06
-5.36892e-08
7.40031e-06
-5.1677e-08
7.40698e-06
-4.97256e-08
7.41339e-06
-4.78818e-08
7.41952e-06
-4.62072e-08
7.42535e-06
-4.47219e-08
7.43087e-06
-4.34483e-08
7.43602e-06
-4.23717e-08
-4.14961e-08
7.4408e-06
6.37787e-06
-2.85281e-08
6.38779e-06
-5.77646e-08
6.39469e-06
-6.18576e-08
6.4015e-06
-6.30567e-08
6.40889e-06
-6.54983e-08
6.41621e-06
-6.663e-08
6.42321e-06
-6.59616e-08
6.42998e-06
-6.43064e-08
6.43655e-06
-6.22484e-08
6.44292e-06
-6.00606e-08
6.44907e-06
-5.78253e-08
6.45499e-06
-5.56482e-08
6.46065e-06
-5.35432e-08
6.46606e-06
-5.16146e-08
6.47116e-06
-4.98274e-08
6.476e-06
-4.82892e-08
6.48055e-06
-4.69147e-08
-4.57935e-08
6.48484e-06
5.55674e-06
-3.98073e-08
5.56572e-06
-6.67361e-08
5.57196e-06
-6.81074e-08
5.57926e-06
-7.03531e-08
5.58694e-06
-7.31741e-08
5.59427e-06
-7.39611e-08
5.60127e-06
-7.2964e-08
5.60804e-06
-7.10793e-08
5.61456e-06
-6.87647e-08
5.6208e-06
-6.63029e-08
5.62674e-06
-6.37613e-08
5.63237e-06
-6.12832e-08
5.63766e-06
-5.88323e-08
5.64262e-06
-5.65771e-08
5.6472e-06
-5.44013e-08
5.65144e-06
-5.25329e-08
5.65537e-06
-5.08422e-08
-4.93665e-08
5.65894e-06
4.85009e-06
-6.22891e-08
4.86233e-06
-7.89732e-08
4.87173e-06
-7.75126e-08
4.88058e-06
-7.92011e-08
4.88697e-06
-7.95684e-08
4.89081e-06
-7.77984e-08
4.89262e-06
-7.47722e-08
4.89277e-06
-7.12284e-08
4.89148e-06
-6.74785e-08
4.88899e-06
-6.38139e-08
4.88552e-06
-6.02842e-08
4.88121e-06
-5.6977e-08
4.87622e-06
-5.38471e-08
4.87064e-06
-5.09907e-08
4.86455e-06
-4.83171e-08
4.85795e-06
-4.59328e-08
4.85103e-06
-4.39225e-08
-4.24821e-08
4.84415e-06
4.14039e-06
4.06141e-06
3.9839e-06
3.9047e-06
3.82513e-06
3.74733e-06
3.67256e-06
3.60133e-06
3.53385e-06
3.47004e-06
3.40976e-06
3.35278e-06
3.29893e-06
3.24794e-06
3.19962e-06
3.15369e-06
3.10977e-06
3.06729e-06
2.64075e-07
-2.64075e-07
5.90065e-07
-3.2599e-07
8.70893e-07
-2.80828e-07
1.07316e-06
-2.02265e-07
1.22649e-06
-1.53334e-07
1.36558e-06
-1.39084e-07
1.46682e-06
-1.01248e-07
1.49872e-06
-3.1896e-08
1.46127e-06
3.74516e-08
1.36296e-06
9.83099e-08
1.21058e-06
1.52378e-07
9.32546e-07
2.78033e-07
4.38257e-07
4.9429e-07
-1.94848e-07
6.33104e-07
-8.58238e-07
6.6339e-07
-1.52138e-06
6.63144e-07
-2.17275e-06
6.51373e-07
-2.80526e-06
6.32503e-07
-3.41375e-06
6.08495e-07
-3.99512e-06
5.81362e-07
-4.54768e-06
5.52566e-07
-5.0698e-06
5.2212e-07
-5.55957e-06
4.89772e-07
-6.0176e-06
4.5803e-07
-6.44392e-06
4.26318e-07
-6.83797e-06
3.94045e-07
-7.19866e-06
3.60691e-07
-7.52445e-06
3.25792e-07
-7.8134e-06
2.88955e-07
-8.06333e-06
2.4993e-07
-8.27196e-06
2.08624e-07
-8.43704e-06
1.65083e-07
-8.55656e-06
1.19514e-07
-8.62888e-06
7.23186e-08
-8.65305e-06
2.41753e-08
-8.63038e-06
-2.26707e-08
-8.56196e-06
-6.84175e-08
-8.4492e-06
-1.12764e-07
-8.29401e-06
-1.55186e-07
-8.0987e-06
-1.95312e-07
-7.86612e-06
-2.32579e-07
-7.59955e-06
-2.66569e-07
-7.30262e-06
-2.96932e-07
-6.9792e-06
-3.23421e-07
-6.63336e-06
-3.45843e-07
-6.26936e-06
-3.63995e-07
-5.8918e-06
-3.77561e-07
-5.50547e-06
-3.86329e-07
-5.11453e-06
-3.90938e-07
-4.72192e-06
-3.92608e-07
-4.33044e-06
-3.91489e-07
-3.94247e-06
-3.87968e-07
-3.56011e-06
-3.82359e-07
-3.18507e-06
-3.75042e-07
-2.81867e-06
-3.66393e-07
-2.46186e-06
-3.5681e-07
-2.11516e-06
-3.46705e-07
-1.77872e-06
-3.36434e-07
-1.45249e-06
-3.26231e-07
-1.13595e-06
-3.16539e-07
-8.28186e-07
-3.07768e-07
-5.28023e-07
-3.00163e-07
-2.34015e-07
-2.94008e-07
5.57591e-08
-2.89774e-07
3.43027e-07
-2.87268e-07
6.2952e-07
-2.86492e-07
9.17011e-07
-2.87492e-07
1.2074e-06
-2.90386e-07
1.50229e-06
-2.94893e-07
1.80176e-06
-2.99472e-07
2.10302e-06
-3.01256e-07
2.39867e-06
-2.9565e-07
2.67352e-06
-2.74855e-07
2.90046e-06
-2.2694e-07
3.04173e-06
-1.41265e-07
3.06417e-06
-2.2447e-08
2.96167e-06
1.02507e-07
2.76686e-06
1.94805e-07
2.53922e-06
2.27644e-07
2.33479e-06
2.04425e-07
2.17198e-06
1.62811e-07
2.03378e-06
1.38198e-07
1.928e-06
1.05782e-07
1.92069e-06
7.30766e-09
2.08297e-06
-1.62273e-07
2.42049e-06
-3.37528e-07
2.81635e-06
-3.95853e-07
3.12899e-06
-3.12648e-07
3.26066e-06
-1.31666e-07
3.1558e-06
1.04862e-07
2.78208e-06
3.73719e-07
2.15136e-06
6.30724e-07
1.34432e-06
8.0703e-07
4.68437e-07
8.75888e-07
-4.00341e-07
8.68778e-07
-1.23283e-06
8.32492e-07
-2.01618e-06
7.83344e-07
-2.7492e-06
7.33023e-07
-3.43388e-06
6.84676e-07
-4.07159e-06
6.37718e-07
-4.66187e-06
5.90278e-07
-5.2023e-06
5.40425e-07
-5.68898e-06
4.86681e-07
-6.11719e-06
4.28208e-07
-6.48195e-06
3.64768e-07
-6.77861e-06
2.9666e-07
-7.00332e-06
2.2471e-07
-7.15341e-06
1.50081e-07
-7.22731e-06
7.39077e-08
-7.22854e-06
1.22594e-09
-7.15939e-06
-6.91527e-08
-7.02285e-06
-1.36534e-07
-6.82229e-06
-2.00558e-07
-6.56149e-06
-2.60807e-07
-6.24478e-06
-3.16711e-07
-5.87711e-06
-3.67664e-07
-5.46428e-06
-4.12833e-07
-5.01307e-06
-4.51212e-07
-4.53126e-06
-4.81809e-07
-4.0275e-06
-5.03754e-07
-3.51105e-06
-5.16456e-07
-2.99136e-06
-5.1969e-07
-2.47719e-06
-5.14168e-07
-1.97576e-06
-5.01433e-07
-1.49269e-06
-4.83064e-07
-1.03208e-06
-4.60616e-07
-5.9551e-07
-4.36568e-07
-1.83075e-07
-4.12435e-07
2.05672e-07
-3.88747e-07
5.70749e-07
-3.65076e-07
9.12769e-07
-3.42021e-07
1.23182e-06
-3.19049e-07
1.52739e-06
-2.95569e-07
1.7985e-06
-2.71112e-07
2.04394e-06
-2.45445e-07
2.26235e-06
-2.18403e-07
2.45227e-06
-1.89918e-07
2.61252e-06
-1.60256e-07
2.74263e-06
-1.30111e-07
2.84259e-06
-9.99524e-08
2.91082e-06
-6.82323e-08
2.94287e-06
-3.20477e-08
2.93391e-06
8.95368e-09
2.8828e-06
5.11069e-08
2.78587e-06
9.69345e-08
2.63508e-06
1.5079e-07
2.43062e-06
2.04465e-07
2.19533e-06
2.35284e-07
1.9701e-06
2.25229e-07
1.79252e-06
1.77587e-07
1.67948e-06
1.1304e-07
1.62499e-06
5.44868e-08
1.61034e-06
1.4652e-08
1.61687e-06
-6.53172e-09
1.63259e-06
-1.57218e-08
1.65505e-06
-2.24586e-08
1.69003e-06
-3.49819e-08
1.737e-06
-4.69659e-08
1.77887e-06
-4.1878e-08
1.80643e-06
-2.75517e-08
1.8462e-06
-3.97748e-08
1.93753e-06
-9.13257e-08
2.08619e-06
-1.48665e-07
2.26846e-06
-1.8227e-07
2.47278e-06
-2.04319e-07
2.54323e-06
-7.04486e-08
2.05961e-06
4.83617e-07
6.43107e-07
1.41651e-06
-1.21174e-06
1.85485e-06
-2.92768e-06
1.71594e-06
-4.24215e-06
1.31447e-06
-5.1426e-06
9.0045e-07
-5.65205e-06
5.09451e-07
-5.78953e-06
1.37483e-07
-5.59819e-06
-1.91337e-07
-5.10025e-06
-4.97945e-07
-4.33116e-06
-7.69085e-07
-3.3559e-06
-9.75268e-07
-2.28045e-06
-1.07545e-06
-1.02913e-06
-1.25132e-06
3.31172e-07
-5.95247e-07
6.25252e-07
-6.2007e-07
8.45747e-07
-5.01323e-07
9.68103e-07
-3.24621e-07
9.79608e-07
-1.64838e-07
8.73591e-07
-3.30667e-08
6.42273e-07
1.30071e-07
2.68738e-07
3.41639e-07
-2.39708e-07
5.45898e-07
-8.42545e-07
7.01147e-07
-1.50823e-06
8.18066e-07
-2.15539e-06
9.25188e-07
-2.69444e-06
1.03334e-06
-3.16342e-06
1.10208e-06
-3.62446e-06
1.12443e-06
-4.07776e-06
1.11644e-06
-4.51341e-06
1.08703e-06
-4.92835e-06
1.04744e-06
-5.32268e-06
1.00283e-06
-5.69765e-06
9.56326e-07
-6.05454e-06
9.09461e-07
-6.39503e-06
8.62612e-07
-6.72083e-06
8.15565e-07
-7.0309e-06
7.68107e-07
-7.32407e-06
7.19486e-07
-7.59877e-06
6.68738e-07
-7.85297e-06
6.14894e-07
-8.08428e-06
5.57103e-07
-8.29003e-06
4.94703e-07
-8.4674e-06
4.27299e-07
-8.61355e-06
3.5478e-07
-8.72581e-06
2.77342e-07
-8.80179e-06
1.95497e-07
-8.83953e-06
1.10054e-07
-8.83811e-06
2.27576e-08
-8.79362e-06
-6.71652e-08
-8.70563e-06
-1.56403e-07
-8.57449e-06
-2.43901e-07
-8.40153e-06
-3.28153e-07
-8.18911e-06
-4.0773e-07
-7.9402e-06
-4.81486e-07
-7.65831e-06
-5.48457e-07
-7.34731e-06
-6.07932e-07
-7.01132e-06
-6.59411e-07
-6.65462e-06
-7.02548e-07
-6.28154e-06
-7.37071e-07
-5.89631e-06
-7.62796e-07
-5.50273e-06
-7.79908e-07
-5.10486e-06
-7.88803e-07
-4.70674e-06
-7.90727e-07
-4.3111e-06
-7.8713e-07
-3.9205e-06
-7.78574e-07
-3.53693e-06
-7.65928e-07
-3.16204e-06
-7.49927e-07
-2.79708e-06
-7.31352e-07
-2.44293e-06
-7.1096e-07
-2.10012e-06
-6.8952e-07
-1.76876e-06
-6.67798e-07
-1.44864e-06
-6.46351e-07
-1.1393e-06
-6.25872e-07
-8.39976e-07
-6.07095e-07
-5.49645e-07
-5.90494e-07
-2.6723e-07
-5.76423e-07
8.52205e-09
-5.65526e-07
2.78591e-07
-5.57337e-07
5.43828e-07
-5.5173e-07
8.05351e-07
-5.49014e-07
1.06477e-06
-5.4981e-07
1.32453e-06
-5.54649e-07
1.58815e-06
-5.63092e-07
1.85996e-06
-5.73067e-07
2.14481e-06
-5.80495e-07
2.44783e-06
-5.77872e-07
2.77446e-06
-5.53569e-07
3.12643e-06
-4.9324e-07
3.48661e-06
-3.82628e-07
3.80748e-06
-2.18363e-07
4.0197e-06
-1.74173e-08
4.05246e-06
1.94886e-07
3.88808e-06
3.68803e-07
3.59034e-06
4.60555e-07
3.27037e-06
4.58165e-07
3.0217e-06
3.54452e-07
2.90922e-06
1.19795e-07
2.9756e-06
-2.28659e-07
3.16882e-06
-5.30746e-07
3.35818e-06
-5.85208e-07
3.36347e-06
-3.17937e-07
3.04382e-06
1.87977e-07
2.3792e-06
7.69482e-07
1.48618e-06
1.26674e-06
5.35182e-07
1.58172e-06
-3.56947e-07
1.69916e-06
-1.16122e-06
1.68017e-06
-1.88642e-06
1.59398e-06
-2.5429e-06
1.48897e-06
-3.14619e-06
1.38663e-06
-3.70695e-06
1.29378e-06
-4.23144e-06
1.20917e-06
-4.72213e-06
1.12841e-06
-5.17856e-06
1.04671e-06
-5.59814e-06
9.60002e-07
-5.97687e-06
8.65412e-07
-6.31001e-06
7.6135e-07
-6.59268e-06
6.47439e-07
-6.8204e-06
5.2438e-07
-6.98931e-06
3.93617e-07
-7.09663e-06
2.57396e-07
-7.14098e-06
1.1826e-07
-7.11888e-06
-2.08716e-08
-7.02955e-06
-1.5848e-07
-6.87425e-06
-2.91843e-07
-6.65584e-06
-4.18965e-07
-6.37811e-06
-5.38537e-07
-6.0453e-06
-6.4952e-07
-5.66215e-06
-7.50809e-07
-5.23405e-06
-8.40942e-07
-4.76731e-06
-9.17948e-07
-4.26957e-06
-9.79552e-07
-3.74968e-06
-1.02364e-06
-3.21725e-06
-1.04888e-06
-2.68185e-06
-1.05509e-06
-2.15265e-06
-1.04337e-06
-1.63739e-06
-1.01669e-06
-1.14192e-06
-9.7854e-07
-6.69151e-07
-9.33382e-07
-2.22725e-07
-8.82994e-07
1.99035e-07
-8.34195e-07
5.95416e-07
-7.85128e-07
9.67697e-07
-7.37358e-07
1.31644e-06
-6.90767e-07
1.64183e-06
-6.44437e-07
1.94358e-06
-5.97314e-07
2.22105e-06
-5.48587e-07
2.47345e-06
-4.97844e-07
2.70005e-06
-4.45e-07
2.90054e-06
-3.90409e-07
3.07516e-06
-3.34877e-07
3.22407e-06
-2.79023e-07
3.34698e-06
-2.22861e-07
3.44501e-06
-1.66262e-07
3.52219e-06
-1.09225e-07
3.58186e-06
-5.07202e-08
3.62258e-06
1.03836e-08
3.64416e-06
7.53621e-08
3.64721e-06
1.47737e-07
3.6302e-06
2.21473e-07
3.5891e-06
2.76387e-07
3.52267e-06
2.91656e-07
3.43664e-06
2.63619e-07
3.34069e-06
2.08992e-07
3.24321e-06
1.51967e-07
3.15058e-06
1.07278e-07
3.06732e-06
7.67314e-08
2.9934e-06
5.81935e-08
2.92705e-06
4.38946e-08
2.87283e-06
1.92399e-08
2.83345e-06
-7.58546e-09
2.79178e-06
-2.08559e-10
2.7312e-06
3.30277e-08
2.67507e-06
1.6354e-08
2.68611e-06
-1.02368e-07
2.81241e-06
-2.74966e-07
3.01432e-06
-3.84173e-07
3.06745e-06
-2.57457e-07
2.5477e-06
4.49309e-07
1.12371e-06
1.90761e-06
-7.89921e-07
3.33013e-06
-2.51361e-06
3.57853e-06
-3.79588e-06
2.99821e-06
-4.73499e-06
2.25358e-06
-5.37822e-06
1.54368e-06
-5.73605e-06
8.67275e-07
-5.80694e-06
2.08377e-07
-5.58799e-06
-4.10285e-07
-5.07347e-06
-1.01247e-06
-4.29562e-06
-1.54694e-06
-3.31559e-06
-1.9553e-06
-2.23357e-06
-2.15747e-06
-2.08409e-06
-1.17861e-06
1.30233e-07
-7.2548e-07
8.96977e-08
-5.79535e-07
-7.13881e-08
-3.40237e-07
-3.37364e-07
-5.86445e-08
-6.77331e-07
1.75128e-07
-1.09465e-06
3.8425e-07
-1.55026e-06
5.85679e-07
-1.99461e-06
7.85997e-07
-2.41578e-06
9.67068e-07
-2.82783e-06
1.11319e-06
-3.23221e-06
1.22245e-06
-3.60703e-06
1.3e-06
-3.92282e-06
1.34913e-06
-4.19271e-06
1.37197e-06
-4.4423e-06
1.37403e-06
-4.68601e-06
1.36015e-06
-4.93399e-06
1.33501e-06
-5.18974e-06
1.30319e-06
-5.45485e-06
1.26794e-06
-5.72939e-06
1.23087e-06
-6.01239e-06
1.19246e-06
-6.30205e-06
1.15227e-06
-6.59587e-06
1.10938e-06
-6.89033e-06
1.06257e-06
-7.18127e-06
1.01043e-06
-7.46413e-06
9.51599e-07
-7.73406e-06
8.84824e-07
-7.98603e-06
8.09072e-07
-8.21494e-06
7.23616e-07
-8.41576e-06
6.28118e-07
-8.58365e-06
5.22672e-07
-8.71416e-06
4.07849e-07
-8.80336e-06
2.84697e-07
-8.84807e-06
1.54758e-07
-8.84585e-06
2.05419e-08
-8.79605e-06
-1.16961e-07
-8.69904e-06
-2.53413e-07
-8.55598e-06
-3.86967e-07
-8.36891e-06
-5.15225e-07
-8.14068e-06
-6.35954e-07
-7.87484e-06
-7.47325e-07
-7.57543e-06
-8.47867e-07
-7.24683e-06
-9.36536e-07
-6.89358e-06
-1.01266e-06
-6.52027e-06
-1.07586e-06
-6.1314e-06
-1.12594e-06
-5.73132e-06
-1.16288e-06
-5.32442e-06
-1.1868e-06
-4.91489e-06
-1.19833e-06
-4.50674e-06
-1.19888e-06
-4.10316e-06
-1.1907e-06
-3.70664e-06
-1.1751e-06
-3.31921e-06
-1.15335e-06
-2.94244e-06
-1.1267e-06
-2.57746e-06
-1.09633e-06
-2.22506e-06
-1.06336e-06
-1.88573e-06
-1.02885e-06
-1.55966e-06
-9.93871e-07
-1.2467e-06
-9.59305e-07
-9.46549e-07
-9.26026e-07
-6.58515e-07
-8.95129e-07
-3.81786e-07
-8.67223e-07
-1.15641e-07
-8.42568e-07
1.41494e-07
-8.22661e-07
3.90513e-07
-8.06356e-07
6.32347e-07
-7.93564e-07
8.67927e-07
-7.84594e-07
1.09849e-06
-7.8037e-07
1.32598e-06
-7.82147e-07
1.55339e-06
-7.90502e-07
1.78511e-06
-8.04785e-07
2.02731e-06
-8.22691e-07
2.28834e-06
-8.38902e-07
2.57732e-06
-8.42548e-07
2.90092e-06
-8.16845e-07
3.26066e-06
-7.42365e-07
3.64481e-06
-6.02511e-07
4.01582e-06
-3.88434e-07
4.32079e-06
-1.10077e-07
4.50291e-06
1.86675e-07
4.52841e-06
4.35059e-07
4.41023e-06
5.76343e-07
4.20218e-06
5.62499e-07
3.96622e-06
3.55758e-07
3.76459e-06
-2.70303e-08
3.56164e-06
-3.27789e-07
3.25218e-06
-2.7575e-07
2.74375e-06
1.90495e-07
2.01969e-06
9.12034e-07
1.18325e-06
1.60591e-06
3.71114e-07
2.07888e-06
-3.31524e-07
2.28436e-06
-9.26878e-07
2.29451e-06
-1.45158e-06
2.20486e-06
-1.94266e-06
2.08506e-06
-2.42311e-06
1.96941e-06
-2.90437e-06
1.86789e-06
-3.38874e-06
1.77815e-06
-3.87277e-06
1.6932e-06
-4.34975e-06
1.60539e-06
-4.81124e-06
1.50821e-06
-5.24805e-06
1.3968e-06
-5.65079e-06
1.26816e-06
-6.01044e-06
1.121e-06
-6.31869e-06
9.5569e-07
-6.56831e-06
7.74006e-07
-6.75367e-06
5.78973e-07
-6.87077e-06
3.74498e-07
-6.9175e-06
1.64996e-07
-6.89324e-06
-4.51338e-08
-6.79956e-06
-2.52159e-07
-6.63902e-06
-4.5239e-07
-6.41493e-06
-6.43054e-07
-6.13123e-06
-8.22229e-07
-5.79221e-06
-9.88545e-07
-5.40242e-06
-1.1406e-06
-4.967e-06
-1.27637e-06
-4.49207e-06
-1.39287e-06
-3.98521e-06
-1.48641e-06
-3.45541e-06
-1.55344e-06
-2.91274e-06
-1.59156e-06
-2.36765e-06
-1.60018e-06
-1.8297e-06
-1.58132e-06
-1.30687e-06
-1.53952e-06
-8.04656e-07
-1.48075e-06
-3.28935e-07
-1.4091e-06
1.2482e-07
-1.33675e-06
5.51159e-07
-1.26053e-06
9.52399e-07
-1.18637e-06
1.32953e-06
-1.11449e-06
1.68271e-06
-1.04395e-06
2.01129e-06
-9.73013e-07
2.31378e-06
-8.99807e-07
2.5882e-06
-8.2301e-07
2.83256e-06
-7.42203e-07
3.04549e-06
-6.57929e-07
3.22667e-06
-5.71585e-07
3.37698e-06
-4.85189e-07
3.49866e-06
-4.00701e-07
3.59506e-06
-3.19258e-07
3.66983e-06
-2.41032e-07
3.72641e-06
-1.65809e-07
3.76848e-06
-9.2792e-08
3.79927e-06
-2.04019e-08
3.82353e-06
5.11022e-08
3.84629e-06
1.24977e-07
3.87018e-06
1.97586e-07
3.88939e-06
2.57169e-07
3.89271e-06
2.88342e-07
3.8717e-06
2.84626e-07
3.82578e-06
2.54909e-07
3.76069e-06
2.17061e-07
3.68487e-06
1.831e-07
3.60532e-06
1.56278e-07
3.52257e-06
1.40944e-07
3.43431e-06
1.32153e-07
3.3472e-06
1.06348e-07
3.26845e-06
7.11648e-08
3.18508e-06
8.31697e-08
3.07874e-06
1.39358e-07
2.97591e-06
1.19188e-07
2.95077e-06
-7.72271e-08
3.03805e-06
-3.62248e-07
3.10913e-06
-4.5525e-07
2.82401e-06
2.76582e-08
1.83386e-06
1.43946e-06
2.08261e-07
3.5332e-06
-1.40656e-06
4.94496e-06
-2.64846e-06
4.82043e-06
-3.64503e-06
3.99478e-06
-4.47655e-06
3.0851e-06
-5.09582e-06
2.16295e-06
-5.45714e-06
1.22859e-06
-5.53363e-06
2.84872e-07
-5.32352e-06
-6.20399e-07
-4.83233e-06
-1.50366e-06
-4.08423e-06
-2.29504e-06
-3.13396e-06
-2.90557e-06
-2.07516e-06
-3.21627e-06
-3.1429e-06
-1.01635e-06
-2.77592e-07
-4.47888e-07
-6.5866e-07
-1.98467e-07
-1.06945e-06
7.05522e-08
-1.42917e-06
3.01077e-07
-1.80196e-06
5.47912e-07
-2.1866e-06
7.68891e-07
-2.56502e-06
9.64102e-07
-2.90791e-06
1.12889e-06
-3.20347e-06
1.26263e-06
-3.45735e-06
1.36707e-06
-3.6797e-06
1.44479e-06
-3.8786e-06
1.49891e-06
-4.06184e-06
1.53237e-06
-4.23948e-06
1.54962e-06
-4.4211e-06
1.55564e-06
-4.61514e-06
1.55419e-06
-4.82789e-06
1.54776e-06
-5.06233e-06
1.53762e-06
-5.31861e-06
1.52421e-06
-5.59494e-06
1.50721e-06
-5.88825e-06
1.48577e-06
-6.1946e-06
1.45862e-06
-6.50948e-06
1.42426e-06
-6.82791e-06
1.381e-06
-7.14458e-06
1.3271e-06
-7.45387e-06
1.2609e-06
-7.74998e-06
1.18093e-06
-8.02692e-06
1.08602e-06
-8.27875e-06
9.75447e-07
-8.49963e-06
8.48994e-07
-8.68399e-06
7.07036e-07
-8.82673e-06
5.50587e-07
-8.92338e-06
3.81343e-07
-8.9704e-06
2.01776e-07
-8.96506e-06
1.52029e-08
-8.90706e-06
-1.74965e-07
-8.79676e-06
-3.63703e-07
-8.63594e-06
-5.47788e-07
-8.42748e-06
-7.23688e-07
-8.1752e-06
-8.88235e-07
-7.88364e-06
-1.03889e-06
-7.5578e-06
-1.1737e-06
-7.20289e-06
-1.29144e-06
-6.82412e-06
-1.39144e-06
-6.42651e-06
-1.47346e-06
-6.01489e-06
-1.53756e-06
-5.59388e-06
-1.58389e-06
-5.16787e-06
-1.61282e-06
-4.74095e-06
-1.62525e-06
-4.31754e-06
-1.62229e-06
-3.90144e-06
-1.60681e-06
-3.4949e-06
-1.58164e-06
-3.09999e-06
-1.54826e-06
-2.71805e-06
-1.50865e-06
-2.34991e-06
-1.46446e-06
-1.99603e-06
-1.41725e-06
-1.65648e-06
-1.3684e-06
-1.33117e-06
-1.31918e-06
-1.01992e-06
-1.27055e-06
-7.22347e-07
-1.2236e-06
-4.38061e-07
-1.17941e-06
-1.66689e-07
-1.13859e-06
9.34477e-08
-1.1027e-06
3.41798e-07
-1.07101e-06
5.7973e-07
-1.04429e-06
8.08479e-07
-1.02231e-06
1.02928e-06
-1.00539e-06
1.24363e-06
-9.94725e-07
1.45341e-06
-9.91929e-07
1.66107e-06
-9.98161e-07
1.87019e-06
-1.01391e-06
2.0868e-06
-1.03929e-06
2.3199e-06
-1.072e-06
2.58e-06
-1.10265e-06
2.87406e-06
-1.1109e-06
3.20122e-06
-1.06953e-06
3.55255e-06
-9.5384e-07
3.91423e-06
-7.50118e-07
4.26398e-06
-4.59819e-07
4.55814e-06
-1.07485e-07
4.73937e-06
2.53823e-07
4.76773e-06
5.47985e-07
4.64595e-06
6.84279e-07
4.40813e-06
5.93576e-07
4.05236e-06
3.28737e-07
3.57556e-06
1.49017e-07
2.95701e-06
3.42795e-07
2.19987e-06
9.47639e-07
1.39641e-06
1.71549e-06
6.62053e-07
2.34028e-06
6.37452e-08
2.67719e-06
-4.13226e-07
2.76133e-06
-8.25892e-07
2.70718e-06
-1.22862e-06
2.60759e-06
-1.65317e-06
2.50962e-06
-2.11001e-06
2.42625e-06
-2.59588e-06
2.35376e-06
-3.10056e-06
2.28283e-06
-3.61147e-06
2.2041e-06
-4.11592e-06
2.10985e-06
-4.60203e-06
1.99431e-06
-5.05884e-06
1.85362e-06
-5.47634e-06
1.68566e-06
-5.84548e-06
1.49014e-06
-6.1583e-06
1.26851e-06
-6.40815e-06
1.02386e-06
-6.58996e-06
7.60776e-07
-6.70039e-06
4.8493e-07
-6.73794e-06
2.02545e-07
-6.70295e-06
-8.01204e-08
-6.59753e-06
-3.57581e-07
-6.4249e-06
-6.25021e-07
-6.1891e-06
-8.78855e-07
-5.89449e-06