/*--------------------------------*- C++ -*----------------------------------*\
| =========                 |                                                 |
| \\      /  F ield         | OpenFOAM: The Open Source CFD Toolbox           |
|  \\    /   O peration     | Version:  2112                                  |
|   \\  /    A nd           | Website:  www.openfoam.com                      |
|    \\/     M anipulation  |                                                 |
\*---------------------------------------------------------------------------*/
FoamFile
{
    version     2.0;
    format      ascii;
    arch        "LSB;label=32;scalar=64";
    class       volVectorField;
    location    "0.08";
    object      ddt0(U);
}
// * * * * * * * * * * * * * * * * * * * * * * * * * * * * * * * * * * * * * //

dimensions      [0 1 -2 0 0 0 0];

internalField   nonuniform List<vector> 
12885
(
(0.00262892 1.53919e-05 0)
(0.00205175 7.83211e-05 0)
(-0.00719599 0.000117065 0)
(-0.0274938 0.000166535 0)
(-0.0541879 0.0002052 0)
(-0.0817748 0.000242165 0)
(-0.109476 0.00028853 0)
(-0.140005 0.000338445 0)
(-0.16642 0.000414436 0)
(-0.199838 0.000445783 0)
(-0.2087 0.000419384 0)
(-0.218205 0.000606926 0)
(-0.236498 0.000660816 0)
(-0.210035 0.000526525 0)
(-0.207057 0.000781929 0)
(-0.203338 0.00077703 0)
(-0.198567 0.00074275 0)
(-0.176606 0.000624938 0)
(-0.13978 0.000507167 0)
(-0.0874781 0.000407711 0)
(-0.0234073 0.000423233 0)
(0.0470013 0.00046943 0)
(0.128877 0.000508177 0)
(0.216569 0.000597311 0)
(0.315527 0.000724066 0)
(0.407936 0.00079544 0)
(0.521903 0.00245562 0)
(0.599964 0.00275394 0)
(0.673913 0.00355744 0)
(0.765284 0.00308916 0)
(0.841326 0.00272761 0)
(0.927984 0.00603969 0)
(1.02667 0.00461908 0)
(1.14787 0.00487793 0)
(1.27497 0.0051155 0)
(1.40906 0.00476901 0)
(1.55685 0.00341359 0)
(1.74027 0.000126943 0)
(2.00804 -0.0129142 0)
(2.45467 -0.355085 0)
(0.00410983 -2.0599e-05 0)
(-0.0115268 0.000105324 0)
(-0.0611435 0.000317738 0)
(-0.151694 0.000538518 0)
(-0.267657 0.000663652 0)
(-0.389863 0.000744607 0)
(-0.514609 0.000865316 0)
(-0.651718 0.000926841 0)
(-0.77676 0.00106067 0)
(-0.929365 0.000812926 0)
(-0.997271 0.000284843 0)
(-1.07727 0.000684374 0)
(-1.18558 -7.94931e-05 0)
(-1.13477 -0.0010849 0)
(-1.17225 -0.000305236 0)
(-1.20453 -0.000689144 0)
(-1.22963 -0.00166663 0)
(-1.19399 -0.00324863 0)
(-1.10967 -0.00491919 0)
(-0.974698 -0.00660902 0)
(-0.801137 -0.00801017 0)
(-0.606892 -0.00964665 0)
(-0.373698 -0.0112438 0)
(-0.1243 -0.0109029 0)
(0.162672 -0.0158907 0)
(0.423287 -0.0183669 0)
(0.752679 -0.0161872 0)
(0.944617 -0.0150603 0)
(1.15357 -0.0175033 0)
(1.42306 -0.0202701 0)
(1.60402 -0.027433 0)
(2.08686 -0.0328129 0)
(2.4073 -0.0393646 0)
(2.76818 -0.0468797 0)
(3.14484 -0.0536979 0)
(3.53923 -0.0637575 0)
(3.96973 -0.0800218 0)
(4.49191 -0.104707 0)
(5.22035 -0.201604 0)
(6.33653 -0.921676 0)
(0.00509591 0.000103476 0)
(-0.0392551 0.000949929 0)
(-0.160941 0.00226653 0)
(-0.376242 0.00350663 0)
(-0.654636 0.00426606 0)
(-0.956682 0.00484576 0)
(-1.27079 0.00568318 0)
(-1.6179 0.00632253 0)
(-1.94506 0.00718507 0)
(-2.34064 0.00612969 0)
(-2.55655 0.00474932 0)
(-2.82916 0.00635372 0)
(-3.15653 0.00141732 0)
(-3.14404 -0.00254034 0)
(-3.3358 -0.00218305 0)
(-3.50077 0.000925021 0)
(-3.63584 -0.0024859 0)
(-3.63983 -0.00977027 0)
(-3.55089 -0.0172055 0)
(-3.36239 -0.0249636 0)
(-3.09612 -0.0314854 0)
(-2.78555 -0.0391972 0)
(-2.3906 -0.0456986 0)
(-1.97064 -0.0280543 0)
(-1.47405 -0.0684475 0)
(-1.0391 -0.0790866 0)
(-0.47559 -0.0685096 0)
(-0.20548 -0.0614228 0)
(0.221905 -0.0797254 0)
(0.75663 -0.0807431 0)
(0.987914 -0.124788 0)
(1.80422 -0.157973 0)
(2.38836 -0.163223 0)
(2.98375 -0.183254 0)
(3.60013 -0.208904 0)
(4.23517 -0.244281 0)
(4.91224 -0.301786 0)
(5.66229 -0.403726 0)
(6.55213 -0.654527 0)
(7.52219 -1.50694 0)
(0.0104818 0.000659211 0)
(-0.0584499 0.00417152 0)
(-0.264949 0.00976943 0)
(-0.647923 0.0157451 0)
(-1.16469 0.0196274 0)
(-1.75573 0.0226494 0)
(-2.38693 0.0267274 0)
(-3.09316 0.0308592 0)
(-3.77615 0.0347027 0)
(-4.60703 0.0318408 0)
(-5.12074 0.0296404 0)
(-5.81332 0.0325612 0)
(-6.72392 0.012456 0)
(-6.85358 0.0126705 0)
(-7.46179 0.0328951 0)
(-7.95219 0.0247721 0)
(-8.33139 0.0145708 0)
(-8.4843 -0.0100502 0)
(-8.52108 -0.0364939 0)
(-8.41253 -0.0654693 0)
(-8.18374 -0.0904016 0)
(-7.87438 -0.118789 0)
(-7.40798 -0.148669 0)
(-6.93657 -0.144399 0)
(-6.33007 -0.191115 0)
(-5.82062 -0.221751 0)
(-5.16407 -0.24078 0)
(-4.54273 -0.217778 0)
(-3.99609 -0.201839 0)
(-3.16835 -0.310734 0)
(-2.64304 -0.395657 0)
(-1.87035 -0.428654 0)
(-1.11532 -0.493411 0)
(-0.364126 -0.547143 0)
(0.410121 -0.611966 0)
(1.2138 -0.704161 0)
(2.03141 -0.833103 0)
(2.88558 -1.06747 0)
(3.70584 -1.43079 0)
(4.56541 -2.11484 0)
(0.0158543 0.00104915 0)
(-0.0178083 0.0110703 0)
(-0.186854 0.0255616 0)
(-0.616115 0.049931 0)
(-1.29141 0.0672333 0)
(-2.15593 0.0837331 0)
(-3.12401 0.102546 0)
(-4.24774 0.117064 0)
(-5.34477 0.137843 0)
(-6.74379 0.130898 0)
(-7.5702 0.136302 0)
(-9.23947 0.178233 0)
(-10.5314 0.166226 0)
(-11.9603 0.105019 0)
(-13.1361 0.151356 0)
(-14.0506 0.111048 0)
(-14.6909 0.0490678 0)
(-15.1144 0.00274965 0)
(-15.5057 -0.0343584 0)
(-15.7621 -0.0855034 0)
(-15.8921 -0.141981 0)
(-15.888 -0.235896 0)
(-15.7235 -0.31491 0)
(-15.4976 -0.435487 0)
(-15.0968 -0.486602 0)
(-14.6548 -0.558191 0)
(-14.2189 -0.559625 0)
(-13.6228 -0.547408 0)
(-13.0195 -0.653619 0)
(-12.4037 -0.795328 0)
(-11.7002 -0.931853 0)
(-11.0658 -1.1114 0)
(-10.4026 -1.25 0)
(-9.73608 -1.37122 0)
(-9.07025 -1.50667 0)
(-8.36928 -1.67541 0)
(-7.69465 -1.89519 0)
(-6.97397 -2.18723 0)
(-6.39212 -2.56556 0)
(-5.77058 -3.05205 0)
(0.0129324 0.000736927 0)
(0.0240214 0.0147857 0)
(-0.0194271 0.0452599 0)
(-0.208688 0.0899492 0)
(-0.546391 0.136535 0)
(-1.0727 0.181244 0)
(-1.71524 0.236826 0)
(-2.58226 0.280892 0)
(-3.46674 0.333362 0)
(-4.57206 0.380049 0)
(-5.66166 0.408473 0)
(-6.93169 0.491971 0)
(-8.23463 0.527321 0)
(-9.46287 0.556991 0)
(-10.7263 0.55169 0)
(-11.9681 0.512443 0)
(-13.1574 0.44435 0)
(-14.145 0.354125 0)
(-15.0446 0.254053 0)
(-15.7579 0.163115 0)
(-16.3791 0.0592587 0)
(-16.8367 -0.0582049 0)
(-17.2374 -0.196952 0)
(-17.4576 -0.346049 0)
(-17.6807 -0.455674 0)
(-17.6658 -0.562324 0)
(-17.6638 -0.714326 0)
(-17.5766 -0.859816 0)
(-17.4684 -1.0206 0)
(-17.2578 -1.19011 0)
(-17.0068 -1.3737 0)
(-16.7308 -1.56446 0)
(-16.4319 -1.76193 0)
(-16.1251 -1.96639 0)
(-15.8273 -2.18719 0)
(-15.5303 -2.43085 0)
(-15.2665 -2.69917 0)
(-15.0224 -2.99791 0)
(-14.8585 -3.31481 0)
(-14.7143 -3.64303 0)
(0.0181505 0.000283793 0)
(0.00974227 0.0128609 0)
(-0.0181052 0.0599206 0)
(-0.0581646 0.135626 0)
(-0.156549 0.18993 0)
(-0.29643 0.260248 0)
(-0.510036 0.343229 0)
(-0.754687 0.426388 0)
(-1.09926 0.517772 0)
(-1.44882 0.589895 0)
(-1.86933 0.675487 0)
(-2.27261 0.79032 0)
(-2.69681 0.872146 0)
(-3.08143 0.921493 0)
(-3.46951 0.944491 0)
(-3.81704 0.941392 0)
(-4.15873 0.906951 0)
(-4.46733 0.845457 0)
(-4.75299 0.768077 0)
(-4.97328 0.664505 0)
(-5.15027 0.530452 0)
(-5.26596 0.361686 0)
(-5.32836 0.164841 0)
(-5.32204 -0.0447536 0)
(-5.25282 -0.268593 0)
(-5.17718 -0.502072 0)
(-5.03114 -0.739047 0)
(-4.8801 -0.938116 0)
(-4.69167 -1.12737 0)
(-4.51602 -1.29485 0)
(-4.33317 -1.45913 0)
(-4.1489 -1.63646 0)
(-3.96903 -1.83855 0)
(-3.80868 -2.06501 0)
(-3.6695 -2.30901 0)
(-3.55148 -2.56263 0)
(-3.44751 -2.80969 0)
(-3.36266 -3.05531 0)
(-3.29189 -3.30314 0)
(-3.23504 -3.52034 0)
(0.0192163 -0.000238934 0)
(0.00864773 0.0152173 0)
(-0.0319405 0.0684412 0)
(-0.071234 0.135565 0)
(-0.111114 0.195928 0)
(-0.173258 0.283987 0)
(-0.25676 0.383251 0)
(-0.338378 0.48092 0)
(-0.428726 0.575537 0)
(-0.504014 0.666222 0)
(-0.55863 0.759497 0)
(-0.589519 0.851486 0)
(-0.589785 0.918383 0)
(-0.560346 0.948579 0)
(-0.506225 0.950026 0)
(-0.434547 0.923072 0)
(-0.344398 0.868398 0)
(-0.245519 0.784786 0)
(-0.135203 0.675516 0)
(-0.0298002 0.539253 0)
(0.0805621 0.367271 0)
(0.202354 0.159449 0)
(0.349055 -0.100473 0)
(0.519037 -0.402989 0)
(0.722293 -0.772569 0)
(0.983793 -1.15643 0)
(1.29098 -1.61234 0)
(1.66588 -2.03569 0)
(2.05518 -2.52972 0)
(2.26911 -2.81168 0)
(2.49002 -3.01477 0)
(2.61068 -3.18593 0)
(2.6521 -3.35294 0)
(2.67125 -3.52115 0)
(2.70119 -3.6984 0)
(2.74545 -3.88344 0)
(2.79279 -4.0595 0)
(2.83518 -4.23222 0)
(2.8634 -4.41193 0)
(2.89107 -4.56957 0)
(0.00312811 -0.00609429 0)
(0.03418 0.0317264 0)
(-0.022893 0.0877916 0)
(-0.0854246 0.141707 0)
(-0.13844 0.228375 0)
(-0.207956 0.335611 0)
(-0.292049 0.445414 0)
(-0.379399 0.548598 0)
(-0.460135 0.639169 0)
(-0.522568 0.717162 0)
(-0.565966 0.775958 0)
(-0.580636 0.813891 0)
(-0.57458 0.825112 0)
(-0.53521 0.806703 0)
(-0.483065 0.755381 0)
(-0.396441 0.679335 0)
(-0.317131 0.57497 0)
(-0.2056 0.457856 0)
(-0.140534 0.318077 0)
(-0.0423767 0.18185 0)
(-0.0413939 0.0247002 0)
(0.0106081 -0.109231 0)
(-0.133716 -0.285195 0)
(-0.147235 -0.412039 0)
(-0.473372 -0.631123 0)
(-0.470763 -0.7365 0)
(-0.951834 -1.0403 0)
(-0.702739 -1.11102 0)
(-1.13319 -1.60456 0)
(-2.07878 -1.54647 0)
(-1.61818 -1.65537 0)
(-1.46354 -1.95863 0)
(-1.57475 -2.20576 0)
(-1.74245 -2.48371 0)
(-1.86071 -2.76354 0)
(-1.90448 -3.03405 0)
(-1.89847 -3.28053 0)
(-1.89323 -3.51652 0)
(-1.9181 -3.74696 0)
(-1.94496 -3.9557 0)
(0.0102489 -0.0184581 0)
(0.0174758 0.0295033 0)
(0.0210506 0.112586 0)
(-0.00825981 0.21559 0)
(-0.0562622 0.33271 0)
(-0.123785 0.456329 0)
(-0.211783 0.578059 0)
(-0.311474 0.693546 0)
(-0.418426 0.790534 0)
(-0.517829 0.864998 0)
(-0.611552 0.902386 0)
(-0.686213 0.907933 0)
(-0.755441 0.865814 0)
(-0.799315 0.793018 0)
(-0.84477 0.665931 0)
(-0.855246 0.518232 0)
(-0.87294 0.310655 0)
(-0.828152 0.109757 0)
(-0.80024 -0.160776 0)
(-0.670759 -0.397801 0)
(-0.599819 -0.713945 0)
(-0.370232 -0.914153 0)
(-0.269225 -1.29178 0)
(0.0811696 -1.3207 0)
(0.141402 -1.89666 0)
(0.621238 -1.70983 0)
(0.481676 -2.21097 0)
(0.426298 -1.66678 0)
(0.391837 -1.33128 0)
(0.393602 -1.08759 0)
(0.338107 -0.902897 0)
(0.084599 -1.40534 0)
(-0.00115091 -1.74909 0)
(-0.0790649 -2.14349 0)
(-0.130775 -2.4651 0)
(-0.194203 -2.68531 0)
(-0.263266 -2.83921 0)
(-0.339175 -2.97359 0)
(-0.422938 -3.1074 0)
(-0.494515 -3.2436 0)
(0.00731425 -0.0375192 0)
(0.00577448 0.0356579 0)
(-0.0113233 0.150393 0)
(-0.0630632 0.28564 0)
(-0.126368 0.444476 0)
(-0.230449 0.62124 0)
(-0.34008 0.815011 0)
(-0.500504 1.00765 0)
(-0.662828 1.20153 0)
(-0.876395 1.37933 0)
(-1.12111 1.53455 0)
(-1.4034 1.66698 0)
(-1.70441 1.776 0)
(-2.04325 1.85741 0)
(-2.38833 1.92281 0)
(-2.78244 1.95017 0)
(-3.1667 1.98063 0)
(-3.62499 1.94571 0)
(-4.03661 1.9532 0)
(-4.56502 1.8482 0)
(-4.97008 1.8659 0)
(-5.57369 1.63307 0)
(-5.90446 1.76543 0)
(-6.6075 1.26245 0)
(-6.74543 1.67462 0)
(-7.54806 0.864578 0)
(-7.59176 0.99235 0)
(-7.70893 1.10716 0)
(-8.19929 0.712799 0)
(-8.5552 0.744761 0)
(-8.48493 0.752284 0)
(-8.51738 0.685231 0)
(-8.7309 0.681032 0)
(-8.99158 0.668863 0)
(-9.20918 0.658678 0)
(-9.37278 0.664318 0)
(-9.49797 0.684514 0)
(-9.61372 0.703922 0)
(-9.73841 0.71519 0)
(-9.86115 0.709831 0)
(0.00162851 -0.0512988 0)
(-0.0107931 0.0964291 0)
(-0.0445487 0.262405 0)
(-0.0954018 0.53133 0)
(-0.164854 0.754552 0)
(-0.252591 1.12053 0)
(-0.362619 1.38639 0)
(-0.487645 1.84267 0)
(-0.639119 2.28335 0)
(-0.777451 2.60816 0)
(-0.963896 2.99721 0)
(-1.15174 3.38394 0)
(-1.34163 3.77713 0)
(-1.52629 4.16133 0)
(-1.72256 4.55641 0)
(-1.91061 4.93032 0)
(-2.11621 5.32384 0)
(-2.2939 5.67656 0)
(-2.50041 6.07044 0)
(-2.64967 6.38608 0)
(-2.86287 6.79027 0)
(-2.96699 7.04663 0)
(-3.21234 7.48495 0)
(-3.23975 7.63947 0)
(-3.56798 8.15114 0)
(-3.45239 8.13151 0)
(-3.93746 8.88654 0)
(-3.89743 8.55095 0)
(-4.19633 9.66813 0)
(-4.2605 9.72719 0)
(-4.35113 9.67766 0)
(-4.55561 9.77741 0)
(-4.68469 9.95993 0)
(-4.80497 10.0986 0)
(-4.89558 10.1895 0)
(-4.98369 10.2756 0)
(-5.06861 10.3722 0)
(-5.14979 10.4686 0)
(-5.23031 10.5624 0)
(-5.3123 10.6358 0)
(-0.000143351 -0.0302388 0)
(-0.0194501 0.14971 0)
(-0.0118286 0.38203 0)
(-0.034888 0.66906 0)
(-0.0164685 0.97037 0)
(-0.0453465 1.35052 0)
(-0.000803907 1.72238 0)
(-0.0377918 2.19157 0)
(-0.0201763 2.81023 0)
(0.0529078 3.22944 0)
(0.102288 3.56003 0)
(0.102236 4.00649 0)
(0.134863 4.47509 0)
(0.188492 4.9266 0)
(0.238823 5.38674 0)
(0.291725 5.81089 0)
(0.331613 6.25749 0)
(0.379166 6.64106 0)
(0.406199 7.07912 0)
(0.456089 7.40372 0)
(0.469876 7.84698 0)
(0.533035 8.08069 0)
(0.528167 8.57038 0)
(0.612891 8.64321 0)
(0.582408 9.2729 0)
(0.657441 9.59054 0)
(0.678595 9.71349 0)
(0.677798 9.87706 0)
(0.707061 10.0834 0)
(0.729071 10.2812 0)
(0.767327 10.4595 0)
(0.7997 10.6328 0)
(0.823392 10.8014 0)
(0.843248 10.962 0)
(0.861158 11.1129 0)
(0.878552 11.2522 0)
(0.893929 11.3815 0)
(0.90997 11.5006 0)
(0.922715 11.6085 0)
(0.923834 11.6927 0)
(-0.00411022 -0.01486 0)
(-0.00898691 0.138384 0)
(0.00577305 0.338954 0)
(0.0489226 0.573253 0)
(0.11465 0.833459 0)
(0.212788 1.13735 0)
(0.33046 1.46394 0)
(0.492436 1.82656 0)
(0.613935 2.18692 0)
(0.731294 2.54484 0)
(0.933796 2.90688 0)
(1.14228 3.27927 0)
(1.32418 3.64854 0)
(1.50433 4.01276 0)
(1.68833 4.36676 0)
(1.87853 4.71387 0)
(2.0636 5.04754 0)
(2.25321 5.37394 0)
(2.42868 5.68339 0)
(2.61274 5.9854 0)
(2.77285 6.266 0)
(2.94166 6.55283 0)
(3.10101 6.80104 0)
(3.24052 7.03863 0)
(3.38786 7.26809 0)
(3.5152 7.47913 0)
(3.64403 7.67908 0)
(3.76625 7.86663 0)
(3.8785 8.04188 0)
(3.98173 8.20507 0)
(4.07716 8.35625 0)
(4.16584 8.49622 0)
(4.2487 8.62575 0)
(4.32591 8.74521 0)
(4.39725 8.85635 0)
(4.46379 8.95783 0)
(4.52484 9.05399 0)
(4.58261 9.14237 0)
(4.63531 9.22434 0)
(4.67125 9.28464 0)
(-0.00760283 0.00653533 0)
(0.000366167 0.126035 0)
(0.0393789 0.277699 0)
(0.112493 0.453459 0)
(0.220282 0.655735 0)
(0.360604 0.88117 0)
(0.528428 1.12467 0)
(0.717681 1.38158 0)
(0.928731 1.6384 0)
(1.16102 1.91272 0)
(1.40385 2.18699 0)
(1.65451 2.45211 0)
(1.90811 2.71507 0)
(2.16552 2.97664 0)
(2.42552 3.23441 0)
(2.68655 3.48613 0)
(2.94498 3.73069 0)
(3.19961 3.96651 0)
(3.44673 4.19356 0)
(3.68704 4.4101 0)
(3.91627 4.61728 0)
(4.13773 4.81263 0)
(4.34748 4.99795 0)
(4.54675 5.17269 0)
(4.73578 5.33693 0)
(4.9151 5.49073 0)
(5.08488 5.63424 0)
(5.24445 5.76789 0)
(5.39323 5.89234 0)
(5.53157 6.00799 0)
(5.66027 6.11524 0)
(5.77994 6.21485 0)
(5.89131 6.30721 0)
(5.99473 6.39215 0)
(6.09036 6.47128 0)
(6.17909 6.54285 0)
(6.26079 6.61145 0)
(6.33736 6.67455 0)
(6.40747 6.73174 0)
(6.4591 6.7703 0)
(-0.00735894 0.00914217 0)
(0.00867782 0.0948348 0)
(0.0634245 0.204399 0)
(0.156997 0.335581 0)
(0.285385 0.486223 0)
(0.443533 0.65103 0)
(0.630749 0.828781 0)
(0.846842 1.01771 0)
(1.08516 1.2122 0)
(1.34202 1.41233 0)
(1.61215 1.6122 0)
(1.89325 1.81079 0)
(2.18081 2.00797 0)
(2.47145 2.20277 0)
(2.7628 2.39367 0)
(3.05243 2.57929 0)
(3.33796 2.75854 0)
(3.61726 2.93072 0)
(3.88865 3.09533 0)
(4.15081 3.25213 0)
(4.40282 3.40094 0)
(4.64406 3.54178 0)
(4.87417 3.67471 0)
(5.09283 3.79979 0)
(5.29987 3.91718 0)
(5.49525 4.02706 0)
(5.67904 4.12963 0)
(5.8515 4.2251 0)
(6.01288 4.31398 0)
(6.16362 4.3965 0)
(6.30422 4.47292 0)
(6.43502 4.54394 0)
(6.55669 4.60981 0)
(6.66959 4.67016 0)
(6.77411 4.72653 0)
(6.87089 4.77706 0)
(6.96034 4.82632 0)
(7.04399 4.87193 0)
(7.12032 4.9116 0)
(7.17778 4.9355 0)
(-0.00696634 0.00938275 0)
(0.013457 0.0726094 0)
(0.0772696 0.156706 0)
(0.181411 0.258397 0)
(0.317736 0.372496 0)
(0.484372 0.498768 0)
(0.681946 0.636526 0)
(0.908452 0.783796 0)
(1.15879 0.935804 0)
(1.42719 1.09044 0)
(1.70954 1.24597 0)
(2.00231 1.39973 0)
(2.30106 1.55106 0)
(2.60215 1.69892 0)
(2.90278 1.84295 0)
(3.20039 1.98223 0)
(3.49297 2.11626 0)
(3.77866 2.24464 0)
(4.05609 2.3671 0)
(4.32397 2.48348 0)
(4.58163 2.59365 0)
(4.82814 2.69768 0)
(5.06352 2.79547 0)
(5.28688 2.88734 0)
(5.49896 2.97309 0)
(5.69858 3.05348 0)
(5.88762 3.12791 0)
(6.0639 3.19778 0)
(6.23113 3.26172 0)
(6.38608 3.32174 0)
(6.53137 3.3769 0)
(6.6662 3.4286 0)
(6.79148 3.47678 0)
(6.90783 3.52084 0)
(7.01569 3.56223 0)
(7.11535 3.59913 0)
(7.20773 3.63589 0)
(7.29413 3.67022 0)
(7.37234 3.69865 0)
(7.43197 3.71364 0)
(-0.0067109 0.00842782 0)
(0.0170048 0.0542608 0)
(0.0865103 0.122205 0)
(0.195362 0.201779 0)
(0.335944 0.29341 0)
(0.507152 0.395854 0)
(0.709192 0.508409 0)
(0.939755 0.627984 0)
(1.19422 0.751109 0)
(1.46767 0.876089 0)
(1.75583 1.00177 0)
(2.05463 1.12482 0)
(2.36017 1.24592 0)
(2.66888 1.36298 0)
(2.97773 1.47714 0)
(3.2839 1.58727 0)
(3.58517 1.69336 0)
(3.8799 1.79505 0)
(4.1661 1.89198 0)
(4.44316 1.98397 0)
(4.70929 2.07083 0)
(4.96509 2.15261 0)
(5.20838 2.22921 0)
(5.44126 2.30093 0)
(5.66016 2.3675 0)
(5.86994 2.42968 0)
(6.06387 2.48665 0)
(6.25191 2.53975 0)
(6.42399 2.58948 0)
(6.58612 2.63442 0)
(6.73863 2.67635 0)
(6.88075 2.71471 0)
(7.01444 2.7504 0)
(7.13907 2.78258 0)
(7.25476 2.81278 0)
(7.36213 2.83933 0)
(7.46277 2.86686 0)
(7.55623 2.89296 0)
(7.64 2.91263 0)
(7.70677 2.92033 0)
(-0.00647355 0.00715731 0)
(0.0192565 0.0424398 0)
(0.0915092 0.0982068 0)
(0.203846 0.165432 0)
(0.352768 0.244747 0)
(0.540511 0.332479 0)
(0.770569 0.427369 0)
(1.04279 0.526625 0)
(1.35425 0.629215 0)
(1.70113 0.733473 0)
(2.07712 0.839017 0)
(2.47785 0.940954 0)
(2.89683 1.04217 0)
(3.32848 1.13808 0)
(3.76794 1.23194 0)
(4.20948 1.32164 0)
(4.64949 1.40795 0)
(5.08387 1.49043 0)
(5.50967 1.56875 0)
(5.92422 1.64262 0)
(6.32567 1.71245 0)
(6.71224 1.77755 0)
(7.08319 1.83897 0)
(7.43685 1.89575 0)
(7.77352 1.94899 0)
(8.09174 1.9976 0)
(8.39318 2.04304 0)
(8.67608 2.08356 0)
(8.9439 2.12239 0)
(9.19443 2.15701 0)
(9.42971 2.18885 0)
(9.64974 2.21798 0)
(9.85455 2.2447 0)
(10.0461 2.26856 0)
(10.2231 2.29123 0)
(10.3886 2.31084 0)
(10.5399 2.3316 0)
(10.685 2.3511 0)
(10.8117 2.36508 0)
(10.9262 2.36839 0)
(-0.0065738 0.00632795 0)
(0.0192351 0.0348601 0)
(0.101078 0.0817846 0)
(0.256089 0.139269 0)
(0.501987 0.207039 0)
(0.851004 0.278792 0)
(1.30861 0.351755 0)
(1.87297 0.424571 0)
(2.53383 0.500698 0)
(3.27828 0.57719 0)
(4.08969 0.654201 0)
(4.95383 0.725993 0)
(5.85405 0.798196 0)
(6.77683 0.863817 0)
(7.71007 0.928681 0)
(8.64148 0.989325 0)
(9.5629 1.04754 0)
(10.4664 1.10276 0)
(11.3458 1.15481 0)
(12.1967 1.20323 0)
(13.0149 1.24923 0)
(13.7986 1.29098 0)
(14.5451 1.33121 0)
(15.2535 1.36749 0)
(15.9233 1.40191 0)
(16.5541 1.43308 0)
(17.1467 1.46149 0)
(17.7024 1.48707 0)
(18.2223 1.51012 0)
(18.7085 1.53074 0)
(19.1616 1.54924 0)
(19.5844 1.56626 0)
(19.9768 1.58146 0)
(20.3429 1.59503 0)
(20.6801 1.60852 0)
(20.9951 1.62012 0)
(21.2824 1.63285 0)
(21.5553 1.6441 0)
(21.7947 1.6523 0)
(22.0221 1.65333 0)
(-0.00985461 0.00565595 0)
(0.0248766 0.0292139 0)
(0.18245 0.0647287 0)
(0.529529 0.104503 0)
(1.0859 0.149803 0)
(1.84252 0.193492 0)
(2.78082 0.235166 0)
(3.87567 0.275954 0)
(5.09396 0.318842 0)
(6.40585 0.36046 0)
(7.78192 0.402272 0)
(9.19839 0.438364 0)
(10.6312 0.476455 0)
(12.0615 0.508394 0)
(13.474 0.541471 0)
(14.8545 0.571166 0)
(16.1952 0.600089 0)
(17.4885 0.627496 0)
(18.7293 0.653297 0)
(19.9142 0.676357 0)
(21.0404 0.699357 0)
(22.1078 0.718004 0)
(23.1152 0.738242 0)
(24.063 0.754361 0)
(24.9524 0.7713 0)
(25.7833 0.785552 0)
(26.5598 0.798107 0)
(27.2825 0.809038 0)
(27.9562 0.818082 0)
(28.582 0.825765 0)
(29.1634 0.832184 0)
(29.7025 0.83755 0)
(30.2027 0.842133 0)
(30.6655 0.846474 0)
(31.0939 0.850391 0)
(31.4889 0.853228 0)
(31.8551 0.857523 0)
(32.1916 0.861037 0)
(32.5037 0.86377 0)
(32.7851 0.864105 0)
(-0.0132011 0.00484645 0)
(0.0718234 0.020509 0)
(0.384507 0.040396 0)
(0.96478 0.0606154 0)
(1.76836 0.0812565 0)
(2.741 0.101126 0)
(3.84541 0.120807 0)
(5.04943 0.14069 0)
(6.32278 0.159592 0)
(7.64281 0.176626 0)
(8.98664 0.194737 0)
(10.3394 0.208503 0)
(11.68 0.225817 0)
(12.9989 0.238111 0)
(14.284 0.253409 0)
(15.5266 0.265836 0)
(16.7242 0.278461 0)
(17.873 0.290491 0)
(18.9689 0.301955 0)
(20.0104 0.311094 0)
(20.9979 0.321665 0)
(21.9308 0.327542 0)
(22.8102 0.337432 0)
(23.6349 0.342429 0)
(24.408 0.350142 0)
(25.1292 0.355766 0)
(25.801 0.360342 0)
(26.4267 0.364103 0)
(27.0078 0.366445 0)
(27.5478 0.367336 0)
(28.0496 0.368031 0)
(28.5146 0.368057 0)
(28.9452 0.368803 0)
(29.3426 0.368576 0)
(29.7124 0.368649 0)
(30.0509 0.368802 0)
(30.368 0.369212 0)
(30.6543 0.368632 0)
(30.9288 0.369018 0)
(31.1639 0.368617 0)
(-0.00499204 0.00315623 0)
(0.132824 0.0105543 0)
(0.491336 0.0198742 0)
(1.04077 0.0282661 0)
(1.72618 0.0364604 0)
(2.51817 0.0446883 0)
(3.39963 0.0528232 0)
(4.34749 0.0607058 0)
(5.33814 0.0681299 0)
(6.35456 0.0746415 0)
(7.38068 0.0827633 0)
(8.40758 0.0874992 0)
(9.41837 0.0958673 0)
(10.4139 0.0997664 0)
(11.3776 0.107016 0)
(12.3076 0.111769 0)
(13.2036 0.116976 0)
(14.0592 0.121875 0)
(14.8755 0.126653 0)
(15.6503 0.12946 0)
(16.3847 0.134489 0)
(17.0783 0.134551 0)
(17.7328 0.139936 0)
(18.3453 0.140093 0)
(18.9204 0.144025 0)
(19.456 0.14557 0)
(19.9553 0.147082 0)
(20.4179 0.147922 0)
(20.8472 0.14757 0)
(21.2466 0.146499 0)
(21.6181 0.145341 0)
(21.9626 0.142685 0)
(22.2843 0.142519 0)
(22.5794 0.141134 0)
(22.8551 0.140285 0)
(23.1074 0.139205 0)
(23.3451 0.138375 0)
(23.558 0.137087 0)
(23.7647 0.136014 0)
(23.9381 0.133614 0)
(0.0035196 0.00154298 0)
(0.132907 0.00456106 0)
(0.416679 0.00844163 0)
(0.821017 0.0114571 0)
(1.30948 0.0146786 0)
(1.86589 0.0178188 0)
(2.48103 0.0211347 0)
(3.13886 0.0242749 0)
(3.82225 0.0273518 0)
(4.52067 0.0297344 0)
(5.22357 0.0334751 0)
(5.92653 0.0344739 0)
(6.6198 0.0386828 0)
(7.29862 0.0393366 0)
(7.95839 0.042602 0)
(8.59289 0.0442525 0)
(9.20338 0.0463133 0)
(9.78791 0.0480246 0)
(10.345 0.0498431 0)
(10.8744 0.0499679 0)
(11.3747 0.0525527 0)
(11.8488 0.0504869 0)
(12.2951 0.0537937 0)
(12.7138 0.05196 0)
(13.1071 0.0542829 0)
(13.4728 0.0543316 0)
(13.8129 0.0544409 0)
(14.1285 0.0542364 0)
(14.4212 0.0530879 0)
(14.6936 0.0513213 0)
(14.9467 0.0500389 0)
(15.1824 0.0470222 0)
(15.4044 0.0464914 0)
(15.6077 0.0437273 0)
(15.7983 0.0425319 0)
(15.9734 0.0411 0)
(16.1379 0.0398548 0)
(16.2853 0.0383618 0)
(16.4285 0.0367869 0)
(16.5484 0.0342788 0)
(0.00478681 0.000634924 0)
(0.0997277 0.00172768 0)
(0.293572 0.00324155 0)
(0.561404 0.00426888 0)
(0.880907 0.00556842 0)
(1.24303 0.00674927 0)
(1.64267 0.00802334 0)
(2.06897 0.00922468 0)
(2.51073 0.0104367 0)
(2.96138 0.0111642 0)
(3.41442 0.0128976 0)
(3.86804 0.0126598 0)
(4.31613 0.0148121 0)
(4.75373 0.0144209 0)
(5.1801 0.0159946 0)
(5.58962 0.0164062 0)
(5.98394 0.0171501 0)
(6.36131 0.0176593 0)
(6.72117 0.0183438 0)
(7.06338 0.0176819 0)
(7.38617 0.0190969 0)
(7.69274 0.0167433 0)
(7.98118 0.018881 0)
(8.25207 0.0167914 0)
(8.50663 0.0182179 0)
(8.74282 0.0178448 0)
(8.96296 0.0176189 0)
(9.167 0.0171899 0)
(9.35595 0.0160578 0)
(9.5322 0.0143171 0)
(9.6956 0.0132132 0)
(9.84849 0.0102898 0)
(9.99307 0.00988643 0)
(10.1281 0.00714718 0)
(10.2526 0.006276 0)
(10.3677 0.00494166 0)
(10.4758 0.00384209 0)
(10.573 0.00268498 0)
(10.6672 0.00133149 0)
(10.7473 -0.000811771 0)
(0.00334117 0.000222088 0)
(0.0649148 0.000569679 0)
(0.187407 0.00114991 0)
(0.354245 0.00147157 0)
(0.552257 0.00198043 0)
(0.77644 0.00239414 0)
(1.02385 0.0028513 0)
(1.28759 0.00328429 0)
(1.56055 0.00373997 0)
(1.83884 0.00388299 0)
(2.11847 0.00468862 0)
(2.39885 0.00420773 0)
(2.67586 0.00532222 0)
(2.9466 0.00477623 0)
(3.21072 0.00554897 0)
(3.46429 0.00556085 0)
(3.70861 0.00578817 0)
(3.9425 0.00587877 0)
(4.16548 0.00612225 0)
(4.37762 0.00543848 0)
(4.57729 0.00623699 0)
(4.76723 0.00436937 0)
(4.94576 0.00571832 0)
(5.11346 0.00406261 0)
(5.27121 0.00493124 0)
(5.41741 0.00454642 0)
(5.5541 0.00429277 0)
(5.6807 0.00394116 0)
(5.79793 0.00309032 0)
(5.90737 0.00175391 0)
(6.00855 0.000992495 0)
(6.10361 -0.00136818 0)
(6.19355 -0.00160547 0)
(6.27877 -0.00376097 0)
(6.35692 -0.0043169 0)
(6.42905 -0.00528425 0)
(6.49734 -0.00607795 0)
(6.55894 -0.00690072 0)
(6.61858 -0.00790389 0)
(6.67013 -0.00957112 0)
(0.00173958 4.61401e-05 0)
(0.03844 0.000131668 0)
(0.111297 0.000335914 0)
(0.209857 0.000417643 0)
(0.326552 0.000595893 0)
(0.458769 0.000717967 0)
(0.604779 0.000859089 0)
(0.760436 0.000994303 0)
(0.921505 0.00114274 0)
(1.08557 0.00112642 0)
(1.25054 0.0014634 0)
(1.41598 0.00110186 0)
(1.57951 0.00161656 0)
(1.73949 0.00122328 0)
(1.89559 0.00155566 0)
(2.04569 0.00147392 0)
(2.19042 0.00150735 0)
(2.32903 0.00147608 0)
(2.4612 0.00153765 0)
(2.58679 0.00107944 0)
(2.70485 0.00147687 0)
(2.81697 0.000324342 0)
(2.92216 0.00105094 0)
(3.02092 9.34573e-06 0)
(3.11372 0.000441772 0)
(3.20001 0.000131171 0)
(3.28102 -0.000101051 0)
(3.35618 -0.000349505 0)
(3.42586 -0.000916032 0)
(3.49075 -0.00174852 0)
(3.55049 -0.00222293 0)
(3.60666 -0.00377633 0)
(3.65952 -0.00392291 0)
(3.70985 -0.00536634 0)
(3.75619 -0.00566922 0)
(3.79876 -0.00638762 0)
(3.83978 -0.00694692 0)
(3.87695 -0.00750152 0)
(3.91286 -0.00819422 0)
(3.94432 -0.00938292 0)
(0.000750992 1.03048e-05 0)
(0.0207307 1.91031e-05 0)
(0.0607718 9.05257e-05 0)
(0.114783 9.74204e-05 0)
(0.178633 0.000158578 0)
(0.251138 0.000186973 0)
(0.331247 0.000225036 0)
(0.416691 0.000261922 0)
(0.505201 0.000309469 0)
(0.595169 0.000264008 0)
(0.685931 0.000418477 0)
(0.776698 0.000179662 0)
(0.866529 0.000436978 0)
(0.954531 0.000186474 0)
(1.04021 0.00034428 0)
(1.12303 0.000273956 0)
(1.20287 0.000267083 0)
(1.27941 0.000222802 0)
(1.35256 0.000235835 0)
(1.42172 -4.92777e-05 0)
(1.48693 0.000161773 0)
(1.54834 -0.000523716 0)
(1.60583 -0.000116602 0)
(1.6598 -0.000731112 0)
(1.71017 -0.000488981 0)
(1.75763 -0.000670117 0)
(1.8023 -0.00080796 0)
(1.84397 -0.000951783 0)
(1.8827 -0.00127942 0)
(1.91846 -0.00177229 0)
(1.95124 -0.00204654 0)
(1.98175 -0.00298256 0)
(2.01006 -0.00308766 0)
(2.03696 -0.00394286 0)
(2.06152 -0.00411311 0)
(2.08414 -0.0045587 0)
(2.10639 -0.00490928 0)
(2.12665 -0.00525977 0)
(2.14612 -0.00571531 0)
(2.16304 -0.00668998 0)
(0.000477716 -8.77919e-06 0)
(0.010073 -2.28444e-06 0)
(0.0291815 -9.52955e-07 0)
(0.0548353 1.02416e-05 0)
(0.0850739 1.18482e-05 0)
(0.119516 1.83221e-05 0)
(0.157528 2.24481e-05 0)
(0.198102 2.88744e-05 0)
(0.240236 2.72271e-05 0)
(0.282889 4.45239e-05 0)
(0.326243 2.40423e-05 0)
(0.369278 6.26397e-05 0)
(0.411985 2.59394e-05 0)
(0.453903 6.28638e-05 0)
(0.494473 3.62157e-05 0)
(0.534127 4.84348e-05 0)
(0.572245 4.19376e-05 0)
(0.608895 5.53206e-05 0)
(0.644091 4.5099e-05 0)
(0.677089 9.39253e-05 0)
(0.708482 4.18192e-05 0)
(0.737571 0.000148081 0)
(0.76476 5.25746e-05 0)
(0.790329 0.00014831 0)
(0.813866 6.93887e-05 0)
(0.836647 8.23738e-05 0)
(0.858028 5.85484e-05 0)
(0.878184 6.1943e-05 0)
(0.896981 5.33471e-05 0)
(0.91404 0.000113935 0)
(0.929642 6.40438e-05 0)
(0.943704 0.000176086 0)
(0.956438 0.000110754 0)
(0.968366 0.000208366 0)
(0.978903 0.000166046 0)
(0.988687 0.000156886 0)
(0.99835 0.000137812 0)
(1.00712 0.000180753 0)
(1.0155 0.000169475 0)
(1.02239 0.000205604 0)
(0.000224913 -3.7183e-06 0)
(0.00303408 -5.8941e-06 0)
(0.00852093 -6.70473e-06 0)
(0.0158364 -7.24317e-06 0)
(0.0244207 -7.90798e-06 0)
(0.0342347 -8.83137e-06 0)
(0.0450362 -1.01227e-05 0)
(0.0565765 -1.05508e-05 0)
(0.0686027 -1.27308e-05 0)
(0.0807062 -1.29345e-05 0)
(0.0931468 -1.6735e-05 0)
(0.105357 -1.7955e-05 0)
(0.117523 -2.28632e-05 0)
(0.129495 -2.37886e-05 0)
(0.140974 -2.91515e-05 0)
(0.152377 -2.97916e-05 0)
(0.163287 -3.47075e-05 0)
(0.173819 -3.46698e-05 0)
(0.184004 -4.08446e-05 0)
(0.193445 -3.72236e-05 0)
(0.202554 -5.19692e-05 0)
(0.210805 -4.20941e-05 0)
(0.218513 -6.49346e-05 0)
(0.225784 -5.31456e-05 0)
(0.232347 -7.32882e-05 0)
(0.238947 -7.24759e-05 0)
(0.245096 -8.43074e-05 0)
(0.250973 -8.97433e-05 0)
(0.256471 -0.000103281 0)
(0.261347 -0.00010363 0)
(0.265806 -0.000134006 0)
(0.269625 -0.000128561 0)
(0.272971 -0.000168771 0)
(0.276021 -0.000153503 0)
(0.278552 -0.000179609 0)
(0.280942 -0.000193418 0)
(0.283257 -0.000214017 0)
(0.285331 -0.0002191 0)
(0.287305 -0.000248122 0)
(0.288728 -0.000313574 0)
(0.0148797 -0.0120629 0)
(0.0315755 -0.0262117 0)
(0.0954543 -0.0396598 1.11247e-22)
(0.188682 -0.0414409 0)
(0.291089 -0.0425594 -2.57816e-22)
(0.405139 -0.0425518 2.52241e-22)
(0.528523 -0.0419085 0)
(0.661668 -0.0411057 -4.57314e-22)
(0.805267 -0.0402479 0)
(0.960119 -0.0393178 4.01124e-22)
(1.12684 -0.0382942 0)
(1.30573 -0.0371342 0)
(1.4968 -0.0358223 0)
(1.69956 -0.034322 0)
(1.91285 -0.0325795 1.08246e-21)
(2.13449 -0.030551 -9.99011e-22)
(2.36121 -0.0281847 9.22348e-22)
(2.58852 -0.0256306 0)
(2.81395 -0.0225499 -1.54921e-21)
(3.02366 -0.0190823 1.42005e-21)
(3.21662 -0.0155623 0)
(3.38127 -0.0118036 0)
(3.51062 -0.00869315 0)
(3.61297 -0.00639394 0)
(3.69891 -0.0109912 0)
(3.9691 -0.0250238 -1.69375e-21)
(4.59419 -0.0305953 0)
(5.2313 -0.0167367 0)
(5.34884 0.0140369 8.85836e-21)
(4.46857 0.0573463 -1.67306e-20)
(2.36953 0.0877008 -7.73287e-20)
(-0.16705 0.0482228 0)
(-2.308 0.0192104 1.59448e-19)
(-3.56488 0.0063961 0)
(-4.35176 0.00359432 0)
(-5.20623 0.00492767 0)
(-6.33981 0.00575495 2.84694e-19)
(-7.42129 0.00538105 0)
(-8.47158 0.000791568 0)
(-7.43865 0.00248579 4.24206e-19)
(-10.1918 0.0270283 0)
(-16.2548 0.0266003 3.10871e-19)
(-17.9865 0.0172261 -4.90347e-19)
(-18.1344 0.0157366 -3.76575e-19)
(-17.6053 0.0141084 2.68181e-19)
(-16.3877 0.0235252 0)
(-16.956 0.0272798 0)
(-18.062 -0.000489315 0)
(-17.0238 -0.032063 1.35846e-19)
(-14.8992 -0.0332649 -1.45654e-19)
(-13.1571 -0.0336378 0)
(-10.9293 -0.037127 1.58942e-19)
(-8.08897 -0.0316831 -1.35322e-19)
(-5.52567 -0.0279176 0)
(-2.88308 -0.0236881 1.27754e-19)
(-0.237236 -0.0174393 0)
(1.32681 -0.0134045 -6.75294e-20)
(3.63477 -0.0176131 0)
(7.53076 -0.0185671 0)
(10.7277 -0.0176142 0)
(15.1526 -0.0279461 0)
(23.0991 -0.0315754 0)
(28.0067 -0.0118645 1.40836e-19)
(24.0336 0.0102772 0)
(16.2431 0.0198333 0)
(13.4731 -0.0075769 1.48648e-19)
(17.6655 -0.0306434 0)
(22.7972 -0.0125925 0)
(15.7769 0.0571139 3.18632e-19)
(-2.64703 0.0773156 0)
(-8.21861 0.00646814 0)
(-3.00782 -0.0277663 0)
(-1.44043 -0.0360927 0)
(5.61699 0.0112579 0)
(-16.4404 0.147842 1.51218e-18)
(-60.0366 0.0560874 0)
(-51.4542 0.0499279 1.23186e-18)
(-11.3213 -0.137509 2.34079e-19)
(-31.7995 0.404269 0)
(-90.9254 -0.00117833 0)
(-70.77 -0.180329 -1.87768e-18)
(-45.8746 -0.0691537 0)