/*--------------------------------*- C++ -*----------------------------------*\
| =========                 |                                                 |
| \\      /  F ield         | OpenFOAM: The Open Source CFD Toolbox           |
|  \\    /   O peration     | Version:  2112                                  |
|   \\  /    A nd           | Website:  www.openfoam.com                      |
|    \\/     M anipulation  |                                                 |
\*---------------------------------------------------------------------------*/
FoamFile
{
    version     2.0;
    format      ascii;
    arch        "LSB;label=32;scalar=64";
    class       volScalarField;
    location    "0.07";
    object      nut;
}
// * * * * * * * * * * * * * * * * * * * * * * * * * * * * * * * * * * * * * //

dimensions      [0 2 -1 0 0 0 0];

internalField   nonuniform List<scalar> 
122250
(
0.000186123
0
0.000304342
0
6.07112e-05
2.05833e-05
1.54605e-05
7.81308e-05
1.42562e-05
0
0
0
5.30394e-06
8.10616e-06
7.24861e-06
5.97838e-06
5.25883e-06
4.26821e-06
0.000568468
0
0.000593228
0
0
0
1.52742e-05
0.000115253
7.28698e-06
0
0
0
0
0
1.55286e-06
3.31353e-06
3.56826e-06
2.87099e-06
0.00389988
0
0.00140751
0
0
0
0
0
0
0
2.12204e-05
8.88003e-06
4.19371e-06
0
0
0
2.5826e-06
4.15758e-06
0.00573612
0
0.00217962
0
0
0
1.83899e-05
0
0.000111557
9.03012e-05
5.8643e-05
3.81932e-06
2.20728e-06
0
0
1.17235e-05
4.01431e-05
6.53025e-05
0.00595107
0.00109443
0.00254753
0
0
0
9.94032e-05
9.7999e-05
0.000163793
0.000159121
8.90904e-05
1.59348e-06
0
0
0
1.91035e-06
2.69424e-05
5.67234e-05
0.00605149
0.00185187
0.00321842
0
0
0
0.000197618
0.000132294
0.000182821
0.000180372
0.000128388
3.83364e-05
0
0
0
0
2.12049e-05
5.4287e-05
0.00605781
0.00234484
0.00392084
0
0.000371109
0.000331688
0.000277946
0.000124731
0.000184721
0.0001997
0.000156413
7.58819e-05
1.88703e-05
0
0
3.20959e-06
2.26084e-05
4.81771e-05
0.00613292
0.00262877
0.00457604
0
0.000327899
0.000221931
0.000255609
0.000115504
0.000165255
0.000210647
0.000173235
9.87417e-05
6.12507e-05
0
0
0
2.62535e-05
5.07524e-05
0.00628288
0.00112814
0.00555934
0
0.000315184
0.000159551
0.000217458
0.000170243
0.000188427
0.000182479
0.00013917
0.000102393
8.03818e-05
3.78713e-05
0
0
1.44851e-05
4.04622e-05
0.00641768
0
0.0060991
0
0.000408722
5.58657e-05
0.000159639
0.000133137
0.000156911
0.000129105
6.47434e-05
7.67899e-05
8.27672e-05
6.86366e-05
2.81954e-05
8.51709e-06
1.03645e-05
2.6894e-05
0.00651876
0
0.00557637
0
0.000250747
7.37687e-05
0.000147895
7.70137e-05
6.00463e-05
0
0
0
5.30226e-05
8.10957e-05
6.04692e-05
3.47419e-05
1.92885e-05
1.92591e-05
0.00630972
0
0.00446269
0
2.44871e-05
0.000126302
5.88635e-05
0
0
0
0
0
4.24549e-05
8.59571e-05
7.3838e-05
4.95899e-05
3.12615e-05
1.90449e-05
0.00647141
0
0.00396782
0
9.68895e-06
8.47316e-05
0
0
0
0
0
1.29921e-05
7.17356e-05
9.82843e-05
8.31689e-05
5.81962e-05
4.14339e-05
3.11457e-05
0.00641162
0
0.00358939
0
0
7.94123e-05
4.53894e-05
7.31399e-05
9.45363e-05
0.000100259
7.29193e-05
6.47151e-05
8.81041e-05
9.52017e-05
8.22908e-05
6.37078e-05
4.99633e-05
4.74767e-05
0.00622837
0
0.00343039
0
0
0.000143216
9.07356e-05
0.000113884
0.000132385
0.000126324
0.000101267
9.5325e-05
9.83917e-05
9.0637e-05
7.7612e-05
6.40692e-05
4.53681e-05
5.07361e-06
0.00593621
0
0.00299506
0
0
7.56334e-05
6.77176e-05
0.000103515
0.000118675
0.000112389
8.68973e-05
6.75438e-05
6.19548e-05
6.89594e-05
7.48358e-05
3.77965e-05
0
0
0.00556709
0
0.0013448
0.000908472
2.84091e-05
0
0
0
1.60533e-05
4.51428e-05
3.84671e-05
4.66572e-05
6.23425e-05
6.00923e-05
2.72802e-05
0
2.88897e-05
5.56204e-05
0.00524116
0
0
0.00295013
0.000240278
0
0
0
0
0
0
4.88549e-05
6.45694e-05
6.4674e-05
9.56989e-05
8.99377e-05
6.41387e-05
3.81282e-05
0.00545203
0
0.000396429
0.00357539
0.00055159
0.000148873
0
0
0
0
1.17627e-05
6.16886e-05
0.000121908
0.000165477
0.000184246
0.000143849
6.99266e-05
8.73562e-06
0.00603574
0
0.00320026
0.00198169
0.000711025
0.000327296
0.000126046
4.73589e-05
8.17861e-06
0
1.91604e-05
0.000131145
0.000197877
0.000126661
7.253e-05
1.73784e-05
0
0
0.00684219
0
0.00378115
0.000665321
0.000508796
0.000124004
0.000166961
8.11995e-05
2.82351e-05
0
8.72816e-05
0.000181778
0.000211788
5.68986e-05
7.03173e-05
0.000105278
0
0
0.00754836
0.000681675
0.00285172
0.000241913
0.000165444
0
0
6.72766e-05
3.4365e-05
0
0.000134243
0.000259628
0.000139287
0
0
1.70375e-05
4.3057e-05
4.22399e-05
0.00767981
0.000557351
0.00163608
0
2.91334e-05
0
0
3.55971e-05
6.00822e-05
1.08855e-05
4.59953e-05
4.79615e-05
0.000115749
0.000114415
8.78374e-05
6.54563e-05
5.86391e-05
6.58917e-05
0.00662928
0
0.00041953
0
1.82703e-05
0
1.38259e-05
3.17336e-05
9.21121e-05
2.633e-05
3.78893e-05
6.15009e-05
0.000123823
0.000138281
0.000182958
0.000183117
0.000121926
9.41838e-05
0.00507658
0
0
0
3.28713e-05
5.78789e-05
0.000139948
0.000161461
0.000247811
9.75242e-05
7.427e-05
8.64354e-05
0.000159749
0.000125387
0.000143925
0.000238325
0.000249813
0.000165347
0.00400695
0
0
0
8.88158e-06
4.85623e-05
0.000187692
0.000115953
0.000136212
0.000103755
0.000126207
0.000104285
0.000113913
6.86816e-05
0
0.000200075
0.000300498
0.000281174
0.00375882
0
0
0
0
0
0
0
0
0
0
9.35118e-05
6.34144e-05
0.000120431
6.78625e-05
6.86895e-05
0.00030052
0.000352512
0.00324106
0
0
0
0
0
0
0
0
0
0
0
0
0
0
1.93561e-05
0.000261103
0.000402592
0.000554713
0
0
0
0.000190652
0
0
0
0
0
0
0
0
0
0
0
6.11378e-05
0.000123532
0.000299981
0
0.000406275
0.000456551
0.000172408
0
0
2.397e-05
1.08132e-05
2.79426e-06
0
0
0
0
0
0
4.86133e-05
6.51629e-05
0.000152955
0
0.000110554
0
0
0
0
0
2.32051e-06
0
0
0
5.85778e-06
8.2737e-06
7.29748e-06
6.67912e-06
6.44602e-06
6.28379e-06
0.000515684
0
0.000141267
0
0
0
0
0
0
0
0
1.41816e-05
1.77398e-05
4.66664e-06
3.00695e-06
3.92112e-06
4.26068e-06
4.32627e-06
0.00290316
0
0.000651641
0
0
0
0
0
0
0
6.40165e-05
7.24068e-05
6.19507e-05
2.94376e-05
7.15505e-06
1.38265e-06
3.64147e-06
6.87687e-06
0.0046681
0
0.0015049
9.8691e-05
0
0
0
0
0.00013173
9.48827e-05
0.000124156
0.000110511
0.000105098
5.93912e-05
3.37526e-05
2.36243e-05
3.12055e-05
7.56816e-05
0.0055448
0
0.00252771
0.000205063
1.18819e-05
0
0
0
0.000120529
0.000134429
0.000130083
0.000107248
0.00012314
7.83659e-05
4.21156e-05
2.90362e-05
1.84557e-05
1.03827e-05
0.00588639
0.00015538
0.00353878
9.55912e-05
0.000219687
5.09188e-05
4.54683e-05
0
0.000142414
0.000144118
0.000121094
7.75148e-05
9.00737e-05
5.68709e-05
3.39489e-05
3.37709e-05
3.79578e-05
2.92278e-05
0.00597814
0.000650682
0.00422586
0
0.0004192
0.000285863
0.000105115
6.40953e-05
0.000171699
0.000146273
0.000112291
5.68787e-05
3.57459e-05
0
0
2.13035e-05
4.60371e-05
5.98658e-05
0.00608568
0.000430547
0.00467599
0
0.000666766
0.000202929
0.000126703
0.000119258
0.000173159
0.000126507
9.09573e-05
5.07788e-05
1.35695e-05
0
0
0
2.95931e-05
5.72444e-05
0.00625062
0
0.00522014
0
0.00053263
0.000211734
0.00016394
0.000123595
0.000146303
9.47997e-05
7.8521e-05
7.84075e-05
3.74844e-05
0
0
0
0
3.1201e-05
0.00640997
0
0.0052459
0
0.000409202
0.000177353
0.000121828
8.74214e-05
0.000125407
0.000169154
0.000180445
0.000149173
5.63616e-05
0
0
0
0
0
0.00655526
0
0.00462165
0
0.000187817
0.000111454
8.59726e-05
4.26167e-05
8.30417e-05
0.000151379
0.000158209
9.14153e-05
1.38026e-05
4.17122e-06
2.4307e-05
1.00216e-05
0
0
0.00635135
0
0.00398057
0
4.68425e-05
0.000116352
9.36808e-05
4.17482e-05
0.000136352
0.00019833
0.000143658
3.2368e-05
0
2.75949e-05
4.43263e-05
3.55583e-05
1.27242e-05
0
0.00645355
0
0.00397247
0
0
0.000326493
0.000100369
0.000115943
0.000163832
0.000200403
0.000134243
2.56978e-05
1.73376e-05
4.84092e-05
5.66013e-05
4.88622e-05
3.83827e-05
2.27167e-05
0.00632923
0
0.00400946
0
0
0.000187378
7.63915e-05
0.000141386
0.000146174
0.000126322
6.35558e-05
2.46576e-05
4.07004e-05
6.18641e-05
6.35344e-05
5.825e-05
5.48625e-05
4.8174e-05
0.00612134
0
0.00401534
0
0
7.87576e-05
4.11094e-05
0.000129405
0.000135578
9.77422e-05
5.65183e-05
4.70012e-05
5.93757e-05
7.11803e-05
6.84622e-05
5.73051e-05
3.79366e-05
7.8866e-06
0.00585552
0
0.00347976
0
0
7.81733e-06
0
3.51663e-05
5.32705e-05
5.7733e-05
4.07372e-05
2.11729e-05
3.13101e-05
4.82148e-05
4.4638e-05
0
0
0
0.0055348
0
0.00155968
0.00093576
5.6991e-05
0
0
0
0
0
1.43746e-05
3.87919e-05
2.53637e-05
0
0
0
4.17776e-06
4.3882e-05
0.00524385
0
0
0.00340918
0.000324032
0
0
0
0
0
2.29765e-05
5.61211e-05
5.46889e-05
5.3104e-05
7.25152e-05
8.73592e-05
6.60998e-05
5.21342e-05
0.00550158
0
0
0.00408109
0.00060653
0.00011478
0
0
0
2.33634e-05
5.38145e-05
6.72598e-05
0.000106697
0.000142154
0.000156806
0.000107379
1.45533e-05
3.2982e-05
0.00618957
0
0.00211497
0.00254412
0.000714033
0.000257384
6.61212e-05
1.37412e-05
2.43504e-05
2.40352e-05
1.53914e-05
6.2428e-05
0.000137234
8.24844e-05
5.74384e-05
0
0
2.85672e-05
0.00718604
0
0.00273167
0.00160962
0.000630025
0.000185516
9.17628e-05
2.06808e-05
0
0
0
4.11019e-05
4.11964e-05
0
1.99365e-05
7.95899e-05
0
5.66174e-06
0.00817127
0
0.00220714
0.00111493
0.000384166
4.74564e-06
5.67257e-05
4.6849e-05
0
0
0
9.52591e-05
0
0
0
4.56104e-06
2.81185e-05
3.82098e-05
0.00898492
0
0.00132733
0.000682973
0.000398693
0.000101281
8.09612e-05
4.227e-05
2.37225e-05
1.80676e-05
9.76527e-05
0.000113258
9.64819e-05
6.7079e-05
6.45792e-05
6.11166e-05
5.69318e-05
6.14274e-05
0.00890944
0
0.000303549
0.000206125
0.000466556
0.000261939
0.00020126
8.95245e-05
5.69469e-05
8.79954e-05
0.000141539
0.000144736
0.000116958
6.76881e-05
9.8885e-05
0.000152857
0.000149945
0.000117914
0.00735939
0
0
0
0.000405833
0.000367534
0.000321537
0.00011428
0.000126056
0.000138452
0.000180246
0.000164879
0.000122353
8.1694e-05
7.79028e-05
0.000177773
0.000230646
0.000210506
0.00587436
0
0
0
0.000247453
0.000286002
0.000261167
8.26866e-05
0.000109302
7.47328e-05
0.000117096
0.000144219
6.05244e-05
5.88417e-05
0
0
0.000190139
0.000236017
0.00556997
0
0
0
0.000130495
3.95617e-05
0.000112006
0
0
0
0
0.000323139
0.000218206
0
0
0
2.70565e-06
0.000295204
0.00438422
0
0
0
0.000226702
0.000145044
0
0
0
0
0
0.000176992
7.6586e-06
0
0
0
0
0.000282809
0.000508385
0
0
0
0.000259638
0.000403919
0
0
0
0
0
0
0
0
0
0
0
8.00053e-05
0.000185342
0
0
6.07932e-05
0.000126105
0.000192117
0
0
4.76769e-05
0
0
0
0
0
0
0
0
4.54765e-05
0.000195128
0.000148224
4.30561e-05
0
0
0.000143547
1.02943e-05
1.72159e-05
1.33374e-05
0
0
0
0
0
0
0
0
0
0.000487833
0.000172848
3.53342e-05
0
0
0.000148532
3.16141e-05
0
0
0
0
0
0
0
0
0
0
0
0.00217507
0
0
0
0
0.000140351
0.000135732
0
0
0
5.14547e-06
1.85733e-05
2.55867e-05
1.88212e-05
1.26157e-05
6.48975e-06
4.88645e-06
5.32824e-06
0.00337563
0
0.000240374
0
0
0
0
0
0.000101512
8.99038e-05
9.50158e-05
6.71001e-05
5.84334e-05
4.36583e-05
3.81374e-05
3.41095e-05
3.07511e-05
3.34914e-05
0.00444772
0
0.00122891
0
0
0
0
0
8.98665e-05
0.000135611
0.000139954
9.89609e-05
7.64512e-05
5.57763e-05
5.00594e-05
4.46232e-05
3.17588e-05
7.66764e-07
0.00545283
0
0.00240207
0
0.000100487
0
0
0
8.87716e-05
0.000135822
0.000152474
0.000116414
7.42116e-05
3.28428e-05
4.31996e-05
5.14439e-05
4.92061e-05
3.05193e-05
0.00591716
0
0.00324594
0
0.000164238
1.88648e-05
3.43018e-06
0
0.000119112
0.000126931
0.000136493
0.000108054
5.70043e-05
0
3.08674e-06
4.62723e-05
6.63494e-05
6.60164e-05
0.00611236
0
0.00376638
0
7.07043e-05
7.18122e-05
9.13065e-05
7.58971e-05
0.000149368
9.86597e-05
9.90897e-05
6.42465e-05
0
0
0
2.83791e-05
6.74414e-05
9.20515e-05
0.00625415
0
0.00432928
0
0.000215125
0.000258292
0.000202832
0.000135811
0.000100904
2.93637e-05
3.88541e-05
0
0
0
0
3.00207e-05
5.43094e-05
7.49003e-05
0.00639221
0
0.0045885
0
0.000359074
0.000302324
0.000172257
4.85638e-05
3.00291e-05
2.11021e-05
7.06365e-05
3.19433e-06
0
1.91703e-05
3.86082e-05
3.48349e-05
3.54042e-05
4.22735e-05
0.0065367
0
0.00421957
0
0.000360897
0.000259679
0.000168324
8.52805e-05
0.000151541
0.000129603
0.000141937
5.10304e-05
4.32283e-05
0.000107787
9.03605e-05
5.33356e-05
2.29529e-05
1.26937e-05
0.00632388
0
0.00372503
0
0.000331017
0.000190343
0.000160737
6.42606e-05
7.4942e-05
2.60068e-05
0
0
7.90968e-05
0.000128256
0.000108597
6.6954e-05
2.31568e-05
0
0.00643855
0
0.00372917
0
0.000209079
0.000116668
0
0
0
0
0
2.0837e-05
0.000115195
0.000137342
0.000115418
7.40482e-05
3.03866e-05
0
0.00634568
0
0.00383836
0
0
0
0
0
4.18248e-05
2.41514e-05
3.67797e-05
0.000101751
0.000139817
0.000135743
0.000106559
6.71569e-05
2.87629e-05
6.34211e-06
0.00614994
0
0.0039552
0
0
0.00012292
9.83486e-05
0.00012893
0.000128662
0.000109207
0.000104253
0.00012477
0.000128252
0.000111252
8.00463e-05
3.20238e-05
0
0
0.005875
0
0.00359659
0
0
4.81429e-05
2.52633e-05
5.74682e-05
7.26806e-05
9.10651e-05
8.46352e-05
7.27793e-05
7.01914e-05
5.68816e-05
3.65433e-06
0
0
0
0.00554434
0
0.0016455
0.000821624
4.48425e-05
0
0
0
0
0
3.34004e-05
4.45985e-05
3.41531e-07
0
0
0
9.35783e-06
4.99521e-05
0.00525751
0
0
0.00412689
0.000463705
2.37591e-05
0
0
0
0
4.88079e-05
7.92676e-05
7.29298e-05
6.25559e-05
7.91272e-05
9.00857e-05
8.03565e-05
9.3606e-05
0.00553786
0
0
0.00492169
0.00080581
0.000154393
0
0
2.46859e-05
5.22244e-05
6.07608e-05
6.94797e-05
0.000124179
0.000171665
0.000184387
0.000112508
4.77529e-05
7.86125e-05
0.00626813
0
0.00114892
0.00318154
0.000779478
0.000227712
7.51823e-05
9.7884e-05
0.000133977
8.65049e-05
1.0105e-05
8.86537e-07
7.43878e-05
7.76721e-05
6.07355e-05
0
5.64256e-05
8.8994e-05
0.00727581
0
0.00191267
0.0020351
0.000626436
0.000174198
8.2917e-05
0.000104413
0.000109271
3.28937e-05
0
0
0
0
4.37333e-05
6.79777e-05
1.13992e-05
5.51582e-05
0.00809738
0
0.00154808
0.0012871
0.000400066
0.000129898
0.000104925
2.17104e-05
0
0
3.5906e-05
7.108e-06
1.86044e-06
0
8.76757e-06
3.70308e-05
3.69653e-05
3.58263e-05
0.00845703
0
0.000892093
0.0010645
0.000593808
0.000339797
0.000223315
9.31508e-05
4.59081e-05
0.000111776
0.000172683
0.000161507
9.12443e-05
5.55958e-05
7.68309e-05
8.00577e-05
6.58849e-05
5.90836e-05
0.0083065
0
0
0.00059752
0.000707154
0.000704158
0.000685615
0.000282197
8.08469e-05
0.00014702
0.000221574
0.000184402
9.06658e-05
3.43388e-05
6.25926e-05
0.000124379
0.000155808
0.000147787
0.0076513
0
0
0
0.000666073
0.000885974
0.000799624
0.000212803
8.9207e-05
0.000133193
0.000236398
0.000177247
3.73465e-05
2.80743e-05
5.64918e-05
0.000179921
0.000266091
0.000253074
0.00697316
0
0
0
0.00042206
0.000683285
0.000431557
6.61044e-05
6.7541e-05
6.00943e-05
0.000388319
0.000480308
0.000253029
0.000186408
6.27755e-05
0
1.0686e-05
0.000168485
0.00665297
0
0
0
0.000320603
0.000443882
0
0
0
0
4.69179e-06
0.000647663
0.000381989
0.000122786
0
0
0
0.000103042
0.00467383
0
0
0
0.000333234
0.000656314
0
0
0
0
0
0.000329925
0.000237981
0
0
0
0
3.16347e-05
0.000458807
0
0
0
0.000153687
0.00047745
0
0
0
0
0
4.21025e-05
2.01222e-05
1.02049e-05
0
0
0
7.16304e-06
9.37865e-05
0
0
3.37591e-06
6.72475e-05
0.000181222
5.21996e-06
0
0
0
0
0
2.21996e-05
5.51426e-05
0
0
0
1.53073e-05
0.000196026
0.000101562
0
0
7.68683e-05
0.000257473
9.06408e-05
9.42648e-06
9.02661e-06
0
0
6.48807e-06
3.46852e-05
0
0
0
0
0
0.000454517
0.000249707
0
0
0.000136968
0.000628035
8.80744e-05
0
0
0
0
0
1.77774e-05
0
0
0
0
0
0.0019254
0
0
0
0.000281169
0.000277404
0.000140015
0
0
0
0
0
0
0
2.74313e-07
6.0949e-06
1.03283e-05
1.17418e-05
0.00287938
0
0
0
9.38391e-05
0
0.000133946
0
0.000101501
8.33208e-05
5.04024e-05
1.50418e-05
1.90684e-05
1.88199e-05
1.68302e-05
1.01471e-05
8.41991e-06
2.11474e-05
0.00383453
0
0.000507917
0
0
0
6.53264e-05
0
0.000113035
0.000138085
0.000101237
2.79592e-05
2.46534e-05
4.00813e-05
4.67989e-05
4.20208e-05
2.04525e-05
0
0.00501979
0
0.00140668
0.000161334
0
0
3.34637e-05
2.52112e-05
0.000124113
0.000165743
0.000158126
6.68985e-05
5.08604e-06
2.42279e-05
4.75769e-05
5.62222e-05
5.80182e-05
3.30253e-05
0.00586522
0.000906902
0.00186116
0.000258403
0
0
0
5.0953e-05
0.000147388
0.00017681
0.000190194
0.000110415
1.15865e-05
7.09162e-07
3.73425e-05
5.53711e-05
6.98329e-05
7.29574e-05
0.00628263
0
0.00223242
0.000308811
0
0
0
6.88758e-05
0.000150386
0.000146903
0.000177626
0.000103858
0
0
3.34797e-05
5.59897e-05
6.64334e-05
7.01986e-05
0.00644916
0
0.00282787
0.000343783
0
0
9.04288e-05
4.93425e-05
6.30742e-05
5.43484e-05
0.000117531
3.41496e-05
0
0
3.37112e-05
7.05933e-05
6.91918e-05
6.13646e-05
0.00650087
0
0.00365909
0.0003332
0.000336322
0.00021874
0.000163691
5.69026e-05
5.15406e-05
6.48264e-05
5.67271e-05
0
0
2.17461e-05
4.71675e-05
7.3172e-05
6.79205e-05
6.11945e-05
0.00652794
0
0.00405699
0.000141444
0.000558066
0.000464097
0.000294303
0.000162637
0.000209661
0.000218599
8.95843e-05
0
0
0.00014298
9.62269e-05
7.69197e-05
6.17465e-05
5.13863e-05
0.00623019
0
0.00362941
0
0.000498226
0.000346239
0.000261792
0.000118116
0.000139579
7.10963e-05
0
0
6.89181e-05
0.0001755
0.000120034
7.54178e-05
5.18702e-05
3.94018e-05
0.00637771
0
0.00320993
0
0.000263771
3.66611e-05
3.75826e-05
0
0
0
0
0
0.000105056
0.000162534
0.000121295
7.31464e-05
4.1241e-05
1.69865e-05
0.00637151
0
0.00295037
0
3.20449e-05
0
0
0
7.72659e-06
5.35713e-06
1.40603e-05
6.16256e-05
0.000131139
0.000147034
0.000110328
6.23633e-05
2.44794e-05
1.69686e-06
0.00623236
0
0.00294967
0
7.26537e-05
0.000148962
0.000123292
0.000116002
9.82105e-05
8.90507e-05
8.89608e-05
0.000124838
0.000148321
0.000119164
7.28768e-05
2.37254e-05
0
3.03505e-05
0.00595752
0
0.00311699
0
0
0.000120826
8.73565e-05
9.81382e-05
0.000115029
0.00012342
9.57581e-05
7.70481e-05
6.68014e-05
4.85551e-05
9.05177e-06
0
8.88631e-06
5.29839e-05
0.00558025
0
0.00173031
0.000392309
0
1.99696e-05
0
2.84003e-05
4.31412e-05
4.79031e-05
2.72201e-05
1.15187e-05
0
0
0
1.12071e-05
5.27996e-05
7.33889e-05
0.0052725
0
0
0.00400565
0.000494559
7.03124e-05
0
0
0
0
0
9.46641e-06
1.26628e-05
2.4268e-05
5.44258e-05
7.29557e-05
8.43899e-05
7.73377e-05
0.00555038
0
0
0.00528315
0.000904236
0.000193138
0
1.66607e-05
3.29546e-05
4.22378e-05
3.78787e-05
2.41427e-05
7.4619e-05
0.000134435
0.000150591
8.94336e-05
7.77814e-05
9.82993e-05
0.00628193
0
0.000662755
0.00370681
0.00086321
0.00024544
0.000112593
0.000131297
0.000167086
0.000125387
2.57923e-05
9.4293e-06
0.000113717
0.000155506
0.00014305
6.93411e-05
0.000118132
0.000102013
0.00725276
0
0.00147376
0.00239319
0.000775387
0.000249656
0.000160507
0.000176976
0.000211256
0.000128611
5.82487e-05
1.05466e-05
3.47456e-05
4.58677e-05
7.5442e-05
1.66131e-05
2.78223e-05
5.26778e-05
0.00791193
0
0.00123611
0.00165069
0.000729005
0.000391108
0.000234798
0.000113361
8.36104e-05
9.70427e-05
0.000127371
8.87059e-05
5.84875e-05
1.10374e-05
0
0
0
1.4653e-06
0.00789616
0
0.000478289
0.00149683
0.000853573
0.00057694
0.000396637
0.000142133
6.9952e-05
0.000128904
0.000171167
0.0001325
3.33217e-05
1.96783e-05
5.43008e-05
2.01213e-05
0
0
0.00752723
0
0
0.000238655
0.00054971
0.000802851
0.00069206
0.000238582
8.76177e-05
0.000136255
0.000202101
0.00014291
2.41352e-06
0
1.38402e-05
5.25948e-05
7.09319e-05
7.95985e-05
0.00712889
0
0
0
5.47793e-05
0.000392946
0.000496013
0.000437823
0.000277262
0.000180912
0.000247668
0.000198506
6.11244e-05
2.86521e-05
0
4.61467e-05
0.000168285
0.000220976
0.00679552
0
0
0
0.00017989
0.000278034
0.000341397
0.000575602
0.000606004
0.000493242
0.000629058
0.000584507
0.000337948
0.000227011
0.000136493
0
0
0
0.00653195
0
0
0
0.00049636
0.000309593
6.99074e-05
0
0
0.000274346
0.000749806
0.000848149
0.000495166
0.000303944
8.74855e-05
0
0
0.000106893
0.00457625
0
0
0
0.0002603
0.00025554
0
0
0
0
0
0.000534648
0.000412343
7.26785e-05
0
0
0
5.53752e-06
0.000487609
0
0
0
9.96989e-06
8.15362e-05
0
0
0
0
0
6.71711e-05
3.44143e-05
0
0
0
0
0
9.10953e-05
0
0
0
0
4.5592e-05
1.9832e-05
0
0
0
0
5.77012e-06
2.077e-05
0
0
0
0
0
0.000190079
6.33263e-05
0
0
0
0.000138399
0.000266011
7.96619e-05
1.39464e-05
0
0
0
0
0
0
0
0
0
0.000409721
0.000141445
0
0
0
0.000133459
0.000288269
8.49283e-05
1.44754e-05
0
0
0
0
0
0
0
0
0
0.00172822
0
0
0
0
0
0.000221778
0.000103575
3.852e-05
8.41963e-06
0
0
0
0
8.38057e-06
1.89105e-05
1.76835e-05
1.42212e-05
0.0025358
0
0
0
0
0
0.000111942
0
1.15349e-05
0
0
0
0
0
2.8073e-06
3.01618e-05
5.90116e-05
8.14122e-05
0.00330616
0
9.93818e-06
0
0
0
0
0
1.67001e-05
6.71261e-05
2.94788e-05
0
0
6.45035e-06
1.76696e-05
2.33483e-05
3.99471e-05
5.90027e-05
0.00451204
3.40997e-05
0.000814246
0.00026639
0
0
0
0
9.16281e-05
0.000150121
0.000117947
0
0
1.30914e-05
3.55703e-05
3.99051e-05
4.93468e-05
6.92522e-05
0.00585358
9.83657e-05
0.00126855
0.000546771
0
0
0
0
0.000155112
0.000189507
0.000171265
5.03418e-05
0
0
3.80396e-05
4.8555e-05
5.80946e-05
7.68562e-05
0.00669913
0
0.00164256
0.000642814
0
0
1.36572e-05
5.74133e-05
0.000181182
0.000183777
0.000174451
4.93859e-05
0
0
2.58913e-05
5.59685e-05
5.6069e-05
5.85264e-05
0.00691786
0
0.0020584
0.000795678
4.34381e-05
0
0.000167334
0.000128115
0.000120835
0.000110135
9.56667e-05
0
0
0
2.05804e-05
7.1756e-05
6.61774e-05
5.10196e-05
0.00685483
0
0.0026035
0.00107249
0.000674588
0
0.000228776
0.000159448
0.000194037
0.000194514
4.82543e-05
0
0
1.60123e-05
4.706e-05
7.73778e-05
7.13876e-05
5.78419e-05
0.00676259
0
0.00302597
0.00117344
0.000872702
0.000531593
0.00034762
0.000226848
0.000282035
0.000270454
0.000156854
0
0
1.73784e-05
0.000100812
9.09019e-05
7.35172e-05
5.57849e-05
0.00639184
0
0.00289914
0.000534323
0.000726247
0.000543124
0.000421864
0.000266357
0.000250896
0.000179665
8.97022e-05
0
0
1.70601e-05
0.000115968
9.61372e-05
7.10385e-05
4.92599e-05
0.00648342
0
0.00235018
0
0.000474696
0.000293009
0.000350507
0.000201801
0.000121569
0
0
0
0
0.000103624
0.000127959
9.34985e-05
6.26102e-05
3.15484e-05
0.00644273
0
0.0016227
0
0.000141852
6.57251e-05
6.82663e-05
1.62476e-05
0
0
4.84145e-07
5.69823e-05
0.000123379
0.000165172
0.000138252
8.1957e-05
4.34346e-05
3.64237e-05
0.00631086
0
0.00129457
0
0.000143024
0.000232629
0.000189724
0.000136955
9.5318e-05
9.17754e-05
0.000109106
0.000167484
0.000199548
0.000161545
9.60518e-05
4.32926e-05
3.70188e-05
7.03984e-05
0.00605416
0
0.00179311
0
0.000228095
0.00024536
0.000169727
0.000160979
0.000159079
0.00015763
0.000139636
0.000132476
0.000118065
8.49616e-05
4.62745e-05
3.67292e-05
8.2221e-05
9.77459e-05
0.00562676
0
0.00170328
6.68588e-05
0
0.000170944
0.000102217
0.000108483
0.000121453
0.000115978
8.38619e-05
6.76557e-05
6.10359e-05
3.79121e-05
4.86754e-05
9.4627e-05
0.000118238
0.00012401
0.00528182
0
0
0.00309224
0.000394716
0.000144329
3.35378e-06
2.99037e-05
4.05497e-05
4.41103e-05
3.85316e-05
5.51312e-05
3.98767e-05
0
2.65627e-05
7.58083e-05
0.000116193
7.22784e-05
0.00554158
0
0
0.00457444
0.000778748
0.000191574
0
4.11995e-06
2.07863e-05
5.32088e-05
8.38214e-05
6.31033e-05
0
5.18329e-05
8.28435e-05
4.27387e-05
5.1255e-05
5.05193e-05
0.00627171
0
0.00110186
0.00300128
0.000667102
0.000186748
6.37793e-05
0.000113277
0.00015983
0.000147478
0.000105514
9.16057e-06
7.7694e-05
0.000139232
0.000140552
7.83452e-05
0.000122398
0.000114345
0.00732282
0
0.00176036
0.00198527
0.000602983
0.000181904
9.83102e-05
0.000167745
0.000206651
0.000154436
9.69927e-05
4.28077e-05
5.53334e-05
4.42717e-05
3.71296e-05
0
5.25206e-05
6.23085e-05
0.00824039
0
0.00142022
0.00130783
0.00057773
0.000255087
0.000143209
0.000123623
0.000144001
7.20605e-05
7.96515e-06
1.09819e-05
7.23763e-05
1.23959e-05
0
0
0
2.16292e-05
0.0085231
0
0.00065247
0.000662262
0.000429346
0.000324426
0.000155238
0.000103684
7.07541e-05
4.62449e-05
7.50495e-05
6.64909e-05
1.5821e-05
6.19195e-06
0
0
0
0
0.00818085
0
0
0
3.62591e-05
0.000188825
0.000131453
0.000229992
0.000120813
2.43071e-05
4.87818e-05
2.44471e-05
0
0
0
2.3225e-05
2.4359e-05
3.14869e-05
0.00767796
0
0
0
0
0
0.000116446
0.000556955
0.000367827
0.000124679
8.0399e-05
7.4599e-05
3.3935e-05
6.04911e-06
0
6.35493e-05
0.000124235
0.000108456
0.00740718
0
0
0
0
0
0.000256837
0.00083425
0.000762102
0.000417631
0.000276886
0.000227942
0.000169124
0.000122489
0.00012033
9.24269e-05
1.11014e-05
0
0.00728988
0
0
0
0.000209519
0.000104768
0.000287126
0.000910788
0.000903611
0.00064356
0.000478639
0.000338062
0.000215722
0.000156787
7.42781e-05
3.43089e-06
0
0
0.00511746
0
0
0
1.1793e-05
0.000198322
0
0
0.000123127
0.000266676
0.00030451
0.000269524
0.00018759
5.01519e-05
0
0
0
0
0.000607473
0
0
0
0
0.000146447
0.000160595
0
0
0
0
1.21251e-05
0
0
0
0
0
0
0.000208738
0
0
0
0
0.000100863
0.00016734
0
0
0
6.70405e-06
0
3.31892e-06
0
0
0
0
0
0.00016189
6.84784e-05
5.51581e-06
0
0
8.81999e-06
0.000289155
0.000300096
3.42433e-05
0
0
0
0
0
0
0
0
0
0.000452488
0
0
0
0
5.00106e-07
0.000422944
0.00027612
3.75416e-05
9.37705e-06
0
0
4.00403e-06
0
0
0
0
0
0.00214084
0
0
0
8.97093e-05
0
0.000268585
0.00018426
8.06423e-05
8.53382e-05
7.54145e-05
5.45114e-05
4.19351e-05
3.24776e-05
3.66774e-05
2.98525e-05
1.72361e-05
7.03331e-06
0.00311054
0
0
0
0.000367546
0
0.000149917
9.18442e-05
8.2721e-05
8.08452e-05
0.000101112
2.53168e-05
1.31197e-07
0
2.24367e-05
5.20691e-05
7.27926e-05
7.32829e-05
0.00392
0
0
0.000234923
0.000431993
0
8.76867e-05
0
7.9484e-05
6.20982e-05
8.58775e-05
0
0
0
0
9.51759e-06
4.97965e-05
7.92869e-05
0.00503492
0
0.000420723
0.000498451
0.000420732
0
0
0
5.29526e-05
9.3047e-05
9.27807e-05
0
0
0
0
0
2.86611e-05
6.2335e-05
0.00604915
0
0.000903896
0.000669334
0.000367313
0
2.14286e-05
0
8.22587e-05
0.000129823
0.000114578
1.83576e-05
0
0
0
7.60594e-06
3.28362e-05
4.97546e-05
0.00657242
0
0.00125839
0.000865129
0.000244182
0
6.94703e-05
4.99196e-05
6.9976e-05
0.000117017
7.16857e-05
0
0
0
0
1.12376e-05
3.13843e-05
4.07716e-05
0.00668115
0
0.00152498
0.0011729
0.00031488
0
0
3.68131e-05
3.38441e-05
0
0
0
0
0
2.00017e-05
3.3076e-05
4.10765e-05
4.94776e-05
0.00663993
0
0.0017679
0.00159634
0.000858191
0
0
2.03195e-05
0.000125239
6.58214e-05
0
0
0
0
7.19846e-05
6.33914e-05
5.35253e-05
5.34393e-05
0.00660918
0
0.00192301
0.00196053
0.00104566
0.000326658
0.000190607
0.000111908
0.000177562
0.000175718
0.000131533
0
0
0
0.000114129
0.00010268
7.41229e-05
5.83454e-05
0.00631561
0
0.00191652
0.00176062
0.00078686
0.000517466
0.000373151
0.000209999
0.000223854
0.000195764
0.000172943
8.87627e-06
0
0
0.000130838
0.000121392
8.556e-05
6.10582e-05
0.00644268
0
0.00134935
0.000813148
0.00049122
0.000258641
0.000369946
0.000275671
0.000232629
0.000159088
0.000129194
1.43139e-05
0
6.06913e-05
0.000164853
0.000128294
8.35647e-05
5.32536e-05
0.00642535
0
0.000170947
0
0.000130671
6.66039e-05
0.00022482
0.000149681
7.71614e-05
0.000101678
0.000181991
0.000196205
0.000186786
0.000226055
0.000196168
0.000124121
7.43781e-05
5.7448e-05
0.00634645
0
0
0
0
0.000121655
0.000170206
0.000137925
0.000149558
0.000212519
0.000251856
0.000312823
0.000319409
0.000231927
0.000142253
8.50788e-05
7.0002e-05
8.89767e-05
0.0061408
0
5.35424e-05
0
0.000430351
0.000439704
0.000345246
0.000343998
0.000358942
0.000337708
0.000276535
0.00022165
0.000172465
0.000129242
9.22269e-05
8.51129e-05
0.000112775
0.000128307
0.005678
0
0.00121474
0
0.000199318
0.00037785
0.000271921
0.000263559
0.000242259
0.000192077
0.000139838
0.000117732
0.000111721
0.000106407
0.000117899
0.00014735
0.00016294
0.000173447
0.00528829
0
0
0.00259199
0.000321301
0.000272486
0.000146289
0.000142398
0.000148416
0.000128754
9.69332e-05
0.000107971
0.000124651
6.54245e-05
5.39448e-05
8.09041e-05
9.47617e-05
5.72089e-05
0.00551125
0
0
0.00433821
0.00065423
0.000187061
0
3.38795e-05
7.43069e-05
0.000110307
0.00013828
0.000127955
0
0
3.66987e-05
3.88992e-05
1.441e-05
0
0.00619298
0
0.00199699
0.00260752
0.000609612
0.00020097
3.31092e-05
0.00010131
0.000162652
0.000151075
0.000152114
6.99142e-05
0
3.52667e-05
6.56057e-05
1.31272e-05
5.90072e-05
2.24366e-05
0.00724708
0
0.00259346
0.00175513
0.000604635
0.000171259
6.46265e-05
0.000171974
0.000190216
7.90341e-05
0
0
7.68838e-05
5.73509e-05
1.64785e-05
2.47943e-05
8.23373e-05
8.34044e-05
0.0083657
0
0.00215735
0.00127425
0.000551139
6.83652e-05
7.34202e-05
0.000134561
0.00011201
0
0
0
0
6.74595e-05
4.59536e-05
4.66566e-05
5.91782e-05
8.91573e-05
0.00896236
0
0.0013467
0.000918203
0.000478117
0.000120734
2.57919e-05
5.78595e-05
1.91948e-05
0
0
0
6.35897e-06
0.000123675
0.000119998
6.38383e-05
5.49385e-05
6.03707e-05
0.00809529
0
0.0001438
9.54788e-05
0.000351721
0.000110281
0
4.41248e-05
9.51989e-06
0
0
0
0
2.63742e-05
0.000172279
0.000172933
0.000131509
7.86889e-05
0.00686509
0
0
0
0
0
0
0.000169549
0.000140409
2.92862e-05
0
0
0
0
0.000125595
0.000221375
0.000212282
0.000149818
0.00627968
0
0
0
0
0
9.59078e-05
0.000444015
0.000338888
0.000169169
0.000125531
0.000140693
0.000120318
6.4995e-05
0.000169654
0.000202673
0.000171209
0.000188661
0.005877
0
0
0
0
0
0.000183569
0.000590627
0.000625484
0.00031715
0.00020492
0.000183101
0.000166578
0.000121518
0.000111596
7.48304e-05
7.05583e-05
8.50864e-05
0.00411281
0
0
0
0
0
0
9.17145e-05
0.000423853
0.000276039
0.000177953
0.000148948
8.02673e-05
5.01458e-05
0
0
0
0
0.000582619
0
0
0
2.76412e-05
0.000279829
0
0
2.97308e-05
4.19618e-05
1.64032e-05
0
0
0
0
0
0
0
0.000337273
0
0
0
0.000105544
0.000213453
0.000156446
0
0
3.76151e-05
2.74313e-05
0
0
0
0
0
0
0
0.000181095
0
2.5576e-05
0
0
0
8.51749e-05
0.000151763
0.000219714
7.64729e-05
0
0
0
1.14083e-05
1.20972e-05
1.04892e-05
9.27704e-06
9.6278e-06
0.000557001
0
0
0
8.59874e-05
0
0.000121494
0.000206716
0.000233745
7.85563e-05
0
0
1.85529e-05
1.15198e-05
1.11019e-05
9.89111e-06
9.07856e-06
9.72224e-06
0.00264589
0
0
0
0.00103739
0
0.000103854
0.000300977
0.000205455
9.66579e-05
3.50295e-05
5.232e-05
2.68136e-05
1.03683e-05
1.91049e-05
2.32556e-05
2.34596e-05
2.40438e-05
0.00376388
0
0
0.000629228
0.00107117
3.9757e-05
0.000109992
0.000235991
0.000179395
1.41813e-05
5.14591e-05
2.92653e-05
0
0
0
1.3392e-05
4.43035e-05
5.68975e-05
0.00450769
0
0.000145121
0.00136649
0.00105775
0.000345257
0.000193348
0.000177613
0.000130343
0
6.44997e-05
0
0
0
0
0
1.21211e-05
5.95699e-05
0.00528055
0
0.00113839
0.0014077
0.00110693
0.000431612
0.000146632
8.12001e-05
3.90387e-05
5.65452e-05
6.53368e-05
0
0
0
0
0
0
2.28654e-05
0.00568838
0
0.0014096
0.00137065
0.00113553
0.000258325
0.000123457
1.45136e-05
0
1.97791e-05
1.84873e-05
0
0
0
0
0
0
0
0.00580848
0
0.00151509
0.00142728
0.00106328
0
0.000125487
4.51174e-06
0
0
0
0
0
0
0
0
0
5.77194e-07
0.00583937
0
0.00160989
0.00158409
0.00094795
0
2.35442e-05
0
0
0
0
0
0
0
0
0
1.56377e-06
1.91122e-05
0.00588828
0
0.0016195
0.00181682
0.000979048
3.93165e-05
0
4.78245e-05