/*--------------------------------*- C++ -*----------------------------------*\
| =========                 |                                                 |
| \\      /  F ield         | OpenFOAM: The Open Source CFD Toolbox           |
|  \\    /   O peration     | Version:  2112                                  |
|   \\  /    A nd           | Website:  www.openfoam.com                      |
|    \\/     M anipulation  |                                                 |
\*---------------------------------------------------------------------------*/
FoamFile
{
    version     2.0;
    format      ascii;
    arch        "LSB;label=32;scalar=64";
    class       volScalarField;
    location    "0.23";
    object      nut;
}
// * * * * * * * * * * * * * * * * * * * * * * * * * * * * * * * * * * * * * //

dimensions      [0 2 -1 0 0 0 0];

internalField   nonuniform List<scalar> 
12225
(
8.17969e-06
1.03378e-05
1.11585e-05
1.13954e-05
1.13792e-05
1.12639e-05
1.11216e-05
1.09868e-05
1.08763e-05
1.07987e-05
1.07507e-05
1.07233e-05
1.07211e-05
1.0746e-05
1.07995e-05
1.08795e-05
1.09789e-05
1.10401e-05
2.40115e-06
2.05636e-06
2.15559e-06
2.28923e-06
2.40135e-06
2.48499e-06
2.54431e-06
2.5849e-06
2.61125e-06
2.62703e-06
2.62809e-06
2.61743e-06
2.5929e-06
2.55142e-06
2.48859e-06
2.39815e-06
2.26834e-06
2.08736e-06
7.01244e-06
4.72929e-06
3.35858e-06
2.57488e-06
2.1049e-06
1.80672e-06
1.60669e-06
1.46655e-06
1.36768e-06
1.30361e-06
1.25606e-06
1.22255e-06
1.20254e-06
1.19705e-06
1.2092e-06
1.24581e-06
1.32112e-06
1.46358e-06
8.31625e-06
7.90144e-06
7.36578e-06
6.78943e-06
6.24479e-06
5.7799e-06
5.4115e-06
5.14255e-06
4.95574e-06
4.80707e-06
4.69203e-06
4.60821e-06
4.55526e-06
4.5351e-06
4.55258e-06
4.61678e-06
4.74156e-06
4.94342e-06
8.37678e-06
8.20581e-06
8.03461e-06
7.86146e-06
7.68904e-06
7.52387e-06
7.3737e-06
7.23929e-06
7.11632e-06
7.00551e-06
6.90755e-06
6.82328e-06
6.75393e-06
6.7014e-06
6.66864e-06
6.66003e-06
6.68091e-06
6.73465e-06
8.37882e-06
8.22059e-06
8.07651e-06
7.94441e-06
7.82285e-06
7.71112e-06
7.60846e-06
7.51394e-06
7.42712e-06
7.34775e-06
7.27582e-06
7.21159e-06
7.15566e-06
7.10915e-06
7.07382e-06
7.05211e-06
7.04678e-06
7.05827e-06
8.37884e-06
8.22102e-06
8.07816e-06
7.94838e-06
7.83017e-06
7.72231e-06
7.62379e-06
7.53374e-06
7.4515e-06
7.37662e-06
7.30883e-06
7.24811e-06
7.19473e-06
7.14934e-06
7.11297e-06
7.087e-06
7.0728e-06
7.06993e-06
8.37882e-06
8.22093e-06
8.07799e-06
7.94817e-06
7.82997e-06
7.72215e-06
7.62368e-06
7.53369e-06
7.45151e-06
7.37664e-06
7.30876e-06
7.24776e-06
7.19374e-06
7.14709e-06
7.10841e-06
7.07844e-06
7.05781e-06
7.04589e-06
8.37881e-06
8.22085e-06
8.0778e-06
7.94785e-06
7.8295e-06
7.72151e-06
7.62283e-06
7.53262e-06
7.45017e-06
7.37495e-06
7.30661e-06
7.24495e-06
7.18995e-06
7.14177e-06
7.10072e-06
7.06713e-06
7.04121e-06
7.02237e-06
8.3788e-06
8.22079e-06
8.07764e-06
7.94758e-06
7.82908e-06
7.72091e-06
7.62202e-06
7.53154e-06
7.44877e-06
7.37314e-06
7.30425e-06
7.24184e-06
7.18577e-06
7.13606e-06
7.09278e-06
7.05603e-06
7.02579e-06
7.00154e-06
8.3788e-06
8.22075e-06
8.07752e-06
7.94734e-06
7.8287e-06
7.72035e-06
7.62124e-06
7.53049e-06
7.44738e-06
7.37132e-06
7.30187e-06
7.23869e-06
7.18159e-06
7.13043e-06
7.08515e-06
7.04569e-06
7.01191e-06
6.98336e-06
8.3788e-06
8.22073e-06
8.07744e-06
7.94716e-06
7.82838e-06
7.71986e-06
7.62054e-06
7.52952e-06
7.44607e-06
7.36958e-06
7.29957e-06
7.23566e-06
7.17756e-06
7.12507e-06
7.07801e-06
7.03622e-06
6.9995e-06
6.96743e-06
8.3788e-06
8.22071e-06
8.07736e-06
7.94699e-06
7.82809e-06
7.71941e-06
7.61987e-06
7.52859e-06
7.4448e-06
7.36789e-06
7.29733e-06
7.23272e-06
7.17371e-06
7.12004e-06
7.07148e-06
7.02778e-06
6.98872e-06
6.95394e-06
8.37881e-06
8.22071e-06
8.0773e-06
7.94683e-06
7.82779e-06
7.71892e-06
7.61914e-06
7.52755e-06
7.44338e-06
7.36598e-06
7.29482e-06
7.22943e-06
7.16946e-06
7.11457e-06
7.06447e-06
7.0189e-06
6.97761e-06
6.94027e-06
8.37882e-06
8.2207e-06
8.07724e-06
7.94667e-06
7.82748e-06
7.7184e-06
7.61834e-06
7.5264e-06
7.4418e-06
7.36387e-06
7.29204e-06
7.22583e-06
7.16485e-06
7.10871e-06
7.05712e-06
7.00976e-06
6.96638e-06
6.92668e-06
8.37883e-06
8.2207e-06
8.07719e-06
7.94651e-06
7.82716e-06
7.71785e-06
7.6175e-06
7.52518e-06
7.44011e-06
7.3616e-06
7.28908e-06
7.22204e-06
7.16004e-06
7.1027e-06
7.04969e-06
7.00069e-06
6.95543e-06
6.91364e-06
8.37884e-06
8.22071e-06
8.07714e-06
7.94636e-06
7.82683e-06
7.71729e-06
7.61662e-06
7.52392e-06
7.43836e-06
7.35928e-06
7.28606e-06
7.2182e-06
7.15525e-06
7.09681e-06
7.04253e-06
6.99208e-06
6.9452e-06
6.90164e-06
8.37885e-06
8.2207e-06
8.07709e-06
7.9462e-06
7.82651e-06
7.71673e-06
7.61576e-06
7.52267e-06
7.43666e-06
7.35702e-06
7.28317e-06
7.21457e-06
7.15078e-06
7.09138e-06
7.03602e-06
6.98437e-06
6.93617e-06
6.89118e-06
8.37885e-06
8.22069e-06
8.07703e-06
7.94604e-06
7.82619e-06
7.71619e-06
7.61494e-06
7.52151e-06
7.43509e-06
7.35499e-06
7.2806e-06
7.21141e-06
7.14694e-06
7.0868e-06
7.03063e-06
6.9781e-06
6.92893e-06
6.88292e-06
8.37884e-06
8.22067e-06
8.07697e-06
7.94591e-06
7.82596e-06
7.71582e-06
7.6144e-06
7.52075e-06
7.43408e-06
7.35368e-06
7.27896e-06
7.2094e-06
7.14453e-06
7.08394e-06
7.02729e-06
6.97424e-06
6.92453e-06
6.87793e-06
8.37884e-06
8.22066e-06
8.07694e-06
7.94584e-06
7.82584e-06
7.71563e-06
7.61411e-06
7.52035e-06
7.43355e-06
7.353e-06
7.27812e-06
7.20837e-06
7.1433e-06
7.0825e-06
7.02561e-06
6.97231e-06
6.92232e-06
6.87545e-06
8.37884e-06
8.22065e-06
8.07692e-06
7.94581e-06
7.82578e-06
7.71553e-06
7.61397e-06
7.52015e-06
7.43327e-06
7.35265e-06
7.27767e-06
7.20782e-06
7.14264e-06
7.08171e-06
7.02469e-06
6.97125e-06
6.9211e-06
6.87406e-06
8.37883e-06
8.22064e-06
8.07691e-06
7.94581e-06
7.82577e-06
7.71552e-06
7.61394e-06
7.5201e-06
7.43319e-06
7.35253e-06
7.2775e-06
7.20758e-06
7.14231e-06
7.08127e-06
7.02411e-06
6.97049e-06
6.92014e-06
6.87285e-06
8.37883e-06
8.22065e-06
8.07693e-06
7.94584e-06
7.82583e-06
7.71557e-06
7.61396e-06
7.52004e-06
7.433e-06
7.3521e-06
7.27672e-06
7.2063e-06
7.14035e-06
7.07842e-06
7.02014e-06
6.96516e-06
6.9132e-06
6.86406e-06
8.37883e-06
8.22066e-06
8.07695e-06
7.94579e-06
7.82555e-06
7.71478e-06
7.61218e-06
7.5166e-06
7.42699e-06
7.34241e-06
7.26204e-06
7.18518e-06
7.11125e-06
7.03981e-06
6.97051e-06
6.90314e-06
6.8376e-06
6.77392e-06
8.37881e-06
8.22025e-06
8.0751e-06
7.94026e-06
7.81246e-06
7.68855e-06
7.56575e-06
7.44179e-06
7.31507e-06
7.18466e-06
7.05036e-06
6.91253e-06
6.77202e-06
6.62996e-06
6.48769e-06
6.34661e-06
6.2081e-06
6.07357e-06
8.37606e-06
8.1975e-06
8.00105e-06
7.76973e-06
7.49149e-06
7.16605e-06
6.8031e-06
6.41738e-06
6.02468e-06
5.63893e-06
5.27061e-06
4.92643e-06
4.60995e-06
4.32228e-06
4.06293e-06
3.83042e-06
3.62291e-06
3.43832e-06
8.21121e-06
7.3985e-06
6.31412e-06
5.2095e-06
4.26345e-06
3.53149e-06
2.98817e-06
2.58843e-06
2.29306e-06
2.07289e-06
1.90722e-06
1.78151e-06
1.68546e-06
1.61171e-06
1.55477e-06
1.51057e-06
1.47609e-06
1.44908e-06
4.73607e-06
3.09768e-06
2.70831e-06
2.64842e-06
2.70657e-06
2.80657e-06
2.91709e-06
3.02571e-06
3.12825e-06
3.2241e-06
3.31416e-06
3.39985e-06
3.48263e-06
3.56384e-06
3.64503e-06
3.72657e-06
3.80863e-06
3.89123e-06
8.12313e-06
1.07229e-05
1.2166e-05
1.30659e-05
1.35575e-05
1.37584e-05
1.37591e-05
1.36253e-05
1.34039e-05
1.31275e-05
1.28187e-05
1.24933e-05
1.21619e-05
1.18324e-05
1.15452e-05
1.1291e-05
1.10608e-05
1.08501e-05
4.29372e-06
1.02992e-05
1.08228e-05
1.1089e-05
1.11867e-05
1.11586e-05
1.10383e-05
1.09362e-05
1.08032e-05
1.06762e-05
1.06796e-05
1.0816e-05
1.10147e-05
1.12511e-05
1.15252e-05
1.18363e-05
1.21768e-05
1.25431e-05
1.29337e-05
1.33484e-05
1.37889e-05
1.42588e-05
1.47637e-05
1.53132e-05
1.59185e-05
1.66149e-05
1.75327e-05
1.84403e-05
1.93202e-05
2.01507e-05
2.09017e-05
2.15303e-05
2.19771e-05
2.21533e-05
2.18864e-05
2.0791e-05
1.82635e-05
1.43742e-05
1.11045e-05
9.82186e-06
9.8681e-06
1.07002e-05
1.14659e-05
1.20359e-05
1.24166e-05
1.26671e-05
1.29635e-05
1.3511e-05
1.42656e-05
1.46381e-05
1.46936e-05
1.46529e-05
1.4515e-05
1.41501e-05
1.37859e-05
1.40011e-05
1.43801e-05
1.45594e-05
1.46976e-05
1.53031e-05
1.8235e-05
2.25106e-05
2.49888e-05
2.66117e-05
2.75929e-05
2.80896e-05
2.82163e-05
2.80578e-05
2.76778e-05
2.71254e-05
2.64385e-05
2.56479e-05
2.47783e-05
2.38509e-05
2.2886e-05
2.18606e-05
2.08744e-05
1.99217e-05
1.90005e-05
1.81102e-05
1.72509e-05
1.64227e-05
1.56258e-05
1.48608e-05
1.41281e-05
1.34292e-05
1.27655e-05
1.2137e-05
1.15505e-05
1.09563e-05
1.03544e-05
9.74513e-06
9.13016e-06
8.51298e-06
7.90065e-06
7.30626e-06
6.75417e-06
6.32627e-06
6.62384e-06
7.1201e-06
7.66535e-06
8.23548e-06
8.81916e-06
9.40779e-06
9.99402e-06
1.05714e-05
1.11343e-05
1.16861e-05
1.22818e-05
1.29042e-05
1.3538e-05
1.41695e-05
1.47868e-05
1.53788e-05
1.5943e-05
1.64527e-05
1.68611e-05
1.71647e-05
1.73609e-05
1.74478e-05
1.7424e-05
1.72884e-05
1.70403e-05
1.66795e-05
1.6208e-05
1.56327e-05
1.49686e-05
1.42432e-05
1.34973e-05
1.27811e-05
1.21464e-05
1.16722e-05
1.13278e-05
1.10771e-05
1.08872e-05
1.07314e-05
1.05908e-05
1.04544e-05
1.03182e-05
1.01837e-05
1.00567e-05
9.9459e-06
9.86069e-06
9.80447e-06
9.77216e-06
9.77104e-06
9.8041e-06
9.87169e-06
9.97375e-06
1.01097e-05
1.02795e-05
1.04854e-05
1.07348e-05
1.10282e-05
1.13255e-05
1.15465e-05
1.16558e-05
1.16872e-05
1.15607e-05
1.11074e-05
1.15371e-05
1.4705e-05
1.65751e-05
1.73379e-05
1.73067e-05
1.67444e-05
1.58622e-05
1.47173e-05
1.36414e-05
1.26259e-05
1.17475e-05
1.08297e-05
9.85413e-06
8.80281e-06
7.9467e-06
8.72336e-06
9.61229e-06
1.057e-05
1.16908e-05
1.30406e-05
5.20872e-06
8.96199e-06
9.72197e-06
9.58194e-06
9.2069e-06
8.50219e-06
9.15735e-06
9.63982e-06
9.77912e-06
9.76021e-06
9.67479e-06
9.56705e-06
9.4657e-06
9.38642e-06
9.33335e-06
9.30254e-06
9.28528e-06
9.27053e-06
9.24661e-06
9.20277e-06
9.13042e-06
9.02416e-06
8.8827e-06
8.70921e-06
8.50999e-06
8.3036e-06
8.13499e-06
8.06439e-06
8.21319e-06
8.69924e-06
9.56157e-06
1.07871e-05
1.23511e-05
1.42219e-05
1.62964e-05
1.83382e-05
2.015e-05
2.15068e-05
2.15808e-05
1.96882e-05
1.67468e-05
1.47733e-05
1.45545e-05
1.54492e-05
1.64631e-05
1.70919e-05
1.83319e-05
1.98331e-05
2.09166e-05
2.10073e-05
2.01014e-05
1.8768e-05
1.77513e-05
1.77928e-05
1.90772e-05
2.16071e-05
2.38286e-05
2.27361e-05
2.07945e-05
1.94403e-05
1.83432e-05
1.70956e-05
1.55824e-05
1.40143e-05
1.24953e-05
1.10962e-05
9.86977e-06
8.86112e-06
8.11479e-06
7.68186e-06
7.62516e-06
8.00846e-06
8.82803e-06
9.85442e-06
1.06021e-05
1.09421e-05
1.12532e-05
1.15337e-05
1.17825e-05
1.19997e-05
1.21868e-05
1.2345e-05
1.24758e-05
1.25798e-05
1.26566e-05
1.27045e-05
1.27204e-05
1.26999e-05
1.26377e-05
1.25282e-05
1.23667e-05
1.21507e-05
1.18804e-05
1.15581e-05
1.11886e-05
1.07772e-05
1.03268e-05
9.83162e-06
9.39442e-06
8.97603e-06
8.55708e-06
8.13623e-06
7.71114e-06
7.27974e-06
6.84171e-06
6.39939e-06
5.9579e-06
5.52186e-06
5.0975e-06
4.69412e-06
4.32178e-06
3.9891e-06
3.70173e-06
3.46205e-06
3.27125e-06
3.1063e-06
3.04496e-06
3.12425e-06
3.31494e-06
3.58126e-06
3.89585e-06
4.23905e-06
4.59576e-06
4.95285e-06
5.2979e-06
5.61934e-06
5.90795e-06
6.15917e-06
6.37484e-06
6.56301e-06
6.73594e-06
6.90773e-06
7.0886e-06
7.28455e-06
7.49744e-06
7.72595e-06
7.96716e-06
8.21764e-06
8.4733e-06
8.72847e-06
8.97478e-06
9.2008e-06
9.39063e-06
9.5161e-06
9.53559e-06
9.41319e-06
9.10987e-06
8.62073e-06
8.01919e-06
7.38989e-06
6.82248e-06
6.41558e-06
6.26643e-06
6.43528e-06
6.91688e-06
7.6719e-06
8.7413e-06
1.03393e-05
1.23043e-05
1.28467e-05
1.21524e-05
1.16145e-05
1.1186e-05
1.1444e-05
1.30593e-05
1.64906e-05
2.03763e-05
2.20544e-05
2.34229e-05
2.44821e-05
2.51423e-05
2.52649e-05
2.46983e-05
2.32586e-05
2.09241e-05
1.86384e-05
1.62207e-05
1.37714e-05
1.13439e-05
9.10658e-06
5.5964e-06
6.1057e-06
7.64563e-06
8.38923e-06
8.5506e-06
9.43254e-06
9.76941e-06
9.68462e-06
9.46978e-06
9.26334e-06
9.11332e-06
9.03488e-06
9.0293e-06
9.08849e-06
9.19788e-06
9.33908e-06
9.49166e-06
9.63441e-06
9.74651e-06
9.80923e-06
9.8083e-06
9.73594e-06
9.5915e-06
9.38105e-06
9.11583e-06
8.80951e-06
8.47893e-06
8.14365e-06
7.81551e-06
7.51933e-06
7.33046e-06
7.40244e-06
7.87266e-06
8.78645e-06
1.01137e-05
1.17842e-05
1.37468e-05
1.59356e-05
1.80166e-05
1.92843e-05
1.90396e-05
1.74116e-05
1.54427e-05
1.40575e-05
1.36217e-05
1.43831e-05
1.60039e-05
1.7989e-05
1.98564e-05
2.09965e-05
2.10425e-05
2.06505e-05
2.08452e-05
2.20163e-05
2.38179e-05
2.28459e-05
2.02621e-05
1.74978e-05
1.51674e-05
1.32626e-05
1.15742e-05
1.00116e-05
8.62472e-06
7.51166e-06
6.74332e-06
6.37776e-06
6.46493e-06
7.03367e-06
8.03366e-06
9.25385e-06
1.03608e-05
1.11226e-05
1.15474e-05
1.17723e-05
1.19155e-05
1.20312e-05
1.21259e-05
1.22e-05
1.2255e-05
1.22937e-05
1.23195e-05
1.23358e-05
1.23452e-05
1.23491e-05
1.23471e-05
1.23364e-05
1.23119e-05
1.22662e-05
1.21904e-05
1.20755e-05
1.19134e-05
1.16987e-05
1.143e-05
1.11094e-05
1.07425e-05
1.03362e-05
9.8941e-06
9.42963e-06
9.02798e-06
8.64434e-06
8.27696e-06
7.92859e-06
7.60034e-06
7.29226e-06
7.00374e-06
6.73372e-06
6.48083e-06
6.24346e-06
6.01982e-06
5.80792e-06
5.60569e-06
5.41099e-06
5.22166e-06
5.0354e-06
4.84907e-06
4.6506e-06
4.37968e-06
3.929e-06
3.36797e-06
2.8348e-06
2.42477e-06
2.16015e-06
2.0233e-06
1.98644e-06
2.02267e-06
2.10722e-06
2.21698e-06
2.33133e-06
2.43431e-06
2.51656e-06
2.57592e-06
2.61644e-06
2.64631e-06
2.67531e-06
2.71246e-06
2.76428e-06
2.83398e-06
2.9216e-06
3.0244e-06
3.13723e-06
3.25265e-06
3.36143e-06
3.4534e-06
3.51744e-06
3.54405e-06
3.53413e-06
3.51137e-06
3.5069e-06
3.5298e-06
3.59664e-06
3.73144e-06
3.96594e-06
4.33175e-06
4.87205e-06
5.65603e-06
6.84994e-06
8.79145e-06
1.14082e-05
1.27893e-05
1.1652e-05
1.06675e-05
1.07102e-05
1.2235e-05
1.56569e-05
1.98147e-05
2.25838e-05
2.39348e-05
2.48556e-05
2.56594e-05
2.62777e-05
2.6619e-05
2.65535e-05
2.59284e-05
2.45385e-05
2.26816e-05
2.07547e-05
1.87597e-05
1.6847e-05
1.51136e-05
1.36398e-05
4.87446e-06
5.22223e-06
7.1443e-06
8.91362e-06
1.02249e-05
1.02628e-05
9.99893e-06
9.76515e-06
9.59163e-06
9.46541e-06
9.39397e-06
9.38989e-06
9.45684e-06
9.58995e-06
9.77889e-06
1.0008e-05
1.0255e-05
1.04921e-05
1.06887e-05
1.08143e-05
1.08455e-05
1.07707e-05
1.05916e-05
1.03217e-05
9.98208e-06
9.59677e-06
9.18788e-06
8.77452e-06
8.36985e-06
7.97168e-06
7.59041e-06
7.24229e-06
7.00648e-06
7.03866e-06
7.46399e-06
8.30661e-06
9.54545e-06
1.11644e-05
1.3072e-05
1.49579e-05
1.62732e-05
1.65543e-05
1.58944e-05
1.49157e-05
1.43422e-05
1.47493e-05
1.63513e-05
1.85657e-05
2.0899e-05
2.28206e-05
2.39323e-05
2.45671e-05
2.41999e-05
2.27451e-05
2.03251e-05
1.72643e-05
1.44594e-05
1.21359e-05
1.02937e-05
8.79853e-06
7.58557e-06
6.68909e-06
6.19395e-06
6.188e-06
6.73228e-06
7.80331e-06
9.19284e-06
1.05294e-05
1.15245e-05
1.21467e-05
1.25195e-05
1.27661e-05
1.29559e-05
1.31153e-05
1.32397e-05
1.33089e-05
1.33236e-05
1.32873e-05
1.32064e-05
1.30905e-05
1.29507e-05
1.27989e-05
1.26464e-05
1.2502e-05
1.23714e-05
1.22555e-05
1.21507e-05
1.20485e-05
1.19367e-05
1.18015e-05
1.16292e-05
1.14092e-05
1.11363e-05
1.08105e-05
1.04377e-05
1.00254e-05
9.57633e-06
9.1415e-06
8.75151e-06
8.37632e-06
8.01961e-06
7.68363e-06
7.36903e-06
7.07557e-06
6.80243e-06
6.54851e-06
6.31257e-06
6.09333e-06
5.88955e-06
5.70002e-06
5.52364e-06
5.35935e-06
5.20619e-06
5.06321e-06
4.92954e-06
4.80421e-06
4.68539e-06
4.56338e-06
4.41987e-06
4.23073e-06
3.97401e-06
3.64509e-06
3.26732e-06
2.88551e-06
2.54467e-06
2.27162e-06
2.07122e-06
1.93331e-06
1.84171e-06
1.78067e-06
1.73806e-06
1.70622e-06
1.6813e-06
1.66213e-06
1.64905e-06
1.64297e-06
1.64484e-06
1.65533e-06
1.67465e-06
1.70242e-06
1.73752e-06
1.77809e-06
1.82178e-06
1.86631e-06
1.91062e-06
1.95666e-06
2.01142e-06
2.08887e-06
2.20974e-06
2.3937e-06
2.65515e-06
3.02571e-06
3.57556e-06
4.3842e-06
5.55167e-06
7.31919e-06
9.84957e-06
1.21778e-05
1.19013e-05
1.05852e-05
1.0561e-05
1.23484e-05
1.6038e-05
1.99923e-05
2.23511e-05
2.35451e-05
2.43977e-05
2.50858e-05
2.55985e-05
2.59276e-05
2.60421e-05
2.58484e-05
2.52008e-05
2.39288e-05
2.24015e-05
2.06693e-05
1.88314e-05
1.70268e-05
1.53559e-05
1.39116e-05
4.79798e-06
5.95593e-06
9.62392e-06
1.06666e-05
1.03346e-05
1.0226e-05
1.0228e-05
1.01645e-05
1.00117e-05
9.83422e-06
9.70075e-06
9.65258e-06
9.70531e-06
9.85909e-06
1.01045e-05
1.04225e-05
1.07807e-05
1.11354e-05
1.14411e-05
1.16477e-05
1.17161e-05
1.16294e-05
1.13927e-05
1.10307e-05
1.05807e-05
1.00848e-05
9.58076e-06
9.09653e-06
8.64762e-06
8.23485e-06
7.84131e-06
7.46164e-06
7.09974e-06
6.79621e-06
6.66895e-06
6.85624e-06
7.42718e-06
8.39088e-06
9.7179e-06
1.12905e-05
1.28351e-05
1.39835e-05
1.45304e-05
1.46592e-05
1.49184e-05
1.5937e-05
1.7913e-05
2.05152e-05
2.34352e-05
2.61643e-05
2.71933e-05
2.45886e-05
2.11063e-05
1.79964e-05
1.49953e-05
1.23654e-05
1.02696e-05
8.64066e-06
7.42129e-06
6.57361e-06
6.14054e-06
6.21792e-06
6.90258e-06
8.19792e-06
9.87773e-06
1.15134e-05
1.27796e-05
1.36453e-05
1.4242e-05
1.46941e-05
1.50691e-05
1.53917e-05
1.56652e-05
1.5885e-05
1.60143e-05
1.60353e-05
1.59459e-05
1.57504e-05
1.54606e-05
1.50949e-05
1.46767e-05
1.42318e-05
1.37862e-05
1.33629e-05
1.29793e-05
1.26452e-05
1.23616e-05
1.21208e-05
1.19076e-05
1.17027e-05
1.14855e-05
1.12365e-05
1.09449e-05
1.06049e-05
1.02211e-05
9.79945e-06
9.35106e-06
8.94595e-06
8.5605e-06
8.19244e-06
7.84535e-06
7.52078e-06
7.21876e-06
6.93836e-06
6.6782e-06
6.43667e-06
6.21216e-06
6.00315e-06
5.80829e-06
5.62639e-06
5.45642e-06
5.2975e-06
5.14887e-06
5.00982e-06
4.87971e-06
4.75793e-06
4.64388e-06
4.53696e-06
4.43566e-06
4.33679e-06
4.23486e-06
4.12171e-06
3.98749e-06
3.82349e-06
3.62665e-06
3.40318e-06
3.16813e-06
2.93985e-06
2.73316e-06
2.5556e-06
2.40797e-06
2.28696e-06
2.18768e-06
2.10539e-06
2.03615e-06
1.97712e-06
1.92647e-06
1.88334e-06
1.84768e-06
1.82014e-06
1.80189e-06
1.79434e-06
1.79896e-06
1.81728e-06
1.85113e-06
1.90302e-06
1.976e-06
2.07181e-06
2.18933e-06
2.3363e-06
2.56096e-06
2.95819e-06
3.62659e-06
4.63659e-06
6.10746e-06
8.2292e-06
1.07987e-05
1.20662e-05
1.08999e-05
1.03091e-05
1.16477e-05
1.50741e-05
1.91983e-05
2.18816e-05
2.32354e-05
2.41376e-05
2.48149e-05
2.52005e-05
2.53218e-05
2.52547e-05
2.50423e-05
2.46353e-05
2.38938e-05
2.28174e-05
2.15319e-05
2.00362e-05
1.84289e-05
1.68124e-05
1.5262e-05
1.3846e-05
5.64994e-06
8.11475e-06
9.97306e-06
1.01923e-05
1.06842e-05
1.09149e-05
1.07736e-05
1.04256e-05
1.00505e-05
9.74978e-06
9.56499e-06
9.51063e-06
9.58858e-06
9.79388e-06
1.01159e-05
1.05387e-05
1.10254e-05
1.15121e-05
1.19495e-05
1.22652e-05
1.23925e-05
1.23086e-05
1.20169e-05
1.1552e-05
1.09697e-05
1.03353e-05
9.70845e-06
9.13144e-06
8.6252e-06
8.19203e-06
7.81696e-06
7.46998e-06
7.13199e-06
6.80144e-06
6.50941e-06
6.35411e-06
6.46758e-06
6.93391e-06
7.7647e-06
8.91162e-06
1.02543e-05
1.1596e-05
1.27579e-05
1.37719e-05
1.50226e-05
1.70397e-05
1.97954e-05
2.301e-05
2.64857e-05
2.80353e-05
2.43047e-05
1.98342e-05
1.6316e-05
1.34079e-05
1.10181e-05
9.13104e-06
7.72161e-06
6.7409e-06
6.19758e-06
6.14688e-06
6.69641e-06
7.93001e-06
9.74767e-06
1.17633e-05
1.35293e-05
1.48714e-05
1.58752e-05
1.66831e-05
1.73885e-05
1.80318e-05
1.86218e-05
1.91525e-05
1.96107e-05
1.99816e-05
2.01828e-05
2.0195e-05
2.00113e-05
1.96357e-05
1.90849e-05
1.83883e-05
1.75856e-05
1.67235e-05
1.58504e-05
1.50106e-05
1.42402e-05
1.35628e-05
1.29881e-05
1.25108e-05
1.21124e-05
1.17691e-05
1.14546e-05
1.11375e-05
1.08005e-05
1.04294e-05
1.00251e-05
9.58781e-06
9.16427e-06
8.76704e-06
8.38522e-06
8.02422e-06
7.68721e-06
7.37513e-06
7.08734e-06
6.82222e-06
6.57769e-06
6.35152e-06
6.14157e-06
5.94591e-06
5.76288e-06
5.59113e-06
5.42955e-06
5.27729e-06
5.1337e-06
4.99826e-06
4.87055e-06
4.75022e-06
4.63694e-06
4.53046e-06
4.43049e-06
4.33642e-06
4.24732e-06
4.1617e-06
4.07733e-06
3.99121e-06
3.89989e-06
3.80037e-06
3.69131e-06
3.57383e-06
3.45149e-06
3.32908e-06
3.2111e-06
3.10066e-06
2.99919e-06
2.90672e-06
2.82245e-06
2.74525e-06
2.67408e-06
2.60827e-06
2.54764e-06
2.49273e-06
2.44481e-06
2.40588e-06
2.37843e-06
2.36491e-06
2.36661e-06
2.3818e-06
2.40249e-06
2.41388e-06
2.41233e-06
2.44697e-06
2.62737e-06
3.0697e-06
3.85744e-06
5.05727e-06
6.78621e-06
9.08897e-06
1.12925e-05
1.14876e-05
1.03157e-05
1.072e-05
1.33921e-05
1.75875e-05
2.10238e-05
2.28897e-05
2.40584e-05
2.49255e-05
2.54148e-05
2.54269e-05
2.50732e-05
2.45295e-05
2.3911e-05
2.32198e-05
2.23671e-05
2.1417e-05
2.02863e-05
1.90081e-05
1.76484e-05
1.6271e-05
1.49187e-05
1.36324e-05
6.56351e-06
8.73814e-06
1.05196e-05
1.15451e-05
1.16446e-05
1.12354e-05
1.06716e-05
1.01298e-05
9.67372e-06
9.33766e-06
9.14196e-06
9.09519e-06
9.19729e-06
9.44184e-06
9.81681e-06
1.03035e-05
1.08735e-05
1.14846e-05
1.20757e-05
1.25601e-05
1.28118e-05
1.28035e-05
1.25196e-05
1.19961e-05
1.13009e-05
1.05273e-05
9.76617e-06
9.0881e-06
8.52438e-06
8.07065e-06
7.70168e-06
7.3824e-06
7.07717e-06
6.76868e-06
6.45922e-06
6.18827e-06
6.05689e-06
6.19112e-06
6.66302e-06
7.47022e-06
8.56516e-06
9.87275e-06
1.13223e-05
1.29676e-05
1.51197e-05
1.81237e-05
2.17655e-05
2.54092e-05
2.76463e-05
2.43476e-05
1.91593e-05
1.53115e-05
1.24171e-05
1.01743e-05
8.4563e-06
7.20642e-06
6.41162e-06
6.0944e-06
6.33704e-06
7.25534e-06
8.91302e-06
1.11313e-05
1.34516e-05
1.5465e-05
1.70827e-05
1.84215e-05
1.9608e-05
2.07119e-05
2.17564e-05
2.27403e-05
2.365e-05
2.44641e-05
2.51558e-05
2.56968e-05
2.59649e-05
2.59547e-05
2.56528e-05
2.50573e-05
2.41837e-05
2.3067e-05
2.17628e-05
2.03432e-05
1.88888e-05
1.74779e-05
1.61754e-05
1.50247e-05
1.40462e-05
1.32377e-05
1.25709e-05
1.20152e-05
1.15445e-05
1.11122e-05
1.06942e-05
1.0269e-05
9.83036e-06
9.39101e-06
8.97866e-06
8.57931e-06
8.1998e-06
7.84531e-06
7.51834e-06
7.21916e-06
6.94646e-06
6.69793e-06
6.47083e-06
6.26231e-06
6.06966e-06
5.89048e-06
5.7227e-06
5.56464e-06
5.41496e-06
5.27269e-06
5.13714e-06
5.00786e-06
4.88456e-06
4.7671e-06
4.6554e-06
4.54947e-06
4.44927e-06
4.35467e-06
4.26539e-06
4.18105e-06
4.10108e-06
4.02478e-06
3.95119e-06
3.87929e-06
3.8081e-06
3.73696e-06
3.66572e-06
3.5948e-06
3.52494e-06
3.45702e-06
3.39175e-06
3.32956e-06
3.27063e-06
3.21496e-06
3.16252e-06
3.11329e-06
3.06745e-06
3.02539e-06
2.98786e-06
2.95589e-06
2.93057e-06
2.91196e-06
2.89663e-06
2.87339e-06
2.81981e-06
2.71388e-06
2.57995e-06
2.52673e-06
2.69814e-06
3.20458e-06
4.11694e-06
5.50602e-06
7.4345e-06
9.74537e-06
1.13726e-05
1.08793e-05
1.01495e-05
1.1582e-05
1.52323e-05
1.93861e-05
2.21254e-05
2.37765e-05
2.50525e-05
2.5942e-05
2.62183e-05
2.58049e-05
2.49158e-05
2.38575e-05
2.27885e-05
2.17809e-05
2.08615e-05
1.99072e-05
1.88667e-05
1.77554e-05
1.66109e-05
1.54646e-05
1.433e-05
1.32218e-05
7.28259e-06
1.02445e-05
1.24188e-05
1.23969e-05
1.17783e-05
1.10385e-05
1.0281e-05
9.58422e-06
9.02082e-06
8.62074e-06
8.39236e-06
8.33447e-06
8.44192e-06
8.70766e-06
9.12239e-06
9.67233e-06
1.03344e-05
1.10692e-05
1.18125e-05
1.24723e-05
1.29425e-05
1.31297e-05
1.2971e-05
1.24877e-05
1.17389e-05
1.08466e-05
9.93446e-06
9.12842e-06
8.49568e-06
8.03411e-06
7.68755e-06
7.39023e-06
7.0909e-06
6.77609e-06
6.44776e-06
6.12777e-06
5.87901e-06
5.81476e-06
6.04332e-06
6.60846e-06
7.50886e-06
8.74866e-06
1.03672e-05
1.25067e-05
1.54455e-05
1.91938e-05
2.30589e-05
2.60669e-05
2.47488e-05
1.92349e-05
1.49461e-05
1.19197e-05
9.7134e-06
8.08055e-06
6.93146e-06
6.25239e-06
6.08687e-06
6.53217e-06
7.72352e-06
9.71775e-06
1.22994e-05
1.49819e-05
1.73772e-05
1.9424e-05
2.12354e-05
2.29145e-05
2.4508e-05
2.60241e-05
2.74543e-05
2.8782e-05
2.99835e-05
3.10261e-05
3.18675e-05
3.24559e-05
3.27274e-05
3.26783e-05
3.22787e-05
3.15069e-05
3.03582e-05
2.88521e-05
2.70395e-05
2.5005e-05
2.28625e-05
2.07394e-05
1.87565e-05
1.6996e-05
1.54981e-05
1.42726e-05
1.32669e-05
1.24321e-05
1.17504e-05
1.116e-05
1.06223e-05
1.01208e-05
9.6472e-06
9.2047e-06
8.77881e-06
8.37393e-06
7.99534e-06
7.64677e-06
7.32966e-06
7.04346e-06
6.78611e-06
6.55467e-06
6.34578e-06
6.15606e-06
5.9823e-06
5.82163e-06
5.67156e-06
5.53004e-06
5.39543e-06
5.2665e-06
5.14238e-06
5.02253e-06
4.90667e-06
4.79474e-06
4.68681e-06
4.58315e-06
4.48392e-06
4.38932e-06
4.29942e-06
4.2142e-06
4.13354e-06
4.05723e-06
3.985e-06
3.91652e-06
3.85148e-06
3.78956e-06
3.73052e-06
3.67422e-06
3.6206e-06
3.56965e-06
3.5214e-06
3.47588e-06
3.43313e-06
3.39323e-06
3.3563e-06
3.32258e-06
3.29244e-06
3.2664e-06
3.24511e-06
3.22913e-06
3.21838e-06
3.21043e-06
3.19666e-06
3.15611e-06
3.0538e-06
2.86724e-06
2.65261e-06
2.5624e-06
2.75527e-06
3.33707e-06
4.37743e-06
5.9314e-06
7.99229e-06
1.01644e-05
1.12018e-05
1.04178e-05
1.02894e-05
1.26413e-05
1.67969e-05
2.05634e-05
2.29355e-05
2.46974e-05
2.61927e-05
2.71371e-05
2.71464e-05
2.62621e-05
2.48014e-05
2.32319e-05
2.1715e-05
2.04935e-05
1.94325e-05
1.84337e-05
1.74417e-05
1.64499e-05
1.54733e-05
1.45205e-05
1.35835e-05
1.26553e-05
8.04588e-06
1.22488e-05
1.31689e-05
1.24884e-05
1.14833e-05
1.04567e-05
9.52263e-06
8.69927e-06
8.05239e-06
7.60502e-06
7.34751e-06
7.26916e-06
7.36251e-06
7.62333e-06
8.04915e-06
8.63703e-06
9.3783e-06
1.02473e-05
1.11849e-05
1.2086e-05
1.2817e-05
1.32649e-05
1.33598e-05
1.30637e-05
1.23684e-05
1.14226e-05
1.0349e-05
9.35459e-06
8.57725e-06
8.07391e-06
7.76526e-06
7.52118e-06
7.23794e-06
6.8853e-06
6.5001e-06
6.11972e-06
5.79608e-06
5.61897e-06
5.6985e-06
6.1085e-06
6.88648e-06
8.09766e-06
9.88335e-06
1.24847e-05
1.60766e-05
2.01339e-05
2.35832e-05
2.4564e-05
2.01043e-05
1.51857e-05
1.18582e-05
9.55949e-06
7.9268e-06
6.80618e-06
6.17319e-06
6.07581e-06
6.62657e-06
7.97869e-06
1.0208e-05
1.31008e-05
1.61604e-05
1.89836e-05
2.14899e-05
2.37649e-05
2.58838e-05
2.78734e-05
2.97353e-05
3.14658e-05
3.30606e-05
3.45111e-05
3.57994e-05
3.68958e-05
3.77598e-05
3.83203e-05
3.85996e-05
3.85712e-05
3.81872e-05
3.74036e-05
3.61877e-05
3.4527e-05
3.24393e-05
2.99859e-05
2.72806e-05
2.4481e-05
2.17817e-05
1.93418e-05
1.72361e-05
1.55293e-05
1.41385e-05
1.29777e-05
1.20409e-05
1.12633e-05
1.05725e-05
1.00007e-05
9.48342e-06
9.00518e-06
8.55979e-06
8.1469e-06
7.76832e-06
7.42547e-06
7.1183e-06
6.8452e-06
6.60329e-06
6.38902e-06
6.19851e-06
6.02794e-06
5.87369e-06
5.73251e-06
5.60156e-06
5.47842e-06
5.36112e-06
5.24814e-06
5.13835e-06
5.03101e-06
4.92571e-06
4.82234e-06
4.72104e-06
4.62215e-06
4.52597e-06
4.43299e-06
4.34362e-06
4.25814e-06
4.17676e-06
4.09953e-06
4.02646e-06
3.95747e-06
3.89246e-06
3.83131e-06
3.7739e-06
3.72008e-06
3.66972e-06
3.62267e-06
3.57882e-06
3.53804e-06
3.50027e-06
3.46551e-06
3.43387e-06
3.40562e-06
3.38116e-06
3.36112e-06
3.34618e-06
3.33693e-06
3.33301e-06
3.33103e-06
3.31973e-06
3.27255e-06
3.14693e-06
2.92072e-06
2.67052e-06
2.57426e-06
2.79914e-06
3.45174e-06
4.60342e-06
6.29601e-06
8.42689e-06
1.03754e-05
1.09342e-05
1.01402e-05
1.05863e-05
1.36607e-05
1.79603e-05
2.13175e-05
2.3598e-05
2.56279e-05
2.74004e-05
2.83645e-05
2.79968e-05
2.66187e-05
2.462e-05
2.25697e-05
2.07954e-05
1.93249e-05
1.81187e-05
1.70781e-05
1.61213e-05
1.5218e-05
1.43666e-05
1.3562e-05
1.27841e-05
1.20114e-05
8.93684e-06
1.33071e-05
1.3357e-05
1.21334e-05
1.07586e-05
9.49056e-06
8.41576e-06
7.57359e-06
6.89866e-06
6.43862e-06
6.16633e-06
6.06179e-06
6.11884e-06
6.3409e-06
6.73574e-06
7.31288e-06
8.08198e-06
9.04441e-06
1.01685e-05
1.1353e-05
1.24277e-05
1.32258e-05
1.36367e-05
1.36081e-05
1.31464e-05
1.22954e-05
1.1123e-05
9.91341e-06
8.86268e-06
8.17539e-06
7.82106e-06
7.62535e-06
7.38614e-06
7.01526e-06
6.56643e-06
6.11984e-06
5.74049e-06
5.50662e-06
5.51681e-06
5.85581e-06
6.5929e-06
7.85152e-06
9.86714e-06
1.29215e-05
1.68867e-05
2.06945e-05
2.30603e-05
2.12261e-05
1.60538e-05
1.22006e-05
9.68005e-06
7.95617e-06
6.79423e-06
6.13379e-06
6.0184e-06
6.5649e-06
7.94417e-06
1.02697e-05
1.3374e-05
1.6766e-05
1.99942e-05
2.29162e-05
2.55728e-05
2.80109e-05
3.02443e-05
3.22771e-05
3.41208e-05
3.57931e-05
3.73097e-05
3.86756e-05
3.98817e-05
4.09046e-05
4.17096e-05
4.22311e-05
4.25275e-05
4.25497e-05
4.22419e-05
4.15483e-05
4.04192e-05
3.88182e-05
3.67274e-05
3.41651e-05
3.12112e-05
2.79956e-05
2.47443e-05
2.17282e-05
1.90366e-05
1.68463e-05
1.50681e-05
1.35746e-05
1.23604e-05
1.1384e-05
1.05747e-05
9.89351e-06
9.30535e-06
8.78481e-06
8.31709e-06
7.89534e-06
7.51692e-06
7.18034e-06
6.88367e-06
6.62402e-06
6.39769e-06
6.20051e-06
6.02822e-06
5.87664e-06
5.74189e-06
5.62046e-06
5.5092e-06
5.40541e-06
5.30683e-06
5.2116e-06
5.11832e-06
5.02597e-06
4.93395e-06
4.84199e-06
4.7502e-06
4.65877e-06
4.56813e-06
4.47898e-06
4.39198e-06
4.30771e-06
4.22665e-06
4.14916e-06
4.07545e-06
4.00567e-06
3.93986e-06
3.87801e-06
3.82008e-06
3.76595e-06
3.71552e-06
3.66863e-06
3.62513e-06
3.58486e-06
3.54771e-06
3.51362e-06
3.48265e-06
3.45496e-06
3.43094e-06
3.41112e-06
3.3962e-06
3.38677e-06
3.38248e-06
3.37982e-06
3.36686e-06
3.31508e-06
3.17862e-06
2.93514e-06
2.67126e-06
2.57912e-06
2.83306e-06
3.54411e-06
4.78835e-06
6.58892e-06
8.73439e-06
1.04372e-05
1.06749e-05
1.00419e-05
1.09835e-05
1.44053e-05
1.86028e-05
2.17207e-05
2.41036e-05
2.64863e-05
2.85851e-05
2.93767e-05
2.84512e-05
2.66241e-05
2.43164e-05
2.19734e-05
1.99068e-05
1.8236e-05
1.69348e-05
1.58839e-05
1.4969e-05
1.41369e-05
1.33762e-05
1.26774e-05
1.20163e-05
1.13636e-05
9.92393e-06
1.36452e-05
1.31634e-05
1.14944e-05
9.83195e-06
8.39917e-06
7.2525e-06
6.39968e-06
5.81289e-06
5.3932e-06
5.12686e-06
4.98623e-06
4.97182e-06
5.10245e-06
5.40393e-06
5.90141e-06
6.61801e-06
7.57848e-06
8.79966e-06
1.02296e-05
1.16846e-05
1.29241e-05
1.37644e-05
1.41039e-05
1.39252e-05
1.32737e-05
1.2236e-05
1.09412e-05
9.57083e-06
8.52544e-06
7.90954e-06
7.63899e-06
7.4155e-06
7.05318e-06
6.57073e-06
6.08449e-06
5.68299e-06
5.44448e-06
5.45785e-06
5.80945e-06
6.59571e-06
7.99885e-06
1.03173e-05
1.37312e-05
1.76387e-05
2.07247e-05
2.13627e-05
1.74695e-05
1.29886e-05
1.00613e-05
8.15911e-06
6.88872e-06
6.13554e-06
5.92014e-06
6.35377e-06
7.61576e-06
9.86825e-06
1.30338e-05
1.66663e-05
2.02483e-05
2.35378e-05
2.6513e-05
2.91923e-05
3.15808e-05
3.36888e-05
3.55455e-05
3.71924e-05
3.867e-05
4.00063e-05
4.12116e-05
4.22789e-05
4.3184e-05
4.38888e-05
4.43631e-05
4.4642e-05
4.46811e-05
4.44267e-05
4.3819e-05
4.27997e-05
4.13243e-05
3.93541e-05
3.68693e-05
3.3924e-05
3.05989e-05
2.70482e-05
2.36944e-05
2.05854e-05
1.79999e-05
1.5891e-05
1.41427e-05
1.26971e-05
1.15115e-05
1.05454e-05
9.75468e-06
9.09596e-06
8.53408e-06
8.04547e-06
7.61657e-06
7.24004e-06
6.91123e-06
6.62615e-06
6.38059e-06
6.17001e-06
5.98977e-06
5.83527e-06
5.70218e-06
5.58648e-06
5.4845e-06