/*--------------------------------*- C++ -*----------------------------------*\
| =========                 |                                                 |
| \\      /  F ield         | OpenFOAM: The Open Source CFD Toolbox           |
|  \\    /   O peration     | Version:  2112                                  |
|   \\  /    A nd           | Website:  www.openfoam.com                      |
|    \\/     M anipulation  |                                                 |
\*---------------------------------------------------------------------------*/
FoamFile
{
    version     2.0;
    format      ascii;
    arch        "LSB;label=32;scalar=64";
    class       volScalarField;
    location    "0.18";
    object      nut;
}
// * * * * * * * * * * * * * * * * * * * * * * * * * * * * * * * * * * * * * //

dimensions      [0 2 -1 0 0 0 0];

internalField   nonuniform List<scalar> 
1580
(
5.91621e-05
5.94231e-05
6.00259e-05
6.04971e-05
6.16401e-05
6.25035e-05
6.46557e-05
6.63078e-05
0.00760757
0.00554547
0.00428905
0.00347363
0.00286528
0.00246642
0.00205432
0.00190927
0.00938292
0.00903447
0.00845397
0.0076883
0.00676262
0.00591757
0.00497017
0.00432658
0.00946047
0.00942805
0.00933854
0.00914445
0.00876987
0.00823733
0.00747367
0.00660261
0.00946558
0.00946136
0.00944898
0.00941354
0.00931706
0.00909353
0.0086803
0.00793028
0.00946589
0.0094627
0.00945408
0.00942886
0.0093595
0.00917182
0.00881515
0.0081016
0.00946254
0.00944164
0.00938381
0.00924417
0.00897999
0.00850143
0.00785859
0.00696005
0.00938859
0.00906236
0.00850932
0.00772874
0.00682195
0.00582151
0.00494066
0.00406291
0.00696954
0.00465498
0.00343107
0.00266918
0.00216294
0.0017694
0.0014974
0.00123647
2.96666e-05
3.00981e-05
3.0665e-05
3.14817e-05
3.2559e-05
3.41167e-05
3.6167e-05
3.91e-05
0.000130403
0.000203469
0.000270963
0.000327278
0.000374064
0.000414155
0.00044936
0.000480668
0.000508646
0.000533644
0.000555923
0.000575711
0.000593235
0.000611034
0.000629218
0.000645883
0.000661133
0.0006751
0.000688204
0.000700051
0.000710387
0.000719271
0.000726688
0.000732432
0.000736518
0.000739446
0.000741632
0.000742467
0.000741907
0.000740307
0.00073762
0.000734059
0.000729685
0.000724617
0.00071894
0.000712749
0.000706128
0.000699165
0.000691942
0.000684538
0.000677019
0.000669443
0.000661918
0.000654646
0.000648252
0.00064378
0.000640408
0.000637223
0.000635524
0.000624702
0.000141018
0.000254863
0.00032347
0.000402125
0.000502656
0.000633103
0.000788421
0.000960694
0.0011421
0.00132582
0.00150608
0.00167824
0.00183918
0.00200972
0.00219126
0.00236182
0.00251707
0.00265054
0.00275153
0.00283038
0.00290239
0.0029652
0.00301948
0.0030669
0.00310766
0.00314021
0.00316412
0.00318183
0.00319621
0.00320467
0.00320734
0.00320534
0.00319928
0.00318971
0.00317713
0.00316241
0.00314565
0.003127
0.0031068
0.00308538
0.003063
0.00303984
0.00301614
0.00299214
0.00296795
0.00294321
0.00291823
0.00289407
0.0028732
0.00282931
0.000145175
0.000297553
0.000384686
0.000506884
0.000675214
0.000887973
0.00113115
0.0013886
0.00164562
0.00189277
0.00212452
0.00233704
0.00252815
0.00272346
0.00292263
0.00310274
0.00326172
0.00339719
0.00350937
0.00360485
0.00368848
0.00376047
0.00382139
0.00387239
0.0039137
0.00394659
0.00397045
0.00398685
0.00399946
0.00400619
0.00400677
0.00400283
0.00399503
0.00398395
0.00396999
0.00395314
0.00393388
0.00391263
0.00388974
0.00386549
0.00384007
0.00381356
0.00378617
0.00375811
0.00372955
0.00370062
0.00367113
0.00364268
0.00361463
0.0035793
0.000144438
0.000316478
0.000415717
0.000554784
0.000746051
0.000988055
0.00126357
0.00154848
0.00182123
0.00207388
0.00230759
0.00252124
0.00271545
0.00291185
0.00310649
0.00327777
0.00342606
0.00355378
0.00366335
0.00375724
0.00383798
0.0039066
0.00396352
0.0040102
0.00404741
0.00407627
0.00409722
0.00411089
0.00412215
0.00412788
0.00412773
0.00412398
0.00411712
0.00410768
0.00409592
0.00408176
0.00406558
0.00404771
0.0040284
0.00400782
0.00398609
0.00396303
0.00393887
0.00391368
0.00388756
0.00386074
0.00383274
0.00380588
0.00377611
0.0037495
0.000142818
0.000326159
0.000431834
0.000579727
0.000780874
0.00103204
0.00131077
0.00158775
0.00184496
0.00209193
0.00231935
0.00252646
0.00271245
0.00289966
0.00308464
0.00324819
0.00339153
0.00351657
0.00362482
0.00371792
0.0037976
0.00385946
0.00389511
0.00392341
0.00394596
0.00396414
0.00397817
0.00399062
0.0040051
0.00401553
0.00402503
0.00403456
0.0040445
0.00405478
0.00405904
0.00404762
0.00403442
0.00401974
0.00400374
0.00398657
0.00396823
0.00394838
0.0039273
0.00390499
0.00388143
0.00385683
0.0038306
0.00380527
0.00377508
0.00375229
0.00014052
0.000328584
0.000437425
0.000587448
0.000788721
0.00103802
0.00130775
0.00157112
0.00181349
0.00204068
0.00225269
0.00245074
0.00263278
0.00281952
0.00300359
0.00316639
0.00326995
0.00335
0.00341761
0.00347457
0.00352354
0.00356506
0.00359982
0.00362907
0.00365365
0.00367429
0.00369099
0.00370876
0.00372582
0.00373949
0.00375299
0.00376664
0.00378109
0.00379634
0.00381221
0.00382926
0.00384768
0.00386718
0.00388742
0.00390785
0.00391625
0.00389873
0.00387993
0.00385979
0.0038382
0.00381529
0.00379038
0.00376604
0.00373575
0.00371423
0.000138681
0.000327863
0.000439774
0.000588715
0.000786167
0.00102947
0.00128671
0.0015336
0.00175256
0.00196414
0.00217088
0.0023681
0.00255182
0.00272007
0.00283538
0.00293612
0.00302043
0.00309394
0.00315887
0.00321575
0.00326628
0.00331119
0.00335206
0.00338751
0.00341811
0.00344397
0.00346586
0.00348892
0.00350779
0.00352398
0.00353937
0.00355438
0.00356975
0.00358565
0.00360311
0.00362465
0.00364844
0.00367406
0.00370108
0.00372883
0.00375615
0.00378158
0.00380577
0.00381379
0.00379355
0.00377184
0.00374796
0.00372434
0.00369436
0.00367338
0.000138417
0.000326661
0.000441225
0.000588005
0.000779896
0.00101501
0.00125862
0.00148503
0.00168816
0.00189349
0.00209886
0.00229076
0.00240093
0.00250277
0.00260023
0.00269112
0.00277794
0.00285896
0.00293358
0.00300074
0.00306131
0.00311541
0.00316346
0.00320517
0.00324119
0.00327143
0.00329835
0.00332402
0.00334374
0.00336117
0.00337699
0.00339209
0.00340702
0.00342195
0.00343758
0.00345562
0.00347513
0.00349595
0.00351785
0.0035405
0.00356508
0.00359372
0.0036226
0.00364825
0.00366727
0.00368085
0.00369077
0.00367343
0.0036435
0.00362188
0.000138426
0.000325389
0.00044225
0.000586032
0.000770698
0.000997965
0.00122315
0.00143468
0.00163208
0.00183574
0.00201349
0.00212814
0.0022164
0.00230287
0.00240143
0.00249751
0.00259127
0.00268017
0.00276324
0.0028383
0.00290594
0.00296589
0.00301797
0.00306289
0.00310117
0.00313309
0.00316253
0.00318777
0.00320761
0.003225
0.00324019
0.00325396
0.00326692
0.00327932
0.00329137
0.00330379
0.00331655
0.00332977
0.00334343
0.00335756
0.00337305
0.00339201
0.0034119
0.0034331
0.00345675
0.00347661
0.00349402
0.00349266
0.00349366
0.00344217
0.000134316
0.0003191
0.000443971
0.000576166
0.000738008
0.000942745
0.00113464
0.00132619
0.00147032
0.00159711
0.00172019
0.00183374
0.00193513
0.00204226
0.00216288
0.00227882
0.00238869
0.00249046
0.002584
0.00266683
0.00273989
0.00280349
0.00285949
0.002908
0.00294936
0.00298507
0.00301739
0.00304216
0.00306294
0.0030809
0.00309639
0.00311006
0.0031225
0.00313385
0.00314415
0.00315365
0.00316271
0.00317161
0.00318043
0.00318929
0.00319842
0.00320877
0.00321966
0.00323175
0.00324643
0.00325936
0.00327089
0.00327057
0.00327362
0.0032312
0.000130493
0.000303044
0.000419786
0.000528649
0.000651164
0.000787219
0.000960745
0.00116333
0.00137725
0.00150545
0.00161931
0.00171755
0.00180795
0.00191359
0.00202636
0.00213297
0.00223501
0.00232867
0.00241356
0.00249114
0.00256106
0.00262232
0.00267539
0.00272137
0.0027616
0.00279792
0.00282759
0.0028525
0.00287441
0.00289376
0.00291083
0.00292609
0.00294001
0.0029526
0.00296392
0.00297419
0.00298382
0.00299305
0.00300192
0.00301048
0.00301862
0.00302648
0.0030342
0.00304212
0.00305063
0.0030581
0.00306444
0.00306288
0.00306119
0.00303187
0.0001119
0.000258271
0.000367196
0.000425412
0.000535579
0.000692261
0.000899146
0.00113986
0.00138437
0.00161379
0.00178297
0.00185539
0.00192672
0.00200166
0.0020771
0.00214762
0.0022184
0.00228678
0.0023505
0.00240834
0.00246157
0.00250838
0.00255008
0.00258755
0.0026212
0.00264992
0.00267503
0.00269745
0.00271788
0.00273625
0.00275258
0.00276724
0.00278055
0.0027927
0.0028039
0.00281443
0.00282454
0.00283431
0.00284367
0.00285258
0.00286092
0.00286864
0.00287584
0.00288272
0.00288886
0.00289373
0.00289725
0.00289432
0.00288909
0.00286471
0.000121715
0.000198411
0.000277738
0.000417557
0.00061485
0.000842248
0.00107143
0.00127891
0.00147484
0.00165984
0.00183026
0.00198114
0.00211431
0.00216165
0.0022036
0.00224794
0.00228933
0.00232793
0.00236433
0.00239835
0.00243163
0.0024609
0.00249021
0.00251587
0.00253857
0.00255916
0.00257871
0.00259654
0.00261255
0.00262661
0.0026387
0.00264923
0.00265838
0.00266718
0.00267581
0.0026843
0.00269262
0.00270078
0.00270861
0.00271618
0.00272349
0.00273061
0.00273748
0.0027442
0.00275007
0.00275456
0.00275776
0.0027548
0.00274957
0.00272686
4.09821e-05
0.000156004
0.000373526
0.00067852
0.000942281
0.00112945
0.0012903
0.00143312
0.00156424
0.00168985
0.00180846
0.00191778
0.0020183
0.00212051
0.00222158
0.00231229
0.00233761
0.0023608
0.00238383
0.00240672
0.00243078
0.00245247
0.00247366
0.00249274
0.00250969
0.00252498
0.00253837
0.00254942
0.00255814
0.00256466
0.00256922
0.00257231
0.0025742
0.00257715
0.00258071
0.00258437
0.00258795
0.00259154
0.00259502
0.0025989
0.00260327
0.00260825
0.00261371
0.0026197
0.00262552
0.00263042
0.00263472
0.00263304
0.00263066
0.00261155
2.02982e-05
0.000204604
0.000690212
0.000987655
0.00115952
0.00127888
0.00137272
0.00145511
0.00153269
0.00161114
0.00168876
0.00176288
0.0018335
0.00190875
0.0019845
0.00205634
0.0021182
0.00217564
0.00222769
0.00227456
0.00231901
0.00235968
0.00239639
0.00243008
0.00246084
0.00248107
0.00248996
0.00249553
0.00249841
0.00249908
0.00249813
0.00249593
0.00249326
0.00249107
0.00248909
0.00248706
0.00248503
0.00248334
0.00248202
0.00248217
0.00248371
0.0024867
0.00249099
0.00249656
0.00250302
0.00250933
0.00251624
0.00251781
0.00252108
0.00250903
0.000100418
0.000159396
0.000343649
0.000410106
0.000474083
0.00053695
0.000599097
0.000658717
0.000716871
0.000772882
0.000826972
0.000879572
0.000929958
0.000986171
0.00104846
0.00111259
0.00117728
0.00124215
0.00130674
0.00137042
0.00143282
0.00149375
0.00155269
0.00161021
0.00166514
0.00171894
0.00176886
0.00181755
0.00186398
0.00190767
0.00194913
0.0019877
0.00202504
0.00203736
0.00204384
0.00205097
0.00205901
0.00206821
0.00207867
0.00209088
0.00210486
0.00212052
0.00213799
0.00215704
0.00217822
0.00219963
0.00222351
0.00224248
0.00226464
0.00226721
0.00144997
0.00114296
0.000907724
0.000788977
0.00070912
0.000649187
0.000609303
0.000584683
0.000570642
0.000564856
0.000564331
0.000568389
0.000575124
0.000585942
0.000601455
0.000620464
0.000641171
0.000664896
0.000689357
0.00071668
0.000744483
0.000773058
0.000802815
0.000833715
0.000865318
0.00089784
0.000931078
0.000964969
0.000999844
0.00103537
0.0010733
0.00111257
0.00115424
0.00119678
0.00124007
0.00128361
0.00132788
0.00137201
0.00141363
0.00144505
0.001478
0.00151221
0.00154873
0.00158652
0.001628
0.00166889
0.00171614
0.00175282
0.00177071
0.00178136
0.0037349
0.00299901
0.00259719
0.0020879
0.00175686
0.00152205
0.00134886
0.00121885
0.00111926
0.00104283
0.000984444
0.000941178
0.00090707
0.000877273
0.000849617
0.000828695
0.00081225
0.000800541
0.000792385
0.000788014
0.000786734
0.000787852
0.000791255
0.00079657
0.000803722
0.000812303
0.000822385
0.000833506
0.000845915
0.000859067
0.000873441
0.000888564
0.000905011
0.000922276
0.000940899
0.000960146
0.000980888
0.00100204
0.00102495
0.00104759
0.00107186
0.00109633
0.0011217
0.00114628
0.00117163
0.00119586
0.00121915
0.00124133
0.00125409
0.00126574
0.00597305
0.00517509
0.00472913
0.00407911
0.00357198
0.00318279
0.00287873
0.00263873
0.00244498
0.00228913
0.0021529
0.00203108
0.00192629
0.00182512
0.0017284
0.0016451
0.00157346
0.00151206
0.00145946
0.00141461
0.00137656
0.00134406
0.00131648
0.00129278
0.0012726
0.001255
0.00123986
0.00122627
0.00121435
0.00120318
0.00119319
0.00118336
0.00117447
0.0011654
0.00115731
0.00114904
0.00114198
0.00113494
0.00112938
0.00112429
0.00112074
0.00111722
0.00111562
0.00111418
0.00111522
0.00111614
0.00111997
0.0011235
0.0011268
0.00113376
0.00729242
0.0065891
0.00609506
0.00558836
0.00512691
0.00473011
0.00439353
0.00411093
0.00387149
0.00366963
0.00349073
0.00332683
0.00318171
0.00303495
0.00288655
0.00275193
0.00263078
0.00252183
0.00242429
0.00233654
0.00225789
0.00218655
0.00212216
0.00206284
0.00200876
0.00195789
0.00191103
0.00186588
0.00182397
0.00178262
0.00174412
0.00170534
0.00166943
0.00163254
0.0015988
0.00156364
0.00153211
0.00149882
0.00146971
0.00143866
0.00141222
0.00138336
0.00135921
0.00133204
0.00131004
0.00128431
0.0012646
0.00124013
0.00122103
0.00118866
0.00740932
0.00677775
0.00627299
0.00583511
0.00544892
0.00511215
0.00481837
0.00456391
0.00434224
0.00414926
0.00397962
0.00382877
0.00369343
0.00355398
0.0034076
0.00326888
0.00313784
0.0030142
0.0028979
0.00278825
0.00268527
0.00258788
0.0024964
0.00240935
0.00232753
0.00224899
0.0021752
0.00210366
0.00203663
0.0019709
0.0019097
0.00184912
0.00179335
0.00173744
0.00168677
0.00163512
0.00158923
0.00154151
0.00150015
0.00145603
0.00141896
0.00137798
0.00134483
0.00130622
0.00127639
0.001239
0.00121163
0.00117344
0.00114714
0.00109488
0.00619157
0.0056122
0.00515122
0.00477752
0.00446429
0.00419944
0.00397039
0.00377274
0.00359873
0.00344572
0.00330954
0.00318854
0.00307956
0.0029675
0.0028487
0.00273506
0.00262557
0.00252073
0.00241966
0.00232284
0.00222951
0.00214012
0.00205407
0.00197173
0.00189269
0.00181716
0.00174495
0.00167606
0.00161062
0.00154823
0.00148945
0.00143319
0.00138066
0.00133018
0.0012836
0.00123846
0.00119737
0.00115703
0.00112085
0.0010847
0.00105282
0.00102012
0.000991922
0.000961643
0.000936319
0.000906926
0.000883393
0.000852056
0.000829312
0.000771387
0.00350986
0.00313047
0.00283509
0.00260384
0.00241534
0.0022614
0.002131
0.00202101
0.00192527
0.001843
0.00176984
0.00170611
0.00164833
0.0015903
0.00152788
0.00146841
0.00141044
0.00135548
0.00130173
0.00125086
0.0012011
0.00115431
0.00110871
0.0010662
0.00102497
0.000986933
0.000950219
0.00091682
0.000884629
0.000855704
0.0008278
0.000803053
0.000779118
0.000758059
0.000737567
0.000719577
0.00070204
0.000686584
0.000671524
0.000658386
0.00064531
0.000634433
0.000622776
0.000613251
0.000602704
0.000593673
0.000583844
0.000573153
0.000563629
0.000532802
0.00111518
0.00101148
0.000921873
0.000851126
0.000793603
0.000748055
0.000709993
0.000678914
0.000652174
0.00062971
0.000609978
0.00059305
0.000577959
0.000562823
0.000547071
0.00053248
0.000518801
0.000506001
0.000493209
0.000481829
0.000470552
0.000460962
0.000451542
0.000443916
0.000436486
0.000430879
0.000425454
0.000421927
0.000418321
0.000416586
0.000414464
0.000414209
0.00041318
0.000413972
0.000413486
0.000414904
0.00041457
0.00041644
0.000416116
0.000418435
0.00041806
0.000420777
0.000420275
0.000423144
0.000422193
0.000424497
0.000419583
0.000401559
0.00039516
0.000355768
4.23125e-05
4.52614e-05
4.7976e-05
5.04015e-05
5.26391e-05
5.46466e-05
5.65269e-05
5.82315e-05
5.98483e-05
6.13222e-05
6.27321e-05
6.4023e-05
6.52647e-05
6.65806e-05
6.80765e-05
6.95453e-05
7.10773e-05
7.25745e-05
7.40946e-05
7.5572e-05
7.70704e-05
7.85117e-05
7.9971e-05
8.13541e-05
8.27511e-05
8.40475e-05
8.52669e-05
8.646e-05
8.7632e-05
8.87524e-05
8.97964e-05
9.0691e-05
9.15148e-05
9.22173e-05
9.28496e-05
9.33492e-05
9.37881e-05
9.40879e-05
9.43467e-05
9.44648e-05
9.45701e-05
9.45416e-05
9.45313e-05
9.44183e-05
9.43324e-05
9.42588e-05
9.41e-05
9.43456e-05
9.38415e-05
9.47758e-05
0.000632512
0.000626498
0.000614535
0.000597617
0.000539
0.000436579
0.000377731
0.000301133
0.000268225
0.000208788
0.00285512
0.0028444
0.00279726
0.00271908
0.00264016
0.00253059
0.00242661
0.00230078
0.00216807
0.0020084
0.00357231
0.00354662
0.00349973
0.00341814
0.00335156
0.00321946
0.0031424
0.00298355
0.00288685
0.00268439
0.00372167
0.00368662
0.00363333
0.00355961
0.00349336
0.00337191
0.00330182
0.00315373
0.00307634
0.00288227
0.00371388
0.00367122
0.00361243
0.00354289
0.00347659
0.00336881
0.00330568
0.00317036
0.00310326
0.00292565
0.0036712
0.00362557
0.00356432
0.00349675
0.00341078
0.00332916
0.00326653
0.00314431
0.00308421
0.0029197
0.00362896
0.00358154
0.00350463
0.00339041
0.00328417
0.00327004
0.00315217
0.00311199
0.00300387
0.00290173
0.0035765
0.00348427
0.00335621
0.00323219
0.00313286
0.00312184
0.0030101
0.00306967
0.00289679
0.00287421
0.00339481
0.00329056
0.00315584
0.00303859
0.0029542
0.00293181
0.0028419
0.00296275
0.00275358
0.00282576
0.0031798
0.00308931
0.00296868
0.00286512
0.0027921
0.00276188
0.00268912
0.00279288
0.00260581
0.00276457
0.00298527
0.00291002
0.00280336
0.00271245
0.00264475
0.00261222
0.00254797
0.00262105
0.00246118
0.0026924
0.00282371
0.00275807
0.00265826
0.00257525
0.00250732
0.00247552
0.00241226
0.00246239
0.00232376
0.00259843
0.00269047
0.0026288
0.00252872
0.00244829
0.00237615
0.00234555
0.00227863
0.00231573
0.00219334
0.00243481
0.00257769
0.00251561
0.00241052
0.00232856
0.00225065
0.00222032
0.00214902
0.00217928
0.0020711
0.00227067
0.00247627
0.00241227
0.00230134
0.00221629
0.00213464
0.00210438
0.00203278
0.00205899
0.00196635
0.00213454
0.00224984
0.00219417
0.00208596
0.00200449
0.00193024
0.00191188
0.00185441
0.00188797
0.00182229
0.00197477
0.00178464
0.00178538
0.00172442
0.00166492
0.00162367
0.00163501
0.0016155
0.00166761
0.00163613
0.00176491
0.00128226
0.00130026
0.00130848
0.0013214
0.00132116
0.00134309
0.00134697
0.00138017
0.00139403
0.00145861
0.0011318
0.00113204
0.00113761
0.00114139
0.00114523
0.00114998
0.00115121
0.00116667
0.00117891
0.00123785
0.00116956
0.00114857
0.00112188
0.00109606
0.00107415
0.00105432
0.00103907
0.00102658
0.00102417
0.0010342
0.00107867
0.0010579
0.00101931
0.000990345
0.000952538
0.000924477
0.000895743
0.00086943
0.000857824
0.000839022
0.000774454
0.000768077
0.000739934
0.000725544
0.000698099
0.000686511
0.000664299
0.000653731
0.000641705
0.000629687
0.000547966
0.000549505
0.000545478
0.000540966
0.000530698
0.00052618
0.000512788
0.000508825
0.00049732
0.000487363
0.00034423
0.00038186
0.0004037
0.000401605
0.000389386
0.000381016
0.000368204
0.000365428
0.000349655
0.000352906
8.93753e-05
8.29697e-05
7.66907e-05
7.2064e-05
6.81567e-05
6.43106e-05
6.13456e-05
5.68983e-05
5.45225e-05
5.09487e-05
)
;

boundaryField
{
    inlet
    {
        type            calculated;
        value           nonuniform List<scalar> 10(5.89878e-05 0.00946651 0.00946651 0.00946651 0.00946651 0.00946651 0.00946651 0.00946651 0.00946651 2.9491e-05);
    }
    outlet
    {
        type            calculated;
        value           nonuniform List<scalar> 
25
(
0.000209562
0.0020084
0.00268439
0.00288227
0.00292565
0.0029197
0.00290173
0.00287421
0.00282576
0.00276457
0.0026924
0.00261054
0.00251888
0.00236866
0.00222616
0.00206513
0.00176491
0.00145861
0.00123785
0.0010342
0.000839022
0.000629687
0.000487363
0.000353006
6.32916e-05
)
;
    }
    upperWall
    {
        type            nutkWallFunction;
        blending        stepwise;
        Cmu             0.09;
        kappa           0.41;
        E               9.8;
        value           nonuniform List<scalar> 
68
(
1.90138e-05
1.91858e-05
1.94102e-05
1.97301e-05
2.01439e-05
2.07289e-05
2.14725e-05
2.24985e-05
2.36333e-05
2.47177e-05
2.56988e-05
2.65687e-05
2.73646e-05
2.80758e-05
2.87334e-05
2.93237e-05
2.98734e-05
3.03678e-05
3.0831e-05
3.1248e-05
3.16408e-05
3.20479e-05
3.2498e-05
3.29279e-05
3.33605e-05
3.37698e-05
3.41698e-05
3.45437e-05
3.49072e-05
3.52411e-05
3.55637e-05
3.58526e-05
3.61301e-05
3.63696e-05
3.65778e-05
3.67677e-05
3.69413e-05
3.70927e-05
3.72175e-05
3.73011e-05
3.73624e-05
3.73917e-05
3.74012e-05
3.73786e-05
3.73405e-05
3.72703e-05
3.719e-05
3.70774e-05
3.69611e-05
3.68106e-05
3.6663e-05
3.64777e-05
3.62994e-05
3.60792e-05
3.58585e-05
3.56019e-05
3.52939e-05
3.49939e-05
3.34382e-05
3.17667e-05
3.01687e-05
2.88462e-05
2.7407e-05
2.61491e-05
2.48647e-05
2.36517e-05
2.24152e-05
2.16591e-05
)
;
    }
    lowerWall
    {
        type            nutkWallFunction;
        blending        stepwise;
        Cmu             0.09;
        kappa           0.41;
        E               9.8;
        value           nonuniform List<scalar> 
83
(
4.19894e-05
4.20812e-05
4.23047e-05
4.24707e-05
4.28974e-05
4.31954e-05
4.39954e-05
4.45183e-05
1.35274e-05
1.49867e-05
1.55551e-05
1.5454e-05
1.52319e-05
1.49166e-05
1.46642e-05
1.46279e-05
1.46293e-05
1.40638e-05
1.35368e-05
1.29525e-05
1.23218e-05
1.29957e-05
2.41776e-05
1.35274e-05
2.34153e-05
3.22487e-05
3.94425e-05
4.53175e-05
5.02881e-05
5.46092e-05
5.84208e-05
6.18036e-05
6.48087e-05
6.74738e-05
6.9831e-05
7.19111e-05
7.40168e-05
7.6161e-05
7.81201e-05
7.9908e-05
8.15415e-05
8.30706e-05
8.44503e-05
8.5652e-05
8.66832e-05
8.75431e-05
8.82083e-05
8.86812e-05
8.90198e-05
8.92725e-05
8.9369e-05
8.93041e-05
8.9119e-05
8.88082e-05
8.83959e-05
8.78894e-05
8.73021e-05
8.66436e-05
8.59249e-05
8.51555e-05
8.43456e-05
8.35045e-05
8.26412e-05
8.17635e-05
8.08781e-05
7.99975e-05
7.91455e-05
7.83957e-05
7.78708e-05
7.74747e-05
7.71003e-05
7.69004e-05
7.56263e-05
7.65457e-05
7.58376e-05
7.44268e-05
7.24268e-05
7.00508e-05
6.73468e-05
6.41882e-05
6.13722e-05
5.7625e-05
5.51426e-05
)
;
    }
    frontAndBack
    {
        type            empty;
    }
}


// ************************************************************************* //
