/*--------------------------------*- C++ -*----------------------------------*\
| =========                 |                                                 |
| \\      /  F ield         | OpenFOAM: The Open Source CFD Toolbox           |
|  \\    /   O peration     | Version:  2112                                  |
|   \\  /    A nd           | Website:  www.openfoam.com                      |
|    \\/     M anipulation  |                                                 |
\*---------------------------------------------------------------------------*/
FoamFile
{
    version     2.0;
    format      ascii;
    arch        "LSB;label=32;scalar=64";
    class       surfaceScalarField;
    location    "0.18";
    object      phi;
}
// * * * * * * * * * * * * * * * * * * * * * * * * * * * * * * * * * * * * * //

dimensions      [0 3 -1 0 0 0 0];

oriented        oriented;

internalField   nonuniform List<scalar> 
3067
(
5.07993e-05
7.37503e-10
5.07964e-05
2.87327e-09
5.07902e-05
6.18914e-09
5.07778e-05
1.24189e-08
5.07592e-05
1.86162e-08
5.07241e-05
3.51028e-08
5.06939e-05
3.01964e-08
9.06749e-08
5.06032e-05
2.03204e-05
3.01369e-10
2.03219e-05
1.42136e-09
2.03244e-05
3.67104e-09
2.03291e-05
7.71819e-09
2.03343e-05
1.33732e-08
2.03458e-05
2.36987e-08
2.03468e-05
2.91437e-08
6.591e-08
2.03716e-05
2.03201e-05
1.59394e-10
2.03208e-05
7.53865e-10
2.03225e-05
2.02081e-09
2.03258e-05
4.38767e-09
2.03311e-05
8.07638e-09
2.03406e-05
1.41699e-08
2.035e-05
1.97368e-08
4.66624e-08
2.03693e-05
2.03201e-05
5.64893e-11
2.03206e-05
2.66942e-10
2.03219e-05
7.17529e-10
2.03247e-05
1.56064e-09
2.03299e-05
2.86196e-09
2.03391e-05
5.04637e-09
2.03517e-05
7.05682e-09
2.51301e-08
2.03733e-05
2.03201e-05
-3.78238e-11
2.03205e-05
-1.81062e-10
2.03218e-05
-5.02921e-10
2.03245e-05
-1.17251e-09
2.03298e-05
-2.45501e-09
2.03392e-05
-4.32274e-09
2.03534e-05
-7.18347e-09
1.70406e-09
2.03768e-05
2.03201e-05
-1.37527e-10
2.03206e-05
-6.54879e-10
2.03219e-05
-1.79491e-09
2.03248e-05
-4.06698e-09
2.03304e-05
-8.09695e-09
2.03402e-05
-1.41617e-08
2.03555e-05
-2.24445e-08
-2.31567e-08
2.03804e-05
2.54002e-05
-2.89074e-10
2.54009e-05
-1.37627e-09
2.54028e-05
-3.74343e-09
2.5407e-05
-8.29244e-09
2.54149e-05
-1.59501e-08
2.5428e-05
-2.72938e-08
2.54481e-05
-4.25353e-08
-5.56017e-08
2.54806e-05
2.54002e-05
-5.20024e-10
2.54014e-05
-2.54113e-09
2.54044e-05
-6.74318e-09
2.54101e-05
-1.40427e-08
2.54195e-05
-2.52905e-08
2.54337e-05
-4.15241e-08
2.54545e-05
-6.33102e-08
-8.81872e-08
2.54871e-05
2.54013e-05
-1.83097e-09
2.5405e-05
-6.21077e-09
2.54111e-05
-1.28452e-08
2.54197e-05
-2.26177e-08
2.54309e-05
-3.64988e-08
2.54453e-05
-5.59147e-08
2.54639e-05
-8.19269e-08
-1.1179e-07
2.54875e-05
2.53982e-05
2.5392e-05
2.53791e-05
2.53565e-05
2.532e-05
2.52641e-05
2.51822e-05
2.50704e-05
-7.69293e-07
7.69293e-07
-2.15831e-06
1.38902e-06
-3.98686e-06
1.82855e-06
-5.97026e-06
1.9834e-06
-7.85435e-06
1.88408e-06
-9.51801e-06
1.66366e-06
-1.09402e-05
1.42215e-06
-1.21372e-05
1.19704e-06
-1.3135e-05
9.97798e-07
-1.39593e-05
8.24294e-07
-1.46338e-05
6.74527e-07
-1.51805e-05
5.46714e-07
-1.56201e-05
4.39522e-07
-1.60668e-05
4.4671e-07
-1.6413e-05
3.46243e-07
-1.66606e-05
2.47642e-07
-1.68104e-05
1.49717e-07
-1.68601e-05
4.97042e-08
-1.68189e-05
-4.11689e-08
-1.6698e-05
-1.2089e-07
-1.64976e-05
-2.00391e-07
-1.62197e-05
-2.77908e-07
-1.5868e-05
-3.51689e-07
-1.54469e-05
-4.21119e-07
-1.49609e-05
-4.85977e-07
-1.44151e-05
-5.45834e-07
-1.38151e-05
-5.99972e-07
-1.31671e-05
-6.4799e-07
-1.2477e-05
-6.90152e-07
-1.17507e-05
-7.26273e-07
-1.09947e-05
-7.5601e-07
-1.0215e-05
-7.79654e-07
-9.41727e-06
-7.97768e-07
-8.60628e-06
-8.10994e-07
-7.78647e-06
-8.19805e-07
-6.96195e-06
-8.24528e-07
-6.13611e-06
-8.25834e-07
-5.31155e-06
-8.24563e-07
-4.4901e-06
-8.21449e-07
-3.67282e-06
-8.17278e-07
-2.86009e-06
-8.12731e-07
-2.05193e-06
-8.08163e-07
-1.24772e-06
-8.04209e-07
-4.461e-07
-8.0162e-07
3.55028e-07
-8.01127e-07
1.15709e-06
-8.0206e-07
1.96193e-06
-8.04844e-07
2.76617e-06
-8.0424e-07
3.57549e-06
-8.09322e-07
-7.24394e-07
4.29989e-06
-7.57426e-07
1.52672e-06
-1.6726e-06
2.3042e-06
-2.64917e-06
2.80512e-06
-3.54096e-06
2.87519e-06
-4.26736e-06
2.61048e-06
-4.8342e-06
2.2305e-06
-5.28297e-06
1.87092e-06
-5.6491e-06
1.56317e-06
-5.95032e-06
1.29902e-06
-6.19577e-06
1.06974e-06
-6.39143e-06
8.70192e-07
-6.54359e-06
6.98873e-07
-6.6578e-06
5.53726e-07
-6.75781e-06
5.46724e-07
-6.81743e-06
4.05862e-07
-6.83635e-06
2.6656e-07
-6.81498e-06
1.28349e-07
-6.76354e-06
-1.73157e-09
-6.66572e-06
-1.38988e-07
-6.52159e-06
-2.65027e-07
-6.33354e-06
-3.88437e-07
-6.10284e-06
-5.08612e-07
-5.83134e-06
-6.23181e-07
-5.52152e-06
-7.30941e-07
-5.17612e-06
-8.31379e-07
-4.79799e-06
-9.23962e-07
-4.39003e-06
-1.00793e-06
-3.95559e-06
-1.08243e-06
-3.49834e-06
-1.1474e-06
-3.02191e-06
-1.2027e-06
-2.52992e-06
-1.24801e-06
-2.02583e-06
-1.28374e-06
-1.51288e-06
-1.31072e-06
-9.93917e-07
-1.32996e-06
-4.71372e-07
-1.34235e-06
5.2571e-08
-1.34847e-06
5.76063e-07
-1.34933e-06
1.09774e-06
-1.34624e-06
1.61671e-06
-1.34041e-06
2.13243e-06
-1.333e-06
2.64476e-06
-1.32507e-06
3.15392e-06
-1.31732e-06
3.66061e-06
-1.3109e-06
4.1661e-06
-1.30711e-06
4.67223e-06
-1.30726e-06
5.181e-06
-1.31083e-06
5.69596e-06
-1.3198e-06
6.21954e-06
-1.32782e-06
6.75396e-06
-1.34374e-06
-1.29241e-06
7.32197e-06
-3.9974e-07
1.92646e-06
-7.96045e-07
2.7005e-06
-1.16575e-06
3.17482e-06
-1.45704e-06
3.16648e-06
-1.66477e-06
2.81822e-06
-1.82586e-06
2.39159e-06
-1.97007e-06
2.01513e-06
-2.1034e-06
1.69649e-06
-2.22086e-06
1.41649e-06
-2.31753e-06
1.16641e-06
-2.39066e-06
9.4332e-07
-2.44118e-06
7.49392e-07
-2.47215e-06
5.84699e-07
-2.48883e-06
5.63403e-07
-2.48136e-06
3.98383e-07
-2.44942e-06
2.34624e-07
-2.39247e-06
7.1398e-08
-2.30513e-06
-8.90654e-08
-2.19534e-06
-2.48782e-07
-2.05747e-06
-4.02898e-07
-1.89403e-06
-5.51877e-07
-1.70703e-06
-6.95615e-07
-1.49818e-06
-8.32024e-07
-1.26914e-06
-9.59987e-07
-1.0216e-06
-1.07891e-06
-7.57356e-07
-1.18821e-06
-4.78145e-07
-1.28714e-06
-1.85861e-07
-1.37472e-06
1.172e-07
-1.45046e-06
4.28754e-07
-1.51426e-06
7.46948e-07
-1.5662e-06
1.07e-06
-1.60679e-06
1.39615e-06
-1.63686e-06
1.72382e-06
-1.65763e-06
2.0517e-06
-1.67023e-06
2.37879e-06
-1.67556e-06
2.70441e-06
-1.67495e-06
3.02807e-06
-1.6699e-06
3.34935e-06
-1.6617e-06
3.66803e-06
-1.65168e-06
3.98411e-06
-1.64115e-06
4.29789e-06
-1.6311e-06
4.6102e-06
-1.62321e-06
4.92218e-06
-1.61909e-06
5.23542e-06
-1.6205e-06
5.55184e-06
-1.62725e-06
5.87458e-06
-1.64254e-06
6.20642e-06
-1.65966e-06
6.55105e-06
-1.68837e-06
-1.67113e-06
6.92977e-06
-1.68406e-07
2.09486e-06
-3.07788e-07
2.83989e-06
-4.20842e-07
3.28787e-06
-4.86816e-07
3.23245e-06
-5.21467e-07
2.85287e-06
-5.5298e-07
2.4231e-06
-5.92112e-07
2.05426e-06
-6.33274e-07
1.73765e-06
-6.66603e-07
1.44982e-06
-6.87215e-07
1.18703e-06
-6.93821e-07
9.49927e-07
-6.8804e-07
7.43611e-07
-6.72598e-07
5.69258e-07
-6.40429e-07
5.31233e-07
-5.93796e-07
3.51751e-07
-5.32407e-07
1.73236e-07
-4.5556e-07
-5.44896e-09
-3.62472e-07
-1.82153e-07
-2.54503e-07
-3.56751e-07
-1.31828e-07
-5.25573e-07
4.25449e-09
-6.87959e-07
1.51964e-07
-8.43325e-07
3.10474e-07
-9.90534e-07
4.78969e-07
-1.12848e-06
6.56289e-07
-1.25623e-06
8.41285e-07
-1.37321e-06
1.03294e-06
-1.47879e-06
1.2301e-06
-1.57188e-06
1.43126e-06
-1.65162e-06
1.6352e-06
-1.7182e-06
1.84109e-06
-1.77209e-06
2.04805e-06
-1.81375e-06
2.25521e-06
-1.84402e-06
2.46172e-06
-1.86414e-06
2.66678e-06
-1.87529e-06
2.87022e-06
-1.87899e-06
3.07205e-06
-1.87679e-06
3.27212e-06
-1.86996e-06
3.47026e-06
-1.85984e-06
3.66637e-06
-1.84779e-06
3.86043e-06
-1.83521e-06
4.05291e-06
-1.82357e-06
4.24462e-06
-1.81491e-06
4.43644e-06
-1.81092e-06
4.62948e-06
-1.81354e-06
4.82572e-06
-1.82349e-06
5.02681e-06
-1.84362e-06
5.23654e-06
-1.8694e-06
5.45481e-06
-1.90664e-06
-1.91664e-06
5.70031e-06
-5.62392e-08
2.1511e-06
-8.83294e-08
2.87198e-06
-1.03789e-07
3.30333e-06
-9.22573e-08
3.22092e-06
-7.11668e-08
2.83178e-06
-5.84979e-08
2.41043e-06
-5.52316e-08
2.051e-06
-5.32967e-08
1.73572e-06
-4.52479e-08
1.44177e-06
-2.87116e-08
1.17049e-06
-4.25406e-09
9.25469e-07
2.59386e-08
7.13418e-07
5.98951e-08
5.35301e-07
1.09078e-07
4.8205e-07
1.66741e-07
2.94088e-07
2.32795e-07
1.07182e-07
3.07476e-07
-8.01304e-08
3.91214e-07
-2.65891e-07
4.83258e-07
-4.48795e-07
5.83036e-07
-6.25351e-07
6.89749e-07
-7.94672e-07
8.02597e-07
-9.56174e-07
9.20759e-07
-1.1087e-06
1.04328e-06
-1.251e-06
1.16925e-06
-1.38221e-06
1.29795e-06
-1.5019e-06
1.4288e-06
-1.60964e-06
1.56097e-06
-1.70405e-06
1.6936e-06
-1.78425e-06
1.82623e-06
-1.85083e-06
1.95849e-06
-1.90435e-06
2.08998e-06
-1.94524e-06
2.22039e-06
-1.97443e-06
2.34957e-06
-1.99332e-06
2.47761e-06
-2.00333e-06
2.60454e-06
-2.00592e-06
2.73018e-06
-2.00243e-06
2.85441e-06
-1.9942e-06
2.97721e-06
-1.98264e-06
3.09849e-06
-1.96906e-06
3.21816e-06
-1.95489e-06
3.33683e-06
-1.94224e-06
3.4552e-06
-1.93328e-06
3.57381e-06
-1.92953e-06
3.69345e-06
-1.93318e-06
3.81594e-06
-1.94598e-06
3.94185e-06
-1.96952e-06
4.07501e-06
-2.00255e-06
4.21329e-06
-2.04492e-06
-2.07553e-06
4.37219e-06
-8.6573e-09
2.15976e-06
-1.53101e-09
2.86485e-06
1.55951e-08
3.28621e-06
4.8565e-08
3.18795e-06
8.28397e-08
2.79751e-06
1.08374e-07
2.38489e-06
1.27793e-07
2.03158e-06
1.4789e-07
1.71562e-06
1.72892e-07
1.41677e-06
2.03234e-07
1.14015e-06
2.3727e-07
8.91433e-07
2.7279e-07
6.77898e-07
3.08797e-07
4.99293e-07
3.56905e-07
4.33942e-07
4.10015e-07
2.40978e-07
4.68824e-07
4.83731e-08
5.33402e-07
-1.44708e-07
6.03149e-07
-3.35638e-07
6.77178e-07
-5.22824e-07
7.54913e-07
-7.03086e-07
8.35849e-07
-8.75608e-07
9.19556e-07
-1.03988e-06
1.00541e-06
-1.19455e-06
1.09262e-06
-1.33822e-06
1.18063e-06
-1.47021e-06
1.26902e-06
-1.59029e-06
1.35743e-06
-1.69806e-06
1.44529e-06
-1.7919e-06
1.53222e-06
-1.87118e-06
1.61812e-06
-1.93673e-06
1.7028e-06
-1.98903e-06
1.78613e-06
-2.02857e-06
1.86805e-06
-2.05635e-06
1.94867e-06
-2.07394e-06
2.02829e-06
-2.08295e-06
2.10698e-06
-2.08461e-06
2.18458e-06
-2.08003e-06
2.26108e-06
-2.0707e-06
2.33654e-06
-2.0581e-06
2.41116e-06
-2.04368e-06
2.48533e-06
-2.02906e-06
2.55938e-06
-2.0163e-06
2.63339e-06
-2.00728e-06
2.70761e-06
-2.00375e-06
2.78265e-06
-2.00822e-06
2.86002e-06
-2.02336e-06
2.93973e-06
-2.04923e-06
3.02498e-06
-2.0878e-06
3.11344e-06
-2.13339e-06
-2.17874e-06
3.21665e-06
7.83916e-09
2.15192e-06
2.65172e-08
2.84617e-06
5.13338e-08
3.26139e-06
8.49049e-08
3.15438e-06
1.1768e-07
2.76473e-06
1.44033e-07
2.35854e-06
1.67308e-07
2.0083e-06
1.92407e-07
1.69052e-06
2.21175e-07
1.388e-06
2.5285e-07
1.10847e-06
2.85491e-07
8.58792e-07
3.17313e-07
6.46076e-07
3.48426e-07
4.6818e-07
3.89595e-07
3.92773e-07
4.34372e-07
1.96202e-07
4.82849e-07
-1.04379e-10
5.34895e-07
-1.96754e-07
5.89655e-07
-3.90398e-07
6.46368e-07
-5.79537e-07
7.04575e-07
-7.61294e-07
7.63919e-07
-9.34953e-07
8.24071e-07
-1.10003e-06
8.84661e-07
-1.25514e-06
9.45292e-07
-1.39885e-06
1.00565e-06
-1.53058e-06
1.06555e-06
-1.65019e-06
1.12472e-06
-1.75723e-06
1.18282e-06
-1.85e-06
1.23976e-06
-1.92812e-06
1.29551e-06
-1.99248e-06
1.34999e-06
-2.04351e-06
1.40317e-06
-2.08176e-06
1.45508e-06
-2.10826e-06
1.50584e-06
-2.12469e-06
1.55562e-06
-2.13273e-06
1.60451e-06
-2.1335e-06
1.65251e-06
-2.12803e-06
1.69969e-06
-2.11788e-06
1.74615e-06
-2.10456e-06
1.79211e-06
-2.08965e-06
1.83802e-06
-2.07497e-06
1.88409e-06
-2.06237e-06
1.93035e-06
-2.05354e-06
1.97718e-06
-2.05058e-06
2.02491e-06
-2.05596e-06
2.07441e-06
-2.07286e-06
2.12553e-06
-2.10035e-06
2.18059e-06
-2.14287e-06
2.23789e-06
-2.19069e-06
-2.24606e-06
2.30521e-06
1.26325e-08
2.13929e-06
3.37976e-08
2.82501e-06
6.04763e-08
3.23471e-06
9.44396e-08
3.12042e-06
1.28687e-07
2.73049e-06
1.59451e-07
2.32778e-06
1.9003e-07
1.97772e-06
2.24263e-07
1.65629e-06
2.62592e-07
1.34967e-06
3.03424e-07
1.06764e-06
3.44555e-07
8.17662e-07
3.84884e-07
6.05747e-07
4.25072e-07
4.27992e-07
4.7884e-07
3.39005e-07
5.37599e-07
1.37443e-07
6.00955e-07
-6.34609e-08
6.68745e-07
-2.64544e-07
7.4024e-07
-4.61892e-07
8.14785e-07
-6.54082e-07
8.92001e-07
-8.3851e-07
9.7159e-07
-1.01454e-06
1.05324e-06
-1.18168e-06
1.13665e-06
-1.33855e-06
1.22153e-06
-1.48373e-06
1.30762e-06
-1.61666e-06
1.39475e-06
-1.73731e-06
1.48257e-06
-1.84505e-06
1.57074e-06
-1.93818e-06
1.65924e-06
-2.01662e-06
1.74799e-06
-2.08123e-06
1.83689e-06
-2.13241e-06
1.9259e-06
-2.17077e-06
2.01505e-06
-2.19741e-06
2.10446e-06
-2.21411e-06
2.19427e-06
-2.22254e-06
2.28458e-06
-2.2238e-06
2.37547e-06
-2.21893e-06
2.46707e-06
-2.20948e-06
2.55955e-06
-2.19703e-06
2.65323e-06
-2.18333e-06
2.74866e-06
-2.1704e-06
2.84626e-06
-2.15997e-06
2.94644e-06
-2.15372e-06
3.05015e-06
-2.15429e-06
3.1579e-06
-2.16371e-06
3.27067e-06
-2.18563e-06
3.38865e-06
-2.21832e-06
3.51514e-06
-2.26936e-06
3.64875e-06
-2.3243e-06
-2.39607e-06
3.79876e-06
1.25251e-08
2.12676e-06
3.19706e-08
2.80556e-06
5.65011e-08
3.21018e-06
8.71505e-08
3.08977e-06
1.19012e-07
2.69862e-06
1.49865e-07
2.29692e-06
1.82733e-07
1.94486e-06
2.20255e-07
1.61877e-06
2.61711e-07
1.30821e-06
3.05251e-07
1.0241e-06
3.4916e-07
7.73753e-07
3.92862e-07
5.62044e-07
4.36817e-07
3.84038e-07
4.95165e-07
2.80656e-07
5.58202e-07
7.44059e-08
6.25487e-07
-1.30746e-07
6.96803e-07
-3.3586e-07
7.71568e-07
-5.36657e-07
8.49268e-07
-7.31781e-07
9.29607e-07
-9.18849e-07
1.01234e-06
-1.09727e-06
1.09719e-06
-1.26653e-06
1.18392e-06
-1.42528e-06
1.27228e-06
-1.57209e-06
1.36207e-06
-1.70645e-06
1.4531e-06
-1.82834e-06
1.54501e-06
-1.93696e-06
1.63757e-06
-2.03074e-06
1.73077e-06
-2.10982e-06
1.82448e-06
-2.17494e-06
1.91862e-06
-2.22654e-06
2.01315e-06
-2.26529e-06
2.1081e-06
-2.29236e-06
2.20359e-06
-2.3096e-06
2.29972e-06
-2.31867e-06
2.39656e-06
-2.32064e-06
2.49423e-06
-2.3166e-06
2.59286e-06
-2.30811e-06
2.69264e-06
-2.29681e-06
2.79385e-06
-2.28454e-06
2.8969e-06
-2.27345e-06
3.00224e-06
-2.2653e-06
3.11043e-06
-2.26191e-06
3.22244e-06
-2.2663e-06
3.33897e-06
-2.28024e-06
3.46115e-06
-2.30781e-06
3.58973e-06
-2.3469e-06
3.72784e-06
-2.40747e-06
3.87498e-06
-2.47144e-06
-2.55853e-06
4.03744e-06
1.11434e-07
2.01533e-06
2.52334e-07
2.66466e-06
4.00264e-07
3.06225e-06
5.55529e-07
2.9345e-06
7.028e-07
2.55135e-06
8.45953e-07
2.15377e-06
1.00227e-06
1.78854e-06
1.17428e-06
1.44676e-06
1.34943e-06
1.13306e-06
1.51819e-06
8.5534e-07
1.67831e-06
6.13632e-07
1.82872e-06
4.11641e-07
1.97002e-06
2.42729e-07
2.14309e-06
1.07592e-07
2.31298e-06
-9.54873e-08
2.4784e-06
-2.96164e-07
2.63847e-06
-4.95927e-07
2.79188e-06
-6.90068e-07
2.93779e-06
-8.77692e-07
3.07612e-06
-1.05718e-06
3.20668e-06
-1.22784e-06
3.32923e-06
-1.38908e-06
3.44364e-06
-1.53969e-06
3.5499e-06
-1.67836e-06
3.64802e-06
-1.80457e-06
3.73789e-06
-1.91821e-06
3.81931e-06
-2.01839e-06
3.89253e-06
-2.10397e-06
3.95791e-06
-2.17519e-06
4.01561e-06
-2.23264e-06
4.06597e-06
-2.27691e-06
4.10938e-06
-2.3087e-06
4.14631e-06
-2.32929e-06
4.17736e-06
-2.34066e-06
4.20296e-06
-2.34427e-06
4.22348e-06
-2.34116e-06
4.23931e-06
-2.33243e-06
4.25085e-06
-2.31965e-06
4.25854e-06
-2.3045e-06
4.26286e-06
-2.28886e-06
4.26428e-06
-2.27487e-06
4.26343e-06
-2.26445e-06
4.26103e-06
-2.25951e-06
4.25801e-06
-2.26328e-06
4.2552e-06
-2.27743e-06
4.25381e-06
-2.30643e-06
4.25471e-06
-2.3478e-06
4.26029e-06
-2.41305e-06
4.2708e-06
-2.48195e-06
-2.57772e-06
4.28999e-06
1.73735e-07
1.84159e-06
3.75574e-07
2.46282e-06
5.69482e-07
2.86834e-06
7.76637e-07
2.72735e-06
1.00286e-06
2.32513e-06
1.25879e-06
1.89784e-06
1.54492e-06
1.5024e-06
1.84146e-06
1.15022e-06
2.12413e-06
8.50391e-07
2.37934e-06
6.00127e-07
2.60157e-06
3.91405e-07
2.79433e-06
2.18882e-07
2.96432e-06
7.27424e-08
3.15842e-06
-8.65113e-08
3.33673e-06
-2.73798e-07
3.50136e-06
-4.60788e-07
3.6532e-06
-6.47776e-07
3.79234e-06
-8.29201e-07
3.91938e-06
-1.00474e-06
4.03532e-06
-1.17312e-06
4.14074e-06
-1.33325e-06
4.23596e-06
-1.48429e-06
4.32134e-06
-1.62507e-06
4.39726e-06
-1.75428e-06
4.46401e-06
-1.87132e-06
4.52191e-06
-1.9761e-06
4.57133e-06
-2.06781e-06
4.61275e-06
-2.14539e-06
4.64658e-06
-2.20902e-06
4.67324e-06
-2.2593e-06
4.69329e-06
-2.29697e-06
4.7073e-06
-2.32271e-06
4.7159e-06
-2.33788e-06
4.7198e-06
-2.34456e-06
4.71948e-06
-2.34394e-06
4.71526e-06
-2.33695e-06
4.70754e-06
-2.32471e-06
4.69669e-06
-2.3088e-06
4.68315e-06
-2.29096e-06
4.66739e-06
-2.2731e-06
4.64984e-06
-2.25733e-06
4.63108e-06
-2.24568e-06
4.61179e-06
-2.24023e-06
4.59279e-06
-2.24427e-06
4.57497e-06
-2.25961e-06
4.55967e-06
-2.29113e-06
4.54806e-06
-2.33619e-06
4.54224e-06
-2.40722e-06
4.54355e-06
-2.48327e-06
-2.58964e-06
4.55547e-06
2.22859e-07
1.61874e-06
4.68977e-07
2.2167e-06
7.07561e-07
2.62976e-06
1.02759e-06
2.40732e-06
1.43845e-06
1.91427e-06
1.8883e-06
1.44799e-06
2.3245e-06
1.06621e-06
2.71743e-06
7.57286e-07
3.06049e-06
5.07331e-07
3.35646e-06
3.04156e-07
3.60848e-06
1.39391e-07
3.82387e-06
3.48822e-09
4.00527e-06
-1.08662e-07
4.2008e-06
-2.82039e-07
4.37311e-06
-4.46103e-07
4.52573e-06
-6.1341e-07
4.65957e-06
-7.81612e-07
4.7763e-06
-9.45937e-07
4.87807e-06
-1.10651e-06
4.96655e-06
-1.2616e-06
5.04287e-06
-1.40958e-06
5.1079e-06
-1.54933e-06
5.16233e-06
-1.6795e-06
5.20669e-06
-1.79863e-06
5.24159e-06
-1.90623e-06
5.26779e-06
-2.0023e-06
5.28588e-06
-2.0859e-06
5.29637e-06
-2.15588e-06
5.29991e-06
-2.21256e-06
5.29719e-06
-2.25657e-06
5.28895e-06
-2.28872e-06
5.27584e-06
-2.30961e-06
5.2586e-06
-2.32064e-06
5.23795e-06
-2.32392e-06
5.21432e-06
-2.32031e-06
5.18797e-06
-2.3106e-06
5.15925e-06
-2.29599e-06
5.12851e-06
-2.27806e-06
5.09618e-06
-2.25863e-06
5.06271e-06
-2.23963e-06
5.02854e-06
-2.22315e-06
4.99416e-06
-2.2113e-06
4.96021e-06
-2.20628e-06
4.92743e-06
-2.21149e-06
4.89672e-06
-2.22891e-06
4.8694e-06
-2.26381e-06
4.84683e-06
-2.31362e-06
4.83098e-06
-2.39138e-06
4.82384e-06
-2.47612e-06
-2.59427e-06
4.82846e-06
2.59083e-07
1.35965e-06
5.49959e-07
1.92583e-06
9.8824e-07
2.19148e-06
1.64101e-06
1.75455e-06
2.32382e-06
1.23146e-06
2.91961e-06
8.52208e-07
3.41112e-06
5.747e-07
3.81198e-06
3.56425e-07
4.13993e-06
1.79376e-07
4.41287e-06
3.12224e-08
4.64463e-06
-9.23721e-08
4.84252e-06
-1.94401e-07
5.00938e-06
-2.75518e-07
5.19125e-06
-4.63911e-07
5.35036e-06
-6.05216e-07
5.48532e-06
-7.48367e-07
5.59678e-06
-8.93073e-07
5.68887e-06
-1.03803e-06
5.76459e-06
-1.18222e-06
5.82575e-06
-1.32277e-06
5.87369e-06
-1.45751e-06
5.90952e-06
-1.58516e-06
5.93422e-06
-1.7042e-06
5.94874e-06
-1.81316e-06
5.95408e-06
-1.91157e-06
5.95103e-06
-1.99926e-06
5.94026e-06
-2.07512e-06
5.92258e-06
-2.13821e-06
5.89897e-06
-2.18894e-06
5.87031e-06
-2.22792e-06
5.83746e-06
-2.25587e-06
5.80107e-06
-2.27322e-06
5.76183e-06
-2.2814e-06
5.72036e-06
-2.28245e-06
5.67697e-06
-2.27691e-06
5.63187e-06
-2.2655e-06
5.58539e-06
-2.2495e-06
5.53787e-06
-2.23054e-06
5.48972e-06
-2.21048e-06
5.44138e-06
-2.19129e-06
5.39323e-06
-2.17501e-06
5.34573e-06
-2.1638e-06
5.29947e-06
-2.16002e-06
5.25514e-06
-2.16716e-06
5.21366e-06
-2.18742e-06
5.17626e-06
-2.22641e-06
5.14446e-06
-2.28182e-06
5.12016e-06
-2.36708e-06
5.10576e-06
-2.46172e-06
-2.59219e-06
5.10369e-06
1.75206e-07
1.18445e-06
1.01255e-06
1.08848e-06
2.00193e-06
1.2021e-06
2.93787e-06
8.18605e-07
3.69091e-06
4.78415e-07
4.26422e-06
2.789e-07
4.70479e-06
1.34127e-07
5.05096e-06
1.02615e-08
5.32565e-06
-9.53185e-08
5.54698e-06
-1.9011e-07
5.72729e-06
-2.72676e-07
5.87613e-06
-3.43247e-07
6.00182e-06
-4.01203e-07
6.14118e-06
-6.03271e-07
6.26188e-06
-7.25918e-07
6.36221e-06
-8.48701e-07
6.44365e-06
-9.74509e-07
6.50772e-06
-1.1021e-06
6.55566e-06
-1.23016e-06
6.58875e-06
-1.35585e-06
6.6084e-06
-1.47716e-06
6.61596e-06
-1.59272e-06
6.6127e-06
-1.70094e-06
6.60001e-06
-1.80046e-06
6.5789e-06
-1.89046e-06
6.55e-06
-1.97036e-06
6.51422e-06
-2.03934e-06
6.47281e-06
-2.09679e-06
6.42689e-06
-2.14302e-06
6.3774e-06
-2.17843e-06
6.32511e-06
-2.20358e-06
6.2706e-06
-2.21871e-06
6.21434e-06
-2.22514e-06
6.15668e-06
-2.2248e-06
6.09787e-06
-2.2181e-06
6.03816e-06
-2.2058e-06
5.97788e-06
-2.18922e-06
5.91736e-06
-2.17002e-06
5.85697e-06
-2.15009e-06
5.79709e-06
-2.1314e-06
5.73803e-06
-2.11595e-06
5.68021e-06
-2.10598e-06
5.62419e-06
-2.104e-06
5.57065e-06
-2.11362e-06
5.52052e-06
-2.13729e-06
5.47499e-06
-2.18087e-06
5.4357e-06
-2.24253e-06
5.40446e-06
-2.33584e-06
5.38405e-06
-2.44132e-06
-2.58427e-06
5.37612e-06
1.41922e-06
-2.34777e-07
2.6562e-06
-1.48489e-07
3.82984e-06
2.84574e-08
4.71777e-06
-6.93274e-08
5.35412e-06
-1.5794e-07
5.80947e-06
-1.76448e-07
6.14652e-06
-2.02918e-07
6.40074e-06
-2.43962e-07
6.59804e-06
-2.92614e-07
6.7503e-06
-3.42369e-07
6.868e-06
-3.90376e-07
6.9596e-06
-4.34848e-07
7.03107e-06
-4.7268e-07
7.10404e-06
-6.7624e-07
7.16265e-06
-7.84522e-07
7.20821e-06
-8.94269e-07
7.2427e-06
-1.00899e-06
7.26449e-06
-1.1239e-06
7.2732e-06
-1.23887e-06
7.26957e-06
-1.35222e-06
7.25485e-06
-1.46244e-06
7.2304e-06
-1.56827e-06
7.19748e-06
-1.66801e-06
7.15735e-06
-1.76033e-06
7.11102e-06
-1.84413e-06
7.05918e-06
-1.91852e-06
7.00261e-06
-1.98277e-06
6.94238e-06
-2.03656e-06
6.8794e-06
-2.08005e-06
6.81441e-06
-2.11343e-06
6.74796e-06
-2.13713e-06
6.68046e-06
-2.15121e-06
6.61203e-06
-2.1567e-06
6.54274e-06
-2.15551e-06
6.47291e-06
-2.14826e-06
6.40286e-06
-2.13575e-06
6.33289e-06
-2.11926e-06
6.2633e-06
-2.10042e-06
6.19435e-06
-2.08115e-06
6.1263e-06
-2.06336e-06
6.05944e-06
-2.04909e-06
5.99414e-06
-2.04068e-06
5.93096e-06
-2.04082e-06
5.87054e-06
-2.0532e-06
5.81386e-06
-2.08061e-06
5.76201e-06
-2.12903e-06
5.71687e-06
-2.19739e-06
5.67997e-06
-2.29894e-06
5.65463e-06
-2.41598e-06
-2.57118e-06
5.64155e-06
4.95747e-05
7.93682e-07
4.85534e-05
8.7286e-07
4.75717e-05
1.01014e-06
4.6469e-05
1.03337e-06
4.53491e-05
9.61959e-07
4.4318e-05
8.54621e-07
4.33731e-05
7.42067e-07
4.24982e-05
6.30896e-07
4.16833e-05
5.22319e-07
4.0923e-05
4.17895e-07
4.0213e-05
3.19576e-07
3.95491e-05
2.2907e-07
3.89304e-05
1.46049e-07
3.81756e-05
7.85458e-08
3.74302e-05
-3.91141e-08
3.66827e-05
-1.46764e-07
3.59412e-05
-2.67475e-07
3.52074e-05
-3.90107e-07
3.44817e-05
-5.13215e-07
3.37649e-05
-6.35364e-07
3.30569e-05
-7.54507e-07
3.23576e-05
-8.68968e-07
3.16668e-05
-9.77176e-07
3.09843e-05
-1.07783e-06
3.03102e-05
-1.17008e-06
2.96451e-05
-1.25334e-06
2.89891e-05
-1.32675e-06
2.83421e-05
-1.38956e-06
2.77038e-05
-1.44178e-06
2.70739e-05
-1.48354e-06
2.64521e-05
-1.51535e-06
2.58383e-05
-1.53738e-06
2.52322e-05
-1.55065e-06
2.46331e-05
-1.55641e-06
2.40404e-05
-1.55555e-06
2.34543e-05
-1.54958e-06
2.28749e-05
-1.53993e-06
2.23024e-05
-1.52792e-06
2.17367e-05
-1.51544e-06
2.11778e-05
-1.50445e-06
2.06262e-05
-1.49753e-06
2.00828e-05
-1.49725e-06
1.9549e-05
-1.50704e-06
1.9026e-05
-1.53014e-06
1.85165e-05
-1.57115e-06
1.80224e-05
-1.63487e-06
1.75496e-05
-1.72465e-06
1.70989e-05
-1.84817e-06
1.66831e-05
-2.00021e-06
-2.18732e-06
1.62992e-05
2.05392e-05
6.26046e-07
2.07312e-05
6.80882e-07
2.09562e-05
7.85156e-07
2.11545e-05
8.35028e-07
2.13112e-05
8.05224e-07
2.14357e-05
7.3015e-07
2.1536e-05
6.41743e-07
2.16152e-05
5.51727e-07
2.16752e-05
4.62364e-07
2.17183e-05
3.748e-07
2.17472e-05
2.90635e-07
2.17647e-05
2.11588e-07
2.17713e-05
1.39412e-07
2.17626e-05
8.72489e-08
2.17259e-05
-2.37846e-09
2.16943e-05
-1.15179e-07
2.1644e-05
-2.17194e-07
2.15796e-05
-3.25718e-07
2.15028e-05
-4.36433e-07
2.14137e-05
-5.46229e-07
2.13129e-05
-6.53664e-07
2.12013e-05
-7.57386e-07
2.10801e-05
-8.55977e-07
2.09505e-05
-9.48245e-07
2.08137e-05
-1.03323e-06
2.06705e-05
-1.11022e-06
2.05223e-05
-1.17857e-06
2.03704e-05
-1.23764e-06
2.02159e-05
-1.28729e-06
2.006e-05
-1.32756e-06
1.99034e-05
-1.35884e-06
1.97475e-05
-1.38145e-06
1.95934e-05
-1.39657e-06
1.94425e-05
-1.40546e-06
1.92954e-05
-1.40851e-06
1.91525e-05
-1.40667e-06
1.90139e-05
-1.40131e-06
1.88797e-05
-1.39376e-06
1.87505e-05
-1.38616e-06
1.86262e-05
-1.38017e-06
1.85072e-05
-1.37849e-06
1.83934e-05
-1.38346e-06
1.82859e-05
-1.39952e-06
1.81849e-05
-1.42919e-06
1.80935e-05
-1.47975e-06
1.80126e-05
-1.55399e-06
1.79501e-05
-1.66217e-06
1.7908e-05
-1.80603e-06
1.79036e-05
-1.99581e-06
-2.22093e-06
1.79372e-05
2.05241e-05
4.71184e-07
2.06914e-05
5.13659e-07
2.08842e-05
5.92267e-07
2.1082e-05
6.37316e-07
2.12644e-05
6.22781e-07
2.14265e-05
5.68028e-07
2.15702e-05
4.98092e-07
2.16971e-05
4.24846e-07
2.18079e-05
3.5153e-07
2.19033e-05
2.79403e-07
2.19839e-05
2.10063e-07
2.205e-05
1.45492e-07
2.2103e-05
8.64049e-08
2.21578e-05
3.24322e-08
2.22061e-05
-5.06834e-08
2.22317e-05
-1.40788e-07
2.2248e-05
-2.33533e-07
2.22501e-05
-3.27753e-07
2.22376e-05
-4.23989e-07
2.22116e-05
-5.20174e-07
2.21725e-05
-6.14554e-07
2.21209e-05
-7.058e-07
2.20576e-05
-7.92689e-07
2.19835e-05
-8.74149e-07
2.18995e-05
-9.49266e-07
2.18066e-05
-1.01733e-06
2.17058e-05
-1.07776e-06
2.15983e-05
-1.13008e-06
2.1485e-05
-1.17406e-06
2.13672e-05
-1.20969e-06
2.12456e-05
-1.23726e-06
2.11213e-05
-1.25722e-06
2.09951e-05
-1.27034e-06
2.08673e-05
-1.27768e-06
2.07389e-05
-1.28005e-06
2.06104e-05
-1.27823e-06
2.04827e-05
-1.27354e-06
2.03561e-05
-1.2672e-06
2.02314e-05
-1.26147e-06
2.0109e-05
-1.25778e-06
1.99895e-05
-1.25893e-06
1.98724e-05
-1.26644e-06
1.97589e-05
-1.28598e-06
1.96483e-05
-1.31858e-06
1.95436e-05
-1.37509e-06
1.94442e-05
-1.45457e-06
1.93593e-05
-1.5773e-06
1.92885e-05
-1.73517e-06
1.92546e-05
-1.96194e-06
-2.21931e-06
1.9253e-05
2.05291e-05
3.15372e-07
2.0691e-05
3.51729e-07
2.08696e-05
4.13708e-07
2.10546e-05
4.52263e-07
2.12312e-05
4.46236e-07
2.13919e-05
4.07281e-07
2.15364e-05
3.53645e-07
2.16656e-05
2.95589e-07
2.17804e-05
2.36748e-07
2.18811e-05
1.78672e-07
2.19683e-05
1.2288e-07
2.20432e-05
7.06403e-08
2.21065e-05
2.30636e-08
2.2173e-05
-3.40109e-08
2.22291e-05
-1.06829e-07
2.22722e-05
-1.83927e-07
2.23033e-05
-2.6457e-07
2.23222e-05
-3.46691e-07
2.23283e-05
-4.30061e-07
2.23217e-05
-5.13559e-07
2.23028e-05
-5.95692e-07
2.22722e-05
-6.752e-07
2.22305e-05
-7.51026e-07
2.21786e-05
-8.22243e-07
2.21174e-05
-8.88047e-07
2.20479e-05
-9.47785e-07
2.19711e-05
-1.00095e-06
2.18881e-05
-1.04712e-06
2.18001e-05
-1.08608e-06
2.17083e-05
-1.11782e-06
2.16135e-05
-1.14253e-06
2.15169e-05
-1.16063e-06
2.14193e-05
-1.17267e-06
2.13211e-05
-1.17949e-06
2.12229e-05
-1.18192e-06
2.11254e-05
-1.18069e-06
2.10288e-05
-1.17697e-06
2.09335e-05
-1.17183e-06
2.08393e-05
-1.16733e-06
2.07461e-05
-1.1646e-06
2.06541e-05
-1.16694e-06
2.05626e-05
-1.1749e-06
2.04721e-05
-1.19544e-06
2.03809e-05
-1.22744e-06
2.02918e-05
-1.28594e-06
2.02019e-05
-1.36467e-06
2.01208e-05
-1.49624e-06
2.00446e-05
-1.65895e-06
1.99991e-05
-1.91647e-06
-2.19991e-06
1.99797e-05
2.05353e-05
1.56886e-07
2.06966e-05
1.90461e-07
2.08686e-05
2.41704e-07
2.1045e-05
2.75872e-07
2.12147e-05
2.76545e-07
2.13711e-05
2.50873e-07
2.15127e-05
2.12018e-07
2.164e-05
1.68309e-07
2.17535e-05
1.2324e-07
2.18537e-05
7.85029e-08
2.1941e-05
3.55089e-08
2.20164e-05
-4.67267e-09
2.20805e-05
-4.10493e-08
2.21496e-05
-1.03119e-07
2.22082e-05
-1.65412e-07
2.22556e-05
-2.31326e-07
2.22912e-05
-3.00171e-07
2.2315e-05
-3.70526e-07
2.23267e-05
-4.41756e-07
2.23262e-05
-5.13088e-07
2.23139e-05
-5.83373e-07
2.22902e-05
-6.51496e-07
2.22557e-05
-7.16551e-07
2.22112e-05
-7.77748e-07
2.21576e-05
-8.34414e-07
2.20958e-05
-8.85967e-07
2.20268e-05
-9.31975e-07
2.19518e-05
-9.72084e-07
2.18718e-05
-1.00611e-06
2.1788e-05
-1.03403e-06
2.17015e-05
-1.056e-06
2.16132e-05
-1.07233e-06
2.1524e-05
-1.08352e-06
2.14347e-05
-1.09016e-06
2.13459e-05
-1.09306e-06
2.1258e-05
-1.09279e-06
2.11715e-05
-1.09049e-06
2.10866e-05
-1.08691e-06
2.10033e-05
-1.08407e-06
2.09213e-05
-1.08257e-06
2.08405e-05
-1.08616e-06
2.07598e-05
-1.09422e-06
2.06795e-05
-1.11509e-06
2.05969e-05
-1.14488e-06
2.05143e-05
-1.20332e-06
2.04268e-05
-1.27721e-06
2.03443e-05
-1.41374e-06
2.02593e-05
-1.5739e-06
2.02033e-05
-1.86043e-06
-2.16314e-06
2.01665e-05
2.0541e-05
-3.79799e-09
2.07022e-05
2.92849e-08
2.08699e-05
7.4022e-08
2.104e-05
1.05806e-07
2.12042e-05
1.12331e-07
2.13569e-05
9.81853e-08
2.1496e-05
7.28679e-08
2.16215e-05
4.28615e-08
2.17336e-05
1.11119e-08
2.18328e-05
-2.06953e-08
2.19196e-05
-5.12586e-08
2.19946e-05
-7.97154e-08
2.20588e-05
-1.05245e-07
2.21286e-05
-1.72926e-07
2.21884e-05
-2.25158e-07
2.22373e-05
-2.80309e-07
2.22749e-05
-3.37717e-07
2.23008e-05
-3.96437e-07
2.23149e-05
-4.55833e-07
2.23171e-05
-5.15307e-07
2.23077e-05
-5.73958e-07
2.2287e-05
-6.30845e-07
2.22557e-05
-6.85224e-07
2.22144e-05
-7.36439e-07
2.21639e-05
-7.83954e-07
2.21052e-05
-8.27263e-07
2.20393e-05
-8.66027e-07
2.19671e-05
-8.99932e-07
2.18899e-05
-9.28869e-07
2.18086e-05
-9.52758e-07
2.17244e-05
-9.71785e-07
2.16382e-05
-9.8612e-07
2.15509e-05
-9.9624e-07
2.14633e-05
-1.00252e-06
2.13759e-05
-1.00573e-06
2.12894e-05
-1.00623e-06
2.1204e-05
-1.00518e-06
2.112e-05
-1.0029e-06
2.10375e-05
-1.00154e-06
2.09559e-05
-1.00095e-06
2.08751e-05
-1.00541e-06
2.07938e-05
-1.01283e-06
2.07119e-05
-1.03321e-06
2.0626e-05
-1.05898e-06
2.05381e-05
-1.11548e-06
2.04409e-05
-1.17998e-06
2.03453e-05
-1.31817e-06
2.02378e-05
-1.46636e-06
2.0161e-05
-1.78366e-06
-2.09073e-06
2.00886e-05
2.5514e-05
-3.7186e-08
2.55545e-05
-1.1237e-08
2.56072e-05
2.13081e-08
2.56682e-05
4.47647e-08
2.57298e-05
5.08127e-08
2.57857e-05
4.21984e-08
2.58333e-05
2.53352e-08
2.58712e-05
4.96037e-09
2.58997e-05
-1.73828e-08
2.59187e-05
-3.97127e-08
2.59287e-05
-6.12659e-08
2.59303e-05
-8.13513e-08
2.59243e-05
-9.92344e-08
2.5906e-05
-1.54632e-07
2.58755e-05
-1.94684e-07
2.58319e-05
-2.36635e-07
2.57744e-05
-2.80272e-07
2.57029e-05
-3.24937e-07
2.56174e-05
-3.70312e-07
2.5518e-05
-4.15939e-07
2.54052e-05
-4.61075e-07
2.52793e-05
-5.04997e-07
2.51412e-05
-5.47156e-07
2.49918e-05
-5.87042e-07
2.48321e-05
-6.24245e-07
2.46632e-05
-6.58349e-07
2.44863e-05
-6.89091e-07
2.43026e-05
-7.16199e-07
2.41133e-05
-7.39595e-07
2.39197e-05
-7.59164e-07
2.3723e-05
-7.75052e-07
2.35241e-05
-7.87312e-07
2.33242e-05
-7.96343e-07
2.3124e-05
-8.02319e-07
2.29242e-05
-8.0592e-07
2.27253e-05
-8.07283e-07
2.25276e-05
-8.07509e-07
2.23313e-05
-8.06537e-07
2.21363e-05
-8.06551e-07
2.1942e-05
-8.06641e-07
2.17481e-05
-8.11597e-07
2.15529e-05
-8.17604e-07
2.13563e-05
-8.36578e-07
2.11536e-05
-8.56305e-07
2.09469e-05
-9.08771e-07
2.07252e-05
-9.58253e-07
2.05007e-05
-1.09366e-06
2.02498e-05
-1.21553e-06
2.00326e-05
-1.56637e-06
-1.84996e-06
1.97918e-05
2.53031e-05
1.46813e-07
2.51355e-05
1.5631e-07
2.49875e-05
1.6936e-07
2.4856e-05
1.76205e-07
2.47349e-05
1.71952e-07