/*--------------------------------*- C++ -*----------------------------------*\
| =========                 |                                                 |
| \\      /  F ield         | OpenFOAM: The Open Source CFD Toolbox           |
|  \\    /   O peration     | Version:  2112                                  |
|   \\  /    A nd           | Website:  www.openfoam.com                      |
|    \\/     M anipulation  |                                                 |
\*---------------------------------------------------------------------------*/
FoamFile
{
    version     2.0;
    format      ascii;
    arch        "LSB;label=32;scalar=64";
    class       surfaceScalarField;
    location    "0.039";
    object      phi;
}
// * * * * * * * * * * * * * * * * * * * * * * * * * * * * * * * * * * * * * //

dimensions      [0 3 -1 0 0 0 0];

oriented        oriented;

internalField   nonuniform List<scalar> 
24170
(
3.03947e-06
9.17008e-08
2.93757e-06
1.01896e-07
2.82858e-06
1.08989e-07
2.73719e-06
9.13942e-08
2.65736e-06
7.98272e-08
2.5704e-06
8.69613e-08
2.4612e-06
1.09197e-07
2.33181e-06
1.29394e-07
2.19788e-06
1.33925e-07
2.07272e-06
1.25159e-07
1.95738e-06
1.15339e-07
1.83576e-06
1.2162e-07
1.68855e-06
1.47213e-07
1.48728e-06
2.01273e-07
1.22247e-06
2.64804e-07
8.7735e-07
3.45124e-07
4.25171e-07
4.52179e-07
5.42722e-07
-1.17551e-07
3.48611e-06
-1.31368e-08
3.44751e-06
1.40498e-07
3.40835e-06
1.48149e-07
3.39815e-06
1.01589e-07
3.39871e-06
7.92645e-08
3.39482e-06
9.08557e-08
3.3834e-06
1.20612e-07
3.36437e-06
1.48426e-07
3.33171e-06
1.6659e-07
3.28011e-06
1.76755e-07
3.20409e-06
1.91362e-07
3.11012e-06
2.15583e-07
2.99766e-06
2.59675e-07
2.87404e-06
3.24898e-07
2.72168e-06
4.17164e-07
2.53725e-06
5.2955e-07
2.31958e-06
6.6985e-07
7.78012e-07
2.08429e-06
3.62971e-06
4.17913e-08
3.62649e-06
1.4371e-07
3.64113e-06
1.33514e-07
3.66202e-06
8.06955e-08
3.66885e-06
7.24431e-08
3.65573e-06
1.0397e-07
3.63655e-06
1.39791e-07
3.62539e-06
1.59592e-07
3.62057e-06
1.71407e-07
3.61158e-06
1.85747e-07
3.58635e-06
2.16594e-07
3.54285e-06
2.59077e-07
3.48142e-06
3.21105e-07
3.41273e-06
3.93588e-07
3.34236e-06
4.87532e-07
3.27906e-06
5.92848e-07
3.25134e-06
6.97579e-07
8.02992e-07
3.22636e-06
3.96419e-06
2.59894e-08
3.94147e-06
1.66433e-07
3.92646e-06
1.48528e-07
3.93023e-06
7.69246e-08
3.92866e-06
7.40148e-08
3.91237e-06
1.20256e-07
3.88692e-06
1.65242e-07
3.85986e-06
1.8665e-07
3.83388e-06
1.97387e-07
3.80636e-06
2.1327e-07
3.77521e-06
2.47743e-07
3.73903e-06
2.95262e-07
3.70134e-06
3.58789e-07
3.6633e-06
4.31626e-07
3.63492e-06
5.15914e-07
3.62119e-06
6.06578e-07
3.6334e-06
6.85376e-07
7.61251e-07
3.67514e-06
4.22358e-06
1.4151e-08
4.23069e-06
1.59319e-07
4.25401e-06
1.25207e-07
4.25612e-06
7.48117e-08
4.22587e-06
1.04264e-07
4.18275e-06
1.63376e-07
4.14534e-06
2.02651e-07
4.11612e-06
2.15876e-07
4.08888e-06
2.24629e-07
4.05867e-06
2.43478e-07
4.02874e-06
2.7767e-07
4.0029e-06
3.21104e-07
3.98694e-06
3.74745e-07
3.97948e-06
4.39085e-07
3.98189e-06
5.13507e-07
3.99202e-06
5.96451e-07
4.00577e-06
6.71621e-07
7.34106e-07
4.03292e-06
4.49295e-06
5.22464e-08
4.47882e-06
1.73455e-07
4.47983e-06
1.24193e-07
4.46881e-06
8.58307e-08
4.45365e-06
1.19422e-07
4.44391e-06
1.73118e-07
4.44218e-06
2.0438e-07
4.44456e-06
2.13498e-07
4.44457e-06
2.24615e-07
4.43593e-06
2.52127e-07
4.41695e-06
2.96648e-07
4.38774e-06
3.50314e-07
4.3537e-06
4.08778e-07
4.32121e-06
4.71583e-07
4.29785e-06
5.36861e-07
4.28834e-06
6.05967e-07
4.28962e-06
6.70338e-07
7.21901e-07
4.30182e-06
4.81995e-06
1.75433e-07
4.84912e-06
1.44286e-07
4.90975e-06
6.35679e-08
4.89472e-06
1.00862e-07
4.81725e-06
1.9689e-07
4.73345e-06
2.56914e-07
4.68025e-06
2.57579e-07
4.66156e-06
2.3219e-07
4.66463e-06
2.21543e-07
4.67377e-06
2.4299e-07
4.67726e-06
2.93155e-07
4.66734e-06
3.60233e-07
4.64297e-06
4.33145e-07
4.6088e-06
5.05758e-07
4.57327e-06
5.72386e-07
4.54631e-06
6.32936e-07
4.53227e-06
6.84376e-07
7.24735e-07
4.52943e-06
5.1098e-06
2.08349e-07
5.12062e-06
1.33465e-07
5.13117e-06
5.30196e-08
5.15484e-06
7.71898e-08
5.18283e-06
1.68894e-07
5.19278e-06
2.46968e-07
5.18033e-06
2.70028e-07
5.15755e-06
2.54972e-07
5.13548e-06
2.4361e-07
5.11624e-06
2.6223e-07
5.09693e-06
3.1247e-07
5.07465e-06
3.82513e-07
5.04931e-06
4.58478e-07
5.02296e-06
5.32109e-07
4.99678e-06
5.98569e-07
4.97268e-06
6.57035e-07
4.95021e-06
7.06849e-07
7.47283e-07
4.92766e-06
5.52014e-06
1.42009e-07
5.54695e-06
1.06653e-07
5.54024e-06
5.97305e-08
5.50642e-06
1.11011e-07
5.48152e-06
1.93796e-07
5.47029e-06
2.58191e-07
5.46591e-06
2.74414e-07
5.46434e-06
2.56539e-07
5.46386e-06
2.44093e-07
5.46123e-06
2.64856e-07
5.45241e-06
3.21291e-07
5.43613e-06
3.98795e-07
5.41517e-06
4.79432e-07
5.39547e-06
5.51814e-07
5.38098e-06
6.13057e-07
5.37276e-06
6.65258e-07
5.36772e-06
7.11891e-07
7.55041e-07
5.35996e-06
5.89999e-06
3.65094e-08
5.93565e-06
7.09944e-08
5.88206e-06
1.13316e-07
5.84337e-06
1.49707e-07
5.84384e-06
1.9332e-07
5.87066e-06
2.31374e-07
5.90276e-06
2.42313e-07
5.91943e-06
2.39875e-07
5.90987e-06
2.53645e-07
5.87791e-06
2.96815e-07
5.83626e-06
3.62948e-07
5.79756e-06
4.37496e-07
5.76937e-06
5.07617e-07
5.75425e-06
5.66936e-07
5.75173e-06
6.15575e-07
5.75849e-06
6.58503e-07
5.77121e-06
6.99164e-07
7.42697e-07
5.78356e-06
6.23548e-06
-1.03729e-07
6.29769e-06
8.78704e-09
6.29634e-06
1.1467e-07
6.30148e-06
1.44562e-07
6.33524e-06
1.59558e-07
6.37995e-06
1.86665e-07
6.40579e-06
2.16478e-07
6.39593e-06
2.49731e-07
6.35568e-06
2.93898e-07
6.30314e-06
3.49357e-07
6.2556e-06
4.1048e-07
6.22142e-06
4.71684e-07
6.20047e-06
5.28565e-07
6.18695e-06
5.80449e-07
6.17589e-06
6.2664e-07
6.16459e-06
6.69808e-07
6.15406e-06
7.09689e-07
7.48227e-07
6.14853e-06
5.61252e-06
-1.5799e-07
5.64871e-06
-2.74108e-08
5.69143e-06
7.19551e-08
5.73687e-06
9.91229e-08
5.76715e-06
1.2927e-07
5.77656e-06
1.77255e-07
5.76447e-06
2.28575e-07
5.73712e-06
2.77079e-07
5.70477e-06
3.26244e-07
5.67605e-06
3.78082e-07
5.65611e-06
4.30422e-07
5.64682e-06
4.80971e-07
5.64755e-06
5.27835e-07
5.65557e-06
5.7243e-07
5.66562e-06
6.16586e-07
5.67328e-06
6.62149e-07
5.67327e-06
7.09705e-07
7.58138e-07
5.66335e-06
6.97261e-06
-1.26225e-07
6.99077e-06
-4.5569e-08
6.9813e-06
8.14274e-08
6.94397e-06
1.36454e-07
6.9292e-06
1.44039e-07
6.94693e-06
1.59525e-07
6.96915e-06
2.06355e-07
6.96625e-06
2.79975e-07
6.93421e-06
3.58284e-07
6.88912e-06
4.23176e-07
6.84909e-06
4.70449e-07
6.82396e-06
5.06099e-07
6.8149e-06
5.36896e-07
6.81987e-06
5.67461e-07
6.83649e-06
5.99969e-07
6.86178e-06
6.36858e-07
6.89327e-06
6.78214e-07
7.26765e-07
6.92464e-06
8.42102e-06
-1.65346e-07
8.40223e-06
-2.67699e-08
8.39203e-06
9.16249e-08
8.41463e-06
1.13848e-07
8.44109e-06
1.1758e-07
8.4582e-06
1.42423e-07
8.46247e-06
2.02082e-07
8.45831e-06
2.84132e-07
8.45184e-06
3.64753e-07
8.44717e-06
4.27847e-07
8.44595e-06
4.71672e-07
8.44733e-06
5.04717e-07
8.44853e-06
5.35699e-07
8.44481e-06
5.7118e-07
8.43498e-06
6.09802e-07
8.4208e-06
6.51035e-07
8.40906e-06
6.89954e-07
7.28835e-07
8.40699e-06
1.01956e-05
5.31257e-08
1.0071e-05
9.78117e-08
1.00896e-05
7.30095e-08
1.02118e-05
-8.34799e-09
1.03657e-05
-3.62731e-08
1.04769e-05
3.11608e-08
1.05126e-05
1.66454e-07
1.04863e-05
3.10351e-07
1.0431e-05
4.20074e-07
1.03734e-05
4.85473e-07
1.03278e-05
5.17297e-07
1.02997e-05
5.32829e-07
1.02901e-05
5.4521e-07
1.02968e-05
5.64545e-07
1.03146e-05
5.91931e-07
1.03383e-05
6.2734e-07
1.03634e-05
6.64906e-07
7.03316e-07
1.03889e-05
1.27903e-05
8.21761e-08
1.2675e-05
2.1308e-07
1.26322e-05
1.15829e-07
1.26198e-05
4.04254e-09
1.25823e-05
1.20321e-09
1.25227e-05
9.08184e-08
1.24732e-05
2.15899e-07
1.24591e-05
3.24494e-07
1.24867e-05
3.92473e-07
1.25412e-05
4.30928e-07
1.25985e-05
4.60003e-07
1.26395e-05
4.91831e-07
1.26581e-05
5.2662e-07
1.26611e-05
5.61539e-07
1.2661e-05
5.92021e-07
1.26695e-05
6.18926e-07
1.2694e-05
6.40386e-07
6.61156e-07
1.27361e-05
1.50588e-05
-6.42506e-08
1.52859e-05
-1.39578e-08
1.54625e-05
-6.08419e-08
1.55241e-05
-5.7511e-08
1.5465e-05
6.03058e-08
1.53405e-05
2.15293e-07
1.52286e-05
3.27774e-07
1.51855e-05
3.67604e-07
1.52178e-05
3.60154e-07
1.52997e-05
3.49031e-07
1.54001e-05
3.59604e-07
1.54991e-05
3.92852e-07
1.55894e-05
4.36288e-07
1.56721e-05
4.78855e-07
1.57497e-05
5.14449e-07
1.58253e-05
5.4336e-07
1.58992e-05
5.66408e-07
5.86535e-07
1.59739e-05
1.87629e-05
-1.20689e-07
1.88204e-05
-7.14309e-08
1.88135e-05
-5.39702e-08
1.87845e-05
-2.84774e-08
1.88109e-05
3.38976e-08
1.89082e-05
1.17965e-07
1.90435e-05
1.92488e-07
1.91753e-05
2.35769e-07
1.92774e-05
2.58051e-07
1.93463e-05
2.80187e-07
1.93927e-05
3.13124e-07
1.94306e-05
3.55044e-07
1.94696e-05
3.97238e-07
1.95148e-05
4.33649e-07
1.9566e-05
4.63247e-07
1.96209e-05
4.88465e-07
1.96762e-05
5.11149e-07
5.33595e-07
1.97291e-05
2.32862e-05
-1.75223e-07
2.32335e-05
-1.86659e-08
2.31387e-05
4.07351e-08
2.30818e-05
2.84871e-08
2.30786e-05
3.70784e-08
2.30926e-05
1.03982e-07
2.31018e-05
1.83321e-07
2.31066e-05
2.30921e-07
2.31247e-05
2.39931e-07
2.31724e-05
2.32534e-07
2.32518e-05
2.33732e-07
2.33522e-05
2.54656e-07
2.34584e-05
2.91034e-07
2.356e-05
3.32013e-07
2.36571e-05
3.66138e-07
2.37556e-05
3.89996e-07
2.38657e-05
4.0104e-07
4.04421e-07
2.39949e-05
1.72938e-05
1.09292e-07
1.71407e-05
1.3444e-07
1.70346e-05
1.46907e-07
1.6956e-05
1.07056e-07
1.69154e-05
7.76454e-08
1.6924e-05
9.53716e-08
1.69661e-05
1.41297e-07
1.70119e-05
1.85061e-07
1.70403e-05
2.11529e-07
1.70465e-05
2.26342e-07
1.70389e-05
2.41385e-07
1.70324e-05
2.61079e-07
1.70424e-05
2.81048e-07
1.70786e-05
2.95787e-07
1.7145e-05
2.99834e-07
1.72399e-05
2.95055e-07
1.73585e-05
2.82397e-07
2.69375e-07
1.74936e-05
1.48463e-05
2.65107e-07
1.46811e-05
2.99582e-07
1.46183e-05
2.09754e-07
1.45644e-05
1.60909e-07
1.45262e-05
1.15842e-07
1.45488e-05
7.28333e-08
1.46324e-05
5.76122e-08
1.47338e-05
8.37509e-08
1.48085e-05
1.36755e-07
1.48435e-05
1.91391e-07
1.48539e-05
2.31005e-07
1.48635e-05
2.51403e-07
1.48896e-05
2.55034e-07
1.49366e-05
2.48722e-07
1.49983e-05
2.38113e-07
1.50658e-05
2.27566e-07
1.51298e-05
2.18446e-07
2.10476e-07
1.51887e-05
1.27117e-05
3.61153e-07
1.27892e-05
2.22077e-07
1.28795e-05
1.19461e-07
1.2931e-05
1.09434e-07
1.29467e-05
1.00174e-07
1.29457e-05
7.3832e-08
1.29502e-05
5.31028e-08
1.29738e-05
6.0094e-08
1.30158e-05
9.47739e-08
1.30679e-05
1.39291e-07
1.31239e-05
1.74999e-07
1.31813e-05
1.94008e-07
1.32393e-05
1.97058e-07
1.32981e-05
1.89944e-07
1.33565e-05
1.79667e-07
1.34124e-05
1.71666e-07
1.34627e-05
1.68135e-07
1.6978e-07
1.35034e-05
1.09192e-05
1.93659e-07
1.10652e-05
7.61129e-08
1.11315e-05
5.31592e-08
1.11413e-05
9.96576e-08
1.1151e-05
9.04515e-08
1.11745e-05
5.03614e-08
1.12021e-05
2.55213e-08
1.12155e-05
4.66487e-08
1.12106e-05
9.97189e-08
1.11967e-05
1.53151e-07
1.11882e-05
1.83456e-07
1.11968e-05
1.85413e-07
1.12273e-05
1.66559e-07
1.12785e-05
1.38785e-07
1.13461e-05
1.12044e-07
1.1425e-05
9.28315e-08
1.15111e-05
8.19497e-08
7.91507e-08
1.16018e-05
9.77645e-06
6.92256e-09
9.70158e-06
1.50978e-07
9.67657e-06
7.81716e-08
9.73125e-06
4.49787e-08
9.76581e-06
5.58899e-08
9.75994e-06
5.62268e-08
9.73442e-06
5.10458e-08
9.71824e-06
6.28327e-08
9.72632e-06
9.16327e-08
9.76064e-06
1.18837e-07
9.81449e-06
1.29606e-07
9.87659e-06
1.23309e-07
9.93573e-06
1.07421e-07
9.98472e-06
8.97977e-08
1.00215e-05
7.531e-08
1.00481e-05
6.62309e-08
1.00676e-05
6.23862e-08
6.36933e-08
1.00831e-05
8.43753e-06
-1.72357e-07
8.48527e-06
1.03235e-07
8.48583e-06
7.76177e-08
8.50714e-06
2.36616e-08
8.53691e-06
2.61229e-08
8.55449e-06
3.86505e-08
8.56483e-06
4.06972e-08
8.58483e-06
4.28422e-08
8.62357e-06
5.28839e-08
8.67604e-06
6.63744e-08
8.72882e-06
7.68183e-08
8.77048e-06
8.16573e-08
8.79674e-06
8.11532e-08
8.81e-06
7.65426e-08
8.816e-06
6.93106e-08
8.82064e-06
6.1593e-08
8.82809e-06
5.49365e-08
5.09096e-08
8.84087e-06
7.32241e-06
-1.29646e-07
7.40951e-06
1.61337e-08
7.41616e-06
7.09632e-08
7.37111e-06
6.8718e-08
7.33965e-06
5.75766e-08
7.34177e-06
3.65334e-08
7.37241e-06
1.00629e-08
7.42431e-06
-9.06359e-09
7.48796e-06
-1.07684e-08
7.55285e-06
1.48521e-09
7.60998e-06
1.96945e-08
7.65455e-06
3.70802e-08
7.68559e-06
5.01154e-08
7.70411e-06
5.80267e-08
7.7125e-06
6.09132e-08
7.71431e-06
5.97834e-08
7.71333e-06
5.59158e-08
5.09146e-08
7.71333e-06
6.30726e-06
-1.19675e-07
6.35973e-06
-3.63392e-08
6.43237e-06
-1.67842e-09
6.45529e-06
4.58054e-08
6.45063e-06
6.22361e-08
6.44732e-06
3.98419e-08
6.45342e-06
3.96444e-09
6.46364e-06
-1.92914e-08
6.48056e-06
-2.76819e-08
6.50669e-06
-2.46473e-08
6.54256e-06
-1.61791e-08
6.58551e-06
-5.86696e-09
6.63084e-06
4.78697e-09
6.67411e-06
1.47556e-08
6.7129e-06
2.21243e-08
6.74714e-06
2.55461e-08
6.77839e-06
2.46641e-08
2.10673e-08
6.80824e-06
5.38703e-06
-5.33379e-08
5.45934e-06
-1.08643e-07
5.51315e-06
-5.54859e-08
5.57494e-06
-1.59845e-08
5.64066e-06
-3.49228e-09
5.69652e-06
-1.60113e-08
5.73724e-06
-3.67563e-08
5.76484e-06
-4.68935e-08
5.78147e-06
-4.43074e-08
5.79101e-06
-3.41921e-08
5.79757e-06
-2.27373e-08
5.80428e-06
-1.25758e-08
5.81296e-06
-3.89399e-09
5.82475e-06
2.96319e-09
5.84025e-06
6.62484e-09
5.85977e-06
6.02373e-09
5.8832e-06
1.24159e-09
-3.95001e-09
5.90821e-06
4.94592e-06
-1.21441e-07
4.91343e-06
-7.6154e-08
4.88087e-06
-2.29278e-08
4.8885e-06
-2.36211e-08
4.93156e-06
-4.65433e-08
4.97749e-06
-6.19416e-08
5.0016e-06
-6.08666e-08
5.0035e-06
-4.87955e-08
4.99813e-06
-3.89392e-08
5.00178e-06
-3.7839e-08
5.02179e-06
-4.27475e-08
5.05603e-06
-4.68208e-08
5.09731e-06
-4.51671e-08
5.13785e-06
-3.75789e-08
5.17167e-06
-2.71942e-08
5.1955e-06
-1.78104e-08
5.20826e-06
-1.15203e-08
-8.48499e-09
5.2128e-06
4.13224e-06
4.05609e-06
4.03316e-06
4.00954e-06
3.963e-06
3.90105e-06
3.84019e-06
3.79139e-06
3.75245e-06
3.71461e-06
3.67187e-06
3.62505e-06
3.57988e-06
3.5423e-06
3.51511e-06
3.49729e-06
3.48577e-06
3.47729e-06
-4.65641e-07
4.65641e-07
-8.05432e-07
3.39791e-07
-9.64032e-07
1.586e-07
-9.32968e-07
-3.10642e-08
-7.20739e-07
-2.12229e-07
-3.15724e-07
-4.05015e-07
2.51171e-07
-5.66895e-07
9.2704e-07
-6.75868e-07
1.6497e-06
-7.22661e-07
2.36878e-06
-7.19076e-07
3.04875e-06
-6.79971e-07
3.66581e-06
-6.1706e-07
4.2049e-06
-5.39088e-07
4.65773e-06
-4.52838e-07
5.02001e-06
-3.62281e-07
5.29037e-06
-2.70355e-07
5.46794e-06
-1.7757e-07
5.55184e-06
-8.39013e-08
5.53987e-06
1.19691e-08
5.43724e-06
1.02627e-07
5.23819e-06
1.99057e-07
4.93674e-06
3.0145e-07
4.52945e-06
4.07289e-07
4.00592e-06
5.23528e-07
3.36935e-06
6.36575e-07
2.59253e-06
7.76815e-07
1.7128e-06
8.79728e-07
6.4518e-07
1.06762e-06
-2.93e-07
9.3818e-07
-9.88115e-07
6.95116e-07
-1.68732e-06
6.99207e-07
-2.32986e-06
6.4254e-07
-3.008e-06
6.78139e-07
-3.63364e-06
6.25636e-07
-3.99686e-06
3.63221e-07
-3.95552e-06
-4.13358e-08
-3.54931e-06
-4.06218e-07
-2.80882e-06
-7.40485e-07
-1.74183e-06
-1.06699e-06
-6.05947e-07
-1.13589e-06
2.21417e-07
-8.27364e-07
6.51648e-07
-4.30231e-07
7.05249e-07
-5.36006e-08
8.07853e-07
-1.02605e-07
1.31564e-06
-5.0779e-07
1.42948e-06
-1.13836e-07
1.4722e-06
-4.27205e-08
1.09206e-06
3.80144e-07
-2.2751e-07
1.31957e-06
-2.02516e-06
1.79765e-06
-3.72194e-06
1.69678e-06
-5.32122e-06
1.59928e-06
-6.78676e-06
1.46555e-06
-8.10806e-06
1.32129e-06
-9.27939e-06
1.17133e-06
-1.03018e-05
1.02241e-06
-1.11812e-05
8.79366e-07
-1.19248e-05
7.43616e-07
-1.25417e-05
6.16911e-07
-1.30409e-05
4.99179e-07
-1.34316e-05
3.90754e-07
-1.37225e-05
2.90867e-07
-1.39215e-05
1.99011e-07
-1.40363e-05
1.1476e-07
-1.40746e-05
3.83356e-08
-1.40475e-05
-2.71156e-08
-1.39646e-05
-8.28448e-08
-1.38315e-05
-1.3311e-07
-1.36545e-05
-1.76982e-07
-1.34398e-05
-2.14719e-07
-1.31933e-05
-2.46551e-07
-1.29208e-05
-2.72507e-07
-1.26278e-05
-2.92957e-07
-1.23199e-05
-3.07933e-07
-1.20019e-05
-3.17955e-07
-1.16786e-05
-3.23314e-07
-1.1354e-05
-3.24611e-07
-1.10316e-05
-3.22443e-07
-1.0714e-05
-3.17515e-07
-1.04034e-05
-3.1066e-07
-1.01007e-05
-3.02699e-07
-9.80612e-06
-2.94562e-07
-9.51893e-06
-2.87184e-07
-9.23741e-06
-2.81525e-07
-8.95889e-06
-2.78515e-07
-8.67992e-06
-2.78976e-07
-8.39637e-06
-2.83547e-07
-8.10384e-06
-2.92526e-07
-7.79808e-06
-3.05768e-07
-7.47542e-06
-3.22651e-07
-7.13333e-06
-3.42098e-07
-6.77063e-06
-3.62695e-07
-6.38769e-06
-3.8294e-07
-5.98621e-06
-4.01486e-07
-5.56889e-06
-4.1732e-07
-5.13897e-06
-4.29918e-07
-4.69974e-06
-4.3923e-07
-4.25422e-06
-4.45517e-07
-3.80487e-06
-4.49347e-07
-3.35337e-06
-4.51503e-07
-2.90067e-06
-4.52701e-07
-2.44727e-06
-4.53403e-07
-1.99356e-06
-4.53705e-07
-1.54017e-06
-4.53395e-07
-1.08721e-06
-4.52954e-07
-6.35611e-07
-4.51602e-07
-1.85953e-07
-4.49658e-07
2.60208e-07
-4.4616e-07
7.01275e-07
-4.41067e-07
1.13461e-06
-4.3334e-07
1.55706e-06
-4.22446e-07
1.96495e-06
-4.0789e-07
2.35442e-06
-3.89475e-07
2.72182e-06
-3.67396e-07
3.06397e-06
-3.42149e-07
3.37825e-06
-3.14285e-07
3.66242e-06
-2.84164e-07
3.91429e-06
-2.51867e-07
4.13164e-06
-2.17358e-07
4.31244e-06
-1.80801e-07
4.45551e-06
-1.43071e-07
4.56107e-06
-1.05556e-07
4.63099e-06
-6.99231e-08
4.66914e-06
-3.81467e-08
4.6798e-06
-1.06611e-08
4.66819e-06
1.16151e-08
4.64215e-06
2.60403e-08
4.60929e-06
3.28531e-08
4.57488e-06
3.44099e-08
4.54197e-06
3.29089e-08
4.51169e-06
3.02845e-08
4.48315e-06
2.85405e-08
4.45396e-06
2.91914e-08
4.42108e-06
3.28768e-08
4.38226e-06
3.88168e-08
4.33699e-06
4.527e-08
4.28656e-06
5.04356e-08
4.23339e-06
5.31675e-08
4.18013e-06
5.32659e-08
4.12872e-06
5.14069e-08
4.08003e-06
4.86914e-08
4.03374e-06
4.62862e-08
3.98861e-06
4.51272e-08
3.94294e-06
4.56759e-08
3.89499e-06
4.79465e-08
3.84328e-06
5.17154e-08
3.78652e-06
5.67512e-08
3.72362e-06
6.29043e-08
3.65367e-06
6.99477e-08
3.57636e-06
7.73152e-08
3.49235e-06
8.40043e-08
3.40357e-06
8.878e-08
3.31299e-06
9.05863e-08
3.22403e-06
8.8959e-08
3.13985e-06
8.41758e-08
3.06266e-06
7.71959e-08
2.99343e-06
6.92233e-08
2.93216e-06
6.12732e-08
2.87819e-06
5.39715e-08
2.83062e-06
4.75723e-08
2.78852e-06
4.20953e-08
2.75107e-06
3.74547e-08
2.71748e-06
3.35833e-08
2.68708e-06
3.04066e-08
2.65913e-06
2.79481e-08
2.63302e-06
2.61111e-08
2.60799e-06
2.50301e-08
2.58355e-06
2.44407e-08
2.55874e-06
2.48014e-08
2.53336e-06
2.53807e-08
2.50573e-06
2.76325e-08
2.47633e-06
2.94002e-08
2.44139e-06
3.49451e-08
2.40343e-06
3.79542e-08
2.35283e-06
5.05987e-08
2.29841e-06
5.44198e-08
2.21329e-06
8.51204e-08
2.12619e-06
8.70985e-08
1.95795e-06
1.68246e-07
1.6162e-07
1.79633e-06
3.5885e-08
4.29756e-07
5.24651e-08
3.23211e-07
1.64758e-07
4.63064e-08
4.85016e-07
-3.51321e-07
1.0466e-06
-7.73813e-07
1.76455e-06
-1.12297e-06
2.55299e-06
-1.35533e-06
3.34332e-06
-1.4662e-06
4.09331e-06
-1.47265e-06
4.77392e-06
-1.39968e-06
5.38036e-06
-1.28641e-06
5.9078e-06
-1.1445e-06
6.35488e-06
-9.86166e-07
6.72209e-06
-8.20049e-07
7.01139e-06
-6.51578e-07
7.22509e-06
-4.84058e-07
7.3669e-06
-3.19379e-07
7.4418e-06
-1.58806e-07
7.46136e-06
-7.58682e-09
7.39484e-06
1.69148e-07
7.25464e-06
3.39259e-07
7.04098e-06
5.15107e-07
6.75188e-06
6.96387e-07
6.38067e-06
8.94741e-07
5.91871e-06
1.09854e-06
5.36646e-06
1.32906e-06
4.70114e-06
1.54504e-06
3.98544e-06
1.78333e-06
2.96805e-06
1.95557e-06
1.6409e-06
2.02227e-06
4.0553e-07
1.93458e-06
-6.14034e-07
1.6621e-06
-1.42411e-06
1.48822e-06
-2.02445e-06
1.22597e-06
-2.41219e-06
7.50965e-07
-2.55033e-06
9.68019e-08
-2.40937e-06
-5.47184e-07
-2.05045e-06
-1.0994e-06
-1.34993e-06
-1.76751e-06
-4.3828e-07
-2.04754e-06
2.55393e-07
-1.52104e-06
5.60144e-07
-7.34982e-07
7.85663e-07
-2.7912e-07
6.98553e-07
-1.5495e-08
-7.00682e-08
2.60831e-07
-1.65389e-06
1.46998e-06
-3.66186e-06
1.96525e-06
-5.4845e-06
2.20279e-06
-6.69736e-06
2.53243e-06
-7.61482e-06
2.71512e-06
-8.5628e-06
2.64475e-06
-9.44971e-06
2.48619e-06
-1.02518e-05
2.26765e-06
-1.09626e-05
2.03213e-06
-1.15869e-05
1.79559e-06
-1.21289e-05
1.56437e-06
-1.25949e-05
1.34536e-06
-1.29887e-05
1.13744e-06
-1.33148e-05
9.43084e-07
-1.35779e-05
7.62263e-07
-1.3781e-05
5.9382e-07
-1.39265e-05
4.36353e-07
-1.40173e-05
2.89824e-07
-1.40563e-05
1.53789e-07
-1.40461e-05
2.81339e-08
-1.39866e-05
-8.66551e-08
-1.38788e-05
-1.9064e-07
-1.37272e-05
-2.84737e-07
-1.35359e-05
-3.68236e-07
-1.33099e-05
-4.40704e-07
-1.30546e-05
-5.01852e-07
-1.27753e-05
-5.51793e-07
-1.24776e-05
-5.9074e-07
-1.21663e-05
-6.19202e-07
-1.18465e-05
-6.3779e-07
-1.15224e-05
-6.4734e-07
-1.11982e-05
-6.48869e-07
-1.0877e-05
-6.43581e-07
-1.05616e-05
-6.32919e-07
-1.02538e-05
-6.18467e-07
-9.95457e-06
-6.01945e-07
-9.66396e-06
-5.8517e-07
-9.38111e-06
-5.70037e-07
-9.10415e-06
-5.58489e-07
-8.83024e-06
-5.52418e-07
-8.55568e-06
-5.53538e-07
-8.27605e-06
-5.63182e-07
-7.98659e-06
-5.81986e-07
-7.68269e-06
-6.09664e-07
-7.36043e-06
-6.44909e-07
-7.0171e-06
-6.8543e-07
-6.65161e-06
-7.28188e-07
-6.26461e-06
-7.69939e-07
-5.85826e-06
-8.07836e-07
-5.4358e-06
-8.39779e-07
-5.001e-06
-8.64714e-07
-4.55757e-06
-8.82666e-07
-4.10875e-06
-8.94341e-07
-3.65706e-06
-9.01028e-07
-3.20414e-06
-9.04427e-07
-2.75082e-06
-9.06023e-07
-2.2975e-06
-9.06718e-07
-1.84457e-06
-9.06633e-07
-1.3922e-06
-9.05769e-07
-9.40862e-07
-9.04292e-07
-4.91244e-07
-9.0122e-07
-4.44112e-08
-8.96491e-07
4.0084e-07
-8.91412e-07
8.41083e-07
-8.8131e-07
1.27484e-06
-8.67097e-07
1.6997e-06
-8.47308e-07
2.11269e-06
-8.20877e-07
2.51058e-06
-7.87367e-07
2.89029e-06
-7.47108e-07
3.2492e-06
-7.01058e-07
3.5853e-06
-6.50376e-07
3.89704e-06
-5.95905e-07
4.18292e-06
-5.37747e-07
4.44065e-06
-4.75091e-07
4.66648e-06
-4.06632e-07
4.85527e-06
-3.31859e-07
5.00256e-06
-2.52843e-07
5.1074e-06
-1.74772e-07
5.17364e-06
-1.04378e-07
5.20989e-06
-4.69154e-08
5.22488e-06
-3.37583e-09
5.22445e-06
2.64677e-08
5.21275e-06
4.45584e-08
5.19482e-06
5.23325e-08
5.17583e-06
5.18995e-08
5.16015e-06
4.59726e-08
5.1508e-06
3.789e-08
5.14886e-06
3.11291e-08
5.15303e-06
2.87065e-08
5.15966e-06
3.21828e-08
5.16369e-06
4.124e-08
5.16043e-06
5.36958e-08
5.14716e-06
6.64395e-08
5.12379e-06
7.66324e-08
5.09249e-06
8.27126e-08
5.05663e-06
8.45524e-08
5.01973e-06
8.31825e-08
4.98466e-06
8.02005e-08
4.95322e-06
7.71095e-08
4.92624e-06
7.49287e-08
4.90381e-06
7.41511e-08
4.88559e-06
7.49701e-08
4.87097e-06
7.7519e-08
4.85905e-06
8.18722e-08
4.84857e-06
8.77899e-08
4.83813e-06
9.44458e-08
4.82648e-06
1.00437e-07
4.81276e-06
1.04303e-07
4.79658e-06
1.05135e-07
4.77803e-06
1.02734e-07
4.7574e-06
9.78172e-08
4.73508e-06
9.15513e-08
4.71134e-06
8.5013e-08
4.68642e-06
7.88911e-08
4.66054e-06
7.34494e-08
4.63395e-06
6.8688e-08
4.60693e-06
6.44755e-08
4.57977e-06
6.07443e-08
4.55277e-06
5.73975e-08
4.52618e-06
5.45406e-08
4.50024e-06
5.20508e-08
4.475e-06
5.0273e-08
4.45062e-06
4.88235e-08
4.42678e-06
4.86337e-08
4.40361e-06
4.8554e-08
4.3801e-06
5.11457e-08
4.35655e-06
5.29454e-08
4.33066e-06
6.08346e-08
4.30355e-06
6.50628e-08
4.26992e-06
8.42294e-08
4.23292e-06
9.14283e-08
4.18147e-06
1.36562e-07
4.12064e-06
1.47933e-07
4.03104e-06
2.57842e-07
2.83652e-07
3.90901e-06
1.88458e-07
2.41298e-07
3.99722e-07
1.11947e-07
9.71368e-07
-5.25339e-07
1.82824e-06
-1.20819e-06
2.78114e-06
-1.72671e-06
3.68403e-06
-2.02586e-06
4.47089e-06
-2.14219e-06
5.12757e-06
-2.12289e-06
5.66743e-06
-2.01251e-06
6.11421e-06
-1.84647e-06
6.47877e-06
-1.65097e-06
6.77602e-06
-1.44175e-06
7.01732e-06
-1.22746e-06
7.20979e-06
-1.01252e-06
7.3574e-06
-7.99189e-07
7.46214e-06
-5.88802e-07
7.52503e-06
-3.82266e-07
7.54721e-06
-1.80985e-07
7.52767e-06
1.1949e-08
7.47495e-06
2.21875e-07
7.38848e-06
4.25721e-07
7.26935e-06
6.34235e-07
7.11566e-06
8.50079e-07
6.9286e-06
1.0818e-06
6.69863e-06
1.32851e-06
6.42875e-06
1.59894e-06
6.09223e-06
1.88156e-06
5.70356e-06
2.172e-06
5.21346e-06
2.44567e-06
4.57826e-06
2.65746e-06
3.75907e-06
2.75377e-06
2.76766e-06
2.65352e-06
1.88807e-06
2.36781e-06
1.21443e-06
1.89961e-06
7.19327e-07
1.24606e-06
3.58831e-07
4.57298e-07
1.62587e-07
-3.5094e-07
1.24437e-07
-1.06125e-06
3.35984e-07
-1.97905e-06
4.741e-07
-2.18566e-06
3.274e-07
-1.37434e-06
-1.74312e-07
-2.33271e-07
-1.01261e-06
5.59183e-07
-2.68784e-06
1.65973e-06
-4.74688e-06
2.31987e-06
-5.97509e-06
2.6982e-06
-7.04332e-06
3.03347e-06
-8.02965e-06
3.18911e-06
-8.76187e-06
3.26465e-06
-9.23022e-06
3.18347e-06
-9.63675e-06
3.05129e-06
-1.00244e-05
2.87385e-06
-1.0423e-05
2.6662e-06
-1.08308e-05
2.43998e-06
-1.12402e-05
2.20495e-06
-1.16394e-05
1.96359e-06
-1.20155e-05
1.72146e-06
-1.23574e-05
1.47931e-06
-1.26557e-05
1.24144e-06
-1.2903e-05
1.00956e-06
-1.30953e-05
7.86108e-07
-1.32312e-05
5.72199e-07
-1.3311e-05
3.69688e-07
-1.33368e-05
1.79583e-07
-1.33072e-05
-1.48059e-09
-1.32326e-05
-1.61272e-07
-1.31126e-05
-3.10663e-07
-1.29518e-05
-4.45464e-07
-1.27555e-05
-5.64573e-07
-1.25285e-05
-6.67694e-07
-1.22758e-05
-7.5457e-07
-1.20023e-05
-8.25247e-07
-1.1713e-05
-8.80051e-07
-1.14126e-05
-9.19675e-07
-1.11053e-05
-9.45026e-07
-1.07953e-05
-9.57324e-07
-1.04862e-05
-9.58046e-07
-1.01808e-05
-9.48919e-07
-9.88174e-06
-9.31995e-07
-9.59064e-06
-9.09573e-07
-9.30845e-06
-8.8413e-07
-9.0353e-06
-8.58322e-07
-8.77039e-06
-8.34954e-07
-8.51189e-06
-8.1698e-07
-8.2569e-06
-8.07409e-07
-8.0014e-06
-8.09039e-07
-7.74045e-06
-8.24137e-07
-7.46859e-06
-8.53844e-07
-7.1804e-06
-8.97854e-07
-6.8712e-06
-9.54108e-07
-6.5378e-06
-1.01883e-06
-6.17906e-06
-1.08692e-06
-5.79616e-06
-1.15284e-06
-5.39218e-06
-1.21182e-06
-4.97152e-06
-1.26044e-06
-4.53913e-06
-1.2971e-06
-4.0996e-06
-1.3222e-06
-3.65661e-06
-1.33732e-06
-3.21282e-06
-1.34482e-06
-2.76975e-06
-1.3475e-06
-2.32805e-06
-1.34772e-06
-1.88792e-06
-1.34685e-06
-1.44977e-06
-1.34478e-06
-1.01382e-06
-1.34172e-06
-5.80715e-07
-1.3374e-06
-1.51627e-07
-1.33031e-06
2.73308e-07
-1.32143e-06
6.91021e-07
-1.30912e-06
1.10126e-06
-1.29155e-06
1.50159e-06
-1.26743e-06
1.88944e-06
-1.23516e-06
2.26243e-06
-1.19387e-06
2.619e-06
-1.14394e-06
2.95861e-06
-1.08672e-06
3.28136e-06
-1.02381e-06
3.58735e-06
-9.5637e-07
3.87639e-06
-8.8494e-07
4.14837e-06
-8.09729e-07
4.40387e-06
-7.3059e-07
4.64334e-06
-6.46104e-07
4.86413e-06
-5.52652e-07
5.0573e-06
-4.46009e-07
5.20896e-06
-3.26427e-07
5.30739e-06
-2.02814e-07
5.3515e-06
-9.10198e-08
5.35337e-06
-5.24837e-09
5.33104e-06
4.87969e-08
5.29891e-06
7.66881e-08
5.26566e-06
8.55816e-08
5.23525e-06
8.23153e-08
5.20978e-06
7.14361e-08
5.19155e-06
5.61213e-08
5.18365e-06
3.90324e-08
5.18866e-06
2.36964e-08
5.20614e-06
1.46998e-08
5.23048e-06
1.68954e-08
5.25197e-06
3.22148e-08
5.26063e-06
5.7773e-08
5.25088e-06
8.63817e-08
5.22343e-06
1.10166e-07
5.18381e-06
1.24173e-07
5.13905e-06
1.27939e-07
5.09498e-06
1.24276e-07
5.05513e-06
1.16959e-07
5.02106e-06
1.08993e-07
4.9932e-06
1.02015e-07
4.97158e-06
9.65911e-08
4.95625e-06
9.28513e-08
4.94718e-06
9.09397e-08
4.94399e-06
9.09764e-08
4.94572e-06
9.27145e-08
4.95083e-06
9.53288e-08
4.9575e-06
9.7636e-08
4.96402e-06
9.86129e-08
4.96905e-06
9.77086e-08
4.97164e-06
9.52188e-08
4.97124e-06
9.1959e-08
4.96754e-06
8.87072e-08
4.96052e-06
8.59083e-08
4.95036e-06
8.36107e-08
4.93739e-06
8.16624e-08
4.92204e-06
7.98265e-08
4.90476e-06
7.80266e-08
4.88599e-06
7.61613e-08
4.86612e-06
7.44141e-08
4.84552e-06
7.26472e-08
4.82449e-06
7.13053e-08
4.80338e-06
6.99299e-08
4.7824e-06
6.96202e-08
4.76182e-06
6.91341e-08
4.7417e-06
7.12616e-08
4.72201e-06
7.26371e-08
4.70269e-06
8.01548e-08
4.68276e-06
8.49964e-08
4.66286e-06
1.04124e-07
4.6391e-06
1.1519e-07
4.61627e-06
1.59393e-07
4.5808e-06
1.83402e-07
4.55523e-06
2.83414e-07
3.41198e-07
4.49768e-06
8.75858e-08
1.53712e-07
8.87418e-07
-6.87885e-07
2.10274e-06
-1.74066e-06
3.26687e-06
-2.37233e-06
4.17789e-06
-2.63772e-06
4.82011e-06
-2.66809e-06
5.23696e-06
-2.55903e-06
5.49584e-06
-2.38177e-06
5.6637e-06
-2.18037e-06
5.78819e-06
-1.97096e-06
5.89322e-06
-1.756e-06
5.98962e-06
-1.53815e-06
6.07844e-06
-1.31628e-06
6.15547e-06
-1.08955e-06
6.21497e-06
-8.58688e-07
6.25123e-06
-6.25065e-07
6.25854e-06
-3.8957e-07
6.23003e-06
-1.52481e-07
6.16391e-06
7.80684e-08
6.09376e-06
2.92027e-07
6.01388e-06
5.05598e-07
5.93188e-06
7.16234e-07
5.85666e-06
9.25299e-07
5.79699e-06
1.14147e-06
5.75277e-06
1.37274e-06
5.72361e-06
1.62809e-06
5.69414e-06
1.91104e-06
5.65377e-06
2.21237e-06
5.57863e-06
2.52081e-06
5.44553e-06
2.79056e-06
5.20406e-06
2.99525e-06
4.80868e-06
3.0489e-06
4.27303e-06
2.90345e-06
3.68048e-06
2.49216e-06
3.05671e-06
1.86983e-06
2.48261e-06
1.03141e-06
2.01461e-06
1.17054e-07
1.63085e-06
-6.77487e-07
1.37707e-06
-1.72527e-06
7.0046e-07
-1.50905e-06
-6.83158e-07
9.28127e-09
-2.36144e-06
1.44502e-06
-4.22023e-06
2.41797e-06
-5.55107e-06
2.99056e-06
-6.60294e-06
3.37175e-06
-7.44246e-06
3.53772e-06
-8.03195e-06
3.62296e-06
-8.46916e-06
3.62632e-06
-8.79106e-06
3.58655e-06
-9.07538e-06
3.4678e-06
-9.35337e-06
3.32927e-06
-9.65185e-06
3.17234e-06
-9.98084e-06
2.99518e-06
-1.03323e-05
2.7914e-06
-1.069e-05
2.56271e-06
-1.10384e-05
2.312e-06
-1.13631e-05
2.04614e-06
-1.16544e-05
1.77062e-06
-1.19041e-05
1.49115e-06
-1.21069e-05
1.21234e-06
-1.22598e-05
9.39012e-07
-1.23622e-05
6.74594e-07
-1.24141e-05
4.21566e-07
-1.24158e-05
1.81325e-07
-1.23748e-05
-4.25006e-08
-1.2284e-05
-2.52049e-07
-1.21519e-05
-4.42777e-07
-1.19827e-05
-6.14663e-07
-1.17805e-05
-7.66777e-07
-1.15504e-05
-8.97836e-07
-1.12976e-05
-1.0073e-06
-1.10279e-05
-1.09494e-06
-1.07468e-05
-1.1612e-06
-1.04592e-05
-1.20725e-06
-1.01697e-05
-1.23457e-06
-9.8819e-06
-1.2451e-06
-9.59882e-06
-1.24112e-06
-9.3226e-06
-1.22514e-06
-9.05464e-06
-1.19995e-06
-8.79561e-06
-1.16861e-06
-8.54555e-06
-1.13419e-06
-8.30395e-06
-1.09992e-06
-8.06973e-06
-1.06918e-06
-7.84106e-06
-1.04566e-06
-7.61504e-06
-1.03343e-06
-7.38751e-06
-1.03656e-06
-7.15309e-06
-1.05856e-06
-6.90536e-06
-1.10157e-06
-6.63774e-06
-1.16547e-06
-6.34448e-06
-1.24737e-06
-6.02166e-06
-1.34165e-06
-5.66801e-06
-1.44057e-06
-5.28538e-06
-1.53548e-06
-4.87842e-06
-1.61877e-06
-4.45355e-06
-1.68532e-06
-4.01762e-06
-1.73303e-06
-3.57653e-06
-1.76329e-06
-3.1345e-06
-1.77935e-06
-2.69416e-06
-1.78516e-06
-2.2566e-06
-1.78506e-06
-1.82145e-06
-1.78287e-06
-1.38789e-06
-1.7804e-06
-9.55327e-07
-1.77735e-06
-5.23404e-07
-1.77364e-06
-9.37374e-08
-1.76707e-06
3.34105e-07
-1.75815e-06
7.57961e-07
-1.74528e-06
1.17614e-06
-1.72731e-06
1.58615e-06
-1.70156e-06
1.98321e-06
-1.66448e-06
2.36028e-06
-1.61223e-06
2.70935e-06
-1.54294e-06
3.02458e-06
-1.45917e-06
3.30585e-06
-1.36798e-06
3.55933e-06
-1.27729e-06
3.79409e-06
-1.19113e-06
4.01704e-06
-1.10789e-06
4.23014e-06
-1.02283e-06
4.43204e-06
-9.32485e-07
4.62311e-06
-8.37175e-07
4.80888e-06
-7.38421e-07
4.99596e-06
-6.33097e-07