/*--------------------------------*- C++ -*----------------------------------*\
| =========                 |                                                 |
| \\      /  F ield         | OpenFOAM: The Open Source CFD Toolbox           |
|  \\    /   O peration     | Version:  2112                                  |
|   \\  /    A nd           | Website:  www.openfoam.com                      |
|    \\/     M anipulation  |                                                 |
\*---------------------------------------------------------------------------*/
FoamFile
{
    version     2.0;
    format      ascii;
    arch        "LSB;label=32;scalar=64";
    class       volVectorField;
    location    "0.039";
    object      U;
}
// * * * * * * * * * * * * * * * * * * * * * * * * * * * * * * * * * * * * * //

dimensions      [0 1 -1 0 0 0 0];

internalField   nonuniform List<vector> 
12225
(
(9.64459 0.0099772 0)
(9.38613 0.0461756 0)
(9.04081 0.0728118 0)
(8.72474 0.079219 0)
(8.46468 0.0648371 0)
(8.21366 0.0518207 0)
(7.90994 0.0502708 0)
(7.52457 0.0511232 0)
(7.09949 0.0426729 0)
(6.68513 0.029086 0)
(6.32218 0.0229126 0)
(5.95817 0.0388311 0)
(5.57302 0.0764747 0)
(5.03264 0.136927 0)
(4.35889 0.20135 0)
(3.39547 0.258311 0)
(2.29112 0.384656 0)
(0.453336 0.383671 0)
(10.2269 0.045095 0)
(10.1542 0.0921878 0)
(10.0088 0.0883658 0)
(9.95059 0.0544852 0)
(9.95139 0.0498534 0)
(9.94474 0.0765225 0)
(9.9198 0.119076 0)
(9.87327 0.160144 0)
(9.80937 0.187685 0)
(9.68431 0.198768 0)
(9.51656 0.200421 0)
(9.23935 0.208024 0)
(8.97869 0.232628 0)
(8.57541 0.29356 0)
(8.29717 0.387915 0)
(7.6888 0.527293 0)
(7.36167 0.700351 0)
(6.21841 0.922236 0)
(9.91212 -0.0157718 0)
(9.88047 0.0846222 0)
(9.90909 0.0994556 0)
(9.97953 0.0838046 0)
(10.0294 0.0696223 0)
(10.0095 0.068932 0)
(9.95011 0.0800633 0)
(9.90058 0.0935202 0)
(9.88934 0.10861 0)
(9.87537 0.126461 0)
(9.84767 0.159138 0)
(9.73833 0.207062 0)
(9.62092 0.282685 0)
(9.40342 0.375828 0)
(9.27498 0.503606 0)
(9.02947 0.653391 0)
(8.97492 0.840557 0)
(8.76848 1.04181 0)
(10.1117 0.0311351 0)
(10.0692 0.1165 0)
(9.99962 0.0981411 0)
(10.0106 0.0373116 0)
(10.0247 0.0368073 0)
(9.99637 0.0882944 0)
(9.93524 0.142489 0)
(9.86306 0.172321 0)
(9.79784 0.187827 0)
(9.73191 0.20645 0)
(9.66422 0.245106 0)
(9.57455 0.299646 0)
(9.48881 0.375773 0)
(9.38498 0.466168 0)
(9.31373 0.580975 0)
(9.24513 0.718426 0)
(9.23698 0.864194 0)
(9.27285 1.00782 0)
(10.0653 -0.00596284 0)
(10.0128 0.0861252 0)
(10.0834 0.0906014 0)
(10.1407 0.0670245 0)
(10.1003 0.0756882 0)
(9.99419 0.103795 0)
(9.88951 0.129947 0)
(9.81238 0.146353 0)
(9.75067 0.162835 0)
(9.68482 0.188902 0)
(9.61283 0.232701 0)
(9.54464 0.290633 0)
(9.49612 0.365924 0)
(9.47158 0.458809 0)
(9.46891 0.570486 0)
(9.4828 0.7021 0)
(9.50455 0.827097 0)
(9.53382 0.931913 0)
(9.99392 0.0283276 0)
(9.92494 0.137722 0)
(9.93984 0.0925492 0)
(9.93101 0.0440889 0)
(9.89575 0.0761828 0)
(9.86205 0.143394 0)
(9.84768 0.191621 0)
(9.85091 0.211852 0)
(9.85823 0.225881 0)
(9.85336 0.250502 0)
(9.82523 0.290538 0)
(9.77249 0.341084 0)
(9.70035 0.402753 0)
(9.62453 0.479772 0)
(9.55818 0.575397 0)
(9.51914 0.690773 0)
(9.50502 0.810081 0)
(9.51405 0.913762 0)
(10.04 0.0398191 0)
(9.94028 0.0783392 0)
(10.1134 0.0662579 0)
(10.1919 0.0769335 0)
(10.0713 0.108322 0)
(9.87176 0.133681 0)
(9.71885 0.144773 0)
(9.6481 0.151354 0)
(9.64047 0.170418 0)
(9.66224 0.210804 0)
(9.6823 0.272698 0)
(9.67987 0.350963 0)
(9.64475 0.440127 0)
(9.58156 0.536499 0)
(9.50352 0.63452 0)
(9.43252 0.733856 0)
(9.383 0.828562 0)
(9.36325 0.913776 0)
(9.94816 0.155762 0)
(9.86983 0.106903 0)
(9.86966 0.0267688 0)
(9.91991 0.0650809 0)
(9.98702 0.17657 0)
(10.0284 0.256415 0)
(10.0213 0.26522 0)
(9.98001 0.234596 0)
(9.93378 0.214143 0)
(9.89636 0.230781 0)
(9.86259 0.285075 0)
(9.82414 0.365033 0)
(9.77841 0.458042 0)
(9.72743 0.557006 0)
(9.67608 0.656031 0)
(9.62395 0.752942 0)
(9.57692 0.844607 0)
(9.528 0.928207 0)
(10.0225 0.103613 0)
(9.96602 0.0736513 0)
(9.98726 0.0420249 0)
(9.95348 0.0462442 0)
(9.89182 0.0803875 0)
(9.85845 0.133783 0)
(9.84774 0.17808 0)
(9.84327 0.200566 0)
(9.84245 0.216346 0)
(9.84282 0.247642 0)
(9.83541 0.30523 0)
(9.81311 0.385988 0)
(9.77816 0.479773 0)
(9.73812 0.578006 0)
(9.70625 0.675679 0)
(9.68304 0.771214 0)
(9.67264 0.864487 0)
(9.65925 0.95259 0)
(9.93438 0.0832969 0)
(9.99756 0.0652199 0)
(9.92542 0.042215 0)
(9.83987 0.110189 0)
(9.80593 0.203342 0)
(9.83518 0.260539 0)
(9.89586 0.25785 0)
(9.94499 0.222611 0)
(9.953 0.203754 0)
(9.91483 0.231571 0)
(9.84775 0.305767 0)
(9.77602 0.407181 0)
(9.71814 0.514295 0)
(9.6809 0.612715 0)
(9.66601 0.700021 0)
(9.66979 0.780895 0)
(9.68615 0.861966 0)
(9.70967 0.950132 0)
(9.78167 -0.0523732 0)
(9.8523 0.0133761 0)
(9.87884 0.10704 0)
(9.86991 0.107992 0)
(9.89383 0.0899236 0)
(9.96952 0.100773 0)
(10.0386 0.136208 0)
(10.0531 0.186923 0)
(10.0084 0.248901 0)
(9.92844 0.31722 0)
(9.84479 0.38802 0)
(9.77963 0.459752 0)
(9.73776 0.531427 0)
(9.71374 0.603545 0)
(9.69443 0.675599 0)
(9.6776 0.751555 0)
(9.65714 0.830398 0)
(9.64403 0.917819 0)
(9.75152 -0.0489259 0)
(9.80801 0.00710963 0)
(9.88009 0.0616047 0)
(9.95625 0.0970103 0)
(10.022 0.137473 0)
(10.0641 0.177119 0)
(10.062 0.203268 0)
(10.0224 0.223446 0)
(9.96635 0.256488 0)
(9.91106 0.312244 0)
(9.86677 0.38679 0)
(9.84127 0.471381 0)
(9.8344 0.55778 0)
(9.84369 0.643799 0)
(9.86162 0.728257 0)
(9.8778 0.812626 0)
(9.88805 0.897457 0)
(9.8762 0.981177 0)
(9.91316 -0.143338 0)
(9.99464 -0.051784 0)
(10.0091 0.0259596 0)
(9.9449 0.0405231 0)
(9.89279 0.0514939 0)
(9.90642 0.0939088 0)
(9.94961 0.166091 0)
(9.96891 0.251141 0)
(9.94128 0.330192 0)
(9.87936 0.393059 0)
(9.81278 0.440864 0)
(9.76431 0.481735 0)
(9.74089 0.523278 0)
(9.7383 0.57134 0)
(9.75446 0.631782 0)
(9.78467 0.707853 0)
(9.82622 0.801533 0)
(9.87463 0.913231 0)
(9.92675 -0.0492074 0)
(9.85679 -0.00946436 0)
(9.83634 0.103578 0)
(9.84062 0.165642 0)
(9.87572 0.170902 0)
(9.9112 0.157799 0)
(9.92226 0.16522 0)
(9.91848 0.210407 0)
(9.91201 0.283696 0)
(9.90533 0.366329 0)
(9.90121 0.446505 0)
(9.90181 0.521953 0)
(9.90486 0.593729 0)
(9.90513 0.663659 0)
(9.89596 0.729586 0)
(9.88169 0.794663 0)
(9.86216 0.858067 0)
(9.85488 0.929963 0)
(9.90343 -0.0859597 0)
(9.72962 -0.0221862 0)
(9.65979 0.00170625 0)
(9.73202 -0.0216736 0)
(9.89257 -0.0162321 0)
(10.0403 0.0498734 0)
(10.1113 0.159882 0)
(10.1079 0.27753 0)
(10.062 0.371539 0)
(10.003 0.429734 0)
(9.95055 0.458274 0)
(9.91429 0.475346 0)
(9.89651 0.49931 0)
(9.89609 0.545124 0)
(9.90902 0.614867 0)
(9.93011 0.705047 0)
(9.9546 0.804883 0)
(9.97834 0.906982 0)
(10.1201 0.17213 0)
(10.0309 0.197557 0)
(9.97895 0.117174 0)
(9.96354 0.0151861 0)
(9.94596 -0.0376472 0)
(9.90517 -0.00553259 0)
(9.85445 0.100387 0)
(9.82551 0.232936 0)
(9.8326 0.351459 0)
(9.8693 0.444987 0)
(9.91785 0.519545 0)
(9.95968 0.582797 0)
(9.98334 0.636593 0)
(9.9896 0.683581 0)
(9.98798 0.725252 0)
(9.98918 0.768612 0)
(10.0011 0.814325 0)
(10.0277 0.870249 0)
(9.69051 -0.0612076 0)
(9.84695 0.0377618 0)
(9.95047 0.0143671 0)
(10.0407 -0.0166464 0)
(10.0466 0.0449402 0)
(9.97258 0.160061 0)
(9.8824 0.266939 0)
(9.82872 0.328758 0)
(9.82773 0.345273 0)
(9.86921 0.342503 0)
(9.93219 0.348321 0)
(9.99911 0.378102 0)
(10.0608 0.432329 0)
(10.1164 0.503902 0)
(10.1677 0.581176 0)
(10.2167 0.657001 0)
(10.2657 0.724782 0)
(10.3124 0.786131 0)
(10.0143 -0.0542065 0)
(9.98376 -0.0857857 0)
(9.97794 -0.0966841 0)
(9.97904 -0.0585253 0)
(9.97509 0.0487523 0)
(9.99932 0.175383 0)
(10.0674 0.256685 0)
(10.1482 0.27583 0)
(10.213 0.267524 0)
(10.2563 0.276872 0)
(10.2844 0.322141 0)
(10.3055 0.392462 0)
(10.3251 0.464796 0)
(10.3472 0.523983 0)
(10.3727 0.568537 0)
(10.4014 0.60619 0)
(10.4308 0.645682 0)
(10.4601 0.693979 0)
(10.2224 -0.0880426 0)
(10.1257 -0.0298403 0)
(10.0792 0.0131897 0)
(10.0681 0.0148606 0)
(10.0532 -0.0105294 0)
(10.0502 -0.00860563 0)
(10.057 0.0387617 0)
(10.0618 0.11264 0)
(10.0653 0.184161 0)
(10.0777 0.236957 0)
(10.1053 0.272625 0)
(10.1458 0.303706 0)
(10.1926 0.342011 0)
(10.2386 0.392802 0)
(10.2814 0.454253 0)
(10.3232 0.521414 0)
(10.3667 0.587555 0)
(10.4193 0.650413 0)
(10.2577 -0.0625517 0)
(10.2151 0.0245175 0)
(10.1753 0.0620151 0)
(10.1178 0.03716 0)
(10.0669 0.0601233 0)
(10.0556 0.141035 0)
(10.0787 0.218173 0)
(10.1091 0.243838 0)
(10.1315 0.220804 0)
(10.1417 0.187592 0)
(10.14 0.181557 0)
(10.133 0.21391 0)
(10.1314 0.271386 0)
(10.1444 0.333813 0)
(10.1745 0.382154 0)
(10.2232 0.412078 0)
(10.2865 0.420955 0)
(10.3642 0.420275 0)
(10.1527 0.141368 0)
(10.0407 0.0950431 0)
(10.0158 0.118579 0)
(9.98449 0.107073 0)
(9.93601 0.0582188 0)
(9.91836 0.0222658 0)
(9.96183 0.033413 0)
(10.036 0.0894497 0)
(10.1 0.163857 0)
(10.1368 0.229927 0)
(10.1492 0.274472 0)
(10.1522 0.297639 0)
(10.1614 0.304198 0)
(10.1867 0.300534 0)
(10.2255 0.290389 0)
(10.2717 0.278874 0)
(10.3175 0.267839 0)
(10.3589 0.261216 0)
(9.94654 0.271 0)
(9.98908 0.29276 0)
(10.0642 0.175131 0)
(10.1453 0.119328 0)
(10.1725 0.104831 0)
(10.1624 0.0816836 0)
(10.1577 0.0528769 0)
(10.1702 0.0467182 0)
(10.1971 0.0738968 0)
(10.2352 0.12189 0)
(10.2791 0.17095 0)
(10.324 0.208225 0)
(10.3687 0.230456 0)
(10.414 0.242181 0)
(10.4608 0.249857 0)
(10.506 0.257794 0)
(10.5488 0.268142 0)
(10.5846 0.278525 0)
(9.81084 0.139786 0)
(9.93837 0.0126375 0)
(10.003 -0.00803839 0)
(10.0415 0.0375392 0)
(10.0528 0.0482735 0)
(10.0613 0.0375538 0)
(10.0875 0.0376049 0)
(10.1117 0.0585437 0)
(10.1145 0.0947748 0)
(10.1019 0.132447 0)
(10.089 0.160371 0)
(10.0874 0.174231 0)
(10.1043 0.174811 0)
(10.1413 0.166175 0)
(10.1959 0.154433 0)
(10.2633 0.14618 0)
(10.3381 0.144216 0)
(10.4187 0.152255 0)
(10.2094 0.0708453 0)
(10.064 0.0724753 0)
(10.0083 0.0723736 0)
(10.0536 0.0982463 0)
(10.1091 0.0871413 0)
(10.1209 0.039003 0)
(10.0963 0.00272839 0)
(10.0691 0.0172871 0)
(10.0626 0.0771554 0)
(10.0845 0.145353 0)
(10.1324 0.18823 0)
(10.1962 0.194825 0)
(10.2616 0.172715 0)
(10.3188 0.137575 0)
(10.3629 0.103011 0)
(10.3951 0.0778875 0)
(10.418 0.063823 0)
(10.436 0.060071 0)
(10.0738 -0.0490715 0)
(10.0845 0.117111 0)
(10.0739 0.0355451 0)
(10.1008 -0.0264072 0)
(10.146 0.00118859 0)
(10.1722 0.0507196 0)
(10.182 0.0802098 0)
(10.1964 0.0898304 0)
(10.2309 0.0875844 0)
(10.2875 0.0779435 0)
(10.3545 0.0654511 0)
(10.414 0.0559516 0)
(10.4549 0.0534139 0)
(10.4766 0.0572404 0)
(10.486 0.0646672 0)
(10.4911 0.0732198 0)
(10.4976 0.0821271 0)
(10.5087 0.0922303 0)
(9.93113 -0.105139 0)
(10.1075 0.0436398 0)
(10.1475 0.0742831 0)
(10.1012 0.056067 0)
(10.0459 0.0333534 0)
(10.0231 0.00765425 0)
(10.0445 -0.0140235 0)
(10.1043 -0.0158251 0)
(10.1873 0.00631418 0)
(10.2777 0.0435537 0)
(10.3634 0.0800975 0)
(10.4347 0.104605 0)
(10.4867 0.113059 0)
(10.5198 0.107417 0)
(10.537 0.0924031 0)
(10.543 0.0743104 0)
(10.5422 0.0573457 0)
(10.5405 0.0457549 0)
(9.9205 -0.0992479 0)
(9.91023 -0.0146699 0)
(10.0434 0.0302133 0)
(10.1353 0.0469016 0)
(10.1391 0.0559511 0)
(10.1208 0.0503453 0)
(10.1223 0.0296606 0)
(10.1375 0.00231249 0)
(10.1576 -0.0212214 0)
(10.1889 -0.0346652 0)
(10.2377 -0.035258 0)
(10.302 -0.0239964 0)
(10.3737 -0.00423464 0)
(10.4441 0.0197894 0)
(10.509 0.0430691 0)
(10.5662 0.0612096 0)
(10.6173 0.0724313 0)
(10.6645 0.0752484 0)
(9.74236 -0.00803215 0)
(9.78525 -0.0361828 0)
(9.86106 -0.0290423 0)
(9.99183 0.0148517 0)
(10.1217 0.0314604 0)
(10.2275 0.00995407 0)
(10.3131 -0.0204301 0)
(10.3766 -0.0354562 0)
(10.4155 -0.0286636 0)
(10.4358 -0.0123568 0)
(10.4482 0.00199645 0)
(10.4598 0.0101272 0)
(10.4736 0.0136602 0)
(10.4912 0.0142705 0)
(10.5155 0.0116161 0)
(10.5471 0.00590087 0)
(10.5865 -0.0029606 0)
(10.6307 -0.0121114 0)
(10.273 -0.0638978 0)
(10.2352 -0.0895163 0)
(10.1148 -0.0410975 0)
(10.0942 -0.0313728 0)
(10.1655 -0.0306521 0)
(10.2689 -0.0287548 0)
(10.3475 -0.033218 0)
(10.3725 -0.0413651 0)
(10.3591 -0.0471536 0)
(10.3485 -0.0469296 0)
(10.371 -0.0413095 0)
(10.4308 -0.031726 0)
(10.5136 -0.0195489 0)
(10.6022 -0.0072336 0)
(10.6816 0.00216332 0)
(10.7429 0.00635068 0)
(10.7809 0.00486427 0)
(10.7969 -0.00132115 0)
(9.92794 -0.0824488 0)
(9.70634 -0.0208402 0)
(9.62276 0.00192587 0)
(9.58563 -0.00737576 0)
(9.50318 -0.0405164 0)
(9.36085 -0.0674263 0)
(9.20397 -0.0646651 0)
(9.07382 -0.0407194 0)
(8.97391 -0.0220842 0)
(8.88599 -0.0236103 0)
(8.79137 -0.0406718 0)
(8.6833 -0.0595418 0)
(8.57003 -0.069508 0)
(8.46867 -0.0675312 0)
(8.39063 -0.0564225 0)
(8.33903 -0.0416094 0)
(8.30529 -0.027266 0)
(8.28438 -0.016285 0)
(-0.242549 0.474571 3.2984e-20)
(-0.621864 0.197129 -3.26793e-20)
(-0.83632 0.0496578 0)
(-0.898231 -0.165897 0)
(-0.766687 -0.30121 0)
(-0.482308 -0.455035 3.1762e-20)
(-0.0492704 -0.581012 0)
(0.520028 -0.653285 0)
(1.15267 -0.674993 0)
(1.7905 -0.656297 0)
(2.40744 -0.608993 -3.01855e-20)
(2.98395 -0.542849 0)
(3.50138 -0.464634 0)
(3.94861 -0.381721 0)
(4.31797 -0.297594 0)
(4.60599 -0.216459 -2.79173e-20)
(4.81215 -0.137496 0)
(4.93348 -0.0614669 0)
(4.97604 0.0145148 0)
(4.92755 0.0963642 0)
(4.8047 0.183973 0)
(4.57977 0.27522 0)
(4.28597 0.371117 0)
(3.85664 0.482604 -2.64213e-20)
(3.38119 0.588243 2.64271e-20)
(2.70522 0.741688 -2.64356e-20)
(2.033 0.808016 -2.64259e-20)
(1.0864 1.10506 0)
(0.0216687 0.550494 0)
(-0.576842 -0.0637996 2.59109e-20)
(-1.22508 0.380814 2.55614e-20)
(-1.78178 0.615739 0)
(-2.43479 0.520763 0)
(-3.10132 0.396907 2.41833e-20)
(-3.56426 0.202257 0)
(-3.65285 -0.0878124 0)
(-3.40892 -0.377234 -2.35137e-20)
(-2.88408 -0.638689 0)
(-2.03132 -0.844172 -2.37157e-20)
(-1.03342 -0.798437 -4.76293e-20)
(-0.102787 -0.52283 0)
(0.461673 -0.444839 0)
(0.751667 -0.458692 0)
(0.515354 0.631939 0)
(0.970921 0.158861 0)
(1.33689 -1.03463 -4.49514e-20)
(1.23303 -2.03225 -4.43365e-20)
(1.31131 -1.54814 -4.35725e-20)
(0.744972 0.313517 0)
(-1.08115 1.38401 4.34635e-20)
(-2.6862 1.29384 0)
(-4.1935 1.23146 -4.21269e-20)
(-5.59403 1.1304 -4.09555e-20)
(-6.8608 1.01497 0)
(-7.99446 0.89026 0)
(-8.99336 0.767054 0)
(-9.86047 0.649347 -3.51202e-20)
(-10.603 0.54106 0)
(-11.2269 0.442778 0)
(-11.741 0.35475 0)
(-12.1522 0.276194 0)
(-12.469 0.206327 0)
(-12.6986 0.144208 0)
(-12.8486 0.0894875 0)
(-12.9254 0.0423103 0)
(-12.9356 0.00262974 2.66071e-20)
(-12.8905 -0.030909 0)
(-12.7992 -0.060053 0)
(-12.663 -0.0847308 -2.59365e-20)
(-12.4911 -0.105597 -2.58867e-20)
(-12.286 -0.122743 0)
(-12.0551 -0.136333 2.59656e-20)
(-11.8023 -0.146677 -2.60672e-20)
(-11.5332 -0.153775 0)
(-11.2524 -0.158123 2.63341e-20)
(-10.9642 -0.159827 0)
(-10.6729 -0.159358 0)
(-10.3816 -0.157041 -2.67576e-20)
(-10.0935 -0.153286 0)
(-9.81048 -0.148587 2.69934e-20)
(-9.53405 -0.143354 0)
(-9.26475 -0.138093 -2.71821e-20)
(-9.00226 -0.133265 -2.72643e-20)
(-8.74541 -0.129336 -2.7344e-20)
(-8.4921 -0.126746 -5.48527e-20)
(-8.23946 -0.12586 5.50341e-20)
(-7.98387 -0.126953 0)
(-7.72133 -0.130121 0)
(-7.44777 -0.135259 0)
(-7.15949 -0.142034 5.61117e-20)
(-6.85365 -0.14991 5.64856e-20)
(-6.52853 -0.158211 -5.68905e-20)
(-6.1838 -0.166233 0)
(-5.82044 -0.173356 5.77315e-20)
(-5.44047 -0.179132 5.81308e-20)
(-5.04653 -0.183344 5.84917e-20)
(-4.64149 -0.185984 0)
(-4.22822 -0.187191 0)
(-3.80925 -0.187259 0)
(-3.3865 -0.186591 5.93109e-20)
(-2.96125 -0.185523 0)
(-2.53427 -0.184216 0)
(-2.10619 -0.182644 -5.9163e-20)
(-1.67749 -0.180871 0)
(-1.24846 -0.179238 0)
(-0.819451 -0.177046 -5.84348e-20)
(-0.390458 -0.174674 0)
(0.0358134 -0.17166 0)
(0.458342 -0.167944 5.71677e-20)
(0.876657 -0.16316 5.66178e-20)
(1.28727 -0.157122 0)
(1.68688 -0.149673 -5.54097e-20)
(2.0718 -0.140777 0)
(2.43834 -0.130543 5.40757e-20)
(2.78308 -0.119191 0)
(3.10312 -0.106983 5.26492e-20)
(3.39602 -0.0941343 5.19149e-20)
(3.65955 -0.0807958 0)
(3.89143 -0.0670727 0)
(4.08942 -0.052999 0)
(4.25155 -0.0387149 0)
(4.37733 -0.0244056 0)
(4.46725 -0.0106732 0)
(4.52433 0.00103606 0)
(4.5531 0.0101943 4.61252e-20)
(4.5562 0.0167108 -4.54482e-20)
(4.5415 0.0197941 0)
(4.51709 0.0201215 0)
(4.48905 0.0190645 0)
(4.46141 0.0175589 0)
(4.4362 0.0162936 -8.44934e-20)
(4.41352 0.0160764 0)
(4.39164 0.0176016 8.20876e-20)
(4.36753 0.0207461 -8.09128e-20)
(4.33828 0.0245226 0)
(4.30243 0.0276389 0)
(4.26046 0.0291041 0)
(4.2144 0.0286267 7.63667e-20)
(4.16696 0.0266215 7.52632e-20)
(4.12056 0.0239136 0)
(4.07663 0.0214321 7.3092e-20)
(4.03542 0.0199336 7.20232e-20)
(3.99606 0.0197937 -7.09647e-20)
(3.95699 0.0209917 0)
(3.91641 0.0232271 0)
(3.87267 0.0261221 -6.78454e-20)
(3.82439 0.029416 0)
(3.77033 0.0329904 0)
(3.70938 0.0367097 0)
(3.6408 0.040208 0)
(3.56465 0.0428184 6.28085e-20)
(3.48225 0.0437689 6.18209e-20)
(3.39617 0.0425848 0)
(3.30985 0.0393408 5.98633e-20)
(3.22677 0.0345898 0)
(3.14973 0.0291439 0)
(3.08034 0.0237715 5.69769e-20)
(3.01905 0.0189907 0)
(2.96543 0.0150252 5.5089e-20)
(2.91872 0.0118766 0)
(2.87793 0.0094363 0)
(2.84226 0.00757829 5.23071e-20)
(2.81078 0.00620645 0)
(2.78297 0.00524947 5.0483e-20)
(2.75781 0.00466158 0)
(2.73509 0.00437724 0)
(2.71343 0.00437372 0)
(2.69313 0.00455371 -4.69044e-20)
(2.6722 0.00498373 0)
(2.65164 0.00547517 4.51506e-20)
(2.62854 0.00638492 0)
(2.60432 0.0071929 0)
(2.57578 0.00904397 0)
(2.54172 0.0101832 0)
(2.50432 0.0143454 0)
(2.44546 0.0155934 0)
(2.39923 0.0260018 0)
(2.27161 0.0256535 -7.6923e-20)
(2.2392 0.055644 0)
(1.89447 0.0445019 0)
(0.040225 1.17493 -9.89626e-20)
(0.0143951 0.983629 9.82222e-20)
(0.0692765 0.478017 0)
(0.230245 0.0265217 -6.44255e-20)
(0.647927 -0.529301 0)
(1.24765 -1.06776 -3.16382e-20)
(1.93681 -1.48838 6.24302e-20)
(2.64172 -1.74692 6.16779e-20)
(3.32115 -1.85599 0)
(3.95016 -1.84054 5.99913e-20)
(4.5208 -1.73378 2.99489e-20)
(5.02645 -1.56535 0)
(5.46396 -1.35907 0)
(5.83121 -1.13256 0)
(6.12991 -0.897716 0)
(6.35951 -0.661917 2.77658e-20)
(6.52488 -0.429305 0)
(6.62529 -0.200974 -5.3414e-20)
(6.66885 0.0223343 0)
(6.65117 0.243577 0)
(6.57277 0.462936 5.21432e-20)
(6.4159 0.689761 0)
(6.20808 0.918357 -5.17422e-20)
(5.90881 1.16922 2.62527e-20)
(5.56288 1.41529 -2.62434e-20)
(5.09778 1.70412 2.62338e-20)
(4.57846 1.94537 2.62053e-20)
(3.93644 2.24496 0)
(3.11735 2.3963 0)
(2.23491 2.28251 -2.57653e-20)
(0.831817 1.86185 2.50438e-20)
(-0.172101 1.37277 0)
(-0.971515 1.39505 0)
(-1.68243 1.30644 -2.42362e-20)
(-2.07313 0.738147 0)
(-2.247 -0.070046 0)
(-2.26303 -0.923169 2.35603e-20)
(-2.07249 -1.6514 0)
(-1.49494 -2.36991 -2.32377e-20)
(-0.8299 -2.54767 4.75544e-20)
(0.0382471 -1.88404 0)
(0.371489 -0.799805 0)
(0.631562 0.277805 9.30057e-20)
(0.770349 -0.967758 9.21794e-20)
(0.390581 -1.61632 9.07903e-20)
(-0.467488 0.792301 -4.50605e-20)
(-2.68831 1.93764 4.41536e-20)
(-4.31852 2.41588 1.29406e-19)
(-5.37201 2.89813 -8.47871e-20)
(-6.50536 3.04961 -4.28676e-20)
(-7.38757 2.88965 0)
(-8.26808 2.6964 4.16767e-20)
(-9.02389 2.43746 -3.82763e-20)
(-9.72025 2.16954 0)
(-10.3234 1.9036 0)
(-10.8597 1.64824 0)
(-11.321 1.41028 3.49762e-20)
(-11.7185 1.18812 0)
(-12.0522 0.98327 -6.34413e-20)
(-12.3281 0.793484 0)
(-12.548 0.619127 -5.91615e-20)
(-12.7144 0.45872 0)
(-12.8292 0.31202 5.58265e-20)
(-12.8949 0.178506 0)
(-12.9145 0.0586328 -5.35092e-20)
(-12.8911 -0.0475057 2.60864e-20)
(-12.8231 -0.141485 0)
(-12.7102 -0.22363 5.17091e-20)
(-12.5608 -0.294272 2.59347e-20)
(-12.3754 -0.353856 2.58839e-20)
(-12.162 -0.402833 0)
(-11.9232 -0.441597 2.57234e-20)
(-11.6653 -0.470737 2.60623e-20)
(-11.3923 -0.490783 0)
(-11.109 -0.502573 -2.63285e-20)
(-10.8197 -0.506904 5.28394e-20)
(-10.528 -0.504828 0)
(-10.2376 -0.497457 2.67519e-20)
(-9.95091 -0.486042 0)
(-9.67017 -0.471917 -8.09073e-20)
(-9.39661 -0.456438 0)
(-9.13069 -0.44101 8.14698e-20)
(-8.87202 -0.427029 2.72597e-20)
(-8.61926 -0.415867 -2.72566e-20)
(-8.3702 -0.408805 -5.46499e-20)
(-8.12171 -0.406951 5.48017e-20)
(-7.86994 -0.411104 0)
(-7.61055 -0.42157 0)
(-7.33914 -0.438017 0)
(-7.05174 -0.459428 -1.68009e-19)
(-6.74528 -0.484159 -5.647e-20)
(-6.41805 -0.510126 5.68733e-20)
(-6.0699 -0.535168 0)
(-5.70217 -0.557409 5.75287e-20)
(-5.31737 -0.575498 -5.81101e-20)
(-4.91864 -0.588808 -5.84705e-20)
(-4.50925 -0.597381 0)
(-4.09234 -0.601697 0)
(-3.6706 -0.602642 0)
(-3.24598 -0.601363 -5.92894e-20)
(-2.81964 -0.598877 0)
(-2.39225 -0.59581 1.18434e-19)
(-1.96439 -0.592268 1.7733e-19)
(-1.53649 -0.588127 -1.17812e-19)
(-1.10872 -0.583721 0)
(-0.681305 -0.578307 -5.82989e-20)
(-0.253964 -0.571851 0)
(0.170747 -0.56452 -1.15148e-19)
(0.592152 -0.554338 5.70102e-20)
(1.01038 -0.54137 5.64664e-20)
(1.4224 -0.524821 0)
(1.8256 -0.504118 1.66024e-19)
(2.217 -0.479126 -1.09356e-19)
(2.5935 -0.450209 -5.40425e-20)
(2.95224 -0.418059 0)
(3.29086 -0.383378 -5.26183e-20)
(3.60756 -0.346584 -1.55596e-19)
(3.90087 -0.307731 0)
(4.16908 -0.266742 -1.00758e-19)
(4.40927 -0.223915 -9.92844e-20)
(4.61694 -0.180481 -9.78222e-20)
(4.78636 -0.138397 0)
(4.91448 -0.0994806 0)
(5.00229 -0.0649061 0)
(5.05551 -0.0345831 4.60789e-20)
(5.08529 -0.00953666 4.5422e-20)
(5.09783 0.00771236 0)
(5.09718 0.0172269 8.8192e-20)
(5.08788 0.0206552 8.69134e-20)
(5.07517 0.0199744 0)
(5.06383 0.0172547 8.44352e-20)
(5.05758 0.0144478 1.66427e-19)
(5.05864 0.0131965 -8.20288e-20)
(5.06701 0.0144927 -8.08365e-20)
(5.08017 0.0182016 0)
(5.0935 0.0232444 0)
(5.10175 0.0282392 0)
(5.10093 0.0320385 -7.62948e-20)
(5.08956 0.0340179 7.5182e-20)
(5.06883 0.0341358 1.48189e-19)
(5.04171 0.032822 -7.3018e-20)
(5.01187 0.030827 7.19457e-20)
(4.98262 0.0289643 7.08925e-20)
(4.95634 0.0278714 0)
(4.93432 0.0278778 0)
(4.91695 0.0290457 -6.77686e-20)
(4.90405 0.0313193 0)
(4.89514 0.0346116 0)
(4.88946 0.038766 1.29445e-19)
(4.88595 0.0434513 0)
(4.88322 0.0481148 6.27211e-20)
(4.87988 0.0520622 -6.17369e-20)
(4.87487 0.0545645 0)
(4.86759 0.0550767 5.97723e-20)
(4.85783 0.0535339 0)
(4.8458 0.0503456 0)
(4.83185 0.0461685 -5.68838e-20)
(4.81631 0.0416258 1.11876e-19)
(4.79942 0.0371558 -5.49965e-20)
(4.78145 0.032992 0)
(4.7626 0.0292238 0)
(4.74317 0.025854 5.22211e-20)
(4.72343 0.0228835 0)
(4.70374 0.0202848 5.03998e-20)
(4.68429 0.0181073 0)
(4.66546 0.0162969 0)
(4.64727 0.0150006 0)
(4.62998 0.0140312 4.68276e-20)
(4.61343 0.0137873 0)
(4.59746 0.0136866 -4.50775e-20)
(4.58205 0.0148589 0)
(4.5656 0.0156242 0)
(4.54996 0.0191736 8.49982e-20)
(4.52841 0.0207737 -8.33101e-20)
(4.51098 0.0292069 0)
(4.47332 0.0312565 0)
(4.45504 0.0510468 0)
(4.37324 0.0524943 2.30315e-19)
(4.3666 0.101562 0)
(4.16625 0.10188 -1.47283e-19)
(0.108058 0.558319 -1.36794e-22)
(0.230885 0.322858 -1.31084e-19)
(0.496415 -0.269488 0)
(1.20495 -1.23408 1.28294e-19)
(2.06187 -2.18952 0)
(2.903 -2.89902 0)
(3.65507 -3.30897 -6.49233e-22)
(4.29237 -3.45254 -6.12507e-20)
(4.81859 -3.39147 -5.94228e-20)
(5.25022 -3.18723 -5.96744e-20)
(5.60724 -2.89447 0)
(5.90267 -2.55299 0)
(6.14564 -2.18943 5.5758e-20)
(6.34266 -1.82023 1.09851e-19)
(6.49851 -1.45467 -1.08303e-19)
(6.61533 -1.09751 0)
(6.69497 -0.750363 -1.05635e-19)
(6.7375 -0.413779 5.33895e-20)
(6.74417 -0.0872172 0)
(6.71569 0.229207 -1.0279e-19)
(6.65844 0.53949 -5.2107e-20)
(6.56903 0.855658 1.01546e-19)
(6.45316 1.17926 5.16694e-20)
(6.30488 1.52501 0)
(6.1265 1.88285 -1.00505e-19)
(5.91282 2.27173 -1.00288e-19)
(5.64226 2.65911 0)
(5.34159 3.04835 -9.98423e-20)
(4.91833 3.39087 0)
(4.47943 3.63165 -9.90622e-20)
(3.76411 3.69328 -5.01271e-20)
(2.9227 3.37869 0)
(2.02734 2.86498 0)
(1.28738 2.17992 0)
(0.78494 1.33022 0)
(0.452901 0.300069 0)
(0.269554 -0.737974 0)
(-0.0154255 -1.60316 -9.40721e-20)
(0.284424 -2.7465 1.41476e-19)
(0.385265 -3.28265 0)
(0.535825 -2.30193 0)
(-0.0474232 -1.32096 0)
(-0.226008 -0.970196 3.91117e-22)
(-1.48408 0.95629 -9.18309e-20)
(-3.68038 2.38455 -1.80295e-19)
(-4.70559 2.99944 1.77545e-19)
(-6.06449 3.44323 8.69954e-20)
(-6.91046 3.71288 -8.54554e-20)
(-7.65951 3.96473 8.12914e-22)
(-8.17168 3.94734 -8.18197e-20)
(-8.57439 3.7644 0)
(-8.96071 3.48668 -7.83063e-20)
(-9.32019 3.1667 2.45462e-21)
(-9.70232 2.83534 0)
(-10.0801 2.5123 0)
(-10.46 2.1989 6.92219e-20)
(-10.8223 1.90182 0)
(-11.1596 1.61746 0)
(-11.4603 1.34802 -6.07448e-20)
(-11.7172 1.09211 -1.19991e-19)
(-11.9257 0.851815 5.92101e-20)
(-12.0827 0.627099 0)
(-12.188 0.418675 -5.58851e-20)
(-12.2417 0.226062 0)
(-12.246 0.0489018 -5.18951e-20)
(-12.2052 -0.113223 -5.27555e-20)
(-12.1219 -0.258459 1.02901e-19)
(-11.9993 -0.386813 5.04867e-20)
(-11.842 -0.498129 0)
(-11.6542 -0.592584 -1.0198e-19)
(-11.4407 -0.670378 0)
(-11.2057 -0.731976 -1.54438e-19)
(-10.9539 -0.777976 -1.03308e-19)
(-10.6895 -0.809358 -1.03986e-19)
(-10.4167 -0.827147 1.047e-19)
(-10.1393 -0.832778 -1.58283e-19)
(-9.86084 -0.827796 0)
(-9.58429 -0.814013 0)
(-9.31217 -0.793492 1.07247e-19)
(-9.04636 -0.768406 1.61666e-19)
(-8.78806 -0.741069 0)
(-8.53776 -0.713835 -5.43215e-20)
(-8.29514 -0.68909 0)
(-8.05892 -0.669199 1.63602e-19)
(-7.82686 -0.656406 3.1288e-22)
(-7.59568 -0.652686 -3.61167e-22)
(-7.36111 -0.659528 -1.09853e-19)
(-7.11819 -0.677591 0)
(-6.86182 -0.706371 1.10818e-19)
(-6.58731 -0.744114 4.65874e-22)
(-6.29102 -0.787886 0)
(-5.97103 -0.833891 0)
(-5.62742 -0.878112 0)
(-5.26222 -0.917061 -1.1525e-19)
(-4.87897 -0.948281 0)
(-4.48194 -0.970672 0)
(-4.07524 -0.984481 0)
(-3.66259 -0.990763 0)
(-3.24696 -0.99118 0)
(-2.83031 -0.987809 -1.1838e-19)
(-2.41374 -0.982451 0)
(-1.99768 -0.976183 -1.18428e-19)
(-1.58274 -0.969211 -1.1818e-19)
(-1.16906 -0.961582 1.17802e-19)
(-0.757132 -0.953315 0)
(-0.347622 -0.943223 1.16699e-19)
(0.0587486 -0.931931 0)
(0.460316 -0.919337 1.15043e-19)
(0.85602 -0.902946 -1.14034e-19)
(1.24438 -0.882766 -3.38485e-19)
(1.6229 -0.85753 0)
(1.9891 -0.826183 -3.31402e-19)
(2.34106 -0.788262 -1.09003e-19)
(2.67785 -0.74419 0)
(2.99939 -0.695208 -2.12873e-19)
(3.30578 -0.642843 -2.10038e-19)
(3.59681 -0.588213 3.10824e-19)
(3.87202 -0.531474 0)
(4.13145 -0.471476 1.00731e-19)
(4.376 -0.406051 9.92602e-20)
(4.60557 -0.333406 2.93277e-19)
(4.81507 -0.25473 0)
(4.99208 -0.176018 0)
(5.1217 -0.106055 0)
(5.19596 -0.0518483 9.20919e-20)
(5.22062 -0.0141363 0)
(5.21282 0.0114437 0)
(5.18999 0.0270051 -8.818e-20)
(5.1633 0.0338845 -8.69031e-20)
(5.13823 0.0333329 0)
(5.11709 0.0272828 0)
(5.10161 0.0185419 -1.66416e-19)
(5.09457 0.0102953 0)
(5.09943 0.00552197 1.61683e-19)
(5.11795 0.00632414 1.59341e-19)
(5.14745 0.0130645 0)
(5.1798 0.0241215 0)
(5.20398 0.0365081 -1.52548e-19)
(5.21124 0.047094 -1.22886e-23)
(5.1991 0.0539295 -1.0411e-23)
(5.17134 0.0566293 0)
(5.13501 0.0559635 -2.87734e-19)
(5.09695 0.0532198 0)
(5.06189 0.0496753 0)
(5.03219 0.0462581 0)
(5.00864 0.0434577 1.35526e-19)
(4.99132 0.0414894 0)
(4.98027 0.0405378 -2.62883e-19)
(4.97558 0.0408165 -1.29433e-19)
(4.97714 0.0423728 0)
(4.98436 0.0448542 -1.25435e-19)
(4.996 0.0475006 0)
(5.0103 0.0493072 0)
(5.0254 0.0494337 -3.5858e-19)
(5.03968 0.0477384 2.35171e-19)
(5.05197 0.0446874 0)
(5.06151 0.0410157 2.27497e-19)
(5.06783 0.0373911 -1.11848e-19)
(5.0708 0.0342031 0)
(5.07047 0.0315424 0)
(5.06712 0.0293312 0)
(5.06114 0.0274179 -3.13228e-19)
(5.05302 0.0257178 0)
(5.04315 0.0241376 -1.00765e-19)
(5.03204 0.0227324 0)
(5.01993 0.021406 0)
(5.0074 0.0203725 0)
(4.9944 0.0193805 0)
(4.98182 0.019007 0)
(4.96898 0.0185522 0)
(4.95756 0.0195143 -1.76773e-19)
(4.9452 0.0199629 0)
(4.93564 0.0237306 -8.4969e-20)
(4.92246 0.0256203 2.4982e-19)
(4.91472 0.035256 0)
(4.89646 0.0392132 0)
(4.89044 0.0616224 -1.56601e-19)
(4.85832 0.0693654 -1.53456e-19)
(4.85643 0.121178 1.5017e-19)
(4.79888 0.14171 1.47206e-19)
(-0.0331431 0.297946 1.98597e-19)
(0.214169 0.0707976 1.96823e-19)
(1.33397 -1.73579 1.29278e-19)
(2.42945 -3.25652 6.32026e-20)
(3.34595 -4.18421 0)
(4.03221 -4.58057 -1.22367e-19)
(4.49755 -4.58752 5.91775e-20)
(4.79098 -4.3452 0)
(4.97345 -3.96424 5.93504e-20)
(5.09705 -3.52164 0)
(5.1959 -3.0643 -1.12786e-19)
(5.28614 -2.61523 0)
(5.37181 -2.18253 -5.58626e-20)
(5.45013 -1.76703 -1.10095e-19)
(5.51586 -1.36792 1.08575e-19)
(5.56307 -0.984231 0)
(5.58678 -0.615133 1.05947e-19)
(5.58331 -0.259822 0)
(5.54707 0.0848509 0)
(5.48872 0.422879 1.03052e-19)
(5.41841 0.75483 0)
(5.34634 1.08649 -1.89791e-21)
(5.2762 1.42306 0)
(5.22003 1.77704 0)
(5.17367 2.15574 2.10359e-21)
(5.15244 2.56488 1.00409e-19)
(5.12683 3.00129 9.79056e-20)
(5.11591 3.44528 9.98446e-20)
(5.05977 3.87262 0)
(4.98195 4.22977 1.95816e-19)
(4.82324 4.46455 0)
(4.52493 4.48055 9.62891e-20)
(4.07944 4.10983 0)
(3.5406 3.43528 0)
(3.00009 2.4164 -9.53641e-20)
(2.47213 1.11532 0)
(2.09514 -0.195574 9.56823e-20)
(1.54178 -1.27929 -2.04501e-21)
(1.49942 -2.70128 -1.90098e-19)
(1.08225 -2.8486 1.92028e-19)
(0.114553 -1.60379 0)
(-1.30974 0.749041 0)
(-3.08813 2.45111 9.33384e-20)
(-4.46016 3.40026 0)
(-5.65335 3.97558 8.95687e-20)
(-6.39425 4.29671 -8.81048e-20)
(-7.11268 4.49414 -8.66446e-20)
(-7.49479 4.52817 0)
(-7.87805 4.50684 8.3329e-20)
(-8.1087 4.36711 8.17711e-20)
(-8.37733 4.16532 -1.56597e-19)
(-8.63747 3.91411 7.83023e-20)
(-8.93838 3.63467 7.62637e-20)
(-9.26146 3.33214 0)
(-9.59869 3.0132 0)
(-9.9318 2.68123 -6.92453e-20)
(-10.2494 2.34441 0)
(-10.5395 2.0073 0)
(-10.7953 1.67676 1.24315e-19)
(-11.0089 1.35689 1.20098e-19)
(-11.1781 1.05179 0)
(-11.3003 0.763405 0)
(-11.3768 0.493336 0)
(-11.4078 0.242518 0)
(-11.3952 0.0114152 1.05638e-19)
(-11.3389 -0.199855 -1.02181e-19)
(-11.2422 -0.390295 -1.03044e-19)
(-11.1099 -0.559832 -2.03143e-19)
(-10.945 -0.707562 0)
(-10.7523 -0.83328 1.293e-21)
(-10.5363 -0.936732 0)
(-10.3023 -1.0183 1.02829e-19)
(-10.0554 -1.07886 7.98967e-22)
(-9.80016 -1.11965 1.04097e-19)
(-9.54105 -1.14233 -1.04808e-19)
(-9.28176 -1.14877 4.27732e-22)
(-9.02533 -1.14113 0)
(-8.77414 -1.12175 -1.06513e-19)
(-8.52976 -1.09325 -1.0734e-19)
(-8.29304 -1.05849 -2.1538e-19)
(-8.06428 -1.02043 0)
(-7.84323 -0.982208 1.08263e-19)
(-7.62915 -0.947074 0)
(-7.42064 -0.918398 -2.17746e-19)
(-7.21549 -0.89959 1.093e-19)
(-7.01038 -0.893785 -1.09576e-19)
(-6.80076 -0.903506 1.0991e-19)
(-6.58093 -0.930102 2.19438e-19)
(-6.3448 -0.973124 -1.10862e-19)
(-6.08667 -1.03006 1.11511e-19)
(-5.80206 -1.09641 0)
(-5.48866 -1.16609 -2.25134e-19)
(-5.14689 -1.23248 0)
(-4.77985 -1.28981 -2.29147e-19)
(-4.39275 -1.33419 2.31085e-19)
(-3.9918 -1.36404 2.32821e-19)
(-3.58246 -1.38019 -2.34268e-19)
(-3.16922 -1.38479 -2.35373e-19)
(-2.75531 -1.38082 0)
(-2.3425 -1.37174 -1.18096e-19)