/*--------------------------------*- C++ -*----------------------------------*\
| =========                 |                                                 |
| \\      /  F ield         | OpenFOAM: The Open Source CFD Toolbox           |
|  \\    /   O peration     | Version:  2112                                  |
|   \\  /    A nd           | Website:  www.openfoam.com                      |
|    \\/     M anipulation  |                                                 |
\*---------------------------------------------------------------------------*/
FoamFile
{
    version     2.0;
    format      ascii;
    arch        "LSB;label=32;scalar=64";
    class       volScalarField;
    location    "0.17";
    object      kU;
}
// * * * * * * * * * * * * * * * * * * * * * * * * * * * * * * * * * * * * * //

dimensions      [0 2 -2 0 0 0 0];

internalField   nonuniform List<scalar> 
12225
(
0.417256
0.66479
0.770217
0.795121
0.780033
0.746058
0.702925
0.654618
0.602364
0.546089
0.485219
0.419301
0.348632
0.274877
0.201665
0.134543
0.0815561
0.0701822
0.0518733
0.0733314
0.0903085
0.102281
0.110527
0.11653
0.121633
0.126898
0.133157
0.141119
0.151471
0.164994
0.182692
0.205774
0.23514
0.27024
0.308987
0.348174
0.0358995
0.0346575
0.0334076
0.0321588
0.0310598
0.0302679
0.0299508
0.0302837
0.0314598
0.0337134
0.0373389
0.0427086
0.0503026
0.0607586
0.0748872
0.0935857
0.117737
0.148951
0.0355597
0.0336507
0.0318857
0.030203
0.0285757
0.0270016
0.0254972
0.0240966
0.0228562
0.0218662
0.0212668
0.0212618
0.0221206
0.0241664
0.027756
0.0332694
0.041141
0.0521042
0.0355575
0.0336692
0.0319894
0.0304722
0.0290793
0.0277794
0.0265472
0.0253621
0.024209
0.0230814
0.0219884
0.0209663
0.020092
0.0194926
0.0193464
0.0198721
0.0213262
0.0240096
0.0355577
0.0336736
0.0320097
0.0305287
0.0291999
0.027997
0.0268969
0.0258787
0.0249227
0.0240095
0.0231209
0.0222419
0.0213666
0.0205068
0.0197016
0.0190222
0.0185741
0.0184982
0.0355576
0.0336733
0.0320104
0.0305336
0.0292142
0.028029
0.0269581
0.0259846
0.0250934
0.02427
0.0235001
0.022769
0.0220616
0.0213645
0.0206693
0.0199772
0.0193043
0.0186863
0.0355575
0.0336729
0.0320096
0.0305327
0.0292141
0.028031
0.0269647
0.0259996
0.0251224
0.0243217
0.0235868
0.0229075
0.0222734
0.0216737
0.0210975
0.0205348
0.0199785
0.0194255
0.0355575
0.0336727
0.0320089
0.0305317
0.029213
0.0280302
0.0269646
0.0260009
0.0251264
0.0243303
0.0236034
0.0229373
0.0223244
0.0217571
0.0212281
0.0207298
0.0202549
0.0197967
0.0355575
0.0336725
0.0320085
0.0305311
0.0292123
0.0280296
0.0269643
0.0260011
0.0251274
0.0243325
0.0236075
0.0229446
0.022337
0.0217786
0.0212637
0.020787
0.0203434
0.0199281
0.0355575
0.0336724
0.0320083
0.0305308
0.029212
0.0280295
0.0269645
0.0260018
0.0251287
0.0243346
0.0236105
0.0229487
0.0223428
0.0217869
0.021276
0.0208056
0.0203718
0.0199711
0.0355574
0.0336724
0.0320082
0.0305307
0.0292121
0.0280298
0.0269652
0.026003
0.0251305
0.0243371
0.0236137
0.0229527
0.0223476
0.0217927
0.0212832
0.0208147
0.0203837
0.0199871
0.0355574
0.0336724
0.0320082
0.0305307
0.0292123
0.0280303
0.0269662
0.0260046
0.0251328
0.0243401
0.0236176
0.0229574
0.0223532
0.0217992
0.0212906
0.0208231
0.0203933
0.0199982
0.0355574
0.0336724
0.0320082
0.0305309
0.0292128
0.0280312
0.0269677
0.0260068
0.0251359
0.0243442
0.0236226
0.0229635
0.0223602
0.0218072
0.0212995
0.020833
0.020404
0.0200095
0.0355574
0.0336724
0.0320083
0.0305312
0.0292135
0.0280325
0.0269697
0.0260098
0.02514
0.0243494
0.023629
0.0229711
0.022369
0.0218172
0.0213105
0.0208449
0.0204166
0.0200226
0.0355574
0.0336724
0.0320085
0.0305317
0.0292145
0.0280342
0.0269724
0.0260137
0.0251451
0.0243559
0.0236369
0.0229804
0.0223798
0.0218292
0.0213238
0.0208592
0.0204317
0.0200382
0.0355573
0.0336724
0.0320086
0.0305323
0.0292157
0.0280364
0.0269757
0.0260183
0.0251512
0.0243636
0.0236462
0.0229914
0.0223924
0.0218433
0.0213392
0.0208758
0.0204491
0.0200562
0.0355573
0.0336723
0.0320088
0.0305329
0.0292171
0.0280389
0.0269795
0.0260236
0.0251582
0.0243724
0.0236569
0.0230039
0.0224065
0.0218591
0.0213564
0.0208941
0.0204684
0.020076
0.0355572
0.0336722
0.032009
0.0305337
0.0292188
0.0280418
0.0269839
0.0260296
0.025166
0.0243821
0.0236685
0.0230174
0.0224218
0.021876
0.0213747
0.0209136
0.0204888
0.020097
0.0355571
0.0336721
0.0320092
0.0305344
0.0292204
0.0280444
0.0269877
0.0260348
0.0251727
0.0243902
0.0236781
0.0230284
0.0224341
0.0218894
0.0213892
0.0209288
0.0205045
0.020113
0.035557
0.0336721
0.0320094
0.0305351
0.0292217
0.0280466
0.0269909
0.0260391
0.025178
0.0243967
0.0236856
0.0230369
0.0224436
0.0218997
0.0214001
0.0209403
0.0205163
0.0201251
0.0355569
0.0336721
0.0320097
0.030536
0.0292233
0.0280489
0.0269941
0.0260432
0.0251831
0.0244027
0.0236925
0.0230446
0.022452
0.0219088
0.0214097
0.0209503
0.0205267
0.0201356
0.0355569
0.0336722
0.0320102
0.0305371
0.0292251
0.0280515
0.0269976
0.0260475
0.0251882
0.0244085
0.0236991
0.0230518
0.0224597
0.0219169
0.0214183
0.0209591
0.0205357
0.0201447
0.0355569
0.0336725
0.032011
0.0305386
0.0292274
0.0280546
0.0270015
0.0260523
0.0251939
0.0244151
0.0237064
0.0230598
0.0224684
0.0219261
0.0214279
0.0209692
0.020546
0.0201551
0.035557
0.0336729
0.0320123
0.0305407
0.0292302
0.0280581
0.0270057
0.026057
0.0251991
0.0244206
0.0237123
0.0230659
0.0224747
0.0219325
0.0214344
0.0209756
0.0205523
0.0201613
0.0355571
0.0336737
0.032014
0.0305432
0.0292331
0.028061
0.0270078
0.0260579
0.0251982
0.0244176
0.0237066
0.0230574
0.0224629
0.0219174
0.0214157
0.0209533
0.0205264
0.0201318
0.0355584
0.0336788
0.0320212
0.0305468
0.0292247
0.0280305
0.0269451
0.0259543
0.0250473
0.0242157
0.0234531
0.0227537
0.0221113
0.0215198
0.0209742
0.0204702
0.020004
0.0195726
0.0356467
0.0339947
0.0325749
0.031285
0.030059
0.0288517
0.0276458
0.0264444
0.0252588
0.0241009
0.0229819
0.0219106
0.0208943
0.0199381
0.0190444
0.0182142
0.0174573
0.0167877
0.0412873
0.049214
0.0572135
0.064522
0.070571
0.0750758
0.0781001
0.0798875
0.0807172
0.0808408
0.0804708
0.0797752
0.0788804
0.077879
0.0768387
0.0758117
0.074823
0.0739276
0.23715
0.413751
0.534611
0.620453
0.674088
0.7028
0.714068
0.714038
0.70726
0.696895
0.685028
0.672968
0.6615
0.651058
0.641847
0.633931
0.627268
0.621814
0.0590212
0.0789668
0.0907193
0.0980648
0.103338
0.103324
0.100845
0.0997334
0.0997774
0.101062
0.103658
0.107695
0.113385
0.121097
0.130064
0.138726
0.146556
0.152755
0.156031
0.154226
0.143573
0.118118
0.0757408
0.0449447
0.0494825
0.0567354
0.0639457
0.0726911
0.0849326
0.0963056
0.0966361
0.0912912
0.0849232
0.0800932
0.077728
0.0769249
0.0768912
0.081354
0.108266
0.194622
0.273028
0.328319
0.367731
0.393813
0.408935
0.415194
0.414384
0.408016
0.397345
0.383414
0.367083
0.349059
0.329925
0.310154
0.290132
0.270165
0.251029
0.233131
0.21633
0.200532
0.185671
0.171696
0.158565
0.146243
0.134702
0.123918
0.113869
0.104539
0.0959089
0.0879636
0.0806876
0.0740673
0.0678097
0.061752
0.0559072
0.0502878
0.0449066
0.0397788
0.034924
0.0303693
0.0261522
0.0223257
0.0189691
0.0162196
0.0143799
0.0145147
0.0169899
0.0201305
0.0236736
0.0275326
0.0316469
0.0359596
0.0404155
0.0449611
0.0495457
0.0541223
0.058648
0.0630852
0.0674019
0.0715744
0.0755929
0.0795588
0.0837838
0.0882514
0.0926554
0.0959234
0.0976081
0.0975399
0.0957572
0.0925769
0.0885893
0.0845379
0.0811192
0.0785604
0.0768288
0.0757996
0.0753036
0.075186
0.0753747
0.0757986
0.0763694
0.0770107
0.077665
0.0782949
0.0788958
0.0794738
0.0800406
0.0806088
0.0811872
0.0817751
0.0823637
0.0829421
0.083517
0.0841215
0.0848244
0.0857395
0.0871869
0.0897802
0.094626
0.102742
0.113238
0.131083
0.194187
0.298062
0.353115
0.372903
0.368326
0.34847
0.320038
0.287461
0.256709
0.227929
0.201211
0.176507
0.15369
0.132658
0.113474
0.0967454
0.0875826
0.0935065
0.102356
0.113119
0.125982
0.141226
0.159106
0.179792
0.203322
0.229431
0.257722
0.288072
0.31455
0.328616
0.32406
0.296033
0.245392
0.183041
0.128588
0.0978998
0.089893
0.0851655
0.0777933
0.0597225
0.0787086
0.126641
0.129189
0.119271
0.108204
0.0981923
0.0893172
0.0815315
0.074847
0.0692552
0.064703
0.0611522
0.0595476
0.0609744
0.0656206
0.0734524
0.0842761
0.0976565
0.112548
0.126765
0.136791
0.134652
0.11644
0.0902508
0.0707455
0.0775366
0.105045
0.127457
0.133388
0.124471
0.115572
0.139915
0.204827
0.279208
0.290849
0.273401
0.255599
0.243819
0.229157
0.210467
0.189569
0.167803
0.146167
0.12539
0.106015
0.0884477
0.0729759
0.0597768
0.0489196
0.0403774
0.0340418
0.0297407
0.0272547
0.0263325
0.0261029
0.0259435
0.0258388
0.0257791
0.0257579
0.0257711
0.0258159
0.0258903
0.0259921
0.0261184
0.0262646
0.0264239
0.0265865
0.0267386
0.0268618
0.0269331
0.0269245
0.0268065
0.0265503
0.0261304
0.0255295
0.024742
0.0237767
0.0226567
0.0214161
0.0200957
0.0187376
0.017379
0.0160362
0.0147504
0.0137731
0.0129216
0.0121648
0.0115008
0.0109245
0.0104302
0.0100117
0.00966275
0.00937748
0.00915014
0.00897544
0.00884858
0.00876553
0.00872332
0.00872092
0.00876272
0.00886724
0.00909042
0.00966085
0.0112118
0.0134756
0.015917
0.0180999
0.0197544
0.0207816
0.0212394
0.0212857
0.0211155
0.0209227
0.0208684
0.021053
0.0215115
0.0221767
0.0229586
0.0237838
0.0245923
0.0253402
0.025998
0.026539
0.0269527
0.027245
0.0274352
0.0275499
0.0276158
0.0276517
0.027667
0.0276732
0.0277108
0.0279059
0.0285903
0.0303512
0.034776
0.0458194
0.0752193
0.14939
0.228392
0.231231
0.21956
0.201724
0.184701
0.171861
0.164296
0.161559
0.162914
0.165023
0.167181
0.168954
0.169717
0.168796
0.165653
0.16008
0.152092
0.14339
0.136185
0.129058
0.12227
0.115932
0.110002
0.104386
0.0989764
0.0936796
0.0884264
0.083191
0.0782496
0.0772758
0.0834883
0.0953061
0.109851
0.12667
0.151237
0.19338
0.258543
0.333117
0.38602
0.0859575
0.0904501
0.177776
0.169704
0.138238
0.111218
0.091944
0.0784139
0.0686337
0.0613321
0.0557421
0.0513747
0.0479005
0.045098
0.042985
0.0420282
0.0426514
0.0454469
0.0509586
0.0595034
0.0711008
0.0854033
0.101153
0.113728
0.116328
0.108162
0.0986458
0.105078
0.137442
0.175369
0.193641
0.228324
0.261808
0.267788
0.260386
0.239033
0.209087
0.180638
0.156812
0.136144
0.116309
0.0973452
0.0799042
0.0645591
0.0516919
0.0414386
0.0336935
0.028164
0.0244514
0.0221317
0.0208163
0.0201834
0.0199857
0.020044
0.0202372
0.0204688
0.0206743
0.0208528
0.0210075
0.0211449
0.0212735
0.0214026
0.021542
0.0217004
0.0218856
0.022103
0.0223559
0.022644
0.0229632
0.0233044
0.0236523
0.0239847
0.0242722
0.0244786
0.0245637
0.0244876
0.0242166
0.0237296
0.0230232
0.0221137
0.0210348
0.0198314
0.0185514
0.0172354
0.0158967
0.0146387
0.0136214
0.0126875
0.0118342
0.0110584
0.0103549
0.00971763
0.00914039
0.00861738
0.00814318
0.0077129
0.00732219
0.00696728
0.00664494
0.00635249
0.00608786
0.00584958
0.00563691
0.00545059
0.00529373
0.00517305
0.00510309
0.00514986
0.00533966
0.0056091
0.00587377
0.00606775
0.00616429
0.00617464
0.00613223
0.00607555
0.00603745
0.00604193
0.00610308
0.00622614
0.00640857
0.00664201
0.00691493
0.00721512
0.00753162
0.00785616
0.00818436
0.00851647
0.00885767
0.00921743
0.00960868
0.0100497
0.010575
0.0112683
0.0123426
0.0143355
0.0186178
0.028605
0.054308
0.119139
0.204777
0.209648
0.183194
0.165238
0.153723
0.146719
0.14159
0.137302
0.133947
0.131536
0.130055
0.12933
0.128995
0.12853
0.127303
0.124729
0.12051
0.11471
0.109198
0.104247
0.0995777
0.0953375
0.0915493
0.0881399
0.0850062
0.0820491
0.0791825
0.0763141
0.0733588
0.0702435
0.0666368
0.0625776
0.0595446
0.059573
0.0637252
0.0726025
0.0873295
0.108242
0.133297
0.160509
0.0901423
0.236434
0.202256
0.148618
0.11064
0.0869579
0.0721271
0.0623965
0.0556677
0.0507767
0.0470365
0.0440327
0.0415281
0.0393923
0.0375898
0.0362751
0.0356104
0.0360242
0.0381721
0.0427244
0.0501384
0.0607036
0.07453
0.0901937
0.104049
0.114966
0.129734
0.159358
0.215314
0.301165
0.312725
0.26394
0.233507
0.205731
0.177883
0.150776
0.126192
0.105338
0.0877247
0.072386
0.0588765
0.0474492
0.0383504
0.0315863
0.0269171
0.0239444
0.0222246
0.0213582
0.0210344
0.0210342
0.0212113
0.0214698
0.0217484
0.0220088
0.0222284
0.022338
0.0223433
0.0222532
0.0220822
0.0218497
0.0215779
0.0212908
0.0210119
0.0207631
0.0205641
0.0204314
0.0203782
0.0204136
0.0205421
0.020762
0.0210642
0.0214304
0.0218313
0.0222256
0.0225621
0.0227828
0.0228305
0.0226584
0.0222393
0.0215721
0.0206823
0.0196163
0.0184299
0.0171725
0.0158714
0.0147414
0.0137414
0.0128183
0.0119722
0.0112001
0.0104971
0.00985757
0.00927547
0.00874522
0.00826156
0.00781978
0.00741567
0.00704556
0.00670628
0.00639513
0.00610984
0.00584865
0.00561028
0.00539375
0.00519816
0.00502272
0.00486642
0.0047285
0.0046087
0.00451058
0.00443371
0.00437262
0.00432169
0.00427798
0.00424156
0.00421443
0.00419932
0.00419888
0.00421545
0.00425078
0.00430593
0.00438113
0.00447584
0.00458876
0.00471818
0.00486246
0.00502105
0.00519611
0.00539477
0.00563225
0.0059362
0.00635467
0.00697402
0.00796356
0.00968923
0.0130133
0.0201475
0.037283
0.0808307
0.159965
0.197837
0.172673
0.150893
0.140097
0.13382
0.12758
0.11999
0.112335
0.105703
0.100555
0.0967003
0.0940434
0.0923455
0.0911699
0.0898884
0.0878219
0.0844982
0.0800585
0.075985
0.0722744
0.0690792
0.066499
0.0644949
0.0629503
0.0617345
0.0607409
0.0598985
0.0591673
0.0585235
0.0579298
0.0572882
0.056273
0.0543413
0.0516636
0.0493367
0.0486721
0.0502873
0.0539861
0.0595284
0.0669865
0.211866
0.249771
0.16533
0.112468
0.0841488
0.0687731
0.0598701
0.0542033
0.0501682
0.046954
0.0441617
0.0416411
0.0393915
0.0374604
0.0358155
0.0343936
0.033252
0.0326244
0.0330288
0.0352344
0.0400071
0.0480264
0.0602972
0.078022
0.101626
0.134981
0.192582
0.276312
0.358451
0.309849
0.241277
0.194352
0.161523
0.135015
0.11238
0.0929074
0.07643
0.062726
0.0514045
0.04221
0.035082
0.0299733
0.0266615
0.0247855
0.0239443
0.0237817
0.024029
0.024504
0.0250897
0.0257111
0.0263186
0.0268768
0.027358
0.0277384
0.0279233
0.0278749
0.027602
0.0271228
0.0264668
0.0256731
0.0247858
0.0238508
0.0229118
0.0220086
0.0211754
0.0204413
0.0198307
0.0193635
0.0190547
0.0189133
0.0189402
0.0191259
0.0194475
0.0198664
0.020327
0.0207587
0.0210826
0.0212223
0.0211174
0.0207377
0.0200881
0.0192083
0.0181577
0.0169932
0.0158116
0.0147874
0.0138257
0.0129323
0.0121099
0.0113566
0.0106683
0.0100397
0.00946527
0.00893967
0.00845798
0.00801577
0.00760911
0.00723453
0.00688906
0.00657011
0.00627548
0.0060033
0.00575197
0.00552006
0.00530643
0.00511021
0.00493057
0.0047665
0.0046169
0.00448068
0.00435703
0.0042459
0.00414753
0.00406214
0.00399
0.00393146
0.00388692
0.00385679
0.00384142
0.00384108
0.00385592
0.00388597
0.00393109
0.00399109
0.00406594
0.00415625
0.00426427
0.00439559
0.00456182
0.00478471
0.00510303
0.00558539
0.00635784
0.0076691
0.0100573
0.0148074
0.0252942
0.050714
0.107029
0.17204
0.171079
0.145902
0.132421
0.126676
0.121409
0.113288
0.103596
0.0943352
0.0864927
0.0803512
0.0754968
0.0719559
0.0696423
0.0682417
0.0671691
0.065668
0.0630717
0.059497
0.0559774
0.0526893
0.0499585
0.0479064
0.0464908
0.0455819
0.0450299
0.044709
0.0445364
0.0444754
0.0445272
0.0447139
0.0450484
0.0455223
0.0457103
0.045195
0.0437906
0.0418217
0.0399305
0.0385849
0.038106
0.0388073
0.414816
0.232825
0.129312
0.0866216
0.0688239
0.0606128
0.0557977
0.0521372
0.048884
0.0457608
0.0426926
0.0397527
0.0371283
0.0350115
0.0333806
0.0321833
0.0312755
0.0306068
0.0304781
0.0316731
0.0352434
0.0423547
0.0550819
0.0774064
0.116679
0.185082
0.263231
0.332631
0.294273
0.220014
0.166921
0.132207
0.107679
0.0885737
0.0729434
0.0600399
0.0495904
0.0414154
0.0353256
0.0311315
0.0286054
0.0274448
0.0272962
0.0278241
0.0287603
0.0299155
0.031166
0.0324329
0.0336638
0.034821
0.0358723
0.036787
0.037534
0.0380851
0.0381783
0.0378668
0.0371589
0.0360841
0.0346943
0.0330597
0.0312619
0.0293851
0.0275066
0.0256915
0.02399
0.0224399
0.0210698
0.0199036
0.0189621
0.0182617
0.0178122
0.0176129
0.0176498
0.017892
0.0182886
0.0187677
0.0192391
0.0196039
0.019768
0.0196641
0.019266
0.0185944
0.0177038
0.0166626
0.0156707
0.0147202
0.0138146
0.0129672
0.0121828
0.0114611
0.0107988
0.0101914
0.00963395
0.0091215
0.00864953
0.00821396
0.00781123
0.00743821
0.00709219
0.00677083
0.00647209
0.00619422
0.00593567
0.00569508
0.00547125
0.00526301
0.00506921
0.00488872
0.0047206
0.00456414
0.00441893
0.00428485
0.00416204
0.00405081
0.00395171
0.00386529
0.00379197
0.00373219
0.00368642
0.00365514
0.00363878
0.00363777
0.00365251
0.00368356
0.00373195
0.00379985
0.00389176
0.00401648
0.0041901
0.00444098
0.00481837
0.00540985
0.00637943
0.00805816
0.0111744
0.0174912
0.0316276
0.0645045
0.123691
0.163683
0.147367
0.128712
0.121577
0.118326
0.112316
0.102905
0.0926708
0.0832649
0.0753061
0.0688259
0.0634364
0.0592801
0.0564499
0.0548006
0.0538451
0.0528017
0.0508487
0.048081
0.044968
0.0419562
0.0394276
0.0375433
0.0362813
0.0355187
0.035106
0.0349146
0.0348568
0.0348863
0.0349918
0.0351895
0.0355154
0.0360428
0.0367602
0.0372729
0.0372657
0.0365505
0.0352007
0.0335004
0.0318085
0.0305074
0.521132
0.191791
0.0976518
0.0717408
0.0635031
0.0592341
0.0555878
0.0520729
0.0486232
0.0450995
0.0414566
0.037825
0.0345485
0.032018
0.0303273
0.0294789
0.0290434
0.0287984
0.0290166
0.0305555
0.0347106
0.0433703
0.0613621
0.0969523
0.158414
0.229327
0.279679
0.266011
0.20317
0.149137
0.113943
0.0906836
0.0739537
0.0610096
0.0507715
0.0428615
0.0371096
0.0333308
0.0312807
0.0306691
0.0311766
0.0324829
0.0343045
0.036419
0.0386673
0.0409411
0.0431684
0.0452996
0.0472957
0.0491195
0.0507284
0.0520729
0.0530959
0.0535923
0.0534955
0.0528168
0.0515405
0.0496858
0.0473141
0.0445277
0.0414603
0.0382592
0.035065
0.0319933
0.0291249
0.0265074
0.0241657
0.0221158
0.0203745
0.01896
0.0178858
0.0171534
0.0167508
0.0166504
0.0168072
0.0171563
0.0176094
0.0180614
0.0183938
0.018502
0.0183235
0.0178473
0.0171151
0.0162778
0.0154151
0.01455
0.0137137
0.0129236
0.0121872
0.0115059
0.0108778
0.0102991
0.00976528
0.00927208
0.00881541
0.00839162
0.00799753
0.00763039
0.00728783
0.0069678
0.00666852
0.00638844
0.00612618
0.00588045
0.0056501
0.00543402
0.00523122
0.00504073
0.00486175
0.00469357
0.00453571
0.00438791
0.00425014
0.00412256
0.00400544
0.00389935
0.0038049
0.00372263
0.00365321
0.00359737
0.00355593
0.0035298
0.00352009
0.00352828
0.00355663
0.00360899
0.00369211
0.00381779
0.00400629
0.00429213
0.00473485
0.00544124
0.00661401
0.00866778
0.0125275
0.0204516
0.0380977
0.0758747
0.129437
0.14888
0.129715
0.117606
0.114788
0.112387
0.105539
0.0958238
0.0858842
0.0768973
0.0691943
0.0626237
0.0568491
0.0521169
0.0487055
0.0466619
0.0456323
0.0448567
0.0434796
0.0413386
0.0386509
0.0359179
0.0335608
0.0317812
0.0305811
0.0298467
0.0294315
0.0292115
0.0291055
0.0290724
0.029097
0.0291783
0.0293289
0.0295955
0.0301003
0.0306466
0.0310272
0.0310376
0.030572
0.02967
0.0284883
0.0272272
0.543898
0.144508
0.0793822
0.0677803
0.0635822
0.0600938
0.0564645
0.0529525
0.0494415
0.0455907
0.0413027
0.0368056
0.0326317
0.0295458
0.0284946
0.0283039
0.0286412
0.029696
0.0319507
0.0363114
0.0441836
0.0586903
0.0858464
0.13058
0.185508
0.227572
0.22737
0.185172
0.137188
0.102684
0.0802691
0.0650133
0.0539129
0.0456192
0.0396357
0.0357376
0.0337146
0.0332999
0.0341847
0.0360491
0.0385906
0.041547
0.0447109
0.0479322
0.0511118
0.05419
0.0571323
0.0599142
0.0625071
0.0648696
0.0669433
0.0686549
0.0699227
0.0704871
0.0704647
0.0697458
0.0682389
0.0658983
0.0627458
0.0588828
0.0544869
0.0497906
0.045043
0.0404638
0.0362071
0.0323475
0.0288967
0.0258396
0.0231726
0.0209162
0.0190986
0.0177286
0.0167878
0.0162401
0.0160353
0.0161151
0.0163988
0.0167922
0.0171701
0.0173968
0.0173745
0.0170531
0.0165113
0.0158359
0.0150852
0.0143115
0.0135506
0.0128237
0.0121408
0.0115052
0.010916
0.0103701
0.00986389
0.00939356
0.00895553
0.00854662
0.0081641
0.00780561
0.00746912
0.00715291
0.00685548
0.00657551
0.00631181
0.00606331
0.00582901
0.00560797
0.00539927
0.00520206
0.00501559
0.00483922
0.00467249
0.00451515
0.0043671
0.0042284
0.00409922
0.00397977
0.00387071
0.00377259
0.0036861
0.00361213
0.00355174
0.00350626
0.00347739
0.00346745
0.00347986
0.00352003
0.00359685
0.00372496
0.00392862
0.00424843
0.00475426
0.005572
0.00694249
0.00936259
0.0139495
0.0234049
0.0439125
0.0832708
0.127494
0.134107
0.116837
0.110097
0.110133
0.107901
0.100729
0.0913399
0.0820115
0.073582
0.0662186
0.0596248
0.0535108
0.04822
0.0441929
0.0416458
0.0403754
0.0396788
0.0387254
0.0370403
0.0347312
0.0322495
0.0300411
0.0283481
0.0271972
0.026482
0.0260552
0.0257928
0.0256193
0.0255034
0.0254387
0.0254244
0.0254579
0.0255474
0.025764
0.0260816
0.0263656
0.0264951
0.0263746
0.0259776
0.0253553
0.0245984
0.513063
0.108
0.0742937
0.0684468
0.0649573
0.0615973
0.0582169
0.0550408
0.0516577
0.0475788
0.0427829
0.0378704
0.033881
0.0320157
0.0316782
0.0323795
0.0341451
0.0371775
0.0419029
0.0493307
0.0615573
0.0818395
0.112584
0.150462
0.182389
0.188183
0.163536
0.126938
0.0955577
0.0739571
0.0596051
0.0497049
0.0427766
0.03819
0.0356489
0.0349066
0.0356777
0.0376393
0.04046
0.043829
0.0474783
0.0511986
0.0548467
0.0583437
0.0616625
0.0648097
0.067805
0.0706631
0.0733804
0.075926
0.0782385
0.0802243
0.0817544
0.0828732
0.0835115
0.0834697
0.0825504
0.0805896
0.0774935
0.0732737
0.0680728
0.0621669
0.055933
0.0497741
0.0440243
0.0388717
0.0343447
0.0303621
0.0268363
0.0237533
0.0211633
0.0191145
0.0175935
0.0165551
0.0159288
0.0156601
0.0156715
0.0158891
0.0161999
0.0164466
0.0165021
0.0163155
0.0159191
0.0153671
0.0147221
0.014038
0.0133531
0.0126911
0.012064
0.0114762
0.0109278
0.0104167
0.00993972
0.00949376
0.00907576
0.00868308
0.00831343
0.00796487
0.00763576
0.00732469
0.00703044
0.00675195
0.00648826
0.00623848
0.00600178
0.00577737
0.00556449
0.00536245
0.00517059
0.00498838
0.00481539
0.0046513
0.00449594
0.00434924
0.00421126
0.00408208
0.00396224
0.00385227
0.00375288
0.00366502
0.00358993
0.00352924
0.0034851
0.0034605
0.00345985
0.00348996
0.0035616
0.00369206
0.00390938
0.00426003
0.00482382
0.00574469
0.00729884
0.0100584
0.0153102
0.0260748
0.0484399
0.0866172
0.121277
0.121198
0.107267
0.10464
0.106622
0.104543
0.0976094
0.0889235
0.0803385
0.0724555
0.0653271
0.0586023
0.0521158
0.0462861
0.0416797
0.0385983
0.0369724
0.0362289
0.0354724
0.0341152
0.0321031
0.0298169
0.0277162
0.0260823
0.0249687
0.024276
0.0238538
0.0235737
0.0233609
0.0231897
0.0230625
0.0229868
0.0229607
0.0229748
0.0230376
0.0231767
0.0232961
0.02333
0.0232262
0.0229676
0.0225828
0.0221333
0.45434
0.0905133
0.0753469
0.0701841
0.0665461
0.0634168
0.0605762
0.0579814
0.0551359
0.0515491
0.0473876
0.0434127
0.0405489
0.0395368
0.0395806
0.0410319
0.0438804
0.0483874
0.0552119
0.0655417
0.0808531
0.101901
0.126679
0.147811
0.153991
0.140738
0.115782
0.0901085
0.0700951
0.0563839
0.0472174
0.0411683
0.0375125
0.0358775
0.0359787
0.0375101
0.0401299
0.0434824
0.0472298
0.0510815
0.0548184
0.0583047
0.0614871
0.0643777
0.0670308
0.0695181
0.0719093
0.0742578
0.0765936
0.0789169
0.0811944
0.0833532
0.0853537
0.0872669
0.0888982
0.0900067
0.0903259
0.08959
0.0875724
0.0841285
0.0792436
0.0730821
0.0660187
0.0586021
0.0514286
0.0449573
0.0393836
0.0346265
0.0304615
0.0267587
0.0235358
0.0209008
0.0188509
0.0173513
0.0163071
0.0156723
0.0153698
0.0153458
0.0155102
0.0156944
0.0157687
0.0156604
0.015361
0.0149076
0.0143546
0.0137531
0.0131414
0.0125435
0.0119723
0.0114328
0.0109258
0.0104498
0.0100024
0.00958094
0.00918307
0.00880669
0.00845002
0.00811157
0.0077901
0.00748454
0.00719395
0.00691752
0.00665451
0.00640423
0.00616602
0.00593926
0.00572335
0.0055177
0.00532179
0.00513512
0.00495731
0.00478802
0.00462704
0.00447424
0.0043296
0.0041932
0.00406528
0.00394637
0.00383713
0.00373854
0.00365192
0.00357908
0.00352252
0.00348579
0.00347411
0.00349551
0.00356245
0.00369461
0.00392354
0.00430118
0.0049164
0.00592913
0.00764592
0.0107012
0.016509
0.0282383
0.0513635
0.086622
0.113135
0.110197
0.100073
0.100245
0.103428
0.101985
0.095916
0.0881508
0.0804183
0.0729592
0.0657924
0.0587421
0.0518297
0.0454679
0.0403676
0.0368305
0.0348257
0.0338756
0.033181
0.0320364
0.030238
0.0280881
0.0260513
0.0244451
0.0233497
0.0226738
0.022264
0.0219873
0.0217662
0.0215761
0.0214237
0.0213227
0.0212769
0.021275
0.0213013
0.0213623
0.0213919
0.0213357
0.0211619
0.0208714
0.0205031
0.0201237
0.385473
0.0909307
0.0779359
0.0720371
0.0680667
0.0651327
0.0628659
0.061047
0.0592129
0.0569009
0.0541477
0.0515072
0.0496845
0.0488307
0.0492843
0.0513157
0.0550602
0.0608421
0.0691668
0.0805133
0.0947802
0.110278
0.122794
0.126829
0.119667
0.103735
0.0845899
0.0673636
0.0544871
0.0457779
0.0402302
0.0371114
0.0359943
0.0365627
0.0384964
0.0414385
0.0450086
0.048837
0.0526047
0.056078
0.0591265
0.0617203
0.0639076
0.0657838
0.0674618
0.0690499
0.0706385
0.0722962
0.0740699
0.075986
0.0780431
0.0802002
0.0825611
0.0850241
0.0874206
0.0895189
0.0910317
0.0916445
0.0910567
0.0890203
0.0853698
0.0800668
0.0732932
0.0655197
0.0574754
0.0499177
0.0433629
0.0379348
0.0333138
0.0292369
0.0256033
0.0225909
0.0201666
0.018315
0.0169218
0.015958
0.0153588
0.0150844
0.0150552
0.0151358
0.0151833
0.0151015
0.0148594
0.0144773
0.0139994
0.0134709
0.0129273
0.0123912
0.0118749
0.0113834
0.0109177
0.0104766
0.0100584
0.00966101
0.00928274
0.00892208
0.00857783
0.008249
0.00793476
0.00763441
0.00734731
0.00707292
0.00681071
0.00656017
0.00632082
0.00609219
0.0058738
0.0056652
0.00546594
0.00527563
0.00509389
0.00492042
0.00475496
0.00459734
0.00444745
0.00430531
0.00417106
0.0040451
0.00392805
0.00382086
0.00372489
0.00364206
0.00357512
0.00352802
0.00350669
0.00352014
0.00358233
0.00371504
0.00395295
0.00435285
0.00501136
0.00610147
0.00795314
0.0112453
0.0174646
0.0297535
0.0526676
0.0842108
0.104506
0.101052
0.0942762
0.0961527
0.0999913
0.0994182
0.0946901
0.088306
0.081431
0.0741817
0.0667317
0.0592857
0.0520518
0.0454012
0.0398518
0.0358305
0.0334218
0.0322468
0.0315408
0.0305239
0.028869
0.0268048
0.0247961
0.0231924
0.0220986
0.0214313
0.0210351
0.0207729
0.0205644
0.0203839
0.0202385
0.0201446
0.0201102
0.0201266
0.0201716
0.0202235
0.0202465
0.0201675
0.0199511
0.0195997
0.0191615
0.0187165
0.328549
0.0922091
0.0804918
0.0738184
0.0693326
0.0663045
0.0643024
0.0630355
0.0621199
0.0611313
0.0599002
0.0586399
0.05781
0.0575802
0.0586943
0.0613413
0.065671
0.0717979
0.0796708
0.0887759
0.0977665
0.1044
0.106256
0.101961
0.0919782
0.0785363
0.0647763
0.0532713
0.0450098
0.0397249
0.0368492
0.0359493
0.0366959
0.0387689
0.0418117
0.045432
0.0492348
0.0528709
0.0560838
0.0587373
0.0608149
0.0623926
0.0635996
0.0645806
0.0654671
0.0663607
0.0673286
0.068412
0.0696422
0.0710556
0.0726971
0.0746032
0.0768751
0.0794074
0.0820871
0.0847171
0.0870092
0.0886135
0.0891784
0.0884135
0.0861047
0.0820983
0.0763831
0.0692016
0.0611761
0.0531703
0.0459391
0.0400237
0.03509
0.0308285
0.0269776
0.0238083
0.0212071
0.0191515
0.0175543
0.0163346
0.0154738
0.0149699
0.0147643
0.0147302
0.0147221
0.0146326
0.0144169
0.0140824
0.0136633
0.0131978
0.0127166
0.0122394
0.0117764
0.011332
0.010907
0.0105003
0.0101107
0.00973676
0.0093774
0.00903175
0.00869918
0.00837924
0.00807154
0.00777578
0.00749167
0.00721892
0.00695723
0.0067063
0.0064658
0.00623539
0.00601474
0.00580348
0.00560127
0.00540777
0.00522265
0.00504561
0.0048764
0.00471479
0.00456064
0.0044139
0.00427464
0.00414313
0.00401991
0.00390588
0.00380237
0.00371135
0.0036357
0.00357969
0.00354977
0.00355576
0.00361283
0.0037446
0.0039884
0.00440503
0.00509727
0.00624765
0.0082014
0.0116612
0.0181275
0.0305715
0.0525397
0.0802509
0.0961594
0.0933782
0.0891947
0.0919644
0.0961446
0.0965534
0.0932939
0.0882221
0.0821513
0.0752142
0.0676543
0.0598629
0.0523069
0.0453693
0.0395143
0.0351642
0.0324585
0.0310967
0.0303546
0.0294095
0.0278425
0.0258225
0.0238157
0.0221994
0.0210995
0.020439
0.0200604
0.0198224
0.0196414
0.0194897
0.0193741
0.0193114
0.0193117
0.0193687
0.0194597
0.0195515
0.0196075
0.019556
0.0193447
0.0189613
0.0184487
0.0178918
0.281499
0.0935228
0.0828815
0.0755829
0.0705238
0.06712
0.0649594
0.0637563
0.0632144
0.0630137
0.0629299
0.0629353
0.0630973
0.063904
0.0656923
0.0685927
0.072579
0.0774197
0.0825994
0.0872766
0.0903779
0.0908502
0.0879605
0.0815622
0.0723534
0.0619308
0.0522405
0.044655
0.0395712
0.0367647
0.0358822
0.0366117
0.0386524
0.0416684
0.0452769
0.0490716
0.0526734
0.0557891
0.0582543
0.0600432
0.0612443
0.0620156
0.0625369
0.0629699
0.0634316
0.0639788
0.0646091
0.0652842
0.0659833
0.0667566
0.0677342
0.0691288
0.0709099
0.073059
0.0755269
0.078184
0.0807741
0.0829252
0.0842224
0.0843211
0.0829989
0.080077
0.0754781
0.0692962
0.0619571
0.0542534
0.0468755
0.040812
0.0357538
0.0314522
0.027731
0.0245318
0.021864
0.0197028
0.0179612
0.0165717
0.0155378
0.0148769
0.0145422
0.0144129
0.0143458
0.0142325
0.0140237
0.0137197
0.0133469
0.0129362
0.0125123
0.0120907
0.0116791
0.0112804
0.0108948
0.0105217
0.0101599
0.00980864
0.00946747
0.00913612
0.00881454
0.00850279
0.00820096
0.00790915
0.00762742
0.00735578
0.00709417
0.0068425
0.00660061
0.0063683
0.00614534
0.00593148
0.00572644
0.00552995
0.00534171
0.00516147
0.00498894
0.0048239
0.00466617
0.00451563
0.00437228
0.0042363
0.00410812
0.00398856
0.00387889
0.00378107
0.00369805
0.00363426
0.00359652
0.00359528
0.00364666
0.00377571
0.00402191
0.0044491
0.00516442
0.00635612
0.00837615
0.0119297
0.0184771
0.0307193
0.0512641
0.0754282
0.0884113
0.0867555
0.0844269
0.0875331
0.0918292
0.0931475
0.0912436
0.0873247
0.0820029
0.075475
0.0679759
0.0599954
0.0522345
0.0451384
0.0391336
0.0346125
0.0317367
0.0302582
0.029488
0.0285809
0.0270568
0.0250463
0.0230224
0.0213878
0.0202846
0.0196395
0.0192909
0.0190914
0.0189523
0.0188436
0.018772
0.0187557
0.0188061
0.0189187
0.0190706
0.019224
0.0193331
0.0193336
0.019159
0.0187775
0.0182169
0.0175542
0.236984
0.0941701
0.0847602
0.0772637
0.071882
0.0681351
0.0656633
0.0642335
0.0636291
0.0636193
0.0639921
0.0646009
0.0654623
0.0667489
0.0685487
0.0708341
0.0734385
0.076053
0.0782479
0.0795184
0.0793432
0.077255
0.072969
0.0666104
0.0589176
0.0511318
0.0444872
0.0397041
0.0369174
0.0359485
0.0365475
0.0384548
0.0413758
0.0449606
0.0488125
0.0525305
0.0557715
0.0583114
0.060077
0.0611366
0.0616578
0.061853
0.0619296
0.0620497
0.0623027
0.0626905
0.0631332
0.063514
0.0637831
0.0640424
0.064438
0.0651965
0.0663138