/*--------------------------------*- C++ -*----------------------------------*\
| =========                 |                                                 |
| \\      /  F ield         | OpenFOAM: The Open Source CFD Toolbox           |
|  \\    /   O peration     | Version:  2112                                  |
|   \\  /    A nd           | Website:  www.openfoam.com                      |
|    \\/     M anipulation  |                                                 |
\*---------------------------------------------------------------------------*/
FoamFile
{
    version     2.0;
    format      ascii;
    arch        "LSB;label=32;scalar=64";
    class       volScalarField;
    location    "0.25";
    object      pMean;
}
// * * * * * * * * * * * * * * * * * * * * * * * * * * * * * * * * * * * * * //

dimensions      [0 2 -2 0 0 0 0];

internalField   nonuniform List<scalar> 
122250
(
0.424661
-0.26241
-0.57259
-0.773408
-0.874146
-0.964515
-1.04996
-1.12964
-1.20217
-1.26539
-1.3193
-1.36522
-1.40186
-1.43592
-1.46515
-1.52474
-1.61478
-1.81681
0.159787
-0.361222
-0.643085
-0.808148
-0.893148
-0.976416
-1.05987
-1.13933
-1.21195
-1.27566
-1.33034
-1.37715
-1.41618
-1.45135
-1.48774
-1.54205
-1.64599
-1.78385
0.160853
-0.279103
-0.543051
-0.788409
-0.891283
-0.977913
-1.06137
-1.14152
-1.21503
-1.28019
-1.33642
-1.38592
-1.4287
-1.47047
-1.51439
-1.57795
-1.67436
-1.81149
0.12433
-0.210868
-0.424207
-0.776363
-0.897166
-0.987683
-1.06868
-1.14771
-1.22182
-1.28822
-1.3466
-1.3986
-1.44638
-1.49354
-1.54675
-1.61491
-1.71085
-1.83695
0.0418872
-0.202854
-0.388612
-0.755242
-0.900592
-0.995046
-1.07515
-1.15339
-1.22801
-1.29603
-1.35672
-1.41191
-1.464
-1.51695
-1.57621
-1.64859
-1.74207
-1.85783
-0.0496981
-0.253677
-0.399443
-0.787463
-0.916024
-1.00833
-1.08671
-1.16357
-1.23832
-1.30775
-1.37083
-1.42909
-1.48532
-1.5431
-1.60703
-1.68223
-1.77349
-1.88225
-0.129542
-0.298405
-0.408729
-0.794712
-0.925716
-1.02101
-1.09908
-1.17453
-1.24909
-1.31978
-1.38521
-1.44657
-1.5066
-1.56856
-1.63621
-1.71333
-1.80311
-1.90657
-0.202932
-0.344207
-0.422911
-0.80874
-0.934776
-1.03466
-1.11291
-1.18733
-1.26162
-1.33346
-1.40119
-1.4656
-1.52914
-1.59469
-1.66532
-1.74383
-1.8324
-1.93158
-0.270533
-0.3902
-0.442499
-0.822511
-0.947029
-1.04906
-1.12759
-1.20158
-1.27574
-1.34858
-1.41842
-1.48566
-1.55233
-1.62092
-1.69389
-1.77332
-1.8607
-1.95635
-0.329178
-0.438591
-0.465085
-0.838542
-0.961346
-1.065
-1.14361
-1.21748
-1.29158
-1.36519
-1.43684
-1.5066
-1.57601
-1.64711
-1.7219
-1.80189
-1.88811
-1.98072
-0.389976
-0.498792
-0.496161
-0.856178
-0.981512
-1.08057
-1.16034
-1.23475
-1.30893
-1.38314
-1.45623
-1.52806
-1.59974
-1.67289
-1.74904
-1.82931
-1.91441
-2.00438
-0.448598
-0.556882
-0.533616
-0.879783
-0.997267
-1.09627
-1.17594
-1.25058
-1.32504
-1.39984
-1.47413
-1.54767
-1.62119
-1.69588
-1.77296
-1.8533
-1.93739
-2.02522
-0.487462
-0.582143
-0.545902
-0.903631
-1.01552
-1.1104
-1.19095
-1.26663
-1.34161
-1.41693
-1.49214
-1.56701
-1.642
-1.71793
-1.7957
-1.87596
-1.95906
-2.04497
-0.516399
-0.581989
-0.544629
-0.9331
-1.03356
-1.12997
-1.20899
-1.28502
-1.36075
-1.43683
-1.51302
-1.58915
-1.66547
-1.74246
-1.82072
-1.90069
-1.9826
-2.0664
-0.558979
-0.598519
-0.549966
-0.960346
-1.05856
-1.15012
-1.23074
-1.30756
-1.38363
-1.46006
-1.53693
-1.61401
-1.69126
-1.76889
-1.84722
-1.92653
-2.00694
-2.08841
-0.599815
-0.628709
-0.558999
-0.987797
-1.08744
-1.17281
-1.25411
-1.33084
-1.40715
-1.48421
-1.56182
-1.63962
-1.71746
-1.79537
-1.87349
-1.95193
-2.03077
-2.10993
-0.636954
-0.658168
-0.566726
-1.02229
-1.12523
-1.20368
-1.28027
-1.35524
-1.4323
-1.51028
-1.58853
-1.66668
-1.7447
-1.82252
-1.90014
-1.97753
-2.05471
-2.13163
-0.661722
-0.672738
-0.565112
-1.05181
-1.14665
-1.22632
-1.30581
-1.37875
-1.45665
-1.53549
-1.61403
-1.69215
-1.76997
-1.84742
-1.92429
-2.00046
-2.07589
-2.15055
-0.663368
-0.661095
-0.559195
-0.951897
-1.17217
-1.2443
-1.32448
-1.39373
-1.47608
-1.55686
-1.63562
-1.7135
-1.79099
-1.86794
-1.94398
-2.01887
-2.09253
-2.16501
-0.665303
-0.660575
-0.595504
-0.961128
-1.16929
-1.24707
-1.32931
-1.40204
-1.48399
-1.56532
-1.64508
-1.72368
-1.80136
-1.87806
-1.95359
-2.02773
-2.10037
-2.17151
-0.629094
-0.650049
-0.588306
-1.03945
-1.15582
-1.24051
-1.32424
-1.40304
-1.48388
-1.56551
-1.64666
-1.72662
-1.80514
-1.88205
-1.9571
-2.03023
-2.10154
-2.17127
-0.579144
-0.612506
-0.569705
-1.01046
-1.14314
-1.23167
-1.31842
-1.39686
-1.47886
-1.56197
-1.64459
-1.7258
-1.80539
-1.88329
-1.95943
-2.03346
-2.10465
-2.17298
-0.518549
-0.569828
-0.552543
-0.991951
-1.12607
-1.22023
-1.3096
-1.38946
-1.47302
-1.55785
-1.64199
-1.72438
-1.8046
-1.88284
-1.9583
-2.03089
-2.1008
-2.16599
-0.449325
-0.519525
-0.53373
-0.966777
-1.10919
-1.20831
-1.29634
-1.3796
-1.46475
-1.55093
-1.63637
-1.72015
-1.80284
-1.88497
-1.96774
-2.04835
-2.11658
-2.1632
-0.369764
-0.47191
-0.524331
-0.973157
-1.10166
-1.20123
-1.28758
-1.37296
-1.46043
-1.5483
-1.63484
-1.71963
-1.80398
-1.89062
-1.97308
-2.0372
-2.09305
-2.15939
-0.27711
-0.412162
-0.514014
-0.895178
-1.08801
-1.18524
-1.27265
-1.36101
-1.4511
-1.54019
-1.62759
-1.71343
-1.80127
-1.89523
-1.97043
-2.02882
-2.08374
-2.14497
-0.181036
-0.385085
-0.537793
-0.941173
-1.09224
-1.18341
-1.27012
-1.36055
-1.45181
-1.54076
-1.62661
-1.71047
-1.79303
-1.8762
-1.95923
-2.0406
-2.10686
-2.1607
-0.120856
-0.43943
-0.668394
-0.952923
-1.08261
-1.16983
-1.25948
-1.35345
-1.44649
-1.53612
-1.62217
-1.70603
-1.78795
-1.86921
-1.94602
-2.02005
-2.08818
-2.15052
-0.162021
-0.560861
-0.815582
-0.985681
-1.08766
-1.17322
-1.26392
-1.35749
-1.44925
-1.53759
-1.62273
-1.70544
-1.78619
-1.86481
-1.94075
-2.01297
-2.08005
-2.14357
0.139585
-0.448335
-0.748985
-0.957266
-1.06663
-1.15879
-1.25293
-1.34719
-1.43882
-1.52701
-1.612
-1.69448
-1.77482
-1.85299
-1.92816
-1.99943
-2.067
-2.13085
0.179968
-0.354902
-0.727068
-0.843431
-0.94248
-1.04007
-1.13486
-1.22669
-1.31402
-1.39468
-1.46752
-1.53394
-1.59151
-1.64481
-1.68705
-1.73626
-1.78
-1.91288
0.102789
-0.223351
-0.569747
-0.807955
-0.94886
-1.05079
-1.14458
-1.23615
-1.3234
-1.40397
-1.47724
-1.5437
-1.60334
-1.65656
-1.70539
-1.74983
-1.8105
-1.89336
-0.0374034
-0.264868
-0.583583
-0.820871
-0.962977
-1.05917
-1.14903
-1.24028
-1.32813
-1.4095
-1.48343
-1.55163
-1.61307
-1.67078
-1.72338
-1.77902
-1.84388
-1.93774
-0.159816
-0.251493
-0.567628
-0.809631
-0.973569
-1.07137
-1.15767
-1.24763
-1.3356
-1.41741
-1.49257
-1.56199
-1.6268
-1.68774
-1.74752
-1.80958
-1.88271
-1.97497
-0.266861
-0.306032
-0.570571
-0.820475
-0.983253
-1.08057
-1.16413
-1.25302
-1.34114
-1.42378
-1.50025
-1.57185
-1.63942
-1.70454
-1.76938
-1.83741
-1.91422
-2.0039
-0.369568
-0.328454
-0.561137
-0.803187
-0.993427
-1.08639
-1.1721
-1.26125
-1.34937
-1.43284
-1.51091
-1.58442
-1.65475
-1.7235
-1.79271
-1.86509
-1.94404
-2.03272
-0.461573
-0.370115
-0.568534
-0.806495
-1.00238
-1.09609
-1.18173
-1.27018
-1.35799
-1.44212
-1.52154
-1.597
-1.66995
-1.74192
-1.81471
-1.89028
-1.97094
-2.05886
-0.545649
-0.412309
-0.580932
-0.807688
-1.01066
-1.10749
-1.19162
-1.27925
-1.36689
-1.45173
-1.53266
-1.61016
-1.68559
-1.76041
-1.83616
-1.91425
-1.99627
-2.08354
-0.621681
-0.455835
-0.600118
-0.812028
-1.02319
-1.11987
-1.20337
-1.29027
-1.37754
-1.46285
-1.54506
-1.62439
-1.70201
-1.77922
-1.85729
-1.93728
-2.02023
-2.1069
-0.689349
-0.498587
-0.622883
-0.811998
-1.03656
-1.13322
-1.21667
-1.30297
-1.38975
-1.47528
-1.55845
-1.6393
-1.71874
-1.79789
-1.87776
-1.95911
-2.04264
-2.12873
-0.75095
-0.538563
-0.657258
-0.834907
-1.05023
-1.1476
-1.23082
-1.31667
-1.403
-1.48865
-1.57262
-1.65474
-1.73571
-1.81642
-1.89767
-1.97996
-2.06376
-2.14925
-0.80215
-0.579927
-0.699419
-0.85668
-1.06617
-1.16268
-1.24485
-1.33029
-1.41629
-1.50192
-1.58641
-1.66949
-1.75159
-1.8334
-1.91556
-1.99841
-2.08222
-2.16706
-0.852142
-0.61001
-0.718685
-0.875054
-1.08669
-1.17802
-1.26063
-1.34559
-1.43131
-1.51684
-1.6015
-1.6851
-1.76792
-1.85044
-1.93311
-2.01616
-2.09971
-2.18371
-0.906329
-0.653128
-0.724436
-0.874061
-1.11167
-1.19446
-1.2751
-1.36146
-1.4479
-1.53334
-1.61792
-1.7018
-1.78513
-1.86816
-1.95111
-2.03407
-2.11706
-2.19995
-0.961667
-0.695188
-0.741418
-0.898963
-1.12946
-1.21205
-1.28806
-1.37697
-1.46569
-1.55126
-1.63566
-1.7196
-1.80317
-1.88638
-1.96927
-2.05182
-2.13395
-2.2155
-1.01169
-0.734123
-0.764491
-0.93245
-1.13376
-1.22838
-1.31429
-1.40038
-1.48597
-1.57074
-1.65485
-1.73859
-1.822
-1.90497
-1.98738
-2.06907
-2.14995
-2.22984
-1.05476
-0.769177
-0.782576
-0.941846
-1.17711
-1.25256
-1.32829
-1.41851
-1.5071
-1.59178
-1.67517
-1.75824
-1.84103
-1.92328
-2.00474
-2.08518
-2.16447
-2.24247
-1.08389
-0.792747
-0.797186
-0.956815
-1.18419
-1.26221
-1.34533
-1.44013
-1.52919
-1.61288
-1.69518
-1.77737
-1.85932
-1.94055
-2.02067
-2.09947
-2.17685
-2.25275
-1.10117
-0.80476
-0.819186
-1.03833
-1.19621
-1.27103
-1.35171
-1.45183
-1.54212
-1.62562
-1.70756
-1.78927
-1.87051
-1.95069
-2.02942
-2.10655
-2.18201
-2.25579
-1.07294
-0.801937
-0.834561
-1.04607
-1.19928
-1.28039
-1.36125
-1.45878
-1.5488
-1.63287
-1.71505
-1.79651
-1.87707
-1.95627
-2.03384
-2.10966
-2.18372
-2.25601
-1.03648
-0.768754
-0.798878
-0.970751
-1.18496
-1.27637
-1.36309
-1.45635
-1.54664
-1.63202
-1.71494
-1.79643
-1.87653
-1.95501
-2.03176
-2.10691
-2.18039
-2.25204
-0.983927
-0.725163
-0.771806
-0.960084
-1.19104
-1.27472
-1.35412
-1.45052
-1.54222
-1.62828
-1.71165
-1.79314
-1.87278
-1.95044
-2.02638
-2.10083
-2.17444
-2.24715
-0.918772
-0.674654
-0.743015
-0.938847
-1.18145
-1.26831
-1.34622
-1.44476
-1.53762
-1.62458
-1.70834
-1.78955
-1.86817
-1.94436
-2.01911
-2.09525
-2.17045
-2.24074
-0.839794
-0.619168
-0.71622
-0.935699
-1.17017
-1.26157
-1.34317
-1.4377
-1.53109
-1.61945
-1.7042
-1.78545
-1.86457
-1.94125
-2.02075
-2.09575
-2.17452
-2.25886
-0.746614
-0.563644
-0.692322
-0.917971
-1.16641
-1.2576
-1.34529
-1.43747
-1.52933
-1.61821
-1.70281
-1.78331
-1.8597
-1.93257
-1.99543
-2.06053
-2.13306
-2.22976
-0.637757
-0.510701
-0.696029
-0.970469
-1.15897
-1.25242
-1.3407
-1.43265
-1.52505
-1.6143
-1.69902
-1.77935
-1.8578
-1.92199
-1.9884
-2.0493
-2.11699
-2.20472
-0.524849
-0.46563
-0.68604
-0.960382
-1.16075
-1.24957
-1.3383
-1.43278
-1.52602
-1.61505
-1.69911
-1.77908
-1.85639
-1.93272
-2.01031
-2.08184
-2.1575
-2.23533
-0.376452
-0.477295
-0.735573
-0.998547
-1.1544
-1.24128
-1.33043
-1.42653
-1.52149
-1.61141
-1.69615
-1.77622
-1.85292
-1.92592
-1.99796
-2.07264
-2.14929
-2.22144
-0.224866
-0.420678
-0.726395
-0.995005
-1.13959
-1.23813
-1.32956
-1.42504
-1.51975
-1.60948
-1.69386
-1.77373
-1.85026
-1.92373
-1.99558
-2.06626
-2.13798
-2.2087
-0.166357
-0.611653
-0.949755
-1.033
-1.13034
-1.22571
-1.31862
-1.41462
-1.5098
-1.59993
-1.68471
-1.76482
-1.8414
-1.91483
-1.98636
-2.05643
-2.12713
-2.19701
0.329352
-0.294781
-0.662623
-0.843846
-0.961705
-1.06709
-1.17081
-1.27203
-1.36815
-1.4584
-1.54245
-1.62293
-1.69815
-1.77492
-1.84767
-1.93835
-2.03567
-2.2316
0.108209
-0.334042
-0.676931
-0.86057
-0.976056
-1.07816
-1.1803
-1.28103
-1.37714
-1.46725
-1.55175
-1.63193
-1.70903
-1.78446
-1.8629
-1.94502
-2.05462
-2.18535
0.0216542
-0.335077
-0.661122
-0.859103
-0.9804
-1.0814
-1.1823
-1.28349
-1.38035
-1.47146
-1.55657
-1.63803
-1.71602
-1.7945
-1.87383
-1.96245
-2.06622
-2.19776
-0.0953548
-0.379193
-0.675585
-0.874006
-0.997869
-1.0958
-1.19336
-1.29269
-1.38925
-1.48038
-1.56624
-1.64828
-1.72829
-1.8082
-1.89147
-1.98173
-2.08634
-2.20901
-0.19164
-0.419067
-0.681404
-0.876993
-1.00636
-1.10439
-1.19942
-1.29756
-1.39437
-1.48642
-1.57329
-1.65662
-1.73825
-1.82044
-1.90596
-1.99808
-2.10115
-2.21661
-0.283639
-0.465343
-0.695399
-0.884726
-1.01936
-1.11851
-1.21173
-1.30796
-1.40406
-1.49635
-1.58405
-1.66847
-1.75157
-1.83554
-1.92277
-2.01579
-2.11709
-2.22803
-0.364965
-0.512931
-0.714277
-0.89424
-1.03152
-1.13205
-1.22377
-1.31787
-1.41304
-1.50564
-1.59429
-1.67987
-1.76436
-1.84982
-1.93832
-2.03169
-2.1316
-2.23892
-0.440596
-0.563186
-0.738845
-0.907267
-1.04469
-1.1464
-1.23731
-1.32973
-1.42388
-1.51648
-1.60587
-1.69258
-1.77833
-1.86501
-1.95438
-2.04779
-2.14638
-2.25059
-0.509717
-0.612882
-0.766814
-0.922886
-1.05877
-1.16111
-1.2517
-1.34274
-1.43573
-1.52819
-1.61825
-1.70597
-1.79277
-1.88035
-1.97022
-2.0634
-2.16063
-2.26211
-0.57377
-0.66247
-0.798263
-0.940959
-1.07399
-1.17645
-1.26703
-1.3571
-1.44904
-1.54111
-1.63151
-1.72
-1.80764
-1.89585
-1.9859
-2.0786
-2.17441
-2.27336
-0.632511
-0.710882
-0.831746
-0.962254
-1.09001
-1.19207
-1.28275
-1.37224
-1.4633
-1.55486
-1.64538
-1.73441
-1.82266
-1.91127
-2.00125
-2.09323
-2.18753
-2.28407
-0.682114
-0.753598
-0.863165
-0.98452
-1.10683
-1.20726
-1.29766
-1.38682
-1.47723
-1.56826
-1.65866
-1.74793
-1.83651
-1.92525
-2.01496
-2.10613
-2.19897
-2.29335
-0.727927
-0.791794
-0.893203
-1.00846
-1.12636
-1.2236
-1.31307
-1.40188
-1.49175
-1.58218
-1.67226
-1.76153
-1.85023
-1.93891
-2.02819
-2.11841
-2.20974
-2.302
-0.776205
-0.832875
-0.924715
-1.03339
-1.14999
-1.24292
-1.33085
-1.41933
-1.5087
-1.59842
-1.68795
-1.77696
-1.86551
-1.9539
-2.04249
-2.13149
-2.22101
-2.31087
-0.825146
-0.874892
-0.958578
-1.06324
-1.17475
-1.26434
-1.35064
-1.4388
-1.52767
-1.61664
-1.70545
-1.79392
-1.882
-1.96977
-2.05737
-2.14488
-2.23232
-2.31955
-0.872461
-0.917671
-0.99407
-1.09683
-1.20056
-1.28801
-1.37338
-1.46024
-1.54821
-1.63635
-1.72428
-1.81189
-1.89912
-1.98589
-2.07218
-2.15792
-2.24309
-2.32754
-0.914539
-0.956554
-1.02625
-1.12623
-1.23049
-1.31325
-1.39584
-1.48191
-1.5693
-1.65651
-1.74332
-1.82978
-1.91584
-2.0013
-2.086
-2.16979
-2.25259
-2.33426
-0.94528
-0.985286
-1.0515
-1.14981
-1.25423
-1.336
-1.41778
-1.50327
-1.58985
-1.67587
-1.76134
-1.84645
-1.93112
-2.01506
-2.09799
-2.17972
-2.26014
-2.33916
-0.956095
-0.9977
-1.0685
-1.17085
-1.26382
-1.34653
-1.42988
-1.51645
-1.60291
-1.68825
-1.77287
-1.857
-1.94047
-2.02296
-2.10419
-2.18396
-2.26219
-2.33878
-0.936815
-0.982513
-1.06037
-1.16493
-1.26063
-1.34636
-1.43121
-1.5182
-1.60512
-1.69092
-1.7757
-1.8596
-1.94249
-2.02412
-2.10427
-2.1828
-2.25964
-2.33469
-0.903035
-0.953767
-1.03317
-1.14177
-1.2522
-1.34141
-1.42702
-1.51417
-1.60183
-1.68851
-1.7739
-1.858
-1.94074
-2.022
-2.10168
-2.17965
-2.25574
-2.32987
-0.855236
-0.912773
-1.00411
-1.12233
-1.2375
-1.32933
-1.41695
-1.50575
-1.59467
-1.68242
-1.7686
-1.85311
-1.93593
-2.01706
-2.09645
-2.17403
-2.24969
-2.3233
-0.796379
-0.864928
-0.970456
-1.09886
-1.222
-1.31805
-1.40728
-1.49732
-1.58757
-1.67667
-1.7639
-1.84901
-1.9321
-2.0133
-2.09256
-2.16981
-2.245
-2.31803
-0.725216
-0.809053
-0.934954
-1.0778
-1.20783
-1.30585
-1.3953
-1.48619
-1.57793
-1.66846
-1.75657
-1.84204
-1.92523
-2.0064
-2.08574
-2.16324
-2.23829
-2.31105
-0.646147
-0.754052
-0.90573
-1.06259
-1.19878
-1.29788
-1.38798
-1.47996
-1.57363
-1.66586
-1.75476
-1.84034
-1.92335
-2.00424
-2.08331
-2.16104
-2.23683
-2.30958
-0.551514
-0.69146
-0.878971
-1.05266
-1.18296
-1.28102
-1.3725
-1.46695
-1.56279
-1.65644
-1.74612
-1.83217
-1.91556
-1.99642
-2.07567
-2.15301
-2.22859
-2.30163
-0.456431
-0.646136
-0.872582
-1.05506
-1.18292
-1.27853
-1.37128
-1.46818
-1.56525
-1.65865
-1.74769
-1.83321
-1.91617
-1.99711
-2.07618
-2.15332
-2.22747
-2.2992
-0.320912
-0.576352
-0.845684
-1.03758
-1.16178
-1.25984
-1.35725
-1.45755
-1.55655
-1.65114
-1.74087
-1.82678
-1.90993
-1.99072
-2.06936
-2.14593
-2.22045
-2.29268
-0.250169
-0.576813
-0.869438
-1.04689
-1.16198
-1.26102
-1.36058
-1.46129
-1.55952
-1.65312
-1.74213
-1.82757
-1.91039
-1.99092
-2.06935
-2.14536
-2.21906
-2.29013
0.0013293
-0.519964
-0.850084
-1.02718
-1.14479
-1.24815
-1.35037
-1.45208
-1.55061
-1.64438
-1.73356
-1.81913
-1.90202
-1.98254
-2.0609
-2.13674
-2.21025
-2.28044
0.292319
-0.352181
-0.717486
-0.885489
-0.99217
-1.09234
-1.19493
-1.2962
-1.39218
-1.48234
-1.56678
-1.64836
-1.72578
-1.80494
-1.88022
-1.97199
-2.06708
-2.25715
0.0814688
-0.382863
-0.721753
-0.89686
-1.00395
-1.10169
-1.20291
-1.30376
-1.39979
-1.48984
-1.57477
-1.65607
-1.73532
-1.81318
-1.89414
-1.97737
-2.08532
-2.21062
-0.0106612
-0.385715
-0.708473
-0.896792
-1.00942
-1.10645
-1.2067
-1.30773
-1.40422
-1.495
-1.58037
-1.66289
-1.74278
-1.8236
-1.90509
-1.99486
-2.09774
-2.22705
-0.121216
-0.425548
-0.718119
-0.908201
-1.02456
-1.11985
-1.21747
-1.31715
-1.4136
-1.50451
-1.59062
-1.67358
-1.75536
-1.83736
-1.92268
-2.01435
-2.11941
-2.2427
-0.218891
-0.466415
-0.723904
-0.910681
-1.03267
-1.12905
-1.22486
-1.32336
-1.41982
-1.51146
-1.59842
-1.68258
-1.76578
-1.84993
-1.93749
-2.03139
-2.13599
-2.25344
-0.308219
-0.512448
-0.737373
-0.917501
-1.04398
-1.14244
-1.23679
-1.33352
-1.42951
-1.52156
-1.60938
-1.69455
-1.77911
-1.86499
-1.95431
-2.04946
-2.153
-2.26675
-0.389399
-0.561558
-0.757127
-0.926878
-1.05523
-1.1558
-1.24921
-1.3441
-1.43921
-1.53148
-1.6201
-1.70632
-1.79214
-1.87942
-1.97004
-2.06576
-2.16831
-2.27893
-0.463722
-0.61228
-0.782254
-0.939364
-1.06704
-1.1695
-1.26268
-1.35604
-1.45014
-1.54247
-1.63186
-1.71916
-1.80612
-1.89456
-1.98606
-2.08195
-2.18345
-2.29119
-0.532163
-0.663106
-0.81147
-0.955192
-1.08
-1.18363
-1.27707
-1.3693
-1.46233
-1.55449
-1.64448
-1.7327
-1.82063
-1.9099
-2.00186
-2.09755
-2.19777
-2.30283
-0.595219
-0.713089
-0.843694
-0.974408
-1.09465
-1.19844
-1.29226
-1.38374
-1.47575
-1.56752
-1.65785
-1.74681
-1.83549
-1.92529
-2.01738
-2.11254
-2.2113
-2.31375
-0.65339
-0.761596
-0.877851
-0.996583
-1.11123
-1.21406
-1.30808
-1.39909
-1.49023
-1.58147
-1.6719
-1.76135
-1.85056
-1.94063
-2.03255
-2.12691
-2.22404
-2.3239
-0.702621
-0.804351
-0.910172
-1.0192
-1.12819
-1.22918
-1.32301
-1.41377
-1.50428
-1.59499
-1.68531
-1.77497
-1.86443
-1.95453
-2.04605
-2.13945
-2.23496
-2.33244
-0.748296
-0.844869
-0.942413
-1.04301
-1.14633
-1.24486
-1.33813
-1.42866
-1.51868
-1.60886
-1.69892
-1.78859
-1.87811
-1.96804
-2.05899
-2.1513
-2.24512
-2.34025
-0.796334
-0.888218
-0.978514
-1.07116
-1.16837
-1.26364
-1.35581
-1.44595
-1.53549
-1.6251
-1.71472
-1.80416
-1.89348
-1.983
-2.07311
-2.16403
-2.25583
-2.34832
-0.845201
-0.933195
-1.01748
-1.1029
-1.19416
-1.28571
-1.3762
-1.46566
-1.55466
-1.64364
-1.73265
-1.82157
-1.91037
-1.99915
-2.08811
-2.17733
-2.26683
-2.35641
-0.892678
-0.977838
-1.05736
-1.13698
-1.22281
-1.31053
-1.39888
-1.48732
-1.57565
-1.66392
-1.75217
-1.84029
-1.92822
-2.01592
-2.10341
-2.19066
-2.27764
-2.36414
-0.935122
-1.01856
-1.09471
-1.17026
-1.25218
-1.33651
-1.42272
-1.50992
-1.59741
-1.68488
-1.77221
-1.85932
-1.9461
-2.0324
-2.11814
-2.20322
-2.28756
-2.371
-0.96715
-1.05009
-1.1246
-1.19814
-1.27788
-1.36026
-1.44507
-1.53129
-1.61798
-1.70462
-1.791
-1.877
-1.96246
-2.0472
-2.13106
-2.2139
-2.29562
-2.3761
-0.980072
-1.06422
-1.14017
-1.21372
-1.29233
-1.37532
-1.46071
-1.54699
-1.63338
-1.7195
-1.80518
-1.89025
-1.9745
-2.05774
-2.13978
-2.2205
-2.29979
-2.37755
-0.962101
-1.04889
-1.12873
-1.20673
-1.28963
-1.3758
-1.46319
-1.55054
-1.63754
-1.724
-1.80977
-1.89464
-1.97835
-2.06071
-2.14159
-2.2209
-2.29858
-2.37457
-0.929172
-1.01921
-1.1049
-1.19069
-1.28016
-1.36976
-1.45894
-1.54752
-1.63549
-1.7228
-1.8092
-1.89435
-1.97799
-2.05997
-2.14023
-2.21874
-2.29546
-2.37036
-0.882858
-0.978141
-1.07268
-1.16788
-1.26532
-1.35994
-1.45142
-1.54104
-1.62998
-1.71834
-1.80559
-1.89121
-1.97492
-2.05668
-2.13651
-2.21446
-2.2905
-2.36461
-0.824946
-0.928467
-1.03595
-1.14412
-1.25078
-1.34979
-1.44285
-1.53346
-1.62369
-1.71344
-1.80174
-1.8879
-1.97174
-2.05338
-2.13295
-2.21054
-2.28613
-2.3597
-0.756513
-0.872843
-0.998311
-1.12191
-1.237
-1.33853
-1.43204
-1.52361
-1.61543
-1.70664
-1.79579
-1.88222
-1.96603
-2.04744
-2.12674
-2.20401
-2.2793
-2.35248
-0.677735
-0.814257
-0.965085
-1.10683
-1.22828
-1.33025
-1.4239
-1.51711
-1.61109
-1.70383
-1.79365
-1.88025
-1.96409
-2.0456
-2.12496
-2.20202
-2.2767
-2.34906
-0.588862
-0.753201
-0.93476
-1.09257
-1.21604
-1.31608
-1.40999
-1.50554
-1.6018
-1.69575
-1.78596
-1.8727
-1.9567
-2.03834
-2.11762
-2.19462
-2.26939
-2.34191
-0.490954
-0.703079
-0.924768
-1.09593
-1.21592
-1.31213
-1.40653
-1.50424
-1.60183
-1.69598
-1.78595
-1.87245
-1.95629
-2.03772
-2.11685
-2.19368
-2.2681
-2.34016
-0.368495
-0.639827
-0.903196
-1.08309
-1.19988
-1.29636
-1.39423
-1.49487
-1.59385
-1.68851
-1.77878
-1.86557
-1.94962
-2.03122
-2.11045
-2.18726
-2.26163
-2.33392
-0.287418
-0.633916
-0.921895
-1.09088
-1.19871
-1.29473
-1.39429
-1.49551
-1.59417
-1.68841
-1.77846
-1.86516
-1.9492
-2.03075
-2.10982
-2.18623
-2.26022
-2.33164
-0.0557249
-0.592599
-0.920261
-1.08208
-1.18719
-1.28594
-1.38791
-1.49009
-1.58902
-1.68342
-1.77364
-1.86047
-1.94459
-2.02612
-2.1052
-2.18149
-2.25526
-2.32573
0.279304
-0.366782
-0.728216
-0.891338
-0.993851
-1.09047
-1.18933
-1.28571
-1.37491
-1.45577
-1.52784
-1.59303
-1.64944
-1.7018
-1.74482
-1.7983
-1.85217
-2.00019
0.0688695
-0.397141
-0.732003
-0.902532
-1.0056
-1.09984
-1.19738
-1.29339
-1.38273
-1.46363
-1.53641
-1.60172
-1.66042
-1.71235
-1.76209
-1.8089
-1.87791
-1.96692
-0.0233268
-0.400024
-0.71895
-0.902595
-1.01116
-1.10475
-1.20137
-1.29764
-1.38757
-1.46942
-1.54298
-1.61006
-1.67028
-1.72663
-1.77901
-1.83598
-1.90483
-2.0042
-0.133562
-0.439617
-0.728249
-0.913784
-1.02618
-1.11819
-1.21229
-1.30732
-1.39733
-1.47956
-1.55427
-1.62249
-1.68562
-1.74475
-1.80327
-1.86553
-1.94079
-2.0379
-0.231147
-0.480415
-0.733995
-0.916215
-1.03424
-1.12749
-1.21991
-1.31387
-1.40408
-1.48732
-1.56335
-1.63352
-1.69918
-1.76212
-1.82522
-1.89268
-1.97088
-2.06441
-0.320325
-0.526315
-0.747262
-0.922841
-1.04542
-1.1409
-1.23204
-1.3244
-1.41433
-1.49831
-1.57571
-1.64771
-1.71594
-1.78229
-1.84939
-1.92075
-2.00057
-2.09237
-0.401449
-0.575361
-0.766928
-0.932137
-1.05654
-1.15431
-1.24473
-1.33544
-1.42472
-1.50927
-1.58804
-1.66195
-1.73269
-1.80216
-1.87267
-1.94694
-2.02809
-2.11867
-0.475773
-0.626039
-0.791971
-0.944527
-1.0682
-1.16802
-1.25845
-1.34787
-1.43641
-1.52141
-1.60155
-1.67743
-1.75061
-1.82289
-1.89628
-1.9729
-2.05506
-2.14453
-0.544278
-0.676891
-0.821171
-0.960268
-1.08101
-1.18219
-1.27313
-1.36169
-1.44946
-1.53471
-1.61608
-1.6938
-1.76921
-1.84393
-1.91968
-1.99811
-2.08091
-2.16931
-0.607451
-0.72696
-0.853409
-0.979374
-1.09551
-1.19703
-1.28863
-1.37673
-1.46381
-1.54912
-1.63148
-1.71085
-1.78825
-1.86505
-1.94271
-2.02249
-2.10563
-2.19293
-0.665805
-0.77558
-0.887601
-1.00145
-1.11195
-1.2127
-1.30477
-1.39272
-1.47929
-1.56455
-1.64767
-1.72843
-1.80753
-1.88608
-1.96524
-2.04599
-2.1292
-2.21539
-0.715268
-0.818409
-0.919964
-1.02394
-1.12879
-1.22789
-1.32007
-1.40805
-1.49434
-1.57951
-1.66311
-1.74489
-1.82528
-1.9051
-1.98529
-2.06661
-2.1497
-2.23486
-0.761066
-0.859099
-0.952249
-1.04762
-1.1468
-1.24369
-1.3356
-1.42365
-1.50979
-1.59489
-1.67882
-1.76138
-1.84278
-1.9236
-2.00455
-2.0862
-2.16901
-2.25314
-0.809187
-0.902744
-0.988417
-1.07564
-1.16869
-1.26262
-1.35378
-1.44179
-1.52787
-1.61291
-1.69708
-1.78024
-1.86246
-1.94408
-2.02558
-2.10732
-2.18964
-2.27257
-0.858415
-0.948223
-1.02744
-1.10732
-1.19447
-1.28495
-1.37477
-1.46248
-1.54849
-1.63349
-1.71777
-1.80131
-1.88407
-1.96619
-2.04792
-2.12948
-2.21104
-2.29259
-0.906455
-0.993409
-1.06757
-1.14138
-1.22327
-1.31019
-1.39823
-1.48532
-1.57116
-1.65609
-1.74038
-1.82404
-1.90701
-1.98925
-2.07086
-2.15189
-2.23243
-2.31242
-0.949685
-1.03487
-1.10564
-1.17522
-1.25294
-1.33679
-1.42303
-1.50929
-1.59482
-1.67963
-1.76382
-1.84737
-1.93018
-2.01216
-2.09326
-2.17345
-2.25274
-2.33105
-0.982766
-1.06739
-1.13662
-1.20412
-1.27955
-1.36155
-1.44658
-1.53221
-1.61747
-1.70213
-1.78615
-1.86944
-1.95187
-2.03328
-2.11358
-2.19268
-2.27057
-2.34715
-0.996861
-1.08248
-1.15275
-1.221
-1.29691
-1.37914
-1.46437
-1.55015
-1.6355
-1.7202
-1.80417
-1.88725
-1.96926
-2.05
-2.12937
-2.20728
-2.28369
-2.35855
-0.980644
-1.06889
-1.14315
-1.21602
-1.29607
-1.38155
-1.46889
-1.5559
-1.64203
-1.72731
-1.81169
-1.89496
-1.97688
-2.05726
-2.13599
-2.21303
-2.28837
-2.36199
-0.949219
-1.0409
-1.12121
-1.20089
-1.28686
-1.37643
-1.46609
-1.55447
-1.64164
-1.72783
-1.81296
-1.89671
-1.9788
-2.05908
-2.1375
-2.21405
-2.28874
-2.36159
-0.903924
-1.00075
-1.08987
-1.17935
-1.27347
-1.36787
-1.45977
-1.54924
-1.63742
-1.72472
-1.81078
-1.89511
-1.9774
-2.05761
-2.13578
-2.21196
-2.28619
-2.35849
-0.846964
-0.951847
-1.05413
-1.15685
-1.26014
-1.35882
-1.45223
-1.54265
-1.63211
-1.7208
-1.80794
-1.89285
-1.97534
-2.05551
-2.13357
-2.20959
-2.28352
-2.35539
-0.77939
-0.896905
-1.01728
-1.13593
-1.24759
-1.34864
-1.44239
-1.53368
-1.62468
-1.71484
-1.80286
-1.88809
-1.97058
-2.05059
-2.12838
-2.20412
-2.27783
-2.34952
-0.70144
-0.838991
-0.984906
-1.12178
-1.23989
-1.34122
-1.43491
-1.52774
-1.62089
-1.71258
-1.80128
-1.88668
-1.96922
-2.04935
-2.12721
-2.20277
-2.27599
-2.34697
-0.613707
-0.778974
-0.955629
-1.10854
-1.22899
-1.32808
-1.4217
-1.51674
-1.61215
-1.70505
-1.79415
-1.87971
-1.96235
-2.04255
-2.12042
-2.19599
-2.26931
-2.34046
-0.516647
-0.729472
-0.94603
-1.11245
-1.22951
-1.3246
-1.41852
-1.51564
-1.61239
-1.70553
-1.7944
-1.87972
-1.96224
-2.04227
-2.11992
-2.19524
-2.26826
-2.33899
-0.396191
-0.667863
-0.925989
-1.10072
-1.21432
-1.30936
-1.40654
-1.50655
-1.60469
-1.69836
-1.78757
-1.87321
-1.95601
-2.03624
-2.114
-2.18929
-2.26225
-2.33319
-0.315478
-0.662009
-0.944138
-1.10818
-1.21299
-1.30762
-1.4065
-1.50709
-1.60493
-1.69818
-1.78713
-1.87263
-1.95534
-2.03545
-2.11309
-2.18806
-2.2606
-2.33059
-0.0866857
-0.622011
-0.944195
-1.1002
-1.20183
-1.29907
-1.40039
-1.50198
-1.60011
-1.69355
-1.78272
-1.8684
-1.95125
-2.03143
-2.10912
-2.18401
-2.25639
-2.32552
0.283565
-0.360661
-0.719977
-0.880809
-0.980819
-1.07459
-1.17023
-1.26299
-1.34824
-1.4248
-1.49238
-1.55259
-1.60379
-1.64954
-1.68486
-1.72625
-1.76563
-1.89147
0.0732493
-0.391022
-0.723778
-0.892012
-0.992586
-1.084
-1.17832
-1.27074
-1.35613
-1.43278
-1.50104
-1.56146
-1.61488
-1.66056
-1.70247
-1.73882
-1.79391
-1.86951
-0.0188955
-0.393905
-0.710739
-0.892106
-0.998181
-1.08896
-1.18239
-1.27508
-1.36111
-1.43873
-1.50782
-1.57005
-1.62508
-1.67535
-1.72042
-1.76807
-1.82579
-1.91361
-0.129002
-0.433498
-0.720062
-0.903309
-1.01324
-1.10246
-1.1934
-1.28488
-1.37102
-1.44907
-1.51934
-1.58281
-1.64082
-1.69419
-1.74593
-1.80001
-1.86573
-1.95291
-0.22654
-0.474285
-0.72586
-0.905802
-1.02136
-1.11184
-1.20114
-1.2916
-1.37797
-1.45708
-1.52874
-1.59424
-1.65492
-1.71239
-1.76927
-1.8295
-1.89941
-1.98416
-0.315641
-0.520177
-0.73916
-0.912474
-1.0326
-1.12534
-1.21341
-1.30232
-1.38846
-1.46838
-1.54147
-1.60891
-1.67231
-1.73348
-1.79484
-1.85971
-1.9322
-2.01606
-0.39669
-0.569205
-0.75886
-0.921834
-1.04381
-1.13888
-1.22627
-1.31359
-1.39914
-1.47971
-1.55426
-1.62373
-1.68981
-1.75435
-1.81954
-1.88795
-1.96254
-2.04585
-0.470954
-0.619878
-0.783949
-0.934306
-1.05557
-1.15274
-1.2402
-1.3263
-1.41118
-1.49228
-1.56831
-1.63988
-1.70857
-1.77616
-1.84458
-1.91583
-1.99206
-2.07488
-0.539412
-0.670727
-0.813193
-0.950146
-1.06852
-1.1671
-1.25513
-1.34044
-1.42465
-1.50609
-1.58345
-1.65702
-1.72811
-1.79836
-1.86944
-1.94291
-2.0203
-2.10265
-0.602545
-0.720801
-0.845475
-0.969364
-1.08318
-1.18215
-1.27091
-1.35584
-1.43947
-1.52108
-1.59956
-1.67493
-1.74819
-1.82073
-1.89397
-1.96913
-2.04731
-2.12914
-0.660849
-0.769437
-0.879731
-0.991574
-1.09982
-1.19807
-1.28738
-1.37226
-1.45548
-1.53716
-1.61654
-1.69345
-1.7686
-1.84309
-1.91808
-1.99449
-2.07313
-2.15436
-0.710265
-0.81229
-0.912167
-1.01421
-1.11685
-1.21354
-1.30303
-1.38803
-1.47107
-1.55279
-1.63279
-1.71086
-1.78746
-1.86342
-1.93965
-2.01688
-2.0957
-2.17632
-0.755987
-0.853003
-0.944545
-1.03805
-1.13508
-1.22964
-1.31895
-1.40411
-1.48713
-1.56889
-1.64936
-1.72836
-1.80614
-1.88328
-1.96048
-2.03827
-2.11709
-2.19706
-0.803996
-0.89668
-0.980844
-1.0663
-1.15727
-1.24896
-1.33762
-1.42287
-1.50595
-1.58781
-1.66867
-1.74845
-1.82724
-1.90539
-1.98336
-2.06152
-2.14015
-2.21929
-0.853163
-0.942204
-1.02006
-1.09831
-1.18346
-1.27179
-1.35923
-1.44433
-1.52751
-1.6095
-1.69067
-1.77102
-1.85056
-1.92943
-2.0079
-2.08615
-2.16437
-2.24251
-0.901341
-0.987521
-1.06046
-1.13279
-1.21277
-1.29767
-1.38349
-1.46813
-1.55132
-1.63346
-1.71484
-1.79553
-1.87549
-1.95474
-2.03335
-2.11138
-2.18891
-2.26587
-0.944914
-1.02936
-1.09896
-1.16721
-1.24308
-1.32502
-1.40921
-1.49323
-1.57634
-1.65857
-1.74006
-1.82088
-1.90094
-1.98018
-2.05856
-2.13605
-2.21265
-2.28829
-0.978766
-1.0627
-1.13076
-1.19683
-1.27059
-1.35081
-1.43395
-1.51754
-1.60058
-1.68287
-1.76443
-1.84522
-1.92515
-2.00408
-2.08192
-2.1586
-2.23409
-2.30831
-0.994123
-1.07892
-1.14802
-1.21492
-1.28925
-1.36977
-1.45319
-1.53705
-1.62036
-1.7029
-1.78463
-1.86544
-1.94517
-2.02368
-2.10083
-2.17656
-2.25082
-2.32356
-0.979205
-1.06667
-1.13981
-1.21117
-1.28968
-1.37344
-1.45897
-1.54412
-1.62832
-1.71157
-1.79385
-1.875
-1.95478
-2.03305
-2.1097
-2.18471
-2.25805
-2.3297
-0.948998
-1.03979
-1.1187
-1.19668
-1.28115
-1.3691
-1.45709
-1.54368
-1.62896
-1.71319
-1.7963
-1.878
-1.95803
-2.03626
-2.11267
-2.18725
-2.26002
-2.33098
-0.904947
-1.00075
-1.08836
-1.17603
-1.26839
-1.36111
-1.45131
-1.53909
-1.62547
-1.71085
-1.79494
-1.87727
-1.95755
-2.03577
-2.11197
-2.18623
-2.25858
-2.32902
-0.849041
-0.952689
-1.05339
-1.15436
-1.25564
-1.35251
-1.4442
-1.53293
-1.62061
-1.70744
-1.79265
-1.87561
-1.95614
-2.03435
-2.11045
-2.18454
-2.25661
-2.32667
-0.782548
-0.898588
-1.01703
-1.13361
-1.24351
-1.34289
-1.43492
-1.52446
-1.61364
-1.70191
-1.78801
-1.87131
-1.95186
-2.02993
-2.10581
-2.17964
-2.25147
-2.32133
-0.705571
-0.841454
-0.985093
-1.11965
-1.236
-1.33569
-1.4277
-1.51877
-1.61009
-1.6999
-1.7867
-1.87018
-1.9508
-2.02901
-2.10493
-2.1786
-2.24996
-2.3191
-0.618852
-0.782208
-0.956372
-1.10698
-1.22527
-1.32268
-1.41467
-1.50795
-1.60152
-1.69254
-1.77976
-1.8634
-1.94414
-2.02241
-2.09837
-2.17205
-2.24349
-2.3128
-0.522846
-0.733146
-0.94679
-1.11072
-1.22589
-1.31934
-1.4116
-1.50697
-1.60188
-1.69315
-1.78013
-1.86355
-1.94417
-2.0223
-2.09802
-2.17143
-2.24258
-2.31148
-0.403704
-0.672199
-0.926904
-1.09911
-1.21087
-1.30427
-1.39975
-1.49796
-1.59426
-1.68606
-1.77338
-1.85712
-1.93802
-2.01633
-2.09217
-2.16555
-2.23664
-2.30575
-0.323687
-0.66644