/*--------------------------------*- C++ -*----------------------------------*\
| =========                 |                                                 |
| \\      /  F ield         | OpenFOAM: The Open Source CFD Toolbox           |
|  \\    /   O peration     | Version:  2112                                  |
|   \\  /    A nd           | Website:  www.openfoam.com                      |
|    \\/     M anipulation  |                                                 |
\*---------------------------------------------------------------------------*/
FoamFile
{
    version     2.0;
    format      ascii;
    arch        "LSB;label=32;scalar=64";
    class       volScalarField;
    location    "0.25";
    object      k;
}
// * * * * * * * * * * * * * * * * * * * * * * * * * * * * * * * * * * * * * //

dimensions      [0 2 -2 0 0 0 0];

internalField   nonuniform List<scalar> 
12225
(
1.24922
1.83511
2.19381
2.43752
2.60264
2.71383
2.80023
2.8755
2.94741
3.02118
3.10066
3.18879
3.28759
3.39815
3.52024
3.65204
3.79034
3.92277
0.407893
0.459894
0.511792
0.562294
0.610566
0.657148
0.703877
0.752296
0.803276
0.857107
0.913655
0.972503
1.03311
1.09504
1.15833
1.22443
1.29845
1.39751
0.375871
0.382223
0.391028
0.400288
0.406007
0.407707
0.406365
0.403178
0.399191
0.395162
0.391558
0.388614
0.386425
0.385076
0.384816
0.3864
0.39191
0.405748
0.37312
0.37161
0.371042
0.371737
0.373501
0.375704
0.377994
0.380092
0.381803
0.383009
0.383655
0.383411
0.382268
0.380341
0.377748
0.374605
0.371122
0.36783
0.37305
0.371212
0.369535
0.368036
0.366757
0.365719
0.364922
0.364363
0.364035
0.363915
0.363965
0.364128
0.364337
0.364529
0.364646
0.364661
0.364633
0.364924
0.373009
0.37112
0.369333
0.367643
0.366062
0.364597
0.363244
0.361998
0.360855
0.35981
0.358857
0.357987
0.357187
0.35645
0.355774
0.355183
0.354768
0.35476
0.372978
0.371061
0.36925
0.367543
0.365943
0.364449
0.363052
0.361744
0.360517
0.359366
0.358285
0.357268
0.35631
0.355412
0.35458
0.35384
0.353253
0.352936
0.372957
0.371023
0.369198
0.367477
0.36586
0.364344
0.362922
0.361586
0.360331
0.359152
0.358043
0.356999
0.356017
0.355097
0.354245
0.353479
0.352834
0.352364
0.372943
0.370994
0.369157
0.367424
0.365792
0.364259
0.362819
0.361465
0.360191
0.358992
0.357863
0.3568
0.3558
0.354864
0.353994
0.3532
0.352499
0.351906
0.372932
0.370973
0.369124
0.367381
0.365738
0.364192
0.362737
0.361367
0.360075
0.358858
0.35771
0.356629
0.355611
0.354656
0.353764
0.352937
0.35218
0.35149
0.372924
0.370956
0.369099
0.367346
0.365693
0.364136
0.362668
0.361283
0.359977
0.358744
0.357581
0.356484
0.35545
0.354477
0.353563
0.352706
0.351903
0.351144
0.372918
0.370944
0.369079
0.367319
0.365657
0.364089
0.36261
0.361214
0.359896
0.358651
0.357475
0.356364
0.355316
0.354328
0.353395
0.352514
0.351678
0.350877
0.372914
0.370934
0.369062
0.367295
0.365625
0.364049
0.36256
0.361153
0.359823
0.358567
0.357379
0.356257
0.355196
0.354193
0.353245
0.352345
0.351486
0.35066
0.37291
0.370925
0.369047
0.367273
0.365595
0.364009
0.36251
0.361093
0.359752
0.358484
0.357285
0.356151
0.355078
0.354062
0.353099
0.352183
0.351309
0.350469
0.372907
0.370918
0.369035
0.367253
0.365568
0.363973
0.362465
0.361037
0.359686
0.358407
0.357197
0.356051
0.354967
0.353939
0.352964
0.352038
0.351156
0.350314
0.372905
0.370913
0.369025
0.367237
0.365545
0.363942
0.362425
0.360988
0.359627
0.358338
0.357118
0.355962
0.354867
0.35383
0.352847
0.351914
0.351029
0.350189
0.372904
0.37091
0.369019
0.367226
0.365528
0.363918
0.362393
0.360947
0.359578
0.35828
0.35705
0.355885
0.354782
0.353736
0.352745
0.351807
0.350919
0.35008
0.372904
0.37091
0.369017
0.367221
0.365518
0.363902
0.36237
0.360917
0.359539
0.358233
0.356995
0.355821
0.354708
0.353654
0.352655
0.351709
0.350814
0.349968
0.372905
0.370913
0.36902
0.367222
0.365516
0.363897
0.362359
0.3609
0.359515
0.358201
0.356954
0.355771
0.354648
0.353583
0.352572
0.351613
0.350703
0.349842
0.372908
0.370918
0.369027
0.36723
0.365523
0.363901
0.362361
0.360898
0.359508
0.358187
0.356933
0.355741
0.354609
0.353532
0.352509
0.351536
0.350611
0.349732
0.372912
0.370924
0.369036
0.36724
0.365534
0.363911
0.362369
0.360903
0.35951
0.358185
0.356925
0.355726
0.354586
0.353502
0.352469
0.351487
0.35055
0.349658
0.372916
0.370933
0.369047
0.367254
0.365548
0.363926
0.362383
0.360916
0.35952
0.358192
0.356928
0.355725
0.35458
0.35349
0.352451
0.351461
0.350518
0.349617
0.372921
0.370943
0.369061
0.36727
0.365566
0.363944
0.362401
0.360932
0.359533
0.358201
0.356933
0.355725
0.354574
0.353478
0.352433
0.351438
0.350488
0.349582
0.372929
0.370956
0.369077
0.367288
0.365586
0.363967
0.362425
0.360957
0.359558
0.358225
0.356955
0.355745
0.354591
0.353492
0.352445
0.351446
0.350494
0.349586
0.372939
0.370973
0.369096
0.367305
0.365599
0.363976
0.36243
0.360959
0.359558
0.358226
0.356958
0.355754
0.35461
0.353524
0.352493
0.351514
0.350584
0.349699
0.372955
0.371007
0.369159
0.367403
0.365739
0.364168
0.362693
0.361316
0.360038
0.358861
0.357782
0.356798
0.355907
0.355106
0.354391
0.353759
0.353207
0.352731
0.372979
0.371054
0.369342
0.367918
0.366871
0.366281
0.366157
0.366455
0.3671
0.367978
0.368898
0.369794
0.370614
0.371269
0.371628
0.371653
0.371337
0.370707
0.373494
0.374898
0.378008
0.382257
0.387117
0.391995
0.395442
0.39711
0.397274
0.396348
0.394806
0.393122
0.391744
0.391071
0.391442
0.393135
0.396358
0.40129
0.387384
0.41244
0.441611
0.472605
0.503645
0.533226
0.561562
0.589457
0.61777
0.647248
0.67849
0.711934
0.747876
0.78648
0.827818
0.871883
0.918617
0.967862
0.989984
1.45549
1.77544
2.00953
2.18443
2.29402
2.36833
2.422
2.46208
2.49195
2.51314
2.52634
2.53181
2.52972
2.52021
2.50351
2.47987
2.45015
1.3283
1.7239
1.79875
1.77131
1.70562
1.63125
1.56232
1.50295
1.45115
1.39789
1.33427
1.2521
1.14844
1.02914
0.979103
1.13424
1.65319
2.7065
4.53645
7.38304
9.93693
12.2417
14.2735
15.9479
17.221
18.0851
18.5564
18.6654
18.4758
18.1473
17.7047
17.1681
16.5538
15.8754
15.1438
14.406
13.7112
13.05
12.4157
11.8038
11.2115
10.6366
10.078
9.53498
9.0077
8.49683
8.0036
7.52975
7.07738
6.64902
6.24771
5.8773
5.54299
5.25215
5.01545
4.8487
4.77234
4.85001
5.09072
5.43022
5.80864
6.18988
6.59495
7.02364
7.47368
7.94306
8.43054
8.93586
9.45953
10.0055
10.5895
11.2448
11.9711
12.5653
12.5818
11.9151
10.7226
9.38965
8.27828
7.50984
7.0067
6.64771
6.37993
6.16708
5.91611
5.61576
5.32753
5.13741
5.01027
4.88481
4.7265
4.55442
4.39118
4.20096
3.95664
3.80416
4.15278
5.41581
7.73731
10.4354
12.6614
14.5388
15.9577
16.873
17.2909
17.2312
16.9401
16.4606
15.8193
15.0396
14.1327
13.2125
12.2952
11.3878
10.5004
9.64504
8.83538
8.08701
7.41916
6.8574
6.44022
6.24273
6.45518
7.3166
8.48779
10.0554
12.0598
14.5761
17.7062
21.5807
26.3715
32.3355
39.4049
46.4344
53.2696
59.6169
64.892
67.9378
67.7356
63.7398
56.2707
46.7177
36.945
28.4854
22.0738
17.6872
14.8773
13.1225
12.017
11.3007
10.8181
10.4741
10.2051
9.96473
9.71754
9.43552
9.09615
8.68143
8.17889
7.58512
6.91272
6.19875
5.50316
4.89685
4.47367
4.26963
4.25397
4.36337
4.54846
4.76834
5.00203
5.25661
5.56246
5.96844
6.54317
7.36167
8.40184
9.33624
9.56304
9.04584
3.80414
3.02468
2.69596
2.43996
2.19245
1.95511
1.73242
1.53128
1.39757
1.36019
1.48224
1.89793
2.80991
4.31808
6.25725
7.83664
8.67467
9.23962
9.68643
10.0496
10.2241
10.1951
9.95901
9.53079
8.94426
8.24504
7.48364
6.71034
5.97258
5.3097
4.74733
4.30392
3.98976
3.80595
3.75109
3.7751
3.81276
3.85926
3.91108
3.96548
4.02036
4.07382
4.12864
4.18502
4.2422
4.29905
4.35415
4.40592
4.45276
4.49329
4.5266
4.55205
4.56963
4.58036
4.586
4.58804
4.58739
4.58398
4.57898
4.57221
4.56363
4.55372
4.54202
4.52703
4.50658
4.47748
4.43424
4.37724
4.30714
4.22422
4.13428
4.05984
4.05099
4.20259
4.60369
4.97171
5.12533
5.09477
4.99699
4.90287
4.79006
4.54644
4.02658
3.26372
2.55193
2.05263
1.7337
1.54246
1.4379
1.37192
1.35205
1.43566
1.74681
2.48175
3.81337
5.52398
6.98063
7.71166
7.95094
7.87167
7.51832
6.97474
6.31114
5.59972
4.90961
4.29779
3.80622
3.45492
3.25439
3.20209
3.30191
3.42389
3.55356
3.68886
3.82772
3.96802
4.10712
4.24105
4.36568
4.49013
4.60723
4.70416
4.75969
4.76193
4.72403
4.65106
4.55047
4.43136
4.30205
4.17269
4.06083
4.02831
4.53253
6.91184
10.6637
15.0905
19.5908
23.65
26.8403
28.8146
29.3187
28.2641
25.8438
22.5495
18.9942
15.6782
12.8755
10.6582
8.97738
7.7356
6.83123
6.1775
5.70681
5.36852
5.1251
4.94874
4.81857
4.71834
4.63435
4.55428
4.46754
4.36753
4.25437
4.13499
4.01746
3.89936
3.76512
3.60466
3.41341
3.19542
2.94662
2.66212
2.34876
2.04642
1.80214
1.66407
1.65728
1.81574
2.23136
2.69014
5.95859
3.57651
3.06524
2.79415
2.58885
2.42812
2.27112
2.40144
2.73755
3.29895
4.29187
5.68995
6.96373
7.92526
8.43937
8.54997
8.41496
8.1637
7.84232
7.45431
6.98774
6.45015
5.85996
5.24647
4.64523
4.09113
3.61208
3.22484
2.9338
2.73236
2.60642
2.53866
2.51202
2.51211
2.5349
2.56748
2.60792
2.65504
2.70835
2.76794
2.83422
2.9076
2.98805
3.07467
3.16734
3.26734
3.37184
3.47703
3.57834
3.67127
3.75298
3.82151
3.87422
3.9114
3.93794
3.96047
3.98528
4.01413
4.04505
4.08041
4.11964
4.16214
4.20711
4.25328
4.29884
4.34148
4.37841
4.40644
4.42193
4.42062
4.39667
4.35396
4.30268
4.25066
4.19433
4.11782
4.01099
3.87615
3.74065
3.64626
3.61285
3.63516
3.66898
3.57783
3.19531
2.56879
1.97551
1.62422
1.46345
1.40638
1.51692
1.99083
3.02571
4.59041
6.11795
6.82949
6.70771
6.24606
5.65222
5.01057
4.38499
3.82745
3.37446
3.04385
2.83385
2.72764
2.70097
2.72917
2.79124
2.8705
2.96434
3.06835
3.18129
3.30179
3.42882
3.56126
3.69647
3.84094
3.99867
4.1663
4.33473
4.48372
4.57163
4.5929
4.56058
4.47476
4.34377
4.18145
3.99935
3.7931
3.57677
3.37075
3.18947
3.10496
3.49584
4.56618
6.24684
8.28983
10.4443
12.5235
14.3547
15.7237
16.41
16.2914
15.4215
14.011
12.3376
10.6517
9.12199
7.82778
6.78181
5.95948
5.32195
4.82915
4.44559
4.14231
3.89769
3.6979
3.53684
3.41149
3.31698
3.24623
3.1918
3.1466
3.10514
3.06312
3.01576
2.95573
2.8659
2.71633
2.49912
2.22046
1.90337
1.59052
1.34536
1.22513
1.23701
1.36538
1.6924
2.33268
6.78105
3.81539
3.58549
3.39072
3.29749
3.41748
3.85845
4.2645
4.8268
5.53213
6.29974
6.95905
7.34185
7.41208
7.22679
6.8821
6.46007
6.00293
5.52415
5.02731
4.51882
4.01423
3.53434
3.10059
2.72962
2.42971
2.20032
2.03416
1.92032
1.84737
1.80541
1.78693
1.78668
1.80289
1.82211
1.84162
1.86016
1.87745
1.89453
1.91388
1.93941
1.976
2.02873
2.10198
2.19857
2.319
2.46102
2.61926
2.78477
2.9448
3.08644
3.21327
3.31433
3.38127
3.41476
3.43124
3.44411
3.46376
3.49362
3.53555
3.59016
3.65739
3.7367
3.82701
3.92659
4.03284
4.14208
4.24959
4.3498
4.43694
4.5062
4.55459
4.58066
4.58294
4.55539
4.48178
4.34813
4.15577
3.92875
3.70717
3.53069
3.41586
3.3696
3.35914
3.26575
2.97387
2.53125
2.11523
1.90842
1.92159
2.2789
3.2509
4.82492
6.18173
6.43537
5.94923
5.26456
4.5687
3.93185
3.38519
2.95237
2.64072
2.43936
2.32533
2.27308
2.26135
2.27563
2.3077
2.35421
2.41697
2.49601
2.58835
2.69205
2.80559
2.92864
3.06258
3.21048
3.37636
3.56291
3.76899
3.98505
4.18345
4.29505
4.34432
4.33023
4.24847
4.10119
3.914
3.70715
3.49658
3.29394
3.10683
2.9397
2.79506
2.70091
2.75446
3.07311
3.71327
4.64652
5.79079
7.0412
8.27455
9.34713
10.1118
10.457
10.3441
9.82132
9.00507
8.03893
7.05201
6.13395
5.33137
4.65778
4.10658
3.66137
3.30244
3.01063
2.76962
2.56871
2.40403
2.27296
2.17258
2.09829
2.04285
1.99549
1.94744
1.89114
1.81913
1.73126
1.62391
1.48908
1.33219
1.1691
1.0279
0.952489
0.986511
1.13718
1.40184
1.87674
2.64435
6.59665
4.38348
4.36558
4.26495
4.33773
4.57645
4.84092
5.16212
5.53002
5.87959
6.13595
6.23215
6.14421
5.90005
5.55199
5.14882
4.72236
4.28807
3.85468
3.43179
3.03236
2.67088
2.35938
2.10473
1.90769
1.76391
1.6658
1.60466
1.57217
1.56121
1.56598
1.5817
1.60444
1.62869
1.64877
1.66194
1.66523
1.65602
1.63293
1.59696
1.55244
1.50727
1.47204
1.458
1.47466
1.52818
1.62105
1.75265
1.91989
2.1169
2.33386
2.55543
2.76
2.92105
3.00704
3.04523
3.05378
3.05702
3.07044
3.09804
3.14275
3.20687
3.29174
3.39803
3.52543
3.67227
3.83498
4.00776
4.18261
4.35007
4.50057
4.62598
4.7201
4.77781
4.79225
4.75119
4.646
4.48588
4.28722
4.0643
3.83236
3.61214
3.43094
3.30955
3.22577
3.10617
2.89472
2.62307
2.47542
2.68584
3.43629
4.76802
6.04706
6.18139
5.50526
4.72216
4.00424
3.39209
2.89591
2.51929
2.25586
2.08484
1.97949
1.91639
1.88018
1.86376
1.86586
1.88789
1.93107
1.99875
2.08231
2.17792
2.28199
2.39196
2.50715
2.62937
2.763
2.9139
3.08682
3.28309
3.4936
3.664
3.78774
3.84909
3.83963
3.7644
3.63855
3.48107
3.30931
3.13622
2.97014
2.81587
2.67596
2.55169
2.44591
2.37249
2.3676
2.48635
2.77556
3.25258
3.89596
4.64663
5.41849
6.11499
6.6457
6.9408
6.96452
6.72454
6.27074
5.67996
5.03335
4.39724
3.81468
3.30657
2.87755
2.5224
2.23122
1.99319
1.7988
1.64064
1.51303
1.41132
1.33102
1.26704
1.21347
1.16424
1.11376
1.05729
0.991423
0.922612
0.851416
0.782138
0.727103
0.707532
0.75656
0.907533
1.16844
1.55357
2.1514
2.91585
6.04654
5.15886
5.16893
5.04645
4.99729
4.9982
5.06655
5.16817
5.25981
5.29943
5.25512
5.11267
4.87972
4.57925
4.23758
3.87614
3.51006
3.1507
2.80893
2.49585
2.22146
1.99286
1.81296
1.68044
1.59054
1.53642
1.5106
1.50597
1.5164
1.53685
1.5633
1.59251
1.62186
1.65427
1.68754
1.71793
1.74025
1.74808
1.73439
1.69301
1.62106
1.52186
1.407
1.29532
1.20789
1.16101
1.16227
1.21193
1.30719
1.44543
1.62366
1.83542
2.06664
2.29144
2.4813
2.6143
2.68271
2.70836
2.72594
2.75025
2.78597
2.84043
2.91867
3.02499
3.16238
3.33175
3.53105
3.75435
3.99151
4.22897
4.45159
4.64466
4.79467
4.88878
4.91292
4.85806
4.73616
4.57045
4.38701
4.19849
3.99552
3.77843
3.55472
3.35562
3.21884
3.1566
3.13149
3.10876
3.23644
3.80094
4.81579
5.90264
6.09724
5.32565
4.45995
3.71791
3.11262
2.6335
2.27284
2.01802
1.84656
1.73237
1.65434
1.60031
1.56636
1.55365
1.56493
1.60211
1.66465
1.74744
1.84121
1.94128
2.04339
2.14479
2.24531
2.34815
2.45982
2.58837
2.74177
2.92367
3.0965
3.25087
3.36515
3.42034
3.40998
3.34136
3.23095
3.09742
2.95613
2.81705
2.68526
2.56265
2.44961
2.34624
2.25352
2.176
2.12126
2.10954
2.17034
2.33186
2.6086
2.99171
3.44529
3.91207
4.3278
4.63558
4.79406
4.78228
4.60385
4.28728
3.87886
3.42969
2.98362
2.57092
2.20778
1.89932
1.64346
1.4345
1.26557
1.13014
1.02248
0.937675
0.871299
0.819149
0.777104
0.741278
0.708285
0.675485
0.641259
0.605688
0.575054
0.553855
0.553514
0.595357
0.711672
0.933964
1.27405
1.75405
2.40092
3.02946
5.4725
5.59064
5.50101
5.34494
5.16585
5.0025
4.8944
4.80655
4.70953
4.5812
4.4089
4.19004
3.93086
3.64297
3.33944
3.03265
2.73375
2.45283
2.19881
1.9788
1.79725
1.65542
1.5513
1.48021
1.43593
1.412
1.4027
1.40364
1.41199
1.42631
1.44624
1.47193
1.50504
1.54931
1.60294
1.6627
1.72368
1.7788
1.81852
1.83095
1.80339
1.72602
1.59815
1.43453
1.26541
1.12543
1.03753
1.00676
1.0265
1.09053
1.19728
1.34746
1.5388
1.74906
1.95197
2.11313
2.21825
2.29685
2.36223
2.42085
2.47164
2.52957
2.60538
2.70916
2.84928
3.03132
3.2565
3.51999
3.80979
4.10715
4.3887
4.62873
4.80156
4.87653
4.84815
4.72853
4.54585
4.34004
4.15002
3.99415
3.85149
3.70671
3.54174
3.36014
3.21627
3.19084
3.31397
3.53759
3.99492
4.90055
5.90598
6.19824
5.38967
4.40647
3.61057
2.98852
2.50396
2.13778
1.87498
1.69463
1.5726
1.48871
1.43093
1.39488
1.38088
1.39058
1.42466
1.48182
1.55864
1.64772
1.74246
1.83766
1.92852
2.01209
2.08896
2.16433
2.24756
2.35
2.48461
2.63122
2.78588
2.92738
3.03063
3.07775
3.06468
3.00095
2.90391
2.7914
2.67663
2.56672
2.46383
2.36749
2.2765
2.1901
2.10877
2.03647
1.97639
1.93581
1.92826
1.97096
2.07804
2.25387
2.48917
2.75961
3.02819
3.25353
3.3999
3.44338
3.37467
3.20076
2.94389
2.63604
2.31063
1.99533
1.70865
1.46
1.25176
1.08177
0.94556
0.837913
0.753782
0.688646
0.638571
0.600132
0.570342
0.546628
0.526868
0.509474
0.493546
0.479263
0.46893
0.470147
0.495676
0.569115
0.725504
0.998354
1.40397
1.95445
2.57507
3.00178
5.17382
5.6146
5.46311
5.27188
5.06258
4.79574
4.57402
4.37607
4.18416
3.98459
3.76918
3.53508
3.28453
3.02363
2.76069
2.50452
2.26335
2.04414
1.85221
1.69084
1.56076
1.46011
1.38479
1.32954
1.28903
1.25886
1.23615
1.21972
1.21003
1.2087
1.2179
1.23957
1.27708
1.33098
1.4003
1.48301
1.57569
1.67298
1.7668
1.84533
1.89216
1.88714
1.81136
1.65987
1.45628
1.25044
1.09011
0.995675
0.95827
0.964708
1.00949
1.09445
1.22742
1.38975
1.57041
1.71692
1.83463
1.92702
2.00516
2.08016
2.15909
2.24336
2.3304
2.43719
2.57992
2.77081
3.01609
3.31323
3.64845
3.99579
4.31861
4.572
4.70727
4.70956
4.58097
4.35408
4.0838
3.82633
3.62403
3.49504
3.41987
3.37541
3.32739
3.24671
3.16828
3.20572
3.45281
3.87957
4.63393
5.77625
6.41991
5.77592
4.55548
3.64665
2.97693
2.46864
2.08316
1.80216
1.60745
1.47755
1.39235
1.33749
1.30533
1.29334
1.30154
1.33016
1.37821
1.44298
1.51993
1.60498
1.69303
1.77788
1.85386
1.91733
1.96933
2.01708
2.07322
2.15501
2.26
2.39257
2.53858
2.67336
2.77103
2.81528
2.80437
2.74934
2.6676
2.57588
2.48538
2.40072
2.32162
2.24565
2.17047
2.09496
2.01971
1.94905
1.88642
1.83572
1.80405
1.80135
1.83691
1.91428
2.02906
2.17029
2.3211
2.45869
2.55783
2.59711
2.56384
2.45649
2.28504
2.06862
1.83048
1.59239
1.37077
1.17552
1.01068
0.876013
0.768693
0.684717
0.619876
0.570291
0.532627
0.50412
0.482526
0.466044
0.453263
0.443162
0.435227
0.429846
0.42941
0.440816
0.479286
0.571583
0.756575
1.07136
1.53467
2.12313
2.66481
2.89316
5.93799
5.46902
5.28729
5.06675
4.81432
4.50117
4.2289
3.98606
3.76069
3.54171
3.32138
3.09587
2.86552
2.63408
2.40713
2.19063
1.98998
1.80954
1.6523
1.51935
1.40962
1.32012
1.24676
1.18525
1.13199
1.08471
1.0428
1.00733
0.980762
0.966264
0.966951
0.985222
1.02422
1.08271
1.16049
1.25657
1.36887
1.49374
1.62543
1.75512
1.86913
1.94691
1.9574
1.86754
1.67239
1.4235
1.20118
1.05645
0.980335
0.95099
0.956837
0.996116
1.08031
1.19161
1.31974
1.44753
1.56121
1.65667
1.73851
1.81503
1.8941
1.98187
2.08345
2.20096
2.34856
2.54696
2.80896
3.13512
3.50959
3.89587
4.23504
4.45953
4.52951
4.4228
4.16363
3.82151
3.47668
3.18817
2.98724
2.88347
2.8668
2.9143
2.98456
3.03203
3.0638
3.19195
3.54597
4.13249
5.13141
6.30837
6.35525
5.05212
3.8359
3.06492
2.51078
2.09419
1.78574
1.5689
1.42577
1.33675
1.28417
1.2552
1.24295
1.24532
1.26257
1.29514
1.34246
1.4025
1.47098
1.54766
1.62698
1.70151
1.76486
1.81243
1.84535
1.87241
1.91043
1.97029
2.06515
2.19416
2.34076
2.47744
2.5778
2.62708
2.62511
2.58331
2.51875
2.44736
2.37908
2.31666
2.25775
2.19809
2.13415
2.06451
1.99003
1.91577
1.8466
1.78594
1.73882
1.71225
1.71308
1.74372
1.79914
1.86924
1.94351
2.01165
2.06109
2.07766
2.04965
1.97186
1.8475
1.68764
1.50806
1.32507
1.15207
0.997927
0.866939
0.759736
0.674507
0.608159
0.557229
0.518454
0.489042
0.466749
0.449833
0.43697
0.427177
0.419794
0.414593
0.412214
0.415347
0.431465
0.477283
0.58279
0.790369
1.14157
1.65358
2.24974
2.68697
2.76038
6.86627
5.25116
5.04775
4.80489
4.50904
4.19277
3.91372
3.66646
3.4416
3.22925
3.02188
2.81529
2.60879
2.40436
2.20542
2.01588
1.83949
1.67934
1.53731
1.41357
1.30664
1.21383
1.13192
1.05781
0.989149
0.924876
0.865626
0.813721
0.772681
0.746476
0.738822
0.752762
0.790663
0.849271
0.928897
1.02955
1.15049
1.28943
1.44205
1.60157
1.75744
1.89797
1.99751
2.006
1.87179
1.61157
1.3301
1.13392
1.02369
0.970452
0.955505
0.972515
1.01958
1.09328
1.18603
1.28672
1.38482
1.4744
1.55527
1.63096
1.70653
1.78776
1.88202
1.99973
2.1531
2.35747
2.63335
2.9844
3.39189
3.80346
4.1401
4.33112
4.31369
4.07661
3.68777
3.25837
2.87927
2.59458
2.41489
2.3381
2.36294
2.47073
2.62393
2.77788
2.92181
3.14797
3.59093
4.3008
5.46463
6.46305
5.89646
4.32982
3.26618
2.62674
2.16475
1.81989
1.57158
1.40571
1.30522
1.25036
1.22238
1.2082
1.20229
1.20443
1.21649
1.24036
1.27691
1.32548
1.38316
1.4511
1.5223
1.58845
1.64321
1.68135
1.70391
1.72096
1.74702
1.8011
1.89608
2.03115
2.18734
2.33449
2.44585
2.50767
2.51989
2.49331
2.44494
2.3912
2.34194
2.29873
2.25739
2.21189
2.15745
2.09185
2.01585
1.93465
1.85497
1.78116
1.71801
1.67167
1.64862
1.65175
1.67633
1.71068
1.74272
1.7653
1.7743
1.76425
1.7281
1.66046
1.56097
1.43534
1.29396
1.14878
1.01039
0.886249
0.780326
0.693519
0.624564
0.570978
0.529871
0.498482
0.474469
0.455981
0.441632
0.430414
0.421623
0.414847
0.410086
0.408215
0.412237
0.430177
0.480052
0.59508
0.821035
1.20314
1.75235
2.33397
2.66739
2.6386
7.89393
4.94534
4.73579
4.50125
4.21015
3.91418
3.65157
3.42013
3.21203
3.01832
2.83178
2.64787
2.46483
2.28316
2.10483
1.93269
1.76984
1.61885
1.48119
1.35699
1.24529
1.14442
1.05227
0.966574
0.885417
0.808003
0.735255
0.669899
0.61604
0.578584
0.562713
0.573331
0.610781
0.66813
0.745464
0.843701
0.963689
1.10495
1.2648
1.43787
1.61046
1.77728
1.92913
2.02758
1.99383
1.78029
1.47136
1.22811
1.0779
0.9992
0.966744
0.969748
1.00244
1.05731
1.12664
1.20391
1.2838
1.36258
1.43851
1.51172
1.58382
1.65851
1.74285
1.84878
1.99397
2.20028
2.48715
2.85921
3.29196
3.7259
4.07117
4.223
4.10474
3.73551
3.24039
2.76361
2.38788
2.13142
1.98371
1.93374
1.98439
2.1212
2.31724
2.53883
2.76943
3.07977
3.59103
4.3953
5.62501
6.29261
5.26334
3.72879
2.83077
2.29472
1.90395
1.61541
1.41557
1.29225
1.22729
1.19757
1.18225
1.16976
1.15776
1.14871
1.14665
1.15548
1.17769
1.21343
1.26206
1.3221
1.3861
1.44544
1.49488
1.52905
1.54961
1.56483
1.59176
1.64981
1.75394
1.90339
2.07678
2.24173
2.37116
2.4509
2.47903
2.46531
2.42823
2.38661
2.35113
2.32235
2.29459
2.26087
2.21575
2.15613
2.08145
1.99515
1.90453
1.81598
1.73528
1.66875
1.62356
1.60438
1.60832
1.62342
1.63434
1.6314
1.61286
1.57956
1.53026
1.46209
1.37366
1.26757
1.15036
1.03062
0.91652
0.814103
0.726693
0.655096
0.598262
0.554074
0.520055
0.493844
0.473457
0.457355
0.444415
0.433851
0.425157
0.418096
0.412842
0.410458
0.414207
0.432533
0.484396
0.60527
0.845578
1.25189
1.82409
2.38146
2.62938
2.54315
8.93934
4.67873
4.43567
4.22596
3.95767
3.68806
3.44917
3.24045
3.05496
2.88427
2.72113
2.56033
2.39903
2.23656
2.07414
1.91427
1.75983
1.61316
1.47553
1.34737
1.2287
1.11929
1.01842
0.924605
0.835983
0.751204
0.670191
0.594269
0.525992
0.470385
0.439748
0.459892
0.504255
0.563574
0.638799
0.731976
0.845376
0.980062
1.13529
1.3102
1.48544
1.655
1.81653
1.953
1.99823
1.87485
1.6138
1.34299
1.1498
1.03836
0.985779
0.978636
1.00595
1.05349
1.11006
1.17108
1.23569
1.30326
1.37237
1.44135
1.50956
1.57881
1.65518
1.75071
1.88466
2.08256
2.36994
2.75755
3.22178
3.69146
4.04947
4.15868
3.93647
3.44588
2.87113
2.37621
2.0234
1.80315
1.68835
1.66313
1.7303
1.87776
2.08954
2.34486
2.62871
2.99873
3.55753
4.43019
5.62138
5.89923
4.61854
3.25315
2.50791
2.04605
1.70661
1.4606
1.30103
1.21383
1.17673
1.16177
1.14799
1.12767
1.10223
1.07691
1.05816
1.05183
1.06144
1.08664
1.12927
1.18173
1.23889
1.29223
1.33835
1.37189
1.39519
1.41684
1.45208
1.52165
1.64209
1.81235
2.00882
2.1974
2.35015
2.45002
2.49124
2.4834
2.44922
2.41143
2.38115
2.35748
2.33432
2.30593
2.26836
2.21846
2.15341
2.07144
1.97675
1.87756
1.7814
1.69557
1.62854
1.58765
1.57319
1.57471
1.57472
1.55913
1.52435
1.47399
1.41164
1.33793
1.25237
1.15622
1.05362
0.950678
0.853549
0.766913
0.693297
0.633177
0.585498
0.548346
0.519538
0.497028
0.479123
0.464532
0.452333
0.441908
0.432891
0.425174
0.419055
0.415741
0.418664
0.436525
0.48886
0.612628
0.861152
1.28414
1.86823
2.40115
2.58863
2.47733
9.44037
4.82009
4.20498
4.01912
3.77639
3.5255
3.30565
3.11757
2.95412
2.80649
2.6667
2.52836
2.38734
2.24204
2.09337
1.94398
1.79683
1.65409
1.51677
1.38537
1.26063
1.14372
1.03552
0.935863
0.843574
0.757278
0.676392
0.601617
0.535085
0.480522
0.443602
0.452448
0.492533
0.549925
0.621575
0.709065
0.81473
0.939799
1.08369
1.24281
1.40926
1.5724
1.72595
1.8649
1.95148
1.90676
1.70441
1.43972
1.22344
1.08588
1.01429
0.998042
1.02314
1.06846
1.11832
1.16875
1.22215
1.28041
1.34267
1.40653
1.47019
1.5345
1.60484
1.69297
1.81875
2.0103
2.29851
2.70096
3.19654
3.70344
4.07653
4.14626
3.82774
3.23064
2.59414
2.09442
1.76973
1.58493
1.50043
1.49791
1.57785
1.72829
1.94137
2.20589
2.51276
2.91827
3.5065
4.41907
5.47897
5.39332
4.04883
2.88883
2.25993
1.8548
1.55691
1.34726
1.21982
1.16071
1.14261
1.13348
1.11427
1.08173
1.04073
0.999259
0.965998
0.947813
0.948161
0.967334
1.0057
1.05047
1.10116
1.14944
1.19152
1.22712
1.25725
1.28861
1.33649
1.42257
1.56431
1.75986
1.98367
2.20043
2.37969
2.49811
2.54484
2.53221
2.49031
2.44548
2.40724
2.37317
2.33922
2.30413
2.26805
2.22949
2.18369
2.12094
2.03784
1.9412
1.83922
1.74032
1.6547
1.59314
1.56044
1.5494
1.54218
1.52064
1.47734
1.41586
1.34286
1.26233
1.17551
1.08357
0.989385
0.897364
0.812061
0.736899
0.673565
0.622092
0.581309
0.549403
0.524407
0.504525
0.488294
0.474618
0.462732
0.452141
0.442582
0.434043
0.426912
0.422489
0.424295
0.441102
0.492643
0.616702
0.868491
1.29928
1.88821
2.40115
2.55336
2.43874
8.68011
5.14128
4.13925
3.86406
3.6551
3.43012
3.22324
3.04759
2.89972
2.77079
2.65164
2.53434
2.41311
2.28512
2.15071
2.01248
1.87365
1.73658
1.60228
1.47116
1.34409
1.22281
1.10933
1.00499
0.909998
0.823912
0.746437
0.67812
0.620757
0.577264
0.55219
0.554888
0.579424
0.623058
0.684561
0.76394
0.861662
0.977525
1.10981
1.25501
1.40683
1.55568
1.69432
1.82072
1.91335
1.90627
1.75025
1.5067
1.28583
1.13348
1.0483
1.02552
1.0498
1.09443
1.14023
1.18384
1.22971
1.28109
1.3374
1.39599
1.45479
1.51445
1.5801
1.66319
1.78356
1.97071
2.25983
2.67548
3.20086
3.74611
4.14045
4.18364
3.7864
3.09802
2.40857
1.90703
1.60902
1.4563
1.3993
1.41766
1.50707
1.65631
1.86205
2.118
2.42726
2.85119
3.45412
4.37308
5.2353
4.86565
3.58336
2.6112
2.06796
1.70705
1.44333
1.26326
1.162
1.12393
1.11742
1.10946
1.08345
1.03878
0.983122
0.928439
0.88454
0.857831
0.851443
0.871681
0.904686
0.942381
0.984152
1.0275
1.06995
1.10946
1.14688
1.18906
1.25167
1.35728
1.5236
1.7475
2.00197
2.25057
2.45721
2.58831
2.62883
2.59883
2.53775
2.47262
2.40934
2.346
2.28403
2.22879
2.18536
2.1549
2.13233
2.10088
2.0483
1.97454
1.88444
1.7859
1.69041
1.61258
1.56296
1.53942
1.52574
1.50108
1.45371
1.3855
1.30468
1.21791
1.12834
1.03767
0.948237
0.863338
0.786296
0.719451
0.663708
0.618653
0.582964
0.554884
0.532606
0.514525
0.499357
0.486155
0.474271
0.463303
0.453068
0.443621
0.435418
0.42981
0.43033
0.445647
0.495303
0.617231
0.867762
1.29925
1.88671
2.38683
2.52626
2.42272
6.24041
5.16474
4.2144
3.79093
3.56709
3.37583
3.19142
3.02568
2.88533
2.76724
2.66337
2.56462
2.46319
2.35422
2.23652
2.11191
1.98368
1.85472
1.72665
1.60015
1.47592
1.35549
1.24104
1.13476
1.03814
0.951949
0.876614
0.812689
0.761158
0.723336
0.70308
0.704913
0.725815
0.764873
0.821746
0.896428
0.988579
1.09669
1.21768
1.34718
1.4793
1.60598
1.72126
1.82502
1.90364
1.9023
1.76785
1.54287
1.32768
1.17104
1.07998
1.05534
1.08033
1.12443
1.16731
1.2067
1.24811
1.29494
1.34648
1.40011
1.45407
1.50939
1.57133
1.651
1.76772
1.95125
2.23984
2.66475
3.21557
3.79895
4.22393
4.26223
3.81355
3.05252
2.31528
1.80931
1.53159
1.40393
1.36921
1.40382
1.49829
1.64238
1.83372
2.0702
2.37573
2.80795
3.41289
4.30062
4.9323
4.3761
3.21887
2.39881
1.91913
1.59348
1.35787
1.20172
1.12066
1.09709
1.09708
1.08846
1.05687
1.00387
0.939722
0.877404
0.828113
0.798645
0.790622
0.802479
0.827474
0.859562
0.897283
0.938892
0.982135
1.02535
1.06975
1.12284
1.20131
1.3286
1.52198
1.77669
2.06512
2.3486
2.58048
2.71373
2.7335
2.67365
2.58189
2.48173
2.37622
2.26818
2.1668
2.08322
2.02571
1.99722
1.99353
1.99558
1.98541
1.95289
1.89467
1.81434
1.72254
1.63686
1.57427
1.53929
1.5193
1.49244
1.44324
1.37112
1.28483
1.19306
1.10066
1.01007
0.923439
0.843333
0.77214
0.711317
0.661111
0.620724
0.588702
0.563321
0.542898
0.52597
0.511388
0.498314
0.486189
0.47468
0.463665
0.453257
0.443957
0.437136
0.43627
0.449771
0.496623
0.614215
0.859209
1.28479
1.86584
2.36091
2.50647
2.42386
2.87397
4.57494
4.26735
3.83963
3.55118
3.35052
3.18443
3.03535
2.90387
2.79192
2.69685
2.61204
2.52937
2.44188
2.34562
2.24014
2.1276
2.01109
1.89322
1.77569
1.65962
1.54631
1.43756
1.33543
1.2419
1.1585
1.08631
1.02612
0.978595
0.944261
0.928088
0.929206
0.948075
0.985043
1.0401
1.1125
1.20028
1.29996
1.40673
1.51526
1.61988
1.71432
1.79565
1.86662
1.91699
1.89802
1.76175
1.5471
1.34231
1.18974
1.10144
1.08111
1.10885
1.15238
1.19297
1.23007
1.26928
1.31333
1.36107
1.41014
1.45948
1.51082
1.56974
1.64694
1.76067
1.93985
2.22421
2.65117
3.21925
3.838
4.30446
4.36633
3.90412
3.09838
2.32087
1.80405
1.53321
1.41629
1.39344
1.43726
1.53178
1.6662
1.83788
2.05648
2.36646
2.79597
3.38974
4.20413
4.59666
3.94122
2.93051
2.23074
1.80093
1.50486
1.29298
1.15627
1.09023
1.07609
1.07999
1.07157
1.03814
0.982612
0.916025
0.851809
0.801377
0.7698
0.756614
0.763386
0.783167
0.811103
0.845927
0.886341
0.930379
0.976716
1.02737
1.09125
1.18673
1.33795
1.56087
1.84928
2.17576
2.49627
2.74704
2.86721
2.85064
2.74983
2.61608
2.4669
2.30703
2.1478
2.00523
1.89306
1.81986
1.7887
1.79623
1.82515
1.8568
1.87293
1.86023
1.81412
1.74073
1.65804
1.58866
1.54474
1.51893
1.49012
1.44008
1.3657
1.27565
1.1801
1.0854
0.994655
0.909962
0.833345
0.766461
0.710076
0.663918
0.626898
0.597462
0.57392
0.554682
0.538397
0.524013
0.510773
0.498186
0.485978
0.474078
0.462647
0.452222
0.444167
0.441841
0.45326
0.496511
0.607747
0.843126
1.25667
1.82709
2.32404
2.49092
2.43653
0.616567
3.44619
4.09434
3.97101
3.68965
3.43555
3.2343
3.07312
2.94031
2.83013
2.73885
2.6616
2.59176
2.52213
2.44684
2.36271
2.26957
2.16941
2.06512
1.95943
1.85457
1.75241
1.65474
1.56338
1.48013
1.40652
1.34378
1.29284
1.25438
1.22894
1.22286
1.23324
1.26074
1.30525
1.36547
1.43867
1.52052
1.60545
1.68741
1.76101
1.82184
1.86687
1.89845
1.92311
1.93044
1.874
1.71846
1.50986
1.32074
1.18156
1.10703
1.09885
1.13206
1.17522
1.21394
1.24978
1.28776
1.3295
1.3735
1.41794
1.46271
1.51037
1.56671
1.64172
1.75198
1.92431
2.19809
2.61591
3.18826
3.83645
4.35675
4.47779
4.05156
3.24229
2.43952
1.90521
1.6221
1.49186
1.46071
1.50035
1.58839
1.71074
1.86866
2.0888
2.40951
2.81992
3.39306
4.10909
4.30093
3.61384
2.72862
2.11293
1.71893
1.44502
1.25075
1.1276
1.07071
1.06155
1.06806
1.06196
1.03137
0.979215
0.916092
0.854946
0.806083
0.773306
0.757041
0.759262
0.773715
0.797705
0.830099
0.869398
0.913624
0.962085
1.01839
1.09384
1.20904
1.38815
1.6449
1.97253
2.34364
2.70209
2.9596
3.04629
2.97708
2.82417
2.63583
2.42555
2.2057
1.99653
1.81726
1.68079
1.59376
1.55814
1.57105
1.62079
1.68934
1.75256
1.78874
1.78462
1.73965
1.66952
1.60045
1.55162
1.52157
1.49117
1.4407
1.36498
1.27242
1.17427
1.07801
0.987298
0.90416
0.830194