/*--------------------------------*- C++ -*----------------------------------*\
| =========                 |                                                 |
| \\      /  F ield         | OpenFOAM: The Open Source CFD Toolbox           |
|  \\    /   O peration     | Version:  2112                                  |
|   \\  /    A nd           | Website:  www.openfoam.com                      |
|    \\/     M anipulation  |                                                 |
\*---------------------------------------------------------------------------*/
FoamFile
{
    version     2.0;
    format      ascii;
    arch        "LSB;label=32;scalar=64";
    class       surfaceScalarField;
    location    "0.25";
    object      phi_0;
}
// * * * * * * * * * * * * * * * * * * * * * * * * * * * * * * * * * * * * * //

dimensions      [0 3 -1 0 0 0 0];

oriented        oriented;

internalField   nonuniform List<scalar> 
24170
(
3.03861e-06
1.49796e-07
2.86414e-06
1.74474e-07
2.69199e-06
1.72147e-07
2.52075e-06
1.71239e-07
2.35482e-06
1.65932e-07
2.19805e-06
1.56765e-07
2.0526e-06
1.45449e-07
1.91976e-06
1.32849e-07
1.80028e-06
1.19473e-07
1.69444e-06
1.05842e-07
1.60197e-06
9.24731e-08
1.52212e-06
7.98502e-08
1.45368e-06
6.84408e-08
1.39491e-06
5.87681e-08
1.34329e-06
5.16145e-08
1.29484e-06
4.84507e-08
1.24138e-06
5.34625e-08
8.03771e-08
1.161e-06
3.495e-06
7.2043e-08
3.55171e-06
1.17768e-07
3.59085e-06
1.33006e-07
3.61241e-06
1.49678e-07
3.61724e-06
1.61102e-07
3.60791e-06
1.66095e-07
3.58719e-06
1.66166e-07
3.55782e-06
1.62226e-07
3.52241e-06
1.5488e-07
3.48336e-06
1.44889e-07
3.44267e-06
1.3316e-07
3.40187e-06
1.20653e-07
3.36194e-06
1.08368e-07
3.32327e-06
9.74437e-08
3.28541e-06
8.94749e-08
3.24677e-06
8.70888e-08
3.20421e-06
9.6023e-08
1.23752e-07
3.16083e-06
3.67876e-06
5.58023e-08
3.69645e-06
1.00071e-07
3.71625e-06
1.13213e-07
3.73995e-06
1.2598e-07
3.76549e-06
1.3556e-07
3.79143e-06
1.40149e-07
3.81654e-06
1.41056e-07
3.83966e-06
1.39105e-07
3.85994e-06
1.34606e-07
3.87688e-06
1.27947e-07
3.89034e-06
1.19702e-07
3.90041e-06
1.10588e-07
3.9073e-06
1.01475e-07
3.9113e-06
9.34402e-08
3.91276e-06
8.80159e-08
3.91241e-06
8.74417e-08
3.91311e-06
9.53187e-08
1.13814e-07
3.92305e-06
3.93543e-06
4.57575e-08
3.94536e-06
9.01484e-08
3.95359e-06
1.04977e-07
3.96313e-06
1.16438e-07
3.97369e-06
1.25003e-07
3.98509e-06
1.28749e-07
3.99737e-06
1.28771e-07
4.01034e-06
1.26142e-07
4.0236e-06
1.2134e-07
4.03675e-06
1.14795e-07
4.04938e-06
1.07079e-07
4.06111e-06
9.88578e-08
4.0717e-06
9.08844e-08
4.08106e-06
8.40799e-08
4.08945e-06
7.9626e-08
4.09782e-06
7.9067e-08
4.10925e-06
8.3888e-08
9.50902e-08
4.12798e-06
4.21515e-06
3.77295e-08
4.22457e-06
8.07382e-08
4.23229e-06
9.72497e-08
4.24051e-06
1.08222e-07
4.24916e-06
1.16351e-07
4.25792e-06
1.19988e-07
4.26679e-06
1.19905e-07
4.27571e-06
1.17217e-07
4.28457e-06
1.12487e-07
4.2932e-06
1.06161e-07
4.30147e-06
9.88051e-08
4.30927e-06
9.1064e-08
4.31652e-06
8.36319e-08
4.32331e-06
7.72944e-08
4.33001e-06
7.2918e-08
4.33767e-06
7.14161e-08
4.34849e-06
7.30591e-08
7.69902e-08
4.36659e-06
4.51547e-06
3.13441e-08
4.52455e-06
7.16621e-08
4.53258e-06
8.92193e-08
4.54099e-06
9.98077e-08
4.54992e-06
1.0742e-07
4.55896e-06
1.10952e-07
4.56797e-06
1.10891e-07
4.57689e-06
1.08303e-07
4.58557e-06
1.03807e-07
4.59388e-06
9.78466e-08
4.60174e-06
9.09475e-08
4.6091e-06
8.37021e-08
4.61601e-06
7.67232e-08
4.62267e-06
7.06378e-08
4.62957e-06
6.60168e-08
4.63775e-06
6.32384e-08
4.64892e-06
6.18835e-08
6.02584e-08
4.66565e-06
4.83785e-06
2.62128e-08
4.84643e-06
6.30855e-08
4.8546e-06
8.10432e-08
4.86313e-06
9.12847e-08
4.87226e-06
9.82831e-08
4.88162e-06
1.01594e-07
4.89099e-06
1.01518e-07
4.90028e-06
9.9014e-08
4.90935e-06
9.47359e-08
4.91808e-06
8.91251e-08
4.92637e-06
8.26576e-08
4.93421e-06
7.58571e-08
4.9417e-06
6.92378e-08
4.94907e-06
6.32638e-08
4.95683e-06
5.82524e-08
4.96586e-06
5.42132e-08
4.97731e-06
5.04298e-08
4.51298e-08
4.99244e-06
5.18376e-06
2.20342e-08
5.19174e-06
5.51065e-08
5.19997e-06
7.28122e-08
5.2086e-06
8.26566e-08
5.21789e-06
8.89879e-08
5.22751e-06
9.19796e-08
5.23718e-06
9.18485e-08
5.24678e-06
8.94132e-08
5.25619e-06
8.53257e-08
5.26529e-06
8.00223e-08
5.27402e-06
7.39284e-08
5.28238e-06
6.74925e-08
5.29049e-06
6.11295e-08
5.29859e-06
5.51614e-08
5.30712e-06
4.97227e-08
5.31671e-06
4.46261e-08
5.32802e-06
3.91258e-08
3.17411e-08
5.3414e-06
5.5548e-06
1.85745e-08
5.56216e-06
4.77399e-08
5.57038e-06
6.45981e-08
5.57911e-06
7.39234e-08
5.58854e-06
7.95595e-08
5.59837e-06
8.21505e-08
5.6083e-06
8.19152e-08
5.61819e-06
7.95254e-08
5.62792e-06
7.5598e-08
5.63738e-06
7.05566e-08
5.64653e-06
6.47767e-08
5.65539e-06
5.86329e-08
5.66407e-06
5.24503e-08
5.67279e-06
4.64433e-08
5.68188e-06
4.06391e-08
5.69171e-06
3.47913e-08
5.70256e-06
2.82769e-08
2.00562e-08
5.71424e-06
5.9527e-06
1.56497e-08
5.95949e-06
4.09517e-08
5.96761e-06
5.64739e-08
5.97643e-06
6.51075e-08
5.98597e-06
7.00177e-08
5.99599e-06
7.21347e-08
6.00617e-06
7.1732e-08
6.01634e-06
6.93517e-08
6.02639e-06
6.55488e-08
6.03623e-06
6.07229e-08
6.0458e-06
5.52026e-08
6.05514e-06
4.92946e-08
6.06434e-06
4.32508e-08
6.07357e-06
3.72155e-08
6.08303e-06
3.11731e-08
6.09291e-06
2.49093e-08
6.1032e-06
1.79899e-08
9.80476e-09
6.11345e-06
6.37934e-06
1.31199e-08
6.38561e-06
3.4684e-08
6.39359e-06
4.84979e-08
6.40245e-06
5.62389e-08
6.4121e-06
6.03763e-08
6.42228e-06
6.19546e-08
6.43269e-06
6.13156e-08
6.44314e-06
5.88986e-08
6.45351e-06
5.518e-08
6.46371e-06
5.05234e-08
6.4737e-06
4.52134e-08
6.4835e-06
3.94999e-08
6.49317e-06
3.35806e-08
6.50282e-06
2.75633e-08
6.51256e-06
2.1436e-08
6.5224e-06
1.50617e-08
6.5322e-06
8.19694e-09
5.70788e-10
6.54143e-06
5.74275e-06
1.12008e-08
5.7477e-06
2.974e-08
5.75429e-06
4.19029e-08
5.7618e-06
4.87299e-08
5.77001e-06
5.21652e-08
5.77872e-06
5.32435e-08
5.78769e-06
5.23507e-08
5.79673e-06
4.98598e-08
5.80573e-06
4.61772e-08
5.81463e-06
4.16279e-08
5.82338e-06
3.64618e-08
5.83199e-06
3.08902e-08
5.84049e-06
2.50787e-08
5.84893e-06
1.9123e-08
5.85733e-06
1.30336e-08
5.86564e-06
6.74863e-09
5.87369e-06
1.52038e-10
-6.796e-09
5.88106e-06
7.00016e-06
9.19512e-09
7.00548e-06
2.442e-08
7.01285e-06
3.45348e-08
7.02143e-06
4.01478e-08
7.03089e-06
4.27074e-08
7.04097e-06
4.31614e-08
7.0514e-06
4.19175e-08
7.06198e-06
3.92889e-08
7.07255e-06
3.56036e-08
7.08304e-06
3.11367e-08
7.0934e-06
2.61012e-08
7.10362e-06
2.06731e-08
7.1137e-06
1.49944e-08
7.12366e-06
9.1605e-09
7.13348e-06
3.21668e-09
7.14305e-06
-2.82338e-09
7.15217e-06
-8.9616e-09
-1.50783e-08
7.16045e-06
8.53294e-06
7.10386e-09
8.53862e-06
1.87413e-08
8.54675e-06
2.64046e-08
8.55644e-06
3.04564e-08
8.56722e-06
3.19215e-08
8.57879e-06
3.15979e-08
8.59083e-06
2.98794e-08
8.60309e-06
2.70222e-08
8.61542e-06
2.32731e-08
8.62771e-06
1.88482e-08
8.63989e-06
1.39205e-08
8.65193e-06
8.6351e-09
8.66381e-06
3.11766e-09
8.6755e-06
-2.52944e-09
8.68694e-06
-8.22724e-09
8.69802e-06
-1.38991e-08
8.70853e-06
-1.94774e-08
-2.47577e-08
8.71821e-06
1.04014e-05
4.91935e-09
1.04074e-05
1.27043e-08
1.04163e-05
1.75283e-08
1.04271e-05
1.96448e-08
1.04393e-05
1.97517e-08
1.04524e-05
1.84638e-08
1.04662e-05
1.61189e-08
1.04803e-05
1.29129e-08
1.04946e-05
9.01271e-09
1.05088e-05
4.5687e-09
1.05231e-05
-2.8847e-10
1.05371e-05
-5.44228e-09
1.0551e-05
-1.07808e-08
1.05647e-05
-1.61974e-08
1.05781e-05
-2.15925e-08
1.0591e-05
-2.68572e-08
1.06034e-05
-3.18995e-08
-3.6498e-08
1.06152e-05
1.26791e-05
2.62569e-09
1.26855e-05
6.28255e-09
1.26951e-05
7.90683e-09
1.27071e-05
7.7119e-09
1.27206e-05
6.1645e-09
1.27354e-05
3.69241e-09
1.2751e-05
5.41615e-10
1.27671e-05
-3.16267e-09
1.27834e-05
-7.33102e-09
1.27999e-05
-1.18795e-08
1.28163e-05
-1.67251e-08
1.28326e-05
-2.17818e-08
1.28488e-05
-2.69557e-08
1.28648e-05
-3.21475e-08
1.28804e-05
-3.72568e-08
1.28957e-05
-4.21751e-08
1.29107e-05
-4.68212e-08
-5.10046e-08
1.29252e-05
1.54556e-05
1.94259e-10
1.54625e-05
-5.95868e-10
1.54729e-05
-2.50802e-09
1.5486e-05
-5.36886e-09
1.5501e-05
-8.87302e-09
1.55175e-05
-1.27687e-08
1.5535e-05
-1.69256e-08
1.55531e-05
-2.13008e-08
1.55716e-05
-2.58803e-08
1.55904e-05
-3.06468e-08
1.56092e-05
-3.55677e-08
1.56281e-05
-4.05924e-08
1.56468e-05
-4.56536e-08
1.56653e-05
-5.06728e-08
1.56836e-05
-5.55683e-08
1.57017e-05
-6.02537e-08
1.57195e-05
-6.46729e-08
-6.8686e-08
1.57372e-05
1.88403e-05
-2.50058e-09
1.88478e-05
-8.05259e-09
1.88591e-05
-1.38632e-08
1.88735e-05
-1.9719e-08
1.88901e-05
-2.54595e-08
1.89083e-05
-3.10078e-08
1.89278e-05
-3.6365e-08
1.8948e-05
-4.158e-08
1.89689e-05
-4.67152e-08
1.899e-05
-5.18186e-08
1.90114e-05
-5.69099e-08
1.90328e-05
-6.19787e-08
1.90541e-05
-6.69904e-08
1.90753e-05
-7.18948e-08
1.90964e-05
-7.66365e-08
1.91173e-05
-8.11567e-08
1.91381e-05
-8.54219e-08
-8.93421e-08
1.91587e-05
2.29663e-05
-5.49156e-09
2.29747e-05
-1.64323e-08
2.29874e-05
-2.65657e-08
2.30034e-05
-3.57036e-08
2.30218e-05
-4.38803e-08
2.3042e-05
-5.12369e-08
2.30636e-05
-5.79242e-08
2.30861e-05
-6.40889e-08
2.31093e-05
-6.98708e-08
2.31328e-05
-7.53823e-08
2.31566e-05
-8.06923e-08
2.31805e-05
-8.58277e-08
2.32043e-05
-9.07844e-08
2.32279e-05
-9.55386e-08
2.32513e-05
-1.00058e-07
2.32745e-05
-1.04306e-07
2.32973e-05
-1.08264e-07
-1.1188e-07
2.33199e-05
1.68129e-05
-7.72663e-09
1.68191e-05
-2.2622e-08
1.68283e-05
-3.57521e-08
1.68396e-05
-4.70098e-08
1.68524e-05
-5.66932e-08
1.68663e-05
-6.51515e-08
1.68811e-05
-7.26344e-08
1.68963e-05
-7.93491e-08
1.69119e-05
-8.54921e-08
1.69278e-05
-9.12202e-08
1.69437e-05
-9.66298e-08
1.69597e-05
-1.01766e-07
1.69755e-05
-1.06639e-07
1.69912e-05
-1.11235e-07
1.70067e-05
-1.1553e-07
1.70219e-05
-1.19497e-07
1.70367e-05
-1.23115e-07
-1.26352e-07
1.70512e-05
1.46367e-05
-9.87616e-09
1.46426e-05
-2.8467e-08
1.46509e-05
-4.4129e-08
1.46609e-05
-5.6959e-08
1.46719e-05
-6.76901e-08
1.46836e-05
-7.69034e-08
1.46959e-05
-8.49071e-08
1.47085e-05
-9.19559e-08
1.47213e-05
-9.83023e-08
1.47342e-05
-1.04138e-07
1.47472e-05
-1.09576e-07
1.47601e-05
-1.14671e-07
1.47729e-05
-1.19439e-07
1.47855e-05
-1.23872e-07
1.4798e-05
-1.27947e-07
1.48101e-05
-1.31636e-07
1.48219e-05
-1.34919e-07
-1.37767e-07
1.48333e-05
1.27424e-05
-1.21233e-08
1.27483e-05
-3.43754e-08
1.27563e-05
-5.21224e-08
1.27653e-05
-6.5986e-08
1.2775e-05
-7.73657e-08
1.27851e-05
-8.70269e-08
1.27955e-05
-9.52825e-08
1.2806e-05
-1.02449e-07
1.28165e-05
-1.08848e-07
1.28271e-05
-1.14694e-07
1.28376e-05
-1.20105e-07
1.28481e-05
-1.25136e-07
1.28584e-05
-1.29806e-07
1.28687e-05
-1.34105e-07
1.28787e-05
-1.38005e-07
1.28886e-05
-1.41469e-07
1.28981e-05
-1.44467e-07
-1.46965e-07
1.29073e-05
1.10935e-05
-1.46838e-08
1.10998e-05
-4.06936e-08
1.11076e-05
-5.9948e-08
1.11159e-05
-7.42969e-08
1.11246e-05
-8.60335e-08
1.11335e-05
-9.5922e-08
1.11424e-05
-1.04214e-07
1.11513e-05
-1.11323e-07
1.11601e-05
-1.17644e-07
1.11688e-05
-1.23409e-07
1.11775e-05
-1.28732e-07
1.1186e-05
-1.33673e-07
1.11944e-05
-1.38249e-07
1.12028e-05
-1.42446e-07
1.1211e-05
-1.46225e-07
1.12191e-05
-1.49539e-07
1.12269e-05
-1.52346e-07
-1.54601e-07
1.12346e-05
9.65836e-06
-1.78327e-08
9.6654e-06
-4.77308e-08
9.67316e-06
-6.77041e-08
9.68083e-06
-8.19751e-08
9.68861e-06
-9.38093e-08
9.69639e-06
-1.03702e-07
9.70402e-06
-1.11845e-07
9.71148e-06
-1.18782e-07
9.7188e-06
-1.24958e-07
9.72598e-06
-1.30594e-07
9.73305e-06
-1.35802e-07
9.74003e-06
-1.40648e-07
9.74692e-06
-1.45147e-07
9.75376e-06
-1.49279e-07
9.76053e-06
-1.52995e-07
9.76722e-06
-1.5623e-07
9.7738e-06
-1.58925e-07
-1.61012e-07
9.78021e-06
8.40943e-06
-2.19107e-08
8.41728e-06
-5.55761e-08
8.42495e-06
-7.53785e-08
8.43223e-06
-8.92539e-08
8.43944e-06
-1.01021e-07
8.44639e-06
-1.10657e-07
8.45297e-06
-1.18423e-07
8.45923e-06
-1.25039e-07
8.46523e-06
-1.30956e-07
8.47101e-06
-1.36375e-07
8.47661e-06
-1.41404e-07
8.48207e-06
-1.46108e-07
8.48743e-06
-1.50508e-07
8.49273e-06
-1.54579e-07
8.498e-06
-1.58265e-07
8.50325e-06
-1.61477e-07
8.50847e-06
-1.64142e-07
-1.66122e-07
8.51358e-06
7.32291e-06
-2.75374e-08
7.33134e-06
-6.40035e-08
7.33839e-06
-8.24311e-08
7.34495e-06
-9.58166e-08
7.35141e-06
-1.07474e-07
7.35744e-06
-1.16695e-07
7.36302e-06
-1.23994e-07
7.36822e-06
-1.3024e-07
7.37313e-06
-1.35865e-07
7.37782e-06
-1.41065e-07
7.38237e-06
-1.45963e-07
7.38689e-06
-1.50626e-07
7.39147e-06
-1.55084e-07
7.39621e-06
-1.59317e-07
7.40121e-06
-1.63267e-07
7.40657e-06
-1.66834e-07
7.41235e-06
-1.69923e-07
-1.72313e-07
7.41854e-06
6.37802e-06
-3.54904e-08
6.38751e-06
-7.34966e-08
6.39423e-06
-8.91474e-08
6.40051e-06
-1.02101e-07
6.40681e-06
-1.13773e-07
6.41304e-06
-1.22918e-07
6.41941e-06
-1.30371e-07
6.42616e-06
-1.36986e-07
6.4334e-06
-1.43111e-07
6.44127e-06
-1.48933e-07
6.44991e-06
-1.54597e-07
6.45947e-06
-1.60188e-07
6.4701e-06
-1.65716e-07
6.48192e-06
-1.71135e-07
6.495e-06
-1.76352e-07
6.50944e-06
-1.8127e-07
6.5252e-06
-1.85687e-07
-1.89456e-07
6.54235e-06
5.55665e-06
-4.66719e-08
5.57113e-06
-8.79766e-08
5.58527e-06
-1.0329e-07
5.60218e-06
-1.19011e-07
5.6213e-06
-1.32895e-07
5.64198e-06
-1.43601e-07
5.66391e-06
-1.52296e-07
5.68674e-06
-1.59819e-07
5.71011e-06
-1.66481e-07
5.73366e-06
-1.72483e-07
5.75703e-06
-1.77966e-07
5.77984e-06
-1.82995e-07
5.8017e-06
-1.87578e-07
5.82224e-06
-1.91678e-07
5.84109e-06
-1.95203e-07
5.8579e-06
-1.98081e-07
5.87236e-06
-2.0014e-07
-2.01719e-07
5.88462e-06
4.89345e-06
-1.12519e-07
4.95253e-06
-1.47053e-07
5.00285e-06
-1.53613e-07
5.04327e-06
-1.59428e-07
5.07193e-06
-1.61552e-07
5.08887e-06
-1.60542e-07
5.09476e-06
-1.5819e-07
5.09029e-06
-1.5535e-07
5.07613e-06
-1.52316e-07
5.05289e-06
-1.49242e-07
5.02112e-06
-1.46202e-07
4.98133e-06
-1.43203e-07
4.93396e-06
-1.4021e-07
4.87945e-06
-1.37169e-07
4.81825e-06
-1.33997e-07
4.75082e-06
-1.30648e-07
4.67766e-06
-1.26987e-07
-1.23191e-07
4.59914e-06
4.09016e-06
3.9431e-06
3.78949e-06
3.63006e-06
3.46851e-06
3.30797e-06
3.14978e-06
2.99443e-06
2.84211e-06
2.69287e-06
2.54667e-06
2.40347e-06
2.26326e-06
2.12609e-06
1.99209e-06
1.86144e-06
1.73446e-06
1.61126e-06
2.50358e-07
-2.50358e-07
8.10382e-07
-5.60024e-07
1.41014e-06
-5.99756e-07
1.91671e-06
-5.06573e-07
2.28781e-06
-3.71098e-07
2.52001e-06
-2.32203e-07
2.62525e-06
-1.05236e-07
2.62391e-06
1.33425e-09
2.5177e-06
1.06216e-07
2.33657e-06
1.81124e-07
2.11296e-06
2.23612e-07
1.88525e-06
2.27713e-07
1.69044e-06
1.94812e-07
1.54803e-06
1.42404e-07
1.43254e-06
1.15489e-07
1.29048e-06
1.42063e-07
1.0711e-06
2.19376e-07
7.24536e-07
3.46569e-07
2.18908e-07
5.05627e-07
-4.46101e-07
6.6501e-07
-1.24724e-06
8.01143e-07
-2.15238e-06
9.05133e-07
-3.12367e-06
9.7129e-07
-4.12199e-06
9.98322e-07
-5.11033e-06
9.88339e-07
-6.05596e-06
9.4563e-07
-6.93145e-06
8.75487e-07
-7.71421e-06
7.82758e-07
-8.38743e-06
6.7323e-07
-8.94036e-06
5.52925e-07
-9.36773e-06
4.27373e-07
-9.66884e-06
3.01109e-07
-9.8471e-06
1.78255e-07
-9.90923e-06
6.21287e-08
-9.87246e-06
-3.6768e-08
-9.75314e-06
-1.19321e-07
-9.5634e-06
-1.89733e-07
-9.31425e-06
-2.4915e-07
-9.01486e-06
-2.99395e-07
-8.67294e-06
-3.41916e-07
-8.29507e-06
-3.77875e-07
-7.8867e-06
-4.08372e-07
-7.45217e-06
-4.34528e-07
-6.99488e-06
-4.57291e-07
-6.51744e-06
-4.77431e-07
-6.02204e-06
-4.95402e-07
-5.51078e-06
-5.11264e-07
-4.98607e-06
-5.24708e-07
-4.45093e-06
-5.3514e-07
-3.90908e-06
-5.41849e-07
-3.36488e-06
-5.44204e-07
-2.82311e-06
-5.41771e-07
-2.28867e-06
-5.34439e-07
-1.76616e-06
-5.22509e-07
-1.25939e-06
-5.06771e-07
-7.70785e-07
-4.88603e-07
-3.00817e-07
-4.69968e-07
1.50726e-07
-4.51543e-07
5.84204e-07
-4.33478e-07
1.00075e-06
-4.16548e-07
1.40249e-06
-4.01737e-07
1.79059e-06
-3.88097e-07
2.16538e-06
-3.74792e-07
2.52743e-06
-3.62051e-07
2.87748e-06
-3.50049e-07
3.21597e-06
-3.38489e-07
3.54255e-06
-3.26584e-07
3.85606e-06
-3.13508e-07
4.15463e-06
-2.98567e-07
4.43626e-06
-2.81637e-07
4.69922e-06
-2.62953e-07
4.93398e-06
-2.34765e-07
5.09612e-06
-1.6214e-07
5.10804e-06
-1.19142e-08
4.91245e-06
1.95589e-07
4.5613e-06
3.51143e-07
4.16703e-06
3.94269e-07
3.83619e-06
3.30843e-07
3.62018e-06
2.1601e-07
3.51275e-06
1.0743e-07
3.48605e-06
2.67013e-08
3.52461e-06
-3.85553e-08
3.59813e-06
-7.35204e-08
3.62029e-06
-2.21674e-08
3.54877e-06
7.15227e-08
3.42756e-06
1.21213e-07
3.35083e-06
7.67241e-08
3.35169e-06
-8.52697e-10
3.38799e-06
-3.63032e-08
3.41766e-06
-2.96703e-08
3.4579e-06
-4.02414e-08
3.53806e-06
-8.01558e-08
3.63114e-06
-9.30859e-08
3.65413e-06
-2.29896e-08
3.51474e-06
1.39395e-07
3.1123e-06
4.02442e-07
2.36367e-06
7.48623e-07
1.26919e-06
1.09448e-06
-8.56564e-08
1.35485e-06
-1.58348e-06
1.49782e-06
-3.10678e-06
1.52331e-06
-4.56317e-06
1.45638e-06
-5.88845e-06
1.32528e-06
-7.04225e-06
1.1538e-06
-8.00536e-06
9.63113e-07
-8.77151e-06
7.66145e-07
-9.34127e-06
5.69758e-07
-9.71907e-06
3.778e-07
-9.91459e-06
1.95526e-07
-9.93506e-06
2.04686e-08
-9.81815e-06
-1.16915e-07
-9.57513e-06
-2.43019e-07
-9.21669e-06
-3.58438e-07
-8.74951e-06
-4.67177e-07
-8.17761e-06
-5.71905e-07
-7.50263e-06
-6.74975e-07
-6.72402e-06
-7.78609e-07
-5.83954e-06
-8.84484e-07
-4.84681e-06
-9.92728e-07
-3.74581e-06
-1.101e-06
-2.54204e-06
-1.20377e-06
-1.2491e-06
-1.29294e-06
1.11241e-07
-1.36034e-06
1.50696e-06
-1.39572e-06
2.89625e-06
-1.38929e-06
4.23274e-06
-1.33649e-06
5.473e-06
-1.24026e-06
6.58076e-06
-1.10776e-06
7.52694e-06
-9.46181e-07
8.28638e-06
-7.59438e-07
8.84112e-06
-5.54743e-07
9.15504e-06
-3.13923e-07
9.14976e-06
5.27834e-09
8.7603e-06
3.89461e-07
8.04973e-06
7.10576e-07
7.14423e-06
9.05493e-07
6.19383e-06
9.50402e-07
5.32774e-06
8.66088e-07
4.6133e-06
7.14447e-07
4.05248e-06
5.60821e-07
3.60768e-06
4.44792e-07
3.23539e-06
3.72291e-07
2.90844e-06
3.26954e-07
2.62e-06
2.88436e-07
2.3736e-06
2.46398e-07
2.17241e-06
2.01199e-07
2.0152e-06
1.57205e-07
1.89706e-06
1.18136e-07
1.81149e-06
8.55744e-08
1.75187e-06
5.96166e-08
1.71197e-06
3.99068e-08
1.68587e-06
2.60917e-08
1.66812e-06
1.7754e-08
1.65386e-06
1.42614e-08
1.63911e-06
1.47502e-08
1.62083e-06
1.82746e-08
1.59681e-06
2.40218e-08
1.56541e-06
3.14067e-08
1.52539e-06
4.0012e-08
1.47606e-06
4.93387e-08
1.41751e-06
5.85422e-08
1.35144e-06
6.6074e-08
1.28214e-06
6.92951e-08
1.21749e-06
6.46537e-08
1.1681e-06
4.93908e-08
1.14321e-06
2.48881e-08
1.1467e-06
-3.48598e-09
1.17729e-06
-3.05923e-08
1.23368e-06
-5.63898e-08
1.31722e-06
-8.35386e-08
1.43238e-06
-1.15161e-07
1.58498e-06
-1.52597e-07
1.77986e-06
-1.94883e-07
2.02114e-06
-2.41277e-07
2.31032e-06
-2.8918e-07
2.62106e-06
-3.1074e-07
2.85807e-06
-2.37014e-07
2.91251e-06
-5.44369e-08
2.78735e-06
1.2516e-07
1.60716e-07
2.62663e-06
5.14781e-07
-7.65139e-07
1.124e-06
-1.16925e-06
1.61144e-06
-1.08719e-06
1.97218e-06
-8.67318e-07
2.22203e-06
-6.20945e-07
2.37096e-06
-3.81132e-07
2.42692e-06
-1.61197e-07
2.39461e-06
3.36359e-08
2.28258e-06
2.18248e-07
2.09632e-06
3.67391e-07
1.84206e-06
4.77868e-07
1.52347e-06
5.46302e-07
1.12339e-06
5.94891e-07
6.00832e-07
6.64964e-07
-8.60974e-08
8.02419e-07
-9.49831e-07
1.0058e-06
-1.96044e-06
1.22999e-06
-3.05997e-06
1.4461e-06
-4.18942e-06
1.63507e-06
-5.30404e-06
1.77963e-06
-6.3702e-06
1.86731e-06
-7.35797e-06
1.8929e-06
-8.24396e-06
1.85727e-06
-9.01231e-06
1.76668e-06
-9.6548e-06
1.63083e-06
-1.01702e-05
1.46105e-06
-1.05634e-05
1.26865e-06
-1.08444e-05
1.06379e-06
-1.10261e-05
8.54956e-07
-1.11225e-05
6.49322e-07
-1.11473e-05
4.52185e-07
-1.11128e-05
2.66607e-07
-1.10299e-05
9.53278e-08
-1.09043e-05
-6.34499e-08
-1.07324e-05
-2.0869e-07
-1.05114e-05
-3.40366e-07
-1.02413e-05
-4.59815e-07
-9.92465e-06
-5.65795e-07
-9.56586e-06
-6.58188e-07
-9.17007e-06
-7.37702e-07
-8.74229e-06
-8.05659e-07
-8.28691e-06
-8.63747e-07
-7.80775e-06
-9.1369e-07
-7.30782e-06
-9.57217e-07
-6.78942e-06
-9.95836e-07
-6.25436e-06
-1.03046e-06
-5.70443e-06
-1.06119e-06
-5.14186e-06
-1.08728e-06
-4.56966e-06
-1.10734e-06
-3.99177e-06
-1.11974e-06
-3.41285e-06
-1.12312e-06
-2.83787e-06
-1.11675e-06
-2.27176e-06
-1.10055e-06
-1.71878e-06
-1.07549e-06
-1.18208e-06
-1.04347e-06
-6.63627e-07
-1.00706e-06
-1.64844e-07
-9.68751e-07
3.14176e-07
-9.30563e-07
7.73771e-07
-8.93072e-07
1.21513e-06
-8.57906e-07
1.63937e-06
-8.25983e-07
2.04852e-06
-7.9724e-07
2.44486e-06
-7.71136e-07
2.83018e-06
-7.47372e-07
3.2057e-06
-7.2557e-07
3.57243e-06
-7.05214e-07
3.93129e-06
-6.85443e-07
4.28248e-06
-6.647e-07
4.62503e-06
-6.41116e-07
4.95602e-06
-6.12633e-07
5.26969e-06
-5.76615e-07
5.56444e-06
-5.29518e-07
5.86793e-06
-4.6563e-07
6.22704e-06
-3.71025e-07
6.65299e-06
-2.30359e-07
7.07213e-06
-6.79963e-08
7.4046e-06
6.17988e-08
7.59012e-06
1.45324e-07
7.586e-06
2.20121e-07
7.35002e-06
3.43412e-07
6.87122e-06
5.05501e-07
6.21152e-06
6.21144e-07
5.52053e-06
6.17473e-07
4.98283e-06
5.15533e-07
4.67571e-06
3.78637e-07
4.59088e-06
2.06052e-07
4.7074e-06
-3.98008e-08
4.97205e-06
-2.65507e-07
5.22242e-06
-2.86673e-07
5.28225e-06
-8.94977e-08
5.15065e-06
9.13578e-08
4.94818e-06
1.22315e-07
4.68439e-06
1.70708e-07
4.15596e-06
5.05439e-07
3.12967e-06
1.16569e-06
1.57564e-06
1.95647e-06
-3.22185e-07
2.64645e-06
-2.31143e-06
3.08372e-06
-4.19392e-06
3.23734e-06
-5.84591e-06
3.14981e-06
-7.21165e-06
2.88905e-06
-8.28507e-06
2.52981e-06
-9.09116e-06
2.13136e-06
-9.66994e-06
1.73258e-06
-1.00617e-05
1.35484e-06
-1.03021e-05
1.00653e-06
-1.04206e-05
6.88328e-07
-1.04392e-05
3.96355e-07
-1.03701e-05
1.26408e-07
-1.02229e-05
-1.26657e-07
-9.97686e-06
-3.62992e-07
-9.62825e-06
-5.91627e-07
-9.17812e-06
-8.08568e-07
-8.63003e-06
-1.01527e-06
-7.9871e-06
-1.21484e-06
-7.25051e-06
-1.41157e-06
-6.419e-06
-1.61012e-06
-5.48914e-06
-1.81434e-06
-4.45675e-06
-2.02511e-06
-3.3194e-06
-2.23834e-06
-2.07909e-06
-2.44409e-06
-7.44791e-07
-2.62723e-06
6.58406e-07
-2.76354e-06
2.09688e-06
-2.83419e-06
3.52936e-06
-2.82177e-06
4.9143e-06
-2.72143e-06
6.21384e-06
-2.5398e-06
7.39678e-06
-2.2907e-06
8.4406e-06
-1.99e-06
9.3326e-06
-1.65145e-06
1.00614e-05
-1.28351e-06
1.06394e-05
-8.91977e-07
1.11215e-05
-4.76773e-07
1.15181e-05
-7.15967e-09
1.17305e-05
4.98206e-07
1.16635e-05
9.72428e-07
1.1282e-05
1.33198e-06
1.06155e-05
1.53259e-06
9.74401e-06
1.58589e-06
8.77003e-06
1.5348e-06
7.7923e-06
1.42252e-06
6.88608e-06
1.27851e-06
6.09346e-06
1.11958e-06
5.42639e-06
9.55501e-07
4.87859e-06
7.94206e-07
4.43669e-06
6.431e-07
4.08595e-06
5.07943e-07
3.81226e-06
3.91828e-07
3.60239e-06
2.95446e-07
3.44398e-06
2.18018e-07
3.32563e-06
1.5826e-07
3.23702e-06
1.14699e-07
3.16928e-06
8.55005e-08
3.11525e-06
6.82898e-08
3.06971e-06
6.02856e-08
3.02924e-06
5.87502e-08
2.99174e-06
6.15175e-08
2.95584e-06
6.73132e-08
2.92011e-06
7.57346e-08
2.8828e-06
8.66485e-08
2.84187e-06
9.948e-08
2.79542e-06
1.12521e-07
2.74243e-06
1.22286e-07
2.68339e-06
1.23688e-07
2.6209e-06
1.11881e-07
2.56022e-06
8.55772e-08
2.50906e-06
4.76694e-08
2.4767e-06
1.76891e-09
2.47039e-06
-5.00772e-08
2.4959e-06
-1.09051e-07
2.55696e-06
-1.76224e-07
2.65552e-06
-2.51156e-07
2.79165e-06
-3.31011e-07
2.96876e-06
-4.18388e-07
3.20243e-06
-5.22855e-07
3.50666e-06
-6.14969e-07
3.84302e-06
-5.73373e-07
4.08702e-06
-2.98437e-07
4.08045e-06
1.31735e-07
4.83124e-07
3.75804e-06
5.50731e-07
-1.31587e-06
9.13907e-07
-1.53242e-06
1.12132e-06
-1.2946e-06
1.24944e-06
-9.95439e-07
1.31242e-06
-6.83918e-07
1.30364e-06
-3.72351e-07
1.21563e-06
-7.31919e-08
1.03565e-06
2.13618e-07
7.7956e-07
4.74337e-07
4.36703e-07
7.10248e-07
-1.21188e-08
9.2669e-07
-6.01951e-07
1.13613e-06
-1.36531e-06
1.35825e-06
-2.30363e-06
1.60329e-06
-3.36185e-06
1.86063e-06
-4.46145e-06
2.1054e-06
-5.5436e-06
2.31214e-06
-6.56211e-06
2.46461e-06
-7.48108e-06
2.55405e-06
-8.27869e-06
2.57724e-06
-8.94759e-06
2.5362e-06
-9.4924e-06
2.43771e-06
-9.92686e-06
2.29173e-06
-1.02697e-05
2.10955e-06
-1.05409e-05
1.90195e-06
-1.07577e-05
1.67791e-06
-1.09331e-05
1.44404e-06
-1.10741e-05
1.20478e-06
-1.11822e-05
9.63039e-07
-1.12538e-05
7.20957e-07
-1.12824e-05
4.80801e-07
-1.12614e-05
2.45529e-07
-1.11806e-05
1.45771e-08
-1.1045e-05
-1.99063e-07
-1.08512e-05
-4.02448e-07
-1.06032e-05
-5.88376e-07
-1.03083e-05
-7.54782e-07
-9.97297e-06
-9.0108e-07
-9.60327e-06
-1.02789e-06
-9.20405e-06
-1.13692e-06
-8.77897e-06
-1.23073e-06
-8.33039e-06
-1.31233e-06
-7.85939e-06
-1.38469e-06
-7.36618e-06
-1.45043e-06
-6.85071e-06
-1.51131e-06
-6.31313e-06
-1.56804e-06
-5.75424e-06
-1.62008e-06
-5.17601e-06
-1.6655e-06
-4.58213e-06
-1.70122e-06
-3.97821e-06
-1.72366e-06
-3.37143e-06
-1.7299e-06
-2.76955e-06
-1.71863e-06
-2.17981e-06
-1.69029e-06
-1.60811e-06
-1.64719e-06
-1.05858e-06
-1.59299e-06
-5.33204e-07
-1.53244e-06
-3.24331e-08
-1.46952e-06
4.45109e-07
-1.40811e-06
9.01445e-07
-1.34941e-06
1.33867e-06
-1.29513e-06
1.75865e-06
-1.24597e-06
2.16344e-06
-1.20203e-06
2.55541e-06
-1.1631e-06
2.93686e-06
-1.12882e-06
3.30986e-06
-1.09857e-06
3.67601e-06
-1.07136e-06
4.03631e-06
-1.04574e-06
4.39104e-06
-1.01943e-06
4.73962e-06
-9.89699e-07
5.08086e-06
-9.53865e-07
5.4133e-06
-9.09057e-07
5.73522e-06
-8.51438e-07
6.04701e-06
-7.77421e-07
6.35874e-06
-6.82754e-07
6.69178e-06
-5.63399e-07
7.0506e-06
-4.26815e-07
7.40171e-06
-2.89312e-07
7.70381e-06
-1.56778e-07
7.93928e-06
-1.53544e-08
8.08235e-06
2.00342e-07
8.08258e-06
5.05279e-07
7.83419e-06
8.69533e-07
7.27886e-06
1.1728e-06
6.50214e-06
1.29225e-06
5.6973e-06
1.18348e-06
5.05914e-06
8.4421e-07
4.7337e-06
2.85636e-07
4.75207e-06
-2.83873e-07
4.99255e-06
-5.27152e-07
5.21748e-06
-3.14433e-07
5.21418e-06
9.46622e-08
4.8722e-06
4.64291e-07
4.05962e-06
9.83293e-07
2.6519e-06
1.91315e-06
7.45791e-07
3.0718e-06
-1.3328e-06
4.03506e-06
-3.2716e-06
4.58526e-06
-4.90749e-06
4.71961e-06
-6.19072e-06
4.52056e-06
-7.14861e-06
4.1077e-06
-7.85104e-06
3.59148e-06
-8.37354e-06
3.05231e-06
-8.7763e-06
2.53412e-06
-9.09638e-06
2.05267e-06
-9.34888e-06
1.60734e-06
-9.53331e-06
1.19097e-06
-9.64094e-06
7.95951e-07
-9.66129e-06
4.16703e-07
-9.58273e-06
4.78532e-08
-9.40489e-06
-3.045e-07
-9.12221e-06
-6.45672e-07
-8.74135e-06
-9.72489e-07
-8.26629e-06
-1.28362e-06
-7.70124e-06
-1.58033e-06
-7.04957e-06
-1.86651e-06
-6.31259e-06
-2.14854e-06
-5.48867e-06
-2.43404e-06
-4.57366e-06
-2.72935e-06
-3.56202e-06
-3.03676e-06
-2.44851e-06
-3.35185e-06
-1.23291e-06
-3.65969e-06
7.57803e-08
-3.93592e-06
1.45196e-06
-4.13972e-06
2.85949e-06
-4.24173e-06
4.25573e-06
-4.21801e-06
5.59767e-06
-4.06336e-06
6.84744e-06
-3.78958e-06
7.97629e-06
-3.41954e-06
8.96601e-06
-2.97972e-06
9.80897e-06
-2.49441e-06
1.05059e-05
-1.98047e-06
1.10606e-05
-1.44661e-06
1.1482e-05
-8.98236e-07
1.18143e-05
-3.39465e-07
1.20947e-05
2.17836e-07
1.23097e-05
7.57403e-07
1.23941e-05
1.24756e-06
1.22743e-05
1.65242e-06
1.19115e-05
1.94875e-06
1.13161e-05
2.13014e-06
1.05398e-05
2.19888e-06
9.65727e-06
2.16099e-06
8.74794e-06
2.02891e-06
7.87919e-06
1.82425e-06
7.09774e-06
1.57566e-06
6.42821e-06
1.31263e-06
5.87676e-06
1.05939e-06
5.43667e-06
8.31914e-07
5.09397e-06
6.3815e-07
4.83169e-06
4.80296e-07
4.63269e-06
3.57258e-07
4.48119e-06
2.662e-07
4.36358e-06
2.03109e-07
4.26889e-06
1.62985e-07
4.18897e-06
1.40204e-07
4.11847e-06
1.29247e-07
4.05444e-06
1.25543e-07
3.99568e-06
1.2608e-07
3.94189e-06
1.29518e-07
3.89289e-06
1.35653e-07
3.84797e-06
1.44402e-07
3.80584e-06
1.54653e-07
3.76471e-06
1.63414e-07
3.72252e-06
1.65877e-07
3.6776e-06
1.56797e-07
3.63019e-06
1.32986e-07
3.58326e-06
9.46049e-08
3.54116e-06
4.38669e-08
3.50854e-06
-1.74611e-08
3.48953e-06
-9.00372e-08
3.48809e-06
-1.74779e-07
3.50705e-06
-2.7012e-07
3.54614e-06
-3.70101e-07
3.60791e-06
-4.80156e-07
3.71431e-06
-6.29256e-07
3.89928e-06
-7.9994e-07
4.14625e-06
-8.20345e-07
4.32771e-06
-4.79892e-07
4.23874e-06
2.20701e-07
1.00048e-06
3.72139e-06
2.59157e-07
-1.57503e-06
2.72826e-07
-1.54609e-06
2.27587e-07
-1.24937e-06
1.44306e-07
-9.12158e-07
9.75652e-09
-5.49369e-07
-1.92559e-07
-1.70036e-07
-4.73335e-07
2.07585e-07
-8.354e-07
5.75683e-07
-1.2928e-06
9.31741e-07
-1.85865e-06
1.27609e-06
-2.54329e-06
1.61133e-06
-3.34502e-06
1.93787e-06
-4.23653e-06
2.24976e-06
-5.16568e-06
2.53244e-06
-6.0731e-06
2.76805e-06
-6.91061e-06
2.94291e-06
-7.64924e-06
3.05077e-06
-8.27638e-06
3.09174e-06
-8.79309e-06
3.07077e-06
-9.21193e-06
2.99608e-06
-9.55327e-06
2.87754e-06
-9.84039e-06
2.72483e-06
-1.00945e-05
2.5458e-06
-1.03305e-05
2.3456e-06
-1.05553e-05
2.12679e-06
-1.07676e-05
1.89018e-06
-1.09596e-05
1.63603e-06
-1.112e-05
1.36518e-06
-1.12367e-05
1.07976e-06
-1.12992e-05
7.83481e-07
-1.12999e-05
4.81482e-07
-1.12344e-05
1.80047e-07
-1.11055e-05
-1.14389e-07
-1.09099e-05
-3.94629e-07
-1.06575e-05
-6.54864e-07
-1.03557e-05
-8.90197e-07
-1.00137e-05
-1.09675e-06
-9.64206e-06
-1.27272e-06
-9.25105e-06
-1.4189e-06
-8.84917e-06
-1.5388e-06
-8.44168e-06
-1.63822e-06
-8.02973e-06
-1.72428e-06
-7.61035e-06
-1.80408e-06
-7.17742e-06
-1.88336e-06
-6.72328e-06
-1.96544e-06
-6.24055e-06
-2.05077e-06
-5.72381e-06
-2.13682e-06
-5.17092e-06
-2.21839e-06
-4.58392e-06
-2.28822e-06
-3.96943e-06
-2.33815e-06
-3.33844e-06
-2.3609e-06
-2.70485e-06
-2.35221e-06
-2.08252e-06
-2.31262e-06
-1.48265e-06
-2.24706e-06
-9.12545e-07
-2.1631e-06
-3.75339e-07
-2.06964e-06
1.29937e-07
-1.9748e-06
6.05628e-07
-1.8838e-06
1.05609e-06
-1.79987e-06
1.48531e-06
-1.72435e-06
1.89666e-06
-1.65731e-06
2.29309e-06
-1.59846e-06
2.67723e-06
-1.54725e-06
3.05154e-06
-1.50313e-06
3.41841e-06
-1.46544e-06
3.78011e-06
-1.43307e-06
4.13856e-06
-1.40419e-06
4.4952e-06
-1.37606e-06
4.85071e-06
-1.34521e-06
5.20483e-06
-1.30799e-06
5.55688e-06
-1.26111e-06
5.90703e-06
-1.20159e-06
6.25647e-06
-1.12686e-06
6.60749e-06
-1.03377e-06
6.96253e-06
-9.18437e-07
7.3152e-06
-7.79485e-07
7.64303e-06
-6.17145e-07
7.91243e-06
-4.26175e-07
8.09519e-06
-1.98121e-07
8.21997e-06
7.55617e-08
8.30651e-06
4.18738e-07
8.30837e-06
8.67675e-07
8.09847e-06
1.3827e-06
7.58699e-06
1.80373e-06
6.83401e-06
1.93646e-06
6.02539e-06
1.65283e-06
5.37159e-06
9.39442e-07
5.04305e-06
4.46691e-08
5.00654e-06
-4.90644e-07
5.00945e-06
-3.17347e-07
4.74804e-06
3.56073e-07
3.95134e-06
1.26099e-06
2.47222e-06
2.46241e-06
4.80347e-07
3.90502e-06
-1.57168e-06
5.12383e-06
-3.33869e-06
5.80206e-06
-4.70063e-06
5.9472e-06
-5.67297e-06
5.69196e-06
-6.35066e-06
5.19825e-06
-6.84618e-06
4.60322e-06
-7.24801e-06
3.99331e-06
-7.60398e-06
3.40828e-06
-7.92746e-06
2.8576e-06
-8.21157e-06
2.33679e-06
-8.44164e-06
1.83741e-06
-8.60244e-06
1.35176e-06
-8.68109e-06
8.74607e-07
-8.66814e-06
4.03754e-07
-8.55981e-06
-6.04766e-08
-8.35027e-06
-5.14043e-07
-8.04144e-06
-9.54506e-07
-7.63667e-06
-1.37725e-06
-7.14118e-06
-1.77912e-06
-6.56107e-06
-2.16043e-06
-5.9018e-06