/*--------------------------------*- C++ -*----------------------------------*\
| =========                 |                                                 |
| \\      /  F ield         | OpenFOAM: The Open Source CFD Toolbox           |
|  \\    /   O peration     | Version:  2112                                  |
|   \\  /    A nd           | Website:  www.openfoam.com                      |
|    \\/     M anipulation  |                                                 |
\*---------------------------------------------------------------------------*/
FoamFile
{
    version     2.0;
    format      ascii;
    arch        "LSB;label=32;scalar=64";
    class       volVectorField;
    location    "0.13";
    object      U;
}
// * * * * * * * * * * * * * * * * * * * * * * * * * * * * * * * * * * * * * //

dimensions      [0 1 -1 0 0 0 0];

internalField   nonuniform List<vector> 
12225
(
(9.75306 0.0465545 0)
(9.26726 0.0820476 0)
(8.77876 0.0899197 0)
(8.30233 0.0905279 0)
(7.85926 0.0879114 0)
(7.45799 0.0829095 0)
(7.09905 0.0764977 0)
(6.78404 0.0703458 0)
(6.49905 0.0653837 0)
(6.24296 0.0610946 0)
(6.01711 0.0567754 0)
(5.82251 0.0521648 0)
(5.65952 0.0473423 0)
(5.5275 0.0425731 0)
(5.42343 0.0382288 0)
(5.34587 0.0345799 0)
(5.27504 0.0371754 0)
(5.24251 0.0249782 0)
(10.107 0.0667367 0)
(10.3176 0.107538 0)
(10.457 0.112446 0)
(10.5306 0.114143 0)
(10.5577 0.114719 0)
(10.5486 0.112751 0)
(10.5088 0.108611 0)
(10.4442 0.103996 0)
(10.3608 0.0999789 0)
(10.2629 0.0956826 0)
(10.1533 0.0901378 0)
(10.0335 0.0830757 0)
(9.90523 0.0747195 0)
(9.76981 0.0656492 0)
(9.6283 0.0563948 0)
(9.48116 0.0490643 0)
(9.33013 0.0429307 0)
(9.17797 0.0538095 0)
(10.0116 0.0410242 0)
(10.0626 0.0621889 0)
(10.1161 0.0645904 0)
(10.1662 0.0713463 0)
(10.2174 0.0794085 0)
(10.2694 0.0852397 0)
(10.3179 0.0890122 0)
(10.3606 0.0922638 0)
(10.3974 0.0957583 0)
(10.4287 0.0987758 0)
(10.454 0.100647 0)
(10.4725 0.10136 0)
(10.4836 0.101313 0)
(10.4871 0.101108 0)
(10.4833 0.101534 0)
(10.473 0.103664 0)
(10.4584 0.10914 0)
(10.4413 0.11745 0)
(10.0059 0.0302805 0)
(10.0335 0.0569322 0)
(10.0605 0.0665438 0)
(10.08 0.0747603 0)
(10.0976 0.0813607 0)
(10.1164 0.0848905 0)
(10.1356 0.0862598 0)
(10.1543 0.0870273 0)
(10.1728 0.0879086 0)
(10.1919 0.0885504 0)
(10.2114 0.0885344 0)
(10.2304 0.0878332 0)
(10.2483 0.0867088 0)
(10.2647 0.0856009 0)
(10.2796 0.0850655 0)
(10.2937 0.0858586 0)
(10.3074 0.0884971 0)
(10.3247 0.0915468 0)
(10.0042 0.0246655 0)
(10.0263 0.0527818 0)
(10.0496 0.063256 0)
(10.066 0.0696259 0)
(10.079 0.0748184 0)
(10.0919 0.0780042 0)
(10.1044 0.0796106 0)
(10.1157 0.0807085 0)
(10.1262 0.0818399 0)
(10.1366 0.0827868 0)
(10.147 0.0832081 0)
(10.1571 0.0830685 0)
(10.1665 0.0826011 0)
(10.1752 0.0821886 0)
(10.1832 0.0822625 0)
(10.1912 0.0833195 0)
(10.1996 0.08535 0)
(10.2106 0.0879784 0)
(10.003 0.0203979 0)
(10.0205 0.0468002 0)
(10.041 0.0578019 0)
(10.0568 0.0642929 0)
(10.0696 0.0699789 0)
(10.0819 0.0740368 0)
(10.0938 0.0764028 0)
(10.1044 0.0779192 0)
(10.1141 0.0791529 0)
(10.1232 0.0800628 0)
(10.1321 0.0804462 0)
(10.1404 0.0803089 0)
(10.148 0.0798671 0)
(10.1548 0.0794445 0)
(10.1611 0.0793651 0)
(10.1673 0.0799227 0)
(10.1738 0.0810347 0)
(10.1818 0.0824393 0)
(10.0022 0.0169286 0)
(10.0159 0.041139 0)
(10.0337 0.0529566 0)
(10.0487 0.0599453 0)
(10.0612 0.0657265 0)
(10.073 0.0699028 0)
(10.0844 0.0723841 0)
(10.0948 0.0739219 0)
(10.1044 0.0750889 0)
(10.1134 0.0759425 0)
(10.1221 0.0763636 0)
(10.1302 0.0763694 0)
(10.1376 0.0761385 0)
(10.1444 0.0759205 0)
(10.1507 0.0759416 0)
(10.1569 0.0763521 0)
(10.1633 0.0770387 0)
(10.1705 0.0775996 0)
(10.0016 0.0141516 0)
(10.0124 0.0360633 0)
(10.0277 0.0482589 0)
(10.0417 0.0555034 0)
(10.0536 0.0611377 0)
(10.0649 0.0653154 0)
(10.0758 0.067981 0)
(10.086 0.0697035 0)
(10.0954 0.0709798 0)
(10.1043 0.0719161 0)
(10.1128 0.0724565 0)
(10.1207 0.0726298 0)
(10.1281 0.072582 0)
(10.135 0.072502 0)
(10.1414 0.0725418 0)
(10.1477 0.0727655 0)
(10.154 0.073042 0)
(10.1609 0.073046 0)
(10.0012 0.0119218 0)
(10.0098 0.0315015 0)
(10.0228 0.0435929 0)
(10.0357 0.0509736 0)
(10.0471 0.0565 0)
(10.0578 0.0606943 0)
(10.0682 0.0635346 0)
(10.0781 0.0654155 0)
(10.0873 0.0667635 0)
(10.096 0.0677338 0)
(10.1042 0.0683323 0)
(10.112 0.0686026 0)
(10.1193 0.0686644 0)
(10.1262 0.0686584 0)
(10.1326 0.0686834 0)
(10.1389 0.0687562 0)
(10.1452 0.0687581 0)
(10.1516 0.0684583 0)
(10.0009 0.010103 0)
(10.0078 0.0274165 0)
(10.0188 0.0390454 0)
(10.0306 0.0464463 0)
(10.0413 0.0518667 0)
(10.0515 0.0560117 0)
(10.0615 0.0589325 0)
(10.071 0.0609109 0)
(10.08 0.0623111 0)
(10.0885 0.0633174 0)
(10.0965 0.0639779 0)
(10.1042 0.0643432 0)
(10.1114 0.0645075 0)
(10.1181 0.0645727 0)
(10.1246 0.0646005 0)
(10.1308 0.0645856 0)
(10.1369 0.0644313 0)
(10.143 0.0639826 0)
(10.0007 0.00858949 0)
(10.0063 0.0237772 0)
(10.0157 0.0346916 0)
(10.0263 0.0419564 0)
(10.0364 0.0472245 0)
(10.046 0.0512538 0)
(10.0555 0.0541816 0)
(10.0647 0.05622 0)
(10.0734 0.0576674 0)
(10.0817 0.0587124 0)
(10.0896 0.0594289 0)
(10.097 0.0598714 0)
(10.1041 0.0601151 0)
(10.1108 0.0602345 0)
(10.1172 0.0602697 0)
(10.1233 0.0602101 0)
(10.1292 0.0599838 0)
(10.1349 0.0594964 0)
(10.0006 0.00738666 0)
(10.0052 0.0207482 0)
(10.0133 0.0308548 0)
(10.0229 0.0378613 0)
(10.0324 0.0429444 0)
(10.0416 0.0468276 0)
(10.0507 0.0497113 0)
(10.0595 0.051768 0)
(10.068 0.0532399 0)
(10.0761 0.0543076 0)
(10.0838 0.0550604 0)
(10.0911 0.0555566 0)
(10.0981 0.0558587 0)
(10.1047 0.0560239 0)
(10.111 0.056081 0)
(10.117 0.056022 0)
(10.1227 0.0557966 0)
(10.1282 0.0553546 0)
(10.0005 0.00636168 0)
(10.0044 0.0180414 0)
(10.0114 0.0272261 0)
(10.0201 0.0338399 0)
(10.029 0.0386851 0)
(10.0377 0.0423871 0)
(10.0464 0.0451785 0)
(10.0549 0.047213 0)
(10.0631 0.0486874 0)
(10.071 0.0497661 0)
(10.0786 0.0505447 0)
(10.0858 0.0510838 0)
(10.0926 0.0514375 0)
(10.0991 0.0516515 0)
(10.1053 0.0517489 0)
(10.1112 0.0517272 0)
(10.1167 0.0515538 0)
(10.122 0.0512118 0)
(10.0004 0.00533321 0)
(10.0037 0.0152361 0)
(10.0097 0.0232964 0)
(10.0174 0.0293298 0)
(10.0256 0.0338243 0)
(10.0339 0.0372681 0)
(10.0421 0.0398979 0)
(10.0502 0.0418566 0)
(10.0582 0.0433008 0)
(10.0658 0.0443718 0)
(10.0732 0.0451639 0)
(10.0803 0.045738 0)
(10.087 0.0461419 0)
(10.0934 0.0464135 0)
(10.0994 0.0465738 0)
(10.1052 0.046628 0)
(10.1106 0.04656 0)
(10.1157 0.0463801 0)
(10.0003 0.00429763 0)
(10.0031 0.0123525 0)
(10.0082 0.0191052 0)
(10.015 0.0243458 0)
(10.0225 0.0283328 0)
(10.0302 0.0314091 0)
(10.0379 0.033786 0)
(10.0457 0.0355929 0)
(10.0533 0.0369531 0)
(10.0608 0.0379816 0)
(10.0679 0.0387639 0)
(10.0748 0.0393584 0)
(10.0814 0.0398082 0)
(10.0877 0.0401468 0)
(10.0936 0.0403956 0)
(10.0992 0.0405675 0)
(10.1045 0.04066 0)
(10.1094 0.040703 0)
(10.0003 0.00325056 0)
(10.0026 0.00938996 0)
(10.007 0.0146627 0)
(10.013 0.0188859 0)
(10.0197 0.0221738 0)
(10.0269 0.0247399 0)
(10.0342 0.0267464 0)
(10.0415 0.0283016 0)
(10.0488 0.0295001 0)
(10.056 0.0304305 0)
(10.063 0.0311642 0)
(10.0697 0.0317536 0)
(10.0762 0.0322377 0)
(10.0823 0.0326471 0)
(10.0882 0.0330043 0)
(10.0937 0.0333279 0)
(10.0989 0.033624 0)
(10.1038 0.0339348 0)
(10.0002 0.00217629 0)
(10.0022 0.00631152 0)
(10.006 0.00993266 0)
(10.0113 0.0129111 0)
(10.0175 0.0152843 0)
(10.0241 0.0171643 0)
(10.031 0.0186541 0)
(10.038 0.0198314 0)
(10.045 0.020764 0)
(10.052 0.0215148 0)
(10.0588 0.0221383 0)
(10.0654 0.0226771 0)
(10.0717 0.0231649 0)
(10.0778 0.023629 0)
(10.0837 0.0240909 0)
(10.0892 0.0245713 0)
(10.0944 0.0250787 0)
(10.0993 0.0256595 0)
(10.0002 0.00103794 0)
(10.002 0.00302219 0)
(10.0054 0.00479527 0)
(10.0103 0.00629164 0)
(10.016 0.00751274 0)
(10.0222 0.00849615 0)
(10.0288 0.00928667 0)
(10.0355 0.00992636 0)
(10.0423 0.0104553 0)
(10.0491 0.0109117 0)
(10.0558 0.0113307 0)
(10.0624 0.0117424 0)
(10.0687 0.0121724 0)
(10.0749 0.0126426 0)
(10.0808 0.0131709 0)
(10.0864 0.0137752 0)
(10.0918 0.0144616 0)
(10.0969 0.0152747 0)
(10.0002 -0.000247534 0)
(10.0019 -0.000697564 0)
(10.0052 -0.00104319 0)
(10.0099 -0.00128758 0)
(10.0155 -0.00146129 0)
(10.0216 -0.0015986 0)
(10.028 -0.0017138 0)
(10.0346 -0.00180242 0)
(10.0414 -0.00185282 0)
(10.0482 -0.00185184 0)
(10.0549 -0.00178492 0)
(10.0616 -0.00163643 0)
(10.0681 -0.00139146 0)
(10.0744 -0.00103697 0)
(10.0806 -0.000562936 0)
(10.0865 4.08309e-05 0)
(10.0922 0.000773191 0)
(10.0977 0.00167001 0)
(10.0002 -0.00150052 0)
(10.0021 -0.0043153 0)
(10.0057 -0.00668791 0)
(10.0107 -0.00856489 0)
(10.0165 -0.0100385 0)
(10.0227 -0.0112341 0)
(10.0293 -0.0122247 0)
(10.036 -0.0130391 0)
(10.0429 -0.0136931 0)
(10.0499 -0.0141976 0)
(10.0568 -0.0145543 0)
(10.0637 -0.0147567 0)
(10.0705 -0.0147961 0)
(10.0771 -0.0146654 0)
(10.0836 -0.0143612 0)
(10.0899 -0.0138805 0)
(10.0961 -0.0132317 0)
(10.102 -0.012389 0)
(10.0003 -0.00263547 0)
(10.0024 -0.00755276 0)
(10.0066 -0.0116167 0)
(10.0121 -0.0147502 0)
(10.0183 -0.0171879 0)
(10.0249 -0.0191787 0)
(10.0316 -0.0208393 0)
(10.0386 -0.022217 0)
(10.0457 -0.0233542 0)
(10.0529 -0.0242864 0)
(10.06 -0.0250277 0)
(10.0671 -0.0255748 0)
(10.0742 -0.0259199 0)
(10.0811 -0.0260573 0)
(10.088 -0.0259851 0)
(10.0947 -0.0257031 0)
(10.1012 -0.0252225 0)
(10.1075 -0.0245252 0)
(10.0003 -0.00384851 0)
(10.003 -0.0109201 0)
(10.008 -0.0165146 0)
(10.0144 -0.0206291 0)
(10.0211 -0.0237897 0)
(10.028 -0.0264049 0)
(10.0351 -0.0286105 0)
(10.0423 -0.0304607 0)
(10.0497 -0.0320233 0)
(10.057 -0.0333492 0)
(10.0644 -0.0344511 0)
(10.0717 -0.0353195 0)
(10.079 -0.0359439 0)
(10.0863 -0.0363197 0)
(10.0934 -0.0364476 0)
(10.1005 -0.0363305 0)
(10.1073 -0.0359835 0)
(10.114 -0.0353929 0)
(10.0005 -0.00523899 0)
(10.004 -0.0146048 0)
(10.0103 -0.0215211 0)
(10.0176 -0.0263131 0)
(10.0249 -0.0299753 0)
(10.0322 -0.033035 0)
(10.0396 -0.0356109 0)
(10.0471 -0.0378001 0)
(10.0546 -0.0397297 0)
(10.0621 -0.0414639 0)
(10.0697 -0.0429933 0)
(10.0773 -0.0442825 0)
(10.0849 -0.0453037 0)
(10.0925 -0.046041 0)
(10.1 -0.0464873 0)
(10.1074 -0.0466404 0)
(10.1146 -0.0465131 0)
(10.1217 -0.0460952 0)
(10.0007 -0.0069431 0)
(10.0055 -0.0187789 0)
(10.0135 -0.0266294 0)
(10.022 -0.0317516 0)
(10.0299 -0.0358137 0)
(10.0375 -0.0392654 0)
(10.0452 -0.0420837 0)
(10.0529 -0.0444226 0)
(10.0605 -0.0465049 0)
(10.0681 -0.0484265 0)
(10.0758 -0.0501672 0)
(10.0836 -0.0516783 0)
(10.0915 -0.0529252 0)
(10.0993 -0.0538878 0)
(10.1072 -0.0545532 0)
(10.1149 -0.0549136 0)
(10.1225 -0.0549785 0)
(10.13 -0.0547369 0)
(10.001 -0.00914198 0)
(10.008 -0.0236586 0)
(10.0181 -0.0318263 0)
(10.0277 -0.0367122 0)
(10.036 -0.0409141 0)
(10.044 -0.0447287 0)
(10.052 -0.0479624 0)
(10.0599 -0.0507781 0)
(10.0677 -0.0534042 0)
(10.0754 -0.0558906 0)
(10.0832 -0.0581613 0)
(10.0912 -0.0601334 0)
(10.0992 -0.0617605 0)
(10.1073 -0.0630208 0)
(10.1154 -0.0639027 0)
(10.1234 -0.0643987 0)
(10.1313 -0.0645176 0)
(10.139 -0.0642419 0)
(10.0016 -0.0119965 0)
(10.0116 -0.0292792 0)
(10.0245 -0.0375585 0)
(10.035 -0.0420467 0)
(10.0433 -0.0457055 0)
(10.0513 -0.048751 0)
(10.0595 -0.0512563 0)
(10.0674 -0.0536373 0)
(10.075 -0.0561715 0)
(10.0827 -0.0588392 0)
(10.0907 -0.0614761 0)
(10.0989 -0.0639317 0)
(10.1073 -0.0661127 0)
(10.1158 -0.0679624 0)
(10.1243 -0.0694471 0)
(10.1329 -0.0705378 0)
(10.1414 -0.0712427 0)
(10.1498 -0.0714696 0)
(10.0025 -0.015915 0)
(10.0164 -0.0341759 0)
(10.0324 -0.0424003 0)
(10.0441 -0.0487476 0)
(10.0533 -0.0543701 0)
(10.0623 -0.0584294 0)
(10.0717 -0.0612465 0)
(10.0808 -0.0636272 0)
(10.09 -0.0660329 0)
(10.0995 -0.0684764 0)
(10.1098 -0.0707964 0)
(10.1206 -0.0728696 0)
(10.1319 -0.0746314 0)
(10.1437 -0.0760368 0)
(10.1557 -0.0770517 0)
(10.1679 -0.0776539 0)
(10.1803 -0.0778495 0)
(10.1924 -0.077489 0)
(10.005 -0.0235661 0)
(10.0297 -0.0375939 0)
(10.0559 -0.0380321 0)
(10.0785 -0.0408947 0)
(10.1013 -0.0460257 0)
(10.1258 -0.0508775 0)
(10.151 -0.055216 0)
(10.176 -0.059673 0)
(10.2007 -0.0645654 0)
(10.2257 -0.069678 0)
(10.251 -0.0746404 0)
(10.2764 -0.0792393 0)
(10.3015 -0.083397 0)
(10.326 -0.0870764 0)
(10.3497 -0.0902442 0)
(10.3723 -0.0929152 0)
(10.3937 -0.0950984 0)
(10.4136 -0.0969683 0)
(10.0572 -0.0446705 0)
(10.187 -0.0760789 0)
(10.2904 -0.0803406 0)
(10.3661 -0.0818422 0)
(10.4236 -0.0836848 0)
(10.4663 -0.084735 0)
(10.495 -0.0851237 0)
(10.5112 -0.0857125 0)
(10.5172 -0.0871569 0)
(10.5149 -0.0892824 0)
(10.5054 -0.0915227 0)
(10.489 -0.0934597 0)
(10.4662 -0.0948786 0)
(10.4375 -0.0956704 0)
(10.4034 -0.0957676 0)
(10.3647 -0.0952171 0)
(10.3217 -0.0939862 0)
(10.2752 -0.0926605 0)
(9.8651 -0.0325536 0)
(9.59801 -0.0615472 0)
(9.32016 -0.0708838 0)
(9.03919 -0.074801 0)
(8.76867 -0.0765811 0)
(8.51341 -0.0766708 0)
(8.27262 -0.0756702 0)
(8.04567 -0.0744406 0)
(7.82818 -0.073639 0)
(7.6176 -0.0732854 0)
(7.41392 -0.073042 0)
(7.21757 -0.0726127 0)
(7.02922 -0.0718327 0)
(6.84978 -0.0706288 0)
(6.6801 -0.0689598 0)
(6.52101 -0.0668562 0)
(6.37237 -0.0644307 0)
(6.23659 -0.0616633 0)
(0.0521551 -0.0839666 -1.58038e-20)
(0.0926814 -0.0943013 1.24938e-20)
(0.170573 -0.0993145 0)
(0.255472 -0.105709 0)
(0.342511 -0.118155 0)
(0.435417 -0.131967 -1.18399e-20)
(0.536471 -0.140818 0)
(0.640816 -0.144441 0)
(0.745598 -0.143593 0)
(0.848708 -0.139014 0)
(0.948015 -0.131378 1.24603e-20)
(1.04157 -0.121278 0)
(1.1278 -0.109228 0)
(1.20543 -0.0956735 0)
(1.27352 -0.0809914 0)
(1.33137 -0.0654871 1.27841e-20)
(1.3785 -0.049379 0)
(1.41459 -0.0327688 0)
(1.43938 -0.0156528 0)
(1.45307 0.00178571 0)
(1.45481 0.0187763 0)
(1.44521 0.0340124 0)
(1.42629 0.0460904 0)
(1.39985 0.054212 1.30936e-20)
(1.36794 0.0582206 -1.31318e-20)
(1.33276 0.0583523 1.31777e-20)
(1.29639 0.0551062 1.3233e-20)
(1.26065 0.0491893 0)
(1.22698 0.041476 0)
(1.19636 0.0329768 -1.34705e-20)
(1.16919 0.0248166 -1.35777e-20)
(1.14515 0.0182057 0)
(1.12317 0.0143744 0)
(1.10133 0.0144478 -1.39792e-20)
(1.07693 0.0193028 0)
(1.04671 0.0295072 0)
(1.00722 0.045205 1.44359e-20)
(0.95536 0.0652247 0)
(0.889481 0.0848491 1.45712e-20)
(0.811897 0.0951062 2.89882e-20)
(0.727599 0.0930918 0)
(0.635986 0.0909357 0)
(0.531891 0.0972316 0)
(0.411746 0.107516 0)
(0.271908 0.118881 0)
(0.109497 0.130658 3.43161e-20)
(-0.0780877 0.143689 3.49735e-20)
(-0.293505 0.159116 3.489e-20)
(-0.53883 0.177729 0)
(-0.815586 0.199877 -3.55985e-20)
(-1.12406 0.225283 0)
(-1.46317 0.253044 3.74122e-20)
(-1.83029 0.28177 3.86613e-20)
(-2.22137 0.309812 0)
(-2.63111 0.335512 0)
(-3.05335 0.357423 0)
(-3.48145 0.374407 4.49237e-20)
(-3.90879 0.385641 0)
(-4.32898 0.390745 0)
(-4.73579 0.389114 0)
(-5.12347 0.376934 0)
(-5.4869 0.354782 0)
(-5.82154 0.327668 0)
(-6.12475 0.297534 0)
(-6.39444 0.265116 0)
(-6.6291 0.231264 -5.58415e-20)
(-6.82778 0.196817 0)
(-6.99009 0.162591 0)
(-7.11621 0.129378 5.57732e-20)
(-7.20686 0.0980639 5.5273e-20)
(-7.26288 0.0696145 0)
(-7.28602 0.044724 -5.35302e-20)
(-7.27973 0.0233822 5.21854e-20)
(-7.24998 0.00459461 0)
(-7.19809 -0.0128117 -4.87487e-20)
(-7.12541 -0.0295095 0)
(-7.03272 -0.0459345 0)
(-6.92031 -0.0624576 4.17614e-20)
(-6.7881 -0.07943 0)
(-6.63552 -0.0971769 -3.58871e-20)
(-6.46164 -0.115978 0)
(-6.2651 -0.136038 2.89633e-20)
(-6.04425 -0.157447 2.50651e-20)
(-5.79724 -0.180127 2.08457e-20)
(-5.52233 -0.203775 3.25663e-20)
(-5.21818 -0.227848 -2.27224e-20)
(-4.88399 -0.251743 0)
(-4.51941 -0.274897 0)
(-4.12433 -0.296449 0)
(-3.70014 -0.317138 2.45099e-20)
(-3.24888 -0.336119 3.83561e-20)
(-2.77413 -0.351762 -5.28214e-20)
(-2.28121 -0.361993 0)
(-1.77711 -0.364276 8.21535e-20)
(-1.27087 -0.35644 9.55283e-20)
(-0.773952 -0.339611 1.0664e-19)
(-0.29663 -0.323459 0)
(0.166424 -0.316462 0)
(0.620387 -0.308191 0)
(1.04816 -0.28071 1.11064e-19)
(1.42598 -0.231156 0)
(1.73781 -0.171198 0)
(1.97306 -0.111073 -1.01385e-19)
(2.12793 -0.0586302 0)
(2.20756 -0.0182195 0)
(2.22026 0.00904835 -9.5086e-20)
(2.18461 0.0267592 0)
(2.11376 0.0413782 0)
(2.01171 0.0598913 9.44969e-20)
(1.875 0.0860742 9.49171e-20)
(1.69551 0.116826 0)
(1.46477 0.14502 -9.39954e-20)
(1.16742 0.177673 0)
(0.789753 0.218916 9.06514e-20)
(0.335311 0.253245 0)
(-0.181519 0.278021 7.15434e-20)
(-0.737011 0.292833 5.48115e-20)
(-1.30418 0.297174 0)
(-1.85923 0.292259 0)
(-2.38305 0.280242 0)
(-2.8624 0.262784 0)
(-3.28902 0.240575 0)
(-3.65764 0.2094 0)
(-3.96515 0.172079 0)
(-4.20974 0.134987 -1.74731e-20)
(-4.39188 0.0984325 1.94814e-20)
(-4.51163 0.0630503 0)
(-4.56993 0.0295628 0)
(-4.56733 -0.00143756 0)
(-4.51556 -0.0302118 0)
(-4.41525 -0.0582992 2.13963e-20)
(-4.26726 -0.086128 0)
(-4.07181 -0.113885 1.96455e-21)
(-3.8289 -0.141931 -1.69599e-20)
(-3.53867 -0.170519 0)
(-3.20237 -0.199016 0)
(-2.82235 -0.226411 0)
(-2.40254 -0.250949 9.67364e-20)
(-1.94893 -0.269405 1.19814e-19)
(-1.47129 -0.276906 0)
(-0.986964 -0.268277 1.6167e-19)
(-0.508905 -0.254149 1.79527e-19)
(-0.0279168 -0.253099 -1.93954e-19)
(0.460189 -0.266709 0)
(0.951094 -0.265902 0)
(1.44035 -0.247867 -1.98386e-19)
(1.90757 -0.222764 0)
(2.34676 -0.194365 0)
(2.75378 -0.163044 0)
(3.12823 -0.131536 0)
(3.4716 -0.102355 1.6322e-19)
(3.78538 -0.0759098 1.54349e-19)
(4.07003 -0.0518963 0)
(4.32512 -0.0300609 1.36249e-19)
(4.55015 -0.0102862 0)
(4.74484 0.00769999 0)
(4.90857 0.0241094 1.10725e-19)
(5.04037 0.0385703 0)
(5.13884 0.0498138 9.61633e-20)
(5.20312 0.0579921 0)
(5.22975 0.0652621 0)
(5.21858 0.0716111 7.95143e-20)
(5.17628 0.0755172 0)
(5.10783 0.076223 7.24263e-20)
(5.01665 0.0749434 0)
(4.90575 0.073058 0)
(4.77737 0.0716566 0)
(4.63273 0.0713777 -6.69589e-20)
(4.47243 0.0720241 0)
(4.29756 0.0726631 6.76303e-20)
(4.11052 0.0723069 0)
(3.9147 0.0704054 0)
(3.71388 0.0668751 0)
(3.51171 0.0619833 0)
(3.3114 0.0561443 0)
(3.11513 0.0499298 0)
(2.92446 0.0441765 0)
(2.73589 0.0402955 -1.6372e-19)
(2.5552 0.0424181 0)
(2.30862 0.0501048 0)
(0.0599487 -0.198482 4.40824e-20)
(0.110313 -0.227153 -3.53224e-20)
(0.201845 -0.246338 0)
(0.301717 -0.262453 2.25295e-20)
(0.405158 -0.276157 0)
(0.511058 -0.288558 1.05416e-20)
(0.617508 -0.296943 -2.11384e-20)
(0.722634 -0.299223 -2.08765e-20)
(0.824909 -0.294863 0)
(0.922947 -0.28431 -2.06479e-20)
(1.01546 -0.268417 -1.01022e-20)
(1.10135 -0.248164 0)
(1.17972 -0.224533 0)
(1.24991 -0.198454 0)
(1.31143 -0.170764 0)
(1.36401 -0.142196 -1.06177e-20)
(1.40755 -0.113365 0)
(1.44214 -0.0847681 2.20997e-20)
(1.46812 -0.0567835 0)
(1.48591 -0.0296861 0)
(1.49702 -0.00391855 -2.28309e-20)
(1.50184 0.0196046 0)
(1.49976 0.0399235 2.30866e-20)
(1.49089 0.056345 -1.15587e-20)
(1.47556 0.068482 1.1623e-20)
(1.45435 0.07624 -1.16883e-20)
(1.42817 0.0798279 -1.17598e-20)
(1.39814 0.079759 0)
(1.36544 0.0768252 0)
(1.33116 0.0720685 1.20263e-20)
(1.29611 0.0667653 -1.21101e-20)
(1.26061 0.0624198 0)
(1.22428 0.0607329 0)
(1.1859 0.0634704 1.25115e-20)
(1.14327 0.0721526 0)
(1.09341 0.0875619 0)
(1.03309 0.109149 -1.29457e-20)
(0.959462 0.134564 0)
(0.870275 0.160085 1.29798e-20)
(0.763055 0.183229 -2.65714e-20)
(0.634159 0.206702 0)
(0.479129 0.236629 0)
(0.294046 0.275038 -5.67644e-20)
(0.0743616 0.321378 -5.83225e-20)
(-0.185428 0.375118 -5.77539e-20)
(-0.489202 0.435447 2.78574e-20)
(-0.839125 0.501226 -2.77814e-20)
(-1.23521 0.570749 -8.21668e-20)
(-1.67452 0.641278 5.48648e-20)
(-2.15115 0.709291 2.75599e-20)
(-2.65651 0.770883 0)
(-3.18007 0.822307 -2.8819e-20)
(-3.71033 0.86048 3.14029e-20)
(-4.23573 0.883313 0)
(-4.74549 0.889863 0)
(-5.23023 0.880292 0)
(-5.6823 0.855676 -3.60083e-20)
(-6.09595 0.817771 0)
(-6.46723 0.768925 8.24468e-20)
(-6.79407 0.711923 0)
(-7.07659 0.649328 9.00344e-20)
(-7.31591 0.58311 0)
(-7.51411 0.515036 -9.67377e-20)
(-7.67372 0.446469 0)
(-7.79788 0.378547 1.01889e-19)
(-7.88997 0.312184 -5.30572e-20)
(-7.9534 0.248095 0)
(-7.99148 0.186832 -1.05636e-19)
(-8.00727 0.12884 -5.17868e-20)
(-8.00357 0.0746281 -5.15165e-20)
(-7.98301 0.0248416 0)
(-7.94706 -0.0200258 -5.13274e-20)
(-7.89506 -0.0600931 -4.8247e-20)
(-7.82346 -0.0963104 0)
(-7.73292 -0.12974 4.45827e-20)
(-7.62391 -0.161139 -8.6165e-20)
(-7.49695 -0.191143 0)
(-7.35239 -0.22038 -3.74524e-20)
(-7.19028 -0.24951 0)
(-7.01031 -0.27919 9.65207e-20)
(-6.81177 -0.310018 0)
(-6.5936 -0.3425 -7.69411e-20)
(-6.3544 -0.376974 -2.1443e-20)
(-6.09251 -0.41351 1.96891e-20)
(-5.80618 -0.45178 3.16184e-20)
(-5.49379 -0.490927 -2.34393e-20)
(-5.15391 -0.529921 0)
(-4.78581 -0.568777 0)
(-4.38813 -0.606709 0)
(-3.96064 -0.641874 -5.41509e-20)
(-3.50681 -0.671962 -3.11028e-20)
(-3.03001 -0.694857 4.283e-20)
(-2.53405 -0.708365 0)
(-2.02288 -0.710358 6.20037e-20)
(-1.5004 -0.69954 -7.96213e-20)
(-0.971386 -0.677065 -9.16814e-20)
(-0.443883 -0.64826 0)
(0.0705019 -0.619292 0)
(0.555527 -0.581357 0)
(0.996588 -0.525125 -9.78461e-20)
(1.38956 -0.451546 0)
(1.73058 -0.364031 1.82837e-19)
(2.0096 -0.264498 2.70237e-19)
(2.21791 -0.163578 -1.77627e-19)
(2.35226 -0.0720391 0)
(2.42108 0.00274839 -8.60371e-20)
(2.43001 0.0600121 0)
(2.38495 0.106148 -1.6848e-19)
(2.28721 0.150491 8.43647e-20)
(2.12834 0.201814 8.49333e-20)
(1.88985 0.267069 0)
(1.54831 0.351453 2.54744e-19)
(1.08583 0.454779 -1.69071e-19)
(0.50396 0.559314 -8.18494e-20)
(-0.166487 0.642752 0)
(-0.871813 0.690486 -5.76454e-20)
(-1.5624 0.698837 -1.31265e-19)
(-2.20404 0.672576 0)
(-2.77439 0.620833 -4.08923e-20)
(-3.26236 0.553122 -2.19915e-20)
(-3.66527 0.477573 -5.69663e-21)
(-3.98581 0.400232 0)
(-4.23065 0.325223 0)
(-4.40782 0.253863 0)
(-4.52634 0.186511 -1.80981e-20)
(-4.59422 0.123083 -1.78431e-20)
(-4.61886 0.0636824 0)
(-4.60566 0.00850149 -3.76468e-20)
(-4.55858 -0.042551 -3.39274e-20)
(-4.46852 -0.0904324 0)
(-4.33568 -0.136874 -1.8687e-20)
(-4.16003 -0.182537 -2.31141e-20)
(-3.9413 -0.227498 -1.67416e-21)
(-3.6787 -0.2712 -9.03255e-21)
(-3.37237 -0.312726 0)
(-3.02432 -0.350568 0)
(-2.63628 -0.384454 0)
(-2.2126 -0.412604 -8.01595e-20)
(-1.75863 -0.432099 9.3351e-20)
(-1.28054 -0.440309 2.31665e-19)
(-0.784602 -0.438419 -1.37329e-19)
(-0.271979 -0.436147 1.49355e-19)
(0.253822 -0.438036 1.62727e-19)
(0.77694 -0.436527 0)
(1.29319 -0.433661 0)
(1.79514 -0.421126 -1.57199e-19)
(2.27792 -0.400524 0)
(2.73737 -0.376352 0)
(3.17312 -0.351372 2.96338e-19)
(3.58684 -0.326451 0)
(3.9772 -0.301965 1.38106e-19)
(4.34072 -0.277114 -1.34595e-19)
(4.67394 -0.250952 0)
(4.97582 -0.224485 1.20613e-19)
(5.24436 -0.198052 0)
(5.47743 -0.171765 0)
(5.67316 -0.14558 -1.02295e-19)
(5.8296 -0.119199 1.92838e-19)
(5.94477 -0.0924541 -9.05575e-20)
(6.0177 -0.0641022 0)
(6.05345 -0.0338499 0)
(6.05439 -0.00601561 7.63519e-20)
(6.01655 0.0193789 0)
(5.9415 0.0416541 6.86618e-20)
(5.83241 0.0609737 0)
(5.69322 0.0778325 0)
(5.52859 0.0926813 0)
(5.34312 0.106008 5.89147e-20)
(5.14056 0.117973 0)
(4.92387 0.128154 -5.7291e-20)
(4.69624 0.136 0)
(4.46131 0.141142 0)
(4.22299 0.143445 1.17002e-19)
(3.98523 0.143156 -1.18894e-19)
(3.7517 0.140744 0)
(3.52508 0.136973 0)
(3.30763 0.132912 0)
(3.09677 0.130462 3.9385e-19)
(2.90086 0.134524 0)
(2.67835 0.147219 -2.79754e-19)
(0.0602515 -0.374321 4.38055e-22)
(0.116238 -0.429715 4.55195e-20)
(0.215831 -0.467966 0)
(0.322598 -0.499139 -4.33121e-20)
(0.431342 -0.521792 0)
(0.540882 -0.53467 0)
(0.648793 -0.537051 -3.4095e-22)
(0.75285 -0.529066 1.97464e-20)
(0.851596 -0.511568 1.99854e-20)
(0.94408 -0.485826 1.95928e-20)
(1.02962 -0.453258 0)
(1.10769 -0.415281 0)
(1.17794 -0.37323 -2.04422e-20)
(1.24013 -0.328322 -4.14199e-20)
(1.29414 -0.281647 4.20248e-20)
(1.33995 -0.234174 0)
(1.37767 -0.186765 4.336e-20)
(1.40748 -0.140199 -2.16959e-20)
(1.42971 -0.0952168 0)
(1.44473 -0.0525676 4.54233e-20)
(1.45295 -0.0128784 2.27644e-20)
(1.45499 0.0233732 -4.63972e-20)
(1.45153 0.055745 -2.30996e-20)
(1.44296 0.0835743 0)
(1.42958 0.106152 4.71127e-20)
(1.4117 0.122966 4.73289e-20)
(1.3896 0.133858 0)
(1.36364 0.139138 4.78153e-20)
(1.33411 0.139659 0)
(1.30115 0.136879 4.84343e-20)
(1.2646 0.132896 2.43268e-20)
(1.22374 0.13045 0)
(1.17714 0.132818 0)
(1.12257 0.143474 0)
(1.0572 0.165355 0)
(0.977938 0.199867 0)
(0.881975 0.246085 0)
(0.766841 0.300756 5.12228e-20)
(0.629693 0.35992 -7.74244e-20)
(0.465976 0.422076 0)
(0.268973 0.490623 0)
(0.032038 0.571403 0)
(-0.250479 0.66826 -2.76499e-22)
(-0.581256 0.780462 5.00171e-20)
(-0.961477 0.90481 9.6905e-20)
(-1.38938 1.03658 -9.43417e-20)
(-1.85944 1.16963 -4.73346e-20)
(-2.36245 1.29677 4.53683e-20)
(-2.88633 1.41042 2.81967e-21)
(-3.41752 1.50374 5.01955e-20)
(-3.94236 1.57141 0)
(-4.44845 1.61022 5.53253e-20)
(-4.92567 1.61916 4.98922e-21)
(-5.36668 1.59925 0)
(-5.7671 1.55317 0)
(-6.12528 1.48471 -7.07959e-20)
(-6.44179 1.39824 0)
(-6.71884 1.29827 0)
(-6.95965 1.18904 8.92237e-20)
(-7.16787 1.07426 1.75326e-19)
(-7.34729 0.957079 -8.62238e-20)
(-7.50131 0.840227 0)
(-7.63255 0.725946 9.26073e-20)
(-7.74268 0.615742 0)
(-7.8328 0.510543 1.04369e-19)
(-7.90349 0.410869 9.81361e-20)
(-7.95501 0.316953 -2.04247e-19)
(-7.98741 0.228819 -1.05189e-19)
(-8.00058 0.146321 0)
(-7.99437 0.0691586 2.02011e-19)
(-7.96864 -0.00308131 0)
(-7.92358 -0.0708154 2.8779e-19)
(-7.85986 -0.134258 1.87682e-19)
(-7.77852 -0.19349 1.81152e-19)
(-7.68042 -0.248864 -1.73876e-19)
(-7.56615 -0.301066 2.46911e-19)
(-7.43618 -0.350897 0)
(-7.29083 -0.399266 0)
(-7.13013 -0.447229 -1.37719e-19)
(-6.95367 -0.495867 -1.88549e-19)
(-6.7607 -0.546167 0)
(-6.55001 -0.599008 4.95674e-20)
(-6.32001 -0.655066 0)
(-6.0687 -0.714695 -1.12127e-19)
(-5.79392 -0.777788 4.79868e-21)
(-5.49378 -0.843608 -5.01936e-21)
(-5.1657 -0.910885 2.92489e-20)
(-4.80784 -0.978939 0)
(-4.4215 -1.04602 7.31128e-21)
(-4.00842 -1.10795 5.61056e-21)
(-3.57114 -1.1618 0)
(-3.11314 -1.20531 0)
(-2.63846 -1.23644 0)
(-2.15102 -1.25345 -1.21713e-19)
(-1.65414 -1.25501 0)
(-1.15096 -1.24002 0)
(-0.646162 -1.20711 0)
(-0.14578 -1.1534 0)
(0.341977 -1.07163 0)
(0.805565 -0.961461 -1.96598e-19)
(1.23175 -0.829972 0)
(1.60629 -0.679865 -1.83775e-19)
(1.92286 -0.51475 -1.79664e-19)
(2.17528 -0.344026 1.78092e-19)
(2.35277 -0.184155 0)
(2.45158 -0.0461334 1.76095e-19)
(2.47399 0.0687739 0)
(2.42275 0.170572 1.69602e-19)
(2.29468 0.276398 -1.68362e-19)
(2.0771 0.403527 -5.03082e-19)
(1.75014 0.561977 0)
(1.29697 0.74885 -4.98437e-19)
(0.719214 0.944963 -1.6097e-19)
(0.0495492 1.1156 0)
(-0.647717 1.22274 -2.43403e-19)
(-1.31181 1.25413 -1.92563e-19)
(-1.90838 1.21698 2.25791e-19)
(-2.4218 1.12929 0)
(-2.85098 1.01065 3.89095e-20)
(-3.20309 0.877411 2.10918e-20)
(-3.48834 0.741017 5.58307e-21)
(-3.71665 0.608349 0)
(-3.89641 0.482987 0)
(-4.03377 0.36675 0)
(-4.13222 0.259966 -3.85797e-20)
(-4.1931 0.161597 0)
(-4.21658 0.0703295 0)
(-4.20192 -0.015303 3.55746e-20)
(-4.14778 -0.097035 3.21507e-20)
(-4.05301 -0.175833 0)
(-3.91724 -0.252017 0)
(-3.73962 -0.326285 2.2312e-20)
(-3.51875 -0.39963 0)
(-3.25484 -0.471814 2.27273e-20)
(-2.94899 -0.541811 4.51415e-20)
(-2.60138 -0.607434 0)
(-2.21303 -0.666066 0)
(-1.78834 -0.71591 -1.49201e-19)
(-1.33177 -0.754509 -4.57063e-21)
(-0.847582 -0.780213 -4.31068e-21)
(-0.339799 -0.794159 0)
(0.185763 -0.800992 -6.07999e-19)
(0.715189 -0.799322 0)
(1.23674 -0.788691 0)
(1.74459 -0.768623 0)
(2.23607 -0.737744 3.07156e-19)
(2.71115 -0.69825 0)
(3.16905 -0.654839 -5.76543e-19)
(3.6093 -0.612198 -2.80196e-19)
(4.02951 -0.570562 0)
(4.42647 -0.528407 -2.56738e-19)
(4.79788 -0.485239 0)
(5.14412 -0.440592 0)
(5.46535 -0.3943 -6.60321e-19)
(5.76021 -0.346526 4.16947e-19)
(6.02659 -0.296549 0)
(6.26336 -0.244681 3.78061e-19)
(6.46888 -0.190973 -1.82384e-19)
(6.64063 -0.135177 0)
(6.77506 -0.0780892 0)
(6.86652 -0.022508 0)
(6.90939 0.0282652 -4.51152e-19)
(6.90004 0.0756746 0)
(6.83534 0.11887 -1.39212e-19)
(6.7155 0.156049 0)
(6.5444 0.186407 0)
(6.32976 0.210306 0)
(6.08254 0.228948 0)
(5.81445 0.243608 0)
(5.53476 0.25488 0)
(5.2496 0.262675 -2.37886e-19)
(4.96321 0.266568 0)
(4.6791 0.266214 -1.19688e-19)
(4.40057 0.261864 3.61048e-19)
(4.13072 0.254146 0)
(3.87194 0.244236 0)
(3.62644 0.233856 -2.524e-19)
(3.3922 0.225578 -2.59033e-19)
(3.17758 0.225189 2.65153e-19)
(2.95433 0.234594 2.72712e-19)
(0.0669725 -0.544181 -8.40256e-20)
(0.123458 -0.627488 -6.69205e-20)
(0.22825 -0.681192 -4.38243e-20)
(0.337206 -0.720355 -2.17553e-20)
(0.444462 -0.743806 0)
(0.549618 -0.7514 4.04273e-20)
(0.651002 -0.744121 -2.03778e-20)
(0.746953 -0.723642 0)
(0.836499 -0.691914 -1.91599e-20)
(0.919119 -0.650915 0)
(0.9945 -0.602527 3.97978e-20)
(1.06245 -0.548476 0)
(1.12285 -0.490333 1.99318e-20)
(1.17568 -0.429511 4.0556e-20)
(1.221 -0.36728 -4.13138e-20)
(1.25894 -0.304776 0)
(1.28972 -0.243019 -4.2943e-20)
(1.31361 -0.182921 0)
(1.33097 -0.125312 0)
(1.34219 -0.0709539 -4.5439e-20)
(1.34768 -0.0205205 0)
(1.34789 0.0254727 -5.31853e-22)
(1.34331 0.0664544 0)
(1.3344 0.101892 0)
(1.32153 0.131348 3.80581e-22)
(1.30493 0.154571 -4.78104e-20)
(1.28466 0.171638 -4.8349e-20)
(1.26054 0.183114 -4.82808e-20)
(1.23211 0.190219 0)
(1.19844 0.194973 -9.78052e-20)
(1.15807 0.20029 0)
(1.10884 0.209925 -4.95839e-20)
(1.04791 0.228221 0)
(0.972008 0.259449 0)
(0.877921 0.306643 5.04113e-20)
(0.762801 0.370565 0)
(0.624192 0.449613 -5.09231e-20)
(0.459511 0.541064 1.53343e-22)
(0.264685 0.643532 1.04176e-19)
(0.033169 0.758764 -1.04022e-19)
(-0.242947 0.891303 0)
(-0.56752 1.04393 0)
(-0.941184 1.21518 -4.64105e-20)
(-1.36089 1.39929 0)
(-1.81983 1.58745 -4.12697e-20)
(-2.30752 1.76912 4.05686e-20)
(-2.81059 1.93322 4.05546e-20)
(-3.31443 2.06966 0)
(-3.80497 2.17057 -4.26764e-20)
(-4.27029 2.23124 -4.47936e-20)
(-4.70173 2.2504 1.0584e-19)
(-5.0943 2.22987 -5.09077e-20)
(-5.44658 2.17395 -5.47412e-20)
(-5.76008 2.08847 0)
(-6.03826 1.97992 0)
(-6.28562 1.85465 6.79615e-20)
(-6.50675 1.71833 0)
(-6.70572 1.57567 0)
(-6.88561 1.43033 -1.62059e-19)
(-7.04841 1.28488 -1.69745e-19)
(-7.1951 1.14107 0)
(-7.32587 1.00013 0)
(-7.44028 0.862899 0)
(-7.53754 0.729946 0)
(-7.61676 0.60167 -1.97437e-19)
(-7.67716 0.478398 2.08942e-19)
(-7.71813 0.360427 2.0292e-19)
(-7.73939 0.248049 4.16115e-19)
(-7.74092 0.141556 0)
(-7.72307 0.0411753 6.71439e-21)
(-7.68642 -0.0530205 0)
(-7.63181 -0.141039 -1.94997e-19)
(-7.56033 -0.223069 5.47877e-21)
(-7.47316 -0.299529 -1.82989e-19)
(-7.37124 -0.371162 1.75816e-19)
(-7.25533 -0.438872 4.69162e-21)
(-7.12606 -0.503648 0)
(-6.98391 -0.566716 1.54393e-19)
(-6.82891 -0.629647 1.39759e-19)
(-6.66089 -0.69389 2.62435e-19)
(-6.47916 -0.760826 0)