/*--------------------------------*- C++ -*----------------------------------*\
| =========                 |                                                 |
| \\      /  F ield         | OpenFOAM: The Open Source CFD Toolbox           |
|  \\    /   O peration     | Version:  2112                                  |
|   \\  /    A nd           | Website:  www.openfoam.com                      |
|    \\/     M anipulation  |                                                 |
\*---------------------------------------------------------------------------*/
FoamFile
{
    version     2.0;
    format      ascii;
    arch        "LSB;label=32;scalar=64";
    class       volScalarField;
    location    "0.24";
    object      k;
}
// * * * * * * * * * * * * * * * * * * * * * * * * * * * * * * * * * * * * * //

dimensions      [0 2 -2 0 0 0 0];

internalField   nonuniform List<scalar> 
12225
(
0.891953
1.2729
1.48164
1.57298
1.59521
1.58044
1.54761
1.50733
1.46539
1.42481
1.38707
1.35279
1.32215
1.29511
1.27154
1.25129
1.23426
1.22009
0.400424
0.419982
0.427755
0.428618
0.425999
0.421913
0.417835
0.414789
0.413295
0.413537
0.415509
0.419097
0.424125
0.430379
0.437619
0.445575
0.454069
0.462825
0.376376
0.376073
0.36938
0.35838
0.345171
0.331019
0.31677
0.303019
0.290152
0.278383
0.267809
0.258441
0.250238
0.24312
0.236988
0.231726
0.227217
0.22326
0.372556
0.369233
0.364459
0.358121
0.350653
0.342521
0.334064
0.325531
0.317109
0.308927
0.301078
0.293617
0.28658
0.279983
0.273833
0.268128
0.262862
0.258047
0.37196
0.368527
0.364638
0.36022
0.355313
0.350041
0.344547
0.338951
0.333353
0.327828
0.322432
0.317207
0.312183
0.307381
0.302816
0.298498
0.294437
0.290665
0.371871
0.368583
0.365174
0.361574
0.357787
0.353854
0.349826
0.345751
0.341674
0.337635
0.333665
0.329789
0.326028
0.322398
0.31891
0.315574
0.312401
0.309425
0.371867
0.368678
0.365522
0.362349
0.359144
0.355912
0.352665
0.34942
0.346196
0.343011
0.339883
0.336824
0.333847
0.330962
0.328176
0.325497
0.322932
0.320513
0.371871
0.36873
0.365702
0.36275
0.359853
0.357
0.354187
0.351416
0.348691
0.346019
0.343405
0.340858
0.338381
0.33598
0.333659
0.331422
0.329274
0.327242
0.371871
0.368749
0.365778
0.36293
0.360187
0.357534
0.35496
0.35246
0.35003
0.347668
0.345374
0.343149
0.340995
0.338911
0.3369
0.334962
0.3331
0.331335
0.371869
0.368753
0.365801
0.362996
0.360322
0.357766
0.355315
0.352961
0.350695
0.348513
0.34641
0.344383
0.34243
0.340549
0.338739
0.336998
0.335327
0.333745
0.371867
0.36875
0.365803
0.363013
0.360365
0.357849
0.355454
0.353169
0.350987
0.348899
0.3469
0.344986
0.34315
0.34139
0.339703
0.338085
0.336535
0.335069
0.371865
0.368747
0.3658
0.363011
0.360371
0.357867
0.355491
0.353232
0.351083
0.349035
0.347083
0.345219
0.343439
0.341739
0.340113
0.338557
0.337071
0.335668
0.371864
0.368744
0.365795
0.363006
0.360366
0.357866
0.355496
0.353247
0.35111
0.34908
0.347148
0.345308
0.343556
0.341885
0.340291
0.338769
0.337318
0.335949
0.371863
0.368741
0.36579
0.362999
0.360358
0.357857
0.355487
0.353239
0.351106
0.349081
0.347156
0.345325
0.343583
0.341925
0.340345
0.338839
0.337404
0.336052
0.371862
0.368738
0.365786
0.362993
0.360349
0.357846
0.355474
0.353224
0.35109
0.349064
0.347139
0.345309
0.343568
0.341912
0.340335
0.338832
0.337401
0.336055
0.371861
0.368737
0.365782
0.362987
0.360342
0.357836
0.355461
0.353209
0.351073
0.349044
0.347116
0.345284
0.343541
0.341883
0.340304
0.3388
0.337369
0.336022
0.37186
0.368735
0.36578
0.362983
0.360336
0.357828
0.355452
0.353197
0.351058
0.349026
0.347096
0.345262
0.343516
0.341856
0.340275
0.338769
0.337336
0.335988
0.37186
0.368735
0.365778
0.362981
0.360333
0.357823
0.355445
0.353189
0.351048
0.349014
0.347082
0.345246
0.343499
0.341837
0.340254
0.338748
0.337314
0.335965
0.37186
0.368735
0.365778
0.362981
0.360332
0.357822
0.355443
0.353186
0.351044
0.34901
0.347077
0.345239
0.343492
0.341829
0.340246
0.33874
0.337306
0.335958
0.37186
0.368735
0.365779
0.362982
0.360334
0.357825
0.355446
0.353189
0.351048
0.349014
0.347081
0.345244
0.343497
0.341834
0.340252
0.338745
0.337312
0.335964
0.371861
0.368737
0.365782
0.362986
0.360338
0.35783
0.355452
0.353196
0.351055
0.349021
0.347088
0.345251
0.343502
0.341839
0.340254
0.338745
0.337309
0.335957
0.371862
0.368739
0.365785
0.36299
0.360343
0.357835
0.355456
0.353199
0.351054
0.349016
0.347076
0.34523
0.343471
0.341795
0.340195
0.33867
0.337215
0.335844
0.371863
0.368741
0.365788
0.362993
0.360343
0.357828
0.355437
0.353161
0.350991
0.348921
0.346942
0.34505
0.34324
0.341506
0.339844
0.338252
0.336726
0.335281
0.371865
0.368744
0.365788
0.36298
0.360306
0.35775
0.3553
0.352946
0.350679
0.348491
0.346379
0.344338
0.342367
0.340462
0.338623
0.336847
0.335135
0.333502
0.37187
0.368752
0.365783
0.362927
0.360154
0.357445
0.354786
0.352175
0.349609
0.347091
0.344624
0.342212
0.339857
0.337564
0.335333
0.333168
0.33107
0.329059
0.371905
0.368828
0.365851
0.36288
0.359834
0.356691
0.353471
0.350201
0.346911
0.343629
0.340374
0.337166
0.334017
0.33094
0.327943
0.325032
0.322212
0.319507
0.372179
0.369477
0.36654
0.363041
0.359006
0.354592
0.349929
0.345112
0.340217
0.335306
0.330429
0.325624
0.320923
0.316349
0.311918
0.307641
0.303526
0.299595
0.374233
0.373996
0.370988
0.365721
0.359134
0.351726
0.343771
0.335485
0.327063
0.318666
0.310425
0.30244
0.294785
0.287508
0.28064
0.274195
0.268177
0.262595
0.386245
0.394124
0.397141
0.397765
0.396754
0.3944
0.390966
0.386897
0.382603
0.378386
0.374462
0.37098
0.368033
0.365669
0.363911
0.362761
0.36222
0.36232
0.642879
0.874589
1.04596
1.17927
1.27419
1.33545
1.36944
1.3826
1.38064
1.36822
1.34896
1.32552
1.29984
1.27325
1.24667
1.22069
1.19567
1.17186
0.0386546
0.0651471
0.0872154
0.116036
0.148492
0.179817
0.20595
0.225076
0.238843
0.248026
0.253229
0.254951
0.253585
0.249407
0.24259
0.233645
0.225733
0.21793
0.209819
0.20141
0.193295
0.186985
0.185338
0.192388
0.211264
0.240453
0.271755
0.296383
0.31236
0.3231
0.333424
0.348717
0.373224
0.408306
0.452278
0.501723
0.553098
0.60367
0.651704
0.696272
0.736985
0.773779
0.806774
0.836192
0.862312
0.885461
0.90601
0.924392
0.94115
0.956994
0.969591
0.978323
0.983202
0.984168
0.981146
0.974076
0.962943
0.947792
0.928736
0.905956
0.879696
0.850251
0.817947
0.783131
0.746163
0.707437
0.667462
0.627066
0.587769
0.552517
0.523358
0.494767
0.465914
0.437457
0.410373
0.385748
0.364636
0.347909
0.336141
0.329544
0.327964
0.330939
0.337744
0.347407
0.358656
0.369838
0.378911
0.383839
0.383876
0.381983
0.383259
0.389058
0.40021
0.415613
0.431792
0.444159
0.450124
0.453098
0.464454
0.500232
0.575282
0.668006
0.754725
0.833762
0.904493
0.967047
1.02181
1.06928
1.10997
1.14445
1.1733
1.19717
1.2168
1.23305
1.24701
1.25817
1.26538
1.26887
1.26879
1.26523
1.25827
1.24797
1.23435
1.21746
1.19732
1.17398
1.14749
1.11795
1.0855
1.05036
1.01285
0.973548
0.933883
0.898748
0.880201
0.86863
0.855749
0.841215
0.825187
0.807874
0.789471
0.770143
0.750023
0.729213
0.707791
0.685817
0.663336
0.640382
0.61696
0.594292
0.571843
0.549157
0.526132
0.502823
0.47936
0.455916
0.432681
0.409857
0.387633
0.366119
0.345267
0.324952
0.305166
0.286116
0.268169
0.251725
0.237097
0.224436
0.213717
0.204785
0.197438
0.191712
0.187261
0.183619
0.180497
0.177666
0.174954
0.172014
0.168965
0.16376
0.0460257
0.0937248
0.177722
0.258823
0.325691
0.379076
0.420376
0.450892
0.47201
0.485138
0.491698
0.493079
0.490577
0.48538
0.478674
0.472022
0.464039
0.455824
0.448663
0.444688
0.447635
0.463777
0.502064
0.571077
0.671716
0.791133
0.897394
0.969061
1.00892
1.02392
1.02324
1.01613
1.01021
1.01037
1.01851
1.03437
1.05667
1.08401
1.11527
1.14964
1.18655
1.22557
1.26635
1.30858
1.35193
1.39602
1.44045
1.48473
1.52838
1.57018
1.60996
1.64753
1.68194
1.7122
1.73729
1.75633
1.76855
1.77338
1.7705
1.75981
1.74146
1.7158
1.68332
1.64461
1.60024
1.55069
1.49634
1.43739
1.37366
1.3068
1.24134
1.17493
1.10773
1.0405
0.974376
0.910652
0.850701
0.795794
0.74696
0.704887
0.669931
0.642199
0.621672
0.608233
0.601555
0.600859
0.604742
0.611313
0.618924
0.627653
0.644876
0.682026
0.746417
0.840179
0.956794
1.07784
1.17408
1.22229
1.23317
1.2403
1.26055
1.29216
1.33166
1.37684
1.42598
1.47755
1.53034
1.58349
1.63639
1.6886
1.73978
1.78966
1.83797
1.88451
1.9291
1.97127
2.01173
2.05015
2.08609
2.1191
2.14869
2.17437
2.19564
2.21198
2.22289
2.22787
2.22648
2.21837
2.20326
2.18106
2.15187
2.11597
2.07393
2.02755
1.98105
1.93223
1.88112
1.82846
1.77501
1.72139
1.66807
1.61538
1.5635
1.51251
1.46235
1.41289
1.36394
1.3153
1.26669
1.21768
1.16881
1.11981
1.07045
1.0206
0.97024
0.919462
0.868468
0.817558
0.767099
0.71739
0.668652
0.621283
0.576067
0.53403
0.496074
0.462707
0.433954
0.409431
0.38848
0.370468
0.35476
0.340921
0.328757
0.318247
0.309441
0.302362
0.296886
0.293213
0.29032
0.292887
0.064661
0.212013
0.325999
0.405829
0.461294
0.50109
0.5305
0.552396
0.568396
0.579593
0.58693
0.591363
0.593951
0.595977
0.599316
0.604327
0.610447
0.618062
0.628343
0.644072
0.670708
0.717155
0.794628
0.911325
1.0636
1.21898
1.33675
1.40537
1.42723
1.41384
1.3811
1.34472
1.31659
1.30313
1.30579
1.32273
1.35053
1.38559
1.4248
1.46591
1.50758
1.54918
1.59063
1.63213
1.67397
1.71637
1.75944
1.80307
1.84694
1.89023
1.93299
1.97429
2.01293
2.04757
2.07689
2.09962
2.1147
2.1213
2.11892
2.10741
2.08698
2.05819
2.02182
1.97885
1.93024
1.87688
1.81945
1.75834
1.69346
1.62487
1.55739
1.48832
1.41687
1.34284
1.2665
1.18856
1.11025
1.03331
0.959884
0.892285
0.832765
0.783302
0.745495
0.720531
0.7091
0.71119
0.72588
0.751615
0.787543
0.836446
0.90763
1.01243
1.16062
1.34439
1.5236
1.63355
1.63645
1.57722
1.53717
1.53501
1.56497
1.61535
1.67566
1.7382
1.79833
1.85411
1.90548
1.95338
1.99907
2.04372
2.0882
2.13298
2.17822
2.22372
2.26901
2.3141
2.35884
2.40258
2.44467
2.48446
2.52131
2.55459
2.58365
2.60785
2.62653
2.63905
2.6448
2.64324
2.63393
2.61659
2.59108
2.55744
2.51592
2.4701
2.42079
2.3678
2.31189
2.25394
2.19483
2.13524
2.07574
2.01669
1.9583
1.90061
1.84355
1.78694
1.73052
1.674
1.61704
1.55921
1.50051
1.44075
1.37982
1.31772
1.25451
1.19039
1.12564
1.06065
0.995904
0.931856
0.868886
0.807335
0.747687
0.690645
0.637003
0.587419
0.542275
0.501649
0.465163
0.432241
0.402475
0.375552
0.351239
0.329413
0.310057
0.293319
0.279407
0.268651
0.260882
0.25835
0.109228
0.315605
0.430226
0.504922
0.55855
0.599158
0.630366
0.654035
0.671452
0.683803
0.692359
0.698561
0.704097
0.711037
0.721973
0.735994
0.753581
0.775354
0.802617
0.838302
0.888148
0.961336
1.06873
1.21661
1.38862
1.54311
1.65297
1.70753
1.71165
1.6808
1.63478
1.59151
1.5629
1.55371
1.56291
1.58613
1.61793
1.65336
1.6888
1.72226
1.75316
1.78202
1.80987
1.83794
1.86728
1.89862
1.93226
1.96803
2.00535
2.04366
2.08288
2.12189
2.15932
2.19365
2.2233
2.24674
2.26257
2.26963
2.26713
2.25469
2.23246
2.20102
2.16138
2.11483
2.06279
2.00663
1.94755
1.88643
1.82366
1.75934
1.69707
1.63486
1.57108
1.50467
1.43476
1.36087
1.28305
1.20216
1.12004
1.03954
0.964391
0.898835
0.847103
0.812928
0.799143
0.80744
0.838367
0.891895
0.96917
1.07596
1.21468
1.38976
1.59362
1.78572
1.89458
1.87527
1.78058
1.71703
1.71012
1.74787
1.81041
1.88071
1.94754
2.00533
2.05289
2.09174
2.12461
2.1544
2.18356
2.21389
2.24644
2.2816
2.31921
2.35872
2.39929
2.44097
2.4832
2.5252
2.56623
2.60562
2.64275
2.67702
2.70784
2.73459
2.75666
2.77338
2.78414
2.78832
2.7854
2.77496
2.75667
2.73025
2.6969
2.65895
2.61652
2.57016
2.52067
2.46888
2.41555
2.3613
2.30661
2.2518
2.19701
2.14227
2.08745
2.03234
1.97664
1.92001
1.86207
1.80243
1.74084
1.67714
1.61125
1.54319
1.4731
1.40124
1.328
1.25386
1.17943
1.10532
1.03213
0.960356
0.890514
0.823204
0.759096
0.69882
0.642855
0.591387
0.544195
0.501043
0.46163
0.425655
0.392848
0.363
0.335959
0.311664
0.290114
0.271749
0.256624
0.245962
0.17205
0.385719
0.502047
0.588299
0.656358
0.709702
0.750474
0.78053
0.801704
0.815906
0.82519
0.831825
0.838427
0.848216
0.861958
0.880786
0.905699
0.937767
0.978586
1.03107
1.10044
1.19459
1.3221
1.48036
1.64382
1.78386
1.87835
1.9198
1.91532
1.88176
1.83883
1.80275
1.7827
1.78051
1.79274
1.81351
1.83693
1.85861
1.87631
1.88975
1.90008
1.90909
1.91868
1.93042
1.94538
1.96411
1.98665
2.0126
2.04119
2.07259
2.10688
2.14294
2.17934
2.2144
2.24635
2.27331
2.29345
2.30508
2.30685
2.29788
2.27792
2.24735
2.20721
2.15897
2.10443
2.04545
1.98377
1.92086
1.85771
1.79506
1.7362
1.6794
1.62311
1.56608
1.50697
1.44455
1.37785
1.30655
1.23136
1.1543
1.07895
1.0103
0.95437
0.917489
0.905546
0.923409
0.974728
1.06239
1.19039
1.355
1.54915
1.75839
1.94628
2.05244
2.03259
1.92622
1.84407
1.83065
1.87223
1.94293
2.02045
2.09019
2.14511
2.18401
2.2094
2.22546
2.23663
2.24675
2.25865
2.27412
2.29401
2.31837
2.3467
2.37809
2.41147
2.44657
2.48253
2.51848
2.55371
2.58765
2.61983
2.64984
2.67728
2.70169
2.72259
2.73946
2.75173
2.75886
2.76033
2.75571
2.74461
2.72689
2.70423
2.6773
2.6465
2.6124
2.5756
2.53673
2.49629
2.45471
2.41227
2.36912
2.32528
2.28066
2.23504
2.18815
2.13962
2.08907
2.03604
1.98005
1.92074
1.85804
1.79193
1.72247
1.64983
1.57435
1.49648
1.41681
1.33605
1.25497
1.17432
1.09479
1.01702
0.941663
0.869383
0.80078
0.736339
0.676377
0.620938
0.569888
0.52301
0.480048
0.440743
0.404855
0.372176
0.342547
0.315824
0.292018
0.271314
0.254308
0.248336
0.454504
0.590062
0.69753
0.78098
0.844725
0.892379
0.92687
0.950772
0.966534
0.976652
0.983821
0.991086
1.00203
1.01742
1.03901
1.06845
1.10738
1.1578
1.22258
1.30615
1.41448
1.54887
1.69853
1.84504
1.96597
2.04486
2.07745
2.07177
2.04348
2.0095
1.98241
1.9679
1.96527
1.96988
1.97604
1.97921
1.97706
1.96948
1.95795
1.94474
1.93217
1.92225
1.91646
1.91571
1.92044
1.93062
1.94587
1.96546
1.99047
2.0209
2.05566
2.09333
2.13227
2.17061
2.20621
2.23676
2.2599
2.27343
2.27559
2.26535
2.24255
2.20793
2.16304
2.10993
2.05087
1.98813
1.92373
1.85923
1.79661
1.73878
1.68415
1.63189
1.58108
1.53052
1.47883
1.42466
1.36698
1.30547
1.24108
1.17637
1.11585
1.06595
1.03462
1.03058
1.06242
1.13788
1.26355
1.43648
1.64343
1.86149
2.05174
2.16172
2.15268
2.04889
1.94748
1.9194
1.9571
2.03148
2.11522
2.18955
2.24474
2.27843
2.29325
2.29432
2.28744
2.27787
2.26977
2.26601
2.26817
2.27675
2.29142
2.31124
2.33493
2.36116
2.38892
2.41703
2.4446
2.47103
2.49597
2.51923
2.54068
2.56022
2.57764
2.59269
2.605
2.61417
2.61976
2.62139
2.61874
2.61155
2.60036
2.5861
2.56919
2.55005
2.52912
2.50679
2.48338
2.45911
2.43409
2.40831
2.38166
2.35391
2.32476
2.29384
2.26071
2.22489
2.18589
2.14315
2.09595
2.04387
1.98692
1.92514
1.85863
1.78761
1.71244
1.63365
1.55193
1.46806
1.38295
1.29751
1.21259
1.129
1.04753
0.968888
0.893715
0.822508
0.755676
0.693507
0.635954
0.582879
0.534081
0.489329
0.44839
0.411042
0.377087
0.346335
0.318638
0.293932
0.272589
0.318899
0.53475
0.700128
0.824527
0.917688
0.988095
1.04094
1.07974
1.10725
1.12601
1.13855
1.14768
1.15652
1.16868
1.18517
1.20828
1.24022
1.28314
1.33935
1.41159
1.50345
1.61523
1.74313
1.87813
2.005
2.10685
2.17204
2.1986
2.19403
2.17132
2.14346
2.11919
2.10136
2.08798
2.07471
2.05742
2.03372
2.00342
1.96805
1.93013
1.8924
1.85741
1.82721
1.80327
1.78655
1.77748
1.77615
1.78226
1.79524
1.81622
1.84454
1.87917
1.91905
1.963
2.00951
2.05664
2.10187
2.14224
2.17456
2.19583
2.20371
2.19698
2.17572
2.14122
2.09565
2.04167
1.98204
1.91926
1.85562
1.79507
1.73828
1.68504
1.63529
1.58864
1.54434
1.50131
1.45826
1.41391
1.36735
1.31856
1.26897
1.2221
1.18403
1.16348
1.17135
1.21966
1.31964
1.47738
1.68122
1.90641
2.11054
2.2399
2.25372
2.16369
2.04673
1.992
2.01554
2.08753
2.176
2.25716
2.31728
2.35146
2.36121
2.35182
2.33004
2.30262
2.27531
2.25247
2.23687
2.22978
2.2312
2.24018
2.25516
2.2743
2.29586
2.31772
2.33844
2.35718
2.37357
2.38759
2.39944
2.40938
2.41762
2.42427
2.42931
2.43254
2.43366
2.4324
2.4285
2.42185
2.41272
2.40201
2.39029
2.37815
2.3661
2.35457
2.34383
2.33399
2.32498
2.31657
2.30838
2.29994
2.2907
2.28004
2.26731
2.25183
2.23292
2.2099
2.18201
2.14821
2.10797
2.06133
2.00834
1.94911
1.88387
1.81301
1.7371
1.65687
1.57322
1.48715
1.39972
1.31194
1.22481
1.13925
1.0561
0.976093
0.899794
0.827599
0.76003
0.697166
0.638955
0.585259
0.535892
0.490644
0.449302
0.411659
0.377511
0.346676
0.318907
0.294418
0.377282
0.623288
0.813878
0.948852
1.04937
1.12648
1.18582
1.23086
1.26419
1.28816
1.30521
1.31811
1.33004
1.34354
1.36081
1.38456
1.41741
1.46185
1.52028
1.59526
1.68605
1.79156
1.90737
2.0249
2.13189
2.21581
2.26847
2.28903
2.28358
2.26194
2.23337
2.20351
2.17354
2.14141
2.104
2.05911
2.00635
1.94718
1.88434
1.82114
1.76087
1.70636
1.65977
1.62247
1.59517
1.578
1.57076
1.57306
1.58451
1.60414
1.63036
1.66259
1.70071
1.7447
1.79433
1.84873
1.90603
1.96323
2.01635
2.06096
2.09293
2.10925
2.10862
2.0916
2.06019
2.01727
1.96602
1.90945
1.85204
1.79618
1.74269
1.69242
1.64592
1.60343
1.56477
1.52939
1.49637
1.46454
1.43277
1.40035
1.36767
1.33709
1.31388
1.30686
1.32835
1.39277
1.51368
1.69152
1.90762
2.12315
2.28266
2.33553
2.27353
2.15389
2.06543
2.05965
2.12008
2.20971
2.29893
2.36871
2.41006
2.42196
2.40868
2.37729
2.33576
2.29164
2.25121
2.21899
2.19755
2.18761
2.18832
2.19776
2.21343
2.23272
2.25309
2.27147
2.28635
2.29708
2.30363
2.3064
2.30604
2.30326
2.29861
2.29248
2.28503
2.27617
2.2656
2.25308
2.2384
2.22168
2.20404
2.18607
2.16868
2.15287
2.13955
2.12945
2.12304
2.12041
2.12137
2.12541
2.13182
2.13971
2.14811
2.15601
2.16238
2.16619
2.16645
2.16219
2.15238
2.13557
2.11102
2.07869
2.03856
1.99068
1.93524
1.87262
1.80337
1.72827
1.64825
1.56443
1.47795
1.39003
1.3018
1.21437
1.12871
1.0457
0.966026
0.890149
0.818553
0.751607
0.689347
0.631713
0.578572
0.529756
0.485072
0.444324
0.40731
0.373836
0.343633
0.316706
0.423022
0.710387
0.917928
1.06145
1.16995
1.25524
1.32287
1.37606
1.41711
1.44809
1.47126
1.4892
1.50497
1.52047
1.53868
1.56261
1.59518
1.63914
1.69581
1.76622
1.84973
1.94408
2.04451
2.14337
2.23089
2.29763
2.3376
2.35022
2.33987
2.31345
2.27727
2.23492
2.18693
2.13188
2.0682
1.99554
1.91537
1.83077
1.74581
1.66482
1.59164
1.52912
1.47889
1.44144
1.41639
1.40282
1.39959
1.40561
1.41998
1.43869
1.45986
1.48359
1.51097
1.54371
1.58367
1.6322
1.68935
1.75332
1.82024
1.88463
1.9404
1.98208
2.00607
2.01142
1.9993
1.97253
1.93447
1.89012
1.84295
1.79499
1.74794
1.70319
1.66184
1.62467
1.59215
1.56433
1.54087
1.52103
1.50379
1.48815
1.47372
1.46173
1.45626
1.46544
1.50177
1.58046
1.71495
1.8992
2.10669
2.28872
2.38818
2.37265
2.26896
2.15619
2.10705
2.1389
2.22195
2.31776
2.40055
2.45563
2.47782
2.46891
2.43513
2.385
2.32766
2.27157
2.22362
2.18841
2.16803
2.16221
2.16886
2.18473
2.20613
2.22955
2.25132
2.26818
2.27878
2.28282
2.28066
2.27313
2.26133
2.24645
2.22938
2.21069
2.19073
2.16944
2.14623
2.1209
2.0931
2.06362
2.03274
2.00133
1.97069
1.94238
1.91802
1.89907
1.88662
1.88123
1.88293
1.89123
1.90523
1.92371
1.94529
1.96848
1.9918
2.01377
2.033
2.04813
2.05775
2.05998
2.05372
2.03869
2.01469
1.98163
1.93957
1.88879
1.82979
1.76331
1.69031
1.61194
1.52946
1.44419
1.35745
1.27049
1.18448
1.10042
1.01915
0.941285
0.867239
0.797564
0.732445
0.671918
0.615924
0.564346
0.517027
0.473794
0.434459
0.398831
0.366672
0.337833
0.457868
0.789306
1.00904
1.16121
1.27844
1.37276
1.44959
1.51191
1.56174
1.60088
1.63125
1.65517
1.67537
1.69369
1.71321
1.73704
1.76799
1.80835
1.85951
1.92187
1.99447
2.07472
2.15806
2.23789
2.30638
2.35619
2.3826
2.38483
2.36562
2.32959
2.28096
2.22216
2.15372
2.07528
1.98695
1.8904
1.78916
1.68818
1.59297
1.5085
1.43835
1.38433
1.34656
1.32386
1.3143
1.31556
1.32528
1.34116
1.36082
1.37854
1.39274
1.40363
1.41286
1.42353
1.43976
1.46585
1.50506
1.55832
1.62345
1.69524
1.76631
1.82872
1.87575
1.90411
1.9133
1.90549
1.88508
1.85625
1.82212
1.78519
1.74754
1.71092
1.67684
1.64657
1.62114
1.60125
1.58726
1.57907
1.57615
1.57767
1.5829
1.5921
1.60788
1.63676
1.68984
1.7811
1.92043
2.09659
2.27718
2.41087
2.44954
2.3849
2.26816
2.17854
2.16457
2.2214
2.31472
2.41054
2.48486
2.52562
2.53065
2.50378
2.45281
2.38764
2.31867
2.25542
2.20529
2.17274
2.15898
2.16236
2.17922
2.20484
2.23434
2.2633
2.28723
2.30339
2.31076
2.30941
2.30009
2.28397
2.26251
2.2374
2.20984
2.1805
2.14993
2.11824
2.08411
2.0483
2.00983
1.96841
1.92413
1.87767
1.83043
1.78435
1.74176
1.70503
1.67627
1.65703
1.64815
1.6497
1.66102
1.68089
1.70767
1.73949
1.77437
1.81037
1.84557
1.87816
1.90628
1.92763
1.94056
1.94439
1.93859
1.92281
1.8969
1.86093
1.81528
1.76058
1.69773
1.62789
1.55235
1.47254
1.38989
1.30582
1.22165
1.13856
1.05754
0.979372
0.904602
0.833644
0.766954
0.704675
0.646835
0.593379
0.5442
0.499157
0.458089
0.420819
0.387136
0.356855
0.484584
0.857564
1.08782
1.24861
1.3744
1.47752
1.56341
1.6349
1.69379
1.74155
1.77978
1.81039
1.83563
1.85729
1.8784
1.90191
1.93043
1.96602
2.00992
2.06232
2.1222
2.18705
2.25279
2.31385
2.36387
2.39695
2.40908
2.39908
2.36841
2.31998
2.25667
2.1804
2.09217
1.99296
1.88485
1.77175
1.65936
1.55424
1.46246
1.38844
1.33431
1.3
1.28385
1.28325
1.2951
1.31613
1.34298
1.3724
1.39932
1.41934
1.43019
1.43096
1.42262
1.40851
1.39432
1.38718
1.39398
1.41954
1.46492
1.5269
1.59851
1.67053
1.73299
1.77993
1.80847
1.81995
1.81802
1.80595
1.78673
1.76298
1.73691
1.7105
1.68554
1.66366
1.6464
1.63505
1.63069
1.63402
1.64529
1.66425
1.69034
1.72322
1.7639
1.81635
1.88838
1.9902
2.12698
2.28305
2.42432
2.50419
2.49008
2.39547
2.28229
2.21816
2.23027
2.30192
2.39883
2.49042
2.55603
2.5855
2.57704
2.536
2.47155
2.39506
2.31823
2.2516
2.20297
2.17631
2.17166
2.18579
2.21344
2.24858
2.2854
2.31884
2.34428
2.35964
2.3643
2.35865
2.34371
2.32089
2.29176
2.25863
2.22296
2.18543
2.14667
2.10759
2.06719
2.0248
1.97937
1.92997
1.87608
1.81786
1.75632
1.69329
1.63132
1.57337
1.52247
1.48136
1.45212
1.43601
1.4333
1.44338
1.46484
1.49577
1.53389
1.57684
1.6222
1.66764
1.71084
1.74909
1.78007
1.80253
1.81545
1.81809
1.80996
1.79085
1.76088
1.72049
1.67047
1.61186
1.54596
1.47422
1.39818
1.31937
1.23924
1.15915
1.08023
1.00344
0.929482
0.858837
0.791946
0.729128
0.670511
0.616121
0.56591
0.519783
0.477612
0.439246
0.404504
0.373216
0.505506
0.912525
1.1543
1.32336
1.45689
1.56789
1.662
1.74203
1.80961
1.86595
1.91228
1.95007
1.98108
2.007
2.03055
2.05438
2.08083
2.11172
2.14817
2.19033
2.23729
2.28685
2.33554
2.37875
2.4113
2.42826
2.42609
2.40325
2.36019
2.29867
2.22076
2.1283
2.02311
1.90771
1.78628
1.66487
1.55079
1.45119
1.37147
1.31443
1.28028
1.26732
1.27274
1.29324
1.32523
1.36494
1.4084
1.45152
1.48852
1.51598
1.53049
1.52927
1.51133
1.47874
1.43748
1.39666
1.36632
1.35528
1.36839
1.40566
1.46221
1.52976
1.59621
1.65218
1.69449
1.72241
1.7373
1.74145
1.73741
1.72758
1.71417
1.69919
1.6846
1.67228
1.66412
1.66196
1.66754
1.68239
1.70769
1.74411
1.7917
1.84998
1.91858
1.9983
2.09205
2.20388
2.33307
2.46137
2.55734
2.58464
2.52815
2.41688
2.31321
2.26985
2.29871
2.37772
2.47433
2.56092
2.6192
2.64028
2.62308
2.57269
2.49849
2.41426
2.33249
2.26459
2.21861
2.19799
2.20152
2.2245
2.26035
2.30214
2.34353
2.37906
2.40465
2.41866
2.42074
2.41153
2.39225
2.36443
2.32937
2.29018
2.24855
2.20563
2.16224
2.11871
2.07454
2.02875
1.98
1.92688
1.86829
1.80373
1.73353
1.659
1.58233
1.50641
1.43459
1.37029
1.31668
1.27631
1.25088
1.24104
1.24642
1.2657
1.29686
1.33742
1.38469
1.43591
1.48831
1.53887
1.58458
1.62343
1.6538
1.6744
1.68428
1.68285
1.66987
1.64549
1.61025
1.56503
1.51102
1.44965
1.38246
1.31108
1.23708
1.16192
1.08691
1.01315
0.941497
0.872605
0.806903
0.744779
0.686483
0.632131
0.581745
0.535286
0.492668
0.453777
0.418466
0.386598
0.518953
0.95732
1.20891
1.38488
1.52481
1.64238
1.74355
1.8312
1.90687
1.97156
2.02617
2.07173
2.10953
2.14106
2.1686
2.19437
2.22031
2.24799
2.27835
2.31159
2.34695
2.38268
2.41596
2.44306
2.45974
2.4619
2.44632
2.41121
2.35634
2.28265
2.19177
2.08571
1.96722
1.84038
1.71118
1.58724
1.4766
1.38596
1.31936
1.27789
1.26035
1.26416
1.28609
1.32254
1.36971
1.42354
1.47974
1.53358
1.58067
1.61798
1.64136
1.64633
1.6293
1.58966
1.53189
1.46578
1.40346
1.35711
1.3349
1.34022
1.37107
1.42019
1.47754
1.53386
1.58286
1.62151
1.64931
1.66725
1.677
1.68048
1.67962
1.67634
1.67259
1.6704
1.67191
1.67936
1.69509
1.72138
1.76036
1.81377
1.88261
1.96677
2.06495
2.17483
2.29353
2.41707
2.53756
2.63586
2.68636
2.66596
2.57589
2.45452
2.35928
2.32936
2.36689
2.44796
2.54214
2.62415
2.67725
2.69323
2.67119
2.61621
2.53808
2.44996
2.36538
2.29653
2.25197
2.23495
2.2432
2.27086
2.31051
2.3547
2.397
2.43193
2.45601
2.46769
2.46695
2.45454
2.43178
2.40036
2.36215
2.31944
2.27416
2.22775
2.18123
2.13497
2.08866
2.04132
1.9915
1.93756
1.87794
1.8116
1.73822
1.65844
1.57384
1.48683
1.40046
1.31813
1.24331
1.17927
1.12881
1.09395
1.0758
1.07438
1.08869
1.11687
1.15645
1.20461
1.25831
1.31442
1.3694
1.4204
1.46505
1.50143
1.52802
1.5437
1.54778
1.54003
1.52062
1.49018
1.4497
1.40047
1.34401
1.28193
1.21588
1.14742
1.07798
1.00879
0.940864
0.87499
0.811742
0.751515
0.694616
0.641261
0.59155
0.545508
0.503102
0.464261
0.428877
0.396855
0.5256
0.991562
1.25089
1.43213
1.57691
1.69963
1.80664
1.90099
1.98424
2.05722
2.12056
2.17489
2.22106
2.26028
2.29428
2.32471
2.35306
2.38052
2.40782
2.43511
2.46184
2.48665
2.50732
2.52096
2.52416
2.51354
2.48622
2.4403
2.37508
2.29099
2.18938
2.07253
1.94393
1.80889
1.67469
1.54981
1.44234
1.35826
1.3004
1.26879
1.26155
1.27579
1.308
1.35428
1.41074
1.47243
1.53526
1.5953
1.64954
1.69499
1.72741
1.7416
1.73216
1.69568
1.63394
1.55549
1.47328
1.40032
1.34683
1.31955
1.32036
1.34529
1.38623
1.43417
1.48183
1.52459
1.56024
1.58828
1.60927
1.62434
1.63491
1.64265
1.64939
1.6572
1.66836
1.68543
1.71115
1.74848
1.8004
1.86968
1.95845
2.06744
2.19506
2.33655
2.48341
2.62295
2.73815
2.81
2.81976
2.75815
2.64045
2.51023
2.4185
2.39415
2.43358
2.51276
2.60328
2.68154
2.73177
2.74595
2.72301
2.6677
2.5895
2.50119
2.41648
2.34775
2.30344
2.2865
2.29449
2.32134
2.35936
2.40098
2.43997
2.47129
2.49199
2.50073
2.49735
2.48253
2.45755
2.42405
2.38393
2.33924
2.29185
2.24332
2.19477
2.14674
2.09908
2.051
2.0011
1.94767
1.88895
1.82348
1.75049
1.67002
1.58306
1.49146
1.39774
1.3049
1.21614
1.13472
1.0637
1.00579
0.963141
0.937158
0.928331
0.936147
0.959148
0.995104
1.04127
1.0947
1.15176
1.20886
1.26285
1.31111
1.35147
1.38221
1.4021
1.41038
1.40682
1.39164
1.36554
1.32959
1.28517
1.23384
1.17722
1.11694
1.0545
0.991258
0.928334
0.866647
0.8069
0.749603
0.695106
0.64365
0.595419
0.55051
0.508947
0.47071
0.435738
0.403976
0.525443
1.01445
1.2791
1.46382
1.61188
1.73842
1.85023
1.95065
2.04128
2.1229
2.19592
2.26067
2.31759
2.36752
2.41157
2.45078
2.48603
2.51805
2.54722
2.57355
2.59651
2.61502
2.62739
2.63136
2.6243
2.60348
2.56651
2.5115
2.43715
2.34411
2.23352
2.10778
1.97089
1.82892
1.68986
1.5626
1.45511
1.37281
1.31791
1.28998
1.28689
1.30544
1.34166
1.39107
1.44905
1.51131
1.57492
1.63713
1.69523
1.74609
1.78567
1.80871
1.80881
1.78024
1.72167
1.63935
1.54584
1.45491
1.3781
1.3242
1.29797
1.2984
1.31968
1.3541
1.39459
1.43584
1.47448
1.50868
1.53782
1.56207
1.58223
1.59956
1.61572
1.63271
1.6529
1.67899
1.71407
1.76156
1.82513
1.90848
2.01484
2.14604
2.30096
2.47355
2.65072
2.81138
2.9297
2.98427
2.96228
2.86701
2.72545
2.58444
2.48972
2.46328
2.4987
2.57265
2.65843
2.73367
2.78302
2.79834
2.77806
2.72626
2.65172
2.56647
2.48375
2.41552
2.36992
2.34987
2.35324
2.37434
2.40586
2.44061
2.47284
2.49811
2.51381
2.51859
2.51215
2.49502
2.46831
2.43354
2.39243
2.3468
2.29841
2.24875
2.19897
2.14974
2.10111
2.05249
2.00269
1.95007
1.89283
1.82935
1.7585
1.67989
1.59403
1.50224
1.40655
1.30949
1.21387
1.12262
1.03856
0.964349
0.902359
0.854594
0.822554
0.807073
0.808154
0.824889
0.855547
0.897963
0.949097
1.00499
1.06195
1.1167
1.16643
1.20876
1.24185
1.26436
1.27552
1.27508
1.26334
1.24105
1.20935
1.16964
1.12348
1.07248
1.01817
0.961982
0.90513
0.848638
0.793315
0.739776
0.688471
0.639713
0.593684
0.550555
0.510412
0.473291
0.43918
0.408068
0.518136
1.02478
1.29206
1.47841
1.62834
1.75764
1.87363
1.97996
2.07845
2.1699
2.25461
2.33265
2.40403
2.46921
2.52866
2.58273
2.63165
2.67548
2.71408
2.74704
2.77366
2.79283
2.80308
2.80258
2.78914
2.76077
2.71582
2.65282
2.5709
2.47021
2.35192
2.21853
2.07429
1.92552
1.7803
1.6474
1.53454
1.44702
1.38713
1.35465
1.34755
1.36254
1.39537
1.44128
1.49562
1.55461
1.61652
1.67872
1.73811
1.79135
1.83451
1.86241
1.8683
1.84521
1.78976
1.70631
1.60642
1.50368
1.41017
1.33605
1.28804
1.26718
1.26959
1.28914
1.31963
1.35587
1.39386
1.43083
1.46509
1.49591
1.52343
1.54847
1.57245
1.59729
1.62534
1.65942
1.70279
1.75916
1.83271
1.92785
2.04878
2.19853
2.37708
2.57846
2.78712
2.97528
3.10796
3.15874
3.11766
2.99755
2.83494
2.67982
2.57503
2.53902
2.56461
2.62977
2.70928
2.78158
2.8314
2.85015
2.83546
2.79045
2.72279
2.64338
2.56442
2.49703
2.44897
2.42335
2.41869
2.4302
2.45141
2.47588
2.49848
2.51532
2.52418
2.52367
2.51334
2.49352
2.46513
2.42943
2.38789
2.34206
2.29344
2.24337
2.19295
2.14288
2.09339
2.04413
1.99416
1.94208
1.88619
1.82483
1.75671
1.68115
1.59822
1.50881
1.41448
1.31733
1.21981
1.12451
1.03398
0.950612
0.876549
0.813696
0.763692
0.727886
0.707238
0.702151
0.71235
0.737142
0.774912
0.822135
0.875056
0.930023
0.983676
1.03305
1.07568
1.10958
1.13338
1.14629
1.1481
1.13914
1.12022
1.09249
1.05736
1.01635
0.970981
0.922682
0.872743
0.822261
0.772133
0.723065
0.67559
0.630099
0.586874
0.546086
0.507865
0.472307
0.439455
0.409347
0.50267
1.01942
1.28582
1.4717
1.62209
1.75325
1.87295
1.98518
2.09199
2.19435
2.29256
2.38655
2.47599
2.56098
2.6414
2.71694
2.78711
2.85125
2.90847
2.9577
2.99764
3.0268
3.04344
3.0456
3.03175
3.00064
2.95121
2.88259
2.79439
2.68698
2.56166
2.42103
2.26938
2.11284
1.95917
1.81676
1.69322
1.59407
1.52219
1.47799
1.45985
1.46469
1.48833
1.5261
1.57356
1.62729
1.68618
1.74618
1.80359
1.85486
1.8961
1.92221
1.92643
1.90149
1.84347
1.75608
1.64995
1.53761
1.43105
1.3414
1.27646
1.23836
1.22455
1.23033
1.25065
1.2807
1.31628
1.3539
1.39105
1.42625
1.45902
1.48982
1.51986
1.55094
1.58543
1.62614
1.67643
1.74016
1.82175
1.92607
2.05801
2.22162
2.41813
2.64265
2.87934
3.09684
3.2529
3.31419
3.26935
3.13616
2.95777
2.78749
2.66796
2.61715
2.62875
2.68239
2.75414
2.82299
2.87355
2.89663
2.88895
2.85247
2.79357
2.72174
2.64786
2.58199
2.53142
2.49947
2.48546
2.48566
2.49471
2.50703
2.51821
2.52501
2.52551
2.51844
2.50326
2.48016
2.44979
2.41315
2.37139
2.32573
2.27735
2.22732
2.1766
2.12586
2.07545
2.02526
1.97466
1.92254