/*--------------------------------*- C++ -*----------------------------------*\
| =========                 |                                                 |
| \\      /  F ield         | OpenFOAM: The Open Source CFD Toolbox           |
|  \\    /   O peration     | Version:  2112                                  |
|   \\  /    A nd           | Website:  www.openfoam.com                      |
|    \\/     M anipulation  |                                                 |
\*---------------------------------------------------------------------------*/
FoamFile
{
    version     2.0;
    format      ascii;
    arch        "LSB;label=32;scalar=64";
    class       surfaceScalarField;
    location    "0.02";
    object      phi;
}
// * * * * * * * * * * * * * * * * * * * * * * * * * * * * * * * * * * * * * //

dimensions      [0 3 -1 0 0 0 0];

oriented        oriented;

internalField   nonuniform List<scalar> 
24170
(
3.10981e-06
9.25526e-09
3.0218e-06
8.80109e-08
2.91181e-06
1.09992e-07
2.80788e-06
1.03933e-07
2.69547e-06
1.1241e-07
2.57716e-06
1.18311e-07
2.47616e-06
1.00997e-07
2.40229e-06
7.38747e-08
2.34446e-06
5.78237e-08
2.285e-06
5.94629e-08
2.21417e-06
7.08272e-08
2.1312e-06
8.29704e-08
2.04481e-06
8.63893e-08
1.95824e-06
8.6574e-08
1.87009e-06
8.8148e-08
1.77772e-06
9.23717e-08
1.66567e-06
1.12045e-07
1.25196e-07
1.54048e-06
3.44331e-06
-6.24509e-10
3.45508e-06
7.62371e-08
3.44995e-06
1.15126e-07
3.46034e-06
9.35412e-08
3.47819e-06
9.45595e-08
3.48615e-06
1.10356e-07
3.47678e-06
1.10361e-07
3.45469e-06
9.59634e-08
3.42973e-06
8.27826e-08
3.40881e-06
8.03895e-08
3.39361e-06
8.6025e-08
3.38007e-06
9.65062e-08
3.36288e-06
1.03581e-07
3.33717e-06
1.12292e-07
3.29771e-06
1.27598e-07
3.24327e-06
1.46816e-07
3.17411e-06
1.81204e-07
2.08587e-07
3.09072e-06
3.53872e-06
3.68279e-08
3.59286e-06
2.21e-08
3.6205e-06
8.74836e-08
3.62831e-06
8.57356e-08
3.64716e-06
7.57105e-08
3.67637e-06
8.11377e-08
3.69953e-06
8.7202e-08
3.70939e-06
8.61082e-08
3.71038e-06
8.17962e-08
3.71005e-06
8.07121e-08
3.71269e-06
8.33928e-08
3.71877e-06
9.04216e-08
3.72368e-06
9.86696e-08
3.72395e-06
1.12019e-07
3.71533e-06
1.3622e-07
3.69479e-06
1.67357e-07
3.66573e-06
2.10263e-07
2.49473e-07
3.62485e-06
3.96381e-06
1.64992e-07
3.8842e-06
1.01717e-07
3.88857e-06
8.31117e-08
3.91046e-06
6.3848e-08
3.92426e-06
6.19123e-08
3.93679e-06
6.85992e-08
3.95363e-06
7.03662e-08
3.96947e-06
7.02713e-08
3.97715e-06
7.41089e-08
3.97506e-06
8.28041e-08
3.96675e-06
9.17055e-08
3.95852e-06
9.8654e-08
3.95366e-06
1.03522e-07
3.9543e-06
1.1138e-07
3.95955e-06
1.30971e-07
3.96509e-06
1.61824e-07
3.97026e-06
2.05089e-07
2.52017e-07
3.96772e-06
4.23265e-06
1.9699e-07
4.21818e-06
1.16194e-07
4.22934e-06
7.19447e-08
4.23993e-06
5.32607e-08
4.24083e-06
6.10108e-08
4.23883e-06
7.06059e-08
4.24136e-06
6.78334e-08
4.24824e-06
6.33899e-08
4.25447e-06
6.7882e-08
4.25487e-06
8.23983e-08
4.2467e-06
9.98828e-08
4.2312e-06
1.14147e-07
4.21131e-06
1.23417e-07
4.19167e-06
1.31015e-07
4.17807e-06
1.44575e-07
4.17273e-06
1.67166e-07
4.17787e-06
1.99947e-07
2.41551e-07
4.18833e-06
4.52848e-06
8.27173e-08
4.55079e-06
9.3881e-08
4.51895e-06
1.0379e-07
4.50015e-06
7.2056e-08
4.50477e-06
5.63907e-08
4.51614e-06
5.9237e-08
4.52012e-06
6.38586e-08
4.51874e-06
6.47633e-08
4.52014e-06
6.64803e-08
4.52644e-06
7.61037e-08
4.53239e-06
9.39319e-08
4.53191e-06
1.14624e-07
4.52209e-06
1.3324e-07
4.50458e-06
1.48529e-07
4.48534e-06
1.63808e-07
4.46958e-06
1.82927e-07
4.46244e-06
2.07085e-07
2.38868e-07
4.46513e-06
4.87289e-06
8.81177e-08
4.83834e-06
1.28435e-07
4.86366e-06
7.84629e-08
4.88933e-06
4.63937e-08
4.88843e-06
5.72887e-08
4.87132e-06
7.63502e-08
4.85511e-06
8.00621e-08
4.8486e-06
7.12769e-08
4.84933e-06
6.57465e-08
4.85352e-06
7.19163e-08
4.85803e-06
8.94193e-08
4.85855e-06
1.14105e-07
4.85205e-06
1.39739e-07
4.83878e-06
1.61801e-07
4.82255e-06
1.80041e-07
4.8072e-06
1.98277e-07
4.79656e-06
2.17724e-07
2.42052e-07
4.79337e-06
5.24021e-06
4.38748e-10
5.17083e-06
1.97811e-07
5.10907e-06
1.4023e-07
5.09731e-06
5.81509e-08
5.15007e-06
4.52565e-09
5.23062e-06
-4.19347e-09
5.28638e-06
2.4301e-08
5.29774e-06
5.99124e-08
5.28156e-06
8.19325e-08
5.25758e-06
9.58925e-08
5.23491e-06
1.12087e-07
5.21686e-06
1.32156e-07
5.20245e-06
1.54146e-07
5.1887e-06
1.75552e-07
5.17428e-06
1.94468e-07
5.16032e-06
2.12234e-07
5.14985e-06
2.28196e-07
2.45811e-07
5.14609e-06
5.53861e-06
-6.73065e-08
5.5931e-06
1.43322e-07
5.58419e-06
1.49146e-07
5.57042e-06
7.19189e-08
5.56515e-06
9.78867e-09
5.56472e-06
-3.75828e-09
5.56546e-06
2.35584e-08
5.56651e-06
5.88653e-08
5.56511e-06
8.33286e-08
5.5634e-06
9.76037e-08
5.56522e-06
1.10269e-07
5.57097e-06
1.26411e-07
5.57839e-06
1.46723e-07
5.58477e-06
1.69169e-07
5.58869e-06
1.9055e-07
5.59073e-06
2.10196e-07
5.59222e-06
2.26701e-07
2.42269e-07
5.59576e-06
5.96548e-06
-2.99814e-08
5.9905e-06
1.18308e-07
6.06812e-06
7.15182e-08
6.1226e-06
1.74466e-08
6.11047e-06
2.19168e-08
6.04958e-06
5.71301e-08
5.99085e-06
8.2285e-08
5.96329e-06
8.64288e-08
5.96534e-06
8.12802e-08
5.98009e-06
8.28512e-08
5.99216e-06
9.81971e-08
5.99546e-06
1.23117e-07
5.99216e-06
1.5002e-07
5.98706e-06
1.74266e-07
5.98359e-06
1.94022e-07
5.98343e-06
2.10355e-07
5.98594e-06
2.24189e-07
2.36506e-07
5.99171e-06
6.38894e-06
5.99933e-08
6.38431e-06
1.22944e-07
6.42346e-06
3.23673e-08
6.45594e-06
-1.50397e-08
6.45773e-06
2.01267e-08
6.42798e-06
8.68851e-08
6.38423e-06
1.26035e-07
6.34275e-06
1.27912e-07
6.31075e-06
1.13281e-07
6.29133e-06
1.02262e-07
6.2863e-06
1.0323e-07
6.29472e-06
1.14698e-07
6.31383e-06
1.3091e-07
6.34085e-06
1.47247e-07
6.37222e-06
1.62654e-07
6.4042e-06
1.78375e-07
6.43284e-06
1.95549e-07
2.15366e-07
6.45398e-06
5.68741e-06
8.28601e-08
5.76208e-06
4.82781e-08
5.8394e-06
-4.49564e-08
5.87451e-06
-5.01525e-08
5.8603e-06
3.43383e-08
5.82117e-06
1.26021e-07
5.78191e-06
1.65294e-07
5.75132e-06
1.58499e-07
5.72583e-06
1.38767e-07
5.69977e-06
1.28321e-07
5.67287e-06
1.30138e-07
5.64984e-06
1.37724e-07
5.63587e-06
1.44883e-07
5.6334e-06
1.49718e-07
5.64269e-06
1.53361e-07
5.66138e-06
1.59682e-07
5.68729e-06
1.69641e-07
1.86436e-07
5.71622e-06
6.89924e-06
1.21889e-08
6.97588e-06
-2.83663e-08
6.98087e-06
-4.9941e-08
6.96947e-06
-3.87552e-08
6.95653e-06
4.72758e-08
6.95248e-06
1.30079e-07
6.95856e-06
1.59209e-07
6.96684e-06
1.50217e-07
6.96983e-06
1.35776e-07
6.96638e-06
1.31774e-07
6.95975e-06
1.36766e-07
6.95338e-06
1.441e-07
6.94886e-06
1.494e-07
6.94608e-06
1.52499e-07
6.94487e-06
1.54565e-07
6.9458e-06
1.58752e-07
6.94988e-06
1.65567e-07
1.77416e-07
6.9589e-06
8.41477e-06
-2.39086e-09
8.39628e-06
-9.8733e-09
8.41399e-06
-6.76545e-08
8.42832e-06
-5.30773e-08
8.45665e-06
1.89378e-08
8.4914e-06
9.53336e-08
8.51243e-06
1.38183e-07
8.51744e-06
1.45202e-07
8.51842e-06
1.34794e-07
8.52825e-06
1.21945e-07
8.55111e-06
1.13907e-07
8.58191e-06
1.13299e-07
8.61161e-06
1.19698e-07
8.63273e-06
1.31387e-07
8.64231e-06
1.44977e-07
8.64221e-06
1.58857e-07
8.63646e-06
1.71315e-07
1.82446e-07
8.63143e-06
1.03085e-05
-7.01165e-08
1.03313e-05
-3.26243e-08
1.03599e-05
-9.63075e-08
1.03935e-05
-8.6643e-08
1.04319e-05
-1.94377e-08
1.04609e-05
6.62709e-08
1.04784e-05
1.20756e-07
1.04994e-05
1.24156e-07
1.05342e-05
9.99956e-08
1.05777e-05
7.8443e-08
1.06157e-05
7.58934e-08
1.0636e-05
9.30325e-08
1.06349e-05
1.20827e-07
1.06163e-05
1.49928e-07
1.05883e-05
1.72992e-07
1.05587e-05
1.88475e-07
1.05334e-05
1.96561e-07
1.99528e-07
1.05164e-05
1.2845e-05
-9.3194e-08
1.29373e-05
-1.24898e-07
1.28318e-05
9.19924e-09
1.27112e-05
3.39428e-08
1.26691e-05
2.27191e-08
1.27078e-05
2.75081e-08
1.27905e-05
3.80659e-08
1.28734e-05
4.13056e-08
1.29328e-05
4.05701e-08
1.29616e-05
4.96261e-08
1.29613e-05
7.6216e-08
1.29383e-05
1.15997e-07
1.29024e-05
1.56731e-07
1.28635e-05
1.88798e-07
1.28289e-05
2.0764e-07
1.28025e-05
2.14875e-07
1.27853e-05
2.13756e-07
2.08231e-07
1.27766e-05
1.55484e-05
-5.01251e-08
1.55296e-05
-1.06136e-07
1.56049e-05
-6.60315e-08
1.56805e-05
-4.17177e-08
1.57026e-05
6.85672e-10
1.56824e-05
4.76515e-08
1.56606e-05
5.98839e-08
1.56618e-05
4.00762e-08
1.56845e-05
1.78639e-08
1.57153e-05
1.88992e-08
1.57438e-05
4.76951e-08
1.57675e-05
9.22331e-08
1.57877e-05
1.36553e-07
1.58066e-05
1.69923e-07
1.58253e-05
1.88908e-07
1.58442e-05
1.95961e-07
1.58627e-05
1.95316e-07
1.90478e-07
1.58804e-05
1.92388e-05
1.53215e-07
1.90472e-05
8.54757e-08
1.90902e-05
-1.09062e-07
1.92128e-05
-1.64244e-07
1.9282e-05
-6.84949e-08
1.92751e-05
5.45196e-08
1.92283e-05
1.06708e-07
1.91858e-05
8.25271e-08
1.91683e-05
3.54055e-08
1.91736e-05
1.35158e-08
1.91927e-05
2.85998e-08
1.92179e-05
6.70687e-08
1.92442e-05
1.10292e-07
1.92701e-05
1.43949e-07
1.92966e-05
1.62424e-07
1.93245e-05
1.68109e-07
1.93534e-05
1.66403e-07
1.62903e-07
1.9381e-05
2.30364e-05
1.25581e-07
2.30229e-05
9.89202e-08
2.29396e-05
-2.57567e-08
2.28644e-05
-8.89644e-08
2.2857e-05
-6.11636e-08
2.29245e-05
-1.29623e-08
2.30209e-05
1.03128e-08
2.30958e-05
7.63769e-09
2.31307e-05
4.85547e-10
2.31374e-05
6.85285e-09
2.31329e-05
3.31005e-08
2.31274e-05
7.25146e-08
2.31262e-05
1.11488e-07
2.31313e-05
1.38924e-07
2.31433e-05
1.50431e-07
2.3162e-05
1.4936e-07
2.31884e-05
1.40041e-07
1.29822e-07
2.32214e-05
1.68894e-05
1.32128e-07
1.69014e-05
8.69771e-08
1.69504e-05
-7.47934e-08
1.69952e-05
-1.3379e-07
1.70306e-05
-9.65556e-08
1.70574e-05
-3.96921e-08
1.7073e-05
-5.32791e-09
1.70722e-05
8.38367e-09
1.70611e-05
1.1674e-08
1.70483e-05
1.95833e-08
1.70425e-05
3.89381e-08
1.70468e-05
6.82353e-08
1.70588e-05
9.94821e-08
1.70748e-05
1.22913e-07
1.70936e-05
1.31591e-07
1.7117e-05
1.2599e-07
1.71474e-05
1.09604e-07
8.95862e-08
1.71877e-05
1.48247e-05
-1.20916e-07
1.49325e-05
-2.0797e-08
1.48646e-05
-6.93681e-09
1.47778e-05
-4.6936e-08
1.47687e-05
-8.74835e-08
1.48048e-05
-7.57463e-08
1.4825e-05
-2.5574e-08
1.48162e-05
1.7194e-08
1.47957e-05
3.22088e-08
1.47944e-05
2.08174e-08
1.48313e-05
2.05387e-09
1.49062e-05
-6.61437e-09
1.50004e-05
5.19538e-09
1.50907e-05
3.26825e-08
1.51579e-05
6.43523e-08
1.51952e-05
8.86602e-08
1.52047e-05
1.00159e-07
9.76952e-08
1.51966e-05
1.31676e-05
-2.20822e-07
1.31303e-05
1.65203e-08
1.29871e-05
1.362e-07
1.28492e-05
9.09623e-08
1.27706e-05
-8.82261e-09
1.27512e-05
-5.63233e-08
1.27643e-05
-3.86986e-08
1.27817e-05
-2.6247e-10
1.27995e-05
1.44618e-08
1.28256e-05
-5.30596e-09
1.28646e-05
-3.69836e-08
1.29172e-05
-5.91958e-08
1.29807e-05
-5.8251e-08
1.30486e-05
-3.52808e-08
1.31128e-05
2.12322e-10
1.31664e-05
3.5088e-08
1.32062e-05
6.02841e-08
7.08624e-08
1.32331e-05
1.1286e-05
-1.99076e-07
1.12622e-05
4.02285e-08
1.13035e-05
9.49616e-08
1.13371e-05
5.73895e-08
1.13145e-05
1.37534e-08
1.12613e-05
-3.13093e-09
1.12242e-05
-1.59538e-09
1.12233e-05
6.68487e-10
1.12476e-05
-9.87269e-09
1.12727e-05
-3.03716e-08
1.12833e-05
-4.76726e-08
1.12775e-05
-5.33564e-08
1.12651e-05
-4.58324e-08
1.12579e-05
-2.81164e-08
1.12639e-05
-5.74752e-09
1.12852e-05
1.37348e-08
1.1317e-05
2.8525e-08
3.51945e-08
1.13527e-05
9.66265e-06
-1.59323e-07
9.75959e-06
-5.67103e-08
9.83041e-06
2.41474e-08
9.84999e-06
3.78038e-08
9.85805e-06
5.69335e-09
9.88199e-06
-2.70673e-08
9.91815e-06
-3.77571e-08
9.94913e-06
-3.03145e-08
9.96003e-06
-2.07671e-08
9.94885e-06
-1.91918e-08
9.92524e-06
-2.40669e-08
9.90162e-06
-2.97311e-08
9.88744e-06
-3.166e-08
9.88768e-06
-2.83533e-08
9.90209e-06
-2.01549e-08
9.92551e-06
-9.69071e-09
9.95234e-06
1.69605e-09
1.1625e-08
9.97591e-06
8.38192e-06
-4.65965e-08
8.46342e-06
-1.38216e-07
8.47596e-06
1.16101e-08
8.45288e-06
6.08819e-08
8.44994e-06
8.63403e-09
8.47663e-06
-5.37539e-08
8.50804e-06
-6.91679e-08
8.52375e-06
-4.60288e-08
8.52235e-06
-1.93629e-08
8.51578e-06
-1.26247e-08
8.51528e-06
-2.35673e-08
8.524e-06
-3.84537e-08
8.53913e-06
-4.67839e-08
8.55642e-06
-4.56421e-08
8.57368e-06
-3.7415e-08
8.59027e-06
-2.62802e-08
8.6075e-06
-1.55417e-08
-7.25514e-09
8.62638e-06
7.19414e-06
7.33328e-10
7.19362e-06
-1.37697e-07
7.23143e-06
-2.62e-08
7.28275e-06
9.55912e-09
7.3135e-06
-2.21172e-08
7.30464e-06
-4.48921e-08
7.27672e-06
-4.12485e-08
7.26231e-06
-3.16194e-08
7.27812e-06
-3.51689e-08
7.31848e-06
-5.29859e-08
7.3685e-06
-7.35815e-08
7.41512e-06
-8.5076e-08
7.45113e-06
-8.27971e-08
7.47465e-06
-6.91648e-08
7.48736e-06
-5.01252e-08
7.49253e-06
-3.14484e-08
7.49358e-06
-1.65934e-08
-7.61421e-09
7.49394e-06
6.44377e-06
-6.68698e-08
6.37164e-06
-6.55635e-08
6.40068e-06
-5.52463e-08
6.48357e-06
-7.33281e-08
6.53759e-06
-7.61381e-08
6.55466e-06
-6.19557e-08
6.558e-06
-4.45886e-08
6.56151e-06
-3.51382e-08
6.56434e-06
-3.79987e-08
6.56216e-06
-5.07968e-08
6.55413e-06
-6.5552e-08
6.54342e-06
-7.43742e-08
6.53439e-06
-7.37662e-08
6.53022e-06
-6.49935e-08
6.53162e-06
-5.15234e-08
6.53747e-06
-3.72997e-08
6.54561e-06
-2.47305e-08
-1.52411e-08
6.55324e-06
5.66583e-06
-4.75184e-08
5.67899e-06
-7.87211e-08
5.70582e-06
-8.20734e-08
5.70314e-06
-7.06533e-08
5.6771e-06
-5.00965e-08
5.65542e-06
-4.02765e-08
5.65251e-06
-4.16747e-08
5.66228e-06
-4.49053e-08
5.67094e-06
-4.66625e-08
5.66984e-06
-4.96965e-08
5.65994e-06
-5.56554e-08
5.64825e-06
-6.26838e-08
5.64189e-06
-6.74006e-08
5.64454e-06
-6.76471e-08
5.65548e-06
-6.24653e-08
5.67144e-06
-5.32537e-08
5.6881e-06
-4.13943e-08
-2.89075e-08
5.70177e-06
4.86509e-06
-4.2034e-08
4.88038e-06
-9.40104e-08
4.88105e-06
-8.27476e-08
4.8919e-06
-8.14961e-08
4.91852e-06
-7.67197e-08
4.94254e-06
-6.4293e-08
4.95064e-06
-4.97755e-08
4.94606e-06
-4.03236e-08
4.93854e-06
-3.91518e-08
4.9332e-06
-4.43518e-08
4.9287e-06
-5.11595e-08
4.92162e-06
-5.55959e-08
4.91048e-06
-5.626e-08
4.89716e-06
-5.43293e-08
4.88542e-06
-5.07275e-08
4.87839e-06
-4.62276e-08
4.87778e-06
-4.0776e-08
-3.42115e-08
4.88308e-06
4.18421e-06
4.0902e-06
4.00745e-06
3.92595e-06
3.84923e-06
3.78494e-06
3.73517e-06
3.69484e-06
3.65569e-06
3.61134e-06
3.56018e-06
3.50458e-06
3.44832e-06
3.39399e-06
3.34327e-06
3.29704e-06
3.25626e-06
3.22205e-06
2.01804e-07
-2.01804e-07
5.52917e-07
-3.51113e-07
9.42157e-07
-3.8924e-07
1.33505e-06
-3.92898e-07
1.72285e-06
-3.87796e-07
2.10291e-06
-3.80056e-07
2.47213e-06
-3.69218e-07
2.8251e-06
-3.52978e-07
3.15361e-06
-3.28502e-07
3.4475e-06
-2.93895e-07
3.69438e-06
-2.46877e-07
3.88087e-06
-1.86494e-07
3.9936e-06
-1.12729e-07
4.02145e-06
-2.78458e-08
3.94973e-06
7.1712e-08
3.77089e-06
1.7885e-07
3.48933e-06
2.81554e-07
3.1121e-06
3.77232e-07
2.65883e-06
4.53266e-07
2.16563e-06
4.932e-07
1.65753e-06
5.081e-07
1.16513e-06
4.92399e-07
6.6716e-07
4.97974e-07
3.9916e-07
2.68e-07
6.30233e-07
-2.31073e-07
8.47734e-07
-2.17501e-07
8.95947e-07
-4.82129e-08
6.07678e-07
2.88269e-07
-2.79455e-07
8.87133e-07
-1.47722e-06
1.19777e-06
-2.70677e-06
1.22955e-06
-3.91576e-06
1.20898e-06
-5.06401e-06
1.14825e-06
-6.13015e-06
1.06614e-06
-7.10297e-06
9.72819e-07
-7.97819e-06
8.75224e-07
-8.75618e-06
7.77987e-07
-9.43946e-06
6.83275e-07
-1.00317e-05
5.92291e-07
-1.05369e-05
5.05163e-07
-1.09588e-05
4.21898e-07
-1.1301e-05
3.42178e-07
-1.15668e-05
2.65821e-07
-1.17596e-05
1.92743e-07
-1.18828e-05
1.23203e-07
-1.19404e-05
5.76541e-08
-1.19367e-05
-3.73522e-09
-1.18817e-05
-5.49287e-08
-1.1779e-05
-1.0279e-07
-1.16332e-05
-1.45773e-07
-1.14497e-05
-1.8353e-07
-1.12332e-05
-2.16486e-07
-1.09882e-05
-2.44925e-07
-1.07189e-05
-2.69323e-07
-1.04288e-05
-2.9009e-07
-1.01211e-05
-3.07723e-07
-9.79849e-06
-3.22616e-07
-9.46332e-06
-3.35166e-07
-9.1177e-06
-3.45619e-07
-8.76352e-06
-3.54183e-07
-8.40255e-06
-3.60973e-07
-8.03644e-06
-3.66108e-07
-7.66672e-06
-3.69715e-07
-7.29475e-06
-3.71977e-07
-6.92163e-06
-3.73121e-07
-6.5482e-06
-3.73423e-07
-6.17502e-06
-3.73187e-07
-5.80231e-06
-3.7271e-07
-5.43006e-06
-3.72242e-07
-5.05809e-06
-3.7197e-07
-4.68605e-06
-3.72042e-07
-4.31343e-06
-3.72622e-07
-3.93952e-06
-3.73907e-07
-3.56347e-06
-3.76053e-07
-3.1844e-06
-3.79071e-07
-2.80163e-06
-3.82764e-07
-2.41497e-06
-3.86662e-07
-2.02493e-06
-3.90042e-07
-1.63278e-06
-3.92149e-07
-1.24047e-06
-3.92305e-07
-8.50506e-07
-3.89969e-07
-4.65721e-07
-3.84785e-07
-8.90712e-08
-3.7665e-07
2.7641e-07
-3.65481e-07
6.28146e-07
-3.51736e-07
9.63734e-07
-3.35588e-07
1.28126e-06
-3.17524e-07
1.57927e-06
-2.98012e-07
1.85686e-06
-2.77589e-07
2.11365e-06
-2.56791e-07
2.34974e-06
-2.36095e-07
2.56563e-06
-2.15888e-07
2.7621e-06
-1.96466e-07
2.94012e-06
-1.78025e-07
3.10081e-06
-1.60684e-07
3.2453e-06
-1.44495e-07
3.37477e-06
-1.29465e-07
3.49033e-06
-1.15567e-07
3.59309e-06
-1.02752e-07
3.68404e-06
-9.09534e-08
3.76414e-06
-8.00985e-08
3.83425e-06
-7.0112e-08
3.89517e-06
-6.09239e-08
3.94765e-06
-5.24739e-08
3.99236e-06
-4.4709e-08
4.02995e-06
-3.75928e-08
4.06104e-06
-3.1087e-08
4.08621e-06
-2.51678e-08
4.10601e-06
-1.98037e-08
4.12097e-06
-1.49585e-08
4.13158e-06
-1.06115e-08
4.13826e-06
-6.68373e-09
4.14142e-06
-3.15891e-09
4.14136e-06
5.91663e-11
4.13827e-06
3.0926e-09
4.13237e-06
5.90055e-09
4.12397e-06
8.39728e-09
4.11337e-06
1.06004e-08
4.10081e-06
1.25565e-08
4.08653e-06
1.42894e-08
4.07073e-06
1.5796e-08
4.05367e-06
1.70626e-08
4.03555e-06
1.81133e-08
4.0166e-06
1.8952e-08
3.99702e-06
1.9579e-08
3.97702e-06
2e-08
3.95679e-06
2.02369e-08
3.93648e-06
2.03086e-08
3.91624e-06
2.02326e-08
3.89621e-06
2.00376e-08
3.87646e-06
1.97472e-08
3.85708e-06
1.93788e-08
3.83813e-06
1.89544e-08
3.81963e-06
1.84937e-08
3.80162e-06
1.80106e-08
3.78411e-06
1.75165e-08
3.76708e-06
1.70235e-08
3.75054e-06
1.65429e-08
3.73446e-06
1.60835e-08
3.71881e-06
1.56484e-08
3.70357e-06
1.52373e-08
3.68872e-06
1.48516e-08
3.67422e-06
1.44985e-08
3.66003e-06
1.41866e-08
3.64612e-06
1.39178e-08
3.63243e-06
1.36806e-08
3.61898e-06
1.34527e-08
3.60577e-06
1.32119e-08
3.59282e-06
1.29464e-08
3.58016e-06
1.26605e-08
3.56779e-06
1.23705e-08
3.5557e-06
1.2097e-08
3.54384e-06
1.18566e-08
3.53218e-06
1.16589e-08
3.52067e-06
1.15057e-08
3.50928e-06
1.13956e-08
3.49795e-06
1.13251e-08
3.48666e-06
1.12927e-08
3.47536e-06
1.12979e-08
3.46402e-06
1.13431e-08
3.45259e-06
1.14335e-08
3.44101e-06
1.15722e-08
3.42924e-06
1.1777e-08
3.4172e-06
1.2042e-08
3.40477e-06
1.24219e-08
3.39191e-06
1.28668e-08
3.37836e-06
1.35467e-08
3.36411e-06
1.4247e-08
3.34862e-06
1.54975e-08
3.33208e-06
1.65322e-08
3.3131e-06
1.89877e-08
3.29274e-06
2.03568e-08
3.26712e-06
2.56213e-08
3.24016e-06
2.69573e-08
3.20074e-06
3.94157e-08
3.16156e-06
3.9184e-08
3.08952e-06
7.20362e-08
3.02247e-06
6.70509e-08
2.84941e-06
1.73063e-07
1.76419e-07
2.67299e-06
2.94395e-07
-4.96198e-07
6.34457e-07
-6.91175e-07
9.64158e-07
-7.18941e-07
1.29376e-06
-7.22498e-07
1.62916e-06
-7.23198e-07
1.96935e-06
-7.20247e-07
2.30973e-06
-7.09593e-07
2.64328e-06
-6.86528e-07
2.96053e-06
-6.45757e-07
3.24993e-06
-5.83298e-07
3.49802e-06
-4.94968e-07
3.69059e-06
-3.79059e-07
3.81327e-06
-2.35413e-07
3.85155e-06
-6.61212e-08
3.79877e-06
1.24493e-07
3.65362e-06
3.23994e-07
3.41646e-06
5.18715e-07
3.09134e-06
7.02355e-07
2.68265e-06
8.61957e-07
2.19575e-06
9.80094e-07
1.70787e-06
9.95987e-07
1.28168e-06
9.18586e-07
1.03459e-06
7.45066e-07
8.8173e-07
4.20857e-07
2.76517e-07
3.74139e-07
-9.32069e-07
9.91085e-07
-2.48531e-06
1.50503e-06
-3.90674e-06
1.7097e-06
-4.95766e-06
1.93805e-06
-5.82615e-06
2.06626e-06
-6.65362e-06
2.05702e-06
-7.42255e-06
1.97791e-06
-8.1261e-06
1.8518e-06
-8.7629e-06
1.70294e-06
-9.33545e-06
1.54536e-06
-9.84731e-06
1.38708e-06
-1.03026e-05
1.23327e-06
-1.07044e-05
1.08509e-06
-1.10552e-05
9.43043e-07
-1.1356e-05
8.06026e-07
-1.1608e-05
6.7386e-07
-1.18111e-05
5.45305e-07
-1.19652e-05
4.19862e-07
-1.20702e-05
2.97767e-07
-1.21268e-05
1.79866e-07
-1.21368e-05
6.75881e-08
-1.21013e-05
-3.92642e-08
-1.20182e-05
-1.37966e-07
-1.18922e-05
-2.28843e-07
-1.1727e-05
-3.1095e-07
-1.15267e-05
-3.83814e-07
-1.12958e-05
-4.47404e-07
-1.10385e-05
-5.02206e-07
-1.07588e-05
-5.48983e-07
-1.04602e-05
-5.88689e-07
-1.01457e-05
-6.2228e-07
-9.81764e-06
-6.50659e-07
-9.47826e-06
-6.74548e-07
-9.1294e-06
-6.94484e-07
-8.77279e-06
-7.10792e-07
-8.41009e-06
-7.2367e-07
-8.04292e-06
-7.33276e-07
-7.6728e-06
-7.39843e-07
-7.30105e-06
-7.43727e-07
-6.92876e-06
-7.45405e-07
-6.55673e-06
-7.45457e-07
-6.18538e-06
-7.44532e-07
-5.81482e-06
-7.43268e-07
-5.44485e-06
-7.42216e-07
-5.07504e-06
-7.41782e-07
-4.70483e-06
-7.42248e-07
-4.33355e-06
-7.43902e-07
-3.9603e-06
-7.47158e-07
-3.58394e-06
-7.52411e-07
-3.20325e-06
-7.59762e-07
-2.81724e-06
-7.68777e-07
-2.42552e-06
-7.78383e-07
-2.02855e-06
-7.87007e-07
-1.62783e-06
-7.92873e-07
-1.22552e-06
-7.94616e-07
-8.24536e-07
-7.90952e-07
-4.2774e-07
-7.81582e-07
-3.80758e-08
-7.66314e-07
3.40873e-07
-7.4443e-07
7.06287e-07
-7.1715e-07
1.05555e-06
-6.84853e-07
1.38662e-06
-6.48593e-07
1.69802e-06
-6.09411e-07
1.98886e-06
-5.68428e-07
2.25884e-06
-5.26777e-07
2.50821e-06
-4.85456e-07
2.7376e-06
-4.45283e-07
2.94799e-06
-4.06857e-07
3.14053e-06
-3.70563e-07
3.31645e-06
-3.36603e-07
3.477e-06
-3.05047e-07
3.6234e-06
-2.75869e-07
3.75682e-06
-2.48985e-07
3.87834e-06
-2.24274e-07
3.98898e-06
-2.0159e-07
4.08966e-06
-1.80777e-07
4.18123e-06
-1.6168e-07
4.26445e-06
-1.44151e-07
4.34004e-06
-1.28062e-07
4.40864e-06
-1.13303e-07
4.47083e-06
-9.97879e-08
4.52719e-06
-8.74438e-08
4.57823e-06
-7.62085e-08
4.62445e-06
-6.60235e-08
4.66631e-06
-5.68234e-08
4.70424e-06
-4.85402e-08
4.73866e-06
-4.10984e-08
4.76991e-06
-3.44136e-08
4.7984e-06
-2.8425e-08
4.82454e-06
-2.30457e-08
4.8486e-06
-1.81603e-08
4.87072e-06
-1.37266e-08
4.89103e-06
-9.70811e-09
4.90962e-06
-6.03389e-09
4.92656e-06
-2.65062e-09
4.94189e-06
4.64087e-10
4.95567e-06
3.28087e-09
4.96791e-06
5.88046e-09
4.97862e-06
8.23247e-09
4.98787e-06
1.0335e-08
4.99567e-06
1.21993e-08
5.00206e-06
1.38425e-08
5.00711e-06
1.52658e-08
5.01086e-06
1.64792e-08
5.01339e-06
1.7507e-08
5.01477e-06
1.83657e-08
5.01508e-06
1.90677e-08
5.0144e-06
1.96339e-08
5.01282e-06
2.00823e-08
5.0104e-06
2.04275e-08
5.00723e-06
2.06836e-08
5.00339e-06
2.08658e-08
4.99894e-06
2.09884e-08
4.99396e-06
2.10655e-08
4.9885e-06
2.11071e-08
4.98262e-06
2.11201e-08
4.97636e-06
2.1111e-08
4.96977e-06
2.10899e-08
4.96289e-06
2.10675e-08
4.95576e-06
2.10488e-08
4.94841e-06
2.10272e-08
4.94088e-06
2.09867e-08
4.93318e-06
2.09106e-08
4.92533e-06
2.07923e-08
4.91735e-06
2.06391e-08
4.90926e-06
2.04687e-08
4.90105e-06
2.03006e-08
4.89276e-06
2.01492e-08
4.8844e-06
2.00227e-08
4.87598e-06
1.99257e-08
4.86751e-06
1.98633e-08
4.85899e-06
1.98444e-08
4.8504e-06
1.98788e-08
4.84172e-06
1.9981e-08
4.83291e-06
2.01565e-08
4.82392e-06
2.04241e-08
4.81471e-06
2.07759e-08
4.80523e-06
2.12536e-08
4.79546e-06
2.1821e-08
4.78528e-06
2.25946e-08
4.7747e-06
2.34512e-08
4.76353e-06
2.4716e-08
4.75179e-06
2.59879e-08
4.73912e-06
2.817e-08
4.72562e-06
3.00242e-08
4.71053e-06
3.40831e-08
4.69421e-06
3.66805e-08
4.67493e-06
4.48972e-08
4.65364e-06
4.82507e-08
4.62656e-06
6.64894e-08
4.59522e-06
7.05219e-08
4.55155e-06
1.15711e-07
4.49486e-06
1.23739e-07
4.41729e-06
2.50634e-07
2.89979e-07
4.30373e-06
2.94392e-07
-7.90591e-07
5.58361e-07
-9.55144e-07
8.12659e-07
-9.73239e-07
1.07776e-06
-9.87604e-07
1.35673e-06
-1.00216e-06
1.64737e-06
-1.01089e-06
1.94515e-06
-1.00737e-06
2.24248e-06
-9.83861e-07
2.52815e-06
-9.31419e-07
2.78794e-06
-8.43091e-07
3.00665e-06
-7.13675e-07
3.1682e-06
-5.40615e-07
3.25589e-06
-3.23096e-07
3.25451e-06
-6.4747e-08
3.14608e-06
2.32923e-07
2.94062e-06
5.29453e-07
2.65412e-06
8.05215e-07
2.29974e-06
1.05674e-06
1.88917e-06
1.27253e-06
1.46129e-06
1.40797e-06
1.06892e-06
1.38836e-06
6.71623e-07
1.31588e-06
1.04143e-07
1.31255e-06
-1.06021e-06
1.58521e-06
-2.73237e-06
2.04631e-06
-4.07855e-06
2.33727e-06
-5.09816e-06
2.52463e-06
-6.00697e-06
2.61851e-06
-6.72849e-06
2.65958e-06
-7.28031e-06
2.61808e-06
-7.75105e-06
2.52776e-06
-8.17523e-06
2.40209e-06
-8.57759e-06
2.25416e-06
-8.96856e-06
2.09391e-06
-9.35149e-06
1.9283e-06
-9.7254e-06
1.761e-06
-1.00864e-05
1.59424e-06
-1.04289e-05
1.42758e-06
-1.07463e-05
1.26046e-06
-1.10317e-05
1.09147e-06
-1.1278e-05
9.20131e-07
-1.14791e-05
7.46439e-07
-1.16308e-05
5.71575e-07
-1.17305e-05
3.9747e-07
-1.17772e-05
2.26544e-07
-1.1771e-05
6.13601e-08
-1.17148e-05
-9.54768e-08
-1.16111e-05
-2.41646e-07
-1.14647e-05
-3.75219e-07
-1.12807e-05
-4.94931e-07
-1.10643e-05
-6.00269e-07
-1.08202e-05
-6.91444e-07
-1.05531e-05
-7.69321e-07
-1.02669e-05
-8.35204e-07
-9.96493e-06
-8.90665e-07
-9.64991e-06
-9.37293e-07
-9.32404e-06
-9.76535e-07
-8.98907e-06
-1.00952e-06
-8.64655e-06
-1.037e-06
-8.29802e-06
-1.05933e-06
-7.94507e-06
-1.07662e-06
-7.58943e-06
-1.08892e-06
-7.23283e-06
-1.09644e-06
-6.87684e-06
-1.09972e-06
-6.52269e-06
-1.09955e-06
-6.17127e-06
-1.09688e-06
-5.82303e-06
-1.09277e-06
-5.47799e-06
-1.08831e-06
-5.13579e-06
-1.08442e-06
-4.79577e-06
-1.08181e-06
-4.4571e-06
-1.08092e-06
-4.11871e-06
-1.08229e-06
-3.77896e-06
-1.0869e-06
-3.43553e-06
-1.09584e-06
-3.08572e-06
-1.10958e-06
-2.72713e-06
-1.12737e-06
-2.3583e-06
-1.14721e-06
-1.97918e-06
-1.16613e-06
-1.59109e-06
-1.18096e-06
-1.19675e-06
-1.18895e-06
-7.99791e-07
-1.18791e-06
-4.04182e-07
-1.17719e-06
-1.47374e-08
-1.15576e-06
3.66569e-07
-1.12574e-06
7.34586e-07
-1.08517e-06
1.08646e-06
-1.03673e-06
1.41968e-06
-9.8181e-07
1.73245e-06
-9.2218e-07
2.02369e-06
-8.59663e-07
2.29294e-06
-7.96029e-07
2.54037e-06
-7.32883e-07
2.76666e-06
-6.71574e-07
2.9729e-06
-6.13099e-07
3.16045e-06
-5.58114e-07
3.33083e-06
-5.0698e-07
3.4856e-06
-4.5982e-07
3.6263e-06
-4.16571e-07
3.75435e-06
-3.77035e-07
3.87102e-06
-3.40939e-07
3.97741e-06
-3.07977e-07
4.07447e-06
-2.77843e-07
4.16305e-06
-2.50257e-07
4.24387e-06
-2.24973e-07
4.31759e-06
-2.01787e-07
4.38482e-06
-1.80533e-07
4.44612e-06
-1.61083e-07
4.50201e-06
-1.43337e-07
4.55301e-06
-1.27205e-07
4.59959e-06
-1.12605e-07
4.64222e-06
-9.94481e-08
4.68131e-06
-8.76317e-08
4.71726e-06
-7.70524e-08
4.75043e-06
-6.75878e-08
4.78112e-06
-5.91136e-08
4.8096e-06
-5.15205e-08
4.83612e-06
-4.46851e-08
4.86089e-06
-3.84979e-08
4.88405e-06
-3.28689e-08
4.90573e-06
-2.77098e-08
4.92602e-06
-2.29428e-08
4.94501e-06
-1.85257e-08
4.96273e-06
-1.44364e-08
4.97922e-06
-1.06124e-08
4.99449e-06
-7.03949e-09
5.00855e-06
-3.71948e-09
5.0214e-06
-6.50348e-10
5.03302e-06
2.21979e-09
5.04345e-06
4.84224e-09
5.05268e-06
7.24828e-09
5.06073e-06
9.45234e-09
5.06765e-06
1.14475e-08
5.07347e-06
1.32472e-08
5.07823e-06
1.487e-08
5.08199e-06
1.63275e-08
5.08479e-06
1.76309e-08
5.08668e-06
1.87931e-08
5.08771e-06
1.9827e-08
5.08796e-06
2.07458e-08
5.08746e-06
2.15637e-08
5.08627e-06
2.22932e-08
5.08445e-06
2.2944e-08
5.08204e-06
2.35246e-08
5.07908e-06
2.40454e-08
5.07563e-06
2.45173e-08
5.07173e-06
2.49483e-08
5.06742e-06
2.5338e-08
5.06273e-06
2.56783e-08
5.05768e-06
2.59597e-08
5.05229e-06
2.61794e-08
5.04658e-06
2.63462e-08
5.04058e-06
2.64774e-08
5.03428e-06
2.65919e-08
5.02773e-06
2.67041e-08
5.02093e-06
2.68214e-08
5.01391e-06
2.69498e-08
5.00668e-06
2.70949e-08
4.99925e-06
2.72708e-08
4.99164e-06
2.74899e-08
4.98384e-06
2.77772e-08
4.97586e-06
2.81396e-08
4.96767e-06
2.86108e-08
4.95927e-06
2.91774e-08
4.95062e-06
2.99048e-08
4.9417e-06
3.07384e-08
4.93246e-06
3.18391e-08
4.92286e-06
3.30449e-08
4.91282e-06
3.47631e-08
4.90228e-06
3.65273e-08
4.89108e-06
3.93686e-08
4.87911e-06
4.19906e-08
4.86617e-06
4.70256e-08
4.85187e-06
5.09827e-08
4.83617e-06
6.05946e-08
4.81766e-06
6.67637e-08
4.79746e-06
8.66828e-08
4.77045e-06
9.75364e-08
4.74333e-06
1.42833e-07
4.69901e-06
1.68061e-07
4.66885e-06
2.80791e-07
3.55311e-07
4.60352e-06
2.11967e-07
-1.00256e-06
3.78804e-07
-1.12198e-06
5.53767e-07
-1.1482e-06
7.42731e-07
-1.17657e-06
9.45971e-07
-1.2054e-06
1.16347e-06
-1.22839e-06
1.39235e-06
-1.23626e-06
1.62306e-06
-1.21457e-06
1.84141e-06
-1.14977e-06
2.03312e-06
-1.0348e-06
2.18546e-06
-8.66015e-07
2.28441e-06
-6.39567e-07
2.31547e-06
-3.5416e-07
2.27346e-06
-2.27353e-08
2.1309e-06
3.75481e-07
1.90502e-06
7.55337e-07
1.60751e-06
1.10273e-06
1.2475e-06
1.41675e-06
8.34491e-07
1.68553e-06
3.58033e-07
1.88443e-06
-2.90538e-07
2.03693e-06
-1.22647e-06
2.25181e-06
-2.47077e-06
2.55685e-06
-3.74999e-06
2.86442e-06
-4.76556e-06
3.06187e-06
-5.5645e-06
3.13621e-06
-6.18956e-06
3.14969e-06
-6.69666e-06
3.12561e-06
-7.10489e-06
3.06781e-06
-7.45834e-06
2.97153e-06
-7.78282e-06
2.85223e-06
-8.09769e-06
2.71696e-06
-8.41515e-06
2.57163e-06
-8.74018e-06
2.41894e-06
-9.07224e-06
2.26035e-06
-9.40773e-06
2.0965e-06
-9.74041e-06
1.92692e-06
-1.00624e-05
1.74962e-06
-1.03646e-05
1.56264e-06
-1.06375e-05
1.3643e-06
-1.08718e-05
1.15443e-06
-1.10597e-05
9.34329e-07
-1.11953e-05
7.0721e-07
-1.12753e-05
4.77512e-07
-1.12989e-05
2.50081e-07
-1.12663e-05
2.87466e-08
-1.11802e-05
-1.81491e-07
-1.10449e-05
-3.76987e-07
-1.08664e-05
-5.53705e-07
-1.06515e-05
-7.09835e-07
-1.04068e-05
-8.45012e-07
-1.01382e-05
-9.59973e-07
-9.85119e-06
-1.05637e-06
-9.54989e-06
-1.1365e-06
-9.23758e-06
-1.20297e-06
-8.91656e-06
-1.25831e-06
-8.58837e-06
-1.30473e-06
-8.25402e-06
-1.34387e-06
-7.91435e-06
-1.37666e-06
-7.5703e-06
-1.40337e-06
-7.22315e-06
-1.42377e-06
-6.8746e-06
-1.43748e-06
-6.52657e-06
-1.44447e-06
-6.18091e-06
-1.44538e-06
-5.83906e-06
-1.44139e-06
-5.50202e-06
-1.43392e-06
-5.17033e-06
-1.42446e-06
-4.84414e-06
-1.4145e-06
-4.52333e-06
-1.40523e-06
-4.20789e-06
-1.39725e-06
-3.89836e-06
-1.39045e-06
-3.59567e-06
-1.38498e-06
-3.2998e-06
-1.38277e-06
-3.0084e-06
-1.38724e-06
-2.71649e-06
-1.40149e-06
-2.4176e-06
-1.42626e-06
-2.10597e-06
-1.45883e-06
-1.77812e-06
-1.49398e-06
-1.43304e-06
-1.52604e-06
-1.07212e-06
-1.54988e-06
-6.98847e-07
-1.56119e-06
-3.18459e-07
-1.55758e-06
6.38557e-08
-1.53807e-06
4.40614e-07
-1.50249e-06
8.07282e-07
-1.45184e-06
1.15919e-06
-1.38864e-06
1.49305e-06
-1.31567e-06
1.80672e-06
-1.23585e-06
2.09897e-06
-1.15191e-06
2.36928e-06
-1.06634e-06
2.61769e-06
-9.81293e-07
2.84464e-06
-8.98524e-07
3.05089e-06
-8.19351e-07
3.23747e-06
-7.44686e-07
3.40562e-06
-6.75128e-07
3.55683e-06
-6.11037e-07
3.69281e-06
-5.52553e-07
3.81536e-06
-4.99581e-07
3.92621e-06
-4.51789e-07
4.0269e-06
-4.0867e-07
4.1187e-06
-3.6964e-07
4.20258e-06
-3.34137e-07
4.2793e-06
-3.01695e-07
4.34947e-06
-2.71957e-07
4.41361e-06
-2.44675e-07
4.47221e-06
-2.19678e-07
4.52572e-06
-1.96846e-07
4.5746e-06
-1.76083e-07
4.61928e-06
-1.57292e-07
4.66021e-06
-1.4037e-07
4.69777e-06
-1.25192e-07
4.73233e-06
-1.11619e-07
4.76424e-06
-9.94973e-08
4.7938e-06
-8.86676e-08
4.82125e-06
-7.89787e-08
4.84684e-06
-7.02724e-08
4.87074e-06
-6.23977e-08
4.8931e-06
-5.52248e-08
4.91403e-06
-4.86387e-08
4.93362e-06