/*--------------------------------*- C++ -*----------------------------------*\
| =========                 |                                                 |
| \\      /  F ield         | OpenFOAM: The Open Source CFD Toolbox           |
|  \\    /   O peration     | Version:  2112                                  |
|   \\  /    A nd           | Website:  www.openfoam.com                      |
|    \\/     M anipulation  |                                                 |
\*---------------------------------------------------------------------------*/
FoamFile
{
    version     2.0;
    format      ascii;
    arch        "LSB;label=32;scalar=64";
    class       volScalarField;
    location    "0.036";
    object      pMean;
}
// * * * * * * * * * * * * * * * * * * * * * * * * * * * * * * * * * * * * * //

dimensions      [0 2 -2 0 0 0 0];

internalField   nonuniform List<scalar> 
12225
(
22.8555
21.8638
21.2991
20.9945
20.7504
20.5059
20.2613
20.0269
19.8081
19.6045
19.4144
19.2333
19.0595
18.8816
18.6952
18.4365
18.0799
17.1775
22.6265
21.8346
21.2986
20.9855
20.7397
20.4973
20.2537
20.0194
19.7996
19.5957
19.4035
19.2226
19.0429
18.8689
18.664
18.4432
18.0614
17.6091
22.5433
21.8295
21.3084
20.9823
20.7314
20.4904
20.2483
20.0135
19.7931
19.5872
19.3938
19.2081
19.0274
18.8413
18.642
18.3992
18.0842
17.6576
22.3677
21.7817
21.3032
20.9719
20.7162
20.4772
20.2374
20.0033
19.7817
19.5749
19.3786
19.191
19.0041
18.8156
18.6076
18.3708
18.0744
17.7081
22.2724
21.7474
21.3009
20.9694
20.7072
20.467
20.2287
19.9949
19.7725
19.5635
19.3652
19.1738
18.9839
18.7898
18.5808
18.3471
18.0734
17.7628
22.2135
21.7002
21.28
20.9576
20.6927
20.4511
20.2142
19.9817
19.759
19.5485
19.348
19.1537
18.9605
18.7632
18.5545
18.3267
18.0746
17.7996
22.1256
21.6521
21.2631
20.9513
20.6838
20.4386
20.2012
19.9693
19.7463
19.5342
19.3311
19.1337
18.9376
18.7382
18.5304
18.3094
18.0732
17.8235
22.0794
21.601
21.2278
20.9318
20.6675
20.4205
20.1829
19.9522
19.7297
19.5165
19.3114
19.1115
18.9132
18.7128
18.5066
18.2917
18.0674
17.8354
22.0468
21.5619
21.2034
20.9201
20.6588
20.4084
20.1682
19.937
19.7141
19.4994
19.2921
19.0898
18.8895
18.6883
18.4836
18.2735
18.0579
17.838
21.9562
21.4961
21.1599
20.8916
20.6353
20.3859
20.1459
19.9154
19.6931
19.4781
19.2694
19.0653
18.8636
18.6622
18.459
18.2528
18.0437
17.8327
21.9054
21.4638
21.139
20.8759
20.6222
20.3724
20.1307
19.8987
19.6754
19.4592
19.2487
19.0428
18.8397
18.6378
18.4356
18.2323
18.0279
17.8228
21.7805
21.3945
21.0976
20.8435
20.5943
20.3473
20.107
19.8757
19.6526
19.4364
19.2256
19.0189
18.8151
18.6131
18.4118
18.2106
18.0093
17.8084
21.7759
21.3742
21.073
20.8245
20.58
20.334
20.0924
19.8593
19.6349
19.4175
19.2055
18.9975
18.7928
18.5904
18.3895
18.1895
17.9903
17.792
21.7398
21.3125
21.0176
20.783
20.5473
20.3048
20.0643
19.8317
19.6079
19.3908
19.1785
18.97
18.7647
18.5621
18.3617
18.1629
17.9655
17.7695
21.7053
21.2784
20.9841
20.7555
20.525
20.2833
20.041
19.8066
19.5813
19.3631
19.1499
18.9405
18.7345
18.5315
18.3312
18.1331
17.9369
17.7425
21.596
21.2006
20.9259
20.7048
20.4787
20.2424
20.0052
19.7735
19.5488
19.3303
19.1164
18.9064
18.7
18.4968
18.2966
18.0991
17.9037
17.7103
21.5779
21.1724
20.8965
20.6764
20.4507
20.214
19.9752
19.7416
19.5155
19.2962
19.0818
18.8714
18.6645
18.4611
18.2608
18.0636
17.869
17.6771
21.4908
21.1073
20.8387
20.6224
20.4023
20.171
19.9358
19.704
19.4784
19.2588
19.0438
18.8329
18.6257
18.4222
18.2222
18.0255
17.8319
17.641
21.4906
21.0762
20.7994
20.587
20.3726
20.1434
19.9064
19.6716
19.444
19.2235
19.0086
18.7982
18.5918
18.3892
18.1905
17.9957
17.8045
17.6168
21.5943
21.1536
20.8478
20.6133
20.3825
20.1431
19.9019
19.6659
19.4374
19.2157
18.9997
18.7885
18.5819
18.38
18.1827
17.9899
17.8016
17.6176
21.3827
21.0458
20.8063
20.5916
20.3608
20.1198
19.8796
19.6457
19.4186
19.1977
18.982
18.7714
18.5659
18.3656
18.1703
17.98
17.7942
17.6129
21.5197
21.1462
20.8738
20.6389
20.3943
20.1433
19.8965
19.6584
19.4286
19.2056
18.9884
18.7769
18.5711
18.371
18.1764
17.9873
17.8033
17.6246
21.599
21.1627
20.8573
20.6167
20.3785
20.1325
19.8871
19.6487
19.4186
19.1958
18.9792
18.7687
18.5641
18.3656
18.1729
17.9859
17.8042
17.6278
21.7133
21.2645
20.9345
20.6688
20.4128
20.1584
19.9096
19.6686
19.4354
19.2096
18.991
18.7793
18.5743
18.3756
18.183
17.9963
17.8155
17.6403
21.6755
21.2663
20.9391
20.6592
20.3977
20.1472
19.9027
19.6628
19.429
19.2029
18.9849
18.7744
18.5707
18.3732
18.1818
17.9965
17.8172
17.6438
21.858
21.3763
20.9938
20.6905
20.4231
20.1707
19.9231
19.6795
19.4425
19.2142
18.9949
18.7836
18.5793
18.3815
18.1901
18.005
17.826
17.653
21.9342
21.3912
20.9794
20.6757
20.4167
20.1686
19.9209
19.6759
19.4384
19.2106
18.992
18.7813
18.5776
18.3804
18.1898
18.0056
17.8277
17.656
22.112
21.4821
21.0101
20.6916
20.4346
20.1862
19.9348
19.6865
19.4472
19.2186
18.9995
18.7883
18.5843
18.387
18.1965
18.0125
17.8347
17.6629
22.1161
21.4742
20.9967
20.6854
20.4343
20.1865
19.9338
19.6848
19.4457
19.2175
18.9985
18.7874
18.5834
18.3864
18.1961
18.0128
17.8358
17.6653
22.3616
21.5186
20.9972
20.6925
20.4444
20.1946
19.9399
19.6901
19.4507
19.2221
19.0028
18.7915
18.5873
18.3902
18.2
18.0169
17.8403
17.6708
12.2115
12.1246
12.0319
11.9866
12.0163
12.0884
12.1309
12.0612
11.835
11.461
10.9745
10.4366
9.91499
9.4672
9.13467
8.9408
8.8911
8.97464
9.16467
9.42422
9.70832
9.9705
10.1626
10.2667
10.2588
10.1431
9.95376
9.72788
9.49944
9.29865
9.12713
8.86892
8.4228
7.79477
6.98686
5.98155
4.80501
3.55294
2.31865
1.12979
-0.016283
-1.1099
-2.14009
-3.07976
-3.88378
-4.52915
-5.03754
-5.44148
-5.72649
-5.87622
-5.88217
-5.7439
-5.46805
-5.06611
-4.55287
-3.94413
-3.2554
-2.50053
-1.69132
-0.83692
0.05601
0.983311
1.94277
2.93386
3.95702
5.01353
6.10511
7.23352
8.40035
9.60609
10.8502
12.1311
13.4459
14.7911
16.1623
17.5541
18.9606
20.3756
21.7917
23.2016
24.5969
25.9688
27.308
28.6046
29.8483
31.0289
32.1363
33.1609
34.094
34.9273
35.6545
36.271
36.7758
37.1711
37.4618
37.6553
37.7614
37.7909
37.755
37.6649
37.5307
37.3615
37.1652
36.9486
36.7172
36.4759
36.2286
35.9786
35.7285
35.4806
35.2365
34.9974
34.7642
34.5375
34.3174
34.1041
33.8974
33.6972
33.5033
33.3153
33.1328
32.9556
32.7832
32.6154
32.4517
32.292
32.1359
31.9832
31.8334
31.6864
31.542
31.4
31.2599
31.1218
30.9853
30.8502
30.7163
30.5834
30.4514
30.3201
30.1894
30.0591
29.9291
29.7993
29.6697
29.5402
29.4108
29.2815
29.1521
29.0228
28.8934
28.7639
28.6343
28.5044
28.3742
28.2438
28.1129
27.9817
27.8501
27.7181
27.5857
27.453
27.3201
27.1872
27.0542
26.9216
26.7896
26.6588
26.5294
26.4027
26.2792
26.1612
26.0494
25.9486
25.8602
25.7952
25.7564
25.7716
25.8495
26.0536
11.7335
11.6395
11.5485
11.4841
11.5063
11.5479
11.5263
11.3732
11.0687
10.6322
10.1092
9.56049
9.04512
8.61226
8.29749
8.12159
8.08911
8.19077
8.40676
8.70304
9.0349
9.35472
9.62108
9.79376
9.82372
9.69781
9.52126
9.30912
8.911
8.36961
7.9142
7.45713
6.86992
6.14673
5.30298
4.33321
3.22113
2.02683
0.841953
-0.293653
-1.39837
-2.4586
-3.45106
-4.38059
-5.18101
-5.79389
-6.24746
-6.57554
-6.77415
-6.83296
-6.74684
-6.51901
-6.15912
-5.68086
-5.09959
-4.43111
-3.69059
-2.89171
-2.04573
-1.16104
-0.243227
0.704441
1.68054
2.68531
3.72029
4.78752
5.88916
7.0267
8.2012
9.41332
10.6628
11.9483
13.2674
14.6165
15.9912
17.3864
18.7961
20.2138
21.6325
23.0449
24.4427
25.8173
27.1594
28.4592
29.7066
30.8914
32.0037
33.0339
33.9733
34.8137
35.5484
36.1727
36.6851
37.0877
37.3852
37.5853
37.6975
37.7324
37.7018
37.6167
37.4873
37.3225
37.1305
36.9177
36.6899
36.4517
36.2071
35.9594
35.7113
35.4652
35.2226
34.9848
34.7527
34.527
34.3078
34.0952
33.8893
33.6898
33.4965
33.309
33.1271
32.9503
32.7783
32.6109
32.4476
32.2882
32.1323
31.9798
31.8302
31.6835
31.5393
31.3975
31.2576
31.1197
30.9833
30.8484
30.7146
30.5819
30.45
30.3189
30.1883
30.0581
29.9282
29.7986
29.6692
29.5398
29.4105
29.2813
29.152
29.0228
28.8934
28.764
28.6343
28.5045
28.3743
28.2438
28.1129
27.9817
27.85
27.7179
27.5855
27.4528
27.3198
27.1867
27.0537
26.9209
26.7887
26.6576
26.528
26.4008
26.2768
26.1578
26.0452
25.9422
25.8524
25.7811
25.7383
25.7296
25.7754
25.8303
11.7818
11.7389
11.6214
11.442
11.2273
10.9689
10.6373
10.2062
9.67451
9.07315
8.45225
7.86359
7.35158
6.9506
6.68602
6.57036
6.60466
6.77671
7.0632
7.43182
7.84641
8.26793
8.64286
8.93686
9.10962
9.10437
8.9329
8.61654
8.14187
7.52874
6.8513
6.10684
5.25864
4.30149
3.24831
2.10457
0.899004
-0.307092
-1.48319
-2.61635
-3.70773
-4.74886
-5.70341
-6.54912
-7.26423
-7.81702
-8.20003
-8.41835
-8.47605
-8.37944
-8.13725
-7.76166
-7.26665
-6.66772
-5.98079
-5.22124
-4.4033
-3.53911
-2.63854
-1.70882
-0.754409
0.222661
1.22248
2.24651
3.29712
4.37709
5.48915
6.63589
7.81926
9.03999
10.2979
11.5916
12.9185
14.2751
15.6568
17.0585
18.474
19.8971
21.3208
22.7378
24.1402
25.5196
26.867
28.1727
29.4268
30.6191
31.7401
32.7806
33.7318
34.5853
35.3341
35.9732
36.5003
36.917
37.2282
37.4409
37.5648
37.6108
37.5908
37.5157
37.3959
37.2403
37.0568
36.8519
36.6313
36.3995
36.1606
35.918
35.6743
35.4319
35.1926
34.9577
34.7282
34.5047
34.2875
34.0768
33.8725
33.6746
33.4826
33.2964
33.1156
32.9399
32.7689
32.6022
32.4397
32.281
32.1258
31.9739
31.8249
31.6787
31.535
31.3935
31.2541
31.1164
30.9804
30.8457
30.7122
30.5798
30.4482
30.3172
30.1869
30.0569
29.9273
29.7979
29.6687
29.5396
29.4105
29.2814
29.1524
29.0232
28.894
28.7646
28.6349
28.505
28.3748
28.2443
28.1133
27.982
27.8502
27.7181
27.5855
27.4526
27.3195
27.1862
27.0529
26.9199
26.7874
26.6558
26.5256
26.3976
26.2727
26.152
26.0377
25.9313
25.8376
25.758
25.7028
25.6666
25.6664
25.6413
11.694
11.6454
11.4506
11.091
10.5963
10.0125
9.36972
8.69017
7.99496
7.30768
6.65728
6.07601
5.59569
5.24586
5.04905
5.01273
5.12676
5.36813
5.70785
6.11569
6.56032
7.00621
7.41864
7.72908
7.89472
7.90727
7.76525
7.47672
7.04559
6.47701
5.766
4.90475
3.88699
2.71929
1.42138
0.0354727
-1.37804
-2.76249
-4.07235
-5.30326
-6.45437
-7.51219
-8.45181
-9.24743
-9.87825
-10.3289
-10.5919
-10.668
-10.566
-10.3006
-9.88913
-9.35006
-8.7024
-7.96441
-7.15298
-6.28351
-5.36957
-4.4227
-3.45214
-2.46427
-1.4622
-0.446184
0.585381
1.63527
2.70701
3.80444
4.93136
6.0913
7.28686
8.51944
9.78917
11.0946
12.4328
13.8002
15.192
16.6027
18.0265
19.4569
20.8871
22.3102
23.7187
25.1046
26.459
27.7723
29.0346
30.2362
31.368
32.4213
33.3875
34.2582
35.0257
35.6845
36.2316
36.668
36.998
37.2284
37.3689
37.431
37.4263
37.3661
37.2604
37.1182
36.9474
36.7542
36.5443
36.3222
36.0919
35.8569
35.6199
35.3833
35.1491
34.9186
34.693
34.4729
34.2587
34.0507
33.8488
33.653
33.4631
33.2787
33.0996
32.9253
32.7557
32.5904
32.429
32.2713
32.1171
31.9659
31.8177
31.6721
31.529
31.3881
31.2491
31.1119
30.9763
30.842
30.7089
30.5767
30.4455
30.3148
30.1848
30.0551
29.9258
29.7966
29.6676
29.5387
29.4099
29.281
29.1521
29.023
28.8939
28.7645
28.6349
28.5051
28.3748
28.2443
28.1133
27.9819
27.8501
27.7178
27.5851
27.4521
27.3188
27.1852
27.0517
26.9183
26.7854
26.6532
26.5223
26.3933
26.2671
26.1447
26.0279
25.9178
25.8185
25.7301
25.6598
25.5997
25.557
25.4756
11.5578
11.3778
10.9605
10.3489
9.61401
8.82016
8.00909
7.2079
6.43265
5.69707
5.02383
4.44412
3.99009
3.69138
3.56252
3.59786
3.77783
4.07101
4.44305
4.86141
5.294
5.70391
6.04692
6.28133
6.37512
6.31489
6.10759
5.76979
5.30814
4.71566
3.97019
3.04791
1.93381
0.638405
-0.812098
-2.357
-3.91928
-5.4477
-6.9089
-8.27273
-9.51587
-10.6181
-11.5576
-12.3121
-12.8626
-13.1983
-13.3179
-13.2298
-12.951
-12.5028
-11.909
-11.1942
-10.382
-9.49321
-8.54602
-7.55553
-6.53454
-5.49426
-4.44361
-3.3885
-2.33113
-1.27027
-0.202418
0.877149
1.97358
3.09208
4.23749
5.4142
6.62554
7.8742
9.16022
10.4819
11.8361
13.2185
14.624
16.0469
17.4812
18.9206
20.3586
21.7887
23.2041
24.5971
25.9592
27.2809
28.5525
29.7645
30.9083
31.9758
32.9587
33.8487
34.6379
35.3197
35.8904
36.3502
36.7024
36.9542
37.1154
37.1974
37.212
37.1705
37.0829
36.9581
36.8034
36.6254
36.4293
36.2197
36.0006
35.7755
35.5472
35.3183
35.0908
34.8662
34.6457
34.4301
34.22
34.0156
33.817
33.6241
33.4368
33.2548
33.0778
32.9056
32.7378
32.5741
32.4142
32.2578
32.1048
31.9548
31.8076
31.663
31.5207
31.3806
31.2423
31.1058
30.9707
30.837
30.7043
30.5727
30.4419
30.3117
30.182
30.0527
29.9236
29.7948
29.6661
29.5375
29.4089
29.2802
29.1515
29.0226
28.8936
28.7643
28.6348
28.505
28.3748
28.2442
28.1132
27.9817
27.8498
27.7174
27.5846
27.4514
27.3179
27.1841
27.0503
26.9165
26.783
26.6501
26.5184
26.3882
26.2605
26.1359
26.0162
25.9019
25.7962
25.6984
25.6127
25.5303
25.4511
25.3302
11.0899
10.7388
10.0973
9.3276
8.48702
7.61201
6.73686
5.88264
5.05519
4.26592
3.54426
2.92902
2.46009
2.16997
2.06975
2.14615
2.3688
2.69418
3.07731
3.47856
3.86337
4.19401
4.43556
4.55628
4.53311
4.36134
4.05239
3.61874
3.06292
2.3737
1.52959
0.507576
-0.703457
-2.10087
-3.64255
-5.269
-6.92347
-8.54987
-10.109
-11.5658
-12.8851
-14.0322
-14.9757
-15.6904
-16.159
-16.3749
-16.3442
-16.0822
-15.6113
-14.9607
-14.1627
-13.25
-12.2526
-11.196
-10.1002
-8.98
-7.8466
-6.70895
-5.57456
-4.44878
-3.33307
-2.22463
-1.11748
-0.00456011
1.12087
2.2649
3.43292
4.63033
5.86178
7.13041
8.43695
9.77969
11.1551
12.5582
13.9831
15.4235
16.8726
18.3239
19.7713
21.2087
22.6303
24.0291
25.3974
26.7264
28.0066
29.2289
30.3849
31.4669
32.4671
33.3772
34.1893
34.8959
35.4923
35.9774
36.3543
36.63
36.8144
36.9192
36.9562
36.9364
36.87
36.7655
36.6301
36.47
36.2904
36.0958
35.8901
35.6769
35.4591
35.2394
35.02
34.8025
34.5884
34.3784
34.1732
33.9732
33.7785
33.5892
33.4051
33.226
33.0518
32.882
32.7164
32.5547
32.3967
32.242
32.0905
31.9419
31.7959
31.6524
31.5111
31.3719
31.2344
31.0986
30.9643
30.8312
30.6991
30.568
30.4376
30.3079
30.1786
30.0497
29.9211
29.7926
29.6642
29.5359
29.4076
29.2791
29.1506
29.0219
28.893
28.7639
28.6344
28.5046
28.3745
28.2439
28.1128
27.9813
27.8493
27.7169
27.5839
27.4505
27.3168
27.1827
27.0485
26.9142
26.7801
26.6465
26.5138
26.3823
26.2528
26.1258
26.0027
25.8839
25.7713
25.6639
25.5632
25.4609
25.3518
25.2033
10.0251
9.63455
9.01126
8.27572
7.46422
6.61145
5.74737
4.88538
4.02667
3.19458
2.43666
1.80041
1.32652
1.03816
0.936995
1.00218
1.19695
1.47361
1.7857
2.09579
2.37112
2.57984
2.68925
2.67057
2.50917
2.20465
1.76385
1.19237
0.491689
-0.343024
-1.32315
-2.46549
-3.7787
-5.25974
-6.86792
-8.56251
-10.2931
-12.0113
-13.6728
-15.2324
-16.6419
-17.8527
-18.8222
-19.5163
-19.916
-20.0181
-19.8312
-19.3743
-18.6779
-17.7822
-16.733
-15.5761
-14.3518
-13.0928
-11.8224
-10.5551
-9.29891
-8.05859
-6.83806
-5.64061
-4.46623
-3.3097
-2.16217
-1.01406
0.143489
1.31808
2.51616
3.74314
5.00289
6.29811
7.63083
9.00066
10.4043
11.8359
13.2887
14.7549
16.2264
17.6956
19.1557
20.6016
22.0285
23.4309
24.8025
26.1358
27.4217
28.6517
29.8179
30.913
31.9297
32.86
33.6948
34.4266
35.0492
35.5607
35.9639
36.2657
36.4757
36.6058
36.6676
36.6719
36.6288
36.5465
36.4322
36.2919
36.1307
35.953
35.7625
35.5628
35.357
35.1478
34.9377
34.7284
34.5215
34.318
34.1185
33.9236
33.7335
33.5483
33.3679
33.1922
33.021
32.854
32.691
32.5316
32.3757
32.223
32.0732
31.9262
31.7817
31.6395
31.4994
31.3612
31.2248
31.0899
30.9564
30.824
30.6926
30.5622
30.4324
30.3032
30.1745
30.0461
29.9179
29.7898
29.6618
29.5338
29.4058
29.2777
29.1494
29.0209
28.8922
28.7631
28.6338
28.5041
28.374
28.2434
28.1123
27.9808
27.8487
27.7161
27.583
27.4495
27.3154
27.1811
27.0464
26.9116
26.7769
26.6424
26.5086
26.3756
26.2442
26.1147
25.988
25.8644
25.7447
25.6279
25.5131
25.3932
25.2604
25.0909
8.95681
8.63954
8.15295
7.53074
6.81142
6.03887
5.24094
4.42364
3.58827
2.76848
2.0185
1.38628
0.904926
0.58926
0.433224
0.413924
0.495452
0.635355
0.794175
0.940687
1.04711
1.08417
1.02152
0.834845
0.511308
0.0475405
-0.553739
-1.28809
-2.15125
-3.14206
-4.26732
-5.53845
-6.96821
-8.54797
-10.2566
-12.0634
-13.9253
-15.7948
-17.6186
-19.3374
-20.8895
-22.2145
-23.2551
-23.9651
-24.3174
-24.3042
-23.9369
-23.2428
-22.2659
-21.063
-19.6979
-18.2333
-16.7237
-15.2115
-13.7249
-12.2794
-10.88
-9.5259
-8.21472
-6.94506
-5.71406
-4.51379
-3.33142
-2.15345
-0.967043
0.23859
1.47151
2.73592
4.03464
5.36959
6.74211
8.15133
9.59381
11.0638
12.554
14.0554
15.5583
17.0528
18.5313
19.9891
21.4226
22.8285
24.202
25.5363
26.8234
28.0562
29.2281
30.333
31.3637
32.3124
33.1692
33.9248
34.5728
35.1108
35.5414
35.871
36.109
36.2665
36.3552
36.3856
36.3673
36.3086
36.2164
36.0968
35.9548
35.7948
35.6206
35.4356
35.2429
35.0453
34.8454
34.6452
34.4463
34.2499
34.0569
33.8677
33.6827
33.5021
33.3259
33.154
32.9863
32.8224
32.6623
32.5056
32.3521
32.2016
32.0538
31.9086
31.7658
31.6251
31.4864
31.3494
31.2141
31.0802
30.9476
30.8161
30.6856
30.5558
30.4267
30.2981
30.1699
30.042
29.9143
29.7867
29.6591
29.5314
29.4037
29.2759
29.1479
29.0196
28.8911
28.7622
28.633
28.5033
28.3733
28.2427
28.1117
27.9801
27.8479
27.7152
27.582
27.4482
27.3139
27.1792
27.0441
26.9088
26.7733
26.638
26.5029
26.3684
26.2349
26.1027
25.9722
25.8436
25.7171
25.591
25.4636
25.3283
25.1764
24.9904
8.32306
8.09255
7.72029
7.21288
6.60979
5.95253
5.26383
4.54168
3.7829
3.02581
2.32093
1.70407
1.19791
0.811746
0.541723
0.372887
0.278266
0.224627
0.180775
0.11987
0.0162294
-0.157519
-0.42732
-0.813904
-1.33012
-1.98053
-2.76315
-3.67171
-4.69919
-5.84284
-7.11396
-8.52796
-10.0987
-11.8263
-13.7024
-15.7004
-17.7792
-19.8863
-21.9565
-23.9164
-25.6888
-27.1923
-28.3488
-29.0966
-29.4015
-29.2561
-28.6752
-27.6974
-26.3828
-24.8079
-23.0582
-21.2176
-19.3592
-17.5383
-15.7897
-14.13
-12.5617
-11.0787
-9.67136
-8.33149
-7.05148
-5.81862
-4.61387
-3.41712
-2.20945
-0.976807
0.290251
1.59595
2.94264
4.33052
5.7587
7.22412
8.72124
10.2438
11.7837
13.3313
14.8754
16.4037
17.9074
19.3823
20.8265
22.238
23.6128
24.9454
26.2294
27.46
28.6328
29.7437
30.7858
31.7508
32.6272
33.4048
34.0767
34.6405
35.0983
35.4559
35.7224
35.9084
36.025
36.0826
36.0904
36.0562
35.9869
35.8884
35.7659
35.6239
35.4663
35.2964
35.1175
34.9323
34.7434
34.5531
34.3629
34.1744
33.9884
33.8055
33.6262
33.4506
33.279
33.1113
32.9474
32.7871
32.6301
32.4763
32.3255
32.1775
32.0319
31.8888
31.7478
31.6088
31.4716
31.3361
31.202
31.0693
30.9377
30.8072
30.6775
30.5485
30.4201
30.2922
30.1647
30.0373
29.9101
29.783
29.6558
29.5286
29.4013
29.2738
29.146
29.018
28.8897
28.761
28.6319
28.5024
28.3724
28.2419
28.1108
27.9792
27.847
27.7142
27.5808
27.4468
27.3122
27.1772
27.0416
26.9057
26.7695
26.6331
26.4968
26.3607
26.225
26.09
25.9558
25.8222
25.6889
25.5542
25.4154
25.2667
25.0995
24.9003
8.16772
8.00043
7.71727
7.31424
6.82824
6.29236
5.72587
5.12332
4.48183
3.82481
3.18703
2.59021
2.04902
1.5718
1.16185
0.814885
0.515103
0.239948
-0.034368
-0.331921
-0.677853
-1.09609
-1.60703
-2.2264
-2.96378
-3.82154
-4.79606
-5.87943
-7.06627
-8.36326
-9.78985
-11.3705
-13.1258
-15.0657
-17.1858
-19.4575
-21.8353
-24.2559
-26.6387
-28.8924
-30.9177
-32.6143
-33.8901
-34.6739
-34.9267
-34.6406
-33.8331
-32.5509
-30.8689
-28.8845
-26.7082
-24.4492
-22.2016
-20.0356
-17.9938
-16.0943
-14.3376
-12.7124
-11.2029
-9.79414
-8.47273
-7.21894
-6.00505
-4.80078
-3.57994
-2.32451
-1.02428
0.326161
1.72818
3.17952
4.67674
6.21381
7.78261
9.37448
10.9798
12.5876
14.184
15.7554
17.2918
18.7897
20.2483
21.6668
23.0426
24.3715
25.65
26.8751
28.0458
29.1597
30.2112
31.1905
32.0847
32.8818
33.5753
34.1625
34.6457
35.03
35.3238
35.5374
35.6816
35.7665
35.8008
35.7918
35.746
35.669
35.5662
35.4421
35.3011
35.1466
34.9819
34.8096
34.6324
34.4525
34.2719
34.0918
33.9134
33.7373
33.5642
33.3942
33.2276
33.0644
32.9046
32.7481
32.5947
32.4442
32.2963
32.1509
32.0079
31.867
31.728
31.5908
31.4554
31.3214
31.1887
31.0573
30.9269
30.7974
30.6686
30.5406
30.413
30.2858
30.1589
30.0322
29.9056
29.7789
29.6523
29.5255
29.3985
29.2713
29.1439
29.0162
28.8881
28.7596
28.6306
28.5012
28.3713
28.2409
28.1098
27.9782
27.8459
27.713
27.5794
27.4452
27.3104
27.175
27.039
26.9024
26.7654
26.628
26.4904
26.3526
26.2147
26.0768
25.9389
25.8004
25.6607
25.518
25.3691
25.2087
25.0291
24.8192
8.40252
8.27638
8.05009
7.72403
7.32821
6.89114
6.42856
5.9381
5.41352
4.86005
4.29292
3.72329
3.15816
2.60409
2.06969
1.55728
1.05961
0.562479
0.0487717
-0.50086
-1.10614
-1.78505
-2.55263
-3.41857
-4.38608
-5.45321
-6.61514
-7.86824
-9.2177
-10.682
-12.2911
-14.0773
-16.0657
-18.2683
-20.6755
-23.2511
-25.9386
-28.6613
-31.327
-33.832
-36.066
-37.9191
-39.2894
-40.0966
-40.2955
-39.8759
-38.8582
-37.2967
-35.2782
-32.918
-30.3479
-27.6988
-25.0854
-22.5931
-20.2731
-18.1444
-16.2054
-14.4403
-12.8296
-11.3549
-9.99718
-8.72724
-7.50608
-6.2933
-5.05609
-3.77349
-2.43408
-1.03307
0.430315
1.95372
3.53019
5.15035
6.8035
8.47877
10.1636
11.8436
13.5016
15.1222
16.6956
18.2192
19.693
21.118
22.4932
23.8175
25.09
26.3101
27.4788
28.5961
29.6565
30.6478
31.5555
32.3673
33.0774
33.6841
34.1896
34.5986
34.9184
35.1589
35.3304
35.4422
35.5027
35.5185
35.4959
35.4402
35.3569
35.2508
35.1263
34.9871
34.8367
34.6777
34.5127
34.3439
34.1732
34.0022
33.8319
33.6632
33.4967
33.3328
33.1717
33.0135
32.8582
32.7058
32.5562
32.4092
32.2645
32.1221
31.9817
31.8432
31.7065
31.5713
31.4376
31.3053
31.1742
31.0441
30.915
30.7866
30.659
30.5318
30.4051
30.2788
30.1526
30.0265
29.9005
29.7744
29.6483
29.5219
29.3954
29.2686
29.1415
29.0141
28.8862
28.7579
28.6292
28.4999
28.3701
28.2397
28.1087
27.977
27.8447
27.7117
27.578
27.4436
27.3085
27.1726
27.0361
26.899
26.7611
26.6227
26.4838
26.3443
26.2042
26.0635
25.9218
25.7787
25.633
25.4828
25.325
25.1546
24.9647
24.7462
8.91309
8.80761
8.61193
8.32838
7.98223
7.59823
7.19231
6.76712
6.31398
5.82835
5.30997
4.76077
4.18082
3.5735
2.94466
2.29749
1.62935
0.933109
0.198932
-0.584446
-1.4288
-2.34604
-3.34627
-4.43402
-5.60889
-6.86868
-8.21148
-9.63997
-11.1685
-12.824
-14.6394
-16.646
-18.865
-21.2992
-23.9288
-26.7117
-29.5902
-32.4888
-35.3174
-37.9706
-40.331
-42.277
-43.6966
-44.5012
-44.6434
-44.1155
-42.9417
-41.1817
-38.9317
-36.3176
-33.4811
-30.5671
-27.704
-24.9867
-22.4689
-20.1709
-18.0902
-16.2117
-14.5167
-12.9862
-11.5953
-10.3049
-9.06526
-7.82902
-6.55987
-5.23621
-3.84587
-2.38397
-0.850975
0.748803
2.40689
4.11234
5.85314
7.61618
9.38484
11.1391
12.8584
14.5261
16.1331
17.6779
19.163
20.5913
21.9649
23.2852
24.5545
25.7739
26.9452
28.068
29.1356
30.1344
31.0491
31.8687
32.5887
33.2095
33.7334
34.1645
34.5095
34.7768
34.9756
35.1143
35.2003
35.24
35.2395
35.2043
35.1399
35.0513
34.943
34.8191
34.683
34.5374
34.3848
34.2275
34.0673
33.9058
33.7442
33.5834
33.4241
33.2666
33.1114
32.9586
32.8083
32.6604
32.5149
32.3716
32.2304
32.0911
31.9535
31.8177
31.6833
31.5503
31.4186
31.2881
31.1586
31.03
30.9022
30.7751
30.6486
30.5225
30.3967
30.2711
30.1457
30.0204
29.895
29.7696
29.644
29.5181
29.392
29.2656
29.1389
29.0117
28.8842
28.7561
28.6275
28.4984
28.3687
28.2384
28.1074
27.9758
27.8434
27.7103
27.5764
27.4418
27.3064
27.1702
27.0332
26.8954
26.7568
26.6173
26.477
26.3358
26.1935
26.05
25.9048
25.7572
25.606
25.449
25.2833
25.1042
24.9058
24.6802
9.61658
9.51688
9.32698
9.05263
8.71592
8.33959
7.94001
7.52294
7.08161
6.60656
6.09063
5.52881
4.91641
4.25173
3.53653
2.77364
1.96413
1.10656
0.198102
-0.766087
-1.7929
-2.89139
-4.06955
-5.33154
-6.67873
-8.11041
-9.626
-11.2298
-12.9351
-14.7627
-16.7364
-18.8782
-21.2045
-23.7157
-26.3948
-29.2086
-32.1089
-35.0265
-37.8732
-40.5399
-42.9062
-44.8474
-46.2521
-47.035
-47.1505
-46.5891
-45.3732
-43.5648
-41.2593
-38.5825
-35.6782
-32.6939
-29.7593
-26.9685
-24.3758
-22.0023
-19.8486
-17.904
-16.1547
-14.5832
-13.1598
-11.8377
-10.5614
-9.28086
-7.96107
-6.58201
-5.13231
-3.60626
-2.00438
-0.33185
1.40295
3.18863
5.01217
6.85623
8.69883
10.5151
12.2817
13.9832
15.6122
17.169
18.6587
20.088
21.4616
22.7827
24.0541
25.278
26.4554
27.5843
28.6558
29.656
30.5708
31.3915
32.1156
32.7449
33.2825
33.7327
34.1011
34.3947
34.6207
34.7858
34.8964
34.9587
34.9789
34.9631
34.9168
34.8451
34.7528
34.6439
34.5218
34.3896
34.2496
34.104
33.9547
33.8031
33.6506
33.4982
33.3465
33.196
33.0472
32.9001
32.755
32.612
32.4708
32.3315
32.194
32.058
31.9235
31.7903
31.6585
31.5278
31.3982
31.2696
31.1419
31.0149
30.8886
30.7628
30.6374
30.5124
30.3876
30.263
30.1384
30.0138
29.8891
29.7643
29.6393
29.514
29.3884
29.2624
29.136
29.0092
28.8819
28.7541
28.6257
28.4968
28.3672
28.237
28.106
27.9744
27.842
27.7088
27.5748
27.4399
27.3043
27.1677
27.0302
26.8918
26.7523
26.6118
26.4702
26.3273
26.1829
26.0367
25.8881
25.7363
25.5799
25.4168
25.2441
25.0576
24.8519
24.6206
10.4613
10.3557
10.1528
9.86092
9.49894
9.08922
8.64941
8.18815
7.70222
7.18062
6.61202
5.98754
5.30137
4.55123
3.73851
2.86731
1.9412
0.962781
-0.0663267
-1.14763
-2.28788
-3.49793
-4.78811
-6.16504
-7.63119
-9.18385
-10.817
-12.5267
-14.3149
-16.191
-18.1728
-20.2823
-22.5394
-24.9515
-27.5102
-30.1909
-32.9517
-35.7302
-38.4413
-40.9842
-43.2512
-45.1232
-46.4949
-47.283
-47.44
-46.9534
-45.8393
-44.1494
-41.9768
-39.4409
-36.6781
-33.8263
-31.0059
-28.3038
-25.7705
-23.4273
-21.2792
-19.3249
-17.5584
-15.9661
-14.516
-13.1571
-11.833
-10.4971
-9.11913
-7.6819
-6.17442
-4.59029
-2.92811
-1.19297
0.60717
2.46045
4.35074
6.25453
8.14577
9.99736
11.7863
13.4998
15.1347
16.6947
18.1873
19.6204
20.9991
22.3262
23.6041
24.8344
26.0174
27.149
28.2192
29.2148
30.1242
30.9409
31.6641
32.2971
32.8441
33.3098
33.6992
34.0173
34.2691
34.4591
34.5928
34.6761
34.7156
34.7177
34.6885
34.6332
34.5565
34.4624
34.3545
34.2356
34.1082
33.9745
33.8362
33.6949
33.5519
33.4082
33.2646
33.1215
32.9793
32.8384
32.6989
32.5609
32.4243
32.2892
32.1555
32.023
31.8917
31.7615
31.6323
31.5041
31.3767
31.2501
31.1242
30.9989
30.8741
30.7497
30.6257
30.5018
30.3781
30.2544
30.1307
30.0069
29.8829
29.7588
29.6343
29.5096
29.3845
29.2589
29.133
29.0065
28.8795
28.7519
28.6238
28.495
28.3655
28.2354
28.1045
27.9729
27.8405
27.7072
27.5731
27.438
27.3021
27.1651
27.0272
26.8881
26.7479
26.6064
26.4635
26.3189
26.1725
26.0237
25.8719
25.7162
25.5551
25.3865
25.2076
25.0147
24.8029
24.5667
11.3919
11.2766
11.0497
10.7224
10.3104
9.83577
9.31494
8.75716
8.16086
7.51984
6.82794
6.08084
5.27569
4.41184
3.49216
2.52361
1.51395
0.468859
-0.610354
-1.72879
-2.89791
-4.13089
-5.43783
-6.82329
-8.28694
-9.82256
-11.4194
-13.0692
-14.771
-16.534
-18.3758
-20.3215
-22.3895
-24.5874
-26.9102
-29.3397
-31.8409
-34.3628
-36.8356
-39.1748
-41.2852
-43.0626
-44.4079
-45.2407
-45.5103
-45.1982
-44.3137
-42.9006
-41.0356
-38.8246
-36.3882
-33.847
-31.304
-28.8339
-26.4807
-24.2661
-22.2015
-20.296
-18.5538
-16.9656
-15.4997
-14.1069
-12.7366
-11.3494
-9.92033
-8.43366
-6.8782
-5.24768
-3.54067
-1.76087
0.0844363
1.98078
3.90691
5.83552
7.73844
9.59057
11.374
13.0811
14.7125
16.2739
17.7724
19.2134
20.5999
21.9336
23.2165
24.4504
25.6341
26.7623
27.8247
28.8099
29.7085
30.5164
31.2348
31.8684
32.4226
32.9019
33.3099
33.6498
33.9241
34.1362
34.2905
34.3928
34.4501
34.469
34.4559
34.4163
34.3549
34.2756
34.1818
34.0763
33.9617
33.84
33.713
33.5823
33.4491
33.3144
33.179
33.0435
32.9084
32.7739
32.6402
32.5074
32.3757
32.245
32.1152
31.9864
31.8584
31.7313
31.6049
31.4792
31.3541
31.2297
31.1057
30.9822
30.859
30.7361
30.6133
30.4907
30.368
30.2454
30.1226
29.9996
29.8764
29.7529
29.6291
29.505
29.3804
29.2553
29.1297
29.0036
28.8769
28.7496
28.6217
28.4931
28.3638
28.2338
28.103
27.9714
27.8389
27.7056
27.5713
27.4361
27.2999
27.1626
27.0241
26.8845
26.7435
26.601
26.4568
26.3107
26.1623
26.0111
25.8563
25.697
25.5316
25.3581
25.1738
24.9753
24.7583
24.5181
12.3522
12.2272
11.9779
11.6047
11.1228
10.5508
9.89929
9.17835
8.39494
7.55837
6.67673
5.75571
4.79913
3.81397
2.81035
1.79752
0.782043
-0.233887
-1.25393
-2.28641
-3.34284
-4.43482
-5.5721
-6.76662
-8.02574
-9.35597
-10.7568
-12.2223
-13.7524
-15.3467
-17.0128
-18.7625
-20.6055
-22.5472
-24.5863
-26.7124
-28.9025
-31.1205
-33.3138
-35.4157
-37.3461
-39.0169
-40.3422
-41.2491
-41.6861
-41.63
-41.081
-40.0672
-38.6456
-36.8989
-34.9246
-32.8197
-30.6676
-28.5293
-26.4434
-24.4334
-22.5177
-20.7141
-19.0339
-17.4714
-16.0004
-14.5816
-13.1764
-11.7541
-10.2922
-8.77533
-7.19243
-5.53739
-3.80889
-2.00974
-0.149275
1.75432
3.67583
5.5877
7.46518
9.28961
11.05
12.7429
14.3694
15.9328
17.436
18.8811
20.2694
21.6033
22.8855
24.117
25.295
26.4122
27.459
28.4263
29.3083
30.104
30.8168
31.4521
32.0144
32.5068
32.931
33.2885
33.5811
33.8112
33.9833
34.103
34.1771
34.2125
34.2155
34.1916
34.1455
34.0811
34.0016
33.91
33.8086
33.6994
33.5842
33.4644
33.3413
33.216
33.0893
32.9618
32.8339
32.706
32.5784
32.4512
32.3245
32.1984
32.0729
31.9479
31.8234
31.6995
31.576
31.453
31.3304
31.2081
31.0862
30.9646
30.8431
30.7217
30.6003
30.4789
30.3575
30.2359
30.114
29.992
29.8696
29.7468
29.6237
29.5001
29.3761
29.2515
29.1263
29.0006
28.8742
28.7472
28.6195
28.4911
28.362
28.2321
28.1013
27.9698
27.8373
27.7039
27.5695
27.4341
27.2977
27.16
27.0211
26.8809
26.7391
26.5957
26.4504
26.3028
26.1525
25.999
25.8415
25.6788
25.5096
25.3317
25.1427
24.9394
24.718
24.4744
13.218
13.083
12.7927
12.348
11.7546
11.0253
10.1725
9.2207
8.19864
7.13639
6.06114
4.99904
3.9698
2.98574
2.05103
1.16595
0.328587
-0.463131
-1.21994
-1.95715
-2.70055
-3.47267
-4.30099
-5.20627
-6.20567
-7.308
-8.51335
-9.81495
-11.204
-12.67
-14.2068
-15.8136
-17.4921
-19.2439
-21.0672
-22.9555
-24.8937
-26.857
-28.8074
-30.6951
-32.4587
-34.0295
-35.3387
-36.3243
-36.937
-37.1485
-36.9483
-36.348
-35.3853
-34.12
-32.625
-30.974
-29.2316
-27.4476
-25.657
-23.8861
-22.1585
-20.4946
-18.9057
-17.3887
-15.9276
-14.4999
-13.0809
-11.6471
-10.1778
-8.6578
-7.07661
-5.42783
-3.71012
-1.92649
-0.0896849
1.77921
3.65594
5.51813
7.34783
9.13231
10.8637
12.5378
14.1529
15.708
17.2032
18.6396
20.0197
21.3464
22.6215
23.8436
25.0073
26.1046
27.1278
28.0719
28.9354
29.7205
30.4311
31.0706
31.6412
32.1437
32.5788
32.9477
33.2524
33.4959
33.6824
33.8172
33.9069
33.958
33.9766
33.968
33.9369
33.8872
33.822
33.744
33.6555
33.5586
33.455
33.3461
33.2331
33.117
32.9989
32.8792
32.7585
32.6373
32.5158
32.3941
32.2725
32.151
32.0297
31.9086
31.7877
31.667
31.5465
31.4263
31.3061
31.1862
31.0663
30.9466
30.8268
30.707
30.5871
30.467
30.3467
30.2262
30.1053
29.9842
29.8626
29.7406
29.6181
29.4952
29.3717
29.2476
29.1228
28.9975
28.8715
28.7447
28.6173
28.4891
28.3601
28.2303
28.0997
27.9682
27.8357
27.7023
27.5678
27.4322
27.2955
27.1576
27.0182
26.8774
26.735
26.5907
26.4442
26.2952
26.1433
25.9877