/*--------------------------------*- C++ -*----------------------------------*\
| =========                 |                                                 |
| \\      /  F ield         | OpenFOAM: The Open Source CFD Toolbox           |
|  \\    /   O peration     | Version:  2112                                  |
|   \\  /    A nd           | Website:  www.openfoam.com                      |
|    \\/     M anipulation  |                                                 |
\*---------------------------------------------------------------------------*/
FoamFile
{
    version     2.0;
    format      ascii;
    arch        "LSB;label=32;scalar=64";
    class       volScalarField;
    location    "0.036";
    object      s_0;
}
// * * * * * * * * * * * * * * * * * * * * * * * * * * * * * * * * * * * * * //

dimensions      [0 0 0 0 0 0 0];

internalField   nonuniform List<scalar> 
12225
(
1
1
1
1
1
1
1
1
1
1
1
1
1
1
1
1
1
1
1
1
1
1
1
1
1
1
1
1
1
1
1
1
1
1
1
1
1
1
1
1
1
1
1
1
1
1
1
1
1
1
1
1
1
1
1
1
1
1
1
1
1
1
1
1
1
1
1
1
1
1
1
1
1
1
1
1
1
1
1
1
1
1
1
1
1
1
1
1
1
1
1
1
1
1
1
1
1
1
1
1
1
1
1
1
1
1
1
1
1
1
1
1
1
1
1
1
1
1
1
1
1
1
1
1
1
1
1
1
1
1
1
1
1
1
1
1
1
1
1
1
1
1
1
1
1
1
1
1
1
1
1
1
1
1
1
1
1
1
1
1
1
1
1
1
1
1
1
1
1
1
1
1
1
1
1
1
1
1
1
1
1
1
1
1
1
1
1
1
1
1
1
1
1
1
1
1
1
1
1
1
1
1
1
1
1
1
1
1
1
1
1
1
1
1
1
1
1
1
1
1
1
1
1
1
1
1
1
1
1
1
1
1
1
1
1
1
1
1
1
1
1
1
1
1
1
1
1
1
1
1
1
1
1
1
1
1
1
1
1
1
1
1
1
1
1
1
1
1
1
1
1
1
1
1
1
1
1
1
1
1
1
1
1
1
1
1
1
1
1
1
1
1
1
1
1
1
1
1
1
1
1
1
1
1
1
1
1
1
1
1
1
1
1
1
1
1
1
1
1
1
1
1
1
1
1
1
1
1
1
1
1
1
1
1
1
1
1
1
1
1
1
1
1
1
1
1
1
1
1
1
1
1
1
1
1
1
1
1
1
1
1
1
1
1
1
1
1
1
1
1
1
1
1
1
1
1
1
1
1
1
1
1
1
1
1
1
1
1
1
1
1
1
1
1
1
1
1
1
1
1
1
1
1
1
1
1
1
1
1
1
1
1
1
1
1
1
1
1
1
1
1
1
1
1
1
1
1
1
1
1
1
1
1
1
1
1
1
1
1
1
1
1
1
1
1
1
1
1
1
1
1
1
1
1
1
1
1
1
1
1
1
1
1
1
1
1
1
1
1
1
1
1
1
1
1
1
1
1
1
1
1
1
1
1
1
1
1
1
1
1
1
1
1
1
1
1
1
1
1
1
1
1
1
1
1
1
1
1
1
1
1
1
1
1
1
1
1
1
1
1
1
1
1
1
1
1
1
1
1
1
1
1
1
1
1
1
1
1
1
1
0.207714
0.280468
0.333573
0.359698
0.396008
0.434611
0.475884
0.510367
0.526338
0.559917
0.58137
0.59505
0.602065
0.608403
0.608621
0.607714
0.605029
0.601174
0.593273
0.586916
0.578428
0.569101
0.561487
0.549281
0.535043
0.512382
0.442601
0.21571
0.308152
0.356804
0.361658
0.357803
0.346814
0.341972
0.343507
0.375533
0.418781
0.449119
0.46169
0.462061
0.456919
0.410601
0.283865
0.239605
0.275833
0.609963
0.832461
0.839972
0.842285
0.84405
0.845027
0.84669
0.847494
0.847876
0.848585
0.850022
0.851829
0.852797
0.853198
0.853599
0.854464
0.855879
0.857306
0.857982
0.858357
0.859004
0.860146
0.861243
0.861761
0.862073
0.8626
0.863327
0.863945
0.864389
0.864839
0.865354
0.86591
0.866552
0.867239
0.867865
0.8684
0.86898
0.869731
0.870543
0.871287
0.871936
0.872563
0.873221
0.87385
0.874381
0.874717
0.874856
0.874753
0.874387
0.873678
0.87278
0.872043
0.871542
0.871251
0.870964
0.870624
0.8703
0.869937
0.869552
0.869225
0.868994
0.868893
0.868951
0.869229
0.869646
0.870089
0.870387
0.870337
0.869635
0.867333
0.864533
0.861891
0.859718
0.858204
0.857147
0.856367
0.85583
0.855465
0.855118
0.854544
0.853368
0.850518
0.842432
0.829983
0.816637
0.800905
0.781307
0.757712
0.730562
0.69905
0.660341
0.610739
0.547965
0.47294
0.390026
0.305769
0.226982
0.159031
0.104875
0.0649535
0.0377226
0.0205301
0.0104745
0.00501616
0.00225974
0.000961613
0.000388694
0.000147537
4.88265e-05
1.56211e-05
8.03055e-06
4.08506e-06
2.01837e-06
9.71157e-07
4.56424e-07
2.09809e-07
9.44105e-08
4.16182e-08
1.79845e-08
7.62256e-09
3.17008e-09
1.29401e-09
5.18534e-10
2.03993e-10
7.87746e-11
2.98541e-11
1.10969e-11
4.04355e-12
1.44225e-12
5.03092e-13
1.71021e-13
5.65772e-14
1.8045e-14
5.53805e-15
-6.55643e-14
0.191762
0.225501
0.246548
0.231018
0.27194
0.372466
0.474357
0.570245
0.638024
0.671432
0.687231
0.694707
0.698394
0.701109
0.702206
0.702304
0.702127
0.701505
0.699857
0.694974
0.688935
0.675735
0.664743
0.643063
0.623357
0.590336
0.551307
0.442644
0.349721
0.323406
0.294212
0.251653
0.247413
0.252499
0.264039
0.299761
0.388655
0.437089
0.48027
0.492208
0.479959
0.410798
0.4677
0.715835
0.759787
0.815279
0.839148
0.840959
0.842184
0.842909
0.843413
0.844295
0.844601
0.844778
0.845408
0.846974
0.849288
0.850808
0.851372
0.851834
0.852844
0.854646
0.855565
0.85586
0.856025
0.856247
0.85635
0.856243
0.855595
0.854197
0.85289
0.851895
0.85119
0.850411
0.84985
0.849561
0.849432
0.850024
0.851214
0.853118
0.854962
0.856676
0.859328
0.862808
0.866278
0.869892
0.873169
0.876728
0.880673
0.884988
0.889355
0.893408
0.897261
0.900837
0.903782
0.905975
0.907016
0.907059
0.905999
0.904327
0.902374
0.90049
0.898414
0.896046
0.893378
0.890366
0.886864
0.883523
0.880818
0.879181
0.878836
0.879727
0.88376
0.889992
0.896385
0.901666
0.905055
0.906427
0.906342
0.904129
0.897031
0.889432
0.883002
0.878221
0.875594
0.874896
0.875354
0.879188
0.893101
0.910064
0.924056
0.93431
0.941734
0.948458
0.954684
0.958675
0.959857
0.959762
0.958494
0.954505
0.943338
0.929292
0.917339
0.906393
0.88892
0.850753
0.758852
0.629505
0.492234
0.367283
0.26574
0.186629
0.126876
0.0833602
0.0528937
0.0324112
0.0191876
0.0109827
0.00608366
0.00326472
0.00169909
0.000858506
0.000421567
0.000201375
9.36516e-05
4.24352e-05
1.87438e-05
8.07496e-06
3.39308e-06
1.39119e-06
5.56198e-07
2.1695e-07
8.23989e-08
3.05135e-08
1.09625e-08
3.83534e-09
1.29065e-09
4.21346e-10
1.31507e-10
3.21931e-11
0.186755
0.19309
0.194707
0.227621
0.335979
0.505076
0.630425
0.683073
0.702219
0.706446
0.706871
0.706566
0.70563
0.705262
0.705102
0.705148
0.704908
0.70451
0.703899
0.701372
0.698593
0.693031
0.687874
0.677313
0.66951
0.654825
0.637458
0.608766
0.541006
0.446091
0.36847
0.306349
0.273336
0.261851
0.270599
0.311745
0.450803
0.498155
0.504237
0.519438
0.55717
0.672725
0.773062
0.812815
0.828031
0.836214
0.838371
0.838489
0.836951
0.834282
0.832341
0.831497
0.831213
0.831859
0.834085
0.834903
0.836087
0.837546
0.837915
0.838087
0.838162
0.837606
0.835095
0.830504
0.824295
0.816487
0.807092
0.796551
0.786291
0.777602
0.770981
0.765639
0.761711
0.759137
0.75804
0.75761
0.757442
0.75759
0.75922
0.762325
0.765117
0.767375
0.770698
0.775205
0.780635
0.787125
0.794124
0.802696
0.812591
0.824657
0.839092
0.855192
0.872527
0.888876
0.901619
0.910563
0.917936
0.923617
0.927814
0.931179
0.933255
0.934017
0.933506
0.932004
0.93067
0.92902
0.924972
0.918489
0.91077
0.900636
0.88958
0.881647
0.877849
0.877255
0.879023
0.888025
0.903078
0.917293
0.929393
0.938065
0.943575
0.946109
0.946303
0.943889
0.931305
0.906659
0.884645
0.868797
0.861509
0.860272
0.861567
0.870418
0.894424
0.914871
0.930114
0.941973
0.951294
0.958765
0.965415
0.972053
0.97863
0.984133
0.987479
0.988609
0.988616
0.987808
0.98424
0.977473
0.969321
0.953594
0.915982
0.802451
0.604189
0.429804
0.295056
0.196435
0.126726
0.0791976
0.0479527
0.028144
0.0160233
0.00885719
0.00475798
0.00248625
0.00126479
0.000626915
0.000302928
0.000142789
6.56592e-05
2.94705e-05
1.29022e-05
5.51436e-06
2.29583e-06
9.32901e-07
3.68002e-07
1.41592e-07
5.24707e-08
1.89259e-08
6.49106e-09
2.04583e-09
0.177983
0.180049
0.278143
0.490064
0.638618
0.697164
0.718959
0.718414
0.715235
0.707919
0.69473
0.685027
0.674993
0.670967
0.671075
0.669702
0.669323
0.668706
0.664884
0.663616
0.662972
0.660809
0.660157
0.658411
0.656436
0.651619
0.641968
0.629094
0.611298
0.573328
0.52432
0.46701
0.396101
0.3752
0.387353
0.486729
0.656156
0.648807
0.640167
0.688697
0.760849
0.801885
0.823428
0.831336
0.833944
0.834728
0.83248
0.825742
0.81895
0.816675
0.81631
0.817544
0.823079
0.825679
0.826164
0.826292
0.82639
0.826129
0.823801
0.818545
0.810881
0.800067
0.784482
0.763789
0.741537
0.725081
0.71963
0.717971
0.717643
0.718219
0.719904
0.722215
0.724668
0.727113
0.729505
0.731814
0.733812
0.735906
0.738527
0.740894
0.74289
0.744929
0.746769
0.748634
0.751152
0.753589
0.755807
0.758404
0.761245
0.765169
0.770706
0.777877
0.788095
0.805011
0.829249
0.855883
0.882046
0.905139
0.921303
0.931585
0.939198
0.944746
0.948632
0.951377
0.952181
0.951335
0.949405
0.947683
0.945201
0.94201
0.936009
0.922324
0.904196
0.888526
0.87941
0.876148
0.876107
0.879175
0.89265
0.915016
0.935418
0.951561
0.962665
0.969377
0.972338
0.972691
0.970616
0.957846
0.918837
0.884977
0.867148
0.86108
0.860762
0.864419
0.883376
0.911727
0.931791
0.945429
0.95479
0.961794
0.967783
0.973465
0.979032
0.984356
0.989089
0.992681
0.994711
0.995382
0.995398
0.995014
0.993331
0.988054
0.974114
0.936287
0.813095
0.593853
0.408785
0.270132
0.172458
0.106636
0.0639185
0.037177
0.0210014
0.0115331
0.00616167
0.0032049
0.00162358
0.000801483
0.000385529
0.000180773
8.25733e-05
3.67641e-05
1.59275e-05
6.72265e-06
2.75379e-06
1.09775e-06
4.22315e-07
1.57606e-07
5.6336e-08
1.87035e-08
0.164087
0.437112
0.638739
0.710614
0.735129
0.734589
0.729986
0.716735
0.688362
0.647081
0.609675
0.58381
0.570366
0.570615
0.574472
0.579935
0.578552
0.574481
0.569818
0.569882
0.569717
0.570098
0.572517
0.57955
0.588243
0.606507
0.618477
0.616819
0.609155
0.590928
0.56567
0.537599
0.486989
0.442417
0.452468
0.64276
0.727838
0.735078
0.760569
0.794828
0.816077
0.826123
0.830229
0.83127
0.831269
0.825606
0.813236
0.806345
0.804197
0.803839
0.804923
0.810186
0.815433
0.816485
0.816607
0.815777
0.812115
0.805241
0.793697
0.774594
0.747714
0.724227
0.71409
0.709131
0.707065
0.706598
0.707307
0.711694
0.721214
0.734323
0.745999
0.757049
0.76677
0.775259
0.783153
0.789759
0.793106
0.795949
0.799196
0.800468
0.801125
0.801722
0.801849
0.802168
0.802044
0.801372
0.798951
0.796339
0.792029
0.787013
0.782079
0.778619
0.777224
0.779425
0.787608
0.799171
0.813246
0.831425
0.855045
0.880662
0.90514
0.927072
0.943039
0.953298
0.960399
0.964856
0.96724
0.966299
0.961513
0.957092
0.954503
0.951404
0.945409
0.931099
0.911824
0.895063
0.884255
0.879694
0.87906
0.880435
0.888138
0.911027
0.936949
0.957613
0.971599
0.979629
0.982972
0.983403
0.981616
0.969732
0.92787
0.889023
0.86889
0.861939
0.861533
0.865542
0.886746
0.919272
0.941946
0.956628
0.965788
0.971678
0.976078
0.980101
0.984148
0.988105
0.991666
0.994503
0.996402
0.997308
0.997496
0.997395
0.996671
0.993754
0.983833
0.952243
0.844047
0.619192
0.424922
0.278323
0.175297
0.106726
0.0630374
0.0361709
0.0201781
0.0109506
0.0057833
0.00297323
0.00148779
0.00072472
0.000343447
0.000158374
7.09748e-05
3.09256e-05
1.3069e-05
5.36166e-06
2.12502e-06
8.14606e-07
3.00556e-07
1.03385e-07
0.607211
0.687643
0.737518
0.748742
0.746077
0.735314
0.704372
0.636509
0.564092
0.511718
0.485343
0.470302
0.465152
0.466095
0.470476
0.481476
0.497725
0.512185
0.521687
0.525866
0.526657
0.525131
0.524131
0.525439
0.52921
0.537909
0.559317
0.584886
0.591185
0.584292
0.564495
0.541716
0.488006
0.445891
0.604947
0.747288
0.772542
0.789879
0.806534
0.820223
0.826022
0.82834
0.829082
0.827367
0.820468
0.806155
0.7964
0.793566
0.793103
0.793471
0.795809
0.800414
0.80198
0.802102
0.799198
0.7901
0.775485
0.751652
0.726741
0.711885
0.704913
0.702142
0.702028
0.706052
0.715277
0.726183
0.739895
0.756775
0.772328
0.78114
0.787718
0.794723
0.799964
0.804129
0.810573
0.814842
0.816723
0.819097
0.822463
0.823864
0.824744
0.825945
0.826539
0.827132
0.827704
0.828233
0.829229
0.831256
0.833575
0.834583
0.834683
0.833354
0.830684
0.825829
0.818618
0.814429
0.81326
0.817094
0.826015
0.836988
0.848489
0.862957
0.884259
0.911129
0.93868
0.9585
0.969634
0.975523
0.978014
0.977283
0.971159
0.964327
0.960005
0.954764
0.944242
0.928598
0.911678
0.897854
0.889462
0.886168
0.88586
0.887501
0.896292
0.922267
0.948865
0.968209
0.980537
0.986803
0.988726
0.988504
0.984575
0.963443
0.915345
0.883431
0.868421
0.864321
0.864756
0.871373
0.899191
0.933
0.955936
0.970019
0.97787
0.982147
0.984898
0.987297
0.989815
0.992418
0.994791
0.996637
0.997796
0.99829
0.998359
0.99822
0.997331
0.99363
0.98012
0.933221
0.774391
0.550856
0.37269
0.241249
0.150078
0.0901165
0.0524132
0.0296035
0.0162607
0.00868814
0.00451416
0.00228041
0.00111938
0.00053382
0.000247094
0.000111006
4.83239e-05
2.0384e-05
8.3086e-06
3.27005e-06
1.24182e-06
4.41352e-07
0.716273
0.742295
0.755196
0.752577
0.73752
0.690617
0.588632
0.511441
0.475423
0.457503
0.446996
0.439543
0.432026
0.429404
0.429264
0.433608
0.448647
0.467804
0.484825
0.496382
0.503771
0.506679
0.507597
0.509025
0.512191
0.516942
0.527395
0.537808
0.558988
0.564351
0.554751
0.53392
0.468505
0.501318
0.731042
0.782631
0.798643
0.812524
0.819903
0.824268
0.825806
0.826227
0.822305
0.814287
0.800919
0.790928
0.786669
0.784422
0.782652
0.781636
0.781959
0.783738
0.784055
0.776752
0.757885
0.727453
0.70678
0.696968
0.691616
0.690144
0.691794
0.701384
0.708375
0.717155
0.737609
0.752036
0.757905
0.763412
0.765602
0.764532
0.760603
0.755679
0.750801
0.748939
0.750914
0.757117
0.761462
0.765302
0.776238
0.783909
0.788598
0.797494
0.80282
0.807444
0.812405
0.817062
0.822988
0.830001
0.836497
0.840852
0.843806
0.845747
0.846948
0.847996
0.849821
0.852299
0.855052
0.857247
0.856341
0.854064
0.85099
0.851136
0.857054
0.8669
0.882319
0.909524
0.942322
0.966811
0.978684
0.98372
0.985211
0.98371
0.976626
0.968939
0.961079
0.949967
0.935093
0.919197
0.905753
0.89693
0.892867
0.892037
0.892757
0.898181
0.919491
0.947848
0.968385
0.981781
0.989139
0.991924
0.992144
0.99043
0.979867
0.940867
0.901187
0.880321
0.872837
0.872068
0.874265
0.887735
0.922267
0.950521
0.969483
0.980895
0.987025
0.990089
0.991824
0.993247
0.994711
0.996182
0.997457
0.998343
0.998784
0.998887
0.998838
0.998404
0.996366
0.988343
0.958906
0.851995
0.627871
0.434728
0.287533
0.182633
0.111777
0.0660846
0.0378132
0.0209735
0.0112872
0.00589721
0.00299113
0.00147225
0.000702668
0.000325072
0.000145622
6.31353e-05
2.64516e-05
1.06941e-05
4.17791e-06
1.53371e-06
0.726328
0.755188
0.757173
0.7445
0.694442
0.572054
0.501059
0.469779
0.454866
0.446199
0.437978
0.430435
0.419428
0.413551
0.400279
0.394805
0.396365
0.403243
0.420451
0.447251
0.466732
0.476668
0.483144
0.487667
0.489112
0.490564
0.497471
0.521049
0.535506
0.540237
0.542701
0.504836
0.476643
0.664266
0.776085
0.801351
0.811973
0.819235
0.822247
0.823514
0.823534
0.819761
0.813422
0.8051
0.792921
0.780532
0.776471
0.775938
0.775789
0.775048
0.771927
0.763559
0.746942
0.72015
0.688657
0.675861
0.670919
0.669879
0.671136
0.68034
0.690979
0.698178
0.707876
0.716644
0.721929
0.722387
0.711058
0.684943
0.653919
0.627196
0.605897
0.585592
0.573271
0.569227
0.569443
0.580886
0.596366
0.605611
0.628019
0.64769
0.662312
0.690146
0.718228
0.740612
0.762049
0.78364
0.806576
0.826076
0.841094
0.852461
0.857394
0.858283
0.856639
0.855473
0.855156
0.856746
0.860719
0.866943
0.876046
0.886706
0.896213
0.897536
0.886858
0.875177
0.874314
0.883662
0.902193
0.929863
0.960201
0.978971
0.986721
0.989319
0.989423
0.987224
0.981105
0.970663
0.955731
0.9383
0.921669
0.908834
0.901137
0.898025
0.897623
0.898755
0.906147
0.930496
0.955667
0.973581
0.985215
0.991766
0.994473
0.994876
0.994092
0.988783
0.965224
0.925672
0.901478
0.891206
0.889268
0.89013
0.8961
0.919548
0.948739
0.969087
0.982
0.989449
0.993314
0.995149
0.996141
0.996941
0.997732
0.998442
0.998949
0.999202
0.999257
0.999217
0.998891
0.997338
0.991062
0.96739
0.880699
0.665621
0.466547
0.312611
0.201114
0.124621
0.0745432
0.0431052
0.0241167
0.0130601
0.00684619
0.00347442
0.00170685
0.000811688
0.000373576
0.000166297
7.15378e-05
2.96944e-05
1.19216e-05
4.51472e-06
0.731304
0.760156
0.755458
0.717014
0.602803
0.51266
0.476601
0.460394
0.451675
0.443715
0.433977
0.421792
0.404282
0.390071
0.369339
0.356306
0.355204
0.359383
0.368949
0.386284
0.419493
0.445908
0.461905
0.47114
0.474519
0.4782
0.485831
0.494553
0.516973
0.531475
0.516779
0.49973
0.53416
0.747593
0.796471
0.810196
0.816348
0.82009
0.821536
0.821736
0.819969
0.816431
0.810741
0.803533
0.793195
0.780556
0.771985
0.767388
0.764939
0.762299
0.756533
0.741174
0.710542
0.66951
0.651367
0.64662
0.646061
0.649214
0.66032
0.673938
0.681507
0.685247
0.687154
0.682742
0.656517
0.609885
0.548128
0.490823
0.448367
0.418039
0.403403
0.397493
0.397019
0.407756
0.428619
0.451014
0.47516
0.501261
0.529173
0.551582
0.57345
0.593081
0.617746
0.663865
0.712087
0.754146
0.789549
0.82165
0.850286
0.874797
0.893916
0.905207
0.908406
0.903435
0.893322
0.880395
0.870033
0.868087
0.872609
0.884063
0.900102
0.917676
0.931334
0.935277
0.922662
0.904659
0.901889
0.913539
0.93563
0.960206
0.979833
0.988958
0.99205
0.992577
0.991699
0.988385
0.978944
0.961846
0.943364
0.92722
0.916036
0.910301
0.908625
0.908777
0.911484
0.924908
0.949276
0.968061
0.981162
0.989595
0.99443
0.996586
0.997052
0.996813
0.994936
0.987069
0.962053
0.938031
0.925107
0.920699
0.920462
0.922122
0.930827
0.953434
0.971971
0.984062
0.991217
0.995083
0.996983
0.997883
0.998405
0.998827
0.999179
0.999412
0.99951
0.99952
0.99947
0.999137
0.997625
0.991537
0.968387
0.88299
0.670302
0.472371
0.318427
0.206121
0.128473
0.0772449
0.0448527
0.0251682
0.0136516
0.00715828
0.00362807
0.00177688
0.000840598
0.000383986
0.000169351
7.20665e-05
2.96881e-05
1.15776e-05
0.737001
0.762132
0.744705
0.671862
0.550125
0.494135
0.470952
0.459158
0.451245
0.440366
0.421484
0.393263
0.359996
0.320162
0.281783
0.265016
0.263288
0.275385
0.292734
0.312465
0.344794
0.384997
0.419654
0.439839
0.451415
0.455399
0.454405
0.479431
0.50859
0.5148
0.506238
0.517089
0.673429
0.781204
0.804824
0.813074
0.817151
0.819063
0.819297
0.8186
0.817394
0.814803
0.810443
0.804157
0.794842
0.783263
0.772965
0.766231
0.760485
0.752613
0.740165
0.718967
0.678383
0.635525
0.624663
0.623452
0.626332
0.635505
0.648496
0.65599
0.657133
0.648446
0.623423
0.570346
0.482535
0.405819
0.359263
0.326698
0.307182
0.298726
0.29603
0.302325
0.318275
0.332829
0.357205
0.38822
0.417862
0.45272
0.487147
0.517967
0.546741
0.56681
0.580933
0.597027
0.623239
0.666032
0.723046
0.780346
0.826839
0.86631
0.895302
0.914599
0.926972
0.935043
0.940395
0.942574
0.937309
0.920238
0.899919
0.888587
0.893199
0.910297
0.931592
0.95012
0.961272
0.962315
0.94922
0.935096
0.93532
0.949855
0.968089
0.983126
0.991352
0.994384
0.995007
0.994548
0.992263
0.984689
0.969476
0.953767
0.940913
0.932704
0.929048
0.928345
0.928924
0.933238
0.948903
0.966439
0.97922
0.987923
0.993407
0.996554
0.998066
0.998524
0.998513
0.998105
0.996455
0.991216
0.977092
0.964323
0.956802
0.953903
0.953736
0.955337
0.963631
0.977719
0.98741
0.993232
0.996409
0.998009
0.998783
0.999189
0.999441
0.999604
0.999687
0.999709
0.999702
0.999624
0.999218
0.997474
0.990558
0.964326
0.867278
0.650899
0.459051
0.309708
0.20069
0.125179
0.0752622
0.0436542
0.0244392
0.0132087
0.00689285
0.003473
0.00168961
0.000793504
0.000359727
0.000157224
6.64374e-05
2.66117e-05
0.740045
0.762513
0.727324
0.629941
0.531451
0.489526
0.470365
0.461691
0.448896
0.428845
0.399172
0.360193
0.313115
0.259803
0.226091
0.212751
0.205934
0.20242
0.220872
0.243633
0.273626
0.309762
0.344408
0.372496
0.39813
0.418009
0.443227
0.480606
0.501926
0.50735
0.512168
0.571249
0.746253
0.794432
0.807592
0.813191
0.816604
0.817354
0.816978
0.81606
0.815255
0.813435
0.810525
0.80614
0.799453
0.790693
0.779619
0.769026
0.761105
0.752001
0.736652
0.709947
0.665612
0.613878
0.59925
0.596958
0.596609
0.601781
0.614928
0.618074
0.602711
0.550251
0.482096
0.408241
0.342399
0.293074
0.2645
0.245763
0.236525
0.232645
0.232232
0.241122
0.253603
0.273448
0.300757
0.336147
0.378401
0.420817
0.461837
0.502577
0.53686
0.560989
0.574796
0.583466
0.590885
0.600676
0.619024
0.654806
0.712617
0.783828
0.845561
0.883633
0.906555
0.922762
0.936708
0.948504
0.957505
0.962868
0.963777
0.952965
0.929926
0.917984
0.92535
0.945707
0.963956
0.976066
0.980754
0.979024
0.968405
0.96213
0.965625
0.978083
0.988025
0.993911
0.996258
0.996725
0.996442
0.994785
0.98927
0.980644
0.971455
0.96303
0.956794
0.95352
0.952625
0.952861
0.955665
0.966544
0.978521
0.98706
0.992691
0.996101
0.998001
0.998955
0.999334
0.999401
0.999358
0.999104
0.998298
0.99597
0.989135
0.981832
0.977298
0.975674
0.97582
0.978047
0.985289
0.991645
0.995512
0.997659
0.998766
0.999316
0.999594
0.999738
0.999808
0.999832
0.999833
0.999814
0.999694
0.999149
0.996906
0.988152
0.955188
0.83431
0.616997
0.433058
0.291194
0.188083
0.116881
0.0699518
0.0403456
0.0224337
0.0120293
0.00622159
0.00310454
0.00149472
0.000694622
0.0003114
0.00013511
5.57552e-05
0.744225
0.761025
0.712264
0.61047
0.52587
0.489825
0.476065
0.462741
0.445933
0.424312
0.392505
0.350602
0.299985
0.244671
0.218015
0.208777
0.2064
0.207781
0.221065
0.240934
0.263647
0.291722
0.322616
0.353666
0.386331
0.416474
0.448775
0.48637
0.50255
0.510407
0.540357
0.687543
0.775838
0.799557
0.807408
0.812568
0.815226
0.815739
0.815559
0.814806
0.81409
0.812721
0.81062
0.807758
0.803768
0.798226
0.790714
0.780558
0.76789
0.754971
0.739022
0.71315
0.671647
0.614899
0.57808
0.570911
0.5765
0.580302
0.57803
0.554058
0.51229
0.456008
0.385703
0.315442
0.269506
0.239907
0.218737
0.209017
0.204828
0.204088
0.208674
0.218617
0.234577
0.258043
0.286697
0.322572
0.367646
0.413756
0.457189
0.499918
0.536539
0.562831
0.579143
0.58724
0.59128
0.59491
0.598788
0.604322
0.615738
0.642874
0.707375
0.7756
0.814921
0.840298
0.867984
0.899888
0.932022
0.956485
0.970377
0.976915
0.978444
0.970631
0.953108
0.949029
0.960489
0.975734
0.985634
0.990359
0.990907
0.988126
0.982144
0.981144
0.985964
0.992527
0.996191
0.997665
0.997916
0.997687
0.996258
0.992882
0.99016
0.987763
0.984503
0.980024
0.975695
0.973169
0.972562
0.973157
0.977803
0.986117
0.991945
0.995623
0.997754
0.998891
0.999454
0.999702
0.999782
0.999788
0.999761
0.999631
0.999169
0.997466
0.993001
0.989472
0.987884
0.987694
0.988479
0.991886
0.995432
0.997554
0.998733
0.99935
0.999659
0.99981
0.99988
0.999906
0.999911
0.999907
0.99987
0.99969
0.998922
0.995851
0.984044
0.939989
0.788326
0.574664
0.400395
0.267451
0.17155
0.105787
0.0627649
0.0358481
0.019719
0.0104505
0.0053386
0.00262969
0.00124982
0.000573019
0.000254293
0.000107585
0.74628
0.759101
0.70476
0.602221
0.527159
0.499417
0.481664
0.465486
0.450132
0.429824
0.401755
0.365486
0.323951
0.278001
0.246981
0.233355
0.227907
0.227097
0.235896
0.254793
0.27381
0.299966
0.329439
0.360605
0.39511
0.429514
0.470611
0.493429
0.50739
0.529611
0.616892
0.747256
0.787504
0.799803
0.80607
0.809892
0.81164
0.812208
0.813236
0.813281
0.812874
0.811891
0.810367
0.808265
0.805738
0.802439
0.797902
0.79141
0.782063
0.767808
0.748053
0.72256
0.685976
0.635272
0.582115
0.555573
0.541908
0.538601
0.535489
0.510412
0.454384
0.389198
0.329654
0.27299
0.238779
0.21833
0.203039
0.197298
0.195852
0.197684
0.204115
0.215161
0.23249
0.259315
0.293247
0.33107
0.37999
0.436905
0.489144
0.534379
0.571458
0.594923
0.60827
0.613622
0.613123
0.610126
0.604408
0.603101
0.605271
0.611444
0.625906
0.659562
0.684546
0.697913
0.715008
0.751473
0.812932
0.886022
0.938368
0.968689
0.982023
0.986781
0.987047
0.97978
0.972297
0.9751
0.985115
0.991876
0.995243
0.99604
0.995475
0.992756
0.991124
0.992251
0.995793
0.997848
0.998634
0.998752
0.998597
0.997665
0.996171
0.995329
0.9949
0.9943
0.992775
0.989182
0.986243
0.985038
0.985012
0.986441
0.99121
0.995066
0.997401
0.998714
0.999392
0.999719
0.999864
0.999918
0.999929
0.999925
0.999894
0.99974
0.999073
0.996887
0.994957
0.994186
0.994121
0.994492
0.996144
0.997857
0.998863
0.999417
0.999706
0.99985
0.999918
0.999947
0.999954
0.999954
0.999943
0.999883
0.999613
0.998512
0.994197
0.977824
0.917241
0.734316
0.529228
0.365313
0.241641
0.15337
0.093496
0.0547804
0.0308683
0.0167379
0.00873965
0.00439683
0.00213318
0.000998158
0.000452032
0.000195464
0.749015
0.758333
0.701383
0.601139
0.541902
0.515354
0.496488
0.481945
0.467844
0.453975
0.437595
0.415847
0.38494
0.351509
0.321782
0.299399
0.288138
0.283503
0.283142
0.295871
0.313188
0.335473
0.367206
0.397672
0.434831
0.466594
0.485856
0.504576
0.526911
0.583959
0.714284
0.77173
0.790667
0.798233
0.801508
0.801909
0.801813
0.8026
0.807024
0.809717
0.810141
0.809888
0.809138
0.807897
0.805975
0.803625
0.800685
0.796604
0.790685
0.781768
0.767406
0.744314
0.712923
0.672138
0.61637
0.565459
0.539851
0.521784
0.506362
0.484304
0.447505
0.392738
0.336034
0.281382
0.246
0.226294
0.211788
0.200963
0.200692
0.205233
0.216331
0.237958
0.265233
0.308352
0.362489
0.4134
0.469209
0.531441
0.583143
0.616547
0.632612
0.639881
0.642173
0.641714
0.63907
0.632485
0.62636
0.618589
0.613578
0.613059
0.617685
0.632195
0.644429
0.649926
0.653596
0.660416
0.67727
0.725787
0.825071
0.913491
0.961808
0.983436
0.990919
0.992989
0.99194
0.987632
0.987156
0.991481
0.995693
0.99771
0.998275
0.99815
0.99715
0.996203
0.996355
0.997797
0.998885
0.999262
0.999312
0.999234
0.998828
0.998377
0.998155
0.998029
0.997817
0.99727
0.995528
0.99357
0.992588
0.992412
0.992804
0.994902
0.997203
0.998557
0.999301
0.999681
0.99986
0.999938
0.999967
0.999975
0.999974
0.999959
0.999879
0.999492
0.998389
0.997635
0.997416
0.997441
0.997738
0.99857
0.9992
0.999572
0.999779
0.999888
0.999943
0.999968
0.999977
0.999978
0.999975
0.999955
0.999861
0.999465
0.997886
0.991794
0.968918
0.884678
0.67765
0.483625
0.329793
0.215313
0.134756
0.0809202
0.0466614
0.0258575
0.013783
0.00707258
0.00349772
0.00166772
0.00076939
0.000339309
0.750126
0.758063
0.701265
0.615208
0.569579
0.544638
0.519564
0.494608
0.477355
0.464976
0.453945
0.443672
0.433868
0.422471
0.409594
0.398271
0.391021
0.387619
0.386618
0.391091
0.402079
0.413774
0.432989
0.447755
0.47104
0.486746
0.508491
0.534109
0.586816
0.697101
0.755387
0.779823
0.789039
0.792567
0.790111
0.788747
0.788391
0.788542
0.792683
0.798683
0.801609
0.803358
0.804422
0.804803
0.804294
0.802839
0.800579
0.797384
0.793147
0.787583
0.779435
0.766317
0.744422
0.711994
0.673533
0.622416
0.565837
0.531218
0.508662
0.486083
0.455061
0.41297
0.3672
0.318421
0.277995
0.256149
0.241647
0.235572
0.239585
0.251142
0.273179
0.310897
0.356407
0.411996
0.474577
0.540229
0.595119
0.625948
0.642652
0.650591
0.653828
0.65444
0.653766
0.652161
0.648252
0.63989
0.635052
0.633328
0.631183
0.628879
0.628031
0.630882
0.6392
0.643638
0.645916
0.648788
0.654305
0.665936
0.696951
0.790954
0.89879
0.957554
0.983947
0.993291
0.995988
0.996433
0.99543
0.994644
0.995814
0.997995
0.998996
0.999259
0.999219
0.998849
0.998498
0.998506
0.999004
0.999482
0.999637
0.999654
0.999619
0.999493
0.999409
0.999368
0.999314
0.999193
0.998826
0.997911
0.997136
0.996699
0.99658
0.996681
0.997452
0.998599
0.999287
0.99966
0.999848
0.999935
0.999973
0.999987
0.99999
0.99999
0.99998
0.999924
0.999652
0.999225
0.999039
0.999018
0.999068
0.99931
0.9996
0.999776
0.999879
0.999936
0.999967
0.999982
0.999988
0.99999
0.999989
0.999983
0.99995
0.999809
0.999234
0.996975
0.98835
0.956188
0.838521
0.622654
0.437806
0.293953
0.188804
0.116134
0.0684833
0.0387544
0.0210702
0.0110175
0.00554822
0.00269245
0.00126373
0.000567446
0.751211
0.759354
0.711985
0.645495
0.604285
0.578534
0.553213
0.539408
0.524111
0.504096
0.490245
0.480569
0.470935
0.465232
0.460221
0.45503
0.45274
0.451702
0.451601
0.455088
0.459946
0.467975
0.480455
0.49325
0.513246
0.532339
0.571933
0.62212
0.695456
0.745272
0.768377
0.778285
0.782082
0.778406
0.775236
0.774118
0.773706
0.773688
0.776621
0.781393
0.785075
0.787645
0.78984
0.792023
0.794233
0.795425
0.795178
0.793876
0.791278
0.787363
0.781838
0.774852
0.764016
0.746351
0.717592
0.684601
0.647002
0.595985
0.549372
0.512535
0.480191
0.448341
0.414062
0.379402
0.344459
0.324944
0.309948
0.312665
0.32314
0.346118
0.38623
0.43433
0.491899
0.552155
0.600553
0.6352
0.654069
0.663584
0.667379
0.666753
0.664802
0.662517
0.660738
0.658186
0.65369
0.647207
0.64178
0.640242
0.640887
0.644036
0.648247
0.650302
0.652111
0.653955
0.65431
0.654701
0.656374
0.662018
0.675673
0.705996
0.795911
0.902364
0.960044
0.985749
0.995004
0.997723
0.998477
0.998507
0.99831
0.998486
0.99924
0.999619
0.9997
0.999679
0.999554
0.999474
0.999481
0.999634
0.999792
0.99984
0.999845
0.999833
0.99981
0.999799
0.999785
0.999754
0.999666
0.999395
0.999089
0.998859
0.998711
0.998658
0.998683
0.998933
0.999404
0.999699
0.999858
0.999938
0.999974
0.99999
0.999995
0.999996
0.999996
0.999988
0.999943
0.999804
0.999715
0.999698
0.999707
0.999766
0.999862
0.999921
0.999955
0.999975
0.999986
0.999993
0.999995
0.999996
0.999996
0.999994
0.999982
0.999932
0.999723
0.998888
0.995637
0.983293
0.937457
0.781402
0.566351
0.391116
0.257817
0.162419
0.0979168
0.0565625
0.0313518
0.0166965
0.00855685
0.00422374
0.00201555
0.000920764
0.751764
0.76092
0.724202
0.681724
0.655361
0.631988
0.614865
0.60116
0.589283
0.579419
0.569682
0.564271
0.561776
0.558626
0.555786
0.554987
0.554757
0.554829
0.5565
0.561057
0.56567
0.570546
0.579412
0.5932
0.613687
0.638427
0.675157
0.704611
0.741429
0.758875
0.767383
0.77106
0.769499
0.765013
0.762982
0.762122
0.761695
0.761902
0.763666
0.766993
0.770631
0.773669
0.775679
0.777081
0.778409
0.78
0.78049
0.780642
0.780522
0.779899
0.778216
0.77442
0.768295
0.759537
0.744251
0.722856
0.695153
0.665719
0.637293
0.601956
0.565479
0.534128
0.501327
0.477394
0.462981
0.452177
0.451544
0.457726
0.4741
0.507773
0.544003
0.58589
0.622281
0.649797
0.667455
0.677967
0.68204
0.682398
0.681771
0.680017
0.675198
0.671616
0.669596
0.665949
0.662157
0.660095
0.659447
0.658605
0.657639
0.658061
0.664444
0.680266
0.69465
0.700855
0.699163
0.695821
0.691626
0.688255
0.688259
0.698902
0.738257
0.833653
0.922011
0.968844
0.98921
0.996533
0.998738
0.999379
0.999561
0.999597
0.999648
0.9998
0.999871
0.99988
0.999869
0.99984
0.999834
0.999846
0.999895
0.999926
0.999933
0.999934
0.999931
0.999928
0.999924
0.999917
0.999895
0.999818
0.999719
0.999648
0.999593
0.999555
0.999544
0.999561
0.999667
0.999813
0.999904
0.999954
0.99998
0.999992
0.999997
0.999998
0.999999
0.999998
0.999991
0.999961
0.99993
0.999922
0.999923
0.999935
0.99996
0.999977
0.999986
0.999992
0.999995
0.999997
0.999998
0.999998
0.999998
0.999998
0.999994
0.999975
0.999898
0.999584
0.998339
0.99352
0.975295
0.907762
0.713053
0.506503
0.342837
0.221231
0.136334
0.0803661
0.0453937
0.0246076
0.0128262
0.00643525
0.0031197
0.00144876
0.751867
0.76174
0.73004
0.706455
0.693816
0.68216
0.676315
0.670944
0.668285
0.667322
0.66781
0.671048
0.672739
0.674989
0.677879
0.679728
0.680495
0.680675
0.679679
0.679238
0.679102
0.679932
0.683278
0.691141
0.702033
0.711345
0.725288