/*--------------------------------*- C++ -*----------------------------------*\
| =========                 |                                                 |
| \\      /  F ield         | OpenFOAM: The Open Source CFD Toolbox           |
|  \\    /   O peration     | Version:  2112                                  |
|   \\  /    A nd           | Website:  www.openfoam.com                      |
|    \\/     M anipulation  |                                                 |
\*---------------------------------------------------------------------------*/
FoamFile
{
    version     2.0;
    format      ascii;
    arch        "LSB;label=32;scalar=64";
    class       volScalarField;
    location    "0.39";
    object      ddt0(omegaU);
}
// * * * * * * * * * * * * * * * * * * * * * * * * * * * * * * * * * * * * * //

dimensions      [0 0 -2 0 0 0 0];

internalField   nonuniform List<scalar> 
12225
(
-119.289
-1087.69
-3150.84
-6105.4
-9597.45
-13446.7
-17690.2
-22582.9
-28535.9
-35944.7
-45207.2
-56776.1
-71259.6
-89729
-113523
-143864
-184056
-229706
563.743
1692.76
2669.87
3165.66
3269.45
3174.11
3047.27
3107.96
3531
4399.55
5839.3
8000.94
11167.1
15684.1
21659.5
29412.6
41429.3
62244.8
91.0147
472.009
1090.44
1802.29
2466.27
3062.67
3616.44
4277.16
5205.56
6500.1
8319.65
10843.8
14375.9
19359.8
26152.1
35461.5
48687.4
66124.8
11.1606
84.4496
236.659
480.618
798.045
1146.5
1536.83
1996.88
2652.05
3512.94
4659.12
6192.11
8337.6
11471.7
15919.5
22226.2
31205.1
43976
0.976345
11.4679
40.3511
95.6432
181.094
292.869
436.779
619.672
810.406
1066.79
1400.56
1819.62
2367.04
3618.71
5327.62
7689.13
10980.3
15497.9
0.301073
0.217182
2.57971
10.5746
26.4579
52.2063
90.7254
147.069
216.23
318.977
473.993
707.793
1051.12
1224.16
1530.1
2014.5
2738.26
3757.95
0.376376
-0.624301
-2.41638
-3.9759
-4.49086
-3.11932
1.31904
10.6142
26.9486
55.2413
103.035
181.641
306.751
391.509
504.91
654.521
850.88
1108.4
0.431677
-0.314107
-2.1698
-4.74951
-7.8097
-11.0905
-14.207
-16.6689
-18.0523
-17.7255
-14.617
-7.06792
7.38938
26.757
51.8765
83.3125
121.954
171.269
0.44731
-0.0099916
-1.48341
-3.75774
-6.70677
-10.2075
-14.0717
-18.105
-22.2451
-26.5746
-31.2264
-36.3307
-41.7038
-47.7669
-55.2753
-64.5722
-75.6658
-87.6467
0.43797
0.222567
-0.878959
-2.74735
-5.2723
-8.35323
-11.8483
-15.6258
-19.646
-23.9835
-28.8104
-34.3743
-40.7703
-48.2408
-57.3577
-68.5779
-82.1119
-97.6386
0.422882
0.38839
-0.406144
-1.90436
-4.00253
-6.60924
-9.60305
-12.8678
-16.3507
-20.0785
-24.1443
-28.6918
-33.8254
-39.6612
-46.3763
-54.1233
-62.9417
-72.5787
0.406129
0.464669
-0.117729
-1.31245
-3.03309
-5.20411
-7.72113
-10.4735
-13.3919
-16.4626
-19.7138
-23.1968
-26.9493
-31.0035
-35.3914
-40.1068
-45.038
-49.4384
0.320561
0.419586
0.0183501
-0.891758
-2.2524
-4.005
-6.0611
-8.31594
-10.6855
-13.1201
-15.595
-18.0943
-20.5937
-23.0655
-25.4878
-27.7697
-29.477
-31.0104
0.200464
0.326155
0.115678
-0.497448
-1.4805
-2.78764
-4.34517
-6.05684
-7.82884
-9.58022
-11.2389
-12.7328
-13.9858
-14.9152
-15.4064
-15.2166
-14.6197
-13.1833
0.154444
0.280022
0.200412
-0.151156
-0.770541
-1.63234
-2.68065
-3.83235
-4.99298
-6.0631
-6.93781
-7.50586
-7.64867
-7.17021
-6.02828
-4.25529
-1.59623
2.12497
0.11713
0.203865
0.180548
0.0264082
-0.277781
-0.725905
-1.28232
-1.88457
-2.45233
-2.88901
-3.05704
-2.85262
-2.14306
-0.85525
1.19496
4.12318
8.0571
13.1029
0.0602151
0.102678
0.10051
0.0600112
-0.0235554
-0.14674
-0.285336
-0.402248
-0.445383
-0.35076
-0.0581609
0.548208
1.5821
3.1662
5.42408
8.46806
12.4058
17.3434
-0.00606774
-0.0108957
-0.0055345
0.0220973
0.087354
0.204107
0.382391
0.637837
0.986739
1.44745
2.04179
2.80143
3.77471
5.02866
6.63992
8.68112
11.2333
14.4074
-0.0754952
-0.133253
-0.117803
-0.0167326
0.19287
0.525289
0.98511
1.5635
2.23999
2.98515
3.76231
4.53081
5.25432
5.91413
6.52657
7.18229
8.07434
9.33855
-0.12437
-0.218175
-0.176304
0.0299918
0.421398
0.994181
1.72771
2.58341
3.51214
4.46231
5.38426
6.2328
6.96829
7.55905
7.9911
8.29326
8.59776
8.76189
-0.155613
-0.279278
-0.187227
0.175641
0.789068
1.61553
2.60453
3.68992
4.80177
5.87805
6.87089
7.75012
8.49031
9.0421
9.33966
9.1969
8.45601
7.28098
-0.225379
-0.334002
-0.113085
0.449745
1.2999
2.37782
3.61067
4.90995
6.18689
7.35973
8.35016
9.07921
9.4671
9.43637
8.9086
7.77741
6.07488
4.01412
-0.275666
-0.299496
0.102334
0.885235
1.97212
3.29141
4.74058
6.18851
7.50063
8.54714
9.20531
9.37377
9.00697
8.17308
7.03922
5.76973
4.78563
4.4806
-0.279979
-0.163434
0.464515
1.47413
2.7441
4.16065
5.56515
6.7988
7.76878
8.46995
9.00672
9.63247
10.7817
13.0702
17.1212
23.4229
33.7251
51.0076
-0.267284
0.0187925
0.707631
1.38006
1.82225
2.08107
2.43466
3.48459
6.14511
11.5842
21.1736
36.3623
58.5558
89.0464
128.877
174.299
230.428
301.205
-0.2402
-0.823136
-3.12818
-7.72902
-13.5006
-17.2452
-14.2329
1.15667
33.6376
87.6203
166.477
272.434
406.736
570.337
765.109
969.858
1202.6
1469.45
-1.20558
-14.6988
-40.668
-71.3729
-93.1434
-82.8139
-14.3864
133.787
371.724
706.117
1136.57
1658.26
2266.07
2957.07
3738.89
4650.26
5669.69
6832.26
-19.9224
-113.553
-263.339
-380.819
-368.444
-126.665
395.785
1200.9
2263.03
3529.67
4946.51
6467.58
8066.02
9736.5
11496.9
13377.7
15409.8
17660
-210.446
-671.925
-992.99
-894.596
-265.753
836.275
2298.96
3998.21
5831.09
7705.61
9551.88
11318.5
12978.6
14531.1
15997.9
17412.4
18809.2
20264.9
34.6793
420.067
1228.31
2286.34
3320.45
4058.69
4298.53
3937.95
2963.55
1436.62
-537.935
-2832.89
-5336.27
-7986.2
-10784.8
-13789
-17064.9
-20741.9
-16183.4
-19157.8
-24237.2
-28817.1
-33686
-39690
-45959.6
-51451.8
-56619
-62000.9
-67447
-72877.5
-78264.5
-83486.7
-88350.8
-92649.8
-96191.1
-98781.9
-100210
-100362
-99634.6
-98638.4
-97071.8
-94596.9
-91355.8
-87800.1
-84504.8
-82215.5
-80366.3
-65997.8
-48712.4
-29058.8
-7314.8
17030
45584.1
79712.5
118553
160298
203097
242850
274536
292737
293025
273845
237438
189009
136425
89586
33009.7
-17683.1
-52214.4
-73335.6
-84313.3
-86291.7
-79999.1
-66653.9
-51271.5
-35608.4
-21604.6
-11349.3
-6148.3
-7832.22
-16731.4
-31594.9
-53613.7
-80686.9
-111985
-146450
-183144
-221495
-261455
-303324
-347479
-394008
-440111
-474229
-484705
-486439
-474915
-452480
-423988
-387783
-353175
-349527
-390372
-476425
-535935
-546456
-652524
-712460
-782996
-854905
-919859
-972113
-1.00841e+06
-1.02753e+06
-1.03055e+06
-1.01796e+06
-989266
-944755
-885612
-813059
-725348
-621841
-504527
-369865
-213239
-33133.4
88108.3
217354
347090
473730
594315
705556
803941
886114
948800
988993
1.00577e+06
992967
947783
869693
757959
613113
435938
224343
-14227
-285203
-486654
-655338
-821388
-956806
-1.05224e+06
-1.10458e+06
-1.11295e+06
-1.07036e+06
-978912
-843893
-673345
-481499
-259085
-382.392
178042
299263
382081
437835
473890
495510
506993
511185
507232
490170
451635
382304
278903
155500
51237.5
22419.4
119617
382321
783681
1.17151e+06
1.28114e+06
897671
114734
-666599
-984323
-845104
-525113
-75054.4
391155
760392
900917
786524
494387
41580.1
-551114
-1.09091e+06
-1.44422e+06
-1.70685e+06
-68522
-52452.8
-50539.9
-50395.6
-49831.6
-48482.3
-46595
-44221.5
-41204.1
-37519.6
-33068.8
-27865.6
-22064.6
-15844.8
-9412.84
-2998.43
3161.68
8833.72
13765
17386.1
19135.3
19675.2
19521.2
18763.8
17373
15369
12812.9
9772.78
5766.29
-13989.9
-35737.6
-56851
-75118.4
-89303.1
-98806.7
-102257
-98451.6
-87945.8
-75394.3
-58264.1
-36743.7
-12222.7
13532
38184
58625.8
71095.6
72352.4
61701.5
38339.8
7860.33
-18366.1
-40856.4
-56445
-60980.5
-54885.1
-44670.5
-37929.2
-33359.9
-29870.8
-29008.8
-29716.6
-31171.2
-33054.9
-35125
-34196.5
-32223.4
-29643.6
-27298.1
-25976.5
-26165.1
-28023.3
-31295.9
-35362.3
-39756.4
-45774.9
-60173.2
-86210.6
-104824
-120585
-145541
-201956
-270246
-339024
-298466
-402624
-469661
-498199
-509078
-509145
-491791
-459866
-414646
-358305
-293496
-223229
-150815
-73330
5145.6
73600.7
131291
176450
207702
224240
222642
204326
170008
113926
34161.9
28710.7
23823.3
19149.3
14679.1
10427.6
6414.38
2633.55
-1062.77
-5410.24
-12813.4
-27990.7
-30892.7
-28613.8
-26749.9
-25445.1
-24639.8
-24144.2
-23268.2
-18650.4
-10738.5
-8224.55
-1854.68
2667.52
910.292
-19931.8
-58934.2
-71152.8
-82111.4
-96804.9
-113533
-129711
-146085
-183999
-220119
-188907
-137632
-82843.9
-30533
17288
61190
103729
145142
185116
223158
259065
291226
310510
296470
230266
118109
370.25
-80274.8
-152669
-150940
-117578
-135374
-148981
-20920.6
205058
350916
404409
400141
278840
74511.8
-95115
-112678
-120015
-124853
-144638
-195145
-322440
-400279
-136830
-81890.9
-66766
-59678.3
-54235.8
-48531.2
-42227.6
-35374.7
-27658.9
-18844.5
-8971.52
1820.9
13290.2
25077.1
36718.1
47672
57409.8
65505
71666.5
75700.3
77643.7
77679.2
76104.4
73266.5
69397.8
64668
59253.9
53322.8
47039.6
40496.2
31902.8
21058.1
7840.29
-7876.32
-25763.8
-45273.4
-64164.1
-80152.4
-92494.7
-100595
-104657
-102720
-93438.8
-76164.4
-51235.5
-20752.8
11130.2
38823
56257.7
60392.1
53991.6
41770.8
30262.6
23893.9
20270.7
18082.8
13609.8
5784.08
-4326.78
-15631.3
-27316.3
-38617.5
-46341.4
-49371.4
-50405.1
-49995.6
-48637.9
-46695.2
-44453.4
-42092
-39688.4
-37151.3
-34328.2
-31279.1
-29160
-32206.3
-41874.9
-58111
-83639.3
-77494.9
-58416.4
-208322
-288013
-316647
-341349
-354308
-349350
-329524
-297000
-254292
-204935
-152762
-101557
-54673.4
-14192.6
18286.1
40435.7
50919.4
50464.9
42392.2
29681.5
14422
-898.573
-14386.4
-24745.5
-31892.2
-35732.5
-32968.9
-29713.3
-26484.8
-23164.9
-19698.5
-16013.1
-12076.7
-7847.77
-3262.69
1615.73
6642.98
11829
16652.2
20632.4
23525.9
25178.7
25742.7
25736.1
27783.1
32909.4
26619
25398.5
26638.2
28980
31544
34983.3
39162.5
43374.1
46028.4
47277.4
47950.8
48575.5
49334.2
46974.8
14474.9
-10131.6
-24173.5
-30836.4
-33261.8
-32867.9
-29734.4
-22776.9
-9945.44
11528.5
43485.6
85732.4
133994
176444
192219
158518
67616.9
-60308.7
-188199
-281530
-314009
-278097
-170163
30299.8
293511
394015
339201
221680
81872.9
-34135.7
-93633.9
-107904
-108530
-98637.6
-74556.8
-40464.7
-10075.7
8129.76
14805.9
-206811
-101934
-70647.9
-55212
-43967.5
-33587.6
-22780.1
-10957.8
2188.38
16936.5
33181.2
50454.6
68049.3
84990.4
100229
112728
121832
127342
129445
128585
125512
121114
115794
109830
103495
96914.7
90110.4
83041
75631.8
67793.2
59533.5
50366.5
40266.5
29108.8
16578.2
2229.33
-14141.4
-32212.2
-51182.1
-69842.1
-86804.1
-100074
-107260
-105812
-93598.6
-69906.6
-36476.7
2104.21
39076.3
67876.4
85160.8
91633.2
91086.6
87092.5
80175.9
64193.4
38448.8
6663.55
-25762.8
-55656.4
-77545.4
-85534.2
-87960.7
-86047.8
-81516.6
-75299
-67530.2
-58388.3
-48121.9
-37240.9
-26263.5
-15494.8
-4823.51
5867.21
19709.2
48424.2
98057
140891
61319
-92293.5
-146488
-198524
-233714
-251414
-258132
-252506
-234642
-206901
-172287
-134250
-96340.7
-61922.7
-33666.7
-13068.8
-313.317
5357.28
5467.94
2223.89
-2134.66
-5915.52
-8259.43
-8877.12
-7844.87
-5506.88
-2181.76
1633.71
4548.78
7235.28
9746.19
12245.3
14889
17900.9
21589.4
25944.1
31111.1
37224.8
44288.2
52199.7
60688.6
69311.6
77488.4
84501.7
89886.7
92793
93589.8
95447.6
85804.2
79427.4
72613
65959.2
59697.1
54958
52569.1
52069.9
52500.2
52595.5
51207.2
48779.5
46465.4
45724.6
47556.4
50927
52570
53016.3
51217.5
46371.7
38176.9
27095.4
14773.4
4216.75
-592.349
4044.23
19858.1
44404.4
68675.5
76844.6
51686
-15122.8
-115101
-223715
-308121
-334423
-272586
-103479
152059
372334
356985
207515
80857.1
-10373.9
-55804.7
-72675
-81922
-84013.9
-77060.6
-57145.8
-28379
-116.868
24662.5
43823.9
-273596
-114921
-67415.1
-43745.2
-26864.3
-11742.3
3816.14
20994.8
40377.3
61906.8
84765
107421
127997
144363
155336
160293
159650
154490
146286
136608
126505
116796
108051
100508
94208.4
89063
84877.8
81378.4
78227
75038.6
71393.1
66406.3
59619.8
51110.5
41022.5
29431.2
16243
1228.32
-15776.5
-34556
-54268.5
-73279.2
-89187.5
-98978.9
-99411.4
-87866.4
-63592.1
-28755.7
11364.8
49627.3
79536.6
97380.2
102579
96304.7
80119.7
56243.9
10759.4
-51519.7
-98699.7
-121105
-125405
-125066
-120549
-114237
-106615
-96362.8
-83143.7
-67690
-50575.9
-31630
-8759.67
20691.6
58651.9
101469
159981
178441
115300
41834.2
-38283.4
-112497
-153529
-184392
-203326
-210041
-205742
-191188
-168371
-140030
-109279
-79303.8
-52944.9
-32245.3
-17982.4
-9552.57
-5433.53
-3801.18
-2969.59
-1734.98
468.716
3664.8
7575.88
11797.5
15867.5
19342.4
21995.4
23829.4
24778
25367.3
25799.6
26291.7
27051.4
28275.5
30172
32983.1
36981.5
42417.5
49538.7
58506.4
69125
81313.9
94348.2
106833
118962
126790
134013
132467
129909
124063
115977
106646
97002.9
88201.8
81127.1
76000.9
72707.9
70714.8
68404.8
63946.4
57230.4
49155.7
41781.5
37892.1
40023.1
46950.6
54856.7
61479.7
64518
62488.2
55192.7
43995.7
31699.4
21798.7
17035.4
17321.9
17600.5
7298.51
-26327.9
-90636.9
-179588
-271723
-336394
-339635
-248326
-48313.7
208053
362416
291392
126498
32287.4
-16076.4
-37181.6
-46526.2
-54805.9
-58711.3
-55267.6
-42116
-23733.9
-1295.51
21158.2
40220.8
-336079
-124701
-59022.1
-27863.3
-6175.21
13502.4
34271.8
57506.9
83305.5
110607
137248
158800
172818
177117
172673
161239
144860
126114
107276
89764.1
74687.7
62526.7
53375.3
47028.7
43109.8
41218
40981.7
42041
44036.7
46611.9
49370.4
51160.6
51384.4
49606.7
45576.1
39205.4
30506.6
19471.7
5996.27
-10015.4
-28334.8
-48023.4
-67206.5
-83094.7
-92234.2
-91105.5
-77226.2
-50577.9
-14769.2
23039.2
54133
71112.6
69923.9
51067.2
19880.1
-24396.7
-78429.4
-127650
-156485
-162320
-158625
-152965
-142694
-136868
-129366
-117277
-101865
-81632.5
-52093.4
-10627.5
36031.9
74109
100910
118372
113106
79892.7
21072.3
-38696.5
-92282.3
-135323
-163409
-181080
-187663
-183527
-170043
-149164
-123490
-95876.4
-69237.5
-46109.3
-28080.3
-15506.4
-7515.21
-2521.15
1163.29
4776.94
8996.64
13964.3
19340.1
24539.2
29264.5
33241.9
36289
38466.4
39812.4
39706.1
39033.4
38004.8
36781.3
35540.5
34459.6
33717.5
33449
33965.2
35537.1
38549.3
43515.4
50918.6
60797.1
73466.9
88869.5
103742
121395
132339
142022
148111
150109
147978
142376
134253
124651
114729
105572
97940.2
92312.2
88797.4
86716.3
84037.1
78823.8
70330.1
59002.4
47009.7
37577.3
36074.6
39764.8
47140.3
55589.2
62202.4
64669
61925.1
54415.9
43807.3
32012.2
19544.7
3650.21
-22542.1
-68025.2
-138107
-226777
-312681
-363695
-346092
-231864
-18681.3
221905
327024
234056
100595
26828.4
-1191.16
-13678
-21020.2
-27615
-32849
-33994.6
-30155.5
-18478.1
-575.088
18857.2
35945.2
-393784
-131846
-41755.1
-6957.76
18235.7
42780.3
69197
97958.4
127006
151949
175569
184602
180926
165056
140845
113446
84838.7
58109.3
35323
16451.2
2249.04
-7404.25
-13102.6
-15547.6
-15507.2
-13587.6
-10188.3
-5635.09
-253.072
5663.21
11804.8
17887
23351.3
27554.7
29870.5
29811.6
27070.9
21459.4
12812.1
956.998
-14137.6
-32019.5
-51380.5
-69873.3
-84191.9
-90474.2
-85284.2
-67377.2
-39778.8
-10572.6
9070.83
8715.48
-15758.8
-65792.1
-136695
-199939
-223174
-215414
-189115
-181230
-175603
-166605
-156178
-144707
-130946
-114818
-97062.8
-77849.7
-55504.3
-27641.7
5068.75
34977.8
51660
49831.3
29337.3
-5772.38
-48538.8
-89767
-124794
-150779
-166027
-171141
-166287
-152692
-132369
-107794
-81684.7
-56712.4
-35211.6
-18564.1
-6784.17
1140.7
6790.09
11699.9
16958.9
22809.5
29089.9
35638.2
41914.4
47394.3
51824.4
55067
57147.9
58218.6
57895.9
57020.4
55573.6
53767.6
51729.7
49579.3
47413.1
45303.1
43383.9
41842
40945
41103.3
43002.5
47597.7
54907.6
65415.3
81086.2
95800
111753
126747
139404
148657
153832
154738
151779
145752
137628
128458
119286
111041
104500
100203
98156.7
97436
95721
91121
82379.9
69731.6
55002
43579.3
37369.4
36952.2
41417
48498.7
55328.4
59309.8
58796.5
53304.1
43064.7
27895
5695.01
-28510.8
-81497.4
-157386
-250275
-338058
-385080
-355673
-227753
-11447
209885
287269
200600
93438
37796.4
17847.8
9564.56
4395.93
-1869.62
-9839.8
-17029.4
-18291
-11649.1
1873.65
18072.5
32921.6
-453130
-106517
-8762.23
18897.3
44918.5
73388
104372
135546
162217
179047
182421
171376
147795
115308
77267.8
43192.7
11751.6
-14373
-33690.5
-48401.2
-58362.6
-63218.4
-64280.1
-62454.7
-58704.5
-53694.1
-47672.6
-40780.9
-33302.4
-25615.1
-17889.4
-9641.76
-1960.92
4711.26
9948.28
13324.1
14424.9
12863.3
8264.26
261.402
-11408.9
-26658.9
-44707.8
-63786.7
-81009.6
-92599.2
-94944.5
-86857.1
-72495.7
-62771.3
-73068.8
-118303
-195814
-268090
-294830
-242633
-211400
-195467
-179035
-163024
-145871
-128686
-112791
-98669.9
-85917.9
-73692.7
-60709
-45859.2
-28826.6
-10837.4
4828.3
13412.9
11123.6
-2773.54
-26037.3
-54873.7
-84794.3
-111483
-131960
-144287
-147550
-142045
-128678
-109204
-85927.8
-61375.4
-37987
-17880.5
-2413.1
8378.2
15794.9
21484.9
26366.2
31498.9
37506.4
44168.1
51027.7
57708.9
63632.3
68417.3
71910.5
74158.1
75282.8
75457.5
74850.3
73644.4
71904
69790.3
67388.4
64789.5
62070.1
59120.3
55986.6
52773.1
49703.5
47216
45976.8
47278.8
51847.9
59416.3
70639.2
84736.1
100499
116324
130560
141855
149292
152471
151577
147269
140464
132169
123395
115123
108279
103659
101704
102176
103563
103486
99913.7
91450.2
78065.5
62840.7
49421.2
40283
36646.4
38101.2
42823.1
48209.1
51647.2
51094.9
45151.8
32464.6
10633.2
-24713
-79431.1
-157453
-253808
-346727
-397583
-366732
-234966
-22408.9
181747
250325
182453
96989.6
52545.1
37092.9
32927.9
27518.8
18031.5
6738.62
-2756.44
-7394.23
-4804.96
4911.17
18198.9
30994.1
-448118
-80363
8405.4
38149.1
68317
100398
132397
159481
175389
175654
159638
130326
92937.7
53004.7
14913.9
-18549
-46045.1
-67160.6
-81025
-88698.5
-96132.3
-97193.8
-95181.8
-90794.9
-84873.4
-78077.8
-70627.2
-62482.8
-53728.6
-44735
-35824.9
-26207.9
-17800.2
-10721.8
-5120.24
-1208.25
759.419
484.36
-2398.34
-8317.67
-17685.9
-30730.7
-47260.7
-66300.1
-85698.7
-102281
-113390
-120034
-130600
-161127
-224484
-307401
-345736
-277983
-240396
-201124
-170208
-141179
-112972
-85922.5
-60555.7
-37769.9
-18391.7
-2878.46
8734.89
16691.5
21373.6
23178.9
22377.9
18873.6
12144.8
1561.22
-13076.3
-31171.8
-51269.9
-71379.6
-89337
-103102
-111072
-112223
-106266
-93739.2
-75849
-54462.1
-31838.7
-10288.3
8208.91
22474.3
32471.1
38976.6
42798.1
46090.8
49845.1
54350.9
59716.9
65548.8
71421.8
76913.1
81619.4
85161.2
87460
88696.5
89094.2
88671.6
87612.8
86007.9
83938.2
81489.7
78644.1
75665.9
72617.5
69079.8
65124
60790.6
56078.5
51833.4
48401.3
46789.9
47912.3
52481.7
60829.9
72640
86906.3
102128
116634
128942
137948
143014
144054
141496
136106
128802
120560
112395
105357
100452
98470.6
99610.2
103147
106892
108546
105835
97343
83743.5
68130.3
53582.6
42676.2
36768
35700.1
37964.2
41203.7
42821.8
40372.3
31443.6
13002.6
-19374.3
-71367.3
-147337
-243962
-341371
-400128
-376384
-249964
-46914.6
143924
215698
171462
105481
68535.7
56208.4
52771.6
43990.6
31656.7
19361.2
8688.67
1809.72
1227.16
7718.38
18522.5
29640.3
-399601
-28987.8
23491.2
54764.6
87521.7
120108
148459
166224
167834
151880
121520
82616.7
41342.8
2417.52
-31434.2
-59109.1
-80488.2
-95958.4
-106214
-112091
-114487
-114169
-111555
-106885
-100434
-92603.8
-83853.4
-74537.9
-64840.4
-56276.7
-46363.9
-35333.8
-26810.3
-20047.2
-15211.8
-12394.5
-11615.6
-12862
-16206.7
-21906.9
-30433.5
-42430.6
-58542.7
-78794.2
-102115
-126950
-153624
-188265
-242221
-319729
-343633
-327794
-285213
-233501
-185183
-141426
-103739
-70717.8
-41725.8
-16643.1
4492.54
21534.3
34321.6
42768.1
46873.6
46696.7
42380.6
34237.3
22840.6
9085.41
-5877.66
-20871.7
-34946.4
-47461.8
-57982.2
-66104.6
-71250.9
-72691.1
-69760.9
-62026.7
-49531
-32872.1
-13182.8
7776.75
27918.3
45198.3
58225.4
67015.1
72019
73598.2
73472.3
73592
74837.8
77230.9
80582.3
84426.2
88243.2
91567.4
94247.2
96043.7
96893.6
97002
96725.1
95196.2
93370.4
91176.5
88678.1
85514.9
82245.4
79405.3
76294.1
72464.7
68117.8
63285.8
58088.4
52837.8
48119.2
44759.4
43742
45908.7
51673
60901.4
72844.4
86260.2
99689.4
111747
121316
127617
130307
129510
125718
119652
112185
104316
97184.5
91987.7
89817.9
91295.5
96186.1
102911
109010
111983
109539
100582
86780.4
70802.8
55609.2
43622
36124.7
33023.5
32964.1
33707
32543.2
26461.2
11876.6
-15893.6
-62650.3
-133385
-226720
-325873
-393124
-382048
-268766
-79671.6
100775
181268
161902
114661
84677.5
73587.8
67028.1
53900.9
40774.5
28851
17817.9
9285.08
6070.9
9835.18
18637.5
28550.7
-304280
-7266.3
34338.6
66685.1
99541
129737
151555
158783
148201
121745
85095.1
44855.3
6273.97
-27625
-55702.7
-77916.7
-94689.3
-106624
-114447
-118967
-120971
-121028
-119350
-115882
-110506
-103253
-94387.1
-84364
-73714
-62899.4
-52326.4
-43258.2
-33245.9
-26729.7
-22775.4
-21433.3
-22404.3
-25415.7
-30461
-37998.6
-48554.8
-62102.1
-81366.9
-107468
-140993
-180687
-223515
-275146
-323445
-347383
-330316
-287030
-231198
-178021
-132071
-95896.8
-70195.1
-53799.1
-45238.7
-43144.9
-46189.2
-53084
-62581.8
-73456.7
-84502
-94562.8
-102578
-107613
-108934
-106149
-99482.2
-90035.8
-79754.2
-70619
-63143.7
-55679.2
-46370.4
-34848.2
-20962.4
-4584.03
14118.1
34452.5
55564.9
75708.6
93006.9
105867
112868
114795
113879
109539
103615
99118.4
96330.3
95080.4
95093.8
95970.3
97112.6
98062.7
98576.5
98502.2
97796.1
96579.7
95196.4
92700.9
90187.3
87712
85221.5
82686.7
80028.3
77118.5
73849.2
70106.5
65811.3
60978.9
55730.4
50352.4
45361.2
41482.7
39564.5
40340.5
44197.5
51059.5
60380.2
71241.6
82530.3
93137.4
102115
108699
112375
112982
110689
105938
99412.2
92026.8
84936.2
79479
77001.5
78522.7
84228.9
93156.2
102895
110887
114481
111349
101740
87437.2
71097.6
55495.1
42812
34153.2
29352.7
27050.2
24934.9
19959.8
8309.46
-14881
-55551.4
-119255
-206463
-304044
-378062
-382004
-287542
-116483
54529.7
145467
149951
120909
97871.8
86495
76204.5
60679
47996.2
36651.7
25243.4
15088.3
9536.77
11101.5
18532.4
27783.4
-190814
1655.8
41635.4
73656
104139
129613
144923
144269
126812
96581.6
59972.6
22909.7
-10777.7
-39421
-62778.2
-81237.2
-95348.3
-105690
-112892
-117634
-120528
-121920
-121757
-119675
-115276
-108437
-99439.1
-88910.5
-77662.9
-66545.1
-56346.3
-47713.4
-41361.6
-36144.1
-33328.9
-33137
-35238.3
-39231.4
-45144.5
-53474.5
-65171.6
-81885.5
-105440
-136954
-176500
-222601
-271292
-313202
-334663
-325621
-288405
-235881
-182840
-139451
-110094
-96354.5
-97440.1
-110981
-134174
-164189
-198230
-233614
-267843
-298674
-324191
-342873
-353660
-355760
-349368
-335003
-313494
-285549
-251202
-213660
-152279
-90993.1
-40609.5
-2251.21
26188.5
53002.8
79752.1
105445
129270
149777
164795
176128
168022
163689
155751
145536
134437
124195
115771
109439
104984
101919
99725.3
98140.1
96519.5
94556.8
92220.9
89595.8
86578.1
83524.2
80801.7
78497.2
76504.1
74637.9
72680.6
70411.2
67647.8
64265.6
60238.9
55653.9
50714.6
45757.2
41258.9
37811.2
36027.2
36382.2
39079.2
44008.1
50780.6
58814.3
67375
75718
83166.6
89083.7
92872
94167.3
92870.9
89146.9
83457.9
76584.8
69629.2
63982.7
61167.2
62524.6
68665.9
79088.7
91782.7
104006
113154
115954
111626
100980
85987.5
69259.7
53358.2
40187.1
30603.2
24253.5
19600.2
14027.9
3878.71
-15661.5
-50528.8
-106630
-185971
-279058
-356978
-375635
-303094
-153560
6944.85
107153
133200
121590
105502
93328.2
80883.4
67098.3
55426.4
43878.7
31275.9
19169.2
11520.1
11586.4
18474.7
27740.9
-11297.2
3815.98
36655.8
67561.9
97309.4
120928
132462
129075
110408
81327.8
47977.1
15396.2
-13604.8
-38033.1
-57995.5
-74023.5
-86709.6
-96603.6
-104229
-110092
-114613
-117954
-119875
-119770
-116958
-111054
-102227
-91213.8
-79123.6
-67182.1
-56517.6
-47984.4
-42008.5
-38751.3
-38274.4
-40001.2
-40886.4
-43835.1
-49211.3
-57779.8
-70854
-90148.5
-117255
-152867
-195819
-241903
-283105
-308727
-309911
-284976
-241276
-192067
-150270
-123947
-116011
-125840
-150549
-186226
-228848
-274640
-320218
-362704
-399796
-429780
-451493
-464237
-467715
-461979
-447389
-424418
-393097
-358271
-287804
-206980
-138842
-64860.5
17208.3
98132
165081
201000
207211
201818
223021
221592
233658
238271
233150
223047
208572
191766
174186
157382
142472
130004
120011
112171
105968
100897
96474
92297.3
88120.5
83844.5
79543.3
75730.9
72650.2
70276.9
68438.4
66876.9
65281.9
63344.3
60819.8
57587.5
53686.9
49316.6
44804.1
40562.6
37038.7
34646.8
33687
34279.5
36367.2
39773.9
44265.1
49567.9
55282
61026.4
66413.6
70932.9
73997.3
75133.9
74074.2
70784.9
65544.9
58994.3
52143.1
46359
43245.6
44356.5
50677
62085.1
77117.4
92913.8
106995
115153
116349
110419
98466.5
82640.7
65497.3
49356.1
35804.9
25382.8
17424.3
10016.1
-17.9852
-17167.4
-47148.6
-95962.2
-166743
-253246
-332002
-363262
-313249
-187529
-39884.6
66359.7
110663
115337
106826
95739.4
83744.3
72382.4
61541.7
49386.8
35092.7
21053.3
11992.2
11578.4
18905.7
29032.8
184585
3475.68
22170.9
50864.5
77542.8
99147.8
111473
111159
98329
75786.2
46866.2
18815.7
-6161.91
-27151.7
-44298
-58228.4
-69685.3
-79353.8
-87772.2
-95296.7
-102083
-108025
-112667
-115209
-114709
-110437
-102201
-90489.7
-76377.2
-61281
-46665.7
-33813.8
-23640.6
-16609.4
-13078.9
-13245.5
-20658.8
-27735.1
-32687.2
-42333.4
-57894.9
-80757.6
-111847
-150758
-194596
-237200
-269713
-283247
-273040
-241600
-198669
-157203
-128153
-117050
-124138
-146270
-178741
-216606
-255420
-291541
-322285
-345988
-361975
-370419
-372107
-368160
-359726
-347676
-332439
-314219
-292069
-269624
-271186
-263703
-241261
-196783
-123042
-14592.6
128963
289625
448329
472554
459570
400977
335184
322878
312283
297083
276992
253557
228696
204242
181591
161595
144589
130492
118967
109503
101629
94851.4
88799.1
83250.5
78162.1
73706.6
69934.7
66854.7
64366
62245.9
60181.9
57841.9
54965.9
51453.9
47415
43157.2
39120.6
35772.6
33489.7
32453.2
32601.3
33684.6
35414.6
37595.1
40159.8
43079.6
46230.8
49473.4
52625.8
55244.7
56896.1
57094.1
55496.1
51964.4
46665.6
40126.3
33253.1
27340.8
23995.1
24878.5
31253.6
43339.8
60090.1
78987.6
97136.6
109884
116545
115727
107777
94284.5
77549.5
60001.4
43669
29771.4
18438.7
8538.89
-2429.66
-18404.1
-44661.7
-87036.8
-149377
-228117
-305039
-345869
-316998
-215952
-83802.1
24242
82717
102062
102114
94711.5
85182.6
75710.9
65029
51738.3
35771.3
20421.1
11099.3
11540.6
20413.3
32086.7
340630
2264.4
11334.2
36066.7
59633.6
79775
93085.4
96480.7
88937.6
72267.5
52157.3
30251.4
9300.6
-8180.56
-21951.1
-32749.3
-41639.7
-49779.8
-58101.7
-67059.5
-76541.6
-85921.9
-94176.5
-100044
-102251
-99773.6
-92070
-79224.7
-61954.8
-41542.2
-19624
1975.86
21453.8
37194.8
47918.9
52937.2
51580.4
39647.1
8581.25
-5917.62
-26143.4
-54371.7
-90635.1
-133268
-178002
-217756
-243989
-249621
-232866
-199042
-159104
-125254
-106108
-104370
-117819
-141693
-170677
-200018
-225999
-246077
-258900
-264261
-262976
-256650
-247358
-237295
-228499
-222653
-220307
-219757
-232609
-245987
-264352
-285211
-303212
-311236
-302151
-269839
-199492
-70316.1
74707.4
261630
456792
611479
681585
608320
485273
422117
378663
341067
305209
270560
237845
207972
181582
158916
139872
124101
111115
100376
91394.6
83780.6
77348
71940.3
67423.7
63685.5
60569.4
57843.2
55206.3
52347.7
49043.5
45255
41181
37232.1
33925.1
31722
30858.7
31233.1
32432.8
33927.6
35322.3
36486
37496
38468
39461.6
40454.7
41342.8
41848.9
41618.2
40286.8
37543
33221.5
27441
20651
13653.7
7637.12
4146.41
4877.17
11262.5
23840.9
41847.5
63364.2
84351.8
101820
113379
117497
113915
103616
88494.4
70873.1
52980.5
36494.4
22185.1
9650.33
-2877.26
-18646.6
-42322.8
-79348.4
-133904
-204494
-277581
-324758
-314328
-237391
-122869
-17434
50736.4
82630.8
91833.2
89899.6
83749.7
76039.1
65297.6
50793.7
33511.5
17721.4
9419.15
12124.4
23566.4
37002.9
441978
655.555
2719.26
23494.2
43759.2
62028.3
75856.9
82726.7
81145.4
72093.3
58913.5
44379.1
31796.7
18603.4
10067.6
5024.31
2205.16
-404.581
-4875.34
-12570.7
-23638.3
-36904.8
-50181.7
-60861.5
-66594.1
-65761.9
-57614.8
-42212.6
-20196.9
7177.65
38074
70109.6
100473
126175
144460
153344
151971
140537
124049
75934.1
22830.7
-12647.9
-55279.1
-102406
-148714
-186645
-208240
-208250
-187314
-152803
-116311
-88877
-76794.7
-80489.6
-96384.8
-119540
-145379
-170344
-191933
-208557
-219433
-224551
-224614
-220840
-214602
-207076
-199157
-191934
-186444
-184992
-174742
-172127
-182937
-207129
-238627
-266697
-281144
-284360
-280175
-275328
-269361
-236715
-149603
11664.8
238829
485055
668845
673334
591888
516027
448142
388262
335424
288738
247675
211938
181277
155359
133730
115848
101140
88943.4
79512
71914.8
65818.5
60937.5
56975.9
53589.1
50401.6
47081.1
43439.6
39520.6
35624.8
32246.5
29919
29005.9
29514.9
31038.9
32906.1
34482.6
35425.6
35712.4
35485.4
34880
33981
32834.9
31450.5
29781.3
27461.5
24286.9
20062
14664.9
8213.02
1101.38
-5974.62
-11964.8
-15444
-14749.4
-8353.41
4557.15
23494.9
47323.1
71148
92195.6
107991
116716
117522
110831
98100.7
81414
63015.1
44847.5
28155.6
13159.3
-1201.43
-17435.7
-39486.2
-72229.4
-119868
-182415
-250323
-300956
-305794
-251468
-155988
-57179
16259.5
58207
76425.6
80814.8
78528.3
72668.6
62015
46605.7
28667.6
13664
7962.36
14252.8
28815.4
43798
483872
601.86
-3559.73
13163.7
29842.3
45753.4
59550.1
69556.9
74098.3
72369.2
65866.8
57161.2
48575.5
47933.5
52790.5
57948.8
67313
78485.6
87272.1
89755
83736.1
69752.7
51131.3
33046
20851.3
18548.5
28157.5
49970.5
83157.9
126018
175974
229318
281028
324947
354619
364822
353325
321910
275908
220557
154694
53812.6
1561.68
-52646.9
-103290
-142606
-163162
-161062
-138711
-104906
-71589.3
-48906.7
-41600.5
-48831.6
-66631.2
-90485.1
-116571
-141848
-163792
-180363
-190415
-194266
-193841
-191880
-190421
-189490
-186699
-177910
-162084
-132712
-100030
-71236.6
-58570.4
-69748.6
-101585
-139326
-162205
-161319
-149933
-147572
-172312
-227861
-300717
-359378
-361461
-268062
-65470.4
214188
459332
559510
566175
528248
472511
412748
355458
303369
257391
217605
183704
155190
131476
112518
97156.1
84905
75230.8
67582.7
61406.8
56162.8
51370.8
46686.6
41983.1
37399.5
33318.1
30246
28615.4
28563.3
29800.4
31676.4
33446.3
34573.4
34849.6
34289.8
32962.3
30916.9
28228
25020.3
21423.4
17477.2
13008
7960.28
2231.77
-4211.62
-11222
-18452.5
-25326.7
-30969.1
-34138.5
-33279.4
-26820.3
-13716.9
5938.31
30516.3
56418.9
81300.2
101224
114118
118979
115844
105793
90642.2
72547.7
53567.3
35253.2
18294.4
2223.04
-14789.1
-35960.6
-65518.5
-107440
-162691
-224836
-276393
-292730
-258084
-181533
-92334.1
-17807.6
31167.5
57282.4
67967.2
69747.4
65725.1
55202.2
39278.6
21745.4
9238.5
7916.03
18858.2
36577.6
52404.5
479946
2926.42
-6804.15
5814.36
18600.8
30945.8
42215.7
51638.7
58483.2
61917
62461.3
61661
60956.4
63050.6