/*--------------------------------*- C++ -*----------------------------------*\
| =========                 |                                                 |
| \\      /  F ield         | OpenFOAM: The Open Source CFD Toolbox           |
|  \\    /   O peration     | Version:  2112                                  |
|   \\  /    A nd           | Website:  www.openfoam.com                      |
|    \\/     M anipulation  |                                                 |
\*---------------------------------------------------------------------------*/
FoamFile
{
    version     2.0;
    format      ascii;
    arch        "LSB;label=32;scalar=64";
    class       volScalarField;
    location    "0.17";
    object      s_0;
}
// * * * * * * * * * * * * * * * * * * * * * * * * * * * * * * * * * * * * * //

dimensions      [0 0 0 0 0 0 0];

internalField   nonuniform List<scalar> 
122250
(
0.999974
0.999972
0.999973
0.999974
0.999973
0.999972
0.999972
0.999969
0.999967
0.999962
0.999917
0.999799
0.999762
0.999758
0.99976
0.99978
0.999805
0.99986
0.999975
0.999972
0.999973
0.999975
0.999972
0.99997
0.999967
0.99995
0.999955
0.999944
0.999782
0.999687
0.99969
0.999703
0.99972
0.99975
0.999784
0.999841
0.999976
0.999972
0.999972
0.999975
0.999977
0.99997
0.999951
0.999892
0.999911
0.999813
0.999601
0.999661
0.999678
0.999701
0.999741
0.999762
0.999783
0.999835
0.999978
0.999971
0.999972
0.999975
0.999983
0.99998
0.999932
0.999849
0.99972
0.999813
0.999693
0.999725
0.999756
0.999809
0.999816
0.999777
0.999774
0.999786
0.99998
0.999971
0.999972
0.999975
0.999985
0.999986
0.999942
0.999873
0.999891
0.999925
0.999864
0.999843
0.999855
0.999863
0.999848
0.999794
0.999776
0.999782
0.999983
0.999972
0.999972
0.999975
0.999984
0.999988
0.999975
0.999976
0.999968
0.99995
0.999899
0.99987
0.999875
0.999872
0.999851
0.999805
0.99978
0.999779
0.999988
0.999973
0.999973
0.999976
0.999987
0.99999
0.999987
0.999984
0.99997
0.999952
0.99991
0.999877
0.999879
0.999878
0.999864
0.999812
0.999774
0.999771
0.999997
0.999976
0.999977
0.999981
0.99999
0.999994
0.99999
0.999986
0.999965
0.99995
0.999905
0.999875
0.999879
0.999891
0.999892
0.999859
0.999781
0.999773
1
0.999982
0.999984
0.999989
0.999994
0.999997
0.999995
0.999987
0.999929
0.99989
0.999855
0.999861
0.999871
0.99989
0.999897
0.999884
0.999789
0.999765
1
0.999992
0.999994
0.999996
0.999997
0.999998
0.999995
0.999975
0.999775
0.999736
0.99977
0.999826
0.999833
0.999857
0.999893
0.999894
0.999829
0.999762
1
0.999999
0.999999
0.999999
0.999999
0.999999
0.999984
0.99988
0.999641
0.999683
0.999719
0.999763
0.999747
0.999756
0.999844
0.999892
0.999879
0.999777
1
0.999999
0.999999
0.999999
0.999999
0.999998
0.999903
0.999683
0.999636
0.999662
0.999667
0.999681
0.999644
0.999623
0.999705
0.999856
0.999877
0.999808
1
0.999991
0.999993
0.999998
0.999999
0.999993
0.999711
0.999614
0.999666
0.99966
0.999608
0.999556
0.999546
0.999505
0.999537
0.9997
0.999796
0.99979
0.999998
0.999971
0.999976
0.999991
0.999998
0.999993
0.999736
0.999686
0.999803
0.999789
0.999672
0.999494
0.999421
0.999406
0.999457
0.999566
0.999659
0.999686
0.999987
0.999943
0.999946
0.999962
0.99999
0.999992
0.999897
0.999921
0.999937
0.999926
0.999886
0.999616
0.999306
0.999309
0.999439
0.999558
0.999628
0.999641
0.999942
0.999928
0.999932
0.999957
0.999982
0.999986
0.999963
0.999949
0.999918
0.999906
0.999904
0.999801
0.999319
0.999273
0.999516
0.99961
0.999613
0.999595
0.999921
0.99991
0.999915
0.999937
0.99994
0.999939
0.999921
0.999911
0.999861
0.999762
0.999774
0.999641
0.999201
0.99915
0.999194
0.99932
0.999538
0.999596
0.999907
0.999859
0.999865
0.999884
0.999899
0.999898
0.99989
0.999895
0.999744
0.999175
0.999299
0.999282
0.998911
0.998766
0.998897
0.998752
0.998194
0.998352
0.999953
0.999912
0.99994
0.999958
0.999974
0.99997
0.998919
0.998777
0.998837
0.998762
0.998502
0.997972
0.997469
0.997323
0.997283
0.99713
0.996965
0.996941
0.999994
0.999977
0.999987
0.999993
0.999994
0.999896
0.998925
0.998901
0.999055
0.999073
0.998933
0.998673
0.998658
0.998588
0.998594
0.99857
0.997978
0.997576
0.999998
0.999995
0.999997
0.999998
0.999998
0.999986
0.999544
0.999148
0.999205
0.999285
0.999306
0.999307
0.999153
0.998872
0.998643
0.998532
0.998353
0.998146
0.999988
0.999987
0.999991
0.999998
0.999998
0.999994
0.999874
0.999275
0.999341
0.999525
0.999561
0.999436
0.99955
0.999604
0.999715
0.999873
0.99992
0.999903
0.999981
0.999987
0.999987
0.999989
0.999992
0.999994
0.999946
0.99954
0.999577
0.999672
0.999793
0.999787
0.99985
0.999901
0.999926
0.999925
0.999924
0.999925
0.999979
0.999982
0.999981
0.999987
0.999993
0.999992
0.999972
0.999862
0.999879
0.99987
0.999847
0.999849
0.999878
0.999918
0.99992
0.999914
0.999913
0.999916
0.999974
0.999973
0.999977
0.999976
0.999974
0.999961
0.99996
0.999959
0.999957
0.999934
0.999913
0.999909
0.999921
0.999927
0.999919
0.999914
0.999915
0.99992
0.999971
0.999969
0.999971
0.999962
0.999952
0.999955
0.999957
0.999963
0.999962
0.999948
0.999937
0.999936
0.999935
0.999927
0.999915
0.999907
0.999903
0.999903
0.99997
0.999967
0.99997
0.999956
0.999953
0.999954
0.999954
0.999955
0.999949
0.999941
0.999937
0.999936
0.999931
0.999915
0.9999
0.999891
0.999876
0.999845
0.999966
0.999965
0.999968
0.999956
0.999956
0.999956
0.999955
0.999941
0.999926
0.999927
0.999928
0.999923
0.999909
0.999907
0.999898
0.999881
0.999841
0.999759
0.999965
0.999964
0.999966
0.999963
0.999957
0.999958
0.999955
0.999941
0.999934
0.99993
0.999923
0.999918
0.999937
0.999947
0.999922
0.999875
0.999781
0.999721
0.999963
0.999965
0.999967
0.999964
0.999957
0.999958
0.999952
0.999937
0.999957
0.999965
0.999967
0.999968
0.999967
0.999952
0.999876
0.999792
0.999727
0.999692
0.999975
0.999971
0.999972
0.999974
0.999973
0.999972
0.999972
0.999972
0.999971
0.999962
0.999861
0.999779
0.999787
0.999809
0.999785
0.999781
0.999804
0.999849
0.999977
0.999972
0.999975
0.999976
0.999971
0.999969
0.999957
0.999962
0.999966
0.99993
0.999666
0.999671
0.9997
0.999702
0.99971
0.999724
0.999751
0.999806
0.999979
0.999972
0.999975
0.999977
0.999971
0.99997
0.999907
0.999936
0.999949
0.999765
0.99955
0.999648
0.999672
0.999673
0.999693
0.999717
0.999736
0.999774
0.999983
0.999973
0.999975
0.999976
0.999977
0.99998
0.999883
0.999844
0.999761
0.999703
0.999537
0.999684
0.99973
0.99969
0.999691
0.999725
0.999742
0.999753
0.999987
0.999974
0.999975
0.999976
0.999981
0.999987
0.999911
0.99977
0.999701
0.999873
0.999584
0.999777
0.999836
0.999809
0.999742
0.999729
0.999751
0.99976
0.999995
0.999975
0.999977
0.999978
0.999984
0.999989
0.999975
0.99994
0.999914
0.999905
0.999701
0.999793
0.999852
0.999851
0.999781
0.999734
0.999747
0.999771
0.999998
0.999979
0.999979
0.99998
0.999988
0.999992
0.999985
0.999958
0.999932
0.999888
0.999741
0.999791
0.999853
0.999871
0.999839
0.999747
0.999736
0.999767
1
0.999983
0.999983
0.999985
0.999992
0.999994
0.999985
0.999933
0.99982
0.999752
0.999743
0.999789
0.999844
0.99988
0.999879
0.999789
0.999734
0.999752
1
0.99999
0.999992
0.999993
0.999996
0.999996
0.999977
0.99982
0.999695
0.999702
0.999729
0.999785
0.999834
0.999878
0.999887
0.999842
0.999743
0.999744
1
0.999997
0.999998
0.999998
0.999998
0.999998
0.999939
0.99974
0.99967
0.999726
0.999725
0.999773
0.999822
0.999863
0.999887
0.999877
0.999777
0.999741
1
1
1
1
0.999999
0.999997
0.999814
0.999647
0.999682
0.999768
0.999735
0.999746
0.999769
0.999796
0.99986
0.999882
0.999833
0.999735
1
0.999997
0.999998
0.999999
0.999999
0.999977
0.999597
0.999613
0.999716
0.99974
0.999716
0.999702
0.999703
0.999704
0.999753
0.999847
0.999841
0.999746
0.999999
0.999988
0.999991
0.999997
0.999999
0.999861
0.999535
0.999686
0.99973
0.999721
0.99968
0.999648
0.999641
0.99963
0.999626
0.999705
0.999767
0.999748
0.999995
0.999966
0.999973
0.99999
0.999998
0.999863
0.999597
0.999789
0.999805
0.99978
0.999688
0.999609
0.999558
0.99955
0.999555
0.999606
0.99967
0.999678
0.999971
0.999941
0.999944
0.999962
0.999986
0.999909
0.999813
0.999894
0.999909
0.999902
0.999847
0.999617
0.999444
0.999422
0.99948
0.999584
0.999626
0.999623
0.999936
0.999924
0.999931
0.999957
0.999969
0.999952
0.999909
0.999898
0.999868
0.999876
0.999891
0.999739
0.999348
0.999299
0.99933
0.999333
0.999413
0.999542
0.999913
0.999912
0.999918
0.99994
0.999919
0.99992
0.999841
0.99977
0.999578
0.999585
0.999727
0.999618
0.99929
0.999156
0.99912
0.999161
0.999303
0.999537
0.999877
0.99986
0.9999
0.999913
0.999912
0.999872
0.999801
0.999675
0.999185
0.999039
0.999283
0.999336
0.998962
0.998631
0.998583
0.998989
0.999164
0.998929
0.999928
0.999907
0.999939
0.999977
0.999944
0.999382
0.998665
0.998839
0.998939
0.998958
0.998896
0.998577
0.997957
0.997283
0.997102
0.997027
0.997189
0.997857
0.999982
0.999973
0.999985
0.999993
0.999983
0.999574
0.998691
0.998856
0.999059
0.99906
0.998948
0.998848
0.998776
0.998545
0.998455
0.998447
0.99831
0.997852
0.999999
0.999993
0.999995
0.999997
0.999997
0.999966
0.999387
0.99901
0.999177
0.999333
0.999415
0.999714
0.999743
0.99957
0.999257
0.998871
0.998622
0.998394
0.999988
0.999987
0.999993
0.999995
0.999996
0.999993
0.999871
0.999481
0.999315
0.999487
0.999663
0.999768
0.999675
0.999661
0.999746
0.999815
0.999821
0.999779
0.999982
0.999987
0.999988
0.999984
0.999986
0.999989
0.999955
0.999836
0.999653
0.999608
0.999778
0.99986
0.999832
0.999878
0.999913
0.999925
0.999928
0.999926
0.99998
0.999983
0.999983
0.999986
0.999987
0.999989
0.999982
0.999962
0.999935
0.999878
0.999846
0.999855
0.999874
0.999916
0.999936
0.999939
0.99994
0.999942
0.999974
0.999975
0.999973
0.999969
0.999971
0.999982
0.999981
0.999979
0.999973
0.999952
0.999939
0.999918
0.999921
0.999935
0.999937
0.999936
0.999938
0.999942
0.99997
0.999968
0.999968
0.999958
0.999955
0.999966
0.999973
0.999975
0.999973
0.999961
0.999951
0.999946
0.999943
0.99994
0.999934
0.999931
0.999937
0.999938
0.999968
0.999965
0.999966
0.999955
0.999953
0.999955
0.999956
0.999959
0.999956
0.999947
0.999943
0.999942
0.999941
0.999932
0.99992
0.999921
0.99993
0.999912
0.999964
0.999962
0.999962
0.999958
0.999958
0.999958
0.999956
0.999947
0.999942
0.999938
0.99993
0.999921
0.999915
0.999916
0.999918
0.99993
0.999924
0.999845
0.999963
0.999963
0.999964
0.999963
0.999962
0.99996
0.999959
0.999952
0.999953
0.999951
0.999945
0.999948
0.999961
0.999967
0.999967
0.99996
0.999919
0.9998
0.999964
0.999964
0.999965
0.999964
0.999963
0.999961
0.999961
0.99996
0.999962
0.999962
0.999963
0.999966
0.999969
0.999969
0.999967
0.999951
0.999868
0.999714
0.99998
0.999972
0.999974
0.999974
0.999974
0.999974
0.999974
0.999974
0.999974
0.99997
0.999884
0.999818
0.99983
0.99984
0.999848
0.999855
0.999862
0.999861
0.999982
0.999976
0.999979
0.999979
0.999977
0.999973
0.999972
0.999974
0.999974
0.999959
0.999716
0.999702
0.999764
0.999791
0.999794
0.999779
0.999761
0.999758
0.999987
0.999978
0.999982
0.99998
0.999974
0.999968
0.999949
0.999965
0.99997
0.999831
0.999548
0.999609
0.999646
0.999662
0.999686
0.99973
0.999748
0.99976
0.999995
0.999981
0.999985
0.999982
0.999975
0.999965
0.99987
0.999945
0.99991
0.999602
0.999518
0.999578
0.999603
0.99961
0.999635
0.99971
0.999765
0.999776
0.999998
0.999986
0.999988
0.999985
0.999981
0.999959
0.999778
0.999773
0.99967
0.999652
0.999532
0.999591
0.999634
0.999636
0.999642
0.999686
0.999769
0.999806
0.999999
0.999988
0.99999
0.999987
0.999986
0.999985
0.999868
0.999786
0.999762
0.999722
0.999605
0.999653
0.999701
0.999715
0.999696
0.999698
0.999736
0.999811
1
0.999991
0.999992
0.99999
0.99999
0.999991
0.999971
0.999885
0.999779
0.999734
0.999703
0.999736
0.999738
0.999746
0.999723
0.999704
0.999714
0.999772
1
0.999994
0.999996
0.999994
0.999995
0.999994
0.999975
0.999825
0.999726
0.999775
0.999749
0.999773
0.999762
0.999759
0.99975
0.999704
0.999705
0.999731
1
0.999998
0.999998
0.999998
0.999997
0.999996
0.999971
0.999715
0.999717
0.999839
0.999791
0.999794
0.999774
0.999775
0.999792
0.999736
0.999702
0.999716
1
1
1
0.999999
0.999999
0.999998
0.999934
0.999674
0.999786
0.999856
0.99985
0.999808
0.999779
0.999794
0.99984
0.999815
0.999716
0.999713
1
0.999999
1
1
0.999999
0.999997
0.999731
0.999676
0.999818
0.999853
0.999862
0.999818
0.999782
0.999789
0.999844
0.999843
0.999759
0.999706
1
0.999996
0.999997
0.999999
0.999999
0.999933
0.999583
0.999779
0.999827
0.999819
0.999836
0.999815
0.999762
0.999751
0.999793
0.999825
0.999789
0.999698
0.999999
0.999988
0.999992
0.999997
0.999999
0.999808
0.999671
0.999812
0.999821
0.999807
0.999791
0.999763
0.999695
0.999676
0.999696
0.999739
0.99975
0.999707
0.999989
0.999969
0.999976
0.999992
0.999998
0.999834
0.999792
0.999819
0.999821
0.999811
0.999785
0.999747
0.999631
0.999582
0.999604
0.999645
0.99966
0.999654
0.99996
0.999952
0.999955
0.999967
0.999986
0.999842
0.999847
0.999876
0.999876
0.999867
0.999819
0.999742
0.999592
0.99945
0.999459
0.999501
0.999498
0.999512
0.999937
0.999931
0.99994
0.999959
0.999922
0.999867
0.999871
0.999884
0.999888
0.999892
0.999879
0.999717
0.99943
0.999316
0.999274
0.999266
0.999287
0.999417
0.999909
0.999909
0.999925
0.999945
0.999932
0.999911
0.999785
0.999765
0.999699
0.999698
0.999753
0.999527
0.99921
0.999175
0.999195
0.999189
0.999217
0.999404
0.999867
0.999866
0.999903
0.999899
0.999821
0.999713
0.999624
0.999644
0.999301
0.999076
0.999214
0.999063
0.99903
0.999
0.998923
0.998832
0.999118
0.999496
0.999915
0.999904
0.999937
0.999968
0.999486
0.999045
0.999262
0.999001
0.998959
0.998987
0.998975
0.998976
0.999038
0.998629
0.997926
0.997725
0.998741
0.999308
0.999979
0.999972
0.999986
0.999988
0.99982
0.999441
0.998866
0.999
0.998969
0.999067
0.999086
0.998979
0.999118
0.998952
0.998329
0.998121
0.998224
0.998221
0.999998
0.999996
0.999994
0.999993
0.999992
0.999964
0.999324
0.999011
0.999071
0.999241
0.999299
0.999681
0.999821
0.999727
0.999489
0.998985
0.99872
0.998457
0.999989
0.999989
0.999991
0.999991
0.999991
0.999989
0.99982
0.99936
0.999373
0.999418
0.999472
0.999754
0.999836
0.999797
0.9998
0.999809
0.999806
0.999787
0.999981
0.999982
0.999985
0.999984
0.999989
0.999986
0.999928
0.999796
0.999629
0.999515
0.999604
0.999759
0.99985
0.999889
0.999899
0.999909
0.999913
0.99991
0.999977
0.999977
0.99998
0.99998
0.999984
0.999987
0.99998
0.999965
0.999927
0.999766
0.999729
0.999776
0.999866
0.999924
0.99994
0.999944
0.999943
0.999941
0.999974
0.999975
0.999976
0.999973
0.99998
0.999983
0.999979
0.999966
0.999955
0.99993
0.999871
0.99984
0.999867
0.99992
0.999939
0.999946
0.999949
0.999948
0.999973
0.999971
0.999972
0.999963
0.999962
0.99996
0.999957
0.999952
0.999949
0.99995
0.999942
0.999916
0.99991
0.999931
0.99994
0.999946
0.999949
0.999934
0.999972
0.999965
0.999965
0.999957
0.999955
0.999955
0.999953
0.999951
0.999948
0.999945
0.999946
0.999942
0.999939
0.999938
0.999938
0.999947
0.999948
0.999915
0.999966
0.999962
0.999966
0.999963
0.999963
0.999961
0.999954
0.999949
0.999946
0.99994
0.999934
0.999929
0.999925
0.999925
0.999943
0.999958
0.999955
0.999922
0.999964
0.999963
0.999967
0.999966
0.999965
0.999962
0.999958
0.999953
0.999955
0.999948
0.999941
0.999941
0.999952
0.999962
0.999966
0.999965
0.999954
0.999907
0.999965
0.999965
0.999966
0.999965
0.999963
0.999961
0.999962
0.999961
0.99996
0.999958
0.999957
0.999959
0.999965
0.999966
0.999965
0.999958
0.999923
0.999821
0.999984
0.999976
0.999976
0.999976
0.999976
0.999976
0.999975
0.999975
0.999974
0.999971
0.99993
0.99992
0.999939
0.999959
0.999961
0.999962
0.999961
0.999956
0.999985
0.999979
0.999982
0.999981
0.999981
0.999979
0.999975
0.999976
0.999976
0.999939
0.999791
0.999811
0.999905
0.999942
0.999946
0.999952
0.999957
0.999919
0.999987
0.999984
0.999989
0.999987
0.999983
0.999964
0.999925
0.99995
0.999951
0.999832
0.999741
0.999783
0.999872
0.999915
0.999912
0.999839
0.999797
0.999791
0.999991
0.99999
0.999993
0.999991
0.999983
0.999943
0.999864
0.99993
0.999882
0.999741
0.999748
0.999827
0.999856
0.99982
0.999796
0.999801
0.999833
0.999854
0.999994
0.999994
0.999996
0.999993
0.999982
0.999893
0.99973
0.999748
0.999628
0.999605
0.999599
0.999674
0.999693
0.999733
0.999807
0.999838
0.999858
0.999871
0.999996
0.999996
0.999997
0.999994
0.999987
0.999905
0.999708
0.999675
0.999639
0.999603
0.999578
0.999629
0.999762
0.999851
0.999865
0.999866
0.999868
0.999873
0.999998
0.999998
0.999998
0.999996
0.999991
0.999956
0.999829
0.999734
0.999698
0.999661
0.999654
0.99975
0.999862
0.999881
0.999867
0.999864
0.999867
0.999872
1
0.999999
0.999999
0.999998
0.999995
0.999989
0.999893
0.999712
0.999712
0.999782
0.999783
0.999833
0.999887
0.999887
0.999838
0.999834
0.999847
0.999867
1
1
1
0.999999
0.999997
0.999994
0.999923
0.99967
0.999754
0.999857
0.999855
0.999879
0.999904
0.999891
0.999781
0.999742
0.999764
0.999811
1
1
1
0.999999
0.999998
0.999997
0.999922
0.999668
0.999826
0.999871
0.999882
0.999898
0.999912
0.999879
0.999762
0.999693
0.999695
0.999732
1
0.999999
0.999999
0.999999
0.999998
0.999996
0.999766
0.999725
0.999859
0.999875
0.999893
0.999911
0.999915
0.99986
0.99976
0.999695
0.999655
0.999685
0.999999
0.999993
0.999995
0.999999
0.999997
0.999925
0.999607
0.999849
0.999876
0.999859
0.99987
0.999911
0.999917
0.999835
0.999757
0.999711
0.999643
0.999627
0.999994
0.999988
0.999991
0.999997
0.999996
0.999807
0.999758
0.999859
0.999853
0.999839
0.999815
0.999849
0.999857
0.999782
0.999715
0.999699
0.999643
0.99959
0.99998
0.99998
0.999985
0.999995
0.999995
0.999814
0.999834
0.999846
0.999841
0.99983
0.999796
0.999794
0.999787
0.999712
0.999634
0.999616
0.999574
0.999543
0.999961
0.999969
0.999977
0.999985
0.999986
0.999839
0.999857
0.999851
0.999847
0.999837
0.999806
0.999794
0.999779
0.999695
0.99952
0.999461
0.999432
0.999439
0.999942
0.999945
0.999963
0.999936
0.999882
0.999825
0.999857
0.99988
0.999886
0.999876
0.999836
0.999778
0.999718
0.999638
0.999467
0.999428
0.999404
0.999413
0.999905
0.999904
0.999918
0.999907
0.999881
0.999877
0.99985
0.999834
0.999845
0.999846
0.999802
0.999537
0.999365
0.999412
0.999447
0.99937
0.999336
0.999379
0.999865
0.99986
0.999865
0.999836
0.999813
0.999811
0.999748
0.999733
0.999764
0.999655
0.999383
0.999095
0.999005
0.999052
0.999047
0.999068
0.999276
0.999344
0.99991
0.999901
0.999892
0.999714
0.999507
0.99955
0.99971
0.999406
0.998908
0.999017
0.998939
0.998909
0.999131
0.999233
0.99901
0.998829
0.999241
0.999385
0.999976
0.999965
0.999986
0.99999
0.999903
0.999778
0.999872
0.999856
0.999654
0.999407
0.999346
0.999186
0.999423
0.999389
0.999165
0.998905
0.998901
0.999012
1
0.999995
0.999994
0.999994
0.999992
0.999986
0.999709
0.999606
0.999655
0.999615
0.999514
0.999568
0.999836
0.999807
0.99965
0.999087
0.998756
0.99843
0.999995
0.999993
0.999994
0.999994
0.999994
0.99999
0.999866
0.999658
0.99966
0.999669
0.999643
0.999662
0.999806
0.999861
0.999862
0.999829
0.999794
0.999682
0.999988
0.999983
0.999986
0.999983
0.999988
0.999972
0.999877
0.999731
0.999703
0.999718
0.999707
0.999715
0.999805
0.999875
0.999901
0.999899
0.999871
0.999844
0.999986
0.999978
0.99998
0.999981
0.999985
0.999979
0.999962
0.999929
0.999866
0.999778
0.999744
0.999759
0.999834
0.999889
0.99993
0.99994
0.99994
0.999925
0.999985
0.999975
0.999979
0.999971
0.999975
0.999979
0.999977
0.999968
0.999948
0.99989
0.999819
0.999818
0.999848
0.999907
0.999939
0.999947
0.999946
0.999922
0.999984
0.999972
0.999977
0.999965
0.999958
0.999967
0.999967
0.999962
0.999955
0.999938
0.999884
0.999867
0.999882
0.999931
0.999948
0.999951
0.999945
0.999902
0.999974
0.999966
0.999969
0.999964
0.999956
0.999961
0.999962
0.999955
0.999953
0.99995
0.999932
0.999917
0.999927
0.999944
0.999951
0.999953
0.999951
0.999938
0.999969
0.999962
0.999968
0.999966
0.999961
0.999962
0.999958
0.999953
0.999951
0.999947
0.99994
0.999936
0.999937
0.999945
0.999958
0.99996
0.999958
0.999947
0.999965
0.999965
0.999968
0.999967
0.999967
0.999965
0.999963
0.999957
0.999954
0.99995
0.999945
0.999945
0.999952
0.999961
0.999961
0.999958
0.999948
0.999922
0.999967
0.999965
0.999966
0.999966
0.999966
0.999964
0.999963
0.999961
0.999959
0.999956
0.999956
0.999957
0.99996
0.999962
0.999958
0.999932
0.999899
0.999865
0.999979
0.999975
0.999976
0.999976
0.999973
0.999972
0.99997
0.999968
0.999968
0.99996
0.999945
0.999948
0.99996
0.999962
0.999954
0.999949
0.99995
0.99995
0.99998
0.999976
0.999981
0.999982
0.999966
0.999953
0.999945
0.999954
0.999958
0.999934
0.999892
0.999897
0.999931
0.999952
0.999958
0.99996
0.99996
0.999956
0.999984
0.999978
0.999984
0.999986
0.99996
0.999891
0.99986
0.999913
0.999936
0.999936
0.999934
0.999929
0.999934
0.999952
0.999958
0.999955
0.999946
0.999925
0.99999
0.99998
0.999989
0.999991
0.999973
0.999861
0.999757
0.999824
0.999875
0.999933
0.999952
0.999958
0.999958
0.999959
0.999941
0.999896
0.999881
0.999865
0.999995
0.999985
0.999994
0.999993
0.999976
0.99985
0.999697
0.999667
0.99968
0.999829
0.999921
0.999945
0.999947
0.99991
0.999826
0.999824
0.999843
0.999851
0.999998
0.999991
0.999996
0.999994
0.999984
0.999895
0.999687
0.999612
0.999601
0.999658
0.999751
0.99979
0.999801
0.999785
0.999794
0.999813
0.999824
0.999831
1
0.999996
0.999998
0.999996
0.99999
0.999947
0.999769
0.999629
0.999602
0.999588
0.999615
0.999669
0.999726
0.999804
0.999858
0.999871
0.999874
0.999877
1
0.999999
0.999999
0.999998
0.999994
0.999987
0.999873
0.999663
0.99965
0.999656
0.999652
0.99971
0.999812
0.999881
0.999899
0.999899
0.999899
0.999899
1
1
1
0.999999
0.999996
0.999992
0.999902
0.999666
0.999711
0.999731
0.999787
0.999853
0.999891
0.999912
0.999915
0.999912
0.999911
0.999912
1
1
1
0.999999
0.999997
0.999995
0.9999
0.999673
0.999775
0.999806
0.999842
0.999888
0.999918
0.999928
0.999925
0.999919
0.999915
0.999915
1
0.999998
0.999998
0.999999
0.999997
0.999993
0.999783
0.999757
0.999867
0.999897
0.999896
0.999899
0.999921
0.999928
0.999882
0.999856
0.999874
0.999899
0.999998
0.999992
0.999993
0.999997
0.999995
0.999962
0.99971
0.999894
0.999918
0.999918
0.999906
0.999912
0.999936
0.999924
0.999806
0.999726
0.999727
0.999798
0.999992
0.999989
0.99999
0.999996
0.999989
0.999852
0.999845
0.999905
0.999899
0.999905
0.999878
0.999879
0.999899
0.999849
0.999714
0.999657
0.999646
0.999682
0.999983
0.999984
0.999986
0.99999
0.999941
0.999829
0.999898
0.999886
0.999849
0.999846
0.999795
0.999773
0.999778
0.999763
0.99967
0.999589
0.999564
0.999564
0.999975
0.999984
0.999986
0.999984
0.999947
0.999937
0.999939
0.999869
0.999845
0.999828
0.999763
0.999761
0.99977
0.999757
0.999667
0.999532
0.999505
0.999509
0.999959
0.999975
0.999981
0.999969
0.999934
0.99992
0.999905
0.999883
0.99988
0.999878
0.999829
0.999816
0.999814
0.999796
0.999742
0.999666
0.999559
0.999526
0.99993
0.999934
0.999941
0.999934
0.999931
0.999943
0.99993
0.999877
0.999874
0.999881
0.999879
0.999829
0.999812
0.99981
0.999727
0.999431
0.999395
0.999345
0.999904
0.999911
0.999912
0.999907
0.999903
0.9999
0.999782
0.999582
0.999763
0.999794
0.999709
0.999337
0.999069
0.999062
0.999006
0.999093
0.999276
0.998448
0.999913
0.999903
0.999901
0.999763
0.999741
0.999836
0.999834
0.999828
0.999739
0.999556
0.999231
0.999133
0.999137
0.999242
0.998927
0.99885
0.999302
0.999138
0.999967
0.999962
0.999989
0.99999
0.999976
0.999973
0.999973
0.999975
0.999943
0.999814
0.999469
0.999193
0.999282
0.999376
0.999403
0.999349
0.999457
0.999123
1
0.999995
0.999996
0.999997
0.999996
0.99999
0.999941
0.999874
0.999725
0.999707
0.999562
0.999488
0.999825
0.999835
0.999782
0.999213
0.998858
0.998497
1
0.999996
0.999995
0.999996
0.999995
0.99999
0.999961
0.999826
0.999631
0.99968
0.999651
0.999651
0.999768
0.999836
0.999808
0.999797
0.999739
0.999523
0.999999
0.999989
0.999988
0.999985
0.999985
0.999977
0.999941
0.999769
0.999672
0.999741
0.999763
0.999773
0.999854
0.99989
0.999841
0.999807
0.999785
0.99978
0.999998
0.999982
0.999983
0.999978
0.999981
0.999969
0.999944
0.999814
0.999799
0.999804
0.999808
0.999857
0.999912
0.99991
0.99992
0.99992
0.999865
0.999774
0.999996
0.99998
0.999982
0.999976
0.999978
0.999967
0.999966
0.999937
0.999903
0.999865
0.999845
0.999882
0.999913
0.99992
0.999936
0.999938
0.999896
0.999795
0.999988
0.999973
0.999979
0.999974
0.999974
0.999967
0.999963
0.99994
0.999925
0.999894
0.99988
0.999896
0.999912
0.999925
0.999942
0.999942
0.999931
0.999903
0.999975
0.999966
0.999971
0.99997
0.99997
0.999963
0.999959
0.999942
0.999941
0.999927
0.999903
0.999905
0.999914
0.999936
0.999948
0.999952
0.999953
0.999951
0.99997
0.999962
0.999967
0.999969
0.999966
0.999964
0.999961
0.99995
0.999948
0.999941
0.999926
0.999924
0.99993
0.999946
0.999957
0.999959
0.999959
0.999958
0.999968
0.999964
0.999968
0.999969
0.999968
0.999968
0.999966
0.99996
0.999951
0.999941
0.999937
0.999938
0.999943
0.999955
0.999959
0.999956
0.999946
0.999926
0.999968
0.999965
0.999965
0.999966
0.999967
0.999967
0.999966
0.999963
0.99996
0.999954
0.999955
0.999955
0.999955
0.999959
0.999958
0.999922
0.999885
0.999874
0.999977
0.999978
0.999979
0.999978
0.999975
0.999973
0.999963
0.999961
0.999964
0.999963
0.999963
0.999965
0.999965
0.999954
0.999946
0.999944
0.999945
0.999946
0.999978
0.999978
0.999984
0.999984
0.999976
0.999971
0.999939
0.999934
0.999952
0.999952
0.99995
0.999953
0.999959
0.999957
0.999952
0.999948
0.999947
0.999946
0.99998
0.999977
0.999985
0.999986
0.999972
0.999935
0.999884
0.999875
0.999932
0.999957
0.999959
0.999958
0.999959
0.999958
0.999946
0.999938
0.999938
0.999938
0.999984
0.999977
0.999987
0.999989
0.999978
0.999903
0.999865
0.999756
0.999893
0.999952
0.999957
0.999957
0.999957
0.999954
0.999901
0.999879
0.999893
0.999895
0.999988
0.999977
0.999988
0.99999
0.99998
0.999905
0.999858
0.999643
0.999841
0.999945
0.999954
0.999954
0.999952
0.999889
0.999815
0.999821
0.99985
0.999865
0.999992
0.999979
0.999992
0.999992
0.999985
0.99994
0.999873
0.999624
0.999688
0.999926
0.999947
0.99994
0.999858
0.999778
0.999779
0.999809
0.999827
0.99984
0.999997
0.999985
0.999995
0.999993
0.999989
0.999972
0.999927
0.999663
0.999591
0.999739
0.999809
0.99977
0.999733
0.999751
0.999789
0.999813
0.999825
0.999837
0.999999
0.999993
0.999997
0.999995
0.999993
0.999988
0.999952
0.999801
0.999629
0.999649
0.999685
0.999718
0.999764
0.999818
0.999852
0.999868
0.999868
0.999867
1
0.999998
0.999998
0.999997
0.999994
0.999992
0.999955
0.999839
0.999742
0.999762
0.999798
0.999831
0.999859
0.999872
0.99988
0.999885
0.999898
0.999904
1
1
0.999998
0.999997
0.999996
0.999994
0.999952
0.999862
0.999846
0.999862
0.999902
0.999911
0.99992
0.999929
0.999929
0.999916
0.999908
0.999911
1
0.999997
0.999993
0.999996
0.999995
0.999993
0.999906
0.999908
0.999936
0.99992
0.999913
0.999917
0.999929
0.99994
0.999942
0.999942
0.999937
0.999928
0.999995
0.999993
0.999991
0.999995
0.999994
0.99999
0.999915
0.999941
0.999948
0.999942
0.999933
0.999937
0.999947
0.999948
0.999942
0.999918
0.999914
0.999916
0.999992
0.99999
0.999991
0.999994
0.999994
0.99997
0.999947
0.999951
0.999924
0.999931
0.999944
0.999941
0.999942
0.999932
0.999844
0.999811
0.999833
0.999864
0.999987
0.999989
0.999991
0.999992
0.999992
0.999967
0.999969
0.999931
0.999849
0.999861
0.999842
0.999773
0.999768
0.999767
0.999718
0.99965
0.999651
0.999675
0.999983
0.999989
0.99999
0.999985
0.999982
0.999977
0.999975
0.99992
0.999843
0.999806
0.999716
0.999682
0.999713
0.999734
0.999719
0.99966
0.999624
0.999623
0.999973
0.999987
0.999985
0.999978
0.999966
0.999972
0.999966
0.999929
0.999918
0.999903
0.999783
0.999699
0.999733
0.999749
0.999723
0.999613
0.999552
0.999541
0.999954
0.999966
0.999966
0.999954
0.999952
0.999955
0.999947
0.999946
0.999934
0.999922
0.999867
0.999842
0.999827
0.999754
0.999409
0.999303
0.999405
0.999078
0.999932
0.999949
0.999955
0.999948
0.99992
0.999886
0.999527
0.999448
0.999666
0.999746
0.999656
0.999196
0.99907
0.999054
0.998971
0.999115
0.998273
0.997372
0.999934
0.999948
0.999971
0.999934
0.999913
0.999917
0.999631
0.999611
0.999737
0.999724
0.999643
0.999458
0.999459
0.999457
0.998917
0.998549
0.998824
0.998109
0.999972
0.99997
0.999986
0.99998
0.999969
0.99997
0.999889
0.999847
0.999733
0.999731
0.999639
0.999243
0.999033
0.998979
0.998828
0.998673
0.9986
0.997816
1
0.999997
0.999998
0.999998
0.999997
0.999989
0.999939
0.999775
0.999608
0.999676
0.99962
0.99937
0.999539
0.999813
0.999887
0.999803
0.998722
0.998063
1
0.999999
0.999999
0.999998
0.999996
0.999988
0.999948
0.999597
0.99953
0.999674
0.999641
0.999627
0.999759
0.999882
0.999881
0.999861
0.999831
0.999709
0.999999
0.999995
0.999995
0.999988
0.999988
0.999975
0.999911
0.999571
0.999591
0.999748
0.999802
0.999892
0.999931
0.999904
0.99982
0.999781
0.999775
0.999802
0.999996
0.999991
0.99999
0.999977
0.999983
0.999967
0.999912
0.999609
0.999759
0.999875
0.999926
0.999945
0.999938
0.99989
0.999854
0.99981
0.999761
0.99974
0.999991
0.999989
0.999987
0.99997
0.999975
0.999958
0.999925
0.999776
0.99987
0.99991
0.999941
0.999953
0.999954
0.99995
0.999941
0.99991
0.999831
0.99979
0.999989
0.999977
0.999983
0.999969
0.999971
0.999961
0.999957
0.999913
0.999923
0.999927
0.999943
0.999956
0.999958
0.999958
0.999956
0.999952
0.999951
0.999953
0.999983
0.999965
0.999969
0.999968
0.99997
0.999964
0.999962
0.999955
0.999951
0.999938
0.999936
0.999939
0.999942
0.999946
0.99995
0.999952
0.999954
0.999958
0.999973
0.999962
0.999967
0.999967
0.999966
0.999965
0.999964
0.999962
0.999961
0.99995
0.999938
0.999938
0.999941
0.999948
0.999952
0.999953
0.999956
0.999958
0.999969
0.999963
0.999971
0.99997
0.999969
0.999968
0.999965
0.999964
0.999964
0.999962
0.999956
0.999954
0.999954
0.999954
0.999955
0.999955
0.999954
0.999952
0.999968
0.999964
0.999965
0.999966
0.999967
0.999967
0.999966
0.999962
0.999962
0.999963
0.999962
0.99996
0.999959
0.999959
0.999959
0.999955
0.999953
0.99994
0.999976
0.999979
0.99998
0.999977
0.999975
0.99997
0.99996
0.999962
0.999966
0.999967
0.999966
0.999947
0.999927
0.999939
0.999947
0.999948
0.999949
0.999948
0.999977
0.99998
0.999982
0.999979
0.999969
0.999962
0.999953
0.999955
0.999961
0.999966
0.999965
0.999952
0.999909
0.999905
0.999916
0.999927
0.999937
0.999945
0.999977
0.99998
0.999983
0.99998
0.999974
0.999959
0.999953
0.999959
0.999962
0.999962
0.99996
0.999939
0.999905
0.999903
0.999917
0.999925
0.999929
0.999938
0.999978
0.999978
0.999983
0.999976
0.999977
0.999964
0.99996
0.999956
0.999961
0.99996
0.999945
0.999917