/*--------------------------------*- C++ -*----------------------------------*\
| =========                 |                                                 |
| \\      /  F ield         | OpenFOAM: The Open Source CFD Toolbox           |
|  \\    /   O peration     | Version:  2112                                  |
|   \\  /    A nd           | Website:  www.openfoam.com                      |
|    \\/     M anipulation  |                                                 |
\*---------------------------------------------------------------------------*/
FoamFile
{
    version     2.0;
    format      ascii;
    arch        "LSB;label=32;scalar=64";
    class       volScalarField;
    location    "0.24";
    object      epsilonU;
}
// * * * * * * * * * * * * * * * * * * * * * * * * * * * * * * * * * * * * * //

dimensions      [0 2 -3 0 0 0 0];

internalField   nonuniform List<scalar> 
12225
(
5724.82
6914.89
6445.59
5705.39
5185.48
4736.48
4334.57
3974.22
3653.19
3369.34
3119.7
2900.36
2706.42
2531.72
2368.26
2205.79
2029.8
1821.04
194.532
207.316
166.037
132.618
112.871
99.7671
89.7625
81.411
74.1178
67.6463
61.9214
56.9449
52.7683
49.4948
47.2863
46.417
47.2096
50.3218
31.103
36.4218
34.6044
30.7594
26.9076
23.5151
20.6197
18.1621
16.0715
14.2885
12.7686
11.4802
10.4025
9.52557
8.85339
8.41131
8.25909
8.51736
17.0171
18.1665
17.9639
17.0247
15.7991
14.519
13.2925
12.1642
11.1472
10.2398
9.43462
8.72216
8.0931
7.53912
7.05381
6.63406
6.28343
6.01948
14.4658
14.2017
13.7553
13.1345
12.4155
11.6629
10.9194
10.2102
9.54795
8.93786
8.38045
7.87377
7.41459
6.99916
6.62365
6.28469
5.97997
5.71075
13.861
13.066
12.3668
11.7031
11.0612
10.4431
9.85451
9.30012
8.78276
8.30331
7.86118
7.45489
7.08234
6.74119
6.42899
6.14341
5.88244
5.64561
13.7133
12.7292
11.8917
11.1565
10.4971
9.89811
9.35032
8.8479
8.38666
7.96317
7.57441
7.21757
6.89001
6.58931
6.31318
6.05958
5.82677
5.6144
13.679
12.6354
11.7394
10.9608
10.2763
9.66849
9.12449
8.63456
8.19127
7.78876
7.42224
7.08772
6.78183
6.50166
6.24471
6.00883
5.79223
5.59457
13.6716
12.6117
11.6954
10.898
10.1989
9.58187
9.03382
8.54426
8.10476
7.70848
7.34983
7.02416
6.72759
6.45686
6.20922
5.98231
5.77425
5.58456
13.6701
12.6062
11.6841
10.8801
10.175
9.55321
9.00199
8.51092
8.07142
7.67642
7.32006
6.99744
6.70446
6.43765
6.19411
5.97136
5.76738
5.5816
13.6698
12.6051
11.6814
10.8754
10.1683
9.54472
8.99207
8.50007
8.06017
7.6653
7.30952
6.98788
6.6962
6.43093
6.1891
5.96815
5.76597
5.58194
13.6698
12.6048
11.6807
10.8742
10.1665
9.54231
8.98918
8.49682
8.05673
7.66183
7.3062
6.98487
6.69363
6.42893
6.18773
5.96746
5.76596
5.58256
13.6697
12.6047
11.6804
10.8737
10.1657
9.54126
8.98789
8.49536
8.05515
7.66022
7.30463
6.9834
6.69234
6.42787
6.18694
5.96694
5.7657
5.58254
13.6697
12.6046
11.6802
10.8733
10.1651
9.54053
8.987
8.49432
8.05401
7.659
7.30338
6.98216
6.69113
6.42672
6.18586
5.96592
5.76472
5.58155
13.6697
12.6045
11.68
10.873
10.1647
9.53991
8.98623
8.49341
8.05297
7.65785
7.30214
6.98085
6.68976
6.42529
6.18437
5.96435
5.76303
5.57973
13.6697
12.6045
11.6799
10.8728
10.1643
9.5394
8.98556
8.4926
8.05201
7.65676
7.30092
6.9795
6.68829
6.42369
6.18262
5.96244
5.76092
5.57741
13.6697
12.6045
11.6798
10.8726
10.164
9.53898
8.98502
8.4919
8.05117
7.65576
7.29976
6.97818
6.68679
6.422
6.18073
5.96032
5.75856
5.57479
13.6697
12.6044
11.6798
10.8725
10.1638
9.53869
8.9846
8.49134
8.05045
7.65487
7.29868
6.97689
6.68529
6.42026
6.17873
5.95805
5.756
5.57193
13.6697
12.6044
11.6798
10.8724
10.1638
9.53854
8.98434
8.49095
8.04989
7.65412
7.29771
6.97568
6.68381
6.41849
6.17666
5.95566
5.75328
5.56887
13.6697
12.6045
11.6798
10.8725
10.1639
9.53865
8.98441
8.49093
8.04976
7.65383
7.29723
6.97498
6.68287
6.41729
6.17517
5.95388
5.75119
5.56647
13.6697
12.6045
11.6799
10.8727
10.1642
9.53898
8.98476
8.49126
8.05003
7.65399
7.29725
6.97483
6.68251
6.4167
6.17434
5.95278
5.74982
5.56481
13.6697
12.6046
11.6802
10.8731
10.1648
9.53974
8.98564
8.4922
8.05097
7.65486
7.29798
6.97535
6.68276
6.41663
6.17389
5.9519
5.74848
5.56297
13.6698
12.605
11.6811
10.8749
10.1673
9.54305
8.98961
8.49665
8.05568
7.65961
7.30254
6.97951
6.68631
6.41939
6.1757
5.95263
5.748
5.56118
13.6709
12.6089
11.6894
10.8882
10.1856
9.56564
9.01547
8.52463
8.0846
7.68841
7.33028
7.0054
6.70971
6.43979
6.19272
5.96597
5.75745
5.56657
13.6828
12.6456
11.7558
10.9821
10.3012
9.69571
9.15309
8.66381
8.22058
7.81761
7.45017
7.11429
6.80658
6.52411
6.26432
6.02495
5.80406
5.60114
13.7928
12.9175
12.1673
11.4862
10.8515
10.2556
9.69676
9.17469
8.68919
8.23943
7.82399
7.44101
7.08839
6.76395
6.4655
6.19089
5.93812
5.7064
14.6469
14.5802
14.2598
13.6983
12.9943
12.2308
11.4635
10.7254
10.0336
9.39538
8.81229
8.28274
7.80413
7.37303
6.9855
6.63737
6.32445
6.0436
21.4596
25.3195
25.5521
24.013
21.8973
19.7434
17.76
16.008
14.4869
13.1752
12.047
11.079
10.2629
9.5831
9.0183
8.54734
8.15067
7.81282
115.391
147.202
130.692
107.091
88.6082
75.5913
66.3252
59.4171
54.0057
49.6027
45.9313
42.8547
40.7639
39.3513
38.2777
37.3499
36.4492
35.5164
3376.6
4602.56
4660.11
4352.97
3969.6
3596.01
3252.76
2941.84
2660.71
2405.78
2173.18
1959.76
1808.02
1681.44
1561.74
1444.36
1328.14
1213.37
18.3599
10.3927
11.7907
15.7457
21.9135
29.602
36.4478
39.7411
38.8415
34.462
28.2418
22.4619
18.4879
16.2015
14.2564
11.1415
9.62135
29.4638
81.9624
164.666
275.547
408.116
553.145
700.201
839.041
960.668
1058.03
1126.37
1163.34
1168.88
1144.86
1094.77
1023.39
939.396
851.865
763.418
676.322
592.487
513.394
440.119
373.361
313.488
260.587
214.52
174.973
141.5
113.571
90.6093
72.0264
57.2539
45.7686
37.1222
29.6324
23.1051
17.5645
13.0349
9.55249
7.21206
6.3616
7.71087
10.3664
13.7428
17.749
22.396
27.8106
34.3579
42.9915
53.8178
66.4383
80.2358
93.4503
102.152
101.687
92.8412
79.119
64.5942
52.3921
44.1779
39.2544
36.1687
34.1009
32.6463
31.7839
31.7439
32.979
36.8246
44.904
57.1545
70.8871
81.9291
85.6429
78.4593
63.0112
49.2911
58.5528
148.035
314.232
521.864
738.047
934.347
1089.77
1191.34
1233.44
1216.83
1147.64
1035.76
898.605
752.392
606.799
470.494
350.237
250.244
171.972
114.385
74.6523
49.212
31.077
18.2946
11.3019
13.9169
28.1086
53.8607
98.5328
165.35
256.35
371.244
507.204
659.093
819.864
980.461
1131.82
1265.43
1346.1
1333.17
1227.18
1041.76
805.532
558.43
340.879
180.071
82.5439
37.5799
16.792
7.36044
3.61236
2.98373
3.32922
3.97717
5.34335
7.17994
9.16525
11.0922
12.8731
14.5252
16.1272
17.766
19.4971
21.3275
23.2227
25.1229
26.9627
28.6866
30.2628
31.6822
32.9234
33.9354
34.7013
35.3208
36.0238
37.1962
39.5773
44.3899
52.5889
62.2467
65.2101
53.5771
29.3675
19.0837
54.9602
103.87
213.016
35.9709
9.78666
3.58903
1.67502
0.968671
1.52682
3.5826
5.51634
6.31844
5.81276
4.54427
3.84995
6.47079
10.7455
15.9821
23.1941
34.0848
48.5381
64.734
80.7152
94.4837
104.432
109.579
109.632
104.884
96.0314
83.9746
69.6979
54.3557
39.5825
27.6826
21.0609
19.9411
18.8303
17.7216
16.6311
15.5698
14.5447
13.5603
12.6196
11.7243
10.8756
10.0742
9.32021
8.61318
7.95232
7.33637
6.76369
6.23192
5.73724
5.27271
4.82424
4.39789
4.0033
3.65054
3.35011
3.11367
2.95563
2.88397
2.856
2.85055
2.86208
2.88822
2.92939
2.98871
3.07109
3.17225
3.28457
3.40242
3.53087
3.75716
4.67433
6.05446
6.67707
6.45782
5.69275
4.72633
3.7518
2.86781
2.14088
1.59566
1.18815
0.830494
0.623035
0.582005
0.650694
0.825627
1.13954
1.69891
2.88146
6.09878
11.6037
18.7754
29.5228
47.6324
67.3071
81.6578
87.8112
85.9083
77.7723
65.7422
51.9191
37.7926
24.5711
14.7693
12.1884
10.6912
9.19988
7.81264
6.60118
5.60469
4.83234
4.26969
3.88483
3.63259
3.44857
3.31873
3.25347
3.31424
3.46201
3.70369
4.08577
4.6248
5.32682
6.18075
7.15386
8.19374
9.23727
10.2197
11.1018
12.0014
14.1236
28.9611
46.6041
59.7389
64.4404
59.9884
48.796
35.1403
22.9732
14.3113
8.70639
5.2649
3.22138
2.01463
1.28831
0.869744
0.629116
0.491202
0.412699
0.367701
0.341152
0.324828
0.314788
0.309506
0.308525
0.311586
0.3182
0.327556
0.338623
0.350297
0.361493
0.371624
0.380769
0.388648
0.394649
0.39895
0.40331
0.410181
0.426548
0.472114
0.589301
0.860964
1.75422
3.78542
4.57521
5.3057
8.43202
9.11413
485.944
45.8805
7.14704
1.9106
0.814065
0.446823
0.476976
1.09645
2.10194
3.05407
3.89693
5.16285
6.92205
9.10707
11.6992
14.7484
18.3186
22.312
26.2418
29.4919
31.5767
32.1866
31.2151
28.7524
25.0849
20.6931
16.1895
12.1693
9.04356
6.95432
5.80461
5.35292
5.32395
5.35595
5.39755
5.44227
5.48566
5.52412
5.55508
5.57696
5.5888
5.58983
5.57895
5.55426
5.51292
5.45124
5.36521
5.25129
5.10724
4.93292
4.73065
4.50514
4.26298
4.01213
3.7605
3.51516
3.28149
3.06281
2.8655
2.7027
2.5577
2.42712
2.30994
2.20555
2.1136
2.03389
1.96627
1.91051
1.86657
1.83494
1.81714
1.8163
1.83598
1.86262
1.87599
1.87634
1.8812
1.83974
1.72783
1.55568
1.34397
1.11048
0.872515
0.652617
0.479301
0.373956
0.349203
0.41322
0.625147
1.20818
2.66639
5.34122
8.74537
11.6628
14.9207
18.198
19.8474
19.4069
17.4823
14.7129
11.4445
8.03713
5.07056
3.02658
1.97672
1.66162
1.67165
1.70297
1.74854
1.80661
1.87551
1.95349
2.0386
2.12842
2.21957
2.30735
2.38557
2.44705
2.48164
2.48318
2.45809
2.41102
2.34836
2.2761
2.19939
2.1221
2.04683
1.97509
1.90775
1.84527
1.78813
1.73939
1.72135
1.90803
3.16427
5.40396
7.72854
9.2492
9.50435
8.56968
6.95396
5.2429
3.76293
2.61433
1.77683
1.18825
0.786356
0.518104
0.342852
0.229431
0.155877
0.10798
0.0765319
0.055586
0.0413321
0.0313693
0.0242141
0.0189625
0.0150618
0.0121674
0.0100669
0.00867145
0.0081332
0.00851854
0.00935617
0.0103104
0.0109202
0.0106272
0.00938642
0.00886374
0.0112366
0.0195991
0.0448119
0.128918
0.461926
1.25907
1.81426
1.98116
2.049
1.61343
545.07
16.002
1.228
0.880882
0.798158
0.980114
1.29938
1.90777
2.77284
3.76228
4.81578
5.96518
7.22422
8.61356
10.1248
11.7028
13.2387
14.5549
15.4219
15.6516
15.158
13.9795
12.2836
10.3331
8.41982
6.78481
5.56208
4.76721
4.32902
4.13925
4.09559
4.12499
4.18574
4.25208
4.31749
4.37735
4.42852
4.46978
4.50211
4.52853
4.55341
4.58128
4.61535
4.65605
4.70011
4.74056
4.76763
4.77038
4.73869
4.66523
4.5471
4.38663
4.19085
3.96993
3.73501
3.49632
3.26165
3.03562
2.83742
2.66219
2.50235
2.35671
2.22459
2.10547
1.99909
1.90548
1.82495
1.75802
1.7052
1.66657
1.64111
1.62604
1.61629
1.60486
1.58602
1.55837
1.52269
1.47633
1.41373
1.32327
1.20502
1.06703
0.916854
0.765916
0.632954
0.538568
0.511448
0.60772
0.956115
1.77223
3.11615
4.77494
6.06665
7.0493
7.79403
8.117
7.78631
6.89505
5.62473
4.19383
2.87469
1.89595
1.32808
1.08311
1.01793
1.02547
1.05685
1.09903
1.15069
1.21078
1.2784
1.35273
1.43292
1.51773
1.60514
1.69188
1.77278
1.83997
1.88104
1.8929
1.88179
1.85145
1.80718
1.75432
1.69732
1.6393
1.58221
1.52715
1.4748
1.42573
1.38066
1.3403
1.3058
1.28321
1.32639
1.54171
1.97149
2.50722
2.92957
3.05939
2.87357
2.47906
2.00791
1.55495
1.1679
0.860701
0.628692
0.458822
0.336383
0.248447
0.185033
0.138981
0.105302
0.0805279
0.0622192
0.0486341
0.0385181
0.0309634
0.0253098
0.0210732
0.0178969
0.015519
0.013753
0.0124599
0.0115251
0.0108472
0.0103208
0.00985188
0.00945266
0.00947762
0.0111389
0.0179695
0.0394707
0.106802
0.318152
0.725882
0.933243
0.89106
0.76418
0.539142
375.676
5.95094
1.56073
1.46658
1.61982
1.85738
2.23957
2.7872
3.45869
4.1954
4.97059
5.7894
6.65096
7.53359
8.3849
9.12464
9.65387
9.8729
9.71212
9.16844
8.31558
7.28781
6.24328
5.31978
4.60188
4.11184
3.82291
3.68408
3.64303
3.65961
3.70868
3.77641
3.85094
3.92228
3.98282
4.02523
4.04358
4.03488
4.00054
3.94731
3.8871
3.83522
3.80709
3.81408
3.85989
3.93899
4.03768
4.13706
4.21626
4.25587
4.24164
4.16744
4.03621
3.85857
3.64947
3.42383
3.19353
2.97423
2.78106
2.60317
2.43986
2.29065
2.15483
2.03173
1.92082
1.82189
1.73501
1.66054
1.59895
1.55057
1.51526
1.49178
1.47706
1.46581
1.45166
1.4302
1.40101
1.36545
1.32116
1.25992
1.17273
1.06537
0.950644
0.840832
0.749436
0.697011
0.720243
0.908179
1.36367
2.0804
2.95457
3.68089
4.16746
4.44547
4.53014
4.36497
3.89104
3.17086
2.36152
1.64826
1.14819
0.868342
0.743863
0.70149
0.695129
0.706192
0.729564
0.762038
0.802787
0.8512
0.906861
0.9695
1.03885
1.11433
1.1946
1.27715
1.35682
1.42492
1.46729
1.48725
1.48673
1.4693
1.4401
1.40424
1.36572
1.32701
1.28931
1.25303
1.21839
1.18581
1.15611
1.1304
1.10982
1.0954
1.09097
1.10903
1.17186
1.28841
1.43123
1.54274
1.57104
1.5009
1.35342
1.1657
0.971678
0.793434
0.640931
0.515582
0.414473
0.333372
0.268278
0.215943
0.173864
0.140104
0.113123
0.0916557
0.0746463
0.0612152
0.0506348
0.0423092
0.0357545
0.0305807
0.0264771
0.0231991
0.0205579
0.0184117
0.0166607
0.0152543
0.0142311
0.0139251
0.0156018
0.0225998
0.0437614
0.105278
0.261717
0.486063
0.545688
0.489759
0.384381
0.244734
188.683
4.51083
2.13307
2.11451
2.2052
2.41677
2.74466
3.16949
3.6651
4.2072
4.7809
5.37201
5.95366
6.48319
6.90511
7.16026
7.19965
7.00109
6.58311
6.00765
5.36511
4.74884
4.23048
3.84611
3.59722
3.46232
3.41161
3.41798
3.46172
3.5299
3.61363
3.70821
3.81307
3.92003
4.01825
4.09449
4.1343
4.12418
4.05505
3.92651
3.75058
3.55289
3.36903
3.23543
3.17763
3.20223
3.29726
3.43879
3.59656
3.73803
3.83333
3.86148
3.81442
3.69825
3.52953
3.32752
3.11134
2.90975
2.71931
2.54132
2.37696
2.22641
2.08919
1.9645
1.8516
1.7499
1.65919
1.57955
1.51128
1.45467
1.4097
1.37579
1.35149
1.33423
1.32032
1.30565
1.28724
1.26414
1.23534
1.19568
1.13676
1.0566
0.967649
0.887689
0.83354
0.827955
0.917965
1.16577
1.56242
2.0259
2.47939
2.79246
2.97219
3.02766
2.94888
2.68654
2.23668
1.69927
1.21186
0.862647
0.658363
0.556289
0.509803
0.490347
0.486238
0.494108
0.51191
0.537354
0.569927
0.609405
0.655842
0.709507
0.770715
0.839535
0.915216
0.99587
1.0764
1.14438
1.19213
1.22093
1.23093
1.22548
1.20959
1.18818
1.16473
1.14099
1.11726
1.09316
1.06828
1.04274
1.01741
0.993806
0.973904
0.959706
0.953743
0.956623
0.970371
0.998164
1.03782
1.07689
1.09682
1.08318
1.03256
0.952044
0.853987
0.75051
0.650275
0.557971
0.475371
0.402642
0.339268
0.284524
0.237649
0.197882
0.164457
0.136613
0.113602
0.094717
0.079303
0.0667711
0.0566008
0.0483409
0.041608
0.0360851
0.0315187
0.0277178
0.0245544
0.0219745
0.0200391
0.0191355
0.0206439
0.0280152
0.0492949
0.104928
0.221187
0.345473
0.356286
0.31349
0.226789
0.138298
51.1631
3.37386
2.57461
2.46948
2.52289
2.69087
2.94926
3.27952
3.66327
4.0818
4.51453
4.93501
5.30877
5.59607
5.75777
5.76442
5.60649
5.30186
4.89553
4.44907
4.02346
3.66359
3.39096
3.20579
3.09528
3.04269
3.0335
3.05762
3.10872
3.18256
3.27532
3.39281
3.53777
3.70421
3.88229
4.05758
4.21029
4.31552
4.34537
4.27419
4.08802
3.79712
3.44523
3.10436
2.84877
2.72213
2.72513
2.83182
3.00571
3.20506
3.38572
3.50944
3.55144
3.50628
3.38804
3.21848
3.03422
2.84597
2.66131
2.48559
2.32166
2.17067
2.0327
1.90718
1.79327
1.69015
1.59719
1.51417
1.44114
1.37836
1.32599
1.28387
1.25143
1.22758
1.21059
1.19803
1.18706
1.17528
1.16069
1.13923
1.10335
1.04776
0.980206
0.92086
0.894085
0.927741
1.06223
1.30183
1.56031
1.80332
2.02427
2.16818
2.23671
2.21976
2.08251
1.79777
1.41218
1.03102
0.73813
0.553621
0.451494
0.39702
0.367282
0.352126
0.348122
0.354235
0.368161
0.38823
0.414169
0.446108
0.484585
0.530466
0.584723
0.648136
0.720552
0.800636
0.882012
0.951365
1.00722
1.04618
1.06777
1.07503
1.07284
1.0659
1.05721
1.04771
1.03675
1.02303
1.00543
0.98367
0.958495
0.931623
0.905513
0.883053
0.867772
0.862279
0.865418
0.875773
0.890983
0.906244
0.914152
0.907292
0.8816
0.837723
0.779848
0.713427
0.643352
0.573212
0.505389
0.441419
0.382284
0.328585
0.280618
0.238413
0.201779
0.170355
0.143675
0.121219
0.102455
0.0868632
0.0739559
0.0632868
0.054459
0.0471295
0.0410129
0.0358838
0.0315843
0.0280441
0.0253375
0.023905
0.0252082
0.0326687
0.0536022
0.102529
0.187159
0.256365
0.255796
0.220354
0.148415
0.0913716
36.8454
3.24612
2.66906
2.58504
2.62847
2.76888
2.98556
3.26168
3.57925
3.91745
4.25158
4.55271
4.78898
4.92932
4.94962
4.84036
4.61261
4.29793
3.94084
3.58651
3.26957
3.00865
2.80753
2.66047
2.55819
2.49223
2.45692
2.44966
2.47029
2.52027
2.60145
2.72466
2.88718
3.08747
3.32102
3.57909
3.84714
4.10313
4.3156
4.44235
4.43324
4.24467
3.87126
3.37993
2.90248
2.56397
2.40899
2.41678
2.54474
2.74623
2.96849
3.1594
3.27757
3.29989
3.23406
3.11172
2.95575
2.78386
2.60851
2.43761
2.27574
2.12524
1.98698
1.86088
1.74634
1.64244
1.54835
1.46344
1.38748
1.32049
1.2626
1.21387
1.17427
1.14377
1.12233
1.10942
1.10349
1.10197
1.10169
1.09818
1.08425
1.05176
1.00198
0.95544
0.94592
1.00649
1.15523
1.33383
1.45335
1.55473
1.66674
1.74305
1.77123
1.72086
1.55459
1.27888
0.965012
0.696402
0.511334
0.400373
0.336496
0.298329
0.275113
0.262679
0.259368
0.264343
0.275358
0.291107
0.311451
0.336783
0.368076
0.406806
0.454669
0.513268
0.583098
0.663201
0.742934
0.81764
0.882317
0.932137
0.965896
0.986206
0.997823
1.00528
1.01117
1.01566
1.01716
1.01345
1.00278
0.984492
0.959176
0.928521
0.895101
0.862196
0.833775
0.814574
0.805426
0.805258
0.811433
0.819912
0.825559
0.823131
0.808819
0.781377
0.742063
0.6936
0.639026
0.581057
0.521958
0.463604
0.407533
0.354947
0.306698
0.263288
0.224894
0.191431
0.162623
0.138075
0.117332
0.0999215
0.0853789
0.0732671
0.0631871
0.0547853
0.0477577
0.041855
0.036895
0.0327907
0.0296184
0.0278629
0.0290675
0.036603
0.0567576
0.0982381
0.158409
0.197997
0.197343
0.164451
0.104909
0.0661165
153.176
4.25214
2.57855
2.52121
2.57689
2.71563
2.92026
3.17464
3.46004
3.75427
4.03159
4.26336
4.42024
4.47709
4.41975
4.25107
3.99211
3.67698
3.34348
3.02391
2.73957
2.49992
2.30524
2.15064
2.02978
1.93743
1.87077
1.82981
1.81737
1.83835
1.89859
2.00767
2.16158
2.36145
2.60619
2.89143
3.20846
3.54322
3.8753
4.17414
4.38965
4.44508
4.25657
3.80296
3.20133
2.66685
2.33441
2.2133
2.25793
2.41805
2.63817
2.85762
3.02546
3.09975
3.08624
3.00451
2.87704
2.72398
2.56042
2.39646
2.23828
2.08939
1.9515
1.82518
1.71021
1.60588
1.51125
1.42547
1.34793
1.27837
1.21671
1.16299
1.11741
1.08069
1.05417
1.03934
1.03666
1.0445
1.05923
1.07526
1.08393
1.07341
1.03833
0.99921
0.99814
1.06926
1.20109
1.29902
1.31487
1.33729
1.39805
1.45051
1.46152
1.39004
1.21162
0.959561
0.708064
0.513871
0.387758
0.311707
0.264923
0.234836
0.215914
0.205832
0.203286
0.207372
0.216139
0.228509
0.244348
0.264168
0.289237
0.321583
0.363649
0.417968
0.485837
0.56276
0.643809
0.724697
0.798395
0.859181
0.904949
0.937798
0.962385
0.9832
1.00246
1.01958
1.03209
1.03712
1.03261
1.01786
0.993472
0.961006
0.922743
0.881682
0.841625
0.807636
0.783233
0.769541
0.76548
0.767891
0.772147
0.773163
0.76661
0.749884
0.722415
0.685256
0.640337
0.589887
0.536124
0.481128
0.426756
0.374567
0.325761
0.28116
0.241214
0.206055
0.175562
0.149438
0.127281
0.108637
0.0930412
0.0800443
0.06923
0.0602242
0.0527007
0.0463869
0.0410793
0.0366738
0.0332346
0.0312792
0.0324389
0.0399999
0.0589226
0.0928491
0.134648
0.158729
0.159999
0.128522
0.078698
0.0502117
315.538
5.61034
2.38296
2.34994
2.42925
2.58139
2.79207
3.04618
3.32517
3.60638
3.86289
4.06459
4.18214
4.19378
4.09235
3.88842
3.60764
3.28352
2.94933
2.63189
2.34834
2.10591
1.90391
1.73704
1.59874
1.48374
1.38972
1.31825
1.27509
1.26931
1.3115
1.40468
1.54551
1.73555
1.97526
2.26276
2.59193
2.95062
3.32283
3.69218
4.03276
4.28538
4.33813
4.07481
3.51156
2.88216
2.41526
2.17726
2.13372
2.23309
2.42263
2.63599
2.81721
2.92664
2.9523
2.90422
2.80253
2.66787
2.5168
2.36092
2.20763
2.06139
1.92466
1.79863
1.68356
1.57907
1.48433
1.39835
1.32026
1.24942
1.18543
1.12811
1.07764
1.03511
1.003
0.984816
0.983503
0.999404
1.02934
1.06647
1.0989
1.10953
1.08702
1.05196
1.05179
1.11709
1.21123
1.23349
1.18162
1.16208
1.19804
1.24154
1.24512
1.16038
0.98112
0.756487
0.553384
0.406967
0.313986
0.256134
0.218497
0.193378
0.177447
0.169011
0.166896
0.170211
0.177367
0.187389
0.200017
0.215741
0.23593
0.263006
0.300231
0.351065
0.414654
0.489615
0.573608
0.660707
0.743354
0.814787
0.871805
0.915913
0.95172
0.983709
1.01366
1.04016
1.06004
1.07023
1.06903
1.05639
1.03338
1.0016
0.962786
0.918982
0.87286
0.828286
0.79008
0.76186
0.745054
0.738437
0.738408
0.739964
0.738023
0.728653
0.709732
0.680932
0.643256
0.598492
0.548785
0.496349
0.443265
0.391341
0.342028
0.296383
0.255073
0.218411
0.18642
0.158902
0.135512
0.115817
0.0993521
0.0856506
0.0742739
0.0648234
0.0569491
0.0503562
0.0448228
0.0402249
0.0366004
0.0344825
0.0355831
0.0430506
0.0603632
0.0871811
0.11549
0.13142
0.133643
0.105255
0.0621399
0.0392954
472.977
6.86763
2.15748
2.13476
2.23388
2.39996
2.62131
2.88476
3.17304
3.46325
3.72608
3.92793
4.03734
4.03376
3.91386
3.69207
3.39566
3.05775
2.7108
2.38155
2.0875
1.83563
1.62406
1.44559
1.29172
1.1557
1.03506
0.933801
0.86298
0.838137
0.878115
0.967916
1.10363
1.28582
1.51624
1.79637
2.12433
2.48915
2.87027
3.25305
3.62625
3.96119
4.1657
4.09045
3.65892
3.05307
2.54183
2.23629
2.12771
2.16665
2.30566
2.49344
2.67269
2.7968
2.84448
2.81886
2.73659
2.61728
2.47765
2.32988
2.18205
2.03922
1.90442
1.7793
1.6646
1.56029
1.4658
1.38015
1.30227
1.23118
1.16612
1.1065
1.05224
1.00444
0.96635
0.943325
0.941116
0.962942
1.00718
1.06597
1.1229
1.15394
1.14249
1.10914
1.1036
1.15065
1.19911
1.16078
1.06737
1.02498
1.04767
1.0856
1.08424
0.997906
0.826359
0.62436
0.456809
0.340983
0.267308
0.219656
0.187324
0.165227
0.15104
0.143396
0.141297
0.144008
0.150238
0.158973
0.169716
0.182853
0.199764
0.222858
0.256691
0.302311
0.362509
0.437514
0.524619
0.61798
0.70944
0.790986
0.85812
0.911698
0.956312
0.996345
1.0329
1.06365
1.08497
1.09432
1.09128
1.07721
1.05425
1.02436
0.988834
0.948515
0.904247
0.857203
0.811488
0.772252
0.743402
0.726306
0.719315
0.718286
0.717869
0.713027
0.7002
0.677746
0.64576
0.605569
0.5592
0.508945
0.457048
0.405501
0.355935
0.30958
0.267259
0.229427
0.196224
0.167541
0.143091
0.122471
0.105223
0.0908774
0.0789793
0.0691137
0.0609133
0.0540684
0.0483441
0.0435981
0.0398346
0.0375824
0.0385992
0.0458411
0.0613457
0.0818703
0.100388
0.111633
0.113814
0.088718
0.0526181
0.0322767
596.291
7.84799
1.95583
1.91523
2.02057
2.19069
2.41624
2.68738
2.98964
3.3009
3.58955
3.81749
3.94907
3.96172
3.85196
3.63415
3.33481
2.98664
2.62347
2.27533
1.96329
1.69642
1.47289
1.28424
1.12002
0.971103
0.832013
0.703418
0.597911
0.554932
0.624931
0.729213
0.869911
1.04889
1.26946
1.53585
1.85094
2.21017
2.58594
2.96228
3.32724
3.66495
3.90725
3.9214
3.62481
3.12168
2.63395
2.30955
2.16628
2.1658
2.26757
2.42734
2.59189
2.71377
2.76769
2.75248
2.68169
2.57313
2.44268
2.30221
2.15985
2.02088
1.88861
1.76506
1.65129
1.54764
1.45379
1.36892
1.29187
1.2214
1.15634
1.09565
1.03877
0.986478
0.94229
0.913057
0.907413
0.932174
0.988392
1.06785
1.14902
1.19976
1.19834
1.16508
1.14968
1.17171
1.17578
1.09311
0.97495
0.918686
0.931791
0.963919
0.958537
0.874968
0.71895
0.543308
0.39965
0.300301
0.236684
0.194932
0.165673
0.145217
0.131731
0.124144
0.121732
0.124127
0.13007
0.138419
0.148361
0.160115
0.175282
0.195603
0.224922
0.267248
0.325643
0.401138
0.491674
0.591498
0.691701
0.782774
0.858737
0.919774
0.970451
1.01482
1.05297
1.0816
1.09725
1.09879
1.0879
1.06786
1.04216
1.01336
0.982645
0.949938
0.914259
0.873575
0.829613
0.787015
0.750975
0.725306
0.710906
0.705427
0.70413
0.701476
0.692752
0.675072
0.647586
0.611101
0.567476
0.519046
0.468188
0.417048
0.367401
0.320605
0.277595
0.238928
0.204825
0.175244
0.149946
0.128559
0.110638
0.0957157
0.0833351
0.0730734
0.0645562
0.0574673
0.0515664
0.0466997
0.0428435
0.0405046
0.0414335
0.0483556
0.062077
0.0773331
0.0887349
0.0967048
0.0982638
0.076823
0.0467775
0.0280759
598.4
23.1534
2.79451
1.78291
1.81614
1.97042
2.18689
2.45502
2.76424
3.0957
3.41801
3.68975
3.86994
3.93079
3.86445
3.68142
3.40463
3.06435
2.69472
2.32932
1.99469
1.70524
1.46283
1.26088
1.08973
0.940774
0.809376
0.696931
0.611978
0.583198
0.627157
0.721743
0.855957
1.02702
1.23686
1.48871
1.78339
2.11563
2.47075
2.82757
3.16955
3.47935
3.70299
3.73383
3.49633
3.06808
2.63944
2.34573
2.20754
2.19533
2.2774
2.41595
2.56227
2.6717
2.71978
2.70446
2.63751
2.53487
2.41089
2.27648
2.13926
2.00434
1.87511
1.75375
1.64156
1.53913
1.44641
1.36277
1.28708
1.21794
1.15383
1.09324
1.03501
0.979293
0.929373
0.893007
0.881479
0.905634
0.970258
1.06786
1.17196
1.24138
1.24915
1.2149
1.18725
1.18248
1.1484
1.03537
0.902653
0.836299
0.84016
0.865537
0.857496
0.78062
0.643098
0.490897
0.365332
0.277221
0.219151
0.179553
0.151211
0.130948
0.117304
0.109356
0.106641
0.109209
0.115238
0.123715
0.133476
0.144582
0.157987
0.176134
0.202928
0.24296
0.300256
0.376831
0.471316
0.577991
0.687006
0.787088
0.870613
0.937125
0.991106
1.03593
1.07036
1.09044
1.09371
1.08139
1.05769
1.0279
0.99664
0.967003
0.94022
0.915807
0.891596
0.8632
0.829484
0.792595
0.757005
0.7278
0.70829
0.698497
0.695177
0.693108
0.686954
0.672803
0.648882
0.615419
0.574048
0.527113
0.477106
0.426315
0.376644
0.329554
0.286068
0.246809
0.212056
0.181812
0.155868
0.133877
0.115408
0.0999993
0.0871974
0.076579
0.0677691
0.0604515
0.0543862
0.0494164
0.045504
0.0431255
0.0439714
0.0505275
0.0626824
0.0737889
0.0799641
0.0851146
0.0857807
0.0680734
0.0432034
0.0260141
464.216
37.294
5.84494
2.22597
1.74614
1.78526
1.95993
2.20532
2.50415
2.84012
3.1854
3.49994
3.74042
3.87317
3.88268
3.77168
3.55616
3.26082
2.91626
2.55567
2.20904
1.89725
1.62958
1.40588
1.22094
1.06875
0.945544
0.851174
0.789153
0.77508
0.810448
0.889596
1.00868
1.16663
1.36447
1.60343
1.88227
2.19393
2.52305
2.8494
3.15536
3.41924
3.5876
3.57204
3.32803
2.94437
2.585
2.34848
2.24056
2.2376
2.31597
2.44167
2.56959
2.66024
2.69384
2.67038
2.60119
2.50041
2.3805
2.25092
2.1184
1.98765
1.86189
1.74334
1.6334
1.53283
1.44181
1.35988
1.28603
1.21881
1.15647
1.09706
1.03879
0.981021
0.92629
0.882556
0.863178
0.883069
0.951607
1.06336
1.18792
1.27493
1.29143
1.25578
1.21534
1.18539
1.12107
0.988508
0.847321
0.772354
0.766274
0.784084
0.774684
0.707095
0.588817
0.457237
0.345741
0.264774
0.209261
0.170412
0.142419
0.122313
0.108486
0.100228
0.0973694
0.0997672
0.105563
0.113583
0.123122
0.133894
0.14653
0.163311
0.188335
0.226821
0.283741
0.362107
0.461241
0.575356
0.693422
0.802122
0.892085
0.962279
1.01699
1.05853
1.08423
1.09014
1.07589
1.04572
1.00646
0.964932
0.926443
0.894218
0.869464
0.851583
0.838003
0.823517
0.804746
0.780584
0.753043
0.726714
0.706331
0.694218
0.689152
0.686984
0.682397
0.670838
0.649741
0.618754
0.579243
0.533525
0.484194
0.433671
0.383979
0.336673
0.292843
0.25316
0.217941
0.187215
0.160794
0.138345
0.119449
0.103652
0.0905029
0.0795826
0.0705184
0.0629972
0.0567818
0.0517179
0.0477651
0.0453679
0.0461206
0.0522897
0.0632074
0.0712999
0.0736078
0.076043
0.0756667
0.0614042
0.0409936
0.0254791
239.434
32.9357
7.71795
3.02735
1.91648
1.70334
1.77177
1.95945
2.22124
2.53734
2.88436
3.22751
3.52497
3.73901
3.84553
3.8371
3.72024
3.51148
3.2345
2.91767
2.58998
2.27602
1.99239
1.74724
1.54239
1.37639
1.24704
1.1527
1.09276
1.07955
1.11204
1.18587
1.29867
1.45005
1.6405
1.86936
2.13237
2.4192
2.71304
2.99489
3.24689
3.44098
3.51986
3.41651
3.1346
2.78781
2.50582
2.33703
2.27065
2.28986
2.37533
2.49296
2.60094
2.66756
2.68055
2.64369
2.56832
2.46672
2.34921
2.22355
2.09544
1.96898
1.84713
1.732
1.62502
1.52702
1.43831
1.35861
1.28707
1.22226
1.16233
1.10503
1.04802
0.98974
0.931639
0.881085
0.852646
0.864952
0.932647
1.05398
1.19615
1.29963
1.32433
1.28701
1.23424
1.18229
1.0954
0.951367
0.805587
0.722765
0.70608
0.715782
0.705794
0.648541
0.548905
0.43568
0.335842
0.259855
0.205456
0.166543
0.138409
0.11822
0.104363
0.0960053
0.0927821
0.0946026
0.10005
0.107927
0.11737
0.127903
0.139968
0.15574
0.179499
0.217063
0.274329
0.355306
0.459963
0.582302
0.709827
0.8269
0.922361
0.994702
1.04783
1.08261
1.09516
1.08259
1.04758
0.997765
0.942223
0.888759
0.842741
0.807099
0.782768
0.769068
0.763531
0.761371
0.758025
0.749706
0.73535
0.717539
0.70099
0.689595
0.684169
0.682088
0.678631
0.669045
0.650205
0.62125
0.583272
0.53854
0.489734
0.4394
0.389677
0.342202
0.298121
0.258139
0.222594
0.191531
0.164773
0.141994
0.122783
0.106691
0.0932727
0.0821123
0.0728407
0.0651485
0.0588012
0.0536487
0.0496541
0.047228
0.0478501
0.0536079
0.0636352
0.0698074
0.069303
0.0690773
0.0675095
0.0561149
0.0395446
0.02587
41.9224
14.5902
5.79035
2.99369
2.00184
1.66586
1.62198
1.72744
1.9252
2.19115
2.50729
2.8487
3.18138
3.46832
3.67857
3.79342
3.80748
3.72659
3.56507
3.34329
3.08485
2.81315
2.54814
2.30439
2.09098
1.91259
1.77097
1.66628
1.59805
1.57399
1.59128
1.64944
1.7482
1.88715
2.06463
2.27608
2.51243
2.75938
2.99943
3.21563
3.38797
3.47917
3.4334
3.22423
2.91581
2.62791
2.43203
2.33051
2.30928
2.35772
2.45388
2.56125
2.64395
2.68129
2.66992
2.61726
2.53411
2.43054
2.31461
2.19245
2.06866
1.94674
1.8293
1.71826
1.61495
1.52024
1.43448
1.35755
1.28874
1.22676
1.16975
1.1153
1.06067
1.00346
0.943799
0.887735
0.849923
0.85185
0.913679
1.03919
1.19607
1.31622
1.35007
1.31151
1.247
1.17586
1.07212
0.921893
0.773783
0.683297
0.655183
0.656077
0.645644
0.598935
0.517267
0.421298
0.33236
0.260824
0.207139
0.167733
0.13904
0.118512
0.104508
0.0959825
0.092405
0.0937171
0.0988157
0.106522
0.115826
0.126072
0.137569
0.152467
0.175285
0.212458
0.270815
0.355343
0.466584
0.598123
0.735671
0.861004
0.961198
1.03437
1.0838
1.10863
1.10434
1.07024
1.01291
0.943271
0.872159
0.807706
0.754837
0.715821
0.691083
0.679779
0.679682
0.686852
0.696587
0.703658
0.704401
0.698691
0.689901
0.682387
0.678532
0.677336
0.675061
0.66716
0.650218
0.622983
0.586301
0.542388
0.493998
0.443798
0.394036
0.346429
0.302168
0.261983
0.226224
0.19494
0.167958
0.144956
0.125525
0.109222
0.0956048
0.0842623
0.074829
0.0669988
0.0605394
0.0553037
0.0512574
0.0487708
0.049199
0.0544951
0.0639148
0.0691709
0.0667702
0.0640163
0.0610771
0.0518013
0.0384533
0.0266682
11.7819
5.15746
3.31182
2.30074
1.78914
1.54854
1.47968
1.52989
1.66826
1.87705
2.14359
2.45264
2.78184
3.10228
3.38362
3.60044
3.73675
3.78712
3.75574
3.65421
3.49921
3.30976
3.10466
2.90044
2.71019
2.5434
2.40636
2.30305
2.23625
2.21051
2.22235
2.2726
2.36085
2.48478
2.63915
2.81475
2.99819
3.17404
3.32793
3.44438
3.49577
3.43811
3.24393
2.95757
2.68206
2.48826
2.38047
2.3442
2.37288
2.45268
2.55308
2.63895
2.68671
2.68944
2.65187
2.5831
2.49217
2.38659
2.27225
2.15375
2.03473
1.91802
1.80584
1.69983
1.60117
1.51066
1.42869
1.35522
1.28971
1.23105
1.17748
1.12658
1.07536
1.02075
0.961497
0.901778
0.855123
0.844521
0.895234
1.0184
1.18604
1.32328
1.36787
1.32931
1.25485
1.16827
1.05282
0.900181