/*--------------------------------*- C++ -*----------------------------------*\
| =========                 |                                                 |
| \\      /  F ield         | OpenFOAM: The Open Source CFD Toolbox           |
|  \\    /   O peration     | Version:  2112                                  |
|   \\  /    A nd           | Website:  www.openfoam.com                      |
|    \\/     M anipulation  |                                                 |
\*---------------------------------------------------------------------------*/
FoamFile
{
    version     2.0;
    format      ascii;
    arch        "LSB;label=32;scalar=64";
    class       volScalarField;
    location    "0.21";
    object      k;
}
// * * * * * * * * * * * * * * * * * * * * * * * * * * * * * * * * * * * * * //

dimensions      [0 2 -2 0 0 0 0];

internalField   nonuniform List<scalar> 
12225
(
1.7302
1.9552
1.85116
1.69638
1.5677
1.44001
1.30723
1.16597
1.01366
0.848979
0.672872
0.489893
0.30882
0.142034
0.0283871
0.119275
0.17611
0.170277
0.262
0.157088
0.101948
0.0766211
0.065241
0.0596992
0.0567272
0.0549283
0.053463
0.0515544
0.0483869
0.0432805
0.0360113
0.0269746
0.0176215
0.0178549
0.0169944
0.0130684
0.325581
0.268668
0.219726
0.179855
0.147426
0.120658
0.0981906
0.0791406
0.0630375
0.0496932
0.039013
0.0307968
0.0246519
0.020068
0.0165685
0.0146375
0.0135022
0.0126928
0.34466
0.310242
0.27764
0.248185
0.221989
0.198695
0.177769
0.158639
0.140791
0.123854
0.107691
0.0924502
0.0785042
0.0662715
0.0560387
0.0479962
0.0420517
0.0379986
0.350956
0.325169
0.300308
0.277058
0.255632
0.235985
0.217924
0.20118
0.18546
0.170492
0.156078
0.142129
0.128677
0.115822
0.103683
0.092391
0.0820859
0.0729864
0.353309
0.331398
0.310579
0.291019
0.272784
0.255848
0.240109
0.225419
0.211606
0.198489
0.185909
0.173743
0.161934
0.150491
0.139455
0.128862
0.118709
0.109007
0.354167
0.334002
0.315312
0.297944
0.281799
0.266785
0.252798
0.239726
0.227443
0.215826
0.204757
0.194133
0.183878
0.17394
0.16429
0.154912
0.14578
0.136916
0.354457
0.335017
0.317367
0.301215
0.286353
0.27262
0.259882
0.248018
0.236915
0.226468
0.216579
0.207162
0.198143
0.189466
0.181084
0.172958
0.165051
0.157372
0.354547
0.335377
0.318178
0.302628
0.288473
0.275513
0.263585
0.252553
0.242299
0.232719
0.223721
0.215222
0.207153
0.199453
0.192073
0.184971
0.178111
0.171514
0.354573
0.335492
0.318466
0.303176
0.289363
0.276813
0.265351
0.25483
0.245127
0.236134
0.227759
0.219919
0.212545
0.205574
0.198954
0.19264
0.186597
0.180847
0.35458
0.335525
0.318557
0.303367
0.289698
0.277338
0.266111
0.255867
0.246479
0.237841
0.229858
0.222449
0.215541
0.209073
0.202992
0.19725
0.191811
0.186692
0.354581
0.335533
0.318581
0.303423
0.289805
0.277518
0.266388
0.256265
0.247026
0.238562
0.23078
0.2236
0.216951
0.210771
0.205006
0.19961
0.194545
0.189822
0.354581
0.335535
0.318589
0.303442
0.289845
0.27759
0.266504
0.256441
0.247278
0.238907
0.231238
0.224191
0.217697
0.211695
0.206133
0.200965
0.196153
0.191704
0.354581
0.335536
0.318592
0.30345
0.289862
0.277622
0.266558
0.256525
0.247399
0.239076
0.231466
0.224491
0.218083
0.212182
0.206737
0.201703
0.197044
0.192764
0.354581
0.335536
0.318593
0.303455
0.289873
0.277642
0.266591
0.256574
0.247468
0.23917
0.23159
0.22465
0.218284
0.212432
0.207045
0.202078
0.197495
0.193298
0.354581
0.335536
0.318595
0.30346
0.289885
0.277662
0.266622
0.256618
0.247527
0.239246
0.231684
0.224765
0.218421
0.212594
0.207234
0.202296
0.197745
0.193581
0.35458
0.335536
0.318597
0.303466
0.289898
0.277685
0.266656
0.256665
0.24759
0.239324
0.231779
0.224876
0.218548
0.212737
0.207392
0.202469
0.197931
0.193779
0.354579
0.335535
0.318598
0.303473
0.289912
0.27771
0.266694
0.256718
0.247658
0.239409
0.231879
0.224992
0.218679
0.212881
0.207548
0.202634
0.198103
0.193955
0.354578
0.335533
0.3186
0.303481
0.289929
0.277739
0.266737
0.256776
0.247732
0.239499
0.231985
0.225113
0.218813
0.213027
0.207704
0.202797
0.198269
0.194122
0.354576
0.335532
0.318602
0.303488
0.289945
0.277765
0.266775
0.256826
0.247795
0.239574
0.232072
0.22521
0.218919
0.21314
0.207822
0.202918
0.198391
0.194241
0.354576
0.335532
0.318604
0.303496
0.28996
0.277788
0.266806
0.256866
0.247843
0.23963
0.232134
0.225278
0.218991
0.213214
0.207896
0.20299
0.19846
0.194306
0.354575
0.335532
0.318607
0.303502
0.289969
0.277799
0.266817
0.256876
0.24785
0.239631
0.232128
0.225261
0.218963
0.213173
0.20784
0.202919
0.198372
0.1942
0.354573
0.335526
0.318591
0.30347
0.28991
0.277703
0.266676
0.25668
0.247593
0.239308
0.231736
0.224799
0.21843
0.212569
0.207167
0.202177
0.197564
0.193328
0.354559
0.335463
0.318436
0.303174
0.289431
0.277008
0.265742
0.255497
0.246157
0.237623
0.22981
0.222644
0.216058
0.209997
0.204408
0.199246
0.194474
0.190093
0.354453
0.335054
0.317535
0.301633
0.287164
0.273984
0.261976
0.251028
0.241035
0.231909
0.223566
0.215932
0.208936
0.202517
0.196618
0.191189
0.186186
0.181604
0.353859
0.333097
0.31376
0.295873
0.279451
0.26447
0.250866
0.238551
0.227428
0.217386
0.208312
0.200089
0.192628
0.185849
0.179676
0.174044
0.168895
0.164205
0.351199
0.32566
0.301126
0.278454
0.257989
0.239773
0.223679
0.209505
0.197031
0.186043
0.176352
0.167805
0.16024
0.153522
0.147529
0.142135
0.137266
0.132872
0.340561
0.298822
0.259921
0.226519
0.198759
0.175947
0.157211
0.14175
0.128907
0.118166
0.109119
0.101453
0.094914
0.0893027
0.0844624
0.0802854
0.0766538
0.0734704
0.300379
0.202432
0.132812
0.0920514
0.069434
0.0565121
0.0485587
0.043202
0.0392759
0.0361987
0.0336727
0.0315377
0.0297062
0.0281254
0.0267592
0.0255914
0.0246044
0.0238261
1.46395
1.80282
1.82447
1.75405
1.66417
1.57672
1.49745
1.42732
1.36603
1.31289
1.26708
1.22779
1.19419
1.16556
1.14116
1.12037
1.10247
1.08716
0.0579363
0.053245
0.0476598
0.0361922
0.0435192
0.057645
0.0779474
0.104588
0.137158
0.184503
0.246422
0.320063
0.384327
0.427303
0.439363
0.413964
0.350075
0.254759
0.146679
0.0563804
0.0285687
0.0360204
0.0376505
0.0375597
0.0430045
0.0531887
0.0675495
0.0834346
0.0962151
0.101333
0.100422
0.0927856
0.0763383
0.0817709
0.194835
0.355465
0.540899
0.737954
0.935281
1.12354
1.29557
1.44635
1.57269
1.67298
1.74678
1.79461
1.81766
1.81757
1.79632
1.75606
1.69882
1.63304
1.56034
1.48181
1.39851
1.31147
1.22169
1.13012
1.03773
0.94548
0.854337
0.765279
0.679274
0.597262
0.520117
0.448607
0.383354
0.324812
0.27325
0.228768
0.191331
0.160816
0.137156
0.115052
0.0941984
0.0748298
0.0572875
0.0421309
0.030429
0.025299
0.0314133
0.041564
0.0527811
0.0643602
0.0759353
0.0872703
0.0982066
0.108639
0.118498
0.127741
0.13634
0.144273
0.151536
0.159001
0.167069
0.174609
0.179655
0.179677
0.175116
0.167662
0.159877
0.153225
0.14798
0.144526
0.14286
0.142502
0.143146
0.144667
0.146804
0.149336
0.15211
0.155043
0.158102
0.161302
0.165332
0.170404
0.176062
0.182038
0.188134
0.194174
0.19999
0.205423
0.210325
0.214599
0.218295
0.221688
0.225194
0.228829
0.230988
0.226714
0.208686
0.176125
0.135145
0.130112
0.273796
0.484162
0.693136
0.870165
0.997885
1.06869
1.08208
1.04278
0.958459
0.849196
0.725288
0.595845
0.469991
0.356105
0.260892
0.18874
0.134015
0.0847781
0.047436
0.0350408
0.0701165
0.117267
0.174879
0.252934
0.341298
0.433928
0.525799
0.614024
0.696875
0.753083
0.740306
0.659477
0.535444
0.404108
0.297336
0.230654
0.201996
0.199892
0.214964
0.244565
0.281508
0.302716
0.271206
0.196718
0.140887
0.243407
0.15057
0.0209522
0.0139596
0.0106851
0.00792403
0.00589953
0.0045134
0.00361034
0.00306592
0.00282345
0.00286844
0.00354044
0.0157609
0.0373961
0.0629812
0.085518
0.098121
0.0961877
0.0798766
0.0560145
0.0358801
0.0216151
0.0119908
0.00775217
0.00675644
0.00715257
0.00722563
0.00917019
0.0180769
0.0371433
0.0539139
0.0676616
0.083128
0.104271
0.133068
0.160477
0.182285
0.19634
0.201874
0.199238
0.189593
0.174574
0.156015
0.135744
0.11545
0.0966043
0.0804133
0.0677971
0.0593964
0.0557543
0.0579135
0.0607047
0.0635253
0.0663738
0.069244
0.072124
0.0749969
0.07784
0.080625
0.0833176
0.085877
0.0882547
0.0903949
0.0922334
0.0936992
0.0947168
0.095212
0.0951199
0.0943952
0.0930232
0.0910262
0.0884615
0.0854009
0.081855
0.0778824
0.0735413
0.0688818
0.0639551
0.0588297
0.0536973
0.0495069
0.0457659
0.0422544
0.0389423
0.035815
0.0328616
0.0300737
0.027445
0.0249703
0.0226453
0.020466
0.0184278
0.016524
0.0147517
0.013118
0.0116643
0.0106307
0.0107054
0.0110425
0.0110453
0.0105194
0.00945628
0.00801725
0.00647974
0.00515534
0.00436112
0.00404524
0.00394715
0.00394556
0.00398311
0.00403276
0.004082
0.00412502
0.00415867
0.00418514
0.00420565
0.00421676
0.00421524
0.00420045
0.00417603
0.00415095
0.00414006
0.00416497
0.00425745
0.00446789
0.00488409
0.00567401
0.0071773
0.0100836
0.016018
0.0273755
0.0406395
0.049269
0.0601908
0.0799871
0.0923261
0.0920639
0.0814385
0.0646921
0.0462841
0.0302386
0.0196431
0.017273
0.0167615
0.0163013
0.0159347
0.0156836
0.015553
0.0155299
0.0155684
0.0155009
0.0150968
0.014297
0.0132604
0.0125644
0.0118825
0.011262
0.0108509
0.0106806
0.0107664
0.0111218
0.0118672
0.0135932
0.0191763
0.0362309
0.0502535
0.0537643
0.0480348
0.0376494
0.0266319
0.0173561
0.011524
0.00965066
0.010359
0.0136091
0.020389
0.0340483
0.0436866
0.0418313
0.0416842
0.159771
0.0496467
0.0287817
0.0169472
0.0101575
0.00629466
0.00408012
0.00278618
0.00200652
0.00151649
0.00119377
0.000980522
0.00153953
0.00468033
0.0117604
0.0222449
0.0332994
0.0408777
0.0419031
0.0365257
0.0282406
0.0198394
0.0131255
0.00982825
0.00931487
0.0124703
0.0211382
0.027258
0.0332629
0.0400641
0.0461764
0.0519271
0.0577453
0.0634458
0.0679821
0.0698199
0.0689193
0.0659854
0.0620923
0.0583418
0.0555775
0.054214
0.0542198
0.0552463
0.0568409
0.0586367
0.0604298
0.0621512
0.0637985
0.0653785
0.0670737
0.0689031
0.0708592
0.0729353
0.0751255
0.0774253
0.0798306
0.0823369
0.0849362
0.087615
0.0903502
0.0931049
0.095825
0.0984354
0.100839
0.102918
0.104539
0.105567
0.105879
0.105381
0.104027
0.101827
0.0988481
0.0951986
0.091017
0.0864484
0.0816276
0.0766686
0.0716418
0.0667494
0.0625887
0.0587385
0.0551348
0.0517656
0.0486195
0.0456837
0.0429446
0.0403885
0.038002
0.0357719
0.0336859
0.0317322
0.0298995
0.0281759
0.0265483
0.0250023
0.02352
0.0220806
0.020658
0.0192247
0.0177789
0.0164203
0.0152327
0.014251
0.013457
0.0128076
0.0122799
0.0118507
0.0114986
0.0112058
0.0109575
0.0107412
0.0105463
0.010363
0.0101811
0.00998948
0.00977462
0.00952129
0.00921409
0.00884059
0.00839459
0.00787797
0.00730125
0.0066852
0.00606765
0.00552374
0.00521952
0.00553099
0.00721589
0.0114148
0.0181542
0.0236884
0.0252341
0.0259744
0.0254555
0.0218121
0.0169445
0.0129085
0.0105844
0.00981609
0.0098527
0.0100691
0.0103609
0.010727
0.0111514
0.0116203
0.0121213
0.0126406
0.0131603
0.0136557
0.0140968
0.0144485
0.0146656
0.0146993
0.0146084
0.014416
0.0141476
0.0138274
0.0134767
0.0131132
0.0127482
0.0123821
0.0119877
0.0114552
0.0105989
0.00989503
0.00963408
0.00896282
0.00760951
0.00599614
0.00461306
0.00369434
0.0032881
0.00347625
0.00471579
0.00822019
0.0145924
0.01896
0.0157088
0.00954112
0.22494
0.0918585
0.0393484
0.0175465
0.0082637
0.00424544
0.00247516
0.00165805
0.00123759
0.000981442
0.000797343
0.000650943
0.000610574
0.00109
0.00301619
0.00723691
0.0134694
0.0198135
0.0236775
0.0235975
0.0202344
0.0155739
0.0124655
0.0136126
0.0196049
0.0218335
0.0239168
0.0265148
0.0292493
0.0318905
0.0341539
0.036066
0.0375906
0.0386103
0.0390393
0.0390318
0.0390556
0.0395304
0.0406447
0.0423107
0.0442484
0.0461349
0.0477366
0.0489711
0.0498926
0.0506286
0.051308
0.0520197
0.0528096
0.0537564
0.054873
0.0561443
0.0575596
0.0591131
0.0608048
0.0626421
0.0646389
0.0668151
0.0691939
0.0717982
0.0746453
0.0777395
0.0810645
0.0845747
0.0881868
0.091775
0.0951711
0.0981721
0.100559
0.102127
0.102712
0.102231
0.100689
0.098178
0.0948589
0.0909207
0.0865534
0.0819187
0.077101
0.0725973
0.0685404
0.0647053
0.0610851
0.0576797
0.0544847
0.0514924
0.0486932
0.0460762
0.0436303
0.0413441
0.0392068
0.0372081
0.0353387
0.0335906
0.0319557
0.0304243
0.0289853
0.0276259
0.0263319
0.0250926
0.0239039
0.0227695
0.0216969
0.0206944
0.0197673
0.0189169
0.0181412
0.0174354
0.0167938
0.0162097
0.0156761
0.0151855
0.0147299
0.0143008
0.0138886
0.0134817
0.0130665
0.0126268
0.0121457
0.0116085
0.0110044
0.0103271
0.00957526
0.00875525
0.00789362
0.00707004
0.00648057
0.00649477
0.0077012
0.0104235
0.0134394
0.0142455
0.0132598
0.0116757
0.00973343
0.00794473
0.00703593
0.00699981
0.0073628
0.00767807
0.00783096
0.00795401
0.00817073
0.00846435
0.00882138
0.00923344
0.00969459
0.0101972
0.0107249
0.0112518
0.011746
0.0121646
0.012452
0.0125798
0.0126082
0.0125561
0.0124493
0.0123123
0.0121669
0.0120321
0.011925
0.0118619
0.0118561
0.0119128
0.0120026
0.0120247
0.0117779
0.0111873
0.010345
0.00933819
0.0082121
0.0070443
0.00602839
0.00542014
0.00549443
0.00671924
0.0092228
0.0102214
0.00716288
0.00414181
0.696711
0.144525
0.0377437
0.0110847
0.00407696
0.00220892
0.00165885
0.00142113
0.00124062
0.00106539
0.000897766
0.000755482
0.000622882
0.000638828
0.00130281
0.00338262
0.00724691
0.0120332
0.0157495
0.016744
0.0152892
0.0132241
0.0151916
0.0184503
0.0193761
0.0200656
0.0211446
0.0224355
0.023757
0.0249868
0.0260753
0.0270703
0.0280342
0.0290468
0.0302037
0.0315867
0.0331922
0.0348796
0.0364286
0.0376368
0.0383987
0.0387314
0.0387492
0.0386096
0.0384611
0.0384124
0.0385277
0.0388359
0.039342
0.0400752
0.0409344
0.0419031
0.0429711
0.0441342
0.0453959
0.046768
0.0482726
0.0499426
0.0518218
0.053964
0.0564295
0.0592782
0.0625595
0.0662981
0.0704782
0.0750257
0.0797951
0.0845634
0.0890399
0.0928963
0.0958161
0.0975546
0.0979858
0.0971245
0.0951125
0.092164
0.0885209
0.0843977
0.0800086
0.0759589
0.072072
0.0683324
0.0647606
0.0613679
0.0581581
0.0551302
0.0522799
0.0496009
0.0470858
0.0447265
0.0425149
0.0404427
0.0385023
0.0366859
0.0349858
0.0333942
0.0319033
0.0305047
0.0291878
0.027941
0.0267554
0.0256263
0.024553
0.0235368
0.0225786
0.0216783
0.0208342
0.0200435
0.0193027
0.0186076
0.0179536
0.0173357
0.0167486
0.0161857
0.0156394
0.0150995
0.0145531
0.0139855
0.0133818
0.0127288
0.0120153
0.0112314
0.0103693
0.00943276
0.00846233
0.00756855
0.00693753
0.00682957
0.00751039
0.00877402
0.00943685
0.008781
0.00749034
0.0062863
0.00551598
0.00535488
0.00565904
0.00604091
0.00623827
0.00627352
0.00630488
0.00642964
0.00665876
0.00694897
0.00729484
0.00769743
0.00815974
0.00868194
0.00924498
0.0098173
0.0103566
0.0107951
0.0110548
0.0111928
0.0112231
0.0111696
0.0110622
0.01093
0.0107989
0.0106907
0.0106236
0.0106137
0.0106755
0.0108198
0.0110448
0.0113216
0.0115897
0.011765
0.0117557
0.0115098
0.0109766
0.010108
0.00899246
0.00789787
0.00708259
0.00677122
0.00703471
0.00645629
0.00426781
0.00330698
1.1671
0.135935
0.0188795
0.00419396
0.00241725
0.00212316
0.00192731
0.00169791
0.00143752
0.00116624
0.00089413
0.000663321
0.000548276
0.000605709
0.00123466
0.00316309
0.00635466
0.00982107
0.0123506
0.0131605
0.0129264
0.01401
0.0160846
0.0167715
0.0170062
0.0174961
0.018259
0.0191656
0.0201432
0.0211712
0.0222783
0.0235148
0.0249073
0.0264367
0.0280249
0.0295385
0.0308145
0.03171
0.0321546
0.0321723
0.0318669
0.0313842
0.0308698
0.0304379
0.0301605
0.0300722
0.0301823
0.0304856
0.0309697
0.0315558
0.032175
0.0328183
0.0334836
0.0341766
0.0349115
0.0357114
0.0366077
0.03764
0.0388569
0.0403174
0.0420932
0.0442695
0.0469409
0.0502003
0.0541205
0.0587276
0.0639712
0.0696945
0.0756175
0.0813449
0.0864167
0.0903965
0.0929637
0.0939758
0.0935073
0.0917614
0.0890169
0.085536
0.0818719
0.0782251
0.0745889
0.0710212
0.0675616
0.0642344
0.0610528
0.0580231
0.0551474
0.0524244
0.0498513
0.0474236
0.0451363
0.0429837
0.0409598
0.0390583
0.037273
0.0355967
0.0340221
0.0325407
0.0311438
0.029823
0.0285716
0.0273848
0.0262595
0.0251933
0.0241845
0.0232308
0.0223297
0.0214777
0.0206712
0.0199061
0.0191778
0.0184818
0.0178127
0.0171643
0.016529
0.0158971
0.0152566
0.0145945
0.0138981
0.0131562
0.012358
0.0114922
0.0105521
0.00955641
0.00857518
0.00771803
0.00706675
0.0067045
0.00673457
0.00693047
0.0066338
0.00576629
0.00489286
0.0044369
0.00447161
0.00482367
0.00518027
0.00533391
0.005321
0.00529775
0.0053626
0.00552761
0.00576159
0.00603812
0.00636249
0.0067485
0.00721031
0.00775979
0.00836897
0.00900114
0.00959665
0.0100183
0.010306
0.0104545
0.0104769
0.0104016
0.0102635
0.0100972
0.00993322
0.00979657
0.00970731
0.0096816
0.00973221
0.00986707
0.0100849
0.01037
0.0106907
0.0110025
0.0112563
0.0114064
0.0113871
0.011099
0.0104511
0.00950161
0.00840218
0.00725922
0.00621569
0.00486493
0.00328935
0.00318887
1.42269
0.0807578
0.00584699
0.00304268
0.00281208
0.00249963
0.00218405
0.00188323
0.0015729
0.00126551
0.0010387
0.00109309
0.00128236
0.00177925
0.00280247
0.00452128
0.00674816
0.00897033
0.0106067
0.0115544
0.0125485
0.0137495
0.0144211
0.0146623
0.0150153
0.0156208
0.016434
0.0174021
0.0185119
0.0197705
0.0211827
0.0227217
0.0243118
0.0258352
0.0271561
0.0281558
0.0287655
0.0289857
0.0288844
0.028576
0.0281899
0.0278387
0.0275988
0.0275063
0.0275664
0.0277647
0.0280776
0.0284792
0.0289382
0.0293675
0.0297444
0.0300542
0.03029
0.0304563
0.0305708
0.0306661
0.0307888
0.030997
0.0313577
0.0319447
0.032839
0.0341318
0.0359274
0.0383427
0.0414993
0.0455048
0.0504204
0.056216
0.0627171
0.0695667
0.0762353
0.0821216
0.0866931
0.0895751
0.0907234
0.0902747
0.0885216
0.0859267
0.0829697
0.0797755
0.0764704
0.0731443
0.0698567
0.0666458
0.0635357
0.0605414
0.0576714
0.0549305
0.0523202
0.0498405
0.0474895
0.0452644
0.0431614
0.041176
0.0393031
0.0375368
0.0358709
0.0342986
0.0328132
0.0314077
0.0300761
0.0288136
0.0276164
0.0264816
0.0254064
0.0243878
0.0234227
0.0225071
0.0216369
0.0208079
0.0200153
0.0192542
0.0185191
0.0178034
0.0170992
0.0163961
0.0156825
0.0149459
0.0141749
0.0133596
0.0124898
0.0115558
0.0105624
0.00955572
0.00861861
0.00778244
0.00697848
0.00623651
0.00573926
0.00538846
0.00484308
0.00418288
0.00380452
0.0038565
0.00420023
0.00456488
0.00474178
0.0047329
0.00468313
0.00470603
0.00482124
0.00500406
0.00521774
0.00545457
0.00573402
0.00608679
0.00653928
0.00711669
0.00777407
0.00847433
0.00906453
0.0095425
0.00987165
0.0100417
0.0100669
0.00997846
0.00981497
0.00961528
0.00941381
0.00923888
0.00911296
0.00905344
0.00907323
0.00918025
0.00937532
0.00964872
0.00997801
0.0103304
0.0106708
0.0109703
0.0112034
0.0112956
0.0111035
0.0105017
0.00945504
0.00795178
0.00618081
0.00437394
0.0030171
0.00306511
1.45004
0.0300661
0.00353658
0.00354021
0.00311478
0.00275694
0.0024701
0.00222801
0.00203404
0.00193352
0.00199875
0.00216714
0.00254522
0.00321
0.00422884
0.00560584
0.00719587
0.00873772
0.0100208
0.0110463
0.0118739
0.0124611
0.0128523
0.0132633
0.0138678
0.0146874
0.0156998
0.0168898
0.0182499
0.0197572
0.0213573
0.0229586
0.0244456
0.0257041
0.0266497
0.0272477
0.0275203
0.0275406
0.0274139
0.0272513
0.0271437
0.0271472
0.0272827
0.0275452
0.0279145
0.028362
0.0288558
0.0293631
0.0298346
0.0302389
0.0305441
0.0307202
0.0307443
0.030607
0.0303168
0.0299041
0.0294194
0.028929
0.0285082
0.0282386
0.0282119
0.0285368
0.0293424
0.0307728
0.0329755
0.0360907
0.0402405
0.0455023
0.0518465
0.0590487
0.0666165
0.0738505
0.0800662
0.0846141
0.0872902
0.0881071
0.0874227
0.0857716
0.0834875
0.0808017
0.0778823
0.0748464
0.0717737
0.0687173
0.0657129
0.0627844
0.0599475
0.0572128
0.054587
0.052074
0.0496757
0.0473921
0.0452219
0.0431627
0.0412111
0.0393626
0.0376124
0.035955
0.0343845
0.0328955
0.0314828
0.0301422
0.0288699
0.0276626
0.0265172
0.0254302
0.024398
0.0234168
0.0224822
0.02159
0.0207354
0.0199131
0.0191175
0.0183416
0.0175769
0.0168126
0.0160364
0.0152357
0.0143996
0.0135188
0.0125841
0.0115918
0.0105671
0.00957922
0.00867777
0.00776451
0.00669063
0.00559547
0.00480029
0.00425416
0.00375194
0.00338931
0.00337939
0.00368014
0.00406531
0.00430837
0.00434826
0.0042989
0.00429519
0.00438121
0.00452997
0.00470215
0.00486704
0.00503908
0.00525494
0.00556423
0.00600831
0.00661516
0.00731096
0.00801405
0.00866649
0.00919928
0.00957001
0.00976734
0.00980646
0.00971984
0.00954766
0.00933035
0.0091043
0.00890004
0.00874234
0.00865084
0.00864042
0.00872082
0.00889512
0.00915734
0.00949046
0.00986778
0.0102598
0.0106429
0.0110041
0.0113089
0.0114404
0.0111933
0.0103563
0.00878364
0.00665377
0.0045285
0.003102
0.00293002
1.30766
0.0178315
0.00395723
0.00381579
0.00343199
0.00313351
0.00292241
0.00278629
0.00273099
0.00278124
0.00295438
0.00323321
0.0037083
0.00440944
0.00534547
0.00647373
0.00767838
0.00880146
0.00971997
0.0104172
0.0109676
0.0114607
0.0119852
0.0126409
0.013488
0.0145334
0.0157692
0.0171807
0.0187357
0.020372
0.0219984
0.023508
0.0247999
0.0258009
0.0264812
0.026861
0.027007
0.0270163
0.0269909
0.0270133
0.0271345
0.0273747
0.027732
0.0281912
0.0287292
0.0293182
0.0299262
0.0305183
0.0310765
0.0315772
0.031973
0.0322126
0.0322468
0.0320388
0.0315755
0.0308787
0.0300092
0.0290584
0.028126
0.0272971
0.0266392
0.0262281
0.0261834
0.0266826
0.0279344
0.0301264
0.0334036
0.037887
0.0436517
0.0506386
0.0584894
0.0664566
0.0738196
0.0796899
0.0836546
0.0856127
0.085988
0.0852119
0.0836144
0.0814617
0.0789534
0.0762322
0.0733975
0.0705174
0.0676392
0.0647956
0.06201
0.0592988
0.0566737
0.0541429
0.0517116
0.0493831
0.0471584
0.0450374
0.0430182
0.0410983
0.0392739
0.037541
0.0358949
0.0343311
0.0328451
0.031433
0.030091
0.0288157
0.0276037
0.0264514
0.0253552
0.0243111
0.0233152
0.0223629
0.0214495
0.0205698
0.0197177
0.0188862
0.0180661
0.0172463
0.0164136
0.0155551
0.0146598
0.0137183
0.0127228
0.0116804
0.0106396
0.0096721
0.00874505
0.0076472
0.00627038
0.00493587
0.00402773
0.00347013
0.00310705
0.00300609
0.00322127
0.00360593
0.00392979
0.00405729
0.00403862
0.00401889
0.00408434
0.00422424
0.00438375
0.00451209
0.00460472
0.00469896
0.00484958
0.0051195
0.00557502
0.00617238
0.0068873
0.0076417
0.00834415
0.00891877
0.00932209
0.00954478
0.00960387
0.00953218
0.00936897
0.00915358
0.00892191
0.00870507
0.00852945
0.00841709
0.0083858
0.0084484
0.00861106
0.00887093
0.00921373
0.00961439
0.0100442
0.0104813
0.0109162
0.0113425
0.0116852
0.011737
0.0111748
0.00971456
0.00747131
0.00512562
0.00347824
0.00292946
1.10449
0.0149056
0.00432906
0.00413027
0.00379829
0.00356741
0.00343803
0.0034011
0.00345812
0.0036272
0.00384898
0.0042114
0.00473107
0.00540754
0.00621337
0.00708536
0.00793412
0.00868297
0.00931337
0.00987203
0.0104275
0.0110344
0.0117446
0.0126105
0.0136616
0.0149026
0.0163224
0.0178899
0.0195463
0.0212067
0.0227702
0.0241377
0.0252306
0.0260076
0.0264756
0.0266905
0.0267425
0.0267302
0.0267366
0.0268161
0.0269965
0.0272856
0.0276793
0.0281664
0.0287312
0.0293534
0.0300081
0.030664
0.0313448
0.0320144
0.0326209
0.0330987
0.0333706
0.0333568
0.0329917
0.032249
0.0311695
0.0298741
0.0285343
0.027308
0.0262852
0.0254949
0.0249742
0.0248476
0.0253586
0.0267774
0.0292932
0.0330391
0.0381208
0.0446039
0.0523408
0.0605285
0.0685003
0.0752994
0.0801014
0.0830749
0.08442
0.0844559
0.0835147
0.0818831
0.0797846
0.0773825
0.0747932
0.0720984
0.0693559
0.0666074
0.0638832
0.0612058
0.058592
0.0560539
0.0536005
0.0512376
0.0489691
0.0467967
0.0447206
0.0427396
0.0408514
0.0390532
0.0373413
0.0357119
0.0341612
0.0326854
0.031281
0.0299445
0.0286722
0.0274608
0.0263063
0.0252049
0.0241526
0.0231451
0.0221776
0.0212449
0.020341
0.0194584
0.0185879
0.0177174
0.0168333
0.015922
0.0149718
0.0139726
0.0129196
0.0118344
0.0107839
0.00981334
0.00878576
0.00744127
0.00580309
0.00434767
0.00343354
0.00294426
0.00273408
0.00282308
0.00315723
0.00354171
0.00378245
0.0038332
0.00380924
0.00384533
0.00397756
0.00415234
0.0042894
0.00434915
0.00436248
0.00438478
0.00448997
0.00473646
0.00517042
0.00579365
0.00655177
0.00735045
0.00808844
0.0086884
0.00911127
0.00935311
0.00943384
0.00938571
0.00924521
0.00904844
0.00882884
0.00861661
0.00843889
0.00832
0.00828106
0.00833856
0.00850193
0.00877041
0.0091303
0.00955557
0.0100156
0.0104886
0.0109678
0.0114608
0.0119336
0.012215
0.0119403
0.0107076
0.00852304
0.00605714
0.00415208
0.0031943
0.877127
0.0122129
0.0046922
0.00447607
0.00419589
0.00402724
0.00397025
0.00401802
0.00416369
0.00435217
0.00463205
0.0050175
0.00550401
0.00607311
0.00669252
0.00732304
0.00793319
0.00851456
0.00908538
0.00967864
0.0103278
0.0110665
0.0119335
0.0129642
0.0141766
0.0155691
0.017119
0.0187775
0.0204689
0.0220974
0.0235603
0.0247652
0.02565
0.0262
0.0264542
0.0264942
0.0264179
0.026314
0.0262472
0.0262569
0.0263628
0.0265712
0.0268795
0.0272792
0.0277593
0.0283087
0.0289157
0.0295863
0.0303177
0.0310917
0.0318739
0.0326077
0.0332118
0.0335816
0.0335976
0.0331469
0.0321743
0.0307539
0.0291043
0.027506
0.0261666
0.0251534
0.0244481
0.0240577
0.0241711
0.0251088
0.0271127
0.0303366
0.0348709
0.040813
0.0482702
0.05637
0.0643844
0.0714846
0.077051
0.0808534
0.0829805
0.0837012
0.083335
0.082175
0.0804569
0.0783578
0.076006
0.0734937
0.0708879
0.0682377
0.0655799
0.0629425
0.0603468
0.057809
0.0553413
0.0529525
0.0506487
0.0484338
0.0463097
0.0442767
0.042334
0.0404795
0.0387107
0.0370245
0.0354174
0.0338861
0.0324271
0.0310367
0.0297116
0.0284479
0.0272419
0.0260898
0.0249876
0.023931
0.0229155
0.0219357
0.0209855
0.0200575
0.0191419
0.0182263
0.0172964
0.0163377
0.0153375
0.0142847
0.0131782
0.0120554
0.0109912
0.00997816
0.00878974
0.00718701
0.00535905
0.00386789
0.00299906
0.00260061
0.00252332
0.00272962
0.00310994
0.00346277
0.00363289
0.00363972
0.00363492
0.00373078
0.00392329
0.004112
0.00417698
0.00415149
0.00410257
0.00407928
0.00414952
0.00438749
0.00484252
0.00550869
0.00631567
0.00715342
0.00791461
0.00852632
0.00895832
0.00921397
0.00931604
0.00929545
0.00918499
0.00901659
0.00882051
0.00862532
0.0084584
0.0083461
0.00831286
0.00837889
0.00855651
0.00884582
0.00923159
0.00968436
0.0101695
0.0106638
0.0111645
0.0116848
0.0122264
0.0126676
0.0126608
0.0117254
0.00972616
0.00724424
0.00512062
0.0037937
0.664706
0.0100548
0.00503846
0.00484197
0.00461634
0.00449965
0.00448873
0.00457122
0.00470618
0.00490664
0.00518337
0.00553138
0.00594152
0.00640115
0.00689675
0.00741792
0.0079609
0.00852982
0.00913577
0.00979591
0.0105344
0.0113825
0.012374
0.0135349
0.014875
0.016384
0.0180267
0.0197408
0.0214384
0.0230147
0.0243623
0.0253936
0.0260641
0.0263872
0.0264296
0.0262885
0.0260628
0.0258342
0.0256606
0.0255782
0.0256045
0.0257402
0.0259715
0.0262761
0.0266352
0.0270415
0.0275025
0.028054
0.0286865
0.0294063
0.0302005
0.0310311
0.0318322
0.0325097
0.0329388
0.0329569
0.0323898
0.0311755
0.0294717
0.0276298
0.0260056
0.0247843
0.0239969
0.023563
0.0235795
0.0243596
0.0261628
0.0291502
0.0333999
0.0389653
0.0458027
0.0535608
0.0615359
0.06887
0.074874
0.0792129
0.0818917
0.0831279
0.0832175
0.0824464
0.0810524
0.0792179
0.077078
0.0747319
0.072253
0.0696964
0.0671041
0.0645086
0.061935
0.059403
0.0569277
0.0545202
0.052189
0.0499397
0.0477759
0.0456994
0.0437104
0.041808
0.0399906
0.0382556
0.0366001
0.0350209
0.0335147
0.032078
0.0307071
0.0293985
0.0281482
0.0269525
0.0258073
0.0247085
0.0236515
0.0226311
0.0216411
0.020674
0.0197198
0.0187656
0.0177963
0.0167966
0.0157524
0.0146509
0.0134955
0.0123378
0.0112479
0.0101539
0.00877005
0.00693202
0.00498243
0.00350322
0.0026956
0.00238256
0.00240395
0.00267566
0.00305753
0.00336117
0.00347929
0.00347551
0.0035021
0.00364224
0.0038485
0.00398824
0.00398239
0.0039088
0.00382354
0.00377663
0.00384168
0.0041005
0.0046034
0.00533199
0.0061958
0.00707092
0.00784964
0.00846809
0.00890635
0.00917432
0.00929654
0.00930225
0.00922103
0.0090815
0.00891138
0.00873803
0.0085891
0.0084928
0.00847662
0.00856401
0.00876914
0.0090911
0.00951039
0.0099916
0.0104948
0.0109946
0.0114937
0.0120101
0.0125716
0.0131066
0.0133248
0.0127211
0.011008
0.00861504
0.00635024
0.00472916
0.513863
0.00865002
0.00532202
0.00517224
0.00499854
0.00491153
0.00490748
0.00496042
0.00507678
0.00526252
0.00551215
0.00582108
0.00618515
0.00660051
0.00706362
0.00757146
0.00812228
0.00871755
0.00936521
0.0100825
0.0108958
0.0118364
0.0129335
0.0142061
0.0156572
0.0172679
0.0189931
0.0207591
0.0224659
0.0239971
0.0252397
0.026112
0.0265888
0.0267088
0.0265596
0.0262487
0.0258785
0.0255326
0.0252723
0.0251358
0.0251351
0.0252545
0.0254534
0.0256806
0.0258998
0.0261121
0.0263606
0.0266975
0.0271348
0.0276914
0.0283692
0.0291449
0.0299638
0.0307454
0.0313908
0.0317568
0.0316181
0.0307883
0.0292923
0.0274463
0.0256881
0.0243114
0.0234775
0.0230969
0.0232165
0.0240454
0.0258461
0.0287839
0.0329094
0.0382574
0.0448167
0.0523254
0.0601646
0.067521
0.0736945
0.0783049
0.0813066
0.0828765
0.0832838
0.0827992
0.0816535
0.0800274
0.0780579
0.0758476
0.0734741
0.0709965
0.0684609
0.0659031
0.0633513
0.0608277
0.0583494
0.0559296
0.0535783
0.0513026
0.0491074
0.0469957
0.0449688
0.0430269
0.0411688
0.0393929
0.0376965
0.0360769
0.0345309
0.0330551
0.0316457
0.0302993
0.0290119
0.0277797
0.0265987
0.0254647
0.0243733
0.0233192
0.0222964
0.0212973
0.0203117
0.0193263
0.0183252
0.0172923
0.0162116
0.0150682
0.0138692
0.0126765
0.0115483
0.0103424
0.00875332
0.00671751
0.00469572
0.0032463
0.00249461
0.00224745
0.00233175
0.00262971
0.00298867
0.00324494
0.0033339
0.00333826
0.00338984
0.0035366
0.0037043
0.00377715
0.00373321
0.00363959
0.00354123
0.00349378
0.00358019
0.00388977
0.00446863
0.00527933
0.00620977
0.00712689
0.00792792
0.00855904
0.00900807
0.00928867
0.00942633
0.00944989
0.00938795
0.00926815
0.00911752
0.00896324
0.00883368
0.00875881
0.00876865
0.00888882
0.00913351
0.00949801
0.00995522
0.0104611
0.01097
0.0114551
0.0119258
0.012415
0.0129545
0.0135223
0.0139048
0.0136307
0.0122872
0.0100952
0.00778458
0.00595331
0.368258
0.00740373
0.00545951
0.00536944
0.00524218
0.00516646
0.00514323
0.00518502
0.0052943
0.00546826
0.00570484
0.00600266
0.00636035
0.00677564
0.00724497
0.00776433
0.00833171
0.00895069
0.00963374
0.0104027
0.0112858
0.0123128
0.0135085
0.0148876
0.0164476
0.0181641
0.0199845
0.0218251
0.0235728
0.0250983
0.0262819
0.027046
0.0273795
0.0273387
0.0270251
0.0265556
0.02604
0.0255707
0.0252186
0.0250274
0.0250041
0.0251224
0.025323
0.0255238
0.0256545
0.0256891
0.0256951
0.0257921
0.0260224
0.0263785
0.0268733
0.0275054
0.0282306
0.0289673
0.029627
0.0301035
0.0301865
0.0296556
0.0284461
0.0267896
0.0251075
0.0237595
0.0229107
0.0225935