/*--------------------------------*- C++ -*----------------------------------*\
| =========                 |                                                 |
| \\      /  F ield         | OpenFOAM: The Open Source CFD Toolbox           |
|  \\    /   O peration     | Version:  2112                                  |
|   \\  /    A nd           | Website:  www.openfoam.com                      |
|    \\/     M anipulation  |                                                 |
\*---------------------------------------------------------------------------*/
FoamFile
{
    version     2.0;
    format      ascii;
    arch        "LSB;label=32;scalar=64";
    class       volVectorField;
    location    "0.27";
    object      U_0;
}
// * * * * * * * * * * * * * * * * * * * * * * * * * * * * * * * * * * * * * //

dimensions      [0 1 -1 0 0 0 0];

internalField   nonuniform List<vector> 
12225
(
(9.76292 0.0660904 0)
(9.27049 0.106003 0)
(8.73228 0.114214 0)
(8.17969 0.115774 0)
(7.64577 0.113047 0)
(7.14619 0.106249 0)
(6.69017 0.0963411 0)
(6.28615 0.0842931 0)
(5.94019 0.0710456 0)
(5.65426 0.057535 0)
(5.42659 0.0445593 0)
(5.25253 0.0327231 0)
(5.12548 0.0223773 0)
(5.03785 0.0136515 0)
(4.98142 0.00656136 0)
(4.94957 0.00133533 0)
(4.92771 0.00414776 0)
(4.91262 0.0115605 0)
(10.0974 0.0747276 0)
(10.2937 0.111105 0)
(10.4215 0.119458 0)
(10.4834 0.128636 0)
(10.4927 0.135745 0)
(10.455 0.138401 0)
(10.3758 0.136602 0)
(10.2637 0.130611 0)
(10.1278 0.120918 0)
(9.9765 0.108366 0)
(9.81632 0.0940123 0)
(9.6524 0.0789657 0)
(9.48838 0.0641959 0)
(9.32666 0.050479 0)
(9.1689 0.0382416 0)
(9.01665 0.028729 0)
(8.8735 0.0227828 0)
(8.7554 0.0323951 0)
(10.0167 0.0393254 0)
(10.07 0.0657446 0)
(10.1261 0.0803521 0)
(10.1829 0.0974994 0)
(10.244 0.112471 0)
(10.3065 0.12304 0)
(10.3646 0.129529 0)
(10.4141 0.132254 0)
(10.4523 0.131407 0)
(10.4787 0.127643 0)
(10.4931 0.121928 0)
(10.4964 0.115309 0)
(10.4904 0.108692 0)
(10.4768 0.102741 0)
(10.4578 0.0978781 0)
(10.4357 0.0943763 0)
(10.4148 0.0916367 0)
(10.3957 0.0856752 0)
(10.0086 0.0323127 0)
(10.0409 0.0646524 0)
(10.0709 0.0805854 0)
(10.096 0.0937732 0)
(10.1224 0.104237 0)
(10.1523 0.111078 0)
(10.184 0.114589 0)
(10.2165 0.115155 0)
(10.2486 0.113155 0)
(10.2788 0.108977 0)
(10.3061 0.103196 0)
(10.3302 0.0965781 0)
(10.351 0.0897503 0)
(10.3691 0.0831327 0)
(10.3854 0.0769107 0)
(10.4012 0.0708547 0)
(10.4178 0.0640365 0)
(10.4369 0.0511464 0)
(10.0052 0.027281 0)
(10.0302 0.0587744 0)
(10.0554 0.0740053 0)
(10.0765 0.0861944 0)
(10.0978 0.0963642 0)
(10.1206 0.103111 0)
(10.1436 0.106516 0)
(10.1663 0.107141 0)
(10.1884 0.10536 0)
(10.2094 0.101601 0)
(10.2289 0.0964996 0)
(10.2469 0.0906912 0)
(10.2636 0.0846851 0)
(10.2794 0.0788003 0)
(10.2949 0.0730948 0)
(10.3108 0.067259 0)
(10.3277 0.0601602 0)
(10.3464 0.0496584 0)
(10.0034 0.0224788 0)
(10.023 0.0517759 0)
(10.0456 0.0677146 0)
(10.0657 0.0800402 0)
(10.0858 0.0899818 0)
(10.107 0.0964162 0)
(10.1282 0.0995752 0)
(10.1486 0.100002 0)
(10.1681 0.0981633 0)
(10.1864 0.0945379 0)
(10.2035 0.0896278 0)
(10.2192 0.0839492 0)
(10.234 0.0779216 0)
(10.248 0.0717826 0)
(10.2619 0.0655134 0)
(10.276 0.0587533 0)
(10.2904 0.0506073 0)
(10.305 0.0394683 0)
(10.0024 0.0187523 0)
(10.0179 0.0456271 0)
(10.0378 0.061449 0)
(10.0568 0.0732805 0)
(10.076 0.0826616 0)
(10.0962 0.0888731 0)
(10.1166 0.0920115 0)
(10.1363 0.0925151 0)
(10.1549 0.0908459 0)
(10.1724 0.0874354 0)
(10.1887 0.082758 0)
(10.2038 0.0772809 0)
(10.2178 0.0713575 0)
(10.2312 0.065168 0)
(10.2441 0.0586705 0)
(10.2569 0.0515553 0)
(10.2696 0.0431469 0)
(10.2816 0.0324272 0)
(10.0018 0.0157703 0)
(10.0142 0.0401461 0)
(10.0316 0.055484 0)
(10.0493 0.0666626 0)
(10.0674 0.0753211 0)
(10.0865 0.0810457 0)
(10.1059 0.0839398 0)
(10.1249 0.0844511 0)
(10.143 0.0829329 0)
(10.16 0.0797667 0)
(10.176 0.0753749 0)
(10.1907 0.0701531 0)
(10.2045 0.0643966 0)
(10.2175 0.0582463 0)
(10.23 0.0516709 0)
(10.242 0.0444414 0)
(10.2534 0.0361152 0)
(10.2638 0.0261706 0)
(10.0014 0.013302 0)
(10.0114 0.0350963 0)
(10.0266 0.0496534 0)
(10.043 0.060121 0)
(10.0599 0.068043 0)
(10.0778 0.073258 0)
(10.0961 0.0758548 0)
(10.1141 0.076232 0)
(10.1315 0.0747583 0)
(10.148 0.0717674 0)
(10.1635 0.067603 0)
(10.178 0.0625974 0)
(10.1916 0.0570048 0)
(10.2044 0.0509556 0)
(10.2165 0.044437 0)
(10.2279 0.0372936 0)
(10.2385 0.0292755 0)
(10.248 0.0201819 0)
(10.001 0.0112245 0)
(10.0092 0.0304345 0)
(10.0226 0.0439533 0)
(10.0377 0.0536282 0)
(10.0535 0.0607835 0)
(10.0702 0.0654508 0)
(10.0873 0.0677151 0)
(10.1043 0.0679229 0)
(10.1208 0.0664196 0)
(10.1366 0.063513 0)
(10.1515 0.0595091 0)
(10.1656 0.0546887 0)
(10.1788 0.049265 0)
(10.1913 0.0433583 0)
(10.2031 0.0369756 0)
(10.2141 0.0300449 0)
(10.2242 0.0224698 0)
(10.2331 0.0142482 0)
(10.0008 0.0094479 0)
(10.0076 0.0261406 0)
(10.0193 0.0384106 0)
(10.0331 0.0471964 0)
(10.0479 0.0535493 0)
(10.0634 0.0576266 0)
(10.0794 0.0595194 0)
(10.0954 0.0595215 0)
(10.111 0.0579496 0)
(10.126 0.0550846 0)
(10.1403 0.051192 0)
(10.1538 0.046511 0)
(10.1666 0.0412274 0)
(10.1786 0.0354587 0)
(10.1899 0.0292545 0)
(10.2005 0.0226159 0)
(10.2102 0.0155374 0)
(10.2188 0.00811835 0)
(10.0007 0.00800683 0)
(10.0065 0.0224832 0)
(10.0168 0.0334695 0)
(10.0295 0.041354 0)
(10.0433 0.0469401 0)
(10.0579 0.0504423 0)
(10.073 0.0519593 0)
(10.088 0.0517407 0)
(10.1028 0.0500719 0)
(10.1171 0.0472078 0)
(10.1307 0.0433818 0)
(10.1437 0.0388037 0)
(10.156 0.0336407 0)
(10.1676 0.0280098 0)
(10.1785 0.0219818 0)
(10.1886 0.0156053 0)
(10.1979 0.00893948 0)
(10.2063 0.00215226 0)
(10.0006 0.00673318 0)
(10.0056 0.0190934 0)
(10.0148 0.0287025 0)
(10.0264 0.035621 0)
(10.0393 0.0404205 0)
(10.053 0.0433232 0)
(10.0671 0.0444354 0)
(10.0813 0.0439686 0)
(10.0953 0.0421746 0)
(10.1089 0.0392816 0)
(10.1219 0.0354959 0)
(10.1344 0.0310018 0)
(10.1461 0.025952 0)
(10.1573 0.0204627 0)
(10.1678 0.0146218 0)
(10.1775 0.00851013 0)
(10.1865 0.00222106 0)
(10.1948 -0.00405009 0)
(10.0005 0.00542757 0)
(10.0048 0.0154847 0)
(10.0129 0.0234556 0)
(10.0234 0.0291944 0)
(10.0353 0.0330517 0)
(10.0479 0.0352295 0)
(10.0611 0.0358373 0)
(10.0744 0.035048 0)
(10.0875 0.0330728 0)
(10.1003 0.0301097 0)
(10.1127 0.0263369 0)
(10.1245 0.021914 0)
(10.1357 0.016978 0)
(10.1464 0.011643 0)
(10.1564 0.00600665 0)
(10.1658 0.000167143 0)
(10.1746 -0.00577063 0)
(10.1827 -0.0116129 0)
(10.0004 0.00408213 0)
(10.0041 0.0116748 0)
(10.0111 0.017753 0)
(10.0205 0.0220757 0)
(10.0313 0.0248127 0)
(10.0429 0.0261223 0)
(10.055 0.0261065 0)
(10.0674 0.0249007 0)
(10.0796 0.0226717 0)
(10.0916 0.019583 0)
(10.1032 0.015783 0)
(10.1144 0.0114059 0)
(10.125 0.006571 0)
(10.1351 0.00138375 0)
(10.1447 -0.00405938 0)
(10.1537 -0.0096607 0)
(10.1622 -0.0153239 0)
(10.1703 -0.0208782 0)
(10.0004 0.00269012 0)
(10.0035 0.00767543 0)
(10.0096 0.0116215 0)
(10.0179 0.0142802 0)
(10.0276 0.0156989 0)
(10.0382 0.0159782 0)
(10.0493 0.0151994 0)
(10.0606 0.0134614 0)
(10.0719 0.0108861 0)
(10.083 0.00759848 0)
(10.0938 0.00371419 0)
(10.1043 -0.000660814 0)
(10.1143 -0.00542989 0)
(10.1238 -0.010505 0)
(10.1329 -0.0158044 0)
(10.1416 -0.0212468 0)
(10.1498 -0.0267598 0)
(10.1577 -0.0322112 0)
(10.0003 0.00123565 0)
(10.003 0.00346341 0)
(10.0083 0.00505373 0)
(10.0157 0.0058041 0)
(10.0244 0.00569473 0)
(10.0339 0.00476913 0)
(10.044 0.00307628 0)
(10.0544 0.000677957 0)
(10.0647 -0.00234793 0)
(10.075 -0.0059185 0)
(10.085 -0.00995467 0)
(10.0947 -0.0143833 0)
(10.104 -0.0191374 0)
(10.113 -0.0241551 0)
(10.1215 -0.0293805 0)
(10.1297 -0.0347601 0)
(10.1376 -0.040253 0)
(10.1452 -0.0457701 0)
(10.0003 -0.000304871 0)
(10.0027 -0.00102557 0)
(10.0074 -0.00202711 0)
(10.014 -0.00343745 0)
(10.0219 -0.00530272 0)
(10.0306 -0.00762774 0)
(10.0398 -0.0104017 0)
(10.0492 -0.0136011 0)
(10.0588 -0.0171916 0)
(10.0682 -0.0211347 0)
(10.0775 -0.0253921 0)
(10.0864 -0.0299287 0)
(10.095 -0.0347127 0)
(10.1033 -0.0397164 0)
(10.1112 -0.0449163 0)
(10.1188 -0.0502918 0)
(10.126 -0.0558328 0)
(10.133 -0.061493 0)
(10.0003 -0.00200401 0)
(10.0025 -0.00597513 0)
(10.0069 -0.00984825 0)
(10.0131 -0.0136705 0)
(10.0205 -0.0175069 0)
(10.0286 -0.0214106 0)
(10.0372 -0.0254112 0)
(10.046 -0.0295232 0)
(10.0549 -0.0337558 0)
(10.0637 -0.038115 0)
(10.0722 -0.0426058 0)
(10.0805 -0.0472332 0)
(10.0884 -0.0520042 0)
(10.0959 -0.0569277 0)
(10.103 -0.0620145 0)
(10.1098 -0.0672762 0)
(10.1161 -0.0727296 0)
(10.1221 -0.0783675 0)
(10.0003 -0.00361259 0)
(10.0026 -0.0106377 0)
(10.0072 -0.0171586 0)
(10.0136 -0.0231587 0)
(10.021 -0.0287514 0)
(10.0291 -0.0340487 0)
(10.0376 -0.0391158 0)
(10.0463 -0.043998 0)
(10.055 -0.0487402 0)
(10.0635 -0.053385 0)
(10.0718 -0.0579706 0)
(10.0796 -0.0625341 0)
(10.0871 -0.0671134 0)
(10.0941 -0.0717475 0)
(10.1006 -0.0764753 0)
(10.1065 -0.0813339 0)
(10.112 -0.0863611 0)
(10.117 -0.0915776 0)
(10.0003 -0.00501445 0)
(10.003 -0.0146522 0)
(10.0081 -0.0233203 0)
(10.0149 -0.0309963 0)
(10.0227 -0.0379123 0)
(10.0311 -0.0442511 0)
(10.0398 -0.0500969 0)
(10.0487 -0.0555155 0)
(10.0575 -0.0605797 0)
(10.0661 -0.0653564 0)
(10.0744 -0.0699042 0)
(10.0822 -0.07428 0)
(10.0895 -0.0785431 0)
(10.0962 -0.0827543 0)
(10.1024 -0.0869737 0)
(10.1079 -0.0912587 0)
(10.1128 -0.0956642 0)
(10.1171 -0.100231 0)
(10.0004 -0.00645963 0)
(10.0036 -0.0186809 0)
(10.0096 -0.0292674 0)
(10.0172 -0.0383266 0)
(10.0256 -0.0463293 0)
(10.0344 -0.0535303 0)
(10.0436 -0.0600091 0)
(10.0529 -0.0658462 0)
(10.062 -0.071138 0)
(10.0709 -0.0759661 0)
(10.0794 -0.0803993 0)
(10.0874 -0.0845083 0)
(10.0947 -0.0883693 0)
(10.1015 -0.092062 0)
(10.1075 -0.0956663 0)
(10.1128 -0.099259 0)
(10.1174 -0.102913 0)
(10.1212 -0.106689 0)
(10.0005 -0.00806239 0)
(10.0046 -0.0229359 0)
(10.0119 -0.0351899 0)
(10.0205 -0.0453395 0)
(10.0296 -0.0542234 0)
(10.0391 -0.062129 0)
(10.0488 -0.0691135 0)
(10.0586 -0.0752828 0)
(10.0683 -0.0807526 0)
(10.0777 -0.085602 0)
(10.0866 -0.089896 0)
(10.0949 -0.09371 0)
(10.1026 -0.0971312 0)
(10.1095 -0.100254 0)
(10.1156 -0.103176 0)
(10.1208 -0.105992 0)
(10.1253 -0.108792 0)
(10.1288 -0.111654 0)
(10.0007 -0.00996574 0)
(10.0063 -0.0275645 0)
(10.0152 -0.0411151 0)
(10.025 -0.0520742 0)
(10.0349 -0.0617119 0)
(10.0451 -0.0702136 0)
(10.0556 -0.0775898 0)
(10.0661 -0.0839988 0)
(10.0764 -0.0895829 0)
(10.0864 -0.0944117 0)
(10.0959 -0.0985406 0)
(10.1048 -0.102045 0)
(10.1129 -0.105019 0)
(10.1202 -0.10757 0)
(10.1266 -0.109815 0)
(10.132 -0.111866 0)
(10.1365 -0.113823 0)
(10.14 -0.115777 0)
(10.0011 -0.0123881 0)
(10.0089 -0.0327578 0)
(10.02 -0.0469999 0)
(10.0311 -0.0584089 0)
(10.0418 -0.0687281 0)
(10.0529 -0.0778759 0)
(10.0643 -0.0857507 0)
(10.0757 -0.0925145 0)
(10.0867 -0.0982984 0)
(10.0975 -0.103148 0)
(10.1077 -0.107107 0)
(10.1173 -0.110251 0)
(10.126 -0.112681 0)
(10.1339 -0.114523 0)
(10.1407 -0.115931 0)
(10.1465 -0.117047 0)
(10.1513 -0.117996 0)
(10.1549 -0.118857 0)
(10.0018 -0.0156062 0)
(10.0131 -0.0391078 0)
(10.0271 -0.0536109 0)
(10.0395 -0.0650149 0)
(10.0512 -0.0754341 0)
(10.0634 -0.0845864 0)
(10.0758 -0.0925124 0)
(10.0882 -0.0994136 0)
(10.1004 -0.105358 0)
(10.1123 -0.110333 0)
(10.1238 -0.11435 0)
(10.1347 -0.117462 0)
(10.1449 -0.119753 0)
(10.1541 -0.121335 0)
(10.1624 -0.122368 0)
(10.1696 -0.122997 0)
(10.1758 -0.123367 0)
(10.1807 -0.123547 0)
(10.0034 -0.0196594 0)
(10.0199 -0.0457339 0)
(10.0379 -0.0608685 0)
(10.053 -0.0730315 0)
(10.0673 -0.0839594 0)
(10.0825 -0.0932249 0)
(10.0983 -0.100969 0)
(10.1143 -0.107584 0)
(10.1305 -0.113147 0)
(10.1469 -0.11762 0)
(10.1634 -0.121019 0)
(10.1797 -0.123407 0)
(10.1956 -0.124878 0)
(10.2107 -0.125541 0)
(10.2248 -0.125613 0)
(10.2375 -0.125254 0)
(10.249 -0.124541 0)
(10.2585 -0.123581 0)
(10.008 -0.0241962 0)
(10.0365 -0.045392 0)
(10.0674 -0.0575335 0)
(10.0965 -0.0713472 0)
(10.1282 -0.0850087 0)
(10.1638 -0.0971299 0)
(10.2011 -0.107889 0)
(10.2389 -0.117483 0)
(10.2763 -0.125903 0)
(10.3125 -0.133 0)
(10.3462 -0.138682 0)
(10.3765 -0.142934 0)
(10.4026 -0.145804 0)
(10.4241 -0.147417 0)
(10.4405 -0.147949 0)
(10.452 -0.147736 0)
(10.4589 -0.147 0)
(10.4615 -0.146321 0)
(10.052 -0.052531 0)
(10.1796 -0.0861894 0)
(10.2867 -0.0962236 0)
(10.3678 -0.10654 0)
(10.4259 -0.116649 0)
(10.4608 -0.124923 0)
(10.4729 -0.131654 0)
(10.4633 -0.137047 0)
(10.434 -0.140979 0)
(10.3872 -0.143273 0)
(10.3253 -0.14384 0)
(10.2507 -0.142691 0)
(10.1657 -0.139924 0)
(10.0727 -0.135721 0)
(9.97357 -0.130355 0)
(9.8701 -0.124226 0)
(9.7635 -0.117554 0)
(9.65559 -0.111257 0)
(9.87193 -0.0498071 0)
(9.57561 -0.0881497 0)
(9.22925 -0.101641 0)
(8.85573 -0.109435 0)
(8.47751 -0.113832 0)
(8.10368 -0.115251 0)
(7.73804 -0.114526 0)
(7.38437 -0.112102 0)
(7.04654 -0.108127 0)
(6.72767 -0.102779 0)
(6.43011 -0.0963203 0)
(6.15558 -0.0889887 0)
(5.90523 -0.0810251 0)
(5.67958 -0.0726829 0)
(5.4784 -0.0642195 0)
(5.3011 -0.0559051 0)
(5.14544 -0.0479805 0)
(5.01265 -0.0404434 0)
(-0.00172125 0.0214002 -4.64389e-22)
(0.007252 0.00395506 4.53983e-22)
(0.0302036 -0.0191359 0)
(0.0724311 -0.0448023 0)
(0.133653 -0.068971 0)
(0.211841 -0.0885723 -4.46651e-22)
(0.302973 -0.101915 0)
(0.401947 -0.108471 0)
(0.50357 -0.108996 0)
(0.602691 -0.106861 0)
(0.695893 -0.102805 4.83989e-22)
(0.780819 -0.0946976 0)
(0.85418 -0.0816554 0)
(0.913059 -0.063823 0)
(0.95507 -0.0416888 0)
(0.978269 -0.0167927 5.03377e-22)
(0.982103 0.00593837 0)
(0.965913 0.0254147 0)
(0.931534 0.0439072 0)
(0.880154 0.060502 0)
(0.813462 0.0744561 0)
(0.733596 0.0854592 0)
(0.642862 0.093399 0)
(0.543654 0.0983271 1.40749e-22)
(0.438404 0.100488 -6.25203e-23)
(0.329458 0.10028 -2.10827e-23)
(0.218961 0.0981828 -1.09818e-22)
(0.10877 0.094714 0)
(0.000456514 0.0903949 0)
(-0.104763 0.0855794 4.0683e-22)
(-0.205657 0.0804024 5.16297e-22)
(-0.300961 0.0748602 0)
(-0.389591 0.0689751 0)
(-0.470477 0.0628037 8.94549e-22)
(-0.542569 0.0564716 0)
(-0.604955 0.0503408 0)
(-0.656938 0.0449904 -1.38089e-21)
(-0.698127 0.0409468 0)
(-0.72838 0.0381883 -1.78297e-21)
(-0.74757 0.0358653 -4.01687e-21)
(-0.755397 0.0328536 0)
(-0.750629 0.0283252 0)
(-0.732542 0.0208492 0)
(-0.7005 0.00987588 0)
(-0.653835 -0.00460303 0)
(-0.592438 -0.0217655 -7.218e-21)
(-0.516744 -0.0404167 -7.77236e-21)
(-0.427953 -0.0590069 -8.31465e-21)
(-0.328116 -0.0758139 0)
(-0.219913 -0.0897101 9.31692e-21)
(-0.106204 -0.0998899 0)
(0.0102016 -0.105902 -1.01573e-20)
(0.126673 -0.107652 -1.04747e-20)
(0.240925 -0.105418 0)
(0.351074 -0.0998695 0)
(0.455823 -0.0921005 0)
(0.554614 -0.0836481 -1.12869e-20)
(0.647702 -0.0762908 0)
(0.736136 -0.0716736 0)
(0.821735 -0.071199 0)
(0.907235 -0.0764065 0)
(0.995783 -0.0872067 0)
(1.08988 -0.0971105 0)
(1.19071 -0.102207 0)
(1.29779 -0.105179 0)
(1.41162 -0.107651 1.14149e-20)
(1.53275 -0.109909 0)
(1.66148 -0.11196 0)
(1.79826 -0.11405 -1.11322e-20)
(1.94411 -0.116385 -1.10004e-20)
(2.10016 -0.118109 0)
(2.26533 -0.11636 1.06773e-20)
(2.43163 -0.105888 -1.04871e-20)
(2.58237 -0.0758663 0)
(2.68992 -0.0113889 1.00857e-20)
(2.696 0.0769692 0)
(2.59197 0.147692 0)
(2.41943 0.167755 -9.52148e-21)
(2.22818 0.142747 0)
(2.03375 0.10687 9.05168e-21)
(1.79792 0.104437 0)
(1.4661 0.151493 -8.24748e-21)
(1.01867 0.220235 -7.62477e-21)
(0.473116 0.287086 -6.80261e-21)
(-0.14345 0.342884 -1.14273e-20)
(-0.801616 0.38214 8.80807e-21)
(-1.47252 0.403013 0)
(-2.13376 0.407848 0)
(-2.76874 0.400409 0)
(-3.36636 0.384325 -2.51941e-21)
(-3.91947 0.362165 -5.09348e-21)
(-4.42314 0.335435 7.4351e-21)
(-4.8733 0.305201 0)
(-5.26611 0.26716 -1.12542e-20)
(-5.5973 0.221477 -1.26667e-20)
(-5.86256 0.173533 -1.37097e-20)
(-6.05941 0.12505 0)
(-6.1853 0.0778232 0)
(-6.23915 0.033865 0)
(-6.22207 -0.00658632 -1.3931e-20)
(-6.14807 -0.0419739 0)
(-6.01749 -0.0745014 0)
(-5.83397 -0.104527 1.00692e-20)
(-5.60103 -0.131937 0)
(-5.32265 -0.156577 0)
(-5.0033 -0.178437 3.71479e-21)
(-4.64795 -0.197484 0)
(-4.26193 -0.213608 0)
(-3.85083 -0.226641 3.75057e-21)
(-3.42039 -0.236376 6.22846e-21)
(-2.97652 -0.242683 0)
(-2.52563 -0.245344 -1.08576e-20)
(-2.07425 -0.244262 0)
(-1.62899 -0.238759 1.47608e-20)
(-1.19709 -0.227046 0)
(-0.788435 -0.208063 1.76876e-20)
(-0.408125 -0.186344 1.87646e-20)
(-0.0550117 -0.171698 0)
(0.269965 -0.163267 0)
(0.573411 -0.152338 0)
(0.854371 -0.135965 0)
(1.10711 -0.11803 0)
(1.33258 -0.100933 0)
(1.53248 -0.0857371 0)
(1.70931 -0.0728711 1.98656e-20)
(1.86607 -0.0623381 -1.94565e-20)
(2.00585 -0.0539266 0)
(2.1317 -0.0473453 0)
(2.24649 -0.0422509 0)
(2.35278 -0.0382985 0)
(2.45271 -0.0351638 -3.40662e-20)
(2.548 -0.0324948 0)
(2.6399 -0.0298027 3.21599e-20)
(2.72881 -0.0265601 -3.12656e-20)
(2.81482 -0.0225666 0)
(2.89774 -0.0179586 0)
(2.97707 -0.0130155 0)
(3.05205 -0.00788616 2.81556e-20)
(3.12172 -0.00258164 2.74977e-20)
(3.18483 0.00290374 0)
(3.23991 0.00849466 2.63208e-20)
(3.28531 0.0139989 2.57999e-20)
(3.31923 0.0190492 -2.53227e-20)
(3.33959 0.0225971 0)
(3.34372 0.0279306 0)
(3.33213 0.0369695 -2.41143e-20)
(3.30616 0.0449249 0)
(3.26652 0.0506597 0)
(3.21428 0.0548877 0)
(3.15062 0.0580215 0)
(3.07683 0.060021 2.28582e-20)
(2.99442 0.0606895 2.2709e-20)
(2.90512 0.059867 0)
(2.81086 0.0575064 2.24938e-20)
(2.71357 0.0537372 0)
(2.61487 0.0488484 0)
(2.51592 0.0431107 2.23594e-20)
(2.41738 0.0366765 0)
(2.31949 0.0296095 2.23933e-20)
(2.22222 0.0227506 0)
(2.12531 0.0171654 0)
(2.028 0.0132502 2.26226e-20)
(1.92912 0.0112607 0)
(1.82747 0.0113582 2.2835e-20)
(1.72238 0.0133136 0)
(1.61485 0.0161098 0)
(1.50916 0.0176068 0)
(1.4142 0.0148632 -2.31063e-20)
(1.34277 0.00610731 0)
(1.30762 -0.00499491 2.3186e-20)
(1.31518 -0.0185832 0)
(1.36818 -0.0321738 0)
(1.45391 -0.0375997 0)
(1.54089 -0.0281532 0)
(1.58153 -0.00435765 0)
(1.53505 0.0291457 0)
(1.38369 0.0670426 0)
(1.12899 0.0978316 -4.43064e-20)
(0.771518 0.115534 0)
(0.349398 0.123926 0)
(0.0281644 -0.0333255 1.39001e-21)
(0.0723566 -0.07107 -1.34925e-21)
(0.140908 -0.11863 0)
(0.218352 -0.171375 9.01353e-22)
(0.30632 -0.221572 0)
(0.403108 -0.262343 4.40418e-22)
(0.505271 -0.289455 -9.34248e-22)
(0.609098 -0.301205 -9.57452e-22)
(0.71098 -0.297853 0)
(0.807208 -0.281252 -1.01955e-21)
(0.8942 -0.254464 -4.78218e-22)
(0.968857 -0.219866 0)
(1.02919 -0.179181 0)
(1.07414 -0.133881 0)
(1.10325 -0.0853792 0)
(1.11658 -0.0350699 -5.00378e-22)
(1.11388 0.0156767 0)
(1.09602 0.0651079 1.0344e-21)
(1.06195 0.111677 0)
(1.01186 0.154209 0)
(0.946244 0.191814 -7.75337e-22)
(0.865763 0.223917 0)
(0.771582 0.250125 5.21036e-22)
(0.665475 0.270101 -1.3918e-22)
(0.549633 0.283734 6.17885e-23)
(0.426379 0.291292 2.08299e-23)
(0.298066 0.293331 1.08499e-22)
(0.167114 0.29055 0)
(0.0359212 0.283579 0)
(-0.0931373 0.272482 -4.02783e-22)
(-0.217657 0.257489 4.12054e-22)
(-0.33521 0.239028 0)
(-0.443591 0.21753 0)
(-0.540878 0.193301 -8.84698e-22)
(-0.625261 0.166594 0)
(-0.694938 0.137739 0)
(-0.748036 0.107136 1.36705e-21)
(-0.782699 0.0751757 0)
(-0.797223 0.0421356 -1.64598e-21)
(-0.789814 0.00826426 3.98738e-21)
(-0.758787 -0.0258651 0)
(-0.704214 -0.0593907 0)
(-0.626595 -0.0920318 1.09059e-20)
(-0.527242 -0.123024 1.20593e-20)
(-0.40841 -0.151515 1.32396e-20)
(-0.273402 -0.17651 -7.20143e-21)
(-0.126367 -0.197029 7.79916e-21)
(0.0286686 -0.21243 2.50281e-20)
(0.186996 -0.221958 -1.76643e-20)
(0.343879 -0.225686 -9.23279e-21)
(0.495364 -0.224387 0)
(0.638052 -0.219414 9.98665e-21)
(0.769399 -0.212007 -1.04255e-20)
(0.887881 -0.2034 0)
(0.993141 -0.194649 0)
(1.0859 -0.186419 0)
(1.16785 -0.179027 1.11335e-20)
(1.24172 -0.172569 0)
(1.31078 -0.167129 -2.27401e-20)
(1.37822 -0.163095 0)
(1.44646 -0.161219 -2.28465e-20)
(1.51698 -0.162427 0)
(1.5916 -0.167583 2.27807e-20)
(1.67225 -0.176292 0)
(1.76073 -0.187406 -2.25985e-20)
(1.85737 -0.19988 1.12236e-20)
(1.96181 -0.213096 0)
(2.07377 -0.226988 2.21108e-20)
(2.19352 -0.242181 1.09578e-20)
(2.32227 -0.259367 1.08279e-20)
(2.4617 -0.276846 0)
(2.61086 -0.287112 1.04607e-20)
(2.76164 -0.276341 1.03254e-20)
(2.89535 -0.227177 0)
(2.98745 -0.123909 -9.94969e-21)
(3.03136 0.0266803 1.94179e-20)
(2.9877 0.17723 0)
(2.82236 0.275653 9.34648e-21)
(2.53379 0.329938 0)
(2.11606 0.409599 -2.68594e-20)
(1.54785 0.563439 0)
(0.828923 0.758884 2.46033e-20)
(0.00210173 0.931871 7.54037e-21)
(-0.869684 1.0483 -6.33682e-21)
(-1.73168 1.10357 -1.00594e-20)
(-2.54305 1.10473 7.25056e-21)
(-3.27945 1.06412 0)
(-3.93089 0.995956 0)
(-4.49647 0.912045 0)
(-4.98027 0.82058 8.75735e-21)
(-5.38812 0.726433 4.91288e-21)
(-5.72601 0.63198 -7.19688e-21)
(-5.99932 0.538307 0)
(-6.21301 0.445817 -1.22815e-20)
(-6.37104 0.354068 1.23589e-20)
(-6.47708 0.262801 1.33985e-20)
(-6.53424 0.172181 0)
(-6.54581 0.0835402 0)
(-6.51376 -0.00137566 0)
(-6.43937 -0.0819074 1.36167e-20)
(-6.31103 -0.156665 0)
(-6.13123 -0.226507 -2.38688e-20)
(-5.90138 -0.291182 -3.04617e-20)
(-5.6244 -0.350113 1.69061e-20)
(-5.30393 -0.402632 0)
(-4.9443 -0.448114 4.55707e-21)
(-4.5506 -0.486043 0)
(-4.12807 -0.515947 -1.54995e-21)
(-3.68233 -0.537616 2.87055e-21)
(-3.21945 -0.551756 5.35507e-21)
(-2.74615 -0.557951 0)
(-2.26908 -0.555878 3.11591e-20)
(-1.79472 -0.545244 -2.4713e-20)
(-1.32978 -0.5261 -1.44008e-20)
(-0.880163 -0.499127 0)
(-0.44972 -0.466356 -1.73423e-20)
(-0.0386609 -0.432368 -5.50314e-20)
(0.347797 -0.396885 0)
(0.706735 -0.363014 -3.9083e-20)
(1.03698 -0.332325 -3.96805e-20)
(1.33496 -0.300626 -3.99508e-20)
(1.6028 -0.268786 0)
(1.84211 -0.238524 0)
(2.0548 -0.210848 0)
(2.24346 -0.186336 1.92367e-20)
(2.41117 -0.165173 1.89387e-20)
(2.56108 -0.147352 0)
(2.69634 -0.132835 3.60424e-20)
(2.81996 -0.121387 3.51016e-20)
(2.93465 -0.112602 0)
(3.04271 -0.106009 3.32758e-20)
(3.14603 -0.101157 6.45395e-20)
(3.24611 -0.097657 -3.14516e-20)
(3.34409 -0.0949706 -3.04407e-20)
(3.44075 -0.0924716 0)
(3.53627 -0.0897584 0)
(3.63019 -0.086589 0)
(3.72144 -0.0827091 -2.76764e-20)
(3.8084 -0.0778447 2.69535e-20)
(3.88893 -0.0717542 5.28924e-20)
(3.96055 -0.0642499 -2.59625e-20)
(4.02047 -0.0551894 2.54378e-20)
(4.06604 -0.0444621 2.50405e-20)
(4.0955 -0.0318263 0)
(4.10956 -0.0166549 0)
(4.10417 -0.00389297 -2.3972e-20)
(4.07584 0.00802957 0)
(4.0252 0.0195983 0)
(3.95337 0.0303721 4.63104e-20)
(3.86235 0.0400149 0)
(3.75514 0.0483844 2.28568e-20)
(3.63532 0.0555142 -2.25655e-20)
(3.5065 0.0614539 0)
(3.3722 0.0661561 2.24582e-20)
(3.23567 0.0697192 0)
(3.09971 0.0724341 0)
(2.96643 0.0745283 -2.21343e-20)
(2.83721 0.0761531 4.42135e-20)
(2.71287 0.0773362 -2.21018e-20)
(2.5937 0.0784675 0)
(2.47933 0.0800023 0)
(2.36872 0.0819199 2.21247e-20)
(2.26041 0.0840551 0)
(2.15269 0.08601 2.23269e-20)
(2.04399 0.0868872 0)
(1.93368 0.0850743 0)
(1.82328 0.0783381 0)
(1.7185 0.0646582 2.28678e-20)
(1.63132 0.0435772 0)
(1.57915 0.016293 -2.30364e-20)
(1.57937 -0.0147323 0)
(1.63114 -0.0414504 0)
(1.71689 -0.052757 4.64614e-20)
(1.80262 -0.0386271 -4.65112e-20)
(1.84702 0.00319442 0)
(1.8051 0.0641478 0)
(1.6338 0.132464 0)
(1.32096 0.200776 1.31265e-19)
(0.877055 0.25658 0)
(0.356553 0.289102 -7.82844e-20)
(0.0462976 -0.180568 1.88476e-23)
(0.11997 -0.247037 1.79416e-21)
(0.223467 -0.314483 0)
(0.330026 -0.383647 -1.81293e-21)
(0.439002 -0.444793 0)
(0.547996 -0.489672 0)
(0.653491 -0.513844 -7.94441e-23)
(0.752658 -0.516281 9.4588e-22)
(0.843347 -0.498272 1.08901e-21)
(0.923747 -0.462456 1.0095e-21)
(0.99219 -0.411926 0)
(1.04716 -0.349647 0)
(1.08746 -0.278366 -1.25976e-21)
(1.11226 -0.200668 -2.56415e-21)
(1.12105 -0.119027 2.58033e-21)
(1.11377 -0.0358506 0)
(1.09007 0.0464478 2.50696e-21)
(1.04994 0.126179 -1.03266e-21)
(0.993953 0.202093 0)
(0.922834 0.273002 2.11066e-21)
(0.837553 0.337733 7.74091e-22)
(0.739305 0.395013 -1.67783e-21)
(0.629353 0.442874 -5.19868e-22)
(0.508867 0.48025 0)
(0.379403 0.507196 8.27804e-22)
(0.242801 0.524172 5.04653e-22)
(0.100889 0.531497 0)
(-0.0445404 0.52954 -1.89418e-22)
(-0.191239 0.519345 0)
(-0.337313 0.501478 -9.41842e-22)
(-0.481455 0.475715 -9.05308e-22)
(-0.621651 0.442484 0)
(-0.755743 0.402685 0)
(-0.881462 0.357039 0)
(-0.996135 0.305968 0)
(-1.09657 0.249743 0)
(-1.17909 0.188612 0)
(-1.23991 0.12297 -5.33767e-21)
(-1.27526 0.0535994 9.52446e-21)
(-1.28188 -0.0182708 0)
(-1.25582 -0.091929 0)
(-1.1956 -0.166746 0)
(-1.1013 -0.240528 -3.65609e-22)
(-0.973863 -0.310693 -1.1795e-20)
(-0.815317 -0.37452 -2.56758e-20)
(-0.628709 -0.429427 2.81035e-20)
(-0.418133 -0.473023 1.5213e-20)
(-0.187783 -0.503474 -1.64851e-20)
(0.0571202 -0.519813 -1.54489e-23)
(0.310672 -0.521881 -1.84277e-20)
(0.567406 -0.510583 0)
(0.820552 -0.487206 -1.99708e-20)
(1.06325 -0.453722 -1.57092e-22)
(1.28933 -0.412989 0)
(1.49321 -0.368398 0)
(1.67034 -0.323759 2.19313e-20)
(1.81758 -0.283499 0)
(1.93405 -0.252951 0)
(2.02138 -0.234981 -2.27183e-20)
(2.08336 -0.229746 -4.52722e-20)
(2.12588 -0.235723 2.25253e-20)
(2.15637 -0.250185 0)
(2.18233 -0.269697 -2.24964e-20)
(2.21033 -0.291242 0)
(2.24533 -0.313051 -2.25044e-20)
(2.29031 -0.334234 -2.22301e-20)
(2.34656 -0.354497 4.42703e-20)
(2.41417 -0.374444 2.19887e-20)
(2.49288 -0.396009 0)
(2.58315 -0.421245 -4.29124e-20)
(2.68558 -0.447246 0)
(2.79648 -0.459482 -6.23668e-20)
(2.90203 -0.431617 -4.07989e-20)
(2.97693 -0.336859 -4.00121e-20)
(2.99079 -0.162637 3.92812e-20)
(2.92142 0.0831406 -5.77837e-20)
(2.75332 0.362678 0)
(2.45922 0.623691 0)
(2.0003 0.863972 3.63289e-20)
(1.35053 1.13798 5.32984e-20)
(0.535552 1.45695 0)
(-0.361263 1.74289 -1.61803e-20)
(-1.25014 1.92551 0)
(-2.07259 1.99201 3.49474e-20)
(-2.79751 1.9588 2.77968e-21)
(-3.41785 1.85463 -2.96828e-21)
(-3.94282 1.70868 -6.8485e-21)
(-4.3888 1.54421 0)
(-4.7725 1.37629 -3.76991e-21)
(-5.10737 1.21266 2.5588e-21)
(-5.40232 1.05593 0)
(-5.662 0.90584 0)
(-5.88764 0.76088 0)
(-6.07831 0.619219 2.30426e-20)
(-6.23165 0.479722 0)
(-6.34418 0.342078 0)
(-6.41169 0.206222 0)
(-6.43017 0.072274 0)
(-6.39659 -0.0592442 0)
(-6.30858 -0.187099 2.99446e-20)
(-6.16593 -0.310373 0)
(-5.97002 -0.426739 2.37492e-20)
(-5.72269 -0.534709 2.05545e-20)
(-5.42674 -0.632993 -1.68212e-20)
(-5.0859 -0.720402 0)
(-4.70485 -0.795779 -8.12278e-21)
(-4.2884 -0.858262 0)
(-3.84125 -0.908527 1.54262e-21)
(-3.36832 -0.945537 -6.49119e-21)
(-2.87655 -0.968566 -3.29532e-20)
(-2.37418 -0.977737 0)
(-1.86839 -0.973382 -6.10254e-20)
(-1.3663 -0.955758 -2.42394e-20)
(-0.874352 -0.925322 0)
(-0.397829 -0.883735 -6.32284e-20)
(0.0590958 -0.833748 -6.8618e-20)
(0.491454 -0.777822 1.08733e-19)
(0.894832 -0.718372 0)
(1.26633 -0.658362 3.84611e-20)
(1.60328 -0.598183 3.89874e-20)
(1.90668 -0.53729 1.17767e-19)
(2.17921 -0.477258 0)
(2.42229 -0.420549 0)
(2.63809 -0.369173 0)
(2.82944 -0.324387 3.78214e-20)
(2.99927 -0.286339 0)
(3.15083 -0.254739 0)
(3.28731 -0.229241 -3.54923e-20)
(3.41184 -0.209229 -3.45864e-20)
(3.52713 -0.193863 0)
(3.63553 -0.182338 0)
(3.73912 -0.173838 -6.36968e-20)
(3.83982 -0.16751 0)
(3.93939 -0.162534 6.02811e-20)
(4.03897 -0.158113 5.84652e-20)
(4.13895 -0.153428 0)
(4.23906 -0.147633 0)
(4.3384 -0.139926 -5.42747e-20)
(4.43554 -0.129595 -2.50053e-22)
(4.52868 -0.116048 -2.53294e-22)
(4.61576 -0.0988235 0)
(4.69453 -0.0776206 -1.00304e-19)
(4.76258 -0.0524524 0)
(4.81699 -0.0239954 0)
(4.85216 0.00453033 0)
(4.86681 0.0331083 4.74111e-20)
(4.8614 0.0621124 0)
(4.83184 0.0902498 -9.23801e-20)
(4.77561 0.116228 -4.60158e-20)
(4.69223 0.138911 0)
(4.58238 0.157313 -4.54377e-20)
(4.44838 0.170789 0)
(4.29412 0.179193 0)
(4.12456 0.182811 -1.34597e-19)
(3.94482 0.18221 8.94939e-20)
(3.76062 0.178343 0)
(3.57729 0.172292 8.92511e-20)
(3.39932 0.165132 -4.46463e-20)
(3.22999 0.157737 0)
(3.07116 0.150743 0)
(2.92331 0.144768 0)
(2.78587 0.140407 -1.34213e-19)
(2.65747 0.138033 0)
(2.53624 0.13756 -4.50374e-20)
(2.42043 0.137992 0)
(2.30902 0.13688 0)
(2.20271 0.12999 0)
(2.10507 0.111734 0)
(2.02318 0.076842 0)
(1.96696 0.0244672 0)
(1.9451 -0.0351066 -9.23501e-20)
(1.96053 -0.0849016 0)
(2.00625 -0.104793 -4.64575e-20)
(2.05728 -0.0777871 1.39728e-19)
(2.06864 0.00215007 0)
(1.98706 0.125062 0)
(1.77329 0.266034 -9.01425e-20)
(1.4182 0.40118 -8.72081e-20)
(0.94013 0.500497 8.32034e-20)
(0.387529 0.55267 7.79256e-20)
(0.0543607 -0.376421 -2.88584e-21)
(0.144221 -0.474964 -2.77549e-21)
(0.263767 -0.554742 -1.91169e-21)
(0.381964 -0.625888 -1.0431e-21)
(0.49608 -0.679484 0)
(0.603493 -0.709249 2.1029e-21)
(0.701335 -0.713105 -1.21685e-21)
(0.787901 -0.691921 0)
(0.862225 -0.648143 -1.08098e-21)
(0.923532 -0.584932 0)
(0.971048 -0.505675 2.7039e-21)
(1.004 -0.413706 0)
(1.02171 -0.312199 1.25832e-21)
(1.02366 -0.204136 2.56482e-21)
(1.00954 -0.0923077 -2.58435e-21)
(0.978947 0.0207073 0)
(0.93205 0.132228 -2.50994e-21)
(0.869164 0.240211 0)
(0.790633 0.342945 0)
(0.697377 0.438506 -2.11276e-21)
(0.590729 0.523751 0)
(0.472907 0.598439 -4.93269e-22)
(0.345109 0.663083 0)
(0.20651 0.715723 0)
(0.0576638 0.75466 5.72741e-22)
(-0.0997771 0.780141 -5.05377e-22)
(-0.264426 0.793013 -7.97184e-22)
(-0.435848 0.793948 1.87254e-22)
(-0.613673 0.784079 0)
(-0.797509 0.764786 1.12664e-21)
(-0.98658 0.736293 0)
(-1.17921 0.698574 9.31616e-22)
(-1.37218 0.651531 0)
(-1.56062 0.59434 0)
(-1.73822 0.52555 -2.2607e-21)
(-1.89788 0.443786 0)
(-2.03241 0.348387 3.43173e-21)
(-2.13508 0.239808 1.07243e-21)
(-2.20025 0.119862 -1.09977e-20)
(-2.22482 -0.00870146 1.17617e-20)
(-2.20625 -0.14283 0)
(-2.14382 -0.278824 0)
(-2.03783 -0.412092 8.27352e-21)
(-1.88998 -0.538126 0)
(-1.70295 -0.652724 1.2365e-20)
(-1.48022 -0.752144 -1.35831e-20)
(-1.22585 -0.833204 -1.48075e-20)
(-0.944279 -0.893395 0)
(-0.640386 -0.931351 1.72072e-20)
(-0.319537 -0.946329 1.83465e-20)
(0.0126315 -0.938271 -3.85135e-20)
(0.349822 -0.907974 2.00321e-20)
(0.685288 -0.85809 2.06107e-20)
(1.01222 -0.792149 0)
(1.32403 -0.714286 0)
(1.61442 -0.629261 -2.17731e-20)
(1.87933 -0.542188 0)
(2.11353 -0.458005 0)
(2.31047 -0.381299 4.4628e-20)
(2.4657 -0.317216 4.47725e-20)
(2.57729 -0.272669 0)
(2.64696 -0.251904 0)
(2.68109 -0.253884 0)
(2.69044 -0.27377 0)
(2.68762 -0.30541 4.44445e-20)
(2.68409 -0.343047 -4.44408e-20)
(2.68829 -0.382302 -4.39358e-20)
(2.70498 -0.421104 -8.73611e-20)
(2.73602 -0.460563 0)
(2.78166 -0.502731 -1.50374e-22)
(2.83958 -0.541496 0)
(2.89992 -0.552314 4.13406e-20)
(2.94113 -0.495192 -5.55438e-23)
(2.93221 -0.334523 3.99028e-20)
(2.84018 -0.0609286 -3.92207e-20)
(2.64105 0.304542 2.69126e-23)
(2.32011 0.722162 0)