/*--------------------------------*- C++ -*----------------------------------*\
| =========                 |                                                 |
| \\      /  F ield         | OpenFOAM: The Open Source CFD Toolbox           |
|  \\    /   O peration     | Version:  2112                                  |
|   \\  /    A nd           | Website:  www.openfoam.com                      |
|    \\/     M anipulation  |                                                 |
\*---------------------------------------------------------------------------*/
FoamFile
{
    version     2.0;
    format      ascii;
    arch        "LSB;label=32;scalar=64";
    class       volVectorField;
    location    "0.09";
    object      U_0;
}
// * * * * * * * * * * * * * * * * * * * * * * * * * * * * * * * * * * * * * //

dimensions      [0 1 -1 0 0 0 0];

internalField   nonuniform List<vector> 
122250
(
(-33.8092 1.21794 0.50296)
(-8.92213 3.36023 3.65498)
(-44.0911 -1.17229 8.30956)
(20.9307 0.588321 8.22374)
(-6.36563 1.58663 1.0974)
(5.30933 0.5391 5.03729)
(-3.46318 1.17975 5.05238)
(-0.801153 0.960124 5.00915)
(-1.70772 0.397222 4.05817)
(0.414787 0.261968 4.34542)
(-0.0665472 0.603805 0.460388)
(0.490492 0.559884 -1.40209)
(0.159924 0.571214 -2.6049)
(0.375612 0.566556 -3.39533)
(0.626378 0.528331 -4.02707)
(1.52275 0.526971 -3.96388)
(2.24728 0.529739 -3.39074)
(2.26494 0.0212716 -2.24272)
(-37.9459 5.59781 0.705515)
(-5.2345 8.75587 3.31795)
(-38.5612 -4.66481 5.13083)
(6.32052 2.72691 14.308)
(-15.1194 5.07866 2.22334)
(1.40436 2.22934 3.22761)
(-5.60498 2.82303 7.58206)
(0.607242 1.73208 7.16869)
(0.762117 0.956664 6.10276)
(0.898017 0.945746 5.17935)
(0.112594 1.32884 -0.485217)
(0.734541 1.30527 -2.70294)
(0.360219 1.20005 -3.33659)
(0.711809 1.04425 -3.97081)
(0.923435 0.773203 -4.35721)
(1.45657 0.637437 -4.26069)
(2.24133 0.644542 -3.72716)
(3.04387 0.217111 -2.81962)
(-35.3202 8.72986 0.452738)
(-0.0330479 12.5583 1.37006)
(-36.6332 -9.81803 0.324851)
(-2.87479 2.93631 13.772)
(-17.2669 6.24706 2.2318)
(-1.9495 2.22984 2.57142)
(-6.46845 3.18381 8.42242)
(0.989471 1.9601 6.76488)
(0.473772 1.59835 5.71028)
(0.271266 2.0176 4.65437)
(0.148205 2.73835 -1.2395)
(0.695886 2.4003 -2.77353)
(0.13932 1.91318 -2.59051)
(0.155869 1.42582 -2.74704)
(0.0831881 1.09493 -2.38152)
(0.462293 0.955369 -1.63484)
(1.14168 0.75137 -0.780308)
(2.02727 0.199002 -0.148266)
(-32.6621 11.1328 0.21705)
(5.34213 16.1632 -0.45902)
(-33.2865 -12.0459 -3.3979)
(-14.8686 0.578948 2.74517)
(-17.0567 8.21019 0.914397)
(-2.77344 1.36923 2.51056)
(-7.03609 3.06104 7.40615)
(0.491454 1.90566 6.11132)
(-0.613874 2.19899 5.1914)
(-0.581045 2.86946 3.84129)
(0.0715257 3.69578 -2.13112)
(0.33203 2.80635 -2.0972)
(-0.338302 1.91056 -0.756939)
(-0.249441 1.34778 -0.257192)
(-0.14071 0.989458 0.473881)
(0.399814 0.712019 1.04682)
(1.19821 0.411882 1.4843)
(2.20085 0.0556488 1.71277)
(-30.2579 13.3432 0.0202173)
(12.3667 18.8341 -1.30777)
(-23.7426 -11.4966 -3.75631)
(-21.5817 -3.89966 -4.4624)
(-14.7663 7.30277 1.84222)
(-7.97687 -1.32974 0.836983)
(-5.74654 2.54175 6.15329)
(-1.52976 1.68001 5.39874)
(-2.1368 2.96555 4.56012)
(-0.898135 3.82991 2.6675)
(0.0780003 4.62224 -2.21072)
(-0.299874 3.52909 0.00832297)
(-0.190406 2.00047 1.77772)
(0.604895 1.19896 2.1972)
(0.992568 0.606474 2.37358)
(1.34975 0.086829 2.50435)
(2.02162 -0.195327 2.5884)
(2.95013 -0.25964 2.53841)
(-28.6141 14.3748 -0.0553024)
(22.0648 22.1301 -1.03653)
(-11.8551 -9.67236 -2.54122)
(-13.5121 -9.95366 -5.91058)
(-13.5375 5.32362 0.970313)
(-4.97897 -3.59784 -2.78396)
(-6.24995 1.1747 4.11743)
(-3.51428 2.01664 3.60267)
(-3.87012 3.56714 3.40516)
(-1.37819 4.47029 1.46815)
(-0.823067 5.13026 -1.14182)
(0.18093 2.72809 2.40171)
(0.933399 0.433587 2.98089)
(1.64166 -0.275199 3.31752)
(2.06165 -0.437411 3.29899)
(2.05278 -0.747667 2.9601)
(2.30861 -0.968745 2.35493)
(2.98959 -0.81406 1.64404)
(-28.4461 13.7777 -0.0458247)
(29.8954 22.4594 -0.333336)
(-4.41083 -6.95664 -2.16986)
(-5.86262 -10.2661 -5.32159)
(-12.7923 1.42104 -2.53988)
(-2.08045 -5.44389 -3.89516)
(-7.79309 0.781236 1.71995)
(-4.90624 2.38532 1.86001)
(-4.43626 4.35623 2.39312)
(-1.1874 5.23932 2.08079)
(-0.692649 5.21703 2.59134)
(2.64279 2.32212 3.492)
(2.19537 -0.0999174 2.7264)
(0.705684 -0.715455 2.52024)
(0.545337 -0.595947 1.55877)
(0.81299 -0.601091 0.467722)
(1.40077 -0.839312 -0.279302)
(2.18209 -0.833629 -0.783107)
(-29.7286 11.939 0.0482928)
(34.8024 21.8432 0.150992)
(7.90205 -4.03404 -1.48498)
(2.04077 -10.952 -3.98981)
(-9.37924 -2.85705 -5.1611)
(-2.46186 -6.41765 -4.48121)
(-7.97698 -0.171823 0.802043)
(-4.9649 2.21554 1.22937)
(-4.54927 4.76909 2.24226)
(-0.854426 5.74179 3.46959)
(-1.19153 3.79693 4.09371)
(2.17915 1.01069 0.619299)
(1.5688 0.0643358 -0.0638895)
(1.50839 -0.184249 0.503556)
(1.74927 -0.383266 0.66557)
(2.24465 -0.987725 0.679542)
(2.74725 -1.73401 0.699687)
(2.97851 -1.9386 0.00505082)
(-31.6252 9.56791 0.153442)
(37.3899 20.3901 0.127978)
(11.6287 -2.92636 -1.22626)
(6.84766 -9.31361 -2.6224)
(0.946877 -4.63921 -4.76508)
(0.645034 -6.30489 -4.91906)
(-6.93966 -1.735 -0.291821)
(-3.68636 1.2766 1.62054)
(-3.6393 4.55472 2.94092)
(-1.55092 5.1559 4.5216)
(0.443788 3.26099 0.827004)
(3.2077 0.44043 -2.90334)
(3.55982 -0.860275 -3.2602)
(3.74415 -1.32538 -2.21194)
(4.36966 -1.31471 -0.66877)
(5.13247 -1.61157 0.651209)
(5.46607 -2.17885 1.82635)
(5.47039 -2.15651 1.89888)
(-33.3391 7.24953 0.22914)
(38.3389 18.1562 -0.153524)
(13.262 -2.21447 -1.17735)
(9.00635 -8.03734 -1.86206)
(3.98157 -5.72725 -3.29705)
(5.83283 -5.18525 -4.09788)
(-3.11445 -1.79395 -2.4629)
(-2.19709 0.495087 1.80954)
(-2.74714 3.82288 2.29386)
(-0.309954 4.45968 1.70472)
(3.62898 2.49851 -2.73084)
(6.17809 -0.168603 -3.81859)
(6.41262 -1.28655 -3.47281)
(5.88686 -1.56078 -3.34177)
(5.87769 -1.38078 -2.87474)
(6.48163 -1.49331 -1.4735)
(6.33685 -2.42058 0.819996)
(5.9856 -2.97356 2.4251)
(-34.4998 5.25445 0.302788)
(38.2738 15.0315 -0.788545)
(11.7617 -1.9927 -1.11391)
(10.1665 -6.10799 -1.28435)
(5.18083 -6.0305 -2.13735)
(7.23661 -4.33085 -1.87626)
(2.8289 -0.884684 -3.21856)
(2.48762 -1.0141 0.474692)
(-1.71916 2.96069 2.25931)
(2.33535 4.25574 -0.172426)
(4.47366 2.78782 -1.78489)
(4.94162 1.14869 -1.23857)
(5.02797 -0.0872644 -0.447096)
(5.21499 -0.968645 -0.25851)
(5.65028 -1.06756 -0.873807)
(6.98063 -0.812707 -1.0509)
(7.52195 -1.46144 0.407273)
(6.51226 -2.50144 2.28879)
(-34.9432 3.72599 0.388679)
(38.2097 12.2955 -0.662682)
(9.18078 -1.70717 -0.669949)
(10.2233 -4.14981 -0.651316)
(6.73922 -5.20559 -0.964567)
(7.31848 -3.66689 0.320408)
(7.339 -0.321838 -1.3708)
(7.97843 0.511942 -1.58553)
(0.967653 2.04874 1.17432)
(2.0716 2.86956 1.52695)
(3.67832 2.82809 0.762544)
(5.44929 1.86002 0.185671)
(7.78372 0.578684 0.367729)
(9.53466 -0.781222 1.14452)
(9.51584 -1.45022 1.34205)
(9.69442 -1.14967 0.830935)
(10.0682 -1.3427 0.962418)
(8.65992 -2.16929 1.88024)
(-34.7145 2.39378 0.509854)
(37.1075 6.59251 0.385188)
(4.86175 -1.65898 -0.770497)
(9.73722 -1.94077 -0.171343)
(6.39331 -4.14273 0.351616)
(6.67351 -2.92147 1.31431)
(7.70624 -0.29753 1.00134)
(10.7117 1.12952 0.178294)
(9.98728 2.56322 -0.253273)
(9.32206 2.73546 0.428463)
(8.65015 2.50492 1.06312)
(9.18154 1.80644 0.583303)
(10.9674 1.01051 -0.593318)
(13.355 0.163961 -1.11091)
(14.5709 -0.480604 -0.688904)
(14.617 -0.33676 0.0232964)
(14.0121 -0.463909 0.933062)
(10.9365 -1.3608 1.74818)
(-34.1267 0.854941 0.778291)
(35.2996 4.40337 3.5264)
(0.693672 2.13164 0.240967)
(9.24766 1.15826 0.333429)
(4.27541 -2.91264 1.29369)
(4.63048 -2.14058 1.76204)
(6.00468 -0.586672 1.57768)
(8.29453 0.532895 1.4256)
(10.7294 1.78502 0.537502)
(12.4481 2.31302 0.0697295)
(13.5164 1.96663 0.0181058)
(14.5099 1.12731 -0.470065)
(15.8017 0.456445 -0.858762)
(16.4756 -0.192584 -0.333973)
(15.4162 -0.653872 0.265304)
(14.7462 -0.367239 0.838127)
(14.7474 0.269927 1.69373)
(11.6794 0.38359 1.90706)
(-33.3394 -1.23401 1.63187)
(34.3179 1.56506 -4.62299)
(-6.4555 4.63649 -4.82442)
(8.82401 4.79505 0.890489)
(2.37707 -2.44943 1.33897)
(4.4056 -2.02825 1.06933)
(5.72362 -0.858463 -0.0474041)
(7.09236 0.0581281 -0.716564)
(8.25817 0.392027 -1.12271)
(9.54394 0.437642 -1.0393)
(10.8607 0.438132 -0.87982)
(12.1141 0.570481 -0.606497)
(12.9632 0.587846 0.271885)
(12.7072 0.398309 0.929879)
(11.5145 0.174079 0.605492)
(11.2742 -0.0191497 0.697591)
(11.3095 0.245106 1.66231)
(8.83174 0.895197 1.78002)
(-33.4382 -3.16078 4.75194)
(31.9839 2.76976 6.97837)
(-12.9945 7.73999 -10.0022)
(9.96291 1.78347 -8.73627)
(1.6145 -2.89974 0.0917924)
(6.64591 -3.0837 -1.77754)
(6.67212 -2.71279 -2.94744)
(7.18141 -0.450077 -2.6437)
(7.9206 0.209995 -2.11296)
(8.85883 -0.590234 -0.904798)
(9.738 -1.12605 -0.0766936)
(10.833 -1.01963 0.0327443)
(11.8291 -0.864958 0.254941)
(12.1759 -0.430289 0.814924)
(12.0672 0.228558 1.447)
(11.8735 0.910663 2.05412)
(10.03 1.95789 2.00214)
(6.61474 2.51272 1.70825)
(-36.0582 -0.416683 8.5417)
(19.286 4.57498 17.093)
(-18.9341 9.96897 -5.69613)
(7.49889 -0.702983 -7.65091)
(6.42727 -2.20687 -3.01346)
(9.36678 -2.54958 -5.03241)
(4.74062 -2.96946 -3.87737)
(4.04015 -2.65406 -2.09706)
(6.82117 -2.23402 1.4164)
(7.84892 -0.952654 4.61755)
(6.67744 -0.286907 4.8122)
(5.95268 0.13365 3.58435)
(5.76149 0.758969 2.74777)
(5.72186 1.27158 2.45474)
(5.36045 1.49154 2.37161)
(4.38075 1.7969 2.33196)
(3.29088 2.01378 2.45672)
(2.90739 1.52401 2.91266)
(-35.6403 3.13726 7.39)
(32.4273 -3.41841 18.6504)
(4.41661 -8.50367 1.89233)
(8.82491 -7.89596 -6.83682)
(6.40206 -3.24328 -4.34334)
(8.01962 -0.899483 -5.36634)
(2.02012 -3.13769 -2.8806)
(2.80876 -0.812784 -0.18451)
(3.12651 0.763201 1.28075)
(2.77177 0.762776 1.67266)
(2.00616 -0.814701 1.26371)
(2.28901 -1.85741 1.21011)
(2.58291 -1.84758 0.934953)
(2.95432 -1.0187 0.776959)
(3.10882 0.101804 0.714962)
(2.99902 0.870404 0.608322)
(2.82906 0.822979 0.42026)
(2.73471 0.250398 0.10773)
(-31.4927 3.45284 4.15504)
(31.1029 -1.77059 8.4696)
(4.66695 -5.47561 -0.541464)
(-3.82402 -0.888782 -1.63148)
(-10.641 0.291437 -0.641826)
(5.79292 -1.7403 -2.75969)
(-1.25227 -0.87962 2.59188)
(-1.12066 -1.87395 1.77868)
(-2.64275 -1.43546 0.897536)
(-1.883 -0.867467 0.884086)
(-2.45559 -0.577525 0.394534)
(-1.90087 -0.487723 -0.0578659)
(-2.1085 -0.193453 -0.701418)
(-1.73694 -0.308552 -1.00088)
(-1.64208 -0.0802318 -1.10019)
(-1.27183 0.12009 -1.28874)
(-1.06981 0.322186 -1.43267)
(-0.803588 0.477438 -1.50776)
(-30.7019 3.0025 2.15925)
(31.8262 -1.2162 3.26595)
(5.96125 -2.21627 -2.81131)
(6.0593 -0.832571 -1.30346)
(-4.77624 -2.11763 -0.472844)
(3.22742 -4.64834 -0.185283)
(1.10805 -0.814615 1.9653)
(-0.742884 0.586813 2.37375)
(-1.19015 -0.63247 -0.0458179)
(-1.97013 -1.44914 -0.00463693)
(-2.72455 -2.01437 0.126131)
(-3.59032 -1.92049 0.131296)
(-3.78818 -1.12976 0.393481)
(-3.70787 -0.870216 0.273328)
(-3.51412 -0.812485 -0.177187)
(-3.14407 -0.841092 -0.601931)
(-2.67927 -0.957569 -0.885464)
(-2.22298 -1.0651 -1.09493)
(-31.8405 1.48375 0.235951)
(32.0156 -1.46197 -0.0407029)
(-2.92483 -2.12356 -3.25012)
(9.79168 -1.27119 -4.56957)
(1.392 -0.272477 -0.256975)
(2.28834 -2.22511 -0.201784)
(-1.67324 1.41393 0.602717)
(0.670169 1.48398 -0.473854)
(0.285318 1.02175 -1.47336)
(1.33454 0.190459 -0.147788)
(2.28406 -0.94494 0.466139)
(0.792442 -1.61378 -0.0681847)
(-1.51386 -1.28042 0.613939)
(-1.94386 -1.07534 1.7855)
(-2.38695 -0.856056 2.14808)
(-2.57665 -0.586703 2.22532)
(-2.52653 -0.406451 1.85333)
(-2.15185 -0.357485 1.06767)
(-33.8483 -0.92098 -0.17422)
(34.5952 -2.54473 2.54921)
(9.09908 2.95584 -0.792053)
(14.2329 0.895178 -3.64738)
(10.1655 3.54529 -2.13287)
(5.37569 2.06399 -0.836915)
(0.950981 2.04503 -0.295924)
(1.7019 2.03023 0.777621)
(0.531695 0.297586 1.17988)
(0.832622 -1.99314 1.15827)
(1.44522 -2.91431 0.788037)
(2.91579 -2.13773 -0.155306)
(4.12949 -0.609966 -0.348238)
(4.77878 0.0140831 -0.21303)
(4.21405 -0.688156 -0.506541)
(3.22363 -1.10324 -0.131968)
(2.56461 -0.767401 1.1328)
(1.78061 -0.115412 2.44512)
(-33.2202 -3.35964 -0.412662)
(34.9792 -10.0648 2.28626)
(15.7448 2.47669 2.22198)
(17.2528 4.98749 -0.520312)
(15.2271 6.11645 -1.26227)
(9.88497 5.41999 -1.05306)
(5.13463 4.19938 -1.11054)
(4.05414 2.6194 -0.711983)
(2.6685 0.958126 -1.0189)
(3.40341 -0.709774 0.275434)
(3.77037 -2.58082 2.36035)
(3.91886 -3.32183 2.80152)
(4.21594 -3.51138 1.70774)
(4.7847 -2.9376 0.178307)
(6.08899 -1.57814 -1.28706)
(6.02668 -0.38468 -2.24143)
(5.26285 -0.305631 -1.86966)
(4.23241 -0.819302 0.133309)
(-30.3347 -6.72371 -0.74145)
(34.665 -17.8853 0.106357)
(15.5375 0.636785 3.1663)
(15.8537 8.40329 2.02208)
(14.8059 8.6401 0.0889045)
(10.7373 7.93566 -0.73497)
(7.00481 5.96576 -1.02439)
(5.71643 3.4478 -0.84604)
(4.83816 0.675456 -0.934988)
(5.32424 -0.859527 -0.246155)
(5.60673 -1.54511 0.99022)
(5.33808 -2.4098 1.6315)
(5.65878 -2.96739 1.45415)
(5.92179 -2.85729 1.10691)
(6.31658 -2.08669 0.287464)
(6.96748 -1.43791 -0.816387)
(7.70165 -0.921254 -1.65281)
(7.92869 0.011221 -1.9389)
(-26.7335 -10.7868 -1.16664)
(30.5537 -22.5456 -2.01493)
(5.94693 2.02644 4.85499)
(8.68465 10.9908 4.25279)
(8.97905 9.62663 1.47344)
(8.36915 9.37031 -0.0822032)
(6.54869 6.56369 -0.829009)
(6.45205 3.77656 -0.920119)
(6.2069 0.405078 -1.21021)
(6.19085 -1.53351 -0.646064)
(6.38777 -1.9953 1.12924)
(6.29102 -2.33568 2.26435)
(6.25588 -2.65086 1.84815)
(6.1229 -2.74515 1.15634)
(6.15374 -2.38978 0.617506)
(6.68615 -2.06855 -0.161433)
(7.08571 -1.95571 -0.607171)
(7.29013 -1.32687 -0.568708)
(-25.9091 -12.6946 -1.36283)
(20.1007 -21.3611 -3.82428)
(-10.7004 4.71487 4.82385)
(-0.826244 13.1732 4.20678)
(0.467693 8.36369 1.40673)
(4.71994 9.60325 0.331291)
(4.10258 5.6056 -0.446542)
(6.05118 3.38909 -0.863955)
(6.29832 0.0561519 -0.954113)
(6.22249 -1.45591 0.103966)
(6.09862 -1.63453 1.64571)
(6.06443 -1.7146 2.00733)
(6.44518 -1.85662 1.07857)
(6.43679 -1.9563 0.485829)
(6.01346 -1.73496 0.305824)
(5.65861 -1.41726 -0.0371334)
(5.24729 -1.0892 0.00821412)
(4.87352 -0.37357 0.596192)
(-28.5136 -10.8151 -1.12975)
(7.07451 -14.6196 -2.68105)
(-29.5773 9.35584 3.68205)
(-5.05496 10.0957 4.03658)
(-6.58586 5.70572 1.19427)
(1.92368 9.01948 0.389088)
(1.03932 3.56298 -1.18793)
(5.29441 1.96754 -1.05018)
(5.59453 -0.751047 -0.430894)
(5.48702 -1.58399 0.810001)
(5.32865 -1.46188 1.8115)
(5.50939 -1.44657 1.35898)
(5.96763 -1.66601 0.383032)
(5.79262 -1.87521 0.181658)
(5.14873 -1.62057 0.122234)
(4.14782 -0.759909 -0.0097434)
(3.28728 -0.232874 0.562383)
(3.21565 -0.357772 1.30011)
(-31.6407 -7.94632 -0.737605)
(4.22827 -11.589 -1.47209)
(-37.6253 6.82871 4.3522)
(-1.47824 5.02103 4.03531)
(-12.7324 4.66152 -1.66907)
(0.307852 7.58871 0.0558831)
(-4.27868 0.924295 0.723334)
(5.31019 0.893137 0.578535)
(5.53132 -0.457748 0.860149)
(5.24773 -0.954151 1.88436)
(4.99644 -0.896007 2.49667)
(5.23842 -1.02095 1.76325)
(6.12379 -1.25417 0.817513)
(5.89382 -1.20049 0.620601)
(4.13579 -0.675056 0.558)
(3.03029 -0.247805 0.673856)
(2.96144 -0.628623 1.2732)
(2.88788 -1.02715 1.29409)
(-34.1728 -4.61751 -0.546511)
(1.79088 -6.86033 -1.24955)
(-40.1709 3.26977 1.96568)
(4.61276 1.25497 0.912236)
(-20.6856 3.86245 -0.24432)
(-0.764799 5.06108 1.03587)
(-3.64275 -3.11777 0.0536847)
(5.2883 -2.12914 1.03404)
(5.03559 -1.05443 2.48369)
(4.67747 -0.652039 3.29146)
(4.82378 -0.704838 3.04401)
(4.84727 -0.940447 1.64467)
(5.25791 -1.00404 0.419736)
(5.2835 -0.690454 0.506769)
(4.29918 -0.264533 0.95099)
(3.66873 -0.504441 1.10633)
(2.78969 -0.857966 0.990262)
(1.83506 -0.800874 -0.0177701)
(-32.0742 -1.50077 -0.469996)
(0.494538 -3.33052 -1.2944)
(-41.85 0.912871 -0.0489892)
(-8.97721 0.213099 -0.928105)
(-26.6998 3.48299 -0.690061)
(9.09585 3.8104 0.276882)
(5.99514 1.39867 -1.63805)
(6.04675 0.270363 -0.671719)
(5.4042 -0.00029912 0.721652)
(4.51817 -0.569171 1.60191)
(3.60379 -0.575172 1.00534)
(2.70504 -0.222164 0.215091)
(1.99677 0.184751 0.395455)
(2.00552 0.511152 0.981319)
(2.4267 0.25394 1.13607)
(1.48237 -0.115489 0.688566)
(0.50494 -0.0505825 -0.205651)
(-0.0373159 -0.162406 -1.42376)
(-33.7802 0.641923 -2.17799)
(-9.23727 1.21355 -7.88951)
(-44.3506 -3.00407 -10.0296)
(19.1066 -1.68578 -15.2978)
(0.555206 0.494657 -6.29068)
(-3.97776 1.82698 -0.418513)
(-5.91359 0.222961 0.946537)
(-1.20637 1.13749 -0.287476)
(-2.3837 0.590639 2.03874)
(0.0638985 0.432899 1.20995)
(0.220396 0.326284 -1.59026)
(-0.251514 0.221233 -2.97236)
(-0.244713 -0.0298133 -3.78172)
(0.469313 -0.107439 -4.2032)
(0.985449 -0.167179 -4.57728)
(1.77935 -0.166428 -4.84273)
(3.23163 0.330503 -4.88604)
(3.00439 0.491579 -3.17672)
(-37.5485 5.09527 -1.6459)
(-6.17579 8.89462 -4.0748)
(-41.0723 -1.75158 0.581116)
(1.93025 0.990626 -10.4683)
(-10.8472 4.4046 -2.88343)
(-5.55193 3.17328 -1.84871)
(-7.17765 1.90678 3.34379)
(-1.01629 2.33897 0.965805)
(-2.24263 1.60361 2.89234)
(0.497565 1.28844 0.898413)
(0.453661 1.23335 -3.24542)
(-0.472993 0.498717 -3.73847)
(-0.476486 -0.277668 -3.21657)
(0.374922 -0.559363 -3.23547)
(1.10878 -0.753836 -3.35798)
(1.74701 -0.841013 -3.72964)
(2.86219 -0.392234 -4.44233)
(4.07085 0.352953 -4.57915)
(-34.9948 8.09241 -0.704804)
(-3.35633 11.8855 -1.11333)
(-38.7991 -8.3614 3.07038)
(5.29157 3.2064 1.68424)
(-15.8123 6.10636 -1.34126)
(-7.90902 4.03263 -1.45211)
(-7.37715 3.2294 4.94408)
(-0.793364 3.90772 1.83007)
(-2.37953 3.01041 2.98715)
(0.603057 2.62879 0.230006)
(-0.111187 2.21135 -3.41494)
(-0.896787 0.955744 -2.89094)
(-1.05711 -0.0578274 -1.40439)
(-0.346566 -0.736655 -1.49009)
(0.156727 -0.991561 -1.69507)
(0.804739 -1.00301 -1.93878)
(1.62587 -0.661964 -2.29357)
(2.90492 -0.00935988 -2.65849)
(-32.3083 10.4949 -0.14955)
(1.93674 15.6997 -0.224491)
(-34.1092 -11.6439 1.10133)
(-1.19371 3.87344 1.03706)
(-21.0797 7.44979 -2.48145)
(-3.67633 3.23323 0.675899)
(-8.4709 4.4943 4.80434)
(-0.546557 5.27067 2.53235)
(-2.89328 4.17815 2.74147)
(0.477113 3.94492 -0.396384)
(-1.03553 2.83875 -3.17475)
(-1.28753 1.3208 -0.85908)
(-1.28273 -0.0392142 1.09847)
(-0.786102 -0.574246 1.12344)
(-0.388483 -0.696379 0.804716)
(0.334468 -0.65434 0.486396)
(1.16515 -0.394599 0.125355)
(2.2808 0.111424 -0.282944)
(-29.3838 12.8277 0.146238)
(7.18582 17.1529 0.428953)
(-27.483 -12.4198 1.67565)
(-21.1337 2.97642 -0.179438)
(-18.834 6.00549 -2.47061)
(-4.34109 0.490292 2.66018)
(-8.20763 6.14461 4.25785)
(-1.00889 6.03201 2.82642)
(-3.84693 5.19335 2.12682)
(0.416548 5.00931 -1.11211)
(-1.95825 3.40144 -1.57598)
(-0.87064 1.98597 2.05698)
(-0.44728 0.173976 3.3196)
(0.133839 -0.423225 3.3942)
(0.312075 -0.569993 2.93258)
(0.769566 -0.520489 2.35929)
(1.51549 -0.26801 1.8448)
(2.50507 0.16315 1.3744)
(-27.3396 14.0574 0.256382)
(17.1286 20.0641 0.657419)
(-13.2162 -12.2279 1.59195)
(-19.7976 -6.53169 1.50801)
(-13.7865 5.33299 -0.79045)
(-5.14103 0.101689 0.706098)
(-8.02341 7.02232 3.10854)
(-2.00895 6.5161 2.87182)
(-4.38511 5.9323 1.19549)
(0.181111 5.575 -1.08021)
(-2.3424 3.29813 1.15339)
(-0.337261 0.517844 3.39847)
(0.0474539 -0.58214 4.1217)
(0.570392 -0.707131 3.94723)
(0.806421 -0.472301 3.44084)
(1.0588 -0.215013 2.60205)
(1.7034 0.0325023 1.79534)
(2.66324 0.335146 1.29985)
(-26.9734 13.6114 0.246747)
(26.7623 20.396 0.817651)
(-1.73401 -8.83713 1.31859)
(-6.24316 -9.70799 1.68555)
(-13.1443 0.45041 0.168216)
(-2.65095 -1.58691 -1.98753)
(-8.53437 6.83356 1.62654)
(-2.74187 6.13981 1.8765)
(-4.02656 5.86583 -0.995631)
(-0.332121 5.45637 -1.08672)
(-1.56435 2.41495 3.3431)
(0.295036 0.337149 3.1692)
(-1.09587 -0.116338 3.07899)
(-0.67156 0.00627647 1.78858)
(0.00509033 0.150817 1.35334)
(0.522051 0.163838 1.22879)
(1.21987 -0.0935674 1.10858)
(2.21736 -0.145188 0.901095)
(-28.5134 11.8549 0.190972)
(33.0552 18.8536 0.745238)
(7.20398 -7.59131 0.892381)
(2.02755 -10.4713 1.24529)
(-7.60951 -3.33995 1.21045)
(-4.14263 -3.00507 -2.15396)
(-8.01685 6.07813 0.580127)
(-1.79595 5.19316 0.561947)
(-3.92426 5.96464 -1.16993)
(-1.19797 5.68295 1.30492)
(-0.262374 2.11227 1.62874)
(-0.553798 0.715351 0.679646)
(-0.507261 0.375239 0.98152)
(0.779911 -0.460641 1.30096)
(1.46696 -0.893243 1.48015)
(1.46518 -1.19955 1.68489)
(1.64751 -1.64489 1.67902)
(2.111 -1.77464 1.09691)
(-30.7321 9.58639 0.136472)
(36.3959 16.5184 0.503262)
(10.6836 -6.51437 0.893108)
(6.34185 -9.95237 0.582148)
(1.21911 -4.8865 0.839017)
(-2.06961 -3.97655 -0.984141)
(-6.87234 4.38406 0.287514)
(-1.8099 4.26334 0.722014)
(-4.80059 6.228 1.16589)
(-1.37713 5.4359 2.29348)
(1.23695 2.23883 -2.34139)
(2.59064 -0.0706234 -3.14733)
(3.86442 -1.39516 -2.31385)
(5.12584 -1.94268 -1.39947)
(5.99937 -1.86973 -0.364172)
(6.21669 -1.58018 0.846007)
(5.85402 -1.73004 2.06219)
(4.98373 -2.07327 2.22448)
(-32.7148 7.37901 0.0927163)
(37.6683 13.6626 0.0956081)
(11.3399 -5.96674 0.707545)
(8.31226 -8.70941 0.210328)
(3.26042 -5.65742 -0.471614)
(2.71655 -3.96434 -0.989744)
(-5.59508 3.04965 0.858588)
(-2.54431 4.61213 1.37299)
(-5.06608 6.63196 0.821654)
(0.984974 6.00295 -1.2971)
(4.5248 2.50452 -4.59969)
(6.64481 -0.618512 -4.8123)
(7.80339 -2.20909 -3.82486)
(8.45715 -2.98651 -2.72102)
(8.85515 -3.08535 -2.10561)
(9.08654 -2.66957 -1.65745)
(8.88444 -2.58213 -0.218289)
(8.45075 -2.4068 1.58537)
(-34.0155 5.43849 0.0896042)
(37.6836 10.0981 -0.419846)
(9.37296 -5.40731 0.483946)
(9.18329 -6.77559 -0.293831)
(3.2038 -5.87344 -1.04914)
(4.83383 -3.4977 -1.18164)
(-2.7969 2.42284 1.13936)
(-1.25769 3.86797 3.0741)
(-3.09104 6.44615 0.532537)
(3.15726 4.75168 -2.58274)
(5.81296 1.1973 -3.24756)
(7.65464 -0.892483 -2.8189)
(8.56278 -1.71335 -1.90209)
(8.90159 -2.31699 -0.49777)
(9.04504 -2.77504 0.23612)
(9.46971 -2.40435 -0.19066)
(9.33263 -2.1559 0.134815)
(8.34326 -2.75176 1.5285)
(-34.4319 3.92313 0.149857)
(37.444 6.83981 0.789871)
(6.8572 -4.40755 0.3771)
(9.26069 -4.67507 -0.760886)
(4.14544 -5.36349 -0.938843)
(4.71588 -3.52878 -0.596621)
(2.47582 1.61391 0.284655)
(2.03307 3.08742 3.38402)
(-1.188 5.17226 2.16861)
(3.64532 2.67138 -0.0828956)
(6.88825 0.433204 -1.41643)
(9.33164 -0.905202 -2.71559)
(10.6584 -1.49399 -3.08835)
(11.1359 -1.83536 -1.73602)
(10.5 -2.16632 0.384137)
(10.0098 -1.91796 1.12793)
(10.2059 -1.32787 1.63796)
(9.51529 -1.37393 3.02211)
(-34.1968 2.59247 0.285549)
(36.1846 3.21882 1.73954)
(3.1885 -3.12849 -0.508514)
(8.93162 -2.69401 -1.22612)
(4.94472 -4.55731 -0.532538)
(4.20456 -3.44545 0.278879)
(5.48338 -0.309486 -0.0112237)
(7.53726 1.38061 1.5481)
(6.51516 3.28728 2.35115)
(8.73989 1.7517 2.20241)
(10.8069 0.00453088 1.44867)
(12.6209 -0.814926 0.140451)
(13.6558 -1.06694 -1.27796)
(13.9771 -1.29824 -1.81639)
(13.4157 -1.41791 -0.93999)
(12.2759 -0.879334 0.343912)
(11.8575 -0.400869 1.71264)
(10.9546 -0.801786 3.38368)
(-33.6107 1.19192 0.553622)
(34.5587 3.01779 1.065)
(-0.376847 0.480122 -1.4545)
(8.68105 -0.726571 -1.46618)
(4.32536 -3.65137 -0.00634515)
(5.30027 -3.04444 0.382998)
(6.06805 -1.81828 -0.101148)
(7.71992 -0.700628 0.268892)
(9.30396 0.148709 0.80576)
(10.7322 -0.878164 0.65202)
(11.5493 -1.75849 -0.192227)
(11.633 -2.00637 -0.824127)
(11.3508 -2.04922 -0.447831)
(11.2458 -2.07533 0.574456)
(10.8324 -1.82798 1.0685)
(10.6885 -0.962809 1.10297)
(11.6515 0.105809 2.07327)
(11.5011 0.573014 3.65776)
(-32.6946 -0.262081 1.15255)
(32.6898 2.76318 -0.569415)
(-4.24038 3.20854 -3.632)
(8.16209 0.708274 -2.29711)
(3.58361 -2.71479 -0.348334)
(6.59612 -2.95555 -0.825653)
(7.23197 -2.75176 -1.55671)
(7.35769 -1.68663 -1.12445)
(7.04221 -0.987485 -1.02587)
(7.13674 -0.836579 -1.18843)
(7.76103 -0.94649 -1.30426)
(8.6864 -0.883667 -1.01505)
(9.38096 -0.644653 -0.0488217)
(9.26628 -0.318239 0.79105)
(8.38216 0.195155 0.454239)
(8.11327 0.55279 0.0546968)
(9.30621 0.71301 1.19804)
(9.72105 1.03649 3.00027)
(-33.474 -1.78857 3.3084)
(35.1682 1.22704 4.03677)
(4.47631 4.27804 -2.19704)
(7.5725 -0.570513 -2.91873)
(4.77118 -3.92703 -2.29376)
(7.73044 -4.75926 -3.96719)
(4.6082 -4.65511 -3.60037)
(4.40732 -2.06393 -2.09794)
(4.31151 -1.06938 -1.53644)
(5.46789 -1.21584 -0.796609)
(6.86832 -1.51778 -0.337499)
(8.1959 -1.39025 -0.237018)
(9.29806 -0.977427 0.0868043)
(9.88994 -0.38225 0.751913)
(10.0461 0.0865604 1.3569)
(10.5042 0.377495 2.01903)
(10.6909 1.20726 2.86529)
(9.1479 2.39322 3.62239)
(-35.8884 -0.435336 6.50107)
(34.3744 3.38048 16.5876)
(3.54803 4.57629 4.78714)
(13.7808 -2.47421 -5.02939)
(11.1396 -3.84003 -4.93369)
(8.3151 -3.9642 -5.36059)
(1.22108 -3.96662 -3.12956)
(1.20493 -2.82635 -1.60141)
(2.21932 -2.72257 0.832602)
(4.78006 -2.2936 4.13204)
(5.69648 -2.07716 4.88076)
(6.54249 -1.70453 4.12013)
(7.07909 -0.944969 3.14905)
(7.26089 0.0539422 2.68396)
(7.21384 0.815382 2.67952)
(6.83334 1.52028 2.99114)
(6.10815 2.39584 3.56785)
(5.57894 2.77409 3.99255)
(-36.2575 2.99839 4.9768)
(35.9773 -0.644816 13.2368)
(13.8137 -9.17708 4.31412)
(17.5362 -6.15388 -4.93836)
(12.0518 -2.46685 -6.18139)
(8.40967 -0.0121033 -4.63412)
(0.844132 -1.8162 -0.525838)
(-0.610321 -2.19346 0.355847)
(-2.0616 -1.56336 1.26328)
(-1.02998 -1.52747 1.48675)
(-1.08808 -2.03716 0.495512)
(0.630549 -1.863 0.40955)
(1.41514 -1.5023 0.24307)
(2.19258 -0.82968 0.500357)
(2.69883 0.0416371 0.780492)
(2.93269 0.755492 1.03853)
(3.02633 1.0719 1.05427)
(3.20588 0.984962 0.601799)
(-31.6253 3.68978 2.61312)
(31.1748 -0.378784 0.346948)
(-6.67089 0.27549 -5.96021)
(6.02188 1.3972 -1.80963)
(-3.90576 -0.283127 -4.19985)
(-1.64429 -1.67276 -1.74883)
(-4.44387 -2.0551 3.91657)
(-2.03208 -2.30781 1.48185)
(-3.64301 -1.7901 0.955457)
(-2.35684 -1.30019 1.01563)
(-3.07802 -1.07994 0.536285)
(-2.27564 -1.11696 0.132165)
(-2.27587 -0.618123 -0.678126)
(-1.94979 -0.729913 -0.933779)
(-1.70351 -0.55844 -1.05027)
(-1.34788 -0.391707 -1.11976)
(-1.02229 -0.180739 -1.21493)
(-0.719115 0.00130349 -1.33505)
(-30.6524 2.97525 0.901716)
(29.9957 2.70725 -4.45221)
(-6.26218 1.3102 -6.92053)
(7.77427 0.623849 -2.16791)
(-0.421635 0.590295 -2.48317)
(2.43984 -1.92411 -2.69878)
(-1.14228 -0.354394 1.98626)
(0.059342 0.251638 1.5781)
(-0.463071 -0.541258 -0.521208)
(-1.30725 -1.67568 0.0550139)
(-2.23355 -2.37158 0.765876)
(-2.96326 -2.53162 1.27732)
(-3.44652 -1.96718 1.15984)
(-3.37369 -1.33047 0.552525)
(-3.03074 -0.943219 -0.28987)
(-2.65666 -0.839218 -1.00114)
(-2.21764 -0.951116 -1.45313)
(-1.86309 -1.18088 -1.64166)
(-32.1807 1.41836 0.0213229)
(32.2455 2.05218 -1.26852)
(-1.6017 2.42632 -3.32973)
(9.91274 -0.107811 -2.94152)
(1.5406 1.35479 -0.77187)
(1.39638 -0.50894 -0.40422)
(-2.02676 1.58392 -0.274844)
(1.17606 0.396251 -1.86398)
(-0.550561 -0.314144 -1.53005)
(0.060597 -0.754749 -1.09895)
(1.17362 -0.690177 -0.0095601)
(1.41684 -1.59448 0.988115)
(-0.0985506 -1.98767 1.69835)
(-1.24493 -1.82651 2.24602)
(-1.83044 -1.52781 2.52835)
(-2.1498 -0.953506 2.43979)
(-1.90606 -0.233967 1.49178)
(-1.36325 0.118936 0.146525)
(-34.1907 -0.907628 -0.164408)
(34.6847 -4.16934 0.85763)
(10.7807 1.69302 -1.03902)
(15.1775 0.745733 -2.00261)
(10.9795 3.87568 -1.051)
(5.36784 2.5522 -0.183552)
(0.786581 2.35738 -0.223393)
(1.60279 2.13999 0.527437)
(0.036873 1.09445 1.56275)
(0.149355 -0.937919 1.34587)
(1.02414 -2.18082 0.499837)
(2.52418 -2.61623 -0.107931)
(3.60532 -1.45501 -0.0476839)
(4.33193 -0.416344 -0.0892703)
(4.47534 -0.949702 -0.00974895)
(2.92122 -1.5667 0.928361)
(1.12961 -0.857896 2.6497)
(-0.125523 0.0063002 3.87844)
(-33.339 -3.45306 -0.256263)
(34.7528 -10.4283 1.40347)
(17.6995 -0.994177 1.23408)
(19.2738 2.95223 -0.201868)
(16.9818 5.22291 -0.434605)
(10.928 5.29419 -0.207062)
(5.48207 4.31033 -0.445245)
(3.83542 2.55639 -0.171068)
(2.26405 0.465741 -0.0458791)
(1.78491 -1.68605 0.0703284)
(2.78064 -2.28088 1.23947)
(4.09649 -2.55065 2.39623)
(4.89178 -2.41364 1.87008)
(5.20982 -2.43354 0.0966144)
(6.52065 -1.76303 -0.520057)
(6.31348 -0.53509 -0.506748)
(3.8914 -0.227696 0.140329)
(2.36267 -0.136398 2.5319)
(-30.0748 -7.22695 -0.428109)
(33.8256 -18.8156 0.576825)
(12.687 -1.76349 1.97866)
(16.2812 6.16472 1.35026)
(16.1383 7.54046 0.452553)
(11.5192 7.71753 0.115123)
(7.25007 5.96452 -0.160937)
(5.71139 3.56115 -0.271778)
(4.86352 0.484469 -0.283601)
(4.58077 -1.9857 0.196531)
(4.66456 -2.66716 1.02922)
(5.06234 -2.79555 1.23383)
(5.73685 -2.52421 0.83217)
(6.65855 -1.86256 0.274751)
(7.40206 -1.26301 -0.136299)
(7.78137 -0.856581 -0.312438)
(8.0117 -0.489262 -0.553971)
(7.62791 0.207902 -0.299104)
(-25.9761 -11.6795 -0.598541)
(26.2951 -22.6997 -0.00433653)
(-2.79584 1.0272 3.59889)
(5.97666 10.0395 2.26025)
(8.28986 8.42938 0.700335)
(9.17198 9.409 0.260668)
(7.01176 7.07077 -0.139834)
(6.6127 4.13809 -0.330728)
(6.23417 0.088329 -0.202066)
(5.48127 -2.51962 0.152341)
(5.11379 -3.06416 1.00244)
(5.56182 -2.76154 1.4923)
(6.2839 -2.24269 1.02013)
(6.81868 -1.8732 0.223592)
(7.50656 -1.54079 -0.23901)
(8.08909 -1.23384 -0.313279)
(8.07572 -1.21821 -0.28537)
(7.91209 -0.885895 -0.171788)
(-26.1789 -13.0485 -0.587825)
(10.8955 -18.2704 -0.566843)
(-25.4015 8.91277 3.9178)
(-0.692865 10.9478 2.57246)
(-0.17993 6.64432 0.948172)
(4.33536 9.2287 0.310284)
(3.92095 5.49862 0.112078)
(6.01244 3.31412 0.131638)
(5.85224 -0.604054 -0.0919876)
(5.20299 -2.41309 0.0558262)
(5.02343 -2.42723 0.780016)
(5.43029 -2.04555 0.981005)
(5.98359 -1.71096 0.59966)
(6.27482 -1.48453 0.268168)
(6.46368 -1.30484 0.162366)
(6.21521 -1.26888 0.0823671)
(5.50655 -1.22056 0.162221)
(5.22312 -0.697035 0.484426)
(-29.608 -10.5476 -0.416704)
(3.11813 -13.869 -0.459466)
(-38.0344 9.93042 3.43473)
(1.61543 6.92859 2.36576)
(-7.83034 5.67348 0.195023)
(2.76181 9.23028 0.403407)
(0.709846 4.06129 0.135168)
(5.04584 1.84902 0.11302)
(4.68529 -1.42641 -0.350036)
(4.52828 -2.43785 0.31807)
(4.71622 -2.36595 1.02436)
(4.9734 -2.13918 0.829801)
(5.04703 -1.9242 0.33127)
(5.03075 -1.70693 0.0945302)
(4.86457 -1.38706 0.0892564)
(4.11412 -1.06514 0.470694)
(3.33507 -0.922091 1.15098)
(3.20253 -0.687618 1.57376)
(-32.6733 -7.57569 -0.224461)
(3.42616 -11.1062 -0.248863)
(-40.4466 4.35284 1.67553)
(8.22095 2.68542 1.86531)
(-12.2302 4.43382 -0.239797)
(-0.524233 7.16197 0.791318)
(-4.31019 0.152278 2.03089)
(4.84935 0.360795 -0.23715)
(4.46383 -1.10713 0.0813179)
(4.57169 -1.81744 1.31677)
(4.87555 -1.87457 1.69384)
(5.13334 -1.76552 0.796182)
(5.15989 -1.53549 -0.134201)
(4.82537 -1.14062 0.014878)
(4.07462 -0.762401 0.546582)
(3.47908 -0.765491 1.04094)