/*--------------------------------*- C++ -*----------------------------------*\
| =========                 |                                                 |
| \\      /  F ield         | OpenFOAM: The Open Source CFD Toolbox           |
|  \\    /   O peration     | Version:  2112                                  |
|   \\  /    A nd           | Website:  www.openfoam.com                      |
|    \\/     M anipulation  |                                                 |
\*---------------------------------------------------------------------------*/
FoamFile
{
    version     2.0;
    format      ascii;
    arch        "LSB;label=32;scalar=64";
    class       volScalarField;
    location    "0.05";
    object      nut;
}
// * * * * * * * * * * * * * * * * * * * * * * * * * * * * * * * * * * * * * //

dimensions      [0 2 -1 0 0 0 0];

internalField   nonuniform List<scalar> 
12225
(
7.63064e-08
0
0
0
0
0
0
0
0
0
0
0
0
0
0
0
0
0
7.66521e-08
0
0
0
0
0
0
0
0
0
0
0
0
0
0
0
0
0
3.83453e-08
0
0
0
0
1.30632e-09
6.86859e-09
0
0
0
0
0
0
0
0
0
0
0
0
0
0
0
3.42116e-07
4.04799e-07
1.36326e-07
0
0
0
0
0
0
0
0
0
0
0
0
1.00198e-05
0
0
0
0
0
0
0
9.1005e-07
3.3764e-06
3.61242e-06
1.84569e-06
3.83488e-07
0
0
0
0
0
9.00964e-06
2.95124e-05
0
0
0
0
0
0
6.68814e-06
6.95298e-06
3.24671e-06
1.31567e-06
1.80205e-06
1.24386e-06
0
0
0
0
0
7.73815e-05
1.19522e-05
0
0
0
0
0
1.14853e-06
1.54327e-05
1.86364e-05
1.76294e-05
1.39488e-05
2.33741e-06
0
0
0
0
0
5.0746e-05
4.63961e-05
0
0
0
0
0
0
2.95728e-05
3.17637e-05
2.15404e-05
1.3174e-05
6.13277e-06
2.27648e-06
8.13158e-07
0
0
0
4.18866e-05
6.3099e-05
0
0
0
0
0
0
0
3.55279e-05
2.15272e-05
1.21957e-05
6.93607e-06
3.8886e-06
0
0
1.56619e-06
0
1.22626e-05
0
0
0
0
0
0
0
0
0
0
4.9487e-06
8.02848e-06
1.19965e-06
0
0
0.000113018
0.000124818
0
0
0
0
0
0
0
0
0
0
0
0
0
0
0
0
0.000110198
0.000104628
0
0
0
0
0
0
0
0
0
0
0
0
1.70623e-06
4.97207e-06
0
0
0
0
0
0
0
0
0
0
0
0
0
0
8.99318e-06
5.96784e-06
0
0
0
0
0
0
0
2.31082e-05
1.72712e-05
6.68696e-07
0
0
0
2.30808e-05
1.64342e-05
1.59808e-05
2.95803e-05
2.62944e-05
0
0
0
0
0
0
0
0
1.07854e-05
3.0805e-05
2.96631e-05
1.90605e-05
4.37299e-05
3.59669e-05
1.71512e-05
1.84321e-05
3.3518e-05
5.11235e-06
0
0
0
0
5.63224e-05
2.78352e-05
3.31487e-05
0
0
1.98941e-05
9.00687e-08
0
2.60697e-05
2.29509e-05
0
0
0
0
0
0
0
0
5.45691e-05
5.89749e-05
0.000102761
7.14189e-05
6.22583e-05
4.30789e-05
1.64016e-05
1.83916e-05
2.1043e-05
0
0
0
0
0
0
0
0
0
3.95244e-05
3.51441e-05
4.53526e-05
1.38695e-05
2.51784e-05
5.45455e-05
7.06771e-05
9.88538e-05
3.8666e-05
0
0
0
0
0
0
0
0
0
5.59048e-05
9.72451e-05
0.000175246
0.000141824
4.24881e-05
4.91942e-05
6.48612e-05
4.93155e-05
1.20085e-05
0
0
0
0
0
0
0
0
0
0.000113173
0.000140209
0.000154631
9.01505e-05
2.55191e-05
6.17532e-05
8.43418e-05
4.67909e-05
0
0
0
0
0
0
0
0
0
0
9.83044e-05
0.000151951
0.000119011
1.81405e-05
3.90635e-06
3.3564e-05
2.73988e-05
0
0
2.29279e-05
0
0
0
2.64731e-05
8.00489e-06
0
0
0
0
0
0
0
0
3.42196e-07
2.7609e-05
0.000100942
0.000186962
9.59998e-05
0
0
0
2.82259e-06
0
0
0
0
0
0
0
0
0
0
0
0
0
0
0
0
0
0
0
0
3.94688e-05
0.000172077
0
0
0
0
0
0
0
0
0
0
0
0
0
0
0
0
0
7.06129e-06
9.35687e-05
7.20479e-05
0
0
0
0
0
0
0
0
0
3.09326e-05
7.64912e-05
2.53165e-05
0
0
0
0
7.37897e-05
0
1.94905e-06
3.90391e-05
0
0
0
0
0
0
0
5.90629e-05
0.000112159
0.000101915
6.88415e-05
3.44192e-05
1.51125e-05
1.46186e-05
0
0
0
0
0
0
0
3.77341e-08
3.18212e-07
2.84738e-07
1.84836e-07
1.94788e-07
2.28538e-07
1.89179e-07
1.08628e-07
5.02027e-08
1.79716e-08
0
0
0
0
0
0
0
0
0
0
0
0
0
0
1.38034e-08
2.39768e-08
1.89392e-08
6.36633e-10
0
0
0
0
0
0
0
0
0
0
0
0
0
0
0
4.82897e-09
4.53635e-09
0
0
0
0
0
0
0
0
0
0
0
0
0
0
0
0
0
0
0
0
0
5.33237e-06
9.95333e-06
0
0
0
2.28977e-06
8.43062e-06
6.97645e-06
3.4503e-06
1.74764e-06
2.521e-06
8.58932e-06
2.01039e-05
2.97984e-05
2.93558e-05
2.18226e-05
1.32635e-05
6.19379e-06
8.4658e-07
0
0
0
0
0
0
0
0
0
0
0
0
0
0
0
0
0
0
3.48269e-06
5.25229e-06
1.50176e-06
0
8.151e-06
4.16317e-05
5.53151e-05
4.97656e-05
4.08884e-05
2.74622e-05
9.87933e-06
0
0
0
0
0
0
0
1.13223e-06
9.85288e-07
0
0
1.54588e-06
8.5629e-06
1.75049e-05
3.89267e-05
8.50344e-05
0.000130392
0.00011777
7.96255e-05
4.16262e-05
1.66575e-05
5.13164e-06
1.06011e-06
0
0
3.08118e-08
2.03304e-07
3.45044e-07
4.53215e-07
5.39147e-07
6.11673e-07
6.7986e-07
7.43669e-07
8.06696e-07
8.62395e-07
9.12273e-07
9.47619e-07
9.70457e-07
9.73737e-07
9.60109e-07
9.24663e-07
8.7125e-07
7.95968e-07
7.02366e-07
5.89051e-07
4.59669e-07
3.16244e-07
1.6273e-07
2.36272e-09
0
0
0
0
0
0
0
0
0
0
0
0
0
0
0
0
0
0
0
0
0
0
0
0
0
0
0
0
0
0
0
0
0
0
0
4.77072e-09
4.20498e-08
7.58256e-08
1.02152e-07
1.15047e-07
1.09178e-07
8.05716e-08
3.06047e-08
0
0
0
0
0
0
0
0
0
0
0
0
0
0
0
0
0
0
0
0
0
0
1.61355e-08
0
0
0
0
0
0
0
0
0
0
0
0
0
0
7.81515e-08
0
0
0
0
0
0
0
1.01926e-05
2.14479e-05
2.65173e-05
2.7343e-05
1.50664e-05
4.98553e-06
2.97189e-06
3.59811e-06
4.64803e-06
5.07004e-06
4.63203e-06
3.60608e-06
2.40965e-06
1.264e-06
2.46242e-07
0
0
0
0
0
0
0
0
0
0
0
0
0
0
0
0
0
0
0
0
0
0
1.39197e-05
4.94261e-05
6.64373e-05
7.07988e-05
5.46348e-05
1.32178e-05
0
0
0
0
0
0
0
3.55467e-06
4.87882e-06
6.65522e-07
2.17043e-06
1.15844e-05
2.52985e-05
4.17445e-05
5.20512e-05
4.23853e-05
3.34058e-05
2.6838e-05
2.14097e-05
1.62763e-05
1.13593e-05
7.36854e-06
4.49901e-06
2.82573e-06
1.95574e-06
1.54531e-06
1.34204e-06
1.23801e-06
1.18455e-06
1.16158e-06
1.15929e-06
1.17253e-06
1.19656e-06
1.22481e-06
1.25395e-06
1.27804e-06
1.29297e-06
1.29399e-06
1.27789e-06
1.24254e-06
1.18553e-06
1.10759e-06
1.00705e-06
8.85979e-07
7.44032e-07
5.84335e-07
4.06848e-07
2.16441e-07
1.58271e-08
0
0
0
0
0
0
0
0
0
0
0
0
0
0
0
0
0
0
0
0
0
0
0
0
0
0
0
0
0
0
0
0
0
0
0
0
4.43312e-10
1.88979e-08
3.23802e-08
3.67362e-08
3.0729e-08
1.55221e-08
0
0
0
0
0
0
0
0
0
0
0
0
0
0
0
0
0
0
0
0
0
0
0
3.49789e-08
3.24649e-08
1.36214e-08
0
0
0
0
0
0
0
0
0
0
0
0
1.52874e-07
0
1.17847e-05
1.47652e-05
0
0
0
0
1.54987e-06
1.08896e-05
1.35333e-05
1.10872e-05
5.27181e-06
1.0427e-06
0
0
0
0
0
0
0
0
0
0
0
0
0
0
2.06018e-08
2.04909e-07
2.65116e-07
2.24591e-07
7.94018e-08
0
0
0
0
0
0
0
0
0
0
0
0
0
0
0
0
0
0
0
0
0
0
0
0
0
1.02558e-05
1.82177e-05
8.62997e-06
3.93355e-06
4.68916e-06
9.67786e-06
1.15092e-05
4.57968e-06
4.26113e-07
1.12909e-06
3.30516e-06
5.3152e-06
6.44262e-06
7.1268e-06
7.85472e-06
8.59774e-06
9.21136e-06
9.45391e-06
9.33579e-06
8.91955e-06
8.36001e-06
7.7761e-06
7.23959e-06
6.77894e-06
6.39746e-06
6.08346e-06
5.81145e-06
5.55789e-06
5.29777e-06
5.01418e-06
4.69139e-06
4.32533e-06
3.91739e-06
3.47602e-06
3.01704e-06
2.55118e-06
2.09166e-06
1.63956e-06
1.21191e-06
8.14178e-07
4.4954e-07
9.1299e-08
0
0
0
0
0
0
0
0
0
0
0
0
0
0
0
0
0
0
0
0
0
0
0
0
0
0
0
0
0
0
0
0
0
0
0
0
0
0
0
0
0
0
0
0
3.96578e-08
8.80952e-08
7.6629e-08
5.20766e-08
1.56088e-08
0
0
0
0
1.19388e-08
4.82302e-08
1.34514e-08
0
0
0
0
0
0
0
0
0
5.89328e-08
7.76522e-08
6.90819e-08
5.24877e-08
2.5035e-08
0
0
0
0
0
0
2.57032e-09
2.34518e-08
6.12399e-08
4.52064e-09
2.04719e-07
0
3.10287e-05
2.06167e-05
0
0
0
0
0
3.04551e-06
4.46976e-06
5.88209e-06
5.2144e-06
2.10314e-06
0
0
0
0
0
0
0
0
0
0
0
0
0
0
4.75892e-07
1.05627e-06
1.50928e-06
1.85978e-06
2.07253e-06
2.05866e-06
1.83958e-06
1.52886e-06
1.12785e-06
7.20518e-07
0
0
0
9.05488e-07
1.9245e-06
3.49042e-06
4.45854e-06
1.70614e-06
0
0
0
0
0
0
0
0
0
0
0
1.59139e-05
1.53841e-05
6.18658e-06
3.87766e-06
2.94123e-06
2.62261e-06
3.67722e-06
2.25098e-06
0
0
0
0
0
2.07606e-06
5.39077e-06
9.22938e-06
1.17224e-05
1.12981e-05
9.01447e-06
6.67056e-06
4.94201e-06
3.8152e-06
3.12635e-06
2.73632e-06
2.55677e-06
2.53682e-06
2.64578e-06
2.85772e-06
3.14275e-06
3.45542e-06
3.74383e-06
3.96872e-06
4.13206e-06
4.21077e-06
4.25789e-06
4.37398e-06
4.59825e-06
4.94765e-06
5.39859e-06
5.97932e-06
6.83948e-06
8.45833e-06
3.13199e-06
0
0
0
0
0
0
0
0
0
0
0
0
0
0
0
0
0
0
0
0
0
0
0
0
0
0
0
0
0
0
0
0
0
0
0
0
2.99033e-07
5.16337e-07
4.85085e-07
2.55521e-07
0
0
0
0
0
0
0
0
0
0
0
0
0
5.22211e-08
2.49543e-07
2.08144e-07
0
0
0
0
0
0
0
0
0
5.76841e-08
1.42188e-07
1.37955e-07
6.29567e-08
0
0
0
0
0
5.60345e-09
3.44923e-08
7.06724e-08
4.97566e-08
1.06293e-07
0
1.85746e-07
0
2.17191e-05
0
0
0
0
0
0
0
0
0
0
0
0
0
0
0
0
0
0
0
0
0
0
0
0
2.55591e-07
1.01251e-06
1.75041e-06
2.39427e-06
2.93672e-06
3.38248e-06
3.65015e-06
3.76524e-06
3.79457e-06
3.75154e-06
3.60269e-06
3.23105e-06
3.05438e-06
3.4577e-06
3.53374e-06
3.43263e-06
4.72254e-06
6.42069e-06
7.17685e-06
6.77071e-06
4.86477e-06
1.02746e-06
0
0
0
0
0
0
1.2471e-05
1.74925e-05
8.42969e-06
4.38387e-06
3.63049e-06
4.1642e-06
4.89913e-06
4.95718e-06
3.2805e-06
0
0
0
0
0
0
3.56611e-06
6.06977e-06
5.30089e-06
3.40442e-06
2.06227e-06
1.30027e-06
8.8933e-07
6.77528e-07
5.91373e-07
5.93945e-07
6.68166e-07
8.11851e-07
1.01366e-06
1.2381e-06
1.42312e-06
1.51198e-06
1.48547e-06
1.4128e-06
1.41411e-06
1.57357e-06
1.93547e-06
2.47632e-06
3.11104e-06
3.69495e-06
4.09011e-06
4.22853e-06
4.12901e-06
3.83899e-06
2.54007e-06
0
0
0
0
0
0
0
0
0
0
0
0
0
0
0
0
0
0
0
0
0
0
0
0
0
0
0
0
0
0
0
0
0
0
0
0
0
2.31473e-07
6.67447e-07
6.8253e-07
3.85239e-07
0
0
0
0
0
0
0
0
0
0
0
0
2.66643e-07
5.26898e-07
1.4641e-07
0
0
0
0
0
0
0
0
0
0
0
2.78729e-07
1.21481e-07
0
0
0
0
0
0
0
0
0
0
1.27572e-07
0
1.75672e-07
0
0
0
0
0
0
0
0
0
0
0
0
0
0
0
0
0
0
0
0
0
0
0
0
0
0
0
0
7.2113e-07
1.49205e-06
2.23327e-06
2.91414e-06
3.50255e-06
4.00432e-06
4.45887e-06
4.8746e-06
5.15612e-06
5.33087e-06
5.55418e-06
5.80055e-06
5.58652e-06
5.13e-06
5.75005e-06
6.86271e-06
7.27098e-06
7.05129e-06
6.41932e-06
5.21269e-06
3.43508e-06
1.11052e-06
0
0
0
2.66801e-06
6.36556e-06
3.93806e-06
2.0713e-06
2.19985e-06
2.68235e-06
3.71512e-06
4.72556e-06
4.09297e-06
2.84242e-07
0
0
0
0
0
3.28689e-06
4.51469e-06
2.32663e-06
1.15928e-06
7.49038e-07
6.19948e-07
5.81214e-07
5.79669e-07
6.11121e-07
6.80153e-07
7.90464e-07
9.34468e-07
1.05373e-06
1.0598e-06
9.03716e-07
6.48757e-07
4.36192e-07
3.98247e-07
6.10219e-07
1.09627e-06
1.79596e-06
2.52556e-06
3.05422e-06
3.21139e-06
2.98321e-06
2.46895e-06
1.71709e-06
5.81551e-07
0
0
0
1.45399e-06
1.4089e-06
8.72254e-07
3.62245e-07
0
0
0
0
0
0
0
0
0
0
0
0
0
0
0
0
0
0
0
0
0
0
0
0
0
0
0
0
0
0
0
0
0
3.45704e-07
5.84466e-07
3.29927e-07
0
0
0
0
0
0
1.73134e-07
2.61537e-07
1.60201e-07
3.4024e-07
5.84119e-07
5.11458e-07
6.58971e-07
4.63715e-07
0
0
0
0
0
0
0
0
0
0
0
2.94148e-07
2.00828e-06
1.01625e-06
0
0
0
0
0
0
0
2.18676e-07
1.02803e-06
9.49955e-07
1.41263e-06
6.84951e-08
6.95036e-07
0
0
0
0
0
0
0
0
0
0
0
0
0
0
0
0
0
0
0
0
0
0
0
0
0
0
0
0
0
8.77757e-07
1.77078e-06
2.59754e-06
3.34045e-06
3.97722e-06
4.49201e-06
4.857e-06
5.11144e-06
5.35782e-06
5.72901e-06
6.206e-06
6.50104e-06
6.55294e-06
6.72698e-06
6.88072e-06
6.48981e-06
5.7148e-06
4.854e-06
3.83612e-06
2.52205e-06
6.39981e-07
0
0
0
2.28726e-06
1.31222e-06
1.87548e-06
3.43639e-06
4.23209e-06
4.90661e-06
5.97699e-06
6.97229e-06
4.63636e-06
0
0
0
0
0
0
0
0
0
0
0
1.02632e-07
5.20285e-07
7.59234e-07
9.08011e-07
1.01352e-06
1.0531e-06
9.53008e-07
6.94125e-07
3.49284e-07
5.34834e-08
0
2.99994e-08
4.11375e-07
1.01812e-06
1.67616e-06
2.12692e-06
2.20871e-06
1.96605e-06
1.53043e-06
1.0127e-06
4.33487e-07
0
0
0
0
0
2.16797e-06
1.32841e-07
0
0
0
0
0
0
0
0
0
0
0
3.15169e-08
6.99509e-07
4.78152e-07
0
0
0
0
0
0
0
0
0
0
0
0
0
0
0
0
0
0
0
0
0
0
2.94253e-07
2.86822e-07
0
0
0
0
0
0
6.71203e-07
1.68698e-06
2.34393e-06
2.73371e-06
3.02694e-06
3.29726e-06
2.22992e-06
1.04273e-06
0
0
0
0
0
0
0
0
0
0
0
0
8.84303e-07
0
0
0
0
0
0
0
0
1.61988e-06
2.68002e-06
2.61265e-06
2.50363e-06
1.41974e-06
7.84639e-07
0
0
0
0
0
0
0
0
0
0
0
0
0
0
0
0
0
0
0
0
0
0
0
0
0
0
0
6.17915e-07
1.57679e-06
2.38448e-06
3.12691e-06
3.85893e-06
4.60463e-06
5.32782e-06
5.98889e-06
6.48548e-06
6.73074e-06
6.71591e-06
6.45324e-06
6.05648e-06
5.68133e-06
5.50591e-06
5.62463e-06
5.84361e-06
5.57916e-06
4.87783e-06
3.97771e-06
2.95648e-06
1.47998e-06
0
0
0
1.23287e-07
2.9225e-07
3.50005e-06
7.94799e-06
8.20136e-06
7.64687e-06
8.3963e-06
1.06074e-05
1.3676e-05
1.27908e-05
1.95747e-06
0
0
0
0
0
0
0
0
0
0
3.67277e-07
9.48142e-07
1.20367e-06
1.23544e-06
1.07994e-06
7.29713e-07
2.99754e-07
0
0
0
0
2.62611e-07
7.93189e-07
1.29021e-06
1.51566e-06
1.42965e-06
1.16155e-06
8.47775e-07
5.40671e-07
2.59569e-07
5.00442e-08
0
0
0
0
0
0
0
0
0
0
0
0
0
0
0
0
0
0
0
4.64018e-07
1.20527e-06
4.40249e-07
0
0
0
0
0
0
0
0
0
0
0
0
0
0
0
0
0
0
0
0
0
0
4.3724e-07
5.01664e-08
0
0
0
0
9.37398e-07
2.51772e-06
3.81201e-06
4.78239e-06
5.42396e-06
5.96175e-06
6.59285e-06
6.3701e-06
3.55578e-06
8.95396e-07
0
0
0
0
0
0
0
0
0
0
0
0
0
0
0
0
0
0
0
0
1.62524e-06
2.97857e-06
2.92576e-06
2.28216e-06
1.15488e-06
5.43761e-07
0
0
0
0
0
0
0
0
0
0
0
0
0
0
0
0
0
0
0
0
0
0
0
0
0
0
0
0
0
0
2.61391e-07
8.00166e-07
1.41641e-06
2.18487e-06
3.24711e-06
4.63653e-06
6.15793e-06
7.43994e-06
8.13422e-06
8.16916e-06
7.50446e-06
6.34706e-06
5.14324e-06
4.39392e-06
4.17098e-06
4.12384e-06
3.84572e-06
3.02235e-06
1.13819e-06
0
0
0
3.65199e-06
9.1271e-06
1.22795e-05
1.19599e-05
9.53544e-06
8.40732e-06
1.01056e-05
1.39641e-05
1.42705e-05
7.24149e-06
2.82132e-06
3.17624e-07
0
0
0
0
0
0
0
0
2.83939e-07
1.27024e-06
1.65299e-06
1.48028e-06
9.64249e-07
3.41636e-07
0
0
0
0
0
1.65543e-07
5.41757e-07
8.29057e-07
8.96617e-07
8.14071e-07
7.00489e-07
6.18275e-07
5.71903e-07
5.43873e-07
5.89382e-07
8.70778e-07
1.41722e-06
1.57188e-06
0
0
0
1.34185e-06
2.61539e-06
1.27313e-06
0
0
0
0
0
0
0
0
0
0
0
0
0
3.48356e-07
0
0
0
0
0
0
0
0
0
0
0
0
0
0
0
0
0
0
0
0
0
0
1.69384e-06
2.33307e-06
2.28664e-06
2.56186e-06
3.53688e-06
4.87828e-06
5.90842e-06
6.59255e-06
7.09471e-06
7.53409e-06
7.91083e-06
8.48808e-06
9.67654e-06
1.02315e-05
9.99036e-06
5.35336e-06
1.37372e-06
0
0
0
0
0
1.29239e-06
2.99692e-06
3.03946e-06
1.33261e-08
0
0
0
0
0
1.72655e-06
4.10151e-06
4.36301e-06
1.41129e-06
0
7.58466e-07
2.53903e-06
2.51249e-06
1.61873e-06
4.41548e-07
8.29785e-08
0
0
0
0
0
0
0
0
0
0
0
0
0
0
0
0
0
0
0
0
0
3.44544e-07
1.52016e-06
2.0541e-06
1.65116e-06
3.15476e-07
0
0
0
0
0
8.62294e-08
7.64363e-07
5.57227e-07
0
0
0
5.06237e-07
3.9232e-06
6.77549e-06
8.16279e-06
8.36294e-06
7.58952e-06
6.07572e-06
4.12481e-06
2.47303e-06
1.84682e-06
1.34208e-06
0
0
0
0
1.10747e-05
1.10546e-05
9.9629e-06
8.50436e-06
6.30991e-06
6.41905e-06
7.62116e-06
7.3729e-06
5.44636e-06
3.65909e-06
2.24191e-06
9.08119e-07
0
0
0
0
0
0
0
3.1705e-07
1.76273e-06
2.41704e-06
1.97009e-06
8.93978e-07
0
0
0
0
0
0
1.49534e-07
4.10708e-07
5.25764e-07
4.40998e-07
3.28677e-07
3.48684e-07
4.78352e-07
6.38771e-07
7.85781e-07
9.21533e-07
1.0284e-06
1.16628e-06
1.43071e-06
6.49993e-07
0
0
0
1.81665e-05
1.44862e-05
9.3513e-06
5.90924e-06
3.28646e-06
8.79241e-07
0
0
0
0
0
0
0
0
0
0
7.54336e-07
8.78647e-07
0
0
0
0
0
0
0
0
0
0
0
0
0
0
0
7.38488e-08
5.19604e-07
1.46268e-06
2.68799e-06
3.8021e-06
4.47141e-06
5.71458e-06
9.3428e-06
1.12012e-05
1.1872e-05
1.20796e-05
1.17054e-05
1.10077e-05
1.03983e-05
9.91552e-06
9.54013e-06
9.4019e-06
9.83924e-06
1.15176e-05
1.25336e-05
1.2308e-05
1.15258e-05
1.00442e-05
6.79688e-06
4.08596e-06
2.70204e-06
2.38695e-06
2.99336e-06
4.50321e-06
6.38235e-06
7.45529e-06
5.87053e-06
1.47747e-06
0
1.05662e-06
5.78029e-06
7.4525e-06
8.52698e-06
8.39565e-06
8.03301e-06
6.61034e-06
0
0
1.97168e-06
1.93451e-06
7.12091e-07
0
0
0
0
0
0
0
0
0
0
0
0
0
0
0
0
0
0
0
0
0
2.91384e-06
6.61922e-06
1.07076e-05
1.42243e-05
1.58204e-05
1.36335e-05
6.95515e-06
0
0
0
0
0
2.38928e-06
5.5096e-06
7.03991e-06
6.65929e-06
4.12613e-06
0
0
0
0
2.56662e-06
6.01446e-06
7.20091e-06
7.06472e-06
5.92386e-06
3.82685e-06
2.48241e-07
0
0
0
0
0
1.37442e-06
3.70947e-06
3.83224e-06
3.7738e-06
3.21835e-06
3.35392e-06
3.3873e-06
3.11827e-06
2.58718e-06
1.97113e-06
1.28171e-06
6.13528e-07
0
0
0
0
0
0
0
1.44104e-06
3.103e-06
2.54908e-06
9.46264e-07
0
0
0
0
0
0
1.47577e-07
4.04548e-07
4.1908e-07
1.94596e-07
0
0
2.53763e-07
5.94398e-07
8.76396e-07
1.08272e-06
1.10791e-06
7.33318e-07
3.80338e-07
3.96216e-07
0
0
0
0
0
8.94636e-06
6.3472e-06
4.07359e-06
2.55656e-06
1.11837e-06
0
0
0
0
0
0
0
0
0
3.34459e-07
4.41378e-06
3.54936e-06
1.20374e-06
0
0
0
0
0
0
0
0
0
0
0
0
0
6.78461e-07
1.80738e-06
2.45273e-06
3.30731e-06
4.65914e-06
6.4789e-06
8.34083e-06
9.40694e-06
9.6009e-06
9.76962e-06
9.60699e-06
9.47579e-06
9.2731e-06
8.80339e-06
8.36332e-06
8.21379e-06
8.18677e-06
8.08232e-06
8.34157e-06
1.01263e-05
1.18864e-05
1.16758e-05
1.01501e-05
8.27608e-06
8.14184e-06
9.50483e-06
9.48912e-06
8.38023e-06
7.62217e-06
8.45947e-06
9.86425e-06
1.06683e-05
1.01049e-05
6.96975e-06
2.37664e-06
4.20967e-06
6.42207e-06
6.95056e-06
6.57938e-06
5.84181e-06
5.10205e-06
4.20343e-06
2.79328e-06
4.81789e-07
0
1.63086e-06
1.42727e-07
0
0
0
0
0
0
0
0
0
0
0
0
0
0
0
0
0
0
0
2.71685e-06
6.93229e-06
1.26849e-05
2.0346e-05
2.99225e-05
4.10868e-05
5.19825e-05
5.53882e-05
3.52573e-05
0
0
0
0
0
0
0
4.37117e-06
8.70288e-06
1.02178e-05
8.55874e-06
2.99645e-06
0
0
0
0
3.67588e-06
5.22492e-06
5.30372e-06
4.4741e-06
2.79907e-06
0
0
0
0
0
0
8.4256e-07
1.07976e-06
7.71374e-07
8.8964e-07
1.35571e-06
1.39726e-06
1.18066e-06
9.70529e-07
8.86702e-07
7.18648e-07
2.39922e-07
0
0
0
0
0
0
0
1.359e-06
1.79731e-06
5.35999e-07
0
0
0
0
0
0
9.83806e-08
4.99369e-07
5.18798e-07
2.3083e-07
0
0
0
3.09041e-07
7.23768e-07
1.00817e-06
1.10726e-06
7.77318e-07
0
0
0
0
0
0
0
0
0
0
0
0
0
0
0
0
0
0
0
0
0
7.04402e-06
9.99293e-06
9.11579e-06
6.88263e-06
3.3616e-06
6.69459e-08
0
0
0
0
0
0
0
0
0
0
0
0
0
2.30715e-06
4.05276e-06
5.22295e-06
6.54018e-06
8.09478e-06
9.89882e-06
1.14137e-05
1.15437e-05
1.06535e-05
9.56926e-06
8.40651e-06
7.55e-06
6.89026e-06
6.22803e-06
5.76413e-06
5.75449e-06
5.88988e-06
5.96621e-06
6.73768e-06
8.44915e-06
9.87583e-06
9.52217e-06
8.15708e-06
6.17169e-06
5.69556e-06
7.30424e-06
9.38548e-06
1.0643e-05
1.15973e-05
1.28862e-05
1.31359e-05
1.27495e-05
1.10545e-05
8.23046e-06
5.41565e-06
5.23209e-06
5.29771e-06
4.78165e-06
3.92502e-06
3.12674e-06
2.56488e-06
3.26719e-06
4.18626e-06
2.21018e-06
1.25149e-06
0
0
0
0
0
0
0
0
0
0
0
0
0
0
0
0
0
0
3.88482e-08
2.40378e-06
5.94601e-06
1.10287e-05
1.81422e-05
2.79104e-05
4.11194e-05
5.88366e-05
8.12405e-05
0.000100304
5.57275e-05
0
0
0
0
0
0
0
0
0
3.50611e-06
7.70623e-06
8.17859e-06
3.4203e-06
0
0
0
0
2.88595e-06
3.85378e-06
3.61719e-06
2.91633e-06
1.70322e-06
0
0
0
0
0
2.02505e-07
1.30803e-06
2.98762e-07
0
0
0
5.27119e-07
7.09899e-07
4.24375e-07
3.3848e-08
0
0
0
0
0
0
1.60565e-06
2.80171e-06
9.62254e-07
0
0
0
0
0
0
0
0
3.93448e-07
5.5013e-07
3.59455e-07
0
0
0
0
3.7325e-07
7.11582e-07
9.08737e-07
8.01376e-07
1.67776e-07
0
0
0
0
0
0
0
0
0
0
0
0
0
0
0
0
0
0
0
0
8.00418e-06
7.65763e-06
7.05424e-06
7.76497e-06
7.80593e-06
5.09659e-06
1.78345e-06
0
0
0
0
0
0
0
0
0
0
0
0
0
1.63347e-07
4.27952e-06
6.36809e-06
8.07899e-06
9.60888e-06
1.10135e-05
1.2273e-05
1.27593e-05
1.19992e-05
1.07709e-05
9.40862e-06
8.18585e-06
7.24177e-06
6.38402e-06
5.53352e-06
4.94742e-06
4.89102e-06
5.00225e-06
5.20819e-06
5.55092e-06
7.41743e-06
8.68387e-06
8.2945e-06
6.92414e-06
5.04508e-06
4.61579e-06
5.87518e-06
8.12368e-06
1.09157e-05
1.38128e-05
1.48313e-05
1.45877e-05
1.41193e-05
1.20121e-05
8.76944e-06
6.47202e-06
5.29994e-06
4.1953e-06
3.03552e-06
2.1209e-06
1.01858e-06
0
0
0
0
0
0
0
0
0
0
0
0
0
0
0
0
0
0
0
0
0
0
3.02033e-07
2.09631e-06
4.81648e-06
8.67567e-06
1.38532e-05
2.02274e-05
2.69438e-05
3.13391e-05
2.76386e-05
1.10077e-05
0
0
0
0
0
0
0
0
0
0
0
0
3.87415e-06
5.2464e-06
1.0783e-06
0
0
0
0
2.54308e-06
2.69675e-06
2.18877e-06
1.64015e-06
7.42191e-07
0
0
0
0
0
1.61515e-06
2.43156e-06
5.40091e-07
0
0
0
0
9.74612e-07
9.82551e-07
1.11835e-07
0
0
0
0
1.40629e-07
6.70195e-08
0
0
0
0
0
0
0
0
2.78932e-07
6.70248e-07
8.45355e-07
6.39231e-07
1.85136e-07
0
0
0
0
3.39215e-07
6.06275e-07
6.82027e-07
3.64291e-07
0
0
0
0
0
0
0
0
0
0
0
0
0
0
0
0
0
0
0
0
2.85202e-06
4.90632e-06
3.19154e-06
3.05952e-06
4.63242e-06
6.43969e-06
6.2988e-06
5.55892e-06
5.09113e-06
5.2079e-06
5.48502e-06
5.62306e-06
4.67506e-06
0
0
0
0
0
0
0
0
0
2.64379e-06
6.58679e-06
8.98138e-06
1.07483e-05
1.19626e-05
1.27858e-05
1.30414e-05
1.25987e-05
1.17279e-05
1.04876e-05
9.15891e-06
8.11408e-06
7.26811e-06
6.53616e-06
5.78831e-06
5.33399e-06
5.4912e-06
5.83299e-06
5.07397e-06
5.50688e-06
7.44997e-06
7.96494e-06
7.34647e-06
5.97153e-06
4.56567e-06
4.40755e-06
5.51126e-06
7.67512e-06
1.11573e-05
1.44763e-05
1.54941e-05
1.53029e-05
1.44042e-05
1.22477e-05
9.50935e-06
6.54226e-06
3.80155e-06
1.69073e-06
5.26178e-07
0
0
0
0
0
0
0
0
0
0
0
0
0
0
0
0
0
0
0
0
0
0
0
0
0
1.76139e-09
7.43524e-07
1.44615e-06
1.54175e-06
0
0
0
0
0
0
0
0
0
0
0
0
0
0
0
0
0
2.76642e-06
2.6653e-06
0
0
0
0
1.0616e-06
1.83717e-06
1.51009e-06
1.0213e-06
6.10136e-07
0
0
0
0
0
0
3.18413e-06
3.39039e-06
3.05608e-07
0
0
0
0
5.63108e-07
1.64641e-06
1.06587e-06
2.59795e-07
2.6137e-07
7.15556e-07
5.06479e-07
0
0
0
0
0
0
0
0
4.83559e-07
1.64595e-06
2.01236e-06
1.79284e-06
1.19393e-06
4.53225e-07
0
0
0
0
3.77598e-07
6.91062e-07
6.95111e-07
2.10543e-07
0
0
0
0
0
0
0
0
0
0
0
0
0
0
0
0
0
0
0
1.51315e-06
5.64459e-06
3.41619e-06
1.61211e-06
1.51846e-06
3.05606e-06
5.2681e-06
9.46997e-06
1.60939e-05
1.01696e-05
1.48409e-06
0
0
0
0
0
0
0
0
0
0
0
0
6.12061e-07
5.96368e-06
9.38166e-06
1.14711e-05
1.26211e-05
1.31746e-05
1.31053e-05
1.25555e-05
1.20059e-05
1.1145e-05
1.00132e-05
8.90429e-06
7.93458e-06
7.33392e-06
7.06377e-06
6.80684e-06
7.12694e-06
7.82385e-06
6.81035e-06
5.27167e-06
6.16665e-06
7.19985e-06
7.09877e-06
6.44779e-06
5.32577e-06
4.50602e-06
4.56989e-06
5.44078e-06
7.34421e-06
1.07686e-05
1.37558e-05
1.47228e-05
1.48174e-05
1.3825e-05
1.15665e-05
6.73041e-06
0
0
0
0
0
0
0
0
0
0
0
0
0
0
9.98788e-08
3.70086e-06
3.86806e-06
3.36198e-06
2.89992e-06
2.37582e-06
1.774e-06
1.1688e-06
6.75976e-07
2.92309e-07
0
0
0
0
0
0
0
0
0
0
0
0
0
0
0
0
0
0
0
0
0
0
0
0
0
1.72932e-06
2.25748e-06
0
0
0
0
6.77083e-07
1.21284e-06
9.27185e-07
4.99173e-07
1.50115e-07
0
0
0
0
0
0
3.54152e-07
3.39487e-06
3.24597e-06
0
0
0
0
0
0
4.64425e-07
1.12403e-06
0
0
0
0
0
0
0
0
0
0
0
0
9.54946e-07
2.27473e-06
2.44768e-06
1.78466e-06
7.72026e-07
0
0
0
0
3.9587e-07
9.23008e-07
9.85265e-07
4.02877e-07
0
0
0
0
1.74709e-06
2.60671e-06
1.08238e-06
0
0
0
0
0
0
0
0
3.69377e-07
1.10085e-06
1.37139e-06
2.10888e-06
5.88451e-06
6.55444e-06
3.51024e-06
1.93974e-06
1.96177e-06
3.36809e-06
6.60391e-06
2.06699e-05
8.36702e-06
0
0
0
0
0
0
0
0
0
0
0
0
0
0
7.44989e-07
5.81653e-06
1.00797e-05
1.24761e-05
1.36182e-05
1.39998e-05
1.37431e-05
1.28274e-05
1.21376e-05
1.1544e-05
1.05749e-05
9.49495e-06
8.49878e-06
7.87948e-06
7.8563e-06
8.13146e-06
8.81528e-06
9.96613e-06
9.72997e-06
7.28396e-06
5.75271e-06
6.33105e-06
6.55359e-06
6.36425e-06
5.90621e-06
5.24291e-06
4.79095e-06
4.70363e-06
5.01279e-06
5.86563e-06
8.08151e-06
1.17031e-05
1.38573e-05
1.30216e-05
7.96736e-06
0
0
0
0
0
0
5.60997e-07
5.10372e-07
0
1.24936e-06
4.16656e-08
0
0
0
1.6132e-07
9.73931e-07
5.23315e-06
6.69661e-06
6.56451e-06
6.06522e-06
5.43245e-06
4.56741e-06
3.56021e-06
2.667e-06
2.03631e-06
1.51514e-06
7.59772e-07
0
0
0
0
0
0
0
0
0
0
0
0
0
0
1.68358e-06
7.85195e-06
8.94053e-06
7.34576e-06
4.93931e-06
3.14164e-06
1.5392e-06
0
0
1.33963e-06
1.54664e-06
0
0
0
2.27172e-07
1.04845e-06
8.31691e-07
4.50527e-07
1.561e-07
0
0
0
0
0
0
0
0
0
1.96918e-06
1.62217e-06
0
0
0
0
0
0
0
0
0
0
0
0
0
0
0
0
0
0
0
0
0
1.25539e-06
1.49566e-06
8.87002e-07
0
0
0
0
1.54727e-07
9.20963e-07
1.19843e-06
8.41735e-07
0
0
0
4.79983e-07
4.41574e-06
6.95323e-06
7.34663e-06
3.21823e-06
0
0
0
0
0
0
0
1.11612e-06
2.0711e-06
2.64651e-06
4.35879e-06
8.36669e-06
6.90255e-06
4.49293e-06
3.58443e-06
4.00152e-06
5.54175e-06
1.16529e-05
4.82439e-06
0
0
0
0
0
0
0
0
0
0
0
0
0
0
0
2.67886e-06
7.13471e-06
1.13376e-05
1.36174e-05
1.45872e-05
1.47795e-05
1.44386e-05
1.33554e-05
1.22505e-05
1.15855e-05
1.06873e-05
9.62402e-06
8.71593e-06
8.18545e-06
8.21975e-06
8.66365e-06
9.47376e-06
1.08803e-05
1.13846e-05
1.00824e-05
6.77915e-06
5.74082e-06
5.89286e-06
5.99105e-06
6.06573e-06
5.97699e-06
5.56635e-06
4.91768e-06
4.09691e-06
2.48334e-06
1.16074e-06
4.87345e-06
1.0371e-05
9.92128e-06
0
0
0
0
0
0
1.16436e-06
2.70177e-06
2.79971e-06
1.53305e-06
1.23698e-06
3.97302e-06
2.11568e-07
0
1.58889e-06
2.71494e-06
4.04323e-06
5.89734e-06
7.72043e-06
8.0447e-06
7.94443e-06
7.52535e-06
6.77991e-06
5.78318e-06
4.72301e-06
3.8886e-06
3.33367e-06
2.84332e-06
2.0701e-06
6.60103e-07
0
0
0
0
0
0
0
0
0
0
0
1.23095e-05
2.66817e-05
2.42842e-05
1.80456e-05
1.20839e-05
7.44839e-06
4.37664e-06
2.07941e-06
3.57721e-08
0
7.38901e-07
9.33719e-07
0
0
1.0376e-08
2.04474e-06
1.30643e-06
4.93829e-07
3.24067e-08
0
0
0
0
0
0
0
0
0
0
0
0
0
0
0
0
0
0
0
0
1.01608e-08
0
0
0
0
0
0
0
0
0
0
0
0
0
0
2.27803e-07
0
0
0
0
0
5.13645e-07
1.09411e-06
1.20611e-06
6.71768e-07
0
8.13635e-08
2.77532e-06
7.39343e-06
1.22846e-05
1.46527e-05
1.45948e-05
1.47474e-05
0
0
0
0
0
0
2.10052e-06
3.12715e-06
3.85886e-06
6.57431e-06
1.01606e-05
8.49387e-06
7.13925e-06
7.20182e-06
7.9887e-06
1.07716e-05
6.17342e-06
1.91248e-06
0
0
0
0
0
0
0
0
0
0
0
0
0
0
0
2.89251e-06
8.72334e-06
1.31744e-05
1.52104e-05
1.5755e-05
1.56946e-05
1.52702e-05
1.41808e-05
1.27743e-05
1.18518e-05
1.08923e-05
9.72174e-06
8.76809e-06
8.35915e-06
8.50961e-06
9.04697e-06
9.80257e-06
1.12067e-05
1.19009e-05
1.15292e-05
8.74069e-06
6.01284e-06
5.54539e-06
5.7599e-06
6.22539e-06
6.69634e-06
6.61995e-06
5.74297e-06
4.13057e-06
1.11087e-06
0
0
3.12064e-06
2.84032e-06
0
0
0
0
0
0
2.27943e-06
4.00522e-06
3.92855e-06
1.92758e-06
0
2.03079e-06
2.88474e-06
0
6.83131e-06
5.94394e-06
4.4545e-06
4.48562e-06
5.92223e-06
7.38013e-06
7.77687e-06
7.73129e-06
7.29423e-06
6.49199e-06
5.58629e-06
4.73714e-06
4.07991e-06
3.61662e-06
3.17405e-06
2.49387e-06
1.30334e-06
0
0
0
0
0
0
0
0
0
0
6.21415e-05
4.4948e-05
2.86346e-05
1.78098e-05
1.06545e-05
6.09082e-06
3.23464e-06
1.16925e-06
0
0
7.53254e-07
1.09401e-06
1.44148e-06
2.65821e-06
4.34592e-06
3.19409e-06
1.32062e-06
2.99155e-07
0
0
0
0
0
0
0
0
0
0
0
0
0
0
0
0
0
0
0
0
0
0
0
0
0
0
0
0
0
0
0
0
0
0
0
0
0
0
0
0
0
0
0
5.23142e-07
1.12065e-06
1.49492e-06
1.84114e-06
3.13382e-06
6.12915e-06
1.09214e-05
1.73628e-05
2.23659e-05
2.5372e-05
2.83193e-05
0
0
0
0
0
0
3.19833e-06
4.29245e-06
5.25267e-06
8.75343e-06
1.1597e-05
1.091e-05
1.1236e-05
1.25787e-05
1.4682e-05
1.03149e-05
7.06309e-06
4.47566e-06
7.12989e-07
0
0
0
0
0
0
0
0
0
0
0
7.10541e-07
0
0
0
7.21567e-06
1.43823e-05
1.68627e-05
1.69813e-05
1.65297e-05
1.59083e-05
1.47628e-05
1.32752e-05
1.21242e-05
1.10869e-05
9.83838e-06
8.71311e-06
8.18021e-06
8.27102e-06
8.80033e-06
9.6338e-06
1.11215e-05
1.19711e-05
1.18514e-05
1.00134e-05
6.87886e-06
5.63455e-06
5.74315e-06
6.47294e-06
7.38103e-06
7.67637e-06
6.8083e-06
4.68174e-06
1.01406e-06
0
0
0
0
0
0
0
0
2.83016e-06
3.5977e-06
7.32608e-07
1.12231e-06
1.57535e-06
0
0
0
6.74737e-06
0
1.10039e-05
1.67482e-06
6.45091e-07
7.02593e-07
1.69777e-06
4.70954e-06
6.55429e-06
6.68462e-06
6.30977e-06
5.82134e-06
5.2328e-06
4.56662e-06
3.9653e-06
3.44571e-06
3.00489e-06
2.54726e-06
1.9297e-06
9.83287e-07
0
0
0
0
0
0
0
0
9.43076e-06
2.76947e-05
2.35459e-05
1.57537e-05
9.79224e-06
5.84488e-06
3.35548e-06
1.75732e-06
5.19408e-07
0
4.18281e-07
1.28256e-06
2.59853e-06
6.25988e-06
9.14791e-06
7.07232e-06
3.45767e-06
1.29063e-06
3.52638e-07
2.17797e-08
0
0
2.16991e-08
1.09847e-07
2.11788e-07
2.81694e-07
3.00626e-07
2.29797e-07
0
0
0
0
0
0
0
0
0
0
0
0
0
0
0
0
0
0
0
0
0
0
0
0
0
0
0
0
0
0
0
0
0
0
0
4.28393e-07
1.49539e-06
3.13487e-06
6.0199e-06
1.03797e-05
1.65297e-05
2.45888e-05
3.13109e-05
3.50461e-05
2.95646e-05
0
0
0
0
0
7.85493e-07
4.39627e-06
5.4472e-06
6.67643e-06
1.05702e-05
1.29552e-05
1.40814e-05
1.64284e-05
1.9632e-05
1.88079e-05
1.00915e-05
9.29126e-06
7.01003e-06
3.27977e-06
0
0
0
0
0
0
0
0
0
0
6.28516e-06
1.22521e-05
1.34384e-05
8.12667e-06
0
0
1.28788e-05
1.79398e-05
1.80299e-05
1.71864e-05
1.62633e-05
1.50179e-05
1.35848e-05
1.22484e-05
1.10739e-05
9.85397e-06
8.7417e-06
8.09131e-06
7.94171e-06
8.13554e-06
8.74035e-06
1.03159e-05
1.15288e-05
1.15559e-05
1.02394e-05
7.58935e-06
5.96357e-06
5.92655e-06
6.8335e-06
8.03875e-06
8.61003e-06
7.87787e-06
5.56419e-06
1.70425e-06
0
0
0
0
0
0
2.52455e-06
4.95238e-06
6.43756e-06
6.06387e-06
0
0
0
0
0
0
1.33036e-06
3.02657e-06
1.39963e-05
2.78121e-06
1.91944e-06
9.8989e-07
7.77424e-07
1.83766e-06
3.93982e-06
4.33841e-06
4.03814e-06
3.75399e-06
3.54715e-06
3.32053e-06
3.00436e-06
2.63409e-06
2.27266e-06
1.92571e-06
1.55109e-06
1.08246e-06
4.40315e-07
0
0
0
0
0
0
0
3.02973e-06
6.65928e-06
6.98769e-06
5.63904e-06
3.99589e-06
2.62533e-06
1.80748e-06
1.2142e-06
6.80931e-07
7.3409e-07
1.51916e-06
3.12852e-06
7.58623e-06
1.28751e-05
1.18213e-05
7.27275e-06
3.17169e-06
1.40239e-06
6.76609e-07
4.30424e-07
3.9611e-07
4.13591e-07
4.57742e-07
5.18785e-07
5.50359e-07
5.69335e-07
5.73045e-07
5.22485e-07
4.97616e-07
2.01571e-07
0
0
0
0
0
0
0
0
0
0
0
0
0
0
0
0
0
0
0
0
0
0
0
0
0
0
0
0
0
0
0
0
0
0
6.20209e-07
2.83376e-06
7.01866e-06
1.3083e-05
2.15426e-05
3.14573e-05
4.00233e-05
4.11235e-05
2.4991e-05
0
0
0
0
0
2.38636e-06
5.60199e-06
6.48411e-06
7.86626e-06
1.1833e-05
1.50868e-05
1.82234e-05
2.3133e-05
2.73055e-05
1.06425e-05
1.17848e-05
1.09613e-05
9.18206e-06
5.72104e-06
2.26685e-06
0
0
0
0
0
0
0
0
4.92593e-06
1.4759e-05
2.45213e-05
3.00972e-05
3.12719e-05
1.51855e-05
0
5.90061e-06
1.75621e-05
1.86386e-05
1.7506e-05
1.62339e-05
1.50094e-05
1.37022e-05
1.22601e-05
1.08659e-05
9.63361e-06
8.70311e-06
8.19541e-06
7.98687e-06
7.85279e-06
7.85731e-06
8.96337e-06
1.03805e-05
1.06872e-05
9.76232e-06
7.73646e-06
6.24443e-06
6.1961e-06
7.21535e-06
8.57025e-06
9.31429e-06
8.84167e-06
6.68533e-06
2.93403e-06
0
0
0
0
0
0
3.53803e-06
6.0319e-06
6.84617e-06
6.12503e-06
0
0
0
0
0
0
0
6.70776e-06
2.98732e-05
1.03653e-05
5.24212e-06
2.54159e-06
1.84413e-06
2.34528e-06
2.05349e-06
1.84766e-06
1.89206e-06
1.83992e-06
1.81122e-06
1.77146e-06
1.64758e-06
1.42334e-06
1.148e-06
8.84411e-07
6.38182e-07
3.81672e-07
8.92325e-08
0
0
0
0
0
0
0
7.47389e-07
1.65244e-06
2.03813e-06
2.08007e-06
1.87189e-06
1.72921e-06
1.79807e-06
1.72451e-06
1.62218e-06
2.05668e-06
3.68524e-06
8.14891e-06
1.33826e-05
1.26917e-05
1.14451e-05
6.23906e-06
3.0038e-06
1.73938e-06
1.18677e-06
9.74342e-07
9.22477e-07
9.08421e-07
9.70078e-07
1.02274e-06
9.65311e-07
8.06079e-07
6.59976e-07
5.77601e-07
5.49175e-07
4.09801e-07
0
0
0
0
0
0
0
0
0
0
0
0
0
0
0
0
0
0
0
0
0
0
0
0
0
0
0
0
0
0
0
0
0
0
1.6227e-08
1.85371e-06
5.75439e-06
1.22056e-05
2.14059e-05
3.17426e-05
4.06853e-05
3.74276e-05
1.42246e-05
0
0
0
0
0
3.91788e-06
6.48262e-06