/*--------------------------------*- C++ -*----------------------------------*\
| =========                 |                                                 |
| \\      /  F ield         | OpenFOAM: The Open Source CFD Toolbox           |
|  \\    /   O peration     | Version:  2112                                  |
|   \\  /    A nd           | Website:  www.openfoam.com                      |
|    \\/     M anipulation  |                                                 |
\*---------------------------------------------------------------------------*/
FoamFile
{
    version     2.0;
    format      ascii;
    arch        "LSB;label=32;scalar=64";
    class       volVectorField;
    location    "0.09";
    object      ddt0(U);
}
// * * * * * * * * * * * * * * * * * * * * * * * * * * * * * * * * * * * * * //

dimensions      [0 1 -2 0 0 0 0];

internalField   nonuniform List<vector> 
12225
(
(0.00188272 -0.000887258 0)
(0.0223012 -0.00171101 0)
(0.0523505 -0.0022905 0)
(0.0948718 -0.00421105 0)
(0.142179 -0.00440142 0)
(0.191988 -0.00870237 0)
(0.283737 -0.00966696 0)
(0.341418 -0.0101445 0)
(0.465096 -0.0172506 0)
(0.568295 -0.0191557 0)
(0.724973 -0.0479252 0)
(1.05203 -0.0209841 0)
(1.15352 -0.0191629 0)
(1.26481 -0.184464 0)
(2.89165 -0.208231 0)
(2.86582 0.177252 0)
(2.37605 -0.350973 0)
(5.02904 -0.625895 0)
(-3.56205e-05 -0.00392606 0)
(0.0141874 -0.00756687 0)
(0.0385212 -0.00986711 0)
(0.071589 -0.0129756 0)
(0.108058 -0.0146044 0)
(0.147973 -0.0228474 0)
(0.214172 -0.0293774 0)
(0.302619 -0.0342877 0)
(0.388081 -0.0416372 0)
(0.481786 -0.0576495 0)
(0.64652 -0.0728478 0)
(0.707053 -0.107167 0)
(1.01939 -0.166886 0)
(1.62028 -0.164716 0)
(1.42318 -0.219873 0)
(1.36222 -0.535459 0)
(3.55516 -0.619641 0)
(4.82189 -0.872407 0)
(0.000151036 -0.0049731 0)
(0.0133464 -0.0127845 0)
(0.0372308 -0.0190386 0)
(0.0661854 -0.0227682 0)
(0.0976676 -0.0273594 0)
(0.157818 -0.0376818 0)
(0.188652 -0.0452244 0)
(0.244889 -0.0564279 0)
(0.314926 -0.0731077 0)
(0.409528 -0.0926251 0)
(0.520093 -0.126492 0)
(0.621136 -0.161887 0)
(0.816935 -0.233115 0)
(1.08258 -0.344283 0)
(1.19675 -0.412969 0)
(1.59198 -0.534876 0)
(2.54345 -0.927388 0)
(2.6378 -1.5306 0)
(0.000278199 -0.00657265 0)
(0.012929 -0.0160796 0)
(0.0376991 -0.0258336 0)
(0.0637583 -0.0332444 0)
(0.101068 -0.0383547 0)
(0.138788 -0.0525821 0)
(0.182641 -0.0634606 0)
(0.238014 -0.07644 0)
(0.294612 -0.0978882 0)
(0.370981 -0.125148 0)
(0.450754 -0.164661 0)
(0.547467 -0.223654 0)
(0.72096 -0.31134 0)
(0.840545 -0.367394 0)
(0.823069 -0.56809 0)
(1.65685 -0.90421 0)
(1.96804 -1.04346 0)
(1.26538 -1.48398 0)
(0.000546761 -0.0086425 0)
(0.011639 -0.0208822 0)
(0.0380344 -0.0299244 0)
(0.0635659 -0.0420916 0)
(0.0987548 -0.0514236 0)
(0.137458 -0.0660956 0)
(0.180367 -0.0786456 0)
(0.230755 -0.0954655 0)
(0.283705 -0.120179 0)
(0.347765 -0.151737 0)
(0.418172 -0.199119 0)
(0.49237 -0.263963 0)
(0.60286 -0.350626 0)
(0.744895 -0.455653 0)
(0.780485 -0.686619 0)
(1.07895 -0.954186 0)
(1.27802 -1.10301 0)
(1.09064 -1.58506 0)
(0.000876428 -0.0100428 0)
(0.00810442 -0.0270797 0)
(0.0349333 -0.0375907 0)
(0.0635861 -0.0485995 0)
(0.0991397 -0.0599541 0)
(0.139426 -0.0781382 0)
(0.179722 -0.0953902 0)
(0.228809 -0.114705 0)
(0.278498 -0.14136 0)
(0.334787 -0.175952 0)
(0.395793 -0.22666 0)
(0.453903 -0.296645 0)
(0.530215 -0.39128 0)
(0.654034 -0.512753 0)
(0.690816 -0.737493 0)
(0.735318 -0.988207 0)
(0.871661 -1.17451 0)
(0.892778 -1.59992 0)
(0.00124973 -0.0110713 0)
(0.00516995 -0.0319066 0)
(0.0256633 -0.0486987 0)
(0.0566545 -0.0587989 0)
(0.0963128 -0.0733625 0)
(0.140119 -0.0906075 0)
(0.180622 -0.108372 0)
(0.231923 -0.128974 0)
(0.278632 -0.162554 0)
(0.32932 -0.199464 0)
(0.381249 -0.251593 0)
(0.429381 -0.324699 0)
(0.48556 -0.425676 0)
(0.56941 -0.551528 0)
(0.589914 -0.753379 0)
(0.574222 -0.996656 0)
(0.634052 -1.22135 0)
(0.636949 -1.55693 0)
(0.00134498 -0.0120065 0)
(0.00338533 -0.0350631 0)
(0.0173729 -0.0565397 0)
(0.0446452 -0.0746298 0)
(0.0822318 -0.0924218 0)
(0.128067 -0.107283 0)
(0.172373 -0.126513 0)
(0.228707 -0.151256 0)
(0.280781 -0.179983 0)
(0.330035 -0.215933 0)
(0.37453 -0.274309 0)
(0.414861 -0.348849 0)
(0.454685 -0.450793 0)
(0.502089 -0.575563 0)
(0.509429 -0.75772 0)
(0.484316 -0.985896 0)
(0.474359 -1.21107 0)
(0.41373 -1.49172 0)
(0.000624507 -0.0127317 0)
(0.00218496 -0.0374802 0)
(0.0120666 -0.0628227 0)
(0.0345634 -0.0855916 0)
(0.0663319 -0.108018 0)
(0.106991 -0.129282 0)
(0.151646 -0.153001 0)
(0.204372 -0.179805 0)
(0.262809 -0.203306 0)
(0.322771 -0.241606 0)
(0.372378 -0.2921 0)
(0.407943 -0.362798 0)
(0.433772 -0.466102 0)
(0.455396 -0.586879 0)
(0.450635 -0.753278 0)
(0.414656 -0.957956 0)
(0.361452 -1.16365 0)
(0.261338 -1.40424 0)
(-0.00120559 -0.012667 0)
(0.00172364 -0.0396314 0)
(0.00905643 -0.0686038 0)
(0.0273562 -0.0953236 0)
(0.0538766 -0.121542 0)
(0.0877656 -0.146773 0)
(0.127927 -0.174129 0)
(0.173366 -0.205918 0)
(0.226242 -0.238769 0)
(0.285303 -0.27636 0)
(0.345949 -0.316127 0)
(0.39432 -0.383922 0)
(0.421254 -0.47312 0)
(0.427219 -0.585013 0)
(0.409148 -0.737755 0)
(0.360636 -0.91525 0)
(0.285365 -1.09795 0)
(0.174151 -1.29839 0)
(-0.00129725 -0.0127124 0)
(0.00263407 -0.0408734 0)
(0.0081229 -0.0734882 0)
(0.022313 -0.104339 0)
(0.0442132 -0.133869 0)
(0.0722899 -0.162355 0)
(0.106287 -0.193139 0)
(0.144286 -0.228607 0)
(0.187759 -0.266487 0)
(0.237638 -0.308668 0)
(0.293704 -0.355048 0)
(0.346219 -0.414117 0)
(0.388561 -0.483919 0)
(0.404874 -0.583378 0)
(0.384581 -0.71317 0)
(0.328163 -0.866261 0)
(0.247421 -1.03029 0)
(0.140292 -1.20766 0)
(3.16753e-05 -0.01366 0)
(0.00389487 -0.0424344 0)
(0.00902089 -0.0771719 0)
(0.0192785 -0.111097 0)
(0.0371234 -0.143702 0)
(0.0605204 -0.175295 0)
(0.0890005 -0.208834 0)
(0.120793 -0.246498 0)
(0.156118 -0.287474 0)
(0.195774 -0.333483 0)
(0.241043 -0.383093 0)
(0.287575 -0.44107 0)
(0.331122 -0.507348 0)
(0.362114 -0.587788 0)
(0.363498 -0.690702 0)
(0.323949 -0.820779 0)
(0.255156 -0.962974 0)
(0.156681 -1.11708 0)
(0.000458282 -0.0145751 0)
(0.00513726 -0.0446904 0)
(0.0101791 -0.0801535 0)
(0.0174035 -0.116936 0)
(0.0315964 -0.152662 0)
(0.0507478 -0.187296 0)
(0.0741546 -0.223412 0)
(0.10039 -0.263101 0)
(0.128856 -0.306657 0)
(0.159513 -0.355358 0)
(0.193212 -0.408183 0)
(0.228935 -0.467631 0)
(0.265075 -0.532081 0)
(0.297657 -0.602975 0)
(0.315206 -0.685186 0)
(0.302674 -0.783939 0)
(0.257736 -0.895342 0)
(0.179885 -1.0174 0)
(0.000488034 -0.0160471 0)
(0.00536397 -0.0474659 0)
(0.0107937 -0.0829917 0)
(0.0168416 -0.122571 0)
(0.0268004 -0.161029 0)
(0.0413792 -0.198669 0)
(0.0593759 -0.237436 0)
(0.079758 -0.279122 0)
(0.101714 -0.324515 0)
(0.124394 -0.374717 0)
(0.147369 -0.429796 0)
(0.170294 -0.49067 0)
(0.192688 -0.555687 0)
(0.212946 -0.623861 0)
(0.226923 -0.694875 0)
(0.226361 -0.771111 0)
(0.202989 -0.853768 0)
(0.151368 -0.939555 0)
(0.000398493 -0.017634 0)
(0.00475688 -0.0508482 0)
(0.0108774 -0.0868385 0)
(0.0163552 -0.127106 0)
(0.0221608 -0.168592 0)
(0.0319097 -0.208628 0)
(0.0443595 -0.249811 0)
(0.0585386 -0.293424 0)
(0.0739134 -0.340123 0)
(0.089512 -0.390701 0)
(0.104094 -0.445718 0)
(0.116544 -0.505618 0)
(0.125937 -0.569113 0)
(0.131094 -0.634234 0)
(0.130605 -0.698982 0)
(0.122372 -0.762109 0)
(0.102576 -0.82219 0)
(0.0657471 -0.872837 0)
(0.000285593 -0.0192201 0)
(0.00362613 -0.0546827 0)
(0.00883162 -0.0914963 0)
(0.014342 -0.130616 0)
(0.0178807 -0.173203 0)
(0.0216525 -0.216157 0)
(0.0284992 -0.259402 0)
(0.0363682 -0.30464 0)
(0.0448496 -0.352343 0)
(0.0532541 -0.402755 0)
(0.060372 -0.456109 0)
(0.0647049 -0.512387 0)
(0.0647755 -0.570463 0)
(0.0592886 -0.628511 0)
(0.047178 -0.68459 0)
(0.0276519 -0.736185 0)
(-0.00029608 -0.779073 0)
(-0.0394402 -0.803552 0)
(0.000155906 -0.0204842 0)
(0.0020257 -0.0580009 0)
(0.00503213 -0.0959363 0)
(0.00834974 -0.134899 0)
(0.0107965 -0.175293 0)
(0.0110419 -0.218596 0)
(0.0112215 -0.263601 0)
(0.0128876 -0.310196 0)
(0.0143487 -0.358305 0)
(0.014948 -0.407853 0)
(0.0138208 -0.458574 0)
(0.00978956 -0.509813 0)
(0.00160633 -0.560312 0)
(-0.0117799 -0.608413 0)
(-0.0312946 -0.65221 0)
(-0.0578549 -0.688872 0)
(-0.0921807 -0.71326 0)
(-0.135874 -0.715122 0)
(4.37094e-06 -0.0210133 0)
(2.86924e-05 -0.0594727 0)
(-8.93828e-05 -0.0978393 0)
(-0.000643403 -0.136568 0)
(-0.00213389 -0.175751 0)
(-0.00437369 -0.216434 0)
(-0.00793818 -0.261334 0)
(-0.012548 -0.307413 0)
(-0.018214 -0.353974 0)
(-0.0258635 -0.400618 0)
(-0.0361524 -0.4468 0)
(-0.0496557 -0.491636 0)
(-0.0668776 -0.533913 0)
(-0.0881693 -0.572099 0)
(-0.113926 -0.604043 0)
(-0.144842 -0.626257 0)
(-0.181811 -0.632958 0)
(-0.226863 -0.614169 0)
(-0.000185532 -0.0202425 0)
(-0.00230109 -0.0573776 0)
(-0.0061501 -0.0943278 0)
(-0.0115378 -0.131588 0)
(-0.0184938 -0.169354 0)
(-0.0241175 -0.208482 0)
(-0.0307745 -0.250759 0)
(-0.0414495 -0.293023 0)
(-0.0543793 -0.334635 0)
(-0.0704173 -0.375152 0)
(-0.0898917 -0.414079 0)
(-0.112896 -0.450675 0)
(-0.139675 -0.483754 0)
(-0.170741 -0.511332 0)
(-0.20705 -0.530088 0)
(-0.249697 -0.534732 0)
(-0.29941 -0.517654 0)
(-0.357423 -0.468809 0)
(-0.000334478 -0.0181543 0)
(-0.00424002 -0.0514972 0)
(-0.0111521 -0.0850428 0)
(-0.0203483 -0.11957 0)
(-0.0306133 -0.156151 0)
(-0.0383948 -0.196733 0)
(-0.0487537 -0.233305 0)
(-0.0659888 -0.268181 0)
(-0.0860623 -0.302158 0)
(-0.109741 -0.334734 0)
(-0.137449 -0.364969 0)
(-0.169521 -0.39162 0)
(-0.20645 -0.412564 0)
(-0.248928 -0.424571 0)
(-0.297743 -0.423764 0)
(-0.352566 -0.406946 0)
(-0.410675 -0.370132 0)
(-0.467353 -0.307234 0)
(-0.000447764 -0.0156651 0)
(-0.0054634 -0.044844 0)
(-0.0139448 -0.0750632 0)
(-0.0244197 -0.107885 0)
(-0.0332003 -0.145971 0)
(-0.0449463 -0.182291 0)
(-0.0644065 -0.211967 0)
(-0.0873071 -0.239978 0)
(-0.113742 -0.267313 0)
(-0.144029 -0.292744 0)
(-0.179417 -0.314153 0)
(-0.220952 -0.330128 0)
(-0.267891 -0.338866 0)
(-0.318889 -0.337924 0)
(-0.37198 -0.325297 0)
(-0.422899 -0.303072 0)
(-0.468601 -0.273993 0)
(-0.503927 -0.237347 0)
(-0.000545257 -0.013003 0)
(-0.00605377 -0.0382641 0)
(-0.0143713 -0.0656807 0)
(-0.0230621 -0.0994785 0)
(-0.0348813 -0.133245 0)
(-0.0546457 -0.161305 0)
(-0.0795819 -0.185625 0)
(-0.109216 -0.208131 0)
(-0.143057 -0.229722 0)
(-0.180249 -0.248181 0)
(-0.223175 -0.259597 0)
(-0.272062 -0.265583 0)
(-0.323244 -0.266989 0)
(-0.373058 -0.262854 0)
(-0.417431 -0.251486 0)
(-0.452464 -0.242155 0)
(-0.475762 -0.231671 0)
(-0.491963 -0.214803 0)
(-0.000364216 -0.0106645 0)
(-0.0058846 -0.033248 0)
(-0.0120358 -0.0604362 0)
(-0.0222174 -0.0898963 0)
(-0.0416892 -0.116034 0)
(-0.0670659 -0.139553 0)
(-0.0980803 -0.157926 0)
(-0.134569 -0.173977 0)
(-0.175158 -0.189604 0)
(-0.220507 -0.201035 0)
(-0.268651 -0.199366 0)
(-0.31316 -0.200604 0)
(-0.356194 -0.203091 0)
(-0.399058 -0.207046 0)
(-0.430951 -0.210693 0)
(-0.452551 -0.21138 0)
(-0.472595 -0.210241 0)
(-0.490652 -0.198428 0)
(0.000836461 -0.00890618 0)
(-0.00333716 -0.0297668 0)
(-0.0111285 -0.0545218 0)
(-0.026878 -0.0764574 0)
(-0.0515935 -0.0969103 0)
(-0.0849617 -0.114305 0)
(-0.123751 -0.121561 0)
(-0.161215 -0.131701 0)
(-0.201469 -0.141505 0)
(-0.252166 -0.151393 0)
(-0.294931 -0.159704 0)
(-0.326669 -0.162626 0)
(-0.360187 -0.165453 0)
(-0.392858 -0.170323 0)
(-0.422479 -0.180494 0)
(-0.450658 -0.185 0)
(-0.476887 -0.184689 0)
(-0.501705 -0.177162 0)
(0.000675253 -0.00841576 0)
(-0.00357984 -0.0265494 0)
(-0.0153542 -0.042894 0)
(-0.0351109 -0.0582407 0)
(-0.0618424 -0.0712323 0)
(-0.102317 -0.0830239 0)
(-0.141544 -0.0958951 0)
(-0.173526 -0.104844 0)
(-0.209519 -0.110631 0)
(-0.249453 -0.116122 0)
(-0.28694 -0.131348 0)
(-0.323164 -0.137962 0)
(-0.357518 -0.140847 0)
(-0.390387 -0.144409 0)
(-0.423352 -0.149999 0)
(-0.456802 -0.153757 0)
(-0.48925 -0.154383 0)
(-0.521523 -0.150141 0)
(-0.000676412 -0.00773939 0)
(-0.00722216 -0.0200696 0)
(-0.0223285 -0.0339976 0)
(-0.0423633 -0.0458831 0)
(-0.06836 -0.0539264 0)
(-0.102368 -0.0604523 0)
(-0.137017 -0.0774784 0)
(-0.172802 -0.0873429 0)
(-0.209007 -0.0922536 0)
(-0.245523 -0.0959864 0)
(-0.283224 -0.103877 0)
(-0.322537 -0.109087 0)
(-0.360285 -0.111933 0)
(-0.396605 -0.114977 0)
(-0.43319 -0.119288 0)
(-0.470976 -0.122204 0)
(-0.508476 -0.122433 0)
(-0.547357 -0.119484 0)
(-0.00138136 -0.00548082 0)
(-0.00804609 -0.014915 0)
(-0.0234451 -0.0278017 0)
(-0.0449938 -0.0382207 0)
(-0.0711728 -0.0441981 0)
(-0.101239 -0.0487877 0)
(-0.133986 -0.0583002 0)
(-0.171733 -0.0650212 0)
(-0.210733 -0.0687256 0)
(-0.248022 -0.0716973 0)
(-0.286812 -0.0776683 0)
(-0.328135 -0.0821161 0)
(-0.369153 -0.0847847 0)
(-0.409679 -0.0869746 0)
(-0.449936 -0.0895039 0)
(-0.492043 -0.0907256 0)
(-0.533448 -0.0895107 0)
(-0.577212 -0.0859768 0)
(-0.000657467 -0.00368966 0)
(-0.00779532 -0.011961 0)
(-0.0237354 -0.0199964 0)
(-0.0474696 -0.0267055 0)
(-0.0743622 -0.0302719 0)
(-0.104456 -0.0331099 0)
(-0.138082 -0.0382731 0)
(-0.169336 -0.0444704 0)
(-0.218911 -0.0463594 0)
(-0.256334 -0.0478543 0)
(-0.296209 -0.0522467 0)
(-0.340561 -0.0553024 0)
(-0.38605 -0.0569864 0)
(-0.431623 -0.0581195 0)
(-0.476361 -0.0589018 0)
(-0.523216 -0.0585332 0)
(-0.567738 -0.0557479 0)
(-0.615366 -0.0514563 0)
(0.00031702 -0.00256532 0)
(-0.00899819 -0.00686503 0)
(-0.0193273 -0.0112497 0)
(-0.0530567 -0.0146176 0)
(-0.0812204 -0.0158859 0)
(-0.110645 -0.0171883 0)
(-0.146146 -0.0213585 0)
(-0.194323 -0.022808 0)
(-0.227747 -0.0243327 0)
(-0.280069 -0.0266548 0)
(-0.328284 -0.0279268 0)
(-0.376913 -0.0287994 0)
(-0.42584 -0.0293256 0)
(-0.476381 -0.0295445 0)
(-0.524714 -0.0290088 0)
(-0.573924 -0.0276523 0)
(-0.617501 -0.0245384 0)
(-0.662647 -0.0201493 0)
(-0.00198402 -0.000765194 0)
(-0.0120526 -0.00235511 0)
(-0.0418853 -0.0022061 0)
(-0.0622404 -0.00277027 0)
(-0.103941 -0.00505732 0)
(-0.144658 -0.00534548 0)
(-0.18584 -0.00620753 0)
(-0.230024 -0.00778919 0)
(-0.277854 -0.00824812 0)
(-0.325297 -0.00822883 0)
(-0.370709 -0.00880594 0)
(-0.417159 -0.00924316 0)
(-0.462178 -0.00904693 0)
(-0.505656 -0.0087056 0)
(-0.545637 -0.00821235 0)
(-0.582725 -0.00748629 0)
(-0.614226 -0.00588593 0)
(-0.639061 -0.00369027 0)
(2.31009 -6.29891 -5.84226e-19)
(6.18482 -3.67699 5.82513e-19)
(10.518 -2.62011 0)
(15.7153 -0.829681 0)
(16.551 0.866352 0)
(18.1355 3.55928 -5.56341e-19)
(19.3856 4.49227 0)
(16.9481 5.13398 0)
(14.2373 5.09247 0)
(11.6287 4.57416 0)
(9.40242 3.77138 5.4524e-19)
(7.79895 2.88695 0)
(6.83742 2.24629 0)
(6.44723 1.84323 0)
(6.34491 1.36552 0)
(6.67548 0.650752 5.29989e-19)
(7.42688 0.00479824 0)
(8.26347 -0.316338 0)
(9.15219 -0.359982 0)
(9.99121 -0.237826 0)
(10.6416 -0.0370815 0)
(11.0789 0.219068 0)
(11.1969 0.510507 0)
(11.0136 0.813021 5.27713e-19)
(10.4834 1.05767 -5.27182e-19)
(9.66255 1.22769 5.26412e-19)
(8.75894 1.39259 5.25341e-19)
(7.43012 1.29056 0)
(6.08503 1.19481 0)
(5.00622 1.08348 -5.27248e-19)
(4.30762 0.650136 -5.30956e-19)
(4.21667 -0.0335533 0)
(4.95852 -1.07759 0)
(6.9743 -2.41484 -5.5415e-19)
(10.529 -4.13564 0)
(16.072 -6.37722 0)
(24.0861 -8.45195 6.03331e-19)
(34.1327 -10.92 0)
(47.9259 -11.8131 6.40533e-19)
(60.9734 -13.9682 1.30977e-18)
(81.2644 -8.36292 0)
(88.6506 32.2189 0)
(68.6812 13.2684 0)
(61.8765 -23.6617 0)
(77.9955 -4.24304 0)
(97.1637 -4.56916 1.73426e-18)
(97.0632 3.47217 1.87999e-18)
(69.2161 22.9591 1.86089e-18)
(17.9209 35.9967 0)
(-29.5815 29.4619 -1.83294e-18)
(-54.067 10.4744 0)
(-60.3079 -5.51405 1.47374e-18)
(-46.2614 -18.1274 1.30076e-18)
(-18.8191 -23.6877 0)
(12.7234 -31.3132 0)
(51.9412 -30.459 0)
(92.8285 -26.2517 1.53833e-18)
(122.225 -14.4481 0)
(144.712 38.373 0)
(160.058 3.77848 0)
(94.4225 -27.7096 0)
(-1.42164 67.0756 0)
(-14.301 209.194 0)
(-64.1477 181.26 0)
(-104.039 -40.648 0)
(-6.60661 -177.061 7.80237e-19)
(40.4808 -43.3931 0)
(-46.995 81.4639 0)
(-63.6929 -20.1871 -4.50072e-19)
(24.8685 -57.2229 -2.00185e-19)
(65.8287 -30.0069 0)
(97.3928 -30.6558 1.1533e-19)
(132.716 -24.0562 -1.54239e-19)
(154.115 -16.7728 0)
(173.067 -13.0889 2.92831e-19)
(186.131 -8.60787 0)
(194.167 -5.1139 0)
(198.285 -2.50004 -4.64093e-19)
(198.647 -0.37632 0)
(196.754 1.09725 5.37103e-19)
(192.349 2.38688 0)
(186.374 2.94937 -5.70092e-19)
(178.844 3.88309 -5.68713e-19)
(169.434 5.09325 -5.60169e-19)
(158.103 6.22107 -1.07258e-18)
(144.733 7.64471 9.80757e-19)
(129.062 9.14413 0)
(111.057 10.7827 0)
(90.2114 12.6854 0)
(66.2866 14.5989 1.58153e-19)
(39.0581 16.6914 -1.75887e-19)
(8.37194 18.7056 5.69114e-19)
(-25.3969 20.4934 0)
(-61.7818 21.8672 -1.52237e-18)
(-99.7894 22.2613 -2.05732e-18)
(-138.095 21.6997 -2.58851e-18)
(-175.103 20.3241 0)
(-209.086 18.0107 0)
(-238.953 14.431 0)
(-263.562 10.4611 -4.52569e-18)
(-281.19 7.65273 0)
(-290.558 3.39 0)
(-292.636 -1.22595 5.02159e-18)
(-286.161 -5.88386 0)
(-270.584 -10.6266 0)
(-245.788 -15.1561 3.95785e-18)
(-212.75 -18.6985 0)
(-174.229 -20.4347 0)
(-133.099 -20.7854 -1.65256e-18)
(-90.6078 -20.6824 -7.78442e-19)
(-47.5049 -20.1649 0)
(-5.23835 -18.8756 -8.66767e-19)
(34.6702 -16.902 0)
(71.1685 -14.5787 2.19478e-18)
(103.137 -11.828 0)
(129.519 -8.63967 2.99782e-18)
(149.89 -5.51897 3.19253e-18)
(164.285 -2.39094 0)
(172.752 0.784207 0)
(175.237 3.77662 0)
(171.728 6.72931 0)
(162.295 9.58522 0)
(147.022 12.3824 0)
(125.897 15.1126 0)
(98.8829 17.7788 1.03026e-18)
(66.027 20.3072 -4.0521e-19)
(27.5635 22.4972 0)
(-16.0408 24.1832 0)
(-63.9509 25.1003 0)
(-114.803 25.0196 0)
(-167.101 23.6624 5.6981e-18)
(-218.524 21.2723 0)
(-265.997 17.6006 -7.01162e-18)
(-306.658 12.5729 7.39154e-18)
(-337.232 6.28017 0)
(-354.607 -1.14834 0)
(-356.103 -9.49912 0)
(-340.238 -16.9208 -6.17339e-18)
(-307.857 -20.8708 -5.40413e-18)
(-262.06 -25.6606 0)
(-207.329 -29.3891 -3.73211e-18)
(-147.802 -27.6734 -2.92267e-18)
(-89.6204 -22.9476 2.1785e-18)
(-37.8651 -16.7637 0)
(3.76333 -10.3443 0)
(33.4656 -4.53457 5.66551e-19)
(50.954 0.449861 0)
(56.1045 4.75286 0)
(49.3909 8.30875 0)
(32.132 11.1259 0)
(5.9315 13.336 3.9842e-19)
(-27.5886 14.9121 4.22509e-19)
(-66.5604 15.6873 0)
(-108.821 15.6171 4.26704e-19)
(-151.434 14.4305 0)
(-190.45 11.9101 0)
(-222.681 8.74754 6.53931e-19)
(-247.6 5.9446 0)
(-264.755 2.51597 9.32657e-19)
(-271.175 -1.7787 0)
(-269.07 -3.15617 0)
(-263.899 -5.65127 1.15178e-18)
(-243.115 -9.57718 0)
(-217.428 -8.97547 9.20514e-19)
(-192.372 -17.2324 0)
(-123.075 -19.3864 0)
(-69.7605 -28.8784 0)
(47.0819 -56.7999 9.96004e-19)
(221.925 -32.7526 0)
(273.648 -108.425 -2.11305e-18)
(802.19 -203.719 0)
(1459.63 99.4731 0)
(1045.95 297.965 0)
(455.446 94.9159 0)
(177.803 -44.4857 0)
(56.5057 -49.3798 0)
(18.8685 -0.0634957 0)
(-28.6898 19.5197 3.53864e-18)
(-72.1156 14.8151 0)
(-119.19 5.64751 0)
(-1.32991 -9.51112 1.75078e-18)
(-3.44451 -11.122 -1.75074e-18)
(0.299336 -14.2632 0)
(4.25267 -15.5963 1.12892e-18)
(6.26269 -10.6626 0)
(6.40805 -2.46489 5.37493e-19)
(5.78173 3.39099 -1.0758e-18)
(4.69149 6.4942 -1.06506e-18)
(3.65788 7.09874 0)
(2.85703 6.09056 -1.04937e-18)
(2.49024 4.44924 -5.25171e-19)
(2.46476 2.67497 0)
(2.72457 0.950779 0)
(3.37925 -0.464961 0)
(4.33759 -1.47077 0)
(5.36955 -2.1772 -5.12765e-19)
(6.34177 -2.60626 0)
(7.24383 -2.74627 1.01853e-18)
(8.12056 -2.62616 0)
(8.96049 -2.27922 0)
(9.71813 -1.73931 -1.02461e-18)
(10.3149 -1.01888 0)
(10.6765 -0.182095 1.03412e-18)
(10.7612 0.669726 -5.18096e-19)
(10.5771 1.45373 5.20369e-19)
(10.157 2.07584 -5.21968e-19)
(9.42735 2.53509 -5.23549e-19)
(8.84302 2.6975 0)
(8.22849 2.51707 0)
(7.57286 1.95238 5.31075e-19)
(7.08951 0.885757 -5.23224e-19)
(6.9277 -0.789145 0)
(7.34176 -3.10055 0)
(8.34233 -6.16835 5.53182e-19)
(10.4385 -9.99961 0)
(13.4427 -14.6965 0)
(18.448 -19.9932 -5.9521e-19)
(24.602 -25.6722 0)
(34.6146 -31.0379 5.87279e-19)
(45.6032 -34.077 -1.28928e-18)
(62.8661 -35.1418 0)
(82.4509 -22.0445 0)
(118.229 18.6409 -2.7074e-18)
(129.211 21.1052 -2.83462e-18)
(109.597 -43.933 -3.07771e-18)
(130.627 -31.2352 1.39026e-18)
(140.199 23.7965 -1.79104e-18)
(122.554 89.9394 -5.28368e-18)
(78.4063 126.29 3.48827e-18)
(52.562 94.0791 1.77271e-18)
(38.6339 37.1289 0)
(38.2939 -12.6626 -1.39076e-18)
(49.2508 -44.1156 1.23544e-18)
(65.5476 -61.1734 0)
(86.3001 -71.9526 0)
(108.423 -76.828 0)
(141.121 -65.3369 -1.48611e-18)
(168.667 -66.8077 0)
(170.102 -74.9429 3.54867e-18)
(160.475 57.8314 0)
(171.8 219.43 2.71108e-18)
(204.261 50.0697 0)
(354.298 -148.15 -1.95593e-18)
(437.189 -112.43 0)
(303.855 -1.01516 -1.18846e-18)
(166.598 57.2063 4.47545e-19)
(127.047 57.0967 0)
(130.497 5.67629 1.06585e-18)
(129.517 -54.9942 3.72031e-19)
(147.182 -56.219 1.5758e-19)
(141.383 -47.9053 0)
(145.444 -44.6785 2.29512e-19)
(143.908 -34.2736 1.06789e-19)
(142.792 -26.1342 0)
(141.798 -18.9247 -1.63123e-19)
(139.476 -12.4823 3.83703e-19)
(137.366 -5.86254 0)
(133.698 -0.733929 2.04059e-19)
(129.815 3.54636 0)
(124.436 6.98268 -6.54428e-19)
(118.189 10.0775 0)
(110.333 12.752 6.11015e-19)
(100.929 15.3661 1.72189e-19)
(90.3085 18.1612 -2.11145e-19)
(78.1622 21.0317 -3.8367e-19)
(64.3857 24.1296 3.32326e-19)
(48.8093 27.5473 0)
(31.0815 31.19 0)
(11.3969 35.1082 0)
(-10.3409 39.285 1.41042e-18)
(-34.2936 43.4958 8.05814e-19)
(-60.191 47.3987 -1.12323e-18)
(-87.7357 50.5744 0)
(-116.251 52.5225 -1.66712e-18)
(-144.918 52.7943 2.3876e-18)
(-172.506 51.0057 2.78362e-18)
(-197.871 47.065 0)
(-220.118 41.3234 0)
(-238.465 33.9672 0)
(-252.527 25.5121 4.25818e-18)
(-261.645 16.8044 0)
(-266.05 6.57421 -9.54068e-18)
(-262.788 -4.5834 -1.40983e-17)
(-251.674 -16.6443 9.21472e-18)
(-232.335 -28.9136 0)
(-204.967 -40.4094 4.00497e-18)
(-170.517 -49.5755 0)
(-131.207 -54.7381 4.80426e-18)
(-88.9727 -56.9667 -1.81845e-18)
(-45.0627 -57.9457 -9.68202e-19)
(-0.845649 -57.3342 0)
(42.0256 -54.6731 2.19961e-18)
(82.161 -50.333 -2.71256e-18)
(118.112 -44.5077 -1.96863e-18)
(148.619 -37.1917 0)
(173.391 -29.3334 -2.69477e-18)
(192.363 -21.8628 -8.71433e-18)
(205.271 -14.6076 0)
(211.596 -7.03998 -6.00007e-18)
(211.425 0.585692 -5.77987e-18)
(205.008 7.86539 -5.37109e-18)
(192.498 14.7864 0)
(174.189 21.5507 0)
(150.062 28.2373 0)
(120.035 34.8014 1.30962e-18)
(84.2384 41.1752 4.83756e-19)
(42.7673 47.2743 0)
(-4.08453 52.8213 -1.02317e-18)
(-55.6745 57.3453 -2.11245e-18)
(-110.963 60.1684 0)
(-168.423 60.2877 -4.41994e-18)
(-225.58 57.4153 -9.93742e-18)
(-279.741 51.0179 5.77969e-18)
(-327.863 41.3051 5.95384e-18)
(-366.396 28.2472 0)
(-392.13 12.3164 0)
(-402.946 -5.15575 0)
(-397.593 -22.6468 5.4006e-18)
(-375.805 -37.7931 -5.12007e-18)
(-339.461 -48.3655 -8.74035e-18)
(-291.879 -54.3793 3.57119e-18)
(-237.104 -56.5007 -3.32925e-18)
(-178.317 -54.5946 -2.35777e-18)
(-119.732 -48.1456 0)
(-66.3293 -38.4695 0)
(-21.5443 -27.4484 1.04519e-18)
(12.5351 -15.6495 0)
(34.2086 -3.6497 0)
(42.6307 7.4829 5.33147e-20)
(38.2799 17.0417 0)
(22.4875 24.8622 3.5894e-19)
(-3.01774 30.9546 -3.09493e-19)
(-36.4719 35.2128 0)
(-75.7282 37.0116 5.00872e-19)
(-117.358 35.6263 0)
(-157.363 31.4234 0)
(-193.32 25.6168 -5.76761e-19)
(-223.16 18.8496 1.50188e-18)
(-244.692 11.7153 -8.62865e-19)
(-259.105 4.51454 0)
(-265.906 -1.87104 0)
(-261.629 -8.42467 1.09286e-18)
(-253.241 -15.9774 0)
(-233.743 -21.2005 6.29798e-19)
(-203.324 -32.2847 0)
(-176.597 -44.7561 0)
(-132.721 -52.5285 0)
(-113.24 -85.0355 -1.00302e-18)
(-15.6391 -99.4696 0)
(19.509 -146.705 2.016e-18)
(98.3707 -279.857 0)
(456.268 -211.383 0)
(547.352 64.5243 1.0479e-17)
(745.465 279.199 -5.19204e-18)
(923.469 263.462 0)
(575.787 117.429 0)
(249.602 41.7331 0)
(103.42 26.5651 -1.09028e-17)
(23.7646 24.7771 0)
(-48.0765 20.2842 1.14457e-17)
(-1.58981 0.381816 3.08606e-20)
(0.379109 -12.2942 2.34139e-18)
(3.45313 -21.1241 0)
(1.43966 -17.5798 -2.23318e-18)
(-2.56896 -8.53036 0)
(-6.29522 0.247229 0)
(-8.82786 6.0228 -9.4392e-21)
(-9.98732 8.1714 9.94108e-19)
(-10.1515 7.73802 9.68038e-19)
(-9.81644 5.97036 9.45801e-19)
(-9.21158 3.74238 0)
(-8.39324 1.53734 0)
(-7.38859 -0.489142 -8.92193e-19)
(-6.34611 -2.16498 -1.7723e-18)
(-5.1795 -3.16436 1.77855e-18)
(-4.05177 -3.80041 0)
(-2.86692 -4.15514 1.7859e-18)
(-1.57628 -4.24393 -9.00947e-19)
(-0.203941 -4.08806 0)
(1.18101 -3.7152 1.8421e-18)
(2.49891 -3.01643 9.31136e-19)
(3.58294 -1.95934 -1.89669e-18)
(4.3236 -0.711001 -9.59325e-19)
(4.72003 0.578305 0)
(4.78455 1.77747 1.97302e-18)
(4.55136 2.82406 1.99263e-18)
(4.01548 3.56916 0)
(3.29509 3.95932 2.01881e-18)
(2.46019 3.79084 0)
(1.57763 2.98025 2.01959e-18)
(0.831058 1.51135 1.0263e-18)
(0.393873 -0.765355 0)
(0.369614 -3.92242 0)
(0.910842 -8.09143 0)
(2.15432 -13.2924 0)
(4.15325 -19.7096 0)
(7.18658 -27.17 0)
(11.2344 -35.6567 2.18593e-18)
(17.3068 -44.6619 -3.44336e-18)
(25.163 -52.9736 0)
(37.6258 -58.1224 0)
(52.8534 -61.265 0)
(83.9546 -41.5699 6.80239e-20)
(126.342 -1.75178 2.785e-18)
(138.939 -10.5325 5.83691e-18)
(132.366 -48.2019 -5.90843e-18)
(139.849 -2.23871 -2.99139e-18)
(127.193 110.891 3.43131e-18)
(123.943 156.828 -1.87271e-19)
(136.304 105.257 3.03249e-18)
(144.539 35.3584 0)
(147.919 -24.0574 2.61582e-18)
(148.566 -62.0775 4.51473e-20)
(151.972 -84.1128 0)
(157.229 -101.471 0)
(159.269 -115.149 -2.78977e-18)
(159.32 -98.0187 0)
(167.384 -37.5996 0)
(165.989 24.7767 3.38515e-18)
(246.431 -30.5747 8.31614e-18)
(413.279 -136.775 -2.72411e-18)
(427.609 -88.4835 0)
(351.689 19.836 2.63044e-18)
(268.125 125.401 0)
(200.504 141.654 1.1445e-18)
(167.659 104.574 -1.203e-18)
(171.713 48.9136 1.27795e-18)
(180.661 -4.86666 2.79772e-19)
(168.771 -37.4593 0)
(156.026 -41.9488 -1.07958e-18)
(142.066 -40.2009 0)
(134.379 -36.7292 -9.68447e-19)
(126.686 -28.9015 -5.0074e-19)
(122.858 -22.082 -3.75802e-19)
(120.815 -15.6816 -1.13591e-19)
(118.599 -8.81908 4.02898e-19)
(117.157 -2.47247 0)
(115.72 3.19178 0)
(113.557 8.23559 -2.09534e-19)
(110.723 12.6724 -2.7725e-19)
(106.702 16.8774 0)
(101.55 20.881 9.36452e-20)
(94.8533 24.9257 0)
(86.7627 29.0604 -1.54876e-19)
(77.2977 33.288 -1.70358e-19)
(66.2992 38.0126 2.07656e-19)
(53.9273 43.0252 1.59086e-19)
(40.1552 48.0756 0)
(24.7834 53.5176 -7.04073e-19)
(7.60535 59.5086 -2.85452e-19)
(-11.705 65.6402 0)
(-33.0535 71.0662 0)
(-56.0355 75.1148 0)
(-80.3817 77.3518 3.63068e-18)
(-105.667 77.0735 0)
(-130.683 73.7183 0)
(-154.17 67.3079 0)
(-175.145 58.4531 0)
(-192.68 47.7795 0)
(-205.677 35.3629 8.5591e-18)
(-213.566 20.9981 0)
(-215.417 5.32445 8.89159e-18)
(-210.158 -11.9586 8.83521e-18)
(-197.187 -30.4511 -8.47188e-18)
(-176.608 -48.718 0)
(-148.81 -65.0971 -6.80458e-18)
(-114.96 -77.9175 0)
(-76.8861 -85.5171 -4.3535e-18)
(-33.4274 -89.9342 2.84772e-18)
(12.2189 -91.7484 4.6451e-18)
(57.8693 -90.4773 0)
(101.799 -85.7341 -3.90069e-18)
(142.309 -78.088 -2.44485e-18)
(177.764 -68.7544 0)
(207.761 -57.9342 -8.88256e-18)
(232.703 -45.3903 -1.0285e-17)
(251.818 -32.0893 1.66568e-17)
(263.884 -19.436 0)
(268.685 -7.3556 5.48021e-18)
(267.12 4.69084 5.24142e-18)
(259.174 16.4048 1.4791e-17)
(244.998 27.4236 0)
(225.03 37.9182 0)
(199.414 48.1419 0)
(168.209 58.0301 2.47271e-18)
(131.301 67.3927 0)
(88.4789 76.0424 0)
(39.698 83.715 1.07282e-18)
(-14.8318 89.9051 2.09539e-18)
(-74.4747 94.0017 0)
(-137.961 95.294 0)
(-203.021 92.827 9.43804e-18)
(-266.806 85.5364 0)
(-325.453 72.6632 -1.11341e-17)
(-374.39 53.953 -1.15368e-17)
(-410.077 30.4321 0)
(-429.567 3.64681 0)
(-431.46 -25.1583 9.78159e-18)
(-415.556 -52.6765 -1.77801e-19)
(-383.955 -73.4606 -1.25658e-19)
(-339.635 -86.5722 0)
(-287.305 -92.0935 1.0425e-17)
(-230.705 -90.3756 0)
(-173.688 -81.3651 0)
(-120.394 -67.0994 0)
(-73.9578 -50.8897 -1.95387e-18)
(-35.9194 -33.4101 0)
(-8.01235 -14.7862 1.76364e-18)
(8.29161 3.42588 4.40472e-19)
(12.719 19.7909 0)
(5.98072 33.6803 -7.5033e-20)
(-10.7495 44.8902 0)
(-36.1656 53.2244 0)
(-68.4641 57.629 -1.26637e-18)
(-104.517 56.8586 1.13196e-18)
(-140.498 51.1315 0)
(-173.494 42.7601 2.10812e-18)
(-201.074 32.761 -1.16844e-18)
(-221.901 21.5226 0)
(-236.075 10.2825 0)
(-243.143 -0.358304 0)
(-241.093 -10.9115 -6.73152e-18)
(-233.199 -22.1855 0)
(-217.677 -32.1971 -1.59043e-18)
(-194.12 -45.1507 0)
(-166.99 -61.4477 0)
(-127.489 -71.009 0)
(-104.691 -104.04 0)
(-64.5295 -127.281 0)
(-29.5436 -163.83 0)
(-70.6252 -283.787 2.07117e-18)
(-47.641 -264.505 0)
(47.1069 -21.3129 -9.88699e-18)
(304.931 134.271 1.33131e-17)
(579.019 144.526 0)
(662.776 172.035 0)
(635.944 185.695 4.74794e-18)
(490.596 139.24 7.48159e-18)
(310.339 85.9278 -9.80948e-18)
(146.467 51.1455 -1.14488e-17)
(3.47365 -4.83989 -3.60363e-18)
(7.61042 -18.1334 -3.5156e-18)
(2.57395 -12.8562 -2.28618e-18)
(-5.39774 -1.69374 -1.10335e-18)
(-12.7856 7.60521 0)
(-17.4169 11.842 1.90889e-18)
(-19.191 11.9056 -8.97738e-19)
(-19.3362 9.93516 0)
(-18.6941 7.26086 -8.28868e-19)
(-17.6962 4.40473 0)
(-16.485 1.66282 1.54564e-18)
(-15.1244 -0.834097 0)
(-13.5666 -3.00403 7.67667e-19)
(-12.0352 -4.51786 1.57161e-18)
(-10.3063 -5.66953 -1.65035e-18)
(-8.18335 -6.52441 0)
(-6.1799 -7.09201 -1.65679e-18)
(-4.00459 -7.38534 0)
(-1.72732 -7.357 0)
(0.360665 -6.85617 -1.64999e-18)
(2.10725 -5.61403 0)
(3.39263 -3.78703 -2.44638e-22)
(4.09977 -1.7411 0)
(4.32456 0.294198 0)
(4.04712 2.18942 -2.33405e-21)
(3.33688 3.80618 -1.87221e-18)
(2.20623 5.03316 -1.87345e-18)
(0.69421 5.7746 -1.89796e-18)
(-1.02926 5.74831 0)
(-2.78778 4.86453 -3.76825e-18)
(-4.45865 3.06068 0)
(-5.86514 0.220081 -1.83231e-18)
(-6.848 -3.7305 0)
(-7.26011 -8.85332 0)
(-6.97651 -15.1701 1.84048e-18)
(-5.96177 -22.7786 0)
(-4.13459 -31.6645 -1.9009e-18)
(-1.47364 -41.9455 -1.51878e-19)
(2.24623 -53.3366 4.16205e-18)
(7.18229 -65.4001 -4.12965e-18)
(15.0781 -76.5493 0)
(25.2268 -87.9957 0)
(41.2689 -91.5772 -2.21284e-18)
(78.4 -63.6568 0)
(116.085 -35.005 -2.80833e-18)
(133.72 -38.8648 2.90116e-18)
(131.29 6.91984 2.96046e-18)
(127.78 110.06 0)
(163.336 123.508 -3.17238e-18)
(197.979 67.9677 -2.90795e-18)
(213.116 14.5558 5.44721e-18)
(211.56 -24.683 -2.50939e-18)
(200.627 -55.4844 -2.29545e-18)
(184.304 -64.8121 0)
(173.46 -64.4395 0)
(167.172 -66.8564 2.8713e-18)
(167.139 -76.7527 0)
(213.016 -102.476 0)
(283.723 -147.273 -7.72022e-18)
(318.34 -145.505 -9.43461e-18)
(284.441 -56.2955 0)
(202.847 57.8058 0)
(134.555 139.383 0)
(98.0665 176.709 0)
(103.516 149.075 4.15118e-19)
(123.566 90.7983 4.06052e-20)
(142.08 38.5656 -1.82437e-18)
(143.004 2.85871 -3.17403e-18)
(133.188 -17.9571 0)
(123.374 -26.4145 2.37099e-19)
(115.731 -29.2386 0)
(110.232 -27.958 7.64375e-19)