/*--------------------------------*- C++ -*----------------------------------*\
| =========                 |                                                 |
| \\      /  F ield         | OpenFOAM: The Open Source CFD Toolbox           |
|  \\    /   O peration     | Version:  2112                                  |
|   \\  /    A nd           | Website:  www.openfoam.com                      |
|    \\/     M anipulation  |                                                 |
\*---------------------------------------------------------------------------*/
FoamFile
{
    version     2.0;
    format      ascii;
    arch        "LSB;label=32;scalar=64";
    class       volScalarField;
    location    "0.02";
    object      kU_0;
}
// * * * * * * * * * * * * * * * * * * * * * * * * * * * * * * * * * * * * * //

dimensions      [0 2 -2 0 0 0 0];

internalField   nonuniform List<scalar> 
12225
(
0.660408
1.90822
2.98657
3.35852
3.31407
3.16154
2.90284
2.65356
2.43241
2.23896
2.07831
1.93684
1.82741
1.72318
1.65347
1.57813
1.53141
1.4973
0.379305
0.418773
0.509063
0.615124
0.673731
0.70218
0.700076
0.692162
0.677759
0.661614
0.649707
0.639283
0.632982
0.628573
0.626978
0.627315
0.628039
0.634847
0.375358
0.376813
0.379985
0.383113
0.38743
0.387702
0.386681
0.383798
0.380279
0.374874
0.370398
0.365604
0.361667
0.35869
0.355485
0.354342
0.352046
0.351806
0.375372
0.375792
0.376681
0.376755
0.376654
0.376118
0.375111
0.373422
0.37169
0.36891
0.367039
0.363728
0.361566
0.358491
0.3563
0.353504
0.351475
0.348958
0.375344
0.375725
0.376346
0.37672
0.376974
0.376898
0.376668
0.376148
0.375613
0.374674
0.374033
0.372718
0.372017
0.370596
0.369847
0.368408
0.367659
0.366305
0.375263
0.375621
0.376166
0.376626
0.377059
0.377311
0.377443
0.377405
0.377301
0.377021
0.376809
0.376358
0.376115
0.375603
0.375314
0.374754
0.374438
0.373891
0.375202
0.375499
0.375932
0.376383
0.376878
0.377288
0.377632
0.377837
0.377969
0.377969
0.377949
0.377871
0.377789
0.377619
0.3775
0.377286
0.37715
0.376918
0.375153
0.375393
0.375735
0.376125
0.376568
0.377001
0.377437
0.377791
0.378105
0.378309
0.378472
0.378555
0.378614
0.378626
0.378617
0.378598
0.378558
0.378461
0.375112
0.375298
0.375573
0.375897
0.376276
0.376661
0.377075
0.377461
0.377847
0.378174
0.378476
0.378707
0.378924
0.379075
0.379225
0.379306
0.379399
0.379398
0.375076
0.375212
0.375425
0.375695
0.376013
0.376348
0.376708
0.377064
0.377428
0.377775
0.378121
0.378432
0.378733
0.378995
0.379247
0.37946
0.379666
0.379825
0.375043
0.375136
0.375291
0.375514
0.375775
0.376068
0.376371
0.376688
0.377001
0.377322
0.377634
0.37795
0.37825
0.378552
0.378834
0.379114
0.379371
0.379626
0.375016
0.375073
0.375182
0.375364
0.375579
0.375834
0.376091
0.376372
0.37664
0.376926
0.377194
0.377482
0.377745
0.378032
0.378289
0.37857
0.378814
0.379088
0.374992
0.375015
0.375082
0.375219
0.375396
0.375617
0.375836
0.376084
0.376313
0.376566
0.376793
0.377045
0.377268
0.37752
0.377738
0.377988
0.378198
0.378445
0.374945
0.374947
0.374982
0.375069
0.375208
0.375391
0.375574
0.375784
0.37598
0.376194
0.376386
0.376597
0.376782
0.376991
0.377168
0.377374
0.377543
0.377745
0.374929
0.374846
0.374863
0.374916
0.375017
0.375162
0.375312
0.375484
0.375647
0.375825
0.375984
0.376156
0.376307
0.376472
0.376612
0.376772
0.376902
0.377058
0.374921
0.37476
0.374754
0.374781
0.374843
0.374952
0.375071
0.375208
0.375342
0.375485
0.375615
0.375752
0.375871
0.375997
0.376104
0.376221
0.376316
0.376427
0.374901
0.374726
0.374656
0.374672
0.374712
0.37479
0.374884
0.374992
0.375101
0.375215
0.375321
0.375428
0.375522
0.375616
0.375694
0.375777
0.375839
0.375912
0.374889
0.374713
0.374606
0.374615
0.374643
0.3747
0.374777
0.374866
0.374958
0.375053
0.375142
0.375229
0.375306
0.375378
0.375438
0.375493
0.375536
0.375581
0.374893
0.374724
0.37462
0.374629
0.374656
0.374712
0.374786
0.374871
0.374958
0.375047
0.375131
0.37521
0.375281
0.375342
0.375395
0.375438
0.375475
0.375506
0.374915
0.374764
0.374713
0.37473
0.374771
0.374847
0.374937
0.375037
0.375136
0.375235
0.375327
0.375411
0.375489
0.375554
0.375616
0.375662
0.375704
0.375725
0.374939
0.374838
0.374847
0.374881
0.374954
0.375056
0.375173
0.375292
0.375412
0.375528
0.375634
0.375737
0.375825
0.375912
0.37598
0.376036
0.376071
0.376067
0.374962
0.374966
0.374995
0.375063
0.375179
0.375315
0.375463
0.37561
0.37576
0.375899
0.376037
0.376157
0.37627
0.376357
0.376423
0.376458
0.376455
0.376431
0.375015
0.375057
0.375138
0.375261
0.375425
0.375601
0.375791
0.375976
0.376161
0.37633
0.376483
0.376607
0.376691
0.376745
0.376744
0.376728
0.376685
0.376618
0.375056
0.375153
0.375296
0.375474
0.375699
0.375923
0.376158
0.376372
0.376563
0.376706
0.376802
0.376851
0.376845
0.376819
0.376759
0.376677
0.376572
0.376461
0.375099
0.37527
0.375485
0.375733
0.376006
0.376242
0.376466
0.376612
0.376719
0.376748
0.376726
0.376669
0.376547
0.376416
0.376242
0.376072
0.375868
0.375674
0.375141
0.375426
0.375676
0.37595
0.37619
0.37637
0.376488
0.376478
0.376383
0.376247
0.375954
0.375701
0.375317
0.374977
0.374527
0.374131
0.373642
0.373223
0.375171
0.375589
0.375781
0.376141
0.37629
0.376274
0.376113
0.375884
0.375205
0.37476
0.373794
0.373048
0.371904
0.370915
0.369681
0.368551
0.367313
0.366121
0.37518
0.376109
0.376772
0.378266
0.37992
0.381683
0.382925
0.383278
0.382919
0.382245
0.380313
0.378732
0.376304
0.37399
0.371571
0.369144
0.36709
0.364831
0.377013
0.391218
0.427381
0.488274
0.555696
0.606777
0.641568
0.661317
0.670264
0.66948
0.666628
0.660366
0.653587
0.646218
0.640366
0.634299
0.630793
0.626547
0.562095
1.30085
2.22594
2.8725
3.22072
3.27638
3.2341
3.12834
2.97201
2.81193
2.65812
2.51564
2.38531
2.26812
2.16201
2.06772
1.98201
1.90608
0.000158306
0.00231837
0.00406071
0.00511036
0.00628439
0.00777643
0.00953989
0.011488
0.0135367
0.0156397
0.01776
0.0198713
0.0219593
0.0240243
0.0260749
0.0281287
0.0302096
0.0323451
0.0345637
0.0368941
0.0393637
0.0420116
0.0448243
0.0477906
0.0509318
0.0542794
0.0578738
0.061773
0.0660535
0.070819
0.0762232
0.0824724
0.0898844
0.0989558
0.110494
0.125509
0.145549
0.172887
0.210553
0.262087
0.330726
0.418097
0.52321
0.642584
0.771324
0.90413
1.03606
1.16303
1.2819
1.3903
1.48642
1.56907
1.63753
1.69147
1.73073
1.75638
1.76833
1.77306
1.76591
1.74814
1.71886
1.68685
1.64618
1.60322
1.5562
1.50423
1.45129
1.39429
1.33512
1.27468
1.21088
1.14688
1.08123
1.01438
0.946803
0.878741
0.809874
0.741097
0.673379
0.606211
0.542102
0.481347
0.425759
0.377147
0.336859
0.309165
0.294655
0.293565
0.296877
0.301722
0.30764
0.314666
0.322681
0.332306
0.341942
0.352145
0.363273
0.375313
0.38821
0.401932
0.416294
0.431231
0.446975
0.46428
0.482642
0.501436
0.52048
0.539529
0.558449
0.577073
0.594791
0.611455
0.627407
0.642297
0.655659
0.667765
0.678329
0.687264
0.69308
0.69478
0.694577
0.693113
0.689266
0.684392
0.678799
0.672705
0.666294
0.659771
0.653347
0.647204
0.641486
0.636306
0.631712
0.627717
0.624303
0.621437
0.619023
0.616922
0.614955
0.613016
0.611063
0.609178
0.607609
0.606529
0.605903
0.605592
0.60545
0.605399
0.605262
0.604968
0.604403
0.6036
0.602509
0.601234
0.599757
0.598234
0.596645
0.595129
0.593632
0.59225
0.590918
0.589678
0.588487
0.587302
0.58617
0.58487
0.583677
0.582018
0.580642
0.578263
0.576515
0.572858
0.570294
0.564419
0.560153
0.549864
0.542467
0.522314
0.509584
0.475586
0.00102093
0.00685011
0.0223462
0.0234271
0.0216118
0.0220171
0.0244951
0.0277511
0.0313584
0.035132
0.0389105
0.0425099
0.0457739
0.0486193
0.0509846
0.0528798
0.0543965
0.0556753
0.0568761
0.0581775
0.0597481
0.0617212
0.064234
0.0674147
0.0713619
0.0761467
0.0818463
0.0885561
0.0963461
0.105323
0.115597
0.127317
0.140767
0.156419
0.174899
0.19725
0.224713
0.258628
0.300351
0.351038
0.411387
0.481514
0.560925
0.641925
0.723785
0.807975
0.89342
0.976833
1.06005
1.1397
1.21686
1.28925
1.35672
1.41941
1.47584
1.52749
1.57315
1.61593
1.65563
1.69496
1.733
1.77016
1.80706
1.84368
1.88182
1.91878
1.95564
1.98835
2.01824
2.04317
2.0612
2.07775
2.0811
2.08442
2.07892
2.06689
2.04691
2.0177
1.97932
1.93049
1.87184
1.80124
1.7197
1.62836
1.53298
1.43836
1.35019
1.27151
1.19977
1.13555
1.07844
1.02768
0.982321
0.942685
0.906075
0.873593
0.845457
0.821258
0.799558
0.779752
0.761519
0.745011
0.728899
0.711981
0.694616
0.676891
0.659769
0.643119
0.6265
0.610875
0.596662
0.583068
0.571077
0.560616
0.549656
0.538485
0.528693
0.520373
0.511507
0.500493
0.486993
0.471702
0.455366
0.438959
0.423203
0.408536
0.395109
0.383058
0.372461
0.3633
0.355489
0.349134
0.344138
0.34043
0.337762
0.335908
0.334921
0.334579
0.334597
0.334708
0.334733
0.334651
0.334419
0.333567
0.331768
0.330576
0.330231
0.330567
0.331224
0.331462
0.331394
0.331202
0.330875
0.330273
0.329094
0.327213
0.324476
0.322306
0.319638
0.317748
0.315489
0.314066
0.312281
0.311284
0.310005
0.309321
0.308397
0.307853
0.307123
0.30664
0.305925
0.305458
0.304658
0.304224
0.303275
0.303009
0.302222
0.302303
0.303231
0.299272
0.00325715
0.0368236
0.0834547
0.0885157
0.0831273
0.0820772
0.0881761
0.097947
0.109015
0.120457
0.13149
0.141405
0.14989
0.156774
0.16123
0.162501
0.162227
0.159779
0.155462
0.149894
0.143739
0.138077
0.13359
0.131592
0.131
0.131072
0.133369
0.138818
0.145761
0.154891
0.16626
0.179672
0.195524
0.214455
0.23734
0.264938
0.298257
0.338581
0.387084
0.444379
0.510154
0.58461
0.665869
0.756422
0.857741
0.964954
1.07869
1.19727
1.31351
1.40469
1.48647
1.54541
1.58863
1.6202
1.63937
1.66165
1.67578
1.69175
1.70907
1.72842
1.74802
1.77108
1.79353
1.81739
1.84399
1.87298
1.90332
1.93573
1.96752
1.99822
2.02469
2.04725
2.06726
2.08435
2.09734
2.10556
2.11141
2.11124
2.10488
2.09206
2.07188
2.04248
2.00428
1.96051
1.90733
1.83574
1.74821
1.64626
1.53871
1.43503
1.34261
1.2634
1.19339
1.13238
1.08038
1.03579
0.997055
0.963199
0.934163
0.909501
0.888501
0.8705
0.854814
0.84096
0.82814
0.815638
0.803414
0.791116
0.778423
0.765174
0.751201
0.736299
0.720696
0.704509
0.687693
0.670648
0.653417
0.636234
0.618996
0.601246
0.582571
0.56348
0.544165
0.524695
0.505533
0.48714
0.469848
0.453951
0.439553
0.426726
0.41531
0.405419
0.396847
0.389653
0.383417
0.378316
0.373869
0.370305
0.366986
0.364366
0.361749
0.359597
0.357022
0.354619
0.351645
0.349124
0.346371
0.344394
0.342121
0.34045
0.338134
0.336236
0.333482
0.331111
0.327742
0.324807
0.320954
0.317809
0.313916
0.310949
0.307355
0.30483
0.301724
0.299751
0.297208
0.295779
0.293749
0.292783
0.291207
0.290529
0.289242
0.288709
0.287619
0.287235
0.286271
0.286198
0.285749
0.286406
0.287221
0.28724
0.00582207
0.08095
0.166745
0.193398
0.201673
0.20752
0.217552
0.230976
0.245911
0.26115
0.275801
0.289294
0.301411
0.311747
0.320059
0.326225
0.330234
0.331369
0.330483
0.3274
0.322324
0.315284
0.306839
0.297967
0.289375
0.281253
0.274519
0.270821
0.269339
0.270793
0.277853
0.288442
0.304429
0.327591
0.358566
0.397435
0.444497
0.499016
0.560255
0.631431
0.717748
0.824903
0.958162
1.10507
1.2543
1.38957
1.49969
1.57427
1.61697
1.63211
1.63756
1.63423
1.61727
1.60402
1.58569
1.55142
1.51154
1.46577
1.41694
1.38135
1.35583
1.3411
1.33148
1.32908
1.32902
1.34031
1.34906
1.36439
1.38419
1.40817
1.44061
1.4791
1.52439
1.57643
1.6285
1.67317
1.71854
1.76256
1.80764
1.85258
1.89387
1.92592
1.94446
1.94785
1.94111
1.92066
1.88929
1.84616
1.79642
1.73015
1.64319
1.5386
1.42872
1.32261
1.22979
1.15323
1.08829
1.03393
0.988916
0.95184
0.921458
0.896513
0.875848
0.858489
0.843884
0.83159
0.820859
0.811104
0.801451
0.791537
0.781176
0.7701
0.758019
0.744611
0.729654
0.713232
0.69575
0.677592
0.658992
0.640107
0.620912
0.601587
0.582204
0.563055
0.544504
0.526871
0.510381
0.495222
0.481456
0.469074
0.457967
0.448092
0.439325
0.431609
0.424744
0.418714
0.413326
0.408581
0.404234
0.400374
0.396724
0.393367
0.390004
0.386781
0.383427
0.380204
0.376886
0.37378
0.370562
0.367501
0.364214
0.36102
0.357533
0.354134
0.350435
0.346884
0.343102
0.339588
0.335953
0.332703
0.329423
0.326615
0.323827
0.321557
0.319315
0.317596
0.315861
0.314652
0.313336
0.312529
0.311488
0.310953
0.310041
0.309648
0.308814
0.308611
0.308063
0.308394
0.308278
0.305967
0.0068675
0.108001
0.226958
0.274351
0.296018
0.309484
0.321996
0.335567
0.350174
0.36532
0.380502
0.395329
0.409509
0.422786
0.434946
0.445806
0.455177
0.46283
0.468618
0.472515
0.47465
0.475244
0.474714
0.473373
0.471661
0.470097
0.46949
0.471218
0.475641
0.483028
0.493898
0.509487
0.531514
0.561814
0.601796
0.65084
0.707589
0.773102
0.851968
0.949171
1.06704
1.20675
1.35269
1.48532
1.58361
1.64326
1.6702
1.67854
1.67226
1.64275
1.6165
1.5687
1.49031
1.39213
1.27502
1.19833
1.1417
1.11972
1.11184
1.1094
1.11567
1.1366
1.14996
1.16604
1.17731
1.18138
1.18274
1.18102
1.17505
1.16917
1.15928
1.15222
1.15484
1.16987
1.20033
1.25009
1.29196
1.33398
1.36929
1.40086
1.43086
1.46524
1.51307
1.57288
1.64026
1.71068
1.7654
1.79225
1.79615
1.77902
1.74502
1.69836
1.64443
1.57832
1.4943
1.39471
1.29202
1.19614
1.11458
1.04525
0.987232
0.939717
0.901458
0.871179
0.847608
0.829383
0.814705
0.802327
0.792157
0.783968
0.77669
0.768951
0.760381
0.750721
0.739638
0.726889
0.712246
0.695487
0.676924
0.657489
0.637574
0.617374
0.597483
0.578243
0.559897
0.542702
0.526828
0.512355
0.499286
0.487566
0.477085
0.467728
0.459371
0.451915
0.445226
0.439227
0.433812
0.428921
0.424437
0.42033
0.416465
0.412824
0.409308
0.405913
0.402522
0.399167
0.395763
0.392354
0.388844
0.385307
0.381663
0.378004
0.374257
0.370535
0.366763
0.363069
0.359388
0.355864
0.352437
0.349244
0.346222
0.34349
0.340977
0.33878
0.336819
0.335167
0.333732
0.332583
0.331604
0.330868
0.330221
0.329797
0.32938
0.329092
0.328983
0.329067
0.329259
0.329719
0.330792
0.329366
0.00828928
0.11039
0.252173
0.318176
0.351333
0.371762
0.38724
0.401182
0.415022
0.429261
0.443987
0.459116
0.474478
0.489862
0.505055
0.519861
0.534063
0.547377
0.55951
0.570265
0.579676
0.587956
0.595377
0.602291
0.609228
0.616934
0.626281
0.637896
0.651934
0.668355
0.687669
0.711874
0.743767
0.784455
0.832586
0.886572
0.945283
1.01255
1.09853
1.21051
1.344
1.48593
1.60911
1.67776
1.70961
1.72106
1.72009
1.68603
1.64883
1.5806
1.47299
1.31532
1.19786
1.13588
1.11256
1.10268
1.10361
1.12693
1.15276
1.1832
1.23231
1.27916
1.31866
1.34074
1.35005
1.35126
1.32086
1.29069
1.2491
1.20635
1.16482
1.1282
1.09909
1.08177
1.06677
1.07714
1.1168
1.17287
1.21485
1.24883
1.27275
1.29033
1.30126
1.30641
1.31225
1.32413
1.35896
1.42871
1.51348
1.59561
1.64569
1.66346
1.65418
1.6232
1.58472
1.54266
1.49166
1.426
1.34189
1.24922
1.15839
1.07813
1.00831
0.948766
0.899444
0.859517
0.828013
0.803975
0.785462
0.770323
0.75785
0.749045
0.743299
0.737911
0.731786
0.724187
0.714389
0.702164
0.687427
0.669862
0.650223
0.629803
0.609122
0.589017
0.570054
0.55249
0.536513
0.522142
0.509303
0.497877
0.487714
0.478657
0.470559
0.4633
0.456759
0.450838
0.445446
0.440519
0.435976
0.431765
0.427811
0.424077
0.420507
0.417066
0.413676
0.410302
0.406898
0.403432
0.399837
0.396147
0.392362
0.388532
0.384664
0.380815
0.376989
0.37324
0.369576
0.366057
0.362694
0.359542
0.356607
0.35393
0.351511
0.349375
0.347507
0.345917
0.344581
0.343494
0.342623
0.341959
0.341452
0.341093
0.340868
0.340827
0.340859
0.341003
0.341359
0.341947
0.343576
0.343183
0.00819155
0.100662
0.249665
0.328658
0.373586
0.401414
0.420982
0.436725
0.450933
0.464822
0.479047
0.493927
0.509541
0.525813
0.542614
0.55979
0.577118
0.594176
0.610613
0.626194
0.64107
0.655479
0.669707
0.684106
0.699117
0.715266
0.733136
0.753228
0.775884
0.801613
0.83159
0.8675
0.910298
0.95866
1.00927
1.06053
1.11608
1.18473
1.27734
1.39809
1.53644
1.66803
1.72917
1.75537
1.76108
1.7542
1.71288
1.6576
1.55911
1.3945
1.23424
1.16127
1.13487
1.12549
1.12609
1.1582
1.22421
1.32254
1.42172
1.50667
1.59362
1.65643
1.69943
1.74542
1.77567
1.78615
1.78236
1.74264
1.6718
1.56318
1.43378
1.30047
1.19441
1.10395
1.05044
1.0216
1.00176
1.00538
1.05774
1.11651
1.16015
1.18999
1.20776
1.2148
1.21519
1.21278
1.21204
1.2127
1.21715
1.23951
1.30331
1.39104
1.47596
1.52778
1.54748
1.54587
1.52355
1.49504
1.4627
1.42275
1.36767
1.29274
1.20595
1.11852
1.03911
0.968288
0.907095
0.855664
0.813687
0.780606
0.755457
0.735744
0.720248
0.710457
0.706063
0.703356
0.700101
0.695117
0.687341
0.676344
0.662079
0.644447
0.624659
0.604136
0.584
0.565163
0.548059
0.532797
0.519286
0.507378
0.496879
0.487585
0.479314
0.471913
0.465252
0.459215
0.453699
0.448636
0.443956
0.439599
0.435516
0.431667
0.428012
0.42452
0.421124
0.417734
0.414279
0.410743
0.407117
0.403412
0.399615
0.395754
0.391862
0.38798
0.384138
0.380374
0.376716
0.373201
0.369858
0.366722
0.363811
0.361151
0.358754
0.356633
0.354784
0.353205
0.351884
0.350809
0.349955
0.349303
0.348821
0.348497
0.348345
0.348336
0.348372
0.348516
0.348873
0.349489
0.351176
0.351304
0.00668371
0.0756154
0.229311
0.321116
0.373607
0.408224
0.433016
0.452117
0.468117
0.482752
0.497068
0.511726
0.52709
0.54331
0.560445
0.578482
0.597397
0.616567
0.635563
0.654473
0.67351
0.692839
0.712642
0.733174
0.754734
0.777572
0.801895
0.828116
0.857026
0.889545
0.926666
0.969379
1.01777
1.07002
1.12299
1.17542
1.23153
1.30188
1.39837
1.52376
1.66347
1.7582
1.78856
1.79631
1.7924
1.7575
1.69061
1.5737
1.38586
1.22898
1.17168
1.15031
1.14573
1.16773
1.24579
1.36026
1.4439
1.50615
1.5633
1.60579
1.65123
1.69396
1.73241
1.78622
1.84218
1.88899
1.92387
1.95311
1.96306
1.95918
1.91647
1.80081
1.60822
1.37417
1.18559
1.05764
0.989846
0.964557
0.951658
0.971425
1.01733
1.06232
1.09805
1.12059
1.13158
1.13479
1.13388
1.13158
1.12917
1.12834
1.13085
1.13517
1.16357
1.22994
1.31391
1.3835
1.43005
1.45409
1.45852
1.44847
1.42877
1.40484
1.37228
1.32176
1.24857
1.16158
1.07382
0.992574
0.918707
0.853873
0.799396
0.755482
0.721977
0.696677
0.677775
0.668166
0.66668
0.6673
0.668036
0.667454
0.6627
0.654005
0.641381
0.624629
0.605631
0.586192
0.567519
0.550364
0.535039
0.521536
0.509696
0.499301
0.49013
0.48199
0.474714
0.46816
0.462205
0.456756
0.451735
0.447074
0.442716
0.438615
0.434744
0.431088
0.427582
0.424099
0.420515
0.416817
0.41306
0.409269
0.405443
0.401593
0.397717
0.393841
0.390004
0.386239
0.382581
0.379063
0.375717
0.372575
0.369656
0.366982
0.36457
0.36243
0.360559
0.358953
0.357603
0.356494
0.355606
0.35492
0.35441
0.354062
0.353868
0.353818
0.353834
0.353929
0.354188
0.354758
0.356191
0.35668
0.004812
0.0461287
0.184401
0.295544
0.361558
0.402837
0.431628
0.453755
0.472296
0.488711
0.504087
0.519219
0.534647
0.550725
0.567723
0.585886
0.605175
0.625088
0.645545
0.666748
0.688852
0.711934
0.736038
0.761199
0.787474
0.814981
0.843994
0.874891
0.908278
0.945497
0.987986
1.03645
1.0905
1.14807
1.20549
1.26016
1.31587
1.38472
1.48066
1.60562
1.73915
1.80536
1.8226
1.82367
1.80564
1.75018
1.63821
1.47253
1.27899
1.19603
1.16883
1.16243
1.18444
1.25185
1.33624
1.38805
1.42765
1.43821
1.43223
1.38738
1.34217
1.3196
1.32394
1.38625
1.47921
1.59857
1.72228
1.84039
1.93107
1.98055
1.99888
1.98567
1.93227
1.82803
1.58374
1.27075
1.07012
0.966228
0.927017
0.920645
0.933835
0.964676
0.999356
1.02614
1.04213
1.04964
1.05281
1.05401
1.05476
1.05547
1.0559
1.05601
1.05776
1.06416
1.07673
1.11624
1.17704
1.24325
1.30314
1.34985
1.38219
1.39466
1.39505
1.38346
1.36472
1.33403
1.27909
1.19762
1.10372
1.01131
0.92413
0.844953
0.777362
0.722343
0.680479
0.651231
0.633436
0.628065
0.629577
0.635914
0.642068
0.64567
0.645981
0.641312
0.630313
0.615196
0.597941
0.580306
0.563365
0.547701
0.53356
0.520955
0.509769
0.499835
0.490979
0.483037
0.475859
0.469322
0.463334
0.457818
0.452698
0.447914
0.443438
0.439264
0.435345
0.431559
0.427756
0.423836
0.419782
0.415657
0.411563
0.407535
0.40356
0.399642
0.395782
0.391983
0.388297
0.38475
0.381369
0.378189
0.375228
0.372506
0.370043
0.367848
0.36592
0.364252
0.362835
0.361655
0.360692
0.359929
0.359348
0.35893
0.35865
0.358485
0.358437
0.358466
0.358606
0.359006
0.360136
0.3607
0.00331709
0.0256145
0.131471
0.25254
0.333227
0.385792
0.421801
0.448224
0.469106
0.486976
0.503257
0.518899
0.53458
0.550757
0.567738
0.585767
0.604969
0.625062
0.646249
0.668699
0.692518
0.717755
0.744447
0.772657
0.80247
0.833964
0.866906
0.901494
0.938995
0.980669
1.02767
1.08056
1.13878
1.20016
1.26074
1.31741
1.37239
1.43671
1.52685
1.64866
1.77871
1.83048
1.84353
1.8444
1.8218
1.75594
1.62601
1.43575
1.2668
1.20123
1.17785
1.17762
1.20372
1.27146
1.32502
1.34394
1.32761
1.20755
0.991905
0.805477
0.708183
0.663795
0.657153
0.719483
0.813084
0.946257
1.10641
1.30425
1.53298
1.77031
1.91495
1.98431
1.97403
1.92723
1.83403
1.63057
1.28909
1.04074
0.930407
0.891977
0.890864
0.903446
0.931628
0.959985
0.977217
0.984335
0.985556
0.985054
0.983647
0.983507
0.984662
0.986727
0.989679
0.993954
0.998407
1.0066
1.02049
1.04134
1.07627
1.1232
1.18244
1.24399
1.29679
1.33596
1.35674
1.36065
1.35582
1.34276
1.30003
1.21969
1.11844
1.01331
0.911437
0.818305
0.738847
0.676405
0.632651
0.605807
0.593541
0.592855
0.602653
0.617207
0.629646
0.6378
0.641365
0.641293
0.633211
0.619789
0.60466
0.588857
0.573292
0.558531
0.544855
0.532347
0.520974
0.510643
0.501233
0.492617
0.484699
0.477404
0.470662
0.464406
0.458592
0.453199
0.448192
0.443488
0.438942
0.434394
0.42975
0.425015
0.420259
0.415579
0.411072
0.40676
0.402615
0.398626
0.394822
0.391181
0.387692
0.384415
0.381365
0.378542
0.37597
0.373671
0.371644
0.369873
0.368347
0.367048
0.365965
0.365083
0.364388
0.363853
0.363455
0.363158
0.362952
0.362865
0.362891
0.363072
0.363816
0.364281
0.00202684
0.0146534
0.0871097
0.206557
0.298129
0.360156
0.40304
0.434542
0.459121
0.479513
0.49747
0.514111
0.53037
0.546911
0.564115
0.582166
0.601187
0.621366
0.642642
0.665239
0.689306
0.714909
0.742085
0.770911
0.80152
0.834155
0.870015
0.909676
0.953249
1.00022
1.05168
1.10862
1.17048
1.23462
1.29722
1.35579
1.41125
1.47067
1.54992
1.65667
1.77611
1.84629
1.86472
1.86487
1.85114
1.77978
1.6503
1.46255
1.28542
1.21465
1.18569
1.1797
1.19806
1.25752
1.27792
1.23979
1.09583
0.8205
0.598195
0.482749
0.429754
0.414053
0.439241
0.486523
0.566503
0.684966
0.84266
1.00474
1.16695
1.35252
1.61615
1.84399
1.94997
1.94015
1.88319
1.76705
1.51393
1.1896
0.964038
0.875188
0.849169
0.849137
0.862927
0.893788
0.91589
0.927087
0.930749
0.930753
0.928372
0.926438
0.92593
0.925921
0.927256
0.930269
0.935259
0.941751
0.950276
0.961215
0.974713
0.99082
1.00956
1.03756
1.08441
1.1485
1.21899
1.28009
1.32401
1.34711
1.35306
1.35085
1.31592
1.22425
1.10939
0.988206
0.871404
0.767528
0.68338
0.622887
0.585419
0.566337
0.562893
0.571618
0.592914
0.614394
0.633054
0.646199
0.652926
0.654368
0.650303
0.639077
0.626004
0.611824
0.597359
0.583178
0.569598
0.556761
0.544697
0.533366
0.52272
0.512737
0.503402
0.494691
0.486573
0.479012
0.471975
0.465412
0.459223
0.453251
0.447327
0.441353
0.435339
0.429375
0.42357
0.418016
0.412807
0.408005
0.403586
0.399501
0.395694
0.392191
0.388966
0.385945
0.383154
0.380663
0.378476
0.376546
0.374845
0.373361
0.372096
0.371043
0.370188
0.369489
0.368924
0.36845
0.368073
0.367763
0.367583
0.367588
0.36789
0.368109
0.00110142
0.00927981
0.0586658
0.166177
0.263716
0.333701
0.382537
0.417866
0.444886
0.466821
0.485745
0.503115
0.519864
0.536728
0.554211
0.572547
0.591788
0.611937
0.63306
0.655604
0.679668
0.70538
0.732883
0.762381
0.794138
0.8284
0.865588
0.906657
0.952148
1.00407
1.06106
1.12208
1.1866
1.25286
1.31794
1.37842
1.43271
1.48882
1.55647
1.64908
1.76212
1.84393
1.87459
1.88534
1.88046
1.83348
1.70589
1.52687
1.3393
1.24028
1.19731
1.17766
1.17833
1.22681
1.24526
1.1623
0.961095
0.689303
0.48547
0.386667
0.344394
0.348707
0.368494
0.407657
0.474153
0.568499
0.715175
0.897112
1.06159
1.23208
1.44493
1.67743
1.8478
1.90244
1.88776
1.79972
1.60856
1.2706
0.99124
0.867021
0.8178
0.812438
0.817325
0.841388
0.860939
0.871466
0.8759
0.877349
0.877386
0.875984
0.875637
0.875782
0.876775
0.878609
0.880198
0.882095
0.88691
0.894977
0.907056
0.921448
0.937397
0.952245
0.964339
0.977435
1.01484
1.08142
1.16684
1.24838
1.3118
1.35071
1.36625
1.36659
1.31629
1.2018
1.06737
0.930095
0.803752
0.699558
0.62134
0.571546
0.547257
0.540675
0.545781
0.571178
0.600573
0.628347
0.650565
0.666965
0.676923
0.680317
0.679844
0.672433
0.661543
0.649168
0.635896
0.622255
0.608583
0.595098
0.581942
0.569212
0.556977
0.545293
0.534193
0.523676
0.513724
0.504317
0.495421
0.486944
0.478729
0.470616
0.462517
0.454436
0.446467
0.438754
0.431438
0.424615
0.418381
0.412828
0.407939
0.403574
0.399637
0.396028
0.392751
0.389872
0.387403
0.385222
0.383229
0.381445
0.3799
0.378603
0.377525
0.376583
0.375773
0.375044
0.37444
0.373875
0.373446
0.373025
0.373009
0.372818
0.000565402
0.00655333
0.0440453
0.138355
0.237573
0.312696
0.365684
0.40355
0.431866
0.45427
0.47311
0.489972
0.505981
0.52203
0.53879
0.556696
0.575952
0.596553
0.618378
0.641354
0.665225
0.690557
0.717667
0.746902
0.77865
0.813659
0.852739
0.896492
0.945898
0.999611
1.0576
1.11931
1.18419
1.25091
1.31695
1.38006
1.44104
1.49775
1.55662
1.6314
1.73455
1.83018
1.87181
1.88988
1.9056
1.88709
1.81491
1.65924
1.44226
1.29915
1.22479
1.18486
1.16662
1.17174
1.17687
1.14727
1.03
0.779497
0.57366
0.448392
0.371253
0.359185
0.367575
0.396569
0.461217
0.544746
0.674898
0.861629
1.03299
1.1915
1.38943
1.62044
1.8078
1.8747
1.86724
1.80348
1.64566
1.30242
1.00632
0.837507
0.776392
0.764978
0.77125
0.799511
0.819712
0.82879
0.831367
0.831393
0.831131
0.830432
0.82989
0.83
0.83025
0.832572
0.836969
0.841285
0.844404
0.846134
0.847829
0.854246
0.866329
0.882587
0.90086
0.917277
0.929167
0.935874
0.967852
1.04943
1.15215
1.25376
1.33381
1.37935
1.3924
1.38117
1.28551
1.14054
0.98574
0.840453
0.717733
0.624988
0.565149
0.533764
0.525137
0.527305
0.551617
0.586421
0.620911
0.651352
0.675655
0.693545
0.705536
0.712247
0.71435
0.713507
0.70696
0.697495
0.686412
0.674017
0.660806
0.647247
0.633581
0.619895
0.606324
0.59296
0.579853
0.567052
0.554623
0.542617
0.531034
0.519792
0.50877
0.497869
0.487073
0.476459
0.466167
0.456335
0.447077
0.43851
0.430735
0.423765
0.417628
0.412356
0.407845
0.40395
0.400605
0.397664
0.395048
0.392732
0.390739
0.389072
0.387662
0.386288
0.38506
0.383922
0.383027
0.3821
0.381377
0.380461
0.38009
0.379241
0.000562458
0.00682076
0.0444119
0.136604
0.233135
0.306938
0.359453
0.396931
0.424628
0.446192
0.46396
0.479555
0.494189
0.508872
0.524405
0.541355
0.560066
0.580668
0.603099
0.62717
0.652575
0.679241
0.706998
0.736424
0.768304
0.80316
0.841716
0.884918
0.933581
0.988048
1.04715
1.10954
1.17427
1.24123
1.30882
1.37486
1.43839
1.49955
1.5556
1.61533
1.68889
1.79182
1.86022
1.88678
1.91067
1.92097
1.89848
1.82618
1.67098
1.43262
1.29907
1.22207
1.17914
1.16225
1.1518
1.13452
1.09346
0.996793
0.833482
0.676531
0.564264
0.519409
0.522509
0.544313
0.598567
0.67342
0.755044
0.938034
1.11485
1.23402
1.39159
1.61038
1.79523
1.86298
1.85615
1.7995
1.65087
1.29817
0.960447
0.787434
0.732771
0.724381
0.733665
0.759831
0.777185
0.785869
0.789193
0.789602
0.789019
0.788841
0.788922
0.789764
0.790844
0.791474
0.791945
0.79537
0.801776
0.808988
0.814884
0.818195
0.819603
0.822597
0.833825
0.850185
0.868926
0.88638
0.898208
0.904124
0.952852
1.06153
1.18947
1.30604
1.38619
1.42036
1.42271
1.35422
1.20278
1.03426
0.872657
0.734922
0.631508
0.562858
0.526485
0.514457
0.514758
0.53414
0.569267
0.60646
0.641685
0.672321
0.697174
0.716055
0.729492
0.73838
0.743636
0.745993
0.746203
0.743365
0.737168
0.72897
0.718864
0.707283
0.694687
0.681271
0.667219
0.652764
0.638165
0.623561
0.609033
0.5947
0.580615
0.566725
0.552955
0.539242
0.525607
0.512135
0.498999
0.486381
0.474488
0.463483
0.453538
0.444703
0.436947
0.430079
0.424009
0.41875
0.414413
0.4107
0.407554
0.404845
0.402549
0.400392
0.398557
0.396892
0.395711
0.394221
0.393029
0.391408
0.390582
0.388852
0.000941363
0.010525
0.0549015
0.147621
0.240481
0.311236
0.361636
0.397655
0.424118
0.444185
0.46026
0.474196
0.487202
0.500353
0.514521
0.530346
0.548237
0.568397
0.590856
0.6155
0.642091
0.670389
0.700195
0.73148
0.7646
0.800298
0.838843
0.880649
0.926196
0.976029
1.03047
1.08931
1.15173
1.21767
1.28773
1.36007
1.42995
1.49646
1.55551
1.61247
1.67085
1.7335
1.82193
1.87705
1.90724
1.93362
1.94389
1.92669
1.87143
1.73978
1.52095
1.35387
1.25497
1.19658
1.16496
1.13922
1.10814
1.06777
0.992295
0.91632
0.862117
0.805003
0.793326
0.802615
0.831702
0.894275
1.01591
1.16777
1.3004
1.4062
1.55298
1.72759
1.84948
1.87422
1.85623
1.77273
1.56233
1.14934
0.842867
0.714573
0.682649
0.683089
0.70698
0.733878
0.74616
0.750161
0.751472
0.752308
0.752566
0.752179
0.751972
0.752233
0.754157
0.756984
0.759713
0.761245
0.761815
0.764414
0.771214
0.779316
0.786637
0.791545
0.795178
0.80119
0.811648
0.82761
0.847361
0.863799
0.872866
0.890093
0.989927
1.13232
1.28029
1.39416
1.44733
1.455
1.40822
1.252
1.07224
0.89756
0.749436
0.637942
0.564092
0.522592
0.507548
0.50627
0.517388
0.547178
0.581217
0.61569
0.648386
0.677634
0.702421
0.722517
0.73812
0.749583
0.757452
0.762265
0.764819
0.765571
0.765441
0.763302
0.759294
0.753788
0.746571
0.737436
0.726381
0.713658
0.69982
0.685299
0.670422
0.655415
0.640444
0.625469
0.610374
0.59509
0.579719
0.564333
0.549144
0.53428
0.520014
0.50644
0.49376
0.481932
0.471194
0.461504
0.453005
0.445466
0.439037
0.433227
0.428364
0.424169
0.420847
0.417708
0.41537
0.412579
0.410525
0.407964
0.406541
0.403353
0.0020387
0.0269525
0.0944045
0.187899
0.268915
0.329354
0.372922
0.404541
0.427928
0.445728
0.459536
0.471214
0.481955
0.492808
0.504887
0.518986
0.535551
0.554778
0.576722
0.601375
0.62869
0.658525
0.690192
0.723651
0.758892
0.795803
0.834985
0.876755
0.921339
0.968409
1.01796
1.07103
1.12831
1.19057
1.2589
1.33265
1.40978
1.48765
1.56023
1.61615
1.67304
1.72729
1.78677
1.84512
1.89082
1.92827
1.95262
1.97032
1.96248
1.9314
1.86245
1.72178
1.56648
1.40495
1.3037
1.23173
1.18053
1.14638
1.09092
1.05357
1.00868
0.995077
1.00112
1.02354
1.07553
1.15346
1.2484
1.35686
1.4424
1.5105
1.66393
1.82587
1.8935
1.88173
1.84676
1.70358
1.34517
0.950843
0.723617
0.652817
0.646175
0.658733
0.686412
0.702256
0.710231
0.713986
0.715829
0.716717
0.717807
0.718504
0.718608
0.718687
0.718749
0.719324
0.722481
0.727122
0.732177
0.735669
0.73753
0.740617
0.747288
0.755976
0.764765
0.770559
0.775415
0.782723
0.794892
0.81315
0.833639
0.847822
0.85423
0.932941
1.09355
1.26599
1.40139
1.47254
1.48857
1.45217
1.2915
1.10187