/*--------------------------------*- C++ -*----------------------------------*\
| =========                 |                                                 |
| \\      /  F ield         | OpenFOAM: The Open Source CFD Toolbox           |
|  \\    /   O peration     | Version:  2112                                  |
|   \\  /    A nd           | Website:  www.openfoam.com                      |
|    \\/     M anipulation  |                                                 |
\*---------------------------------------------------------------------------*/
FoamFile
{
    version     2.0;
    format      ascii;
    arch        "LSB;label=32;scalar=64";
    class       volVectorField;
    location    "0.02";
    object      U_0;
}
// * * * * * * * * * * * * * * * * * * * * * * * * * * * * * * * * * * * * * //

dimensions      [0 1 -1 0 0 0 0];

internalField   nonuniform List<vector> 
12225
(
(9.88058 0.0460829 0)
(9.47181 0.10503 0)
(8.94183 0.130827 0)
(8.3972 0.125131 0)
(7.89306 0.109192 0)
(7.43866 0.0919353 0)
(7.04032 0.0751767 0)
(6.69478 0.0606964 0)
(6.39813 0.0484753 0)
(6.14282 0.0384878 0)
(5.9275 0.0300702 0)
(5.74129 0.0232254 0)
(5.59134 0.017168 0)
(5.45452 0.0124129 0)
(5.36328 0.00710289 0)
(5.25544 0.00455131 0)
(5.23042 -0.00427541 0)
(5.12289 0.000128047 0)
(10.0181 0.0531976 0)
(10.0638 0.0970509 0)
(10.0784 0.116952 0)
(10.0492 0.126757 0)
(9.98555 0.129661 0)
(9.89459 0.127553 0)
(9.78891 0.122523 0)
(9.67429 0.115749 0)
(9.55846 0.108194 0)
(9.44338 0.100164 0)
(9.33443 0.092461 0)
(9.22921 0.0840537 0)
(9.13508 0.0768323 0)
(9.04326 0.0678792 0)
(8.96912 0.0612709 0)
(8.89055 0.0508431 0)
(8.84218 0.0434587 0)
(8.77404 0.0305228 0)
(10.0131 0.0478054 0)
(10.0512 0.0911599 0)
(10.0833 0.113198 0)
(10.1091 0.126685 0)
(10.1283 0.132339 0)
(10.1404 0.132798 0)
(10.1456 0.129455 0)
(10.1442 0.123988 0)
(10.1383 0.117216 0)
(10.1281 0.109897 0)
(10.116 0.102339 0)
(10.1011 0.0942999 0)
(10.0869 0.0864685 0)
(10.0704 0.0777913 0)
(10.0576 0.0694713 0)
(10.0413 0.0593482 0)
(10.0336 0.0485748 0)
(10.0173 0.0356231 0)
(10.008 0.0419005 0)
(10.043 0.0844585 0)
(10.0749 0.107529 0)
(10.1016 0.120103 0)
(10.1246 0.124957 0)
(10.1432 0.125029 0)
(10.1583 0.122435 0)
(10.1707 0.118048 0)
(10.1804 0.11226 0)
(10.1884 0.105926 0)
(10.1947 0.0991355 0)
(10.1999 0.0919038 0)
(10.2043 0.0844812 0)
(10.208 0.0763837 0)
(10.2117 0.0680363 0)
(10.2144 0.0580834 0)
(10.218 0.047122 0)
(10.2187 0.0336924 0)
(10.0054 0.0350986 0)
(10.0353 0.0765712 0)
(10.0672 0.100908 0)
(10.0951 0.113732 0)
(10.1193 0.119507 0)
(10.139 0.120442 0)
(10.1553 0.118151 0)
(10.1692 0.113668 0)
(10.1808 0.108018 0)
(10.191 0.102019 0)
(10.2 0.0955371 0)
(10.2082 0.0885844 0)
(10.2156 0.081279 0)
(10.2223 0.0734184 0)
(10.2284 0.0650263 0)
(10.2339 0.0553852 0)
(10.2386 0.044573 0)
(10.2416 0.0322483 0)
(10.0041 0.0297615 0)
(10.0286 0.0675547 0)
(10.0583 0.0912403 0)
(10.0869 0.105733 0)
(10.1126 0.113072 0)
(10.1342 0.115134 0)
(10.152 0.113476 0)
(10.167 0.10961 0)
(10.1794 0.104517 0)
(10.1902 0.0985667 0)
(10.2 0.0920903 0)
(10.2089 0.0851071 0)
(10.2169 0.0777889 0)
(10.2243 0.0700922 0)
(10.2309 0.0618764 0)
(10.2368 0.0526316 0)
(10.2416 0.0423533 0)
(10.245 0.0310726 0)
(10.0033 0.0254339 0)
(10.0232 0.0596474 0)
(10.0496 0.0819685 0)
(10.0769 0.0962038 0)
(10.1026 0.104059 0)
(10.1257 0.107323 0)
(10.1456 0.107123 0)
(10.1625 0.104485 0)
(10.1767 0.100165 0)
(10.1886 0.0945286 0)
(10.1992 0.0883032 0)
(10.2087 0.0815533 0)
(10.2172 0.0744831 0)
(10.2249 0.0669218 0)
(10.2319 0.0588454 0)
(10.238 0.0498919 0)
(10.2429 0.0400784 0)
(10.2464 0.0295354 0)
(10.0027 0.0216779 0)
(10.019 0.0525446 0)
(10.0421 0.0734007 0)
(10.067 0.0869654 0)
(10.0913 0.094815 0)
(10.1141 0.0984676 0)
(10.1349 0.0989367 0)
(10.1533 0.0970801 0)
(10.1695 0.0936755 0)
(10.1834 0.0890153 0)
(10.1955 0.083427 0)
(10.2062 0.0771836 0)
(10.2158 0.0704906 0)
(10.2243 0.0631583 0)
(10.2319 0.0553523 0)
(10.2385 0.046832 0)
(10.2439 0.0376647 0)
(10.2477 0.0278459 0)
(10.0022 0.018407 0)
(10.0155 0.0459554 0)
(10.0356 0.0651777 0)
(10.0581 0.0780588 0)
(10.0805 0.0857837 0)
(10.102 0.0895466 0)
(10.1221 0.0903075 0)
(10.1407 0.0888871 0)
(10.1576 0.0860033 0)
(10.1729 0.0819329 0)
(10.1865 0.076892 0)
(10.1986 0.0711184 0)
(10.2096 0.0648395 0)
(10.2194 0.058038 0)
(10.2282 0.0507609 0)
(10.236 0.0429389 0)
(10.2426 0.0345923 0)
(10.2475 0.0255634 0)
(10.0018 0.0155635 0)
(10.0128 0.039907 0)
(10.0302 0.0573467 0)
(10.0502 0.0693697 0)
(10.0707 0.0768297 0)
(10.0906 0.0806224 0)
(10.1096 0.0815848 0)
(10.1273 0.0804531 0)
(10.1438 0.0778493 0)
(10.1591 0.0741016 0)
(10.1732 0.0694548 0)
(10.1861 0.0640895 0)
(10.1979 0.0581782 0)
(10.2086 0.05174 0)
(10.2184 0.0448388 0)
(10.2273 0.0375069 0)
(10.2351 0.0298725 0)
(10.2419 0.0219258 0)
(10.0015 0.0130686 0)
(10.0105 0.034409 0)
(10.0255 0.0499901 0)
(10.0432 0.0609598 0)
(10.0619 0.0679771 0)
(10.0803 0.0716917 0)
(10.0981 0.0727811 0)
(10.1148 0.0718709 0)
(10.1304 0.0694916 0)
(10.145 0.0659828 0)
(10.1587 0.0616018 0)
(10.1713 0.0565266 0)
(10.1831 0.0508947 0)
(10.194 0.0447484 0)
(10.204 0.0381554 0)
(10.2131 0.0311763 0)
(10.2214 0.0239497 0)
(10.229 0.0166091 0)
(10.0011 0.0110514 0)
(10.0088 0.0297992 0)
(10.0218 0.0436443 0)
(10.0377 0.0535201 0)
(10.0548 0.0599891 0)
(10.0719 0.0635171 0)
(10.0886 0.06464 0)
(10.1044 0.0638856 0)
(10.1193 0.0617054 0)
(10.1332 0.0584106 0)
(10.1461 0.0542421 0)
(10.1582 0.0493822 0)
(10.1695 0.0439663 0)
(10.1799 0.0380644 0)
(10.1895 0.0317417 0)
(10.1984 0.0250621 0)
(10.2064 0.0181305 0)
(10.2138 0.0111272 0)
(10.0007 0.00930901 0)
(10.0074 0.0255761 0)
(10.0186 0.0376657 0)
(10.0329 0.0463726 0)
(10.0485 0.0521949 0)
(10.0644 0.0554461 0)
(10.08 0.0565293 0)
(10.095 0.0558807 0)
(10.1092 0.0538803 0)
(10.1224 0.050802 0)
(10.1348 0.0468617 0)
(10.1463 0.042232 0)
(10.157 0.0370468 0)
(10.1669 0.031395 0)
(10.176 0.0253474 0)
(10.1844 0.0189739 0)
(10.192 0.012367 0)
(10.199 0.00570891 0)
(10.0004 0.00762373 0)
(10.0062 0.0212909 0)
(10.0158 0.0312728 0)
(10.0283 0.0385383 0)
(10.0424 0.0434943 0)
(10.057 0.0463091 0)
(10.0715 0.0472466 0)
(10.0856 0.0466409 0)
(10.0989 0.0447978 0)
(10.1116 0.0419497 0)
(10.1233 0.0382805 0)
(10.1343 0.0339412 0)
(10.1444 0.0290541 0)
(10.1538 0.0237146 0)
(10.1624 0.0179992 0)
(10.1703 0.0119846 0)
(10.1774 0.00576925 0)
(10.184 -0.000491876 0)
(10.0003 0.00587646 0)
(10.0052 0.0167843 0)
(10.0136 0.0246066 0)
(10.0243 0.0301267 0)
(10.0368 0.0339318 0)
(10.0501 0.0360931 0)
(10.0634 0.0367333 0)
(10.0765 0.0360711 0)
(10.0891 0.0343324 0)
(10.101 0.0317008 0)
(10.1122 0.0283235 0)
(10.1226 0.0243226 0)
(10.1322 0.0198007 0)
(10.1411 0.0148457 0)
(10.1492 0.00953072 0)
(10.1567 0.00393352 0)
(10.1635 -0.00183965 0)
(10.1697 -0.00767684 0)
(10.0002 0.00412119 0)
(10.0045 0.0118739 0)
(10.0119 0.0175801 0)
(10.0213 0.021193 0)
(10.0323 0.0235708 0)
(10.0442 0.0248183 0)
(10.0563 0.0249533 0)
(10.0684 0.0240838 0)
(10.0802 0.0223534 0)
(10.0914 0.0198899 0)
(10.102 0.0167983 0)
(10.1119 0.0131658 0)
(10.1211 0.00906719 0)
(10.1296 0.00456852 0)
(10.1374 -0.000272347 0)
(10.1445 -0.00538241 0)
(10.1509 -0.0106586 0)
(10.1569 -0.0160408 0)
(10.0002 0.00229275 0)
(10.0039 0.00663544 0)
(10.0106 0.00986739 0)
(10.0191 0.0115097 0)
(10.029 0.0123209 0)
(10.0397 0.0124292 0)
(10.0509 0.0118242 0)
(10.062 0.010548 0)
(10.073 0.00867696 0)
(10.0836 0.00628577 0)
(10.0937 0.00343528 0)
(10.1032 0.000172992 0)
(10.1121 -0.00346445 0)
(10.1203 -0.00744635 0)
(10.1278 -0.0117364 0)
(10.1347 -0.0162679 0)
(10.141 -0.020957 0)
(10.1467 -0.0258063 0)
(10.0002 0.000339167 0)
(10.0035 0.00092939 0)
(10.0097 0.00111044 0)
(10.0178 0.000646562 0)
(10.0269 -0.000206172 0)
(10.037 -0.00141984 0)
(10.0474 -0.00298244 0)
(10.0579 -0.00487193 0)
(10.0684 -0.00705724 0)
(10.0786 -0.00950918 0)
(10.0884 -0.0122074 0)
(10.0976 -0.0151422 0)
(10.1063 -0.0183132 0)
(10.1144 -0.0217199 0)
(10.1218 -0.0253486 0)
(10.1286 -0.0291728 0)
(10.1348 -0.033199 0)
(10.1406 -0.037527 0)
(10.0002 -0.00185545 0)
(10.0034 -0.00555236 0)
(10.0095 -0.00897867 0)
(10.0174 -0.0119193 0)
(10.0264 -0.0147103 0)
(10.0364 -0.0174908 0)
(10.0467 -0.0202307 0)
(10.0572 -0.022922 0)
(10.0676 -0.0255793 0)
(10.0777 -0.0282221 0)
(10.0875 -0.0308687 0)
(10.0968 -0.0335343 0)
(10.1055 -0.0362379 0)
(10.1136 -0.0390117 0)
(10.1211 -0.0419169 0)
(10.128 -0.0450562 0)
(10.1344 -0.0485519 0)
(10.1403 -0.0524317 0)
(10.0002 -0.00402726 0)
(10.0038 -0.0119527 0)
(10.0103 -0.0188605 0)
(10.0187 -0.0242653 0)
(10.0284 -0.0290316 0)
(10.0391 -0.0333645 0)
(10.0502 -0.0372312 0)
(10.0613 -0.0406583 0)
(10.0723 -0.0437159 0)
(10.0828 -0.0464781 0)
(10.0929 -0.0490082 0)
(10.1024 -0.0513635 0)
(10.1113 -0.0536118 0)
(10.1197 -0.0558457 0)
(10.1274 -0.0581867 0)
(10.1346 -0.0607541 0)
(10.1412 -0.0635484 0)
(10.1469 -0.0663903 0)
(10.0003 -0.00605829 0)
(10.0045 -0.0177568 0)
(10.0118 -0.0273007 0)
(10.0212 -0.0349656 0)
(10.0323 -0.0415615 0)
(10.0442 -0.0471746 0)
(10.0563 -0.0518484 0)
(10.0683 -0.055704 0)
(10.0799 -0.0588871 0)
(10.091 -0.0615471 0)
(10.1015 -0.0638277 0)
(10.1114 -0.0658629 0)
(10.1206 -0.0677795 0)
(10.1293 -0.0696704 0)
(10.1373 -0.0715515 0)
(10.1444 -0.0733539 0)
(10.1506 -0.0749792 0)
(10.1556 -0.076419 0)
(10.0005 -0.00827814 0)
(10.0057 -0.0234797 0)
(10.0144 -0.035692 0)
(10.0256 -0.0457365 0)
(10.0384 -0.0539773 0)
(10.0518 -0.0605653 0)
(10.0652 -0.065718 0)
(10.0781 -0.0697248 0)
(10.0906 -0.0728342 0)
(10.1023 -0.0752908 0)
(10.1134 -0.0773335 0)
(10.1237 -0.0791185 0)
(10.1333 -0.0806983 0)
(10.1418 -0.0820204 0)
(10.1492 -0.0829298 0)
(10.1554 -0.0833212 0)
(10.1603 -0.08346 0)
(10.1643 -0.0837006 0)
(10.001 -0.0107747 0)
(10.0077 -0.0296875 0)
(10.0185 -0.0447633 0)
(10.0321 -0.0567769 0)
(10.0468 -0.066242 0)
(10.0618 -0.0734426 0)
(10.0765 -0.0787961 0)
(10.0906 -0.0828255 0)
(10.1039 -0.0858469 0)
(10.1163 -0.0880991 0)
(10.1276 -0.089817 0)
(10.1377 -0.0910189 0)
(10.1464 -0.0916343 0)
(10.1535 -0.091584 0)
(10.1592 -0.0909292 0)
(10.1638 -0.0900631 0)
(10.1676 -0.0892188 0)
(10.171 -0.0886756 0)
(10.0016 -0.0139134 0)
(10.0105 -0.0368397 0)
(10.0242 -0.0542614 0)
(10.0402 -0.0678691 0)
(10.0571 -0.0783501 0)
(10.0739 -0.0860075 0)
(10.0898 -0.0914573 0)
(10.1046 -0.0953972 0)
(10.1181 -0.0980504 0)
(10.13 -0.0996203 0)
(10.1401 -0.100322 0)
(10.1483 -0.100048 0)
(10.155 -0.0990597 0)
(10.1604 -0.0977467 0)
(10.1649 -0.0962316 0)
(10.1689 -0.0946923 0)
(10.1724 -0.0933797 0)
(10.1754 -0.0923572 0)
(10.0022 -0.0177329 0)
(10.0145 -0.0447648 0)
(10.0315 -0.0644054 0)
(10.0501 -0.0794701 0)
(10.0688 -0.0906895 0)
(10.0865 -0.0984081 0)
(10.1027 -0.103494 0)
(10.1169 -0.106669 0)
(10.1287 -0.107856 0)
(10.1387 -0.10781 0)
(10.1468 -0.106982 0)
(10.1535 -0.105697 0)
(10.1592 -0.103949 0)
(10.1641 -0.101995 0)
(10.1684 -0.100102 0)
(10.1722 -0.0982975 0)
(10.1755 -0.0966504 0)
(10.1783 -0.095232 0)
(10.0032 -0.0226037 0)
(10.02 -0.0540441 0)
(10.0404 -0.0755234 0)
(10.0605 -0.0913322 0)
(10.0794 -0.101882 0)
(10.0965 -0.108359 0)
(10.1117 -0.111868 0)
(10.1241 -0.113554 0)
(10.1343 -0.113949 0)
(10.1431 -0.113184 0)
(10.1506 -0.11157 0)
(10.1569 -0.109697 0)
(10.1624 -0.107666 0)
(10.167 -0.105491 0)
(10.1711 -0.103322 0)
(10.1746 -0.101228 0)
(10.1775 -0.0992804 0)
(10.18 -0.0975274 0)
(10.0053 -0.0293185 0)
(10.0272 -0.0638219 0)
(10.0494 -0.0843085 0)
(10.0695 -0.0992221 0)
(10.0875 -0.109569 0)
(10.1038 -0.115602 0)
(10.1179 -0.11841 0)
(10.1295 -0.118836 0)
(10.1393 -0.118608 0)
(10.1474 -0.117487 0)
(10.1542 -0.115701 0)
(10.1597 -0.113458 0)
(10.1643 -0.111044 0)
(10.1679 -0.108491 0)
(10.1709 -0.105984 0)
(10.1731 -0.103591 0)
(10.1748 -0.101348 0)
(10.1759 -0.0993201 0)
(10.0097 -0.0360611 0)
(10.0355 -0.0706697 0)
(10.0577 -0.0913622 0)
(10.078 -0.105906 0)
(10.0961 -0.116666 0)
(10.1112 -0.122878 0)
(10.123 -0.126162 0)
(10.1312 -0.126734 0)
(10.1367 -0.12604 0)
(10.1394 -0.12415 0)
(10.1396 -0.121553 0)
(10.1379 -0.118475 0)
(10.1344 -0.115235 0)
(10.1296 -0.111937 0)
(10.1234 -0.108649 0)
(10.1166 -0.105592 0)
(10.1084 -0.102637 0)
(10.1004 -0.100123 0)
(10.0125 -0.0429424 0)
(10.0462 -0.0770305 0)
(10.0678 -0.0956924 0)
(10.0736 -0.108103 0)
(10.0616 -0.116085 0)
(10.0344 -0.120693 0)
(9.99254 -0.12244 0)
(9.94019 -0.122045 0)
(9.88006 -0.120331 0)
(9.81577 -0.117742 0)
(9.74827 -0.114539 0)
(9.6802 -0.111002 0)
(9.61158 -0.10729 0)
(9.54462 -0.103591 0)
(9.4781 -0.0998918 0)
(9.41471 -0.0964223 0)
(9.35143 -0.0930783 0)
(9.29309 -0.0902188 0)
(9.91231 -0.0352279 0)
(9.6756 -0.0802326 0)
(9.34494 -0.110847 0)
(8.97382 -0.126504 0)
(8.59858 -0.126882 0)
(8.24187 -0.116728 0)
(7.90906 -0.105326 0)
(7.60218 -0.0937905 0)
(7.32306 -0.0827785 0)
(7.0703 -0.0728723 0)
(6.84179 -0.0641076 0)
(6.63577 -0.0564165 0)
(6.44966 -0.0497257 0)
(6.28212 -0.0439175 0)
(6.13013 -0.0388527 0)
(5.99373 -0.0345227 0)
(5.86828 -0.0305487 0)
(5.75714 -0.0269924 0)
(0.00766511 -0.00837379 -1.03774e-20)
(0.0207962 -0.00532015 1.03247e-20)
(0.0195749 0.00378147 0)
(0.000180201 0.0144459 0)
(-0.0262431 0.0192133 0)
(-0.0562195 0.0203093 -9.993e-21)
(-0.0867422 0.0215391 0)
(-0.118278 0.0230372 0)
(-0.150342 0.0238568 0)
(-0.182426 0.0236737 0)
(-0.213865 0.0224419 9.59921e-21)
(-0.244016 0.0201885 0)
(-0.27227 0.0169986 0)
(-0.298126 0.0130195 0)
(-0.321146 0.00842186 0)
(-0.340987 0.00338768 9.26419e-21)
(-0.357408 -0.00189958 0)
(-0.370246 -0.0072772 0)
(-0.379387 -0.0126219 0)
(-0.384739 -0.0178609 0)
(-0.386218 -0.0229765 0)
(-0.383739 -0.0279924 0)
(-0.377246 -0.032951 0)
(-0.366683 -0.0379139 8.9339e-21)
(-0.351998 -0.0429544 -8.93295e-21)
(-0.333235 -0.0480892 8.9479e-21)
(-0.310526 -0.0533091 8.98162e-21)
(-0.284254 -0.0584932 0)
(-0.255045 -0.063487 0)
(-0.223875 -0.0680889 -9.22676e-21)
(-0.192408 -0.0718996 -9.36651e-21)
(-0.162839 -0.0744729 0)
(-0.138401 -0.0751247 0)
(-0.123362 -0.072902 -9.98003e-21)
(-0.122523 -0.0666967 0)
(-0.141849 -0.0555245 0)
(-0.188773 -0.0376209 1.08017e-20)
(-0.270995 -0.010952 0)
(-0.396202 0.0262772 1.13654e-20)
(-0.571108 0.074443 2.327e-20)
(-0.800128 0.13109 0)
(-1.08399 0.190797 0)
(-1.41899 0.24683 0)
(-1.79755 0.29353 0)
(-2.20968 0.328075 0)
(-2.64489 0.350313 2.80529e-20)
(-3.09342 0.361593 2.94955e-20)
(-3.54666 0.364067 3.11518e-20)
(-3.99775 0.360236 0)
(-4.44088 0.351873 -3.49739e-20)
(-4.87155 0.340194 0)
(-5.28569 0.325584 3.91734e-20)
(-5.67944 0.307913 4.12799e-20)
(-6.04941 0.287028 0)
(-6.3923 0.262523 0)
(-6.70502 0.234556 0)
(-6.98435 0.203919 4.83817e-20)
(-7.2275 0.171025 0)
(-7.43188 0.136062 0)
(-7.59524 0.100246 0)
(-7.71613 0.0641668 0)
(-7.79206 0.0283545 0)
(-7.82151 -0.00695742 0)
(-7.80585 -0.0425694 0)
(-7.75114 -0.0755126 0)
(-7.65405 -0.107408 -4.26298e-20)
(-7.51678 -0.137761 0)
(-7.34001 -0.166322 0)
(-7.12489 -0.193203 3.23363e-20)
(-6.873 -0.217924 2.81757e-20)
(-6.58627 -0.239912 0)
(-6.26684 -0.25907 -1.90768e-20)
(-5.91696 -0.275254 1.4294e-20)
(-5.53911 -0.289835 0)
(-5.13566 -0.30195 -4.44819e-21)
(-4.71001 -0.310965 0)
(-4.26606 -0.317584 0)
(-3.80874 -0.321572 -9.85408e-21)
(-3.34409 -0.321596 0)
(-2.87827 -0.317948 1.8128e-20)
(-2.41723 -0.310788 0)
(-1.96671 -0.300419 -2.48068e-20)
(-1.53169 -0.28748 -2.74796e-20)
(-1.11607 -0.272691 -2.97104e-20)
(-0.722146 -0.25681 -6.30397e-20)
(-0.352514 -0.240192 6.5875e-20)
(-0.00874904 -0.223264 0)
(0.310258 -0.20623 0)
(0.605257 -0.18999 0)
(0.876951 -0.174703 6.87624e-20)
(1.12667 -0.160326 6.83471e-20)
(1.35568 -0.146764 -6.76975e-20)
(1.56515 -0.134356 0)
(1.75748 -0.123793 6.58999e-20)
(1.9329 -0.111383 6.49358e-20)
(2.09357 -0.0989577 6.39494e-20)
(2.24089 -0.0880408 0)
(2.37663 -0.0786933 0)
(2.50262 -0.0706418 0)
(2.62029 -0.0636433 5.97997e-20)
(2.73071 -0.0574387 0)
(2.83479 -0.0518096 0)
(2.93311 -0.0465012 -5.67994e-20)
(3.02621 -0.0415435 0)
(3.11464 -0.0369411 0)
(3.19871 -0.0325737 -5.40679e-20)
(3.27883 -0.0284573 0)
(3.35507 -0.0243861 0)
(3.42733 -0.0203025 5.1624e-20)
(3.49569 -0.016319 5.08681e-20)
(3.55976 -0.0121144 0)
(3.61884 -0.007646 -4.94382e-20)
(3.6728 -0.00321193 0)
(3.72085 0.00169519 4.8099e-20)
(3.76173 0.00715291 0)
(3.79549 0.0119999 4.68634e-20)
(3.82202 0.016458 4.62694e-20)
(3.83953 0.021881 0)
(3.84635 0.0281059 0)
(3.84345 0.0332139 0)
(3.83198 0.036 0)
(3.81383 0.0362388 0)
(3.79133 0.0347082 0)
(3.76599 0.0326352 0)
(3.73861 0.0303302 4.22123e-20)
(3.70983 0.0279593 -4.17568e-20)
(3.68023 0.0255469 0)
(3.65053 0.02304 0)
(3.6215 0.0205088 0)
(3.59387 0.018024 0)
(3.56819 0.0156532 -7.94569e-20)
(3.54486 0.0134761 0)
(3.52407 0.0115475 7.81057e-20)
(3.50588 0.00987625 -7.74859e-20)
(3.4902 0.00846639 0)
(3.47686 0.00734131 0)
(3.46553 0.00656397 0)
(3.45577 0.0061745 7.53146e-20)
(3.44704 0.00611321 7.48319e-20)
(3.43897 0.00620105 0)
(3.43131 0.00619721 7.3914e-20)
(3.4242 0.00589766 7.34734e-20)
(3.41789 0.00519976 -7.30428e-20)
(3.41285 0.00415373 0)
(3.40931 0.00301195 0)
(3.40729 0.00211568 -7.18097e-20)
(3.40626 0.00170806 0)
(3.4057 0.00180121 0)
(3.40487 0.00220648 0)
(3.40345 0.00268286 0)
(3.4011 0.00306707 6.98865e-20)
(3.39793 0.00332221 6.95111e-20)
(3.39381 0.00345414 0)
(3.38905 0.00348398 6.87643e-20)
(3.38357 0.00339216 0)
(3.37792 0.00317945 0)
(3.37202 0.00288432 6.76587e-20)
(3.36641 0.0025638 0)
(3.36081 0.00225206 6.6935e-20)
(3.35567 0.00197708 0)
(3.35057 0.0017465 0)
(3.34589 0.00157899 6.58771e-20)
(3.3411 0.00146157 0)
(3.33653 0.00142001 6.51954e-20)
(3.3316 0.00143373 0)
(3.32651 0.00154759 0)
(3.32071 0.00171249 0)
(3.31417 0.00201014 -6.39161e-20)
(3.30654 0.00237204 0)
(3.29698 0.00293681 6.33466e-20)
(3.28605 0.00364749 0)
(3.27042 0.00465513 0)
(3.2538 0.00612758 0)
(3.22545 0.00788793 0)
(3.19949 0.0112915 0)
(3.1422 0.0140102 0)
(3.10336 0.0228576 0)
(2.97449 0.0248746 -1.26079e-19)
(2.93177 0.0531332 0)
(2.60166 0.0504961 0)
(0.0125881 -0.0549063 3.11252e-20)
(0.0190511 -0.0209633 -3.0914e-20)
(0.00315382 0.0411653 0)
(-0.0232805 0.0796256 2.0107e-20)
(-0.0551836 0.0974255 0)
(-0.0916424 0.10302 9.8935e-21)
(-0.129632 0.104553 -1.96101e-20)
(-0.168154 0.104951 -1.94301e-20)
(-0.20646 0.104088 0)
(-0.244296 0.101801 -1.9079e-20)
(-0.281482 0.098061 -9.45408e-21)
(-0.317953 0.0929926 0)
(-0.353752 0.0869133 0)
(-0.388991 0.0800394 0)
(-0.423809 0.0725356 0)
(-0.458403 0.0646081 -9.09185e-21)
(-0.493016 0.0564217 0)
(-0.527893 0.0480517 1.79277e-20)
(-0.563247 0.0394813 0)
(-0.599217 0.0306884 0)
(-0.635841 0.0216543 -1.76184e-20)
(-0.673053 0.0124108 0)
(-0.71073 0.00308374 1.74602e-20)
(-0.74881 -0.00611945 -8.75211e-21)
(-0.78729 -0.0149896 8.74327e-21)
(-0.82632 -0.0232338 -8.74834e-21)
(-0.866266 -0.0302817 -8.76996e-21)
(-0.907885 -0.0354103 0)
(-0.952318 -0.0378593 0)
(-1.00115 -0.0363325 8.96349e-21)
(-1.05674 -0.0291074 -8.77504e-21)
(-1.12204 -0.0142144 0)
(-1.20079 0.0105801 0)
(-1.29759 0.0476151 9.60015e-21)
(-1.41738 0.0990749 0)
(-1.5651 0.16622 0)
(-1.74419 0.248918 -1.02884e-20)
(-1.95665 0.344966 0)
(-2.20209 0.449753 1.04052e-20)
(-2.47767 0.556525 -2.19629e-20)
(-2.77878 0.657965 0)
(-3.10017 0.747933 0)
(-3.43632 0.821671 -4.77766e-20)
(-3.78132 0.875895 -4.96932e-20)
(-4.12936 0.909559 -5.19411e-20)
(-4.47511 0.924336 2.81172e-20)
(-4.81452 0.923804 -2.77872e-20)
(-5.14541 0.910907 -9.00383e-20)
(-5.46627 0.888168 6.41673e-20)
(-5.77622 0.857355 3.28644e-20)
(-6.07433 0.819847 0)
(-6.3593 0.776086 -3.66035e-20)
(-6.62955 0.7265 4.05316e-20)
(-6.883 0.67197 0)
(-7.1175 0.612262 0)
(-7.33058 0.54823 0)
(-7.52002 0.479809 -4.37034e-20)
(-7.68353 0.40733 0)
(-7.81892 0.331531 9.13424e-20)
(-7.92397 0.253125 0)
(-7.99659 0.172965 9.01774e-20)
(-8.03573 0.0920823 0)
(-8.04079 0.0111601 -8.6714e-20)
(-8.00878 -0.069373 0)
(-7.9344 -0.147694 8.02101e-20)
(-7.82085 -0.223441 -3.91514e-20)
(-7.66794 -0.296058 0)
(-7.47702 -0.365358 -6.44683e-20)
(-7.24866 -0.431226 -2.76247e-20)
(-6.98424 -0.49305 -2.40388e-20)
(-6.68509 -0.550299 0)
(-6.35284 -0.602423 -1.8848e-20)
(-5.98714 -0.649503 -1.22891e-20)
(-5.58952 -0.692349 0)
(-5.16501 -0.729312 3.88733e-21)
(-4.71696 -0.759102 -1.46362e-21)
(-4.2503 -0.780332 0)
(-3.7708 -0.791577 8.72814e-21)
(-3.28486 -0.79219 0)
(-2.79918 -0.782275 -4.67481e-20)
(-2.32048 -0.762492 0)
(-1.85479 -0.733982 6.48973e-20)
(-1.40708 -0.698385 2.44237e-20)
(-0.98121 -0.65752 -2.5349e-20)
(-0.579713 -0.613417 -5.4029e-20)
(-0.204604 -0.567787 5.65821e-20)
(0.143423 -0.522418 0)
(0.465109 -0.478297 0)
(0.761472 -0.436688 0)
(1.03395 -0.39816 -1.79764e-19)
(1.2842 -0.362575 -5.98465e-20)
(1.51362 -0.329398 5.9094e-20)
(1.72369 -0.298603 0)
(1.91408 -0.271293 5.60934e-20)
(2.08794 -0.247627 -5.62777e-20)
(2.2499 -0.226778 -5.55542e-20)
(2.40108 -0.208641 0)
(2.54244 -0.193032 0)
(2.6752 -0.179578 0)
(2.80041 -0.167923 -5.23811e-20)
(2.91909 -0.157761 0)
(3.03221 -0.148848 1.00772e-19)
(3.14069 -0.141 1.49263e-19)
(3.24549 -0.134063 -9.78266e-20)
(3.34729 -0.127901 0)
(3.44676 -0.122344 -4.72587e-20)
(3.5443 -0.117205 0)
(3.64012 -0.112322 -9.28131e-20)
(3.73447 -0.107455 4.55549e-20)
(3.8272 -0.102366 4.50304e-20)
(3.91798 -0.0969294 0)
(4.00675 -0.0909344 1.3313e-19)
(4.09292 -0.0841963 -8.75822e-20)
(4.17582 -0.0768843 -4.35313e-20)
(4.25561 -0.0690955 0)
(4.33181 -0.060408 -4.25945e-20)
(4.40266 -0.0505736 -1.2598e-19)
(4.46856 -0.0406413 0)
(4.53069 -0.0305515 -8.2244e-20)
(4.58848 -0.0201851 -8.16979e-20)
(4.64103 -0.0103018 -8.12316e-20)
(4.68807 -0.00204061 0)
(4.72957 0.00438148 0)
(4.76508 0.00902454 0)
(4.79413 0.0128763 3.94966e-20)
(4.81699 0.0160671 3.93673e-20)
(4.8342 0.0185241 0)
(4.84644 0.0199663 7.74299e-20)
(4.85458 0.0204186 7.68408e-20)
(4.85954 0.02 0)
(4.86217 0.0188868 7.57229e-20)
(4.86332 0.0172638 1.50219e-19)
(4.86373 0.0153141 -7.45877e-20)
(4.86407 0.0132021 -7.39966e-20)
(4.86482 0.0110771 0)
(4.86639 0.00906983 0)
(4.86893 0.00729193 0)
(4.87274 0.00580617 -7.20892e-20)
(4.87787 0.00462865 7.16042e-20)
(4.88449 0.00371303 1.42397e-19)
(4.89233 0.00297049 -7.08116e-20)
(4.9012 0.00226521 7.03661e-20)
(4.91056 0.00148696 7.00277e-20)
(4.92013 0.00064893 0)
(4.92931 -0.00015789 0)
(4.93811 -0.000876905 -6.8897e-20)
(4.94649 -0.00139422 0)
(4.95494 -0.001644 0)
(4.96341 -0.00157116 1.3574e-19)
(4.97207 -0.00118999 0)
(4.9804 -0.000604506 6.71732e-20)
(4.9884 8.96819e-05 -6.68786e-20)
(4.99549 0.000797283 0)
(5.00191 0.00140514 6.61939e-20)
(5.00731 0.00187921 0)
(5.012 0.00219314 0)
(5.01565 0.00236871 -6.52769e-20)
(5.01862 0.0024191 1.29896e-19)
(5.02066 0.00238416 -6.46492e-20)
(5.02223 0.00229496 0)
(5.02304 0.0021924 0)
(5.02353 0.00210597 6.36986e-20)
(5.02336 0.00206919 0)
(5.02292 0.00210461 6.3088e-20)
(5.02181 0.00224608 0)
(5.02032 0.00250084 0)
(5.01812 0.00292484 0)
(5.01513 0.00349993 6.19373e-20)
(5.01147 0.00438415 0)
(5.00595 0.0054893 -6.14182e-20)
(5.00008 0.00723317 0)
(4.98975 0.00926296 0)
(4.98041 0.0127698 1.216e-19)
(4.96032 0.016422 -1.21332e-19)
(4.94574 0.0239813 0)
(4.90431 0.0302668 0)
(4.88317 0.0478059 0)
(4.79233 0.0569411 3.67027e-19)
(4.77048 0.103112 0)
(4.56886 0.120476 -2.48951e-19)
(0.00845903 -0.0790683 -2.41956e-23)
(-0.0132853 0.0194202 4.06128e-20)
(-0.0358268 0.0922545 0)
(-0.0582041 0.134737 -3.83266e-20)
(-0.0829601 0.159749 0)
(-0.109863 0.171846 0)
(-0.138454 0.176323 7.5914e-24)
(-0.167979 0.176932 1.84819e-20)
(-0.197782 0.175159 1.82184e-20)
(-0.227626 0.171628 1.79762e-20)
(-0.257444 0.166682 0)
(-0.287386 0.160691 0)
(-0.317624 0.15408 -1.73222e-20)
(-0.34833 0.147125 -3.43255e-20)
(-0.379771 0.140165 3.40794e-20)
(-0.412331 0.133584 0)
(-0.446462 0.127671 3.37818e-20)
(-0.482698 0.12255 -1.69038e-20)
(-0.52172 0.118195 0)
(-0.564252 0.114416 3.36282e-20)
(-0.610976 0.110916 1.68953e-20)
(-0.662485 0.107411 -3.35837e-20)
(-0.719253 0.103723 -1.69056e-20)
(-0.781581 0.0998957 0)
(-0.849618 0.0962457 3.34876e-20)
(-0.923663 0.0934 3.34774e-20)
(-1.00419 0.0923663 0)
(-1.09159 0.0945297 3.3542e-20)
(-1.18679 0.101623 0)
(-1.29111 0.115871 3.38088e-20)
(-1.40611 0.139731 1.74526e-20)
(-1.53385 0.17592 0)
(-1.67676 0.227346 0)
(-1.83731 0.296199 0)
(-2.01729 0.383 0)
(-2.21703 0.486528 0)
(-2.43518 0.603697 0)
(-2.66919 0.72984 3.8776e-20)
(-2.91585 0.859012 -6.03867e-20)
(-3.17184 0.984696 0)
(-3.43424 1.10007 0)
(-3.70006 1.19865 0)
(-3.96554 1.27572 -7.29766e-22)
(-4.22768 1.32794 4.74119e-20)
(-4.48493 1.35594 1.0012e-19)
(-4.73823 1.36251 -1.04678e-19)
(-4.98925 1.35192 -5.57903e-20)
(-5.24009 1.32774 5.63585e-20)
(-5.49196 1.29292 2.25535e-21)
(-5.74581 1.24904 6.42993e-20)
(-6.00107 1.19676 0)
(-6.25535 1.1368 7.06295e-20)
(-6.50655 1.06839 2.77574e-21)
(-6.75062 0.991064 0)
(-6.98381 0.905236 0)
(-7.20223 0.8108 -8.33692e-20)
(-7.40095 0.708602 0)
(-7.57583 0.599498 0)
(-7.72276 0.484293 9.37018e-20)
(-7.8377 0.36401 1.82017e-19)
(-7.91733 0.239719 -8.74202e-20)
(-7.95931 0.112746 0)
(-7.96213 -0.0151594 8.52072e-20)
(-7.92479 -0.141757 0)
(-7.84696 -0.266273 8.62397e-20)
(-7.72963 -0.386933 7.4696e-20)
(-7.57387 -0.502609 -1.45829e-19)
(-7.38084 -0.613063 -7.02253e-20)
(-7.15153 -0.718298 0)
(-6.88675 -0.81807 1.06403e-19)
(-6.58729 -0.912213 0)
(-6.2538 -1.00021 1.10184e-19)
(-5.8852 -1.08174 5.95425e-20)
(-5.48349 -1.15446 4.28493e-20)
(-5.05264 -1.21663 -2.55187e-20)
(-4.59556 -1.26633 9.35769e-21)
(-4.11731 -1.30157 0)
(-3.62408 -1.32008 0)
(-3.12318 -1.32038 4.25192e-20)
(-2.62273 -1.30235 8.72018e-20)
(-2.13092 -1.2671 0)
(-1.65492 -1.21715 -4.17156e-20)
(-1.20053 -1.1556 0)
(-0.771839 -1.0857 1.48559e-19)
(-0.37138 -1.01099 1.22121e-21)
(-0.000455369 -0.934527 -1.11491e-21)
(0.341106 -0.858786 -1.11235e-19)
(0.654385 -0.785652 0)
(0.940791 -0.716459 1.13037e-19)
(1.20232 -0.652035 8.44046e-22)
(1.44123 -0.592513 0)
(1.65957 -0.537386 0)
(1.85931 -0.486368 0)
(2.04201 -0.440261 -1.0798e-19)
(2.21005 -0.401226 0)
(2.36505 -0.36812 0)
(2.50862 -0.339475 0)
(2.64233 -0.314564 0)
(2.76753 -0.292909 0)
(2.88544 -0.274098 -9.349e-20)
(2.99725 -0.257776 0)
(3.10407 -0.243593 -8.96425e-20)
(3.20699 -0.231333 -8.76936e-20)
(3.30699 -0.220799 8.59061e-20)
(3.40486 -0.211706 0)
(3.5013 -0.203727 8.28045e-20)
(3.59674 -0.196392 0)
(3.69152 -0.189461 8.03474e-20)
(3.78581 -0.182622 -7.92567e-20)
(3.87952 -0.175514 -2.33626e-19)
(3.97239 -0.167922 0)
(4.06403 -0.159643 -2.27556e-19)
(4.15396 -0.150414 -7.42585e-20)
(4.24162 -0.140231 0)
(4.32642 -0.129198 -1.45243e-19)
(4.4077 -0.11709 -1.43192e-19)
(4.48508 -0.103799 2.12115e-19)
(4.55789 -0.0900708 0)
(4.62585 -0.0766289 6.91948e-20)
(4.68911 -0.0635898 6.86639e-20)
(4.74768 -0.0514339 2.03883e-19)
(4.801 -0.0409257 0)
(4.84788 -0.0311752 0)
(4.88881 -0.0219815 0)
(4.92437 -0.0134224 6.66665e-20)
(4.95454 -0.00568615 0)
(4.97962 0.000523094 0)
(5.00016 0.00528047 -6.70717e-20)
(5.01694 0.00855041 -6.69504e-20)
(5.03065 0.0103823 0)
(5.04202 0.0109379 0)
(5.05175 0.0104342 -1.32709e-19)
(5.06048 0.00911536 0)
(5.06877 0.00722288 1.31571e-19)
(5.0771 0.00499546 1.30817e-19)
(5.08582 0.00264276 0)
(5.09523 0.000341129 0)
(5.10554 -0.00179026 -1.28887e-19)
(5.11692 -0.00368273 -1.32269e-22)
(5.12934 -0.00527334 -1.35007e-22)
(5.14272 -0.00658372 0)
(5.15682 -0.00766111 -2.53258e-19)
(5.17142 -0.00853162 0)
(5.18619 -0.00928935 0)
(5.20084 -0.00989191 0)
(5.21518 -0.0103014 1.24908e-19)
(5.22928 -0.0105174 0)
(5.24314 -0.0104942 -2.47866e-19)
(5.25682 -0.0101532 -1.23628e-19)
(5.27019 -0.00958212 0)
(5.28317 -0.00873523 -1.22793e-19)
(5.2956 -0.00768564 0)
(5.30745 -0.00654114 0)
(5.31856 -0.00543955 -3.64867e-19)
(5.32898 -0.00443992 2.42574e-19)
(5.33853 -0.00358687 0)
(5.34734 -0.00287179 2.41272e-19)
(5.35525 -0.00229264 -1.20331e-19)
(5.36245 -0.00181815 0)
(5.36879 -0.00142876 0)
(5.37449 -0.00107887 0)
(5.37935 -0.000739682 -3.56419e-19)
(5.38366 -0.000370955 0)
(5.38712 5.35213e-05 -1.17994e-19)
(5.39009 0.000584987 0)
(5.39214 0.00124098 0)
(5.39374 0.00209226 0)
(5.39417 0.0031403 0)
(5.39419 0.00456194 0)
(5.39252 0.0063259 0)
(5.3905 0.00887569 -2.3023e-19)
(5.38553 0.0119851 0)
(5.38062 0.0168281 -1.14645e-19)
(5.36976 0.0224701 3.4336e-19)
(5.36063 0.0323247 0)
(5.33822 0.0427229 0)
(5.32289 0.0641023 -2.30048e-19)
(5.27776 0.0819388 -2.32523e-19)
(5.2586 0.132113 2.33784e-19)
(5.17973 0.169962 2.3999e-19)
(-0.00454663 -0.0442035 -6.1738e-20)
(-0.0367582 0.0763051 -5.92174e-20)
(-0.0587386 0.140218 -3.64363e-20)
(-0.0782542 0.178446 -1.72305e-20)
(-0.098071 0.203414 0)
(-0.117902 0.218077 3.32591e-20)
(-0.138273 0.225083 -1.63763e-20)
(-0.159457 0.227057 0)
(-0.181345 0.225854 -1.57959e-20)
(-0.203824 0.222611 0)
(-0.22689 0.218066 3.03711e-20)
(-0.250693 0.212777 0)
(-0.275357 0.207165 1.47977e-20)
(-0.301037 0.20163 2.93413e-20)
(-0.327994 0.196638 -2.92099e-20)
(-0.356503 0.192686 0)
(-0.386919 0.190242 -2.92746e-20)
(-0.419751 0.18973 0)
(-0.455685 0.19139 0)
(-0.495523 0.195154 -2.99491e-20)
(-0.540134 0.200704 0)
(-0.59041 0.207611 2.47888e-22)
(-0.647238 0.215488 0)
(-0.711486 0.224136 0)
(-0.78394 0.233698 -3.72309e-22)
(-0.865353 0.244752 -3.16359e-20)
(-0.956513 0.258297 -3.13864e-20)
(-1.05808 0.27578 -3.21124e-20)
(-1.17076 0.299178 0)
(-1.29526 0.330824 -6.45711e-20)
(-1.43215 0.373515 0)
(-1.58229 0.430471 -3.24511e-20)
(-1.74663 0.504322 0)
(-1.92531 0.595919 0)
(-2.11731 0.703975 3.38941e-20)
(-2.32056 0.825391 0)
(-2.53234 0.955828 -3.55125e-20)
(-2.75011 1.0907 -8.4375e-22)
(-2.9725 1.22551 7.63034e-20)
(-3.19873 1.35455 -7.85667e-20)
(-3.42774 1.47046 0)
(-3.65785 1.56642 0)
(-3.88525 1.63627 -4.51003e-20)
(-4.10763 1.67886 0)
(-4.32624 1.69797 -4.67999e-20)
(-4.54518 1.69888 4.86853e-20)
(-4.76906 1.68613 5.09191e-20)
(-5.0012 1.66367 0)
(-5.24332 1.6329 -5.6554e-20)
(-5.49461 1.5937 -5.99611e-20)
(-5.75391 1.54525 1.33567e-19)
(-6.01736 1.48513 -6.76253e-20)
(-6.27984 1.41083 -7.15158e-20)
(-6.53769 1.32143 0)
(-6.78453 1.217 0)
(-7.01436 1.09866 8.30998e-20)
(-7.22269 0.966547 0)
(-7.40414 0.820835 0)
(-7.55423 0.663035 -1.83959e-19)
(-7.66912 0.495008 -1.8723e-19)
(-7.74585 0.319385 0)
(-7.7826 0.138997 0)
(-7.77891 -0.0430558 0)
(-7.73505 -0.223755 0)
(-7.65186 -0.400294 -1.72149e-19)
(-7.5309 -0.570325 1.72682e-19)
(-7.37418 -0.732494 1.51927e-19)
(-7.18332 -0.886667 2.8811e-19)
(-6.95939 -1.03332 0)
(-6.70304 -1.1729 8.65876e-21)
(-6.41447 -1.30533 0)