/*--------------------------------*- C++ -*----------------------------------*\
| =========                 |                                                 |
| \\      /  F ield         | OpenFOAM: The Open Source CFD Toolbox           |
|  \\    /   O peration     | Version:  2112                                  |
|   \\  /    A nd           | Website:  www.openfoam.com                      |
|    \\/     M anipulation  |                                                 |
\*---------------------------------------------------------------------------*/
FoamFile
{
    version     2.0;
    format      ascii;
    arch        "LSB;label=32;scalar=64";
    class       volScalarField;
    location    "0.58";
    object      k_0;
}
// * * * * * * * * * * * * * * * * * * * * * * * * * * * * * * * * * * * * * //

dimensions      [0 2 -2 0 0 0 0];

internalField   nonuniform List<scalar> 
12225
(
0.38666
0.386457
0.381376
0.376346
0.374753
0.374005
0.373363
0.372748
0.372172
0.371781
0.371652
0.371674
0.371852
0.371977
0.371971
0.371837
0.371083
0.371042
0.375272
0.369761
0.358752
0.350569
0.344245
0.337672
0.330639
0.324956
0.320503
0.31704
0.31491
0.314876
0.315321
0.316026
0.316239
0.316368
0.317088
0.319968
0.374928
0.0237028
0.015166
0.0208058
0.0323612
0.0391637
0.0422762
0.0438464
0.0454576
0.0483963
0.0543515
0.065551
0.0763116
0.0873136
0.0950044
0.101011
0.107637
0.119128
0.375014
0.318212
0.283637
0.261601
0.203375
0.116038
0.0642215
0.0412085
0.0258355
0.0137841
0.00703238
0.0051854
0.00538491
0.00634493
0.00866511
0.0107023
0.0123279
0.0156185
0.375463
0.326341
0.311068
0.309905
0.295113
0.26829
0.247617
0.214822
0.151212
0.0933505
0.0593125
0.044244
0.0378613
0.0365938
0.0360526
0.0347782
0.0293354
0.0187992
0.375815
0.292818
0.23296
0.23062
0.261359
0.287885
0.291525
0.286823
0.262873
0.18373
0.109472
0.0727786
0.0587193
0.0536012
0.0498829
0.0440738
0.0374497
0.0296275
0.375593
0.283834
0.226177
0.217443
0.24943
0.292875
0.308302
0.311293
0.308803
0.291538
0.224447
0.142733
0.0891551
0.0560214
0.0364733
0.0267641
0.0235371
0.0229873
0.375436
0.305439
0.251544
0.262883
0.290025
0.29746
0.299285
0.303619
0.312086
0.313647
0.307616
0.273736
0.180802
0.105631
0.0592185
0.0353359
0.0280257
0.0275608
0.375179
0.286355
0.260454
0.292719
0.308309
0.293914
0.258898
0.254077
0.267381
0.285917
0.287493
0.279706
0.245199
0.170719
0.114162
0.0817522
0.0695667
0.0674359
0.374884
0.259388
0.219051
0.254492
0.278394
0.276193
0.235337
0.193241
0.190722
0.209047
0.229095
0.23339
0.232229
0.225619
0.198504
0.14184
0.0984413
0.0752862
0.375077
0.304682
0.215355
0.218572
0.225661
0.22569
0.193302
0.113638
0.0888222
0.0923539
0.116996
0.168339
0.195586
0.200864
0.196172
0.166857
0.117652
0.086687
0.375003
0.346281
0.25102
0.209105
0.210189
0.209176
0.164579
0.0826658
0.0580217
0.0575761
0.0679368
0.116362
0.177892
0.207423
0.213913
0.21164
0.198009
0.161043
0.374992
0.353076
0.251961
0.213103
0.206869
0.179677
0.117849
0.0913113
0.0875452
0.0873968
0.0881265
0.0951927
0.128789
0.179207
0.205071
0.212747
0.21313
0.211425
0.375001
0.365029
0.320749
0.287746
0.218853
0.160306
0.150129
0.15255
0.158268
0.162139
0.165393
0.172288
0.197195
0.23037
0.248365
0.257047
0.260525
0.261412
0.374999
0.370651
0.356938
0.323554
0.238022
0.184526
0.184364
0.214761
0.236554
0.238902
0.238891
0.242337
0.253468
0.259589
0.260214
0.25742
0.24124
0.20338
0.374999
0.37147
0.36139
0.338561
0.279501
0.228422
0.220605
0.235418
0.25911
0.27402
0.288172
0.297295
0.299492
0.298185
0.290779
0.268848
0.204698
0.139379
0.375082
0.372005
0.358009
0.33752
0.321407
0.310547
0.312977
0.312546
0.288455
0.253622
0.245248
0.24975
0.264035
0.268328
0.26648
0.250276
0.194015
0.148477
0.37512
0.364983
0.346865
0.337695
0.337621
0.34396
0.344854
0.333579
0.278162
0.221529
0.198956
0.196196
0.202271
0.221286
0.231784
0.234924
0.235103
0.234291
0.375089
0.361119
0.32432
0.314916
0.319039
0.330644
0.331702
0.323166
0.300488
0.291192
0.286176
0.27481
0.256202
0.245834
0.245625
0.25426
0.264817
0.266932
0.37503
0.337086
0.327686
0.3413
0.344738
0.339355
0.334801
0.333058
0.331286
0.327398
0.31646
0.27732
0.216632
0.183005
0.178029
0.188696
0.20825
0.213595
0.375187
0.350021
0.351384
0.356424
0.351668
0.332248
0.3112
0.297624
0.29416
0.297815
0.305458
0.305178
0.295409
0.249036
0.191263
0.163645
0.162175
0.178722
0.375081
0.3457
0.357239
0.358947
0.348439
0.296231
0.218434
0.172266
0.159292
0.167525
0.217522
0.258681
0.269027
0.268249
0.257256
0.244274
0.242366
0.244487
0.375009
0.324043
0.310287
0.30815
0.266935
0.17674
0.145611
0.146314
0.156967
0.18976
0.241711
0.27605
0.288864
0.290247
0.286761
0.266784
0.223427
0.197172
0.375235
0.359894
0.31332
0.280956
0.267257
0.262529
0.26236
0.251137
0.204591
0.186756
0.189813
0.213857
0.241891
0.251995
0.253003
0.250696
0.23983
0.227168
0.375027
0.364673
0.325689
0.250943
0.234894
0.27643
0.314018
0.317345
0.298199
0.230875
0.192972
0.184994
0.185869
0.192796
0.197971
0.199013
0.19827
0.196654
0.375043
0.363841
0.308467
0.186437
0.166981
0.219154
0.277649
0.290582
0.287468
0.260222
0.195013
0.154867
0.139091
0.135447
0.135488
0.138125
0.148125
0.157843
0.374994
0.353854
0.274172
0.220429
0.230219
0.243952
0.233706
0.169585
0.0873448
0.0598266
0.0626968
0.0734515
0.0739199
0.0666798
0.0456796
0.0309784
0.0234226
0.0199667
0.37493
0.0442363
0.0137447
0.008343
0.00832885
0.00990856
0.0134884
0.0149221
0.015346
0.0163304
0.0190184
0.0225084
0.02627
0.0300412
0.0326843
0.033571
0.033508
0.0326902
0.375037
0.371953
0.36613
0.359514
0.354131
0.3507
0.347942
0.344812
0.341004
0.33746
0.333809
0.331175
0.328782
0.327033
0.325049
0.323414
0.320953
0.31825
0.375661
0.376399
0.377318
0.378337
0.379349
0.381166
0.383174
0.384432
0.384819
0.384804
0.384432
0.382854
0.380199
0.377892
0.376068
0.374796
0.373946
0.373368
0.299226
0.25269
0.225533
0.209715
0.198048
0.188697
0.179993
0.172687
0.165328
0.157972
0.154012
0.153218
0.153693
0.156421
0.16637
0.211122
0.277049
0.292925
0.292781
0.298977
0.298184
0.298908
0.327493
0.483802
0.530465
0.388142
0.352143
0.402094
0.49202
0.517921
0.517158
0.482025
0.417035
0.389512
0.376847
0.361999
0.338677
0.317673
0.307528
0.298782
0.289441
0.284698
0.280535
0.276242
0.273241
0.270412
0.268209
0.266934
0.265156
0.264352
0.263849
0.263286
0.262916
0.262299
0.261617
0.260938
0.260065
0.259187
0.258137
0.256872
0.255261
0.253471
0.251714
0.248993
0.245767
0.24102
0.235972
0.231267
0.227875
0.227295
0.22895
0.233987
0.246221
0.25586
0.26187
0.272778
0.311069
0.377085
0.403769
0.410688
0.424785
0.435583
0.439063
0.442065
0.450874
0.467301
0.484735
0.497981
0.519052
0.575336
0.716204
1.12744
2.41858
2.9745
2.74969
1.4839
0.465253
0.306931
0.242959
0.213659
0.183658
0.169189
0.15609
0.150488
0.148257
0.147623
0.146907
0.14633
0.145744
0.145222
0.144735
0.144274
0.143831
0.143422
0.143072
0.142781
0.142606
0.142631
0.143105
0.143641
0.144522
0.145172
0.14598
0.146822
0.147257
0.147476
0.147528
0.147304
0.146879
0.146462
0.146153
0.14607
0.146458
0.147094
0.147666
0.148059
0.148217
0.148065
0.147555
0.146192
0.143713
0.141169
0.139204
0.13724
0.135709
0.13493
0.133639
0.130954
0.130308
0.131443
0.136598
0.143474
0.167101
0.284108
0.371227
0.385993
0.382366
0.380363
0.382136
0.382899
0.376353
0.364457
0.364098
0.386622
0.484222
0.544491
0.544318
0.532076
0.536516
0.592025
0.78304
1.08485
1.24005
1.0172
0.435091
0.279346
0.247164
0.234281
0.228348
0.220329
0.364659
0.282972
0.259201
0.24369
0.228629
0.216623
0.203644
0.186612
0.16591
0.140906
0.126174
0.118623
0.111681
0.109692
0.11068
0.121809
0.149946
0.160181
0.176938
0.241626
0.341906
0.389672
0.415643
0.436498
0.38436
0.364946
0.373711
0.416129
0.428201
0.40681
0.333231
0.299116
0.26537
0.225473
0.207083
0.190104
0.171584
0.162913
0.158172
0.152832
0.147799
0.145183
0.14341
0.141944
0.141305
0.141026
0.140985
0.141593
0.142756
0.143908
0.145587
0.147576
0.149532
0.15151
0.15329
0.15498
0.156667
0.158476
0.160057
0.161643
0.162714
0.163394
0.163827
0.164003
0.163964
0.163761
0.16287
0.162796
0.16474
0.170175
0.184082
0.205721
0.230837
0.250596
0.253324
0.250369
0.25179
0.27177
0.326955
0.363419
0.392974
0.460443
0.508435
0.515228
0.503254
0.478899
0.463737
0.451532
0.446827
0.447808
0.460605
0.56484
1.00603
2.3142
2.24345
0.736169
0.27697
0.183119
0.161883
0.153322
0.149345
0.147586
0.146702
0.146224
0.145522
0.144604
0.143324
0.142385
0.140868
0.139193
0.137535
0.136313
0.135099
0.133569
0.132327
0.130883
0.129858
0.128931
0.128015
0.127443
0.127016
0.126815
0.126932
0.127369
0.127986
0.128558
0.129263
0.129689
0.129675
0.129553
0.129689
0.130615
0.133379
0.13628
0.138176
0.139417
0.140268
0.141168
0.142518
0.144125
0.145466
0.146026
0.145619
0.14246
0.136938
0.13374
0.131454
0.126771
0.116618
0.11135
0.110742
0.111235
0.11561
0.134057
0.194678
0.284299
0.314448
0.31356
0.310505
0.318957
0.328677
0.316805
0.248077
0.189308
0.164401
0.151759
0.143942
0.138566
0.137248
0.144444
0.184668
0.339664
0.749718
0.824214
0.375824
0.240957
0.215232
0.205397
0.200957
0.199356
0.35631
0.255043
0.215972
0.207398
0.207587
0.205153
0.199584
0.184042
0.167252
0.157099
0.15484
0.155889
0.153384
0.134994
0.129605
0.14118
0.192156
0.268818
0.311275
0.337017
0.353747
0.361719
0.342613
0.33169
0.328181
0.326611
0.325967
0.299381
0.219805
0.168138
0.14223
0.123257
0.108194
0.0954028
0.087821
0.0832812
0.0794118
0.0779333
0.0775835
0.0803903
0.0857969
0.0925417
0.0985649
0.102977
0.106511
0.108344
0.109963
0.11071
0.111432
0.112484
0.113793
0.115516
0.117516
0.120113
0.123018
0.126263
0.130223
0.134624
0.139503
0.14473
0.148993
0.151932
0.153114
0.152913
0.152018
0.151375
0.151472
0.15305
0.157975
0.168625
0.196568
0.256497
0.302813
0.334059
0.346421
0.345283
0.327224
0.302268
0.303641
0.309371
0.323042
0.371561
0.458753
0.497961
0.507264
0.501287
0.466327
0.440134
0.446239
0.488779
0.534276
0.627291
1.13766
2.07111
0.972273
0.318297
0.183678
0.159703
0.15469
0.152717
0.152019
0.153301
0.156191
0.15854
0.160407
0.161412
0.161889
0.161953
0.160632
0.158292
0.155451
0.153026
0.14967
0.146653
0.143599
0.140068
0.136447
0.133471
0.130152
0.128135
0.126765
0.125653
0.125147
0.124923
0.125006
0.125104
0.125127
0.125145
0.125232
0.125561
0.126457
0.128768
0.133381
0.138707
0.141271
0.141075
0.139509
0.135453
0.130623
0.127286
0.126512
0.127454
0.131382
0.133447
0.133284
0.129495
0.120507
0.114501
0.102048
0.0853002
0.0756954
0.0725361
0.0730976
0.0768477
0.0891931
0.126604
0.169221
0.176049
0.17169
0.170315
0.178055
0.196126
0.195896
0.191877
0.187881
0.179537
0.15417
0.131357
0.125237
0.130755
0.182697
0.427876
0.762298
0.593953
0.257011
0.177683
0.152937
0.141072
0.136656
0.140168
0.269951
0.179211
0.165648
0.175973
0.195765
0.197791
0.196496
0.198911
0.202454
0.201182
0.186283
0.163097
0.158746
0.167977
0.219862
0.268441
0.294507
0.30595
0.311425
0.314472
0.295796
0.276414
0.261648
0.249348
0.242844
0.229422
0.208444
0.165944
0.132228
0.118039
0.111118
0.106237
0.10213
0.100293
0.0999557
0.102124
0.105086
0.107868
0.111348
0.114315
0.116384
0.117399
0.117839
0.11792
0.117154
0.115794
0.114117
0.112208
0.110227
0.109228
0.108745
0.1086
0.108761
0.10923
0.110176
0.11157
0.11325
0.115499
0.118406
0.121686
0.125595
0.13175
0.139307
0.144437
0.146793
0.148013
0.148171
0.148918
0.152354
0.164289
0.199671
0.27406
0.33239
0.362779
0.377641
0.383871
0.383522
0.37642
0.349306
0.322061
0.318934
0.324675
0.348944
0.421517
0.449028
0.438675
0.40851
0.414677
0.4499
0.534952
0.668088
0.935214
1.30581
1.22088
0.415582
0.201943
0.164543
0.160469
0.160655
0.168456
0.173116
0.177156
0.178692
0.179067
0.178523
0.177133
0.176095
0.175716
0.175516
0.175278
0.175105
0.175074
0.174604
0.173048
0.170887
0.167087
0.16128
0.15234
0.144413
0.137129
0.132915
0.128242
0.125942
0.124797
0.124122
0.12403
0.123883
0.123819
0.123877
0.124259
0.125467
0.128904
0.13908
0.15128
0.160689
0.166397
0.168995
0.169695
0.168974
0.164353
0.155377
0.148478
0.145879
0.146513
0.150385
0.15123
0.150313
0.146737
0.135833
0.125619
0.113692
0.0955055
0.0820239
0.0769563
0.0769445
0.0806571
0.0950575
0.102626
0.102276
0.0991815
0.0990086
0.102812
0.103427
0.101138
0.102353
0.117291
0.124928
0.121247
0.119289
0.148617
0.296426
0.558734
0.692021
0.387468
0.202633
0.171287
0.163289
0.183496
0.210884
0.224918
0.234572
0.166617
0.16668
0.22513
0.238102
0.233613
0.227433
0.220371
0.197829
0.183101
0.178317
0.193035
0.234712
0.265485
0.279613
0.287099
0.290145
0.285229
0.263837
0.24387
0.230375
0.216177
0.204577
0.189239
0.178725
0.162968
0.149893
0.129467
0.118593
0.114045
0.111668
0.110574
0.11058
0.114158
0.118669
0.124138
0.131047
0.137954
0.145178
0.151107
0.155403
0.158036
0.15909
0.159236
0.156968
0.152873
0.147502
0.13991
0.131228
0.122628
0.116469
0.111669
0.109409
0.108557
0.108416
0.109538
0.11076
0.112067
0.113939
0.115845
0.117807
0.120659
0.124441
0.133252
0.142369
0.146736
0.148071
0.14843
0.150878
0.160647
0.195517
0.276462
0.343082
0.374374
0.383042
0.38759
0.391247
0.39148
0.388217
0.372729
0.336948
0.32712
0.330677
0.357408
0.388561
0.385395
0.3871
0.415002
0.476211
0.612111
0.827312
1.02085
1.14407
0.528439
0.239418
0.173469
0.165508
0.166811
0.176973
0.181318
0.18339
0.184379
0.184613
0.183908
0.183191
0.181273
0.178274
0.177004
0.176338
0.176129
0.176214
0.17708
0.178026
0.178377
0.178131
0.176655
0.173187
0.166497
0.157081
0.146562
0.141211
0.134292
0.128608
0.125346
0.123772
0.123064
0.122808
0.122706
0.122733
0.123082
0.124436
0.128611
0.140654
0.154728
0.165769
0.173242
0.178207
0.182983
0.188332
0.191716
0.191478
0.184526
0.163794
0.151495
0.148724
0.149003
0.152667
0.157816
0.158286
0.157405
0.154479
0.147155
0.127408
0.0983637
0.0844673
0.0797843
0.0791751
0.0787494
0.0775374
0.0755518
0.0742843
0.0736565
0.0718583
0.0627191
0.0512811
0.0517543
0.0583728
0.0598486
0.0674923
0.133563
0.359332
0.569199
0.55283
0.277984
0.187788
0.176978
0.197479
0.221077
0.235722
0.243919
0.225218
0.166902
0.190766
0.242964
0.241707
0.228278
0.209125
0.197997
0.19784
0.208425
0.240287
0.262448
0.271309
0.275196
0.276203
0.26994
0.248785
0.226719
0.210517
0.200029
0.191212
0.178649
0.168554
0.156498
0.14853
0.139848
0.134251
0.124979
0.120688
0.119432
0.120762
0.127202
0.136913
0.152217
0.165521
0.176155
0.186559
0.191936
0.195226
0.197494
0.198437
0.198741
0.198743
0.197852
0.196861
0.194927
0.19222
0.188052
0.181561
0.171813
0.157029
0.141677
0.126921
0.118949
0.114274
0.111663
0.110692
0.110962
0.111817
0.113631
0.115527
0.117397
0.118588
0.122028
0.133689
0.143673
0.149067
0.149749
0.150916
0.157545
0.182063
0.26666
0.345205
0.378149
0.382204
0.37721
0.377295
0.383856
0.388987
0.387507
0.375604
0.344825
0.340087
0.354849
0.370697
0.367538
0.384294
0.413578
0.489672
0.66787
0.824962
0.904654
0.632051
0.286218
0.18946
0.171438
0.169913
0.180905
0.186712
0.190782
0.19374
0.195021
0.195305
0.193114
0.189675
0.18708
0.182154
0.178262
0.176231
0.175365
0.175229
0.175795
0.177604
0.179389
0.179801
0.179699
0.177885
0.172598
0.16287
0.149973
0.144098
0.138016
0.131868
0.126932
0.123899
0.1224
0.121765
0.12153
0.121519
0.121808
0.123107
0.127799
0.140401
0.154637
0.165935
0.173767
0.178955
0.183731
0.190372
0.199204
0.207301
0.210316
0.208505
0.193304
0.164759
0.152756
0.151296
0.152586
0.157694
0.161771
0.162442
0.161512
0.156964
0.143463
0.11123
0.0902664
0.0818606
0.0770192
0.0741444
0.0728033
0.0721324
0.0716424
0.0706801
0.0669828
0.0527499
0.0377621
0.0358075
0.0368796
0.0507233
0.145432
0.393028
0.537595
0.442423
0.229186
0.187756
0.1941
0.220807
0.237558
0.256561
0.269246
0.222304
0.177997
0.206522
0.243638
0.24043
0.229043
0.225775
0.229503
0.24695
0.260787
0.266085
0.267983
0.268295
0.26266
0.245625
0.219307
0.20299
0.19031
0.18158
0.174523
0.167247
0.158185
0.151454
0.144721
0.140364
0.136877
0.133037
0.12973
0.129639
0.136939
0.151997
0.171288
0.184222
0.193543
0.200498
0.204577
0.206471
0.207211
0.207392
0.207145
0.206481
0.206143
0.205357
0.204731
0.204169
0.203118
0.201902
0.20019
0.197768
0.194142
0.188385
0.179569
0.16656
0.148633
0.13506
0.124644
0.116398
0.111902
0.10952
0.108249
0.11
0.112986
0.114203
0.11566
0.120476
0.134554
0.14755
0.151675
0.15153
0.156282
0.174389
0.239957
0.337618
0.378337
0.381422
0.362132
0.340909
0.34635
0.371949
0.382068
0.379118
0.361507
0.354833
0.359134
0.355415
0.3564
0.389528
0.399856
0.4987
0.630249
0.685158
0.581461
0.329825
0.209244
0.178498
0.174162
0.181932
0.192424
0.196836
0.204268
0.210004
0.212759
0.213819
0.213336
0.207814
0.201945
0.194236
0.185892
0.17753
0.173696
0.172199
0.172079
0.173996
0.178452
0.180128
0.180356
0.179552
0.175484
0.166326
0.151331
0.144634
0.138845
0.132704
0.127396
0.123903
0.121855
0.120841
0.120418
0.120365
0.120634
0.122469
0.127803
0.14004
0.153216
0.164112
0.171925
0.177103
0.181431
0.18706
0.195997
0.207488
0.218089
0.223625
0.223393
0.214596
0.182011
0.159653
0.152972
0.152941
0.156312
0.161388
0.163168
0.162815
0.159389
0.146846
0.116693
0.0934414
0.0813212
0.0757766
0.0736389
0.07316
0.0734277
0.0735683
0.0730817
0.0679039
0.049295
0.0387484
0.0385378
0.0523063
0.158256
0.398537
0.484667
0.366339
0.209543
0.189619
0.212818
0.234864
0.261013
0.286039
0.298792
0.220773
0.18252
0.222008
0.243742
0.245421
0.246788
0.250307
0.256987
0.261654
0.263428
0.263796
0.260037
0.247799
0.220576
0.201231
0.188545
0.179387
0.170035
0.165391
0.160287
0.155203
0.149846
0.146492
0.143186
0.140375
0.138765
0.138238
0.14268
0.156359
0.175406
0.189331
0.198473
0.204211
0.207087
0.20852
0.209
0.209029
0.208373
0.207621
0.206859
0.206447
0.205823
0.205031
0.204047
0.203113
0.202027
0.20115
0.200272
0.199035
0.197733
0.19557
0.191522
0.184677
0.173112
0.160321
0.14852
0.133261
0.120411
0.112069
0.106435
0.102792
0.101826
0.105557
0.108514
0.109812
0.11944
0.13871
0.151212
0.150959
0.154775
0.172257
0.213217
0.315532
0.375578
0.382746
0.362096
0.313892
0.306252
0.328382
0.364852
0.370315
0.361566
0.355857
0.349336
0.334572
0.361421
0.378052
0.380611
0.461577
0.498439
0.484368
0.355968
0.231128
0.188303
0.179515
0.18084
0.195718
0.202567
0.209402
0.218348
0.224826
0.227751
0.228862
0.228855
0.224155
0.216838
0.20812
0.198531
0.188796
0.176277
0.170909
0.169683
0.169718
0.173596
0.17903
0.180292
0.179784
0.17631
0.167583
0.151608
0.143673
0.138706
0.132691
0.127182
0.12293
0.120478
0.119237
0.118754
0.118751
0.119526
0.122457
0.130312
0.140345
0.150904
0.160043
0.167218
0.171381
0.174405
0.177146
0.183396
0.196178
0.211365
0.225171
0.233155
0.233945
0.228372
0.19894
0.167312
0.155232
0.152809
0.154243
0.159824
0.162712
0.162569
0.159061
0.144327
0.115314
0.0939777
0.0824157
0.0775361
0.0763154
0.0764095
0.0775607
0.0781348
0.0774258
0.0701562
0.0492229
0.0446122
0.0567274
0.163957
0.388131
0.440947
0.319533
0.203276
0.195088
0.225142
0.254816
0.289638
0.3137
0.32663
0.220647
0.185268
0.22821
0.243395
0.245499
0.249168
0.253504
0.257287
0.258753
0.258213
0.250903
0.231517
0.207397
0.190358
0.180135
0.173241
0.165858
0.159919
0.157212
0.154121
0.151073
0.148364
0.146465
0.144203
0.143394
0.145711
0.153578
0.169443
0.183851
0.195715
0.202594
0.20674
0.210011
0.211628
0.212903
0.213478
0.213872
0.214284
0.215561
0.216678
0.217145
0.217015
0.215639
0.213698
0.211153
0.20763
0.204132
0.200598
0.197997
0.195473
0.193939
0.192534
0.190306
0.185577
0.173059
0.161193
0.152887
0.141901
0.125133
0.111867
0.101338
0.0945546
0.0934083
0.096575
0.102248
0.107397
0.12203
0.145929
0.149611
0.152247
0.171911
0.198617
0.280446
0.366344
0.38758
0.37447
0.315547
0.286988
0.288963
0.320537
0.349936
0.351566
0.344811
0.320641
0.326638
0.374758
0.337704
0.350006
0.388534
0.397291
0.34971
0.253677
0.202404
0.186888
0.184044
0.196979
0.207851
0.213183
0.220491
0.228421
0.233411
0.235495
0.236227
0.236181
0.231829
0.22432
0.214519
0.203802
0.194639
0.182379
0.170568
0.167689
0.167624
0.170583
0.176265
0.1785
0.177768
0.174989
0.166546
0.149334
0.140423
0.136265
0.130606
0.124823
0.120894
0.118709
0.117665
0.11735
0.117584
0.119128
0.124366
0.132895
0.14057
0.147672
0.153821
0.159216
0.161844
0.163125
0.165942
0.17076
0.179885
0.194166
0.211626
0.228774
0.239938
0.242015
0.238321
0.215635
0.175226
0.157673
0.153388
0.153909
0.158531
0.162369
0.162079
0.157267
0.136924
0.109816
0.0929498
0.0833547
0.0787952
0.0777146
0.0780849
0.0802459
0.0810635
0.0792871
0.0655031
0.0564566
0.0658625
0.164577
0.369807
0.405871
0.292018
0.201796
0.202636
0.235772
0.271946
0.306686
0.328042
0.345804
0.22237
0.185952
0.231812
0.243337
0.244976
0.248488
0.251861
0.253102
0.251399
0.242409
0.22422
0.205144
0.186355
0.176189
0.170248
0.164912
0.159256
0.15582
0.154206
0.152352
0.150459
0.148774
0.147959
0.147807
0.151309
0.162657
0.175945
0.189696
0.199301
0.206151
0.211602
0.215527
0.218854
0.220941
0.223315
0.225376
0.228031
0.230662
0.233187
0.234433
0.234911
0.23475
0.233079
0.230776
0.227633
0.223895
0.219869
0.214891
0.209195
0.201987
0.195124
0.192029
0.190678
0.189754
0.18479
0.173047
0.16113
0.154467
0.144276
0.126079
0.106033
0.0934068
0.0870706
0.0866623
0.0911237
0.100154
0.109959
0.133666
0.148294
0.15096
0.173118
0.195349
0.239661
0.344419
0.387629
0.387495
0.344222
0.290813
0.279697
0.286303
0.30649
0.315298
0.30635
0.304348
0.343182
0.369399
0.298905
0.311884
0.330414
0.327231
0.275378
0.216803
0.193459
0.187897
0.194365
0.211976
0.219377
0.223598
0.228869
0.234043
0.236902
0.237899
0.238133
0.237583
0.233761
0.226609
0.216804
0.205693
0.197098
0.185165
0.171128
0.166512
0.166398
0.168619
0.174098
0.176132
0.174628
0.170881
0.160795
0.146421
0.138881
0.134331
0.127703
0.121816
0.118465
0.116703
0.116131
0.116228
0.117019
0.119687
0.126495
0.13355
0.139791
0.143625
0.147089
0.149024
0.152437
0.157355
0.162774
0.168586
0.175389
0.184032
0.195623
0.211823
0.230794
0.244569
0.248301
0.245797
0.229192
0.183591
0.160314
0.154894
0.155397
0.159975
0.162912
0.161839
0.153386
0.125474
0.101729
0.0878575
0.0804848
0.0779552
0.0779387
0.0794618
0.0823965
0.082426
0.075849
0.0676363
0.0748088
0.159762
0.349376
0.377793
0.277001
0.201939
0.209024
0.244267
0.284612
0.318696
0.342418
0.361733
0.223092
0.183979
0.232797
0.242713
0.244197
0.24676
0.247769
0.245661
0.236939
0.223251
0.206172
0.1892
0.175847
0.16975
0.16579
0.161514
0.15716
0.154926
0.153782
0.152309
0.15107
0.150589
0.152066
0.157449
0.168199
0.180287
0.190734
0.199636
0.206662
0.213279
0.219073
0.223086
0.226119
0.228257
0.230528
0.232924
0.236668
0.239994
0.2431
0.244658
0.245297
0.245063
0.242951
0.239544
0.235388
0.230957
0.226695
0.222444
0.218299
0.214015
0.206504
0.1968
0.192279
0.190508
0.189583
0.184123
0.17154
0.160997
0.153733
0.139217
0.116017
0.0952489
0.084993
0.0820598
0.0825302
0.0916224
0.105267
0.120453
0.145282
0.15891
0.185583
0.196798
0.213111
0.306629
0.38066
0.392294
0.373992
0.308886
0.282527
0.279711
0.282893
0.286924
0.290093
0.308256
0.368635
0.328014
0.271446
0.278038
0.283564
0.272156
0.23811
0.203776
0.190799
0.18776
0.195396
0.215246
0.223877
0.228354
0.232129
0.235261
0.237229
0.237929
0.237935
0.236318
0.231445
0.223435
0.213707
0.203681
0.197565
0.185856
0.17158
0.16614
0.165963
0.167383
0.171915
0.172638
0.171558
0.167498
0.155444
0.141353
0.135702
0.132197
0.124976
0.118548
0.115997
0.115415
0.115465
0.115802
0.116902
0.120977
0.127259
0.132952
0.136885
0.138817
0.139701
0.141685
0.147383
0.155816
0.162513
0.16847
0.174876
0.181921
0.189874
0.197605
0.210766
0.230812
0.246594
0.252444
0.250996
0.237588
0.190969
0.163279
0.157411
0.15874
0.163898
0.164571
0.161418
0.143496
0.111784
0.0921892
0.081837
0.077403
0.076481
0.0771686
0.0808604
0.0832099
0.0810684
0.0757998
0.0812821
0.150465
0.326324
0.354929
0.272965
0.202884
0.211978
0.252165
0.292866
0.327747
0.352457
0.367369
0.227514
0.178851
0.23259
0.241417
0.242165
0.242391
0.239486
0.234172
0.225093
0.211178
0.19632
0.182084
0.171541
0.167019
0.163985
0.16073
0.157244
0.155018
0.153908
0.152954
0.152718
0.154392
0.160099
0.169647
0.180589
0.189438
0.198516
0.206933
0.214567
0.221811
0.226486
0.229147
0.231057
0.233723
0.237787
0.243454
0.249513
0.254478
0.257909
0.259477
0.259974
0.259034
0.257096
0.253783
0.248497
0.241064
0.233311
0.226462
0.221608
0.217634
0.213208
0.204056
0.193477
0.189333
0.190163
0.189037
0.18298
0.171367
0.164483
0.1526
0.127318
0.100798
0.0849575
0.0792018
0.0788344
0.0840964
0.102318
0.113713
0.139789
0.16932
0.193017
0.199952
0.204475
0.262645
0.362547
0.392522
0.390316
0.350318
0.296494
0.28181
0.280614
0.282993
0.293179
0.344253
0.367753
0.273559
0.244094
0.248663
0.249182
0.231111
0.212641
0.194366
0.187762
0.186235
0.193526
0.213355
0.223319
0.228322
0.231967
0.234736
0.236492
0.236799
0.235921
0.232669
0.225031
0.214806
0.204547
0.197407
0.192507
0.181363
0.169978
0.165897
0.165523
0.166561
0.169447
0.169202
0.167341
0.161419
0.146797
0.136668
0.132889
0.128261
0.119662
0.11537
0.114902
0.115088
0.115309
0.115738
0.11704
0.121496
0.127191
0.130375
0.131376
0.132096
0.133314
0.136115
0.14505
0.156238
0.164417
0.169376
0.174429
0.180549
0.188088
0.19433
0.198757
0.20662
0.227008
0.245782
0.253718
0.253155
0.241491
0.19489
0.166293
0.161805
0.164559
0.168416
0.167628
0.159011
0.127948
0.099816
0.0835335
0.074847
0.0717456
0.0716256
0.0753866
0.0820304
0.0824423
0.0810121
0.085203
0.139642
0.301675
0.33633
0.272712
0.205206
0.212275
0.253132
0.298703
0.334366
0.359397
0.368085
0.234511
0.172819
0.230322
0.238655
0.238655
0.237231
0.23464
0.22791
0.218527
0.20667
0.19325
0.179741
0.169831
0.165766
0.16351
0.161014
0.15779
0.155544
0.154689
0.154518
0.156118
0.160726
0.168204
0.177932
0.187483
0.195462
0.204204
0.211821
0.218755
0.224766
0.2282
0.231204
0.234098
0.239494
0.245728
0.252518
0.258526
0.261999
0.264062
0.264809
0.264689
0.263475
0.261567
0.258939
0.255317
0.249771
0.241549
0.232572
0.224357
0.219162
0.215036
0.208704
0.198155
0.187535
0.18576
0.187856
0.185913
0.177719
0.171223
0.163009
0.142932
0.111412
0.088368
0.0789647
0.0774677
0.0803046
0.0974162
0.110906
0.123235
0.160766
0.193062
0.203095
0.202948
0.221817
0.328842
0.385764
0.392894
0.382802
0.337995
0.298706
0.289009
0.293103
0.327626
0.365547
0.346837
0.233046
0.214715
0.217786
0.218034
0.20302
0.193605
0.184337
0.180622
0.180456
0.186192
0.203111
0.217569
0.224808
0.229119
0.231776
0.232909
0.232076
0.229024
0.221013
0.209906
0.201171
0.194488
0.192141
0.187777
0.177076
0.166959
0.163936
0.163931
0.165382
0.166483
0.16577
0.16271
0.153528
0.139218
0.133795
0.130987
0.124722
0.11618
0.114064
0.114641
0.115153
0.115374
0.11574
0.11709
0.121688
0.124925
0.124784
0.124791
0.125405
0.127341
0.132542
0.144936
0.157048
0.165309
0.170147
0.17313
0.177324
0.183836
0.191201
0.196507
0.199841
0.205156
0.220718
0.24387
0.25296
0.252614
0.240603
0.193689
0.169675
0.168154
0.171829
0.173063
0.16915
0.146744
0.110045
0.0870006
0.0727892
0.0665438
0.0655093
0.0673708
0.077205
0.0821106
0.0830164
0.0869557
0.128159
0.274464
0.319324
0.27352
0.210108
0.212815
0.250867
0.298791
0.338778
0.362322
0.368321
0.249957
0.163791
0.227058
0.237089
0.2373
0.233496
0.227528
0.220706
0.212329
0.203037
0.192728
0.180909
0.170411
0.166076
0.163827
0.161829
0.159293
0.157213
0.156753
0.157426
0.1602
0.166661
0.175316
0.184875
0.192532
0.199487
0.207262
0.214581
0.221477
0.227157
0.23095
0.233722
0.236927
0.241703
0.247594
0.253651
0.259271
0.263172
0.265744
0.26653
0.266066
0.264699
0.262642
0.260025
0.256877
0.252252
0.244677
0.235107
0.226219
0.219785
0.215362
0.209563
0.200146
0.188386
0.180016
0.180227
0.182314
0.178593
0.172277
0.165074
0.148041
0.124476
0.0974838
0.0818303
0.0775969
0.0785135
0.0880804
0.107002
0.11696
0.136589
0.181221
0.203108
0.203443
0.205482
0.280545
0.366587
0.390174
0.388661
0.372323
0.346706
0.331933
0.339736
0.358602
0.360447
0.27401
0.203985
0.196092
0.194986
0.189683
0.178617
0.174746
0.171414
0.170125
0.170443
0.173662
0.18111
0.194254
0.206084
0.213814
0.217813
0.217616
0.214962
0.208283
0.200898
0.194874
0.190841
0.18944
0.187033
0.181516
0.169692
0.163515
0.162379
0.16261
0.163869
0.163516
0.161737
0.156366
0.142821
0.13463
0.13102
0.126667
0.117133
0.112949
0.113482
0.114978
0.115641
0.115685
0.115773
0.117454
0.120436
0.120239
0.120286
0.12113
0.122732
0.125667
0.13297
0.146032
0.157013
0.164684
0.169006
0.170729
0.172304
0.17612
0.183809
0.191239
0.196194
0.199412
0.20481
0.220869
0.244965
0.252644
0.251334
0.235086
0.188319
0.174967
0.175745
0.178282
0.176721
0.164719
0.126701
0.0939598
0.074254
0.0634024
0.0604715
0.061097
0.0690142
0.0798675
0.0823897
0.0868597
0.117644
0.24663
0.303239
0.275903
0.215907
0.214053
0.245052
0.296571
0.337932
0.361767
0.367994
0.290903
0.144289
0.220543
0.235095
0.235026
0.231659
0.225245
0.217455
0.209656
0.202309
0.193797
0.183994
0.17259
0.167298
0.164758
0.162958
0.160902
0.159263
0.159124
0.159769
0.162037
0.167247
0.176065
0.186197
0.194371
0.200299
0.207102
0.214101
0.220978
0.226789
0.230881
0.234131
0.236923
0.240932
0.246166
0.25161
0.25684
0.260585
0.263462
0.264142
0.263763
0.262772
0.260795
0.257742
0.255196
0.252125
0.245328
0.235546
0.226501
0.219411
0.213741
0.208342
0.20022
0.188838
0.177474
0.172674
0.17329
0.173502
0.170624
0.16451
0.148593
0.128951
0.1107
0.0899313
0.0799968
0.0784875
0.081134
0.0960101
0.112343
0.123877
0.157913
0.198022
0.205984
0.202407
0.224403
0.329598
0.377353
0.385507
0.378988
0.368672
0.360726
0.358143
0.356107
0.31876
0.20897
0.181852
0.184695
0.184806
0.175476
0.163342
0.158982
0.157079
0.157099
0.158
0.161269
0.16605
0.172487
0.1804
0.187184
0.191513
0.192514
0.191745
0.190101
0.187714
0.186248
0.185344
0.183806
0.180497
0.171844
0.16364
0.160885
0.160604
0.16103
0.160899
0.159959
0.156592
0.146981
0.1357
0.130709
0.127747
0.120639
0.112474
0.111896
0.113524
0.115748
0.11604
0.116074
0.116311
0.117983
0.117464
0.117348
0.118789
0.120582
0.122544
0.126593
0.136765
0.148374
0.156454
0.161172
0.163515
0.16485
0.166138
0.167967
0.172708
0.180647
0.187947
0.193301
0.197529
0.205711
0.229879
0.249979
0.253241
0.249362
0.221472
0.187148
0.182318
0.18334
0.182893
0.176276
0.147474
0.106393
0.0787313
0.0632323
0.0570813
0.0567295
0.060998
0.0750171
0.0806484
0.0857557
0.108787
0.217325
0.285979
0.274883
0.2235
0.215844
0.235167
0.289633
0.334516
0.359667
0.366743
0.386116
0.131805
0.189486
0.229938