/*--------------------------------*- C++ -*----------------------------------*\
| =========                 |                                                 |
| \\      /  F ield         | OpenFOAM: The Open Source CFD Toolbox           |
|  \\    /   O peration     | Version:  2112                                  |
|   \\  /    A nd           | Website:  www.openfoam.com                      |
|    \\/     M anipulation  |                                                 |
\*---------------------------------------------------------------------------*/
FoamFile
{
    version     2.0;
    format      ascii;
    arch        "LSB;label=32;scalar=64";
    class       volScalarField;
    location    "0.09";
    object      yPlus;
}
// * * * * * * * * * * * * * * * * * * * * * * * * * * * * * * * * * * * * * //

dimensions      [0 0 0 0 0 0 0];

internalField   uniform 0;

boundaryField
{
    inlet
    {
        type            calculated;
        value           uniform 0;
    }
    outlet
    {
        type            calculated;
        value           uniform 0;
    }
    upperWall
    {
        type            calculated;
        value           nonuniform List<scalar> 
223
(
14.4346
14.3339
14.2275
14.1172
14.0098
13.9079
13.8113
13.7193
13.6318
13.5488
13.4699
13.3954
13.3246
13.2578
13.1941
13.1343
13.0768
13.0236
12.9759
12.9331
12.8904
12.8477
12.805
12.7623
12.7197
12.6771
12.6346
12.5922
12.55
12.5079
12.4661
12.4244
12.3829
12.3416
12.3003
12.2592
12.2182
12.1772
12.1364
12.0958
12.0553
12.0149
11.9748
11.9349
11.8952
11.8558
11.8166
11.7777
11.7392
11.701
11.6632
11.6257
11.5886
11.5519
11.5157
11.4799
11.4445
11.4096
11.3752
11.3412
11.3076
11.2746
11.2419
11.2097
11.1779
11.1464
11.1153
11.0845
11.054
11.0238
10.9937
10.9638
10.9339
10.9041
10.8743
10.8444
10.8144
10.7842
10.7537
10.7228
10.6915
10.6597
10.6273
10.5942
10.5602
10.5254
10.4895
10.4524
10.414
10.3741
10.3326
10.2892
10.2438
10.1962
10.1461
10.0932
10.0373
9.97784
9.91463
9.84715
9.77492
9.69727
9.61351
9.52276
9.42401
9.31596
9.19721
9.06558
8.91908
8.75414
8.56697
8.35348
8.10297
7.81346
7.46237
7.03154
6.52631
5.81154
4.80509
3.7148
2.8162
2.30502
2.0986
2.00936
1.84742
1.45369
0.871214
0.661775
1.13277
1.36289
1.50068
1.58723
1.63773
1.6677
1.68756
1.69285
1.67994
1.66047
1.63355
1.59837
1.55969
1.51098
1.45081
1.38039
1.29712
1.20524
1.11411
1.03873
0.990312
0.962503
0.937141
0.885222
0.752669
0.370752
0.783292
1.33814
1.8722
2.41666
2.96785
3.50101
3.96899
4.29994
4.41846
4.3312
4.13835
3.94588
3.83793
3.86147
3.9724
4.04235
3.9014
3.33004
2.20856
1.18337
2.58236
3.34259
3.87785
4.28889
4.61831
4.88796
5.11032
5.2934
5.44253
5.56147
5.65296
5.71905
5.76131
5.781
5.77911
5.75724
5.71546
5.65362
5.5718
5.46991
5.34877
5.21238
5.03487
4.71496
4.488
4.40041
4.10443
3.71541
3.2148
2.54018
1.50278
1.47291
2.58601
3.33122
3.90067
4.33222
4.65424
4.86384
4.99816
5.04082
5.05048
4.98593
4.93737
4.81186
4.76312
4.60985
4.61935
4.44951
4.53423
)
;
    }
    lowerWall
    {
        type            calculated;
        value           nonuniform List<scalar> 
250
(
12.5296
12.363
12.1916
12.0193
11.8547
11.6999
11.5545
11.4174
11.2892
11.1685
11.0576
10.9518
10.8583
10.7646
10.6896
10.6045
10.55
10.4714
2.03628
2.46012
1.83886
1.72383
1.48577
2.99683
4.55865
5.24198
5.63871
5.78706
5.77359
5.60879
5.30144
4.83333
4.18767
3.27174
1.95928
1.96177
2.93355
3.57678
3.79204
4.11589
3.81527
4.19901
3.17407
4.26961
3.95008
1.39322
3.21035
3.68906
3.96889
3.81057
3.42841
3.25102
3.86443
4.76156
5.59851
6.31749
6.92437
7.43143
7.8519
8.1982
8.47869
8.70078
8.86848
8.98698
9.05468
9.07803
9.04754
8.95814
8.80477
8.57961
8.27031
7.86089
7.32912
6.64891
5.78165
4.75707
3.39215
3.30947
4.23069
4.7963
4.9495
4.72368
4.18153
3.43416
2.99274
3.25357
3.53385
3.50965
3.26258
2.5945
3.81673
12.035
13.788
15.0676
16.0762
16.9029
17.6029
18.2007
18.7219
19.1802
19.587
19.952
20.281
20.5809
20.8551
21.1086
21.3438
21.5645
21.7722
21.9694
22.1574
22.3385
22.5136
22.6843
22.8513
23.0157
23.1784
23.3398
23.5009
23.6618
23.8233
23.9854
24.1486
24.3129
24.4786
24.6457
24.814
24.9837
25.1545
25.3262
25.4987
25.6715
25.8443
26.0167
26.1882
26.3585
26.5268
26.6927
26.8556
27.0149
27.17
27.3204
27.4656
27.6054
27.7397
27.8685
27.9923
28.1126
28.228
28.3347
28.4334
28.5233
28.6033
28.6734
28.7328
28.7809
28.8172
28.8408
28.8511
28.848
28.8321
28.8007
28.7547
28.695
28.6189
28.5273
28.4196
28.2948
28.1487
27.9732
27.7816
27.5683
27.3333
27.0791
26.8056
26.5127
26.201
25.8778
25.5392
25.1875
24.8868
24.7676
24.7687
24.7769
24.7747
24.7602
24.7273
24.6807
24.6244
24.555
24.4642
24.3719
24.2798
24.1873
24.0939
24.0006
23.9088
23.818
23.7275
23.6387
23.5494
23.4604
23.3731
23.2859
23.1945
23.1062
23.0035
22.9052
22.7865
22.6687
22.5208
22.3792
22.1951
22.0133
21.7553
21.5057
21.1379
20.7926
20.2655
19.7931
19.0459
18.3604
17.2875
16.3561
14.3475
11.9975
10.6043
10.5469
10.4344
10.4045
10.4364
10.4865
10.5443
10.6145
10.6829
10.7497
10.8119
10.8952
10.9837
11.1226
11.2607
11.4812
11.6651
11.9664
12.1437
12.4975
12.5872
12.9865
12.9191
13.4253
)
;
    }
    frontAndBack
    {
        type            empty;
    }
}


// ************************************************************************* //
