/*--------------------------------*- C++ -*----------------------------------*\
| =========                 |                                                 |
| \\      /  F ield         | OpenFOAM: The Open Source CFD Toolbox           |
|  \\    /   O peration     | Version:  2112                                  |
|   \\  /    A nd           | Website:  www.openfoam.com                      |
|    \\/     M anipulation  |                                                 |
\*---------------------------------------------------------------------------*/
FoamFile
{
    version     2.0;
    format      ascii;
    arch        "LSB;label=32;scalar=64";
    class       volScalarField;
    location    "0.21";
    object      ddt0(kU);
}
// * * * * * * * * * * * * * * * * * * * * * * * * * * * * * * * * * * * * * //

dimensions      [0 2 -3 0 0 0 0];

internalField   nonuniform List<scalar> 
12225
(
-0.00257234
-0.0359988
-0.142145
-0.353699
-0.693272
-1.69462
-3.0525
-3.91657
-5.0497
-6.53691
-8.4863
-11.06
-14.4377
-18.8048
-24.3969
-31.5412
-40.7526
-52.4279
0.0183276
0.070239
0.147946
0.250481
0.388383
0.554265
0.76113
1.05796
1.45929
1.97771
2.66089
3.57485
4.75652
6.26698
8.21365
10.7817
14.3246
19.5702
-0.000213246
0.00648952
0.017484
0.0456987
0.0942936
0.167343
0.269353
0.412199
0.613539
0.887504
1.26086
1.76981
2.44328
3.33634
4.47892
5.96077
7.98335
10.9859
-0.000908287
-0.00534083
-0.0092114
-0.0111631
-0.0117751
-0.0216744
-0.0257549
-0.0239317
-0.0141162
0.00917438
0.0564459
0.145975
0.297968
0.540559
0.907889
1.44876
2.23048
3.30808
0.000229825
-0.00575624
-0.0144858
-0.0242423
-0.0345828
-0.0469832
-0.061054
-0.0780657
-0.10962
-0.135775
-0.160395
-0.193478
-0.230673
-0.267326
-0.295576
-0.303498
-0.275954
-0.190737
0.00123854
-0.00406145
-0.01347
-0.0253137
-0.0390821
-0.0550076
-0.0730406
-0.0941419
-0.12057
-0.152691
-0.194192
-0.259851
-0.317136
-0.374861
-0.435623
-0.502206
-0.578042
-0.664005
0.00197792
-0.00216106
-0.0108278
-0.0225459
-0.036925
-0.0540538
-0.0741738
-0.0977685
-0.126554
-0.160662
-0.202889
-0.254865
-0.313527
-0.378453
-0.44854
-0.521872
-0.597526
-0.676102
0.00254278
-0.000485659
-0.00808312
-0.0188504
-0.0325423
-0.0492451
-0.0691294
-0.0922856
-0.119565
-0.152061
-0.191005
-0.23951
-0.294716
-0.355702
-0.421572
-0.490505
-0.560529
-0.630073
0.00298999
0.00103956
-0.00544041
-0.0151241
-0.0277871
-0.0434912
-0.0622794
-0.084079
-0.109097
-0.138023
-0.170875
-0.20906
-0.254078
-0.306232
-0.364584
-0.427317
-0.492199
-0.556562
0.00332236
0.00247927
-0.0027654
-0.0112676
-0.0227918
-0.0373539
-0.0549219
-0.0754034
-0.0987868
-0.125314
-0.154799
-0.187462
-0.224437
-0.266459
-0.313451
-0.364692
-0.419024
-0.474532
0.00353897
0.00383339
-0.000117499
-0.00737003
-0.0176291
-0.0308468
-0.046947
-0.065844
-0.0875187
-0.112078
-0.13944
-0.169469
-0.202227
-0.2377
-0.275605
-0.315497
-0.356876
-0.399009
0.00367764
0.00495067
0.00207474
-0.00408928
-0.0131217
-0.0249048
-0.0393427
-0.056354
-0.0759285
-0.0981226
-0.122886
-0.150046
-0.179351
-0.210357
-0.242412
-0.274822
-0.306991
-0.338536
0.00376411
0.00575107
0.00370519
-0.00147426
-0.00924924
-0.0194597
-0.0320206
-0.0468679
-0.0639898
-0.0833981
-0.10502
-0.128682
-0.154087
-0.180707
-0.2078
-0.234574
-0.260301
-0.284593
0.00338459
0.00603569
0.00494531
0.00102329
-0.00508967
-0.0132224
-0.0233373
-0.0354019
-0.049391
-0.0652619
-0.0828892
-0.102051
-0.122412
-0.143462
-0.164545
-0.184962
-0.204036
-0.221406
0.00446211
0.00698934
0.00665996
0.00401777
-0.000376628
-0.00634116
-0.0138223
-0.022762
-0.0330923
-0.04472
-0.0574867
-0.0711504
-0.0853807
-0.0997473
-0.113744
-0.12684
-0.138522
-0.148507
0.00333712
0.0070425
0.00715899
0.00597777
0.00359917
0.000107781
-0.00441229
-0.00982931
-0.015989
-0.0227279
-0.029858
-0.0371569
-0.0443739
-0.0512324
-0.0574238
-0.0625857
-0.0661814
-0.0674773
0.00207843
0.00444044
0.00482302
0.00462745
0.00391708
0.00274807
0.00122505
-0.000478761
-0.00215823
-0.00360823
-0.00463343
-0.00499847
-0.00445765
-0.00307888
-0.000776417
0.00252926
0.00688126
0.0118085
0.000432686
0.00106341
0.00162121
0.00195283
0.00250698
0.00334735
0.00459557
0.00641201
0.00898169
0.0124991
0.0171396
0.0229746
0.0299606
0.0381938
0.0475432
0.0578463
0.0689852
0.080836
-0.00142289
-0.00282604
-0.00255442
-0.00156977
0.000281259
0.00309153
0.00697356
0.0120162
0.0183008
0.0259134
0.0349364
0.045435
0.0574441
0.0709436
0.0858149
0.101796
0.118464
0.135209
-0.00286851
-0.00581761
-0.00548486
-0.0036033
-0.000256772
0.00454846
0.0108249
0.0185401
0.0276409
0.0380735
0.0497798
0.062691
0.0767287
0.0918131
0.107858
0.124693
0.141876
0.158516
-0.00381422
-0.00594626
-0.00532525
-0.00229093
0.00265866
0.0093218
0.0175865
0.0273142
0.0383556
0.0505655
0.0637906
0.0778564
0.0925688
0.107741
0.12329
0.139437
0.156782
0.17582
-0.0027717
-0.00458823
-0.0029948
0.00129398
0.00765125
0.0158052
0.0255731
0.0367489
0.0491306
0.0625362
0.076797
0.0917673
0.107358
0.123565
0.140497
0.158598
0.178945
0.202315
-0.00286404
-0.00356225
-0.000682811
0.00481241
0.0123354
0.0216672
0.032622
0.0449629
0.0584741
0.0729985
0.0884174
0.104655
0.121707
0.139622
0.158396
0.177805
0.197357
0.21638
-0.00248335
-0.00193734
0.00221418
0.00884375
0.0174406
0.027816
0.0397286
0.052836
0.0668582
0.0816306
0.0970063
0.112807
0.128804
0.144683
0.159921
0.173441
0.183923
0.191441
-0.00200789
-9.68772e-05
0.00543844
0.0131924
0.0225844
0.0333259
0.0450434
0.0572984
0.0698014
0.082109
0.0938767
0.104792
0.114476
0.122466
0.128234
0.131174
0.130858
0.128346
-0.00134165
0.00192014
0.00836012
0.0163726
0.025205
0.0343812
0.043444
0.0520432
0.0604164
0.067928
0.0740637
0.0784335
0.0807484
0.0807165
0.0781972
0.0724007
0.0658205
0.0608406
-0.000314136
0.00372392
0.00864921
0.0137941
0.0186318
0.0229258
0.0267447
0.0304497
0.0429162
0.050873
0.0561642
0.0597688
0.0624242
0.0646864
0.0669753
0.0691181
0.0708618
0.0717239
0.000851726
0.000840665
-0.00277772
-0.00304681
-0.0106252
-0.0242422
-0.0430415
-0.0669449
-0.0959831
-0.128308
-0.162369
-0.196673
-0.230273
-0.262366
-0.292825
-0.321426
-0.348937
-0.376892
-0.00939778
-0.0375061
-0.0789781
-0.128383
-0.181544
-0.238975
-0.292346
-0.344915
-0.401391
-0.458214
-0.509604
-0.549767
-0.582281
-0.600222
-0.601109
-0.584239
-0.552872
-0.512877
-0.000144524
0.0126792
0.0576481
0.144863
0.279377
0.464313
0.951696
1.53614
2.21819
2.99091
3.83518
4.73212
5.04758
5.36888
5.70302
6.05716
6.43578
6.84361
4.84901
6.01788
7.24402
8.38712
9.44471
11.5429
12.4702
12.8896
13.0926
13.1818
13.2012
13.193
13.1862
13.2124
13.2832
13.3975
13.5443
13.7075
13.8705
14.0178
14.134
14.2189
14.2658
14.2594
14.1725
13.9583
13.5947
14.4766
15.1562
15.6092
15.7725
15.6223
15.2482
14.8632
14.7685
15.3279
16.771
19.5251
15.5468
15.8402
19.7627
27.6835
39.1684
52.6127
65.5297
75.2654
79.7678
78.1469
71.0978
61.0494
51.4561
44.212
39.9469
34.0077
23.5367
8.50408
-4.70899
-5.67369
4.21517
-11.97
-75.7144
-259.985
-583.691
-1062.95
-1533.67
-1446.24
-1506.98
-1494.65
-1416.37
-1282.93
-1105.1
-895.104
-666.546
-435.403
-211.928
19.4718
131.195
231.998
322.736
401.086
464.836
528.14
524.619
519.728
512.579
502.562
489.707
474.387
457.254
438.665
418.724
397.492
376.08
354.133
331.976
309.513
286.886
264.137
241.048
217.252
192.245
165.304
135.218
100.19
57.13
-1.22885
-111.886
-193.873
-245.913
-280.11
-284.366
-257.923
-254.419
-254.012
-254.807
-259.033
-268.299
-283.461
-304.171
-327.595
-343.15
-324.74
-221.513
-64.8279
92.0773
263.522
437.566
583.54
663.816
654.943
571.361
473.734
396.408
465.829
607.83
702.643
630.064
352.785
-335.832
-1018.74
-1357.28
-1276.46
-1038.5
-603.446
-17.616
273.082
506.047
670.611
752.202
702.516
614.347
485.483
299.542
21.6773
-675.216
-1407.95
-1878.59
-2130.83
-2248.33
-2449.67
-2632.32
-2803.26
-2976.13
-3165.52
-3380.45
-3621.86
-3878.71
-4114.02
-4254.76
-4158.2
-3460.63
-2670.17
-1787.25
-749.565
487.755
1869.31
3321.67
4757.88
6104.38
7157.7
8.49877
9.73141
8.56001
6.48273
4.01464
1.33989
-1.30985
-3.72784
-5.55381
-6.81704
-7.89357
-8.65942
-9.11815
-9.15533
-8.8333
-8.21363
-7.35744
-6.3218
-5.16041
-3.92315
-2.65484
-1.39725
-0.179113
0.979996
2.06483
3.06701
3.95524
3.45115
3.14953
3.23416
3.76566
4.84308
6.50868
8.7728
11.6591
15.1951
19.4217
24.2136
29.3377
35.0354
41.2759
48.0778
55.2173
62.14
68.0439
72.0477
73.3808
71.4715
66.0721
57.4949
46.7639
36.3635
26.1823
14.7238
-3.78193
-31.1512
-59.4505
-175.915
-361.407
-590.663
-882.725
-1114.5
-768.202
-675.313
-559.408
-413.234
-277.72
-141.993
-12.3942
105.48
206.756
287.036
343.764
374.086
375.728
350.738
302.043
237.515
163.077
85.8461
15.5546
-60.4848
-60.8972
-59.2361
-56.0523
-51.6193
-46.1933
-40.0454
-33.5154
-26.8693
-20.2051
-12.9286
-10.4571
-8.74252
-8.01085
-7.90287
-8.30943
-9.26181
-10.7063
-12.5867
-14.8291
-17.3218
-19.6252
-23.7154
-27.9918
-30.0532
-30.4721
-30.2552
-25.3554
-17.291
-7.44783
3.02129
14.3914
27.4006
39.8569
49.864
56.5931
59.6605
58.6302
51.8978
34.8864
-3.1413
-86.523
-171.453
-190.716
-168.499
-108.252
-6.91737
125.224
242.452
263.524
124.502
-64.6687
-277.478
-411.275
-488.785
-531.783
-530.246
-451.717
-257.792
-12.8431
163.184
290.826
351.097
336.142
253.398
133.403
0.477681
-112.393
-127.602
-128.564
-116.316
-96.4467
-67.0818
-60.2296
-47.7285
-41.2792
-32.4638
-20.2601
-32.5741
-50.5621
-70.84
-92.8856
-117.238
-145.179
-178.687
-220.531
-276.185
-363.863
-573.32
-1107.3
-1521.57
-1735.67
-1768.95
-1631.24
-1347.55
-916.56
-314.778
472.804
1380.72
1.91031
1.70246
-2.80195
-8.08697
-13.1482
-17.5803
-21.2561
-24.1461
-26.0773
-27.3365
-27.997
-28.0697
-27.6028
-26.6822
-25.4006
-23.836
-22.055
-20.1176
-18.0805
-15.9972
-13.9141
-11.8728
-9.9076
-8.04467
-6.30285
-4.69314
-3.21674
-1.87649
-0.674194
0.370641
1.39053
2.40866
3.46884
4.62884
5.96388
7.55853
9.49579
11.839
14.6322
17.9102
21.675
25.8959
30.4639
35.1464
39.578
43.2837
45.7189
46.2528
44.243
39.2676
31.3134
20.4644
4.92203
-23.8741
-85.4425
-234.034
-466.282
-613.233
-774.417
-867.897
-629.272
-458.807
-256.103
-125.164
-19.1578
65.8119
128.761
171.532
193.29
194.475
177.097
144.948
103.119
57.4151
13.1775
-25.2164
-55.218
-75.9626
-87.9331
-92.5194
-90.3611
-83.5654
-74.9465
-65.0277
-54.0418
-42.246
-29.929
-17.4634
-5.27564
6.89375
13.0781
17.763
20.7792
22.0934
21.7027
19.6969
16.2753
11.7347
6.39055
0.574947
-5.40123
-11.2349
-16.3595
-20.4746
-23.2501
-24.8656
-25.9718
-24.764
-20.2804
-13.0698
-3.54462
7.81167
20.4623
33.8591
47.0349
59.5296
70.024
75.9935
77.6653
75.6667
70.8796
64.0704
55.0273
39.7148
10.1598
-18.5076
-37.652
-36.8374
-9.17684
36.2995
62.8043
23.039
-100.986
-288.748
-498.606
-657.216
-653.676
-429.476
-80.7628
204.21
285.137
297.926
254.713
176.603
86.294
3.30858
-60.505
-101.077
-123.515
-131.948
-124.568
-97.6225
-61.5452
-38.6867
-15.9611
0.231853
9.78583
15.2802
16.24
12.9761
7.17895
-0.0322983
-8.09621
-16.8447
-26.4813
-37.6366
-51.5249
-70.2337
-98.7771
-153.462
-298.879
-485.19
-726.29
-970.372
-1100.44
-1113.54
-983.768
-695.48
-245.769
336.85
-16.6139
-18.6811
-24.4585
-29.7028
-33.8618
-36.828
-38.6232
-39.3579
-39.1105
-38.1248
-36.5698
-34.579
-32.2709
-29.7665
-27.1831
-24.5565
-21.9236
-19.3111
-16.7481
-14.265
-11.8886
-9.68461
-7.56383
-5.65702
-3.95311
-2.46419
-1.19484
-0.143195
0.705482
1.37694
1.90302
2.38683
2.87976
3.42081
4.04162
4.77195
5.63877
6.66814
7.88707
9.322
10.993
12.9023
15.0167
17.2471
19.4235
21.2748
22.422
22.289
20.0766
14.9192
5.82095
-10.854
-51.5829
-160.495
-375.128
-598.323
-716.015
-744.248
-510.766
-373.478
-193.885
-46.2312
58.881
117.282
148.755
159.415
152.139
129.319
94.219
51.796
7.42056
-34.1702
-69.6417
-97.1785
-116.235
-127.188
-130.969
-128.705
-121.621
-111.03
-99.2801
-86.0795
-71.8253
-56.6664
-40.5846
-23.4533
-5.20964
13.9245
32.8674
49.3968
60.7756
70.1239
77.084
81.3426
82.5654
80.59
75.487
67.6939
57.6956
46.0322
33.5611
20.6309
8.5571
-2.93153
-13.3797
-22.6129
-29.8665
-34.2713
-35.2245
-32.132
-24.652
-12.7441
3.26759
22.354
42.5546
61.4883
77.6973
89.7842
95.0427
94.5124
89.7429
82.4145
73.8094
64.457
53.9572
39.5547
23.6907
8.88993
-1.07169
-7.05883
-22.94
-74.5951
-183.715
-351.182
-543.988
-664.822
-560.953
-206.362
175.072
342.366
286.391
227.413
159.883
88.3801
27.4963
-20.3658
-57.4608
-86.3213
-108.534
-120.563
-118.134
-94.8128
-65.7405
-42.4069
-15.2709
5.47421
18.6968
25.7919
26.7941
23.1486
16.9652
9.80037
2.70023
-3.6878
-9.03573
-13.2269
-16.3673
-18.9748
-24.1665
-36.7807
-73.6952
-158.124
-290.951
-475.711
-686.773
-876.645
-976.659
-899.54
-586.732
-129.368
-45.2593
-45.8884
-48.5713
-49.5143
-49.1799
-47.7769
-45.4696
-42.4496
-38.92
-35.0861
-31.1112
-27.1299
-23.2439
-19.6374
-16.8279
-14.1701
-11.7414
-9.49781
-7.40201
-5.42924
-3.56696
-1.81372
-0.177357
1.32438
2.66779
3.81674
4.73438
5.39372
5.80024
5.99656
6.24173
6.25905
6.27567
6.28509
6.28812
6.29141
6.30191
6.33939
6.42901
6.58977
6.82694
7.12679
7.45078
7.72219
7.81801
7.52638
6.80169
5.1212
0.750715
-7.63309
-23.703
-62.4989
-171.444
-393.853
-654.473
-782.907
-569.722
-335.431
-171.955
-36.4768
69.9644
132.93
157.455
155.597
137.713
107.502
67.9337
23.0119
-22.4796
-64.3462
-99.947
-128.066
-148.35
-160.884
-166.031
-164.434
-157.101
-145.462
-131.114
-115.136
-100.581
-86.1128
-71.729
-57.0323
-41.3266
-23.8282
-3.97306
18.4092
42.9487
69.9116
89.2885
107.314
123.259
136.306
145.491
150.151
149.811
144.611
135.064
120.414
103.111
82.6043
62.3145
41.9466
21.8376
3.9913
-12.4521
-26.8543
-38.3923
-46.0082
-48.4483
-44.4531
-33.1358
-14.3643
10.54
38.7708
66.0857
89.4462
105.287
111.797
110.791
104.569
95.2532
84.4274
73.0589
61.3917
48.739
35.925
21.207
-1.81531
-46.3014
-127.952
-255.53
-419.378
-575.67
-620.893
-421.477
-20.9655
297.804
347.122
240.832
169.238
113.703
71.2039
28.5745
-8.56094
-41.6259
-70.5974
-94.5031
-111.089
-115.396
-98.5997
-79.0853
-56.1507
-23.3697
2.28409
21.0231
31.8986
34.5376
30.8767
23.5319
14.7751
6.28563
-0.916357
-6.33805
-9.73428
-9.84208
-8.7141
-7.56873
-8.38844
-15.4153
-46.8556
-106.106
-214.341
-371.531
-569.145
-763.629
-871.757
-805.337
-523.357
-87.1732
-75.1275
-67.6125
-60.336
-53.6121
-47.1303
-40.7643
-34.5355
-28.5689
-22.9646
-17.7654
-13.0085
-8.67489
-5.4527
-2.42505
0.389158
3.04001
5.59017
8.07979
10.5274
12.9316
15.2722
17.51
19.588
21.45
22.9241
23.8513
24.1204
23.6709
22.4811
20.5101
17.9411
14.3038
11.7202
9.55544
7.82977
6.45941
5.35411
4.42757
3.60128
2.80024
1.94818
0.962931
-0.260394
-1.86292
-4.09474
-6.97819
-11.799
-20.3382
-36.3988
-72.1213
-166.528
-376.914
-657.927
-822.783
-478.548
-212.111
-49.4268
64.0429
134.935
166.015
165.851
145.424
113.203
73.2792
28.17
-18.5305
-62.8794
-101.903
-134.076
-158.87
-176.154
-185.947
-188.486
-184.389
-174.734
-160.985
-144.911
-128.815
-115.096
-104.503
-95.956
-88.7807
-81.804
-73.6172
-62.8441
-48.2465
-28.6533
-2.92418
31.2524
58.8015
86.9056
114.699
140.68
162.938
180.236
192.036
197.357
199.37
191.093
179.254
159.674
136.263
111.292
84.9799
58.4407
32.557
8.07859
-14.2896
-33.6746
-48.8701
-58.2821
-60.7433
-52.8224
-34.8593
-7.13627
27.1087
62.1444
92.5871
112.592
121.294
120.797
114.086
103.875
92.0713
79.6269
66.5937
52.4547
36.0247
8.98831
-46.4933
-148.962
-299.956
-470.136
-591.57
-560.773
-295.093
96.7333
335.284
313.779
217.762
142.06
102.475
73.8641
41.3058
7.90073
-23.5567
-52.7718
-78.0576
-98.6622
-110.73
-103.781
-96.2176
-75.5015
-39.508
-8.74952
17.418
34.1252
40.2502
37.7012
29.7133
19.4641
9.42503
1.09058
-4.95915
-8.71867
-9.91211
-8.07975
-5.75342
-4.23105
-5.02018
-12.0485
-34.3322
-84.3672
-179.581
-331.473
-520.212
-702.727
-797.727
-715.204
-144.103
-99.7756
-75.4653
-59.3722
-47.5586
-37.8449
-29.3488
-21.7555
-15.0738
-9.24846
-4.16409
0.310231
4.1242
7.51137
10.7647
14.0145
17.2986
20.7094
24.29
28.0453
31.9437
35.9038
39.783
43.3898
46.5946
48.6326
49.1092
47.9173
45.1453
41.0338
34.0801
27.4302
21.2382
14.9341
9.88975
6.69588
3.86259
1.19663
-1.22406
-3.38122
-5.31905
-7.13142
-8.95793
-10.9968
-13.5488
-17.1124
-22.5296
-31.1042
-46.9688
-79.5547
-155.995
-327.555
-604.432
-836.598
-481.958
-161.988
22.8266
127.544
176.702
185.81
168.554
136.967
97.8003
54.0863
7.66339
-38.7682
-82.0648
-119.905
-151.06
-174.967
-191.338
-200.099
-201.52
-196.345
-185.838
-171.73
-155.985
-140.39
-126.795
-118.514
-114.051
-112.704
-113.476
-115.096
-116.31
-115.936
-112.65
-104.71
-89.6589
-64.8731
-32.0585
1.67946
39.9558
79.7394
116.87
147.564
171.777
185.607
202.217
204.02
206.998
203.746
193.423
176.014
152.426
124.247
93.3287
61.4396
30.0911
0.591331
-25.7726
-47.5512
-63.0527
-70.6095
-68.3706
-52.5406
-23.1727
14.8692
55.3444
90.4395
113.523
123.841
123.94
117.391
107.292
95.5071
82.5335
67.3286
48.4856
19.033
-39.1807
-149.983
-317.062
-496.588
-593.349
-504.352
-203.886
155.089
331.31
287.249
200.557
143.575
103.484
79.1312
54.766
24.2965
-4.82273
-32.8029
-58.0644
-81.3817
-100.683
-105.571
-113.044
-94.1123
-63.015
-26.2446
8.40631
32.6912
43.7144
43.1452
34.9644
23.4554
12.0635
2.87173
-3.4142
-6.96501
-8.11108
-6.03435
-3.10285
-0.721067
-0.0359128
-2.57304
-13.0878
-34.0536
-82.5773
-176.169
-324.02
-507.968
-672.143
-737.043
-209.548
-111.547
-70.4779
-49.9801
-36.6233
-26.4507
-17.5536
-9.93172
-3.61461
1.59987
6.02375
9.96396
13.655
17.5334
21.475
25.6768
30.1264
34.9686
40.2045
45.7149
51.2712
56.5039
60.9189
64.0543
65.4872
61.9543
55.8326
47.4547
37.8328
27.8655
18.3007
9.65365
2.24479
-3.67357
-8.81394
-12.6722
-15.2135
-16.6659
-17.6004
-18.2712
-18.8459
-19.5095
-20.5002
-22.1501
-24.9807
-29.898
-38.5626
-54.1629
-83.8757
-144.295
-271.881
-507.461
-792.732
-568.384
-178.211
46.5822
165.183
208.031
204.07
175.305
135.967
93.0478
48.2411
2.26635
-43.2198
-85.887
-123.779
-155.602
-180.435
-197.589
-206.757
-208.219
-202.876
-192.12
-177.648
-161.313
-144.981
-130.316
-118.463
-109.914
-103.994
-101.209
-101.247
-104.011
-109.718
-118.591
-130.283
-143.202
-153.765
-155.811
-138.528
-113.599
-74.226
-23.2897
32.4174
82.2688
119.452
139.921
147.897
157.568
167.086
176.227
182.865
184.2
178.012
163.371
140.744
111.695
78.4193
43.3438
8.87211
-22.7247
-49.3222
-68.91
-79.2868
-79.8285
-65.9272
-36.2962
5.30988
49.8154
86.8259
110.675
121.191
121.458
115.333
105.76
94.0003
79.2571
59.5105
28.5934
-29.364
-139.914
-312.247
-497.588
-581.152
-459.214
-150.381
170.124
313.112
270.817
196.195
145.658
116.148
86.4349
64.3008
39.6501
13.5305
-12.4236
-36.3834
-60.72
-85.7871
-108.193
-119.192
-114.362
-88.8672
-48.0166
-4.88006
28.1797
45.354
47.5381
39.4575
26.7643
14.1251
4.28962
-1.94743
-4.98702
-5.54286
-3.27093
0.181677
3.09853
4.59368
3.64837
-2.53169
-14.0226
-39.0234
-92.1728
-190.351
-339.258
-518.16
-656.269
-272.163
-104.203
-57.6425
-39.188
-26.8588
-17.8451
-8.32784
-1.08193
4.56571
9.10235
13.1647
17.1774
21.3548
25.8468
30.7254
35.9838
41.5718
47.3576
53.0974
58.3897
62.7467
65.6018
66.4
65.5693
59.9682
52.3733
42.4069
30.4676
18.2259
6.69246
-3.5918
-12.165
-18.916
-23.6764
-26.4736
-28.7785
-29.0298
-28.57
-27.4314
-26.1688
-25.2512
-25.0421
-25.8789
-28.1948
-32.7222
-40.8476
-55.2671
-81.2649
-129.862
-223.76
-401.414
-677.315
-672.99
-255.196
22.9955
176.151
231.365
225.119
189.222
143.923
98.0083
53.061
8.43677
-35.4643
-77.2457
-115.414
-148.668
-175.703
-195.249
-206.483
-209.45
-205.112
-194.987
-180.645
-163.391
-144.275
-124.307
-104.701
-86.0934
-65.3034
-44.3379
-26.2902
-12.4274
-4.6962
-5.57489
-17.4666
-41.7623
-77.7382
-121.534
-165.188
-195.875
-202.849
-186.742
-142.248
-72.8838
5.69619
69.7275
102.193
118.165
120.041
116.815
115.727
119.827
127.978
136.436
140.82
137.639
125.082
103.187
73.6253
39.2386
3.40819
-30.4382
-59.1741
-80.1969
-90.8752
-90.5343
-74.7258
-41.995
2.36769
47.4874
83.4125
105.644
114.986
114.943
109.125
99.6282
86.3678
67.2996
36.5362
-19.4539
-124.518
-292.151
-476.591
-555.726
-425.029
-127.727
157.409
282.873
260.445
198.299
152.858
122.253
96.3905
74.6843
53.5903
28.748
5.18961
-15.4832
-39.1939
-67.7784
-97.0516
-123.328
-131.459
-113.146
-71.5412
-20.977
21.4576
45.7681
51.3283
43.4185
29.3759
15.4336
5.08948
-0.936544
-3.41574
-3.35965
-0.687892
2.95145
6.45247
8.93399
9.46468
6.35111
-1.69402
-16.9512
-48.1469
-110.003
-217.118
-370.309
-536.438
-309.874
-75.0837
-45.2054
-31.8431
-20.3266
-10.6237
-2.4648
4.20351
9.53316
14.1531
18.9468
24.1383
29.7747
35.8431
42.2527
48.8466
55.4076
61.6702
67.3301
72.0335
75.3546
76.7968
75.8422
72.0597
65.2422
55.5384
43.4582
29.1222
15.0051
2.72098
-7.61877
-15.4116
-21.3813
-25.4653
-27.6538
-28.4352
-28.802
-26.4885
-24.632
-23.2789
-22.8024
-23.6032
-26.1038
-30.8636
-38.8829
-52.1385
-74.5715
-113.825
-184.481
-312.725
-533.13
-700.298
-374.074
-49.9173
153.767
241.487
247.129
210.64
160.775
111.56
66.0551
22.9813
-18.6923
-58.6881
-96.2528
-130.468
-159.989
-183.033
-197.975
-204.183
-202.453
-194.65
-182.705
-167.618
-149.151
-126.362
-98.5343
-66.1499
-32.1758
13.6239
58.6231
99.8244
134.542
159.458
170.747
164.625
138.114
90.0017
21.7821
-60.9652
-146.394
-214.538
-250.329
-244.889
-188.747
-93.2777
3.61808
81.3867
127.474
140.458
129.49
108.101
88.2464
76.8948
75.3872
80.7236
87.6628
90.7421
85.7786
70.8083
46.4562
15.4726
-18.3841
-50.9996
-78.5284
-97.7938
-105.854
-100.999
-79.4571
-41.8657
4.14077
47.505
79.9344
98.8592
106.193
105.431
99.1923
88.2012
70.8628
41.6331
-11.1735
-107.892
-263.454
-439.661
-518.919
-397.82
-125.858
128.672
247.61
249.786
202.389
160.364
128.744
103.224
80.1033
58.5046
39.3014
20.4934
4.65647
-15.3814
-46.1727
-84.1495
-120.477
-141.679
-133.464
-94.6071
-38.5443
13.2507
45.4472
54.9988
47.2218
31.4347
15.8716
4.97765
-0.814809
-2.88166
-2.42043
0.282265
4.17651
8.42673
12.232
14.6314
14.2019
8.79544
-1.79693
-22.0184
-61.808
-135.631
-254.498
-409.21
-296.513
-60.6361
-42.0814
-29.3788
-17.7322
-7.64602
1.3939
8.84509
14.5747
20.0653
26.2682
32.9107
39.8486
46.9644
54.1879
61.4711
68.7584
75.9229
82.6786
88.5062
92.6395
94.1633
92.2263
86.3178
76.5051
63.5139
48.6004
33.2589
18.9063
6.5918
-3.13795
-9.45879
-12.8105
-17.6712
-19.6509
-21.2227
-22.1931
-21.8023
-19.6045
-18.4339
-18.9851
-21.5757
-26.563
-34.537
-46.8425
-66.2204
-98.0569
-152.396
-246.752
-410.245
-619.665
-473.582
-163.258
89.1057
226.921
262.667
236.397
185.724
132.87
85.4725
43.0886
3.71844
-33.5723
-68.9627
-102.372
-133.098
-159.441
-179.039
-189.932
-191.758
-186.279
-176.658
-165.686
-153.988
-139.393
-118.044
-86.7005
-43.4907
11.7027
77.1769
139.472
194.642
239.971
273.078
291.572
293.072
275.102
235.347
171.718
83.7151
-24.9277
-144.149
-245.366
-305.03
-297.033
-217.934
-98.1138
28.8251
129.579
185.712
196.615
174.814
137.522
99.7158
70.8141
54.2106
48.377
48.6184
48.9475
43.7526
29.6947
7.2187
-21.1476
-51.8246
-80.8054
-104.307
-118.78
-121.356
-108.85
-79.5246
-37.2354
8.62431
48.049
75.3689
90.204
95.1854
92.9724
85.0294
70.2134
43.4618
-5.43706
-92.7937
-232.045
-393.734
-473.613
-373.022
-134.807
92.0357
209.971
227.917
201.625
166.209
134.246
107.107
83.0974
63.1534
45.5858
31.1344
19.3414
3.52934
-24.6809
-66.544
-111.253
-145.265
-148.474
-115.346
-56.1833
4.29703
44.6993
58.874
51.0946
32.9398
14.8104
2.98847
-2.48476
-4.17425
-3.36342
-0.708484
3.41892
8.56486
13.9905
18.6559
21.1571
18.4713
11.4824
-2.67416
-29.8418
-81.1353
-169.766
-299.991
-259.635
-59.3221
-42.3184
-29.0869
-16.3025
-4.51223
5.52452
13.8379
20.7034
27.2179
34.6159
42.1766
49.8254
57.6287
65.7558
74.3449
83.3931
92.6308
101.428
108.787
113.468
114.261
110.329
101.532
88.5674
72.8632
56.2471
40.505
26.9892
16.3945
8.73263
3.42351
-0.347207
-3.43538
-6.57501
-10.3053
-14.8176
-19.1626
-11.3474
-10.8442
-13.1322
-18.3168
-28.2214
-40.0265
-57.4458
-84.2846
-127.681
-200.619
-328.909
-476.906
-486.179
-277.507
-14.926
174.294
258.142
258.569
215.733
161.275
110.619
67.015
28.7791
-5.85536
-37.8938
-68.1743
-97.2118
-124.456
-147.943
-164.786
-172.423
-170.144
-160.045
-146.562
-134.335
-125.404
-117.547
-104.954
-81.0588
-47.7211
21.3842
82.1333
141.63
193.283
232.842
259.435
273.186
274.69
264.028
240.606
201.719
144.607
62.1981
-51.9354
-185.928
-311.778
-371.939
-353.77
-244.274
-84.8579
74.4631
194.308
256.438
264.013
233.956
186.255
136.9
95.5779
66.1197
47.8934
37.3298
29.5557
15.9466
-4.94189
-30.9928
-59.5929
-87.661
-112.062
-130.149
-138.24
-132.669
-110.857
-74.0836
-29.235
13.8112
47.3795
68.8182
79.4551
81.6057
77.3926
65.7504
42.1501
-2.41734
-80.6675
-202.438
-345.446
-423.544
-347.245
-146.527
53.6179
170.651
204.706
193.33
165.614
136.413
109.405
84.9948
63.9599
47.8973
36.6278
28.311
16.4165
-7.78212
-47.7952
-98.5928
-144.166
-158.11
-132.569
-72.4777
-4.41111
43.9467
63.6583
55.0892
34.7953
15.6679
3.12779
-3.14946
-5.46249
-5.39184
-3.27324
0.961743
7.06495
14.2586
21.3633
26.9271
28.5026
24.4104
14.4565
-5.12881
-42.0584
-108.011
-212.802
-219.903
-60.3181
-43.7944
-28.8659
-14.4767
-1.6727
9.28782
18.5512
26.6263
34.0789
42.1584
50.2231
58.471
67.2162
76.7898
87.3682
98.8393
110.668
121.829
130.882
136.222
136.476
130.951
119.941
104.762
87.4599
70.2997
55.2102
43.3856
35.1248
29.9091
26.6631
24.1206
21.1305
16.928
11.3072
4.67817
-1.74295
-6.50547
-4.32987
-7.75026
-14.7704
-26.0504
-42.9243
-67.9623
-105.637
-163.117
-247.425
-352.502
-406.41
-330.737
-128.053
82.1881
218.07
263.14
243.347
194.558
141.626
94.8002
55.2687
21.516
-7.78134
-33.8963
-58.342
-82.2002
-105.252
-125.697
-140.569
-146.731
-142.279
-127.868
-107.388
-87.1301
-72.7095
-64.8687
-58.8688
-47.3631
-16.7338
1.25792
28.1912
62.9241
101.064
131.706
154.954
169.894
176.323
174.01
162.833
142.645
112.21
66.9661
-2.29214
-106.495
-245.73
-387.991
-462.689
-401.56
-246.704
-49.2488
131.958
258.489
317.264
317.884
281.479
228.962
175.238
128.474
91.5283
63.7255
42.329
23.3868
-0.642034
-28.4221
-58.1859
-87.7902
-114.781
-136.281
-149.215
-149.975
-135.322
-104.919
-63.4062
-19.6342
17.7535
44.2481
59.7725
66.136
65.9967
57.9069
37.9902
-1.87608
-71.8449
-177.444
-300.387
-373.062
-319.138
-155.457
18.1107
131.33
177.788
180.31
161.477
135.899
109.561
84.6743
63.4014
48.3347
39.0345
33.0085
23.9949
3.36854
-33.9392
-85.0596
-136.026
-163.179
-146.115
-86.3486
-11.6706
44.0515
64.8972
57.0964
37.0422
18.0713
5.34689
-1.90332
-5.89035
-7.55887
-6.5634
-2.42415
4.6262
13.5586
22.9309
31.2408
36.7216
36.5006
30.473
16.2733
-11.268
-61.2153
-144.42
-182.447
-62.2689
-44.6024
-28.9184
-13.7303
-0.114425
11.6683
21.7684
30.6482
38.8103
47.1957
55.6389
64.6264
74.689
86.2755
99.5622
114.28
129.563
143.926
155.428
162.066
162.322
155.687
142.949
126.087
107.797
90.8133
77.2912
68.4274
64.3659
64.3528
67.0515
70.9081
74.4626
76.568
76.4899
73.8874
68.7014
60.9572
50.6886
37.5999
12.475
-4.22737
-27.701
-60.1758
-104.681
-163.842
-234.634
-296.119
-295.904
-195.974
-23.2202
139.151
234.504
255.287
226.349
177.536
127.962
84.731
48.718
19.2719
-4.55057
-24.3326
-42.1638
-59.6914
-77.1318
-93.0843
-105.173
-110.591
-106.952
-93.0392
-69.2745
-40.2227
-15.4893
-0.772141
8.3327
13.0942
4.27796
-13.3247
-25.5271
-28.7834
-22.5573
-8.29061
11.7158
34.7384
57.6129
76.8568
89.0499
91.3253
81.4932
57.435
15.2635
-53.8274
-162.359
-309.607
-455.073
-515.937
-406.738
-207.339
12.2152
194.539
309.28
353.062
342.874
301.921
249.348
197.06
150.618
111.326
78.1321
48.8237
20.9855
-9.47448
-42.1722
-74.8102
-105.298
-130.976
-149.778
-157.627
-150.837
-127.837
-91.5927
-49.6234
-10.8203
18.8696
38.0417
48.4089
51.6287
47.1435
31.3109
-3.45905
-65.915
-158.098
-262.514
-326.725
-289.661
-158.818
-11.0262
94.652
148.216
162.403
152.931
132.4
108.001
83.6508
62.7862
48.3516
40.0094
35.2762
28.0754
9.90618
-25.3663
-76.5577
-130.764
-163.652
-151.852
-93.6474
-16.4765
43.107
66.5006
59.6103
39.9128
21.1549
7.95148
-0.879077
-7.11829
-10.7916
-10.7685
-6.32248
2.01204
12.6655
23.8063
33.9479
42.0281
45.9238
44.1154
34.7431
14.202
-24.221
-90.3264
-148.233
-63.8355
-46.5904
-30.7483
-15.194
-1.06388
11.292
21.9359
31.2621
39.7563
48.3959
57.3954
67.4928
79.3782
93.5611
110.162
128.719
148.047
166.244
180.926
189.732
190.986
184.299
170.855
153.214
134.696
118.591
107.483
102.877
105.143
113.696
127.316
144.465
163.482
182.741
200.644
215.481
225.219
227.383
219.453
200.079
170.57
114.994
37.9674
-6.33479
-56.5492
-113.507
-169.408
-203.914
-183.983
-91.1912
46.6622
170.086
237.553
245.015
213.481
167.01
120.531
78.6912
45.6164
20.0404
1.2113
-12.6382
-23.8169
-34.194
-44.2334
-53.0498
-59.1502
-60.6998
-55.9313
-43.5438
-23.2537
1.82711
25.9564
45.6909
58.0521
57.2046
36.1052
7.45756
-23.5857
-51.0708
-70.389
-78.6512
-74.8953
-60.0541
-36.8072
-9.13189
18.5908
42.3688
58.2667
60.9298
43.0649
-3.03082
-85.2054
-209.905
-364.964
-495.405
-513.684
-349.811
-122.597
92.7563
251.899
337.529
358.28
336.326
293.414
244.466
197.303
154.696
116.608
81.8049
48.6881
15.8027
-17.6169
-51.3181
-84.2609
-114.609
-139.387
-154.523
-155.953
-141.506
-111.871
-73.8862
-35.9737
-5.00994
16.3723
29.3472
35.336
34.1898
22.5237
-6.8348
-62.1598
-143.889
-233.683
-288.585
-261.737
-156.65
-31.8955
63.5123
118.696
140.833
139.987
125.587
104.684
82.2802
62.5949
48.7381
40.7169
36.5494
30.1755
13.1464
-21.4324
-73.4175
-130.208
-166.387
-156.392
-97.1113
-16.7357
45.8497
70.4399
63.5464
43.7379
24.7595
10.4294
-0.677577
-9.54827
-15.0106
-15.2024
-9.53129
0.6674
12.9279
24.9405
35.3603
43.9566
50.8425
52.9176
48.2972
34.0138
4.85294
-47.4752
-126.83
-66.2339
-50.2097
-35.359
-20.2054
-5.93627
6.61526
17.4685
27.0062
35.7219
44.8341
54.6572
66.0691
79.8395
96.534
116.305
138.68
162.38
185.287
204.662
217.708
222.338
217.923
205.677
188.463
170.096
154.431
144.604
142.619
149.295
164.486
187.41
217
251.978
291.104
333.141
376.6
419.234
457.179
484.031
490.611
466.852
407.756
322.634
187.702
42.0238
-18.143
-69.1404
-95.4318
-76.9986
-4.75117
99.2103
191.366
239.529
239.715
206.284
162.333
118.437
78.8578
47.5923
24.6824
9.51999
0.333504
-5.1507
-8.82181
-11.3758
-12.4825
-11.3628
-7.02612
1.46486
14.706
32.4444
52.5868
71.9256
87.399
96.2543
92.3557
71.9486
41.2958
6.19824
-27.9851
-56.4125
-75.2809
-82.314
-77.1372
-61.5061
-39.0178
-13.837
11.1182
34.606
54.2026
61.785
43.5925
-12.9539
-113.977
-255.055
-405.061
-495.09
-444.872
-233.523
-10.8421
173.072
289.765
337.85
335.491
305.101
263.637
220.671
180.149
142.766