/*--------------------------------*- C++ -*----------------------------------*\
| =========                 |                                                 |
| \\      /  F ield         | OpenFOAM: The Open Source CFD Toolbox           |
|  \\    /   O peration     | Version:  2112                                  |
|   \\  /    A nd           | Website:  www.openfoam.com                      |
|    \\/     M anipulation  |                                                 |
\*---------------------------------------------------------------------------*/
FoamFile
{
    version     2.0;
    format      ascii;
    arch        "LSB;label=32;scalar=64";
    class       surfaceScalarField;
    location    "0.33";
    object      phi;
}
// * * * * * * * * * * * * * * * * * * * * * * * * * * * * * * * * * * * * * //

dimensions      [0 3 -1 0 0 0 0];

oriented        oriented;

internalField   nonuniform List<scalar> 
24170
(
3.17269e-06
1.18926e-07
3.04851e-06
1.24178e-07
2.93834e-06
1.10174e-07
2.84216e-06
9.61727e-08
2.75418e-06
8.79837e-08
2.65363e-06
1.00549e-07
2.53748e-06
1.16153e-07
2.42213e-06
1.15346e-07
2.32359e-06
9.85416e-08
2.24255e-06
8.10402e-08
2.17271e-06
6.98389e-08
2.10409e-06
6.86204e-08
2.03171e-06
7.23829e-08
1.94865e-06
8.30541e-08
1.84939e-06
9.92677e-08
1.7287e-06
1.20689e-07
1.57297e-06
1.55724e-07
1.79207e-07
1.39377e-06
3.42179e-06
1.56969e-07
3.43994e-06
1.06031e-07
3.46853e-06
8.15835e-08
3.48025e-06
8.44546e-08
3.48193e-06
8.63046e-08
3.4838e-06
9.86754e-08
3.484e-06
1.15955e-07
3.47463e-06
1.24712e-07
3.4516e-06
1.21574e-07
3.41548e-06
1.17161e-07
3.37189e-06
1.13432e-07
3.32626e-06
1.14244e-07
3.28289e-06
1.15751e-07
3.24036e-06
1.2559e-07
3.19554e-06
1.4409e-07
3.13967e-06
1.76553e-07
3.07083e-06
2.24562e-07
2.54305e-07
2.99574e-06
3.64079e-06
1.62564e-07
3.64743e-06
9.93881e-08
3.67504e-06
5.3981e-08
3.70612e-06
5.33725e-08
3.72753e-06
6.48977e-08
3.73976e-06
8.64398e-08
3.74354e-06
1.12173e-07
3.73673e-06
1.31522e-07
3.71972e-06
1.3859e-07
3.69797e-06
1.38905e-07
3.6763e-06
1.3511e-07
3.65846e-06
1.32084e-07
3.64332e-06
1.30889e-07
3.63185e-06
1.37054e-07
3.62145e-06
1.54496e-07
3.61342e-06
1.84577e-07
3.60806e-06
2.29929e-07
2.66511e-07
3.59585e-06
4.02022e-06
8.13347e-08
4.01528e-06
1.0433e-07
3.98019e-06
8.90671e-08
3.94897e-06
8.45896e-08
3.93977e-06
7.40991e-08
3.94361e-06
8.26015e-08
3.94652e-06
1.09264e-07
3.94212e-06
1.35925e-07
3.93225e-06
1.48455e-07
3.92271e-06
1.4845e-07
3.91596e-06
1.41858e-07
3.91216e-06
1.35886e-07
3.90797e-06
1.35071e-07
3.90211e-06
1.42916e-07
3.89468e-06
1.61932e-07
3.88818e-06
1.91075e-07
3.88775e-06
2.30356e-07
2.69413e-07
3.88485e-06
4.27613e-06
9.21296e-08
4.30326e-06
7.72047e-08
4.27174e-06
1.20587e-07
4.2176e-06
1.38731e-07
4.18097e-06
1.10724e-07
4.17297e-06
9.06026e-08
4.18617e-06
9.60634e-08
4.20892e-06
1.13173e-07
4.23112e-06
1.2626e-07
4.24881e-06
1.30763e-07
4.26111e-06
1.29555e-07
4.26665e-06
1.30346e-07
4.2628e-06
1.38923e-07
4.24873e-06
1.56983e-07
4.22683e-06
1.83829e-07
4.20104e-06
2.16864e-07
4.17737e-06
2.54034e-07
2.9093e-07
4.15585e-06
4.53421e-06
-1.85955e-08
4.56167e-06
4.97447e-08
4.50684e-06
1.75416e-07
4.48121e-06
1.64367e-07
4.51748e-06
7.44499e-08
4.58033e-06
2.77543e-08
4.62818e-06
4.82085e-08
4.64692e-06
9.4434e-08
4.64357e-06
1.29612e-07
4.62863e-06
1.45704e-07
4.6069e-06
1.51282e-07
4.58172e-06
1.55527e-07
4.55653e-06
1.64108e-07
4.53289e-06
1.80626e-07
4.51098e-06
2.05737e-07
4.49003e-06
2.37821e-07
4.47029e-06
2.73769e-07
3.09216e-07
4.45201e-06
4.83227e-06
7.81633e-08
4.8174e-06
6.46076e-08
4.82808e-06
1.64736e-07
4.88545e-06
1.07e-07
4.95413e-06
5.77229e-09
4.99328e-06
-1.14005e-08
4.99184e-06
4.96451e-08
4.95812e-06
1.28158e-07
4.90508e-06
1.82648e-07
4.84947e-06
2.01323e-07
4.80892e-06
1.91824e-07
4.7906e-06
1.73846e-07
4.78755e-06
1.67158e-07
4.78704e-06
1.81137e-07
4.78174e-06
2.11043e-07
4.77133e-06
2.4823e-07
4.75899e-06
2.86106e-07
3.21087e-07
4.74712e-06
5.30831e-06
-7.41073e-09
5.28408e-06
8.88364e-08
5.28868e-06
1.60138e-07
5.3035e-06
9.21791e-08
5.30976e-06
-4.83947e-10
5.29784e-06
5.19818e-10
5.26706e-06
8.04224e-08
5.22583e-06
1.69393e-07
5.19167e-06
2.16806e-07
5.17607e-06
2.16925e-07
5.1752e-06
1.92691e-07
5.17787e-06
1.71177e-07
5.17793e-06
1.67093e-07
5.17521e-06
1.83857e-07
5.16953e-06
2.16725e-07
5.15857e-06
2.59194e-07
5.14214e-06
3.02532e-07
3.39769e-07
5.12346e-06
5.6527e-06
8.0174e-08
5.64563e-06
9.59089e-08
5.67114e-06
1.3462e-07
5.66639e-06
9.69295e-08
5.63367e-06
3.22376e-08
5.61304e-06
2.11486e-08
5.61287e-06
8.05963e-08
5.6156e-06
1.66659e-07
5.60697e-06
2.25434e-07
5.5866e-06
2.37303e-07
5.56156e-06
2.17729e-07
5.53867e-06
1.94062e-07
5.52e-06
1.85769e-07
5.50495e-06
1.98906e-07
5.49313e-06
2.2854e-07
5.48547e-06
2.66858e-07
5.48415e-06
3.03856e-07
3.35627e-07
5.48829e-06
6.05397e-06
1.48712e-07
5.99013e-06
1.59748e-07
5.99644e-06
1.28313e-07
5.98143e-06
1.11939e-07
5.93451e-06
7.91606e-08
5.89198e-06
6.36719e-08
5.88092e-06
9.16605e-08
5.89974e-06
1.47842e-07
5.9291e-06
1.96072e-07
5.95019e-06
2.16212e-07
5.95345e-06
2.14468e-07
5.93944e-06
2.0807e-07
5.91538e-06
2.09833e-07
5.89058e-06
2.23699e-07
5.87338e-06
2.45743e-07
5.86896e-06
2.71281e-07
5.87898e-06
2.93831e-07
3.13433e-07
5.90118e-06
6.45218e-06
6.91474e-08
6.47473e-06
1.37199e-07
6.46389e-06
1.39155e-07
6.4441e-06
1.31731e-07
6.41593e-06
1.07332e-07
6.38508e-06
9.45172e-08
6.37117e-06
1.05569e-07
6.38581e-06
1.33207e-07
6.42071e-06
1.61172e-07
6.45602e-06
1.80899e-07
6.47503e-06
1.9546e-07
6.47233e-06
2.10773e-07
6.45228e-06
2.29876e-07
6.42375e-06
2.52232e-07
6.39607e-06
2.7342e-07
6.3759e-06
2.91456e-07
6.3668e-06
3.02928e-07
3.10785e-07
6.36945e-06
5.77008e-06
3.36063e-09
5.78591e-06
1.21368e-07
5.77389e-06
1.51176e-07
5.75927e-06
1.46344e-07
5.75294e-06
1.13663e-07
5.76683e-06
8.0627e-08
5.80235e-06
7.00547e-08
5.84723e-06
8.83236e-08
5.88273e-06
1.25672e-07
5.89499e-06
1.68643e-07
5.88193e-06
2.08515e-07
5.85051e-06
2.42191e-07
5.81203e-06
2.68364e-07
5.77802e-06
2.86243e-07
5.75577e-06
2.95663e-07
5.74787e-06
2.99359e-07
5.75189e-06
2.98905e-07
2.9889e-07
5.76379e-06
7.0384e-06
-4.36596e-08
7.12765e-06
3.21184e-08
7.13854e-06
1.40292e-07
7.13831e-06
1.46569e-07
7.13519e-06
1.16779e-07
7.12263e-06
9.31967e-08
7.10681e-06
8.58745e-08
7.09602e-06
9.91129e-08
7.09253e-06
1.2916e-07
7.09082e-06
1.70346e-07
7.0839e-06
2.15436e-07
7.07086e-06
2.55234e-07
7.05816e-06
2.81067e-07
7.05429e-06
2.90113e-07
7.06389e-06
2.86063e-07
7.08601e-06
2.77243e-07
7.1154e-06
2.69507e-07
2.69916e-07
7.14438e-06
8.6998e-06
-5.98225e-08
8.6185e-06
1.13417e-07
8.58001e-06
1.78778e-07
8.58715e-06
1.39432e-07
8.59383e-06
1.10094e-07
8.5721e-06
1.14935e-07
8.52963e-06
1.28337e-07
8.49878e-06
1.2996e-07
8.50323e-06
1.24712e-07
8.54063e-06
1.32949e-07
8.59033e-06
1.65731e-07
8.63067e-06
2.14894e-07
8.64932e-06
2.62415e-07
8.64545e-06
2.93986e-07
8.62867e-06
3.02844e-07
8.61052e-06
2.95392e-07
8.60271e-06
2.77314e-07
2.62219e-07
8.61041e-06
1.03319e-05
2.39601e-08
1.03619e-05
8.33637e-08
1.0453e-05
8.77035e-08
1.05141e-05
7.83232e-08
1.05286e-05
9.56242e-08
1.05029e-05
1.40568e-07
1.04564e-05
1.74901e-07
1.04097e-05
1.76666e-07
1.0379e-05
1.55345e-07
1.03747e-05
1.3729e-07
1.03993e-05
1.41098e-07
1.04466e-05
1.67649e-07
1.05046e-05
2.04338e-07
1.05614e-05
2.372e-07
1.06079e-05
2.56405e-07
1.06413e-05
2.61986e-07
1.06621e-05
2.56464e-07
2.47123e-07
1.06772e-05
1.25427e-05
-1.0595e-07
1.26233e-05
2.79135e-09
1.27231e-05
-1.21625e-08
1.27805e-05
2.09316e-08
1.27707e-05
1.05474e-07
1.27561e-05
1.55103e-07
1.27713e-05
1.59787e-07
1.28103e-05
1.37648e-07
1.28452e-05
1.2039e-07
1.28565e-05
1.25979e-07
1.28472e-05
1.50448e-07
1.28367e-05
1.7818e-07
1.28449e-05
1.9609e-07
1.28815e-05
2.0063e-07
1.2942e-05
1.95909e-07
1.30152e-05
1.88804e-07
1.30869e-05
1.84707e-07
1.87882e-07
1.31462e-05
1.56852e-05
3.24053e-07
1.55726e-05
1.15427e-07
1.55921e-05
-3.16537e-08
1.56262e-05
-1.31813e-08
1.56565e-05
7.51584e-08
1.56604e-05
1.51234e-07
1.56472e-05
1.72915e-07
1.56243e-05
1.60607e-07
1.55914e-05
1.53311e-07
1.55523e-05
1.65053e-07
1.55184e-05
1.84296e-07
1.55027e-05
1.93893e-07
1.55123e-05
1.86485e-07
1.55464e-05
1.66578e-07
1.55981e-05
1.4422e-07
1.56582e-05
1.28651e-07
1.57189e-05
1.24078e-07
1.32554e-07
1.57742e-05
1.94098e-05
3.53223e-07
1.92736e-05
2.51673e-07
1.90978e-05
1.44136e-07
1.89498e-05
1.34844e-07
1.8847e-05
1.77899e-07
1.88123e-05
1.85973e-07
1.88297e-05
1.55473e-07
1.88759e-05
1.14452e-07
1.894e-05
8.91937e-08
1.90191e-05
8.59569e-08
1.91076e-05
9.57907e-08
1.91945e-05
1.06947e-07
1.9268e-05
1.1301e-07
1.93205e-05
1.14137e-07
1.93507e-05
1.14011e-07
1.93631e-05
1.16235e-07
1.93647e-05
1.22504e-07
1.32977e-07
1.93642e-05
2.3036e-05
1.57317e-07
2.30969e-05
1.90788e-07
2.30844e-05
1.56557e-07
2.30181e-05
2.01131e-07
2.29506e-05
2.45444e-07
2.2916e-05
2.20574e-07
2.29244e-05
1.47042e-07
2.29662e-05
7.26993e-08
2.3032e-05
2.34213e-08
2.31145e-05
3.3981e-09
2.3207e-05
3.27923e-09
2.32975e-05
1.64726e-08
2.33732e-05
3.73021e-08
2.34263e-05
6.10037e-08
2.34564e-05
8.39506e-08
2.34685e-05
1.04166e-07
2.34709e-05
1.20034e-07
1.30996e-07
2.34729e-05
1.67684e-05
2.67715e-07
1.67964e-05
1.62763e-07
1.69368e-05
1.61763e-08
1.70761e-05
6.18125e-08
1.71822e-05
1.39407e-07
1.72196e-05
1.83161e-07
1.71778e-05
1.8884e-07
1.70818e-05
1.68665e-07
1.69689e-05
1.36363e-07
1.68688e-05
1.03443e-07
1.67972e-05
7.49148e-08
1.67602e-05
5.352e-08
1.67568e-05
4.06445e-08
1.67807e-05
3.71762e-08
1.68231e-05
4.14726e-08
1.68763e-05
5.09578e-08
1.69348e-05
6.16099e-08
7.13496e-08
1.69944e-05
1.47045e-05
1.92482e-08
1.47331e-05
1.34169e-07
1.4642e-05
1.07221e-07
1.46083e-05
9.55332e-08
1.46457e-05
1.02058e-07
1.47267e-05
1.02097e-07
1.4816e-05
9.95401e-08
1.48901e-05
9.46009e-08
1.49383e-05
8.82038e-08
1.49622e-05
7.94769e-08
1.49671e-05
6.99952e-08
1.49588e-05
6.18855e-08
1.4944e-05
5.54452e-08
1.49305e-05
5.06963e-08
1.49257e-05
4.62241e-08
1.49347e-05
4.19874e-08
1.49595e-05
3.67385e-08
3.06437e-08
1.50002e-05
1.26586e-05
-5.55923e-08
1.2726e-05
6.68423e-08
1.27523e-05
8.09027e-08
1.27904e-05
5.73747e-08
1.28605e-05
3.19467e-08
1.29407e-05
2.19578e-08
1.30124e-05
2.78425e-08
1.30648e-05
4.21403e-08
1.31002e-05
5.2798e-08
1.31244e-05
5.53415e-08
1.31419e-05
5.25165e-08
1.31534e-05
5.0358e-08
1.31571e-05
5.17493e-08
1.3152e-05
5.58277e-08
1.31404e-05
5.77575e-08
1.31276e-05
5.47835e-08
1.3119e-05
4.53276e-08
3.03714e-08
1.31193e-05
1.10166e-05
1.43601e-07
1.10663e-05
1.71752e-08
1.10818e-05
6.5334e-08
1.10379e-05
1.01256e-07
1.09858e-05
8.40654e-08
1.09669e-05
4.09233e-08
1.09929e-05
1.80353e-09
1.10496e-05
-1.46037e-08
1.11108e-05
-8.37585e-09
1.11595e-05
6.68143e-09
1.11923e-05
1.96886e-08
1.12155e-05
2.71944e-08
1.12386e-05
2.86473e-08
1.12685e-05
2.59112e-08
1.13062e-05
2.00827e-08
1.13482e-05
1.27173e-08
1.13888e-05
4.76102e-09
-3.8499e-09
1.1423e-05
9.59217e-06
2.29394e-07
9.57843e-06
3.0914e-08
9.59364e-06
5.0123e-08
9.61441e-06
8.0485e-08
9.6533e-06
4.51839e-08
9.69877e-06
-4.55449e-09
9.72986e-06
-2.92841e-08
9.74097e-06
-2.57157e-08
9.74165e-06
-9.05435e-09
9.7435e-06
4.83079e-09
9.75289e-06
1.02979e-08
9.77188e-06
8.20417e-09
9.79888e-06
1.65361e-09
9.8307e-06
-5.91276e-09
9.86523e-06
-1.44471e-08
9.90017e-06
-2.22191e-08
9.93344e-06
-2.85082e-08
-3.20934e-08
9.96168e-06
8.3068e-06
1.35967e-08
8.35068e-06
-1.29701e-08
8.35315e-06
4.76487e-08
8.35677e-06
7.68702e-08
8.37062e-06
3.13341e-08
8.39189e-06
-2.58269e-08
8.40905e-06
-4.64465e-08
8.41689e-06
-3.35508e-08
8.42006e-06
-1.22308e-08
8.428e-06
-3.10043e-09
8.447e-06
-8.70166e-09
8.47697e-06
-2.17721e-08
8.51347e-06
-3.48486e-08
8.55183e-06
-4.42672e-08
8.58698e-06
-4.95967e-08
8.61573e-06
-5.09695e-08
8.63679e-06
-4.95686e-08
-4.58167e-08
8.65051e-06
7.23896e-06
-8.90163e-08
7.27393e-06
-4.79395e-08
7.29663e-06
2.49411e-08
7.33661e-06
3.68963e-08
7.36986e-06
-1.91684e-09
7.38589e-06
-4.1857e-08
7.40127e-06
-6.1828e-08
7.42248e-06
-5.47566e-08
7.44442e-06
-3.41786e-08
7.46005e-06
-1.87265e-08
7.46863e-06
-1.72768e-08
7.47485e-06
-2.79954e-08
7.48283e-06
-4.28257e-08
7.49378e-06
-5.52197e-08
7.50664e-06
-6.24613e-08
7.51993e-06
-6.42551e-08
7.53195e-06
-6.15906e-08
-5.49934e-08
7.54113e-06
6.38958e-06
-5.24371e-08
6.38506e-06
-4.34167e-08
6.43346e-06
-2.34613e-08
6.48086e-06
-1.05037e-08
6.49296e-06
-1.40162e-08
6.48015e-06
-2.90402e-08
6.46527e-06
-4.69536e-08
6.46621e-06
-5.56949e-08
6.48336e-06
-5.133e-08
6.50595e-06
-4.1313e-08
6.52303e-06
-3.43632e-08
6.52844e-06
-3.34002e-08
6.52255e-06
-3.69365e-08
6.50997e-06
-4.26419e-08
6.49581e-06
-4.83013e-08
6.4835e-06
-5.19379e-08
6.47473e-06
-5.28212e-08
-4.94829e-08
6.46922e-06
5.61883e-06
9.16576e-08
5.58507e-06
-9.65427e-09
5.59024e-06
-2.86344e-08
5.59035e-06
-1.06188e-08
5.58556e-06
-9.22323e-09
5.5938e-06
-3.72779e-08
5.62296e-06
-7.61175e-08
5.66577e-06
-9.84971e-08
5.70898e-06
-9.45456e-08
5.73924e-06
-7.15672e-08
5.74929e-06
-4.4418e-08
5.74142e-06
-2.55277e-08
5.72376e-06
-1.92826e-08
5.70541e-06
-2.42843e-08
5.69295e-06
-3.58406e-08
5.6896e-06
-4.85968e-08
5.69505e-06
-5.82641e-08
-6.05722e-08
5.70614e-06
4.81428e-06
-1.22392e-07
4.83916e-06
-3.45308e-08
4.8639e-06
-5.33764e-08
4.92083e-06
-6.75477e-08
4.97836e-06
-6.67504e-08
5.00183e-06
-6.07534e-08
4.98081e-06
-5.51004e-08
4.93361e-06
-5.12894e-08
4.88792e-06
-4.8862e-08
4.86236e-06
-4.60032e-08
4.85936e-06
-4.14164e-08
4.87001e-06
-3.61811e-08
4.8835e-06
-3.27695e-08
4.89277e-06
-3.35601e-08
4.89577e-06
-3.88384e-08
4.8938e-06
-4.66219e-08
4.88983e-06
-5.4293e-08
-5.75548e-08
4.88681e-06
4.05514e-06
4.02061e-06
3.96724e-06
3.89969e-06
3.83294e-06
3.77218e-06
3.71708e-06
3.66579e-06
3.61693e-06
3.57093e-06
3.52951e-06
3.49333e-06
3.46056e-06
3.427e-06
3.38816e-06
3.34154e-06
3.28725e-06
3.22969e-06
-6.2007e-08
6.2007e-08
1.7765e-07
-2.39657e-07
5.30684e-07
-3.53033e-07
8.33318e-07
-3.02634e-07
9.85888e-07
-1.52571e-07
9.36907e-07
4.89818e-08
6.89902e-07
2.47004e-07
2.90122e-07
3.9978e-07
-1.33136e-07
4.23258e-07
-4.64894e-07
3.31758e-07
-7.10371e-07
2.45478e-07
-9.24071e-07
2.13699e-07
-1.1014e-06
1.77331e-07
-1.17396e-06
7.25617e-08
-1.12678e-06
-4.71814e-08
-9.95707e-07
-1.31075e-07
-8.87884e-07
-1.07823e-07
-8.60659e-07
-2.72253e-08
-9.18079e-07
5.74203e-08
-1.05357e-06
1.3549e-07
-1.21454e-06
1.60975e-07
-1.40003e-06
1.85485e-07
-1.6334e-06
2.33374e-07
-1.93109e-06
2.97685e-07
-2.30149e-06
3.70406e-07
-2.74984e-06
4.4834e-07
-3.28086e-06
5.31023e-07
-3.88194e-06
6.01086e-07
-4.48676e-06
6.04814e-07
-4.97913e-06
4.92375e-07
-5.2777e-06
2.98568e-07
-5.4199e-06
1.42202e-07
-5.5134e-06
9.34981e-08
-5.61785e-06
1.04448e-07
-5.70784e-06
8.9989e-08
-5.71941e-06
1.15717e-08
-5.62802e-06
-9.13904e-08
-5.44618e-06
-1.81838e-07
-5.21561e-06
-2.3057e-07
-4.99309e-06
-2.22524e-07
-4.82143e-06
-1.71663e-07
-4.69695e-06
-1.24475e-07
-4.57661e-06
-1.2034e-07
-4.42836e-06
-1.48252e-07
-4.27551e-06
-1.52851e-07
-4.18703e-06
-8.84742e-08
-4.19928e-06
1.22521e-08
-4.2641e-06
6.48168e-08
-4.33123e-06
6.71283e-08
-4.35726e-06
2.6029e-08
-4.25888e-06
-9.83753e-08
-3.99073e-06
-2.68152e-07
-3.59384e-06
-3.96887e-07
-3.10308e-06
-4.90769e-07
-2.52978e-06
-5.73297e-07
-1.89972e-06
-6.3006e-07
-1.23213e-06
-6.67593e-07
-5.42349e-07
-6.89777e-07
1.56774e-07
-6.99123e-07
8.5616e-07
-6.99385e-07
1.54745e-06
-6.91295e-07
2.21054e-06
-6.63081e-07
2.83396e-06
-6.23426e-07
3.41905e-06
-5.85088e-07
3.96196e-06
-5.42905e-07
4.4418e-06
-4.79848e-07
4.8111e-06
-3.69296e-07
5.03629e-06
-2.25192e-07
5.10647e-06
-7.01763e-08
4.98038e-06
1.26087e-07
4.74484e-06
2.3554e-07
4.56338e-06
1.81464e-07
4.25921e-06
3.04172e-07
3.56814e-06
6.91068e-07
2.62532e-06
9.42816e-07
2.01127e-06
6.14054e-07
2.14509e-06
-1.33821e-07
2.47372e-06
-3.28635e-07
2.25527e-06
2.18451e-07
1.39069e-06
8.64581e-07
1.79653e-07
1.21104e-06
-1.0842e-06
1.26385e-06
-2.31192e-06
1.22773e-06
-3.45709e-06
1.14517e-06
-4.51016e-06
1.05307e-06
-5.4756e-06
9.65446e-07
-6.36177e-06
8.8617e-07
-7.17636e-06
8.14591e-07
-7.92462e-06
7.48251e-07
-8.60916e-06
6.84547e-07
-9.23015e-06
6.20991e-07
-9.78582e-06
5.55669e-07
-1.02733e-05
4.87458e-07
-1.06893e-05
4.16001e-07
-1.10309e-05
3.41614e-07
-1.12959e-05
2.64962e-07
-1.14825e-05
1.86614e-07
-1.15895e-05
1.07037e-07
-1.16174e-05
2.78702e-08
-1.15729e-05
-4.45225e-08
-1.1458e-05
-1.14848e-07
-1.12752e-05
-1.82839e-07
-1.10279e-05
-2.47244e-07
-1.07193e-05
-3.08632e-07
-1.03532e-05
-3.66137e-07
-9.93383e-06
-4.19327e-07
-9.46618e-06
-4.67651e-07
-8.95562e-06
-5.10559e-07
-8.40798e-06
-5.47634e-07
-7.82939e-06
-5.7859e-07
-7.22609e-06
-6.03309e-07
-6.60422e-06
-6.21866e-07
-5.96965e-06
-6.34572e-07
-5.32776e-06
-6.41884e-07
-4.68351e-06
-6.44249e-07
-4.04139e-06
-6.42125e-07
-3.40533e-06
-6.36058e-07
-2.77885e-06
-6.26481e-07
-2.16572e-06
-6.13132e-07
-1.57011e-06
-5.95607e-07
-9.94878e-07
-5.75235e-07
-4.44602e-07
-5.50276e-07
7.74016e-08
-5.22003e-07
5.69786e-07
-4.92384e-07
1.027e-06
-4.57214e-07
1.44527e-06
-4.18272e-07
1.82256e-06
-3.77286e-07
2.1675e-06
-3.44939e-07
2.49687e-06
-3.29369e-07
2.79745e-06
-3.00588e-07
3.02087e-06
-2.23414e-07
3.18922e-06
-1.68355e-07
3.40069e-06
-2.11463e-07
3.58581e-06
-1.85124e-07
3.59164e-06
-5.83337e-09
3.60013e-06
-8.48288e-09
3.72112e-06
-1.20997e-07
3.46758e-06
2.5354e-07
2.63213e-06
8.35458e-07
1.78268e-06
8.49447e-07
1.31124e-06
4.71437e-07
1.1509e-06
1.60338e-07
1.07594e-06
7.49678e-08
9.27187e-07
1.4875e-07
6.98255e-07
2.28931e-07
4.65314e-07
2.32941e-07
3.18291e-07
1.47023e-07
2.95954e-07
2.23377e-08
3.49939e-07
-5.39856e-08
4.09177e-07
-5.92374e-08
5.46197e-07
-1.3702e-07
8.13102e-07
-2.66905e-07
9.34189e-07
-1.21086e-07
9.35955e-07
-1.7664e-09
1.36016e-06
-4.2421e-07
2.02346e-06
-6.63291e-07
1.75285e-06
2.70608e-07
-9.69787e-08
1.84983e-06
-2.37528e-06
2.2783e-06
-4.01034e-06
1.63506e-06
-5.18551e-06
1.17517e-06
-6.04275e-06
8.57239e-07
-6.59585e-06
5.53101e-07
-6.84722e-06
2.51369e-07
-6.80679e-06
-4.04359e-08
-6.49646e-06
-3.10329e-07
-5.95135e-06
-5.45102e-07
-5.21722e-06
-7.34139e-07
-4.35645e-06
-8.60769e-07
-3.43726e-06
-9.19183e-07
-2.51227e-06
-9.24993e-07
-1.60614e-06
-9.06132e-07
-7.22173e-07
-8.83966e-07
1.63544e-07
-8.85716e-07
1.07021e-06
-9.06663e-07
2.01664e-06
-9.46437e-07
2.92667e-06
-9.10027e-07
3.74359e-06
-8.16915e-07
4.20922e-06
-4.65634e-07
-1.64769e-07
4.37399e-06
3.77511e-07
-3.15504e-07
9.13715e-07
-7.75861e-07
1.35586e-06
-7.95181e-07
1.66549e-06
-6.12257e-07
1.84473e-06
-3.31816e-07
1.91321e-06
-1.94927e-08
1.82426e-06
3.35947e-07
1.57582e-06
6.48224e-07
1.13038e-06
8.68701e-07
5.37931e-07
9.24202e-07
-1.94174e-08
8.02826e-07
-3.83598e-07
5.7788e-07
-5.36281e-07
3.30014e-07
-5.74457e-07
1.10738e-07
-4.90364e-07
-1.31275e-07
-2.9693e-07
-3.24509e-07
-2.16332e-07
-1.88422e-07
-3.2964e-07
8.60831e-08
-5.42163e-07
2.69944e-07
-8.70212e-07
4.6354e-07
-1.28858e-06
5.79338e-07
-1.74644e-06
6.43353e-07
-2.22447e-06
7.11404e-07
-2.70369e-06
7.76901e-07
-3.16822e-06
8.3494e-07
-3.59756e-06
8.77674e-07
-3.96076e-06
8.94228e-07
-4.22588e-06
8.66206e-07
-4.39727e-06
7.76201e-07
-4.53593e-06
6.31031e-07
-4.71845e-06
4.81095e-07
-4.95325e-06
3.77003e-07
-5.16777e-06
3.08016e-07
-5.29463e-06
2.31302e-07
-5.34088e-06
1.36244e-07
-5.36795e-06
3.86445e-08
-5.39221e-06
-6.71377e-08
-5.40867e-06
-1.65369e-07
-5.4064e-06
-2.32848e-07
-5.36388e-06
-2.65038e-07
-5.25099e-06
-2.84557e-07
-5.04596e-06
-3.29508e-07
-4.75718e-06
-4.09113e-07
-4.43259e-06
-4.72847e-07
-4.12743e-06
-4.58013e-07
-3.84401e-06
-3.71889e-07
-3.54058e-06
-2.91181e-07
-3.20487e-06
-2.70892e-07
-2.83934e-06
-2.98405e-07
-2.42008e-06
-3.93228e-07
-1.95558e-06
-5.62878e-07
-1.45707e-06
-7.66655e-07
-9.23752e-07
-9.30208e-07
-3.41355e-07
-1.07317e-06
2.73572e-07
-1.18822e-06
9.06865e-07
-1.26335e-06
1.55371e-06
-1.31444e-06
2.20323e-06
-1.3393e-06
2.84531e-06
-1.3412e-06
3.47393e-06
-1.328e-06
4.08448e-06
-1.30184e-06
4.66474e-06
-1.24335e-06
5.20159e-06
-1.16027e-06
5.69432e-06
-1.07781e-06
6.13596e-06
-9.84548e-07
6.50923e-06
-8.53117e-07
6.81115e-06
-6.71218e-07
6.96993e-06
-3.83974e-07
6.93251e-06
-3.27542e-08
6.79502e-06
2.63574e-07
6.49638e-06
5.34182e-07
5.89933e-06
7.78513e-07
5.40883e-06
7.94674e-07
5.02701e-06
1.07289e-06
4.32419e-06
1.64563e-06
3.70617e-06
1.23208e-06
3.06228e-06
5.1007e-07
1.80748e-06
9.26167e-07
1.42046e-07
1.88388e-06
-1.40493e-06
2.41156e-06
-2.6978e-06
2.50391e-06
-3.81905e-06
2.3851e-06
-4.79159e-06
2.20027e-06
-5.65152e-06
2.0051e-06
-6.4243e-06
1.82585e-06
-7.12871e-06
1.66985e-06
-7.77734e-06
1.53481e-06
-8.37743e-06
1.41468e-06
-8.93234e-06
1.30317e-06
-9.44281e-06
1.19501e-06
-9.90705e-06
1.08523e-06
-1.03221e-05
9.70692e-07
-1.06845e-05
8.49932e-07
-1.09912e-05
7.22655e-07
-1.1239e-05
5.89432e-07
-1.14255e-05
4.51482e-07
-1.15495e-05
3.10548e-07
-1.16108e-05
1.68401e-07
-1.16088e-05
2.58125e-08
-1.154e-05
-1.13342e-07
-1.14045e-05
-2.50275e-07
-1.12039e-05
-3.83509e-07
-1.09396e-05
-5.11506e-07
-1.06152e-05
-6.32992e-07
-1.02345e-05
-7.46913e-07
-9.80159e-06
-8.52203e-07
-9.3215e-06
-9.4774e-07
-8.79959e-06
-1.03246e-06
-8.24175e-06
-1.10548e-06
-7.65414e-06
-1.1662e-06
-7.04303e-06
-1.21442e-06
-6.4146e-06
-1.2503e-06
-5.77462e-06
-1.27455e-06
-5.12826e-06
-1.28824e-06
-4.48015e-06
-1.29236e-06
-3.8344e-06
-1.28787e-06
-3.19454e-06
-1.27592e-06
-2.5637e-06
-1.25732e-06
-1.94544e-06
-1.23139e-06
-1.34372e-06
-1.19733e-06
-7.61696e-07
-1.15726e-06
-2.04404e-07
-1.10757e-06
3.27841e-07
-1.05425e-06
8.27689e-07
-9.92232e-07
1.29466e-06
-9.24183e-07
1.72902e-06
-8.52632e-07
2.12951e-06
-7.77775e-07
2.48418e-06
-6.99614e-07
2.78239e-06
-6.27574e-07
3.0515e-06
-5.69703e-07
3.32637e-06
-4.98282e-07
3.5602e-06
-4.02181e-07
3.70355e-06
-3.54817e-07
3.84971e-06
-3.31281e-07
4.02378e-06
-1.79907e-07
4.0664e-06
-5.11029e-08
4.05076e-06
-1.05357e-07
4.19097e-06
1.13335e-07
4.35783e-06
6.68593e-07
4.30088e-06
9.06397e-07
3.97741e-06
7.94911e-07
3.44795e-06
6.89796e-07
2.8289e-06
6.94017e-07
2.2539e-06
7.23755e-07
1.78939e-06
6.93435e-07
1.45738e-06
5.64953e-07
1.26272e-06
3.41679e-07
1.1919e-06
9.31639e-08
1.20348e-06
-6.55725e-08
1.23062e-06
-8.63689e-08
1.25893e-06
-1.65336e-07
1.37227e-06
-3.8024e-07
1.59289e-06
-3.4171e-07
1.88259e-06
-2.91469e-07
2.21712e-06
-7.58736e-07
2.05914e-06
-5.05313e-07
6.38229e-07
1.69152e-06
-1.70117e-06
4.18923e-06
-3.41796e-06
3.99508e-06
-4.51373e-06
2.73084e-06
-5.41844e-06
2.07988e-06
-6.11094e-06
1.54974e-06
-6.58339e-06
1.02555e-06
-6.79698e-06
4.64962e-07
-6.74297e-06
-9.44449e-08
-6.4201e-06
-6.33206e-07
-5.85173e-06
-1.11347e-06
-5.09144e-06
-1.49442e-06
-4.20557e-06
-1.74664e-06
-3.26355e-06
-1.8612e-06
-2.32092e-06
-1.86763e-06
-1.40829e-06
-1.81876e-06
-5.24566e-07
-1.76769e-06
3.51479e-07
-1.76176e-06
1.25121e-06
-1.80639e-06
2.20958e-06
-1.90481e-06
3.21193e-06
-1.91238e-06
4.17667e-06
-1.78165e-06
4.88614e-06
-1.17511e-06
-4.72461e-07
5.19384e-06
7.60286e-07
-1.07579e-06
1.35955e-06
-1.37513e-06
1.71858e-06
-1.15421e-06
1.91581e-06
-8.09479e-07
1.99595e-06
-4.11961e-07
1.98231e-06
-5.84898e-09
1.8991e-06
4.19152e-07
1.75999e-06
7.87335e-07
1.54921e-06
1.07948e-06
1.23963e-06
1.23378e-06
8.5688e-07
1.18558e-06
4.92373e-07
9.42387e-07
1.95716e-07
6.26671e-07
2.22304e-08
2.84224e-07
-4.5052e-08
-6.39927e-08
-3.12153e-07
-5.74073e-08
-7.41088e-07
2.40514e-07
-1.19896e-06
5.4395e-07
-1.65062e-06
7.21608e-07
-2.06426e-06
8.77177e-07
-2.48874e-06
1.00382e-06
-2.93953e-06
1.09415e-06
-3.40137e-06
1.17325e-06
-3.8522e-06
1.22773e-06
-4.27429e-06
1.25703e-06
-4.64748e-06
1.25087e-06
-4.95496e-06
1.20171e-06
-5.19325e-06
1.10449e-06
-5.38276e-06
9.65716e-07
-5.56055e-06
8.0882e-07
-5.73989e-06
6.60436e-07
-5.89726e-06
5.3437e-07
-6.00471e-06
4.1547e-07
-6.05374e-06
2.80333e-07
-6.0482e-06
1.30706e-07
-5.99262e-06
-1.69367e-08
-5.91753e-06
-1.42235e-07
-5.8292e-06
-2.5369e-07
-5.70987e-06
-3.52183e-07
-5.5274e-06
-4.47512e-07
-5.26273e-06
-5.49228e-07
-4.92981e-06
-6.62425e-07
-4.56806e-06
-7.70863e-07
-4.19731e-06
-8.43593e-07
-3.7962e-06
-8.59128e-07
-3.3379e-06
-8.30182e-07
-2.8246e-06
-8.04481e-07
-2.26931e-06
-8.26186e-07
-1.6714e-06
-8.96312e-07
-1.05888e-06
-1.00575e-06
-4.76867e-07
-1.14489e-06
6.86202e-08
-1.31214e-06
5.95217e-07
-1.45681e-06
1.11641e-06
-1.59436e-06
1.64438e-06
-1.71619e-06
2.18584e-06
-1.80481e-06
2.72685e-06
-1.85545e-06
3.26824e-06
-1.88069e-06
3.81928e-06
-1.89225e-06
4.36604e-06
-1.87476e-06
4.88615e-06
-1.82195e-06
5.36926e-06
-1.72646e-06
5.81849e-06
-1.6095e-06
6.24329e-06
-1.50262e-06
6.65379e-06
-1.39504e-06
7.03013e-06
-1.22946e-06
7.32086e-06
-9.61952e-07
7.49952e-06
-5.6263e-07
7.5577e-06
-9.09304e-08
7.4465e-06
3.74766e-07
7.06467e-06
9.16021e-07
6.54691e-06
1.29627e-06
5.95115e-06
1.39043e-06
5.05293e-06
1.97111e-06
4.20791e-06
2.49065e-06
3.40905e-06
2.03094e-06
1.85056e-06
2.06855e-06
-1.5674e-07
2.93347e-06
-1.75115e-06
3.47829e-06
-2.86433e-06
3.52474e-06
-3.69889e-06
3.33847e-06
-4.39284e-06
3.07904e-06
-5.01734e-06
2.82477e-06
-5.61514e-06
2.60289e-06
-6.20551e-06
2.41622e-06
-6.79291e-06
2.25725e-06
-7.37378e-06
2.11568e-06
-7.94114e-06
1.98203e-06
-8.48677e-06
1.8488e-06
-9.00213e-06
1.71038e-06
-9.47943e-06
1.56253e-06
-9.91136e-06
1.40262e-06
-1.02912e-05
1.22974e-06
-1.06131e-05
1.04459e-06
-1.08727e-05
8.48988e-07
-1.10665e-05
6.45271e-07
-1.11919e-05
4.36041e-07
-1.12478e-05
2.2422e-07
-1.12323e-05
1.03076e-08
-1.11511e-05
-1.9455e-07
-1.1003e-05
-3.98348e-07
-1.07906e-05
-5.95902e-07
-1.05166e-05
-7.85529e-07
-1.0184e-05
-9.65569e-07
-9.79643e-06
-1.13447e-06
-9.35807e-06
-1.29056e-06
-8.87368e-06
-1.43212e-06
-8.34872e-06
-1.55743e-06
-7.78924e-06
-1.66495e-06
-7.20181e-06
-1.75364e-06
-6.59321e-06
-1.82301e-06
-5.97022e-06
-1.87328e-06
-5.33916e-06
-1.90561e-06
-4.70542e-06
-1.92198e-06
-4.07357e-06
-1.92421e-06
-3.44745e-06
-1.91399e-06
-2.83005e-06
-1.89333e-06
-2.22355e-06
-1.86382e-06
-1.63072e-06
-1.82421e-06
-1.05339e-06
-1.77466e-06
-4.93838e-07
-1.71681e-06
4.6197e-08
-1.6476e-06
5.64561e-07
-1.57261e-06
1.05619e-06
-1.48387e-06
1.51731e-06
-1.3853e-06
1.94382e-06
-1.27914e-06
2.33602e-06
-1.16998e-06
2.69834e-06
-1.06194e-06
3.02557e-06
-9.54798e-07
3.3034e-06
-8.47539e-07
3.54172e-06
-7.36598e-07
3.76013e-06
-6.20592e-07
3.93183e-06
-5.26514e-07
4.05092e-06
-4.50371e-07
4.17658e-06
-3.05567e-07
4.26724e-06
-1.41771e-07
4.25293e-06
-9.10403e-08
4.29748e-06
6.87839e-08
4.50127e-06
4.64802e-07
4.68546e-06
7.22205e-07
4.75533e-06
7.25041e-07
4.71044e-06
7.34688e-07
4.55699e-06
8.47463e-07
4.29357e-06
9.87182e-07
3.97632e-06
1.01068e-06
3.66449e-06
8.76787e-07
3.40218e-06
6.03983e-07
3.20059e-06
2.94754e-07
3.03209e-06
1.02928e-07
2.85376e-06
9.19606e-08
2.59584e-06
9.25919e-08
2.28243e-06
-6.68329e-08
2.15918e-06
-2.1846e-07
2.30336e-06
-4.35652e-07
2.28663e-06
-7.42007e-07
1.4573e-06
3.24024e-07
-3.92227e-07
3.54104e-06
-2.23645e-06
6.03345e-06
-3.30262e-06
5.06125e-06
-4.28023e-06
3.70845e-06
-5.27869e-06
3.07834e-06
-6.08328e-06
2.35434e-06
-6.64213e-06
1.5844e-06
-6.90229e-06
7.25121e-07
-6.8612e-06
-1.35544e-07
-6.53431e-06
-9.6009e-07
-5.95102e-06
-1.69677e-06
-5.16952e-06
-2.27591e-06
-4.26499e-06
-2.65118e-06
-3.31608e-06
-2.81012e-06
-2.38422e-06
-2.79948e-06
-1.50302e-06
-2.69996e-06
-6.73839e-07
-2.59687e-06
1.30093e-07
-2.56569e-06
9.39264e-07
-2.61557e-06
1.80211e-06
-2.76765e-06
2.74787e-06
-2.85814e-06
3.80675e-06
-2.84053e-06
4.88195e-06
-2.25031e-06
-1.16228e-06
5.57177e-06
5.53499e-07
-1.62929e-06
8.25809e-07
-1.64744e-06
9.56763e-07
-1.28517e-06
1.0221e-06
-8.74819e-07
1.03414e-06
-4.23999e-07
1.01042e-06
1.78745e-08
9.86015e-07
4.43554e-07
9.29011e-07
8.44338e-07
8.46512e-07
1.16198e-06
7.19901e-07
1.36039e-06
5.23654e-07
1.38183e-06
2.59552e-07
1.20649e-06
1.51421e-08
8.71081e-07
-1.6795e-07
4.67316e-07
-5.81937e-07
3.49995e-07
-1.26936e-06
6.3002e-07
-1.90786e-06
8.79008e-07
-2.42083e-06
1.05692e-06
-2.93502e-06
1.2358e-06
-3.43434e-06
1.37649e-06
-3.92201e-06
1.4915e-06
-4.4002e-06
1.57234e-06
-4.85473e-06
1.62777e-06
-5.27888e-06
1.65187e-06
-5.66693e-06
1.64508e-06
-6.01764e-06
1.60158e-06
-6.33549e-06
1.51955e-06
-6.63142e-06
1.40042e-06
-6.91624e-06
1.25054e-06
-7.18666e-06
1.07924e-06
-7.42205e-06
8.95824e-07
-7.59455e-06
7.06875e-07
-7.69379e-06
5.14708e-07
-7.733e-06
3.1954e-07
-7.72309e-06
1.20802e-07
-7.65685e-06
-8.31831e-08
-7.52071e-06
-2.7837e-07
-7.31309e-06
-4.61314e-07
-7.03344e-06
-6.31832e-07
-6.69298e-06
-7.8797e-07
-6.31335e-06
-9.28855e-07
-5.9201e-06
-1.05568e-06
-5.5236e-06
-1.16736e-06
-5.10786e-06
-1.25934e-06
-4.63719e-06
-1.32979e-06
-4.08751e-06
-1.37987e-06
-3.4726e-06
-1.41938e-06
-2.8336e-06
-1.46519e-06
-2.20309e-06
-1.52682e-06
-1.61367e-06
-1.59517e-06
-1.07453e-06
-1.68403e-06
-5.87399e-07
-1.79927e-06
-1.30199e-07
-1.914e-06
3.16373e-07
-2.04094e-06
7.7032e-07
-2.17014e-06
1.23596e-06
-2.27045e-06
1.70268e-06
-2.32217e-06
2.1835e-06
-2.36151e-06
2.69906e-06
-2.40781e-06
3.20755e-06
-2.38325e-06
3.66485e-06
-2.27925e-06
4.0575e-06
-2.1191e-06
4.4194e-06
-1.97141e-06
4.79694e-06
-1.88016e-06
5.21514e-06
-1.81324e-06
5.65648e-06
-1.6708e-06
6.05634e-06
-1.36181e-06
6.37762e-06
-8.83909e-07
6.60317e-06
-3.16482e-07
6.61447e-06
3.6347e-07
6.43591e-06
1.09458e-06
6.04377e-06
1.6884e-06
5.09413e-06
2.34008e-06
3.94635e-06
3.11888e-06
3.13862e-06
3.29839e-06
1.87376e-06
3.2958e-06
1.81037e-09
3.9405e-06
-1.54745e-06
4.48273e-06
-2.53247e-06
4.46331e-06
-3.19255e-06
4.18482e-06
-3.72284e-06
3.86876e-06
-4.22989e-06
3.58609e-06
-4.75817e-06
3.35306e-06
-5.31696e-06
3.16168e-06
-5.89757e-06
2.99684e-06
-6.48543e-06
2.84511e-06
-7.06649e-06
2.69675e-06
-7.62936e-06
2.5449e-06
-8.16511e-06
2.38455e-06
-8.66645e-06
2.21172e-06
-9.12681e-06
2.02289e-06
-9.53988e-06
1.81569e-06
-9.89982e-06
1.58968e-06
-1.02016e-05
1.34637e-06
-1.04412e-05
1.08856e-06
-1.06157e-05
8.19802e-07
-1.07237e-05
5.43997e-07
-1.07646e-05
2.65125e-07
-1.07413e-05
-1.29504e-08
-1.06493e-05
-2.86532e-07
-1.04939e-05
-5.53753e-07
-1.02764e-05
-8.1346e-07
-9.99836e-06
-1.06353e-06
-9.66227e-06
-1.30166e-06
-9.27106e-06
-1.52568e-06
-8.82832e-06
-1.73331e-06
-8.33825e-06
-1.92219e-06
-7.80583e-06
-2.08984e-06
-7.23688e-06
-2.23391e-06
-6.63799e-06
-2.35252e-06
-6.01641e-06
-2.44459e-06
-5.37977e-06
-2.50993e-06
-4.73558e-06
-2.54981e-06
-4.09055e-06
-2.56701e-06
-3.45082e-06
-2.56393e-06