/*--------------------------------*- C++ -*----------------------------------*\
| =========                 |                                                 |
| \\      /  F ield         | OpenFOAM: The Open Source CFD Toolbox           |
|  \\    /   O peration     | Version:  2112                                  |
|   \\  /    A nd           | Website:  www.openfoam.com                      |
|    \\/     M anipulation  |                                                 |
\*---------------------------------------------------------------------------*/
FoamFile
{
    version     2.0;
    format      ascii;
    arch        "LSB;label=32;scalar=64";
    class       volScalarField;
    location    "0.14";
    object      kU;
}
// * * * * * * * * * * * * * * * * * * * * * * * * * * * * * * * * * * * * * //

dimensions      [0 2 -2 0 0 0 0];

internalField   nonuniform List<scalar> 
12225
(
1.01627
1.74073
2.45415
3.2286
4.12046
5.1652
6.37878
7.75805
9.28139
10.9118
12.6019
14.3022
15.9686
17.5673
19.0725
20.4859
21.6932
22.5891
0.294817
0.353137
0.429807
0.5266
0.644686
0.784145
0.945265
1.13031
1.34523
1.59842
1.9012
2.26221
2.68411
3.16268
3.68781
4.25929
4.92264
5.62294
0.265427
0.270456
0.276042
0.28273
0.291609
0.303574
0.319436
0.340271
0.367649
0.403594
0.450729
0.511774
0.589068
0.684334
0.798321
0.933845
1.0969
1.28967
0.263235
0.263896
0.264475
0.26497
0.265443
0.265896
0.266319
0.266788
0.267562
0.269067
0.271883
0.276693
0.284216
0.295159
0.310146
0.330106
0.355948
0.388215
0.262824
0.26304
0.263137
0.263133
0.263047
0.262871
0.262571
0.262129
0.261565
0.260927
0.260291
0.259756
0.259436
0.259458
0.259985
0.261138
0.263057
0.265781
0.262685
0.262829
0.2629
0.262889
0.262824
0.262701
0.262503
0.262223
0.261865
0.261444
0.260981
0.260499
0.260022
0.259575
0.25918
0.258864
0.258661
0.258587
0.262612
0.262718
0.262796
0.262831
0.262831
0.262786
0.26269
0.262544
0.262352
0.262125
0.261877
0.261619
0.261364
0.261119
0.260895
0.260698
0.260544
0.260443
0.26256
0.262632
0.262706
0.262767
0.262812
0.262831
0.262814
0.262759
0.26267
0.262562
0.262445
0.262329
0.26222
0.262124
0.262045
0.261987
0.261955
0.261952
0.262518
0.262556
0.262613
0.26268
0.262748
0.262807
0.262843
0.262852
0.262838
0.262809
0.262776
0.262746
0.262724
0.262715
0.262722
0.26275
0.262801
0.262871
0.262475
0.262485
0.262522
0.262578
0.262647
0.262721
0.262789
0.262843
0.262881
0.262909
0.262933
0.262961
0.262998
0.263048
0.263113
0.263195
0.263292
0.263399
0.262438
0.262414
0.262432
0.262472
0.262531
0.262602
0.262677
0.262751
0.26282
0.262885
0.262949
0.263017
0.263091
0.263175
0.263271
0.263379
0.263498
0.263622
0.262409
0.262355
0.26235
0.262376
0.262421
0.262482
0.262553
0.262628
0.262706
0.262786
0.262868
0.262956
0.263049
0.26315
0.263259
0.263377
0.263502
0.263629
0.262385
0.262302
0.262273
0.262283
0.262315
0.262364
0.262425
0.262495
0.262572
0.262653
0.262741
0.262835
0.262935
0.263042
0.263156
0.263275
0.263398
0.26352
0.262363
0.262253
0.262195
0.262183
0.262202
0.262237
0.262286
0.262345
0.262413
0.262489
0.262572
0.262663
0.262759
0.262862
0.26297
0.263081
0.263195
0.263306
0.262345
0.262209
0.262123
0.262085
0.262084
0.262106
0.262142
0.262189
0.262245
0.26231
0.262383
0.262462
0.262547
0.262638
0.262732
0.262829
0.262926
0.263021
0.26233
0.262174
0.262063
0.261998
0.261974
0.261979
0.262003
0.262037
0.262081
0.262133
0.262192
0.262257
0.262327
0.262401
0.262477
0.262555
0.262633
0.262708
0.26232
0.262149
0.262019
0.261931
0.261883
0.261868
0.261878
0.261901
0.261933
0.261972
0.262018
0.262068
0.262121
0.262178
0.262235
0.262294
0.262351
0.262406
0.262315
0.262135
0.261993
0.261889
0.261824
0.26179
0.261784
0.261796
0.261817
0.261845
0.261878
0.261914
0.261952
0.261992
0.262033
0.262073
0.262113
0.262151
0.262316
0.262136
0.261991
0.261882
0.261809
0.261766
0.261748
0.261749
0.261764
0.261783
0.261806
0.26183
0.261856
0.261883
0.261909
0.261934
0.261958
0.261981
0.262324
0.262153
0.262018
0.261918
0.261852
0.261814
0.2618
0.261802
0.261814
0.261831
0.261849
0.261867
0.261884
0.261899
0.261913
0.261925
0.261935
0.261943
0.262336
0.262182
0.262063
0.26198
0.26193
0.261906
0.261902
0.261909
0.261923
0.261937
0.261949
0.261958
0.261961
0.261959
0.261953
0.261944
0.261933
0.26192
0.262355
0.262224
0.262129
0.262069
0.262039
0.262031
0.262036
0.262047
0.262055
0.262059
0.262055
0.26204
0.262018
0.261988
0.261952
0.261913
0.261872
0.26183
0.262383
0.262282
0.262216
0.262179
0.262163
0.26216
0.262162
0.26216
0.26215
0.262127
0.262089
0.262038
0.261975
0.261904
0.261825
0.261743
0.261659
0.261575
0.262422
0.262358
0.262316
0.262286
0.262264
0.262246
0.262222
0.262187
0.262136
0.262066
0.261979
0.261874
0.261754
0.261623
0.261483
0.261337
0.261188
0.261039
0.262473
0.262444
0.262411
0.262368
0.262317
0.262257
0.262182
0.262086
0.261969
0.261827
0.261662
0.261474
0.261265
0.261038
0.260797
0.260546
0.260287
0.260027
0.262543
0.26255
0.262527
0.26247
0.26238
0.262259
0.262104
0.261913
0.261683
0.261413
0.261104
0.260757
0.260372
0.259955
0.25951
0.259045
0.258568
0.258091
0.262686
0.26287
0.263006
0.263044
0.262998
0.26288
0.262695
0.262444
0.262126
0.261745
0.261308
0.260831
0.260344
0.259889
0.259514
0.259265
0.259206
0.259404
0.263424
0.26527
0.267109
0.268665
0.270072
0.271542
0.273322
0.275671
0.278811
0.282915
0.288127
0.294596
0.302506
0.312091
0.323631
0.33744
0.353922
0.373503
0.275081
0.295646
0.322532
0.356582
0.398368
0.448092
0.505845
0.571511
0.644699
0.724866
0.811572
0.904756
1.00495
1.11343
1.2319
1.36203
1.5065
1.66588
0.731582
1.17601
1.58361
1.98444
2.40633
2.86815
3.38168
3.95417
4.58977
5.28998
6.05364
6.87692
7.7534
8.67448
9.63
10.609
11.5989
12.5842
0.158368
0.15798
0.157815
0.157869
0.158241
0.158965
0.160019
0.161348
0.162877
0.164516
0.166161
0.167747
0.169245
0.170674
0.172118
0.173766
0.176008
0.179611
0.185777
0.196309
0.21345
0.239231
0.274646
0.319307
0.372633
0.434798
0.505003
0.581213
0.661679
0.745133
0.83065
0.917564
1.00543
1.09399
1.18313
1.27285
1.36321
1.45432
1.5463
1.63927
1.73333
1.82854
1.92495
2.02257
2.12138
2.22132
2.32232
2.42427
2.52703
2.63046
2.73439
2.83865
2.94304
3.04739
3.15149
3.25517
3.35823
3.46049
3.5618
3.662
3.76093
3.85846
3.95448
4.04886
4.14153
4.23237
4.32133
4.40831
4.49327
4.57614
4.65687
4.73541
4.81171
4.88573
4.95743
5.02677
5.0937
5.15819
5.2202
5.27971
5.33667
5.39106
5.44284
5.49198
5.53846
5.58225
5.62331
5.66162
5.69715
5.72989
5.75979
5.78685
5.81103
5.83231
5.85069
5.86614
5.87866
5.88822
5.89482
5.89841
5.89897
5.89643
5.89071
5.8825
5.87193
5.85906
5.84392
5.8266
5.80715
5.78566
5.76218
5.73681
5.7096
5.68064
5.65
5.61775
5.58396
5.5487
5.51203
5.47401
5.43468
5.3941
5.35229
5.30928
5.26508
5.21969
5.17308
5.12522
5.07607
5.02554
4.97355
4.91997
4.86469
4.80752
4.74829
4.68679
4.62278
4.55601
4.48618
4.41301
4.33618
4.25535
4.17021
4.08043
3.98572
3.88585
3.7806
3.66987
3.55368
3.43216
3.30568
3.17485
3.04063
2.90441
2.769
2.64218
2.51557
2.43402
2.41809
2.47857
2.60469
2.77807
2.95419
3.14484
3.35023
3.57209
3.81268
4.07392
4.35772
4.66591
5.00029
5.36248
5.75389
6.17545
6.6276
7.10982
7.62211
8.16233
8.75629
9.35539
0.164957
0.162903
0.160897
0.159058
0.157533
0.156397
0.155677
0.155382
0.155512
0.156059
0.157006
0.158334
0.160025
0.162066
0.164472
0.167328
0.170887
0.175675
0.182604
0.193206
0.209431
0.233086
0.265102
0.305246
0.352569
0.406026
0.464498
0.526702
0.591435
0.657703
0.724731
0.791946
0.858946
0.925476
0.991402
1.05667
1.12131
1.18534
1.24884
1.31185
1.37443
1.4366
1.49836
1.55971
1.62062
1.68104
1.74092
1.80019
1.85879
1.91664
1.97366
2.02978
2.08494
2.13907
2.19212
2.24404
2.29479
2.34434
2.39267
2.43977
2.48562
2.53024
2.57361
2.61575
2.65668
2.69639
2.73492
2.77226
2.80844
2.84346
2.87734
2.91009
2.94171
2.97223
3.00163
3.02994
3.05715
3.08327
3.10832
3.13229
3.15519
3.17703
3.19781
3.21754
3.23622
3.25387
3.27049
3.28608
3.30064
3.3142
3.32674
3.33828
3.34883
3.3584
3.36699
3.37462
3.3813
3.38704
3.39188
3.39583
3.39894
3.40129
3.40341
3.40504
3.40614
3.40672
3.4068
3.40644
3.40567
3.40453
3.40305
3.40127
3.39922
3.39695
3.39449
3.39187
3.38912
3.38627
3.38334
3.38037
3.37736
3.37435
3.37133
3.36833
3.36533
3.36234
3.35933
3.35629
3.35318
3.34996
3.34657
3.34295
3.33899
3.33459
3.32963
3.32395
3.31738
3.30972
3.30075
3.29019
3.27777
3.26315
3.24601
3.22594
3.20258
3.17549
3.14429
3.10856
3.06794
3.02215
2.971
2.91441
2.85256
2.78598
2.71607
2.64657
2.58065
2.54075
2.53968
2.5804
2.65339
2.74423
2.82963
2.9099
2.98662
3.06134
3.13569
3.21125
3.28957
3.37218
3.46066
3.55664
3.6618
3.77787
3.90668
4.05029
4.21133
4.39563
4.61786
4.9331
0.177731
0.17275
0.16808
0.16387
0.160229
0.15718
0.154717
0.152836
0.151552
0.150892
0.1509
0.151599
0.153002
0.155119
0.157968
0.161632
0.16631
0.172364
0.1806
0.192307
0.209099
0.232422
0.262954
0.300375
0.343688
0.391693
0.443238
0.497254
0.5528
0.609086
0.665485
0.721519
0.776849
0.831258
0.884623
0.936896
0.98808
1.03821
1.08732
1.13546
1.18266
1.22896
1.27435
1.31885
1.36243
1.40509
1.4468
1.48754
1.52728
1.56601
1.6037
1.64035
1.67596
1.71052
1.74405
1.77657
1.80809
1.83865
1.86827
1.89701
1.92489
1.95196
1.97826
2.00382
2.02869
2.0529
2.07647
2.09945
2.12186
2.14372
2.16505
2.18587
2.2062
2.22605
2.24544
2.26437
2.28287
2.30094
2.31859
2.33584
2.35269
2.36916
2.38525
2.40098
2.41635
2.43137
2.44605
2.46039
2.4744
2.48809
2.50146
2.51451
2.52726
2.5397
2.55186
2.56374
2.57536
2.58674
2.59791
2.60891
2.61979
2.63086
2.64193
2.6529
2.66377
2.67454
2.68522
2.69584
2.70641
2.71695
2.72747
2.738
2.74854
2.75912
2.76976
2.78046
2.79124
2.80213
2.81312
2.82423
2.83548
2.84686
2.8584
2.87008
2.8819
2.89387
2.90596
2.91816
2.93044
2.94277
2.9551
2.96737
2.97952
2.99145
3.00307
3.01426
3.02487
3.03474
3.04369
3.0515
3.05794
3.06274
3.06562
3.06627
3.06433
3.05948
3.05134
3.03959
3.02391
3.00406
2.97992
2.95151
2.91914
2.88358
2.8461
2.80892
2.77507
2.75601
2.75893
2.78285
2.82136
2.86598
2.9064
2.94125
2.97074
2.99541
3.01618
3.0341
3.05017
3.06542
3.08087
3.0976
3.11674
3.13957
3.16754
3.20256
3.24714
3.3069
3.39113
3.52871
0.19236
0.184108
0.176625
0.170098
0.16454
0.159865
0.155985
0.152842
0.150424
0.148762
0.147914
0.147929
0.14886
0.150755
0.153688
0.157735
0.163054
0.170031
0.17939
0.192232
0.20986
0.233345
0.263069
0.298594
0.338926
0.382907
0.429456
0.477642
0.526689
0.575966
0.624973
0.673329
0.720766
0.767105
0.812249
0.85616
0.898838
0.940313
0.980622
1.01981
1.0579
1.09494
1.13094
1.16591
1.19988
1.23284
1.26481
1.2958
1.32582
1.35489
1.38303
1.41029
1.43669
1.46228
1.48711
1.51124
1.53471
1.55759
1.57993
1.6018
1.62324
1.64431
1.66505
1.68552
1.70574
1.72576
1.7456
1.76528
1.78483
1.80426
1.82359
1.84282
1.86198
1.88106
1.90007
1.91903
1.93794
1.9568
1.97562
1.9944
2.01316
2.0319
2.05062
2.06932
2.08801
2.10669
2.12536
2.14402
2.16266
2.1813
2.19992
2.21853
2.23711
2.25569
2.27424
2.29279
2.31135
2.32993
2.34856
2.36727
2.38615
2.40511
2.42408
2.44304
2.46197
2.48087
2.49975
2.5186
2.53744
2.55627
2.57508
2.59389
2.61271
2.63153
2.65036
2.66921
2.68808
2.70698
2.72591
2.74487
2.76386
2.7829
2.80197
2.82109
2.84023
2.8594
2.87858
2.89775
2.91689
2.93597
2.95495
2.97379
2.99242
3.01077
3.02877
3.04631
3.06329
3.07957
3.09501
3.10945
3.12271
3.13459
3.14487
3.15333
3.15972
3.16378
3.16526
3.16395
3.15963
3.15217
3.14159
3.12802
3.11179
3.09371
3.0744
3.0543
3.03551
3.02387
3.02309
3.03195
3.04621
3.06115
3.07289
3.08047
3.08324
3.08102
3.07423
3.06351
3.04956
3.0331
3.01486
2.99559
2.97607
2.95723
2.94019
2.9265
2.91831
2.92021
2.93826
2.98807
0.206213
0.194776
0.184779
0.176322
0.169247
0.163334
0.158399
0.154331
0.151089
0.148693
0.147193
0.146659
0.14718
0.148842
0.151719
0.155922
0.161655
0.169315
0.179575
0.193378
0.211744
0.235409
0.264497
0.298471
0.336366
0.377111
0.419729
0.463408
0.507498
0.551487
0.594979
0.63768
0.679379
0.719943
0.759299
0.79742
0.834313
0.870006
0.904538
0.93795
0.970282
1.00157
1.03185
1.06116
1.08953
1.11698
1.14356
1.16931
1.19428
1.2185
1.24205
1.26499
1.28738
1.30929
1.33079
1.35196
1.37287
1.39358
1.41416
1.43467
1.45517
1.47569
1.49628
1.51697
1.53779
1.55876
1.57989
1.60118
1.62264
1.64428
1.66609
1.68808
1.71022
1.73254
1.75501
1.77763
1.80041
1.82334
1.84642
1.86964
1.89301
1.91652
1.94017
1.96395
1.98787
2.01191
2.03608
2.06036
2.08476
2.10925
2.13385
2.15853
2.1833
2.20814
2.23307
2.25807
2.28316
2.30835
2.33365
2.35902
2.38443
2.40984
2.43523
2.46058
2.48588
2.51113
2.53632
2.56144
2.58649
2.61146
2.63636
2.66118
2.68592
2.71057
2.73514
2.75962
2.78402
2.80832
2.83252
2.85663
2.88064
2.90455
2.92836
2.95205
2.97564
2.99909
3.02242
3.04558
3.06857
3.09135
3.11389
3.13616
3.1581
3.17966
3.20076
3.22133
3.24127
3.26048
3.27885
3.29624
3.3125
3.32749
3.34105
3.35299
3.36314
3.37128
3.37724
3.38086
3.382
3.38056
3.37662
3.37034
3.36191
3.35202
3.34074
3.32756
3.31309
3.30058
3.29227
3.28732
3.28301
3.27673
3.26727
3.25442
3.2375
3.21606
3.19018
3.1602
3.12661
3.08997
3.05092
3.01009
2.96812
2.92579
2.88402
2.84415
2.80797
2.77908
2.76149
2.7637
0.217032
0.203265
0.191577
0.181853
0.173766
0.167001
0.161326
0.156604
0.152782
0.149866
0.147917
0.147011
0.147239
0.1487
0.151502
0.155795
0.161827
0.170013
0.18098
0.195523
0.214409
0.238087
0.266477
0.298976
0.334675
0.372603
0.411897
0.45185
0.491916
0.531674
0.570813
0.609104
0.646392
0.682581
0.717621
0.751502
0.784237
0.815859
0.846408
0.875931
0.904474
0.932085
0.958813
0.984707
1.00982
1.03421
1.05793
1.08105
1.10365
1.12579
1.14757
1.16905
1.19034
1.2115
1.23262
1.25379
1.27507
1.29653
1.31823
1.34022
1.36254
1.38522
1.40829
1.43174
1.45561
1.47987
1.50452
1.52956
1.55496
1.58071
1.6068
1.6332
1.65989
1.68687
1.71411
1.7416
1.76933
1.79728
1.82546
1.85384
1.88242
1.91119
1.94015
1.96928
1.99858
2.02804
2.05766
2.08743
2.11733
2.14736
2.17751
2.20777
2.23814
2.2686
2.29915
2.3298
2.36054
2.39138
2.4222
2.45298
2.48372
2.51442
2.54505
2.57561
2.60607
2.63643
2.66668
2.6968
2.72679
2.75663
2.78632
2.81585
2.84522
2.87441
2.90342
2.93225
2.96088
2.98931
3.01753
3.04553
3.0733
3.10084
3.12815
3.15521
3.18202
3.20856
3.23484
3.26082
3.28648
3.31179
3.33672
3.36125
3.38533
3.4089
3.4319
3.45425
3.47589
3.49671
3.51661
3.53547
3.55317
3.56955
3.5845
3.59787
3.60949
3.61915
3.62668
3.63197
3.63488
3.63528
3.63324
3.6289
3.62244
3.61408
3.60357
3.59005
3.57345
3.55556
3.53783
3.51984
3.49992
3.47667
3.44986
3.41967
3.38572
3.34775
3.30571
3.2598
3.21033
3.15778
3.10279
3.04602
2.98813
2.92985
2.8721
2.81608
2.76332
2.71664
2.67871
2.65405
0.224063
0.209377
0.197101
0.186803
0.178151
0.170837
0.164641
0.159444
0.155211
0.151934
0.149667
0.148492
0.148508
0.149825
0.152579
0.156958
0.163241
0.171853
0.183367
0.198428
0.217576
0.241027
0.268552
0.299521
0.333094
0.368414
0.404724
0.441421
0.478041
0.514241
0.549774
0.584467
0.618207
0.65093
0.682611
0.713252
0.742876
0.771523
0.799239
0.826075
0.852088
0.877337
0.901881
0.925788
0.949128
0.971974
0.994408
1.01651
1.03838
1.06011
1.08178
1.10349
1.12534
1.14742
1.1698
1.19256
1.21577
1.23949
1.26375
1.2886
1.31405
1.34012
1.36681
1.39411
1.42201
1.45048
1.4795
1.50904
1.53906
1.56953
1.60042
1.63169
1.66332
1.69528
1.72754
1.76008
1.79289
1.82594
1.85921
1.8927
1.92639
1.96026
1.99431
2.02853
2.0629
2.09742
2.13208
2.16688
2.2018
2.23683
2.27197
2.30722
2.34255
2.37797
2.41346
2.44903
2.48468
2.52024
2.55569
2.59105
2.62633
2.66152
2.69659
2.73154
2.76635
2.801
2.83549
2.86979
2.9039
2.93779
2.97146
3.0049
3.03809
3.07103
3.10369
3.13608
3.16818
3.19998
3.23146
3.26261
3.29342
3.32387
3.35395
3.38366
3.413
3.44194
3.47048
3.49859
3.52624
3.5534
3.58004
3.60612
3.63161
3.65646
3.6806
3.70393
3.72639
3.7479
3.76835
3.78763
3.80558
3.82205
3.83693
3.85008
3.86135
3.87049
3.87727
3.88159
3.88334
3.88238
3.87868
3.87232
3.86336
3.85179
3.83721
3.81877
3.79612
3.77023
3.74201
3.71126
3.67704
3.63874
3.59644
3.55043
3.50059
3.44696
3.3896
3.32866
3.26437
3.19703
3.12745
3.05652
2.9851
2.91409
2.84445
2.77735
2.71414
2.65683
2.60714
2.56703
0.227628
0.213724
0.201841
0.191586
0.18275
0.175122
0.168554
0.162987
0.158389
0.154782
0.152231
0.150824
0.150667
0.15188
0.154618
0.159093
0.165608
0.174572
0.186485
0.201845
0.22099
0.243955
0.270412
0.29974
0.331182
0.36399
0.397517
0.43125
0.464802
0.497892
0.530326
0.561974
0.592759
0.622644
0.651622
0.67971
0.706942
0.733363
0.759027
0.783992
0.808323
0.832089
0.855362
0.878222
0.900752
0.923041
0.945183
0.967275
0.989418
1.01171
1.03426
1.05715
1.08049
1.10436
1.12883
1.15397
1.17983
1.20647
1.2339
1.26215
1.29121
1.32109
1.35176
1.38321
1.41539
1.44826
1.48179
1.51593
1.55063
1.58583
1.62151
1.65761
1.6941
1.73093
1.76809
1.80553
1.84324
1.88118
1.91934
1.9577
1.99623
2.03492
2.07376
2.11273
2.15182
2.19103
2.23034
2.26976
2.30928
2.34888
2.38856
2.42832
2.46814
2.50801
2.54794
2.58791
2.62776
2.66742
2.70694
2.74632
2.78557
2.82467
2.86361
2.90237
2.94094
2.97929
3.01741
3.05529
3.09291
3.13025
3.16729
3.20401
3.24041
3.27646
3.31216
3.3475
3.38245
3.417
3.45113
3.48482
3.51805
3.5508
3.58305
3.6148
3.64603
3.67675
3.70693
3.73655
3.76555
3.7939
3.82156
3.84851
3.8747
3.90008
3.92459
3.94807
3.97047
3.9917
4.01167
4.03029
4.04734
4.06258
4.07594
4.08729
4.09644
4.10314
4.10718
4.10839
4.10664
4.10177
4.09369
4.08237
4.06779
4.04984
4.0281
4.00186
3.97064
3.935
3.89549
3.85199
3.80393
3.75118
3.69396
3.63248
3.56634
3.49606
3.42199
3.34451
3.2641
3.18139
3.09722
3.01258
2.92849
2.84604
2.76634
2.69058
2.61997
2.55608
2.49994
2.45234
0.228578
0.217019
0.206334
0.196619
0.18789
0.180107
0.173251
0.167324
0.162334
0.15836
0.155496
0.153844
0.153514
0.154637
0.157379
0.161963
0.168688
0.17793
0.190096
0.205536
0.224419
0.246647
0.271838
0.299406
0.328684
0.359032
0.389906
0.420877
0.451624
0.481922
0.511621
0.540625
0.568886
0.596389
0.623143
0.649177
0.674535
0.699267
0.723435
0.747104
0.770345
0.793236
0.815857
0.838297
0.860647
0.883007
0.905476
0.928158
0.951157
0.974577
0.998519
1.02308
1.04834
1.07438
1.10128
1.12908
1.15783
1.18756
1.21828
1.25
1.28271
1.31638
1.35098
1.38647
1.42281
1.45995
1.49782
1.53636
1.57553
1.61526
1.6555
1.69621
1.73732
1.77881
1.82063
1.86274
1.90512
1.94773
1.99055
2.03354
2.07669
2.11996
2.16333
2.20681
2.25036
2.29398
2.33767
2.38143
2.42523
2.46909
2.513
2.55694
2.60091
2.64491
2.68892
2.73277
2.77635
2.81972
2.86291
2.9059
2.94869
2.99127
3.03362
3.07571
3.11755
3.1591
3.20034
3.24127
3.28187
3.3221
3.36196
3.4014
3.44042
3.47901
3.51715
3.55482
3.59201
3.6287
3.66486
3.70048
3.73551
3.7699
3.80366
3.83677
3.86923
3.90102
3.93215
3.96259
3.99223
4.02102
4.04895
4.07597
4.10203
4.12712
4.15119
4.17388
4.19522
4.21514
4.23351
4.25019
4.26499
4.27771
4.28821
4.29632
4.30184
4.30453
4.30414
4.30047
4.29336
4.28262
4.26813
4.24979
4.22749
4.20102
4.17014
4.13424
4.09279
4.04607
3.99438
3.93755
3.87475
3.80632
3.73258
3.6539
3.57052
3.4828
3.39123
3.29647
3.19931
3.10069
3.00171
2.90355
2.80743
2.71454
2.62608
2.5432
2.467
2.39869
2.33889
2.28799
0.227992
0.219732
0.210984
0.202241
0.193859
0.18604
0.178901
0.172521
0.167043
0.162612
0.159361
0.157414
0.156889
0.157921
0.160676
0.165371
0.17228
0.181716
0.193981
0.209287
0.227668
0.248933
0.272687
0.298394
0.325482
0.353415
0.381741
0.410109
0.438259
0.466015
0.493261
0.519934
0.546006
0.571481
0.59638
0.620743
0.644619
0.668067
0.691152
0.713943
0.736519
0.758959
0.781351
0.803787
0.826363
0.84918
0.872342
0.895952
0.920113
0.944927
0.97049
0.996891
1.02421
1.05252
1.08188
1.11234
1.14393
1.17666
1.21055
1.24557
1.28172
1.31895
1.35723
1.39651
1.43672
1.47782
1.51974
1.5624
1.60575
1.64972
1.69426
1.7393
1.78479
1.8307
1.87696
1.92354
1.97039
2.01749
2.06479
2.11225
2.15985
2.20754
2.25531
2.30312
2.35097
2.39884
2.44673
2.49464
2.54255
2.59047
2.63839
2.68631
2.73422
2.78212
2.82981
2.87716
2.92423
2.97103
3.01756
3.06381
3.10979
3.15545
3.2008
3.2458
3.29045
3.33472
3.37859
3.42206
3.4651
3.50769
3.5498
3.59139
3.63243
3.67293
3.71287
3.75224
3.791
3.82915
3.86666
3.90352
3.93965
3.97498
4.0095
4.04322
4.07613
4.10821
4.13946
4.16998
4.19946
4.22785
4.25517
4.28137
4.30639
4.33017
4.3526
4.3735
4.39277
4.4103
4.42597
4.43961
4.45103
4.46003
4.46643
4.47002
4.4706
4.46789
4.46168
4.45172
4.43781
4.41971
4.3973
4.37047
4.33903
4.30265
4.26119
4.21415
4.16063
4.10064
4.03444
3.96199
3.88311
3.79786
3.70656
3.60971
3.50786
3.40171
3.29212
3.18004
3.0666
2.95303
2.84061
2.73064
2.62439
2.52308
2.42786
2.33976
2.2597
2.18861
2.12684
2.0747
0.227864
0.222846
0.216315
0.208806
0.200924
0.193049
0.185479
0.178509
0.172405
0.167396
0.163668
0.161368
0.160625
0.161566
0.164344
0.169148
0.176201
0.185736
0.197946
0.212919
0.230585
0.250703
0.272889
0.296673
0.321573
0.34715
0.373039
0.398957
0.424702
0.450135
0.475176
0.499785
0.523953
0.547696
0.571047
0.594052
0.616766
0.63925
0.661573
0.683808
0.706033
0.72833
0.750788
0.7735
0.79656
0.82007
0.84413
0.86884
0.8943
0.920605
0.947845
0.976102
1.00545
1.03596
1.06768
1.10064
1.13488
1.17041
1.20721
1.24528
1.28458
1.32507
1.36672
1.40945
1.45322
1.49797
1.54361
1.59008
1.63731
1.68523
1.73379
1.78292
1.83257
1.88268
1.93321
1.98409
2.03529
2.08675
2.13842
2.19026
2.24222
2.29426
2.34633
2.39841
2.45048
2.50252
2.55452
2.60648
2.65839
2.71026
2.76208
2.81385
2.86559
2.91703
2.96807
3.01876
3.06909
3.11906
3.16865
3.21785
3.26664
3.31502
3.36295
3.41042
3.45741
3.5039
3.54988
3.59533
3.64024
3.6846
3.72839
3.77149
3.8139
3.85562
3.89666
3.93699
3.97659
4.01544
4.05351
4.09085
4.12736
4.1628
4.19726
4.23074
4.26323
4.29471
4.32517
4.35461
4.38287
4.40991
4.43568
4.46011
4.48313
4.50464
4.52453
4.54264
4.55882
4.57294
4.58485
4.59437
4.60131
4.60549
4.60668
4.60465
4.59915
4.58988
4.57665
4.55925
4.53743
4.51084
4.47935
4.44283
4.40093
4.35283
4.29851
4.23764
4.16975
4.09463
4.01226
3.92268
3.82598
3.72249
3.61276
3.49753
3.3777
3.25428
3.12839
3.00124
2.87416
2.74856
2.62584
2.50731
2.3942
2.28767
2.18874
2.09821
2.0167
1.94487
1.88282
1.83068
0.231553
0.228495
0.223576
0.216947
0.209224
0.201
0.192784
0.185037
0.178153
0.172453
0.168178
0.165498
0.164538
0.165408
0.168227
0.173136
0.180288
0.189824
0.201831
0.216297
0.233084
0.251927
0.272469
0.294314
0.31707
0.340387
0.363976
0.387617
0.411155
0.434492
0.457571
0.480374
0.502907
0.525195
0.54728
0.569212
0.591048
0.612851
0.63469
0.656638
0.678771
0.701171
0.723924
0.747119
0.770848
0.795208
0.820293
0.846198
0.873017
0.900837
0.929742
0.959808
0.991103
1.02369
1.0576
1.0929
1.12958
1.16767
1.20716
1.24801
1.29019
1.33366
1.37837
1.42426
1.47128
1.51936
1.56844
1.61843
1.66927
1.72089
1.77324
1.82625
1.87986
1.93403
1.98868
2.04376
2.09921
2.15496
2.21095
2.26712
2.3234
2.37974
2.43609
2.49241
2.54868
2.60486
2.66094
2.71692
2.77278
2.82854
2.88418
2.93976
2.99492
3.0496
3.10384
3.15764
3.21102
3.26388
3.3162
3.36797
3.41919
3.46983
3.51987
3.5693
3.6181
3.66625
3.71373
3.76054
3.80666
3.85212
3.89699
3.94088
3.9839
4.02608
4.06742
4.1079
4.1475
4.18619
4.22394
4.26072
4.29645
4.33106
4.36452
4.39682
4.42795
4.45788
4.4866
4.51406
4.54017
4.56488
4.58811
4.60977
4.62979
4.64805
4.66443
4.67876
4.69087
4.7006
4.70773
4.7121
4.71354
4.71186
4.70684
4.6982
4.68565
4.66884
4.64761
4.62172
4.59086
4.5544
4.51197
4.4635
4.40866
4.34697
4.27806
4.20159
4.11726
4.025
3.92492
3.81731
3.7026
3.58139
3.45443
3.32268
3.18727
3.04943
2.91051
2.77194
2.63512
2.5016
2.37285
2.25003
2.13423
2.02652
1.92771
1.83836
1.75881
1.68931
1.62969
1.5798
0.242643
0.238959
0.233926
0.226994
0.218678
0.209617
0.200427
0.191683
0.183886
0.177432
0.172601
0.169569
0.168442
0.169295
0.172192
0.177208
0.184415
0.19386
0.205539
0.219366
0.235163
0.252671
0.271574
0.291539
0.312253
0.333451
0.354921
0.376498
0.398069
0.419565
0.440955
0.462235
0.483423
0.504553
0.525669
0.546824
0.568075
0.589486
0.611122
0.633054
0.655355
0.678103
0.701377
0.725262
0.749845
0.775213
0.801456
0.828662
0.856917
0.886302
0.916893
0.948757
0.981957
1.01655
1.05257
1.09007
1.12906
1.16956
1.21155
1.25501
1.29989
1.34614
1.39369
1.44251
1.49254
1.54372
1.59599
1.64927
1.7035
1.75861
1.81456
1.87129
1.92873
1.98682
2.0455
2.1047
2.16434
2.22436
2.28465
2.3451
2.40566
2.46627
2.52687
2.58742
2.64786
2.70817
2.76831
2.82826
2.88804
2.94765
3.00704
3.06585
3.1241
3.18179
3.23893
3.29551
3.35161
3.40699
3.46158
3.51542
3.56852
3.62086
3.67242
3.72318
3.77313
3.82224
3.87051
3.91792
3.96447
4.01014
4.05491
4.09868
4.14144
4.18319
4.22393
4.26364
4.3023
4.33989
4.37635
4.41164
4.4457
4.47849
4.50995
4.54008
4.56886
4.59624
4.62222
4.64673
4.6697
4.69107
4.71074
4.72863
4.74463
4.75863
4.77049
4.78005
4.78711
4.79148
4.79291
4.7912
4.78619
4.7777
4.76547
4.74921
4.72853
4.7028
4.67189
4.63555
4.59342
4.54504
4.48997
4.42785
4.35833
4.28103
4.1957
4.10221
4.00054
3.89087
3.77352
3.64896
3.51786
3.38103
3.23943
3.09419
2.94669
2.79827
2.65052
2.50507
2.36322
2.22661
2.09681
1.97503
1.86215
1.75872
1.66506
1.58133
1.50752
1.44355
1.389
1.34351
0.26201
0.254399
0.247337
0.238721
0.228857
0.218352
0.207831
0.197907
0.189136
0.181951
0.176643
0.173367
0.172187
0.173117
0.176155
0.181296
0.188528
0.197817
0.209087
0.222203
0.236975
0.253166
0.270512
0.288749
0.307632
0.32695
0.346551
0.366339
0.386245
0.406224
0.426263
0.44637
0.466571
0.486904
0.507415
0.528157
0.549185
0.570561
0.592346
0.614605
0.637408
0.660825
0.68493
0.709799
0.735511
0.762145
0.789785
0.818512
0.848404
0.87954
0.911986
0.945793
0.981015
1.0177
1.05589
1.09563
1.13695
1.17984
1.22432
1.27036
1.31792
1.3669
1.41723
1.46887
1.52178
1.57591
1.63121
1.68762
1.74509
1.80356
1.86298
1.9233
1.98445
2.04636
2.10897
2.17219
2.23596
2.30024
2.36481
2.42944
2.49417
2.55895
2.62372
2.6884
2.75293
2.81726
2.88135
2.94516
3.00874
3.07178
3.13411
3.19575
3.25668
3.31688
3.37633
3.43502
3.49291
3.54994
3.60604
3.6612
3.71542
3.76867
3.82094
3.8722
3.92243
3.97164
4.01979
4.0669
4.11293
4.15787
4.20171
4.24439
4.2859
4.32621
4.36533
4.40324
4.43992
4.47535
4.50947
4.54224
4.57361
4.60354
4.63196
4.65887
4.68425
4.70806
4.73027
4.75082
4.76965
4.78666
4.80176
4.81485
4.82583
4.83455
4.84088
4.84464
4.84562
4.84359
4.83819
4.82912
4.81627
4.79941
4.77825
4.75246
4.72164
4.68534
4.64319
4.59479
4.53973
4.47759
4.40798
4.33056
4.24511
4.15146
4.04958
3.93952
3.82149
3.69586
3.56311
3.42393
3.27914
3.12979
2.97703
2.82219
2.66693
2.51259
2.36095
2.21399
2.07339
1.94046
1.81617
1.70132
1.59642
1.50153
1.41659
1.34139
1.27564
1.21901
1.17097
1.13101
0.287611
0.272948
0.262561
0.251193
0.238966
0.226498
0.21437
0.203173
0.193466
0.185683
0.18008
0.176757
0.175705
0.176858
0.180134
0.18545
0.192718
0.20184
0.212691
0.225116
0.238933
0.253938
0.269921
0.286684
0.304049
0.321866
0.340022
0.358432
0.377081
0.395984
0.415135
0.43455
0.454257
0.474297
0.494716
0.515563
0.536892
0.558758
0.581217
0.604328
0.628155
0.652763
0.678219
0.704588
0.731935
0.760335
0.789868
0.820602
0.852611
0.885979
0.920775
0.956985
0.994653
1.03383
1.07454
1.11683
1.16072
1.20622
1.25336
1.30215
1.35267
1.40459
1.45781
1.51235
1.56817
1.62521
1.68349
1.74298
1.80363
1.8654
1.92822
1.99203
2.05675
2.12232
2.18865
2.25564
2.32321
2.39123
2.45952
2.52793
2.59645
2.66504
2.7336
2.80204
2.87025
2.93817
3.00586
3.07299
3.13922
3.20462
3.26915
3.33279
3.39552
3.4573
3.51809
3.57788
3.63662
3.69429
3.75084
3.80625
3.86051
3.91359
3.96547
4.01614
4.06556
4.11375
4.16068
4.20636
4.25076
4.29388
4.33569
4.37617
4.4153
4.45305
4.48942
4.5244
4.55797
4.5901
4.62074
4.64986
4.67741
4.70334
4.72758
4.75012
4.77094
4.79001
4.80728
4.82267
4.83612
4.84754
4.85681
4.86382
4.86843
4.8705
4.86986
4.8663
4.85961
4.8495
4.8357
4.81789
4.79582
4.76917
4.73762
4.70079
4.65828
4.60966
4.55454
4.49252
4.42325
4.3464
4.26171
4.16898
4.0681
3.95908
3.84204
3.71721
3.58496
3.44583
3.30051
3.14988
2.99492
2.83702
2.67749
2.51771
2.35993
2.20602
2.0577
1.91634
1.78339
1.65964
1.5455
1.44129
1.34713
1.26296
1.18851
1.12338
1.06707
1.01903
0.978606
0.945179
0.321834
0.295144
0.279503
0.264114
0.248654
0.233668
0.219656
0.207136
0.196623
0.188487
0.182893
0.17983
0.179182
0.180786
0.184475
0.190094
0.197497
0.206543
0.217085
0.228967
0.242032
0.256121
0.271081
0.286775
0.303086
0.319917
0.337198
0.354888
0.372972
0.391462
0.410412
0.429872
0.449861
0.470414
0.491575
0.513391
0.535912
0.559183
0.583245
0.608148
0.633952
0.660724
0.688535
0.717436
0.747435
0.778633
0.811084
0.844781
0.879815
0.916341
0.954599
0.994133
1.03509
1.07756
1.12156
1.16711
1.21418
1.26276
1.31292
1.36467
1.41803
1.47288
1.52914
1.58671
1.64549
1.70544
1.76669
1.82919
1.89289
1.95775
2.0237
2.09065
2.15852
2.22723
2.29667
2.36674
2.43736
2.50842
2.57973
2.65114
2.72262
2.79417
2.86563
2.93693
3.00787
3.07814
3.14739
3.21567
3.28294
3.34916
3.4143
3.47833
3.54122
3.60292
3.6634
3.72264
3.78062
3.83731
3.8927
3.94677
3.99949
4.05086
4.10084
4.14943
4.19661
4.24237
4.28669
4.32956
4.37097
4.4109
4.44935
4.48629
4.5217
4.55557
4.58787
4.61859
4.64771
4.6752
4.70102
4.72514
4.74752
4.76813
4.78692
4.80387
4.81892
4.83202
4.84313
4.85215
4.859
4.86358
4.86576
4.86542
4.86238
4.85649
4.84755
4.83532
4.81954
4.79994
4.77621
4.74804
4.71515
4.67719
4.63383
4.58469
4.5294
4.46761
4.399
4.32321
4.23996
4.14901
4.05024
3.94354
3.82894
3.70658
3.57672
3.43976
3.29627
3.14693
2.99271
2.83476
2.674
2.51252
2.35211
2.1946
2.04164
1.895
1.756
1.62542
1.50407
1.39258
1.29129
1.20023
1.11925
1.04796
0.985859
0.932314
0.886656
0.848211
0.816258
0.790119
0.361052
0.318116
0.295966
0.275593
0.256062
0.238129
0.222347
0.208891
0.198036
0.190047
0.184945
0.182574
0.182699
0.185067
0.189449
0.195642
0.203476
0.212803
0.223465
0.235312
0.248222
0.26209
0.276822
0.29234
0.308578
0.32545
0.342902
0.360945
0.379611
0.398945
0.419
0.439821
0.461441
0.483888
0.507203
0.531439
0.556654
0.582876
0.610068
0.638275
0.667562
0.698015
0.72979
0.76296
0.797109
0.83242
0.868951
0.906761
0.945933
0.986555
1.0287
1.0723
1.11737
1.16393
1.21199
1.26146
1.31223
1.36434
1.41782
1.47264
1.52886
1.58649
1.64549
1.70582
1.76746
1.83042
1.89462
1.96001
2.0265
2.09404
2.16253
2.23189
2.30202
2.37282
2.44419
2.51601
2.58814
2.66046
2.73278
2.80501
2.87726
2.94958
3.02148
3.09251
3.16253
3.23156
3.29953
3.36642
3.43217
3.49674
3.56008
3.62213
3.68286
3.74223
3.80023
3.85685
3.91205
3.96584
4.01819
4.06908
4.11848
4.16639
4.21277