/*--------------------------------*- C++ -*----------------------------------*\
| =========                 |                                                 |
| \\      /  F ield         | OpenFOAM: The Open Source CFD Toolbox           |
|  \\    /   O peration     | Version:  2112                                  |
|   \\  /    A nd           | Website:  www.openfoam.com                      |
|    \\/     M anipulation  |                                                 |
\*---------------------------------------------------------------------------*/
FoamFile
{
    version     2.0;
    format      ascii;
    arch        "LSB;label=32;scalar=64";
    class       surfaceScalarField;
    location    "0.14";
    object      phi;
}
// * * * * * * * * * * * * * * * * * * * * * * * * * * * * * * * * * * * * * //

dimensions      [0 3 -1 0 0 0 0];

oriented        oriented;

internalField   nonuniform List<scalar> 
24170
(
3.04018e-06
1.48227e-07
2.8656e-06
1.74583e-07
2.69633e-06
1.69267e-07
2.53812e-06
1.58205e-07
2.39911e-06
1.39009e-07
2.28556e-06
1.13554e-07
2.19942e-06
8.61391e-08
2.1385e-06
6.09228e-08
2.09774e-06
4.07612e-08
2.07147e-06
2.62679e-08
2.05365e-06
1.78245e-08
2.03965e-06
1.39996e-08
2.02655e-06
1.30966e-08
2.01282e-06
1.37306e-08
1.99813e-06
1.469e-08
1.97973e-06
1.83989e-08
1.94722e-06
3.25044e-08
5.12334e-08
1.89599e-06
3.4839e-06
8.15793e-08
3.5262e-06
1.32283e-07
3.5461e-06
1.49365e-07
3.54176e-06
1.62542e-07
3.51334e-06
1.67427e-07
3.46373e-06
1.63171e-07
3.39684e-06
1.53025e-07
3.31701e-06
1.40755e-07
3.22878e-06
1.28986e-07
3.13642e-06
1.18635e-07
3.04413e-06
1.10107e-07
2.95551e-06
1.02621e-07
2.87327e-06
9.53434e-08
2.79894e-06
8.8052e-08
2.73324e-06
8.03911e-08
2.67619e-06
7.54554e-08
2.63656e-06
7.21279e-08
7.53781e-08
2.61242e-06
3.68167e-06
6.24226e-08
3.701e-06
1.1296e-07
3.71938e-06
1.30978e-07
3.73838e-06
1.43546e-07
3.7552e-06
1.50607e-07
3.76727e-06
1.511e-07
3.77295e-06
1.47343e-07
3.77147e-06
1.42239e-07
3.76273e-06
1.37729e-07
3.74689e-06
1.34468e-07
3.72449e-06
1.32509e-07
3.69598e-06
1.31134e-07
3.66184e-06
1.29478e-07
3.62277e-06
1.27129e-07
3.57931e-06
1.23848e-07
3.53361e-06
1.2115e-07
3.48819e-06
1.17554e-07
1.12448e-07
3.45112e-06
3.9365e-06
5.13111e-08
3.94884e-06
1.00623e-07
3.95921e-06
1.20607e-07
3.96983e-06
1.32921e-07
3.98057e-06
1.39869e-07
3.99063e-06
1.41037e-07
3.99961e-06
1.38368e-07
4.00739e-06
1.34461e-07
4.01404e-06
1.31073e-07
4.01971e-06
1.288e-07
4.02458e-06
1.27644e-07
4.0286e-06
1.27112e-07
4.03152e-06
1.26554e-07
4.03306e-06
1.25591e-07
4.03289e-06
1.24018e-07
4.03184e-06
1.22203e-07
4.03004e-06
1.19355e-07
1.12694e-07
4.02979e-06
4.2157e-06
4.2741e-08
4.22635e-06
8.99745e-08
4.23546e-06
1.1149e-07
4.24423e-06
1.24152e-07
4.25287e-06
1.31234e-07
4.26089e-06
1.33013e-07
4.26809e-06
1.31173e-07
4.27457e-06
1.27974e-07
4.28064e-06
1.25004e-07
4.28663e-06
1.22817e-07
4.29284e-06
1.21427e-07
4.29948e-06
1.20476e-07
4.30657e-06
1.19464e-07
4.31412e-06
1.18043e-07
4.32215e-06
1.15984e-07
4.33109e-06
1.1326e-07
4.34127e-06
1.09176e-07
1.01893e-07
4.35207e-06
4.51613e-06
3.56936e-08
4.52602e-06
8.00938e-08
4.53501e-06
1.02493e-07
4.54355e-06
1.15615e-07
4.55181e-06
1.22968e-07
4.55951e-06
1.25314e-07
4.56647e-06
1.24214e-07
4.57281e-06
1.21631e-07
4.57883e-06
1.18994e-07
4.58482e-06
1.16823e-07
4.59107e-06
1.15172e-07
4.59777e-06
1.13778e-07
4.60499e-06
1.1225e-07
4.61277e-06
1.10262e-07
4.62119e-06
1.07562e-07
4.63047e-06
1.03984e-07
4.64073e-06
9.89159e-08
9.11951e-08
4.65142e-06
4.83855e-06
2.98623e-08
4.84778e-06
7.08693e-08
4.85686e-06
9.34068e-08
4.86565e-06
1.06832e-07
4.8741e-06
1.14517e-07
4.882e-06
1.17411e-07
4.88921e-06
1.17004e-07
4.89584e-06
1.14996e-07
4.9022e-06
1.12639e-07
4.90856e-06
1.10465e-07
4.91516e-06
1.0857e-07
4.92216e-06
1.06774e-07
4.92964e-06
1.04769e-07
4.93764e-06
1.02262e-07
4.94621e-06
9.89939e-08
4.95544e-06
9.47585e-08
4.96528e-06
8.9078e-08
8.12511e-08
4.97522e-06
5.18441e-06
2.50345e-08
5.19286e-06
6.2419e-08
5.20185e-06
8.44136e-08
5.2109e-06
9.77803e-08
5.21981e-06
1.05616e-07
5.22824e-06
1.08976e-07
5.23601e-06
1.09239e-07
5.24316e-06
1.07844e-07
5.25001e-06
1.05786e-07
5.25685e-06
1.03622e-07
5.26391e-06
1.01516e-07
5.27132e-06
9.93595e-08
5.27917e-06
9.69232e-08
5.28746e-06
9.39733e-08
5.29617e-06
9.02776e-08
5.30536e-06
8.55736e-08
5.31491e-06
7.95281e-08
7.17871e-08
5.32437e-06
5.5553e-06
2.10742e-08
5.56299e-06
5.47315e-08
5.5717e-06
7.56972e-08
5.5808e-06
8.86806e-08
5.59001e-06
9.64046e-08
5.59897e-06
1.00018e-07
5.60743e-06
1.00783e-07
5.61534e-06
9.99356e-08
5.62287e-06
9.82506e-08
5.63029e-06
9.62042e-08
5.63782e-06
9.39827e-08
5.64563e-06
9.15479e-08
5.65381e-06
8.87456e-08
5.66238e-06
8.54046e-08
5.67131e-06
8.135e-08
5.68053e-06
7.63502e-08
5.68988e-06
7.01795e-08
6.26973e-08
5.69897e-06
5.95302e-06
1.7829e-08
5.96005e-06
4.77064e-08
5.96842e-06
6.7327e-08
5.97741e-06
7.96842e-08
5.98671e-06
8.71075e-08
5.99595e-06
9.07765e-08
6.0049e-06
9.18323e-08
6.0135e-06
9.13376e-08
6.02179e-06
8.99642e-08
6.0299e-06
8.80863e-08
6.03803e-06
8.58551e-08
6.04632e-06
8.32629e-08
6.05485e-06
8.02143e-08
6.06366e-06
7.65924e-08
6.07273e-06
7.22753e-08
6.08197e-06
6.71189e-08
6.09115e-06
6.09945e-08
5.38872e-08
6.09996e-06
6.37954e-06
1.51039e-08
6.38599e-06
4.12513e-08
6.39401e-06
5.93048e-08
6.40284e-06
7.08627e-08
6.41211e-06
7.78339e-08
6.42148e-06
8.14037e-08
6.43073e-06
8.25879e-08
6.43978e-06
8.22884e-08
6.44864e-06
8.10956e-08
6.4574e-06
7.9326e-08
6.46615e-06
7.71056e-08
6.47498e-06
7.44351e-08
6.48394e-06
7.12533e-08
6.49305e-06
6.74842e-08
6.50227e-06
6.30532e-08
6.5115e-06
5.78906e-08
6.52055e-06
5.19504e-08
4.5297e-08
6.52914e-06
5.74286e-06
1.30813e-08
5.7479e-06
3.62059e-08
5.75448e-06
5.27248e-08
5.76181e-06
6.3535e-08
5.76959e-06
7.00577e-08
5.77755e-06
7.34361e-08
5.78552e-06
7.46231e-08
5.79341e-06
7.44012e-08
5.80122e-06
7.32835e-08
5.80899e-06
7.1551e-08
5.81678e-06
6.93216e-08
5.8246e-06
6.66071e-08
5.83249e-06
6.3369e-08
5.84041e-06
5.95588e-08
5.84833e-06
5.5135e-08
5.85615e-06
5.00733e-08
5.86372e-06
4.43769e-08
3.81541e-08
5.87087e-06
7.00021e-06
1.10268e-08
7.00561e-06
3.08063e-08
7.01293e-06
4.54065e-08
7.02121e-06
5.52496e-08
7.03005e-06
6.1219e-08
7.0392e-06
6.42897e-08
7.04845e-06
6.53706e-08
7.05771e-06
6.51459e-08
7.06694e-06
6.4049e-08
7.07617e-06
6.23189e-08
7.08543e-06
6.00655e-08
7.09472e-06
5.7316e-08
7.10403e-06
5.40575e-08
7.11332e-06
5.02703e-08
7.12251e-06
4.59442e-08
7.13149e-06
4.10913e-08
7.14012e-06
3.57518e-08
3.00544e-08
7.14822e-06
8.53294e-06
8.93601e-09
8.53864e-06
2.51047e-08
8.54667e-06
3.73766e-08
8.55602e-06
4.5897e-08
8.56604e-06
5.12037e-08
8.57646e-06
5.38702e-08
8.58711e-06
5.47157e-08
8.59787e-06
5.43852e-08
8.60868e-06
5.32438e-08
8.61951e-06
5.14859e-08
8.63037e-06
4.92078e-08
8.64124e-06
4.64487e-08
8.65207e-06
4.32209e-08
8.66281e-06
3.95328e-08
8.67335e-06
3.54025e-08
8.68357e-06
3.08691e-08
8.69333e-06
2.59948e-08
2.09086e-08
8.70248e-06
1.04014e-05
6.78924e-09
1.04073e-05
1.91311e-08
1.0416e-05
2.86963e-08
1.04265e-05
3.54583e-08
1.04379e-05
3.9799e-08
1.04497e-05
4.19855e-08
1.04619e-05
4.25158e-08
1.04744e-05
4.19733e-08
1.04869e-05
4.07145e-08
1.04995e-05
3.89013e-08
1.05121e-05
3.6613e-08
1.05246e-05
3.38932e-08
1.05371e-05
3.0772e-08
1.05493e-05
2.72793e-08
1.05613e-05
2.34535e-08
1.05728e-05
1.93494e-08
1.05838e-05
1.50376e-08
1.06331e-08
1.0594e-05
1.2679e-05
4.55567e-09
1.26853e-05
1.2858e-08
1.26946e-05
1.936e-08
1.27061e-05
2.39621e-08
1.2719e-05
2.68986e-08
1.27327e-05
2.83558e-08
1.27467e-05
2.85052e-08
1.27609e-05
2.76993e-08
1.27754e-05
2.62739e-08
1.27899e-05
2.43954e-08
1.28044e-05
2.21313e-08
1.28187e-05
1.95221e-08
1.28329e-05
1.66049e-08
1.28468e-05
1.342e-08
1.28602e-05
1.00149e-08
1.28731e-05
6.44748e-09
1.28854e-05
2.7851e-09
-8.79092e-10
1.28969e-05
1.54556e-05
2.18423e-09
1.54622e-05
6.17134e-09
1.54724e-05
9.24387e-09
1.5485e-05
1.12991e-08
1.54995e-05
1.24328e-08
1.55151e-05
1.27613e-08
1.55312e-05
1.23397e-08
1.55477e-05
1.12363e-08
1.55643e-05
9.64621e-09
1.5581e-05
7.73189e-09
1.55976e-05
5.55927e-09
1.56139e-05
3.15899e-09
1.563e-05
5.62483e-10
1.56456e-05
-2.19175e-09
1.56607e-05
-5.05909e-09
1.56751e-05
-7.98862e-09
1.56888e-05
-1.09247e-08
-1.37984e-08
1.57017e-05
1.88402e-05
-4.22315e-10
1.88476e-05
-1.19259e-09
1.88588e-05
-1.99443e-09
1.8873e-05
-2.89821e-09
1.88894e-05
-3.92827e-09
1.89073e-05
-5.09061e-09
1.8926e-05
-6.39127e-09
1.89451e-05
-7.88306e-09
1.89643e-05
-9.59428e-09
1.89835e-05
-1.1459e-08
1.90025e-05
-1.3427e-08
1.90212e-05
-1.54847e-08
1.90393e-05
-1.76185e-08
1.9057e-05
-1.98048e-08
1.90739e-05
-2.20121e-08
1.90901e-05
-2.42035e-08
1.91055e-05
-2.63398e-08
-2.83763e-08
1.91201e-05
2.29664e-05
-3.45965e-09
2.2975e-05
-9.82246e-09
2.29882e-05
-1.51679e-08
2.30048e-05
-1.95385e-08
2.3024e-05
-2.31035e-08
2.30449e-05
-2.60246e-08
2.3067e-05
-2.84311e-08
2.30895e-05
-3.04466e-08
2.31122e-05
-3.22154e-08
2.31345e-05
-3.38558e-08
2.31565e-05
-3.54249e-08
2.3178e-05
-3.69486e-08
2.31988e-05
-3.84318e-08
2.32189e-05
-3.98746e-08
2.32381e-05
-4.12679e-08
2.32565e-05
-4.25963e-08
2.3274e-05
-4.38392e-08
-4.49722e-08
2.32906e-05
1.68131e-05
-5.86904e-09
1.68199e-05
-1.65837e-08
1.68301e-05
-2.53506e-08
1.68428e-05
-3.22321e-08
1.68572e-05
-3.75725e-08
1.68729e-05
-4.16695e-08
1.68892e-05
-4.4752e-08
1.69058e-05
-4.70369e-08
1.69223e-05
-4.8738e-08
1.69385e-05
-5.00806e-08
1.69543e-05
-5.12128e-08
1.69696e-05
-5.22051e-08
1.69842e-05
-5.309e-08
1.69982e-05
-5.38944e-08
1.70116e-05
-5.46335e-08
1.70243e-05
-5.53062e-08
1.70364e-05
-5.59002e-08
-5.63949e-08
1.70478e-05
1.4637e-05
-8.29074e-09
1.46437e-05
-2.32967e-08
1.46536e-05
-3.52121e-08
1.46656e-05
-4.42575e-08
1.46791e-05
-5.1055e-08
1.46934e-05
-5.60397e-08
1.47082e-05
-5.95276e-08
1.4723e-05
-6.18405e-08
1.47376e-05
-6.33172e-08
1.47518e-05
-6.42462e-08
1.47654e-05
-6.48194e-08
1.47783e-05
-6.51636e-08
1.47906e-05
-6.53877e-08
1.48023e-05
-6.55542e-08
1.48133e-05
-6.56891e-08
1.48238e-05
-6.57948e-08
1.48338e-05
-6.58587e-08
-6.58573e-08
1.48433e-05
1.27428e-05
-1.09164e-08
1.27498e-05
-3.03477e-08
1.27597e-05
-4.51349e-08
1.27714e-05
-5.59612e-08
1.27843e-05
-6.3875e-08
1.27977e-05
-6.94355e-08
1.28112e-05
-7.30472e-08
1.28245e-05
-7.51661e-08
1.28374e-05
-7.62349e-08
1.28497e-05
-7.65736e-08
1.28614e-05
-7.64574e-08
1.28723e-05
-7.6103e-08
1.28826e-05
-7.56621e-08
1.28923e-05
-7.52203e-08
1.29014e-05
-7.48142e-08
1.291e-05
-7.44444e-08
1.29183e-05
-7.40904e-08
-7.37178e-08
1.29261e-05
1.1094e-05
-1.39781e-08
1.11017e-05
-3.8058e-08
1.11119e-05
-5.52929e-08
1.11233e-05
-6.74095e-08
1.11355e-05
-7.60577e-08
1.11479e-05
-8.18863e-08
1.11603e-05
-8.53909e-08
1.11722e-05
-8.71292e-08
1.11836e-05
-8.75961e-08
1.11943e-05
-8.72255e-08
1.12042e-05
-8.63708e-08
1.12134e-05
-8.53034e-08
1.12219e-05
-8.42133e-08
1.12299e-05
-8.32097e-08
1.12374e-05
-8.23338e-08
1.12446e-05
-8.15779e-08
1.12514e-05
-8.0906e-08
-8.02621e-08
1.12579e-05
9.65903e-06
-1.77939e-08
9.66763e-06
-4.66543e-08
9.67796e-06
-6.56258e-08
9.68899e-06
-7.84385e-08
9.7004e-06
-8.74729e-08
9.71186e-06
-9.33459e-08
9.72304e-06
-9.65662e-08
9.7337e-06
-9.77908e-08
9.7437e-06
-9.75956e-08
9.75296e-06
-9.64838e-08
9.76146e-06
-9.48686e-08
9.76924e-06
-9.30825e-08
9.77638e-06
-9.13607e-08
9.78301e-06
-8.98357e-08
9.78923e-06
-8.85509e-08
9.79513e-06
-8.74856e-08
9.80081e-06
-8.65862e-08
-8.57783e-08
9.80633e-06
8.41033e-06
-2.27718e-08
8.41991e-06
-5.62357e-08
8.43019e-06
-7.59026e-08
8.44058e-06
-8.88341e-08
8.45116e-06
-9.80472e-08
8.46168e-06
-1.03872e-07
8.47187e-06
-1.06755e-07
8.48152e-06
-1.0744e-07
8.49051e-06
-1.06579e-07
8.49874e-06
-1.04716e-07
8.5062e-06
-1.02326e-07
8.51292e-06
-9.98085e-08
8.51901e-06
-9.74517e-08
8.52459e-06
-9.54178e-08
8.5298e-06
-9.37537e-08
8.53473e-06
-9.24198e-08
8.53948e-06
-9.1333e-08
-9.03187e-08
8.54402e-06
7.32392e-06
-2.94083e-08
7.33456e-06
-6.68785e-08
7.34466e-06
-8.60008e-08
7.35449e-06
-9.86641e-08
7.36449e-06
-1.08042e-07
7.37445e-06
-1.13838e-07
7.38412e-06
-1.16419e-07
7.39329e-06
-1.16614e-07
7.40183e-06
-1.15117e-07
7.40962e-06
-1.12505e-07
7.41661e-06
-1.09319e-07
7.42284e-06
-1.06038e-07
7.4284e-06
-1.03016e-07
7.43345e-06
-1.0046e-07
7.43812e-06
-9.84282e-08
7.44257e-06
-9.68673e-08
7.44695e-06
-9.5713e-08
-9.49647e-08
7.45159e-06
6.37917e-06
-3.85098e-08
6.39145e-06
-7.91636e-08
6.402e-06
-9.65471e-08
6.41232e-06
-1.08982e-07
6.42299e-06
-1.18719e-07
6.43377e-06
-1.24618e-07
6.44441e-06
-1.27059e-07
6.4547e-06
-1.269e-07
6.46439e-06
-1.24805e-07
6.47326e-06
-1.21373e-07
6.48117e-06
-1.17229e-07
6.48809e-06
-1.12957e-07
6.49408e-06
-1.0901e-07
6.49928e-06
-1.05663e-07
6.50386e-06
-1.03002e-07
6.50799e-06
-1.00999e-07
6.51174e-06
-9.94622e-08
-9.78287e-08
6.5146e-06
5.561e-06
-5.40483e-08
5.57865e-06
-9.68116e-08
5.59452e-06
-1.12414e-07
5.61147e-06
-1.25936e-07
5.62933e-06
-1.36575e-07
5.64722e-06
-1.42511e-07
5.66433e-06
-1.44166e-07
5.67975e-06
-1.42322e-07
5.69263e-06
-1.37684e-07
5.70231e-06
-1.31054e-07
5.70841e-06
-1.23334e-07
5.71083e-06
-1.15374e-07
5.70965e-06
-1.07833e-07
5.7051e-06
-1.01114e-07
5.6974e-06
-9.5301e-08
5.68674e-06
-9.03313e-08
5.67369e-06
-8.64201e-08
-8.36279e-08
5.65949e-06
4.88508e-06
-1.11525e-07
4.93203e-06
-1.4376e-07
4.96924e-06
-1.49625e-07
4.99507e-06
-1.51761e-07
5.00743e-06
-1.48937e-07
5.00593e-06
-1.41008e-07
4.99105e-06
-1.2929e-07
4.96376e-06
-1.15027e-07
4.92533e-06
-9.92544e-08
4.87725e-06
-8.29815e-08
4.82111e-06
-6.71852e-08
4.75844e-06
-5.27031e-08
4.69075e-06
-4.01525e-08
4.61955e-06
-2.99132e-08
4.5462e-06
-2.19472e-08
4.47182e-06
-1.59483e-08
4.39755e-06
-1.21574e-08
-9.55749e-09
4.32348e-06
4.09115e-06
3.94739e-06
3.79777e-06
3.64601e-06
3.49707e-06
3.35606e-06
3.22677e-06
3.11174e-06
3.01249e-06
2.92951e-06
2.86232e-06
2.80962e-06
2.76947e-06
2.73955e-06
2.71761e-06
2.70166e-06
2.6895e-06
2.67994e-06
9.498e-09
-9.498e-09
1.95342e-08
-1.00362e-08
2.94273e-08
-9.89312e-09
3.88852e-08
-9.45787e-09
4.75776e-08
-8.69244e-09
5.51617e-08
-7.58402e-09
6.1311e-08
-6.14931e-09
6.573e-08
-4.41905e-09
6.81607e-08
-2.43072e-09
6.83876e-08
-2.26845e-10
6.62439e-08
2.14366e-09
6.16183e-08
4.62563e-09
5.44479e-08
7.17036e-09
4.47165e-08
9.73141e-09
3.24561e-08
1.22605e-08
1.77546e-08
1.47014e-08
7.71485e-10
1.69831e-08
-1.82425e-08
1.9014e-08
-3.89181e-08
2.06756e-08
-6.07646e-08
2.18465e-08
-8.32468e-08
2.24822e-08
-1.05957e-07
2.27103e-08
-1.28845e-07
2.28878e-08
-1.52439e-07
2.35939e-08
-1.77311e-07
2.48719e-08
-2.03398e-07
2.60868e-08
-2.30296e-07
2.68985e-08
-2.57715e-07
2.74193e-08
-2.85496e-07
2.77802e-08
-3.13539e-07
2.80439e-08
-3.41785e-07
2.8245e-08
-3.70198e-07
2.84136e-08
-3.98777e-07
2.85793e-08
-4.27546e-07
2.8768e-08
-4.56545e-07
2.89992e-08
-4.8583e-07
2.9285e-08
-5.15461e-07
2.96313e-08
-5.45499e-07
3.00384e-08
-5.76002e-07
3.05025e-08
-6.07018e-07
3.10164e-08
-6.38589e-07
3.15709e-08
-6.70744e-07
3.21551e-08
-7.03502e-07
3.27572e-08
-7.36866e-07
3.3365e-08
-7.70833e-07
3.39663e-08
-8.05382e-07
3.45495e-08
-8.40486e-07
3.51034e-08
-8.76103e-07
3.56177e-08
-9.12187e-07
3.60831e-08
-9.48678e-07
3.64912e-08
-9.85513e-07
3.6835e-08
-1.02262e-06
3.71084e-08
-1.05993e-06
3.73069e-08
-1.09736e-06
3.74271e-08
-1.13482e-06
3.7467e-08
-1.17225e-06
3.74259e-08
-1.20955e-06
3.73042e-08
-1.24666e-06
3.71036e-08
-1.28348e-06
3.68271e-08
-1.31996e-06
3.64782e-08
-1.35602e-06
3.60616e-08
-1.39161e-06
3.55825e-08
-1.42665e-06
3.50465e-08
-1.46111e-06
3.44595e-08
-1.49494e-06
3.38274e-08
-1.52809e-06
3.31561e-08
-1.56055e-06
3.24511e-08
-1.59226e-06
3.17177e-08
-1.62322e-06
3.09605e-08
-1.65341e-06
3.01835e-08
-1.6828e-06
2.93902e-08
-1.71138e-06
2.85835e-08
-1.73915e-06
2.77655e-08
-1.76608e-06
2.69381e-08
-1.79219e-06
2.61025e-08
-1.81745e-06
2.52597e-08
-1.84186e-06
2.44103e-08
-1.86541e-06
2.35546e-08
-1.8881e-06
2.26929e-08
-1.90993e-06
2.18253e-08
-1.93088e-06
2.09516e-08
-1.95095e-06
2.00718e-08
-1.97014e-06
1.91855e-08
-1.98843e-06
1.82923e-08
-2.00582e-06
1.73917e-08
-2.02231e-06
1.6483e-08
-2.03787e-06
1.55655e-08
-2.05251e-06
1.46385e-08
-2.06621e-06
1.37012e-08
-2.07896e-06
1.27527e-08
-2.09076e-06
1.17922e-08
-2.10158e-06
1.08191e-08
-2.11141e-06
9.83268e-09
-2.12024e-06
8.83252e-09
-2.12806e-06
7.81803e-09
-2.13485e-06
6.78842e-09
-2.14059e-06
5.74197e-09
-2.14526e-06
4.6757e-09
-2.14885e-06
3.58497e-09
-2.15131e-06
2.45832e-09
-2.15259e-06
1.27924e-09
-2.15272e-06
1.36268e-10
-2.15162e-06
-1.10597e-09
-2.14938e-06
-2.23602e-09
-2.14605e-06
-3.33627e-09
-2.14162e-06
-4.42957e-09
-2.13609e-06
-5.52388e-09
-2.12947e-06
-6.61806e-09
-2.12176e-06
-7.7108e-09
-2.11296e-06
-8.80066e-09
-2.10308e-06
-9.88604e-09
-2.09211e-06
-1.09653e-08
-2.08007e-06
-1.20369e-08
-2.06697e-06
-1.30993e-08
-2.05282e-06
-1.4151e-08
-2.03763e-06
-1.5191e-08
-2.02141e-06
-1.6218e-08
-2.00418e-06
-1.72315e-08
-1.98595e-06
-1.82311e-08
-1.96673e-06
-1.92171e-08
-1.94654e-06
-2.01901e-08
-1.92539e-06
-2.11516e-08
-1.90329e-06
-2.21035e-08
-1.88024e-06
-2.30487e-08
-1.85625e-06
-2.39908e-08
-1.83132e-06
-2.49343e-08
-1.80543e-06
-2.58846e-08
-1.77858e-06
-2.68481e-08
-1.75075e-06
-2.7832e-08
-1.72191e-06
-2.8844e-08
-1.69202e-06
-2.98923e-08
-1.66103e-06
-3.09856e-08
-1.6289e-06
-3.2133e-08
-1.59555e-06
-3.33442e-08
-1.56092e-06
-3.463e-08
-1.52492e-06
-3.6002e-08
-1.48745e-06
-3.74714e-08
-1.4484e-06
-3.9049e-08
-1.40766e-06
-4.07446e-08
-1.36509e-06
-4.25691e-08
-1.32055e-06
-4.45362e-08
-1.27389e-06
-4.66622e-08
-1.22492e-06
-4.8963e-08
-1.17347e-06
-5.14512e-08
-1.11933e-06
-5.41387e-08
-1.06229e-06
-5.70426e-08
-1.0021e-06
-6.01911e-08
-9.38484e-07
-6.36173e-08
-8.7113e-07
-6.73536e-08
-7.99692e-07
-7.14376e-08
-7.23767e-07
-7.59255e-08
-6.42913e-07
-8.08544e-08
-5.56799e-07
-8.61139e-08
-4.65682e-07
-9.11172e-08
-3.71827e-07
-9.38541e-08
-2.82179e-07
-8.96485e-08
-1.93966e-07
-8.82126e-08
-9.90478e-08
-9.49186e-08
1.85871e-09
-1.00906e-07
1.06525e-07
-1.04666e-07
2.12457e-07
-1.05933e-07
3.23998e-07
-1.1154e-07
4.45552e-07
-1.21554e-07
5.74637e-07
-1.29084e-07
7.09425e-07
-1.34789e-07
8.48907e-07
-1.39482e-07
9.92437e-07
-1.4353e-07
1.13942e-06
-1.46978e-07
1.28911e-06
-1.49696e-07
1.44063e-06
-1.51514e-07
1.59291e-06
-1.52286e-07
1.74477e-06
-1.51862e-07
1.89483e-06
-1.50061e-07
2.04149e-06
-1.4666e-07
2.18287e-06
-1.41377e-07
2.31658e-06
-1.33709e-07
2.4392e-06
-1.22616e-07
2.54413e-06
-1.04933e-07
2.60784e-06
-6.37121e-08
2.85245e-08
2.57932e-06
9.52502e-09
-1.9023e-08
1.88019e-08
-1.93131e-08
2.79567e-08
-1.90479e-08
3.66251e-08
-1.81263e-08
4.44605e-08
-1.65278e-08
5.1142e-08
-1.42655e-08
5.63743e-08
-1.13816e-08
5.98935e-08
-7.93821e-09
6.14725e-08
-4.00975e-09
6.0924e-08
3.21664e-10
5.80962e-08
4.97144e-09
5.2869e-08
9.85286e-09
4.51639e-08
1.48754e-08
3.49508e-08
1.99445e-08
2.22517e-08
2.49596e-08
7.14381e-09
2.98093e-08
-1.02392e-08
3.43662e-08
-2.97115e-08
3.84863e-08
-5.10548e-08
4.20189e-08
-7.40446e-08
4.48364e-08
-9.84583e-08
4.68958e-08
-1.24064e-07
4.83157e-08
-1.50572e-07
4.93957e-08
-1.77489e-07
5.05114e-08
-2.04464e-07
5.18474e-08
-2.31588e-07
5.32106e-08
-2.59064e-07
5.43744e-08
-2.86946e-07
5.53008e-08
-3.15207e-07
5.60413e-08
-3.43819e-07
5.66563e-08
-3.72772e-07
5.71982e-08
-4.02072e-07
5.77132e-08
-4.31736e-07
5.82431e-08
-4.61791e-07
5.88233e-08
-4.92273e-07
5.94809e-08
-5.23222e-07
6.02339e-08
-5.54681e-07
6.10908e-08
-5.86694e-07
6.20514e-08
-6.193e-07
6.31084e-08
-6.52532e-07
6.42481e-08
-6.86414e-07
6.54528e-08
-7.2096e-07
6.67012e-08
-7.56173e-07
6.79702e-08
-7.92043e-07
6.92356e-08
-8.2855e-07
7.04733e-08
-8.6566e-07
7.16597e-08
-9.0333e-07
7.27726e-08
-9.41503e-07
7.37912e-08
-9.80117e-07
7.46969e-08
-1.0191e-06
7.54733e-08
-1.05837e-06
7.61068e-08
-1.09785e-06
7.65861e-08
-1.13744e-06
7.69029e-08
-1.17707e-06
7.70517e-08
-1.21663e-06
7.70297e-08
-1.25604e-06
7.68369e-08
-1.29521e-06
7.64759e-08
-1.33406e-06
7.59517e-08
-1.37251e-06
7.52715e-08
-1.41047e-06
7.44442e-08
-1.44789e-06
7.34804e-08
-1.4847e-06
7.23915e-08
-1.52084e-06
7.11898e-08
-1.55627e-06
6.98881e-08
-1.59094e-06
6.84988e-08
-1.62482e-06
6.7034e-08
-1.65788e-06
6.55051e-08
-1.69008e-06
6.39225e-08
-1.72142e-06
6.22954e-08
-1.75186e-06
6.06318e-08
-1.78141e-06
5.89384e-08
-1.81005e-06
5.72204e-08
-1.83777e-06
5.54822e-08
-1.86455e-06
5.37268e-08
-1.89041e-06
5.19567e-08
-1.91532e-06
5.01732e-08
-1.93929e-06
4.83775e-08
-1.9623e-06
4.657e-08
-1.98436e-06
4.47511e-08
-2.00546e-06
4.29207e-08
-2.02559e-06
4.10786e-08
-2.04474e-06
3.92243e-08
-2.06291e-06
3.73572e-08
-2.08009e-06
3.54763e-08
-2.09628e-06
3.35806e-08
-2.11147e-06
3.1669e-08
-2.12564e-06
2.97401e-08
-2.1388e-06
2.77925e-08
-2.15092e-06
2.58249e-08
-2.162e-06
2.38356e-08
-2.17204e-06
2.18235e-08
-2.181e-06
1.97872e-08
-2.1889e-06
1.77259e-08
-2.1957e-06
1.56389e-08
-2.20141e-06
1.35256e-08
-2.20601e-06
1.13854e-08
-2.20948e-06
9.21792e-09
-2.21183e-06
7.02235e-09
-2.21304e-06
4.79812e-09
-2.21313e-06
2.54921e-09
-2.2121e-06
2.48975e-10
-2.20999e-06
-1.97326e-09
-2.20685e-06
-4.24956e-09
-2.20257e-06
-6.51753e-09
-2.19713e-06
-8.77998e-09
-2.19051e-06
-1.10408e-08
-2.18274e-06
-1.33016e-08
-2.17379e-06
-1.55607e-08
-2.16369e-06
-1.78153e-08
-2.15243e-06
-2.00624e-08
-2.14002e-06
-2.22985e-08
-2.12646e-06
-2.45205e-08
-2.11177e-06
-2.67249e-08
-2.09596e-06
-2.89088e-08
-2.07904e-06
-3.10692e-08
-2.06103e-06
-3.32035e-08
-2.04194e-06
-3.53097e-08
-2.02179e-06
-3.73864e-08
-2.00058e-06
-3.94329e-08
-1.97835e-06
-4.14496e-08
-1.9551e-06
-4.34378e-08
-1.93085e-06
-4.54003e-08
-1.90562e-06
-4.7341e-08
-1.8794e-06
-4.92655e-08
-1.85221e-06
-5.11808e-08
-1.82405e-06
-5.3096e-08
-1.79491e-06
-5.50215e-08
-1.76479e-06
-5.69696e-08
-1.73367e-06
-5.89545e-08
-1.70152e-06
-6.09913e-08
-1.66832e-06
-6.30961e-08
-1.63402e-06
-6.52859e-08
-1.59857e-06
-6.75783e-08
-1.56192e-06
-6.9992e-08
-1.52401e-06
-7.25474e-08
-1.48474e-06
-7.52665e-08
-1.44404e-06
-7.81712e-08
-1.40181e-06
-8.12816e-08
-1.35794e-06
-8.46167e-08
-1.31231e-06
-8.81968e-08
-1.2648e-06
-9.20466e-08
-1.21526e-06
-9.61961e-08
-1.16355e-06
-1.00674e-07
-1.1095e-06
-1.05505e-07
-1.05293e-06
-1.10707e-07
-9.93668e-07
-1.16307e-07
-9.31511e-07
-1.22348e-07
-8.66248e-07
-1.2888e-07
-7.97662e-07
-1.3594e-07
-7.25541e-07
-1.43559e-07
-6.49699e-07
-1.51768e-07
-5.70033e-07
-1.6052e-07
-4.86665e-07
-1.69482e-07
-4.00223e-07
-1.77559e-07
-3.11893e-07
-1.82185e-07
-2.20059e-07
-1.81482e-07
-1.23102e-07
-1.8517e-07
-2.1985e-08
-1.96035e-07
8.41448e-08
-2.07036e-07
1.95375e-07
-2.15896e-07
3.12513e-07
-2.23071e-07
4.36124e-07
-2.35151e-07
5.67488e-07
-2.52918e-07
7.06355e-07
-2.67952e-07
8.51281e-07
-2.79714e-07
1.00135e-06
-2.89554e-07
1.15591e-06
-2.98086e-07
1.31426e-06
-3.05333e-07
1.47561e-06
-3.11045e-07
1.63898e-06
-3.1488e-07
1.80322e-06
-3.16525e-07
1.96703e-06
-3.15672e-07
2.12891e-06
-3.11945e-07
2.28714e-06
-3.04886e-07
2.43966e-06
-2.93898e-07
2.58396e-06
-2.78009e-07
2.71648e-06
-2.55139e-07
2.8322e-06
-2.20648e-07
2.92405e-06
-1.5556e-07
-3.62556e-08
2.98883e-06
8.46275e-09
-2.74858e-08
1.71976e-08
-2.80479e-08
2.56368e-08
-2.74871e-08
3.34433e-08
-2.59329e-08
4.02923e-08
-2.33768e-08
4.58902e-08
-1.98634e-08
4.99775e-08
-1.54689e-08
5.2327e-08
-1.02877e-08
5.27429e-08
-4.42563e-09
5.10616e-08
2.00302e-09
4.71532e-08
8.87982e-09
4.09256e-08
1.60804e-08
3.23229e-08
2.34781e-08
2.13277e-08
3.09397e-08
7.96311e-09
3.83241e-08
-7.70738e-09
4.54798e-08
-2.55844e-08
5.22432e-08
-4.55357e-08
5.84376e-08
-6.73986e-08
6.38818e-08
-9.0981e-08
6.84188e-08
-1.16059e-07
7.19736e-08
-1.42361e-07
7.46177e-08
-1.69546e-07
7.65805e-08
-1.97197e-07
7.81627e-08
-2.24939e-07
7.95899e-08
-2.52654e-07
8.09255e-08
-2.80428e-07
8.2148e-08
-3.08378e-07
8.32515e-08
-3.36596e-07
8.42585e-08
-3.65143e-07
8.5204e-08
-3.94072e-07
8.61264e-08
-4.23422e-07
8.70641e-08
-4.53233e-07
8.8054e-08
-4.83539e-07
8.91285e-08
-5.14371e-07
9.03132e-08
-5.45762e-07
9.16247e-08
-5.77741e-07
9.30696e-08
-6.10334e-07
9.4645e-08
-6.43564e-07
9.63387e-08
-6.77447e-07
9.8131e-08
-7.1199e-07
9.99957e-08
-7.47192e-07
1.01903e-07
-7.83039e-07
1.03818e-07
-8.19511e-07
1.05707e-07
-8.56572e-07
1.07535e-07
-8.94179e-07
1.09267e-07
-9.32278e-07
1.10871e-07
-9.70804e-07
1.12318e-07
-1.00969e-06
1.1358e-07
-1.04885e-06
1.14634e-07
-1.0882e-06
1.15462e-07
-1.12766e-06
1.16048e-07
-1.16714e-06
1.16381e-07
-1.20655e-06
1.16455e-07
-1.24578e-06
1.16268e-07
-1.28477e-06
1.15822e-07
-1.32341e-06
1.15121e-07
-1.36164e-06
1.14176e-07
-1.39937e-06
1.12999e-07
-1.43653e-06
1.11604e-07
-1.47305e-06
1.10009e-07
-1.50889e-06
1.08231e-07
-1.54399e-06
1.06289e-07
-1.57831e-06
1.04204e-07
-1.6118e-06
1.01993e-07
-1.64445e-06
9.96754e-08
-1.67621e-06
9.72677e-08
-1.70707e-06
9.47851e-08
-1.73702e-06
9.2241e-08
-1.76603e-06
8.9647e-08
-1.7941e-06
8.70123e-08
-1.82123e-06
8.43445e-08
-1.8474e-06
8.16492e-08
-1.8726e-06
7.89308e-08
-1.89684e-06
7.61921e-08
-1.9201e-06
7.3435e-08
-1.94238e-06
7.06605e-08
-1.96368e-06
6.78694e-08
-1.98399e-06
6.50617e-08
-2.00331e-06
6.22373e-08
-2.02162e-06
5.93957e-08
-2.03894e-06
5.65361e-08
-2.05524e-06
5.36577e-08
-2.07052e-06
5.07591e-08
-2.08478e-06
4.7839e-08
-2.098e-06
4.48957e-08
-2.11019e-06
4.19276e-08
-2.12133e-06
3.89328e-08
-2.13142e-06
3.59095e-08
-2.14044e-06
3.28559e-08
-2.14838e-06
2.97701e-08
-2.15525e-06
2.66507e-08
-2.16102e-06
2.34967e-08
-2.16569e-06
2.03072e-08
-2.16924e-06
1.70821e-08
-2.17168e-06
1.3822e-08
-2.17299e-06
1.05279e-08
-2.17317e-06
7.2021e-09
-2.17222e-06
3.84842e-09
-2.17014e-06
4.69983e-10
-2.16697e-06
-2.92219e-09
-2.16264e-06
-6.30547e-09
-2.15718e-06
-9.70861e-09
-2.15057e-06
-1.31266e-08
-2.1428e-06
-1.65529e-08
-2.13385e-06
-1.99833e-08
-2.12374e-06
-2.3414e-08
-2.11246e-06
-2.68408e-08
-2.10002e-06
-3.0259e-08
-2.08642e-06
-3.36637e-08
-2.07166e-06
-3.70497e-08
-2.05577e-06
-4.04121e-08
-2.03875e-06
-4.37458e-08
-2.02061e-06
-4.70461e-08
-2.00138e-06
-5.03085e-08
-1.98105e-06
-5.3529e-08
-1.95965e-06
-5.67045e-08
-1.93721e-06
-5.98325e-08
-1.91373e-06
-6.29119e-08
-1.88924e-06
-6.5943e-08
-1.86375e-06
-6.89276e-08
-1.83728e-06
-7.18696e-08
-1.80984e-06
-7.47745e-08
-1.78146e-06
-7.76503e-08
-1.75213e-06
-8.05074e-08
-1.72187e-06
-8.33587e-08
-1.69067e-06
-8.62193e-08
-1.65853e-06
-8.91072e-08
-1.62545e-06
-9.2043e-08
-1.59139e-06
-9.50491e-08
-1.55633e-06
-9.81493e-08
-1.52025e-06
-1.01369e-07
-1.4831e-06
-1.04733e-07
-1.44482e-06
-1.0827e-07
-1.40536e-06
-1.12009e-07
-1.36464e-06
-1.15983e-07
-1.32259e-06
-1.20225e-07
-1.2791e-06
-1.24764e-07
-1.23409e-06
-1.29629e-07
-1.18744e-06
-1.34851e-07
-1.13902e-06
-1.40465e-07
-1.0887e-06
-1.46518e-07
-1.03632e-06
-1.53055e-07
-9.8171e-07
-1.60112e-07
-9.24697e-07
-1.6772e-07
-8.65089e-07
-1.75914e-07
-8.02682e-07
-1.84755e-07
-7.37254e-07
-1.94307e-07
-6.68579e-07
-2.04615e-07
-5.96445e-07
-2.15692e-07
-5.20679e-07
-2.27533e-07
-4.41187e-07
-2.40013e-07
-3.58023e-07
-2.52646e-07
-2.71315e-07
-2.64266e-07
-1.80594e-07
-2.72907e-07
-8.36244e-08
-2.78451e-07
1.91187e-08
-2.87913e-07
1.26041e-07
-3.02958e-07
2.37811e-07
-3.18806e-07
3.5528e-07
-3.33366e-07
4.79485e-07
-3.47275e-07
6.0984e-07
-3.65506e-07
7.45649e-07
-3.88727e-07
8.88021e-07
-4.10324e-07
1.03682e-06
-4.28515e-07
1.19129e-06
-4.44023e-07
1.35062e-06
-4.57411e-07
1.51397e-06
-4.68688e-07
1.68045e-06
-4.77524e-07
1.84899e-06
-4.83425e-07
2.0184e-06
-4.85931e-07
2.18732e-06
-4.84596e-07
2.35425e-06
-4.78873e-07
2.51745e-06
-4.68086e-07
2.67492e-06
-4.5137e-07
2.82431e-06
-4.27391e-07
2.96268e-06
-3.93514e-07
3.08663e-06
-3.44593e-07
3.19542e-06
-2.64358e-07
-1.33788e-07
3.29296e-06
7.37908e-09
-3.48648e-08
1.46873e-08
-3.53561e-08
2.15912e-08
-3.4391e-08
2.77577e-08
-3.20994e-08
3.28998e-08
-2.85189e-08
3.67736e-08
-2.37372e-08
3.91696e-08
-1.78649e-08
3.99047e-08
-1.10228e-08
3.88185e-08
-3.33942e-09
3.57727e-08
5.04878e-09
3.06552e-08
1.39973e-08
2.33805e-08
2.33552e-08
1.3895e-08
3.29636e-08
2.17915e-09
4.26556e-08
-1.17521e-08
5.22554e-08
-2.78505e-08
6.15781e-08
-4.60341e-08
7.04268e-08
-6.61872e-08
7.85907e-08
-8.81576e-08
8.58521e-08
-1.11755e-07
9.2016e-08
-1.36749e-07
9.69676e-08
-1.62868e-07
1.00737e-07
-1.89804e-07
1.03516e-07
-2.17234e-07
1.05593e-07
-2.44889e-07
1.07245e-07
-2.72624e-07
1.0866e-07
-3.00424e-07
1.09948e-07
-3.28346e-07
1.11173e-07
-3.56465e-07
1.12378e-07
-3.84859e-07
1.13599e-07
-4.13601e-07
1.14868e-07
-4.42752e-07
1.16215e-07
-4.72367e-07
1.17669e-07
-5.0249e-07
1.19252e-07
-5.33159e-07
1.20982e-07
-5.64403e-07
1.22868e-07
-5.96244e-07
1.24911e-07
-6.287e-07
1.27101e-07
-6.61778e-07
1.29417e-07
-6.95479e-07
1.31832e-07
-7.29796e-07
1.34313e-07
-7.64712e-07
1.36818e-07
-8.00199e-07
1.39306e-07
-8.36224e-07
1.41731e-07
-8.72738e-07
1.4405e-07
-9.0969e-07
1.46218e-07
-9.47014e-07
1.48196e-07
-9.84642e-07
1.49945e-07
-1.0225e-06
1.51434e-07
-1.0605e-06
1.52633e-07
-1.09855e-06
1.53521e-07
-1.13659e-06
1.54079e-07
-1.1745e-06
1.54297e-07
-1.21221e-06
1.54168e-07
-1.24964e-06
1.53692e-07
-1.28669e-06
1.52873e-07
-1.32329e-06
1.51723e-07
-1.35937e-06
1.50254e-07
-1.39486e-06
1.48486e-07
-1.42969e-06
1.46438e-07
-1.46382e-06
1.44135e-07
-1.49719e-06
1.41601e-07
-1.52976e-06
1.38862e-07
-1.5615e-06
1.35944e-07
-1.59238e-06
1.32872e-07
-1.62237e-06
1.2967e-07
-1.65146e-06
1.26359e-07
-1.67964e-06
1.22959e-07
-1.70688e-06
1.19487e-07
-1.73319e-06
1.15957e-07
-1.75856e-06
1.1238e-07
-1.78298e-06
1.08765e-07
-1.80645e-06
1.0512e-07
-1.82897e-06
1.01447e-07
-1.85053e-06
9.77513e-08
-1.87112e-06
9.40333e-08
-1.89076e-06
9.02943e-08
-1.90942e-06
8.65343e-08
-1.92712e-06
8.27534e-08
-1.94383e-06
7.8951e-08
-1.95956e-06
7.51264e-08
-1.9743e-06
7.12784e-08
-1.98805e-06
6.74059e-08
-2.0008e-06
6.35071e-08
-2.01254e-06
5.95804e-08
-2.02327e-06
5.56238e-08
-2.03298e-06
5.16353e-08
-2.04166e-06
4.76129e-08
-2.0493e-06
4.35543e-08
-2.0559e-06
3.94574e-08
-2.06145e-06
3.53201e-08
-2.06594e-06
3.11407e-08
-2.06936e-06
2.69178e-08
-2.07171e-06
2.26507e-08
-2.07296e-06
1.83396e-08
-2.07313e-06
1.39859e-08
-2.07219e-06
9.59184e-09
-2.07015e-06
5.16153e-09
-2.067e-06
7.00263e-10
-2.06275e-06
-3.78592e-09
-2.05738e-06
-8.28898e-09
-2.05088e-06
-1.28059e-08
-2.04324e-06
-1.7345e-08
-2.03447e-06
-2.19042e-08
-2.02454e-06
-2.64772e-08
-2.01347e-06
-3.10574e-08
-2.00124e-06
-3.56381e-08
-1.98787e-06
-4.02129e-08
-1.97335e-06