/*--------------------------------*- C++ -*----------------------------------*\
| =========                 |                                                 |
| \\      /  F ield         | OpenFOAM: The Open Source CFD Toolbox           |
|  \\    /   O peration     | Version:  2112                                  |
|   \\  /    A nd           | Website:  www.openfoam.com                      |
|    \\/     M anipulation  |                                                 |
\*---------------------------------------------------------------------------*/
FoamFile
{
    version     2.0;
    format      ascii;
    arch        "LSB;label=32;scalar=64";
    class       volVectorField;
    location    "0.29";
    object      U;
}
// * * * * * * * * * * * * * * * * * * * * * * * * * * * * * * * * * * * * * //

dimensions      [0 1 -1 0 0 0 0];

internalField   nonuniform List<vector> 
12225
(
(9.76243 0.0634167 0)
(9.26885 0.103714 0)
(8.73092 0.11259 0)
(8.1783 0.114591 0)
(7.64376 0.112379 0)
(7.14322 0.106151 0)
(6.6858 0.0967906 0)
(6.27973 0.0852382 0)
(5.93106 0.0724129 0)
(5.64191 0.0592433 0)
(5.41054 0.0465522 0)
(5.23222 0.0350022 0)
(5.10007 0.0250407 0)
(5.00588 0.016954 0)
(4.94034 0.011037 0)
(4.8953 0.00774462 0)
(4.85344 0.0142714 0)
(4.80466 0.0215167 0)
(10.0973 0.0736188 0)
(10.2943 0.111712 0)
(10.4227 0.120369 0)
(10.4845 0.129326 0)
(10.4937 0.136432 0)
(10.4558 0.139213 0)
(10.3763 0.137577 0)
(10.2636 0.131795 0)
(10.1266 0.122349 0)
(9.97359 0.11007 0)
(9.81101 0.0960269 0)
(9.64381 0.0813903 0)
(9.47535 0.0672556 0)
(9.30762 0.0546286 0)
(9.14156 0.0442982 0)
(8.97738 0.0381416 0)
(8.81682 0.0379367 0)
(8.67275 0.0584673 0)
(10.0167 0.0401522 0)
(10.0699 0.0667174 0)
(10.1263 0.0806078 0)
(10.1832 0.0973249 0)
(10.2444 0.112312 0)
(10.3071 0.123032 0)
(10.3657 0.129705 0)
(10.4157 0.132679 0)
(10.4544 0.13217 0)
(10.4812 0.128838 0)
(10.4958 0.123674 0)
(10.4989 0.11781 0)
(10.4919 0.112315 0)
(10.4765 0.108135 0)
(10.4544 0.106166 0)
(10.4271 0.107429 0)
(10.3986 0.113071 0)
(10.3682 0.122222 0)
(10.0085 0.032203 0)
(10.0406 0.064473 0)
(10.0709 0.0803904 0)
(10.0963 0.0936181 0)
(10.1228 0.104258 0)
(10.1528 0.111329 0)
(10.1848 0.115091 0)
(10.2176 0.115964 0)
(10.2501 0.114352 0)
(10.2806 0.110669 0)
(10.3083 0.105544 0)
(10.3325 0.0998531 0)
(10.3533 0.0944209 0)
(10.3711 0.0899689 0)
(10.3868 0.0872129 0)
(10.4021 0.0867877 0)
(10.4183 0.0892768 0)
(10.4393 0.0913061 0)
(10.0051 0.0271192 0)
(10.03 0.058846 0)
(10.0556 0.0741194 0)
(10.0768 0.0861916 0)
(10.0982 0.096375 0)
(10.1211 0.103249 0)
(10.1444 0.10683 0)
(10.1673 0.107687 0)
(10.1897 0.106226 0)
(10.2109 0.102908 0)
(10.2306 0.0984254 0)
(10.2487 0.0935253 0)
(10.2653 0.0888961 0)
(10.2809 0.0851618 0)
(10.2961 0.0828413 0)
(10.3119 0.0822519 0)
(10.3294 0.0832013 0)
(10.3516 0.0849455 0)
(10.0034 0.0223761 0)
(10.0229 0.0518601 0)
(10.0457 0.0677805 0)
(10.066 0.0799684 0)
(10.0863 0.0899205 0)
(10.1076 0.0964844 0)
(10.129 0.0998191 0)
(10.1497 0.10048 0)
(10.1694 0.0989784 0)
(10.188 0.0958202 0)
(10.2053 0.0915684 0)
(10.2214 0.0868474 0)
(10.2364 0.0822488 0)
(10.2507 0.0782746 0)
(10.2651 0.0752884 0)
(10.2803 0.0734672 0)
(10.2972 0.0725627 0)
(10.3171 0.071826 0)
(10.0024 0.0186777 0)
(10.0179 0.0456422 0)
(10.038 0.061437 0)
(10.0571 0.0731606 0)
(10.0764 0.0825509 0)
(10.0968 0.0888753 0)
(10.1175 0.0921731 0)
(10.1374 0.0929 0)
(10.1564 0.0915523 0)
(10.1742 0.0885976 0)
(10.1908 0.0845713 0)
(10.2063 0.0800353 0)
(10.2209 0.0754923 0)
(10.235 0.0713495 0)
(10.2492 0.0678801 0)
(10.2641 0.0651436 0)
(10.2804 0.0627947 0)
(10.2989 0.0600674 0)
(10.0018 0.0157047 0)
(10.0142 0.0401035 0)
(10.0318 0.0554136 0)
(10.0496 0.0665003 0)
(10.0678 0.075151 0)
(10.0871 0.0809621 0)
(10.1068 0.0839964 0)
(10.126 0.0847097 0)
(10.1445 0.0834845 0)
(10.1619 0.0807448 0)
(10.1783 0.076964 0)
(10.1936 0.0726207 0)
(10.2082 0.0681285 0)
(10.2223 0.0637894 0)
(10.2364 0.0597954 0)
(10.2511 0.0561231 0)
(10.2669 0.0524227 0)
(10.2844 0.0481024 0)
(10.0013 0.0132395 0)
(10.0114 0.0350094 0)
(10.0268 0.0495275 0)
(10.0433 0.0599076 0)
(10.0604 0.0678035 0)
(10.0785 0.0730781 0)
(10.097 0.0757906 0)
(10.1154 0.0763443 0)
(10.1331 0.0751348 0)
(10.15 0.0725261 0)
(10.1661 0.0689051 0)
(10.1813 0.0646718 0)
(10.1958 0.0601633 0)
(10.2099 0.0556098 0)
(10.2239 0.0511039 0)
(10.2384 0.0465946 0)
(10.2537 0.0417725 0)
(10.2702 0.0361801 0)
(10.001 0.0111608 0)
(10.0093 0.0303061 0)
(10.0228 0.0437664 0)
(10.038 0.0533524 0)
(10.054 0.0604648 0)
(10.0709 0.0651645 0)
(10.0883 0.067517 0)
(10.1056 0.0678696 0)
(10.1225 0.0665882 0)
(10.1387 0.0640057 0)
(10.1543 0.0604593 0)
(10.1692 0.0562722 0)
(10.1835 0.0517086 0)
(10.1974 0.0469377 0)
(10.2113 0.0419717 0)
(10.2255 0.0367365 0)
(10.2401 0.0309713 0)
(10.2556 0.0243393 0)
(10.0008 0.009379 0)
(10.0077 0.0259719 0)
(10.0195 0.03816 0)
(10.0335 0.0468499 0)
(10.0484 0.0531421 0)
(10.0641 0.0572226 0)
(10.0804 0.0591713 0)
(10.0967 0.0592793 0)
(10.1127 0.0578767 0)
(10.1282 0.0552615 0)
(10.1432 0.0517166 0)
(10.1576 0.0475021 0)
(10.1715 0.0428221 0)
(10.1852 0.0377973 0)
(10.1987 0.032435 0)
(10.2124 0.0265818 0)
(10.2262 0.0200492 0)
(10.2406 0.0126024 0)
(10.0007 0.00792903 0)
(10.0065 0.0222766 0)
(10.017 0.0331582 0)
(10.0299 0.0409357 0)
(10.0438 0.0464432 0)
(10.0586 0.0499207 0)
(10.074 0.0514605 0)
(10.0894 0.0513066 0)
(10.1046 0.0497508 0)
(10.1194 0.0470559 0)
(10.1337 0.04346 0)
(10.1476 0.0391738 0)
(10.161 0.0343554 0)
(10.1743 0.0290924 0)
(10.1874 0.0233801 0)
(10.2004 0.017101 0)
(10.2135 0.0100324 0)
(10.2268 0.00203388 0)
(10.0006 0.00664462 0)
(10.0056 0.0188495 0)
(10.0149 0.0283299 0)
(10.0268 0.0351266 0)
(10.0398 0.0398287 0)
(10.0537 0.0426786 0)
(10.0681 0.0437783 0)
(10.0826 0.0433317 0)
(10.097 0.0415895 0)
(10.1111 0.0387789 0)
(10.1248 0.0350986 0)
(10.1382 0.0307165 0)
(10.1511 0.0257538 0)
(10.1638 0.0202698 0)
(10.1763 0.0142578 0)
(10.1887 0.00763923 0)
(10.2009 0.00021434 0)
(10.2131 -0.00813495 0)
(10.0005 0.00532695 0)
(10.0048 0.0152004 0)
(10.013 0.0230149 0)
(10.0237 0.0286118 0)
(10.0357 0.0323492 0)
(10.0486 0.0344419 0)
(10.062 0.0349958 0)
(10.0756 0.0341736 0)
(10.0891 0.0321781 0)
(10.1024 0.0291964 0)
(10.1154 0.0253867 0)
(10.128 0.0208771 0)
(10.1403 0.0157553 0)
(10.1522 0.0100601 0)
(10.164 0.00377999 0)
(10.1755 -0.00313887 0)
(10.1867 -0.0108135 0)
(10.1977 -0.0193323 0)
(10.0004 0.00396724 0)
(10.0041 0.0113461 0)
(10.0112 0.0172384 0)
(10.0208 0.0213952 0)
(10.0317 0.023987 0)
(10.0435 0.0251772 0)
(10.0558 0.0250632 0)
(10.0684 0.0237676 0)
(10.081 0.0214419 0)
(10.0934 0.0182303 0)
(10.1055 0.0142513 0)
(10.1173 0.00959698 0)
(10.1287 0.00432796 0)
(10.1398 -0.00153022 0)
(10.1505 -0.0079862 0)
(10.1609 -0.0150735 0)
(10.1709 -0.0228516 0)
(10.1805 -0.0313457 0)
(10.0004 0.00255938 0)
(10.0035 0.00730114 0)
(10.0097 0.0110329 0)
(10.0181 0.0135014 0)
(10.0279 0.0147506 0)
(10.0386 0.01488 0)
(10.0499 0.0139638 0)
(10.0613 0.0120861 0)
(10.0729 0.00934952 0)
(10.0843 0.00585386 0)
(10.0954 0.00168185 0)
(10.1062 -0.00310491 0)
(10.1166 -0.0084668 0)
(10.1266 -0.0143856 0)
(10.1361 -0.020863 0)
(10.1452 -0.0279128 0)
(10.1538 -0.0355611 0)
(10.1619 -0.0437959 0)
(10.0003 0.00108846 0)
(10.003 0.00304663 0)
(10.0084 0.00440071 0)
(10.0158 0.00494332 0)
(10.0246 0.00464939 0)
(10.0342 0.00355793 0)
(10.0443 0.0017089 0)
(10.0547 -0.000850922 0)
(10.0651 -0.00406314 0)
(10.0754 -0.00786908 0)
(10.0855 -0.0122189 0)
(10.0952 -0.0170757 0)
(10.1044 -0.0224154 0)
(10.1132 -0.0282241 0)
(10.1215 -0.0344966 0)
(10.1292 -0.0412308 0)
(10.1364 -0.0484282 0)
(10.1429 -0.0560609 0)
(10.0003 -0.000461475 0)
(10.0027 -0.00146356 0)
(10.0074 -0.00270756 0)
(10.014 -0.00432523 0)
(10.0219 -0.00636724 0)
(10.0305 -0.00884359 0)
(10.0396 -0.0117517 0)
(10.049 -0.0150798 0)
(10.0584 -0.0188079 0)
(10.0676 -0.0229139 0)
(10.0766 -0.0273784 0)
(10.0852 -0.0321866 0)
(10.0933 -0.0373271 0)
(10.1008 -0.0427917 0)
(10.1078 -0.0485731 0)
(10.1142 -0.0546615 0)
(10.1199 -0.0610456 0)
(10.125 -0.0676933 0)
(10.0003 -0.00215571 0)
(10.0025 -0.00639163 0)
(10.0069 -0.0104829 0)
(10.013 -0.0144768 0)
(10.0202 -0.0184392 0)
(10.0282 -0.022427 0)
(10.0366 -0.0264741 0)
(10.0452 -0.0306002 0)
(10.0537 -0.0348192 0)
(10.0621 -0.0391428 0)
(10.0701 -0.0435805 0)
(10.0777 -0.0481401 0)
(10.0848 -0.0528285 0)
(10.0913 -0.0576506 0)
(10.0972 -0.0626081 0)
(10.1025 -0.0676976 0)
(10.1071 -0.0729118 0)
(10.111 -0.0782282 0)
(10.0003 -0.00374817 0)
(10.0026 -0.0109991 0)
(10.0071 -0.0176921 0)
(10.0134 -0.023806 0)
(10.0206 -0.0294513 0)
(10.0285 -0.0347419 0)
(10.0367 -0.0397437 0)
(10.0451 -0.044501 0)
(10.0534 -0.0490566 0)
(10.0615 -0.0534508 0)
(10.0691 -0.0577179 0)
(10.0763 -0.061888 0)
(10.0829 -0.0659886 0)
(10.089 -0.0700443 0)
(10.0943 -0.0740751 0)
(10.099 -0.0780952 0)
(10.103 -0.0821137 0)
(10.1063 -0.0861269 0)
(10.0003 -0.00512877 0)
(10.0029 -0.0149494 0)
(10.008 -0.0237456 0)
(10.0147 -0.0314817 0)
(10.0223 -0.0383856 0)
(10.0304 -0.0446433 0)
(10.0389 -0.0503374 0)
(10.0474 -0.0555271 0)
(10.0559 -0.0602796 0)
(10.064 -0.0646576 0)
(10.0717 -0.0687133 0)
(10.0789 -0.0724939 0)
(10.0854 -0.0760461 0)
(10.0913 -0.0794139 0)
(10.0966 -0.0826373 0)
(10.1011 -0.0857497 0)
(10.1049 -0.0887787 0)
(10.1079 -0.0917386 0)
(10.0004 -0.00655138 0)
(10.0035 -0.0189173 0)
(10.0094 -0.029596 0)
(10.0169 -0.038667 0)
(10.0252 -0.0465996 0)
(10.0338 -0.0536579 0)
(10.0427 -0.0599171 0)
(10.0517 -0.0654458 0)
(10.0605 -0.0703336 0)
(10.0689 -0.0746578 0)
(10.0769 -0.0784811 0)
(10.0843 -0.081865 0)
(10.0911 -0.0848741 0)
(10.0972 -0.0875734 0)
(10.1025 -0.0900245 0)
(10.1071 -0.0922826 0)
(10.1109 -0.0943969 0)
(10.1139 -0.096402 0)
(10.0005 -0.0081311 0)
(10.0046 -0.0231191 0)
(10.0117 -0.0354387 0)
(10.0203 -0.0455606 0)
(10.0292 -0.0543308 0)
(10.0385 -0.0620499 0)
(10.048 -0.0687635 0)
(10.0575 -0.0745634 0)
(10.0669 -0.0795613 0)
(10.0759 -0.0838344 0)
(10.0844 -0.0874436 0)
(10.0923 -0.0904576 0)
(10.0995 -0.092956 0)
(10.1059 -0.095023 0)
(10.1115 -0.0967408 0)
(10.1163 -0.0981853 0)
(10.1203 -0.0994274 0)
(10.1234 -0.100522 0)
(10.0007 -0.0100124 0)
(10.0062 -0.0277135 0)
(10.0151 -0.041298 0)
(10.0248 -0.0521816 0)
(10.0345 -0.0616775 0)
(10.0446 -0.0699783 0)
(10.0548 -0.0770604 0)
(10.0651 -0.0830626 0)
(10.0752 -0.0881285 0)
(10.0849 -0.092331 0)
(10.0941 -0.0957242 0)
(10.1026 -0.0983812 0)
(10.1104 -0.100394 0)
(10.1173 -0.101869 0)
(10.1234 -0.102913 0)
(10.1285 -0.103621 0)
(10.1328 -0.104079 0)
(10.1361 -0.104357 0)
(10.0011 -0.0124027 0)
(10.0088 -0.0329256 0)
(10.0199 -0.0471895 0)
(10.0309 -0.0584466 0)
(10.0415 -0.0685685 0)
(10.0525 -0.0774916 0)
(10.0637 -0.085056 0)
(10.0749 -0.0913927 0)
(10.0858 -0.0966347 0)
(10.0963 -0.100834 0)
(10.1062 -0.104035 0)
(10.1155 -0.106317 0)
(10.124 -0.107784 0)
(10.1315 -0.108566 0)
(10.138 -0.108797 0)
(10.1436 -0.108625 0)
(10.1482 -0.10817 0)
(10.1518 -0.107498 0)
(10.0018 -0.0155275 0)
(10.0129 -0.0392435 0)
(10.0269 -0.0538789 0)
(10.0394 -0.0651564 0)
(10.0509 -0.0753526 0)
(10.0629 -0.0842283 0)
(10.0753 -0.0917817 0)
(10.0875 -0.0981953 0)
(10.0995 -0.103539 0)
(10.1112 -0.107802 0)
(10.1224 -0.111001 0)
(10.133 -0.113197 0)
(10.1429 -0.11448 0)
(10.1518 -0.114993 0)
(10.1597 -0.114883 0)
(10.1666 -0.114264 0)
(10.1725 -0.113298 0)
(10.1773 -0.112046 0)
(10.0033 -0.019556 0)
(10.0195 -0.045402 0)
(10.0377 -0.0605207 0)
(10.0528 -0.0726995 0)
(10.0671 -0.0836033 0)
(10.0822 -0.0927338 0)
(10.0978 -0.100181 0)
(10.1136 -0.106354 0)
(10.1296 -0.111351 0)
(10.1457 -0.115139 0)
(10.1618 -0.117735 0)
(10.1775 -0.119216 0)
(10.1926 -0.119691 0)
(10.2068 -0.119278 0)
(10.2201 -0.118192 0)
(10.232 -0.116631 0)
(10.2426 -0.114684 0)
(10.2513 -0.112402 0)
(10.008 -0.0249821 0)
(10.0363 -0.0463785 0)
(10.0671 -0.0578937 0)
(10.0963 -0.0711633 0)
(10.1277 -0.0845364 0)
(10.1631 -0.0963834 0)
(10.2002 -0.106725 0)
(10.2375 -0.115735 0)
(10.2743 -0.123421 0)
(10.3095 -0.129636 0)
(10.3421 -0.134299 0)
(10.3711 -0.137419 0)
(10.3959 -0.139076 0)
(10.4161 -0.139439 0)
(10.4314 -0.138717 0)
(10.442 -0.137229 0)
(10.4483 -0.135205 0)
(10.4508 -0.133206 0)
(10.0521 -0.051749 0)
(10.1804 -0.0866662 0)
(10.2879 -0.0970186 0)
(10.3687 -0.107032 0)
(10.4262 -0.116844 0)
(10.4606 -0.124754 0)
(10.4725 -0.130951 0)
(10.463 -0.135654 0)
(10.4342 -0.138769 0)
(10.3886 -0.140138 0)
(10.3286 -0.139699 0)
(10.2569 -0.137502 0)
(10.1758 -0.133689 0)
(10.0877 -0.128484 0)
(9.99465 -0.122177 0)
(9.89833 -0.115175 0)
(9.79993 -0.107722 0)
(9.70121 -0.100718 0)
(9.8714 -0.0477099 0)
(9.57411 -0.0860243 0)
(9.22811 -0.0998666 0)
(8.8552 -0.107783 0)
(8.47785 -0.112309 0)
(8.10567 -0.113813 0)
(7.74269 -0.113069 0)
(7.39275 -0.11055 0)
(7.05982 -0.106432 0)
(6.74717 -0.100915 0)
(6.45711 -0.0942868 0)
(6.19129 -0.0868121 0)
(5.95065 -0.0787579 0)
(5.7355 -0.070395 0)
(5.54538 -0.0619859 0)
(5.37943 -0.053797 0)
(5.23525 -0.046078 0)
(5.11383 -0.0387725 0)
(0.0345947 -0.0565236 -6.81567e-22)
(0.082344 -0.0750835 6.44232e-22)
(0.16933 -0.0933091 0)
(0.273081 -0.11628 0)
(0.3956 -0.146144 0)
(0.541233 -0.176579 -6.52853e-22)
(0.709816 -0.201219 0)
(0.893815 -0.217714 0)
(1.08758 -0.225593 0)
(1.28626 -0.226789 0)
(1.4855 -0.22324 1.02136e-21)
(1.68182 -0.216269 0)
(1.87245 -0.206879 0)
(2.05528 -0.195988 0)
(2.22853 -0.183382 0)
(2.39081 -0.168915 1.73471e-21)
(2.54076 -0.152835 0)
(2.67707 -0.135485 0)
(2.79873 -0.11713 0)
(2.90487 -0.0979167 0)
(2.99471 -0.0778381 0)
(3.06739 -0.0567278 0)
(3.12194 -0.0342135 0)
(3.1568 -0.00960576 2.77268e-21)
(3.17288 0.0186825 -2.84919e-21)
(3.16257 0.0500926 2.9086e-21)
(3.1263 0.0825461 2.95214e-21)
(3.06484 0.113928 0)
(2.97897 0.142252 0)
(2.87043 0.165861 -3.0042e-21)
(2.74204 0.183367 -2.99785e-21)
(2.59739 0.19365 0)
(2.44066 0.196127 0)
(2.27668 0.190968 -2.9283e-21)
(2.11053 0.179144 0)
(1.94779 0.16072 0)
(1.79341 0.137316 2.8133e-21)
(1.65173 0.112104 0)
(1.5264 0.0861337 2.72627e-21)
(1.42004 0.0601916 5.36428e-21)
(1.33437 0.0351005 0)
(1.27005 0.0118844 0)
(1.22676 -0.00832078 0)
(1.20325 -0.0246169 0)
(1.19834 -0.0363913 0)
(1.20879 -0.044372 4.97515e-21)
(1.23335 -0.0518334 4.95806e-21)
(1.27033 -0.0615702 4.96235e-21)
(1.31736 -0.0717077 0)
(1.3681 -0.0769622 -5.03966e-21)
(1.41091 -0.067382 0)
(1.42088 -0.041478 5.19525e-21)
(1.37726 -0.0130272 5.29092e-21)
(1.2718 0.00749672 0)
(1.09509 0.0182675 0)
(0.834654 0.0384463 0)
(0.473557 0.095404 6.2989e-21)
(-0.000609363 0.194818 0)
(-0.589987 0.313402 0)
(-1.27797 0.428033 0)
(-2.03499 0.522215 0)
(-2.82735 0.586176 0)
(-3.62164 0.616783 0)
(-4.38872 0.616067 0)
(-5.10574 0.589405 0)
(-5.75647 0.543594 -1.44548e-20)
(-6.33021 0.484582 0)
(-6.82092 0.415302 0)
(-7.22649 0.341509 1.66485e-20)
(-7.5483 0.269821 1.70164e-20)
(-7.79097 0.203152 0)
(-7.96046 0.143353 -1.71806e-20)
(-8.0636 0.0917627 1.6997e-20)
(-8.10712 0.049256 0)
(-8.09765 0.0167613 -1.61439e-20)
(-8.05537 -0.00696927 0)
(-7.98281 -0.0258839 0)
(-7.88615 -0.0414146 1.38863e-20)
(-7.76906 -0.0546312 0)
(-7.63433 -0.0663146 -1.19328e-20)
(-7.4837 -0.0771953 0)
(-7.31786 -0.087997 9.7229e-21)
(-7.13639 -0.0994427 8.53302e-21)
(-6.93774 -0.112232 7.2857e-21)
(-6.71922 -0.126975 1.19534e-20)
(-6.47718 -0.144076 -9.20034e-21)
(-6.20726 -0.163625 0)
(-5.90498 -0.185361 0)
(-5.56628 -0.208658 0)
(-5.18815 -0.232486 3.28944e-21)
(-4.76892 -0.255617 6.71598e-21)
(-4.3091 -0.278506 -1.01864e-20)
(-3.81112 -0.299506 0)
(-3.2805 -0.316859 1.69557e-20)
(-2.72573 -0.328747 2.0071e-20)
(-2.15788 -0.333141 2.28841e-20)
(-1.58982 -0.327963 0)
(-1.03546 -0.312519 0)
(-0.509253 -0.291895 0)
(-0.0172709 -0.277822 2.98393e-20)
(0.45078 -0.269744 0)
(0.896828 -0.256117 0)
(1.30786 -0.232375 -3.00421e-20)
(1.67597 -0.203647 0)
(1.9998 -0.173114 0)
(2.28076 -0.141567 -2.85549e-20)
(2.52232 -0.111925 0)
(2.72678 -0.0850329 0)
(2.89614 -0.0607524 2.66778e-20)
(3.0329 -0.0388741 2.6063e-20)
(3.14002 -0.019173 0)
(3.22009 -0.00163669 -2.49136e-20)
(3.27501 0.0139361 0)
(3.30636 0.028104 2.38983e-20)
(3.31172 0.0425719 0)
(3.29271 0.0564598 2.30101e-20)
(3.25313 0.0675311 2.26014e-20)
(3.19574 0.0736316 0)
(3.12406 0.0750411 0)
(3.041 0.072325 0)
(2.94851 0.0661535 0)
(2.84819 0.0574095 0)
(2.74187 0.0469342 0)
(2.63269 0.035157 0)
(2.52637 0.0220099 2.05131e-20)
(2.432 0.00730076 -2.03567e-20)
(2.36212 -0.00836765 0)
(2.33061 -0.0213164 0)
(2.33951 -0.0259552 0)
(2.37024 -0.0131406 0)
(2.36228 0.0160169 -3.91369e-20)
(2.26489 0.0597139 0)
(2.05236 0.103087 3.73757e-20)
(1.7106 0.145542 -3.56815e-20)
(1.23312 0.1942 0)
(0.642139 0.241998 0)
(-0.0238693 0.267391 0)
(-0.715335 0.27996 1.90115e-20)
(-1.38795 0.277229 1.31906e-20)
(-2.01313 0.262121 0)
(-2.56553 0.234623 2.83759e-21)
(-3.0244 0.187625 -1.11834e-21)
(-3.37175 0.126578 3.98119e-21)
(-3.59129 0.0631708 0)
(-3.67134 0.00141117 0)
(-3.61385 -0.0592265 4.71916e-21)
(-3.43294 -0.114826 0)
(-3.12991 -0.166928 0)
(-2.71411 -0.213379 0)
(-2.2009 -0.249885 0)
(-1.61167 -0.268955 1.70238e-20)
(-0.976427 -0.269927 2.23962e-20)
(-0.309201 -0.26233 0)
(0.378094 -0.260624 3.12637e-20)
(1.05726 -0.258811 0)
(1.71685 -0.247437 0)
(2.34572 -0.218498 3.70504e-20)
(2.92999 -0.181924 0)
(3.46303 -0.145703 3.71061e-20)
(3.94559 -0.111528 0)
(4.37918 -0.0804582 0)
(4.76517 -0.05254 3.37658e-20)
(5.1049 -0.0273292 0)
(5.39925 -0.00437526 3.04158e-20)
(5.6474 0.0170227 0)
(5.8463 0.0369465 0)
(5.99139 0.0529331 0)
(6.07747 0.0619172 -2.34774e-20)
(6.09378 0.0770622 0)
(6.04095 0.101099 2.07144e-20)
(5.92441 0.118078 0)
(5.74723 0.127908 0)
(5.51528 0.131954 0)
(5.23688 0.13065 0)
(4.92247 0.12508 0)
(4.58219 0.116764 0)
(4.227 0.105888 0)
(3.86427 0.0920705 -3.81921e-20)
(3.51987 0.0787819 0)
(3.10303 0.067826 0)
(0.0504067 -0.183952 2.1297e-21)
(0.122528 -0.243848 -2.00472e-21)
(0.243335 -0.30255 0)
(0.384046 -0.364597 1.36769e-21)
(0.544453 -0.426794 0)
(0.722209 -0.485122 6.32454e-22)
(0.911378 -0.532473 -1.52375e-21)
(1.10665 -0.563861 -1.65153e-21)
(1.30559 -0.580005 0)
(1.50548 -0.583 -2.0147e-21)
(1.70285 -0.575063 -9.77451e-22)
(1.89515 -0.558143 0)
(2.08042 -0.534014 0)
(2.25624 -0.50468 0)
(2.42121 -0.471851 0)
(2.57519 -0.435859 -1.65843e-21)
(2.71772 -0.39704 0)
(2.84833 -0.356048 4.17397e-21)
(2.96672 -0.313455 0)
(3.07261 -0.269676 0)
(3.16577 -0.224906 -4.96297e-21)
(3.24603 -0.179113 0)
(3.31329 -0.132105 5.40103e-21)
(3.36796 -0.0836032 -2.68787e-21)
(3.40871 -0.032922 2.7669e-21)
(3.44097 0.0198048 -2.82908e-21)
(3.46338 0.073811 -2.8713e-21)
(3.47443 0.127673 0)
(3.47172 0.180053 0)
(3.45282 0.229606 2.91251e-21)
(3.4154 0.274723 -3.08477e-21)
(3.3576 0.31351 0)
(3.27826 0.34401 0)
(3.1772 0.364471 2.82148e-21)
(3.05547 0.373599 0)
(2.91538 0.370743 0)
(2.76066 0.356199 -2.71139e-21)
(2.59605 0.330858 0)
(2.4274 0.29626 2.62031e-21)
(2.2609 0.254656 -5.20225e-21)
(2.10263 0.208729 0)
(1.95829 0.161087 0)
(1.83288 0.113876 -9.89594e-21)
(1.73034 0.0685043 -9.79643e-21)
(1.65283 0.0259798 -9.72467e-21)
(1.60196 -0.0127197 4.76407e-21)
(1.57288 -0.0456209 -4.90785e-21)
(1.55644 -0.0698807 -1.46116e-20)
(1.53738 -0.0802033 9.77041e-21)
(1.4926 -0.0659908 5.00299e-21)
(1.39047 -0.0141916 0)
(1.2033 0.0829933 -5.17234e-21)
(0.901113 0.224704 5.19596e-21)
(0.449919 0.407091 0)
(-0.162256 0.626378 0)
(-0.932408 0.872833 0)
(-1.82809 1.11966 -5.8474e-21)
(-2.79392 1.33559 0)
(-3.77735 1.49682 1.45121e-20)
(-4.72888 1.58794 0)
(-5.60944 1.60586 1.81634e-20)
(-6.39171 1.55748 0)
(-7.06056 1.45597 -2.26509e-20)
(-7.61161 1.31707 0)
(-8.04874 1.1562 2.7199e-20)
(-8.38152 0.986588 -1.58031e-20)
(-8.62312 0.818308 0)
(-8.78836 0.658137 -3.24934e-20)
(-8.89132 0.510076 -1.59177e-20)
(-8.94459 0.376115 -1.63845e-20)
(-8.95856 0.256756 0)
(-8.94174 0.151831 -1.7928e-20)
(-8.90095 0.0610875 -1.6589e-20)
(-8.84098 -0.0153977 0)
(-8.7656 -0.0779396 1.57667e-20)
(-8.66444 -0.128134 -3.08874e-20)
(-8.54253 -0.16908 0)
(-8.40125 -0.202693 -1.35532e-20)
(-8.24313 -0.230768 0)
(-8.07015 -0.254881 3.5333e-20)
(-7.88371 -0.276643 0)
(-7.68438 -0.297739 -2.8846e-20)
(-7.47174 -0.319903 -8.31499e-21)
(-7.24433 -0.344839 7.5637e-21)
(-6.99957 -0.37407 1.26623e-20)
(-6.73388 -0.408746 -1.00811e-20)
(-6.44278 -0.449423 0)
(-6.12137 -0.495844 0)
(-5.76497 -0.546799 0)
(-5.36993 -0.600389 -8.11368e-21)
(-4.93236 -0.65446 -6.51971e-21)
(-4.45137 -0.705369 9.9004e-21)
(-3.93141 -0.74906 0)
(-3.37794 -0.781602 1.52445e-20)
(-2.79944 -0.799429 -1.95672e-20)
(-2.20624 -0.79977 -2.23418e-20)
(-1.60929 -0.781214 0)
(-1.01878 -0.744926 0)
(-0.443889 -0.697168 0)
(0.104424 -0.650814 -2.94217e-20)
(0.615402 -0.608129 0)
(1.08369 -0.560521 5.87553e-20)
(1.50767 -0.505315 8.75201e-20)
(1.88738 -0.446705 -5.73121e-20)
(2.22271 -0.390968 0)
(2.5193 -0.34101 -2.73955e-20)
(2.78288 -0.294688 0)
(3.01574 -0.250625 -5.29966e-20)
(3.21938 -0.209348 2.58244e-20)
(3.39496 -0.171468 2.53074e-20)
(3.54379 -0.137125 0)
(3.66725 -0.106237 7.32882e-20)
(3.76707 -0.0783283 -4.78753e-20)
(3.84445 -0.0521741 -2.35487e-20)
(3.90445 -0.0258963 0)
(3.94934 0.000518283 -2.2705e-20)
(3.97443 0.0234597 -6.6827e-20)
(3.97613 0.0437612 0)
(3.95402 0.0626886 -4.31412e-20)
(3.90758 0.0804786 -4.2526e-20)
(3.83699 0.0970902 -4.1967e-20)
(3.74326 0.111999 0)
(3.62796 0.123633 0)
(3.49326 0.129182 0)
(3.34264 0.125221 2.01382e-20)
(3.18259 0.108762 2.00542e-20)
(3.02811 0.0777803 0)
(2.90928 0.034098 3.9685e-20)
(2.85778 -0.0078124 3.9488e-20)
(2.86231 -0.0108575 0)
(2.86527 0.0492711 3.86251e-20)
(2.75434 0.161974 7.58918e-20)
(2.43279 0.302595 -3.66712e-20)
(1.87441 0.453691 -3.53825e-20)
(1.12398 0.590471 0)
(0.270534 0.680683 0)
(-0.590405 0.705717 0)
(-1.38589 0.684897 -1.84135e-20)
(-2.0785 0.62607 1.15454e-20)
(-2.65177 0.543023 1.35716e-20)
(-3.10087 0.445791 -2.76803e-21)
(-3.42924 0.341454 -2.60273e-21)
(-3.64305 0.231925 -3.89944e-21)
(-3.75159 0.119989 0)
(-3.7621 0.00941929 0)
(-3.6702 -0.10081 6.37768e-21)
(-3.45972 -0.205934 0)
(-3.13356 -0.303639 0)
(-2.6984 -0.388609 1.02774e-20)
(-2.16641 -0.45586 0)
(-1.55139 -0.505594 1.51999e-20)
(-0.87004 -0.537399 -2.19481e-20)
(-0.143568 -0.559171 0)
(0.597763 -0.557221 2.98854e-20)
(1.33094 -0.538594 0)
(2.04296 -0.514945 0)
(2.7265 -0.486628 -3.62247e-20)
(3.37514 -0.453057 7.26483e-20)
(3.98265 -0.416791 -3.63393e-20)
(4.54588 -0.380263 0)
(5.06346 -0.344944 0)
(5.53476 -0.310911 3.29601e-20)
(5.95849 -0.277697 0)
(6.3323 -0.244558 2.99126e-20)
(6.65157 -0.210159 0)
(6.91118 -0.173321 0)
(7.10327 -0.132754 0)
(7.22096 -0.0869161 2.32914e-20)
(7.27205 -0.0343567 0)
(7.24538 0.0158981 -2.05262e-20)
(7.13082 0.0634824 0)
(6.9318 0.10829 0)
(6.65271 0.148862 3.6909e-20)
(6.30311 0.183555 -3.64272e-20)
(5.89879 0.210803 0)
(5.45829 0.22958 0)
(5.00236 0.239475 0)
(4.54507 0.24154 1.09771e-19)
(4.12129 0.241923 0)
(3.68339 0.24324 -7.26634e-20)
(0.0594181 -0.386636 1.70449e-22)
(0.148569 -0.502285 2.86255e-21)
(0.293494 -0.611792 0)
(0.457392 -0.72222 -2.87271e-21)
(0.637206 -0.822124 0)
(0.828175 -0.901748 0)
(1.02186 -0.955888 -2.48266e-22)
(1.21467 -0.985779 1.62447e-21)
(1.40512 -0.995167 2.09192e-21)
(1.59004 -0.986844 1.98591e-21)
(1.7681 -0.963457 0)
(1.93856 -0.927729 0)
(2.10079 -0.882183 -3.06084e-21)
(2.25448 -0.829071 -6.66708e-21)
(2.3987 -0.771087 7.22122e-21)
(2.5331 -0.710334 0)
(2.65826 -0.647846 8.34852e-21)
(2.77427 -0.583851 -4.14451e-21)
(2.88101 -0.518334 0)
(2.97839 -0.451596 9.95806e-21)
(3.06622 -0.383776 4.93596e-21)
(3.14407 -0.314805 -1.08934e-20)
(3.2113 -0.244718 -5.37217e-21)
(3.26728 -0.173794 0)
(3.3113 -0.102799 1.19698e-20)
(3.34355 -0.031743 1.22197e-20)
(3.3644 0.0400803 0)
(3.37378 0.112752 1.24895e-20)
(3.37242 0.185972 0)
(3.36066 0.258964 1.25047e-20)
(3.33823 0.330413 5.94389e-21)
(3.3044 0.398482 0)
(3.25805 0.460853 0)
(3.19771 0.514846 0)
(3.12189 0.557646 0)
(3.02936 0.586554 0)
(2.91962 0.599413 0)
(2.79331 0.59489 1.08173e-20)
(2.65261 0.572571 -1.57289e-20)
(2.5014 0.533076 0)
(2.34491 0.477724 0)
(2.18951 0.408698 0)
(2.04196 0.329947 1.43276e-22)
(1.90855 0.245874 9.7075e-21)
(1.79356 0.161177 1.90649e-20)
(1.6961 0.0839151 -1.89859e-20)
(1.60572 0.0268933 -9.35892e-21)
(1.5004 0.00480677 9.65999e-21)
(1.34876 0.0368684 -2.4925e-22)
(1.1106 0.150432 9.65988e-21)
(0.741695 0.366612 0)
(0.213924 0.683618 1.02009e-20)
(-0.480616 1.0704 1.12922e-22)
(-1.32279 1.48659 0)
(-2.27086 1.8913 0)
(-3.26548 2.24139 -1.20421e-20)
(-4.24027 2.50493 0)
(-5.14212 2.66034 0)
(-5.93295 2.70144 2.02372e-20)
(-6.59272 2.63646 3.80328e-20)
(-7.12062 2.48361 -1.72502e-20)
(-7.52887 2.26702 0)
(-7.83755 2.01173 2.20046e-20)
(-8.06897 1.74006 0)
(-8.24341 1.46934 3.391e-20)
(-8.37658 1.2113 2.89982e-20)
(-8.47898 0.972645 -6.73846e-20)
(-8.55658 0.756429 -3.73665e-20)
(-8.61175 0.563446 0)
(-8.64436 0.392939 7.23654e-20)
(-8.65314 0.243167 0)
(-8.63689 0.112061 1.06746e-19)
(-8.5949 -0.00235475 7.09245e-20)
(-8.52803 -0.10173 6.89155e-20)
(-8.43714 -0.188044 -6.63855e-20)
(-8.3251 -0.262166 9.42268e-20)
(-8.19519 -0.324369 0)
(-8.04961 -0.376558 0)
(-7.8906 -0.420604 -5.25833e-20)
(-7.71986 -0.458654 -7.21651e-20)
(-7.53863 -0.493129 0)
(-7.34741 -0.52669 1.93571e-20)
(-7.14579 -0.562157 0)
(-6.93229 -0.602356 -4.51754e-20)
(-6.70423 -0.649907 1.34856e-21)
(-6.45773 -0.706969 -1.49013e-21)
(-6.18779 -0.7749 1.50934e-20)
(-5.8887 -0.853855 0)
(-5.55449 -0.942414 -3.38108e-21)
(-5.17942 -1.03754 1.95935e-21)
(-4.76001 -1.13482 0)
(-4.29625 -1.22674 0)
(-3.79012 -1.30672 0)
(-3.24698 -1.36834 -3.15074e-20)
(-2.67514 -1.40596 0)
(-2.08504 -1.41581 0)
(-1.48805 -1.39664 0)
(-0.895272 -1.35041 0)
(-0.316781 -1.28215 0)
(0.234739 -1.19987 -5.71417e-20)
(0.747492 -1.1073 0)
(1.21652 -1.00713 -5.82917e-20)
(1.64103 -0.90159 -5.77652e-20)
(2.0234 -0.794457 5.69251e-20)
(2.3654 -0.692116 0)
(2.66697 -0.601414 5.46676e-20)
(2.93037 -0.521185 0)
(3.162 -0.447304 5.23378e-20)
(3.36647 -0.378543 -5.1217e-20)
(3.54581 -0.31488 -1.49801e-19)
(3.70195 -0.256115 0)
(3.83673 -0.201644 -1.43717e-19)
(3.95184 -0.150744 -4.66546e-20)
(4.04867 -0.103134 0)
(4.12857 -0.0590147 -9.04468e-20)
(4.1917 -0.0176917 -8.89556e-20)
(4.24031 0.0205177 1.31587e-19)
(4.27675 0.0579841 0)
(4.29987 0.0944352 4.27205e-20)
(4.30749 0.129236 4.21519e-20)
(4.29712 0.162088 1.24554e-19)
(4.2655 0.192686 0)
(4.20867 0.220014 0)
(4.12236 0.241466 0)
(4.00285 0.252122 3.9809e-20)
(3.84916 0.243217 0)
(3.6693 0.200713 0)
(3.48698 0.115612 -3.93407e-20)
(3.33562 0.0180238 -3.92359e-20)
(3.22557 -0.00856608 0)
(3.10145 0.112092 0)
(2.85035 0.365638 -7.53828e-20)
(2.37265 0.680308 0)
(1.66017 0.977327 6.96564e-20)
(0.810994 1.18939 6.33509e-20)
(-0.0510512 1.27892 0)
(-0.839786 1.25732 0)
(-1.52094 1.16245 -3.2608e-20)
(-2.09399 1.02309 -2.79061e-21)
(-2.56714 0.860783 -2.76424e-21)
(-2.94888 0.687808 0)
(-3.24407 0.510001 9.99592e-21)
(-3.45196 0.330095 0)
(-3.56595 0.149055 0)
(-3.57816 -0.0330948 0)
(-3.48011 -0.214687 -1.09715e-20)
(-3.26698 -0.39364 0)
(-2.93901 -0.562823 2.40239e-21)
(-2.50085 -0.713806 -1.0217e-20)
(-1.95869 -0.840403 0)
(-1.32559 -0.939188 -3.17746e-20)
(-0.625191 -1.00629 0)
(0.116104 -1.03688 0)
(0.872787 -1.03438 -1.78645e-19)
(1.62487 -1.00542 1.29866e-19)
(2.35582 -0.959228 0)
(3.0549 -0.901963 1.41481e-19)
(3.71669 -0.836398 -7.20433e-20)
(4.33984 -0.767558 0)
(4.92398 -0.698902 0)
(5.46949 -0.631374 0)
(5.97704 -0.564571 -1.9449e-19)
(6.44668 -0.497561 0)
(6.87766 -0.42905 -5.90667e-20)
(7.26921 -0.355907 0)
(7.61902 -0.275328 0)
(7.92201 -0.185885 0)
(8.1683 -0.0874387 0)
(8.33728 0.0104641 0)
(8.41156 0.102837 0)
(8.37675 0.196907 -7.74389e-20)
(8.21727 0.28687 0)
(7.9294 0.365696 -3.71512e-20)
(7.52201 0.427701 1.09116e-19)
(7.01686 0.469189 0)
(6.44719 0.489803 0)
(5.85304 0.491079 -7.29792e-20)
(5.26369 0.475737 -7.39448e-20)
(4.72153 0.453438 7.33119e-20)
(4.19823 0.427704 7.32127e-20)
(0.0701017 -0.612225 -5.28946e-21)
(0.171674 -0.788909 -4.95421e-21)
(0.335147 -0.946131 -3.49546e-21)
(0.511916 -1.09234 -2.04898e-21)
(0.695316 -1.21039 0)
(0.879125 -1.2916 3.86353e-21)
(1.05766 -1.33681 -2.42365e-21)
(1.2293 -1.35294 0)
(1.39288 -1.34516 -2.07467e-21)
(1.54752 -1.31777 0)
(1.69384 -1.27489 5.87396e-21)
(1.83265 -1.22018 0)
(1.96469 -1.15665 3.05983e-21)
(2.09071 -1.08656 6.68242e-21)
(2.21129 -1.01172 -7.25466e-21)
(2.32652 -0.934169 0)
(2.43606 -0.855111 -8.39454e-21)
(2.53951 -0.77487 0)
(2.63703 -0.693643 0)
(2.72851 -0.611459 -1.00087e-20)
(2.81323 -0.527906 0)
(2.89058 -0.442167 -6.47001e-22)
(2.95973 -0.353983 0)
(3.01982 -0.263631 0)
(3.07005 -0.171574 6.52231e-22)
(3.10958 -0.0782608 -1.22731e-20)
(3.13764 0.0154041 -1.31081e-20)
(3.15365 0.108737 -1.25395e-20)
(3.15755 0.200939 0)
(3.14947 0.291089 -2.56743e-20)
(3.1297 0.378205 0)
(3.09862 0.461188 -1.28683e-20)
(3.05656 0.538703 0)
(3.0036 0.609071 0)
(2.93945 0.670208 1.20891e-20)
(2.86347 0.719666 0)
(2.77475 0.75486 -1.14166e-20)
(2.67241 0.772917 2.81518e-22)
(2.55645 0.77052 2.12064e-20)
(2.42812 0.745968 -2.07343e-20)
(2.29022 0.699143 0)
(2.14567 0.630866 0)
(1.99837 0.543752 -9.44219e-21)
(1.85383 0.443623 0)
(1.71347 0.341978 -9.39086e-21)
(1.5661 0.262862 9.33281e-21)
(1.38835 0.240516 9.32203e-21)
(1.14694 0.301631 0)
(0.795357 0.478553 -9.50192e-21)
(0.288993 0.802266 -9.67839e-21)
(-0.393762 1.265 1.95445e-20)
(-1.22837 1.80756 -9.63104e-21)
(-2.16424 2.36092 -9.64846e-21)
(-3.13698 2.86174 0)
(-4.0794 3.25793 0)
(-4.93244 3.51389 1.12726e-20)
(-5.65682 3.619 0)
(-6.23734 3.58211 0)
(-6.67904 3.42561 -3.26518e-20)
(-7.00322 3.1812 -3.72449e-20)
(-7.23912 2.88204 0)
(-7.41586 2.5573 0)
(-7.55685 2.22891 0)
(-7.6771 1.91092 0)
(-7.7835 1.61068 -6.08994e-20)
(-7.87681 1.33097 7.09928e-20)
(-7.9544 1.07199 6.77243e-20)
(-8.01251 0.832994 1.45775e-19)
(-8.04771 0.6133 0)
(-8.05776 0.412559 4.45744e-21)
(-8.04179 0.230673 0)
(-8.00006 0.0676522 -7.30417e-20)
(-7.93377 -0.0766513 3.20338e-21)
(-7.84516 -0.202877 -6.96567e-20)
(-7.7368 -0.311787 6.71126e-20)
(-7.61166 -0.404607 2.21196e-21)
(-7.47218 -0.482334 0)
(-7.32099 -0.546959 5.89988e-20)
(-7.16082 -0.601238 5.33889e-20)
(-6.99353 -0.647771 9.99339e-20)
(-6.82046 -0.689685 0)
(-6.64214 -0.730558 -4.17704e-20)
(-6.45813 -0.774314 0)
(-6.26686 -0.825037 6.34155e-20)
(-6.06546 -0.886672 -2.59565e-20)
(-5.84966 -0.962607 2.07289e-20)