/*--------------------------------*- C++ -*----------------------------------*\
| =========                 |                                                 |
| \\      /  F ield         | OpenFOAM: The Open Source CFD Toolbox           |
|  \\    /   O peration     | Version:  2112                                  |
|   \\  /    A nd           | Website:  www.openfoam.com                      |
|    \\/     M anipulation  |                                                 |
\*---------------------------------------------------------------------------*/
FoamFile
{
    version     2.0;
    format      ascii;
    arch        "LSB;label=32;scalar=64";
    class       volScalarField;
    location    "0.2";
    object      k_0;
}
// * * * * * * * * * * * * * * * * * * * * * * * * * * * * * * * * * * * * * //

dimensions      [0 2 -2 0 0 0 0];

internalField   nonuniform List<scalar> 
12225
(
0.379155
0.377762
0.376731
0.37788
0.380716
0.382194
0.382566
0.382481
0.38172
0.37869
0.375115
0.37307
0.372085
0.371709
0.371672
0.371727
0.371867
0.372204
0.375106
0.368868
0.357995
0.349332
0.341927
0.337101
0.334331
0.331323
0.326421
0.319563
0.313125
0.310456
0.310518
0.311276
0.312894
0.316135
0.318619
0.323651
0.374926
0.0191351
0.00833777
0.0121241
0.018948
0.0260836
0.0354564
0.0432605
0.0465899
0.0477459
0.0493543
0.0525369
0.057837
0.0694635
0.077846
0.0935531
0.103309
0.121476
0.375112
0.335038
0.322914
0.304109
0.256535
0.125406
0.0341529
0.00660616
0.00448466
0.00769606
0.0102581
0.00955419
0.00612142
0.00531193
0.00566109
0.0070703
0.0091592
0.0136984
0.375357
0.303133
0.292608
0.285894
0.264642
0.190163
0.102566
0.0632287
0.0587458
0.0664954
0.071219
0.0683325
0.0492473
0.0250096
0.0131144
0.00930897
0.00891912
0.00903004
0.376151
0.336383
0.326449
0.317089
0.289062
0.226923
0.182277
0.150216
0.112928
0.0723098
0.0429209
0.0280963
0.0237586
0.0232173
0.0238262
0.0265107
0.0348958
0.044578
0.37554
0.351077
0.32983
0.293863
0.250086
0.22451
0.21359
0.197865
0.156449
0.0778133
0.0376621
0.0275288
0.0288154
0.0384552
0.0510699
0.0592974
0.0760099
0.0980182
0.375194
0.351336
0.324252
0.261656
0.210132
0.198117
0.195963
0.187891
0.154189
0.0786414
0.0460711
0.039526
0.0403991
0.0472615
0.0683511
0.0951977
0.132408
0.168248
0.375126
0.357567
0.28739
0.179082
0.152107
0.164929
0.205125
0.219008
0.217911
0.193357
0.130416
0.0922393
0.0799279
0.0803762
0.089028
0.119019
0.161033
0.19686
0.374997
0.346359
0.238802
0.171232
0.148151
0.15197
0.200464
0.256126
0.273278
0.269982
0.243823
0.217741
0.212021
0.212518
0.216438
0.227442
0.235414
0.239067
0.375103
0.349095
0.249087
0.16959
0.133575
0.135031
0.165521
0.222465
0.267622
0.290318
0.299599
0.302701
0.303342
0.303035
0.300749
0.293292
0.266821
0.230581
0.375022
0.363626
0.320025
0.218938
0.16292
0.161508
0.166736
0.173776
0.213352
0.257521
0.276126
0.282377
0.283498
0.282848
0.278833
0.266475
0.226395
0.17232
0.375015
0.369359
0.359124
0.33348
0.25549
0.201886
0.191177
0.200895
0.241443
0.255866
0.253453
0.233584
0.214404
0.200884
0.178938
0.146125
0.111198
0.0863366
0.375211
0.36388
0.36018
0.345608
0.323004
0.315178
0.315594
0.318762
0.318291
0.307117
0.251268
0.172605
0.128986
0.109622
0.0995667
0.0897568
0.079233
0.0706553
0.375033
0.359959
0.353469
0.356927
0.359687
0.359323
0.356795
0.351191
0.339077
0.303173
0.209695
0.133607
0.0911202
0.0748777
0.0722188
0.071937
0.0709991
0.0698965
0.375078
0.366473
0.361501
0.360704
0.360108
0.358868
0.35697
0.353537
0.346135
0.325653
0.254618
0.170542
0.124548
0.104219
0.0951957
0.0907045
0.0890749
0.0888283
0.375173
0.370689
0.365357
0.354069
0.340472
0.33127
0.316883
0.298014
0.273958
0.244311
0.214548
0.191122
0.171055
0.147502
0.123426
0.106849
0.101474
0.102796
0.375007
0.36565
0.344909
0.31999
0.291832
0.273823
0.246548
0.186896
0.13163
0.115003
0.119551
0.147592
0.170624
0.17449
0.170147
0.148989
0.134811
0.132445
0.375039
0.363704
0.344738
0.336987
0.325528
0.29249
0.219701
0.171074
0.162755
0.166138
0.177688
0.209363
0.233809
0.241394
0.240771
0.230783
0.213972
0.207214
0.375004
0.370916
0.355264
0.303199
0.272133
0.265255
0.259451
0.24095
0.184488
0.153069
0.151941
0.173182
0.23637
0.275473
0.290083
0.292392
0.291045
0.283955
0.375028
0.36742
0.325919
0.259344
0.249764
0.249178
0.234031
0.164573
0.102659
0.0888864
0.0984146
0.15759
0.242579
0.288376
0.306713
0.310853
0.310599
0.307639
0.375137
0.35904
0.317489
0.287496
0.279237
0.257137
0.169505
0.100864
0.0828204
0.0851283
0.11117
0.192531
0.253738
0.283689
0.294141
0.295903
0.295295
0.291194
0.375011
0.352123
0.343157
0.333208
0.305842
0.237168
0.193468
0.169702
0.142969
0.127445
0.127554
0.144478
0.184801
0.209804
0.224331
0.232164
0.234531
0.233489
0.375025
0.30412
0.311299
0.317114
0.30319
0.248255
0.201962
0.181817
0.16
0.148813
0.149517
0.163523
0.215185
0.258219
0.278183
0.283789
0.283456
0.276766
0.375238
0.282801
0.22533
0.25518
0.279638
0.267866
0.201312
0.128106
0.0964723
0.090974
0.0933397
0.106811
0.155528
0.202618
0.225493
0.232827
0.233192
0.229504
0.375319
0.339851
0.252148
0.235058
0.243526
0.242991
0.216572
0.164487
0.142501
0.140214
0.14552
0.170272
0.20257
0.216529
0.217835
0.213083
0.188946
0.166607
0.375086
0.364852
0.342072
0.316181
0.293054
0.262082
0.18984
0.106668
0.068942
0.0684287
0.0852815
0.107353
0.113408
0.110913
0.0903162
0.0471063
0.0209844
0.010067
0.374936
0.0614322
0.0190818
0.0175199
0.0200155
0.0225382
0.0233183
0.0240143
0.0250978
0.0271591
0.0291788
0.0294228
0.0291993
0.0285231
0.027558
0.0274217
0.0276411
0.0281396
0.375003
0.37186
0.365895
0.361081
0.356843
0.352805
0.348721
0.344977
0.342121
0.340059
0.338101
0.335458
0.331497
0.326393
0.321384
0.317535
0.315766
0.315164
0.375001
0.375056
0.375467
0.376664
0.377677
0.378554
0.379187
0.379458
0.37949
0.379416
0.378965
0.377984
0.377339
0.377002
0.376846
0.376781
0.376752
0.376703
0.298958
0.269145
0.252064
0.239064
0.227083
0.216487
0.20893
0.204047
0.201031
0.199307
0.198377
0.197255
0.194606
0.192586
0.193182
0.201181
0.247871
0.303462
0.318778
0.334323
0.337337
0.35687
0.384064
0.44753
0.592804
0.53169
0.485158
0.478772
0.47632
0.462478
0.445412
0.434709
0.417165
0.401836
0.386767
0.371724
0.355889
0.339879
0.321444
0.305734
0.2921
0.276287
0.267983
0.254669
0.247983
0.241126
0.234872
0.231004
0.226493
0.221899
0.218647
0.21591
0.212455
0.209849
0.208059
0.206638
0.205991
0.205669
0.205546
0.205632
0.206533
0.208336
0.210914
0.213949
0.217708
0.222099
0.226659
0.230637
0.233399
0.235269
0.237211
0.239341
0.242152
0.245368
0.249021
0.25233
0.256987
0.262562
0.266672
0.268889
0.27096
0.276788
0.303537
0.394488
0.459129
0.475067
0.479447
0.488651
0.511995
0.528677
0.556665
0.620458
0.757364
0.98007
1.20762
1.34832
1.38914
1.35564
1.17857
1.06179
0.885578
0.775392
0.814098
0.602008
0.359214
0.246032
0.203226
0.183814
0.168804
0.162229
0.159919
0.159524
0.159089
0.158619
0.158045
0.157285
0.156499
0.155873
0.155268
0.154611
0.15403
0.153547
0.153147
0.15283
0.152564
0.152338
0.152155
0.151985
0.151837
0.151732
0.151508
0.151061
0.150456
0.149672
0.148796
0.147928
0.147058
0.146189
0.145243
0.144136
0.142742
0.140956
0.138802
0.136199
0.133843
0.132327
0.131704
0.131771
0.132295
0.132375
0.132437
0.133577
0.140528
0.154246
0.168594
0.211344
0.32979
0.386003
0.395042
0.393178
0.395636
0.425161
0.474975
0.488531
0.484024
0.462938
0.448857
0.448221
0.454343
0.450379
0.420905
0.393846
0.402596
0.5033
0.783229
0.877734
0.83558
0.603703
0.425855
0.351062
0.365403
0.29934
0.278841
0.265606
0.254613
0.244411
0.234634
0.22631
0.21662
0.207171
0.196279
0.180725
0.167656
0.155602
0.147085
0.146546
0.153781
0.168604
0.17278
0.177842
0.219894
0.418137
0.531859
0.537414
0.539472
0.469966
0.437769
0.41422
0.372222
0.32669
0.294379
0.262504
0.237278
0.214355
0.194979
0.179994
0.16417
0.156439
0.147825
0.143504
0.137023
0.134008
0.130761
0.128162
0.126883
0.126112
0.125847
0.126264
0.127138
0.128105
0.1294
0.130683
0.131612
0.132088
0.13249
0.133288
0.134013
0.134969
0.136287
0.137654
0.139534
0.141749
0.144417
0.14691
0.150451
0.154614
0.159432
0.165082
0.169267
0.171517
0.172791
0.173559
0.176619
0.183826
0.199309
0.216605
0.22799
0.24154
0.255171
0.260506
0.261109
0.260451
0.264614
0.292865
0.371
0.436114
0.459362
0.453097
0.432772
0.426969
0.430361
0.455072
0.483903
0.514463
0.566379
0.627181
0.684688
0.750932
0.828293
0.881824
0.870428
0.796689
0.681059
0.360126
0.221305
0.181193
0.173723
0.171295
0.170223
0.169689
0.168704
0.167289
0.166025
0.16514
0.163893
0.161038
0.157733
0.155148
0.153502
0.151828
0.149428
0.14686
0.144914
0.143983
0.143577
0.143502
0.14396
0.144273
0.144549
0.145326
0.146249
0.146893
0.147008
0.146746
0.14635
0.146171
0.146094
0.146124
0.146202
0.146408
0.146593
0.146526
0.145949
0.14397
0.138194
0.129983
0.122774
0.118379
0.11737
0.117937
0.1194
0.119606
0.117534
0.112388
0.112476
0.117698
0.140891
0.2226
0.280883
0.283402
0.265894
0.21226
0.187225
0.173524
0.152526
0.132917
0.119619
0.110133
0.101346
0.0840624
0.0617317
0.0503265
0.0504812
0.0600164
0.113762
0.307157
0.386959
0.359976
0.306698
0.307733
0.344496
0.239108
0.200451
0.203901
0.214854
0.22313
0.226366
0.226727
0.225821
0.222284
0.213731
0.191463
0.174711
0.170938
0.168966
0.162496
0.162128
0.166963
0.178348
0.253624
0.465374
0.508543
0.513393
0.476316
0.398256
0.3306
0.274052
0.202641
0.159926
0.130502
0.107392
0.0884242
0.0784258
0.0663769
0.0596031
0.0525677
0.0483725
0.043588
0.0410573
0.0387896
0.0376477
0.0371983
0.0377289
0.040877
0.0470248
0.0580324
0.0717922
0.0840166
0.0930763
0.0994281
0.103516
0.105691
0.107575
0.109255
0.110923
0.111883
0.113551
0.115553
0.117529
0.120323
0.123384
0.126817
0.130568
0.134005
0.137724
0.141152
0.144546
0.148522
0.150478
0.151175
0.151137
0.149729
0.148936
0.153158
0.167525
0.19652
0.215655
0.230818
0.263396
0.291241
0.297574
0.295008
0.282272
0.282168
0.291387
0.320056
0.389744
0.423304
0.424886
0.422153
0.423324
0.441238
0.48458
0.496197
0.487072
0.481537
0.494739
0.531089
0.585506
0.634747
0.655681
0.548318
0.328034
0.217934
0.182384
0.174022
0.171547
0.169848
0.169286
0.169289
0.170703
0.17141
0.17171
0.171643
0.171288
0.169147
0.165535
0.161439
0.15755
0.153218
0.148694
0.144284
0.139827
0.136494
0.13444
0.132963
0.132108
0.132011
0.132112
0.132271
0.132507
0.133025
0.134278
0.135534
0.136582
0.137361
0.13778
0.137872
0.137808
0.137756
0.138048
0.138039
0.13762
0.136203
0.135232
0.134422
0.132265
0.126145
0.115829
0.102448
0.0910238
0.0825959
0.077412
0.0758696
0.0741129
0.074282
0.0774215
0.0897138
0.127071
0.143654
0.141753
0.129852
0.103852
0.085638
0.0687397
0.0537405
0.0446132
0.0387578
0.0325081
0.0264915
0.0246738
0.0261811
0.0315435
0.0435114
0.078438
0.218826
0.326133
0.33508
0.305315
0.287326
0.253296
0.173998
0.160098
0.189036
0.216656
0.226019
0.226339
0.225352
0.221524
0.211414
0.205242
0.198036
0.192083
0.19078
0.191819
0.191335
0.188761
0.208347
0.356776
0.456591
0.480731
0.481205
0.419039
0.303399
0.243435
0.177409
0.144732
0.112406
0.0986245
0.0877659
0.0823927
0.0778135
0.0756963
0.0745731
0.0770393
0.0818143
0.086125
0.0905755
0.0957732
0.10041
0.103924
0.107974
0.109957
0.111712
0.112429
0.112562
0.111307
0.110043
0.108315
0.105829
0.10343
0.100913
0.097752
0.0941367
0.0916055
0.0889174
0.0874736
0.0865478
0.0862293
0.0863683
0.087311
0.0909523
0.0983317
0.107701
0.117419
0.124686
0.130373
0.134288
0.137783
0.140498
0.141733
0.140861
0.136999
0.134422
0.137333
0.152229
0.189851
0.219573
0.260872
0.320657
0.346062
0.344826
0.334066
0.303967
0.291381
0.29216
0.303713
0.342495
0.387315
0.396263
0.420126
0.420249
0.377756
0.334245
0.328514
0.335947
0.350944
0.372158
0.396079
0.406981
0.382798
0.302689
0.218498
0.189334
0.181852
0.180173
0.185154
0.191893
0.195805
0.197267
0.196693
0.192838
0.188947
0.185259
0.183744
0.182147
0.180271
0.178139
0.175123
0.170749
0.1654
0.158035
0.14918
0.140363
0.135232
0.132601
0.130127
0.128853
0.12853
0.128526
0.128669
0.129204
0.130948
0.133384
0.135167
0.136359
0.137116
0.137582
0.137867
0.138103
0.138499
0.139522
0.141432
0.143143
0.146551
0.152478
0.154785
0.154232
0.150222
0.133996
0.106468
0.0890652
0.0804366
0.0775397
0.0758282
0.0730639
0.0636609
0.0604005
0.0634921
0.0729571
0.0739033
0.0720843
0.0659016
0.0528373
0.040637
0.028921
0.0203718
0.016234
0.0154112
0.0161147
0.0199274
0.0292792
0.0491671
0.0922049
0.200423
0.312795
0.350095
0.330967
0.280745
0.251278
0.229594
0.16433
0.155494
0.222181
0.233316
0.235078
0.235755
0.2373
0.237179
0.236123
0.236065
0.240343
0.245623
0.244806
0.242739
0.256742
0.315369
0.397462
0.446422
0.455703
0.440435
0.355126
0.245675
0.194014
0.143692
0.119291
0.105577
0.0966429
0.0926496
0.0899336
0.0891367
0.0911475
0.0965455
0.103623
0.107421
0.111004
0.114284
0.117697
0.120317
0.122639
0.123988
0.124933
0.125271
0.125343
0.124746
0.124486
0.12283
0.12043
0.118274
0.114581
0.110466
0.107005
0.101981
0.0968855
0.0924497
0.0883603
0.0851532
0.0819151
0.0796607
0.0761151
0.0712898
0.0649429
0.0620408
0.063176
0.0703207
0.0859084
0.103274
0.11523
0.123943
0.130942
0.135503
0.137123
0.134278
0.129049
0.129235
0.138896
0.178842
0.218616
0.26101
0.328494
0.391922
0.403928
0.396299
0.361574
0.311695
0.292133
0.289655
0.300065
0.328544
0.348178
0.386612
0.377199
0.290596
0.256278
0.258045
0.265647
0.277253
0.295014
0.304339
0.305167
0.276299
0.22554
0.197566
0.190499
0.190044
0.207188
0.219548
0.224584
0.225876
0.222829
0.21196
0.20368
0.195936
0.188897
0.185824
0.183487
0.181762
0.18037
0.178132
0.174833
0.171149
0.166827
0.160029
0.151292
0.141405
0.135002
0.130362
0.127817
0.126902
0.126758
0.126829
0.127302
0.129146
0.132582
0.135029
0.136693
0.137787
0.13837
0.13862
0.138771
0.138999
0.139491
0.141154
0.144823
0.14625
0.146917
0.148876
0.154018
0.156033
0.15525
0.14812
0.120125
0.098268
0.092428
0.0905895
0.0866883
0.0737209
0.0614121
0.0536585
0.0512566
0.0510035
0.0522169
0.0523002
0.0501923
0.0435896
0.0401548
0.0391991
0.0360503
0.0303743
0.0307027
0.0353823
0.0492177
0.0846982
0.184969
0.304689
0.35992
0.356959
0.307185
0.256059
0.229244
0.223109
0.164004
0.161224
0.226044
0.227387
0.232109
0.239743
0.248072
0.258266
0.271953
0.283143
0.296116
0.310458
0.33084
0.364397
0.401035
0.422893
0.43423
0.436684
0.4027
0.299361
0.213506
0.166123
0.132041
0.114404
0.106562
0.102702
0.100938
0.102908
0.111207
0.125124
0.137104
0.147406
0.153345
0.158445
0.162522
0.165287
0.168548
0.170244
0.172553
0.174852
0.176945
0.179352
0.181086
0.182
0.182416
0.1815
0.178742
0.174937
0.170843
0.16524
0.158141
0.150632
0.143213
0.134785
0.128319
0.121947
0.115996
0.110059
0.0992817
0.0848832
0.0677052
0.0573691
0.0531968
0.0516718
0.0547534
0.0659909
0.0871527
0.103194
0.114616
0.123827
0.130771
0.131429
0.127635
0.125142
0.131739
0.167394
0.211961
0.259341
0.328439
0.402993
0.444337
0.445612
0.427076
0.354923
0.301294
0.287478
0.289701
0.300022
0.327121
0.366296
0.32556
0.225868
0.212108
0.217184
0.225153
0.235554
0.252797
0.263129
0.26335
0.242513
0.209539
0.198562
0.197208
0.214228
0.235875
0.244974
0.250185
0.252062
0.251996
0.244574
0.231322
0.214229
0.19522
0.187051
0.183443
0.181723
0.18044
0.178328
0.175086
0.171471
0.167922
0.162314
0.155031
0.147038
0.139125
0.132039
0.127461
0.125372
0.124703
0.124632
0.124923
0.126786
0.131702
0.135404
0.137377
0.13829
0.138641
0.138783
0.138879
0.139075
0.139528
0.140666
0.145104
0.153131
0.155073
0.154295
0.153586
0.153876
0.156832
0.158602
0.155605
0.139531
0.11511
0.108945
0.106444
0.0997313
0.0774469
0.0591257
0.0513434
0.048953
0.0490625
0.0506398
0.0527411
0.057631
0.0616622
0.0616775
0.054945
0.0439063
0.0435166
0.0488442
0.0677499
0.129049
0.268841
0.354248
0.372018
0.349188
0.280372
0.239958
0.221334
0.219525
0.169198
0.191343
0.224619
0.230654
0.24287
0.255906
0.269723
0.284714
0.304062
0.328671
0.355897
0.38291
0.408519
0.419532
0.42319
0.4228
0.412463
0.366932
0.250601
0.191588
0.153158
0.127775
0.115813
0.110958
0.109207
0.110518
0.121516
0.143576
0.163326
0.1738
0.183944
0.189119
0.194647
0.197492
0.201092
0.203527
0.206249
0.208887
0.211611
0.214129
0.216521
0.218499
0.220013
0.220923
0.221347
0.221509
0.221108
0.220083
0.218095
0.215117
0.211484
0.206651
0.200922
0.194457
0.187766
0.180978
0.175025
0.168996
0.161256
0.142845
0.107995
0.0709978
0.0551402
0.0500935
0.0491243
0.052003
0.0628756
0.0867623
0.104146
0.114698
0.123568
0.128302
0.127485
0.123805
0.124753
0.145582
0.188358
0.231995
0.312023
0.400017
0.453888
0.466272
0.455241
0.385998
0.30894
0.282817
0.281135
0.286031
0.327395
0.351165
0.262684
0.183776
0.179639
0.185848
0.194564
0.202763
0.214534
0.228648
0.234826
0.228759
0.208323
0.202788
0.208815
0.23416
0.253758
0.260619
0.26419
0.265638
0.265701
0.26066
0.248712
0.230744
0.208885
0.190249
0.183059
0.179975
0.178495
0.176497
0.172577
0.167621
0.164518
0.160965
0.155249
0.148183
0.140606
0.132617
0.127158
0.123919
0.122616
0.12235
0.122721
0.125329
0.131348
0.135486
0.137599
0.138396
0.13856
0.138443
0.138261
0.138259
0.138488
0.139397
0.142215
0.153429
0.166037
0.168273
0.165746
0.159004
0.158247
0.159656
0.163914
0.162199
0.150533
0.126472
0.119525
0.115363
0.105186
0.0774364
0.0582721
0.0516157
0.050813
0.0523092
0.060481
0.0704489
0.0738853
0.0730613
0.0631831
0.0534091
0.0538485
0.0610511
0.0859087
0.177209
0.312926
0.371501
0.372367
0.324565
0.261248
0.231135
0.221388
0.217384
0.170558
0.203027
0.225365
0.231399
0.244573
0.257836
0.274398
0.296323
0.32503
0.357185
0.387339
0.407168
0.414415
0.416067
0.409714
0.383628
0.314708
0.220648
0.17277
0.146742
0.127636
0.118944
0.115611
0.114498
0.120031
0.137198
0.169442
0.184114
0.195768
0.20209
0.206547
0.209145
0.211528
0.212719
0.214321
0.215651
0.217078
0.218125
0.219284
0.220489
0.221602
0.222428
0.223466
0.224328
0.224951
0.225486
0.225691
0.225699
0.224928
0.22308
0.220794
0.217708
0.21338
0.208344
0.202253
0.195677
0.18931
0.18394
0.181085
0.176883
0.163547
0.125879
0.0779771
0.0586771
0.0521064
0.0507188
0.0551816
0.0654265
0.0885078
0.107486
0.118026
0.126327
0.128944
0.125214
0.122874
0.133323
0.174206
0.207129
0.264784
0.371007
0.447151
0.470654
0.465217
0.404744
0.312461
0.277504
0.272657
0.282384
0.33587
0.32827
0.200237
0.152792
0.153084
0.160107
0.166948
0.175082
0.182789
0.192323
0.204557
0.212728
0.207578
0.203507
0.208965
0.233332
0.255946
0.265011
0.269178
0.27071
0.270835
0.267437
0.256022
0.237622
0.216195
0.195168
0.183553
0.178931
0.176504
0.174345
0.170047
0.162527
0.156147
0.152532
0.149978
0.147165
0.14086
0.132585
0.12598
0.122486
0.12107
0.121032
0.121868
0.125086
0.131364
0.135783
0.137955
0.138471
0.138338
0.137417
0.136392
0.136144
0.136243
0.137019
0.139718
0.148443
0.1682
0.180343
0.181787
0.17761
0.164976
0.16226
0.163691
0.168537
0.167285
0.156691
0.134301
0.126182
0.119242
0.101866
0.0763144
0.0617118
0.0580213
0.0594202
0.0689597
0.0780406
0.0802491
0.0786814
0.068168
0.0622203
0.0636734
0.0722763
0.100816
0.207568
0.333036
0.373906
0.36494
0.298736
0.248901
0.228103
0.224401
0.2188
0.170162
0.206351
0.223086
0.22743
0.237943
0.251424
0.271262
0.297087
0.327726
0.361413
0.389852
0.40127
0.403428
0.392488
0.356339
0.285638
0.211834
0.163541
0.141447
0.128806
0.122006
0.11947
0.11887
0.125874
0.14811
0.181253
0.197022
0.205035
0.210843
0.213626
0.215219
0.216208
0.21705
0.217578
0.2186
0.219121
0.219515
0.220055
0.220736
0.221677
0.222508
0.223311
0.224037
0.224469
0.22461
0.224598
0.2241
0.223504
0.222698
0.221129
0.218892
0.216157
0.213094
0.208875
0.203349
0.196682
0.189595
0.183992
0.181696
0.181062
0.176996
0.166175
0.137673
0.0937271
0.070507
0.0609343
0.0570473
0.0603641
0.0682693
0.08646
0.108126
0.121423
0.129204
0.130846
0.125398
0.128482
0.16456
0.201109
0.230656
0.314313
0.413053
0.454975
0.456174
0.400568
0.308354
0.274577
0.271144
0.291685
0.340274
0.281453
0.152381
0.12653
0.129003
0.138439
0.144286
0.15
0.157919
0.164667
0.173704
0.186507
0.199627
0.202109
0.206574
0.226473
0.251333
0.263038
0.268318
0.27039
0.270625
0.267679
0.256864
0.239055
0.218639
0.197907
0.184484
0.178782
0.175355
0.17193
0.167298
0.15923
0.150905
0.145481
0.142614
0.14135
0.138668
0.130441
0.123942
0.120804
0.120266
0.12054
0.121768
0.126131
0.132906
0.137076
0.138546
0.13859
0.137996
0.135406
0.13321
0.132655
0.132757
0.133689
0.137103
0.146224
0.16376
0.18229
0.191505
0.191727
0.184384
0.16881
0.165783
0.167699
0.17233
0.1708
0.159018
0.140935
0.132479
0.116228
0.0927701
0.0763614
0.070707
0.0709857
0.0765354
0.0826153
0.0837787
0.0819315
0.0730164
0.0701447
0.0720076
0.0801358
0.107716
0.220696
0.338238
0.36799
0.34627
0.278704
0.242048
0.227749
0.234301
0.225151
0.166982
0.207769
0.219959
0.223339
0.231877
0.243627
0.263662
0.292393
0.325135
0.358561
0.375951
0.378976
0.365974
0.331412
0.27292
0.209801
0.162863
0.140411
0.129679
0.124501
0.122468
0.122084
0.128726
0.151259
0.181581
0.201142
0.209682
0.214078
0.216708
0.217891
0.218459
0.218926
0.219897
0.220514
0.221536
0.22236
0.223567
0.225282
0.227791
0.230424
0.23341
0.235218
0.236147
0.236383
0.235404
0.234084
0.231937
0.22944
0.226876
0.223432
0.219658
0.215215
0.2111
0.206926
0.201508
0.19363
0.184182
0.174019
0.169495
0.173687
0.176221
0.172948
0.162981
0.143675
0.115863
0.0923121
0.0768539
0.0670768
0.0658907
0.0706284
0.0835002
0.107643
0.124799
0.132374
0.134784
0.138899
0.166197
0.201612
0.218399
0.256633
0.360869
0.412487
0.418418
0.381302
0.305979
0.277825
0.279596
0.323644
0.331485
0.208676
0.118893
0.104725
0.107322
0.116517
0.125456
0.130567
0.135824
0.142702
0.15027
0.16099
0.174796
0.190433
0.19951
0.21184
0.232494
0.2516
0.260783
0.264575
0.263783
0.258372
0.246078
0.229255
0.212849
0.195977
0.1842
0.17795
0.173146
0.16776
0.160858
0.151309
0.144073
0.140268
0.139229
0.137597
0.134872
0.127934
0.122123
0.12006
0.119977
0.120484
0.122768
0.129441
0.135866
0.138544
0.13887
0.138424
0.136309
0.131178
0.128161
0.127445
0.127616
0.12884
0.133978
0.144244
0.155522
0.173751
0.191659
0.198477
0.197617
0.185865
0.170828
0.169001
0.171587
0.174976
0.172618
0.159134
0.146186
0.131264
0.108391
0.0891299
0.0806426
0.0797154
0.0819574
0.085345
0.0858533
0.0838677
0.0771396
0.0760379
0.0777862
0.0841966
0.109827
0.22517
0.333573
0.353831
0.326151
0.266522
0.23894
0.228899
0.254816
0.229488
0.164316
0.208114
0.217863
0.219753
0.225076
0.233578
0.249932
0.276518
0.312719
0.337354
0.342879
0.340262
0.320324
0.275783
0.21984
0.169372
0.14366
0.131795
0.126568
0.124565
0.123997
0.128287
0.14425
0.171317
0.198484
0.210168
0.215596
0.218312
0.219775
0.220517
0.221406
0.223288
0.224829
0.22642
0.227573
0.229223
0.231664
0.234965
0.239345
0.244938
0.248505
0.251336
0.252734
0.253147
0.251416
0.248806
0.245599
0.242192
0.238342
0.235023
0.231114
0.223699
0.214503
0.208372
0.203816
0.197353
0.186032
0.171291
0.157067
0.149006
0.156821
0.165696
0.16477
0.154756
0.139791
0.12082
0.102899
0.0894591
0.0770665
0.0706078
0.0731236
0.08306
0.109576
0.129204
0.136688
0.141281
0.151177
0.188854
0.211126
0.223793
0.298271
0.374526
0.385611
0.363011
0.324483
0.30823
0.317424
0.330318
0.276095
0.144122
0.0997723
0.090943
0.0915829
0.096679
0.105572
0.114103
0.119071
0.123898
0.130349
0.139878
0.151599
0.166107
0.179888
0.189648
0.203363
0.219463
0.233103
0.240498
0.240623
0.236589
0.227764
0.215993
0.202915
0.188651
0.178818
0.174287
0.169121
0.161823
0.152519
0.14291
0.137105
0.135093
0.134502
0.133913
0.131403
0.12439
0.12037
0.119719
0.119896
0.121169
0.125875
0.134308
0.138532
0.1395
0.139136
0.137062
0.130246
0.122766
0.119269
0.118684
0.11905
0.120709
0.125399
0.139177
0.151293
0.163241
0.18177
0.197592
0.201913
0.199507
0.183438
0.171926
0.171811
0.175209
0.176543
0.173029
0.16163
0.143596
0.121904
0.101064
0.0889357
0.0856456
0.0859549
0.087289
0.0873417
0.084576
0.0799571
0.0795877
0.0809759
0.0856378
0.108511
0.220186
0.324074
0.340096
0.31002
0.259377
0.238004
0.234414
0.276365
0.23954
0.15864
0.207022
0.215231
0.216292
0.219803
0.224401
0.2339
0.252697
0.281111
0.299168
0.303367
0.302037
0.283319
0.240317
0.18732
0.151426
0.135991
0.129097
0.12622
0.125232
0.126961
0.136501
0.157187
0.186897
0.206859
0.214735
0.218467
0.220426
0.221893
0.223199
0.225034
0.226906
0.228094
0.229116
0.230593
0.234222
0.239885
0.248513
0.257859
0.265478
0.271577
0.274848
0.276025
0.274513
0.270377
0.263743
0.255916
0.248625
0.24316
0.239278
0.236212
0.233259
0.22736
0.215436
0.207317
0.203134
0.197257
0.184233
0.15874
0.140202
0.12913
0.132358
0.145396
0.148772
0.141176
0.125552
0.108207
0.0959073
0.0884888
0.0817857
0.0752324
0.0766805
0.0863117
0.114874
0.134656
0.141838
0.147134
0.16298
0.200328
0.21146
0.225189
0.310721
0.356711
0.353009
0.334301
0.324705
0.322143
0.301415
0.182034
0.113452
0.0913599
0.0850458
0.0832423
0.084856
0.0890362
0.0964543
0.104037
0.109429
0.114437
0.121004
0.130988
0.143617
0.158759
0.172459
0.184257
0.193765
0.203385
0.209416
0.21308
0.211541
0.206937
0.20025
0.1899
0.181178
0.175324
0.17178
0.165048
0.154045
0.141827
0.134014
0.131071
0.131301
0.131484
0.130796
0.126867
0.121218
0.119673
0.119658
0.120277
0.123149
0.131712
0.138775
0.140969
0.140876
0.139274
0.132533
0.121769
0.114984
0.111827
0.1111
0.111317
0.112909
0.117856
0.132291
0.150205
0.162408
0.176659
0.193543
0.203351
0.204208
0.19856
0.179221
0.173216
0.17455
0.177707
0.177239
0.172466
0.15978
0.135688
0.112642
0.0966206
0.0902419
0.0892845
0.0892221
0.0881565
0.0842995
0.0815526
0.0814902
0.0826165
0.0858039
0.101458
0.197807
0.309592
0.327054
0.298759
0.255033
0.238662
0.246428
0.295645
0.259192
0.154943
0.20682
0.214094
0.214268
0.216191
0.217903
0.22169
0.23049
0.247639
0.268624
0.275653
0.275433
0.260936
0.222032
0.176754
0.147276
0.135014
0.129148
0.126741
0.1266
0.130164
0.141204
0.162104
0.189558
0.209223
0.217053
0.220755
0.222787
0.224528
0.225765
0.227403
0.229009
0.230464
0.232769
0.237517
0.245441
0.256021
0.266928
0.27674
0.284005
0.288362
0.290109
0.289868
0.287169
0.283076
0.27685
0.267947
0.257568
0.248107
0.24135
0.237262
0.234851
0.231816
0.225399
0.21389
0.205099
0.2013
0.195035
0.180688
0.148263
0.125565
0.112046
0.106106
0.110138
0.116001
0.116074
0.105253
0.0940014
0.0879517
0.0851957
0.0841254
0.0802575
0.0819701
0.0932689
0.123142
0.139973
0.145705
0.152056
0.179535
0.205161
0.203169
0.212404
0.285845
0.321623
0.321686
0.31206
0.290007
0.207485
0.133928
0.100582
0.0887093
0.0840399
0.0812285
0.0801778
0.0811334
0.0839167
0.0891802
0.0953625
0.100957
0.106373
0.113336
0.122983
0.135763
0.150907
0.167702
0.179966
0.187478
0.191745
0.194105
0.193375
0.191073
0.186084
0.181011
0.176338
0.171154
0.166176
0.156058
0.141218
0.129591
0.12543
0.125895
0.126601
0.126576
0.125578
0.12199
0.119807
0.119491
0.119851
0.121502
0.127424
0.138166
0.142957
0.143574
0.142921
0.138671
0.128311
0.119532
0.113637
0.11073
0.109913
0.110026
0.111445
0.116419
0.129324
0.153543
0.173575
0.185424
0.197517
0.20603
0.207716
0.205508
0.19264
0.177334
0.175464
0.177316
0.178344
0.176782
0.170514
0.15422
0.126451
0.105854
0.0959748
0.0926594
0.0907907
0.0876061
0.0835931
0.0824312
0.0829652
0.0842625
0.0862607
0.0950666
0.166775
0.290243
0.31468
0.2927
0.253166
0.242626
0.25708
0.310978
0.291914
0.148109
0.205652
0.213133
0.211761
0.214424
0.215246
0.215713
0.217557
0.223112
0.23474
0.247699
0.253116
0.249278
0.221871
0.179274
0.148796
0.136121
0.13015
0.127832
0.127571
0.130758
0.140595
0.160336
0.186782
0.207896
0.216753
0.220964
0.223543
0.225635
0.227225
0.228689
0.230266
0.231975
0.234547
0.239148
0.246645
0.256497
0.267394
0.277899
0.286687
0.292713
0.294327
0.293012
0.289765
0.28546
0.279504
0.270868
0.260129
0.249835
0.24219
0.23735
0.234719
0.232305
0.227529
0.219131
0.210061
0.203389
0.197716
0.190199
0.175363
0.142482
0.114705
0.0977955
0.086085
0.077749
0.0753184
0.0770104
0.0755437
0.0740517
0.0769099
0.0846956
0.0895347
0.0870731
0.0894294
0.103558
0.131772
0.144304
0.148902
0.157547
0.191399
0.199759
0.183188
0.187821
0.226888
0.252122
0.242418
0.198704
0.14613
0.111071
0.0951412
0.088406
0.0844323
0.081537
0.0797475
0.0791323
0.0795303
0.0809839
0.0839778
0.0882709
0.0935797
0.0987327
0.105895
0.115029
0.127144
0.143
0.159534
0.171598
0.178571
0.183229
0.183052
0.181739
0.17855
0.174864
0.169182
0.163406
0.155801
0.140724
0.125512
0.118822
0.119306
0.121565
0.122907
0.122869
0.121583
0.119746
0.11923
0.119475
0.120579
0.123833
0.133779
0.143474
0.146868
0.146867
0.144362
0.136846
0.127687
0.120224
0.115453
0.112872
0.111882
0.111886
0.113382
0.120587
0.13392
0.159823
0.198944
0.222233
0.226296
0.225963
0.22289
0.217114
0.202967
0.183454
0.176676
0.177001
0.178857
0.178607
0.176059
0.168146
0.145066
0.117513
0.102762
0.0962917
0.0915522
0.0862943
0.083055
0.0830581
0.0849045
0.086399
0.0872852
0.0909531
0.133481
0.263645
0.302221
0.288777
0.253166
0.247929
0.266735
0.322423
0.343517
0.136635
0.202546
0.213697
0.210119
0.210365
0.213454
0.214301
0.213758
0.213186
0.214709
0.219943
0.226701
0.229749
0.221345
0.190813
0.155173
0.139557
0.132717
0.130237
0.129889
0.13129
0.13829
0.155004
0.179443
0.20287
0.214807
0.220459
0.22348
0.225708
0.227223
0.228644
0.230179
0.231814
0.234146
0.23801
0.244374
0.252882
0.262538
0.272161
0.279976
0.286257
0.28749
0.286533
0.284115
0.279341
0.272977
0.265187
0.255407
0.246045
0.239344
0.234312
0.231248
0.229871
0.227235
0.219983
0.211814
0.205238
0.198744
0.191552
0.183541
0.16726
0.137427
0.107525
0.0862532
0.0720371
0.0621058
0.0570102
0.0555691
0.0557591
0.0580446
0.0717454
0.091112
0.0968281
0.0955855
0.0988892
0.115772
0.139216
0.147736
0.151598
0.162558
0.19602
0.200117
0.181374
0.165678
0.165689
0.160683
0.140921
0.117245
0.101271
0.0932034
0.0885842
0.0863068
0.0839293
0.0816044
0.080049
0.0794684
0.0795825
0.0801068
0.0813821
0.0839219
0.0874859
0.0924613
0.0985791
0.106741
0.118364
0.132012
0.144796
0.155241
0.161493
0.166307
0.166234
0.164937
0.161912
0.155589
0.148739
0.134978
0.118868
0.111331
0.111481
0.11478
0.11782
0.118088
0.117799
0.118463
0.118711
0.119034
0.119941
0.122143
0.127484
0.140251
0.148819
0.151185
0.149956
0.143858
0.136057
0.129902
0.126053
0.123418
0.12143
0.120406
0.120563
0.123181
0.134464
0.169138
0.196737
0.226838
0.26299
0.278853
0.278669
0.271
0.246992
0.218004
0.191816
0.179157
0.177323
0.178246
0.179747
0.179039
0.175764
0.163324
0.131705