/*--------------------------------*- C++ -*----------------------------------*\
| =========                 |                                                 |
| \\      /  F ield         | OpenFOAM: The Open Source CFD Toolbox           |
|  \\    /   O peration     | Version:  2112                                  |
|   \\  /    A nd           | Website:  www.openfoam.com                      |
|    \\/     M anipulation  |                                                 |
\*---------------------------------------------------------------------------*/
FoamFile
{
    version     2.0;
    format      ascii;
    arch        "LSB;label=32;scalar=64";
    class       surfaceScalarField;
    location    "0.12";
    object      phi;
}
// * * * * * * * * * * * * * * * * * * * * * * * * * * * * * * * * * * * * * //

dimensions      [0 3 -1 0 0 0 0];

oriented        oriented;

internalField   nonuniform List<scalar> 
24170
(
3.1253e-06
1.7032e-07
2.98018e-06
1.45114e-07
2.87895e-06
1.01229e-07
2.78284e-06
9.61183e-08
2.69017e-06
9.26665e-08
2.61453e-06
7.56384e-08
2.55062e-06
6.39121e-08
2.48913e-06
6.14885e-08
2.42839e-06
6.07449e-08
2.37424e-06
5.41406e-08
2.32985e-06
4.43975e-08
2.29442e-06
3.54299e-08
2.26503e-06
2.93839e-08
2.24029e-06
2.47419e-08
2.21999e-06
2.02968e-08
2.20431e-06
1.56847e-08
2.22514e-06
-2.08298e-08
-8.19864e-09
2.23334e-06
3.45025e-06
1.30102e-07
3.48899e-06
1.06378e-07
3.48049e-06
1.0973e-07
3.47271e-06
1.03902e-07
3.46557e-06
9.98013e-08
3.4568e-06
8.44053e-08
3.45029e-06
7.04213e-08
3.45075e-06
6.10317e-08
3.45832e-06
5.31719e-08
3.46973e-06
4.27336e-08
3.48058e-06
3.35479e-08
3.48917e-06
2.6845e-08
3.49389e-06
2.46605e-08
3.49918e-06
1.94558e-08
3.50417e-06
1.53052e-08
3.52029e-06
-4.39587e-10
3.52719e-06
-2.77255e-08
-3.88606e-08
3.55785e-06
3.59566e-06
-4.77136e-09
3.62048e-06
8.15585e-08
3.63659e-06
9.36196e-08
3.66827e-06
7.22268e-08
3.69755e-06
7.05136e-08
3.71139e-06
7.05725e-08
3.71178e-06
7.00274e-08
3.70737e-06
6.54404e-08
3.70702e-06
5.3527e-08
3.71305e-06
3.66975e-08
3.72635e-06
2.02541e-08
3.74401e-06
9.18504e-09
3.76582e-06
2.84141e-09
3.78776e-06
-2.48346e-09
3.81371e-06
-1.06399e-08
3.83851e-06
-2.5237e-08
3.86161e-06
-5.08249e-08
-6.78285e-08
3.89057e-06
3.88426e-06
8.02023e-08
3.86934e-06
9.64719e-08
3.90289e-06
6.007e-08
3.93822e-06
3.68985e-08
3.95324e-06
5.54981e-08
3.95307e-06
7.07339e-08
3.9503e-06
7.28002e-08
3.9533e-06
6.2442e-08
3.96396e-06
4.28684e-08
3.97992e-06
2.0733e-08
3.99812e-06
2.06002e-09
4.01832e-06
-1.10168e-08
4.03966e-06
-1.84951e-08
4.06319e-06
-2.60169e-08
4.08944e-06
-3.68866e-08
4.11733e-06
-5.31307e-08
4.14448e-06
-7.79736e-08
-9.93241e-08
4.17597e-06
4.25134e-06
-3.31284e-08
4.22076e-06
1.27049e-07
4.19677e-06
8.40668e-08
4.20546e-06
2.82006e-08
4.22034e-06
4.0625e-08
4.22795e-06
6.31169e-08
4.2389e-06
6.18532e-08
4.26087e-06
4.04676e-08
4.28825e-06
1.5494e-08
4.30975e-06
-7.63208e-10
4.31948e-06
-7.67316e-09
4.31968e-06
-1.12208e-08
4.3188e-06
-1.76174e-08
4.32432e-06
-3.15308e-08
4.34034e-06
-5.29053e-08
4.36625e-06
-7.90427e-08
4.39866e-06
-1.10387e-07
-1.3845e-07
4.43779e-06
4.54454e-06
1.65674e-07
4.45754e-06
2.14042e-07
4.45519e-06
8.64235e-08
4.48341e-06
-2.61217e-11
4.50267e-06
2.13648e-08
4.50174e-06
6.40511e-08
4.4892e-06
7.43952e-08
4.4808e-06
4.88695e-08
4.48413e-06
1.21579e-08
4.49762e-06
-1.42509e-08
4.51692e-06
-2.69726e-08
4.53999e-06
-3.42894e-08
4.56713e-06
-4.47598e-08
4.59848e-06
-6.28836e-08
4.63385e-06
-8.82699e-08
4.67184e-06
-1.17034e-07
4.71076e-06
-1.49305e-07
-1.79729e-07
4.75204e-06
4.64874e-06
1.47169e-07
4.70536e-06
1.57422e-07
4.76379e-06
2.8001e-08
4.80126e-06
-3.74967e-08
4.81951e-06
3.1101e-09
4.81736e-06
6.61992e-08
4.80277e-06
8.89876e-08
4.79224e-06
5.94033e-08
4.79847e-06
5.92922e-09
4.82122e-06
-3.70081e-08
4.85486e-06
-6.06071e-08
4.89148e-06
-7.0911e-08
4.92564e-06
-7.89147e-08
4.9556e-06
-9.28441e-08
4.98264e-06
-1.15309e-07
5.00992e-06
-1.44316e-07
5.03974e-06
-1.79127e-07
-2.15081e-07
5.07509e-06
5.10861e-06
-5.9172e-08
5.20371e-06
6.23236e-08
5.19434e-06
3.73651e-08
5.15708e-06
-2.31896e-10
5.13608e-06
2.41124e-08
5.15106e-06
5.12199e-08
5.193e-06
4.70451e-08
5.24239e-06
1.00093e-08
5.28372e-06
-3.54033e-08
5.31037e-06
-6.36551e-08
5.32387e-06
-7.41089e-08
5.33011e-06
-7.71499e-08
5.33582e-06
-8.46174e-08
5.34706e-06
-1.0409e-07
5.36706e-06
-1.35308e-07
5.39683e-06
-1.7409e-07
5.43423e-06
-2.16525e-07
-2.57824e-07
5.47697e-06
5.53058e-06
5.44498e-08
5.50983e-06
8.30716e-08
5.54109e-06
6.0997e-09
5.57668e-06
-3.5813e-08
5.61346e-06
-1.26752e-08
5.64703e-06
1.76504e-08
5.66911e-06
2.49676e-08
5.6713e-06
7.81735e-09
5.65411e-06
-1.82074e-08
5.63307e-06
-4.26172e-08
5.62176e-06
-6.27968e-08
5.62684e-06
-8.22364e-08
5.64791e-06
-1.05684e-07
5.68051e-06
-1.3669e-07
5.72005e-06
-1.74849e-07
5.76233e-06
-2.16365e-07
5.80479e-06
-2.58989e-07
-2.98543e-07
5.84551e-06
6.0075e-06
2.36908e-09
6.00418e-06
8.63939e-08
5.96676e-06
4.35218e-08
5.95175e-06
-2.08035e-08
5.98006e-06
-4.09839e-08
6.03177e-06
-3.40668e-08
6.07719e-06
-2.04442e-08
6.09849e-06
-1.34903e-08
6.09716e-06
-1.6869e-08
6.08407e-06
-2.95368e-08
6.07153e-06
-5.02559e-08
6.06656e-06
-7.72669e-08
6.07019e-06
-1.09314e-07
6.07917e-06
-1.45665e-07
6.09032e-06
-1.85997e-07
6.1016e-06
-2.27652e-07
6.11244e-06
-2.69827e-07
-3.10447e-07
6.12435e-06
6.31664e-06
7.81283e-08
6.38216e-06
2.08783e-08
6.40577e-06
1.99086e-08
6.3894e-06
-4.42923e-09
6.36849e-06
-2.00776e-08
6.35584e-06
-2.14149e-08
6.35586e-06
-2.04621e-08
6.36936e-06
-2.69973e-08
6.39687e-06
-4.43722e-08
6.43861e-06
-7.12772e-08
6.4905e-06
-1.02153e-07
6.54425e-06
-1.31014e-07
6.59025e-06
-1.55317e-07
6.62091e-06
-1.76321e-07
6.63278e-06
-1.97864e-07
6.62837e-06
-2.23245e-07
6.61208e-06
-2.53537e-07
-2.90691e-07
6.59233e-06
5.7095e-06
1.58215e-07
5.73533e-06
-4.9513e-09
5.77498e-06
-1.97435e-08
5.77482e-06
-4.26231e-09
5.75911e-06
-4.37156e-09
5.75193e-06
-1.42387e-08
5.76223e-06
-3.07624e-08
5.78924e-06
-5.4e-08
5.828e-06
-8.31392e-08
5.87085e-06
-1.14118e-07
5.91086e-06
-1.42172e-07
5.94349e-06
-1.63643e-07
5.96605e-06
-1.77875e-07
5.97816e-06
-1.88425e-07
5.98057e-06
-2.00278e-07
5.97593e-06
-2.18604e-07
5.96625e-06
-2.43859e-07
-2.77442e-07
5.953e-06
7.01773e-06
1.37125e-07
7.04198e-06
-2.92049e-08
7.05617e-06
-3.39297e-08
7.0586e-06
-6.69057e-09
7.06881e-06
-1.45876e-08
7.09383e-06
-3.9252e-08
7.12321e-06
-6.01435e-08
7.14151e-06
-7.22991e-08
7.14202e-06
-8.36521e-08
7.1308e-06
-1.02894e-07
7.11966e-06
-1.31039e-07
7.11829e-06
-1.62267e-07
7.12939e-06
-1.88982e-07
7.14999e-06
-2.09023e-07
7.1739e-06
-2.24182e-07
7.19531e-06
-2.40017e-07
7.21032e-06
-2.5887e-07
-2.8384e-07
7.21672e-06
8.35405e-06
1.88798e-07
8.33977e-06
-1.49263e-08
8.37259e-06
-6.67441e-08
8.46282e-06
-9.69242e-08
8.58372e-06
-1.35483e-07
8.68438e-06
-1.39914e-07
8.72974e-06
-1.05502e-07
8.71797e-06
-6.053e-08
8.67434e-06
-4.00282e-08
8.63147e-06
-6.00189e-08
8.61034e-06
-1.09913e-07
8.61558e-06
-1.67501e-07
8.64e-06
-2.13409e-07
8.67281e-06
-2.41831e-07
8.70476e-06
-2.56132e-07
8.73013e-06
-2.65385e-07
8.7466e-06
-2.75341e-07
-2.90907e-07
8.75367e-06
1.01626e-05
6.2459e-09
1.02706e-05
-1.22922e-07
1.02946e-05
-9.07639e-08
1.03221e-05
-1.2443e-07
1.03597e-05
-1.73095e-07
1.04142e-05
-1.94367e-07
1.04824e-05
-1.73714e-07
1.05542e-05
-1.32302e-07
1.06185e-05
-1.04387e-07
1.06664e-05
-1.07915e-07
1.0693e-05
-1.3647e-07
1.06991e-05
-1.73606e-07
1.06917e-05
-2.06069e-07
1.06801e-05
-2.30193e-07
1.06713e-05
-2.47352e-07
1.06679e-05
-2.61971e-07
1.06684e-05
-2.7582e-07
-2.9057e-07
1.0668e-05
1.2877e-05
8.98311e-08
1.27904e-05
-3.63703e-08
1.28163e-05
-1.16672e-07
1.28152e-05
-1.23321e-07
1.27511e-05
-1.0898e-07
1.26667e-05
-1.09913e-07
1.26172e-05
-1.24268e-07
1.26196e-05
-1.34655e-07
1.26526e-05
-1.37464e-07
1.26897e-05
-1.44958e-07
1.27188e-05
-1.65555e-07
1.27414e-05
-1.96218e-07
1.27628e-05
-2.27486e-07
1.27843e-05
-2.51684e-07
1.28022e-05
-2.65318e-07
1.28108e-05
-2.70563e-07
1.28054e-05
-2.70365e-07
-2.69585e-07
1.27844e-05
1.53149e-05
-1.07891e-08
1.53419e-05
-6.33768e-08
1.53351e-05
-1.09885e-07
1.5314e-05
-1.02183e-07
1.52774e-05
-7.24007e-08
1.52346e-05
-6.71296e-08
1.51993e-05
-8.89356e-08
1.51822e-05
-1.17629e-07
1.51892e-05
-1.44425e-07
1.52194e-05
-1.75183e-07
1.52669e-05
-2.13004e-07
1.53224e-05
-2.51784e-07
1.53756e-05
-2.80628e-07
1.54171e-05
-2.93193e-07
1.5442e-05
-2.90212e-07
1.54498e-05
-2.78415e-07
1.54436e-05
-2.64164e-07
-2.53294e-07
1.54273e-05
1.86743e-05
-1.96667e-07
1.87808e-05
-1.69849e-07
1.88011e-05
-1.3019e-07
1.88389e-05
-1.40035e-07
1.89314e-05
-1.64836e-07
1.90392e-05
-1.74984e-07
1.91088e-05
-1.58473e-07
1.91169e-05
-1.25788e-07
1.90727e-05
-1.00201e-07
1.89979e-05
-1.00423e-07
1.89147e-05
-1.29792e-07
1.88404e-05
-1.7745e-07
1.87856e-05
-2.25871e-07
1.87531e-05
-2.60694e-07
1.87385e-05
-2.75608e-07
1.87337e-05
-2.73559e-07
1.87301e-05
-2.60528e-07
-2.45235e-07
1.8722e-05
2.39786e-05
5.22639e-08
2.37366e-05
7.21796e-08
2.36066e-05
-1.76389e-10
2.35075e-05
-4.09831e-08
2.34053e-05
-6.2605e-08
2.32979e-05
-6.75989e-08
2.31986e-05
-5.91811e-08
2.31253e-05
-5.25301e-08
2.30864e-05
-6.12909e-08
2.30756e-05
-8.96362e-08
2.30776e-05
-1.31732e-07
2.30742e-05
-1.74093e-07
2.30523e-05
-2.03985e-07
2.30065e-05
-2.14883e-07
2.29395e-05
-2.08565e-07
2.28586e-05
-1.92702e-07
2.27722e-05
-1.74118e-07
-1.61272e-07
2.26883e-05
1.68975e-05
-2.3092e-09
1.69022e-05
6.75397e-08
1.68901e-05
1.19416e-08
1.68899e-05
-4.07881e-08
1.69212e-05
-9.39689e-08
1.69728e-05
-1.19214e-07
1.70266e-05
-1.12925e-07
1.70644e-05
-9.03666e-08
1.70791e-05
-7.59498e-08
1.70698e-05
-8.03539e-08
1.70349e-05
-9.68054e-08
1.69732e-05
-1.12439e-07
1.68889e-05
-1.19713e-07
1.67927e-05
-1.18676e-07
1.66983e-05
-1.14129e-07
1.6617e-05
-1.11401e-07
1.65559e-05
-1.13023e-07
-1.19917e-07
1.65145e-05
1.44309e-05
-8.11029e-08
1.45141e-05
-1.56528e-08
1.45271e-05
-1.07637e-09
1.45439e-05
-5.76093e-08
1.45955e-05
-1.45587e-07
1.46657e-05
-1.89403e-07
1.47291e-05
-1.76354e-07
1.47723e-05
-1.33471e-07
1.47858e-05
-8.94587e-08
1.47648e-05
-5.93834e-08
1.4715e-05
-4.70108e-08
1.46527e-05
-5.01151e-08
1.45971e-05
-6.41535e-08
1.45615e-05
-8.30578e-08
1.45482e-05
-1.00837e-07
1.45514e-05
-1.14644e-07
1.45623e-05
-1.23926e-07
-1.28953e-07
1.45714e-05
1.29734e-05
9.48625e-08
1.29174e-05
4.0405e-08
1.29008e-05
1.5481e-08
1.28981e-05
-5.49095e-08
1.28728e-05
-1.20327e-07
1.28223e-05
-1.38862e-07
1.27591e-05
-1.13126e-07
1.26922e-05
-6.66304e-08
1.2628e-05
-2.52388e-08
1.25748e-05
-6.19309e-09
1.25435e-05
-1.56734e-08
1.25396e-05
-4.62505e-08
1.256e-05
-8.45453e-08
1.25941e-05
-1.17148e-07
1.26289e-05
-1.35599e-07
1.26534e-05
-1.39226e-07
1.26613e-05
-1.31824e-07
-1.21069e-07
1.26535e-05
1.10534e-05
1.74957e-07
1.11094e-05
-1.55362e-08
1.11573e-05
-3.25081e-08
1.11514e-05
-4.90092e-08
1.11066e-05
-7.5503e-08
1.10595e-05
-9.17045e-08
1.10346e-05
-8.82238e-08
1.10384e-05
-7.05148e-08
1.10653e-05
-5.21133e-08
1.11022e-05
-4.30529e-08
1.11345e-05
-4.79631e-08
1.11518e-05
-6.35625e-08
1.115e-05
-8.27802e-08
1.11309e-05
-9.79806e-08
1.10994e-05
-1.04159e-07
1.10622e-05
-1.02014e-07
1.10251e-05
-9.46896e-08
-8.69384e-08
1.09909e-05
9.74088e-06
2.15528e-08
9.76546e-06
-4.01127e-08
9.74213e-06
-9.1828e-09
9.66523e-06
2.78955e-08
9.55137e-06
3.83602e-08
9.44992e-06
9.74291e-09
9.40682e-06
-4.51281e-08
9.4403e-06
-1.03994e-07
9.52479e-06
-1.36597e-07
9.61881e-06
-1.37077e-07
9.68595e-06
-1.15099e-07
9.7085e-06
-8.61204e-08
9.68915e-06
-6.34221e-08
9.64424e-06
-5.30696e-08
9.59453e-06
-5.44515e-08
9.55566e-06
-6.3142e-08
9.53394e-06
-7.29692e-08
-7.91725e-08
9.52617e-06
8.3344e-06
-8.92821e-08
8.35517e-06
-6.08773e-08
8.37024e-06
-2.42513e-08
8.41273e-06
-1.45984e-08
8.46158e-06
-1.04859e-08
8.49972e-06
-2.84046e-08
8.51343e-06
-5.88353e-08
8.49304e-06
-8.35997e-08
8.4484e-06
-9.19599e-08
8.39774e-06
-8.64154e-08
8.35803e-06
-7.53905e-08
8.33791e-06
-6.60024e-08
8.33752e-06
-6.30353e-08
8.35354e-06
-6.90855e-08
8.38013e-06
-8.10413e-08
8.41013e-06
-9.31434e-08
8.4369e-06
-9.97405e-08
-9.69481e-08
8.45468e-06
7.28903e-06
2.07539e-08
7.27179e-06
-4.36421e-08
7.30153e-06
-5.39916e-08
7.3204e-06
-3.34676e-08
7.32533e-06
-1.54159e-08
7.32459e-06
-2.76563e-08
7.3279e-06
-6.21525e-08
7.33903e-06
-9.4724e-08
7.35579e-06
-1.08721e-07
7.37247e-06
-1.03097e-07
7.3827e-06
-8.56154e-08
7.38324e-06
-6.65481e-08
7.375e-06
-5.47929e-08
7.36113e-06
-5.52207e-08
7.34568e-06
-6.55848e-08
7.33201e-06
-7.94789e-08
7.32175e-06
-8.94826e-08
-8.99513e-08
7.31476e-06
6.36159e-06
2.38654e-08
6.35328e-06
-3.53289e-08
6.34975e-06
-5.04579e-08
6.37176e-06
-5.54818e-08
6.40259e-06
-4.62416e-08
6.41563e-06
-4.07036e-08
6.39883e-06
-4.53458e-08
6.36372e-06
-5.96157e-08
6.33493e-06
-7.99319e-08
6.33118e-06
-9.93462e-08
6.35645e-06
-1.10885e-07
6.40147e-06
-1.11569e-07
6.44999e-06
-1.03311e-07
6.48515e-06
-9.03862e-08
6.49614e-06
-7.65737e-08
6.48129e-06
-6.46292e-08
6.44754e-06
-5.57294e-08
-4.96239e-08
6.40721e-06
5.56435e-06
5.05833e-08
5.54473e-06
-1.57056e-08
5.5734e-06
-7.91346e-08
5.59215e-06
-7.42323e-08
5.59932e-06
-5.34042e-08
5.60908e-06
-5.04696e-08
5.62411e-06
-6.03702e-08
5.63473e-06
-7.02405e-08
5.63241e-06
-7.76127e-08
5.61816e-06
-8.50939e-08
5.60009e-06
-9.28115e-08
5.5865e-06
-9.79789e-08
5.58108e-06
-9.7892e-08
5.58285e-06
-9.21564e-08
5.58858e-06
-8.23054e-08
5.5954e-06
-7.14479e-08
5.60161e-06
-6.19378e-08
-5.46375e-08
5.60662e-06
4.82817e-06
-1.40673e-08
4.85483e-06
-4.23714e-08
4.86655e-06
-9.08575e-08
4.87808e-06
-8.57592e-08
4.89611e-06
-7.14319e-08
4.91846e-06
-7.28255e-08
4.9384e-06
-8.03104e-08
4.94723e-06
-7.90624e-08
4.93945e-06
-6.98388e-08
4.91541e-06
-6.10487e-08
4.87963e-06
-5.70307e-08
4.83778e-06
-5.61337e-08
4.79479e-06
-5.49021e-08
4.75526e-06
-5.26212e-08
4.72357e-06
-5.06215e-08
4.70254e-06
-5.0411e-08
4.69324e-06
-5.2647e-08
-5.51321e-08
4.69374e-06
4.14993e-06
4.10756e-06
4.01671e-06
3.93095e-06
3.85951e-06
3.78669e-06
3.70638e-06
3.62732e-06
3.55748e-06
3.49643e-06
3.4394e-06
3.38326e-06
3.32836e-06
3.27574e-06
3.22512e-06
3.17471e-06
3.12206e-06
3.06693e-06
8.59795e-08
-8.59795e-08
1.28446e-07
-4.2466e-08
1.31865e-07
-3.41949e-09
1.08372e-07
2.34934e-08
6.47935e-08
4.35781e-08
1.23285e-08
5.2465e-08
-4.09054e-08
5.32339e-08
-9.20809e-08
5.11755e-08
-1.40873e-07
4.87923e-08
-1.87718e-07
4.68446e-08
-2.32997e-07
4.52792e-08
-2.76862e-07
4.38647e-08
-3.19771e-07
4.29096e-08
-3.61944e-07
4.21726e-08
-4.03325e-07
4.13814e-08
-4.43395e-07
4.00691e-08
-4.80435e-07
3.70405e-08
-5.11436e-07
3.10006e-08
-5.32012e-07
2.0576e-08
-5.35275e-07
3.26372e-09
-5.14895e-07
-2.03802e-08
-4.58694e-07
-5.62009e-08
-3.4994e-07
-1.08754e-07
-1.68113e-07
-1.81827e-07
9.21793e-08
-2.60292e-07
4.27858e-07
-3.35679e-07
7.88025e-07
-3.60167e-07
1.17252e-06
-3.84493e-07
1.44221e-06
-2.69688e-07
1.47033e-06
-2.81244e-08
1.32668e-06
1.43646e-07
1.19527e-06
1.31411e-07
1.20221e-06
-6.93625e-09
1.39279e-06
-1.90584e-07
1.57341e-06
-1.8062e-07
1.8174e-06
-2.43984e-07
2.15483e-06
-3.37427e-07
2.32576e-06
-1.70929e-07
2.34156e-06
-1.58095e-08
2.31549e-06
2.60699e-08
2.06889e-06
2.46604e-07
1.44103e-06
6.27865e-07
5.70202e-07
8.70824e-07
-3.65234e-07
9.35436e-07
-1.2791e-06
9.13864e-07
-2.09535e-06
8.16253e-07
-2.79415e-06
6.98797e-07
-3.39753e-06
6.03382e-07
-3.93217e-06
5.34644e-07
-4.41923e-06
4.87059e-07
-4.87479e-06
4.55556e-07
-5.31059e-06
4.35799e-07
-5.73493e-06
4.2434e-07
-6.15401e-06
4.19082e-07
-6.57294e-06
4.18929e-07
-6.99667e-06
4.23736e-07
-7.4302e-06
4.33522e-07
-7.8782e-06
4.48004e-07
-8.34433e-06
4.6613e-07
-8.83056e-06
4.8623e-07
-9.33683e-06
5.06267e-07
-9.86094e-06
5.24109e-07
-1.03984e-05
5.37505e-07
-1.09425e-05
5.4402e-07
-1.14835e-05
5.41059e-07
-1.20094e-05
5.25875e-07
-1.25051e-05
4.95733e-07
-1.29536e-05
4.48494e-07
-1.33369e-05
3.83261e-07
-1.36374e-05
3.00567e-07
-1.38401e-05
2.02644e-07
-1.39346e-05
9.45444e-08
-1.39178e-05
-1.68286e-08
-1.38001e-05
-1.177e-07
-1.35849e-05
-2.15203e-07
-1.328e-05
-3.04936e-07
-1.2896e-05
-3.84017e-07
-1.24419e-05
-4.54057e-07
-1.19266e-05
-5.15288e-07
-1.13581e-05
-5.68557e-07
-1.07435e-05
-6.14601e-07
-1.00899e-05
-6.5351e-07
-9.40446e-06
-6.85479e-07
-8.69437e-06
-7.1009e-07
-7.96743e-06
-7.26945e-07
-7.23167e-06
-7.35757e-07
-6.49504e-06
-7.36632e-07
-5.76503e-06
-7.30003e-07
-5.04866e-06
-7.16372e-07
-4.35239e-06
-6.96269e-07
-3.68182e-06
-6.70577e-07
-3.04134e-06
-6.40472e-07
-2.43448e-06
-6.06866e-07
-1.86404e-06
-5.70442e-07
-1.33307e-06
-5.30963e-07
-8.44499e-07
-4.88575e-07
-3.99235e-07
-4.45263e-07
8.39741e-09
-4.07633e-07
3.92155e-07
-3.83758e-07
7.58972e-07
-3.66817e-07
1.11619e-06
-3.57217e-07
1.45858e-06
-3.42389e-07
1.77418e-06
-3.15599e-07
2.05617e-06
-2.81996e-07
2.31281e-06
-2.56633e-07
2.548e-06
-2.3519e-07
2.73941e-06
-1.91415e-07
2.87009e-06
-1.3068e-07
2.94082e-06
-7.07308e-08
2.9296e-06
1.12267e-08
2.81034e-06
1.19256e-07
2.64811e-06
1.62225e-07
2.54584e-06
1.02273e-07
2.53011e-06
1.5728e-08
2.53764e-06
-7.53009e-09
2.47649e-06
6.11554e-08
2.39078e-06
8.57096e-08
2.47479e-06
-8.40073e-08
2.85526e-06
-3.80472e-07
3.36286e-06
-5.07602e-07
3.64095e-06
-2.78094e-07
3.45013e-06
1.90824e-07
2.76763e-06
6.825e-07
1.79445e-06
9.73184e-07
8.65065e-07
9.2938e-07
1.28305e-07
7.36761e-07
-4.44008e-07
5.72313e-07
-9.32656e-07
4.88648e-07
-1.41273e-06
4.80076e-07
-1.94126e-06
5.28526e-07
-2.55042e-06
6.09166e-07
-3.24935e-06
6.98926e-07
-4.03148e-06
7.82124e-07
-4.87756e-06
8.46082e-07
-5.7586e-06
8.81041e-07
-6.63627e-06
8.77668e-07
-7.46217e-06
8.25906e-07
-8.18202e-06
7.19847e-07
-8.74258e-06
5.60564e-07
-9.09789e-06
3.55308e-07
-9.21718e-06
1.19292e-07
-9.09111e-06
-1.26075e-07
-8.72275e-06
-3.68354e-07
-8.12537e-06
-5.97383e-07
-7.32999e-06
-7.95383e-07
-6.38447e-06
-9.45521e-07
-5.34742e-06
-1.03705e-06
-4.27454e-06
-1.07288e-06
-3.20925e-06
-1.06529e-06
-2.18128e-06
-1.02797e-06
-1.20472e-06
-9.76561e-07
-2.84165e-07
-9.20551e-07
5.8058e-07
-8.64745e-07
1.39028e-06
-8.09697e-07
2.14251e-06
-7.52228e-07
2.83615e-06
-6.93641e-07
3.47397e-06
-6.37823e-07
4.05041e-06
-5.76443e-07
4.55247e-06
-5.02061e-07
4.99548e-06
-4.43011e-07
5.39346e-06
-3.97978e-07
5.72056e-06
-3.27097e-07
6.01514e-06
-2.94577e-07
6.32413e-06
-3.08994e-07
6.58026e-06
-2.56124e-07
6.85345e-06
-2.73194e-07
7.20406e-06
-3.5061e-07
7.43851e-06
-2.34451e-07
7.70667e-06
-2.68162e-07
8.04809e-06
-3.41419e-07
8.0177e-06
3.03937e-08
8.00369e-06
1.40083e-08
7.95579e-06
4.78959e-08
6.60644e-06
1.34935e-06
4.45881e-06
2.14763e-06
3.04472e-06
1.41408e-06
2.58716e-06
4.57567e-07
2.46799e-06
1.19169e-07
2.22772e-06
2.40263e-07
5.76016e-07
1.65171e-06
-3.45848e-08
-5.13947e-08
-8.20246e-08
4.97377e-09
-1.12673e-07
2.72293e-08
-1.19239e-07
3.00592e-08
-1.03878e-07
2.82169e-08
-7.49249e-08
2.35119e-08
-4.29087e-08
2.12176e-08
-1.46967e-08
2.29635e-08
4.77255e-09
2.93231e-08
1.33169e-08
3.83003e-08
9.92349e-09
4.86726e-08
-5.45068e-09
5.92389e-08
-3.19703e-08
6.94291e-08
-6.82546e-08
7.84569e-08
-1.12972e-07
8.60993e-08
-1.6449e-07
9.15862e-08
-2.20296e-07
9.28469e-08
-2.78008e-07
8.87123e-08
-3.34459e-07
7.7027e-08
-3.84802e-07
5.36076e-08
-4.20021e-07
1.48385e-08
-4.33772e-07
-4.245e-08
-4.15428e-07
-1.27098e-07
-3.5035e-07
-2.46905e-07
-2.18675e-07
-3.91968e-07
7.94569e-09
-5.62299e-07
3.166e-07
-6.68821e-07
6.66332e-07
-7.34225e-07
9.71175e-07
-5.7453e-07
1.25786e-06
-3.14807e-07
1.63224e-06
-2.30739e-07
1.8147e-06
-5.10486e-08
1.81041e-06
-2.64338e-09
2.09659e-06
-4.76764e-07
2.55789e-06
-6.41924e-07
2.5717e-06
-2.57793e-07
2.24596e-06
-1.16891e-08
1.69744e-06
3.77597e-07
8.11494e-07
8.70134e-07
-2.88468e-07
1.12603e-06
-1.32699e-06
1.28513e-06
-2.18365e-06
1.48452e-06
-2.89753e-06
1.58471e-06
-3.52796e-06
1.56587e-06
-4.07731e-06
1.46322e-06
-4.58262e-06
1.32156e-06
-5.06956e-06
1.18573e-06
-5.54071e-06
1.07453e-06
-5.99478e-06
9.88714e-07
-6.4323e-06
9.24578e-07
-6.85469e-06
8.77951e-07
-7.26441e-06
8.45515e-07
-7.66434e-06
8.24274e-07
-8.05768e-06
8.12414e-07
-8.44749e-06
8.08746e-07
-8.83669e-06
8.12936e-07
-9.22776e-06
8.24592e-07
-9.6227e-06
8.42948e-07
-1.00229e-05
8.66347e-07
-1.04291e-05
8.92375e-07
-1.08408e-05
9.18004e-07
-1.12565e-05
9.39824e-07
-1.16733e-05
9.54265e-07
-1.20867e-05
9.57398e-07
-1.24905e-05
9.44903e-07
-1.28766e-05
9.11954e-07
-1.32343e-05
8.53481e-07
-1.35511e-05
7.65292e-07
-1.38132e-05
6.45372e-07
-1.40075e-05
4.9479e-07
-1.41231e-05
3.18304e-07
-1.41531e-05
1.24572e-07
-1.40945e-05
-7.5523e-08
-1.39356e-05
-2.76517e-07
-1.36834e-05
-4.67409e-07
-1.33463e-05
-6.42113e-07
-1.29326e-05
-7.97717e-07
-1.24531e-05
-9.33485e-07
-1.1917e-05
-1.0514e-06
-1.13319e-05
-1.15365e-06
-1.07049e-05
-1.24164e-06
-1.00421e-05
-1.31631e-06
-9.34986e-06
-1.3777e-06
-8.63489e-06
-1.42506e-06
-7.90457e-06
-1.45726e-06
-7.1667e-06
-1.47362e-06
-6.42902e-06
-1.47432e-06
-5.69873e-06
-1.46029e-06
-4.98242e-06
-1.43269e-06
-4.28612e-06
-1.39257e-06
-3.61527e-06
-1.34143e-06
-2.97402e-06
-1.28172e-06
-2.36502e-06
-1.21586e-06
-1.78882e-06
-1.14664e-06
-1.24295e-06
-1.07684e-06
-7.24138e-07
-1.00739e-06
-2.29925e-07
-9.39476e-07
2.38226e-07
-8.75784e-07
6.74447e-07
-8.19979e-07
1.0866e-06
-7.78966e-07
1.48697e-06
-7.57596e-07
1.8801e-06
-7.35516e-07
2.24148e-06
-6.76973e-07
2.52448e-06
-5.64997e-07
2.69775e-06
-4.29911e-07
2.79152e-06
-3.28957e-07
2.89719e-06
-2.97088e-07
3.11027e-06
-3.43758e-07
3.44062e-06
-4.01084e-07
3.73145e-06
-2.79596e-07
3.75376e-06
9.69391e-08
3.44096e-06
4.75028e-07
3.0155e-06
5.27734e-07
2.82299e-06
2.0824e-07
2.99256e-06
-1.77097e-07
3.28301e-06
-2.29296e-07
3.42573e-06
-5.70096e-08
3.46457e-06
-1.22852e-07
3.60236e-06
-5.18257e-07
3.83986e-06
-7.4511e-07
3.87132e-06
-3.09548e-07
3.32307e-06
7.39071e-07
2.20699e-06
1.79858e-06
9.97256e-07
2.18292e-06
5.228e-08
1.87436e-06
-6.30863e-07
1.4199e-06
-1.18885e-06
1.1303e-06
-1.70757e-06
1.00737e-06
-2.24068e-06
1.01319e-06
-2.8172e-06
1.10504e-06
-3.45235e-06
1.24432e-06
-4.14802e-06
1.3946e-06
-4.8947e-06
1.5288e-06
-5.67576e-06
1.62714e-06
-6.46776e-06
1.67304e-06
-7.23965e-06
1.64955e-06
-7.95333e-06
1.53959e-06
-8.56577e-06
1.33228e-06
-9.03432e-06
1.02912e-06
-9.32335e-06
6.44334e-07
-9.40854e-06
2.04479e-07
-9.26172e-06
-2.72889e-07
-8.87016e-06
-7.59915e-07
-8.24436e-06
-1.22319e-06
-7.41357e-06
-1.62617e-06
-6.42947e-06
-1.92962e-06
-5.3547e-06
-2.11182e-06
-4.24843e-06
-2.17916e-06
-3.15539e-06
-2.15833e-06
-2.10429e-06
-2.07907e-06
-1.10784e-06
-1.97301e-06
-1.69194e-07
-1.8592e-06
7.16791e-07
-1.75073e-06
1.54627e-06
-1.63917e-06
2.32136e-06
-1.52732e-06
3.03922e-06
-1.4115e-06
3.69606e-06
-1.29467e-06
4.29481e-06
-1.17519e-06
4.83381e-06
-1.04106e-06
5.30102e-06
-9.10228e-07
5.70569e-06
-8.02639e-07
6.07232e-06
-6.93737e-07
6.39369e-06
-6.15947e-07
6.68528e-06
-6.00576e-07
6.99772e-06
-5.68571e-07
7.29203e-06
-5.67503e-07
7.58411e-06
-6.42689e-07
7.94751e-06
-5.97853e-07
8.21931e-06
-5.39962e-07
8.47198e-06
-5.94088e-07
8.7938e-06
-2.9142e-07
8.76488e-06
4.2922e-08
8.72961e-06
8.31727e-08
8.9509e-06
1.12806e-06
8.36877e-06
2.72977e-06
6.69862e-06
3.08423e-06
5.04153e-06
2.11466e-06
4.03386e-06
1.12683e-06
3.3024e-06
9.71721e-07
1.44604e-06
2.43238e-06
1.71623e-08
-6.8557e-08
2.73027e-08
-5.16666e-09
6.93084e-08
-1.47764e-08
1.63923e-07
-6.45557e-08
3.04138e-07
-1.11998e-07
4.68022e-07
-1.40372e-07
6.33656e-07
-1.44417e-07
7.84275e-07
-1.27655e-07
9.09828e-07
-9.62296e-08
1.00413e-06
-5.60015e-08
1.06381e-06
-1.10077e-08
1.09151e-06
3.15349e-08
1.08835e-06
7.25921e-08
1.05609e-06
1.10717e-07
9.97289e-07
1.44902e-07
9.15414e-07
1.73461e-07
8.14642e-07
1.93619e-07
7.00444e-07
2.0291e-07
5.79223e-07
1.98248e-07
4.55515e-07
1.77316e-07
3.25796e-07
1.44558e-07
1.90079e-07
9.32665e-08
5.84311e-08
4.55023e-09
-5.82104e-08
-1.30264e-07
-1.31935e-07
-3.18243e-07
-1.37575e-07
-5.56659e-07
-2.14431e-08
-7.84953e-07
1.72066e-07
-9.27734e-07
4.21285e-07
-8.2375e-07
6.61938e-07
-5.55461e-07
8.5318e-07
-4.21981e-07
1.29497e-06
-4.9284e-07
1.78084e-06
-4.88509e-07
1.64312e-06
-3.39045e-07
1.09533e-06
-9.41393e-08
2.80538e-07
5.57002e-07
-7.0734e-07
9.76188e-07
-1.58425e-06
1.25451e-06
-2.23484e-06
1.52073e-06
-2.84178e-06
1.73297e-06
-3.4234e-06
1.86674e-06
-3.86312e-06
1.92424e-06
-4.18727e-06
1.90886e-06
-4.4556e-06
1.8342e-06
-4.718e-06
1.72562e-06
-5.00859e-06
1.61215e-06
-5.33374e-06
1.51088e-06
-5.68444e-06
1.42523e-06
-6.04844e-06
1.35271e-06
-6.41557e-06
1.2917e-06
-6.77961e-06
1.24199e-06
-7.1385e-06
1.2044e-06
-7.49265e-06
1.17843e-06
-7.84372e-06
1.16348e-06
-8.19367e-06
1.1587e-06
-8.54467e-06
1.16393e-06
-8.89925e-06
1.17917e-06
-9.26049e-06
1.20419e-06
-9.63177e-06
1.23762e-06
-1.00161e-05
1.27667e-06
-1.04153e-05
1.31721e-06
-1.08298e-05
1.35436e-06
-1.12583e-05
1.38275e-06
-1.1697e-05
1.39612e-06
-1.2139e-05
1.38693e-06
-1.25735e-05
1.34638e-06
-1.29851e-05
1.2651e-06
-1.33545e-05
1.1347e-06
-1.36597e-05
9.50531e-07
-1.38792e-05
7.14306e-07
-1.39961e-05
4.35232e-07
-1.39992e-05
1.27643e-07
-1.38856e-05
-1.89091e-07
-1.36671e-05
-4.95077e-07
-1.33537e-05
-7.80752e-07
-1.29596e-05
-1.03627e-06
-1.24995e-05
-1.25778e-06
-1.19862e-05
-1.44676e-06
-1.14293e-05
-1.60827e-06
-1.08358e-05
-1.74715e-06
-1.02109e-05
-1.86656e-06
-9.55913e-06
-1.96811e-06
-8.88495e-06
-2.05187e-06
-8.19376e-06
-2.11626e-06
-7.49192e-06
-2.1591e-06
-6.78637e-06
-2.17917e-06
-6.08384e-06
-2.17685e-06
-5.39024e-06
-2.15388e-06
-4.71065e-06
-2.11228e-06
-4.04957e-06
-2.05365e-06
-3.41137e-06
-1.97963e-06
-2.79989e-06
-1.8932e-06
-2.21782e-06
-1.79793e-06
-1.66519e-06
-1.69927e-06
-1.1391e-06
-1.60293e-06
-6.36046e-07
-1.51044e-06
-1.50112e-07
-1.42541e-06
3.20842e-07
-1.34674e-06
7.62808e-07
-1.26194e-06
1.16805e-06
-1.1842e-06
1.54766e-06
-1.13721e-06
1.92345e-06
-1.11131e-06
2.29386e-06
-1.04738e-06
2.62615e-06
-8.97282e-07
2.89046e-06
-6.94225e-07
3.08792e-06
-5.26414e-07
3.24409e-06
-4.53263e-07
3.37342e-06
-4.73089e-07
3.51854e-06
-5.46204e-07
3.79891e-06
-5.5996e-07
4.22539e-06
-3.2954e-07
4.52166e-06
1.78755e-07
4.40354e-06
6.45849e-07
3.98635e-06
6.25438e-07
3.68507e-06
1.24183e-07
3.72601e-06
-2.70239e-07
3.89685e-06
-2.27851e-07
3.96242e-06
-1.88419e-07
3.93365e-06
-4.89488e-07
3.78333e-06
-5.94794e-07
3.30662e-06
1.67168e-07
2.39668e-06
1.64901e-06
1.30426e-06
2.891e-06
4.70493e-07
3.01668e-06
-7.51409e-08
2.41999e-06
-5.23803e-07
1.86857e-06
-9.56932e-07
1.56343e-06
-1.42451e-06
1.47495e-06
-1.94817e-06
1.53685e-06
-2.53614e-06
1.69301e-06
-3.19002e-06
1.8982e-06
-3.90741e-06
2.11199e-06
-4.67949e-06
2.30088e-06
-5.49426e-06
2.44192e-06
-6.33659e-06
2.51537e-06
-7.18026e-06
2.49322e-06
-7.98173e-06
2.34105e-06
-8.68331e-06
2.03386e-06
-9.22513e-06
1.57095e-06
-9.55686e-06
9.76057e-07
-9.64363e-06
2.9125e-07
-9.47246e-06
-4.44058e-07
-9.04457e-06
-1.1878e-06
-8.37434e-06
-1.89342e-06
-7.49536e-06
-2.50515e-06
-6.46392e-06
-2.96106e-06
-5.34954e-06
-3.2262e-06
-4.21591e-06
-3.31279e-06
-3.10845e-06
-3.26578e-06
-2.05359e-06
-3.13394e-06
-1.05933e-06
-2.96727e-06
-1.26551e-07
-2.79197e-06
7.54225e-07
-2.63151e-06
1.57723e-06
-2.46218e-06
2.34429e-06
-2.29438e-06
3.0565e-06
-2.12371e-06
3.71144e-06
-1.94961e-06
4.30386e-06
-1.76761e-06
4.83184e-06
-1.56904e-06
5.29581e-06
-1.3742e-06
5.69551e-06
-1.20235e-06
6.04255e-06
-1.04077e-06
6.35881e-06
-9.32212e-07
6.64712e-06
-8.88882e-07
6.92934e-06
-8.50791e-07
7.23968e-06
-8.7785e-07
7.53924e-06
-9.42245e-07
7.86024e-06
-9.18853e-07
8.21168e-06
-8.91406e-07
8.44307e-06
-8.25479e-07
8.70182e-06
-5.50171e-07
8.91116e-06
-1.66415e-07
8.7664e-06
2.27937e-07
8.92264e-06
9.71812e-07
9.31157e-06
2.34084e-06
8.74334e-06
3.65246e-06
7.11695e-06
3.74105e-06
5.52497e-06
2.71881e-06
4.39505e-06
2.10164e-06
2.51651e-06
3.32458e-06
3.28075e-08
-1.01365e-07
7.10571e-08
-4.34162e-08
2.01888e-07
-1.45607e-07
4.4014e-07
-3.02808e-07
7.43255e-07
-4.15113e-07
1.06579e-06
-4.62906e-07
1.3758e-06
-4.54427e-07
1.65518e-06
-4.0703e-07
1.89606e-06
-3.37111e-07
2.09639e-06
-2.5633e-07
2.25714e-06
-1.71758e-07
2.37588e-06
-8.72126e-08
2.4517e-06
-3.22518e-09
2.48771e-06
7.47103e-08
2.4805e-06
1.52108e-07
2.42894e-06
2.25025e-07
2.33303e-06
2.89524e-07
2.19409e-06
3.41853e-07
2.01666e-06
3.75678e-07
1.80667e-06
3.87308e-07
1.57349e-06
3.77731e-07
1.32398e-06
3.42777e-07
1.06036e-06
2.68177e-07
7.94397e-07
1.35695e-07
5.47088e-07
-7.09341e-08
3.09309e-07
-3.18881e-07
1.35243e-07
-6.10886e-07
5.79511e-08
-8.50442e-07
1.71272e-07
-9.37071e-07
2.69727e-07
-6.53915e-07
2.98995e-07
-4.5125e-07
5.34614e-07
-7.28458e-07
4.08051e-07
-3.61947e-07
-3.14727e-07
3.83734e-07
-1.24461e-06
8.35742e-07
-1.88679e-06
1.19918e-06
-2.42324e-06
1.51265e-06
-2.93494e-06
1.76621e-06
-3.35983e-06
1.94562e-06
-3.69671e-06
2.06985e-06
-3.96473e-06
2.13476e-06
-4.1797e-06
2.13921e-06
-4.36658e-06
2.09574e-06
-4.55946e-06
2.02708e-06
-4.78236e-06
1.94851e-06
-5.04151e-06
1.87131e-06
-5.32944e-06
1.79881e-06
-5.63657e-06
1.73236e-06
-5.95527e-06
1.67142e-06
-6.2807e-06
1.61713e-06
-6.60858e-06
1.56988e-06
-6.93481e-06
1.53063e-06
-7.25649e-06
1.50011e-06
-7.57299e-06
1.47998e-06
-7.88658e-06
1.47229e-06
-8.20222e-06
1.47957e-06
-8.52638e-06
1.50334e-06
-8.86544e-06
1.54325e-06
-9.22452e-06
1.5967e-06
-9.60724e-06
1.65939e-06
-1.00157e-05
1.72566e-06
-1.04495e-05
1.78816e-06
-1.09044e-05
1.83769e-06
-1.13723e-05
1.86403e-06
-1.18417e-05
1.85628e-06
-1.22965e-05
1.80116e-06
-1.27144e-05
1.68301e-06
-1.30684e-05
1.48871e-06
-1.33317e-05
1.21389e-06
-1.34826e-05
8.65182e-07
-1.35071e-05
4.59708e-07
-1.33974e-05
1.79254e-08
-1.31704e-05
-4.16064e-07
-1.28385e-05
-8.2692e-07
-1.24216e-05
-1.19767e-06
-1.19408e-05
-1.51709e-06
-1.1416e-05
-1.78264e-06
-1.08617e-05
-2.00107e-06
-1.0287e-05
-2.18295e-06
-9.69583e-06
-2.3383e-06
-9.08941e-06
-2.47298e-06
-8.4685e-06
-2.58902e-06
-7.83496e-06
-2.68542e-06
-7.19277e-06
-2.75845e-06
-6.54799e-06
-2.80389e-06
-5.90765e-06
-2.81951e-06
-5.27822e-06
-2.80629e-06
-4.66421e-06
-2.76788e-06
-4.06808e-06
-2.70841e-06
-3.49118e-06
-2.63055e-06
-2.93511e-06
-2.53569e-06
-2.40283e-06
-2.42549e-06
-1.89788e-06
-2.30288e-06
-1.41895e-06
-2.1782e-06
-9.5952e-07
-2.06236e-06
-5.12736e-07
-1.95722e-06
-7.24723e-08
-1.86567e-06
3.72016e-07
-1.79123e-06
8.16506e-07
-1.70643e-06
1.23251e-06
-1.60021e-06
1.60174e-06
-1.50643e-06
1.94953e-06
-1.45911e-06
2.30296e-06
-1.40081e-06
2.63073e-06