/*--------------------------------*- C++ -*----------------------------------*\
| =========                 |                                                 |
| \\      /  F ield         | OpenFOAM: The Open Source CFD Toolbox           |
|  \\    /   O peration     | Version:  2112                                  |
|   \\  /    A nd           | Website:  www.openfoam.com                      |
|    \\/     M anipulation  |                                                 |
\*---------------------------------------------------------------------------*/
FoamFile
{
    version     2.0;
    format      ascii;
    arch        "LSB;label=32;scalar=64";
    class       volVectorField;
    location    "0.12";
    object      U;
}
// * * * * * * * * * * * * * * * * * * * * * * * * * * * * * * * * * * * * * //

dimensions      [0 1 -1 0 0 0 0];

internalField   nonuniform List<vector> 
12225
(
(10.0192 0.0556688 0)
(9.5283 0.0942092 0)
(9.19925 0.0891494 0)
(8.89058 0.0965962 0)
(8.57426 0.0857544 0)
(8.30723 0.0610201 0)
(8.10051 0.0470641 0)
(7.90316 0.0468989 0)
(7.71544 0.0452611 0)
(7.52156 0.0378766 0)
(7.38157 0.0233742 0)
(7.23782 0.0178785 0)
(7.16755 0.00962309 0)
(7.03798 0.0197808 0)
(7.03859 0.0100668 0)
(6.85868 0.031917 0)
(7.01861 -0.0311892 0)
(6.77556 0.0509015 0)
(10.0055 0.130989 0)
(10.1911 0.0847496 0)
(10.2127 0.0515722 0)
(10.1734 0.0434698 0)
(10.154 0.0532983 0)
(10.131 0.0558064 0)
(10.1041 0.0546102 0)
(10.09 0.0541889 0)
(10.1057 0.0580841 0)
(10.1349 0.0583246 0)
(10.1755 0.0587473 0)
(10.1992 0.0534605 0)
(10.2251 0.0530126 0)
(10.2274 0.0376088 0)
(10.2525 0.0371002 0)
(10.2568 0.00915904 0)
(10.3214 -0.0146202 0)
(10.3308 -0.0612331 0)
(9.76777 -0.01025 0)
(9.86604 0.0611604 0)
(9.89545 0.0978068 0)
(9.96848 0.0976716 0)
(10.0648 0.0899649 0)
(10.1279 0.0741608 0)
(10.1415 0.0604265 0)
(10.128 0.0505333 0)
(10.1177 0.0378377 0)
(10.1257 0.0224517 0)
(10.154 0.0078717 0)
(10.1969 0.00118664 0)
(10.2516 -0.00100236 0)
(10.3119 0.0012412 0)
(10.3752 -0.00229886 0)
(10.4434 -0.0120146 0)
(10.5134 -0.0472876 0)
(10.5826 -0.0615584 0)
(9.94321 0.0480601 0)
(9.83112 0.0528608 0)
(9.88764 0.0357378 0)
(9.99751 0.0136425 0)
(10.0671 0.0205556 0)
(10.0785 0.0370394 0)
(10.0659 0.0514674 0)
(10.0619 0.0572786 0)
(10.08 0.0532204 0)
(10.117 0.0418895 0)
(10.1625 0.0281319 0)
(10.2114 0.0156011 0)
(10.2635 0.00600286 0)
(10.3203 -0.00685461 0)
(10.3817 -0.0227903 0)
(10.4522 -0.0468139 0)
(10.525 -0.0823555 0)
(10.6024 -0.11432 0)
(10.1759 -0.0208674 0)
(10.082 0.0507889 0)
(9.96932 0.0360334 0)
(9.9706 0.0294588 0)
(10.0212 0.0544799 0)
(10.0448 0.0697559 0)
(10.0569 0.0673827 0)
(10.0943 0.0504261 0)
(10.1596 0.0239118 0)
(10.2256 -0.00354871 0)
(10.2646 -0.025446 0)
(10.2721 -0.0376404 0)
(10.2655 -0.0436501 0)
(10.2671 -0.0490792 0)
(10.291 -0.0593335 0)
(10.3427 -0.0777403 0)
(10.4152 -0.108401 0)
(10.5046 -0.138976 0)
(10.2114 0.0461141 0)
(9.94057 0.151646 0)
(9.84633 0.0970157 0)
(9.90221 0.0208223 0)
(9.97888 0.0123816 0)
(9.99876 0.0297874 0)
(9.97277 0.0299568 0)
(9.9407 0.0137267 0)
(9.93379 0.000438214 0)
(9.95591 0.00178529 0)
(9.99479 0.0111191 0)
(10.0416 0.016454 0)
(10.0962 0.00781179 0)
(10.1611 -0.0188388 0)
(10.2354 -0.0605105 0)
(10.3184 -0.109714 0)
(10.405 -0.16364 0)
(10.4957 -0.212852 0)
(9.60998 0.0806645 0)
(9.66992 0.101214 0)
(9.79519 0.0032195 0)
(9.90055 -0.0262901 0)
(9.96525 0.0124984 0)
(9.98319 0.0696801 0)
(9.95728 0.0952736 0)
(9.92031 0.073963 0)
(9.91205 0.0234288 0)
(9.94544 -0.0273398 0)
(10.0082 -0.0635845 0)
(10.0841 -0.0866373 0)
(10.1588 -0.102842 0)
(10.2253 -0.118644 0)
(10.2834 -0.138924 0)
(10.3379 -0.164655 0)
(10.3968 -0.199623 0)
(10.4633 -0.240303 0)
(9.75309 0.0792506 0)
(10.0371 0.107865 0)
(10.0465 0.040462 0)
(9.98521 -0.0135425 0)
(9.92344 -0.00400202 0)
(9.91504 0.0303959 0)
(9.97679 0.0416727 0)
(10.074 0.0184863 0)
(10.1668 -0.0158101 0)
(10.2343 -0.0425171 0)
(10.2716 -0.0515118 0)
(10.2869 -0.0519659 0)
(10.2949 -0.057395 0)
(10.3087 -0.0785828 0)
(10.3382 -0.117718 0)
(10.386 -0.171273 0)
(10.4528 -0.234877 0)
(10.5309 -0.301549 0)
(9.98255 -0.097352 0)
(9.93189 -0.0144773 0)
(9.94345 0.0013507 0)
(10.0093 0.0112188 0)
(10.0787 0.0348068 0)
(10.1446 0.05118 0)
(10.2006 0.0374885 0)
(10.2245 -0.00122373 0)
(10.2066 -0.0426196 0)
(10.1653 -0.0726945 0)
(10.1311 -0.0901657 0)
(10.1239 -0.10236 0)
(10.148 -0.118386 0)
(10.1992 -0.145343 0)
(10.2651 -0.18426 0)
(10.3418 -0.232473 0)
(10.4164 -0.287714 0)
(10.4955 -0.344463 0)
(10.1177 0.108876 0)
(10.1344 0.109731 0)
(10.0479 0.00905337 0)
(9.99338 -0.0535704 0)
(10.0104 -0.0534008 0)
(10.0905 -0.0270406 0)
(10.1849 -0.000789689 0)
(10.2435 0.0131636 0)
(10.2563 0.0106959 0)
(10.2394 -0.00286148 0)
(10.2135 -0.0260016 0)
(10.1967 -0.0579012 0)
(10.1957 -0.0986942 0)
(10.2086 -0.149082 0)
(10.2257 -0.208671 0)
(10.2462 -0.273416 0)
(10.2625 -0.341682 0)
(10.2827 -0.409177 0)
(9.85529 -0.0675531 0)
(9.98011 0.0135288 0)
(10.0399 0.0464034 0)
(10.0382 0.0169425 0)
(10.0018 -0.01167 0)
(9.97155 -0.0260315 0)
(9.96264 -0.0317894 0)
(9.97265 -0.0353402 0)
(10.0035 -0.0410031 0)
(10.0584 -0.0531375 0)
(10.1342 -0.0726068 0)
(10.2206 -0.0984726 0)
(10.3023 -0.129725 0)
(10.3653 -0.16597 0)
(10.3989 -0.208685 0)
(10.4028 -0.257678 0)
(10.3847 -0.313209 0)
(10.3516 -0.376117 0)
(9.93482 0.135464 0)
(9.96203 0.0123542 0)
(10.0347 -0.014483 0)
(10.0687 -0.017641 0)
(10.0468 -0.0155434 0)
(10.0187 -0.00865387 0)
(10.0201 -0.00422185 0)
(10.054 -0.0116156 0)
(10.1138 -0.0353202 0)
(10.1884 -0.0728681 0)
(10.263 -0.115504 0)
(10.3276 -0.153766 0)
(10.3766 -0.183145 0)
(10.4066 -0.20574 0)
(10.4189 -0.22807 0)
(10.4149 -0.258023 0)
(10.4023 -0.299009 0)
(10.3802 -0.355907 0)
(10.004 0.0184375 0)
(10.0621 -0.0318063 0)
(10.0762 -0.0196173 0)
(10.0826 0.0112789 0)
(10.0873 0.0117793 0)
(10.1127 -0.0119964 0)
(10.1589 -0.0485922 0)
(10.1983 -0.0883923 0)
(10.2115 -0.122781 0)
(10.2 -0.14719 0)
(10.1793 -0.16333 0)
(10.1675 -0.175401 0)
(10.1746 -0.186419 0)
(10.1988 -0.200354 0)
(10.2331 -0.220356 0)
(10.2665 -0.25079 0)
(10.294 -0.29132 0)
(10.3089 -0.343018 0)
(9.83859 0.130403 0)
(9.7815 0.0197418 0)
(9.77104 -0.0195661 0)
(9.84802 -0.0230492 0)
(9.98722 -0.0414694 0)
(10.1313 -0.0566955 0)
(10.2253 -0.0491506 0)
(10.2413 -0.0244075 0)
(10.1985 -0.00801811 0)
(10.1387 -0.0231381 0)
(10.0973 -0.0717575 0)
(10.0883 -0.138091 0)
(10.1088 -0.201725 0)
(10.1449 -0.251632 0)
(10.1855 -0.286581 0)
(10.2194 -0.314307 0)
(10.245 -0.341857 0)
(10.2576 -0.377821 0)
(9.80036 0.0517283 0)
(9.84215 -0.0605284 0)
(9.87862 -0.0851619 0)
(9.91245 -0.121988 0)
(9.93646 -0.163744 0)
(9.98036 -0.165571 0)
(10.0458 -0.127954 0)
(10.116 -0.0843771 0)
(10.1816 -0.0708499 0)
(10.2371 -0.0983916 0)
(10.2744 -0.150818 0)
(10.2894 -0.204816 0)
(10.2864 -0.24462 0)
(10.275 -0.268852 0)
(10.2637 -0.283634 0)
(10.2578 -0.29897 0)
(10.2567 -0.320653 0)
(10.2588 -0.352236 0)
(10.1746 -0.0108954 0)
(10.0895 -0.0585497 0)
(10.1082 -0.0376339 0)
(10.1272 -0.057526 0)
(10.0922 -0.0985169 0)
(10.0202 -0.137238 0)
(9.96204 -0.154361 0)
(9.94617 -0.141159 0)
(9.96455 -0.111358 0)
(9.99542 -0.090503 0)
(10.0225 -0.0938723 0)
(10.0421 -0.121855 0)
(10.0583 -0.165955 0)
(10.0755 -0.216997 0)
(10.0919 -0.267449 0)
(10.1041 -0.313861 0)
(10.1057 -0.353415 0)
(10.0959 -0.386846 0)
(9.90741 0.100977 0)
(9.90022 0.0151489 0)
(9.93651 -0.113125 0)
(9.92643 -0.110393 0)
(9.8986 -0.0466027 0)
(9.8708 -0.0118328 0)
(9.84597 -0.0308703 0)
(9.82664 -0.0806574 0)
(9.82204 -0.137055 0)
(9.83495 -0.191723 0)
(9.86141 -0.244459 0)
(9.8961 -0.291573 0)
(9.9329 -0.324943 0)
(9.96473 -0.338821 0)
(9.98688 -0.333333 0)
(9.99724 -0.316524 0)
(9.99731 -0.297264 0)
(9.98924 -0.287022 0)
(9.91648 -0.13505 0)
(9.95354 -0.117858 0)
(9.97682 -0.0584082 0)
(9.98032 -0.0509297 0)
(10.0179 -0.0792435 0)
(10.0811 -0.113761 0)
(10.133 -0.128773 0)
(10.1527 -0.121174 0)
(10.1412 -0.109092 0)
(10.1079 -0.113484 0)
(10.0636 -0.14212 0)
(10.0192 -0.188312 0)
(9.98344 -0.238114 0)
(9.96034 -0.280865 0)
(9.94888 -0.312755 0)
(9.9451 -0.335402 0)
(9.94395 -0.352046 0)
(9.94131 -0.365109 0)
(10.397 -0.0610874 0)
(10.3496 -0.0557393 0)
(10.3261 -0.0892905 0)
(10.2649 -0.124978 0)
(10.2139 -0.14392 0)
(10.1711 -0.138123 0)
(10.1251 -0.111523 0)
(10.0827 -0.0796285 0)
(10.0569 -0.0601164 0)
(10.0486 -0.0667788 0)
(10.0495 -0.104654 0)
(10.0507 -0.16576 0)
(10.0457 -0.232002 0)
(10.0313 -0.283215 0)
(10.0062 -0.305764 0)
(9.97345 -0.300333 0)
(9.93588 -0.274234 0)
(9.89821 -0.245826 0)
(10.018 0.0333618 0)
(10.052 0.0867783 0)
(10.0659 0.0524105 0)
(10.04 0.0311858 0)
(10.0421 0.01481 0)
(10.0793 0.00203517 0)
(10.1182 -0.00696106 0)
(10.1427 -0.0212692 0)
(10.1563 -0.0498587 0)
(10.1598 -0.0928134 0)
(10.1488 -0.139527 0)
(10.1198 -0.175787 0)
(10.0747 -0.19306 0)
(10.0187 -0.191854 0)
(9.96034 -0.181038 0)
(9.90661 -0.171061 0)
(9.86386 -0.168119 0)
(9.83363 -0.176985 0)
(9.89746 -0.0426388 0)
(9.89838 -0.00544649 0)
(9.92072 -0.0267228 0)
(9.92214 -0.0748015 0)
(9.94192 -0.136211 0)
(9.99528 -0.172416 0)
(10.0489 -0.163586 0)
(10.0847 -0.122907 0)
(10.1029 -0.0797002 0)
(10.1013 -0.0542947 0)
(10.0765 -0.0487339 0)
(10.0349 -0.0543607 0)
(9.99089 -0.0631408 0)
(9.95795 -0.0722145 0)
(9.94212 -0.0817899 0)
(9.93987 -0.0938756 0)
(9.94661 -0.109818 0)
(9.95423 -0.128882 0)
(10.2157 0.00747626 0)
(10.1474 0.0136197 0)
(10.1287 0.0253659 0)
(10.1319 -0.0171004 0)
(10.1158 -0.0815158 0)
(10.0843 -0.117942 0)
(10.043 -0.120358 0)
(9.9914 -0.102751 0)
(9.93612 -0.0782438 0)
(9.88739 -0.0556325 0)
(9.85298 -0.042909 0)
(9.83879 -0.0474227 0)
(9.84655 -0.0700318 0)
(9.87021 -0.104162 0)
(9.89967 -0.139871 0)
(9.92505 -0.16872 0)
(9.93866 -0.186787 0)
(9.93769 -0.194235 0)
(9.97771 0.0732744 0)
(9.97357 0.0225547 0)
(10.0438 -0.000867071 0)
(10.076 -0.057273 0)
(10.0396 -0.101629 0)
(9.98707 -0.10544 0)
(9.95413 -0.0697681 0)
(9.94566 -0.0157029 0)
(9.9603 0.0273506 0)
(9.99186 0.0382782 0)
(10.0271 0.0106524 0)
(10.0515 -0.0436224 0)
(10.058 -0.102622 0)
(10.0483 -0.146232 0)
(10.0243 -0.163207 0)
(9.99197 -0.156713 0)
(9.95713 -0.135914 0)
(9.92476 -0.115793 0)
(10.0756 0.105554 0)
(10.1032 -0.0408216 0)
(10.1136 -0.0402385 0)
(10.0665 -0.0125371 0)
(9.95762 -0.0114415 0)
(9.83005 -0.0341948 0)
(9.74438 -0.0680471 0)
(9.742 -0.0967517 0)
(9.81189 -0.110895 0)
(9.91517 -0.108816 0)
(10.0074 -0.0952405 0)
(10.056 -0.0787803 0)
(10.0546 -0.068081 0)
(10.0161 -0.066777 0)
(9.9622 -0.0739445 0)
(9.91318 -0.0855943 0)
(9.88142 -0.0976731 0)
(9.86745 -0.10698 0)
(9.95091 -0.0740464 0)
(9.92592 -0.0192167 0)
(9.92691 0.0206174 0)
(9.97997 0.0451266 0)
(10.0404 0.0599359 0)
(10.0942 0.042158 0)
(10.1304 -0.0127742 0)
(10.1268 -0.0784853 0)
(10.0826 -0.123768 0)
(10.0202 -0.136211 0)
(9.96261 -0.121149 0)
(9.92586 -0.0926055 0)
(9.9142 -0.0658095 0)
(9.92414 -0.0514159 0)
(9.95204 -0.0520566 0)
(9.98747 -0.0642639 0)
(10.0236 -0.0801334 0)
(10.0507 -0.0922189 0)
(9.95611 0.000142765 0)
(9.91773 -0.0383894 0)
(9.9596 -0.0466652 0)
(9.99791 -0.058247 0)
(10.0139 -0.0662983 0)
(10.0117 -0.0735291 0)
(10.0094 -0.0735544 0)
(10.0187 -0.0628135 0)
(10.0394 -0.0453095 0)
(10.065 -0.0312832 0)
(10.0859 -0.028671 0)
(10.0935 -0.0393112 0)
(10.087 -0.0607752 0)
(10.0708 -0.0904801 0)
(10.0496 -0.121575 0)
(10.0288 -0.145958 0)
(10.0119 -0.157342 0)
(10.0004 -0.150999 0)
(9.95799 -0.00427323 0)
(9.9736 -0.0322456 0)
(9.96175 -0.0261467 0)
(9.97674 0.00786821 0)
(10.0313 0.0353182 0)
(10.0752 0.0200018 0)
(10.0698 -0.0328973 0)
(10.02 -0.0945438 0)
(9.96046 -0.137391 0)
(9.92998 -0.147482 0)
(9.94795 -0.127267 0)
(10.0083 -0.0907819 0)
(10.0886 -0.0559629 0)
(10.1609 -0.0360668 0)
(10.2001 -0.0346405 0)
(10.1964 -0.0472649 0)
(10.1539 -0.0649399 0)
(10.0905 -0.0783326 0)
(10.0477 0.0226311 0)
(9.96864 -0.00820767 0)
(10.0213 -0.0450347 0)
(10.0778 -0.0834443 0)
(10.0975 -0.0933306 0)
(10.1035 -0.0723571 0)
(10.1256 -0.0369924 0)
(10.1553 -0.010477 0)
(10.1661 -0.0111823 0)
(10.1485 -0.0410553 0)
(10.1147 -0.0856589 0)
(10.083 -0.125492 0)
(10.0655 -0.146679 0)
(10.0633 -0.145348 0)
(10.0717 -0.125973 0)
(10.0839 -0.0981842 0)
(10.0959 -0.0712824 0)
(10.1059 -0.0523638 0)
(9.91148 0.0421376 0)
(10.032 -0.0146573 0)
(10.0747 -0.0585015 0)
(10.0907 -0.023329 0)
(10.125 0.00483169 0)
(10.1653 -0.0150413 0)
(10.2099 -0.0629894 0)
(10.2457 -0.102678 0)
(10.25 -0.116083 0)
(10.2153 -0.106812 0)
(10.15 -0.0883732 0)
(10.0669 -0.0723963 0)
(9.97693 -0.0639066 0)
(9.88929 -0.0628352 0)
(9.81319 -0.0661181 0)
(9.75778 -0.0711711 0)
(9.72498 -0.0767308 0)
(9.71828 -0.0800482 0)
(9.84607 -0.0524948 0)
(9.856 -0.0377696 0)
(9.68147 -0.0688236 0)
(9.44778 -0.0957834 0)
(9.27188 -0.100222 0)
(9.10579 -0.0863502 0)
(8.91694 -0.0609171 0)
(8.72186 -0.0330194 0)
(8.54386 -0.0147863 0)
(8.39024 -0.0139675 0)
(8.25208 -0.0265548 0)
(8.11823 -0.0409046 0)
(7.98521 -0.0481117 0)
(7.85723 -0.047529 0)
(7.73464 -0.0447316 0)
(7.61647 -0.0454075 0)
(7.49383 -0.0522535 0)
(7.36577 -0.0612626 0)
(0.0511093 -0.188527 -5.22125e-21)
(0.103496 -0.139034 5.1795e-21)
(0.121937 -0.0622611 0)
(0.112815 0.00206673 0)
(0.0814759 0.0540398 0)
(0.0351605 0.0796812 -5.04647e-21)
(-0.0136395 0.0851543 0)
(-0.0609756 0.0820759 0)
(-0.105634 0.0760485 0)
(-0.148389 0.0694114 0)
(-0.189491 0.063096 4.94535e-21)
(-0.229268 0.0575721 0)
(-0.267987 0.0532829 0)
(-0.30612 0.0500339 0)
(-0.343658 0.0475709 0)
(-0.380537 0.0451669 4.86253e-21)
(-0.415742 0.0416135 0)
(-0.447034 0.0358673 0)
(-0.471045 0.0264319 0)
(-0.482568 0.0112619 0)
(-0.47575 -0.011809 0)
(-0.442803 -0.0445984 0)
(-0.37247 -0.0915462 0)
(-0.243787 -0.159156 4.59755e-21)
(-0.0497586 -0.226589 -4.53835e-21)
(0.226136 -0.274365 4.47724e-21)
(0.546473 -0.272134 4.42118e-21)
(0.857404 -0.312826 0)
(1.2183 -0.206103 0)
(1.38496 0.172018 -4.35775e-21)
(1.29581 0.351579 -4.34035e-21)
(1.05901 0.0981074 0)
(1.07238 -0.240705 0)
(1.13354 -0.118141 -4.35016e-21)
(1.33577 0.0701887 0)
(1.52049 -0.0220153 0)
(1.78175 -0.0268017 4.39292e-21)
(2.06285 -0.0353195 0)
(2.1229 -0.490112 4.31561e-21)
(2.09284 -0.892284 8.57795e-21)
(2.06443 -0.646935 0)
(1.71851 0.0694816 0)
(0.958088 0.556089 0)
(0.0988861 0.722958 0)
(-0.776099 0.787105 0)
(-1.58283 0.711194 8.66175e-21)
(-2.2697 0.573745 8.96877e-21)
(-2.84846 0.459614 9.34135e-21)
(-3.35639 0.381672 0)
(-3.81328 0.331646 -1.01715e-20)
(-4.23839 0.301884 0)
(-4.64222 0.285633 1.10276e-20)
(-5.03441 0.277289 1.14507e-20)
(-5.4201 0.273339 0)
(-5.80458 0.272345 0)
(-6.19166 0.274471 0)
(-6.5861 0.280351 1.30698e-20)
(-6.9923 0.290122 0)
(-7.41449 0.302924 0)
(-7.85536 0.317281 0)
(-8.31602 0.331571 0)
(-8.79551 0.344208 0)
(-9.29095 0.353567 0)
(-9.79712 0.357992 0)
(-10.3065 0.355782 0)
(-10.809 0.345105 -1.62339e-20)
(-11.2921 0.324217 0)
(-11.7403 0.292106 0)
(-12.1365 0.248905 1.67254e-20)
(-12.4631 0.195837 1.6692e-20)
(-12.7055 0.135409 0)
(-12.8526 0.0719452 -1.62136e-20)
(-12.8964 0.0105482 1.57532e-20)
(-12.8347 -0.0455269 0)
(-12.6872 -0.096779 -1.44172e-20)
(-12.4518 -0.14397 0)
(-12.139 -0.185068 0)
(-11.7583 -0.221538 1.17017e-20)
(-11.3155 -0.25279 0)
(-10.8198 -0.279491 -9.69733e-21)
(-10.2768 -0.302152 0)
(-9.69382 -0.320784 7.72216e-21)
(-9.07693 -0.335721 6.78432e-21)
(-8.43284 -0.346765 5.89728e-21)
(-7.76862 -0.353845 1.01443e-20)
(-7.09164 -0.356827 -8.63571e-21)
(-6.40945 -0.355767 0)
(-5.72931 -0.350863 0)
(-5.05824 -0.34231 0)
(-4.40251 -0.330233 -4.16652e-21)
(-3.76728 -0.314674 -3.42852e-21)
(-3.15664 -0.29557 2.82164e-21)
(-2.57398 -0.272789 0)
(-2.02226 -0.246353 -1.94005e-21)
(-1.50434 -0.216238 -1.63279e-21)
(-1.02325 -0.183352 -1.39381e-21)
(-0.58141 -0.152098 0)
(-0.177869 -0.130754 0)
(0.193522 -0.126703 0)
(0.544879 -0.128982 -8.91548e-22)
(0.888002 -0.137647 0)
(1.22132 -0.150111 0)
(1.53578 -0.168441 8.25603e-22)
(1.82066 -0.197868 0)
(2.07806 -0.221435 0)
(2.31947 -0.185842 9.48119e-22)
(2.53527 -0.0499969 0)
(2.69568 0.121831 0)
(2.7954 0.167168 -1.04927e-21)
(2.82514 0.00613499 -1.07125e-21)
(2.75161 -0.188803 0)
(2.60036 -0.153776 1.15258e-21)
(2.47062 0.0688076 0)
(2.43643 0.232552 -1.30044e-21)
(2.45837 0.2403 0)
(2.41949 0.146847 -1.1926e-21)
(2.3192 0.0278605 -1.13628e-21)
(2.30147 -0.0952349 0)
(2.52688 -0.1989 0)
(2.99265 -0.18601 0)
(3.47721 -0.0519026 0)
(3.62026 0.0896388 0)
(3.164 0.2221 0)
(2.21693 0.348676 0)
(1.21944 0.375042 -1.36257e-21)
(0.425582 0.299004 1.98124e-21)
(-0.180292 0.21879 0)
(-0.674117 0.175701 0)
(-1.13216 0.167101 0)
(-1.62041 0.18426 0)
(-2.18134 0.216387 1.12433e-20)
(-2.83289 0.251314 0)
(-3.57499 0.281055 -1.50924e-20)
(-4.39357 0.302957 1.73309e-20)
(-5.26488 0.314667 0)
(-6.15556 0.312485 0)
(-7.0202 0.292838 0)
(-7.804 0.254281 -2.65798e-20)
(-8.45075 0.198288 -2.7987e-20)
(-8.91209 0.128391 0)
(-9.15009 0.0508969 -2.80905e-20)
(-9.13844 -0.0261337 -2.65427e-20)
(-8.89067 -0.100176 2.39389e-20)
(-8.40601 -0.169835 0)
(-7.71049 -0.22891 0)
(-6.84331 -0.273043 1.2099e-20)
(-5.85908 -0.299168 0)
(-4.8143 -0.308371 0)
(-3.75542 -0.304368 0)
(-2.71242 -0.291427 0)
(-1.70448 -0.274501 3.01314e-21)
(-0.741552 -0.256331 4.34797e-21)
(0.159248 -0.238473 0)
(1.00053 -0.220513 5.7449e-21)
(1.79386 -0.202072 0)
(2.5309 -0.18508 0)
(3.21188 -0.16964 5.57035e-21)
(3.84055 -0.148328 0)
(4.40196 -0.123231 4.56799e-21)
(4.88618 -0.113462 0)
(5.33143 -0.102538 0)
(5.72313 -0.0699099 2.72475e-21)
(6.0278 -0.0717613 0)
(6.35735 -0.0834011 1.68696e-21)
(6.68038 -0.0414891 0)
(6.90683 -0.073825 0)
(7.28005 -0.104334 0)
(7.63722 -0.0107888 -4.11686e-22)
(7.78084 -0.0897111 0)
(8.25978 -0.106901 -2.89371e-24)
(8.48602 0.108622 0)
(8.18995 -0.0521134 0)
(8.68592 0.0163347 0)
(8.1913 0.657632 0)
(5.56622 0.592272 0)
(3.61058 0.06556 0)
(2.89374 -0.104079 0)
(2.69461 -0.0581511 -2.6117e-22)
(2.59665 0.0340298 0)
(2.10985 0.121327 0)
(-0.00187858 -0.129964 1.56549e-20)
(-0.0597779 -0.0167162 -1.55374e-20)
(-0.088627 0.05013 0)
(-0.106759 0.0873481 1.01976e-20)
(-0.101999 0.108068 0)
(-0.0813325 0.110694 5.0512e-21)
(-0.0529867 0.105866 -1.00211e-20)
(-0.0250229 0.100298 -9.98026e-21)
(-0.00248251 0.0968221 0)
(0.0108288 0.0955091 -9.92014e-21)
(0.0130121 0.0957636 -4.95046e-21)
(0.0042607 0.0962464 0)
(-0.0150519 0.0968042 0)
(-0.043634 0.0967789 0)
(-0.0803831 0.0952444 0)
(-0.124224 0.0911175 -4.86992e-21)
(-0.172849 0.0821491 0)
(-0.224791 0.0656779 9.69487e-21)
(-0.277185 0.0392405 0)
(-0.325826 -0.000807361 0)
(-0.364993 -0.0594787 -9.54226e-21)
(-0.387595 -0.145773 0)
(-0.387538 -0.269384 9.38992e-21)
(-0.347228 -0.433732 -4.5937e-21)
(-0.267973 -0.610456 4.53307e-21)
(-0.116606 -0.796452 -4.4748e-21)
(0.137646 -0.864327 -4.4221e-21)
(0.424979 -0.895174 0)
(0.737103 -0.64321 0)
(1.03418 -0.263589 4.35979e-21)
(1.26188 0.0579666 -4.3049e-21)
(1.62065 0.267107 0)
(1.6755 0.211552 0)
(1.65066 -0.449374 4.34167e-21)
(2.06144 -0.629943 0)
(2.45114 -0.757297 0)
(2.22434 -1.02562 -4.39122e-21)
(1.89583 -0.47656 0)
(1.26205 0.453858 4.43038e-21)
(0.179584 0.980435 -8.62566e-21)
(-0.766177 1.29558 0)
(-1.56811 1.60339 0)
(-2.31312 1.7742 -1.73749e-20)
(-2.93481 1.77035 -1.74039e-20)
(-3.47392 1.6358 -1.76121e-20)
(-3.95203 1.4373 9.40816e-21)
(-4.4028 1.25029 -8.9167e-21)
(-4.83406 1.10357 -2.85332e-20)
(-5.25348 0.995301 1.99773e-20)
(-5.65793 0.917283 1.01233e-20)
(-6.05098 0.862248 0)
(-6.43168 0.824554 -1.09786e-20)
(-6.80355 0.800163 1.17716e-20)
(-7.16819 0.786653 0)
(-7.52915 0.782258 0)
(-7.88872 0.785968 0)
(-8.24964 0.796726 -1.30178e-20)
(-8.61379 0.81332 0)
(-8.98302 0.833897 2.78727e-20)
(-9.35833 0.856051 0)
(-9.74002 0.876899 2.93928e-20)
(-10.1273 0.893341 0)
(-10.5182 0.902094 -3.08991e-20)
(-10.9092 0.899698 0)
(-11.2954 0.882445 3.2327e-20)
(-11.6704 0.846481 -1.67668e-20)
(-12.0255 0.788202 0)
(-12.3493 0.70504 -3.39066e-20)
(-12.6286 0.596208 -1.67024e-20)
(-12.8505 0.462982 -1.66744e-20)
(-13.003 0.309245 0)
(-13.0773 0.14292 -1.68999e-20)
(-13.0697 -0.0250655 -1.57482e-20)
(-12.9797 -0.18721 0)
(-12.7942 -0.339198 1.44099e-20)
(-12.5277 -0.476797 -2.76004e-20)
(-12.1864 -0.597648 0)
(-11.7791 -0.702091 -1.16933e-20)
(-11.316 -0.791083 0)
(-10.8026 -0.866322 2.9386e-20)
(-10.2467 -0.92912 0)
(-9.65357 -0.980293 -2.3439e-20)
(-9.02929 -1.02028 -6.77808e-21)
(-8.37981 -1.04884 6.16033e-21)
(-7.7117 -1.06552 1.06434e-20)
(-7.03219 -1.0701 -9.10664e-21)
(-6.34848 -1.06301 0)
(-5.66766 -1.04524 0)
(-4.99634 -1.01801 0)
(-4.34049 -0.98261 1.2855e-20)
(-3.70498 -0.940667 3.42568e-21)
(-3.09373 -0.89402 -2.81944e-21)
(-2.50996 -0.84409 0)
(-1.95519 -0.792446 -2.20338e-21)
(-1.4286 -0.740455 1.63182e-21)
(-0.927524 -0.687779 1.3931e-21)
(-0.446846 -0.633639 0)
(0.00972087 -0.582517 0)
(0.434753 -0.540815 0)
(0.83443 -0.506204 8.90739e-22)
(1.21766 -0.479011 0)
(1.59463 -0.444915 -1.75141e-21)
(1.96133 -0.382945 -2.56825e-21)
(2.28337 -0.294867 1.78842e-21)
(2.5089 -0.220998 0)
(2.62348 -0.208767 1.01577e-21)
(2.69474 -0.265805 0)
(2.83043 -0.336464 2.111e-21)
(3.10312 -0.291814 -1.10764e-21)
(3.47305 0.00135644 -1.13472e-21)
(3.68363 0.380011 0)
(3.4907 0.431514 -3.4942e-21)
(3.04934 0.107265 2.54505e-21)
(2.73162 -0.212644 1.29973e-21)
(2.74697 -0.260506 0)
(3.02567 -0.0636044 1.19155e-21)
(3.26823 0.0945994 3.39329e-21)
(3.34396 -0.0466703 0)
(3.39319 -0.405173 1.93723e-21)
(3.56561 -0.609391 1.72501e-21)
(3.81535 -0.386699 1.75267e-21)
(3.72483 0.190273 0)
(2.81955 0.820935 0)
(1.48025 1.13588 0)
(0.418255 1.02866 -1.71076e-21)
(-0.323311 0.781703 -1.9799e-21)
(-0.897174 0.606592 0)
(-1.40446 0.526902 -6.8301e-21)
(-1.91368 0.524159 -8.18356e-21)
(-2.45941 0.572867 0)
(-3.0607 0.647889 -1.12243e-20)
(-3.72486 0.727057 -2.63343e-20)
(-4.44783 0.79509 1.50655e-20)
(-5.21681 0.843337 1.78587e-20)
(-6.01195 0.864228 0)
(-6.80544 0.849017 0)
(-7.56071 0.789437 0)
(-8.234 0.681129 2.65503e-20)
(-8.77999 0.526175 -2.94083e-20)
(-9.15937 0.332468 -5.85408e-20)
(-9.3456 0.113896 2.80834e-20)
(-9.32125 -0.11336 -2.78964e-20)
(-9.05062 -0.339025 -2.39271e-20)
(-8.5421 -0.551049 0)
(-7.8133 -0.732848 0)
(-6.90858 -0.868445 1.28236e-20)
(-5.8856 -0.948698 0)
(-4.80486 -0.976766 0)
(-3.7146 -0.964695 -2.89338e-21)
(-2.64537 -0.92598 0)
(-1.61538 -0.875006 2.70159e-21)
(-0.632441 -0.820334 -4.34473e-21)
(0.287443 -0.768175 0)
(1.14805 -0.715865 5.49499e-21)
(1.96282 -0.662889 0)
(2.72586 -0.608283 0)
(3.43103 -0.555791 -5.56615e-21)
(4.07543 -0.503859 1.00729e-20)
(4.667 -0.443124 -4.56492e-21)
(5.19695 -0.384616 0)
(5.64773 -0.342305 0)
(6.04832 -0.295566 2.58948e-21)
(6.42569 -0.257251 0)
(6.74045 -0.257577 1.56525e-21)
(7.0441 -0.241454 0)
(7.40621 -0.227992 0)
(7.69037 -0.275019 0)
(8.02093 -0.244174 4.1144e-22)
(8.4583 -0.203305 0)
(8.64787 -0.265183 2.89196e-24)
(9.00158 -0.097496 0)
(9.29476 0.048863 0)
(9.13775 -0.00183609 -2.98654e-22)
(9.33341 0.593379 -7.6646e-22)
(9.34052 1.40972 0)
(8.13856 1.27381 0)
(6.09059 0.561541 0)
(4.68018 0.180009 8.7444e-22)
(3.93244 0.209724 0)
(3.06576 0.447149 5.0182e-22)
(0.0208671 -0.0622859 -8.2035e-24)
(0.010913 0.036636 2.07011e-20)
(0.0362959 0.0484216 0)
(0.0911173 0.0190659 -2.03601e-20)
(0.203584 -0.00928786 0)
(0.341299 -0.0285079 0)
(0.488957 -0.0299865 4.36585e-23)
(0.631878 -0.0148701 9.96048e-21)
(0.756268 0.0122963 9.91046e-21)
(0.855556 0.0461409 9.8954e-21)
(0.924543 0.0823854 0)
(0.964341 0.1179 0)
(0.97567 0.150728 -9.86586e-21)
(0.959948 0.178096 -1.96943e-20)
(0.918991 0.199232 1.96481e-20)
(0.855225 0.213985 0)
(0.772588 0.22105 1.9533e-20)
(0.675966 0.219448 -9.68136e-21)
(0.56979 0.20513 0)
(0.461766 0.168745 1.9306e-20)
(0.347402 0.104674 9.54136e-21)
(0.228571 0.000857273 -1.90989e-20)
(0.105068 -0.153142 -9.3978e-21)
(-0.00452756 -0.376876 0)
(-0.0978333 -0.660838 1.85529e-20)
(-0.129854 -1.00043 1.82619e-20)
(-0.108723 -1.24868 0)
(0.071898 -1.39075 1.76769e-20)
(0.221292 -1.11399 0)
(0.538268 -0.705129 1.72786e-20)
(0.678336 -0.744727 8.65111e-21)
(0.892002 -0.411297 0)
(1.46086 -0.221727 0)
(1.6595 -1.02442 0)
(1.32029 -1.22151 0)
(0.737802 0.0679582 0)
(-0.260923 0.995313 0)
(-1.05583 1.47549 1.76428e-20)
(-1.70778 1.87376 -2.63353e-20)
(-2.32902 2.13025 0)
(-2.86264 2.3356 0)
(-3.31166 2.47301 0)
(-3.65542 2.48782 -6.22453e-22)
(-3.9211 2.38087 1.73573e-20)
(-4.15884 2.19964 3.60878e-20)
(-4.40909 1.99895 -3.6926e-20)
(-4.6932 1.81779 -1.94653e-20)
(-5.00492 1.66822 1.92186e-20)
(-5.33567 1.54812 7.73107e-22)
(-5.67189 1.45352 2.14425e-20)
(-6.00804 1.38026 0)
(-6.33977 1.32535 2.29515e-20)
(-6.66767 1.28541 5.64694e-22)
(-6.99231 1.25824 0)
(-7.31572 1.24233 0)
(-7.63948 1.23751 -2.60538e-20)
(-7.96574 1.24361 0)
(-8.29708 1.25976 0)
(-8.6368 1.28361 2.8851e-20)
(-8.98811 1.31168 5.82798e-20)
(-9.35337 1.3398 -2.93932e-20)
(-9.73378 1.36343 0)
(-10.129 1.37745 3.08988e-20)
(-10.5369 1.37611 0)
(-10.9527 1.35328 3.3872e-20)
(-11.3683 1.30246 3.29585e-20)
(-11.7717 1.21679 -6.88803e-20)
(-12.1463 1.09031 -3.59413e-20)
(-12.4717 0.919825 0)
(-12.7271 0.706636 7.03992e-20)
(-12.8929 0.457941 0)
(-12.9538 0.186771 1.01496e-19)
(-12.9063 -0.0921043 6.63102e-20)
(-12.7572 -0.36672 6.35708e-20)
(-12.515 -0.622796 -6.03042e-20)
(-12.192 -0.851234 8.42411e-20)
(-11.8024 -1.04934 0)
(-11.3586 -1.2171 0)
(-10.8701 -1.35867 -4.45146e-20)
(-10.3439 -1.47774 -6.00878e-20)
(-9.78494 -1.57697 0)
(-9.19786 -1.65824 1.57194e-20)
(-8.5868 -1.72206 0)
(-7.95649 -1.76782 -3.70072e-20)
(-7.3126 -1.79433 8.20272e-22)
(-6.6614 -1.80097 -7.73317e-22)
(-6.00929 -1.78827 1.57165e-20)
(-5.3621 -1.7577 0)
(-4.72493 -1.71108 -1.1116e-20)
(-4.10248 -1.65005 5.97316e-22)
(-3.49871 -1.5769 0)
(-2.91662 -1.49487 0)
(-2.35946 -1.40686 0)
(-1.82854 -1.31642 4.13958e-21)
(-1.32192 -1.22797 0)
(-0.837148 -1.14369 0)
(-0.369056 -1.06423 0)
(0.0843555 -0.990242 0)
(0.516273 -0.921469 0)
(0.917961 -0.870949 2.16062e-21)
(1.28714 -0.845755 0)
(1.64215 -0.827077 1.75036e-21)
(1.99981 -0.775957 1.7425e-21)
(2.34457 -0.66805 -1.78749e-21)
(2.63777 -0.518058 0)
(2.85921 -0.363285 -1.96232e-21)
(3.0282 -0.252351 0)
(3.16747 -0.24682 -2.10968e-21)
(3.28154 -0.363896 2.15504e-21)
(3.45117 -0.447524 6.81335e-21)
(3.8047 -0.230665 0)
(4.23796 0.275954 7.33076e-21)
(4.40052 0.667969 2.76846e-21)
(4.08596 0.512405 0)
(3.61757 -0.0171868 5.25117e-21)
(3.48279 -0.293675 4.88188e-21)
(3.67332 -0.190557 -6.73605e-21)
(3.85049 -0.149056 0)
(3.85462 -0.3961 -1.93604e-21)
(3.74627 -0.540951 -1.72455e-21)
(3.52268 -0.104965 -5.1217e-21)
(2.9239 0.85191 0)
(1.78793 1.74055 0)
(0.744714 1.9506 0)
(0.141293 1.5936 -4.31416e-21)
(-0.300334 1.2024 0)
(-0.708317 0.968987 0)
(-1.1415 0.880763 6.82856e-21)
(-1.62764 0.896681 8.18104e-21)
(-2.17774 0.977023 0)
(-2.79479 1.08947 0)
(-3.47853 1.20789 2.63187e-20)
(-4.2232 1.31123 0)
(-5.01848 1.38429 -3.51336e-20)
(-5.85257 1.41505 -4.13605e-20)
(-6.70646 1.39022 0)
(-7.54352 1.29558 0)
(-8.30845 1.1219 5.65684e-20)
(-8.93884 0.870385 -2.37501e-21)
(-9.37865 0.55311 -2.45757e-21)
(-9.58812 0.191918 0)
(-9.54635 -0.18939 1.1114e-19)
(-9.24643 -0.573123 0)
(-8.69548 -0.933413 0)
(-7.91916 -1.24286 0)
(-6.96506 -1.47134 -2.48837e-20)
(-5.89824 -1.60261 0)
(-4.7846 -1.64298 1.96408e-20)
(-3.67374 -1.6153 2.8903e-21)
(-2.59528 -1.54424 0)
(-1.56437 -1.45476 -5.70689e-21)
(-0.585874 -1.36091 0)
(0.328419 -1.27508 0)
(1.18384 -1.18624 -3.28469e-20)
(1.99109 -1.09909 2.25227e-20)
(2.74541 -1.0111 0)
(3.44754 -0.922424 2.12795e-20)
(4.09138 -0.831579 -1.00671e-20)
(4.67085 -0.734466 0)
(5.18906 -0.642025 0)
(5.64496 -0.561306 0)
(6.03184 -0.48336 -1.54883e-20)
(6.38117 -0.432635 0)
(6.71253 -0.413298 -3.25053e-21)
(6.99638 -0.390641 0)
(7.31403 -0.397835 0)
(7.67249 -0.428283 0)
(7.95002 -0.409025 0)
(8.35239 -0.381911 0)
(8.73589 -0.373439 0)
(8.86372 -0.235414 1.06274e-21)
(9.28686 -0.0349675 0)
(9.41288 0.0647756 2.98608e-22)
(9.077 0.455687 5.54436e-22)
(9.59463 1.27444 0)
(9.92206 1.76288 0)
(8.59663 1.48969 9.7561e-22)
(6.5502 0.885136 -6.12216e-22)
(5.22291 0.696696 9.41693e-22)
(4.11154 0.929329 -5.00951e-22)
(0.0258133 -0.189055 -3.12985e-20)
(0.0318117 -0.0529396 -3.10512e-20)
(0.102041 -0.0970148 -2.0485e-20)
(0.267623 -0.243494 -1.01064e-20)
(0.518326 -0.383267 0)
(0.801123 -0.462373 1.99439e-20)
(1.08514 -0.47155 -9.95534e-21)
(1.34931 -0.424623 0)
(1.58256 -0.340623 -9.87966e-21)
(1.78057 -0.235839 0)
(1.94222 -0.122009 1.99555e-20)
(2.06953 -0.00630722 0)
(2.15835 0.106262 9.83304e-21)
(2.21016 0.211255 1.96241e-20)
(2.22374 0.306836 -1.95739e-20)
(2.19859 0.387624 0)
(2.13326 0.445818 -1.94543e-20)
(2.02753 0.473894 0)
(1.8856 0.465445 0)
(1.71046 0.422357 -1.92325e-20)
(1.50906 0.362497 0)
(1.29188 0.287595 -9.00836e-23)
(1.06101 0.163748 0)
(0.832738 -0.0485975 0)
(0.599851 -0.343124 5.47741e-23)
(0.396173 -0.734855 -1.82617e-20)
(0.167229 -1.19002 -1.79517e-20)
(0.0909428 -1.46147 -1.76769e-20)
(0.0046489 -1.42634 0)
(0.316773 -1.00202 -3.42153e-20)
(0.18646 -0.556044 0)
(0.325027 -1.12378 -1.66567e-20)
(0.650595 -1.26826 0)
(0.137662 0.0788456 0)
(-0.772221 0.928978 1.6876e-20)
(-1.4011 1.45759 0)
(-1.96721 1.87516 -1.70448e-20)
(-2.44089 2.23847 -3.61476e-22)
(-2.85917 2.53805 3.49237e-20)
(-3.2056 2.7313 -3.52375e-20)
(-3.4777 2.82971 0)
(-3.69571 2.84113 0)
(-3.86632 2.76972 -1.90542e-20)
(-4.03663 2.64713 0)
(-4.22462 2.50367 -1.85033e-20)
(-4.45 2.36312 1.89324e-20)
(-4.70449 2.23307 1.94539e-20)
(-4.98003 2.11468 0)
(-5.26855 2.00733 -2.07208e-20)
(-5.56541 1.91327 -2.14341e-20)
(-5.86682 1.83321 4.58399e-20)
(-6.16878 1.7687 -2.29462e-20)
(-6.46788 1.71994 -2.37228e-20)
(-6.76231 1.68702 0)
(-7.05261 1.66914 0)
(-7.34237 1.66586 2.60546e-20)
(-7.6372 1.67677 0)
(-7.94356 1.70138 0)
(-8.26694 1.73811 -5.67286e-20)
(-8.61154 1.78349 -5.82844e-20)
(-8.98007 1.83175 0)
(-9.37385 1.87553 0)
(-9.79115 1.90685 0)
(-10.2258 1.91708 0)
(-10.6685 1.89596 -6.61811e-20)
(-11.1074 1.8314 6.99708e-20)
(-11.5253 1.71041 6.88633e-20)
(-11.8977 1.52175 1.4248e-19)
(-12.1978 1.26057 0)
(-12.4017 0.932225 3.07202e-21)
(-12.4897 0.553477 0)
(-12.4517 0.148075 -6.84487e-20)
(-12.2969 -0.261869 2.65096e-21)
(-12.0395 -0.652379 -6.36202e-20)
(-11.6935 -1.00434 6.03524e-20)
(-11.281 -1.30891 1.77595e-21)
(-10.8205 -1.56293 0)
(-10.328 -1.77144 5.008e-20)
(-9.81318 -1.94289 4.45527e-20)
(-9.28034 -2.08522 8.20992e-20)
(-8.73121 -2.20344 0)
(-8.16659 -2.30019 -3.35875e-20)