/*--------------------------------*- C++ -*----------------------------------*\
| =========                 |                                                 |
| \\      /  F ield         | OpenFOAM: The Open Source CFD Toolbox           |
|  \\    /   O peration     | Version:  2112                                  |
|   \\  /    A nd           | Website:  www.openfoam.com                      |
|    \\/     M anipulation  |                                                 |
\*---------------------------------------------------------------------------*/
FoamFile
{
    version     2.0;
    format      ascii;
    arch        "LSB;label=32;scalar=64";
    class       surfaceScalarField;
    location    "0.33";
    object      phi_0;
}
// * * * * * * * * * * * * * * * * * * * * * * * * * * * * * * * * * * * * * //

dimensions      [0 3 -1 0 0 0 0];

oriented        oriented;

internalField   nonuniform List<scalar> 
24170
(
3.04041e-06
1.47993e-07
2.86702e-06
1.73388e-07
2.69453e-06
1.72498e-07
2.52492e-06
1.69606e-07
2.36506e-06
1.59863e-07
2.22062e-06
1.44437e-07
2.09524e-06
1.25383e-07
1.99083e-06
1.04404e-07
1.90773e-06
8.31004e-08
1.8447e-06
6.30293e-08
1.79929e-06
4.54134e-08
1.76834e-06
3.09539e-08
1.7485e-06
1.98332e-08
1.73656e-06
1.1943e-08
1.72981e-06
6.7514e-09
1.72531e-06
4.49754e-09
1.7158e-06
9.51572e-09
1.96156e-08
1.69618e-06
3.48641e-06
7.88364e-08
3.5338e-06
1.25992e-07
3.56203e-06
1.44274e-07
3.57076e-06
1.60873e-07
3.56058e-06
1.70042e-07
3.53394e-06
1.71072e-07
3.49383e-06
1.65495e-07
3.4433e-06
1.54932e-07
3.38528e-06
1.41129e-07
3.32223e-06
1.26076e-07
3.25613e-06
1.11514e-07
3.1885e-06
9.85835e-08
3.12054e-06
8.77894e-08
3.05329e-06
7.9197e-08
2.98767e-06
7.23713e-08
2.92466e-06
6.75124e-08
2.87047e-06
6.37045e-08
5.42998e-08
2.83578e-06
3.68115e-06
6.02027e-08
3.69987e-06
1.07271e-07
3.71907e-06
1.25075e-07
3.74011e-06
1.39834e-07
3.76094e-06
1.49206e-07
3.77985e-06
1.52168e-07
3.79542e-06
1.49919e-07
3.80665e-06
1.43706e-07
3.81292e-06
1.3486e-07
3.81417e-06
1.24826e-07
3.81078e-06
1.14902e-07
3.8034e-06
1.05965e-07
3.79273e-06
9.84578e-08
3.77949e-06
9.24348e-08
3.76426e-06
8.76013e-08
3.74835e-06
8.34265e-08
3.73303e-06
7.90253e-08
6.95956e-08
3.71773e-06
3.93682e-06
4.8773e-08
3.94866e-06
9.5433e-08
3.95874e-06
1.14991e-07
3.96949e-06
1.29082e-07
3.98086e-06
1.37836e-07
3.99257e-06
1.4046e-07
4.00416e-06
1.38326e-07
4.01505e-06
1.32816e-07
4.02483e-06
1.25084e-07
4.03335e-06
1.16308e-07
4.04069e-06
1.07558e-07
4.04705e-06
9.96039e-08
4.0527e-06
9.28136e-08
4.05795e-06
8.71857e-08
4.06317e-06
8.23806e-08
4.06884e-06
7.77577e-08
4.07526e-06
7.26e-08
6.38836e-08
4.08097e-06
4.21578e-06
4.01247e-08
4.2262e-06
8.50062e-08
4.23534e-06
1.05852e-07
4.24457e-06
1.19849e-07
4.25405e-06
1.28357e-07
4.26349e-06
1.31023e-07
4.27264e-06
1.29181e-07
4.28124e-06
1.24211e-07
4.28913e-06
1.17196e-07
4.29622e-06
1.09213e-07
4.3026e-06
1.01181e-07
4.30849e-06
9.37188e-08
4.31419e-06
8.71069e-08
4.32005e-06
8.13275e-08
4.32635e-06
7.60772e-08
4.33334e-06
7.07715e-08
4.3413e-06
6.46423e-08
5.59471e-08
4.34923e-06
4.51587e-06
3.33377e-08
4.52554e-06
7.53444e-08
4.53468e-06
9.67085e-08
4.54386e-06
1.10667e-07
4.55318e-06
1.19042e-07
4.56235e-06
1.21845e-07
4.57117e-06
1.20367e-07
4.57944e-06
1.15938e-07
4.58705e-06
1.09586e-07
4.59398e-06
1.02283e-07
4.60033e-06
9.48305e-08
4.6063e-06
8.77474e-08
4.61214e-06
8.12746e-08
4.6181e-06
7.5362e-08
4.62444e-06
6.97397e-08
4.63126e-06
6.3949e-08
4.63855e-06
5.73504e-08
4.89661e-08
4.64554e-06
4.83814e-06
2.79137e-08
4.84703e-06
6.64574e-08
4.8561e-06
8.76423e-08
4.86542e-06
1.01342e-07
4.87489e-06
1.09572e-07
4.88423e-06
1.12509e-07
4.89321e-06
1.11389e-07
4.90166e-06
1.07484e-07
4.90949e-06
1.0176e-07
4.91669e-06
9.50766e-08
4.92339e-06
8.81368e-08
4.92974e-06
8.13966e-08
4.93594e-06
7.50684e-08
4.94221e-06
6.90994e-08
4.94869e-06
6.32541e-08
4.95546e-06
5.71783e-08
4.96241e-06
5.0406e-08
4.23801e-08
4.96899e-06
5.184e-06
2.34972e-08
5.19211e-06
5.83441e-08
5.20095e-06
7.88006e-08
5.21034e-06
9.19589e-08
5.21998e-06
9.99309e-08
5.2295e-06
1.02984e-07
5.2387e-06
1.02195e-07
5.24742e-06
9.87623e-08
5.25557e-06
9.36099e-08
5.26314e-06
8.75006e-08
5.27023e-06
8.10451e-08
5.27699e-06
7.46426e-08
5.28358e-06
6.84779e-08
5.29016e-06
6.25222e-08
5.29682e-06
5.65907e-08
5.30359e-06
5.04091e-08
5.31033e-06
4.36595e-08
3.60644e-08
5.31665e-06
5.555e-06
1.98394e-08
5.5624e-06
5.09354e-08
5.57095e-06
7.02531e-08
5.58027e-06
8.26439e-08
5.59002e-06
9.01765e-08
5.59974e-06
9.32645e-08
5.60914e-06
9.27923e-08
5.6181e-06
8.98036e-08
5.62654e-06
8.51688e-08
5.63446e-06
7.95842e-08
5.64192e-06
7.35847e-08
5.64904e-06
6.75198e-08
5.65597e-06
6.15528e-08
5.66281e-06
5.56762e-08
5.66964e-06
4.9762e-08
5.67643e-06
4.36185e-08
5.68305e-06
3.70466e-08
2.99388e-08
5.68917e-06
5.95286e-06
1.67593e-08
5.95964e-06
4.41473e-08
5.96788e-06
6.20142e-08
5.97704e-06
7.34838e-08
5.98679e-06
8.04284e-08
5.99666e-06
8.33971e-08
6.0063e-06
8.31509e-08
6.01552e-06
8.05816e-08
6.02425e-06
7.6444e-08
6.03248e-06
7.1355e-08
6.04027e-06
6.57941e-08
6.04771e-06
6.00729e-08
6.05493e-06
5.43392e-08
6.062e-06
4.86076e-08
6.06895e-06
4.28049e-08
6.07576e-06
3.68141e-08
6.08228e-06
3.0528e-08
2.39353e-08
6.08828e-06
6.37945e-06
1.41191e-08
6.38569e-06
3.79063e-08
6.39363e-06
5.40776e-08
6.40261e-06
6.45035e-08
6.41227e-06
7.07716e-08
6.42217e-06
7.34951e-08
6.43198e-06
7.33443e-08
6.44146e-06
7.10935e-08
6.45051e-06
6.73954e-08
6.45909e-06
6.27782e-08
6.46722e-06
5.76587e-08
6.47499e-06
5.231e-08
6.48246e-06
4.68624e-08
6.48972e-06
4.13501e-08
6.49678e-06
3.57458e-08
6.50359e-06
3.00002e-08
6.51005e-06
2.40736e-08
1.80062e-08
6.51598e-06
5.74282e-06
1.21374e-08
5.74771e-06
3.30168e-08
5.75419e-06
4.75937e-08
5.76164e-06
5.70527e-08
5.76971e-06
6.27024e-08
5.77805e-06
6.51508e-08
5.78639e-06
6.50034e-08
5.79455e-06
6.29411e-08
5.8024e-06
5.95445e-08
5.8099e-06
5.52777e-08
5.81705e-06
5.0505e-08
5.82389e-06
4.54726e-08
5.83044e-06
4.03084e-08
5.83674e-06
3.50532e-08
5.84279e-06
2.96922e-08
5.84858e-06
2.42188e-08
5.85401e-06
1.86374e-08
1.30186e-08
5.859e-06
7.00019e-06
1.01019e-08
7.00543e-06
2.77735e-08
7.0126e-06
4.0432e-08
7.02096e-06
4.86918e-08
7.03009e-06
5.35711e-08
7.0396e-06
5.56408e-08
7.04917e-06
5.54273e-08
7.05861e-06
5.35091e-08
7.06776e-06
5.03898e-08
7.07657e-06
4.6469e-08
7.08502e-06
4.20559e-08
7.09312e-06
3.73666e-08
7.1009e-06
3.25298e-08
7.10835e-06
2.7604e-08
7.11545e-06
2.2598e-08
7.12215e-06
1.75188e-08
7.1284e-06
1.23841e-08
7.28298e-09
7.13414e-06
8.53293e-06
8.01771e-09
8.53849e-06
2.22174e-08
8.5463e-06
3.26148e-08
8.55558e-06
3.94146e-08
8.56581e-06
4.33446e-08
8.57654e-06
4.49062e-08
8.58743e-06
4.45378e-08
8.59823e-06
4.27077e-08
8.60879e-06
3.98342e-08
8.61901e-06
3.62506e-08
8.62885e-06
3.22133e-08
8.63831e-06
2.79066e-08
8.64739e-06
2.34494e-08
8.65608e-06
1.89109e-08
8.66435e-06
1.43307e-08
8.67214e-06
9.73494e-09
8.67937e-06
5.14944e-09
6.5722e-10
8.686e-06
1.04014e-05
5.87888e-09
1.04072e-05
1.63802e-08
1.04156e-05
2.41716e-08
1.04258e-05
2.92249e-08
1.04372e-05
3.20009e-08
1.04492e-05
3.28985e-08
1.04615e-05
3.22622e-08
1.04737e-05
3.04479e-08
1.04858e-05
2.77814e-08
1.04975e-05
2.45267e-08
1.05088e-05
2.08876e-08
1.05197e-05
1.70152e-08
1.05301e-05
1.30141e-08
1.05401e-05
8.95463e-09
1.05495e-05
4.88603e-09
1.05584e-05
8.48761e-10
1.05667e-05
-3.11922e-09
-6.94338e-09
1.05743e-05
1.2679e-05
3.66853e-09
1.26851e-05
1.02564e-08
1.26942e-05
1.51122e-08
1.27053e-05
1.8114e-08
1.27178e-05
1.95061e-08
1.27311e-05
1.95612e-08
1.27449e-05
1.85228e-08
1.27587e-05
1.66365e-08
1.27723e-05
1.41319e-08
1.27857e-05
1.11995e-08
1.27986e-05
7.98879e-09
1.2811e-05
4.61351e-09
1.28228e-05
1.1576e-09
1.28341e-05
-2.3174e-09
1.28447e-05
-5.7641e-09
1.28547e-05
-9.14184e-09
1.2864e-05
-1.24153e-08
-1.55227e-08
1.28726e-05
1.54555e-05
1.35095e-09
1.5462e-05
3.77304e-09
1.54717e-05
5.36622e-09
1.54838e-05
5.99925e-09
1.54976e-05
5.75687e-09
1.55124e-05
4.77568e-09
1.55277e-05
3.19038e-09
1.55432e-05
1.13858e-09
1.55586e-05
-1.24794e-09
1.55736e-05
-3.85677e-09
1.55882e-05
-6.59805e-09
1.56022e-05
-9.40173e-09
1.56156e-05
-1.2214e-08
1.56283e-05
-1.4993e-08
1.56402e-05
-1.7705e-08
1.56514e-05
-2.03203e-08
1.56618e-05
-2.28142e-08
-2.5141e-08
1.56714e-05
1.88401e-05
-1.15542e-09
1.88472e-05
-3.28356e-09
1.88579e-05
-5.33535e-09
1.88713e-05
-7.41233e-09
1.88866e-05
-9.5562e-09
1.89032e-05
-1.17715e-08
1.89204e-05
-1.4041e-08
1.89379e-05
-1.63363e-08
1.89553e-05
-1.86267e-08
1.89723e-05
-2.08848e-08
1.89888e-05
-2.30885e-08
1.90046e-05
-2.52211e-08
1.90197e-05
-2.72697e-08
1.90339e-05
-2.9224e-08
1.90473e-05
-3.10745e-08
1.90597e-05
-3.28114e-08
1.90714e-05
-3.44264e-08
-3.58929e-08
1.90821e-05
2.29662e-05
-4.02855e-09
2.29744e-05
-1.14359e-08
2.29867e-05
-1.77039e-08
2.30022e-05
-2.29093e-08
2.30199e-05
-2.72486e-08
2.3039e-05
-3.08912e-08
2.30589e-05
-3.39499e-08
2.30791e-05
-3.65152e-08
2.30992e-05
-3.86688e-08
2.31188e-05
-4.04804e-08
2.31377e-05
-4.2008e-08
2.31558e-05
-4.33011e-08
2.31729e-05
-4.44015e-08
2.3189e-05
-4.53432e-08
2.32041e-05
-4.61519e-08
2.32181e-05
-4.6846e-08
2.32311e-05
-4.74386e-08
-4.79249e-08
2.32432e-05
1.6813e-05
-6.29748e-09
1.68193e-05
-1.77725e-08
1.68288e-05
-2.71608e-08
1.68404e-05
-3.45873e-08
1.68537e-05
-4.04536e-08
1.68678e-05
-4.50684e-08
1.68825e-05
-4.86312e-08
1.68973e-05
-5.13186e-08
1.69119e-05
-5.32956e-08
1.69262e-05
-5.47012e-08
1.69398e-05
-5.56522e-08
1.69528e-05
-5.62488e-08
1.69649e-05
-5.65768e-08
1.69763e-05
-5.67065e-08
1.69868e-05
-5.66931e-08
1.69966e-05
-5.65782e-08
1.70055e-05
-5.6392e-08
-5.61448e-08
1.70137e-05
1.46368e-05
-8.57373e-09
1.46431e-05
-2.40164e-08
1.46521e-05
-3.62124e-08
1.46631e-05
-4.55105e-08
1.46753e-05
-5.26413e-08
1.46882e-05
-5.80405e-08
1.47016e-05
-6.19696e-08
1.47149e-05
-6.46862e-08
1.47281e-05
-6.64298e-08
1.47408e-05
-6.73969e-08
1.47529e-05
-6.77536e-08
1.47643e-05
-6.76472e-08
1.47749e-05
-6.72057e-08
1.47847e-05
-6.65351e-08
1.47937e-05
-6.57202e-08
1.4802e-05
-6.48255e-08
1.48095e-05
-6.38986e-08
-6.29631e-08
1.48163e-05
1.27426e-05
-1.10355e-08
1.27491e-05
-3.05117e-08
1.27581e-05
-4.5182e-08
1.27685e-05
-5.59983e-08
1.27801e-05
-6.41681e-08
1.27922e-05
-7.0193e-08
1.28046e-05
-7.43697e-08
1.2817e-05
-7.70397e-08
1.28291e-05
-7.85064e-08
1.28407e-05
-7.90077e-08
1.28517e-05
-7.87508e-08
1.28619e-05
-7.79269e-08
1.28714e-05
-7.67053e-08
1.28801e-05
-7.52284e-08
1.2888e-05
-7.36112e-08
1.28951e-05
-7.19432e-08
1.29015e-05
-7.02906e-08
-6.86915e-08
1.29073e-05
1.10938e-05
-1.38866e-08
1.11008e-05
-3.75402e-08
1.11099e-05
-5.42368e-08
1.11201e-05
-6.62046e-08
1.11311e-05
-7.52239e-08
1.11427e-05
-8.17397e-08
1.11544e-05
-8.60661e-08
1.1166e-05
-8.86331e-08
1.11772e-05
-8.97907e-08
1.1188e-05
-8.98026e-08
1.11982e-05
-8.89097e-08
1.12076e-05
-8.73456e-08
1.12162e-05
-8.53226e-08
1.1224e-05
-8.30199e-08
1.1231e-05
-8.05841e-08
1.12372e-05
-7.81303e-08
1.12426e-05
-7.57436e-08
-7.34729e-08
1.12474e-05
9.65872e-06
-1.73963e-08
9.66653e-06
-4.53435e-08
9.67575e-06
-6.3464e-08
9.68578e-06
-7.62307e-08
9.69648e-06
-8.59254e-08
9.70753e-06
-9.27876e-08
9.71863e-06
-9.7164e-08
9.72957e-06
-9.95733e-08
9.74017e-06
-1.00388e-07
9.75025e-06
-9.98838e-08
9.75967e-06
-9.83298e-08
9.76832e-06
-9.60028e-08
9.77616e-06
-9.31591e-08
9.78316e-06
-9.0015e-08
9.78932e-06
-8.67513e-08
9.79471e-06
-8.35126e-08
9.79937e-06
-8.0409e-08
-7.75029e-08
9.8034e-06
8.40993e-06
-2.19763e-08
8.41873e-06
-5.41427e-08
8.42816e-06
-7.28905e-08
8.43806e-06
-8.61308e-08
8.44844e-06
-9.63105e-08
8.45899e-06
-1.03329e-07
8.46945e-06
-1.07627e-07
8.47969e-06
-1.09814e-07
8.48956e-06
-1.10258e-07
8.49891e-06
-1.0923e-07
8.50759e-06
-1.07017e-07
8.51553e-06
-1.03941e-07
8.52267e-06
-1.00298e-07
8.52898e-06
-9.6329e-08
8.53448e-06
-9.22513e-08
8.53921e-06
-8.82408e-08
8.54322e-06
-8.44219e-08
-8.08194e-08
8.54654e-06
7.32358e-06
-2.82678e-08
7.33362e-06
-6.41899e-08
7.34319e-06
-8.24617e-08
7.35286e-06
-9.57974e-08
7.36282e-06
-1.06271e-07
7.37281e-06
-1.13318e-07
7.38268e-06
-1.17502e-07
7.39238e-06
-1.19508e-07
7.40178e-06
-1.19663e-07
7.41077e-06
-1.18212e-07
7.41919e-06
-1.15439e-07
7.42694e-06
-1.11693e-07
7.43395e-06
-1.07305e-07
7.44016e-06
-1.02544e-07
7.44559e-06
-9.76734e-08
7.45026e-06
-9.29188e-08
7.4543e-06
-8.84537e-08
-8.43644e-08
7.45784e-06
6.37891e-06
-3.71126e-08
6.39062e-06
-7.58992e-08
6.40075e-06
-9.25924e-08
6.41098e-06
-1.06022e-07
6.42145e-06
-1.16744e-07
6.432e-06
-1.23865e-07
6.4426e-06
-1.2811e-07
6.45327e-06
-1.30172e-07
6.46388e-06
-1.30277e-07
6.47429e-06
-1.2862e-07
6.48432e-06
-1.25467e-07
6.49374e-06
-1.21116e-07
6.50235e-06
-1.15911e-07
6.51003e-06
-1.10225e-07
6.51676e-06
-1.04402e-07
6.52259e-06
-9.87465e-08
6.52751e-06
-9.33808e-08
-8.84239e-08
6.53157e-06
5.55999e-06
-5.16339e-08
5.57641e-06
-9.23212e-08
5.59196e-06
-1.08143e-07
5.60945e-06
-1.23517e-07
5.62825e-06
-1.35537e-07
5.64753e-06
-1.43154e-07
5.66694e-06
-1.47516e-07
5.68593e-06
-1.49159e-07
5.70385e-06
-1.48198e-07
5.72008e-06
-1.44854e-07
5.73411e-06
-1.39493e-07
5.74559e-06
-1.32597e-07
5.75438e-06
-1.24698e-07
5.76043e-06
-1.16282e-07
5.76381e-06
-1.07784e-07
5.76471e-06
-9.96377e-08
5.76343e-06
-9.21014e-08
-8.57186e-08
5.76072e-06
4.88591e-06
-1.09934e-07
4.9365e-06
-1.42917e-07
4.97833e-06
-1.49967e-07
5.0097e-06
-1.54893e-07
5.02925e-06
-1.55081e-07
5.03738e-06
-1.51291e-07
5.03474e-06
-1.4487e-07
5.02212e-06
-1.36539e-07
5.0006e-06
-1.26683e-07
4.97143e-06
-1.15676e-07
4.93586e-06
-1.03923e-07
4.89511e-06
-9.18491e-08
4.85028e-06
-7.98724e-08
4.80236e-06
-6.8355e-08
4.75216e-06
-5.75856e-08
4.70038e-06
-4.78594e-08
4.64761e-06
-3.93336e-08
-3.22433e-08
4.59414e-06
4.09274e-06
3.94982e-06
3.79986e-06
3.64496e-06
3.48988e-06
3.33859e-06
3.19372e-06
3.05718e-06
2.9305e-06
2.81482e-06
2.7109e-06
2.61905e-06
2.53918e-06
2.47082e-06
2.41324e-06
2.36538e-06
2.32605e-06
2.2938e-06
-4.83497e-09
4.83497e-09
-1.0608e-08
5.77302e-09
-1.71565e-08
6.54851e-09
-2.4428e-08
7.27153e-09
-3.23451e-08
7.91707e-09
-4.08318e-08
8.48668e-09
-4.98206e-08
8.98886e-09
-5.92699e-08
9.44924e-09
-6.90349e-08
9.76506e-09
-7.89274e-08
9.89243e-09
-8.89107e-08
9.98328e-09
-9.90573e-08
1.01467e-08
-1.09457e-07
1.03995e-08
-1.2017e-07
1.07135e-08
-1.31226e-07
1.10553e-08
-1.42627e-07
1.14013e-08
-1.54364e-07
1.17367e-08
-1.66417e-07
1.20538e-08
-1.78767e-07
1.23495e-08
-1.9139e-07
1.26233e-08
-2.04267e-07
1.28768e-08
-2.1738e-07
1.31131e-08
-2.30716e-07
1.33362e-08
-2.44267e-07
1.35509e-08
-2.58029e-07
1.3762e-08
-2.72004e-07
1.39746e-08
-2.86197e-07
1.41929e-08
-3.00617e-07
1.44207e-08
-3.15278e-07
1.46608e-08
-3.30193e-07
1.4915e-08
-3.45377e-07
1.51843e-08
-3.60846e-07
1.54688e-08
-3.76614e-07
1.57679e-08
-3.92695e-07
1.60806e-08
-4.091e-07
1.64054e-08
-4.25841e-07
1.67405e-08
-4.42925e-07
1.70843e-08
-4.6036e-07
1.74347e-08
-4.7815e-07
1.779e-08
-4.96298e-07
1.81482e-08
-5.14805e-07
1.85074e-08
-5.33671e-07
1.8866e-08
-5.52893e-07
1.92219e-08
-5.72466e-07
1.95735e-08
-5.92385e-07
1.99189e-08
-6.12642e-07
2.02562e-08
-6.33225e-07
2.05838e-08
-6.54125e-07
2.08997e-08
-6.75327e-07
2.12021e-08
-6.96816e-07
2.14891e-08
-7.18575e-07
2.17589e-08
-7.40585e-07
2.20096e-08
-7.62824e-07
2.22395e-08
-7.85271e-07
2.24466e-08
-8.079e-07
2.26292e-08
-8.30686e-07
2.27857e-08
-8.536e-07
2.29145e-08
-8.76614e-07
2.30141e-08
-8.99697e-07
2.30831e-08
-9.22818e-07
2.31204e-08
-9.45943e-07
2.31249e-08
-9.69039e-07
2.30959e-08
-9.92071e-07
2.30325e-08
-1.01501e-06
2.29342e-08
-1.03781e-06
2.28007e-08
-1.06044e-06
2.26317e-08
-1.08287e-06
2.24272e-08
-1.10505e-06
2.21872e-08
-1.12696e-06
2.19122e-08
-1.14857e-06
2.16025e-08
-1.16983e-06
2.12591e-08
-1.19071e-06
2.08827e-08
-1.21118e-06
2.04747e-08
-1.23122e-06
2.00363e-08
-1.25079e-06
1.95693e-08
-1.26986e-06
1.90753e-08
-1.28842e-06
1.85564e-08
-1.30644e-06
1.80146e-08
-1.32389e-06
1.74522e-08
-1.34076e-06
1.68716e-08
-1.35703e-06
1.62751e-08
-1.3727e-06
1.56653e-08
-1.38774e-06
1.50448e-08
-1.40216e-06
1.44164e-08
-1.41594e-06
1.37827e-08
-1.42909e-06
1.31466e-08
-1.4416e-06
1.25107e-08
-1.45348e-06
1.18778e-08
-1.46473e-06
1.12506e-08
-1.47536e-06
1.06315e-08
-1.48538e-06
1.00231e-08
-1.49481e-06
9.4276e-09
-1.50366e-06
8.84744e-09
-1.51194e-06
8.28494e-09
-1.51969e-06
7.74229e-09
-1.52691e-06
7.22163e-09
-1.53363e-06
6.72484e-09
-1.53989e-06
6.25336e-09
-1.54569e-06
5.80819e-09
-1.55108e-06
5.38971e-09
-1.55608e-06
4.99766e-09
-1.56071e-06
4.63112e-09
-1.565e-06
4.28864e-09
-1.56897e-06
3.96812e-09
-1.57264e-06
3.66714e-09
-1.57602e-06
3.38282e-09
-1.57913e-06
3.11213e-09
-1.58198e-06
2.85189e-09
-1.58458e-06
2.59897e-09
-1.58693e-06
2.35029e-09
-1.58904e-06
2.10294e-09
-1.59089e-06
1.85401e-09
-1.59249e-06
1.60028e-09
-1.59383e-06
1.3378e-09
-1.59489e-06
1.06157e-09
-1.59565e-06
7.63878e-10
-1.5961e-06
4.47033e-10
-1.59626e-06
1.60322e-10
-1.5961e-06
-1.60878e-10
-1.59556e-06
-5.41857e-10
-1.59465e-06
-9.06113e-10
-1.59337e-06
-1.28319e-09
-1.59169e-06
-1.67684e-09
-1.5896e-06
-2.08876e-09
-1.58708e-06
-2.51973e-09
-1.58411e-06
-2.97032e-09
-1.58067e-06
-3.44127e-09
-1.57674e-06
-3.93331e-09
-1.57229e-06
-4.44746e-09
-1.56731e-06
-4.98479e-09
-1.56176e-06
-5.5463e-09
-1.55563e-06
-6.13304e-09
-1.54888e-06
-6.74597e-09
-1.54149e-06
-7.38618e-09
-1.53344e-06
-8.05475e-09
-1.52469e-06
-8.75283e-09
-1.51521e-06
-9.48146e-09
-1.50496e-06
-1.02415e-08
-1.49393e-06
-1.10335e-08
-1.48207e-06
-1.18613e-08
-1.46934e-06
-1.27269e-08
-1.45571e-06
-1.3632e-08
-1.44113e-06
-1.45779e-08
-1.42557e-06
-1.55652e-08
-1.40897e-06
-1.65943e-08
-1.39131e-06
-1.7665e-08
-1.37253e-06
-1.87771e-08
-1.3526e-06
-1.99316e-08
-1.33147e-06
-2.11308e-08
-1.30909e-06
-2.23781e-08
-1.28541e-06
-2.36767e-08
-1.26039e-06
-2.50277e-08
-1.23395e-06
-2.64311e-08
-1.20607e-06
-2.78858e-08
-1.17668e-06
-2.93906e-08
-1.14573e-06
-3.09453e-08
-1.11318e-06
-3.25518e-08
-1.07897e-06
-3.42101e-08
-1.04305e-06
-3.59173e-08
-1.00538e-06
-3.76687e-08
-9.65926e-07
-3.94591e-08
-9.2464e-07
-4.1286e-08
-8.81492e-07
-4.31482e-08
-8.36451e-07
-4.50407e-08
-7.89497e-07
-4.69538e-08
-7.4062e-07
-4.88775e-08
-6.89809e-07
-5.08111e-08
-6.3705e-07
-5.27581e-08
-5.8233e-07
-5.47205e-08
-5.25622e-07
-5.67078e-08
-4.66869e-07
-5.8753e-08
-4.05971e-07
-6.08984e-08
-3.42809e-07
-6.3162e-08
-2.77506e-07
-6.53023e-08
-2.11585e-07
-6.59211e-08
-1.49352e-07
-6.22335e-08
-8.94042e-08
-5.99476e-08
-2.83849e-08
-6.10193e-08
3.27142e-08
-6.10992e-08
-5.20367e-08
8.4751e-08
-5.58464e-09
1.04196e-08
-1.20617e-08
1.22501e-08
-1.9268e-08
1.37548e-08
-2.71018e-08
1.51054e-08
-3.55161e-08
1.63314e-08
-4.44736e-08
1.74441e-08
-5.39347e-08
1.84499e-08
-6.38366e-08
1.93512e-08
-7.41981e-08
2.01265e-08
-8.50488e-08
2.07432e-08
-9.6314e-08
2.12485e-08
-1.0788e-07
2.1713e-08
-1.19663e-07
2.21818e-08
-1.31621e-07
2.26714e-08
-1.43746e-07
2.31808e-08
-1.56047e-07
2.37024e-08
-1.68538e-07
2.4228e-08
-1.81235e-07
2.47507e-08
-1.94152e-07
2.5266e-08
-2.073e-07
2.57717e-08
-2.20691e-07
2.62676e-08
-2.34333e-07
2.67554e-08
-2.48235e-07
2.72382e-08
-2.62405e-07
2.77204e-08
-2.7685e-07
2.82069e-08
-2.91578e-07
2.87028e-08
-3.06598e-07
2.9213e-08
-3.21919e-07
2.97417e-08
-3.3755e-07
3.02922e-08
-3.53502e-07
3.08666e-08
-3.69784e-07
3.14663e-08
-3.86406e-07
3.20912e-08
-4.03379e-07
3.27404e-08
-4.20711e-07
3.34124e-08
-4.3841e-07
3.41048e-08
-4.56485e-07
3.48149e-08
-4.7494e-07
3.55396e-08
-4.93781e-07
3.62757e-08
-5.13011e-07
3.70196e-08
-5.3263e-07
3.77678e-08
-5.5264e-07
3.85168e-08
-5.73036e-07
3.92627e-08
-5.93816e-07
4.0002e-08
-6.14974e-07
4.07308e-08
-6.365e-07
4.14454e-08
-6.58386e-07
4.21419e-08
-6.80619e-07
4.28165e-08
-7.03184e-07
4.34653e-08
-7.26067e-07
4.40843e-08
-7.49247e-07
4.46696e-08
-7.72706e-07
4.52174e-08
-7.9642e-07
4.57236e-08
-8.20365e-07
4.61845e-08
-8.44514e-07
4.65964e-08
-8.68841e-07
4.69555e-08
-8.93313e-07
4.72584e-08
-9.17901e-07
4.7502e-08
-9.4257e-07
4.76832e-08
-9.67286e-07
4.77995e-08
-9.92014e-07
4.78484e-08
-1.01672e-06
4.78281e-08
-1.04136e-06
4.77369e-08
-1.0659e-06
4.75736e-08
-1.0903e-06
4.73372e-08
-1.11453e-06
4.70272e-08
-1.13854e-06
4.66434e-08
-1.1623e-06
4.61859e-08
-1.18577e-06
4.56554e-08
-1.20891e-06
4.50527e-08
-1.23169e-06
4.43794e-08
-1.25406e-06
4.36373e-08
-1.27601e-06
4.28288e-08
-1.29749e-06
4.19567e-08
-1.31848e-06
4.10242e-08
-1.33895e-06
4.00351e-08
-1.35886e-06
3.89935e-08
-1.37821e-06
3.79037e-08
-1.39697e-06
3.67705e-08
-1.41511e-06
3.5599e-08
-1.43264e-06
3.43941e-08
-1.44952e-06
3.31613e-08
-1.46576e-06
3.19057e-08
-1.48135e-06
3.06327e-08
-1.49628e-06
2.93472e-08
-1.51055e-06
2.80544e-08
-1.52417e-06
2.67589e-08
-1.53712e-06
2.54655e-08
-1.54942e-06
2.41785e-08
-1.56107e-06
2.29024e-08
-1.57208e-06
2.16416e-08
-1.58246e-06
2.04004e-08
-1.59222e-06
1.91835e-08
-1.60136e-06
1.79955e-08
-1.60992e-06
1.68413e-08
-1.6179e-06
1.57255e-08
-1.62533e-06
1.46529e-08
-1.63224e-06
1.36272e-08
-1.63864e-06
1.26518e-08
-1.64456e-06
1.17286e-08
-1.65003e-06
1.08585e-08
-1.65507e-06
1.00405e-08
-1.65971e-06
9.27279e-09
-1.66397e-06
8.55191e-09
-1.66788e-06
7.87343e-09
-1.67144e-06
7.23196e-09
-1.67468e-06
6.62143e-09
-1.6776e-06
6.03531e-09
-1.68022e-06
5.46691e-09
-1.68253e-06
4.90963e-09
-1.68454e-06
4.35701e-09
-1.68624e-06
3.80299e-09
-1.68762e-06
3.24176e-09
-1.68869e-06
2.66767e-09
-1.68943e-06
2.07463e-09
-1.68982e-06
1.45618e-09
-1.68986e-06
8.0375e-10
-1.68946e-06
4.56497e-11
-1.68872e-06
-5.84478e-10
-1.68759e-06
-1.28404e-09
-1.68609e-06
-2.04471e-09
-1.68415e-06
-2.84923e-09
-1.68174e-06
-3.6919e-09
-1.67884e-06
-4.5721e-09
-1.67544e-06
-5.49079e-09
-1.67151e-06
-6.44912e-09
-1.66704e-06
-7.44817e-09
-1.66199e-06
-8.48907e-09
-1.65635e-06
-9.57318e-09
-1.65009e-06
-1.07021e-08
-1.6432e-06
-1.18776e-08
-1.63564e-06
-1.31013e-08
-1.6274e-06
-1.43745e-08
-1.61845e-06
-1.56989e-08
-1.60876e-06
-1.70757e-08
-1.59831e-06
-1.85065e-08
-1.58707e-06
-1.99927e-08
-1.57501e-06
-2.1536e-08
-1.56212e-06
-2.31379e-08
-1.54835e-06
-2.48002e-08
-1.53369e-06
-2.65266e-08
-1.51809e-06
-2.83217e-08
-1.50153e-06
-3.01897e-08
-1.48398e-06
-3.21341e-08
-1.46538e-06
-3.41581e-08
-1.44571e-06
-3.62649e-08
-1.42492e-06
-3.84571e-08
-1.40296e-06
-4.07375e-08
-1.37978e-06
-4.31087e-08
-1.35534e-06
-4.55739e-08
-1.32958e-06
-4.81371e-08
-1.30246e-06
-5.07999e-08
-1.27393e-06
-5.3561e-08
-1.24394e-06
-5.64174e-08
-1.21246e-06
-5.9365e-08
-1.17945e-06
-6.24e-08
-1.14488e-06
-6.55202e-08
-1.1087e-06
-6.87271e-08
-1.07089e-06
-7.20196e-08
-1.03142e-06
-7.53906e-08
-9.90257e-07
-7.88299e-08
-9.47391e-07
-8.23256e-08
-9.02807e-07
-8.587e-08
-8.56496e-07
-8.94588e-08
-8.08456e-07
-9.30803e-08
-7.58695e-07
-9.67154e-08
-7.07229e-07
-1.00343e-07
-6.54085e-07
-1.03956e-07
-5.99287e-07
-1.07556e-07
-5.42869e-07
-1.11138e-07
-4.84873e-07
-1.14703e-07
-4.2535e-07
-1.18277e-07
-3.64383e-07
-1.21865e-07
-3.02178e-07
-1.25367e-07
-2.39245e-07
-1.28235e-07
-1.76595e-07
-1.28571e-07
-1.13833e-07
-1.24996e-07
-5.00422e-08
-1.23738e-07
1.41504e-08
-1.25212e-07
7.80566e-08
-1.25005e-07
-1.13878e-07
1.39898e-07
-6.11394e-09
1.65336e-08
-1.32057e-08
1.93419e-08
-2.10269e-08
2.1576e-08
-2.94849e-08
2.35634e-08
-3.85253e-08
2.53718e-08
-4.81026e-08
2.70214e-08
-5.81718e-08
2.85191e-08
-6.86806e-08
2.98599e-08
-7.95868e-08
3.10328e-08
-9.08835e-08
3.20398e-08
-1.0255e-07
3.29145e-08
-1.1454e-07
3.3703e-08
-1.26802e-07
3.44442e-08
-1.39294e-07
3.51637e-08
-1.51989e-07
3.5876e-08
-1.64875e-07
3.6588e-08
-1.7795e-07
3.73026e-08
-1.9122e-07
3.80205e-08
-2.04695e-07
3.87418e-08
-2.18391e-07
3.94669e-08
-2.3232e-07
4.01969e-08
-2.46498e-07
4.09339e-08
-2.60941e-07
4.16807e-08
-2.75662e-07
4.24411e-08
-2.90674e-07
4.32194e-08
-3.05991e-07
4.40198e-08
-3.21624e-07
4.48463e-08
-3.37585e-07
4.57025e-08
-3.53884e-07
4.65909e-08
-3.7053e-07
4.75131e-08
-3.87534e-07
4.84696e-08
-4.04902e-07
4.94598e-08
-4.22644e-07
5.0482e-08
-4.40765e-07
5.15338e-08
-4.59272e-07
5.26118e-08
-4.7817e-07
5.37122e-08
-4.97461e-07
5.48306e-08
-5.17147e-07
5.59624e-08
-5.3723e-07
5.71025e-08
-5.57708e-07
5.82459e-08
-5.78578e-07
5.93869e-08
-5.99836e-07
6.05203e-08
-6.21474e-07
6.16402e-08
-6.43484e-07
6.2741e-08
-6.65856e-07
6.38168e-08
-6.88576e-07
6.48617e-08
-7.11629e-07
6.58697e-08
-7.34998e-07
6.68348e-08
-7.58665e-07
6.7751e-08
-7.82608e-07
6.86123e-08
-8.06803e-07
6.94126e-08
-8.31226e-07
7.01461e-08
-8.55848e-07
7.08071e-08
-8.80642e-07
7.13898e-08
-9.05575e-07
7.18888e-08
-9.30616e-07
7.22992e-08
-9.5573e-07
7.26162e-08
-9.80882e-07
7.28355e-08
-1.00604e-06
7.29535e-08
-1.03115e-06
7.2967e-08
-1.0562e-06
7.28734e-08
-1.08113e-06
7.26707e-08
-1.10592e-06
7.23576e-08
-1.13051e-06
7.1933e-08
-1.15488e-06
7.13966e-08
-1.17899e-06
7.07486e-08
-1.20279e-06
6.99896e-08
-1.22626e-06
6.91211e-08
-1.24935e-06
6.8145e-08
-1.27203e-06
6.70639e-08
-1.29428e-06
6.58812e-08
-1.31605e-06
6.46008e-08
-1.33732e-06
6.32275e-08
-1.35806e-06
6.17667e-08
-1.37825e-06
6.02242e-08
-1.39787e-06
5.86067e-08
-1.41688e-06
5.69212e-08
-1.43529e-06
5.51751e-08
-1.45306e-06
5.3376e-08
-1.4702e-06
5.15316e-08
-1.48669e-06
4.96498e-08
-1.50252e-06
4.7738e-08
-1.51769e-06
4.58035e-08
-1.5322e-06
4.38532e-08
-1.54604e-06
4.18937e-08
-1.55921e-06
3.99309e-08
-1.57172e-06
3.79709e-08
-1.58356e-06
3.60194e-08
-1.59474e-06
3.4082e-08
-1.60526e-06
3.21648e-08
-1.61513e-06
3.02738e-08
-1.62437e-06
2.84158e-08
-1.63297e-06
2.65978e-08
-1.64095e-06
2.48273e-08
-1.64834e-06
2.31118e-08
-1.65515e-06
2.14585e-08
-1.66139e-06
1.98739e-08
-1.6671e-06
1.83631e-08
-1.6723e-06
1.69295e-08
-1.67702e-06
1.55741e-08
-1.68128e-06
1.4296e-08
-1.68509e-06
1.30917e-08
-1.6885e-06
1.19562e-08
-1.69151e-06
1.08823e-08
-1.69414e-06
9.86168e-09
-1.6964e-06
8.88493e-09
-1.69831e-06
7.94203e-09
-1.69986e-06
7.02271e-09
-1.70107e-06
6.11693e-09
-1.70193e-06
5.21501e-09
-1.70243e-06
4.30775e-09
-1.70258e-06
3.3867e-09
-1.70235e-06
2.44401e-09
-1.70175e-06
1.47266e-09
-1.70077e-06
4.75618e-10
-1.6994e-06
-5.69516e-10
-1.69768e-06
-1.67744e-09
-1.69547e-06
-2.79058e-09
-1.6928e-06
-3.95117e-09
-1.68967e-06
-5.17444e-09
-1.68606e-06
-6.45811e-09
-1.68196e-06
-7.80063e-09
-1.67733e-06
-9.2011e-09
-1.67216e-06
-1.06599e-08
-1.66643e-06
-1.21777e-08
-1.66012e-06
-1.37554e-08
-1.65322e-06
-1.53942e-08
-1.64569e-06
-1.70956e-08
-1.63753e-06
-1.88618e-08
-1.62872e-06
-2.06952e-08
-1.61922e-06
-2.2598e-08
-1.60902e-06
-2.45723e-08
-1.5981e-06
-2.662e-08
-1.58643e-06
-2.87433e-08
-1.574e-06
-3.09442e-08
-1.56076e-06
-3.32252e-08
-1.54671e-06
-3.55887e-08
-1.53181e-06
-3.80373e-08
-1.51604e-06
-4.05744e-08
-1.49936e-06
-4.32055e-08
-1.48174e-06
-4.59376e-08
-1.46315e-06
-4.87779e-08
-1.44356e-06
-5.17324e-08
-1.42291e-06
-5.48065e-08
-1.40117e-06
-5.80046e-08
-1.37829e-06
-6.13303e-08
-1.35425e-06
-6.47855e-08
-1.32898e-06
-6.83715e-08
-1.30247e-06
-7.20896e-08
-1.27466e-06
-7.59431e-08
-1.24553e-06
-7.99328e-08
-1.21503e-06
-8.40559e-08
-1.18314e-06
-8.83078e-08
-1.14983e-06
-9.26826e-08
-1.11505e-06
-9.71737e-08
-1.0788e-06
-1.01776e-07
-1.04103e-06
-1.06492e-07
-1.00173e-06
-1.11318e-07
-9.60877e-07
-1.16246e-07
-9.18449e-07
-1.21259e-07
-8.74436e-07
-1.26339e-07
-8.28832e-07
-1.31474e-07
-7.81634e-07
-1.36657e-07
-7.32841e-07
-1.41872e-07
-6.82462e-07
-1.47095e-07
-6.30511e-07
-1.52294e-07
-5.77008e-07
-1.57459e-07
-5.21974e-07
-1.62591e-07
-4.6543e-07
-1.67681e-07
-4.07411e-07
-1.72722e-07
-3.47965e-07
-1.77723e-07
-2.87183e-07
-1.82647e-07
-2.25263e-07
-1.87287e-07
-1.62516e-07
-1.90982e-07
-9.90052e-08
-1.92082e-07
-3.39184e-08
-1.90083e-07
3.23194e-08
-1.89976e-07
9.86384e-08
-1.91531e-07
1.65189e-07
-1.91556e-07
-1.8048e-07
2.3179e-07
-6.83269e-09
2.33662e-08
-1.45167e-08
2.70259e-08
-2.28392e-08
2.98984e-08
-3.17719e-08
3.24961e-08
-4.12821e-08
3.48821e-08
-5.13361e-08
3.70754e-08
-6.18977e-08
3.90807e-08
-7.29246e-08
4.08869e-08
-8.43742e-08
4.24824e-08
-9.62079e-08
4.38735e-08
-1.08385e-07
4.50914e-08
-1.20861e-07
4.61792e-08
-1.33595e-07
4.71787e-08
-1.46555e-07
4.81234e-08
-1.59717e-07
4.9038e-08
-1.73069e-07
4.99398e-08
-1.86607e-07
5.08408e-08
-2.00336e-07
5.17491e-08
-2.14264e-07
5.26705e-08
-2.28407e-07
5.36092e-08
-2.42779e-07
5.4569e-08
-2.57398e-07
5.55531e-08
-2.72282e-07
5.65649e-08
-2.87449e-07
5.76078e-08
-3.02914e-07
5.86849e-08
-3.18694e-07
5.97993e-08
-3.34801e-07
6.09535e-08
-3.51248e-07
6.21493e-08
-3.68045e-07
6.33878e-08
-3.85201e-07
6.46691e-08
-4.02723e-07
6.59921e-08
-4.20619e-07
6.73551e-08
-4.38892e-07
6.8755e-08
-4.57546e-07
7.01882e-08
-4.76584e-07
7.165e-08
-4.96008e-07
7.31355e-08
-5.15816e-07
7.46388e-08
-5.36007e-07
7.61539e-08
-5.56579e-07
7.76741e-08
-5.77526e-07
7.91927e-08
-5.98841e-07
8.07024e-08
-6.20517e-07
8.2196e-08
-6.42542e-07
8.36657e-08
-6.64905e-07
8.51039e-08
-6.87591e-07
8.65027e-08
-7.10583e-07
8.7854e-08
-7.33863e-07
8.91498e-08
-7.57411e-07
9.03821e-08
-7.81202e-07
9.15428e-08
-8.05214e-07
9.26241e-08
-8.2942e-07
9.36181e-08
-8.53791e-07
9.45171e-08
-8.78297e-07
9.53136e-08
-9.02908e-07
9.60003e-08
-9.27589e-07
9.65703e-08
-9.52307e-07
9.70172e-08
-9.77026e-07
9.73353e-08
-1.00171e-06
9.75193e-08
-1.02632e-06
9.75651e-08
-1.05082e-06
9.74691e-08
-1.07518e-06
9.72286e-08
-1.09935e-06
9.68418e-08
-1.1233e-06
9.63077e-08
-1.14699e-06
9.56257e-08
-1.17039e-06
9.47963e-08
-1.19346e-06
9.38201e-08
-1.21617e-06
9.26991e-08
-1.23849e-06
9.14353e-08
-1.26038e-06
9.00322e-08
-1.28181e-06
8.84936e-08
-1.30275e-06
8.68246e-08
-1.32318e-06
8.50307e-08
-1.34307e-06
8.31188e-08
-1.3624e-06
8.10962e-08
-1.38115e-06
7.89712e-08
-1.39929e-06
7.67527e-08
-1.41682e-06
7.44501e-08
-1.43372e-06
7.20733e-08
-1.44998e-06
6.96323e-08
-1.46558e-06
6.71373e-08
-1.48053e-06
6.4598e-08
-1.49482e-06
6.20242e-08
-1.50844e-06
5.94246e-08
-1.52139e-06
5.6808e-08
-1.53368e-06
5.41821e-08
-1.5453e-06
5.15546e-08
-1.55627e-06
4.89325e-08
-1.56657e-06
4.6323e-08
-1.57622e-06
4.3733e-08
-1.58523e-06
4.117e-08
-1.59359e-06
3.86417e-08
-1.60133e-06
3.61567e-08
-1.60846e-06
3.37239e-08
-1.61499e-06
3.13531e-08
-1.62093e-06
2.90543e-08
-1.62631e-06
2.68372e-08
-1.63114e-06
2.47104e-08
-1.63546e-06
2.26809e-08
-1.63929e-06
2.07532e-08
-1.64264e-06
1.89285e-08
-1.64555e-06
1.72051e-08
-1.64804e-06
1.55783e-08
-1.65012e-06
1.40406e-08
-1.65182e-06
1.25824e-08
-1.65315e-06
1.11922e-08
-1.65412e-06
9.85713e-09
-1.65474e-06