/*--------------------------------*- C++ -*----------------------------------*\
| =========                 |                                                 |
| \\      /  F ield         | OpenFOAM: The Open Source CFD Toolbox           |
|  \\    /   O peration     | Version:  2112                                  |
|   \\  /    A nd           | Website:  www.openfoam.com                      |
|    \\/     M anipulation  |                                                 |
\*---------------------------------------------------------------------------*/
FoamFile
{
    version     2.0;
    format      ascii;
    arch        "LSB;label=32;scalar=64";
    class       volVectorField;
    location    "0.03";
    object      U_0;
}
// * * * * * * * * * * * * * * * * * * * * * * * * * * * * * * * * * * * * * //

dimensions      [0 1 -1 0 0 0 0];

internalField   nonuniform List<vector> 
12885
(
(1.24566 0.030995 0)
(0.482164 0.00084423 0)
(0.355109 0.000172606 0)
(0.308832 8.18919e-05 0)
(0.287253 4.99973e-05 0)
(0.273024 4.01221e-05 0)
(0.26181 3.81069e-05 0)
(0.251483 3.55748e-05 0)
(0.243719 3.97018e-05 0)
(0.233372 2.88653e-05 0)
(0.232327 1.06617e-05 0)
(0.226877 7.82734e-05 0)
(0.201886 9.24865e-05 0)
(0.202205 2.30667e-05 0)
(0.198861 1.62995e-05 0)
(0.197722 9.21559e-06 0)
(0.196327 1.78191e-05 0)
(0.194028 2.36541e-05 0)
(0.192341 1.53249e-05 0)
(0.19143 1.1003e-05 0)
(0.190659 1.27039e-05 0)
(0.189712 9.39422e-06 0)
(0.189541 -8.26111e-06 0)
(0.190426 -3.25792e-05 0)
(0.192507 -2.2804e-05 0)
(0.192044 -5.78347e-07 0)
(0.193508 -6.81155e-05 0)
(0.195554 -0.000141222 0)
(0.198765 -1.82171e-05 0)
(0.19291 0.000262816 0)
(0.189614 0.000575701 0)
(0.132995 -0.000148072 0)
(0.129084 0.000124894 0)
(0.124753 5.09158e-05 0)
(0.123265 1.77299e-05 0)
(0.122946 -2.07195e-06 0)
(0.123035 -1.3449e-05 0)
(0.123786 -6.62377e-05 0)
(0.127058 -0.00043964 0)
(0.125194 -0.014027 0)
(3.46375 0.0956861 0)
(1.584 0.00753209 0)
(1.16581 0.00169439 0)
(0.996012 0.000759444 0)
(0.914476 0.000449997 0)
(0.860882 0.000351803 0)
(0.819064 0.000327476 0)
(0.780985 0.000300392 0)
(0.752399 0.000328729 0)
(0.71493 0.000230763 0)
(0.710154 0.000128104 0)
(0.685832 0.000761516 0)
(0.593112 0.000651347 0)
(0.596366 9.84617e-05 0)
(0.587056 0.000130928 0)
(0.583104 8.30181e-05 0)
(0.577546 0.000134609 0)
(0.569596 0.000147838 0)
(0.563756 9.61853e-05 0)
(0.560295 7.46862e-05 0)
(0.557384 9.06444e-05 0)
(0.553789 6.62096e-05 0)
(0.552762 -4.54726e-05 0)
(0.554978 -0.000200276 0)
(0.561169 -0.000133143 0)
(0.558904 -2.0763e-05 0)
(0.562718 -0.000305239 0)
(0.564226 -0.000550087 0)
(0.564696 0.000226798 0)
(0.546036 0.00124345 0)
(0.540585 0.00513714 0)
(0.486279 0.00549531 0)
(0.478735 0.00172121 0)
(0.467311 0.00079904 0)
(0.462404 0.00029773 0)
(0.461166 1.94071e-05 0)
(0.461324 -0.000180731 0)
(0.463492 -0.000837042 0)
(0.469751 -0.00194588 0)
(0.465338 -0.0359854 0)
(5.9932 0.192046 0)
(3.43185 0.0306393 0)
(2.56912 0.00838516 0)
(2.1872 0.00400571 0)
(1.99567 0.0024091 0)
(1.87002 0.00187726 0)
(1.77308 0.00174621 0)
(1.68599 0.00160597 0)
(1.6208 0.00173751 0)
(1.53687 0.00124553 0)
(1.52355 0.000917998 0)
(1.45202 0.00472708 0)
(1.24061 0.00311433 0)
(1.25347 0.000171741 0)
(1.2413 0.00097434 0)
(1.23317 0.000499183 0)
(1.21898 0.00075775 0)
(1.20256 0.000674719 0)
(1.19062 0.00040115 0)
(1.18263 0.000392065 0)
(1.17599 0.000504233 0)
(1.16769 0.00038662 0)
(1.16463 -0.000109647 0)
(1.16713 -0.00083639 0)
(1.17749 -0.000475415 0)
(1.1709 -4.72397e-06 0)
(1.17634 -0.000410227 0)
(1.16202 0.000916641 0)
(1.1422 0.00376839 0)
(1.10306 0.00388057 0)
(1.10683 0.00801448 0)
(1.08706 0.00954934 0)
(1.07736 0.00718477 0)
(1.06402 0.00369293 0)
(1.05604 0.00153972 0)
(1.05345 0.000240219 0)
(1.05332 -0.000724112 0)
(1.05609 -0.00319314 0)
(1.06108 -0.00517026 0)
(1.05742 -0.0390423 0)
(8.34451 0.298023 0)
(6.23016 0.0903814 0)
(4.94816 0.0322455 0)
(4.2521 0.01625 0)
(3.8704 0.0099027 0)
(3.61635 0.00767202 0)
(3.42278 0.0071288 0)
(3.25228 0.00653853 0)
(3.12543 0.00702157 0)
(2.9672 0.00505323 0)
(2.93562 0.00642084 0)
(2.7374 0.0165607 0)
(2.44804 0.0125971 0)
(2.39225 -2.94034e-05 0)
(2.38517 -0.000806954 0)
(2.36959 0.000929994 0)
(2.33611 0.0039054 0)
(2.3107 0.00506185 0)
(2.29244 0.00354047 0)
(2.27724 0.00265351 0)
(2.26439 0.00243814 0)
(2.248 0.0018603 0)
(2.24096 -1.9352e-05 0)
(2.23863 -0.00346917 0)
(2.24633 -0.000632987 0)
(2.22599 0.00280083 0)
(2.22762 0.00365969 0)
(2.17967 0.0056722 0)
(2.15721 0.00782861 0)
(2.10666 0.0212039 0)
(2.07836 0.0189787 0)
(2.09448 0.00339293 0)
(2.0962 0.0070946 0)
(2.0927 0.00608211 0)
(2.08946 0.00346019 0)
(2.08807 0.000746687 0)
(2.08787 -0.00163014 0)
(2.08882 -0.00591505 0)
(2.08986 -0.0105038 0)
(2.08549 -0.0242095 0)
(9.72135 0.357846 0)
(9.06929 0.178054 0)
(8.20155 0.0955903 0)
(7.4344 0.0609016 0)
(6.86875 0.0417409 0)
(6.44072 0.0316843 0)
(6.10862 0.0270941 0)
(5.82049 0.0232581 0)
(5.60644 0.0245096 0)
(5.3578 0.018584 0)
(5.28083 0.0208211 0)
(4.95502 0.045056 0)
(4.78829 0.044634 0)
(4.58842 0.0172666 0)
(4.44352 0.0102788 0)
(4.34268 0.00774575 0)
(4.2639 0.00477543 0)
(4.2485 0.000856443 0)
(4.22588 0.000676277 0)
(4.2005 0.00329308 0)
(4.17685 0.00586553 0)
(4.14733 0.00597081 0)
(4.13434 0.00361044 0)
(4.10636 0.00220285 0)
(4.07441 0.00270993 0)
(4.05888 0.0115889 0)
(4.02523 0.0115751 0)
(3.9967 0.0167243 0)
(3.97461 0.0326661 0)
(3.9799 0.030064 0)
(3.94072 0.0224793 0)
(3.93735 0.0157745 0)
(3.92904 0.0117438 0)
(3.9183 0.00830821 0)
(3.91021 0.00495317 0)
(3.90357 0.00158111 0)
(3.8997 -0.00185255 0)
(3.89385 -0.00587115 0)
(3.89168 -0.0101197 0)
(3.88194 -0.0151707 0)
(10.0376 0.34079 0)
(10.2214 0.19597 0)
(10.0826 0.129095 0)
(9.81931 0.104582 0)
(9.60333 0.0921337 0)
(9.332 0.0841218 0)
(9.08218 0.0791309 0)
(8.84142 0.0712135 0)
(8.64381 0.068912 0)
(8.45714 0.0636261 0)
(8.26554 0.0663039 0)
(8.12088 0.0842886 0)
(7.98278 0.0829763 0)
(7.88549 0.068452 0)
(7.76642 0.0545402 0)
(7.65782 0.0472368 0)
(7.54859 0.0462724 0)
(7.4622 0.0401389 0)
(7.36997 0.0299938 0)
(7.32081 0.0269985 0)
(7.26284 0.0251829 0)
(7.2291 0.0265586 0)
(7.16925 0.0261504 0)
(7.13177 0.0192406 0)
(7.08305 0.0292879 0)
(7.05971 0.0372549 0)
(7.02241 0.0352831 0)
(7.00444 0.0419584 0)
(6.98089 0.0450612 0)
(6.96357 0.0449757 0)
(6.94891 0.0420922 0)
(6.9366 0.0370982 0)
(6.92416 0.0321957 0)
(6.91094 0.0280922 0)
(6.89936 0.0245232 0)
(6.8879 0.0211204 0)
(6.87921 0.0178377 0)
(6.86855 0.0146033 0)
(6.86232 0.0116881 0)
(6.85035 0.0090337 0)
(10.0738 0.299302 0)
(10.3018 0.195794 0)
(10.2984 0.130236 0)
(10.2721 0.114454 0)
(10.2102 0.103232 0)
(10.1859 0.0958278 0)
(10.1507 0.0947332 0)
(10.1234 0.095266 0)
(10.072 0.0959711 0)
(10.0347 0.0934087 0)
(9.99127 0.0999815 0)
(9.96207 0.11201 0)
(9.93666 0.111798 0)
(9.91415 0.100471 0)
(9.89006 0.0907309 0)
(9.86185 0.0825665 0)
(9.83662 0.078698 0)
(9.80365 0.0699699 0)
(9.782 0.0708057 0)
(9.75136 0.0734474 0)
(9.72507 0.0751557 0)
(9.69628 0.0700312 0)
(9.6789 0.0643711 0)
(9.66342 0.0640844 0)
(9.65636 0.0719628 0)
(9.63724 0.077649 0)
(9.63121 0.072246 0)
(9.62148 0.072395 0)
(9.61807 0.0723849 0)
(9.61144 0.0716406 0)
(9.60595 0.0694052 0)
(9.60115 0.066093 0)
(9.59676 0.0625234 0)
(9.59191 0.0591649 0)
(9.58733 0.0561971 0)
(9.58222 0.053475 0)
(9.57816 0.0509767 0)
(9.57311 0.048734 0)
(9.57009 0.046804 0)
(9.56467 0.045124 0)
(10.0426 0.234735 0)
(10.2887 0.189158 0)
(10.3068 0.130424 0)
(10.2877 0.11543 0)
(10.2856 0.107017 0)
(10.2917 0.102995 0)
(10.2964 0.0997709 0)
(10.3014 0.0969918 0)
(10.3039 0.095808 0)
(10.308 0.0969533 0)
(10.3125 0.0996959 0)
(10.3176 0.102104 0)
(10.3246 0.100466 0)
(10.3312 0.093988 0)
(10.3352 0.0865237 0)
(10.3352 0.0806757 0)
(10.334 0.0767847 0)
(10.332 0.0745052 0)
(10.331 0.0722749 0)
(10.3287 0.0706847 0)
(10.3273 0.0692461 0)
(10.3269 0.0693494 0)
(10.3268 0.0685134 0)
(10.3276 0.0689075 0)
(10.3254 0.0663228 0)
(10.3276 0.0672128 0)
(10.325 0.0621657 0)
(10.3322 0.064558 0)
(10.3256 0.0651871 0)
(10.3362 0.0580128 0)
(10.3357 0.056155 0)
(10.3349 0.0546032 0)
(10.3347 0.0529849 0)
(10.3348 0.0513757 0)
(10.3348 0.049876 0)
(10.3344 0.0485135 0)
(10.3341 0.0473049 0)
(10.3335 0.0462315 0)
(10.3332 0.0453018 0)
(10.3325 0.0444913 0)
(10.0178 0.141816 0)
(10.1773 0.156385 0)
(10.2681 0.120967 0)
(10.284 0.111379 0)
(10.289 0.106936 0)
(10.2955 0.100897 0)
(10.3029 0.095614 0)
(10.3102 0.0923066 0)
(10.3174 0.091114 0)
(10.3243 0.0909056 0)
(10.3309 0.0907349 0)
(10.3376 0.0903942 0)
(10.3445 0.0890506 0)
(10.3513 0.0861568 0)
(10.3569 0.082575 0)
(10.3607 0.0792993 0)
(10.3631 0.076898 0)
(10.3647 0.0751757 0)
(10.3661 0.0737775 0)
(10.3674 0.0729192 0)
(10.3687 0.0720326 0)
(10.3695 0.0714088 0)
(10.3698 0.0700414 0)
(10.3694 0.0693486 0)
(10.3691 0.0675925 0)
(10.3682 0.0675663 0)
(10.3681 0.0649669 0)
(10.3672 0.0656978 0)
(10.3677 0.0570557 0)
(10.3673 0.0584656 0)
(10.3678 0.0602056 0)
(10.368 0.0595925 0)
(10.368 0.0588147 0)
(10.3679 0.0580472 0)
(10.3678 0.0573151 0)
(10.3678 0.0566275 0)
(10.3676 0.0559946 0)
(10.3674 0.0554128 0)
(10.3672 0.0548866 0)
(10.367 0.0544057 0)
(10.0036 0.0610879 0)
(10.0666 0.102972 0)
(10.1315 0.0931764 0)
(10.1633 0.0841393 0)
(10.1754 0.0803435 0)
(10.1836 0.0786569 0)
(10.1925 0.0775761 0)
(10.2018 0.0768929 0)
(10.2105 0.0764983 0)
(10.218 0.0762266 0)
(10.2247 0.0758771 0)
(10.2308 0.0753982 0)
(10.2365 0.0745218 0)
(10.2417 0.0732973 0)
(10.2462 0.0715932 0)
(10.2499 0.0700227 0)
(10.2527 0.06831 0)
(10.2549 0.0672274 0)
(10.2566 0.0657452 0)
(10.2581 0.0652387 0)
(10.2594 0.0636343 0)
(10.2607 0.0638336 0)
(10.2619 0.061728 0)
(10.2632 0.0632593 0)
(10.2644 0.0599782 0)
(10.2655 0.0639483 0)
(10.2667 0.0578138 0)
(10.2679 0.0532333 0)
(10.268 0.0550609 0)
(10.2698 0.0581434 0)
(10.2688 0.0599982 0)
(10.2685 0.0594971 0)
(10.2687 0.0588452 0)
(10.2689 0.0582434 0)
(10.269 0.0576998 0)
(10.2691 0.0572083 0)
(10.269 0.0567632 0)
(10.269 0.0563617 0)
(10.2689 0.0559996 0)
(10.2689 0.0556774 0)
(9.99888 0.0179054 0)
(10.0222 0.0451776 0)
(10.0496 0.0531671 0)
(10.072 0.0540153 0)
(10.087 0.0543938 0)
(10.0976 0.0558331 0)
(10.1056 0.0569012 0)
(10.1135 0.0580848 0)
(10.1201 0.0579041 0)
(10.1266 0.0577716 0)
(10.1324 0.0576452 0)
(10.1375 0.0573122 0)
(10.1419 0.0570452 0)
(10.1459 0.0564052 0)
(10.1493 0.056024 0)
(10.1524 0.055102 0)
(10.1549 0.0549227 0)
(10.1573 0.0537791 0)
(10.1591 0.0541716 0)
(10.161 0.0525463 0)
(10.1621 0.0539553 0)
(10.1639 0.0511539 0)
(10.1644 0.0544696 0)
(10.1662 0.0491044 0)
(10.1656 0.0562126 0)
(10.1679 0.0454546 0)
(10.1683 0.0475451 0)
(10.1683 0.0510547 0)
(10.1693 0.0491434 0)
(10.1695 0.0492555 0)
(10.1697 0.0505279 0)
(10.1703 0.0506359 0)
(10.1708 0.0506511 0)
(10.1712 0.050659 0)
(10.1715 0.0506674 0)
(10.1718 0.0506797 0)
(10.172 0.0506971 0)
(10.1722 0.0507185 0)
(10.1724 0.0507427 0)
(10.1725 0.0507704 0)
(9.99962 0.00396171 0)
(10.0063 0.014128 0)
(10.016 0.0203276 0)
(10.0276 0.0232023 0)
(10.0373 0.025153 0)
(10.047 0.0261815 0)
(10.0531 0.0279231 0)
(10.0611 0.0283302 0)
(10.0675 0.0283249 0)
(10.071 0.0289492 0)
(10.0762 0.0293837 0)
(10.081 0.0299158 0)
(10.0851 0.0304733 0)
(10.0886 0.0309961 0)
(10.0916 0.0314544 0)
(10.0943 0.0318735 0)
(10.0968 0.0322522 0)
(10.0989 0.0326295 0)
(10.1009 0.0329705 0)
(10.1025 0.0333378 0)
(10.1042 0.033637 0)
(10.1054 0.0340059 0)
(10.1068 0.0342286 0)
(10.1076 0.0346456 0)
(10.109 0.0347161 0)
(10.1093 0.0352686 0)
(10.1108 0.0348221 0)
(10.1101 0.0361677 0)
(10.1122 0.0348093 0)
(10.1123 0.0355029 0)
(10.1123 0.0362384 0)
(10.1135 0.0364903 0)
(10.114 0.0366816 0)
(10.1143 0.0368522 0)
(10.1144 0.0370092 0)
(10.1147 0.037154 0)
(10.1149 0.0372879 0)
(10.1152 0.037412 0)
(10.1155 0.0375284 0)
(10.1157 0.037639 0)
(9.99972 -0.00193448 0)
(10.005 -0.00654072 0)
(10.0134 -0.00914309 0)
(10.0247 -0.00920075 0)
(10.0344 -0.00886411 0)
(10.045 -0.00719548 0)
(10.0509 -0.00694282 0)
(10.0594 -0.00480005 0)
(10.0673 -0.00163052 0)
(10.0712 -0.00119839 0)
(10.0743 -0.0015684 0)
(10.0803 -0.000645043 0)
(10.0851 0.000422181 0)
(10.0887 0.00134235 0)
(10.0919 0.00236074 0)
(10.0946 0.00312127 0)
(10.0974 0.00413004 0)
(10.0997 0.00467334 0)
(10.1023 0.00576604 0)
(10.1039 0.0059715 0)
(10.1064 0.00733204 0)
(10.1072 0.00694492 0)
(10.1098 0.00887198 0)
(10.1093 0.00747073 0)
(10.1125 0.0107556 0)
(10.1133 0.0109758 0)
(10.1136 0.0106207 0)
(10.1147 0.0106467 0)
(10.1162 0.0108517 0)
(10.1169 0.0114285 0)
(10.1175 0.0117998 0)
(10.118 0.012115 0)
(10.1186 0.012401 0)
(10.1191 0.0126664 0)
(10.1196 0.0129136 0)
(10.1201 0.0131432 0)
(10.1205 0.0133551 0)
(10.1209 0.0135506 0)
(10.1212 0.0137299 0)
(10.1216 0.013897 0)
(9.99923 -0.00855998 0)
(10.0136 -0.028873 0)
(10.033 -0.0372704 0)
(10.0515 -0.037579 0)
(10.0658 -0.0351384 0)
(10.076 -0.0333157 0)
(10.0833 -0.0319107 0)
(10.0901 -0.0311974 0)
(10.0968 -0.028198 0)
(10.1025 -0.0256465 0)
(10.1079 -0.0249168 0)
(10.1132 -0.0237525 0)
(10.1177 -0.0226289 0)
(10.1215 -0.0217088 0)
(10.1249 -0.0206622 0)
(10.1279 -0.0198992 0)
(10.1309 -0.0188419 0)
(10.1333 -0.0183319 0)
(10.1359 -0.0171788 0)
(10.1377 -0.0170747 0)
(10.1401 -0.0155961 0)
(10.142 -0.0146107 0)
(10.1432 -0.0148675 0)
(10.1448 -0.0143076 0)
(10.1464 -0.0139562 0)
(10.1476 -0.0132726 0)
(10.1488 -0.0127333 0)
(10.1499 -0.0123239 0)
(10.1508 -0.0119706 0)
(10.1517 -0.0116493 0)
(10.1525 -0.0113507 0)
(10.1532 -0.0110731 0)
(10.1539 -0.0108155 0)
(10.1545 -0.010579 0)
(10.1551 -0.0103603 0)
(10.1556 -0.010161 0)
(10.1561 -0.0099752 0)
(10.1566 -0.0098083 0)
(10.1569 -0.00964958 0)
(10.1573 -0.00951097 0)
(10 -0.0295344 0)
(10.0364 -0.0684619 0)
(10.0784 -0.073179 0)
(10.1089 -0.0643643 0)
(10.1249 -0.057091 0)
(10.1328 -0.0536427 0)
(10.139 -0.0515686 0)
(10.1458 -0.049852 0)
(10.1529 -0.0474012 0)
(10.1593 -0.0446928 0)
(10.1652 -0.0428763 0)
(10.1703 -0.0412326 0)
(10.1747 -0.0398122 0)
(10.1786 -0.0385236 0)
(10.1821 -0.0373392 0)
(10.1853 -0.0362262 0)
(10.1883 -0.035217 0)
(10.191 -0.034261 0)
(10.1935 -0.0334232 0)
(10.1957 -0.0325927 0)
(10.1979 -0.0319111 0)
(10.1996 -0.0311524 0)
(10.2014 -0.030509 0)
(10.203 -0.0299324 0)
(10.2045 -0.0294104 0)
(10.2058 -0.0289341 0)
(10.207 -0.028499 0)
(10.2081 -0.028101 0)
(10.2091 -0.0277358 0)
(10.21 -0.0274002 0)
(10.2109 -0.0270914 0)
(10.2117 -0.0268079 0)
(10.2124 -0.026547 0)
(10.213 -0.0263084 0)
(10.2136 -0.0260883 0)
(10.2142 -0.025888 0)
(10.2147 -0.0257019 0)
(10.2151 -0.0255349 0)
(10.2155 -0.0253765 0)
(10.2159 -0.0252386 0)
(10.0033 -0.0702134 0)
(10.0825 -0.1193 0)
(10.1549 -0.101388 0)
(10.1906 -0.0791863 0)
(10.2005 -0.0700715 0)
(10.2043 -0.067355 0)
(10.2101 -0.0649274 0)
(10.218 -0.0616902 0)
(10.2261 -0.0584001 0)
(10.2327 -0.0555123 0)
(10.2384 -0.0532392 0)
(10.2432 -0.0513979 0)
(10.2475 -0.0498106 0)
(10.2514 -0.0483973 0)
(10.255 -0.047119 0)
(10.2583 -0.0459627 0)
(10.2613 -0.0449159 0)
(10.2641 -0.0439705 0)
(10.2666 -0.0431136 0)
(10.2689 -0.0423367 0)
(10.2709 -0.0416302 0)
(10.2729 -0.0409874 0)
(10.2746 -0.0404072 0)
(10.2762 -0.0398829 0)
(10.2777 -0.0394067 0)
(10.279 -0.0389722 0)
(10.2803 -0.0385747 0)
(10.2814 -0.0382111 0)
(10.2825 -0.0378784 0)
(10.2834 -0.0375745 0)
(10.2843 -0.0372965 0)
(10.2851 -0.0370427 0)
(10.2858 -0.03681 0)
(10.2865 -0.0365977 0)
(10.2871 -0.0364024 0)
(10.2877 -0.0362249 0)
(10.2882 -0.0360602 0)
(10.2887 -0.0359123 0)
(10.2891 -0.0357726 0)
(10.2895 -0.0356507 0)
(10.0106 -0.131221 0)
(10.155 -0.166053 0)
(10.2505 -0.113866 0)
(10.2783 -0.0868997 0)
(10.2799 -0.0808277 0)
(10.2824 -0.0781254 0)
(10.2898 -0.0738769 0)
(10.2988 -0.0692086 0)
(10.3068 -0.0653039 0)
(10.3133 -0.0623167 0)
(10.3187 -0.0599976 0)
(10.3234 -0.0580754 0)
(10.3277 -0.0564076 0)
(10.3317 -0.0549351 0)
(10.3354 -0.0536274 0)
(10.3388 -0.0524618 0)
(10.3418 -0.051421 0)
(10.3446 -0.0504903 0)
(10.3471 -0.049655 0)
(10.3495 -0.0489016 0)
(10.3516 -0.048219 0)
(10.3536 -0.0475994 0)
(10.3554 -0.0470363 0)
(10.357 -0.0465245 0)
(10.3585 -0.0460592 0)
(10.3599 -0.0456359 0)
(10.3611 -0.0452521 0)
(10.3623 -0.0449031 0)
(10.3634 -0.0445891 0)
(10.3643 -0.0443048 0)
(10.3652 -0.0440426 0)
(10.3661 -0.0438027 0)
(10.3668 -0.0435916 0)
(10.3675 -0.0433963 0)
(10.3681 -0.0432186 0)
(10.3687 -0.0430578 0)
(10.3692 -0.0429113 0)
(10.3697 -0.042779 0)
(10.3702 -0.0426584 0)
(10.3706 -0.0425489 0)
(10.0209 -0.199568 0)
(10.2349 -0.191161 0)
(10.3386 -0.117724 0)
(10.3541 -0.0960032 0)
(10.352 -0.0914292 0)
(10.3557 -0.0858454 0)
(10.3643 -0.079184 0)
(10.3734 -0.073712 0)
(10.3811 -0.0698191 0)
(10.3873 -0.0669595 0)
(10.3925 -0.0646607 0)
(10.3972 -0.0626907 0)
(10.4014 -0.0609586 0)
(10.4053 -0.0594421 0)
(10.4088 -0.0581029 0)
(10.412 -0.0569133 0)
(10.4149 -0.0558587 0)
(10.4175 -0.0549286 0)
(10.4198 -0.0540993 0)
(10.422 -0.0533532 0)
(10.4239 -0.0526712 0)
(10.4257 -0.0520556 0)
(10.4273 -0.0514906 0)
(10.4288 -0.0509879 0)
(10.4301 -0.0505187 0)
(10.4313 -0.0501136 0)
(10.4324 -0.0497159 0)
(10.4335 -0.0493985 0)
(10.4343 -0.0490991 0)
(10.4351 -0.0487996 0)
(10.4359 -0.0485491 0)
(10.4366 -0.0482995 0)
(10.4372 -0.0480892 0)
(10.4378 -0.0478996 0)
(10.4383 -0.0477279 0)
(10.4388 -0.0475724 0)
(10.4392 -0.0474474 0)
(10.4396 -0.0473201 0)
(10.44 -0.0471943 0)
(10.4403 -0.0470938 0)
(10.0322 -0.261926 0)
(10.3052 -0.196083 0)
(10.4069 -0.122789 0)
(10.4131 -0.106246 0)
(10.4077 -0.0986722 0)
(10.408 -0.0893128 0)
(10.4111 -0.0812475 0)
(10.413 -0.0758275 0)
(10.413 -0.072246 0)
(10.4113 -0.0695513 0)
(10.4085 -0.0672583 0)
(10.4051 -0.0652192 0)
(10.4014 -0.0634279 0)
(10.3974 -0.0618616 0)
(10.3934 -0.0604591 0)
(10.3894 -0.0591944 0)
(10.3854 -0.058078 0)
(10.3815 -0.0571037 0)
(10.3778 -0.0562413 0)
(10.3742 -0.0554553 0)
(10.3708 -0.0547353 0)
(10.3676 -0.0540797 0)
(10.3646 -0.0534844 0)
(10.3618 -0.0529487 0)
(10.3592 -0.0524636 0)
(10.3567 -0.0520289 0)
(10.3545 -0.0516326 0)
(10.3523 -0.051279 0)
(10.3504 -0.0509556 0)
(10.3486 -0.0506606 0)
(10.3469 -0.0503943 0)
(10.3454 -0.0501503 0)
(10.344 -0.0499319 0)
(10.3426 -0.0497275 0)
(10.3415 -0.0495441 0)
(10.3403 -0.0493667 0)
(10.3394 -0.0492103 0)
(10.3383 -0.049056 0)
(10.3376 -0.0489273 0)
(10.3365 -0.0487996 0)
(10.0497 -0.312417 0)
(10.3553 -0.196998 0)
(10.4224 -0.131888 0)
(10.3754 -0.115728 0)
(10.3082 -0.102493 0)
(10.2418 -0.0896855 0)
(10.1769 -0.0805303 0)
(10.112 -0.0745451 0)
(10.0478 -0.0703871 0)
(9.98535 -0.067061 0)
(9.92576 -0.0641553 0)
(9.86961 -0.0615592 0)
(9.81728 -0.0593027 0)
(9.76871 -0.0573421 0)
(9.72385 -0.0555473 0)
(9.6825 -0.0539169 0)
(9.64447 -0.0524776 0)
(9.60954 -0.0512426 0)
(9.57755 -0.05013 0)
(9.54827 -0.0491234 0)
(9.52151 -0.0481738 0)
(9.49703 -0.0473458 0)
(9.47464 -0.0465802 0)
(9.45418 -0.0458749 0)
(9.4355 -0.0452552 0)
(9.41841 -0.044667 0)
(9.40286 -0.0441604 0)
(9.38863 -0.0437058 0)
(9.37568 -0.0433067 0)
(9.36381 -0.0429433 0)
(9.35304 -0.0426125 0)
(9.34312 -0.0423034 0)
(9.33419 -0.0420198 0)
(9.32585 -0.0417498 0)
(9.31852 -0.0415057 0)
(9.31144 -0.0412628 0)
(9.30554 -0.0410469 0)
(9.29929 -0.0408207 0)
(9.29483 -0.0406302 0)
(9.28888 -0.0404164 0)
(10.0557 -0.348686 0)
(10.2098 -0.195541 0)
(10.0146 -0.132634 0)
(9.67888 -0.10882 0)
(9.34615 -0.0875964 0)
(9.05252 -0.0708094 0)
(8.79676 -0.0596713 0)
(8.57177 -0.0522025 0)
(8.37314 -0.0468191 0)
(8.19826 -0.0425791 0)
(8.04429 -0.0391053 0)
(7.90909 -0.0361852 0)
(7.78997 -0.0338397 0)
(7.68507 -0.0319444 0)
(7.59248 -0.0302255 0)
(7.51053 -0.0287113 0)
(7.43784 -0.0274491 0)
(7.3731 -0.0264347 0)
(7.31544 -0.0255535 0)
(7.26395 -0.0247219 0)
(7.21801 -0.0240034 0)
(7.17669 -0.0233474 0)
(7.1398 -0.0227649 0)
(7.10647 -0.0222479 0)
(7.0766 -0.0218119 0)
(7.04967 -0.02138 0)
(7.02531 -0.0209725 0)
(7.00338 -0.0206385 0)
(6.98347 -0.0203654 0)
(6.96544 -0.0201416 0)
(6.94923 -0.0199304 0)
(6.93444 -0.0197607 0)
(6.9212 -0.019589 0)
(6.90893 -0.0194153 0)
(6.89817 -0.0192396 0)
(6.88786 -0.0190663 0)
(6.87931 -0.0189017 0)
(6.87032 -0.0187331 0)
(6.86398 -0.0185818 0)
(6.85542 -0.0184009 0)
(9.82039 -0.358483 0)
(9.25853 -0.167858 0)
(8.40769 -0.0981378 0)
(7.60751 -0.0667419 0)
(7.00123 -0.0449957 0)
(6.56497 -0.032189 0)
(6.24069 -0.0254831 0)
(5.98946 -0.0217271 0)
(5.78717 -0.0192354 0)
(5.62075 -0.0173126 0)
(5.48177 -0.0157718 0)
(5.36458 -0.0144722 0)
(5.26468 -0.0135091 0)
(5.17886 -0.0128164 0)
(5.1047 -0.0120733 0)
(5.0402 -0.0113993 0)
(4.98378 -0.0108645 0)
(4.93376 -0.0105099 0)
(4.88963 -0.010208 0)
(4.85081 -0.00985743 0)
(4.81608 -0.00955196 0)
(4.78542 -0.00928453 0)
(4.75785 -0.00906926 0)
(4.73332 -0.00885333 0)
(4.71131 -0.00862766 0)
(4.69155 -0.00850671 0)
(4.67377 -0.00831487 0)
(4.65759 -0.00817504 0)
(4.64302 -0.00807291 0)
(4.62978 -0.00790828 0)
(4.61783 -0.00783393 0)
(4.60691 -0.00785649 0)
(4.59736 -0.0078946 0)
(4.5885 -0.00788398 0)
(4.58075 -0.00780336 0)
(4.57331 -0.00772794 0)
(4.5672 -0.00763742 0)
(4.56066 -0.00757242 0)
(4.55627 -0.00749687 0)
(4.54983 -0.00742004 0)
(8.96161 -0.32219 0)
(7.24995 -0.109344 0)
(5.95141 -0.0499029 0)
(5.11062 -0.0288339 0)
(4.60733 -0.0177085 0)
(4.28883 -0.0124739 0)
(4.06218 -0.0100846 0)
(3.889 -0.00881049 0)
(3.74944 -0.00790236 0)
(3.63474 -0.00713788 0)
(3.53956 -0.00650503 0)
(3.4596 -0.00596541 0)
(3.39308 -0.00556143 0)
(3.33404 -0.00531668 0)
(3.28432 -0.00502775 0)
(3.24153 -0.0046566 0)
(3.20354 -0.0043956 0)
(3.17064 -0.00428059 0)
(3.14126 -0.00418963 0)
(3.116 -0.00404148 0)
(3.09309 -0.00390315 0)
(3.07325 -0.00378236 0)
(3.05513 -0.00368908 0)
(3.0393 -0.0036074 0)
(3.02502 -0.00351961 0)
(3.01212 -0.00342684 0)
(3.0006 -0.00335214 0)
(2.99021 -0.00327286 0)
(2.98107 -0.00318044 0)
(2.97265 -0.00313252 0)
(2.96495 -0.00310386 0)
(2.95795 -0.00305261 0)
(2.95161 -0.00312897 0)
(2.94598 -0.0032627 0)
(2.94103 -0.00323411 0)
(2.93626 -0.00319171 0)
(2.9323 -0.00313366 0)
(2.92808 -0.00310761 0)
(2.92525 -0.00307125 0)
(2.92101 -0.00303937 0)
(7.49801 -0.256256 0)
(5.03354 -0.0585412 0)
(3.86166 -0.0217353 0)
(3.24719 -0.011666 0)
(2.91466 -0.00694134 0)
(2.71306 -0.0048701 0)
(2.57176 -0.00395973 0)
(2.46158 -0.00349244 0)
(2.37245 -0.00315337 0)
(2.29881 -0.0028393 0)
(2.23781 -0.00258383 0)
(2.1867 -0.00236646 0)
(2.14397 -0.00221129 0)
(2.10642 -0.0021196 0)
(2.07371 -0.00200106 0)
(2.04612 -0.00184571 0)
(2.0227 -0.0017048 0)
(2.00198 -0.00166513 0)
(1.98317 -0.00166588 0)
(1.96678 -0.00160079 0)
(1.95238 -0.00154953 0)
(1.93963 -0.0015031 0)
(1.92831 -0.00147369 0)
(1.91823 -0.0014386 0)
(1.90929 -0.00138133 0)
(1.9011 -0.00134484 0)
(1.89398 -0.0012972 0)
(1.88768 -0.00124646 0)
(1.88205 -0.00120352 0)
(1.87703 -0.00117312 0)
(1.87242 -0.00115455 0)
(1.8683 -0.00115792 0)
(1.8641 -0.00125222 0)
(1.86039 -0.0013502 0)
(1.85726 -0.00134085 0)
(1.85418 -0.0013014 0)
(1.85159 -0.00126152 0)
(1.84891 -0.00123844 0)
(1.84706 -0.00122914 0)
(1.84437 -0.00120198 0)
(5.78952 -0.186147 0)
(3.2569 -0.0277343 0)
(2.41517 -0.00877436 0)
(2.01458 -0.00454383 0)
(1.80778 -0.00265379 0)
(1.685 -0.00184898 0)
(1.59884 -0.0015068 0)
(1.53102 -0.00133975 0)
(1.47492 -0.00121149 0)
(1.42894 -0.0010893 0)
(1.39092 -0.000990318 0)
(1.35909 -0.000909829 0)
(1.33228 -0.000843179 0)
(1.30932 -0.00081218 0)
(1.28844 -0.000774851 0)
(1.27112 -0.000699567 0)
(1.25691 -0.000642552 0)
(1.24452 -0.000635675 0)
(1.23288 -0.000643647 0)
(1.22243 -0.000613997 0)
(1.21349 -0.000595217 0)
(1.20534 -0.000579078 0)
(1.1984 -0.000570424 0)
(1.19186 -0.000560512 0)
(1.18631 -0.00052711 0)
(1.18129 -0.000507857 0)
(1.17697 -0.000495631 0)
(1.17299 -0.000474932 0)
(1.16963 -0.000449905 0)
(1.16661 -0.00043503 0)
(1.16388 -0.00041485 0)
(1.16155 -0.00040914 0)
(1.1592 -0.000473613 0)
(1.15656 -0.000546882 0)
(1.15456 -0.00054754 0)
(1.15257 -0.000515672 0)
(1.1509 -0.000491828 0)
(1.14922 -0.000474134 0)
(1.14804 -0.00047989 0)
(1.14637 -0.000456064 0)
(4.13989 -0.125581 0)
(2.01345 -0.0118322 0)
(1.47027 -0.00330696 0)
(1.22167 -0.00167965 0)
(1.09692 -0.000967387 0)
(1.02353 -0.000671906 0)
(0.97168 -0.000547679 0)
(0.930832 -0.000489885 0)
(0.896438 -0.000444847 0)
(0.868448 -0.000398303 0)
(0.845329 -0.00036199 0)
(0.825978 -0.000332312 0)
(0.809706 -0.00030722 0)
(0.795813 -0.000295325 0)
(0.783244 -0.000282739 0)
(0.772684 -0.000256418 0)
(0.76401 -0.00023212 0)
(0.756708 -0.000228642 0)
(0.749672 -0.000234877 0)
(0.743301 -0.000224015 0)
(0.737914 -0.000218486 0)
(0.732883 -0.000213514 0)
(0.728653 -0.000212096 0)
(0.724532 -0.000208519 0)
(0.721142 -0.000191938 0)
(0.718139 -0.000185466 0)
(0.715488 -0.000183526 0)
(0.71305 -0.000173657 0)
(0.711054 -0.000162576 0)
(0.709246 -0.000156593 0)
(0.707652 -0.000145409 0)
(0.706321 -0.000135794 0)
(0.705085 -0.000167256 0)
(0.703462 -0.000210422 0)
(0.702078 -0.000211814 0)
(0.700801 -0.000193824 0)
(0.699761 -0.000182611 0)
(0.698732 -0.000172576 0)
(0.698014 -0.000179314 0)
(0.696989 -0.00016412 0)
(2.72822 -0.0788507 0)
(1.18965 -0.00446846 0)
(0.862048 -0.00113726 0)
(0.714667 -0.000570626 0)
(0.642078 -0.000325586 0)
(0.599522 -0.000225969 0)
(0.569358 -0.000184593 0)
(0.545477 -0.000165343 0)
(0.525318 -0.000150362 0)
(0.508904 -0.000134662 0)
(0.495353 -0.00012235 0)
(0.484017 -0.000112182 0)
(0.474495 -0.000103683 0)
(0.466375 -9.92264e-05 0)
(0.459063 -9.49208e-05 0)
(0.452883 -8.67988e-05 0)
(0.447791 -7.87683e-05 0)
(0.443507 -7.7197e-05 0)
(0.439402 -7.89834e-05 0)
(0.43568 -7.49736e-05 0)
(0.432588 -7.35046e-05 0)
(0.429617 -7.2517e-05 0)
(0.427128 -7.22677e-05 0)
(0.424675 -7.11712e-05 0)
(0.422676 -6.50114e-05 0)
(0.420926 -6.29526e-05 0)
(0.419357 -6.26096e-05 0)
(0.417925 -5.88618e-05 0)
(0.41676 -5.49573e-05 0)
(0.415708 -5.26322e-05 0)
(0.414795 -4.80567e-05 0)
(0.414049 -4.29168e-05 0)
(0.413399 -5.21471e-05 0)
(0.412512 -7.2827e-05 0)
(0.411587 -7.67129e-05 0)
(0.410802 -6.68895e-05 0)
(0.410183 -6.2431e-05 0)
(0.409576 -5.8007e-05 0)
(0.409157 -6.16398e-05 0)
(0.408549 -5.45368e-05 0)
(1.62157 -0.0451597 0)
(0.654543 -0.00140829 0)
(0.472036 -0.000334131 0)
(0.39077 -0.000166255 0)
(0.351241 -9.42602e-05 0)
(0.328098 -6.54205e-05 0)
(0.311666 -5.3566e-05 0)
(0.298614 -4.80289e-05 0)
(0.287577 -4.36863e-05 0)
(0.278588 -3.91603e-05 0)
(0.271169 -3.55725e-05 0)
(0.264966 -3.25905e-05 0)
(0.259757 -3.01271e-05 0)
(0.25532 -2.88175e-05 0)
(0.25132 -2.7518e-05 0)
(0.247948 -2.52273e-05 0)
(0.245161 -2.29854e-05 0)
(0.24282 -2.24709e-05 0)
(0.240579 -2.28695e-05 0)
(0.23855 -2.16238e-05 0)
(0.236872 -2.12602e-05 0)
(0.23524 -2.11122e-05 0)
(0.233874 -2.10394e-05 0)
(0.232525 -2.0747e-05 0)
(0.231419 -1.89526e-05 0)
(0.230465 -1.83633e-05 0)
(0.2296 -1.82629e-05 0)
(0.228815 -1.71574e-05 0)
(0.228176 -1.60352e-05 0)
(0.227602 -1.52812e-05 0)
(0.227109 -1.38408e-05 0)
(0.226712 -1.20467e-05 0)
(0.226381 -1.42565e-05 0)
(0.225919 -2.12012e-05 0)
(0.225377 -2.31712e-05 0)
(0.224934 -1.97308e-05 0)
(0.224592 -1.82869e-05 0)
(0.224258 -1.67933e-05 0)
(0.22403 -1.8105e-05 0)
(0.223694 -1.56441e-05 0)
(0.808086 -0.0218472 0)
(0.309259 -0.000319026 0)
(0.222261 -7.12124e-05 0)
(0.183824 -3.51662e-05 0)
(0.165279 -1.98408e-05 0)
(0.154432 -1.37785e-05 0)
(0.146722 -1.13013e-05 0)
(0.140583 -1.01446e-05 0)
(0.135387 -9.22697e-06 0)
(0.131154 -8.27765e-06 0)
(0.127661 -7.51785e-06 0)
(0.124741 -6.885e-06 0)
(0.122291 -6.36481e-06 0)
(0.120204 -6.09392e-06 0)
(0.118322 -5.80807e-06 0)
(0.116737 -5.31693e-06 0)
(0.115426 -4.85954e-06 0)
(0.114325 -4.75321e-06 0)
(0.113271 -4.81893e-06 0)
(0.112318 -4.55556e-06 0)
(0.111529 -4.48815e-06 0)
(0.11076 -4.462e-06 0)
(0.110117 -4.43691e-06 0)
(0.109481 -4.39711e-06 0)
(0.108957 -4.0262e-06 0)
(0.108509 -3.8841e-06 0)
(0.108101 -3.86458e-06 0)
(0.107731 -3.63705e-06 0)
(0.107429 -3.40609e-06 0)
(0.107159 -3.22874e-06 0)
(0.106928 -2.9084e-06 0)
(0.106743 -2.49087e-06 0)
(0.106594 -2.87781e-06 0)
(0.106383 -4.46205e-06 0)
(0.106122 -5.00982e-06 0)
(0.10591 -4.21293e-06 0)
(0.105748 -3.8848e-06 0)
(0.10559 -3.54079e-06 0)
(0.105483 -3.84742e-06 0)
(0.105324 -3.24388e-06 0)
(0.236945 -0.00615626 0)
(0.087067 -2.23719e-05 0)
(0.0623923 -4.36013e-06 0)
(0.0515667 -2.11199e-06 0)
(0.0463733 -1.17921e-06 0)
(0.0433403 -8.21694e-07 0)
(0.0411813 -6.77395e-07 0)
(0.0394596 -6.09615e-07 0)
(0.038001 -5.54203e-07 0)
(0.0368128 -4.9828e-07 0)
(0.0358324 -4.52296e-07 0)
(0.0350129 -4.13801e-07 0)
(0.0343254 -3.82545e-07 0)
(0.0337401 -3.66867e-07 0)
(0.0332121 -3.4798e-07 0)
(0.032767 -3.17886e-07 0)
(0.0323988 -2.93245e-07 0)
(0.0320901 -2.86585e-07 0)
(0.0317948 -2.87244e-07 0)
(0.0315275 -2.70998e-07 0)
(0.031306 -2.68467e-07 0)
(0.0310901 -2.68543e-07 0)
(0.0309095 -2.65578e-07 0)
(0.0307311 -2.66496e-07 0)
(0.030584 -2.45374e-07 0)
(0.0304584 -2.34541e-07 0)
(0.0303439 -2.33203e-07 0)
(0.0302401 -2.20563e-07 0)
(0.030155 -2.08169e-07 0)
(0.0300789 -1.9329e-07 0)
(0.0300143 -1.72827e-07 0)
(0.0299627 -1.41141e-07 0)
(0.029922 -1.46411e-07 0)
(0.0298637 -2.66676e-07 0)
(0.0297903 -3.23395e-07 0)
(0.0297302 -2.62037e-07 0)
(0.0296846 -2.33344e-07 0)
(0.0296401 -2.16566e-07 0)
(0.0296104 -2.25586e-07 0)
(0.0295654 -1.03182e-07 0)
(6.80447e-05 -3.94909e-05 0)
(0.000162093 -0.000101349 0)
(0.000506778 -0.000142404 8.29093e-26)
(0.000902519 -0.000160023 0)
(0.00137379 -0.00017731 -1.9758e-25)
(0.00194625 -0.000192289 2.04263e-25)
(0.00261108 -0.000201112 0)
(0.00336038 -0.000205521 -3.85744e-25)
(0.00419151 -0.00020737 0)
(0.00510459 -0.00020768 3.37843e-25)
(0.00610206 -0.000207142 0)
(0.00718875 -0.000206224 0)
(0.00837138 -0.000205174 0)
(0.00965801 -0.000204081 0)
(0.0110576 -0.000202943 9.1325e-25)
(0.0125798 -0.000201683 -8.47944e-25)
(0.0142338 -0.000200165 7.89737e-25)
(0.0160283 -0.000198193 0)
(0.0179701 -0.000195507 -1.38563e-24)
(0.0200622 -0.000191788 1.307e-24)
(0.0223027 -0.000186686 0)
(0.0246819 -0.000179883 0)
(0.0271817 -0.000171203 0)
(0.0297754 -0.00016059 0)
(0.0324268 -0.000148004 0)
(0.0350851 -0.000133112 -2.76527e-24)
(0.0376698 -0.000115285 0)
(0.040073 -9.50159e-05 0)
(0.0422275 -7.4447e-05 1.34107e-23)
(0.0441422 -5.57856e-05 -1.73142e-23)
(0.0458618 -4.02217e-05 -4.16679e-23)
(0.0474437 -2.82485e-05 0)
(0.0489623 -2.00336e-05 5.18983e-23)
(0.0505402 -1.56799e-05 0)
(0.0523573 -1.55655e-05 0)
(0.0547057 -1.92643e-05 0)
(0.0578677 -2.68533e-05 1.22697e-22)
(0.0624192 -3.71068e-05 0)