/*--------------------------------*- C++ -*----------------------------------*\
| =========                 |                                                 |
| \\      /  F ield         | OpenFOAM: The Open Source CFD Toolbox           |
|  \\    /   O peration     | Version:  2112                                  |
|   \\  /    A nd           | Website:  www.openfoam.com                      |
|    \\/     M anipulation  |                                                 |
\*---------------------------------------------------------------------------*/
FoamFile
{
    version     2.0;
    format      ascii;
    arch        "LSB;label=32;scalar=64";
    class       volScalarField;
    location    "0.24";
    object      k;
}
// * * * * * * * * * * * * * * * * * * * * * * * * * * * * * * * * * * * * * //

dimensions      [0 2 -2 0 0 0 0];

internalField   nonuniform List<scalar> 
12225
(
1.81963
3.16272
4.52659
6.03013
7.75689
9.73837
11.9534
14.3368
16.7968
19.2344
21.5651
23.7305
25.6997
27.4663
29.0353
30.4449
31.5513
32.1671
0.530929
0.644077
0.79581
0.989994
1.2299
1.51945
1.86748
2.28905
2.79981
3.41304
4.12791
4.92928
5.79277
6.6941
7.61519
8.56281
9.60982
10.6368
0.474748
0.483576
0.493345
0.506103
0.52462
0.551494
0.589875
0.644146
0.719514
0.821946
0.956564
1.12671
1.33352
1.577
1.85687
2.18036
2.5648
3.0222
0.470314
0.471321
0.471775
0.47182
0.471709
0.471665
0.472014
0.47338
0.476845
0.483871
0.496082
0.515082
0.542292
0.579108
0.627017
0.688659
0.767553
0.868887
0.469477
0.469775
0.469659
0.469196
0.468439
0.467405
0.466082
0.464534
0.462915
0.461447
0.460399
0.460065
0.4608
0.462901
0.466623
0.47248
0.481127
0.493177
0.46919
0.469448
0.469409
0.469135
0.468665
0.468013
0.46717
0.466154
0.465007
0.463784
0.462546
0.461355
0.460258
0.459304
0.458549
0.458078
0.458003
0.4584
0.46905
0.469298
0.469374
0.469276
0.469039
0.468681
0.468196
0.467606
0.466933
0.466202
0.465438
0.464664
0.463895
0.463149
0.462445
0.46181
0.461283
0.460893
0.468962
0.469187
0.469332
0.469364
0.469292
0.469124
0.468865
0.46854
0.468163
0.46775
0.467316
0.466874
0.466433
0.466003
0.465595
0.46522
0.464895
0.464639
0.468898
0.469086
0.469258
0.469376
0.469422
0.46939
0.469289
0.469133
0.468939
0.468723
0.468497
0.468268
0.468042
0.467824
0.467625
0.467451
0.467312
0.467214
0.468846
0.468994
0.469159
0.469317
0.469445
0.469522
0.46954
0.469507
0.469442
0.469363
0.469278
0.469193
0.469114
0.469043
0.468987
0.468956
0.468956
0.468983
0.468802
0.468909
0.469052
0.469216
0.46938
0.469525
0.469636
0.46971
0.469756
0.469785
0.469809
0.469835
0.469867
0.46991
0.469967
0.470042
0.470136
0.470244
0.468768
0.468837
0.468953
0.469105
0.469275
0.469446
0.469605
0.469745
0.469866
0.469975
0.470078
0.470182
0.47029
0.470406
0.470532
0.470671
0.470822
0.470978
0.468734
0.468771
0.468857
0.468989
0.469151
0.469328
0.469508
0.469684
0.469854
0.470018
0.470179
0.47034
0.470504
0.470673
0.470848
0.47103
0.471218
0.471404
0.468699
0.468695
0.468753
0.468859
0.469003
0.469171
0.469352
0.469542
0.469735
0.469931
0.470129
0.470329
0.470531
0.470736
0.470944
0.471154
0.471365
0.471567
0.468665
0.468615
0.468643
0.468722
0.46884
0.468989
0.469159
0.469343
0.469537
0.46974
0.469949
0.470162
0.470379
0.470598
0.470818
0.471038
0.471253
0.471459
0.468635
0.468539
0.468531
0.468586
0.46868
0.468805
0.468954
0.469121
0.469302
0.469493
0.469693
0.469898
0.470107
0.470319
0.47053
0.470739
0.470944
0.471137
0.468612
0.468477
0.468435
0.468467
0.46854
0.468643
0.468769
0.468915
0.469075
0.469246
0.469426
0.469611
0.469799
0.469989
0.470178
0.470364
0.470545
0.470715
0.468599
0.468439
0.468371
0.468383
0.468443
0.468529
0.468639
0.468765
0.468905
0.469055
0.469212
0.469373
0.469536
0.4697
0.469862
0.47002
0.470172
0.470316
0.468599
0.468437
0.468364
0.468371
0.468426
0.468506
0.468606
0.468721
0.468847
0.46898
0.469118
0.469257
0.469396
0.469533
0.469666
0.469795
0.469917
0.47003
0.468616
0.468482
0.468434
0.468456
0.468517
0.468603
0.468706
0.46882
0.468939
0.46906
0.46918
0.469297
0.469408
0.469512
0.469609
0.469697
0.469777
0.469847
0.468644
0.468552
0.468538
0.46858
0.468651
0.468743
0.468848
0.468955
0.46906
0.469157
0.469243
0.469316
0.469375
0.469423
0.469459
0.469486
0.469504
0.469515
0.468683
0.468644
0.468665
0.468719
0.468798
0.468887
0.468974
0.469049
0.469105
0.469137
0.469145
0.469133
0.469105
0.469065
0.469016
0.46896
0.468898
0.468832
0.468732
0.468746
0.468789
0.468847
0.468907
0.468956
0.468979
0.468971
0.46893
0.468857
0.468755
0.468627
0.468482
0.468324
0.468159
0.467988
0.467814
0.46764
0.468789
0.468847
0.468896
0.468919
0.46891
0.468865
0.468774
0.468632
0.468443
0.468216
0.467956
0.467669
0.467357
0.467029
0.466691
0.466345
0.465996
0.46565
0.468859
0.468955
0.468973
0.468904
0.468761
0.46855
0.468272
0.467925
0.467511
0.467039
0.466517
0.465954
0.465357
0.464737
0.4641
0.463455
0.462808
0.462173
0.46898
0.469116
0.469068
0.468857
0.4685
0.46801
0.467397
0.466667
0.465827
0.464891
0.463875
0.462797
0.461672
0.460518
0.45936
0.458223
0.457135
0.456126
0.46931
0.469694
0.46975
0.469427
0.468785
0.467881
0.46676
0.465464
0.464043
0.462566
0.46112
0.459821
0.458816
0.458237
0.45821
0.458907
0.460512
0.463187
0.470914
0.474105
0.476718
0.478594
0.48026
0.482345
0.485491
0.490321
0.497415
0.507341
0.520727
0.53831
0.560878
0.589329
0.624649
0.667712
0.719303
0.77991
0.494313
0.534118
0.585992
0.652726
0.735884
0.835929
0.953074
1.0875
1.23955
1.41025
1.60173
1.81734
2.06053
2.3347
2.64298
2.98663
3.36522
3.77253
1.30089
2.11009
2.8752
3.64764
4.47514
5.38931
6.4078
7.53766
8.77754
10.1185
11.5447
13.0349
14.5649
16.1088
17.6414
19.1402
20.585
21.9536
0.329054
0.33114
0.33585
0.34312
0.353034
0.365653
0.380982
0.398972
0.419527
0.442511
0.467768
0.495408
0.525656
0.558225
0.592822
0.629325
0.667693
0.707903
0.74994
0.793795
0.839471
0.886976
0.936324
0.987531
1.04061
1.09559
1.15248
1.21129
1.27203
1.33471
1.39934
1.46592
1.53444
1.60489
1.67726
1.75153
1.82767
1.90564
1.98541
2.06694
2.15017
2.23504
2.32149
2.40945
2.49883
2.58956
2.68153
2.77465
2.86883
2.96394
3.05988
3.15653
3.25377
3.35148
3.44952
3.54777
3.64609
3.74436
3.84245
3.94022
4.03754
4.13429
4.23032
4.32552
4.41977
4.51293
4.60488
4.69552
4.78473
4.87238
4.95838
5.04262
5.125
5.20542
5.28379
5.36002
5.43403
5.50574
5.57508
5.64198
5.70637
5.7682
5.82741
5.88394
5.93775
5.98878
6.03699
6.08232
6.12474
6.1642
6.20065
6.23404
6.26433
6.29147
6.3154
6.33605
6.35333
6.36714
6.37732
6.38404
6.38785
6.38877
6.3868
6.38195
6.37424
6.36369
6.35033
6.3342
6.31533
6.29377
6.26955
6.24271
6.2133
6.18135
6.14692
6.11003
6.07073
6.02907
5.98507
5.93877
5.89021
5.83941
5.78641
5.73124
5.67392
5.61447
5.55291
5.48927
5.42357
5.35582
5.28607
5.21433
5.14064
5.06504
4.9876
4.90836
4.82741
4.74481
4.66067
4.57508
4.48814
4.39995
4.31062
4.22023
4.12887
4.03664
3.94364
3.85006
3.75623
3.6627
3.57065
3.4834
3.4031
3.33277
3.28503
3.26686
3.28016
3.32054
3.37863
3.43976
3.50692
3.57579
3.64469
3.71282
3.77971
3.84511
3.9089
3.97102
4.03145
4.09019
4.14728
4.20276
4.25668
4.30908
4.36002
4.40952
4.45795
4.50549
4.55863
4.60098
0.331382
0.332212
0.335579
0.341267
0.349293
0.359658
0.372308
0.387157
0.404089
0.422968
0.443662
0.466064
0.49014
0.515784
0.542849
0.571211
0.600783
0.631504
0.663334
0.696243
0.730208
0.765215
0.801251
0.838306
0.876369
0.915431
0.955479
0.996499
1.03848
1.08139
1.12523
1.16996
1.21556
1.262
1.30925
1.35727
1.40602
1.45547
1.50556
1.55626
1.60751
1.65926
1.71146
1.76405
1.81698
1.87017
1.92359
1.97715
2.03081
2.0845
2.13816
2.19172
2.24513
2.29834
2.35127
2.40389
2.45612
2.50793
2.55926
2.61007
2.6603
2.70993
2.75889
2.80717
2.85472
2.9015
2.9475
2.99267
3.03698
3.08043
3.12297
3.1646
3.2053
3.24504
3.28383
3.32165
3.35849
3.39435
3.42922
3.46311
3.49602
3.52794
3.55889
3.58885
3.61784
3.64586
3.67292
3.69901
3.72415
3.74834
3.77158
3.7939
3.81528
3.83574
3.85528
3.87392
3.89168
3.90859
3.92485
3.94078
3.95609
3.97075
3.98476
3.99813
4.01088
4.02303
4.0346
4.04559
4.05604
4.06594
4.07532
4.08418
4.09254
4.10039
4.10775
4.11461
4.12096
4.12681
4.13213
4.13691
4.14113
4.14474
4.14771
4.15
4.15154
4.15228
4.15213
4.15101
4.14882
4.14545
4.14078
4.13467
4.12698
4.11755
4.10621
4.09278
4.07709
4.05894
4.03813
4.01449
3.98781
3.95793
3.92466
3.88788
3.84744
3.80328
3.75535
3.70373
3.64862
3.59043
3.53011
3.46956
3.41098
3.35918
3.32245
3.30639
3.31252
3.33756
3.37463
3.41406
3.45436
3.49327
3.52949
3.56233
3.59142
3.61654
3.63762
3.65466
3.66773
3.67697
3.68255
3.6847
3.6837
3.67984
3.67347
3.66507
3.65542
3.64634
3.64219
3.65636
0.336743
0.335324
0.336925
0.340915
0.347198
0.355697
0.3663
0.378875
0.393284
0.409384
0.427037
0.446121
0.466531
0.488157
0.510885
0.53461
0.559247
0.58473
0.61101
0.638049
0.665819
0.694297
0.723463
0.7533
0.783791
0.81492
0.846667
0.879015
0.911942
0.945428
0.979449
1.01398
1.04899
1.08446
1.12036
1.15665
1.1933
1.23028
1.26756
1.30509
1.34285
1.3808
1.4189
1.45711
1.4954
1.53374
1.57208
1.6104
1.64865
1.68682
1.72487
1.76277
1.8005
1.83803
1.87534
1.91241
1.94922
1.98575
2.02199
2.05794
2.09356
2.12886
2.16383
2.19845
2.23272
2.26663
2.30018
2.33337
2.36619
2.39863
2.43069
2.46239
2.4937
2.52464
2.55522
2.58542
2.61526
2.64474
2.67387
2.70265
2.73108
2.75918
2.78694
2.81438
2.8415
2.8683
2.89479
2.92097
2.94685
2.97245
2.99776
3.0228
3.04758
3.07211
3.09643
3.12055
3.14452
3.1684
3.19239
3.21628
3.23999
3.26349
3.28679
3.30987
3.33274
3.3554
3.37785
3.40008
3.42209
3.44388
3.46545
3.48678
3.50789
3.52875
3.54937
3.56972
3.5898
3.6096
3.62909
3.64825
3.66705
3.68546
3.70344
3.72095
3.73793
3.75433
3.77006
3.78506
3.79923
3.81246
3.82463
3.83561
3.84525
3.85339
3.85984
3.86441
3.86688
3.86703
3.86463
3.85942
3.85118
3.83964
3.82457
3.80577
3.78305
3.75627
3.72538
3.69042
3.65161
3.60943
3.56479
3.51914
3.47447
3.43434
3.40448
3.38919
3.38934
3.40262
3.42443
3.44902
3.47413
3.49773
3.51846
3.53557
3.54862
3.5574
3.56182
3.5619
3.55776
3.54957
3.53757
3.52206
3.50337
3.48187
3.45801
3.43237
3.40586
3.38048
3.35962
3.35312
0.343249
0.338963
0.338748
0.341089
0.345779
0.352678
0.361616
0.372418
0.384921
0.398968
0.414414
0.431126
0.448985
0.467876
0.487692
0.508337
0.529732
0.55181
0.57452
0.597823
0.621687
0.646089
0.671006
0.696421
0.722315
0.748671
0.775473
0.802703
0.830341
0.85837
0.88677
0.91552
0.944599
0.973986
1.00366
1.0336
1.06378
1.09418
1.12477
1.15555
1.18648
1.21754
1.24872
1.28
1.31136
1.34278
1.37425
1.40575
1.43728
1.46882
1.50037
1.53192
1.56346
1.59499
1.62652
1.65803
1.68952
1.72101
1.75249
1.78396
1.81542
1.84687
1.87832
1.90976
1.9412
1.97263
2.00406
2.03547
2.06688
2.09826
2.12963
2.16098
2.19231
2.2236
2.25487
2.2861
2.3173
2.34845
2.37956
2.41062
2.44163
2.47257
2.50346
2.53427
2.56501
2.59567
2.62625
2.65675
2.68716
2.71748
2.74772
2.77788
2.80797
2.83799
2.86796
2.89792
2.92788
2.95789
2.98786
3.01769
3.04735
3.07682
3.10607
3.1351
3.16389
3.19242
3.22069
3.24868
3.27637
3.30376
3.33083
3.35757
3.38396
3.40999
3.43565
3.46093
3.48581
3.51027
3.53431
3.55789
3.581
3.60361
3.62569
3.64721
3.66813
3.68841
3.70799
3.72682
3.74484
3.76196
3.7781
3.79315
3.807
3.81953
3.83058
3.83999
3.84759
3.85318
3.85656
3.8575
3.85579
3.85119
3.84347
3.83242
3.81786
3.79965
3.77773
3.75214
3.7231
3.69104
3.65672
3.6211
3.5856
3.55281
3.52706
3.51127
3.50606
3.50983
3.51968
3.53233
3.54576
3.55803
3.5678
3.57429
3.57706
3.57591
3.57076
3.56165
3.5487
3.5321
3.51211
3.48902
3.46317
3.43494
3.40479
3.37335
3.34156
3.31135
3.28525
3.26951
0.351364
0.343271
0.341092
0.341827
0.345083
0.350619
0.358195
0.367592
0.378617
0.391101
0.404889
0.419842
0.435834
0.452752
0.470492
0.488964
0.508092
0.527814
0.54808
0.568851
0.590096
0.611791
0.633917
0.656455
0.679391
0.70271
0.726399
0.750444
0.774831
0.799546
0.824578
0.849911
0.875534
0.901434
0.927598
0.954014
0.980673
1.00756
1.03467
1.062
1.08953
1.11726
1.14519
1.17331
1.20162
1.23012
1.2588
1.28768
1.31675
1.34602
1.3755
1.40518
1.43509
1.46521
1.49558
1.52618
1.55703
1.58814
1.61951
1.65115
1.68305
1.71523
1.74767
1.78039
1.81337
1.84661
1.8801
1.91383
1.94779
1.98197
2.01636
2.05094
2.0857
2.12062
2.1557
2.19091
2.22624
2.26167
2.2972
2.33279
2.36844
2.40413
2.43984
2.47556
2.51128
2.54697
2.58264
2.61827
2.65384
2.68937
2.72483
2.76023
2.79557
2.83085
2.86609
2.90129
2.93643
2.97143
3.00624
3.0408
3.0751
3.10909
3.14277
3.1761
3.20906
3.24163
3.27379
3.30552
3.33679
3.36759
3.39789
3.42768
3.45692
3.48562
3.51374
3.54128
3.56822
3.59454
3.62022
3.64525
3.66962
3.69329
3.71624
3.73846
3.7599
3.78055
3.80036
3.8193
3.83733
3.85439
3.87042
3.88536
3.89911
3.91159
3.92269
3.93229
3.94027
3.94647
3.95074
3.95291
3.95279
3.95019
3.94493
3.93684
3.92577
3.9116
3.89429
3.87393
3.85069
3.82493
3.79722
3.76797
3.73828
3.70997
3.68608
3.66879
3.65857
3.65438
3.65449
3.65717
3.66091
3.66401
3.66518
3.66364
3.65895
3.65089
3.63939
3.62447
3.60626
3.58492
3.5607
3.53386
3.50471
3.47363
3.44107
3.40765
3.37432
3.3428
3.31491
3.29443
0.360567
0.34786
0.343558
0.342718
0.344678
0.349046
0.355491
0.363741
0.373578
0.384816
0.397296
0.410876
0.425429
0.440842
0.457017
0.473868
0.491324
0.509326
0.527828
0.546791
0.566189
0.585999
0.606204
0.62679
0.647744
0.669057
0.69072
0.712725
0.735063
0.757729
0.780716
0.80402
0.827634
0.851557
0.875785
0.900316
0.92515
0.950288
0.975732
1.00148
1.02755
1.05393
1.08064
1.10768
1.13507
1.1628
1.1909
1.21937
1.24823
1.27749
1.30716
1.33726
1.36779
1.39877
1.43022
1.46214
1.49454
1.52743
1.56081
1.59468
1.62905
1.66391
1.69926
1.73508
1.77137
1.80811
1.84529
1.88288
1.92086
1.95922
1.99793
2.03696
2.07629
2.1159
2.15575
2.19583
2.2361
2.27655
2.31714
2.35785
2.39864
2.4395
2.4804
2.52132
2.56223
2.60311
2.64396
2.68475
2.72547
2.76612
2.80668
2.84714
2.88751
2.92778
2.96794
3.008
3.04778
3.08728
3.12646
3.16528
3.20372
3.24173
3.2793
3.31638
3.35295
3.38899
3.42445
3.45932
3.49357
3.52716
3.56007
3.59228
3.62375
3.65446
3.68439
3.71353
3.74185
3.76935
3.79599
3.82177
3.84666
3.87065
3.89372
3.91585
3.937
3.95717
3.97633
3.99446
4.01152
4.02748
4.04231
4.05596
4.06836
4.07947
4.08921
4.09749
4.10424
4.10934
4.11268
4.11413
4.11357
4.11085
4.10584
4.09841
4.08846
4.0759
4.06073
4.04306
4.02303
4.00088
3.97705
3.95167
3.92526
3.89915
3.87553
3.85603
3.84105
3.82999
3.82194
3.81607
3.81139
3.80653
3.80031
3.79199
3.78111
3.76744
3.75089
3.73148
3.7093
3.6845
3.65729
3.6279
3.59662
3.56379
3.52985
3.49542
3.46136
3.42917
3.40012
3.37642
0.370627
0.352462
0.34584
0.343442
0.344223
0.347586
0.353084
0.360384
0.369236
0.379444
0.390844
0.403296
0.416677
0.430878
0.445805
0.461379
0.477532
0.49421
0.511371
0.528981
0.547014
0.565453
0.584283
0.603494
0.623079
0.643031
0.663349
0.684028
0.705069
0.72647
0.748234
0.770362
0.792857
0.815726
0.838972
0.862605
0.886632
0.911063
0.93591
0.961185
0.9869
1.01307
1.03971
1.06684
1.09447
1.12261
1.1513
1.18054
1.21035
1.24075
1.27175
1.30337
1.33563
1.36854
1.40211
1.43635
1.47127
1.50687
1.54316
1.58013
1.61778
1.6561
1.69507
1.73469
1.77493
1.81578
1.85721
1.89918
1.94167
1.98466
2.02809
2.07195
2.1162
2.1608
2.20571
2.25091
2.29635
2.34201
2.38785
2.43382
2.47989
2.52603
2.5722
2.61837
2.66452
2.71063
2.75667
2.80262
2.84848
2.89422
2.93984
2.98532
3.03066
3.07585
3.12088
3.16559
3.2099
3.25381
3.29729
3.3403
3.3828
3.42476
3.46613
3.50689
3.547
3.58642
3.62511
3.66305
3.70021
3.73653
3.77199
3.80656
3.8402
3.87289
3.90459
3.93529
3.96496
3.99359
4.02116
4.04766
4.07306
4.09736
4.12052
4.14252
4.16336
4.18301
4.20146
4.21869
4.23469
4.24944
4.26292
4.27509
4.28593
4.29539
4.30342
4.30999
4.31503
4.31847
4.32024
4.32024
4.3184
4.31461
4.30877
4.30082
4.29069
4.27833
4.26373
4.2471
4.22853
4.20819
4.18624
4.16266
4.13767
4.11216
4.0877
4.06554
4.04606
4.02898
4.01391
4.00056
3.98837
3.9763
3.96338
3.94888
3.93237
3.9136
3.89247
3.86896
3.84316
3.81518
3.7852
3.75343
3.72012
3.6856
3.65027
3.61472
3.57974
3.54658
3.51607
3.48949
0.381403
0.35687
0.347705
0.343748
0.343449
0.34594
0.350636
0.357132
0.365147
0.374473
0.384946
0.396431
0.408811
0.421985
0.435866
0.450381
0.465467
0.481077
0.497171
0.513721
0.530704
0.548106
0.565917
0.58413
0.602742
0.621754
0.641166
0.660981
0.681205
0.701843
0.722902
0.744393
0.766324
0.788709
0.81156
0.834891
0.85872
0.883062
0.907937
0.933363
0.95936
0.985949
1.01315
1.04099
1.06948
1.09865
1.12852
1.1591
1.19043
1.22251
1.25537
1.28903
1.32349
1.35878
1.3949
1.43187
1.46969
1.50835
1.54788
1.58824
1.62945
1.67148
1.71432
1.75795
1.80235
1.84749
1.89333
1.93984
1.98699
2.03474
2.08303
2.13184
2.18112
2.23082
2.28091
2.33133
2.38205
2.43303
2.4842
2.53554
2.58698
2.63849
2.69003
2.74154
2.79302
2.84442
2.89573
2.94692
2.99799
3.0489
3.09965
3.15022
3.20061
3.25079
3.30068
3.35006
3.39896
3.44736
3.49521
3.54248
3.58913
3.6351
3.68035
3.72485
3.76855
3.81142
3.85341
3.89448
3.9346
3.97372
4.01181
4.04881
4.0847
4.11944
4.15299
4.18533
4.21644
4.2463
4.2749
4.30221
4.32823
4.35293
4.37629
4.3983
4.41893
4.43817
4.45602
4.47246
4.4875
4.50113
4.51333
4.52409
4.53338
4.54119
4.5475
4.55227
4.55548
4.55707
4.55701
4.55524
4.55171
4.54635
4.53908
4.52991
4.5188
4.50574
4.49077
4.47403
4.45561
4.4356
4.41403
4.39076
4.36582
4.3398
4.3138
4.28875
4.26506
4.24265
4.22147
4.20153
4.18257
4.1639
4.14473
4.12443
4.10258
4.07893
4.05335
4.02583
3.99642
3.9652
3.93234
3.89803
3.86248
3.82599
3.78895
3.75189
3.71553
3.68086
3.6484
3.61888
0.392785
0.360937
0.348994
0.343473
0.342173
0.343901
0.347905
0.353705
0.360987
0.369532
0.37918
0.389804
0.401295
0.413563
0.426529
0.440127
0.454304
0.469014
0.484224
0.499909
0.516052
0.532641
0.549669
0.567135
0.585039
0.603386
0.62218
0.64143
0.661146
0.681339
0.702022
0.723209
0.744917
0.767163
0.789965
0.813346
0.837326
0.861927
0.887175
0.913093
0.939707
0.967042
0.995124
1.02398
1.05363
1.0841
1.11542
1.1476
1.18068
1.21467
1.2496
1.28547
1.32232
1.36014
1.39896
1.43878
1.4796
1.52144
1.56429
1.60813
1.65297
1.69878
1.74555
1.79324
1.84184
1.89132
1.94162
1.99273
2.04459
2.09715
2.15037
2.2042
2.25858
2.31347
2.36882
2.42457
2.48067
2.53708
2.59372
2.65054
2.70749
2.76449
2.82151
2.8785
2.93541
2.99223
3.04893
3.10548
3.16186
3.21806
3.27406
3.32984
3.38539
3.44068
3.49537
3.54951
3.60308
3.65605
3.70836
3.75997
3.81082
3.86086
3.91004
3.95832
4.00564
4.05198
4.09728
4.1415
4.1846
4.22653
4.26725
4.30671
4.34486
4.38165
4.41705
4.45104
4.4836
4.5147
4.54433
4.57247
4.59912
4.62425
4.64785
4.66989
4.69035
4.70922
4.7265
4.7422
4.75631
4.76885
4.77981
4.78917
4.79693
4.80308
4.80762
4.81054
4.81183
4.81145
4.80938
4.80561
4.80011
4.79285
4.78379
4.77294
4.7603
4.74589
4.72975
4.71201
4.69274
4.67197
4.64966
4.62561
4.59975
4.57245
4.54447
4.5165
4.48891
4.4618
4.43528
4.40953
4.38452
4.35982
4.33484
4.30908
4.28213
4.25376
4.22385
4.19235
4.1593
4.12477
4.0889
4.05184
4.01382
3.97508
3.936
3.89706
3.85887
3.82224
3.78742
3.75483
0.404686
0.364568
0.349621
0.342532
0.340298
0.341343
0.344737
0.349916
0.356533
0.364366
0.373257
0.383088
0.393764
0.405206
0.417346
0.430126
0.443498
0.457424
0.471876
0.486832
0.502278
0.518207
0.534614
0.551501
0.568872
0.586734
0.605097
0.623973
0.643376
0.663322
0.683827
0.70491
0.726593
0.748898
0.771847
0.795467
0.819784
0.844824
0.870618
0.897193
0.92458
0.952808
0.981906
1.0119
1.04283
1.07471
1.10758
1.14145
1.17636
1.21233
1.24938
1.28753
1.32679
1.36719
1.40874
1.45144
1.49531
1.54034
1.58653
1.63388
1.68237
1.73199
1.7827
1.83449
1.88732
1.94116
1.99597
2.0517
2.10831
2.16575
2.22396
2.28288
2.34246
2.40264
2.46335
2.52454
2.58615
2.64811
2.71036
2.77281
2.83539
2.89803
2.96066
3.02324
3.08572
3.14807
3.21027
3.27228
3.33409
3.39568
3.45702
3.51812
3.57894
3.63913
3.69868
3.7576
3.81585
3.8734
3.93016
3.98608
4.04109
4.09515
4.14819
4.20016
4.25101
4.30071
4.3492
4.39644
4.44238
4.48698
4.53019
4.57195
4.61221
4.65091
4.68801
4.72349
4.75733
4.7895
4.82001
4.84883
4.87596
4.90138
4.92508
4.94703
4.96719
4.98556
5.00216
5.01699
5.03007
5.0414
5.05101
5.05888
5.06498
5.06935
5.072
5.07292
5.07213
5.06962
5.06537
5.0594
5.0517
5.04225
5.03107
5.01815
5.00352
4.98721
4.9693
4.94986
4.92897
4.90663
4.88274
4.85714
4.8297
4.80061
4.77038
4.73953
4.7084
4.67715
4.64598
4.61517
4.5848
4.55467
4.52439
4.49353
4.46179
4.42894
4.39485
4.35949
4.32286
4.28504
4.24612
4.20625
4.16562
4.12448
4.08315
4.04208
4.00178
3.9629
3.92549
3.88979
0.417042
0.367725
0.349564
0.340909
0.337795
0.338217
0.341051
0.345655
0.351652
0.358812
0.366988
0.376073
0.385986
0.396659
0.408035
0.420066
0.432712
0.445939
0.459724
0.474047
0.488899
0.504274
0.52017
0.536591
0.553545
0.571041
0.589092
0.607713
0.626921
0.646736
0.667178
0.688271
0.710039
0.732507
0.755704
0.779659
0.804402
0.829966
0.856382
0.883685
0.911908
0.941086
0.971252
1.00244
1.03468
1.06801
1.10246
1.13805
1.17482
1.21279
1.25199
1.29244
1.33416
1.37717
1.42149
1.46711
1.51406
1.56233
1.61192
1.66283
1.71503
1.76851
1.82324
1.87918
1.9363
1.99457
2.05395
2.11438
2.17582
2.23821
2.30149
2.36559
2.43046
2.49603
2.56223
2.62898
2.69622
2.76387
2.83185
2.90005
2.96839
3.03677
3.10512
3.17338
3.24151
3.30947
3.37722
3.44476
3.51204
3.57906
3.64579
3.71223
3.77798
3.84301
3.90732
3.97091
4.03372
4.09569
4.15674
4.21678
4.27574
4.33357
4.39021
4.4456
4.49969
4.55243
4.60379
4.65372
4.70217
4.74908
4.79442
4.83814
4.88018
4.92042
4.95885
4.99545
5.0302
5.06309
5.09411
5.12325
5.1505
5.17587
5.19936
5.2209
5.24044
5.25801
5.27362
5.2873
5.29906
5.30891
5.31689
5.32299
5.32722
5.3296
5.33014
5.32887
5.32579
5.32091
5.31426
5.30584
5.29566
5.28374
5.2701
5.25475
5.23774
5.21911
5.19892
5.17726
5.15417
5.12966
5.10363
5.07593
5.04643
5.01522
4.98262
4.94901
4.91466
4.87978
4.8446
4.80942
4.77439
4.73946
4.7044
4.66892
4.63276
4.59574
4.55776
4.51876
4.47874
4.43776
4.3959
4.35329
4.31009
4.26654
4.22294
4.17966
4.13716
4.09595
4.05592
4.01723
0.429822
0.370424
0.348867
0.33865
0.334696
0.334529
0.336831
0.340881
0.346275
0.352786
0.360272
0.368642
0.377829
0.387778
0.398443
0.409784
0.421766
0.434361
0.44755
0.461316
0.47565
0.490549
0.506013
0.522048
0.538663
0.555869
0.573684
0.592123
0.611209
0.630963
0.651411
0.672579
0.694494
0.717186
0.740688
0.765033
0.790255
0.81639
0.843475
0.871549
0.900651
0.930819
0.962093
0.994511
1.02811
1.06293
1.09901
1.13638
1.17507
1.21512
1.25656
1.2994
1.34368
1.3894
1.4366
1.48527
1.53543
1.58708
1.64022
1.69484
1.75091
1.80841
1.8673
1.92755
1.9891
2.05193
2.116
2.18124
2.24762
2.31505
2.38349
2.45288
2.52314
2.5942
2.66598
2.7384
2.81137
2.8848
2.9586
3.03264
3.1068
3.18096
3.25506
3.32902
3.40279
3.47635
3.54965
3.62267
3.69539
3.76778
3.83982
3.91106
3.98148
4.05109
4.11988
4.18781
4.25484
4.32089
4.38583
4.44955
4.512
4.57313
4.63286
4.69115
4.74793
4.80318
4.85684
4.90888
4.95924
5.00787
5.05474
5.09983
5.14309
5.18427
5.22342
5.26055
5.29562
5.32864
5.3596
5.3885
5.41533
5.44008
5.46276
5.48333
5.50177
5.51809
5.53229
5.54441
5.55445
5.56246
5.56845
5.57244
5.57445
5.57451
5.57264
5.56887
5.56321
5.55568
5.54633
5.53517
5.52224
5.50755
5.49114
5.47305
5.45332
5.432
5.40917
5.38489
5.3592
5.3321
5.30354
5.27338
5.24152
5.20798
5.17296
5.13671
5.09946
5.06141
5.02279
4.98387
4.94486
4.90578
4.86653
4.82693
4.78681
4.74604
4.70452
4.66222
4.61911
4.57524
4.53068
4.48554
4.43996
4.39416
4.3484
4.30303
4.25842
4.21499
4.17251
4.13108
0.443064
0.372743
0.347633
0.33586
0.331087
0.330344
0.332115
0.335607
0.3404
0.346266
0.353079
0.36076
0.369256
0.378524
0.388527
0.399232
0.41061
0.422637
0.435293
0.448566
0.462448
0.476936
0.492032
0.507744
0.52408
0.541057
0.558692
0.577006
0.596025
0.615774
0.636284
0.657584
0.679706
0.702685
0.726557
0.751361
0.777134
0.803917
0.831753
0.860684
0.890755
0.922011
0.954499
0.988263
1.02335
1.0598
1.09767
1.13698
1.17779
1.22012
1.264
1.30947
1.35655
1.40526
1.45561
1.50762
1.56129
1.61662
1.67362
1.73226
1.79253
1.85436
1.91772
1.98254
2.04877
2.11638
2.18532
2.25554
2.32698
2.39958
2.47328
2.54803
2.62375
2.70037
2.7778
2.85594
2.93468
3.0139
3.09351
3.17336
3.25327
3.33314
3.41288
3.49244
3.57176
3.65078
3.72947
3.8078
3.88579
3.96324
4.03973
4.1153
4.18993
4.26361
4.3363
4.40797
4.47856
4.54807
4.61623
4.6829
4.74807
4.8117
4.87372
4.93408
4.99274
5.04964
5.10475
5.15804
5.20945
5.25894
5.30645
5.35196
5.39539
5.43665
5.47572
5.51257
5.54719
5.57959
5.60975
5.63768
5.66338
5.68685
5.70808
5.72705
5.74377
5.75823
5.77046
5.78046
5.78827
5.79393
5.79746
5.7989
5.79827
5.7956
5.79093
5.78429
5.7757
5.7652
5.75283
5.73863
5.72264
5.7049
5.68544
5.66433
5.64161
5.61734
5.59159
5.56441
5.53585
5.50592
5.47458
5.44176
5.40737
5.3714
5.33396
5.29523
5.25536
5.21455
5.17299
5.13092
5.08855
5.04596
5.00312
4.95997
4.91642
4.87237
4.82777
4.78258
4.73679
4.69041
4.6435
4.59614
4.54849
4.50071
4.45307
4.40587
4.35942
4.31403
4.26942
4.22564
0.456905
0.374825
0.346024
0.332694
0.327105
0.325771
0.326986
0.329898
0.334075
0.339297
0.345449
0.352469
0.360315
0.368952
0.378351
0.388483
0.399323
0.410848
0.423041
0.435889
0.449385
0.46353
0.478326
0.493783
0.509913
0.526731
0.544258
0.562519
0.581547
0.601375
0.622037
0.64357
0.666011
0.689402
0.713784
0.739199
0.765694
0.793312
0.822101
0.852109
0.883388
0.915989
0.949967
0.985373
1.02226
1.0607
1.10072
1.14239
1.18573
1.23078
1.27759
1.32617
1.37657
1.42879
1.48284
1.53874
1.59648
1.65606
1.71746
1.78069
1.8457
1.9124
1.9807
2.05054
2.12185
2.19457
2.26865
2.34403
2.42067
2.49853
2.57755
2.65769
2.73889
2.82104
2.90406
2.98782
3.0722
3.15706
3.24228
3.32774
3.41311
3.49841
3.58353
3.6684
3.75294
3.83709
3.92081
4.00407
4.08643
4.16775
4.24798
4.32711
4.40511
4.48195
4.55759
4.63197
4.70503
4.77668
4.8468
4.91526
4.98202
5.04701
5.11018
5.17148
5.23086
5.28828
5.34371
5.39712
5.44846
5.49768
5.54475
5.5896
5.63219
5.67247
5.7104
5.74597
5.77916
5.80996
5.83839
5.86446
5.88816
5.9095
5.92848
5.94508
5.95933
5.97122
5.98077
5.98801
5.99297
5.9957
5.99623
5.99459
5.99083
5.98498
5.97708
5.96717
5.95528
5.94147
5.92577
5.90823
5.88892
5.86787
5.84514
5.82078
5.79486
5.76745
5.7386
5.70838
5.67681
5.64393
5.60973
5.57417
5.53719
5.49878
5.45899
5.41791
5.37569
5.33246
5.28841
5.24373
5.1986
5.1531
5.1073
5.06121
5.0148
4.96803
4.92088
4.8733
4.82528
4.77685
4.72802
4.67887
4.62954
4.5802
4.53107
4.48242
4.4345
4.38757
4.34127
4.29564
0.471644
0.376887
0.344266
0.32937
0.322943
0.320973
0.321583
0.323873
0.32741
0.331985
0.337499
0.343898
0.351148
0.359222
0.368093
0.377735
0.388122
0.399234
0.411052
0.423566
0.43677
0.450668
0.465266
0.480578
0.496622
0.513417
0.530987
0.549353
0.568554
0.588641
0.609659
0.631653
0.654669
0.678757
0.703967
0.73035
0.757958
0.786842
0.817053
0.848645
0.881681
0.916227
0.952341
0.990064
1.02947
1.07063
1.11361
1.15848
1.20522
1.25388
1.3045
1.35712
1.41175
1.46843
1.52714
1.58789
1.65063
1.71536
1.78204
1.85066
1.92122
1.99355
2.06741
2.1428
2.21965
2.29788
2.3774
2.45811
2.54006
2.62322
2.70756
2.79301
2.8795
2.96692
3.05515
3.14407
3.23353
3.32333
3.4133
3.50333
3.59344
3.68355
3.77343
3.86292
3.95195
4.04047
4.12806
4.21445
4.29964
4.3836
4.46627
4.5476
4.62756
4.70611
4.7832
4.85877
4.93274
5.00503
5.07555
5.14421
5.21094
5.27571
5.33845
5.39913
5.45771
5.51414
5.5684
5.62046
5.67029
5.71783
5.76305
5.8059
5.84635
5.88436
5.9199
5.95297
5.98355
6.01164
6.03727
6.06044
6.08116
6.09942
6.11525
6.12864
6.1396
6.14814
6.15431
6.15811
6.1596
6.15881
6.1558
6.15061
6.14328
6.13384
6.12236
6.10886
6.0934
6.07602
6.05678
6.03575
6.01297
5.98851
5.96243
5.93478
5.90564
5.87507
5.84314
5.8099
5.77537
5.73958
5.70257
5.66434
5.62483
5.58405
5.542
5.49877
5.45444
5.40912
5.36297
5.31616
5.26883
5.22105
5.17294
5.12457
5.07595
5.02707
4.97793
4.92852
4.87882
4.82885
4.77861
4.72817
4.67766
4.62725
4.57712
4.5275
4.4786
4.43063
4.38319
4.33628
0.488467
0.379345
0.342618
0.326077
0.318727
0.316021
0.315929
0.317521
0.320373
0.324292
0.329189
0.335018
0.341746
0.349346
0.357789
0.36705
0.377104
0.38793
0.399512
0.411841
0.424917
0.438748
0.45335
0.468747
0.484967
0.502044
0.520011
0.538902
0.558749
0.579585
0.601477
0.624501
0.648722
0.674202
0.701004
0.729192
0.758831
0.789986
0.822692
0.857013
0.893049
0.930933
0.970604
1.01199
1.05525
1.1005
1.14786
1.19751
1.24913
1.30283
1.35869
1.41674
1.477
1.53947
1.60416
1.67101
1.73999
1.81101
1.88397
1.95869
2.03519
2.11339
2.19315
2.27441
2.35706
2.44098
2.526
2.61205
2.69929
2.78766
2.8771
2.96751
3.0588
3.15086
3.24356
3.33677
3.43032
3.52408
3.61798
3.71202
3.8061
3.89996
3.99344
4.0861
4.17758
4.26766
4.3564
4.44374
4.52965
4.61409
4.69701
4.77835
4.85806
4.9361
5.01241
5.08693
5.15959
5.23031
5.29903
5.36569
5.43025
5.49266
5.55291
5.61094
5.66673
5.72024
5.77145
5.82033
5.86686
5.91098
5.95267
5.99187
6.02859
6.06278
6.09446
6.12361
6.15022
6.17431
6.1959
6.215
6.23162
6.24577
6.25744
6.26667
6.27345
6.27783
6.27983
6.27949
6.27685
6.27196
6.26489
6.25566
6.24433
6.23095
6.21555
6.1982
6.17894
6.15783
6.13493
6.11032
6.08405
6.05619
6.0268
5.99594
5.96369
5.93011
5.89527
5.85922
5.82202
5.78369
5.74427
5.70376
5.66215
5.61942
5.5756
5.53073
5.48487
5.43811
5.39056
5.34236
5.29364
5.24436
5.19468
5.14475
5.09461
5.04429
4.99379
4.94314
4.89234
4.8414
4.79034
4.7392
4.68811
4.63721
4.58665
4.53663
4.48731
4.43888
4.39092
4.34338
0.50663
0.382477
0.34178
0.323622
0.315273
0.311721
0.310837
0.311693
0.31388
0.317216
0.321614
0.327025
0.333411
0.340738
0.348974
0.358092
0.368072
0.378899
0.390566
0.403073
0.416429
0.430654
0.445778
0.461843
0.478904
0.497018
0.516231
0.536596
0.558183
0.581105
0.605248
0.630546
0.657289
0.68558
0.715491
0.747099
0.780507
0.815875
0.853037
0.89204
0.932995
0.97597
1.02095
1.06797
1.11711
1.16844
1.22202
1.2779
1.33602
1.39638
1.459
1.52388
1.59103
1.66042
1.73203
1.80581
1.88167
1.95946
2.03896
2.11994
2.20256
2.28661
2.3718
2.4582
2.54579
2.63451
2.72433
2.81527
2.90722
3.00007
3.09372
3.18808
3.28302
3.37841
3.4741
3.56998
3.66584
3.76152
3.85696
3.9525
4.04757
4.14152
4.23385
4.32472
4.41415
4.50207
4.58848
4.67334
4.75661
4.83825
4.9182
4.99639
5.07277
5.14726
5.21981
5.29037
5.35887
5.42527
5.48953
5.55164
5.61157
5.6693
5.72481
5.77806
5.82903
5.87767
5.92395
5.96786
6.00936
6.04841
6.08498
6.11906
6.15064
6.17973
6.20632
6.23043
6.25204
6.27117
6.28784
6.30206
6.31383
6.32316
6.33007
6.33458
6.33671
6.33651
6.334
6.32924