/*--------------------------------*- C++ -*----------------------------------*\
| =========                 |                                                 |
| \\      /  F ield         | OpenFOAM: The Open Source CFD Toolbox           |
|  \\    /   O peration     | Version:  2112                                  |
|   \\  /    A nd           | Website:  www.openfoam.com                      |
|    \\/     M anipulation  |                                                 |
\*---------------------------------------------------------------------------*/
FoamFile
{
    version     2.0;
    format      ascii;
    arch        "LSB;label=32;scalar=64";
    class       volVectorField;
    location    "0.35";
    object      ddt0(U);
}
// * * * * * * * * * * * * * * * * * * * * * * * * * * * * * * * * * * * * * //

dimensions      [0 1 -2 0 0 0 0];

internalField   nonuniform List<vector> 
12225
(
(2.52629e-05 -1.20067e-05 0)
(0.000179571 -3.23912e-05 0)
(0.000485079 -5.44763e-05 0)
(0.000958141 -8.0538e-05 0)
(0.00159656 -0.000107256 0)
(0.00239473 -0.000132826 0)
(0.00334759 -0.000156541 0)
(0.00445271 -0.000179656 0)
(0.00570866 -0.000205451 0)
(0.00713408 -0.000244189 0)
(0.00878822 -0.000310529 0)
(0.010755 -0.00042572 0)
(0.0131925 -0.000647224 0)
(0.0163387 -0.00101845 0)
(0.0203503 -0.0018168 0)
(0.0265139 -0.00203471 0)
(0.0361428 -0.00422773 0)
(0.050138 -0.0122462 0)
(-8.57107e-06 -1.92176e-05 0)
(-1.56095e-06 -5.56306e-05 0)
(6.63918e-05 -0.00010056 0)
(0.000217649 -0.000158884 0)
(0.000489282 -0.000226477 0)
(0.00091116 -0.000303377 0)
(0.00151245 -0.000389524 0)
(0.00232175 -0.000485061 0)
(0.00336496 -0.000592266 0)
(0.00467302 -0.000724599 0)
(0.0062984 -0.000899375 0)
(0.00830236 -0.0011395 0)
(0.0107948 -0.00150422 0)
(0.0138867 -0.00206109 0)
(0.0181255 -0.00300889 0)
(0.0229512 -0.00414971 0)
(0.0312203 -0.00733854 0)
(0.0312455 -0.0138345 0)
(-3.9981e-07 -2.06444e-05 0)
(5.0435e-05 -6.69984e-05 0)
(0.00014791 -0.000127272 0)
(0.000286177 -0.000200907 0)
(0.000453443 -0.000284878 0)
(0.000651974 -0.000385528 0)
(0.00090862 -0.000503688 0)
(0.00122673 -0.000646708 0)
(0.00166202 -0.00081834 0)
(0.00226078 -0.00103768 0)
(0.0030781 -0.00132693 0)
(0.00417826 -0.00170872 0)
(0.00564894 -0.00224045 0)
(0.00764466 -0.00303612 0)
(0.010373 -0.00414367 0)
(0.0140131 -0.00637503 0)
(0.0184258 -0.00899776 0)
(0.0246466 -0.0161606 0)
(2.53614e-06 -2.62222e-05 0)
(4.33102e-05 -8.89971e-05 0)
(0.000155579 -0.000157323 0)
(0.000329217 -0.000242063 0)
(0.000560191 -0.000343579 0)
(0.000839532 -0.000462892 0)
(0.00116308 -0.000604816 0)
(0.00155508 -0.000774656 0)
(0.0020058 -0.000983659 0)
(0.00255018 -0.00124862 0)
(0.00312017 -0.00160888 0)
(0.00379969 -0.00209527 0)
(0.00462105 -0.00280254 0)
(0.00558316 -0.00383576 0)
(0.00673062 -0.00538907 0)
(0.00782204 -0.0077666 0)
(0.00870591 -0.0113108 0)
(0.00789942 -0.0164791 0)
(6.00283e-06 -3.2982e-05 0)
(4.99564e-05 -0.000108271 0)
(0.000146581 -0.000196876 0)
(0.000293419 -0.00030925 0)
(0.000511319 -0.000424195 0)
(0.000791612 -0.000560908 0)
(0.00113317 -0.000723088 0)
(0.00154785 -0.000920661 0)
(0.00204181 -0.00116318 0)
(0.00262261 -0.00147661 0)
(0.0033492 -0.00187729 0)
(0.00415813 -0.00239677 0)
(0.00512089 -0.00308757 0)
(0.00594741 -0.00415217 0)
(0.00683291 -0.00565449 0)
(0.0074804 -0.00785899 0)
(0.00787318 -0.0106711 0)
(0.00671224 -0.0145586 0)
(6.39034e-06 -4.04374e-05 0)
(5.76519e-05 -0.000128027 0)
(0.000157936 -0.000234484 0)
(0.000290797 -0.000360206 0)
(0.000474779 -0.000494376 0)
(0.000734977 -0.000656238 0)
(0.00105701 -0.000846906 0)
(0.00144413 -0.00107787 0)
(0.00190698 -0.00135662 0)
(0.00244428 -0.00170853 0)
(0.0030899 -0.00215539 0)
(0.00380661 -0.00273532 0)
(0.00463432 -0.00353814 0)
(0.00557092 -0.00459374 0)
(0.00639836 -0.00600235 0)
(0.0068866 -0.00793227 0)
(0.00678437 -0.0104511 0)
(0.0057198 -0.0135789 0)
(5.89392e-06 -4.98865e-05 0)
(5.90043e-05 -0.000153703 0)
(0.000163798 -0.000267751 0)
(0.000298974 -0.000401496 0)
(0.00045359 -0.000577035 0)
(0.000682951 -0.000760796 0)
(0.000974256 -0.000978494 0)
(0.00132568 -0.00124091 0)
(0.00174156 -0.00155489 0)
(0.00221866 -0.00195034 0)
(0.00276257 -0.00244937 0)
(0.00337269 -0.0030772 0)
(0.00401217 -0.00389836 0)
(0.00474664 -0.00492258 0)
(0.00537612 -0.00628465 0)
(0.0057706 -0.00804799 0)
(0.00560042 -0.0102433 0)
(0.00464655 -0.0126462 0)
(5.36492e-06 -5.9625e-05 0)
(5.68415e-05 -0.000180804 0)
(0.000159065 -0.00031145 0)
(0.000302796 -0.000457817 0)
(0.000456519 -0.000643331 0)
(0.000638891 -0.00086166 0)
(0.00089446 -0.00110129 0)
(0.00120357 -0.00139155 0)
(0.00156795 -0.00173957 0)
(0.00198121 -0.00217152 0)
(0.00244226 -0.00270554 0)
(0.00294479 -0.00336392 0)
(0.0034421 -0.00421509 0)
(0.0039062 -0.00529172 0)
(0.00427708 -0.00660711 0)
(0.00445693 -0.00817057 0)
(0.00426679 -0.00993839 0)
(0.00347153 -0.0117961 0)
(4.91883e-06 -6.93217e-05 0)
(5.33283e-05 -0.000208528 0)
(0.000150727 -0.000356356 0)
(0.000291183 -0.000517011 0)
(0.00046363 -0.000702643 0)
(0.000632825 -0.000939199 0)
(0.000835721 -0.00121529 0)
(0.00108678 -0.00154662 0)
(0.00139664 -0.00191026 0)
(0.00174513 -0.0023623 0)
(0.00212675 -0.00291888 0)
(0.0025326 -0.00359605 0)
(0.00292327 -0.00443854 0)
(0.00324747 -0.00546094 0)
(0.00344848 -0.00667221 0)
(0.00344741 -0.00806068 0)
(0.00314537 -0.00957023 0)
(0.00241562 -0.0110756 0)
(4.52091e-06 -7.89045e-05 0)
(4.92878e-05 -0.000236408 0)
(0.00014028 -0.000401694 0)
(0.000272049 -0.000580401 0)
(0.000440222 -0.000782219 0)
(0.000630924 -0.00101628 0)
(0.000830441 -0.00131505 0)
(0.00103234 -0.00165607 0)
(0.00125523 -0.00205671 0)
(0.00153043 -0.00254603 0)
(0.00181312 -0.00313535 0)
(0.00212599 -0.00380418 0)
(0.00241527 -0.00461561 0)
(0.00263758 -0.00557656 0)
(0.00273057 -0.00668711 0)
(0.00262892 -0.00791804 0)
(0.00227035 -0.00920515 0)
(0.00160026 -0.0104371 0)
(4.12098e-06 -8.82763e-05 0)
(4.48872e-05 -0.000263961 0)
(0.000128189 -0.000446771 0)
(0.000248844 -0.000643999 0)
(0.000403205 -0.000863814 0)
(0.000587987 -0.00111511 0)
(0.000792383 -0.00140726 0)
(0.00100922 -0.00174992 0)
(0.00121309 -0.00218047 0)
(0.00143228 -0.00268195 0)
(0.00161772 -0.00325751 0)
(0.00178701 -0.00394442 0)
(0.00194936 -0.0047654 0)
(0.00207074 -0.00566347 0)
(0.0020757 -0.00666544 0)
(0.00191713 -0.00773944 0)
(0.00155175 -0.00882843 0)
(0.000958338 -0.00984807 0)
(3.73936e-06 -9.66765e-05 0)
(4.05299e-05 -0.000288557 0)
(0.000115805 -0.000487063 0)
(0.000224661 -0.00070048 0)
(0.000363133 -0.000936614 0)
(0.000529407 -0.00120373 0)
(0.000716515 -0.00151248 0)
(0.000920754 -0.00186628 0)
(0.00112998 -0.00227948 0)
(0.00133271 -0.0027655 0)
(0.0015159 -0.00332925 0)
(0.00163857 -0.00402113 0)
(0.00168924 -0.00479365 0)
(0.0016714 -0.00565543 0)
(0.00158362 -0.0065984 0)
(0.00138129 -0.0075486 0)
(0.00101752 -0.00848719 0)
(0.000487565 -0.0093573 0)
(3.36697e-06 -0.000104577 0)
(3.59509e-05 -0.00031181 0)
(0.000102503 -0.000525173 0)
(0.000198491 -0.000753569 0)
(0.000319605 -0.00100469 0)
(0.000463658 -0.00128626 0)
(0.000625743 -0.00160749 0)
(0.000801655 -0.0019725 0)
(0.000983497 -0.00239457 0)
(0.00115719 -0.0028816 0)
(0.00131507 -0.0034325 0)
(0.00143363 -0.00405948 0)
(0.00148482 -0.00477146 0)
(0.00142164 -0.00559361 0)
(0.00124775 -0.00644811 0)
(0.000971357 -0.0073082 0)
(0.000601877 -0.00814973 0)
(0.000119982 -0.00891475 0)
(2.90566e-06 -0.000112811 0)
(3.03353e-05 -0.000336279 0)
(8.60678e-05 -0.000565175 0)
(0.000166044 -0.000808838 0)
(0.000265776 -0.00107481 0)
(0.000382384 -0.00137024 0)
(0.00051156 -0.00170271 0)
(0.000648201 -0.00207738 0)
(0.000785509 -0.0025027 0)
(0.000912404 -0.00298387 0)
(0.00101893 -0.00352107 0)
(0.00108968 -0.00412189 0)
(0.00110789 -0.00478023 0)
(0.00104793 -0.00548818 0)
(0.000889642 -0.00623417 0)
(0.000611878 -0.00700715 0)
(0.000243309 -0.0077459 0)
(-0.000206427 -0.00841657 0)
(2.29577e-06 -0.000120891 0)
(2.34301e-05 -0.000360374 0)
(6.59898e-05 -0.000604345 0)
(0.000126439 -0.000862272 0)
(0.000200392 -0.00114141 0)
(0.000284448 -0.00144819 0)
(0.000374337 -0.00178877 0)
(0.000464644 -0.00216786 0)
(0.000548785 -0.00259032 0)
(0.000617846 -0.00305926 0)
(0.000662281 -0.00357463 0)
(0.000671075 -0.00413662 0)
(0.000632215 -0.00473881 0)
(0.000532326 -0.00537432 0)
(0.000362094 -0.00602554 0)
(0.000115025 -0.00667324 0)
(-0.000208649 -0.00729861 0)
(-0.00059884 -0.00788135 0)
(1.49846e-06 -0.000127921 0)
(1.50577e-05 -0.000381236 0)
(4.19612e-05 -0.000637885 0)
(7.92581e-05 -0.00090706 0)
(0.000123028 -0.00119548 0)
(0.000169737 -0.00150864 0)
(0.000215234 -0.0018513 0)
(0.000254392 -0.00222697 0)
(0.000281218 -0.00263817 0)
(0.000288669 -0.00308592 0)
(0.000269266 -0.00356882 0)
(0.000215348 -0.00408381 0)
(0.000119436 -0.00462475 0)
(-2.49378e-05 -0.00518311 0)
(-0.000221587 -0.00574656 0)
(-0.000470996 -0.00630273 0)
(-0.00076919 -0.00683741 0)
(-0.00110775 -0.00733867 0)
(5.45702e-07 -0.000132644 0)
(5.31143e-06 -0.000394755 0)
(1.41946e-05 -0.000658667 0)
(2.50201e-05 -0.00093299 0)
(3.48086e-05 -0.00122368 0)
(4.03878e-05 -0.00153514 0)
(3.80822e-05 -0.00187076 0)
(2.36648e-05 -0.00223272 0)
(-7.63559e-06 -0.00262193 0)
(-6.08482e-05 -0.00303783 0)
(-0.000140884 -0.00347812 0)
(-0.000252275 -0.00393893 0)
(-0.000398688 -0.00441468 0)
(-0.000582414 -0.00489828 0)
(-0.000803852 -0.00538151 0)
(-0.0010609 -0.0058559 0)
(-0.00134914 -0.0063133 0)
(-0.00166224 -0.00674847 0)
(-3.76901e-07 -0.000132532 0)
(-5.00057e-06 -0.00039427 0)
(-1.57919e-05 -0.000656379 0)
(-3.37747e-05 -0.000926252 0)
(-6.03834e-05 -0.00120881 0)
(-9.78768e-05 -0.00150736 0)
(-0.000148982 -0.0018241 0)
(-0.000216696 -0.00216009 0)
(-0.000303997 -0.00251527 0)
(-0.000413807 -0.00288834 0)
(-0.000548753 -0.00327686 0)
(-0.000710783 -0.00367739 0)
(-0.000900948 -0.00408563 0)
(-0.0011192 -0.00449671 0)
(-0.0013642 -0.00490548 0)
(-0.00163329 -0.00530708 0)
(-0.00192264 -0.00569722 0)
(-0.00222783 -0.00607389 0)
(-1.73438e-06 -0.000124619 0)
(-1.70598e-05 -0.000370693 0)
(-4.84592e-05 -0.00061602 0)
(-9.57415e-05 -0.000866467 0)
(-0.00015867 -0.00112578 0)
(-0.000238254 -0.00139628 0)
(-0.000335982 -0.00167927 0)
(-0.000453301 -0.00197514 0)
(-0.000591522 -0.00228335 0)
(-0.000751756 -0.00260263 0)
(-0.000934752 -0.00293098 0)
(-0.00114072 -0.00326589 0)
(-0.00136922 -0.0036045 0)
(-0.00161912 -0.00394383 0)
(-0.00188861 -0.00428099 0)
(-0.00217524 -0.00461341 0)
(-0.00247604 -0.00493898 0)
(-0.00278823 -0.00525723 0)
(-2.59737e-06 -0.00011145 0)
(-2.55337e-05 -0.000330718 0)
(-7.20915e-05 -0.000548233 0)
(-0.000140932 -0.000768874 0)
(-0.000230294 -0.000995578 0)
(-0.00034008 -0.00123003 0)
(-0.000470761 -0.00147306 0)
(-0.000622674 -0.00172477 0)
(-0.000796007 -0.00198461 0)
(-0.000990799 -0.00225154 0)
(-0.00120682 -0.00252409 0)
(-0.00144344 -0.00280053 0)
(-0.00169964 -0.00307902 0)
(-0.00197394 -0.00335773 0)
(-0.00226448 -0.003635 0)
(-0.00256909 -0.00390938 0)
(-0.00288534 -0.00417973 0)
(-0.00321132 -0.00444612 0)
(-3.06469e-06 -9.73117e-05 0)
(-3.0807e-05 -0.00028857 0)
(-8.727e-05 -0.000478107 0)
(-0.00017017 -0.000669964 0)
(-0.000276598 -0.000866439 0)
(-0.000405668 -0.00106878 0)
(-0.000557147 -0.00127752 0)
(-0.000730657 -0.00149256 0)
(-0.000925713 -0.00171336 0)
(-0.00114177 -0.00193902 0)
(-0.0013781 -0.00216839 0)
(-0.00163372 -0.00240022 0)
(-0.00190737 -0.00263323 0)
(-0.00219751 -0.0028662 0)
(-0.00250235 -0.00309808 0)
(-0.00281997 -0.00332803 0)
(-0.00314822 -0.00355539 0)
(-0.00348564 -0.00378045 0)
(-3.43523e-06 -8.29878e-05 0)
(-3.48133e-05 -0.00024608 0)
(-9.86212e-05 -0.000407855 0)
(-0.000191752 -0.000571582 0)
(-0.000310434 -0.000739066 0)
(-0.000453179 -0.000911256 0)
(-0.000619192 -0.00108844 0)
(-0.000807572 -0.00127037 0)
(-0.0010174 -0.0014565 0)
(-0.0012478 -0.001646 0)
(-0.00149778 -0.00183797 0)
(-0.00176623 -0.00203144 0)
(-0.0020518 -0.0022255 0)
(-0.00235299 -0.00241932 0)
(-0.00266817 -0.00261224 0)
(-0.00299558 -0.00280381 0)
(-0.00333327 -0.00299368 0)
(-0.00368009 -0.00318222 0)
(-3.72045e-06 -6.91382e-05 0)
(-3.79321e-05 -0.000205131 0)
(-0.000107319 -0.000340472 0)
(-0.00020802 -0.000477732 0)
(-0.000335609 -0.00061841 0)
(-0.000488076 -0.000763206 0)
(-0.000664133 -0.000912125 0)
(-0.000862482 -0.00106478 0)
(-0.00108193 -0.00122056 0)
(-0.00132139 -0.00137871 0)
(-0.00157982 -0.0015384 0)
(-0.00185606 -0.0016989 0)
(-0.00214878 -0.0018595 0)
(-0.00245658 -0.00201958 0)
(-0.00277801 -0.0021788 0)
(-0.00311152 -0.00233695 0)
(-0.00345521 -0.00249396 0)
(-0.00380807 -0.00265026 0)
(-3.97024e-06 -5.60824e-05 0)
(-4.05189e-05 -0.000166844 0)
(-0.000114167 -0.000277815 0)
(-0.000220366 -0.000390799 0)
(-0.00035412 -0.000507294 0)
(-0.000512828 -0.000627914 0)
(-0.000694817 -0.000752215 0)
(-0.000898629 -0.000879489 0)
(-0.00112298 -0.00100899 0)
(-0.00136673 -0.00113991 0)
(-0.00162887 -0.00127146 0)
(-0.00190828 -0.00140316 0)
(-0.00220367 -0.00153433 0)
(-0.00251384 -0.00166439 0)
(-0.00283757 -0.00179341 0)
(-0.00317345 -0.00192158 0)
(-0.00351963 -0.00204904 0)
(-0.0038753 -0.00217628 0)
(-4.24585e-06 -4.3867e-05 0)
(-4.26712e-05 -0.000131669 0)
(-0.00011902 -0.00022059 0)
(-0.000228294 -0.000311528 0)
(-0.000364854 -0.000405648 0)
(-0.000525657 -0.000504068 0)
(-0.000708905 -0.000606264 0)
(-0.000913298 -0.000711316 0)
(-0.00113764 -0.000818282 0)
(-0.0013808 -0.000926256 0)
(-0.00164191 -0.00103435 0)
(-0.00191969 -0.00114259 0)
(-0.00221296 -0.00125017 0)
(-0.00252096 -0.00135593 0)
(-0.00284283 -0.00146018 0)
(-0.00317707 -0.00156355 0)
(-0.00352165 -0.00166653 0)
(-0.00387603 -0.00176964 0)
(-4.54825e-06 -3.23558e-05 0)
(-4.35512e-05 -9.93402e-05 0)
(-0.000119748 -0.000168842 0)
(-0.000227871 -0.000241672 0)
(-0.000360603 -0.000320788 0)
(-0.000518056 -0.000403372 0)
(-0.000698302 -0.000488745 0)
(-0.000899484 -0.000576362 0)
(-0.00111992 -0.000665282 0)
(-0.00135811 -0.000754412 0)
(-0.00161342 -0.000842648 0)
(-0.00188406 -0.000929691 0)
(-0.00217089 -0.00101498 0)
(-0.0024713 -0.00109889 0)
(-0.00278502 -0.0011814 0)
(-0.00311088 -0.00126266 0)
(-0.00344666 -0.00134319 0)
(-0.00379234 -0.00142356 0)
(-4.07129e-06 -2.30217e-05 0)
(-4.02827e-05 -7.37003e-05 0)
(-0.000113098 -0.000128563 0)
(-0.000215865 -0.000186946 0)
(-0.000339234 -0.000249657 0)
(-0.00048912 -0.000317933 0)
(-0.000661494 -0.00038843 0)
(-0.000852391 -0.000460565 0)
(-0.00105852 -0.00053354 0)
(-0.00127756 -0.000606268 0)
(-0.00150838 -0.000677018 0)
(-0.00174964 -0.000748326 0)
(-0.00200867 -0.000816069 0)
(-0.00227729 -0.000878869 0)
(-0.00255557 -0.000941231 0)
(-0.00284392 -0.00100364 0)
(-0.00314121 -0.00106635 0)
(-0.0034496 -0.00113062 0)
(-8.10573e-07 -1.67144e-05 0)
(-2.99588e-05 -5.28779e-05 0)
(-9.31769e-05 -9.33514e-05 0)
(-0.000179478 -0.000140606 0)
(-0.00029598 -0.000190409 0)
(-0.000423009 -0.000243648 0)
(-0.000558435 -0.000301538 0)
(-0.000702854 -0.000363396 0)
(-0.000858392 -0.000427558 0)
(-0.00102931 -0.000491898 0)
(-0.001219 -0.000554476 0)
(-0.00143579 -0.000612872 0)
(-0.0016703 -0.000668737 0)
(-0.00193698 -0.000720885 0)
(-0.00223868 -0.000769561 0)
(-0.00257634 -0.000815474 0)
(-0.00294963 -0.000859549 0)
(-0.00335742 -0.000904067 0)
(4.31744e-06 -1.44143e-05 0)
(1.44625e-06 -4.23396e-05 0)
(-2.7564e-05 -7.35052e-05 0)
(-9.25891e-05 -0.000108682 0)
(-0.00019385 -0.000148856 0)
(-0.000344779 -0.000194222 0)
(-0.000554979 -0.000243137 0)
(-0.000830596 -0.000293003 0)
(-0.00117449 -0.000341236 0)
(-0.0015867 -0.000385568 0)
(-0.00206416 -0.000423715 0)
(-0.00260194 -0.000455894 0)
(-0.00319457 -0.000481483 0)
(-0.00383454 -0.000498967 0)
(-0.00451314 -0.000509246 0)
(-0.00522305 -0.000514155 0)
(-0.00595795 -0.000515435 0)
(-0.00671435 -0.000514883 0)
(-1.45375e-05 -9.59702e-06 0)
(-0.000106207 -2.63002e-05 0)
(-0.000284602 -4.36816e-05 0)
(-0.000550612 -6.26949e-05 0)
(-0.000898966 -8.18775e-05 0)
(-0.00132575 -0.000100905 0)
(-0.0018256 -0.000118243 0)
(-0.00238911 -0.000132123 0)
(-0.00300296 -0.00014135 0)
(-0.00365153 -0.000145293 0)
(-0.00431762 -0.000143853 0)
(-0.00498525 -0.000137891 0)
(-0.00564154 -0.000128036 0)
(-0.00627432 -0.000114497 0)
(-0.00687375 -9.89792e-05 0)
(-0.00743443 -8.34472e-05 0)
(-0.0079557 -6.87356e-05 0)
(-0.00843564 -5.66033e-05 0)
(-0.0125042 0.0156236 -1.87377e-22)
(-0.0276932 0.00944316 -2.16783e-22)
(-0.0512087 -0.0086854 0)
(-0.070584 -0.0178266 0)
(-0.086603 -0.00273091 0)
(-0.105981 0.0313172 2.70803e-21)
(-0.132076 0.0692516 0)
(-0.164401 0.0991294 0)
(-0.199666 0.116489 0)
(-0.235081 0.122383 0)
(-0.268526 0.11964 -2.16804e-21)
(-0.298614 0.110859 0)
(-0.324458 0.0979902 0)
(-0.345418 0.0826054 0)
(-0.360787 0.0653206 0)
(-0.372241 0.0436855 -6.7407e-22)
(-0.378965 0.0421256 0)
(-0.386003 0.0522805 0)
(-0.397368 0.0475937 0)
(-0.407199 0.0376662 0)
(-0.415276 0.0294952 0)
(-0.422743 0.0240002 0)
(-0.430389 0.0205739 0)
(-0.438738 0.0187388 1.28136e-22)
(-0.448185 0.018144 -1.59477e-22)
(-0.459002 0.0184583 1.84444e-22)
(-0.471334 0.01937 2.04985e-22)
(-0.485213 0.0206097 0)
(-0.500581 0.0219643 0)
(-0.517313 0.0232792 -2.51988e-22)
(-0.535239 0.024453 -2.65004e-22)
(-0.554168 0.0254268 0)
(-0.573895 0.026174 0)
(-0.594217 0.0266891 -2.9993e-22)
(-0.614936 0.0269794 0)
(-0.635864 0.027058 0)
(-0.65682 0.0269397 3.3e-22)
(-0.677633 0.0266379 0)
(-0.698136 0.0261637 3.47351e-22)
(-0.71817 0.0255255 7.1028e-22)
(-0.737578 0.024729 0)
(-0.756204 0.0237786 0)
(-0.773896 0.0226771 0)
(-0.790502 0.0214272 0)
(-0.80587 0.0200317 0)
(-0.819852 0.0184942 7.73564e-22)
(-0.832302 0.0168194 7.78122e-22)
(-0.843078 0.0150133 7.80672e-22)
(-0.852043 0.0130835 0)
(-0.859067 0.0110392 -7.79305e-22)
(-0.864028 0.00889122 0)
(-0.866816 0.00665232 7.68628e-22)
(-0.867331 0.00433673 7.5957e-22)
(-0.865486 0.00196016 0)
(-0.861211 -0.000460342 0)
(-0.854452 -0.00290673 0)
(-0.845172 -0.00536018 6.97033e-22)
(-0.833354 -0.00780148 0)
(-0.818999 -0.0102113 0)
(-0.802129 -0.0125706 0)
(-0.782786 -0.0148609 0)
(-0.76103 -0.0170647 0)
(-0.736942 -0.0191656 0)
(-0.710619 -0.0211489 0)
(-0.682175 -0.0230017 0)
(-0.651741 -0.0247129 -4.03622e-22)
(-0.619458 -0.0262739 0)
(-0.58548 -0.0276785 0)
(-0.54997 -0.0289227 2.67117e-22)
(-0.513097 -0.030005 2.18712e-22)
(-0.475034 -0.0309262 0)
(-0.435957 -0.0316893 -1.18786e-22)
(-0.396043 -0.0322989 6.76992e-23)
(-0.355465 -0.0327615 0)
(-0.314393 -0.0330842 3.56217e-23)
(-0.272993 -0.0332748 0)
(-0.231427 -0.0333403 0)
(-0.189849 -0.0332862 -1.90221e-22)
(-0.148409 -0.0331154 0)
(-0.107253 -0.0328282 2.90622e-22)
(-0.0665222 -0.0324218 0)
(-0.0263565 -0.0318921 -3.87159e-22)
(0.0131075 -0.0312349 -4.33588e-22)
(0.0517367 -0.0304489 -4.7862e-22)
(0.089403 -0.0295373 -1.04431e-21)
(0.125986 -0.0285087 1.12823e-21)
(0.161377 -0.0273774 0)
(0.195478 -0.0261615 0)
(0.228207 -0.0248808 0)
(0.259493 -0.0235544 1.43105e-21)
(0.289282 -0.0221992 1.49846e-21)
(0.317526 -0.0208282 -1.56239e-21)
(0.344189 -0.0194511 0)
(0.369238 -0.018075 1.67877e-21)
(0.392649 -0.016706 1.73062e-21)
(0.414403 -0.0153512 1.77792e-21)
(0.434496 -0.0140195 0)
(0.452935 -0.0127211 0)
(0.469746 -0.011466 0)
(0.484969 -0.0102631 1.92004e-21)
(0.49866 -0.00911971 0)
(0.510887 -0.00804259 0)
(0.521732 -0.00703797 -1.97978e-21)
(0.531288 -0.00611177 0)
(0.539661 -0.00526947 0)
(0.546967 -0.00451578 -2.00608e-21)
(0.553331 -0.00385412 0)
(0.558882 -0.00328631 0)
(0.563755 -0.00281269 2.00774e-21)
(0.568083 -0.00243267 2.00441e-21)
(0.571995 -0.00214684 0)
(0.575618 -0.00196023 -1.99368e-21)
(0.579076 -0.00188521 0)
(0.582465 -0.00193387 1.97881e-21)
(0.585888 -0.00210018 0)
(0.589519 -0.00226826 1.96109e-21)
(0.593152 -0.00184837 1.94979e-21)
(0.596725 -0.000830104 0)
(0.60126 -0.000236576 0)
(0.606006 -0.000874937 0)
(0.610844 -0.00130113 0)
(0.616033 -0.00163323 0)
(0.621604 -0.00193915 0)
(0.627586 -0.00223558 0)
(0.633997 -0.00253209 1.82908e-21)
(0.640855 -0.00283574 -1.80825e-21)
(0.648174 -0.00315124 0)
(0.655968 -0.00348196 0)
(0.664252 -0.00383063 0)
(0.673036 -0.00419948 0)
(0.682331 -0.00459045 -3.3747e-21)
(0.692146 -0.00500561 0)
(0.702488 -0.0054473 3.26605e-21)
(0.713362 -0.00591807 -3.20954e-21)
(0.724775 -0.0064196 0)
(0.736727 -0.00694927 0)
(0.749202 -0.0074863 0)
(0.762169 -0.007963 2.96703e-21)
(0.775636 -0.00831605 2.90115e-21)
(0.789608 -0.00865283 0)
(0.804039 -0.00896777 2.76043e-21)
(0.818885 -0.00924123 2.6843e-21)
(0.834086 -0.00945675 -2.6033e-21)
(0.849562 -0.00959737 0)
(0.865215 -0.00965203 0)
(0.880922 -0.0096205 -2.32202e-21)
(0.89655 -0.0095133 0)
(0.91195 -0.00934488 0)
(0.926961 -0.0091231 0)
(0.941398 -0.00884522 0)
(0.955059 -0.00849793 1.66372e-21)
(0.967718 -0.00806302 1.49412e-21)
(0.979125 -0.00752795 0)
(0.989021 -0.00688869 1.10899e-21)
(0.997146 -0.00614492 0)
(1.00323 -0.00529608 0)
(1.007 -0.00435557 4.04728e-22)
(1.00823 -0.00334666 0)
(1.00674 -0.00229631 -1.53468e-22)
(1.0024 -0.00123005 0)
(0.995143 -0.000165607 0)
(0.984904 0.000901912 -1.11441e-21)
(0.971611 0.00196155 0)
(0.955253 0.00298356 -1.82386e-21)
(0.935876 0.00395069 0)
(0.913568 0.00486408 0)
(0.888351 0.00578161 0)
(0.860111 0.00674581 3.3605e-21)
(0.828705 0.00775987 0)
(0.794018 0.00884677 -4.18305e-21)
(0.755781 0.0101067 0)
(0.713488 0.0116423 0)
(0.666468 0.0135911 0)
(0.613557 0.0163292 0)
(0.55336 0.0207191 0)
(0.478543 0.0268885 0)
(0.394593 0.0284254 0)
(0.313434 0.0273562 1.65802e-20)
(0.201431 0.0350478 0)
(0.100242 0.0351408 0)
(-0.0285797 0.0652907 5.69331e-22)
(-0.0395199 0.0857634 7.20408e-22)
(-0.0869488 0.0921921 0)
(-0.133736 0.0872799 -3.17738e-21)
(-0.175002 0.0787652 0)
(-0.207253 0.0706614 -3.00352e-21)
(-0.230036 0.0636658 6.5796e-21)
(-0.245929 0.0570424 6.54253e-21)
(-0.257501 0.0502148 0)
(-0.266931 0.0431949 5.43813e-21)
(-0.27569 0.0361272 2.30189e-21)
(-0.284629 0.0290971 0)
(-0.294193 0.0222139 0)
(-0.304594 0.015828 0)
(-0.316122 0.010469 0)
(-0.330146 0.00612013 6.69386e-22)
(-0.344943 0.00339203 0)
(-0.357598 0.00485191 -6.2946e-22)
(-0.368838 0.00702987 0)
(-0.381166 0.00882666 0)
(-0.394997 0.0107875 -9.34693e-23)
(-0.4099 0.0133073 0)
(-0.425592 0.0163973 3.37562e-22)
(-0.441994 0.019904 -2.1957e-22)
(-0.459107 0.0236355 2.46449e-22)
(-0.476951 0.0274026 -2.66642e-22)
(-0.495546 0.0310364 -2.82236e-22)
(-0.514903 0.0343991 0)
(-0.53501 0.0373887 0)
(-0.555832 0.0399386 3.14409e-22)
(-0.577306 0.0420138 -3.10463e-22)
(-0.599344 0.0436034 0)
(-0.621838 0.0447145 0)
(-0.64466 0.045365 3.44401e-22)
(-0.667671 0.0455784 0)
(-0.690719 0.0453799 0)
(-0.713647 0.0447938 -3.6273e-22)
(-0.736293 0.0438416 0)
(-0.758491 0.0425424 3.60309e-22)
(-0.780073 0.0409121 -7.55155e-22)
(-0.800871 0.0389645 0)
(-0.820716 0.0367119 0)
(-0.839438 0.0341657 -1.52903e-21)
(-0.856869 0.0313375 -1.53936e-21)
(-0.872843 0.0282393 -1.54722e-21)
(-0.887195 0.0248848 7.66211e-22)
(-0.899766 0.0212891 -7.86595e-22)
(-0.9104 0.0174695 -2.3392e-21)
(-0.918952 0.0134459 1.54968e-21)
(-0.925281 0.00924038 7.77543e-22)
(-0.929262 0.00487786 0)
(-0.930778 0.000385751 -7.61957e-22)
(-0.929729 -0.0042061 7.44488e-22)
(-0.926033 -0.00886567 0)
(-0.919623 -0.0135591 0)
(-0.910454 -0.0182511 0)
(-0.898501 -0.0229058 -6.8495e-22)
(-0.883762 -0.0274866 0)
(-0.866256 -0.0319577 1.28429e-21)
(-0.846026 -0.036284 0)
(-0.823134 -0.040432 1.17678e-21)
(-0.797668 -0.0443703 0)
(-0.769734 -0.0480703 -1.05129e-21)
(-0.739457 -0.0515064 0)
(-0.70698 -0.0546565 9.09109e-22)
(-0.672462 -0.0575025 -4.27712e-22)
(-0.636074 -0.0600304 0)
(-0.598 -0.0622303 -6.68824e-22)
(-0.558429 -0.0640966 -2.77698e-22)
(-0.517559 -0.0656276 -2.3294e-22)
(-0.475591 -0.0668257 0)
(-0.432726 -0.0676964 -1.71122e-22)
(-0.389165 -0.0682484 -9.40794e-23)
(-0.345107 -0.0684931 0)
(-0.300747 -0.0684434 -1.87705e-25)
(-0.256273 -0.0681141 6.25756e-23)
(-0.21187 -0.0675206 0)
(-0.167713 -0.0666786 1.39755e-22)
(-0.123969 -0.0656039 0)
(-0.0807952 -0.0643128 -6.56447e-22)
(-0.0383374 -0.0628217 0)
(0.00327242 -0.0611477 9.12679e-22)
(0.0439177 -0.0593089 3.54874e-22)
(0.083498 -0.0573241 -3.66186e-22)
(0.121929 -0.0552125 -8.1114e-22)
(0.15914 -0.0529935 8.88095e-22)
(0.195073 -0.050686 0)
(0.229676 -0.0483079 0)
(0.262903 -0.0458754 0)
(0.29471 -0.0434028 -3.62877e-21)
(0.325053 -0.0409022 -1.29065e-21)
(0.353887 -0.0383837 1.35562e-21)
(0.381169 -0.0358557 0)
(0.406854 -0.0333268 1.44699e-21)
(0.430904 -0.0308073 -1.53405e-21)
(0.453288 -0.0283111 -1.58637e-21)
(0.473989 -0.0258563 0)
(0.493008 -0.0234643 0)
(0.510369 -0.0211564 0)
(0.526115 -0.0189519 -1.752e-21)
(0.540307 -0.0168677 0)
(0.553023 -0.0149185 3.60226e-21)
(0.564357 -0.0131179 5.47698e-21)
(0.574416 -0.0114776 -3.68386e-21)
(0.583319 -0.0100075 0)
(0.5912 -0.00871507 -1.86275e-21)
(0.598196 -0.0076043 0)
(0.604454 -0.00667504 -3.76476e-21)
(0.610119 -0.00592297 1.881e-21)
(0.615334 -0.00533922 1.88268e-21)
(0.620236 -0.00491121 0)
(0.624952 -0.00462184 5.66363e-21)
(0.629599 -0.00444522 -3.76725e-21)
(0.634258 -0.00433401 -1.88515e-21)
(0.638987 -0.00426659 0)
(0.644174 -0.00460575 -1.8756e-21)
(0.64973 -0.00519682 -5.59617e-21)
(0.655109 -0.00555347 0)
(0.660198 -0.00545232 -3.6926e-21)
(0.666101 -0.00578365 -3.67268e-21)
(0.672699 -0.00612348 -3.65002e-21)
(0.679733 -0.00648691 0)
(0.6872 -0.00686885 0)
(0.695104 -0.00726362 0)
(0.703457 -0.0076664 1.75745e-21)
(0.712265 -0.00807385 1.75179e-21)
(0.721531 -0.0084834 0)
(0.731253 -0.00889289 3.40312e-21)
(0.741427 -0.00930046 3.35584e-21)
(0.752044 -0.00970405 0)
(0.763093 -0.0101014 3.27243e-21)
(0.774559 -0.0104904 6.40029e-21)
(0.786422 -0.0108691 -3.16425e-21)
(0.79866 -0.0112359 -3.06472e-21)
(0.811247 -0.0115885 0)
(0.824152 -0.0119236 0)
(0.837348 -0.0122354 0)
(0.850813 -0.0125011 -2.85876e-21)
(0.864484 -0.0126881 2.73706e-21)
(0.87831 -0.0128403 5.38434e-21)
(0.892266 -0.0129582 -2.64661e-21)
(0.906307 -0.0130414 2.5084e-21)
(0.920386 -0.0130784 2.48762e-21)
(0.934459 -0.0130595 0)
(0.948473 -0.0129728 0)
(0.962358 -0.012803 -2.14248e-21)
(0.976015 -0.0125303 0)
(0.989301 -0.0121305 0)
(1.00201 -0.0115763 3.64015e-21)
(1.01387 -0.0108473 0)
(1.02461 -0.00993203 1.49336e-21)
(1.03391 -0.00882385 -1.38417e-21)
(1.0415 -0.00752235 0)
(1.0471 -0.00603172 9.44771e-22)
(1.05044 -0.00435724 0)
(1.05126 -0.00250127 0)
(1.04931 -0.000485949 -2.90889e-22)
(1.04436 0.00165041 3.92139e-25)
(1.03623 0.00386446 2.69932e-22)
(1.02483 0.006115 0)
(1.01008 0.00836844 0)
(0.991972 0.0106262 -1.26628e-21)
(0.970464 0.0128673 0)
(0.94558 0.0150433 -1.9846e-21)
(0.917383 0.0171268 0)
(0.88598 0.0191104 0)
(0.851432 0.0210677 0)
(0.81371 0.0230506 -3.54821e-21)
(0.772722 0.0250574 0)
(0.728388 0.0271105 4.4152e-21)
(0.680495 0.0293347 0)
(0.628675 0.0318546 0)
(0.572421 0.0348084 -1.17109e-20)
(0.510942 0.0386199 1.27614e-20)
(0.443589 0.0442543 0)
(0.368186 0.0506002 0)
(0.282412 0.054139 0)
(0.189754 0.0610869 -5.15442e-20)
(0.0714016 0.0698108 0)
(-0.0268129 0.0713298 3.77572e-20)
(-0.0305581 0.137621 1.28717e-24)
(-0.0570498 0.164806 -2.47298e-22)
(-0.098036 0.171643 0)
(-0.141622 0.163741 6.12112e-21)
(-0.177184 0.149508 0)
(-0.205401 0.13643 0)
(-0.226748 0.126718 -2.20998e-23)
(-0.242892 0.119365 -6.31462e-21)
(-0.255215 0.112856 -5.80722e-21)
(-0.264981 0.106269 -5.16692e-21)
(-0.273342 0.0992001 0)
(-0.281262 0.0915706 0)
(-0.289504 0.0835678 2.93384e-21)
(-0.298643 0.0756657 4.58713e-21)
(-0.309089 0.0685732 -3.44893e-21)
(-0.321201 0.0630899 0)
(-0.334728 0.060321 -1.62144e-21)
(-0.34868 0.0597339 4.89826e-22)
(-0.362817 0.059429 0)
(-0.377787 0.059109 6.76517e-23)
(-0.393871 0.0592315 1.86168e-22)
(-0.411023 0.0601349 -6.62357e-22)
(-0.429125 0.0619085 -4.13633e-22)
(-0.448072 0.0644788 0)
(-0.467778 0.0676773 1.09324e-21)
(-0.488169 0.0712842 1.16785e-21)
(-0.509185 0.0750629 0)
(-0.53077 0.0787873 1.26632e-21)
(-0.552866 0.0822603 0)
(-0.57541 0.0853237 1.32875e-21)
(-0.598329 0.0878604 6.65896e-22)
(-0.621536 0.0897916 0)
(-0.644929 0.0910707 0)
(-0.668392 0.0916759 0)
(-0.691799 0.0916034 0)
(-0.715009 0.0908605 0)
(-0.737873 0.089461 0)
(-0.760234 0.0874217 1.4716e-21)
(-0.781931 0.0847602 -2.21336e-21)
(-0.802797 0.0814938 0)
(-0.822661 0.0776396 0)
(-0.841352 0.0732147 0)
(-0.8587 0.0682367 -1.96013e-23)
(-0.874531 0.0627252 1.49544e-21)
(-0.88868 0.0567021 3.01073e-21)
(-0.900981 0.0501925 -3.00699e-21)
(-0.911276 0.043226 -1.50672e-21)
(-0.919413 0.0358363 1.48455e-21)
(-0.925249 0.0280625 1.27764e-23)
(-0.928655 0.0199487 1.47323e-21)
(-0.929512 0.0115442 0)
(-0.927717 0.00290382 1.43376e-21)
(-0.923184 -0.0059133 6.23857e-24)
(-0.915847 -0.0148436 0)
(-0.90566 -0.0238203 0)
(-0.892599 -0.032774 -1.30767e-21)
(-0.876662 -0.0416343 0)
(-0.857872 -0.0503305 0)
(-0.836276 -0.0587933 1.16321e-21)
(-0.811942 -0.0669554 2.22743e-21)
(-0.784962 -0.0747535 -1.06396e-21)
(-0.755452 -0.0821286 0)
(-0.723543 -0.0890273 9.37334e-22)
(-0.689389 -0.095403 0)
(-0.653159 -0.101216 7.62336e-22)
(-0.615035 -0.106434 7.19333e-22)
(-0.575211 -0.111035 -1.24119e-21)
(-0.533889 -0.115002 -5.16482e-22)
(-0.491279 -0.118328 0)
(-0.447592 -0.121015 7.28465e-22)
(-0.40304 -0.123069 0)
(-0.357835 -0.124504 5.7922e-22)
(-0.312183 -0.125341 1.8752e-22)
(-0.266285 -0.125605 4.43589e-24)
(-0.220336 -0.125322 1.78812e-22)
(-0.174518 -0.124524 -5.16074e-22)
(-0.129006 -0.123244 0)
(-0.0839591 -0.121515 0)
(-0.0395234 -0.119372 9.00781e-22)
(0.00417053 -0.11685 1.58799e-21)
(0.0470084 -0.113986 0)
(0.0888926 -0.110816 -6.83653e-22)
(0.129741 -0.107378 0)
(0.169487 -0.103711 2.59781e-21)
(0.208072 -0.0998507 -4.74452e-23)
(0.245449 -0.0958328 4.61141e-23)
(0.281574 -0.0916878 -2.22065e-21)
(0.316403 -0.0874424 0)
(0.349893 -0.0831183 2.51993e-21)
(0.381998 -0.0787324 -4.05794e-23)
(0.412669 -0.0742972 0)
(0.441856 -0.0698225 0)
(0.469505 -0.065317 0)
(0.495562 -0.0607914 -3.15468e-21)
(0.519976 -0.0562619 0)
(0.542703 -0.0517545 0)
(0.563716 -0.0473061 0)
(0.583012 -0.0429603 0)
(0.600616 -0.038761 0)
(0.616576 -0.0347475 -3.72287e-21)
(0.630959 -0.0309531 0)
(0.643848 -0.0274074 -3.80299e-21)
(0.655341 -0.0241369 -3.84093e-21)
(0.665551 -0.0211646 3.8705e-21)
(0.674601 -0.01851 0)
(0.682626 -0.0161874 3.90717e-21)
(0.689767 -0.0142043 0)
(0.696171 -0.0125604 3.91885e-21)
(0.701984 -0.0112473 -3.91724e-21)
(0.707347 -0.0102491 -1.17418e-20)
(0.712395 -0.00954513 0)
(0.717253 -0.00910792 -1.16745e-20)