/*--------------------------------*- C++ -*----------------------------------*\
| =========                 |                                                 |
| \\      /  F ield         | OpenFOAM: The Open Source CFD Toolbox           |
|  \\    /   O peration     | Version:  2112                                  |
|   \\  /    A nd           | Website:  www.openfoam.com                      |
|    \\/     M anipulation  |                                                 |
\*---------------------------------------------------------------------------*/
FoamFile
{
    version     2.0;
    format      ascii;
    arch        "LSB;label=32;scalar=64";
    class       surfaceScalarField;
    location    "0.37";
    object      phi_0;
}
// * * * * * * * * * * * * * * * * * * * * * * * * * * * * * * * * * * * * * //

dimensions      [0 3 -1 0 0 0 0];

oriented        oriented;

internalField   nonuniform List<scalar> 
25468
(
2.87772e-06
4.60408e-08
2.81529e-06
6.24311e-08
2.75705e-06
5.82396e-08
2.70015e-06
5.69012e-08
2.64246e-06
5.7685e-08
2.58597e-06
5.64915e-08
2.53552e-06
5.04536e-08
2.49027e-06
4.52436e-08
2.44238e-06
4.78875e-08
2.38649e-06
5.58965e-08
2.32815e-06
5.83417e-08
2.27589e-06
5.2259e-08
2.23305e-06
4.28341e-08
2.19985e-06
3.32061e-08
2.17417e-06
2.56746e-08
2.15107e-06
2.31013e-08
2.12548e-06
2.55921e-08
2.09804e-06
2.74359e-08
2.07313e-06
2.49093e-08
2.05263e-06
2.05052e-08
2.036e-06
1.66296e-08
2.02253e-06
1.34689e-08
2.01197e-06
1.0556e-08
2.00366e-06
8.31839e-09
1.99597e-06
7.68869e-09
1.98764e-06
8.33079e-09
1.97869e-06
8.94317e-09
1.96986e-06
8.8334e-09
1.96179e-06
8.07388e-09
1.9547e-06
7.08775e-09
1.94849e-06
6.20904e-09
1.94283e-06
5.65535e-09
1.93739e-06
5.44226e-09
1.93169e-06
5.69679e-09
1.92515e-06
6.54172e-09
1.91671e-06
8.4412e-09
1.90411e-06
1.2601e-08
1.88395e-06
2.01623e-08
1.84048e-06
4.34647e-08
6.76634e-08
1.77282e-06
3.12667e-06
3.32906e-08
3.13478e-06
5.43245e-08
3.13677e-06
5.62511e-08
3.13739e-06
5.62833e-08
3.13645e-06
5.86198e-08
3.13262e-06
6.03249e-08
3.12454e-06
5.85364e-08
3.11281e-06
5.6965e-08
3.09995e-06
6.07544e-08
3.08679e-06
6.90527e-08
3.07023e-06
7.48984e-08
3.04872e-06
7.37765e-08
3.02428e-06
6.72689e-08
2.99844e-06
5.90451e-08
2.97124e-06
5.28772e-08
2.94307e-06
5.12685e-08
2.91485e-06
5.38139e-08
2.8852e-06
5.70879e-08
2.85211e-06
5.79997e-08
2.81627e-06
5.63471e-08
2.77978e-06
5.31181e-08
2.74453e-06
4.87156e-08
2.71137e-06
4.37132e-08
2.6805e-06
3.91935e-08
2.65214e-06
3.60442e-08
2.62638e-06
3.40922e-08
2.6027e-06
3.26266e-08
2.58044e-06
3.10872e-08
2.55912e-06
2.94019e-08
2.53852e-06
2.768e-08
2.51868e-06
2.60527e-08
2.49972e-06
2.4619e-08
2.4817e-06
2.3455e-08
2.46457e-06
2.2829e-08
2.44804e-06
2.30733e-08
2.43182e-06
2.46585e-08
2.41659e-06
2.78311e-08
2.40431e-06
3.24454e-08
2.4106e-06
3.71735e-08
4.43146e-08
2.43395e-06
3.32334e-06
2.64029e-08
3.33058e-06
4.70871e-08
3.33496e-06
5.18712e-08
3.33792e-06
5.33289e-08
3.34085e-06
5.56834e-08
3.34322e-06
5.79525e-08
3.34345e-06
5.83083e-08
3.34218e-06
5.82386e-08
3.34205e-06
6.08831e-08
3.34442e-06
6.66798e-08
3.34789e-06
7.14302e-08
3.35019e-06
7.1477e-08
3.34983e-06
6.76252e-08
3.3463e-06
6.25755e-08
3.34069e-06
5.84906e-08
3.33528e-06
5.66759e-08
3.33123e-06
5.7867e-08
3.3274e-06
6.09139e-08
3.322e-06
6.34013e-08
3.31426e-06
6.40926e-08
3.30436e-06
6.30123e-08
3.29272e-06
6.03608e-08
3.27975e-06
5.66796e-08
3.26618e-06
5.27621e-08
3.25272e-06
4.9502e-08
3.23951e-06
4.73099e-08
3.226e-06
4.61314e-08
3.21151e-06
4.55826e-08
3.19549e-06
4.54159e-08
3.17771e-06
4.54619e-08
3.15806e-06
4.57079e-08
3.13669e-06
4.59834e-08
3.11402e-06
4.6131e-08
3.09053e-06
4.63164e-08
3.06685e-06
4.67508e-08
3.04397e-06
4.75399e-08
3.02316e-06
4.86406e-08
3.00581e-06
4.97907e-08
2.99183e-06
5.11618e-08
5.56864e-08
2.98045e-06
3.53715e-06
2.14168e-08
3.54306e-06
4.1176e-08
3.54728e-06
4.7649e-08
3.55014e-06
5.04746e-08
3.5527e-06
5.31206e-08
3.55517e-06
5.54799e-08
3.5568e-06
5.66781e-08
3.55749e-06
5.75546e-08
3.55835e-06
6.0019e-08
3.56087e-06
6.4163e-08
3.565e-06
6.72918e-08
3.56923e-06
6.72535e-08
3.57218e-06
6.46756e-08
3.57344e-06
6.13097e-08
3.57327e-06
5.8663e-08
3.57215e-06
5.77987e-08
3.57114e-06
5.88785e-08
3.57137e-06
6.06801e-08
3.57299e-06
6.17814e-08
3.5754e-06
6.16859e-08
3.57788e-06
6.05311e-08
3.57973e-06
5.8504e-08
3.58053e-06
5.58857e-08
3.58006e-06
5.32316e-08
3.57841e-06
5.11501e-08
3.57587e-06
4.98514e-08
3.57284e-06
4.91572e-08
3.56961e-06
4.88204e-08
3.56629e-06
4.87348e-08
3.56289e-06
4.88593e-08
3.5594e-06
4.91929e-08
3.55574e-06
4.9648e-08
3.55169e-06
5.01801e-08
3.54722e-06
5.07862e-08
3.54247e-06
5.14999e-08
3.53777e-06
5.22436e-08
3.53341e-06
5.30041e-08
3.5294e-06
5.37932e-08
3.52592e-06
5.46428e-08
5.51145e-08
3.52649e-06
3.76591e-06
1.74028e-08
3.77093e-06
3.6158e-08
3.77486e-06
4.37179e-08
3.77781e-06
4.75282e-08
3.7804e-06
5.05285e-08
3.78287e-06
5.3007e-08
3.78486e-06
5.46897e-08
3.78623e-06
5.61798e-08
3.78776e-06
5.84938e-08
3.79046e-06
6.14582e-08
3.79427e-06
6.34821e-08
3.79808e-06
6.34439e-08
3.80098e-06
6.17777e-08
3.80265e-06
5.96445e-08
3.80324e-06
5.80704e-08
3.80346e-06
5.75804e-08
3.8043e-06
5.80397e-08
3.8062e-06
5.87739e-08
3.80891e-06
5.90704e-08
3.81195e-06
5.86545e-08
3.81491e-06
5.75707e-08
3.81744e-06
5.59726e-08
3.81923e-06
5.40931e-08
3.82019e-06
5.22749e-08
3.82054e-06
5.0798e-08
3.82065e-06
4.97448e-08
3.82075e-06
4.90514e-08
3.82093e-06
4.86404e-08
3.82121e-06
4.8457e-08
3.8216e-06
4.84648e-08
3.82218e-06
4.86133e-08
3.82298e-06
4.88539e-08
3.82402e-06
4.9139e-08
3.82537e-06
4.94387e-08
3.82714e-06
4.97285e-08
3.82941e-06
4.99756e-08
3.83228e-06
5.0125e-08
3.83598e-06
5.00996e-08
3.84095e-06
4.96748e-08
4.86798e-08
3.84738e-06
4.00987e-06
1.41064e-08
4.01438e-06
3.16498e-08
4.0181e-06
4.00008e-08
4.0211e-06
4.45254e-08
4.02378e-06
4.78498e-08
4.02629e-06
5.04908e-08
4.0285e-06
5.24857e-08
4.0304e-06
5.42804e-08
4.03249e-06
5.64065e-08
4.03529e-06
5.86493e-08
4.0387e-06
6.00772e-08
4.04203e-06
6.01148e-08
4.04472e-06
5.90854e-08
4.04662e-06
5.77415e-08
4.04797e-06
5.67205e-08
4.04926e-06
5.62913e-08
4.05095e-06
5.63493e-08
4.05319e-06
5.65354e-08
4.05581e-06
5.64518e-08
4.05856e-06
5.59051e-08
4.06121e-06
5.49178e-08
4.06357e-06
5.36128e-08
4.0655e-06
5.21649e-08
4.06701e-06
5.07701e-08
4.06822e-06
4.95833e-08
4.0693e-06
4.86684e-08
4.07034e-06
4.80102e-08
4.07142e-06
4.75612e-08
4.0726e-06
4.72727e-08
4.07396e-06
4.71056e-08
4.07555e-06
4.70194e-08
4.07743e-06
4.69732e-08
4.07965e-06
4.69279e-08
4.08223e-06
4.6851e-08
4.08525e-06
4.67123e-08
4.08875e-06
4.6472e-08
4.0928e-06
4.60755e-08
4.09744e-06
4.54628e-08
4.10254e-06
4.45704e-08
4.34036e-08
4.10782e-06
4.26983e-06
1.14459e-08
4.274e-06
2.74765e-08
4.27758e-06
3.64219e-08
4.28062e-06
4.14851e-08
4.28339e-06
4.50833e-08
4.286e-06
4.78804e-08
4.28841e-06
5.00693e-08
4.2907e-06
5.19981e-08
4.29314e-06
5.39651e-08
4.296e-06
5.57866e-08
4.29917e-06
5.69033e-08
4.30226e-06
5.70259e-08
4.30494e-06
5.64076e-08
4.30714e-06
5.55382e-08
4.30904e-06
5.48199e-08
4.31092e-06
5.44172e-08
4.313e-06
5.42659e-08
4.31538e-06
5.4153e-08
4.31799e-06
5.38503e-08
4.32065e-06
5.32421e-08
4.32322e-06
5.23455e-08
4.32559e-06
5.12472e-08
4.32768e-06
5.00676e-08
4.32953e-06
4.89284e-08
4.33119e-06
4.79236e-08
4.33276e-06
4.70929e-08
4.33434e-06
4.64288e-08
4.336e-06
4.59013e-08
4.3378e-06
4.54785e-08
4.33977e-06
4.51298e-08
4.34197e-06
4.48232e-08
4.34442e-06
4.45231e-08
4.34715e-06
4.41976e-08
4.35018e-06
4.382e-08
4.35353e-06
4.33633e-08
4.35721e-06
4.27932e-08
4.36121e-06
4.20765e-08
4.36549e-06
4.11827e-08
4.36996e-06
4.00955e-08
3.88015e-08
4.37456e-06
4.54682e-06
9.33814e-09
4.5506e-06
2.36936e-08
4.55416e-06
3.2859e-08
4.55725e-06
3.84011e-08
4.56009e-06
4.22376e-08
4.56282e-06
4.51519e-08
4.56544e-06
4.74533e-08
4.568e-06
4.94332e-08
4.57069e-06
5.12788e-08
4.57362e-06
5.28519e-08
4.57672e-06
5.38053e-08
4.57975e-06
5.4001e-08
4.58251e-06
5.36462e-08
4.58497e-06
5.30706e-08
4.58726e-06
5.25377e-08
4.58952e-06
5.21573e-08
4.59189e-06
5.18911e-08
4.59443e-06
5.1613e-08
4.59709e-06
5.11946e-08
4.59976e-06
5.05711e-08
4.60235e-06
4.97539e-08
4.6048e-06
4.88011e-08
4.60707e-06
4.77933e-08
4.60919e-06
4.68082e-08
4.61121e-06
4.59033e-08
4.6132e-06
4.5103e-08
4.61522e-06
4.44047e-08
4.61733e-06
4.37918e-08
4.61957e-06
4.32457e-08
4.62195e-06
4.27431e-08
4.62452e-06
4.22558e-08
4.62729e-06
4.17531e-08
4.63028e-06
4.12101e-08
4.63348e-06
4.06164e-08
4.63689e-06
3.99504e-08
4.6405e-06
3.91845e-08
4.64428e-06
3.82966e-08
4.64819e-06
3.72786e-08
4.65215e-06
3.6133e-08
3.48524e-08
4.6561e-06
4.84197e-06
7.66689e-09
4.84529e-06
2.03747e-08
4.84881e-06
2.93381e-08
4.85195e-06
3.52611e-08
4.85489e-06
3.92964e-08
4.85775e-06
4.22912e-08
4.86056e-06
4.46525e-08
4.86335e-06
4.66398e-08
4.86624e-06
4.83908e-08
4.86927e-06
4.9814e-08
4.8724e-06
5.0683e-08
4.87546e-06
5.0937e-08
4.87835e-06
5.0755e-08
4.88106e-06
5.03673e-08
4.88364e-06
4.99539e-08
4.8862e-06
4.95945e-08
4.88882e-06
4.92719e-08
4.89152e-06
4.89135e-08
4.89427e-06
4.84457e-08
4.89701e-06
4.78304e-08
4.89969e-06
4.70754e-08
4.90227e-06
4.62199e-08
4.90474e-06
4.53182e-08
4.90713e-06
4.44218e-08
4.90947e-06
4.35679e-08
4.9118e-06
4.27729e-08
4.91417e-06
4.20359e-08
4.91661e-06
4.13478e-08
4.91915e-06
4.0702e-08
4.92181e-06
4.00825e-08
4.92461e-06
3.94633e-08
4.92754e-06
3.88173e-08
4.93062e-06
3.81283e-08
4.93384e-06
3.73967e-08
4.93719e-06
3.66067e-08
4.94063e-06
3.57388e-08
4.94415e-06
3.47811e-08
4.9477e-06
3.37259e-08
4.95127e-06
3.25683e-08
3.13189e-08
4.9548e-06
5.15646e-06
6.32897e-09
5.1593e-06
1.75359e-08
5.16264e-06
2.59984e-08
5.16585e-06
3.20432e-08
5.16891e-06
3.62413e-08
5.1719e-06
3.92997e-08
5.17487e-06
4.16813e-08
5.17786e-06
4.36492e-08
5.18094e-06
4.53177e-08
5.18411e-06
4.66347e-08
5.18734e-06
4.74587e-08
5.19051e-06
4.77684e-08
5.19356e-06
4.77074e-08
5.19648e-06
4.7445e-08
5.19932e-06
4.71138e-08
5.20213e-06
4.67787e-08
5.20497e-06
4.64373e-08
5.20783e-06
4.60481e-08
5.21071e-06
4.55663e-08
5.21358e-06
4.49685e-08
5.21639e-06
4.42604e-08
5.21914e-06
4.34698e-08
5.22182e-06
4.26352e-08
5.22445e-06
4.17931e-08
5.22705e-06
4.09699e-08
5.22965e-06
4.01775e-08
5.23227e-06
3.94152e-08
5.23494e-06
3.86787e-08
5.23767e-06
3.79673e-08
5.24048e-06
3.7271e-08
5.24337e-06
3.65709e-08
5.24634e-06
3.58503e-08
5.24938e-06
3.50918e-08
5.2525e-06
3.42734e-08
5.25572e-06
3.33881e-08
5.25902e-06
3.24381e-08
5.26238e-06
3.14246e-08
5.26576e-06
3.03472e-08
5.26912e-06
2.92046e-08
2.80091e-08
5.27243e-06
5.49147e-06
5.2767e-09
5.49388e-06
1.51211e-08
5.49694e-06
2.29384e-08
5.50016e-06
2.88232e-08
5.50333e-06
3.30764e-08
5.50645e-06
3.61779e-08
5.50957e-06
3.85572e-08
5.51274e-06
4.04859e-08
5.51599e-06
4.20639e-08
5.51936e-06
4.32672e-08
5.52276e-06
4.40567e-08
5.52609e-06
4.44393e-08
5.52931e-06
4.4485e-08
5.53244e-06
4.43195e-08
5.53549e-06
4.40547e-08
5.53853e-06
4.37474e-08
5.54156e-06
4.34041e-08
5.5446e-06
4.30038e-08
5.54765e-06
4.25207e-08
5.55068e-06
4.19417e-08
5.55366e-06
4.12724e-08
5.5566e-06
4.05332e-08
5.55948e-06
3.97523e-08
5.56232e-06
3.89563e-08
5.56512e-06
3.81654e-08
5.56791e-06
3.73908e-08
5.57069e-06
3.66356e-08
5.57348e-06
3.58945e-08
5.57629e-06
3.51515e-08
5.57917e-06
3.43948e-08
5.58212e-06
3.36202e-08
5.58515e-06
3.28232e-08
5.58824e-06
3.19946e-08
5.5914e-06
3.11173e-08
5.5946e-06
3.0187e-08
5.59783e-06
2.92069e-08
5.60107e-06
2.81819e-08
5.6043e-06
2.71173e-08
5.60749e-06
2.60192e-08
2.48975e-08
5.6106e-06
5.84833e-06
4.46821e-09
5.85039e-06
1.30586e-08
5.85315e-06
2.0173e-08
5.85626e-06
2.57171e-08
5.85946e-06
2.98738e-08
5.86269e-06
3.2954e-08
5.86594e-06
3.52994e-08
5.86927e-06
3.71565e-08
5.87272e-06
3.86214e-08
5.87627e-06
3.97135e-08
5.87986e-06
4.04631e-08
5.8834e-06
4.08983e-08
5.88684e-06
4.10494e-08
5.89017e-06
4.09937e-08
5.89341e-06
4.08068e-08
5.89663e-06
4.05326e-08
5.89984e-06
4.01872e-08
5.90308e-06
3.97709e-08
5.90632e-06
3.928e-08
5.90955e-06
3.8715e-08
5.91273e-06
3.80839e-08
5.91587e-06
3.74005e-08
5.91894e-06
3.66816e-08
5.92195e-06
3.59426e-08
5.92492e-06
3.51952e-08
5.92786e-06
3.44469e-08
5.9308e-06
3.37001e-08
5.93374e-06
3.29503e-08
5.93671e-06
3.21835e-08
5.93972e-06
3.13908e-08
5.94277e-06
3.05708e-08
5.94587e-06
2.97234e-08
5.94901e-06
2.88469e-08
5.95219e-06
2.79387e-08
5.95538e-06
2.69988e-08
5.95856e-06
2.60299e-08
5.9617e-06
2.50358e-08
5.9648e-06
2.40222e-08
5.96782e-06
2.2995e-08
2.19623e-08
5.97076e-06
7.58881e-06
3.73133e-09
7.59092e-06
1.095e-08
7.59394e-06
1.71515e-08
7.59749e-06
2.21676e-08
7.60129e-06
2.60724e-08
7.60523e-06
2.90082e-08
7.60931e-06
3.12187e-08
7.61354e-06
3.29272e-08
7.61792e-06
3.42425e-08
7.62241e-06
3.52214e-08
7.62696e-06
3.59191e-08
7.63148e-06
3.63766e-08
7.63591e-06
3.66188e-08
7.64023e-06
3.66763e-08
7.64446e-06
3.65793e-08
7.64864e-06
3.63531e-08
7.6528e-06
3.60189e-08
7.65698e-06
3.55967e-08
7.66115e-06
3.51046e-08
7.66531e-06
3.4558e-08
7.66942e-06
3.39697e-08
7.67348e-06
3.33487e-08
7.67746e-06
3.27014e-08
7.68137e-06
3.20312e-08
7.68522e-06
3.13402e-08
7.68904e-06
3.0629e-08
7.69284e-06
2.98975e-08
7.69665e-06
2.9144e-08
7.70047e-06
2.83657e-08
7.7043e-06
2.75614e-08
7.70814e-06
2.67318e-08
7.71198e-06
2.58784e-08
7.71582e-06
2.50036e-08
7.71965e-06
2.41105e-08
7.72345e-06
2.32025e-08
7.7272e-06
2.22833e-08
7.73087e-06
2.13572e-08
7.73447e-06
2.04288e-08
7.73796e-06
1.95026e-08
1.85843e-08
7.74134e-06
1.00132e-05
3.0077e-09
1.00154e-05
8.79165e-09
1.00187e-05
1.38799e-08
1.00227e-05
1.81417e-08
1.00272e-05
2.15828e-08
1.0032e-05
2.42351e-08
1.0037e-05
2.61941e-08
1.00423e-05
2.76461e-08
1.00478e-05
2.87525e-08
1.00534e-05
2.95937e-08
1.00591e-05
3.02147e-08
1.00648e-05
3.06493e-08
1.00705e-05
3.0918e-08
1.00762e-05
3.103e-08
1.00817e-05
3.09923e-08
1.00873e-05
3.0817e-08
1.00928e-05
3.05235e-08
1.00982e-05
3.01366e-08
1.01037e-05
2.96811e-08
1.0109e-05
2.91779e-08
1.01144e-05
2.86415e-08
1.01196e-05
2.80798e-08
1.01248e-05
2.74954e-08
1.013e-05
2.68875e-08
1.01351e-05
2.62542e-08
1.01401e-05
2.55935e-08
1.01451e-05
2.49047e-08
1.01501e-05
2.41882e-08
1.0155e-05
2.34462e-08
1.01599e-05
2.26818e-08
1.01647e-05
2.18984e-08
1.01695e-05
2.10997e-08
1.01742e-05
2.02898e-08
1.01788e-05
1.94727e-08
1.01834e-05
1.86527e-08
1.01878e-05
1.78339e-08
1.01922e-05
1.70204e-08
1.01964e-05
1.6216e-08
1.02005e-05
1.5424e-08
1.46482e-08
1.02044e-05
1.32124e-05
2.24862e-09
1.32146e-05
6.53596e-09
1.32181e-05
1.03497e-08
1.32227e-05
1.36207e-08
1.32279e-05
1.63371e-08
1.32336e-05
1.85075e-08
1.32397e-05
2.01335e-08
1.32461e-05
2.12806e-08
1.32527e-05
2.21045e-08
1.32596e-05
2.27321e-08
1.32666e-05
2.32059e-08
1.32737e-05
2.35395e-08
1.32809e-05
2.37435e-08
1.32881e-05
2.38247e-08
1.32953e-05
2.37886e-08
1.33024e-05
2.36437e-08
1.33096e-05
2.34034e-08
1.33166e-05
2.30845e-08
1.33236e-05
2.27041e-08
1.33305e-05
2.22769e-08
1.33373e-05
2.18141e-08
1.33441e-05
2.13226e-08
1.33508e-05
2.0806e-08
1.33574e-05
2.02659e-08
1.33639e-05
1.97027e-08
1.33704e-05
1.91167e-08
1.33768e-05
1.85089e-08
1.33831e-05
1.78813e-08
1.33893e-05
1.72366e-08
1.33954e-05
1.65785e-08
1.34014e-05
1.59106e-08
1.34073e-05
1.52368e-08
1.3413e-05
1.4561e-08
1.34186e-05
1.38868e-08
1.3424e-05
1.32178e-08
1.34293e-05
1.25571e-08
1.34344e-05
1.19077e-08
1.34394e-05
1.12725e-08
1.34441e-05
1.06534e-08
1.00524e-08
1.34487e-05
1.74337e-05
1.40428e-09
1.74361e-05
4.06746e-09
1.744e-05
6.44581e-09
1.74451e-05
8.51066e-09
1.74512e-05
1.02552e-08
1.7458e-05
1.16817e-08
1.74654e-05
1.2791e-08
1.74731e-05
1.35753e-08
1.74811e-05
1.4083e-08
1.74894e-05
1.44256e-08
1.7498e-05
1.46698e-08
1.75067e-05
1.48253e-08
1.75155e-05
1.4895e-08
1.75245e-05
1.48851e-08
1.75334e-05
1.48027e-08
1.75424e-05
1.46548e-08
1.75514e-05
1.44489e-08
1.75603e-05
1.41927e-08
1.75691e-05
1.38937e-08
1.75778e-05
1.35586e-08
1.75864e-05
1.31931e-08
1.75949e-05
1.28019e-08
1.76034e-05
1.23889e-08
1.76117e-05
1.19574e-08
1.76199e-05
1.15101e-08
1.76279e-05
1.10499e-08
1.76359e-05
1.05792e-08
1.76436e-05
1.01007e-08
1.76513e-05
9.61715e-09
1.76587e-05
9.13112e-09
1.7666e-05
8.64528e-09
1.7673e-05
8.16213e-09
1.76799e-05
7.68408e-09
1.76866e-05
7.21335e-09
1.76931e-05
6.75197e-09
1.76993e-05
6.30178e-09
1.77054e-05
5.86442e-09
1.77112e-05
5.44134e-09
1.77168e-05
5.03345e-09
4.6417e-09
1.77222e-05
2.30037e-05
4.1097e-10
2.30066e-05
1.20511e-09
2.30111e-05
1.91984e-09
2.30171e-05
2.54266e-09
2.30243e-05
3.07e-09
2.30324e-05
3.49924e-09
2.30414e-05
3.82701e-09
2.30509e-05
4.04766e-09
2.30609e-05
4.15149e-09
2.30711e-05
4.16678e-09
2.30817e-05
4.13982e-09
2.30924e-05
4.08148e-09
2.31033e-05
3.99212e-09
2.31143e-05
3.87419e-09
2.31254e-05
3.73152e-09
2.31365e-05
3.56756e-09
2.31475e-05
3.38506e-09
2.31585e-05
3.18631e-09
2.31695e-05
2.97325e-09
2.31803e-05
2.7476e-09
2.3191e-05
2.5111e-09
2.32015e-05
2.26556e-09
2.32119e-05
2.01294e-09
2.32221e-05
1.75529e-09
2.32321e-05
1.49466e-09
2.32419e-05
1.23306e-09
2.32515e-05
9.72348e-10
2.32609e-05
7.14252e-10
2.32701e-05
4.60309e-10
2.3279e-05
2.11901e-10
2.32876e-05
-2.95687e-11
2.32961e-05
-2.6379e-10
2.33042e-05
-4.8902e-10
2.33122e-05
-7.04716e-10
2.33198e-05
-9.10194e-10
2.33272e-05
-1.10487e-09
2.33344e-05
-1.28827e-09
2.33413e-05
-1.46001e-09
2.33479e-05
-1.61995e-09
-1.76795e-09
2.33543e-05
3.03535e-05
-8.0598e-10
3.0357e-05
-2.3462e-09
3.03627e-05
-3.71829e-09
3.03701e-05
-4.90613e-09
3.03791e-05
-5.91588e-09
3.03894e-05
-6.76281e-09
3.04007e-05
-7.46589e-09
3.04128e-05
-8.04435e-09
3.04254e-05
-8.51358e-09
3.04385e-05
-8.89196e-09
3.04519e-05
-9.21884e-09
3.04654e-05
-9.50825e-09
3.04792e-05
-9.76081e-09
3.0493e-05
-9.97776e-09
3.05069e-05
-1.01618e-08
3.05208e-05
-1.03162e-08
3.05347e-05
-1.04439e-08
3.05484e-05
-1.05483e-08
3.0562e-05
-1.06322e-08
3.05754e-05
-1.06978e-08
3.05887e-05
-1.07469e-08
3.06017e-05
-1.07805e-08
3.06146e-05
-1.07992e-08
3.06271e-05
-1.08035e-08
3.06394e-05
-1.07941e-08
3.06514e-05
-1.07719e-08
3.06631e-05
-1.07377e-08
3.06745e-05
-1.06924e-08
3.06856e-05
-1.06367e-08
3.06964e-05
-1.05713e-08
3.07069e-05
-1.04969e-08
3.0717e-05
-1.04137e-08
3.07269e-05
-1.03221e-08
3.07364e-05
-1.02225e-08
3.07456e-05
-1.01151e-08
3.07545e-05
-1.00002e-08
3.07631e-05
-9.87819e-09
3.07714e-05
-9.74942e-09
3.07793e-05
-9.61431e-09
-9.47334e-09
3.0787e-05
1.54321e-05
-1.4999e-09
1.5434e-05
-4.33249e-09
1.54372e-05
-6.82888e-09
1.54412e-05
-8.96028e-09
1.5446e-05
-1.07404e-08
1.54515e-05
-1.22026e-08
1.54574e-05
-1.33855e-08
1.54637e-05
-1.43271e-08
1.54702e-05
-1.50597e-08
1.5477e-05
-1.5626e-08
1.54838e-05
-1.60967e-08
1.54908e-05
-1.64915e-08
1.54979e-05
-1.68114e-08
1.5505e-05
-1.70594e-08
1.5512e-05
-1.72416e-08
1.55191e-05
-1.73654e-08
1.55261e-05
-1.74395e-08
1.5533e-05
-1.74718e-08
1.55398e-05
-1.74688e-08
1.55466e-05
-1.74345e-08
1.55532e-05
-1.73712e-08
1.55597e-05
-1.72807e-08
1.55661e-05
-1.71647e-08
1.55723e-05
-1.70255e-08
1.55784e-05
-1.68653e-08
1.55843e-05
-1.66868e-08
1.559e-05
-1.64925e-08
1.55956e-05
-1.62847e-08
1.5601e-05
-1.60655e-08
1.56063e-05
-1.58366e-08
1.56114e-05
-1.55991e-08
1.56164e-05
-1.53542e-08
1.56211e-05
-1.51026e-08
1.56258e-05
-1.4845e-08
1.56302e-05
-1.4582e-08
1.56345e-05
-1.43142e-08
1.56387e-05
-1.40422e-08
1.56427e-05
-1.37667e-08
1.56466e-05
-1.34884e-08
-1.3208e-08
1.56503e-05
1.36048e-05
-2.18851e-09
1.36068e-05
-6.31516e-09
1.36099e-05
-9.89833e-09
1.36138e-05
-1.289e-08
1.36184e-05
-1.53318e-08
1.36235e-05
-1.72941e-08
1.3629e-05
-1.88476e-08
1.36347e-05
-2.00566e-08
1.36406e-05
-2.09839e-08
1.36467e-05
-2.17137e-08
1.36529e-05
-2.2309e-08
1.36592e-05
-2.27831e-08
1.36656e-05
-2.31434e-08
1.36719e-05
-2.33991e-08
1.36782e-05
-2.35608e-08
1.36845e-05
-2.36404e-08
1.36907e-05
-2.36511e-08
1.36968e-05
-2.36052e-08
1.37029e-05
-2.35117e-08
1.37088e-05
-2.33744e-08
1.37146e-05
-2.31937e-08
1.37203e-05
-2.29745e-08
1.37259e-05
-2.2723e-08
1.37313e-05
-2.24446e-08
1.37366e-05
-2.21439e-08
1.37417e-05
-2.1824e-08
1.37467e-05
-2.14877e-08
1.37516e-05
-2.11371e-08
1.37563e-05
-2.07742e-08
1.37608e-05
-2.04006e-08
1.37653e-05
-2.00181e-08
1.37695e-05
-1.96281e-08
1.37737e-05
-1.92324e-08
1.37777e-05
-1.88322e-08
1.37815e-05
-1.8429e-08
1.37852e-05
-1.8024e-08
1.37888e-05
-1.76183e-08
1.37922e-05
-1.72129e-08
1.37956e-05
-1.68088e-08
-1.64067e-08
1.37988e-05
1.1994e-05
-2.92752e-09
1.19961e-05
-8.41792e-09
1.19993e-05
-1.30608e-08
1.20032e-05
-1.68099e-08
1.20077e-05
-1.97842e-08
1.20125e-05
-2.21256e-08
1.20176e-05
-2.39537e-08
1.20229e-05
-2.53629e-08
1.20284e-05
-2.64433e-08
1.2034e-05
-2.73028e-08
1.20396e-05
-2.79773e-08
1.20453e-05
-2.84764e-08
1.2051e-05
-2.8826e-08
1.20567e-05
-2.90542e-08
1.20623e-05
-2.91809e-08
1.20679e-05
-2.9218e-08
1.20734e-05
-2.91731e-08
1.20788e-05
-2.90518e-08
1.20842e-05
-2.88603e-08
1.20894e-05
-2.86043e-08
1.20945e-05
-2.82904e-08
1.20995e-05
-2.79319e-08
1.21043e-05
-2.75423e-08
1.2109e-05
-2.71308e-08
1.21135e-05
-2.67022e-08
1.2118e-05
-2.62586e-08
1.21223e-05
-2.58005e-08
1.21265e-05
-2.5328e-08
1.21305e-05
-2.48414e-08
1.21345e-05
-2.4342e-08
1.21383e-05
-2.38316e-08
1.2142e-05
-2.33127e-08
1.21455e-05
-2.2788e-08
1.2149e-05
-2.22604e-08
1.21523e-05
-2.17322e-08
1.21555e-05
-2.12056e-08
1.21585e-05
-2.06825e-08
1.21615e-05
-2.01641e-08
1.21643e-05
-1.96514e-08
-1.91451e-08
1.2167e-05
1.0574e-05
-3.7811e-09
1.05764e-05
-1.07702e-08
1.05797e-05
-1.64084e-08
1.05837e-05
-2.07567e-08
1.0588e-05
-2.40993e-08
1.05926e-05
-2.66873e-08
1.05973e-05
-2.87066e-08
1.06022e-05
-3.02852e-08
1.06073e-05
-3.15086e-08
1.06125e-05
-3.24471e-08
1.06176e-05
-3.31314e-08
1.06227e-05
-3.35946e-08
1.06278e-05
-3.38853e-08
1.06328e-05
-3.40546e-08
1.06377e-05
-3.41368e-08
1.06427e-05
-3.41404e-08
1.06475e-05
-3.40546e-08
1.06524e-05
-3.38644e-08
1.06571e-05
-3.35656e-08
1.06616e-05
-3.31739e-08
1.06661e-05
-3.27188e-08
1.06704e-05
-3.2223e-08
1.06745e-05
-3.17027e-08
1.06786e-05
-3.11694e-08
1.06825e-05
-3.06286e-08
1.06863e-05
-3.00804e-08
1.069e-05
-2.95216e-08
1.06936e-05
-2.89487e-08
1.06972e-05
-2.83596e-08
1.07006e-05
-2.7754e-08
1.07039e-05
-2.71337e-08
1.07071e-05
-2.65021e-08
1.07101e-05
-2.58632e-08
1.07131e-05
-2.52215e-08
1.0716e-05
-2.45809e-08
1.07187e-05
-2.3945e-08
1.07213e-05
-2.33164e-08
1.07239e-05
-2.26969e-08
1.07263e-05
-2.20878e-08
-2.14889e-08
1.07286e-05
9.32231e-06
-4.85429e-09
9.32505e-06
-1.35138e-08
9.32862e-06
-1.99786e-08
9.33257e-06
-2.47029e-08
9.33669e-06
-2.82236e-08
9.34092e-06
-3.09131e-08
9.34524e-06
-3.30257e-08
9.34968e-06
-3.47247e-08
9.35425e-06
-3.60819e-08
9.35891e-06
-3.71046e-08
9.36357e-06
-3.77917e-08
9.36817e-06
-3.81903e-08
9.37267e-06
-3.83877e-08
9.37709e-06
-3.84725e-08
9.38145e-06
-3.84984e-08
9.38578e-06
-3.84717e-08
9.39009e-06
-3.83622e-08
9.39435e-06
-3.81295e-08
9.39854e-06
-3.77508e-08
9.4026e-06
-3.72381e-08
9.40651e-06
-3.66325e-08
9.41027e-06
-3.59776e-08
9.41388e-06
-3.53092e-08
9.41736e-06
-3.46505e-08
9.42074e-06
-3.40095e-08
9.42404e-06
-3.33816e-08
9.42727e-06
-3.27543e-08
9.43044e-06
-3.21136e-08
9.43353e-06
-3.14495e-08
9.43653e-06
-3.07584e-08
9.43944e-06
-3.00419e-08
9.44224e-06
-2.93054e-08
9.44494e-06
-2.85562e-08
9.44752e-06
-2.78022e-08
9.44999e-06
-2.70508e-08
9.45235e-06
-2.63085e-08
9.45461e-06
-2.558e-08
9.45678e-06
-2.48686e-08
9.45887e-06
-2.41758e-08
-2.35027e-08
9.46089e-06
8.21907e-06
-6.40011e-09
8.22227e-06
-1.67176e-08
8.22602e-06
-2.37321e-08
8.22991e-06
-2.85907e-08
8.2338e-06
-3.21118e-08
8.23765e-06
-3.47591e-08
8.24148e-06
-3.68586e-08
8.24539e-06
-3.8639e-08
8.24947e-06
-4.01616e-08
8.25369e-06
-4.13266e-08
8.25793e-06
-4.20319e-08
8.26206e-06
-4.23203e-08
8.26603e-06
-4.23519e-08
8.26986e-06
-4.22993e-08
8.27362e-06
-4.2266e-08
8.27741e-06
-4.22571e-08
8.28125e-06
-4.22017e-08
8.28512e-06
-4.20007e-08
8.28895e-06
-4.15833e-08
8.29266e-06
-4.09473e-08
8.29618e-06
-4.01513e-08
8.29948e-06
-3.92788e-08
8.30258e-06
-3.84081e-08
8.30552e-06
-3.75945e-08
8.30837e-06
-3.68598e-08
8.31119e-06
-3.61938e-08
8.314e-06
-3.55639e-08
8.31681e-06
-3.49297e-08
8.31962e-06
-3.42572e-08
8.32239e-06
-3.35281e-08
8.32509e-06
-3.27405e-08
8.32769e-06
-3.19037e-08
8.33016e-06
-3.10332e-08
8.33251e-06
-3.01463e-08
8.33472e-06
-2.92595e-08
8.3368e-06
-2.8387e-08
8.33875e-06
-2.75395e-08
8.34061e-06
-2.67236e-08
8.34237e-06
-2.59413e-08
-2.51892e-08
8.34406e-06
7.24672e-06
-8.63044e-09
7.25043e-06
-2.04235e-08
7.25434e-06
-2.76395e-08
7.25814e-06
-3.23932e-08
7.2618e-06
-3.57692e-08
7.26526e-06
-3.82189e-08
7.26855e-06
-4.01491e-08
7.27187e-06
-4.19611e-08
7.27547e-06
-4.37638e-08
7.2794e-06
-4.52497e-08
7.2834e-06
-4.60369e-08
7.2872e-06
-4.61161e-08
7.29064e-06
-4.57975e-08
7.29379e-06
-4.54457e-08
7.29683e-06
-4.53083e-08
7.3e-06
-4.54299e-08
7.30344e-06
-4.56417e-08
7.30711e-06
-4.56654e-08
7.31082e-06
-4.52957e-08
7.31438e-06
-4.45089e-08
7.31765e-06
-4.34171e-08
7.32055e-06
-4.21833e-08
7.32312e-06
-4.09717e-08
7.32544e-06
-3.99158e-08
7.32765e-06
-3.9077e-08
7.32989e-06
-3.84278e-08
7.33221e-06
-3.78825e-08
7.33462e-06
-3.73459e-08
7.33711e-06
-3.67461e-08
7.33963e-06
-3.60443e-08
7.34212e-06
-3.52327e-08
7.34454e-06
-3.43241e-08
7.34685e-06
-3.33408e-08
7.34901e-06
-3.23088e-08
7.35101e-06
-3.12562e-08
7.35283e-06
-3.02103e-08
7.35449e-06
-2.91947e-08
7.35599e-06
-2.82264e-08
7.35736e-06
-2.73146e-08
-2.64576e-08
7.35863e-06
6.38957e-06
-1.15128e-08
6.39396e-06
-2.4818e-08
6.39811e-06
-3.1785e-08
6.40185e-06
-3.61387e-08
6.40534e-06
-3.9256e-08
6.40844e-06
-4.13208e-08
6.41111e-06
-4.2819e-08
6.41368e-06
-4.45346e-08
6.41674e-06
-4.68191e-08
6.42053e-06
-4.90443e-08
6.42464e-06
-5.01401e-08
6.4284e-06
-4.98797e-08
6.43146e-06
-4.88609e-08
6.43381e-06
-4.77965e-08
6.43574e-06
-4.72388e-08
6.43783e-06
-4.75175e-08
6.44065e-06
-4.84598e-08
6.44431e-06
-4.93288e-08
6.44843e-06
-4.94129e-08
6.45246e-06
-4.85343e-08
6.45597e-06
-4.69321e-08
6.45874e-06
-4.49503e-08
6.46071e-06
-4.29391e-08
6.46204e-06
-4.12497e-08
6.46311e-06
-4.015e-08
6.46438e-06
-3.96925e-08
6.46614e-06
-3.96475e-08
6.46844e-06
-3.96434e-08
6.4711e-06
-3.94018e-08
6.47388e-06
-3.88327e-08
6.47663e-06
-3.79766e-08
6.47922e-06
-3.6913e-08
6.48158e-06
-3.57044e-08
6.48367e-06
-3.43977e-08
6.48545e-06
-3.30414e-08
6.48694e-06
-3.16956e-08
6.48817e-06
-3.04215e-08
6.48921e-06
-2.92668e-08
6.49015e-06
-2.82549e-08
-2.74396e-08
6.49113e-06
5.6341e-06
-1.5165e-08
5.63946e-06
-3.01847e-08
5.64395e-06
-3.62758e-08
5.64774e-06
-3.9924e-08
5.65118e-06
-4.26959e-08
5.65389e-06
-4.40276e-08
5.65579e-06
-4.47199e-08
5.65752e-06
-4.62638e-08
5.66005e-06
-4.93532e-08
5.66389e-06
-5.28817e-08
5.66837e-06
-5.46244e-08
5.67234e-06
-5.38473e-08
5.67512e-06
-5.16448e-08
5.67674e-06
-4.94148e-08
5.67755e-06
-4.80508e-08
5.67812e-06
-4.80888e-08
5.67942e-06
-4.97527e-08
5.68221e-06
-5.21184e-08
5.68634e-06
-5.35453e-08
5.69103e-06
-5.3225e-08
5.69543e-06
-5.13362e-08
5.6989e-06
-4.8419e-08
5.7011e-06
-4.51409e-08
5.70198e-06
-4.21269e-08
5.70166e-06
-3.98315e-08
5.7006e-06
-3.86257e-08
5.69959e-06
-3.86405e-08
5.69939e-06
-3.94449e-08
5.70029e-06
-4.03001e-08
5.70216e-06
-4.07022e-08
5.7047e-06
-4.05167e-08
5.7076e-06
-3.98161e-08
5.7106e-06
-3.87044e-08
5.71347e-06
-3.72637e-08
5.71599e-06
-3.55604e-08
5.71798e-06
-3.36917e-08
5.71933e-06
-3.17729e-08
5.72002e-06
-2.99477e-08
5.72007e-06
-2.83062e-08
-2.68097e-08
5.71944e-06
4.96894e-06
-2.03513e-08
4.97561e-06
-3.68571e-08
4.98039e-06
-4.10572e-08
4.98475e-06
-4.42859e-08
4.98873e-06
-4.66749e-08
4.9908e-06
-4.6098e-08
4.99096e-06
-4.48742e-08
4.99134e-06
-4.66432e-08
4.9941e-06
-5.21218e-08
4.99925e-06
-5.80319e-08
5.00485e-06
-6.0216e-08
5.00878e-06
-5.77779e-08
5.00985e-06
-5.27161e-08
5.00815e-06
-4.77174e-08
5.00554e-06
-4.5444e-08
5.00466e-06
-4.72027e-08
5.00676e-06
-5.18562e-08
5.01094e-06
-5.62991e-08
5.01529e-06
-5.78907e-08
5.01845e-06
-5.63865e-08
5.01991e-06
-5.27963e-08
5.01933e-06
-4.78392e-08
5.0165e-06
-4.23116e-08
5.01196e-06
-3.75835e-08
5.00716e-06
-3.50391e-08
5.0036e-06
-3.50633e-08
5.0018e-06
-3.68382e-08
5.00121e-06
-3.88567e-08
5.00078e-06
-3.98692e-08
4.99964e-06
-3.95655e-08
4.99742e-06
-3.82945e-08
4.99413e-06
-3.65221e-08
4.98994e-06
-3.45209e-08
4.98505e-06
-3.23683e-08
4.97956e-06
-3.00766e-08
4.97362e-06
-2.77483e-08
4.9674e-06
-2.55535e-08
4.96113e-06
-2.36739e-08
4.95499e-06
-2.21657e-08
-2.1159e-08
4.94934e-06
4.38636e-06
-3.0715e-08
4.39454e-06
-4.50305e-08
4.39879e-06
-4.53164e-08
4.40426e-06
-4.97503e-08
4.40843e-06
-5.08442e-08
4.40839e-06
-4.6056e-08
4.4039e-06
-4.03833e-08
4.39776e-06
-4.05063e-08
4.39415e-06
-4.85171e-08
4.39358e-06
-5.74554e-08
4.39245e-06
-5.90909e-08
4.38819e-06
-5.35106e-08
4.38017e-06
-4.46961e-08
4.36812e-06
-3.56753e-08
4.35209e-06
-2.94068e-08
4.33403e-06
-2.91433e-08
4.31774e-06
-3.55692e-08
4.30446e-06
-4.30235e-08
4.29169e-06
-4.51154e-08
4.27705e-06
-4.17506e-08
4.2601e-06
-3.58475e-08
4.24153e-06
-2.92642e-08
4.2217e-06
-2.24846e-08
4.19991e-06
-1.57929e-08
4.17557e-06
-1.07017e-08
4.15007e-06
-9.55754e-09
4.126e-06
-1.27674e-08
4.10444e-06
-1.73004e-08
4.08454e-06
-1.99659e-08
4.06503e-06
-2.00547e-08
4.0451e-06
-1.8365e-08
4.02461e-06
-1.60309e-08
4.00379e-06
-1.37057e-08
3.98288e-06
-1.14528e-08
3.96192e-06
-9.1237e-09
3.9409e-06
-6.72239e-09
3.91985e-06
-4.50526e-09
3.899e-06
-2.82843e-09
3.87874e-06
-1.89902e-09
-1.76289e-09
3.85934e-06
3.82713e-06
3.7821e-06
3.73678e-06
3.68703e-06
3.63619e-06
3.59013e-06
3.54975e-06
3.50924e-06
3.46072e-06
3.40327e-06
3.34418e-06
3.29067e-06
3.24597e-06
3.21029e-06
3.18089e-06
3.15174e-06
3.11618e-06
3.07315e-06
3.02804e-06
2.98629e-06
2.95044e-06
2.92117e-06
2.89869e-06
2.8829e-06
2.87219e-06
2.86264e-06
2.84987e-06
2.83257e-06
2.8126e-06
2.79255e-06
2.77418e-06
2.75815e-06
2.74445e-06
2.73299e-06
2.72387e-06
2.71715e-06
2.71264e-06
2.70981e-06
2.70792e-06
2.70615e-06
1.01741e-10
-1.01741e-10
2.16057e-10
-1.14316e-10
3.36769e-10
-1.20712e-10
4.64549e-10
-1.2778e-10
5.99073e-10
-1.34524e-10
7.39322e-10
-1.40249e-10
8.83955e-10
-1.44633e-10
1.03129e-09
-1.47339e-10
1.17926e-09
-1.47968e-10
1.32634e-09
-1.47077e-10
1.47833e-09
-1.51992e-10
1.6411e-09
-1.62772e-10
1.80705e-09
-1.6595e-10
1.96651e-09
-1.59459e-10
2.11637e-09
-1.49863e-10
2.25438e-09
-1.38004e-10
2.37764e-09
-1.2326e-10
2.48295e-09
-1.05317e-10
2.56695e-09
-8.39998e-11
2.62609e-09
-5.914e-11
2.65692e-09
-3.08255e-11
2.65506e-09
1.86016e-12