/*--------------------------------*- C++ -*----------------------------------*\
| =========                 |                                                 |
| \\      /  F ield         | OpenFOAM: The Open Source CFD Toolbox           |
|  \\    /   O peration     | Version:  2112                                  |
|   \\  /    A nd           | Website:  www.openfoam.com                      |
|    \\/     M anipulation  |                                                 |
\*---------------------------------------------------------------------------*/
FoamFile
{
    version     2.0;
    format      ascii;
    arch        "LSB;label=32;scalar=64";
    class       volVectorField;
    location    "0.04";
    object      ddtCorrDdt0(U);
}
// * * * * * * * * * * * * * * * * * * * * * * * * * * * * * * * * * * * * * //

dimensions      [0 1 -2 0 0 0 0];

internalField   nonuniform List<vector> 
12225
(
(0.667378 -0.27525 0)
(3.99939 -0.57854 0)
(9.44099 -0.748779 0)
(16.2037 -0.8581 0)
(23.6617 -0.882397 0)
(31.6663 -0.866699 0)
(40.1796 -0.905656 0)
(49.6275 -1.1964 0)
(60.242 -1.70998 0)
(72.7501 -2.50155 0)
(89.6573 -4.13705 0)
(114.209 -6.31565 0)
(146.689 -7.95964 0)
(184.752 -9.02276 0)
(227.003 -10.3386 0)
(275.053 -12.4896 0)
(331.335 -14.5076 0)
(399.7 -15.5102 0)
(-0.143083 -0.487473 0)
(0.750627 -1.18883 0)
(3.24577 -1.79897 0)
(7.65208 -2.33472 0)
(13.9184 -2.85115 0)
(21.8229 -3.35493 0)
(31.2223 -3.90095 0)
(42.1035 -4.59749 0)
(55.07 -5.49813 0)
(70.1726 -6.95084 0)
(88.8952 -9.9501 0)
(114.776 -14.6085 0)
(150.297 -19.1278 0)
(194.818 -22.7868 0)
(247.066 -26.7827 0)
(306.988 -32.0193 0)
(376.199 -40.0239 0)
(458.982 -52.2355 0)
(-0.0116652 -0.590511 0)
(1.24441 -1.60994 0)
(3.50351 -2.51374 0)
(6.28522 -3.35834 0)
(9.79309 -4.21564 0)
(13.9112 -5.09001 0)
(19.3049 -6.03861 0)
(26.2133 -7.32324 0)
(34.9602 -9.05261 0)
(45.3887 -11.5131 0)
(58.0382 -16.3018 0)
(76.3951 -24.0735 0)
(103.991 -32.3923 0)
(141.177 -39.9544 0)
(187.232 -48.1161 0)
(242.883 -58.2976 0)
(308.543 -71.4822 0)
(382.414 -91.7106 0)
(0.0653544 -0.742825 0)
(1.14366 -2.03517 0)
(3.73056 -3.18047 0)
(7.13571 -4.26491 0)
(11.0481 -5.38593 0)
(15.6619 -6.52981 0)
(20.7413 -7.81652 0)
(26.4592 -9.56122 0)
(32.368 -11.6875 0)
(38.5086 -14.2765 0)
(44.1278 -20.0409 0)
(52.399 -30.751 0)
(67.0238 -42.7169 0)
(87.6998 -53.9449 0)
(113.164 -66.4425 0)
(144.015 -81.6628 0)
(180.036 -100.553 0)
(222.983 -123.805 0)
(0.12539 -0.898893 0)
(1.01917 -2.51255 0)
(3.39674 -3.9235 0)
(6.76953 -5.27437 0)
(10.9194 -6.64887 0)
(15.9806 -8.10857 0)
(21.7916 -9.75406 0)
(28.22 -11.8256 0)
(35.1264 -14.1171 0)
(41.6614 -16.269 0)
(45.5946 -21.9992 0)
(51.3442 -34.5986 0)
(62.0816 -48.7498 0)
(76.1478 -61.2662 0)
(91.3734 -75.2021 0)
(108.323 -92.0638 0)
(126.831 -112.368 0)
(146.842 -135.905 0)
(0.140309 -1.03596 0)
(0.933259 -3.02342 0)
(3.03843 -4.74707 0)
(6.16027 -6.39904 0)
(10.1335 -8.09808 0)
(15.1113 -9.8862 0)
(21.1649 -11.8519 0)
(28.1386 -14.2164 0)
(35.6885 -16.6186 0)
(42.2293 -18.731 0)
(48.2647 -24.356 0)
(54.0121 -37.8911 0)
(60.597 -53.5209 0)
(70.5617 -66.9536 0)
(80.6544 -81.6965 0)
(91.4259 -99.2934 0)
(102.639 -119.871 0)
(113.31 -143.11 0)
(0.139906 -1.17408 0)
(0.86688 -3.48573 0)
(2.72262 -5.54807 0)
(5.51223 -7.56503 0)
(9.09959 -9.64015 0)
(13.6609 -11.8401 0)
(19.4232 -14.2589 0)
(26.3722 -17.0323 0)
(34.0845 -19.4873 0)
(40.9806 -21.1341 0)
(47.9094 -26.7533 0)
(55.2029 -40.7874 0)
(60.0429 -56.9669 0)
(67.2038 -70.6834 0)
(74.3028 -85.9617 0)
(81.5323 -103.899 0)
(88.6223 -124.358 0)
(94.5699 -146.606 0)
(0.139235 -1.31333 0)
(0.811375 -3.9253 0)
(2.45928 -6.28096 0)
(4.93139 -8.63501 0)
(8.07062 -11.1037 0)
(12.0135 -13.7812 0)
(17.032 -16.7686 0)
(23.2794 -20.0455 0)
(30.4885 -22.6889 0)
(37.4888 -24.3573 0)
(44.8384 -29.8571 0)
(53.769 -44.0117 0)
(59.2688 -60.0567 0)
(65.1147 -73.7135 0)
(70.7872 -89.2158 0)
(76.2098 -107.209 0)
(81.097 -127.339 0)
(84.6006 -148.642 0)
(0.139615 -1.45296 0)
(0.76062 -4.35349 0)
(2.21921 -6.98245 0)
(4.40796 -9.62323 0)
(7.1512 -12.4196 0)
(10.5053 -15.5088 0)
(14.6512 -19.0469 0)
(19.7511 -22.9125 0)
(25.7712 -25.977 0)
(32.3117 -28.0238 0)
(40.3623 -34.141 0)
(50.3048 -48.2363 0)
(57.0512 -63.3708 0)
(62.5443 -76.7018 0)
(67.6338 -92.1649 0)
(72.0871 -109.957 0)
(75.6317 -129.502 0)
(77.3228 -149.664 0)
(0.141582 -1.59388 0)
(0.707708 -4.76229 0)
(1.97629 -7.65353 0)
(3.89432 -10.559 0)
(6.30306 -13.6326 0)
(9.20549 -17.0341 0)
(12.6492 -20.9705 0)
(16.6152 -25.3067 0)
(21.154 -28.9348 0)
(26.789 -31.9102 0)
(35.321 -39.1346 0)
(45.9245 -53.1537 0)
(53.3591 -67.269 0)
(58.4731 -79.9043 0)
(63.2843 -95.0338 0)
(67.0211 -112.308 0)
(69.593 -130.91 0)
(69.5376 -149.649 0)
(0.146518 -1.738 0)
(0.640796 -5.13839 0)
(1.70715 -8.27611 0)
(3.35886 -11.4382 0)
(5.47227 -14.7745 0)
(8.02935 -18.4363 0)
(10.9838 -22.6153 0)
(14.1071 -27.1777 0)
(17.3807 -31.357 0)
(22.0252 -35.8321 0)
(30.6131 -44.7691 0)
(40.7537 -58.9702 0)
(48.5006 -71.2953 0)
(52.904 -83.2438 0)
(57.3438 -97.7139 0)
(60.3115 -114.141 0)
(61.6626 -131.518 0)
(59.1566 -148.32 0)
(0.142448 -1.87902 0)
(0.539064 -5.44111 0)
(1.41214 -8.78924 0)
(2.83668 -12.1871 0)
(4.71074 -15.7649 0)
(6.99762 -19.6519 0)
(9.60405 -23.9704 0)
(12.2252 -28.5718 0)
(14.8519 -33.2183 0)
(18.9022 -39.4558 0)
(27.1238 -50.3268 0)
(36.3623 -63.7597 0)
(43.0873 -74.6223 0)
(46.9803 -86.1676 0)
(50.843 -99.8523 0)
(53.0713 -115.365 0)
(52.9738 -131.614 0)
(52.0157 -146.002 0)
(0.0735696 -2.01205 0)
(0.383447 -5.71208 0)
(1.08036 -9.25544 0)
(2.30828 -12.8849 0)
(3.97066 -16.7017 0)
(6.00012 -20.8029 0)
(8.27723 -25.2273 0)
(10.5621 -29.8344 0)
(13.0405 -34.9689 0)
(16.9351 -42.968 0)
(23.7311 -55.3701 0)
(32.0996 -67.9967 0)
(37.6302 -77.8446 0)
(40.8382 -88.8694 0)
(44.0285 -101.85 0)
(45.4342 -116.513 0)
(44.5088 -129.696 0)
(43.0651 -143.211 0)
(-0.188585 -2.05003 0)
(0.177598 -5.98229 0)
(0.722426 -9.7628 0)
(1.74769 -13.6363 0)
(3.17378 -17.6995 0)
(4.8966 -22.0029 0)
(6.80346 -26.5283 0)
(8.87298 -31.2805 0)
(11.6526 -37.1953 0)
(15.8294 -46.7846 0)
(21.0323 -60.3344 0)
(26.9057 -72.8416 0)
(30.9997 -81.6235 0)
(33.4667 -92.1554 0)
(35.6637 -103.237 0)
(35.1405 -114.277 0)
(31.6464 -126.958 0)
(23.1205 -140.056 0)
(-0.184671 -1.99413 0)
(0.153634 -5.98844 0)
(0.551193 -10.1982 0)
(1.30581 -14.3863 0)
(2.3958 -18.6903 0)
(3.74101 -23.1788 0)
(5.32388 -27.9274 0)
(7.40523 -33.3123 0)
(10.6666 -40.5384 0)
(15.0144 -51.0855 0)
(18.6817 -64.1568 0)
(21.1401 -75.9026 0)
(22.7233 -84.071 0)
(22.7884 -92.703 0)
(20.779 -102.042 0)
(15.0064 -110.341 0)
(7.03953 -118.59 0)
(-0.465157 -128.631 0)
(0.0328258 -2.20439 0)
(0.27092 -6.29924 0)
(0.701562 -10.5617 0)
(1.11876 -14.9765 0)
(1.78757 -19.5492 0)
(2.76706 -24.3823 0)
(4.18295 -29.7554 0)
(6.30125 -36.2651 0)
(9.24614 -44.5293 0)
(12.0886 -54.4616 0)
(12.9584 -65.0935 0)
(11.2775 -74.7864 0)
(8.17721 -82.2451 0)
(3.96752 -88.3198 0)
(-1.57089 -94.0239 0)
(-7.84685 -100.04 0)
(-14.2959 -107.512 0)
(-21.486 -116.754 0)
(0.0369651 -2.31962 0)
(0.363459 -6.69055 0)
(0.65865 -10.8876 0)
(0.906011 -15.3953 0)
(1.30961 -20.2888 0)
(1.96041 -25.6452 0)
(2.92008 -31.6813 0)
(4.05218 -38.624 0)
(4.84805 -46.3486 0)
(4.43438 -54.3193 0)
(2.01227 -62.0388 0)
(-2.30096 -69.1058 0)
(-7.58354 -75.1247 0)
(-13.1447 -80.3187 0)
(-18.7755 -85.2763 0)
(-24.5761 -90.5892 0)
(-30.9157 -96.6121 0)
(-38.1668 -103.311 0)
(0.00762251 -2.44222 0)
(0.0891991 -6.98651 0)
(0.240766 -11.1716 0)
(0.431601 -15.6561 0)
(0.440784 -20.6507 0)
(0.329912 -26.0975 0)
(-0.0379435 -31.9497 0)
(-0.950222 -38.0851 0)
(-2.75633 -44.2342 0)
(-5.66443 -50.0722 0)
(-9.61511 -55.4778 0)
(-14.3596 -60.5138 0)
(-19.6302 -65.2155 0)
(-25.2202 -69.6463 0)
(-31.0495 -73.9047 0)
(-37.1883 -78.0655 0)
(-43.8066 -82.1938 0)
(-51.1067 -86.3066 0)
(-0.0261157 -2.39894 0)
(-0.240813 -6.92516 0)
(-0.430198 -11.2505 0)
(-0.744219 -15.4732 0)
(-1.51268 -19.9195 0)
(-2.72431 -24.5712 0)
(-4.52277 -29.3149 0)
(-7.00115 -34.0017 0)
(-10.1811 -38.4737 0)
(-13.9804 -42.6418 0)
(-18.2818 -46.5239 0)
(-23.0099 -50.1833 0)
(-28.1225 -53.6321 0)
(-33.5774 -56.8352 0)
(-39.3431 -59.7585 0)
(-45.4137 -62.3828 0)
(-51.8163 -64.6997 0)
(-58.6221 -66.702 0)
(-0.0652479 -2.20813 0)
(-0.399666 -6.41845 0)
(-0.936306 -10.4404 0)
(-1.9487 -14.1882 0)
(-3.37362 -17.8928 0)
(-5.25836 -21.5599 0)
(-7.71779 -25.1568 0)
(-10.7698 -28.6351 0)
(-14.3264 -31.9384 0)
(-18.3004 -35.0316 0)
(-22.6331 -37.9069 0)
(-27.2867 -40.5563 0)
(-32.2324 -42.9591 0)
(-37.4448 -45.0839 0)
(-42.8973 -46.9 0)
(-48.5625 -48.3803 0)
(-54.4219 -49.5028 0)
(-60.4953 -50.2541 0)
(-0.0816926 -2.00505 0)
(-0.482091 -5.82282 0)
(-1.19975 -9.34602 0)
(-2.5597 -12.5945 0)
(-4.40341 -15.6749 0)
(-6.70771 -18.6146 0)
(-9.51268 -21.4388 0)
(-12.791 -24.1351 0)
(-16.4718 -26.6825 0)
(-20.4968 -29.0552 0)
(-24.8178 -31.2287 0)
(-29.3932 -33.1792 0)
(-34.1913 -34.8837 0)
(-39.1805 -36.3176 0)
(-44.3275 -37.4545 0)
(-49.5968 -38.2693 0)
(-54.9566 -38.7405 0)
(-60.4079 -38.855 0)
(0.0766129 -1.71421 0)
(-0.420122 -5.17659 0)
(-1.29744 -8.25709 0)
(-2.92726 -10.9351 0)
(-5.07732 -13.4061 0)
(-7.67024 -15.7355 0)
(-10.6987 -17.95 0)
(-14.1206 -20.0504 0)
(-17.8775 -22.021 0)
(-21.9204 -23.837 0)
(-26.2064 -25.4695 0)
(-30.6945 -26.8956 0)
(-35.3452 -28.0936 0)
(-40.1203 -29.0421 0)
(-44.9819 -29.7207 0)
(-49.8921 -30.11 0)
(-54.8133 -30.1929 0)
(-59.7369 -29.9574 0)
(0.0941069 -1.67637 0)
(-0.378249 -4.75096 0)
(-1.51301 -7.15744 0)
(-3.37538 -9.24917 0)
(-5.72064 -11.1959 0)
(-8.48122 -13.0345 0)
(-11.6396 -14.7755 0)
(-15.1462 -16.4142 0)
(-18.944 -17.9359 0)
(-22.9844 -19.3189 0)
(-27.2238 -20.5403 0)
(-31.6199 -21.5801 0)
(-36.1297 -22.4178 0)
(-40.7111 -23.0338 0)
(-45.3238 -23.4119 0)
(-49.9286 -23.5394 0)
(-54.4817 -23.4085 0)
(-58.9715 -22.9937 0)
(-0.116511 -1.53288 0)
(-0.618984 -4.09674 0)
(-1.93455 -6.01076 0)
(-3.93694 -7.66106 0)
(-6.37935 -9.18072 0)
(-9.22836 -10.6084 0)
(-12.4643 -11.9552 0)
(-16.0271 -13.2135 0)
(-19.8512 -14.3755 0)
(-23.8818 -15.42 0)
(-28.0774 -16.3241 0)
(-32.3943 -17.0766 0)
(-36.7846 -17.6631 0)
(-41.202 -18.0655 0)
(-45.6045 -18.2693 0)
(-49.9548 -18.2706 0)
(-54.1832 -18.0842 0)
(-58.3014 -17.6512 0)
(-0.149221 -1.27885 0)
(-0.786616 -3.42532 0)
(-2.30433 -4.95573 0)
(-4.44771 -6.21688 0)
(-6.98946 -7.34294 0)
(-9.92477 -8.39836 0)
(-13.2285 -9.39981 0)
(-16.8359 -10.3369 0)
(-20.675 -11.2093 0)
(-24.708 -11.9851 0)
(-28.9003 -12.6248 0)
(-33.2013 -13.1264 0)
(-37.5467 -13.4884 0)
(-41.8805 -13.7002 0)
(-46.1656 -13.7464 0)
(-50.379 -13.6258 0)
(-54.4644 -13.3416 0)
(-58.5446 -12.6994 0)
(-0.137362 -1.05184 0)
(-0.868066 -2.74232 0)
(-2.59174 -3.88456 0)
(-4.88205 -4.83017 0)
(-7.51792 -5.67392 0)
(-10.5119 -6.46221 0)
(-13.8362 -7.19923 0)
(-17.4376 -7.87176 0)
(-21.2485 -8.4706 0)
(-25.3099 -8.97783 0)
(-29.4784 -9.43335 0)
(-33.7276 -9.80621 0)
(-38.0104 -10.0664 0)
(-42.2771 -10.1952 0)
(-46.4935 -10.1668 0)
(-50.5931 -9.94672 0)
(-54.738 -9.73414 0)
(-58.6774 -9.36268 0)
(-0.0952101 -0.841678 0)
(-0.921449 -2.08808 0)
(-2.82897 -2.96159 0)
(-5.24517 -3.64026 0)
(-7.91412 -4.26392 0)
(-10.8499 -4.85752 0)
(-14.0484 -5.40208 0)
(-17.477 -5.87632 0)
(-21.1235 -6.33357 0)
(-25.0226 -6.69203 0)
(-29.0024 -6.92747 0)
(-33.0811 -7.12773 0)
(-37.2361 -7.26528 0)
(-41.4288 -7.31416 0)
(-45.6189 -7.25413 0)
(-49.7045 -7.04516 0)
(-53.7295 -6.68535 0)
(-57.3445 -6.42703 0)
(-0.0136856 -0.640185 0)
(-1.07611 -1.53249 0)
(-2.95602 -2.22844 0)
(-5.20144 -2.73321 0)
(-7.55384 -3.16024 0)
(-10.1327 -3.56227 0)
(-13.0417 -3.90744 0)
(-16.2912 -4.17874 0)
(-19.9478 -4.36301 0)
(-23.6712 -4.5321 0)
(-27.696 -4.62588 0)
(-31.9544 -4.64146 0)
(-36.3602 -4.57377 0)
(-40.8275 -4.41985 0)
(-45.2679 -4.18075 0)
(-49.5869 -3.85063 0)
(-53.7074 -3.49967 0)
(-57.6423 -3.13845 0)
(0.0871144 -0.473675 0)
(-0.588284 -1.07091 0)
(-2.27688 -1.45204 0)
(-4.61757 -1.77964 0)
(-7.71032 -2.04041 0)
(-11.4892 -2.2377 0)
(-15.8039 -2.3602 0)
(-20.4895 -2.39564 0)
(-25.3896 -2.39603 0)
(-30.3762 -2.34193 0)
(-35.408 -2.20374 0)
(-40.3095 -2.03706 0)
(-44.984 -1.86359 0)
(-49.3654 -1.67899 0)
(-53.3968 -1.47967 0)
(-57.0262 -1.26595 0)
(-60.2157 -1.0561 0)
(-63.0015 -0.85229 0)
(-0.513611 -0.275785 0)
(-2.89461 -0.549412 0)
(-6.4623 -0.663528 0)
(-10.622 -0.699729 0)
(-14.941 -0.693498 0)
(-19.2329 -0.629154 0)
(-23.4095 -0.531155 0)
(-27.3531 -0.436564 0)
(-30.9957 -0.342474 0)
(-34.3839 -0.334028 0)
(-37.4253 -0.349045 0)
(-40.139 -0.313677 0)
(-42.518 -0.288402 0)
(-44.5808 -0.270207 0)
(-46.3447 -0.251014 0)
(-47.8143 -0.225964 0)
(-48.9951 -0.198601 0)
(-49.9417 -0.160234 0)
(-3.29006 -1.94017 2.06798e-18)
(-8.50571 -5.50831 -2.04059e-18)
(-3.55623 -10.9578 0)
(12.9474 -14.207 0)
(35.6416 -17.683 0)
(58.2236 -24.1002 2.02804e-18)
(80.1152 -26.9402 0)
(102.116 -25.6963 0)
(119.518 -22.3231 0)
(132.823 -18.2182 0)
(142.886 -14.4829 -1.83286e-18)
(150.634 -11.7321 0)
(157.257 -10.2261 0)
(163.869 -9.81835 0)
(171.518 -10.3397 0)
(180.895 -11.551 -1.60926e-18)
(192.461 -13.1975 0)
(206.498 -15.0413 0)
(222.909 -16.9052 0)
(242.009 -18.5252 0)
(260.697 -20.0936 0)
(284.362 -19.4904 0)
(305.736 -15.9084 0)
(323.616 -9.43579 -1.24481e-18)
(336.777 -0.852491 1.21707e-18)
(343.901 8.62192 -1.19641e-18)
(343.239 19.2883 -1.18243e-18)
(334.502 29.6075 0)
(318.244 36.2563 0)
(295.087 39.3533 1.15936e-18)
(266.779 39.0315 1.14931e-18)
(235.197 36.3231 0)
(202.32 30.2696 0)
(170.587 8.81635 1.08949e-18)
(150.158 -42.713 0)
(159.864 -75.0375 0)
(197.876 -72.2946 -9.63021e-19)
(247.841 -49.8908 0)
(284.759 -20.8025 -9.28863e-19)
(288.623 19.7917 -1.83412e-18)
(251.607 63.6652 0)
(171.406 89.5618 0)
(43.3109 82.5139 0)
(-76.6712 89.1001 0)
(-168.576 84.5366 0)
(-252.591 69.416 -4.18362e-19)
(-311.589 48.8905 -7.30068e-23)
(-343.833 18.3784 -1.07673e-18)
(-345.525 -13.8355 0)
(-309.946 -41.2729 6.47256e-19)
(-249.747 -65.7273 0)
(-175.2 -86.378 -7.07346e-20)
(-77.556 -79.6342 -4.01424e-20)
(-8.39723 -37.7791 0)
(8.57303 25.7436 0)
(-36.0636 71.4226 0)
(-105.564 65.5095 8.83026e-20)
(-144.999 21.8731 0)
(-140.118 -17.818 0)
(-92.1246 -26.7179 0)
(-39.037 -11.6797 0)
(8.89847 -2.47876 0)
(62.5432 -14.6232 0)
(126.388 -39.6325 0)
(194.93 -57.3786 0)
(263.867 -65.6181 2.56299e-19)
(322.538 -66.1343 0)
(367.784 -59.904 0)
(396.601 -48.7025 -5.84447e-19)
(408.116 -34.447 -7.04161e-19)
(403.148 -19.0871 0)
(383.978 -4.52034 9.18365e-19)
(353.916 7.84971 -1.00541e-18)
(316.591 17.4738 0)
(275.293 24.489 1.13949e-18)
(232.678 29.216 0)
(190.738 31.8899 0)
(151.249 32.96 -1.28529e-18)
(115.885 31.0365 0)
(85.952 26.6302 1.36991e-18)
(62.3352 21.5341 0)
(44.9146 15.9057 -1.45603e-18)
(33.4218 10.3177 -1.48043e-18)
(27.6173 5.65753 -1.50303e-18)
(27.8801 2.75016 -3.03724e-18)
(28.403 1.6413 3.04636e-18)
(29.8546 1.32995 0)
(30.5517 1.69669 0)
(29.8223 2.55871 0)
(26.9153 3.83662 2.78424e-18)
(21.3043 5.46332 2.6359e-18)
(12.5898 7.36593 -2.45609e-18)
(0.442845 9.4867 0)
(-15.4568 11.8061 2.0125e-18)
(-35.3765 14.2921 1.75443e-18)
(-59.5527 16.9243 1.4765e-18)
(-88.2169 19.7014 0)
(-121.615 22.6428 0)
(-159.998 25.7232 0)
(-203.561 28.7264 2.22839e-19)
(-252.24 31.3878 0)
(-305.584 33.2965 0)
(-362.709 33.6718 7.64112e-19)
(-421.542 31.0656 0)
(-479.305 25.9381 0)
(-534.4 17.7213 1.52629e-18)
(-576.237 11.1601 0)
(-625.133 10.4996 0)
(-681.38 21.1455 -1.73521e-18)
(-716.374 22.472 -1.20988e-18)
(-745.523 19.507 0)
(-764.055 -3.78022 9.14131e-19)
(-756.804 -27.1088 0)
(-722.355 -37.6168 -3.81719e-19)
(-670.599 -46.3382 0)
(-606.23 -50.9744 8.76409e-20)
(-533.893 -51.4338 2.72609e-19)
(-455.605 -50.2609 0)
(-371.679 -48.0653 0)
(-284.756 -43.3497 0)
(-199.383 -35.9161 0)
(-120.242 -27.3152 0)
(-49.0499 -20.5552 0)
(19.496 -17.01 0)
(65.3134 -5.82541 8.45418e-19)
(95.5626 2.70303 -7.61157e-19)
(115.134 7.86941 0)
(125.698 9.43373 0)
(131.05 9.02374 0)
(133.232 7.48516 0)
(133.465 5.67589 -6.76168e-19)
(132.642 3.91971 0)
(131.191 2.28369 5.24985e-19)
(129.19 0.839185 -4.69808e-19)
(126.445 -0.312958 0)
(122.607 -1.08391 0)
(117.343 -1.44596 0)
(110.533 -1.45678 3.53711e-19)
(102.389 -1.23409 3.42533e-19)
(93.4168 -0.89157 0)
(84.2409 -0.480008 3.31796e-19)
(75.4295 0.00428363 3.30319e-19)
(67.38 0.504805 -3.30665e-19)
(60.1968 0.841601 0)
(53.7457 1.02635 0)
(47.8417 1.14323 -3.34405e-19)
(42.3314 1.2634 0)
(37.115 1.42164 0)
(32.2277 1.48639 0)
(27.7483 1.34258 0)
(23.5732 1.17484 3.31776e-19)
(19.3104 1.10594 3.29685e-19)
(14.7397 1.01185 0)
(10.1003 0.868193 3.22264e-19)
(5.68053 0.77639 0)
(1.56425 0.740192 0)
(-2.24652 0.710928 3.08248e-19)
(-5.72805 0.66481 0)
(-8.86619 0.607878 2.98214e-19)
(-11.6591 0.539234 0)
(-14.0653 0.451727 0)
(-16.0473 0.361374 2.84081e-19)
(-17.6248 0.281104 0)
(-18.8489 0.213261 2.75178e-19)
(-19.7672 0.156193 0)
(-20.4185 0.106781 0)
(-20.8334 0.06176 0)
(-21.0339 0.0190676 -2.57935e-19)
(-21.0352 -0.0228114 0)
(-20.8478 -0.0647486 2.50619e-19)
(-20.481 -0.106779 0)
(-19.9435 -0.148516 0)
(-19.2463 -0.189437 0)
(-18.397 -0.229564 0)
(-17.4084 -0.272355 0)
(-16.2466 -0.323126 0)
(-14.9601 -0.367154 0)
(-13.2825 -0.363209 -4.69323e-19)
(-11.8751 -0.501854 0)
(-8.38838 -0.505802 0)
(-9.34079 26.8738 -6.18048e-18)
(-15.7659 1.98185 6.10838e-18)
(-8.2725 -34.135 0)
(0.272748 -63.2575 -3.94178e-18)
(10.1738 -77.0571 0)
(17.8814 -76.989 -1.9175e-18)
(21.9469 -69.3894 3.68044e-18)
(22.5441 -57.4164 3.60558e-18)
(21.5393 -44.09 0)
(20.1621 -32.3777 3.46006e-18)
(19.4598 -23.9751 1.71127e-18)
(20.3233 -19.3712 0)
(23.2463 -18.3951 0)
(28.7116 -20.3997 0)
(37.0994 -24.5965 0)
(48.5796 -30.3456 1.51946e-18)
(63.2442 -36.9502 0)
(81.042 -43.7283 -2.93018e-18)
(101.832 -50.0737 0)
(124.96 -55.3655 0)
(151.547 -59.2921 2.65215e-18)
(177.28 -60.7238 0)
(206.068 -58.536 -2.39471e-18)
(237.747 -52.4782 1.16802e-18)
(271.159 -42.6241 -1.13615e-18)
(304.8 -29.1361 1.11172e-18)
(336.954 -12.3972 1.09415e-18)
(365.316 6.56421 0)
(387.745 26.2585 0)
(402.054 44.8263 -1.0669e-18)
(406.714 60.3693 9.67382e-19)
(401.345 71.254 0)
(386.734 76.2092 0)
(364.173 72.7606 -1.04257e-18)
(331.956 53.3627 0)
(284.742 7.70889 0)
(233.952 -59.6214 1.04331e-18)
(213.064 -85.8347 0)
(203.989 -19.3298 -9.92307e-19)
(167.088 65.5705 1.91993e-18)
(94.2503 141.951 0)
(0.149102 197.276 0)
(-54.0435 218.106 4.18858e-18)
(-121.075 218.243 2.4331e-18)
(-210.79 206.863 1.42502e-18)
(-273.742 172.709 -7.33484e-19)
(-318.804 104.999 -9.67522e-20)
(-335.03 19.8465 2.1636e-18)
(-310.56 -53.3435 -1.3323e-18)
(-266.334 -107.064 -6.63673e-19)
(-210.317 -137.563 0)
(-158.146 -152.831 1.01771e-19)
(-126.073 -143.036 -3.42723e-19)
(-80.2177 -90.8998 0)
(-46.2788 -4.62235 0)
(-43.064 75.0437 0)
(-36.5949 94.1524 -7.48369e-20)
(10.106 27.8052 0)
(79.1627 -59.8974 -5.57483e-19)
(149.858 -113.714 0)
(246.436 -127.42 -6.39135e-20)
(344.466 -139.006 0)
(429.859 -146.229 4.9178e-20)
(492.729 -142.556 0)
(530.524 -126.853 -3.09111e-19)
(541.128 -100.645 3.2122e-19)
(526.316 -67.7164 0)
(489.762 -32.2263 9.61878e-19)
(436.371 2.18196 5.43946e-19)
(371.855 32.4463 6.73022e-19)
(302.026 56.3313 0)
(232.142 72.6913 8.86356e-19)
(166.464 81.5504 9.97231e-19)
(108.069 83.8718 0)
(58.9613 81.0576 -1.13864e-18)
(20.199 74.4539 2.28042e-18)
(-7.90416 65.2074 0)
(-25.8594 54.4264 1.27811e-18)
(-35.1089 43.1354 0)
(-37.1563 32.137 -3.99073e-18)
(-33.7842 22.0233 0)
(-26.6797 13.139 4.23315e-18)
(-17.6498 5.71504 1.44279e-18)
(-8.6561 0.256972 -1.47494e-18)
(-2.33943 -2.82038 -3.00663e-18)
(4.60651 -3.7145 3.03548e-18)
(10.2737 -3.06187 0)
(14.6521 -1.0868 0)
(17.0413 1.9658 0)
(16.9473 5.84853 -8.20554e-18)
(13.8973 10.3058 -2.54914e-18)
(7.6263 14.993 2.37546e-18)
(-2.20118 20.0718 0)
(-15.7538 25.4467 2.08951e-18)
(-33.2367 31.034 -1.69996e-18)
(-54.8161 36.8018 -1.43324e-18)
(-80.6976 42.7332 0)
(-111.139 48.7975 0)
(-146.333 54.9339 0)
(-186.44 61.0014 -2.31687e-19)
(-231.655 66.7219 0)
(-282.056 71.5926 -6.01368e-19)
(-337.025 74.8328 -1.99396e-18)
(-397.87 75.2284 1.94097e-18)
(-464.031 72.9056 0)
(-532.535 68.7069 1.49123e-18)
(-601.451 65.4735 0)
(-667.712 71.1323 4.14136e-18)
(-722.426 55.2217 -1.8462e-18)
(-764.258 38.1011 -1.21813e-18)
(-793.118 25.208 0)
(-807.372 8.50457 -2.60445e-18)
(-805.391 -17.1592 1.29877e-18)
(-784.705 -40.9033 3.5772e-19)
(-747.809 -58.5812 0)
(-698.397 -70.5648 -5.84093e-20)
(-637.363 -78.7959 -6.06438e-19)
(-566.193 -88.6256 0)
(-488.653 -95.6516 -8.63324e-19)
(-405.635 -97.494 -1.03832e-18)
(-320.624 -94.1343 -1.15878e-18)
(-237.233 -87.4555 0)
(-158.849 -80.142 0)
(-97.4213 -72.5205 0)
(-39.4514 -58.2107 5.54666e-19)
(13.2835 -38.9988 7.71942e-19)
(57.4982 -25.4005 0)
(87.4248 -15.8728 1.02272e-18)
(105.413 -9.13717 8.8656e-19)
(113.504 -4.73968 0)
(114.243 -1.88027 6.88499e-19)
(109.998 0.018407 1.20648e-18)
(102.881 1.40786 -5.43031e-19)
(94.6501 2.6548 -4.70787e-19)
(86.641 3.99517 0)
(79.7409 5.49519 0)
(74.3956 7.04317 0)
(70.6474 8.39819 -3.62881e-19)
(68.2215 9.29474 3.17076e-19)
(66.6614 9.55692 6.413e-19)
(65.4604 9.17815 -3.24037e-19)
(64.1419 8.38557 3.0353e-19)
(62.3114 7.52837 3.15947e-19)
(59.7559 6.74365 0)
(56.4148 6.09984 0)
(52.3053 5.59847 -3.13307e-19)
(47.5842 5.13172 0)
(42.5214 4.54113 0)
(37.7215 3.91557 6.33487e-19)
(33.1052 3.57171 0)
(27.9689 3.62074 3.16544e-19)
(22.4248 4.02212 -3.14715e-19)
(16.3087 4.41473 0)
(9.6562 4.43255 3.08623e-19)
(2.75375 4.17286 0)
(-4.1527 3.82272 0)
(-10.8838 3.45882 -2.99915e-19)
(-17.2885 3.09216 5.92496e-19)
(-23.2682 2.74081 -2.93472e-19)
(-28.7817 2.3844 0)
(-33.7467 1.99214 0)
(-38.068 1.60954 2.83524e-19)
(-41.7166 1.26901 0)
(-44.7245 0.972432 2.77257e-19)
(-47.1449 0.714705 0)
(-49.0305 0.490742 0)
(-50.4265 0.294383 0)
(-51.37 0.118578 2.63299e-19)
(-51.8929 -0.0411764 0)
(-52.0244 -0.186974 -2.56395e-19)
(-51.7956 -0.319572 0)
(-51.242 -0.439216 0)
(-50.4057 -0.546288 4.96872e-19)
(-49.3339 -0.642047 -4.92932e-19)
(-48.0772 -0.735954 0)
(-46.6762 -0.827688 0)
(-45.1868 -0.965784 0)
(-43.5434 -1.09347 1.43587e-18)
(-42.0549 -1.39058 0)
(-39.3007 -1.3715 -9.39435e-19)
(3.6211 44.1017 8.46988e-20)
(13.8704 -2.85193 -7.94285e-18)
(15.5278 -39.9724 0)
(9.60951 -58.9462 7.47613e-18)
(-4.26076 -61.0697 0)
(-22.1389 -52.0877 0)
(-40.3583 -38.2781 -6.69326e-20)
(-56.3614 -25.1156 -3.42353e-18)
(-68.1511 -15.5885 -3.33272e-18)
(-75.02 -10.7079 -3.3092e-18)
(-77.1921 -10.5061 0)
(-75.0373 -14.4173 0)
(-69.0583 -21.655 3.21579e-18)
(-59.6471 -31.5065 6.3696e-18)
(-47.0351 -43.2324 -6.29705e-18)
(-31.2686 -56.0762 0)
(-12.363 -69.2611 -6.0995e-18)
(9.58863 -81.9931 2.89633e-18)
(34.3993 -93.4589 0)
(61.6131 -102.917 -5.60823e-18)
(91.1494 -109.526 -2.63703e-18)
(121.096 -113.438 5.07973e-18)
(151.847 -114.183 2.36404e-18)
(182.524 -111.13 0)
(213.136 -103.541 -4.35295e-18)
(243.761 -90.828 -4.18246e-18)
(274.326 -72.7487 0)
(304.57 -49.5908 -3.86783e-18)
(333.666 -22.3039 0)
(360.055 7.51911 -3.64915e-18)
(381.542 37.6725 -1.92802e-18)
(395.586 65.3934 0)
(399.709 87.69 0)
(391.818 101.84 0)
(369.581 105.479 0)
(328.57 92.7472 0)
(264.704 57.2945 0)
(182.943 18.2251 -3.86272e-18)
(110.876 43.3778 5.81941e-18)
(60.7239 141.262 0)
(14.6604 251.927 0)
(-38.5159 319.321 0)
(-89.437 334.337 -2.46361e-18)
(-168.045 329.461 -2.10621e-18)
(-224.598 307.944 -1.6349e-18)
(-267.104 243.514 1.14403e-18)
(-280.781 123.359 6.9787e-19)
(-262.81 -11.0867 -1.19992e-18)
(-218.225 -122.062 1.30011e-19)
(-159.57 -191.37 -1.21123e-18)
(-101.387 -215.811 0)
(-48.4165 -209.012 -1.12282e-18)
(-21.7904 -189.855 -9.72559e-20)
(-11.5174 -126.239 0)
(4.01219 -13.1678 0)
(49.5404 53.3163 -4.73739e-19)
(141.16 -15.859 0)
(269.73 -139.64 0)
(381.196 -211.853 -2.57158e-19)
(459.071 -240.776 -1.43091e-19)
(520.091 -241.847 -6.71314e-20)
(555.415 -224.179 0)
(559.386 -190.923 -1.46273e-20)
(531.594 -145.559 0)
(477.33 -92.4474 -7.84501e-19)
(404.27 -36.6255 -5.75111e-19)
(321.2 16.651 1.95004e-18)
(236.228 63.1377 1.26474e-18)
(156.27 99.9353 0)
(86.387 125.467 -2.98759e-18)
(29.5385 139.462 0)
(-13.3067 142.858 -5.39161e-18)
(-42.7982 137.511 -3.71527e-18)
(-60.6027 125.721 -3.91275e-18)
(-68.8539 109.802 4.1037e-18)
(-69.7699 91.7545 -6.6092e-18)
(-65.4045 73.1156 0)
(-57.5647 54.981 0)
(-47.7561 38.2123 4.93233e-18)
(-36.9928 23.52 7.79286e-18)
(-25.7391 11.25 0)
(-14.2635 1.44193 -2.81449e-18)
(-2.66514 -5.70784 0)
(9.14757 -10.18 8.90252e-18)
(21.0571 -12.2689 -1.05531e-19)
(32.3839 -12.2575 1.34028e-19)
(42.4443 -10.0966 -6.11523e-18)
(50.783 -6.17007 0)
(56.7852 -0.740188 5.87808e-18)
(60.2694 5.68863 -1.69402e-19)
(60.8381 13.2977 0)
(58.1339 21.7643 0)
(51.5858 30.6693 0)
(41.325 39.9978 -4.03029e-18)
(27.177 49.6592 0)
(9.03394 59.6355 0)
(-13.27 69.9559 0)
(-39.9817 80.629 0)
(-71.4372 91.5843 0)
(-108.098 102.749 -9.58403e-19)
(-150.412 113.868 0)
(-198.764 124.434 5.4699e-19)
(-253.33 133.67 1.17584e-18)
(-314.392 140.821 -1.79937e-18)
(-380.98 142.753 0)
(-452.299 140.767 -2.91395e-18)
(-524.757 135.133 0)
(-591.905 123.911 -3.31536e-18)
(-651.918 104.72 2.60324e-18)
(-703.364 79.3526 7.20001e-18)
(-741.042 48.4797 0)
(-763.178 10.5981 5.13414e-18)
(-772.32 -30.4904 1.39632e-18)
(-767.7 -68.9014 0)
(-746.918 -99.4119 7.6401e-19)
(-706.988 -123.009 -1.11647e-19)
(-647.89 -138.412 1.41364e-18)
(-579.522 -151.267 0)
(-509.932 -160.531 8.50243e-19)
(-436.194 -163.866 1.00681e-18)
(-359.793 -160.459 3.19797e-18)
(-283.244 -150.666 0)
(-208.993 -134.597 0)
(-139.614 -113.845 0)
(-74.9595 -94.8815 5.10146e-19)
(-18.6815 -71.2609 0)
(27.4269 -51.7544 0)
(65.4568 -33.6686 -1.00714e-18)
(94.2295 -18.566 -8.76942e-19)
(113.377 -6.73489 0)
(123.83 1.80432 0)
(126.949 7.31937 -1.21163e-18)
(124.411 10.3176 0)
(117.958 11.4127 9.7303e-19)
(109.233 11.237 8.64445e-19)
(99.6817 10.3665 0)
(90.4547 9.25379 0)
(82.339 8.18995 -7.04449e-19)
(75.7378 7.31326 1.30695e-21)
(70.7059 6.66147 2.01237e-21)
(67.0431 6.22101 0)
(64.4284 5.9755 -1.23516e-18)
(62.4682 5.93756 0)
(60.7621 6.13587 0)
(58.9674 6.53026 0)
(56.7982 7.00012 6.14982e-19)
(54.0611 7.36521 0)
(50.5704 7.57323 -1.23198e-18)
(45.9578 7.67282 -6.12789e-19)
(40.2297 7.60207 0)
(33.9215 7.59641 -6.09645e-19)
(27.2126 7.78461 0)
(21.111 8.02697 0)
(14.9048 8.20523 -1.77161e-18)
(8.45572 8.22094 1.16845e-18)
(1.81152 8.02645 0)
(-4.93522 7.64872 1.14353e-18)
(-11.6506 7.12278 -5.66159e-19)
(-18.2449 6.54266 0)
(-24.6315 5.91217 0)
(-30.7083 5.16154 0)
(-36.3882 4.35016 -1.65081e-18)
(-41.6445 3.56754 0)
(-46.4578 2.86292 -5.43029e-19)
(-50.7932 2.24279 0)
(-54.6087 1.69432 0)
(-57.8629 1.20224 0)
(-60.5199 0.753001 0)
(-62.5531 0.338148 0)
(-63.9523 -0.0447341 0)
(-64.728 -0.393325 -1.01981e-18)
(-64.9125 -0.703253 0)
(-64.561 -0.969172 -5.02289e-19)
(-63.7524 -1.19018 1.49793e-18)
(-62.5764 -1.37431 0)
(-61.1441 -1.52481 0)
(-59.5443 -1.67587 -9.82943e-19)
(-57.9064 -1.78267 -9.73784e-19)
(-56.2787 -2.08083 9.69984e-19)
(-54.5761 -1.99526 9.57787e-19)
(15.2398 -6.35206 1.1751e-17)
(13.2582 -16.9567 1.12858e-17)
(0.115528 -19.2045 7.17202e-18)
(-23.8939 -13.0827 3.38854e-18)
(-51.6081 -3.91951 0)
(-76.5129 3.69158 -6.64529e-18)
(-94.92 7.17667 3.27067e-18)
(-105.699 5.71785 0)
(-109.494 -0.132802 3.27198e-18)
(-107.786 -9.05595 0)
(-102.155 -20.0186 -6.55089e-18)
(-93.8296 -32.5202 0)
(-83.45 -46.4687 -3.21767e-18)
(-71.071 -61.9051 -6.3908e-18)
(-56.3463 -78.7396 6.33198e-18)
(-38.7877 -96.5891 0)
(-17.9988 -114.731 6.15596e-18)
(6.17748 -132.176 0)
(33.6022 -147.797 0)
(63.8689 -160.481 5.68945e-18)
(96.2601 -169.18 0)
(130.322 -173.218 -3.33082e-21)
(164.202 -171.543 0)
(197.259 -165.814 0)
(228.625 -155.021 2.13198e-20)
(257.397 -138.622 4.20406e-18)
(283.146 -117.73 3.96172e-18)
(305.825 -92.6298 3.87329e-18)
(325.589 -63.4211 0)
(342.742 -30.325 7.01474e-18)
(357.173 6.07226 0)
(367.834 44.4133 3.17711e-18)
(372.542 82.3512 0)
(368.159 116.795 0)
(351.168 144.801 -3.17551e-18)
(317.544 162.768 0)
(261.899 165.262 3.23943e-18)
(180.102 153.682 5.38336e-19)
(86.1884 158.425 -6.63138e-18)
(9.61451 214.003 5.36448e-18)
(-41.5 304.293 0)
(-83.2205 374.226 0)
(-112.876 405.662 -1.9875e-18)
(-158.993 412.578 0)
(-202.72 375.001 6.34899e-19)
(-221.43 274.56 -5.34423e-19)
(-202.523 103.17 -7.41786e-19)
(-151.309 -80.4293 0)
(-85.0172 -216.456 1.3968e-18)
(-20.434 -285.245 1.35622e-18)
(32.8493 -294.696 -2.77645e-18)
(67.7005 -257.854 1.07332e-18)
(81.6309 -194.063 5.224e-19)
(86.2716 -116.67 0)
(142.449 -73.6106 0)
(269.818 -123.879 6.88497e-19)
(408.49 -224.93 0)
(505.212 -285.626 0)
(553.898 -303.098 3.33389e-19)
(562.617 -286.201 9.4649e-20)
(535.912 -243.608 0)
(479.187 -182.952 0)
(399.553 -112.887 0)
(306.364 -41.2531 0)
(209.686 25.5483 1.40039e-18)
(118.675 82.5612 -1.9083e-18)
(40.2524 126.572 -2.21926e-18)
(-21.5533 156.401 -5.03457e-18)
(-65.5482 172.549 0)
(-92.9471 176.699 2.83868e-19)
(-106.591 171.187 0)
(-110.024 158.547 3.62345e-18)
(-106.643 141.184 3.39424e-19)
(-99.1379 121.177 3.99478e-18)
(-89.333 100.218 -4.17785e-18)
(-78.294 79.5868 2.48408e-19)
(-66.5024 60.0853 0)
(-54.0168 42.0618 -4.62766e-18)
(-40.7068 25.6327 -5.00547e-18)
(-26.5437 10.9191 -1.03944e-17)
(-11.5827 -1.96809 0)
(4.37124 -12.913 5.71754e-18)
(21.4121 -21.3051 0)
(38.9799 -26.2107 -1.2235e-17)
(55.8808 -27.2879 6.14897e-18)
(71.3698 -25.5939 -6.196e-18)
(84.7881 -21.7489 6.16124e-18)
(96.5056 -16.3325 1.25861e-17)
(105.552 -8.43132 -5.91047e-18)
(111.696 1.31606 5.69611e-18)
(114.324 12.0444 0)
(113.633 23.9333 -1.058e-17)
(109.905 36.3968 0)
(103.229 49.2834 -8.88656e-18)
(93.6892 62.543 7.92973e-18)
(81.2687 76.1899 6.9258e-18)
(65.7953 90.3246 -5.88612e-18)
(46.8616 105.089 -4.81604e-18)
(23.8342 120.531 0)
(-4.0488 136.537 -1.5944e-18)
(-37.6109 152.77 0)
(-77.6424 168.521 0)
(-124.798 182.658 8.38716e-19)
(-179.412 193.568 0)
(-241.373 199.622 0)
(-309.566 199.78 4.3951e-18)
(-380.879 193.147 0)
(-451.355 178.248 0)
(-517.129 152.79 0)
(-575.581 118.622 -9.35925e-18)
(-622.915 77.3838 0)
(-657.429 29.905 -7.0328e-18)
(-679.291 -21.1344 -2.6202e-18)
(-687.912 -71.4141 -1.95485e-18)
(-681.101 -118.543 2.63504e-19)
(-656.508 -159.93 1.2639e-19)
(-610.928 -188.57 -1.53336e-18)
(-552.855 -204.089 -9.87117e-19)
(-489.852 -214.787 0)
(-422.677 -218.736 -1.66627e-18)
(-352.599 -215.092 -3.88152e-18)
(-282.225 -203.78 0)
(-213.686 -185.772 0)
(-148.385 -162.527 0)