/*--------------------------------*- C++ -*----------------------------------*\
| =========                 |                                                 |
| \\      /  F ield         | OpenFOAM: The Open Source CFD Toolbox           |
|  \\    /   O peration     | Version:  2112                                  |
|   \\  /    A nd           | Website:  www.openfoam.com                      |
|    \\/     M anipulation  |                                                 |
\*---------------------------------------------------------------------------*/
FoamFile
{
    version     2.0;
    format      ascii;
    arch        "LSB;label=32;scalar=64";
    class       surfaceScalarField;
    location    "0.4";
    object      phi;
}
// * * * * * * * * * * * * * * * * * * * * * * * * * * * * * * * * * * * * * //

dimensions      [0 3 -1 0 0 0 0];

oriented        oriented;

internalField   nonuniform List<scalar> 
24170
(
3.05207e-06
7.94245e-08
3.00149e-06
5.05775e-08
2.91689e-06
8.4597e-08
2.81937e-06
9.75194e-08
2.71426e-06
1.05116e-07
2.6025e-06
1.11758e-07
2.48841e-06
1.14091e-07
2.37966e-06
1.08748e-07
2.28367e-06
9.59908e-08
2.2015e-06
8.21639e-08
2.12809e-06
7.34171e-08
2.05534e-06
7.27461e-08
1.97424e-06
8.11039e-08
1.87761e-06
9.6631e-08
1.76129e-06
1.16321e-07
1.62423e-06
1.37057e-07
1.45919e-06
1.65038e-07
1.87329e-07
1.27186e-06
3.36127e-06
2.56152e-08
3.41176e-06
9.27452e-11
3.42681e-06
6.95409e-08
3.44139e-06
8.29397e-08
3.45282e-06
9.36845e-08
3.45408e-06
1.10498e-07
3.44805e-06
1.20119e-07
3.44075e-06
1.16048e-07
3.43325e-06
1.03499e-07
3.41981e-06
9.55986e-08
3.39276e-06
1.00467e-07
3.34854e-06
1.16968e-07
3.29124e-06
1.38403e-07
3.22686e-06
1.61012e-07
3.16172e-06
1.81456e-07
3.0926e-06
2.06179e-07
3.01922e-06
2.38415e-07
2.77986e-07
2.92857e-06
3.71e-06
6.7321e-08
3.66363e-06
4.64663e-08
3.62338e-06
1.09784e-07
3.6234e-06
8.29176e-08
3.66071e-06
5.63773e-08
3.71042e-06
6.07933e-08
3.75329e-06
7.72492e-08
3.77846e-06
9.08709e-08
3.78128e-06
1.00685e-07
3.76347e-06
1.13406e-07
3.73092e-06
1.33013e-07
3.69152e-06
1.56372e-07
3.65165e-06
1.78276e-07
3.61525e-06
1.97409e-07
3.58255e-06
2.14159e-07
3.55349e-06
2.35233e-07
3.52676e-06
2.65154e-07
3.05503e-07
3.49924e-06
3.96619e-06
6.64625e-08
3.91562e-06
9.70367e-08
3.90083e-06
1.24574e-07
3.90245e-06
8.13044e-08
3.91448e-06
4.43438e-08
3.93129e-06
4.39848e-08
3.94523e-06
6.33027e-08
3.95078e-06
8.5321e-08
3.94685e-06
1.04617e-07
3.93611e-06
1.24146e-07
3.92243e-06
1.467e-07
3.90837e-06
1.70432e-07
3.89475e-06
1.91894e-07
3.8806e-06
2.11557e-07
3.86438e-06
2.3038e-07
3.84598e-06
2.53626e-07
3.82721e-06
2.8393e-07
3.23035e-07
3.80968e-06
4.17951e-06
6.4711e-09
4.1869e-06
8.96479e-08
4.20957e-06
1.01901e-07
4.23417e-06
5.6708e-08
4.25839e-06
2.01279e-08
4.27635e-06
2.60203e-08
4.28019e-06
5.94594e-08
4.26967e-06
9.58482e-08
4.2512e-06
1.2308e-07
4.23261e-06
1.42738e-07
4.21818e-06
1.61131e-07
4.20689e-06
1.81722e-07
4.19475e-06
2.04037e-07
4.17767e-06
2.28635e-07
4.15417e-06
2.53877e-07
4.12625e-06
2.81553e-07
4.09881e-06
3.11362e-07
3.45715e-07
4.07613e-06
4.57467e-06
1.25636e-08
4.56726e-06
9.70583e-08
4.56766e-06
1.01499e-07
4.55735e-06
6.7024e-08
4.54511e-06
3.23711e-08
4.53517e-06
3.59548e-08
4.52561e-06
6.90157e-08
4.51527e-06
1.06192e-07
4.50659e-06
1.31762e-07
4.50264e-06
1.46691e-07
4.5043e-06
1.59466e-07
4.50913e-06
1.76894e-07
4.51254e-06
2.00622e-07
4.51016e-06
2.3102e-07
4.49922e-06
2.64814e-07
4.48056e-06
3.00216e-07
4.45746e-06
3.34462e-07
3.68096e-07
4.43508e-06
4.78922e-06
9.65222e-08
4.88274e-06
3.5438e-09
4.929e-06
5.52375e-08
4.91626e-06
7.97627e-08
4.88267e-06
6.59649e-08
4.85252e-06
6.60987e-08
4.82729e-06
9.42497e-08
4.80537e-06
1.28113e-07
4.79083e-06
1.463e-07
4.78902e-06
1.48503e-07
4.80098e-06
1.47504e-07
4.82157e-06
1.56306e-07
4.84151e-06
1.80683e-07
4.85252e-06
2.20007e-07
4.85186e-06
2.65468e-07
4.84148e-06
3.10601e-07
4.82469e-06
3.51247e-07
3.86827e-07
4.80596e-06
5.13426e-06
-2.92506e-08
5.16464e-06
-2.68297e-08
5.18408e-06
3.58002e-08
5.19568e-06
6.81608e-08
5.20624e-06
5.5403e-08
5.21632e-06
5.60139e-08
5.22261e-06
8.796e-08
5.22391e-06
1.26815e-07
5.21913e-06
1.51083e-07
5.20671e-06
1.60917e-07
5.18671e-06
1.67506e-07
5.16272e-06
1.80296e-07
5.14112e-06
2.02289e-07
5.12768e-06
2.33438e-07
5.12329e-06
2.69862e-07
5.12553e-06
3.08366e-07
5.13212e-06
3.44656e-07
3.77516e-07
5.14143e-06
5.54781e-06
-2.83122e-08
5.53684e-06
-1.5861e-08
5.53642e-06
3.62238e-08
5.52961e-06
7.49648e-08
5.53535e-06
4.96712e-08
5.55062e-06
4.07362e-08
5.56446e-06
7.41232e-08
5.57014e-06
1.21132e-07
5.56628e-06
1.54948e-07
5.5548e-06
1.72394e-07
5.53902e-06
1.83288e-07
5.52206e-06
1.97258e-07
5.5068e-06
2.17548e-07
5.49582e-06
2.44416e-07
5.4909e-06
2.74788e-07
5.49284e-06
3.06425e-07
5.50202e-06
3.35478e-07
3.6184e-07
5.51769e-06
5.90966e-06
5.09879e-08
5.88796e-06
5.83815e-09
5.9013e-06
2.28861e-08
5.92794e-06
4.83213e-08
5.9333e-06
4.43161e-08
5.91396e-06
6.00715e-08
5.88751e-06
1.00574e-07
5.87177e-06
1.36872e-07
5.87369e-06
1.53029e-07
5.88866e-06
1.57424e-07
5.90665e-06
1.65296e-07
5.91845e-06
1.8546e-07
5.92002e-06
2.15982e-07
5.91251e-06
2.51927e-07
5.90029e-06
2.87007e-07
5.88831e-06
3.18404e-07
5.88e-06
3.43781e-07
3.63994e-07
5.87785e-06
6.48787e-06
-4.36294e-08
6.44145e-06
5.22561e-08
6.43458e-06
2.97553e-08
6.43407e-06
4.88345e-08
6.39122e-06
8.71702e-08
6.31988e-06
1.31407e-07
6.26311e-06
1.57343e-07
6.24427e-06
1.55714e-07
6.25768e-06
1.39621e-07
6.28582e-06
1.29282e-07
6.31428e-06
1.36839e-07
6.33663e-06
1.63106e-07
6.35224e-06
2.00379e-07
6.36379e-06
2.40372e-07
6.37409e-06
2.76704e-07
6.3855e-06
3.06997e-07
6.39862e-06
3.30665e-07
3.51128e-07
6.41148e-06
5.73934e-06
3.42125e-08
5.76318e-06
2.84125e-08
5.75314e-06
3.98e-08
5.75478e-06
4.71903e-08
5.77802e-06
6.3936e-08
5.81135e-06
9.80747e-08
5.83951e-06
1.29186e-07
5.84885e-06
1.46366e-07
5.83544e-06
1.53032e-07
5.80641e-06
1.58316e-07
5.77281e-06
1.70434e-07
5.74309e-06
1.92829e-07
5.72097e-06
2.22494e-07
5.70805e-06
2.53296e-07
5.70538e-06
2.79375e-07
5.71207e-06
3.00309e-07
5.72737e-06
3.15364e-07
3.28592e-07
5.7499e-06
7.01244e-06
-5.47767e-08
7.07393e-06
-3.30796e-08
7.07005e-06
4.36779e-08
7.04082e-06
7.64245e-08
7.01649e-06
8.82618e-08
7.02178e-06
9.27824e-08
7.05562e-06
9.5344e-08
7.0953e-06
1.06691e-07
7.11707e-06
1.31259e-07
7.11221e-06
1.63179e-07
7.08824e-06
1.94403e-07
7.05981e-06
2.21261e-07
7.03822e-06
2.4408e-07
7.02702e-06
2.64495e-07
7.02535e-06
2.81051e-07
7.03094e-06
2.94719e-07
7.04304e-06
3.03261e-07
3.1148e-07
7.06015e-06
8.6204e-06
-5.95409e-08
8.60756e-06
-2.02445e-08
8.67569e-06
-2.44453e-08
8.71859e-06
3.35176e-08
8.68957e-06
1.17285e-07
8.62344e-06
1.58915e-07
8.56706e-06
1.51718e-07
8.54253e-06
1.31221e-07
8.54413e-06
1.29658e-07
8.55308e-06
1.54233e-07
8.55425e-06
1.93236e-07
8.54298e-06
2.32528e-07
8.52369e-06
2.63373e-07
8.5044e-06
2.83781e-07
8.4927e-06
2.92755e-07
8.49288e-06
2.94539e-07
8.50681e-06
2.89327e-07
2.82498e-07
8.53579e-06
1.05568e-05
-1.12414e-07
1.0493e-05
4.34888e-08
1.045e-05
1.86142e-08
1.05009e-05
-1.7432e-08
1.056e-05
5.8245e-08
1.05661e-05
1.52777e-07
1.05213e-05
1.96541e-07
1.04627e-05
1.89778e-07
1.04273e-05
1.65062e-07
1.04291e-05
1.52478e-07
1.04599e-05
1.62397e-07
1.05026e-05
1.89812e-07
1.05429e-05
2.23068e-07
1.05744e-05
2.52313e-07
1.05971e-05
2.70107e-07
1.06148e-05
2.76755e-07
1.06305e-05
2.7371e-07
2.66005e-07
1.0647e-05
1.26529e-05
1.23039e-07
1.2564e-05
1.32366e-07
1.25376e-05
4.50396e-08
1.25268e-05
-6.68014e-09
1.25721e-05
1.29468e-08
1.26527e-05
7.2207e-08
1.27301e-05
1.19183e-07
1.27827e-05
1.3708e-07
1.28037e-05
1.44148e-07
1.27984e-05
1.5775e-07
1.27805e-05
1.80325e-07
1.27639e-05
2.06402e-07
1.2759e-05
2.27926e-07
1.27709e-05
2.40451e-07
1.27989e-05
2.42115e-07
1.28389e-05
2.36728e-07
1.28857e-05
2.26862e-07
2.17357e-07
1.29344e-05
1.56036e-05
5.80615e-08
1.57166e-05
1.94089e-08
1.57338e-05
2.7821e-08
1.56485e-05
7.86029e-08
1.55467e-05
1.14711e-07
1.54894e-05
1.29485e-07
1.54741e-05
1.34492e-07
1.54745e-05
1.36699e-07
1.54804e-05
1.38311e-07
1.54956e-05
1.42526e-07
1.55233e-05
1.52566e-07
1.55609e-05
1.68878e-07
1.5601e-05
1.87773e-07
1.56364e-05
2.05107e-07
1.56631e-05
2.15379e-07
1.56828e-05
2.17059e-07
1.57007e-05
2.0894e-07
1.93578e-07
1.57245e-05
1.86905e-05
-8.81693e-08
1.88099e-05
-1.00015e-07
1.88809e-05
-4.32301e-08
1.89094e-05
5.01133e-08
1.88827e-05
1.41407e-07
1.87946e-05
2.17581e-07
1.86916e-05
2.37519e-07
1.86334e-05
1.94879e-07
1.86486e-05
1.2313e-07
1.87275e-05
6.36802e-08
1.88437e-05
3.62981e-08
1.89737e-05
3.89261e-08
1.9101e-05
6.0443e-08
1.92162e-05
8.99426e-08
1.93139e-05
1.17633e-07
1.93935e-05
1.37433e-07
1.94558e-05
1.46639e-07
1.45508e-07
1.95039e-05
2.353e-05
1.23992e-07
2.33928e-05
3.72018e-08
2.32597e-05
8.99235e-08
2.31813e-05
1.28445e-07
2.31604e-05
1.62396e-07
2.32078e-05
1.70143e-07
2.33004e-05
1.44941e-07
2.33871e-05
1.08108e-07
2.34282e-05
8.2051e-08
2.34179e-05
7.40346e-08
2.33743e-05
7.98199e-08
2.33216e-05
9.16247e-08
2.32789e-05
1.03139e-07
2.3258e-05
1.10901e-07
2.32626e-05
1.13042e-07
2.32902e-05
1.09859e-07
2.3335e-05
1.0175e-07
9.13794e-08
2.33892e-05
1.66607e-05
-5.85921e-08
1.66666e-05
3.12654e-08
1.6657e-05
9.95844e-08
1.671e-05
7.54452e-08
1.68317e-05
4.07127e-08
1.69622e-05
3.95564e-08
1.70444e-05
6.2796e-08
1.70672e-05
8.53054e-08
1.70611e-05
8.81008e-08
1.70641e-05
7.10761e-08
1.70952e-05
4.87099e-08
1.71518e-05
3.5079e-08
1.72187e-05
3.62163e-08
1.72803e-05
4.93208e-08
1.73277e-05
6.55798e-08
1.73598e-05
7.77746e-08
1.73806e-05
8.09829e-08
7.62817e-08
1.73957e-05
1.45725e-05
-7.08165e-09
1.46585e-05
-5.46883e-08
1.47064e-05
5.16977e-08
1.47215e-05
6.03588e-08
1.47306e-05
3.15631e-08
1.47262e-05
4.39803e-08
1.4711e-05
7.79614e-08
1.47047e-05
9.16151e-08
1.47197e-05
7.31233e-08
1.47509e-05
3.98631e-08
1.47831e-05
1.64651e-08
1.48026e-05
1.56314e-08
1.48061e-05
3.26769e-08
1.48005e-05
5.49089e-08
1.4796e-05
7.01324e-08
1.47998e-05
7.39559e-08
1.48149e-05
6.59427e-08
5.09591e-08
1.48402e-05
1.25527e-05
6.70978e-08
1.25407e-05
-4.2686e-08
1.25768e-05
1.56395e-08
1.26191e-05
1.80033e-08
1.26822e-05
-3.15484e-08
1.27853e-05
-5.91411e-08
1.29081e-05
-4.48055e-08
1.30136e-05
-1.38667e-08
1.30795e-05
7.20401e-09
1.31037e-05
1.56773e-08
1.30976e-05
2.25455e-08
1.30797e-05
3.35877e-08
1.3066e-05
4.6337e-08
1.30662e-05
5.46853e-08
1.30822e-05
5.41598e-08
1.31107e-05
4.54362e-08
1.31447e-05
3.19206e-08
1.80906e-08
1.31776e-05
1.12043e-05
1.59698e-07
1.11828e-05
-2.11722e-08
1.12481e-05
-4.96152e-08
1.12962e-05
-3.0085e-08
1.13078e-05
-4.31887e-08
1.13086e-05
-5.99526e-08
1.13174e-05
-5.35663e-08
1.13326e-05
-2.90542e-08
1.1336e-05
3.78671e-09
1.13129e-05
3.87958e-08
1.12708e-05
6.46598e-08
1.12286e-05
7.5791e-08
1.12056e-05
6.92794e-08
1.12116e-05
4.8686e-08
1.12438e-05
2.19692e-08
1.12913e-05
-2.03906e-09
1.13418e-05
-1.85828e-08
-2.5815e-08
1.13857e-05
9.62666e-06
1.45846e-07
9.66225e-06
-5.67638e-08
9.71483e-06
-1.02196e-07
9.74074e-06
-5.59957e-08
9.71588e-06
-1.83287e-08
9.6687e-06
-1.27722e-08
9.64993e-06
-3.47903e-08
9.67879e-06
-5.79192e-08
9.73374e-06
-5.1161e-08
9.78516e-06
-1.26216e-08
9.81686e-06
3.29546e-08
9.82406e-06
6.85962e-08
9.81451e-06
7.88263e-08
9.79992e-06
6.32817e-08
9.78968e-06
3.22076e-08
9.7893e-06
-1.6608e-09
9.79951e-06
-2.8793e-08
-4.30287e-08
9.81672e-06
8.51308e-06
4.83352e-08
8.50658e-06
-5.02636e-08
8.50084e-06
-9.64599e-08
8.51759e-06
-7.27408e-08
8.5424e-06
-4.31431e-08
8.56516e-06
-3.55288e-08
8.57672e-06
-4.63583e-08
8.57414e-06
-5.53351e-08
8.57043e-06
-4.745e-08
8.58031e-06
-2.25004e-08
8.60474e-06
8.52051e-09
8.64084e-06
3.25007e-08
8.67914e-06
4.05221e-08
8.70986e-06
3.25675e-08
8.72676e-06
1.53011e-08
8.7289e-06
-3.80276e-09
8.71998e-06
-1.98729e-08
-2.90526e-08
8.70601e-06
7.22974e-06
4.24852e-08
7.31298e-06
-1.33505e-07
7.34461e-06
-1.28093e-07
7.35744e-06
-8.55692e-08
7.36027e-06
-4.59786e-08
7.35456e-06
-2.98138e-08
7.34462e-06
-3.64234e-08
7.34165e-06
-5.23651e-08
7.35858e-06
-6.43747e-08
7.40135e-06
-6.52726e-08
7.46367e-06
-5.38005e-08
7.52936e-06
-3.31843e-08
7.58051e-06
-1.06326e-08
7.60579e-06
7.29339e-09
7.60473e-06
1.63621e-08
7.58443e-06
1.64968e-08
7.55512e-06
9.43538e-09
-7.66669e-10
7.52683e-06
6.55605e-06
1.66818e-07
6.47651e-06
-5.39678e-08
6.46899e-06
-1.20573e-07
6.45906e-06
-7.564e-08
6.43713e-06
-2.40487e-08
6.41045e-06
-3.13442e-09
6.38782e-06
-1.37932e-08
6.37579e-06
-4.03331e-08
6.37858e-06
-6.71635e-08
6.39859e-06
-8.52853e-08
6.43576e-06
-9.09669e-08
6.48625e-06
-8.36737e-08
6.54199e-06
-6.6371e-08
6.59327e-06
-4.39855e-08
6.63115e-06
-2.15171e-08
6.65078e-06
-3.13905e-09
6.65149e-06
8.72764e-09
1.41077e-08
6.63662e-06
5.61483e-06
3.32103e-08
5.59087e-06
-3.00082e-08
5.54035e-06
-7.00506e-08
5.50753e-06
-4.2821e-08
5.51015e-06
-2.66692e-08
5.54609e-06
-3.9075e-08
5.59714e-06
-6.48386e-08
5.63737e-06
-8.05688e-08
5.64876e-06
-7.85453e-08
5.631e-06
-6.75302e-08
5.59858e-06
-5.85469e-08
5.56963e-06
-5.4728e-08
5.55634e-06
-5.30805e-08
5.56245e-06
-5.0088e-08
5.58496e-06
-4.40259e-08
5.61794e-06
-3.61214e-08
5.65461e-06
-2.79409e-08
-2.08541e-08
5.68957e-06
4.88636e-06
-1.27224e-07
4.90482e-06
-4.84739e-08
4.88619e-06
-5.14145e-08
4.88776e-06
-4.43918e-08
4.9061e-06
-4.50103e-08
4.93052e-06
-6.34922e-08
4.95246e-06
-8.6785e-08
4.9677e-06
-9.58053e-08
4.97425e-06
-8.50972e-08
4.97095e-06
-6.42248e-08
4.95802e-06
-4.56259e-08
4.93824e-06
-3.49479e-08
4.91608e-06
-3.09163e-08
4.8961e-06
-3.01115e-08
4.88201e-06
-2.99325e-08
4.87551e-06
-2.96195e-08
4.87695e-06
-2.9385e-08
-2.92484e-08
4.88535e-06
4.12442e-06
4.07595e-06
4.02454e-06
3.98014e-06
3.93513e-06
3.87164e-06
3.78486e-06
3.68905e-06
3.60395e-06
3.53973e-06
3.4941e-06
3.45916e-06
3.42824e-06
3.39813e-06
3.3682e-06
3.33858e-06
3.30919e-06
3.27994e-06
-6.86362e-08
6.86362e-08
1.84574e-08
-8.70936e-08
2.92119e-07
-2.73662e-07
7.00208e-07
-4.08089e-07
1.18344e-06
-4.83235e-07
1.69976e-06
-5.16316e-07
2.22087e-06
-5.2111e-07
2.73044e-06
-5.0957e-07
3.22088e-06
-4.90441e-07
3.68713e-06
-4.66252e-07
4.12625e-06
-4.3912e-07
4.53668e-06
-4.10425e-07
4.91749e-06
-3.80813e-07
5.2681e-06
-3.50612e-07
5.58811e-06
-3.2001e-07
5.87688e-06
-2.88765e-07
6.13305e-06
-2.56173e-07
6.35392e-06
-2.2087e-07
6.53518e-06
-1.81258e-07
6.67046e-06
-1.3528e-07
6.75148e-06
-8.10202e-08
6.76901e-06
-1.75307e-08
6.703e-06
6.60114e-08
6.53645e-06
1.6655e-07
6.25392e-06
2.8253e-07
5.84209e-06
4.11833e-07
5.29402e-06
5.48063e-07
4.61323e-06
6.80791e-07
3.8181e-06
7.95133e-07
2.95846e-06
8.59636e-07
2.13239e-06
8.26071e-07
1.44284e-06
6.89551e-07
9.38623e-07
5.04217e-07
6.13835e-07
3.24788e-07
4.28418e-07
1.85417e-07
3.48408e-07
8.00097e-08
3.26462e-07
2.19467e-08
3.3454e-07
-8.07803e-09
3.50723e-07
-1.61838e-08
3.17579e-07
3.31441e-08
2.74943e-07
4.26365e-08
1.26517e-07
1.48426e-07
-1.78207e-07
3.04724e-07
-3.51901e-07
1.73694e-07
-3.36623e-07
-1.52779e-08
-2.6744e-07
-6.91829e-08
-2.2513e-07
-4.23104e-08
-1.89432e-07
-3.56974e-08
-7.51393e-08
-1.14293e-07
1.21667e-07
-1.96807e-07
3.52525e-07
-2.30858e-07
5.72959e-07
-2.20434e-07
7.75834e-07
-2.02874e-07
9.7874e-07
-2.02906e-07
1.1995e-06
-2.20759e-07
1.44241e-06
-2.42909e-07
1.69744e-06
-2.55037e-07
1.93413e-06
-2.36683e-07
2.12806e-06
-1.93935e-07
2.25175e-06
-1.23684e-07
2.29766e-06
-4.59094e-08
2.26397e-06
3.3684e-08
2.16557e-06
9.84001e-08
2.01966e-06
1.45915e-07
1.80543e-06
2.1423e-07
1.48456e-06
3.20872e-07
8.67291e-07
6.17265e-07
-1.5983e-08
8.83274e-07
-6.57645e-07
6.41662e-07
-9.17192e-07
2.59548e-07
-8.29133e-07
-8.80591e-08
-1.21085e-08
-8.17025e-07
9.93164e-07
-1.00527e-06
1.44561e-06
-4.5245e-07
1.22368e-06
2.21929e-07
-2.70488e-07
1.49417e-06
-2.25006e-06
1.97957e-06
-3.81354e-06
1.56348e-06
-5.10688e-06
1.29333e-06
-6.10534e-06
9.98462e-07
-6.8874e-06
7.82062e-07
-7.48235e-06
5.94946e-07
-7.94192e-06
4.59577e-07
-8.29563e-06
3.53702e-07
-8.57493e-06
2.79301e-07
-8.7991e-06
2.24171e-07
-8.98539e-06
1.8629e-07
-9.14442e-06
1.59035e-07
-9.2849e-06
1.40476e-07
-9.41204e-06
1.27141e-07
-9.52992e-06
1.17884e-07
-9.64108e-06
1.11155e-07
-9.74753e-06
1.06454e-07
-9.85076e-06
1.03229e-07
-9.95204e-06
1.01275e-07
-1.00523e-05
1.00292e-07
-1.01522e-05
9.99032e-08
-1.02518e-05
9.95624e-08
-1.03503e-05
9.84728e-08
-1.04459e-05
9.56108e-08
-1.05356e-05
8.97628e-08
-1.06152e-05
7.95945e-08
-1.06789e-05
6.37056e-08
-1.07198e-05
4.08563e-08
-1.07291e-05
9.30231e-09
-1.07013e-05
-2.77718e-08
-1.06278e-05
-7.35619e-08
-1.05006e-05
-1.27147e-07
-1.03134e-05
-1.87219e-07
-1.00615e-05
-2.51898e-07
-9.74287e-06
-3.18629e-07
-9.35845e-06
-3.84422e-07
-8.9123e-06
-4.46153e-07
-8.41138e-06
-5.00915e-07
-7.86504e-06
-5.4634e-07
-7.28419e-06
-5.80854e-07
-6.68037e-06
-6.03823e-07
-6.06475e-06
-6.15617e-07
-5.44722e-06
-6.17534e-07
-4.83584e-06
-6.11373e-07
-4.23709e-06
-5.98757e-07
-3.65587e-06
-5.81215e-07
-3.09529e-06
-5.60581e-07
-2.55658e-06
-5.38711e-07
-2.0402e-06
-5.16382e-07
-1.54766e-06
-4.92535e-07
-1.08698e-06
-4.60684e-07
-6.84596e-07
-4.02383e-07
-3.44623e-07
-3.39973e-07
-6.08594e-08
-2.83764e-07
1.72039e-07
-2.32898e-07
3.49414e-07
-1.77376e-07
4.69332e-07
-1.19918e-07
5.37201e-07
-6.78682e-08
5.69838e-07
-3.26379e-08
5.86422e-07
-1.65841e-08
5.98699e-07
-1.2277e-08
6.10854e-07
-1.21546e-08
6.27327e-07
-1.64731e-08
6.55858e-07
-2.85312e-08
7.02715e-07
-4.68565e-08
7.79849e-07
-7.71345e-08
9.54328e-07
-1.74478e-07
1.45166e-06
-4.97329e-07
2.42431e-06
-9.72658e-07
3.28183e-06
-8.5752e-07
3.27721e-06
4.62306e-09
2.68951e-06
5.87703e-07
2.23181e-06
4.57694e-07
2.19984e-06
3.19713e-08
2.51289e-06
-3.13047e-07
2.89378e-06
-3.80889e-07
3.06709e-06
-1.73308e-07
3.03943e-06
2.76563e-08
2.94087e-06
9.85609e-08
2.73766e-06
2.03209e-07
2.20274e-06
5.34919e-07
9.25319e-07
1.27742e-06
-1.26398e-06
2.18929e-06
-3.61162e-06
2.34765e-06
-5.30348e-06
1.69186e-06
-6.33252e-06
1.02903e-06
-6.94801e-06
6.15494e-07
-7.2101e-06
2.62088e-07
-7.14582e-06
-6.42794e-08
-6.79156e-06
-3.54264e-07
-6.17104e-06
-6.20522e-07
-5.3091e-06
-8.61933e-07
-4.24157e-06
-1.06753e-06
-3.02767e-06
-1.2139e-06
-1.72894e-06
-1.29873e-06
-4.09112e-07
-1.31983e-06
8.52036e-07
-1.26115e-06
1.96826e-06
-1.11622e-06
2.86943e-06
-9.01172e-07
3.55443e-06
-6.84995e-07
3.99848e-06
-4.44057e-07
4.25536e-06
-2.56874e-07
4.24299e-06
1.23656e-08
1.07044e-07
4.13595e-06
1.42577e-07
-7.39409e-08
5.7658e-07
-5.21097e-07
1.11358e-06
-8.10663e-07
1.6551e-06
-9.49609e-07
2.16544e-06
-9.93572e-07
2.64596e-06
-9.96838e-07
3.10157e-06
-9.76716e-07
3.53557e-06
-9.43575e-07
3.94653e-06
-9.014e-07
4.33385e-06
-8.53574e-07
4.69821e-06
-8.03476e-07
5.04008e-06
-7.52303e-07
5.35948e-06
-7.00211e-07
5.65666e-06
-6.47786e-07
5.93237e-06
-5.95727e-07
6.18755e-06
-5.43942e-07
6.4224e-06
-4.91024e-07
6.63638e-06
-4.34845e-07
6.82775e-06
-3.72631e-07
6.99411e-06
-3.01638e-07
7.1315e-06
-2.18416e-07
7.2339e-06
-1.19925e-07
7.3061e-06
-6.19021e-09
7.32217e-06
1.5048e-07
7.27762e-06
3.27081e-07
7.1631e-06
5.26354e-07
6.9699e-06
7.41255e-07
6.69355e-06
9.57149e-07
6.33583e-06
1.15285e-06
5.89724e-06
1.29822e-06
5.36786e-06
1.35546e-06
4.75311e-06
1.3043e-06
4.09133e-06
1.166e-06
3.44949e-06
9.66631e-07
2.89693e-06
7.3798e-07
2.46224e-06
5.14692e-07
2.16145e-06
3.22744e-07
1.96668e-06
1.86692e-07
1.84714e-06
1.03353e-07
1.80059e-06
7.96921e-08
1.74898e-06
9.42511e-08
1.77927e-06
1.18133e-07
1.91348e-06
1.70514e-07
1.92541e-06
1.61766e-07
1.79571e-06
1.14424e-07
1.63396e-06
9.25584e-08
1.48627e-06
1.05386e-07
1.40985e-06
4.07155e-08
1.40645e-06
-1.1089e-07
1.47307e-06
-2.63429e-07
1.60783e-06
-3.65618e-07
1.80838e-06
-4.20984e-07
2.05418e-06
-4.4867e-07
2.33487e-06
-4.836e-07
2.64093e-06
-5.26818e-07
2.95784e-06
-5.59815e-07
3.26196e-06
-5.59159e-07
3.53363e-06
-5.08348e-07
3.74901e-06
-4.09318e-07
3.88004e-06
-2.5471e-07
3.90367e-06
-6.95458e-08
3.8091e-06
1.28255e-07
3.59433e-06
3.13168e-07
3.28896e-06
4.51288e-07
2.94044e-06
5.62747e-07
2.61368e-06
6.47635e-07
2.42732e-06
8.03626e-07
2.26164e-06
1.04895e-06
1.76891e-06
1.13439e-06
1.31608e-06
7.12384e-07
1.02601e-06
2.02006e-07
1.46297e-06
-1.25398e-06
1.19816e-06
-7.40466e-07
-3.95775e-07
1.14149e-06
-2.80445e-06
2.63061e-06
-4.27657e-06
2.96629e-06
-5.238e-06
2.941e-06
-6.10855e-06
2.43403e-06
-6.80817e-06
1.99295e-06
-7.36079e-06
1.55108e-06
-7.78522e-06
1.20649e-06
-8.11605e-06
9.25781e-07
-8.37365e-06
7.1717e-07
-8.5801e-06
5.60157e-07
-8.74833e-06
4.47528e-07
-8.89038e-06
3.66224e-07
-9.01363e-06
3.09539e-07
-9.12421e-06
2.69609e-07
-9.22587e-06
2.42138e-07
-9.32141e-06
2.22684e-07
-9.41259e-06
2.09062e-07
-9.50065e-06
1.99212e-07
-9.5865e-06
1.9231e-07
-9.67088e-06
1.87606e-07
-9.75439e-06
1.84786e-07
-9.83744e-06
1.83342e-07
-9.92021e-06
1.82669e-07
-1.00023e-05
1.81657e-07
-1.00828e-05
1.78951e-07
-1.01599e-05
1.7275e-07
-1.0231e-05
1.60798e-07
-1.02923e-05
1.40912e-07
-1.03391e-05
1.10493e-07
-1.03655e-05
6.72991e-08
-1.03654e-05
9.15258e-09
-1.03289e-05
-6.42557e-08
-1.02472e-05
-1.55211e-07
-1.01122e-05
-2.62158e-07
-9.91698e-06
-3.8245e-07
-9.65673e-06
-5.12141e-07
-9.32935e-06
-6.46014e-07
-8.93585e-06
-7.7792e-07
-8.48059e-06
-9.01413e-07
-7.97099e-06
-1.01052e-06
-7.41692e-06
-1.10041e-06
-6.82983e-06
-1.16794e-06
-6.22178e-06
-1.21187e-06
-5.60441e-06
-1.233e-06
-4.98805e-06
-1.23389e-06
-4.38126e-06
-1.21816e-06
-3.79081e-06
-1.18921e-06
-3.22197e-06
-1.15005e-06
-2.67896e-06
-1.10359e-06
-2.16514e-06
-1.05253e-06
-1.68234e-06
-9.99185e-07
-1.22942e-06
-9.45459e-07
-8.05267e-07
-8.84834e-07
-3.99187e-07
-8.08462e-07
-1.24129e-08
-7.26747e-07
3.49289e-07
-6.45466e-07
6.74977e-07
-5.58586e-07
9.67252e-07
-4.6965e-07
1.22746e-06
-3.80127e-07
1.45224e-06
-2.92649e-07
1.633e-06
-2.13398e-07
1.7641e-06
-1.47682e-07
1.85026e-06
-9.84426e-08
1.90833e-06
-7.02204e-08
1.96361e-06
-7.17549e-08
2.03575e-06
-1.00674e-07
2.10602e-06
-1.17121e-07
2.10244e-06
-7.35576e-08
1.97268e-06
-4.4715e-08
1.8162e-06
-3.40849e-07
1.97724e-06
-1.1337e-06
2.77706e-06
-1.65734e-06
3.76404e-06
-9.82352e-07
4.12342e-06
2.28323e-07
3.7963e-06
7.84812e-07
3.3365e-06
4.91768e-07
3.19135e-06
-1.67895e-07
3.36311e-06
-5.52649e-07
3.5395e-06
-3.49693e-07
3.43635e-06
1.30805e-07
2.97568e-06
5.59225e-07
2.13462e-06
1.04427e-06
7.68046e-07
1.9015e-06
-1.23699e-06
3.28246e-06
-3.35418e-06
4.30648e-06
-4.96035e-06
3.95381e-06
-5.93267e-06
2.66418e-06
-6.57482e-06
1.67118e-06
-7.00364e-06
1.04432e-06
-7.18585e-06
4.44294e-07
-7.10264e-06
-1.47492e-07
-6.74278e-06
-7.14116e-07
-6.11918e-06
-1.24413e-06
-5.24907e-06
-1.73204e-06
-4.17072e-06
-2.14588e-06
-2.94061e-06
-2.44401e-06
-1.61227e-06
-2.62707e-06
-2.54483e-07
-2.67762e-06
1.04048e-06
-2.55611e-06
2.1798e-06
-2.25554e-06
3.10424e-06
-1.82561e-06
3.7982e-06
-1.37896e-06
4.27561e-06
-9.21467e-07
4.57174e-06
-5.53006e-07
4.74407e-06
-1.59964e-07
5.51644e-08
4.79595e-06
4.89947e-07
-5.63888e-07
1.11365e-06
-1.1448e-06
1.60174e-06
-1.29875e-06
1.96919e-06
-1.31706e-06
2.27341e-06
-1.2978e-06
2.54898e-06
-1.2724e-06
2.81786e-06
-1.2456e-06
3.0848e-06
-1.21051e-06
3.34422e-06
-1.16082e-06
3.59363e-06
-1.10298e-06
3.83384e-06
-1.04369e-06
4.06307e-06
-9.81531e-07
4.27827e-06
-9.1541e-07
4.47897e-06
-8.48487e-07
4.6677e-06
-7.8446e-07
4.84776e-06
-7.24005e-07
5.02123e-06
-6.64493e-07
5.18856e-06
-6.02172e-07
5.34938e-06
-5.33456e-07
5.5026e-06
-4.5486e-07
5.64602e-06
-3.61837e-07
5.77522e-06
-2.49124e-07
5.88167e-06
-1.12634e-07
5.97753e-06
5.46214e-08
6.04493e-06
2.5968e-07
6.07884e-06
4.92442e-07
6.07497e-06
7.45125e-07
6.02883e-06
1.00329e-06
5.93634e-06
1.24534e-06
5.79103e-06
1.44353e-06
5.57901e-06
1.56748e-06
5.28887e-06
1.59444e-06
4.93573e-06
1.51913e-06
4.5482e-06
1.35417e-06
4.15058e-06
1.13559e-06
3.7659e-06
8.99373e-07
3.41197e-06
6.76676e-07
3.10333e-06
4.95326e-07
2.83968e-06
3.67004e-07
2.63579e-06
2.83585e-07
2.48988e-06
2.4016e-07
2.39938e-06
2.08638e-07
2.37749e-06
1.92398e-07
2.38552e-06
1.53735e-07
2.4291e-06
7.08443e-08
2.53312e-06
-1.1462e-08
2.69842e-06
-5.99066e-08
2.87863e-06
-1.39495e-07
3.02739e-06
-2.59649e-07
3.15766e-06
-3.937e-07
3.30317e-06
-5.11132e-07
3.48873e-06
-6.06541e-07
3.73243e-06
-6.92374e-07
4.02356e-06
-7.74725e-07
4.33872e-06
-8.4198e-07
4.65531e-06
-8.76409e-07
4.95467e-06
-8.58512e-07
5.22278e-06
-7.76461e-07
5.43734e-06
-6.23878e-07
5.57684e-06
-3.94206e-07
5.62256e-06
-1.15275e-07
5.53991e-06
2.10909e-07
5.31046e-06
5.42617e-07
4.92666e-06
8.35094e-07
4.43532e-06
1.05408e-06
3.86706e-06
1.21589e-06
3.39434e-06
1.27635e-06
3.05944e-06
1.38385e-06
2.72965e-06
1.46418e-06
2.13094e-06
1.31109e-06
1.83204e-06
5.00903e-07
1.03454e-06
-4.56469e-07
-1.01161e-06
1.30568e-06
-3.10438e-06
3.23426e-06
-4.41427e-06
3.9405e-06
-5.23156e-06
3.78358e-06
-5.67538e-06
3.38483e-06
-6.05865e-06
2.8173e-06
-6.38481e-06
2.31911e-06
-6.67382e-06
1.84009e-06
-6.92338e-06
1.45605e-06
-7.13736e-06
1.13976e-06
-7.31969e-06
8.99501e-07
-7.47681e-06
7.17274e-07
-7.61492e-06
5.85635e-07
-7.73958e-06
4.90892e-07
-7.85515e-06
4.25104e-07
-7.96477e-06
3.7923e-07
-8.07051e-06
3.47879e-07
-8.17358e-06
3.25754e-07
-8.27464e-06
3.1012e-07
-8.37406e-06
2.98636e-07
-8.47221e-06
2.90461e-07
-8.56953e-06
2.84928e-07
-8.66664e-06
2.81894e-07
-8.76418e-06
2.80878e-07
-8.86264e-06
2.81131e-07
-8.96218e-06
2.81195e-07
-9.06227e-06
2.79045e-07
-9.16146e-06
2.7194e-07
-9.25728e-06
2.5662e-07
-9.34584e-06
2.29472e-07
-9.42196e-06
1.86609e-07
-9.47884e-06
1.24177e-07
-9.50887e-06
3.91841e-08
-9.50361e-06
-6.95149e-08
-9.45071e-06
-2.08104e-07
-9.3418e-06
-3.71074e-07
-9.16896e-06
-5.55287e-07
-8.92614e-06
-7.54959e-07
-8.61038e-06
-9.61781e-07
-8.22249e-06
-1.16581e-06
-7.76733e-06
-1.35657e-06
-7.25343e-06
-1.52441e-06
-6.6922e-06
-1.66164e-06
-6.09678e-06
-1.76336e-06
-5.48085e-06
-1.8278e-06
-4.85747e-06
-1.85637e-06
-4.23816e-06
-1.85321e-06
-3.63228e-06
-1.82404e-06
-3.04675e-06
-1.77473e-06
-2.48602e-06
-1.71079e-06
-1.95223e-06
-1.63738e-06
-1.44685e-06
-1.55791e-06
-9.70956e-07
-1.47508e-06
-5.24742e-07
-1.39167e-06
-1.12224e-07
-1.29735e-06
2.70335e-07
-1.19102e-06
6.21934e-07
-1.07835e-06
9.3915e-07
-9.62683e-07
1.22048e-06
-8.39914e-07
1.46539e-06
-7.14559e-07
1.6773e-06
-5.92039e-07
1.86227e-06
-4.77621e-07
2.02608e-06
-3.77206e-07
2.17471e-06
-2.96314e-07
2.31016e-06
-2.33886e-07
2.42398e-06
-1.84042e-07
2.51175e-06
-1.59526e-07
2.60259e-06
-1.91517e-07
2.75193e-06
-2.66462e-07
2.9646e-06
-2.86228e-07
3.09967e-06
-1.79779e-07
2.97563e-06
-2.16807e-07
2.64491e-06
-8.02982e-07
2.6507e-06
-1.66314e-06
3.2997e-06
-1.63135e-06
4.02239e-06
-4.94362e-07
4.26867e-06
5.38532e-07
4.1097e-06
6.50735e-07
3.83568e-06
1.06122e-07
3.6373e-06
-3.54267e-07
3.44276e-06
-1.55147e-07
3.04095e-06
5.32608e-07
2.25675e-06
1.34343e-06
1.03231e-06
2.26871e-06
-5.87326e-07
3.52113e-06
-2.37495e-06
5.07008e-06
-3.85805e-06
5.78958e-06
-4.8513e-06
4.94706e-06
-5.56252e-06
3.3754e-06
-6.2085e-06
2.31717e-06
-6.72403e-06
1.55985e-06
-7.00408e-06
7.24341e-07
-6.99497e-06
-1.56604e-07
-6.69358e-06
-1.01551e-06
-6.11399e-06
-1.82372e-06
-5.27929e-06
-2.56674e-06
-4.23389e-06
-3.19128e-06
-3.03055e-06
-3.64735e-06
-1.70054e-06
-3.95708e-06
-2.73708e-07
-4.10445e-06
1.15448e-06
-3.98429e-06
2.39284e-06
-3.49391e-06
3.31586e-06
-2.74863e-06
3.95321e-06
-2.01631e-06
4.39981e-06
-1.36807e-06
4.68492e-06
-8.38114e-07
4.86165e-06
-3.36694e-07
9.37129e-09
4.90744e-06
6.61106e-07
-1.22499e-06
1.05277e-06
-1.53647e-06
1.23251e-06
-1.47849e-06
1.37286e-06
-1.45741e-06
1.54146e-06
-1.4664e-06
1.7477e-06
-1.47864e-06
1.97829e-06
-1.47619e-06
2.20857e-06
-1.44079e-06
2.41856e-06
-1.37081e-06
2.60834e-06
-1.29276e-06
2.78238e-06
-1.21774e-06
2.93689e-06
-1.13604e-06
3.06899e-06
-1.04751e-06
3.18306e-06
-9.62564e-07
3.28693e-06
-8.88324e-07
3.38483e-06
-8.21911e-07
3.47583e-06
-7.55488e-07
3.55738e-06
-6.83723e-07
3.62933e-06
-6.0541e-07
3.69454e-06
-5.20069e-07
3.75735e-06
-4.2464e-07
3.81907e-06
-3.10853e-07
3.8798e-06
-1.73359e-07
3.93853e-06
-4.11349e-09
3.9948e-06
2.03414e-07
4.04188e-06
4.45366e-07
4.07841e-06
7.08592e-07
4.10441e-06
9.77288e-07
4.11807e-06
1.23168e-06
4.11496e-06
1.44664e-06
4.08604e-06
1.59639e-06
4.01971e-06
1.66077e-06
3.90631e-06
1.63253e-06
3.74133e-06
1.51915e-06
3.5373e-06
1.33962e-06
3.31081e-06
1.12586e-06
3.07931e-06
9.0818e-07
2.86096e-06
7.13677e-07
2.67077e-06
5.57188e-07
2.52302e-06
4.31342e-07
2.42891e-06
3.34264e-07
2.38453e-06
2.53019e-07
2.40269e-06
1.74238e-07
2.45675e-06
9.96726e-08
2.50762e-06
1.99739e-08
2.57821e-06
-8.20491e-08
2.70402e-06
-1.85718e-07
2.85986e-06
-2.95329e-07
3.03009e-06
-4.2988e-07
3.22145e-06
-5.85065e-07
3.44511e-06
-7.34789e-07
3.7064e-06
-8.67829e-07
4.00033e-06
-9.8631e-07
4.31907e-06
-1.09346e-06
4.65523e-06
-1.17814e-06
5.00207e-06
-1.22325e-06
5.35108e-06
-1.20752e-06
5.68625e-06
-1.11163e-06
5.97885e-06
-9.16472e-07
6.20165e-06
-6.17013e-07
6.31818e-06
-2.318e-07
6.31305e-06
2.16032e-07
6.18e-06
6.75672e-07
5.88864e-06
1.12645e-06
5.441e-06
1.50172e-06
4.85556e-06
1.80134e-06
4.19578e-06
1.93612e-06
3.53192e-06
2.04772e-06
2.97522e-06
2.02088e-06
2.22969e-06
2.05661e-06
1.50124e-06
1.22936e-06
-3.56887e-07
1.40166e-06
-2.43324e-06
3.38203e-06
-3.8736e-06
4.67462e-06
-4.54538e-06
4.61228e-06
-4.96826e-06
4.20646e-06
-5.23265e-06
3.64922e-06
-5.44545e-06
3.0301e-06
-5.61849e-06
2.49214e-06
-5.77416e-06
1.99576e-06
-5.91211e-06
1.594e-06
-6.03823e-06
1.26587e-06
-6.15676e-06
1.01803e-06
-6.27226e-06
8.32774e-07
-6.38779e-06
7.01164e-07
-6.50547e-06
6.08579e-07
-6.62631e-06
5.45937e-07
-6.75076e-06
5.03686e-07
-6.87823e-06
4.75351e-07
-7.00781e-06
4.55325e-07
-7.13826e-06
4.40574e-07
-7.26858e-06
4.28956e-07
-7.3981e-06
4.19983e-07
-7.52685e-06
4.13671e-07
-7.65549e-06
4.10541e-07
-7.78523e-06
4.10618e-07
-7.91736e-06
4.13262e-07
-8.05292e-06
4.16753e-07
-8.19221e-06
4.18333e-07
-8.33449e-06
4.14225e-07
-8.47765e-06
3.99777e-07
-8.61783e-06
3.69656e-07
-8.74929e-06
3.18065e-07
-8.86444e-06
2.39328e-07
-8.95441e-06
1.29149e-07
-9.00685e-06
-1.70681e-08
-9.00761e-06
-2.07347e-07
-8.94594e-06
-4.32743e-07
-8.81089e-06
-6.90342e-07
-8.59401e-06
-9.71835e-07
-8.29092e-06
-1.26488e-06
-7.9021e-06
-1.55462e-06
-7.43323e-06
-1.82545e-06
-6.8947e-06
-2.06294e-06
-6.30056e-06
-2.25578e-06
-5.66699e-06
-2.39693e-06
-5.01076e-06
-2.48403e-06
-4.34795e-06
-2.51918e-06
-3.69296e-06
-2.5082e-06
-3.05774e-06
-2.45927e-06