/*--------------------------------*- C++ -*----------------------------------*\
| =========                 |                                                 |
| \\      /  F ield         | OpenFOAM: The Open Source CFD Toolbox           |
|  \\    /   O peration     | Version:  2112                                  |
|   \\  /    A nd           | Website:  www.openfoam.com                      |
|    \\/     M anipulation  |                                                 |
\*---------------------------------------------------------------------------*/
FoamFile
{
    version     2.0;
    format      ascii;
    arch        "LSB;label=32;scalar=64";
    class       volScalarField;
    location    "0.09";
    object      p;
}
// * * * * * * * * * * * * * * * * * * * * * * * * * * * * * * * * * * * * * //

dimensions      [0 2 -2 0 0 0 0];

internalField   nonuniform List<scalar> 
12225
(
2.29627
1.34128
0.818921
0.511482
0.153438
-0.288965
-0.784164
-1.3226
-1.91209
-2.5623
-3.28269
-4.09254
-5.03601
-6.16206
-7.53518
-9.27599
-11.5945
-15.0036
1.92372
1.25197
0.799052
0.501718
0.155509
-0.274376
-0.759507
-1.28919
-1.87025
-2.51219
-3.22572
-4.03041
-4.965
-6.07228
-7.41442
-9.09226
-11.2792
-14.1757
1.76785
1.30819
0.860811
0.52925
0.177062
-0.245746
-0.721586
-1.23988
-1.80668
-2.43275
-3.13311
-3.92662
-4.83816
-5.90766
-7.18737
-8.75027
-10.6863
-13.0432
1.64287
1.28726
0.850248
0.507352
0.165822
-0.239038
-0.699627
-1.20425
-1.75727
-2.36929
-3.05217
-3.82309
-4.70253
-5.72363
-6.92518
-8.35024
-10.0301
-11.933
1.53236
1.25189
0.856223
0.51984
0.188218
-0.202119
-0.649404
-1.14086
-1.67876
-2.27249
-2.93256
-3.67375
-4.51329
-5.47492
-6.58269
-7.85449
-9.28128
-10.788
1.4391
1.21794
0.866884
0.536033
0.207871
-0.17031
-0.602681
-1.0781
-1.59716
-2.1684
-2.80107
-3.50662
-4.29764
-5.18859
-6.19027
-7.30137
-8.48828
-9.66188
1.36312
1.18637
0.876394
0.556013
0.235018
-0.126935
-0.539477
-0.994526
-1.49104
-2.03545
-2.6352
-3.29815
-4.03199
-4.84318
-5.73179
-6.68332
-7.653
-8.55565
1.30374
1.16001
0.887797
0.583767
0.273237
-0.0718808
-0.46384
-0.897076
-1.3689
-1.88326
-2.44548
-3.06015
-3.73036
-4.456
-5.22919
-6.02793
-6.80577
-7.49015
1.2608
1.14198
0.903772
0.619798
0.32237
-0.00507473
-0.374536
-0.782554
-1.22547
-1.70496
-2.22411
-2.78458
-3.38547
-4.02164
-4.68023
-5.33646
-5.94787
-6.45712
1.2345
1.13486
0.9267
0.665024
0.383722
0.0757272
-0.269051
-0.648782
-1.05936
-1.50032
-1.97244
-2.47475
-3.00316
-3.54918
-4.09757
-4.62401
-5.09281
-5.46128
1.22535
1.14085
0.959164
0.721073
0.458822
0.172279
-0.145868
-0.49461
-0.869566
-1.26841
-1.68976
-2.13049
-2.58436
-3.04107
-3.485
-3.89438
-4.24101
-4.49458
1.23335
1.16004
0.999879
0.783985
0.54152
0.276543
-0.0154371
-0.333463
-0.673015
-1.03046
-1.4028
-1.78547
-2.17106
-2.54878
-2.90388
-3.21774
-3.4685
-3.63465
1.2557
1.19189
1.05114
0.85732
0.636059
0.394055
0.129453
-0.15642
-0.458939
-0.773529
-1.09592
-1.42054
-1.73948
-2.04216
-2.3154
-2.54387
-2.7113
-2.80292
1.30092
1.24663
1.12602
0.957083
0.761593
0.547744
0.316129
0.0688054
-0.189465
-0.453424
-0.717862
-0.976627
-1.22187
-1.44401
-1.63208
-1.77443
-1.85992
-1.87933
1.37876
1.33403
1.23423
1.09288
0.927871
0.747838
0.555329
0.353285
0.146602
-0.059159
-0.258359
-0.444823
-0.611412
-0.750137
-0.852625
-0.9108
-0.917752
-0.868417
1.50142
1.46636
1.38811
1.27679
1.1467
1.00608
0.858755
0.708399
0.559901
0.41869
0.290223
0.180104
0.0942384
0.0386651
0.019151
0.0406965
0.107023
0.220353
1.68322
1.65798
1.60187
1.52249
1.43088
1.33439
1.23734
1.14372
1.05808
0.985259
0.929951
0.896681
0.889803
0.913355
0.9708
1.06473
1.19667
1.367
1.93935
1.92395
1.8899
1.84285
1.79119
1.74109
1.69672
1.66173
1.63994
1.63516
1.65092
1.69036
1.75622
1.85076
1.97561
2.13166
2.31904
2.53699
2.2827
2.27715
2.26407
2.24773
2.23465
2.22987
2.23674
2.25797
2.29619
2.35393
2.4333
2.53594
2.66311
2.81557
2.99362
3.19703
3.42505
3.6763
2.62326
2.62256
2.6207
2.62235
2.63376
2.65912
2.70043
2.75913
2.83682
2.93491
3.05438
3.19576
3.3593
3.54491
3.75218
3.98037
4.22842
4.49483
2.894
2.89389
2.89458
2.90303
2.92683
2.96929
3.03071
3.11142
3.21229
3.33392
3.47631
3.63912
3.82192
4.02414
4.24501
4.48354
4.73859
5.00866
3.13011
3.12719
3.12345
3.13125
3.16107
3.2142
3.28829
3.38285
3.49861
3.63549
3.79253
3.96858
4.16263
4.37374
4.60089
4.84302
5.09903
5.36762
3.33827
3.32822
3.31234
3.31333
3.34554
3.40581
3.4881
3.59159
3.71711
3.86384
4.02989
4.21351
4.4133
4.62802
4.85652
5.09769
5.35051
5.61379
3.52575
3.50253
3.46606
3.45615
3.4889
3.55322
3.64032
3.7505
3.8844
4.03972
4.21335
4.40293
4.60667
4.82303
5.05074
5.28885
5.53653
5.79301
3.69975
3.65368
3.58737
3.56756
3.60283
3.66824
3.75491
3.86691
4.00506
4.16541
4.34378
4.53718
4.74322
4.95988
5.18579
5.42004
5.66196
5.91099
3.86747
3.78403
3.67506
3.64791
3.69202
3.76318
3.85322
3.96969
4.113
4.27797
4.45998
4.65568
4.86206
5.07674
5.29839
5.52629
5.76001
5.99916
4.03429
3.89911
3.73992
3.69917
3.73994
3.80767
3.89835
4.01984
4.16983
4.34162
4.53015
4.73131
4.94103
5.15652
5.37657
5.60052
5.8279
6.0571
4.199
3.98594
3.8128
3.78852
3.8275
3.8841
3.96772
4.08646
4.23534
4.40704
4.59661
4.79872
5.00792
5.22128
5.43785
5.65708
5.87818
6.0994
4.37785
3.94722
3.75297
3.77459
3.83617
3.90237
3.99675
4.12742
4.28739
4.46949
4.66949
4.88026
5.09394
5.30759
5.52093
5.73398
5.94616
6.15935
4.82333
4.10394
3.82413
3.83408
3.88376
3.93842
4.02663
4.15461
4.31323
4.49489
4.69607
4.90812
5.12092
5.33191
5.54173
5.75101
5.95955
6.16985
18.796
18.5868
18.1744
17.6096
17.0898
16.9036
17.1487
17.6365
18.164
18.6864
19.2234
19.8125
20.4791
21.2371
22.0892
23.0227
24.012
25.0248
26.0226
26.9608
27.7892
28.4557
28.9078
29.096
28.978
28.5234
27.7202
26.5806
25.1526
23.53
21.8461
20.3166
19.3032
18.7827
18.3931
17.9524
17.2869
16.1532
14.3648
12.0177
9.60684
7.66326
6.34467
5.47623
4.72489
3.68142
2.13092
-0.0783957
-2.19495
-3.84473
-4.38149
-3.82634
-2.04471
0.506954
2.39536
3.03947
2.63098
1.99467
1.3475
0.757554
0.422254
0.434679
0.567062
0.416536
-0.0854713
-0.865145
-1.93911
-3.57429
-6.1502
-9.95372
-14.9313
-20.7508
-26.9919
-33.2451
-39.1687
-44.5087
-49.0954
-52.8287
-55.6663
-57.6093
-58.6717
-58.8537
-58.134
-56.518
-54.1044
-50.9597
-47.1427
-42.7122
-37.7336
-32.2836
-26.4556
-20.3616
-14.1335
-7.91858
-1.87198
3.85531
9.12917
13.8434
17.9282
21.3504
24.1118
26.2449
27.8102
28.8829
29.5411
29.8469
29.8709
29.675
29.3139
28.8342
28.2738
27.6629
27.0269
26.3856
25.7541
25.144
24.5642
24.023
23.535
23.0817
22.6563
22.2548
21.8704
21.494
21.1133
20.7196
20.3132
19.9061
19.5199
19.1805
18.9093
18.7141
18.5881
18.5149
18.4738
18.4464
18.4194
18.3869
18.3493
18.3114
18.2799
18.2613
18.26
18.2783
18.3085
18.352
18.4054
18.4667
18.5316
18.6052
18.7072
18.8264
18.9038
18.8729
18.1677
15.8096
10.8797
4.67451
-1.8348
-7.27149
-10.926
-12.5687
-12.2061
-9.90291
-5.94769
-0.739788
5.13271
10.9273
15.9325
19.7173
22.1511
23.3661
23.6855
23.4712
23.0115
22.5055
22.0802
21.825
21.8672
22.1239
17.4905
17.0071
16.0813
15.0346
14.4761
14.7415
15.443
16.145
16.7649
17.3401
17.9364
18.5999
19.3474
20.1732
21.0738
22.0443
23.0656
24.107
25.1284
26.0827
26.9202
27.5898
28.0386
28.216
28.0788
27.5948
26.748
25.5428
24.0076
22.1963
20.1973
18.0886
15.8616
13.8498
12.6141
12.1972
12.1925
12.0736
11.3248
9.76838
7.98861
6.88808
6.54894
6.2256
5.33193
3.78351
1.58987
-1.17988
-3.99586
-6.10013
-7.06474
-6.49484
-4.57901
-1.90192
0.440074
1.56455
1.46125
0.843714
0.478487
0.449068
0.527156
0.542366
0.469072
0.40561
0.0805524
-0.763227
-2.19794
-4.36006
-7.66881
-12.3086
-18.042
-24.4261
-30.9868
-37.3224
-43.1387
-48.2418
-52.5142
-55.8919
-58.3457
-59.8709
-60.4917
-60.2616
-59.2484
-57.5062
-55.0304
-51.8544
-48.0227
-43.5865
-38.605
-33.1497
-27.3083
-21.1894
-14.9226
-8.65529
-2.54496
3.25342
8.60103
13.3876
17.5391
21.02
23.8306
26.0039
27.604
28.7092
29.3917
29.7187
29.7603
29.5791
29.23
28.7599
28.2072
27.6031
26.9728
26.3362
25.7083
25.1004
24.5205
23.973
23.4514
22.9682
22.5252
22.1214
21.7442
21.3838
21.0272
20.6617
20.2812
19.8921
19.5155
19.1802
18.9108
18.7169
18.5919
18.5189
18.4771
18.4481
18.4193
18.3854
18.3468
18.3083
18.2765
18.2575
18.256
18.2727
18.309
18.3554
18.4108
18.4732
18.5356
18.6023
18.698
18.8097
18.8488
18.8461
18.2012
15.6252
10.2217
3.37509
-3.27661
-8.55156
-11.9429
-13.323
-12.7787
-10.4325
-6.4658
-1.24254
4.66751
10.5268
15.6083
19.4598
21.9502
23.2062
23.5539
23.3603
22.9177
22.4236
22.0014
21.7173
21.6423
21.7848
15.0328
14.7395
14.2536
13.85
13.8604
14.2908
14.8612
15.3609
15.7907
16.2163
16.6911
17.2509
17.9129
18.6787
19.5404
20.4824
21.4797
22.4977
23.4936
24.4233
25.241
25.8928
26.321
26.4768
26.3207
25.8186
24.9508
23.7157
22.1336
20.2498
18.1366
15.8934
13.6327
11.4626
9.39355
7.46058
5.87099
4.75478
4.08065
3.75809
3.78404
4.11733
4.39116
4.23014
3.55562
2.21392
0.00134841
-2.82436
-5.56749
-7.56477
-8.46874
-8.11216
-6.49825
-3.94806
-1.43675
-0.0226447
0.14864
-0.231348
-0.430376
-0.196321
0.316276
0.74065
0.671898
-0.0503853
-1.35061
-3.47898
-6.63654
-10.691
-15.499
-20.8651
-26.5442
-32.2913
-37.8936
-43.1786
-48.008
-52.2704
-55.8781
-58.764
-60.878
-62.1824
-62.6571
-62.3279
-61.2196
-59.3775
-56.8319
-53.6163
-49.7685
-45.3307
-40.3524
-34.8941
-29.0334
-22.8703
-16.5297
-10.1592
-3.92119
2.02071
7.51757
12.4497
16.7359
20.3362
23.249
25.5073
27.1785
28.3471
29.08
29.4493
29.5263
29.3747
29.0503
28.6008
28.0654
27.476
26.8582
26.2318
25.6123
25.011
24.4355
23.8911
23.3808
22.9099
22.4717
22.0575
21.667
21.2908
20.9219
20.5572
20.1973
19.8479
19.5207
19.2307
18.99
18.8034
18.6672
18.5715
18.5041
18.4532
18.41
18.3699
18.3326
18.3006
18.2779
18.2685
18.2754
18.2987
18.3369
18.3851
18.4424
18.506
18.5688
18.6323
18.7196
18.8088
18.8773
18.8144
17.5874
13.8892
7.54836
0.727254
-5.38154
-10.148
-13.2222
-14.4391
-13.8345
-11.4596
-7.48648
-2.24145
3.73696
9.71866
14.9511
18.942
21.5434
22.878
23.2804
23.127
22.7167
22.2474
21.8352
21.5413
21.4138
21.4331
13.2987
13.3189
13.3691
13.5002
13.7562
14.074
14.3772
14.5551
14.6638
14.7995
15.0232
15.3655
15.8396
16.4472
17.1801
18.0202
18.9388
19.8972
20.8477
21.7353
22.5059
23.107
23.4956
23.6306
23.4675
22.9728
22.1266
20.9179
19.3534
17.4614
15.2934
12.9199
10.4271
7.92035
5.51609
3.32113
1.3555
-0.376857
-1.74308
-2.55675
-2.722
-2.31502
-1.6062
-0.957603
-0.737313
-1.24952
-2.5414
-4.33768
-6.14704
-7.47692
-8.01877
-7.65987
-6.33205
-4.19599
-2.09963
-1.05966
-1.13945
-1.52028
-1.52122
-0.996917
-0.417398
-0.42143
-1.38087
-3.459
-6.54867
-10.4185
-14.8477
-19.6095
-24.5579
-29.6057
-34.6838
-39.7135
-44.5953
-49.2121
-53.4415
-57.1689
-60.2986
-62.7578
-64.4959
-65.4823
-65.709
-65.1827
-63.9272
-61.9734
-59.3536
-56.1004
-52.246
-47.8234
-42.8687
-37.4266
-31.5583
-25.3496
-18.9164
-12.4051
-5.985
0.166878
5.88531
11.0352
15.5237
19.303
22.369
24.7586
26.5331
27.7992
28.6095
29.0432
29.1739
29.0673
28.7807
28.3628
27.8541
27.2871
26.6881
26.0777
25.4715
24.8811
24.3146
23.7773
23.2715
22.7976
22.3542
21.9405
21.5511
21.18
20.8224
20.4749
20.1368
19.812
19.5086
19.2367
19.0052
18.8183
18.6746
18.568
18.4898
18.4306
18.3832
18.343
18.3087
18.2814
18.2636
18.2581
18.267
18.291
18.3297
18.3807
18.4428
18.5141
18.5885
18.6652
18.7511
18.8248
18.8851
18.4753
16.0105
10.7912
4.24529
-2.10765
-7.70182
-12.0816
-14.8904
-15.9477
-15.27
-12.8782
-8.91307
-3.65138
2.41322
8.56077
14.0062
18.2024
20.969
22.4202
22.9037
22.8094
22.4456
22.0119
21.62
21.3251
21.1497
21.0756
11.9183
12.1146
12.4124
12.746
13.049
13.2063
13.1484
12.9445
12.7114
12.5214
12.4344
12.4886
12.7077
13.1009
13.6609
14.3657
15.1805
16.0609
16.9553
17.8084
18.5634
19.1646
19.5576
19.7011
19.5675
19.1311
18.3662
17.2565
15.7976
13.9992
11.8942
9.54008
7.01567
4.41565
1.83852
-0.625024
-2.8944
-4.9039
-6.61772
-7.95842
-8.76751
-8.88864
-8.29811
-7.21891
-6.08007
-5.29903
-5.07158
-5.31522
-5.72844
-5.94821
-5.73563
-5.02034
-3.77795
-2.15452
-0.882811
-0.736893
-1.43762
-2.06104
-2.09821
-1.93474
-2.31842
-3.72442
-6.2633
-9.76696
-13.9329
-18.4523
-23.1286
-27.8647
-32.6318
-37.4135
-42.1709
-46.8336
-51.3064
-55.4822
-59.2552
-62.5303
-65.228
-67.287
-68.6632
-69.3312
-69.2883
-68.5417
-67.1142
-65.0363
-62.3404
-59.0581
-55.2169
-50.84
-45.9477
-40.5644
-34.7279
-28.5019
-21.9864
-15.323
-8.68813
-2.27622
3.72473
9.1573
13.9105
17.9247
21.1913
23.7503
25.6823
27.0681
27.9801
28.4988
28.7005
28.6535
28.417
28.0413
27.5681
27.0313
26.4578
25.869
25.2811
24.706
24.1522
23.6251
23.1276
22.6614
22.2262
21.8187
21.4341
21.0687
20.7189
20.3823
20.0588
19.7518
19.4672
19.2125
18.9941
18.8148
18.6732
18.5643
18.4809
18.4161
18.3642
18.3216
18.2871
18.2614
18.2462
18.2437
18.2554
18.282
18.323
18.3768
18.4422
18.5172
18.5969
18.6824
18.7702
18.8473
18.8765
17.7077
13.7569
7.59351
1.16568
-4.88684
-10.1728
-14.2501
-16.8033
-17.6965
-16.9433
-14.5506
-10.618
-5.35996
0.788823
7.12485
12.8277
17.2814
20.2577
21.8585
22.4455
22.4256
22.1192
21.7294
21.3645
21.0751
20.8697
20.7399
9.65485
9.85065
10.1699
10.4374
10.545
10.4531
10.1165
9.63345
9.10504
8.61148
8.22146
8.00033
7.98314
8.18588
8.60236
9.20638
9.95589
10.7986
11.6772
12.5338
13.3124
13.9601
14.4281
14.6725
14.6535
14.3455
13.7321
12.7971
11.5263
9.91546
7.97652
5.74612
3.28722
0.684805
-1.96251
-4.55405
-6.99684
-9.20696
-11.1134
-12.6592
-13.7597
-14.2748
-14.0527
-13.0359
-11.3656
-9.37966
-7.46733
-5.85633
-4.52232
-3.29692
-2.03756
-0.687073
0.694544
1.89776
2.30228
1.52351
0.160082
-1.04108
-1.98928
-3.28429
-5.42682
-8.51872
-12.39
-16.7576
-21.3773
-26.0917
-30.8271
-35.5545
-40.2569
-44.9038
-49.4426
-53.8037
-57.9078
-61.6738
-65.0226
-67.8806
-70.1824
-71.8732
-72.9129
-73.2787
-72.9696
-72.0001
-70.3952
-68.189
-65.4181
-62.1168
-58.3115
-54.0179
-49.2413
-43.9822
-38.2486
-32.0724
-25.5282
-18.7441
-11.9003
-5.21054
1.10854
6.86894
11.9341
16.2286
19.7427
22.5043
24.6267
26.1623
27.1987
27.8214
28.1102
28.1365
27.9618
27.6383
27.2093
26.7101
26.1686
25.6071
25.0424
24.4872
23.9503
23.4376
22.9526
22.4967
22.0692
21.6681
21.2907
20.9339
20.5949
20.2721
19.9656
19.6777
19.4122
19.1743
18.9679
18.795
18.6544
18.5426
18.4547
18.3854
18.3305
18.2869
18.2533
18.2297
18.2173
18.2173
18.2309
18.2587
18.3003
18.3549
18.422
18.4986
18.5808
18.6728
18.7656
18.8553
18.7523
16.6373
11.3178
4.71343
-1.66382
-7.58297
-12.6383
-16.4389
-18.7511
-19.4889
-18.6746
-16.303
-12.4342
-7.21372
-1.00552
5.51477
11.4912
16.2342
19.4488
21.2229
21.9302
21.9967
21.756
21.4162
21.084
20.8072
20.5876
20.4233
5.88623
5.97217
6.14957
6.21197
6.03446
5.56085
4.8738
4.05251
3.1693
2.32062
1.60749
1.1137
0.895454
0.973636
1.34416
1.97214
2.79967
3.75624
4.7689
5.76968
6.69908
7.50624
8.14741
8.58424
8.78273
8.71304
8.34928
7.67619
6.67992
5.3481
3.67756
1.68412
-0.588796
-3.06876
-5.66264
-8.26659
-10.7768
-13.0957
-15.1303
-16.8011
-18.0391
-18.7447
-18.7833
-17.975
-16.1869
-13.4854
-10.195
-6.75776
-3.51661
-0.624959
1.88263
4.00276
5.68531
6.69101
6.48756
5.06251
2.91089
0.650064
-2.00121
-5.30998
-9.28133
-13.7602
-18.534
-23.4253
-28.3297
-33.1975
-38.0057
-42.7338
-47.3539
-51.8288
-56.1143
-60.1611
-63.9158
-67.3203
-70.3127
-72.8292
-74.8076
-76.1927
-76.9428
-77.0376
-76.4792
-75.2902
-73.5011
-71.1532
-68.2927
-64.9627
-61.1951
-57.0041
-52.3843
-47.3137
-41.7664
-35.7343
-29.253
-22.4247
-15.4239
-8.48062
-1.84409
4.25836
9.65772
14.2579
18.0477
21.0663
23.3901
25.0963
26.2756
27.0182
27.408
27.5194
27.4168
27.1546
26.7778
26.323
25.8197
25.2909
24.7544
24.2234
23.7075
23.213
22.7438
22.3015
21.8863
21.497
21.1314
20.7868
20.4611
20.153
19.8626
19.5915
19.3424
19.1186
18.9231
18.757
18.6196
18.5084
18.4196
18.349
18.293
18.2491
18.2161
18.1937
18.1825
18.1837
18.198
18.226
18.2674
18.3221
18.3895
18.4654
18.5468
18.6401
18.7369
18.8315
18.4679
15.4132
8.99783
2.15042
-4.24038
-10.0717
-14.9158
-18.4631
-20.5606
-21.1632
-20.3056
-17.9739
-14.1967
-9.051
-2.82469
3.84929
10.085
15.1216
18.5835
20.541
21.3772
21.5365
21.3663
21.0802
20.7846
20.5255
20.303
20.1197
0.221955
0.169049
0.0770116
-0.25719
-0.939052
-1.95838
-3.21668
-4.63465
-6.10131
-7.48481
-8.64908
-9.47253
-9.87537
-9.81804
-9.30943
-8.405
-7.19675
-5.79621
-4.31614
-2.85564
-1.49217
-0.281512
0.737126
1.53459
2.08706
2.37363
2.37439
2.06878
1.44047
0.475398
-0.836409
-2.49569
-4.47939
-6.73188
-9.16903
-11.6872
-14.1745
-16.5214
-18.6211
-20.365
-21.6679
-22.4509
-22.6067
-21.9701
-20.2989
-17.4074
-13.3762
-8.63407
-3.78258
0.671142
4.42242
7.33632
9.36111
10.3113
9.85612
7.89158
4.95816
1.19206
-3.34034
-8.37234
-13.6686
-19.0396
-24.3649
-29.5867
-34.6839
-39.6465
-44.4621
-49.1129
-53.5783
-57.8382
-61.8713
-65.6512
-69.1419
-72.2951
-75.0511
-77.3425
-79.1013
-80.265
-80.788
-80.6538
-79.8581
-78.4405
-76.4382
-73.9065
-70.9075
-67.4998
-63.7275
-59.6121
-55.1451
-50.2886
-44.9856
-39.183
-32.8658
-26.094
-19.0227
-11.8904
-4.97738
1.44442
7.17206
12.0905
16.1763
19.4562
21.9981
23.8889
25.2243
26.099
26.6007
26.8071
26.7855
26.5924
26.2749
25.871
25.4116
24.9207
24.4172
23.915
23.4243
22.9519
22.5022
22.0774
21.6781
21.3035
20.952
20.6214
20.3103
20.0178
19.7438
19.4893
19.2561
19.0465
18.8623
18.7043
18.5718
18.4628
18.3742
18.3031
18.2464
18.2023
18.1694
18.1476
18.1372
18.1388
18.1531
18.1805
18.2208
18.2741
18.3398
18.4127
18.4902
18.5793
18.6748
18.7502
18.0354
14.0926
7.03342
-0.0486402
-6.46748
-12.2189
-16.8716
-20.1991
-22.1164
-22.6082
-21.7216
-19.4383
-15.7695
-10.7306
-4.53304
2.24438
8.70212
14.0075
17.7037
19.8394
20.8037
21.0571
20.9592
20.7285
20.4722
20.2353
20.0184
19.828
-7.8177
-8.04757
-8.52998
-9.49402
-10.9512
-12.8189
-15.0107
-17.4004
-19.8111
-22.0495
-23.9211
-25.2514
-25.9104
-25.8163
-24.9662
-23.4431
-21.3932
-19.0038
-16.4734
-13.9806
-11.6612
-9.60033
-7.83984
-6.39325
-5.2626
-4.44845
-3.95307
-3.78203
-3.94613
-4.45889
-5.33239
-6.5745
-8.17957
-10.1092
-12.2928
-14.6314
-17.0084
-19.3034
-21.3991
-23.1742
-24.5076
-25.3226
-25.5297
-25.0094
-23.5291
-20.787
-16.6373
-11.3418
-5.56191
-0.0510513
4.61936
8.14808
10.4294
11.3231
10.6377
8.22756
4.40147
-0.697767
-6.458
-12.4524
-18.4176
-24.2207
-29.8154
-35.1949
-40.3612
-45.3123
-50.0441
-54.5552
-58.8498
-62.9331
-66.8043
-70.4482
-73.8299
-76.8941
-79.5685
-81.7709
-83.4183
-84.4376
-84.7753
-84.4113
-83.3816
-81.6975
-79.4225
-76.6341
-73.4155
-69.8451
-65.985
-61.8698
-57.497
-52.8222
-47.7643
-42.2287
-36.1452
-29.5192
-22.4723
-15.2406
-8.12569
-1.43981
4.58841
9.81261
14.1838
17.7186
20.4813
22.562
24.0601
25.0742
25.6953
26.0042
26.0707
25.9535
25.7014
25.3543
24.9442
24.4964
24.0306
23.5616
23.1002
22.6539
22.2275
21.8237
21.4436
21.0869
20.7524
20.4386
20.1443
19.8688
19.6118
19.374
19.1565
18.9607
18.7879
18.6383
18.5114
18.4056
18.3187
18.2482
18.1919
18.148
18.1154
18.0939
18.0835
18.0845
18.0976
18.1229
18.1603
18.21
18.2712
18.338
18.4076
18.4852
18.569
18.5955
17.5283
12.9429
5.40598
-1.82915
-8.27112
-13.9431
-18.4314
-21.5784
-23.3528
-23.7574
-22.8574
-20.6243
-17.0709
-12.1615
-6.03035
0.798583
7.42992
12.9528
16.8484
19.1416
20.2241
20.5678
20.5413
20.3667
20.1513
19.94
19.7354
19.5467
-18.3667
-18.836
-19.8473
-21.6336
-24.1
-27.1506
-30.6485
-34.3724
-38.0545
-41.4183
-44.2042
-46.1845
-47.1912
-47.1101
-45.8644
-43.5423
-40.3222
-36.4615
-32.2691
-28.0591
-24.0992
-20.5708
-17.5568
-15.0605
-13.0469
-11.4774
-10.3218
-9.558
-9.17196
-9.16143
-9.53412
-10.2975
-11.4558
-12.9869
-14.8351
-16.9113
-19.0982
-21.2667
-23.2899
-25.041
-26.3852
-27.2182
-27.4708
-27.0462
-25.7672
-23.3253
-19.4569
-14.2541
-8.30364
-2.44582
2.5731
6.3017
8.57822
9.33433
8.37962
5.57207
1.02666
-4.67794
-10.8717
-17.148
-23.2838
-29.1869
-34.8296
-40.2063
-45.3168
-50.1665
-54.7711
-59.1572
-63.3551
-67.3877
-71.2595
-74.9483
-78.4036
-81.5483
-84.2867
-86.5144
-88.1298
-89.0475
-89.2123
-88.6181
-87.2931
-85.2789
-82.6582
-79.531
-76.0037
-72.1763
-68.1314
-63.9202
-59.5512
-54.9806
-50.1124
-44.8192
-38.9832
-32.5548
-25.612
-18.3747
-11.1446
-4.26329
2.00953
7.4988
12.1264
15.8971
18.8707
21.1372
22.798
23.9539
24.6985
25.1149
25.2749
25.2391
25.058
24.773
24.4174
24.0176
23.5942
23.1629
22.7351
22.3189
21.9197
21.5406
21.1831
20.8474
20.5328
20.2381
19.9623
19.7049
19.4656
19.2447
19.0429
18.861
18.6998
18.5593
18.439
18.3377
18.2536
18.1848
18.1294
18.086
18.0537
18.032
18.0209
18.0206
18.0314
18.0533
18.0862
18.1299
18.1834
18.2403
18.2964
18.3537
18.4117
18.3659
17.0128
12.0325
4.21096
-3.13909
-9.61122
-15.2116
-19.5736
-22.5879
-24.2567
-24.6036
-23.6987
-21.5182
-18.0688
-13.2873
-7.24115
-0.400687
6.337
12.0093
16.0511
18.4675
19.6499
20.076
20.1182
19.9992
19.826
19.6431
19.4559
19.2752
-30.5811
-31.3232
-32.9419
-35.6111
-39.1632
-43.4807
-48.3159
-53.3342
-58.1754
-62.5039
-66.0268
-68.4931
-69.7285
-69.6773
-68.2231
-65.4144
-61.3708
-56.2992
-50.5018
-44.3734
-38.3566
-32.8456
-28.0832
-24.1279
-20.9169
-18.3568
-16.3698
-14.8956
-13.8851
-13.3039
-13.1381
-13.3914
-14.065
-15.1489
-16.6023
-18.3493
-20.2781
-22.2552
-24.1448
-25.8167
-27.139
-27.9886
-28.3051
-27.9927
-26.9203
-24.8233
-21.4217
-16.7135
-11.1765
-5.62006
-0.852772
2.60374
4.59474
5.10169
3.86735
0.797852
-3.97884
-9.70456
-15.8218
-21.9818
-28.0015
-33.7966
-39.3287
-44.5814
-49.5568
-54.2789
-58.7904
-63.1429
-67.381
-71.5283
-75.5764
-79.4807
-83.1626
-86.5165
-89.4197
-91.7443
-93.3701
-94.1999
-94.1798
-93.3204
-91.6556
-89.2537
-86.2218
-82.6853
-78.7744
-74.6111
-70.2982
-65.9038
-61.4478
-56.8895
-52.1257
-47.0082
-41.3864
-35.1677
-28.3812
-21.2053
-13.9421
-6.93444
-0.480564
5.21524
10.0548
14.0298
17.1937
19.6337
21.4508
22.7465
23.6155
24.142
24.3994
24.4496
24.3444
24.1265
23.8304
23.4836
23.1074
22.7184
22.3286
21.9467
21.5786
21.2279
20.8965
20.585
20.2929
20.0195
19.7641
19.5262
19.3055
19.1022
18.9164
18.7488
18.5996
18.4688
18.356
18.26
18.1795
18.113
18.0591
18.0164
17.9843
17.9622
17.9499
17.9475
17.955
17.9723
17.9989
18.0344
18.077
18.1198
18.1561
18.1838
18.2014
18.0708
16.5344
11.3912
3.48518
-3.96701
-10.4731
-16.0111
-20.2807
-23.205
-24.8076
-25.1239
-24.2245
-22.0926
-18.7344
-14.0659
-8.11006
-1.29791
5.47441
11.216
15.3368
17.8318
19.0899
19.5875
19.6942
19.6297
19.4993
19.3468
19.1807
19.0125
-42.4247
-43.4444
-45.642
-49.0766
-53.536
-58.8328
-64.5918
-70.3876
-75.8193
-80.5625
-84.352
-86.9629
-88.2616
-88.2295
-86.8366
-84.0522
-79.9137
-74.5237
-68.0278
-60.6654
-52.8912
-45.3474
-38.6084
-32.9417
-28.3244
-24.615
-21.6782
-19.4102
-17.7251
-16.5522
-15.8465
-15.5935
-15.7857
-16.4141
-17.4499
-18.8312
-20.458
-22.1991
-23.914
-25.468
-26.7353
-27.5945
-27.9746
-27.792
-26.9272
-25.17
-22.2841
-18.2499
-13.4582
-8.63806
-4.56328
-1.71823
-0.198391
-0.0294689
-1.49365
-4.70076
-9.38441
-14.8607
-20.6808
-26.5556
-32.3257
-37.9018
-43.2349
-48.3083
-53.1397
-57.7773
-62.2871
-66.7329
-71.1576
-75.5693
-79.9348
-84.1795
-88.194
-91.8434
-94.9793
-97.4502
-99.1155
-99.8637
-99.6447
-98.4886
-96.4373
-93.5918
-90.0895
-86.085
-81.7337
-77.178
-72.5395
-67.8981
-63.2824
-58.6549
-53.9135
-48.9019
-43.4438
-37.4073
-30.7764
-23.6952
-16.4499
-9.38846
-2.82734
3.00939
8.00714
12.1459
15.4712
18.0658
20.0279
21.4578
22.4493
23.0869
23.4443
23.5843
23.5596
23.4137
23.1821
22.8932
22.5692
22.2273
21.8801
21.537
21.2042
20.8857
20.5839
20.2997
20.033
19.7832
19.5501
19.3332
19.1322
18.947
18.7778
18.6248
18.4881
18.3676
18.2628
18.1729
18.0968
18.0333
17.9813
17.9396
17.9077
17.8849
17.871
17.8658
17.8692
17.8806
17.8994
17.9244
17.9531
17.9777
17.9884
17.9786
17.9425
17.7259
16.1162
11.0305
3.21601
-4.30961
-10.8511
-16.343
-20.5527
-23.4239
-24.9911
-25.2973
-24.4141
-22.3286
-19.0456
-14.4704
-8.60322
-1.8571
4.87456
10.597
14.7209
17.2435
18.5497
19.1062
19.2726
19.261
19.1734
19.0526
18.9099
18.7572
-51.1734
-52.6305
-55.368
-59.4156
-64.5472
-70.4851
-76.7608
-82.9106
-88.5556
-93.4386
-97.372
-100.186
-101.742
-102.018
-100.849
-98.146
-93.9797
-88.5385
-81.9597
-74.2367
-65.5132
-56.4315
-47.91
-40.5717
-34.5447
-29.6799
-25.788
-22.7239
-20.3701
-18.6265
-17.4182
-16.7011
-16.4502
-16.6518
-17.2856
-18.3036
-19.6202
-21.1121
-22.6386
-24.0607
-25.2541
-26.1044
-26.5284
-26.4595
-25.7788
-24.3247
-21.9296
-18.6017
-14.684
-10.8178
-7.66813
-5.59782
-4.6391
-4.86877
-6.56305
-9.85209
-14.3603
-19.5354
-25.0192
-30.5753
-36.0601
-41.3843
-46.5017
-51.4093
-56.1468
-60.7845
-65.401
-70.0595
-74.7894
-79.5756
-84.3568
-89.0292
-93.4536
-97.4663
-100.892
-103.553
-105.282
-105.952
-105.523
-104.037
-101.551
-98.2057
-94.1755
-89.6518
-84.8193
-79.837
-74.8391
-69.9108
-65.0841
-60.33
-55.5485
-50.5763
-45.2186
-39.3148
-32.8165
-25.8403
-18.6545
-11.6017
-5.00341
0.907162
6.00547
10.2623
13.7156
16.4418
18.5343
20.09
21.2004
21.9488
22.4083
22.6415
22.7016
22.6326
22.4708
22.2451
21.9786
21.6888
21.3892
21.0895
20.7963
20.5141
20.2455
19.9918
19.7532
19.5295
19.3205
19.1261
18.9459
18.7798
18.6277
18.4899
18.3662
18.2565
18.1604
18.0772
18.0061
17.9462
17.8965
17.8561
17.8243
17.8006
17.7847
17.7761
17.7745
17.7791
17.7886
17.8012
17.8136
17.8166
17.7971
17.744
17.6448
17.3482
15.7621
10.9313
3.37579
-4.16058
-10.7366
-16.2043
-20.3831
-23.2314
-24.7883
-25.1027
-24.2466
-22.2065
-18.983
-14.4805
-8.70069
-2.06067
4.55095
10.1611
14.209
16.7064
18.0322
18.6349
18.8559
18.8953
18.8499
18.7614
18.6431
18.5074
-54.3548
-56.7853
-60.1442
-64.7975
-70.5412
-77.0188
-83.7235
-90.2025
-96.1283
-101.311
-105.61
-108.869
-110.898
-111.596
-110.682
-107.95
-103.506
-97.7222
-90.9594
-83.2074
-74.2624
-64.4319
-54.7135
-46.0646
-38.8548
-33.0042
-28.2971
-24.5542
-21.6247
-19.3838
-17.7346
-16.6103
-15.9691
-15.7899
-16.0557
-16.7337
-17.7557
-19.0126
-20.364
-21.6626
-22.7788
-23.5992
-24.0364
-24.0379
-23.4942
-22.2896
-20.3295
-17.6724
-14.6476
-11.8054
-9.65048
-8.38905
-8.02825
-8.71316
-10.6944
-14.0798
-18.4472
-23.3752
-28.5741
-33.8497
-39.0759
-44.1752
-49.117
-53.9195
-58.6426
-63.3712
-68.1879
-73.1475
-78.2617
-83.4921
-88.752
-93.9096
-98.7956
-103.216
-106.968
-109.845
-111.652
-112.246
-111.605
-109.761
-106.8
-102.909
-98.3126
-93.2413
-87.9125
-82.4984
-77.1293
-71.8965
-66.8379
-61.9282
-57.0651
-52.0778
-46.7605
-40.9369
-34.5404
-27.6684
-20.5719
-13.581
-7.0096
-1.08929
4.05276
8.38167
11.9281
14.7614
16.9683
18.6405
19.8655
20.7241
21.2874
21.6175
21.7672
21.7806
21.6942
21.5376
21.3342
21.1022
20.8555
20.604
20.355
20.1132
19.8817
19.6618
19.454
19.2588
19.076
18.9056
18.7474
18.6013
18.4671
18.345
18.2348
18.1365
18.0496
17.9738
17.9083
17.8523
17.8052
17.7662
17.7346
17.7099
17.6916
17.6792
17.6719
17.6687
17.6678
17.6665
17.6606
17.6397
17.5872
17.4875
17.3206
16.9524
15.4617
11.0463
3.92015
-3.52568
-10.1224
-15.5879
-19.7613
-22.6114
-24.1798
-24.5195
-23.7007
-21.7049
-18.5264
-14.08
-8.39391
-1.90846
4.49815
9.90194
13.7967
16.2194
17.5387
18.1758
18.4463
18.5344
18.5303
18.4738
18.3801
18.2619
-50.9386
-54.6797
-59.1705
-64.6821
-71.1795
-78.2897
-85.5154
-92.4276
-98.7378
-104.293
-108.962
-112.577
-114.918
-115.84
-115.129
-112.527
-108.023
-101.98
-94.9804
-87.2278
-78.3966
-68.443
-58.2
-48.7845
-40.7976
-34.2666
-28.9877
-24.753
-21.3923
-18.7658
-16.7626
-15.3026
-14.3331
-13.8237
-13.7562
-14.1103
-14.8413
-15.8654
-17.05
-18.2389
-19.284
-20.0635
-20.4875
-20.5204
-20.0687
-19.0667
-17.4934
-15.4696
-13.3236
-11.4962
-10.3037
-9.81828
-10.0727
-11.2714
-13.6249
-17.1304
-21.4463
-26.2202
-31.2195
-36.2867
-41.3175
-46.2543
-51.0888
-55.8613
-60.6483
-65.5409
-70.6197
-75.9299
-81.4671
-87.1704
-92.9303
-98.5872
-103.941
-108.768
-112.837
-115.92
-117.796
-118.304
-117.454
-115.238
-111.796
-107.368
-102.232
-96.6493
-90.8528
-85.0256
-79.3042
-73.7836
-68.5029
-63.4328
-58.4656
-53.4244
-48.0986
-42.3089
-35.9845
-29.2137
-22.2321
-15.35
-8.86386
-2.99326
2.13898
6.49587
10.1018
13.018
15.3235
17.1028
18.4382
19.4064
20.0759
20.507
20.7516
20.8535
20.8491
20.7681
20.6343
20.4662
20.278
20.0802
19.8803
19.6835
19.4928
19.31
19.1361
18.9717
18.8172
18.6725
18.5376
18.4124
18.2969
18.1911
18.095
18.0085
17.9315
17.8634
17.8039
17.7523
17.7081
17.6706
17.6392
17.6134
17.5926
17.5759
17.5625
17.5508
17.5386
17.5224
17.4969
17.4507
17.3643
17.2175
16.9836
16.5508
15.1952
11.3087
4.77976
-2.43446
-9.00913
-14.4859
-18.6777
-21.5517
-23.1507
-23.5301
-22.7559
-20.8001
-17.6535
-13.2561
-7.68556
-1.41744
4.69325
9.79979
13.4723
15.7779
17.069
17.7307
18.046
18.1803
18.2157
18.1904
18.1207
18.0196
-41.8272
-46.1437
-52.4249
-59.1761
-66.4799
-74.1898
-81.8966
-89.2048
-95.8457
-101.669
-106.541
-110.302
-112.795
-113.917
-113.484
-111.233
-107.024
-101.106
-94.1488
-86.538
-77.967
-68.209
-57.9314
-48.2847
-40.0004
-33.1877
-27.6584
-23.1914
-19.6038
-16.7479
-14.5082
-12.8003
-11.5661
-10.7709
-10.3955
-10.4245
-10.832
-11.5662
-12.5289
-13.5771
-14.5416
-15.2751
-15.679
-15.7296
-15.3611
-14.5624
-13.3889
-12.0229
-10.7719
-9.93688
-9.65264
-9.91628
-10.8123
-12.5683
-15.3378
-19.0455
-23.3919
-28.1012
-32.9863
-37.9211
-42.8266
-47.6698
-52.4664
-57.2768
-62.1895
-67.2962
-72.6692
-78.3404
-84.2939
-90.4506
-96.6792
-102.79
-108.554
-113.723
-118.044
-121.269
-123.161
-123.568
-122.503
-119.976
-116.171
-111.319
-105.726
-99.6948
-93.4817
-87.2916
-81.2692
-75.5066
-70.0377
-64.8245
-59.7508
-54.634
-49.2654
-43.4746
-37.2004
-30.5321
-23.6914
-16.9641
-10.619
-4.8546
0.21716
4.56054
8.19457
11.1718
13.5621
15.4414
16.8854
17.9651
18.7455
19.2843
19.6317
19.8305
19.9168
19.9202
19.8643
19.7681
19.646
19.5087
19.3641
19.2176
19.0727
18.9312
18.7948
18.6645
18.5407
18.4239
18.3139
18.2111
18.1153
18.0268
17.9456
17.8717
17.805
17.7453
17.6923
17.6455
17.6045
17.5687
17.5376
17.5106
17.487
17.4659
17.4459
17.4252
17.4011
17.3692
17.3233
17.2512
17.1312
16.9389
16.6428
16.1517
14.9383
11.639
5.85893
-0.942101
-7.40215
-12.8787
-17.1065
-20.0265
-21.6743
-22.1053
-21.3784
-19.4559
-16.3341
-11.9963
-6.58704
-0.617955
5.10049
9.82575
13.2185
15.3747
16.6219
17.3005
17.6566
17.8342
17.9072
17.9117
17.8649
17.7803
-31.0011
-34.3384
-41.9332
-49.9779
-57.7887
-65.6488
-73.4047
-80.7389
-87.4094
-93.2644
-98.1705
-101.997
-104.637
-105.993
-105.858
-103.996
-100.261
-94.8644
-88.4345
-81.3062
-73.1631
-63.8095
-53.9183
-44.6101
-36.5906
-29.967
-24.5596
-20.1529
-16.5674
-13.6608
-11.3241
-9.47838
-8.06684
-7.05159
-6.41206
-6.13392
-6.19603