/*--------------------------------*- C++ -*----------------------------------*\
| =========                 |                                                 |
| \\      /  F ield         | OpenFOAM: The Open Source CFD Toolbox           |
|  \\    /   O peration     | Version:  2112                                  |
|   \\  /    A nd           | Website:  www.openfoam.com                      |
|    \\/     M anipulation  |                                                 |
\*---------------------------------------------------------------------------*/
FoamFile
{
    version     2.0;
    format      ascii;
    arch        "LSB;label=32;scalar=64";
    class       volScalarField;
    location    "0.32";
    object      kU;
}
// * * * * * * * * * * * * * * * * * * * * * * * * * * * * * * * * * * * * * //

dimensions      [0 2 -2 0 0 0 0];

internalField   nonuniform List<scalar> 
12225
(
0.399882
0.622146
0.790904
0.936773
1.07932
1.22881
1.39073
1.56861
1.76528
1.98306
2.22372
2.48832
2.7771
3.08943
3.42382
3.77883
4.15061
4.51713
0.124051
0.143867
0.166408
0.191497
0.219375
0.250547
0.285553
0.324622
0.36756
0.413813
0.462538
0.512763
0.563566
0.614269
0.664676
0.71556
0.772479
0.852232
0.113239
0.115515
0.118669
0.122001
0.124761
0.127232
0.129752
0.132604
0.135958
0.139881
0.144366
0.14939
0.154963
0.161148
0.168085
0.176065
0.185581
0.196647
0.11249
0.112648
0.113064
0.11371
0.114522
0.115433
0.116371
0.117277
0.118098
0.118624
0.118867
0.118862
0.118657
0.118311
0.11789
0.11747
0.117139
0.116921
0.112423
0.112367
0.112371
0.112432
0.11256
0.112743
0.112974
0.113243
0.113538
0.113833
0.114106
0.114343
0.114533
0.114673
0.114761
0.114782
0.114759
0.114718
0.112391
0.112295
0.11222
0.112167
0.11215
0.112171
0.112224
0.112293
0.112377
0.112472
0.112571
0.112671
0.112768
0.112862
0.112951
0.113038
0.113131
0.11324
0.112363
0.112238
0.112134
0.112052
0.112001
0.111981
0.111984
0.112004
0.112033
0.112068
0.112105
0.112145
0.112185
0.112228
0.112276
0.112331
0.112398
0.112481
0.112343
0.112199
0.112075
0.111973
0.111899
0.111854
0.111833
0.111829
0.111837
0.111852
0.111871
0.111892
0.111914
0.111939
0.111968
0.112005
0.112053
0.112114
0.112329
0.112172
0.112035
0.111918
0.111826
0.111759
0.111715
0.111689
0.111676
0.111674
0.111678
0.111686
0.111699
0.111717
0.11174
0.11177
0.111808
0.111856
0.112318
0.112152
0.112004
0.111877
0.111771
0.111687
0.111623
0.111577
0.111544
0.111523
0.11151
0.111505
0.111505
0.111513
0.111529
0.111553
0.111584
0.111621
0.112311
0.112136
0.111981
0.111844
0.111727
0.11163
0.111551
0.111487
0.111437
0.111398
0.111368
0.111347
0.111334
0.111329
0.111333
0.111347
0.11137
0.111397
0.112305
0.112125
0.111963
0.11182
0.111694
0.111587
0.111497
0.11142
0.111357
0.111303
0.11126
0.111225
0.111198
0.11118
0.11117
0.111171
0.111181
0.1112
0.112301
0.112116
0.111949
0.111799
0.111667
0.111551
0.111451
0.111364
0.111289
0.111224
0.111168
0.111121
0.111081
0.11105
0.111027
0.111013
0.111008
0.11101
0.112298
0.112108
0.111936
0.11178
0.111641
0.111517
0.111408
0.111311
0.111225
0.111149
0.111081
0.111021
0.110969
0.110924
0.110887
0.110856
0.110833
0.110817
0.112295
0.112102
0.111924
0.111763
0.111618
0.111486
0.111368
0.111262
0.111166
0.111078
0.110999
0.110928
0.110862
0.110804
0.110751
0.110705
0.110664
0.110628
0.112292
0.112096
0.111915
0.11175
0.111598
0.11146
0.111334
0.111219
0.111113
0.111016
0.110926
0.110842
0.110765
0.110693
0.110626
0.110563
0.110506
0.110452
0.112291
0.112093
0.111909
0.111739
0.111583
0.11144
0.111307
0.111184
0.11107
0.110964
0.110864
0.110769
0.11068
0.110596
0.110516
0.110439
0.110367
0.110297
0.11229
0.112092
0.111906
0.111734
0.111574
0.111426
0.111288
0.11116
0.111039
0.110924
0.110816
0.110712
0.110613
0.110518
0.110427
0.110339
0.110254
0.110172
0.112291
0.112093
0.111907
0.111734
0.111573
0.111422
0.111281
0.111148
0.111022
0.110902
0.110788
0.110677
0.110571
0.110468
0.110368
0.110271
0.110177
0.110086
0.112293
0.112096
0.111912
0.11174
0.111579
0.111428
0.111287
0.111153
0.111025
0.110904
0.110786
0.110673
0.110563
0.110456
0.110352
0.110251
0.110153
0.110057
0.112295
0.112101
0.111919
0.111749
0.11159
0.111441
0.1113
0.111167
0.11104
0.110919
0.110802
0.110688
0.110578
0.110471
0.110366
0.110264
0.110165
0.110068
0.112299
0.112108
0.111929
0.111762
0.111605
0.111458
0.111319
0.111188
0.111064
0.110945
0.11083
0.110719
0.110611
0.110506
0.110404
0.110304
0.110206
0.110111
0.112304
0.112117
0.111942
0.111778
0.111624
0.11148
0.111345
0.111218
0.111098
0.110984
0.110874
0.110768
0.110666
0.110566
0.11047
0.110375
0.110283
0.110193
0.112311
0.11213
0.111959
0.111799
0.111649
0.11151
0.111382
0.111262
0.11115
0.111045
0.110946
0.110851
0.11076
0.110672
0.110587
0.110505
0.110425
0.110347
0.112321
0.112149
0.111986
0.111833
0.111691
0.111561
0.111444
0.111338
0.111243
0.111159
0.111084
0.111018
0.110959
0.110907
0.110859
0.110816
0.110777
0.110741
0.112336
0.112177
0.112031
0.111904
0.1118
0.11172
0.111665
0.111634
0.111626
0.111642
0.111679
0.111738
0.111813
0.111901
0.111994
0.112089
0.112184
0.112274
0.112359
0.112227
0.112181
0.11225
0.112439
0.112714
0.113053
0.113437
0.113848
0.114274
0.1147
0.115118
0.115517
0.115891
0.116233
0.116502
0.116687
0.116797
0.112637
0.11338
0.11456
0.116039
0.117716
0.119414
0.120762
0.121864
0.122838
0.1238
0.124842
0.126032
0.127413
0.129004
0.13081
0.132829
0.135054
0.137498
0.116911
0.125488
0.136029
0.148092
0.161389
0.175868
0.191678
0.208979
0.227865
0.248333
0.270353
0.293845
0.318677
0.344667
0.371602
0.399266
0.427459
0.455999
0.305555
0.46477
0.588392
0.692188
0.787306
0.879874
0.973074
1.06858
1.16681
1.26732
1.37169
1.48089
1.59551
1.71587
1.84216
1.97442
2.11251
2.25629
0.232121
0.240118
0.259589
0.284056
0.312582
0.34425
0.375247
0.404558
0.432992
0.46131
0.490477
0.521629
0.55608
0.595334
0.640819
0.687353
0.732506
0.773547
0.806056
0.817596
0.804403
0.766128
0.704544
0.624906
0.535739
0.447163
0.374903
0.34076
0.343676
0.370659
0.413688
0.471555
0.545934
0.64226
0.767919
0.930587
1.12363
1.34265
1.58412
1.8394
2.09803
2.34868
2.58021
2.78257
2.94748
3.06851
3.14088
3.17413
3.18085
3.16329
3.12359
3.06383
2.98602
2.89199
2.78337
2.66188
2.53383
2.40481
2.27534
2.14606
2.01774
1.89121
1.76728
1.64683
1.53073
1.4199
1.31528
1.21797
1.12922
1.05063
0.984262
0.932898
0.900308
0.891212
0.915178
0.961174
1.0179
1.07712
1.14082
1.20751
1.27554
1.34371
1.41198
1.48141
1.55503
1.63836
1.73966
1.8692
2.03353
2.21909
2.40816
2.59594
2.77097
2.91519
3.0074
3.02837
2.96554
2.81991
2.61124
2.37767
2.16708
2.03202
2.06364
2.29979
2.73177
3.31032
3.91914
4.54376
5.14425
5.67992
6.11636
6.4274
6.59668
6.62237
6.57008
6.44695
6.25921
6.0131
5.71616
5.37565
5.02515
4.67128
4.31939
3.9746
3.64299
3.3306
3.04341
2.78842
2.57459
2.41555
2.33595
2.38419
2.67229
3.09384
3.56726
4.11205
4.72895
5.41847
6.18263
7.01677
7.91236
8.85759
9.83341
10.7995
11.6367
12.3108
12.856
13.3023
13.6762
14.0017
14.2991
14.5821
14.8566
15.1193
15.36
15.563
15.7107
15.7841
15.764
15.6308
15.3639
14.9425
14.3493
13.5743
12.6208
11.5089
10.2786
8.98874
7.7108
6.51798
5.47322
4.61885
3.96971
3.50759
3.22018
3.08475
3.07203
3.13729
3.22862
3.24182
0.553114
0.494804
0.476758
0.471472
0.470786
0.470089
0.467012
0.460766
0.451373
0.439202
0.424837
0.409048
0.392754
0.376985
0.363045
0.357556
0.362694
0.378017
0.401531
0.42963
0.458593
0.484139
0.501735
0.507689
0.499908
0.477077
0.43748
0.408608
0.420172
0.477047
0.569154
0.684333
0.81434
0.950397
1.08562
1.21492
1.33407
1.43963
1.52858
1.59854
1.64797
1.67635
1.6842
1.67316
1.64586
1.60578
1.55698
1.50409
1.4509
1.4005
1.35564
1.31876
1.29178
1.27607
1.27247
1.281
1.29462
1.30701
1.31683
1.32282
1.32382
1.31865
1.30857
1.29413
1.27527
1.25195
1.22422
1.19223
1.15611
1.11602
1.07202
1.02404
0.971865
0.915158
0.856943
0.801443
0.744373
0.686334
0.62852
0.572386
0.519541
0.471362
0.428407
0.392093
0.363228
0.342116
0.329333
0.326506
0.338207
0.378616
0.452807
0.540934
0.628722
0.713584
0.804263
0.913353
1.04695
1.20125
1.36999
1.55177
1.74857
1.96001
2.17921
2.38984
2.55157
2.65635
2.70972
2.71312
2.66975
2.58625
2.47212
2.33819
2.19559
2.05669
1.93264
1.83083
1.75763
1.7181
1.71397
1.74623
1.783
1.82129
1.85953
1.89675
1.93163
1.9625
1.98805
2.00578
2.01897
2.02937
2.03692
2.04123
2.04167
2.03801
2.03064
2.02093
2.00771
1.9858
1.9562
1.92858
1.90768
1.89643
1.89889
1.92955
2.05723
2.27289
2.51502
2.75161
2.96772
3.15816
3.3245
3.47262
3.6105
3.74629
3.88672
4.03625
4.19669
4.36682
4.54142
4.70987
4.85476
4.95208
4.97488
4.89989
4.71433
4.41917
4.03181
3.58297
3.10955
2.64585
2.21643
1.83407
1.50411
1.2338
1.03919
0.934292
0.901894
0.917407
0.970218
1.06364
1.03785
0.812189
0.717166
0.664654
0.63067
0.604907
0.582374
0.560764
0.539055
0.51681
0.493912
0.470492
0.446896
0.423643
0.401418
0.38118
0.36483
0.354584
0.352593
0.36043
0.378583
0.405912
0.439504
0.474869
0.505943
0.523922
0.510831
0.507037
0.560619
0.654952
0.768473
0.885251
0.995981
1.09556
1.18133
1.25214
1.30769
1.34832
1.37491
1.38887
1.39205
1.38667
1.37516
1.36003
1.34374
1.3285
1.31612
1.30793
1.30461
1.30633
1.31277
1.32325
1.33684
1.35238
1.36865
1.38447
1.40011
1.41466
1.42701
1.43593
1.4402
1.43851
1.43292
1.42316
1.409
1.39031
1.36717
1.33987
1.30884
1.27459
1.23747
1.19755
1.15449
1.1076
1.05651
1.00614
0.952558
0.89407
0.830531
0.76244
0.691156
0.618917
0.54858
0.483003
0.424468
0.374578
0.335337
0.307762
0.292011
0.288254
0.299053
0.330809
0.387906
0.475533
0.600134
0.766339
0.972765
1.21043
1.46378
1.71136
1.92732
2.08767
2.17758
2.19591
2.16347
2.09696
2.00849
1.90855
1.80663
1.71099
1.62818
1.56258
1.51671
1.49139
1.48567
1.49723
1.52296
1.55935
1.60287
1.65017
1.69879
1.74725
1.7941
1.83785
1.87681
1.90908
1.93459
1.95672
1.97501
1.98835
1.99486
1.99221
1.98241
1.96568
1.94184
1.91153
1.87536
1.83427
1.7901
1.7457
1.70405
1.66597
1.63595
1.61792
1.61346
1.62922
1.66465
1.71613
1.77727
1.84102
1.90165
1.95614
2.00436
2.04849
2.09186
2.13793
2.18945
2.24801
2.31355
2.38384
2.4538
2.51472
2.55442
2.55927
2.51761
2.42333
2.2786
2.09322
1.88123
1.65663
1.43061
1.21192
1.00982
0.836611
0.705558
0.625892
0.593567
0.59944
0.640816
0.721775
1.54276
1.06699
0.873846
0.768227
0.701425
0.654618
0.618925
0.589682
0.564096
0.540337
0.517214
0.494046
0.470616
0.447108
0.424052
0.402186
0.382502
0.366496
0.356152
0.353881
0.36211
0.382652
0.41562
0.460005
0.511495
0.557968
0.57269
0.609951
0.70146
0.818232
0.932713
1.03215
1.11358
1.17809
1.22791
1.26543
1.29283
1.31205
1.32481
1.33267
1.33699
1.3389
1.33925
1.33865
1.33751
1.3361
1.3347
1.33364
1.33337
1.33428
1.33678
1.3411
1.34731
1.35529
1.36474
1.3755
1.38826
1.40192
1.41516
1.42645
1.43413
1.43775
1.43819
1.43469
1.42647
1.41287
1.39355
1.36866
1.33896
1.30572
1.27042
1.2343
1.19797
1.16134
1.12368
1.08753
1.05084
1.01079
0.965819
0.914482
0.855925
0.790307
0.719112
0.645103
0.571828
0.502655
0.441577
0.392968
0.359276
0.341777
0.342318
0.366145
0.421306
0.518748
0.668971
0.87418
1.12207
1.38764
1.64002
1.84712
1.98084
2.02693
1.99795
1.9289
1.84029
1.74544
1.65392
1.57237
1.50497
1.45393
1.41975
1.40169
1.39825
1.40743
1.427
1.45474
1.48858
1.52663
1.56718
1.6094
1.65197
1.69372
1.73343
1.7697
1.80064
1.82785
1.85381
1.87842
1.90132
1.92137
1.93679
1.94566
1.94799
1.94372
1.93217
1.91244
1.88351
1.84476
1.79682
1.74172
1.68276
1.62338
1.56816
1.52478
1.49872
1.49174
1.49903
1.51596
1.53869
1.5635
1.58705
1.60701
1.6226
1.63469
1.64537
1.65724
1.67273
1.69351
1.72002
1.7511
1.78371
1.81293
1.83243
1.83545
1.81613
1.77078
1.69898
1.60344
1.48877
1.36007
1.22225
1.08085
0.943311
0.818551
0.714322
0.635975
0.58819
0.573315
0.594372
0.655941
2.01309
1.22618
0.933577
0.783969
0.696394
0.641203
0.604292
0.577898
0.557186
0.538935
0.521002
0.502096
0.481661
0.459796
0.437196
0.415356
0.395313
0.378241
0.365656
0.359531
0.362284
0.376047
0.404411
0.449944
0.511324
0.577639
0.627905
0.700926
0.821272
0.949998
1.06023
1.14462
1.206
1.25006
1.28207
1.30594
1.32427
1.3386
1.34966
1.35754
1.36194
1.36235
1.35856
1.35134
1.34096
1.32795
1.31301
1.29699
1.28145
1.26841
1.25883
1.25327
1.25189
1.25457
1.26095
1.27124
1.28541
1.30234
1.32081
1.33947
1.35683
1.37102
1.38317
1.39222
1.39669
1.39486
1.38518
1.36668
1.3395
1.30519
1.26659
1.22693
1.1887
1.15303
1.11983
1.09088
1.06411
1.03745
1.0094
0.977931
0.940821
0.896102
0.842666
0.780763
0.712317
0.640679
0.5702
0.508207
0.460856
0.432793
0.428635
0.454862
0.519125
0.632368
0.803895
1.03048
1.28868
1.54033
1.74662
1.87821
1.9212
1.88475
1.80972
1.72271
1.63579
1.55654
1.48911
1.43534
1.39567
1.36968
1.35629
1.35408
1.3614
1.37653
1.39783
1.42387
1.45339
1.48531
1.51889
1.55366
1.58825
1.62132
1.65169
1.67749
1.70305
1.72864
1.75441
1.7804
1.8063
1.83103
1.85298
1.87032
1.88407
1.89351
1.89778
1.89569
1.88558
1.86562
1.83424
1.79035
1.73386
1.66654
1.5909
1.51576
1.4521
1.41017
1.39415
1.39825
1.41464
1.43577
1.45574
1.47076
1.47926
1.48158
1.47955
1.47576
1.47297
1.47356
1.47903
1.48957
1.50432
1.52061
1.53422
1.54007
1.53336
1.51064
1.47053
1.41365
1.34195
1.25783
1.16385
1.06329
0.96093
0.862662
0.773882
0.69844
0.641006
0.609543
0.611272
0.653393
2.4409
1.30388
0.921952
0.745068
0.653466
0.6044
0.577765
0.562738
0.552842
0.543948
0.53341
0.519677
0.502103
0.480881
0.457059
0.433362
0.411143
0.391795
0.376802
0.367912
0.366721
0.375975
0.400383
0.44481
0.511061
0.594324
0.672069
0.775881
0.918027
1.05445
1.1609
1.23541
1.28541
1.31925
1.34316
1.36082
1.37383
1.38229
1.38526
1.38214
1.37274
1.35688
1.33506
1.30823
1.27763
1.24473
1.21108
1.17817
1.14958
1.12667
1.11012
1.10016
1.09667
1.09926
1.10734
1.12071
1.13787
1.15797
1.18036
1.20449
1.22982
1.25551
1.27994
1.30393
1.32584
1.34298
1.35206
1.34964
1.33343
1.30339
1.26257
1.21648
1.17078
1.12928
1.09355
1.06522
1.04127
1.02043
1.0017
0.983494
0.963563
0.939176
0.90758
0.866477
0.814822
0.753601
0.68626
0.621242
0.567807
0.534445
0.529391
0.560852
0.635823
0.762774
0.946029
1.17467
1.41645
1.62779
1.77257
1.83358
1.81539
1.74606
1.66637
1.58815
1.51733
1.45667
1.40708
1.36953
1.3428
1.32622
1.31908
1.32003
1.32757
1.34036
1.35741
1.37804
1.40177
1.42798
1.45675
1.48633
1.51489
1.5399
1.56396
1.58797
1.61201
1.63649
1.66111
1.68651
1.71202
1.73622
1.75789
1.77792
1.79595
1.81168
1.82484
1.83492
1.84098
1.84137
1.83377
1.81512
1.78205
1.73182
1.66272
1.57757
1.48573
1.4008
1.33881
1.30649
1.30035
1.31193
1.3315
1.3509
1.3649
1.37133
1.37051
1.36435
1.35547
1.34656
1.33986
1.33682
1.33796
1.34235
1.34803
1.35235
1.35196
1.34279
1.32231
1.28944
1.24439
1.18821
1.12237
1.04895
0.971112
0.893071
0.819301
0.753524
0.698491
0.661045
0.650576
0.676437
2.82603
1.31784
0.868291
0.68681
0.608823
0.577686
0.568369
0.568386
0.570798
0.57142
0.567652
0.557972
0.541755
0.519281
0.491908
0.46338
0.435728
0.411119
0.39154
0.37889
0.37431
0.380211
0.401485
0.44411
0.512216
0.606647
0.705023
0.834466
0.99326
1.13596
1.24111
1.31067
1.35488
1.38315
1.40145
1.41233
1.41592
1.41087
1.3973
1.37498
1.34421
1.30601
1.26205
1.21431
1.16489
1.11583
1.07045
1.03166
1.00095
0.978734
0.964861
0.958869
0.960087
0.967693
0.980738
0.997498
1.01556
1.03433
1.05369
1.07403
1.09622
1.12137
1.15026
1.1823
1.21714
1.25281
1.28501
1.3075
1.31393
1.29977
1.2652
1.21622
1.16195
1.11048
1.06728
1.03426
1.00801
0.987638
0.972306
0.960847
0.951538
0.941932
0.929057
0.909279
0.878926
0.835482
0.780466
0.721597
0.669602
0.636374
0.633672
0.671042
0.754363
0.888271
1.07071
1.28381
1.49154
1.65311
1.74212
1.75533
1.71033
1.6386
1.56847
1.50375
1.44606
1.39619
1.35593
1.32513
1.30244
1.28832
1.28168
1.28111
1.28542
1.29395
1.30658
1.32346
1.34463
1.36953
1.39746
1.42541
1.45048
1.47516
1.49939
1.52306
1.54602
1.56908
1.5914
1.61491
1.63629
1.65674
1.67628
1.69459
1.71146
1.72691
1.74111
1.75438
1.76683
1.77807
1.78677
1.79025
1.78424
1.76337
1.72216
1.65562
1.56599
1.46242
1.36129
1.28072
1.2295
1.20731
1.20707
1.21894
1.2339
1.24578
1.25163
1.25115
1.24567
1.23724
1.22798
1.21967
1.21353
1.20998
1.20866
1.20838
1.20711
1.20222
1.19119
1.1721
1.14398
1.1067
1.06086
1.00771
0.949386
0.889009
0.83035
0.777253
0.733317
0.701992
0.690601
0.708179
3.13948
1.27637
0.796638
0.636107
0.585122
0.577012
0.585556
0.598998
0.611287
0.618931
0.619781
0.612521
0.596489
0.571755
0.539592
0.504198
0.468842
0.436827
0.410952
0.393462
0.385722
0.388888
0.407475
0.447663
0.513491
0.612345
0.728916
0.878775
1.05063
1.19911
1.30512
1.37308
1.41445
1.43864
1.45068
1.45193
1.44162
1.41813
1.38333
1.33841
1.28518
1.22603
1.16362
1.1005
1.04125
0.98918
0.946684
0.914843
0.893629
0.882308
0.879806
0.884868
0.896158
0.912342
0.932103
0.951881
0.969674
0.984599
0.996235
1.00497
1.01232
1.0211
1.035
1.05768
1.09122
1.134
1.18257
1.22995
1.2659
1.27938
1.26396
1.222
1.16424
1.10328
1.0509
1.00865
0.975794
0.951841
0.935861
0.926705
0.922884
0.922495
0.923219
0.921737
0.912756
0.891295
0.855796
0.81067
0.766387
0.737197
0.737958
0.779256
0.865474
0.997147
1.1666
1.35204
1.51901
1.63473
1.68409
1.6737
1.62522
1.56365
1.5039
1.44882
1.39781
1.35269
1.31541
1.28548
1.26346
1.24891
1.24045
1.23691
1.23781
1.24342
1.25443
1.27145
1.2945
1.32277
1.35371
1.38294
1.41037
1.43673
1.46132
1.48435
1.50535
1.52582
1.545
1.56284
1.58013
1.59675
1.61242
1.62691
1.64016
1.6523
1.66375
1.67516
1.68731
1.7008
1.71568
1.73083
1.74328
1.74782
1.73729
1.70337
1.63899
1.54597
1.43403
1.32126
1.22514
1.15638
1.11683
1.10123
1.10086
1.10722
1.11412
1.11824
1.1186
1.11567
1.11061
1.10463
1.09877
1.09367
1.08957
1.08623
1.08285
1.07805
1.07012
1.05736
1.03844
1.01266
0.979964
0.941044
0.897391
0.851396
0.806241
0.7656
0.733427
0.713742
0.711089
0.730462
3.33215
1.19113
0.729697
0.610489
0.590705
0.602939
0.624553
0.646406
0.664076
0.675112
0.678016
0.671803
0.655775
0.629552
0.593625
0.551726
0.508648
0.468852
0.436005
0.412921
0.401146
0.401578
0.416914
0.452402
0.513888
0.615276
0.746276
0.9115
1.09327
1.24697
1.35507
1.42299
1.4624
1.48205
1.48598
1.47481
1.44787
1.40525
1.34903
1.28228
1.20907
1.13391
1.06129
0.995329
0.939849
0.89697
0.867395
0.850576
0.845226
0.849701
0.862215
0.880903
0.903834
0.929045
0.95471
0.978335
0.998561
1.01359
1.02156
1.02117
1.01261
0.998505
0.984288
0.97737
0.98519
1.01281
1.0607
1.12159
1.18292
1.22844
1.24296
1.22025
1.16904
1.1057
1.04551
0.992515
0.950089
0.919207
0.899433
0.889619
0.887978
0.892697
0.903778
0.918082
0.930043
0.932877
0.921345
0.895554
0.863531
0.84024
0.843024
0.883486
0.964908
1.08466
1.2317
1.3839
1.5121
1.59292
1.61996
1.60371
1.56295
1.5137
1.46226
1.41014
1.36069
1.31588
1.27779
1.24724
1.2244
1.2082
1.19733
1.19124
1.19039
1.19588
1.20883
1.22983
1.25838
1.29294
1.32926
1.36212
1.39196
1.41926
1.44284
1.46356
1.48164
1.49704
1.51135
1.52497
1.53786
1.54981
1.56061
1.57019
1.57864
1.5863
1.59375
1.60178
1.61133
1.62337
1.63868
1.65744
1.6785
1.69851
1.71124
1.70765
1.6764
1.61098
1.51294
1.39347
1.27087
1.16252
1.07943
1.02438
0.993528
0.979743
0.975779
0.976139
0.97755
0.978549
0.978784
0.978391
0.977597
0.976533
0.97519
0.973394
0.970766
0.966675
0.960223
0.950341
0.936004
0.916476
0.891512
0.861506
0.827606
0.791789
0.756849
0.72629
0.704251
0.695154
0.703446
0.731947
3.34927
1.08221
0.685871
0.616264
0.622486
0.647495
0.67519
0.699484
0.717621
0.728252
0.730641
0.724282
0.708624
0.68296
0.646815
0.601391
0.552636
0.506158
0.466697
0.437814
0.4214
0.418089
0.429484
0.460116
0.517166
0.618996
0.75984
0.935115
1.12332
1.28105
1.39136
1.45949
1.49652
1.51034
1.50422
1.47867
1.43399
1.37208
1.29691
1.21375
1.12859
1.04732
0.975057
0.915726
0.87168
0.843287
0.829472
0.828253
0.837296
0.854242
0.876889
0.903248
0.931535
0.960115
0.987268
1.01522
1.0426
1.0667
1.08369
1.08914
1.0793
1.05324
1.01509
0.97445
0.943679
0.934099
0.953219
1.00274
1.07441
1.14537
1.19239
1.19753
1.16362
1.1084
1.04493
0.98374
0.931572
0.891855
0.865736
0.852901
0.851776
0.860513
0.880189
0.908457
0.940106
0.967612
0.982819
0.980853
0.965031
0.94866
0.95048
0.983841
1.05213
1.15154
1.27041
1.38919
1.48535
1.54346
1.5618
1.54988
1.52029
1.48107
1.43432
1.38247
1.32984
1.28249
1.24258
1.21068
1.18632
1.16812
1.15519
1.14786
1.14743
1.15545
1.17305
1.20034
1.23612
1.27779
1.31986
1.3559
1.38627
1.41243
1.43334
1.4493
1.46233
1.47356
1.48374
1.49317
1.50165
1.50881
1.51441
1.51856
1.52163
1.52424
1.52724
1.53158
1.53819
1.54799
1.56188
1.58062
1.60425
1.63139
1.65796
1.67635
1.67443
1.64152
1.57095
1.46521
1.3378
1.20709
1.08974
0.996009
0.928693
0.884921
0.859103
0.845489
0.839557
0.838317
0.839993
0.843517
0.848114
0.853062
0.85764
0.861155
0.862969
0.862494
0.859141
0.852291
0.841341
0.825831
0.805624
0.781084
0.753231
0.723838
0.695477
0.671526
0.656234
0.654516
0.671522
0.709935
3.25089
0.979237
0.676105
0.650539
0.672438
0.701752
0.728821
0.750094
0.76427
0.771056
0.770497
0.762656
0.747274
0.723518
0.690014
0.644457
0.59376
0.544022
0.500498
0.46733
0.446875
0.439842
0.447339
0.473543
0.526707
0.626912
0.77225
0.951784
1.14235
1.3022
1.41414
1.48225
1.51649
1.52397
1.50762
1.46845
1.40815
1.33052
1.24147
1.14813
1.05785
0.977154
0.910939
0.861947
0.830612
0.815296
0.813082
0.820532
0.83438
0.852006
0.87166
0.892423
0.913984
0.936495
0.961191
0.992386
1.02897
1.06833
1.10593
1.13492
1.14677
1.13386
1.09402
1.03487
0.971835
0.922461
0.900664
0.915158
0.966446
1.04214
1.11463
1.14844
1.14004
1.09905
1.03979
0.975765
0.916757
0.868767
0.835079
0.81713
0.814662
0.825984
0.852588
0.893221
0.943369
0.995456
1.03941
1.06558
1.07069
1.06328
1.06167
1.08189
1.1296
1.2024
1.2906
1.37884
1.45078
1.4962
1.5145
1.51141
1.49277
1.46057
1.4153
1.3611
1.3054
1.25462
1.21154
1.17711
1.15068
1.1304
1.11594
1.10848
1.10986
1.12174
1.14502
1.1792
1.22215
1.27009
1.31651
1.35412
1.3823
1.40393
1.41981
1.43132
1.44005
1.44734
1.45398
1.46004
1.46494
1.46799
1.46888
1.46791
1.46571
1.46328
1.46185
1.4626
1.46638
1.4739
1.48594
1.50325
1.52631
1.55525
1.58752
1.61826
1.63859
1.63597
1.59744
1.51773
1.40275
1.26766
1.13089
1.0078
0.907234
0.831487
0.778307
0.743437
0.722493
0.711877
0.708911
0.711605
0.718325
0.727548
0.737783
0.747612
0.755764
0.761209
0.763155
0.761013
0.75436
0.742964
0.726865
0.70651
0.682892
0.657672
0.633251
0.61286
0.600729
0.602108
0.623031
0.667529
3.05893
0.903294
0.702204
0.706025
0.733084
0.759638
0.780704
0.794754
0.801688
0.802123
0.796757
0.786115
0.770155
0.747921
0.71733
0.674754
0.627158
0.579108
0.535555
0.50098
0.478256
0.468479
0.472836
0.495613
0.54581
0.642284
0.786107
0.963754
1.15213
1.31174
1.42459
1.49281
1.52488
1.52718
1.50263
1.45292
1.38096
1.29209
1.19383
1.09475
1.00316
0.925793
0.866822
0.827447
0.806057
0.798893
0.801102
0.807852
0.815372
0.821602
0.826301
0.830765
0.837278
0.848378
0.868957
0.900512
0.942685
0.994295
1.05217
1.10968
1.15603
1.17743
1.1622
1.11105
1.03703
0.961556
0.904735
0.880889
0.897912
0.950943
1.02038
1.07697
1.09406
1.07189
1.02277
0.961461
0.900018
0.846539
0.806122
0.782085
0.776272
0.788293
0.819573
0.87026
0.936943
1.01257
1.08619
1.14437
1.17635
1.18243
1.17742
1.18046
1.20207
1.24413
1.30113
1.36249
1.41665
1.45603
1.47872
1.48566
1.47653
1.44913
1.40364
1.34638
1.28687
1.23222
1.18606
1.14912
1.11994
1.0971
1.08093
1.07316
1.07593
1.09102
1.12022
1.16108
1.20931
1.26074
1.30821
1.34293
1.36811
1.38547
1.39656
1.40345
1.40825
1.41252
1.41689
1.42101
1.42375
1.42395
1.42125
1.41616
1.40954
1.40278
1.39752
1.39518
1.39637
1.40155
1.41123
1.42587
1.44508
1.47055
1.50279
1.53976
1.57509
1.59682
1.58932
1.5414
1.45068
1.32621
1.18494
1.04486
0.919517
0.816018
0.735931
0.677411
0.637229
0.612054
0.598985
0.595577
0.599684
0.609262
0.622262
0.636649
0.650518
0.662219
0.67045
0.674296
0.673196
0.666912
0.65554
0.639564
0.619946
0.598221
0.576591
0.558039
0.54659
0.547528
0.567484
0.612267
2.78443
0.876579
0.759474
0.775289
0.799409
0.818241
0.829797
0.834248
0.832442
0.82554
0.814656
0.800484
0.782996
0.761292
0.733679
0.698362
0.65811
0.615569
0.575248
0.541731
0.518384
0.506937
0.509088
0.529617
0.577694
0.668885
0.804014
0.974029
1.15547
1.31229
1.42553
1.49474
1.52654
1.52652
1.49753
1.44166
1.36252
1.26643
1.16206
1.05919
0.966967
0.892304
0.838758
0.806201
0.791214
0.788021
0.789894
0.790809
0.786868
0.776944
0.762615
0.747781
0.738059
0.739821
0.756867
0.785806
0.827295
0.882283
0.950228
1.02684
1.10228
1.16066
1.1816
1.15846
1.09705
1.01678
0.941153
0.888639
0.871164
0.892565
0.94255
0.99703
1.03059
1.02714
0.990842
0.936129
0.87627
0.820862
0.776177
0.746764
0.736333
0.74693
0.780039
0.83744
0.917364
1.01396
1.11646
1.20913
1.27438
1.30165
1.29754
1.28296
1.27558
1.2845
1.31035
1.34753
1.38787
1.42453
1.45311
1.46966
1.46875
1.4452
1.39937
1.33928
1.27589
1.21733
1.16773
1.12755
1.09525
1.06989
1.05215
1.04398
1.04745
1.06409
1.09449
1.13625
1.18577
1.2383
1.28609
1.31977
1.34139
1.35399
1.36026
1.3631
1.36508
1.3678
1.37155
1.37541
1.37758
1.37637
1.37143
1.36361
1.35378
1.34377
1.33567
1.33107
1.32972
1.33192
1.3379
1.34784
1.3625
1.38343
1.41231
1.44957
1.49212
1.5298
1.54852
1.53278
1.47281
1.37009
1.23723
1.09241
0.95237
0.828407
0.7258
0.645396
0.585593
0.543855
0.517546
0.504203
0.501521
0.507262
0.519134
0.534771
0.551846
0.568193
0.581975
0.59178
0.596678
0.596198
0.590299
0.579373
0.564268
0.546339
0.527516
0.510432
0.498703
0.497291
0.512885
0.552649
2.4494
0.9126
0.834088
0.850948
0.868213
0.877532
0.878981
0.873957
0.863938
0.850402
0.834586
0.817172
0.798104
0.776666
0.751846
0.723103
0.691424
0.656994
0.623009
0.593405
0.57163
0.560111
0.561319
0.580143
0.625059
0.709391
0.833503
0.989448
1.15782
1.3078
1.42029
1.49173
1.52612
1.52776
1.49917
1.44236
1.36098
1.26152
1.15325
1.04686
0.952445
0.877493
0.825549
0.7959
0.784058
0.782825
0.783983
0.780388
0.767606
0.744345
0.712567
0.679807
0.658835
0.659288
0.674223
0.698638
0.734643
0.785193
0.852166
0.93388
1.02266
1.10367
1.15765
1.16829
1.13161
1.06098
0.980023
0.910874
0.869245
0.863623
0.890397
0.931383
0.962733
0.968511
0.944664
0.898168
0.842521
0.788219
0.742192
0.709428
0.694507
0.701734
0.733871
0.793929
0.882403
0.995432
1.12355
1.25058
1.35426
1.41274
1.41928
1.39196
1.35626
1.33117
1.32559
1.3394
1.36709
1.40157
1.43556
1.4607
1.46732
1.44793
1.40281
1.3409
1.27415
1.21172
1.15823
1.1143
1.07873
1.0508
1.0313
1.02201
1.02472
1.04056
1.06953
1.10987
1.15797
1.20779
1.25229
1.28401
1.30173
1.30972
1.31193
1.312
1.31281
1.31581
1.32073
1.32597
1.32903
1.32763
1.32172
1.31254
1.30052
1.28814
1.27813
1.27202
1.27012
1.27183
1.27623
1.28282
1.29216
1.30614
1.32757
1.35903
1.40056
1.44531
1.482
1.49398
1.46606
1.39183
1.27742
1.13859
0.99359
0.857113
0.737954
0.639701
0.562552
0.505003
0.464914
0.440032
0.428133
0.426999
0.434356
0.447813
0.464901
0.483194
0.50048
0.514912
0.52512
0.53026
0.530005
0.524518
0.514431
0.500847
0.485372
0.470208
0.458427
0.454382
0.464283
0.495784
2.12663
0.96026
0.915239
0.930109
0.939207
0.939123
0.931425
0.918429
0.901901
0.883371
0.864061
0.844622
0.825012
0.804649
0.782816
0.759327
0.735676
0.71
0.684048
0.660625
0.642727
0.633089
0.634696
0.652218
0.69291
0.766902
0.879759
1.01827
1.16905
1.30772
1.4168
1.49031
1.52917
1.53579
1.51189
1.45908
1.38051
1.28223
1.17328
1.06458
0.966838
0.888238
0.83292
0.800527
0.786627
0.783786
0.783365
0.77781
0.762495
0.736428
0.702643
0.668717
0.643776
0.635422
0.641
0.656869
0.684234
0.726543
0.787089
0.866284
0.958709
1.05127
1.12447
1.15851
1.14331
1.08609
1.00776
0.931289
0.874649
0.849319
0.855849
0.880573
0.902553
0.906061
0.886869
0.848371
0.797994
0.746742
0.701852
0.668215
0.650279
0.653092
0.681844
0.740416
0.831827
0.954911
1.10261
1.26023
1.40405
1.50369
1.53564
1.50722
1.44893
1.39105
1.35328
1.34246
1.35601
1.38649
1.42399
1.45634
1.47036
1.4564
1.41395
1.35196
1.28292
1.21692
1.15936
1.1115
1.07261
1.04214
1.02071
1.00979
1.01086
1.02481
1.05142
1.08867
1.13232
1.1755
1.21213
1.23844
1.25213
1.25604
1.25545
1.25451
1.25615
1.26137
1.26918
1.27722
1.28236
1.28145
1.27545
1.26601
1.25527
1.24542
1.23829
1.23475
1.23439
1.23591
1.23782
1.23943
1.24139
1.24598
1.25676
1.27774
1.31131
1.35462
1.40009
1.4322
1.4329
1.38916
1.29962
1.17527
1.03379
0.892218
0.762534
0.651093
0.560017
0.488951
0.436361
0.400277
0.378621
0.369288
0.370127
0.37889
0.39322
0.410694
0.428968
0.445939
0.459891
0.469606
0.474406
0.474135
0.469133
0.460195
0.448566
0.435998
0.424965
0.419062
0.423642
0.446005
1.82342
1.01181
0.996899
1.00895
1.01072
1.00332
0.989204
0.971218
0.951023
0.929961
0.909209
0.889541
0.871177
0.853828
0.836885
0.819712
0.803858
0.787528
0.771007
0.755913
0.744417
0.738986
0.742563
0.759227
0.794702
0.856456
0.954353
1.07463
1.20419
1.32728
1.42949
1.50364
1.54777
1.56201
1.54672
1.50263
1.43195
1.33955
1.23341
1.12377
1.02137
0.935116
0.870337
0.828023
0.805042
0.795065
0.790211
0.783205
0.769299
0.747279
0.719637
0.691598
0.668445
0.653736
0.648507
0.654123
0.672977
0.708493
0.763967
0.840164
0.932306
1.02799
1.10802
1.15189
1.1473
1.09822
1.02278
0.942848
0.877007
0.838188
0.828925
0.838309
0.848288
0.844911
0.824003
0.788806
0.743546
0.696201
0.654143
0.621852
0.60304
0.602196
0.625289
0.678877
0.767483
0.893135
1.05203
1.23246
1.41258
1.55911
1.63463
1.62529
1.55789
1.47215
1.40117
1.36193
1.35674
1.37887
1.41647
1.45427
1.47599
1.46954
1.43266
1.37323
1.30369
1.23492
1.17345
1.1216
1.07936
1.04636
1.02299
1.01029
1.00941
1.02092
1.04413
1.07654
1.11326
1.14728
1.17355
1.18984
1.19682
1.19744
1.19579
1.19592
1.20045
1.20973
1.22188
1.23385
1.24281
1.2471
1.24652
1.2421
1.23575
1.22973
1.22581
1.22448
1.22467
1.22441
1.22192
1.21662
1.20954
1.20333
1.20197
1.21017
1.23167
1.26729
1.31311
1.35648
1.37921
1.36389
1.30199
1.19813
1.06718
0.926992
0.792198
0.671897
0.570289
0.488324
0.425178
0.379215
0.348497
0.331009
0.324722
0.327563
0.33738
0.351936
0.368975
0.386346
0.402162
0.414932
0.423655
0.427844
0.42751
0.423113
0.415531
0.406076
0.396644
0.390055
0.390653
0.404803
1.53784
1.06315
1.07228
1.08454
1.0825
1.07199
1.05632
1.03827
1.01887
0.998935
0.979439
0.961264
0.944964
0.930672
0.918133
0.90685
0.896333
0.888607
0.881385
0.875292
0.871638
0.872242
0.879495
0.896636
0.928039
0.979518
1.06128
1.16692
1.27627
1.38279
1.47559
1.54752
1.59491
1.61598
1.6097
1.57576
1.51524
1.43157
1.33107
1.2226
1.11616
1.02091
0.943335
0.886168
0.848257
0.825236
0.810846
0.798736