/*--------------------------------*- C++ -*----------------------------------*\
| =========                 |                                                 |
| \\      /  F ield         | OpenFOAM: The Open Source CFD Toolbox           |
|  \\    /   O peration     | Version:  2112                                  |
|   \\  /    A nd           | Website:  www.openfoam.com                      |
|    \\/     M anipulation  |                                                 |
\*---------------------------------------------------------------------------*/
FoamFile
{
    version     2.0;
    format      ascii;
    arch        "LSB;label=32;scalar=64";
    class       volScalarField;
    location    "0.17";
    object      k;
}
// * * * * * * * * * * * * * * * * * * * * * * * * * * * * * * * * * * * * * //

dimensions      [0 2 -2 0 0 0 0];

internalField   nonuniform List<scalar> 
12885
(
0.684717
1.03783
1.15142
1.34241
1.94355
2.76492
3.29872
3.57511
3.74293
3.97261
4.42
5.69148
7.15627
8.22599
8.88027
9.24276
9.50644
9.88552
10.7694
12.2673
13.7099
14.8965
15.7668
16.3336
16.6377
16.8198
17.054
17.4326
17.9543
18.566
19.2065
19.8188
20.3708
20.8396
21.2168
21.5268
21.7227
21.9515
22.0575
21.749
0.390579
0.401098
0.39848
0.396876
0.408185
0.460871
0.515195
0.537153
0.551864
0.579635
0.636206
0.760338
1.01617
1.25718
1.42028
1.51563
1.58952
1.68123
1.84405
2.18956
2.64166
3.12501
3.57586
3.94018
4.19425
4.36566
4.51486
4.70405
4.95748
5.27721
5.65102
6.06467
6.49993
6.93869
7.3584
7.75813
8.11698
8.49078
8.82961
9.47514
0.378078
0.378161
0.376928
0.373406
0.370586
0.369955
0.36922
0.367332
0.362458
0.358258
0.358207
0.360276
0.3678
0.386268
0.400729
0.408456
0.414863
0.423239
0.4367
0.465257
0.510237
0.58851
0.67637
0.777996
0.858238
0.933294
0.984121
1.04298
1.09625
1.17617
1.26093
1.38324
1.51275
1.68751
1.86001
2.08173
2.27636
2.53071
2.72386
3.00037
0.376126
0.376077
0.375591
0.374271
0.372938
0.371888
0.37072
0.369026
0.366382
0.363851
0.361594
0.359226
0.35789
0.357079
0.355585
0.354096
0.351942
0.349191
0.348209
0.348456
0.349656
0.352914
0.35879
0.368417
0.376594
0.385837
0.391394
0.398339
0.402793
0.411256
0.418027
0.43201
0.443653
0.468157
0.487324
0.526245
0.553892
0.608508
0.647855
0.714958
0.375507
0.37558
0.37536
0.374773
0.3741
0.373517
0.372867
0.371949
0.370659
0.369338
0.368001
0.366551
0.365428
0.364299
0.362958
0.361633
0.360062
0.358266
0.356783
0.35558
0.354519
0.353933
0.353879
0.354027
0.35434
0.354648
0.354701
0.354643
0.354431
0.354127
0.354135
0.354303
0.354708
0.355765
0.356991
0.359532
0.361727
0.366372
0.369709
0.376674
0.375251
0.375375
0.375269
0.374974
0.374597
0.374245
0.373845
0.3733
0.372583
0.371816
0.371023
0.37022
0.369505
0.368759
0.367926
0.367057
0.366112
0.365115
0.364182
0.363352
0.362615
0.361941
0.361411
0.36098
0.360596
0.360225
0.359785
0.359298
0.35878
0.358211
0.35764
0.357099
0.356579
0.356209
0.355885
0.355689
0.355661
0.355719
0.355872
0.356261
0.375136
0.375256
0.375213
0.37506
0.374835
0.374606
0.374339
0.373989
0.373551
0.373077
0.372588
0.372099
0.371626
0.371126
0.370581
0.370008
0.369414
0.368817
0.368244
0.367712
0.367218
0.366758
0.366337
0.365949
0.365579
0.365214
0.364833
0.36444
0.364037
0.363625
0.363209
0.362805
0.362414
0.362042
0.361699
0.361404
0.361167
0.36098
0.360845
0.360747
0.375079
0.375176
0.375169
0.375092
0.374955
0.374801
0.374618
0.374385
0.374104
0.3738
0.373486
0.373169
0.372845
0.372499
0.372128
0.371742
0.371352
0.370971
0.370604
0.370257
0.369925
0.369607
0.369301
0.369005
0.368716
0.368429
0.368142
0.367856
0.367572
0.367292
0.367018
0.366756
0.366509
0.366279
0.366067
0.365878
0.365714
0.365574
0.365452
0.365337
0.375046
0.375117
0.375128
0.375093
0.375013
0.37491
0.374785
0.374628
0.374445
0.374248
0.374043
0.37383
0.373606
0.373365
0.373108
0.372844
0.372583
0.37233
0.372088
0.371856
0.371631
0.37141
0.371192
0.370977
0.370763
0.370553
0.370346
0.370145
0.36995
0.369762
0.369583
0.369414
0.369258
0.36911
0.368969
0.36884
0.368724
0.368624
0.368538
0.368458
0.375025
0.375071
0.375087
0.375074
0.375032
0.374966
0.374883
0.374781
0.374663
0.374536
0.374401
0.374258
0.374105
0.373938
0.373762
0.373583
0.373407
0.373237
0.373075
0.372919
0.372766
0.372614
0.372461
0.372309
0.372158
0.372009
0.371864
0.371725
0.371591
0.371461
0.371337
0.37122
0.371112
0.371015
0.370928
0.37085
0.370783
0.370727
0.370684
0.370648
0.375009
0.375032
0.375045
0.375042
0.375023
0.374986
0.374935
0.374871
0.374799
0.374721
0.374636
0.374542
0.374438
0.374325
0.374207
0.374088
0.373971
0.373858
0.37375
0.373645
0.373542
0.373439
0.373335
0.373231
0.373127
0.373024
0.372924
0.372828
0.372737
0.372653
0.372575
0.372503
0.37244
0.372388
0.372348
0.37232
0.3723
0.372287
0.37228
0.372276
0.374995
0.374998
0.375003
0.375002
0.374995
0.374977
0.37495
0.374915
0.374876
0.374833
0.374786
0.37473
0.374665
0.374593
0.374517
0.37444
0.374367
0.374297
0.37423
0.374165
0.374101
0.374036
0.37397
0.373902
0.373835
0.373769
0.373704
0.373644
0.37359
0.373544
0.373507
0.373478
0.373457
0.373444
0.373438
0.373439
0.373443
0.373453
0.373465
0.373478
0.374982
0.374963
0.374955
0.374952
0.374949
0.374944
0.374935
0.374924
0.374912
0.374899
0.374882
0.374861
0.374832
0.374797
0.374758
0.374719
0.374683
0.37465
0.374621
0.374593
0.374566
0.374536
0.374506
0.374473
0.374441
0.37441
0.374381
0.374356
0.374337
0.374324
0.374317
0.374318
0.374323
0.374333
0.374349
0.374367
0.374389
0.374412
0.374436
0.374459
0.374968
0.374924
0.374898
0.374885
0.374881
0.374881
0.374884
0.374889
0.374896
0.374905
0.374913
0.37492
0.374923
0.374923
0.374922
0.374921
0.37492
0.374921
0.374925
0.374929
0.374934
0.374938
0.374941
0.374944
0.374946
0.374949
0.374954
0.374961
0.374972
0.374986
0.375003
0.375024
0.375048
0.375075
0.375103
0.375134
0.375165
0.375196
0.375228
0.375259
0.374957
0.374887
0.374837
0.374808
0.374794
0.374793
0.374798
0.374809
0.374826
0.374846
0.374869
0.374893
0.374919
0.374945
0.374971
0.374998
0.375026
0.375054
0.375083
0.375112
0.375142
0.375171
0.375201
0.375231
0.375262
0.375293
0.375324
0.375357
0.375391
0.375425
0.37546
0.375497
0.375533
0.37557
0.375608
0.375645
0.375682
0.375718
0.375754
0.375789
0.374947
0.374856
0.374784
0.374733
0.374703
0.37469
0.374692
0.374701
0.374719
0.374741
0.374769
0.374799
0.374834
0.37487
0.374909
0.37495
0.374992
0.375035
0.375078
0.375121
0.375166
0.37521
0.375255
0.3753
0.375345
0.375391
0.375437
0.375483
0.375528
0.375574
0.375618
0.375663
0.375706
0.375749
0.375791
0.375832
0.375872
0.375911
0.375948
0.375985
0.374941
0.374834
0.374746
0.374677
0.37463
0.374602
0.374593
0.374597
0.37461
0.374631
0.374656
0.374686
0.374719
0.374756
0.374795
0.374836
0.374879
0.374924
0.374969
0.375016
0.375062
0.37511
0.375157
0.375205
0.375252
0.3753
0.375347
0.375393
0.375439
0.375484
0.375529
0.375572
0.375615
0.375656
0.375696
0.375735
0.375773
0.37581
0.375846
0.37588
0.374939
0.374827
0.374732
0.374657
0.374601
0.374565
0.374548
0.374547
0.374555
0.374572
0.374593
0.374618
0.374647
0.374679
0.374713
0.374749
0.374786
0.374825
0.374865
0.374905
0.374946
0.374987
0.375027
0.375068
0.375108
0.375147
0.375186
0.375224
0.375262
0.375298
0.375334
0.375368
0.375401
0.375434
0.375465
0.375495
0.375524
0.375551
0.375578
0.375603
0.374942
0.374839
0.374752
0.374685
0.374637
0.374606
0.374591
0.37459
0.374596
0.374608
0.374624
0.374643
0.374665
0.374688
0.374713
0.374739
0.374765
0.374792
0.374819
0.374846
0.374872
0.374898
0.374923
0.374947
0.374971
0.374993
0.375015
0.375036
0.375055
0.375073
0.375091
0.375107
0.375122
0.375137
0.37515
0.375162
0.375174
0.375184
0.375194
0.375203
0.374947
0.374855
0.37478
0.374723
0.374682
0.374656
0.374641
0.374636
0.374636
0.37464
0.374647
0.374656
0.374666
0.374676
0.374687
0.374698
0.374708
0.374718
0.374727
0.374735
0.374743
0.37475
0.374755
0.37476
0.374764
0.374767
0.374768
0.374768
0.374767
0.374764
0.374762
0.374758
0.374754
0.374749
0.374744
0.374738
0.374732
0.374725
0.374718
0.37471
0.374955
0.374879
0.374819
0.374773
0.374737
0.37471
0.374689
0.374673
0.374659
0.374647
0.374634
0.374622
0.37461
0.374597
0.374583
0.374568
0.37455
0.37453
0.37451
0.374488
0.374467
0.374444
0.374421
0.374398
0.374373
0.374347
0.37432
0.374293
0.374264
0.374235
0.374206
0.374177
0.374148
0.37412
0.374091
0.374063
0.374036
0.374008
0.373981
0.373954
0.374966
0.374912
0.374867
0.374827
0.374788
0.37475
0.374712
0.374674
0.374634
0.374591
0.374547
0.374501
0.374454
0.374405
0.374354
0.374299
0.374242
0.374182
0.374121
0.374059
0.373997
0.373936
0.373875
0.373813
0.373751
0.373689
0.373625
0.373561
0.373497
0.373432
0.373368
0.373305
0.373243
0.373182
0.373123
0.373065
0.373008
0.372953
0.372899
0.372846
0.374981
0.374954
0.374923
0.37488
0.374825
0.37476
0.374688
0.374611
0.374528
0.374437
0.374341
0.374241
0.374139
0.374036
0.373931
0.373821
0.373708
0.373591
0.373471
0.373349
0.373229
0.373111
0.372995
0.372881
0.372768
0.372655
0.372542
0.372428
0.372314
0.372201
0.372089
0.371978
0.371869
0.371762
0.371658
0.371557
0.371458
0.371363
0.37127
0.37118
0.375003
0.375009
0.374988
0.374935
0.374842
0.374724
0.374593
0.374454
0.374304
0.374139
0.37396
0.373772
0.373581
0.373391
0.3732
0.373006
0.372807
0.372599
0.372385
0.372167
0.371951
0.371739
0.371534
0.371335
0.371142
0.370952
0.370765
0.37058
0.370396
0.370213
0.370031
0.36985
0.369671
0.369493
0.369319
0.369147
0.36898
0.368817
0.36866
0.368508
0.375032
0.375094
0.375074
0.374998
0.374839
0.374618
0.374376
0.374133
0.373878
0.373592
0.373273
0.372929
0.372576
0.372227
0.371887
0.371551
0.37121
0.370857
0.370487
0.3701
0.369707
0.369321
0.36895
0.368598
0.368265
0.367952
0.367656
0.367372
0.367099
0.366829
0.366556
0.366275
0.365988
0.365696
0.365402
0.365107
0.364817
0.364534
0.364262
0.364005
0.375076
0.375245
0.375224
0.375102
0.374824
0.374378
0.373894
0.37345
0.37301
0.372499
0.371906
0.371254
0.370569
0.369903
0.369263
0.368644
0.368029
0.367403
0.366747
0.366031
0.365274
0.364523
0.363816
0.363149
0.362537
0.362009
0.361551
0.361151
0.360806
0.360493
0.360171
0.359806
0.35939
0.358933
0.358442
0.35792
0.357389
0.356882
0.356403
0.35596
0.375159
0.375604
0.375603
0.375378
0.374829
0.373797
0.372659
0.371768
0.370986
0.369989
0.368734
0.36737
0.365906
0.364526
0.363299
0.362149
0.361167
0.360238
0.35915
0.357778
0.356263
0.354834
0.353623
0.352531
0.351693
0.351483
0.35156
0.351786
0.352396
0.353186
0.353757
0.353947
0.353948
0.35368
0.353283
0.3527
0.352123
0.351883
0.351889
0.351977
0.37546
0.377009
0.377454
0.376898
0.375473
0.372637
0.369438
0.367772
0.367169
0.366021
0.363375
0.360745
0.357906
0.355605
0.355281
0.355954
0.358724
0.36234
0.363864
0.363791
0.362833
0.362903
0.36382
0.366489
0.372403
0.383554
0.398385
0.415548
0.436043
0.455789
0.4728
0.484103
0.492827
0.498386
0.504764
0.511184
0.521662
0.53386
0.551438
0.571066
0.378027
0.389519
0.403284
0.404035
0.400349
0.396793
0.398896
0.413964
0.455568
0.48149
0.490642
0.496315
0.507436
0.531658
0.576929
0.682332
0.809112
0.918748
0.990877
1.02324
1.0377
1.06179
1.10422
1.18365
1.34092
1.5324
1.7342
1.93387
2.12228
2.28127
2.39275
2.45848
2.49723
2.52896
2.57891
2.65844
2.77534
2.92061
3.09312
3.27616
0.469594
0.82826
1.29079
1.5005
1.56768
1.64366
1.81272
2.3621
2.95749
3.3605
3.58928
3.7173
3.83394
4.02153
4.47838
5.37086
6.20492
6.85993
7.31535
7.60305
7.78372
7.93277
8.13844
8.60709
9.44054
10.3362
11.1826
11.9135
12.5046
12.9629
13.286
13.4909
13.6332
13.782
13.9916
14.2861
14.6633
15.1054
15.5855
16.0815
0.0308746
0.0308871
0.0309144
0.0309585
0.031022
0.0311072
0.0312168
0.0313527
0.0315165
0.0317089
0.031929
0.0321765
0.032457
0.0327797
0.0331465
0.0335623
0.034034
0.03457
0.035181
0.0358795
0.0366803
0.0376001
0.0386576
0.0398724
0.0412639
0.0428495
0.044643
0.0466515
0.0488669
0.051245
0.0537583
0.0564928
0.0595455
0.0629516
0.0667508
0.0709662
0.0755717
0.0805078
0.0857528
0.0913801
0.0973926
0.103954
0.111381
0.120146
0.130863
0.145439
0.16542
0.190278
0.220708
0.257307
0.300463
0.350317
0.406807
0.46966
0.538423
0.612505
0.69128
0.774075
0.860228
0.949086
1.04003
1.13248
1.22587
1.31971
1.41351
1.50684
1.59928
1.69049
1.78013
1.86789
1.95351
2.03675
2.1174
2.19528
2.27021
2.34207
2.41071
2.47604
2.53796
2.59638
2.65125
2.7025
2.7501
2.79401
2.83423
2.87074
2.90354
2.93266
2.9581
2.97991
2.99811
3.01277
3.02402
3.03135
3.03492
3.0361
3.03427
3.02883
3.02098
3.01
2.9967
2.98077
2.96267
2.94236
2.92015
2.89612
2.87051
2.84346
2.81518
2.78585
2.75568
2.72486
2.69362
2.66215
2.6307
2.59949
2.56878
2.53885
2.51017
2.48249
2.45638
2.43254
2.41088
2.39205
2.37633
2.36418
2.35677
2.35404
2.35488
2.36263
2.37585
2.39542
2.42107
2.45249
2.48879
2.52856
2.5699
2.61056
2.64837
2.68159
2.70919
2.73082
2.74657
2.75662
2.7611
2.76024
2.75429
2.74406
2.73124
2.72005
2.72014
2.73383
2.74821
2.75889
2.76359
2.76147
2.75191
2.73472
2.70997
2.67777
2.63851
2.59274
2.54128
2.48513
2.42541
2.36336
2.3002
2.23713
2.17519
2.11526
2.05809
2.00412
1.95373
1.90698
1.8637
1.82383
1.78709
1.74699
1.72334
1.64842
0.0309352
0.0309455
0.0309696
0.0310094
0.0310669
0.0311446
0.0312446
0.0313688
0.031519
0.0316963
0.0319015
0.0321357
0.0324027
0.0327087
0.0330583
0.0334574
0.0339133
0.0344352
0.0350342
0.0357233
0.0365179
0.0374351
0.0384937
0.0397132
0.0411129
0.04271
0.0445175
0.0465419
0.0487769
0.0511971
0.0537875
0.056604
0.0597171
0.0631619
0.0669675
0.071145
0.075668
0.0804816
0.0855429
0.090876
0.0964927
0.102523
0.109225
0.116988
0.126296
0.138682
0.15521
0.175156
0.198798
0.226305
0.25768
0.292757
0.331279
0.372909
0.417253
0.463873
0.512371
0.562353
0.613463
0.665366
0.717762
0.770374
0.822951
0.875264
0.927107
0.978292
1.02865
1.07803
1.12631
1.17335
1.21907
1.26336
1.30615
1.34737
1.38696
1.42488
1.46108
1.49553
1.52819
1.55905
1.58809
1.61529
1.64066
1.66419
1.68589
1.70577
1.72385
1.74014
1.75468
1.76749
1.77859
1.78803
1.79584
1.80187
1.80627
1.80979
1.81182
1.81226
1.81186
1.81002
1.80731
1.80351
1.79892
1.79349
1.78741
1.78073
1.77359
1.76606
1.75828
1.75035
1.74241
1.73456
1.72695
1.71973
1.71305
1.70708
1.70199
1.69795
1.69555
1.69446
1.69501
1.69803
1.70344
1.71186
1.72362
1.73931
1.75982
1.78528
1.81568
1.85329
1.8975
1.94927
2.00861
2.07538
2.14876
2.22718
2.3083
2.38901
2.46588
2.53571
2.59608
2.64567
2.6842
2.71211
2.73026
2.73969
2.74154
2.73728
2.72898
2.72056
2.72104
2.73251
2.74362
2.7504
2.75078
2.74379
2.72869
2.70526
2.67346
2.63342
2.58551
2.53038
2.46893
2.40226
2.33164
2.25843
2.18398
2.10956
2.03633
1.96522
1.89699
1.83221
1.77108
1.71415
1.66039
1.61189
1.56423
1.52131
1.4837
1.42482
0.0310838
0.0310899
0.0311091
0.031143
0.0311938
0.0312633
0.0313538
0.0314671
0.0316051
0.0317694
0.0319619
0.0321847
0.0324416
0.0327374
0.0330775
0.0334683
0.0339175
0.0344346
0.0350311
0.0357204
0.0365179
0.0374411
0.0385086
0.0397402
0.041155
0.0427701
0.0445986
0.0466476
0.0489147
0.0513872
0.0540616
0.0569728
0.0601685
0.0636791
0.0675249
0.0717088
0.0762051
0.0809664
0.0859532
0.0911709
0.0966405
0.10248
0.108925
0.116322
0.125092
0.136592
0.151631
0.169359
0.189835
0.213031
0.238792
0.266849
0.296914
0.328686
0.361875
0.396162
0.431299
0.467049
0.50321
0.539598
0.576054
0.612433
0.648604
0.684453
0.719873
0.754773
0.789067
0.822682
0.855555
0.887627
0.918849
0.949181
0.978585
1.00703
1.0345
1.06096
1.0864
1.1108
1.13416
1.15646
1.1777
1.19788
1.21701
1.23509
1.25212
1.26813
1.28312
1.2971
1.3101
1.32214
1.33323
1.34341
1.35267
1.36098
1.36846
1.37546
1.3816
1.38696
1.39189
1.39603
1.39977
1.40294
1.40574
1.40813
1.41022
1.41205
1.4137
1.41522
1.41669
1.41818
1.41977
1.42155
1.42362
1.42607
1.42902
1.43261
1.43696
1.44226
1.44883
1.45658
1.46585
1.47717
1.49064
1.50676
1.52592
1.5487
1.57583
1.60764
1.64458
1.6883
1.73881
1.79709
1.86346
1.93805
2.02033
2.10898
2.20176
2.29543
2.38615
2.47005
2.54387
2.60558
2.65442
2.69073
2.71551
2.73008
2.73592
2.73486
2.72919
2.7229
2.72371
2.73329
2.74235
2.74696
2.74505
2.73553
2.71764
2.69111
2.65587
2.61207
2.56012
2.50072
2.43483
2.36365
2.28854
2.21092
2.13222
2.05377
1.97674
1.9021
1.83059
1.7628
1.69885
1.63939
1.58317
1.53278
1.4827
1.43996
1.39857
1.34508
0.0313554
0.0313542
0.0313661
0.0313924
0.031435
0.0314959
0.0315769
0.0316802
0.0318076
0.0319612
0.0321435
0.0323573
0.0326064
0.0328957
0.0332308
0.0336186
0.0340672
0.0345866
0.0351884
0.0358864
0.0366964
0.0376359
0.0387238
0.0399797
0.0414229
0.0430707
0.0449369
0.0470301
0.0493522
0.0518999
0.0546753
0.0577007
0.0610076
0.0646198
0.0685508
0.0727992
0.0773417
0.0821402
0.0871647
0.0924192
0.0979398
0.10385
0.110383
0.117864
0.126674
0.138097
0.152777
0.169731
0.188843
0.209957
0.23287
0.257276
0.282902
0.309515
0.336938
0.364947
0.393394
0.422145
0.45109
0.480131
0.50918
0.538159
0.566998
0.595632
0.624003
0.652057
0.679746
0.707029
0.733866
0.760225
0.786075
0.811392
0.836153
0.86034
0.883937
0.906931
0.92931
0.951065
0.972183
0.992661
1.01249
1.03168
1.05021
1.0681
1.08535
1.10195
1.11792
1.13327
1.14799
1.1621
1.17562
1.18854
1.20088
1.21266
1.22393
1.2348
1.24509
1.25488
1.2643
1.2732
1.28177
1.28992
1.29776
1.30527
1.31252
1.31952
1.32633
1.33298
1.33952
1.346
1.35248
1.35901
1.36567
1.37254
1.3797
1.38725
1.39533
1.40406
1.41367
1.42418
1.43588
1.44915
1.46415
1.48131
1.50103
1.52381
1.55027
1.58086
1.6162
1.65756
1.7053
1.76041
1.82346
1.89482
1.97433
2.06113
2.15334
2.24813
2.34184
2.4304
2.5101
2.57822
2.63339
2.67547
2.70523
2.72399
2.73329
2.73513
2.73196
2.72766
2.72874
2.73653
2.74358
2.74611
2.74209
2.73033
2.7101
2.6811
2.6433
2.59688
2.54232
2.48039
2.41217
2.33891
2.26206
2.18308
2.10344
2.02446
1.9473
1.87289
1.8019
1.73489
1.67192
1.61356
1.55859
1.5094
1.46068
1.4198
1.37875
1.32902
0.0317956
0.031783
0.0317843
0.0318007
0.0318338
0.0318855
0.0319576
0.032052
0.0321709
0.0323167
0.0324921
0.0327007
0.0329465
0.0332346
0.033571
0.0339631
0.0344194
0.0349503
0.035568
0.0362865
0.0371218
0.0380917
0.0392153
0.0405123
0.0420022
0.0437029
0.0456292
0.047792
0.0501974
0.0528483
0.0557505
0.058919
0.0623748
0.0661357
0.0702113
0.0745988
0.0792807
0.0842313
0.0894364
0.0949126
0.100718
0.106991
0.113967
0.121958
0.131303
0.143258
0.158303
0.175272
0.194038
0.214417
0.236184
0.25905
0.282762
0.306987
0.331828
0.357119
0.382781
0.408739
0.43493
0.461295
0.487778
0.514328
0.540892
0.567424
0.593878
0.620211
0.646384
0.672361
0.698107
0.723593
0.748789
0.773672
0.798218
0.822407
0.846222
0.869647
0.89267
0.915278
0.937451
0.959181
0.980457
1.00127
1.02162
1.04149
1.06088
1.07979
1.09821
1.11615
1.1336
1.15056
1.16703
1.18302
1.19853
1.21357
1.22817
1.24234
1.25601
1.26923
1.28204
1.29437
1.30632
1.31784
1.32899
1.33977
1.35021
1.36032
1.37014
1.3797
1.38902
1.39815
1.40712
1.41599
1.42481
1.43363
1.44254
1.45162
1.46097
1.47071
1.48099
1.49188
1.50365
1.51656
1.5308
1.54673
1.5647
1.58517
1.60865
1.63562
1.66673
1.70296
1.74487
1.79338
1.84917
1.9128
1.98441
2.06353
2.14887
2.23811
2.32802
2.4148
2.49465
2.5645
2.6224
2.66769
2.70072
2.72257
2.73469
2.73908
2.7382
2.7357
2.73698
2.74308
2.74818
2.74876
2.74285
2.72921
2.70715
2.67641
2.63696
2.58907
2.5333
2.47051
2.40183
2.3286
2.25227
2.17434
2.09621
2.01918
1.94433
1.87251
1.80433
1.74022
1.68022
1.62476
1.57275
1.52612
1.4803
1.44185
1.40276
1.35636
0.0324575
0.0324286
0.0324163
0.0324209
0.0324437
0.0324862
0.0325501
0.0326376
0.0327508
0.0328924
0.0330658
0.0332746
0.0335234
0.0338177
0.0341641
0.0345702
0.0350454
0.0356003
0.0362477
0.037002
0.0378795
0.0388982
0.0400776
0.0414376
0.0429982
0.044778
0.0467935
0.0490579
0.0515814
0.0543715
0.0574364
0.0607883
0.0644426
0.0684132
0.0727085
0.0773283
0.0822639
0.0875055
0.093059
0.0989622
0.105299
0.112227
0.119985
0.128861
0.139144
0.152097
0.168064
0.185697
0.204807
0.225159
0.246528
0.268783
0.291821
0.315648
0.340144
0.365181
0.390689
0.416612
0.442899
0.469495
0.496347
0.523404
0.550614
0.577927
0.605296
0.632675
0.66002
0.687293
0.714454
0.741468
0.768303
0.79493
0.82132
0.847449
0.873293
0.898832
0.924051
0.948939
0.973463
0.99761
1.02137
1.04472
1.06765
1.09016
1.11222
1.13384
1.155
1.17569
1.19592
1.21567
1.23493
1.25371
1.27198
1.28976
1.30706
1.32389
1.34018
1.35599
1.37132
1.38613
1.40048
1.41433
1.42773
1.44066
1.45316
1.46524
1.47692
1.48821
1.49915
1.50977
1.5201
1.53017
1.54003
1.54974
1.55936
1.56895
1.57861
1.58843
1.59853
1.60902
1.62009
1.63195
1.6448
1.65892
1.67464
1.69234
1.71246
1.73545
1.76192
1.79263
1.8282
1.86945
1.91709
1.97174
2.03371
2.10287
2.17836
2.25847
2.34057
2.42134
2.49725
2.56514
2.62275
2.6689
2.70351
2.72729
2.74151
2.74797
2.74908
2.74815
2.74952
2.75403
2.75727
2.75606
2.74852
2.73339
2.71007
2.6783
2.63813
2.58989
2.53422
2.47204
2.40453
2.33304
2.259
2.18387
2.10898
2.03552
1.96446
1.89656
1.83233
1.77211
1.71589
1.66397
1.61542
1.57171
1.52914
1.49309
1.45633
1.41319
0.0333923
0.0333486
0.0333233
0.0333165
0.0333295
0.033364
0.0334218
0.0335051
0.0336166
0.0337593
0.0339367
0.0341531
0.0344136
0.0347241
0.0350918
0.0355249
0.0360333
0.0366283
0.0373231
0.0381326
0.0390737
0.0401646
0.0414251
0.0428759
0.0445373
0.0464294
0.0485704
0.0509762
0.0536606
0.056635
0.0599106
0.0634995
0.0674157
0.0716722
0.0762793
0.0812427
0.0865655
0.092256
0.0983426
0.104887
0.111996
0.119839
0.128645
0.138663
0.150121
0.164301
0.181443
0.200053
0.21996
0.241004
0.263062
0.286075
0.309991
0.334775
0.360286
0.386509
0.413395
0.440878
0.468888
0.497357
0.526214
0.555391
0.584825
0.614451
0.644212
0.674052
0.703918
0.733763
0.76354
0.793208
0.822727
0.852063
0.881183
0.910055
0.938652
0.966948
0.994918
1.02254
1.04979
1.07667
1.10314
1.1292
1.15484
1.18002
1.20475
1.229
1.25277
1.27604
1.29881
1.32106
1.3428
1.36399
1.38465
1.40477
1.42435
1.44338
1.46184
1.47973
1.49706
1.51382
1.53002
1.54565
1.56073
1.57526
1.58926
1.60274
1.61572
1.6282
1.64023
1.65181
1.66298
1.67377
1.68422
1.69438
1.70429
1.71401
1.72363
1.73323
1.7429
1.75274
1.76293
1.77361
1.78499
1.7973
1.81081
1.82586
1.8428
1.86205
1.88414
1.90969
1.93927
1.9736
2.01336
2.05914
2.11135
2.17005
2.23474
2.3042
2.37641
2.44867
2.51788
2.58107
2.63587
2.6808
2.71537
2.73989
2.75537
2.76336
2.76607
2.76637
2.76769
2.77073
2.77222
2.76942
2.76051
2.74432
2.7203
2.68822
2.6482
2.60063
2.5462
2.48588
2.42083
2.35239
2.28192
2.21076
2.14016
2.07117
2.00465
1.94124
1.88136
1.82527
1.77294
1.72455
1.67936
1.63843
1.59887
1.56494
1.53037
1.49027
0.0346749
0.0346177
0.0345827
0.0345666
0.0345717
0.0346004
0.0346552
0.0347386
0.0348538
0.0350041
0.0351937
0.0354274
0.0357107
0.0360503
0.0364538
0.0369301
0.0374898
0.0381449
0.038909
0.0397978
0.0408285
0.0420201
0.0433929
0.0449682
0.0467676
0.0488125
0.0511232
0.0537187
0.0566161
0.059831
0.0633781
0.0672719
0.071528
0.0761617
0.0811879
0.0866207
0.0924764
0.0987816
0.105585
0.112967
0.121049
0.129997
0.140012
0.151295
0.164014
0.179516
0.197985
0.217846
0.239008
0.261398
0.28497
0.30969
0.335514
0.362374
0.390166
0.418833
0.448291
0.478448
0.509216
0.540506
0.572238
0.604331
0.636712
0.669313
0.702068
0.734916
0.767802
0.800671
0.833475
0.866168
0.898707
0.931053
0.96317
0.995023
1.02658
1.05782
1.0887
1.11921
1.14932
1.17902
1.20829
1.23711
1.26546
1.29332
1.32067
1.3475
1.3738
1.39956
1.42475
1.44937
1.47342
1.49687
1.51973
1.54198
1.56362
1.58463
1.60501
1.62475
1.64385
1.66229
1.68009
1.69724
1.71375
1.72963
1.74487
1.7595
1.77353
1.78697
1.79985
1.81217
1.82398
1.83529
1.84614
1.85656
1.86661
1.87634
1.8858
1.89508
1.90425
1.91342
1.9227
1.93225
1.94222
1.95282
1.96428
1.97687
1.99092
2.00677
2.02487
2.04573
2.06986
2.09787
2.13035
2.16786
2.21082
2.25939
2.31333
2.3718
2.43332
2.49577
2.5566
2.61319
2.66327
2.70522
2.73825
2.76235
2.7782
2.78709
2.79091
2.79205
2.79315
2.79479
2.79466
2.79046
2.78046
2.76361
2.73941
2.70769
2.66859
2.62257
2.57033
2.51282
2.4512
2.3867
2.32059
2.25409
2.18829
2.12414
2.06237
2.00352
1.94792
1.89579
1.84708
1.80191
1.75969
1.72118
1.68419
1.65201
1.61935
1.58196
0.0364416
0.0363551
0.0363033
0.0362746
0.0362713
0.0362958
0.0363509
0.0364396
0.0365653
0.036732
0.0369442
0.0372073
0.0375276
0.0379121
0.0383692
0.0389087
0.0395417
0.0402808
0.0411406
0.0421372
0.0432887
0.0446149
0.0461368
0.0478768
0.0498581
0.0521037
0.0546367
0.0574791
0.0606518
0.0641747
0.0680667
0.0723465
0.0770334
0.0821472
0.0877089
0.0937413
0.100273
0.107344
0.115018
0.123383
0.13256
0.142699
0.153966
0.166523
0.180514
0.197417
0.217413
0.238899
0.261857
0.286265
0.312093
0.339289
0.367774
0.397448
0.428192
0.459909
0.492486
0.525812
0.559784
0.594306
0.629285
0.66464
0.700291
0.736166
0.772198
0.808323
0.84448
0.880614
0.916672
0.952604
0.988366
1.02391
1.05921
1.09421
1.12889
1.1632
1.19713
1.23065
1.26373
1.29635
1.32849
1.36013
1.39124
1.42182
1.45184
1.48128
1.51012
1.53836
1.56597
1.59294
1.61927
1.64494
1.66995
1.69428
1.71792
1.74086
1.76309
1.7846
1.80539
1.82544
1.84476
1.86334
1.8812
1.89832
1.91472
1.93042
1.94541
1.95972
1.97336
1.98634
1.9987
2.01046
2.02164
2.03228
2.04241
2.05209
2.06137
2.07031
2.07898
2.08747
2.09588
2.10433
2.11297
2.12197
2.13151
2.14184
2.15322
2.16595
2.1804
2.19699
2.21616
2.23842
2.26426
2.2942
2.32862
2.36773
2.41143
2.45921
2.50999
2.56219
2.61379
2.6626
2.70658
2.74415
2.77436
2.79693
2.81226
2.82134
2.82569
2.82722
2.82787
2.82817
2.82653
2.82106
2.81022
2.79307
2.76915
2.73832
2.70078
2.65697
2.6076
2.55359
2.49599
2.43594
2.37459
2.313
2.25215
2.19283
2.13567
2.08113
2.02949
1.98092
1.9354
1.89299
1.85326
1.81675
1.78184
1.75104
1.71997
1.68496
0.0387808
0.0386611
0.0385911
0.0385501
0.0385403
0.0385643
0.0386253
0.0387267
0.0388723
0.0390666
0.0393148
0.0396227
0.0399972
0.0404461
0.0409786
0.0416049
0.042337
0.0431884
0.0441743
0.045312
0.0466202
0.0481198
0.0498332
0.0517843
0.0539978
0.0564995
0.059315
0.0624698
0.065989
0.0698967
0.0742165
0.0789718
0.0841862
0.0898842
0.096092
0.102839
0.11016
0.118104
0.126735
0.136141
0.146435
0.15775
0.170235
0.184052
0.199377
0.217844
0.239712
0.263302
0.288616
0.315624
0.344262
0.374433
0.406016
0.438879
0.472884
0.507907
0.543821
0.580506
0.617855
0.655766
0.694148
0.732914
0.771988
0.811293
0.850762
0.890327
0.929925
0.969497
1.00899
1.04834
1.0875
1.12643
1.16509
1.20342
1.24139
1.27897
1.31611
1.3528
1.389
1.4247
1.45986
1.49446
1.52849
1.56192
1.59472
1.62688
1.65838
1.6892
1.71932
1.74874
1.77743
1.80539
1.83261
1.85908
1.88478
1.90969
1.93381
1.95713
1.97964
2.00133
2.02219
2.04222
2.06143
2.07981
2.09738
2.11413
2.13008
2.14525
2.15964
2.17328
2.18618
2.19837
2.20987
2.2207
2.23091
2.24054
2.24962
2.25822
2.2664
2.27422
2.28178
2.28918
2.29654
2.304
2.31173
2.31991
2.32879
2.3386
2.34966
2.3623
2.37691
2.39389
2.41368
2.43669
2.46328
2.49368
2.52789
2.56558
2.60603
2.64807
2.69017
2.73059
2.76761
2.79978
2.8261
2.84616
2.8601
2.86861
2.87285
2.87423
2.87416
2.87309
2.86999
2.86336
2.85186
2.83466
2.81135
2.78181
2.74625
2.7051
2.65902
2.60886
2.55556
2.50014
2.4436
2.38688
2.33078
2.27602
2.22312
2.17248
2.12434
2.07886
2.03602
1.9959
1.95817
1.92323
1.88993
1.86016
1.83035
1.79727
0.0417895
0.041642
0.0415584
0.0415103
0.0415005
0.0415321
0.0416087
0.0417342
0.041913
0.0421503
0.0424518
0.0428239
0.0432741
0.043811
0.0444444
0.0451852
0.0460464
0.0470422
0.0481889
0.0495048
0.0510099
0.0527264
0.0546785
0.0568917
0.0593934
0.0622116
0.0653752
0.0689132
0.0728543
0.0772266
0.0820575
0.0873741
0.0932026
0.0995699
0.106503
0.114033
0.122196
0.131037
0.140621
0.151035
0.16239
0.174828
0.188523
0.203687
0.22053
0.240849
0.265026
0.291182
0.319288
0.349266
0.381002
0.414359
0.449189
0.485341
0.52267
0.561042
0.600328
0.640411
0.681181
0.722542
0.764401
0.806674
0.849282
0.89215
0.935207
0.978382
1.02161
1.06482
1.10795
1.15095
1.19375
1.2363
1.27856
1.32047
1.362
1.40308
1.4437
1.48381
1.52339
1.56239
1.60081
1.63862
1.67578
1.71228
1.7481
1.78319
1.81755
1.85115
1.88398
1.91602
1.94725
1.97767
2.00726
2.03601
2.0639
2.09093
2.11707
2.14232
2.16666
2.19008
2.21258
2.23415
2.25479
2.2745
2.29329
2.31116
2.32812
2.34418
2.35937
2.37369
2.38715
2.39979
2.41162
2.42266
2.43295
2.44253
2.45142
2.45968
2.46736
2.47453
2.48125
2.4876
2.4937
2.49967
2.50562
2.51175
2.51821
2.52525
2.53309
2.54204
2.55238
2.56448
2.57868
2.59534
2.61477
2.63721
2.6627
2.69106
2.72181
2.75414
2.78691
2.8188
2.8484
2.87449
2.89613
2.91282
2.92452
2.93169
2.93511
2.93576
2.93464
2.93209
2.92749
2.91971
2.90763
2.8905
2.86796
2.8399
2.80652
2.7682
2.72555
2.6793
2.63029
2.57939
2.52746
2.47529
2.42359
2.37294
2.32382
2.27657
2.23142
2.18851
2.14786
2.10954
2.07335
2.03959
2.00747
1.97839
1.9495
1.91785
0.0455741
0.0454131
0.0453257
0.0452813
0.0452836
0.0453364
0.0454441
0.045611
0.0458424
0.0461437
0.0465213
0.0469823
0.0475347
0.0481877
0.0489519
0.0498391
0.0508629
0.0520389
0.0533843
0.0549187
0.0566638
0.0586434
0.0608837
0.0634126
0.0662595
0.0694554
0.0730317
0.0770202
0.0814521
0.0863576
0.0917656
0.0977031
0.104195
0.111267
0.118941
0.127244
0.136211
0.145888
0.156349
0.167695
0.180069
0.193657
0.208699
0.225421
0.244022
0.266548
0.293395
0.322407
0.353502
0.386553
0.421415
0.457932
0.495947
0.535313
0.575888
0.617542
0.660154
0.703612
0.747814
0.792663
0.838072
0.883956
0.930237
0.976837
1.02368
1.07069
1.1178
1.16492
1.21199
1.25894
1.3057
1.35221
1.39842
1.44426
1.48968
1.53464
1.57908
1.62297
1.66627
1.70894
1.75096
1.7923
1.83294
1.87284
1.91198
1.95032
1.98784
2.02452
2.06033
2.09526
2.1293
2.16243
2.19463
2.22589
2.2562
2.28554
2.3139
2.34126
2.36761
2.39293
2.41722
2.44047
2.46268
2.48384
2.50395
2.52304
2.54109
2.55813
2.57417
2.58922
2.60329
2.61642
2.6286
2.63988
2.65026
2.65979
2.6685
2.67642
2.6836
2.6901
2.69596
2.70127
2.70611
2.71058
2.71479
2.71888
2.72301
2.72734
2.7321
2.73752
2.74384
2.75136
2.76038
2.77119
2.78407
2.79923
2.81677
2.8366
2.85842
2.88167
2.90555
2.92907
2.95115
2.97079
2.98718
2.99979
3.00851
3.01356
3.01542
3.01472
3.0121
3.00786
3.00163
2.9926
2.97985
2.96274
2.94093
2.91433
2.88307
2.84751
2.80815
2.76561
2.72061
2.67388
2.62613
2.57805
2.53022
2.48316
2.43727
2.39287
2.35017
2.30931
2.27036
2.2334
2.19832
2.16536
2.13401
2.10531
2.07697
2.04619
0.0502456
0.0500903
0.0500129
0.0499897
0.0500243
0.0501211
0.0502845
0.0505192
0.0508307
0.0512251
0.0517089
0.0522898
0.0529764
0.0537785
0.0547074
0.0557759
0.0569984
0.0583918
0.0599746
0.061768
0.0637954