/*--------------------------------*- C++ -*----------------------------------*\
| =========                 |                                                 |
| \\      /  F ield         | OpenFOAM: The Open Source CFD Toolbox           |
|  \\    /   O peration     | Version:  2112                                  |
|   \\  /    A nd           | Website:  www.openfoam.com                      |
|    \\/     M anipulation  |                                                 |
\*---------------------------------------------------------------------------*/
FoamFile
{
    version     2.0;
    format      ascii;
    arch        "LSB;label=32;scalar=64";
    class       volScalarField;
    location    "0.17";
    object      k;
}
// * * * * * * * * * * * * * * * * * * * * * * * * * * * * * * * * * * * * * //

dimensions      [0 2 -2 0 0 0 0];

internalField   nonuniform List<scalar> 
12225
(
0.535034
0.804696
0.988841
1.09681
1.15179
1.17077
1.16759
1.15728
1.1374
1.11292
1.08938
1.06321
1.04177
1.01646
0.999365
0.975354
0.963473
0.938303
0.37839
0.38597
0.391213
0.394511
0.396563
0.398248
0.399326
0.40171
0.404239
0.408814
0.413309
0.421007
0.427125
0.438773
0.445642
0.460549
0.469288
0.483697
0.375173
0.374421
0.372408
0.36842
0.363724
0.358083
0.352457
0.346618
0.341158
0.336063
0.331479
0.327576
0.324212
0.321701
0.319597
0.318494
0.317714
0.317795
0.375056
0.374581
0.373494
0.371396
0.368926
0.36578
0.362577
0.358887
0.355397
0.351539
0.34813
0.344362
0.341273
0.337772
0.335131
0.332008
0.32987
0.327165
0.375065
0.374811
0.374217
0.373072
0.371708
0.369982
0.368183
0.366094
0.364058
0.361771
0.359672
0.357312
0.35528
0.352933
0.351066
0.348781
0.347153
0.344936
0.37507
0.374926
0.374563
0.373863
0.373016
0.371968
0.370849
0.369573
0.368285
0.366869
0.365507
0.364022
0.362658
0.361154
0.359852
0.35835
0.357172
0.355656
0.375059
0.374974
0.374735
0.374272
0.373701
0.37301
0.372257
0.371414
0.370543
0.369605
0.36867
0.367682
0.36673
0.365724
0.364791
0.363783
0.362914
0.361878
0.375038
0.374985
0.37482
0.374497
0.374092
0.373609
0.373076
0.372485
0.371866
0.371208
0.37054
0.369846
0.369158
0.36845
0.367766
0.367057
0.366404
0.365672
0.375014
0.374975
0.374855
0.374622
0.374326
0.373975
0.373584
0.373153
0.372698
0.372217
0.371724
0.371216
0.370705
0.370186
0.369673
0.369153
0.368654
0.368117
0.374992
0.37495
0.374856
0.374685
0.374465
0.374204
0.373911
0.373589
0.373246
0.372886
0.372513
0.37213
0.371742
0.371349
0.370957
0.370562
0.370174
0.369766
0.37497
0.374916
0.374836
0.374708
0.374542
0.374345
0.374123
0.373879
0.373617
0.373341
0.373055
0.372761
0.372461
0.372158
0.371852
0.371544
0.371238
0.37092
0.374953
0.374881
0.374805
0.374701
0.374571
0.374418
0.374244
0.374053
0.373847
0.37363
0.373403
0.373168
0.372928
0.372685
0.372438
0.372188
0.371938
0.37168
0.374938
0.374846
0.374767
0.374678
0.374574
0.374454
0.374319
0.374169
0.374007
0.373835
0.373655
0.373468
0.373275
0.373078
0.372877
0.372673
0.372467
0.372255
0.374924
0.374809
0.37472
0.374638
0.374553
0.37446
0.374357
0.374244
0.374121
0.37399
0.373851
0.373706
0.373555
0.373399
0.373239
0.373075
0.372908
0.372736
0.374913
0.374773
0.374668
0.374583
0.374507
0.374433
0.374355
0.374272
0.374182
0.374086
0.373982
0.373873
0.373758
0.373638
0.373513
0.373384
0.373251
0.373114
0.374905
0.374743
0.374618
0.374521
0.374444
0.374378
0.374315
0.374253
0.374188
0.374118
0.374044
0.373963
0.373878
0.373787
0.373691
0.373591
0.373486
0.373377
0.374899
0.374721
0.374577
0.374465
0.374378
0.374309
0.37425
0.374197
0.374146
0.374093
0.374037
0.373977
0.373912
0.373842
0.373767
0.373688
0.373605
0.373517
0.374896
0.374708
0.374551
0.374424
0.374325
0.374247
0.374183
0.374128
0.374077
0.374028
0.373977
0.373924
0.373868
0.373807
0.373743
0.373674
0.373602
0.373526
0.374896
0.374705
0.374544
0.374412
0.374304
0.374215
0.37414
0.374073
0.37401
0.373948
0.373886
0.373823
0.373756
0.373687
0.373615
0.373539
0.373462
0.373381
0.374898
0.374715
0.374561
0.374432
0.374321
0.374222
0.37413
0.374041
0.373952
0.373862
0.37377
0.373675
0.373578
0.373478
0.373375
0.373271
0.373165
0.373058
0.374904
0.374735
0.374591
0.374463
0.374343
0.374226
0.374108
0.373987
0.373862
0.373732
0.373599
0.373462
0.373323
0.37318
0.373036
0.372891
0.372745
0.3726
0.374914
0.374763
0.374625
0.374488
0.374345
0.374194
0.374033
0.373863
0.373685
0.373499
0.373308
0.373113
0.372914
0.372712
0.372509
0.372305
0.372102
0.371901
0.374929
0.374796
0.374653
0.374487
0.374299
0.374091
0.373864
0.373621
0.373366
0.373099
0.372825
0.372544
0.372259
0.371971
0.371682
0.371393
0.371105
0.370822
0.37495
0.374827
0.374656
0.374436
0.374171
0.373871
0.373541
0.373186
0.372811
0.37242
0.372016
0.371604
0.371185
0.370764
0.370341
0.369919
0.369498
0.369088
0.374972
0.374844
0.374617
0.374298
0.373899
0.373446
0.37294
0.372397
0.371818
0.371216
0.370593
0.36996
0.369315
0.36867
0.368019
0.367377
0.366731
0.366111
0.374988
0.374833
0.3745
0.373995
0.373338
0.372597
0.371752
0.370856
0.369887
0.368894
0.367855
0.366813
0.365744
0.36469
0.363619
0.362584
0.361526
0.360538
0.37501
0.374774
0.374223
0.373313
0.372084
0.37073
0.369136
0.367496
0.365681
0.363881
0.361963
0.360106
0.358171
0.356333
0.354438
0.352677
0.350848
0.349209
0.375129
0.374769
0.373789
0.371936
0.3694
0.3667
0.363451
0.360273
0.356714
0.353394
0.349841
0.346609
0.34327
0.340262
0.33727
0.334534
0.331954
0.329513
0.376923
0.379841
0.381432
0.381364
0.380882
0.379894
0.378231
0.376654
0.374957
0.373626
0.372517
0.371787
0.371601
0.371843
0.372194
0.373326
0.374805
0.375947
0.459539
0.609324
0.730002
0.821267
0.88708
0.932661
0.962752
0.981447
0.991698
0.996096
0.995478
0.993268
0.988668
0.982454
0.975446
0.96794
0.960203
0.952388
0.000436789
0.00214968
0.00301723
0.00356209
0.0039164
0.00419217
0.00450879
0.005084
0.00582141
0.00656035
0.00733602
0.00829858
0.00931796
0.0101218
0.0106487
0.0105846
0.010122
0.00943273
0.00873991
0.00775681
0.0062891
0.00422131
0.0018276
0.00114105
0.00151404
0.002117
0.00239872
0.00267358
0.00351045
0.00518475
0.00660456
0.00638018
0.00584561
0.00473911
0.00349826
0.00248093
0.00190931
0.00288434
0.0129345
0.0287352
0.041275
0.052156
0.0617638
0.070514
0.0785932
0.0861496
0.0933028
0.100117
0.106722
0.113145
0.119489
0.125783
0.132112
0.13851
0.145048
0.151773
0.158472
0.165255
0.17202
0.178877
0.185752
0.192703
0.199697
0.206754
0.213863
0.221024
0.228235
0.235488
0.242783
0.250109
0.257464
0.264839
0.272228
0.279623
0.287018
0.294406
0.301779
0.309131
0.316453
0.323739
0.330982
0.338174
0.345308
0.352376
0.359371
0.366286
0.373112
0.379841
0.386464
0.392974
0.399362
0.40562
0.411738
0.417711
0.423531
0.429194
0.4347
0.440052
0.445265
0.450366
0.45538
0.460237
0.464926
0.469468
0.473832
0.478037
0.482063
0.485919
0.489592
0.493088
0.496398
0.499526
0.502466
0.505219
0.507784
0.510162
0.512352
0.514355
0.516172
0.517806
0.519259
0.520534
0.521635
0.522567
0.523334
0.523943
0.5244
0.524714
0.52489
0.524927
0.524852
0.524645
0.524162
0.523513
0.522734
0.521855
0.520874
0.519778
0.518569
0.517255
0.515842
0.514331
0.512726
0.51103
0.509243
0.507369
0.505406
0.503335
0.501166
0.498912
0.496566
0.494117
0.491562
0.488895
0.486107
0.48319
0.480137
0.476939
0.473585
0.470066
0.46637
0.462487
0.458407
0.454113
0.449592
0.44483
0.439815
0.434531
0.428964
0.423098
0.416912
0.410395
0.403482
0.396469
0.39073
0.389368
0.387204
0.384827
0.380342
0.354421
0.00113715
0.00135496
0.00193653
0.00202557
0.00205046
0.00238794
0.00373463
0.0064465
0.0100794
0.0140416
0.0181406
0.0220946
0.0256225
0.0285271
0.0306062
0.0319916
0.032028
0.0313916
0.0296894
0.0263001
0.0214091
0.0156271
0.00913168
0.00500063
0.00283567
0.00202971
0.00162049
0.00237083
0.00558867
0.0134102
0.0205647
0.0201262
0.0169658
0.0136624
0.00587317
0.00653086
0.0129411
0.0224351
0.0364086
0.0528756
0.0676499
0.082743
0.0981241
0.113849
0.129925
0.146219
0.162778
0.178539
0.194091
0.209133
0.2239
0.238347
0.252602
0.266667
0.280618
0.294493
0.308356
0.322238
0.336184
0.350222
0.364377
0.37867
0.393114
0.40772
0.422494
0.437438
0.452553
0.467833
0.483275
0.498869
0.514607
0.530476
0.546464
0.562559
0.578746
0.595011
0.611339
0.627715
0.644125
0.660554
0.676988
0.693411
0.709809
0.726167
0.742471
0.758704
0.774852
0.790899
0.806828
0.822623
0.838265
0.853738
0.869021
0.884096
0.898943
0.913542
0.927872
0.941911
0.955637
0.969035
0.982057
0.994944
1.00754
1.0199
1.03199
1.04381
1.05534
1.06658
1.07751
1.08814
1.09845
1.10843
1.11808
1.12739
1.13635
1.14497
1.15324
1.16116
1.16872
1.17592
1.18278
1.18927
1.19542
1.20122
1.20669
1.21182
1.21664
1.22115
1.22539
1.22938
1.23318
1.23685
1.24031
1.24344
1.24632
1.24895
1.25133
1.25349
1.25542
1.25714
1.25865
1.25997
1.26111
1.26207
1.26286
1.26351
1.26395
1.26419
1.26429
1.26423
1.26401
1.26362
1.26306
1.26231
1.26136
1.26019
1.25879
1.25715
1.25524
1.25303
1.25052
1.24766
1.24444
1.24082
1.23676
1.23222
1.22717
1.22157
1.21537
1.20852
1.20097
1.19265
1.18343
1.17339
1.16219
1.15105
1.13676
1.12425
1.1051
1.05956
0.000645451
0.000510007
0.000755826
0.000825728
0.000970594
0.00164885
0.00340255
0.00701724
0.0115226
0.0165023
0.0216659
0.0265864
0.0309778
0.0345456
0.0371943
0.0388691
0.0396944
0.0395751
0.0389896
0.0376273
0.0350385
0.0310719
0.0256404
0.0187307
0.0118586
0.00672719
0.00422566
0.00414034
0.00702189
0.0186697
0.0287742
0.0279915
0.0201633
0.0175008
0.0172174
0.02758
0.0446751
0.0643525
0.0859078
0.110165
0.136093
0.163164
0.190208
0.216619
0.242083
0.266275
0.289111
0.311293
0.332758
0.353614
0.373975
0.393922
0.413548
0.43292
0.452139
0.471262
0.490354
0.509467
0.528644
0.547924
0.567335
0.586901
0.606641
0.626567
0.646686
0.667002
0.687516
0.708224
0.729119
0.750193
0.771433
0.792827
0.814359
0.836013
0.857773
0.87962
0.901535
0.923501
0.945498
0.967508
0.989513
1.01149
1.03343
1.05531
1.0771
1.0988
1.12039
1.14184
1.16314
1.18427
1.20521
1.22594
1.24646
1.26673
1.28674
1.30648
1.32594
1.34511
1.36398
1.38256
1.40082
1.41877
1.43638
1.45365
1.47056
1.48709
1.50324
1.51899
1.53433
1.54924
1.56372
1.57775
1.59134
1.60446
1.61712
1.6293
1.641
1.65222
1.66296
1.67321
1.68297
1.69225
1.70105
1.70937
1.71722
1.7246
1.73153
1.73803
1.74409
1.74974
1.755
1.75987
1.76434
1.7684
1.77207
1.77536
1.77829
1.78085
1.78307
1.78496
1.78652
1.78777
1.78871
1.78938
1.7897
1.78977
1.78957
1.78909
1.78833
1.78731
1.786
1.78442
1.78255
1.78037
1.77788
1.77505
1.77187
1.76832
1.76437
1.76
1.75518
1.74988
1.74406
1.73769
1.73073
1.72312
1.71484
1.70583
1.69605
1.68543
1.67392
1.66146
1.64794
1.63342
1.61762
1.60117
1.5823
1.56405
1.54126
1.49853
0.00010408
0.00013536
0.000275764
0.000671405
0.00198064
0.00512053
0.0109053
0.0175524
0.0243734
0.0310935
0.0373615
0.0428216
0.0471408
0.050129
0.0518213
0.0521975
0.0518541
0.0508472
0.0490399
0.0467187
0.0438386
0.0402105
0.0356969
0.0301693
0.0239564
0.0177008
0.0122151
0.012042
0.0216323
0.0445459
0.0461451
0.0339449
0.0299443
0.0342938
0.050729
0.0742063
0.0987265
0.126133
0.155592
0.186554
0.217501
0.24804
0.277806
0.306689
0.334652
0.361709
0.38796
0.413553
0.438537
0.463003
0.487028
0.510684
0.534058
0.557228
0.580263
0.603228
0.626179
0.649168
0.67224
0.695434
0.718782
0.742311
0.766041
0.789987
0.814161
0.838569
0.863212
0.888088
0.913192
0.938515
0.964044
0.989765
1.01566
1.04171
1.0679
1.0942
1.1206
1.14706
1.17357
1.2001
1.22663
1.25314
1.2796
1.306
1.33231
1.35851
1.38458
1.4105
1.43624
1.4618
1.48714
1.51225
1.53711
1.5617
1.58601
1.61001
1.6337
1.65706
1.68008
1.70274
1.72504
1.74694
1.76843
1.78949
1.81012
1.83028
1.84997
1.86917
1.88787
1.90605
1.92369
1.9408
1.95735
1.97333
1.98874
2.00357
2.01781
2.03146
2.04451
2.05697
2.06882
2.08007
2.09073
2.10079
2.11027
2.11916
2.12747
2.13522
2.14242
2.14906
2.15518
2.16076
2.16582
2.17037
2.17442
2.17797
2.18104
2.18365
2.18579
2.1875
2.18877
2.18962
2.19002
2.19006
2.18968
2.18893
2.18781
2.18631
2.18443
2.18218
2.17956
2.17655
2.17315
2.16934
2.16511
2.16045
2.15533
2.14974
2.14364
2.13702
2.12984
2.12207
2.11368
2.10462
2.09485
2.08434
2.07303
2.06088
2.04784
2.03385
2.01887
2.00284
1.98569
1.96744
1.94794
1.92754
1.90531
1.88314
1.858
1.81853
0.0001365
0.000145374
0.000722694
0.00265182
0.00710652
0.0152462
0.0242283
0.0332504
0.0419261
0.0495931
0.0556946
0.0600547
0.0628025
0.064211
0.0644183
0.0639753
0.0627698
0.0607728
0.0582015
0.0551542
0.0517015
0.0478241
0.0434496
0.038528
0.0331996
0.0279036
0.0237202
0.027504
0.0510037
0.0617222
0.053576
0.047981
0.0539355
0.0749277
0.10018
0.127281
0.157111
0.188739
0.221097
0.25346
0.285298
0.316599
0.34729
0.377368
0.406848
0.435765
0.46417
0.49212
0.519649
0.546802
0.573633
0.600202
0.626569
0.652792
0.678929
0.705033
0.731157
0.757349
0.783654
0.810109
0.836751
0.863607
0.890702
0.918055
0.945681
0.973587
1.00178
1.03026
1.05902
1.08805
1.11734
1.14688
1.17665
1.20662
1.23677
1.26708
1.29751
1.32805
1.35866
1.38931
1.41998
1.45064
1.48126
1.51181
1.54228
1.57263
1.60284
1.63289
1.66275
1.69241
1.72182
1.75099
1.77987
1.80846
1.83672
1.86465
1.89221
1.91939
1.94618
1.97254
1.99847
2.02394
2.04892
2.07341
2.09738
2.12081
2.14368
2.16598
2.18769
2.20879
2.22927
2.24911
2.2683
2.28682
2.30468
2.32185
2.33833
2.35411
2.36918
2.38356
2.39722
2.41017
2.42242
2.43396
2.4448
2.45494
2.46439
2.47316
2.48125
2.48868
2.49546
2.50159
2.50709
2.51196
2.51623
2.5199
2.52298
2.52549
2.52743
2.52883
2.52967
2.52997
2.52978
2.52908
2.5279
2.52624
2.5241
2.52149
2.51841
2.51486
2.51084
2.50634
2.50135
2.49586
2.48986
2.48333
2.47624
2.46859
2.46035
2.45148
2.44196
2.43176
2.42084
2.40916
2.39668
2.38336
2.36916
2.35402
2.33791
2.32077
2.30255
2.28322
2.26272
2.24108
2.21821
2.19436
2.16907
2.14362
2.11622
2.07795
0.000265846
0.000541239
0.00244771
0.00755467
0.0184262
0.0313354
0.043684
0.053968
0.0614856
0.0665669
0.0699693
0.0722289
0.0735992
0.0741242
0.073911
0.0730559
0.0713228
0.0688928
0.0658599
0.0623288
0.0584052
0.0541478
0.0496164
0.0446811
0.0394039
0.0347151
0.0342647
0.0488061
0.0685497
0.0727076
0.0697786
0.0742167
0.0936927
0.119379
0.147701
0.178126
0.210235
0.24292
0.275475
0.307651
0.339419
0.370833
0.401912
0.432677
0.46315
0.493356
0.52331
0.553021
0.582499
0.611772
0.640866
0.669816
0.698659
0.727437
0.756194
0.784974
0.813823
0.842786
0.871904
0.901218
0.930762
0.96057
0.990667
1.02108
1.05182
1.0829
1.11434
1.14613
1.17827
1.21075
1.24356
1.27669
1.31011
1.3438
1.37773
1.41187
1.44618
1.48064
1.5152
1.54984
1.58452
1.61921
1.65387
1.68848
1.723
1.7574
1.79166
1.82574
1.85963
1.89329
1.92669
1.95982
1.99263
2.02511
2.05724
2.08897
2.12029
2.15118
2.18161
2.21156
2.241
2.26991
2.29827
2.32606
2.35325
2.37983
2.40577
2.43105
2.45565
2.47955
2.50273
2.52519
2.5469
2.56784
2.58801
2.6074
2.62599
2.64377
2.66075
2.67691
2.69225
2.70677
2.72048
2.73337
2.74544
2.7567
2.76716
2.77682
2.7857
2.79379
2.80112
2.80769
2.81352
2.81862
2.82301
2.82669
2.82968
2.83199
2.83364
2.83461
2.83492
2.83463
2.83373
2.83223
2.83015
2.82749
2.82426
2.82046
2.81609
2.81117
2.80567
2.79961
2.79297
2.78574
2.7779
2.76944
2.76035
2.75059
2.74015
2.729
2.71711
2.70445
2.69097
2.67666
2.66146
2.64534
2.62825
2.61015
2.591
2.57075
2.54936
2.52681
2.50305
2.47812
2.45199
2.42485
2.39651
2.36793
2.33803
2.29929
0.000312152
0.00173635
0.00704359
0.02053
0.038759
0.053384
0.0629881
0.0690698
0.0732941
0.0765219
0.0790285
0.080836
0.0818928
0.0821346
0.0816931
0.080451
0.0783445
0.0755231
0.0720765
0.0681111
0.0637501
0.0590316
0.0539879
0.0486773
0.0434177
0.0405919
0.045712
0.064696
0.0799551
0.0851287
0.0896393
0.1058
0.131041
0.159593
0.190067
0.221878
0.254327
0.286692
0.318704
0.350396
0.381865
0.413191
0.444422
0.475597
0.506739
0.537853
0.568929
0.599964
0.630958
0.661912
0.692834
0.723738
0.754644
0.785578
0.816574
0.847667
0.878895
0.910301
0.941923
0.973802
1.00597
1.03847
1.07133
1.10458
1.13823
1.1723
1.2068
1.24175
1.27713
1.31294
1.34916
1.38579
1.42279
1.46014
1.49779
1.53572
1.57389
1.61225
1.65076
1.68938
1.72808
1.7668
1.80551
1.84418
1.88277
1.92124
1.95956
1.99771
2.03563
2.07331
2.11072
2.14782
2.18458
2.22096
2.25694
2.29249
2.32757
2.36216
2.39623
2.42975
2.4627
2.49504
2.52676
2.55784
2.58823
2.61793
2.64691
2.67513
2.70259
2.72925
2.7551
2.78012
2.80429
2.8276
2.85003
2.87156
2.89219
2.91191
2.9307
2.94857
2.96551
2.98151
2.99659
3.01073
3.02394
3.03623
3.0476
3.05805
3.06761
3.07627
3.08404
3.09096
3.09702
3.10224
3.10664
3.11023
3.11303
3.11505
3.11626
3.1167
3.11643
3.11543
3.11372
3.11131
3.10822
3.10446
3.10003
3.09494
3.0892
3.08279
3.07573
3.06801
3.05962
3.05055
3.04078
3.03031
3.01911
3.00715
2.99443
2.9809
2.96655
2.95134
2.93523
2.9182
2.9002
2.8812
2.86115
2.84002
2.81777
2.79436
2.76977
2.74395
2.71691
2.68867
2.65923
2.6288
2.59732
2.56554
2.53281
2.49288
0.00201504
0.00587866
0.0189399
0.0426657
0.0582506
0.0673206
0.0733693
0.0779723
0.0816355
0.0845197
0.0866691
0.0880777
0.0887191
0.0885922
0.0877683
0.0861018
0.0836519
0.0804482
0.0765658
0.0720972
0.0671171
0.0616709
0.0558983
0.050065
0.045968
0.0460137
0.0569274
0.0770226
0.0907648
0.0990244
0.112911
0.136018
0.164125
0.194239
0.225504
0.257369
0.289291
0.320922
0.352243
0.383379
0.414461
0.445583
0.476813
0.508196
0.539747
0.571459
0.603327
0.63534
0.667484
0.699748
0.732125
0.764616
0.797228
0.829976
0.862884
0.89598
0.929297
0.962874
0.996749
1.03096
1.06555
1.10056
1.13601
1.17194
1.20836
1.24531
1.28279
1.32081
1.35938
1.39848
1.4381
1.47821
1.5188
1.55983
1.60125
1.64301
1.68508
1.7274
1.76993
1.8126
1.85538
1.89821
1.94105
1.98386
2.02659
2.06921
2.11167
2.15394
2.19598
2.23775
2.27923
2.32036
2.36112
2.40146
2.44135
2.48076
2.51965
2.55798
2.59572
2.63285
2.66932
2.70513
2.74023
2.77459
2.8082
2.84102
2.87303
2.90419
2.93448
2.96388
2.99236
3.01991
3.0465
3.07213
3.09675
3.12038
3.14298
3.16456
3.18509
3.20459
3.22303
3.24043
3.25678
3.27207
3.28632
3.29953
3.3117
3.32283
3.33295
3.34206
3.35018
3.35731
3.36349
3.36871
3.373
3.37638
3.37886
3.38044
3.3811
3.38093
3.37991
3.37808
3.37543
3.37199
3.36777
3.36278
3.35703
3.35052
3.34326
3.33526
3.3265
3.31699
3.30672
3.29568
3.28385
3.27123
3.25778
3.2435
3.22836
3.21233
3.19538
3.17748
3.1586
3.13871
3.11778
3.09576
3.07262
3.04833
3.02286
2.99617
2.96824
2.93906
2.90862
2.87696
2.84414
2.81031
2.77552
2.74042
2.70453
2.66263
0.00950337
0.0154769
0.0388364
0.057829
0.068768
0.0760825
0.0814377
0.0855372
0.0887002
0.0910896
0.0927445
0.0936447
0.0937876
0.0932201
0.091877
0.089741
0.086808
0.0830567
0.078486
0.0732007
0.0674262
0.0614552
0.0554088
0.0501605
0.0482916
0.0529715
0.0689266
0.0878822
0.101646
0.115842
0.136646
0.1632
0.192488
0.222948
0.253982
0.285178
0.316215
0.346977
0.377543
0.408063
0.438674
0.469483
0.500566
0.531964
0.563688
0.595742
0.628119
0.660805
0.693781
0.727028
0.760532
0.794285
0.828287
0.862546
0.897077
0.931906
0.967061
1.00258
1.0385
1.07486
1.11171
1.14908
1.18701
1.22552
1.26466
1.30443
1.34486
1.38595
1.42771
1.47013
1.51318
1.55685
1.6011
1.64589
1.69116
1.73686
1.78294
1.82933
1.87598
1.92282
1.96979
2.01684
2.06391
2.11097
2.15795
2.20481
2.25151
2.298
2.34424
2.39019
2.43581
2.48105
2.52588
2.57024
2.61411
2.65742
2.70016
2.74227
2.78372
2.82448
2.86451
2.90379
2.94227
2.97993
3.01674
3.05267
3.08768
3.12174
3.15483
3.18692
3.21799
3.248
3.27695
3.30481
3.33155
3.35718
3.38166
3.405
3.42717
3.44818
3.46801
3.48668
3.50417
3.52049
3.53564
3.54963
3.56246
3.57414
3.58468
3.59409
3.6024
3.60961
3.61574
3.62082
3.62485
3.62786
3.62987
3.63084
3.63084
3.62987
3.62797
3.62514
3.6214
3.61677
3.61126
3.60488
3.59765
3.58957
3.58064
3.57087
3.56025
3.54879
3.53648
3.5233
3.50925
3.4943
3.47845
3.46167
3.44394
3.42522
3.4055
3.38474
3.36292
3.34
3.31595
3.29073
3.26433
3.2367
3.20783
3.17769
3.14626
3.11355
3.07957
3.04436
3.00798
2.97062
2.93235
2.89375
2.85444
2.81011
0.0157551
0.0254081
0.0514127
0.0674493
0.0769513
0.0833058
0.0879389
0.091482
0.0940798
0.0958475
0.0968315
0.0971087
0.0966927
0.0955696
0.0936281
0.0908292
0.0871918
0.0828146
0.0778179
0.0722757
0.0663077
0.0600295
0.053759
0.0507571
0.0517762
0.0623588
0.0805827
0.0984465
0.114845
0.1345
0.159085
0.186885
0.216165
0.246076
0.276228
0.306366
0.336334
0.366127
0.395856
0.425669
0.455703
0.486069
0.516841
0.548057
0.57974
0.611898
0.644528
0.677613
0.711135
0.745075
0.779416
0.814146
0.849261
0.884767
0.920674
0.957005
0.99379
1.03106
1.06887
1.10724
1.14623
1.18588
1.22622
1.2673
1.30913
1.35174
1.39516
1.43937
1.4844
1.53022
1.57682
1.62416
1.6722
1.72088
1.77015
1.81993
1.87016
1.92076
1.97166
2.0228
2.07409
2.12548
2.17691
2.22832
2.27966
2.33086
2.38189
2.4327
2.48323
2.53343
2.58327
2.63269
2.68164
2.73007
2.77793
2.82519
2.87179
2.91769
2.96285
3.00724
3.05081
3.09353
3.13537
3.17628
3.21624
3.25522
3.29317
3.33007
3.36587
3.40056
3.4341
3.46648
3.49766
3.52764
3.55638
3.58387
3.61009
3.63503
3.65869
3.68105
3.70212
3.72188
3.74035
3.75752
3.7734
3.78799
3.8013
3.81333
3.82411
3.83364
3.84195
3.84904
3.85495
3.85969
3.86327
3.86573
3.86705
3.86726
3.86638
3.86444
3.86145
3.85744
3.85242
3.84641
3.83943
3.83147
3.82257
3.81272
3.80193
3.7902
3.77753
3.76393
3.74938
3.73387
3.71739
3.69993
3.68147
3.66199
3.64146
3.61986
3.59716
3.57333
3.54836
3.5222
3.49483
3.46621
3.43633
3.40516
3.37268
3.33889
3.30378
3.26735
3.22964
3.1907
3.15061
3.10954
3.06761
3.02535
2.98238
2.93533
0.0189859
0.0343353
0.0607619
0.0748109
0.0830774
0.0886365
0.0925519
0.0952597
0.0970656
0.0981276
0.0985353
0.0983018
0.0973012
0.0954839
0.0929295
0.0896436
0.0856022
0.0808422
0.0755112
0.0696787
0.0634006
0.056925
0.0530421
0.0524234
0.0583467
0.0734439
0.0920679
0.110593
0.130373
0.153402
0.179396
0.207079
0.235535
0.264309
0.293179
0.322015
0.350766
0.379474
0.40825
0.437232
0.466553
0.496319
0.526598
0.557438
0.588871
0.620911
0.653557
0.686797
0.720618
0.755
0.789931
0.825399
0.861401
0.89794
0.935029
0.972687
1.01095
1.04984
1.08942
1.12973
1.17082
1.21273
1.2555
1.29917
1.34377
1.38931
1.43582
1.48329
1.53173
1.58112
1.63144
1.68263
1.73464
1.78741
1.84085
1.89489
1.94943
2.0044
2.05971
2.11528
2.17102
2.22686
2.28276
2.33862
2.39441
2.45004
2.50548
2.56066
2.61554
2.67005
2.72414
2.77776
2.83084
2.88334
2.9352
2.98636
3.03678
3.08643
3.13524
3.18319
3.23023
3.27631
3.3214
3.36546
3.40846
3.45036
3.49112
3.5307
3.56907
3.6062
3.64205
3.67661
3.70984
3.74174
3.77228
3.80143
3.82919
3.85553
3.88045
3.90395
3.92602
3.94666
3.96587
3.98367
4.00004
4.01499
4.02855
4.0407
4.05148
4.0609
4.06897
4.07572
4.08117
4.08534
4.08824
4.08991
4.09034
4.08956
4.08758
4.08443
4.08013
4.07472
4.0682
4.06059
4.05191
4.04217
4.03138
4.01955
4.00668
3.99277
3.97784
3.96187
3.94486
3.9268
3.90768
3.88748
3.86618
3.84377
3.82022
3.79551
3.76961
3.74249
3.71413
3.68451
3.6536
3.62136
3.58778
3.55284
3.51655
3.4789
3.43989
3.39956
3.35792
3.31507
3.27109
3.22615
3.18037
3.13431
3.08752
3.0376
0.0203399
0.0415284
0.0671471
0.0801298
0.0874503
0.0919995
0.094848
0.0967808
0.0980138
0.0984603
0.0981492
0.0970964
0.095373
0.0930097
0.0899203
0.0860833
0.0815738
0.0765435
0.0710146
0.0650622
0.0589377
0.0547616
0.0536357
0.0565958
0.068217
0.0855295
0.104711
0.12497
0.147132
0.171468
0.19736
0.224081
0.251179
0.278439
0.305763
0.333112
0.360494
0.38797
0.415645
0.443643
0.472091
0.501083
0.530677
0.560947
0.591935
0.623657
0.656118
0.689313
0.723232
0.757864
0.793199
0.829234
0.865967
0.903407
0.941561
0.98045
1.02011
1.06059
1.10192
1.14418
1.1874
1.23165
1.27696
1.32337
1.37089
1.41956
1.46937
1.52033
1.57242
1.62562
1.6799
1.73519
1.79142
1.84851
1.90635
1.96484
2.02389
2.0834
2.14327
2.20339
2.26369
2.32409
2.38452
2.44491
2.5052
2.5653
2.62517
2.68474
2.74395
2.80275
2.86107
2.91884
2.976
3.03247
3.08821
3.14316
3.19728
3.25053
3.30285
3.3542
3.40453
3.45379
3.50194
3.54895
3.59477
3.63937
3.68271
3.72473
3.76542
3.80472
3.84262
3.87909
3.9141
3.94764
3.97969
4.01021
4.03921
4.06665
4.09254
4.11688
4.13965
4.16087
4.18053
4.19864
4.21521
4.23023
4.24374
4.25572
4.26621
4.27522
4.28278
4.28891
4.29362
4.29695
4.2989
4.29951
4.2988
4.29675
4.29341
4.2888
4.28295
4.27589
4.26763
4.25818
4.24756
4.23579
4.22287
4.20882
4.19363
4.17732
4.15988
4.14132
4.12162
4.10077
4.07877
4.05559
4.03122
4.00564
3.97883
3.95077
3.92143
3.89078
3.85881
3.82549
3.79081
3.75473
3.71724
3.67832
3.63799
3.59627
3.55318
3.50874
3.46301
3.41607
3.36804
3.31908
3.26932
3.21933
3.16861
3.11582
0.0206984
0.0468724
0.0724185
0.0842585
0.0903207
0.0934489
0.0954483
0.0963553
0.0964362
0.0958474
0.0947036
0.0930057
0.0907165
0.0878037
0.0842812
0.0802264
0.0757378
0.07075
0.0653282
0.0598353
0.0560958
0.054966
0.0565366
0.0651072
0.0805887
0.0991834
0.119438
0.141065
0.164099
0.188274
0.21315
0.238379
0.263775
0.289269
0.314852
0.340548
0.366399
0.392478
0.418877
0.445693
0.473093
0.50119
0.530099
0.559795
0.590296
0.621623
0.65379
0.686805
0.720669
0.755384
0.790952
0.827379
0.864679
0.90288
0.942034
0.982183
1.02331
1.06543
1.10863
1.15297
1.1985
1.24529
1.29337
1.34278
1.39354
1.44565
1.49913
1.55393
1.61005
1.66743
1.72603
1.78577
1.84654
1.90824
1.97073
2.0339
2.09764
2.16183
2.22636
2.29112
2.35602
2.42099
2.48597
2.55087
2.61563
2.68015
2.74438
2.80824
2.87169
2.93465
2.99706
3.05882
3.11986
3.1801
3.23949
3.29799
3.35555
3.41213
3.46767
3.52213
3.57545
3.62758
3.67847
3.72808
3.77638
3.82333
3.86887
3.91297
3.95559
3.99669
4.03624
4.07423
4.11062
4.1454
4.17856
4.21006
4.23989
4.26804
4.2945
4.31928
4.34236
4.36377
4.38349
4.40155
4.41794
4.43267
4.44576
4.45722
4.46707
4.47533
4.48204
4.48721
4.49087
4.49304
4.49374
4.49301
4.49083
4.48722
4.48223
4.47589
4.46822
4.45923
4.44896
4.43741
4.4246
4.41054
4.39525
4.37873
4.36099
4.34203
4.32184
4.30043
4.2778
4.25393
4.22881
4.20242
4.17474
4.14575
4.11545
4.0838
4.05078
4.01637
3.98055
3.94331
3.90464
3.86452
3.82291
3.77982
3.73527
3.6893
3.64195
3.59326
3.54329
3.49213
3.43992
3.38684
3.33299
3.279
3.22398
3.16833
0.0204316
0.0515541
0.0767483
0.0871793
0.0916288
0.0933572
0.0935742
0.0929307
0.0919172
0.0906135
0.0889107
0.0867233
0.0840289
0.0808569
0.0772663
0.0733266
0.0689532
0.0642513
0.0596912
0.0569416
0.0561564
0.0573652
0.0639391
0.0779914
0.0955349
0.115193
0.136186
0.158139
0.180788
0.20387
0.227168
0.250562
0.274021
0.297571
0.321263
0.345164
0.369343
0.393874
0.418901
0.444677
0.471149
0.498357
0.526319
0.555147
0.584909
0.615645
0.647383
0.680145
0.713945
0.748797
0.784708
0.821695
0.859779
0.89898
0.939306
0.980785
1.02349
1.06745
1.11277
1.15951
1.20772
1.25746
1.30878
1.36169
1.41622
1.47234
1.53004
1.58927
1.64996
1.71204
1.77544
1.84004
1.9057
1.9723
2.03968
2.10771
2.17625
2.24516
2.31432
2.38366
2.45308
2.52254
2.59195
2.66123
2.73029
2.79904
2.8674
2.93531
3.00271
3.06955
3.13572
3.20115
3.26573
3.32933
3.39196
3.45357
3.51414
3.57361
3.63192
3.68902
3.74485
3.79934
3.85247
3.90417
3.95442
4.00318
4.05039
4.09602
4.14003
4.18238
4.22304
4.26199
4.29922
4.3347
4.36843
4.40037
4.43051
4.45884
4.48537
4.51008
4.53299
4.55409
4.5734
4.59093
4.60669
4.62068
4.63292
4.64343
4.65223
4.65935
4.66483
4.66866
4.6709
4.67156
4.67068
4.66825
4.66426
4.65879
4.65185
4.64348
4.63369
4.62251
4.60995
4.59604
4.58077
4.56418
4.54626
4.52703
4.50649
4.48464
4.46147
4.43699
4.4112
4.38407
4.35561
4.32577
4.29456
4.26196
4.22794
4.19249
4.15558
4.11721
4.0773
4.03595
3.99309
3.94872
3.90283
3.8554
3.80647
3.7561
3.70422
3.65084
3.59619
3.54038
3.48355
3.42592
3.36753
3.3092
3.25002
3.19196
0.0194923
0.0560947
0.080518
0.0893113
0.0917663
0.0913797
0.0895302
0.0876171
0.0858053
0.0838799
0.0816801
0.0791448
0.0762868
0.0731504
0.0697842
0.0661255
0.0623655
0.0591964
0.0577199
0.0574088
0.0590824
0.0652931
0.0782305
0.0948323
0.11359
0.133691
0.154542
0.175767
0.197141
0.218535
0.239887
0.261212
0.282575
0.304064
0.325778
0.347825
0.370311
0.393351
0.417051
0.44139
0.466536
0.492587
0.519632
0.547724
0.576913
0.607242
0.638748
0.671465
0.705421
0.740645
0.777161
0.815
0.8542
0.894802
0.936814
0.980259
1.02513
1.07158
1.11966
1.16945
1.22103
1.27449
1.32987
1.38714
1.44628
1.50726
1.57
1.63442
1.7004
1.7678
1.83648
1.90628
1.97709
2.04876
2.12114
2.19404
2.26731
2.34072
2.41425
2.48788
2.56156
2.63522
2.70875
2.78205
2.85503
2.92758
2.99962
3.07108
3.14191
3.21204
3.28139
3.34986
3.41733
3.48369
3.54897
3.6131
3.67606
3.73777
3.7982
3.85727
3.91492
3.97109
4.02574
4.07881
4.13029
4.18013
4.22828
4.27471
4.31937
4.36223
4.40328
4.44248
4.47982
4.5153
4.5489
4.58059
4.61037
4.63823
4.66417
4.68818
4.71029
4.73049
4.74881
4.76524
4.77981
4.79253
4.8034
4.81246
4.81972
4.82523
4.82901
4.83108
4.83148
4.83027
4.82737
4.82283
4.8167
4.80902
4.7998
4.78908
4.77686
4.76318
4.74804
4.73147
4.71348
4.69408
4.67328
4.65108
4.62749
4.60251
4.57611
4.54832
4.51914
4.48854
4.45651
4.42302
4.38805
4.3516
4.31365
4.27418
4.23316
4.1906
4.14637
4.10042
4.05286
4.00371
3.95297
3.90066
3.84682
3.79151
3.73492
3.67722
3.61831
3.55831
3.49733
3.43565
3.37318
3.31104
3.24722
3.18656
0.0182005
0.0603705
0.0836638
0.0905563
0.0911282
0.0880573
0.0845306
0.0815782
0.0789853
0.0764723
0.0739055
0.0712612
0.0685724
0.0658916
0.0632124
0.0608633
0.0595649
0.0591303
0.0595763
0.062607
0.069722
0.0826762
0.0987239
0.116433
0.135324
0.154825
0.174531
0.194183
0.213649
0.232903
0.252014
0.271092
0.290257
0.309649
0.329408
0.349668
0.370574
0.392067
0.41429
0.437399
0.461514
0.486732
0.513141
0.540811
0.569804
0.600162
0.631925
0.665149
0.699885
0.736179
0.774071
0.813587
0.85471
0.897415
0.941843
0.988096
1.0363
1.08652
1.13878
1.19311
1.24959
1.30824
1.369
1.43183
1.4967
1.56354
1.63227
1.70275
1.77478
1.84814
1.92258
1.9978
2.07382
2.15051
2.22766
2.30507
2.38254
2.45989
2.53727
2.61471
2.69222
2.76961
2.84674
2.92347
2.99971
3.07535
3.1503
3.2245
3.29788
3.3704
3.44198
3.51253
3.58195
3.65023
3.71727
3.783
3.84739
3.9104
3.97195
4.03198
4.09042
4.14723
4.20234
4.25572
4.30736
4.35722
4.40526
4.45144
4.49571
4.53806
4.57845
4.6169
4.65337
4.68788
4.72039
4.75091
4.77943
4.80592
4.83041
4.85289
4.87338
4.8919
4.90845
4.92306
4.93574
4.94649
4.95535
4.96232
4.96743
4.97073
4.9723
4.97205
4.97021
4.96648
4.96109
4.95404
4.94534
4.93504
4.92314
4.90968
4.89466
4.87812
4.86007
4.84051
4.81947
4.79695
4.77296
4.7475
4.72058
4.69219
4.6623
4.63083
4.59781
4.56328
4.5272
4.48957
4.45037
4.40958
4.36718
4.32315