/*--------------------------------*- C++ -*----------------------------------*\
| =========                 |                                                 |
| \\      /  F ield         | OpenFOAM: The Open Source CFD Toolbox           |
|  \\    /   O peration     | Version:  2112                                  |
|   \\  /    A nd           | Website:  www.openfoam.com                      |
|    \\/     M anipulation  |                                                 |
\*---------------------------------------------------------------------------*/
FoamFile
{
    version     2.0;
    format      ascii;
    arch        "LSB;label=32;scalar=64";
    class       volScalarField;
    location    "0.17";
    object      nut;
}
// * * * * * * * * * * * * * * * * * * * * * * * * * * * * * * * * * * * * * //

dimensions      [0 2 -1 0 0 0 0];

internalField   nonuniform List<scalar> 
12225
(
5.32132e-06
8.10065e-06
1.009e-05
1.13572e-05
1.2102e-05
1.24772e-05
1.26151e-05
1.26717e-05
1.26143e-05
1.24966e-05
1.23753e-05
1.22162e-05
1.20932e-05
1.19239e-05
1.18239e-05
1.16551e-05
1.15853e-05
1.14031e-05
0.0001461
6.39901e-05
4.56878e-05
3.7816e-05
3.36701e-05
3.12613e-05
2.98061e-05
2.89732e-05
2.84718e-05
2.83477e-05
2.83311e-05
2.86433e-05
2.89116e-05
2.95744e-05
2.99816e-05
3.08746e-05
3.14703e-05
3.19547e-05
0.0010619
0.000404908
0.000258628
0.000192241
0.000156216
0.000132102
0.000116566
0.000104493
9.62007e-05
8.90835e-05
8.42091e-05
7.96221e-05
7.66792e-05
7.35987e-05
7.18919e-05
6.96796e-05
6.8765e-05
6.72774e-05
0.003129
0.00137435
0.000889514
0.000657336
0.000530587
0.000442744
0.00038683
0.000341097
0.000310851
0.000282703
0.000264495
0.000245292
0.000233658
0.000219685
0.000212013
0.000201281
0.000196715
0.000186862
0.00425229
0.0029413
0.00200149
0.0015119
0.00123302
0.0010362
0.00090763
0.000802083
0.000730454
0.000664443
0.000620262
0.000574723
0.000545845
0.000512207
0.000492741
0.000466817
0.000454344
0.000429852
0.00479166
0.00476225
0.00345129
0.00269673
0.00223798
0.00190855
0.00168324
0.00150021
0.00136936
0.00125291
0.00116945
0.00108837
0.00103229
0.000971739
0.00093342
0.000885575
0.000860254
0.000816669
0.00554979
0.00646991
0.0050003
0.00406356
0.00344841
0.00299474
0.00266822
0.00240416
0.00220528
0.0020332
0.00190165
0.00178038
0.0016891
0.00159788
0.00153382
0.00146037
0.00141776
0.00135116
0.00668038
0.00768568
0.00641561
0.00543667
0.00473392
0.00419444
0.00378542
0.00345201
0.00318931
0.00296479
0.0027843
0.00262319
0.00249375
0.00237167
0.00227752
0.00217902
0.00211359
0.00202427
0.00824059
0.00858703
0.00754916
0.00666554
0.00596434
0.00539641
0.00494228
0.00456445
0.00425479
0.0039894
0.00376788
0.00357256
0.0034084
0.00325855
0.00313487
0.00301396
0.00292382
0.00281403
0.00941488
0.00903915
0.00836052
0.00765772
0.00703712
0.00650076
0.00604725
0.0056581
0.00532717
0.00503948
0.00479199
0.00457325
0.00438359
0.00421248
0.00406489
0.00392607
0.00381377
0.00368762
0.00944297
0.00926649
0.00888288
0.00838512
0.00789343
0.00743577
0.00702506
0.00665856
0.00633501
0.00604739
0.0057931
0.00556565
0.00536363
0.005181
0.00501883
0.00486877
0.00474055
0.00460392
0.00945501
0.00936821
0.00915888
0.00882863
0.00846496
0.00810071
0.00775464
0.00743286
0.00713852
0.00687012
0.00662688
0.00640572
0.00620544
0.00602269
0.00585724
0.0057044
0.00556932
0.00542954
0.00946096
0.00942051
0.00931605
0.00911928
0.0088732
0.00860629
0.00833659
0.00807392
0.0078242
0.00758961
0.00737131
0.00716879
0.0069817
0.00680865
0.00664924
0.00650118
0.00636687
0.00623028
0.00946396
0.00944751
0.00940267
0.00930787
0.00916558
0.00899605
0.00881153
0.00862108
0.00843118
0.0082458
0.00806753
0.00789762
0.00773682
0.00758517
0.00744273
0.00730878
0.00718435
0.00705895
0.00946565
0.00945919
0.00944308
0.00940718
0.00934094
0.00925193
0.00914589
0.00902832
0.00890396
0.00877651
0.00864876
0.00852267
0.00839964
0.00828054
0.00816597
0.00805616
0.00795165
0.0078464
0.00946628
0.00946384
0.0094585
0.00944743
0.00942529
0.00938858
0.00933997
0.0092812
0.00921438
0.00914159
0.00906471
0.00898534
0.00890477
0.00882404
0.00874395
0.0086651
0.00858797
0.00850968
0.0094662
0.00946543
0.00946391
0.00946045
0.00945474
0.00944443
0.00942745
0.00940464
0.00937623
0.00934278
0.009305
0.00926363
0.00921941
0.00917304
0.00912512
0.0090762
0.0090267
0.00897564
0.00946613
0.00946552
0.00946498
0.0094641
0.00946182
0.00945865
0.00945349
0.00944496
0.00943297
0.00941761
0.00939896
0.00937723
0.0093527
0.0093257
0.00929661
0.00926577
0.00923352
0.00919984
0.00946614
0.00946532
0.00946431
0.00946186
0.00945796
0.00945189
0.00944209
0.00942816
0.00941035
0.00938879
0.00936375
0.0093356
0.00930476
0.00927165
0.0092367
0.0092003
0.00916285
0.0091253
0.00946619
0.00946334
0.00945736
0.00944598
0.00942481
0.00939127
0.00934763
0.00929519
0.00923561
0.00917056
0.00910158
0.00903002
0.008957
0.00888346
0.00881011
0.00873754
0.0086662
0.008598
0.00946484
0.0094549
0.00943058
0.00938011
0.00929853
0.00919524
0.00907628
0.00894737
0.00881313
0.00867716
0.00854204
0.00840961
0.00828106
0.00815718
0.00803839
0.00792496
0.00781672
0.00771662
0.00946031
0.00941957
0.00932211
0.00914672
0.00892964
0.00869176
0.00844769
0.00820712
0.00797549
0.0077559
0.00754954
0.00735679
0.00717726
0.00701046
0.00685545
0.00671171
0.00657741
0.00645692
0.00944205
0.00928503
0.00896169
0.0085424
0.00811076
0.00769891
0.00731873
0.00697464
0.00666494
0.00638757
0.00613857
0.00591521
0.00571383
0.00553236
0.00536755
0.00521873
0.00508115
0.00496164
0.00936865
0.00884968
0.00807463
0.007341
0.00670205
0.0061644
0.00571098
0.00532987
0.00500474
0.00472732
0.00448659
0.00427808
0.00409415
0.00393305
0.00378843
0.00366164
0.00354391
0.00344562
0.0090904
0.00771479
0.0064471
0.00551031
0.0048107
0.00428405
0.00387016
0.00354371
0.00327505
0.00305571
0.00286873
0.00271251
0.0025754
0.0024595
0.00235455
0.00226645
0.00218241
0.00211588
0.00811785
0.0056197
0.00421063
0.00338014
0.00283209
0.00245532
0.00217227
0.00196117
0.00178981
0.0016563
0.00154185
0.0014507
0.00136889
0.0013035
0.00124186
0.00119355
0.00114481
0.00110887
0.00568886
0.00297913
0.00201622
0.00154484
0.00125832
0.00107349
0.000937431
0.000840663
0.000761567
0.000703002
0.000651314
0.000612646
0.000576153
0.000549159
0.000521886
0.000502358
0.00048103
0.000466607
0.00224776
0.000930466
0.000602497
0.000455345
0.000369064
0.000314851
0.00027538
0.000247959
0.000225489
0.000209326
0.00019483
0.000184412
0.000174283
0.000167167
0.000159701
0.000154651
0.000148934
0.000145256
0.000325467
0.000142514
9.90147e-05
7.90394e-05
6.76323e-05
6.04394e-05
5.54621e-05
5.2e-05
4.94022e-05
4.75276e-05
4.60574e-05
4.50123e-05
4.41606e-05
4.36312e-05
4.31146e-05
4.29301e-05
4.26809e-05
4.26661e-05
6.00632e-06
8.01633e-06
9.67432e-06
1.09722e-05
1.1948e-05
1.26605e-05
1.31679e-05
1.35221e-05
1.37603e-05
1.39158e-05
1.39987e-05
1.40557e-05
1.40756e-05
1.40682e-05
1.4046e-05
1.40118e-05
1.39715e-05
1.39245e-05
3.80854e-08
8.46066e-07
1.18156e-06
1.3901e-06
1.52449e-06
1.62828e-06
1.74711e-06
1.96294e-06
2.23793e-06
2.51113e-06
2.79552e-06
3.14561e-06
3.51263e-06
3.79854e-06
3.98326e-06
3.95677e-06
3.788e-06
3.53755e-06
3.28475e-06
2.92535e-06
2.38535e-06
1.61481e-06
7.06374e-07
4.42062e-07
5.84938e-07
8.14689e-07
9.20906e-07
1.02403e-06
1.33794e-06
1.95881e-06
2.47646e-06
2.39213e-06
2.1946e-06
1.78622e-06
1.32465e-06
9.42819e-07
7.26718e-07
1.09163e-06
4.67709e-06
9.74762e-06
1.33753e-05
1.62911e-05
1.87118e-05
2.08054e-05
2.26538e-05
2.39498e-05
2.45833e-05
2.51585e-05
2.57068e-05
2.62331e-05
2.67601e-05
2.72894e-05
2.78356e-05
2.84007e-05
2.89942e-05
2.96204e-05
3.02331e-05
3.08529e-05
3.14584e-05
3.20701e-05
3.26729e-05
3.32774e-05
3.38772e-05
3.44759e-05
3.5072e-05
3.56657e-05
3.62573e-05
3.68462e-05
3.7433e-05
3.80171e-05
3.8599e-05
3.91783e-05
3.97553e-05
4.03298e-05
4.0902e-05
4.14718e-05
4.20393e-05
4.26044e-05
4.31673e-05
4.37279e-05
4.42863e-05
4.48423e-05
4.5396e-05
4.59474e-05
4.64963e-05
4.70428e-05
4.75866e-05
4.81278e-05
4.86662e-05
4.92017e-05
4.97341e-05
5.02632e-05
5.07891e-05
5.13116e-05
5.1831e-05
5.23475e-05
5.2862e-05
5.33757e-05
5.38902e-05
5.44106e-05
5.49418e-05
5.54746e-05
5.60085e-05
5.65468e-05
5.70867e-05
5.76314e-05
5.81792e-05
5.8732e-05
5.92891e-05
5.98518e-05
6.04198e-05
6.09943e-05
6.15753e-05
6.21637e-05
6.276e-05
6.33648e-05
6.3979e-05
6.46032e-05
6.52384e-05
6.58854e-05
6.65452e-05
6.72191e-05
6.79082e-05
6.8614e-05
6.93379e-05
7.00818e-05
7.08475e-05
7.16372e-05
7.24536e-05
7.32982e-05
7.41726e-05
7.45075e-05
7.43488e-05
7.41759e-05
7.39912e-05
7.37975e-05
7.35942e-05
7.33802e-05
7.31558e-05
7.29219e-05
7.26787e-05
7.24265e-05
7.21655e-05
7.18959e-05
7.16179e-05
7.13317e-05
7.1037e-05
7.07323e-05
7.04186e-05
7.00969e-05
6.97664e-05
6.94263e-05
6.90762e-05
6.87158e-05
6.8344e-05
6.79603e-05
6.75638e-05
6.71539e-05
6.67296e-05
6.62899e-05
6.58337e-05
6.536e-05
6.48677e-05
6.43554e-05
6.38216e-05
6.32648e-05
6.26838e-05
6.20767e-05
6.14421e-05
6.0778e-05
6.00822e-05
5.93528e-05
5.85834e-05
5.77985e-05
5.71157e-05
5.68437e-05
5.65013e-05
5.61391e-05
5.55787e-05
5.2983e-05
9.90781e-08
6.26963e-07
1.36978e-06
1.67725e-06
2.18119e-06
3.09563e-06
4.35158e-06
6.85977e-06
1.01864e-05
1.27729e-05
1.5933e-05
1.98054e-05
2.44791e-05
2.98641e-05
3.55844e-05
3.8968e-05
3.89186e-05
3.66331e-05
3.14497e-05
2.39643e-05
1.66585e-05
1.05641e-05
5.61001e-06
2.98714e-06
1.73781e-06
1.38505e-06
1.54031e-06
3.31519e-06
8.20154e-06
1.85098e-05
2.68175e-05
2.60619e-05
2.18291e-05
1.5437e-05
4.31496e-06
3.49526e-06
6.24392e-06
1.04962e-05
1.68317e-05
2.44035e-05
3.19678e-05
3.99857e-05
4.89316e-05
5.8548e-05
6.88906e-05
7.95477e-05
9.05226e-05
0.000101007
0.000111291
0.000121095
0.000130529
0.000139467
0.000148079
0.000156427
0.000164454
0.000172158
0.000179712
0.000187067
0.000194331
0.000201488
0.000208599
0.000215667
0.000222723
0.000229776
0.00023684
0.000243924
0.000251032
0.000258168
0.000265333
0.000272525
0.000279742
0.00028698
0.000294234
0.000301498
0.000308765
0.000316029
0.000323283
0.000330521
0.000337735
0.00034492
0.000352069
0.000359177
0.000366237
0.000373244
0.000380194
0.000387079
0.000393895
0.000400635
0.000407293
0.000413862
0.000420332
0.000426695
0.000432938
0.000439049
0.000445011
0.0004508
0.000456389
0.000461733
0.00046678
0.000471465
0.000475617
0.000479887
0.000483934
0.000487922
0.000491766
0.000495504
0.000499115
0.000502604
0.000505966
0.000509201
0.000512305
0.000515278
0.000518118
0.000520823
0.000523392
0.000525825
0.00052812
0.000530277
0.000532297
0.000534179
0.000535924
0.000537532
0.000539005
0.000540345
0.000541554
0.000542637
0.000543599
0.00054445
0.000545205
0.000545894
0.000546566
0.000547321
0.000548088
0.000548727
0.000549289
0.000549766
0.000550164
0.000550491
0.000550751
0.000550952
0.000551096
0.00055119
0.000551238
0.000551248
0.000551215
0.000551164
0.000551066
0.000550926
0.000550775
0.000550607
0.000550409
0.000550193
0.00054996
0.000549706
0.000549426
0.000549114
0.000548771
0.000548391
0.000547969
0.000547496
0.000546966
0.000546364
0.000545694
0.000544945
0.000544097
0.000543134
0.000542041
0.000540801
0.000539394
0.000537799
0.000535986
0.000533922
0.00053152
0.000528621
0.000524552
0.000519616
0.000513369
0.00050727
0.000498335
0.000474237
5.62669e-08
1.65724e-07
5.16223e-07
8.21354e-07
1.13579e-06
1.83265e-06
3.31597e-06
6.84554e-06
1.16317e-05
1.80385e-05
2.61597e-05
3.50811e-05
4.48957e-05
5.38027e-05
6.15037e-05
6.70329e-05
7.04176e-05
7.00076e-05
6.7562e-05
6.18711e-05
5.20893e-05
4.03942e-05
2.90748e-05
1.90579e-05
1.11174e-05
6.36052e-06
4.25281e-06
4.78658e-06
9.09879e-06
2.38198e-05
3.3352e-05
2.87849e-05
1.79719e-05
1.34076e-05
1.169e-05
1.78121e-05
2.87955e-05
4.24767e-05
5.793e-05
7.70986e-05
9.96862e-05
0.000125166
0.000152471
0.000179808
0.00020684
0.000232458
0.000256602
0.000279533
0.000301253
0.000321706
0.00034106
0.000359576
0.000377511
0.000394509
0.000411006
0.000427013
0.000442691
0.000458079
0.000473283
0.000488341
0.000503319
0.000518248
0.000533168
0.000548099
0.000563063
0.000578071
0.00059313
0.000608244
0.00062341
0.000638624
0.000653878
0.000669161
0.000684462
0.000699769
0.000715066
0.000730341
0.000745579
0.000760766
0.000775888
0.000790932
0.000805885
0.000820736
0.000835472
0.000850081
0.000864552
0.000878873
0.000893031
0.000907014
0.000920807
0.000934396
0.000947764
0.000960892
0.000973762
0.000986351
0.000998635
0.00101059
0.00102218
0.00103338
0.00104417
0.00105456
0.00106461
0.00107452
0.00108411
0.00109349
0.00110258
0.00111142
0.00111998
0.00112826
0.00113626
0.00114396
0.00115138
0.0011585
0.00116531
0.00117182
0.00117803
0.00118392
0.00118951
0.00119478
0.00119974
0.00120439
0.00120873
0.00121276
0.00121649
0.00121992
0.00122306
0.00122591
0.00122849
0.00123081
0.0012329
0.0012348
0.00123653
0.00123813
0.00123954
0.00124071
0.00124168
0.00124245
0.00124302
0.00124342
0.00124365
0.00124372
0.00124365
0.00124345
0.00124312
0.00124269
0.00124212
0.00124148
0.00124075
0.00123994
0.00123907
0.00123813
0.00123712
0.00123605
0.0012349
0.0012337
0.00123243
0.00123107
0.00122961
0.00122805
0.00122638
0.00122458
0.00122263
0.00122052
0.00121822
0.00121572
0.00121297
0.00120996
0.00120664
0.00120297
0.00119893
0.00119445
0.00118949
0.00118396
0.00117772
0.00117047
0.00116153
0.00115114
0.0011389
0.00112546
0.00110721
0.00106412
9.07841e-09
4.85785e-08
2.05812e-07
5.70782e-07
1.50872e-06
3.90491e-06
8.76236e-06
1.59545e-05
2.59552e-05
3.93957e-05
5.59175e-05
7.36875e-05
9.08189e-05
0.000105468
0.000116165
0.000121865
0.000123636
0.000120939
0.00011498
0.000105942
9.32915e-05
7.75547e-05
6.06922e-05
4.53287e-05
3.2017e-05
2.19368e-05
1.45987e-05
1.43942e-05
2.47439e-05
4.16269e-05
3.64679e-05
2.90055e-05
2.51835e-05
2.76063e-05
4.03364e-05
6.16755e-05
8.34788e-05
0.000110764
0.000141738
0.000178467
0.000217619
0.000257993
0.000298127
0.000337056
0.000374538
0.0004101
0.000443896
0.00047596
0.000506236
0.000535138
0.000563025
0.000589678
0.000615349
0.000640165
0.000664349
0.000687998
0.000711246
0.000734182
0.000756901
0.000779472
0.000801959
0.000824411
0.000846868
0.00086936
0.000891908
0.000914526
0.00093722
0.000959991
0.000982834
0.00100574
0.00102869
0.00105167
0.00107467
0.00109766
0.00112062
0.00114353
0.00116636
0.0011891
0.00121172
0.0012342
0.00125653
0.00127869
0.00130065
0.0013224
0.00134392
0.0013652
0.00138621
0.00140695
0.00142738
0.0014475
0.00146728
0.0014867
0.00150574
0.00152438
0.00154261
0.00156039
0.00157773
0.00159461
0.00161103
0.00162703
0.00164264
0.0016579
0.00167275
0.00168722
0.00170127
0.00171492
0.00172813
0.00174092
0.00175327
0.00176518
0.00177664
0.00178763
0.00179817
0.00180824
0.00181784
0.00182697
0.00183563
0.00184381
0.00185151
0.00185874
0.00186549
0.00187178
0.00187761
0.00188297
0.00188789
0.00189238
0.00189644
0.0019001
0.00190338
0.00190631
0.00190891
0.00191118
0.00191311
0.00191468
0.00191591
0.00191682
0.00191741
0.00191772
0.00191774
0.00191749
0.001917
0.00191628
0.0019153
0.00191414
0.00191278
0.00191125
0.00190956
0.00190771
0.0019057
0.00190355
0.00190127
0.00189884
0.00189626
0.00189354
0.00189065
0.00188759
0.00188434
0.0018809
0.00187723
0.00187333
0.00186917
0.00186471
0.00185994
0.00185481
0.00184929
0.00184333
0.00183689
0.00182992
0.00182237
0.00181417
0.00180526
0.00179553
0.00178482
0.00177284
0.00175911
0.00174371
0.0017263
0.00170668
0.00168159
0.00163138
1.19059e-08
6.62659e-08
4.2663e-07
1.48332e-06
4.26503e-06
1.08175e-05
2.14849e-05
3.88454e-05
6.39376e-05
9.36383e-05
0.000121734
0.00014572
0.000164062
0.000176545
0.000183236
0.000185705
0.000183088
0.000176254
0.000165983
0.000152092
0.00013519
0.000115426
9.37584e-05
7.31289e-05
5.4969e-05
4.09613e-05
3.14698e-05
3.21859e-05
5.11421e-05
5.29044e-05
4.77364e-05
4.30359e-05
4.98444e-05
7.18078e-05
9.95808e-05
0.000130418
0.000165969
0.000207823
0.000253712
0.000303165
0.000352727
0.000402039
0.000450084
0.000496456
0.000540988
0.000583555
0.000624089
0.000662831
0.000700201
0.000736136
0.000770678
0.000804042
0.000836413
0.00086795
0.000898816
0.000929134
0.00095903
0.000988605
0.00101795
0.00104715
0.00107628
0.00110537
0.00113448
0.00116364
0.00119286
0.00122217
0.00125157
0.00128106
0.00131062
0.00134024
0.00136991
0.0013996
0.00142929
0.00145894
0.00148852
0.00151802
0.00154739
0.00157662
0.00160566
0.00163451
0.00166312
0.00169148
0.00171956
0.00174735
0.00177481
0.00180194
0.00182871
0.0018551
0.00188109
0.00190666
0.0019318
0.00195648
0.00198068
0.00200439
0.0020276
0.00205029
0.00207246
0.00209412
0.00211526
0.0021359
0.00215605
0.00217571
0.00219485
0.00221347
0.00223156
0.00224911
0.00226611
0.00228256
0.00229844
0.00231374
0.00232847
0.00234261
0.00235616
0.00236912
0.00238147
0.00239322
0.00240437
0.00241491
0.00242485
0.00243418
0.00244291
0.00245104
0.00245859
0.00246555
0.00247193
0.00247776
0.00248303
0.00248778
0.00249202
0.00249577
0.00249904
0.00250184
0.00250416
0.00250601
0.00250741
0.00250837
0.0025089
0.00250902
0.00250876
0.00250811
0.00250708
0.00250569
0.002504
0.002502
0.0024997
0.00249712
0.00249427
0.00249115
0.00248777
0.00248416
0.00248029
0.00247618
0.0024718
0.00246716
0.00246225
0.00245704
0.00245153
0.0024457
0.00243953
0.00243299
0.00242605
0.00241869
0.00241087
0.00240255
0.00239368
0.00238423
0.00237414
0.00236336
0.00235184
0.00233952
0.00232632
0.00231215
0.00229687
0.00228024
0.00226196
0.00224202
0.00222017
0.002196
0.00216636
0.00211593
2.31845e-08
1.90116e-07
9.37446e-07
3.64272e-06
1.2034e-05
2.98424e-05
6.04654e-05
9.74912e-05
0.00013406
0.000165486
0.00019058
0.00020966
0.00022336
0.000232017
0.000236165
0.000236226
0.00023089
0.00022177
0.000208691
0.000191423
0.000170692
0.000146825
0.00012117
8.88241e-05
6.47911e-05
5.24311e-05
4.53883e-05
5.44144e-05
6.7065e-05
6.80786e-05
6.66028e-05
7.73042e-05
0.000103328
0.000136001
0.000174114
0.000216758
0.00026522
0.000318703
0.000374458
0.000431071
0.00048685
0.000541586
0.000594737
0.000646117
0.000695572
0.000742975
0.000788779
0.000833223
0.000875955
0.00091727
0.000957296
0.000996204
0.00103415
0.00107129
0.00110776
0.00114368
0.00117918
0.00121435
0.00124929
0.00128409
0.0013188
0.00135348
0.00138818
0.00142294
0.00145776
0.00149266
0.00152765
0.00156272
0.00159786
0.00163306
0.00166827
0.00170349
0.00173866
0.00177377
0.00180877
0.00184363
0.00187832
0.00191278
0.00194701
0.00198095
0.00201459
0.0020479
0.00208085
0.00211342
0.00214558
0.00217731
0.0022086
0.00223942
0.00226975
0.00229958
0.00232889
0.00235766
0.00238587
0.00241351
0.00244058
0.00246706
0.00249295
0.00251827
0.00254299
0.00256713
0.00259067
0.00261361
0.00263594
0.00265765
0.00267874
0.00269918
0.00271899
0.00273813
0.00275662
0.00277444
0.00279159
0.00280806
0.00282384
0.00283894
0.00285334
0.00286705
0.00288006
0.00289237
0.00290399
0.00291491
0.00292514
0.00293469
0.00294355
0.00295174
0.00295926
0.00296613
0.00297236
0.00297795
0.00298294
0.00298732
0.00299112
0.00299434
0.00299697
0.00299904
0.00300055
0.00300152
0.00300197
0.0030019
0.00300133
0.00300025
0.00299868
0.00299667
0.00299423
0.00299137
0.00298809
0.00298442
0.00298035
0.00297589
0.00297105
0.00296585
0.00296029
0.00295433
0.00294799
0.00294125
0.00293411
0.00292654
0.00291853
0.00291006
0.00290112
0.00289166
0.00288167
0.00287112
0.00285997
0.00284818
0.00283571
0.00282253
0.00280858
0.00279382
0.0027782
0.00276167
0.00274416
0.00272561
0.0027059
0.00268488
0.00266237
0.00263833
0.00261262
0.00258501
0.00255252
0.00250422
2.72214e-08
3.72334e-07
2.43032e-06
1.15254e-05
3.72897e-05
7.80477e-05
0.000122392
0.000161521
0.000193519
0.00021921
0.00023954
0.000255041
0.000265945
0.000272323
0.000274723
0.000272732
0.000265728
0.000254801
0.000239601
0.000219912
0.000196267
0.000164423
0.000131765
0.000102516
8.18221e-05
6.39656e-05
5.88444e-05
7.00961e-05
8.12203e-05
8.71487e-05
0.000100508
0.000128721
0.000166345
0.000209265
0.000257635
0.000310863
0.000368963
0.000429849
0.000491231
0.00055211
0.000611782
0.000670062
0.000726709
0.000781414
0.000834297
0.000885862
0.000935839
0.000984231
0.00103113
0.0010767
0.00112109
0.00116441
0.00120683
0.00124846
0.00128944
0.00132988
0.00136989
0.00140959
0.00144904
0.00148834
0.00152755
0.00156673
0.00160591
0.00164513
0.00168442
0.00172377
0.0017632
0.00180268
0.00184222
0.00188179
0.00192135
0.00196088
0.00200034
0.00203968
0.00207887
0.00211787
0.00215662
0.0021951
0.00223325
0.00227107
0.00230849
0.00234551
0.00238209
0.00241822
0.00245386
0.00248899
0.00252361
0.00255768
0.00259119
0.00262413
0.00265648
0.00268822
0.00271934
0.00274983
0.00277967
0.00280887
0.00283741
0.00286529
0.00289249
0.00291903
0.0029449
0.00297009
0.0029946
0.00301842
0.00304154
0.00306396
0.00308567
0.00310667
0.00312694
0.00314648
0.00316529
0.00318336
0.00320069
0.00321727
0.00323311
0.0032482
0.00326253
0.00327612
0.00328895
0.00330104
0.00331238
0.00332297
0.00333283
0.00334196
0.00335036
0.00335804
0.00336502
0.0033713
0.00337689
0.00338181
0.00338606
0.00338965
0.00339258
0.00339486
0.00339651
0.00339753
0.00339794
0.00339774
0.00339692
0.00339548
0.0033935
0.00339095
0.00338786
0.00338423
0.00338007
0.00337538
0.00337018
0.00336446
0.00335824
0.00335152
0.0033443
0.00333655
0.00332828
0.00331947
0.00331011
0.00330019
0.00328968
0.00327858
0.00326686
0.00325449
0.00324145
0.00322771
0.00321324
0.003198
0.00318197
0.00316511
0.00314738
0.00312874
0.00310916
0.00308859
0.003067
0.00304434
0.00302052
0.00299548
0.00296911
0.0029414
0.00291229
0.00288173
0.00284765
0.00280168
1.75397e-07
1.14455e-06
7.75979e-06
3.63496e-05
8.30352e-05
0.000131464
0.000173388
0.000207743
0.000235402
0.000257447
0.000274663
0.00028746
0.000295992
0.000300409
0.00030098
0.00029499
0.000277759
0.000259007
0.000238674
0.000216356
0.000193068
0.000169452
0.000143531
0.00011199
8.61689e-05
6.9689e-05
6.95265e-05
8.62339e-05
0.000100808
0.000117466
0.000146949
0.000187701
0.000234574
0.000286555
0.000343386
0.00040442
0.000468593
0.000533766
0.000598427
0.000661998
0.000724178
0.000784854
0.000843616
0.000900698
0.000956709
0.00101108
0.00106391
0.00111528
0.0011653
0.00121408
0.00126175
0.00130842
0.00135422
0.00139927
0.00144368
0.00148755
0.001531
0.00157413
0.001617
0.00165971
0.00170231
0.00174486
0.0017874
0.00182997
0.00187257
0.00191522
0.00195793
0.00200067
0.00204344
0.0020862
0.00212894
0.00217161
0.00221417
0.00225658
0.00229878
0.00234074
0.00238241
0.00242373
0.00246467
0.0025052
0.00254528
0.00258487
0.00262397
0.00266254
0.00270057
0.00273803
0.0027749
0.00281118
0.00284685
0.00288189
0.00291628
0.00295002
0.0029831
0.0030155
0.0030472
0.00307821
0.0031085
0.00313806
0.0031669
0.00319504
0.00322247
0.00324919
0.00327518
0.00330045
0.00332499
0.00334879
0.00337185
0.00339416
0.00341571
0.00343651
0.00345653
0.00347579
0.00349428
0.00351199
0.00352893
0.00354508
0.00356045
0.00357504
0.00358885
0.00360187
0.00361412
0.00362559
0.00363628
0.0036462
0.00365536
0.00366376
0.0036714
0.0036783
0.00368445
0.00368988
0.00369457
0.00369855
0.0037018
0.00370434
0.00370618
0.00370732
0.00370777
0.00370751
0.00370653
0.0037049
0.0037026
0.00369964
0.00369603
0.00369177
0.00368687
0.00368133
0.00367516
0.00366835
0.00366091
0.00365284
0.00364412
0.00363476
0.00362473
0.00361403
0.00360265
0.00359057
0.00357777
0.00356423
0.00354994
0.00353488
0.00351901
0.00350232
0.00348478
0.00346637
0.00344705
0.0034268
0.00340559
0.00338341
0.00336021
0.00333598
0.00331069
0.00328432
0.00325682
0.00322817
0.00319832
0.00316729
0.0031351
0.00310179
0.00306592
0.00302164
8.20601e-07
3.50846e-06
2.46104e-05
7.16858e-05
0.000125297
0.00017258
0.000210642
0.000240777
0.000264711
0.0002837
0.000298333
0.000308817
0.000315247
0.000310381
0.000293282
0.000276718
0.000260668
0.000243866
0.000226267
0.000209466
0.000194273
0.000172679
0.000139496
0.000108612
8.56258e-05
7.44841e-05
8.58736e-05
0.000106482
0.000128113
0.000158463
0.000200733
0.000250249
0.000304603
0.000363446
0.000426266
0.000492185
0.000559756
0.000627294
0.000693835
0.000759041
0.000822777
0.000884666
0.000944908
0.0010042
0.00106194
0.00111816
0.00117294
0.00122636
0.00127852
0.00132951
0.00137944
0.00142842
0.00147655
0.00152394
0.00157069
0.00161692
0.00166271
0.00170815
0.00175334
0.00179833
0.0018432
0.00188799
0.00193275
0.00197751
0.00202229
0.00206709
0.00211193
0.00215678
0.00220163
0.00224646
0.00229124
0.00233593
0.00238048
0.00242486
0.00246901
0.00251289
0.00255642
0.00259955
0.00264226
0.0026845
0.00272624
0.00276744
0.00280809
0.00284817
0.00288766
0.00292654
0.00296479
0.00300242
0.00303941
0.00307576
0.00311144
0.00314642
0.0031807
0.00321426
0.0032471
0.00327921
0.00331057
0.0033412
0.0033711
0.00340028
0.00342872
0.00345643
0.00348339
0.00350961
0.00353508
0.0035598
0.00358375
0.00360695
0.00362937
0.00365103
0.0036719
0.003692
0.00371132
0.00372986
0.00374761
0.00376457
0.00378074
0.00379613
0.00381072
0.00382452
0.00383753
0.00384975
0.00386119
0.00387184
0.00388171
0.00389079
0.0038991
0.00390664
0.00391341
0.00391941
0.00392465
0.00392912
0.00393284
0.0039358
0.003938
0.00393945
0.00394014
0.00394004
0.0039392
0.0039376
0.00393524
0.00393215
0.00392831
0.00392372
0.00391839
0.00391232
0.00390549
0.00389791
0.00388958
0.00388049
0.00387063
0.00385999
0.00384856
0.00383633
0.00382328
0.00380939
0.00379465
0.00377905
0.00376256
0.00374517
0.00372685
0.00370759
0.00368736
0.00366616
0.00364395
0.00362071
0.00359644
0.00357112
0.00354473
0.00351726
0.00348872
0.00345908
0.00342835
0.00339652
0.00336362
0.00332967
0.00329475
0.00325902
0.0032213
0.00317853
1.3515e-06
7.6798e-06
4.44222e-05
0.000102904
0.000157912
0.000201615
0.000235421
0.00026208
0.000283312
0.000299874
0.000312003
0.000314311
0.000298476
0.000284314
0.000272087
0.00025995
0.000247262
0.000234844
0.000224744
0.000216326
0.000196623
0.000163494
0.000129386
0.00010251
8.43025e-05
8.71185e-05
0.000106859
0.000132712
0.000165001
0.000207338
0.000258087
0.000313765
0.000373417
0.000436725
0.000503089
0.00057152
0.000640658
0.000709263
0.000776676
0.00084267
0.000906921
0.000969464
0.00103102
0.00109118
0.00114986
0.00120709
0.00126295
0.00131751
0.00137085
0.00142306
0.00147423
0.00152445
0.00157383
0.00162246
0.00167045
0.00171788
0.00176486
0.00181148
0.00185781
0.00190393
0.00194989
0.00199574
0.00204154
0.00208731
0.00213309
0.0021789
0.00222473
0.00227058
0.0023164
0.00236219
0.00240795
0.00245361
0.00249914
0.0025445
0.00258965
0.00263456
0.00267924
0.00272356
0.00276741
0.00281072
0.00285345
0.00289559
0.00293712
0.00297802
0.00301828
0.00305789
0.00309683
0.00313511
0.0031727
0.00320958
0.00324577
0.00328128
0.00331609
0.0033502
0.0033836
0.00341629
0.00344828
0.00347955
0.00351009
0.00353989
0.00356896
0.0035973
0.00362488
0.00365172
0.00367782
0.00370316
0.00372774
0.00375156
0.00377462
0.00379691
0.00381844
0.00383919
0.00385916
0.00387836
0.00389679
0.00391443
0.00393129
0.00394737
0.00396267
0.00397718
0.00399091
0.00400385
0.00401601
0.00402739
0.00403798
0.00404778
0.0040568
0.00406504
0.0040725
0.00407917
0.00408506
0.00409017
0.00409449
0.00409802
0.00410076
0.0041027
0.00410383
0.00410414
0.00410364
0.00410232
0.00410017
0.00409721
0.00409342
0.0040888
0.00408335
0.00407705
0.0040699
0.00406189
0.00405301
0.00404326
0.00403262
0.00402108
0.00400863
0.00399525
0.00398092
0.00396563
0.00394937
0.00393211
0.00391384
0.00389455
0.00387421
0.00385281
0.00383034
0.00380679
0.00378214
0.00375638
0.0037295
0.00370149
0.00367237
0.00364214
0.0036108
0.00357837
0.00354486
0.00351029
0.00347473
0.00343822
0.0034009
0.00336299
0.00332335
0.00328148
1.62317e-06
1.31973e-05
6.35529e-05
0.000126672
0.000179458
0.000219404
0.000249889
0.000273351
0.000291288
0.000295145
0.000282876
0.000274193
0.000268199
0.000262768
0.000256908
0.000250151
0.000243559
0.000238651
0.000233789
0.000212437
0.000180615
0.000146295
0.000117299
9.58324e-05
9.02953e-05
0.000106586
0.00013356
0.00016763
0.000210056
0.000260521
0.000316455
0.000376021
0.000438756
0.000504334
0.000572162
0.000641318
0.000710683
0.000779327
0.000846744
0.000912628
0.000976714
0.00103965
0.00110134
0.00116156
0.00122034
0.00127772
0.00133373
0.00138845
0.00144193
0.00149427
0.00154555
0.00159586
0.00164531
0.00169399
0.00174198
0.00178938
0.00183629
0.00188281
0.00192902
0.00197501
0.00202082
0.00206649
0.00211205
0.0021576
0.00220317
0.00224879
0.00229449
0.00234034
0.0023865
0.00243274
0.00247894
0.00252506
0.00257102
0.00261681
0.00266237
0.00270764
0.00275251
0.00279693
0.00284086
0.00288423
0.00292704
0.00296927
0.00301089
0.0030519
0.00309229
0.00313206
0.00317119
0.00320969
0.00324755
0.00328476
0.00332131
0.00335719
0.00339238
0.00342689
0.0034607
0.00349382
0.00352622
0.00355792
0.00358891
0.00361917
0.0036487
0.00367751
0.00370558
0.00373292
0.00375952
0.00378538
0.0038105
0.00383487
0.00385849
0.00388136
0.00390348
0.00392483
0.00394544
0.00396528
0.00398436
0.00400268
0.00402023
0.00403701
0.00405303
0.00406828
0.00408277
0.00409647
0.00410941
0.00412157
0.00413295
0.00414356
0.00415338
0.00416243
0.00417068
0.00417816
0.00418484
0.00419073
0.00419582
0.0042001
0.00420356
0.0042062
0.00420799
0.00420894
0.00420901
0.00420821
0.00420655
0.004204
0.00420055
0.0041962
0.00419094
0.00418475
0.00417762
0.00416953
0.00416048
0.00415045
0.00413942
0.00412738
0.00411431
0.0041002
0.00408503
0.00406877
0.00405142
0.00403296
0.00401337
0.00399264
0.00397075
0.00394769
0.00392345
0.00389802
0.00387141
0.00384361
0.0038146
0.0037844
0.00375302
0.00372048
0.00368681
0.00365204
0.00361619
0.0035793
0.00354147
0.00350275
0.00346331
0.00342344
0.00338191
0.00334038
1.73649e-06
1.90684e-05
7.76537e-05
0.000142082
0.000192198
0.000228563
0.000254452
0.000262077
0.000249975
0.000244665
0.000244512
0.000245655
0.000246391
0.000246131
0.000245196
0.00024446
0.000244545
0.000242251
0.000218894
0.000189436
0.000157273
0.000128592
0.00010715
9.64621e-05
0.000108338
0.000134171
0.00016832
0.000210683
0.000260253
0.000315271
0.000373915
0.000435295
0.000499127
0.000565112
0.000632733
0.000701223
0.000769705
0.000837446
0.000904002
0.000968853
0.00103231
0.00109462
0.00115544
0.00121478
0.00127266
0.0013291
0.00138414
0.00143782
0.00149019
0.00154135
0.00159138
0.00164041
0.00168854
0.00173587
0.00178247
0.0018284
0.00187377